20
gdb 96926	2.39461	1.36866	1.12262	2.0733	83.04	-0.2441	0.0267	0.2708	1220.3747	0.168866	-403.126587	-403.116846	-403.115902	-403.161151	35.217	
C	 0.0100218561	 1.4114084168	 0.1079733861	-0.340841
N	 0.1045100477	-0.0383777118	 0.0096164914	-0.347839
C	 0.5608989571	-0.6881052656	 0.9743418639	 0.439161
O	 1.0601123388	-0.2469174425	 2.2114134988	-0.290802
C	 1.4804442081	-1.6018500346	 2.5126755459	 0.033622
C	 0.2943026546	-2.5018915032	 2.606196605	-0.07254
C	-1.05754716	-2.0801533934	 3.13509178	-0.422038
C	 0.8707780581	-2.1302844398	 1.2257305178	 0.126839
C	 1.3157133338	-3.1197233602	 0.189734922	-0.493594
H	 0.5236347818	 1.8610979855	-0.7486370132	 0.126229
H	-1.0428044375	 1.707460068	 0.0388559439	 0.127295
H	 0.4315562555	 1.825879237	 1.0310245901	 0.127768
H	 2.458178588	-1.722307492	 2.9609559472	 0.116409
H	 0.5798405317	-3.5232905618	 2.85769564	 0.095418
H	-1.2417895711	-1.0203247946	 2.9479941206	 0.141287
H	-1.8595658106	-2.6572804737	 2.6644503192	 0.123524
H	-1.1136487056	-2.244666708	 4.2164395972	 0.120355
H	 0.4740013113	-3.4287258958	-0.4387568211	 0.138542
H	 2.0787012906	-2.68891105	-0.4660278094	 0.132358
H	 1.7310753217	-4.0173435903	 0.6577249343	 0.118848
93.568	95.5021	151.2634	174.2415	186.424	207.9701	224.2647	255.8606	301.4191	426.0971	500.308	587.1	641.1247	731.7253	738.882	779.8728	856.9074	904.16	948.1589	955.8168	1017.3307	1049.3628	1065.2904	1079.4125	1107.493	1117.0462	1134.1942	1154.4559	1171.0984	1252.7448	1291.1164	1345.5811	1414.7572	1416.4291	1438.3961	1464.9341	1483.0283	1491.8565	1493.016	1497.5359	1498.2194	1502.8098	1849.2346	3017.582	3035.8133	3040.2425	3081.9922	3088.8847	3099.745	3100.5712	3108.8734	3116.1522	3135.4402	3202.4931
CN=C1OC2C(C)C12C	CN=C1O[C@H]2[C@@H](C)[C@@]12C	
InChI=1S/C7H11NO/c1-4-5-7(4,2)6(8-3)9-5/h4-5H,1-3H3	InChI=1S/C7H11NO/c1-4-5-7(4,2)6(8-3)9-5/h4-5H,1-3H3/t4-,5+,7-/m1/s1
