23
gdb 116440	2.48406	1.21749	0.94958	1.9887	81.36	-0.2425	0.0759	0.3184	1322.0304	0.206818	-425.432764	-425.423331	-425.422387	-425.466644	36.119	
C	-0.1535291068	 1.5897922596	-0.0958675333	-0.396062
C	 0.0169103557	 0.0661902173	 0.0092754966	-0.013003
C	 0.7743097201	-0.4826484558	-1.2118094838	-0.082391
O	 2.1289062348	-0.0660087595	-1.2337908253	-0.246542
C	 2.8492441334	-0.5559569546	-0.1130647997	-0.083215
C	 2.2534485145	-0.0661415683	 1.2069199018	-0.205199
C	 0.7571982865	-0.4154433941	 1.2809562234	 0.041836
C	 0.1168171726	 0.0658770813	 2.5796482396	-0.110879
O	 0.7199253289	-0.650366968	 3.6504036613	-0.42515
H	 0.8128270542	 2.0957390328	-0.1673120961	 0.130479
H	-0.7222931531	 1.844522926	-0.996638229	 0.111074
H	-0.6954806663	 2.0033467625	 0.7596336145	 0.110349
H	-0.9826450384	-0.3907836714	 0.0051046025	 0.065377
H	 0.7206396896	-1.5855929063	-1.2161391308	 0.079437
H	 0.3286890327	-0.1194800348	-2.1435952403	 0.09854
H	 2.8584810458	-1.6603801429	-0.130839967	 0.082798
H	 3.8798998749	-0.211204455	-0.2388723858	 0.102495
H	 2.7814439161	-0.5185463275	 2.0516578161	 0.111311
H	 2.3916261768	 1.0196142307	 1.2833450732	 0.096788
H	 0.6779720331	-1.5127109416	 1.2977254691	 0.077806
H	 0.2667538284	 1.1496166496	 2.7013281559	 0.086724
H	-0.9706150252	-0.1151683438	 2.5457300266	 0.080965
H	 0.3998199517	-0.2813414763	 4.4782952005	 0.286463
106.4405	126.9353	170.2049	211.2808	215.4706	250.9249	295.3085	321.3828	348.6197	412.5109	450.6394	523.0117	559.4974	672.731	777.061	843.142	870.3416	901.7381	959.7602	968.2458	995.0623	1020.2605	1036.8094	1056.5138	1083.3481	1104.2319	1148.0396	1161.7397	1182.0295	1222.7061	1245.1867	1250.5751	1282.1624	1310.8679	1318.2516	1343.601	1348.5368	1371.5165	1384.3377	1399.4224	1413.1588	1428.3566	1455.9325	1485.6652	1489.279	1497.6195	1503.2987	1508.0857	1519.9421	2946.9241	2952.7443	2957.9487	2986.863	3000.3324	3012.3838	3033.7562	3040.1688	3071.4407	3081.435	3091.96	3099.5749	3120.8592	3834.2428
CC1COCCC1CO	C[C@H]1COCC[C@H]1CO	
InChI=1S/C7H14O2/c1-6-5-9-3-2-7(6)4-8/h6-8H,2-5H2,1H3	InChI=1S/C7H14O2/c1-6-5-9-3-2-7(6)4-8/h6-8H,2-5H2,1H3/t6-,7-/m0/s1
