18
gdb 69692	2.91631	1.4173	1.26881	4.5541	77.1	-0.2155	0.0114	0.227	1066.6779	0.146474	-401.87095	-401.862966	-401.862022	-401.903369	31.185	
C	-0.1491842223	 1.4692227111	-0.0658909818	-0.515956
C	 0.0898867174	-0.005696971	-0.0315420896	 0.356851
N	-0.8203896387	-0.9523624287	 0.6564091103	-0.365003
C	 0.620783367	-0.9199965387	 1.0048873094	-0.118188
C	 1.3747061339	-1.756335102	-0.065077958	-0.094185
C	 0.4547384789	-2.2771056428	-1.1356791643	-0.123397
C	-0.9358607812	-2.8415596531	-0.9487288241	 0.166875
O	-1.7890703445	-2.7643411611	-1.7979913178	-0.285335
C	 0.8244725526	-0.8163310474	-1.14132099	-0.118015
H	 0.7623404896	 2.0062247751	-0.3489493294	 0.131128
H	-0.92782039	 1.7239723128	-0.7942033285	 0.140164
H	-0.4662742328	 1.8400719905	 0.9147028824	 0.119426
H	-1.3451538915	-0.4464442465	 1.3683954478	 0.232561
H	 0.9504820719	-0.7301525588	 2.0183067017	 0.098151
H	 2.3909928337	-2.1045152759	 0.0638381903	 0.093945
H	 0.9922999636	-2.8242512102	-1.9097456444	 0.114751
H	-1.0762480171	-3.4425020025	-0.0273988841	 0.07047
H	 1.3527208494	-0.3475601209	-1.9616943998	 0.095758
85.0838	155.3331	212.8304	243.6962	277.4045	326.2576	433.0869	464.9906	581.488	596.4359	688.1511	720.7983	767.8665	811.4663	846.4274	860.9064	881.807	948.7711	957.2724	984.9371	1000.138	1005.6162	1027.7498	1054.8876	1071.7462	1106.1987	1132.7441	1163.425	1218.9725	1269.6276	1295.5499	1329.9099	1379.0001	1412.5916	1417.3201	1458.3352	1481.8285	1498.6106	1801.605	2912.3797	3025.7229	3090.4099	3099.1954	3123.4777	3190.0307	3195.3456	3204.3412	3483.0485
CC12NC1C1C(C=O)C21	C[C@]12N[C@H]1[C@H]1[C@@H](C=O)[C@@H]21	
InChI=1S/C7H9NO/c1-7-5-3(2-9)4(5)6(7)8-7/h2-6,8H,1H3	InChI=1S/C7H9NO/c1-7-5-3(2-9)4(5)6(7)8-7/h2-6,8H,1H3/t3-,4+,5-,6+,7-/m1/s1
