21
gdb 114559	2.60369	1.40006	1.10377	1.6983	77.83	-0.2553	0.0745	0.3298	1166.4464	0.1837	-424.21143	-424.202914	-424.201969	-424.244246	33.928	
O	-0.0936207774	 1.4006193257	-0.0656093744	-0.42645
C	 0.0165890099	-0.0090071456	 0.1001867629	-0.116679
C	-1.3843350178	-0.5894974944	-0.0067357566	 0.029864
C	-2.0767769799	-0.4237116205	-1.3985686077	-0.222663
C	-2.4108257271	-1.902294081	-1.690970538	-0.020564
C	-1.075822445	-2.6125368924	-1.3322865447	-0.292385
C	-1.4607221381	-2.1257464705	 0.1029151099	 0.394462
O	-0.8789340891	-2.6141748633	 1.2711388314	-0.494783
C	-2.940198518	-2.3961103709	-0.3140781398	-0.287673
H	 0.785648073	 1.7801786117	 0.0188764894	 0.284489
H	 0.6745296737	-0.4429833388	-0.6693904489	 0.07882
H	 0.4425113096	-0.2658157194	 1.080943688	 0.101029
H	-1.98482783	-0.136671112	 0.7894638865	 0.079327
H	-2.9676895975	 0.2076731502	-1.3507399514	 0.0983
H	-1.4010713839	 0.0093155241	-2.1417502105	 0.102357
H	-2.9407725198	-2.1299388867	-2.6146167505	 0.062434
H	-1.1416711104	-3.7006477517	-1.4255194006	 0.084511
H	-0.1507095703	-2.2516441321	-1.7890053142	 0.091873
H	-0.9664354191	-3.572573503	 1.2782955685	 0.278498
H	-3.7290145182	-1.8218388821	 0.1807475385	 0.091555
H	-3.1857495948	-3.4622098973	-0.3147076079	 0.083678
92.6525	161.9898	184.5147	268.1828	293.9085	304.9103	380.8603	403.5956	438.9383	491.3367	554.7212	588.7847	683.7158	822.8536	833.1416	856.9557	899.0672	899.3713	950.2645	967.6075	995.1117	1009.7319	1023.8082	1076.2239	1085.9263	1097.0757	1113.2046	1129.2358	1152.5468	1189.1499	1200.1825	1233.0272	1246.2196	1258.4342	1278.6076	1283.0406	1306.443	1334.5593	1365.8926	1402.2037	1459.9068	1484.9067	1495.7152	1519.0957	1530.7381	2972.9238	3012.6852	3043.718	3051.0754	3053.5748	3060.1606	3101.4473	3106.2899	3111.1485	3124.6274	3817.6796	3831.2887
OCC1CC2CC1(O)C2	OC[C@H]1C[C@H]2C[C@]1(O)C2	
InChI=1S/C7H12O2/c8-4-6-1-5-2-7(6,9)3-5/h5-6,8-9H,1-4H2	InChI=1S/C7H12O2/c8-4-6-1-5-2-7(6,9)3-5/h5-6,8-9H,1-4H2/t5-,6-,7-/m1/s1
