13
gdb 25319	2.25527	1.596	0.9346	5.313	76.53	-0.2543	-0.0709	0.1833	1137.319	0.091026	-415.675211	-415.66773	-415.666786	-415.707589	27.08	
O	-0.0551381807	-0.0519132049	-0.000651166	-0.271775
C	-0.0064338386	 1.1575069023	 0.0094133249	 0.06076
C	 1.2427595512	 1.9205466026	 0.0019646577	 0.09385
C	 1.3558876984	 3.3125845166	 0.0125891091	 0.170538
N	 2.6924890623	 3.6159628374	-0.0001191824	-0.317288
C	 3.4299315993	 2.4616444275	-0.0179142456	-0.062711
C	 2.5626857629	 1.3963866693	-0.0169211014	-0.223441
C	 0.362152541	 4.315039384	 0.0321435024	 0.22273
N	-0.4451740401	 5.1468653813	 0.0480834895	-0.342071
H	-0.9303953049	 1.7740494584	 0.0245226906	 0.089184
H	 3.0634975789	 4.5520717428	 0.0034296909	 0.287186
H	 4.5073499584	 2.4990851153	-0.0297091582	 0.149567
H	 2.8163884118	 0.3489746972	-0.0284167616	 0.143471
119.9423	137.7469	164.9209	219.7946	277.2481	447.0485	498.2865	559.8145	560.3278	620.1055	640.9514	699.981	776.9156	791.4656	881.9197	920.1134	1039.3458	1065.9345	1098.9274	1172.9465	1268.403	1328.8382	1410.3236	1453.8186	1466.78	1500.0809	1587.8752	1789.4051	2336.1595	2907.4393	3265.5548	3283.5426	3663.7588
O=CC1=C(NC=C1)C#N	O=Cc1c([nH]cc1)C#N	
InChI=1S/C6H4N2O/c7-3-6-5(4-9)1-2-8-6/h1-2,4,8H	InChI=1S/C6H4N2O/c7-3-6-5(4-9)1-2-8-6/h1-2,4,8H
