19
gdb 37481	2.90516	1.73604	1.42228	1.9264	73.83	-0.2016	0.0738	0.2755	967.6852	0.163494	-419.143047	-419.136058	-419.135113	-419.174338	28.551	
C	 0.0197012504	 1.4142411265	 0.0709412243	-0.170796
C	 1.4186034745	 2.0170230757	-0.0383733816	-0.068946
O	 2.0502455656	 1.6696745161	-1.2713790772	-0.277265
C	 1.9477496389	 0.3232740478	-1.6496676899	 0.149616
C	 2.9452640344	-0.7398169692	-1.1767397515	-0.101967
N	 2.6993410857	-1.0364783057	 0.2562973146	-0.341876
C	 1.8221251576	-1.639807654	-0.7753676737	-0.064488
C	 0.7663508157	-0.5675951663	-1.0840620843	-0.040981
N	 0.0415293678	-0.0553252902	 0.0746217388	-0.30733
H	-0.4629432396	 1.7598490977	 0.9916563274	 0.100194
H	-0.5937047461	 1.7604865618	-0.771068876	 0.104821
H	 1.3784290214	 3.1114611666	-0.0321035787	 0.098247
H	 2.0304039261	 1.6859010917	 0.8130537104	 0.103892
H	 1.9260076718	 0.3083913031	-2.7444512633	 0.0859
H	 3.8995084347	-0.9889084019	-1.6264825298	 0.094081
H	 3.3772085709	-1.745401663	 0.5330984792	 0.233657
H	 1.7274169583	-2.713593454	-0.8710806125	 0.098327
H	 0.0691977652	-0.8578970053	-1.8765871817	 0.076907
H	 0.5691657166	-0.3404881474	 0.8958599354	 0.228005
129.7704	146.9804	295.4526	333.9952	421.4872	444.905	520.3782	594.5045	634.8312	732.0475	778.2	835.7441	841.0411	857.8678	876.3078	902.4668	946.9994	974.0385	1001.0175	1026.4647	1046.6543	1052.7837	1100.2843	1110.117	1147.6681	1159.7518	1176.0367	1189.6522	1241.3368	1278.9343	1295.6712	1305.0916	1327.2405	1345.8884	1378.0199	1382.4105	1386.1703	1420.2291	1475.844	1496.8394	1519.8009	3004.8788	3023.9926	3042.1451	3058.3385	3072.4505	3077.1658	3177.6016	3202.8795	3479.0424	3496.1219
C1COC2C3NC3C2N1	C1CO[C@H]2[C@H]3N[C@H]3[C@H]2N1	
InChI=1S/C6H10N2O/c1-2-9-6-4(7-1)3-5(6)8-3/h3-8H,1-2H2	InChI=1S/C6H10N2O/c1-2-9-6-4(7-1)3-5(6)8-3/h3-8H,1-2H2/t3-,4+,5-,6+/m0/s1
