20
gdb 68007	2.77014	1.60536	1.22174	3.02	80.77	-0.2517	0.0355	0.2871	1090.9503	0.171007	-403.163462	-403.155063	-403.154119	-403.19576	33.444	
C	-0.1327642326	 1.4997714133	 0.0118429742	-0.492256
C	 0.0767910816	 0.0141301288	 0.0354827826	 0.420368
C	 1.0169825379	-0.7823749422	-0.9022948692	-0.302355
C	 0.682494912	-1.9322918929	 0.1194002911	 0.201809
C	 1.4518061775	-3.2214282308	 0.233774759	-0.491332
C	 0.6796335045	-0.7963061655	 1.2091784562	-0.302354
C	-0.810485971	-2.005573305	-0.1195895857	 0.428762
N	-1.5408750135	-3.0244863203	-0.2429565419	-0.586199
O	-1.1999129917	-0.6868935131	-0.1731100049	-0.29452
H	 0.8181764951	 2.0176084718	 0.1658158652	 0.123126
H	-0.548346693	 1.8156992993	-0.949759855	 0.133585
H	-0.8258475208	 1.8045072139	 0.8017622385	 0.133558
H	 0.7034905878	-0.905113529	-1.9418180023	 0.109883
H	 2.0595751679	-0.4627344426	-0.8398033107	 0.103805
H	 2.5157383055	-3.0321383647	 0.4059882337	 0.109192
H	 1.0678963487	-3.8268345435	 1.0603130427	 0.135006
H	 1.3474023559	-3.8144394113	-0.6797438524	 0.134959
H	 1.6891449397	-0.4780662407	 1.4787772942	 0.103807
H	 0.0580870247	-0.9317284351	 2.0975990757	 0.109885
H	-2.5147424862	-2.7557150104	-0.3967262511	 0.221268
158.8785	185.7884	205.2921	227.716	233.9729	272.9209	356.0083	484.4934	486.6377	511.8798	585.3462	604.2082	694.8857	714.9207	791.5184	829.7166	873.7871	879.8261	893.9636	923.388	981.1701	1008.8644	1025.6067	1036.7127	1046.7357	1112.8572	1145.6189	1188.1353	1189.386	1210.2548	1231.8188	1272.9087	1336.5431	1378.4287	1416.9646	1424.7171	1474.6921	1481.0298	1485.0895	1489.563	1491.8543	1516.214	1802.4926	3040.3658	3042.54	3061.4391	3068.3589	3111.54	3113.1754	3114.8598	3119.2371	3128.906	3134.0343	3466.3177
CC12CC(C)(C1)C(=N)O2	C[C@@]12C[C@@](C)(C1)[C]([NH])O2	
InChI=1S/C7H11NO/c1-6-3-7(2,4-6)9-5(6)8/h8H,3-4H2,1-2H3	InChI=1S/C7H11NO/c1-6-3-7(2,4-6)9-5(6)8/h8H,3-4H2,1-2H3/t6-,7+
