23
gdb 59863	3.0659	0.8297	0.72308	2.8167	82.7	-0.2603	-0.0244	0.2359	1675.3138	0.202158	-425.460986	-425.449842	-425.448898	-425.497882	40.41	
C	 0.0436920234	 1.4304370073	-0.0707747685	-0.397703
C	 0.0543836335	-0.0748829955	 0.2229049348	 0.048669
C	 0.4165198446	-0.351144555	 1.6885841302	-0.390591
C	-1.2960775762	-0.7066942759	-0.1502928543	-0.299789
C	-1.295013498	-2.2223063143	-0.1944989684	 0.357681
O	-0.2746487198	-2.8756086866	-0.2859604783	-0.334042
C	-2.6362468724	-2.9616674652	-0.1275380897	 0.065785
C	-3.604987263	-2.520365621	-1.2339204771	-0.403219
O	-2.4201294355	-4.3449129652	-0.195545722	-0.439363
H	 1.0119292303	 1.8813526048	 0.1690422291	 0.115813
H	-0.1683507957	 1.6340669462	-1.125979528	 0.110153
H	-0.7173623568	 1.9462596805	 0.5273944012	 0.111584
H	 0.8150195039	-0.5495223172	-0.4074924128	 0.098204
H	-0.3248326319	 0.0907196019	 2.3659180851	 0.107017
H	 0.4693344172	-1.4241599191	 1.8903323801	 0.129636
H	 1.389916632	 0.0836054445	 1.9366751904	 0.114921
H	-2.0926323889	-0.3660256924	 0.5247604118	 0.11459
H	-1.603425192	-0.3712007604	-1.1518751269	 0.131456
H	-3.0821292155	-2.6960843071	 0.8487922784	 0.087772
H	-3.1602000874	-2.6849681429	-2.2201083438	 0.12699
H	-4.5142546967	-3.1225759107	-1.1672709371	 0.137499
H	-3.8812472728	-1.466343931	-1.1373736143	 0.11556
H	-1.4552789424	-4.4477482258	-0.2415177498	 0.291377
39.9759	58.555	98.3688	140.024	213.2237	229.7134	244.5107	254.2096	310.5656	326.8551	373.1691	393.7535	422.48	446.7575	473.8832	577.4538	700.9719	802.848	833.1221	876.9856	928.9775	931.2528	959.9137	971.1637	1023.9822	1060.0745	1083.2194	1133.8188	1162.2665	1190.8518	1199.5217	1245.3346	1278.1895	1317.9185	1355.3874	1364.5202	1390.6508	1399.5291	1400.7777	1420.4837	1433.2352	1446.008	1488.1708	1490.5117	1494.4369	1499.5802	1505.7998	1512.2308	1783.2876	2936.137	3008.4942	3022.791	3027.6881	3038.7707	3043.0387	3053.2707	3087.4703	3095.3276	3100.9403	3118.2693	3118.5877	3127.3817	3670.393
CC(C)CC(=O)C(C)O	CC(C)CC(=O)[C@@H](C)O	
InChI=1S/C7H14O2/c1-5(2)4-7(9)6(3)8/h5-6,8H,4H2,1-3H3	InChI=1S/C7H14O2/c1-5(2)4-7(9)6(3)8/h5-6,8H,4H2,1-3H3/t6-/m1/s1
