16
gdb 74562	2.55559	1.67702	1.31709	1.1937	74.57	-0.2317	0.0142	0.2459	1009.4196	0.123471	-400.718707	-400.710689	-400.709744	-400.751285	30.363	
C	-0.0580847885	 1.4394717097	 0.0506642153	-0.48129
C	 0.0260057898	-0.0386980134	-0.079269757	 0.396259
N	 0.0466114737	-0.7226037955	-1.1570938639	-0.294
C	 0.0579495274	-2.1027074653	-0.7597472707	-0.047604
C	 0.0831308662	-2.0937378183	 0.7512178063	 0.040292
O	 0.0853959432	-0.7299226517	 1.1050432965	-0.234394
C	-1.1593431007	-2.6064063167	 0.0405997678	-0.29534
C	-2.401696298	-1.9008453371	 0.0780773789	 0.352755
C	-3.4473741514	-1.3079016082	 0.1181909629	-0.439746
H	 0.734311843	 1.8108380063	 0.7072000578	 0.144833
H	 0.0287359291	 1.8962801888	-0.9346233766	 0.155421
H	-1.0168854012	 1.721851555	 0.4967390821	 0.155087
H	 0.580498817	-2.8035136946	-1.3988013794	 0.10958
H	 0.6572608518	-2.7173264013	 1.424007497	 0.119416
H	-1.235267567	-3.6904023445	 0.0580493391	 0.122291
H	-4.3742653844	-0.7910481434	 0.1451845237	 0.196439
94.3626	130.4126	153.5419	205.5404	329.56	364.5654	375.4508	573.1239	579.5329	632.918	651.2976	664.2613	689.4898	774.966	779.2502	792.4362	904.2105	944.5082	974.4782	1012.3283	1031.325	1068.1316	1080.8048	1090.9989	1139.3521	1177.9789	1242.749	1327.1103	1352.1591	1384.3392	1412.3866	1471.8321	1478.0489	1708.2137	2237.0435	3052.6789	3111.8694	3144.3746	3166.0524	3188.1182	3200.6651	3505.1503
CC1=NC2C(O1)C2C#C	CC1=N[C@H]2[C@@H](O1)[C@H]2C#C	
InChI=1S/C7H7NO/c1-3-5-6-7(5)9-4(2)8-6/h1,5-7H,2H3	InChI=1S/C7H7NO/c1-3-5-6-7(5)9-4(2)8-6/h1,5-7H,2H3/t5-,6+,7-/m0/s1
