16
gdb 123896	3.75248	1.62664	1.16876	4.9348	78.43	-0.2306	-0.0378	0.1929	999.5559	0.128749	-396.951799	-396.945288	-396.944344	-396.982684	25.711	
C	-0.0345811647	 1.5049032557	 0.0833452727	-0.283949
C	 1.3775792708	 2.0980523483	-0.0457779194	-0.158407
N	 2.1119192853	 1.3792471471	-1.0749903325	-0.014163
N	 3.1301230516	 1.9021338228	-1.7782456459	-0.155061
N	 3.6376834902	 0.9360237151	-2.4985122463	-0.19246
C	 2.9574586589	-0.213730871	-2.2437717835	-0.181189
C	 1.9647769806	 0.0497780248	-1.319853161	 0.347179
C	 0.9088191658	-0.6776133416	-0.6465747108	-0.145528
C	-0.0296595719	-0.0063544715	 0.0345747544	-0.095046
H	-0.4817943526	 1.8633314107	 1.0154680502	 0.122982
H	-0.6720307299	 1.8850685719	-0.7283437537	 0.134285
H	 1.3571467751	 3.1549039283	-0.3162564414	 0.145544
H	 1.9192279778	 1.9990315124	 0.9032596473	 0.132772
H	 3.202519206	-1.1394856584	-2.739019276	 0.124586
H	 0.8966732886	-1.7584756586	-0.7266404377	 0.110811
H	-0.8423503816	-0.534685856	 0.5218584036	 0.107643
137.4974	204.7923	253.2238	387.3779	433.4763	499.653	589.6529	673.1882	703.5191	718.9528	758.5979	795.2175	846.9473	883.5562	942.7632	984.9274	999.0241	1021.778	1064.1545	1135.6254	1162.9309	1169.0529	1225.814	1244.0707	1276.8672	1311.0547	1317.4773	1360.5999	1379.6151	1414.0547	1467.5611	1476.8939	1507.1063	1579.9757	1687.2778	3005.8333	3032.1124	3082.0546	3123.7701	3182.3098	3205.2971	3268.7119
C1CN2N=NC=C2C=C1	C1Cn2nncc2C=C1	
InChI=1S/C6H7N3/c1-2-4-9-6(3-1)5-7-8-9/h1,3,5H,2,4H2	InChI=1S/C6H7N3/c1-2-4-9-6(3-1)5-7-8-9/h1,3,5H,2,4H2
