14
gdb 56482	2.77649	1.04596	0.8381	1.8267	66.83	-0.2781	-0.042	0.2361	1332.2649	0.097499	-473.803064	-473.793635	-473.792691	-473.838333	32.43	
O	-0.2597715031	 1.3457426824	-0.0217024221	-0.399087
C	-0.0055200216	-0.03468405	-0.0211746139	-0.14187
C	 0.7492861411	-0.4926916994	-1.1961553346	 0.32695
C	 1.3811358317	-0.8494106559	-2.1531936913	-0.460917
C	 0.7854994626	-0.4109788892	 1.2397400194	 0.447899
O	 1.3876229007	 0.3951316231	 1.8960204745	-0.349839
O	 0.7145969318	-1.7402054414	 1.4867796219	-0.19409
C	 1.4395798677	-2.2470418209	 2.5486390488	 0.120237
N	 1.3329106586	-3.4737414748	 2.7878019885	-0.408134
H	 0.4870815617	 1.7615569704	 0.4323152135	 0.299874
H	-0.9690919824	-0.5572079191	 0.0136310064	 0.149342
H	 1.9295195978	-1.1669933275	-3.0059642577	 0.210988
H	 2.0314249996	-1.4864560964	 3.0570810574	 0.151327
H	 1.9149133238	-3.7257672913	 3.5854689693	 0.24732
48.6988	89.9927	104.8634	147.5327	179.2826	234.0014	289.4549	359.4809	388.0696	419.1437	531.0567	582.5413	644.9733	681.3545	688.8084	816.3329	853.5507	924.3622	974.2791	1008.2646	1068.1161	1108.6043	1200.8997	1251.6273	1282.261	1321.113	1388.986	1432.4763	1751.6235	1834.9357	2236.225	3047.6829	3145.413	3500.887	3510.9918	3749.0974
OC(C#C)C(=O)OC=N	O[C@@H](C#C)C(=O)O[CH][NH]	
InChI=1S/C5H5NO3/c1-2-4(7)5(8)9-3-6/h1,3-4,6-7H	InChI=1S/C5H5NO3/c1-2-4(7)5(8)9-3-6/h1,3-4,6-7H/t4-/m0/s1
