20
gdb 85737	3.29511	1.18409	1.01225	1.8968	84.8	-0.2346	0.0598	0.2944	1240.3201	0.171582	-365.971243	-365.962675	-365.961731	-366.004208	33.665	
C	-0.0084413829	 1.5677741204	 0.0359890236	-0.405948
C	 0.0295102825	 0.03887789	 0.0182913254	 0.029384
C	 0.8063980588	-0.5480990547	-1.1867106675	-0.241048
C	 1.3135283165	-1.9454258	-0.7227337362	-0.170025
C	 2.4857822459	-2.4269197831	-1.441043238	 0.326068
C	 3.4515982735	-2.8275912915	-2.0344195073	-0.45973
C	 1.5087215069	-1.762170826	 0.783690352	-0.049788
N	 2.1999879064	-0.5065558508	 1.1320268114	-0.329814
C	 0.7241400315	-0.5864393348	 1.2210040137	-0.046238
H	 1.0061373686	 1.9690749556	 0.1224397952	 0.132643
H	-0.4561740847	 1.9644572773	-0.8811647166	 0.111929
H	-0.5958446115	 1.9424521243	 0.8812948548	 0.106697
H	-0.9998866064	-0.3464930924	 0.0037658683	 0.069974
H	 0.196584973	-0.6158195247	-2.0904990741	 0.100491
H	 1.6692064568	 0.0823173686	-1.4101471559	 0.130762
H	 0.5035566171	-2.6779686763	-0.8490249041	 0.100447
H	 4.3078141864	-3.1764485264	-2.5561263243	 0.189878
H	 1.6521152251	-2.6376147892	 1.4082589747	 0.090673
H	 2.6031046398	-0.5957235194	 2.0608012991	 0.231786
H	 0.2537099868	-0.5457834469	 2.1990972856	 0.08186
91.1733	128.8402	173.3973	233.6762	268.0892	319.3279	370.6242	455.0815	517.769	550.4053	593.0517	615.3148	628.476	648.506	805.5296	830.7251	869.0968	888.8524	908.6733	934.2879	945.7026	1018.088	1042.9344	1049.8383	1066.4092	1111.2043	1119.5896	1139.6373	1181.3581	1224.4226	1255.3177	1275.8249	1307.5814	1326.5209	1344.5851	1353.6537	1385.3251	1406.6618	1426.7594	1486.8427	1497.2057	1502.6688	2236.1101	3003.9254	3005.8958	3030.9491	3075.449	3095.393	3109.2684	3125.341	3150.3341	3168.7879	3505.1349	3510.2749
CC1CC(C#C)C2NC12	C[C@H]1C[C@@H](C#C)[C@H]2N[C@@H]12	
InChI=1S/C8H11N/c1-3-6-4-5(2)7-8(6)9-7/h1,5-9H,4H2,2H3	InChI=1S/C8H11N/c1-3-6-4-5(2)7-8(6)9-7/h1,5-9H,4H2,2H3/t5-,6+,7-,8+/m0/s1
