16
gdb 8835	2.77274	1.54475	1.11479	3.2568	62.55	-0.2685	-0.0613	0.2071	1063.7167	0.126591	-420.900013	-420.890719	-420.889775	-420.934912	31.457	
C	 0.3326693725	 1.6985977954	-0.1879536041	-0.415148
C	-0.0477251465	 0.2714163355	 0.2048606423	-0.164645
C	 0.3599229962	-0.7414423658	-0.8762847043	 0.147067
O	-0.0438059705	-1.8719093138	-0.9307243512	-0.230755
C	 0.6137718076	-0.1657917228	 1.5162491053	 0.346339
O	 1.6303978839	 0.3473797569	 1.9293398972	-0.317329
C	-0.0468054797	-1.2897781963	 2.2908851574	-0.138448
O	 0.7132834364	-1.6740275847	 3.3966104434	-0.419213
H	 1.419077239	 1.8017923015	-0.2440311617	 0.149136
H	-0.0978250883	 1.9621038028	-1.1584993841	 0.124049
H	-0.028598609	 2.4156578707	 0.5527515999	 0.136619
H	-1.1310104041	 0.1519389893	 0.3258779647	 0.122946
H	 1.0847625631	-0.3457092224	-1.6211502456	 0.101491
H	-1.0496454753	-0.9321032641	 2.588151305	 0.113891
H	-0.2162810939	-2.1309864863	 1.601658853	 0.149077
H	 1.4416378386	-1.0361438857	 3.4450827327	 0.294923
51.1269	66.28	103.7219	170.0086	201.3378	221.4679	280.7035	334.3338	377.1874	410.3496	507.2077	573.8357	654.3126	826.4845	883.2438	953.6772	979.0172	1021.5511	1085.3932	1122.4426	1138.2059	1155.5844	1235.222	1261.9767	1312.7797	1336.5841	1409.0599	1420.231	1446.2106	1489.3216	1491.0838	1496.7389	1787.6363	1830.6599	2895.3964	2950.4539	3017.3182	3049.4805	3051.7373	3124.2494	3134.8523	3708.4905
CC(C=O)C(=O)CO	C[C@@H](C=O)C(=O)CO	
InChI=1S/C5H8O3/c1-4(2-6)5(8)3-7/h2,4,7H,3H2,1H3	InChI=1S/C5H8O3/c1-4(2-6)5(8)3-7/h2,4,7H,3H2,1H3/t4-/m0/s1
