17
gdb 30949	2.32402	1.39584	0.92137	3.0461	73.9	-0.1887	0.0374	0.2261	1258.6053	0.135283	-455.170776	-455.161693	-455.160749	-455.20473	33.399	
C	-0.2757397388	 1.5637046569	-0.1366928314	-0.371919
C	 0.08399125	 0.0748168329	 0.0110752505	-0.303575
C	 0.8479827044	-0.4685062958	-1.1375675993	 0.255013
C	 2.0703899305	-0.993080658	-1.270408113	 0.229279
O	 3.0015477807	-1.2769249959	-0.3302977857	-0.426063
N	 2.2940233289	-1.2570782983	-2.6324122464	-0.396891
C	 1.1196135807	-0.9876738817	-3.3215661545	 0.456628
N	 0.909308066	-1.2009732299	-4.5514882175	-0.598095
O	 0.2449220891	-0.4485522625	-2.4041026169	-0.257025
H	 0.6261173615	 2.1797596216	-0.2041909269	 0.117545
H	-0.8663400248	 1.7316675681	-1.0413125243	 0.13497
H	-0.861267975	 1.9052947582	 0.72191973	 0.115075
H	 0.6891318942	-0.0860584056	 0.9091096967	 0.123429
H	-0.8380889092	-0.5070370344	 0.1446438653	 0.118967
H	 3.8064827761	-0.7759348149	-0.5154976731	 0.307162
H	 2.9166435319	-1.9749203256	-2.966123948	 0.27143
H	-0.0368555561	-0.9262805449	-4.8031094755	 0.224071
70.402	118.6305	177.4748	192.8078	230.3943	272.7888	292.068	340.1686	403.5357	457.1318	549.1928	608.1056	653.1488	665.415	720.7453	760.2265	783.8729	820.2341	952.3742	979.0104	1022.1622	1061.3736	1084.126	1140.0716	1233.7782	1255.5705	1279.6068	1293.7368	1351.3908	1376.3437	1406.3793	1435.7792	1472.0838	1495.6615	1507.5847	1777.6273	1818.2106	3016.7778	3042.2654	3081.0923	3113.285	3123.2946	3536.2514	3655.6579	3754.3559
CCC1=C(O)NC(=N)O1	CCC1=C(O)N[C@H]([NH])O1	
InChI=1S/C5H8N2O2/c1-2-3-4(8)7-5(6)9-3/h8H,2H2,1H3,(H2,6,7)	InChI=1S/C5H9N2O2/c1-2-3-4(8)7-5(6)9-3/h5-8H,2H2,1H3/t5-/m0/s1
