16
gdb 47172	2.51089	2.01242	1.16493	4.6461	71.81	-0.2241	0.0022	0.2263	1007.2308	0.126522	-437.916369	-437.909181	-437.908236	-437.948132	27.406	
O	 0.1149798713	 0.0483801989	-0.1774390464	-0.379642
C	 0.0394479351	 1.2135617684	 0.1092840613	 0.450678
O	-1.1465841338	 1.8643033825	 0.1798708487	-0.249663
C	-1.2175252803	 3.2217787708	 0.6942076797	-0.116956
C	-0.0775499674	 4.0864191499	 0.2159018974	-0.307855
C	 1.0636565097	 3.4220358372	 0.1013561627	 0.404395
C	 2.5122586842	 3.468410205	-0.3440900211	-0.375911
C	 2.4958081947	 1.9070795124	-0.1942472679	-0.164224
N	 1.1276797179	 2.035011899	 0.3501231035	-0.172482
H	-2.1869926778	 3.592026591	 0.3547584143	 0.132939
H	-1.2450495669	 3.1576699639	 1.7918207564	 0.123773
H	-0.2152587526	 5.1338779632	-0.0095573623	 0.11062
H	 2.6805564603	 3.840531959	-1.3560630923	 0.138722
H	 3.1860258442	 3.9844361891	 0.3433095059	 0.135663
H	 2.5238023923	 1.3514064706	-1.1346007582	 0.140321
H	 3.210225319	 1.477486789	 0.5103566081	 0.12962
119.4059	160.6072	198.7446	233.6559	341.5843	513.0675	516.8955	559.113	611.663	718.4454	737.1946	772.3002	790.745	821.0329	919.0037	950.8145	1003.9562	1037.41	1062.353	1073.1278	1128.6139	1150.783	1193.0577	1197.1853	1233.803	1260.9943	1286.3445	1291.8876	1368.4735	1422.9012	1472.7197	1499.3056	1517.4728	1772.2322	1847.8498	2996.7401	3071.7037	3080.7527	3106.4023	3121.5145	3136.9313	3237.9902
O=C1OCC=C2CCN12	O=C1OCC=C2CCN12	
InChI=1S/C6H7NO2/c8-6-7-3-1-5(7)2-4-9-6/h2H,1,3-4H2	InChI=1S/C6H7NO2/c8-6-7-3-1-5(7)2-4-9-6/h2H,1,3-4H2
