17
gdb 103014	1.99731	1.47821	1.13754	6.1217	69.49	-0.2613	0.0233	0.2846	1134.2835	0.136126	-455.123186	-455.114033	-455.113089	-455.156968	33.962	
N	 0.0242767802	 1.3692264276	 0.2325328521	-0.528901
C	-0.0069918291	-0.0645108664	 0.0836209327	-0.137024
C	-0.6664697312	-0.7903867803	 1.2210858991	 0.100591
O	-1.2110886084	-0.0286760943	 2.2479224158	-0.42932
C	-1.3765953927	-0.7373305242	-0.1401960923	 0.065241
C	-2.6782474111	 0.071649563	-0.2029180468	-0.141421
O	-3.6613789872	-0.4541500969	 0.6585512353	-0.415321
C	-1.3456650477	-1.9398485134	-0.9268893701	 0.25067
N	-1.3031448759	-2.9072995825	-1.5609888821	-0.345113
H	 0.942085964	 1.6638874931	 0.5515314847	 0.25404
H	-0.157586332	 1.8444351075	-0.6453793962	 0.255406
H	 0.827154098	-0.5564067174	-0.4131209346	 0.11351
H	-0.2778204406	-1.7444027297	 1.5588405791	 0.13448
H	-1.0114934168	 0.8958402188	 2.0186610394	 0.297965
H	-2.4584975396	 1.1231810875	 0.0191290903	 0.09924
H	-3.0884937419	 0.024799851	-1.215306269	 0.128306
H	-3.298423188	-0.3858162535	 1.5512165724	 0.297652
85.7937	133.2959	157.9771	180.2496	232.9417	269.3664	303.7376	341.2257	450.2913	465.4938	519.0484	558.1472	582.822	640.6156	662.2101	745.8166	824.1109	877.4366	918.4681	941.9654	991.765	1069.9544	1078.6433	1122.1392	1163.1894	1186.6567	1253.5799	1264.7968	1281.5876	1338.806	1393.0325	1398.057	1437.4429	1457.0382	1507.7657	1653.1338	2344.9436	3026.7026	3094.9568	3119.0777	3182.385	3503.6686	3579.1873	3642.3214	3770.6805
NC1C(O)C1(CO)C#N	N[C@H]1[C@@H](O)[C@]1(CO)C#N	
InChI=1S/C5H8N2O2/c6-1-5(2-8)3(7)4(5)9/h3-4,8-9H,2,7H2	InChI=1S/C5H8N2O2/c6-1-5(2-8)3(7)4(5)9/h3-4,8-9H,2,7H2/t3-,4+,5-/m0/s1
