17
gdb 37210	3.26617	2.0214	1.69394	2.0018	76.27	-0.2168	-0.0215	0.1953	839.5117	0.139084	-380.750766	-380.744738	-380.743794	-380.780761	25.943	
C	 0.0860689277	 1.4834791767	 0.2076790929	-0.185475
C	 1.5498113689	 1.7919393424	 0.0003907841	-0.061513
C	 2.1682159413	 0.7350229586	-0.5481921669	 0.040496
C	 3.2351181801	 0.0422997838	 0.2729283036	-0.116536
N	 2.9325781378	 0.2563926752	 1.7236133371	-0.33707
C	 2.3706589353	-0.9177395803	 1.0205088709	-0.016982
C	 0.9700726211	-0.9887783421	 0.35803839	-0.042665
C	 1.0965670595	-0.2889687283	-0.941605171	-0.102914
N	-0.0515143171	 0.0456100403	-0.1083354617	-0.130821
H	-0.1844125808	 1.6988417392	 1.2480731991	 0.128148
H	-0.6227592574	 2.0232177081	-0.4348544938	 0.116528
H	 2.0554965885	 2.5543413694	 0.5805175397	 0.114334
H	 4.2452066273	-0.1972934069	-0.039869056	 0.094795
H	 3.7242885199	-0.07063173	 2.2793432672	 0.224829
H	 2.742954021	-1.8961163555	 1.312783511	 0.092413
H	 0.4766013813	-1.9500062191	 0.4601199031	 0.096697
H	 0.9670409658	-0.6990881518	-1.9393273795	 0.085735
197.098	268.2732	368.0687	485.4782	554.2402	585.8437	668.7532	695.2223	748.5012	789.2096	806.2849	815.5489	852.8909	863.8741	889.8367	898.2743	923.4691	946.249	983.5583	1018.825	1040.9634	1065.3357	1095.3095	1114.4782	1142.097	1173.1124	1207.7269	1226.546	1234.2107	1284.8445	1292.5071	1308.7337	1332.3406	1341.4634	1387.7944	1467.8307	1623.7806	3015.7597	3064.3163	3139.1473	3142.1239	3163.131	3171.9481	3206.8177	3448.8377
C1C=C2C3NC3C3C2N13	C1[CH][C]2[C@H]3N[C@H]3[C@@H]3[C@H]2N13	
InChI=1S/C7H8N2/c1-2-9-6-3(1)4-5(8-4)7(6)9/h1,4-8H,2H2	InChI=1S/C7H8N2/c1-2-9-6-3(1)4-5(8-4)7(6)9/h1,4-8H,2H2/t4-,5-,6+,7-,9?/m1/s1
