27
gdb 59779	2.85537	1.03327	0.81065	0.0472	95.96	-0.2824	0.0837	0.3661	1549.8073	0.253898	-353.593685	-353.583727	-353.582783	-353.628461	39.085	
C	-0.0530422014	 1.5621635178	-0.0605197692	-0.397765
C	 0.022626163	 0.0263544072	-0.0347023811	 0.039473
C	 0.6863372548	-0.4667412284	-1.3314089608	-0.39776
C	 0.7317529899	-0.5111949543	 1.2359857501	 0.063463
C	 0.0671840008	-0.012248395	 2.5356586323	-0.198667
C	 0.7472654863	-0.5566014635	 3.8009013179	-0.198569
C	 0.8095008766	-2.087831259	 3.7986951068	-0.17679
C	 1.4900708864	-2.5965782016	 2.5233348209	-0.198568
C	 0.8097928408	-2.0517033568	 1.2584232791	-0.198656
H	 0.9491734473	 2.0051221479	-0.0052599119	 0.108542
H	-0.5130248303	 1.9076666914	-0.992238334	 0.106294
H	-0.6436948681	 1.9679916586	 0.7642504164	 0.114471
H	-1.0085771723	-0.3587283063	-0.0198600412	 0.066058
H	 1.7421812705	-0.1709063371	-1.3685134049	 0.108543
H	 0.6395661341	-1.5528345672	-1.4410672791	 0.11447
H	 0.1925368856	-0.0289687967	-2.2052355153	 0.106298
H	 1.7647711668	-0.1252114303	 1.22029074	 0.058875
H	 0.069686428	 1.0810977329	 2.5707038221	 0.091001
H	-0.9892061734	-0.3205593752	 2.5328201388	 0.08608
H	 1.7688289747	-0.1553359765	 3.8615470007	 0.089501
H	 0.2201551594	-0.1945698074	 4.6912615562	 0.086263
H	 1.338146259	-2.4517774934	 4.6872036025	 0.085938
H	-0.2104905357	-2.4936876878	 3.8537047489	 0.088662
H	 2.543764338	-2.2835536617	 2.5287210547	 0.089501
H	 1.4938426228	-3.6925356828	 2.5006027497	 0.086263
H	-0.2109912944	-2.4578040435	 1.1943575624	 0.086081
H	 1.3445015908	-2.4200562915	 0.3780590282	 0.090997
45.2277	107.9608	179.8622	220.869	221.0933	242.0879	303.1408	337.3102	391.0983	398.8035	437.5608	438.738	487.3007	530.0921	781.9779	790.9735	839.4475	865.0301	884.6382	901.5546	924.5352	926.658	950.1587	966.5594	1012.3277	1048.0681	1053.6145	1081.0835	1100.4332	1106.3157	1135.4915	1188.0034	1192.9139	1210.5312	1262.8443	1289.3863	1290.7167	1311.4451	1333.0919	1347.6916	1368.8482	1369.5894	1370.6531	1380.5046	1380.7499	1399.8421	1400.801	1421.9629	1479.8568	1484.8115	1485.0507	1488.4338	1490.4311	1496.4192	1503.5193	1507.5811	1516.2368	2964.2177	2986.7366	2995.5565	3003.9541	3007.3182	3008.6644	3013.5723	3024.6826	3029.5532	3055.3577	3056.931	3062.534	3073.6647	3076.8598	3086.4245	3093.038	3112.9172	3114.2558
CC(C)C1CCCCC1	CC(C)C1CCCCC1	
InChI=1S/C9H18/c1-8(2)9-6-4-3-5-7-9/h8-9H,3-7H2,1-2H3	InChI=1S/C9H18/c1-8(2)9-6-4-3-5-7-9/h8-9H,3-7H2,1-2H3
