16
gdb 50974	2.07576	1.24979	0.85923	4.2706	73.3	-0.2512	-0.0252	0.2261	1308.4888	0.120811	-437.878273	-437.868392	-437.867448	-437.914658	33.8	
O	-0.7902388278	 0.9926575189	 0.2649885671	-0.241175
C	 0.0139232482	 1.238642435	-0.5956004958	 0.156519
C	 1.3312978109	 1.9480725571	-0.334695976	-0.268455
C	 1.5536423722	 3.1707600362	-1.2625197906	-0.185587
N	 0.5534850047	 4.2161202908	-1.0494919287	-0.273677
C	-0.5902234795	 4.265708869	-1.7822122712	 0.165333
O	-0.8938597693	 3.4533108678	-2.6318432059	-0.327376
C	 2.8957925351	 3.720500091	-1.0903720476	 0.294993
C	 3.9961739123	 4.1673182973	-0.9099269018	-0.397638
H	-0.1545477526	 0.9403088537	-1.6516989451	 0.101242
H	 1.3761631424	 2.2446570756	 0.7163410935	 0.125919
H	 2.1410796886	 1.2317039331	-0.5271206491	 0.135443
H	 1.4184834534	 2.8422451133	-2.2998926963	 0.151982
H	 0.7401770204	 4.9278601718	-0.3610666916	 0.260888
H	-1.2200125194	 5.1355598311	-1.5178757197	 0.094444
H	 4.9736851103	 4.5600271883	-0.772168481	 0.207145
33.876	55.846	88.6265	143.3363	160.594	214.757	257.1458	303.3497	423.5514	445.0775	507.6532	524.0291	579.2295	637.8483	672.8637	727.9429	802.5465	942.3319	977.6944	1027.8541	1050.5821	1078.0329	1096.8758	1184.0736	1225.336	1262.6844	1333.938	1368.6856	1421.4666	1432.9302	1453.4961	1511.3768	1789.6783	1832.9824	2242.8836	2917.6637	2964.045	3032.9424	3049.3898	3112.6727	3501.0036	3640.9394
O=CCC(NC=O)C#C	O=CC[C@@H](NC=O)C#C	
InChI=1S/C6H7NO2/c1-2-6(3-4-8)7-5-9/h1,4-6H,3H2,(H,7,9)	InChI=1S/C6H7NO2/c1-2-6(3-4-8)7-5-9/h1,4-6H,3H2,(H,7,9)/t6-/m0/s1
