20
gdb 106803	2.4289	1.48861	1.09025	4.2626	75.59	-0.233	0.0598	0.2928	1163.0705	0.170736	-440.257663	-440.248597	-440.247653	-440.291304	34.065	
C	-0.0906612765	 1.490563554	 0.0017389701	-0.498222
C	 0.0577169754	-0.007539464	 0.0426602284	 0.226341
C	 0.2745267133	-0.7596942042	-1.2624637207	-0.104312
O	 0.7418215418	-2.0521704892	-0.9103851638	-0.254117
C	 1.3751565645	-1.9973006155	 0.36255766	-0.113604
C	 0.7708044167	-0.8030528693	 1.0792078595	 0.287618
C	 1.4761342046	-0.2338113159	 2.272734741	-0.197325
O	 1.4216037601	-1.2009878055	 3.3146462509	-0.416791
N	-0.7093863854	-0.8351294575	 0.9987199185	-0.389753
H	 0.7469812095	 1.9586024854	-0.5268624666	 0.126313
H	-1.0109905491	 1.7713117975	-0.5233106778	 0.132195
H	-0.1411994741	 1.921878025	 1.0058397666	 0.11883
H	-0.6447636971	-0.8840358788	-1.8449449253	 0.110216
H	 1.010595074	-0.2159276971	-1.8796780557	 0.081126
H	 1.1867655926	-2.946104284	 0.8718121719	 0.124349
H	 2.4653160302	-1.8573276898	 0.2650658209	 0.079956
H	 2.5194284617	-0.0018356405	 2.003469176	 0.092748
H	 0.9984367744	 0.7094268758	 2.5811180658	 0.081067
H	 1.9473752544	-0.8776861786	 4.0525259318	 0.289964
H	-1.0862132409	-0.2330775479	 1.7300198884	 0.223403
73.4569	150.9394	190.2173	208.455	216.0176	265.3332	286.6447	340.5108	363.6142	460.3389	499.0033	566.5433	680.4893	692.6871	794.4515	876.5561	929.4267	952.9435	968.394	989.4729	1049.5465	1062.7629	1077.6022	1081.1499	1102.0607	1138.2004	1152.6168	1219.4899	1239.2617	1245.6628	1259.2982	1302.7899	1317.1182	1380.7381	1394.3617	1419.8421	1443.0862	1477.4206	1488.983	1500.6257	1503.3773	1513.7814	1514.5833	2953.8204	2960.0707	2965.9493	2994.3242	3029.4129	3065.1147	3088.3278	3091.7766	3107.1155	3472.6428	3826.0834
CC12COCC1(CO)N2	C[C@@]12COC[C@]1(CO)N2	
InChI=1S/C6H11NO2/c1-5-3-9-4-6(5,2-8)7-5/h7-8H,2-4H2,1H3	InChI=1S/C6H11NO2/c1-5-3-9-4-6(5,2-8)7-5/h7-8H,2-4H2,1H3/t5-,6+/m1/s1
