18
gdb 108611	2.97926	1.24133	0.89312	6.9735	79.09	-0.2137	-0.0063	0.2075	1283.959	0.147261	-439.144607	-439.135152	-439.134208	-439.179385	33.234	
C	-0.0816302571	 1.4892097434	 0.0890627754	-0.335735
N	 0.159636463	 0.0631574948	-0.035512545	-0.373237
C	 0.6661195324	-0.700298165	 0.9702104067	 0.298262
C	 0.688202866	-2.0475350154	 1.0896888043	-0.012324
C	 0.1292401771	-3.0947387136	 0.1801665448	-0.531928
C	 1.3928836125	-2.3787683842	 2.3266031882	 0.412921
O	 1.6347576653	-3.4491921996	 2.816420043	-0.371358
O	 1.7882770633	-1.1977990121	 2.9448461521	-0.244429
C	 1.3708587666	-0.0958665558	 2.1601125112	-0.169134
H	 0.8119334062	 1.9931758081	 0.4685168783	 0.147128
H	-0.2953690027	 1.901062119	-0.8995961402	 0.140216
H	-0.9232975134	 1.7327334	 0.7536310278	 0.130493
H	-0.4063295864	-0.4247282261	-0.7122675763	 0.253233
H	 0.6554453363	-3.1356192486	-0.7819212958	 0.125302
H	 0.231173405	-4.072557106	 0.6573813992	 0.159381
H	-0.934973123	-2.932830667	-0.0354304905	 0.114007
H	 2.2457768297	 0.4991268117	 1.8658569721	 0.130224
H	 0.7093573193	 0.5482369764	 2.7546150645	 0.126978
63.9069	99.6583	122.912	163.7446	179.5627	238.016	255.1793	270.1023	382.6608	466.5497	560.9438	586.9947	620.3622	675.1347	757.9751	761.4312	903.2855	1024.2927	1038.3402	1059.6098	1062.5967	1085.2423	1104.5627	1145.8218	1208.8182	1211.3487	1286.1396	1359.9876	1398.3764	1433.0493	1472.6331	1481.2206	1489.8844	1493.1718	1499.032	1502.7391	1524.4075	1717.8407	1857.0556	2997.7173	3011.3689	3012.817	3043.5371	3056.1456	3084.2067	3121.4685	3127.3565	3620.7904
CNC1=C(C)C(=O)OC1	CNC1=C(C)C(=O)OC1	
InChI=1S/C6H9NO2/c1-4-5(7-2)3-9-6(4)8/h7H,3H2,1-2H3	InChI=1S/C6H9NO2/c1-4-5(7-2)3-9-6(4)8/h7H,3H2,1-2H3
