18
gdb 71045	3.12142	2.12621	1.63865	2.1693	80.39	-0.2055	-0.0311	0.1744	865.0065	0.14897	-364.700816	-364.694245	-364.6933	-364.731144	28.01	
C	 0.1156165018	 1.4204337422	-0.0999955255	-0.486494
C	-0.0453632102	-0.0843823682	-0.0070870229	 0.333337
C	-0.1140237188	-0.9288820591	-1.361721448	-0.316736
C	-0.9143686449	-1.8794479993	-0.4646497524	 0.000015
C	-0.1689969296	-2.7786467836	 0.2182803505	-0.105603
C	 0.1300973111	-2.177000636	 1.5284225177	-0.070126
C	 0.565979573	-0.7265479244	 1.292122205	-0.117261
N	-0.7812765698	-1.0578970827	 1.8649858019	-0.146646
C	-1.3405980167	-0.7627579979	 0.4979686097	-0.050362
H	 1.1465655815	 1.6932628979	-0.3537951703	 0.121929
H	-0.5399325463	 1.8313296899	-0.8747172607	 0.120308
H	-0.1363454111	 1.9022890123	 0.8500197559	 0.133657
H	-0.6697877691	-0.3461124983	-2.1060417258	 0.103113
H	 0.8037610857	-1.3225591142	-1.8034975861	 0.106613
H	 0.5443592867	-3.4482078621	-0.2521719713	 0.101898
H	 0.5565867419	-2.7008226859	 2.3783554987	 0.097639
H	 1.3344727974	-0.2630525733	 1.902070408	 0.097608
H	-2.3344804125	-0.3204810873	 0.4534873656	 0.077112
226.2755	236.0234	271.9246	361.4714	452.5347	517.0952	568.7509	673.711	705.1742	723.3606	738.4544	774.3583	829.6973	837.7859	861.7695	894.0244	937.8617	946.8371	983.2147	1004.6158	1009.2378	1046.0128	1062.3371	1073.0917	1117.3914	1142.2318	1160.6121	1178.8305	1201.1749	1221.3497	1245.6547	1282.4971	1325.1114	1333.5078	1406.0092	1489.0466	1489.9853	1497.8412	1571.5534	3025.8041	3030.4675	3091.5822	3104.3744	3111.2713	3122.6935	3158.656	3169.4466	3177.4993
CC12CC3=CC4C1N4C23	C[C@@]12C[C]3[CH][C@H]4[C@@H]1N4[C@@H]23	
InChI=1S/C8H9N/c1-8-3-4-2-5-7(8)9(5)6(4)8/h2,5-7H,3H2,1H3	InChI=1S/C8H9N/c1-8-3-4-2-5-7(8)9(5)6(4)8/h2,5-7H,3H2,1H3/t5-,6+,7-,8-,9?/m0/s1
