23
gdb 110100	1.77148	1.25309	0.92339	1.1833	82.59	-0.2434	0.06	0.3034	1414.9453	0.202642	-425.409749	-425.398547	-425.397603	-425.446433	40.854	
C	-0.3858871417	 0.5477668507	-2.5672173763	-0.379182
C	-0.159521414	-0.2729068473	-1.2911789708	-0.209744
C	-1.4434920356	-0.8216362711	-0.6985681885	-0.053409
C	-2.0924305229	-2.1471657643	-1.1188884454	-0.137034
C	-1.5267286423	-3.0473917505	-2.1923825561	-0.077462
O	-2.0784769822	-2.76695038	-3.4737255609	-0.422424
C	-1.4876418947	-1.9751205421	 0.2614862715	 0.35111
C	-0.2468129816	-2.722338659	 0.7011303283	-0.451199
O	-2.4024879272	-1.7713425445	 1.3145161109	-0.465542
H	 0.5482826496	 0.9939828998	-2.9218560702	 0.116751
H	-0.7773279077	-0.0741229309	-3.380240447	 0.106964
H	-1.1020018958	 1.3584720677	-2.3963187345	 0.120761
H	 0.550574433	-1.078766628	-1.5037996067	 0.098404
H	 0.3265851543	 0.3616532774	-0.5388837711	 0.105972
H	-2.1682560931	-0.0493573913	-0.4515127279	 0.095621
H	-3.1796152171	-2.1294897421	-1.1203462618	 0.092558
H	-0.4282552841	-2.9947629418	-2.2190801498	 0.083152
H	-1.7881934801	-4.0924096022	-1.9887963134	 0.107504
H	-2.0342412214	-1.8140759614	-3.6027201332	 0.284147
H	 0.4797202498	-2.8478500902	-0.1044289592	 0.119814
H	 0.2383428048	-2.1892610946	 1.5249704473	 0.12775
H	-0.5113940999	-3.7242245731	 1.0616684298	 0.108644
H	-2.7468486503	-2.6329943913	 1.5762734752	 0.276845
29.427	89.8491	137.2257	159.3481	198.8381	210.1571	234.9935	272.1543	283.0774	291.0435	324.1398	347.458	433.4575	474.3423	493.6357	580.7462	693.2387	769.4062	831.4891	859.3028	937.3032	966.801	988.0463	1018.7639	1040.6906	1054.232	1063.9632	1095.9926	1118.4516	1155.7944	1166.232	1216.9177	1237.3383	1284.1098	1291.0567	1314.1545	1336.5922	1365.9474	1388.7862	1409.0608	1416.2393	1428.6772	1459.6669	1479.7376	1488.4117	1498.8726	1499.6116	1509.497	1515.1458	2990.8439	3024.6085	3027.9391	3030.5102	3053.4062	3066.0157	3088.6958	3095.2119	3106.5279	3125.6244	3133.5978	3144.2377	3786.0857	3816.9311
CCC1C(CO)C1(C)O	CC[C@H]1[C@@H](CO)[C@]1(C)O	
InChI=1S/C7H14O2/c1-3-5-6(4-8)7(5,2)9/h5-6,8-9H,3-4H2,1-2H3	InChI=1S/C7H14O2/c1-3-5-6(4-8)7(5,2)9/h5-6,8-9H,3-4H2,1-2H3/t5-,6+,7+/m0/s1
