16
gdb 55412	2.45808	1.6272	1.15861	1.0007	66.18	-0.2509	-0.0314	0.2195	1063.4796	0.123513	-475.050179	-475.041709	-475.040764	-475.083871	30.172	
C	-0.0500531609	 1.3866881764	 0.1602297456	-0.495369
C	-0.0133783491	-0.1115983277	-0.0125389417	 0.36735
O	-0.0662988234	-0.9078088423	 0.8915164531	-0.289758
C	 0.0671700693	-0.6097094888	-1.4761979551	-0.093209
O	 0.4869747272	-1.9536666519	-1.5707525376	-0.231913
C	-0.6749062989	-2.740998887	-1.6046837469	 0.014852
O	-1.7043307461	-1.9268816252	-2.1834815993	-0.232805
C	-1.3290588707	-0.626020449	-2.085342059	 0.391019
N	-2.001473415	 0.3877685709	-2.4144176779	-0.532945
H	 0.9214787907	 1.8113478289	-0.1203069708	 0.144631
H	-0.7975209877	 1.8169594248	-0.5149791539	 0.179259
H	-0.2708119172	 1.6393382262	 1.1977241318	 0.145563
H	 0.7412137955	 0.0225231141	-2.0599060691	 0.132759
H	-0.5069569948	-3.6080176187	-2.248428447	 0.131903
H	-0.9898587669	-3.0424742962	-0.5986784928	 0.134109
H	-2.919050112	 0.1248337453	-2.7755609393	 0.234555
70.504	103.573	158.9976	166.1665	186.7538	278.2182	360.2196	430.2675	520.6639	587.9225	643.2944	691.9596	753.4725	844.5918	880.9542	910.7886	955.6077	982.1132	1017.5635	1050.1783	1081.4564	1140.4101	1174.7314	1194.1708	1215.0646	1243.4189	1298.9466	1346.4967	1384.2884	1441.0634	1465.1024	1474.5374	1540.9272	1782.7727	1827.6141	3034.6419	3036.53	3087.1761	3100.1758	3108.7409	3156.6784	3487.1355
CC(=O)C1OCOC1=N	CC(=O)[C@H]1OCO[C]1[NH]	
InChI=1S/C5H7NO3/c1-3(7)4-5(6)9-2-8-4/h4,6H,2H2,1H3	InChI=1S/C5H7NO3/c1-3(7)4-5(6)9-2-8-4/h4,6H,2H2,1H3/t4-/m1/s1
