20
gdb 40415	3.4978	1.26869	1.12097	1.5775	84.31	-0.2212	0.0167	0.2379	1164.6786	0.172716	-365.979754	-365.972016	-365.971072	-366.012027	31.212	
C	 0.0539192699	 1.5447966081	-0.1036622425	-0.274484
C	 1.327898579	 0.7402808754	-0.0762493321	-0.273327
C	-0.009160613	 0.0416139199	 0.0255249433	-0.092776
C	-0.4478565277	-0.607970172	 1.2951388968	 0.34647
N	-0.3398634648	-2.0957373066	 1.4324890055	-0.381617
C	-1.6729737912	-1.4510288131	 1.417545223	-0.100661
C	-2.2706855908	-1.2452168356	 2.8050509998	-0.263308
C	-1.2798419949	-0.3028953336	 3.4596807783	-0.076821
C	-0.2998171	 0.0593921043	 2.6302907453	-0.133085
H	-0.194729425	 2.1325552754	 0.7733615244	 0.119069
H	-0.2574404728	 1.9913288636	-1.0413898145	 0.111797
H	 1.8916301131	 0.6323612151	-0.9962348494	 0.111802
H	 1.9432689804	 0.7894846358	 0.8155676842	 0.118752
H	-0.3270230967	-0.4968067762	-0.8644264139	 0.072741
H	-0.1686148468	-2.4879901903	 0.5064546014	 0.219452
H	-2.3247276863	-1.6270260926	 0.5677078912	 0.082688
H	-3.2768343578	-0.8085715312	 2.7531330518	 0.104049
H	-2.3585776074	-2.1908064016	 3.3537511322	 0.119136
H	-1.3612720201	-0.0046417373	 4.499046807	 0.094376
H	 0.5279865928	 0.7115832624	 2.8826933883	 0.095747
76.1941	159.577	178.9192	295.0677	355.9081	371.3145	479.5999	511.7268	596.3201	712.3897	745.5325	781.8221	791.096	818.3349	854.3543	885.4388	912.7871	923.3421	934.2387	955.2763	969.8208	998.2588	1023.6742	1041.6258	1062.2441	1077.3604	1107.6127	1130.6288	1136.5556	1165.9419	1191.2943	1198.6193	1221.8192	1257.2096	1303.0192	1327.7889	1369.9687	1401.5809	1450.412	1464.3472	1470.4125	1507.2326	1670.981	3020.4809	3057.4914	3126.8916	3133.478	3137.5455	3158.9497	3185.3696	3210.4123	3211.6507	3226.0344	3457.7309
C1CC1C12NC1CC=C2	C1CC1[C@]12N[C@H]1CC=C2	
InChI=1S/C8H11N/c1-2-7-8(5-1,9-7)6-3-4-6/h1,5-7,9H,2-4H2	InChI=1S/C8H11N/c1-2-7-8(5-1,9-7)6-3-4-6/h1,5-7,9H,2-4H2/t7-,8-/m0/s1
