18
gdb 37518	3.71418	2.00402	1.78803	0.8669	81.4	-0.2087	-0.0505	0.1582	824.4096	0.150406	-364.679852	-364.674009	-364.673065	-364.709465	26.1	
C	-0.0241410766	 1.4404614912	 0.0395102216	-0.18096
C	 1.4968571993	 1.466445642	-0.0264091764	-0.057834
C	 1.9730237166	 0.4522844027	 1.0837200778	-0.091183
C	 0.682134304	-0.3434791415	 1.346879213	 0.040045
C	 1.2190885199	-1.797184991	 1.5479040204	-0.2704
C	 2.1314170435	-1.8535748082	 0.3282901666	-0.087145
C	 2.3951426695	-0.575119758	-0.0109825961	 0.038325
C	 1.4339601557	 0.1868590363	-0.884454278	-0.039512
N	 0.0563572766	-0.071758103	-0.0264921623	-0.180916
H	-0.5416481163	 1.8367611807	 0.9189990536	 0.098826
H	-0.501577274	 1.8232207415	-0.8672126967	 0.104398
H	 2.1176223615	 2.3330410995	-0.2554118809	 0.067403
H	 2.6367538379	 0.7400935957	 1.8979849897	 0.067686
H	-0.019504385	-0.0119707953	 2.1184553931	 0.065112
H	 1.6880911469	-1.8903303058	 2.5371452484	 0.112428
H	 0.4511980203	-2.573556643	 1.4728900232	 0.119104
H	 2.0677439931	-2.6673460718	-0.38783425	 0.108686
H	 1.2480025171	 0.107673268	-1.9534162471	 0.085937
297.0995	322.1137	412.3418	438.0767	546.842	586.5186	677.7461	692.0928	741.7977	767.6473	822.0178	842.4483	854.5502	906.1224	912.3483	926.975	928.4676	967.2669	980.264	999.5238	1023.5958	1045.415	1057.8631	1107.7627	1122.8553	1144.3992	1166.4695	1195.5087	1203.7655	1228.4253	1246.5841	1259.9811	1273.2894	1293.0378	1297.7565	1334.2352	1456.6781	1511.3571	1583.3059	3011.7407	3042.8532	3064.9868	3084.0844	3098.7233	3107.1662	3123.6282	3141.9124	3171.1597
C1C2C3C4CC=C3C2N14	C1[C@H]2[C@H]3[C@@H]4C[CH][C]3[C@H]2N14	
InChI=1S/C8H9N/c1-2-6-7-4(1)8-5(7)3-9(6)8/h1,5-8H,2-3H2	InChI=1S/C8H9N/c1-2-6-7-4(1)8-5(7)3-9(6)8/h1,5-8H,2-3H2/t5-,6-,7-,8+/m0/s1
