20
gdb 110716	3.71194	1.23326	1.16696	0.8533	80.1	-0.213	0.006	0.219	1160.3243	0.170636	-403.078384	-403.069949	-403.069005	-403.111325	32.534	
C	 0.1953744552	 1.3142643347	 0.1376589409	-0.241277
O	-0.3246358915	 0.0541822658	-0.226304885	-0.239072
C	 0.4271766485	-0.5896046086	-1.1965007707	 0.182975
C	 1.7674448853	-1.3719531925	-0.8464567475	-0.124059
C	 1.2749793335	-2.2598438463	 0.312034765	-0.080178
C	 0.1097503848	-2.7163868635	-0.1514371159	-0.071754
C	 0.0260104942	-2.056899308	-1.5464377479	-0.124027
N	 1.424521623	-2.1463429163	-2.0822720001	-0.072802
C	 2.028482179	-3.4477226837	-2.3078508817	-0.324483
H	 1.1757118813	 1.2244210473	 0.6288715636	 0.108464
H	 0.3061447779	 1.9760381404	-0.7351372864	 0.107399
H	-0.5102579754	 1.7663296867	 0.8382941957	 0.128539
H	 0.5593950432	 0.0351571344	-2.0887029654	 0.083417
H	 2.7509647542	-0.9035342665	-0.7963872537	 0.062037
H	 1.7571243148	-2.4172498234	 1.2659081751	 0.101597
H	-0.6292748853	-3.3526149861	 0.3128468549	 0.103944
H	-0.7991690273	-2.3029931763	-2.2152320408	 0.067164
H	 1.5505515293	-3.9144486233	-3.1754569841	 0.116589
H	 3.0879879195	-3.3092057368	-2.5469872183	 0.1161
H	 1.9508514557	-4.1369404378	-1.4531579776	 0.099427
71.8744	161.8524	179.1373	228.1905	255.7585	293.848	318.1904	394.0525	526.045	612.3364	626.6054	698.3456	769.6019	807.5982	818.1164	841.7518	873.4934	909.3708	921.5801	964.7164	994.5099	1035.6227	1107.3695	1125.7995	1142.7832	1155.2109	1181.1704	1182.0969	1211.7193	1222.8341	1242.625	1244.3294	1252.8862	1285.6744	1313.3857	1380.0536	1439.6852	1483.5404	1484.0002	1490.27	1507.1893	1507.5994	1617.1958	2978.5332	2986.9922	3027.2887	3035.4096	3066.0593	3098.1411	3112.6314	3118.1232	3118.5604	3225.6368	3253.1717
COC1C2C=CC1N2C	CO[C@H]1[C@H]2C=C[C@@H]1N2C	
InChI=1S/C7H11NO/c1-8-5-3-4-6(8)7(5)9-2/h3-7H,1-2H3	InChI=1S/C7H11NO/c1-8-5-3-4-6(8)7(5)9-2/h3-7H,1-2H3/t5-,6+,7+
