21
gdb 59744	2.62974	1.28349	1.07027	2.5683	78.	-0.2423	-0.0236	0.2187	1231.8284	0.182467	-424.268548	-424.259385	-424.258441	-424.302616	34.907	
C	 0.3197047818	 1.5569887763	 0.2282025636	-0.422871
C	-0.0112824769	 0.0730064567	 0.0567508787	 0.123887
O	-1.4099340427	-0.1715733972	 0.1612931946	-0.444999
C	 0.5471300457	-0.5232179591	-1.25223704	-0.096445
C	 0.6444475324	-2.0574663181	-1.3073247333	-0.239997
C	 0.7038350342	-2.3812743318	-2.8152636765	-0.223479
C	-0.271565938	-1.3755911671	-3.4493415322	-0.309848
C	-0.310809258	-0.1909198179	-2.4810652108	 0.410136
O	-0.9681728109	 0.8128203527	-2.6319300997	-0.34225
H	 1.4028013594	 1.7162450809	 0.2671857834	 0.10791
H	-0.0820398384	 2.1378984217	-0.6066630308	 0.140854
H	-0.1169014622	 1.9282904425	 1.1594458021	 0.12056
H	 0.4289740634	-0.4874541213	 0.890740738	 0.086891
H	-1.8348007853	 0.3876257219	-0.5012841876	 0.29145
H	 1.5436160279	-0.0979339398	-1.4493376281	 0.09671
H	 1.5024730368	-2.4483423673	-0.7545533529	 0.101196
H	-0.2627524493	-2.4819074907	-0.8608691745	 0.122086
H	 1.7192417291	-2.2103105894	-3.1910513952	 0.104673
H	 0.4483042824	-3.4202563309	-3.0362439634	 0.106249
H	-0.012023613	-1.0464236773	-4.4591603729	 0.129207
H	-1.2913640284	-1.7771869449	-3.5024322524	 0.138079
64.3065	87.3991	166.5052	189.2284	256.3962	261.0632	324.408	440.571	454.6268	464.5951	514.4277	571.8992	589.0272	654.3728	712.3606	832.5766	861.1356	903.7292	920.3136	940.7345	975.1072	1005.27	1029.4109	1061.3018	1080.8823	1117.1232	1157.1199	1172.7887	1195.0172	1227.3673	1277.7312	1291.582	1298.1766	1324.8112	1340.8348	1356.2978	1365.4452	1401.2405	1437.4945	1444.2778	1492.2031	1494.8016	1506.1689	1507.1457	1817.0801	2994.0788	3031.7428	3038.167	3040.1129	3042.1089	3045.8242	3095.1639	3098.8957	3106.3211	3108.7352	3127.784	3778.6608
CC(O)C1CCCC1=O	C[C@@H](O)[C@H]1CCCC1=O	
InChI=1S/C7H12O2/c1-5(8)6-3-2-4-7(6)9/h5-6,8H,2-4H2,1H3	InChI=1S/C7H12O2/c1-5(8)6-3-2-4-7(6)9/h5-6,8H,2-4H2,1H3/t5-,6-/m1/s1
