23
gdb 104662	1.9953	1.2455	1.11232	1.7096	81.95	-0.2438	0.0701	0.3139	1302.2861	0.203301	-425.406021	-425.39496	-425.394016	-425.44181	40.556	
C	 0.2451494782	 0.8122018964	 0.9674390944	-0.406942
C	 0.3770679134	-0.584486783	 0.3410395895	-0.243257
C	 0.5745901979	-0.5797035913	-1.1703949219	 0.264147
C	 1.7813430895	 0.2054802127	-1.6754125724	-0.146004
O	 1.5277373872	 1.5856195172	-1.9114780434	-0.418729
C	 0.1876535948	-1.8226990145	-1.9759727192	-0.113112
C	-0.3738696532	-3.0802705778	-1.3465234495	-0.428374
C	-0.6343966288	-0.554006019	-2.0674077307	 0.058861
O	-1.8815154803	-0.486962019	-1.430350966	-0.426123
H	 1.165956597	 1.3997792767	 0.8674368015	 0.109944
H	-0.5791256932	 1.3685420383	 0.5096400021	 0.136489
H	 0.0405459408	 0.7373748503	 2.04010446	 0.114219
H	 1.2231717888	-1.1094510429	 0.8046624293	 0.091841
H	-0.5192074664	-1.1541821971	 0.5914710055	 0.114444
H	 2.6216337071	 0.0718627483	-0.9745187711	 0.086027
H	 2.1091887229	-0.1856382483	-2.6436954942	 0.102477
H	 1.183588917	 1.9681708387	-1.0995209928	 0.283602
H	 0.8284766424	-2.0146758448	-2.8340428345	 0.077921
H	-1.2011888647	-2.8608990196	-0.6681599232	 0.127803
H	-0.7553242978	-3.7537124293	-2.1223900706	 0.112593
H	 0.3898622217	-3.6290284688	-0.7850758725	 0.11931
H	-0.5619808094	 0.0468278788	-2.972937894	 0.09395
H	-2.5227531848	-0.9474310021	-1.9817946462	 0.288913
70.5458	97.9252	125.1081	163.3163	190.0963	199.8762	238.9649	263.1354	296.1713	298.3467	327.0236	356.7371	393.33	507.8515	542.2593	603.5242	714.3008	780.7424	817.162	868.5485	924.6211	968.0221	997.8541	1022.9425	1048.0997	1059.593	1069.0276	1096.8077	1122.8273	1156.3133	1169.3064	1205.5865	1251.1973	1272.4614	1323.6869	1329.2037	1371.5505	1376.3305	1383.4438	1404.3173	1416.0371	1430.8149	1461.2786	1479.6312	1499.8679	1502.0587	1506.3785	1509.2989	1517.9228	2969.7836	3018.0735	3024.4706	3032.7803	3070.3206	3082.4005	3085.5478	3105.7662	3106.4202	3113.8161	3119.0537	3131.8478	3804.5684	3842.4549
CCC1(CO)C(C)C1O	CC[C@@]1(CO)[C@@H](C)[C@H]1O	
InChI=1S/C7H14O2/c1-3-7(4-8)5(2)6(7)9/h5-6,8-9H,3-4H2,1-2H3	InChI=1S/C7H14O2/c1-3-7(4-8)5(2)6(7)9/h5-6,8-9H,3-4H2,1-2H3/t5-,6+,7+/m0/s1
