13
gdb 33583	2.17317	1.71528	1.23423	5.6875	63.04	-0.3219	-0.0373	0.2846	1009.8402	0.088676	-452.74002	-452.732009	-452.731065	-452.773652	27.895	
N	-0.1292796676	-1.2268301441	-0.0197926734	-0.313684
C	-0.0642988167	-0.074829916	-0.0054075448	 0.30212
C	 0.0075038501	 1.4111276175	 0.0507660681	 0.197693
O	-0.6554599997	 1.9046662649	 1.1887253304	-0.262969
C	 0.3540057403	 2.3475441912	 2.1088604036	-0.106933
C	 1.4839237405	 2.7509025617	 1.1722853989	-0.106944
O	 1.3625214557	 1.7815603486	 0.1199324567	-0.262976
C	-0.6438014458	 1.9942861906	-1.1542831167	 0.302122
N	-1.124743574	 2.4648837457	-2.0917134556	-0.31369
H	-0.0673873639	 3.1701452761	 2.6878471154	 0.145934
H	 0.6463824538	 1.529249132	 2.7770282268	 0.136696
H	 1.3472017623	 3.7635602387	 0.7755937679	 0.136695
H	 2.4821756351	 2.6486770732	 1.5994977025	 0.145937
36.5725	123.953	162.1132	184.6298	266.1675	280.767	497.2667	517.4237	520.2907	581.0477	594.0117	653.4763	800.4453	909.1617	957.7147	996.8373	1024.6403	1042.2571	1100.5744	1136.0323	1179.5094	1224.6036	1252.6194	1366.6783	1384.7831	1509.3888	1517.1406	2369.1604	2371.484	3041.7052	3048.8681	3132.2505	3140.4975
N#CC1(OCCO1)C#N	N#CC1(OCCO1)C#N	
InChI=1S/C5H4N2O2/c6-3-5(4-7)8-1-2-9-5/h1-2H2	InChI=1S/C5H4N2O2/c6-3-5(4-7)8-1-2-9-5/h1-2H2
