20
gdb 100174	2.04067	1.31223	1.21136	1.8428	76.19	-0.2257	-0.0477	0.178	1204.6319	0.166842	-440.301195	-440.290423	-440.289478	-440.337365	38.198	
C	 0.1795277467	 1.4841063577	-0.2739473936	-0.328141
N	 0.15607699	 0.0297711295	-0.0880415699	-0.310796
C	 0.7878412916	-0.4715551834	 1.1266294211	 0.043587
C	 2.14163633	 0.1958572775	 1.4303819129	-0.432182
C	-0.1269921108	-0.3142893546	 2.3608277513	 0.152744
O	-1.2691565013	 0.0585426097	 2.2869526944	-0.259618
C	 1.0313569954	-2.0111383959	 1.0426524989	 0.374273
C	 0.4322738637	-2.7644147498	-0.121861499	-0.487523
O	 1.6585638368	-2.5592731505	 1.9202207514	-0.311379
H	 1.1936381731	 1.8234037445	-0.5006663896	 0.126555
H	-0.4453573062	 1.7247380412	-1.1382691227	 0.123803
H	-0.1967671558	 2.0582026645	 0.5860769106	 0.114257
H	-0.8213374138	-0.2458540613	-0.0507444061	 0.227818
H	 2.0213882067	 1.2421066413	 1.7216535641	 0.127127
H	 2.6301741471	-0.3446023172	 2.2419952494	 0.152161
H	 2.7855069214	 0.1530248714	 0.547295275	 0.136371
H	 0.3372704126	-0.6027571337	 3.3267766046	 0.106009
H	 0.736581697	-2.3088035626	-1.0668669117	 0.161268
H	 0.7372652944	-3.8097546796	-0.0660976901	 0.140408
H	-0.6623028987	-2.7032612388	-0.0864516511	 0.143259
34.9815	95.6226	101.9975	182.4957	197.1035	213.7366	242.1936	248.3122	296.1415	328.8021	335.3054	381.9479	449.2094	525.9253	580.2384	617.8855	769.8278	791.9922	826.6808	900.5754	962.2719	984.0332	1034.1239	1080.5407	1101.4333	1135.0863	1160.3512	1186.4896	1252.6948	1260.5286	1377.9042	1386.3189	1402.9931	1453.8841	1460.2913	1467.8587	1490.5344	1495.6189	1503.7536	1507.5647	1535.8997	1787.2383	1823.6106	2922.202	2991.9918	3040.8826	3051.5352	3083.0824	3112.9244	3116.7065	3123.1054	3151.0011	3162.7599	3506.917
CNC(C)(C=O)C(C)=O	CN[C@@](C)(C=O)C(=O)C	
InChI=1S/C6H11NO2/c1-5(9)6(2,4-8)7-3/h4,7H,1-3H3	InChI=1S/C6H11NO2/c1-5(9)6(2,4-8)7-3/h4,7H,1-3H3/t6-/m0/s1
