21
gdb 106290	3.4257	1.2424	1.15944	1.4783	82.85	-0.2288	0.0054	0.2342	1193.464	0.181043	-387.061409	-387.052578	-387.051634	-387.09447	34.852	
C	 0.235022737	 1.5448119559	-0.1105949014	-0.379492
C	-0.0168047276	 0.0390608456	 0.0337061206	-0.311963
C	 0.6306377023	-0.542186408	 1.2637523777	 0.392942
C	 0.8601390524	-2.0658118424	 1.5157791018	-0.308333
C	 1.9871393965	-1.4149867212	 2.3806820149	 0.368935
C	 3.277351818	-2.0863877213	 2.7577365096	-0.509954
O	 2.0941013355	-0.3845663908	 1.3357288522	-0.35282
C	 1.1386276363	-0.671009654	 3.4408623046	-0.125351
C	 0.2176260229	-0.0772084019	 2.6837664871	-0.124876
H	 1.308291984	 1.7503981698	-0.1409563597	 0.140912
H	-0.2172579567	 1.9309353595	-1.0286634152	 0.109901
H	-0.1860583897	 2.1025499711	 0.7322526831	 0.115722
H	-1.0939049694	-0.1672583689	 0.0796978789	 0.099322
H	 0.3675258185	-0.488126725	-0.8467480334	 0.10471
H	 0.0782493464	-2.6422324059	 2.0150762777	 0.091379
H	 1.2535268209	-2.5808648155	 0.6342417517	 0.096254
H	 3.7449817198	-2.5471207961	 1.8836123002	 0.127563
H	 3.9785211821	-1.3596905743	 3.1804020564	 0.13175
H	 3.0978619066	-2.8645724262	 3.5066889519	 0.121386
H	 1.2856288106	-0.6780288931	 4.5116470815	 0.105403
H	-0.6218805665	 0.5503801627	 2.9468278898	 0.106609
83.8135	154.2376	186.7014	192.7527	259.6507	281.3943	362.3051	387.8334	482.6269	546.9	594.1364	623.5075	633.8744	705.7142	747.7127	774.909	813.4255	851.5542	876.4589	895.4673	918.394	947.9577	990.3499	1030.1972	1048.8056	1055.7141	1094.5273	1133.5911	1170.3619	1178.2556	1194.283	1234.8783	1291.9375	1331.0004	1335.3789	1388.8147	1409.3844	1417.1851	1476.3569	1479.408	1486.8507	1494.2689	1496.5198	1507.5933	1625.1287	3027.5912	3039.2955	3041.7169	3050.5695	3066.0036	3108.165	3108.3371	3119.1813	3123.4855	3124.4384	3219.5525	3248.0934
CCC12CC(C)(O1)C=C2	CC[C@@]12C[C@@](C)(O1)C=C2	
InChI=1S/C8H12O/c1-3-8-5-4-7(2,6-8)9-8/h4-5H,3,6H2,1-2H3	InChI=1S/C8H12O/c1-3-8-5-4-7(2,6-8)9-8/h4-5H,3,6H2,1-2H3/t7-,8+/m0/s1
