19
gdb 65073	2.66823	1.31164	1.16011	2.0166	75.59	-0.2537	-0.0278	0.2259	1144.8861	0.156539	-423.008561	-422.999347	-422.998403	-423.042643	34.088	
C	-0.0668589699	 1.4097830062	-0.6761948516	-0.464271
C	 0.0144526629	 0.0265486843	-0.0665647725	 0.297593
C	 1.2985865612	-0.6956284142	-0.044140386	-0.222325
O	 0.7974453493	-0.050630545	 1.1309870894	-0.274735
C	-1.2779617556	-0.7542886342	-0.0380250379	 0.188945
C	-1.5482133079	-1.7213462252	 1.1134899018	-0.292064
C	-2.3045466393	-0.4417926458	 1.0457241117	-0.294108
C	-1.8247273187	-1.1759981999	-1.3571613786	 0.090724
O	-2.8974143944	-1.7096691436	-1.5149637234	-0.273602
H	 0.9068320587	 1.9039052864	-0.6403592197	 0.130425
H	-0.394697525	 1.3626185696	-1.720247441	 0.125623
H	-0.7881579542	 2.02437246	-0.128029789	 0.133641
H	 1.3033297788	-1.7839500536	-0.0089410576	 0.116414
H	 2.1840854701	-0.2378783816	-0.4823874937	 0.117569
H	-2.0689382048	-2.634081224	 0.8485613342	 0.135701
H	-0.7557019109	-1.8051320227	 1.8468824081	 0.141402
H	-2.0383970056	 0.3435039314	 1.7443439317	 0.130754
H	-3.3427090143	-0.4770830632	 0.7364074276	 0.14015
H	-1.1556789105	-0.9824041249	-2.2260061137	 0.072165
59.4234	105.4167	181.0241	200.5075	208.6546	251.7632	300.2199	337.3764	372.396	446.979	510.8465	544.2317	715.4167	802.557	809.4143	835.9863	860.6165	915.8098	925.0088	960.9044	1010.6516	1039.6492	1061.0456	1072.866	1103.8251	1110.045	1136.9795	1163.2471	1185.0668	1213.6853	1292.036	1335.4653	1391.5952	1415.8972	1437.6335	1443.0619	1476.8419	1482.6593	1495.1967	1524.9205	1806.2852	2871.2018	3038.5942	3084.7754	3102.6542	3127.7776	3140.1776	3146.8659	3173.5964	3233.4872	3250.1348
CC1(CO1)C1(CC1)C=O	C[C@]1(CO1)C1(CC1)C=O	
InChI=1S/C7H10O2/c1-6(5-9-6)7(4-8)2-3-7/h4H,2-3,5H2,1H3	InChI=1S/C7H10O2/c1-6(5-9-6)7(4-8)2-3-7/h4H,2-3,5H2,1H3/t6-/m0/s1
