18
gdb 83127	2.10511	1.80815	1.3998	3.9463	71.7	-0.2255	-0.0157	0.2098	1014.5791	0.147489	-439.084721	-439.076127	-439.075183	-439.117936	32.389	
C	-0.2025478798	 1.5669532631	-0.0130267271	-0.482732
C	 0.038880343	 0.0792940364	 0.008056298	 0.139472
C	-0.7857874041	-0.824240058	 0.9555440487	 0.091228
O	-1.3255068872	-2.037580083	 0.555325987	-0.427509
C	 0.6876038582	-0.7227101757	 1.13629155	-0.138796
N	 1.3728601505	-1.895752698	 0.5885741181	-0.340462
C	 1.3041747401	-1.8369970967	-0.8843418391	-0.29116
C	 0.5048740695	-0.5773450498	-1.2489754286	 0.38052
O	 0.3465834791	-0.1609798283	-2.3699761436	-0.331155
H	 0.7235067873	 2.1221405275	-0.1962887736	 0.123413
H	-0.9033518774	 1.818282582	-0.8149234623	 0.146248
H	-0.6234743062	 1.9156775806	 0.9347251343	 0.114498
H	-1.4325107984	-0.260161565	 1.6237710676	 0.105671
H	-0.6425244295	-2.7005883617	 0.7449034598	 0.297951
H	 1.1362393634	-0.2656662806	 2.0112839056	 0.101175
H	 2.3313407786	-1.9185127354	 0.9076343472	 0.237263
H	 2.2957724064	-1.7689566101	-1.3439675162	 0.134882
H	 0.8030788666	-2.7147886976	-1.3080768458	 0.139495
86.4758	126.2972	132.9598	219.7911	250.5359	259.7285	381.4711	450.0761	516.7859	573.507	602.4416	621.6934	648.1364	690.2207	768.0345	827.3259	867.3905	905.2031	968.9696	1002.4225	1009.4545	1049.4346	1085.0521	1107.653	1128.2148	1176.8047	1200.2099	1250.9058	1287.0312	1310.767	1343.798	1388.5811	1406.3494	1411.6808	1468.7136	1472.6578	1483.3681	1497.1848	1828.4463	3034.5502	3039.2129	3080.1349	3099.1708	3111.8974	3132.6106	3172.6126	3581.6292	3682.4646
CC12C(O)C1NCC2=O	C[C@]12[C@@H](O)[C@H]1NCC2=O	
InChI=1S/C6H9NO2/c1-6-3(8)2-7-4(6)5(6)9/h4-5,7,9H,2H2,1H3	InChI=1S/C6H9NO2/c1-6-3(8)2-7-4(6)5(6)9/h4-5,7,9H,2H2,1H3/t4-,5+,6-/m1/s1
