19
gdb 102786	2.27391	1.27012	0.90209	3.1185	74.26	-0.2362	-0.0474	0.1888	1308.8005	0.158054	-456.389016	-456.37893	-456.377986	-456.424741	35.726	
C	-0.0346106317	 1.5731935613	 0.0576675898	-0.379265
C	 0.0161123515	 0.0434514475	 0.0431432171	-0.153131
N	-1.3062026197	-0.5800784983	-0.0394494295	-0.10873
C	-1.9623591061	-0.6900687156	-1.3359038154	-0.259883
C	-1.9574832976	-2.1592074734	-1.740695246	 0.159556
O	-2.9039356395	-2.893486252	-1.5858364397	-0.238495
C	-1.999049031	-0.7803052938	 1.1503349702	 0.448124
N	-3.2702835829	-1.3046614636	 1.0203941474	-0.579948
O	-1.5214034175	-0.4704014745	 2.2287549459	-0.40887
H	 0.9785761988	 1.9858874314	 0.0983226427	 0.117552
H	-0.52270991	 1.971442085	-0.8386474615	 0.110277
H	-0.5844090478	 1.9175537012	 0.9366676808	 0.149764
H	 0.6118129691	-0.3165843271	-0.8028375354	 0.095202
H	 0.4831153371	-0.3191844731	 0.9595813368	 0.145897
H	-2.9934719316	-0.3253663212	-1.2958288659	 0.143254
H	-1.4071667769	-0.0947158036	-2.0664149763	 0.126032
H	-0.9874725187	-2.5484019905	-2.1175994689	 0.09898
H	-3.4917767724	-1.9238419802	 0.2519502263	 0.272887
H	-3.6658870133	-1.5637646497	 1.9105334216	 0.260795
69.7814	71.356	101.6609	115.6737	149.9667	233.8328	263.4884	301.0308	380.9472	424.0338	498.2264	531.6498	540.3868	577.9474	608.9839	738.9198	775.0444	787.0729	870.9355	943.5276	1019.0147	1058.6387	1079.376	1101.4827	1124.9298	1180.7435	1245.8066	1299.5769	1333.3565	1354.5336	1393.4057	1409.5735	1417.9011	1438.1182	1467.2007	1490.5682	1495.208	1505.1938	1650.2295	1780.4714	1811.9493	2908.5236	3036.4037	3042.3769	3051.4083	3098.5439	3107.5113	3126.6438	3137.4459	3545.4086	3681.8138
CCN(CC=O)C(N)=O	CCN(CC=O)C(=O)N	
InChI=1S/C5H10N2O2/c1-2-7(3-4-8)5(6)9/h4H,2-3H2,1H3,(H2,6,9)	InChI=1S/C5H10N2O2/c1-2-7(3-4-8)5(6)9/h4H,2-3H2,1H3,(H2,6,9)
