24
gdb 101725	3.29067	0.76396	0.69393	1.6137	87.02	-0.2246	0.0772	0.3018	1761.6361	0.215212	-405.521456	-405.510511	-405.509566	-405.558002	39.966	
C	 0.3078081116	 1.6872827722	-0.6953656427	-0.381316
C	-0.000852516	 0.1932018435	-0.8116615571	-0.178253
C	 1.2240837003	-0.6950630522	-0.5840093649	 0.134245
O	 1.7802156863	-0.5195689343	 0.7180502627	-0.434635
C	 0.93689674	-2.1844462729	-0.8324074914	-0.176286
N	 0.5851168918	-2.4156717523	-2.2275937829	-0.082569
C	 1.6481082111	-2.8396903141	-3.1364133205	-0.254552
C	 0.5517590564	-3.7784732693	-2.7631972896	 0.034757
C	 0.8177004863	-5.0075963246	-1.9212794556	-0.412539
H	 0.761128279	 1.9165338108	 0.273181588	 0.122046
H	 1.0121011671	 2.003938029	-1.4727582107	 0.113224
H	-0.5989191875	 2.2903824257	-0.8025804543	 0.106727
H	-0.7719650801	-0.0895289181	-0.0778194101	 0.075116
H	-0.4150588946	-0.0467121221	-1.7961282853	 0.119015
H	 2.0243401597	-0.3839311681	-1.268357295	 0.087377
H	 1.080663945	-0.6951716242	 1.3575903375	 0.275189
H	 1.8192148455	-2.7500643633	-0.4954390465	 0.090509
H	 0.0884261948	-2.4966030921	-0.2066987928	 0.086063
H	 1.6717405434	-2.3570599408	-4.1101654999	 0.11211
H	 2.6296509423	-3.0379481173	-2.7051060181	 0.106846
H	-0.2534545017	-3.9143025179	-3.4849302464	 0.088763
H	 1.6806607886	-4.8850298723	-1.26263248	 0.123392
H	-0.0506766833	-5.2592452354	-1.3020240532	 0.122009
H	 1.0167589939	-5.8656776799	-2.5720060114	 0.122764
46.097	84.5004	93.1418	141.6892	192.714	206.6383	229.8295	257.0417	283.6422	330.3464	394.5712	417.0364	465.4307	475.3286	557.7225	757.6059	778.347	820.2782	837.9153	902.5186	945.862	978.0066	987.57	1028.2835	1047.9771	1054.9698	1083.7054	1114.9869	1126.6057	1139.9492	1150.4678	1175.8451	1190.2535	1246.5618	1262.3749	1322.5494	1329.7366	1337.178	1382.0029	1393.8406	1403.6013	1405.9754	1419.8525	1423.9359	1485.6016	1487.8253	1493.7612	1496.7116	1501.4977	1509.678	1512.8693	2974.6882	2989.3953	3019.2116	3035.1153	3035.4716	3040.0641	3080.3747	3082.8898	3092.6704	3098.4332	3100.1254	3116.5972	3126.3726	3170.7688	3792.3971
CCC(O)CN1CC1C	CC[C@@H](O)CN1C[C@H]1C	
InChI=1S/C7H15NO/c1-3-7(9)5-8-4-6(8)2/h6-7,9H,3-5H2,1-2H3	InChI=1S/C7H15NO/c1-3-7(9)5-8-4-6(8)2/h6-7,9H,3-5H2,1-2H3/t6-,7-,8?/m1/s1
