19
gdb 38740	2.80105	2.03115	1.91652	1.3884	77.92	-0.2325	0.0134	0.2459	853.2666	0.163899	-385.892035	-385.886023	-385.885079	-385.921851	26.881	
C	-0.0291852032	 1.5495563722	 0.0666981327	-0.237739
C	 1.5173387048	 1.4629581095	-0.0053453996	-0.041133
C	 2.0552279479	 1.1167841892	 1.3947763173	-0.22557
C	 1.6540162585	-0.3574589848	 1.6614917864	 0.049859
O	 0.258371131	-0.528669965	 1.3027093227	-0.282848
C	-0.0104449308	 0.007063977	 0.0173024952	 0.120878
C	 1.3366570788	 0.1046996845	-0.8075334091	-0.081715
C	 2.3089623478	-0.9855870964	-0.5334587444	-0.076019
C	 2.482043754	-1.2396814757	 0.7664825975	-0.07782
H	-0.4764836244	 2.005977243	 0.9536846342	 0.094259
H	-0.4659058793	 1.9813218571	-0.8386239783	 0.092708
H	 2.0715411739	 2.2681373366	-0.4906807017	 0.064817
H	 3.1432489143	 1.2125669684	 1.4542503895	 0.100114
H	 1.6153114658	 1.7840470473	 2.1440639389	 0.098845
H	 1.7231747526	-0.6270506825	 2.7160459824	 0.074871
H	-0.8561317381	-0.544743551	-0.3988838628	 0.072679
H	 1.1398524681	 0.2915290008	-1.863550235	 0.069267
H	 2.7918825639	-1.5377999332	-1.3329042111	 0.092158
H	 3.1315545146	-2.0087259369	 1.1683570752	 0.09239
315.8714	329.641	371.3797	444.0465	472.3443	525.7827	639.8407	668.5097	707.9252	741.8579	805.8654	826.3597	838.3747	869.264	890.1859	932.1327	954.8738	966.7104	975.745	1007.2852	1034.8086	1052.0314	1070.2848	1091.4809	1106.8969	1134.0246	1159.2657	1192.1392	1209.6303	1242.8441	1264.1869	1276.3283	1319.3016	1327.7603	1338.7622	1356.0361	1385.9182	1402.9116	1476.5295	1491.0603	1676.5809	3040.5709	3050.0686	3084.1134	3084.5541	3092.2993	3104.5101	3107.9787	3111.9024	3173.5568	3201.1801
C1C2CC3OC1C2C=C3	C1[C@H]2C[C@H]3O[C@@H]1[C@@H]2C=C3	
InChI=1S/C8H10O/c1-2-7-5-3-6(1)9-8(7)4-5/h1-2,5-8H,3-4H2	InChI=1S/C8H10O/c1-2-7-5-3-6(1)9-8(7)4-5/h1-2,5-8H,3-4H2/t5-,6+,7-,8+/m1/s1
