23
gdb 119353	4.48436	0.8352	0.80886	1.5643	87.46	-0.2267	0.0941	0.3208	1575.8633	0.203887	-388.24759	-388.237847	-388.236903	-388.28228	37.026	
C	 0.027344944	 1.4618337648	-0.1491960634	-0.383304
C	-0.0034090398	-0.0585209676	 0.0228462465	-0.163188
C	-1.428616005	-0.625270819	 0.0598615263	-0.331203
C	-1.4687094025	-2.1219593165	 0.1521020028	 0.439707
C	-0.7995673467	-3.084961015	 1.1707670461	-0.295145
C	-1.3726479371	-3.9189779318	-0.0037054173	 0.408635
C	-1.17239694	-5.3643362468	-0.3365493479	-0.508622
C	-2.6792650577	-3.0860358251	 0.0639992686	-0.306761
O	-0.8223678749	-2.9036451596	-0.9429477855	-0.379328
H	 1.0546733063	 1.8385063577	-0.1699060035	 0.11167
H	-0.456727401	 1.764682493	-1.0843646578	 0.115258
H	-0.4957620362	 1.9667703619	 0.6709801632	 0.111037
H	 0.543418292	-0.5417787446	-0.7941932026	 0.120542
H	 0.5192342935	-0.335483492	 0.9469911495	 0.096678
H	-1.9816978102	-0.2103540653	 0.9131930939	 0.099904
H	-1.9743539442	-0.3224541622	-0.8435214442	 0.106518
H	 0.2897880322	-3.0383728199	 1.2130290151	 0.100332
H	-1.2614569459	-3.1948612918	 2.1562462081	 0.086444
H	-1.6218088488	-5.9974480385	 0.4350806028	 0.123938
H	-1.6377999298	-5.6059069375	-1.2970153816	 0.131272
H	-0.1054952822	-5.599574605	-0.3991790116	 0.131125
H	-3.3180583645	-3.1963330771	 0.9450607228	 0.086271
H	-3.2429438515	-3.034950672	-0.8694465504	 0.098221
76.0716	79.7032	112.2393	195.0702	232.0176	249.3361	270.7893	314.2961	374.817	405.2255	521.52	598.3623	622.801	683.4618	698.8684	744.3684	788.3466	849.3498	900.8314	917.6947	947.7323	954.8072	987.337	1041.8324	1045.4788	1068.2583	1094.7218	1107.2391	1134.8309	1153.6556	1165.8483	1189.0247	1211.8639	1261.5307	1282.582	1316.8415	1331.7443	1367.8112	1403.2579	1412.2341	1416.3433	1465.0207	1469.2283	1477.7269	1489.8849	1492.4834	1499.9178	1509.5006	1524.6679	3015.3135	3027.5999	3030.988	3038.294	3047.8632	3049.7749	3058.6597	3072.6717	3098.0284	3101.8774	3112.1037	3113.5921	3132.492	3138.3605
CCCC12CC(C)(C1)O2	CCC[C@@]12C[C@@](C)(C1)O2	
InChI=1S/C8H14O/c1-3-4-8-5-7(2,6-8)9-8/h3-6H2,1-2H3	InChI=1S/C8H14O/c1-3-4-8-5-7(2,6-8)9-8/h3-6H2,1-2H3/t7-,8+
