21
gdb 115842	2.63342	1.25524	1.09902	2.4339	77.61	-0.2248	0.0717	0.2965	1209.0506	0.183021	-424.203865	-424.194764	-424.19382	-424.237734	34.109	
C	-0.3414238274	 1.4715795461	-0.1990864837	-0.418555
C	-0.0229671843	 0.0050589742	-0.0026954645	-0.042331
C	 1.3275652492	-0.5951372796	-0.301284852	 0.08385
O	 2.4300896942	 0.2672015756	-0.4034816544	-0.263764
C	 2.6988724757	 0.8856313177	 0.8601935384	-0.094138
C	 1.8170116007	 0.1925769074	 1.9295655559	 0.001785
C	 1.2206886944	 1.1633504492	 2.9408881651	-0.095737
O	 2.3070483846	 1.7713520085	 3.6293517597	-0.425048
C	 0.8204623966	-0.6183754506	 1.1127704736	-0.141385
H	 0.5409436919	 2.1062251188	-0.1060748467	 0.131827
H	-0.7449869307	 1.6318972468	-1.2049797852	 0.118412
H	-1.0934200081	 1.8215195779	 0.5166657789	 0.113511
H	-0.8492337467	-0.6482464048	-0.2782358729	 0.08436
H	 1.4342967193	-1.4744345046	-0.9280342748	 0.093595
H	 3.768397796	 0.7867105979	 1.0697761833	 0.112488
H	 2.4737226726	 1.9583777005	 0.8057704709	 0.101886
H	 2.4322096283	-0.5167078912	 2.4962608402	 0.087679
H	 0.6057700266	 1.9164298412	 2.426443996	 0.09016
H	 0.5630625325	 0.6174016411	 3.6356477256	 0.086815
H	 1.9535360766	 2.433927105	 4.2297394399	 0.287785
H	 0.4465812981	-1.533624347	 1.5584251067	 0.086805
98.3511	112.6366	159.8345	163.608	190.9158	254.7077	273.6308	345.4331	426.1634	500.6986	560.0731	694.3588	716.8922	757.3831	775.1967	869.6829	903.7911	940.5538	960.0063	1007.4788	1036.3978	1053.7163	1064.3392	1075.4446	1092.4173	1115.8803	1138.1855	1156.6259	1167.7084	1217.5344	1232.6589	1248.1812	1266.2021	1313.8939	1318.5074	1344.3563	1372.1143	1403.9157	1419.6128	1435.9365	1456.8938	1492.229	1502.4513	1518.8946	1532.1009	2975.598	3010.9381	3017.1847	3034.4646	3036.6244	3072.2955	3086.385	3115.0639	3142.7753	3157.0958	3168.777	3832.1074
CC1C2OCC(CO)C12	C[C@H]1[C@H]2OC[C@@H](CO)[C@@H]12	
InChI=1S/C7H12O2/c1-4-6-5(2-8)3-9-7(4)6/h4-8H,2-3H2,1H3	InChI=1S/C7H12O2/c1-4-6-5(2-8)3-9-7(4)6/h4-8H,2-3H2,1H3/t4-,5-,6-,7-/m1/s1
