15
gdb 124035	3.7946	1.62844	1.15826	2.4227	74.32	-0.1964	-0.0082	0.1882	988.2335	0.11663	-416.829493	-416.822896	-416.821952	-416.86047	25.948	
C	 0.0289417913	 1.4874167334	 0.1357707508	-0.144885
O	 1.3489752891	 2.0839577102	-0.0112416292	-0.280181
C	 2.126689877	 1.4075837059	-0.864048945	 0.448657
C	 2.0149841359	 0.0761904211	-1.2286978653	 0.089807
C	 3.1356126557	-0.1291273466	-2.0692834517	-0.117578
N	 3.8706482179	 0.9679587526	-2.2100594091	-0.235288
N	 3.2284162014	 1.9071301572	-1.4489675421	-0.313085
C	 0.9529137496	-0.6916770603	-0.6146009237	-0.156378
C	 0.0276617739	-0.0231824419	 0.0892410406	-0.132417
H	-0.3402043044	 1.8626108364	 1.0929701741	 0.129695
H	-0.6114986339	 1.9064696194	-0.6583742161	 0.117714
H	 3.4340409739	-1.0338423993	-2.5796079004	 0.113147
H	 3.5976580298	 2.8404089679	-1.3861749234	 0.276945
H	 0.9439501257	-1.7744870157	-0.6798671054	 0.102295
H	-0.7742362128	-0.5277537403	 0.6161405961	 0.101551
126.4387	180.1578	310.0018	402.5318	451.2166	485.3335	521.9147	606.8869	668.5604	676.0655	727.3955	764.6806	838.4529	885.3887	920.6425	956.828	971.7661	1011.3745	1033.5091	1074.9715	1177.3218	1232.6255	1234.9639	1266.5729	1317.7073	1347.4295	1385.2283	1441.5816	1452.9588	1495.4257	1584.0176	1612.4695	1679.0874	2958.1688	3096.7929	3180.4895	3201.0116	3237.7565	3679.0221
C1OC2=C(C=NN2)C=C1	C1Oc2c(cn[nH]2)C=C1	
InChI=1S/C6H6N2O/c1-2-5-4-7-8-6(5)9-3-1/h1-2,4H,3H2,(H,7,8)	InChI=1S/C6H6N2O/c1-2-5-4-7-8-6(5)9-3-1/h1-2,4H,3H2,(H,7,8)
