22
gdb 9680	4.47586	1.04205	0.97114	1.3424	79.22	-0.2587	0.0758	0.3345	1308.7357	0.198411	-350.196078	-350.186129	-350.185184	-350.230546	36.374	
C	-0.1009911723	 1.5354774484	-0.337789891	-0.368723
C	-0.0206685328	 0.1044991829	 0.2082219274	-0.20568
C	-1.3686974035	-0.5886042688	 0.2046907273	-0.030842
C	-1.8904169741	-1.3021425337	-1.0220872956	-0.317663
C	-1.5423169326	-2.093807134	 0.2190067438	 0.343768
C	-0.3457641648	-3.0269629466	 0.1953293252	-0.466285
C	-2.7015357193	-2.6178592115	 1.037710075	-0.13934
O	-3.1631342197	-3.8316289987	 0.4538186696	-0.421969
H	 0.8791303831	 2.0225371987	-0.3229554854	 0.108162
H	-0.4667789899	 1.5412153348	-1.3698802203	 0.118385
H	-0.7866425547	 2.1478431709	 0.2584196228	 0.111745
H	 0.6999823034	-0.467764658	-0.3860471264	 0.095738
H	 0.3785340835	 0.1272572688	 1.2311510549	 0.094203
H	-2.1226783588	-0.042787283	 0.7710501649	 0.071299
H	-2.935203885	-1.1933164602	-1.2931964187	 0.108061
H	-1.2204914366	-1.3907305818	-1.8722325289	 0.103727
H	 0.436898544	-2.6789381326	-0.4826911305	 0.110487
H	 0.097637679	-3.1311094433	 1.1935737386	 0.10607
H	-0.6612677599	-4.0206503543	-0.1345352841	 0.135029
H	-2.3722433119	-2.7864048692	 2.0767544108	 0.080989
H	-3.506069512	-1.865782707	 1.0653708983	 0.077818
H	-3.7964789551	-4.2314134019	 1.0567269422	 0.285022
77.8038	97.164	145.2403	163.4766	208.047	239.8043	250.5145	282.9438	333.8009	362.6172	370.3588	432.104	593.472	703.7827	779.8154	813.6948	884.776	929.7128	944.1234	953.3486	979.7413	1024.2542	1047.8993	1061.102	1073.1233	1107.0738	1123.8775	1146.8418	1198.3304	1240.8799	1247.6588	1274.1072	1306.4247	1345.8895	1362.7723	1409.5654	1413.9892	1431.0829	1460.0711	1479.5556	1489.5532	1495.4212	1499.579	1506.6355	1513.7225	1517.2944	2955.4239	2987.8157	3017.0604	3028.0483	3031.098	3060.391	3095.8281	3097.9252	3104.268	3107.9431	3121.4764	3124.6299	3206.3549	3831.0847
CCC1CC1(C)CO	CC[C@H]1C[C@]1(C)CO	
InChI=1S/C7H14O/c1-3-6-4-7(6,2)5-8/h6,8H,3-5H2,1-2H3	InChI=1S/C7H14O/c1-3-6-4-7(6,2)5-8/h6,8H,3-5H2,1-2H3/t6-,7+/m0/s1
