19
gdb 49040	2.40611	1.68009	1.2614	2.6984	80.39	-0.2446	-0.0208	0.2238	1055.3088	0.160038	-385.90413	-385.896237	-385.895293	-385.936966	30.374	
O	-0.4060535926	 0.2466524078	 0.0453097701	-0.263822
C	-0.0430027262	 1.394854101	 0.1060874713	 0.098788
C	 1.3715001518	 1.8760369103	-0.0464161186	 0.244448
C	 1.7064442724	 3.0991579833	 0.8737482029	-0.282282
C	 1.6912212393	 4.0627936751	-0.3421319519	-0.219863
C	 1.5786793765	 2.8375857032	-1.2963923801	-0.097928
C	 2.8611813787	 2.3254103198	-1.8879453003	-0.080334
C	 3.3210208881	 1.234682605	-1.2749677805	-0.062377
C	 2.4289340571	 0.7633883236	-0.1513734776	-0.345329
H	-0.7835268868	 2.2129463688	 0.2748709913	 0.069869
H	 0.9703761192	 3.3113491132	 1.6545689352	 0.106389
H	 2.6846812432	 2.9933570429	 1.34736519	 0.113083
H	 0.8061656088	 4.70396047	-0.3701061635	 0.103348
H	 2.5757122602	 4.6899133577	-0.4760601289	 0.103684
H	 0.7696211601	 2.8968704904	-2.0325493875	 0.081909
H	 3.3360527013	 2.8159451245	-2.7315589012	 0.095758
H	 4.2286414794	 0.7072825068	-1.5490975007	 0.096594
H	 2.9748912389	 0.6335109128	 0.7917913523	 0.104471
H	 1.9589632305	-0.2019244661	-0.3752001122	 0.133597
68.0203	87.5292	220.2907	242.6258	294.1445	375.1167	427.7054	496.9418	610.2461	703.8317	735.3851	753.3579	777.1907	826.584	870.7525	895.7527	949.6159	958.8634	971.1023	985.2318	988.0636	1033.2103	1079.5162	1093.6533	1122.1583	1137.0113	1203.2707	1207.0413	1228.2244	1266.9997	1273.181	1280.618	1301.6403	1342.5346	1370.4537	1432.7456	1472.0638	1485.2919	1492.633	1682.3713	1818.8112	2844.6972	3024.046	3041.3963	3055.3815	3058.6296	3062.6921	3102.4058	3120.9228	3175.5783	3201.2179
O=CC12CCC1C=CC2	O=C[C@]12CC[C@H]1C=CC2	
InChI=1S/C8H10O/c9-6-8-4-1-2-7(8)3-5-8/h1-2,6-7H,3-5H2	InChI=1S/C8H10O/c9-6-8-4-1-2-7(8)3-5-8/h1-2,6-7H,3-5H2/t7-,8+/m1/s1
