18
gdb 39042	2.53384	2.24981	1.51098	1.7432	76.1	-0.2402	0.0097	0.2498	900.7754	0.150433	-401.899449	-401.892874	-401.89193	-401.929895	27.846	
C	-0.0336313768	 1.5336222637	 0.1002813879	-0.452886
C	 1.2145263031	 0.7238356625	-0.1325383123	 0.097639
O	 2.2574410719	 0.4217424344	 0.766018074	-0.228185
C	 2.5832475047	-0.9232090683	 0.6864735452	 0.102169
N	 1.8796626365	-1.9378078424	 0.4161216258	-0.244496
C	 0.4226408627	-1.9662670473	 0.3164904568	 0.032718
C	-0.2091737429	-0.8903526155	 1.2401488186	-0.269756
C	-0.0857286657	 0.0250550946	 0.0234018913	 0.305102
C	-0.2343134021	-1.1913407743	-0.8958189106	-0.310712
H	-0.2370320583	 1.9308619098	 1.0896831441	 0.129887
H	-0.3463750878	 2.1788289005	-0.7149428229	 0.123424
H	 1.5912527391	 0.7766018029	-1.1534146273	 0.0961
H	 3.6430823186	-1.0427400416	 0.9091536413	 0.122057
H	 0.1022628279	-3.0030331325	 0.4373598148	 0.080263
H	-1.2564874693	-1.106450647	 1.4748383291	 0.098571
H	 0.3321178942	-0.6369365252	 2.1535321217	 0.112705
H	 0.2995784414	-1.1787600151	-1.8484009004	 0.104308
H	-1.2612733073	-1.5419087193	-1.0413023271	 0.101092
217.1765	270.2913	343.7832	374.0205	381.9701	445.2739	522.0145	574.7318	601.7826	780.7737	794.3772	819.1133	850.9357	865.5498	873.0642	924.4719	943.3256	959.5396	986.3823	1033.5248	1063.1649	1066.9189	1084.4861	1120.8724	1127.6052	1153.299	1173.351	1182.2548	1220.4828	1258.7566	1274.2803	1351.7049	1371.9977	1409.5052	1429.3506	1479.1379	1485.3473	1504.6004	1709.0209	3046.2038	3051.3953	3083.9754	3105.737	3116.073	3118.3931	3125.3456	3144.5567	3212.6279
C1C2OC=NC3CC12C3	C1[C@H]2OC=N[C@H]3C[C@@]12C3	
InChI=1S/C7H9NO/c1-5-2-7(1)3-6(7)9-4-8-5/h4-6H,1-3H2	InChI=1S/C7H9NO/c1-5-2-7(1)3-6(7)9-4-8-5/h4-6H,1-3H2/t5-,6-,7+/m1/s1
