25
gdb 117724	3.37914	0.69989	0.67376	0.3679	86.41	-0.2521	0.0752	0.3273	1816.0363	0.225608	-426.615718	-426.603785	-426.60284	-426.653096	42.598	
C	-0.1388463136	 1.4162765911	 0.0110500923	-0.226979
O	-0.0167360968	 0.0158625125	 0.0023034202	-0.239877
C	-1.2628482974	-0.6484180427	 0.0106327704	-0.058756
C	-1.0479428751	-2.1732513733	 0.0003594038	 0.217812
C	-0.2673738158	-2.5574640514	-1.2715293335	-0.411006
C	-0.2431598434	-2.5710540554	 1.2528317753	-0.411006
C	-2.4567435814	-2.8100091173	 0.0104462461	-0.18248
C	-2.5144175794	-4.3341238807	 0.0028863787	-0.100033
O	-3.8907239375	-4.6949201116	 0.0140461408	-0.420374
H	 0.8708541363	 1.8345467962	 0.0036621547	 0.125139
H	-0.6829549979	 1.785471815	-0.8730976358	 0.103094
H	-0.6659167154	 1.7758251848	 0.9093808547	 0.103094
H	-1.839599945	-0.357138439	 0.9059890784	 0.080204
H	-1.856587154	-0.3475617658	-0.870337918	 0.080205
H	 0.6620252325	-1.9864678809	-1.330967869	 0.130058
H	-0.0133746519	-3.6215171497	-1.2814055505	 0.106773
H	-0.8533007288	-2.3435370868	-2.1729020982	 0.104732
H	-0.8116766567	-2.3669273353	 2.1675280307	 0.10473
H	 0.0108943059	-3.6351206744	 1.2463656294	 0.106771
H	 0.6872561483	-2.0006165872	 1.3005857999	 0.130059
H	-3.0059343132	-2.4655340419	 0.8960896855	 0.099453
H	-3.0227385009	-2.4561868311	-0.8608153698	 0.099456
H	-2.0125592973	-4.7344362425	-0.8908793394	 0.087441
H	-1.9957030948	-4.7438681379	 0.8826430941	 0.087441
H	-3.9474744367	-5.6547253745	 0.0096394191	 0.284051
65.8864	74.4253	101.7743	116.2507	121.996	225.2245	241.0336	254.8246	265.5175	272.7145	316.4624	331.731	341.9257	342.6443	418.7757	452.5366	609.0965	770.55	798.7919	913.6317	933.019	963.7819	986.3973	994.3539	1009.1359	1043.1082	1071.089	1096.3603	1158.0125	1182.3661	1200.7069	1212.8139	1223.9388	1250.7354	1252.2193	1278.8276	1301.7845	1346.6322	1359.0692	1397.7692	1403.5644	1430.7528	1462.1135	1478.9903	1484.1682	1485.9597	1488.997	1498.7566	1498.9155	1507.3401	1518.2522	1526.6502	1531.9537	2940.4075	2968.5492	2971.8354	2979.0838	3005.1346	3010.187	3020.0763	3031.6624	3036.9382	3062.8388	3096.7916	3100.4673	3110.7516	3123.6512	3127.2547	3830.5378
COCC(C)(C)CCO	COCC(C)(C)CCO	
InChI=1S/C7H16O2/c1-7(2,4-5-8)6-9-3/h8H,4-6H2,1-3H3	InChI=1S/C7H16O2/c1-7(2,4-5-8)6-9-3/h8H,4-6H2,1-3H3
