17
gdb 48330	2.39503	1.33851	1.04868	2.0247	74.05	-0.2417	-0.0324	0.2093	1182.2965	0.132647	-421.777329	-421.768025	-421.767081	-421.812574	32.988	
O	-0.9553148004	 0.9484035519	 0.6709959028	-0.253022
C	 0.045343594	 0.8352754723	 0.0115994976	 0.125782
C	 1.2140426134	 1.8163613641	 0.0506819424	 0.330402
C	 1.264393946	 2.6892060406	-1.2139605263	-0.421356
C	 1.2872870058	 1.9288762485	-2.4583340856	 0.300528
C	 1.3019527053	 1.2984678207	-3.4809854058	-0.433145
C	 1.3976633057	 2.5409854607	 1.3976310972	-0.342424
C	 2.6208194598	 1.6178748308	 1.5629815707	-0.068646
O	 2.4275816329	 1.0466175965	 0.2432776035	-0.318548
H	 0.2183704539	-0.0265049486	-0.6652004185	 0.109963
H	 0.3954226336	 3.3607378962	-1.1975825512	 0.146572
H	 2.1588161168	 3.3201820144	-1.1459055644	 0.139721
H	 1.31835234	 0.742871276	-4.3858467294	 0.202531
H	 1.6307388353	 3.6034698729	 1.3107689032	 0.113141
H	 0.574047635	 2.3990704083	 2.0968489089	 0.13902
H	 3.5943811904	 2.1117454658	 1.6455906713	 0.113655
H	 2.5353283623	 0.8574137188	 2.3471501435	 0.115825
40.4292	61.7838	107.8522	132.7951	243.2201	298.5364	311.6415	348.7616	372.4984	439.5674	616.4332	627.7127	651.004	708.3835	791.9897	846.4248	864.9579	943.1958	955.5897	988.9396	1000.014	1010.0835	1074.8115	1158.0338	1175.7934	1190.6011	1214.4014	1261.3319	1281.2045	1332.27	1358.1093	1404.2993	1452.0766	1491.3031	1529.3774	1828.8328	2240.805	2931.8245	3020.2674	3033.7309	3061.2072	3078.4864	3088.406	3150.9251	3505.4624
O=CC1(CC#C)CCO1	O=C[C@@]1(CC#C)CCO1	
InChI=1S/C7H8O2/c1-2-3-7(6-8)4-5-9-7/h1,6H,3-5H2	InChI=1S/C7H8O2/c1-2-3-7(6-8)4-5-9-7/h1,6H,3-5H2/t7-/m1/s1
