15
gdb 78729	4.85127	1.17945	1.07869	1.0878	72.7	-0.2298	0.0126	0.2424	1093.0795	0.110909	-420.508884	-420.501361	-420.500417	-420.540614	29.641	
O	 0.0113695379	 1.3389245454	 0.0768479281	-0.431711
C	 0.0145342596	-0.0682662693	-0.0188142189	 0.116327
C	-1.4172049709	-0.5715781438	-0.1335347252	-0.179083
C	-1.3824726791	-0.4717485647	-1.6506631967	-0.187673
C	 0.1734195183	-0.5968686896	-1.4782703627	-0.015658
O	 0.0865781841	-2.0370275529	-1.3221261099	-0.333624
C	-1.3074083046	-1.8340523769	-1.026901727	 0.371976
C	-2.2163860518	-2.9216229752	-0.9987284752	 0.160579
C	-2.992955335	-3.8396775367	-0.9738740471	-0.372041
H	 0.9256273967	 1.638541462	 0.0363544087	 0.287396
H	 0.6710839053	-0.5361642576	 0.7269538185	 0.078087
H	-2.2478495867	-0.414581349	 0.5411036783	 0.110075
H	-2.0474546195	-0.0396806402	-2.3839291477	 0.115386
H	 0.9632404023	-0.2644327855	-2.1491517862	 0.090469
H	-3.6760827265	-4.652498236	-0.9537247568	 0.189495
127.8581	140.1712	241.9643	305.5541	327.1427	435.7636	481.7241	496.8333	560.1288	574.9975	641.111	699.9443	787.9245	800.7986	822.0338	864.7056	913.8735	944.208	951.8075	969.4559	1005.6404	1044.9607	1107.846	1115.4791	1133.1046	1177.3942	1221.048	1239.3574	1261.6444	1308.7777	1395.4313	1427.3127	2239.5985	3017.8675	3144.3233	3214.893	3228.2719	3502.1655	3810.4202
OC1C2C3C1OC23C#C	O[C@H]1[C@H]2[C@H]3[C@@H]1O[C@@]23C#C	
InChI=1S/C7H6O2/c1-2-7-3-4(7)6(9-7)5(3)8/h1,3-6,8H	InChI=1S/C7H6O2/c1-2-7-3-4(7)6(9-7)5(3)8/h1,3-6,8H/t3-,4+,5+,6+,7+/m1/s1
