13
gdb 21458	5.99294	1.45434	1.17033	2.2797	63.11	-0.2316	-0.0117	0.2198	941.8885	0.097733	-394.776004	-394.769362	-394.768418	-394.807251	24.297	
N	 0.2660200619	 1.2818282242	 0.0038216966	-0.453767
C	 0.0675666856	 0.0240682087	 0.0013805111	 0.088054
N	-1.1802759962	-0.5528333915	 0.0126977764	-0.38268
C	-2.4064750356	 0.0880742653	 0.027408579	 0.491555
N	-3.4944351917	-0.6567354566	 0.0351979984	-0.242652
O	-4.5525204119	 0.2466360348	 0.0496205954	-0.164023
C	-4.0589307905	 1.4922441382	 0.0496888164	 0.087243
C	-2.7034128085	 1.4830330042	 0.0360534928	-0.331814
H	 1.2634211422	 1.4785554352	-0.0060218392	 0.228481
H	 0.8508681876	-0.7422148126	-0.0096403782	 0.099869
H	-1.231591102	-1.5592696342	 0.009059231	 0.267907
H	-4.790277	 2.2857390092	 0.0602701571	 0.151419
H	-2.0013787008	 2.295092355	 0.0322390332	 0.160407
73.0579	192.4217	199.683	360.0701	364.8849	524.2234	599.7321	605.8981	721.4051	801.7744	814.2326	818.1686	882.5591	919.2774	961.9831	1001.8258	1046.4613	1062.0433	1135.7886	1168.7769	1239.6038	1320.3351	1412.557	1434.3396	1502.7977	1543.5493	1643.8653	1730.6227	3057.2891	3265.5755	3328.5424	3524.2671	3642.1849
N=CNC1=NOC=C1	N=CNc1nocc1	
InChI=1S/C4H5N3O/c5-3-6-4-1-2-8-7-4/h1-3H,(H2,5,6,7)	InChI=1S/C4H5N3O/c5-3-6-4-1-2-8-7-4/h1-3H,(H2,5,6,7)
