18
gdb 58412	2.34412	1.15105	0.81096	4.3958	71.84	-0.2505	-0.0384	0.2121	1387.5949	0.143722	-476.218251	-476.207995	-476.207051	-476.254101	35.701	
C	-0.1272715006	 1.5897556015	 0.0618783439	-0.419443
C	 0.0185159592	 0.0730410854	 0.0773192212	 0.095932
O	-1.2321888666	-0.5930857637	 0.1954338996	-0.426525
C	 0.7565161779	-0.459023427	-1.1749657552	-0.007668
O	 1.9951145948	 0.2108326466	-1.2669578834	-0.187111
C	 2.7031166194	 0.0744437992	-2.4145735223	 0.148491
N	 3.8231033555	 0.6413418196	-2.5170814679	-0.446461
C	 0.9267011219	-1.9765613025	-1.1099896399	 0.146247
O	 1.958692843	-2.5396204277	-1.3647034284	-0.238156
H	 0.8497587781	 2.0738541492	 0.0154223428	 0.160007
H	-0.7063071618	 1.9137242708	-0.8131101662	 0.107393
H	-0.6495595579	 1.9196183911	 0.9638434385	 0.131475
H	 0.5944851646	-0.2281033385	 0.9599175522	 0.118194
H	-1.8624212589	-0.1486511776	-0.3825030932	 0.285544
H	 0.1202513291	-0.2422347396	-2.0529794843	 0.091473
H	 2.1942068541	-0.5245614528	-3.1781104084	 0.094265
H	 4.2215306597	 0.4601194039	-3.4358586864	 0.231741
H	 0.0071055784	-2.519409228	-0.8156456426	 0.114603
62.2186	82.8141	102.0259	152.2357	169.271	218.2225	239.0022	298.0999	314.6291	335.338	393.1319	426.021	478.9514	601.2061	721.9892	813.0811	847.8411	895.6665	962.5581	993.1406	1033.0109	1036.406	1074.0944	1133.4079	1154.852	1182.63	1237.3021	1288.075	1313.1147	1339.2721	1375.6737	1396.7894	1402.8475	1416.3353	1426.2291	1490.003	1495.8967	1747.6213	1834.4021	2938.05	2953.4696	3024.1841	3054.4461	3056.1761	3105.938	3146.364	3521.8978	3800.5599
CC(O)C(OC=N)C=O	C[C@@H](O)[C@@H](O[CH][NH])C=O	
InChI=1S/C5H9NO3/c1-4(8)5(2-7)9-3-6/h2-6,8H,1H3	InChI=1S/C5H9NO3/c1-4(8)5(2-7)9-3-6/h2-6,8H,1H3/t4-,5+/m1/s1
