16
gdb 18041	3.8578	2.20688	1.57112	1.9862	65.66	-0.2487	0.0033	0.2521	806.812	0.132275	-383.715352	-383.708903	-383.707959	-383.746097	24.739	
C	 0.0636321404	 1.5456292497	 0.1339292455	-0.09038
O	 1.4506754712	 1.5550078073	-0.2711328568	-0.298694
C	 1.4129072269	 0.1270860331	-0.5402589959	 0.087873
C	 2.4666583301	-0.6914057813	 0.1268632575	-0.089082
C	 2.1229111301	-1.6101945444	 1.0263737414	-0.068936
C	 0.6997329468	-1.7506039452	 1.4996690634	-0.12548
O	-0.0362222119	-0.5462824361	 1.3650010261	-0.260387
C	-0.0007718159	 0.012007434	 0.0716662339	 0.054826
H	-0.0844287418	 1.9619228422	 1.1352537341	 0.117108
H	-0.577451852	 2.0657198899	-0.5890100308	 0.097476
H	 1.4240224554	-0.0477223036	-1.626523071	 0.078188
H	 3.4979913424	-0.5460958999	-0.1813748944	 0.102377
H	 2.8598389407	-2.2759565572	 1.4673474145	 0.100572
H	 0.1941058169	-2.5826853581	 0.9770659885	 0.101227
H	 0.678388794	-1.9899565389	 2.5679708287	 0.121933
H	-0.7708493033	-0.4350779614	-0.5709921948	 0.071379
94.4547	176.152	273.4325	379.1579	464.3114	492.3999	533.8718	709.4414	782.928	818.5426	851.6169	908.1698	931.581	984.4454	989.5324	1008.5787	1019.668	1055.7512	1079.4084	1100.6771	1138.0678	1171.6744	1213.2256	1259.738	1279.3643	1284.0036	1341.4926	1357.1648	1372.58	1406.031	1413.559	1489.6096	1507.5844	1715.9962	2943.2113	2985.5392	3008.897	3025.1957	3069.3562	3085.5716	3158.9501	3181.156
C1OC2C=CCOC12	C1O[C@H]2C=CCO[C@@H]12	
InChI=1S/C6H8O2/c1-2-5-6(4-8-5)7-3-1/h1-2,5-6H,3-4H2	InChI=1S/C6H8O2/c1-2-5-6(4-8-5)7-3-1/h1-2,5-6H,3-4H2/t5-,6-/m0/s1
