18
gdb 50412	2.41842	1.67424	1.08164	4.017	80.05	-0.2203	0.0059	0.2262	1111.7347	0.14828	-401.965966	-401.958024	-401.95708	-401.998599	30.515	
O	 0.0257745269	-0.0178936041	-0.0035720933	-0.350337
C	 0.0464491154	 1.1984687283	 0.0059130284	 0.135242
N	 1.1778075673	 1.9405416682	-0.0018167644	-0.131074
C	 2.4984762978	 1.3015582334	-0.0210156626	-0.215898
C	 3.425204054	 2.4852969851	-0.0188200337	-0.115309
C	 2.7472050346	 3.6302370939	-0.0013998052	-0.132594
C	 1.2836505212	 3.3918433875	 0.0105866872	 0.376846
C	 0.3130268156	 4.2857344756	-0.7282175624	-0.314714
C	 0.3276055423	 4.2721639087	 0.7837816569	-0.314854
H	-0.8753156371	 1.8117312446	 0.0214164591	 0.070482
H	 2.627168104	 0.6461589672	 0.8508984457	 0.133176
H	 2.6100973335	 0.6632225582	-0.9078462023	 0.133081
H	 4.5016494815	 2.3781054667	-0.0304451	 0.11271
H	 3.1606110828	 4.6307635967	 0.0039423131	 0.110832
H	 0.7126884117	 5.1513306542	-1.2460827951	 0.122442
H	-0.5197322376	 3.8084583284	-1.2335723233	 0.128747
H	-0.4954893841	 3.7862517118	 1.2966661482	 0.128771
H	 0.7376739602	 5.1283183956	 1.3091658136	 0.122452
78.2584	134.9331	197.3947	256.1056	299.0391	338.3863	398.0709	520.1535	530.0986	539.9464	731.6747	761.3111	769.0099	847.0067	897.1162	899.9679	920.9687	957.523	964.885	982.6809	1026.1321	1029.6865	1055.3979	1071.5104	1093.3015	1161.9906	1189.5777	1192.6742	1265.3476	1315.568	1340.0041	1384.7127	1420.2381	1455.4217	1460.308	1495.1682	1511.7173	1686.2992	1781.9028	2940.3542	3012.4804	3031.7833	3129.5475	3131.3785	3209.8676	3211.1093	3225.0582	3234.35
O=CN1CC=CC11CC1	O=CN1CC=CC21CC2	
InChI=1S/C7H9NO/c9-6-8-5-1-2-7(8)3-4-7/h1-2,6H,3-5H2	InChI=1S/C7H9NO/c9-6-8-5-1-2-7(8)3-4-7/h1-2,6H,3-5H2
