19
gdb 59003	3.85699	1.1539	0.9655	1.8243	76.34	-0.2117	0.0246	0.2364	1246.388	0.159784	-419.204606	-419.195994	-419.195049	-419.237945	33.214	
C	 0.057291272	 1.5625194573	 0.3114528726	-0.397316
C	-0.0877675469	 0.1036166211	-0.101797153	 0.030116
O	 0.7467385389	-0.7721100353	 0.6668816066	-0.434005
C	-1.5174891085	-0.3807169762	-0.0404510852	 0.331782
N	-2.5625349425	 0.3711707813	 0.0204066714	-0.314559
C	-3.7076421435	-0.4987535926	 0.0457718492	-0.009274
C	-3.9541599586	-1.4019429186	-1.1459392792	-0.296229
C	-3.1707905447	-1.9450616509	 0.0173808727	-0.028173
N	-1.751011358	-1.7416179714	-0.0714015761	-0.322427
H	 1.1035545586	 1.8682469441	 0.2314222309	 0.116937
H	-0.5612205908	 2.2016931212	-0.3215647857	 0.146516
H	-0.2806882841	 1.7066699537	 1.3433594668	 0.116635
H	 0.2716087524	-0.0237252152	-1.1305718134	 0.111913
H	 0.5967337759	-0.5635567051	 1.5962209335	 0.282567
H	-4.5559938053	-0.1638368264	 0.6325053355	 0.089788
H	-4.9677602702	-1.7693836988	-1.2637511991	 0.112068
H	-3.4259265599	-1.1960411165	-2.0713864172	 0.115885
H	-3.5265480838	-2.7754655571	 0.6155307614	 0.097168
H	-1.0734753708	-2.3742999547	 0.3214452584	 0.250611
52.7832	139.8521	192.1842	223.7157	293.3033	323.8221	382.7958	412.1664	434.8069	485.6956	540.1221	613.7199	684.9902	754.8384	771.5161	822.7016	886.0626	908.961	953.5141	987.9974	1036.2819	1039.477	1059.3185	1073.908	1082.5275	1092.6544	1129.0658	1155.3653	1180.592	1244.6905	1287.2931	1324.8985	1350.1957	1369.2103	1403.6676	1414.3697	1452.5334	1474.1641	1484.2655	1489.5152	1655.7276	3036.317	3044.869	3115.7963	3126.2343	3142.9383	3163.4734	3178.5149	3219.6233	3649.7223	3794.2954
CC(O)C1=NC2CC2N1	C[C@@H](O)C1=N[C@H]2C[C@H]2N1	
InChI=1S/C6H10N2O/c1-3(9)6-7-4-2-5(4)8-6/h3-5,9H,2H2,1H3,(H,7,8)	InChI=1S/C6H10N2O/c1-3(9)6-7-4-2-5(4)8-6/h3-5,9H,2H2,1H3,(H,7,8)/t3-,4-,5+/m1/s1
