19
gdb 40686	3.72821	0.99134	0.90912	0.4175	76.77	-0.262	0.0604	0.3225	1344.8337	0.1583	-422.969984	-422.961594	-422.96065	-423.003803	31.379	
C	 0.1597221569	 1.4360385395	 0.0241598046	-0.178152
O	 1.3156906344	 0.5983704997	-0.018045289	-0.235183
C	 0.0287731028	-0.0267953163	 0.0241926399	 0.066566
C	-0.2786221618	-0.778860244	 1.2754643211	-0.086688
O	-1.5723929722	-1.4060358898	 1.3231959229	-0.294673
C	-0.425700014	-2.2387206057	 1.297702214	 0.458876
C	-0.0928830744	-3.2662503427	 0.2111025902	-0.314187
C	 0.6662825845	-4.075588964	 1.3067617467	-0.211479
C	-0.0264616646	-3.2145548369	 2.4065181516	-0.311926
H	 0.0150566415	 1.9871887904	 0.9525733631	 0.117985
H	-0.0493440462	 1.9937118225	-0.8873382466	 0.119589
H	-0.276087485	-0.5195247258	-0.8988041	 0.100686
H	 0.0230732927	-0.2732457907	 2.1946558327	 0.096091
H	-0.9942055651	-3.7785051463	-0.1381595143	 0.115947
H	 0.4791131224	-2.9259306246	-0.6551329525	 0.111865
H	 0.4789904384	-5.1497842406	 1.337413885	 0.10644
H	 1.7445199623	-3.9071902783	 1.268743394	 0.11383
H	 0.5917703172	-2.8299985752	 3.2209718968	 0.108132
H	-0.9052977198	-3.7089340613	 2.8311039198	 0.116281
52.6868	104.5067	142.1814	153.0818	302.3024	353.2215	381.115	420.9063	516.3087	578.2139	716.2548	782.7749	831.9707	861.3126	866.5973	892.2653	916.7486	923.5804	958.6177	995.595	1029.3144	1066.8896	1099.9957	1139.265	1150.2298	1156.8823	1168.9787	1180.1216	1205.1232	1223.8952	1245.9543	1266.6572	1276.2992	1280.5707	1311.2644	1411.2057	1468.0373	1480.2275	1495.7374	1517.7463	1537.0942	3057.3928	3061.0702	3077.8519	3083.9889	3096.1998	3107.9534	3112.3541	3118.4705	3135.6411	3172.8599
C1OC1C1OC11CCC1	C1O[C@H]1[C@H]1OC21CCC2	
InChI=1S/C7H10O2/c1-2-7(3-1)6(9-7)5-4-8-5/h5-6H,1-4H2	InChI=1S/C7H10O2/c1-2-7(3-1)6(9-7)5-4-8-5/h5-6H,1-4H2/t5-,6-/m1/s1
