20
gdb 92023	2.35912	1.90124	1.40657	1.1656	77.26	-0.2251	0.0725	0.2976	1003.6254	0.17283	-403.106001	-403.098255	-403.097311	-403.137962	30.963	
C	-0.0709023535	 1.5922241643	 0.0410413239	-0.392882
C	 0.0042663697	 0.0568663178	 0.01229551	-0.034304
C	 0.526951937	-0.528866346	-1.3374960328	-0.169266
N	 1.9387146651	-0.8622156098	-1.5009705289	-0.095374
C	 3.0013217423	 0.0416715508	-1.0877600651	-0.257723
C	 2.7239310057	-1.2037105913	-0.3102015963	-0.038218
C	 2.1016174236	-1.0925486042	 1.0517471812	 0.040982
O	 1.9436428117	 0.2133128376	 1.6151948414	-0.250817
C	 0.7626635555	-0.4912340056	 1.2140739689	 0.023614
H	 0.9186218469	 2.0503453564	-0.0149965076	 0.136348
H	-0.6679910272	 1.9586766268	-0.8001232557	 0.111841
H	-0.5406426384	 1.9430459603	 0.9659163229	 0.117346
H	-1.0240281671	-0.313735019	 0.1065201924	 0.080261
H	-0.0112877844	-1.4659663054	-1.5238006188	 0.106151
H	 0.2564537836	 0.1531380175	-2.1513026633	 0.107152
H	 3.8577367851	 0.0807077352	-1.7562825177	 0.113582
H	 2.7592652351	 0.9755473736	-0.591078787	 0.133849
H	 3.3726233072	-2.067991113	-0.4359665615	 0.08615
H	 2.4265656612	-1.8469199081	 1.767301814	 0.088994
H	 0.1500990309	-0.8152149978	 2.05546507	 0.092315
99.739	189.3507	213.8667	268.9794	325.7144	340.0533	441.7006	489.9225	522.5158	636.5547	686.0587	741.355	782.2936	815.8477	861.2233	885.5859	933.0251	948.2949	967.9063	1013.264	1018.0191	1069.8069	1078.1829	1098.9397	1114.2345	1135.4575	1149.2327	1164.9565	1183.6928	1282.8062	1292.8086	1321.0884	1346.5338	1366.474	1371.589	1392.0073	1400.966	1419.6949	1458.0954	1480.3431	1492.4747	1500.3121	1513.4052	3015.0959	3031.6885	3039.5959	3067.7638	3101.5038	3102.438	3110.3315	3112.911	3129.9647	3131.2998	3206.515
CC1CN2CC2C2OC12	C[C@H]1CN2C[C@H]2[C@H]2O[C@@H]12	
InChI=1S/C7H11NO/c1-4-2-8-3-5(8)7-6(4)9-7/h4-7H,2-3H2,1H3	InChI=1S/C7H11NO/c1-4-2-8-3-5(8)7-6(4)9-7/h4-7H,2-3H2,1H3/t4-,5-,6-,7+,8?/m0/s1
