17
gdb 31449	5.18311	0.84843	0.77253	6.7179	84.03	-0.2254	-0.0035	0.2219	1466.5288	0.137746	-380.93929	-380.930743	-380.929798	-380.973174	31.329	
C	 0.1728066498	 1.5064473979	 0.236550467	-0.369325
C	-0.0988519393	 0.0245179683	-0.0801356219	-0.302088
C	 0.5800691412	-0.463738923	-1.3208730636	 0.343912
C	 0.0762383299	-0.8102958612	-2.5499507673	-0.352447
C	 1.178182361	-1.187416157	-3.3833547038	 0.176203
C	 2.3276483399	-1.0562320623	-2.6252229909	-0.17073
N	 1.951349917	-0.6201256819	-1.3907295229	-0.296743
C	 1.1196315864	-1.6192967221	-4.7304209502	 0.194847
N	 1.0616309851	-1.9714425732	-5.8329893749	-0.354006
H	 1.2406457126	 1.6960803214	 0.3890086853	 0.110535
H	-0.1627804248	 2.1467697716	-0.5841761326	 0.132485
H	-0.3517952992	 1.8100816078	 1.1473796811	 0.121284
H	 0.2013239396	-0.5920085403	 0.7780237632	 0.109725
H	-1.1745840916	-0.1320138355	-0.2039992683	 0.125069
H	-0.9628845011	-0.8026653628	-2.8382115763	 0.117017
H	 3.3576950192	-1.2443030532	-2.8782515005	 0.145576
H	 2.5863251842	-0.4456902345	-0.6301497032	 0.268685
44.2076	115.0472	144.9865	193.3579	219.8333	336.7874	375.9678	506.2155	523.6376	555.6916	575.929	661.9292	672.2166	703.7268	753.7813	784.4958	831.3449	949.7062	988.4005	1002.6734	1065.5072	1085.6321	1145.9487	1170.7415	1243.299	1294.0958	1328.1998	1358.4287	1400.5843	1414.6009	1447.8554	1482.1636	1498.06	1504.3827	1543.5656	1623.6189	2343.0554	3017.3373	3037.4378	3080.8253	3107.3981	3119.2207	3263.158	3277.9909	3670.6217
CCC1=CC(=CN1)C#N	CCc1cc(c[nH]1)C#N	
InChI=1S/C7H8N2/c1-2-7-3-6(4-8)5-9-7/h3,5,9H,2H2,1H3	InChI=1S/C7H8N2/c1-2-7-3-6(4-8)5-9-7/h3,5,9H,2H2,1H3
