20
gdb 91433	2.29281	1.63241	1.13076	3.1268	79.89	-0.2174	-0.0337	0.1838	1127.9671	0.170466	-403.103741	-403.095168	-403.094224	-403.137375	32.417	
C	 0.1820025051	 1.6028006475	-0.0116888316	-0.422254
C	 0.0736693027	 0.0898291706	 0.0152288267	 0.089258
C	 0.7556143018	-0.8046460367	-1.0578035758	-0.289455
C	 1.114056903	-1.7581463158	 0.110708373	 0.060643
C	 2.5571975208	-1.74183183	 0.6362216693	-0.287859
C	 2.1453525029	-0.5262625353	 1.5232846206	-0.03664
C	 2.8761530336	 0.7563378081	 1.1841949057	 0.145432
O	 3.2582550693	 1.5505622917	 2.0050076503	-0.252367
N	 0.6881521982	-0.7186399271	 1.1317167345	-0.170565
H	 1.1906026829	 1.960654927	-0.231912589	 0.122878
H	-0.481814298	 2.0028361359	-0.7857929419	 0.121097
H	-0.129147894	 2.028456394	 0.9478634245	 0.138
H	-0.9931442119	-0.1636799441	 0.0642747029	 0.093005
H	 0.1160486814	-1.201886941	-1.8498201337	 0.104031
H	 1.6356212837	-0.3430276197	-1.5188310584	 0.09994
H	 0.5737254664	-2.7088084058	 0.1274584853	 0.077705
H	 2.8372056439	-2.6213353004	 1.2184885438	 0.120021
H	 3.3363266886	-1.5511244847	-0.1081737084	 0.107933
H	 2.2545495711	-0.6712049199	 2.6010533456	 0.104403
H	 3.0958078285	 0.9043057057	 0.1015761265	 0.074794
58.3213	82.6607	178.7994	232.4873	279.6449	317.4061	352.7391	366.5948	450.1759	556.2529	616.3719	684.0119	790.3792	814.0259	827.2236	888.8454	918.6429	934.5605	963.222	986.173	1011.1477	1059.063	1064.7866	1138.0956	1146.4023	1154.0295	1165.1492	1202.1943	1222.7286	1251.2506	1267.5309	1283.6413	1309.7497	1316.4846	1345.6431	1393.2864	1409.7032	1427.7753	1477.2582	1485.2017	1488.6487	1497.3988	1819.3591	2854.6744	3013.2275	3038.3649	3043.8667	3054.7751	3062.7057	3074.8423	3102.2498	3104.7599	3120.1791	3121.0937
CC1CC2CC(C=O)N12	C[C@H]1C[C@H]2C[C@@H](C=O)N12	
InChI=1S/C7H11NO/c1-5-2-6-3-7(4-9)8(5)6/h4-7H,2-3H2,1H3	InChI=1S/C7H11NO/c1-5-2-6-3-7(4-9)8(5)6/h4-7H,2-3H2,1H3/t5-,6-,7-/m0/s1
