15
gdb 132533	3.13691	1.40694	0.97779	1.4618	74.24	-0.2188	-0.036	0.1828	1141.3056	0.113012	-458.16108	-458.153108	-458.152164	-458.193586	30.013	
C	-0.0349881924	 1.4982888849	 0.0405721632	-0.471606
C	-0.0068591575	-0.0021464818	-0.0192134298	 0.291521
C	 0.2258698921	-0.712861299	-1.1872344746	-0.076861
N	 0.2501951253	-2.0537121705	-1.2401138439	-0.313953
C	 0.0287287968	-2.7111267451	-0.1106658966	 0.257493
N	-0.0215217663	-4.0841329283	-0.1113533872	-0.569875
C	-0.1975241683	-1.972158928	 1.0734654158	 0.269302
F	-0.3911065961	-2.6658374422	 2.2030398657	-0.081778
N	-0.2160051953	-0.680397252	 1.134113257	-0.340598
H	 0.1585775915	 1.9355167938	-0.9421204399	 0.123353
H	-1.0086029472	 1.8558923713	 0.3921337999	 0.139819
H	 0.7171302067	 1.8745039647	 0.7419220439	 0.139134
H	 0.4066329161	-0.1927032558	-2.1236795601	 0.108465
H	 0.4004097347	-4.5237696193	-0.9150093427	 0.26176
H	 0.1356901199	-4.5415638528	 0.7720503493	 0.263826
97.3367	128.2985	231.5387	292.6483	293.8291	376.0258	408.8852	460.3005	500.0675	522.8622	539.3206	580.6642	632.4116	716.9386	799.4124	824.6733	927.5402	987.5927	1028.9144	1060.9488	1077.2809	1233.3349	1260.1201	1321.0829	1360.4834	1413.4288	1462.0742	1475.121	1494.9295	1510.6111	1590.962	1622.3856	1658.3596	3037.2327	3094.1909	3123.1789	3168.2856	3586.2057	3707.2275
CC1=CN=C(N)C(F)=N1	Cc1cnc(N)c(F)n1	
InChI=1S/C5H6FN3/c1-3-2-8-5(7)4(6)9-3/h2H,1H3,(H2,7,8)	InChI=1S/C5H6FN3/c1-3-2-8-5(7)4(6)9-3/h2H,1H3,(H2,7,8)
