22
gdb 109735	1.81265	1.41908	1.05068	3.1567	83.87	-0.2412	0.0289	0.2701	1304.972	0.193142	-404.384104	-404.373466	-404.372522	-404.419988	38.656	
C	-0.3444553166	 1.5178998617	 0.7811466891	-0.37488
C	-0.1361474962	 0.2912093343	-0.1143889818	-0.200759
C	-1.3369414357	-0.6344846313	-0.1109017473	-0.011478
C	-1.284834531	-2.0808377149	-0.5019241175	-0.045675
C	-0.0197645315	-2.7849847697	-0.9449880114	-0.417667
C	-1.5612254812	-1.7090603543	 0.9587111114	-0.151622
C	-0.5604976597	-1.9670946396	 2.0376900993	 0.424749
N	-1.1149629963	-2.3207578179	 3.2400945601	-0.534642
O	 0.6509778927	-1.8658696639	 1.9116917054	-0.382591
H	 0.5156199165	 2.192669508	 0.729494072	 0.110072
H	-1.2330423674	 2.0868088926	 0.4833659396	 0.104115
H	-0.4729167207	 1.2212089703	 1.8270980904	 0.121602
H	 0.0405065328	 0.6186344782	-1.1476597476	 0.087646
H	 0.7542841956	-0.2462422806	 0.2133045653	 0.139474
H	-2.2605936489	-0.1250440631	-0.3817139342	 0.081662
H	-2.1753721626	-2.4413772682	-1.0123736266	 0.08481
H	 0.8370457189	-2.5073002534	-0.3321623674	 0.162215
H	-0.1434128068	-3.8710599851	-0.8725739418	 0.110074
H	 0.198682173	-2.5466424728	-1.9919693973	 0.110328
H	-2.5924870751	-1.8311263308	 1.2772858456	 0.069451
H	-2.0901098901	-2.5405867716	 3.3376986806	 0.255707
H	-0.4851843297	-2.5922347081	 3.9773495639	 0.25741
56.3408	71.5964	134.4515	165.6079	179.111	200.5119	218.016	241.8157	289.0463	349.7287	405.0217	453.4446	520.936	581.7829	659.212	714.4779	776.3505	797.6547	806.2685	826.3552	952.8505	964.6562	989.3797	1016.2483	1058.0493	1073.2885	1101.8197	1122.2294	1143.7008	1155.7213	1198.3077	1265.7428	1281.3663	1307.7917	1343.7087	1395.2362	1409.0517	1418.6407	1433.7993	1454.4041	1480.6692	1498.2061	1499.4055	1504.7335	1512.1749	1614.1126	1763.6734	3019.7712	3028.789	3034.6991	3086.9	3089.9795	3105.7039	3106.4077	3120.3199	3133.632	3141.6462	3161.2685	3603.4154	3740.4335
CCC1C(C)C1C(N)=O	CC[C@H]1[C@@H](C)[C@H]1C(=O)N	
InChI=1S/C7H13NO/c1-3-5-4(2)6(5)7(8)9/h4-6H,3H2,1-2H3,(H2,8,9)	InChI=1S/C7H13NO/c1-3-5-4(2)6(5)7(8)9/h4-6H,3H2,1-2H3,(H2,8,9)/t4-,5+,6-/m1/s1
