15
gdb 24063	7.42482	0.80995	0.7336	2.1249	74.15	-0.2066	0.0253	0.2319	1459.888	0.112684	-416.798943	-416.790665	-416.789721	-416.832757	30.029	
C	 0.0656068045	-1.1683407446	-0.0063168912	-0.409922
C	 0.0596966831	 0.0321311056	 0.0017486904	 0.295635
C	 0.0073982877	 1.4843164681	 0.01206585	-0.238137
O	 1.3510615491	 1.9951765972	-0.0003414639	-0.275608
C	 1.4219378781	 3.3341546596	 0.0069980891	 0.506513
N	 0.4373068903	 4.1928685384	 0.023884899	-0.355686
C	 1.0596406989	 5.4330410131	 0.0241152702	-0.096994
C	 2.415562698	 5.2980664475	 0.007278525	-0.105121
N	 2.6445450113	 3.9265672854	-0.0038215619	-0.340873
H	 0.0723947778	-2.2302988822	-0.0134715443	 0.203582
H	-0.5351127326	 1.8691138869	-0.8594737759	 0.153724
H	-0.5143754882	 1.8573179952	 0.9012250614	 0.153696
H	 0.4814920429	 6.3437321462	 0.0365140193	 0.109398
H	 3.2246711624	 6.0081134791	 0.0020726072	 0.129554
H	 3.5295731968	 3.4497742446	-0.0172064843	 0.270239
39.6257	99.6212	113.6976	232.9928	301.1398	333.6049	424.1306	472.9719	523.721	610.7221	634.524	685.5567	686.2209	740.6362	779.9823	839.7328	923.4142	975.5159	1003.107	1014.7875	1061.8667	1083.3287	1137.3691	1194.4249	1248.6741	1289.007	1371.9533	1393.5155	1490.2383	1510.7432	1550.5993	1614.0356	2251.29	3035.0237	3067.2285	3255.2146	3288.1839	3506.1801	3677.7806
C#CCOC1=NC=CN1	C#CCOc1ncc[nH]1	
InChI=1S/C6H6N2O/c1-2-5-9-6-7-3-4-8-6/h1,3-4H,5H2,(H,7,8)	InChI=1S/C6H6N2O/c1-2-5-9-6-7-3-4-8-6/h1,3-4H,5H2,(H,7,8)
