23
gdb 109296	3.04917	1.00139	0.7847	1.3795	88.56	-0.2232	0.0383	0.2615	1511.3373	0.206209	-388.313739	-388.304063	-388.303119	-388.348135	36.664	
C	 0.0114980907	 1.5511735899	 0.0625657406	-0.401801
C	 0.0322929465	 0.0218125242	 0.0007178503	 0.035236
C	 0.6936241123	-0.4968437728	-1.284154092	-0.189711
C	 0.604063432	-2.0257466811	-1.3827064603	-0.268181
C	 0.9200380302	-2.7060915739	-0.077232125	-0.119934
C	 0.9901077427	-2.0690043424	 1.0917203333	 0.260899
C	 1.3237102746	-2.7721288755	 2.3800963431	-0.149766
O	 1.6327671619	-4.1339831838	 2.1519234938	-0.415148
C	 0.7398726161	-0.5835901852	 1.2241958405	-0.284986
H	 1.0290444245	 1.9585510126	 0.0245845147	 0.110647
H	-0.5471198793	 1.9749711875	-0.7787783005	 0.108756
H	-0.4542765631	 1.9085684236	 0.9876444771	 0.107145
H	-1.0073199331	-0.3372169036	 0.0085938752	 0.071263
H	 0.2335915968	-0.0319539883	-2.1640457913	 0.085514
H	 1.7493077981	-0.191607006	-1.2848649021	 0.092324
H	-0.4034687605	-2.322166673	-1.7131546148	 0.102731
H	 1.2812821829	-2.3936859667	-2.1643875385	 0.098931
H	 1.0985186979	-3.7762937766	-0.0997097069	 0.09989
H	 2.1684115312	-2.2471009486	 2.8632258383	 0.088044
H	 0.4681378407	-2.6693081571	 3.0724003374	 0.089494
H	 1.791597008	-4.5496486777	 3.0035276315	 0.287939
H	 1.6970076805	-0.0626593157	 1.3882720395	 0.099396
H	 0.1468416383	-0.3856203499	 2.1287507863	 0.091316
70.5617	123.9586	171.9763	197.3077	219.0347	241.0168	259.8146	305.0893	362.827	424.5586	451.5277	458.3304	539.7842	662.4819	785.7687	827.7916	848.6958	890.4848	918.8496	949.5248	969.212	995.8611	1038.4842	1058.9418	1074.5327	1099.89	1119.3998	1158.7674	1164.358	1172.5714	1229.8919	1250.4641	1255.7966	1282.1648	1318.7564	1329.8068	1369.2595	1370.7052	1382.024	1400.1582	1412.8801	1461.0489	1473.3137	1479.1312	1494.4285	1498.6977	1500.1029	1509.5267	1748.9709	2929.6635	2941.3835	2977.753	2989.0035	2993.7781	3010.8348	3018.1599	3022.5751	3034.9774	3058.3399	3087.762	3094.824	3185.4475	3842.0566
CC1CCC=C(CO)C1	C[C@H]1CCC=C(CO)C1	
InChI=1S/C8H14O/c1-7-3-2-4-8(5-7)6-9/h4,7,9H,2-3,5-6H2,1H3	InChI=1S/C8H14O/c1-7-3-2-4-8(5-7)6-9/h4,7,9H,2-3,5-6H2,1H3/t7-/m0/s1
