17
gdb 72589	2.20049	1.67578	1.48227	3.2077	68.15	-0.2626	-0.0017	0.2608	998.513	0.134312	-458.98207	-458.97346	-458.972516	-459.01511	32.056	
C	 0.1830767012	 1.5536664512	-0.0243849218	-0.476998
C	 0.1132786155	 0.0591923963	 0.074483629	 0.368941
C	 0.6004845053	-0.8850969201	-1.0441190716	-0.272588
C	 1.2888188463	-1.7918706046	 0.0224926947	-0.279378
C	 0.8088682782	-0.8527996963	 1.1606602394	 0.183558
O	 1.769859916	-0.520071051	 2.0971247842	-0.461251
C	-0.6271708589	-1.1214036209	 1.6084065678	 0.374629
O	-1.1735032797	-1.6628943956	 2.5176784416	-0.337495
O	-1.1950397604	-0.4151273175	 0.5794981554	-0.291596
H	 1.2023923661	 1.8648848865	-0.27147748	 0.133904
H	-0.4884141027	 1.9251422705	-0.8056400137	 0.138761
H	-0.1019140769	 2.021718395	 0.9224993056	 0.129552
H	-0.210085027	-1.3382790667	-1.6166859126	 0.122883
H	 1.3064493107	-0.4165975815	-1.7331568885	 0.114056
H	 0.9705072444	-2.8336461833	 0.0886540274	 0.124028
H	 2.3786552414	-1.7579423278	-0.0354333232	 0.128975
H	 1.3358814605	-0.2339701342	 2.9086677162	 0.300019
108.5266	141.7538	172.4946	181.9072	218.0971	302.3016	324.2107	372.738	426.853	564.9367	616.9699	627.1611	718.2402	750.1281	776.0527	843.3602	865.9664	916.878	948.5456	983.4145	1036.5437	1057.6208	1121.7443	1177.0501	1205.1155	1223.8731	1227.8356	1257.9557	1324.0694	1345.2726	1364.9385	1417.2732	1466.4692	1479.4473	1485.4122	1488.1854	1921.578	3038.6397	3074.9729	3080.3873	3108.2994	3117.9932	3126.6623	3142.4134	3805.99
CC12CCC1(O)C(=O)O2	C[C@@]12CC[C@]1(O)C(=O)O2	
InChI=1S/C6H8O3/c1-5-2-3-6(5,8)4(7)9-5/h8H,2-3H2,1H3	InChI=1S/C6H8O3/c1-5-2-3-6(5,8)4(7)9-5/h8H,2-3H2,1H3/t5-,6+/m1/s1
