13
gdb 21078	3.813	1.9824	1.31524	2.1342	67.85	-0.265	-0.0428	0.2222	860.3195	0.097594	-357.680866	-357.673781	-357.672837	-357.713091	24.619	
C	 0.0114930263	 1.4062708665	 0.0044747182	-0.334523
N	-0.0036846345	-0.044842018	 0.0291036197	-0.036801
N	 0.0742333206	-0.7371693933	-1.1101965564	-0.241028
C	 0.093040259	-2.0223031536	-0.7482288258	 0.006592
C	 0.0312537468	-2.1701190262	 0.6441988858	-0.314791
C	-0.0286411163	-0.8680983703	 1.1223200753	 0.295471
C	-0.1100344939	-0.3739829045	 2.4444630916	 0.220957
N	-0.1781608809	 0.0459928111	 3.5221326214	-0.35005
H	 1.0320880289	 1.7790947725	-0.1226755818	 0.15674
H	-0.6014914803	 1.745007964	-0.8311355406	 0.165456
H	-0.3961321324	 1.7845465585	 0.9426310277	 0.168165
H	 0.1445743612	-2.79061751	-1.5046513949	 0.129798
H	 0.0210696055	-3.0724845166	 1.2321875897	 0.134015
40.6925	152.8098	162.2875	215.4685	365.178	505.008	546.6818	596.4086	662.6033	689.0243	736.4013	814.7171	900.4223	944.4687	1047.0544	1069.5408	1149.4982	1179.0529	1234.7311	1325.6082	1354.384	1426.3563	1455.7669	1475.7045	1485.4312	1511.5845	1553.2279	2343.744	3056.0753	3133.1719	3166.2807	3255.3723	3284.1315
CN1N=CC=C1C#N	Cn1nccc1C#N	
InChI=1S/C5H5N3/c1-8-5(4-6)2-3-7-8/h2-3H,1H3	InChI=1S/C5H5N3/c1-8-5(4-6)2-3-7-8/h2-3H,1H3
