20
gdb 58339	1.95253	1.42624	0.92107	1.1978	76.51	-0.2544	-0.0464	0.208	1310.0713	0.168379	-440.338066	-440.327692	-440.326748	-440.373626	37.561	
C	 0.0909420235	 1.5730042958	 0.0456738146	-0.408932
C	 0.078557648	 0.0359631313	 0.0793832612	 0.023258
C	 0.81532755	-0.4685411655	 1.3282350874	-0.404452
C	-1.3628799644	-0.5002529728	 0.0151669951	-0.170615
C	-2.1513855384	 0.0224239455	-1.1791979142	 0.141439
O	-3.3574252133	 0.0255533681	-1.2343821277	-0.263445
C	-1.4399987825	-2.0492475203	-0.0716496695	 0.372976
N	-2.6893447136	-2.5400722236	 0.1710339737	-0.51053
O	-0.4766117597	-2.7444831775	-0.3188575404	-0.345717
H	 1.1194721906	 1.9461292995	 0.0609216987	 0.121429
H	-0.3927865018	 1.9840686968	-0.8465220138	 0.112578
H	-0.4236450994	 1.9866961425	 0.9211574163	 0.117898
H	 0.6060518318	-0.3466271879	-0.8032572591	 0.096572
H	 0.3090133724	-0.1320970347	 2.2414705563	 0.10605
H	 0.8734835968	-1.5572708405	 1.3406435021	 0.147647
H	 1.8344683847	-0.0696796194	 1.3533601909	 0.111233
H	-1.9251828825	-0.2002756973	 0.9084579584	 0.115274
H	-1.5407986917	 0.3662331519	-2.0408843325	 0.102722
H	-3.4795803571	-1.9172847612	 0.0854085495	 0.272744
H	-2.8385753933	-3.5157947206	-0.0367054572	 0.261872
65.0651	75.6869	99.7375	189.8737	204.4455	225.3225	262.7152	274.1005	332.1658	371.94	419.5902	448.2009	500.0464	530.3029	577.7714	616.8149	728.2069	793.2542	873.0783	931.4004	959.2963	969.0207	1022.4363	1058.5295	1106.1991	1153.1896	1169.2735	1199.51	1218.3098	1271.1124	1326.9291	1335.0046	1384.4118	1399.3353	1418.1664	1423.4901	1487.2817	1495.2204	1506.007	1518.0167	1627.8809	1798.3279	1809.9699	2908.4473	3026.6783	3028.482	3032.5689	3044.8601	3089.9985	3094.8252	3104.9088	3148.711	3561.9941	3691.8885
CC(C)C(C=O)C(N)=O	CC(C)[C@@H](C=O)C(=O)N	
InChI=1S/C6H11NO2/c1-4(2)5(3-8)6(7)9/h3-5H,1-2H3,(H2,7,9)	InChI=1S/C6H11NO2/c1-4(2)5(3-8)6(7)9/h3-5H,1-2H3,(H2,7,9)/t5-/m1/s1
