15
gdb 67083	2.76042	1.58187	1.34951	1.1002	72.34	-0.2357	0.0126	0.2484	979.1314	0.110851	-420.511992	-420.504462	-420.503518	-420.543706	29.947	
O	-0.2114931737	 1.4501323103	 0.0595250385	-0.434658
C	-0.0304412898	 0.1032632125	 0.0170159492	 0.268511
C	-1.0462134973	-1.0086240437	-0.0349259036	-0.178872
C	-0.4450782747	-1.6129800441	-1.2971622535	-0.264494
C	 0.8798888861	-0.9112542878	-0.871170585	 0.238114
O	 1.2537703347	-1.6169077014	 0.3515183811	-0.319298
C	 0.1367650845	-1.0130053316	 0.9886633933	-0.009155
C	 1.9477586164	-0.6118439786	-1.7698943868	 0.077595
C	 2.8242942186	-0.3186644638	-2.5395084185	-0.318961
H	 0.5763250618	 1.8563700815	 0.4414117928	 0.301024
H	-2.0775021533	-0.9827465656	 0.2908792702	 0.103567
H	-0.3802929867	-2.7003873383	-1.3919681082	 0.109511
H	-0.8608100516	-1.1635163722	-2.2010411638	 0.120878
H	 0.0220586729	-1.1024958856	 2.0601013019	 0.117801
H	 3.6027825122	-0.0724190915	-3.2188009175	 0.188437
113.3961	155.5583	259.1614	298.4386	389.1792	429.2342	497.6896	529.5184	545.0141	568.0102	616.7357	659.9188	680.0811	744.7052	770.3258	849.4025	886.2305	933.8083	966.8676	968.1603	1025.9982	1035.5701	1053.4394	1095.2326	1129.4695	1210.624	1245.8905	1264.8904	1296.0126	1325.4618	1473.1869	1500.5082	2237.0485	3062.1238	3130.6261	3210.645	3221.8489	3500.4151	3777.6644
OC12C3CC1(OC23)C#C	O[C@@]12[C@H]3C[C@@]1(O[C@@H]23)C#C	
InChI=1S/C7H6O2/c1-2-6-3-4-5(9-6)7(4,6)8/h1,4-5,8H,3H2	InChI=1S/C7H6O2/c1-2-6-3-4-5(9-6)7(4,6)8/h1,4-5,8H,3H2/t4-,5+,6-,7+/m0/s1
