18
gdb 124640	4.34764	0.93675	0.85665	1.7813	74.46	-0.2269	-0.0082	0.2186	1384.4317	0.147896	-435.276002	-435.267172	-435.266227	-435.3101	32.22	
C	 0.0045889515	 1.5375497559	 0.0705332976	-0.387797
C	 0.015952198	 0.005240289	-0.0257525206	 0.062857
C	 0.7622304608	-0.491767158	-1.2641214232	-0.403422
N	 0.6013173923	-0.6243504394	 1.1591131902	-0.386041
C	-0.0433331121	-0.6526711379	 2.3530024798	 0.470568
N	-1.3181179791	-0.3556633054	 2.5161608347	-0.234664
O	-1.5157810203	-0.5992539433	 3.8994594104	-0.164653
C	-0.3415891144	-0.9905601217	 4.3761016842	 0.120046
N	 0.614050368	-1.0501465828	 3.5072415835	-0.339127
H	 1.0263637037	 1.9320041365	 0.1119552079	 0.107784
H	-0.4921309435	 1.9739876571	-0.8019477867	 0.116506
H	-0.5318964324	 1.8615611069	 0.9655664506	 0.141802
H	-1.0208702314	-0.345885921	-0.070514416	 0.118897
H	 1.8134539025	-0.1785006502	-1.2385454674	 0.113423
H	 0.7319317952	-1.5826681707	-1.3294851551	 0.127591
H	 0.3172990347	-0.0751419073	-2.1717143217	 0.124762
H	 1.6074668994	-0.635404284	 1.232801329	 0.250257
H	-0.2900302529	-1.2211654938	 5.430764363	 0.161212
61.5543	77.6022	137.983	228.4978	260.0456	297.1366	318.5398	392.2469	433.6344	466.6815	494.7315	603.3872	772.7375	776.5568	851.0504	910.0674	911.5781	933.2483	950.6572	964.8042	987.8397	1051.3843	1148.6202	1168.4602	1182.0346	1197.0279	1282.6934	1322.4633	1358.0542	1394.8344	1399.1464	1420.4979	1484.6938	1486.3373	1488.5928	1507.3605	1511.1508	1591.5469	1640.8607	3028.8597	3033.4909	3054.3168	3097.673	3106.034	3124.8414	3126.8133	3258.702	3621.6531
CC(C)NC1=NOC=N1	CC(C)Nc1nocn1	
InChI=1S/C5H9N3O/c1-4(2)7-5-6-3-9-8-5/h3-4H,1-2H3,(H,7,8)	InChI=1S/C5H9N3O/c1-4(2)7-5-6-3-9-8-5/h3-4H,1-2H3,(H,7,8)
