17
gdb 126987	3.18647	1.10846	0.83317	3.4026	73.11	-0.1998	0.012	0.2118	1360.7051	0.135448	-455.125734	-455.116531	-455.115587	-455.160853	32.281	
C	 0.0056876148	 1.4747778435	 0.0456014281	-0.391318
C	 0.0213458108	-0.0399441915	 0.000108067	-0.057877
O	 0.6692066476	-0.4999831881	 1.2035739929	-0.287257
C	 0.8122739039	-1.8149766989	 1.3601880244	 0.495583
C	 1.4689034305	-2.4948312818	 2.3499920555	-0.033958
N	 2.2175509449	-1.9904243713	 3.4367599363	-0.619896
C	 1.284976369	-3.8444330358	 1.9561289606	 0.027573
N	 0.583092857	-3.9781945437	 0.8540671061	-0.175778
O	 0.2922782257	-2.655454303	 0.4558463391	-0.228808
H	 1.0230196862	 1.8730518512	 0.0892642378	 0.133669
H	-0.4810444474	 1.8653146721	-0.8526404223	 0.128528
H	-0.5446971346	 1.8315929197	 0.920424736	 0.133447
H	-0.991643899	-0.4545052552	-0.0416303964	 0.128111
H	 0.5738989275	-0.4143148305	-0.8686541213	 0.127605
H	 2.3108582669	-0.9836185072	 3.3648101411	 0.245949
H	 1.7774483387	-2.1934157701	 4.3286577216	 0.244622
H	 1.6443689475	-4.7341474995	 2.4555341635	 0.129805
47.9615	64.6408	127.5877	132.4216	244.1072	265.6746	277.3091	335.1181	345.5032	528.3787	626.0746	654.0132	697.8606	766.1062	815.1423	833.8344	899.8857	911.3629	915.7698	953.2038	1055.5265	1122.6154	1131.0404	1180.1935	1213.8458	1256.8766	1295.9778	1341.5945	1396.1226	1420.334	1441.1524	1484.101	1498.6234	1516.8046	1543.0053	1654.7981	1710.5742	3039.5527	3049.2857	3080.5653	3125.4442	3129.0037	3235.8735	3501.3867	3588.4482
CCOC1=C(N)C=NO1	CCOc1c(N)cno1	
InChI=1S/C5H8N2O2/c1-2-8-5-4(6)3-7-9-5/h3H,2,6H2,1H3	InChI=1S/C5H8N2O2/c1-2-8-5-4(6)3-7-9-5/h3H,2,6H2,1H3
