17
gdb 123882	5.07088	1.08046	0.91768	3.3325	75.91	-0.212	0.0059	0.2179	1241.413	0.137935	-417.979391	-417.971867	-417.970923	-418.01209	27.911	
C	-0.1433776193	 1.5556333034	 0.0440601094	-0.236687
C	 1.3924115562	 1.5361944596	-0.1803732564	-0.160982
N	 1.4086740004	 0.1487624894	 0.3126633362	-0.149104
C	-0.0574153032	 0.0203375783	 0.2623016021	-0.174488
C	 2.2996096295	-0.802329321	-0.102997502	 0.449817
N	 3.451119748	-0.4649520058	-0.6554137654	-0.245526
O	 4.1100961886	-1.6798879624	-0.9007392583	-0.173565
C	 3.3255807704	-2.6853458749	-0.5011448018	 0.096503
C	 2.162299411	-2.2234256876	 0.0158367801	-0.359216
H	-0.4462260077	 2.1031911808	 0.9375979894	 0.118463
H	-0.748337143	 1.8838088175	-0.8008375548	 0.115695
H	 1.6966619905	 1.6154393275	-1.2314353226	 0.119483
H	 1.9960988301	 2.2293325793	 0.4121476975	 0.118735
H	-0.5086642845	-0.3780451859	 1.1770640938	 0.111642
H	-0.4142295517	-0.5672806481	-0.5945819528	 0.106533
H	 3.7243637084	-3.6785743542	-0.6434153097	 0.146601
H	 1.3408470163	-2.7859226461	 0.4258418253	 0.116098
88.6966	93.9433	159.822	176.8895	346.0778	445.712	492.1865	587.7994	723.5459	750.6162	776.7279	847.4679	864.6659	871.5026	910.7123	928.9658	939.9739	941.7728	995.1919	1061.8693	1121.952	1136.7206	1140.8848	1165.2196	1175.5361	1203.3941	1229.2193	1269.7485	1296.3817	1340.1267	1355.8782	1442.4099	1490.4178	1511.18	1531.7618	1543.3738	1626.8082	3006.3363	3028.8078	3062.4901	3082.3639	3093.0997	3147.8115	3254.7099	3285.4854
C1CN(C1)C1=NOC=C1	C1CN(C1)c1nocc1	
InChI=1S/C6H8N2O/c1-3-8(4-1)6-2-5-9-7-6/h2,5H,1,3-4H2	InChI=1S/C6H8N2O/c1-3-8(4-1)6-2-5-9-7-6/h2,5H,1,3-4H2
