20
gdb 98759	3.77853	0.99143	0.96124	2.5833	78.52	-0.2311	-0.0165	0.2145	1336.8277	0.170183	-403.121569	-403.112499	-403.111555	-403.156582	33.132	
C	-0.1603754433	 1.5492852394	-0.4756542914	-0.377774
C	-0.2687366071	 0.0282685499	-0.4093817928	-0.282872
C	-1.4009124451	-0.4691551813	 0.4779386205	 0.372603
O	-2.0660559763	 0.2822138836	 1.1580458057	-0.312763
C	-1.681921875	-1.9605276315	 0.4311161571	-0.10593
C	-2.7178463118	-2.5686543811	 1.4067426953	-0.190665
N	-3.5765850818	-3.0923720924	 0.279327194	-0.124261
C	-4.0050377298	-1.9004914479	-0.474351678	-0.236608
C	-2.6367583234	-2.4120717005	-0.6930228945	-0.052831
H	 0.6832933351	 1.851033648	-1.1024476261	 0.110801
H	-1.0722174041	 1.9878097182	-0.8897358535	 0.129522
H	-0.0222018683	 1.9720107399	 0.5223013489	 0.13502
H	-0.401016953	-0.4103498321	-1.4082476005	 0.123177
H	 0.6609785252	-0.4181184748	-0.0272756654	 0.124341
H	-0.7461514854	-2.5246224077	 0.4014548783	 0.089373
H	-2.3295450014	-3.3986481167	 1.998631393	 0.112488
H	-3.226461584	-1.8518153907	 2.0556243534	 0.127911
H	-4.7442404208	-2.1280336628	-1.2360186211	 0.121828
H	-4.1582540239	-0.9638424819	 0.0557001791	 0.13861
H	-2.3238376159	-2.8872390275	-1.617403302	 0.098031
36.4159	60.4672	129.371	162.0593	200.1888	270.7677	342.6657	370.2842	464.1	556.1955	636.3442	720.1469	755.3687	771.7219	795.5129	820.3201	930.7032	961.1458	975.7451	979.3454	1011.8187	1041.4743	1064.4407	1089.775	1099.5938	1120.8769	1129.3532	1146.4417	1198.3084	1207.2266	1238.6118	1278.2981	1293.0046	1342.3111	1359.1105	1384.6812	1413.6457	1449.0434	1487.0899	1492.9427	1498.2699	1505.4871	1794.9275	3011.9188	3039.5477	3051.8846	3071.523	3077.6871	3114.0156	3121.8074	3129.7282	3133.4364	3157.6981	3206.6719
CCC(=O)C1CN2CC12	CCC(=O)[C@H]1CN2C[C@@H]12	
InChI=1S/C7H11NO/c1-2-7(9)5-3-8-4-6(5)8/h5-6H,2-4H2,1H3	InChI=1S/C7H11NO/c1-2-7(9)5-3-8-4-6(5)8/h5-6H,2-4H2,1H3/t5-,6-,8?/m0/s1
