18
gdb 47837	2.29738	1.8673	1.20746	1.5512	75.71	-0.241	-0.005	0.236	1042.5945	0.150284	-435.272663	-435.264772	-435.263827	-435.304925	30.618	
N	-0.0190053158	 0.8873582799	 0.8623720406	-0.527041
C	 0.0968183192	-0.0854444212	 0.0564371386	 0.414158
N	 1.2385060749	-0.4721180455	-0.6516405025	-0.351885
C	 1.4773243082	-1.7592071404	-1.15013699	 0.077477
N	 1.1793635246	-2.8797900315	-0.6405738132	-0.203892
C	 0.6073825007	-3.0032496614	 0.6955846918	-0.164005
C	-0.9364075731	-3.0424768507	 0.7224005879	-0.192155
C	-1.5585855658	-1.6500678891	 0.7483199473	-0.087531
O	-0.959344196	-0.8563170004	-0.2869453244	-0.223301
H	 0.883135804	 1.3241864479	 1.0439064176	 0.214106
H	 1.8680500607	 0.2615102311	-0.937679751	 0.255225
H	 2.0119623862	-1.7506218857	-2.1025620149	 0.111799
H	 0.9802597307	-3.9517723999	 1.0947993324	 0.107562
H	 0.9643892746	-2.2101872809	 1.3722347649	 0.102166
H	-1.2853691789	-3.5975199191	-0.154505387	 0.120392
H	-1.2704649539	-3.5906616761	 1.610898424	 0.101928
H	-2.630091872	-1.6810930812	 0.5352269576	 0.116813
H	-1.4100489584	-1.148866646	 1.7103705303	 0.128184
98.6049	156.8811	236.9168	268.9	315.2046	324.5041	407.0674	442.3896	506.7414	558.1475	606.4018	710.8657	804.6796	827.5564	843.204	873.0704	894.7376	919.2814	939.5679	999.3529	1046.3015	1060.0575	1100.7071	1147.6215	1159.9416	1246.4978	1267.6828	1300.1465	1312.9215	1375.8883	1380.6671	1406.2091	1439.1966	1461.7758	1471.6024	1505.2475	1511.3344	1729.6099	1743.1444	2977.778	3039.6831	3054.6929	3063.4517	3087.7986	3102.3691	3112.4024	3501.8968	3626.3196
N=C1NC=NCCCO1	[NH][C]1NC=NCCCO1	
InChI=1S/C5H9N3O/c6-5-8-4-7-2-1-3-9-5/h4H,1-3H2,(H2,6,7,8)	InChI=1S/C5H9N3O/c6-5-8-4-7-2-1-3-9-5/h4H,1-3H2,(H2,6,7,8)
