21
gdb 91091	2.76893	1.56426	1.43812	1.7062	80.46	-0.2417	0.0741	0.3158	1036.8896	0.18494	-387.076181	-387.068603	-387.067659	-387.107986	31.023	
C	 0.2594838406	 1.5301990273	-0.2890215479	-0.411913
C	 0.0959933222	 0.05968271	 0.0367275869	 0.15687
O	 0.7609881112	-0.8143144337	-0.9095639979	-0.312571
C	 1.3460450025	-1.6078841657	 0.1579001041	 0.11257
C	 2.8630680231	-1.6391393294	 0.205877778	-0.050802
C	 3.5704926601	-0.3894696713	-0.2560074329	-0.285857
C	 3.3134244049	-0.5910472687	 1.2109547382	-0.027626
C	 2.0872992359	 0.0578879291	 1.8589968932	-0.260555
C	 0.8385514021	-0.6038822059	 1.2267975913	-0.099895
H	 1.3086102975	 1.8371245174	-0.2968008153	 0.123785
H	-0.16176609	 1.7381793792	-1.2778206495	 0.127249
H	-0.2753105593	 2.1452474977	 0.4432567842	 0.114697
H	-0.9769102362	-0.1825416352	 0.0672566341	 0.06973
H	 0.9133269921	-2.614387321	 0.1732161397	 0.069146
H	 3.366001608	-2.5950721251	 0.1174899326	 0.079474
H	 4.5931746479	-0.4974938564	-0.6006038877	 0.106735
H	 2.9829613375	 0.3287137142	-0.8151369591	 0.12847
H	 4.1717711439	-0.7811977943	 1.8464446463	 0.081233
H	 2.1014469103	-0.1388008117	 2.9356047297	 0.100739
H	 2.0850516417	 1.1473422863	 1.7454644135	 0.104992
H	 0.1689742641	-1.0026823327	 1.9905313084	 0.073529
99.0121	194.7768	213.3715	275.2873	350.5856	372.2225	492.5783	515.1224	624.8249	651.3901	729.3086	790.3563	802.9758	828.3402	849.8576	897.363	904.7056	936.452	966.5271	982.7522	1001.8308	1033.6695	1060.4548	1063.7602	1102.2126	1106.3958	1115.5883	1129.9524	1159.9194	1197.5748	1206.5671	1236.2143	1253.3004	1299.18	1322.1204	1330.6542	1343.6632	1361.9976	1385.7351	1403.0522	1415.6414	1481.39	1484.7649	1497.584	1506.6568	2982.7317	3036.4864	3039.4668	3044.4378	3073.8778	3094.6393	3103.9036	3119.189	3140.903	3160.737	3176.1625	3229.0546
CC1OC2C3CC3CC12	C[C@H]1O[C@H]2[C@H]3C[C@H]3C[C@@H]12	
InChI=1S/C8H12O/c1-4-6-2-5-3-7(5)8(6)9-4/h4-8H,2-3H2,1H3	InChI=1S/C8H12O/c1-4-6-2-5-3-7(5)8(6)9-4/h4-8H,2-3H2,1H3/t4-,5-,6+,7+,8-/m1/s1
