17
gdb 124812	2.54179	1.36868	1.00842	3.2639	69.79	-0.2805	-0.0425	0.2379	1189.8471	0.134186	-455.114558	-455.105421	-455.104477	-455.148971	32.585	
C	-0.2339216756	 1.4741871844	 0.075558055	-0.397365
C	 0.0783491899	-0.0124062604	-0.1612721448	 0.023686
O	 0.8868465828	-0.1939593253	-1.3058880398	-0.423289
C	 0.7013763511	-0.6338741071	 1.0624376774	 0.266351
N	 1.9887533571	-0.8210229668	 1.1375070273	-0.167348
O	 2.2259270729	-1.3627875453	 2.3688084869	-0.160778
N	 1.0614628343	-1.5160075206	 3.0658977513	-0.133313
C	 0.1074937544	-1.0747855658	 2.2897347526	 0.256727
C	-1.3264865426	-1.0870078162	 2.7027007103	-0.505751
H	 0.6865260634	 2.0225506879	 0.2985927209	 0.129317
H	-0.6833922893	 1.8948666539	-0.8271507243	 0.135478
H	-0.928611764	 1.6143491705	 0.9104647582	 0.117065
H	-0.8622657312	-0.5383332376	-0.3705425396	 0.101538
H	 1.8083653469	-0.1041637774	-1.0351213685	 0.300298
H	-1.7294088485	-0.0709001401	 2.7645512518	 0.148336
H	-1.9365703429	-1.638829235	 1.9802201379	 0.147941
H	-1.4289634887	-1.5603721691	 3.6804255073	 0.161106
45.1107	127.396	151.8288	173.111	241.4931	251.2231	273.8209	310.0644	369.151	465.5429	512.368	634.7738	642.3663	735.3899	756.3193	906.6309	930.276	944.8247	1009.001	1039.4475	1069.052	1075.5167	1094.7416	1122.1233	1215.0336	1296.3895	1348.351	1399.5398	1408.6966	1423.8318	1444.6959	1480.8392	1481.4765	1488.6655	1495.2789	1521.2832	1624.8808	3026.7956	3038.3884	3044.7602	3100.5095	3111.0216	3130.2185	3145.4168	3793.3197
CC(O)C1=NON=C1C	C[C@@H](O)c1nonc1C	
InChI=1S/C5H8N2O2/c1-3-5(4(2)8)7-9-6-3/h4,8H,1-2H3	InChI=1S/C5H8N2O2/c1-3-5(4(2)8)7-9-6-3/h4,8H,1-2H3/t4-/m1/s1
