18
gdb 84763	2.25716	1.52027	1.24199	5.0519	76.74	-0.2661	-0.0085	0.2576	1085.6503	0.147772	-401.973706	-401.965057	-401.964113	-402.006847	33.045	
C	 0.3581172852	 1.4058551458	-0.0796442586	-0.44258
C	-0.0103846301	-0.0901291004	-0.0219146353	 0.095346
C	 0.6147819826	-0.8532691026	-1.2379346047	-0.295904
C	 1.8591612363	-1.4761839651	-0.659582153	-0.065548
C	 1.8740002269	-1.4455425361	 0.6699503594	-0.126313
C	 0.6455977299	-0.7876120825	 1.2481809415	 0.069416
O	 0.8906968982	 0.0739624465	 2.3393386454	-0.418659
C	-1.4667699559	-0.2292003546	 0.0048891392	 0.249764
N	-2.6169974147	-0.3459095358	 0.0253277936	-0.351201
H	 1.4441360433	 1.5175789686	-0.1648203091	 0.117452
H	-0.1004873867	 1.8747530208	-0.9535333547	 0.137136
H	 0.0168377428	 1.9261819792	 0.8166138845	 0.149336
H	-0.0679104662	-1.623905624	-1.615289021	 0.137112
H	 0.8165559434	-0.1780777246	-2.0766726227	 0.118589
H	 2.618350734	-1.9305468836	-1.2863876768	 0.109813
H	 2.6374225434	-1.8656576079	 1.3148451507	 0.111056
H	-0.0488918043	-1.5366848024	 1.6455396038	 0.121215
H	 1.646717012	 0.6296883785	 2.1208258279	 0.283969
64.9407	151.1723	188.9438	268.7441	278.7626	298.3195	359.7467	386.8482	409.502	497.7717	549.402	576.6144	595.9723	708.8691	748.6703	800.72	914.4919	938.3694	946.1512	975.6058	984.7013	1017.3994	1079.4051	1112.5163	1141.2256	1147.4268	1180.2988	1240.0229	1259.5814	1310.0542	1338.4615	1360.9198	1406.2055	1430.6746	1486.618	1497.6737	1505.1682	1691.0061	2351.3088	3035.7641	3044.4882	3045.4847	3069.3522	3117.5963	3144.5005	3188.2313	3212.7335	3806.0774
CC1(CC=CC1O)C#N	C[C@]1(CC=C[C@H]1O)C#N	
InChI=1S/C7H9NO/c1-7(5-8)4-2-3-6(7)9/h2-3,6,9H,4H2,1H3	InChI=1S/C7H9NO/c1-7(5-8)4-2-3-6(7)9/h2-3,6,9H,4H2,1H3/t6-,7+/m1/s1
