19
gdb 125884	3.55099	1.23984	1.08188	2.1394	81.33	-0.2363	0.0228	0.2591	1173.9687	0.161231	-382.078657	-382.070533	-382.069589	-382.111941	30.749	
C	-0.2436350857	 1.5097741405	-0.0419894229	-0.405107
C	-0.0240018107	 0.0167168466	 0.0405809781	 0.011765
C	 1.328042854	-0.5818568748	-0.2686023118	-0.323629
C	 0.8020277545	-0.5993493358	 1.143589891	 0.029504
N	 1.4153780862	 0.2371169878	 2.1306649124	 0.05502
C	 2.7404013204	 0.4584178289	 2.3374494535	-0.029313
C	 2.8462605662	 1.2522745425	 3.4590783719	-0.239166
C	 1.5123214482	 1.4520581674	 3.8704753674	-0.001063
N	 0.6477480125	 0.8349434016	 3.0706071321	-0.263963
H	 0.6554623929	 2.0615179228	 0.2449085199	 0.126484
H	-0.5073918849	 1.8026791869	-1.0636997816	 0.114343
H	-1.0496010429	 1.8241496861	 0.6273310102	 0.137087
H	-0.8823139564	-0.5829885574	-0.249599803	 0.092356
H	 1.3933299077	-1.5270495294	-0.7951999339	 0.119926
H	 2.1302634828	 0.1131939646	-0.4921802839	 0.122285
H	 0.4626603396	-1.5502967078	 1.5432252614	 0.111238
H	 3.4849400072	 0.0363271795	 1.682119004	 0.130042
H	 3.7501769407	 1.6310354447	 3.9076059621	 0.102635
H	 1.1462551877	 2.0211187153	 4.712853503	 0.109555
54.4214	101.0874	160.2675	207.9478	258.1369	355.167	421.729	536.7349	623.773	658.5736	702.713	767.8122	791.6663	835.3555	843.0076	890.6568	891.6005	931.6652	937.1292	983.4736	1032.5553	1071.4998	1077.0906	1088.7985	1108.2776	1134.0719	1151.0378	1195.6974	1215.798	1230.0016	1290.1307	1351.2031	1388.9241	1415.5441	1421.9992	1432.3494	1477.1583	1486.405	1491.6065	1499.4186	1559.1403	3039.8776	3105.5416	3117.022	3137.9622	3142.0698	3151.9971	3224.5416	3240.3236	3261.4177	3279.6914
CC1CC1N1C=CC=N1	C[C@H]1C[C@H]1n1cccn1	
InChI=1S/C7H10N2/c1-6-5-7(6)9-4-2-3-8-9/h2-4,6-7H,5H2,1H3	InChI=1S/C7H10N2/c1-6-5-7(6)9-4-2-3-8-9/h2-4,6-7H,5H2,1H3/t6-,7+/m0/s1
