17
gdb 102260	2.62221	1.00216	0.83765	4.0797	70.23	-0.264	0.0121	0.2761	1391.1255	0.133881	-455.179761	-455.169513	-455.168569	-455.216229	35.009	
C	 0.237430486	 1.2837155489	 0.2354607189	-0.251189
O	 0.1035789526	-0.0899426381	-0.092390509	-0.236554
C	-1.2238965813	-0.559936814	-0.0565492463	-0.011474
C	-1.2470582403	-1.912420299	-0.7682027566	-0.338846
C	-1.0834661412	-1.6951669538	-2.2757497056	 0.427527
N	-0.3840825982	-2.6646986325	-2.9248531729	-0.524664
O	-1.5905040833	-0.748632093	-2.8449822287	-0.360071
C	-1.7142837066	-0.6723970062	 1.3360558375	 0.271886
N	-2.085518406	-0.7479971517	 2.4277664365	-0.325489
H	 1.2980283974	 1.524765289	 0.1443924248	 0.137375
H	-0.33824776	 1.9141822104	-0.4562135379	 0.125425
H	-0.0899756672	 1.4872554648	 1.2639516927	 0.132039
H	-1.8926929131	 0.1181065561	-0.6069439842	 0.142576
H	-0.4684407221	-2.5561556506	-0.3496163051	 0.126498
H	-2.2128601047	-2.4005039905	-0.6003133633	 0.153927
H	 0.140125656	-3.3655011865	-2.431262464	 0.26433
H	-0.222070638	-2.5495529032	-3.912486357	 0.266703
42.0689	63.6148	86.6247	128.3668	170.6397	227.5412	245.9101	273.1159	300.7197	379.9744	439.3646	507.3207	579.8371	601.112	602.6303	681.3584	848.4103	868.5968	942.0939	1034.7734	1069.0056	1105.1341	1148.6707	1183.4268	1194.4359	1245.4456	1273.0231	1331.5855	1373.3936	1406.7508	1450.9298	1481.4982	1488.6389	1506.4322	1620.7986	1799.8577	2353.3554	2998.9678	3012.9449	3058.6645	3059.5562	3109.7289	3133.3226	3600.835	3736.5527
COC(CC(N)=O)C#N	CO[C@@H](CC(=O)N)C#N	
InChI=1S/C5H8N2O2/c1-9-4(3-6)2-5(7)8/h4H,2H2,1H3,(H2,7,8)	InChI=1S/C5H8N2O2/c1-9-4(3-6)2-5(7)8/h4H,2H2,1H3,(H2,7,8)/t4-/m0/s1
