15
gdb 14645	7.56283	0.66972	0.62243	4.7561	72.6	-0.26	-0.0021	0.2578	1715.9753	0.115957	-362.629996	-362.620516	-362.619571	-362.666514	30.43	
C	-0.0422201223	 1.4542786948	 0.0104324961	-0.499293
C	-0.0388504814	-0.0005064929	 0.0025690829	 0.15035
C	-0.0419962469	-1.2033938177	-0.0038710935	 0.000188
C	-0.0193301893	-2.6553626103	-0.0118831321	-0.210325
O	-1.3531888282	-3.1592731831	-0.0018150821	-0.234015
C	-1.3748187569	-4.5644190731	-0.009042744	-0.175523
C	-2.7660050504	-5.0241651274	 0.0017370066	 0.269554
N	-3.8501868258	-5.4203889116	 0.0098041456	-0.290897
H	 0.9799422202	 1.8480432717	 0.0025472758	 0.153659
H	-0.5599624954	 1.8545496588	-0.8676718065	 0.155697
H	-0.5426381538	 1.8450247711	 0.9027554448	 0.155695
H	 0.5128902182	-3.0253393353	-0.9047829008	 0.122405
H	 0.5298496364	-3.0348442513	 0.8666420338	 0.122402
H	-0.8765636708	-4.9762347974	-0.902828342	 0.140054
H	-0.8597598636	-4.9855983663	 0.8707366655	 0.14005
22.5225	66.319	74.7334	84.6947	170.4873	209.6537	312.457	335.8403	375.8678	386.5868	461.1188	592.6318	789.361	956.9798	1013.9652	1020.2226	1051.2838	1051.9147	1053.4426	1132.0674	1184.8923	1247.5299	1258.0055	1375.6261	1413.881	1444.3387	1474.5338	1478.2102	1490.5589	1508.1401	2374.9145	2382.3267	2953.0549	2965.8881	2973.5514	2989.2803	3031.7488	3094.5835	3095.8695
CC#CCOCC#N	CC#CCOCC#N	
InChI=1S/C6H7NO/c1-2-3-5-8-6-4-7/h5-6H2,1H3	InChI=1S/C6H7NO/c1-2-3-5-8-6-4-7/h5-6H2,1H3
