17
gdb 56689	2.54568	1.27715	1.14874	2.5527	68.06	-0.2612	0.0001	0.2613	1125.8141	0.13513	-455.113456	-455.104195	-455.103251	-455.147661	33.447	
N	-0.113093456	 1.5749466426	-0.0858384004	-0.575338
C	-0.0468982095	 0.1313004798	-0.0024056475	 0.233742
C	 0.183715558	-0.4650822008	 1.4060702783	-0.098741
O	-0.968480323	-1.3221369069	 1.2624388801	-0.273759
C	-1.4077992197	-0.5918289891	 0.0987066342	-0.112968
C	 0.8518410253	-0.5432193174	-1.07067917	-0.058321
O	 0.4025060682	-0.293041965	-2.3875911901	-0.415355
C	 2.252939138	-0.1092568334	-0.8913313464	 0.243157
N	 3.3243027931	 0.2976843822	-0.7397514793	-0.317488
H	 0.8117841356	 1.9970312686	-0.0674446864	 0.246611
H	-0.5838561923	 1.8775337584	-0.9330196876	 0.231702
H	 1.1051008101	-1.0336369272	 1.5749560541	 0.114928
H	 0.0541845665	 0.2801410138	 2.1995134444	 0.114876
H	-2.2315441053	 0.0953961308	 0.3276570251	 0.108522
H	-1.6873496486	-1.2497075716	-0.7300620606	 0.120046
H	 0.8041141074	-1.6291694518	-0.9380769144	 0.151058
H	 0.531141002	 0.6444668768	-2.5740268933	 0.287328
76.1506	97.9814	130.2032	204.7992	220.8776	237.3793	320.9942	337.4972	375.808	405.8339	502.9613	534.0207	607.1953	758.5724	793.9932	837.4399	888.5225	948.2258	950.5289	998.7936	1018.5379	1027.9505	1086.4987	1155.0113	1161.5374	1188.4441	1248.8001	1277.5979	1303.0197	1308.1496	1332.0031	1387.9261	1419.1573	1505.3425	1530.778	1649.3904	2349.1981	3020.4092	3029.921	3069.9459	3079.4232	3085.5266	3484.0612	3574.3327	3794.6838
NC1(COC1)C(O)C#N	NC1(COC1)[C@@H](O)C#N	
InChI=1S/C5H8N2O2/c6-1-4(8)5(7)2-9-3-5/h4,8H,2-3,7H2	InChI=1S/C5H8N2O2/c6-1-4(8)5(7)2-9-3-5/h4,8H,2-3,7H2/t4-/m0/s1
