19
gdb 99815	1.97857	1.46237	1.10119	0.6245	76.04	-0.263	0.0144	0.2775	1200.055	0.157481	-419.268133	-419.257682	-419.256738	-419.303858	37.568	
C	 0.1120930532	 1.4840067982	 0.2158280079	-0.414313
C	 0.154611038	-0.0255295006	-0.0266505448	-0.186267
C	 0.6544937653	-0.4579687666	-1.4393191426	-0.051714
C	-0.2571397239	 0.0763191642	-2.5683772546	-0.413881
C	 2.0259687504	 0.0204707074	-1.6433239483	 0.296838
N	 3.1192121926	 0.36599159	-1.7998212785	-0.365796
C	 0.5832985333	-2.0158500347	-1.4787140491	 0.444592
N	 1.7550952254	-2.6820352694	-1.6073962754	-0.553839
O	-0.4961305999	-2.5638724336	-1.3799928466	-0.374341
H	 1.0941285479	 1.9435933777	 0.0650606747	 0.139562
H	-0.60332926	 1.9868077521	-0.4407763706	 0.125808
H	-0.1942468153	 1.6842714519	 1.2466445254	 0.125728
H	 0.8035681341	-0.4968843942	 0.7201493042	 0.115173
H	-0.8371643591	-0.470434246	 0.0914814297	 0.135202
H	-0.2934371345	 1.1669641535	-2.5616125924	 0.134363
H	 0.1073433516	-0.2466763704	-3.5470099759	 0.136108
H	-1.2603222488	-0.3273194274	-2.4206710551	 0.153403
H	 2.6374437426	-2.2099386862	-1.7121050679	 0.285173
H	 1.7248912671	-3.6882741559	-1.6334948001	 0.268201
31.9421	94.8295	156.2702	164.5199	206.2641	229.8943	251.1787	286.7893	312.2486	330.6728	358.4934	442.0941	517.013	568.6635	606.4292	609.275	678.495	767.803	790.707	872.3661	917.7817	1004.2145	1021.8016	1078.82	1106.9236	1152.2201	1164.1426	1223.2498	1320.8538	1344.8242	1362.3479	1405.7215	1418.2351	1483.8132	1489.2375	1499.0392	1505.6071	1510.6955	1618.6394	1798.2905	2338.9905	3043.2016	3044.7227	3058.8369	3096.0673	3113.1855	3120.1917	3133.3765	3153.3524	3594.4698	3727.2222
CCC(C)(C#N)C(N)=O	CC[C@@](C)(C#N)C(=O)N	
InChI=1S/C6H10N2O/c1-3-6(2,4-7)5(8)9/h3H2,1-2H3,(H2,8,9)	InChI=1S/C6H10N2O/c1-3-6(2,4-7)5(8)9/h3H2,1-2H3,(H2,8,9)/t6-/m0/s1
