14
gdb 21194	6.91471	1.32029	1.12152	4.7579	59.84	-0.2052	0.0439	0.2492	1007.2469	0.109238	-412.064901	-412.057281	-412.056337	-412.096765	27.446	
C	-0.003188371	 1.3677956734	 0.176514142	-0.342725
N	-0.0310033805	-0.0503843221	-0.1274160205	-0.37989
C	-1.1921429541	-0.7641729775	-0.0150310942	 0.480638
N	-1.2742993838	-2.086382503	 0.0618069656	-0.44596
C	-2.6226225793	-2.2870106032	 0.0995634421	 0.426811
O	-3.1479608986	-3.5182669917	 0.1783665623	-0.412228
N	-3.387497794	-1.2189614871	 0.0599301682	-0.304277
N	-2.4271678184	-0.2231856015	-0.0064594485	-0.270812
H	 1.0193161107	 1.7323316762	 0.065540029	 0.143672
H	-0.6225869542	 1.9216091817	-0.5386633049	 0.135291
H	-0.3512320597	 1.6042613335	 1.1931063336	 0.128177
H	 0.7779668732	-0.5875453086	 0.1433863327	 0.261014
H	-2.4030271844	-4.1304261337	 0.1861458269	 0.307201
H	-2.7141548659	 0.7360916435	-0.0791607245	 0.27309
88.9907	160.4062	206.9972	244.9111	312.6514	366.078	395.304	431.1981	482.159	562.6377	695.8854	719.1246	774.8832	785.3848	1022.1964	1039.0624	1108.7332	1126.079	1158.0656	1193.2915	1231.3027	1339.6584	1384.662	1453.6121	1475.1817	1490.2284	1518.5727	1531.0167	1651.7502	1661.8431	2992.636	3060.1694	3133.2876	3632.4824	3698.4713	3821.0002
CNC1=NC(O)=NN1	CNc1nc(O)n[nH]1	
InChI=1S/C3H6N4O/c1-4-2-5-3(8)7-6-2/h1H3,(H3,4,5,6,7,8)	InChI=1S/C3H6N4O/c1-4-2-5-3(8)7-6-2/h1H3,(H3,4,5,6,7,8)
