19
gdb 46989	2.65602	1.71875	1.43713	3.6306	73.8	-0.2266	-0.0145	0.2121	978.1538	0.16245	-423.065108	-423.057939	-423.056994	-423.096629	28.84	
O	 0.0719427484	-0.0929127812	 0.0914473693	-0.318465
C	-0.02257657	 1.1094231527	 0.0483353305	 0.405694
C	-1.3441732951	 1.8684766974	 0.1049388058	-0.306753
C	-1.2710307324	 3.0990387734	 1.0466548671	-0.226748
C	 0.0770343271	 3.8419093909	 0.9459271004	-0.029333
C	 0.4238057103	 4.1992998625	-0.5059380609	-0.078657
O	 0.9872834425	 3.0060170394	-1.0729768273	-0.277267
C	 1.1925297446	 2.0421336412	-0.0331613094	 0.010391
C	 1.2255389127	 2.8649241224	 1.2634451874	-0.250393
H	-1.5530085626	 2.2053287639	-0.9179757677	 0.138122
H	-2.1402428434	 1.1788057216	 0.3932177401	 0.119601
H	-2.0970310366	 3.7819084545	 0.8198866801	 0.105158
H	-1.412112597	 2.7708808782	 2.0833357121	 0.108439
H	 0.0753412964	 4.7223645436	 1.593727596	 0.07637
H	-0.4507619771	 4.4954880382	-1.0969385398	 0.103829
H	 1.1619962307	 5.0108631984	-0.5582049338	 0.100836
H	 2.0956642156	 1.4683488282	-0.2493757669	 0.093725
H	 2.1854040072	 3.3798836677	 1.369042015	 0.110139
H	 1.0524550088	 2.263347717	 2.160175442	 0.115311
104.1432	179.1541	251.9476	347.8909	383.9873	429.4095	461.8308	508.9516	631.4164	708.3434	748.8353	800.064	816.2274	891.584	896.3793	935.8709	942.7092	956.6135	1001.2022	1027.6413	1054.474	1077.9514	1087.1215	1118.5449	1160.5422	1188.8082	1232.0885	1241.1672	1264.0208	1297.9305	1311.5733	1317.9485	1337.4968	1356.2635	1368.6449	1390.6182	1464.1259	1487.7122	1500.2025	1531.5344	1829.0479	3009.7495	3032.0588	3040.9827	3052.412	3054.3756	3072.5339	3080.9186	3102.4362	3105.6169	3114.2502
O=C1CCC2COC1C2	O=C1CC[C@@H]2CO[C@H]1C2	
InChI=1S/C7H10O2/c8-6-2-1-5-3-7(6)9-4-5/h5,7H,1-4H2	InChI=1S/C7H10O2/c8-6-2-1-5-3-7(6)9-4-5/h5,7H,1-4H2/t5-,7-/m0/s1
