18
gdb 79099	2.4452	2.00427	1.49723	3.7803	74.16	-0.2287	0.027	0.2557	936.8272	0.149728	-401.958632	-401.951327	-401.950382	-401.990078	29.458	
C	 0.0322605868	 1.6039497039	-0.034455599	-0.411664
C	 0.1141463391	 0.082653734	-0.0280461844	 0.022782
C	 0.7031697799	-0.6814005517	-1.2168735585	-0.109641
C	 2.228122042	-0.7888168428	-1.1083538879	-0.003154
N	 2.9670210668	 0.0895939693	-0.2423365776	-0.31599
C	 2.3847342704	 0.1737448187	 1.0074122608	 0.41547
O	 2.7403078593	 0.8847413994	 1.9202512632	-0.388472
C	 1.1314929591	-0.6957307782	 0.9145162856	-0.20484
C	 1.3727281082	-1.672657482	-0.2662110309	-0.084735
H	 0.9958737235	 2.0699287967	-0.2561783714	 0.122504
H	-0.6824763612	 1.9376869613	-0.7948827239	 0.11123
H	-0.3070904325	 1.9828126772	 0.9349602609	 0.128557
H	-0.8742921136	-0.3372107147	 0.1831690262	 0.089416
H	 0.2026729081	-0.8757594812	-2.1592531271	 0.085795
H	 2.7644005065	-1.1977963455	-1.9556229825	 0.107268
H	 3.5776575192	 0.8209465622	-0.5702875467	 0.249927
H	 0.7555186297	-1.0413265339	 1.8732732013	 0.088741
H	 1.3899784688	-2.7540119327	-0.2462312982	 0.096807
134.7425	172.9725	201.8894	292.6034	415.9497	444.6921	461.6648	558.267	601.2461	684.965	735.7463	755.0191	781.5569	811.8873	856.9084	883.1035	906.9951	935.5424	987.7735	1007.9371	1036.547	1051.3881	1066.8408	1099.1478	1116.3234	1142.4782	1164.889	1214.8683	1234.5727	1246.213	1305.0168	1333.3461	1366.1335	1381.4473	1413.0794	1428.7114	1489.1216	1497.3975	1829.761	3035.4529	3054.7501	3099.549	3118.2558	3159.2606	3169.1568	3191.842	3204.8899	3641.0575
CC1C2C3NC(=O)C1C23	C[C@H]1[C@H]2[C@H]3NC(=O)[C@@H]1[C@@H]23	
InChI=1S/C7H9NO/c1-2-3-5-4(2)7(9)8-6(3)5/h2-6H,1H3,(H,8,9)	InChI=1S/C7H9NO/c1-2-3-5-4(2)7(9)8-6(3)5/h2-6H,1H3,(H,8,9)/t2-,3+,4-,5+,6+/m0/s1
