19
gdb 63372	2.3636	1.3537	1.25818	0.8805	72.11	-0.2244	-0.0328	0.1916	1134.5912	0.154994	-460.170182	-460.159969	-460.159025	-460.204753	37.629	
C	-0.7149396609	 1.4005654392	 0.1369350178	-0.46007
C	 0.082597842	 0.1222046583	-0.0343707476	 0.280717
O	-0.7396853488	-1.0453217129	 0.0299014735	-0.465464
C	 1.0350725319	-0.0326257243	-1.2550529103	-0.298653
C	 2.1890280969	-0.5543993507	-0.3437970156	 0.2985
C	 2.4279734894	-2.060662842	-0.3932187553	-0.453764
O	 3.3785121367	 0.1896206903	-0.5189271565	-0.472101
C	 1.3329336487	-0.0878431981	 0.8634711246	 0.308093
O	 1.5798916994	 0.1287243876	 2.0162335628	-0.317791
H	-0.075005186	 2.2819624021	 0.0346057833	 0.128616
H	-1.5103169497	 1.4530432188	-0.612878084	 0.130365
H	-1.1711381048	 1.4356249124	 1.132837957	 0.123693
H	-1.1485557663	-1.066174058	 0.9033225643	 0.287721
H	 0.6752227959	-0.7227889815	-2.0185729395	 0.117226
H	 1.3001761934	 0.9265943362	-1.7023955283	 0.12077
H	 2.8988101102	-2.3264166647	-1.3448581667	 0.128363
H	 3.0915890505	-2.3696010155	 0.4224889724	 0.117329
H	 1.4859622667	-2.6063213877	-0.295111778	 0.139173
H	 3.9463108747	 0.0145036406	 0.2407444862	 0.287276
68.8259	132.5296	167.0931	208.6649	209.8928	251.4342	262.9244	272.4074	317.0662	331.3945	365.6107	399.0781	427.0894	582.828	598.4255	701.215	752.7776	818.4682	864.1887	911.3491	926.5896	971.0128	972.6441	1010.1189	1093.6197	1120.2032	1162.1066	1213.91	1216.5816	1243.6795	1288.0511	1350.4328	1377.0932	1396.8118	1404.8643	1461.8589	1486.0953	1487.8407	1489.1834	1496.8737	1882.6364	3031.1906	3031.9752	3086.4706	3101.5092	3101.9832	3117.1403	3127.4423	3152.3938	3792.4502	3796.6623
CC1(O)CC(C)(O)C1=O	C[C@@]1(O)C[C@@](C)(O)C1=O	
InChI=1S/C6H10O3/c1-5(8)3-6(2,9)4(5)7/h8-9H,3H2,1-2H3	InChI=1S/C6H10O3/c1-5(8)3-6(2,9)4(5)7/h8-9H,3H2,1-2H3/t5-,6-/m1/s1
