18
gdb 15169	4.78681	0.98878	0.85848	1.4827	71.98	-0.247	0.0214	0.2685	1342.8164	0.153129	-381.0771	-381.068102	-381.067157	-381.111845	30.767	
C	 0.5093367973	 1.1135612782	 0.1327938083	-0.251519
O	-0.1358664591	 0.1045031888	-0.6342917081	-0.195176
C	 0.6590455763	-0.9057938532	-1.0462402777	 0.126911
N	 0.1736695567	-1.8383102744	-1.7387865767	-0.240058
C	 1.0230736683	-2.9321874645	-2.1834359973	-0.15726
C	 2.4454440949	-2.9836644649	-1.6670075225	 0.003878
C	 3.5337968927	-3.5233774105	-2.5157004989	-0.251136
N	 3.4785965769	-2.0810274826	-2.2142565297	-0.318686
H	 0.936903078	 0.7059805746	 1.0571187158	 0.12661
H	 1.3009747381	 1.6116167723	-0.4402338066	 0.128123
H	-0.2593661145	 1.8439832802	 0.3880098176	 0.144626
H	 1.705947435	-0.8127687378	-0.7300031765	 0.103303
H	 0.5137569872	-3.8683792845	-1.916109026	 0.117244
H	 1.0412261489	-2.9146651347	-3.2834176601	 0.10257
H	 2.5352539563	-3.1195685674	-0.5900792221	 0.09547
H	 4.3664068484	-4.0541178231	-2.0632994018	 0.120298
H	 3.2795441151	-3.8546093399	-3.5197386035	 0.113607
H	 3.0978318334	-1.5861733267	-3.0187975441	 0.231196
49.4461	80.4608	120.7547	130.6682	166.1582	238.701	295.569	358.1196	397.0159	495.3877	630.3261	792.1312	834.0638	928.9297	932.3642	979.1477	1016.9745	1029.3994	1052.2117	1076.5923	1127.2616	1164.6095	1176.8518	1179.6146	1201.1855	1256.9935	1275.7734	1283.3651	1316.2536	1349.9993	1420.4331	1426.2087	1473.342	1487.1262	1494.6478	1501.3065	1511.5098	1771.6045	2996.9456	3011.7946	3027.3544	3041.8902	3075.8082	3106.5023	3116.8001	3143.4871	3192.0881	3480.7707
COC=NCC1CN1	COC=NC[C@H]1CN1	
InChI=1S/C5H10N2O/c1-8-4-6-2-5-3-7-5/h4-5,7H,2-3H2,1H3	InChI=1S/C5H10N2O/c1-8-4-6-2-5-3-7-5/h4-5,7H,2-3H2,1H3/t5-/m0/s1
