19
gdb 43631	5.05792	0.86729	0.78824	4.2889	76.32	-0.2719	0.0139	0.2858	1447.3759	0.159935	-423.047166	-423.038956	-423.038012	-423.080894	30.635	
O	 0.2540886034	 0.2905909729	-0.7701967901	-0.315437
C	 0.0321612703	 1.2780451129	-0.1475777064	 0.444948
C	-1.1788222292	 2.1228930641	 0.2504126922	-0.438193
C	-0.1298794666	 2.9902244943	 0.9746439399	 0.111403
O	 0.9338879343	 2.0766302891	 0.5075331193	-0.251785
C	 0.0893765295	 4.4022536459	 0.5001607652	 0.042942
C	-0.900623411	 5.4987523323	 0.9937478724	-0.240546
C	 0.3064836562	 6.4652652568	 1.1386992011	-0.209405
C	 1.2494732965	 5.2318829279	 1.1207690601	-0.230932
H	-1.6913352538	 2.5959060849	-0.5896405761	 0.141579
H	-1.9043320107	 1.6017455838	 0.876744957	 0.143301
H	-0.1806809285	 2.9405619423	 2.0670888688	 0.091953
H	 0.1577557257	 4.4072040207	-0.5935160148	 0.078143
H	-1.7146469374	 5.7854661012	 0.3242050845	 0.103221
H	-1.3287304217	 5.2398073483	 1.9680773913	 0.102433
H	 0.4344806774	 7.0873929976	 0.2486226989	 0.10835
H	 0.332577971	 7.1112319331	 2.01864908	 0.102382
H	 1.4863360747	 4.8870939712	 2.1324744062	 0.104849
H	 2.1787087898	 5.2993736807	 0.5523292806	 0.110794
63.6142	78.3015	137.0157	162.862	332.2805	341.4623	402.307	520.1455	533.8391	636.3933	751.0444	774.9739	784.0931	874.6676	900.9121	919.0791	936.0649	951.9949	962.443	989.9836	1020.7917	1050.1194	1090.3526	1119.5166	1133.5824	1204.1934	1208.9302	1222.1064	1246.6993	1257.353	1261.198	1276.7999	1286.6195	1305.9068	1329.3238	1418.6246	1456.1834	1478.0605	1487.3357	1510.1979	1938.903	3041.905	3047.6793	3055.252	3063.2863	3065.6734	3087.596	3102.8663	3112.3916	3125.167	3145.2565
O=C1CC(O1)C1CCC1	O=C1C[C@@H](O1)C1CCC1	
InChI=1S/C7H10O2/c8-7-4-6(9-7)5-2-1-3-5/h5-6H,1-4H2	InChI=1S/C7H10O2/c8-7-4-6(9-7)5-2-1-3-5/h5-6H,1-4H2/t6-/m1/s1
