16
gdb 17916	3.39729	2.30046	2.2136	1.4634	63.57	-0.2447	0.0029	0.2476	716.5156	0.133224	-383.732997	-383.726997	-383.726053	-383.762651	25.046	
O	 0.0749246334	 1.3783477983	 0.1000893798	-0.453355
C	 0.0098598698	-0.0162020252	 0.0115701706	 0.173545
C	-1.375284558	-0.6311823631	-0.4086715786	-0.135383
C	-1.472564357	-0.0022867698	-1.8283956707	-0.091971
O	-0.1084701818	 0.0349813578	-2.2871744113	-0.299228
C	 0.6842686159	-0.615595404	-1.2382824487	 0.00921
C	 0.2774305861	-2.062811228	-1.1277041696	-0.078209
C	-0.961345938	-2.0680840765	-0.6135979237	-0.081964
H	 0.098743082	 1.7116262915	-0.8065023729	 0.292643
H	 0.3699784234	-0.4367084067	 0.9514730226	 0.09348
H	-2.2268996866	-0.4317348437	 0.2398749259	 0.076012
H	-2.0863746842	-0.5971813573	-2.5121697861	 0.105185
H	-1.8675079021	 1.0200058661	-1.7883514158	 0.101418
H	 1.7296332204	-0.3771738448	-1.4260292978	 0.079947
H	 0.862984229	-2.907783224	-1.4649140512	 0.105261
H	-1.5968854621	-2.9270783607	-0.4373828026	 0.103409
244.9063	286.1505	348.2159	391.3777	487.0955	532.2187	578.827	690.1038	744.1908	798.017	819.7942	849.355	881.1854	904.4959	946.7775	961.2028	968.2626	998.0632	1008.7462	1055.57	1117.5247	1134.4771	1157.9181	1212.9938	1228.7979	1265.125	1275.0265	1296.3172	1310.8972	1352.383	1368.9179	1429.0647	1520.2001	1629.598	3025.4986	3074.5914	3113.6613	3133.2754	3142.8841	3200.8707	3227.5021	3766.6597
OC1C2COC1C=C2	O[C@H]1[C@H]2CO[C@@H]1C=C2	
InChI=1S/C6H8O2/c7-6-4-1-2-5(6)8-3-4/h1-2,4-7H,3H2	InChI=1S/C6H8O2/c7-6-4-1-2-5(6)8-3-4/h1-2,4-7H,3H2/t4-,5-,6+/m1/s1
