12
gdb 20510	9.40272	0.99937	0.90849	4.4589	68.4	-0.2636	-0.0566	0.207	1199.9493	0.083195	-377.459763	-377.452443	-377.451499	-377.494581	24.511	
C	-0.0047852167	 1.4587038893	 0.0100995979	-0.508432
C	 0.0022774615	 0.0059884087	 0.00242203	 0.193206
C	 0.0185294498	-1.1989214312	-0.0040015301	-0.026626
C	 0.0038042393	-2.6103415632	-0.0112838963	 0.23045
N	 1.090884482	-3.3541587275	-0.0223211902	-0.167768
O	 0.6560736984	-4.6439522189	-0.0262251561	-0.147349
N	-0.7100600941	-4.7206899694	-0.0176603915	-0.054191
C	-1.1256504977	-3.4884902584	-0.0084688664	-0.161013
H	 1.0161712061	 1.8539635055	 0.0024586143	 0.165343
H	-0.5263336617	 1.8544649576	-0.8680170355	 0.161269
H	-0.5094717208	 1.8451793689	 0.9020989706	 0.161284
H	-2.1762082962	-3.2455768113	-0.0003061168	 0.153827
4.3311	98.8492	111.7214	304.9915	317.581	476.5786	487.3199	523.8105	642.8549	730.8616	886.1703	900.0659	939.1836	964.8289	1036.1831	1049.3825	1051.4252	1084.9824	1221.2192	1384.429	1410.8688	1471.9599	1472.1017	1474.8935	1591.8731	2371.9109	3032.9377	3095.6666	3101.4681	3277.977
CC#CC1=NON=C1	CC#Cc1nonc1	
InChI=1S/C5H4N2O/c1-2-3-5-4-6-8-7-5/h4H,1H3	InChI=1S/C5H4N2O/c1-2-3-5-4-6-8-7-5/h4H,1H3
