18
gdb 59825	4.49736	0.60326	0.54742	4.1378	79.76	-0.2478	-0.0143	0.2335	1979.5684	0.144677	-439.091143	-439.080246	-439.079302	-439.12913	37.469	
C	 0.2253306935	 1.4486268	 0.3139778206	-0.405293
C	-0.0141544368	-0.0568047909	 0.4232131051	 0.145887
O	-0.4144667708	-0.4335767074	 1.731038021	-0.421563
C	-1.0260437299	-0.5429986875	-0.642114716	-0.383063
C	-1.2575396835	-1.9787797279	-0.6065196717	 0.012917
C	-1.4340772148	-3.170431234	-0.5711515897	 0.110318
C	-1.6758211365	-4.6054272261	-0.5594007546	 0.253523
N	-1.1680222139	-5.2321300167	 0.5433751703	-0.519813
O	-2.2625544131	-5.1894978342	-1.4503308874	-0.33668
H	 0.9306212823	 1.7717101452	 1.0836280806	 0.130405
H	 0.6307987671	 1.7194412567	-0.6661084762	 0.121634
H	-0.7114504545	 2.0032058871	 0.4529768627	 0.110014
H	 0.9300085788	-0.5888236868	 0.2621361008	 0.104276
H	-1.222292591	 0.0468834458	 1.9454442956	 0.279018
H	-1.9794121203	-0.0147731158	-0.4939580849	 0.126404
H	-0.6716749049	-0.2512725125	-1.6391964742	 0.139311
H	-0.7694519768	-4.7086547641	 1.3032767996	 0.269135
H	-1.3533081352	-6.2150680407	 0.6584249085	 0.263573
20.5432	50.0016	64.6123	147.9809	163.8692	180.2195	240.731	291.4255	296.9288	355.3853	383.6536	438.3849	463.9763	553.2037	572.5819	591.1541	732.2309	774.4352	830.8571	892.0547	934.3689	1060.2689	1079.7141	1091.7295	1096.2646	1147.4563	1198.6533	1304.6023	1331.4434	1348.4432	1371.3567	1403.8964	1424.6439	1456.1997	1491.6792	1494.7129	1607.3625	1773.7538	2352.5168	3004.6124	3025.572	3045.2389	3059.1689	3097.2748	3124.3939	3599.9039	3741.9359	3794.324
CC(O)CC#CC(N)=O	C[C@@H](O)CC#CC(=O)N	
InChI=1S/C6H9NO2/c1-5(8)3-2-4-6(7)9/h5,8H,3H2,1H3,(H2,7,9)	InChI=1S/C6H9NO2/c1-5(8)3-2-4-6(7)9/h5,8H,3H2,1H3,(H2,7,9)/t5-/m1/s1
