14
gdb 17031	4.37902	1.60911	1.35739	3.929	62.41	-0.2744	0.0107	0.2851	878.0517	0.108839	-378.656989	-378.650525	-378.649581	-378.687632	24.992	
O	 0.1129271881	 1.4685830136	-0.0609327187	-0.441166
C	 0.0755389558	 0.0899124375	-0.0414267796	 0.204802
C	 0.0132689414	-0.6459447306	 1.3381221105	-0.082182
N	-1.3840897739	-0.0634431915	 1.4603577601	-0.360917
C	-1.3115571457	-0.6282088032	 0.0522952619	-0.082182
C	-0.5792579107	-1.8924176075	 0.6058870391	-0.149762
C	 0.2524877946	-2.712220901	-0.2623942215	 0.267922
N	 0.9107719577	-3.3689943507	-0.9497053923	-0.328101
H	-0.5298067305	 1.7556118923	 0.605255146	 0.295155
H	 0.7822671525	-0.2965977602	-0.7749221139	 0.120841
H	 0.7225926488	-0.6373769066	 2.1656459585	 0.106197
H	-1.9719994947	-0.6506162939	 2.0579997927	 0.220836
H	-2.1596371326	-0.5987910127	-0.6317399572	 0.106197
H	-1.2064830106	-2.5200590656	 1.2434782945	 0.122361
138.1472	170.6529	310.7349	359.7657	442.2636	525.0818	530.7716	594.0127	673.3395	777.761	815.4363	872.1174	881.4795	908.311	915.9124	1019.5828	1027.8002	1104.3758	1105.3086	1135.8158	1150.8709	1190.5025	1192.2885	1237.3902	1267.3645	1282.5081	1343.758	1371.2197	1467.9093	2351.1229	3087.8699	3122.862	3125.0848	3140.4073	3409.7001	3725.1568
OC1C2NC1C2C#N	O[C@H]1[C@H]2N[C@@H]1[C@H]2C#N	
InChI=1S/C5H6N2O/c6-1-2-3-5(8)4(2)7-3/h2-5,7-8H	InChI=1S/C5H6N2O/c6-1-2-3-5(8)4(2)7-3/h2-5,7-8H/t2-,3-,4+,5-
