22
gdb 86575	2.82042	1.17608	0.90461	3.7585	84.18	-0.2308	0.0327	0.2634	1365.4116	0.192573	-404.381923	-404.371528	-404.370584	-404.417897	37.171	
C	-0.6069711568	 1.4239982729	-0.0448195505	-0.403976
C	 0.0759476383	 0.0633689312	-0.0275160428	-0.01826
C	 1.3968896797	-0.0385752139	-0.8492919209	-0.1944
N	 2.1150332951	-0.295781659	 0.4004906963	-0.066767
C	 0.9114563192	-0.3339324747	 1.2439400684	 0.050232
C	 0.9347495149	 0.5743887651	 2.4645045277	-0.405248
C	 3.3405600109	-0.8191214842	 0.6764263057	 0.360934
C	 4.3053008073	-0.8595394594	-0.4988097697	-0.486401
O	 3.6307916458	-1.2163388515	 1.7937670939	-0.374489
H	 0.0956950602	 2.2348532049	 0.1714978542	 0.12384
H	-1.043264377	 1.6190815189	-1.0303802223	 0.118054
H	-1.4153596604	 1.4751082872	 0.6915550032	 0.122573
H	-0.6435629966	-0.712656762	-0.2986744125	 0.081608
H	 1.4346774739	-0.8669766941	-1.5674701907	 0.107808
H	 1.6983956905	 0.8825710983	-1.3635838882	 0.107494
H	 0.6971553705	-1.3597272235	 1.570970769	 0.08673
H	 1.1617657936	 1.6100761116	 2.1967599008	 0.111991
H	-0.0323725046	 0.5512706661	 2.9779206464	 0.112003
H	 1.7041705322	 0.2225724836	 3.1553817365	 0.153484
H	 4.3530945798	 0.1042759772	-1.0151869386	 0.131491
H	 5.2940768501	-1.1279048657	-0.1276873708	 0.145889
H	 3.9862330333	-1.6093269687	-1.2316893651	 0.135412
52.875	79.4757	97.6024	123.5023	158.1442	223.8384	239.2918	279.4098	313.4901	360.9264	434.0281	493.3035	563.8905	601.6774	647.6028	768.3289	784.6055	886.8326	918.6867	939.3193	1002.3945	1029.1905	1040.9016	1050.9976	1105.3046	1129.813	1151.105	1167.4329	1190.6514	1209.1433	1277.8573	1286.4637	1323.6637	1367.8297	1380.056	1384.1788	1405.085	1416.2599	1437.627	1470.6399	1481.3317	1483.0257	1495.1057	1500.1159	1513.7653	1520.163	1758.8734	3009.0745	3016.0488	3033.5914	3040.0064	3042.6477	3048.0993	3076.6912	3099.5194	3101.5919	3107.2929	3115.4208	3134.2207	3159.7151
CC1CN(C1C)C(C)=O	C[C@H]1CN([C@H]1C)C(=O)C	
InChI=1S/C7H13NO/c1-5-4-8(6(5)2)7(3)9/h5-6H,4H2,1-3H3	InChI=1S/C7H13NO/c1-5-4-8(6(5)2)7(3)9/h5-6H,4H2,1-3H3/t5-,6-/m0/s1
