19
gdb 120605	4.50348	0.70059	0.67034	2.8392	74.3	-0.255	-0.0351	0.2199	1680.3609	0.155239	-460.150666	-460.140211	-460.139266	-460.187349	36.	
C	 0.1201633266	 1.5588578684	-0.1819595587	-0.471506
C	-0.0291245594	 0.0863698231	 0.0982900479	 0.267632
O	 1.1587920169	-0.7311154335	 0.1415456355	-0.285731
C	 0.4157361578	-0.5837117144	 1.3485835625	 0.00698
C	 1.06600834	 0.1280595629	 2.5080982499	-0.224323
C	 2.1043887208	-0.7557674686	 3.1968671412	-0.066158
O	 2.61332695	-0.0259992259	 4.3001426848	-0.419718
C	-1.1511429727	-0.6113594534	-0.6167492383	 0.127558
O	-2.0412251318	-0.0469915469	-1.1985220396	-0.252259
H	 0.9700962969	 1.9861831091	 0.3498104644	 0.132035
H	 0.2643789059	 1.7201866524	-1.2541165827	 0.141295
H	-0.7915584191	 2.087814581	 0.1084046547	 0.143716
H	-0.123478932	-1.4930506667	 1.6311471923	 0.092675
H	 1.5530747593	 1.0497874273	 2.1830133757	 0.120247
H	 0.295664381	 0.4015276796	 3.2391284529	 0.119578
H	 1.6352194662	-1.6994538752	 3.5212042846	 0.087035
H	 2.8968070128	-1.0122852764	 2.4777722444	 0.107295
H	 3.3067502323	-0.5480619621	 4.7139343739	 0.289249
H	-1.0802951815	-1.7210745708	-0.5658374853	 0.084402
47.6034	79.1898	80.3464	97.8062	136.467	246.3105	257.0025	259.6262	290.3595	334.8632	407.9018	464.0794	537.0412	585.6183	746.0847	794.5567	825.0148	888.4037	962.7163	1005.7347	1015.2093	1072.6951	1078.5645	1109.4294	1134.0789	1141.0221	1229.0646	1244.9597	1273.5255	1311.4602	1330.0148	1340.4295	1403.0406	1421.9513	1460.681	1461.2848	1474.5233	1482.9407	1499.8145	1529.3966	1828.6139	2888.6735	2964.0359	3006.0585	3048.0404	3057.918	3061.195	3117.5465	3121.1286	3155.4738	3832.4846
CC1(OC1CCO)C=O	C[C@]1(O[C@H]1CCO)C=O	
InChI=1S/C6H10O3/c1-6(4-8)5(9-6)2-3-7/h4-5,7H,2-3H2,1H3	InChI=1S/C6H10O3/c1-6(4-8)5(9-6)2-3-7/h4-5,7H,2-3H2,1H3/t5-,6-/m0/s1
