16
gdb 125268	5.07797	1.20447	0.98537	4.3744	79.87	-0.2163	-0.0325	0.1838	1159.2724	0.125693	-400.756083	-400.748872	-400.747927	-400.787665	27.772	
C	-0.0189163883	 1.4634426732	 0.028171613	-0.485661
C	-0.0003376568	-0.0293952432	-0.0173597195	 0.310705
C	-0.0378268067	-0.815700201	-1.1200522594	-0.328991
C	 0.0021501063	-2.1890644462	-0.6585526407	 0.424994
C	 0.0634974781	-2.2745346044	 0.7022530508	 0.148088
C	 0.067928949	-0.8807519645	 1.2553286985	-0.466845
C	 0.0932829282	-3.6650350898	 0.9303917187	-0.131124
N	 0.0528351825	-4.3506460373	-0.1979211822	-0.154607
O	-0.0063703001	-3.386745797	-1.2351052195	-0.237235
H	 0.8804986614	 1.8598631002	 0.5160930218	 0.134144
H	-0.0749557193	 1.8916151547	-0.9758683649	 0.132756
H	-0.8756959709	 1.8354552949	 0.6039957155	 0.133984
H	-0.0880487351	-0.4843285099	-2.1477935088	 0.118033
H	 0.9690803956	-0.6418849515	 1.834701356	 0.136656
H	-0.7854584556	-0.6670066659	 1.9117251986	 0.136676
H	 0.1420429516	-4.2234076723	 1.8551699421	 0.128425
132.2734	152.6447	259.7028	269.5654	301.0743	448.8445	464.3497	515.3302	625.5209	729.9757	731.4339	793.8538	839.781	851.872	863.7263	900.9637	927.7374	977.5393	1008.4348	1052.5114	1143.1933	1154.1395	1157.1398	1196.076	1226.8045	1305.0223	1401.5187	1411.5924	1420.9122	1440.7193	1476.8826	1483.546	1507.5573	1591.6007	1646.9015	3018.6907	3032.1559	3059.4277	3065.9145	3115.933	3232.3926	3237.6455
CC1=CC2=C(C1)C=NO2	CC1=Cc2c(C1)cno2	
InChI=1S/C7H7NO/c1-5-2-6-4-8-9-7(6)3-5/h3-4H,2H2,1H3	InChI=1S/C7H7NO/c1-5-2-6-4-8-9-7(6)3-5/h3-4H,2H2,1H3
