21
gdb 92505	2.40279	1.57261	1.38568	1.7989	76.97	-0.2436	0.0684	0.3121	1057.0654	0.183394	-424.229073	-424.220661	-424.219717	-424.26163	34.034	
O	 0.0220385601	 1.397581264	 0.5803869551	-0.432338
C	 0.02171334	 0.0529864231	 0.0944252227	 0.110387
C	 0.7321157214	-0.9246524385	 1.0576235786	-0.258957
C	-0.3106961069	-1.2555894284	 2.1304847153	-0.05575
C	-0.6423739869	-0.1509351095	 3.1795135146	-0.221798
C	-2.0810514501	-0.0216355589	 2.6037638021	-0.284646
C	-1.7213762183	-1.0224655576	 1.4672656992	 0.434096
O	-2.5916156303	-2.1206130666	 1.2904383264	-0.49332
C	-1.4333999216	-0.4289318517	 0.0787802551	-0.255959
H	 0.9385303961	 1.6782734501	 0.6682359672	 0.279695
H	 0.4662290498	 0.0248482115	-0.9105979988	 0.061418
H	 1.0066721994	-1.8314623074	 0.5047930098	 0.100594
H	 1.659761381	-0.5005103332	 1.4610106873	 0.083902
H	-0.1738119852	-2.2489651551	 2.5649922721	 0.056571
H	-0.5877778882	-0.4759522179	 4.2212986847	 0.088471
H	-0.0467014521	 0.7540735334	 3.0627272039	 0.102823
H	-2.8560492079	-0.418999181	 3.2680426513	 0.083172
H	-2.3841021771	 0.9764912502	 2.2803398144	 0.110954
H	-2.8365856199	-2.4513284991	 2.1605443574	 0.272084
H	-2.1159576424	 0.3775792369	-0.2002568069	 0.109077
H	-1.5446402407	-1.2381185544	-0.6496756514	 0.109525
77.3842	178.5363	239.4654	307.5633	312.9199	341.3071	361.1241	394.3456	413.5068	447.2786	594.2703	613.1378	728.4603	765.8035	794.834	829.0252	856.4951	884.7139	926.6123	952.7021	958.2128	985.0797	1012.7942	1064.8735	1074.3612	1099.2689	1108.433	1146.2546	1175.5843	1211.084	1224.1197	1234.7558	1258.2221	1268.5994	1281.549	1294.5614	1331.384	1350.8472	1358.4543	1395.2853	1425.7225	1462.2462	1471.2824	1479.3326	1490.2001	2993.4325	3025.1698	3042.9271	3061.0471	3062.5055	3067.7821	3077.9789	3107.129	3113.3547	3137.9896	3812.88	3816.5433
OC1CC2CCC2(O)C1	O[C@H]1C[C@H]2CC[C@@]2(O)C1	
InChI=1S/C7H12O2/c8-6-3-5-1-2-7(5,9)4-6/h5-6,8-9H,1-4H2	InChI=1S/C7H12O2/c8-6-3-5-1-2-7(5,9)4-6/h5-6,8-9H,1-4H2/t5-,6+,7-/m1/s1
