16
gdb 45661	2.98836	1.93085	1.56387	3.2101	74.61	-0.2356	-0.042	0.1936	873.361	0.125813	-400.688091	-400.681625	-400.68068	-400.7187	26.637	
O	-0.1082463968	-0.018740623	 0.4083536814	-0.304403
C	-0.0995033188	 1.1553381431	 0.1553810187	 0.378293
C	-1.3891033507	 2.0232064262	-0.0518269388	-0.344156
C	-1.2616416971	 2.8662888443	 1.1964040629	-0.126704
C	-0.0927275947	 3.5113483665	 1.3066419419	 0.118085
C	 0.9917800213	 3.2070682271	 2.3365118722	-0.293553
C	 1.8237693497	 2.6804901451	 1.1143001848	-0.039854
C	 0.9081727241	 3.3730773253	 0.1609889662	-0.133315
N	 1.0807171183	 1.9392394755	 0.0528293778	-0.102402
H	-1.3170792443	 2.5897102647	-0.984644214	 0.133045
H	-2.2693794715	 1.3831427318	-0.0738406358	 0.129766
H	-1.8283237146	 2.5689867238	 2.0745878378	 0.113635
H	 1.5323933348	 4.0760199412	 2.7282498751	 0.124698
H	 0.7347263955	 2.5268611694	 3.1516574123	 0.121417
H	 2.9045720477	 2.6036824912	 1.0904423627	 0.118085
H	 1.1172236568	 4.0285601478	-0.6759017153	 0.107366
123.5609	262.5988	352.8423	404.8651	436.0232	503.9285	559.9698	631.1852	662.7533	747.4759	791.0587	804.4812	835.186	887.3922	900.0636	911.1732	950.6767	974.0834	998.82	1021.0686	1045.8726	1072.8645	1109.2021	1116.3843	1168.2768	1209.0419	1222.5532	1231.6075	1273.9058	1323.7521	1329.7774	1468.9046	1481.0511	1660.6364	1830.519	3043.6328	3067.8255	3112.0956	3154.2561	3169.8158	3181.361	3193.0272
O=C1CC=C2CC3C2N13	O=C1C[CH][C]2C[C@@H]3[C@H]2N13	
InChI=1S/C7H7NO/c9-6-2-1-4-3-5-7(4)8(5)6/h1,5,7H,2-3H2	InChI=1S/C7H7NO/c9-6-2-1-4-3-5-7(4)8(5)6/h1,5,7H,2-3H2/t5-,7+,8?/m1/s1
