19
gdb 68194	3.46004	1.28179	1.16648	1.6623	81.61	-0.2431	0.0354	0.2785	1129.2657	0.158621	-385.841447	-385.833318	-385.832374	-385.873691	32.624	
C	-0.0958635069	 1.5114905681	 0.0086575274	-0.491529
C	 0.0895118785	 0.021078211	 0.0282423332	 0.44764
C	 1.0600467357	-0.7735836618	-0.8887582886	-0.272746
C	 0.7070576537	-1.9051514481	 0.1218759782	-0.072564
C	 0.6788957657	-0.7942500575	 1.2132874251	-0.276994
C	-0.809219428	-2.044854498	-0.1429322515	-0.079253
O	-1.1777229885	-0.6428984244	-0.2024013695	-0.316499
C	-1.1634071256	-2.7524828102	-1.3675434675	 0.335512
C	-1.4508641586	-3.3609838986	-2.3634140438	-0.439675
H	 0.8570230349	 2.0184696696	 0.1844643584	 0.117194
H	-0.4899630097	 1.834965297	-0.9595892989	 0.131391
H	-0.8035978121	 1.8202961835	 0.7841471362	 0.128754
H	 0.7712578653	-0.9037000729	-1.9334628107	 0.112444
H	 2.0973502269	-0.4457107446	-0.8016193131	 0.098985
H	 1.2787982401	-2.8264957627	 0.2147402732	 0.082224
H	 1.678989792	-0.4700883998	 1.5067319439	 0.099992
H	 0.0398522851	-0.9368185392	 2.0887920904	 0.09783
H	-1.3242647509	-2.5125695438	 0.7064086314	 0.101148
H	-1.7096759473	-3.8916133074	-3.2461274037	 0.196146
114.856	142.8952	206.3953	275.2646	300.8418	346.2957	456.3853	474.1098	521.81	547.4814	626.1398	643.4015	659.1541	689.3488	817.1415	859.5091	860.658	891.399	895.2899	937.347	976.9148	989.1261	1027.8225	1034.4487	1050.3459	1106.4213	1108.6187	1188.8726	1192.7614	1218.2512	1233.9144	1280.9945	1295.2812	1336.806	1367.0101	1418.6481	1474.3659	1480.6282	1492.8918	1510.9917	2236.6903	3015.7204	3041.3829	3061.7122	3075.3836	3112.1682	3118.7637	3129.9932	3138.6838	3141.7903	3503.4717
CC12CC(C1)C(O2)C#C	C[C@@]12C[C@@H](C1)[C@@H](O2)C#C	
InChI=1S/C8H10O/c1-3-7-6-4-8(2,5-6)9-7/h1,6-7H,4-5H2,2H3	InChI=1S/C8H10O/c1-3-7-6-4-8(2,5-6)9-7/h1,6-7H,4-5H2,2H3/t6-,7-,8+/m0/s1
