21
gdb 6573	3.60229	1.64745	1.43749	1.5002	78.54	-0.2436	0.0792	0.3228	994.3861	0.187806	-329.102455	-329.093867	-329.092923	-329.134562	33.65	
C	 0.0202254542	 1.5650244999	 0.0352933417	-0.48504
C	-0.047563693	 0.0679436904	 0.0723136967	 0.362985
C	-1.3276329783	-0.7838349357	-0.0107822415	-0.35346
C	-0.6858513284	-1.8149976998	 0.9920783567	 0.326511
C	-1.3623894863	-1.7658775845	 2.3629222645	-0.435644
C	-0.54458394	-3.2564716088	 0.5064253759	-0.445625
C	 0.5958604488	-0.9469390912	 0.9773540887	-0.121092
N	 1.1082272505	-0.7092152027	-0.3683557161	-0.369954
H	 1.0320167639	 1.9057008702	 0.2702240347	 0.131027
H	-0.2384914047	 1.9447018198	-0.9607804973	 0.118277
H	-0.6767920846	 2.0115975229	 0.7527433155	 0.113132
H	-2.2131348861	-0.2958751814	 0.4059026118	 0.100375
H	-1.5748865627	-1.1566395747	-1.0115680707	 0.087349
H	-2.3673937072	-2.2006825154	 2.3227217394	 0.112511
H	-0.7842471915	-2.3286199657	 3.1053009742	 0.112159
H	-1.4543104295	-0.7360823777	 2.7242280746	 0.113476
H	-0.0255344024	-3.3205358192	-0.4559128923	 0.104921
H	 0.0176151025	-3.8612410158	 1.2271049501	 0.115179
H	-1.5280475863	-3.7225894176	 0.3758511705	 0.114648
H	 1.2782755391	-0.8168659985	 1.8125896917	 0.079844
H	 0.8706360122	-1.4510887645	-1.0245660586	 0.218422
133.8883	194.3906	210.1831	223.3963	257.6989	316.1474	330.3728	349.5016	394.476	440.5601	526.9166	576.1135	682.7909	795.4723	835.3243	864.0328	912.8406	934.9284	952.5461	968.8107	989.4837	1017.1435	1039.0515	1061.8218	1109.0064	1146.2073	1167.6337	1194.8767	1220.5269	1241.4609	1267.7448	1287.4007	1309.4475	1397.6762	1403.988	1420.6953	1448.9614	1481.1617	1484.0469	1485.6359	1488.4802	1494.8742	1504.0092	1506.0911	3020.0838	3024.0026	3025.1763	3033.675	3083.5568	3084.9552	3088.3743	3091.5241	3093.3212	3096.7416	3118.1703	3150.5497	3459.5292
CC12CC(C)(C)C1N2	C[C@]12CC(C)(C)[C@H]1N2	
InChI=1S/C7H13N/c1-6(2)4-7(3)5(6)8-7/h5,8H,4H2,1-3H3	InChI=1S/C7H13N/c1-6(2)4-7(3)5(6)8-7/h5,8H,4H2,1-3H3/t5-,7+/m1/s1
