16
gdb 86839	2.75178	1.28216	1.06442	3.021	69.01	-0.2624	-0.0441	0.2183	1149.2032	0.123282	-437.921201	-437.912699	-437.911755	-437.954965	30.673	
C	-0.0597738139	 1.5712665555	-0.0573990296	-0.403963
C	 0.039400132	 0.0597777534	 0.0411431083	 0.017513
O	 0.7522320794	-0.4709844646	-1.0787639769	-0.254486
C	 1.3701719687	-1.6942631892	-0.6921430133	-0.052298
C	 1.8012873697	-1.4991930907	 0.7730956218	-0.358099
C	 0.8161478427	-0.434201843	 1.268269777	 0.386325
O	 0.6787743598	-0.0473760778	 2.3957633173	-0.295253
C	 0.4373498791	-2.8326618561	-0.8461779071	 0.273418
N	-0.2951751286	-3.7187207169	-0.961120198	-0.312349
H	 0.9349381633	 2.0149642457	-0.153099161	 0.130264
H	-0.6587764616	 1.8632197363	-0.9228227596	 0.137004
H	-0.5305957295	 1.9565862215	 0.8505677344	 0.147709
H	-0.9681645243	-0.386671862	 0.0902623997	 0.122202
H	 2.2141022216	-1.854131745	-1.3674929418	 0.143889
H	 1.7623981394	-2.3976552481	 1.3899031382	 0.163513
H	 2.8153301124	-1.0903627091	 0.8207058507	 0.154611
62.8276	79.9173	187.3897	202.4647	237.342	261.606	379.7123	446.647	460.0845	567.9992	598.5415	622.9918	718.3495	770.1502	818.2092	872.5203	950.8084	979.4179	1015.064	1077.7624	1090.4212	1117.5604	1172.0198	1187.417	1249.6056	1303.155	1319.9963	1354.309	1365.5482	1402.6775	1445.7225	1483.3281	1497.2191	1864.6499	2355.8699	2970.4238	3052.9682	3070.9391	3090.9091	3131.242	3138.5127	3140.2666
CC1OC(CC1=O)C#N	C[C@H]1O[C@@H](CC1=O)C#N	
InChI=1S/C6H7NO2/c1-4-6(8)2-5(3-7)9-4/h4-5H,2H2,1H3	InChI=1S/C6H7NO2/c1-4-6(8)2-5(3-7)9-4/h4-5H,2H2,1H3/t4-,5+/m1/s1
