20
gdb 86780	3.60339	0.94595	0.81361	1.0851	81.56	-0.2136	0.0463	0.2599	1426.8305	0.168334	-403.079368	-403.069444	-403.0685	-403.114292	36.621	
C	-0.1900716342	 1.5914341014	-0.1824325068	-0.396604
C	-0.0383538885	 0.0754674207	-0.0606532582	 0.012198
C	 0.7923547809	-0.5749877163	-1.2011905601	 0.106172
O	 0.9057362083	 0.2211587865	-2.3537268507	-0.424398
C	 1.975318345	-0.6121552645	-0.1981129007	-0.211323
N	 0.991105058	-0.4391474179	 0.8827099407	-0.077594
C	 1.3493160228	 0.3093619699	 2.0738303399	-0.325124
C	 2.3568838664	-0.3945530953	 2.8653827407	 0.310856
C	 3.2017216873	-0.959683681	 3.5060401972	-0.426749
H	 0.7641820442	 2.0895038862	-0.3724352237	 0.125309
H	-0.8531592132	 1.8263187629	-1.0196076774	 0.128021
H	-0.6305606136	 2.0135457277	 0.7265353193	 0.110734
H	-1.0229464595	-0.3747230217	 0.1166953301	 0.073787
H	 0.4293009647	-1.5817944264	-1.4404156796	 0.079377
H	 1.4271022063	-0.2583113614	-3.0045096132	 0.288171
H	 2.5809512245	-1.5213737615	-0.1279459322	 0.102399
H	 2.639930852	 0.2545278262	-0.3485262673	 0.089126
H	 1.7293303553	 1.3247569475	 1.8503630675	 0.108838
H	 0.4431688822	 0.444707844	 2.6791262232	 0.132325
H	 3.940663571	-1.4628392069	 4.0787959412	 0.194478
57.5253	95.9257	118.659	224.7956	226.9552	232.1487	252.7128	304.892	340.8399	416.3813	428.0043	467.3414	568.1828	608.7955	654.8509	692.6072	791.1803	822.4836	916.7556	946.4442	980.5586	987.1761	1039.6478	1071.5772	1107.0447	1124.1102	1141.5212	1173.7409	1217.4314	1235.5149	1252.8159	1293.4436	1314.0931	1325.1222	1376.21	1384.0506	1402.9245	1433.5243	1478.7741	1491.1037	1493.7438	1517.8538	2241.4511	2913.5046	2969.4053	3015.0825	3029.2674	3030.4635	3043.6197	3067.649	3111.8281	3124.5995	3506.8294	3827.0626
CC1C(O)CN1CC#C	C[C@H]1[C@@H](O)CN1CC#C	
InChI=1S/C7H11NO/c1-3-4-8-5-7(9)6(8)2/h1,6-7,9H,4-5H2,2H3	InChI=1S/C7H11NO/c1-3-4-8-5-7(9)6(8)2/h1,6-7,9H,4-5H2,2H3/t6-,7-/m0/s1
