19
gdb 55896	3.63434	0.76037	0.67368	2.6081	78.19	-0.249	-0.0213	0.2277	1654.3023	0.155909	-423.046985	-423.037067	-423.036123	-423.083492	34.695	
C	-0.226703564	 1.5016478664	 0.0391434313	-0.47555
C	-0.0981963851	-0.008198445	 0.1157316653	 0.387
O	-0.1932396877	-0.610373275	 1.1593430823	-0.286324
C	 0.1763841893	-0.7240573375	-1.2088059405	-0.347399
C	 0.0539294934	-2.2271739211	-1.0903653792	 0.02002
C	-1.1607445232	-2.9575813035	-1.5471772269	-0.296343
C	 0.1541325243	-3.1622180414	-2.2966179293	-0.130188
C	 0.2712751802	-2.6284334334	-3.6701450595	 0.168605
O	 0.9423539817	-3.1228879638	-4.5427187196	-0.270601
H	 0.607738694	 1.9393535474	-0.5192369382	 0.138426
H	-1.143539654	 1.7668102269	-0.500763411	 0.144082
H	-0.2670258577	 1.9231283002	 1.0440556477	 0.14686
H	-0.4885888052	-0.3102844554	-1.9757897406	 0.119704
H	 1.1910586865	-0.4324229517	-1.5190029581	 0.136907
H	 0.5283117373	-2.6170369708	-0.1964203612	 0.122761
H	-1.5346117313	-3.7916480284	-0.9653759163	 0.134377
H	-1.9299287476	-2.3910531701	-2.0647184069	 0.120131
H	 0.6847446913	-4.0960286963	-2.1460154917	 0.109343
H	-0.3331052623	-1.7114936575	-3.8675954975	 0.058186
34.1193	62.1051	89.4355	117.0506	143.9732	227.7437	266.0603	351.7249	381.9724	440.7031	474.672	518.3077	585.0965	803.3226	810.5111	834.8793	853.0364	880.0323	939.8261	961.3051	987.0933	1047.9777	1057.9996	1077.2021	1132.0905	1144.8129	1182.9178	1194.3666	1231.452	1246.9409	1328.6001	1343.6777	1383.7043	1416.8838	1447.5041	1457.7348	1465.7532	1476.6943	1491.0756	1815.8757	1817.8234	2847.7817	3009.2616	3036.3937	3062.1621	3097.239	3129.3288	3154.0239	3173.169	3180.7574	3222.034
CC(=O)CC1CC1C=O	CC(=O)C[C@H]1C[C@H]1C=O	
InChI=1S/C7H10O2/c1-5(9)2-6-3-7(6)4-8/h4,6-7H,2-3H2,1H3	InChI=1S/C7H10O2/c1-5(9)2-6-3-7(6)4-8/h4,6-7H,2-3H2,1H3/t6-,7-/m0/s1
