17
gdb 41220	2.45503	1.86444	1.1441	3.997	76.71	-0.1917	-0.0137	0.178	1042.8733	0.138055	-417.98324	-417.975635	-417.974691	-418.015488	29.226	
C	-0.2567850829	 1.5640836197	-0.286911477	-0.245196
N	 0.9836062316	 1.2260614498	 0.4913511232	-0.316388
C	 1.3372298895	 0.1754677285	-0.4943637121	-0.14437
C	-0.0805714733	 0.2497868957	-1.0159280202	 0.202096
O	 2.192177385	-1.5403989944	 0.9982350312	-0.301437
C	 1.6346937009	-1.2333197279	-0.0242874324	 0.380241
C	 1.1380480529	-2.2856914101	-1.0377622715	-0.253086
N	-0.2492321114	-2.0782438907	-1.458734329	-0.311102
C	-0.7987852963	-0.800303966	-1.4120395574	-0.125822
H	-1.1521733939	 1.6893862932	 0.3316109307	 0.116019
H	-0.1459340499	 2.4519020426	-0.9288225009	 0.095123
H	 1.657723832	 1.9815377255	 0.5545492517	 0.218689
H	 2.1042921012	 0.4799107591	-1.2283572935	 0.084631
H	 1.834547727	-2.2453933923	-1.8942078457	 0.115703
H	 1.2422346325	-3.2678077627	-0.5701082688	 0.135816
H	-0.5528315033	-2.6686029236	-2.2195272283	 0.239777
H	-1.8593049416	-0.7502381462	-1.6413674101	 0.109306
96.2255	108.7919	222.5379	288.9508	367.1368	400.079	439.8181	513.7027	536.0823	573.6707	674.9965	687.7488	798.8942	873.5344	894.6337	942.6253	956.1578	979.7473	994.2053	1035.3767	1059.148	1117.9125	1138.8332	1158.1348	1192.1074	1219.6223	1251.5333	1271.4918	1312.5127	1351.8079	1373.7643	1388.1203	1476.0809	1504.8053	1510.9468	1766.0502	1836.5978	2929.4444	2951.3005	2974.6371	3055.0021	3094.859	3170.6574	3524.7002	3584.2807
C1NC2C11OC22CNC12	C1N[C@@H]2[C]1[CH]NCC2=O	
InChI=1S/C6H8N2O/c1-5-3(7-1)6(9-5)2-8-4(5)6/h3-4,7-8H,1-2H2	InChI=1S/C6H8N2O/c9-5-3-7-1-4-2-8-6(4)5/h1,6-8H,2-3H2/t6-/m1/s1
