13
gdb 125191	3.4802	1.65689	1.13036	5.7853	67.83	-0.2514	-0.0589	0.1926	984.8374	0.090421	-448.894422	-448.887241	-448.886296	-448.926758	26.103	
C	 0.0013907167	 1.5359365973	 0.1013139249	-0.502959
C	-0.0075038901	 0.056085417	-0.0679203046	 0.237924
C	 0.0558680655	-0.7919245712	-1.1689084058	 0.146199
N	 0.1482609947	-0.8898867089	-2.5327051745	-0.194076
N	 0.1569107264	-2.0704593081	-2.8994712516	-0.020917
O	 0.0577418783	-2.9829913216	-1.6393678408	-0.277148
C	 0.0029879211	-2.1021228609	-0.6603216462	 0.465464
N	-0.0881294708	-2.155343262	 0.6584233973	-0.354652
N	-0.0906885131	-0.8140242934	 0.9687375242	-0.24528
H	 0.9196823586	 1.9710739278	-0.3052687732	 0.162871
H	-0.8405035973	 1.9952606054	-0.4260155643	 0.162881
H	-0.0672863602	 1.8119470563	 1.156974671	 0.136223
H	-0.1537259799	-0.5632286678	 1.9427110535	 0.283468
41.0269	190.546	241.3302	267.4803	330.6804	399.4492	547.6295	585.8935	616.6101	633.6614	650.3487	715.2788	788.1482	819.2065	957.7844	1003.154	1054.9161	1085.6177	1180.0874	1285.4878	1314.1474	1422.7651	1435.552	1466.958	1471.3105	1497.6434	1535.1957	1569.7092	1658.0093	3042.7104	3103.8094	3121.1625	3656.8181
CC1=C2N=NOC2=NN1	Cc1c2nnoc2n[nH]1	
InChI=1S/C4H4N4O/c1-2-3-4(7-5-2)9-8-6-3/h1H3,(H,5,7)	InChI=1S/C4H4N4O/c1-2-3-4(7-5-2)9-8-6-3/h1H3,(H,5,7)
