21
gdb 73278	2.44626	1.65533	1.31325	2.5457	77.45	-0.2357	0.077	0.3127	1072.6582	0.183935	-424.217147	-424.208919	-424.207975	-424.249974	32.173	
C	-0.1111661493	 1.5083808358	 0.055949702	-0.440507
C	 0.0343813521	-0.0096506955	 0.012470206	 0.402023
C	-1.2822217654	-0.67245675	-0.3856145959	-0.128664
O	-1.3727400086	-2.0370197807	-0.0345348082	-0.242081
C	-1.1836064552	-2.2204051334	 1.356594044	-0.077247
C	 0.2804411541	-1.9907955842	 1.7293730168	-0.22907
C	 0.7997159503	-0.6263830999	 1.2285375564	-0.101253
C	 1.97666976	-0.6987817879	 0.2330687922	-0.086411
O	 1.1197448711	-0.3874062197	-0.8805432591	-0.318478
H	 0.850510211	 1.9817217758	 0.2732865387	 0.120373
H	-0.4612569697	 1.8858658908	-0.9109599072	 0.124861
H	-0.8283348525	 1.814899248	 0.8248730209	 0.114016
H	-2.1198988818	-0.1153301453	 0.0691808591	 0.07958
H	-1.3835351124	-0.6166621255	-1.4742521276	 0.120057
H	-1.8473290969	-1.5434453431	 1.9227120419	 0.0812
H	-1.4846742901	-3.2476805442	 1.5818243904	 0.107825
H	 0.4086888737	-2.0794722582	 2.8136265859	 0.096246
H	 0.8655789718	-2.7960681316	 1.2726351906	 0.110411
H	 0.9351658482	 0.0722455871	 2.0570883689	 0.071803
H	 2.7552231805	 0.0627469961	 0.3786946022	 0.092669
H	 2.455147399	-1.6785873544	 0.1209671319	 0.102647
65.1241	127.6428	223.4899	264.2654	321.7568	342.8377	384.2422	412.7418	467.1997	491.5277	592.9521	698.3666	771.9126	841.935	868.8162	885.5628	925.5849	948.2872	992.5865	1008.1139	1013.7603	1032.2143	1095.6665	1118.4508	1139.0611	1154.1938	1167.3911	1179.7326	1245.5253	1248.3437	1266.6977	1289.0095	1331.4189	1339.9672	1361.7529	1376.8416	1394.7589	1401.7359	1424.1325	1470.0101	1481.5578	1486.0432	1489.6841	1499.9758	1525.7076	2950.1253	2957.3044	3000.5864	3031.7024	3037.2279	3055.0302	3069.632	3080.1998	3083.7897	3089.7704	3101.8211	3112.2131
CC12COCCC1CO2	C[C@]12COCC[C@H]1CO2	
InChI=1S/C7H12O2/c1-7-5-8-3-2-6(7)4-9-7/h6H,2-5H2,1H3	InChI=1S/C7H12O2/c1-7-5-8-3-2-6(7)4-9-7/h6H,2-5H2,1H3/t6-,7-/m0/s1
