18
gdb 60653	2.48006	1.41483	1.13377	3.2499	67.17	-0.2565	0.0166	0.273	1119.8668	0.147758	-476.237801	-476.228951	-476.228007	-476.271909	32.73	
N	 0.2854250669	 0.5085748303	 1.0196224151	-0.514491
C	-0.0383276654	-0.5288689844	 0.2161533558	 0.369607
O	 0.7541329053	-1.3691243078	-0.185235996	-0.390265
C	-1.50743634	-0.5975924912	-0.2397266469	 0.006566
O	-1.6681092755	-1.7093754543	-1.0775571221	-0.437157
C	-2.5095966883	-0.7179589796	 0.9143799116	 0.130549
C	-2.2571113609	-1.7712318636	 2.0109377432	-0.286854
C	-2.3060401491	-0.5723126334	 2.9776180739	-0.070275
O	-2.4168781879	 0.3697425632	 1.8772520667	-0.310305
H	 1.2213226607	 0.5526452906	 1.3902179189	 0.262066
H	-0.4626472715	 1.0251562959	 1.4626103712	 0.276854
H	-1.7294750906	 0.3375800825	-0.7806282308	 0.098018
H	-0.7748919792	-2.0952928828	-1.1335124481	 0.296209
H	-3.5143412802	-0.7644969179	 0.4786912619	 0.098401
H	-3.0354356305	-2.5235067986	 2.1353099702	 0.119681
H	-1.287484271	-2.2670345042	 1.9402347292	 0.130686
H	-3.1890005151	-0.5266240278	 3.6248060182	 0.114314
H	-1.4094157277	-0.3878736369	 3.5792237482	 0.106394
63.5518	88.308	107.5978	196.8603	239.5914	322.0893	375.5721	427.4565	482.0622	494.4785	549.3734	622.1131	675.3144	709.2576	768.6962	799.7057	857.9997	896.8318	949.9901	1006.4492	1015.3819	1086.9617	1117.4656	1135.8824	1150.5712	1169.9338	1212.2313	1256.8856	1267.7845	1276.9885	1325.8062	1343.4109	1379.5154	1389.3838	1473.2832	1494.0855	1526.3423	1617.6056	1780.9888	2968.4258	3029.8052	3041.4013	3074.8709	3089.9317	3146.7007	3540.8509	3618.9985	3693.5658
NC(=O)C(O)C1CCO1	NC(=O)[C@@H](O)[C@H]1CCO1	
InChI=1S/C5H9NO3/c6-5(8)4(7)3-1-2-9-3/h3-4,7H,1-2H2,(H2,6,8)	InChI=1S/C5H9NO3/c6-5(8)4(7)3-1-2-9-3/h3-4,7H,1-2H2,(H2,6,8)/t3-,4+/m1/s1
