17
gdb 65819	2.56311	1.30175	1.18356	4.6141	71.94	-0.2432	-0.0354	0.2079	1119.7689	0.135668	-418.039998	-418.031419	-418.030475	-418.073373	32.059	
C	-0.067927294	 1.5291397895	 0.0504448057	-0.44583
C	 0.0333242199	 0.0015585669	-0.0093572537	 0.082093
C	 0.8243710141	-0.5376693685	-1.2304564339	-0.364012
C	 1.4965238392	-1.8129538593	-0.7029614807	 0.400801
O	 2.076386578	-2.6366866637	-1.355525862	-0.292623
C	 1.2934464549	-1.8275619033	 0.8210233169	-0.293224
N	 0.7364093573	-0.5224591956	 1.1882644107	-0.3049
C	-1.331117427	-0.5742698079	-0.020747527	 0.310168
N	-2.394656451	-1.0243234881	-0.0554566967	-0.335999
H	 0.9363659632	 1.9647475343	 0.0245724028	 0.122738
H	-0.6329299524	 1.9155489767	-0.8005780352	 0.148409
H	-0.5657918733	 1.8400635007	 0.9720261574	 0.152846
H	 0.2276153078	-0.742390712	-2.1207789596	 0.154948
H	 1.6079688422	 0.1785560408	-1.5056707835	 0.135491
H	 0.5869617795	-2.6319279352	 1.0662127602	 0.158198
H	 2.22623334	-2.0413967043	 1.347053869	 0.141583
H	 1.4868243516	 0.122827609	 1.4133777397	 0.229313
64.1445	121.4567	190.832	212.687	246.4025	296.5632	394.1081	451.9628	456.6274	486.9049	579.1495	610.9658	647.085	739.5108	750.5776	770.7866	830.942	916.8159	947.1679	1000.2587	1076.135	1091.7884	1103.6791	1164.9996	1181.4408	1230.9301	1269.1913	1280.5735	1314.8988	1407.9264	1443.1514	1457.518	1463.8534	1489.3135	1496.6245	1860.04	2357.2798	3029.2859	3043.2115	3048.3744	3115.1923	3120.0693	3128.2825	3139.3678	3523.1341
CC1(CC(=O)CN1)C#N	C[C@]1(CC(=O)CN1)C#N	
InChI=1S/C6H8N2O/c1-6(4-7)2-5(9)3-8-6/h8H,2-3H2,1H3	InChI=1S/C6H8N2O/c1-6(4-7)2-5(9)3-8-6/h8H,2-3H2,1H3/t6-/m0/s1
