14
gdb 29230	3.22926	1.44308	0.99738	2.6522	70.24	-0.1915	-0.0369	0.1546	1090.4395	0.103028	-470.054091	-470.04646	-470.045515	-470.086095	29.39	
O	-0.000336024	 1.4029549918	 0.0153288246	-0.452837
C	-0.0031166934	 0.0380606875	 0.0059784636	 0.219139
C	-1.144481825	-0.6927225185	 0.0062035411	-0.032964
N	-1.0782415569	-2.0534165302	-0.0034365408	-0.323913
C	 0.1220242915	-2.7818045083	-0.0140673043	 0.415092
N	 0.044218327	-4.0581311477	-0.0227518758	-0.581614
N	 1.286872706	-2.0204598856	-0.0141009143	-0.413923
C	 1.2082649356	-0.730478866	-0.0048044407	 0.342052
O	 2.3388588376	 0.0057703344	-0.0050969259	-0.426818
H	 0.9198507876	 1.6906737926	 0.013192534	 0.311296
H	-2.1272559272	-0.2397204466	 0.0138631652	 0.147314
H	-1.9186290141	-2.6101461425	-0.00355075	 0.271496
H	 0.9842859473	-4.4467071663	-0.0298476558	 0.215981
H	 3.0781710482	-0.6194925047	-0.0127146309	 0.309699
92.805	215.7844	268.7343	298.5651	334.6443	369.2199	390.6796	484.0058	545.9892	557.5844	591.1143	601.2191	732.309	755.6741	760.5527	808.7967	810.3332	904.0663	935.7024	1079.0787	1187.8967	1224.4061	1236.5872	1276.8113	1330.7131	1413.0995	1458.714	1513.0945	1618.37	1715.3637	1748.1409	3225.2805	3525.5898	3640.4402	3759.4599	3813.4568
OC1=CNC(=N)N=C1O	OC1=C(N=C(NC1)[NH])O	
InChI=1S/C4H5N3O2/c5-4-6-1-2(8)3(9)7-4/h1,8H,(H3,5,6,7,9)	InChI=1S/C4H6N3O2/c5-4-6-1-2(8)3(9)7-4/h5,8H,1H2,(H2,6,7,9)
