21
gdb 53281	2.41743	0.93071	0.76719	1.4369	88.81	-0.229	0.0546	0.2837	1584.8673	0.179789	-387.057383	-387.046563	-387.045619	-387.094689	38.407	
C	 0.012827892	 1.4252987579	-0.6784451632	-0.498564
C	-0.0336950247	-0.0100157568	-0.4369177905	 0.048407
C	-0.0647457007	-1.1977678708	-0.2308515516	 0.094372
C	-0.082195348	-2.6171196535	-0.0133086873	-0.20315
C	-0.1202981332	-3.1921215125	 1.3959374567	-0.30212
C	-1.3212883691	-3.334022193	 0.5114027203	 0.030109
C	-2.5888523575	-2.5710205383	 0.8103596252	 0.111581
C	-3.4508241692	-2.3807319147	-0.4385540677	-0.410551
O	-3.278220288	-3.3198872646	 1.8122505081	-0.443426
H	 0.5183989769	 1.9541550694	 0.1375548715	 0.146097
H	 0.5546488518	 1.6528399441	-1.6033899123	 0.147611
H	-0.9929703226	 1.8497461554	-0.7745800966	 0.144462
H	 0.5015174461	-3.1853636827	-0.7324577328	 0.106737
H	 0.4882382645	-4.0656542884	 1.6002550881	 0.11507
H	-0.1822979781	-2.4809758165	 2.2118728137	 0.12541
H	-1.4986257074	-4.3182030702	 0.0855809251	 0.090389
H	-2.3114870408	-1.5802936293	 1.2026159709	 0.070875
H	-3.7194527525	-3.3500472575	-0.8712005821	 0.118565
H	-4.3777476805	-1.8479729814	-0.1945007439	 0.099507
H	-2.9150164699	-1.7929652652	-1.1897322092	 0.131385
H	-4.1294635892	-2.8953189915	 1.9593775877	 0.277231
26.101	59.8692	73.2468	129.0341	183.5965	232.5162	252.2528	279.2218	304.9223	341.1106	358.5574	427.0303	481.9953	525.1242	598.1983	701.093	789.8677	847.8193	900.5569	936.2847	961.6726	982.7928	1050.7983	1054.2166	1061.3546	1069.214	1090.2685	1119.4209	1135.2916	1173.0798	1183.052	1238.9608	1284.3839	1348.3331	1368.465	1393.5045	1403.6157	1416.1824	1453.2383	1478.1491	1480.1787	1487.1729	1494.6952	1505.0987	2363.5913	2983.1325	3023.4366	3025.9651	3081.7027	3084.0469	3092.8133	3116.6876	3135.5669	3138.6731	3147.5605	3228.7241	3814.6959
CC#CC1CC1C(C)O	CC#C[C@H]1C[C@H]1[C@@H](C)O	
InChI=1S/C8H12O/c1-3-4-7-5-8(7)6(2)9/h6-9H,5H2,1-2H3	InChI=1S/C8H12O/c1-3-4-7-5-8(7)6(2)9/h6-9H,5H2,1-2H3/t6-,7+,8+/m1/s1
