18
gdb 70143	2.74757	1.70414	1.23584	2.2954	80.54	-0.213	-0.0089	0.2041	1037.9172	0.150081	-398.130098	-398.122391	-398.121446	-398.161902	30.627	
C	 0.0174706485	 1.4548251576	-0.1112878122	-0.426756
C	-0.1116651327	-0.0524511047	 0.0300652857	 0.300563
C	-0.8078199909	-0.5719331646	 1.2766830713	-0.313374
C	 0.7006819569	-0.7091905616	 1.1367405851	-0.030245
N	 1.3066914195	-1.9920343824	 1.1631774959	-0.243891
C	 1.4167843122	-2.7525044371	 0.1580321427	 0.084186
N	 0.9733577956	-2.599391227	-1.1536258074	-0.312209
C	 0.0396855925	-1.7124657865	-1.6844956913	 0.07182
N	-0.4631936526	-0.6500203263	-1.2162063597	-0.288353
H	 0.8515394631	 1.7129504956	-0.7722068024	 0.117895
H	-0.8978360837	 1.8681439653	-0.5458538578	 0.125961
H	 0.1884074644	 1.9316312917	 0.8579271355	 0.110126
H	-1.22189228	 0.1312894711	 1.9932561296	 0.112763
H	-1.3739422062	-1.4893908354	 1.1580676827	 0.120924
H	 1.267483287	-0.0080857304	 1.7452859394	 0.098989
H	 1.9315733354	-3.7058468617	 0.289492987	 0.111352
H	 1.1841966983	-3.3829343263	-1.7543541066	 0.250066
H	-0.2908970273	-2.0407706673	-2.6718494474	 0.110185
116.6203	191.9707	231.3466	317.8976	326.924	349.5852	416.9758	456.4946	542.5005	552.6654	639.629	647.7684	756.4623	808.3297	864.8625	895.5225	925.5999	940.2107	945.0188	960.923	985.4943	1031.6077	1056.9819	1108.4423	1117.6364	1141.3685	1202.2797	1268.3861	1308.5898	1393.8281	1412.6438	1431.5367	1468.5287	1480.3684	1484.5155	1501.3701	1525.6243	1748.4957	1777.2852	3035.121	3102.6441	3108.7002	3112.9576	3114.149	3122.9397	3128.952	3219.6464	3600.571
CC12CC1N=CNC=N2	C[C@]12C[C@H]1N=CNC=N2	
InChI=1S/C6H9N3/c1-6-2-5(6)8-3-7-4-9-6/h3-5H,2H2,1H3,(H,7,8,9)	InChI=1S/C6H9N3/c1-6-2-5(6)8-3-7-4-9-6/h3-5H,2H2,1H3,(H,7,8,9)/t5-,6+/m1/s1
