17
gdb 5085	3.34074	1.92388	1.24215	1.6215	72.26	-0.1845	0.0363	0.2209	976.6706	0.141815	-363.899138	-363.890534	-363.88959	-363.931974	31.136	
C	-0.0471347843	 1.5283875355	-0.0045885182	-0.512029
C	-0.0429592583	 0.0330848652	 0.0101650061	 0.241484
C	-0.1350163449	-0.8212741402	-1.0417209596	-0.128634
O	-0.1138530453	-2.1139863968	-0.6312598172	-0.190879
C	 0.0078557551	-2.1030868829	 0.7369909355	 0.321104
C	 0.0389750719	-3.4210363607	 1.4219482249	-0.498506
C	 0.048448251	-0.811390293	 1.1769393787	 0.009474
N	 0.0749271476	-0.3307434104	 2.4997950515	-0.609532
H	 0.9002136779	 1.9465803737	 0.3604289518	 0.118061
H	-0.2031542775	 1.9128437654	-1.0162221108	 0.125128
H	-0.8407500779	 1.9300574134	 0.6361118809	 0.135259
H	-0.2179651412	-0.6639675168	-2.1051894221	 0.123738
H	 0.7283933811	-4.1098735681	 0.921345676	 0.136087
H	 0.3789002629	-3.3045399815	 2.4559369106	 0.117521
H	-0.9451383826	-3.9064862031	 1.4524295622	 0.134149
H	 0.2937580939	-1.0558253829	 3.1718124116	 0.236695
H	 0.7357797907	 0.4284963532	 2.618713458	 0.240881
98.3405	140.668	145.8929	196.8618	234.3666	264.6423	299.8598	334.4911	476.6535	561.3847	607.7613	674.639	717.7695	734.2505	747.716	792.9394	934.4828	997.3774	1012.4347	1058.196	1065.084	1181.1879	1196.2551	1220.3188	1277.4707	1312.9251	1412.507	1419.9997	1457.3865	1469.371	1481.6427	1493.9155	1502.6085	1610.8821	1647.036	1703.2246	3015.1435	3016.1587	3065.5072	3068.1451	3101.2906	3109.7564	3266.3469	3517.1849	3607.4133
CC1=COC(C)=C1N	Cc1coc(C)c1N	
InChI=1S/C6H9NO/c1-4-3-8-5(2)6(4)7/h3H,7H2,1-2H3	InChI=1S/C6H9NO/c1-4-3-8-5(2)6(4)7/h3H,7H2,1-2H3
