21
gdb 93657	2.424	1.46027	1.17961	1.5131	78.27	-0.2372	-0.0219	0.2153	1170.1236	0.1803	-424.267359	-424.257546	-424.256602	-424.30172	36.483	
C	-0.0319920245	 1.5971196177	 0.0039415977	-0.409157
C	 0.0621961997	 0.0752194336	-0.0168380408	-0.100518
C	 0.8412244746	-0.5769436438	-1.164325122	-0.115745
O	 1.2567485309	-1.8498484035	-0.6720518139	-0.292504
C	 1.5949157344	-1.7281446038	 0.71415517	 0.266065
C	 1.1670003644	-3.0023511471	 1.4384649328	-0.418383
C	 3.0952952676	-1.4473935691	 0.8927356335	-0.417536
C	 0.7855892648	-0.5113535906	 1.1972115801	 0.362128
O	 0.7543920252	-0.0936706624	 2.3261025312	-0.335305
H	 0.9589430675	 2.0530344055	-0.0931828195	 0.121137
H	-0.6581231838	 1.9700542997	-0.8116941661	 0.118639
H	-0.4601301356	 1.9304632076	 0.9529461618	 0.142799
H	-0.9474060081	-0.3611223955	 0.0047418647	 0.113426
H	 0.2467082343	-0.7515433354	-2.064043088	 0.114539
H	 1.7075362795	 0.04567681	-1.4425619409	 0.093189
H	 1.7499535194	-3.8549118271	 1.078354089	 0.124111
H	 1.3266782067	-2.8901049866	 2.5140683268	 0.13541
H	 0.1085992389	-3.2096715186	 1.2591348008	 0.119935
H	 3.4048075283	-0.5595569971	 0.3328011385	 0.116828
H	 3.3241520056	-1.2794204024	 1.9485872593	 0.13642
H	 3.6756641603	-2.3000707611	 0.529280295	 0.124523
56.2244	163.6244	187.1665	191.4629	204.7254	218.9072	242.6019	288.4628	328.3675	360.0414	430.2278	515.3713	549.2533	619.9977	681.6341	743.3225	836.6702	898.3866	921.1149	938.069	958.5709	995.3496	1019.5442	1049.1923	1094.2249	1145.7095	1158.1852	1187.1373	1203.1941	1232.2891	1285.7026	1296.3282	1316.0862	1386.5332	1389.9462	1406.9385	1411.1236	1475.1155	1480.1485	1494.6993	1496.4019	1497.3875	1504.3741	1519.7246	1846.1092	2968.6734	3007.6683	3039.5981	3040.4232	3045.1071	3097.5413	3107.8614	3111.5819	3119.2001	3122.9424	3125.4256	3131.0834
CC1COC(C)(C)C1=O	C[C@H]1COC(C)(C)C1=O	
InChI=1S/C7H12O2/c1-5-4-9-7(2,3)6(5)8/h5H,4H2,1-3H3	InChI=1S/C7H12O2/c1-5-4-9-7(2,3)6(5)8/h5H,4H2,1-3H3/t5-/m0/s1
