16
gdb 97697	2.92495	0.82264	0.696	4.3884	80.86	-0.2711	-0.0197	0.2513	1634.3703	0.121823	-400.706548	-400.696972	-400.696027	-400.743766	32.956	
C	 0.1606841882	 1.3207871832	 0.5743315176	-0.369036
C	-0.1464932301	 0.2682806581	-0.5070972033	-0.326448
C	-1.4861580952	-0.2941550287	-0.3925293722	 0.180678
C	-2.5952849466	-0.7481659573	-0.2745100947	-0.039521
C	-3.9286017308	-1.2702123567	-0.1439380473	 0.131188
C	-4.2845224795	-2.6218363139	-0.6531450067	-0.19862
O	-4.1230836533	-2.3935850454	 0.7360635515	-0.241359
C	-4.9889326536	-0.274389485	-0.0796786179	 0.230334
N	-5.8266528464	 0.5202269315	-0.0431294525	-0.328958
H	 1.1739017127	 1.7103935449	 0.4423963738	 0.122119
H	-0.5417721926	 2.1559059036	 0.51442529	 0.137879
H	 0.0847301834	 0.8847302804	 1.5736164508	 0.136366
H	-0.0317847656	 0.713621202	-1.5034185051	 0.141585
H	 0.5864624847	-0.5464584827	-0.4535180421	 0.140958
H	-5.3027682047	-2.8052558223	-0.9906483996	 0.143633
H	-3.4993697406	-3.2006270319	-1.1348990022	 0.139201
7.3039	68.9535	99.4651	182.8228	201.802	225.4067	237.0681	343.5839	438.3622	460.8647	509.818	572.6056	595.7517	613.2971	783.5135	819.0545	849.8528	919.7166	959.464	1050.154	1087.8057	1103.2709	1136.5449	1169.5728	1268.1925	1284.5033	1331.8711	1355.5434	1411.3069	1468.7202	1495.1316	1504.8028	1512.327	2363.8978	2367.8439	3025.9217	3049.3037	3055.578	3093.7687	3124.5687	3130.1555	3194.6541
CCC#CC1(CO1)C#N	CCC#C[C@]1(CO1)C#N	
InChI=1S/C7H7NO/c1-2-3-4-7(5-8)6-9-7/h2,6H2,1H3	InChI=1S/C7H7NO/c1-2-3-4-7(5-8)6-9-7/h2,6H2,1H3/t7-/m1/s1
