23
gdb 109710	1.99739	1.45021	1.06759	0.9959	86.9	-0.2295	0.0767	0.3062	1283.2164	0.204301	-388.255795	-388.245761	-388.244817	-388.290868	36.847	
C	 0.4483880143	 1.1036959407	-0.2374145084	-0.232641
O	-0.266525992	 0.0415461921	 0.3600642262	-0.232398
C	 0.4748463583	-0.6321158845	 1.3294375589	 0.04173
C	-0.0097760704	-1.9944261246	 1.7417416066	-0.147552
C	-1.2468003338	-2.6003893656	 1.1140683971	-0.40274
C	 1.2695238793	-1.857399338	 0.9487418413	 0.323165
C	 1.5405387591	-2.3170963043	-0.4902602574	-0.285487
C	 3.0620468588	-2.3133497351	-0.1518991497	-0.205569
C	 2.7140235682	-2.1690212177	 1.3602015481	-0.299444
H	 1.3660588664	 0.7561427481	-0.7328521659	 0.10775
H	-0.2097798649	 1.5582942994	-0.9818539535	 0.125595
H	 0.7266809865	 1.8680126264	 0.504571318	 0.105613
H	 0.8912620098	 0.0209611789	 2.101017218	 0.073439
H	 0.119484093	-2.2210339527	 2.7987320372	 0.079409
H	-1.354543652	-2.2855114238	 0.0741308932	 0.131834
H	-1.2041063949	-3.6948305336	 1.140552946	 0.110034
H	-2.1503809274	-2.2878777367	 1.6481916957	 0.116798
H	 1.1557775373	-3.3217350904	-0.6944512169	 0.098982
H	 1.2050671596	-1.6550606845	-1.292257657	 0.103201
H	 3.6300433791	-3.2001968313	-0.441012805	 0.096811
H	 3.5743683994	-1.4323842288	-0.5468143566	 0.100756
H	 3.2474417885	-1.3938537269	 1.9190600976	 0.093229
H	 2.8066155779	-3.113228427	 1.9076257563	 0.097485
71.2564	115.901	137.1893	154.0066	162.0745	189.0381	202.3634	243.0302	354.9086	410.4277	499.5319	553.2994	613.9884	712.3974	776.7816	804.3696	854.8014	870.0745	935.6123	949.3194	962.0493	993.6256	1024.0194	1063.0667	1099.3736	1110.1703	1142.4444	1158.5001	1175.161	1185.2006	1186.2084	1217.4239	1220.9893	1239.405	1251.7989	1271.7476	1277.89	1324.4317	1357.0281	1411.9347	1449.568	1477.4419	1480.9894	1485.4219	1487.5537	1490.8145	1503.382	1505.6454	1512.3798	2980.4155	3031.2698	3033.9367	3036.4958	3046.4382	3060.6792	3063.2518	3081.3176	3090.2728	3095.878	3114.1581	3115.4308	3118.9259	3133.4564
COC1C(C)C11CCC1	CO[C@H]1[C@@H](C)C21CCC2	
InChI=1S/C8H14O/c1-6-7(9-2)8(6)4-3-5-8/h6-7H,3-5H2,1-2H3	InChI=1S/C8H14O/c1-6-7(9-2)8(6)4-3-5-8/h6-7H,3-5H2,1-2H3/t6-,7+/m1/s1
