15
gdb 47880	2.40082	1.78469	1.16209	5.6596	62.18	-0.2567	-0.0683	0.1885	1017.3462	0.112717	-494.927283	-494.919383	-494.918439	-494.960487	28.3	
O	-0.0400095595	-0.0023944551	 0.0189078324	-0.266214
C	-0.0601152485	 1.1981288255	 0.0315119728	 0.296824
C	-1.3342969426	 2.019709331	 0.1248948993	-0.352683
C	-1.7139120474	 2.4963065263	-1.2854765619	-0.081567
O	-0.5595089672	 2.8532602127	-2.0467670961	-0.22607
C	 0.2910853789	 3.757544737	-1.4378687757	 0.023097
O	 1.3425007279	 3.1686771199	-0.6509093171	-0.236372
C	 1.2810204965	 1.9793557377	-0.0081953031	 0.338111
O	 2.2477316565	 1.5496673135	 0.5512289778	-0.289545
H	-2.1282359858	 1.3976819425	 0.5435482095	 0.144641
H	-1.1727416712	 2.8760950766	 0.7898576841	 0.130237
H	-2.180107495	 1.6826936376	-1.8447561519	 0.146331
H	-2.4155129952	 3.3399159139	-1.2409666838	 0.116705
H	 0.8242590731	 4.2955829242	-2.2237039728	 0.144841
H	-0.2527923105	 4.4677221267	-0.7989865036	 0.111661
60.6099	92.2341	162.5402	240.3739	341.3359	346.4318	379.8998	433.6483	526.7719	618.7352	679.3829	712.8629	803.9196	858.8689	909.6767	990.371	1021.692	1042.6973	1068.4665	1137.5139	1178.4789	1212.9259	1249.6714	1277.1591	1317.8635	1340.9051	1402.0927	1462.1502	1475.4354	1504.0736	1523.307	1836.4401	1840.3013	3005.5072	3020.2755	3046.0098	3112.4688	3116.9749	3127.0739
O=C1CCOCOC1=O	O=C1CCOCOC1=O	
InChI=1S/C5H6O4/c6-4-1-2-8-3-9-5(4)7/h1-3H2	InChI=1S/C5H6O4/c6-4-1-2-8-3-9-5(4)7/h1-3H2
