23
gdb 103835	2.7062	1.08964	0.88949	2.0115	82.38	-0.257	0.0811	0.3382	1434.2565	0.202891	-425.422264	-425.411528	-425.410583	-425.458099	39.769	
C	 0.1169185401	 1.3807872945	-0.4654464419	-0.383394
C	-0.0351439286	 0.1405467227	 0.4269959717	-0.272528
C	-1.3825498455	-0.5473435783	 0.2721343165	 0.40236
C	-2.5854535964	 0.2311736633	 0.7677960793	-0.457721
O	-1.6184852907	-1.2050239829	-1.0038972002	-0.309523
C	-1.5075984435	-2.0143000809	 0.1786580547	-0.036195
C	-0.3537822885	-3.0218692715	 0.1699189008	 0.093634
C	-0.8717094049	-4.4342104179	-0.1226430594	-0.393955
O	 0.6384531472	-2.6503821005	-0.7718311143	-0.430162
H	 1.1204667834	 1.8038983041	-0.3637087321	 0.116185
H	-0.0332195426	 1.1182298733	-1.5172642921	 0.128032
H	-0.5992864609	 2.1678844078	-0.2102386867	 0.115554
H	 0.7609938872	-0.5698639715	 0.1980967667	 0.135746
H	 0.0782148654	 0.4250456844	 1.4810458745	 0.096121
H	-2.6728075601	 1.1908897747	 0.2500649483	 0.131081
H	-3.5077160514	-0.3290723426	 0.5963000452	 0.125644
H	-2.4947106645	 0.4350633884	 1.8401509918	 0.121598
H	-2.4571309908	-2.4430485837	 0.5061810689	 0.084563
H	 0.1254427904	-3.0178452115	 1.1588577466	 0.088943
H	-1.5633924289	-4.7733913977	 0.6565556825	 0.108194
H	-1.3954918495	-4.4599582656	-1.0843258748	 0.121408
H	-0.0321785796	-5.1320752562	-0.1702611318	 0.125093
H	 0.1704617124	-2.1358139422	-1.4459150841	 0.289321
47.3084	77.2703	147.7768	176.1916	200.582	209.3283	257.3115	260.2676	308.8835	323.8378	384.2066	431.8172	471.5636	514.2756	582.7746	649.1018	697.5451	777.8656	801.9049	874.3769	915.031	944.3542	989.4283	1003.5536	1023.8883	1058.7476	1080.3225	1107.1469	1129.0947	1150.3874	1171.0999	1246.2666	1279.7876	1318.4806	1325.3921	1361.3385	1393.4469	1402.543	1408.6033	1414.3953	1438.2719	1462.4869	1482.6404	1492.643	1494.9549	1495.9743	1502.0743	1504.3923	1510.3799	3010.2421	3030.7969	3031.7291	3039.5467	3042.1709	3085.3944	3099.5422	3102.1042	3107.781	3112.39	3122.751	3124.058	3125.6035	3723.2761
CCC1(C)OC1C(C)O	CC[C@@]1(C)O[C@H]1[C@@H](C)O	
InChI=1S/C7H14O2/c1-4-7(3)6(9-7)5(2)8/h5-6,8H,4H2,1-3H3	InChI=1S/C7H14O2/c1-4-7(3)6(9-7)5(2)8/h5-6,8H,4H2,1-3H3/t5-,6+,7-/m1/s1
