19
gdb 91584	2.78749	1.16831	0.96383	1.9562	75.98	-0.2349	-0.0275	0.2074	1256.8809	0.156812	-422.99465	-422.985602	-422.984657	-423.0294	33.082	
C	-0.05725856	 1.5345453027	-0.2196756096	-0.414824
C	 0.1593958657	 0.0386927502	-0.1366819626	 0.112455
O	 1.3575490526	-0.4277853738	-0.8315950305	-0.305793
C	 1.7624475757	-1.1573596233	 0.3245623895	 0.046791
C	 2.0548588948	-0.2317880324	 1.462007818	-0.354045
C	 0.6180777571	-0.6376917907	 1.1654375614	 0.241309
C	-0.3028124129	-1.2973969954	 2.1586544801	-0.394362
C	-0.9641935314	-0.2693232937	 3.0591491085	 0.166923
O	-2.153038649	-0.1222271785	 3.1754571404	-0.23736
H	 0.7746879816	 2.0889589195	 0.2223068355	 0.122007
H	-0.1560914494	 1.8430672365	-1.2651198207	 0.132807
H	-0.9798552182	 1.8087765812	 0.303325937	 0.130165
H	-0.7092836204	-0.4947198291	-0.5464689392	 0.086893
H	 2.1775048058	-2.149326484	 0.1865873932	 0.108173
H	 2.4722291775	-0.6997485983	 2.3490763851	 0.114781
H	 2.4218311509	 0.7695919973	 1.2579576711	 0.120915
H	-1.0861294283	-1.8793529577	 1.6624812471	 0.123625
H	 0.2765856417	-1.9774661394	 2.7984979262	 0.121019
H	-0.2462678538	 0.3777237289	 3.6138301294	 0.078523
40.9758	67.2216	137.2681	214.1549	220.3806	269.8898	320.1097	357.8727	454.8746	484.4791	532.6848	668.475	709.0941	815.7808	837.4596	869.9024	895.9086	917.7282	983.5171	998.3833	1031.372	1054.5098	1065.1412	1084.495	1090.2243	1133.9759	1138.9322	1179.5936	1248.7533	1262.7878	1304.6144	1313.222	1380.03	1396.5065	1416.3351	1425.6116	1454.3604	1481.8938	1484.4522	1496.7783	1833.8708	2869.9413	3010.2919	3018.1952	3039.2993	3087.7005	3108.5873	3117.4695	3122.609	3178.2599	3206.5293
CC1OC2CC12CC=O	C[C@H]1O[C@H]2C[C@@]12CC=O	
InChI=1S/C7H10O2/c1-5-7(2-3-8)4-6(7)9-5/h3,5-6H,2,4H2,1H3	InChI=1S/C7H10O2/c1-5-7(2-3-8)4-6(7)9-5/h3,5-6H,2,4H2,1H3/t5-,6+,7+/m1/s1
