15
gdb 123666	4.10671	1.63484	1.28063	1.7872	70.61	-0.2044	0.0032	0.2075	933.2475	0.11713	-412.964462	-412.958086	-412.957142	-412.994962	25.765	
C	 0.0074108433	 1.4828804019	 0.1086370197	-0.302146
C	 1.3118322859	 0.728913195	 0.0186281639	-0.003722
N	 2.0436303402	 0.3532929581	 1.2289602899	-0.402865
C	 1.1648044741	-0.4287218637	 1.9744502088	 0.348595
N	 1.1699058019	-1.0111484169	 3.1604096276	-0.336437
N	-0.0048380264	-1.6850625069	 3.1190492958	-0.11589
N	-0.7413231017	-1.5685441541	 2.0071540183	-0.319383
C	-0.0035873544	-0.7522660584	 1.2703301318	 0.319762
C	-0.0210231734	-0.0345324068	-0.0213591218	-0.18506
H	-0.2888356193	 1.9180626552	 1.0569789194	 0.123329
H	-0.2836754248	 2.0535173352	-0.7665966621	 0.120985
H	 1.9247921388	 0.8399916098	-0.8682891212	 0.106153
H	 2.5343039676	 1.0971611168	 1.7066230981	 0.248598
H	-0.292320279	-2.2743193338	 3.8809440973	 0.28763
H	-0.3940061526	-0.4892598615	-0.9301897654	 0.110452
169.6178	267.7454	288.7414	393.2963	441.2071	482.8676	559.5483	654.3878	674.508	708.1622	781.3472	798.5812	819.0386	839.4664	948.8365	976.3773	984.5791	1034.892	1058.4121	1093.2995	1130.8581	1144.3534	1167.6983	1189.796	1213.8768	1304.8266	1339.7559	1369.2337	1445.0678	1467.8479	1473.063	1557.2243	1632.6465	3132.2712	3174.7658	3193.3906	3223.9582	3582.9847	3695.4929
C1C2NC3=NNN=C3C12	C1[C@H]2Nc3n[nH]nc3[C@@H]12	
InChI=1S/C5H6N4/c1-2-3(1)6-5-4(2)7-9-8-5/h2-3H,1H2,(H2,6,7,8,9)	InChI=1S/C5H6N4/c1-2-3(1)6-5-4(2)7-9-8-5/h2-3H,1H2,(H2,6,7,8,9)/t2-,3+/m0/s1
