21
gdb 115351	2.44006	1.38694	1.11658	1.8814	73.98	-0.2438	0.0638	0.3075	1191.221	0.182108	-461.353677	-461.344155	-461.343211	-461.388386	35.333	
C	 0.0856426875	 0.865423725	-0.5129633513	-0.254299
O	-0.3361086739	-0.2849527335	 0.2027550683	-0.262421
C	 0.5065127378	-0.6312424251	 1.296757502	 0.047665
C	-0.3360833959	-1.2353937217	 2.4360969733	-0.102962
O	 0.2105040553	-2.5145367418	 2.7331932996	-0.262446
C	 0.7986668493	-3.0378954431	 1.5431354816	 0.082669
C	-0.2184889772	-3.7289882639	 0.6346018348	-0.419476
C	 1.4705641755	-1.7967077084	 0.9013267266	 0.102444
O	 1.6990373004	-1.8748498989	-0.4847279125	-0.432869
H	 1.0778696689	 0.7281562346	-0.9608244738	 0.127675
H	-0.6470827685	 1.0326447291	-1.3063430369	 0.13039
H	 0.1102350645	 1.7499914786	 0.1394891003	 0.114856
H	 1.0617082251	 0.2553090398	 1.6212776395	 0.077193
H	-0.3058756765	-0.6445113681	 3.3555058508	 0.107564
H	-1.3797958917	-1.3009063798	 2.0986909406	 0.107326
H	 1.546156274	-3.7667135715	 1.8713854952	 0.081716
H	-0.9833669847	-3.0322586373	 0.2761863043	 0.123541
H	 0.285088139	-4.1577338592	-0.2363588502	 0.125997
H	-0.7173708133	-4.532914977	 1.1822445101	 0.12238
H	 2.444436558	-1.6405227539	 1.3738214106	 0.092336
H	 0.8468040564	-1.6860020638	-0.8994946228	 0.290723
39.0918	104.8493	158.6864	189.9491	236.9565	256.7077	292.0496	309.6952	393.2012	412.5656	482.3153	508.5094	565.1253	677.6398	743.3823	791.7011	848.1528	876.4476	975.9853	1020.0471	1042.8793	1057.1822	1102.2656	1113.4351	1122.0486	1144.806	1156.5467	1182.3137	1216.5876	1244.4856	1253.6705	1285.8643	1319.7162	1332.3088	1366.8796	1384.2254	1402.3303	1407.0363	1440.1699	1479.6647	1488.7015	1493.3476	1500.2369	1514.2385	1516.4227	2995.7152	3008.4783	3039.4923	3042.4716	3056.3768	3059.1243	3075.5085	3089.4421	3115.1609	3118.3286	3124.7063	3760.956
COC1COC(C)C1O	CO[C@H]1CO[C@@H](C)[C@H]1O	
InChI=1S/C6H12O3/c1-4-6(7)5(8-2)3-9-4/h4-7H,3H2,1-2H3	InChI=1S/C6H12O3/c1-4-6(7)5(8-2)3-9-4/h4-7H,3H2,1-2H3/t4-,5-,6+/m0/s1
