15
gdb 15150	13.23768	0.62007	0.61907	1.9956	92.65	-0.2225	-0.0137	0.2087	1794.087	0.118017	-325.456672	-325.447921	-325.446977	-325.491878	29.587	
C	-0.0119115572	 1.4774267017	-0.0061578702	-0.518123
C	 0.0016004304	 0.0256367639	-0.003960373	 0.239101
C	 0.0145828192	-1.1851981279	-0.0018342765	-0.194106
C	 0.0286091816	-2.5436153707	 0.0007548853	-0.224007
C	 0.0384805893	-3.7563862356	 0.0123869677	 0.340526
C	 0.0440116183	-5.1871391998	-0.0080309368	-0.20767
C	-0.4036409676	-5.9524916484	 1.1980997492	-0.224839
N	-1.2388847633	-5.9389726553	-0.0038604541	-0.303289
H	 0.9965184811	 1.8817676596	 0.1376703557	 0.157624
H	-0.3971342006	 1.8705248007	-0.9538167834	 0.156997
H	-0.6444901741	 1.8678124876	 0.7991481832	 0.156912
H	 0.7986358737	-5.6410478761	-0.6458406684	 0.12226
H	 0.0697850942	-6.9050175231	 1.418423413	 0.128045
H	-0.7133627722	-5.3771153351	 2.0653229762	 0.127568
H	-2.0027414127	-5.2776233114	 0.1167446022	 0.243002
19.4571	70.8566	78.9252	173.3379	190.2918	326.2464	329.9475	438.6824	491.9601	539.3935	568.2096	611.8873	802.8819	828.4032	936.0276	966.7082	1009.3437	1047.0986	1048.1745	1109.5674	1130.2047	1176.3473	1247.2353	1292.166	1301.477	1399.1758	1416.1646	1471.0649	1472.1633	1503.7862	2273.4434	2376.4065	3023.6245	3085.9219	3086.1198	3115.2121	3135.376	3206.9058	3503.1682
CC#CC#CC1CN1	CC#CC#C[C@H]1CN1	
InChI=1S/C7H7N/c1-2-3-4-5-7-6-8-7/h7-8H,6H2,1H3	InChI=1S/C7H7N/c1-2-3-4-5-7-6-8-7/h7-8H,6H2,1H3/t7-/m0/s1
