21
gdb 111585	3.13259	1.34362	1.2289	1.1647	81.12	-0.2549	0.0735	0.3284	1112.3385	0.184522	-387.04104	-387.033235	-387.032291	-387.073443	31.297	
O	-0.1218332805	 1.5176879415	-0.1815826146	-0.424051
C	 0.0529018276	 0.1235792814	 0.0435491704	-0.108516
C	-1.3102586831	-0.5297452289	-0.0554552832	 0.050953
C	-2.0690033471	-0.6007973965	-1.4089575814	-0.046574
C	-1.253731808	-1.2110795926	-2.5777534406	-0.232108
C	-1.4589945584	-2.6319196051	-1.9976283106	-0.025805
C	-0.5565854511	-2.9295307503	-0.775132361	-0.232333
C	-1.4730079	-2.0617957134	 0.1285097521	-0.079292
C	-2.5476457253	-2.0492419477	-1.0221776366	-0.039379
H	 0.7449171002	 1.9339001192	-0.1761886889	 0.285006
H	 0.7463229552	-0.3087653424	-0.69338832	 0.082867
H	 0.4800711963	-0.0712076632	 1.0421467128	 0.080556
H	-1.9707980265	-0.0320766865	 0.6647526088	 0.078386
H	-2.7320526884	 0.2311582413	-1.6444435583	 0.066493
H	-1.8017961723	-1.0955808028	-3.5179681206	 0.096989
H	-0.2271158549	-0.8639408213	-2.7378693092	 0.088161
H	-1.6308905394	-3.4447298738	-2.7045659241	 0.058773
H	-0.6365011198	-3.9821342666	-0.4858042296	 0.096665
H	 0.5068025645	-2.6762229977	-0.8472125525	 0.086586
H	-1.6527062742	-2.4216922152	 1.1428051283	 0.059363
H	-3.5791811948	-2.3823054195	-0.9341349713	 0.05726
71.3278	151.6168	203.7354	269.9972	307.926	364.2488	450.5744	525.0897	611.2495	630.3828	746.7275	814.6694	835.2055	838.7012	841.9771	902.6031	937.694	952.7139	962.8675	992.9421	1022.7247	1050.3586	1072.5573	1085.4512	1095.487	1109.916	1121.2977	1143.9358	1162.3385	1178.8987	1204.7896	1220.2688	1248.1332	1252.3173	1257.3347	1285.8689	1291.9572	1297.0844	1334.3535	1341.9861	1373.6104	1460.2182	1478.6805	1491.3176	1521.3707	2956.703	2995.7269	3034.6222	3035.9806	3038.3533	3079.8968	3082.3867	3088.5039	3094.2542	3106.2217	3139.975	3828.7295
OCC1C2CC3CC1C23	OC[C@H]1[C@H]2C[C@H]3C[C@@H]1[C@@H]23	
InChI=1S/C8H12O/c9-3-7-5-1-4-2-6(7)8(4)5/h4-9H,1-3H2	InChI=1S/C8H12O/c9-3-7-5-1-4-2-6(7)8(4)5/h4-9H,1-3H2/t4-,5+,6-,7-,8+
