20
gdb 68390	2.6186	1.93091	1.45183	2.3221	77.55	-0.219	0.0832	0.3022	974.8485	0.172664	-403.108492	-403.101124	-403.10018	-403.139661	30.733	
C	-0.0077202153	 1.5191786404	-0.0017501081	-0.481139
C	 0.0942304276	 0.0141811976	-0.062063953	 0.399285
C	 0.4732285346	-0.6890780481	-1.3869021271	-0.305579
C	-0.5760186792	-1.7021367975	-0.9033766316	 0.093083
C	 0.0076876593	-2.71989884	 0.0859959289	-0.169537
N	 0.6930454672	-2.0796256224	 1.2254860601	-0.089156
C	 2.0005264987	-1.4518159442	 1.0387305145	-0.261218
C	 0.7744100519	-0.61253947	 1.1488503985	-0.046212
O	-1.2242147131	-0.6452903641	-0.1407832195	-0.325342
H	 0.9907185249	 1.9694987978	-0.0069081675	 0.123011
H	-0.5709873261	 1.8991043426	-0.8580028387	 0.123317
H	-0.5188363753	 1.8333628604	 0.9140937295	 0.130571
H	 0.1094445978	-0.1123337336	-2.2395725321	 0.107844
H	 1.4975076478	-1.0132624393	-1.5701852485	 0.097834
H	-1.2515452467	-2.1682171283	-1.6262131576	 0.07462
H	-0.8176943505	-3.308998464	 0.5016081994	 0.116303
H	 0.6849445435	-3.4149437877	-0.4253267235	 0.100348
H	 2.666802406	-1.5379558452	 1.8942032465	 0.113733
H	 2.5043489515	-1.5292357895	 0.0793859343	 0.109558
H	 0.5662121753	-0.102144065	 2.0884214956	 0.088676
189.5009	212.6292	261.2208	293.3001	346.1808	426.7854	458.5879	487.2186	505.6073	617.9642	682.5479	735.0863	818.3717	840.9032	861.1659	876.388	889.0194	935.8967	988.0161	993.5662	1022.2844	1030.6721	1044.5477	1100.5201	1118.7555	1121.666	1135.6248	1155.4379	1223.119	1227.9691	1257.1853	1266.1292	1310.0363	1320.0222	1338.8233	1371.0266	1403.1409	1413.8766	1479.1311	1483.5435	1488.2086	1495.0371	1521.1614	3026.8868	3036.2424	3066.236	3070.7285	3081.3613	3102.8433	3105.5882	3111.4896	3120.101	3135.9852	3185.3867
CC12CC(CN3CC13)O2	C[C@@]12C[C@@H](CN3C[C@@H]13)O2	
InChI=1S/C7H11NO/c1-7-2-5(9-7)3-8-4-6(7)8/h5-6H,2-4H2,1H3	InChI=1S/C7H11NO/c1-7-2-5(9-7)3-8-4-6(7)8/h5-6H,2-4H2,1H3/t5-,6-,7+,8?/m0/s1
