21
gdb 36286	3.75614	1.03713	0.97546	0.7078	87.53	-0.258	0.0576	0.3156	1302.4362	0.184204	-349.912694	-349.904577	-349.903633	-349.945549	32.622	
C	 0.0348060066	-1.1995216062	 0.0190675297	-0.455476
C	 0.0015508295	-0.0032639634	 0.1341493469	 0.311501
C	-0.0044825569	 1.4501811642	 0.2688750427	-0.409227
C	 1.3944014644	 2.058569113	 0.0937459015	 0.059337
C	 2.0020155317	 2.0790500729	-1.3450551443	-0.011161
C	 1.177242431	 3.377086177	-1.5896674077	-0.234649
C	 1.4783463079	 3.6096478829	-0.0794761299	-0.030585
C	 3.0053143303	 3.8243429077	-0.1002175136	-0.220247
C	 3.4050907792	 2.6547798343	-1.0673493562	-0.214979
H	 0.0511607065	-2.2563190025	-0.080496661	 0.192941
H	-0.7156922814	 1.8742970137	-0.4484932953	 0.129287
H	-0.3858706399	 1.7190435884	 1.2631507842	 0.127723
H	 2.0499902778	 1.6376115263	 0.864640832	 0.067774
H	 1.9320683778	 1.2127929751	-2.0032353312	 0.066825
H	 1.575738831	 4.1049658677	-2.3030616584	 0.086948
H	 0.1245258046	 3.1968481493	-1.8088031581	 0.09766
H	 0.8831908086	 4.2891402122	 0.5332798673	 0.054324
H	 3.2792794882	 4.8080960437	-0.4919533782	 0.094988
H	 3.453442556	 3.7214194064	 0.8923188137	 0.095254
H	 4.0668386951	 1.9247390474	-0.5925111537	 0.09723
H	 3.8954040319	 3.0103175699	-1.9780413503	 0.094533
62.9646	104.6265	265.3292	272.8883	316.8228	346.3544	401.0321	491.1729	566.8706	615.4525	635.3835	647.8126	784.857	832.3661	840.9901	841.7038	889.4402	904.6581	940.7173	954.1414	964.6674	978.2769	1004.7502	1029.9663	1067.4337	1073.366	1084.7273	1133.0779	1163.4698	1196.9056	1210.6275	1234.1439	1253.5033	1259.1389	1270.1352	1287.5534	1305.4261	1322.9321	1337.6086	1404.882	1469.7029	1493.8535	1504.9315	1526.4515	2236.714	3020.1054	3033.6015	3048.3556	3055.9533	3059.6862	3068.9045	3085.6202	3097.4243	3104.5934	3114.4953	3130.2207	3507.2772
C#CCC1C2CC1CC2	C#CC[C@H]1[C@H]2C[C@@H]1CC2	
InChI=1S/C9H12/c1-2-3-9-7-4-5-8(9)6-7/h1,7-9H,3-6H2	InChI=1S/C9H12/c1-2-3-9-7-4-5-8(9)6-7/h1,7-9H,3-6H2/t7-,8+,9+
