21
gdb 83633	2.16824	1.65919	1.34461	1.6388	77.44	-0.2353	0.0581	0.2934	1078.6664	0.18141	-424.196199	-424.187056	-424.186112	-424.229666	35.802	
C	 0.3531690015	 1.553998597	 0.0602174774	-0.45532
C	 0.0884423307	 0.0575658484	 0.027405885	 0.346159
O	-1.2985641919	-0.2128307563	-0.1464607816	-0.475815
C	 0.9894430963	-0.7923885347	-0.954429156	 0.053209
O	 1.9830957745	-0.1460668642	-1.7206452915	-0.420865
C	 1.5474695192	-1.5944830053	 0.2367044137	-0.045542
C	 2.76217755	-0.9450237347	 0.9596023088	-0.230332
C	 1.8031567562	-0.3162119328	 2.0149802075	-0.237266
C	 0.5821085377	-0.8252252476	 1.2122253674	-0.041496
H	 1.4188094587	 1.7802074269	 0.1358294504	 0.1331
H	-0.0077934692	 2.0215585405	-0.8659026953	 0.090577
H	-0.1736379521	 2.0196739368	 0.8986274575	 0.124022
H	-1.6002593937	 0.2655033424	-0.9271712743	 0.267513
H	 0.3320750079	-1.4107942067	-1.5818275606	 0.064446
H	 1.5617334102	 0.2900854592	-2.4673566778	 0.282838
H	 1.5641357929	-2.6793182705	 0.1325055338	 0.062838
H	 3.472796251	-1.6650675466	 1.3707180763	 0.096798
H	 3.314077042	-0.2363408639	 0.3397445605	 0.119118
H	 1.8779454553	-0.8079623137	 2.988393692	 0.09897
H	 1.8761249138	 0.7618831976	 2.1803056163	 0.094778
H	-0.2353603011	-1.2990945318	 1.7545855404	 0.072272
53.1675	208.7251	221.9514	236.1028	253.7795	263.6517	287.6903	324.3076	376.4167	437.5609	475.9862	559.8469	615.1837	691.2145	770.4942	801.3471	824.8607	868.8783	891.0783	951.2942	959.7801	993.946	996.422	1034.624	1086.4441	1102.1988	1124.557	1144.33	1182.4373	1191.4372	1206.2926	1227.1427	1246.1826	1251.8764	1278.8988	1285.6441	1314.1801	1322.6806	1371.3873	1399.1035	1413.7343	1474.7862	1485.6228	1491.7338	1503.7088	2998.905	3018.1419	3056.9261	3072.9003	3088.2271	3097.2712	3103.1533	3117.2593	3129.016	3132.9449	3788.7972	3823.559
CC1(O)C(O)C2CCC12	C[C@@]1(O)[C@@H](O)[C@H]2CC[C@@H]12	
InChI=1S/C7H12O2/c1-7(9)5-3-2-4(5)6(7)8/h4-6,8-9H,2-3H2,1H3	InChI=1S/C7H12O2/c1-7(9)5-3-2-4(5)6(7)8/h4-6,8-9H,2-3H2,1H3/t4-,5+,6-,7-/m0/s1
