19
gdb 90309	2.46061	1.71124	1.21163	2.4188	81.92	-0.2354	-0.0158	0.2197	1071.2927	0.159367	-385.896305	-385.888255	-385.887311	-385.928917	31.346	
C	-0.1295081705	 1.5238160202	-0.1646247553	-0.397225
C	-0.0136386322	 0.0079159248	-0.0862366834	-0.002396
C	 1.2441931423	-0.594633771	-0.8417514537	-0.329304
C	 1.8963448345	-0.6608776916	 0.517702664	 0.282651
C	 2.9530680267	-0.2224976697	 1.2029742876	-0.228691
C	 2.5383403859	 0.1176963052	 2.6225442114	-0.352411
C	 0.9894146665	 0.2544146479	 2.5058751246	 0.375689
O	 0.2788411697	 0.891262873	 3.2340081974	-0.303481
C	 0.5986269569	-0.554462836	 1.2592784995	-0.177332
H	 0.8267497432	 2.00478158	 0.0701625611	 0.118939
H	-0.4239458509	 1.8386811101	-1.1710377875	 0.11434
H	-0.873500403	 1.8977379525	 0.544802178	 0.137089
H	-0.9600135311	-0.4638807748	-0.3623240418	 0.079215
H	 1.0136727642	-1.5741296599	-1.272859187	 0.111911
H	 1.7233255686	 0.026659567	-1.6036286618	 0.109959
H	 3.9311706515	 0.0178481763	 0.8021283178	 0.099001
H	 2.7689032899	-0.6617755514	 3.3629023166	 0.131509
H	 2.9787164457	 1.0461049129	 3.0016662227	 0.129463
H	 0.1177855221	-1.4915970355	 1.5632599698	 0.101074
72.5678	133.2619	212.9394	251.0978	320.1108	342.8203	377.8881	442.3022	561.2806	620.2993	647.3126	736.6082	757.4192	777.3587	814.1667	874.5339	894.7985	933.6509	948.7744	986.2267	1037.2468	1051.7602	1067.9497	1092.4618	1134.7928	1142.3897	1160.78	1195.9695	1220.4134	1249.7613	1266.9054	1274.0796	1316.1029	1354.1497	1412.8734	1453.3684	1477.6514	1494.5052	1497.4949	1718.1963	1851.8282	3010.9188	3031.7655	3038.637	3045.9524	3069.991	3075.2545	3097.9726	3100.9447	3112.1937	3194.194
CC1CC2=CCC(=O)C12	C[C@H]1C[C]2[CH]CC(=O)[C@@H]12	
InChI=1S/C8H10O/c1-5-4-6-2-3-7(9)8(5)6/h2,5,8H,3-4H2,1H3	InChI=1S/C8H10O/c1-5-4-6-2-3-7(9)8(5)6/h2,5,8H,3-4H2,1H3/t5-,8-/m0/s1
