19
gdb 81250	2.96195	1.54055	1.41411	2.7222	75.	-0.2373	0.0785	0.3158	1004.7988	0.160983	-422.94737	-422.939964	-422.93902	-422.979178	29.998	
O	-0.0819039389	 1.5119887453	 0.0308703524	-0.446362
C	 0.0879304841	 0.1180579925	 0.0942744941	 0.089961
C	-0.0448810959	-0.6123196199	 1.4557362985	-0.164379
C	-1.5765074593	-0.2043214502	 1.4396586262	-0.306765
C	-1.2230941461	-0.7288459222	 0.0164761265	 0.41836
O	-1.8697831197	-1.1237180712	-1.142160193	-0.323988
C	-1.1399217422	-2.2954047036	-1.6045159702	-0.081297
C	 0.0251783563	-2.6189000703	-0.5903155027	-0.326823
C	-0.4915050831	-1.8958836252	 0.6586545332	-0.013882
H	 0.754191334	 1.9282825023	 0.2611979645	 0.284007
H	 0.9161540588	-0.2047085617	-0.5438106235	 0.060034
H	 0.6250180695	-0.5513409315	 2.3116348895	 0.07786
H	-2.244669528	-0.8328532832	 2.032378229	 0.095526
H	-1.7867252387	 0.8574305072	 1.5473993891	 0.120316
H	-1.8534624773	-3.1245723619	-1.6684014441	 0.10977
H	-0.7573001529	-2.0942592434	-2.6101941627	 0.111504
H	 0.1291512899	-3.6971663561	-0.4496693273	 0.104671
H	 0.9783793017	-2.2455998765	-0.9686423793	 0.115202
H	-1.1429458421	-2.5454256103	 1.249553	 0.076286
75.1813	232.6365	251.25	266.6474	360.0058	389.1866	499.7866	533.6919	615.782	634.41	735.0113	773.9478	806.2838	838.2925	888.3638	893.043	905.5746	942.8859	978.4968	1015.0331	1045.2462	1054.0643	1068.5823	1098.1962	1147.403	1155.6903	1169.5898	1178.0169	1203.2071	1213.1436	1213.3649	1234.2028	1259.713	1283.7639	1304.8956	1385.5161	1404.4331	1439.9643	1499.121	1515.0137	1520.1852	3035.8938	3051.9845	3063.9679	3075.6234	3079.3403	3080.1571	3122.49	3131.527	3171.6829	3821.7344
OC1C2CC11OCCC21	O[C@H]1[C@H]2C[C@]31OCC[C@@H]23	
InChI=1S/C7H10O2/c8-6-4-3-7(6)5(4)1-2-9-7/h4-6,8H,1-3H2	InChI=1S/C7H10O2/c8-6-4-3-7(6)5(4)1-2-9-7/h4-6,8H,1-3H2/t4-,5-,6-,7-/m0/s1
