25
gdb 122991	4.57236	0.54827	0.53221	1.429	90.25	-0.2513	0.0755	0.3268	2213.8813	0.226995	-389.487296	-389.476256	-389.475312	-389.524238	40.628	
C	 0.0098141501	 1.6068064106	-0.0423515034	-0.379112
C	 0.1655552763	 0.0840699422	-0.0770850937	-0.165374
C	 0.6583820202	-0.5022311505	 1.2501305345	-0.15917
C	 0.8182784187	-2.0257791255	 1.2242701575	-0.191153
C	 1.2982587268	-2.609619746	 2.5597204043	-0.246892
C	 1.4770000827	-4.1159200396	 2.5348649071	 0.427328
O	 0.2966975062	-4.8432337205	 2.2908047328	-0.472642
C	 2.7687789426	-4.7169527766	 2.0328433871	-0.319875
C	 2.4024423603	-4.7799569938	 3.5053278865	-0.305793
H	 0.9633851501	 2.0971058595	 0.1837745135	 0.112993
H	-0.344321696	 1.9956176268	-1.0022479847	 0.11053
H	-0.7080824499	 1.9136083009	 0.7265059428	 0.113744
H	-0.7956344129	-0.3771039957	-0.3407482994	 0.093492
H	 0.8639686652	-0.1949076492	-0.8773788594	 0.092984
H	 1.6199230526	-0.0405660078	 1.5157167138	 0.091042
H	-0.0401890863	-0.2241533474	 2.0516343545	 0.093886
H	-0.146396493	-2.4790779096	 0.9571298177	 0.087746
H	 1.5238542058	-2.3058867897	 0.4297412526	 0.093027
H	 2.2513665733	-2.1440121906	 2.840354357	 0.090536
H	 0.5781717532	-2.3563968748	 3.3489122971	 0.101553
H	 0.0720250255	-4.7364574103	 1.3604110993	 0.281574
H	 2.6987784167	-5.6397019169	 1.467629958	 0.110856
H	 3.5708662574	-4.0535817424	 1.7263700725	 0.107591
H	 2.9528074981	-4.1594226969	 4.2041998129	 0.109811
H	 2.0849086363	-5.7396259764	 3.8960219189	 0.12132
53.9521	60.0037	93.0311	128.4767	142.3276	207.531	246.8381	272.8722	305.9892	340.4645	378.0565	415.027	442.4957	528.9731	729.6669	738.2683	764.7531	777.8083	844.5898	896.3187	905.0541	923.6379	938.1156	971.2718	996.1045	1018.9692	1043.24	1050.6569	1070.2222	1075.4771	1116.0834	1134.9148	1188.4801	1226.3805	1258.3059	1266.2239	1300.7854	1310.5386	1327.0572	1333.8549	1344.871	1371.2372	1398.5758	1406.9089	1414.0164	1452.6358	1474.507	1484.0218	1489.9318	1498.6218	1499.9611	1503.5204	1513.898	3000.6418	3004.5068	3015.0173	3020.404	3023.535	3028.9808	3036.3316	3053.915	3067.9211	3095.2859	3100.8227	3128.5392	3137.5305	3214.5222	3231.1654	3804.4949
CCCCCC1(O)CC1	CCCCCC1(O)CC1	
InChI=1S/C8H16O/c1-2-3-4-5-8(9)6-7-8/h9H,2-7H2,1H3	InChI=1S/C8H16O/c1-2-3-4-5-8(9)6-7-8/h9H,2-7H2,1H3
