20
gdb 82812	2.32672	1.98252	1.51679	1.7234	77.49	-0.2204	0.0604	0.2808	975.2145	0.17188	-403.099357	-403.091429	-403.090485	-403.131181	31.855	
C	 0.0457546461	 1.4979424172	 0.0392370816	-0.49744
C	 0.0241385029	-0.0096841996	 0.0051869986	 0.354835
C	 0.468024716	-0.7354851048	-1.2823080507	-0.291143
C	-0.7340868389	-1.6768056454	-1.0897379676	 0.012285
C	-0.5090813191	-2.7883482392	-0.0472631269	-0.237902
C	-0.773256849	-1.7236966624	 1.0282911276	-0.043761
C	 0.4231091587	-0.7782025887	 1.2812790509	 0.065237
O	 1.7382110129	-1.2859198539	 1.2824439254	-0.429679
N	-1.3354101868	-0.7470853932	-0.0176812983	-0.202464
H	 1.0794221642	 1.8635047691	 0.0698539595	 0.121669
H	-0.4381811615	 1.9162783994	-0.8490318453	 0.119639
H	-0.47910587	 1.8797609473	 0.9212257451	 0.117037
H	 0.3462122394	-0.0906712559	-2.1570712238	 0.099835
H	 1.4684470413	-1.1736251918	-1.294554622	 0.115851
H	-1.3425004113	-1.9131212354	-1.9650971882	 0.069614
H	-1.3025734052	-3.5390652548	-0.0739482588	 0.103917
H	 0.4635944588	-3.287266275	-0.0327569143	 0.10417
H	-1.3999398331	-1.9892544158	 1.8830460024	 0.062853
H	 0.2372781232	-0.1551568591	 2.1675978288	 0.068556
H	 1.9180740816	-1.677382608	 2.143038366	 0.28689
162.4471	193.2302	226.3506	244.6621	247.698	297.4791	389.1751	467.4699	569.7809	579.2753	647.2442	736.4937	762.1825	839.5419	857.1005	899.406	909.2988	921.6505	946.862	956.2668	1002.8166	1024.4235	1051.4154	1079.7094	1117.9089	1138.5902	1146.443	1177.8419	1200.3443	1237.1428	1249.042	1261.0776	1278.3494	1303.9786	1318.0813	1338.3597	1367.751	1406.1871	1428.5732	1470.0874	1481.4716	1486.4536	1492.9152	2997.9399	3024.5954	3055.8022	3057.9724	3073.0143	3081.5476	3093.2683	3102.8066	3112.9076	3116.3569	3817.8994
CC12CC3CC(C1O)N23	C[C@@]12C[C@H]3C[C@@H]([C@H]1O)N23	
InChI=1S/C7H11NO/c1-7-3-4-2-5(6(7)9)8(4)7/h4-6,9H,2-3H2,1H3	InChI=1S/C7H11NO/c1-7-3-4-2-5(6(7)9)8(4)7/h4-6,9H,2-3H2,1H3/t4-,5+,6-,7-/m1/s1
