19
gdb 69836	3.25349	1.56634	1.26999	2.5182	74.77	-0.2475	0.0843	0.3317	1037.8217	0.159688	-422.999792	-422.992077	-422.991133	-423.031531	30.888	
C	-0.0500536666	 1.5217592014	 0.0441468926	-0.477226
C	-0.0165349067	 0.0149315221	 0.0757177982	 0.372851
C	-1.2386471262	-0.6917583837	-0.4980454543	-0.141472
O	-1.0806441041	-2.095296651	-0.5833489879	-0.247482
C	-0.7714623346	-2.7339757609	 0.6217559307	 0.088706
C	 0.5997915661	-3.3357948418	 0.7307132652	-0.310915
C	 0.2571762967	-2.0847138583	 1.512128055	-0.078909
C	 0.7535529579	-0.7355756103	 1.0801583113	-0.026343
O	 1.2347820112	-0.6003107255	-0.2636520468	-0.284648
H	 0.851269506	 1.9345097483	 0.5039188081	 0.131718
H	-0.1050159226	 1.8875495375	-0.9873330135	 0.128781
H	-0.9230760089	 1.905110655	 0.5835863957	 0.123019
H	-2.1190221293	-0.4175694827	 0.1081003816	 0.090394
H	-1.4223765109	-0.3551375381	-1.5239692149	 0.115317
H	-1.6167317233	-3.2468752006	 1.0779627659	 0.087497
H	 0.722645851	-4.2635805381	 1.2776978357	 0.110589
H	 1.2384085209	-3.2043246139	-0.1345014892	 0.142851
H	 0.1246768322	-2.1835719959	 2.5850530945	 0.088844
H	 1.3358739512	-0.1838642334	 1.8185083519	 0.086429
152.9713	187.111	200.0605	263.6927	326.0031	367.0851	415.473	468.445	501.5318	583.9174	690.1571	731.6475	783.7977	813.0233	846.8429	877.2572	915.6276	969.2129	989.1212	1018.621	1050.3946	1062.2219	1085.305	1097.9222	1111.6624	1122.0439	1146.4703	1175.8078	1226.7481	1248.4471	1292.0055	1334.1987	1364.004	1394.1181	1408.7723	1413.4452	1464.1685	1473.9847	1486.3576	1490.0922	1505.9216	2963.4415	3033.0287	3070.2558	3095.3414	3102.0987	3110.7451	3122.235	3142.8198	3158.0275	3241.2637
CC12COC3CC3C1O2	C[C@]12CO[C@H]3C[C@H]3[C@H]1O2	
InChI=1S/C7H10O2/c1-7-3-8-5-2-4(5)6(7)9-7/h4-6H,2-3H2,1H3	InChI=1S/C7H10O2/c1-7-3-8-5-2-4(5)6(7)9-7/h4-6H,2-3H2,1H3/t4-,5+,6-,7+/m1/s1
