15
gdb 123375	7.46949	0.77911	0.71163	3.7819	73.76	-0.2215	0.0175	0.239	1488.6369	0.113939	-412.966952	-412.958594	-412.957649	-413.000897	29.887	
C	 0.0356222942	-1.1776677428	 0.0586246865	-0.388673
C	 0.0408952702	 0.0198360301	-0.0239247648	 0.258582
C	 0.0654610679	 1.4711774155	-0.142652791	-0.304917
N	 1.3553802713	 2.0093515263	 0.2813440721	-0.399551
C	 1.6308146966	 3.3417417421	 0.1053706152	 0.494148
N	 2.8413638692	 3.8705161423	 0.0325132446	-0.358163
C	 2.5745025785	 5.2038393905	-0.0801796041	 0.03658
N	 1.3019166391	 5.5418447358	-0.0913928406	-0.230155
N	 0.6943869852	 4.3164337014	 0.0254461687	-0.266508
H	 0.0221719306	-2.237070337	 0.1362648816	 0.210441
H	-0.1793090922	 1.7571970195	-1.1795732883	 0.140796
H	-0.723789377	 1.8945860775	 0.4949572359	 0.14176
H	 2.1515819906	 1.4215696114	 0.0818075669	 0.266848
H	 3.3543375759	 5.9465921064	-0.162175298	 0.123122
H	-0.3075496202	 4.2621234509	 0.0805279953	 0.27569
46.1981	87.1744	105.9525	211.8065	308.1127	333.4814	425.8513	435.1287	467.243	582.474	628.4077	677.2664	684.9098	756.4134	795.972	914.2604	976.5281	979.7296	1014.5318	1043.4461	1086.4098	1133.6152	1223.1325	1251.0797	1299.6729	1320.9936	1334.1231	1418.3369	1489.3717	1506.0821	1554.1338	1637.9766	2252.1732	2960.388	3008.5639	3257.0584	3503.8854	3617.4352	3684.2795
C#CCNC1=NC=NN1	C#CCNc1ncn[nH]1	
InChI=1S/C5H6N4/c1-2-3-6-5-7-4-8-9-5/h1,4H,3H2,(H2,6,7,8,9)	InChI=1S/C5H6N4/c1-2-3-6-5-7-4-8-9-5/h1,4H,3H2,(H2,6,7,8,9)
