20
gdb 87565	2.52111	1.44606	1.26389	2.4805	79.15	-0.2333	0.0736	0.3069	1112.8252	0.170946	-403.086774	-403.078224	-403.07728	-403.119722	33.432	
C	-0.0759144175	 1.5294671309	 0.0429087502	-0.403514
C	 0.0022241638	 0.0195413972	 0.0696167546	-0.048182
C	 1.3090616506	-0.6942526115	-0.2106992981	-0.384275
C	 0.7181548423	-0.70229385	 1.1682826354	 0.37066
C	 1.3173358291	-0.1553459373	 2.4444784011	-0.168595
N	 0.1798637591	-0.0610424809	 3.406010991	-0.361918
C	 0.8777770949	-1.3570370962	 3.2056020804	-0.07424
C	 0.2229140189	-1.9598549584	 1.9474124663	 0.050915
O	-1.1538721606	-2.2048392004	 2.0036806908	-0.436683
H	 0.8498436378	 1.9801147272	 0.4162886225	 0.107411
H	-0.2368408939	 1.9007995121	-0.9752078917	 0.115246
H	-0.8962484523	 1.8948733369	 0.6696354131	 0.123957
H	-0.8903596514	-0.492233107	-0.2836615225	 0.093338
H	 1.2927778528	-1.6180742357	-0.7812782696	 0.111181
H	 2.1895840744	-0.0810912509	-0.3832947627	 0.105357
H	 2.2065787297	 0.4487361213	 2.5739734173	 0.095811
H	 0.5365922383	 0.3415513063	 4.2719442294	 0.23131
H	 1.3425131784	-1.8730073107	 4.036560208	 0.093223
H	 0.7061155605	-2.8799782251	 1.608062612	 0.089216
H	-1.5318719052	-1.4242553179	 2.4322018426	 0.289784
103.021	134.6436	171.2292	193.0698	240.4041	305.5759	395.9142	455.3801	480.5535	527.9042	591.9899	665.9461	748.4636	801.5683	826.8882	837.5046	888.902	895.4168	906.209	959.7289	963.7072	1010.8803	1031.1583	1051.5743	1080.7483	1096.3057	1117.7981	1125.3046	1133.9988	1174.7766	1188.362	1216.9865	1258.4607	1287.6989	1316.1434	1345.6493	1374.0472	1412.1756	1437.0692	1442.793	1490.4227	1492.2361	1506.7547	3027.9144	3081.4411	3091.0857	3095.4292	3112.4729	3134.3634	3185.6331	3195.8755	3198.8767	3477.2199	3750.7817
CC1CC11C2NC2C1O	C[C@H]1C[C@]21[C@H]1N[C@H]1[C@H]2O	
InChI=1S/C7H11NO/c1-3-2-7(3)5-4(8-5)6(7)9/h3-6,8-9H,2H2,1H3	InChI=1S/C7H11NO/c1-3-2-7(3)5-4(8-5)6(7)9/h3-6,8-9H,2H2,1H3/t3-,4+,5-,6+,7-/m0/s1
