18
gdb 64663	3.87403	1.02387	1.01043	4.5821	75.75	-0.2488	0.0294	0.2782	1231.2048	0.147047	-401.917563	-401.909048	-401.908104	-401.950884	31.839	
C	-0.0327726213	 1.6449250198	-0.2784578185	-0.485923
C	-0.0226240489	 0.1378215367	-0.1404188507	 0.299939
C	-1.3100463193	-0.4775338162	 0.4109640839	-0.41624
C	-1.6367335484	-0.0063585736	 1.7589092771	 0.27439
N	-1.8873317143	 0.3710191273	 2.8218381635	-0.31083
C	 0.6508532434	-0.7927498017	-1.1444098225	-0.194904
C	 1.9785745446	-0.2011817367	-1.6018287431	-0.111554
O	 2.3995756839	 0.0194319362	-0.2267189238	-0.282857
C	 1.2179025979	-0.6202723615	 0.25080311	 0.069156
H	 0.970438037	 2.0207022755	-0.4862070477	 0.145283
H	-0.7032672513	 1.968117403	-1.0827364121	 0.11646
H	-0.3720154362	 2.1111134623	 0.6522414825	 0.144169
H	-2.1533869969	-0.2440465295	-0.2506523786	 0.155095
H	-1.2311419343	-1.5706966852	 0.4416449373	 0.1495
H	 0.1398597925	-1.6279559	-1.6062741625	 0.100501
H	 2.6329919389	-0.9347562134	-2.0844118675	 0.119124
H	 1.9595392666	 0.7232958962	-2.1892342965	 0.112713
H	 1.3080383761	-1.2788222892	 1.1083030993	 0.115977
65.3877	122.4666	184.0329	230.4707	259.4949	312.3081	333.7455	393.0912	419.5686	476.5385	597.7358	706.5977	770.0786	822.9747	877.0797	926.4399	947.905	953.4507	974.7362	990.9041	1003.77	1041.2958	1078.857	1095.797	1125.2896	1161.5834	1181.1377	1232.1257	1251.2083	1301.6518	1334.6706	1339.1924	1418.4154	1422.9798	1462.3699	1491.1543	1502.5127	1520.9043	2362.5532	3032.5617	3033.6483	3037.0067	3070.868	3083.5423	3097.5705	3136.5804	3169.5888	3192.3524
CC1(CC#N)C2COC12	C[C@@]1(CC#N)[C@H]2CO[C@@H]12	
InChI=1S/C7H9NO/c1-7(2-3-8)5-4-9-6(5)7/h5-6H,2,4H2,1H3	InChI=1S/C7H9NO/c1-7(2-3-8)5-4-9-6(5)7/h5-6H,2,4H2,1H3/t5-,6+,7+/m0/s1
