17
gdb 100205	2.76985	1.24309	1.04724	1.9654	64.67	-0.2522	-0.0445	0.2077	1165.1287	0.133443	-496.06979	-496.060633	-496.059689	-496.103965	33.24	
O	-0.0747430169	 1.2169627027	 0.5987409021	-0.433764
C	-0.0703740553	-0.1629050585	 0.2692320076	-0.12494
C	-1.4540123485	-0.574506522	-0.2565059294	 0.234255
O	-2.4657947714	-0.1162828852	 0.6309862876	-0.461861
C	-1.7699929875	 0.1359396338	-1.5821619538	 0.12455
O	-1.0835113783	 1.00726662	-2.0634829199	-0.272656
C	-1.5588779884	-2.0758357243	-0.4302713319	 0.026287
C	-2.3201181909	-2.9186930069	 0.499475301	-0.173323
O	-2.8377797648	-2.5921864979	-0.7942564472	-0.239964
H	-0.1128254763	 1.6845797623	-0.247411252	 0.30332
H	 0.7065678092	-0.4048564586	-0.4673212725	 0.111058
H	 0.1427203331	-0.7095042474	 1.1929144175	 0.122742
H	-2.1177546065	 0.717585631	 0.9845018002	 0.296459
H	-2.7356433656	-0.1654959031	-2.0328571278	 0.126475
H	-0.724131009	-2.5186047989	-0.9772914892	 0.102657
H	-2.0274593106	-3.9586063034	 0.6337233851	 0.118205
H	-2.833235162	-2.4471364337	 1.3319357326	 0.140499
71.3626	97.7122	153.873	175.3073	227.7998	268.3821	320.5575	348.0478	380.165	443.7236	515.4749	529.6642	650.4922	683.1346	809.7575	852.6845	882.9525	929.1412	986.504	996.6357	1063.4749	1079.1631	1103.556	1143.257	1162.582	1172.4781	1206.4856	1249.4088	1295.7328	1353.0147	1381.1264	1407.6815	1431.0653	1456.5978	1490.6304	1517.5641	1802.9275	2955.8575	3024.849	3090.9461	3093.4601	3103.0864	3205.8798	3706.611	3754.0011
OCC(O)(C=O)C1CO1	OC[C@@](O)(C=O)[C@H]1CO1	
InChI=1S/C5H8O4/c6-2-5(8,3-7)4-1-9-4/h2,4,7-8H,1,3H2	InChI=1S/C5H8O4/c6-2-5(8,3-7)4-1-9-4/h2,4,7-8H,1,3H2/t4-,5+/m1/s1
