21
gdb 53326	2.95749	0.95949	0.87002	0.2172	92.34	-0.2363	0.0564	0.2927	1479.0949	0.181192	-349.912108	-349.902296	-349.901352	-349.947932	35.806	
C	 0.0066222495	 1.511394042	-0.0733383561	-0.497396
C	 0.0085712903	 0.0565934567	-0.0102273174	 0.040646
C	 0.0162020095	-1.1480040181	 0.0358077668	 0.0993
C	 0.0063018357	-2.5982262331	 0.1136355508	-0.238736
C	 0.2099339855	-3.2888486346	 1.5176564615	-0.240644
C	-1.1292775157	-4.0050763461	 1.3375080366	-0.095974
C	-2.2260034499	-2.9890307304	 1.1515896767	-0.330161
C	-1.3526503766	-3.3341747341	-0.0207781497	 0.376334
C	-1.8760056938	-3.8734567426	-1.3196264369	-0.500286
H	 0.8176314334	 1.8853424523	-0.7084567116	 0.145231
H	-0.93558797	 1.8918868966	-0.4837726267	 0.145516
H	 0.1352191485	 1.9547087957	 0.9206264644	 0.145068
H	 0.7235487218	-3.0137956809	-0.6024690589	 0.092788
H	 1.0755092141	-3.9544991909	 1.5188201725	 0.102756
H	 0.2813838968	-2.6107680652	 2.3729586601	 0.101174
H	-1.3396990637	-5.0267839379	 1.6316659057	 0.08193
H	-3.2322557213	-3.3941893657	 1.103871413	 0.105229
H	-2.1593961519	-2.0126518158	 1.6262418355	 0.111934
H	-2.1900289748	-3.0608147297	-1.9860230737	 0.125398
H	-1.1147184257	-4.4597952868	-1.8477941196	 0.113268
H	-2.7438925616	-4.5213891814	-1.1576208632	 0.116625
27.0273	81.237	85.6494	189.8292	203.0245	244.9447	287.7425	317.1961	373.6314	419.8339	475.478	514.5696	624.3341	708.0079	754.9059	814.2731	872.2013	923.8721	948.8266	958.3902	984.4871	1016.2291	1041.3422	1053.0211	1053.2033	1072.4317	1096.2251	1113.4482	1158.5702	1184.8021	1205.8149	1239.5789	1265.4758	1287.8657	1341.182	1397.4524	1415.1182	1424.2516	1479.1877	1479.2793	1483.2009	1484.8891	1498.0067	1506.8298	2362.0733	3017.9349	3023.7046	3040.6193	3055.8348	3075.9615	3082.9061	3083.3368	3092.926	3107.3382	3113.315	3175.0807	3196.375
CC#CC1CC2CC12C	CC#C[C@H]1C[C@H]2C[C@@]12C	
InChI=1S/C9H12/c1-3-4-7-5-8-6-9(7,8)2/h7-8H,5-6H2,1-2H3	InChI=1S/C9H12/c1-3-4-7-5-8-6-9(7,8)2/h7-8H,5-6H2,1-2H3/t7-,8-,9-/m0/s1
