17
gdb 88415	2.18042	1.19113	0.9189	2.011	69.82	-0.258	-0.051	0.207	1301.801	0.131432	-458.954743	-458.944953	-458.944009	-458.991774	33.118	
C	-1.0155259463	 1.021760916	 0.2368504176	-0.42759
C	-0.1370749403	-0.1983175708	 0.1490437543	 0.080141
O	 1.1662863717	-0.0387762623	-0.4279279993	-0.274465
C	 1.0758245071	-0.4303378305	 0.949067607	 0.050649
C	 1.6481917043	 0.544338628	 1.9515695456	-0.228866
C	 1.5064964048	 0.054942923	 3.3916632408	 0.147262
O	 0.8628195523	-0.9117793885	 3.703134867	-0.235562
C	 3.1179907715	 0.8842533879	 1.6752156837	 0.141002
O	 3.7706759459	 1.5880727797	 2.4005712078	-0.245968
H	-0.460069602	 1.9080365973	 0.5519232012	 0.127618
H	-1.452927274	 1.2376990263	-0.7430860409	 0.138196
H	-1.8364776002	 0.8498724853	 0.940905273	 0.134556
H	-0.6517715557	-1.0965163176	-0.1968384505	 0.10048
H	 1.3534572642	-1.4676623207	 1.136683858	 0.112106
H	 1.1288660979	 1.5120529118	 1.9168710776	 0.13944
H	 2.0582189257	 0.6684481871	 4.1313336879	 0.1203
H	 3.5412858531	 0.4291752982	 0.7566722091	 0.120701
13.6999	66.4878	104.05	131.0841	178.7381	191.4278	208.0621	327.7008	386.1347	395.1273	511.4798	597.8839	643.5797	782.9586	811.0087	865.9883	882.5152	974.0925	996.1969	1036.2127	1090.5062	1107.1465	1130.6065	1171.1735	1190.9822	1206.2322	1241.8415	1304.0347	1391.0119	1406.5979	1416.0445	1424.612	1468.3312	1491.3489	1512.0691	1806.6602	1837.9078	2929.7728	2944.2944	3030.3073	3042.8753	3091.9816	3106.9145	3114.3564	3129.7941
CC1OC1C(C=O)C=O	C[C@H]1O[C@H]1C(C=O)C=O	
InChI=1S/C6H8O3/c1-4-6(9-4)5(2-7)3-8/h2-6H,1H3	InChI=1S/C6H8O3/c1-4-6(9-4)5(2-7)3-8/h2-6H,1H3/t4-,6-/m1/s1
