20
gdb 86299	2.08812	1.47982	1.32799	1.6132	76.43	-0.2121	-0.0307	0.1814	1116.1585	0.167791	-440.264535	-440.254494	-440.25355	-440.299236	36.486	
C	-0.1924171504	 1.4964979652	-0.0971524928	-0.340301
N	-0.114405119	 0.0726746818	 0.1709782082	-0.106444
C	-1.2463298803	-0.6509297017	 0.7673763506	-0.211561
C	-0.2400145441	-1.6535118064	 1.3795223899	 0.115179
O	-0.0501360622	-2.8414043247	 0.6659237205	-0.429325
C	 0.8537857518	-0.5178317463	 1.1167667141	 0.159244
C	 2.1844165969	-0.9423419425	 0.5098619175	-0.454118
C	 1.0622176608	 0.2268530354	 2.4237911024	 0.124443
O	 0.329908499	 1.0789427759	 2.8644728709	-0.265681
H	 0.7799161823	 1.8540470927	-0.4531151389	 0.116257
H	-0.9160353961	 1.6643201932	-0.9029981132	 0.117019
H	-0.4864427728	 2.0970591402	 0.7738243941	 0.130855
H	-1.7931290889	-0.0828331584	 1.5329255304	 0.113848
H	-1.962029582	-1.0701541074	 0.0486269161	 0.094184
H	-0.3910411162	-1.9360099757	 2.4219606	 0.100835
H	-0.0556870487	-2.6240688993	-0.2736106678	 0.292605
H	 2.029837705	-1.6679615543	-0.2903013159	 0.117344
H	 2.7096132129	-0.0781006951	 0.088993995	 0.125416
H	 2.8355008314	-1.4017321312	 1.2606243859	 0.124543
H	 1.9566652905	-0.1079120115	 3.0013873128	 0.075657
78.3927	98.9455	142.6343	180.6201	200.53	228.9449	256.9893	277.1413	335.1337	381.368	395.5624	435.5371	468.7517	616.2668	707.5616	744.7586	789.1567	865.3524	928.3252	978.3461	985.5331	1021.1159	1099.5615	1118.3828	1141.7141	1171.2434	1177.0859	1194.6784	1224.9482	1254.7664	1274.459	1305.6212	1331.4436	1405.7243	1421.4829	1438.2181	1449.5682	1479.7977	1485.516	1486.0458	1511.2126	1514.273	1809.7772	2845.9154	2998.0665	3008.3513	3039.5989	3044.3639	3070.0857	3090.1676	3103.6683	3111.1159	3131.7903	3796.1986
CN1CC(O)C1(C)C=O	CN1C[C@@H](O)[C@]1(C)C=O	
InChI=1S/C6H11NO2/c1-6(4-8)5(9)3-7(6)2/h4-5,9H,3H2,1-2H3	InChI=1S/C6H11NO2/c1-6(4-8)5(9)3-7(6)2/h4-5,9H,3H2,1-2H3/t5-,6+/m1/s1
