17
gdb 52513	2.37042	1.0251	0.77152	3.2472	85.01	-0.25	-0.0521	0.1979	1507.6549	0.131098	-384.650518	-384.639699	-384.638755	-384.690598	36.489	
C	-0.1023569607	 1.0115543763	-1.1287828764	-0.505127
C	-0.0320993086	-0.2601213991	-0.4315737983	 0.14787
C	 0.0166727933	-1.3198006771	 0.1438583179	 0.014126
C	 0.0908357499	-2.5737299549	 0.8566464746	 0.204573
O	-0.7326674478	-2.9072926121	 1.6785024781	-0.290579
C	 1.3177782814	-3.4590778824	 0.52719732	-0.240795
C	 1.3573897947	-4.710450431	 1.4174550904	-0.391226
C	 1.3284905653	-3.7860192504	-0.8962838088	 0.333214
C	 1.3150530773	-4.0820364822	-2.061107815	-0.480679
H	 0.8641669252	 1.5261478158	-1.1048271984	 0.161224
H	-0.3695267586	 0.8578319588	-2.1801081042	 0.165557
H	-0.8529614618	 1.6712370919	-0.6817286196	 0.162571
H	 2.1978009856	-2.8327134733	 0.7371928492	 0.127213
H	 0.4756865909	-5.3302751545	 1.2442540718	 0.142101
H	 2.2510051874	-5.2981759393	 1.1956196474	 0.12071
H	 1.3673156498	-4.4235431959	 2.4711738883	 0.129434
H	 1.3105317366	-4.3374493305	-3.0917654372	 0.199811
2.5431	30.9243	73.7709	121.8121	157.0312	198.5898	225.2339	264.2443	316.25	378.2848	410.9439	437.9173	524.1914	578.4596	619.6201	642.2287	660.9346	782.2022	861.3401	952.1147	1029.8847	1044.8258	1053.1709	1101.074	1117.076	1208.2907	1283.1392	1313.4976	1407.7979	1409.2519	1468.8072	1473.072	1485.7029	1491.0413	1769.4035	2234.1162	2340.8848	2999.5797	3032.758	3059.4889	3096.1481	3101.4681	3137.604	3143.6761	3504.9706
CC#CC(=O)C(C)C#C	CC#CC(=O)[C@@H](C)C#C	
InChI=1S/C8H8O/c1-4-6-8(9)7(3)5-2/h2,7H,1,3H3	InChI=1S/C8H8O/c1-4-6-8(9)7(3)5-2/h2,7H,1,3H3/t7-/m0/s1
