21
gdb 72609	2.0941	1.88157	1.58461	1.6186	81.41	-0.2361	0.0817	0.3179	1015.4683	0.18189	-387.055151	-387.046664	-387.04572	-387.087463	33.819	
C	-0.1222795208	 1.5866123447	-0.151151327	-0.495297
C	-0.05845036	 0.0837004643	 0.010382236	 0.223048
C	 1.1276482466	-0.6625926503	-0.6350131158	-0.126732
O	 1.4337404006	-1.3802505267	 0.5752912226	-0.337252
C	 0.3725470527	-0.7230317938	 1.3095366796	 0.413788
C	 0.8586876919	-0.1711582733	 2.6249256845	-0.471242
C	-0.92151993	-1.5252714448	 1.22168838	-0.094892
C	-2.1098989906	-0.6047311492	 1.2456005766	-0.316383
C	-1.3376835562	-0.7508005972	-0.0358620527	-0.096143
H	 0.8236742468	 2.0601553274	 0.133757279	 0.118429
H	-0.3216980716	 1.8535256303	-1.1965429363	 0.119172
H	-0.9181553584	 2.0278430347	 0.4568200926	 0.11834
H	 0.8851050051	-1.3304767054	-1.4716448644	 0.09439
H	 1.9609241891	-0.0110736911	-0.9317596271	 0.092572
H	 1.672046033	 0.5450896948	 2.4740962918	 0.11989
H	 0.0504948482	 0.3229149478	 3.1721609811	 0.116829
H	 1.2427257806	-0.9878724019	 3.2467877963	 0.129117
H	-0.9969180547	-2.5875128503	 1.4215065526	 0.090241
H	-3.0752014484	-1.1001445662	 1.2641032919	 0.114749
H	-2.086106388	 0.3252672491	 1.8090513013	 0.105401
H	-1.7976458058	-1.1336836932	-0.9404848125	 0.081975
162.1953	178.9395	195.7951	207.2446	257.3928	283.9634	353.0152	369.0565	461.4167	505.3161	606.6374	656.7517	673.8516	782.4082	813.4061	852.6953	899.4727	940.1679	947.3425	968.4958	975.8043	1008.2565	1021.7508	1031.0705	1072.0283	1090.1193	1145.6993	1151.4736	1154.3794	1164.2792	1179.0863	1226.8494	1236.7391	1280.2358	1328.4964	1338.3803	1374.5363	1407.711	1415.3718	1479.4051	1485.5631	1487.9938	1493.6901	1498.0638	1521.6753	2998.3876	3022.6064	3034.0551	3041.8523	3082.6969	3100.0105	3100.4313	3109.207	3116.149	3165.0767	3184.6609	3201.0269
CC12COC1(C)C1CC21	C[C@@]12CO[C@]1(C)[C@H]1C[C@@H]21	
InChI=1S/C8H12O/c1-7-4-9-8(7,2)6-3-5(6)7/h5-6H,3-4H2,1-2H3	InChI=1S/C8H12O/c1-7-4-9-8(7,2)6-3-5(6)7/h5-6H,3-4H2,1-2H3/t5-,6+,7+,8-/m1/s1
