19
gdb 89239	2.93356	1.67545	1.29426	1.3707	74.65	-0.234	0.074	0.308	1029.5468	0.158578	-422.972148	-422.964398	-422.963454	-423.00392	31.131	
C	-0.0723760553	 1.5280367549	-0.0960652976	-0.397958
C	 0.0384034739	 0.014869618	 0.0121352446	 0.099753
O	 0.8985675506	-0.5060263347	-1.0347207217	-0.327251
C	 1.8979254525	-1.2079770216	-0.3346905275	 0.452774
C	 2.9153363959	-1.8480539129	-1.230002681	-0.499233
C	 1.2821069298	-1.9367000085	 0.9104911587	-0.018223
O	 2.5095542918	-1.7109554611	 1.6784549187	-0.320161
C	 2.283856899	-0.4431532324	 0.9783291639	-0.012259
C	 0.7496610407	-0.5139133336	 1.2486509004	-0.090423
H	 0.9040270277	 2.0035114708	 0.0385695093	 0.119672
H	-0.4569739749	 1.8099665884	-1.0802025473	 0.12995
H	-0.7565582772	 1.9189089661	 0.6644488584	 0.116564
H	-0.9546414157	-0.4405371524	-0.1037595117	 0.083008
H	 3.4224155671	-1.0935301274	-1.8387459768	 0.127486
H	 3.6538130804	-2.3704322651	-0.6176406626	 0.1413
H	 2.4379831419	-2.563791327	-1.9059094316	 0.127884
H	 0.7897424033	-2.9056195936	 0.9984328659	 0.090396
H	 2.9904526501	 0.3693730006	 1.1483111612	 0.091024
H	 0.3632084384	-0.3017716184	 2.2436663865	 0.085696
141.884	215.6702	223.5414	235.9898	278.9846	332.0136	453.6598	478.0172	519.8152	668.7689	682.7011	697.6743	786.0292	809.5351	856.3167	888.455	893.8747	913.9089	931.6072	972.7651	995.7175	1042.8444	1092.8934	1104.4462	1130.8312	1133.596	1158.4252	1169.1346	1189.036	1221.0664	1264.5928	1309.3009	1330.0556	1354.6783	1388.8576	1407.9574	1419.0227	1485.4726	1487.1882	1493.2252	1495.0291	3010.8302	3038.011	3046.2862	3109.3608	3112.3593	3113.4277	3117.8344	3119.4748	3136.3231	3149.0218
CC1OC2(C)C3OC2C13	C[C@H]1O[C@]2(C)[C@H]3O[C@@H]2[C@@H]13	
InChI=1S/C7H10O2/c1-3-4-5-7(2,9-3)6(4)8-5/h3-6H,1-2H3	InChI=1S/C7H10O2/c1-3-4-5-7(2,9-3)6(4)8-5/h3-6H,1-2H3/t3-,4-,5-,6+,7+/m1/s1
