16
gdb 26834	3.61675	1.10978	0.85383	4.2063	82.64	-0.1895	-0.0278	0.1616	1283.1788	0.126126	-434.116792	-434.108197	-434.107253	-434.149825	32.166	
N	 0.0686258831	 1.3783339751	 0.0583043816	-0.601781
C	 0.0046630221	-0.0010225152	 0.0088612747	 0.355411
C	-1.1474658705	-0.7979869985	 0.0299348599	 0.1561
N	-2.4486250704	-0.2150745408	 0.0151737369	-0.622901
C	-0.7176717906	-2.1405829869	 0.0337689818	-0.298316
C	 0.6722781496	-2.144032699	 0.0102113976	 0.221346
N	 1.0837012676	-0.8152757522	 0.0062743315	-0.35978
C	 1.6462585332	-3.1937558231	-0.0070845946	 0.059863
O	 2.8549810475	-3.0031180815	-0.0220273531	-0.346202
H	 0.7807364701	 1.7973566326	-0.5256437235	 0.251808
H	-0.8465548613	 1.7715866651	-0.1316212488	 0.26382
H	-2.8995280627	-0.2720911884	 0.9238579297	 0.241975
H	-3.0582351116	-0.6854718134	-0.6453983662	 0.240096
H	-1.3438604156	-3.0213272305	 0.0368113672	 0.102947
H	 2.0587566403	-0.5627270126	 0.0290767896	 0.272883
H	 1.2197947493	-4.2192343506	-0.0042736143	 0.062731
113.4184	153.4503	160.0889	232.6525	260.0716	293.4221	329.5256	386.7767	417.3328	525.7634	552.2375	643.766	646.0821	686.5601	730.0804	771.4415	828.7563	838.4764	847.979	1013.0091	1015.3709	1097.3634	1157.4587	1198.5922	1241.895	1261.5424	1378.2953	1392.1907	1427.8698	1524.1019	1579.1284	1614.6284	1643.8062	1669.8005	1736.6622	2903.3398	3238.3129	3489.2057	3523.2222	3560.6995	3623.1712	3655.4298
NC1=C(N)C=C(N1)C=O	Nc1c(N)cc([nH]1)C=O	
InChI=1S/C5H7N3O/c6-4-1-3(2-9)8-5(4)7/h1-2,8H,6-7H2	InChI=1S/C5H7N3O/c6-4-1-3(2-9)8-5(4)7/h1-2,8H,6-7H2
