16
gdb 17503	3.1213	2.4024	1.64876	3.3992	63.92	-0.2433	0.0513	0.2946	815.3243	0.127557	-383.656387	-383.648872	-383.647928	-383.687655	28.764	
C	-0.101888295	 1.5573739576	 0.1712586565	-0.511815
C	 0.1150989082	 0.0847725407	 0.0619156586	 0.370574
O	-0.8044846075	-0.8159029534	 0.681238477	-0.259371
C	 0.5843720694	-0.9420159568	 0.9945937053	-0.107856
C	 1.2851717496	-1.7158340023	-0.1877805294	-0.107808
O	 0.2910292573	-2.0252290942	-1.1670593619	-0.259364
C	 0.8276672196	-0.7017166328	-1.1399729962	 0.370513
C	 1.4113410908	-0.11278679	-2.3809724404	-0.511815
H	 0.8118546685	 2.1079804786	-0.0755598881	 0.125757
H	-0.8893633332	 1.8887602122	-0.5151192854	 0.135495
H	-0.4034326813	 1.8211363776	 1.1884695585	 0.139033
H	 0.8888092522	-0.8903430365	 2.0330358229	 0.108187
H	 2.1836484426	-2.3201064348	-0.1515664934	 0.108182
H	 0.6221301859	 0.2205655846	-3.0643980131	 0.135496
H	 2.0397707798	 0.7527298487	-2.1465166494	 0.125757
H	 2.0216312233	-0.8554669592	-2.9017320315	 0.139034
160.5439	186.6674	205.519	214.5654	297.1111	361.1637	447.2783	479.8781	568.3366	604.1341	724.7343	766.5789	799.5579	829.4814	848.6309	893.01	981.0798	986.8557	1004.5995	1042.8713	1093.9637	1104.3201	1136.222	1215.6881	1218.9865	1255.9067	1401.6447	1405.3683	1458.6324	1460.7957	1481.9581	1486.5383	1495.0194	1496.1236	3031.7324	3034.6749	3093.3232	3096.3604	3118.9816	3120.599	3185.9065	3195.6006
CC12OC1C1OC21C	C[C@]12O[C@H]1[C@H]1O[C@@]21C	
InChI=1S/C6H8O2/c1-5-3(7-5)4-6(5,2)8-4/h3-4H,1-2H3	InChI=1S/C6H8O2/c1-5-3(7-5)4-6(5,2)8-4/h3-4H,1-2H3/t3-,4+,5-,6+
