20
gdb 105874	2.2825	1.40876	1.18883	1.3133	74.82	-0.2365	0.0573	0.2939	1155.7212	0.170172	-440.23137	-440.22196	-440.221016	-440.265331	35.326	
C	-0.0418633663	 1.4869299488	-0.2205517273	-0.440754
C	 0.0467695579	 0.0270443111	 0.1705718868	-0.031469
N	 1.2245566069	-0.8437635538	-0.049845964	-0.202505
C	 2.4495963035	-0.0214713296	 0.2604637122	-0.18568
C	 2.0247190513	 0.1701142477	 1.7272969646	 0.049601
O	 2.0122928523	 1.5088045289	 2.1781062661	-0.424452
C	 0.7069292192	-0.5358534753	 1.3709827678	 0.22725
C	 0.133370622	-1.6538036805	 2.1964967048	-0.164279
O	 1.1013258365	-2.659476593	 2.4558666037	-0.416063
H	 0.7310043814	 2.1005940518	 0.2388456357	 0.154117
H	 0.0103532283	 1.5916051069	-1.310140543	 0.122422
H	-1.0108146623	 1.8830527499	 0.1012302245	 0.119931
H	-0.845766339	-0.5319332567	-0.1097529767	 0.092509
H	 3.3490179577	-0.6247663516	 0.1266089496	 0.110411
H	 2.543384114	 0.8952285955	-0.3268152469	 0.115798
H	 2.6090092869	-0.4689777136	 2.3992690184	 0.096006
H	 1.7517488857	 1.5174121847	 3.1046698404	 0.284801
H	-0.1905991952	-1.2822801279	 3.1765528807	 0.106397
H	-0.7527281732	-2.0709649474	 1.6937629205	 0.09423
H	 1.4327443123	-2.9334190458	 1.5916854318	 0.291728
73.9286	150.3692	159.483	191.2163	226.7859	231.4034	272.8573	333.9295	376.5529	437.5942	471.5301	521.1496	635.7313	664.0914	706.8076	756.4396	834.6139	888.0415	949.2756	977.4904	998.3786	1040.3701	1053.7491	1093.4577	1119.1664	1135.3542	1146.4457	1190.0902	1205.0754	1238.651	1257.7307	1289.7931	1323.9089	1336.3543	1387.1234	1412.5236	1420.8875	1430.7005	1462.5513	1491.226	1492.4159	1503.7824	1520.7884	2985.6569	3039.0611	3040.5154	3053.7244	3071.0168	3093.8616	3108.8353	3124.6439	3169.5958	3783.279	3816.9565
CC1N2CC(O)C12CO	C[C@H]1N2C[C@@H](O)[C@@]12CO	
InChI=1S/C6H11NO2/c1-4-6(3-8)5(9)2-7(4)6/h4-5,8-9H,2-3H2,1H3	InChI=1S/C6H11NO2/c1-4-6(3-8)5(9)2-7(4)6/h4-5,8-9H,2-3H2,1H3/t4-,5-,6-,7?/m1/s1
