23
gdb 86434	1.68065	1.59159	0.86732	1.9332	88.71	-0.2333	0.0197	0.253	1405.4673	0.20578	-388.321442	-388.311788	-388.310844	-388.355373	37.387	
C	 0.0408877355	 1.5528748744	 0.006608725	-0.401333
C	 0.0350813905	 0.0220708878	-0.0150614287	 0.012329
C	 0.6903283177	-0.5428301502	-1.2822038844	-0.213622
C	 0.5513692186	-2.0673591073	-1.3483112883	 0.086696
O	 1.3297767694	-2.6298416538	-2.4063122559	-0.437927
C	 0.8872464046	-2.7082875125	-0.0260094489	-0.187864
C	 0.9855080103	-2.0527149201	 1.1340412997	 0.303144
C	 1.3635914254	-2.7398280592	 2.418027939	-0.474704
C	 0.7230498551	-0.5656525056	 1.2285527761	-0.280918
H	 1.065549203	 1.9414780762	-0.0329541381	 0.111781
H	-0.5041208756	 1.9635867113	-0.849619853	 0.11221
H	-0.42600459	 1.9398629121	 0.9189911153	 0.109694
H	-1.0117947262	-0.3152801782	-0.0036025087	 0.075913
H	 0.2608959497	-0.0944247826	-2.184423625	 0.096253
H	 1.7608935924	-0.2889266298	-1.2794041668	 0.079854
H	-0.4812751471	-2.3214256038	-1.6264245761	 0.091951
H	 2.2563117163	-2.51680588	-2.1655682439	 0.271369
H	 1.0655028307	-3.7813511577	-0.0659979253	 0.080534
H	 1.5775414748	-3.8006126778	 2.2636079209	 0.121323
H	 2.2502213643	-2.2733813374	 2.8673310337	 0.121465
H	 0.5612063608	-2.6568320108	 3.1626094019	 0.122876
H	 1.6788088187	-0.04511649	 1.4027366392	 0.101078
H	 0.119160791	-0.358109725	 2.1228906222	 0.097898
109.4855	146.1256	157.4504	207.6084	242.104	251.5147	285.9966	323.7709	415.8557	425.7601	439.722	442.1525	461.5249	537.4243	613.4865	837.4549	861.6216	873.7962	891.5548	921.067	952.6979	981.2859	1018.7773	1050.0187	1053.3214	1083.3129	1088.4136	1148.8404	1162.2683	1172.9773	1195.9753	1256.4841	1274.2461	1299.5526	1320.5845	1358.8844	1367.2725	1377.3288	1397.8143	1410.3484	1413.4058	1422.2245	1471.6244	1479.4922	1486.7412	1492.4315	1497.9859	1499.4422	1733.113	2979.7204	2992.4791	3000.5672	3011.2739	3014.0147	3023.956	3024.686	3059.162	3070.9375	3089.5454	3097.7115	3112.0987	3144.7671	3793.6831
CC1CC(O)C=C(C)C1	C[C@H]1C[C@@H](O)C=C(C)C1	
InChI=1S/C8H14O/c1-6-3-7(2)5-8(9)4-6/h4,7-9H,3,5H2,1-2H3	InChI=1S/C8H14O/c1-6-3-7(2)5-8(9)4-6/h4,7-9H,3,5H2,1-2H3/t7-,8+/m1/s1
