13
gdb 125284	3.35511	1.27196	0.92761	4.405	76.74	-0.2135	-0.0771	0.1365	1167.1375	0.088318	-452.774127	-452.766293	-452.765349	-452.806728	28.177	
C	-0.0221661658	 1.4536970924	 0.0259690838	-0.484597
C	-0.0005971204	-0.0292864135	 0.0219873698	 0.417973
C	-0.9527235347	-0.9451324572	-0.2322253638	-0.41656
C	-0.3041508122	-2.2298075506	-0.0711552867	 0.223841
C	 1.0984329192	-1.9970959317	 0.2964066039	 0.389679
O	 2.0075563055	-2.7409593545	 0.5293995094	-0.35345
N	-1.1989737437	-4.4793860502	-0.3185661698	-0.212586
N	-0.7959595161	-3.425661865	-0.2059962547	 0.102944
O	 1.2155515178	-0.6115372624	 0.3355412689	-0.241983
H	 0.6972864629	 1.8571174553	-0.6953927826	 0.15082
H	-1.0187628671	 1.8178276887	-0.231502963	 0.139024
H	 0.2520464953	 1.846014634	 1.0116945606	 0.15083
H	-1.9804764207	-0.7635847054	-0.499256296	 0.134065
118.2549	143.4001	168.3866	188.9346	286.8695	313.331	450.0717	509.0439	519.9595	603.5302	604.5955	658.4703	726.1957	761.017	816.9935	949.9067	1004.3102	1050.9443	1063.1387	1168.5009	1240.7384	1298.2864	1415.946	1457.051	1466.9447	1485.8185	1683.3742	1866.5382	2217.9511	3033.9106	3086.9811	3135.1896	3272.5128
CC1=CC2=C(ON=N2)O1	C[C]1C=C(C(=O)O1)[N][N]	
InChI=1S/C5H4N2O2/c1-3-2-4-5(8-3)9-7-6-4/h2H,1H3	InChI=1S/C5H4N2O2/c1-3-2-4(7-6)5(8)9-3/h2H,1H3
