19
gdb 71808	3.48347	1.61059	1.49341	1.634	77.51	-0.2217	0.0687	0.2904	963.0681	0.161994	-382.005053	-381.998114	-381.99717	-382.035952	29.032	
C	-0.0886218255	 1.5317615325	 0.0539868378	-0.490395
C	 0.0403803499	 0.0384956262	-0.0420975958	 0.335319
C	-0.2736382148	-0.7636135429	-1.3018917003	-0.288304
C	-0.689754239	-1.9116255309	-0.3526341721	-0.021044
C	 0.4630312017	-2.8675594776	-0.0457297113	-0.038122
N	 1.7765300501	-2.4270474676	-0.5813509256	-0.33542
C	 1.3910129905	-2.0872032299	 0.8044677808	-0.042883
C	 0.7058794499	-0.7638367096	 1.0304664801	-0.082999
N	-0.7659980825	-0.9120071649	 0.8257261607	-0.190633
H	 0.7449137448	 2.0261222585	-0.4587222873	 0.122639
H	-1.0205883846	 1.8716956131	-0.410968287	 0.120517
H	-0.0902367111	 1.8637733744	 1.0964211694	 0.123466
H	-1.1511903257	-0.3335332872	-1.7929862681	 0.095806
H	 0.5156188776	-0.9497574855	-2.0290863136	 0.121968
H	-1.6402499813	-2.4078329678	-0.5415431984	 0.07494
H	 0.2777656039	-3.9256923949	 0.1023039504	 0.090623
H	 2.4219112429	-3.2152275873	-0.5560877636	 0.228781
H	 1.9417811958	-2.5261487129	 1.6298513209	 0.091316
H	 0.9696234774	-0.2164307556	 1.930282493	 0.084426
171.6797	178.4616	299.9196	331.017	362.2561	487.4849	562.5716	589.8867	691.0413	705.4571	746.9129	782.4274	811.8094	844.8314	864.174	883.5967	915.3351	943.7178	960.3798	993.5203	1020.5258	1033.8894	1063.0921	1077.8427	1098.496	1137.3303	1150.6679	1179.0875	1222.9402	1225.5441	1247.6673	1283.4328	1304.8351	1340.2148	1357.9356	1407.3146	1417.8226	1430.4785	1479.7236	1488.9164	1492.869	3026.5261	3063.369	3089.4296	3107.3207	3125.9663	3137.9133	3154.1924	3165.6649	3175.1845	3474.6611
CC12CC3C4NC4C1N23	C[C@@]12C[C@H]3[C@H]4N[C@H]4[C@@H]1N23	
InChI=1S/C7H10N2/c1-7-2-3-4-5(8-4)6(7)9(3)7/h3-6,8H,2H2,1H3	InChI=1S/C7H10N2/c1-7-2-3-4-5(8-4)6(7)9(3)7/h3-6,8H,2H2,1H3/t3-,4+,5+,6-,7+,9?/m0/s1
