17
gdb 51334	4.67679	1.05296	0.98767	3.3777	73.55	-0.2369	0.0259	0.2628	1199.5705	0.137504	-417.95456	-417.947122	-417.946178	-417.987594	28.206	
O	-0.095630526	-0.111464935	-0.2000940023	-0.321205
C	-0.0208456683	 1.0905047336	-0.0624806839	 0.152011
N	 1.1297026943	 1.7931217841	 0.1299351826	-0.298747
C	 2.4367635001	 1.1785820737	 0.1903016923	 0.049035
C	 3.5158751858	 2.0737894293	-0.4284969607	-0.066701
C	 3.8423702803	 2.6843078476	 0.8889543146	-0.071616
C	 3.1962359055	 1.3922794724	 1.5358338343	-0.102158
C	 4.545201744	 0.7256386694	 1.2393476295	-0.152512
N	 4.8354680699	 1.7984826463	 0.2237641448	-0.145416
H	-0.9047345381	 1.7587731788	-0.0859217384	 0.074983
H	 1.0660241649	 2.7942060258	 0.2367941093	 0.24787
H	 2.3243329883	 0.1499830732	-0.157265926	 0.118839
H	 3.5430372605	 2.5026148525	-1.4222008821	 0.10528
H	 4.0529920865	 3.6934733605	 1.2169400474	 0.104101
H	 2.6660617127	 1.2980632268	 2.4812699979	 0.083792
H	 5.2739703987	 0.8159861629	 2.0481732221	 0.114553
H	 4.5427237909	-0.2994787619	 0.8510363786	 0.107892
30.4214	134.4332	189.7488	256.9251	391.2157	435.3883	482.7427	539.4714	731.5606	744.2075	786.5531	794.9006	827.6851	898.0079	934.2695	946.3064	964.09	990.3273	999.5857	1028.1952	1052.4843	1063.7992	1091.6179	1151.1723	1163.0004	1183.7425	1199.3669	1213.9059	1227.3853	1277.8509	1296.8033	1324.0332	1369.9047	1432.6264	1509.6322	1533.0543	1806.3838	2934.6626	3038.2171	3106.3372	3109.7893	3140.8751	3195.4099	3209.6687	3619.6111
O=CNC1C2C3C1CN23	O=CN[C@H]1[C@H]2[C@H]3[C@@H]1CN23	
InChI=1S/C6H8N2O/c9-2-7-4-3-1-8-5(3)6(4)8/h2-6H,1H2,(H,7,9)	InChI=1S/C6H8N2O/c9-2-7-4-3-1-8-5(3)6(4)8/h2-6H,1H2,(H,7,9)/t3-,4-,5-,6+,8?/m1/s1
