20
gdb 112800	1.89276	1.44922	0.88904	3.6888	77.8	-0.223	-0.024	0.199	1346.6194	0.167985	-440.250247	-440.240247	-440.239303	-440.285868	34.946	
C	-0.0452182051	 1.3829707717	 0.1406279547	-0.239856
O	 0.2984616353	 0.0341955245	-0.0925970639	-0.242309
C	 0.8685693282	-0.597286434	 1.0220367713	 0.116373
C	-0.131990176	-1.162109672	 2.0680971702	-0.201288
N	-0.0037019184	-2.4865610188	 1.435647245	-0.074519
C	 0.0384434907	-3.6653403497	 2.2712316046	-0.328749
C	 1.2080994566	-2.0836433309	 0.7045568523	-0.095578
C	 1.2303856203	-2.4657899289	-0.7649538385	 0.169633
O	 2.239813051	-2.6138745652	-1.4032306608	-0.251504
H	 0.8346742121	 1.9769537068	 0.4321041624	 0.11069
H	-0.4478042613	 1.7787325569	-0.7941228351	 0.136079
H	-0.8083164583	 1.4849364797	 0.9261791001	 0.110712
H	 1.6955765046	-0.0005656647	 1.4265956157	 0.0794
H	 0.2698206999	-1.1180126651	 3.0932734811	 0.087874
H	-1.1459022393	-0.7466173088	 2.0616072946	 0.108363
H	-0.9264967443	-3.7979503081	 2.7715043634	 0.125738
H	 0.2201279956	-4.5522455008	 1.6553145262	 0.1277
H	 0.8246884846	-3.6209868942	 3.04875598	 0.094319
H	 2.1578492528	-2.3887869235	 1.1698716383	 0.078347
H	 0.2191801011	-2.598238595	-1.2044503616	 0.088576
60.5593	83.0704	104.7702	153.7661	195.1753	202.787	232.5905	263.2769	332.0221	347.7222	442.9599	488.579	524.3617	705.1958	839.1097	872.0991	951.9272	975.4227	1009.2707	1024.3356	1078.6659	1107.5154	1130.9415	1165.4193	1181.8077	1183.5465	1194.5012	1229.3959	1238.0651	1266.5282	1281.2169	1305.8585	1332.3933	1389.0948	1402.449	1454.25	1481.0411	1485.6616	1488.6402	1498.9655	1506.8403	1509.0637	1830.9941	2914.2477	2927.9349	2971.9772	2979.8999	2990.5807	3026.6543	3030.9573	3057.3001	3059.4217	3101.7024	3124.1862
COC1CN(C)C1C=O	CO[C@H]1CN(C)[C@H]1C=O	
InChI=1S/C6H11NO2/c1-7-3-6(9-2)5(7)4-8/h4-6H,3H2,1-2H3	InChI=1S/C6H11NO2/c1-7-3-6(9-2)5(7)4-8/h4-6H,3H2,1-2H3/t5-,6-/m0/s1
