19
gdb 105027	2.89304	1.07137	0.93798	1.3294	71.59	-0.2516	-0.0305	0.2211	1297.3537	0.156203	-460.143597	-460.133733	-460.132789	-460.179182	35.301	
C	-0.0702564512	 1.5430813854	 0.4834289702	-0.418776
C	-0.0595342666	 0.0885319956	-0.0360284431	-0.146681
C	 0.8600801548	-0.7191400945	 0.8650251623	 0.145196
O	 1.9007203532	-1.21170614	 0.5136124767	-0.2508
C	-1.4683935442	-0.5019843152	-0.0924800922	 0.347218
C	-2.3809747154	 0.054313227	-1.1846445644	-0.133272
O	-3.7081877759	-0.3942716459	-1.0384759785	-0.414922
C	-1.7798150824	-1.8346921029	 0.4420286511	-0.231734
O	-2.1361466634	-0.6447155844	 1.1737198868	-0.286339
H	 0.9478858616	 1.9391070933	 0.5339860905	 0.135056
H	-0.6496262512	 2.1976369769	-0.1718172797	 0.132973
H	-0.5107965791	 1.5870171505	 1.4838232588	 0.1428
H	 0.3729350913	 0.0521067187	-1.0423644303	 0.101687
H	 0.5099321404	-0.7961765806	 1.9188109382	 0.096358
H	-2.3291044502	 1.1539957181	-1.1810352637	 0.09808
H	-2.0254063391	-0.2866316561	-2.1634448607	 0.123259
H	-3.9259753718	-0.2718554758	-0.1046804841	 0.293878
H	-2.6222366448	-2.3813553254	 0.02727162	 0.136372
H	-1.0010293259	-2.4410456445	 0.8998583619	 0.129649
38.2933	67.1915	119.0474	191.3181	197.2299	245.838	282.8062	317.6164	362.3428	388.7183	443.1417	481.3246	493.4802	640.2555	720.9405	840.8844	869.4347	909.9906	933.3092	957.4376	1037.7846	1071.5867	1080.7139	1118.7152	1131.3862	1149.0238	1179.8596	1186.7629	1234.1919	1296.5339	1334.2994	1365.2801	1401.2084	1406.8193	1424.0832	1437.182	1497.1487	1499.2255	1507.4306	1519.9846	1832.7789	2883.8668	2987.818	3047.2104	3054.3365	3068.3354	3102.5879	3120.5144	3126.1613	3197.9999	3763.8272
CC(C=O)C1(CO)CO1	C[C@@H](C=O)[C@@]1(CO)CO1	
InChI=1S/C6H10O3/c1-5(2-7)6(3-8)4-9-6/h2,5,8H,3-4H2,1H3	InChI=1S/C6H10O3/c1-5(2-7)6(3-8)4-9-6/h2,5,8H,3-4H2,1H3/t5-,6+/m0/s1
