16
gdb 125295	2.94028	1.32393	1.03835	3.4083	75.39	-0.2468	0.0003	0.2471	1143.4352	0.125526	-396.963849	-396.955497	-396.954553	-396.997688	29.749	
C	 0.1549329984	 1.477851244	 0.1350742841	-0.516804
C	 0.0497609604	-0.003738936	-0.0183206887	 0.370285
C	-0.0157203673	-0.8035109508	-1.1411257172	-0.300742
C	-0.0959945999	-2.1242254035	-0.652149162	 0.004438
N	-0.0818995372	-2.1630480668	 0.6736624501	-0.266178
N	 0.0021173417	-0.8616915544	 1.0449091661	-0.012166
C	 0.0599832124	-0.5497050181	 2.4545621965	-0.28186
C	 1.3824522107	-0.0749144385	 2.8910183063	 0.277111
N	 2.4117546182	 0.3218941134	 3.2326143113	-0.301848
H	 1.069587038	 1.7709418487	 0.6623047836	 0.161149
H	 0.1683324275	 1.9494304779	-0.8492443897	 0.146538
H	-0.6938448078	 1.8948907861	 0.6905812929	 0.135572
H	-0.0076697687	-0.4706374486	-2.1666498987	 0.108023
H	-0.1679479664	-3.0458571086	-1.2108742921	 0.118622
H	-0.6852793288	 0.2101845866	 2.7150028965	 0.167563
H	-0.1919832612	-1.4691774914	 2.9871805208	 0.190299
45.7687	95.5608	133.1149	228.4898	255.6317	279.6181	368.5589	414.768	494.4317	642.297	665.0931	673.1085	787.7144	800.7972	895.165	928.8972	937.4811	956.9365	1002.9061	1063.9621	1065.4629	1143.0427	1225.5216	1241.4788	1333.9127	1367.7841	1375.7843	1417.953	1425.3166	1452.31	1483.857	1486.3172	1515.2127	1594.2869	2366.5345	3029.1746	3052.163	3081.8527	3124.5175	3133.7247	3244.9376	3268.0791
CC1=CC=NN1CC#N	Cc1ccnn1CC#N	
InChI=1S/C6H7N3/c1-6-2-4-8-9(6)5-3-7/h2,4H,5H2,1H3	InChI=1S/C6H7N3/c1-6-2-4-8-9(6)5-3-7/h2,4H,5H2,1H3
