18
gdb 82411	2.57571	1.69069	1.23836	2.1037	72.02	-0.2576	0.0203	0.2778	1033.955	0.14874	-439.078206	-439.070178	-439.069234	-439.111077	30.465	
C	 0.7419541617	 1.5224305961	-0.0637284581	-0.394265
C	 0.1249899136	 0.1148549305	 0.0599303423	-0.110243
C	 0.4051147051	-0.7661770701	-1.1548661628	 0.028737
O	 1.5540991844	-0.4588174636	-1.9473188304	-0.238552
C	 1.5990032465	-1.6212160591	-1.115946353	 0.01211
C	 2.4461414084	-1.5072393386	 0.1341974523	-0.111043
O	 1.6607363159	-1.3741432163	 1.3299508573	-0.252439
C	 0.5662915889	-0.5611547531	 1.3507014082	 0.382239
N	-0.0849590779	-0.3693955493	 2.4204099456	-0.515019
H	 1.8309993941	 1.4843164191	-0.1377431745	 0.128897
H	 0.3693729157	 2.02081822	-0.9628699567	 0.125651
H	 0.468093094	 2.115207297	 0.8115977812	 0.138226
H	-0.955735879	 0.231440281	 0.1627922599	 0.114862
H	-0.4577912702	-1.0887858751	-1.7340374717	 0.107759
H	 1.6186770107	-2.5660503328	-1.6545242886	 0.107435
H	 3.0443121327	-2.4060704587	 0.2967874036	 0.126706
H	 3.1245732039	-0.6517496052	 0.0360754556	 0.131423
H	 0.3546854317	-0.8700519119	 3.1957010099	 0.217518
57.2566	142.231	206.8977	237.548	247.1331	372.1197	419.5708	451.057	511.4404	595.7185	683.7577	729.1609	786.7588	811.0248	845.3573	906.8335	927.8866	954.2358	1006.6167	1023.2908	1051.2097	1079.2539	1101.9933	1106.6583	1155.5037	1170.4	1273.3048	1288.7307	1310.4384	1317.1904	1337.4735	1369.7912	1406.4487	1422.1005	1458.5806	1491.7472	1495.0432	1503.8093	1740.8688	3041.5838	3053.3397	3090.3767	3110.3905	3126.0914	3128.3009	3139.1896	3142.3269	3461.2867
CC1C2OC2COC1=N	C[C@H]1[C@H]2O[C@H]2CO[C]1[NH]	
InChI=1S/C6H9NO2/c1-3-5-4(9-5)2-8-6(3)7/h3-5,7H,2H2,1H3	InChI=1S/C6H9NO2/c1-3-5-4(9-5)2-8-6(3)7/h3-5,7H,2H2,1H3/t3-,4-,5+/m0/s1
