23
gdb 122626	3.7555	0.65534	0.59417	2.2784	82.38	-0.2401	0.0764	0.3165	1905.3367	0.204387	-425.406064	-425.395487	-425.394543	-425.442966	37.485	
C	-0.3569581579	 1.4980784579	-0.1175935915	-0.402823
C	 0.1472530335	 0.069039377	-0.0766757862	 0.142176
O	 1.4435867937	-0.07998043	-0.7046888807	-0.292068
C	 1.9485761959	-0.8395459064	 0.4104121752	-0.07747
C	 0.6781674638	-0.5608750051	 1.2449282786	-0.051799
C	 0.8596310629	 0.3467646938	 2.4587247997	-0.210062
C	 1.518551546	-0.3780708811	 3.6375937697	-0.169677
C	 1.7343013706	 0.5252674247	 4.8445400991	-0.075404
O	 2.3419030946	-0.2488239753	 5.8675452533	-0.421288
H	 0.3376398352	 2.1868369367	 0.3697844388	 0.119956
H	-0.4730484267	 1.8151822141	-1.158892246	 0.126358
H	-1.334272402	 1.578161984	 0.3708527298	 0.113894
H	-0.5860424211	-0.5874110149	-0.5694450868	 0.067417
H	 2.115569899	-1.8928029873	 0.1486179366	 0.095551
H	 2.8852042101	-0.4203655232	 0.8002008004	 0.097117
H	 0.1328736382	-1.4618823455	 1.5411986074	 0.072034
H	 1.4674104683	 1.2174290082	 2.1800777543	 0.101935
H	-0.1172655221	 0.7398282856	 2.7708494968	 0.096152
H	 0.9028262001	-1.2314132151	 3.9475830267	 0.105679
H	 2.4903620169	-0.7887974882	 3.3370536029	 0.109187
H	 2.3701371625	 1.3799172897	 4.5596635576	 0.084382
H	 0.7673699639	 0.938169748	 5.1772280732	 0.083256
H	 2.4845532544	 0.3187327826	 6.6304292213	 0.2855
51.6635	63.3563	87.8278	104.4391	148.9256	206.6041	234.5589	262.9399	289.8152	362.2671	405.908	443.7005	534.0434	737.3005	765.4201	834.0208	870.0137	879.1516	900.1496	983.15	1002.9009	1023.3565	1033.0047	1055.3069	1077.54	1094.5408	1124.2644	1156.5301	1162.7248	1191.2607	1221.3183	1226.8302	1260.9226	1287.7061	1303.4738	1312.6295	1322.2637	1356.2102	1372.821	1388.8566	1403.5654	1408.2766	1463.3802	1480.6666	1486.8945	1496.687	1501.9703	1524.7686	1528.8865	2956.2392	2977.9914	2980.9067	3002.7304	3011.7594	3029.9143	3037.7212	3040.3094	3042.6991	3063.977	3077.6176	3104.9082	3122.7577	3831.2269
CC1OCC1CCCO	C[C@H]1OC[C@H]1CCCO	
InChI=1S/C7H14O2/c1-6-7(5-9-6)3-2-4-8/h6-8H,2-5H2,1H3	InChI=1S/C7H14O2/c1-6-7(5-9-6)3-2-4-8/h6-8H,2-5H2,1H3/t6-,7-/m1/s1
