16
gdb 13566	4.25551	1.24781	1.08653	1.7956	62.22	-0.2715	-0.0424	0.2291	1088.6071	0.127628	-420.861627	-420.853111	-420.852167	-420.895255	30.039	
C	 0.3935928181	 1.5582973909	-0.4303046478	-0.4214
C	 0.0995374893	 0.1309187359	-0.0538776241	 0.08491
O	 1.2138842285	-0.7538230063	 0.1442654548	-0.265566
C	 0.3634625438	-0.4777591527	 1.2599358682	 0.026515
C	 0.9982447857	 0.254721999	 2.434162986	 0.013562
O	 0.0154382223	 0.6516889724	 3.3478087769	-0.42995
C	 2.0119919929	-0.6566812829	 3.1059657237	 0.133608
O	 1.9232285303	-0.9335709592	 4.2780721366	-0.261141
H	 1.2027957787	 1.9852046911	 0.1654906218	 0.129876
H	 0.6879759111	 1.6131195928	-1.4833115658	 0.134306
H	-0.5010907695	 2.1752413799	-0.2974079768	 0.134783
H	-0.707772259	-0.3274078597	-0.6283285938	 0.098323
H	-0.2706118687	-1.308919188	 1.5741628989	 0.103815
H	 1.565928737	 1.1196867157	 2.0532968697	 0.097905
H	 0.2693847423	 0.2454600898	 4.1929679304	 0.29744
H	 2.8228105072	-1.0473899486	 2.4630990113	 0.123015
50.7791	103.5247	145.1253	198.4795	212.0601	314.3021	384.6341	391.4083	440.4136	482.9168	532.8819	757.5389	791.2923	816.6487	868.0435	978.1067	992.5553	1001.1348	1097.04	1113.0756	1155.2123	1171.5529	1179.7758	1259.7197	1289.003	1302.9025	1382.6226	1391.4217	1414.4802	1434.9628	1465.6294	1487.6505	1508.2909	1810.8739	2965.58	2982.4666	3044.2301	3087.2675	3101.2455	3106.8862	3135.0203	3673.3388
CC1OC1C(O)C=O	C[C@H]1O[C@H]1[C@@H](O)C=O	
InChI=1S/C5H8O3/c1-3-5(8-3)4(7)2-6/h2-5,7H,1H3	InChI=1S/C5H8O3/c1-3-5(8-3)4(7)2-6/h2-5,7H,1H3/t3-,4+,5-/m1/s1
