14
gdb 125107	2.39089	1.8729	1.0571	4.1163	68.61	-0.251	-0.0698	0.1812	1051.0423	0.100476	-473.846178	-473.838317	-473.837373	-473.87922	28.548	
C	-0.0201476886	 1.5416572707	-0.0156366441	-0.507062
C	-0.0148700382	 0.0405051949	-0.0484320708	 0.141301
C	-1.1254735253	-0.7264461684	 0.075743002	 0.169583
O	-2.3656098434	-0.2593797002	 0.2426898903	-0.407315
C	-1.0313073491	-2.1883783509	 0.0325624941	 0.407748
O	-2.0164651041	-2.8880161762	 0.1422211333	-0.375138
O	 0.1945137072	-2.7387229015	-0.1343263132	-0.251032
N	 1.3633684307	-1.974490346	-0.2659224134	-0.094819
C	 1.2074303222	-0.6935012146	-0.2188105153	 0.00548
H	 0.6028340875	 1.9178618317	 0.8035467159	 0.14633
H	 0.384349805	 1.9553034548	-0.9462003773	 0.146274
H	-1.0328609615	 1.9233771849	 0.119040425	 0.158488
H	-2.9305591268	-1.0537990188	 0.297130934	 0.318845
H	 2.1449956845	-0.1528472103	-0.3259258706	 0.141316
50.0583	125.5964	181.767	269.245	290.634	330.5951	482.2225	519.2519	532.8979	576.5323	613.5083	655.546	674.6131	790.8298	869.4134	928.1705	939.4952	981.7007	1060.1183	1068.8361	1203.4654	1275.0495	1326.0613	1353.7537	1406.9289	1440.8989	1487.2041	1487.8458	1607.811	1734.761	1782.5602	3036.1969	3088.1151	3147.5426	3168.249	3616.4305
CC1=C(O)C(=O)ON=C1	Cc1c(O)c(=O)onc1	
InChI=1S/C5H5NO3/c1-3-2-6-9-5(8)4(3)7/h2,7H,1H3	InChI=1S/C5H5NO3/c1-3-2-6-9-5(8)4(3)7/h2,7H,1H3
