20
gdb 79531	3.00137	1.7457	1.66238	1.6686	76.7	-0.2178	0.0809	0.2988	931.1975	0.174602	-403.13769	-403.130951	-403.130007	-403.16836	28.637	
C	-0.2031799488	 1.4680527726	 0.0356411807	-0.335337
N	 0.0465214979	 0.0357168646	 0.0341914622	-0.04908
C	 0.8919054065	-0.4668661674	-1.0282270093	-0.044275
C	 2.4081948621	-0.342761121	-0.605360246	 0.087761
C	 2.286317857	-0.0341450755	 0.897742327	-0.240969
C	 0.8279942763	-0.5191009877	 1.1619369061	-0.02334
C	 0.7605111444	-2.022301574	 0.8000699055	-0.219505
C	 1.1679582714	-1.9591819098	-0.6869484176	 0.083538
O	 2.5976458098	-1.7648855195	-0.7988501626	-0.303728
H	 0.7014824869	 2.100263103	 0.031214358	 0.098796
H	-0.7931797053	 1.729516871	-0.8488573194	 0.121996
H	-0.7933278162	 1.7318258359	 0.9189910954	 0.120695
H	 0.5971540843	-0.1906873456	-2.0384175373	 0.075884
H	 3.130297668	 0.2523205307	-1.1670160316	 0.072792
H	 3.0400405906	-0.5763230155	 1.4731680177	 0.109518
H	 2.3949047314	 1.0349590625	 1.1048409278	 0.097383
H	 0.4111994113	-0.2501420028	 2.1337245717	 0.065344
H	 1.4475369437	-2.6524577045	 1.3692619226	 0.103319
H	-0.2621922523	-2.389750152	 0.9192987297	 0.102288
H	 0.8064939511	-2.771633005	-1.3193599106	 0.07692
185.3987	227.7794	290.6456	364.083	396.1012	482.4847	529.599	614.7317	655.5959	729.5941	806.2625	826.2272	848.4502	882.6802	891.5419	910.7411	922.2654	964.9862	984.9868	1015.3654	1017.2796	1034.4867	1087.4963	1099.1706	1134.6889	1146.4571	1164.922	1184.0916	1205.0001	1233.4225	1259.3011	1263.1208	1285.0109	1296.4782	1323.706	1335.2366	1351.5339	1371.4906	1455.0668	1464.8443	1476.9035	1494.8325	1510.4924	2955.1732	3056.0831	3060.8894	3064.2881	3096.3	3098.375	3100.566	3104.8448	3113.6066	3123.3566	3143.5496
CN1C2C3CC1CC2O3	CN1[C@H]2[C@H]3C[C@@H]1C[C@@H]2O3	
InChI=1S/C7H11NO/c1-8-4-2-5-7(8)6(3-4)9-5/h4-7H,2-3H2,1H3	InChI=1S/C7H11NO/c1-8-4-2-5-7(8)6(3-4)9-5/h4-7H,2-3H2,1H3/t4-,5-,6+,7+
