18
gdb 40581	4.33832	1.15633	1.08478	2.0337	74.61	-0.246	0.0735	0.3195	1144.1666	0.149265	-401.858033	-401.850933	-401.849989	-401.890188	27.734	
C	-0.5447428319	 1.2358720352	-0.4457864498	-0.183987
O	 0.3996588377	 1.8119172655	 0.4543793934	-0.235467
C	 0.4330528272	 0.3926546061	 0.2567722937	 0.053777
C	 0.0400620452	-0.4488110397	 1.4383127515	 0.00972
C	-0.1921650856	-1.9460211525	 1.3069995269	-0.081108
C	 1.1000609972	-2.6678254362	 1.5306830221	-0.037404
C	 2.193979508	-1.6538293319	 1.8056903154	-0.242868
C	 1.0701367782	-0.8745900582	 2.5151926085	-0.034978
N	 0.2821786754	-2.2146569308	 2.7090664418	-0.164227
H	-1.5808295282	 1.2495888186	-0.1088430343	 0.114081
H	-0.3965501356	 1.4729524241	-1.4984477863	 0.11619
H	 1.2956940041	 0.0501169814	-0.3155986604	 0.093583
H	-0.8199170033	 0.0092488261	 1.9376517772	 0.092355
H	-1.0654463575	-2.4497950281	 0.907322573	 0.09562
H	 1.2065973056	-3.7216006742	 1.2985391378	 0.097248
H	 2.9073270757	-2.0478208208	 2.5339319712	 0.116263
H	 2.7368768029	-1.186309674	 0.9781315417	 0.100343
H	 1.271336265	-0.2389203807	 3.3743501866	 0.09086
58.5342	153.5944	178.6449	324.7819	393.121	496.433	516.7603	749.0483	758.811	779.5571	813.6273	824.8051	862.6882	877.8836	928.9417	945.5545	965.9186	1010.8496	1025.7744	1033.5212	1050.3602	1067.0013	1100.7039	1115.6966	1136.8914	1153.5037	1166.3991	1183.897	1200.4655	1210.9615	1262.5418	1265.8931	1291.8601	1315.9778	1356.1723	1375.0629	1460.9348	1501.7473	1530.3458	3048.5064	3061.6932	3080.9876	3103.4798	3109.1684	3146.9299	3167.6329	3171.9157	3184.399
C1OC1C1C2C3CC1N23	C1O[C@H]1[C@H]1[C@H]2[C@H]3C[C@@H]1N23	
InChI=1S/C7H9NO/c1-3-6(5-2-9-5)7-4(1)8(3)7/h3-7H,1-2H2	InChI=1S/C7H9NO/c1-3-6(5-2-9-5)7-4(1)8(3)7/h3-7H,1-2H2/t3-,4+,5+,6-,7+,8?/m0/s1
