21
gdb 101362	3.20902	1.03373	0.87997	2.7384	78.21	-0.2335	0.0721	0.3056	1370.6894	0.181132	-424.175694	-424.16627	-424.165325	-424.210239	35.167	
C	-0.0187723363	 1.4373877887	-0.3465630985	-0.398645
C	 0.0861829113	-0.0326116358	 0.0790359141	 0.006
C	 0.8234948857	-0.1903155872	 1.4097839328	-0.079817
O	 2.1456437852	 0.3004194842	 1.2424631837	-0.422055
C	-1.2937112166	-0.6699642978	 0.1727646611	 0.133045
O	-2.0463544625	-0.6218481802	-1.0796120034	-0.308928
C	-2.3364994271	-2.0174646259	-0.9711818736	 0.105426
C	-1.0897354773	-2.8343973211	-1.0645278026	-0.300196
C	-1.4739423566	-2.1892192476	 0.2551021422	-0.153219
H	 0.9751736356	 1.882866672	-0.4223949927	 0.130212
H	-0.5230616553	 1.520360846	-1.3123099522	 0.131377
H	-0.5946760403	 2.0159010666	 0.3864815769	 0.103794
H	 0.6672101849	-0.574841233	-0.6766577073	 0.085114
H	 0.2898559171	 0.3689642555	 2.1970364905	 0.081599
H	 0.8326991017	-1.2513628557	 1.7063901138	 0.088401
H	 2.5984384294	 0.2400205934	 2.0883085287	 0.286561
H	-1.887384179	-0.1680229684	 0.9509611879	 0.076362
H	-3.3383330471	-2.3485054114	-1.2182923059	 0.103094
H	-1.2364567338	-3.9100406047	-1.0870784194	 0.113978
H	-0.2512129378	-2.4729376615	-1.6518762092	 0.120769
H	-1.6450511112	-2.7568725358	 1.1594356932	 0.097129
64.2691	88.8767	151.9446	170.9985	230.6202	244.4115	261.2375	366.5316	388.6855	404.9753	488.5788	567.3318	736.2802	771.4332	807.7267	872.0364	921.8032	935.2802	944.4332	963.7634	987.6957	1018.8124	1035.8408	1050.0322	1059.8801	1084.4043	1089.8815	1109.9385	1156.4676	1174.7735	1202.9191	1235.3606	1261.5005	1268.8256	1293.0741	1312.7941	1350.8094	1365.056	1397.5265	1410.519	1459.6576	1474.5021	1498.235	1502.0923	1522.3509	2953.9071	2986.2757	2993.5736	3030.804	3045.2938	3107.2971	3120.774	3138.0124	3180.5262	3201.2164	3212.0777	3833.7187
CC(CO)C1OC2CC12	C[C@@H](CO)[C@H]1O[C@H]2C[C@@H]12	
InChI=1S/C7H12O2/c1-4(3-8)7-5-2-6(5)9-7/h4-8H,2-3H2,1H3	InChI=1S/C7H12O2/c1-4(3-8)7-5-2-6(5)9-7/h4-8H,2-3H2,1H3/t4-,5+,6-,7+/m0/s1
