19
gdb 62660	2.60815	1.60606	1.43612	2.6114	74.63	-0.2259	0.0661	0.2919	1013.8611	0.156602	-422.938902	-422.930353	-422.929409	-422.971268	33.664	
C	-0.1578616133	 1.5856756315	-0.0380768636	-0.468756
C	-0.0387635522	 0.0699399724	-0.0117847464	 0.347429
O	-1.289729866	-0.5546166177	-0.2521932696	-0.482282
C	 1.1809575011	-0.5904703684	-0.698128993	-0.170413
C	 2.0908383894	-0.3381133244	 0.5418183444	 0.026637
O	 2.5333100744	-1.7228313104	 0.6576043145	-0.338181
C	 1.1269478652	-1.808005695	 0.2734359985	 0.041472
C	 0.6815523728	-0.6032081551	 1.175276211	 0.287806
C	 0.3132404097	-0.6418663026	 2.6285913194	-0.539636
H	 0.7948618046	 2.072279596	 0.19228455	 0.121524
H	-0.4715079532	 1.9342310039	-1.0303291584	 0.109421
H	-0.9050167594	 1.924001074	 0.6866707599	 0.128749
H	-1.6626407435	-0.1869536618	-1.0603295048	 0.277024
H	 1.487886465	-0.599202006	-1.7442930679	 0.075854
H	 2.8103068968	 0.4565854535	 0.7366879072	 0.091976
H	 0.6751985965	-2.7890057024	 0.1443380351	 0.102026
H	 1.0374520701	-1.2482574809	 3.1822321434	 0.13567
H	 0.3031230378	 0.3621251365	 3.0669013248	 0.119088
H	-0.6810074559	-1.078869923	 2.7652564355	 0.134594
177.2032	191.0689	197.3758	226.8472	231.5494	272.4401	326.3143	360.5033	373.0439	570.3027	613.0794	621.8222	681.9679	758.6088	816.6862	821.2387	830.6318	881.5288	909.5396	922.3715	957.5243	993.8398	1065.1489	1086.9982	1118.1649	1131.2254	1141.1219	1148.3363	1170.6476	1197.2609	1206.6659	1259.545	1287.747	1344.6118	1397.396	1410.0639	1422.6891	1487.8113	1488.4299	1491.4294	1498.7662	3023.2241	3031.414	3086.8261	3096.9909	3107.8389	3110.6882	3113.4228	3124.777	3148.4142	3807.3955
CC1(O)C2C3OC2C13C	C[C@@]1(O)[C@H]2[C@@H]3O[C@H]2[C@]13C	
InChI=1S/C7H10O2/c1-6-4-3(5(6)9-4)7(6,2)8/h3-5,8H,1-2H3	InChI=1S/C7H10O2/c1-6-4-3(5(6)9-4)7(6,2)8/h3-5,8H,1-2H3/t3-,4-,5+,6+,7-/m1/s1
