19
gdb 92804	3.26842	1.56342	1.27655	3.798	79.81	-0.2367	0.0089	0.2456	1035.116	0.161146	-382.015035	-382.007626	-382.006681	-382.046558	29.872	
C	-0.0813666892	 1.5643787431	-0.1810819889	-0.398984
C	-0.0293204786	 0.0451195384	 0.0051113818	-0.043109
C	 0.9680478631	-0.6246598353	-1.0113437368	-0.172401
N	 2.3118898996	-0.5398563823	-0.3702408542	-0.300497
C	 2.0524195891	-0.5072366892	 0.8660001702	 0.377114
C	 0.6207206207	-0.4087087008	 1.3355518507	-0.116061
C	 1.2668994469	 0.4428233018	 2.4528159121	-0.057955
C	 2.1636597046	-0.4286707103	 3.2226494799	-0.233435
N	 2.7332267767	 0.1210064222	 1.9664084582	-0.188744
H	 0.9178218555	 2.0065934819	-0.1105730225	 0.139593
H	-0.4855345538	 1.8154033113	-1.1668317756	 0.118489
H	-0.7199287276	 2.0376635676	 0.5718324552	 0.111827
H	-1.0383371634	-0.3662511487	-0.0976782984	 0.071397
H	 0.6992988151	-1.6675178862	-1.2274546278	 0.102144
H	 0.9955569088	-0.0905871431	-1.9659207126	 0.110275
H	 0.1397456863	-1.3057455625	 1.7343769281	 0.094988
H	 1.0287821143	 1.461801763	 2.7306252416	 0.123092
H	 2.6578267809	-0.0189965337	 4.0976820094	 0.135553
H	 1.9504079308	-1.4937908771	 3.2822874994	 0.126713
129.0884	180.9683	253.0992	289.7753	324.4092	391.373	448.2617	512.489	595.2419	683.3519	707.0249	778.8797	805.912	824.2789	878.4094	902.1525	937.4577	969.131	979.9737	1014.5157	1042.4689	1065.8353	1077.3761	1109.0649	1130.1543	1137.6847	1164.5182	1185.4991	1226.1303	1261.2835	1268.6308	1288.5766	1317.6981	1338.2917	1370.7818	1411.6864	1492.564	1500.5677	1502.7484	1505.5501	1749.673	3016.1957	3033.4549	3052.8873	3070.9607	3082.1269	3102.2124	3108.0374	3110.0247	3197.891	3208.6319
CC1CN=C2C1C1CN21	C[C@H]1C[N][C]2[C@H]1[C@H]1CN21	
InChI=1S/C7H10N2/c1-4-2-8-7-6(4)5-3-9(5)7/h4-6H,2-3H2,1H3	InChI=1S/C7H10N2/c1-4-2-8-7-6(4)5-3-9(5)7/h4-6H,2-3H2,1H3/t4-,5+,6+,9?/m0/s1
