15
gdb 22948	4.32887	0.85139	0.73866	5.0726	70.57	-0.2681	-0.025	0.2431	1437.4155	0.111065	-453.886676	-453.877917	-453.876973	-453.921093	30.691	
O	-0.1439620296	 1.3737831391	-0.0260061119	-0.381977
N	 0.0329829024	-0.0080203922	 0.1039220643	-0.218306
C	-1.0683241126	-0.6192706959	 0.0327104553	 0.341386
C	-2.5327669423	-0.3316155281	-0.1813087663	-0.163291
O	-2.794813881	-1.7592065972	-0.1754785277	-0.286672
C	-1.4092684839	-2.0899755698	 0.0791513286	 0.046839
C	-0.7843271622	-2.9678313699	-1.0127951247	-0.350138
C	-1.3160422415	-4.3284145095	-1.0069120287	 0.264969
N	-1.7332599512	-5.4054257278	-0.9899558632	-0.297137
H	 0.7564466795	 1.7090229695	 0.0506578306	 0.316226
H	-3.0372023118	 0.1914756266	 0.6400117077	 0.138434
H	-2.7975854477	 0.1456051135	-1.1322128795	 0.138664
H	-1.2861114674	-2.564837547	 1.0608856504	 0.123484
H	-0.9608710207	-2.5130213494	-1.9925661166	 0.158865
H	 0.2996282502	-3.003783572	-0.8548705583	 0.168654
56.2862	83.7861	124.9524	175.6112	213.6148	306.3908	366.6398	391.0814	419.7757	485.8888	531.3584	603.5686	734.2184	848.2772	896.6846	940.5115	986.56	997.0136	1018.1915	1041.5576	1084.6595	1131.0424	1180.9376	1220.5176	1258.0076	1299.1287	1336.6535	1375.9499	1420.7164	1448.4888	1500.0091	1815.2356	2366.889	3024.3071	3031.8741	3052.6305	3070.3581	3099.8114	3812.4983
ON=C1COC1CC#N	ON=C1CO[C@H]1CC#N	
InChI=1S/C5H6N2O2/c6-2-1-5-4(7-8)3-9-5/h5,8H,1,3H2	InChI=1S/C5H6N2O2/c6-2-1-5-4(7-8)3-9-5/h5,8H,1,3H2/t5-/m0/s1
