21
gdb 108144	3.37851	1.24956	1.15905	1.5816	81.34	-0.2465	0.0685	0.315	1158.3739	0.184767	-387.070377	-387.062359	-387.061414	-387.102994	31.866	
O	 0.1251287243	 1.3554568967	-0.4088689271	-0.415173
C	-0.022083456	 0.0488704322	 0.1407572195	-0.188066
C	-1.4346003329	-0.4545268424	 0.1114241621	 0.335434
C	-2.5332033325	-0.0615953206	 1.1088646703	-0.306104
C	-3.2358558526	-1.4280116994	 0.8188100519	-0.033026
C	-4.3048146606	-1.2735723118	-0.2718015658	-0.202014
C	-3.5148403802	-0.7082981486	-1.4858384844	-0.239577
C	-2.0568958353	-1.0270785651	-1.1551842691	-0.07041
C	-1.950087631	-1.88803011	 0.0732524207	-0.143371
H	-0.4365187135	 1.9485777738	 0.100182778	 0.281632
H	 0.6201677237	-0.5984466763	-0.4667880309	 0.105354
H	 0.3653704078	 0.0136991632	 1.172925584	 0.081291
H	-2.1364168643	-0.0188543924	 2.1281940262	 0.095044
H	-3.1160532094	 0.8485717909	 0.9181975576	 0.082822
H	-3.5543011613	-1.9930357578	 1.6948490235	 0.065047
H	-4.7333075489	-2.2520161022	-0.5171356947	 0.095615
H	-5.1274410292	-0.6218808524	 0.0405849451	 0.092951
H	-3.816534477	-1.1869449161	-2.4223606042	 0.097934
H	-3.6765668465	 0.367325406	-1.6145498325	 0.100303
H	-1.3534736076	-1.189181064	-1.9649549747	 0.083228
H	-1.420704497	-2.8285315737	 0.1557530344	 0.081084
75.6892	124.9309	218.4086	245.8761	315.0563	359.9555	387.7665	426.5234	609.8691	690.3061	711.1188	725.3207	821.9799	848.2372	866.2597	887.3818	901.2746	929.8222	955.7479	964.8394	992.7317	1018.7297	1025.0941	1047.5341	1065.938	1088.6158	1134.3728	1156.827	1166.4117	1210.1926	1219.5308	1237.6491	1248.412	1279.8677	1285.8369	1321.6313	1326.2944	1344.0418	1375.2555	1409.1232	1440.6248	1486.4117	1493.0499	1499.3664	1511.4031	2961.789	3016.3965	3034.6238	3045.1508	3063.7055	3072.4048	3075.3511	3089.8148	3110.7128	3170.7703	3194.4823	3816.8398
OCC12CC3CCC1C23	OC[C@@]12C[C@H]3CC[C@@H]1[C@@H]23	
InChI=1S/C8H12O/c9-4-8-3-5-1-2-6(8)7(5)8/h5-7,9H,1-4H2	InChI=1S/C8H12O/c9-4-8-3-5-1-2-6(8)7(5)8/h5-7,9H,1-4H2/t5-,6-,7+,8+/m1/s1
