21
gdb 58785	2.52925	1.46932	1.08352	1.8048	78.93	-0.2478	0.0843	0.3321	1194.8027	0.180419	-424.205567	-424.19606	-424.195116	-424.239386	36.406	
C	-0.0605612835	 1.5459118082	 0.3011044396	-0.400021
C	 0.0346127159	 0.0465731428	-0.0068154595	 0.003881
O	 0.7148071739	-0.6534043292	 1.023922817	-0.432671
C	-1.3299302189	-0.5580348283	-0.2233522654	 0.354419
C	-2.4235525871	-0.1900604757	-1.2367534237	-0.304802
C	-2.974311016	-1.6518261601	-1.094674302	-0.276776
C	-1.8369595154	-1.9409409368	-0.0972711365	 0.335312
C	-1.1904188336	-3.2501383355	 0.2200571883	-0.505621
O	-2.016663136	-0.9830820708	 0.9763144752	-0.341442
H	 0.9382249041	 1.9464708085	 0.4915383682	 0.124534
H	-0.5047111977	 2.0961853914	-0.5352776172	 0.114322
H	-0.6780018472	 1.7154201847	 1.1895362735	 0.12347
H	 0.6312552053	-0.0956553654	-0.9171336501	 0.091467
H	 0.0493902125	-0.8066776512	 1.7089195785	 0.286818
H	-3.0867982548	 0.621443964	-0.9286678743	 0.110665
H	-2.0335089386	 0.0164665532	-2.2367535209	 0.106522
H	-3.9823280906	-1.7594397229	-0.68738672	 0.109278
H	-2.8911381849	-2.2256464442	-2.0209669346	 0.105263
H	-0.9563993352	-3.7904533801	-0.703061933	 0.123539
H	-0.2629462635	-3.0933812104	 0.7738517267	 0.144437
H	-1.8614708786	-3.8801163222	 0.8152310301	 0.127405
78.3932	144.7672	182.1442	199.5156	225.8049	256.1148	270.6339	335.4846	365.7516	445.2467	480.5287	515.8318	536.0048	643.1126	703.4666	724.7438	775.8518	876.5693	890.9704	919.4043	935.0063	996.1393	1027.9096	1061.9354	1076.8079	1099.7083	1122.201	1158.5134	1194.0603	1213.1658	1222.784	1223.8158	1290.53	1314.572	1354.074	1399.3745	1407.5973	1434.6097	1463.2341	1463.8708	1485.4838	1489.3388	1490.8732	1494.7259	1519.9111	3028.9136	3034.749	3034.9872	3060.9807	3068.5146	3095.4263	3105.2749	3112.422	3124.011	3128.852	3138.1942	3751.7221
CC(O)C12CCC1(C)O2	C[C@@H](O)[C@@]12CC[C@]1(C)O2	
InChI=1S/C7H12O2/c1-5(8)7-4-3-6(7,2)9-7/h5,8H,3-4H2,1-2H3	InChI=1S/C7H12O2/c1-5(8)7-4-3-6(7,2)9-7/h5,8H,3-4H2,1-2H3/t5-,6+,7+/m1/s1
