18
gdb 40984	4.06889	1.59064	1.51075	1.8619	81.17	-0.2023	-0.0087	0.1935	930.4048	0.149195	-364.655544	-364.649209	-364.648264	-364.685697	27.635	
C	-0.0486256868	 1.5631595188	 0.1301255715	-0.279805
C	 1.527497868	 1.5233318381	-0.1350043947	-0.345445
C	 1.2274914709	 0.1428952996	-0.7780936614	 0.266866
C	-0.0414662424	-0.0064514992	-0.0209768018	 0.032032
N	-0.3115346592	-0.9807399253	-1.2184203337	-0.180456
C	 0.3915104803	 0.0682428821	-2.1215806664	-0.053301
C	 1.1484942582	-0.7351689104	-3.1456020148	-0.095904
C	 1.6673362148	-1.7390378461	-2.4332881121	-0.079175
C	 1.1992432085	-1.4352039372	-1.0347234039	-0.14615
H	-0.3566469542	 1.9261290695	 1.1129289591	 0.105585
H	-0.5917515154	 2.1207966659	-0.6335236711	 0.12001
H	 1.9689824972	 2.3042899904	-0.7600875272	 0.103897
H	 2.0790741775	 1.4545462394	 0.8068454568	 0.112769
H	-0.0465884155	-0.531946669	 0.9364372262	 0.073565
H	-0.2342149272	 0.8963640633	-2.4516005062	 0.068805
H	 1.2164326636	-0.5246807112	-4.2033683975	 0.109596
H	 2.2772086365	-2.5759607139	-2.7414106612	 0.111661
H	 1.3800306452	-2.1234087947	-0.2091648615	 0.07545
247.2538	254.4676	289.8032	461.0607	493.2382	540.4507	638.3986	649.6641	696.2408	727.2072	764.7202	796.5511	823.5093	839.1297	876.4347	903.4419	913.7929	921.8085	949.946	975.2637	1010.3572	1015.7243	1087.7149	1092.2892	1128.7183	1139.0638	1148.4474	1173.3546	1196.5196	1214.2701	1230.9296	1252.5796	1261.1865	1309.3236	1333.0715	1355.7273	1470.2314	1482.6472	1628.3209	3053.4713	3075.3196	3081.7506	3111.5901	3124.7479	3129.6914	3142.7031	3225.3523	3251.6466
C1CC23C1N1C2C=CC31	C1C[C@@]23[C@@H]1N1[C@@H]2C=C[C@@H]31	
InChI=1S/C8H9N/c1-2-6-8-4-3-7(8)9(6)5(1)8/h1-2,5-7H,3-4H2	InChI=1S/C8H9N/c1-2-6-8-4-3-7(8)9(6)5(1)8/h1-2,5-7H,3-4H2/t5-,6+,7-,8-/m1/s1
