18
gdb 38783	2.89363	2.05827	1.70257	1.3987	73.29	-0.2096	0.0763	0.2859	861.8504	0.150797	-401.878583	-401.872326	-401.871381	-401.908789	26.771	
C	 0.0589521041	 1.4964085668	-0.2813043215	-0.248327
C	 1.2998758749	 0.6981893841	-0.0548223961	-0.006364
C	 2.1682214234	 0.8767234756	 1.1851295173	-0.253049
C	 1.4082734825	 0.616060948	 2.4792250759	 0.100498
O	 0.2814130842	 1.5338349909	 2.6480749678	-0.301239
C	-0.627094346	 0.4354520575	 2.6032771498	 0.065506
C	 0.4692088512	-0.5978930865	 2.4828386367	-0.179461
C	-0.4845262106	-0.3772127376	 1.3342973394	-0.00487
N	-0.0221952285	 0.0684905798	 0.0441696274	-0.115724
H	-0.2155308047	 2.2129069236	 0.4841432115	 0.139478
H	-0.2453360758	 1.7484852034	-1.2947665694	 0.103924
H	 1.8547254312	 0.3753405436	-0.9344042664	 0.086819
H	 3.0090001617	 0.1725191038	 1.1445451592	 0.107153
H	 2.6020525147	 1.8832183707	 1.2105980694	 0.117402
H	 2.063564186	 0.674824412	 3.353091918	 0.086817
H	-1.5249529216	 0.4964075209	 3.2074732535	 0.105613
H	 0.6442416914	-1.5429780429	 2.9782062699	 0.098093
H	-1.2490269382	-1.1481140935	 1.2544957376	 0.09773
213.9871	254.7014	337.6542	398.6458	493.509	493.9217	623.4871	704.2589	731.5542	762.5346	796.5224	819.2636	836.8634	889.5269	914.2963	944.7951	967.5002	980.5544	1024.1605	1049.8845	1060.2851	1060.9699	1091.5766	1099.5334	1119.5703	1132.5325	1160.949	1182.5009	1225.2849	1254.4863	1299.6072	1301.4183	1333.0694	1348.0129	1382.9584	1410.7382	1423.6139	1471.7913	1498.1503	3026.3289	3064.3662	3065.9996	3105.0029	3110.9209	3122.0878	3179.5185	3204.491	3218.8527
C1C2CC3OC4C3C4N12	C1[C@H]2C[C@H]3O[C@@H]4[C@H]3[C@@H]4N12	
InChI=1S/C7H9NO/c1-3-2-8(3)6-5-4(1)9-7(5)6/h3-7H,1-2H2	InChI=1S/C7H9NO/c1-3-2-8(3)6-5-4(1)9-7(5)6/h3-7H,1-2H2/t3-,4-,5-,6+,7-,8?/m1/s1
