13
gdb 25209	2.59976	1.80317	1.13258	3.418	71.6	-0.2603	-0.0918	0.1686	995.9045	0.089828	-452.76013	-452.752731	-452.751787	-452.793101	26.56	
N	-0.1553905063	 1.4118093259	-0.0057835471	-0.435937
C	-0.0732110746	 0.1643206613	-0.1187121299	 0.287415
O	 1.1806847675	-0.4300557176	-0.3055781004	-0.22371
C	 1.4905635978	-1.6063994023	-0.8896059983	 0.152208
N	 0.7926341836	-2.4851863931	-1.478935713	-0.280329
C	-0.585156453	-2.5220924709	-1.5669301574	 0.010898
C	-1.5179926216	-1.8318335144	-0.8792256208	-0.1776
C	-1.3239842953	-0.70297621	 0.0313982645	 0.299684
O	-2.1731636784	-0.3515098854	 0.8198082935	-0.289882
H	 0.7559434336	 1.855886822	-0.1337196632	 0.241456
H	 2.567002413	-1.7431692386	-0.8155475218	 0.152185
H	-0.9317999603	-3.3005871852	-2.2421834531	 0.131695
H	-2.5589480063	-2.1168357117	-0.9945578331	 0.131918
46.4923	70.8553	254.181	311.4935	337.7047	396.1898	437.5154	538.2278	591.2513	645.8048	771.9483	795.2802	855.3609	873.614	926.1525	940.3793	963.3675	972.6318	1019.4188	1153.27	1197.2923	1277.2126	1309.5197	1435.5801	1452.5166	1635.6569	1695.8789	1751.484	1770.6992	3159.8069	3173.7242	3191.8859	3477.6972
N=C1OC=NC=CC1=O	[NH][C]1OC=NC=CC1=O	
InChI=1S/C5H4N2O2/c6-5-4(8)1-2-7-3-9-5/h1-3,6H	InChI=1S/C5H4N2O2/c6-5-4(8)1-2-7-3-9-5/h1-3,6H
