17
gdb 43955	3.44846	1.48058	1.43421	3.4459	72.89	-0.2401	-0.0114	0.2287	958.5215	0.138318	-417.897505	-417.890834	-417.88989	-417.928374	27.59	
O	-0.2518124967	-0.080311715	-0.3261168281	-0.302162
C	-0.1049300389	 1.0762477253	-0.1005666492	 0.321725
N	-1.0495755563	 2.155488199	 0.0470578425	-0.419984
C	-0.0413002183	 2.9323642946	 0.7978051084	 0.28706
C	 0.9746964126	 4.1326716629	 0.7049746982	-0.260666
N	 2.0510499572	 3.0301316066	 0.9219112236	-0.169267
C	 1.7164160391	 2.6145173799	 2.3128164476	-0.155944
C	 0.1641633879	 2.5190088405	 2.2775743526	-0.26355
C	 1.0336555028	 2.1937246714	 0.075480589	-0.096283
H	-1.9902445365	 1.9647851927	 0.3766548816	 0.247264
H	 1.0826234484	 4.5832034848	-0.2800007937	 0.129446
H	 0.9680951592	 4.8894090944	 1.4947255642	 0.110084
H	 2.1973903274	 1.6594411247	 2.5324263585	 0.120575
H	 2.0987605982	 3.362571436	 3.0120876308	 0.110069
H	-0.3387026977	 3.1984732141	 2.9717792701	 0.102953
H	-0.1994290055	 1.5054207771	 2.4707779801	 0.112184
H	 1.1727836474	 2.559375161	-0.9447192461	 0.126495
130.3713	214.2208	331.5198	400.8953	449.1542	514.8885	555.8414	588.5486	644.0071	668.9985	729.0633	799.2547	830.4165	839.698	858.4507	917.2728	948.3069	950.5674	974.8606	1004.0133	1022.141	1079.1492	1116.0341	1154.7959	1181.8152	1187.2346	1212.391	1237.4755	1261.9618	1293.2993	1317.1555	1332.3494	1377.9397	1494.913	1496.2844	1518.8738	1907.4489	3052.3329	3062.0934	3069.7313	3075.209	3094.9099	3122.4713	3159.6115	3536.7852
O=C1NC23CN(CC2)C13	O=C1N[C@@]23CN(CC2)[C@@H]13	
InChI=1S/C6H8N2O/c9-5-4-6(7-5)1-2-8(4)3-6/h4H,1-3H2,(H,7,9)	InChI=1S/C6H8N2O/c9-5-4-6(7-5)1-2-8(4)3-6/h4H,1-3H2,(H,7,9)/t4-,6+/m0/s1
