21
gdb 105057	2.54455	1.37852	1.03834	0.1389	77.81	-0.2586	0.0791	0.3377	1232.8417	0.180238	-424.188964	-424.179403	-424.178459	-424.223503	36.122	
C	 0.0861850808	 1.5421806271	 0.0805878675	-0.409505
C	-0.0472088488	 0.0245816644	-0.0611552851	-0.264954
C	-1.4637287881	-0.5241261375	 0.0399526923	 0.355644
C	-2.5633342758	 0.3032481873	 0.5711487631	-0.233834
O	-2.4243103353	 0.0911450171	-0.8368178491	-0.278701
C	-1.5934049549	-2.0392828715	 0.1174489891	 0.364883
C	-2.9955050105	-2.6094799772	 0.1612877029	-0.483323
C	-0.5016038949	-2.8988551291	-0.37757867	-0.230959
O	-0.6664255889	-2.6637601808	 1.0228756648	-0.276523
H	 1.1089292919	 1.852587318	-0.151288913	 0.114222
H	-0.5866404606	 2.0585275903	-0.6106119315	 0.135437
H	-0.1357700748	 1.8792833876	 1.0976731129	 0.119149
H	 0.3482775681	-0.2697447246	-1.0410718697	 0.109544
H	 0.5632235403	-0.4854849728	 0.6912069844	 0.126757
H	-3.4318413551	-0.1632297891	 1.0289578051	 0.112505
H	-2.3599689573	 1.3159039625	 0.9091334971	 0.11695
H	-3.60619079	-2.1771859575	-0.6351137203	 0.144652
H	-2.9662216328	-3.6942734946	 0.0395630236	 0.122619
H	-3.4732773503	-2.3972902466	 1.122471705	 0.128275
H	-0.7434112628	-3.9067709129	-0.712670228	 0.112763
H	 0.3955485598	-2.47385807	-0.8196188613	 0.114399
40.6277	93.4617	197.1089	211.2717	254.7533	265.0909	323.748	336.9161	380.5854	388.6601	405.3352	486.343	543.9177	630.7497	771.7902	798.3409	835.8336	857.7153	911.275	933.7189	951.9935	1011.588	1020.8799	1077.7768	1099.3077	1125.8984	1134.6727	1141.6901	1146.4049	1171.7994	1173.0312	1298.9008	1317.3959	1350.3598	1384.0392	1398.4817	1407.3314	1421.4214	1484.2304	1487.011	1501.2724	1504.2739	1510.7698	1529.9552	1536.3364	3030.9696	3041.0932	3049.5781	3080.2871	3092.3725	3107.377	3111.1043	3117.365	3118.7308	3137.5351	3181.7569	3192.8905
CCC1(CO1)C1(C)CO1	CC[C@]1(CO1)[C@@]1(C)CO1	
InChI=1S/C7H12O2/c1-3-7(5-9-7)6(2)4-8-6/h3-5H2,1-2H3	InChI=1S/C7H12O2/c1-3-7(5-9-7)6(2)4-8-6/h3-5H2,1-2H3/t6-,7+/m1/s1
