18
gdb 95587	2.43085	1.618	1.16396	0.6579	67.97	-0.2583	-0.0091	0.2492	1064.6117	0.148775	-476.215127	-476.206718	-476.205774	-476.248079	31.961	
O	 0.088092183	 1.4031880739	 0.0183620085	-0.43438
C	 0.0274754839	-0.012249533	-0.0055245665	 0.09742
C	 0.8150626397	-0.528462709	 1.2019259282	-0.102507
O	 0.9573633567	-1.9555295801	 1.2973662082	-0.226755
C	-0.1340181836	-2.6793453713	 1.665220858	 0.105046
N	-1.2923373648	-2.7118706152	 1.1615582086	-0.244531
C	-1.615637438	-1.9870273204	-0.0666439066	-0.199759
C	-1.4364633811	-0.4684735561	-0.0278502304	 0.082048
O	-2.1383903154	 0.1354103948	 1.0603988537	-0.453785
H	-0.6156141043	 1.6794675265	 0.6221304159	 0.291902
H	 0.5188263934	-0.3441899792	-0.9279081818	 0.092453
H	 1.8328391069	-0.1392114024	 1.1523142415	 0.132938
H	 0.3501650067	-0.1513046399	 2.1220527765	 0.1028
H	 0.1001724258	-3.3455561844	 2.4977416366	 0.122369
H	-1.0107641586	-2.3841628922	-0.8938790427	 0.12074
H	-2.6625191573	-2.2034618176	-0.2975389133	 0.119628
H	-1.8866945126	-0.0507008847	-0.9362170099	 0.098952
H	-2.1214769105	-0.4824957596	 1.8006967652	 0.295419
82.5692	125.7836	222.9244	253.0929	314.2775	322.124	351.1416	363.3451	410.8437	509.2351	523.4396	614.8755	675.1776	793.0881	811.2085	884.2203	943.557	955.0723	988.136	1013.8118	1049.2152	1088.4439	1111.6943	1151.7782	1155.8212	1232.9217	1257.477	1283.1422	1300.9328	1348.8969	1364.7715	1383.6719	1414.3237	1417.7122	1425.0148	1439.2672	1485.522	1494.8731	1729.8048	3015.0406	3027.0331	3040.8466	3053.0733	3081.901	3122.1957	3127.9644	3750.2914	3793.0171
OC1COC=NCC1O	O[C@H]1COC=NC[C@H]1O	
InChI=1S/C5H9NO3/c7-4-1-6-3-9-2-5(4)8/h3-5,7-8H,1-2H2	InChI=1S/C5H9NO3/c7-4-1-6-3-9-2-5(4)8/h3-5,7-8H,1-2H2/t4-,5+/m1/s1
