24
gdb 109760	1.85281	1.37603	0.91798	2.2279	86.14	-0.2136	0.063	0.2767	1395.3473	0.215088	-405.511858	-405.500787	-405.499843	-405.54773	40.589	
C	 0.4019147265	 0.2048352558	-1.1027899785	-0.399476
C	-0.0787221202	 0.1519848556	 0.3566237017	 0.014026
C	-0.1930087241	 1.5608671846	 0.9600352634	-0.393627
C	-1.4181497877	-0.5664330086	 0.4274568406	 0.016816
C	-1.5668464666	-2.055913631	 0.4405946161	-0.017744
C	-0.3849235781	-2.9985103502	 0.4201832691	-0.109842
O	-0.0828822582	-3.2534480918	-0.9486514002	-0.411052
N	-1.9396039979	-1.2592012685	 1.6100459686	-0.126271
C	-1.1772374767	-1.3389959317	 2.8472325276	-0.316745
H	 1.361913659	 0.7265496524	-1.1790692167	 0.102295
H	 0.513739063	-0.8030544617	-1.5106730944	 0.139269
H	-0.3182800746	 0.7459424212	-1.7282044863	 0.109849
H	 0.6692362218	-0.4009255891	 0.9351371433	 0.066493
H	-0.5019852902	 1.5280044581	 2.0093944173	 0.11531
H	 0.7646238777	 2.0891826337	 0.9055268695	 0.108337
H	-0.9337055566	 2.1575406872	 0.4147375402	 0.114725
H	-2.1995968746	-0.0122854981	-0.09772935	 0.081688
H	-2.422644023	-2.4821713709	-0.083479878	 0.090717
H	 0.4828523878	-2.5778878099	 0.9436368691	 0.088778
H	-0.6582886016	-3.9318633525	 0.9382111612	 0.093216
H	 0.6043610633	-3.9256589354	-0.983650065	 0.287863
H	-0.0827477504	-1.3606647234	 2.745025928	 0.100792
H	-1.434996818	-0.4770388178	 3.4714835843	 0.12425
H	-1.4812427707	-2.2408700878	 3.3890918391	 0.120332
66.2089	94.9357	147.6554	159.8002	192.0175	218.9027	232.1782	251.6411	268.4738	278.7007	332.2486	353.6194	414.9751	506.4559	544.1965	546.4357	733.1095	812.6352	868.5873	900.2243	934.0954	967.6007	999.0861	1014.7817	1061.483	1097.1429	1120.507	1137.8359	1148.4661	1163.9947	1177.6065	1192.6083	1213.9815	1249.842	1262.4749	1307.533	1338.4573	1346.1831	1390.1918	1397.8055	1419.2705	1436.6599	1458.8355	1474.0187	1489.617	1490.5228	1495.0161	1504.4867	1506.5256	1516.1784	1523.0525	2972.6301	2991.523	3024.7587	3027.4957	3028.9942	3043.809	3063.7238	3071.1737	3087.5504	3092.8195	3096.8886	3100.98	3104.443	3122.7308	3824.5345
CC(C)C1C(CO)N1C	CC(C)[C@H]1[C@@H](CO)N1C	
InChI=1S/C7H15NO/c1-5(2)7-6(4-9)8(7)3/h5-7,9H,4H2,1-3H3	InChI=1S/C7H15NO/c1-5(2)7-6(4-9)8(7)3/h5-7,9H,4H2,1-3H3/t6-,7+,8?/m1/s1
