18
gdb 90571	3.22406	1.13813	0.99432	4.9273	73.8	-0.2368	0.0368	0.2735	1217.7988	0.148328	-439.075087	-439.066774	-439.06583	-439.108507	31.482	
O	-0.0238509334	 1.4381928368	-0.0982416345	-0.432049
C	 0.0074610737	 0.027270367	 0.0789364289	 0.096297
C	 0.1460743994	-0.557059261	 1.5274645273	-0.28168
C	-1.190696822	-1.2742511323	 1.3282370199	-0.073165
C	-2.276780591	-0.2764572814	 1.0431784937	 0.059057
N	-2.3172951145	 1.0482276793	 1.5936781413	-0.289547
C	-3.2638552146	 1.4255553453	 2.490374662	 0.145583
O	-4.1125574841	 0.6955908309	 2.9602012642	-0.329894
C	-1.3532021335	-0.6393590125	-0.0766973196	-0.130881
H	 0.8654104018	 1.7818448382	 0.0371459058	 0.289464
H	 0.7469276152	-0.4227869322	-0.5940151109	 0.086105
H	 1.0021907399	-1.2265090606	 1.6290728988	 0.106526
H	 0.1647843526	 0.1805645343	 2.33539791	 0.103015
H	-1.4150813839	-2.287078654	 1.6376988793	 0.097982
H	-3.2668904983	-0.7149120984	 0.9762144658	 0.127691
H	-1.6854006553	 1.7305190142	 1.1993794068	 0.263505
H	-3.1781620646	 2.5002822351	 2.7493831615	 0.06864
H	-1.7204805572	-1.0698609986	-1.0005349303	 0.093352
47.1803	141.6162	198.7387	206.8433	277.7312	315.8341	346.4669	433.521	517.8895	616.5503	636.2409	700.2539	730.7735	802.2644	820.2806	866.794	933.9654	979.4365	982.7455	1018.833	1028.6815	1035.1055	1065.5747	1085.0882	1117.6049	1167.2407	1172.5961	1209.2948	1252.4127	1261.1695	1275.2184	1324.8487	1347.7418	1404.9368	1427.3161	1432.3394	1485.6178	1538.9709	1801.3964	2928.1216	3029.052	3057.5688	3118.5419	3174.8341	3182.285	3198.7475	3598.4639	3813.915
OC1CC2C(NC=O)C12	O[C@H]1C[C@H]2[C@@H](NC=O)[C@@H]12	
InChI=1S/C6H9NO2/c8-2-7-6-3-1-4(9)5(3)6/h2-6,9H,1H2,(H,7,8)	InChI=1S/C6H9NO2/c8-2-7-6-3-1-4(9)5(3)6/h2-6,9H,1H2,(H,7,8)/t3-,4+,5-,6-/m1/s1
