17
gdb 126321	4.64384	1.02755	0.90849	1.979	80.28	-0.2224	-0.0573	0.1651	1303.6317	0.137218	-414.220693	-414.212244	-414.211299	-414.254399	31.307	
C	 0.0357532514	 1.5039324682	-0.2965882127	-0.371549
C	-0.0340867038	 0.0371291995	 0.1606467422	-0.268586
C	-1.429086029	-0.5241120741	 0.0821859867	 0.318573
C	-1.879599653	-1.3234992521	-0.9752894149	-0.059869
N	-3.1200237852	-1.7750577731	-1.0390730288	-0.295631
C	-3.9025683015	-1.3976782564	-0.0117807856	 0.469326
N	-5.2110601688	-1.7735008471	-0.0435521568	-0.54611
N	-3.5149597153	-0.6589728975	 1.0469478196	-0.260095
N	-2.2692393468	-0.2247102897	 1.0781818524	-0.233315
H	 1.0546548028	 1.8921545476	-0.2055685183	 0.115507
H	-0.2755514312	 1.6087910574	-1.3412094719	 0.115918
H	-0.6252383961	 2.1237437425	 0.3158667651	 0.13885
H	 0.6391390732	-0.575988443	-0.4493915059	 0.101268
H	 0.3094856036	-0.0358152577	 1.1973405648	 0.123805
H	-1.207800782	-1.6108767908	-1.7828866468	 0.117396
H	-5.4589159746	-2.5186656213	-0.6721208596	 0.265771
H	-5.7282133738	-1.6850244525	 0.8152876606	 0.26874
41.0196	87.8381	200.626	216.7485	318.1567	377.5981	397.1558	417.1717	432.185	501.1368	532.1042	607.6194	670.7419	767.9108	789.2553	845.7132	891.4469	977.5198	983.1633	1035.6742	1065.5904	1083.9446	1096.0656	1163.0362	1264.0916	1281.2131	1354.6598	1373.8643	1401.4545	1408.9038	1478.7222	1485.7432	1496.7376	1507.8287	1557.2872	1611.6208	1636.9095	3036.8659	3040.3076	3082.5921	3108.7474	3120.6344	3138.9685	3608.4919	3736.7829
CCC1=CN=C(N)N=N1	CCc1cnc(N)nn1	
InChI=1S/C5H8N4/c1-2-4-3-7-5(6)9-8-4/h3H,2H2,1H3,(H2,6,7,9)	InChI=1S/C5H8N4/c1-2-4-3-7-5(6)9-8-4/h3H,2H2,1H3,(H2,6,7,9)
