20
gdb 66944	2.45322	1.98218	1.40468	1.7803	82.68	-0.218	0.0902	0.3082	1001.4621	0.17124	-365.923145	-365.915426	-365.914482	-365.954752	31.582	
C	 0.0406662019	 1.5113839542	 0.1393742287	-0.520032
C	 0.0114999901	 0.0230447622	-0.0299764839	 0.257213
C	-1.0247246648	-0.8932328798	 0.6731279419	-0.144501
C	-1.0212569583	-2.1961538293	-0.1062927989	-0.181194
N	 0.4818184034	-2.044138516	-0.2913254956	-0.219854
C	 0.4480279122	-1.0663142886	 0.9105296104	-0.078323
C	 0.5355371103	-0.8268290877	-1.1595854679	 0.371401
C	 0.3332470442	-0.8311734424	-2.6372596274	-0.347819
C	 1.7081131319	-0.5561577089	-2.0388642369	-0.356813
H	 1.0388180359	 1.9130523728	-0.0680507269	 0.124647
H	-0.6682774233	 2.0050437111	-0.5352598909	 0.123574
H	-0.224908138	 1.7980448499	 1.1622289556	 0.123005
H	-1.7702048493	-0.4816679476	 1.3433832886	 0.086939
H	-1.2212189154	-3.0671849092	 0.5236179722	 0.10433
H	-1.5837821652	-2.2734404663	-1.043012381	 0.099296
H	 1.0885652684	-1.1098393861	 1.7802146757	 0.096874
H	 0.182692867	-1.7920280766	-3.1192181124	 0.117954
H	-0.2034913452	-0.0073295797	-3.0965052528	 0.110944
H	 2.0963879179	 0.4559739726	-2.0940763527	 0.109057
H	 2.4560395663	-1.3368395346	-2.1227164557	 0.123303
176.1012	190.2021	214.2414	221.5802	282.8496	342.6518	477.4625	508.2721	604.2551	614.8507	749.4296	765.8064	805.4446	827.0189	838.1539	887.7852	890.2758	906.0835	932.0689	967.3198	975.6535	996.8188	1024.4299	1046.3609	1072.612	1074.7902	1093.3347	1107.0887	1139.1508	1153.6946	1185.1658	1197.8034	1232.2938	1261.3059	1299.3323	1376.425	1411.7331	1440.4183	1450.6956	1487.1023	1497.9764	1504.9907	1513.0336	3024.602	3040.4676	3084.6934	3096.0526	3099.4993	3124.9789	3129.1046	3180.9383	3206.2664	3213.3614	3221.5321
CC12C3CN(C13)C21CC1	C[C@]12[C@H]3CN([C@@H]13)C12CC1	
InChI=1S/C8H11N/c1-7-5-4-9(6(5)7)8(7)2-3-8/h5-6H,2-4H2,1H3	InChI=1S/C8H11N/c1-7-5-4-9(6(5)7)8(7)2-3-8/h5-6H,2-4H2,1H3/t5-,6+,7-/m0/s1
