21
gdb 66196	2.20938	1.47388	1.35115	0.5347	88.59	-0.2374	0.0303	0.2677	1126.8105	0.182334	-349.945294	-349.936326	-349.935382	-349.978241	35.54	
C	-0.0072149233	 1.5359188077	 0.0173057315	-0.421739
C	-0.0381683214	-0.0066458428	 0.0029527575	 0.059618
C	 0.674467203	-0.5422944831	-1.2660077067	-0.211887
C	 0.6770531998	-2.0744589661	-1.331497709	-0.267588
C	 1.0578922133	-2.6916309464	-0.013021512	-0.035363
C	 1.0702001814	-2.0148989346	 1.1338113204	-0.054286
C	 0.6972862554	-0.5608951197	 1.2541561092	-0.261485
C	-1.4364190276	-0.4519850366	 0.0110878282	 0.378116
C	-2.5894457227	-0.7942032242	 0.0096404184	-0.524839
H	 1.0269975345	 1.8931867584	-0.0309600743	 0.110769
H	-0.5546319452	 1.9443771849	-0.836842172	 0.121618
H	-0.4647880534	 1.9271552101	 0.9308499277	 0.120975
H	 0.2026133791	-0.120830656	-2.1595476787	 0.098681
H	 1.7082678469	-0.1751608856	-1.2415553249	 0.096574
H	-0.3157449028	-2.4372519021	-1.6321259782	 0.12164
H	 1.3671034562	-2.4095144885	-2.1159678501	 0.098684
H	 1.3225456978	-3.746331859	-0.0185989203	 0.082276
H	 1.3634477078	-2.5152310125	 2.0537705141	 0.082357
H	 1.6027153925	 0.0410561423	 1.4216219536	 0.102372
H	 0.0694591034	-0.4055987094	 2.1394950426	 0.110796
H	-3.6055192846	-1.102560527	 0.014750523	 0.192712
106.8919	143.179	191.0877	228.8816	249.1112	298.1865	367.4626	391.3172	410.8267	480.2862	574.2026	581.451	623.5611	627.22	661.5562	679.8509	767.8873	860.0644	890.0927	899.4892	935.6201	978.2996	1001.8539	1013.1493	1034.1502	1058.9984	1112.7368	1140.5042	1146.9786	1205.3222	1237.316	1270.0089	1310.3403	1342.8126	1367.7612	1376.5146	1406.4974	1417.9936	1466.7923	1473.457	1486.3845	1490.1015	1497.4316	1729.0357	2227.5334	2997.9878	3013.5205	3024.1421	3033.8891	3046.2755	3051.1584	3077.7667	3106.1399	3115.0184	3141.8014	3165.4834	3502.0419
CC1(CCC=CC1)C#C	C[C@]1(CCC=CC1)C#C	
InChI=1S/C9H12/c1-3-9(2)7-5-4-6-8-9/h1,4-5H,6-8H2,2H3	InChI=1S/C9H12/c1-3-9(2)7-5-4-6-8-9/h1,4-5H,6-8H2,2H3/t9-/m0/s1
