18
gdb 73044	3.30818	1.03055	0.90734	5.0707	76.73	-0.2513	0.0383	0.2896	1312.8366	0.147033	-401.921496	-401.912822	-401.911878	-401.955316	31.918	
C	-0.088091679	 1.58445376	-0.0194943707	-0.500061
C	-0.0287302976	 0.0856084942	 0.0244636368	 0.225403
C	-0.9431209322	-0.8575897239	-0.756910393	-0.136781
O	-0.9609694334	-1.8190871716	 0.3324938669	-0.282819
C	-0.1962379113	-0.926262933	 1.1458489963	 0.054735
C	 1.1623941842	-0.7015537601	 0.5508615911	-0.087912
C	 1.8934558884	-1.7862148481	-0.2298120179	-0.373564
C	 2.8728240321	-2.487175942	 0.5998569314	 0.260071
N	 3.649896065	-3.0229374321	 1.2665461106	-0.308381
H	 0.4534238315	 2.0250916842	 0.8231068221	 0.129195
H	 0.3628341331	 1.9750169263	-0.9395547574	 0.127752
H	-1.1227951801	 1.9419122225	 0.0232346564	 0.127038
H	-1.9452662244	-0.4418453827	-0.912608672	 0.115305
H	-0.5764324147	-1.2888891865	-1.6963386763	 0.106617
H	-0.4555051659	-0.8481279825	 2.1955631232	 0.113452
H	 1.8054642997	-0.0852585619	 1.1745037338	 0.110827
H	 1.1676797412	-2.5180454628	-0.5994365385	 0.170131
H	 2.4142200434	-1.3669644299	-1.0986053827	 0.148992
52.5567	123.2045	181.5809	197.765	233.9445	275.5347	313.8064	389.3042	447.343	496.9372	606.8351	633.7805	764.2956	818.4295	911.7763	917.5594	945.3227	955.476	978.2909	999.7549	1012.0922	1052.5935	1073.2127	1118.3446	1141.8244	1168.9042	1225.0868	1246.1567	1285.309	1296.9052	1315.4771	1369.6814	1419.2568	1459.0556	1475.7603	1487.0085	1498.1417	1521.3743	2362.0884	3021.1384	3026.4745	3041.9932	3070.0389	3085.1449	3087.6414	3104.256	3148.5005	3182.954
CC12COC1C2CC#N	C[C@]12CO[C@H]1[C@H]2CC#N	
InChI=1S/C7H9NO/c1-7-4-9-6(7)5(7)2-3-8/h5-6H,2,4H2,1H3	InChI=1S/C7H9NO/c1-7-4-9-6(7)5(7)2-3-8/h5-6H,2,4H2,1H3/t5-,6+,7-/m1/s1
