22
gdb 120046	4.26309	0.91922	0.88055	1.8192	84.8	-0.2387	0.0736	0.3123	1437.5371	0.195668	-367.159951	-367.151506	-367.150562	-367.19362	32.587	
C	 0.059340529	 1.5879856757	 0.0295319171	-0.380615
C	-0.0216447324	 0.0641480118	-0.0919517245	-0.159818
C	-1.4496647064	-0.4779007375	 0.0545493836	-0.218639
C	-1.5259448899	-1.9974090755	-0.044281909	 0.036938
C	-2.8513561637	-2.7407999869	-0.0711991526	-0.081587
C	-3.3076934292	-2.8860082282	-1.4890147034	-0.03698
C	-2.2862182754	-2.2442365021	-2.4084295114	-0.239926
C	-1.2695472813	-2.7582202386	-1.371251127	-0.027565
N	-2.299318292	-3.8505888294	-0.9231463373	-0.166918
H	 1.0886807672	 1.9442293826	-0.0773183796	 0.111984
H	-0.5445656823	 2.0790903319	-0.7416609406	 0.113767
H	-0.3115227804	 1.927237791	 1.0031787522	 0.114376
H	 0.3877563815	-0.247345213	-1.0620452939	 0.0981
H	 0.6194189164	-0.4002247713	 0.6690177516	 0.096354
H	-1.8566511795	-0.1686691274	 1.0274052779	 0.094492
H	-2.0978280565	-0.0154092388	-0.6999391795	 0.095953
H	-0.8960345901	-2.4543339179	 0.7289916358	 0.08179
H	-3.5115550176	-2.9559420072	 0.7625316756	 0.088519
H	-4.3134796025	-3.2110062477	-1.731680671	 0.092807
H	-2.2037226796	-2.8078786181	-3.3413929547	 0.111717
H	-2.3375194812	-1.1735197171	-2.6299082234	 0.095847
H	-0.2662509839	-3.0607156165	-1.6649692058	 0.079404
63.5193	90.3617	123.6479	232.7695	267.4987	310.1599	349.4661	473.848	574.4851	718.0884	750.4144	754.955	779.7738	799.3943	822.6845	875.1072	904.9735	929.1267	952.5152	965.9459	1011.2105	1027.5688	1039.6028	1055.0922	1056.8482	1099.3594	1115.7533	1124.2033	1139.6304	1168.6164	1199.1916	1219.8886	1262.4475	1265.849	1269.9707	1310.0484	1327.9944	1353.5135	1378.7295	1384.4876	1409.1318	1415.6791	1483.0147	1492.0191	1499.2319	1504.6978	1513.969	3010.1311	3018.3546	3029.1871	3030.7188	3039.263	3047.9744	3064.3878	3095.7458	3101.4855	3103.2816	3134.646	3166.322	3180.2713
CCCC1C2C3CC1N23	CCC[C@H]1[C@H]2[C@H]3C[C@@H]1N23	
InChI=1S/C8H13N/c1-2-3-5-6-4-7-8(5)9(6)7/h5-8H,2-4H2,1H3	InChI=1S/C8H13N/c1-2-3-5-6-4-7-8(5)9(6)7/h5-8H,2-4H2,1H3/t5-,6+,7-,8+,9?/m1/s1
