21
gdb 105628	1.89712	1.4646	1.35877	3.2096	83.04	-0.2331	0.0246	0.2576	1164.0208	0.18169	-383.268492	-383.258633	-383.257689	-383.303006	36.144	
C	 0.4456014392	 1.7145591544	-0.5099824083	-0.403018
C	 0.2583036167	 0.2063983913	-0.3275149017	-0.227971
C	 0.701550889	-0.339654337	 1.0360780091	 0.166651
C	 0.7539953403	-1.8950228681	 1.1932437442	-0.283745
C	 2.1404329648	-1.6891436142	 1.8399109289	-0.164402
N	 2.1684351831	-0.3193178005	 1.2918255162	-0.088508
C	 2.7908471336	 0.7263008962	 2.082063618	-0.341755
C	-0.0836167981	 0.2753501906	 2.1256322735	 0.259669
N	-0.6631240493	 0.7748654251	 2.9935128589	-0.356847
H	 1.5032262312	 1.9891032013	-0.459812931	 0.129725
H	 0.0686499987	 2.0296286018	-1.4872408225	 0.120196
H	-0.0934672345	 2.2808906026	 0.2558676505	 0.139396
H	-0.7963180471	-0.0609386719	-0.4701392704	 0.110924
H	 0.8368561862	-0.3359677531	-1.0824700083	 0.106783
H	-0.0222286913	-2.3502260068	 1.8062038681	 0.127185
H	 0.7955350257	-2.3852150938	 0.2195226995	 0.118923
H	 2.0942991959	-1.7177344761	 2.9397258943	 0.102892
H	 2.964016575	-2.3269170009	 1.5039796534	 0.108495
H	 3.8582273782	 0.501491557	 2.176103245	 0.125496
H	 2.6949159184	 1.6919818293	 1.5785928138	 0.129914
H	 2.3656032344	 0.821196193	 3.0953212189	 0.119997
85.5968	108.5204	135.6918	167.0173	199.3858	220.1181	256.3156	291.8179	326.7373	393.3977	424.2544	523.5864	600.8322	638.823	699.0505	752.9295	803.3897	894.1778	942.9896	961.0792	979.2561	1021.6989	1045.2475	1120.5386	1132.9731	1148.3316	1170.6222	1200.8157	1209.4341	1233.6644	1256.5254	1271.321	1317.092	1332.8928	1366.8024	1412.2664	1452.1907	1471.4531	1482.9196	1487.116	1498.3932	1504.9231	1509.3852	1524.6266	2335.387	2969.6151	2984.1179	3031.3406	3043.1925	3067.4377	3071.5663	3077.8039	3091.7607	3111.7716	3114.8673	3120.153	3157.5789
CCC1(CCN1C)C#N	CC[C@]1(CCN1C)C#N	
InChI=1S/C7H12N2/c1-3-7(6-8)4-5-9(7)2/h3-5H2,1-2H3	InChI=1S/C7H12N2/c1-3-7(6-8)4-5-9(7)2/h3-5H2,1-2H3/t7-/m0/s1
