18
gdb 76360	2.02951	1.42878	1.20009	1.5705	86.7	-0.227	0.0154	0.2424	1171.6731	0.142973	-364.709775	-364.699632	-364.698688	-364.744201	37.462	
C	-0.1551763203	 1.5816959795	 0.1278333981	-0.428755
C	 0.0131676763	 0.0804503714	 0.0948264542	-0.019893
N	 1.2689640216	-0.5930183155	-0.1651247289	-0.134276
C	 2.490858519	 0.1676776693	-0.3970067159	-0.321239
C	 0.7179266054	-0.6803023262	 1.2152634495	-0.051361
C	 1.3233190983	 0.0801950352	 2.281864053	 0.312065
C	 1.8426256063	 0.693945575	 3.1764864282	-0.480787
C	 0.2316028348	-1.9836121665	 1.6048491644	 0.265522
C	-0.1978970105	-3.0571781586	 1.9315987143	-0.421194
H	 0.6121552775	 2.0793089459	 0.7221758404	 0.138248
H	-0.1294813077	 1.988229428	-0.8891189345	 0.127183
H	-1.1288315315	 1.8316242212	 0.5605093199	 0.132532
H	-0.8349452305	-0.4508135464	-0.3354933387	 0.105515
H	 2.6233539886	 1.046256521	 0.2458949224	 0.11991
H	 3.3448400719	-0.4979800503	-0.2432553611	 0.135116
H	 2.4954453226	 0.4904480857	-1.4426387171	 0.126921
H	 2.2935245036	 1.2288442907	 3.9755892993	 0.200148
H	-0.5661309254	-4.0108882593	 2.2183410926	 0.194346
122.6967	129.1398	135.6247	154.2553	167.3244	176.4281	253.1825	324.2946	358.6137	411.6453	484.2775	556.0326	574.063	593.6531	602.9489	610.8363	628.4743	650.0492	659.5795	767.0359	798.1577	968.2475	1029.7901	1071.33	1130.8664	1133.2376	1153.6796	1183.6328	1247.9535	1337.4784	1394.8527	1417.0271	1454.1662	1483.4962	1487.8078	1495.9846	1510.6969	2230.1686	2241.6973	3020.8028	3042.6456	3089.3552	3102.253	3111.0655	3112.5257	3145.1969	3500.4507	3503.2386
CC1N(C)C1(C#C)C#C	C[C@H]1N(C)C1(C#C)C#C	
InChI=1S/C8H9N/c1-5-8(6-2)7(3)9(8)4/h1-2,7H,3-4H3	InChI=1S/C8H9N/c1-5-8(6-2)7(3)9(8)4/h1-2,7H,3-4H3/t7-,9?/m1/s1
