19
gdb 77004	3.06913	1.02987	0.96962	0.3027	77.54	-0.2437	0.0473	0.2911	1299.3347	0.155461	-422.970295	-422.960166	-422.959221	-423.005078	37.901	
C	 0.162692191	 1.5999521111	-0.2170670249	-0.451956
C	 0.0049416316	 0.1096701292	-0.0290851347	 0.339737
O	-1.1317007013	-0.4413944938	-0.647686583	-0.464501
C	 1.219160811	-0.7879793812	 0.0458381758	 0.020526
O	 2.4795026935	-0.1854066615	 0.0306826012	-0.42627
C	 0.3331932526	-0.5960040995	 1.2656236085	-0.093057
C	 0.8838202456	 0.1263757257	 2.4896729071	-0.388351
C	 1.9833809731	-0.6134628024	 3.1099121334	 0.300368
C	 2.8991768672	-1.2395622696	 3.5756933771	-0.455661
H	 1.124543004	 1.9527201698	 0.1578998638	 0.140042
H	 0.1284055842	 1.8405941654	-1.2866430567	 0.109429
H	-0.6473128538	 2.1469926543	 0.2756288657	 0.121429
H	-1.0232262534	-0.3406686549	-1.6006412311	 0.278905
H	 1.1482180759	-1.7435807411	-0.4735153286	 0.087377
H	 2.9873181418	-0.5549341967	 0.7642598026	 0.295338
H	-0.3210618214	-1.4320185397	 1.4905596886	 0.107128
H	 1.2408664686	 1.1253666397	 2.2223124489	 0.141293
H	 0.0814814698	 0.2759492617	 3.2218476265	 0.137948
H	 3.69643383	-1.7862648664	 4.0155518699	 0.200276
53.4735	102.4515	176.0934	194.107	219.1958	264.5501	273.6602	332.061	335.348	386.9935	417.3802	447.3915	484.8539	512.3702	623.9046	643.8579	650.4578	717.369	830.6787	863.6988	941.2055	954.5167	977.016	1011.975	1056.4863	1098.0935	1130.1732	1158.93	1213.3144	1256.5809	1278.0087	1310.6217	1330.4313	1342.7605	1381.4418	1412.1885	1452.6103	1468.8162	1494.7062	1503.8028	2229.7206	3031.0256	3039.8867	3082.2897	3090.3759	3102.3504	3142.6266	3165.8341	3503.5537	3763.3336	3784.9728
CC1(O)C(O)C1CC#C	C[C@@]1(O)[C@@H](O)[C@H]1CC#C	
InChI=1S/C7H10O2/c1-3-4-5-6(8)7(5,2)9/h1,5-6,8-9H,4H2,2H3	InChI=1S/C7H10O2/c1-3-4-5-6(8)7(5,2)9/h1,5-6,8-9H,4H2,2H3/t5-,6+,7+/m1/s1
