18
gdb 128479	2.9633	1.28837	0.95819	1.5661	75.65	-0.1968	0.0423	0.2391	1235.8091	0.147646	-435.277986	-435.268214	-435.26727	-435.313012	34.601	
C	 0.2979202151	 0.916001515	 0.4982073608	-0.252137
O	-0.4154024142	 0.2705097467	-0.5603571323	-0.272149
C	 0.3403571726	-0.5281725149	-1.350275597	 0.361017
C	 0.6811925664	-1.8606748824	-1.2317762893	 0.047951
C	 0.3314906674	-2.8091705322	-0.1307209692	-0.525684
C	 1.442817723	-2.1044443229	-2.4086208564	 0.300301
N	 2.0903134879	-3.2977371535	-2.7366063328	-0.586904
N	 1.554507991	-1.0315821395	-3.1844301833	-0.317584
N	 0.8889210554	-0.0604300596	-2.4987863123	-0.275828
H	 0.7522048172	 0.18200757	 1.1733842343	 0.128879
H	 1.0835432778	 1.570918537	 0.1023905123	 0.122282
H	-0.4337296186	 1.5133584524	 1.0453885586	 0.13472
H	-0.1959389045	-3.695997525	-0.5053169084	 0.118601
H	 1.219066949	-3.1679208143	 0.4044723425	 0.129664
H	-0.3297177424	-2.3271341418	 0.5949660094	 0.128102
H	 1.5279219198	-4.1181649992	-2.5500955249	 0.242259
H	 2.3943499342	-3.2942968378	-3.7026796221	 0.247379
H	 0.7414559131	 0.8397029121	-2.9201443501	 0.269131
42.1957	127.6323	131.739	150.6847	214.4644	224.3907	255.8749	303.9908	320.5193	351.4286	484.9464	529.1449	587.3306	686.4497	699.41	734.0626	780.7206	806.9411	951.0354	1033.2917	1066.819	1076.4232	1167.0847	1174.2359	1196.3344	1215.3786	1258.2622	1293.7918	1417.2979	1444.5249	1464.9839	1485.8154	1488.374	1496.737	1503.7003	1531.5745	1548.5637	1638.9903	1663.6105	3014.3541	3016.7006	3058.4783	3083.11	3106.4704	3135.4959	3531.3762	3626.9169	3687.3687
COC1=C(C)C(N)=NN1	COc1c(C)c(N)n[nH]1	
InChI=1S/C5H9N3O/c1-3-4(6)7-8-5(3)9-2/h1-2H3,(H3,6,7,8)	InChI=1S/C5H9N3O/c1-3-4(6)7-8-5(3)9-2/h1-2H3,(H3,6,7,8)
