19
gdb 66118	2.60609	1.46519	1.305	1.2299	80.24	-0.2577	0.0342	0.2919	1072.7304	0.158974	-385.85288	-385.844421	-385.843476	-385.885446	33.702	
O	-0.0658111659	 1.4007759977	 0.0099908238	-0.466525
C	 0.0090999184	-0.0251150608	-0.0036675746	 0.217296
C	 0.6706219725	-0.5986097571	 1.2898395713	-0.292499
C	-0.0217833229	-1.9510123876	 1.5464148902	-0.220238
C	-1.420680049	-1.7826920362	 0.9656910952	-0.018687
C	-2.1672369315	-0.5181589791	 1.306876325	-0.313315
C	-1.4004728733	-0.6107610606	 0.0116003055	-0.02899
C	 0.7287533139	-0.4819795181	-1.2008841063	 0.307805
C	 1.3462440231	-0.8359410309	-2.1704417872	-0.492857
H	 0.8093997703	 1.7411689505	-0.205183129	 0.279729
H	 1.7547131743	-0.6851363382	 1.1912246392	 0.103502
H	 0.4674705468	 0.1146286144	 2.0934085355	 0.113866
H	 0.4982561766	-2.7512949396	 1.0081164634	 0.109371
H	-0.0226551762	-2.2203745155	 2.6082368597	 0.09932
H	-1.9947562144	-2.6730400095	 0.7350381743	 0.081727
H	-3.2480964121	-0.5436914726	 1.2244625728	 0.11117
H	-1.8026840625	 0.1299741734	 2.0959710497	 0.119319
H	-1.9429957903	-0.6177784071	-0.9254665168	 0.092392
H	 1.8807849622	-1.1501090431	-3.0328187917	 0.197614
101.6284	143.631	199.1689	261.6721	269.6323	335.8831	394.0327	451.5044	473.5431	532.0468	623.6863	634.0542	644.0239	659.4269	709.0628	809.568	829.1902	843.7468	916.059	958.0894	960.6975	990.0611	1020.9249	1055.1578	1065.8136	1077.3423	1112.4337	1128.9694	1152.3384	1207.5576	1218.1698	1228.1328	1303.1093	1314.8015	1338.0873	1382.694	1402.2144	1484.4698	1491.3429	1510.6594	2226.5921	3037.4818	3063.9109	3076.1799	3116.2652	3137.9719	3170.273	3189.4268	3220.2617	3500.2677	3808.4156
OC1(CCC2CC12)C#C	O[C@]1(CC[C@H]2C[C@@H]12)C#C	
InChI=1S/C8H10O/c1-2-8(9)4-3-6-5-7(6)8/h1,6-7,9H,3-5H2	InChI=1S/C8H10O/c1-2-8(9)4-3-6-5-7(6)8/h1,6-7,9H,3-5H2/t6-,7+,8-/m0/s1
