19
gdb 92196	3.24695	1.57553	1.34171	1.0162	75.03	-0.2443	0.0602	0.3044	1010.9443	0.159959	-422.94318	-422.935871	-422.934927	-422.974548	29.919	
C	 0.0743075472	 1.5942251685	-0.1181992607	-0.418481
C	 0.0092870112	 0.0959702682	 0.0546607965	 0.01268
O	 0.9502128516	-0.636161082	-0.8250661308	-0.333383
C	 1.0684659558	-1.6650100602	 0.2203607579	 0.143039
C	 2.2678504446	-2.3229712048	 0.9450069111	-0.31485
C	 2.0497026316	-1.5211289981	 2.2886160378	 0.05432
C	 2.0797940338	-0.0868869391	 1.7533491792	-0.251984
C	 0.7319722235	-0.6061783983	 1.2236494171	 0.38057
O	 0.5762043958	-1.3642261185	 2.4688935845	-0.374436
H	 1.0814757118	 1.9707390047	 0.0766250335	 0.128496
H	-0.2046082281	 1.8687476013	-1.1399357713	 0.133689
H	-0.625137794	 2.0820603298	 0.5686074835	 0.127292
H	-1.0082242658	-0.286781632	-0.1043095624	 0.088271
H	 0.2589250314	-2.3887738318	 0.0750039814	 0.084408
H	 2.1377442554	-3.4023577202	 1.0407414805	 0.111705
H	 3.2589612871	-2.1206700031	 0.5333869586	 0.121713
H	 2.5495948716	-1.8537115744	 3.1972068791	 0.088015
H	 1.9297316301	 0.6554391428	 2.5381208856	 0.110471
H	 2.8582854655	 0.2073222974	 1.0473512091	 0.108468
163.7483	192.6596	200.6134	292.2774	399.2403	419.5193	473.7158	563.2759	569.4009	657.7093	693.4467	775.3557	782.1015	809.8092	837.2474	898.8852	942.3221	956.951	993.114	1006.8602	1031.3269	1065.0095	1077.6756	1088.2566	1118.8999	1152.8874	1165.5034	1198.0525	1220.8935	1240.0669	1272.0608	1273.7115	1307.0287	1319.8449	1373.2713	1402.7872	1419.2334	1473.3465	1481.1297	1493.4029	1498.3408	3014.7137	3038.2174	3043.1485	3076.7992	3080.8004	3112.8188	3127.1954	3131.7863	3137.5776	3149.9772
CC1OC2CC3CC12O3	C[C@H]1O[C@H]2C[C@H]3C[C@@]12O3	
InChI=1S/C7H10O2/c1-4-7-3-5(9-7)2-6(7)8-4/h4-6H,2-3H2,1H3	InChI=1S/C7H10O2/c1-4-7-3-5(9-7)2-6(7)8-4/h4-6H,2-3H2,1H3/t4-,5+,6+,7-/m1/s1
