16
gdb 32544	2.89672	1.43997	1.03526	4.4129	72.69	-0.2526	-0.0446	0.208	1133.4536	0.125207	-437.940064	-437.932085	-437.931141	-437.973047	29.238	
C	 0.0401170341	 1.5592116321	-0.0829064608	-0.379108
C	-0.0706769315	 0.0318454013	 0.0651543357	-0.278009
C	 0.6728738362	-0.4958655344	 1.2608700162	 0.096637
C	 0.0508159323	-0.9785121513	 2.3468615258	-0.017962
O	 0.7165869034	-1.4501021797	 3.4389888572	-0.17336
C	 2.0677091496	-1.4122376187	 3.378453521	 0.130619
N	 2.7852988247	-0.9950621774	 2.4175887296	-0.297469
C	 2.1505799017	-0.4970368469	 1.2495412514	 0.344723
O	 2.8035979135	-0.1059477636	 0.3059910205	-0.338986
H	 1.0862942798	 1.8558678533	-0.1811321507	 0.154391
H	-0.4981873104	 1.8940706657	-0.9743622785	 0.117513
H	-0.3878514647	 2.0712078129	 0.7849186804	 0.11223
H	-1.1238576077	-0.2644874014	 0.1301719042	 0.097971
H	 0.3483422965	-0.441662058	-0.8294089549	 0.132153
H	-1.0221193015	-1.0498356553	 2.4785307291	 0.145353
H	 2.4965353539	-1.8027652084	 4.2974213839	 0.153303
85.1415	94.1768	176.575	210.5364	301.102	350.5298	437.7597	487.8102	522.0679	540.3036	614.9453	730.1512	782.5227	832.8866	891.2845	912.354	956.9011	973.7505	1016.0131	1058.7194	1083.6893	1115.4096	1192.2336	1285.4151	1326.4256	1354.8184	1395.7682	1403.9757	1415.7594	1472.3995	1495.1608	1512.434	1633.2816	1710.7386	1781.4056	3035.4735	3043.2596	3078.7426	3111.0154	3139.9687	3183.8529	3212.7374
CCC1=COC=NC1=O	CCc1cocnc1=O	
InChI=1S/C6H7NO2/c1-2-5-3-9-4-7-6(5)8/h3-4H,2H2,1H3	InChI=1S/C6H7NO2/c1-2-5-3-9-4-7-6(5)8/h3-4H,2H2,1H3
