21
gdb 109224	4.44754	0.90649	0.8173	1.5065	85.28	-0.2232	0.0371	0.2603	1455.247	0.182408	-387.085626	-387.076558	-387.075614	-387.120087	34.278	
O	 0.0074600873	 1.4104919592	 0.1518004372	-0.414139
C	-0.0142741887	 0.0009957356	 0.0143430288	-0.17575
C	-1.4248646427	-0.4848052082	-0.0575640232	 0.316352
C	-2.5324042525	 0.2559775948	-0.0155924047	-0.153663
C	-3.7878191044	-0.5759270191	-0.0809625184	-0.344947
C	-3.2557111691	-1.9874127139	-0.37944619	 0.3829
C	-4.0718893508	-3.216624064	-0.0875973034	-0.313323
C	-3.8372994851	-2.78922335	-1.5170412802	-0.303068
C	-1.7354039414	-1.9621424085	-0.1564641066	-0.396571
H	 0.9255448671	 1.693535551	 0.1761346221	 0.288437
H	 0.5263260863	-0.3220390823	-0.8939461143	 0.092344
H	 0.4956646607	-0.4933947812	 0.8614852198	 0.091466
H	-2.5393673242	 1.3341495901	 0.081816519	 0.103738
H	-4.3379019399	-0.5356104109	 0.8712134487	 0.102379
H	-4.4867851186	-0.2248438663	-0.851295054	 0.100806
H	-3.5557965985	-4.1015052203	 0.2722277472	 0.105288
H	-5.0653801232	-3.0834335997	 0.3294659054	 0.106904
H	-4.6717379576	-2.3650829794	-2.0670405409	 0.107304
H	-3.1607861161	-3.3843199474	-2.1229550019	 0.10534
H	-1.1869140242	-2.4547619836	-0.9710322629	 0.097344
H	-1.4440670446	-2.4851839059	 0.7673490325	 0.100861
35.2839	90.8871	176.2784	198.3864	232.7147	289.3005	322.5992	391.293	412.6021	435.6817	544.7122	665.2409	778.3415	782.1256	820.9161	873.1217	884.5372	901.0854	943.8442	981.9063	996.0532	1004.174	1025.8144	1055.6032	1065.1083	1073.3378	1081.7338	1157.9659	1178.6146	1189.7302	1200.8152	1216.3922	1253.4135	1263.944	1279.4328	1298.9687	1335.8466	1379.2074	1466.8061	1467.7806	1486.5726	1492.8741	1503.4642	1508.1938	1730.9732	2932.2416	2942.8405	2985.5308	2990.8881	3019.3667	3027.6577	3115.6271	3120.2918	3193.3329	3209.1378	3217.6622	3839.5715
OCC1=CCC2(CC2)C1	OCC1=CCC2(CC2)C1	
InChI=1S/C8H12O/c9-6-7-1-2-8(5-7)3-4-8/h1,9H,2-6H2	InChI=1S/C8H12O/c9-6-7-1-2-8(5-7)3-4-8/h1,9H,2-6H2
