21
gdb 90333	2.85513	1.43839	1.20539	1.4249	85.01	-0.2219	0.0188	0.2408	1121.6455	0.182759	-387.076742	-387.068112	-387.067168	-387.109333	34.281	
C	-0.0676317804	 1.5831628877	-0.1684474696	-0.446791
C	 0.007103361	 0.0563612922	-0.0647186443	 0.275302
C	 1.124394264	-0.5651023347	-0.934784289	-0.295585
C	 2.2599556929	-0.8800333369	 0.0951466714	-0.240707
C	 1.4975401163	-1.0806864919	 1.4031729788	-0.23782
C	 0.3046615867	-0.5040485808	 1.3081769051	 0.285606
C	-1.1488498335	-0.6354588852	 1.6862227069	-0.3847
C	-1.4052698129	-0.60350899	 0.124535147	 0.075676
O	-2.4837811336	 0.149471709	-0.3714044024	-0.430641
H	 0.9297913266	 2.0199825097	-0.0534520731	 0.109503
H	-0.4644741976	 1.8816984314	-1.1435944796	 0.123396
H	-0.7185776734	 2.0171824425	 0.5949351654	 0.116194
H	 0.7787056245	-1.503749862	-1.3825888116	 0.095784
H	 1.45876475	 0.0853960057	-1.748905225	 0.090731
H	 2.8311590454	-1.7725443077	-0.1834581597	 0.098993
H	 2.9884960558	-0.0594252437	 0.1581139585	 0.104169
H	 1.8757259714	-1.6800987321	 2.2238031273	 0.088595
H	-1.4596248229	-1.5157958646	 2.2541815109	 0.103527
H	-1.5720386372	 0.2638673416	 2.1457928524	 0.114581
H	-1.4048468524	-1.6279757982	-0.2742064096	 0.068811
H	-3.3015608604	-0.3044991722	-0.1448161597	 0.285376
115.4405	192.6479	221.8534	248.5256	255.9429	259.853	296.6845	366.167	451.813	490.0633	610.4235	642.8446	659.504	730.3511	801.9566	819.3636	864.0854	891.5304	898.4334	943.0357	968.6624	986.5961	1007.8234	1061.3655	1100.1387	1107.8549	1126.9502	1167.9432	1172.7342	1206.6393	1210.9426	1230.7894	1259.6901	1289.4496	1309.6518	1313.6861	1336.3989	1401.8564	1419.6959	1473.3309	1480.5996	1489.3562	1496.0178	1497.9007	1737.1265	2997.983	3007.0853	3034.7062	3038.1593	3046.9522	3059.7328	3086.6995	3105.1202	3106.2249	3116.3198	3191.2982	3817.8419
CC12CCC=C1CC2O	C[C@@]12CC[CH][C]1C[C@H]2O	
InChI=1S/C8H12O/c1-8-4-2-3-6(8)5-7(8)9/h3,7,9H,2,4-5H2,1H3	InChI=1S/C8H12O/c1-8-4-2-3-6(8)5-7(8)9/h3,7,9H,2,4-5H2,1H3/t7-,8-/m1/s1
