18
gdb 32850	6.41925	0.76872	0.69785	2.8514	77.4	-0.1717	0.0475	0.2193	1602.1037	0.147045	-439.101364	-439.091992	-439.091048	-439.136201	34.022	
C	-0.0237901402	 1.4385660032	 0.1221554705	-0.395585
C	-0.1699731763	-0.0464451454	-0.1902324093	-0.120318
N	 0.8742991231	-0.473401668	-1.1232611038	-0.403578
C	 0.9860301099	-1.8095417024	-1.4520870287	 0.486388
C	 1.4460134054	-2.4501087441	-2.5700658845	-0.472665
C	 1.4022807594	-3.8500454761	-2.2462415751	 0.326543
O	 1.7610662267	-4.8927308442	-3.043688895	-0.444006
C	 0.91928229	-3.9635463664	-0.9836947061	-0.140282
O	 0.6598483308	-2.6930688023	-0.4891362003	-0.187372
H	 0.9599431508	 1.6505165001	 0.5505075541	 0.131369
H	-0.1394869794	 2.0486247984	-0.781568706	 0.11292
H	-0.7909092517	 1.7559420003	 0.8339371248	 0.123243
H	-0.0586186649	-0.6367748105	 0.7225376191	 0.135121
H	-1.1789075112	-0.2548375799	-0.5819228825	 0.097518
H	 0.9449980444	 0.1197931288	-1.9385473376	 0.236609
H	 1.7691334074	-1.9966709815	-3.4943031535	 0.088375
H	 2.0893658537	-4.5413354488	-3.8756793738	 0.298527
H	 0.6946214621	-4.7869732914	-0.3320333923	 0.127192
52.2784	62.7575	127.5715	185.0335	230.6128	258.9082	329.3956	340.5311	376.2566	483.7314	571.7837	583.5996	649.6378	671.2813	685.5628	715.3491	782.7014	816.4133	911.6366	976.3592	1010.2911	1068.8519	1124.0552	1135.0481	1154.0684	1184.7505	1216.6748	1287.0336	1295.985	1363.4926	1379.2784	1414.8128	1439.7652	1486.8827	1497.7927	1501.4609	1525.0398	1637.6008	1691.3138	2970.3666	3033.9263	3088.3243	3108.9781	3123.3585	3244.9807	3311.5179	3587.7198	3850.5344
CCNC1=CC(O)=CO1	CCNc1cc(O)co1	
InChI=1S/C6H9NO2/c1-2-7-6-3-5(8)4-9-6/h3-4,7-8H,2H2,1H3	InChI=1S/C6H9NO2/c1-2-7-6-3-5(8)4-9-6/h3-4,7-8H,2H2,1H3
