19
gdb 106219	3.44775	1.41102	1.24251	1.6358	79.21	-0.2205	0.002	0.2225	1077.0124	0.159543	-385.846935	-385.839324	-385.83838	-385.878958	30.6	
C	 0.0360171346	 1.4681175032	-0.3040692619	-0.37721
C	-0.0491463818	 0.0076369249	 0.1581843757	-0.291985
C	-1.4594726469	-0.5350771468	 0.1987197806	 0.287769
C	-2.5106802682	 0.0042616894	 1.0993626193	-0.134215
C	-3.5263262469	-0.8655499583	 1.2072911057	-0.102998
C	-3.2575103876	-1.9941558991	 0.2492387368	 0.025805
O	-3.4059178987	-1.3894428129	-1.1130057994	-0.300241
C	-2.0170480696	-1.1820290287	-1.1374366538	 0.065735
C	-1.7141546437	-2.0217549207	 0.0498700591	-0.214272
H	 1.0744221012	 1.8126798286	-0.3249704445	 0.112492
H	-0.3821165539	 1.5884946007	-1.30860313	 0.119842
H	-0.5193872706	 2.1326700204	 0.3656835622	 0.119785
H	 0.5522144991	-0.6199331434	-0.512752362	 0.09534
H	 0.408388658	-0.0922005249	 1.1515981106	 0.101926
H	-2.4768845546	 1.000439903	 1.5245303683	 0.100531
H	-4.4705385937	-0.7067725889	 1.7110229223	 0.102686
H	-3.8347416777	-2.9141731673	 0.3203231644	 0.083424
H	-1.5414562354	-1.0156497314	-2.0971770701	 0.108978
H	-1.0070248535	-2.8186515078	 0.2464774367	 0.096607
81.3222	158.8771	205.4034	306.8179	362.5444	407.5102	423.1707	583.565	614.3119	676.9771	719.6005	760.6117	792.6779	814.1186	823.1416	852.6065	874.8264	910.7906	926.9521	960.6216	978.9142	988.6099	1047.1028	1066.0929	1096.5318	1106.0128	1117.9111	1180.9557	1209.4305	1236.058	1256.4287	1297.8044	1316.749	1352.2486	1379.4141	1391.6263	1412.6126	1484.4772	1498.329	1506.3313	1625.9318	3011.3485	3036.387	3041.5711	3104.9563	3107.6028	3135.1031	3174.6747	3189.356	3196.4433	3227.9313
CCC12C=CC3OC1C23	CC[C@@]12C=C[C@H]3O[C@@H]1[C@@H]23	
InChI=1S/C8H10O/c1-2-8-4-3-5-6(8)7(8)9-5/h3-7H,2H2,1H3	InChI=1S/C8H10O/c1-2-8-4-3-5-6(8)7(8)9-5/h3-7H,2H2,1H3/t5-,6+,7-,8+/m1/s1
