19
gdb 115783	3.47906	0.82045	0.70438	3.4788	72.8	-0.2475	-0.0235	0.2239	1563.2131	0.15702	-460.138962	-460.1291	-460.128155	-460.175594	33.741	
O	-0.1742735364	 1.5425203363	-0.2763056212	-0.423929
C	 0.0343646245	 0.1836659145	 0.0785819784	-0.096484
C	-1.3349417672	-0.4708317573	 0.0988198136	-0.047278
C	-1.9651702188	-0.7154019684	-1.2881873578	-0.073025
O	-1.8405019106	-2.1489949173	-1.1407235613	-0.296486
C	-1.4150590575	-2.0151861382	 0.2338274593	 0.108242
C	-0.1654414936	-2.8434542116	 0.5357792994	-0.300496
C	-0.4305810724	-4.3238320844	 0.3424371634	 0.154937
O	-0.2292292088	-5.1652502072	 1.1806467927	-0.241346
H	 0.6827670236	 1.9727248466	-0.3485228355	 0.290719
H	 0.6866605129	-0.3190147085	-0.6525345962	 0.091758
H	 0.5133381949	 0.0946403543	 1.0667296844	 0.093249
H	-1.9710822438	 0.0725221188	 0.8006414598	 0.09206
H	-3.0124933169	-0.4064104691	-1.3864125305	 0.106243
H	-1.3981673666	-0.3379821606	-2.1463524283	 0.112008
H	-2.2208777132	-2.3233760379	 0.9159944022	 0.087153
H	 0.6343397351	-2.5569081916	-0.1587892234	 0.119662
H	 0.1757019472	-2.681168673	 1.5626990934	 0.121154
H	-0.8377934923	-4.5877656453	-0.6568531025	 0.101859
45.924	59.1775	70.1878	106.3297	133.0958	220.0763	262.3793	289.7443	398.6449	418.5702	493.5526	528.6821	782.9097	808.6607	859.4284	887.4171	921.7476	955.3725	1013.698	1021.6592	1069.2739	1091.5248	1100.7516	1135.9581	1147.4722	1171.6089	1205.9037	1231.1209	1257.7412	1277.4351	1284.999	1303.2307	1355.4567	1377.1593	1394.9701	1423.5018	1450.1686	1463.5933	1519.1469	1530.818	1830.156	2911.3646	2967.8256	2990.5976	2998.0853	3025.1889	3033.6456	3070.2246	3093.3441	3103.2431	3830.8994
OCC1COC1CC=O	OC[C@H]1CO[C@H]1CC=O	
InChI=1S/C6H10O3/c7-2-1-6-5(3-8)4-9-6/h2,5-6,8H,1,3-4H2	InChI=1S/C6H10O3/c7-2-1-6-5(3-8)4-9-6/h2,5-6,8H,1,3-4H2/t5-,6-/m0/s1
