15
gdb 50888	4.64852	0.75681	0.74594	3.8858	71.65	-0.259	-0.0056	0.2535	1529.2304	0.110773	-453.938921	-453.929437	-453.928493	-453.97575	32.377	
N	 0.119157105	 1.0027216555	 0.7944884989	-0.39762
C	-0.1009002968	-0.0306905582	 0.0982011285	 0.085547
N	-1.3529437938	-0.4069298875	-0.3788253845	-0.371154
C	-2.5687913814	 0.2238295205	-0.1838577453	 0.550683
O	-2.787230213	 1.2106402266	 0.4591264437	-0.353046
O	-3.5020025289	-0.49236629	-0.8832195566	-0.276799
C	-4.8609852743	-0.0434710551	-0.7370831935	-0.220338
C	-5.5936043571	-0.8618740254	 0.2198172783	 0.32247
C	-6.2090715062	-1.5340894041	 1.0017454867	-0.460396
H	 1.110689051	 1.0590711965	 1.0203876951	 0.231147
H	 0.6534315438	-0.7604123035	-0.2217301273	 0.098894
H	-1.397241406	-1.2451582191	-0.9357293608	 0.266089
H	-4.8538321892	 1.0042320602	-0.4241504774	 0.172962
H	-5.3074989111	-0.1192857538	-1.7326172041	 0.143174
H	-6.7527713421	-2.1209066724	 1.7004526683	 0.208387
12.7255	56.6272	75.9028	174.158	183.223	238.0225	307.0253	327.8182	381.714	540.5588	572.1406	614.3263	616.9897	686.2802	769.3679	774.0261	822.7512	945.7424	950.3126	1010.1212	1047.062	1062.6216	1137.8488	1198.941	1259.2579	1297.2457	1393.8604	1430.693	1470.5252	1545.3346	1741.2396	1868.1774	2244.914	3038.4058	3061.2883	3109.1625	3503.9098	3504.9359	3648.3231
N=CNC(=O)OCC#C	N=CNC(=O)OCC#C	
InChI=1S/C5H6N2O2/c1-2-3-9-5(8)7-4-6/h1,4H,3H2,(H2,6,7,8)	InChI=1S/C5H6N2O2/c1-2-3-9-5(8)7-4-6/h1,4H,3H2,(H2,6,7,8)
