19
gdb 38961	3.0286	1.75261	1.44951	0.8981	73.33	-0.2392	0.0825	0.3217	956.2775	0.161992	-423.018317	-423.011348	-423.010404	-423.049759	28.2	
C	 0.0205375697	 1.6004158375	 0.196065174	-0.307881
C	 1.2992340476	 0.8353475999	 0.0181588828	 0.093775
O	 2.0318202643	 0.5504297091	 1.1860372924	-0.283143
C	 1.507101512	-0.6355189498	 1.7968259184	 0.094388
C	 1.4148924529	-0.4681642274	 3.3084688772	-0.245104
C	 0.073244773	 0.255803179	 3.4668156972	-0.080654
O	-0.762750372	-0.2305929939	 2.4159046957	-0.27202
C	 0.0324066123	-0.7338889943	 1.3396794862	 0.076382
C	-0.0067470187	 0.0914579996	 0.0552110243	-0.082116
H	-0.1949924875	 2.0243799802	 1.1692150417	 0.130348
H	-0.3464563504	 2.1780343084	-0.6459469998	 0.111553
H	 1.9064325885	 0.9442047522	-0.8751833557	 0.094418
H	 2.105433323	-1.5029382238	 1.49027995	 0.072297
H	 1.3819004179	-1.4541499856	 3.7832236542	 0.106254
H	 2.2616332918	 0.0886320202	 3.7144408082	 0.117995
H	-0.4249698018	 0.0483854311	 4.4185598548	 0.106183
H	 0.2088387543	 1.3433209223	 3.3803352166	 0.099078
H	-0.2833589512	-1.7645721309	 1.1445497857	 0.079018
H	-0.4445730658	-0.3509150437	-0.8309961539	 0.08923
96.7388	171.4161	211.9356	358.4271	394.6436	497.6013	588.39	658.2393	691.6991	770.7522	803.4598	839.0906	843.872	856.9996	913.8028	923.4827	941.1616	984.1833	994.8443	1022.0203	1029.3837	1052.3734	1068.9877	1098.5835	1120.4186	1127.1457	1150.7068	1197.4531	1216.0654	1231.7711	1277.2643	1297.6487	1322.7359	1332.914	1356.4951	1364.8859	1388.2204	1399.9666	1473.0456	1475.9652	1524.6895	2999.0681	3018.7924	3046.0883	3059.082	3080.3618	3123.9836	3138.3027	3153.988	3184.4797	3232.4573
C1C2OC3CCOC3C12	C1[C@H]2O[C@H]3CCO[C@H]3[C@@H]12	
InChI=1S/C7H10O2/c1-2-8-7-4-3-6(4)9-5(1)7/h4-7H,1-3H2	InChI=1S/C7H10O2/c1-2-8-7-4-3-6(4)9-5(1)7/h4-7H,1-3H2/t4-,5-,6+,7-/m0/s1
