17
gdb 54346	2.07043	1.74261	1.11188	0.6531	73.23	-0.2653	0.0015	0.2668	1103.1925	0.136398	-418.050001	-418.04112	-418.040176	-418.084133	32.596	
N	-0.0853349522	 1.3425444984	 0.6573897544	-0.557917
C	 0.031226006	 0.2636750078	-0.1519565165	 0.391307
O	 1.0322302003	 0.0052844023	-0.7920863764	-0.370192
C	-1.1917483296	-0.6713560578	-0.246612742	 0.029267
C	-1.6168479102	-1.0332194426	-1.7195495675	-0.246202
C	-1.6924849571	-2.5266315703	-1.3193028653	-0.217405
C	-0.8551738824	-2.198444333	-0.0595352028	-0.246196
C	-2.3138383471	-0.2399279552	 0.5712336462	 0.259982
N	-3.1847402425	 0.1360041054	 1.2347804139	-0.363105
H	 0.7014752494	 1.9664400276	 0.7316297763	 0.268318
H	-0.9237446766	 1.5393307182	 1.1777369468	 0.285569
H	-2.5184272028	-0.548861898	-2.0960725233	 0.122052
H	-0.7723392581	-0.8242342111	-2.377669991	 0.143757
H	-2.7106438955	-2.8332373557	-1.0673226228	 0.121048
H	-1.2706637261	-3.2489284252	-2.0198937969	 0.113932
H	 0.2142117228	-2.3338440719	-0.2272283415	 0.14374
H	-1.1477259981	-2.6456797191	 0.8911035583	 0.122044
39.2076	110.4736	160.0998	192.185	234.5628	298.4597	312.4035	403.0155	472.1933	547.1303	554.459	603.7758	639.164	692.7738	740.6196	810.9457	877.9375	892.8901	952.2742	958.8026	993.6821	1086.309	1086.6321	1110.6385	1199.5815	1217.3074	1268.4773	1275.6377	1285.2117	1304.9711	1358.081	1465.3659	1480.5323	1500.4996	1619.9155	1794.3158	2337.0415	3071.8494	3083.9659	3086.9182	3121.9205	3150.8461	3154.9837	3595.5229	3728.1793
NC(=O)C1(CCC1)C#N	NC(=O)C1(CCC1)C#N	
InChI=1S/C6H8N2O/c7-4-6(5(8)9)2-1-3-6/h1-3H2,(H2,8,9)	InChI=1S/C6H8N2O/c7-4-6(5(8)9)2-1-3-6/h1-3H2,(H2,8,9)
