16
gdb 18862	3.35139	2.55651	2.13513	1.5724	67.18	-0.2268	0.0068	0.2336	709.4734	0.132843	-346.57339	-346.567479	-346.566535	-346.602966	24.961	
O	 0.0550063171	 1.4285959578	 0.0746365646	-0.436945
C	-0.0234455637	 0.0360957532	-0.0309223035	 0.166038
C	-1.3617730378	-0.6816896905	 0.0144984409	-0.136005
C	-2.0374364281	-0.7497036973	-1.3794978257	-0.078042
C	-1.5866092515	 0.1976947011	-2.4420077734	-0.102374
C	-0.2492951962	 0.1784883272	-2.517652009	-0.097313
C	 0.2903161338	-0.6993955977	-1.4158144605	-0.154451
C	-0.8843487121	-1.6567536924	-1.0429500614	-0.07091
H	-0.496565936	 1.7924899108	-0.6285008223	 0.27736
H	 0.6401317237	-0.3720873224	 0.7347229291	 0.097122
H	-1.9536451209	-0.8664906366	 0.9032187938	 0.088362
H	-3.0490305142	-1.1385192186	-1.3701486022	 0.087308
H	-2.2624767967	 0.8062933931	-3.0303299981	 0.09853
H	 0.3705295365	 0.8014042232	-3.1504329711	 0.102601
H	 1.2998352293	-1.0876948988	-1.5367053603	 0.068287
H	-0.8950770932	-2.7391885319	-1.0505564907	 0.09043
191.853	279.084	399.8445	474.8347	514.9424	575.8162	700.909	724.3473	746.8382	781.5564	816.3529	827.1561	827.8628	883.2377	936.5259	957.4513	976.3019	986.9448	996.6101	1042.9741	1061.6156	1080.5243	1115.5759	1128.6095	1141.6185	1222.7263	1241.979	1272.659	1293.7132	1318.3026	1362.9899	1376.7546	1439.3483	1636.1426	3091.3693	3129.4899	3177.3576	3181.921	3196.4866	3199.0706	3222.7099	3778.7173
OC1C2C3C=CC1C23	O[C@H]1[C@H]2[C@H]3C=C[C@@H]1[C@@H]23	
InChI=1S/C7H8O/c8-7-4-2-1-3-5(4)6(3)7/h1-8H	InChI=1S/C7H8O/c8-7-4-2-1-3-5(4)6(3)7/h1-8H/t3-,4+,5-,6-,7+/m0/s1
