18
gdb 67993	2.90971	1.74435	1.29545	3.9925	75.34	-0.2273	0.0299	0.2573	998.3133	0.149397	-401.96281	-401.955464	-401.95452	-401.994147	29.859	
C	-0.0236539027	 1.4746145258	-0.0089930969	-0.487046
C	-0.0404262173	-0.0300894268	-0.0019163044	 0.372404
N	 0.8832375893	-0.689847284	-0.8930565986	-0.374521
C	 0.5017080473	-1.9838449505	-1.1814214364	 0.40949
O	 1.0998577812	-2.7775529606	-1.8718559507	-0.383792
C	-0.7465968181	-2.2143116826	-0.3268462234	-0.188795
C	-0.2250431297	-2.2631858126	 1.1613212638	-0.24171
C	-0.4912780246	-0.7641355676	 1.2697627751	-0.118972
C	-1.3182890587	-0.8043046052	-0.0181931256	-0.112511
H	 0.9231391923	 1.8666813954	 0.3799803385	 0.123086
H	-0.1613040037	 1.8597562917	-1.0244646418	 0.131467
H	-0.8267362259	 1.8686637608	 0.620258992	 0.128536
H	 1.832659948	-0.3859038633	-1.040431992	 0.246875
H	-1.3838696113	-3.025292379	-0.6666749248	 0.093707
H	-0.9226123369	-2.8279958026	 1.7833537305	 0.114653
H	 0.7918292262	-2.6337148963	 1.3283322428	 0.108637
H	-0.6828956545	-0.21525306	 2.1850512123	 0.085836
H	-2.2949608708	-0.4064102428	-0.2635121704	 0.092656
149.1634	221.3409	246.1068	290.9038	321.7838	421.0925	459.0027	510.9556	576.3198	611.0841	711.6171	744.9448	799.714	831.2183	864.546	870.9863	918.0055	930.0725	975.8224	992.5993	1004.1831	1044.3882	1070.0896	1098.8845	1111.1597	1170.4879	1195.7118	1224.1644	1238.0534	1258.2668	1293.0303	1313.5545	1367.0798	1417.7259	1441.188	1486.7797	1493.7734	1505.3926	1833.4547	3031.0697	3047.2332	3092.919	3111.4136	3114.7986	3163.2167	3171.1674	3191.5275	3639.5771
CC12NC(=O)C3CC1C23	C[C@@]12NC(=O)[C@H]3C[C@@H]1[C@@H]23	
InChI=1S/C7H9NO/c1-7-4-2-3(5(4)7)6(9)8-7/h3-5H,2H2,1H3,(H,8,9)	InChI=1S/C7H9NO/c1-7-4-2-3(5(4)7)6(9)8-7/h3-5H,2H2,1H3,(H,8,9)/t3-,4+,5-,7+/m0/s1
