18
gdb 51467	3.12923	1.22	1.14388	4.3421	73.82	-0.2451	0.0204	0.2656	1145.4023	0.148512	-439.060622	-439.052492	-439.051548	-439.09415	29.753	
N	-0.0577953505	 1.1930133751	 0.0022457517	-0.438038
C	-0.265247429	-0.0214448551	 0.2705061989	 0.131111
O	-0.9504812589	-0.7951365803	-0.601024567	-0.178371
C	-1.0163041858	-2.1639538775	-0.2942663043	 0.10123
C	-1.9058442016	-2.7130436599	 0.7961263392	-0.128049
C	-3.0040086989	-1.8195131856	 1.3468357517	-0.086167
O	-3.6740722567	-1.2575654862	 0.2300680298	-0.246248
C	-3.5163628635	-2.1044528348	-0.9012589522	-0.081035
C	-2.2519575056	-2.9168834392	-0.6702150142	-0.126097
H	 0.4574138182	 1.632405838	 0.762260044	 0.229207
H	 0.0548487636	-0.5627240014	 1.1709091001	 0.087536
H	-0.070476276	-2.6800888069	-0.4468022063	 0.106548
H	-1.5301117558	-3.5146963382	 1.4217982598	 0.097549
H	-3.6838518487	-2.4270885905	 1.9665166027	 0.096455
H	-2.6418901941	-0.987089399	 1.9609844475	 0.112425
H	-4.371782469	-2.789454269	-1.0125619219	 0.094458
H	-3.4683160964	-1.459728678	-1.7841210359	 0.126995
H	-2.1554659513	-3.8748573315	-1.1671956435	 0.10049
61.1272	108.8138	124.8579	200.3572	221.5135	278.5134	468.3383	506.0217	624.8183	724.0705	758.7569	776.3212	818.3077	825.7003	917.0803	927.7488	980.682	992.1584	1031.7382	1046.9245	1056.1458	1078.1272	1104.3567	1115.3358	1131.3591	1138.0815	1230.5033	1231.3518	1243.0224	1286.4171	1324.0296	1358.7266	1360.2844	1373.9948	1414.1274	1449.761	1511.3178	1524.2986	1747.3412	2968.9047	2980.8577	3029.4687	3055.2188	3080.0754	3122.5565	3175.3348	3186.6622	3517.9263
N=COC1C2COCC12	[NH][CH]O[C@H]1[C@H]2COC[C@@H]12	
InChI=1S/C6H9NO2/c7-3-9-6-4-1-8-2-5(4)6/h3-7H,1-2H2	InChI=1S/C6H9NO2/c7-3-9-6-4-1-8-2-5(4)6/h3-7H,1-2H2/t4-,5+,6-
