17
gdb 48333	2.55746	1.29914	1.08465	5.2333	72.74	-0.2474	-0.0454	0.202	1156.193	0.135323	-418.006104	-417.997226	-417.996281	-418.040425	31.609	
O	-0.1817524707	 0.0434174891	 0.3296365858	-0.245561
C	-0.061658451	 1.1900009351	-0.0138969888	 0.12594
C	 1.2684113427	 1.9318562458	-0.0111334173	 0.23332
C	 1.4673634575	 2.7069654071	-1.3294003678	-0.406039
C	 1.5032669801	 1.8309481074	-2.4993373771	 0.26679
N	 1.5166811242	 1.1238483098	-3.4130098812	-0.298612
C	 1.4157117364	 2.7747747665	 1.2977031143	-0.303355
C	 2.3379094485	 1.6324282734	 1.7894340839	-0.150689
N	 2.4111597021	 1.1055435705	 0.4005719755	-0.335251
H	-0.9393404181	 1.7959116106	-0.3358388099	 0.087551
H	 0.6645043354	 3.4425948032	-1.4619398162	 0.151371
H	 2.4123290648	 3.2541610253	-1.266590731	 0.163151
H	 1.9329673355	 3.7209765834	 1.1252993311	 0.120288
H	 0.503770334	 2.964484455	 1.866585773	 0.120957
H	 3.3065675938	 1.9271987573	 2.2027527751	 0.114061
H	 1.8375406612	 0.9620760439	 2.4969616739	 0.117857
H	 2.2162739435	 0.1111038966	 0.3212076668	 0.238222
60.7298	85.7311	116.2241	151.8412	258.	286.5584	330.7814	366.6101	389.1387	468.5047	638.2516	691.1698	772.8124	782.4058	862.5135	903.3409	936.6653	948.4421	971.0609	997.2799	1029.4096	1108.3935	1141.8527	1163.7639	1206.4086	1213.4258	1257.7041	1279.1039	1313.9237	1333.3436	1410.2487	1420.645	1453.5028	1483.3885	1520.0209	1828.3301	2363.0789	2874.4216	3036.927	3043.6193	3073.589	3085.6264	3098.3501	3130.5017	3512.3774
O=CC1(CC#N)CCN1	O=C[C@@]1(CC#N)CCN1	
InChI=1S/C6H8N2O/c7-3-1-6(5-9)2-4-8-6/h5,8H,1-2,4H2	InChI=1S/C6H8N2O/c7-3-1-6(5-9)2-4-8-6/h5,8H,1-2,4H2/t6-/m1/s1
