15
gdb 42569	3.37782	1.59111	1.31702	3.8918	69.72	-0.2433	-0.0178	0.2255	952.9048	0.11363	-416.725931	-416.719275	-416.718331	-416.756981	26.414	
O	 0.0698819445	 0.0960779937	 0.1688652353	-0.325727
C	 0.0372204927	 1.2902838656	 0.158471244	 0.482575
C	-1.0492271264	 2.3223807154	 0.1099754579	-0.1991
C	-0.4518550262	 3.5955427299	 0.6459636471	-0.139376
N	-0.1547071648	 3.2041829815	-0.7595524516	-0.144301
C	 1.0517775341	 2.4048089396	-0.1299342143	-0.234596
C	 0.9610875604	 3.3177162898	 1.0894036945	 0.400167
C	 1.9258667745	 4.3045897475	 1.6067465273	-0.320079
N	 1.5606071656	 3.098223577	 2.3878067761	-0.369865
H	-2.1080486924	 2.2072293101	-0.0844844732	 0.127885
H	-1.0826589933	 4.4484804958	 0.8758919982	 0.114196
H	 1.9659079141	 2.2348751087	-0.6915697618	 0.115491
H	 2.9495322112	 4.3185266948	 1.2434717119	 0.132016
H	 1.5415709967	 5.2718011636	 1.9229696953	 0.121468
H	 0.9137517693	 3.3273683069	 3.1383640734	 0.239247
119.5984	203.1635	258.2206	339.1103	444.1102	489.4653	585.5664	629.0032	719.6495	751.1882	809.2066	821.4833	847.5626	897.9934	916.2155	947.1428	972.415	977.144	1018.5395	1035.1781	1064.9326	1092.429	1128.1946	1138.8999	1160.283	1169.3019	1242.7909	1270.6499	1290.548	1312.283	1447.8855	1522.2189	1902.3316	3104.2952	3167.762	3174.6117	3191.9059	3209.4312	3505.2622
O=C1C2C3N2C1C31CN1	O=C1[C@H]2[C@@H]3N2[C@H]1[C@]13CN1	
InChI=1S/C6H6N2O/c9-3-2-4-6(1-7-6)5(3)8(2)4/h2,4-5,7H,1H2	InChI=1S/C6H6N2O/c9-3-2-4-6(1-7-6)5(3)8(2)4/h2,4-5,7H,1H2/t2-,4-,5+,6+,8?/m0/s1
