18
gdb 19429	3.95112	1.97822	1.66089	1.4522	71.68	-0.2275	0.0858	0.3133	841.5926	0.155285	-347.781364	-347.774691	-347.773747	-347.811867	27.216	
C	-0.0959574417	 1.4829355494	 0.0490474488	-0.335358
C	 1.2594477153	 0.7934137286	-0.0340755717	-0.338998
C	-0.0194607269	-0.0033032596	-0.0505661426	 0.470765
O	-0.3851438681	-0.7249034013	 1.1077167149	-0.295923
C	-0.2928865507	-2.117897775	 0.8017730595	-0.106094
C	-0.6166563468	-2.2304825641	-0.6777201473	-0.049398
C	-1.8088040412	-1.4434954175	-1.158173714	-0.298267
C	-0.4288100453	-0.8353168885	-1.2312353183	-0.119254
H	-0.3848833603	 1.896713532	 1.0087023462	 0.123087
H	-0.4503693953	 2.0393446249	-0.8118701508	 0.114047
H	 1.8344797178	 0.8863625137	-0.9499166741	 0.107457
H	 1.8486302039	 0.7534663915	 0.8752225997	 0.118788
H	 0.7214130151	-2.5003153588	 0.9972846129	 0.092854
H	-0.9941774139	-2.6385148069	 1.4621379121	 0.106607
H	-0.2925702387	-3.1113145437	-1.2189466366	 0.088512
H	-2.2636722023	-1.7540519315	-2.0921273711	 0.108857
H	-2.501749893	-1.0513454764	-0.4204201386	 0.123731
H	 0.0392421222	-0.6519463766	-2.1906101291	 0.088587
132.0537	221.9071	292.4153	334.8865	374.5222	485.5092	562.0953	691.87	746.2915	764.3345	810.8113	830.4394	874.9324	890.1472	920.8658	954.6189	965.8654	998.2066	1013.195	1044.6765	1062.4878	1072.9763	1077.5794	1080.3082	1103.3188	1120.2531	1187.7063	1196.8604	1229.0284	1261.3942	1281.2957	1352.2722	1386.6126	1414.92	1450.6434	1480.1703	1502.2738	1517.5414	2980.0289	3069.4048	3126.9688	3130.6959	3135.0207	3180.6487	3188.6147	3214.137	3220.3916	3228.8458
C1CC11OCC2CC12	C1CC21OC[C@H]1C[C@@H]21	
InChI=1S/C7H10O/c1-2-7(1)6-3-5(6)4-8-7/h5-6H,1-4H2	InChI=1S/C7H10O/c1-2-7(1)6-3-5(6)4-8-7/h5-6H,1-4H2/t5-,6-/m1/s1
