17
gdb 22338	2.78712	1.32441	1.04376	2.0956	73.71	-0.2125	-0.071	0.1415	1162.5866	0.135181	-455.100973	-455.092369	-455.091424	-455.134451	31.888	
C	-0.3504293999	 1.376179324	 0.4367905907	-0.33134
N	 0.1028435415	 0.0570037502	-0.0046423704	-0.077183
C	-1.0177345348	-0.8271107743	-0.3505745131	-0.292764
C	-1.4176312608	-1.561830386	 0.9414696919	 0.332006
O	-2.4498979738	-2.1438351231	 1.1548886901	-0.296818
C	-0.2250990638	-1.3974411034	 1.8515384142	 0.290931
C	 0.835835461	-0.6636692142	 1.0556008815	-0.262576
N	-0.0400418336	-1.7500596649	 3.0656797717	-0.210111
O	-1.123185544	-2.3918250344	 3.633745392	-0.34746
H	 0.5198249368	 1.9935588413	 0.6774480288	 0.126834
H	-0.8911800133	 1.8623212565	-0.3801724594	 0.127836
H	-1.0120402692	 1.3587790738	 1.3217236837	 0.106194
H	-1.8609857669	-0.282476364	-0.7793951309	 0.134408
H	-0.696841138	-1.5782008476	-1.0872849474	 0.131565
H	 1.5250664942	-1.3822314026	 0.5901491962	 0.123049
H	 1.43015714	 0.0189386717	 1.6649875045	 0.129966
H	-0.8115605355	-2.5682832632	 4.5293798359	 0.315463
68.0194	98.3701	208.7917	231.0744	267.0966	300.7811	378.6997	391.132	434.5966	485.9484	514.0531	588.3212	654.4505	703.1604	722.0202	845.398	950.3713	995.8349	1010.6395	1037.1068	1073.5795	1096.9514	1158.7616	1169.8291	1202.3053	1260.9274	1290.4075	1326.6927	1342.384	1419.6129	1451.1129	1464.4497	1487.5665	1492.1132	1504.4348	1703.2857	1833.0756	2944.6058	3004.6409	3007.3968	3071.1075	3111.6266	3118.3797	3119.2688	3797.0966
CN1CC(=O)C(C1)=NO	CN1CC(=O)C(=NO)C1	
InChI=1S/C5H8N2O2/c1-7-2-4(6-9)5(8)3-7/h9H,2-3H2,1H3	InChI=1S/C5H8N2O2/c1-7-2-4(6-9)5(8)3-7/h9H,2-3H2,1H3
