17
gdb 77456	1.89995	1.5806	1.49693	4.2513	69.29	-0.2575	0.0007	0.2582	1054.3365	0.133206	-458.9646	-458.955483	-458.954539	-458.997989	33.549	
C	 0.0347684405	 1.596064929	-0.0114257158	-0.428118
C	 0.0987279435	 0.085503566	-0.0245298386	-0.140055
C	 0.6826524041	-0.7482033598	-1.1220166866	 0.387442
C	 0.0547335425	-1.8045746224	-1.963891784	-0.489972
O	 1.8182621514	-0.0181294477	-1.6947013923	-0.295838
C	 2.5265105886	-0.1378779893	-0.5023237342	 0.395057
O	 3.6581791786	 0.1563514338	-0.2992539765	-0.330229
C	 1.3620513938	-0.7692213825	 0.2309391471	 0.110886
O	 1.432985744	-1.7741221012	 1.1619023593	-0.441579
H	 0.8684726981	 2.0328715704	-0.5649763143	 0.150165
H	-0.8937669989	 1.9416241343	-0.4778083073	 0.127181
H	 0.0577636064	 1.9822796915	 1.0125277196	 0.12323
H	-0.7489344273	-0.4165656724	 0.4432374613	 0.105856
H	-0.4878556139	-1.3631002498	-2.8061503552	 0.140338
H	 0.8155415814	-2.4828729232	-2.3604816727	 0.14513
H	-0.6535526785	-2.3843603923	-1.3656677199	 0.139111
H	 1.4360893757	-1.3835448446	 2.0430372103	 0.301395
124.8769	164.484	185.2917	189.9608	201.9292	244.6974	260.3601	283.1997	364.2055	449.7453	528.5406	585.2926	641.8629	681.107	736.1292	787.1196	812.6391	880.9831	934.3845	1000.0423	1019.266	1097.1582	1117.2748	1128.7802	1149.903	1206.715	1276.8717	1319.6925	1372.0188	1414.8098	1418.8488	1473.1379	1489.4969	1493.5751	1498.9653	1532.3082	1942.0107	3040.7125	3041.7599	3099.938	3109.3777	3113.9551	3125.3905	3135.7776	3795.945
CC1C2(C)OC(=O)C12O	C[C@H]1[C@@]2(C)OC(=O)[C@@]12O	
InChI=1S/C6H8O3/c1-3-5(2)6(3,8)4(7)9-5/h3,8H,1-2H3	InChI=1S/C6H8O3/c1-3-5(2)6(3,8)4(7)9-5/h3,8H,1-2H3/t3-,5+,6-/m0/s1
