19
gdb 22228	3.88598	0.8254	0.68951	1.3745	78.58	-0.2451	-0.0337	0.2114	1621.552	0.156388	-456.319365	-456.308723	-456.307779	-456.356828	36.74	
C	-1.309229888	 0.6080753756	 0.1548039202	-0.391829
C	-0.0296913347	-0.1759026689	-0.0670584634	-0.034442
O	 0.3105598757	-0.8109753237	 1.1750232572	-0.252196
C	 1.4311599962	-1.5597068004	 1.1767406941	 0.369754
N	 2.1502163071	-1.6999789521	 0.1402039037	-0.543731
C	 1.6563192852	-2.1550727921	 2.5365092211	 0.282035
C	 0.6867820256	-1.8702052267	 3.6469448263	-0.49
N	 2.7064832939	-2.882957551	 2.6185980218	-0.168131
O	 2.9079292967	-3.4271162031	 3.8793385695	-0.380354
H	-1.1732000947	 1.3694864628	 0.9282732168	 0.12613
H	-1.6027769873	 1.1084963688	-0.7727178438	 0.121969
H	-2.1251646547	-0.0523549435	 0.4623868094	 0.126083
H	-0.1438416453	-0.9441119224	-0.8390677798	 0.122104
H	 0.8010602804	 0.4669657321	-0.3764266322	 0.12217
H	 2.9418415412	-2.3018100876	 0.3652167233	 0.23399
H	-0.3218802163	-2.1729713075	 3.3517426023	 0.146285
H	 0.9744135219	-2.3925963295	 4.5573292169	 0.150599
H	 0.6433710794	-0.794286833	 3.8412411223	 0.146238
H	 3.7188401476	-3.9332692776	 3.7584961643	 0.313325
30.7926	42.2954	77.4989	115.2996	128.5228	241.022	275.8163	281.5727	324.0732	361.6957	397.9331	426.1681	499.047	519.3799	711.0469	730.2193	805.3078	840.1438	889.6848	891.052	984.2765	1032.5611	1058.4503	1059.7074	1121.2267	1137.415	1183.2894	1237.5727	1287.6743	1360.0225	1393.6385	1399.7917	1409.1831	1435.3669	1479.2639	1480.9656	1485.5496	1496.2771	1520.7703	1682.5483	1739.2126	3044.5198	3047.4516	3056.9988	3082.8175	3110.4344	3119.6491	3122.3367	3173.3435	3500.4227	3815.0504
CCOC(=N)C(C)=NO	CCO[C]([NH])C(=NO)C	
InChI=1S/C5H10N2O2/c1-3-9-5(6)4(2)7-8/h6,8H,3H2,1-2H3	InChI=1S/C5H10N2O2/c1-3-9-5(6)4(2)7-8/h6,8H,3H2,1-2H3
