17
gdb 42367	3.056	0.88662	0.74131	3.0073	74.49	-0.2503	-0.024	0.2263	1506.5012	0.132103	-421.782092	-421.772513	-421.771569	-421.818462	33.55	
O	-0.4470590577	-0.3205983	-1.5603437259	-0.290104
C	-0.0726377594	 0.5574387512	-0.8241450048	 0.393926
C	 1.3374489222	 1.1578502221	-0.9873717754	-0.44082
C	 2.0201951598	 1.4747744682	 0.2580173595	 0.29634
C	 2.5744838953	 1.7230188038	 1.2951070274	-0.451169
C	-0.9491726378	 1.1367232593	 0.2791978582	-0.342994
C	-2.4165398709	 0.8641274837	 0.063618196	 0.107078
C	-3.4485707686	 1.7031634194	 0.6816691891	-0.187533
O	-3.1284162194	 1.8384666449	-0.7038424739	-0.233924
H	 1.9177436331	 0.4599626495	-1.5982831666	 0.15956
H	 1.212441079	 2.0735507548	-1.5845779995	 0.161512
H	 3.0728828558	 1.944607693	 2.2063538186	 0.204591
H	-0.6060276464	 0.6866607141	 1.2214956814	 0.147651
H	-0.7693984982	 2.212397114	 0.3786064044	 0.131651
H	-2.6616260991	-0.1656232291	-0.1891321577	 0.114486
H	-4.4293814591	 1.2826652871	 0.8989638407	 0.118078
H	-3.1550845185	 2.5412198241	 1.3134101782	 0.11167
34.9522	47.1021	73.7995	112.7382	180.0531	310.1629	333.6656	364.5604	410.5149	445.4261	507.7628	623.5815	627.8511	655.8523	786.7861	808.6182	833.5761	882.4508	960.9915	976.9489	987.6441	1084.4141	1096.2313	1138.7118	1158.467	1164.4946	1200.5112	1240.5656	1295.9743	1298.0941	1332.2227	1424.1859	1443.9081	1451.6362	1532.0289	1821.2339	2239.1639	3010.5161	3027.4075	3080.5064	3083.1653	3088.4285	3138.0628	3167.1177	3504.2382
O=C(CC#C)CC1CO1	O=C(CC#C)C[C@H]1CO1	
InChI=1S/C7H8O2/c1-2-3-6(8)4-7-5-9-7/h1,7H,3-5H2	InChI=1S/C7H8O2/c1-2-3-6(8)4-7-5-9-7/h1,7H,3-5H2/t7-/m0/s1
