16
gdb 43475	2.61559	1.72169	1.24931	8.2953	74.76	-0.1904	-0.0064	0.184	989.3015	0.127371	-437.865832	-437.858956	-437.858012	-437.897054	27.486	
O	 0.1102695237	-0.0679166823	-0.0173966295	-0.408184
C	-0.0266580682	 1.1514856911	 0.0174075954	 0.396395
C	-1.1968909488	 1.9450888954	 0.1248172192	-0.421362
H	-2.1641429318	 1.4644569474	 0.2016173648	 0.094233
C	-1.1223942139	 3.3574749649	 0.0228182894	 0.396393
O	-2.0113776018	 4.2034796472	-0.0069664215	-0.408183
C	 0.3505036675	 3.8791303116	-0.0624376857	-0.128437
C	 1.1670712082	 3.1223680208	-1.1327962215	-0.230127
C	 1.2787828818	 2.0102739295	-0.067008111	-0.128436
N	 1.1402912165	 3.103820491	 1.0128729145	-0.25974
H	 2.0209053793	 3.5405531436	 1.2900322212	 0.291468
H	 0.5839247058	 2.8254828232	 1.8247322932	 0.295375
H	 0.4004627088	 4.9605327945	 0.0446566947	 0.119426
H	 0.6366055083	 2.8611134742	-2.046003811	 0.159786
H	 2.1241999711	 3.5983667399	-1.3721341711	 0.111967
H	 2.1708632135	 1.3962782079	 0.035940779	 0.119426
150.7661	164.3475	310.7154	351.1225	400.8022	425.3153	490.4182	570.7686	695.6865	711.0217	732.8935	785.0382	787.9169	819.3664	835.925	912.877	931.3593	983.9802	1003.4648	1071.9992	1088.2665	1090.4854	1167.0053	1193.9268	1250.0458	1272.0043	1273.3771	1279.0015	1303.9331	1313.4031	1365.4701	1497.7906	1585.9436	1720.5213	1754.761	3048.3204	3153.6827	3154.0748	3160.8379	3211.1755	3397.2827	3492.2506
O=C1[CH-]C(=O)C2CC1[NH2+]2	O=C1[CH]C(=O)[C@@H]2C[C@H]1[NH2]2	
InChI=1S/C6H6NO2/c8-5-2-6(9)4-1-3(5)7-4/h2-4,7H,1H2/q-1/p+1	InChI=1S/C6H7NO2/c8-5-2-6(9)4-1-3(5)7-4/h2-4H,1,7H2/t3-,4+
