17
gdb 126257	3.02091	1.21488	0.93216	1.0723	71.73	-0.1976	0.0314	0.2291	1252.2596	0.135639	-455.167206	-455.157662	-455.156717	-455.202208	34.115	
C	 0.020096542	 1.5869654733	 0.2629127527	-0.366895
C	 0.0018760096	 0.0669685305	 0.0163924804	-0.303964
C	-1.3734551116	-0.5068814006	-0.0911469772	 0.302705
C	-2.1499041396	-0.7911250895	-1.1974031175	 0.10423
O	-1.7922296235	-0.6165901301	-2.5034191586	-0.462981
C	-3.3646980605	-1.2839955389	-0.6769004887	 0.316662
O	-4.4073153513	-1.6869967751	-1.4437495352	-0.449815
N	-3.3728608842	-1.3150133261	 0.6445604615	-0.330579
N	-2.1532574513	-0.8266338088	 0.9828388336	-0.285265
H	 1.0479882804	 1.9563185317	 0.3327411982	 0.114434
H	-0.4802416142	 2.116573481	-0.5526681105	 0.13349
H	-0.4963580278	 1.8433608007	 1.1933599989	 0.114621
H	 0.532933222	-0.1584614088	-0.9138160858	 0.130679
H	 0.5517245084	-0.4423561002	 0.8183869247	 0.104247
H	-2.5069943236	-0.9599526407	-3.0498784055	 0.305049
H	-5.1034223514	-1.9904846463	-0.8487231009	 0.305153
H	-1.8984006636	-0.7904071521	 1.9533525499	 0.26823
27.3884	111.7472	184.4794	217.6114	233.5165	248.9977	262.8553	285.8512	314.7566	391.1787	450.6829	544.8088	580.4951	679.0785	722.012	736.5691	768.7903	812.5257	956.8143	1040.8028	1061.0853	1084.9172	1141.791	1223.68	1256.2662	1283.7311	1312.7344	1354.1137	1365.171	1409.1939	1473.7969	1482.7404	1496.2799	1504.2936	1541.8215	1595.0455	1686.8107	3024.6338	3037.7169	3079.2594	3108.7275	3118.8788	3693.0245	3806.4722	3825.6928
CCC1=C(O)C(O)=NN1	CCc1c(O)c(O)n[nH]1	
InChI=1S/C5H8N2O2/c1-2-3-4(8)5(9)7-6-3/h8H,2H2,1H3,(H2,6,7,9)	InChI=1S/C5H8N2O2/c1-2-3-4(8)5(9)7-6-3/h8H,2H2,1H3,(H2,6,7,9)
