15
gdb 49497	2.68525	1.45141	1.10716	3.7502	72.65	-0.258	-0.0192	0.2388	1074.0785	0.112832	-416.764698	-416.75714	-416.756196	-416.79707	28.117	
O	 0.1107669946	 0.0866677397	 0.4727020908	-0.300683
C	 0.0671329799	 1.2499363024	 0.1466834726	 0.125278
N	 1.0965949953	 1.9159264912	-0.4895629152	-0.099787
C	 2.5609265347	 1.6762404275	-0.2059271479	-0.035512
C	 2.8400370344	 2.9579641733	-1.0417070884	-0.245967
C	 1.6411448093	 3.2756799195	-0.0947832207	 0.215578
C	 2.4398669972	 2.5827868882	 1.0583119271	-0.255232
C	 0.8255029158	 4.4633066223	-0.0424200302	 0.173653
N	 0.1837878003	 5.4230679761	 0.0113250093	-0.334647
H	-0.8398431631	 1.8795377835	 0.236252993	 0.09963
H	 3.0006184122	 0.6881445727	-0.2977850665	 0.132633
H	 3.7667582391	 3.4907177368	-0.8309721971	 0.125104
H	 2.5957620835	 2.9074089362	-2.1017214001	 0.136177
H	 1.8434922503	 2.1877133415	 1.8807044893	 0.140589
H	 3.3427102365	 3.0930705691	 1.399636824	 0.123187
108.184	122.3836	173.3926	230.4587	292.0701	439.7348	507.2884	526.5566	538.8626	619.2418	706.5114	753.7292	800.1445	888.2767	936.0453	943.4558	969.2695	1011.4945	1035.5853	1073.1661	1095.1191	1126.0715	1167.2742	1214.6528	1216.5325	1225.4966	1274.7541	1315.7965	1414.3742	1481.4319	1521.4998	1792.3554	2358.1244	2947.6141	3077.3781	3098.4805	3160.1106	3181.4778	3183.2549
O=CN1C2CC1(C2)C#N	O=CN1[C@H]2C[C@@]1(C2)C#N	
InChI=1S/C6H6N2O/c7-3-6-1-5(2-6)8(6)4-9/h4-5H,1-2H2	InChI=1S/C6H6N2O/c7-3-6-1-5(2-6)8(6)4-9/h4-5H,1-2H2/t5-,6+
