15
gdb 123853	3.56806	1.56297	1.12948	3.4493	66.03	-0.2819	-0.046	0.236	1005.7425	0.115132	-453.90985	-453.903284	-453.90234	-453.940946	25.454	
C	-0.0069051466	 1.4069915537	 0.0132733699	-0.08984
C	 1.4309260058	 1.9644452778	-0.0052303987	-0.330261
C	 2.1683459047	 1.2507282474	-1.0911049057	 0.300469
N	 3.293647256	 1.5663746675	-1.6675195426	-0.176183
O	 3.5213993442	 0.577167253	-2.5896216083	-0.153206
N	 2.5185485995	-0.3621736286	-2.5802626464	-0.173025
C	 1.6855699837	 0.0402562441	-1.665502409	 0.2733
C	 0.3898156866	-0.5776683311	-1.2303906187	-0.187907
O	-0.0122563029	-0.014773214	 0.0083406269	-0.245567
H	-0.5267928561	 1.7095712501	 0.9247451379	 0.125315
H	-0.5729907661	 1.7942370346	-0.8488405121	 0.104149
H	 1.4308499867	 3.0472139789	-0.1616252753	 0.135897
H	 1.9107943099	 1.7703655143	 0.9604629646	 0.143435
H	-0.3813320748	-0.4169657912	-2.0012288995	 0.124374
H	 0.4888125495	-1.6543433164	-1.072759203	 0.149048
115.9461	218.8906	320.5424	336.2452	389.2836	458.6334	525.7645	632.6058	681.0742	716.2464	739.7426	854.8402	880.0466	925.0456	955.8277	981.4257	1023.4311	1053.6462	1094.5641	1123.1834	1216.534	1238.0952	1243.9431	1306.4176	1350.2374	1365.6655	1407.8464	1432.4797	1468.3783	1484.2251	1499.537	1536.9749	1638.3813	2977.9105	2984.7035	3049.1548	3097.764	3102.5723	3109.2947
C1CC2=NON=C2CO1	C1Cc2nonc2CO1	
InChI=1S/C5H6N2O2/c1-2-8-3-5-4(1)6-9-7-5/h1-3H2	InChI=1S/C5H6N2O2/c1-2-8-3-5-4(1)6-9-7-5/h1-3H2
