19
gdb 107799	2.56199	1.6773	1.33301	0.9865	74.51	-0.2264	0.0603	0.2866	1027.9977	0.158512	-422.960863	-422.95247	-422.951525	-422.993783	32.269	
C	 0.0141969679	 1.3601412841	-0.0880345069	-0.261039
O	-0.0346323728	-0.0522820581	-0.0276457211	-0.299323
C	 0.6310345473	-0.5888565705	 1.0582589919	 0.378133
C	 2.1651449456	-0.4236308967	 1.2695172702	-0.295869
C	 2.0809379348	-1.7864616186	 1.959432481	-0.068674
C	 0.7683929333	-1.8268431097	 2.7528841539	-0.089129
C	 0.7880073271	-2.1399531933	 1.2699675549	-0.16507
C	 0.0450684693	-0.5176930282	 2.510676801	 0.068355
O	 0.3880084141	 0.5552001386	 3.3623119503	-0.44064
H	 1.0480449581	 1.7310094511	-0.115479984	 0.119979
H	-0.4968628685	 1.6592455101	-1.0056472498	 0.129319
H	-0.4964855573	 1.8269942783	 0.7670549341	 0.096605
H	 2.6959596982	-0.4941862824	 0.3161285977	 0.098079
H	 2.5081918125	 0.436878281	 1.8505785978	 0.102693
H	 2.8953550281	-2.4514809641	 2.2141012243	 0.088664
H	 0.6238224263	-2.5190127338	 3.571629283	 0.08774
H	 0.449131373	-2.9988665906	 0.7122994899	 0.096877
H	-1.0407194563	-0.6787255675	 2.471455833	 0.07119
H	-0.2795187808	 1.2418916704	 3.2761371787	 0.282108
71.0372	154.832	183.9458	229.4537	239.1384	299.4209	355.0998	396.0923	506.297	591.3479	644.4795	709.4649	764.9722	800.291	811.5084	902.8879	919.5966	946.3322	977.769	998.2421	1019.9873	1039.5983	1056.3012	1091.9303	1108.0906	1117.0147	1147.0684	1174.0519	1179.9934	1192.2759	1221.7547	1245.7946	1258.649	1306.6714	1343.087	1363.4176	1431.7353	1479.0695	1489.4896	1491.0001	1503.5015	2988.4394	3019.4477	3040.9872	3052.6528	3113.8879	3121.3294	3199.18	3207.0223	3243.6959	3829.2088
COC12CC3C(C13)C2O	CO[C@]12C[C@H]3[C@H]([C@@H]13)[C@H]2O	
InChI=1S/C7H10O2/c1-9-7-2-3-4(5(3)7)6(7)8/h3-6,8H,2H2,1H3	InChI=1S/C7H10O2/c1-9-7-2-3-4(5(3)7)6(7)8/h3-6,8H,2H2,1H3/t3-,4+,5-,6+,7+/m0/s1
