18
gdb 12101	3.69369	1.55479	1.41724	2.8067	68.21	-0.22	0.0545	0.2745	954.7161	0.152317	-384.897922	-384.889678	-384.888734	-384.930402	31.779	
O	 0.16066209	 1.3771559217	-0.0908903979	-0.43455
C	 0.0113318216	-0.0042110115	 0.0055421769	 0.137687
C	-0.4381722089	-0.68131493	 1.2762470914	-0.349728
C	-1.3432067985	-0.6745224447	 0.0513051236	-0.100748
C	-2.6122770708	 0.1218804784	 0.0396644378	 0.417961
O	-2.4748090218	 1.2993931811	 0.8193563352	-0.479645
C	-3.4552236962	 0.1689147441	-1.2050213263	-0.330047
C	-3.9448297282	-0.5777979683	 0.0278004057	-0.316787
H	-0.6383532972	 1.7706731454	 0.2868098437	 0.28792
H	 0.7829638653	-0.4998068439	-0.5760461023	 0.098224
H	 0.0227467803	-1.6153022375	 1.5802065442	 0.105842
H	-0.7300856803	-0.0305054225	 2.09331081	 0.127036
H	-1.4386146084	-1.6103274325	-0.491951468	 0.083012
H	-3.1944284816	 1.9004607779	 0.6047767925	 0.28976
H	-3.9465451304	 1.1050696104	-1.4557107387	 0.107841
H	-3.1334849095	-0.4007925357	-2.0701065702	 0.124421
H	-3.9654329886	-1.662086505	 0.0079286191	 0.120906
H	-4.7503783969	-0.1273579773	 0.5991970433	 0.110895
67.5695	145.3539	195.0394	228.8252	296.7762	340.3653	401.3371	434.0913	502.428	509.578	606.6199	710.0878	757.5843	789.563	810.6729	868.367	898.7586	946.7162	971.8488	988.3857	1027.8242	1044.9398	1058.1915	1064.5699	1070.5214	1124.8346	1144.8388	1182.9656	1185.675	1231.5588	1280.4135	1336.5854	1371.7313	1449.1038	1461.2894	1463.282	1494.4256	1510.0535	3119.8845	3127.7742	3129.7981	3143.4963	3156.7319	3202.2763	3218.5092	3222.1838	3731.6797	3834.4977
OC1CC1C1(O)CC1	O[C@H]1C[C@H]1C1(O)CC1	
InChI=1S/C6H10O2/c7-5-3-4(5)6(8)1-2-6/h4-5,7-8H,1-3H2	InChI=1S/C6H10O2/c7-5-3-4(5)6(8)1-2-6/h4-5,7-8H,1-3H2/t4-,5+/m1/s1
