18
gdb 66460	3.06465	1.68935	1.51214	2.1782	74.67	-0.2112	0.0623	0.2735	949.5729	0.147406	-401.864745	-401.857257	-401.856313	-401.896107	30.331	
C	-0.0224896085	 1.4373549059	-0.0215072491	-0.508872
C	-0.0908988799	-0.0561454118	-0.0058120738	 0.365694
C	 0.4465014769	-1.0744714635	-0.9448306996	-0.17489
N	 1.1408510149	-0.8433802159	 0.3650946719	-0.185839
C	 0.4881042089	-2.0600341295	 1.0114927987	-0.06322
C	-0.6589892949	-1.5291865671	 1.8855959216	-0.26022
C	-1.2088697123	-0.9672835042	 0.5510414124	-0.204053
C	-0.4491138326	-2.1189541579	-0.2492979738	 0.400851
O	-1.0060910443	-3.2004743421	-0.8872482461	-0.475803
H	 0.9421009054	 1.7677658334	-0.4175533226	 0.133732
H	-0.8171859669	 1.8629533311	-0.6435817494	 0.118851
H	-0.128285421	 1.8440985799	 0.9908585809	 0.122079
H	 0.9465478292	-1.0166851012	-1.9044139655	 0.096539
H	 1.2071680677	-2.8145650361	 1.3290168599	 0.076426
H	-1.2790383308	-2.3412606817	 2.280237168	 0.092627
H	-0.412669036	-0.8271685326	 2.6868509817	 0.106326
H	-2.2494100158	-0.6922160853	 0.3838476588	 0.07217
H	-1.5900848101	-3.6633627016	-0.2756804139	 0.287602
190.5637	200.3878	210.3479	269.9557	278.8572	370.312	456.6315	552.6363	577.4378	629.4874	713.7743	758.6581	770.4631	814.8957	869.1629	900.0617	923.1841	971.573	976.4111	986.7984	1000.6696	1018.8568	1039.735	1068.7817	1097.9991	1123.8356	1157.9045	1172.1671	1194.2039	1228.0463	1261.2665	1274.4124	1322.1731	1395.082	1411.2322	1442.565	1480.4812	1484.0767	1490.9049	3028.445	3046.3901	3091.0439	3105.255	3113.0757	3121.9644	3129.8454	3183.8989	3797.839
CC12C3N1C1CC2C31O	C[C@@]12[C@H]3N1[C@H]1C[C@@H]2[C@@]31O	
InChI=1S/C7H9NO/c1-6-3-2-4-7(3,9)5(6)8(4)6/h3-5,9H,2H2,1H3	InChI=1S/C7H9NO/c1-6-3-2-4-7(3,9)5(6)8(4)6/h3-5,9H,2H2,1H3/t3-,4-,5+,6+,7-,8?/m0/s1
