20
gdb 93130	2.54264	1.41479	0.95779	2.5811	82.03	-0.2256	-0.0234	0.2022	1230.7096	0.170755	-403.154005	-403.14521	-403.144266	-403.187586	32.987	
C	-0.1749012685	 1.5056081041	 0.0566317337	-0.327585
N	-0.0243943226	 0.0567267839	 0.0345164234	-0.094534
C	-1.3217368746	-0.5777255096	-0.1883586738	-0.183762
C	-1.3071498824	-2.0625173476	 0.0170369276	-0.059582
C	-0.2897509129	-2.6988166847	 0.5861617943	-0.07142
C	 0.9260983467	-1.9706714087	 1.0810544722	-0.270357
C	 0.6733872253	-0.4516123486	 1.2115869648	-0.022369
C	 2.0464655913	 0.1939829503	 1.3214256632	 0.141065
O	 2.5797957939	 0.5019042535	 2.3543706839	-0.252012
H	 0.8004065601	 1.9956319281	 0.130750115	 0.127465
H	-0.6432824488	 1.8373811884	-0.8753743316	 0.122822
H	-0.7994127376	 1.8614909714	 0.8974687527	 0.101655
H	-2.1046462691	-0.1362245425	 0.46465408	 0.089572
H	-1.6363246699	-0.3501960347	-1.2165343969	 0.113362
H	-2.1883314466	-2.6014656737	-0.3188542537	 0.094273
H	-0.3071638141	-3.7785401986	 0.7071639026	 0.093204
H	 1.2417441738	-2.3548883304	 2.0577067122	 0.123219
H	 1.7682978741	-2.148362452	 0.3955580865	 0.11578
H	 0.1295502213	-0.2534451647	 2.1529884887	 0.07295
H	 2.5580564006	 0.3040323761	 0.3365932755	 0.086254
86.7753	101.0544	142.66	222.5016	278.0739	306.9991	337.7573	391.0856	435.9086	439.8081	490.4104	566.6644	673.9738	780.9368	821.9676	910.0312	938.7009	991.4392	1006.1506	1015.9016	1038.8826	1065.4694	1080.8964	1110.6837	1148.8036	1174.5807	1192.9656	1224.565	1249.8012	1294.6629	1300.9398	1342.563	1372.4481	1392.1166	1407.4566	1418.8123	1465.0757	1471.1917	1484.4394	1497.3671	1506.8703	1740.9273	1838.9837	2862.7077	2874.0368	2934.1333	2941.8341	2998.1037	3013.7222	3061.4133	3064.4671	3106.7079	3156.4327	3180.0992
CN1CC=CCC1C=O	CN1CC=CC[C@H]1C=O	
InChI=1S/C7H11NO/c1-8-5-3-2-4-7(8)6-9/h2-3,6-7H,4-5H2,1H3	InChI=1S/C7H11NO/c1-8-5-3-2-4-7(8)6-9/h2-3,6-7H,4-5H2,1H3/t7-/m0/s1
