19
gdb 12385	2.90811	2.06655	1.30711	3.1761	71.76	-0.2217	-0.0113	0.2103	963.4671	0.16692	-365.092195	-365.084332	-365.083388	-365.124301	29.973	
C	-0.0477360461	 1.5396481199	-0.0245781274	-0.40384
C	 0.0610675539	 0.0214482063	 0.0207423042	-0.044836
N	 0.7640124884	-0.4879672788	-1.1640342277	-0.301301
C	 0.8388880861	-1.944961485	-1.2173508354	-0.153828
C	 1.7046913502	-2.4408581883	-0.0590296476	-0.184649
C	 1.1311062156	-1.9555664545	 1.284094929	-0.299392
C	 0.8089989176	-0.4687103142	 1.2712936875	 0.414844
O	 1.0816238853	 0.2660708356	 2.1908017539	-0.309559
H	 0.9454108683	 1.9884463646	-0.1050244786	 0.133694
H	-0.6458455056	 1.856230242	-0.8857177423	 0.10173
H	-0.5197694804	 1.9162731276	 0.8845317998	 0.133727
H	-0.9600065378	-0.4126774285	 0.1025003028	 0.066306
H	 0.3127686612	-0.1258203787	-1.9972617901	 0.219089
H	-0.1576437962	-2.426961946	-1.1604567765	 0.074884
H	 1.283765119	-2.2338921052	-2.1749474092	 0.10132
H	 1.7669950885	-3.5340131077	-0.0679098822	 0.098528
H	 2.7197798745	-2.0498440262	-0.1874273713	 0.116382
H	 0.182516097	-2.4792185746	 1.4759514908	 0.117339
H	 1.7956493404	-2.1618820386	 2.1264012301	 0.119565
82.6573	150.9032	188.3417	279.7058	323.2218	342.4656	402.42	430.0803	508.453	567.5459	653.7297	724.7175	784.3262	847.3466	869.4265	907.4538	968.5152	1005.666	1024.1162	1067.9174	1115.5791	1142.5246	1151.9318	1175.6226	1186.4132	1252.7383	1286.1048	1314.7194	1337.3095	1358.9335	1373.494	1407.1508	1407.9547	1463.8733	1472.8799	1485.3741	1491.7713	1498.0855	1505.6357	1820.5058	2852.9649	2902.3961	3007.5167	3042.0758	3044.0551	3070.2749	3087.7178	3105.6416	3116.2793	3142.686	3520.0222
CC1NCCCC1=O	C[C@H]1NCCCC1=O	
InChI=1S/C6H11NO/c1-5-6(8)3-2-4-7-5/h5,7H,2-4H2,1H3	InChI=1S/C6H11NO/c1-5-6(8)3-2-4-7-5/h5,7H,2-4H2,1H3/t5-/m1/s1
