16
gdb 18830	4.35986	2.13699	1.77889	1.3618	69.02	-0.2183	0.0084	0.2267	776.815	0.13134	-346.561421	-346.555136	-346.554192	-346.591509	25.391	
C	-0.0068540115	 1.5004940551	 0.0726536177	-0.50284
C	-0.1005608388	 0.0117568646	-0.0083458511	 0.318023
C	-0.0440755637	-0.7846771897	-1.0890082308	-0.162616
C	-0.0367963693	-2.2088656366	-0.6778068647	-0.130411
C	 0.9108964783	-2.5662724128	 0.530273802	 0.101704
O	 1.3795631669	-1.4157702043	 1.1937159696	-0.296801
C	-0.020586368	-0.8923709249	 1.2029351914	-0.017619
C	-0.531813627	-2.2893345784	 0.749217366	-0.158033
H	 0.9162737327	 1.8132814704	 0.5769662605	 0.136599
H	-0.0151917523	 1.9542272533	-0.9222482276	 0.124289
H	-0.8394230736	 1.9271101428	 0.6467276218	 0.121092
H	 0.0877244386	-0.453025751	-2.112320537	 0.095425
H	-0.25227364	-3.0169717913	-1.3664868053	 0.086355
H	 1.5293271841	-3.4552766151	 0.5528566028	 0.109923
H	-0.2701120639	-0.4896021602	 2.1841711273	 0.077224
H	-1.3615376125	-2.8738925718	 1.1249730673	 0.097687
168.231	184.0663	293.9583	418.6206	487.6774	574.7006	614.5066	685.7049	773.5316	791.2339	800.6066	841.135	861.5684	865.6592	910.774	958.8243	980.1645	1019.4271	1038.4626	1051.9048	1063.6143	1076.5166	1114.039	1183.4834	1217.0551	1236.9911	1263.3615	1317.34	1338.8269	1374.7296	1412.9445	1479.8667	1490.2749	1680.1222	3015.3855	3061.0597	3108.6507	3121.7459	3185.361	3185.938	3198.4243	3204.8999
CC1=CC2C3OC1C23	CC1=C[C@H]2[C@H]3O[C@@H]1[C@@H]23	
InChI=1S/C7H8O/c1-3-2-4-5-6(3)8-7(4)5/h2,4-7H,1H3	InChI=1S/C7H8O/c1-3-2-4-5-6(3)8-7(4)5/h2,4-7H,1H3/t4-,5-,6+,7-/m1/s1
