21
gdb 41629	2.65811	1.78866	1.48981	1.6855	80.09	-0.2427	0.0701	0.3128	987.3612	0.186348	-387.072219	-387.065197	-387.064253	-387.103524	29.175	
C	 0.4714143969	 1.6228223584	-0.4023287115	-0.235842
C	 1.4521872216	 1.531036376	 0.7984489006	-0.231692
C	 1.3175552313	-0.0181498818	 0.7699671118	-0.028721
C	 0.0432766904	 0.1485127286	-0.1296423529	 0.012377
C	 0.1087556699	-0.8860997065	-1.2584886309	-0.255349
C	 1.5794367956	-1.2800672574	-1.3696983976	 0.133175
O	 2.3740385598	-0.3651038816	-2.1678111994	-0.294512
C	 3.2627053141	-0.1153794256	-1.0589840467	-0.086293
C	 2.3244215395	-0.8417648303	-0.0726123849	-0.088744
H	-0.3118552227	 2.3826306592	-0.3440414236	 0.090528
H	 0.9856932219	 1.7242679659	-1.3607862739	 0.121963
H	 2.4487419442	 1.9642143564	 0.6810549851	 0.094707
H	 1.0149074154	 1.9411795225	 1.7129594385	 0.097206
H	 1.1764105243	-0.4909030383	 1.744858212	 0.061924
H	-0.8962318611	 0.0993137364	 0.4261550196	 0.064316
H	-0.4798775412	-1.7740873413	-0.9964255481	 0.093736
H	-0.2692070023	-0.5123790905	-2.2160316269	 0.11193
H	 1.7282098148	-2.3130026853	-1.7079208306	 0.067358
H	 4.2280705298	-0.6213009699	-1.196166619	 0.094885
H	 3.4449409123	 0.9536690123	-0.9102632909	 0.105256
H	 2.8026581754	-1.6241333673	 0.5179768393	 0.071788
117.5812	156.3714	306.2971	327.3145	365.1567	444.2218	583.667	654.6961	711.0147	741.2305	782.9754	799.6146	850.6843	869.1093	898.9538	910.6908	950.4731	957.1552	975.5614	1002.2985	1027.9576	1034.6793	1067.403	1097.2168	1104.6098	1129.7697	1174.8145	1180.3451	1197.2134	1217.6716	1235.4377	1259.8411	1261.9883	1271.9118	1280.3728	1309.0902	1325.9877	1337.2639	1356.4715	1368.4177	1373.6068	1465.6982	1485.7168	1500.8915	1532.2393	3006.8432	3019.5673	3036.3732	3053.9745	3061.843	3063.8756	3071.6124	3077.2225	3083.1416	3098.2436	3100.7306	3122.0625
C1CC2C1CC1OCC21	C1C[C@H]2[C@@H]1C[C@H]1OC[C@@H]21	
InChI=1S/C8H12O/c1-2-6-5(1)3-8-7(6)4-9-8/h5-8H,1-4H2	InChI=1S/C8H12O/c1-2-6-5(1)3-8-7(6)4-9-8/h5-8H,1-4H2/t5-,6-,7-,8+/m0/s1
