18
gdb 97367	2.33085	1.06506	0.93491	3.5702	71.77	-0.2359	0.0194	0.2553	1334.9596	0.148373	-472.441662	-472.432118	-472.431174	-472.476834	34.639	
N	 0.347269513	 0.8291749763	-0.6193524526	-0.500675
C	-0.0225151781	-0.3404624069	-0.0125858822	 0.115176
N	-1.2231289917	-0.5945912302	 0.3251184028	-0.246803
H	-3.4170924462	-0.9859322214	-0.3259797542	 0.252285
C	-1.4727199195	-1.8503795494	 1.0053098548	-0.156229
C	-2.4467131293	-2.6956291007	 0.1654891832	-0.131066
N	-3.6591110585	-1.9726961496	-0.2518092599	-0.537854
C	-1.72860516	-3.2428290532	-1.0896353672	 0.443484
O	-0.6017313948	-3.6672536347	-1.0713357187	-0.35737
O	-2.4884012971	-3.2200927605	-2.1878166047	-0.369728
H	 1.1982576396	 0.825113426	-1.1571805972	 0.261685
H	-0.4030493341	 1.3877697858	-0.998602263	 0.256324
H	 0.8191020685	-1.0127735431	 0.1966155415	 0.10953
H	-0.5629952148	-2.4419325482	 1.1794247062	 0.114368
H	-1.9401728773	-1.6460667822	 1.9778582963	 0.091239
H	-2.7434912046	-3.5781254535	 0.7447471337	 0.10921
H	-3.3225995611	-2.7838436021	-1.892401214	 0.305149
H	-4.396147794	-2.0594140323	 0.4382908952	 0.241276
54.9837	66.4204	105.9759	175.235	226.7176	303.4552	333.63	355.5853	375.4627	426.0075	512.173	533.517	575.557	597.5223	611.8131	772.5336	817.5068	883.0144	912.2423	959.7761	983.9766	1013.2917	1063.785	1114.0363	1162.6663	1195.0545	1227.5816	1254.6122	1298.5865	1312.5009	1371.1445	1395.5445	1418.3168	1444.7185	1488.6072	1628.7202	1647.2922	1759.431	1859.4695	2998.0905	3042.0194	3047.6225	3048.8552	3408.5466	3478.2552	3580.9397	3581.2384	3704.3399
NC=[NH+]CC(N)C([O-])=O	NC=NC[C@@H](N)C(=O)O	
InChI=1S/C4H9N3O2/c5-2-7-1-3(6)4(8)9/h2-3H,1,6H2,(H2,5,7)(H,8,9)	InChI=1S/C4H9N3O2/c5-2-7-1-3(6)4(8)9/h2-3H,1,6H2,(H2,5,7)(H,8,9)/t3-/m1/s1
