15
gdb 44020	4.62338	1.61185	1.40607	4.2995	68.4	-0.2704	-0.0071	0.2633	888.3407	0.114334	-420.559532	-420.553721	-420.552777	-420.589526	24.432	
O	-0.0957291276	 0.0190666635	-0.0232157121	-0.316884
C	 0.0422928794	 1.2000518473	-0.0233308248	 0.422566
O	-1.0423378188	 2.0973724871	-0.1052239507	-0.319116
C	-0.3228072937	 3.317324325	-0.0657327877	 0.435986
C	-0.3960210856	 4.8446726077	-0.0832400428	-0.332565
C	 1.1402125436	 4.4588943827	 0.0254812062	-0.126727
C	 0.8276628219	 3.2603424164	 0.9666728567	-0.063877
C	 1.3076811919	 2.0932997933	 0.0563114929	-0.254342
C	 0.9580005923	 3.2448521685	-0.9300036709	-0.063875
H	-0.7152176604	 5.3202611109	-1.0142154015	 0.117506
H	-0.8390305359	 5.334976684	 0.7874670362	 0.117505
H	 1.9815556883	 5.1452481591	 0.0776921563	 0.097978
H	 0.7052340142	 3.2733106675	 2.0491399163	 0.095245
H	 2.2563535904	 1.565628833	 0.1258106046	 0.095355
H	 0.9847992202	 3.240082524	-2.0191091986	 0.095245
164.2671	355.8817	392.5715	458.1435	511.8873	631.9544	696.4459	738.6689	786.4162	808.7308	808.829	828.7489	864.6901	899.4589	907.0521	928.0325	970.9077	986.7203	1037.5548	1055.3218	1116.8783	1127.6041	1130.8045	1131.95	1185.2245	1186.3348	1206.9109	1216.1744	1281.1303	1295.8698	1311.0823	1508.7104	1918.0776	3059.8601	3123.7353	3124.8233	3126.4205	3148.2354	3154.5518
O=C1OC23CC4C2C1C34	O=C1O[C@@]23C[C@H]4[C@@H]2[C@@H]1[C@@H]34	
InChI=1S/C7H6O2/c8-6-3-4-2-1-7(4,9-6)5(2)3/h2-5H,1H2	InChI=1S/C7H6O2/c8-6-3-4-2-1-7(4,9-6)5(2)3/h2-5H,1H2/t2-,3+,4+,5-,7-
