21
gdb 6746	5.71841	0.77991	0.73257	2.7115	80.48	-0.2468	0.0232	0.2701	1623.2417	0.185914	-366.265115	-366.254779	-366.253834	-366.301283	35.572	
C	-0.0231561104	 1.4394041091	 0.0753652614	-0.248482
O	 0.065851013	 0.0269747008	-0.0601272713	-0.193099
C	-1.107651189	-0.636085975	-0.0229980054	 0.130307
N	-1.1475602023	-1.8825673903	-0.1830436707	-0.212078
C	-2.4412131015	-2.5339914474	-0.1111330824	-0.146454
C	-2.7309571179	-3.3716069887	-1.3700785469	 0.054647
C	-4.0030408356	-4.2044142799	-1.1719218368	-0.390483
C	-2.8255240805	-2.4932038154	-2.6223918668	-0.385603
H	 1.0016161595	 1.8124043765	 0.0884264207	 0.146094
H	-0.5581992295	 1.891745599	-0.7687370858	 0.126871
H	-0.5195977235	 1.7246932092	 1.0111402435	 0.12592
H	-1.9862957931	 0.0028019091	 0.1637837449	 0.070763
H	-2.4322556755	-3.206569236	 0.7570697324	 0.10033
H	-3.2679998611	-1.8157541039	 0.0471971171	 0.071818
H	-1.8812835381	-4.0551051431	-1.4955501932	 0.086181
H	-4.8783792594	-3.5603096197	-1.0230287566	 0.108956
H	-4.202147095	-4.8323195183	-2.0462101756	 0.111166
H	-3.9211805073	-4.8613497347	-0.299226791	 0.109531
H	-2.9904467141	-3.1008963882	-3.518130731	 0.108344
H	-3.6622415639	-1.787109023	-2.5429419977	 0.10089
H	-1.9086030649	-1.91606859	-2.7688498887	 0.12438
44.586	65.7054	76.2903	146.1954	177.4555	223.7363	237.5607	271.9845	300.6044	322.0695	424.0647	430.0819	462.1026	624.1336	824.2473	915.9005	927.7426	950.0038	968.6541	994.0327	1039.7329	1075.7043	1146.0501	1176.7627	1177.9679	1179.8086	1194.3049	1270.3127	1280.178	1323.3372	1371.3771	1380.692	1398.0433	1410.6052	1423.3581	1484.6901	1486.0191	1490.0332	1494.8726	1497.1429	1501.6076	1504.3213	1513.2435	1774.1834	2923.7356	2981.2882	3013.6936	3018.5713	3021.0686	3026.5797	3031.397	3074.5501	3085.0963	3091.2041	3099.8217	3114.359	3143.8813
COC=NCC(C)C	COC=NCC(C)C	
InChI=1S/C6H13NO/c1-6(2)4-7-5-8-3/h5-6H,4H2,1-3H3	InChI=1S/C6H13NO/c1-6(2)4-7-5-8-3/h5-6H,4H2,1-3H3
