18
gdb 10654	2.70593	1.65399	1.28783	3.875	69.32	-0.2487	-0.0187	0.2299	1014.2741	0.151328	-384.937885	-384.928925	-384.927981	-384.971226	32.511	
C	 0.2415436872	 1.4638693463	 0.3460890112	-0.385011
C	-0.2460087068	 0.0989191461	-0.1541741173	-0.260654
C	 0.583508449	-0.453067964	-1.2994188653	 0.228189
C	 1.990860265	-1.0003008822	-1.0233933477	-0.370221
C	 0.8935273945	-1.9473822559	-1.3714481352	 0.055519
O	 0.3053446544	-2.7473342457	-0.3937781526	-0.412991
C	 0.4019555218	 0.1910715762	-2.6258799725	 0.122479
O	-0.3534358967	 1.1035153872	-2.8555481374	-0.26806
H	 1.2751495171	 1.4113951331	 0.7056379597	 0.105908
H	 0.1951327895	 2.2100224728	-0.4510015443	 0.138555
H	-0.3815896487	 1.814596359	 1.174485042	 0.111711
H	-0.2463247882	-0.63068949	 0.659550454	 0.111922
H	-1.2814059556	 0.1889081511	-0.4999530748	 0.115954
H	 2.7766682004	-0.814273338	-1.7486709343	 0.121824
H	 2.3032360838	-0.958528238	 0.014480886	 0.129974
H	 0.9100730626	-2.3894076034	-2.3682429064	 0.097948
H	 0.9468942765	-3.414869473	-0.1291417371	 0.29475
H	 1.0326123642	-0.2451294115	-3.438016828	 0.062205
93.4745	108.9075	180.4688	211.1183	233.0363	237.9809	272.0531	309.2165	393.9256	452.1112	519.7878	587.9046	736.9309	784.2898	795.8526	874.4899	922.5976	975.9867	1021.6166	1030.6208	1055.8698	1079.7651	1104.4297	1130.0469	1185.9688	1253.0464	1282.8887	1318.3416	1341.1757	1373.0359	1407.5298	1421.0957	1445.504	1475.273	1485.4091	1496.9721	1512.2068	1814.1914	2836.8077	3036.0892	3052.7426	3092.2072	3094.7864	3103.6772	3126.8681	3128.2946	3220.1748	3808.6115	93.4746	108.908	180.4689	211.1185	233.0373	237.9821	272.0534	309.2165	393.9256	452.1112	519.7878	587.9047	736.9309	784.2897	795.8526	874.4899	922.5977	975.9867	1021.6166	1030.6208	1055.8699	1079.7652	1104.4296	1130.047	1185.969	1253.0465	1282.8887	1318.3416	1341.1757	1373.0358	1407.5298	1421.0959	1445.5039	1475.2731	1485.409	1496.9719	1512.2067	1814.1915	2836.8077	3036.0892	3052.7426	3092.2072	3094.7863	3103.6772	3126.8681	3128.2946	3220.1748	3808.6119
CCC1(CC1O)C=O	CC[C@]1(C[C@H]1O)C=O	
InChI=1S/C6H10O2/c1-2-6(4-7)3-5(6)8/h4-5,8H,2-3H2,1H3	InChI=1S/C6H10O2/c1-2-6(4-7)3-5(6)8/h4-5,8H,2-3H2,1H3/t5-,6+/m1/s1
