19
gdb 53002	4.1314	0.91426	0.84664	0.2945	91.97	-0.2149	0.0186	0.2335	1450.872	0.159211	-348.733522	-348.724743	-348.723799	-348.76802	32.76	
C	-0.0088767692	 1.49326699	-0.024673195	-0.505248
C	-0.011258456	 0.037592708	-0.01032435	 0.198861
C	-0.0167368541	-1.167899188	 0.0020985501	-0.15649
C	 0.0011070275	-2.6004977592	 0.0238014588	 0.196042
C	-0.473302563	-3.397501284	-1.193228683	-0.312914
C	-1.2667256633	-3.4732406567	 0.0768110062	-0.087725
C	-0.9914238938	-4.6262210319	 1.0394693034	-0.278095
C	 0.4690192104	-4.4498798201	 1.4010604752	-0.08246
C	 0.9896856812	-3.3400875768	 0.8765807193	-0.153777
H	 0.7500366722	 1.8932413772	 0.6572277378	 0.146966
H	 0.2069305934	 1.8869316935	-1.0245550795	 0.144391
H	-0.9775482957	 1.8991007914	 0.2888994579	 0.144997
H	-0.9039462668	-2.8265248	-2.0083958697	 0.118452
H	 0.1337070033	-4.2460433529	-1.4924779266	 0.113965
H	-2.2372508636	-2.9931701626	 0.0923666391	 0.097243
H	-1.631993699	-4.5690079691	 1.929629443	 0.110581
H	-1.1884971302	-5.6036588624	 0.5799137608	 0.110626
H	 1.0106734349	-5.1699739577	 2.0037567853	 0.095101
H	 2.0062780718	-2.9877828988	 1.0033227069	 0.099485
31.8675	91.231	98.4032	242.9037	275.5376	305.7814	369.7729	425.2882	475.662	516.4159	551.3735	701.9889	746.4268	757.2841	811.1442	880.2299	910.8561	926.93	945.224	963.9954	1002.5353	1027.2	1052.7051	1054.7572	1069.9662	1082.9251	1096.8831	1135.2659	1189.4104	1236.6836	1291.1678	1324.305	1338.95	1403.4659	1417.6911	1470.2602	1477.7545	1480.404	1482.1693	1671.6619	2365.1794	3014.9048	3022.4752	3041.8859	3080.0387	3083.4448	3125.6246	3189.1089	3190.5753	3216.9625	3220.6932
CC#CC12CC1CC=C2	CC#C[C@]12C[C@H]1CC=C2	
InChI=1S/C9H10/c1-2-5-9-6-3-4-8(9)7-9/h3,6,8H,4,7H2,1H3	InChI=1S/C9H10/c1-2-5-9-6-3-4-8(9)7-9/h3,6,8H,4,7H2,1H3/t8-,9+/m1/s1
