17
gdb 65327	3.87409	1.04822	0.93807	5.0381	73.79	-0.2737	0.0127	0.2864	1246.3532	0.135185	-417.973172	-417.964407	-417.963463	-418.006778	31.906	
C	-0.0202384519	 1.782560673	 0.2641777573	-0.458846
C	-0.0858682921	 0.2867001297	 0.0562852853	 0.274484
N	 0.8772932903	-0.291243644	-0.8767639025	-0.35155
C	 1.0018247229	-0.6183402127	 0.5631082883	-0.230187
C	 2.1569714817	-0.1061596246	 1.2575366023	 0.331027
N	 3.0646323512	 0.3049331214	 1.8441397304	-0.336986
C	-1.4747065112	-0.2966668601	 0.0755912303	 0.000282
C	-2.2348080022	-0.5051648947	-1.1638991265	-0.178613
O	-1.6132350208	-1.603204182	-0.4794155126	-0.236994
H	 1.0158148013	 2.1247981766	 0.2791557147	 0.158816
H	-0.5433147591	 2.2998700393	-0.5464510936	 0.129094
H	-0.4918245275	 2.0650653805	 1.2113178636	 0.12935
H	 0.4566806001	-1.10420352	-1.3282105818	 0.252317
H	 0.6983440511	-1.613199576	 0.8770889878	 0.143198
H	-2.0318620528	-0.1342035356	 0.9988775248	 0.112191
H	-3.3222145415	-0.5019504335	-1.1387242452	 0.132015
H	-1.7850281095	-0.2411586373	-2.1192550328	 0.130403
89.2622	123.1979	139.5076	177.1263	222.7347	266.6193	318.489	369.7429	440.6494	515.1852	572.2814	634.9471	695.4879	830.4352	848.0813	886.5443	916.2494	959.0132	980.2135	1013.4827	1064.2739	1092.6702	1107.8598	1135.1065	1163.286	1174.7033	1240.1701	1273.7481	1288.0191	1338.8703	1420.9684	1430.1531	1436.0658	1485.2276	1496.352	1527.8509	2358.5221	3041.656	3096.6225	3105.0827	3109.9407	3141.5504	3154.7447	3188.9271	3467.6626
CC1(NC1C#N)C1CO1	C[C@]1(N[C@H]1C#N)[C@H]1CO1	
InChI=1S/C6H8N2O/c1-6(5-3-9-5)4(2-7)8-6/h4-5,8H,3H2,1H3	InChI=1S/C6H8N2O/c1-6(5-3-9-5)4(2-7)8-6/h4-5,8H,3H2,1H3/t4-,5+,6+/m0/s1
