19
gdb 73199	2.38139	1.46208	1.32306	1.6338	75.06	-0.2433	-0.0256	0.2177	1076.0867	0.157916	-423.0072	-422.998538	-422.997594	-423.04083	32.617	
O	 0.0414241065	 1.0707914065	-0.348860592	-0.486511
C	-0.1747521611	-0.2735820418	-0.0386936459	 0.411586
C	-0.1551932686	-1.2847297144	-1.2289367655	-0.295454
C	-1.6508043694	-1.6355109523	-0.9523109715	-0.223837
C	-1.6085321804	-0.7817537934	 0.3342854487	-0.054255
C	-1.004069284	-1.5121020912	 1.5738236753	-0.275418
C	 0.3639590097	-0.7961101225	 1.3160810897	-0.142076
C	 1.6447494386	-1.5749667078	 1.376098824	 0.13381
O	 2.5019880264	-1.537238688	 0.5260043193	-0.256276
H	 0.9394643594	 1.1510811509	-0.6915623659	 0.284113
H	 0.0156053832	-0.7850057233	-2.1848329367	 0.106195
H	 0.5581406983	-2.1044387296	-1.1350537107	 0.112867
H	-2.3229710353	-1.2258212314	-1.710108322	 0.107087
H	-1.8902497086	-2.6939186399	-0.8171708697	 0.096838
H	-2.4290459324	-0.0951641592	 0.5418621486	 0.076235
H	-1.4705052564	-1.2799671432	 2.5322568576	 0.112303
H	-0.9676919185	-2.6001742077	 1.4640248883	 0.105078
H	 0.4644910914	 0.053788816	 2.004066337	 0.111596
H	 1.769646061	-2.2142068876	 2.2820084713	 0.076118
65.9296	88.7198	152.6826	206.8738	266.4886	307.7198	364.4987	409.2617	423.5548	561.5795	606.6083	694.3443	743.6828	757.0795	829.6222	878.0011	897.9015	925.5402	953.6549	989.2284	1009.759	1036.0081	1049.4197	1116.306	1134.6789	1164.8749	1180.117	1193.0977	1216.7255	1244.0568	1262.3626	1265.6587	1286.2746	1299.552	1338.5334	1371.7945	1418.627	1474.2726	1484.5173	1500.6527	1809.685	2852.0153	3029.6208	3056.4524	3058.2445	3077.3385	3102.5178	3110.4731	3123.5218	3137.5403	3789.4968
OC12CCC1CC2C=O	O[C@]12CC[C@H]1C[C@H]2C=O	
InChI=1S/C7H10O2/c8-4-6-3-5-1-2-7(5,6)9/h4-6,9H,1-3H2	InChI=1S/C7H10O2/c8-4-6-3-5-1-2-7(5,6)9/h4-6,9H,1-3H2/t5-,6-,7+/m0/s1
