21
gdb 83331	2.0897	1.664	1.49129	1.9892	77.72	-0.2461	0.0741	0.3202	1051.1968	0.18284	-424.218335	-424.209479	-424.208535	-424.250903	35.16	
C	 0.0221943502	 1.5075021763	 0.073084265	-0.511755
C	 0.0365542661	-0.0021626095	 0.0580481759	 0.306631
C	 0.45882021	-0.7277784395	-1.2379355104	-0.256225
C	 0.3097950744	-2.2172021101	-0.7765530208	-0.219294
C	-0.1610187586	-1.9777722241	 0.6676450173	-0.139258
C	 0.7920323878	-0.8336505781	 1.1343821491	 0.110668
O	 2.1820669637	-0.9494959169	 0.9373040682	-0.445809
C	-1.2120078126	-0.8439273417	 0.4611215365	 0.106003
O	-1.819112142	-0.3320765082	 1.6302090578	-0.450301
H	 1.0384706027	 1.9038934174	-0.0273940297	 0.121073
H	-0.5748417018	 1.907713092	-0.7544907759	 0.109651
H	-0.4035737563	 1.8839970549	 1.0077800411	 0.127479
H	-0.2006330986	-0.4731239432	-2.0734521351	 0.08804
H	 1.4838396054	-0.4808670934	-1.5210142909	 0.112549
H	-0.4254792501	-2.7733461039	-1.3656041775	 0.088189
H	 1.2592316481	-2.7548117303	-0.8127056422	 0.104055
H	-0.3774874639	-2.8488207518	 1.2899875277	 0.045148
H	 0.5512771034	-0.4896344612	 2.1431170105	 0.079548
H	 2.5639413767	-1.3837061398	 1.7054573295	 0.283217
H	-1.9551718067	-1.0137380637	-0.3310527572	 0.057491
H	-2.4205283278	-1.0012835753	 1.9709748813	 0.2829
192.6601	201.2629	210.3857	234.8353	251.785	269.052	279.9797	290.5926	368.0747	434.4803	505.3992	609.7462	631.2142	723.2076	794.2445	821.6633	847.2307	889.8414	917.8736	927.9254	956.2982	992.9537	1008.8556	1075.5709	1108.4297	1130.3073	1145.6821	1155.9807	1179.7085	1188.6989	1245.1933	1252.8374	1258.7327	1264.0304	1289.2643	1304.7588	1323.7016	1355.8066	1406.4223	1414.0672	1445.4066	1481.1953	1491.3273	1497.0965	1506.8875	2994.9436	3027.9961	3051.1804	3061.072	3078.7619	3090.0131	3092.31	3102.8772	3108.3512	3119.421	3819.6582	3830.4355
CC12CCC(C1O)C2O	C[C@@]12CC[C@@H]([C@H]1O)[C@H]2O	
InChI=1S/C7H12O2/c1-7-3-2-4(5(7)8)6(7)9/h4-6,8-9H,2-3H2,1H3	InChI=1S/C7H12O2/c1-7-3-2-4(5(7)8)6(7)9/h4-6,8-9H,2-3H2,1H3/t4-,5-,6-,7+/m1/s1
