20
gdb 96472	2.29018	1.85108	1.32484	0.9324	74.82	-0.2224	0.0815	0.3039	1025.0814	0.173254	-440.248704	-440.240966	-440.240021	-440.280441	31.41	
O	 0.1448244533	 1.3876904368	-0.12369244	-0.438008
C	 0.0264398871	-0.0227592924	-0.0556713654	 0.093921
C	 0.8130300748	-0.5424529356	 1.1623141989	-0.119474
O	 0.5539116508	 0.2514953009	 2.3111810103	-0.260413
C	-0.7153278524	 0.0567986037	 2.9322986289	-0.073566
C	-1.8881761127	 0.6622608379	 2.1605486582	-0.165878
N	-2.3361089774	-0.2080350862	 1.0736575675	-0.096674
C	-2.5767450709	 0.3778706611	-0.2451851269	-0.258461
C	-1.4154933402	-0.5206840532	-0.0213694698	-0.014375
H	 0.3783725123	 1.6768453441	 0.7690712449	 0.289986
H	 0.4851349464	-0.4382214209	-0.9644545768	 0.082304
H	 0.581014465	-1.6008819086	 1.3514316186	 0.10151
H	 1.8880283298	-0.4455446389	 0.981125164	 0.114803
H	-0.8952882532	-1.0159882962	 3.0961578094	 0.105959
H	-0.6306384977	 0.5450388379	 3.9079585498	 0.111716
H	-2.7322065403	 0.7821857541	 2.8522681021	 0.105302
H	-1.6041062386	 1.6709035238	 1.8245851157	 0.096998
H	-3.4615434197	 0.0255431067	-0.7693472522	 0.110468
H	-2.3406271533	 1.4309570365	-0.378926298	 0.128488
H	-1.4926929631	-1.5586640314	-0.348705879	 0.085393
153.2803	196.0413	235.979	290.8407	323.98	384.0769	405.7216	458.2516	484.6392	516.1486	612.1974	709.4664	731.588	794.7158	837.8214	893.1004	932.7097	986.8812	997.4252	1006.2493	1052.1949	1058.8816	1094.2938	1118.5815	1131.4504	1146.9004	1164.3899	1179.2192	1237.4372	1255.1741	1294.8152	1321.145	1342.77	1374.4816	1383.0975	1392.3865	1405.4359	1408.235	1431.9704	1478.2434	1488.7577	1493.8561	1512.0791	2990.3304	2998.9755	3003.3157	3008.4462	3038.5802	3083.6323	3087.3256	3090.2862	3101.0997	3189.8354	3741.1433
OC1COCCN2CC12	O[C@H]1COCCN2C[C@@H]12	
InChI=1S/C6H11NO2/c8-6-4-9-2-1-7-3-5(6)7/h5-6,8H,1-4H2	InChI=1S/C6H11NO2/c8-6-4-9-2-1-7-3-5(6)7/h5-6,8H,1-4H2/t5-,6-,7?/m0/s1
