13
gdb 130224	3.48229	1.15078	0.88168	3.2101	62.49	-0.2273	-0.0167	0.2106	1203.9669	0.090214	-486.078034	-486.069946	-486.069002	-486.11138	28.406	
N	 0.0507864668	 1.350534708	 0.2631557107	-0.599165
C	 0.0435392309	-0.0162039925	 0.0544665988	 0.268438
N	-1.0436123617	-0.7795835304	 0.147182185	-0.272184
N	-0.5716583376	-2.0160686381	-0.0500580991	-0.09091
N	 0.7273192145	-2.124868326	-0.2837095175	-0.268733
C	 1.1385162889	-0.865885266	-0.213153776	 0.333803
O	 2.4235095761	-0.4636536958	-0.4274350643	-0.229317
C	 3.4317510471	-1.1946561922	 0.1497357825	 0.16349
O	 4.5743614265	-0.9439188417	-0.0596645667	-0.251507
H	 0.7779407395	 1.8344816235	-0.2443368693	 0.265165
H	-0.8542106279	 1.7801089486	 0.1305548926	 0.263308
H	-1.1755195222	-2.8196863373	-0.0349902902	 0.298293
H	 3.0423559289	-1.9969904601	 0.7956931836	 0.119321
61.4269	124.741	159.6909	244.8004	283.9347	298.861	336.4122	438.5708	488.913	536.6586	648.1045	692.2731	725.281	772.1441	889.2524	980.6121	1037.0366	1088.5943	1102.3002	1195.4344	1246.8428	1292.7876	1407.432	1416.5119	1469.6061	1573.6871	1604.7887	1655.1777	1881.9905	3029.9141	3561.6554	3662.4111	3691.4178
NC1=NNN=C1OC=O	Nc1n[nH]nc1OC=O	
InChI=1S/C3H4N4O2/c4-2-3(9-1-8)6-7-5-2/h1H,(H3,4,5,6,7)	InChI=1S/C3H4N4O2/c4-2-3(9-1-8)6-7-5-2/h1H,(H3,4,5,6,7)
