17
gdb 52536	3.77504	0.74581	0.62766	5.6315	82.92	-0.2495	-0.0331	0.2164	1756.0488	0.133532	-418.02811	-418.01754	-418.016595	-418.066588	35.096	
C	-0.1836878471	 1.4378872515	-0.0652431082	-0.503618
C	-0.2055718671	-0.0155084827	-0.0541007454	 0.164969
C	-0.2573490368	-1.21952212	-0.043642927	 0.01491
C	-0.278626334	-2.6582016627	-0.032737892	 0.184773
N	-1.3701936042	-3.3080072262	 0.0131456189	-0.498598
N	 1.0322503772	-3.2004215059	-0.0785538185	-0.379284
C	 1.3742874512	-4.5386403574	-0.0820889217	 0.424858
C	 2.8718243435	-4.7885748694	-0.1370118138	-0.503831
O	 0.5550530847	-5.4356180007	-0.0447660535	-0.343105
H	 0.8410838805	 1.8227497418	-0.09639274	 0.152061
H	-0.7169869869	 1.8299067286	-0.9380808665	 0.162346
H	-0.668109902	 1.8426927155	 0.8299526051	 0.162435
H	-1.1745092078	-4.3105615819	 0.0127771994	 0.255771
H	 1.7803144508	-2.5251329414	-0.1116343989	 0.257457
H	 3.3741076476	-4.3396884293	 0.7263937449	 0.145009
H	 3.0452363834	-5.8639490105	-0.1360546527	 0.158841
H	 3.3071898073	-4.3520510293	-1.04208643	 0.145006
20.3509	38.6896	65.5171	78.4987	113.5853	177.0346	228.7334	305.8054	378.6173	380.4135	401.8536	546.2235	582.9845	593.7109	614.6909	709.8528	804.2075	935.6071	960.1267	994.445	1047.6314	1052.4432	1054.1639	1062.7153	1159.8627	1248.4146	1362.5884	1390.2107	1412.4704	1465.3048	1473.6571	1474.0239	1482.2669	1499.0369	1704.2187	1790.9735	2363.2836	3031.3482	3043.098	3094.9992	3096.374	3106.1467	3166.4481	3474.8176	3626.494
CC#CC(=N)NC(C)=O	CC#CC(=N)NC(=O)C	
InChI=1S/C6H8N2O/c1-3-4-6(7)8-5(2)9/h1-2H3,(H2,7,8,9)	InChI=1S/C6H8N2O/c1-3-4-6(7)8-5(2)9/h1-2H3,(H2,7,8,9)
