19
gdb 31649	3.57945	1.05421	0.83095	0.7473	81.25	-0.1557	0.0669	0.2226	1393.0653	0.158679	-419.223916	-419.213827	-419.212883	-419.259496	35.906	
C	 0.0056454953	 1.4049840042	 0.2266690954	-0.317284
N	-0.0420329312	 0.0607707923	-0.3261674858	-0.384502
C	-1.2212302036	-0.6771766472	-0.1464930614	 0.309393
C	-1.3284157463	-2.047076821	-0.0736670132	-0.235653
N	-2.6844408669	-2.3709633417	 0.0058072985	-0.041097
C	-3.2232989507	-3.7012182692	 0.172077097	-0.339948
C	-3.3981281305	-1.2150191447	 0.0098413193	 0.397983
O	-4.7524990489	-1.2989789374	 0.1124371535	-0.445989
C	-2.5471206168	-0.136101756	-0.0844603285	-0.41004
H	 1.0064622468	 1.8172833905	 0.0719469797	 0.114354
H	-0.6984081479	 2.0536442741	-0.3049795613	 0.126891
H	-0.2336637185	 1.4586045387	 1.3017261927	 0.102866
H	 0.7733986544	-0.4781928196	-0.0692910492	 0.224482
H	-0.5805978781	-2.8222109065	-0.097627221	 0.095468
H	-3.0724552302	-4.0779557334	 1.1914551516	 0.129442
H	-4.2932991345	-3.6812426019	-0.0365339425	 0.154615
H	-2.7405929728	-4.3897080728	-0.5281500395	 0.132048
H	-5.113355725	-0.4143991409	 0.005421874	 0.305761
H	-2.8377779346	 0.9015478524	-0.1199775693	 0.08121
46.2465	71.9459	121.855	162.0001	200.1885	205.5438	245.31	288.3893	337.3715	378.2357	517.2961	540.43	563.688	646.6282	650.8924	657.7986	702.0555	713.1199	831.3036	985.7972	1059.2947	1080.7806	1137.0949	1148.5387	1154.7973	1158.8313	1207.4176	1225.8241	1295.736	1359.1555	1410.3277	1454.2454	1460.2181	1484.2451	1487.8906	1492.3444	1513.4091	1519.2564	1576.4525	1587.9161	1636.2146	2964.5583	3021.6072	3063.0554	3083.8465	3107.9514	3150.2229	3251.6513	3263.6268	3575.1229	3854.3391
CNC1=CN(C)C(O)=C1	CNc1cn(C)c(O)c1	
InChI=1S/C6H10N2O/c1-7-5-3-6(9)8(2)4-5/h3-4,7,9H,1-2H3	InChI=1S/C6H10N2O/c1-7-5-3-6(9)8(2)4-5/h3-4,7,9H,1-2H3
