19
gdb 108965	3.80351	1.25701	1.15095	1.3703	80.58	-0.2183	0.0068	0.2251	1143.4079	0.159855	-385.849112	-385.841468	-385.840524	-385.881546	30.254	
C	 0.0856139752	 1.5325517571	 0.2448012	-0.373116
C	-0.0512556316	 0.0379405454	-0.0948030267	-0.301444
C	-1.4714875761	-0.437227586	-0.1159575761	 0.338816
C	-2.1547752434	-1.0152826516	-1.1186530599	-0.188868
C	-3.4938750929	-1.4438389835	-0.6511054877	-0.129769
C	-3.5275997323	-2.1645587603	 0.7512029096	 0.102502
O	-2.3110455988	-2.0285725525	 1.4456379704	-0.297575
C	-2.330891151	-0.5676081223	 1.124316642	-0.024881
C	-3.8007232549	-0.7096475565	 0.6350416066	-0.159166
H	 1.1377584412	 1.8330530556	 0.2659009177	 0.113088
H	-0.4315482104	 2.1503364399	-0.4957994862	 0.119766
H	-0.3433770323	 1.7610749662	 1.2262439622	 0.115737
H	 0.4101112629	-0.1603380054	-1.0687045749	 0.102408
H	 0.5177968949	-0.5478089988	 0.6403902849	 0.113784
H	-1.7585934727	-1.2458769588	-2.1008856402	 0.096154
H	-4.2983178686	-1.6938352809	-1.3323617316	 0.086352
H	-4.1324909158	-3.0413184816	 0.9483759683	 0.109994
H	-2.0865944154	 0.0170342299	 2.0102778047	 0.078545
H	-4.6589691982	-0.0849978457	 0.8470077468	 0.097673
63.3695	127.1399	195.7685	263.4433	350.0266	424.3503	537.9393	564.1791	636.0937	684.2894	766.2471	784.7672	790.3904	804.422	840.8419	860.4303	872.9513	908.5593	943.5535	977.9261	996.6935	1035.651	1051.0593	1063.6972	1076.3304	1086.0826	1115.7112	1184.5332	1217.0038	1235.6787	1253.1378	1280.8598	1320.237	1347.1028	1356.165	1375.3804	1405.5777	1478.4255	1497.8628	1505.3803	1673.4024	3012.035	3034.0179	3060.7534	3102.2602	3109.8849	3125.8336	3184.3081	3185.6934	3196.9594	3203.9565
CCC1=CC2C3OC1C23	CCC1=C[C@H]2[C@H]3O[C@@H]1[C@@H]23	
InChI=1S/C8H10O/c1-2-4-3-5-6-7(4)9-8(5)6/h3,5-8H,2H2,1H3	InChI=1S/C8H10O/c1-2-4-3-5-6-7(4)9-8(5)6/h3,5-8H,2H2,1H3/t5-,6-,7+,8-/m1/s1
