18
gdb 54163	3.13062	1.10234	0.97199	3.4914	80.31	-0.2442	0.0144	0.2586	1256.8247	0.14529	-401.946736	-401.93685	-401.935906	-401.981547	36.428	
C	 0.0907859592	 1.5246212827	-0.2262604513	-0.502854
C	 0.1012991659	 0.0129336873	-0.1366681414	 0.200788
C	 1.4250419989	-0.7158068089	-0.2037889676	-0.310946
C	 0.6972350137	-0.6613980248	 1.1162907831	-0.226129
C	 1.1877996307	 0.1305129691	 2.2036043612	 0.31169
C	 1.5939727237	 0.7899486571	 3.1247333988	-0.428257
C	-1.0557799048	-0.7725058059	-0.709843744	 0.376935
N	-2.0508400566	-0.0427143216	-1.2875947232	-0.549275
O	-1.0969584826	-1.9909193409	-0.6590304188	-0.38003
H	 0.9653333459	 1.9447612912	 0.2743700744	 0.141093
H	 0.1098996413	 1.8610216113	-1.2693939191	 0.120463
H	-0.7909593774	 1.9533013771	 0.2640053147	 0.125365
H	 1.429501293	-1.6729802541	-0.7105348264	 0.143387
H	 2.3165939568	-0.1089234055	-0.3108402865	 0.121767
H	 0.1874091991	-1.5800020562	 1.3883122959	 0.139056
H	 1.9556711827	 1.3624252665	 3.9423842572	 0.193833
H	-2.0366022336	 0.9586728426	-1.3448035136	 0.260905
H	-2.8314282059	-0.5442906769	-1.6773945833	 0.262208
60.0087	96.5025	119.4124	141.0814	246.1738	257.8086	294.1126	338.4636	348.006	421.3476	514.3029	528.4958	574.0119	587.7868	605.583	648.4301	693.7299	753.18	820.6116	843.329	923.1872	965.3592	1011.1676	1075.7297	1086.7306	1099.1559	1111.2752	1141.1145	1226.6501	1311.5307	1357.1685	1395.9895	1421.216	1462.0127	1496.3997	1509.2217	1614.7097	1771.4903	2234.2022	3026.1203	3084.4635	3127.0523	3144.6038	3167.311	3244.5946	3504.7543	3615.3471	3754.1054
CC1(CC1C#C)C(N)=O	C[C@]1(C[C@H]1C#C)C(=O)N	
InChI=1S/C7H9NO/c1-3-5-4-7(5,2)6(8)9/h1,5H,4H2,2H3,(H2,8,9)	InChI=1S/C7H9NO/c1-3-5-4-7(5,2)6(8)9/h1,5H,4H2,2H3,(H2,8,9)/t5-,7-/m1/s1
