15
gdb 31436	3.8853	1.12953	0.90155	2.1432	73.18	-0.2427	-0.0614	0.1813	1223.7494	0.113798	-453.97305	-453.965262	-453.964318	-454.005902	28.766	
O	 0.0520433069	 1.4387852499	 0.2916038646	-0.410738
C	 0.0390541563	 0.0646612756	-0.0265535805	-0.140794
C	-1.3673465562	-0.4742197959	-0.1101716958	 0.295471
C	-1.8217578909	-1.3035895396	-1.0698879395	-0.218886
C	-3.1820900948	-1.7935495304	-1.038949583	 0.396862
N	-3.7033122015	-2.5785934476	-1.8814552728	-0.529329
O	-3.941487688	-1.3114658128	 0.0535968043	-0.220828
C	-3.3837197808	-0.4758309703	 0.9420209903	 0.137618
N	-2.1862752063	-0.0384765033	 0.9382621185	-0.345867
H	-0.5804107595	 1.5504171018	 1.0134578549	 0.295738
H	 0.5529068998	-0.0612200296	-0.9836683117	 0.122194
H	 0.5899997965	-0.5274407049	 0.7256879463	 0.10745
H	-1.2036390727	-1.6364464647	-1.8937241849	 0.130325
H	-4.6763285151	-2.7793569011	-1.6515582805	 0.229503
H	-4.0934047037	-0.191182457	 1.71374242	 0.151282
67.5003	138.479	152.7562	243.5504	340.5328	413.9965	429.4488	444.9124	539.7053	573.7008	683.4441	743.6523	779.0464	844.0812	849.3069	899.9049	955.9259	968.211	1008.5626	1065.3639	1083.4829	1146.0101	1195.0952	1223.732	1289.3262	1353.6758	1362.3932	1419.5088	1441.5907	1494.8813	1636.3056	1684.059	1762.272	2948.274	3090.1495	3188.1813	3221.8294	3499.4886	3769.2166
OCC1=CC(=N)OC=N1	OC[C@H]1C=C([NH])OC=N1	
InChI=1S/C5H6N2O2/c6-5-1-4(2-8)7-3-9-5/h1,3,6,8H,2H2	InChI=1S/C5H7N2O2/c6-5-1-4(2-8)7-3-9-5/h1,3-4,6,8H,2H2/t4-/m1/s1
