13
gdb 21568	3.99467	1.8973	1.28729	4.9204	64.83	-0.2243	-0.0444	0.1799	867.8974	0.098371	-394.824816	-394.818241	-394.817297	-394.855319	25.436	
N	 0.0351126941	 1.39393761	 0.15084398	-0.587768
C	-0.030109526	 0.0233793327	 0.0541937864	 0.354321
C	-1.2032225285	-0.6834363177	 0.0333325478	-0.335105
C	-1.2004156628	-2.1236603523	-0.0088083959	 0.439421
O	-2.1626681624	-2.873143734	-0.0294429311	-0.406315
N	 0.1039117935	-2.663591915	-0.0341460028	-0.263915
N	 1.2635185571	-2.0106945004	-0.0207220802	-0.181221
C	 1.2077277685	-0.7142548887	 0.0239977849	-0.037635
H	 0.8817976696	 1.8404961126	-0.1636632897	 0.260898
H	-0.803560603	 1.9108254459	-0.0618959462	 0.262888
H	-2.1712148705	-0.1962080492	 0.050130773	 0.107067
H	 0.1698976177	-3.6719971209	-0.0679903841	 0.27197
H	 2.1614400428	-0.1962988931	 0.0424109579	 0.115394
174.6815	200.8603	332.2363	376.0981	428.4093	475.7434	486.8811	522.2857	564.4066	663.9016	735.5585	739.2694	751.4302	869.9914	872.3638	950.7512	1016.8386	1096.7066	1173.8584	1246.8477	1280.8311	1370.9352	1432.1298	1467.2705	1581.7087	1647.6926	1672.6756	1784.5841	3178.0046	3200.033	3588.3593	3600.7494	3695.8838
NC1=CC(=O)NN=C1	Nc1cc(=O)[nH]nc1	
InChI=1S/C4H5N3O/c5-3-1-4(8)7-6-2-3/h1-2H,(H3,5,7,8)	InChI=1S/C4H5N3O/c5-3-1-4(8)7-6-2-3/h1-2H,(H3,5,7,8)
