16
gdb 72316	2.34322	1.95418	1.57741	4.2696	69.76	-0.2077	-0.0513	0.1565	911.2043	0.123356	-433.906746	-433.898791	-433.897846	-433.938502	31.341	
N	-0.0814556294	 1.3624126554	 0.11318452	-0.597377
C	-0.06624874	-0.0509370357	-0.0918698648	 0.19882
C	 0.8105734964	-0.7743948091	-1.1599075048	-0.228897
N	 0.5281079435	-2.2206816894	-0.8862035662	-0.222974
C	-0.5194663462	-2.1360385756	-0.1797072265	 0.223735
O	-0.4943805947	-2.3762882431	 1.2069378933	-0.269303
C	-0.6580071919	-0.8951041754	 1.2217091651	-0.012524
C	-1.3461505629	-0.80044624	-0.0708782571	 0.205426
N	-2.6117074613	-0.4627562674	-0.6078926558	-0.627669
H	 0.8249118257	 1.6998722387	 0.4225928406	 0.241642
H	-0.3052367007	 1.8532398828	-0.7486190379	 0.239383
H	 0.5714528308	-0.4165525767	-2.1740015595	 0.108564
H	 1.8879557775	-0.6521425335	-1.0021264467	 0.123885
H	-0.7669872136	-0.4402262829	 2.1984302302	 0.130923
H	-3.3572987529	-0.9732813263	-0.1437501607	 0.244534
H	-2.7901825903	 0.5276177982	-0.4670931992	 0.241833
175.5976	193.2917	215.3445	255.0291	293.2457	330.8829	356.718	463.2438	505.2565	562.3757	585.9656	617.476	704.5687	741.9664	796.3346	831.746	852.0741	900.0247	940.2102	969.1914	991.5139	1018.9537	1078.0629	1091.2874	1146.7722	1187.4122	1219.1055	1260.5218	1282.4328	1343.3687	1471.8413	1491.8397	1619.2654	1647.1165	1662.0231	2976.5678	3063.1221	3203.89	3485.143	3489.0281	3560.2809	3567.0736
NC12CN=C3OC1C23N	N[C@@]12C[N][C]3O[C@@H]1[C@@]23N	
InChI=1S/C5H7N3O/c6-4-1-8-3-5(4,7)2(4)9-3/h2H,1,6-7H2	InChI=1S/C5H7N3O/c6-4-1-8-3-5(4,7)2(4)9-3/h2H,1,6-7H2/t2-,4-,5-/m0/s1
