18
gdb 71915	2.51049	2.00081	1.42849	2.4693	75.24	-0.2431	-0.0277	0.2155	956.9479	0.148306	-401.9185	-401.910988	-401.910043	-401.950205	29.526	
C	-0.0324083831	 1.5532916117	-0.0291006861	-0.486486
C	-0.0176186942	 0.0467194052	 0.006646441	 0.21411
C	-1.3256759643	-0.7434842851	 0.277427143	-0.297413
C	-0.5026462887	-1.689387033	 1.1698318005	 0.018986
C	 0.3222162836	-2.7569065839	 0.4261924432	-0.251286
C	 1.3490743587	-1.6417892855	 0.1173548536	-0.125901
N	 0.6881429178	-0.7177871033	 1.1549378393	-0.190375
C	 0.8830527848	-0.6965805526	-0.9870210027	 0.38791
O	 1.2165790257	-0.4919869405	-2.1189619478	-0.313764
H	 0.9847263114	 1.9558825574	-0.0299640543	 0.132927
H	-0.5334764707	 1.8986259347	-0.9398831162	 0.135311
H	-0.5640373207	 1.9583034041	 0.8371835312	 0.123765
H	-2.0170641672	-0.1367985885	 0.868983905	 0.117404
H	-1.8662225985	-1.1608672935	-0.5762720425	 0.114154
H	-0.9308508052	-1.9674936525	 2.1342560946	 0.081694
H	 0.7451400457	-3.4860055699	 1.1210404652	 0.123307
H	-0.1339773536	-3.2888355877	-0.4127283231	 0.115346
H	 2.4156222887	-1.8637240071	 0.1836277362	 0.100313
128.7052	174.1827	213.441	247.7741	289.6429	370.1451	449.017	564.1529	597.4256	696.7062	725.6529	774.6998	831.3613	866.9131	880.9023	898.1136	928.1249	940.1961	976.3167	988.1092	1028.8221	1067.8245	1098.3968	1117.1135	1137.6489	1181.8208	1213.8584	1233.7848	1241.5151	1259.9499	1301.0757	1315.2838	1348.6838	1404.2275	1474.7988	1479.8796	1487.949	1491.7954	1883.3277	3036.0775	3053.7699	3060.9146	3090.1552	3099.6865	3106.8632	3109.1118	3115.0198	3117.9706
CC12CC3CC(N13)C2=O	C[C@]12C[C@H]3C[C@H](N13)C2=O	
InChI=1S/C7H9NO/c1-7-3-4-2-5(6(7)9)8(4)7/h4-5H,2-3H2,1H3	InChI=1S/C7H9NO/c1-7-3-4-2-5(6(7)9)8(4)7/h4-5H,2-3H2,1H3/t4-,5+,7-/m1/s1
