15
gdb 132860	3.01219	1.3761	0.95014	4.1547	75.31	-0.2125	-0.0452	0.1673	1165.2683	0.112055	-461.942969	-461.935147	-461.934203	-461.97538	29.463	
C	-0.0198830282	 1.5320937522	 0.0059368426	-0.488963
C	-0.0019925711	 0.0290614379	-0.0042125516	 0.193561
C	-0.0332392745	-0.6818163061	-1.1442430585	-0.010721
O	-0.0182560565	-2.040382211	-1.1884269056	-0.239698
C	 0.0312741698	-2.8223616697	-0.0448554352	 0.305609
N	 0.0448805819	-4.0887500406	-0.0949142537	-0.533002
C	 0.0655624726	-2.0641741472	 1.1995786592	 0.206673
F	 0.1131358531	-2.7878847542	 2.3082007216	-0.045668
C	 0.0503377554	-0.7202625432	 1.2314099457	-0.271783
H	 0.8747166538	 1.9369859554	 0.493177278	 0.136625
H	-0.0605627276	 1.9345648117	-1.009433061	 0.129998
H	-0.8875147768	 1.9155807248	 0.5552981214	 0.13662
H	-0.073226964	-0.2588343922	-2.139911232	 0.131766
H	 0.0149312832	-4.4104399238	-1.0625713384	 0.226732
H	 0.0775337088	-0.208115904	 2.1869937975	 0.122251
97.1385	165.6955	203.1654	276.6211	320.3198	332.6885	404.4039	456.3206	498.9675	570.3494	575.5371	670.5437	751.2332	816.5077	842.9797	854.4391	917.5999	981.256	991.8255	1039.4469	1068.1583	1160.8463	1206.5104	1236.0895	1319.3104	1390.7449	1417.8892	1421.6824	1478.8854	1496.3691	1637.9192	1706.6017	1743.9224	3027.544	3078.9466	3117.3229	3196.4359	3219.7481	3494.4979
CC1=COC(=N)C(F)=C1	CC1=COC(=C(F)C1)[NH]	
InChI=1S/C6H6FNO/c1-4-2-5(7)6(8)9-3-4/h2-3,8H,1H3	InChI=1S/C6H7FNO/c1-4-2-5(7)6(8)9-3-4/h3,8H,2H2,1H3
