23
gdb 118528	1.662	1.2225	0.75665	0.7794	88.66	-0.2382	0.0515	0.2897	1587.7981	0.201719	-388.260434	-388.248904	-388.24796	-388.298248	40.79	
C	-0.241231198	 1.4447445264	-0.8575248591	-0.384244
C	-0.3363668226	-0.0610083588	-1.0359334942	-0.044707
O	-1.3088386876	-0.5505678668	-0.1225429038	-0.263285
C	-1.5196428073	-1.9534260151	-0.127713059	 0.1239
C	-1.6529546791	-2.4180173324	 1.3269294277	-0.171168
C	-0.3974995283	-2.1494099212	 2.1582520288	-0.393607
C	-2.7951384761	-2.3060821145	-0.9304646404	-0.357027
C	-2.7028430404	-2.0603346302	-2.364459989	 0.297649
C	-2.6331605385	-1.8828580684	-3.5518500297	-0.44034
H	 0.5083310182	 1.8613293022	-1.5372403004	 0.112517
H	-1.2041187124	 1.9174816555	-1.0712256599	 0.126714
H	 0.0424083298	 1.6954872779	 0.1689019321	 0.122057
H	-0.617471408	-0.3104489595	-2.0669953829	 0.109831
H	 0.6384700389	-0.5340835524	-0.8337447284	 0.08344
H	-0.6587524813	-2.4592521459	-0.5907805982	 0.07511
H	-2.5119608287	-1.9010213215	 1.7733210662	 0.104175
H	-1.8895419182	-3.4889763822	 1.3340427178	 0.092116
H	 0.4661730155	-2.6952747284	 1.761751887	 0.109588
H	-0.1569829657	-1.0833991922	 2.1501077996	 0.131577
H	-0.538931557	-2.4612412439	 3.1973598235	 0.111125
H	-3.0355447623	-3.3640208224	-0.7644222504	 0.124739
H	-3.623925573	-1.7242876352	-0.5085050457	 0.136222
H	-2.5739752277	-1.719935041	-4.5993060817	 0.193616
38.8211	61.2022	81.2574	104.0873	129.4593	191.1197	229.5856	241.0447	251.1145	325.9961	344.624	398.4199	443.2837	467.3456	559.6774	612.3222	629.8236	769.0046	820.5635	836.5081	911.6143	919.4192	952.2196	998.4286	1034.9578	1070.0929	1102.4316	1123.4027	1140.4105	1169.2972	1187.6652	1239.822	1280.6977	1298.4288	1307.5535	1352.5822	1372.8582	1386.1754	1402.7903	1405.4008	1444.7975	1454.9489	1478.485	1482.8488	1495.4205	1500.7026	1510.9497	1530.7907	2234.2654	2969.5452	2990.063	3019.5316	3027.6062	3035.8332	3041.2991	3043.1554	3057.5578	3067.7585	3100.8006	3116.8902	3119.6753	3124.4084	3505.6696
CCOC(CC)CC#C	CCO[C@@H](CC)CC#C	
InChI=1S/C8H14O/c1-4-7-8(5-2)9-6-3/h1,8H,5-7H2,2-3H3	InChI=1S/C8H14O/c1-4-7-8(5-2)9-6-3/h1,8H,5-7H2,2-3H3/t8-/m0/s1
