12
gdb 10674	2.97898	2.05103	1.38841	5.6108	55.47	-0.2762	-0.0242	0.252	846.1578	0.083033	-414.672028	-414.664494	-414.66355	-414.704038	26.911	
N	 0.2279911172	 0.8177942186	 0.8834589372	-0.534798
C	-0.0421012778	 0.1062628596	-0.2399141813	 0.340975
O	 0.6439044266	 0.0600790421	-1.2357293827	-0.333505
C	-1.3191909551	-0.723851941	-0.1299842713	 0.154443
C	-1.4248056301	-1.752461568	 0.9331386049	-0.186322
O	-2.1347299967	-0.5216838673	 1.0304113292	-0.256766
C	-2.0314020919	-0.9293483074	-1.3754302799	 0.275381
N	-2.6235296925	-1.0971964524	-2.3522739373	-0.319403
H	 1.0193167068	 1.4405704298	 0.8682685689	 0.27585
H	-0.4887438221	 0.939711514	 1.5804806926	 0.280977
H	-2.0369264461	-2.6321624315	 0.7509213992	 0.156648
H	-0.5881667983	-1.8707903664	 1.6178567104	 0.146518
72.7963	149.323	227.0132	255.3991	284.0979	399.857	424.0895	469.4201	553.7808	599.5566	611.0665	666.7839	762.9194	878.4974	901.3192	945.0703	1096.047	1136.9677	1168.7424	1188.4904	1335.5799	1381.3377	1512.2705	1601.7108	1822.6323	2372.1323	3104.9061	3207.7109	3591.4365	3726.1914
NC(=O)C1(CO1)C#N	NC(=O)[C@]1(CO1)C#N	
InChI=1S/C4H4N2O2/c5-1-4(2-8-4)3(6)7/h2H2,(H2,6,7)	InChI=1S/C4H4N2O2/c5-1-4(2-8-4)3(6)7/h2H2,(H2,6,7)/t4-/m1/s1
