17
gdb 84620	2.59249	1.64642	1.19117	3.6529	75.36	-0.2235	-0.0308	0.1927	1046.6823	0.135965	-418.009302	-418.001127	-418.000183	-418.042082	30.284	
C	 0.1552695799	 1.4301259914	-0.1413587815	-0.349058
N	-0.1778059139	 0.0257267366	-0.0043130952	-0.107685
C	-0.1142642527	-0.8787558987	-1.0432299392	 0.049763
N	-0.0295119627	-2.1235448132	-0.7386127575	-0.262604
C	 0.1298539461	-2.1884701664	 0.6823209873	-0.021261
C	 1.3211339217	-1.5297845763	 1.3042865655	-0.335406
C	 0.0535549756	-0.7060509412	 1.2142084874	 0.204941
C	-0.7305969639	-0.3612684786	 2.411947707	 0.089882
O	-0.545859795	-0.8376373319	 3.5080809411	-0.277035
H	 1.2274979013	 1.6222235606	 0.0081786625	 0.129442
H	-0.1229791597	 1.768119088	-1.1430142352	 0.139852
H	-0.4043440876	 2.0285705033	 0.5830385576	 0.140965
H	-0.1699671246	-0.5102156471	-2.0629958816	 0.131602
H	-0.3664700734	-2.9940741765	 1.2106432735	 0.12335
H	 1.5707814312	-1.8442206457	 2.3109157401	 0.149658
H	 2.1511012425	-1.2529870177	 0.6626717248	 0.120155
H	-1.5539869548	 0.3635135432	 2.2207010536	 0.073438
104.2024	127.7802	177.3623	200.9236	245.3655	301.1744	383.6371	411.4075	540.9252	604.339	625.3232	666.1387	747.6418	812.7093	890.9682	934.6228	956.3629	972.4481	1050.3916	1068.1238	1075.8721	1089.4703	1128.5668	1150.8515	1180.0829	1267.324	1284.2315	1334.2211	1352.8657	1381.247	1425.0405	1451.5317	1465.0835	1482.5629	1517.6486	1644.926	1800.1612	2875.3859	3000.1245	3081.1921	3120.5796	3134.714	3186.9262	3191.9522	3237.258
CN1C=NC2CC12C=O	CN1C=N[C@H]2C[C@@]12C=O	
InChI=1S/C6H8N2O/c1-8-4-7-5-2-6(5,8)3-9/h3-5H,2H2,1H3	InChI=1S/C6H8N2O/c1-8-4-7-5-2-6(5,8)3-9/h3-5H,2H2,1H3/t5-,6-/m0/s1
