19
gdb 102991	1.9967	1.40378	1.11866	2.2314	78.54	-0.2281	0.0359	0.264	1202.0552	0.155925	-422.968542	-422.958431	-422.957487	-423.003186	37.725	
C	-0.4255722553	 1.4217580107	 0.0972334955	-0.384212
C	 0.1840327767	 0.0280227054	-0.0836751283	-0.245751
C	 0.8220809789	-0.4980749128	 1.2002788908	 0.030867
C	 1.9857157135	 0.2078326546	 1.6612851132	 0.283259
C	 2.9572844281	 0.795657843	 2.0614894507	-0.440791
C	-0.0897297499	-1.0867668018	 2.3004693355	 0.067321
O	-1.4572169367	-1.1786278092	 2.0761545772	-0.429213
C	 0.8065296812	-1.9950536815	 1.5065075576	-0.030787
O	 0.1570481007	-2.8082415751	 0.5615090551	-0.430107
H	 0.3269080342	 2.1382669373	 0.4401665009	 0.125497
H	-0.8380208644	 1.7893738998	-0.8474397034	 0.107299
H	-1.2321775418	 1.3929681174	 0.8352976404	 0.132639
H	-0.5821857384	-0.6742425122	-0.4182109595	 0.106074
H	 0.9501140944	 0.0456059016	-0.8669086936	 0.105419
H	 3.8125746732	 1.3206305007	 2.4077247347	 0.190209
H	 0.1504594378	-0.8473807309	 3.3309425282	 0.113826
H	-1.5738510059	-1.8523522297	 1.3911082166	 0.288267
H	 1.6999146895	-2.422969997	 1.9536992143	 0.109025
H	 0.0476383042	-3.6816730403	 0.9535962241	 0.30116
72.5064	125.0345	140.7078	168.3685	209.3119	242.5996	263.8329	302.9221	311.9144	436.9782	460.2544	500.6532	530.4391	567.105	594.3311	647.2992	660.6695	692.3064	778.2556	841.2711	870.3642	974.9102	1022.1154	1036.7753	1072.2793	1098.7872	1146.8923	1159.0442	1214.4782	1238.6349	1288.1442	1302.6088	1337.2174	1362.3342	1405.928	1409.9149	1460.7492	1486.0148	1498.3161	1510.1483	2226.1206	3040.6221	3047.7742	3100.1642	3112.0564	3123.9062	3138.0619	3169.3857	3503.475	3733.5317	3805.7023
CCC1(C#C)C(O)C1O	CC[C@@]1(C#C)[C@@H](O)[C@H]1O	
InChI=1S/C7H10O2/c1-3-7(4-2)5(8)6(7)9/h1,5-6,8-9H,4H2,2H3	InChI=1S/C7H10O2/c1-3-7(4-2)5(8)6(7)9/h1,5-6,8-9H,4H2,2H3/t5-,6+,7-
