20
gdb 99306	5.77311	0.61207	0.58005	1.2257	76.57	-0.2435	0.014	0.2575	1922.592	0.169795	-440.291646	-440.281569	-440.280625	-440.328733	34.708	
C	 0.0442738576	 1.3113582159	 0.1701995225	-0.239977
O	 0.2053111181	-0.1049287081	 0.0221149328	-0.233558
C	 0.6001523868	-0.5169323538	-1.1998243994	 0.447038
O	 0.8071408132	 0.2323683919	-2.1216791763	-0.356419
C	 0.7454615334	-2.0240919193	-1.2374886266	-0.325518
C	 1.1422898172	-2.547328958	-2.6212196581	-0.212653
C	 1.3088830045	-4.0492304861	-2.6430655765	 0.033185
C	 2.2643875966	-4.6946457446	-3.5735251428	-0.250431
N	 2.5383312486	-4.6763244581	-2.1230140058	-0.318396
H	 0.9855157301	 1.8302645821	-0.028370216	 0.140039
H	-0.7147601089	 1.6881984927	-0.5201198441	 0.140247
H	-0.2676626932	 1.4683438438	 1.2027731485	 0.133451
H	 1.482581124	-2.3120249843	-0.4780133739	 0.13777
H	-0.2006291668	-2.4656506351	-0.9021970585	 0.134361
H	 0.3826464905	-2.2455266689	-3.3516945063	 0.118494
H	 2.0736647049	-2.0652800318	-2.9408679264	 0.107641
H	 0.4125819167	-4.6086225103	-2.3762423034	 0.089539
H	 2.0516974978	-5.6765799584	-3.9865257841	 0.118647
H	 2.8523410017	-4.0499298733	-4.2222943222	 0.111642
H	 3.2277164871	-3.9541139362	-1.9224413333	 0.224898
25.3003	53.7009	102.2173	122.5268	128.3546	175.5337	234.8323	287.8616	351.9026	427.9823	485.2256	585.1716	697.0109	768.3885	806.8287	842.2028	903.4354	935.0766	955.3933	1013.6077	1025.0669	1045.5297	1087.9852	1126.3846	1144.7774	1170.4512	1179.8247	1198.8963	1216.0639	1247.9366	1256.3806	1293.2921	1310.7591	1325.0175	1390.8407	1433.603	1457.6905	1474.1825	1480.397	1482.776	1498.4	1514.3826	1818.1915	3034.3976	3043.3001	3051.5379	3062.7756	3082.8996	3107.0317	3112.0109	3125.3342	3158.6374	3191.8417	3480.3063
COC(=O)CCC1CN1	COC(=O)CC[C@H]1CN1	
InChI=1S/C6H11NO2/c1-9-6(8)3-2-5-4-7-5/h5,7H,2-4H2,1H3	InChI=1S/C6H11NO2/c1-9-6(8)3-2-5-4-7-5/h5,7H,2-4H2,1H3/t5-/m0/s1
