20
gdb 100886	2.61841	0.95078	0.82836	2.4212	75.41	-0.2743	0.0198	0.2941	1477.5079	0.168774	-440.299081	-440.288349	-440.287405	-440.335235	37.922	
C	-0.0096874893	 1.5790319522	 0.0519525417	-0.383737
C	-0.0377080353	 0.050576333	-0.024228566	-0.208145
C	 0.7637219966	-0.4985746509	-1.2097105671	 0.114666
O	 2.1211766934	-0.0867105256	-1.1865324434	-0.429257
C	 0.659479256	-2.0436598457	-1.3426600981	-0.16557
C	 1.2799382693	-2.5498551185	-2.6694281918	-0.078908
O	 1.195874628	-3.9494146778	-2.811377536	-0.417626
C	 1.3341707498	-2.692556609	-0.2161141241	 0.254685
N	 1.9182542986	-3.1873235773	 0.6513933515	-0.335883
H	 1.0181606362	 1.946217314	 0.1076463465	 0.131423
H	-0.4740967663	 2.0263186135	-0.8336570812	 0.117668
H	-0.552203183	 1.9366740631	 0.93146811	 0.118065
H	 0.3626227227	-0.3816402725	 0.9030709101	 0.114043
H	-1.07263909	-0.3044975027	-0.1055085544	 0.102897
H	 0.360930892	-0.0767832811	-2.1392380776	 0.097888
H	 2.5092906516	-0.3835230867	-0.3535832356	 0.294265
H	-0.3952805051	-2.341776258	-1.3238287944	 0.131041
H	 0.7056716584	-2.1193709366	-3.4955704711	 0.120652
H	 2.3090535661	-2.1774102527	-2.7416707599	 0.1239
H	 1.8087161804	-4.3535970907	-2.1871420191	 0.297931
69.1679	86.7349	99.6452	134.6767	151.1368	200.6146	228.8598	275.5832	330.0615	354.4675	367.7456	376.7865	442.1931	499.8526	590.422	725.9688	789.2758	808.943	873.3546	953.9445	996.0237	1022.0807	1053.6099	1067.7439	1089.1575	1115.5784	1148.7442	1198.7975	1244.7721	1269.8	1289.0263	1347.3865	1359.4103	1383.1627	1391.9479	1410.7311	1417.4962	1427.3913	1482.8843	1496.6118	1507.9181	1508.3092	2344.1247	3016.7225	3031.4918	3036.8721	3040.8133	3052.6282	3061.7174	3093.9173	3107.6332	3126.3319	3776.5569	3806.5138
CCC(O)C(CO)C#N	CC[C@@H](O)[C@@H](CO)C#N	
InChI=1S/C6H11NO2/c1-2-6(9)5(3-7)4-8/h5-6,8-9H,2,4H2,1H3	InChI=1S/C6H11NO2/c1-2-6(9)5(3-7)4-8/h5-6,8-9H,2,4H2,1H3/t5-,6-/m1/s1
