18
gdb 22609	2.35884	1.55992	1.05268	1.0437	76.36	-0.2349	0.0064	0.2412	1152.4673	0.145762	-439.014146	-439.005028	-439.004084	-439.047684	34.283	
C	-0.013136472	 1.5656842287	 0.0489522054	-0.493972
C	 0.0588544643	 0.0683084171	-0.0263815688	 0.240123
C	-0.8540747995	-0.861411517	 0.7593788583	-0.316289
C	 0.6194673638	-0.9900446939	 0.9722370583	-0.115811
C	 1.2459955315	-1.7712347089	-0.185335939	 0.032781
O	 0.8412879882	-3.1127369162	-0.3145955726	-0.43573
C	 0.646074286	-0.7315787602	-1.1337021842	 0.358762
N	 0.7143639307	-0.5323967738	-2.3829030482	-0.279134
O	 1.4222841578	-1.6066684877	-2.991124801	-0.413785
H	 0.9445671963	 2.0227177961	-0.2199509452	 0.127181
H	-0.7714575343	 1.9544126817	-0.6392827707	 0.135732
H	-0.2791483543	 1.8931137682	 1.0587287116	 0.120056
H	-1.400298877	-0.3689436569	 1.5581103505	 0.116774
H	-1.3995933802	-1.6571404715	 0.2631772935	 0.131235
H	 1.0943220406	-0.8124768201	 1.9284829155	 0.096908
H	 2.3424512947	-1.6746463852	-0.1871395466	 0.091105
H	 1.0547716783	-3.3740860199	-1.2181833406	 0.296562
H	 1.4071479149	-1.3587259807	-3.9211495562	 0.3075
89.8956	142.9065	176.1177	197.3331	221.6978	275.3102	329.4667	353.9389	376.9571	412.036	521.5586	536.0119	609.8897	660.0141	756.1274	827.1795	844.1614	899.4324	944.4333	957.3595	980.5491	1014.7728	1071.4611	1087.9656	1091.3501	1111.3165	1157.8471	1196.9528	1258.4032	1299.089	1321.3335	1364.8775	1406.799	1410.2443	1429.1214	1482.0398	1493.9914	1498.0119	1781.2996	2990.6167	3032.6657	3096.2009	3106.9096	3126.7183	3199.1058	3213.8431	3799.7409	3826.9913
CC12CC1C(O)C2=NO	C[C@]12C[C@H]1[C@@H](O)[C]2[N]O	
InChI=1S/C6H9NO2/c1-6-2-3(6)4(8)5(6)7-9/h3-4,8-9H,2H2,1H3	InChI=1S/C6H9NO2/c1-6-2-3(6)4(8)5(6)7-9/h3-4,8-9H,2H2,1H3/t3-,4+,6-/m0/s1
