21
gdb 107909	3.6301	1.11351	1.03412	1.5188	82.44	-0.2446	0.0695	0.3141	1258.7245	0.182709	-387.037515	-387.028916	-387.027971	-387.070656	33.559	
C	-0.1429376487	 1.4224150896	-0.0733415674	-0.407982
C	 0.0412596385	-0.0876082357	 0.0117089863	 0.018688
C	 0.8408852261	-0.6824189161	-1.1500099959	-0.093317
C	 2.1435521511	-0.5573760444	-0.3945911045	-0.135684
C	 1.237965204	-0.5346834861	 0.905310607	-0.065213
C	 1.1932589877	-2.0835103596	 0.8489161473	-0.305973
C	 1.5653416157	-1.9363399951	-0.6316789147	 0.310261
C	 2.0607654068	-3.0019481101	-1.5601309326	-0.188491
O	 1.031590997	-3.8623576137	-2.0395085363	-0.41424
H	 0.8079127462	 1.9229735119	-0.2871833551	 0.115309
H	-0.8476894575	 1.6920148631	-0.8675978059	 0.112573
H	-0.5337006083	 1.8239943242	 0.8682063597	 0.109632
H	-0.9166590317	-0.5714775847	 0.2462695764	 0.057401
H	 0.6726603493	-0.5510995481	-2.2123142051	 0.084855
H	 3.1017315052	-0.1298288174	-0.6528863241	 0.087332
H	 1.4571468831	-0.0111913209	 1.8347094985	 0.066594
H	 2.0134352722	-2.5404271209	 1.4122713678	 0.093277
H	 0.2461224779	-2.5666349629	 1.1220939837	 0.081827
H	 2.4995734737	-2.543578316	-2.4537334582	 0.106681
H	 2.8593004601	-3.5828001603	-1.0697495502	 0.084707
H	 0.6135102916	-4.2685960169	-1.2736703566	 0.281762
75.2741	128.1943	208.32	236.2467	246.7001	285.0221	344.4961	382.2619	461.3938	480.7159	674.1613	749.3714	765.7641	795.6536	832.1669	861.4991	903.2809	916.362	948.5575	958.2362	997.2567	1007.315	1022.0041	1049.7364	1064.2624	1087.5148	1111.8483	1128.8946	1137.7013	1168.0242	1187.8823	1205.3916	1246.1181	1260.862	1282.8496	1318.075	1371.0959	1374.8242	1398.098	1411.6476	1433.774	1494.7958	1496.9808	1499.7567	1502.4313	2967.5655	3005.4796	3016.0475	3025.572	3060.9307	3077.9871	3090.9421	3096.2901	3124.7783	3185.8059	3217.7879	3817.8438
CC1C2C3C1CC23CO	C[C@H]1[C@H]2[C@H]3[C@@H]1C[C@@]23CO	
InChI=1S/C8H12O/c1-4-5-2-8(3-9)6(4)7(5)8/h4-7,9H,2-3H2,1H3	InChI=1S/C8H12O/c1-4-5-2-8(3-9)6(4)7(5)8/h4-7,9H,2-3H2,1H3/t4-,5-,6+,7-,8-/m1/s1
