13
gdb 21147	5.28912	1.64797	1.26635	2.0369	67.42	-0.2512	-0.0973	0.1539	900.5022	0.0941	-394.730277	-394.722941	-394.721996	-394.76249	25.645	
C	 0.09200673	 1.4326615378	 0.0833314588	-0.323875
N	 0.1112722193	-0.0220967379	 0.0879597492	-0.310404
C	 0.4161243798	-0.6266744055	-0.9843752246	 0.448714
O	 0.7284067998	 0.042281821	-2.1468432286	-0.309568
N	 1.0796372672	-0.6856469174	-3.3897657149	 0.052296
N	 1.0896922219	-1.9067283557	-3.3667887859	-0.097349
C	 0.785271567	-2.6637003154	-2.2220613984	 0.010694
C	 0.4588946491	-2.0733524457	-1.0667340927	-0.155373
H	 1.0734591198	 1.8525686207	-0.1735054517	 0.131083
H	-0.6244812561	 1.8290258833	-0.648153791	 0.131051
H	-0.1904601357	 1.7869076136	 1.0768133239	 0.122782
H	 0.8414242657	-3.7329637465	-2.3720588657	 0.149795
H	 0.2188937323	-2.6271153423	-0.1678945384	 0.150154
57.6711	112.0937	189.5656	204.2796	351.3521	407.0668	469.7089	568.2044	606.6474	702.5618	734.6388	834.888	859.19	953.6541	991.8502	1005.8608	1050.9325	1103.0656	1162.4604	1195.7343	1246.1551	1415.0794	1435.924	1484.0169	1496.0878	1613.9362	1681.4143	1729.1098	3006.7664	3057.6747	3115.6376	3221.3638	3240.5094
CN=C1ON=NC=C1	C[N]C1=CC=N[N]O1	
InChI=1S/C4H5N3O/c1-5-4-2-3-6-7-8-4/h2-3H,1H3	InChI=1S/C4H5N3O/c1-5-4-2-3-6-7-8-4/h2-3H,1H3
