14
gdb 133019	5.0303	1.04501	0.86993	1.9778	72.1	-0.226	-0.0784	0.1477	1230.7004	0.099768	-477.978019	-477.970182	-477.969237	-478.011079	28.166	
C	 0.0025938964	 1.4328809984	-0.2242619863	-0.326302
N	 0.0058419554	-0.0189389261	-0.2053183346	-0.307177
C	-1.0470622266	-0.6255567335	 0.1501224453	 0.388375
O	-2.2028047664	 0.0519482552	 0.521545019	-0.233034
C	-3.3038616264	-0.657464566	 0.8947237494	-0.101654
C	-3.2799938597	-1.9975481273	 0.9056931767	 0.254437
F	-4.3485553016	-2.6979362072	 1.2680217923	-0.065866
N	-2.1845702402	-2.7386541189	 0.5547527032	-0.26486
C	-1.1348367444	-2.0827978061	 0.1993563435	-0.035012
H	 0.9819765533	 1.7898652008	-0.5484534216	 0.127075
H	-0.7593677068	 1.8294236718	-0.9092421406	 0.127643
H	-0.2132291634	 1.8530059743	 0.7676573983	 0.127554
H	-4.1479754238	-0.0389965964	 1.1644207549	 0.15519
H	-0.2372348359	-2.622630679	-0.0891389695	 0.15363
63.398	98.0761	191.7909	212.7553	353.5784	391.7512	393.1069	415.8924	576.8491	589.0088	615.3063	746.6025	784.1306	812.5351	836.7	950.1589	962.7792	1045.125	1102.4387	1153.4197	1190.6205	1230.2111	1311.0189	1320.1494	1399.3413	1434.1355	1482.8429	1495.6527	1615.9089	1698.7075	1732.1592	3000.049	3048.9212	3117.854	3180.8147	3239.3908
CN=C1OC=C(F)N=C1	C[N]C1=C[N]C(=CO1)F	
InChI=1S/C5H5FN2O/c1-7-5-2-8-4(6)3-9-5/h2-3H,1H3	InChI=1S/C5H5FN2O/c1-7-5-2-8-4(6)3-9-5/h2-3H,1H3
