21
gdb 80616	2.10542	1.87027	1.47021	1.0532	77.	-0.2348	0.0721	0.3069	1029.3133	0.182173	-424.209932	-424.20134	-424.200396	-424.242258	34.66	
C	-0.1185261434	 1.5230392206	-0.0906049583	-0.422008
C	 0.0407416026	 0.0080359134	-0.0030937439	-0.005081
C	 0.991657089	-0.5663541224	-1.0769395183	 0.067882
C	 1.2029017326	-2.0366138691	-0.6631340133	-0.24884
C	 1.9377043626	-1.2869831313	 0.4614472148	 0.031165
O	 2.3104662527	-0.2556025628	-0.505595037	-0.305195
C	 0.7963313054	-0.5772167724	 1.2499324318	 0.394013
C	 1.3386890486	 0.4324567434	 2.2536777672	-0.463139
O	-0.0827481055	-1.5021845272	 1.88823659	-0.483479
H	 0.8542866962	 2.020782738	-0.1305395237	 0.129724
H	-0.6707913464	 1.7924485538	-0.9975853437	 0.10992
H	-0.6757442153	 1.9239530657	 0.7613962657	 0.116332
H	-0.9418046995	-0.4712528767	-0.0519020871	 0.087032
H	 0.8681655915	-0.2413359974	-2.1108050441	 0.074253
H	 0.3380994367	-2.6491043828	-0.4058085312	 0.111807
H	 1.8956917665	-2.5540019806	-1.3273252767	 0.105473
H	 2.7773034707	-1.698384744	 1.0258793163	 0.066354
H	 2.0546396681	 1.1086624418	 1.7816385473	 0.139847
H	 0.5334243189	 1.021485782	 2.7009882009	 0.122797
H	 1.8618370924	-0.091756611	 3.0643627754	 0.09741
H	 0.3512516958	-1.8226390209	 2.686516388	 0.273733
128.9571	226.4949	248.1255	264.8684	273.166	284.4796	295.0151	353.8693	427.2272	475.8059	527.7707	561.062	634.023	731.5209	809.1768	839.4679	866.4001	889.2576	913.5163	950.3513	960.1902	1010.7691	1023.4895	1053.8151	1057.8921	1079.5776	1121.9568	1139.1801	1174.8788	1191.6925	1209.122	1230.39	1254.2524	1290.5483	1297.4914	1314.5224	1365.0257	1384.1945	1398.9495	1411.9385	1481.8843	1484.7299	1491.5399	1505.2542	1511.6874	3021.5217	3035.9698	3062.113	3084.0645	3093.0103	3098.8229	3099.2336	3114.6911	3117.9541	3135.0888	3156.5956	3800.2901
CC1C2CC(O2)C1(C)O	C[C@H]1[C@@H]2C[C@@H](O2)[C@]1(C)O	
InChI=1S/C7H12O2/c1-4-5-3-6(9-5)7(4,2)8/h4-6,8H,3H2,1-2H3	InChI=1S/C7H12O2/c1-4-5-3-6(9-5)7(4,2)8/h4-6,8H,3H2,1-2H3/t4-,5-,6+,7+/m0/s1
