23
gdb 101657	3.19724	0.72912	0.67896	2.1789	84.02	-0.2719	-0.0356	0.2363	1766.0069	0.202582	-425.445948	-425.434868	-425.433924	-425.483138	39.647	
C	 0.0535640165	 1.7783926874	-0.404608838	-0.388762
C	 0.0005024883	 0.2529586318	-0.2644812018	-0.17042
C	 0.7743749079	-0.5161580333	-1.3517191393	 0.051411
C	 2.287062776	-0.2685218605	-1.264057503	-0.405653
C	 0.495706107	-2.0318228419	-1.2905219235	-0.217609
C	-0.9314522007	-2.4240114411	-1.72066349	 0.037569
O	-1.21350095	-1.9899846671	-3.0242520011	-0.431541
C	-1.1087512091	-3.9232709578	-1.6175103085	 0.138588
O	-1.4286100124	-4.5959367664	-2.5683844049	-0.263576
H	 1.0699463866	 2.1676508086	-0.2928970918	 0.118099
H	-0.3187263869	 2.0954062001	-1.3850389085	 0.119629
H	-0.566322611	 2.2611322342	 0.3573644516	 0.111615
H	 0.3864554613	-0.040058404	 0.7224322489	 0.088623
H	-1.0519226295	-0.0544095022	-0.2821112237	 0.09632
H	 0.4251240666	-0.1681022716	-2.3320117614	 0.09871
H	 2.8192459708	-0.8015860249	-2.0586362814	 0.113344
H	 2.5305283598	 0.7929657286	-1.3609531726	 0.117291
H	 2.6878832963	-0.6158996252	-0.3035792624	 0.108968
H	 1.1954675199	-2.5518425109	-1.9564044659	 0.102744
H	 0.6823643424	-2.4043787087	-0.2731548296	 0.090497
H	-1.6533125754	-1.9832798256	-1.0089700751	 0.093869
H	-1.4469019014	-2.7903540847	-3.520835194	 0.293685
H	-0.923036093	-4.3734052447	-0.6205873338	 0.096599
40.8065	62.1709	79.114	122.9577	175.0856	218.8813	242.1569	276.2772	295.3613	335.1313	345.3839	402.5741	435.5769	489.8784	509.9106	754.0578	766.0446	798.6604	843.343	879.944	925.8481	975.9791	986.9096	1003.8672	1035.4798	1047.2546	1120.816	1149.0208	1175.9875	1190.7338	1244.4358	1258.4764	1304.9999	1309.6834	1346.7485	1357.5346	1383.4203	1392.4337	1405.3241	1408.2844	1415.7329	1437.5367	1469.7219	1481.6665	1496.0822	1500.5671	1506.2996	1512.1612	1811.6934	2923.8459	2948.3921	3005.7678	3008.9411	3024.4665	3035.4179	3035.4664	3051.4028	3059.0052	3091.7978	3100.8064	3105.6454	3114.3574	3690.034
CCC(C)CC(O)C=O	CC[C@@H](C)C[C@@H](O)C=O	
InChI=1S/C7H14O2/c1-3-6(2)4-7(9)5-8/h5-7,9H,3-4H2,1-2H3	InChI=1S/C7H14O2/c1-3-6(2)4-7(9)5-8/h5-7,9H,3-4H2,1-2H3/t6-,7-/m1/s1
