20
gdb 75518	2.5887	1.45257	1.11772	1.9142	82.85	-0.2344	0.0129	0.2473	1166.704	0.1718	-403.14984	-403.141286	-403.140342	-403.182825	32.793	
C	 0.0808296792	 1.4600012657	 0.1329834056	-0.478398
C	 0.0351224869	-0.0382471087	-0.0235843808	 0.299282
C	-1.1184177705	-0.7112704648	-0.0954858329	-0.139976
C	-1.3223988514	-2.1976051278	-0.2784760021	-0.268245
C	-1.2057495758	-3.026006165	 1.0274539831	-0.134995
N	-0.0012117864	-2.930908477	 1.835234274	-0.206212
C	 1.0845598021	-2.4710977968	 1.4062573796	 0.09426
O	 1.3706058381	-2.0976594732	 0.1116751843	-0.22727
C	 1.3984745805	-0.6883168373	-0.0995309019	-0.173619
H	 0.6479003554	 1.9309974275	-0.6810924201	 0.123031
H	-0.9225961092	 1.8920314611	 0.1342088437	 0.126379
H	 0.5798498255	 1.7500457429	 1.066883892	 0.125312
H	-2.0309035761	-0.1244108192	-0.000998229	 0.080721
H	-2.3385910758	-2.3633611201	-0.6562424859	 0.08991
H	-0.635667772	-2.5981270149	-1.0244454788	 0.122879
H	-2.0335089859	-2.7552060472	 1.6948544937	 0.112573
H	-1.3572652381	-4.0870986313	 0.7880545573	 0.116785
H	 1.9387551788	-2.3747129166	 2.0831299982	 0.10886
H	 1.8454166366	-0.5483174689	-1.0913359105	 0.126801
H	 2.077499768	-0.2081435984	 0.6249419305	 0.10192
91.0632	134.6614	183.7633	262.9344	283.2995	301.3101	337.8777	352.4749	440.8722	488.6138	532.9694	599.9182	749.9	777.0895	850.482	858.1628	909.1541	939.8126	974.9389	990.6445	1023.3299	1025.0176	1069.1941	1090.2721	1099.4853	1119.9091	1184.4508	1260.638	1263.8945	1291.0855	1354.1248	1372.8689	1394.3613	1396.654	1414.8896	1419.0586	1471.9833	1478.7488	1484.6299	1493.7829	1494.716	1732.1062	1767.3949	2968.4614	3012.6863	3018.0341	3037.9778	3046.0052	3049.7451	3056.4661	3088.3873	3116.5635	3118.8855	3135.6189
CC1=CCCN=COC1	CC1=CCCN=COC1	
InChI=1S/C7H11NO/c1-7-3-2-4-8-6-9-5-7/h3,6H,2,4-5H2,1H3/b7-3-,8-6-	InChI=1S/C7H11NO/c1-7-3-2-4-8-6-9-5-7/h3,6H,2,4-5H2,1H3/b7-3-,8-6-
