15
gdb 31425	3.11097	1.29291	0.91868	4.6432	72.12	-0.2311	-0.0403	0.1907	1197.4576	0.113107	-457.819723	-457.812047	-457.811103	-457.852088	28.676	
C	-0.0773331873	 1.387796729	 0.1218025258	-0.250827
O	 0.0017050637	-0.028138662	 0.0017344927	-0.252811
C	 0.6166804703	-0.5399509247	-1.0756718365	 0.44709
C	 1.1850955093	 0.1800477676	-2.0877541149	-0.44905
C	 1.8241025994	-0.4656447771	-3.2056605629	 0.433124
O	 2.3560334565	 0.050527797	-4.150751485	-0.349293
O	 1.8165383045	-1.8861230461	-3.173055519	-0.222824
C	 1.2505705926	-2.5595934918	-2.1659392229	 0.101738
C	 0.6497031126	-1.974497274	-1.1143767708	-0.273936
H	 0.921855085	 1.8352391969	 0.1661158138	 0.141267
H	-0.6333800076	 1.8232164366	-0.7159125294	 0.141267
H	-0.6077793943	 1.5805056202	 1.0544865543	 0.145736
H	 1.1924334341	 1.2594771609	-2.1154176422	 0.119281
H	 1.333278072	-3.6325344923	-2.2972028123	 0.145504
H	 0.2037107193	-2.5554183201	-0.3200652009	 0.123734
112.2478	157.0124	208.3262	227.0969	259.2098	411.3843	427.0066	501.4145	527.9375	586.0758	704.1333	727.0003	732.0638	797.47	839.6749	844.5809	949.3479	986.256	1044.1093	1088.2202	1163.8781	1178.0134	1210.0637	1265.5278	1300.98	1354.2673	1462.0449	1491.1098	1498.7809	1506.9304	1593.2976	1684.2752	1845.9256	3025.9226	3094.4679	3151.0482	3204.003	3243.6245	3243.7053
COC1=CC(=O)OC=C1	COc1cc(=O)occ1	
InChI=1S/C6H6O3/c1-8-5-2-3-9-6(7)4-5/h2-4H,1H3	InChI=1S/C6H6O3/c1-8-5-2-3-9-6(7)4-5/h2-4H,1H3
