23
gdb 92192	3.02292	1.51273	1.27742	0.093	89.73	-0.2543	0.0913	0.3456	1108.3985	0.208684	-351.117787	-351.110179	-351.109235	-351.149271	32.376	
C	 0.0457377635	 1.6488782029	-0.0877884056	-0.415703
C	 0.0330009785	 0.1311383589	 0.0026761787	-0.092247
C	 1.000745555	-0.7177497122	-0.9150333681	-0.297911
C	 1.0940038547	-1.7369688576	 0.2616526597	 0.041244
C	 2.2442528596	-2.3969638505	 1.0680516966	-0.271387
C	 2.0909108999	-1.5330243774	 2.3585732506	-0.013756
C	 2.1024181498	-0.1155363147	 1.7325230558	-0.250254
C	 0.7168105461	-0.5807713964	 1.1954350752	 0.358893
C	 0.538213216	-1.2991431419	 2.557161882	-0.33045
H	 1.0566963481	 2.046357588	 0.051714917	 0.113857
H	-0.3131070747	 1.9889534631	-1.0656060023	 0.112247
H	-0.5986176447	 2.0978091261	 0.6765207924	 0.113512
H	-0.9888533746	-0.24578126	-0.1273585312	 0.072902
H	 0.6011426291	-1.0803112371	-1.8652390031	 0.090868
H	 1.9355949109	-0.1836524466	-1.1064017918	 0.10088
H	 0.2523818733	-2.4318193175	 0.1636996804	 0.067812
H	 2.0782396282	-3.4657106603	 1.2322484084	 0.089828
H	 3.2424473418	-2.276460192	 0.634978788	 0.097313
H	 2.7235793182	-1.7844942428	 3.2112270094	 0.057987
H	 2.0067783708	 0.6831616105	 2.4729721111	 0.08983
H	 2.9024674845	 0.1236866605	 1.026169424	 0.08572
H	-0.1261297486	-2.1683242581	 2.5829175961	 0.08634
H	 0.3501741946	-0.6503351349	 3.4169381166	 0.092476
154.326	202.6134	212.0667	293.3405	386.8804	408.3389	456.0553	509.4753	564.3217	616.8721	624.1705	773.7149	804.8084	841.3208	846.0322	865.2198	885.0928	920.0704	941.7507	953.0679	982.4905	1006.2192	1010.945	1060.3199	1064.6121	1082.5915	1113.7121	1129.9603	1142.0317	1158.1338	1177.0449	1191.3032	1200.1794	1230.6025	1239.783	1245.8733	1274.8604	1279.7945	1296.3938	1306.4864	1362.2222	1390.7613	1408.9195	1483.3781	1491.2034	1493.5012	1495.8379	1496.6707	1527.6352	3025.2084	3028.6812	3033.3678	3044.4136	3045.8118	3051.1506	3060.8896	3090.1417	3090.3473	3096.586	3102.6812	3104.0008	3109.7184	3115.7138
CC1CC2CC3CC12C3	C[C@H]1C[C@H]2C[C@H]3C[C@@]12C3	
InChI=1S/C9H14/c1-6-2-8-3-7-4-9(6,8)5-7/h6-8H,2-5H2,1H3	InChI=1S/C9H14/c1-6-2-8-3-7-4-9(6,8)5-7/h6-8H,2-5H2,1H3/t6-,7-,8-,9+/m0/s1
