18
gdb 36282	4.11859	1.12376	1.05619	1.3604	82.1	-0.2149	0.0081	0.223	1180.3722	0.147381	-364.705866	-364.698155	-364.697211	-364.738218	30.922	
C	 0.1087536749	-1.1313411368	 0.2771349795	-0.447207
C	 0.0469692734	 0.0642505928	 0.3801087195	 0.323034
C	-0.0377370785	 1.5192834774	 0.4751427443	-0.322865
N	 1.2738218407	 2.1350480918	 0.2326791245	-0.093354
C	 1.7637717073	 2.1338054738	-1.2167907758	-0.052233
C	 0.8331322927	 3.3564169698	-1.5075164386	-0.227898
C	 1.2554017756	 3.6422784217	-0.0291960331	-0.050295
C	 2.7637183492	 3.8589124092	-0.2021790589	-0.070524
C	 3.1047638894	 2.8450211303	-1.001030551	-0.061118
H	 0.1648166322	-2.188861245	 0.2001948332	 0.195606
H	-0.8521276781	 1.8623302077	-0.1868487329	 0.108301
H	-0.3356389409	 1.7995406274	 1.4941965306	 0.132429
H	 1.7262675929	 1.1948159135	-1.766586459	 0.082636
H	 1.1462761507	 4.0675448424	-2.2750955575	 0.098946
H	-0.2212619825	 3.101720926	-1.6373112776	 0.101905
H	 0.6907515481	 4.277432936	 0.6536629799	 0.069163
H	 3.3606012331	 4.635798079	 0.2518726517	 0.106389
H	 4.0647164398	 2.5456821628	-1.3944821088	 0.107084
65.771	115.0034	288.1028	295.7978	343.6299	425.2361	499.2636	531.7551	592.0708	609.4428	654.5016	687.9261	730.7415	795.4904	826.3109	839.9921	897.7452	912.2632	925.5032	932.4826	974.4622	991.6234	1023.2171	1038.4689	1078.7032	1105.7142	1146.559	1149.6563	1219.1111	1237.6267	1250.5361	1268.4589	1273.7349	1319.8444	1371.7834	1478.4965	1515.7763	1620.8427	2240.6538	2946.0678	3028.1463	3067.0692	3118.8716	3123.9529	3139.3409	3230.9873	3257.7054	3506.3157
C#CCN1C2CC1C=C2	C#CCN1[C@H]2C[C@@H]1C=C2	
InChI=1S/C8H9N/c1-2-5-9-7-3-4-8(9)6-7/h1,3-4,7-8H,5-6H2	InChI=1S/C8H9N/c1-2-5-9-7-3-4-8(9)6-7/h1,3-4,7-8H,5-6H2/t7-,8+
