16
gdb 49420	5.25705	1.21751	1.15678	3.9625	74.73	-0.2332	-0.0171	0.2161	1052.3544	0.125182	-400.687983	-400.681295	-400.680351	-400.719178	26.666	
O	 0.0950640986	 0.081687355	-0.5377591249	-0.317973
C	 0.0739101857	 1.2417331312	-0.1880902671	 0.129629
N	 1.087461751	 1.8808232735	 0.4776993474	-0.083775
C	 2.5454383407	 1.6304664271	 0.2659723576	-0.019842
C	 2.586925918	 2.6625382631	-0.9327304345	-0.073217
C	 3.9013169972	 3.4110591347	-0.8290538489	-0.107102
C	 4.0802319382	 3.573531785	 0.4846274084	-0.108784
C	 2.8674435693	 2.9173243199	 1.1147656708	-0.06786
C	 1.6368778581	 3.2423264972	 0.1895741501	-0.038792
H	-0.8220241819	 1.8892802379	-0.289448463	 0.070397
H	 2.9813100492	 0.6338231758	 0.3295200376	 0.113045
H	 2.1678284143	 2.3763614665	-1.8964180914	 0.091252
H	 4.5245937147	 3.7260302671	-1.6538981017	 0.115002
H	 4.8885513687	 4.0548594793	 1.0161305359	 0.115112
H	 2.7270034577	 2.891020555	 2.193652285	 0.085585
H	 1.0116874403	 4.1378219016	 0.1697308287	 0.097321
96.3143	170.0145	273.4303	374.3938	470.3348	503.2352	610.9673	653.7796	695.9326	757.537	783.3818	812.1685	831.5671	913.5931	923.4551	937.5903	950.0132	990.2271	1006.4986	1018.4157	1031.7325	1096.1356	1139.6375	1145.2116	1163.7073	1176.0996	1189.1294	1200.0491	1252.4703	1322.1428	1338.2062	1371.4254	1419.8074	1633.7021	1788.4389	2916.2266	3098.802	3130.7635	3138.7119	3147.6529	3224.9763	3250.8086
O=CN1C2C3C=CC2C13	O=CN1[C@H]2[C@@H]3C=C[C@H]2[C@H]13	
InChI=1S/C7H7NO/c9-3-8-6-4-1-2-5(6)7(4)8/h1-7H	InChI=1S/C7H7NO/c9-3-8-6-4-1-2-5(6)7(4)8/h1-7H/t4-,5+,6-,7+
