20
gdb 12024	3.85127	1.24245	1.18111	1.3308	76.15	-0.2446	0.0779	0.3225	1129.5769	0.175566	-348.976734	-348.967993	-348.967049	-349.009895	33.393	
C	-0.1103919502	 1.5680831133	-0.0868168866	-0.446317
C	 0.0010804536	 0.0644414629	 0.0207544484	 0.393438
O	-1.1675661251	-0.6171094218	-0.3714258573	-0.466247
C	 1.3158312156	-0.6368035525	-0.2401358637	-0.368915
C	 0.7146841314	-0.6115249434	 1.1578007603	-0.031816
C	 1.369418138	 0.1263177389	 2.2813643132	 0.014872
C	 0.7178598182	 0.1739681735	 3.6429652143	-0.268013
C	 1.9717495038	-0.6390483854	 3.4353578405	-0.272304
H	 0.7990989633	 2.0709262597	 0.2512895432	 0.116429
H	-0.2819367037	 1.8661068271	-1.1288885616	 0.104098
H	-0.9511849706	 1.9339010694	 0.5111275156	 0.126987
H	-1.275451405	-0.4899926169	-1.3210343558	 0.276713
H	 1.2847141011	-1.5727295235	-0.7870083283	 0.10813
H	 2.1967221009	-0.0284237828	-0.4230651401	 0.104018
H	 0.2365265255	-1.5409600765	 1.4572177799	 0.089882
H	 1.9101856327	 1.0212203604	 1.9865714292	 0.076541
H	 0.785803182	 1.0914508445	 4.2172320733	 0.108436
H	-0.2173957181	-0.3609396981	 3.7709868878	 0.114713
H	 1.879726068	-1.7202256463	 3.4248680742	 0.111271
H	 2.8991318786	-0.2781231323	 3.8664776435	 0.108085
60.2799	138.4389	156.4232	221.4298	296.56	307.4935	339.169	387.4402	419.5471	424.9259	523.6847	710.0274	752.4754	805.2216	825.1447	880.7786	913.2869	920.6141	932.2617	971.8131	987.9191	1043.9697	1056.1372	1059.9531	1077.4643	1082.9888	1113.0048	1133.8909	1198.2397	1211.5549	1234.0098	1246.5734	1291.6122	1320.6169	1378.6457	1415.3302	1444.0943	1469.8348	1479.7166	1486.6816	1503.5608	1516.1914	3024.4483	3087.4852	3118.4427	3122.7562	3128.6957	3131.9029	3137.4517	3146.5894	3206.5858	3214.6451	3222.1576	3784.5268
CC1(O)CC1C1CC1	C[C@@]1(O)C[C@H]1C1CC1	
InChI=1S/C7H12O/c1-7(8)4-6(7)5-2-3-5/h5-6,8H,2-4H2,1H3	InChI=1S/C7H12O/c1-7(8)4-6(7)5-2-3-5/h5-6,8H,2-4H2,1H3/t6-,7+/m0/s1
