18
gdb 34051	3.11106	1.35167	1.16521	5.1422	76.72	-0.2421	0.0217	0.2638	1095.3073	0.150698	-398.108215	-398.100516	-398.099572	-398.140319	29.994	
N	 0.0346536091	-1.1468277281	 0.0259703167	-0.340622
C	 0.0223180003	 0.0082315709	-0.0205285705	 0.25516
C	-0.0462812141	 1.4550517155	-0.0764959104	 0.16341
C	 0.4295686308	 2.1636780018	-1.3043705449	-0.260459
N	 1.263205103	 2.1355556775	-0.111334883	-0.122378
C	 1.4294733672	 3.3916473453	 0.6485867067	-0.132573
C	 0.2639750463	 3.7298151178	 1.583419802	-0.172051
N	-0.9922557405	 3.4799053443	 0.880272034	-0.304193
C	-1.199772521	 2.0472499395	 0.7333426535	-0.24828
H	 0.800498393	 1.5906389261	-2.1495651873	 0.129767
H	-0.0956823079	 3.0857671216	-1.5415407499	 0.134082
H	 2.3531990374	 3.3054338965	 1.2305801178	 0.115621
H	 1.5700146047	 4.2023602711	-0.0736884103	 0.115976
H	 0.3434381769	 3.1329428882	 2.510542433	 0.093516
H	 0.3229154882	 4.7846083995	 1.8669813179	 0.109996
H	-1.7741236241	 3.8908789393	 1.3756574712	 0.231691
H	-2.1444198354	 1.8571439866	 0.2131932951	 0.125121
H	-1.2422101139	 1.5193722667	 1.7032100184	 0.106213
112.5689	150.611	179.159	297.5614	379.8482	391.0748	410.6758	481.7252	557.4482	566.8186	582.1427	677.6609	762.1103	816.2153	876.2297	902.4474	928.9776	954.0885	1000.7394	1052.0146	1102.6547	1121.3595	1145.9763	1156.8342	1159.4118	1229.4006	1232.2212	1265.5247	1301.4879	1338.532	1370.5448	1386.3679	1432.2602	1477.4375	1483.931	1497.089	1502.6487	1510.3935	2356.3292	2934.1809	2940.6481	3039.9716	3067.7953	3077.6247	3087.5695	3103.635	3198.7666	3548.2108
N#CC12CN1CCNC2	N#C[C@]12CN1CCNC2	
InChI=1S/C6H9N3/c7-3-6-4-8-1-2-9(6)5-6/h8H,1-2,4-5H2	InChI=1S/C6H9N3/c7-3-6-4-8-1-2-9(6)5-6/h8H,1-2,4-5H2/t6-,9?/m0/s1
