14
gdb 130958	6.65122	0.73032	0.69722	3.2371	64.45	-0.2812	-0.0612	0.22	1507.0388	0.100145	-466.135388	-466.127242	-466.126298	-466.17074	26.774	
O	-0.145904005	-0.0514554499	-0.106542893	-0.214439
C	-0.0171162681	 1.1423908172	-0.0910775047	 0.156148
C	 1.3194170662	 1.8606749995	-0.1422662812	-0.284718
C	 1.3590781082	 2.8766870745	-1.2935424087	-0.163059
N	 2.553823074	 3.7090046762	-1.2399020059	 0.166914
N	 2.6860250892	 4.764047503	-0.4509554801	-0.122423
N	 3.8910657474	 5.1966141326	-0.6645935624	-0.077686
N	 4.4862803037	 4.4042392146	-1.57728487	-0.079122
N	 3.6555378642	 3.4740284866	-1.9363523115	-0.114424
H	-0.9009658181	 1.8186392032	-0.0258890798	 0.087327
H	 1.4425049889	 2.4037888904	 0.8041810797	 0.156431
H	 2.1212115822	 1.1248166051	-0.2345667795	 0.153475
H	 1.3757316877	 2.3793838719	-2.2645476974	 0.17387
H	 0.5007825396	 3.5520865851	-1.2551601956	 0.161707
28.9002	62.7892	65.302	114.9354	271.7242	335.3254	362.3886	519.1598	720.5074	760.0005	764.993	780.4385	857.132	976.2471	996.887	1046.7866	1085.5429	1103.6625	1144.4245	1155.2079	1247.9242	1253.8828	1284.3733	1320.1133	1394.0945	1402.2057	1424.3095	1431.3797	1465.2238	1483.2009	1845.3924	2865.579	3036.5953	3083.0878	3121.2819	3147.4342
O=CCCN1N=NN=N1	O=CCCn1nnnn1	
InChI=1S/C3H5N5O/c9-3-1-2-8-6-4-5-7-8/h3H,1-2H2	InChI=1S/C3H5N5O/c9-3-1-2-8-6-4-5-7-8/h3H,1-2H2
