15
gdb 26982	3.37442	1.28838	0.96027	2.2167	72.72	-0.1997	0.0181	0.2178	1156.7838	0.11258	-416.80353	-416.795211	-416.794266	-416.83686	30.872	
N	-0.1022028131	 1.247328503	-0.5745118194	-0.602314
C	-0.1103482093	-0.0824250961	-0.2022584529	 0.291759
C	-1.0731205232	-1.0311359238	-0.0207920898	 0.186513
C	-2.558107638	-0.9806291494	-0.2467010268	-0.46367
C	-2.974926663	-0.008394093	-1.2557118181	 0.299507
C	-3.3140962663	 0.802055287	-2.0775901569	-0.457978
N	-0.4626947077	-2.1847294643	 0.4744319895	-0.302326
C	 0.7867031714	-1.8907487556	 0.5565710189	 0.048169
O	 1.0885827491	-0.6182910297	 0.1619410958	-0.17307
H	 0.725387603	 1.507347133	-1.0965609131	 0.256067
H	-0.9486760989	 1.5015241982	-1.0702801936	 0.264263
H	-2.8878851706	-1.9818286615	-0.5495418978	 0.157507
H	-3.0883572681	-0.766546949	 0.6929852162	 0.147092
H	-3.6416508979	 1.4943742011	-2.8134428026	 0.202096
H	 1.6125280225	-2.5026658698	 0.8799263406	 0.146384
42.9003	130.991	227.4466	258.6862	275.9507	308.7754	333.979	438.3569	457.453	612.746	645.8254	650.3941	672.917	717.2974	745.3931	771.178	784.0125	946.5474	951.3842	963.7169	1035.5386	1113.2696	1164.2776	1231.2049	1266.6945	1301.4819	1344.3312	1441.0069	1467.013	1572.5862	1628.1336	1699.5703	2231.9896	2998.2419	3052.1954	3286.3083	3501.3111	3523.1888	3622.5534
NC1=C(CC#C)N=CO1	Nc1c(CC#C)nco1	
InChI=1S/C6H6N2O/c1-2-3-5-6(7)9-4-8-5/h1,4H,3,7H2	InChI=1S/C6H6N2O/c1-2-3-5-6(7)9-4-8-5/h1,4H,3,7H2
