18
gdb 120289	3.55616	1.05759	1.01479	0.8125	71.74	-0.2427	0.0123	0.255	1250.7735	0.14805	-439.05891	-439.050611	-439.049666	-439.093018	29.974	
C	-0.1600658639	 1.3438135748	-0.081846359	-0.22426
O	-0.1630203966	-0.0569637526	-0.2144718307	-0.23273
C	 0.8624043985	-0.525383331	-1.066978962	-0.081907
C	 0.7781836437	-2.0270369701	-1.1126434876	-0.089006
C	-0.1763232871	-2.7891087165	-1.9875832805	 0.053185
O	-0.6881721448	-2.1142127291	-3.1305778822	-0.202269
C	 0.3942843743	-1.8585151833	-3.9105504914	 0.091842
N	 1.5394216029	-2.2577563899	-3.5274195008	-0.253076
C	 1.3240665094	-2.887398433	-2.2421994513	-0.063387
H	 0.7849394785	 1.7136572485	 0.347941948	 0.102891
H	-0.3141500089	 1.8476460558	-1.0495447763	 0.103962
H	-0.9803878125	 1.6105798958	 0.5888478395	 0.127255
H	 0.7621889358	-0.0841526245	-2.0689664835	 0.102319
H	 1.8510325688	-0.2214586428	-0.6825205557	 0.092631
H	 0.8984355789	-2.4914163084	-0.1373085787	 0.106764
H	-0.8488997691	-3.550057606	-1.6145489852	 0.11486
H	 0.1776000724	-1.318583957	-4.8242307707	 0.145541
H	 1.9505517898	-3.7410350508	-2.014001262	 0.105386
42.6491	82.8784	126.5926	206.3048	240.4323	284.1004	385.5893	468.8814	569.3449	686.6554	734.8157	756.9334	811.8133	879.4406	938.1513	945.8784	976.6461	987.9988	1024.7114	1036.784	1079.7701	1105.5213	1123.6801	1135.1352	1157.8082	1184.2029	1207.512	1234.6252	1264.9229	1290.367	1327.3412	1352.7908	1397.8795	1446.3307	1482.2908	1484.8867	1502.8645	1523.0372	1667.3229	2958.0172	2969.5516	3008.9559	3015.3949	3114.1927	3148.7428	3183.2745	3202.9807	3230.2784
COCC1C2OC=NC12	COC[C@H]1[C@H]2OC=N[C@@H]12	
InChI=1S/C6H9NO2/c1-8-2-4-5-6(4)9-3-7-5/h3-6H,2H2,1H3	InChI=1S/C6H9NO2/c1-8-2-4-5-6(4)9-3-7-5/h3-6H,2H2,1H3/t4-,5+,6-/m1/s1
