16
gdb 79378	2.43389	1.89268	1.22433	3.424	74.66	-0.2381	-0.0028	0.2352	1000.0016	0.124685	-396.814213	-396.806806	-396.805862	-396.845952	28.688	
C	 0.065548751	 1.4811004372	-0.3563533949	-0.346994
N	 0.0398068005	 0.0421805307	-0.1010170117	-0.105059
C	-1.0421403432	-0.4620770517	 0.7805002169	-0.082082
C	-0.161110122	-1.663751339	 1.2479442941	-0.045173
N	-0.3295689258	-1.4490144461	 2.7186126621	-0.366585
C	-0.3395475854	-0.0603643151	 2.1609330335	 0.258938
C	-0.5050552757	 1.1034969113	 2.9871305109	 0.156851
N	-0.6548043091	 2.0474596119	 3.6399287679	-0.355828
C	 0.7777864976	-0.4368865436	 1.0940744953	-0.050941
H	 1.0362622476	 1.7485731086	-0.784663333	 0.130833
H	-0.7043271135	 1.7243148587	-1.0948814771	 0.129481
H	-0.1021274454	 2.1022782814	 0.5369752715	 0.127946
H	-2.1044990432	-0.4253407035	 0.5319763036	 0.101952
H	-0.056128611	-2.6392595817	 0.7795659841	 0.109702
H	-1.2725914655	-1.713108896	 3.0156285429	 0.224061
H	 1.8577685132	-0.3782961732	 1.2239337838	 0.112896
134.7051	163.1019	210.8454	252.167	296.8354	453.2941	490.3315	525.5845	543.5099	617.3288	745.631	758.1201	816.8958	840.581	860.1133	911.4301	940.0861	986.084	1043.1066	1083.9087	1102.2796	1118.2073	1141.4767	1147.7719	1179.9357	1191.6176	1210.4565	1258.8254	1287.9232	1302.1418	1330.9272	1454.5489	1496.3549	1498.2473	2339.9615	2992.5257	3078.0512	3107.0781	3110.6253	3135.1728	3161.085	3411.4706
CN1C2C3NC2(C#N)C13	CN1[C@H]2[C@@H]3N[C@@]2(C#N)[C@H]13	
InChI=1S/C6H7N3/c1-9-4-3-5(9)6(4,2-7)8-3/h3-5,8H,1H3	InChI=1S/C6H7N3/c1-9-4-3-5(9)6(4,2-7)8-3/h3-5,8H,1H3/t3-,4-,5+,6+
