20
gdb 68027	2.65226	1.75901	1.34403	1.9667	78.16	-0.2275	0.0722	0.2997	1018.9621	0.171519	-403.096866	-403.0891	-403.088156	-403.128278	32.623	
C	-0.0577417989	 1.5190761844	 0.0314011809	-0.48174
C	 0.0799285534	 0.0192595878	 0.0582247045	 0.337476
C	 0.9231153668	-0.796124349	-0.9743595633	-0.307856
C	 0.7471041059	-1.9007649425	 0.1367478194	 0.392631
O	 1.4617074964	-3.0913768017	 0.1902416695	-0.484356
C	 0.8897801901	-0.7390577659	 1.1552803204	-0.356268
C	-0.768555961	-2.1006547178	 0.0206108296	-0.047883
C	-1.6832989998	-1.5218038344	 1.0350203662	-0.264193
N	-1.2407286017	-0.6986804231	-0.1069002638	-0.13591
H	 0.9219433853	 2.0059282018	 0.0595407038	 0.110742
H	-0.5811236434	 1.8378211997	-0.8750883252	 0.129124
H	-0.6364223755	 1.8711655572	 0.8923491574	 0.119797
H	 0.4647786273	-0.9752116539	-1.9496198668	 0.104007
H	 1.9520555936	-0.4396383603	-1.0772901524	 0.084638
H	 2.4012082987	-2.8832537985	 0.1912976536	 0.281391
H	 1.9169813041	-0.3681819443	 1.1961679563	 0.090323
H	 0.5066550923	-0.8416839087	 2.1707944461	 0.097938
H	-1.1198329079	-2.830491738	-0.7041559655	 0.096315
H	-2.7354330256	-1.7871802945	 0.975527094	 0.11691
H	-1.3437247403	-1.3061683683	 2.0410550453	 0.116913
211.8176	229.7602	255.4804	263.5775	306.247	375.8881	434.892	456.9137	557.1734	567.8823	590.9836	597.5317	652.8077	763.5157	798.7797	825.4367	864.7282	932.6923	948.8797	969.9386	980.7575	1014.9843	1027.7591	1069.9834	1082.1807	1103.9722	1126.8942	1132.29	1144.6497	1164.6846	1197.554	1207.5597	1237.4703	1280.0796	1321.9481	1349.756	1406.2885	1419.8707	1472.5312	1484.1847	1494.1583	1499.6841	1540.0061	3034.2045	3054.7723	3073.4088	3100.0035	3112.0547	3119.3462	3125.9681	3129.2727	3144.0342	3208.4379	3822.6391
CC12CC(O)(C1)C1CN21	C[C@@]12C[C@@](O)(C1)[C@H]1CN21	
InChI=1S/C7H11NO/c1-6-3-7(9,4-6)5-2-8(5)6/h5,9H,2-4H2,1H3	InChI=1S/C7H11NO/c1-6-3-7(9,4-6)5-2-8(5)6/h5,9H,2-4H2,1H3/t5-,6-,7-,8?/m1/s1
