23
gdb 59649	2.73972	1.13812	1.04081	1.9402	81.67	-0.2509	0.0776	0.3285	1317.9163	0.205576	-425.44892	-425.439155	-425.438211	-425.483923	37.004	
C	-0.2886282862	 1.5213895349	 0.1671830749	-0.403306
C	 0.1491940745	 0.0742278428	-0.0703938403	 0.123115
O	 1.1135064932	-0.0125529127	-1.1092933512	-0.439991
C	 0.7018318543	-0.579694426	 1.2055287447	 0.134357
C	 1.0256278681	-2.0701639366	 1.0828741658	-0.244218
C	 2.1588771862	-2.2435654479	 2.1035347373	-0.252075
C	 2.8972667657	-0.887688857	 2.0450624987	 0.150764
C	 4.1548666219	-0.8965855345	 1.1818730305	-0.397611
O	 1.9562844348	 0.0516973122	 1.4941660747	-0.308095
H	 0.5451594067	 2.1109526247	 0.5611206865	 0.126474
H	-0.621747764	 1.9703181605	-0.7720022724	 0.1192
H	-1.1111962364	 1.5710796786	 0.8890504809	 0.106801
H	-0.7110042897	-0.5160487417	-0.4101348118	 0.081887
H	 1.9316232093	 0.3192180732	-0.7156593833	 0.281218
H	 0.0020738256	-0.4037553649	 2.0386978918	 0.060818
H	 0.1607169003	-2.7053829906	 1.2890275117	 0.099004
H	 1.3700539659	-2.2751311106	 0.0649748306	 0.121397
H	 1.7485376053	-2.4093919015	 3.1047559638	 0.102632
H	 2.8212938273	-3.0821530944	 1.8745595933	 0.104547
H	 3.1578584755	-0.5438458235	 3.0546575925	 0.0759
H	 3.9406484765	-1.2968357241	 0.1849634933	 0.121217
H	 4.5451260055	 0.1191646807	 1.0683385934	 0.122145
H	 4.9344487497	-1.5131080216	 1.6414222046	 0.113821
37.9429	90.3439	137.2427	201.2189	242.4776	251.2806	291.0036	342.7131	355.4573	419.0336	464.0389	499.8547	577.5739	648.4202	697.4494	794.7638	827.9787	888.8132	898.0119	921.3797	962.6074	986.4261	996.4964	1031.4323	1055.5642	1076.7452	1093.3969	1123.9078	1144.1822	1166.3465	1206.5974	1221.7386	1290.5862	1301.4137	1325.5895	1333.7368	1344.5281	1367.4904	1387.3739	1397.4228	1402.0114	1408.2949	1433.0083	1483.9145	1491.5043	1492.7442	1498.3021	1499.2966	1504.2562	2966.6314	3009.8718	3032.4092	3035.4794	3037.3032	3053.2075	3062.2487	3099.5606	3105.5048	3106.6511	3111.8354	3116.5205	3123.6726	3762.7885
CC(O)C1CCC(C)O1	C[C@@H](O)[C@H]1CC[C@@H](C)O1	
InChI=1S/C7H14O2/c1-5-3-4-7(9-5)6(2)8/h5-8H,3-4H2,1-2H3	InChI=1S/C7H14O2/c1-5-3-4-7(9-5)6(2)8/h5-8H,3-4H2,1-2H3/t5-,6-,7-/m1/s1
