16
gdb 94487	4.62651	0.73235	0.65873	3.4647	69.65	-0.2477	-0.0235	0.2241	1622.9514	0.12151	-475.008833	-474.999451	-474.998507	-475.045127	31.567	
O	-0.2945503759	 1.4223695803	 0.1842737447	-0.421447
C	 0.0213836373	 0.0641691396	 0.0285183002	-0.027326
C	-1.2116767712	-0.8594632827	 0.0298360714	-0.090142
O	-0.8937878271	-1.2993519337	-1.3328611475	-0.262836
C	 0.1825518165	-0.4412927266	-1.3972518547	 0.449452
N	 0.9679795272	-0.1743446797	-2.333543917	-0.362641
C	 0.8032389468	-0.840324127	-3.6148555495	-0.253702
C	 2.1551195902	-1.0168425158	-4.2905858203	 0.157866
O	 2.3661775109	-1.8067461544	-5.1718757841	-0.238774
H	 0.4211943823	 1.9351533506	-0.2081686808	 0.301369
H	 0.8282467413	-0.2578743902	 0.7001842076	 0.103587
H	-1.2056925306	-1.7007748518	 0.7246342276	 0.12902
H	-2.1615604678	-0.3228044412	 0.0575388409	 0.138985
H	 0.2935479163	-1.8098734941	-3.5638684463	 0.143674
H	 0.2047760719	-0.201363713	-4.2835255428	 0.144673
H	 2.940628222	-0.3295629703	-3.9047704693	 0.088243
26.6843	65.0936	105.8135	119.0044	142.7071	218.5297	282.2763	340.5823	425.5053	466.3276	572.7893	696.3131	705.1608	775.8674	872.7749	924.6434	963.3897	1043.8554	1048.6287	1069.3468	1085.0716	1144.8724	1160.4264	1184.9012	1211.4488	1233.6456	1317.2673	1325.6394	1347.7947	1404.5029	1417.885	1443.7578	1503.4878	1837.7784	1850.6518	2893.6035	2992.5727	3019.4158	3060.5787	3079.996	3148.4209	3807.7339
OC1COC1=NCC=O	O[C@H]1COC1=NCC=O	
InChI=1S/C5H7NO3/c7-2-1-6-5-4(8)3-9-5/h2,4,8H,1,3H2	InChI=1S/C5H7NO3/c7-2-1-6-5-4(8)3-9-5/h2,4,8H,1,3H2/t4-/m0/s1
