21
gdb 92179	2.63302	1.85817	1.63342	1.3193	80.95	-0.235	0.0849	0.3199	958.975	0.185538	-387.063586	-387.056517	-387.055573	-387.094511	30.111	
C	-0.2936815645	 1.5253064916	 0.0272889373	-0.414527
C	 0.0633578957	 0.0373416827	-0.0128716929	 0.142663
O	 0.7289621024	-0.338667613	-1.233774322	-0.289282
C	 2.1212426152	-0.5553218369	-1.0731516663	 0.109897
C	 2.8001893129	 0.6173203038	-0.3171745136	-0.2599
C	 2.4398799577	-0.1480036237	 0.9704976434	-0.038358
C	 2.4487993195	-1.4869983584	 0.1661497946	-0.033296
C	 1.1986285082	-1.9710097253	 0.9066658289	-0.24371
C	 0.8976272433	-0.4661218068	 1.1676795892	-0.055612
H	 0.5667897073	 2.166622879	 0.2287346052	 0.12049
H	-0.7327669257	 1.8265249629	-0.9280305627	 0.124336
H	-1.0348542747	 1.7025611671	 0.8146717319	 0.109495
H	-0.882103871	-0.5227072604	-0.0240211593	 0.078182
H	 2.4991917874	-0.8489626981	-2.0538316274	 0.07449
H	 3.8860508817	 0.5975131059	-0.4606550766	 0.097362
H	 2.4360553093	 1.6275862675	-0.5124115237	 0.097894
H	 3.0011281158	 0.0035638308	 1.8937185618	 0.061533
H	 3.3343720703	-2.1144552182	 0.0511634719	 0.059924
H	 0.4454669682	-2.5426482691	 0.3555663856	 0.099316
H	 1.4675949124	-2.5083234647	 1.8206868662	 0.094312
H	 0.4468643787	-0.1847026567	 2.1217463486	 0.06479
169.5048	235.6722	254.5926	343.7887	390.3604	437.4161	473.2434	557.4958	645.2378	705.3937	749.0295	771.7893	822.2994	828.2499	850.6747	920.4075	945.701	960.1679	966.4788	985.9508	1013.6128	1034.8903	1047.0847	1065.2243	1099.0725	1115.7256	1136.7357	1144.0618	1184.6538	1195.6197	1214.4111	1239.0649	1257.4944	1280.4893	1293.2666	1309.1538	1323.973	1351.824	1375.946	1400.6917	1406.1886	1482.9524	1489.898	1496.1394	1508.2824	3000.5699	3041.1922	3045.1196	3048.2543	3081.1522	3088.1403	3095.8108	3098.8504	3104.2986	3107.1814	3113.0672	3138.2254
CC1OC2CC3C2CC13	C[C@H]1O[C@H]2C[C@@H]3[C@H]2C[C@H]13	
InChI=1S/C8H12O/c1-4-5-2-7-6(5)3-8(7)9-4/h4-8H,2-3H2,1H3	InChI=1S/C8H12O/c1-4-5-2-7-6(5)3-8(7)9-4/h4-8H,2-3H2,1H3/t4-,5-,6+,7-,8+/m1/s1
