12
gdb 129189	5.85156	1.07738	0.90986	1.9985	75.81	-0.2539	-0.1106	0.1433	1156.9337	0.080255	-427.860498	-427.853498	-427.852553	-427.892453	25.589	
N	-0.1130360243	 1.3299344387	 0.0087452387	-0.540637
C	 0.0284350219	 0.0688963205	 0.0011304025	 0.453927
N	-1.1468957556	-0.7174775907	 0.0036906246	-0.218733
N	-1.2211415493	-2.0249164664	-0.0029412957	-0.189311
C	-0.077515476	-2.6696740672	-0.0131088698	 0.173367
C	 1.1704109356	-1.9353914663	-0.0164734449	-0.025602
N	 1.2305999478	-0.6480395455	-0.0098637573	-0.284429
C	-0.0964580805	-4.095137668	-0.0206849964	 0.251928
N	-0.0453728128	-5.2516168551	-0.0272210241	-0.315954
H	 0.8025985527	 1.7755742735	 0.0057381587	 0.240999
H	-2.0302527822	-0.2227797345	 0.0115181257	 0.299223
H	 2.1055651528	-2.4936672092	-0.0249948919	 0.15522
65.3687	155.4034	202.814	392.6822	426.0934	455.9522	474.2752	559.9285	562.2484	653.1918	739.9827	745.8702	774.4899	831.7087	855.6186	997.213	1011.9753	1052.5706	1256.1873	1288.6637	1322.1467	1424.0673	1443.4725	1535.1934	1657.6799	1741.9643	2346.2044	3147.5685	3521.6552	3585.5158
N=C1NN=C(C=N1)C#N	[NH]c1[nH]nc(cn1)C#N	
InChI=1S/C4H3N5/c5-1-3-2-7-4(6)9-8-3/h2H,(H2,6,7,9)	InChI=1S/C4H8N5/c5-1-3-2-7-4(6)9-8-3/h3-4,6-9H,2H2
