19
gdb 53047	3.46352	0.96665	0.86636	1.9361	85.69	-0.2375	0.0375	0.275	1419.4078	0.158367	-385.834585	-385.825458	-385.824514	-385.870831	32.665	
C	-0.0320475403	 1.4812687816	-0.1498764846	-0.505332
C	-0.0158629414	 0.0283265359	-0.0651298444	 0.19687
C	-0.0045840773	-1.1752491532	 0.0072896267	-0.156343
C	 0.0107693158	-2.6092823715	 0.0895840191	 0.150871
C	 0.5997571116	-3.429607104	-1.1096787416	-0.291473
C	-0.698270824	-4.2904957145	-1.1773008588	-0.226169
C	-1.2471980214	-3.5576038078	 0.0610256575	 0.07081
O	-0.8486574433	-4.1789276775	 1.2957556158	-0.289253
C	 0.2689732271	-3.281180555	 1.4599997736	-0.118939
H	 0.5763065791	 1.839285253	-0.9879409197	 0.148154
H	-1.0501445982	 1.8598494468	-0.2949825499	 0.149118
H	 0.3625059677	 1.938019657	 0.7646239113	 0.149089
H	 0.7707604316	-2.8176049886	-1.996076978	 0.115679
H	 1.522002095	-3.9659299627	-0.8721391648	 0.103749
H	-1.285311976	-4.1057034165	-2.0809557062	 0.105279
H	-0.5852818609	-5.3675477265	-1.0385118216	 0.112283
H	-2.286411434	-3.219386989	 0.0759678723	 0.07899
H	 1.2238925721	-3.8109597138	 1.5675669485	 0.099562
H	 0.1237160668	-2.6099562836	 2.3146248848	 0.107056
10.8604	72.9693	98.9141	123.4418	263.497	293.7516	341.9516	360.5883	474.8711	514.8147	516.9448	666.5336	742.851	835.4038	876.4007	897.3239	935.9115	949.899	974.4823	1012.7641	1036.5416	1052.4433	1053.2479	1095.3984	1116.366	1143.3344	1170.7476	1189.8249	1230.3389	1253.3994	1273.9737	1301.7352	1332.6411	1372.0522	1415.2793	1463.6006	1477.6353	1477.9796	1485.6426	1522.1177	2361.3524	3010.9226	3024.7016	3060.7155	3061.6895	3066.7261	3080.089	3084.6605	3085.7734	3116.1083	3134.0182
CC#CC12CCC1OC2	CC#C[C@]12CC[C@H]1OC2	
InChI=1S/C8H10O/c1-2-4-8-5-3-7(8)9-6-8/h7H,3,5-6H2,1H3	InChI=1S/C8H10O/c1-2-4-8-5-3-7(8)9-6-8/h7H,3,5-6H2,1H3/t7-,8-/m1/s1
