18
gdb 112450	2.21889	1.56294	1.02058	4.3517	68.94	-0.2604	0.0518	0.3122	1183.2062	0.147653	-476.275867	-476.266915	-476.265971	-476.309798	32.404	
C	 0.2927598619	 1.3656305995	 0.1035110553	-0.247987
O	 0.190486585	-0.0510106578	 0.0735529455	-0.230239
C	 0.5817641116	-0.6178952231	-1.1281661726	 0.210091
O	 1.9808834482	-0.427180475	-1.3612970335	-0.246993
C	 2.6740812392	-1.5672734276	-1.0171570882	 0.467904
O	 3.8698787821	-1.6370439927	-1.0175155066	-0.390782
N	 1.755358177	-2.5354644958	-0.6980699282	-0.373726
C	 0.4030733817	-2.1555330653	-1.0720866345	-0.002697
C	-0.664376592	-2.6519704201	-0.1052500068	-0.398211
H	 1.3329422656	 1.691816018	 0.0010671103	 0.142835
H	-0.3054219623	 1.8207868929	-0.6995527669	 0.111257
H	-0.0989962606	 1.6886560631	 1.0694208864	 0.134705
H	 0.0572533376	-0.1485907131	-1.9710080841	 0.08301
H	 2.0653874252	-3.4927009243	-0.6762992072	 0.2613
H	 0.1671213236	-2.5045415537	-2.0888173516	 0.090743
H	-0.4614707615	-2.2981701183	 0.9058961856	 0.1484
H	-1.6520743321	-2.2940773706	-0.4101805316	 0.125387
H	-0.6905630201	-3.7462041762	-0.1037430715	 0.115002
84.9215	116.644	138.259	191.3639	215.8037	224.0517	290.6034	387.3508	448.6157	495.1818	511.953	570.4862	704.8526	757.421	773.6478	897.1148	943.7076	955.4499	985.4722	1019.7158	1073.8394	1134.8288	1138.257	1181.5692	1186.4618	1217.0564	1255.5863	1320.9757	1369.2685	1398.1411	1407.997	1416.081	1428.1166	1481.4412	1485.7874	1492.7241	1495.947	1512.2849	1900.6907	2982.5129	2999.2217	3024.5577	3048.4581	3081.1964	3111.8361	3137.7149	3154.0048	3663.1634
COC1OC(=O)NC1C	CO[C@H]1OC(=O)N[C@H]1C	
InChI=1S/C5H9NO3/c1-3-4(8-2)9-5(7)6-3/h3-4H,1-2H3,(H,6,7)	InChI=1S/C5H9NO3/c1-3-4(8-2)9-5(7)6-3/h3-4H,1-2H3,(H,6,7)/t3-,4-/m0/s1
