19
gdb 47861	2.26988	1.70266	1.11834	5.7386	78.09	-0.2288	-0.0385	0.1903	1116.0037	0.161443	-419.229571	-419.221015	-419.220071	-419.263396	32.093	
N	-0.1652527268	 1.1224543912	 0.5968761638	-0.506731
C	-0.0325030851	-0.0365774485	 0.0699027441	 0.274166
N	 1.1230970019	-0.5520253791	-0.4772088213	-0.334523
C	 1.4660470718	-1.9183682852	-0.8754993369	-0.159473
C	 0.5528318071	-3.0058323455	-0.3011945181	-0.209046
C	-0.8062711687	-3.1156892273	-1.0114922548	-0.195981
C	-1.4596679385	-1.7393147231	-1.2710235499	-0.302145
C	-1.3176379927	-0.8662022431	-0.0371377009	 0.361162
O	-2.1599664315	-0.8142100762	 0.8221606265	-0.286489
H	 0.7218110794	 1.6340440779	 0.6020210107	 0.196727
H	 1.9077599587	 0.0807601567	-0.4390284856	 0.234073
H	 1.4848573206	-2.0053756192	-1.9734364626	 0.107803
H	 2.4909426724	-2.1008747207	-0.5335677617	 0.113328
H	 1.076708842	-3.964211668	-0.3764586985	 0.108143
H	 0.4086556935	-2.8158328141	 0.7691665462	 0.128036
H	-0.6871561589	-3.6363258131	-1.9680225669	 0.105401
H	-1.4812777061	-3.7215825498	-0.3990573751	 0.122698
H	-0.9785781669	-1.2529900394	-2.126389101	 0.116373
H	-2.5234409121	-1.8564843435	-1.4887490479	 0.126479
48.7797	72.7842	160.6526	265.7691	302.8496	320.0928	371.4205	419.1686	462.5247	509.5048	594.913	632.626	690.019	784.7225	816.745	831.2218	853.8611	920.4912	951.4398	974.9447	1038.0466	1074.2686	1099.3531	1141.328	1185.9637	1210.5538	1219.6121	1275.3514	1292.4964	1337.5989	1354.6078	1374.0985	1387.5123	1436.891	1480.4431	1480.7845	1489.391	1499.2377	1522.2458	1687.7642	1822.9927	2975.304	3035.7937	3040.6087	3051.0654	3052.3291	3078.8175	3091.5701	3117.7519	3420.7528	3606.1134
N=C1NCCCCC1=O	[NH][C]1NCCCCC1=O	
InChI=1S/C6H10N2O/c7-6-5(9)3-1-2-4-8-6/h1-4H2,(H2,7,8)	InChI=1S/C6H10N2O/c7-6-5(9)3-1-2-4-8-6/h1-4H2,(H2,7,8)
