17
gdb 33063	4.76277	0.79376	0.71182	3.2702	72.72	-0.1914	0.0305	0.2219	1538.3068	0.135887	-455.161963	-455.152887	-455.151943	-455.196587	32.63	
O	-0.0818512298	 1.4312023394	-0.1127860038	-0.415057
C	 0.0315567947	 0.0200807528	-0.0866413168	-0.063965
C	-1.3796646652	-0.5399811309	 0.1230617692	-0.309578
C	-1.4279922734	-2.0276575642	 0.1272645216	 0.295155
C	-1.68207722	-2.9020528818	 1.1091229548	-0.139958
O	-1.593752731	-4.2014986182	 0.6331826028	-0.214682
C	-1.2822388481	-4.1444241151	-0.7114073825	 0.468713
N	-1.1405538906	-5.113182383	-1.5157513814	-0.609131
N	-1.1520768153	-2.8028988154	-1.005826148	-0.388538
H	 0.7979780583	 1.8049684947	-0.2168344703	 0.291229
H	 0.4539450017	-0.3682914652	-1.0271219281	 0.089679
H	 0.6836763312	-0.3248460123	 0.730042945	 0.099674
H	-1.7682997532	-0.1657805893	 1.0744359691	 0.129622
H	-2.0282497387	-0.1354709529	-0.6646611137	 0.123662
H	-1.9234038421	-2.7811280765	 2.1501276121	 0.146942
H	-1.2945258891	-5.9986101976	-1.0413318203	 0.223908
H	-1.0367504193	-2.4752325545	-1.9479165997	 0.272323
68.5433	83.5009	93.5199	159.7276	258.8648	281.5586	328.9403	353.2713	388.7474	480.4473	615.4885	685.4533	710.3967	713.0859	753.891	776.8218	799.218	922.0443	1000.4474	1018.4714	1048.3149	1077.1024	1085.7593	1101.9554	1212.4109	1225.3495	1242.209	1257.1883	1307.8996	1337.77	1366.0872	1433.1811	1457.5158	1482.3923	1527.4334	1716.5585	1792.1014	2971.826	3004.2242	3032.5583	3098.3939	3300.2364	3543.4222	3699.4698	3833.5276
OCCC1=COC(=N)N1	OCCC1=CO[C@H]([NH])N1	
InChI=1S/C5H8N2O2/c6-5-7-4(1-2-8)3-9-5/h3,8H,1-2H2,(H2,6,7)	InChI=1S/C5H9N2O2/c6-5-7-4(1-2-8)3-9-5/h3,5-8H,1-2H2/t5-/m1/s1
