18
gdb 82167	2.8879	1.65255	1.31102	3.8053	70.12	-0.2366	0.0627	0.2993	1006.2926	0.148066	-439.039556	-439.031779	-439.030835	-439.071407	30.955	
C	-0.0539754347	 1.5303782459	 0.0328317388	-0.508592
C	 0.1197139286	 0.0351663694	 0.0102318525	 0.311954
N	-0.7767610849	-0.8483995249	 0.7899379831	-0.367157
C	 0.6589438319	-0.7727563965	 1.1347591847	-0.13538
C	 1.4477535798	-1.9783568065	 0.5941253609	 0.116206
O	 0.9060579813	-3.216774142	 0.9928369396	-0.437353
C	 1.4374237667	-1.7889645206	-0.933260738	-0.009698
O	 0.1317953421	-1.9558122434	-1.4985826658	-0.24155
C	 0.6060839101	-0.6273624181	-1.2786744285	-0.006702
H	 0.840416145	 2.0375971094	-0.3458961224	 0.129254
H	-0.9008163374	 1.8401083037	-0.5902458069	 0.133143
H	-0.2328435173	 1.8894325501	 1.0513381921	 0.120019
H	-1.3085038466	-0.2834031408	 1.4493480112	 0.230009
H	 0.9466544045	-0.329150175	 2.0831681998	 0.087703
H	 2.4783299589	-1.9502492421	 0.9635175352	 0.084849
H	-0.0204510805	-3.1798632996	 0.7166483383	 0.300592
H	 2.2595993132	-2.1595270911	-1.5411042526	 0.098791
H	 0.7492301794	-0.0219676378	-2.170636502	 0.093912
139.7622	186.2898	206.2861	256.9972	297.3367	364.1306	438.154	493.8931	540.6399	562.4026	592.2799	721.1085	780.2469	816.6809	858.6264	877.2445	888.4183	933.8695	965.153	972.9306	1022.8424	1059.1919	1078.0758	1094.0086	1111.2313	1123.8098	1145.6847	1253.44	1276.3398	1288.7214	1302.6748	1313.601	1355.5382	1412.7764	1419.635	1445.3752	1453.3208	1485.2449	1499.9255	3026.1411	3062.5565	3089.062	3101.1572	3135.3309	3147.3423	3154.2959	3486.4333	3757.4541
CC12NC1C(O)C1OC21	C[C@]12N[C@H]1[C@@H](O)[C@H]1O[C@@H]21	
InChI=1S/C6H9NO2/c1-6-4(7-6)2(8)3-5(6)9-3/h2-5,7-8H,1H3	InChI=1S/C6H9NO2/c1-6-4(7-6)2(8)3-5(6)9-3/h2-5,7-8H,1H3/t2-,3+,4-,5+,6-/m0/s1
