17
gdb 15348	6.15873	0.91968	0.88807	5.0874	69.65	-0.2811	0.0297	0.3109	1314.8216	0.140875	-363.861483	-363.852782	-363.851838	-363.895744	30.331	
C	-0.1041922365	 1.4493340955	-0.4946682458	-0.378165
C	 0.019257921	 0.1547336119	 0.3192546878	-0.217359
C	-1.3121728113	-0.5449038959	 0.4559041774	 0.074119
O	-1.8251199971	-1.230964083	-0.6972093256	-0.24925
C	-1.52606306	-2.0009671189	 0.4620705206	 0.056764
C	-0.3977341234	-3.0155561403	 0.3481457507	-0.371295
C	-0.8550339286	-4.2823431809	-0.2241781057	 0.263838
N	-1.2253207915	-5.2839035658	-0.6647543547	-0.29774
H	 0.8631782684	 1.951912834	-0.5802794582	 0.119342
H	-0.4700611288	 1.2358794517	-1.5031132461	 0.139565
H	-0.8046312321	 2.1470855533	-0.0235439013	 0.120459
H	 0.7498986466	-0.5076452569	-0.1545667275	 0.103897
H	 0.3960388233	 0.3788989949	 1.3256674579	 0.107614
H	-2.0715255037	 0.048488925	 0.9716754764	 0.096464
H	-2.4034249935	-2.3834290441	 0.9856607412	 0.111707
H	 0.408718219	-2.6205556864	-0.2744193831	 0.16236
H	 0.0193713879	-3.2163098841	 1.342581936	 0.157682
42.2754	76.5143	114.3795	181.3341	220.3581	271.8414	362.7415	384.2834	457.3639	511.1499	572.9727	748.9484	816.7862	822.9516	903.3774	948.7399	964.9114	1016.4033	1033.6901	1099.3475	1111.1503	1166.1827	1182.7468	1239.148	1292.3536	1301.1049	1317.54	1346.3578	1407.0861	1413.369	1446.5629	1473.5767	1492.8739	1498.8516	1509.1998	2366.3406	3030.2719	3040.0601	3046.2931	3071.3933	3086.5882	3099.4577	3110.7456	3116.3632	3121.1873
CCC1OC1CC#N	CC[C@H]1O[C@H]1CC#N	
InChI=1S/C6H9NO/c1-2-5-6(8-5)3-4-7/h5-6H,2-3H2,1H3	InChI=1S/C6H9NO/c1-2-5-6(8-5)3-4-7/h5-6H,2-3H2,1H3/t5-,6+/m1/s1
