17
gdb 43047	2.46208	2.22015	1.62896	3.8473	70.81	-0.2236	-0.0135	0.2102	871.0418	0.139134	-421.826765	-421.820445	-421.819501	-421.857337	26.038	
O	-0.0012847101	 0.0390498188	 0.2344816267	-0.340118
C	-0.0468658555	 1.230074085	 0.0960261783	 0.440884
C	-1.2425656554	 2.1651270805	-0.0053168436	-0.158959
C	-0.8612325834	 3.1140063344	 1.1831748355	-0.256177
C	 0.2982439453	 3.5390737746	 0.2496602002	-0.056804
C	-0.6550482803	 3.2857318941	-0.9551361642	-0.045374
C	 0.2295932038	 2.8146118083	-2.1038771853	-0.113317
O	 1.4067525668	 2.3016903921	-1.4548477759	-0.274343
C	 1.1080149604	 2.2566151394	-0.0530025269	 0.000164
H	-2.2293327524	 1.7235126438	-0.1246533159	 0.087613
H	-1.593435487	 3.9133813756	 1.3154774578	 0.115026
H	-0.6304757067	 2.6568970023	 2.1492957512	 0.113884
H	 0.8559236138	 4.4657663596	 0.3741780804	 0.081223
H	-1.3690728541	 4.0771459028	-1.1819556898	 0.088146
H	-0.240133975	 2.0311991387	-2.7126436584	 0.112547
H	 0.5246544858	 3.6381986278	-2.7647244997	 0.110366
H	 2.0243648338	 2.0513559923	 0.4973639295	 0.095239
135.58	241.7509	330.9864	386.1848	452.3777	537.1006	648.1418	704.744	760.6618	798.0073	799.7325	838.8499	878.5346	907.4615	921.9691	952.1887	970.3569	1009.2039	1022.6163	1039.4866	1060.2288	1080.94	1100.2283	1147.0078	1161.866	1204.9602	1224.3195	1228.6742	1245.8546	1276.8651	1285.6118	1316.5159	1322.1603	1373.2452	1510.5429	1519.4718	1877.5885	3016.9537	3057.6002	3060.3616	3119.6239	3120.4879	3130.0554	3145.6388	3149.8135
O=C1C2CC3C2COC13	O=C1[C@H]2C[C@@H]3[C@H]2CO[C@H]13	
InChI=1S/C7H8O2/c8-6-3-1-4-5(3)2-9-7(4)6/h3-5,7H,1-2H2	InChI=1S/C7H8O2/c8-6-3-1-4-5(3)2-9-7(4)6/h3-5,7H,1-2H2/t3-,4+,5-,7-/m0/s1
