22
gdb 109618	1.87435	1.36268	1.02545	1.6861	90.42	-0.2196	0.0492	0.2689	1330.6987	0.190317	-367.155114	-367.144208	-367.143263	-367.190749	40.1	
C	-1.1650395034	 2.2081233285	-0.4076567232	-0.372147
C	-0.9026207932	 0.9565683272	-1.2436139709	-0.116875
N	-1.646935708	-0.1748509381	-0.6996359546	-0.121272
C	-1.3629350861	-1.5437048466	-1.1091216103	-0.030183
C	-0.3134346108	-1.9208434371	-2.1332046125	-0.423152
C	-1.0331312983	-1.084984652	 0.2941610159	 0.063488
C	 0.4094718412	-0.936910275	 0.7596570821	-0.467167
C	-1.9272164688	-1.4741126816	 1.3636291158	 0.305962
C	-2.6411153139	-1.8197301412	 2.2676842311	-0.430038
H	-0.6667194585	 3.0774748143	-0.8481089428	 0.108682
H	-2.2379614975	 2.408874747	-0.3476616484	 0.130212
H	-0.7897987178	 2.0844677636	 0.6131878706	 0.120737
H	-1.2687562812	 1.111144276	-2.2659689656	 0.10438
H	 0.181887346	 0.7905096414	-1.3231016291	 0.081026
H	-2.2703599007	-2.1405634249	-1.2023274146	 0.09393
H	 0.6145164364	-1.3547163948	-2.0415856337	 0.120817
H	-0.069536359	-2.9845347468	-2.0431262115	 0.127516
H	-0.7023110295	-1.7584824066	-3.1446546349	 0.127493
H	 1.0994405024	-0.705260543	-0.0518360442	 0.120117
H	 0.4875943142	-0.14645104	 1.5125166023	 0.133319
H	 0.7393889995	-1.8700030811	 1.2256690015	 0.133839
H	-3.2855142329	-2.115166049	 3.057997787	 0.189313
71.4822	101.8008	139.4865	154.4399	156.8405	189.8902	214.6359	257.9512	300.7027	323.3327	413.4917	447.5464	521.0536	533.5144	559.2204	602.7459	640.3183	675.7882	747.5064	795.926	812.2923	933.6113	956.8297	992.8184	1056.4917	1075.318	1101.5024	1126.8861	1150.9404	1164.2481	1183.349	1249.5954	1309.6266	1351.6991	1383.9598	1400.4654	1409.4778	1418.6724	1426.2455	1476.92	1485.8703	1489.6815	1495.7609	1498.3082	1507.845	1515.7002	2233.7447	2988.8893	3039.5783	3040.3014	3044.7139	3049.5778	3094.4041	3097.1643	3107.8418	3110.1525	3123.0011	3136.2599	3147.9591	3504.0604
CCN1C(C)C1(C)C#C	CCN1[C@@H](C)[C@]1(C)C#C	
InChI=1S/C8H13N/c1-5-8(4)7(3)9(8)6-2/h1,7H,6H2,2-4H3	InChI=1S/C8H13N/c1-5-8(4)7(3)9(8)6-2/h1,7H,6H2,2-4H3/t7-,8-,9?/m0/s1
