20
gdb 62963	2.08962	1.85252	1.42058	1.4662	79.24	-0.225	0.0729	0.2979	1035.1395	0.169795	-403.083777	-403.075137	-403.074193	-403.116267	34.557	
C	-0.0562045737	 1.5510777367	-0.0746069645	-0.456875
C	 0.016494122	 0.035897503	 0.0056292915	 0.314673
O	-1.2650476037	-0.5650807441	-0.0971787705	-0.476056
C	 1.060444276	-0.6709725869	-0.9024741507	-0.105925
N	 2.3979232705	-0.1721167704	-0.4989772979	-0.349625
C	 1.7435157032	-1.2636061752	 0.2756131305	-0.172156
C	 0.7633920404	-0.5970945095	 1.2146804593	 0.404245
C	 0.9962840809	-0.0322092576	 2.582101555	-0.330779
C	 0.0872057004	-1.2259493555	 2.3911703044	-0.324398
H	 0.9455924594	 1.9805427046	-0.0140416975	 0.147562
H	-0.5084984958	 1.8681123844	-1.0235256171	 0.097153
H	-0.6682571894	 1.9502547428	 0.7407933361	 0.117115
H	-1.7201232575	-0.1542050053	-0.8405987877	 0.273685
H	 0.8767437489	-1.0874431303	-1.8860125127	 0.087086
H	 3.0768212759	-0.6111384525	-1.1217041001	 0.226927
H	 2.2203952525	-2.229575463	 0.3917401303	 0.090878
H	 1.9687246361	-0.1865034047	 3.0381384567	 0.111213
H	 0.5383819515	 0.9221737999	 2.8224177028	 0.111219
H	-0.9836793219	-1.0829018882	 2.4795189241	 0.126617
H	 0.4393003443	-2.198446708	 2.7209976882	 0.10744
118.0006	204.8878	216.5425	241.422	259.9279	290.9159	306.6363	372.3736	413.7813	526.4257	552.3093	598.6151	658.2742	770.5035	825.028	833.3994	846.5794	878.7036	915.5752	940.5843	959.9847	977.1403	981.754	1025.8226	1052.1729	1072.4471	1073.889	1103.0021	1114.7272	1164.6299	1183.7239	1205.059	1217.7867	1282.7721	1305.8545	1340.3354	1367.6641	1399.1422	1424.773	1466.337	1485.2535	1495.4086	1509.3915	3019.5766	3086.5525	3125.2096	3130.9673	3136.665	3176.8197	3190.2771	3204.7161	3222.029	3460.7514	3798.0961
CC1(O)C2NC2C11CC1	C[C@@]1(O)[C@H]2N[C@H]2C21CC2	
InChI=1S/C7H11NO/c1-6(9)4-5(8-4)7(6)2-3-7/h4-5,8-9H,2-3H2,1H3	InChI=1S/C7H11NO/c1-6(9)4-5(8-4)7(6)2-3-7/h4-5,8-9H,2-3H2,1H3/t4-,5+,6+/m0/s1
