18
gdb 73652	2.60254	1.58659	1.30944	4.3979	70.5	-0.2507	0.0118	0.2625	1031.5679	0.149401	-439.119041	-439.11096	-439.110015	-439.151823	30.638	
N	-0.1135484912	 1.4226276747	-0.1749691891	-0.587377
C	-0.0022009668	-0.0142690828	-0.0373775863	 0.110244
C	 0.8440294716	-0.799994275	-1.083242658	-0.290461
C	-0.1966037533	-1.5702942842	-1.9209148119	-0.202596
C	-1.2780711958	-1.9945808724	-0.9014386953	-0.24623
C	-1.306762771	-0.8505984777	 0.1137475385	 0.123148
O	-0.8792986482	-1.2505792357	 1.4736720473	-0.264137
C	 0.2256419529	-0.4511273993	 1.4153599456	 0.442761
O	 1.0203623424	-0.2241774098	 2.2722242893	-0.342657
H	 0.6433390264	 1.8687885914	 0.3353236169	 0.248407
H	-0.0239245588	 1.7058569226	-1.1459563846	 0.229893
H	 1.4630517362	-0.1211585463	-1.6760668674	 0.103745
H	 1.5241666925	-1.5003331064	-0.58647923	 0.122272
H	-0.6391015885	-0.9005152664	-2.6686851366	 0.104042
H	 0.2329750303	-2.416045532	-2.4643093049	 0.108412
H	-2.2509006096	-2.1695416748	-1.3670811567	 0.109926
H	-0.988390846	-2.9154400016	-0.3852956967	 0.125829
H	-2.2352190632	-0.2843756544	 0.1806104598	 0.10478
85.1026	142.69	151.7988	201.814	280.1306	328.117	400.767	492.587	555.8082	669.8042	681.7152	737.4317	769.1049	832.9001	849.5229	861.0824	886.4095	921.6749	938.4762	983.3534	1034.4876	1060.0364	1111.421	1127.595	1150.1277	1173.3463	1237.3638	1247.0512	1282.4429	1314.7597	1327.7337	1340.6346	1357.6413	1365.3018	1481.622	1488.405	1502.7931	1653.3456	1929.8805	3032.4584	3046.7571	3058.4821	3091.5978	3098.3227	3107.5428	3126.998	3490.7415	3570.0649
NC12CCCC1OC2=O	N[C@]12CCC[C@H]1OC2=O	
InChI=1S/C6H9NO2/c7-6-3-1-2-4(6)9-5(6)8/h4H,1-3,7H2	InChI=1S/C6H9NO2/c7-6-3-1-2-4(6)9-5(6)8/h4H,1-3,7H2/t4-,6-/m1/s1
