23
gdb 115864	2.36618	1.36047	1.02831	1.193	85.	-0.2539	0.0794	0.3333	1264.8474	0.206551	-388.295611	-388.28634	-388.285396	-388.32925	36.117	
C	-0.0151727477	 1.5044885542	 0.0206794558	-0.487213
C	 0.0124903844	-0.0063411622	 0.0079568962	 0.354137
C	-0.8422801897	-0.776440112	 0.9938622518	-0.339544
C	 0.6638709221	-0.8114618345	 1.1134744316	-0.07262
C	 1.3920882388	-1.9944502652	 0.4940413229	-0.22694
C	 0.767769488	-2.1438364485	-0.9110757623	-0.231407
C	 0.3247948493	-0.7167548412	-1.3133318207	-0.015145
C	-0.8132155004	-0.694686471	-2.3252674556	-0.096565
O	-0.36475455	-1.3511842683	-3.5049514855	-0.424307
H	 0.9160725862	 1.9210887131	-0.382242096	 0.113519
H	-0.8410868124	 1.9031906356	-0.5803898561	 0.114445
H	-0.1392804184	 1.888902501	 1.0382907889	 0.111934
H	-1.3817572612	-0.1909893745	 1.7314288268	 0.102974
H	-1.3713711285	-1.6692643821	 0.6761171195	 0.104659
H	 1.1159839727	-0.3073632666	 1.9618783446	 0.074567
H	 2.4604301881	-1.7581680238	 0.4154356964	 0.096362
H	 1.3104247844	-2.9138982571	 1.0846448122	 0.093096
H	 1.4540615301	-2.581228557	-1.6382397686	 0.108085
H	-0.1051032064	-2.8055401284	-0.874715231	 0.09786
H	 1.1771432936	-0.196401937	-1.7734406982	 0.072816
H	-1.6944190952	-1.2010895213	-1.8986881454	 0.082186
H	-1.1058836702	 0.3450952633	-2.5424416347	 0.082275
H	-1.0870647077	-1.3559381665	-4.1394666423	 0.284826
93.5016	128.5725	183.7824	208.6805	239.5747	266.0184	285.5533	314.7789	412.8173	445.5898	486.0736	544.9789	627.4598	714.9665	817.8269	826.2644	842.2441	895.0192	937.6036	951.453	984.4106	988.4602	1014.3089	1052.1857	1068.4043	1070.3111	1080.6934	1097.9287	1122.5403	1135.0421	1190.621	1216.9722	1241.2189	1256.1298	1270.7399	1292.4838	1321.4914	1330.2173	1344.0606	1373.7363	1403.0053	1421.5496	1457.2767	1487.6113	1489.5357	1494.7922	1502.007	1510.139	1521.9263	2961.4211	2985.2725	3007.8964	3018.8861	3027.5977	3040.8097	3066.2702	3075.0954	3092.7603	3112.0284	3124.5482	3155.252	3204.4161	3830.5618
CC12CC1CCC2CO	C[C@]12C[C@H]1CC[C@H]2CO	
InChI=1S/C8H14O/c1-8-4-6(8)2-3-7(8)5-9/h6-7,9H,2-5H2,1H3	InChI=1S/C8H14O/c1-8-4-6(8)2-3-7(8)5-9/h6-7,9H,2-5H2,1H3/t6-,7+,8+/m1/s1
