19
gdb 6367	4.62085	1.04051	0.95037	1.8938	68.67	-0.244	0.0181	0.262	1294.1869	0.163431	-402.239783	-402.229779	-402.228835	-402.275999	34.398	
C	-0.1329566888	 1.5017024453	 0.0038132866	-0.39233
C	 0.0133819976	-0.0123666378	 0.0240243168	 0.148925
C	 0.6836966068	-0.5427449632	 1.2867281849	-0.396212
O	-1.3359307283	-0.5490646557	-0.0730513509	-0.255674
C	-1.4772157984	-1.7738835543	-0.6085606843	 0.417393
O	-0.5687217273	-2.4598518517	-1.0103018636	-0.367367
C	-2.9493023355	-2.1819204368	-0.6469008331	-0.271588
N	-3.2128249561	-3.4977818513	-1.2012515057	-0.486224
H	 0.8527968596	 1.9744638793	 0.0444746383	 0.120873
H	-0.6366111491	 1.8315229979	-0.908753028	 0.124182
H	-0.7160484382	 1.8472745432	 0.8631932569	 0.125627
H	 0.5643580909	-0.3596355666	-0.8545358985	 0.108895
H	 0.1101128717	-0.2602095928	 2.1753138316	 0.120731
H	 0.7678316585	-1.6308874987	 1.2474739054	 0.140081
H	 1.6908919697	-0.1247135994	 1.3802284552	 0.119539
H	-3.3420105842	-2.1205461782	 0.3747981493	 0.136591
H	-3.4941222953	-1.4200433394	-1.2167928628	 0.136845
H	-2.8190860033	-3.544677041	-2.1372800182	 0.235153
H	-2.6897746505	-4.1891166488	-0.6703788599	 0.23456
22.4583	66.4238	85.499	151.4031	200.7634	215.6263	252.4819	286.3201	312.392	402.0509	431.8034	484.6801	584.9966	697.4599	829.5273	889.6216	919.5981	931.8776	933.2908	950.4942	965.013	1136.9493	1154.0321	1162.8763	1177.3365	1203.5277	1224.6062	1355.8474	1372.9012	1388.0915	1393.5786	1401.4885	1417.8013	1455.717	1481.5539	1486.0435	1495.9513	1511.1094	1678.1776	1809.7955	3040.5776	3042.5017	3044.5571	3073.9846	3078.0474	3110.2078	3120.2375	3121.9447	3133.6764	3492.2166	3558.6766
CC(C)OC(=O)CN	CC(C)OC(=O)CN	
InChI=1S/C5H11NO2/c1-4(2)8-5(7)3-6/h4H,3,6H2,1-2H3	InChI=1S/C5H11NO2/c1-4(2)8-5(7)3-6/h4H,3,6H2,1-2H3
