18
gdb 116614	2.99398	0.9583	0.81358	1.8891	77.1	-0.2558	-0.038	0.2178	1456.0141	0.1458	-439.088056	-439.078606	-439.077661	-439.124401	32.448	
C	-0.6097852149	-0.0687554134	 0.8252694247	-0.361635
C	 0.3872250424	 0.5121718194	-0.1772709581	-0.152094
N	 0.6677984668	-0.460320186	-1.2333566738	-0.327824
C	 1.8490845831	-0.7110211589	-1.54628521	 0.454985
O	 3.0525081615	-0.2224366518	-1.0717069596	-0.263636
C	 3.8136011707	-1.0747957239	-1.9883300531	-0.094101
C	 2.5069442947	-1.6602284576	-2.5447428252	-0.261388
C	 2.2299707232	-3.1231728657	-2.2720238323	 0.148129
O	 3.0389661249	-3.8896244168	-1.8180612565	-0.232459
H	-1.5249511019	-0.3856977297	 0.3171585163	 0.125183
H	-0.1871319827	-0.9400705972	 1.334901947	 0.120397
H	-0.870588976	 0.6770651739	 1.5826342474	 0.111359
H	-0.0530844192	 1.3970795767	-0.6542714134	 0.111571
H	 1.2990553146	 0.84172163	 0.3370935613	 0.113643
H	 4.407361161	-0.4714092892	-2.6772803995	 0.125116
H	 4.4368900382	-1.786671613	-1.445526627	 0.147701
H	 2.2655275169	-1.4252386263	-3.5854522139	 0.129025
H	 1.1929974267	-3.4394572604	-2.5098905043	 0.106027
21.4073	60.9375	112.2436	134.0198	170.4631	231.9251	262.2966	292.9229	379.7942	510.8298	639.8433	668.0658	723.8917	798.979	832.4211	903.4971	917.5602	966.0161	994.6698	1058.1602	1072.3856	1097.9087	1106.2352	1124.6274	1161.7951	1172.5537	1187.2201	1300.4504	1313.831	1344.93	1381.4896	1407.6274	1417.6404	1488.264	1492.559	1509.5522	1513.6601	1817.1134	1845.8157	2920.9358	3013.7559	3039.8323	3049.8556	3077.4581	3083.0922	3111.6488	3119.2819	3147.1774
CCN=C1OCC1C=O	CCN=C1OC[C@H]1C=O	
InChI=1S/C6H9NO2/c1-2-7-6-5(3-8)4-9-6/h3,5H,2,4H2,1H3	InChI=1S/C6H9NO2/c1-2-7-6-5(3-8)4-9-6/h3,5H,2,4H2,1H3/t5-/m1/s1
