18
gdb 70699	2.26082	1.91695	1.25341	4.8811	71.71	-0.2494	0.0034	0.2527	1032.1999	0.148897	-439.103984	-439.095949	-439.095005	-439.136501	30.747	
C	 0.1078309818	 1.5380949586	-0.0012290802	-0.469654
C	 0.1234612836	 0.0282341764	 0.0058906493	 0.145748
N	-0.8107428281	-0.7105606255	 0.8937190845	-0.347344
C	 0.6309180729	-0.7507377232	 1.1720310129	-0.090411
C	 1.2996794662	-2.0914141683	 0.9097930991	-0.225409
C	 1.8356678546	-2.1275632008	-0.5157107625	-0.079542
O	 0.8409214246	-1.7758954011	-1.4945539285	-0.232561
C	 0.1735021591	-0.6045330612	-1.3688228636	 0.432738
O	-0.3855221294	-0.1274563634	-2.3186190779	-0.334489
H	 1.0291650308	 1.9422332663	-0.433274995	 0.130965
H	-0.7274811671	 1.9029264065	-0.6042887094	 0.154353
H	 0.0123836344	 1.9262196074	 1.0178888065	 0.109865
H	-1.2785806432	-0.0434969444	 1.5041891004	 0.234868
H	 0.997209285	-0.1709947693	 2.0159663859	 0.091549
H	 2.1306112357	-2.257902414	 1.6032670659	 0.108153
H	 0.5709065604	-2.8933559885	 1.0590319628	 0.131402
H	 2.6880470947	-1.4440046572	-0.6233798727	 0.112563
H	 2.1679473239	-3.1278813083	-0.8010453476	 0.127205
79.8387	174.8728	211.7224	233.404	293.3238	301.8251	428.4274	437.5389	490.3922	534.52	624.9628	695.4035	755.7541	799.3027	877.3233	885.8398	936.1733	958.5015	977.1531	1039.3063	1080.1606	1089.6614	1117.8779	1132.9361	1168.6423	1181.902	1251.2046	1288.8654	1308.6462	1366.7145	1372.3532	1412.5712	1424.5912	1446.4761	1471.3759	1478.5697	1501.6549	1511.864	1843.7405	3023.0074	3037.3814	3051.258	3098.6737	3103.5578	3111.7246	3124.5661	3135.4252	3487.056
CC12NC1CCOC2=O	C[C@]12N[C@H]1CCOC2=O	
InChI=1S/C6H9NO2/c1-6-4(7-6)2-3-9-5(6)8/h4,7H,2-3H2,1H3	InChI=1S/C6H9NO2/c1-6-4(7-6)2-3-9-5(6)8/h4,7H,2-3H2,1H3/t4-,6-/m0/s1
