15
gdb 52954	5.19161	0.80304	0.76248	3.8299	78.5	-0.2411	-0.0346	0.2065	1489.3733	0.109576	-420.575657	-420.566885	-420.565941	-420.611209	30.821	
C	-0.0043987416	 1.4803915958	 0.0993298392	-0.514152
C	-0.0382568046	 0.0298670803	 0.0111278994	 0.325492
C	-0.074372118	-1.172805861	-0.052174718	-0.227188
C	-0.0659068411	-2.5884072589	-0.1576924164	 0.271974
C	 0.7905190903	-3.4762541502	-1.085356241	-0.4288
C	-0.4294557221	-4.4446685291	-1.1275576605	 0.428128
O	-0.702805425	-5.4005183878	-1.7873917837	-0.29251
C	-1.2084547882	-3.5635291686	-0.1552035415	-0.179375
O	-0.347295676	-3.4070901011	 0.9858381902	-0.272249
H	 0.894468491	 1.8836726833	-0.3791808763	 0.157552
H	-0.8755461488	 1.9295571961	-0.3898535149	 0.156965
H	-0.001669526	 1.8077023672	 1.1445754934	 0.161076
H	 0.9787250287	-3.0537417012	-2.076124116	 0.143421
H	 1.7188953823	-3.8444783358	-0.6457940461	 0.140063
H	-2.2725311409	-3.4170932289	-0.010945208	 0.129602
15.746	69.231	94.9975	162.5244	292.5088	331.4595	393.3736	435.2585	462.6092	528.7403	538.6475	580.5786	676.5805	760.2557	844.6364	914.5498	965.9577	980.3715	1022.2845	1051.0323	1052.2297	1066.8879	1112.2588	1192.9353	1198.2151	1232.204	1405.5925	1418.4122	1448.3894	1473.1325	1474.8897	1903.7237	2369.7708	3030.3521	3073.8402	3093.1403	3095.804	3138.377	3196.8294
CC#CC12CC(=O)C1O2	CC#C[C@]12CC(=O)[C@H]1O2	
InChI=1S/C7H6O2/c1-2-3-7-4-5(8)6(7)9-7/h6H,4H2,1H3	InChI=1S/C7H6O2/c1-2-3-7-4-5(8)6(7)9-7/h6H,4H2,1H3/t6-,7+/m1/s1
