19
gdb 47714	2.50988	1.73356	1.161	3.1094	76.98	-0.2408	0.014	0.2549	1077.1855	0.162305	-419.205833	-419.198038	-419.197094	-419.238219	30.533	
N	-0.1159839788	 1.2388258762	 0.3386222108	-0.537782
C	-0.0417145998	 0.016267801	 0.0074054793	 0.342297
O	 1.1536588134	-0.5706027866	-0.2677863796	-0.255221
C	 1.2211957527	-1.7900125456	-1.0277272154	-0.067182
C	 0.1106106106	-2.7720191723	-0.6880681681	-0.226486
C	-1.2380750958	-2.0745787014	-0.874366788	-0.286327
C	-1.2794677709	-0.8369097505	-0.0026001519	 0.262835
C	-2.0551945178	-0.8274307652	 1.2805036225	-0.259727
N	-2.5584989414	-0.1328771855	 0.0942588529	-0.363019
H	 0.8077237594	 1.6715099542	 0.3321923529	 0.222292
H	 1.1841454029	-1.5319592379	-2.0953860043	 0.111569
H	 2.2116855954	-2.198767581	-0.8137552424	 0.119795
H	 0.2018127622	-3.6495691454	-1.3367904757	 0.107418
H	 0.2226142553	-3.1143040779	 0.3475489008	 0.113441
H	-1.364692568	-1.7866460496	-1.9264776016	 0.10929
H	-2.0759065558	-2.730133553	-0.6230498814	 0.111201
H	-2.607359753	-1.7197700452	 1.5665969832	 0.113678
H	-1.6591333851	-0.2340073326	 2.0986779266	 0.129573
H	-2.3453793254	 0.8609918983	 0.1864520094	 0.252356
83.178	120.2333	263.7363	283.5062	314.6142	380.8064	408.7732	455.6135	534.3399	597.0662	666.3392	712.1676	839.7208	869.6119	881.5645	889.5044	921.1745	936.9826	971.4469	992.8408	1008.0643	1050.7588	1106.4534	1117.0983	1135.7755	1143.5408	1200.9002	1228.3396	1264.2316	1300.3804	1302.9206	1338.9046	1372.4892	1377.8988	1404.9883	1437.6453	1479.8469	1491.8307	1500.728	1514.4187	1728.4078	3010.6074	3024.166	3038.7728	3085.4141	3093.2647	3100.1095	3104.1507	3202.6181	3465.0089	3490.501
N=C1OCCCC11CN1	[NH][C]1OCCC[C@]21CN2	
InChI=1S/C6H10N2O/c7-5-6(4-8-6)2-1-3-9-5/h7-8H,1-4H2	InChI=1S/C6H10N2O/c7-5-6(4-8-6)2-1-3-9-5/h7-8H,1-4H2/t6-/m1/s1
