15
gdb 129520	5.11023	0.99834	0.83611	2.4781	69.79	-0.2127	0.0241	0.2368	1289.6165	0.115556	-450.188615	-450.180586	-450.179642	-450.221714	29.959	
N	-0.220283796	 1.4044288526	 0.1008765018	-0.573281
C	 0.0983513833	 0.0523703891	 0.0383456026	 0.459124
O	 1.2443033892	-0.3530160193	 0.041434391	-0.380083
N	-1.0123934088	-0.7650165562	 0.0169225469	-0.44834
C	-0.9910733232	-2.1576365035	-0.0007116547	 0.45153
N	-2.1579708907	-2.7956716361	 0.0528058105	-0.338507
N	-1.8114387767	-4.1025260467	 0.0106480452	-0.185201
C	-0.4754143277	-4.2922654084	-0.0673486111	-0.017515
C	 0.1089068522	-3.0435131843	-0.0780642115	-0.283232
H	 0.5787759243	 1.9906640573	-0.0871793037	 0.262888
H	-1.0689368038	 1.7149882014	-0.3482093402	 0.248847
H	-1.9277141863	-0.3633705379	 0.1482530517	 0.254619
H	-2.5372816504	-4.7961070721	 0.0416725792	 0.274807
H	-0.0441439057	-5.2801603062	-0.1074178773	 0.132694
H	 1.1495744002	-2.7838943998	-0.1244385705	 0.141651
64.7291	87.5003	172.4274	327.8978	364.3365	371.9125	390.3887	437.1163	509.1469	548.0126	630.6018	651.6284	721.5512	765.8226	778.3269	807.9813	852.6917	943.8024	977.1769	1037.2331	1080.6648	1093.7804	1114.312	1213.9765	1307.2054	1313.3674	1399.0383	1487.5272	1516.2875	1529.8373	1617.4142	1630.9447	1805.7717	3262.3117	3323.7596	3574.3327	3631.116	3688.7581	3692.7322
NC(=O)NC1=NNC=C1	NC(=O)Nc1n[nH]cc1	
InChI=1S/C4H6N4O/c5-4(9)7-3-1-2-6-8-3/h1-2H,(H4,5,6,7,8,9)	InChI=1S/C4H6N4O/c5-4(9)7-3-1-2-6-8-3/h1-2H,(H4,5,6,7,8,9)
