18
gdb 36433	4.7723	0.94381	0.88498	2.0389	78.32	-0.2209	0.0382	0.2591	1324.7846	0.146587	-401.848962	-401.840661	-401.839716	-401.882348	31.187	
C	-0.0290241421	-1.2155709748	-0.0903857474	-0.425659
C	-0.0549083056	-0.0171561134	-0.0119145762	 0.306943
C	-0.0817856679	 1.4377665963	 0.1138952338	-0.321248
N	 1.2505532444	 2.0112198095	 0.0252653719	-0.083193
C	 2.1903133649	 1.7470470205	 1.1485246298	-0.190819
C	 2.5290181652	 3.2485029433	 1.208135609	 0.104981
O	 3.4963704835	 3.6877123673	 0.2367001431	-0.295939
C	 2.4583646141	 4.0769430053	-0.7011787772	-0.073073
C	 1.3726827729	 3.4782847086	 0.2058087119	-0.044975
H	-0.0085643349	-2.2742267272	-0.1708524775	 0.198502
H	-0.6911975423	 1.862913981	-0.6942093508	 0.134295
H	-0.5948433302	 1.6987757561	 1.0625882872	 0.104022
H	 1.68226205	 1.4079237258	 2.0643515393	 0.095595
H	 3.0087183095	 1.0624667595	 0.909935871	 0.12024
H	 2.662731364	 3.7221370923	 2.1826816382	 0.084549
H	 2.4185754925	 5.1685754887	-0.8120472504	 0.09711
H	 2.573235369	 3.5984265714	-1.6787398491	 0.112634
H	 0.4494951931	 4.0298316096	 0.3976326433	 0.076034
64.4046	93.9785	143.9413	261.2726	290.2446	342.1951	359.5543	404.6165	505.6218	614.9288	662.2729	696.4462	775.0356	823.8127	836.8776	926.7437	951.7612	973.8598	975.7828	1004.4656	1009.0473	1057.9141	1074.8667	1094.3791	1158.1482	1163.1674	1194.4981	1205.51	1218.1273	1267.9829	1290.0767	1316.8314	1338.5598	1358.3701	1395.0633	1477.6534	1494.7007	1504.1837	2243.2574	2885.5604	2988.1346	3012.0056	3032.5036	3079.3417	3085.7874	3091.043	3093.7356	3505.9059
C#CCN1CC2OCC12	C#CCN1C[C@H]2OC[C@@H]12	
InChI=1S/C7H9NO/c1-2-3-8-4-7-6(8)5-9-7/h1,6-7H,3-5H2	InChI=1S/C7H9NO/c1-2-3-8-4-7-6(8)5-9-7/h1,6-7H,3-5H2/t6-,7-/m1/s1
