16
gdb 49466	2.58634	1.52147	1.30139	4.2185	69.03	-0.2566	-0.0328	0.2237	1011.1104	0.124314	-437.910112	-437.902466	-437.901522	-437.942841	28.492	
O	 0.2564748279	 0.1578728755	-0.4671013413	-0.294076
C	 0.2232529379	 1.3149887198	-0.1221940834	 0.142747
N	 1.280273889	 1.9938399349	 0.44806772	-0.061644
C	 2.6755123298	 1.9502868077	 0.0878386966	-0.045449
C	 3.0025058983	 1.5548509423	-1.3361845215	-0.344411
C	 2.3120317161	 2.6053468196	-2.224927788	 0.385438
O	 2.2527700387	 2.5736596233	-3.4230010244	-0.290254
C	 1.7293176312	 3.7310863646	-1.3429121594	-0.343788
C	 1.8905307509	 3.2547976025	 0.0852076329	-0.062628
H	-0.6926483939	 1.9358832593	-0.1601340139	 0.089667
H	 3.3668352658	 1.7091194987	 0.8890816009	 0.114006
H	 4.0818708055	 1.5820986163	-1.5231674409	 0.13681
H	 2.6419498724	 0.5565249819	-1.596865721	 0.173471
H	 2.3108208625	 4.6448388363	-1.5157231547	 0.142833
H	 0.699933106	 3.9507200049	-1.639383827	 0.145203
H	 1.9966768019	 3.9806963423	 0.8855830151	 0.112077
59.2694	126.988	162.4391	250.6	352.3841	425.6587	460.3669	484.501	580.0513	644.6541	705.007	763.7511	779.8812	839.3296	888.1674	915.0689	1016.9002	1032.1603	1041.3072	1058.0974	1106.5893	1118.2822	1125.2615	1174.8439	1218.5568	1276.4276	1283.3063	1338.3261	1349.6262	1417.7364	1440.0401	1441.9416	1453.5507	1790.6278	1855.5209	2948.9165	3049.2226	3057.2358	3099.5035	3113.6108	3156.0553	3165.8078
O=CN1C2CC(=O)CC12	O=CN1[C@H]2CC(=O)C[C@@H]12	
InChI=1S/C6H7NO2/c8-3-7-5-1-4(9)2-6(5)7/h3,5-6H,1-2H2	InChI=1S/C6H7NO2/c8-3-7-5-1-4(9)2-6(5)7/h3,5-6H,1-2H2/t5-,6+,7?
