19
gdb 56331	7.23069	0.48521	0.46289	6.4495	76.24	-0.2526	0.0234	0.2761	2262.5228	0.157054	-456.376035	-456.364933	-456.363988	-456.416019	36.165	
N	-0.0313499207	 1.2937847597	-0.1843703962	-0.523271
C	 0.0331939259	-0.0113980616	 0.2087018518	 0.412294
O	 1.0523672337	-0.5119691537	 0.6404892144	-0.352583
C	-1.2835573429	-0.7822709001	 0.0905615107	-0.320412
C	-1.0492992739	-2.2837405451	-0.0840310495	-0.183178
C	-2.342389817	-3.0774140235	 0.007624124	-0.079468
O	-2.0290391433	-4.4541141288	-0.210500558	-0.181115
C	-3.0264963113	-5.3334188886	-0.0069483322	 0.130672
N	-2.8513832181	-6.5596615802	-0.2504787578	-0.437494
H	 0.7920285464	 1.8643426409	-0.0840342821	 0.262633
H	-0.8717564487	 1.7119360145	-0.5411917707	 0.257497
H	-1.8479545894	-0.5928937206	 1.014745387	 0.129068
H	-1.8906099621	-0.377512407	-0.7284539382	 0.102757
H	-0.5783626403	-2.4817944503	-1.0525213344	 0.123113
H	-0.3470089363	-2.6266311765	 0.6796884361	 0.144873
H	-2.8061325391	-2.9493711165	 0.9965756366	 0.10461
H	-3.066323079	-2.7396171258	-0.7483042106	 0.102827
H	-3.9470204128	-4.8724434481	 0.3800635282	 0.079657
H	-3.6970856314	-7.0805518289	-0.0279889492	 0.227521
19.3457	27.4988	68.0022	79.1269	85.8321	95.3169	147.4144	220.8962	276.8923	388.4789	479.9355	522.8454	605.2186	640.6591	674.0876	763.0733	822.0033	850.2059	881.2117	1002.2621	1044.919	1060.304	1069.1681	1097.7169	1120.8596	1141.6089	1211.8996	1248.8391	1297.1441	1300.0853	1312.4154	1339.4165	1403.1645	1415.0893	1436.2728	1466.6697	1497.1639	1519.7515	1617.3671	1750.0247	1801.4759	2983.6773	3011.7363	3014.2022	3024.9904	3052.8142	3064.0318	3118.7938	3518.3227	3605.1738	3743.1633
NC(=O)CCCOC=N	NC(=O)CCCO[CH][NH]	
InChI=1S/C5H10N2O2/c6-4-9-3-1-2-5(7)8/h4,6H,1-3H2,(H2,7,8)	InChI=1S/C5H10N2O2/c6-4-9-3-1-2-5(7)8/h4,6H,1-3H2,(H2,7,8)
