20
gdb 92053	2.72932	1.48686	1.09414	2.2819	78.27	-0.2191	-0.0167	0.2024	1148.0451	0.171564	-403.149333	-403.140805	-403.139861	-403.183283	32.371	
C	-0.3034236302	 1.5076591286	 0.001476145	-0.401459
C	 0.0861649014	 0.0324728323	 0.0123454082	-0.078543
C	 0.9637947527	-0.3713295518	-1.1957323999	-0.244142
C	 1.3484740751	-1.8471718068	-1.1653244247	-0.014507
C	 2.6773043086	-2.2600260745	-0.6338306249	-0.242703
N	 1.4636520177	-2.5705721181	 0.1130127067	-0.094187
C	 1.2177319043	-1.8465445799	 1.3622509226	-0.253547
C	 0.8368455543	-0.3664673583	 1.2737648049	 0.364246
O	 1.0913405227	 0.4022263946	 2.1719885263	-0.311581
H	 0.5853410359	 2.1445362902	 0.0384773109	 0.127674
H	-0.8653479256	 1.751193207	-0.9054686158	 0.108279
H	-0.9173511991	 1.757636879	 0.8698938168	 0.129766
H	-0.8179147521	-0.5948952507	-0.0189285066	 0.098067
H	 0.4223260493	-0.1534708459	-2.1214257978	 0.111171
H	 1.8577671901	 0.2633663142	-1.2051525481	 0.11387
H	 0.8976759171	-2.4546084855	-1.9472362906	 0.095955
H	 3.2078692394	-3.1170958509	-1.0408556095	 0.116534
H	 3.3226909334	-1.4617405174	-0.2665411955	 0.111167
H	 0.3640364096	-2.3315949424	 1.8603139474	 0.133114
H	 2.0714932754	-1.9490556435	 2.0381068146	 0.130827
28.9842	100.2688	182.2128	264.6252	277.9179	322.583	376.7428	408.9093	471.1855	517.3226	575.58	686.094	709.6588	803.8566	814.1702	881.208	909.528	930.4648	948.8195	1022.1209	1041.652	1072.4033	1112.2992	1123.4398	1130.5356	1150.7431	1165.8557	1179.4612	1217.0164	1259.4318	1302.962	1325.9573	1334.1935	1339.5101	1386.6691	1403.1709	1412.8454	1461.2093	1487.0551	1492.1915	1496.7458	1513.8454	1811.618	2992.5962	2998.2414	3035.7018	3044.6311	3078.2902	3081.7806	3090.3153	3113.3436	3123.3984	3125.7361	3170.722
CC1CC2CN2CC1=O	C[C@H]1C[C@H]2CN2CC1=O	
InChI=1S/C7H11NO/c1-5-2-6-3-8(6)4-7(5)9/h5-6H,2-4H2,1H3	InChI=1S/C7H11NO/c1-5-2-6-3-8(6)4-7(5)9/h5-6H,2-4H2,1H3/t5-,6-,8?/m0/s1
