15
gdb 70045	4.07173	1.20251	1.03704	5.2409	72.99	-0.2683	-0.0588	0.2095	1132.8938	0.112689	-416.816463	-416.80881	-416.807866	-416.848565	28.854	
C	-0.006263014	 1.503682306	-0.0898421378	-0.476975
C	 0.0622790087	 0.0126259936	 0.0333789701	 0.386733
C	-0.823583323	-0.8311460739	 0.8977488146	-0.346526
C	 0.677103283	-0.8456447048	 1.1408850927	-0.068209
N	 1.409187861	-1.8941841	 0.4803636524	-0.289326
C	 1.2163938318	-1.7074698547	-0.7674227042	 0.291188
O	 0.4869667836	-0.6360870584	-1.1728338811	-0.266149
C	 1.7316127535	-2.5425015365	-1.8113417924	 0.279912
N	 2.1439032398	-3.2119053009	-2.6578963436	-0.315054
H	 0.9536779156	 1.9133369266	-0.4169528756	 0.140458
H	-0.7743319442	 1.8016146083	-0.8106256086	 0.143432
H	-0.2609373788	 1.9450642225	 0.8773121675	 0.133165
H	-1.4179348051	-0.2990812663	 1.6320651853	 0.132512
H	-1.2843705205	-1.7209349031	 0.4821434302	 0.137363
H	 1.0887662885	-0.4744009285	 2.0710921305	 0.117475
117.5759	158.14	191.991	234.0109	314.9158	379.2948	422.6536	520.8603	543.9166	574.5523	645.4763	714.6058	751.1264	810.6231	874.1354	942.3462	956.7601	972.3821	1029.2483	1048.3186	1090.1023	1106.9252	1142.2558	1212.5515	1272.6295	1307.6728	1387.6422	1426.7291	1470.6878	1477.524	1499.0464	1659.2016	2370.3395	3043.2571	3111.8988	3125.7326	3135.195	3192.3801	3230.0896
CC12CC1N=C(O2)C#N	C[C@]12C[C@H]1N=C(O2)C#N	
InChI=1S/C6H6N2O/c1-6-2-4(6)8-5(3-7)9-6/h4H,2H2,1H3	InChI=1S/C6H6N2O/c1-6-2-4(6)8-5(3-7)9-6/h4H,2H2,1H3/t4-,6+/m1/s1
