23
gdb 76711	2.94477	0.74432	0.69861	2.8589	87.33	-0.2449	-0.0185	0.2264	1729.5019	0.20328	-388.293719	-388.282898	-388.281954	-388.330887	38.349	
C	-0.2801828078	 0.9538085937	-1.7321144491	-0.409547
C	-0.0053583593	-0.2330077251	-0.8317001068	-0.015482
C	 1.3903190791	-0.6321779135	-0.39321115	-0.043918
C	 2.6377461797	 0.1186718672	-0.8125398831	-0.405803
C	 0.4020227936	-0.0965412713	 0.624932788	-0.020531
C	 0.5705842357	 1.2413102773	 1.3174694934	-0.22339
C	-0.7640478628	 1.7836730495	 1.8694744087	-0.265889
C	-0.5666961898	 3.0446010281	 2.6764105616	 0.158161
O	-1.1046421025	 4.1000292555	 2.4603362051	-0.238822
H	 0.3621643424	 1.8112599252	-1.5185626172	 0.117763
H	-0.1256271939	 0.6868450625	-2.7835439266	 0.118406
H	-1.3176908057	 1.2903339413	-1.6284234716	 0.120179
H	-0.6701095186	-1.0697093061	-1.0341692153	 0.080606
H	 1.5540489182	-1.7057799104	-0.3320890447	 0.081059
H	 2.4785642351	 1.1953283758	-0.9048988667	 0.116292
H	 3.4462136901	-0.0312421421	-0.0881071577	 0.117049
H	 2.9966143976	-0.2403900846	-1.783521842	 0.118038
H	-0.0219541193	-0.8488298034	 1.2880449093	 0.076788
H	 1.284780915	 1.1333165406	 2.1454249125	 0.102005
H	 1.0022891937	 1.9866793887	 0.643120188	 0.109386
H	-1.4781205209	 1.9853434306	 1.0666098093	 0.125218
H	-1.2052823177	 1.0286546225	 2.5369190868	 0.115521
H	 0.1530479982	 2.934851538	 3.5233650481	 0.06691
43.5609	59.1749	79.0694	125.1603	165.3857	176.5862	222.9214	236.9447	275.0505	331.0286	438.676	495.8514	517.3691	554.9299	737.4282	770.3274	777.5372	840.3048	862.8399	943.7488	952.7931	995.0349	1034.5521	1045.1949	1056.7048	1087.6305	1122.4369	1138.5106	1161.8528	1165.2413	1190.4515	1219.18	1264.7479	1274.3922	1306.9585	1353.9943	1379.4036	1401.6624	1419.0644	1425.6265	1430.5323	1456.1198	1462.4141	1484.9373	1494.2413	1498.9277	1504.5948	1518.3019	1835.5822	2841.7001	3010.2115	3016.3143	3031.7843	3035.0711	3078.2533	3085.6144	3087.3239	3104.9447	3107.1927	3111.4984	3119.9176	3125.1462	3139.5078
CC1C(C)C1CCC=O	C[C@H]1[C@@H](C)[C@H]1CCC=O	
InChI=1S/C8H14O/c1-6-7(2)8(6)4-3-5-9/h5-8H,3-4H2,1-2H3	InChI=1S/C8H14O/c1-6-7(2)8(6)4-3-5-9/h5-8H,3-4H2,1-2H3/t6-,7+,8-
