14
gdb 132623	3.15723	1.42932	0.98571	2.2149	71.76	-0.1948	-0.0313	0.1636	1102.3789	0.102433	-474.213431	-474.205803	-474.204859	-474.24522	29.696	
N	 0.0265864801	 1.3818598011	 0.1293301774	-0.574248
C	-0.0103252381	-0.0034119695	 0.0509401808	 0.338642
C	-1.2005727829	-0.7360967657	 0.0434603885	-0.085855
N	-1.2109235128	-2.0706453457	 0.0297872931	-0.296216
C	-0.0464743518	-2.709750587	 0.0378862101	 0.228457
N	-0.017963992	-4.0951290039	 0.1017613604	-0.574774
C	 1.1338592338	-1.947446066	 0.0314173032	 0.272889
F	 2.3009976455	-2.6002551453	-0.0011173274	-0.079398
N	 1.1703940938	-0.6465870418	 0.0311512103	-0.351424
H	 0.9079721665	 1.773747994	-0.1698829948	 0.25678
H	-0.7705161235	 1.8614018318	-0.2613508048	 0.251913
H	-2.1652559113	-0.2359835687	 0.0432323621	 0.101947
H	-0.8793917919	-4.5227591801	-0.2069770702	 0.255201
H	 0.8085813944	-4.5209623434	-0.2903057688	 0.256086
125.8688	245.7843	286.2762	305.0866	333.3116	347.9474	391.1468	487.1193	510.5346	539.8161	571.1828	595.0295	620.2184	694.5905	737.5529	790.65	834.6027	893.1718	1014.0431	1071.1752	1129.136	1237.7576	1291.3345	1339.6639	1392.1367	1486.0652	1516.9636	1595.5569	1623.4347	1639.4625	1666.4388	3160.8648	3565.747	3568.3853	3676.484	3678.1669
NC1=CN=C(N)C(F)=N1	Nc1cnc(N)c(F)n1	
InChI=1S/C4H5FN4/c5-3-4(7)8-1-2(6)9-3/h1H,(H2,6,9)(H2,7,8)	InChI=1S/C4H5FN4/c5-3-4(7)8-1-2(6)9-3/h1H,(H2,6,9)(H2,7,8)
