18
gdb 9397	5.58237	0.77586	0.70654	2.6366	70.75	-0.2646	0.0325	0.297	1545.1008	0.150644	-384.894075	-384.884171	-384.883227	-384.929352	34.688	
O	-0.0509270888	 1.4622271789	-0.0384019232	-0.420098
C	 0.0381982906	 0.0459371902	-0.0087378433	-0.080757
C	-1.3786875585	-0.5116984819	 0.0016489363	-0.165584
C	-1.409715585	-2.0405978166	 0.042957526	-0.199989
C	-2.8446946686	-2.6020593263	-0.0050383255	-0.061585
O	-3.5517060173	-2.1722831114	-1.1663156168	-0.413782
C	-2.8446182681	-4.0636884669	 0.1119335837	 0.29394
C	-2.8173235575	-5.2646306141	 0.1632823039	-0.438169
H	 0.8415815638	 1.8198230327	-0.0439271185	 0.28515
H	 0.5824891419	-0.3382778887	-0.8876945095	 0.082497
H	 0.5834510785	-0.3003363415	 0.885204735	 0.082397
H	-1.907195263	-0.1008937503	 0.87095629	 0.104938
H	-1.910789162	-0.1562285636	-0.8857181319	 0.122827
H	-0.8479956492	-2.4605586168	-0.8025132001	 0.096253
H	-0.9243984294	-2.4143181335	 0.9528988681	 0.108552
H	-3.4118523004	-2.1779158297	 0.8333081718	 0.119516
H	-3.2085744413	-2.6734836768	-1.9147166083	 0.284827
H	-2.8110733057	-6.3250512635	 0.2234650124	 0.199067
61.5595	76.1881	99.0482	146.5653	187.0872	233.9492	260.726	299.2076	309.0666	388.2826	470.1106	566.8098	573.5883	631.8307	671.1778	761.3948	841.7263	902.3479	987.9899	1024.2255	1049.7403	1076.0708	1095.3014	1122.2856	1204.9511	1224.3983	1268.9564	1284.4621	1307.5063	1322.1799	1344.8512	1385.8425	1420.0615	1464.3591	1479.1651	1502.2082	1528.8112	2231.8831	2953.9423	2978.492	3015.6849	3033.2588	3038.9859	3061.8163	3099.7042	3502.8873	3803.8579	3830.6131
OCCCC(O)C#C	OCCC[C@@H](O)C#C	
InChI=1S/C6H10O2/c1-2-6(8)4-3-5-7/h1,6-8H,3-5H2	InChI=1S/C6H10O2/c1-2-6(8)4-3-5-7/h1,6-8H,3-5H2/t6-/m0/s1
