21
gdb 60025	2.1958	1.01759	0.80293	2.1925	86.	-0.2522	-0.032	0.2202	1515.3353	0.178294	-387.07329	-387.062364	-387.06142	-387.110047	38.976	
C	-0.1216057052	 1.5392488589	-0.0763562457	-0.392899
C	 0.0090118182	 0.0102411304	-0.0298041266	 0.030682
C	 0.7518801335	-0.5174729103	-1.2652397709	-0.396417
C	 0.7164550104	-0.4892785353	 1.2437700977	-0.193493
C	 0.0696941341	-0.0432584536	 2.5878976174	-0.274832
C	-1.3784450703	-0.5345730146	 2.6540129483	 0.173321
O	-2.3372958323	 0.1734702691	 2.5003116158	-0.248191
C	 0.8097437754	-0.5707385394	 3.728107183	 0.290418
C	 1.392269475	-1.0441078289	 4.6672547838	-0.422678
H	 0.856836619	 2.0232203638	 0.0323050962	 0.110113
H	-0.5437744824	 1.8589267385	-1.0343649176	 0.113561
H	-0.7807151571	 1.9139664713	 0.7114129869	 0.134626
H	-1.0057820378	-0.4099021191	-0.0454352239	 0.088157
H	 1.769396888	-0.111578168	-1.3141991944	 0.114377
H	 0.8297124117	-1.6098085708	-1.2516737627	 0.111636
H	 0.2350164487	-0.2288816147	-2.1858460285	 0.115243
H	 0.7629965708	-1.5849091728	 1.2321429238	 0.109254
H	 1.7555803379	-0.139117601	 1.25221582	 0.115619
H	 0.0371884838	 1.0496720488	 2.635517238	 0.128669
H	-1.4779215413	-1.6272658436	 2.8389997036	 0.091612
H	 1.9166346499	-1.4418069087	 5.5008332558	 0.201224
43.5984	67.2819	95.5462	114.5002	181.343	219.3989	237.5272	264.6538	295.5985	349.6837	412.3276	425.6606	457.214	505.5925	551.1411	632.9667	650.6034	811.2596	842.4477	930.8934	935.3943	963.8355	974.7667	989.1849	1014.7353	1079.3183	1135.1829	1161.2526	1194.0672	1231.2752	1281.8754	1305.8557	1336.8157	1368.329	1383.288	1401.587	1415.2996	1423.2818	1479.3307	1490.7114	1495.2635	1504.9605	1515.8817	1832.0372	2233.7296	2888.7029	3012.3751	3023.7967	3026.4194	3031.9843	3062.1047	3075.8137	3090.1677	3094.9905	3102.3756	3113.5615	3503.2692
CC(C)CC(C=O)C#C	CC(C)C[C@@H](C=O)C#C	
InChI=1S/C8H12O/c1-4-8(6-9)5-7(2)3/h1,6-8H,5H2,2-3H3	InChI=1S/C8H12O/c1-4-8(6-9)5-7(2)3/h1,6-8H,5H2,2-3H3/t8-/m0/s1
