16
gdb 84340	3.35291	1.30762	0.94849	6.2828	80.43	-0.2036	0.0096	0.2133	1181.5231	0.126042	-396.985983	-396.977314	-396.97637	-397.019328	31.591	
C	-0.0506438277	 1.4557511421	 0.0186323431	-0.351666
N	-0.0008840056	 0.0082769701	-0.0056536313	-0.029254
C	 0.0354737972	-0.7853854726	-1.144559181	-0.093111
C	 0.0420914353	-2.0950906751	-0.7632333481	-0.284283
C	 0.0308152219	-2.1168581822	 0.6705600007	 0.119982
C	 0.0498902906	-3.2253015593	 1.5417868732	 0.180902
N	 0.06771989	-4.1107344455	 2.2924612995	-0.375504
C	 0.0062873878	-0.7914455366	 1.0991264229	 0.22952
N	-0.0963827928	-0.2594675684	 2.3826041287	-0.61758
H	-0.1691865552	-0.9958790717	 3.0746901691	 0.271758
H	 0.6668065495	 0.359198344	 2.6349487484	 0.254815
H	 0.9486171023	 1.8989413861	 0.1061117684	 0.138604
H	-0.5101256462	 1.8150083612	-0.9039735712	 0.148889
H	-0.6573339979	 1.7806855654	 0.8673301553	 0.161204
H	 0.0529544716	-0.3300465864	-2.1209957282	 0.126939
H	 0.058666279	-2.9567143413	-1.4104640995	 0.118783
102.948	115.8162	130.4326	208.2849	246.3565	273.8347	292.506	425.4723	516.7975	529.5429	593.0494	612.1549	668.5427	716.6667	718.1247	763.0386	796.29	816.1789	996.3067	1052.224	1107.7572	1151.7568	1198.2947	1216.651	1273.8074	1372.6086	1387.0177	1448.1144	1488.2551	1510.1448	1532.8471	1556.022	1587.9135	1660.1626	2324.5036	3029.2056	3103.2198	3142.0159	3261.998	3281.1665	3512.9393	3605.2049
CN1C=C[C-](C#N)C1=[NH2+]	Cn1ccc(C#N)c1N	
InChI=1S/C6H6N3/c1-9-3-2-5(4-7)6(9)8/h2-3,8H,1H3/q-1/p+1	InChI=1S/C6H7N3/c1-9-3-2-5(4-7)6(9)8/h2-3H,8H2,1H3
