19
gdb 9937	3.05144	1.50547	1.41476	1.7578	79.29	-0.22	0.0488	0.2687	1023.756	0.161779	-327.864144	-327.854483	-327.853538	-327.897841	35.26	
C	 1.8866144056	-3.8788054079	 1.6117092516	-0.423023
C	 1.0440169058	-2.8174783289	 0.9370424154	-0.023179
N	 0.0764362318	-1.9764634963	 1.6316443893	-0.12054
C	-0.1253731652	-2.0827553878	 3.0681086368	-0.315789
C	 1.2931539828	-1.332996883	 1.0903212514	 0.067795
C	 2.3985259304	-0.8013548574	 1.9929482714	-0.463824
C	 1.0467848609	-0.47949126	-0.0523534129	 0.308388
C	 0.8812885538	 0.2389012195	-1.0025280223	-0.431454
H	 2.2952632712	-3.5710568387	 2.5750720746	 0.120834
H	 1.2901882385	-4.7830365086	 1.7769206134	 0.127549
H	 2.726229773	-4.1535317866	 0.9647238463	 0.128931
H	 0.6836167336	-3.1301774379	-0.0428044921	 0.094944
H	 0.7676139256	-2.3036011453	 3.6686888028	 0.099112
H	-0.5518573864	-1.1426820819	 3.4316138093	 0.129374
H	-0.8583849483	-2.8745510811	 3.2540910189	 0.126578
H	 3.3133279269	-0.6610170607	 1.4098426012	 0.134036
H	 2.1153057632	 0.1731553927	 2.4028972122	 0.132605
H	 2.6283980544	-1.4672560414	 2.8249427215	 0.118002
H	 0.7170117524	 0.8682884212	-1.8417231888	 0.189663
122.5595	130.0305	142.1975	153.8708	158.5556	237.531	254.3219	309.9909	375.7785	427.2632	507.4317	531.4863	562.9221	604.5739	641.283	670.9277	751.0641	787.1218	938.9525	986.7104	1042.1536	1075.7979	1107.2363	1136.4134	1156.8126	1171.8875	1182.0931	1255.1511	1353.3792	1397.3765	1413.889	1417.954	1455.0558	1477.9217	1484.5886	1486.6396	1501.1497	1505.7377	1512.6028	2233.9823	2999.8801	3039.3571	3049.5312	3070.008	3095.06	3100.3305	3101.2453	3108.9491	3135.0547	3148.344	3502.6896
CC1N(C)C1(C)C#C	C[C@H]1N(C)[C@]1(C)C#C	
InChI=1S/C7H11N/c1-5-7(3)6(2)8(7)4/h1,6H,2-4H3	InChI=1S/C7H11N/c1-5-7(3)6(2)8(7)4/h1,6H,2-4H3/t6-,7-,8?/m1/s1
