21
gdb 93094	2.0587	1.47392	0.91051	2.5117	80.04	-0.2416	0.0136	0.2552	1287.8618	0.183236	-424.232201	-424.223146	-424.222202	-424.265644	35.234	
O	-0.1674182464	 1.4484072639	 0.0346523029	-0.437966
C	 0.0045954742	 0.0340690541	-0.0139071319	 0.113946
C	 0.9126800273	-0.4358535304	 1.1402048555	-0.269686
C	 1.3619472472	-1.8727994409	 1.0433139739	-0.062276
C	 0.5606256811	-2.9346855033	 0.9570142034	-0.062275
C	-0.947556627	-2.9009773541	 0.9398735699	-0.269688
C	-1.5596129148	-2.0387829851	-0.1823727936	 0.113947
O	-2.9654766226	-2.2595192447	-0.2667136813	-0.437965
C	-1.4131649062	-0.5336035388	 0.0362657898	-0.168597
H	 0.7034521225	 1.8552298102	-0.013738569	 0.277904
H	 0.4768364303	-0.2580361888	-0.9665716803	 0.064387
H	 1.7969520616	 0.2127213617	 1.1595804589	 0.083919
H	 0.380924785	-0.2522716115	 2.0843934938	 0.116183
H	 2.4360334642	-2.0423010124	 1.0402429412	 0.087059
H	 1.0211012798	-3.9173249941	 0.8878555504	 0.087059
H	-1.3248771302	-3.9242197921	 0.8234042755	 0.083919
H	-1.3443198548	-2.5384991759	 1.8985940288	 0.116183
H	-1.0747479284	-2.3141834687	-1.1336702241	 0.064386
H	-3.1097259054	-3.1979101976	-0.4244343843	 0.277904
H	-1.8657338322	-0.2704842177	 1.0008804175	 0.10512
H	-2.0023819951	-0.0264024338	-0.7335499068	 0.116535
101.7715	120.0589	191.8916	278.8922	282.1617	291.3912	294.8696	352.9528	406.6957	444.5528	473.4563	506.256	508.3807	691.3262	707.8258	850.3185	880.815	918.5164	937.6322	974.7891	1001.0996	1042.425	1047.3713	1048.2809	1082.619	1098.6377	1109.9793	1164.8174	1216.7541	1222.9157	1265.9667	1285.7919	1289.1374	1323.4723	1324.9713	1334.7003	1379.89	1385.562	1416.3045	1441.6708	1445.8749	1477.2774	1478.0971	1499.4396	1724.2471	2956.9303	2965.074	3009.0794	3011.482	3036.2804	3049.9034	3050.8392	3092.0362	3140.0526	3164.3167	3816.6854	3816.6889
OC1CC=CCC(O)C1	O[C@H]1CC=CC[C@@H](O)C1	
InChI=1S/C7H12O2/c8-6-3-1-2-4-7(9)5-6/h1-2,6-9H,3-5H2	InChI=1S/C7H12O2/c8-6-3-1-2-4-7(9)5-6/h1-2,6-9H,3-5H2/t6-,7+
