15
gdb 44551	3.54011	1.54108	1.44917	5.3225	63.44	-0.2665	0.016	0.2825	914.0021	0.113887	-457.764227	-457.757745	-457.756801	-457.795388	25.503	
O	 0.0758374073	 0.2616854219	 0.6463336663	-0.324639
C	-0.0329375405	 1.3225343019	 0.1127653434	 0.433562
C	-1.3235777685	 2.1009923203	-0.1766141306	-0.375069
C	-0.8652853183	 3.4232372109	-0.7789255675	-0.097503
C	-0.6403362298	 4.6050568728	 0.1847605805	 0.014329
O	 0.0823186505	 4.0849480679	 1.302786616	-0.230354
C	 0.8276991304	 4.4483091548	 0.13947743	 0.004048
C	 0.69580155	 3.2801999669	-0.8584934247	 0.062339
O	 1.0562207512	 2.0037540886	-0.3735849666	-0.212771
H	-1.9319154983	 1.5056534747	-0.8627763728	 0.140287
H	-1.8788405328	 2.2047648773	 0.7575145379	 0.153425
H	-1.3420154704	 3.6966191475	-1.7197384243	 0.094742
H	-1.2512782062	 5.4847696159	 0.3470146515	 0.117341
H	 1.6347546373	 5.1598132218	 0.2645168941	 0.11777
H	 1.1597568582	 3.4550606368	-1.8303158832	 0.102493
86.3349	180.1164	283.8821	412.0668	508.9688	554.149	597.5473	662.8542	696.8008	768.332	821.0927	848.2279	860.7143	885.0564	914.52	922.1673	990.8838	1023.3178	1044.4633	1070.1408	1099.0558	1133.6386	1165.3664	1186.8716	1229.9308	1236.3783	1278.4248	1283.2834	1330.1221	1359.4385	1384.0888	1453.5189	1894.0918	3076.2422	3104.7602	3119.841	3129.0554	3190.0398	3204.6915
O=C1CC2C3OC3C2O1	O=C1C[C@H]2[C@H]3O[C@H]3[C@H]2O1	
InChI=1S/C6H6O3/c7-3-1-2-4(8-3)6-5(2)9-6/h2,4-6H,1H2	InChI=1S/C6H6O3/c7-3-1-2-4(8-3)6-5(2)9-6/h2,4-6H,1H2/t2-,4+,5-,6+/m1/s1
