16
gdb 55508	3.54747	1.00656	0.78883	2.4442	70.88	-0.2384	-0.0791	0.1593	1389.5724	0.123192	-471.27286	-471.26332	-471.262376	-471.307987	33.821	
C	-0.6936811764	 1.1850583077	 0.3251870385	-0.473214
C	 0.1502915119	 0.0024190037	-0.0601073736	 0.321454
O	 1.185836769	-0.310666253	 0.4791146292	-0.292565
C	-0.3898781673	-0.8418825149	-1.2412829965	 0.332385
O	-1.4271095848	-0.5334395108	-1.8121297543	-0.383369
N	 0.414294849	-1.8945884741	-1.5186839392	-0.336177
C	 0.2906990579	-2.8771838012	-2.5249455366	 0.432277
N	-0.895488102	-2.8447121738	-3.2047204253	-0.554761
N	 1.2767143415	-3.6820237218	-2.6338197245	-0.550401
H	-0.8168424394	 1.8495686612	-0.5358009508	 0.163199
H	-1.7007056134	 0.8500423696	 0.5936012406	 0.163244
H	-0.2304880727	 1.7147281055	 1.1573344899	 0.145587
H	 1.2526620972	-1.973041728	-0.9550327928	 0.286729
H	-1.4705531574	-2.0174617237	-3.1041245604	 0.281356
H	-0.9432965229	-3.3608142617	-4.0660383942	 0.253973
H	 1.1119196598	-4.3707643747	-3.36531977	 0.210283
59.2108	89.8069	99.1573	130.8944	159.6671	303.5772	324.979	373.2849	421.6439	427.804	520.3697	555.0298	571.5969	620.0345	695.5684	732.5782	775.18	808.4679	892.5817	937.0628	999.5019	1035.5846	1122.1171	1139.2722	1174.0414	1260.3006	1386.3226	1440.8709	1450.337	1457.1763	1520.8314	1626.718	1735.9242	1767.6189	1814.0031	3051.4893	3112.4061	3166.2438	3508.1053	3524.8238	3579.1474	3703.9219
CC(=O)C(=O)NC(N)=N	CC(=O)C(=O)NC(=N)N	
InChI=1S/C4H7N3O2/c1-2(8)3(9)7-4(5)6/h1H3,(H4,5,6,7,9)	InChI=1S/C4H7N3O2/c1-2(8)3(9)7-4(5)6/h1H3,(H4,5,6,7,9)
