18
gdb 37656	2.79858	2.60296	2.25292	1.7251	74.72	-0.2286	0.0878	0.3165	752.2637	0.153411	-364.795144	-364.790141	-364.789197	-364.824113	23.553	
C	-0.0340308105	 1.5631657159	 0.0178681422	-0.202105
C	 1.5052784832	 1.7616038332	 0.0002211795	-0.077621
C	 1.9619326147	 0.8969693359	 1.1964099749	-0.071618
C	 0.9877948021	-0.274504072	 1.1992042039	-0.071617
C	 2.380817395	-0.4434092929	 0.6536080214	-0.031903
N	 2.3620295207	-0.4312888532	-0.8087694191	-0.121315
C	 1.9122473767	 0.9111774505	-1.227137305	-0.045071
C	 0.9590596617	-0.2350952855	-1.2243890229	-0.04507
C	 0.0515601253	 0.0134343282	 0.0044032783	-0.077622
H	-0.512775856	 1.9634304963	 0.917978431	 0.09266
H	-0.5293505045	 1.972939775	-0.8691000428	 0.093369
H	 1.8732249193	 2.786852888	-0.0023114889	 0.063698
H	 2.3758613974	 1.3295578798	 2.098915107	 0.084118
H	 0.6400819996	-0.7578505971	 2.1038905847	 0.084118
H	 3.1319228018	-1.0668661531	 1.1230580502	 0.09081
H	 2.3680804515	 1.348190601	-2.1094498994	 0.085735
H	 0.6104399186	-0.7654907253	-2.1043806093	 0.085735
H	-0.8893898166	-0.5353261648	 0.0056369543	 0.063698
438.2311	528.6226	607.2044	650.8561	651.9554	730.9824	762.4698	777.4462	800.0244	811.3238	828.4164	846.6072	904.6456	907.7748	919.3524	923.7301	944.5849	962.662	989.0596	1017.2314	1040.8693	1042.4252	1051.2139	1080.4167	1093.4131	1103.294	1126.0923	1172.0815	1221.2501	1227.1618	1254.6863	1259.773	1265.5482	1279.5568	1288.2289	1336.1918	1363.1574	1372.8286	1497.9903	3039.0726	3091.3383	3123.1514	3125.127	3155.9923	3166.3622	3181.6049	3181.903	3195.6946
C1C2C3C4C3N3C2C3C14	C1[C@H]2[C@H]3[C@@H]4[C@H]3N3[C@H]2[C@@H]3[C@H]14	
InChI=1S/C8H9N/c1-2-4-5-3(1)7-6(2)9(7)8(4)5/h2-8H,1H2	InChI=1S/C8H9N/c1-2-4-5-3(1)7-6(2)9(7)8(4)5/h2-8H,1H2/t2-,3+,4-,5+,6+,7-,8-,9?
