17
gdb 81415	3.49035	1.19393	1.05802	3.5246	76.64	-0.2521	-0.0699	0.1822	1167.9898	0.135498	-421.793103	-421.785345	-421.784401	-421.82549	29.602	
C	-0.1189536676	 1.5146647077	 0.0211283955	-0.428379
C	-0.0159036056	-0.0004427777	 0.0363108525	 0.029695
C	 1.2380977083	-0.6175965242	-0.6887424289	 0.012242
O	 2.0307242582	-0.2508784015	 0.4845162399	-0.285802
C	 0.8138258211	-0.6348934703	 1.2085191476	-0.058705
C	 0.7252073232	-2.1300212994	 0.8661440048	 0.288735
C	 0.3709230779	-3.23592566	 1.7430942308	 0.040028
O	 0.0337918102	-3.1054724769	 2.9005967455	-0.276156
C	 1.0182986092	-2.1146842464	-0.4469759517	-0.182495
H	 0.8490814792	 1.9723321233	 0.2359470023	 0.140272
H	-0.4661173221	 1.8708305758	-0.9547539357	 0.11884
H	-0.8404582887	 1.8570687975	 0.7706173603	 0.124261
H	-0.9747853011	-0.4802847836	-0.1785365115	 0.080344
H	 1.6323876833	-0.2622030531	-1.6398321905	 0.088165
H	 0.7668191514	-0.3135748804	 2.2464190826	 0.103119
H	 0.4274682735	-4.239913844	 1.2676811042	 0.073574
H	 1.0649394796	-2.9216510167	-1.1649254677	 0.132264
96.6305	152.7301	207.9833	229.0257	284.2649	309.5308	481.2884	505.3083	559.3023	638.6175	712.7904	769.836	816.4038	829.6031	850.576	879.9339	903.3065	937.2192	1025.1112	1036.2556	1054.3748	1074.6103	1114.3256	1154.8757	1197.3451	1210.6654	1230.6633	1236.8487	1295.677	1317.2376	1375.564	1403.9696	1414.6998	1490.9741	1502.5453	1642.2544	1774.3424	2886.8777	3037.0316	3072.3559	3096.4651	3133.6252	3136.3195	3160.7526	3236.5316
CC1C2OC1C(C=O)=C2	C[C@H]1[C@H]2O[C@@H]1C(=C2)C=O	
InChI=1S/C7H8O2/c1-4-6-2-5(3-8)7(4)9-6/h2-4,6-7H,1H3	InChI=1S/C7H8O2/c1-4-6-2-5(3-8)7(4)9-6/h2-4,6-7H,1H3/t4-,6-,7-/m0/s1
