20
gdb 9779	2.89015	1.56568	1.38601	0.5489	80.24	-0.2583	0.0534	0.3117	1031.3587	0.174714	-311.830634	-311.821424	-311.82048	-311.863868	34.98	
C	-0.3354147228	 1.3992119302	 0.0238775336	-0.397786
C	 0.0592847475	-0.0917856808	-0.0326114362	-0.23118
C	 0.8454349641	-0.3785602033	-1.2347813233	 0.345662
C	 1.4999337363	-0.5984294866	-2.2194307278	-0.478828
C	 0.7850943879	-0.5630781252	 1.2371855926	 0.402282
C	 2.1164774558	 0.1021718343	 1.5297502233	-0.471562
C	-0.0894305596	-0.9532936654	 2.4047332251	-0.317966
C	 0.6288052604	-2.0168992553	 1.6055546847	-0.304255
H	 0.5485962765	 2.0416898121	 0.0392199348	 0.128659
H	-0.9306368003	 1.6718717859	-0.8514288398	 0.123218
H	-0.9251504512	 1.5977613846	 0.9238137722	 0.116751
H	-0.8701845934	-0.6737567482	-0.1010377637	 0.09799
H	 2.0708506876	-0.8012361084	-3.0913596821	 0.192376
H	 2.0042850595	 1.1761743253	 1.7141827998	 0.115461
H	 2.5788151515	-0.3364483407	 2.4192039841	 0.110963
H	 2.8087574895	-0.0258478385	 0.6911779884	 0.130429
H	 0.2679354291	-0.7327953864	 3.4051000021	 0.108943
H	-1.166409948	-0.8746468169	 2.2940629854	 0.107346
H	 0.0374696934	-2.6515516699	 0.9537584023	 0.112248
H	 1.4734330261	-2.5202553569	 2.0636639444	 0.109249
69.9748	138.1654	197.4524	218.94	232.0671	250.2577	326.6497	339.7542	347.6751	453.834	519.0209	557.0635	623.0847	631.7917	715.2049	781.5556	839.1036	877.0005	922.973	937.3937	954.8643	1010.8658	1044.0225	1068.6376	1078.0487	1095.646	1113.5918	1139.0486	1186.2811	1268.9597	1313.4951	1326.6712	1379.1524	1403.1756	1421.7623	1470.3914	1488.9957	1491.3436	1500.5021	1505.8121	1511.6855	2230.7479	3006.2827	3031.4456	3045.0665	3094.5126	3106.0962	3119.3322	3124.4333	3125.4992	3130.6559	3202.4674	3217.2905	3504.8043
CC(C#C)C1(C)CC1	C[C@@H](C#C)C1(C)CC1	
InChI=1S/C8H12/c1-4-7(2)8(3)5-6-8/h1,7H,5-6H2,2-3H3	InChI=1S/C8H12/c1-4-7(2)8(3)5-6-8/h1,7H,5-6H2,2-3H3/t7-/m0/s1
