16
gdb 22323	3.48585	1.1632	0.88163	3.9552	79.54	-0.2282	-0.0652	0.163	1268.512	0.123147	-437.882304	-437.873788	-437.872844	-437.915584	31.391	
C	-0.0130100804	 1.4444960091	 0.0854158239	-0.486184
C	 0.0016288687	-0.0442650162	-0.0133546157	 0.304833
C	-0.0308822088	-0.7871340812	-1.1332415928	-0.273892
C	-0.0029696172	-2.234009934	-0.8350403957	 0.331356
O	-0.0211287742	-3.1515630695	-1.6246505483	-0.329335
C	 0.0540876616	-2.3132013264	 0.6785312734	 0.271392
C	 0.0578491539	-0.9057293458	 1.2299936867	-0.380619
N	 0.0950894265	-3.3181296359	 1.4654095693	-0.208824
O	 0.0855441117	-4.5388515538	 0.8193443721	-0.347949
H	 0.8776167777	 1.8068726602	 0.613985205	 0.140658
H	-0.0495155864	 1.9169332293	-0.8986352477	 0.137313
H	-0.8778161069	 1.7855820349	 0.668375565	 0.140886
H	-0.072624862	-0.4131104894	-2.1487641979	 0.114945
H	 0.9562856055	-0.695256295	 1.8240628317	 0.136202
H	-0.798765767	-0.7160676854	 1.8892707847	 0.136183
H	 0.1201279871	-5.1601564409	 1.5562335262	 0.313036
73.6475	138.3971	180.7276	204.8045	287.3486	295.1458	343.6502	419.8086	438.6774	500.1849	524.4995	575.543	702.2233	741.2383	771.8221	872.0031	884.3051	959.9908	1009.3258	1026.3999	1055.0956	1128.8469	1161.0951	1165.3893	1231.184	1275.3418	1342.0844	1410.1	1422.2244	1459.5225	1475.8748	1478.3947	1672.7435	1715.1339	1800.4016	3021.9263	3027.3084	3053.806	3071.4078	3125.7656	3214.1928	3797.7366
CC1=CC(=O)C(C1)=NO	CC1=CC(=O)C(=NO)C1	
InChI=1S/C6H7NO2/c1-4-2-5(7-9)6(8)3-4/h3,9H,2H2,1H3	InChI=1S/C6H7NO2/c1-4-2-5(7-9)6(8)3-4/h3,9H,2H2,1H3
