19
gdb 117878	3.7937	0.58976	0.52662	3.9853	85.74	-0.2656	-0.0605	0.2051	2070.4234	0.15491	-422.997199	-422.986187	-422.985243	-423.035519	36.649	
C	-0.0930971262	 1.5255676582	-0.0540439843	-0.385451
C	-0.02484292	 0.016202927	 0.1023073043	-0.035914
O	-1.3422659649	-0.4971865244	-0.01908748	-0.253884
C	-1.4275625254	-1.9137009187	 0.0147099611	-0.050298
C	-1.4030349925	-2.4682375878	 1.4509653057	-0.396762
C	-2.6549207623	-2.3129032601	-0.6715066552	 0.107294
C	-3.6631774239	-2.6878250386	-1.2203596008	 0.050426
C	-4.877108506	-3.082044745	-1.8858910275	 0.01934
O	-5.2104844193	-4.2280483553	-2.0842454762	-0.23094
H	 0.9072889182	 1.9606434378	 0.0282762716	 0.117935
H	-0.5112311728	 1.7911734239	-1.0287484541	 0.131289
H	-0.7271571407	 1.9629274708	 0.7221036016	 0.130808
H	 0.6220800589	-0.4260570932	-0.6734000592	 0.092255
H	 0.4121491893	-0.2456430181	 1.0782689802	 0.092728
H	-0.5799210421	-2.3460468019	-0.5448734144	 0.106244
H	-1.4876702946	-3.5579741443	 1.4408278237	 0.136763
H	-0.4655277283	-2.1990126611	 1.9439347854	 0.125676
H	-2.2359380146	-2.0533205929	 2.0232960978	 0.140352
H	-5.5062521827	-2.2301037165	-2.21508121	 0.102138
40.6696	42.9475	61.3481	89.2937	134.9829	173.6577	223.758	248.0715	255.2155	301.0293	375.9772	397.1693	536.1304	545.0104	636.462	803.6053	822.4168	855.2112	946.5265	1011.1876	1021.6641	1067.6545	1091.6485	1130.4726	1148.3832	1177.555	1186.2579	1294.7316	1330.5929	1350.9346	1397.0168	1403.1041	1420.896	1434.6133	1483.14	1487.7616	1490.9755	1499.989	1527.9329	1767.5839	2329.7262	2920.053	2954.3965	2966.3217	2999.024	3047.2411	3052.0357	3122.0207	3125.9559	3128.908	3138.34
CCOC(C)C#CC=O	CCO[C@@H](C)C#CC=O	
InChI=1S/C7H10O2/c1-3-9-7(2)5-4-6-8/h6-7H,3H2,1-2H3	InChI=1S/C7H10O2/c1-3-9-7(2)5-4-6-8/h6-7H,3H2,1-2H3/t7-/m0/s1
