14
gdb 54567	3.26802	1.59236	1.21301	3.5551	61.83	-0.2432	0.0028	0.246	970.3807	0.099137	-473.727949	-473.720424	-473.71948	-473.76084	28.205	
N	-0.1369146282	 1.2721874954	-0.383719271	-0.540251
C	 0.0107014292	-0.0004707278	 0.0658051163	 0.250273
O	 1.0552198422	-0.5016369546	 0.4272156189	-0.35407
C	-1.2836650618	-0.766985832	 0.0801430456	 0.364584
O	-2.5184441241	-0.1337186651	-0.374255081	-0.362
C	-2.9657939114	-1.4673828314	-0.0017727637	 0.016219
C	-1.6635518972	-2.1842236159	-0.4807208305	 0.01515
O	-1.4488047672	-2.8770494272	 0.7741672179	-0.309784
C	-1.988114043	-1.6038641898	 1.2082070332	 0.01529
H	 0.6720598118	 1.8692428931	-0.4341251778	 0.267216
H	-1.0381647446	 1.6161310308	-0.670205811	 0.282093
H	-4.0173258918	-1.725722216	-0.1150736652	 0.115692
H	-1.4002879551	-2.6713292901	-1.4181083292	 0.11982
H	-2.1091046787	-1.4030520696	 2.2713897774	 0.119768
31.3377	155.8412	194.1404	260.2277	339.1759	433.4331	516.9315	567.8317	587.283	660.7058	704.9455	767.7544	771.7896	824.4318	845.9073	895.7362	918.6561	921.5183	1029.499	1048.2842	1092.999	1102.7729	1126.4591	1163.0432	1163.4442	1224.9014	1250.018	1324.1105	1414.3075	1610.1553	1807.2103	3134.5914	3142.2261	3153.4868	3595.7696	3735.3824
NC(=O)C12OC3C1OC23	NC(=O)[C@@]12O[C@H]3[C@@H]1O[C@@H]23	
InChI=1S/C5H5NO3/c6-4(7)5-2-1(9-5)3(5)8-2/h1-3H,(H2,6,7)	InChI=1S/C5H5NO3/c6-4(7)5-2-1(9-5)3(5)8-2/h1-3H,(H2,6,7)/t1-,2-,3+,5+
