15
gdb 83305	2.49531	1.93253	1.53467	1.7633	59.86	-0.2453	-0.0389	0.2064	884.8665	0.113753	-494.905042	-494.898026	-494.897082	-494.936516	27.042	
O	 0.1141614586	 1.4025127502	 0.1983105198	-0.43572
C	-0.001090402	 0.0128245266	 0.0495254816	 0.032372
C	-1.4337411744	-0.5200850907	-0.183116081	-0.006577
C	-2.0535665594	 0.1769614033	-1.3999504866	-0.089104
O	-1.3109700312	-0.4138794253	-2.4895172176	-0.269998
C	-0.4441600738	-1.3656660653	-1.8713529489	 0.051758
O	-1.135708094	-1.8237195444	-0.7321197553	-0.244522
C	 0.6580415472	-0.4956674721	-1.2503914108	 0.396216
O	 1.7218505804	-0.140458092	-1.6812652175	-0.329188
H	 0.9485958447	 1.6582311301	-0.2184099848	 0.301029
H	 0.4294403802	-0.5294164623	 0.905378139	 0.11032
H	-2.0636086683	-0.6167365682	 0.6980977359	 0.107808
H	-3.1152810341	-0.0582583836	-1.5172637199	 0.11883
H	-1.9006972673	 1.2582545572	-1.3814627793	 0.13665
H	-0.1797573866	-2.1657406835	-2.5587726147	 0.120126
105.6512	207.7249	243.0862	270.7697	359.9066	458.8916	519.1831	540.31	594.3784	687.6934	759.9605	795.7792	871.079	881.052	904.1524	957.6124	1012.2517	1023.8364	1042.3073	1089.1195	1132.8215	1177.084	1187.8551	1208.9341	1245.7388	1277.0808	1309.526	1334.3205	1349.2192	1358.7014	1401.8506	1513.3335	1868.2728	2991.142	3059.339	3120.6706	3154.4024	3164.5504	3752.368
OC1C2COC(O2)C1=O	O[C@H]1[C@H]2CO[C@H](O2)C1=O	
InChI=1S/C5H6O4/c6-3-2-1-8-5(9-2)4(3)7/h2-3,5-6H,1H2	InChI=1S/C5H6O4/c6-3-2-1-8-5(9-2)4(3)7/h2-3,5-6H,1H2/t2-,3+,5-/m1/s1
