21
gdb 107147	4.34195	0.99469	0.94614	1.7653	83.8	-0.2414	0.0831	0.3245	1356.0184	0.181255	-387.044708	-387.035798	-387.034854	-387.07845	34.284	
C	 0.0191950561	 1.498299724	-0.3301700484	-0.378861
C	 0.0277314003	 0.0268294431	 0.1081315636	-0.29823
C	-1.3522920803	-0.5239442244	 0.2896420587	 0.446464
C	-2.3754698422	-0.2095699005	 1.4093086419	-0.39115
C	-2.9435728876	-1.6353984689	 1.1948237298	 0.383175
C	-3.3197949639	-2.6154055495	 2.2661283512	-0.333037
C	-4.3553071111	-2.1257253693	 1.2754770317	-0.317923
C	-1.930135397	-1.8665006172	 0.0925402054	-0.15564
O	-2.1228097265	-0.8276608359	-0.8859297664	-0.295048
H	 1.0383916304	 1.8715746135	-0.4660126912	 0.112951
H	-0.5168915565	 1.6143113909	-1.2765766961	 0.13522
H	-0.4728662677	 2.1321736413	 0.4150187802	 0.118819
H	 0.5473642036	-0.5826481177	-0.6395743924	 0.109701
H	 0.5797012938	-0.0798780881	 1.0504109051	 0.101051
H	-1.9154359002	-0.0778134445	 2.3931629452	 0.103819
H	-3.0466392948	 0.626669281	 1.1972010895	 0.107365
H	-2.9677034041	-3.6383679789	 2.1739889158	 0.112623
H	-3.3770919198	-2.2574642924	 3.2892622112	 0.1123
H	-5.1112043847	-1.4338467009	 1.6324864466	 0.114944
H	-4.7066200988	-2.8145698151	 0.5142808665	 0.11631
H	-1.484713479	-2.7951664006	-0.249488238	 0.095147
62.9373	94.3676	167.566	211.0962	256.4151	277.71	351.3382	380.2584	429.98	497.3569	594.8908	670.4436	762.6369	771.4717	794.0208	853.7621	886.8621	909.1011	914.6997	949.4992	955.8688	991.4675	1011.7398	1027.203	1053.6754	1065.6546	1076.5124	1110.3211	1161.6525	1185.0766	1191.569	1202.7986	1231.8619	1258.2256	1314.1148	1343.7361	1396.0315	1406.0494	1449.9728	1464.3141	1471.9415	1479.0332	1497.8124	1506.0587	1511.5318	3028.1287	3038.3688	3053.4073	3069.9782	3107.225	3110.7691	3117.7217	3121.5188	3128.6961	3169.8525	3199.6916	3215.8933
CCC12CC3(CC3)C1O2	CC[C@]12CC3(CC3)[C@H]1O2	
InChI=1S/C8H12O/c1-2-8-5-7(3-4-7)6(8)9-8/h6H,2-5H2,1H3	InChI=1S/C8H12O/c1-2-8-5-7(3-4-7)6(8)9-8/h6H,2-5H2,1H3/t6-,8+/m1/s1
