21
gdb 120963	3.40698	1.04954	1.02035	0.4986	78.53	-0.2385	0.0901	0.3286	1312.3168	0.182909	-424.220003	-424.211319	-424.210375	-424.253883	33.009	
C	 0.7076228915	 1.2752079661	 0.0286793104	-0.387652
C	 0.2223173122	-0.1620234132	-0.0434129952	-0.041838
O	 0.8109964243	-0.7770788433	-1.1837651582	-0.247376
C	 0.413259512	-2.1101138845	-1.3814215557	 0.190738
C	 1.0706254386	-2.6193512342	-2.6805218215	-0.257656
C	 2.2707855831	-3.4166210076	-2.1960776621	-0.077016
C	 3.198268886	-2.7369498193	-1.2010605025	-0.318419
C	 2.0550615071	-3.5912136742	-0.7222521306	 0.111483
O	 0.8542408445	-2.9617671058	-0.3342787699	-0.260387
H	 1.795990291	 1.3098162106	 0.1326738902	 0.12591
H	 0.4334191593	 1.8227971529	-0.8776532311	 0.123963
H	 0.2624531392	 1.7827550803	 0.8897673568	 0.115236
H	 0.4952234775	-0.7169323849	 0.862933978	 0.110523
H	-0.8761098272	-0.1982052068	-0.1332945802	 0.085766
H	-0.6849087417	-2.1651996654	-1.3778403627	 0.07371
H	 0.3794920051	-3.2742443174	-3.219872714	 0.106782
H	 1.3186782438	-1.7725587857	-3.3240723473	 0.119755
H	 2.6521226646	-4.216534723	-2.819181821	 0.088461
H	 4.198002579	-3.1473208905	-1.1019776157	 0.106548
H	 3.1195777147	-1.6640060679	-1.0740888852	 0.133769
H	 2.2203378156	-4.5137151562	-0.1789448424	 0.0977
58.0882	96.5863	138.4286	199.6872	256.5096	292.4449	363.6833	416.1296	449.4255	577.2573	683.0985	755.551	777.1714	811.9572	818.3884	846.725	903.3146	914.4958	952.6629	988.1526	1012.339	1036.4491	1047.5074	1074.47	1092.3548	1103.9075	1117.6377	1149.5645	1165.2352	1187.8968	1207.0896	1223.2432	1291.3982	1301.6036	1312.1812	1368.5847	1375.2858	1396.6197	1405.6356	1439.1836	1472.6949	1484.0449	1487.2653	1500.7422	1528.8858	2970.8831	3001.8391	3042.786	3043.4857	3060.9821	3114.2973	3117.7269	3119.7169	3134.7845	3177.6721	3188.5547	3233.4272
CCOC1CC2CC2O1	CCO[C@H]1C[C@H]2C[C@H]2O1	
InChI=1S/C7H12O2/c1-2-8-7-4-5-3-6(5)9-7/h5-7H,2-4H2,1H3	InChI=1S/C7H12O2/c1-2-8-7-4-5-3-6(5)9-7/h5-7H,2-4H2,1H3/t5-,6-,7-/m1/s1
