18
gdb 51839	3.34359	1.03074	0.82418	5.598	73.	-0.2372	-0.0148	0.2224	1354.4173	0.148195	-439.144125	-439.135338	-439.134393	-439.178722	31.399	
O	-0.6847788869	 0.9404232253	 0.9875349107	-0.248117
C	-0.0402111391	 1.0259897741	-0.0280107185	 0.140509
C	 1.3057989624	 1.7279625155	-0.1040521538	-0.291826
C	 1.3885177935	 2.7756722618	-1.2257319272	-0.119011
C	 2.636044942	 3.6773909594	-1.182513009	-0.232043
C	 2.8602345714	 4.0765206589	-2.6566671705	-0.172795
N	 2.3054125335	 2.93634648	-3.3667695306	-0.305009
C	 1.4414017554	 2.1694447563	-2.6388295529	 0.418237
O	 0.8331495963	 1.1990892782	-3.0425092236	-0.384409
H	-0.3902058227	 0.5916913662	-0.9847134768	 0.118752
H	 1.4988404545	 2.1874688945	 0.8701828473	 0.117537
H	 2.0735057551	 0.9604327099	-0.2757972537	 0.126043
H	 0.4869514388	 3.4044965146	-1.1973235599	 0.111414
H	 2.5227737503	 4.543690978	-0.5279845906	 0.116321
H	 3.4943142916	 3.0968257849	-0.8273144807	 0.117742
H	 2.3313993897	 5.0072803276	-2.9072072423	 0.112176
H	 3.9185784567	 4.2191279233	-2.8949554351	 0.11958
H	 2.3992048876	 2.7938722617	-4.3599359327	 0.254899
50.5874	83.5961	109.0993	175.4616	190.9495	291.7043	336.6316	439.4455	511.8014	533.1569	595.6448	688.4062	704.6525	786.5829	823.4992	887.3924	942.4491	972.623	1016.683	1061.5326	1071.655	1118.0598	1136.7104	1198.8806	1208.5063	1226.1969	1262.2388	1278.6194	1325.8548	1331.3127	1352.7282	1379.2441	1415.872	1448.2947	1459.4928	1495.5298	1534.5882	1816.7684	1824.379	2957.4708	3000.5927	3006.9486	3021.5374	3051.9888	3074.7184	3091.663	3116.0603	3642.1043
O=CCC1CCNC1=O	O=CC[C@H]1CCNC1=O	
InChI=1S/C6H9NO2/c8-4-2-5-1-3-7-6(5)9/h4-5H,1-3H2,(H,7,9)	InChI=1S/C6H9NO2/c8-4-2-5-1-3-7-6(5)9/h4-5H,1-3H2,(H,7,9)/t5-/m1/s1
