21
gdb 63534	2.90893	1.36061	1.24119	1.4957	82.95	-0.2223	0.082	0.3043	1139.2333	0.180638	-387.036678	-387.027789	-387.026844	-387.069665	34.914	
C	-0.0805341726	 1.4922685153	 0.1238554582	-0.450616
C	-0.043978791	-0.0219996528	 0.0423742559	 0.248719
C	-1.2403516711	-0.6612332471	-0.6356218865	-0.449403
C	 1.3244792523	-0.6827865083	-0.1494943479	-0.417753
C	 0.6157788905	-0.7626535534	 1.1642955824	 0.447844
O	 1.1459225263	-0.0950329958	 2.3290914718	-0.318975
C	 0.8612920539	-1.2596724963	 3.1141908974	 0.096949
C	-0.6067421361	-1.5416923609	 3.1542854621	-0.30089
C	 0.2181338973	-1.9844415206	 1.9562870005	-0.219791
H	 0.7664141093	 1.8817109982	 0.6934395662	 0.133017
H	-0.0579261476	 1.9371725526	-0.8778693814	 0.110214
H	-0.9964849384	 1.833738723	 0.619788838	 0.113189
H	-1.3162924739	-0.3362541757	-1.6801961584	 0.115181
H	-1.1725962161	-1.7532865835	-0.6313377889	 0.112523
H	-2.1736932063	-0.3835690972	-0.1323310512	 0.115908
H	 1.3897425831	-1.5801049587	-0.7583015302	 0.10727
H	 2.1943827684	-0.0356650071	-0.1975222114	 0.118325
H	 1.5925380313	-1.5590031604	 3.8550383047	 0.105837
H	-0.9098490752	-2.3474826368	 3.8161538081	 0.113088
H	-1.313226198	-0.7214474135	 3.0669045341	 0.117529
H	 0.3030832141	-3.0123802309	 1.6320282566	 0.101834
118.2068	147.5004	171.8305	199.0247	222.3334	301.3147	362.84	394.0779	402.8025	484.0617	494.4643	573.5121	730.9436	764.5423	803.0229	861.4713	901.8478	908.9858	925.3002	965.9681	969.5057	975.4604	992.3772	1026.7493	1038.9017	1045.2113	1051.2947	1062.3908	1086.7235	1151.1323	1157.6586	1171.5761	1228.506	1272.4955	1305.6453	1342.7494	1408.839	1415.6364	1425.8358	1468.3966	1480.3764	1487.559	1490.6674	1499.8373	1520.2368	3021.3393	3026.5586	3080.5071	3083.214	3100.9617	3117.0881	3117.3103	3122.654	3186.6538	3203.6555	3208.0452	3213.077
CC1(C)CC11OC2CC12	CC1(C)C[C@]21O[C@H]1C[C@@H]21	
InChI=1S/C8H12O/c1-7(2)4-8(7)5-3-6(5)9-8/h5-6H,3-4H2,1-2H3	InChI=1S/C8H12O/c1-7(2)4-8(7)5-3-6(5)9-8/h5-6H,3-4H2,1-2H3/t5-,6+,8+/m1/s1
