14
gdb 28854	3.24061	1.44607	1.09106	2.2672	77.65	-0.2369	-0.0783	0.1586	1052.1223	0.102833	-432.886968	-432.879789	-432.878845	-432.91885	27.358	
O	 0.0866209343	 1.185353393	-0.552895782	-0.390107
C	-0.0087706054	-0.0853631116	-0.1263493014	 0.419128
C	-1.241326255	-0.674273273	-0.0877195259	-0.190287
C	-1.4836019196	-2.0209002246	 0.3206933941	 0.005112
N	-0.6829028135	-3.0375003228	 0.3788187787	-0.281941
C	 0.6427548855	-2.9732690701	-0.0345935326	 0.286482
N	 1.2510658378	-3.871938766	-0.7033250107	-0.496409
C	 1.4609081962	-1.8284085684	 0.4520794477	 0.015964
N	 1.1768335496	-0.5833572817	 0.3576413358	-0.288254
H	 0.9987352478	 1.4646283915	-0.3908625095	 0.307325
H	-2.0982317421	-0.0397856151	-0.2850423631	 0.115646
H	-2.511632852	-2.2317772586	 0.6245261704	 0.121213
H	 0.5894939981	-4.6089459524	-0.9649411447	 0.225833
H	 2.4134423281	-2.0869516002	 0.9157569332	 0.150295
72.4813	173.5059	296.7051	342.401	387.4115	398.6392	442.1723	524.6421	551.9249	603.6584	732.7247	756.8133	782.0938	843.0821	877.643	898.4455	930.4427	967.5605	999.016	1034.7309	1118.9622	1217.2338	1314.6988	1341.0201	1375.8276	1428.7828	1453.8686	1577.4196	1671.6456	1681.9133	1713.4682	3100.683	3131.7857	3192.7865	3436.5927	3765.502
OC1=CC=NC(=N)C=N1	OC1=CC=N[C]([NH])C=N1	
InChI=1S/C5H5N3O/c6-4-3-8-5(9)1-2-7-4/h1-3,6,9H	InChI=1S/C5H5N3O/c6-4-3-8-5(9)1-2-7-4/h1-3,6,9H
