15
gdb 15502	3.67824	1.92098	1.29654	6.3959	64.95	-0.2377	-0.0019	0.2358	896.3309	0.121198	-396.014622	-396.007396	-396.006452	-396.046415	26.231	
N	 0.0467335659	 1.3358846901	 0.110352818	-0.535352
C	 0.0580864162	 0.068831812	 0.1333474264	 0.433393
N	 1.1315671995	-0.8199224962	 0.2819856401	-0.351949
C	 0.7478060067	-2.1643817875	-0.1336793867	-0.178943
C	-0.7460899532	-2.1562028889	 0.2121950943	-0.169457
N	-1.0952526618	-0.7443992275	 0.0423226255	-0.104464
C	-2.407750352	-0.3377135244	-0.1123018583	 0.158011
O	-2.8144793829	 0.7878498025	-0.2161825986	-0.272649
H	 0.995262181	 1.7029703645	 0.1777196573	 0.209461
H	 2.0290757068	-0.4681059915	-0.0151513761	 0.245344
H	 0.8997193541	-2.3343512529	-1.2097762477	 0.113772
H	 1.2953199521	-2.9307761811	 0.4205967811	 0.122972
H	-1.3382097829	-2.7941336205	-0.4470626511	 0.130878
H	-0.9059083891	-2.4771087393	 1.2490273755	 0.128865
H	-3.0732837103	-1.2265677495	-0.1420165998	 0.070117
71.1369	191.9625	219.8721	226.7243	248.9726	465.6914	477.2744	508.1524	703.245	724.2588	734.6559	795.308	815.8821	913.2752	972.2713	1025.718	1045.9109	1117.7035	1128.1942	1187.9062	1202.047	1238.7101	1283.7669	1335.7869	1357.3238	1434.2565	1439.4286	1463.5358	1516.0879	1530.667	1745.0885	1846.4102	2903.0562	2993.7922	3027.0206	3090.3154	3107.7661	3490.465	3619.9275
N=C1NCCN1C=O	[NH][C]1NCCN1C=O	
InChI=1S/C4H7N3O/c5-4-6-1-2-7(4)3-8/h3H,1-2H2,(H2,5,6)	InChI=1S/C4H7N3O/c5-4-6-1-2-7(4)3-8/h3H,1-2H2,(H2,5,6)
