18
gdb 16345	2.9978	1.84094	1.42144	1.4799	67.64	-0.252	0.0625	0.3145	929.4321	0.153764	-384.902729	-384.894687	-384.893743	-384.935152	30.456	
O	-0.0198577477	 1.4411975881	 0.1051370285	-0.418774
C	 0.0176196256	 0.0317403581	-0.1305943427	-0.199881
C	-1.3595986353	-0.5519852518	-0.1006729943	 0.331353
C	-2.0372932424	-1.0079093239	 1.1695707878	-0.336134
C	-1.893815135	-1.9824590393	 0.0353853766	-0.124361
C	-2.9856872115	-1.7043598723	-1.007395841	-0.245716
C	-2.42032633	-0.263824168	-1.1725495712	 0.069248
O	-3.3562829796	 0.762107505	-0.9250400238	-0.433671
H	-0.4062399818	 1.5681400255	 0.9786255153	 0.283079
H	 0.4680151113	-0.0777966418	-1.1238266706	 0.109253
H	 0.6769835553	-0.4799990521	 0.5878834118	 0.087983
H	-1.3696273942	-1.1689844559	 2.0114497558	 0.105878
H	-3.0176135326	-0.621003412	 1.4348872639	 0.120909
H	-1.331494316	-2.9030900808	 0.134246888	 0.089219
H	-2.9041640508	-2.2986682934	-1.9193423369	 0.104431
H	-4.0135746896	-1.7535443658	-0.6369316797	 0.107694
H	-1.9443081795	-0.1338102463	-2.1553774121	 0.066885
H	-2.8605891762	 1.5871444567	-0.8728338752	 0.282606
81.482	108.7196	185.9576	271.0497	316.8773	359.1401	379.4867	422.7443	451.5626	546.7457	673.7755	738.0758	830.5233	862.2648	911.8881	936.3169	946.3711	979.8435	1020.2607	1032.7361	1041.875	1079.451	1082.3539	1120.5924	1165.1191	1187.0094	1224.7354	1258.94	1262.6934	1288.8172	1320.6327	1367.7285	1406.826	1414.4574	1426.1239	1478.5662	1497.192	1504.6644	2981.2329	2991.4595	3060.5843	3061.172	3111.0757	3119.0739	3183.8009	3198.1961	3800.9714	3803.6288
OCC12CC1CC2O	OC[C@]12C[C@H]1C[C@H]2O	
InChI=1S/C6H10O2/c7-3-6-2-4(6)1-5(6)8/h4-5,7-8H,1-3H2	InChI=1S/C6H10O2/c7-3-6-2-4(6)1-5(6)8/h4-5,7-8H,1-3H2/t4-,5-,6-/m1/s1
