13
gdb 132121	3.03911	1.49027	1.00121	2.3561	69.49	-0.2019	-0.0696	0.1323	1072.0082	0.089046	-494.04027	-494.03265	-494.031706	-494.072496	28.433	
N	 0.0803704373	 1.4379121886	 0.1716775087	-0.581257
C	 0.0198766872	 0.0435441276	 0.0516862312	 0.116111
C	-1.1200090119	-0.6690668398	-0.0247745435	 0.307486
F	-2.3284093553	-0.1392154095	-0.0789790373	-0.044822
O	-1.1689710938	-2.0102217473	-0.0574061047	-0.230803
C	 0.0153657107	-2.7460690111	-0.0172388559	 0.360818
N	 0.0247431398	-4.0128817131	-0.0371488725	-0.524596
C	 1.2204030691	-1.9226494943	 0.041580473	-0.037613
N	 1.2224196423	-0.6361835052	 0.0757313511	-0.255646
H	 0.9451198091	 1.7936801297	-0.2157836866	 0.256434
H	-0.7191456408	 1.9123677285	-0.2262128398	 0.252333
H	-0.9190466773	-4.3968174925	-0.0815800916	 0.232881
H	 2.1637798935	-2.4598852716	 0.054021218	 0.148674
95.7245	165.3636	224.8777	283.5653	331.769	342.4059	437.253	482.3097	516.0592	586.8854	612.333	707.0488	715.3047	749.8256	824.0022	840.0751	925.5952	938.1646	1028.4744	1103.3895	1207.6395	1289.7586	1324.7725	1364.5569	1414.7298	1602.9793	1631.9292	1708.3302	1759.7911	3186.7566	3499.5832	3541.7224	3643.8933
NC1=C(F)OC(=N)C=N1	NC1=C(F)OC(=C[N]1)[NH]	
InChI=1S/C4H4FN3O/c5-3-4(7)8-1-2(6)9-3/h1,6H,7H2	InChI=1S/C4H4FN3O/c5-3-4(7)8-1-2(6)9-3/h1,6H,7H2
