17
gdb 44077	3.89641	1.46241	1.21079	4.1272	74.55	-0.2286	0.0132	0.2419	1023.4648	0.137595	-417.951211	-417.944171	-417.943227	-417.982523	28.371	
N	-0.1441362766	 1.2244198494	 0.0565798287	-0.543076
C	-0.0359497413	-0.0300844039	-0.0155096319	 0.372236
N	 1.0241340737	-0.9587039989	-0.119984401	-0.434315
C	 0.1676262894	-2.102586799	 0.1224029698	 0.370036
C	 0.1948741337	-3.5465335128	-0.3589956523	-0.336996
C	-0.7503022476	-3.894617269	 0.8465831605	-0.242355
C	-0.4922028623	-2.4869079379	 1.4739538609	 0.057914
O	-1.5573328791	-1.5287396284	 1.3170580203	-0.296609
C	-1.0681529363	-1.1681137458	 0.0050525992	-0.038399
H	 0.7674436213	 1.6860977467	 0.0822774749	 0.211803
H	 1.9496621686	-0.8238456437	 0.2684565255	 0.236034
H	-0.1655386976	-3.7476294893	-1.37086067	 0.111401
H	 1.1813766383	-4.0062240529	-0.2435072071	 0.110441
H	-1.7970305162	-4.0318977718	 0.5703285795	 0.123575
H	-0.4268426535	-4.7381238165	 1.4586511625	 0.110852
H	-0.0248624459	-2.4457246387	 2.4601114659	 0.083656
H	-1.8300773685	-1.1980915074	-0.7750241954	 0.103801
115.0846	189.2991	254.996	338.1024	410.0387	448.8974	482.7373	569.8045	641.3388	708.861	741.8027	790.7208	832.9465	851.8151	874.1106	886.6954	914.0489	967.747	999.6406	1022.356	1039.6013	1092.7486	1109.3858	1114.345	1159.0206	1186.2256	1218.942	1229.0217	1262.0113	1274.1814	1279.6743	1320.8378	1338.3944	1382.8768	1466.8999	1493.1395	1795.9045	3054.0488	3079.1465	3092.3105	3104.176	3111.2681	3141.3811	3451.4354	3559.2631
N=C1NC23CCC2OC13	[NH][C]1N[C@@]23CC[C@@H]2O[C@@H]13	
InChI=1S/C6H8N2O/c7-5-4-6(8-5)2-1-3(6)9-4/h3-4H,1-2H2,(H2,7,8)	InChI=1S/C6H8N2O/c7-5-4-6(8-5)2-1-3(6)9-4/h3-4H,1-2H2,(H2,7,8)/t3-,4-,6-/m0/s1
