23
gdb 121946	3.9869	0.62634	0.56794	1.5601	83.42	-0.2545	0.0851	0.3396	1990.4476	0.203184	-425.394779	-425.383914	-425.382969	-425.431932	38.02	
C	-0.0077086528	 1.2660386704	 0.4618745563	-0.227896
O	-0.0832348369	-0.1352822299	 0.3713044926	-0.230217
C	-1.3373614937	-0.5899599626	-0.0902480578	-0.060043
C	-1.291295809	-2.1115114401	-0.1642197086	-0.202626
C	-2.6325164333	-2.7682112966	-0.5363288059	-0.013287
C	-3.1207242702	-2.4043187173	-1.9473620524	-0.401025
C	-2.512516469	-4.2731517432	-0.408476755	 0.101639
C	-2.8922200349	-4.9967625711	 0.8100443401	-0.185348
O	-3.7336399817	-5.0130139698	-0.3464369935	-0.246289
H	 0.9922512683	 1.5184049519	 0.8234041556	 0.126309
H	-0.1640706692	 1.7498250259	-0.5158499729	 0.10221
H	-0.7522126995	 1.6726683841	 1.1653448053	 0.101971
H	-2.1400028908	-0.2640039577	 0.5956863989	 0.082484
H	-1.5598732145	-0.1489004437	-1.0758785851	 0.087805
H	-0.5181763929	-2.4041988427	-0.8861888891	 0.103959
H	-0.9609732433	-2.4817917082	 0.8134921808	 0.107051
H	-3.3953091449	-2.4465948955	 0.1859974785	 0.076363
H	-4.0396976333	-2.9495672777	-2.1803321591	 0.134404
H	-3.3300628244	-1.3353670076	-2.0434805734	 0.115866
H	-2.3697236964	-2.6673429285	-2.7019141372	 0.113383
H	-1.7559391697	-4.7302318981	-1.0517188788	 0.087926
H	-2.4150621073	-5.9445748094	 1.055495055	 0.114077
H	-3.2828515706	-4.4412861127	 1.6622253759	 0.111285
52.7662	63.0794	95.1454	109.0271	129.2402	203.3732	228.4545	239.275	295.0622	304.1591	331.0485	454.4608	481.566	545.4742	788.6635	814.2167	863.7672	899.656	953.6877	970.9214	981.1059	990.0173	1062.6676	1085.998	1129.6567	1155.4728	1163.4301	1169.523	1173.64	1185.6025	1191.7552	1228.5147	1242.3902	1281.6972	1294.1346	1313.1932	1343.7751	1360.6124	1409.1652	1428.8855	1449.0066	1481.2059	1484.4445	1489.0633	1498.5834	1504.5139	1508.8534	1530.9394	1533.4918	2941.1345	2966.4846	2978.902	3007.9318	3013.3072	3027.8149	3033.0272	3070.0189	3076.8954	3081.2612	3101.3976	3112.098	3117.1871	3165.6934
COCCC(C)C1CO1	COCC[C@@H](C)[C@H]1CO1	
InChI=1S/C7H14O2/c1-6(3-4-8-2)7-5-9-7/h6-7H,3-5H2,1-2H3	InChI=1S/C7H14O2/c1-6(3-4-8-2)7-5-9-7/h6-7H,3-5H2,1-2H3/t6-,7-/m1/s1
