21
gdb 89712	3.28009	0.99985	0.93806	2.3069	79.54	-0.2456	0.0716	0.3173	1349.2115	0.180153	-424.198133	-424.188493	-424.187548	-424.23223	37.194	
C	-0.1169480171	 1.5203094938	 0.0768231889	-0.446805
C	-0.0078451088	 0.0126517911	 0.0656433239	 0.328321
O	-1.1821920272	-0.6495438888	-0.3344803178	-0.46435
C	 1.3127401046	-0.6550695533	-0.2646839165	-0.420702
C	 0.7428793298	-0.7080469374	 1.1351725603	 0.342267
C	 1.3994303982	-0.1619078471	 2.4106890364	-0.354641
C	 1.3347265919	-1.610589422	 2.9813299001	 0.170535
O	 1.0011814582	-1.8150098436	 4.329773865	-0.434392
C	 0.3181807364	-1.9873665034	 1.8656094061	-0.333876
H	 0.801265579	 1.9832668501	 0.4491381821	 0.120136
H	-0.2977859019	 1.9068598443	-0.9340132151	 0.107542
H	-0.948922742	 1.8406894117	 0.7127912092	 0.122837
H	-1.3134414879	-0.4792028154	-1.2739622739	 0.279857
H	 1.2720231073	-1.5668896201	-0.8526474243	 0.110159
H	 2.1800618468	-0.0274763554	-0.4498000588	 0.105826
H	 2.384253583	 0.3052091458	 2.3288509957	 0.101031
H	 0.7343463956	 0.5118401782	 2.9651472495	 0.092196
H	 2.2870182423	-2.1271456514	 2.833585545	 0.094963
H	 0.1433021981	-1.4065150508	 4.487910976	 0.275477
H	-0.7162135169	-1.924590786	 2.2235951841	 0.100409
H	 0.4523988307	-2.9445300503	 1.3569056743	 0.10321
63.8651	139.9635	167.7982	213.9248	255.1339	285.5271	298.3666	360.3109	360.9777	396.4048	442.4885	462.8577	470.3946	576.3536	702.14	726.3105	822.126	893.3078	894.4217	907.48	923.7651	981.097	1008.8508	1029.6746	1042.4279	1061.1151	1086.4038	1111.2125	1166.7019	1179.6138	1199.1972	1212.51	1250.9122	1268.2902	1284.6084	1314.2936	1331.9826	1408.2668	1421.3926	1435.8187	1468.0893	1480.1171	1485.047	1492.9666	1514.241	3022.7834	3028.2404	3040.3994	3073.6897	3085.0141	3097.2019	3106.9967	3111.8161	3114.9092	3204.1623	3790.7143	3803.4729
CC1(O)CC11CC(O)C1	C[C@@]1(O)C[C@]21C[C@@H](O)C2	
InChI=1S/C7H12O2/c1-6(9)4-7(6)2-5(8)3-7/h5,8-9H,2-4H2,1H3	InChI=1S/C7H12O2/c1-6(9)4-7(6)2-5(8)3-7/h5,8-9H,2-4H2,1H3/t5-,6-,7+/m1/s1
