18
gdb 97694	2.93818	0.80091	0.69367	2.2909	89.85	-0.2328	0.0181	0.251	1687.0272	0.145072	-364.72282	-364.71279	-364.711846	-364.760013	35.794	
C	 0.340609339	 1.2943309398	 0.4302267973	-0.364938
C	-0.3545530377	 0.1669576501	-0.3550663919	-0.319241
C	 0.4544550301	-0.3575501526	-1.449788162	 0.092251
C	 1.1387701058	-0.7689495674	-2.352773248	-0.00598
C	 1.9365449717	-1.2822792365	-3.4399774042	 0.004599
C	 3.3727195251	-1.6347352739	-3.1475526616	-0.257975
N	 2.4035460594	-2.7030029112	-3.3609103966	-0.337058
C	 1.5761946561	-0.825814575	-4.7618975371	 0.299471
C	 1.2874847077	-0.4234570292	-5.8562708787	-0.45529
H	 1.2759159963	 0.9409832702	 0.8727714944	 0.126618
H	 0.574959331	 2.1367270229	-0.2258864445	 0.132047
H	-0.3078187508	 1.6528854761	 1.2350638967	 0.116778
H	-0.613726853	-0.652235481	 0.3280516623	 0.131144
H	-1.307300889	 0.5325334228	-0.7588208141	 0.136244
H	 4.1012986784	-1.5120427606	-3.9429947496	 0.135804
H	 3.7309682354	-1.426039719	-2.1437621141	 0.125999
H	 2.0981105866	-3.0794813888	-2.4659845668	 0.243014
H	 1.0253745078	-0.0769031967	-6.8250652013	 0.196513
8.921	79.0627	91.6236	170.6897	208.3763	221.0351	225.7284	329.4868	410.2935	466.2893	502.5543	550.8819	585.5008	588.6494	612.4872	651.0198	783.1139	801.4554	829.8934	926.3868	951.6266	988.4238	1039.6584	1081.6063	1103.0333	1103.5787	1144.3464	1257.3027	1285.9129	1314.5241	1335.4426	1356.3212	1409.0831	1471.7567	1494.7648	1497.5462	1505.0408	2245.4852	2360.5264	3020.8617	3044.7687	3048.9342	3115.5885	3118.3908	3124.5993	3211.2109	3501.0172	3504.3161
CCC#CC1(CN1)C#C	CCC#C[C@]1(CN1)C#C	
InChI=1S/C8H9N/c1-3-5-6-8(4-2)7-9-8/h2,9H,3,7H2,1H3	InChI=1S/C8H9N/c1-3-5-6-8(4-2)7-9-8/h2,9H,3,7H2,1H3/t8-/m0/s1
