25
gdb 122362	4.90925	0.64807	0.63959	0.1426	94.48	-0.2853	0.0916	0.3769	1916.8382	0.229957	-352.312664	-352.303211	-352.302267	-352.347905	36.026	
C	 0.1365169455	 1.6031807018	-0.0902160232	-0.380093
C	 0.2419458234	 0.0770974534	-0.1524419784	-0.163225
C	 0.7922295229	-0.543468599	 1.1360361603	-0.15006
C	 0.8981480819	-2.0739476579	 1.0826107162	-0.255923
C	 1.508465744	-2.6630824191	 2.3478940878	 0.076409
C	 0.7070950358	-2.792907765	 3.6890261538	-0.04499
C	-0.0465976988	-4.0083529066	 3.0732302081	-0.220902
C	 1.4476515602	-4.1919520422	 2.6738128142	-0.064747
C	 1.7971361344	-3.8075588958	 4.1407354842	-0.217021
H	 1.1158907949	 2.0611717965	 0.0888091687	 0.112556
H	-0.2577131271	 2.0164307037	-1.0240052857	 0.109789
H	-0.5279262549	 1.9212556816	 0.7210483845	 0.112626
H	-0.7470000674	-0.3500463033	-0.3660889936	 0.093116
H	 0.8836295851	-0.2126613235	-0.9953132924	 0.092931
H	 1.7828012423	-0.1168657374	 1.3483528034	 0.089857
H	 0.1528028011	-0.2525544096	 1.9808322448	 0.093678
H	-0.0925229784	-2.4952481022	 0.8784586957	 0.09393
H	 1.5282220955	-2.359752937	 0.2283119781	 0.091441
H	 2.5099607212	-2.2370717034	 2.4944188044	 0.055454
H	 0.2783022917	-1.9848275308	 4.2847251962	 0.064116
H	-0.4469210184	-4.735982125	 3.7850170539	 0.08629
H	-0.7670979036	-3.8133778829	 2.2777819434	 0.090804
H	 1.8782914127	-5.0061729902	 2.0874272106	 0.06318
H	 2.7993446321	-3.4075787925	 4.3202265771	 0.085233
H	 1.5051679739	-4.5230068537	 4.914293228	 0.085551
50.7661	75.7658	98.8595	127.9229	240.8855	253.2883	295.0852	346.3767	438.5476	563.0504	594.4262	730.1305	755.0422	783.6616	805.3615	845.5609	872.7935	898.7716	904.0819	918.6074	951.45	1004.0571	1009.3663	1028.6168	1029.2494	1057.3837	1067.7836	1080.6176	1112.9152	1127.9505	1143.9457	1154.9854	1167.5351	1191.4398	1215.897	1237.8663	1243.9875	1253.5109	1273.4222	1284.5944	1317.3659	1331.8623	1359.5025	1397.0601	1413.3457	1433.0794	1481.4375	1485.9874	1498.0995	1499.6511	1506.1187	1513.2694	1542.2256	3001.9507	3007.6077	3012.5088	3016.0272	3027.6552	3028.6441	3045.5305	3047.2459	3057.5525	3067.969	3087.6216	3094.1152	3095.1147	3099.7203	3111.105	3124.4627
CCCCC1C2CC1C2	CCCC[C@H]1[C@H]2C[C@@H]1C2	
InChI=1S/C9H16/c1-2-3-4-9-7-5-8(9)6-7/h7-9H,2-6H2,1H3	InChI=1S/C9H16/c1-2-3-4-9-7-5-8(9)6-7/h7-9H,2-6H2,1H3/t7-,8+,9-
