17
gdb 38152	3.0781	1.88413	1.3622	1.8262	71.28	-0.252	-0.0063	0.2457	928.5204	0.13927	-417.987259	-417.980626	-417.979682	-418.018225	26.495	
C	-0.1282655031	 1.4242787274	 0.1116350059	-0.316271
N	 1.2331961583	 0.8489798822	-0.084293068	-0.154346
C	 1.8888897217	 0.5587624715	 1.1505592202	 0.024546
N	 1.4359281155	-0.3733885496	 1.8919000348	-0.20899
C	 0.2417040974	-0.9047633403	 1.2252980952	-0.068938
C	 0.4241347641	-2.2905385321	 0.5663543819	-0.084859
O	-0.4054159295	-2.2578259049	-0.5875716411	-0.254959
C	-0.329645648	-0.9571128186	-1.1682370984	-0.167376
C	 0.0409064738	-0.0328066008	-0.0205542865	 0.295229
H	-0.3656488627	 1.8303619569	 1.0925702032	 0.129524
H	-0.4818767337	 2.0129518633	-0.7300068707	 0.131077
H	 2.7871160122	 1.1211567043	 1.3898193782	 0.129999
H	-0.6012214089	-0.9175920821	 1.9220749202	 0.096656
H	 1.4833845085	-2.4351570453	 0.302803768	 0.101778
H	 0.0964383896	-3.125562223	 1.1882947495	 0.118867
H	 0.4349536058	-0.9124968523	-1.9570456165	 0.11317
H	-1.3053727711	-0.7319478965	-1.6094137957	 0.114894
126.4001	194.3564	301.7208	338.8629	403.3412	484.7818	588.9281	603.2969	681.8497	775.2318	788.2166	835.7122	907.6933	938.921	946.056	952.838	978.2559	1043.3072	1059.0605	1074.6704	1083.498	1104.7498	1126.6016	1152.9786	1207.8027	1222.0441	1251.9528	1278.1799	1304.3841	1323.4325	1336.6706	1378.7247	1413.432	1501.0467	1507.3366	1518.4326	1658.0028	2988.6592	3004.351	3068.8848	3077.9344	3103.7315	3114.595	3186.2258	3195.4525
C1N2C=NC3COCC123	C1N2C=N[C@@H]3COC[C@]123	
InChI=1S/C6H8N2O/c1-5-6(3-9-1)2-8(6)4-7-5/h4-5H,1-3H2	InChI=1S/C6H8N2O/c1-5-6(3-9-1)2-8(6)4-7-5/h4-5H,1-3H2/t5-,6+,8?/m1/s1
