19
gdb 53292	2.74704	1.04847	0.83655	2.2734	85.3	-0.227	0.0379	0.2649	1430.3547	0.159179	-381.989372	-381.979875	-381.978931	-382.025399	33.647	
C	-0.0646059339	 1.4513886859	 0.2559734717	-0.501325
C	-0.0621428379	 0.0016485257	 0.1343489181	 0.106228
C	-0.0790091609	-1.198925951	 0.0407694675	 0.123295
C	-0.0856724109	-2.6274496549	-0.1057965606	-0.259886
N	-0.6417113031	-3.4423337775	 1.0068063863	-0.338315
C	-1.341747184	-3.4328285976	-0.2772404872	-0.025049
C	-2.7120733215	-2.8239044921	-0.2868406721	-0.005667
C	-3.7197890267	-3.3098900637	 0.6921680675	-0.235898
N	-3.1481484514	-1.9600791976	 0.8113566584	-0.313513
H	 0.5254042156	 1.7817239318	 1.1180830434	 0.148436
H	 0.3589744957	 1.9245525822	-0.6368417459	 0.147874
H	-1.0838735248	 1.8320242785	 0.3827767282	 0.158103
H	 0.7933120064	-3.0351682414	-0.6022649896	 0.10653
H	-0.0966015025	-4.2916185321	 1.1232351536	 0.238698
H	-1.2391484673	-4.3098362884	-0.9165663008	 0.089679
H	-3.0483413807	-2.5028073483	-1.2709352822	 0.091991
H	-4.7716099327	-3.3473092449	 0.4227915568	 0.112429
H	-3.3969323559	-4.0686628783	 1.4007208421	 0.110228
H	-2.4221264935	-1.9733013762	 1.5269502947	 0.246162
30.7327	60.0857	79.6122	138.5316	195.424	241.7456	296.7329	329.6441	410.2718	511.7696	559.0333	640.4174	703.5845	782.1259	846.4237	861.2793	903.616	923.6125	954.3189	983.2166	1040.5253	1051.4002	1053.0363	1070.5061	1107.2503	1141.9033	1152.3413	1178.9182	1192.5337	1227.3633	1257.509	1279.6757	1316.383	1390.377	1413.1652	1422.5081	1452.7178	1475.9893	1478.2729	1505.0934	2372.8883	3026.9918	3087.0001	3091.2986	3100.0955	3105.0178	3116.5276	3125.0174	3192.004	3479.8235	3515.2614	30.7365	60.0863	79.6139	138.5318	195.4242	241.7457	296.734	329.6457	410.2735	511.7708	559.0337	640.4179	703.5846	782.1261	846.4241	861.2797	903.6163	923.6129	954.3192	983.2165	1040.5253	1051.4002	1053.0364	1070.5065	1107.2502	1141.9035	1152.3415	1178.9182	1192.5337	1227.3634	1257.5094	1279.6751	1316.3825	1390.3772	1413.1649	1422.5085	1452.7179	1475.989	1478.2725	1505.093	2372.8889	3026.9918	3087.0001	3091.2986	3100.0955	3105.0178	3116.5275	3125.0174	3192.0041	3479.824	3515.2615
CC#CC1NC1C1CN1	CC#C[C@H]1N[C@H]1[C@H]1CN1	
InChI=1S/C7H10N2/c1-2-3-5-7(9-5)6-4-8-6/h5-9H,4H2,1H3	InChI=1S/C7H10N2/c1-2-3-5-7(9-5)6-4-8-6/h5-9H,4H2,1H3/t5-,6-,7-/m1/s1
