14
gdb 27913	2.07118	1.87055	0.98326	2.4104	68.5	-0.2213	0.0057	0.2271	1103.6628	0.103828	-470.103398	-470.096027	-470.095083	-470.134963	29.084	
N	-0.0164470335	 1.286292677	-0.1625965245	-0.554871
C	 0.0024898266	-0.0760741073	-0.0952719009	 0.435305
N	-1.1856415486	-0.696657977	-0.0740569045	-0.42323
C	-1.1392964345	-2.0278350528	-0.0560762971	 0.448932
O	-2.3159044072	-2.6749306246	-0.0356899153	-0.41301
C	 0.039391773	-2.7656153177	-0.054717778	-0.340101
C	 1.1974378686	-1.9959581436	-0.0682873298	 0.448932
O	 2.3914081219	-2.6107148016	-0.0602888171	-0.41301
N	 1.2072637547	-0.6640146491	-0.0865614248	-0.42323
H	 0.8402669648	 1.7643347177	 0.0588352666	 0.261594
H	-0.883516468	 1.7408239877	 0.0678527292	 0.261594
H	-2.9976228246	-1.9884554602	-0.0449403614	 0.297909
H	 0.0541959544	-3.8445290937	-0.0382637415	 0.115277
H	 3.0540137225	-1.9059007148	-0.0765639208	 0.297909
185.7477	213.6875	238.5286	332.4044	351.9718	381.5794	495.073	531.327	543.3544	555.2794	559.6397	583.979	660.5094	722.6896	725.5778	803.8042	830.5437	993.4224	998.7579	1086.8722	1129.4155	1179.1004	1250.6472	1272.3948	1370.5121	1491.9632	1497.7976	1500.3402	1633.1409	1651.2946	1669.6005	3249.3746	3612.9584	3741.8485	3764.5097	3765.601
NC1=NC(O)=CC(O)=N1	Nc1nc(O)cc(O)n1	
InChI=1S/C4H5N3O2/c5-4-6-2(8)1-3(9)7-4/h1H,(H4,5,6,7,8,9)	InChI=1S/C4H5N3O2/c5-4-6-2(8)1-3(9)7-4/h1H,(H4,5,6,7,8,9)
