18
gdb 37152	3.87122	1.91459	1.65527	1.3435	78.56	-0.2293	0.0814	0.3108	853.6819	0.150657	-364.682293	-364.676578	-364.675634	-364.71187	25.695	
C	 0.012211952	 1.484329245	 0.0887981971	-0.251718
C	 1.3019933177	 0.7445623123	 0.0059765173	-0.039548
C	 2.0271705896	 0.322893319	 1.3145672205	-0.113032
C	 1.6171419683	-1.1747095387	 1.4522425924	-0.037186
C	 1.0769354821	-1.1420558502	 2.9089512271	-0.114615
C	-0.3731665911	-1.5335631675	 2.4448526191	-0.345009
C	 0.1780681419	-0.5938614384	 1.3550540999	 0.353878
C	 0.9263129092	 0.3178077208	 2.3943776331	-0.072652
N	-0.0096617785	 0.0091429214	 0.0369116073	-0.200865
H	-0.2572195931	 1.9743986239	 1.0195316914	 0.115712
H	-0.3811793178	 1.9664594333	-0.8020119423	 0.115294
H	 1.8499586399	 0.7102194915	-0.9313002604	 0.096057
H	 3.0389930567	 0.7002980651	 1.4690054004	 0.063831
H	 1.9703899604	-2.041052897	 0.8918070791	 0.075988
H	 1.5845851157	-1.4666230415	 3.8154078685	 0.078433
H	-0.5356293363	-2.579488278	 2.1674053284	 0.103035
H	-1.2007393533	-1.1577372051	 3.0539284305	 0.099061
H	 0.4903966566	 1.1496474743	 2.9475319305	 0.073334
290.5208	356.0382	409.1434	458.3127	545.3869	667.4957	683.9917	756.673	788.4449	794.1244	806.9637	847.0269	858.1283	892.4784	911.0513	939.7232	951.7492	987.7627	994.8216	1019.2256	1047.0365	1067.9089	1107.6772	1119.5672	1120.9698	1127.2048	1133.2668	1148.5695	1168.46	1185.7204	1205.2978	1219.9452	1235.8757	1270.521	1278.1864	1306.0444	1351.5618	1500.4197	1506.3977	3044.9027	3099.4417	3106.3069	3106.9555	3111.6945	3117.3925	3132.3911	3152.1498	3200.0482
C1C2C3C4C5CC4(C35)N12	C1[C@H]2[C@@H]3[C@H]4[C@@H]5C[C@]4([C@H]35)N12	
InChI=1S/C8H9N/c1-3-6-5-4-2-9(4)8(1,6)7(3)5/h3-7H,1-2H2	InChI=1S/C8H9N/c1-3-6-5-4-2-9(4)8(1,6)7(3)5/h3-7H,1-2H2/t3-,4-,5+,6+,7-,8-,9?/m0/s1
