18
gdb 87068	2.5185	1.33136	1.00701	3.6817	76.46	-0.2586	0.0215	0.2801	1205.4722	0.146447	-401.928206	-401.919056	-401.918112	-401.962734	33.592	
O	 0.3090851786	 1.15481668	 0.0855942295	-0.420061
C	-0.0315295484	-0.1818654224	 0.2077500858	 0.123035
C	-0.7704679938	-0.7233364129	 1.3910507773	-0.368742
C	-1.4672320254	-0.6865012922	 0.0210875849	 0.103762
C	-2.4290290269	 0.3756423804	-0.130669359	 0.236895
N	-3.1428405174	 1.278573479	-0.2615076129	-0.355016
C	-1.7635403686	-1.9270309518	-0.7791090129	-0.073567
C	-1.2056523961	-3.2795027991	-0.4136145847	-0.287809
C	-2.6764645124	-3.002187964	-0.2420713485	-0.253689
H	-0.491817276	 1.6946750436	 0.0852522602	 0.302735
H	 0.7291316317	-0.8169117201	-0.2350675631	 0.124475
H	-0.495559447	-1.6931981058	 1.7893351304	 0.131492
H	-1.1237806687	-0.0122938551	 2.1292212764	 0.14099
H	-1.8433687333	-1.7282369685	-1.8441517916	 0.106772
H	-0.8892787032	-3.9204982816	-1.2286262998	 0.123287
H	-0.6011674437	-3.3808785424	 0.4807921231	 0.118703
H	-3.04584595	-2.8811054044	 0.7704414784	 0.122895
H	-3.3805437194	-3.4652781726	-0.9233934436	 0.123842
38.6517	122.6315	131.9896	173.6852	205.3884	243.1843	316.4399	400.2525	434.0787	465.2986	566.5291	624.1817	664.8859	772.0051	818.788	830.3187	863.7266	896.1863	935.1747	955.8978	995.5038	1049.9911	1062.4632	1081.3109	1086.8129	1116.6609	1140.0395	1177.398	1196.3772	1207.9052	1259.4949	1286.4204	1350.2368	1408.2314	1428.0457	1463.803	1481.8694	1506.4122	2334.7977	3138.3608	3141.1483	3142.7103	3146.8377	3169.439	3216.0566	3230.8877	3234.8443	3769.349
OC1CC1(C#N)C1CC1	O[C@H]1C[C@]1(C#N)C1CC1	
InChI=1S/C7H9NO/c8-4-7(3-6(7)9)5-1-2-5/h5-6,9H,1-3H2	InChI=1S/C7H9NO/c8-4-7(3-6(7)9)5-1-2-5/h5-6,9H,1-3H2/t6-,7-/m0/s1
