18
gdb 12847	2.91198	2.36439	1.77329	1.5395	72.17	-0.2421	0.0134	0.2555	819.8875	0.155223	-347.807877	-347.800927	-347.799983	-347.83858	28.162	
O	 0.1798378959	 1.3868698213	-0.1676770711	-0.48016
C	 0.0637248635	-0.0153094993	-0.037075329	 0.41032
C	 0.3082909895	-0.74628788	-1.3755121904	-0.266338
C	-0.9072300191	-1.6637324706	-1.0673432448	-0.228726
C	-1.3473161417	-0.7027931914	 0.0784419929	-0.063988
C	-1.4574887767	-1.3009410865	 1.4900141876	-0.286837
C	-0.032520631	-1.2216615528	 1.9983832178	-0.055168
C	 0.7807306211	-0.5592826945	 1.1737477676	-0.17245
H	 0.065509136	 1.7747208447	 0.7071704563	 0.270772
H	 0.1159125088	-0.0649316749	-2.208418521	 0.110469
H	 1.282950374	-1.219125494	-1.5199604576	 0.094821
H	-1.6220831078	-1.8071151183	-1.8799380183	 0.099597
H	-0.6121727122	-2.6467027329	-0.6897163921	 0.099897
H	-2.1778600868	-0.0541951601	-0.2045992202	 0.068855
H	-2.1440852927	-0.7479189666	 2.1457567696	 0.102401
H	-1.8262593506	-2.3345252849	 1.4678652543	 0.107409
H	 0.2713999488	-1.6710839273	 2.9386469061	 0.095149
H	 1.8388350209	-0.379101022	 1.3354603022	 0.093976
127.888	231.2227	269.2365	327.4579	377.2357	425.3555	468.0153	610.198	644.8106	726.6867	764.4063	773.9073	821.8161	864.582	902.527	936.1954	946.5086	980.4866	998.1062	1033.7383	1048.7513	1093.5232	1097.9798	1144.6206	1162.3236	1200.4186	1223.82	1240.8612	1262.2079	1274.783	1305.6031	1321.4285	1353.9707	1389.403	1473.8764	1482.1355	1492.6931	1671.6567	3010.9978	3042.1003	3057.6735	3062.771	3094.9225	3108.3064	3123.4013	3171.8114	3196.9826	3795.5347
OC12CCC1CC=C2	O[C@]12CC[C@H]1CC=C2	
InChI=1S/C7H10O/c8-7-4-1-2-6(7)3-5-7/h1,4,6,8H,2-3,5H2	InChI=1S/C7H10O/c8-7-4-1-2-6(7)3-5-7/h1,4,6,8H,2-3,5H2/t6-,7-/m1/s1
