15
gdb 104967	2.61494	1.3871	1.0194	3.9679	67.17	-0.2793	-0.0952	0.1841	1131.117	0.111406	-453.926016	-453.91712	-453.916176	-453.960197	31.48	
O	 0.9337251818	 0.7612866435	-0.0412133418	-0.417705
C	 0.2343179885	-0.4391764124	-0.2864238449	-0.152002
C	-1.2491219761	-0.3286251606	 0.0223795411	 0.165705
C	-1.9761985133	-1.5192243803	 0.574399489	-0.279397
N	-1.7431993532	-0.3599315675	 1.4181858777	-0.321193
C	-1.9740418434	 0.6598069645	-0.8276825384	 0.301617
O	-1.4398585459	 1.3064167755	-1.700104985	-0.30385
C	-3.4169662617	 0.8317476114	-0.5625888719	 0.253
N	-4.5560693592	 0.9586037932	-0.4126908802	-0.314746
H	 0.6550221424	 1.3873310356	-0.7199506943	 0.303003
H	 0.3599185676	-0.7804083525	-1.3240870356	 0.114359
H	 0.6744190825	-1.2005280811	 0.3671652533	 0.108769
H	-3.0148443929	-1.6970894839	 0.3120300196	 0.15164
H	-1.3744859323	-2.4151261066	 0.7090578968	 0.134235
H	-0.9522923047	-0.4939405587	 2.0444729245	 0.256566
53.7321	99.8839	137.3918	191.1262	231.1476	295.7342	322.2564	332.5188	441.1409	474.1252	501.6307	606.3721	668.4463	742.814	809.5043	889.2215	936.2388	974.8544	1008.4181	1044.125	1083.6308	1115.8712	1143.336	1211.9241	1247.3152	1336.85	1386.0562	1394.4932	1430.3496	1485.5491	1508.1886	1767.2603	2343.424	3003.8159	3070.3576	3110.2798	3201.4232	3502.3637	3798.4097
OCC1(CN1)C(=O)C#N	OC[C@]1(CN1)C(=O)C#N	
InChI=1S/C5H6N2O2/c6-1-4(9)5(3-8)2-7-5/h7-8H,2-3H2	InChI=1S/C5H6N2O2/c6-1-4(9)5(3-8)2-7-5/h7-8H,2-3H2/t5-/m1/s1
