15
gdb 128193	3.95072	1.16021	0.90265	5.4092	75.05	-0.2264	-0.0486	0.1777	1225.3142	0.112308	-453.94009	-453.931701	-453.930757	-453.973613	29.973	
C	-0.0463230812	 1.4887652479	 0.0652272114	-0.325737
N	 0.0947636543	 0.0430954888	-0.0069284405	-0.356457
C	 0.6319008938	-0.7187656736	 0.9771212421	 0.528278
C	 0.6269361905	-2.0880494094	 1.0081883258	-0.411799
C	 1.2619744558	-2.7685137501	 2.0921546504	 0.374775
O	 1.3462573888	-3.977345879	 2.270071161	-0.38902
C	 1.8634093455	-1.8185380071	 3.071093017	-0.0503
N	 1.8550303132	-0.5390344618	 3.0322779525	-0.058777
O	 1.1999103471	 0.0440828395	 1.933243219	-0.274585
H	 0.9189948679	 1.9566139417	 0.2690547798	 0.160641
H	-0.4065521176	 1.8432287972	-0.9017848248	 0.137078
H	-0.7525286144	 1.8037326718	 0.8431280482	 0.141704
H	-0.4609525726	-0.4527843236	-0.6831590634	 0.264766
H	 0.1508919462	-2.6502036858	 0.2144074466	 0.105933
H	 2.3769905928	-2.2359415164	 3.9338213849	 0.153499
67.6692	111.8576	153.0241	188.8535	206.2597	352.8287	396.0498	419.0022	483.0558	512.8538	610.3541	691.2272	717.8576	728.9556	827.8974	915.3066	945.6036	957.4282	991.2985	1071.0385	1151.8685	1173.8151	1237.3106	1284.9424	1332.4975	1410.62	1467.0125	1485.0174	1490.1527	1521.1463	1641.1625	1677.0475	1749.8855	3029.5368	3106.5426	3145.6065	3178.1087	3206.7071	3660.0706
CNC1=CC(=O)C=NO1	CNc1cc(=O)cno1	
InChI=1S/C5H6N2O2/c1-6-5-2-4(8)3-7-9-5/h2-3,6H,1H3	InChI=1S/C5H6N2O2/c1-6-5-2-4(8)3-7-9-5/h2-3,6H,1H3
