23
gdb 88959	3.37848	0.8796	0.80842	1.6821	86.15	-0.2554	0.0874	0.3428	1544.6642	0.203896	-388.265798	-388.255728	-388.254784	-388.30126	37.596	
C	 0.2422419203	 1.5366541388	-0.3169257713	-0.402596
C	-0.1008919994	 0.1292347269	 0.1226842763	-0.013581
C	 0.9109416526	-0.9869372592	 0.0279841341	-0.291339
C	 0.4531568984	-0.4955205053	 1.3839045134	 0.017123
C	 1.3828123053	 0.2475564968	 2.32639865	-0.29025
C	 2.0426506011	-0.6731206883	 3.3428999608	 0.433015
C	 2.9955735668	-1.720500894	 2.8094049356	-0.456791
C	 2.1751846467	-0.2188919336	 4.735455544	-0.236037
O	 1.1484587835	-1.1437698707	 4.3677586597	-0.278515
H	 1.2905593832	 1.7831089385	-0.1244270432	 0.113288
H	 0.0724206706	 1.6584214128	-1.3924710314	 0.115557
H	-0.3737516861	 2.2804972574	 0.2013042032	 0.116175
H	-1.1253065147	-0.1557650877	-0.1046784522	 0.082405
H	 0.5912081047	-1.9652150354	-0.3149747633	 0.108092
H	 1.915016598	-0.7164804932	-0.2871741519	 0.104063
H	-0.2366276495	-1.1479874456	 1.9130197491	 0.096759
H	 2.1640163028	 0.7741244018	 1.7654578673	 0.094281
H	 0.8160572822	 1.0091080273	 2.875103533	 0.100867
H	 3.8429967606	-1.2494255063	 2.2992439537	 0.11533
H	 3.3794272247	-2.3390589828	 3.6243617462	 0.122682
H	 2.4917591988	-2.3719897344	 2.0898518233	 0.136145
H	 2.9664896567	-0.6257788302	 5.3647602174	 0.10667
H	 1.8301709527	 0.7757257567	 5.0172301861	 0.106656
50.043	70.4943	123.4849	181.7185	201.9787	204.5462	284.393	347.264	360.0723	390.1101	424.8737	469.113	512.8256	732.6109	760.5871	825.8372	832.9539	872.3527	879.8525	912.7645	923.8987	937.6656	975.3491	1021.2089	1056.7631	1075.8754	1093.156	1112.602	1135.4941	1147.5382	1160.2538	1176.7814	1200.7485	1230.2922	1247.0398	1299.382	1316.347	1390.7703	1401.8407	1417.3766	1424.9822	1429.29	1467.3119	1483.33	1492.323	1494.5397	1498.5731	1506.5964	1532.7287	3024.5124	3030.1021	3039.5889	3067.4755	3074.5367	3085.2293	3101.4586	3106.8635	3119.5101	3125.7927	3131.2089	3143.9926	3158.271	3203.5511
CC1CC1CC1(C)CO1	C[C@H]1C[C@H]1C[C@@]1(C)CO1	
InChI=1S/C8H14O/c1-6-3-7(6)4-8(2)5-9-8/h6-7H,3-5H2,1-2H3	InChI=1S/C8H14O/c1-6-3-7(6)4-8(2)5-9-8/h6-7H,3-5H2,1-2H3/t6-,7-,8-/m0/s1
