17
gdb 96806	2.32882	1.42978	0.9182	2.3279	73.2	-0.2563	-0.0145	0.2417	1234.8641	0.136107	-455.198131	-455.189313	-455.188369	-455.232258	31.985	
C	-0.2207029308	 1.366604932	 0.0165754472	-0.342698
N	-0.086830999	-0.079243712	 0.0587455863	-0.328268
C	 0.6323932988	-0.6234101587	 0.9448539312	 0.384131
N	 1.3817876324	-0.0792234659	 1.980135648	-0.378079
C	 1.8060566063	-1.0153334004	 2.9263084603	 0.402573
O	 2.4736096061	-0.755061276	 3.8931286255	-0.342649
C	 1.2359868152	-2.3638379635	 2.490423659	-0.361054
C	 0.7695386462	-2.1404473374	 1.0448917698	 0.068335
O	-0.4312828202	-2.7945697696	 0.7348514474	-0.435147
H	 0.5917636134	 1.8152213744	-0.5701679611	 0.131685
H	-1.1597453888	 1.6276060067	-0.4780007807	 0.137063
H	-0.2224039608	 1.8383010054	 1.0111187965	 0.105725
H	 1.5724911497	 0.9033092544	 2.1062541974	 0.268118
H	 1.9736651201	-3.1558422353	 2.6207762355	 0.141942
H	 0.3702129616	-2.5950820178	 3.1202683699	 0.15566
H	 1.5718308426	-2.4431849837	 0.3506546562	 0.098685
H	-0.8819867928	-2.2154744528	 0.1021945117	 0.293978
69.1451	90.4014	125.0148	184.2444	211.6087	290.6544	401.062	427.987	475.8673	524.7385	577.4141	587.0981	613.2695	640.2176	738.1929	823.7374	882.066	969.6806	1013.7996	1071.4658	1116.1687	1129.5834	1164.8533	1169.5327	1198.4233	1250.127	1283.0246	1326.4765	1364.9599	1376.8877	1426.6487	1444.9433	1461.5695	1488.4347	1510.2534	1791.3509	1864.1159	2957.942	2983.5514	3048.5227	3068.7953	3103.2785	3138.9014	3633.7671	3724.1394
CN=C1NC(=O)CC1O	CN=C1NC(=O)C[C@H]1O	
InChI=1S/C5H8N2O2/c1-6-5-3(8)2-4(9)7-5/h3,8H,2H2,1H3,(H,6,7,9)	InChI=1S/C5H8N2O2/c1-6-5-3(8)2-4(9)7-5/h3,8H,2H2,1H3,(H,6,7,9)/t3-/m1/s1
