17
gdb 16160	4.4879	1.6632	1.42933	1.3111	67.56	-0.2428	0.0171	0.2599	911.9846	0.142992	-363.864647	-363.857445	-363.856501	-363.896078	27.52	
C	 0.0044555634	 1.5277624318	 0.2170514096	-0.372191
C	-0.0035956727	 0.032234425	-0.11930281	-0.271176
C	-1.3914195117	-0.5589185484	-0.0911372449	 0.34628
C	-2.062420192	-0.9882890131	 1.2029448139	-0.351712
C	-1.7714006073	-2.0134096565	 0.1440196534	 0.006445
O	-2.8246154582	-2.2870848756	-0.7716165186	-0.214299
C	-3.0490241532	-1.1038542777	-1.4020610442	 0.094124
N	-2.3161405303	-0.1051318062	-1.1182433734	-0.30111
H	 1.0181142902	 1.9360818058	 0.1642097897	 0.107996
H	-0.626686526	 2.0801611992	-0.4841830218	 0.140997
H	-0.3803476211	 1.7058581753	 1.2266479466	 0.114187
H	 0.4277255735	-0.1271658054	-1.1149714665	 0.10591
H	 0.6284631134	-0.5170467609	 0.5890721552	 0.093428
H	-1.4310237253	-1.032989213	 2.0843352191	 0.119991
H	-3.0910855457	-0.6940977338	 1.3829382069	 0.123953
H	-1.1120517754	-2.8585635679	 0.2942116615	 0.113944
H	-3.8594212617	-1.1195682485	-2.1205334264	 0.143234
86.6281	167.5945	213.9787	306.2142	348.6944	372.0063	446.6606	601.9609	667.8223	752.8	791.6838	810.6462	849.1705	905.9338	932.6589	959.2901	978.0144	995.9936	1010.8201	1045.7196	1085.3453	1096.9677	1128.8822	1141.9848	1228.9091	1275.7878	1302.198	1335.6021	1365.017	1398.4326	1410.2012	1464.863	1480.5419	1497.2769	1510.4078	1668.5369	3026.8836	3039.6144	3062.7976	3106.5021	3123.1218	3127.3381	3195.6077	3220.5903	3228.5192
CCC12CC1OC=N2	CC[C@]12C[C@H]1OC=N2	
InChI=1S/C6H9NO/c1-2-6-3-5(6)8-4-7-6/h4-5H,2-3H2,1H3	InChI=1S/C6H9NO/c1-2-6-3-5(6)8-4-7-6/h4-5H,2-3H2,1H3/t5-,6+/m1/s1
