18
gdb 10065	2.98655	1.12832	0.85222	2.6608	73.62	-0.2496	0.0354	0.285	1357.7237	0.150909	-384.901043	-384.89094	-384.889996	-384.93767	33.978	
C	 0.0759972018	 1.2865545575	-0.0738596634	-0.236528
O	-0.1612681285	-0.0825088003	 0.1816944991	-0.246132
C	 0.6474828509	-0.630677517	 1.2209105427	-0.098555
C	 0.0297723543	-2.0050928029	 1.5207797757	-0.062444
O	-1.3269852279	-1.8764700712	 1.877873231	-0.420906
C	 2.0598341198	-0.7306812012	 0.8501931479	 0.102644
C	 3.2189178491	-0.8434329709	 0.5419361712	 0.049212
C	 4.6208964909	-0.9760879847	 0.1740365376	-0.499719
H	 1.1075254124	 1.4604847756	-0.4072542113	 0.120529
H	-0.6130391178	 1.5881288123	-0.866106411	 0.128158
H	-0.1129534489	 1.9015242358	 0.8192680515	 0.107876
H	 0.5433604887	-0.0037415376	 2.1223047728	 0.094488
H	 0.168199243	-2.6458090429	 0.6367449359	 0.100001
H	 0.5543430307	-2.4647651282	 2.3627490161	 0.11564
H	-1.7227229847	-1.3281341173	 1.1891762486	 0.288801
H	 5.0711093238	-1.8541870701	 0.6497543603	 0.15331
H	 4.7356966766	-1.0918784934	-0.909157947	 0.153226
H	 5.200326706	-0.0981325836	 0.4796300324	 0.150399
19.4787	80.4513	100.1972	111.88	162.7811	215.9142	243.4297	277.6238	351.9541	357.4295	449.5339	477.6692	536.0368	559.8367	800.9152	864.2681	1029.5184	1052.4646	1054.0981	1074.1162	1088.7985	1139.7164	1162.6585	1185.6498	1196.0525	1255.58	1297.395	1363.8709	1383.7646	1413.89	1433.3116	1476.3764	1477.9698	1478.7236	1484.3089	1498.0892	1511.2136	2364.7092	2963.6778	2986.6234	2996.9468	3028.8324	3048.5331	3090.5477	3091.597	3097.4839	3119.6974	3785.7766
COC(CO)C#CC	CO[C@@H](CO)C#CC	
InChI=1S/C6H10O2/c1-3-4-6(5-7)8-2/h6-7H,5H2,1-2H3	InChI=1S/C6H10O2/c1-3-4-6(5-7)8-2/h6-7H,5H2,1-2H3/t6-/m1/s1
