21
gdb 107616	2.51282	1.51097	1.11385	1.9152	77.37	-0.2552	0.072	0.3272	1159.2223	0.182906	-424.228041	-424.219124	-424.21818	-424.26155	34.298	
C	-0.2146036929	 1.4947196828	-0.0954151697	-0.409835
C	-0.0719786998	-0.0292508858	-0.0647991999	-0.033894
C	 0.8245503382	-0.5883291804	-1.2012762546	-0.227476
C	 1.4350261933	-1.9026394843	-0.6637730306	-0.252437
C	 1.4742358436	-1.6890834917	 0.8351798701	-0.011135
O	 2.0053124189	-0.4104076104	 1.2249809022	-0.316436
C	 0.5673752121	-0.5932021118	 1.202294367	 0.383774
C	-0.0790664283	-0.4668661867	 2.5577139561	-0.160035
O	-0.0316637849	 0.8644949387	 3.0489732843	-0.412511
H	 0.7682200841	 1.967712104	 0.0042374582	 0.120198
H	-0.65146249	 1.8240113566	-1.0440807371	 0.106715
H	-0.8431116617	 1.8550590723	 0.7219719895	 0.13335
H	-1.0717199005	-0.4824936617	-0.1358846013	 0.071147
H	 0.2696734104	-0.7313597389	-2.1319412433	 0.096926
H	 1.624758766	 0.1281030219	-1.4052806032	 0.115277
H	 0.7918741538	-2.766003194	-0.8759161355	 0.103133
H	 2.4205457633	-2.1177251443	-1.0883120417	 0.109592
H	 1.7062655328	-2.5084396748	 1.5123605974	 0.088767
H	-1.1398557432	-0.7334585085	 2.4986002638	 0.109516
H	 0.4062883581	-1.1640651924	 3.2570038495	 0.091779
H	 0.8968294167	 1.1245558994	 3.0406394989	 0.293582
68.1502	125.6539	176.0643	234.1159	256.0858	286.853	319.5184	371.9694	428.2888	452.8093	530.0288	614.3915	663.0728	709.4439	818.5966	831.4575	903.1575	919.7214	948.4457	962.7885	973.2811	1017.1374	1035.0412	1051.7059	1082.0179	1128.2829	1147.798	1166.4106	1207.3074	1234.3868	1271.0521	1285.1702	1318.0689	1330.108	1344.1075	1364.8256	1387.6261	1410.8862	1426.2598	1459.0361	1482.3534	1491.5338	1492.9896	1497.9909	1505.862	2991.7461	2999.2341	3034.0651	3035.9676	3064.5317	3073.7646	3082.5473	3099.6037	3110.1604	3127.7134	3137.0559	3798.4155
CC1CCC2OC12CO	C[C@H]1CC[C@H]2O[C@@]12CO	
InChI=1S/C7H12O2/c1-5-2-3-6-7(5,4-8)9-6/h5-6,8H,2-4H2,1H3	InChI=1S/C7H12O2/c1-5-2-3-6-7(5,4-8)9-6/h5-6,8H,2-4H2,1H3/t5-,6+,7-/m0/s1
