20
gdb 78327	3.02602	1.45508	1.2645	2.5974	79.55	-0.2167	0.0702	0.2869	1097.9357	0.170002	-403.069348	-403.061134	-403.06019	-403.101491	32.631	
C	-0.1475433466	 1.3128032589	-0.0627429536	-0.320887
N	 0.1166615438	-0.1202217972	 0.0343171762	-0.089947
C	 1.5296590088	-0.469539902	-0.1559042382	-0.048277
C	 0.9158730609	-0.4784389427	 1.2142199856	-0.096426
C	 1.0457436432	-2.0313626956	 1.2739582562	 0.448487
C	 1.7101902206	-2.6027698895	 2.4979599367	-0.482292
O	-0.1083478467	-2.7759709997	 0.8321354085	-0.325678
C	 0.3792718347	-2.8147297193	-0.5342518619	-0.090974
C	 1.6437963368	-2.0111082987	-0.1583186588	-0.173113
H	 0.6736987713	 1.94782089	 0.311082355	 0.096689
H	-0.329634113	 1.5712523315	-1.1104804402	 0.124779
H	-1.0496511814	 1.5474769804	 0.5104456775	 0.128466
H	 2.2148145141	 0.2405874225	-0.6038182583	 0.089634
H	 1.0148906562	 0.2246178657	 2.0348641989	 0.082227
H	 1.0294106473	-2.5463134149	 3.355193967	 0.130116
H	 1.9754473857	-3.6521054485	 2.3416910831	 0.12438
H	 2.6174542313	-2.0421597894	 2.7467314768	 0.118048
H	 0.5775115358	-3.8459811688	-0.8500109984	 0.091905
H	-0.3117349151	-2.3294317069	-1.2279541264	 0.11342
H	 2.6247049723	-2.4275500959	-0.3828515957	 0.079442
170.5908	192.4905	207.9968	235.9322	252.0482	291.2067	335.7023	373.523	483.9483	532.5629	630.8048	738.8737	807.3898	817.6243	840.1481	855.9723	882.8739	903.0511	920.9939	988.3266	999.5102	1010.1583	1060.611	1082.317	1119.4432	1122.6178	1154.7253	1160.089	1166.6049	1178.6294	1223.5722	1260.9011	1304.2848	1313.6139	1341.1292	1370.8196	1404.0561	1453.6719	1479.4182	1488.499	1492.8226	1499.0184	1501.2474	2957.7113	3025.4544	3030.7601	3069.016	3097.8447	3098.0718	3106.9616	3114.5482	3124.6628	3162.6895	3184.5967
CN1C2C1C1(C)OCC21	CN1[C@H]2[C@@H]1[C@@]1(C)OC[C@@H]21	
InChI=1S/C7H11NO/c1-7-4(3-9-7)5-6(7)8(5)2/h4-6H,3H2,1-2H3	InChI=1S/C7H11NO/c1-7-4(3-9-7)5-6(7)8(5)2/h4-6H,3H2,1-2H3/t4-,5+,6+,7-,8?/m0/s1
