20
gdb 14151	4.23116	1.48373	1.28385	1.7593	74.76	-0.2502	0.0811	0.3313	1032.4001	0.177608	-349.012883	-349.004907	-349.003963	-349.045444	30.484	
C	 0.1020087549	 1.4860238263	-0.301883591	-0.420402
C	 0.0439821107	 0.0111799646	 0.0043217734	-0.00717
O	 1.2930465906	-0.6863038819	 0.0993334581	-0.299149
C	 0.4745611681	-0.5820584826	 1.2778757179	 0.434309
C	 1.0664349694	 0.1979896231	 2.4612631894	-0.287687
C	 0.7734454064	-0.6724212131	 3.7047187335	-0.20676
C	 0.6388750403	-2.1013081484	 3.1457843005	-0.209136
C	-0.1121684725	-1.8841816508	 1.8220141506	-0.277832
H	 0.876747168	 1.9832982172	 0.286090257	 0.126389
H	 0.3236049304	 1.6469863739	-1.3622352107	 0.127291
H	-0.8614445987	 1.9616295563	-0.0864254014	 0.117937
H	-0.7156883977	-0.536567721	-0.5603388689	 0.078069
H	 2.1434747595	 0.3005965381	 2.295277859	 0.118439
H	 0.6558179107	 1.2075910974	 2.5521438389	 0.101068
H	 1.544927734	-0.5808332559	 4.473774642	 0.097977
H	-0.1756479628	-0.3672153838	 4.1616662059	 0.098037
H	 1.6325099392	-2.5196278722	 2.944990966	 0.106356
H	 0.1258175062	-2.7834755725	 3.8289532755	 0.093919
H	-1.1839506955	-1.7528159489	 2.020437591	 0.098633
H	-0.0013061413	-2.6963827258	 1.0998826631	 0.109712
48.7784	166.2265	187.713	214.0158	270.0228	386.1441	428.4837	471.242	524.832	568.8582	716.5835	758.4068	836.6985	862.79	886.8801	908.8174	934.6748	968.7781	991.1636	1016.6367	1041.0825	1045.5809	1121.1278	1148.5473	1173.6182	1191.3543	1214.2535	1241.4255	1260.6773	1302.2633	1314.9797	1338.5437	1343.2598	1370.7521	1407.4731	1467.18	1475.4049	1483.0858	1489.7757	1493.1382	1507.7247	1514.4606	3024.2833	3033.4738	3035.0658	3040.0983	3053.0766	3066.6391	3087.6631	3093.7419	3096.3515	3101.8667	3106.9163	3128.4403
CC1OC11CCCC1	C[C@H]1OC21CCCC2	
InChI=1S/C7H12O/c1-6-7(8-6)4-2-3-5-7/h6H,2-5H2,1H3	InChI=1S/C7H12O/c1-6-7(8-6)4-2-3-5-7/h6H,2-5H2,1H3/t6-/m1/s1
