21
gdb 104118	2.49702	1.26732	1.10045	4.1002	78.53	-0.2425	0.0611	0.3036	1229.3964	0.183661	-420.471795	-420.46249	-420.461546	-420.505527	35.699	
C	 0.0531481115	 1.5224048932	 0.1167653625	-0.405113
C	-0.0950346522	-0.0015350533	 0.0838240353	-0.191918
C	-1.5415358169	-0.5288254341	-0.0953847553	 0.28772
C	-2.1138119434	-0.1748251409	-1.4699600149	-0.43701
C	-1.573054485	-2.063189869	 0.1665014229	-0.200447
N	-1.8043355618	-2.1240946961	 1.6005396799	-0.344181
C	-2.4654066494	-0.9817781918	 2.0406082087	 0.425304
O	-2.9673692733	-0.807866405	 3.1283295894	-0.4126
N	-2.4318304864	-0.084615616	 0.9822657882	-0.363383
H	 1.0987445728	 1.7988728925	 0.2809818955	 0.123234
H	-0.2646918603	 1.9916774315	-0.8195469423	 0.120183
H	-0.5263482855	 1.9677555796	 0.9325074655	 0.116784
H	 0.5170946308	-0.4092636739	-0.7307053975	 0.095459
H	 0.3017544622	-0.4227609883	 1.0146882669	 0.115342
H	-1.4990176298	-0.6064642512	-2.2671983586	 0.117693
H	-3.1332220993	-0.5565516421	-1.5680533266	 0.124652
H	-2.1446629711	 0.9078191354	-1.6235374544	 0.120561
H	-2.3835452363	-2.5339600406	-0.4085904122	 0.100347
H	-0.6282827548	-2.5376737437	-0.1157021201	 0.110065
H	-2.0517521321	-2.9903884183	 2.0516360923	 0.251066
H	-2.5358171095	 0.8920917221	 1.206614585	 0.246243
83.5841	122.0049	178.9949	218.6532	244.2958	257.5006	314.9754	347.2613	392.9696	479.1627	499.4372	524.246	538.4752	611.3802	721.6542	767.6272	782.2664	797.8225	899.8609	958.3676	983.2108	1008.7837	1013.57	1027.2478	1073.6045	1086.9751	1177.2586	1197.7691	1214.5869	1248.3987	1295.8757	1322.7647	1354.3473	1372.7506	1397.9202	1413.5153	1418.639	1439.887	1479.4579	1493.8367	1499.402	1505.6191	1511.1399	1527.5196	1850.0122	2994.8034	3023.9239	3036.7143	3040.2473	3065.1218	3072.0822	3103.7527	3104.8344	3110.2151	3121.2919	3643.7038	3646.3513
CCC1(C)CNC(=O)N1	CC[C@@]1(C)CNC(=O)N1	
InChI=1S/C6H12N2O/c1-3-6(2)4-7-5(9)8-6/h3-4H2,1-2H3,(H2,7,8,9)	InChI=1S/C6H12N2O/c1-3-6(2)4-7-5(9)8-6/h3-4H2,1-2H3,(H2,7,8,9)/t6-/m0/s1
