21
gdb 106160	2.72646	1.4519	1.42527	1.8961	81.4	-0.2335	0.0782	0.3116	1078.2658	0.183473	-387.050153	-387.042188	-387.041243	-387.08254	31.654	
C	-0.0751783205	 1.5391555969	 0.1113323222	-0.37815
C	-0.0015260313	 0.0100107267	 0.0133820732	-0.344553
C	 0.6968277074	-0.4783323493	-1.2246679653	 0.35801
C	 0.9619991969	-1.984886879	-1.6434748785	-0.122608
C	 0.2209028006	-1.7142134213	-2.9798522216	-0.239384
C	 0.3320066888	-0.1951731705	-2.7180392449	 0.056249
O	 1.660554545	 0.301234646	-2.993064505	-0.307975
C	 2.1468717997	-0.1556789283	-1.7114569811	 0.056167
C	 2.4784035117	-1.664434245	-1.7283728546	-0.239278
H	 0.925245332	 1.9834528861	 0.123242539	 0.122265
H	-0.6163704817	 1.9651902643	-0.7396161547	 0.122415
H	-0.5905681789	 1.8490077722	 1.0253071481	 0.113356
H	 0.5128422182	-0.3921303235	 0.8971801724	 0.099806
H	-1.0160291663	-0.4110542379	 0.041882272	 0.099822
H	 0.6527634876	-2.8467736472	-1.0512637107	 0.064989
H	 0.6625263447	-2.0906645754	-3.9068100819	 0.099681
H	-0.8240867832	-2.0372793087	-2.9186137189	 0.097845
H	-0.4418336968	 0.4797904926	-3.0919495882	 0.071882
H	 2.8506137457	 0.5518991196	-1.266160549	 0.071915
H	 2.9905862103	-1.9537147256	-0.8042218658	 0.097825
H	 3.0430026501	-2.0374788727	-2.5874057965	 0.099721
90.6178	143.7712	179.77	265.1033	303.1385	374.585	380.3423	447.5624	589.1448	651.9461	707.2021	770.6085	816.5832	850.2143	854.6204	912.7109	928.274	954.7761	955.4602	970.5619	983.8222	1013.8685	1028.2585	1111.3424	1113.9324	1116.5944	1120.7508	1165.304	1171.7999	1182.2652	1202.2357	1249.1333	1279.8467	1280.4059	1307.7467	1322.98	1339.8887	1349.8474	1382.9102	1412.6846	1461.4362	1474.1115	1481.9267	1498.9543	1505.9783	3006.4824	3034.5741	3037.5239	3040.8807	3041.2867	3073.4883	3078.811	3097.9073	3099.7699	3104.5406	3106.5636	3108.7089
CCC12C3CC1OC2C3	CC[C@@]12[C@H]3C[C@@H]1O[C@@H]2C3	
InChI=1S/C8H12O/c1-2-8-5-3-6(8)9-7(8)4-5/h5-7H,2-4H2,1H3	InChI=1S/C8H12O/c1-2-8-5-3-6(8)9-7(8)4-5/h5-7H,2-4H2,1H3/t5-,6-,7+,8+
