18
gdb 13496	3.19086	1.66798	1.42234	1.8104	69.08	-0.217	0.0223	0.2394	959.5129	0.15367	-381.098293	-381.089897	-381.088953	-381.131294	30.405	
C	-0.0037278024	 1.5003127103	-0.0968006931	-0.330509
N	 0.0292048963	 0.0488384558	 0.0573901492	-0.059668
C	 0.8385866557	-0.351701511	 1.2031706211	-0.33709
C	-1.2817043335	-0.545440903	 0.0084178566	-0.078649
C	-1.4220980983	-2.0861698388	-0.0830208409	-0.117718
O	-2.2951710578	-2.085129496	 1.0877963477	-0.254093
C	-2.1371429443	-0.7251111817	 1.2722821716	 0.41338
N	-2.5465302724	 0.0283910201	 2.1872914501	-0.545889
H	 1.0203786091	 1.8738926497	-0.196520605	 0.117595
H	-0.549208212	 1.7619677637	-1.0089781382	 0.117962
H	-0.4790833365	 2.0191399876	 0.7517196313	 0.127886
H	 0.4422532044	 0.0172052608	 2.1632424124	 0.123432
H	 0.9107648149	-1.4415549755	 1.2594048323	 0.119332
H	 1.8526595729	 0.0385714514	 1.0753799417	 0.121309
H	-1.8553242614	-0.0445148586	-0.7763503627	 0.109748
H	-1.9398560012	-2.4772836195	-0.9615671739	 0.121457
H	-0.5108595317	-2.6575980742	 0.1053669471	 0.124443
H	-3.0806530417	-0.4883274312	 2.8892297827	 0.227072
70.3493	117.4987	147.2963	224.3997	241.8517	294.4707	353.6969	394.9324	441.6639	482.2841	652.5828	729.0008	802.3661	867.5397	931.1419	944.5887	974.0236	1008.9572	1064.2109	1069.73	1120.7162	1123.2409	1152.8429	1189.314	1214.6331	1230.5561	1238.3882	1322.6969	1348.0966	1405.9405	1443.6213	1476.5672	1479.7381	1495.1677	1504.2753	1517.6377	1525.7422	1813.6866	2973.8253	2979.486	3063.8029	3068.0946	3072.0802	3076.1922	3102.5416	3109.2829	3129.2434	3463.1324
CN(C)C1COC1=N	CN(C)[C@H]1CO[C]1[NH]	
InChI=1S/C5H10N2O/c1-7(2)4-3-8-5(4)6/h4,6H,3H2,1-2H3	InChI=1S/C5H10N2O/c1-7(2)4-3-8-5(4)6/h4,6H,3H2,1-2H3/t4-/m0/s1
