19
gdb 6776	4.72283	0.95412	0.83486	6.279	69.3	-0.2471	0.0296	0.2767	1378.2999	0.165585	-402.238384	-402.229439	-402.228495	-402.272697	31.751	
C	 0.0178446216	 1.272169356	-0.5361540796	-0.396719
C	 0.0302579623	-0.0551416735	 0.2143490373	-0.114434
N	-1.276263799	-0.7177725617	 0.138992182	-0.299106
H	-1.9923955012	-0.0794679027	 0.478508815	 0.227689
H	-1.9445952298	-1.5199699357	-1.3060387398	 0.299947
C	-1.3616083695	-1.9777947201	 0.8918148306	-0.158038
C	-2.6851930007	-2.6954118873	 0.6002541482	-0.350214
C	-2.8922877712	-3.112939668	-0.8623995531	 0.405959
O	-2.4010737609	-2.2653562628	-1.7775863058	-0.375032
O	-3.4755773975	-4.1188703813	-1.1698889081	-0.331806
H	 1.002624265	 1.7454526374	-0.4935709437	 0.127819
H	-0.2502307196	 1.1244220725	-1.5862021775	 0.136525
H	-0.703972837	 1.9696845572	-0.0960119357	 0.118406
H	 0.7687673698	-0.7320430346	-0.2308268414	 0.120698
H	 0.3397010647	 0.1052015179	 1.2610082884	 0.094419
H	-0.5215816293	-2.6061317861	 0.5729472548	 0.127793
H	-1.2487702631	-1.823389667	 1.9763866599	 0.10295
H	-2.7747582417	-3.5970923104	 1.2088967867	 0.138127
H	-3.525135793	-2.0440266296	 0.8800083119	 0.125014
64.5168	79.0726	109.2981	183.3523	217.8748	255.171	299.5675	351.1535	431.1216	505.7266	578.1161	702.5177	789.5738	813.8623	827.9042	887.797	935.7471	972.38	997.3604	1046.0575	1065.0319	1118.2881	1147.3537	1154.9247	1234.1044	1257.9857	1286.5496	1316.1685	1354.1166	1362.6057	1407.1853	1424.6129	1457.4034	1479.1815	1496.0592	1499.4581	1501.6727	1510.3632	1526.1417	1859.4338	2962.0264	2979.9388	3022.4877	3036.2192	3054.1827	3060.8435	3105.1563	3119.7992	3123.2681	3225.6193	3486.9024
CC[NH2+]CCC([O-])=O	CCNCCC(=O)O	
InChI=1S/C5H11NO2/c1-2-6-4-3-5(7)8/h6H,2-4H2,1H3,(H,7,8)	InChI=1S/C5H11NO2/c1-2-6-4-3-5(7)8/h6H,2-4H2,1H3,(H,7,8)
