17
gdb 20154	3.4701	3.07161	2.74086	1.651	69.03	-0.2351	0.1049	0.34	639.7321	0.146902	-326.694939	-326.690022	-326.689078	-326.723514	22.137	
C	-0.0309361121	 1.5973628384	 0.0072213709	-0.210994
C	 1.4963431229	 1.7577587163	 0.0249104752	-0.066549
C	 1.8874851925	 0.9048150574	 1.2415730609	-0.044265
C	 2.3890660862	-0.1928976627	 0.3883866298	-0.044261
C	 2.0412579817	 0.5650986681	-0.9020587043	-0.066552
C	 0.7779346004	-0.1730290851	-1.3687696759	-0.210995
C	 0.0261924641	 0.0576333768	-0.0428007661	 0.000087
N	 1.0496910868	-0.3042782336	 1.0244706661	-0.125666
H	-0.4964730782	 1.9862366137	 0.9179560263	 0.100815
H	-0.5314077337	 2.0287515954	-0.864936364	 0.094105
H	 1.9335712111	 2.7457423681	-0.1022222192	 0.068318
H	 2.1317595632	 1.2136255635	 2.2521418773	 0.08583
H	 3.1286913363	-0.9681511161	 0.5563726009	 0.08583
H	 2.825986139	 0.7925040529	-1.620341514	 0.068316
H	 0.2684704033	 0.2780060605	-2.2256484531	 0.094106
H	 0.9724337376	-1.2287697253	-1.5808237099	 0.100816
H	-0.901568631	-0.4899183683	 0.1163111491	 0.071059
383.1709	469.4021	538.5465	663.996	665.3619	760.9687	795.7871	809.6777	821.8471	861.9008	899.2857	907.8942	913.0738	935.4135	944.3718	964.8541	970.4109	992.781	998.3657	1050.5279	1053.1851	1103.5587	1126.1111	1160.1962	1192.2047	1203.9711	1220.2951	1241.2388	1254.1317	1276.2195	1283.8074	1313.2175	1313.3165	1359.0219	1477.6505	1499.8394	3048.9848	3054.19	3099.5174	3106.5545	3129.4678	3136.3118	3144.5543	3161.0196	3176.2126
C1C2C3C4C2CC1N34	C1[C@H]2[C@@H]3[C@@H]4[C@H]2C[C@H]1N34	
InChI=1S/C7H9N/c1-3-2-5-4(1)6-7(5)8(3)6/h3-7H,1-2H2	InChI=1S/C7H9N/c1-3-2-5-4(1)6-7(5)8(3)6/h3-7H,1-2H2/t3-,4+,5-,6+,7-,8?
