21
gdb 82899	3.01944	1.8018	1.55559	1.4432	80.01	-0.2364	0.0913	0.3276	957.8885	0.187204	-387.085337	-387.078665	-387.077721	-387.116045	28.889	
C	-0.2229536036	 1.5661941064	 0.0370958244	-0.444189
C	 0.0508422263	 0.0620913343	-0.0129423725	 0.085506
C	 0.9904374923	-0.5028687604	-1.1146594266	-0.092392
C	 2.2772754117	 0.2792794049	-0.7762477526	-0.209772
C	 2.4421690774	-0.4062392392	 0.6042843856	-0.07003
C	 2.7432256581	-1.8291914459	 0.0768080038	-0.194539
C	 1.3181773521	-1.9635757277	-0.4909057682	 0.068207
O	 0.6193549767	-1.967366098	 0.7673280095	-0.265409
C	 0.9079854152	-0.5972587741	 1.0928448605	 0.050794
H	 0.6449752468	 2.1658851294	 0.3206636676	 0.120273
H	-0.5817213118	 1.9349880288	-0.9304353456	 0.117049
H	-1.0054820081	 1.7714039645	 0.7752630739	 0.115666
H	-0.9101729868	-0.4578355363	-0.0164314268	 0.078943
H	 0.6299683567	-0.4900217327	-2.1429506897	 0.058931
H	 3.1228252695	 0.070591061	-1.4355747773	 0.090359
H	 2.1292852712	 1.3581981749	-0.7628476137	 0.093263
H	 3.1281010552	 0.0334606693	 1.3265009565	 0.063039
H	 3.5647254624	-1.8378852408	-0.6429504499	 0.088924
H	 2.9089523041	-2.5943822519	 0.8362317632	 0.101426
H	 1.0491892292	-2.8370765061	-1.0825749419	 0.073359
H	 0.6854953954	-0.3934101205	 2.1396961098	 0.070592
146.869	209.4098	306.1171	402.7981	512.2213	554.1127	580.6243	625.2383	656.1166	749.5772	781.3034	804.9283	859.988	883.0327	892.2259	912.9547	927.4117	941.1638	948.8267	966.1723	975.0727	1019.9219	1044.2806	1069.6148	1090.6219	1098.0117	1126.0496	1158.2712	1164.3431	1197.0451	1203.2276	1240.9127	1253.11	1268.5096	1274.2914	1285.3462	1315.1986	1322.1371	1333.8138	1386.671	1413.1779	1488.8999	1495.9361	1505.0464	1541.5887	3034.5622	3067.6281	3071.2156	3081.3886	3092.9797	3112.2925	3117.9049	3123.4833	3129.7666	3131.638	3137.5444	3140.5586
CC1C2CC3CC2OC13	C[C@H]1[C@H]2C[C@@H]3C[C@H]2O[C@H]13	
InChI=1S/C8H12O/c1-4-6-2-5-3-7(6)9-8(4)5/h4-8H,2-3H2,1H3	InChI=1S/C8H12O/c1-4-6-2-5-3-7(6)9-8(4)5/h4-8H,2-3H2,1H3/t4-,5+,6+,7+,8+/m0/s1
