19
gdb 68011	2.76681	1.5964	1.21681	2.8861	75.66	-0.2275	-0.0143	0.2132	1076.6104	0.157617	-423.04235	-423.0338	-423.032856	-423.074991	33.244	
C	 0.0521834894	 1.4918394989	 0.0959428324	-0.492159
C	-0.008140339	-0.0031972594	-0.0319035537	 0.410742
C	 0.6115541365	-0.7924475217	-1.2123911933	-0.325621
C	 0.7411621706	-1.8463122911	-0.0825388472	 0.297329
C	 1.7542330019	-2.946075189	-0.0129577165	-0.505797
O	 0.9009377626	-0.735856345	 0.8709404538	-0.360797
C	-0.7434949814	-2.1679724509	 0.1878784585	 0.421514
O	-1.2732176713	-3.2349385216	 0.3260484175	-0.32961
C	-1.3352396392	-0.7437106539	 0.2443887077	-0.380928
H	 1.0694717735	 1.8538091502	-0.0768480453	 0.128868
H	-0.615005317	 1.9630419553	-0.633040227	 0.125565
H	-0.2613510932	 1.8047091332	 1.0969868674	 0.132965
H	-0.003393634	-1.0158555974	-2.0889809967	 0.104533
H	 1.5895660931	-0.4001100411	-1.4985087171	 0.11307
H	 2.760438496	-2.5710097428	-0.2160727265	 0.125461
H	 1.7430092076	-3.4072057686	 0.9790616013	 0.142273
H	 1.5083714368	-3.7221121108	-0.744013767	 0.137274
H	-1.7367285495	-0.513170709	 1.2347101807	 0.13296
H	-2.1204704229	-0.5959468853	-0.5028855888	 0.122359
120.0563	158.8053	198.3869	220.2458	252.4697	272.5266	350.8799	421.3942	489.4725	515.6301	568.6491	619.8431	645.7117	694.6049	763.4696	801.4047	838.7455	858.2329	935.1054	956.801	1001.8715	1031.6485	1056.4378	1078.9579	1110.103	1162.7291	1190.0107	1212.5007	1216.6309	1244.478	1316.2204	1365.4249	1413.7114	1424.3737	1449.474	1474.9103	1479.8462	1487.144	1490.8222	1494.872	1877.4474	3038.9042	3046.4724	3056.5078	3063.701	3109.6487	3115.6254	3118.2812	3118.9204	3125.7082	3129.8835
CC12CC(C)(O1)C(=O)C2	C[C@@]12C[C@@](C)(O1)C(=O)C2	
InChI=1S/C7H10O2/c1-6-3-5(8)7(2,4-6)9-6/h3-4H2,1-2H3	InChI=1S/C7H10O2/c1-6-3-5(8)7(2,4-6)9-6/h3-4H2,1-2H3/t6-,7-/m1/s1
