20
gdb 43733	3.98889	1.09577	1.06266	3.1132	80.24	-0.2543	0.0329	0.2872	1223.5805	0.172628	-403.175343	-403.167241	-403.166297	-403.208722	31.4	
N	 0.6231782465	 1.0324724568	 0.6094421993	-0.546721
C	 0.2377457844	-0.0210500735	 0.0471404778	 0.431188
C	-1.1053820045	-0.6781751044	-0.1759057905	-0.451276
C	-0.2915645781	-1.7618891661	-0.9128033519	 0.441978
C	-0.2197903494	-3.1904362359	-0.3533404056	-0.265332
C	 0.2085806879	-4.0972097397	-1.5428140707	-0.204833
C	 0.4817554197	-3.1289191282	-2.7176973455	-0.206301
C	-0.4342239313	-1.9322217207	-2.4211529916	-0.259182
O	 0.9516849031	-1.0033850278	-0.5998709227	-0.289744
H	 1.6384358026	 1.1298983743	 0.5479176005	 0.223786
H	-1.6088933104	-1.001752152	 0.7372382119	 0.132834
H	-1.801642388	-0.1048204893	-0.7911965528	 0.133074
H	 0.4830608194	-3.2217068479	 0.4825793615	 0.119386
H	-1.1994521713	-3.4842385389	 0.0362571938	 0.107049
H	 1.0796358107	-4.7118171255	-1.3040445419	 0.105574
H	-0.6026854982	-4.7849576214	-1.8019630422	 0.102416
H	 1.5243385191	-2.7941625848	-2.6976833632	 0.117853
H	 0.2989662808	-3.5818272954	-3.6953162291	 0.09718
H	-1.4786646626	-2.1817779777	-2.6507111072	 0.1022
H	-0.1766040605	-1.0194450219	-2.9642209901	 0.108873
44.8655	85.3198	170.8772	261.4613	336.6905	409.7839	425.1602	500.396	508.995	585.785	715.2737	763.9754	800.4603	837.217	860.8831	869.2401	894.9766	902.6254	947.6162	967.1156	979.4441	1020.699	1039.2346	1048.1433	1088.4599	1134.4934	1191.2638	1203.8798	1216.5496	1251.0106	1256.3388	1274.538	1296.8973	1316.1505	1338.0796	1346.0193	1369.8992	1463.3489	1471.2453	1477.1445	1492.1558	1510.8908	1821.8852	3026.5693	3047.5065	3051.3346	3059.8644	3078.9488	3091.2019	3100.1426	3104.4844	3114.5272	3132.1135	3471.9547
N=C1CC2(CCCC2)O1	[NH][C]1CC2(CCCC2)O1	
InChI=1S/C7H11NO/c8-6-5-7(9-6)3-1-2-4-7/h8H,1-5H2	InChI=1S/C7H11NO/c8-6-5-7(9-6)3-1-2-4-7/h8H,1-5H2
