22
gdb 53563	3.47428	0.77964	0.71247	1.2686	91.88	-0.2141	0.0574	0.2715	1712.203	0.191058	-367.15887	-367.147645	-367.146701	-367.197082	38.995	
C	-0.7706064153	 1.700106166	 1.4710303641	-0.497536
C	-0.9078295005	 0.6107056882	 0.5149103977	 0.087961
C	-1.0300094729	-0.287979051	-0.2765150716	 0.075597
C	-1.1631102607	-1.3804280014	-1.2384444818	-0.320461
N	-1.7846867545	-2.5550303454	-0.6219856698	-0.102146
C	-1.564109861	-3.8892932483	-1.1958530154	-0.001976
C	-0.7466329892	-4.1500639276	-2.4439758487	-0.413519
C	-0.9646095539	-3.5148650378	 0.1255851325	 0.008797
C	 0.5228387418	-3.3465593594	 0.3539639249	-0.417224
H	 0.2806599007	 1.9635560666	 1.6326091721	 0.144026
H	-1.2886940407	 2.6016560001	 1.1255062861	 0.146743
H	-1.1965438922	 1.4280461265	 2.4431912885	 0.148763
H	-1.8193415899	-1.0658801788	-2.0605861339	 0.128253
H	-0.1786114854	-1.5707920985	-1.6929889678	 0.106803
H	-2.4710408301	-4.4943609103	-1.166194678	 0.085579
H	 0.2130836665	-3.6307656593	-2.4589448589	 0.119803
H	-0.5403564518	-5.2223925612	-2.5298242509	 0.121425
H	-1.30193365	-3.8519522698	-3.3404929985	 0.123503
H	-1.4795110355	-3.8795088747	 1.0148618744	 0.084735
H	 1.0781181699	-3.0813673522	-0.5476053167	 0.117112
H	 0.7078073841	-2.5657421184	 1.0987369592	 0.134822
H	 0.9455025106	-4.2815814233	 0.7370679523	 0.118941
21.4359	39.245	78.135	139.2981	148.2852	184.1292	203.2714	239.3604	290.3924	298.0256	374.9949	416.0865	479.848	498.2621	545.953	733.1655	760.3483	801.5711	840.0651	953.8039	1003.8705	1025.7107	1036.5104	1052.9775	1056.2539	1059.6458	1124.9697	1162.0808	1169.5152	1175.0761	1196.3939	1259.2124	1345.0616	1367.4416	1383.2082	1413.9342	1414.8641	1419.9124	1438.9784	1478.4636	1479.69	1480.0958	1487.7992	1495.1536	1503.0205	1512.0196	2375.7601	2976.0534	3025.2466	3026.6136	3035.3358	3041.2762	3082.9568	3084.5742	3086.3044	3089.5747	3094.2079	3098.8596	3124.7908	3135.6083
CC#CCN1C(C)C1C	CC#CCN1[C@@H](C)[C@H]1C	
InChI=1S/C8H13N/c1-4-5-6-9-7(2)8(9)3/h7-8H,6H2,1-3H3	InChI=1S/C8H13N/c1-4-5-6-9-7(2)8(9)3/h7-8H,6H2,1-3H3/t7-,8+,9?
