16
gdb 22015	2.54371	1.57888	0.98003	2.4054	80.55	-0.1842	-0.0155	0.1686	1144.441	0.125153	-434.040915	-434.032651	-434.031707	-434.073524	31.356	
C	 0.0993380998	 1.4344605534	 0.0359391486	-0.456666
C	 0.0095362513	-0.0611137172	 0.0346143532	 0.305016
N	-0.1033733113	-0.6477622595	-1.1174636193	-0.26402
N	-0.1853814872	-2.0015537149	-1.1286821225	-0.244932
C	-0.1568416085	-2.7798614709	-0.0111708104	 0.03375
C	-0.040855774	-2.2258472588	 1.2152798432	-0.234856
C	 0.0522668923	-0.7844839355	 1.3118643666	 0.292842
N	 0.1676612138	-0.0748950571	 2.3906478609	-0.270006
O	 0.1942529218	-0.9107378241	 3.5288308968	-0.407018
H	 1.0290227789	 1.7573086851	 0.5155749769	 0.141783
H	 0.0541195453	 1.8135469122	-0.9857132875	 0.126659
H	-0.7139534182	 1.8618735366	 0.6313501519	 0.141755
H	-0.2713344744	-2.3984139181	-2.047837581	 0.273308
H	-0.232757864	-3.8470662774	-0.1859694291	 0.131391
H	-0.0172753524	-2.8331490888	 2.1065161221	 0.129331
H	 0.2808109168	-0.270963335	 4.2423099798	 0.301663
103.1111	174.4426	213.7538	222.5771	304.9949	330.4543	365.2722	393.0389	482.3933	526.8358	536.9045	561.9342	607.9869	743.7497	790.133	817.7867	880.6451	944.3663	969.5938	985.974	1056.9285	1077.3085	1129.0886	1191.793	1271.2575	1333.1409	1400.8644	1418.8084	1423.042	1465.4333	1467.2505	1510.7805	1641.4969	1647.7761	1686.4836	3044.4536	3098.7365	3149.2878	3199.6196	3261.6775	3674.8007	3829.7186
CC1=NNC=CC1=NO	Cc1n[nH]ccc1=NO	
InChI=1S/C5H7N3O/c1-4-5(8-9)2-3-6-7-4/h2-3,9H,1H3,(H,6,8)	InChI=1S/C5H7N3O/c1-4-5(8-9)2-3-6-7-4/h2-3,9H,1H3,(H,6,8)
