17
gdb 18135	3.23287	1.8878	1.49575	4.1684	71.81	-0.2765	0.0287	0.3052	888.8617	0.143229	-326.714419	-326.707008	-326.706063	-326.745942	28.173	
C	-0.0810495373	 1.5339817807	-0.118605237	-0.424063
C	 0.0698145921	 0.0355484511	 0.040308949	 0.008014
C	 1.321156816	-0.7623284877	-0.2025914092	-0.071008
C	 2.5710172662	-0.0250102603	 0.2950636188	-0.258165
C	 1.9655412679	-0.0245943644	 1.7465501224	-0.144121
C	 1.8522008988	 1.2340960673	 2.4751992702	 0.276496
N	 1.77189222	 2.2318241329	 3.0547089599	-0.339655
C	 0.6920978396	-0.6983476633	 1.1991953959	-0.087302
H	 0.7936766162	 2.0928032249	 0.2188193568	 0.138046
H	-0.2528530369	 1.7867786606	-1.1705627265	 0.116907
H	-0.9369200552	 1.898909616	 0.458112796	 0.129558
H	-0.8060952816	-0.5098027985	-0.3089910807	 0.094631
H	 1.3453298693	-1.6002009107	-0.8883520077	 0.093895
H	 3.4822259765	-0.6225839502	 0.2470322278	 0.11902
H	 2.7697871286	 0.9543236427	-0.1462360221	 0.120729
H	 2.521774163	-0.7243829222	 2.3755551133	 0.129201
H	 0.1535822969	-1.461238309	 1.748097013	 0.097818
113.2082	156.2161	198.3864	257.5776	280.5173	391.8188	490.4873	529.3132	602.4146	702.0593	721.2775	793.8233	814.676	882.7186	967.0295	976.7295	990.5449	1002.8758	1055.4153	1062.8704	1070.4425	1087.2527	1133.4537	1161.8727	1214.5308	1219.471	1262.9102	1294.4326	1335.8095	1345.7073	1421.0276	1448.2504	1485.2154	1500.1449	1507.1074	2348.6559	3040.4452	3073.3362	3076.4502	3098.6583	3115.2877	3129.4534	3138.0862	3180.4595	3191.724
CC1C2CC(C#N)C12	C[C@H]1[C@H]2C[C@@H](C#N)[C@@H]12	
InChI=1S/C7H9N/c1-4-6-2-5(3-8)7(4)6/h4-7H,2H2,1H3	InChI=1S/C7H9N/c1-4-6-2-5(3-8)7(4)6/h4-7H,2H2,1H3/t4-,5-,6+,7+/m0/s1
