18
gdb 43952	3.1792	1.56756	1.45747	2.8579	76.5	-0.2348	-0.0261	0.2087	960.7035	0.149343	-401.848148	-401.841292	-401.840348	-401.879204	28.368	
O	-0.1597040292	-0.0813561602	-0.3833298858	-0.267455
C	-0.0939749587	 1.0823684932	-0.1664185623	 0.320402
C	-1.1856859714	 2.2224649961	 0.1761156518	-0.435542
C	-0.0361206136	 2.8318303927	 1.0087040403	 0.263422
C	 1.0566032418	 3.9544228279	 1.1189769705	-0.268225
N	 2.0856288717	 2.8020407149	 1.0164661731	-0.171035
C	 1.7973420695	 2.0992419837	 2.297769071	-0.162025
C	 0.2380255925	 2.0798604255	 2.3389251444	-0.264923
C	 0.9836771878	 2.2000468527	 0.0983875988	-0.060868
H	-1.4443256298	 2.7792803166	-0.7279717268	 0.132778
H	-2.094843332	 1.8804680022	 0.674049784	 0.130305
H	 1.1332619615	 4.6078404034	 0.2497070398	 0.11877
H	 1.1342904039	 4.5236503328	 2.0498019627	 0.108653
H	 2.2363216245	 1.0998492125	 2.2735696465	 0.118995
H	 2.2490445069	 2.6557809651	 3.1225811775	 0.108182
H	-0.190217225	 2.6087080696	 3.1951921687	 0.102087
H	-0.16627232	 1.062948849	 2.3401285013	 0.117112
H	 1.0625657196	 2.7354350924	-0.8551284355	 0.109367
111.0862	217.1531	329.4111	356.2841	425.4311	483.7609	513.8271	592.582	625.9943	703.5511	738.7657	813.723	840.0768	843.4561	870.4807	903.1612	921.4813	943.0676	974.2543	988.411	1010.3262	1056.1286	1063.2918	1124.992	1151.9581	1158.6539	1182.5222	1216.4298	1235.9097	1243.8353	1260.1959	1300.1577	1323.3603	1356.1354	1463.1404	1497.5727	1499.9035	1521.1228	1903.979	3039.2324	3053.0471	3058.9066	3071.5883	3073.1906	3093.137	3122.4261	3134.6812	3142.0491
O=C1CC23CN(CC2)C13	O=C1C[C@@]23CN(CC2)[C@@H]13	
InChI=1S/C7H9NO/c9-5-3-7-1-2-8(4-7)6(5)7/h6H,1-4H2	InChI=1S/C7H9NO/c9-5-3-7-1-2-8(4-7)6(5)7/h6H,1-4H2/t6-,7+/m0/s1
