21
gdb 117547	2.07255	1.13332	0.77437	4.4209	80.55	-0.252	0.0299	0.2819	1520.9989	0.180208	-420.410237	-420.399128	-420.398184	-420.447082	38.912	
C	 0.0083322675	 1.4821567136	 0.0144188871	-0.387793
C	-0.1436322408	-0.024632122	-0.0864261898	-0.052275
O	 0.7912037105	-0.5000859959	-1.0509990125	-0.248995
C	 0.795706344	-1.8941421606	-1.2322501344	 0.01071
C	-0.4686954255	-2.3508986529	-1.8556498342	 0.295935
N	-1.4856222165	-2.6389261794	-2.322479645	-0.338584
C	 2.0113156675	-2.2827095657	-2.1041751382	 0.00134
C	 3.3075504741	-1.7123738786	-1.5191484105	-0.401904
N	 1.9917339763	-3.7380636469	-2.2572319636	-0.506994
H	 1.0234512035	 1.7497809766	 0.3212073698	 0.126201
H	-0.1960543692	 1.9532614094	-0.9508687261	 0.13456
H	-0.6943449705	 1.8822647721	 0.7510583848	 0.122346
H	 0.0536494337	-0.5060549141	 0.8850029719	 0.092216
H	-1.1649056162	-0.2953449966	-0.3892407199	 0.120857
H	 0.8854129697	-2.4113764216	-0.2602736003	 0.100541
H	 1.8405659864	-1.846536794	-3.0945890713	 0.108849
H	 4.1532601944	-1.9726417561	-2.1631444633	 0.112123
H	 3.2595141344	-0.6257721122	-1.4231313472	 0.139416
H	 3.49969386	-2.1341164702	-0.5244328005	 0.107645
H	 2.5507941672	-4.0157237255	-3.056129118	 0.237582
H	 2.4090072795	-4.1826313394	-1.4438469389	 0.226223
54.9864	71.8257	90.834	142.7199	144.7895	204.6486	227.9472	243.6329	275.3837	309.9982	329.0431	414.6436	423.954	464.8566	541.4441	641.269	822.9027	837.2659	861.6473	895.3096	918.9138	992.8125	1026.3306	1050.7067	1107.8874	1135.8811	1146.7341	1182.8917	1187.8153	1228.0975	1300.9352	1311.6341	1343.2069	1372.6809	1397.5102	1402.5388	1406.213	1436.8024	1483.4522	1486.4003	1499.4351	1501.302	1527.0136	1662.6222	2354.908	2949.2908	2976.4875	3026.4101	3027.119	3047.1516	3056.6247	3097.3818	3121.9228	3125.3318	3133.3905	3494.4937	3582.5306
CCOC(C#N)C(C)N	CCO[C@@H](C#N)[C@@H](C)N	
InChI=1S/C6H12N2O/c1-3-9-6(4-7)5(2)8/h5-6H,3,8H2,1-2H3	InChI=1S/C6H12N2O/c1-3-9-6(4-7)5(2)8/h5-6H,3,8H2,1-2H3/t5-,6+/m1/s1
