12
gdb 10576	2.75539	1.94358	1.32444	4.3323	60.71	-0.3282	-0.051	0.2772	898.5648	0.081981	-377.513968	-377.506224	-377.50528	-377.546134	26.893	
C	-0.0520398982	 1.5406642588	-0.0436387608	-0.437469
C	-0.036041111	 0.043105543	 0.0661081754	 0.04796
O	 1.199285347	-0.6329166267	-0.1480460249	-0.243419
C	 0.662413111	-0.6810685471	 1.1743479604	 0.127058
C	 1.3840095866	 0.0666752061	 2.1869083043	 0.270463
N	 1.9449299413	 0.6739610506	 2.9933813273	-0.316537
C	 0.1586762643	-1.9708328252	 1.6095250002	 0.257527
N	-0.2627436795	-2.9906400654	 1.9500375543	-0.307757
H	 0.8126127539	 1.9879232966	 0.4503069737	 0.16227
H	-0.039694799	 1.826652007	-1.0997902963	 0.153561
H	-0.9662987933	 1.9395474172	 0.4058552213	 0.150069
H	-0.8963405229	-0.4852230849	-0.345494025	 0.136274
133.2057	140.6794	162.6312	176.9173	234.7112	338.4769	409.3468	496.9705	539.5649	593.8686	615.1054	635.2108	805.9677	905.0448	981.5083	1013.2323	1130.3783	1156.8453	1220.6511	1308.0216	1407.8334	1433.7528	1479.6598	1493.4753	2368.0461	2369.0335	3050.3268	3118.1481	3119.44	3147.3322
CC1OC1(C#N)C#N	C[C@H]1OC1(C#N)C#N	
InChI=1S/C5H4N2O/c1-4-5(2-6,3-7)8-4/h4H,1H3	InChI=1S/C5H4N2O/c1-4-5(2-6,3-7)8-4/h4H,1H3/t4-/m1/s1
