13
gdb 133548	2.03542	1.81761	1.26015	3.203	51.87	-0.2697	-0.0434	0.2263	967.9915	0.084471	-584.230113	-584.221957	-584.221013	-584.263451	28.997	
F	-0.2990692973	 0.0642044037	-0.1378746361	-0.097568
C	-0.0506763523	 1.3828960583	 0.0224417222	 0.256393
F	 1.2727241728	 1.5262003527	 0.1222693391	-0.064759
F	-0.456796439	 2.0072387639	-1.0825532852	-0.05833
C	-0.758738207	 1.9067345986	 1.2554281931	 0.034786
C	-2.1056453746	 1.3335369002	 1.5735223584	-0.263687
N	-0.9570826444	 1.0068899207	 2.4061945105	-0.341863
C	-0.4832434822	 3.3313268752	 1.6357631347	 0.127201
O	 0.0863196723	 4.1282586808	 0.9402296511	-0.243041
H	-2.8512456179	 1.9718817991	 2.0384622066	 0.141177
H	-2.4906342881	 0.5919436338	 0.8807752957	 0.150444
H	-0.6029060182	 0.0815900508	 2.1745054721	 0.258278
H	-0.8727885642	 3.5803836123	 2.646317488	 0.100967
64.4731	121.7398	165.3283	211.9374	278.39	326.5509	356.6685	447.8087	489.8299	520.4455	594.0534	629.3908	770.3302	836.6959	921.6769	955.0774	981.667	1050.8544	1082.9932	1127.4277	1186.8827	1196.1483	1226.062	1273.9906	1340.8564	1384.2971	1434.6368	1503.877	1837.3496	2910.5864	3122.3261	3215.2966	3512.9581
FC(F)(F)C1(CN1)C=O	FC(F)(F)[C@]1(CN1)C=O	
InChI=1S/C4H4F3NO/c5-4(6,7)3(2-9)1-8-3/h2,8H,1H2	InChI=1S/C4H4F3NO/c5-4(6,7)3(2-9)1-8-3/h2,8H,1H2/t3-/m0/s1
