23
gdb 105779	2.05213	1.38082	1.10632	2.5466	85.17	-0.2455	-0.0192	0.2263	1266.7812	0.205828	-388.323862	-388.314201	-388.313257	-388.359186	36.013	
C	 0.1314159046	 1.6065437756	-0.3187277737	-0.400077
C	-0.0313065559	 0.1035076344	-0.0551983332	-0.246394
C	-1.482541759	-0.4347410347	 0.0581823314	 0.234134
C	-2.3313154034	-0.135922042	-1.2153621542	-0.251841
C	-3.294337787	-1.3266344306	-1.3200747715	-0.208605
C	-2.4074877094	-2.520505633	-0.935449578	-0.194513
C	-1.5178745229	-1.9840753266	 0.2100179724	-0.271132
C	-2.171190807	 0.2469157764	 1.2375459804	 0.13088
O	-2.5891877276	-0.2960528535	 2.228555749	-0.256863
H	 1.1879172203	 1.8477809901	-0.4709524795	 0.119225
H	-0.4098787506	 1.9203591643	-1.216850538	 0.121753
H	-0.2226852104	 2.2189007365	 0.515635217	 0.122575
H	 0.4460759296	-0.4526364805	-0.8718686289	 0.102966
H	 0.5155248868	-0.1684133277	 0.8564050721	 0.108444
H	-2.8399394158	 0.8332434833	-1.1731928755	 0.095313
H	-1.6698295378	-0.1107174029	-2.0903216934	 0.098755
H	-4.1099271732	-1.2136371443	-0.5951367629	 0.107929
H	-3.7479961656	-1.4214292051	-2.3107787156	 0.094658
H	-2.9798534186	-3.4054133089	-0.6439615361	 0.098136
H	-1.7894487014	-2.8065682243	-1.7951596165	 0.094251
H	-0.5105729846	-2.4083159701	 0.1775555939	 0.091416
H	-1.9416224142	-2.2312269454	 1.186528035	 0.129307
H	-2.285942567	 1.348140099	 1.1175560757	 0.079684
49.1157	51.1398	101.2516	195.8673	232.8571	261.6527	303.8867	327.7135	370.1727	406.646	548.8348	560.6672	624.4441	737.2773	778.0512	839.7368	859.6288	872.8721	913.9135	929.8864	944.4152	980.2641	1009.5185	1031.2446	1045.9834	1081.8645	1089.6748	1141.0915	1167.585	1203.9468	1239.2294	1254.4639	1273.8685	1305.5142	1323.436	1343.4924	1347.2615	1361.9967	1369.3542	1411.1181	1432.7928	1483.575	1490.1141	1492.9889	1495.7223	1502.4908	1507.1119	1515.8492	1821.9889	2872.251	3017.8009	3024.866	3030.0592	3035.7086	3040.9468	3053.4857	3061.9017	3071.2735	3085.8086	3092.7719	3105.5058	3110.1217	3112.101
CCC1(CCCC1)C=O	CCC1(CCCC1)C=O	
InChI=1S/C8H14O/c1-2-8(7-9)5-3-4-6-8/h7H,2-6H2,1H3	InChI=1S/C8H14O/c1-2-8(7-9)5-3-4-6-8/h7H,2-6H2,1H3
