19
gdb 94818	2.51071	1.62854	1.22849	1.4255	70.87	-0.2382	0.072	0.3101	1061.3999	0.159645	-460.144252	-460.136071	-460.135127	-460.176982	32.509	
O	-0.358726131	 1.4616753949	 0.4791872283	-0.449849
C	 0.0036820304	 0.1567119788	 0.0315893957	 0.090466
C	 0.7291690338	-0.618146265	 1.1236740359	-0.141456
O	-0.3148753449	-0.9184050939	 2.0490611967	-0.302196
C	-1.4392994254	-1.3051588294	 1.2656291408	 0.40236
C	-2.0294845818	-2.666303394	 1.4965876795	-0.335945
C	-2.7491054166	-1.4111090032	 1.9649060411	-0.329889
C	-1.2824345784	-0.6954195648	-0.1455138384	 0.025223
O	-2.3742661948	 0.0621098114	-0.6005448567	-0.430313
H	-0.5668021669	 1.3788701232	 1.4197557848	 0.297034
H	 0.56970505	 0.2840083936	-0.8928950552	 0.094324
H	 1.1899034747	-1.5342055909	 0.7223437933	 0.102066
H	 1.489983656	-0.0295684011	 1.641870024	 0.118954
H	-2.4302939428	-3.2072836142	 0.6449269739	 0.115356
H	-1.5649890174	-3.2827560362	 2.2582703376	 0.118433
H	-2.7588366427	-1.2137459708	 3.0312851967	 0.11961
H	-3.6237219663	-1.077029852	 1.4183528858	 0.132199
H	-1.1139635341	-1.4902650806	-0.8803907011	 0.090067
H	-2.2087956517	 0.962161354	-0.2815681925	 0.283557
57.2261	173.3161	239.705	268.2117	301.0229	371.1085	422.1137	428.2092	451.5157	553.4186	585.5	636.4397	743.3987	770.93	801.4045	844.8801	886.3116	907.4963	918.6388	958.4513	989.6509	1029.0271	1047.7058	1071.6229	1074.722	1120.8751	1133.3138	1192.4056	1204.4578	1223.9271	1249.5911	1272.5666	1315.7696	1337.1431	1360.7885	1375.1106	1426.8583	1448.0706	1449.4974	1492.5024	1505.9768	2988.7443	3048.2528	3104.7166	3107.9056	3125.5454	3136.9003	3215.0077	3232.5505	3712.5273	3762.9122
OC1COC2(CC2)C1O	O[C@H]1COC2(CC2)[C@H]1O	
InChI=1S/C6H10O3/c7-4-3-9-6(1-2-6)5(4)8/h4-5,7-8H,1-3H2	InChI=1S/C6H10O3/c7-4-3-9-6(1-2-6)5(4)8/h4-5,7-8H,1-3H2/t4-,5-/m0/s1
