16
gdb 124301	4.83508	0.94912	0.81433	2.3799	70.68	-0.2491	-0.0194	0.2297	1357.5235	0.124144	-434.090464	-434.081998	-434.081054	-434.125006	29.883	
C	 0.0618344035	 1.4973032571	-0.1222000017	-0.474646
C	-0.0278224487	 0.0621885792	 0.3597794318	 0.384098
O	 0.6855293006	-0.3635783829	 1.239177895	-0.292767
C	-1.0961387821	-0.7923204803	-0.3180316342	-0.432451
C	-0.9448652801	-2.2699918859	-0.1632100937	 0.319117
C	-0.3954780044	-3.0253514182	 0.8476511693	-0.149601
N	-0.5638424062	-4.2993244435	 0.4239497692	-0.155629
N	-1.1736547926	-4.3513891049	-0.7735933282	-0.117558
N	-1.4057388634	-3.1212071547	-1.1290249638	-0.25469
H	 0.701847646	 2.0756113916	 0.5448900029	 0.144912
H	 0.4843500181	 1.5157022135	-1.1339270499	 0.150345
H	-0.9312254203	 1.9546945762	-0.185079014	 0.138644
H	-2.0565880474	-0.4514624508	 0.1010160045	 0.147365
H	-1.1543084661	-0.5465895503	-1.383749051	 0.14277
H	 0.0908064735	-2.7604842365	 1.7682445495	 0.168205
H	-0.2837040305	-5.1569370995	 0.8722677144	 0.281886
42.6553	56.0877	129.5476	152.0108	284.0491	318.7809	334.3209	465.4319	570.8841	585.4026	672.2442	730.0621	764.6989	806.7989	832.8004	860.0487	970.9714	989.8899	1035.1244	1049.9832	1061.2033	1129.9515	1169.395	1211.6555	1259.7773	1289.4979	1340.8514	1373.7	1387.4283	1445.4692	1463.1998	1476.377	1494.3062	1589.9985	1811.9777	2993.3661	3036.7395	3076.485	3098.4265	3154.2082	3318.3988	3658.9103
CC(=O)CC1=CNN=N1	CC(=O)Cc1c[nH]nn1	
InChI=1S/C5H7N3O/c1-4(9)2-5-3-6-8-7-5/h3H,2H2,1H3,(H,6,7,8)	InChI=1S/C5H7N3O/c1-4(9)2-5-3-6-8-7-5/h3H,2H2,1H3,(H,6,7,8)
