18
gdb 110650	2.47796	1.55819	1.16943	2.2849	72.15	-0.2226	0.0609	0.2835	1098.1041	0.145753	-438.964182	-438.955606	-438.954661	-438.997314	32.441	
C	 0.0187778552	 1.2810517423	-0.3441694515	-0.245782
O	-0.0180193013	 0.15359739	 0.5146186982	-0.241579
C	-1.1708620401	-0.6107587212	 0.3370713139	 0.042051
C	-1.4822216667	-1.6643978742	-0.7117178975	-0.129056
N	-0.447888823	-2.7007330574	-1.0878006278	-0.142699
C	 0.846818537	-2.4573760538	-0.3977341875	-0.256407
C	-0.2839576656	-3.0184207714	 0.3691512182	-0.107179
C	-1.3842708519	-2.0152646779	 0.7773547275	 0.291137
O	-2.3925486447	-2.3937202464	 1.6437067248	-0.449664
H	 0.9342383299	 1.8299354111	-0.1137763185	 0.130944
H	 0.0286094869	 0.9834945496	-1.4016533227	 0.121476
H	-0.8460024549	 1.939801078	-0.1748611728	 0.112143
H	-2.0868705401	-0.0372699756	 0.518178185	 0.098836
H	-2.3347305538	-1.5753091499	-1.3742957276	 0.109481
H	 1.6016978078	-3.1661556727	-0.7296221124	 0.117756
H	 1.1923297058	-1.4518457011	-0.211240425	 0.15225
H	-0.3393505893	-4.0467625604	 0.7125024339	 0.105293
H	-2.1432845313	-2.121414219	 2.5345591516	 0.291002
79.6089	152.6939	181.53	207.7108	260.6166	288.4424	317.6955	380.3959	423.0191	543.2252	622.2268	652.6791	697.3375	759.7701	807.2867	880.5932	905.4983	961.8768	986.9689	997.7391	1039.3837	1060.501	1096.5627	1125.3181	1131.8182	1146.5611	1182.5316	1201.4472	1221.1163	1238.4547	1245.1125	1309.7981	1337.7545	1363.5562	1460.2377	1485.0527	1485.7513	1500.1958	1514.9682	2988.4889	3043.8261	3049.2951	3124.7357	3126.0366	3161.7817	3185.0655	3261.5897	3784.3902
COC1C2N3CC3C12O	CO[C@H]1[C@H]2N3C[C@H]3[C@@]12O	
InChI=1S/C6H9NO2/c1-9-5-4-6(5,8)3-2-7(3)4/h3-5,8H,2H2,1H3	InChI=1S/C6H9NO2/c1-9-5-4-6(5,8)3-2-7(3)4/h3-5,8H,2H2,1H3/t3-,4+,5-,6-,7?/m0/s1
