18
gdb 107104	4.56739	0.9558	0.87774	3.9899	75.17	-0.2352	0.021	0.2562	1334.7092	0.146316	-439.052133	-439.043313	-439.042369	-439.086265	31.851	
C	-0.0416449839	 1.359787254	 0.3992874213	-0.259856
O	 0.0044671295	 0.0247750191	-0.0874736044	-0.2774
C	-1.2290741497	-0.559653694	-0.1965908664	 0.414898
C	-1.9878203615	-1.121325063	 0.9835664668	-0.347818
C	-1.5454588167	-2.038539652	-0.1409517097	-0.125603
N	-2.4203392797	-1.883155268	-1.2960898753	-0.041235
C	-2.1377787529	-0.4414107274	-1.4409432969	-0.249407
C	-3.5712009939	-2.5339835356	-1.6116699234	 0.131755
O	-4.4263723107	-2.0997547369	-2.3537645311	-0.323321
H	 0.9917207827	 1.7029654415	 0.4755660587	 0.135368
H	-0.5885556669	 2.0215206407	-0.2860494807	 0.119311
H	-0.5158618153	 1.4065467504	 1.3885733494	 0.117904
H	-1.3857042515	-1.2047648647	 1.8832670095	 0.128322
H	-3.0432537351	-0.917728603	 1.1431789579	 0.12127
H	-0.8986020316	-2.8978889672	-0.0185511692	 0.124449
H	-3.0229095328	 0.1979668593	-1.3798323533	 0.128122
H	-1.5749712744	-0.221173809	-2.3528229481	 0.131307
H	-3.6174992556	-3.5372968142	-1.1399302451	 0.071934
67.4721	72.3869	151.103	183.8881	217.6292	285.2414	339.7007	399.0639	409.6796	462.852	575.6725	662.3792	744.1218	851.9135	884.2423	911.8227	960.9421	983.6026	1033.6096	1035.4885	1061.6592	1086.7333	1090.4443	1147.038	1165.1092	1180.6094	1206.3562	1234.5683	1259.9271	1282.5013	1388.0947	1396.092	1433.7869	1466.1555	1488.4821	1496.2016	1504.3243	1511.5301	1793.3042	2922.737	2999.8723	3052.439	3057.6048	3109.0176	3114.8498	3131.9363	3198.3351	3212.6361
COC12CC1N(C2)C=O	CO[C@]12C[C@H]1N(C2)C=O	
InChI=1S/C6H9NO2/c1-9-6-2-5(6)7(3-6)4-8/h4-5H,2-3H2,1H3	InChI=1S/C6H9NO2/c1-9-6-2-5(6)7(3-6)4-8/h4-5H,2-3H2,1H3/t5-,6+/m1/s1
