15
gdb 50224	4.27933	1.25575	1.13376	1.3318	64.61	-0.2504	-0.0402	0.2102	1040.9703	0.11189	-457.690489	-457.683637	-457.682692	-457.722484	26.111	
O	-0.963413245	 1.0768519568	 0.4124682352	-0.240017
C	 0.1609477334	 0.8656214596	 0.0431341762	 0.145633
C	 1.2292459069	 1.9413984485	-0.0608265368	-0.002065
O	 2.543842105	 1.3511777671	 0.0070801403	-0.281136
C	 3.1292485585	 1.7281269849	-1.2154151535	 0.092338
C	 2.717568179	 3.1756741792	-1.6123259974	 0.019861
O	 2.7341937285	 2.8176606746	-3.0311656977	-0.309131
C	 2.0996680679	 1.6692090698	-2.3826775688	 0.023479
C	 1.2742891494	 2.6046644023	-1.4387549963	-0.092414
H	 0.5092760532	-0.143148275	-0.2737830056	 0.090405
H	 1.0905857633	 2.6637019514	 0.751488347	 0.117686
H	 4.1478726849	 1.3641307414	-1.3221180595	 0.112042
H	 3.1210250029	 4.1416347623	-1.3116070977	 0.105687
H	 1.773202947	 0.8389793584	-3.0073961091	 0.106897
H	 0.4108047352	 3.1496487287	-1.8120542364	 0.110734
59.9667	128.8372	223.2109	413.5807	428.8433	461.5089	521.4717	680.6741	736.2771	778.559	805.5975	882.9897	891.1109	905.8775	923.4103	978.0647	989.441	1004.0028	1044.0982	1084.7621	1090.2575	1138.4298	1147.6696	1155.5142	1181.9491	1222.53	1248.1356	1265.5546	1277.0197	1304.004	1360.3528	1401.1549	1836.383	2886.2325	3054.4267	3130.4786	3132.5966	3165.6496	3173.2124
O=CC1OC2C3OC2C13	O=C[C@H]1O[C@@H]2[C@H]3O[C@@H]2[C@@H]13	
InChI=1S/C6H6O3/c7-1-2-3-4-6(8-2)5(3)9-4/h1-6H	InChI=1S/C6H6O3/c7-1-2-3-4-6(8-2)5(3)9-4/h1-6H/t2-,3-,4-,5+,6+/m1/s1
