18
gdb 19841	3.3369	2.45643	1.79362	1.397	70.23	-0.2365	0.0824	0.3189	787.7382	0.156595	-347.77624	-347.76996	-347.769015	-347.806202	26.277	
C	 0.0711163497	 1.5927611453	-0.0914551093	-0.304985
C	 1.3100480736	 0.7384498885	-0.0313949498	-0.030234
C	 2.1095608406	 0.7279234857	 1.2581116027	-0.093845
O	 1.2657543884	 0.8454443284	 2.4021119032	-0.256605
C	 0.3837646987	-0.2317172748	 2.546872137	 0.09229
C	-1.0836616566	 0.0875627364	 2.5044872181	-0.319548
C	-0.4230320619	-0.6007800797	 1.3280380732	-0.049461
C	-0.0582685905	 0.0912471638	 0.0392783179	-0.032756
H	-0.1462027251	 2.2094763159	 0.7728387988	 0.125947
H	-0.2061123455	 2.0340344474	-1.0423644318	 0.107023
H	 1.8986139716	 0.6103123734	-0.934899664	 0.080897
H	 2.7149160808	-0.1910154125	 1.3212850322	 0.088359
H	 2.790804296	 1.5835352223	 1.3096956006	 0.108995
H	 0.744203219	-1.0121461182	 3.2161637941	 0.083337
H	-1.7537277321	-0.4979915554	 3.1242860656	 0.109325
H	-1.3520378558	 1.132780152	 2.403127645	 0.122645
H	-0.6533850199	-1.6547770512	 1.2071734691	 0.085261
H	-0.4012807012	-0.4247533972	-0.8513455025	 0.083354
205.8342	228.281	342.044	388.0077	468.6439	482.1297	574.4272	710.3966	735.3211	782.5981	810.0131	820.9584	840.2515	903.7133	962.0518	982.3998	1002.0639	1023.0839	1053.8754	1073.2961	1088.9675	1109.8356	1113.5941	1119.2107	1124.9017	1133.2439	1174.8682	1206.5311	1244.4406	1296.5833	1343.6145	1371.7647	1392.4251	1403.564	1419.1122	1478.2483	1489.7172	1500.7982	2973.3997	3070.1127	3102.1415	3137.1225	3139.4719	3144.6574	3151.6051	3162.8389	3225.4805	3229.6135
C1C2COC3CC3C12	C1[C@H]2CO[C@H]3C[C@H]3[C@@H]12	
InChI=1S/C7H10O/c1-4-3-8-7-2-6(7)5(1)4/h4-7H,1-3H2	InChI=1S/C7H10O/c1-4-3-8-7-2-6(7)5(1)4/h4-7H,1-3H2/t4-,5-,6-,7-/m0/s1
