18
gdb 11678	3.35314	1.64903	1.38806	1.8663	67.78	-0.2477	0.0649	0.3125	945.6611	0.153752	-384.879218	-384.871329	-384.870385	-384.911403	30.104	
O	 0.0789606482	 1.3663544546	 0.048995988	-0.413459
C	-0.0150841083	-0.0525603714	 0.0505758737	-0.203266
C	-1.4359921699	-0.549060593	 0.0420173972	 0.27496
C	-2.5431732796	-0.3017341475	 1.1080607826	-0.246452
C	-3.2314156044	-1.1717126242	 0.0194747726	-0.098887
C	-2.5397556055	-0.2535619896	-1.0324596528	-0.305472
C	-1.9345295645	-2.0363883449	 0.0361066856	 0.149312
O	-1.612372423	-2.9167014617	-1.0028083231	-0.4507
H	-0.3335519801	 1.6832034058	-0.7609801958	 0.282313
H	 0.5346656369	-0.4939625496	-0.7967113606	 0.090893
H	 0.4871988216	-0.3830013536	 0.9667421715	 0.113991
H	-2.3927222229	-0.7614680144	 2.0892029163	 0.092527
H	-2.8965430099	 0.7269719902	 1.1956318864	 0.101766
H	-4.2645811735	-1.5203152666	 0.0085705893	 0.075621
H	-2.9051007744	 0.7760236181	-1.0842865533	 0.096249
H	-2.3906338628	-0.6443000185	-2.0451867068	 0.074876
H	-1.7489091147	-2.5887866094	 0.9615413338	 0.083194
H	-1.8402616232	-2.5136188343	-1.8465435346	 0.282534
81.0383	144.6093	212.6961	255.7366	301.9181	312.6051	356.4884	495.1653	538.8208	606.1344	673.6771	763.2872	816.4851	868.9065	897.2609	929.2078	946.3803	991.8864	1020.3085	1044.9422	1067.8429	1076.6124	1129.4223	1138.5738	1147.4439	1166.7532	1207.5232	1227.368	1237.5155	1253.1359	1286.2241	1326.2656	1374.7891	1418.3414	1451.1049	1496.1825	1506.0053	1546.0552	2973.7137	3034.0851	3056.5811	3065.2035	3078.4714	3093.3033	3110.6102	3129.5126	3815.2868	3817.9513
OCC12CC(C1)C2O	OC[C@@]12C[C@@H](C1)[C@H]2O	
InChI=1S/C6H10O2/c7-3-6-1-4(2-6)5(6)8/h4-5,7-8H,1-3H2	InChI=1S/C6H10O2/c7-3-6-1-4(2-6)5(6)8/h4-5,7-8H,1-3H2/t4-,5-,6+/m1/s1
