22
gdb 66238	2.65951	1.37904	1.21543	2.8998	80.77	-0.2351	0.0761	0.3111	1156.675	0.195438	-404.334953	-404.326089	-404.325145	-404.368509	34.203	
C	-0.0487488936	 1.4560789232	 0.1335596142	-0.416603
C	 0.0101504202	-0.0642780869	-0.0554282783	 0.354638
C	 0.8342701508	-0.4729279855	-1.303142866	-0.266552
C	 2.2286531451	-0.7591780095	-0.7259318001	-0.223856
C	 1.8747211452	-1.3340517537	 0.6456784794	-0.072216
O	 0.7206806254	-0.6159022681	 1.0744696428	-0.305845
C	-1.3999264891	-0.6418421838	-0.0820354059	-0.005332
C	-1.677316164	-2.0224613059	 0.3736124763	-0.255017
N	-2.1275042909	-0.8647225308	 1.1741171481	-0.33435
H	 0.9558456186	 1.8888161968	 0.1096905061	 0.110654
H	-0.6473426825	 1.9230292142	-0.6553028377	 0.113133
H	-0.5036815668	 1.6993792937	 1.097616807	 0.129062
H	 0.4138014122	-1.3800373065	-1.7491800065	 0.107105
H	 0.8370713354	 0.3064811472	-2.0686105054	 0.105077
H	 2.8176968217	-1.446811823	-1.3377512399	 0.103741
H	 2.7997687002	 0.1678571164	-0.6121869303	 0.109963
H	 1.6534020605	-2.4104077788	 0.5724392978	 0.090114
H	 2.6576248691	-1.1992227219	 1.3983024673	 0.108033
H	-2.0195761342	-0.2287090999	-0.8770964815	 0.083508
H	-2.4724219571	-2.6001855382	-0.0893332636	 0.11124
H	-0.8456799941	-2.6061336719	 0.7560874323	 0.114366
H	-1.4631347523	-0.7480305573	 1.9381443638	 0.239139
77.4712	92.2561	185.5141	226.5987	241.7437	259.4218	329.2873	372.7402	440.2324	527.9421	589.3053	621.5489	747.3352	834.6055	856.3064	876.4489	889.8958	919.1437	934.4779	942.5913	971.2839	982.6438	1015.3538	1022.3094	1081.8725	1100.6246	1140.3578	1155.2181	1177.5939	1193.1851	1205.9211	1234.9232	1247.1905	1265.2502	1285.5526	1312.2445	1328.3459	1340.6273	1388.39	1406.5988	1418.2927	1482.5796	1488.7769	1493.4154	1500.0221	1501.9989	1527.3153	2978.551	3037.584	3051.4754	3053.5907	3077.2226	3102.1762	3107.5149	3112.3364	3112.5559	3116.2789	3120.9024	3202.2043	3482.0378
CC1(CCCO1)C1CN1	C[C@]1(CCCO1)[C@H]1CN1	
InChI=1S/C7H13NO/c1-7(6-5-8-6)3-2-4-9-7/h6,8H,2-5H2,1H3	InChI=1S/C7H13NO/c1-7(6-5-8-6)3-2-4-9-7/h6,8H,2-5H2,1H3/t6-,7+/m1/s1
