20
gdb 113966	4.10134	0.75031	0.74217	1.5826	76.35	-0.2396	0.0759	0.3155	1605.0657	0.169801	-440.217453	-440.208013	-440.207069	-440.25304	34.055	
O	-0.064203225	 1.1713090406	-0.8258156631	-0.418176
C	-0.0287954631	 0.1556294164	 0.1632387588	-0.085326
C	-1.3311616946	-0.6059845249	 0.1939528248	 0.028022
O	-1.5447892014	-1.5175879101	-0.8982212912	-0.270318
C	-1.475083838	-2.0503506089	 0.4322430864	 0.070837
C	-0.3439733688	-3.0005467949	 0.7464444075	-0.19078
N	-0.7274634705	-4.3567471367	 0.3695614013	-0.068812
C	-0.4709321778	-4.7256975458	-1.021346652	-0.210376
C	 0.366422218	-5.2777969437	 0.0787704456	-0.224057
H	-0.2587350246	 0.7360823069	-1.6636634869	 0.292842
H	 0.8156451476	-0.5281716041	 0.0041305451	 0.091814
H	 0.1261507073	 0.6657103073	 1.1204557454	 0.11435
H	-2.1969445879	 0.0241792787	 0.4065645574	 0.098722
H	-2.4381134786	-2.3941694166	 0.8126347663	 0.102851
H	 0.5784446957	-2.6706996255	 0.2420435587	 0.089221
H	-0.1556922401	-2.9906649756	 1.8279244019	 0.110643
H	-1.2344244686	-5.3366342244	-1.4933720966	 0.119523
H	-0.0217627069	-3.9757694841	-1.6685969102	 0.120985
H	 1.3856409351	-4.9039105341	 0.1652151057	 0.108984
H	 0.2266588121	-6.2983916103	 0.4230076051	 0.11905
44.4943	73.8998	85.1871	119.5693	205.0259	269.009	339.8533	373.5922	399.9967	459.6024	502.3524	567.5968	761.7532	789.6114	836.9711	845.4821	905.8751	907.9871	985.9539	1020.7088	1032.9025	1068.235	1073.5718	1086.7411	1113.9734	1117.4564	1154.4526	1159.9111	1174.041	1195.5677	1231.7044	1283.2019	1302.3456	1321.1427	1344.9079	1367.2955	1404.4601	1431.8208	1477.7219	1491.4061	1494.6076	1497.6688	1523.2079	2970.1902	3016.5868	3043.4405	3072.4577	3094.8682	3095.1481	3108.6155	3109.3304	3180.8391	3198.1971	3801.5089
OCC1OC1CN1CC1	OC[C@H]1O[C@H]1CN1CC1	
InChI=1S/C6H11NO2/c8-4-6-5(9-6)3-7-1-2-7/h5-6,8H,1-4H2	InChI=1S/C6H11NO2/c8-4-6-5(9-6)3-7-1-2-7/h5-6,8H,1-4H2/t5-,6+/m0/s1
