22
gdb 96449	2.14317	1.83729	1.26498	0.8236	82.04	-0.2158	0.089	0.3048	1093.2668	0.196156	-404.318747	-404.310484	-404.30954	-404.350972	33.314	
C	-0.2102359779	 1.5587133699	-0.0087011008	-0.404561
C	-0.0367752406	 0.0341122542	-0.0085175087	 0.038514
C	 0.4359679508	-0.4901535659	-1.3743613693	-0.07661
O	 1.5638887914	 0.1775173484	-1.9113282462	-0.243665
C	 2.819918278	-0.1977083304	-1.3762485626	-0.066225
C	 3.0459475443	 0.3039954386	 0.0550560586	-0.239487
C	 2.245102022	-0.4742985811	 1.0842292833	 0.010846
C	 1.4183135424	 0.2109835069	 2.1206035396	-0.26297
N	 0.7881740585	-0.5597191021	 1.0599108077	-0.092676
H	 0.7147154391	 2.0847889909	-0.2536993741	 0.127827
H	-0.9528633737	 1.8378811851	-0.7636700983	 0.114718
H	-0.5742773725	 1.9124049528	 0.9599335731	 0.11657
H	-1.0380185871	-0.3972314132	 0.1397924288	 0.081039
H	 0.6276146836	-1.5714933625	-1.2947321358	 0.095496
H	-0.3663770329	-0.3397143577	-2.1049319928	 0.102299
H	 2.9403351938	-1.2938106792	-1.4143633678	 0.087515
H	 3.563997694	 0.2428940601	-2.0480463608	 0.102999
H	 4.111686722	 0.2039165153	 0.2992467532	 0.099174
H	 2.8154035027	 1.3736703205	 0.0870907028	 0.107904
H	 2.7085051905	-1.4254513265	 1.3512815662	 0.083896
H	 1.3203407253	-0.1946425604	 3.1257145296	 0.108919
H	 1.3903582065	 1.2979316064	 2.0730318641	 0.108477
136.2892	191.6919	213.2432	252.5978	287.3624	334.2633	387.3544	395.8421	446.1749	473.5523	564.6951	650.3289	695.6822	774.2149	829.6362	856.7346	918.1519	937.5886	971.8616	977.9557	1006.1966	1038.7188	1056.2974	1092.5662	1121.6134	1135.449	1147.4408	1155.1013	1168.2409	1180.377	1237.1459	1290.955	1323.3683	1336.5307	1356.8798	1362.8463	1382.9285	1389.3444	1404.1154	1423.9218	1426.8554	1473.4872	1480.216	1490.3313	1496.9434	1499.6093	1516.4551	2964.6144	2982.2913	2993.4732	3025.9653	3042.9917	3068.518	3070.7993	3074.8589	3089.9139	3091.3489	3106.1409	3132.6898	3169.5644
CC1COCCC2CN12	C[C@H]1COCC[C@H]2CN12	
InChI=1S/C7H13NO/c1-6-5-9-3-2-7-4-8(6)7/h6-7H,2-5H2,1H3	InChI=1S/C7H13NO/c1-6-5-9-3-2-7-4-8(6)7/h6-7H,2-5H2,1H3/t6-,7-,8?/m0/s1
