23
gdb 116953	4.82368	0.48734	0.4756	0.85	93.7	-0.2417	0.0417	0.2833	2448.624	0.202259	-388.259487	-388.247811	-388.246867	-388.298994	40.248	
C	-0.4041657707	 1.3475673581	-0.5599022348	-0.217329
O	-0.4320412147	-0.0594452506	-0.596485859	-0.227516
C	-0.8108025138	-0.6144484053	 0.6499552073	-0.204473
C	-0.8262471447	-2.0685171404	 0.5727093794	 0.045979
C	-0.8355667762	-3.2721586985	 0.5363609568	 0.103903
C	-0.8602950941	-4.7284280368	 0.4649394065	-0.351524
C	-2.184352608	-5.3148510067	-0.0845689549	 0.050103
C	-2.051952203	-6.8313333107	-0.2660439813	-0.390878
C	-3.3720981934	-4.9605053092	 0.8164274204	-0.380203
H	-0.1054156073	 1.6914253831	-1.5526776353	 0.129704
H	-1.392108312	 1.7722289833	-0.318273316	 0.102977
H	 0.3195236096	 1.7253235103	 0.1805520633	 0.103202
H	-0.1115864192	-0.2882770255	 1.4404815012	 0.111576
H	-1.8081064661	-0.2422632244	 0.9448844354	 0.110566
H	-0.0276154033	-5.0688197844	-0.1645138194	 0.125735
H	-0.6721027161	-5.1462589636	 1.4644125995	 0.122166
H	-2.3535016001	-4.8613808162	-1.0696844809	 0.0869
H	-1.8626844681	-7.3267587552	 0.6940670189	 0.111967
H	-2.9698443221	-7.2582018182	-0.6824187376	 0.112095
H	-1.2275308727	-7.0855304045	-0.9408311643	 0.111151
H	-4.3101042912	-5.3338406574	 0.3931208775	 0.109922
H	-3.2546968898	-5.408469168	 1.8109660422	 0.108143
H	-3.461743533	-3.878131529	 0.9437320651	 0.125834
10.3112	52.8067	64.9126	104.2433	123.7318	225.8298	230.7302	249.2312	265.7873	303.0284	312.5008	364.3492	381.3693	419.7517	468.7869	559.2202	807.6559	827.7586	882.1885	932.1549	951.7025	968.9911	977.353	1028.8165	1125.5355	1136.1874	1140.1897	1177.3624	1182.6931	1191.4787	1220.1502	1253.7518	1258.5287	1309.6032	1367.1878	1369.2938	1400.6411	1411.8358	1420.632	1464.7198	1477.7472	1484.1217	1488.5526	1493.0747	1496.1768	1503.3111	1510.0448	1516.8621	2369.5533	2939.0454	2955.08	2965.4719	3003.6731	3006.7332	3020.4554	3022.6362	3029.2537	3042.4931	3087.3453	3093.8617	3100.9679	3113.6343	3118.3098
COCC#CCC(C)C	COCC#CCC(C)C	
InChI=1S/C8H14O/c1-8(2)6-4-5-7-9-3/h8H,6-7H2,1-3H3	InChI=1S/C8H14O/c1-8(2)6-4-5-7-9-3/h8H,6-7H2,1-3H3
