15
gdb 128790	5.2851	0.94004	0.80619	5.7735	69.87	-0.254	-0.0881	0.1659	1355.9571	0.111035	-450.053941	-450.045574	-450.04463	-450.088209	28.583	
C	-0.0332514006	 1.4089384032	 0.0105747431	-0.23361
O	 0.0100405514	-0.0028021448	 0.0030760645	-0.237931
C	-1.2615163402	-0.5922956954	 0.0105462516	-0.121561
C	-1.1080293629	-2.0882457407	 0.0022256341	 0.308388
C	 0.1242010454	-2.7391802984	-0.0097634214	-0.001076
N	 0.1781761972	-4.0628900474	-0.016354905	-0.164687
N	-0.9657618842	-4.745024564	-0.0113090618	-0.057336
N	-2.1291847608	-4.1340208613	-0.0000838619	-0.064603
N	-2.2235161756	-2.8086828378	 0.0068058012	-0.228447
H	 0.9993200852	 1.762849715	 0.0039179638	 0.140933
H	-0.5536733169	 1.8006670306	-0.8759169154	 0.11835
H	-0.5390711864	 1.7916282084	 0.9093826002	 0.118343
H	-1.8442885676	-0.2996305705	 0.9003428347	 0.130718
H	-1.8586234303	-0.2912527898	-0.8668496733	 0.130733
H	 1.0622528862	-2.1969436672	-0.0140475243	 0.161787
47.9739	71.9739	146.8657	152.8932	220.291	317.6578	340.893	404.4996	443.79	650.5644	683.3465	831.5343	838.0562	920.5086	950.6997	1003.5011	1044.9948	1072.4338	1091.2311	1166.3463	1185.0815	1202.0588	1236.1194	1244.4698	1306.7382	1351.5163	1408.2043	1475.8745	1486.3668	1492.1224	1513.673	1533.37	1584.6617	2962.8945	2986.4242	2987.9855	3036.7784	3131.0365	3213.3589
COCC1=CN=NN=N1	COCc1cnnnn1	
InChI=1S/C4H6N4O/c1-9-3-4-2-5-7-8-6-4/h2H,3H2,1H3	InChI=1S/C4H6N4O/c1-9-3-4-2-5-7-8-6-4/h2H,3H2,1H3
