17
gdb 44645	2.9975	1.67418	1.51804	4.0217	70.12	-0.2694	0.0052	0.2746	927.7259	0.137906	-421.815456	-421.808722	-421.807777	-421.846747	26.921	
O	-0.4787750193	 0.3135280055	 0.4225889398	-0.326985
C	-0.157807066	 1.3890292022	 0.0327728979	 0.457239
O	-0.9537380912	 2.312243537	-0.6227084254	-0.256376
C	 0.1639088184	 3.2488653734	-0.7657233749	 0.101419
C	 0.2799338872	 4.3121699284	 0.3634119949	-0.04745
C	-0.7908016848	 4.2658011212	 1.4867696266	-0.236572
C	 0.1021157962	 3.2702498672	 2.2974023921	-0.247394
C	 1.1809304665	 3.3240768885	 1.1790407668	-0.024594
C	 1.0823659159	 2.2785380293	 0.0078694744	-0.247241
H	 0.2896319658	 3.5452540035	-1.8060084231	 0.099199
H	 0.6317340248	 5.2884063422	 0.0286497988	 0.074866
H	-0.9275600709	 5.2290646387	 1.9819877998	 0.105481
H	-1.7663847733	 3.8869086659	 1.1785169235	 0.126128
H	 0.4538599413	 3.6762233858	 3.2483757382	 0.104267
H	-0.3298415093	 2.2852664727	 2.4887944201	 0.130195
H	 2.2018891252	 3.5650862919	 1.4726950193	 0.081179
H	 2.0043811036	 1.8430442867	-0.3718031188	 0.10664
95.3716	158.1145	268.0371	351.279	458.0078	505.0406	648.0779	705.5828	723.3771	732.8986	793.2178	832.0557	847.3063	883.0851	894.4721	915.9398	951.4032	963.1807	998.344	1043.3547	1059.5663	1103.5983	1109.7042	1127.0455	1183.895	1206.6559	1216.7632	1233.5713	1245.2392	1269.0588	1283.9942	1301.218	1313.1736	1328.3932	1476.7946	1494.6187	1930.3232	3067.6315	3077.1431	3101.297	3111.089	3117.8741	3126.7384	3136.8459	3143.546
O=C1OC2C3CCC3C12	O=C1O[C@H]2[C@H]3CC[C@H]3[C@@H]12	
InChI=1S/C7H8O2/c8-7-5-3-1-2-4(3)6(5)9-7/h3-6H,1-2H2	InChI=1S/C7H8O2/c8-7-5-3-1-2-4(3)6(5)9-7/h3-6H,1-2H2/t3-,4+,5-,6+/m1/s1
