17
gdb 31576	3.29437	1.20063	0.89406	3.7194	72.79	-0.2065	0.032	0.2385	1287.7561	0.135366	-455.17423	-455.164951	-455.164007	-455.208441	33.03	
C	-0.1716160689	 1.3999069332	-0.0255860934	-0.242322
O	-0.0800081323	-0.0240708059	 0.0212928483	-0.251894
C	-1.2192181213	-0.7079743849	 0.026045522	 0.481243
N	-1.3122528821	-1.9955624123	 0.0661212316	-0.417104
C	-2.6912092184	-2.2272863339	 0.0525092637	 0.269181
C	-3.2540216643	-3.6058235023	 0.0882020467	-0.491446
C	-3.3593194141	-1.0514540033	 0.0045048526	 0.167285
N	-4.7044544299	-0.717661474	-0.0265499945	-0.596569
O	-2.3794584572	-0.0286108686	-0.0134496651	-0.226745
H	 0.8573828268	 1.7592541913	-0.0215197218	 0.143812
H	-0.6795278705	 1.7330283533	-0.9359227457	 0.135957
H	-0.706449642	 1.7899536249	 0.8458934587	 0.135953
H	-2.9302419384	-4.1345265973	 0.9911931966	 0.133791
H	-4.3453077099	-3.5709796472	 0.0707807073	 0.134004
H	-2.9039803724	-4.1908358963	-0.7691165185	 0.133792
H	-4.9817665921	-0.2278305157	-0.8708673989	 0.24553
H	-5.0069713529	-0.1760917411	 0.7765099704	 0.245532
65.7959	144.545	153.586	201.7112	208.3013	216.461	256.5275	261.4	389.6795	394.3108	571.9423	633.4576	650.7596	660.5075	744.3475	748.0729	812.3019	974.2273	998.4802	1026.4868	1069.9451	1124.1289	1177.9131	1207.0258	1212.054	1262.4426	1343.6229	1379.3199	1420.6752	1480.1972	1483.6078	1486.4818	1489.6579	1500.4881	1650.9323	1660.9031	1740.0125	3037.0528	3037.5818	3090.1413	3106.5133	3134.4874	3155.3701	3495.0287	3560.3015
COC1=NC(C)=C(N)O1	COc1nc(C)c(N)o1	
InChI=1S/C5H8N2O2/c1-3-4(6)9-5(7-3)8-2/h6H2,1-2H3	InChI=1S/C5H8N2O2/c1-3-4(6)9-5(7-3)8-2/h6H2,1-2H3
