17
gdb 38392	4.44334	1.24101	1.20124	2.8661	71.9	-0.2319	0.0654	0.2973	1056.0247	0.13589	-421.724709	-421.717697	-421.716753	-421.756207	27.785	
C	 0.0488932201	 1.45158063	-0.0896676125	-0.088141
O	 1.4997414143	 1.4079468911	-0.1636773341	-0.285541
C	 1.4818253949	-0.0080279356	 0.0468257744	 0.020301
C	-0.0377488087	-0.0655655228	 0.0332170608	-0.234866
C	 0.7801431132	-0.6932038747	-1.0702484561	 0.36316
C	 0.759084813	-0.4130210054	-2.5939290144	-0.345656
C	 0.7702912815	-1.9414361473	-2.7942424924	 0.037781
O	 1.9426665804	-2.4570479672	-2.1555079306	-0.242587
C	 0.7900881716	-2.1885593289	-1.3425222422	-0.098424
H	-0.2707879183	 1.9812072345	 0.8146362113	 0.112164
H	-0.4013572594	 1.9201524242	-0.9729573	 0.106715
H	 2.2419066416	-0.439674392	 0.688025227	 0.109294
H	-0.736921322	-0.6205759452	 0.6452550754	 0.100678
H	-0.1719457376	 0.0563536093	-2.9241117354	 0.108441
H	 1.615922478	 0.1209124294	-3.0092694666	 0.124292
H	 0.3452164737	-2.5256702891	-3.6016030775	 0.10708
H	 0.3955004037	-3.0033803601	-0.7464626072	 0.10531
118.3987	166.9915	182.9166	338.0598	385.1837	449.2706	561.7112	584.6843	762.4321	780.813	824.7994	844.085	859.3346	888.2788	937.1544	945.6834	965.7166	970.6451	994.5683	1010.4404	1031.8863	1055.9561	1072.9717	1084.601	1133.2997	1155.1295	1166.1786	1217.6373	1231.0438	1239.6903	1253.1116	1265.9432	1334.3648	1378.1271	1438.688	1469.2617	1513.8272	3023.5766	3063.2262	3072.6627	3125.4054	3178.3739	3180.5871	3195.3754	3196.6252
C1OC2C1C21CC2OC12	C1O[C@H]2[C@@H]1[C@]12C[C@H]2O[C@@H]12	
InChI=1S/C7H8O2/c1-4-6(9-4)7(1)3-2-8-5(3)7/h3-6H,1-2H2	InChI=1S/C7H8O2/c1-4-6(9-4)7(1)3-2-8-5(3)7/h3-6H,1-2H2/t3-,4-,5+,6-,7+/m1/s1
