20
gdb 112950	4.21968	0.84329	0.75023	3.6385	78.48	-0.2342	0.0328	0.267	1550.8709	0.168857	-440.291867	-440.281686	-440.280742	-440.328487	34.876	
C	-0.4851127665	 0.9943756129	-0.0308047002	-0.242584
O	 0.3279199293	-0.160689881	-0.0459954627	-0.2376
C	 0.9927163479	-0.3839363929	 1.1626731023	 0.119223
C	 0.1614350043	-1.019363467	 2.3266517717	-0.197489
N	 1.0806054183	-2.1545607747	 2.2876424551	-0.072209
C	 1.8350076711	-1.6829584058	 1.1238638894	-0.214983
C	 0.9617130847	-3.3523909175	 2.9220834798	 0.367587
C	 1.9888719478	-4.3986650639	 2.518675677	-0.488358
O	 0.0927767509	-3.5459925208	 3.7548305585	-0.36767
H	 0.1041119977	 1.8995648286	 0.1824187648	 0.109717
H	-0.9324011816	 1.0868350987	-1.022696508	 0.134312
H	-1.2901016389	 0.9212481854	 0.7151855722	 0.115594
H	 1.5571941717	 0.506876975	 1.4707734368	 0.077802
H	 0.1503895432	-0.482662167	 3.2799805376	 0.118226
H	-0.8650278513	-1.2792308226	 2.044261851	 0.122576
H	 1.6618435581	-2.2564188767	 0.2058127075	 0.124927
H	 2.9119652944	-1.5687504654	 1.2864142293	 0.114183
H	 3.0097696314	-4.0126781195	 2.6037633018	 0.132416
H	 1.871551363	-5.2672732135	 3.165896787	 0.147027
H	 1.8398625347	-4.7060379922	 1.4775680588	 0.137302
36.2299	80.3711	93.882	100.0997	136.9411	183.7202	202.7137	265.6125	353.1621	440.4887	453.6824	567.2282	592.8547	640.2677	781.5084	875.5589	917.9473	966.4198	1007.5222	1020.833	1049.4416	1101.4304	1119.8732	1138.2162	1165.8005	1181.856	1184.2811	1199.445	1252.2238	1278.7096	1293.447	1320.9008	1378.5317	1395.6321	1446.4203	1472.3284	1482.5961	1484.2012	1489.325	1495.9775	1508.0916	1516.6439	1768.2966	2980.218	3008.2795	3026.5976	3030.5548	3040.091	3040.3292	3077.0319	3089.6241	3101.2445	3123.8596	3161.0873
COC1CN(C1)C(C)=O	COC1CN(C1)C(=O)C	
InChI=1S/C6H11NO2/c1-5(8)7-3-6(4-7)9-2/h6H,3-4H2,1-2H3	InChI=1S/C6H11NO2/c1-5(8)7-3-6(4-7)9-2/h6H,3-4H2,1-2H3
