18
gdb 10203	3.19763	1.07219	0.83495	0.8523	70.3	-0.2607	0.0439	0.3046	1333.5345	0.15116	-384.893254	-384.88348	-384.882536	-384.928301	34.403	
O	-0.15785411	 1.5008592773	-0.1585089754	-0.420368
C	 0.0237538665	 0.1023245044	-0.0032247342	-0.087656
C	-1.3654932918	-0.5257367043	 0.0517979815	-0.178138
C	-1.3551830971	-2.0694519725	 0.0528688445	-0.189928
C	-0.7091538954	-2.6689288642	 1.3274790267	-0.05363
O	-0.7180777933	-4.0783051276	 1.3276453477	-0.421711
C	-2.7106211052	-2.6021052041	-0.0827399948	 0.28989
C	-3.8200599409	-3.0644416565	-0.1414886475	-0.44847
H	 0.7073404245	 1.9203893446	-0.1494892212	 0.287309
H	 0.5895063483	-0.3245773446	-0.8485277752	 0.088303
H	 0.5901423915	-0.1210047516	 0.9137366571	 0.092711
H	-1.8959807516	-0.1582372936	 0.9372519417	 0.116529
H	-1.9272023139	-0.1721637848	-0.8183109972	 0.123322
H	-0.7653562283	-2.4229671843	-0.8044505806	 0.112553
H	 0.3424061948	-2.373152901	 1.381300391	 0.109666
H	-1.2219854616	-2.2538422378	 2.210381036	 0.093885
H	-1.6352923925	-4.3541552261	 1.2080874303	 0.28544
H	-4.8036050739	-3.4571292933	-0.2227464703	 0.200293
66.2941	83.8089	118.3453	127.7575	176.6318	261.8474	266.5811	300.5647	345.0584	417.7523	457.4401	534.2579	603.4834	627.3363	654.4508	779.8373	830.4832	951.1189	1006.3954	1038.4054	1073.9577	1083.3294	1097.4365	1138.571	1207.7741	1229.4022	1243.8148	1298.7953	1314.2139	1327.5616	1373.7602	1381.3798	1432.5827	1464.0007	1492.9492	1506.2773	1527.3858	2226.6763	2958.5472	2973.6664	2993.1845	3014.6741	3050.5591	3089.2089	3095.6451	3501.2969	3776.0191	3831.1429
OCCC(CO)C#C	OCC[C@@H](CO)C#C	
InChI=1S/C6H10O2/c1-2-6(5-8)3-4-7/h1,6-8H,3-5H2	InChI=1S/C6H10O2/c1-2-6(5-8)3-4-7/h1,6-8H,3-5H2/t6-/m0/s1
