19
gdb 107720	3.53222	1.24154	1.14009	2.2158	75.22	-0.2328	0.0708	0.3037	1149.3551	0.158011	-422.963734	-422.955282	-422.954338	-422.996754	32.71	
C	 0.082779512	 1.4522723536	-0.0330179079	-0.505493
C	 0.0404218435	-0.036519596	 0.1040003604	 0.421271
C	-1.2668491293	-0.871064254	 0.2305109966	-0.264886
C	-0.3617765478	-1.9726648158	 0.7751835576	-0.153547
C	 0.6986776327	-0.9607673779	 1.2092303976	-0.2789
C	 0.9629907702	-1.8030044634	 0.0107186355	 0.474335
C	 1.9439889435	-2.8746601859	-0.3233441398	-0.193614
O	 1.5146672461	-3.6697890751	-1.4177861709	-0.413232
O	 0.7718427718	-0.7527573452	-0.9457985232	-0.374142
H	 1.1149537669	 1.8138460055	-0.0322811187	 0.131723
H	-0.3864995374	 1.7553645712	-0.9754252705	 0.133803
H	-0.457929423	 1.9294978097	 0.7897618209	 0.12415
H	-1.9270212344	-0.4721270986	 1.0055877001	 0.101344
H	-1.820725623	-1.043840511	-0.6978816596	 0.097745
H	-0.6334224039	-2.9022634762	 1.2584500119	 0.095128
H	 1.2232238185	-0.7817887679	 2.1379826943	 0.098177
H	 2.9261999517	-2.4188929286	-0.5236781639	 0.098118
H	 2.0572740524	-3.5478381627	 0.5329348068	 0.114283
H	 1.3104772595	-3.0633141418	-2.1382893873	 0.293736
70.4521	126.1785	201.4234	231.5844	270.0695	327.0697	356.1727	410.3336	467.242	544.5268	623.6927	684.653	754.6395	794.7547	825.6637	836.7223	867.2224	892.6422	960.5541	964.8057	984.2523	1004.9476	1041.6282	1064.4704	1073.94	1121.4619	1126.8203	1149.4348	1187.4302	1228.5468	1241.2403	1276.881	1343.0824	1374.883	1400.7023	1418.5228	1466.9359	1480.0907	1487.1693	1489.3824	1491.6932	2985.9001	3037.3182	3045.1848	3077.272	3106.0062	3108.6416	3119.0155	3198.6324	3209.0361	3807.9818
CC12CC3C1C3(CO)O2	C[C@]12C[C@@H]3[C@H]1[C@]3(CO)O2	
InChI=1S/C7H10O2/c1-6-2-4-5(6)7(4,3-8)9-6/h4-5,8H,2-3H2,1H3	InChI=1S/C7H10O2/c1-6-2-4-5(6)7(4,3-8)9-6/h4-5,8H,2-3H2,1H3/t4-,5-,6+,7-/m1/s1
