23
gdb 122453	3.39561	0.66344	0.59127	0.8523	93.41	-0.2392	0.0515	0.2907	1961.0171	0.20366	-351.120871	-351.110251	-351.109307	-351.157522	38.888	
C	-0.2731681382	 1.552020302	 0.1433168575	-0.380456
C	 0.1310922062	 0.0855246245	-0.0294904829	-0.163599
C	 0.7021288639	-0.5375044806	 1.248699215	-0.153829
C	 1.109430436	-2.0066120095	 1.0763092739	-0.215387
C	 1.6718371703	-2.6132260637	 2.3430937309	 0.001017
C	 0.7658840747	-3.1820693449	 3.3964818646	-0.287755
C	 1.6493540685	-4.1203018295	 2.583421276	-0.208683
C	 1.0694267146	-5.0174578151	 1.6275200041	 0.339934
C	 0.5956471931	-5.7805256528	 0.8263181314	-0.477104
H	 0.5837387632	 2.1664967944	 0.4416182144	 0.112512
H	-0.6737837379	 1.9692379006	-0.785910971	 0.110672
H	-1.041936439	 1.6625814109	 0.9163011856	 0.112926
H	-0.7384916792	-0.4989055941	-0.3581651795	 0.095331
H	 0.8724980784	 0.001822205	-0.8353068831	 0.094371
H	 1.572289218	 0.0469234117	 1.5794959776	 0.089095
H	-0.0380430229	-0.4593582523	 2.0566124014	 0.094558
H	 0.2457637061	-2.5955285306	 0.7458972813	 0.107106
H	 1.8543137338	-2.0878116514	 0.273176101	 0.098544
H	 2.5717577078	-2.1263410976	 2.7121434326	 0.088072
H	 1.012306404	-3.0459818454	 4.4435613897	 0.115633
H	-0.2968263492	-3.2125586118	 3.1815519913	 0.12409
H	 2.5132297139	-4.5220550213	 3.1052896522	 0.110265
H	 0.1754713038	-6.4540715384	 0.121651046	 0.192686
44.7226	70.8179	84.7803	130.0376	154.2006	204.3305	248.1386	289.7438	304.3066	406.2957	425.54	526.1003	572.7475	616.9599	645.7644	733.8948	768.6929	788.3011	814.697	868.6209	907.9632	911.2924	951.0439	990.7529	1025.9947	1062.1278	1067.7452	1074.8425	1118.9347	1133.3422	1145.7168	1198.9633	1227.6681	1251.5567	1277.3203	1314.0929	1330.0768	1353.8989	1376.8961	1396.5453	1411.8762	1421.0833	1478.3872	1485.0389	1489.3238	1499.711	1500.4902	1512.1697	2232.9007	3003.6817	3013.0486	3019.5535	3028.5029	3030.0901	3049.326	3069.0515	3094.8183	3100.6906	3129.9808	3135.3027	3145.573	3224.5016	3505.979
CCCCC1CC1C#C	CCCC[C@H]1C[C@H]1C#C	
InChI=1S/C9H14/c1-3-5-6-9-7-8(9)4-2/h2,8-9H,3,5-7H2,1H3	InChI=1S/C9H14/c1-3-5-6-9-7-8(9)4-2/h2,8-9H,3,5-7H2,1H3/t8-,9+/m1/s1
