18
gdb 25562	5.89963	0.69762	0.65178	1.4797	80.78	-0.2041	-0.0247	0.1794	1665.0363	0.147943	-401.996089	-401.987255	-401.986311	-402.031437	31.555	
O	-0.1727500784	-0.074589454	-0.4269393675	-0.234801
C	 0.0033242614	 1.0767697545	-0.1220064935	 0.154726
C	 1.3307973107	 1.7957821828	-0.1727522927	-0.259151
C	 1.2804437926	 3.0147282986	-1.1299857469	-0.339802
C	 2.536409332	 3.8253029527	-1.1317997444	 0.311705
C	 2.8152053821	 5.0624289793	-0.5916943458	-0.225429
C	 4.1814024954	 5.3595118273	-0.857512173	-0.134128
C	 4.702306833	 4.2953062834	-1.5532375858	-0.096754
N	 3.6993868476	 3.3706822039	-1.7122071611	-0.284506
H	-0.8475272545	 1.7141835977	 0.2185654402	 0.071529
H	 1.5663255601	 2.1579750424	 0.8366012103	 0.127934
H	 2.104110043	 1.0821281946	-0.4703791635	 0.114365
H	 1.0474155769	 2.6588509186	-2.1425431881	 0.116525
H	 0.4524342745	 3.6687601773	-0.8364182704	 0.121899
H	 2.1079729964	 5.6860487764	-0.0653572844	 0.088251
H	 4.7162293161	 6.2531291061	-0.5751207389	 0.093384
H	 5.6887837792	 4.1179314506	-1.9503217443	 0.115491
H	 3.7954879018	 2.4955121774	-2.1975845902	 0.25876
41.4114	59.4597	70.7527	114.0111	281.27	317.4166	336.3496	478.3078	518.5776	629.2084	656.7306	708.8826	732.1726	768.1547	796.0157	848.0705	858.4853	895.7834	961.0633	990.6686	1048.232	1064.5101	1077.4434	1119.3067	1145.5075	1186.5548	1255.0602	1263.7848	1282.0071	1323.9807	1360.8814	1429.6285	1439.7079	1458.3533	1465.8917	1487.3371	1503.1811	1616.3831	1835.333	2848.4197	3015.2108	3032.9807	3073.2554	3105.1338	3238.622	3252.4149	3272.0685	3675.5265
O=CCCC1=CC=CN1	O=CCCc1ccc[nH]1	
InChI=1S/C7H9NO/c9-6-2-4-7-3-1-5-8-7/h1,3,5-6,8H,2,4H2	InChI=1S/C7H9NO/c9-6-2-4-7-3-1-5-8-7/h1,3,5-6,8H,2,4H2
