18
gdb 133627	3.57186	0.89355	0.84458	2.079	64.86	-0.3057	0.0849	0.3906	1380.1288	0.14448	-533.459299	-533.450712	-533.449768	-533.493665	31.624	
F	 0.2899571859	 0.0535407941	-0.0288020659	-0.086328
C	 0.0118823406	 1.368059617	 0.0210461372	 0.281997
F	 1.1860174872	 2.0223495609	-0.0359368773	-0.081025
F	-0.6675779588	 1.6737699761	-1.0964424077	-0.078804
C	-0.7750512563	 1.7269931835	 1.2640718961	-0.362369
C	-0.0407716306	 1.3896644001	 2.5556281088	 0.053693
C	 1.1976785209	 2.2291695954	 2.982047626	-0.218679
C	 0.699567074	 2.1404241412	 4.449125709	-0.214803
C	-0.7080931542	 1.7728995706	 3.9057219134	-0.244273
H	-0.9986966622	 2.7979388874	 1.2102221118	 0.122689
H	-1.7279086957	 1.1895584882	 1.2057591725	 0.127907
H	 0.2145293645	 0.3250802001	 2.5563945522	 0.087799
H	 2.1865713247	 1.8322414915	 2.7448942686	 0.105791
H	 1.1348355135	 3.25099332	 2.5947608768	 0.102383
H	 1.1573940614	 1.3027871507	 4.9828905062	 0.105344
H	 0.7846239836	 3.0345202509	 5.0703564684	 0.099294
H	-1.3404730874	 2.6606694299	 3.7980073476	 0.099629
H	-1.2801071411	 1.0013948224	 4.4269859065	 0.099755
51.4857	86.5342	120.2698	171.1955	287.0202	319.1223	365.4603	428.4628	536.0354	539.6308	637.0138	664.3015	767.9759	793.9413	847.2547	879.2716	906.7677	934.9137	964.5871	978.3207	1030.2854	1074.7753	1124.935	1172.2696	1188.5837	1209.9995	1247.4397	1257.9351	1262.5292	1268.6276	1285.1431	1291.6057	1310.8854	1362.5773	1403.3885	1472.5504	1479.4999	1487.1394	1511.5832	3046.3179	3047.7895	3053.5021	3060.2101	3061.4101	3094.9255	3101.0103	3109.7405	3123.3041
FC(F)(F)CC1CCC1	FC(F)(F)CC1CCC1	
InChI=1S/C6H9F3/c7-6(8,9)4-5-2-1-3-5/h5H,1-4H2	InChI=1S/C6H9F3/c7-6(8,9)4-5-2-1-3-5/h5H,1-4H2
