19
gdb 38643	2.76593	2.21555	1.93127	1.463	77.17	-0.225	0.0148	0.2398	832.3223	0.164569	-385.887604	-385.881882	-385.880938	-385.917175	26.207	
C	-0.0265925192	 1.5898533241	 0.0153892123	-0.206931
C	 1.5189531372	 1.6782139578	 0.0352264581	-0.061474
C	 1.7459203375	 1.0408965488	 1.4149366423	-0.201176
C	 1.0930544611	-0.353170366	 1.1075437737	-0.115853
C	 2.2411502525	-1.1320741807	 0.5128619449	-0.046192
C	 2.7759548245	-0.5378828361	-0.5585328195	-0.076773
C	 1.9046864694	 0.5844656417	-1.0736389689	 0.038875
O	 0.6341098609	-0.0950641335	-1.3085267465	-0.262111
C	 0.0231032231	 0.0529323412	-0.0366534402	 0.087694
H	-0.4804180877	 2.030465495	 0.9058463718	 0.089656
H	-0.5076130867	 1.9822739519	-0.8813985206	 0.101542
H	 1.9768274261	 2.6523220763	-0.1353546735	 0.066089
H	 2.7886752161	 0.935794569	 1.7143973248	 0.096805
H	 1.2168350313	 1.6033201343	 2.1898094019	 0.091577
H	 0.6250663567	-0.8367745426	 1.9649635941	 0.064386
H	 2.6206283062	-2.0365796044	 0.9747809088	 0.092068
H	 3.6438274487	-0.8886899509	-1.1038071281	 0.091335
H	 2.2402009762	 1.0274727287	-2.0115825467	 0.074219
H	-0.9060478139	-0.5154232646	-0.0142086687	 0.076265
310.2362	405.6591	423.5252	525.0709	554.5897	606.4193	649.7038	672.0708	698.1673	777.4701	778.7169	849.5441	867.4853	887.5735	908.0812	936.4206	940.1349	959.821	964.0937	971.9512	991.5282	1009.9268	1055.8957	1081.787	1100.0733	1127.223	1158.4906	1186.7857	1190.4061	1256.8118	1264.5174	1276.1627	1288.6443	1300.9326	1305.5647	1328.6549	1345.4296	1375.5844	1489.3753	1519.4537	1658.3695	3055.5326	3074.3905	3106.4587	3108.053	3119.0162	3123.7215	3130.3835	3132.7279	3181.3278	3207.6485
C1C2CC3C=CC2OC13	C1[C@H]2C[C@@H]3C=C[C@H]2O[C@H]13	
InChI=1S/C8H10O/c1-2-7-6-3-5(1)8(4-6)9-7/h1-2,5-8H,3-4H2	InChI=1S/C8H10O/c1-2-7-6-3-5(1)8(4-6)9-7/h1-2,5-8H,3-4H2/t5-,6+,7+,8+/m0/s1
