15
gdb 31461	6.24158	0.89356	0.79104	8.3073	77.03	-0.2117	-0.0085	0.2032	1377.5097	0.114642	-413.040151	-413.031773	-413.030829	-413.073563	30.078	
C	 0.2499279862	 1.2849908616	 0.2295785422	-0.3458
N	-0.1959241175	-0.0397733855	-0.1652558034	-0.382329
C	 0.4752645675	-0.7441191347	-1.1349335207	 0.458913
N	 0.4834771098	-2.0514529701	-1.2485601568	-0.393453
C	 1.2191535677	-2.3029150571	-2.3975167055	 0.182618
C	 1.6600755307	-1.1367103632	-2.966331676	-0.175584
N	 1.1805500508	-0.1372181333	-2.1436328298	-0.298756
C	 1.4639501243	-3.6168562193	-2.8756811444	 0.209843
N	 1.6756724056	-4.6803322662	-3.2820474124	-0.347866
H	 1.3071375613	 1.3233951639	 0.5323830933	 0.127442
H	 0.0963795827	 2.0020338071	-0.5859250127	 0.129431
H	-0.3621177539	 1.624562604	 1.0667903379	 0.147538
H	-0.4885195716	-0.6468078975	 0.5861128081	 0.263597
H	 2.255882986	-0.9338939673	-3.8390421411	 0.151883
H	 1.2991573905	 0.8508626276	-2.2873750687	 0.272522
61.5311	129.225	150.6295	179.2104	230.8559	317.7279	424.9918	469.0682	518.4227	519.8526	581.6423	642.7789	674.4761	736.6303	741.0705	747.6779	991.5934	1005.4503	1085.7683	1106.5228	1151.6588	1186.3208	1265.1124	1303.6129	1368.9773	1406.5244	1463.9638	1490.0984	1508.2797	1518.2348	1577.5428	1656.006	2349.2849	2989.707	3053.6049	3132.5035	3292.5536	3619.1528	3673.6192
CNC1=NC(=CN1)C#N	CNc1nc(c[nH]1)C#N	
InChI=1S/C5H6N4/c1-7-5-8-3-4(2-6)9-5/h3H,1H3,(H2,7,8,9)	InChI=1S/C5H6N4/c1-7-5-8-3-4(2-6)9-5/h3H,1H3,(H2,7,8,9)
