23
gdb 42101	3.28714	1.19926	1.15366	1.7293	83.69	-0.2373	0.0676	0.3048	1204.4518	0.208721	-388.313393	-388.304718	-388.303774	-388.348695	32.671	
C	 0.0743921282	 1.6128740061	-0.1429518602	-0.203508
C	 1.5866812522	 1.9580322236	 0.0032576917	-0.210762
C	 2.2611505165	 0.6691867585	 0.5237130107	-0.237763
C	 1.3424473844	-0.4798778109	 0.0491011266	 0.316515
C	-0.0570830123	 0.12374515	 0.2545449838	-0.274258
C	 1.6574530132	-0.9021131525	-1.4048777726	-0.278206
C	 2.7886615771	-1.9285713965	-1.2259655843	-0.068096
O	 2.684949419	-2.4333776129	 0.1069575748	-0.266088
C	 1.5880854183	-1.8116023664	 0.7651749785	-0.123188
H	-0.5573848878	 2.2520004538	 0.479639504	 0.098197
H	-0.2537391896	 1.7647473816	-1.1756952493	 0.100047
H	 2.0057238112	 2.2488853594	-0.9650125957	 0.099103
H	 1.7577480876	 2.8016534885	 0.6774312053	 0.097565
H	 3.2954336524	 0.5626428428	 0.1837149466	 0.098837
H	 2.2854566237	 0.6738987525	 1.6200574132	 0.093831
H	-0.3268455545	 0.0411681334	 1.3152278374	 0.09559
H	-0.8306371454	-0.403496134	-0.312454902	 0.091985
H	 0.7773416918	-1.375658375	-1.8535956273	 0.099548
H	 1.949951585	-0.0687053425	-2.0490327288	 0.101071
H	 2.7149175944	-2.7570652174	-1.9417785931	 0.095529
H	 3.7793955635	-1.4704446394	-1.3498350732	 0.096426
H	 1.8476247552	-1.6879595297	 1.8225564746	 0.098486
H	 0.6912406461	-2.4517576831	 0.7092151092	 0.079137
16.0824	54.7263	135.8852	149.4976	259.3123	353.1706	390.1994	435.5768	617.2884	654.2217	705.8398	743.3452	804.5352	818.9967	857.9864	888.9417	918.213	927.0077	944.8786	981.5461	986.2589	1010.7295	1038.4098	1062.5123	1066.7779	1089.2269	1140.8324	1182.3004	1201.9806	1215.5628	1217.7115	1246.3608	1254.9401	1262.683	1296.6254	1309.6939	1323.3837	1333.767	1339.2338	1364.2097	1369.8871	1407.7268	1483.8155	1489.1602	1495.0257	1497.2778	1517.829	1519.5628	1536.4746	2954.819	3005.1382	3023.368	3030.5904	3032.9369	3045.4619	3049.0993	3056.5013	3057.9242	3072.4904	3081.0001	3087.3295	3099.5239	3104.5956
C1CCC2(C1)CCOC2	C1CCC2(C1)CCOC2	
InChI=1S/C8H14O/c1-2-4-8(3-1)5-6-9-7-8/h1-7H2	InChI=1S/C8H14O/c1-2-4-8(3-1)5-6-9-7-8/h1-7H2
