17
gdb 73366	2.51359	2.03214	1.61577	1.7343	65.78	-0.2284	0.0479	0.2763	882.6154	0.137243	-458.932148	-458.925154	-458.92421	-458.963265	28.234	
O	-0.0454406988	 1.3741432036	 0.0235576116	-0.487485
C	 0.0245941466	-0.0329050019	 0.0027457416	 0.318686
C	 0.5740894221	-0.6197684841	-1.3173900207	-0.119985
O	 0.015565808	-1.9253104832	-1.4301936879	-0.251612
C	-1.1963747024	-1.9418809439	-0.7181974467	 0.058945
C	-1.1168068969	-1.9604315829	 0.8005924269	 0.058933
O	 0.1629114813	-1.9596561093	 1.3822713207	-0.251596
C	 0.7082615918	-0.6510616084	 1.2435388707	-0.120056
C	-1.3783991907	-0.6734135276	 0.0684246294	-0.205439
H	 0.8506036418	 1.7246257656	-0.0172853458	 0.285602
H	 0.2502158269	 0.0222777313	-2.1503388266	 0.099518
H	 1.6648615957	-0.7155735137	-1.3381239628	 0.102566
H	-2.0075157248	-2.4502214666	-1.2287534539	 0.101996
H	-1.8708066111	-2.4820895599	 1.3805787341	 0.101997
H	 1.7951061624	-0.7459587411	 1.1478112809	 0.102586
H	 0.4740416281	-0.0299210574	 2.1211889093	 0.099489
H	-2.26327868	-0.0533214905	 0.1223622893	 0.105853
139.0696	231.5089	247.8243	300.9565	375.105	411.2409	552.2922	579.744	597.2849	726.5469	728.7479	779.7738	793.8651	824.7616	917.5403	960.6368	982.8823	983.4338	1009.7744	1076.7773	1091.0223	1098.6383	1106.0155	1112.5084	1169.0504	1175.5354	1193.5066	1235.646	1244.4247	1263.9908	1310.219	1344.4232	1365.1906	1378.4887	1426.7552	1505.2178	1519.2285	2991.4102	2994.3959	3071.2474	3078.4826	3162.7825	3170.7151	3201.6152	3812.5967
OC12COC3C(OC1)C23	O[C@@]12CO[C@H]3[C@@H](OC1)[C@@H]23	
InChI=1S/C6H8O3/c7-6-1-8-4-3(6)5(4)9-2-6/h3-5,7H,1-2H2	InChI=1S/C6H8O3/c7-6-1-8-4-3(6)5(4)9-2-6/h3-5,7H,1-2H2/t3-,4+,5-,6-
