23
gdb 114662	3.2825	1.12523	1.03804	1.5604	85.7	-0.2316	0.0974	0.329	1312.3155	0.206729	-388.277655	-388.26884	-388.267896	-388.310927	34.719	
C	 0.048204952	 1.5551579562	-0.3547982863	-0.377219
C	 0.2284714926	 0.051118884	-0.1263729337	-0.204762
C	-1.0931642216	-0.6580049272	 0.1455351922	 0.155333
O	-2.0413765914	-0.4693908836	-0.9451959365	-0.302135
C	-2.4257782298	-1.8228073729	-1.2460978631	 0.103858
C	-2.6320652476	-2.4494448001	 0.1526515189	-0.25528
C	-1.0905546253	-2.1963276223	 0.2107657855	-0.09384
C	-1.0588127729	-2.5590762287	-1.3191018011	 0.04103
C	-1.0219434476	-4.0336792177	-1.7001098915	-0.437339
H	 1.0074461712	 2.0421224591	-0.5541997206	 0.106898
H	-0.613731902	 1.7333496246	-1.2062299184	 0.136375
H	-0.3969003632	 2.0388574051	 0.5219795523	 0.11072
H	 0.7236713855	-0.3962959128	-0.9948370229	 0.097579
H	 0.8858783209	-0.1216778035	 0.73631321	 0.090297
H	-1.532573195	-0.2334242386	 1.0609350751	 0.065251
H	-3.1693482902	-1.8253696043	-2.0428861916	 0.072619
H	-3.2665472492	-1.8959614574	 0.8493126232	 0.097734
H	-2.9080856339	-3.5025635355	 0.1405750398	 0.101939
H	-0.4388980657	-2.6694187431	 0.9460006726	 0.065225
H	-0.3177474931	-2.0156910772	-1.9118819984	 0.071094
H	-1.7343586152	-4.6469743089	-1.1424903788	 0.117889
H	-1.241162283	-4.1603570122	-2.7661692344	 0.11832
H	-0.0236010053	-4.4481508628	-1.5215418123	 0.118414
82.0473	150.778	176.2179	206.0937	257.5729	276.881	309.545	379.6333	494.9582	500.1243	539.1401	656.6169	766.528	792.1892	837.3643	847.803	868.5578	887.4425	920.8042	959.2956	980.0811	1009.2856	1029.499	1045.2107	1053.1091	1081.1894	1108.5325	1115.5803	1126.5208	1139.8331	1168.9138	1216.9723	1247.9745	1257.8493	1267.2899	1284.8741	1296.0241	1315.6685	1360.0387	1391.2381	1406.3815	1415.918	1420.8053	1479.5816	1491.4805	1497.4391	1498.5438	1510.2136	1512.7576	2982.1229	3021.9978	3032.933	3036.0269	3063.2563	3073.5072	3075.2523	3089.0813	3101.891	3112.9994	3114.2372	3123.4714	3124.4713	3153.8712
CCC1OC2CC1C2C	CC[C@H]1O[C@@H]2C[C@H]1[C@H]2C	
InChI=1S/C8H14O/c1-3-7-6-4-8(9-7)5(6)2/h5-8H,3-4H2,1-2H3	InChI=1S/C8H14O/c1-3-7-6-4-8(9-7)5(6)2/h5-8H,3-4H2,1-2H3/t5-,6+,7-,8-/m1/s1
