21
gdb 119120	2.36213	1.23092	0.92885	2.4948	80.09	-0.2346	-0.0119	0.2228	1348.1417	0.179008	-424.232065	-424.22173	-424.220786	-424.268035	37.321	
C	-1.2199968238	 1.6327194474	-0.7349326892	-0.385986
C	-1.6176626608	 0.1934734817	-1.0116760509	-0.060501
O	-1.3147921805	-0.5771819952	 0.1482209879	-0.294947
C	-1.5751958473	-1.9434722815	 0.0399255536	 0.302516
C	-2.3090346612	-2.5649183877	 1.2172069029	-0.285971
C	-3.006612981	-2.4245037388	-0.100197926	-0.309562
C	-0.4878353588	-2.8039464119	-0.5491792466	 0.327322
C	 0.8711072911	-2.1612652074	-0.7461130718	-0.485511
O	-0.6925956595	-3.9727315091	-0.8026237456	-0.321389
H	-1.4508900135	 2.2629068879	-1.5988828635	 0.118413
H	-1.7622254307	 2.0196011291	 0.1324758474	 0.129187
H	-0.1485443076	 1.7051871708	-0.5280323906	 0.12721
H	-2.6906396511	 0.1231547772	-1.2403157637	 0.096238
H	-1.0769260711	-0.1964849141	-1.88707761	 0.09156
H	-1.9883744357	-3.5523178086	 1.5270348969	 0.134005
H	-2.5717306726	-1.873613289	 2.0092446447	 0.127534
H	-3.7686727124	-1.659298768	-0.1883358226	 0.121024
H	-3.1524287565	-3.316560342	-0.6974547935	 0.142492
H	 1.1747905396	-1.6166403763	 0.1524019368	 0.147543
H	 1.5983236726	-2.9348279242	-0.994897463	 0.137615
H	 0.8347059606	-1.4280926603	-1.5593099431	 0.141206
47.1623	59.5798	120.968	155.7438	181.9805	225.736	252.4193	256.3662	326.3884	361.1193	434.6935	465.1438	572.4014	616.6743	681.2043	781.6748	814.1442	846.1272	882.3109	904.7279	968.1494	974.2873	1006.8344	1049.3559	1061.3875	1087.2941	1092.549	1144.6744	1160.6181	1185.5799	1205.3396	1290.4312	1297.8078	1328.2205	1383.7782	1399.8262	1426.3676	1437.3652	1457.2675	1471.209	1471.9578	1482.3542	1498.9948	1529.8724	1789.2968	2989.7211	3021.8157	3045.591	3045.9479	3109.6968	3120.51	3122.4173	3144.7695	3145.8204	3156.6246	3235.9667	3249.3188
CCOC1(CC1)C(C)=O	CCOC1(CC1)C(=O)C	
InChI=1S/C7H12O2/c1-3-9-7(4-5-7)6(2)8/h3-5H2,1-2H3	InChI=1S/C7H12O2/c1-3-9-7(4-5-7)6(2)8/h3-5H2,1-2H3
