21
gdb 95220	2.51041	1.60003	1.16792	2.3467	77.13	-0.248	0.0639	0.312	1108.0002	0.184707	-424.225488	-424.2172	-424.216255	-424.257847	33.608	
O	-0.1332375963	 1.4459388552	 0.0380478852	-0.461668
C	 0.0108669011	 0.0246200819	 0.0255272516	 0.124188
C	 0.8030151418	-0.4980615441	 1.2227060504	-0.24873
C	 1.0324348664	-2.0107347913	 1.0864562188	-0.229784
C	-0.2393852586	-2.7778808482	 0.7597123106	-0.007754
C	-1.4896043543	-2.6348863931	 1.5798024876	-0.275009
C	-1.4456695166	-2.0517890574	 0.1866456982	-0.053146
C	-1.4232395299	-0.534468036	 0.0190629155	 0.106939
O	-2.1775804161	 0.0783458762	 1.0556342423	-0.441844
H	 0.7042533503	 1.8348503207	 0.3072692099	 0.285173
H	 0.5094575949	-0.2927649526	-0.9046796385	 0.064823
H	 1.7719834136	 0.0144905333	 1.2843298174	 0.079892
H	 0.2529496754	-0.2556828373	 2.1382446112	 0.11647
H	 1.7562574438	-2.1803892713	 0.2780885915	 0.096472
H	 1.4933537218	-2.4068853822	 1.9993287329	 0.09921
H	-0.0572344776	-3.7695019467	 0.3543009804	 0.078165
H	-2.0995690549	-3.5165610772	 1.7427818153	 0.104394
H	-1.5070139382	-1.9246110039	 2.3976750353	 0.128703
H	-2.0109543469	-2.57931692	-0.5737987623	 0.081712
H	-1.869249698	-0.2847040496	-0.9556417865	 0.0658
H	-1.9364723517	 1.0137517334	 1.0205380935	 0.285993
99.3641	195.5343	250.7613	276.3247	296.0461	338.9364	363.0173	391.9046	456.9356	500.1059	575.3732	635.0433	680.0902	757.2746	785.4741	825.8891	880.1009	909.0903	946.3578	949.6681	1016.8577	1022.9574	1055.1725	1086.7836	1090.469	1098.2524	1125.4241	1131.5479	1148.8765	1202.6842	1225.2389	1237.2879	1265.4478	1284.5738	1334.4671	1360.1909	1367.7393	1376.4836	1404.1273	1418.433	1426.1406	1438.7191	1488.0088	1491.6519	1504.4222	2966.0268	2983.0418	3011.591	3022.0751	3048.516	3077.1012	3135.1396	3140.8686	3161.2712	3227.9627	3761.0321	3827.1493
OC1CCC2CC2C1O	O[C@H]1CC[C@H]2C[C@H]2[C@H]1O	
InChI=1S/C7H12O2/c8-6-2-1-4-3-5(4)7(6)9/h4-9H,1-3H2	InChI=1S/C7H12O2/c8-6-2-1-4-3-5(4)7(6)9/h4-9H,1-3H2/t4-,5+,6-,7+/m0/s1
