23
gdb 93147	2.39162	1.41708	0.97695	0.2433	92.43	-0.224	0.0061	0.2301	1289.9505	0.207621	-351.163178	-351.154368	-351.153424	-351.196152	35.233	
C	 0.1842065959	 1.6678571974	 0.0095187436	-0.395607
C	-0.0598120479	 0.1502063522	 0.0033566647	 0.048771
C	 0.5223271396	-0.4530098542	-1.3082930553	-0.24748
C	-0.0448057952	-1.7729170509	-1.7795806881	-0.052161
C	 0.2028354136	-2.9734571841	-1.2568991112	-0.03824
C	 1.0488954504	-3.2079636075	-0.0243280811	-0.313097
C	 0.2239829368	-2.9869371792	 1.224955373	-0.03824
C	-0.014606529	-1.7921678291	 1.7647888504	-0.052161
C	 0.5445328874	-0.4671657701	 1.2982701231	-0.24748
H	 1.2580090227	 1.8922997431	 0.001590522	 0.112435
H	-0.2601476145	 2.1464407875	-0.8692901008	 0.10952
H	-0.2450687172	 2.1368288235	 0.9009142643	 0.10952
H	-1.1428700932	-0.0232090465	 0.0116412085	 0.077108
H	 0.3677589415	 0.2806648909	-2.106984639	 0.092915
H	 1.6119071999	-0.5317930786	-1.1884673861	 0.101989
H	-0.7208348465	-1.7179859274	-2.6305065426	 0.081799
H	-0.2812021425	-3.8465170603	-1.6887705524	 0.08431
H	 1.4582703948	-4.2229983914	-0.0333294461	 0.097519
H	 1.9020209243	-2.5182916042	-0.0278513024	 0.107567
H	-0.2527041911	-3.8646814323	 1.6555052837	 0.08431
H	-0.6760320076	-1.7465459515	 2.627657628	 0.081799
H	 1.6319066335	-0.5445388742	 1.1590522314	 0.101989
H	 0.4036587844	 0.2577760869	 2.1074004322	 0.092916
106.5305	148.9994	213.7013	242.8757	249.4229	267.5552	355.2992	403.7665	449.1304	478.9494	510.1463	600.3663	618.3968	733.393	739.4035	840.8345	885.0833	899.0006	900.4519	933.9871	972.4188	980.2766	994.5547	1000.9336	1050.8771	1051.244	1093.9177	1127.6082	1132.8805	1163.1487	1230.5311	1269.3998	1284.2773	1292.2819	1310.0616	1310.4061	1335.6074	1355.4948	1384.272	1407.8846	1410.0918	1421.5552	1477.2293	1483.3542	1498.6242	1500.9071	1502.7114	1717.5066	1726.0235	3005.8745	3010.0271	3022.286	3028.5457	3033.2494	3055.8248	3061.2428	3075.707	3089.6476	3099.5507	3133.3823	3135.3377	3159.0404	3162.2047
CC1CC=CCC=CC1	C[C@H]1CC=CCC=CC1	
InChI=1S/C9H14/c1-9-7-5-3-2-4-6-8-9/h3-6,9H,2,7-8H2,1H3/b5-3-,6-4-	InChI=1S/C9H14/c1-9-7-5-3-2-4-6-8-9/h3-6,9H,2,7-8H2,1H3/b5-3-,6-4-
