18
gdb 125322	5.2599	0.77886	0.72594	2.8178	75.5	-0.245	0.0023	0.2473	1569.9152	0.147642	-435.26609	-435.25671	-435.255766	-435.302121	32.385	
C	 0.1609276961	 1.4572542157	 0.0241191276	-0.482393
C	 0.0653300227	-0.0326222528	-0.0202445978	 0.303117
C	 0.0889714655	-0.88997774	-1.0966548784	-0.190156
N	-0.0492158202	-2.1273206966	-0.5573914027	 0.081557
C	-0.0189540682	-3.425575347	-1.2040483839	-0.182563
C	 1.4098741635	-3.9786760229	-1.3297240594	-0.069869
O	 1.4165722388	-5.2301584077	-1.9864467822	-0.404932
N	-0.1444880707	-2.0466113404	 0.7842706822	-0.155335
N	-0.0794333043	-0.7869143172	 1.108823992	-0.248842
H	 1.0077436479	 1.7772917734	 0.6393564139	 0.142194
H	 0.2910134215	 1.8723424342	-0.9784874991	 0.121431
H	-0.7415121868	 1.8966194089	 0.4610298206	 0.142164
H	 0.1790949838	-0.7292093203	-2.1581045229	 0.140921
H	-0.6308017221	-4.0978618323	-0.5965423073	 0.13509
H	-0.4747142791	-3.3442680506	-2.1941421028	 0.132973
H	 2.013747113	-3.3021880959	-1.943322318	 0.121483
H	 1.8695278413	-4.0221127798	-0.3328796118	 0.121274
H	 1.0854830672	-5.8940827787	-1.37330734	 0.291886
40.4144	46.624	85.5789	90.8598	246.579	268.2238	306.0951	337.4186	384.2299	407.983	644.0919	675.1356	716.8329	783.5217	785.8723	800.1635	996.7341	1025.1824	1040.7232	1055.1951	1064.1475	1065.8997	1089.9605	1135.3726	1167.8648	1279.0932	1291.3753	1337.226	1340.2112	1372.0279	1401.3018	1416.6147	1420.9064	1470.3092	1478.5646	1479.6094	1505.8327	1510.327	1595.3407	3016.8091	3041.65	3067.497	3080.5313	3099.1888	3121.7205	3124.764	3275.9076	3819.8959	40.4143	46.6222	85.5789	90.8601	246.579	268.2238	306.0956	337.4188	384.2299	407.9829	644.0919	675.1357	716.8331	783.5218	785.8725	800.1635	996.7343	1025.1825	1040.7233	1055.1951	1064.1476	1065.8999	1089.9605	1135.3727	1167.8649	1279.0933	1291.3753	1337.2259	1340.2111	1372.028	1401.3017	1416.6147	1420.9066	1470.3092	1478.5649	1479.6093	1505.8328	1510.327	1595.3407	3016.8091	3041.65	3067.497	3080.5313	3099.1888	3121.7204	3124.7641	3275.9077	3819.8961
CC1=CN(CCO)N=N1	Cc1cn(CCO)nn1	
InChI=1S/C5H9N3O/c1-5-4-8(2-3-9)7-6-5/h4,9H,2-3H2,1H3	InChI=1S/C5H9N3O/c1-5-4-8(2-3-9)7-6-5/h4,9H,2-3H2,1H3
