22
gdb 101790	3.16198	0.74988	0.64118	2.2061	80.81	-0.263	0.0316	0.2945	1806.6316	0.191423	-441.500797	-441.489604	-441.48866	-441.53826	39.324	
C	-0.5683953715	 1.3460769385	 0.632084483	-0.381227
C	-0.7178729866	-0.1730874406	 0.526282653	-0.183358
C	-1.4468507596	-0.6169214186	-0.7448820624	 0.106594
O	-0.7713047582	-0.2013556702	-1.9283030242	-0.431218
C	-1.6704864678	-2.1277645183	-0.8069436005	-0.076911
O	-2.5172959707	-2.4963758951	 0.2871235087	-0.241293
C	-2.7924152999	-3.8100447889	 0.4304410521	 0.401216
C	-3.7002549511	-4.0213019409	 1.6153461035	-0.461625
N	-2.3103407457	-4.6723080616	-0.3668989297	-0.518128
H	 0.005585971	 1.6276353227	 1.5198934355	 0.108957
H	-0.0600505535	 1.7475325923	-0.248756825	 0.125679
H	-1.5476482906	 1.83276647	 0.6992513779	 0.115508
H	 0.2735235579	-0.6514922194	 0.5410286673	 0.081281
H	-1.2608869989	-0.569035488	 1.391100215	 0.111201
H	-2.4244147177	-0.1212239166	-0.7911416681	 0.094592
H	 0.1181153586	-0.5728000851	-1.9035676866	 0.279362
H	-2.1414461997	-2.4049307844	-1.7545896021	 0.124324
H	-0.7210723226	-2.6741020197	-0.7371112362	 0.106034
H	-3.9332770472	-5.0790426526	 1.7463094318	 0.126924
H	-3.2260326174	-3.6431129815	 2.5261742903	 0.145425
H	-4.6315490512	-3.4628123509	 1.4805470661	 0.14705
H	-2.6191989175	-5.6072197614	-0.1111428092	 0.219612
43.4253	66.2099	83.9456	110.4364	146.6813	182.4505	217.4146	246.7647	276.4777	297.1736	340.9243	439.606	504.5168	511.7773	574.1418	625.5548	777.0809	822.5842	856.1867	923.1976	969.9327	985.474	990.761	1048.6497	1068.0769	1075.8403	1088.8972	1115.7965	1142.5123	1159.102	1236.6218	1257.7603	1319.3279	1330.9498	1359.5844	1391.3147	1399.0129	1405.2836	1418.5117	1431.19	1471.8343	1482.1864	1484.6357	1496.3843	1507.6294	1509.6039	1728.07	2994.9864	3027.0118	3036.967	3044.257	3048.1598	3073.4489	3093.0222	3102.0027	3111.2882	3119.3267	3143.7261	3517.4768	3791.6664
CCC(O)COC(C)=N	CC[C@@H](O)CO[C](C)[NH]	
InChI=1S/C6H13NO2/c1-3-6(8)4-9-5(2)7/h6-8H,3-4H2,1-2H3	InChI=1S/C6H13NO2/c1-3-6(8)4-9-5(2)7/h6-8H,3-4H2,1-2H3/t6-/m1/s1
