16
gdb 56356	5.96905	0.65299	0.62195	4.508	81.19	-0.2611	-0.0456	0.2156	1713.7503	0.122431	-396.903722	-396.893909	-396.892965	-396.93937	34.733	
N	 0.0272058274	 1.2584187539	 0.5887775353	-0.550596
C	 0.1190721727	-0.0510534543	 0.1602047266	 0.254594
N	 1.1433230493	-0.7133834176	-0.212317356	-0.251878
C	 2.435180533	-0.0565201676	-0.257616384	-0.187233
C	 3.1600244284	-0.1731116165	 1.1073989698	-0.345513
C	 4.4780392903	 0.4446661383	 1.0820481098	 0.294169
C	 5.5583588639	 0.9686533385	 1.0271101864	-0.437825
C	-1.1533911086	-0.7542956159	 0.1995311442	 0.27674
N	-2.1822619113	-1.2793796548	 0.2310696354	-0.314806
H	 0.798145811	 1.8736967329	 0.3820978293	 0.271157
H	-0.8822482161	 1.6920533378	 0.5687723901	 0.276645
H	 3.0420775575	-0.5564978789	-1.0172038327	 0.132095
H	 2.3845886134	 1.0055603911	-0.5481408773	 0.092932
H	 2.5430693924	 0.290411947	 1.8869829525	 0.137371
H	 3.2385587753	-1.2348069239	 1.3668098952	 0.152724
H	 6.5179847314	 1.4221257001	 0.9947494855	 0.199424
43.1608	71.2219	77.823	160.7812	190.2966	293.5672	320.3195	358.9517	388.9941	433.2823	454.0464	500.4697	561.3502	614.3358	626.5059	651.0583	722.6543	780.2947	832.172	966.523	1007.4589	1012.076	1081.3039	1145.2838	1231.3228	1292.7404	1308.2858	1333.7373	1367.4658	1477.0923	1525.295	1637.0431	1716.8324	2239.827	2360.7828	2967.5592	3034.0044	3069.1067	3089.4563	3505.7377	3588.3662	3702.3906
NC(=NCCC#C)C#N	NC(=NCCC#C)C#N	
InChI=1S/C6H7N3/c1-2-3-4-9-6(8)5-7/h1H,3-4H2,(H2,8,9)	InChI=1S/C6H7N3/c1-2-3-4-9-6(8)5-7/h1H,3-4H2,(H2,8,9)
