19
gdb 51726	3.0088	1.07507	0.87728	2.5591	79.32	-0.2471	0.0196	0.2667	1348.2815	0.159364	-419.162655	-419.153876	-419.152932	-419.197296	32.212	
N	 0.3504811014	 1.1079943187	-0.3122780782	-0.44147
C	 0.1771629746	-0.1118004759	-0.0424250491	 0.120385
O	-1.0346991764	-0.6763815515	-0.2186754153	-0.189385
C	-1.2070716977	-2.0280218131	 0.1680671862	 0.062222
C	-2.056894705	-2.3293140336	 1.4312107546	-0.257768
C	-2.7573019904	-3.4755201375	 0.6388535675	-0.300861
C	-2.2278503375	-2.8240772441	-0.6431653602	 0.329294
C	-2.9935214273	-2.2849112972	-1.7855605824	-0.291906
N	-2.0824271353	-3.4391866291	-1.9514951775	-0.378204
H	 1.3191930998	 1.3677157591	-0.1390374234	 0.230359
H	 0.9353677047	-0.8141987701	 0.3322254099	 0.086486
H	-0.2324436942	-2.5344264945	 0.2033002963	 0.084304
H	-1.5190573736	-2.5907106017	 2.3441044111	 0.104091
H	-2.7357793427	-1.4978787278	 1.6323052951	 0.12739
H	-2.304067808	-4.4537102364	 0.822045119	 0.113713
H	-3.8402629674	-3.5612862833	 0.7411694837	 0.114139
H	-4.0492942124	-2.5217085939	-1.8869690126	 0.12014
H	-2.6935873097	-1.3181129222	-2.1787095713	 0.135717
H	-1.2155800828	-3.1363500658	-2.3913840333	 0.231353
36.1727	96.4171	112.4175	166.2988	246.6474	297.2074	361.1565	389.3568	477.4974	550.4301	630.6391	746.3786	819.1561	830.3025	836.5131	899.9394	916.9177	956.7864	959.5794	979.2975	1035.2613	1036.9394	1044.3305	1102.6753	1115.9341	1127.8889	1161.3251	1183.4166	1235.2809	1245.3476	1259.8052	1277.6615	1291.0235	1305.8397	1389.0209	1418.8771	1430.502	1478.2448	1497.1876	1516.2132	1745.5348	3003.7979	3019.1878	3066.6493	3076.8412	3112.2641	3120.3926	3138.3774	3203.8935	3484.1697	3519.6416
N=COC1CCC11CN1	[NH][CH]O[C@H]1CC[C@]21CN2	
InChI=1S/C6H10N2O/c7-4-9-5-1-2-6(5)3-8-6/h4-5,7-8H,1-3H2	InChI=1S/C6H10N2O/c7-4-9-5-1-2-6(5)3-8-6/h4-5,7-8H,1-3H2/t5-,6+/m0/s1
