14
gdb 132295	1.94467	1.78944	0.93244	4.5853	69.68	-0.2076	-0.0144	0.1933	1137.8466	0.101948	-478.046752	-478.039224	-478.038279	-478.078593	29.456	
N	 0.0128062116	 1.3907892862	-0.1362815734	-0.582776
C	-0.0001959695	 0.0159659169	-0.0532215166	 0.428695
C	-1.1788778111	-0.6972104002	-0.0268835703	-0.380341
C	-1.2152756007	-2.1303557344	-0.000513214	 0.443066
O	-2.188818552	-2.8637201067	 0.0234983556	-0.407888
N	 0.0875513377	-2.7220751484	 0.0039283591	-0.44642
C	 1.2336046059	-2.0152236096	-0.0174143503	 0.448817
F	 2.3348850874	-2.7513356953	-0.0089199913	-0.055625
C	 1.2638039528	-0.6630487987	-0.0458091443	-0.442091
H	 0.8425643076	 1.86374341	 0.184108349	 0.257024
H	-0.8440513285	 1.8673961582	 0.0966816599	 0.260348
H	-2.1379469945	-0.1941989177	-0.0287740673	 0.096727
H	 0.1180270232	-3.731683292	 0.0266460784	 0.268726
H	 2.2073871201	-0.1379791183	-0.0774787544	 0.111737
165.7782	201.3071	218.8214	322.2791	351.6373	381.5453	475.2864	501.1066	513.5479	563.834	575.8486	622.4889	641.3754	694.8773	732.8505	763.964	829.2981	939.0318	1002.1732	1052.101	1107.0696	1200.932	1215.8195	1289.5406	1309.7008	1470.0484	1518.1884	1592.9826	1658.3258	1703.7232	1787.3828	3206.0171	3234.0869	3589.5553	3619.9913	3697.4815
NC1=CC(=O)NC(F)=C1	Nc1cc(=O)[nH]c(F)c1	
InChI=1S/C5H5FN2O/c6-4-1-3(7)2-5(9)8-4/h1-2H,(H3,7,8,9)	InChI=1S/C5H5FN2O/c6-4-1-3(7)2-5(9)8-4/h1-2H,(H3,7,8,9)
