18
gdb 76863	2.39621	1.88057	1.63102	4.2598	69.73	-0.2308	0.0521	0.2829	916.3515	0.149511	-439.005862	-438.998657	-438.997713	-439.037081	29.906	
O	 0.1208235305	 1.4202137593	-0.1875368175	-0.430465
C	 0.0220404042	 0.0379665478	-0.0218478943	 0.084983
C	 0.3161156997	-0.5905129244	 1.4119141327	 0.084991
O	 0.664657181	 0.258050503	 2.4637135695	-0.430467
C	-1.1052007692	-1.2437008619	 1.4036168808	-0.072714
C	-2.2728973441	-0.4064137198	 1.9667082174	-0.060428
N	-1.9758627784	 1.0331352481	 1.70879772	-0.378152
C	-2.5480785249	 0.1815771718	 0.6250762643	-0.060412
C	-1.3947677167	-0.624857584	-0.0082974582	-0.07271
H	-0.4445589775	 1.8106461056	 0.4931518054	 0.286256
H	 0.6661871751	-0.4117686525	-0.7830776667	 0.085965
H	 1.1038150952	-1.3471086957	 1.3506806826	 0.085968
H	-0.0315254209	 0.9280666445	 2.506622339	 0.286257
H	-1.1877248536	-2.3140714687	 1.5886069212	 0.070288
H	-2.94461005	-0.6662563099	 2.7754165345	 0.104125
H	-2.7398632015	 1.5779771162	 2.1042810554	 0.242105
H	-3.4806512123	 0.4791322005	 0.1619404755	 0.104124
H	-1.6890417165	-1.24263381	-0.8559294416	 0.070287
139.1814	227.9944	264.5436	274.478	398.151	414.7468	528.0915	598.4299	631.6587	664.93	669.0539	765.7438	778.9189	787.0372	808.4208	855.504	889.2498	926.9985	929.3437	993.1332	1024.1839	1036.0952	1085.3954	1097.7305	1124.9728	1130.5288	1171.4373	1192.8967	1195.1857	1241.5795	1252.1397	1258.868	1281.2876	1313.4227	1336.0856	1338.0719	1375.4698	1441.5693	1478.5361	3056.4128	3072.6976	3114.7098	3124.4916	3183.8403	3197.0713	3490.2355	3726.3902	3740.8901
OC1C(O)C2C3NC3C12	O[C@H]1[C@@H](O)[C@H]2[C@H]3N[C@H]3[C@@H]12	
InChI=1S/C6H9NO2/c8-5-1-2(6(5)9)4-3(1)7-4/h1-9H	InChI=1S/C6H9NO2/c8-5-1-2(6(5)9)4-3(1)7-4/h1-9H/t1-,2+,3-,4+,5+,6-
