17
gdb 99832	1.86493	1.5697	1.22908	2.6197	70.81	-0.241	0.0045	0.2455	1109.8397	0.134728	-455.132593	-455.122816	-455.121871	-455.166898	36.624	
N	 0.3350391811	 0.8211529034	 0.8548777416	-0.505088
C	-0.0071176363	 0.0675438087	-0.2106292845	 0.406555
O	 0.6286429715	 0.0041996698	-1.249751046	-0.392585
C	-1.3248375159	-0.7516931736	-0.0018518732	-0.078477
N	-2.2831896014	 0.1061166345	 0.7244977851	-0.556587
C	-1.8351720274	-1.1728381293	-1.4056669929	-0.096336
O	-2.0964082695	-0.0313193501	-2.1960822897	-0.432683
C	-1.0240658336	-1.9412936339	 0.7899633271	 0.370054
C	-0.8013544421	-2.9480698971	 1.4073633495	-0.470844
H	 1.1285295249	 1.4358451898	 0.778560426	 0.263068
H	-0.3549287905	 0.9598064047	 1.5772618561	 0.276953
H	-2.6918134568	 0.7379551451	 0.036595431	 0.245753
H	-3.038422323	-0.4706332031	 1.0839167699	 0.23892
H	-1.1045840828	-1.8395340399	-1.8753647814	 0.121129
H	-2.7792646251	-1.7127240181	-1.2849856746	 0.106157
H	-1.2261270514	 0.3054852295	-2.4485932242	 0.299953
H	-0.5919066617	-3.8312535005	 1.9592356802	 0.204058
65.6081	130.5961	141.6664	158.6562	240.798	286.5693	323.1534	357.7191	386.7506	431.9217	465.5686	498.8955	554.7862	581.4916	587.5229	635.8058	648.4054	661.3971	708.9734	781.2369	882.2827	945.9506	1005.8801	1072.1731	1095.4678	1130.5559	1144.7865	1256.7779	1304.5215	1361.3671	1392.0313	1425.1469	1485.6396	1593.2597	1646.5528	1785.8543	2234.6332	3044.7577	3099.9614	3463.7533	3499.8489	3557.2788	3578.8163	3719.7408	3764.1628
NC(=O)C(N)(CO)C#C	NC(=O)[C@@](N)(CO)C#C	
InChI=1S/C5H8N2O2/c1-2-5(7,3-8)4(6)9/h1,8H,3,7H2,(H2,6,9)	InChI=1S/C5H8N2O2/c1-2-5(7,3-8)4(6)9/h1,8H,3,7H2,(H2,6,9)/t5-/m0/s1
