12
gdb 123275	9.72857	0.68746	0.64208	2.9493	94.56	-0.2437	-0.0703	0.1735	1600.8293	0.077013	-398.289301	-398.281769	-398.280825	-398.321924	27.368	
C	 0.1231908975	-3.7442269297	-0.0198521025	-0.58641
C	 0.0667498151	-2.5373828006	-0.0124271995	 0.256404
C	 0.0052144095	-1.1826769216	-0.0041212691	 0.033994
C	-0.0560780671	 0.0288896588	 0.0033938099	 0.313563
C	-0.1269710174	 1.4279032575	 0.0120614042	 0.155694
C	-1.1813966589	 2.3010668408	 0.0311767222	-0.337118
C	-0.5586727923	 3.5713968726	 0.0297213773	 0.002816
N	 0.7504269045	 3.4807452264	 0.0114579183	-0.113796
O	 1.0359304148	 2.1288372307	 0.0001306407	-0.203199
H	 0.1736333578	-4.8051839149	-0.0263921688	 0.201908
H	-2.2304036203	 2.0604163522	 0.0440870695	 0.136544
H	-1.0179462932	 4.5496565179	 0.041338868	 0.139601
75.3382	85.1661	226.1689	229.4465	422.2011	438.3056	481.0843	535.1355	539.2714	602.1345	619.2099	640.3703	714.7924	825.7702	917.0351	927.0565	934.761	961.2666	1039.6243	1068.6331	1220.7232	1272.1919	1362.2926	1495.6615	1607.9402	2182.4752	2339.9267	3247.9966	3291.6443	3501.0033
C#CC#CC1=CC=NO1	C#CC#Cc1ccno1	
InChI=1S/C7H3NO/c1-2-3-4-7-5-6-8-9-7/h1,5-6H	InChI=1S/C7H3NO/c1-2-3-4-7-5-6-8-9-7/h1,5-6H
