16
gdb 22143	4.87518	0.56094	0.5495	3.5858	80.79	-0.2607	-0.0624	0.1982	1949.4315	0.12008	-437.824643	-437.814222	-437.813278	-437.86267	34.495	
C	 0.0620033253	 1.5279431915	-0.038174995	-0.484258
C	 0.0442533168	 0.0283605346	-0.095765071	 0.370439
C	 0.087714195	-0.7626097205	 1.1998842289	-0.419023
C	 1.2878304728	-0.521598299	 1.9911617311	 0.131745
C	 2.2805384388	-0.3248280322	 2.6509684365	-0.015032
C	 3.4762584279	-0.0725694061	 3.4130348551	 0.022949
O	 3.7740087806	-0.6495707123	 4.4335817281	-0.227275
N	-0.0324661949	-0.6871423278	-1.1505934517	-0.15575
O	-0.1164814283	 0.0805565159	-2.3166990598	-0.392392
H	 0.3747579309	 1.9500288094	-0.99281989	 0.159476
H	-0.9405353433	 1.911093786	 0.189984183	 0.143114
H	 0.7321307601	 1.8707096272	 0.7549215271	 0.13965
H	-0.7892266301	-0.509708513	 1.8140192144	 0.152113
H	 0.0081246448	-1.827775047	 0.9588520508	 0.164492
H	 4.1281906049	 0.7154413835	 2.9836650403	 0.099177
H	-0.1208146713	-0.5945757003	-3.0036067779	 0.310575
29.3114	47.4825	51.9214	71.5095	160.1215	178.9811	293.3278	309.5326	343.8668	388.89	404.2413	442.1174	519.4255	605.7459	667.5901	813.3088	837.115	896.1857	989.502	1021.9074	1044.5077	1056.3242	1151.56	1209.2013	1264.435	1320.5567	1400.0806	1402.6512	1423.0029	1440.6399	1479.677	1486.3907	1738.2969	1768.2473	2328.8766	2917.51	3007.5504	3036.8308	3080.2549	3100.7415	3159.6672	3819.9391
CC(CC#CC=O)=NO	CC(=NO)CC#CC=O	
InChI=1S/C6H7NO2/c1-6(7-9)4-2-3-5-8/h5,9H,4H2,1H3	InChI=1S/C6H7NO2/c1-6(7-9)4-2-3-5-8/h5,9H,4H2,1H3
