19
gdb 50090	2.42662	1.22183	0.89854	2.9966	77.37	-0.2409	-0.017	0.2239	1314.6385	0.157183	-422.992254	-422.983286	-422.982342	-423.026981	32.991	
O	-0.3051811192	 0.1801177572	 0.6019755521	-0.28274
C	-0.0779727	 1.3667098117	 0.5890218584	 0.172236
C	 1.2479797642	 1.9614714299	 0.3219471003	-0.13714
C	 1.2835185752	 3.3410399181	-0.3476029304	-0.341482
C	 1.6767429833	 3.2315165262	 1.0707522663	 0.130342
O	 0.8371033286	 3.8218167174	 2.0088649001	-0.246211
C	 1.1294212136	 3.466616131	 3.3344237689	 0.136568
C	 0.0205338903	 3.6158296561	 4.320889319	-0.29042
C	 0.5213767966	 2.2334506367	 3.9484954594	-0.294255
H	-0.8838631551	 2.1090166674	 0.7827522598	 0.077406
H	 2.0229388915	 1.2447279982	 0.0737379377	 0.107592
H	 2.0408261095	 3.5185095098	-1.1015997029	 0.132464
H	 0.3192650888	 3.7977056434	-0.5471117983	 0.138534
H	 2.7364231391	 3.2819640938	 1.3207167412	 0.102381
H	 2.1378372833	 3.7442983468	 3.6413381086	 0.091221
H	 0.2494702553	 4.0176971254	 5.3011756446	 0.118494
H	-0.941874055	 3.9135667404	 3.9205658976	 0.128944
H	-0.1232483454	 1.622395921	 3.3286068188	 0.137579
H	 1.1115085054	 1.6776435096	 4.6689156787	 0.118488
47.3713	69.2654	131.9337	169.5403	203.7793	296.906	377.8073	393.348	453.8104	479.348	582.0631	745.4037	772.003	811.342	822.9817	848.3694	865.7086	948.8758	972.2402	1011.0901	1031.9969	1051.3733	1060.3776	1070.5592	1079.1763	1122.5267	1128.1167	1171.1751	1180.3822	1191.1291	1202.6733	1229.9271	1251.6095	1337.314	1373.65	1425.8804	1440.7026	1456.745	1480.2599	1502.7984	1809.7541	2884.6453	3100.3205	3106.122	3139.1075	3141.7267	3145.7222	3179.9991	3225.6651	3231.1553	3239.5394
O=CC1CC1OC1CC1	O=C[C@H]1C[C@H]1OC1CC1	
InChI=1S/C7H10O2/c8-4-5-3-7(5)9-6-1-2-6/h4-7H,1-3H2	InChI=1S/C7H10O2/c8-4-5-3-7(5)9-6-1-2-6/h4-7H,1-3H2/t5-,7-/m1/s1
