18
gdb 77624	2.11333	1.47263	1.30464	4.8853	78.4	-0.2532	-0.0053	0.248	1111.5409	0.146321	-401.927253	-401.918279	-401.917335	-401.960678	33.114	
C	 0.0179564425	 1.5739638645	-0.0082749903	-0.426887
C	 0.0494714797	 0.0650076593	-0.0950352664	-0.12456
C	 0.6506819558	-0.749567935	-1.2231779967	 0.176297
C	-0.0725509633	-1.8389140552	-1.9569792777	-0.493327
C	 1.9562790899	-0.0967713979	-1.6788264802	-0.137994
O	 2.4630844607	-0.0305970118	-0.3163288794	-0.318585
C	 1.3121018952	-0.7296471473	 0.1603398179	 0.297627
C	 1.4691004118	-1.736745591	 1.1584873384	 0.224164
N	 1.5668739803	-2.5624690697	 1.963937287	-0.350246
H	 0.9970158574	 2.0029922044	-0.2312612092	 0.143605
H	-0.714907069	 1.9910094137	-0.7066362476	 0.123767
H	-0.2606188462	 1.891060951	 1.0012035307	 0.133373
H	-0.8271165403	-0.435941058	 0.3119611853	 0.110342
H	-0.6533716221	-1.4279711015	-2.7910884927	 0.132471
H	 0.6256260601	-2.5777037572	-2.3638876373	 0.133463
H	-0.7696950968	-2.3626649147	-1.2962876041	 0.138678
H	 2.580682879	-0.7650612001	-2.2816511039	 0.122706
H	 1.9005538456	 0.8900045766	-2.1500888939	 0.115106
109.4522	142.5655	167.2405	176.6848	215.406	254.2723	285.4129	323.1429	427.9033	506.8279	548.1549	564.919	607.7559	709.5091	761.0602	804.574	926.233	961.6563	985.0955	1002.3628	1043.0481	1097.145	1117.1386	1123.0289	1142.033	1162.0136	1224.5449	1273.6922	1301.3604	1348.4374	1410.6767	1418.7631	1470.8526	1484.4208	1491.4347	1495.7236	1506.429	1521.0563	2342.6754	3028.9092	3036.3526	3043.7709	3088.0385	3091.6857	3105.1951	3109.8399	3127.101	3141.7011
CC1C2(C)COC12C#N	C[C@H]1[C@@]2(C)CO[C@@]12C#N	
InChI=1S/C7H9NO/c1-5-6(2)4-9-7(5,6)3-8/h5H,4H2,1-2H3	InChI=1S/C7H9NO/c1-5-6(2)4-9-7(5,6)3-8/h5H,4H2,1-2H3/t5-,6+,7-/m0/s1
