20
gdb 63760	2.87291	1.37828	1.14731	4.1801	83.02	-0.2822	0.0303	0.3125	1140.6494	0.170754	-366.007774	-365.999044	-365.9981	-366.040584	34.06	
C	-0.241873343	 1.5825031642	 0.0284009694	-0.467138
C	-0.008692136	 0.0732502939	 0.0202503817	 0.312449
C	-1.3263857495	-0.6660607683	-0.2378167084	-0.428914
C	 1.1340212325	-0.5015829503	-0.901042689	-0.301233
C	 1.7223419736	-1.2325273485	 0.3124002361	-0.058061
C	 2.1775864268	-0.2422475563	 1.3625616414	-0.191076
C	 2.7995126602	 1.0147829866	 1.0378598226	 0.303311
N	 3.3284611965	 2.010831795	 0.7776504186	-0.359241
C	 0.701569574	-0.5748879884	 1.230016363	-0.091827
H	 0.6773872837	 2.1486392297	 0.1862025896	 0.151052
H	-0.6719648734	 1.9040091268	-0.9271517591	 0.114092
H	-0.9508590527	 1.8588776678	 0.8173383922	 0.11263
H	-1.7434750777	-0.380418283	-1.209451988	 0.117415
H	-1.1858640158	-1.7521941881	-0.2346474714	 0.112964
H	-2.0690179011	-0.4216778031	 0.5303175611	 0.114858
H	 0.7546777074	-1.1726448444	-1.6738759391	 0.107592
H	 1.7976906465	 0.2335292113	-1.3648383737	 0.121905
H	 2.1087079189	-2.2442345264	 0.323778283	 0.100979
H	 2.6286585434	-0.7109951617	 2.2332594104	 0.134256
H	 0.1884514257	-0.9915834267	 2.0905102797	 0.093988
121.2624	134.6125	204.9865	222.5739	267.669	289.394	345.9639	376.0203	407.6114	437.4801	572.6911	624.343	644.7121	747.2199	782.0931	832.3705	860.1329	915.0646	951.8954	964.8983	968.8922	993.632	1002.0382	1013.335	1046.215	1076.9169	1142.2632	1173.3295	1208.4309	1230.067	1244.6667	1278.1491	1302.2574	1344.6648	1403.9797	1408.3212	1424.5225	1484.4605	1487.7887	1492.4172	1503.8889	1513.23	2346.0422	3023.6372	3031.7628	3062.4803	3086.9702	3093.0028	3098.7931	3119.6795	3139.1787	3149.5255	3165.0378	3189.652
CC1(C)CC2C(C#N)C12	CC1(C)C[C@H]2[C@@H](C#N)[C@@H]12	
InChI=1S/C8H11N/c1-8(2)3-5-6(4-9)7(5)8/h5-7H,3H2,1-2H3	InChI=1S/C8H11N/c1-8(2)3-5-6(4-9)7(5)8/h5-7H,3H2,1-2H3/t5-,6+,7-/m0/s1
