21
gdb 60574	3.60599	0.94215	0.84421	3.0481	79.35	-0.2348	0.0584	0.2933	1438.8623	0.182556	-420.348221	-420.33848	-420.337536	-420.383307	35.791	
C	 0.0393963784	 1.4784382178	-0.3241084488	-0.402096
C	-0.0542589536	 0.030726428	 0.0999157606	-0.011072
N	 1.1894984222	-0.7554756563	 0.0886144842	-0.339058
C	 0.5015946066	-0.5290428451	 1.3681615206	-0.054665
C	 1.2470302847	 0.2886786903	 2.4058865313	 0.083818
O	 0.3340067787	 0.8723141915	 3.3322095551	-0.44463
C	 2.2040886429	-0.5885921541	 3.1917294797	 0.024688
C	 2.6253157439	-0.2280179044	 4.5632680363	-0.25106
N	 1.7114458346	-1.368837576	 4.3374830915	-0.331082
H	 0.9584832492	 1.9446297387	 0.0371128488	 0.133444
H	 0.0399105698	 1.553763804	-1.4165698967	 0.127147
H	-0.8163506725	 2.0546611068	 0.0466762218	 0.110723
H	-0.9499519697	-0.4750602374	-0.2606457042	 0.085932
H	 1.0242655243	-1.7003110345	-0.2455431405	 0.235751
H	-0.0450041279	-1.3660339257	 1.8020671374	 0.092266
H	 1.8347122091	 1.0644695978	 1.8936550595	 0.080943
H	-0.3573538221	 1.3105863062	 2.8273450165	 0.289079
H	 2.9002754479	-1.124720481	 2.5507708493	 0.099188
H	 3.618239375	-0.4972782806	 4.9122539251	 0.111271
H	 2.2097509377	 0.6768215361	 4.9949041242	 0.123464
H	 0.7668096509	-1.0477941021	 4.5436594682	 0.235947
54.5019	82.8747	123.9505	174.7164	201.88	239.6061	266.4573	281.0892	394.3041	399.2227	450.952	546.3637	646.5828	783.0106	790.0065	845.6616	861.1224	912.3369	945.6127	977.1204	990.2428	1001.864	1018.2965	1041.7533	1080.5748	1100.5418	1128.0776	1153.6017	1156.436	1193.129	1213.6127	1243.2408	1257.4101	1268.148	1289.3762	1307.9606	1327.073	1383.091	1402.0444	1422.2522	1442.3139	1471.0856	1490.4345	1503.2981	1505.1151	2998.6367	3033.4694	3092.3194	3099.3887	3114.7489	3116.2342	3131.3488	3137.9913	3207.4919	3484.9444	3514.196	3833.8122
CC1NC1C(O)C1CN1	C[C@H]1N[C@H]1[C@@H](O)[C@H]1CN1	
InChI=1S/C6H12N2O/c1-3-5(8-3)6(9)4-2-7-4/h3-9H,2H2,1H3	InChI=1S/C6H12N2O/c1-3-5(8-3)6(9)4-2-7-4/h3-9H,2H2,1H3/t3-,4-,5-,6+/m1/s1
