17
gdb 41462	3.34465	1.7302	1.34083	4.5112	72.75	-0.2249	0.0147	0.2396	956.9953	0.138597	-417.950485	-417.943642	-417.942697	-417.9816	27.384	
C	 0.1321144463	 1.5025974975	 0.3686640371	-0.176194
N	 1.4927505738	 1.5308711979	-0.2502886459	-0.358865
C	 1.3087109306	 0.1642030802	-0.8127629605	 0.192096
C	 2.0443106003	-0.3100092569	-2.0608287183	-0.370791
C	 3.1490564034	-1.2440367825	-1.4189085196	-0.156763
N	 2.5993858211	-1.7486946038	-0.1227556955	-0.328341
C	 1.6779820996	-0.9275131664	 0.1267508782	 0.473915
O	 0.559673819	-0.9003982897	 0.9171602551	-0.293974
C	-0.0731229689	 0.0391054145	-0.0383078034	-0.015853
H	 0.1292244637	 1.6842743771	 1.4466488191	 0.127304
H	-0.5885463081	 2.1715952225	-0.1153944253	 0.109578
H	 1.5450082106	 2.2205657111	-0.9918489879	 0.224649
H	 1.3931975033	-0.9026387079	-2.7097782237	 0.12508
H	 2.4603111256	 0.5083968754	-2.6549823496	 0.107311
H	 3.3733958263	-2.1012771346	-2.058785452	 0.116152
H	 4.0873771313	-0.7020231811	-1.2528596129	 0.119161
H	-1.035973118	-0.3450057733	-0.3716120951	 0.105535
124.5352	211.916	257.7833	295.1778	375.9801	467.7147	590.979	655.1927	702.7793	708.7655	770.8867	783.4861	850.6189	853.1799	892.4376	918.338	960.3162	990.9915	998.9999	1016.6244	1072.5808	1115.1936	1125.4073	1165.4274	1196.2282	1214.0531	1239.6535	1259.0059	1287.4773	1303.9155	1329.655	1347.9741	1401.2894	1469.7134	1491.0432	1502.7646	1783.9363	3036.1909	3041.4273	3059.8551	3093.1894	3099.8296	3111.5253	3131.8678	3531.3113
C1NC23CCN=C2OC13	C1N[C@@]23CC[N][C]2O[C@@H]13	
InChI=1S/C6H8N2O/c1-2-7-5-6(1)4(9-5)3-8-6/h4,8H,1-3H2	InChI=1S/C6H8N2O/c1-2-7-5-6(1)4(9-5)3-8-6/h4,8H,1-3H2/t4-,6+/m0/s1
