16
gdb 105147	2.41649	1.23035	0.96061	1.9383	79.9	-0.2462	0.007	0.2532	1238.0028	0.121365	-400.641902	-400.632473	-400.631529	-400.676253	34.779	
O	 0.1273290926	 1.3307483295	-0.4108751083	-0.413831
C	 0.0246071201	 0.1344989959	 0.3311085186	-0.120441
C	-1.3686905217	-0.4698910201	 0.2011880846	 0.070816
N	-1.6411269902	-0.965212316	-1.1683062241	-0.358813
C	-1.5486385058	-1.9487884528	-0.0695558667	-0.306323
C	-0.4551983586	-2.8804013678	-0.0791936807	 0.372511
C	 0.4364275031	-3.6865676159	-0.0607568208	-0.411552
C	-2.4309913801	 0.1989646311	 0.9048987046	 0.294751
C	-3.3182467267	 0.7622937022	 1.4895311325	-0.430549
H	-0.0727027696	 1.0977732127	-1.3254581757	 0.292797
H	 0.7607291036	-0.6133882473	 0.0094497869	 0.108716
H	 0.2252459058	 0.3906273066	 1.374934718	 0.119552
H	-2.6198736592	-0.8136975574	-1.4011542277	 0.248748
H	-2.4854913866	-2.359600282	 0.2991137601	 0.127121
H	 1.22950995	-4.3929989237	-0.0509805876	 0.204055
H	-4.0960785466	 1.2667986449	 2.0077068963	 0.202441
68.1372	107.8858	123.968	156.6691	222.1592	268.7567	329.2643	408.0891	437.3465	458.5628	532.3616	574.8832	610.5212	622.3948	645.7001	659.8133	663.855	717.8525	842.1521	890.9539	945.4061	975.5501	1048.5772	1076.8201	1089.8762	1192.4194	1209.5706	1292.6806	1325.5873	1385.9997	1418.4101	1435.545	1497.0177	2233.577	2241.2847	3025.7011	3100.9153	3138.1062	3500.9501	3501.8366	3505.2945	3790.6055
OCC1(NC1C#C)C#C	OC[C@]1(N[C@H]1C#C)C#C	
InChI=1S/C7H7NO/c1-3-6-7(4-2,5-9)8-6/h1-2,6,8-9H,5H2	InChI=1S/C7H7NO/c1-3-6-7(4-2,5-9)8-6/h1-2,6,8-9H,5H2/t6-,7+/m0/s1
