21
gdb 31027	2.47112	1.20033	0.8627	0.9805	88.09	-0.1829	0.054	0.2369	1416.1521	0.182606	-383.318716	-383.30836	-383.307416	-383.354861	37.26	
C	 0.0731673543	 1.565491379	 0.2560408793	-0.358292
C	-0.0101858412	 0.0815607949	-0.1428510253	-0.302338
C	-1.3973171411	-0.4857767392	-0.0631649166	 0.268884
C	-2.2107568198	-0.8107504293	-1.1309313035	 0.131798
N	-2.0554999941	-0.7498242173	-2.5385296605	-0.618646
N	-3.4015455359	-1.2838869032	-0.6227479482	-0.303493
C	-3.3763962276	-1.2731551644	 0.7497007203	 0.318288
C	-4.5328949242	-1.7389338983	 1.5712243919	-0.50198
C	-2.1445125255	-0.7794577892	 1.1192363558	-0.333751
H	 1.1021290218	 1.9361417142	 0.1951917331	 0.102713
H	-0.551398792	 2.1825079823	-0.3983539214	 0.108955
H	-0.2804211048	 1.7151832088	 1.2810441525	 0.118262
H	 0.368786018	-0.037731449	-1.1657411459	 0.077199
H	 0.6666833233	-0.496077312	 0.500128215	 0.099301
H	-1.7721691898	 0.174099207	-2.845889392	 0.241956
H	-1.3548509621	-1.4040057608	-2.8735471862	 0.240732
H	-4.1659814132	-1.57813161	-1.206654665	 0.251279
H	-4.7829048109	-2.7905690294	 1.3804418936	 0.122305
H	-4.2941842981	-1.6452337661	 2.6333179388	 0.133957
H	-5.4406607721	-1.1509770049	 1.3839267418	 0.122544
H	-1.808413145	-0.6494628231	 2.1383968222	 0.080328
37.4137	70.9545	108.4963	130.9439	192.2999	206.5774	262.7044	283.626	287.1072	397.6824	489.9117	500.4058	581.7099	639.3908	655.1356	694.5508	765.2145	790.8821	796.5275	814.99	969.6679	998.77	1023.9515	1049.9045	1061.5275	1081.9952	1168.4293	1180.9746	1205.1309	1238.2374	1284.4331	1337.4952	1356.7911	1406.2415	1417.5345	1434.9712	1478.6117	1480.4913	1482.6127	1495.8534	1503.7222	1506.5801	1548.7766	1634.8461	1664.593	3012.1421	3013.4618	3029.8009	3045.5832	3054.3045	3098.7969	3105.6373	3118.9406	3227.0026	3496.0169	3563.8784	3670.5958
CCC1=C(N)NC(C)=C1	CCc1c(N)[nH]c(C)c1	
InChI=1S/C7H12N2/c1-3-6-4-5(2)9-7(6)8/h4,9H,3,8H2,1-2H3	InChI=1S/C7H12N2/c1-3-6-4-5(2)9-7(6)8/h4,9H,3,8H2,1-2H3
