16
gdb 67986	3.27542	1.64057	1.2547	2.3447	68.32	-0.2345	-0.0227	0.2118	963.7457	0.125724	-437.841939	-437.835247	-437.834303	-437.872834	27.591	
O	 0.1169094304	 1.3531695094	 0.0915765272	-0.491806
C	 0.0725755618	-0.0207763205	 0.0772416442	 0.488187
C	 0.9526714991	-0.7415881192	 1.0801620051	-0.418671
C	 0.5879601303	-2.190071552	 0.7094200426	 0.412565
O	 0.9997326803	-3.2093821846	 1.1960812041	-0.319211
C	-0.4116417037	-2.0148474259	-0.4132170024	-0.153525
C	-1.3005031014	-0.7744686888	-0.0656526017	-0.107949
N	-1.3437068215	-0.2986149239	-1.4998220678	-0.36942
C	 0.0641563357	-0.805770798	-1.2856680479	-0.107947
H	-0.4961122562	 1.6415282069	-0.6015130316	 0.295396
H	 2.0202990293	-0.5462699648	 0.9399356987	 0.137182
H	 0.6995951479	-0.5159570856	 2.1206829449	 0.13718
H	-0.8538931231	-2.890066946	-0.8854511901	 0.090198
H	-2.1714490537	-0.7423353549	 0.5912126862	 0.094482
H	-1.8729951801	-0.958118459	-2.0749413841	 0.218856
H	 0.8144396499	-0.810826173	-2.078196033	 0.094483
126.8602	287.3188	304.9825	374.2916	402.588	519.8394	555.7596	592.5597	598.5757	667.5371	706.2803	717.9159	835.0748	840.7286	885.3389	898.7196	918.6365	997.9732	1024.2367	1028.6274	1103.3365	1123.7632	1131.2709	1140.1549	1148.8008	1181.8771	1203.7207	1230.934	1265.458	1279.2215	1301.0843	1363.236	1430.8313	1468.532	1863.431	3060.2794	3102.2052	3105.0356	3106.0701	3148.0323	3417.9325	3727.1899
OC12CC(=O)C3C1NC23	O[C@@]12CC(=O)[C@H]3[C@@H]1N[C@@H]23	
InChI=1S/C6H7NO2/c8-2-1-6(9)4-3(2)5(6)7-4/h3-5,7,9H,1H2	InChI=1S/C6H7NO2/c8-2-1-6(9)4-3(2)5(6)7-4/h3-5,7,9H,1H2/t3-,4-,5+,6-
