18
gdb 61503	3.71418	0.83447	0.76504	4.4037	76.81	-0.2412	0.017	0.2582	1492.1533	0.144499	-439.064024	-439.053601	-439.052656	-439.10041	36.245	
C	-0.0688644847	 1.4170729816	 0.0041635021	-0.353279
N	 0.0920359928	-0.0270012593	-0.0012032672	-0.0187
C	 0.0420046546	-0.7442642115	 1.2503989593	-0.200738
C	-1.4049217308	-0.9697424803	 1.7656517265	-0.051722
O	-2.1837656717	-1.6776982693	 0.8120017025	-0.406871
C	-1.3786170007	-1.6321644668	 3.0697148226	 0.290656
C	-1.3171272342	-2.2222502314	 4.1153708571	-0.438828
C	 0.1572721549	-0.6960009155	-1.1917076073	 0.163381
O	 0.1258931427	-0.1845154471	-2.2895932685	-0.34006
H	 0.6856502516	 1.883437736	 0.6478022586	 0.124251
H	 0.0544739538	 1.7661578418	-1.0209920836	 0.172092
H	-1.0627296642	 1.7155645218	 0.3592982899	 0.129142
H	 0.5149218368	-1.7239836381	 1.121710463	 0.121221
H	 0.6158198509	-0.2031256	 2.0116685042	 0.121642
H	-1.8960697661	 0.0055345841	 1.8648171573	 0.126357
H	-1.9628188106	-2.613113475	 0.8848041271	 0.289421
H	-1.2841863925	-2.7285605245	 5.0488605009	 0.207687
H	 0.2669027875	-1.7869146466	-1.0392093046	 0.064349
43.6319	64.8841	95.4623	125.2062	157.9745	228.8506	274.4218	295.5561	318.202	352.0053	412.9304	441.3539	512.9108	568.5948	646.3115	685.9335	712.8989	859.5953	885.455	957.2845	1021.6226	1042.4525	1084.7235	1097.4546	1157.1976	1199.9047	1271.8811	1289.2161	1322.1058	1380.5832	1418.399	1427.8957	1440.3366	1443.1917	1475.3644	1497.8688	1518.918	1800.5975	2232.4375	2944.0717	3019.3904	3035.2975	3045.1012	3072.5428	3087.1868	3157.3021	3501.0044	3804.3482
CN(CC(O)C#C)C=O	CN(C[C@@H](O)C#C)C=O	
InChI=1S/C6H9NO2/c1-3-6(9)4-7(2)5-8/h1,5-6,9H,4H2,2H3	InChI=1S/C6H9NO2/c1-3-6(9)4-7(2)5-8/h1,5-6,9H,4H2,2H3/t6-/m0/s1
