21
gdb 106525	3.02992	1.35889	1.17191	2.5127	78.09	-0.2428	0.0697	0.3125	1129.6983	0.184229	-424.208642	-424.200394	-424.19945	-424.241239	32.492	
O	-0.0432643026	 1.4240426523	-0.228154232	-0.422724
C	 0.0033923318	 0.0305711237	 0.0493545923	-0.181283
C	-1.4048740993	-0.5188833365	-0.0141359608	 0.321248
C	-2.1801748201	-0.5225014128	-1.3659767839	-0.246593
C	-2.884363956	-1.7937855671	-0.812904706	-0.043525
C	-1.5997462132	-2.0596918026	 0.0151468665	-0.277817
C	-4.0040911148	-1.3543719351	 0.1385403881	-0.066495
O	-3.7020421194	-0.1113951234	 0.7572558338	-0.26084
C	-2.3280285689	 0.0948089102	 1.0561791471	-0.107542
H	 0.8480319544	 1.7773057742	-0.1563990156	 0.289366
H	 0.6295253456	-0.5006914425	-0.6859382126	 0.082203
H	 0.4344343002	-0.1634368471	 1.0467838773	 0.083962
H	-2.7958758048	 0.3465402333	-1.6038207089	 0.110739
H	-1.517300357	-0.7543431696	-2.2037639242	 0.090622
H	-3.2322029403	-2.5651247604	-1.5040080444	 0.062489
H	-0.8334289488	-2.5821610055	-0.566203004	 0.089894
H	-1.7082327838	-2.5428313497	 0.9924881935	 0.087977
H	-4.942446471	-1.1927875528	-0.4039899222	 0.103688
H	-4.183151308	-2.1384355133	 0.8942355264	 0.083528
H	-2.0728695022	-0.3279580155	 2.0437139316	 0.078548
H	-2.1878704519	 1.1781600401	 1.099989298	 0.122557
95.4862	158.1254	204.6187	241.0435	279.1128	318.3138	405.4147	425.4768	437.6922	515.4586	608.2848	677.4172	825.8204	862.4216	876.917	890.6974	919.6771	933.1635	955.4875	1004.6444	1012.0168	1036.8974	1072.1513	1079.9203	1105.5633	1130.0937	1159.2113	1189.0382	1216.3456	1222.4052	1238.4277	1249.9889	1271.2043	1285.8242	1306.7953	1326.8936	1338.4518	1384.6003	1414.9801	1458.4008	1475.0134	1503.4745	1506.7346	1515.343	1518.7053	2946.2909	2952.5349	2958.838	2982.2432	3031.8088	3055.5338	3063.7721	3081.3505	3088.0543	3092.3963	3127.4453	3833.2197
OCC12CC(C1)COC2	OC[C@@]12C[C@@H](C1)COC2	
InChI=1S/C7H12O2/c8-4-7-1-6(2-7)3-9-5-7/h6,8H,1-5H2	InChI=1S/C7H12O2/c8-4-7-1-6(2-7)3-9-5-7/h6,8H,1-5H2/t6-,7+
