15
gdb 53085	3.87423	0.93956	0.7634	4.4752	82.12	-0.2454	-0.053	0.1924	1449.2846	0.111854	-420.657447	-420.648822	-420.647877	-420.692971	29.861	
C	-0.0727500434	 1.4714706607	 0.0278188983	-0.509751
C	 0.0093598775	 0.0209603447	 0.0141837905	 0.221922
C	 0.0719466778	-1.1834522587	 0.0019355423	-0.084181
C	 0.1043545486	-2.5923717077	-0.0191245386	 0.046596
C	 1.1356474676	-3.4363851874	 0.135047339	-0.242078
C	 0.6443849981	-4.8450017537	 0.0276701655	-0.121126
O	-0.7573273112	-4.7375129467	-0.2013593252	-0.225018
C	-1.1317748547	-3.4185157481	-0.2383601415	 0.366621
O	-2.2604111261	-3.0702288598	-0.4178684116	-0.332798
H	 0.5529354626	 1.9103694288	-0.7572955726	 0.155508
H	-1.102007078	 1.8075921049	-0.1355717621	 0.162615
H	 0.2652643751	 1.8776844261	 0.9876390912	 0.155508
H	 2.1707681303	-3.1775041151	 0.310519414	 0.128218
H	 1.1038083581	-5.3928843396	-0.8056787403	 0.138983
H	 0.8154440977	-5.4256779183	 0.943786721	 0.138983
13.8917	82.0077	99.2308	192.0119	276.2403	276.8807	373.3465	413.0102	462.9209	509.4939	601.2148	741.5964	790.1649	791.2816	838.9367	935.1537	960.4273	1024.0248	1048.646	1051.3508	1083.4747	1107.2736	1198.6624	1268.9728	1303.651	1370.0843	1411.9363	1472.6767	1474.0468	1492.5941	1681.3491	1879.4735	2360.8595	3017.4506	3028.466	3046.787	3088.6438	3096.3914	3233.6585
CC#CC1=CCOC1=O	CC#CC1=CCOC1=O	
InChI=1S/C7H6O2/c1-2-3-6-4-5-9-7(6)8/h4H,5H2,1H3	InChI=1S/C7H6O2/c1-2-3-6-4-5-9-7(6)8/h4H,5H2,1H3
