16
gdb 35204	3.68338	1.15522	1.06819	4.4386	74.23	-0.247	0.008	0.255	1137.5418	0.125306	-396.857546	-396.850044	-396.8491	-396.889797	28.669	
N	-0.0930196909	-1.1390029827	-0.0479348519	-0.332064
C	-0.0554246122	 0.016147061	-0.0110249579	 0.332864
C	 0.009958164	 1.4560235632	-0.0162219413	-0.289564
N	 0.584452739	 2.1007207907	 1.1912581368	-0.358189
C	 1.3246392428	 2.1710075603	-0.0488335686	 0.362801
C	 2.7674754008	 1.6835810298	-0.1852375729	-0.243301
N	 3.1609281085	 2.9692809061	-0.8789988185	-0.117978
C	 2.3466062359	 3.0278117134	-2.1024602657	-0.237632
C	 1.7047280747	 3.4070552864	-0.8238532526	-0.132124
H	-0.8266211575	 1.9392174414	-0.5143364064	 0.134619
H	 0.0872758674	 2.9686352398	 1.381854391	 0.247482
H	 3.2693737959	 1.6004015781	 0.7799318796	 0.139368
H	 2.9476852868	 0.7838288773	-0.7806345013	 0.128207
H	 2.641120635	 3.8311924922	-2.7707328341	 0.132267
H	 2.0599611289	 2.1019422357	-2.5971981365	 0.124735
H	 1.4140377511	 4.4235402174	-0.5750947096	 0.10851
92.7235	120.2621	190.958	296.6757	352.7058	414.9756	482.1218	488.8322	568.1969	627.7564	747.6728	784.017	812.7204	848.3312	919.8684	927.8538	959.9239	979.8214	1024.7937	1042.5259	1055.5555	1085.22	1116.5476	1122.639	1191.6886	1198.8148	1211.9832	1268.6465	1274.6788	1320.6283	1364.7043	1464.6856	1485.9597	1503.6802	2357.5895	3063.2911	3104.5892	3133.3536	3146.7455	3156.4851	3200.3682	3492.3309
N#CC1NC11CN2CC12	N#C[C@H]1N[C@]21CN1C[C@@H]21	
InChI=1S/C6H7N3/c7-1-4-6(8-4)3-9-2-5(6)9/h4-5,8H,2-3H2	InChI=1S/C6H7N3/c7-1-4-6(8-4)3-9-2-5(6)9/h4-5,8H,2-3H2/t4-,5+,6+,9?/m1/s1
