14
gdb 27368	2.05126	1.97822	1.01336	3.9983	68.54	-0.2506	-0.033	0.2177	1097.4116	0.101816	-470.058723	-470.051024	-470.05008	-470.091297	28.294	
C	-0.0200701636	 1.440698902	 0.1129271271	-0.471582
C	-0.0055065098	-0.0380660725	-0.0653420992	 0.396941
N	-0.0647926074	-0.636254046	-1.1756689367	-0.277727
C	-0.0407878194	-2.0500580464	-1.1972621335	 0.362055
N	-0.101343731	-2.6395794865	-2.3214231063	-0.49833
N	 0.0498598602	-2.7337213521	 0.0366348825	-0.425852
C	 0.1040440354	-2.0275944398	 1.0922781146	 0.489372
O	 0.1908053556	-2.5379613569	 2.3151648534	-0.378715
O	 0.0845810317	-0.6821575921	 1.1705435937	-0.221442
H	 0.8897873213	 1.7680075595	 0.6262419506	 0.156294
H	-0.089786478	 1.9189756205	-0.862511526	 0.167091
H	-0.8694106417	 1.7370989711	 0.7368134313	 0.156276
H	-0.0729511898	-3.6474865616	-2.1593985136	 0.222741
H	 0.2013001666	-3.5000407793	 2.2068056823	 0.322879
92.0088	138.7522	180.2091	215.0433	296.8662	374.6347	536.4111	555.5919	563.7206	573.1409	582.29	649.9364	736.5967	792.5081	914.354	920.2386	929.2083	961.5306	1064.496	1092.1748	1122.2071	1184.2879	1263.0487	1353.7648	1408.3055	1461.1159	1469.8372	1472.9949	1682.8577	1718.7863	1793.1482	3050.7659	3108.9085	3176.9686	3480.7038	3774.8381
CC1=NC(=N)N=C(O)O1	CC1=NC(=N[C@H](O)O1)[NH]	
InChI=1S/C4H5N3O2/c1-2-6-3(5)7-4(8)9-2/h1H3,(H2,5,7,8)	InChI=1S/C4H6N3O2/c1-2-6-3(5)7-4(8)9-2/h4-5,8H,1H3/t4-/m1/s1
