18
gdb 66515	4.21793	1.62246	1.4709	1.019	82.41	-0.1987	-0.0406	0.1581	938.7163	0.147697	-364.667148	-364.660172	-364.659228	-364.697866	29.114	
C	 0.1267219033	 1.5152321664	-0.0563228536	-0.531405
C	 0.0126001385	 0.0305016255	 0.0578040708	 0.330892
C	 0.3661268606	-1.0941714635	-0.8679767972	-0.073955
C	 0.8519245352	-1.0259609322	 0.7146710528	-0.192263
C	-0.3108895939	-1.8361178596	 1.2107493166	 0.053701
C	-0.534884678	-3.1258102416	 0.8882195585	-0.134788
C	-1.2550641112	-3.0713109015	-0.4656233062	-0.197037
N	-1.0076541472	-1.6508242475	-0.9373588665	-0.114587
C	-1.2052977678	-0.8987462588	 0.3380321372	-0.118345
H	 1.1433701733	 1.8090878639	-0.3384085092	 0.123793
H	-0.5583387478	 1.9057943288	-0.8166489953	 0.130381
H	-0.1073576304	 2.0050392946	 0.8954958503	 0.125293
H	 1.0923002239	-1.1657451529	-1.6686766773	 0.095443
H	 1.9127443432	-1.038469785	 0.9338973523	 0.093413
H	 0.1598894988	-3.9291391634	 1.1146972353	 0.097397
H	-0.8270589872	-3.8209588337	-1.1401898636	 0.115896
H	-2.3437388261	-3.2047755883	-0.4704555447	 0.118701
H	-2.2123054373	-0.6006850713	 0.6302028998	 0.077468
211.3372	215.0344	226.9027	312.6519	389.1672	464.8625	546.2326	555.4838	658.159	678.4457	769.023	781.0691	819.1189	842.416	858.9629	883.7114	895.2711	923.1506	939.9333	977.748	989.3068	1012.3144	1052.497	1074.8795	1141.0267	1147.2606	1167.6349	1172.8494	1197.8249	1226.9543	1240.6382	1273.5966	1292.3912	1411.7031	1463.3433	1473.7456	1487.7604	1495.0988	1574.9065	3026.8108	3028.2023	3079.3279	3091.4722	3096.4185	3116.4245	3165.1193	3187.9667	3195.4107
CC12C3C1C1=CCN3C21	C[C@@]12[C@H]3[C@@H]1[C]1[CH]CN3[C@H]21	
InChI=1S/C8H9N/c1-8-5-4-2-3-9(6(4)8)7(5)8/h2,5-7H,3H2,1H3	InChI=1S/C8H9N/c1-8-5-4-2-3-9(6(4)8)7(5)8/h2,5-7H,3H2,1H3/t5-,6-,7+,8+/m0/s1
