21
gdb 53285	2.46456	0.90025	0.769	2.0553	88.63	-0.244	0.0295	0.2735	1619.9787	0.179134	-387.056457	-387.045605	-387.04466	-387.093828	38.025	
C	 0.2055233982	 1.4740279918	-0.8522617595	-0.501445
C	 0.1058919769	 0.0624410991	-0.5139932492	 0.102792
C	 0.0231179479	-1.1038425443	-0.2227446628	 0.088588
C	-0.0360057785	-2.5062261465	 0.0894937857	-0.175075
O	-0.228712935	-2.8828491481	 1.4686229889	-0.256239
C	-1.2742316149	-3.1779458262	 0.5463394496	 0.091572
C	-2.5934967056	-2.4602537415	 0.7277376422	-0.007616
C	-3.4458340201	-2.595861503	-0.5417293224	-0.395266
C	-3.3206082583	-2.9983222327	 1.968331802	-0.390999
H	 1.1871300226	 1.7124611202	-1.2760233105	 0.152424
H	-0.55437074	 1.7637164245	-1.586371506	 0.150656
H	 0.0657236275	 2.1006142725	 0.0353926617	 0.155194
H	 0.7037855403	-3.1202594196	-0.4248642491	 0.108159
H	-1.3616859151	-4.2423234046	 0.307416957	 0.085585
H	-2.3662042051	-1.4004289556	 0.8879767866	 0.090322
H	-3.6647752329	-3.6478568415	-0.760507728	 0.112285
H	-4.4026963969	-2.0782624997	-0.4225096184	 0.115018
H	-2.9355245751	-2.1692584	-1.4108205498	 0.121756
H	-4.2562314833	-2.4557119131	 2.1372410392	 0.110833
H	-3.5684135054	-4.0602144481	 1.8514076602	 0.110003
H	-2.6969343973	-2.8929421936	 2.8606178726	 0.131452
31.0703	53.3155	72.0288	127.3369	185.2773	223.8737	229.6902	251.0544	323.3118	329.3996	349.696	429.5215	473.6488	531.2711	589.0246	735.8432	825.98	862.7787	900.7515	932.3294	953.487	974.4867	1050.1637	1052.9298	1062.6803	1105.8286	1140.7226	1183.6603	1191.5255	1207.9502	1286.3071	1314.9386	1345.9127	1392.2969	1398.3773	1413.6463	1419.1335	1462.3636	1475.8123	1477.624	1489.0959	1492.3113	1504.594	1514.3093	2367.845	3027.0277	3028.5289	3030.019	3047.5269	3063.9641	3089.7371	3091.9366	3091.9925	3099.1502	3103.5506	3108.201	3113.8722
CC#CC1OC1C(C)C	CC#C[C@H]1O[C@H]1C(C)C	
InChI=1S/C8H12O/c1-4-5-7-8(9-7)6(2)3/h6-8H,1-3H3	InChI=1S/C8H12O/c1-4-5-7-8(9-7)6(2)3/h6-8H,1-3H3/t7-,8+/m1/s1
