15
gdb 28527	3.18315	1.44451	0.99516	0.6529	75.6	-0.1846	-0.0167	0.1678	1114.8973	0.115059	-450.196876	-450.189003	-450.188059	-450.228688	31.273	
N	 0.0087083288	 1.3727856967	-0.095917386	-0.574853
C	-0.0082767839	-0.0162764661	-0.0358917705	 0.339032
C	-1.1908940187	-0.7518954358	-0.0929403624	-0.11617
N	-1.1637713187	-2.0950087478	-0.0989121327	-0.321857
C	 0.0017314329	-2.6852057892	-0.0436568272	 0.355817
O	 0.0847142866	-4.0466029179	-0.0555002126	-0.444164
C	 1.2108233953	-1.9509829684	 0.0227887592	 0.300792
N	 2.415130662	-2.6038278567	 0.136296355	-0.568756
N	 1.1881482018	-0.6257230784	 0.0218862166	-0.379222
H	 0.8676840018	 1.7687447835	 0.2583093976	 0.249912
H	-0.8128110699	 1.8300482003	 0.2703765408	 0.247973
H	-2.1626103457	-0.2714211634	-0.1441627734	 0.094132
H	-0.8231350714	-4.3706903503	-0.1208667149	 0.296037
H	 2.4305781873	-3.5618501485	-0.1753174529	 0.266323
H	 3.2244072117	-2.0503562879	-0.0993438965	 0.255004
129.514	235.0229	292.5784	314.8976	343.5861	384.5156	430.946	434.9776	477.4851	510.8509	520.4283	537.7642	595.3764	611.4666	700.3553	747.2604	801.2847	809.9969	847.698	1004.2663	1071.6845	1152.6494	1168.7957	1279.2108	1313.6764	1342.4476	1410.9677	1502.244	1516.2985	1605.1966	1630.0161	1638.4118	1657.5089	3172.8744	3566.4507	3583.9847	3674.1021	3705.3454	3782.8644
NC1=CN=C(O)C(N)=N1	Nc1cnc(O)c(N)n1	
InChI=1S/C4H6N4O/c5-2-1-7-4(9)3(6)8-2/h1H,(H,7,9)(H4,5,6,8)	InChI=1S/C4H6N4O/c5-2-1-7-4(9)3(6)8-2/h1H,(H,7,9)(H4,5,6,8)
