15
gdb 33640	3.41916	1.5312	1.43998	1.8393	76.2	-0.2506	-0.0217	0.2289	939.4621	0.113637	-379.591202	-379.584483	-379.583539	-379.622125	27.171	
C	-0.0369282284	-1.2056730372	-0.0091009318	-0.328982
C	-0.0433858897	-0.0029589419	 0.0000271054	 0.033809
C	 0.0086273135	 1.4149925059	 0.0319289005	 0.284135
C	-0.7210835102	 2.4536966913	 0.8206529307	-0.098418
C	 0.5740114276	 3.2042180645	 1.1253270395	-0.238168
C	 1.2487272476	 2.3866979221	-0.0293577765	-0.092147
N	 1.0687534025	 3.185626296	-1.2480474515	-0.182688
C	-0.1799917178	 3.136568145	-1.4816504438	 0.031463
N	-0.9831970964	 2.2776030884	-0.6567141716	-0.189854
H	-0.0426537057	-2.2675726553	-0.0233011475	 0.188471
H	-1.593364589	 2.3537274751	 1.4541917471	 0.122392
H	 0.6008647474	 4.2922958484	 1.0286830365	 0.115268
H	 0.9505673565	 2.897616023	 2.1038330504	 0.123463
H	 2.2579153948	 2.007930297	 0.105679043	 0.097069
H	-0.6770479426	 3.6968467075	-2.2664652704	 0.134186
133.9541	158.4358	371.8017	388.112	465.0323	491.972	550.6734	586.863	613.3536	668.8741	706.8715	735.5187	817.2653	860.6458	894.3997	899.7613	928.9211	963.7075	981.7615	993.6251	1048.4291	1080.2901	1111.421	1138.7469	1167.2713	1239.3429	1252.997	1289.327	1311.9371	1387.4615	1482.9818	1663.0766	2239.28	3065.6867	3126.354	3161.6705	3199.854	3202.392	3500.63
C#CC12C3CC1N=CN23	C#C[C@@]12[C@H]3C[C@@H]1[N][CH]N23	
InChI=1S/C7H6N2/c1-2-7-5-3-6(7)9(7)4-8-5/h1,4-6H,3H2	InChI=1S/C7H6N2/c1-2-7-5-3-6(7)9(7)4-8-5/h1,4-6H,3H2/t5-,6+,7-,9?/m0/s1
