17
gdb 89949	3.37937	1.33774	1.14378	2.0475	72.99	-0.2591	0.0048	0.264	1071.0027	0.137627	-417.975668	-417.967931	-417.966986	-418.007849	30.174	
O	 0.2204687497	 1.3110899488	-0.2751148344	-0.426773
C	 0.0428419506	-0.0538279031	-0.0104810861	 0.123703
C	 0.1910111015	-0.4818806126	 1.4855902342	-0.299122
C	-1.3423929308	-0.6416065075	 1.5559665099	 0.232465
N	-2.0372172309	 0.68737897	 1.5793630003	-0.378524
C	-2.5053214365	 0.5163289635	 0.172734922	-0.18778
C	-1.4478902238	-0.5783927793	-0.0103300505	-0.109696
C	-1.9374867945	-1.6818532745	 2.3677866393	 0.175266
N	-2.4213600163	-2.5033461605	 3.0236601956	-0.338402
H	-0.2514480601	 1.7937833554	 0.4168547998	 0.293627
H	 0.6925335587	-0.5895029822	-0.7046691533	 0.101011
H	 0.710304039	-1.4375402079	 1.5968140926	 0.123282
H	 0.6249928287	 0.2569067469	 2.1628170086	 0.117569
H	-2.7610211301	 0.780210267	 2.2831665315	 0.239605
H	-3.5247662992	 0.1220625359	 0.085952693	 0.116004
H	-2.4062868829	 1.4143966815	-0.4434541305	 0.120204
H	-1.6650163532	-1.4461306416	-0.6287730722	 0.097562
103.4249	137.9181	194.4855	273.5908	346.9008	412.658	444.5571	537.8446	557.5029	562.1134	603.9934	647.5759	727.7184	787.2299	833.7233	922.8273	945.3853	986.1723	1001.8458	1010.263	1040.1771	1089.2593	1113.2306	1127.828	1164.2969	1188.5127	1199.7066	1232.2534	1269.1762	1279.1609	1314.5716	1344.3435	1383.3048	1450.8986	1462.9929	1514.8519	2341.5137	3029.6161	3064.1513	3091.1881	3098.1177	3129.4623	3145.317	3544.0073	3755.657
OC1CC2(NCC12)C#N	O[C@H]1C[C@]2(NC[C@@H]12)C#N	
InChI=1S/C6H8N2O/c7-3-6-1-5(9)4(6)2-8-6/h4-5,8-9H,1-2H2	InChI=1S/C6H8N2O/c7-3-6-1-5(9)4(6)2-8-6/h4-5,8-9H,1-2H2/t4-,5-,6-/m0/s1
