15
gdb 128281	2.83601	1.55214	1.00945	3.2763	74.55	-0.234	-0.0557	0.1783	1114.1558	0.113721	-450.119601	-450.111381	-450.110437	-450.153666	29.18	
C	 0.0214326641	 1.4174295823	 0.0923973808	-0.322397
N	 0.110210951	-0.0236711678	-0.030231201	-0.322676
C	 0.6289264739	-0.6348938328	-1.0955817238	 0.379531
N	 1.0960647704	 0.0257859655	-2.1209332254	-0.376198
C	 1.5875081595	-0.7557250823	-3.1315245723	 0.104074
N	 1.6656863869	-2.039353849	-3.2322257016	-0.118825
O	 1.1569901083	-2.7521020947	-2.1087035384	-0.271969
C	 0.6376299435	-2.1175559063	-1.0352256915	 0.387285
N	 0.1759321068	-2.7216817188	-0.016844109	-0.555143
H	 1.0169995376	 1.8730807351	 0.1090717688	 0.149652
H	-0.5268554997	 1.8429686828	-0.753312583	 0.153871
H	-0.4997310904	 1.6582965676	 1.0196077052	 0.136464
H	-0.2113293338	-0.6410046495	 0.7022298964	 0.281032
H	 1.9815802331	-0.2341127335	-3.9997702289	 0.138425
H	 0.2479847488	-3.7345758785	-0.1151423563	 0.236875
29.8698	101.7973	145.184	199.0231	219.1076	360.7767	469.9402	524.6891	548.6516	580.3061	583.5431	588.6252	774.8983	806.7712	863.1865	885.9024	956.3573	961.9313	1053.2598	1117.5349	1136.0727	1156.5448	1228.9615	1292.5533	1354.7973	1391.1842	1456.5589	1476.0823	1508.5737	1571.0904	1623.1334	1663.6354	1722.4818	3041.8747	3099.5134	3147.9622	3178.0139	3492.6251	3604.886
CNC1=NC=NOC1=N	CNC1=C(ON=C[N]1)[NH]	
InChI=1S/C4H6N4O/c1-6-4-3(5)9-8-2-7-4/h2,5H,1H3,(H,6,7,8)	InChI=1S/C4H6N4O/c1-6-4-3(5)9-8-2-7-4/h2,5H,1H3,(H,6,7,8)
