16
gdb 15042	3.58077	1.57176	1.16197	2.1825	70.78	-0.2366	-0.0728	0.1638	1022.2208	0.128465	-379.890486	-379.881971	-379.881027	-379.924208	29.392	
C	 0.1219801751	 1.231409764	-0.2898890634	-0.310602
N	 0.0017097107	-0.1871512573	 0.0018986683	-0.264385
C	 0.4038256353	-0.6909483146	 1.0967714744	 0.238789
C	 1.0887803113	 0.0105969875	 2.2447127506	 0.113028
O	 1.4694258539	 1.154228635	 2.2200612708	-0.245953
N	 0.1660214048	-2.0433610115	 1.4067585361	-0.098572
C	 0.0654787093	-3.0139680209	 0.338755982	-0.20984
C	 1.2439949514	-3.0293536113	 1.256919967	-0.2368
H	 1.1623884287	 1.5011867958	-0.5079719564	 0.135278
H	-0.4806780185	 1.4518836493	-1.1750475094	 0.117437
H	-0.2012435506	 1.8726280454	 0.5365077611	 0.137144
H	 1.2220551623	-0.6322131912	 3.1411825587	 0.096483
H	-0.7160203895	-3.7581142985	 0.458585719	 0.127782
H	 0.2065863818	-2.6383701769	-0.6702441464	 0.142083
H	 2.1923017791	-2.6816820791	 0.8537535802	 0.1295
H	 1.318541235	-3.7676928055	 2.0494635574	 0.128629
50.2213	95.9963	141.6393	182.0119	214.5293	244.3451	318.4867	404.4041	472.5962	553.9568	596.6509	815.0274	851.2499	891.7195	928.9382	1016.8128	1033.0008	1070.6726	1100.8425	1115.4733	1133.1335	1141.3692	1167.5066	1182.9509	1196.7666	1357.8548	1422.307	1431.7208	1474.969	1491.1971	1498.5087	1517.2253	1696.9779	1817.5059	2906.9685	3022.1122	3081.6891	3104.3846	3108.6671	3123.1504	3198.1774	3215.8958
CN=C(C=O)N1CC1	CN=C(C=O)N1CC1	
InChI=1S/C5H8N2O/c1-6-5(4-8)7-2-3-7/h4H,2-3H2,1H3	InChI=1S/C5H8N2O/c1-6-5(4-8)7-2-3-7/h4H,2-3H2,1H3
