23
gdb 108501	2.54523	1.46466	1.19359	1.2482	84.48	-0.2398	0.0782	0.318	1179.9822	0.206997	-388.300853	-388.292096	-388.291151	-388.334161	34.338	
C	 0.0876296619	 1.5327697781	 0.2148229088	-0.384519
C	 0.0461797559	 0.0016122717	 0.1773717537	-0.249875
C	-1.3385996205	-0.5567687241	-0.1037364607	 0.453962
C	-2.4097728374	-0.4167549347	 1.0285566417	-0.279235
C	-2.5910243541	-1.9607789337	 1.0508526626	-0.23083
C	-1.5527090078	-2.1114524067	-0.0985972191	-0.081086
C	-2.1107803322	-2.4119695771	-1.494333051	-0.233208
C	-2.6583211619	-1.0446128	-1.935523367	-0.092822
O	-1.7703476692	-0.0857839966	-1.3774407937	-0.300339
H	 1.1018642093	 1.8928308497	 0.4124137055	 0.106699
H	-0.2459621492	 1.9486218994	-0.7391251147	 0.13574
H	-0.5652530992	 1.9295674849	 0.9998815341	 0.11315
H	 0.7282870836	-0.3701898005	-0.5975034577	 0.095558
H	 0.3971908188	-0.4084856175	 1.1325155492	 0.089535
H	-2.0296156145	 0.0151335248	 1.9579253631	 0.096672
H	-3.2898409818	 0.1525463353	 0.7202302957	 0.104393
H	-2.2863143476	-2.4351319342	 1.9864663104	 0.099891
H	-3.5967381508	-2.3148338417	 0.8058146172	 0.094586
H	-0.678097493	-2.7177015914	 0.1454953933	 0.0645
H	-1.3043842748	-2.7238407358	-2.1657771647	 0.104222
H	-2.8757897218	-3.1941924154	-1.496013382	 0.098063
H	-2.6722904054	-0.8993719293	-3.0190887262	 0.106384
H	-3.683756608	-0.8947009052	-1.5604700384	 0.088561
83.676	115.1658	173.8023	204.9574	227.5346	305.8347	347.171	413.2307	429.1994	599.7161	620.6129	655.048	740.7084	783.5735	809.8588	837.1983	888.777	912.5002	948.9657	956.0511	970.9547	985.7335	1004.2418	1021.2005	1055.8469	1079.8655	1128.8206	1140.9828	1158.3111	1184.1759	1223.2898	1227.698	1237.4375	1252.4766	1270.2003	1304.5417	1311.3121	1320.2134	1337.9935	1376.8092	1387.3592	1409.8243	1469.0282	1477.2626	1484.1168	1491.4238	1497.0873	1509.235	1518.8149	2972.7842	3022.1438	3039.3176	3047.4958	3052.2613	3058.5119	3062.118	3082.9652	3087.4751	3097.2348	3101.403	3102.5475	3119.8924	3125.2142
CCC12CCC1CCO2	CC[C@]12CC[C@H]1CCO2	
InChI=1S/C8H14O/c1-2-8-5-3-7(8)4-6-9-8/h7H,2-6H2,1H3	InChI=1S/C8H14O/c1-2-8-5-3-7(8)4-6-9-8/h7H,2-6H2,1H3/t7-,8-/m0/s1
