12
gdb 9043	5.38949	0.85069	0.76977	1.4509	63.38	-0.2786	-0.0799	0.1987	1360.2858	0.080229	-418.447888	-418.439427	-418.438483	-418.482299	27.653	
O	 0.0078015331	 1.5266329505	 0.0454471208	-0.4041
C	 0.0242131549	 0.1301563999	 0.0685117357	-0.119136
C	 0.6927854535	-0.4243755339	-1.2029693066	 0.14169
O	 1.1248632535	 0.32402538	-2.0383950451	-0.238678
C	 0.7130169418	-0.43151182	 1.2312329875	 0.149968
C	 1.2889385653	-0.9291841375	 2.1690172389	-0.020217
C	 1.9786331392	-1.4814006053	 3.3090355144	 0.026975
O	 2.1413709156	-2.6645829835	 3.495733856	-0.223917
H	 0.5053599376	 1.777903716	-0.7504384178	 0.303105
H	-1.0080784933	-0.2656095949	 0.067223954	 0.141578
H	 0.7475816974	-1.5248693012	-1.2881513513	 0.131656
H	 2.3583781212	-0.7195773101	 4.0185389536	 0.111075
51.87	74.0355	92.1418	174.7531	214.5856	289.2549	318.1381	421.3421	462.4397	527.5367	630.7441	723.4009	809.0404	878.7529	1011.4099	1020.3717	1119.0246	1159.5282	1226.7311	1323.9776	1385.1888	1419.3555	1427.2599	1769.5318	1826.4534	2320.7162	2932.1291	2947.2639	2980.7808	3678.5239
OC(C=O)C#CC=O	O[C@@H](C=O)C#CC=O	
InChI=1S/C5H4O3/c6-3-1-2-5(8)4-7/h3-5,8H	InChI=1S/C5H4O3/c6-3-1-2-5(8)4-7/h3-5,8H/t5-/m1/s1
