21
gdb 104256	2.16589	1.29466	1.08146	1.7879	84.66	-0.2519	0.0491	0.301	1260.9637	0.179837	-387.053308	-387.043262	-387.042317	-387.08785	38.041	
C	 0.1895095558	 1.5826239011	 0.1527426791	-0.416468
C	 0.3497082361	 0.0589020924	 0.1031201351	-0.214267
C	 0.7003857222	-0.4812445101	-1.2855103382	 0.396464
O	-0.2936559417	-0.1731718406	-2.2417600403	-0.483911
C	 2.1814443716	-0.2253661009	-1.715803138	-0.287976
C	 2.5336799989	-1.6705727928	-1.2831299262	-0.238676
C	 1.0117645895	-2.0179786586	-1.31481179	-0.190939
C	 0.4601334229	-2.8947032399	-0.304207885	 0.315854
C	 0.0173660278	-3.6155864067	 0.5514314711	-0.464151
H	 1.09111074	 2.1014743966	-0.1909451871	 0.120663
H	-0.6524414325	 1.9248597054	-0.4607084071	 0.111323
H	-0.0128912508	 1.9161361276	 1.1744881065	 0.123484
H	 1.1285742256	-0.2502741189	 0.8096918737	 0.102822
H	-0.5758679603	-0.424779405	 0.4332519485	 0.116455
H	-0.4469887725	 0.7774208414	-2.2273651737	 0.277142
H	 2.2386562984	-0.0943378592	-2.7990603691	 0.107457
H	 2.717312111	 0.5909385309	-1.226000974	 0.095865
H	 3.1762659154	-2.2553851817	-1.9428784573	 0.108454
H	 2.9335119267	-1.7206349462	-0.2681785669	 0.113902
H	 0.7360350308	-2.3726297253	-2.3131067946	 0.11462
H	-0.3781305749	-4.2582451293	 1.2982527435	 0.191883
94.3179	103.257	121.9474	187.6484	210.9697	234.2856	259.6987	324.8113	349.0361	394.0307	443.2397	512.0108	583.2163	610.9025	626.0506	635.6726	708.6268	782.7917	795.6699	871.8557	929.0469	953.4108	970.1368	1007.5948	1028.2273	1066.7689	1084.9144	1108.4081	1162.5545	1186.8165	1212.3711	1243.7663	1262.0379	1275.5742	1310.3189	1328.2904	1355.5538	1386.5052	1411.9207	1472.5659	1481.4007	1499.2962	1501.406	1510.0217	2230.0727	3026.4815	3040.6599	3058.9658	3065.2857	3073.3157	3076.6858	3095.1138	3107.4226	3116.8281	3135.1909	3503.9928	3810.4874
CCC1(O)CCC1C#C	CC[C@@]1(O)CC[C@H]1C#C	
InChI=1S/C8H12O/c1-3-7-5-6-8(7,9)4-2/h1,7,9H,4-6H2,2H3	InChI=1S/C8H12O/c1-3-7-5-6-8(7,9)4-2/h1,7,9H,4-6H2,2H3/t7-,8-/m1/s1
