17
gdb 125160	3.24955	1.63241	1.22559	2.8666	79.45	-0.2255	0.003	0.2285	1027.8709	0.137874	-380.825592	-380.818282	-380.817338	-380.857703	28.031	
C	 0.0257659276	 1.5134974358	-0.0390350861	-0.506165
C	 0.011296501	 0.0171768521	-0.0616599559	 0.08349
C	-0.2260134995	-0.8618849829	-1.0985549656	 0.192805
C	 0.0483736116	-1.3682801255	-2.5022329001	-0.206826
C	 1.404645365	-2.0649638728	-2.4652157387	-0.269693
C	 0.2065589706	-2.7501082953	-1.8640252802	-0.003138
N	-0.1609618545	-2.1252729389	-0.5851333195	 0.051039
N	 0.216546972	-2.1702783347	 0.7116292737	-0.278818
C	 0.2277669294	-0.8755280357	 1.0396099579	-0.058171
H	 0.7614302031	 1.8890817918	 0.6791103791	 0.128339
H	 0.2783060099	 1.9237713073	-1.0214188896	 0.124399
H	-0.9470890627	 1.9316180034	 0.2470009029	 0.132872
H	-0.4644655105	-1.1163763154	-3.4193046632	 0.113788
H	 1.7539491481	-2.4777797868	-3.4086542469	 0.124211
H	 2.1858394937	-1.6827581045	-1.8163785564	 0.140492
H	-0.1873171369	-3.711262828	-2.1645943103	 0.123891
H	 0.3797632121	-0.59292639	 2.073838569	 0.107485
67.6548	136.8483	205.1828	259.2207	350.1231	491.8833	507.7292	623.1309	658.9879	707.9441	720.2317	798.621	820.9262	869.0523	885.4032	929.7409	982.2787	995.267	1000.2267	1046.6416	1062.3011	1087.2207	1098.8072	1140.8412	1177.5861	1215.7713	1248.9652	1282.6635	1297.7829	1343.734	1394.1853	1409.8356	1422.3144	1475.4892	1485.6939	1499.1493	1623.4791	3026.5483	3080.6291	3107.1744	3118.7004	3209.1721	3212.7397	3217.575	3224.1169
CC1=C2C3CC3N2N=C1	Cc1c2[C@H]3C[C@H]3n2nc1	
InChI=1S/C7H8N2/c1-4-3-8-9-6-2-5(6)7(4)9/h3,5-6H,2H2,1H3	InChI=1S/C7H8N2/c1-4-3-8-9-6-2-5(6)7(4)9/h3,5-6H,2H2,1H3/t5-,6+/m0/s1
