18
gdb 23548	2.07692	1.56394	0.98266	2.4416	77.28	-0.2143	0.0052	0.2195	1213.1531	0.14728	-435.152225	-435.143366	-435.142421	-435.186032	32.939	
C	 0.5841348137	 1.0920657737	 0.665635916	-0.316418
N	-0.2816237784	 0.3593247391	-0.2501845315	-0.270689
C	 0.4213123552	-0.2602611204	-1.3394621453	-0.072051
C	 1.2748494643	-1.5501665853	-1.0936514375	-0.063387
N	 0.3267560548	-2.537934758	-0.5485611068	-0.342663
C	 0.4140734674	-2.3372350517	-2.0346242742	-0.163639
C	-0.3924589647	-1.1215225242	-2.3281708419	 0.455596
N	-1.2649904874	-0.930445349	-3.2251421497	-0.269059
O	-1.7027349565	 0.4016883443	-3.249216117	-0.382109
H	 1.3948503733	 0.4901412337	 1.1127976059	 0.094579
H	 1.0472832764	 1.9320473806	 0.135121686	 0.120834
H	-0.0175688555	 1.5053658861	 1.4800217983	 0.121538
H	-0.790348568	-0.3628777415	 0.2505829646	 0.23302
H	 0.9910453886	 0.4981484064	-1.8896857682	 0.10084
H	 2.3415138935	-1.6328000469	-0.9280935825	 0.10146
H	 0.8510325196	-3.3882765301	-0.342019954	 0.235502
H	 0.6589312405	-3.1586230221	-2.693925918	 0.110074
H	-2.3408346269	 0.3904488156	-3.9707709643	 0.306571
80.4858	104.691	152.4294	200.0763	213.4085	269.5099	337.8369	379.6619	438.067	510.2475	612.7996	626.2087	686.8573	767.4272	815.7662	826.9381	857.624	903.6542	951.918	989.4702	1012.9273	1029.0983	1085.282	1095.5129	1125.9309	1154.3483	1161.5259	1189.8596	1226.7236	1282.4936	1311.7551	1337.2042	1352.3388	1423.2767	1457.5898	1488.8665	1501.1177	1523.5044	1788.4616	2948.6346	3048.1047	3055.1509	3105.2867	3194.9425	3217.3832	3470.5009	3520.8319	3814.9245
CNC1C2NC2C1=NO	CN[C@H]1[C@H]2N[C@H]2C1=NO	
InChI=1S/C5H9N3O/c1-6-2-3-4(7-3)5(2)8-9/h2-4,6-7,9H,1H3	InChI=1S/C5H9N3O/c1-6-2-3-4(7-3)5(2)8-9/h2-4,6-7,9H,1H3/t2-,3+,4+/m0/s1
