19
gdb 32792	3.15689	0.98376	0.78902	2.5033	78.6	-0.1941	0.0456	0.2396	1469.441	0.159654	-419.251135	-419.24176	-419.240816	-419.286074	34.079	
C	 0.0432887525	 1.5997400391	 0.1479358997	-0.381187
C	 0.0623993103	 0.0703874176	 0.1084123454	-0.145262
C	-1.3203613621	-0.5413819257	-0.1792687136	-0.314964
C	-1.3281023223	-2.0372474481	-0.1488230726	 0.164792
C	-1.5710928369	-2.9220190476	-1.168582174	 0.29103
O	-1.8850165713	-2.805241059	-2.4832378099	-0.436624
N	-1.4479102242	-4.1816719047	-0.6401909998	-0.292759
C	-1.1328198433	-4.0185452114	 0.6854896157	-0.005448
N	-1.0547918272	-2.754259403	 1.0069478746	-0.304918
H	 1.0372092217	 2.0057474203	 0.3605450802	 0.111076
H	-0.2892097445	 2.0210423651	-0.8082222577	 0.105778
H	-0.6386517785	 1.9666822749	 0.9232800883	 0.114921
H	 0.7732893722	-0.2772442056	-0.6516954177	 0.088947
H	 0.4177801266	-0.3287458336	 1.0645091302	 0.122389
H	-2.0377166069	-0.1566601094	 0.5581429751	 0.113346
H	-1.6792034377	-0.1854209082	-1.1570752817	 0.064535
H	-1.9622367763	-1.868534877	-2.6911070684	 0.308426
H	-1.5771562	-5.0410628364	-1.1471468645	 0.269916
H	-0.9784818319	-4.8589558473	 1.3448506607	 0.126006
44.8778	84.9491	115.5546	218.3987	238.6019	256.518	277.622	317.8064	368.0129	475.6615	486.3458	659.5499	669.1126	705.4421	744.5473	766.8746	792.0056	868.603	897.7302	953.7512	1044.7216	1050.6356	1097.1972	1111.878	1131.406	1206.8198	1264.2246	1283.2178	1305.8988	1318.5603	1330.7012	1384.0808	1409.4352	1411.778	1473.5173	1492.3659	1499.0784	1507.9264	1510.4682	1548.793	1655.9506	2989.1523	3024.147	3025.4911	3036.1266	3070.788	3095.6236	3100.6006	3254.3234	3667.4508	3835.7906
CCCC1=C(O)NC=N1	CCCc1c(O)[nH]cn1	
InChI=1S/C6H10N2O/c1-2-3-5-6(9)8-4-7-5/h4,9H,2-3H2,1H3,(H,7,8)	InChI=1S/C6H10N2O/c1-2-3-5-6(9)8-4-7-5/h4,9H,2-3H2,1H3,(H,7,8)
