23
gdb 122300	4.79344	0.68366	0.6614	1.7579	86.84	-0.2432	0.0851	0.3283	1825.6878	0.204672	-388.266733	-388.256978	-388.256034	-388.302244	36.133	
C	 0.0414705401	 1.5658568814	-0.2589081573	-0.382209
C	 0.0310428754	 0.0517998774	-0.0320026008	-0.164577
C	-1.3818189503	-0.5372840201	 0.0239299449	-0.157104
C	-1.394575643	-2.0573117833	 0.2508099103	-0.331544
C	-2.7791290232	-2.6230596573	 0.3007413914	 0.448208
C	-3.8523554697	-2.458749396	 1.398280168	-0.287607
C	-4.447011998	-3.8440886738	 0.9627998886	-0.2367
C	-3.3530532915	-3.9188214998	-0.1098595357	-0.051532
O	-3.4987978013	-2.7562615826	-0.9383679836	-0.295332
H	 1.0626420038	 1.958121134	-0.2952087628	 0.110914
H	-0.4498367798	 1.8273553949	-1.2026041567	 0.116175
H	-0.4882358466	 2.0902032628	 0.5443246143	 0.11317
H	 0.5971714218	-0.4431489635	-0.8322577038	 0.096
H	 0.559598347	-0.1832630952	 0.9017422038	 0.09229
H	-1.9499166824	-0.0446486262	 0.8247922929	 0.094928
H	-1.9132957875	-0.3151523401	-0.9098755789	 0.112573
H	-0.8428858856	-2.5572283422	-0.5542968911	 0.106467
H	-0.8767532262	-2.2948915515	 1.1898771004	 0.097129
H	-3.441196194	-2.4797087261	 2.4108278168	 0.102354
H	-4.5004462279	-1.5865762243	 1.2856318742	 0.107193
H	-4.3467567364	-4.6066437069	 1.7390151205	 0.103097
H	-5.4701715209	-3.8446636386	 0.5797132729	 0.109888
H	-2.892212394	-4.7898768231	-0.5633976982	 0.096218
53.0151	75.6601	92.8436	131.3387	219.9787	248.7975	270.9418	324.9328	342.9692	460.8871	492.6123	701.7238	725.9234	737.7406	772.7814	792.2031	870.006	895.5122	920.1521	923.841	944.8773	958.1847	998.3834	1016.304	1046.6083	1065.9357	1089.3798	1124.7203	1159.7956	1199.7106	1212.219	1216.6929	1245.4994	1254.6739	1283.4996	1285.5686	1324.3338	1333.1148	1359.9163	1395.9449	1413.3053	1451.2441	1464.3412	1472.0577	1485.39	1493.7246	1498.6105	1500.382	1511.9422	3009.3257	3013.1798	3020.4863	3029.6449	3036.5945	3053.4636	3060.9055	3068.6284	3074.0084	3096.5916	3101.5727	3112.0177	3128.4587	3175.4864
CCCCC12CCC1O2	CCCC[C@]12CC[C@H]1O2	
InChI=1S/C8H14O/c1-2-3-5-8-6-4-7(8)9-8/h7H,2-6H2,1H3	InChI=1S/C8H14O/c1-2-3-5-8-6-4-7(8)9-8/h7H,2-6H2,1H3/t7-,8+/m1/s1
