23
gdb 118267	2.13687	0.82266	0.62405	1.2563	89.47	-0.252	0.0352	0.2872	1858.2243	0.201552	-388.255275	-388.243777	-388.242833	-388.293313	40.642	
C	 0.0684571381	 1.5581063044	 0.0960907822	-0.381311
C	 0.0344408939	 0.0289161071	 0.0379709691	-0.169832
C	 0.6885652375	-0.5347512338	-1.2273483342	-0.173588
C	 0.7061305351	-2.0627614252	-1.2839060357	 0.153128
C	 1.2602613781	-2.586710076	-2.6114939559	-0.408249
O	 1.4937812914	-2.4992045024	-0.1752356331	-0.257625
C	 1.2890724585	-3.8456651219	 0.2015968483	-0.214655
C	 1.9951577031	-4.1199579458	 1.4475198535	 0.285791
C	 2.5692014651	-4.3736120475	 2.4712870135	-0.419136
H	 1.0985341046	 1.9314102214	 0.0796639007	 0.114701
H	-0.4563288035	 2.0030332079	-0.7572561361	 0.109145
H	-0.4053897414	 1.9325981075	 1.0088949172	 0.110714
H	 0.542925829	-0.3917089579	 0.9112013348	 0.118469
H	-1.0071642315	-0.3164518679	 0.0902407191	 0.08652
H	 0.1657785543	-0.1614996858	-2.1173040579	 0.089529
H	 1.7248923427	-0.1790008112	-1.2998491657	 0.102653
H	-0.3249919441	-2.4363726834	-1.15201973	 0.061513
H	 1.2637262412	-3.6800091184	-2.6499304534	 0.115412
H	 0.6487246948	-2.2305310892	-3.4465653544	 0.116202
H	 2.2865803063	-2.2359041131	-2.7587086289	 0.126124
H	 0.2125014911	-4.0486900755	 0.3360141593	 0.115965
H	 1.6454843524	-4.5418314159	-0.5745097696	 0.119472
H	 3.0781705934	-4.5910110674	 3.3775321872	 0.199061
32.4791	64.6882	78.9324	109.2827	141.2158	175.6532	224.4007	244.6155	275.8668	318.9819	329.9579	364.3466	464.0828	511.9103	545.4953	606.4816	672.703	747.3948	845.1562	870.7641	897.5154	952.2066	972.6824	1003.5684	1032.1146	1039.6701	1062.5963	1107.7346	1135.1248	1163.8729	1194.3252	1250.1718	1269.3353	1297.2848	1329.3243	1364.6729	1366.1705	1400.5919	1406.9616	1414.3025	1425.5215	1472.4071	1490.4918	1494.5126	1495.1903	1499.662	1505.6117	1511.9908	2247.2842	2943.2598	2955.5391	2981.9832	3014.1986	3020.9744	3027.7012	3038.8074	3056.175	3076.5727	3098.8898	3100.8467	3108.2677	3113.8864	3506.8482
CCCC(C)OCC#C	CCC[C@@H](C)OCC#C	
InChI=1S/C8H14O/c1-4-6-8(3)9-7-5-2/h2,8H,4,6-7H2,1,3H3	InChI=1S/C8H14O/c1-4-6-8(3)9-7-5-2/h2,8H,4,6-7H2,1,3H3/t8-/m1/s1
