21
gdb 86363	2.18874	1.17141	0.83529	3.5099	79.21	-0.2429	-0.0175	0.2253	1405.5212	0.180525	-424.224026	-424.214111	-424.213167	-424.259304	36.22	
C	-0.7859646161	 1.3515593735	-0.0035826925	-0.411338
C	-0.0038628082	 0.0474784678	-0.0515997173	 0.030642
C	 1.3478010323	 0.0102647984	-0.8173121814	-0.283646
C	 1.8893495765	-0.9473214665	 0.2673224203	 0.151053
O	 3.236518299	-0.8553915738	 0.6712176862	-0.426434
C	 0.7357108998	-0.4891297579	 1.2253509347	-0.070276
C	 1.1320698945	 0.5746761869	 2.2598444444	-0.297121
C	 1.857017564	-0.0343744952	 3.4455503729	 0.146644
O	 1.4956902842	 0.0854578066	 4.5890620074	-0.242346
H	-0.1706544086	 2.1820475402	 0.3574836329	 0.114759
H	-1.1459460499	 1.6196660053	-1.0028809977	 0.117862
H	-1.6599211782	 1.2728018151	 0.6522235416	 0.121553
H	-0.6548397976	-0.7480283737	-0.4293136822	 0.081208
H	 1.354260047	-0.3291181007	-1.8556103503	 0.105703
H	 1.8533994471	 0.9834012372	-0.770511438	 0.089485
H	 1.7410998301	-1.9926347024	-0.018152998	 0.097007
H	 3.4938183906	 0.0718894203	 0.6630696298	 0.280805
H	 0.2168574611	-1.3035419197	 1.7402819836	 0.077751
H	 1.7977821318	 1.3252928698	 1.8083788905	 0.096654
H	 0.2535437318	 1.1036354369	 2.6404674329	 0.123567
H	 2.761651559	-0.6222361181	 3.1821292002	 0.096469
59.2449	97.5479	104.2546	165.4361	208.3519	228.0533	280.3057	287.9366	331.6427	413.5905	447.673	519.7987	552.6492	620.1993	762.665	804.0801	849.0086	887.2098	912.132	954.4636	1005.3165	1015.198	1060.2474	1078.6248	1095.1971	1145.5429	1160.7969	1165.5783	1196.5217	1233.9504	1253.9375	1273.5226	1295.6807	1302.2903	1316.824	1370.2799	1379.5891	1411.3405	1420.737	1437.5931	1464.3229	1486.6437	1496.8972	1497.5947	1827.7262	2917.6792	3003.5766	3026.8626	3030.606	3043.5933	3055.1646	3073.3223	3092.7529	3095.3976	3099.1186	3106.5304	3818.4626
CC1CC(O)C1CC=O	C[C@H]1C[C@@H](O)[C@H]1CC=O	
InChI=1S/C7H12O2/c1-5-4-7(9)6(5)2-3-8/h3,5-7,9H,2,4H2,1H3	InChI=1S/C7H12O2/c1-5-4-7(9)6(5)2-3-8/h3,5-7,9H,2,4H2,1H3/t5-,6-,7+/m0/s1
