19
gdb 88697	3.39875	0.97449	0.83674	1.7719	83.2	-0.2526	0.022	0.2746	1414.223	0.156872	-385.820185	-385.810871	-385.809927	-385.85488	34.629	
C	-0.1438291421	 1.5554875372	-0.0122366806	-0.406846
C	 0.0427056654	 0.0538510061	 0.0017815004	 0.006465
C	 1.3627627991	-0.5747987413	-0.3578463767	-0.305178
C	 0.8495549646	-0.667191347	 1.0645124288	-0.043465
C	 1.5511061743	 0.0689998714	 2.1498078581	 0.071983
O	 0.8839782334	 0.1908197526	 3.4089051391	-0.252071
C	 2.080298931	-0.6047843046	 3.3606860514	-0.172296
C	 1.9484389038	-2.0205051818	 3.5783242041	 0.348195
C	 1.8739069064	-3.204146981	 3.7756424336	-0.433728
H	 0.7707358235	 2.08676253	 0.2672949882	 0.114337
H	-0.4243809124	 1.8983423811	-1.0140856655	 0.117924
H	-0.9323884328	 1.8658397688	 0.6815865345	 0.127982
H	-0.8363948642	-0.4965925889	-0.3235604507	 0.08982
H	 1.3821282496	-1.4791524462	-0.955357915	 0.1155
H	 2.1978784647	 0.0949285199	-0.5426505028	 0.110154
H	 0.4652707945	-1.6312166311	 1.3803884577	 0.101436
H	 2.0801029932	 0.974213434	 1.8476533516	 0.093526
H	 2.9347735169	-0.1470672723	 3.8597806011	 0.113598
H	 1.799956861	-4.2488731968	 3.9520695725	 0.202665
39.3771	98.1371	140.0625	199.8653	212.0828	243.3758	315.5285	362.9239	411.7831	514.4989	553.5806	609.9676	627.4352	669.7587	773.0705	782.9321	838.5939	856.9176	880.6482	917.3995	982.7873	996.1663	1032.011	1068.8901	1078.1286	1110.5115	1139.2404	1150.0342	1195.5952	1197.0825	1247.6186	1280.3833	1324.6042	1393.3981	1401.7655	1425.4314	1472.2476	1493.0953	1494.7593	1509.1027	2238.426	3033.1339	3091.4219	3093.9358	3104.0365	3109.0283	3126.0812	3138.6857	3169.0471	3212.3586	3501.9664
CC1CC1C1OC1C#C	C[C@H]1C[C@H]1[C@H]1O[C@H]1C#C	
InChI=1S/C8H10O/c1-3-7-8(9-7)6-4-5(6)2/h1,5-8H,4H2,2H3	InChI=1S/C8H10O/c1-3-7-8(9-7)6-4-5(6)2/h1,5-8H,4H2,2H3/t5-,6+,7-,8+/m0/s1
