12
gdb 10584	2.71124	1.93819	1.34361	4.2004	60.87	-0.2919	-0.0158	0.2761	882.5769	0.083065	-377.521268	-377.5137	-377.512756	-377.553181	26.96	
O	 0.077612776	 1.3611412354	 0.1750788684	-0.385149
C	 0.0505480982	-0.0093693564	 0.0936362695	 0.097366
C	-0.4501671975	-0.7242148119	 1.2840731166	-0.315201
C	-1.3455296336	-0.723465193	 0.0272447268	-0.036877
C	-2.5082082744	 0.1226081824	 0.020345177	 0.249037
N	-3.4301020712	 0.8195935377	 0.0018293465	-0.321879
C	-1.4276898264	-1.93663324	-0.7408505835	 0.24929
N	-1.4439961928	-2.9141938451	-1.3583858529	-0.322745
H	-0.0015550721	 1.7389278245	-0.7087353659	 0.311805
H	 0.8136080533	-0.4875119449	-0.5178401012	 0.138359
H	-0.0121401713	-1.6766571139	 1.5548622711	 0.163892
H	-0.8096741084	-0.1127999949	 2.1030073976	 0.172102
128.3543	135.0384	168.4347	207.9375	342.3198	371.5901	426.8792	489.5197	522.5829	594.9664	612.021	650.0179	777.8019	889.2274	947.2972	995.7272	1081.0567	1112.2827	1192.5557	1242.2844	1268.5438	1314.0969	1436.1745	1486.459	2356.4285	2362.5981	3132.122	3158.2421	3258.3464	3800.5342
OC1CC1(C#N)C#N	O[C@H]1CC1(C#N)C#N	
InChI=1S/C5H4N2O/c6-2-5(3-7)1-4(5)8/h4,8H,1H2	InChI=1S/C5H4N2O/c6-2-5(3-7)1-4(5)8/h4,8H,1H2/t4-/m0/s1
