16
gdb 26552	2.32782	1.87419	1.04382	6.0894	77.23	-0.1889	-0.004	0.1849	1079.7194	0.127576	-434.126738	-434.118674	-434.11773	-434.158794	31.485	
N	 0.0492080845	 1.4172936345	 0.0723708926	-0.587886
C	-0.0050917333	 0.0235324871	 0.0190871638	 0.340184
C	-1.180156027	-0.6722495207	-0.0120890738	 0.076331
N	-2.4160425956	 0.0198562207	-0.0674542945	-0.614634
C	-1.2015489444	-2.1287693097	-0.0881228746	 0.341702
O	-2.2677671705	-2.7468354058	-0.1822354617	-0.433167
C	 0.1140887749	-2.757323034	-0.0641667771	-0.248829
C	 1.2434215568	-2.0179040701	 0.0212515432	 0.010391
N	 1.1943460741	-0.6482967546	 0.0512360265	-0.387885
H	 0.7920645558	 1.813123283	-0.4934011566	 0.244064
H	-0.8460976291	 1.7969583597	-0.2216394847	 0.266632
H	-2.6477318654	 0.4482297437	 0.8251313708	 0.240487
H	-3.1254115831	-0.6900784649	-0.250511331	 0.254433
H	 0.1667930779	-3.8380827273	-0.0979261412	 0.108635
H	 2.2378535994	-2.4447347241	 0.0647583459	 0.128961
H	 2.0368300849	-0.1243762977	 0.2218898323	 0.260581
144.8625	203.8747	237.63	267.5674	290.3486	344.1871	383.2439	418.4011	499.8677	520.4718	529.9888	571.6204	618.7626	700.2032	739.947	815.4854	832.4439	866.7406	928.8847	940.8161	1007.7689	1071.6196	1138.2165	1217.1514	1233.4748	1283.5342	1326.9231	1394.7347	1432.4033	1562.5446	1626.6544	1640.8115	1653.3513	1701.4296	1708.9421	3203.0756	3222.9922	3454.0354	3494.979	3528.9261	3589.7111	3650.8106
NC1=C(N)C(=O)C=CN1	Nc1c(N)c(=O)cc[nH]1	
InChI=1S/C5H7N3O/c6-4-3(9)1-2-8-5(4)7/h1-2H,6H2,(H3,7,8,9)	InChI=1S/C5H7N3O/c6-4-3(9)1-2-8-5(4)7/h1-2H,6H2,(H3,7,8,9)
