20
gdb 118910	2.54351	1.05088	0.96248	2.1905	75.81	-0.261	0.0264	0.2874	1333.3138	0.16994	-440.281041	-440.271273	-440.270329	-440.315959	35.477	
C	 0.06780748	 1.6197054275	-0.0165716347	-0.4526
C	-0.0086560959	 0.0913050355	-0.0031495906	 0.155501
C	-1.4455693851	-0.450250835	-0.0507643959	-0.261648
C	-2.3396367992	 0.0013564634	 1.1111545135	-0.081246
O	-3.6320637561	-0.5827824516	 1.0348538787	-0.417582
C	 0.9742454314	-0.619809363	-0.9725381708	-0.126648
O	 1.7157341421	-1.1685295784	 0.1617228048	-0.257767
C	 0.868654016	-0.5595306079	 1.0605861506	 0.42075
N	 0.863191826	-0.5718970667	 2.315421336	-0.551731
H	 1.1060406211	 1.9607371522	-0.0709656369	 0.123789
H	-0.4725031386	 2.026245732	-0.8784425629	 0.120629
H	-0.3691319313	 2.0401313939	 0.8925294078	 0.14644
H	-1.9141697023	-0.151867287	-0.9970698587	 0.107024
H	-1.4097022534	-1.5484552777	-0.0507800971	 0.091359
H	-1.8464518607	-0.2165074504	 2.0680323583	 0.127823
H	-2.5070177242	 1.0818223066	 1.0670884517	 0.111088
H	-3.5426053987	-1.5197726385	 1.2353080758	 0.281942
H	 0.5534017945	-1.4205896549	-1.5861644955	 0.117752
H	 1.611739266	 0.030518121	-1.5771665586	 0.117575
H	 1.6291020285	-1.1350985811	 2.6895827945	 0.227551
81.5178	93.5883	107.2246	169.0213	204.8366	232.9316	284.193	297.7136	336.5917	367.7074	421.6628	514.3735	685.3899	735.2994	755.5189	792.9627	865.7683	896.8563	936.5784	970.4506	991.3748	1006.3707	1021.932	1059.8915	1071.916	1129.276	1155.9037	1167.1483	1231.717	1250.6119	1264.5556	1310.6076	1340.6788	1377.3633	1402.6304	1416.9902	1421.8126	1480.2748	1494.2365	1500.3169	1516.8033	1517.6455	1815.0885	3009.2035	3022.3707	3036.4659	3053.0686	3056.2277	3088.9415	3104.5687	3115.547	3123.5465	3471.8807	3817.7406
CC1(CCO)COC1=N	C[C@@]1(CCO)CO[C]1[NH]	
InChI=1S/C6H11NO2/c1-6(2-3-8)4-9-5(6)7/h7-8H,2-4H2,1H3	InChI=1S/C6H11NO2/c1-6(2-3-8)4-9-5(6)7/h7-8H,2-4H2,1H3/t6-/m1/s1
