20
gdb 75893	2.42996	1.49175	1.23306	4.121	75.91	-0.2523	0.0323	0.2847	1116.0321	0.170134	-440.312273	-440.303031	-440.302087	-440.345735	35.468	
C	 0.245803098	 1.6189429703	-0.2085803906	-0.42161
C	 0.0329746504	 0.1207549725	 0.0509584537	-0.090388
C	 0.5800764331	-0.700094828	-1.1039827473	 0.416366
N	 0.0472147898	-0.8061808928	-2.2421947436	-0.54973
O	 1.7661960344	-1.2836044794	-0.7448651844	-0.241635
C	 2.1074232892	-0.9191067556	 0.5941168011	-0.11103
C	 0.7899748934	-0.4746152845	 1.2587374402	 0.352132
C	 0.9941972114	 0.4343628396	 2.4659797329	-0.463943
O	 0.020746893	-1.6234313521	 1.621292677	-0.469637
H	 1.3071653414	 1.8716884231	-0.3083592619	 0.117378
H	-0.2491504	 1.8934186416	-1.1429641991	 0.148007
H	-0.1749301196	 2.2249469493	 0.5985672152	 0.119407
H	-1.0333367093	-0.0825151098	 0.1642012194	 0.118399
H	 0.6227122781	-1.3839242779	-2.8574131932	 0.219481
H	 2.5484985088	-1.7908598119	 1.0872806875	 0.105193
H	 2.85037631	-0.1109603531	 0.5776500592	 0.104986
H	 1.5402020713	 1.3457041913	 2.20937713	 0.125095
H	 0.0279133246	 0.7128753568	 2.89518842	 0.135022
H	 1.567542613	-0.0884460123	 3.2414217616	 0.109083
H	 0.4901844989	-2.0942255372	 2.3186613323	 0.277426
73.3351	169.2675	213.9969	239.0009	246.4341	279.648	295.8651	302.493	367.5016	396.6486	464.2022	510.8404	586.7313	678.6201	687.6777	782.739	823.9669	885.7426	889.8877	940.0504	982.2253	1004.2604	1030.4638	1066.846	1086.9221	1110.0581	1144.2329	1182.514	1191.9182	1239.2205	1281.104	1322.1825	1330.9303	1360.9276	1399.1377	1408.6804	1419.976	1488.2643	1493.6931	1501.3744	1505.1988	1510.5252	1779.9708	3018.3406	3031.1464	3038.0552	3081.3177	3094.9536	3098.952	3112.9317	3126.6769	3129.7025	3471.2501	3801.531
CC1C(=N)OCC1(C)O	C[C@H]1[C]([NH])OC[C@]1(C)O	
InChI=1S/C6H11NO2/c1-4-5(7)9-3-6(4,2)8/h4,7-8H,3H2,1-2H3	InChI=1S/C6H11NO2/c1-4-5(7)9-3-6(4,2)8/h4,7-8H,3H2,1-2H3/t4-,6-/m0/s1
