19
gdb 23072	3.39759	1.09945	1.00937	1.3151	79.6	-0.2167	0.0004	0.2172	1248.6657	0.158729	-419.117325	-419.108735	-419.107791	-419.151061	32.724	
C	-1.1597303504	 0.9182149077	-0.0511366016	-0.413761
C	-0.121267837	-0.1890227996	-0.0152635592	 0.082224
C	 1.062917245	-0.1324857425	-1.0230586568	-0.283309
C	 2.0075797592	-0.2654356974	 0.1998476553	-0.071062
N	 0.8238989823	-0.2688845945	 1.1649235297	-0.154313
C	 1.275945222	 1.0481273471	 1.7334748926	-0.284796
C	 2.4881944039	 1.0179643701	 0.8257605818	 0.414671
N	 3.5408085963	 1.6944686244	 0.6426548439	-0.238168
O	 3.5621647566	 2.8230636428	 1.483098036	-0.39229
H	-0.7126862112	 1.9133472819	-0.1355337327	 0.122169
H	-1.8114199377	 0.7797199915	-0.9203261136	 0.12242
H	-1.7890862016	 0.8964425885	 0.8452780939	 0.127517
H	-0.6414689255	-1.1516321381	-0.0697807192	 0.085554
H	 1.1146556576	-0.9598164717	-1.7335834062	 0.109721
H	 1.1655224581	 0.8072288164	-1.571606912	 0.112427
H	 2.6882707963	-1.1204300647	 0.2163927586	 0.094683
H	 0.5982161901	 1.8971526749	 1.6032722285	 0.124786
H	 1.5138516863	 0.9699597415	 2.8001136913	 0.133347
H	 4.4071528397	 3.2276238216	 1.2592600596	 0.308182
36.7872	129.7504	189.348	229.745	296.7603	328.0834	358.0798	390.5585	469.6267	480.5955	528.6045	660.8481	734.6975	751.5136	817.3165	860.0058	916.7094	938.3691	956.7575	969.2411	987.6715	1009.7612	1091.8742	1110.6622	1128.6445	1167.371	1180.504	1196.0767	1201.8283	1255.0342	1268.6744	1306.9708	1310.8325	1382.5688	1405.405	1409.6933	1468.8028	1484.5141	1491.0869	1506.1499	1789.8844	3031.8722	3032.6474	3042.1796	3063.829	3075.167	3084.7381	3100.5022	3107.1182	3121.0943	3817.3115
CC1CC2N1CC2=NO	C[C@H]1C[C@@H]2N1CC2=NO	
InChI=1S/C6H10N2O/c1-4-2-6-5(7-9)3-8(4)6/h4,6,9H,2-3H2,1H3	InChI=1S/C6H10N2O/c1-4-2-6-5(7-9)3-8(4)6/h4,6,9H,2-3H2,1H3/t4-,6-/m0/s1
