15
gdb 75969	2.38884	1.97274	1.12725	2.8579	63.94	-0.2639	-0.0021	0.2619	1014.5681	0.114274	-491.140616	-491.132772	-491.131828	-491.173389	28.372	
C	-0.0326948683	 1.4057698773	 0.2537522912	-0.325576
N	-0.0074209326	-0.0554038882	 0.1358111643	-0.225557
C	-1.2341362996	-0.7058330767	-0.0345928688	 0.466343
N	-2.3138039546	-0.0573174754	-0.1296751341	-0.560401
O	-1.1508680022	-2.0644266371	-0.1146855974	-0.228904
C	 0.0340911592	-2.6010360331	 0.4266752035	-0.013686
O	 1.1696287947	-2.024572388	-0.1756880467	-0.21797
C	 1.2184873112	-0.6649477469	-0.1280301813	 0.489142
O	 2.2458586423	-0.0735676136	-0.3031239613	-0.364974
H	 0.9745285916	 1.735507963	 0.4974870571	 0.16235
H	-0.3568707354	 1.8624546973	-0.6847893544	 0.151515
H	-0.7387062202	 1.6850424871	 1.0354877971	 0.15245
H	-3.1020160735	-0.696888513	-0.2060336204	 0.236358
H	 0.0620473258	-2.4375934255	 1.5123787291	 0.127159
H	 0.0456990616	-3.6634031371	 0.1886134621	 0.151749
95.3777	124.0001	134.509	212.5426	315.0743	351.5657	402.1034	517.101	528.5261	585.017	696.3119	721.6133	771.386	801.9748	839.7351	968.9507	1023.5327	1037.5888	1108.5666	1129.8734	1163.5864	1208.6063	1218.8938	1294.9391	1323.755	1406.5979	1455.3601	1466.3758	1490.1223	1510.3558	1524.042	1757.9545	1865.1522	3021.9108	3069.7725	3143.5859	3155.7223	3191.4854	3527.0114
CN1C(=N)OCOC1=O	CN1[C]([NH])OCOC1=O	
InChI=1S/C4H6N2O3/c1-6-3(5)8-2-9-4(6)7/h5H,2H2,1H3	InChI=1S/C4H6N2O3/c1-6-3(5)8-2-9-4(6)7/h5H,2H2,1H3
