15
gdb 23248	2.97738	1.54338	1.09777	2.7192	72.28	-0.2444	-0.0452	0.1991	1054.3785	0.113137	-453.89418	-453.88679	-453.885845	-453.926135	28.643	
O	-0.0321237292	 1.2994663161	 0.1646132423	-0.345314
N	-0.0000341463	-0.0772452278	 0.0905856297	-0.232994
C	-1.1531919461	-0.6266760626	 0.0278377519	 0.330275
C	-1.2951068593	-2.094460876	-0.1211262158	-0.141946
C	-2.1555624628	-2.8100624156	 0.9246107563	-0.325309
C	-2.7693736614	-2.2979458768	-0.3373890404	 0.084994
O	-3.4257091065	-1.0465908956	-0.2485929842	-0.246498
C	-2.5250277531	-0.0340927261	 0.0065022746	 0.340267
N	-2.854435939	 1.1706522819	 0.1940629587	-0.512315
H	 0.9056302747	 1.5235001853	 0.1890727228	 0.313304
H	-0.5308671898	-2.6482451604	-0.6490206789	 0.119443
H	-2.0044743491	-3.8801483656	 1.0121687591	 0.130251
H	-2.3872164282	-2.2972118019	 1.8517510525	 0.138252
H	-3.2012263311	-2.9441295625	-1.090743542	 0.119375
H	-3.8703877227	 1.2674792176	 0.1309070136	 0.228216
89.4979	168.7524	226.1005	318.1085	380.5927	420.0856	465.8062	489.458	511.9692	666.9113	704.2727	736.3201	775.5144	813.1555	833.382	895.4264	966.4372	986.1769	1010.2163	1031.1256	1046.2352	1053.4932	1094.6161	1148.9016	1191.9875	1212.3242	1297.8443	1324.283	1382.1203	1436.5429	1471.3184	1723.4514	1751.1095	3137.0605	3197.034	3210.4005	3231.7615	3463.9989	3797.6165
ON=C1C2CC2OC1=N	ON=C1[C@H]2C[C@H]2O[C]1[NH]	
InChI=1S/C5H6N2O2/c6-5-4(7-8)2-1-3(2)9-5/h2-3,6,8H,1H2	InChI=1S/C5H6N2O2/c6-5-4(7-8)2-1-3(2)9-5/h2-3,6,8H,1H2/t2-,3+/m0/s1
