12
gdb 20752	7.33185	1.35477	1.15165	1.3657	66.56	-0.2729	-0.0594	0.2135	973.2789	0.083045	-377.496736	-377.489689	-377.488745	-377.528073	25.182	
C	 0.0098352935	 1.4887079578	 0.0053542274	-0.499695
C	-0.0012311433	-0.0003660546	-0.0061847916	 0.336567
N	-0.0861725691	-0.6946403249	-1.1143650039	-0.145616
O	-0.0635137149	-2.0201041716	-0.6836585978	-0.197088
C	 0.034109849	-1.9770180121	 0.6582670411	 0.269162
N	 0.0762750124	-0.7656166618	 1.1357547632	-0.345673
C	 0.0769141033	-3.2001291121	 1.3619086082	 0.251774
C	 0.1125746054	-4.2472318253	 1.9502215197	-0.343747
H	 0.9340050565	 1.8557835858	 0.4612070723	 0.153356
H	-0.0688009333	 1.8746734635	-1.0117587816	 0.153091
H	-0.8247286097	 1.8676206621	 0.6023324743	 0.153344
H	 0.1445066701	-5.1703665068	 2.4757804188	 0.214524
130.2304	141.1052	148.3041	286.7277	333.2092	450.4026	541.8095	566.6416	654.7466	684.9791	689.8428	731.1318	767.3758	942.5482	997.0977	1038.7847	1065.0209	1072.0778	1262.1677	1363.5713	1418.6816	1473.3668	1475.4767	1544.9001	1595.6787	2252.6235	3054.4546	3116.1089	3154.1464	3499.1185
CC1=NOC(=N1)C#C	Cc1noc(n1)C#C	
InChI=1S/C5H4N2O/c1-3-5-6-4(2)7-8-5/h1H,2H3	InChI=1S/C5H4N2O/c1-3-5-6-4(2)7-8-5/h1H,2H3
