21
gdb 115952	3.26709	1.23424	1.03316	2.1081	78.06	-0.2444	0.0799	0.3244	1232.0396	0.183772	-424.218488	-424.210105	-424.209161	-424.251685	31.937	
C	-0.0336505592	 1.5922454881	-0.0883956866	-0.380293
C	 0.0225729648	 0.0690021355	 0.0624408518	-0.203499
C	-1.3471867116	-0.5864003951	-0.0519130838	 0.140952
O	-1.8895005774	-0.3355001847	-1.3502983703	-0.263994
C	-2.9921338309	-1.2180081853	-1.5099802427	-0.107442
C	-2.5679181392	-2.5295171034	-0.8513157397	 0.117135
O	-1.6675644202	-3.3047976342	-1.6664358242	-0.289648
C	-0.5417716437	-2.9731402006	-0.8273650245	-0.079539
C	-1.4203674789	-2.1122003245	 0.1071502983	-0.124525
H	 0.9654029342	 2.0318718513	-0.014197088	 0.109946
H	-0.4596332557	 1.8661670602	-1.0567477225	 0.139094
H	-0.6565383246	 2.0438348162	 0.6918147102	 0.111005
H	 0.6854729991	-0.3538659168	-0.7003156675	 0.106625
H	 0.4477644468	-0.1983247716	 1.0380230553	 0.095372
H	-2.0167373046	-0.1420698709	 0.7090956146	 0.060203
H	-3.8899843778	-0.8197066777	-1.007191031	 0.084282
H	-3.1968681202	-1.3291116798	-2.5775652869	 0.120243
H	-3.4050691564	-3.1286433346	-0.4788521905	 0.076473
H	-0.1075450065	-3.8657120665	-0.3608533144	 0.099163
H	 0.239315775	-2.4439969702	-1.3844591826	 0.108115
H	-1.4698564229	-2.4362463755	 1.146514635	 0.080334
92.5332	111.1637	164.7045	203.301	236.1151	293.2998	374.8438	396.9551	498.2005	637.2278	707.108	768.8004	816.1686	852.9645	872.8484	897.5517	920.633	954.5797	992.7285	1016.8635	1030.5121	1048.4279	1068.6753	1082.1211	1115.4566	1136.3155	1167.2111	1172.7141	1206.245	1235.151	1268.3955	1298.3735	1313.8403	1327.4361	1333.455	1352.0071	1370.8358	1397.1845	1409.0591	1415.5352	1475.9103	1488.8365	1497.4707	1508.9392	1519.8903	2918.4402	2963.1356	3019.8052	3031.2991	3037.361	3058.7501	3064.39	3074.4366	3103.3085	3104.9363	3115.744	3126.5291
CCC1OCC2OCC12	CC[C@H]1OC[C@H]2OC[C@@H]12	
InChI=1S/C7H12O2/c1-2-6-5-3-8-7(5)4-9-6/h5-7H,2-4H2,1H3	InChI=1S/C7H12O2/c1-2-6-5-3-8-7(5)4-9-6/h5-7H,2-4H2,1H3/t5-,6+,7+/m0/s1
