23
gdb 92365	2.13176	1.79735	1.4515	1.2989	83.43	-0.2501	0.0707	0.3208	1064.0826	0.20838	-388.320417	-388.312127	-388.311183	-388.352525	34.427	
C	-0.2644346455	 1.5280590981	 0.0405542871	-0.428702
C	 0.0297050458	 0.0298381768	 0.0079966189	 0.05372
C	 0.7595895564	-0.4892304441	-1.2717385111	-0.238488
C	 1.9324351322	-1.3289799889	-0.7061896444	-0.005027
C	 2.9946032858	-0.3584463017	-0.1307394536	-0.21132
C	 2.3030708544	 0.2025299738	 1.1480169539	-0.26711
C	 0.929544861	-0.5112122527	 1.1472243195	 0.418762
O	 0.2238054801	-0.4526097576	 2.3650090113	-0.511844
C	 1.3130655101	-1.903112725	 0.5823173282	-0.281033
H	 0.629243877	 2.1297154666	-0.1573133152	 0.109275
H	-1.0058932623	 1.7915516946	-0.7210727858	 0.10853
H	-0.6636930152	 1.8213281297	 1.0163342213	 0.12698
H	-0.9254676055	-0.4965766182	 0.1194859573	 0.075832
H	 0.0939814946	-1.1014533027	-1.8876300896	 0.09305
H	 1.1178057469	 0.3317131237	-1.9021308199	 0.089586
H	 2.3405300329	-2.0509834943	-1.4158852553	 0.055864
H	 3.9148752133	-0.8942256124	 0.1213548465	 0.093199
H	 3.2622837603	 0.4252823319	-0.8456817293	 0.093699
H	 2.8555813429	-0.0774209308	 2.0534260267	 0.08014
H	 2.2120844306	 1.2905827476	 1.1559245681	 0.103073
H	 0.8266855902	-0.6979270745	 3.0744407876	 0.272028
H	 0.4402357624	-2.5405795087	 0.4138721847	 0.092703
H	 2.0322374215	-2.438984971	 1.2120138431	 0.077081
110.4694	220.8905	247.6788	274.3061	293.0161	361.3463	377.5445	400.1373	467.6104	508.8218	524.6099	602.3911	726.071	755.2389	816.7523	831.5448	870.3335	910.0731	930.0421	936.2557	957.1242	986.9274	998.0627	1022.339	1050.5328	1094.6938	1111.9041	1131.4593	1139.779	1172.9432	1182.6448	1201.6035	1235.3237	1255.181	1267.0983	1294.1308	1302.1569	1332.7067	1338.4746	1352.3293	1377.2086	1398.9139	1410.0167	1484.9206	1491.2298	1493.6296	1502.6146	1507.1108	1523.057	3025.2568	3027.8808	3031.7102	3039.0621	3041.4651	3048.3642	3080.028	3083.5181	3092.8257	3093.3773	3097.5837	3106.714	3109.8148	3809.5075
CC1CC2CCC1(O)C2	C[C@H]1C[C@H]2CC[C@]1(O)C2	
InChI=1S/C8H14O/c1-6-4-7-2-3-8(6,9)5-7/h6-7,9H,2-5H2,1H3	InChI=1S/C8H14O/c1-6-4-7-2-3-8(6,9)5-7/h6-7,9H,2-5H2,1H3/t6-,7+,8-/m0/s1
