22
gdb 120857	2.85277	0.87577	0.77558	3.0294	80.18	-0.2253	0.0741	0.2994	1576.5621	0.192535	-441.428628	-441.418142	-441.417197	-441.465688	37.038	
C	 0.1175781647	 1.5122836011	 0.0582343684	-0.22925
O	-0.0521650667	 0.1137671027	 0.0474334421	-0.221951
C	 0.7545621002	-0.5289765158	-0.9132138147	-0.095292
C	 0.5185297399	-2.025085915	-0.9325955398	-0.017153
C	-0.222519176	-2.7177738086	 0.154032036	-0.252324
N	-0.7815817163	-2.6395463844	-1.1988619453	-0.114284
C	-1.960612811	-1.7976342119	-1.416339267	-0.14254
C	-3.1882487262	-2.6966646021	-1.5487551079	-0.056901
O	-3.3971086231	-3.4967831121	-0.3972201539	-0.423348
H	 1.155827867	 1.7929854308	 0.2948000595	 0.107708
H	-0.1478345097	 1.9632490876	-0.9106763683	 0.107563
H	-0.542668727	 1.9149147242	 0.8296178951	 0.131766
H	 0.5643094299	-0.1056437187	-1.915973202	 0.092991
H	 1.8223376423	-0.3526212413	-0.6947280177	 0.095199
H	 1.3413484304	-2.5510088056	-1.4166020962	 0.091533
H	 0.0876577628	-3.7053358696	 0.4876877845	 0.106676
H	-0.6650356692	-2.0858887371	 0.918938953	 0.137216
H	-2.1092495808	-1.0639895367	-0.6141035822	 0.113726
H	-1.8263241759	-1.245151513	-2.3556831756	 0.089742
H	-4.0866118669	-2.0810001459	-1.6663233336	 0.09989
H	-3.0843886514	-3.3202910629	-2.4498523352	 0.087437
H	-2.626877287	-4.0705236459	-0.3257567691	 0.291598
23.9243	71.932	103.4755	112.6701	163.0353	197.3548	237.4536	267.5079	338.6517	376.441	410.6589	444.3407	520.6696	625.1911	735.8837	785.811	896.8732	924.246	940.9348	952.6435	1019.8378	1051.7152	1078.4031	1086.0644	1105.0852	1126.714	1147.3766	1168.0832	1171.1511	1187.1054	1227.0047	1234.7568	1279.0626	1280.6269	1333.3573	1379.6598	1394.9163	1411.7089	1422.1015	1423.7938	1478.7816	1483.9753	1486.3728	1497.0028	1500.0835	1510.5027	1524.5261	2941.3113	2965.295	2974.8539	2987.8045	3012.8905	3019.6905	3060.05	3074.5881	3100.9828	3106.5739	3119.9801	3194.9981	3814.7125
COCC1CN1CCO	COC[C@H]1CN1CCO	
InChI=1S/C6H13NO2/c1-9-5-6-4-7(6)2-3-8/h6,8H,2-5H2,1H3	InChI=1S/C6H13NO2/c1-9-5-6-4-7(6)2-3-8/h6,8H,2-5H2,1H3/t6-,7?/m1/s1
