21
gdb 117394	6.88209	0.53952	0.50653	1.84	88.14	-0.2456	-0.0099	0.2357	2226.5804	0.180595	-420.456323	-420.445425	-420.444481	-420.493885	37.517	
C	-0.3795129197	 1.8166358492	 0.2351216369	-0.388875
C	 0.0065957897	 0.3645124284	-0.0544208448	-0.154599
C	-1.118024157	-0.6172363925	 0.2756490012	-0.321537
C	-0.744820915	-2.0667776724	-0.0087042884	 0.428528
O	 0.3303572017	-2.4136823836	-0.4519001159	-0.3504
N	-1.7491400506	-2.9738359767	 0.2842699104	-0.349143
C	-1.6332471929	-4.3447155745	 0.1045933567	 0.116372
N	-2.5931711648	-5.1170249736	 0.39311	-0.239118
C	-2.3946626494	-6.5357526252	 0.1772532569	-0.310786
H	 0.4411807144	 2.4974669503	-0.0094244179	 0.118074
H	-1.2520089286	 2.1238498463	-0.3526684013	 0.113401
H	-0.6273174673	 1.961794314	 1.2927845886	 0.1134
H	 0.2821337962	 0.2473691738	-1.1074661678	 0.116713
H	 0.8984466979	 0.0874508906	 0.5168784609	 0.116677
H	-1.4057692542	-0.534638508	 1.3331496718	 0.122654
H	-2.0242166291	-0.3742910498	-0.2968215046	 0.122706
H	-2.632167053	-2.6494834025	 0.6517221445	 0.257393
H	-0.6590780213	-4.6407324884	-0.2949734389	 0.130348
H	-1.4016404552	-6.7907574104	-0.2249112497	 0.103344
H	-2.5343426287	-7.0742722291	 1.1218998344	 0.127422
H	-3.1560017931	-6.912030056	-0.5160449728	 0.127424
28.1104	58.7189	91.3177	113.0087	138.2597	198.916	213.6169	241.5582	308.8751	330.6074	356.6496	379.6398	567.5678	568.1474	647.8079	720.6173	749.5951	886.8041	901.2494	959.031	1012.2845	1050.5164	1064.5007	1095.9919	1114.813	1143.5335	1145.8056	1174.0413	1250.562	1255.6282	1315.2935	1325.414	1357.644	1395.9911	1414.8128	1446.2331	1462.2638	1480.0591	1488.166	1490.8831	1500.1311	1508.8278	1514.4507	1757.9273	1798.5901	2978.5509	3011.3996	3028.6582	3041.3131	3054.9089	3059.8863	3074.3483	3078.2911	3096.9335	3103.4574	3105.8329	3614.0012
CCCC(=O)NC=NC	CCCC(=O)NC=NC	
InChI=1S/C6H12N2O/c1-3-4-6(9)8-5-7-2/h5H,3-4H2,1-2H3,(H,7,8,9)	InChI=1S/C6H12N2O/c1-3-4-6(9)8-5-7-2/h5H,3-4H2,1-2H3,(H,7,8,9)
