18
gdb 61249	3.34449	0.8376	0.79968	4.6594	73.15	-0.2784	0.0272	0.3056	1480.853	0.145123	-439.076239	-439.06636	-439.065416	-439.111976	34.758	
C	 0.4383868663	 1.6464901574	-0.3425205776	-0.424179
C	 0.2156224421	 0.1868614228	-0.0491696844	 0.08181
O	 1.3744364543	-0.6447322671	 0.132738574	-0.263615
C	 0.4852558124	-0.4745453049	 1.2371061269	 0.020954
C	 1.043532054	 0.2132207243	 2.4693077557	 0.093367
O	 0.0202478729	 0.4802267684	 3.4066657976	-0.414787
C	 2.1856276078	-0.645204413	 3.0616163597	-0.367165
C	 2.7958834377	-0.0370554799	 4.2398303591	 0.26702
N	 3.2828929188	 0.4465214072	 5.1690545934	-0.30124
H	 1.2356069996	 2.0728878332	 0.2691797075	 0.134674
H	 0.7158360813	 1.7772281013	-1.3933246946	 0.136073
H	-0.4815344733	 2.2128967663	-0.1641700588	 0.135209
H	-0.549203166	-0.2834575698	-0.6705110938	 0.097932
H	-0.1035963132	-1.3669394443	 1.4767818864	 0.084252
H	 1.4541445369	 1.1899121747	 2.2041265767	 0.117169
H	-0.3546980003	-0.3562744692	 3.7058429126	 0.286797
H	 1.8022652009	-1.6379296425	 3.3320921154	 0.140317
H	 2.9483257379	-0.7985871448	 2.2908666442	 0.175413
44.7472	70.8549	105.2522	156.1091	197.6856	213.5142	275.1723	348.1452	389.3249	397.0488	411.0139	459.2719	525.2566	605.7127	784.5537	845.8579	865.5138	952.5703	968.5383	992.3807	1032.6804	1077.7222	1103.5876	1115.5897	1169.2808	1179.6788	1195.7836	1266.3523	1293.8228	1314.9782	1361.6565	1397.5638	1417.7963	1422.3337	1463.7486	1468.3455	1491.412	1513.3938	2366.6378	3031.3904	3044.5863	3045.1284	3086.5322	3090.7458	3102.5313	3107.4483	3138.1475	3794.4498
CC1OC1C(O)CC#N	C[C@H]1O[C@H]1[C@@H](O)CC#N	
InChI=1S/C6H9NO2/c1-4-6(9-4)5(8)2-3-7/h4-6,8H,2H2,1H3	InChI=1S/C6H9NO2/c1-4-6(9-4)5(8)2-3-7/h4-6,8H,2H2,1H3/t4-,5+,6-/m1/s1
