16
gdb 46406	3.96299	0.87114	0.76203	1.6052	73.06	-0.2583	0.0047	0.263	1447.723	0.122297	-437.823819	-437.814948	-437.814003	-437.858468	31.517	
N	-0.2614518567	 1.1385812298	-0.3683580599	-0.544046
C	-0.1234952427	-0.0700341735	-0.0669223593	 0.425539
O	 0.967576449	-0.7762028554	 0.3907554863	-0.250893
C	 0.1712291769	-1.9937126239	 0.5601559493	-0.116411
C	-1.0576265945	-1.2793692223	-0.0280217728	 0.010313
O	-2.1430106028	-1.2281283052	 0.8502525812	-0.254748
C	-3.2125164051	-0.4187547174	 0.3567094235	-0.227827
C	-4.3165358405	-0.4476655128	 1.3034908701	 0.287451
C	-5.2430798379	-0.452835171	 2.0669961729	-0.417275
H	 0.6012440107	 1.667433552	-0.2257432802	 0.233268
H	 0.5904077301	-2.8223168218	-0.0130758521	 0.126593
H	 0.0623072938	-2.2520915168	 1.6150441775	 0.139938
H	-1.3580674138	-1.6248726251	-1.0281902636	 0.099588
H	-2.8646410215	 0.6115588326	 0.202311911	 0.164196
H	-3.5468841005	-0.8003272669	-0.6224068549	 0.12149
H	-6.0597272145	-0.4575417822	 2.7459589509	 0.202826
48.1089	91.836	106.1491	160.9099	219.4832	302.4346	335.2687	373.5506	452.9395	529.5537	609.8602	681.7192	696.2872	744.051	851.9517	874.8104	940.3789	961.7167	976.9983	1013.1315	1030.5061	1041.6933	1110.5938	1152.9773	1188.7675	1233.456	1254.1696	1263.4317	1335.1911	1376.9561	1435.4954	1503.4975	1506.7628	1822.7565	2249.6452	2970.061	3000.4523	3035.5714	3077.9457	3145.1323	3470.4926	3505.3408
N=C1OCC1OCC#C	[NH][C]1OC[C@H]1OCC#C	
InChI=1S/C6H7NO2/c1-2-3-8-5-4-9-6(5)7/h1,5,7H,3-4H2	InChI=1S/C6H7NO2/c1-2-3-8-5-4-9-6(5)7/h1,5,7H,3-4H2/t5-/m1/s1
