27
gdb 60447	3.76475	0.58407	0.52741	0.9602	94.42	-0.245	0.0833	0.3283	2246.69	0.248692	-390.704454	-390.692245	-390.691301	-390.74305	43.769	
C	-0.0730876037	 1.5163901347	-0.1344182267	-0.387232
C	 0.0243368439	-0.0026241408	 0.0627960483	 0.039568
C	 0.7969844739	-0.328684235	 1.3499027134	-0.380917
C	-1.3786561354	-0.6336267432	 0.037949643	-0.178573
C	-1.3934564918	-2.1587416774	 0.0322727275	-0.072051
O	-2.7336934679	-2.5793350293	-0.1231763734	-0.258783
C	-2.9210783011	-3.9803006262	-0.2830854072	 0.162788
C	-2.7619041213	-4.7369866127	 1.0400383967	-0.391802
C	-4.3128765595	-4.1626727044	-0.8797930265	-0.38645
H	 0.9199618597	 1.9771948406	-0.1614930116	 0.107461
H	-0.5861191871	 1.7657432904	-1.0690960825	 0.110145
H	-0.6323012756	 1.9819162946	 0.6860694216	 0.11209
H	 0.5921907551	-0.4138612799	-0.7849620639	 0.070084
H	 0.2512739134	 0.0289673905	 2.2316166262	 0.112078
H	 0.9613348727	-1.4031327789	 1.4737377099	 0.112951
H	 1.7790055555	 0.1560653437	 1.3494297514	 0.1092
H	-1.9603653994	-0.2780594469	 0.8985817621	 0.097999
H	-1.9143180523	-0.2962842159	-0.8573799679	 0.099028
H	-0.7764314301	-2.5420140477	-0.8001751415	 0.078342
H	-0.9608182916	-2.5558918639	 0.9626173176	 0.087613
H	-2.1716505876	-4.3585797293	-1.0001839448	 0.059677
H	-1.7594761211	-4.6168002633	 1.4604051133	 0.115077
H	-3.4879713205	-4.3711023939	 1.7734141053	 0.120383
H	-2.931215477	-5.8082791067	 0.8907475979	 0.112058
H	-4.3980452904	-3.6165112192	-1.8228510533	 0.118461
H	-4.5204305694	-5.2206262943	-1.066332288	 0.109289
H	-5.0724854813	-3.7769760654	-0.1922314568	 0.121516
30.8164	54.7606	90.3313	106.5803	137.2155	208.4744	222.4462	232.5184	244.4576	259.9737	273.6424	364.6055	385.6445	422.972	433.5531	486.6244	524.8743	788.7361	817.5528	847.8123	924.9212	928.7242	931.8418	944.0484	953.974	964.2234	997.2811	1061.8926	1108.1936	1141.5549	1157.8408	1173.9922	1192.0369	1195.2271	1204.8529	1250.6703	1301.4038	1314.6401	1361.0813	1366.6026	1370.2716	1379.6097	1396.047	1400.3301	1412.6632	1420.9432	1440.6218	1480.6898	1483.3786	1485.2973	1489.553	1494.7507	1497.8702	1505.9191	1509.5297	1510.8124	1529.8157	2942.416	2950.8402	2993.2966	2999.1888	3022.095	3024.1483	3029.7868	3036.2158	3041.8984	3067.759	3087.5604	3093.914	3098.4565	3103.4356	3106.0066	3112.3943	3115.3249	3121.7785
CC(C)CCOC(C)C	CC(C)CCOC(C)C	
InChI=1S/C8H18O/c1-7(2)5-6-9-8(3)4/h7-8H,5-6H2,1-4H3	InChI=1S/C8H18O/c1-7(2)5-6-9-8(3)4/h7-8H,5-6H2,1-4H3
