15
gdb 16043	3.60382	1.73374	1.42229	3.6062	67.51	-0.239	0.0142	0.2531	883.5719	0.12108	-358.799952	-358.79279	-358.791846	-358.831148	27.289	
N	 0.1281532088	 1.3952165138	 0.0935278933	-0.523272
C	-0.0129580918	-0.0205531261	 0.0593611547	-0.018123
C	-0.5140634546	-0.7722118056	 1.235649712	-0.076417
N	-1.5307125494	 0.0396809615	 1.9246022869	-0.336352
C	-2.4463899244	-0.0795314226	 0.7413665316	-0.235368
C	-1.3552535248	-0.7987906595	-0.0652215711	 0.149836
C	-1.5636440556	-1.817959484	-1.0292286601	 0.177235
N	-1.7304195728	-2.6474887068	-1.821815288	-0.355624
H	-0.1620728876	 1.8357978874	-0.7718501035	 0.239311
H	-0.4112353321	 1.7791689904	 0.8634522322	 0.252593
H	 0.7717933546	-0.5411090259	-0.4846201668	 0.122388
H	 0.0251962876	-1.5700838451	 1.7324630023	 0.119527
H	-1.9103948875	-0.4442879326	 2.7295218274	 0.238505
H	-3.306845374	-0.7249073193	 0.931698488	 0.132248
H	-2.7899811662	 0.8829800443	 0.3479992612	 0.113513
137.675	168.6652	221.2479	268.9706	345.5501	418.5279	502.6384	548.3713	571.5553	625.7298	741.7143	779.9286	820.0084	838.2843	923.6281	959.1946	995.1563	1019.3439	1053.0262	1074.7394	1115.8989	1159.3495	1224.6063	1246.5592	1266.1713	1310.9074	1354.314	1369.4767	1475.0935	1503.1054	1644.0667	2331.0469	3044.8819	3107.3269	3145.0413	3188.8287	3503.9039	3551.2998	3592.2081
NC1C2NCC12C#N	N[C@H]1[C@H]2NC[C@@]12C#N	
InChI=1S/C5H7N3/c6-1-5-2-8-4(5)3(5)7/h3-4,8H,2,7H2	InChI=1S/C5H7N3/c6-1-5-2-8-4(5)3(5)7/h3-4,8H,2,7H2/t3-,4+,5-/m0/s1
