19
gdb 98672	3.6063	1.03755	0.92958	3.3281	72.73	-0.245	-0.0003	0.2447	1313.3369	0.158798	-460.185254	-460.176129	-460.175185	-460.219914	33.197	
C	 0.2061538276	 1.4216258566	-0.3926351655	-0.24337
O	 0.3947712283	 0.0219040636	-0.1323115291	-0.227928
C	 0.3165348957	-0.7840858037	-1.2007816908	 0.463154
O	 0.1006079091	-0.3702381985	-2.3225765867	-0.38541
C	 0.5252557996	-2.2311063757	-0.8445198764	-0.149955
C	-0.5754687564	-3.1585267324	-1.4616392404	-0.251277
C	 0.3893532391	-3.5136212014	-2.6343402258	 0.152956
O	 0.1342212506	-2.842868053	-3.8379727827	-0.441233
C	 1.5618983577	-2.9303033758	-1.7875067172	-0.251247
H	 0.9643682294	 1.7873907459	-1.0889745291	 0.145233
H	-0.7824222674	 1.6017718546	-0.8213790561	 0.14524
H	 0.301626114	 1.9162331371	 0.573623302	 0.137788
H	 0.6987435152	-2.3263158092	 0.2264053705	 0.091134
H	-0.7842046108	-4.0087461363	-0.8076693245	 0.105401
H	-1.516138638	-2.6876116067	-1.7544253681	 0.114127
H	 0.4645758215	-4.5748193872	-2.8842756313	 0.081251
H	 0.0648992089	-1.8976505346	-3.6275568082	 0.294605
H	 2.2560859777	-2.2848311862	-2.3295544192	 0.114122
H	 2.1248714282	-3.6981013872	-1.2511618212	 0.10541
40.0029	110.01	132.851	151.412	214.83	276.2467	322.3944	377.0101	396.6187	418.7712	600.9442	656.141	745.2308	780.2776	817.069	842.7516	865.9221	934.4148	952.0452	998.1741	1017.5196	1063.0428	1087.9851	1126.3289	1176.5589	1179.4221	1191.7116	1203.1183	1233.4302	1253.0793	1268.3624	1271.6264	1354.6232	1391.7987	1453.5038	1468.9213	1476.1433	1481.1237	1488.6329	1495.4107	1773.4234	3055.8281	3063.2939	3065.07	3081.3892	3117.9822	3127.5454	3131.0282	3132.9144	3164.0769	3676.0562
COC(=O)C1CC(O)C1	COC(=O)[C@H]1C[C@@H](O)C1	
InChI=1S/C6H10O3/c1-9-6(8)4-2-5(7)3-4/h4-5,7H,2-3H2,1H3	InChI=1S/C6H10O3/c1-9-6(8)4-2-5(7)3-4/h4-5,7H,2-3H2,1H3/t4-,5+
