19
gdb 89305	2.38004	1.6688	1.18676	3.4617	70.57	-0.2422	0.0524	0.2946	1066.9421	0.158323	-460.126269	-460.117555	-460.116611	-460.159257	34.234	
O	 0.4604090741	 0.6836091587	-0.9713543776	-0.443794
C	-0.0084216701	-0.272803043	-0.0688138001	 0.175729
C	 0.0295187427	-0.0030637426	 1.4720959247	-0.348745
C	-1.3884569602	-0.642025649	 1.5939992798	 0.42213
O	-1.480516321	-1.866588211	 2.2624362621	-0.487278
C	-2.5405490484	 0.3789970628	 1.7347800324	-0.333896
C	-2.501317115	 0.5919125357	 0.1891890715	 0.100929
O	-1.934801333	 1.8223230503	-0.250902576	-0.436329
C	-1.5203250204	-0.6075158828	 0.0299560317	-0.143487
H	-0.1392138405	 1.4377435937	-0.9021470738	 0.292148
H	 0.5360500954	-1.1971776429	-0.2860936186	 0.093945
H	 0.8184105014	-0.5244342122	 2.0205166166	 0.095634
H	 0.0570383723	 1.0604944629	 1.7226171586	 0.095756
H	-1.1524919975	-1.7460458264	 3.1604475641	 0.277657
H	-3.464936048	-0.1138711255	 2.0487109024	 0.107525
H	-2.3663915827	 1.2645134281	 2.3555611763	 0.086642
H	-3.4669278109	 0.4299833522	-0.3035018646	 0.082365
H	-2.4982227572	 2.5439715482	 0.0439974753	 0.291319
H	-1.9052755008	-1.4416843971	-0.5562249247	 0.071751
68.1875	197.5813	218.257	245.6776	277.9984	318.579	356.218	367.315	403.7926	453.0142	533.342	564.6583	596.2534	699.1957	745.8345	814.9229	856.1164	909.8902	927.4158	944.7007	987.633	1004.5799	1040.441	1082.95	1120.8557	1142.7731	1153.8442	1184.6425	1197.4514	1226.6132	1233.2019	1271.4992	1291.9497	1310.401	1333.9841	1340.1087	1362.0194	1413.9507	1457.2965	1470.5036	1472.0786	3025.2601	3038.9433	3055.3308	3056.7365	3104.3097	3113.9054	3116.5619	3763.5563	3797.0333	3826.388
OC1CC2(O)CC(O)C12	O[C@H]1C[C@@]2(O)C[C@@H](O)[C@@H]12	
InChI=1S/C6H10O3/c7-3-1-6(9)2-4(8)5(3)6/h3-5,7-9H,1-2H2	InChI=1S/C6H10O3/c7-3-1-6(9)2-4(8)5(3)6/h3-5,7-9H,1-2H2/t3-,4+,5+,6+
