20
gdb 58786	3.18613	1.1136	1.01577	2.6988	80.06	-0.2403	-0.0187	0.2216	1263.2343	0.169841	-403.135007	-403.125913	-403.124968	-403.168963	34.348	
C	 0.051369479	 1.4601148664	-0.198699056	-0.397184
C	 0.0169859883	-0.0492412161	 0.0911772425	-0.062526
C	 0.7997180719	-0.3986736868	 1.3640633269	-0.399392
C	-1.4083314509	-0.5386742195	 0.1521213293	 0.363102
C	-2.4453231346	-0.2775929171	 1.2678061139	-0.440291
C	-2.9223676048	-1.7426608163	 1.0347369998	 0.422652
O	-3.6494384818	-2.4698387797	 1.6481181551	-0.31
C	-1.9504974692	-1.9447121555	-0.0988156469	-0.229775
N	-2.1070566645	-0.8458685808	-1.0766813516	-0.35763
H	 1.0831117486	 1.8118915709	-0.2966121865	 0.11627
H	-0.4776193514	 1.6928236352	-1.127495237	 0.1262
H	-0.4179286659	 2.0280891548	 0.6130062978	 0.115894
H	 0.478804936	-0.5679935678	-0.7579261415	 0.091213
H	 0.3991602136	 0.1277830424	 2.2375122458	 0.117819
H	 0.7677128793	-1.4726464641	 1.5728406721	 0.119573
H	 1.8488734226	-0.1062203472	 1.259389522	 0.118938
H	-2.038706346	-0.1845584632	 2.2792529239	 0.136339
H	-3.1500949644	 0.5403471626	 1.0897577111	 0.119259
H	-1.4691569277	-2.8586612279	-0.4264727455	 0.112208
H	-3.0585208481	-0.4824937401	-1.103390905	 0.237329
65.4477	88.1694	184.1386	213.8487	238.5757	255.9517	304.1569	405.7546	444.094	477.8387	494.0454	579.7177	612.9949	673.5128	792.7665	837.4067	882.555	932.2581	957.3863	964.1967	981.348	1014.2684	1023.66	1079.5655	1093.6718	1129.7742	1147.1079	1154.2917	1193.6242	1205.3292	1235.4679	1282.5638	1340.3016	1347.6891	1398.0466	1415.5344	1430.7868	1464.8416	1488.3695	1491.9233	1503.5353	1514.6641	1882.0651	3029.2682	3031.6003	3036.089	3053.779	3096.1169	3101.8468	3108.1726	3109.598	3112.2811	3189.7087	3459.7963
CC(C)C12CC(=O)C1N2	CC(C)[C@]12CC(=O)[C@H]1N2	
InChI=1S/C7H11NO/c1-4(2)7-3-5(9)6(7)8-7/h4,6,8H,3H2,1-2H3	InChI=1S/C7H11NO/c1-4(2)7-3-5(9)6(7)8-7/h4,6,8H,3H2,1-2H3/t6-,7-/m1/s1
