15
gdb 22021	3.90647	1.13496	0.88097	3.8736	78.91	-0.1782	-0.0241	0.154	1232.5299	0.114236	-450.086116	-450.077935	-450.07699	-450.118574	31.183	
N	 0.1041307057	 1.3701427016	 0.1454495538	-0.588919
C	-0.0404489206	-0.0145295462	 0.0445053873	 0.433947
C	-1.2106547648	-0.6963224412	 0.0260528935	-0.296682
C	-1.1914220526	-2.1403296946	 0.0067727552	 0.341829
C	 0.1509864371	-2.7281363245	-0.0015205213	-0.044519
N	 1.2519714283	-2.0531980098	 0.0111432111	-0.195929
N	 1.1538434659	-0.7023978996	 0.0024608185	-0.291423
N	-2.3044249753	-2.8040214228	-0.0094411956	-0.276057
O	-2.0601120927	-4.1997629071	-0.0413952906	-0.408955
H	 0.7522867749	 1.7598381582	-0.5296214915	 0.2532
H	-0.7821301471	 1.8538094678	 0.0920137411	 0.260336
H	-2.1589270076	-0.1743478371	 0.0108453279	 0.097809
H	 0.2568570745	-3.8043914918	-0.0097792402	 0.146464
H	 2.0142500805	-0.2264606154	 0.2191110638	 0.267369
H	-2.9547171064	-4.5517968875	-0.055069403	 0.301529
115.5715	163.3773	229.6792	275.2177	283.8179	358.8096	365.6119	393.7632	463.0998	483.3543	549.4959	610.5296	638.6782	726.7531	740.8368	762.5341	842.6132	925.651	945.3404	980.1256	1037.0337	1099.3057	1158.9737	1249.985	1299.0022	1371.3196	1381.7282	1436.1541	1506.349	1631.2654	1643.366	1669.4647	1714.9372	3210.8945	3232.9268	3528.0165	3631.5742	3647.3935	3839.1996
NC1=CC(C=NN1)=NO	Nc1cc(=NO)cn[nH]1	
InChI=1S/C4H6N4O/c5-4-1-3(8-9)2-6-7-4/h1-2,9H,(H3,5,7,8)	InChI=1S/C4H6N4O/c5-4-1-3(8-9)2-6-7-4/h1-2,9H,(H3,5,7,8)
