17
gdb 112355	3.62841	0.82802	0.68891	9.115	80.47	-0.2186	-0.0395	0.1791	1600.7185	0.132933	-455.196384	-455.18566	-455.184715	-455.233768	37.37	
N	 0.8476067102	 0.4189523911	 0.9766436171	-0.616901
C	 0.2229239383	-0.5662444748	 0.2949692156	 0.264768
C	-1.0737773817	-0.9776977219	 0.3327580357	-0.393678
C	-1.24942095	-2.058417554	-0.6161837271	 0.415771
O	-2.1951417017	-2.7282267504	-0.9193928944	-0.350093
O	 0.0065440883	-2.2803775885	-1.2357312024	-0.262047
C	 0.9069025928	-1.3905199659	-0.7263777559	 0.423223
C	 2.1705109022	-1.3273409065	-1.1435775772	-0.456627
N	 3.8649798144	 0.5833489218	 1.5042881044	-0.702337
H	 4.3042596584	-0.3333480078	 1.4955042876	 0.260613
H	 4.4272808627	 1.1774248928	 0.9008748228	 0.257853
H	 3.9790000487	 0.9452567256	 2.4475044515	 0.254932
H	 1.8645642175	 0.4472915452	 1.0570385531	 0.300605
H	 0.3388939255	 0.8571741391	 1.7265962044	 0.252824
H	-1.8768896358	-0.6108713985	 0.9523368111	 0.109016
H	 2.5354787692	-1.9950644322	-1.9129133321	 0.128608
H	 2.848034211	-0.5941542452	-0.7290742643	 0.11347
21.6206	62.5329	76.7741	147.782	159.9439	182.0732	236.5671	269.5989	316.9532	371.8603	412.2964	485.0778	575.0863	603.0724	649.8832	677.6075	726.5927	745.0872	759.2185	801.8584	804.8108	865.7762	881.9451	998.6224	1087.2226	1123.9959	1133.3326	1271.0709	1305.819	1408.113	1452.4992	1653.148	1673.6012	1675.2212	1708.3204	1727.2345	1878.4166	3183.4109	3256.2818	3277.4723	3391.0364	3470.9437	3586.3132	3589.0686	3665.7625
NC1=CC(=O)O[C-]1C[NH3+]	NC1=C(OC(=O)[CH]1)[CH2].N	
InChI=1S/C5H7N2O2/c6-2-4-3(7)1-5(8)9-4/h1H,2,6-7H2/q-1/p+1	InChI=1S/C5H5NO2.H3N/c1-3-4(6)2-5(7)8-3;/h2H,1,6H2;1H3
