19
gdb 11454	4.04288	1.37469	1.09966	1.0475	73.23	-0.2392	0.0301	0.2693	1129.8143	0.165574	-365.098687	-365.090101	-365.089157	-365.132258	30.745	
C	 0.002382001	 1.5581497548	 0.0319372823	-0.379917
C	-0.0176232765	 0.0306920057	-0.0450481594	-0.175021
C	 0.7329942547	-0.5225172231	-1.2620234822	 0.02629
C	 0.7393595326	-2.0741584722	-1.340107443	-0.130699
O	 0.2016357711	-2.3677154533	-2.6466671062	-0.25523
C	-0.1385586255	-1.1632220263	-3.1890615178	 0.407638
C	-0.7696891449	-1.2433976278	-4.5369244967	-0.471194
N	 0.10495485	-0.1059724485	-2.528679001	-0.313448
H	 1.0275349155	 1.9349515204	 0.1212572171	 0.110276
H	-0.4348141768	 1.9926346683	-0.870398515	 0.141461
H	-0.5611183672	 1.9166139894	 0.8987966748	 0.107211
H	 0.4286208814	-0.3984670114	 0.8621339146	 0.09148
H	-1.0534813349	-0.3304484715	-0.0855191784	 0.096878
H	 1.7586087806	-0.1295362263	-1.2436493512	 0.080847
H	 1.7358426695	-2.5177279643	-1.2697481903	 0.115083
H	 0.0906628639	-2.5373030797	-0.588103392	 0.109722
H	-0.0900319233	-1.7288502199	-5.2444348435	 0.144428
H	-1.6802662789	-1.8491704967	-4.4943752811	 0.143677
H	-1.0107486522	-0.2414677677	-4.8899971211	 0.150518
57.0352	110.217	146.8042	170.2262	221.7841	241.8939	334.5343	395.657	454.6386	619.0178	659.999	716.6707	801.5649	849.5284	918.4655	959.767	973.7265	1004.0995	1014.3646	1044.6012	1066.3274	1100.4541	1131.2844	1168.2647	1224.1546	1254.5497	1287.6052	1321.6917	1339.7318	1379.5649	1389.1896	1410.1193	1415.8413	1475.8304	1476.9562	1480.8598	1496.0933	1510.0346	1521.2703	1741.8512	3004.9108	3013.732	3036.1523	3039.2508	3050.6744	3052.9806	3094.3496	3099.9118	3107.6876	3126.4965	3166.1237
CCC1COC(C)=N1	CC[C@H]1COC(=N1)C	
InChI=1S/C6H11NO/c1-3-6-4-8-5(2)7-6/h6H,3-4H2,1-2H3	InChI=1S/C6H11NO/c1-3-6-4-8-5(2)7-6/h6H,3-4H2,1-2H3/t6-/m0/s1
