16
gdb 52492	7.11703	0.48755	0.46478	3.1997	93.7	-0.2268	-0.0022	0.2245	2301.3828	0.121425	-400.742202	-400.731473	-400.730528	-400.782817	35.445	
C	 0.0444706136	 1.5004284926	-0.0873798815	-0.518226
C	 0.0349511896	 0.0495754213	-0.0386089	 0.248438
C	 0.0229555878	-1.159833289	 0.0042083782	-0.199213
C	 0.010733395	-2.5187442835	 0.0530895841	-0.18765
C	-0.0033820664	-3.7273828216	 0.0958919846	 0.323758
C	 0.0063689343	-5.1767579756	 0.1369759036	-0.525255
C	-1.4026757368	-5.8029676634	 0.2425328718	 0.426564
N	-1.4717536143	-7.0723307863	-0.2593357008	-0.524691
O	-2.3374040406	-5.249105944	 0.7726812516	-0.333198
H	 1.028027141	 1.9003981438	 0.1843195005	 0.154504
H	-0.1976079572	 1.8658616763	-1.091861779	 0.154977
H	-0.6901323179	 1.9241891133	 0.606782612	 0.157206
H	 0.5364806179	-5.57842813	-0.7365443708	 0.132713
H	 0.5672051169	-5.5250463039	 1.0163090275	 0.165648
H	-0.7432526116	-7.4651172181	-0.8289930202	 0.259339
H	-2.3698723113	-7.5282148919	-0.2515912118	 0.265085
5.3471	12.1785	53.7954	95.6262	142.1976	201.7954	243.6876	292.019	355.8593	380.7477	401.9935	494.1704	550.8488	564.932	570.4185	630.1539	715.4833	822.0813	940.4086	986.284	1048.136	1048.8968	1089.9062	1215.7057	1258.7472	1307.4158	1374.2771	1412.7939	1444.4985	1472.188	1472.4665	1618.6609	1822.313	2285.2171	2391.6287	3007.7755	3022.7157	3040.4053	3084.1582	3084.9085	3601.1078	3735.4936
CC#CC#CCC(N)=O	CC#CC#CCC(=O)N	
InChI=1S/C7H7NO/c1-2-3-4-5-6-7(8)9/h6H2,1H3,(H2,8,9)	InChI=1S/C7H7NO/c1-2-3-4-5-6-7(8)9/h6H2,1H3,(H2,8,9)
