14
gdb 128665	4.86646	1.01337	0.84319	4.304	69.46	-0.2566	-0.0607	0.1959	1278.7289	0.101402	-470.01248	-470.004608	-470.003663	-470.045433	27.53	
C	 0.0149834341	 1.4231867408	-0.0468731268	-0.243816
O	 0.0157625814	-0.0077684884	-0.0253832649	-0.25775
C	 0.6060888661	-0.6044267762	-1.056825948	 0.404081
N	 1.1765929868	 0.0129781296	-2.0715060733	-0.329288
N	 1.6213175456	-1.015928009	-2.8394047101	 0.065215
C	 2.3023653423	-0.7566719212	-4.0430568139	 0.206572
O	 2.7250903958	-1.6021951308	-4.7746044425	-0.252661
N	 1.3611939609	-2.2427104907	-2.3627719023	-0.181651
C	 0.7200463429	-2.0151850214	-1.2365408238	-0.109848
H	 1.038834958	 1.8091953909	-0.0523536007	 0.144069
H	-0.50975179	 1.7951265524	-0.9320897024	 0.144083
H	-0.5032373239	 1.7326938365	 0.860441165	 0.141947
H	 2.3767751982	 0.3328980846	-4.1902688588	 0.120522
H	 0.3682722119	-2.8148432871	-0.6046773174	 0.148524
97.4288	126.0162	167.678	175.7392	269.1984	273.3972	374.4715	485.2673	513.2559	652.381	732.5567	749.9628	831.1321	881.9526	965.1935	1027.3909	1031.7574	1068.7709	1179.5235	1199.6243	1229.192	1264.3667	1349.9881	1417.2254	1432.3129	1448.1264	1481.0353	1496.9491	1506.6316	1622.7765	1850.7066	3022.1263	3040.3849	3111.8992	3159.6822	3274.2405
COC1=NN(C=O)N=C1	COc1nn(C=O)nc1	
InChI=1S/C4H5N3O2/c1-9-4-2-5-7(3-8)6-4/h2-3H,1H3	InChI=1S/C4H5N3O2/c1-9-4-2-5-7(3-8)6-4/h2-3H,1H3
