21
gdb 53234	3.67636	0.80781	0.74222	1.6005	87.84	-0.2391	0.0548	0.2939	1612.9058	0.180519	-387.060471	-387.049983	-387.049039	-387.098112	37.51	
C	 0.5204068617	 1.6100769697	-0.6863399741	-0.499006
C	 0.330132843	 0.1995967827	-0.3778695084	 0.089587
C	 0.182862415	-0.9697825758	-0.1248759947	 0.057236
C	-0.0125634287	-2.3691828899	 0.1942496791	-0.180596
C	-0.070459372	-2.7995457382	 1.6963157487	-0.279288
C	-1.1691861126	-3.8200051164	 1.3116085806	 0.151711
O	-2.2244007926	-4.0849623483	 2.1990494961	-0.432596
C	-1.4330080568	-3.0219214502	-0.0064274579	-0.04111
C	-2.604980574	-2.0508950734	 0.0722594614	-0.41194
H	 1.5695935349	 1.9048513914	-0.5714460305	 0.14712
H	 0.2259673474	 1.836934427	-1.7172304258	 0.146238
H	-0.0757220663	 2.2489774498	-0.025070607	 0.144836
H	 0.7356195241	-2.97475059	-0.3287778003	 0.098314
H	 0.8476560352	-3.1706674686	 2.1562234514	 0.105751
H	-0.4735794829	-1.9928055676	 2.3157760245	 0.102449
H	-0.7311755012	-4.796675663	 1.0848593027	 0.090448
H	-2.6177065558	-3.2450351899	 2.4575404954	 0.28024
H	-1.5250293274	-3.6345812377	-0.9077421257	 0.071582
H	-2.5323350889	-1.3803624387	 0.9362975453	 0.109896
H	-2.6397111349	-1.41466859	-0.816258692	 0.127975
H	-3.5505849972	-2.597913433	 0.1420506013	 0.121153
8.6595	62.5213	87.6264	156.6653	213.1033	238.058	245.157	303.7492	311.8689	363.4491	404.0558	442.4785	518.5805	561.2919	639.894	720.5441	802.8607	872.825	911.4636	916.4045	1008.3934	1011.1573	1052.5637	1053.7723	1087.3745	1093.5581	1119.7714	1148.7701	1194.6106	1204.2379	1239.0952	1268.7491	1279.6372	1312.5505	1347.2407	1369.9056	1410.5996	1415.3165	1442.2075	1478.9962	1479.3697	1485.5106	1495.9951	1498.5291	2363.8864	3024.2551	3030.4665	3038.9305	3055.8044	3061.2733	3070.8125	3083.6975	3083.9751	3096.426	3114.5369	3120.4082	3814.8377
CC#CC1CC(O)C1C	CC#C[C@H]1C[C@@H](O)[C@H]1C	
InChI=1S/C8H12O/c1-3-4-7-5-8(9)6(7)2/h6-9H,5H2,1-2H3	InChI=1S/C8H12O/c1-3-4-7-5-8(9)6(7)2/h6-9H,5H2,1-2H3/t6-,7-,8+/m0/s1
