19
gdb 52628	3.17673	0.76385	0.71436	3.9424	81.85	-0.2413	-0.0218	0.2195	1656.985	0.153897	-423.011947	-423.000696	-422.999752	-423.050016	38.536	
C	 0.0077642416	 1.4865904564	 0.0376207893	-0.501199
C	-0.0066490178	 0.0311924674	 0.0085236063	 0.077586
C	-0.0319578024	-1.1730269761	-0.0174855391	 0.051367
C	-0.017597221	-2.640396717	-0.057950706	 0.118145
C	-1.4280856766	-3.2084604363	 0.1531037528	-0.391922
O	 0.3964760772	-3.1024618588	-1.3524084349	-0.447901
C	 0.9659962726	-3.172091602	 1.0227616315	-0.284354
C	 1.089994295	-4.6823452814	 1.0229107752	 0.145647
O	 1.0767933377	-5.3612311809	 2.0186944445	-0.247762
H	 0.8928334382	 1.867546109	 0.5584888928	 0.151845
H	 0.0124358334	 1.9016684037	-0.9760855355	 0.153829
H	-0.8762637016	 1.8789565555	 0.551791815	 0.155374
H	-2.1035054323	-2.8120543382	-0.6072670331	 0.13426
H	-1.4076236384	-4.2988185316	 0.0666465856	 0.131467
H	-1.8066616349	-2.9404520403	 1.1422070512	 0.128833
H	 1.1215698545	-2.5390807177	-1.6437141574	 0.283732
H	 1.9605843404	-2.7589428921	 0.8042205973	 0.11773
H	 0.6775435511	-2.8352035068	 2.0217577093	 0.127307
H	 1.2142635233	-5.1330024128	 0.0158751152	 0.096016
23.6993	60.4075	73.0023	95.6195	136.1551	217.582	242.1497	282.5695	292.7577	308.689	356.6838	375.2158	416.7925	456.6293	558.6134	575.8161	686.0506	811.1639	871.0239	934.1136	965.7888	1046.6933	1053.1618	1054.3947	1070.8008	1117.4298	1167.0546	1190.7684	1233.2772	1295.9739	1377.5226	1410.5114	1413.6208	1417.0149	1448.3739	1476.3995	1477.5623	1480.4041	1495.2671	1826.9301	2364.4563	2916.5117	3021.5502	3030.0837	3051.0671	3092.4091	3093.1132	3107.6204	3127.2509	3143.5343	3811.894
CC#CC(C)(O)CC=O	CC#C[C@@](C)(O)CC=O	
InChI=1S/C7H10O2/c1-3-4-7(2,9)5-6-8/h6,9H,5H2,1-2H3	InChI=1S/C7H10O2/c1-3-4-7(2,9)5-6-8/h6,9H,5H2,1-2H3/t7-/m1/s1
