17
gdb 61195	3.70302	0.84621	0.77832	6.2868	75.18	-0.253	0.0107	0.2637	1447.817	0.133912	-417.973753	-417.963631	-417.962687	-418.009058	36.181	
N	-0.049910862	 1.5554450724	 0.1836602992	-0.496702
C	-0.016463494	 0.1111811322	 0.0260976407	 0.019815
C	-1.4511860239	-0.4519348649	 0.1399720821	-0.346227
C	-2.0335673907	-0.235442289	 1.4611884815	 0.277564
N	-2.4977217485	-0.0972630302	 2.5099959323	-0.310402
C	 0.6063517662	-0.3675198127	-1.3152506648	-0.069528
O	-0.2187963112	 0.1655611877	-2.3492526273	-0.431338
C	 1.9955271233	 0.0736911717	-1.4416284628	 0.279047
C	 3.1346215327	 0.4413236406	-1.5560665705	-0.429195
H	 0.8957790398	 1.9146236497	 0.2704790829	 0.239454
H	-0.4415399732	 1.9688654823	-0.6590326796	 0.238361
H	 0.5896093032	-0.3098341916	 0.8345353445	 0.111872
H	-2.0848869216	 0.0187692343	-0.6180546934	 0.165753
H	-1.4544065031	-1.5279520437	-0.0678549937	 0.144639
H	 0.585226295	-1.4695727763	-1.3427108481	 0.099697
H	 0.2507257802	 0.0839287607	-3.1852233256	 0.297975
H	 4.1438921679	 0.7580370468	-1.6575684272	 0.209217
61.9599	87.4989	104.5202	172.6112	209.6646	253.7825	267.0261	304.8672	323.4708	368.8994	395.7473	448.4186	534.4556	585.5746	641.4904	678.4872	721.8051	849.4454	878.4772	919.7079	932.7265	986.6285	1016.8658	1080.606	1129.1237	1167.7949	1223.2021	1282.9865	1321.9956	1351.0742	1365.3816	1382.464	1422.2068	1464.1681	1669.8328	2231.1304	2367.0887	2964.4371	3051.6161	3067.5686	3100.0759	3491.4352	3497.9695	3573.2579	3830.9728
NC(CC#N)C(O)C#C	N[C@@H](CC#N)[C@@H](O)C#C	
InChI=1S/C6H8N2O/c1-2-6(9)5(8)3-4-7/h1,5-6,9H,3,8H2	InChI=1S/C6H8N2O/c1-2-6(9)5(8)3-4-7/h1,5-6,9H,3,8H2/t5-,6-/m0/s1
