19
gdb 113741	2.49086	1.24929	0.9834	2.8147	76.04	-0.2578	0.0343	0.2921	1265.4312	0.158538	-419.180839	-419.171014	-419.17007	-419.216092	35.118	
C	 0.3565426931	 1.0926253879	 0.3581647687	-0.231289
O	-0.3405620515	 0.0821390983	-0.3474368421	-0.235447
C	 0.3980403969	-0.4935802502	-1.3728799733	 0.114085
C	 1.4354209307	-1.5451362992	-1.0557993567	-0.348395
C	 0.1015126408	-1.9297746512	-1.6693810007	-0.0514
C	-0.9639900474	-2.7009021292	-0.8925890189	-0.11733
N	-1.0169278902	-4.0796505808	-1.3988120697	-0.503662
C	-0.7629481117	-2.6585580735	 0.5723227467	 0.274281
N	-0.6100780259	-2.7281168092	 1.7165635793	-0.353137
H	 1.2675846611	 0.700167009	 0.8290835679	 0.117978
H	 0.6341878514	 1.9250297384	-0.305349385	 0.106816
H	-0.3176921889	 1.462516267	 1.13301863	 0.135725
H	 0.5906795461	 0.1712315039	-2.2169254745	 0.090975
H	 2.3268916931	-1.6068302534	-1.6697990326	 0.116378
H	 1.5799921889	-1.7843245063	-0.0075187001	 0.147113
H	 0.0950319568	-2.2237763497	-2.7135655101	 0.112417
H	-1.9386866816	-2.2409462172	-1.0952461544	 0.140344
H	-0.1376086566	-4.5467006516	-1.1915059518	 0.241497
H	-1.7386850551	-4.5989388129	-0.9068812428	 0.243051
47.5928	83.0964	135.802	161.2498	197.9658	222.2036	254.8119	298.9894	343.3307	365.6585	468.5626	557.875	603.9852	651.7455	769.7644	808.	856.2266	885.7398	938.7833	996.5364	1016.3353	1063.9798	1085.6322	1108.1187	1129.5609	1140.6981	1175.8988	1184.5716	1207.9021	1224.6379	1263.225	1334.9593	1359.439	1391.2585	1406.8138	1474.7618	1485.6148	1492.4389	1506.6433	1660.69	2344.4321	2990.6835	3043.5464	3049.2037	3083.505	3129.674	3136.6168	3169.8433	3227.856	3486.807	3566.9755
COC1CC1C(N)C#N	CO[C@H]1C[C@H]1[C@@H](N)C#N	
InChI=1S/C6H10N2O/c1-9-6-2-4(6)5(8)3-7/h4-6H,2,8H2,1H3	InChI=1S/C6H10N2O/c1-9-6-2-4(6)5(8)3-7/h4-6H,2,8H2,1H3/t4-,5-,6-/m0/s1
