21
gdb 100892	2.34244	1.05539	0.76559	2.1258	79.97	-0.2475	0.0278	0.2753	1506.3854	0.180752	-420.405849	-420.394769	-420.393825	-420.442443	38.825	
C	 0.1742768389	 1.4529539515	 0.1936976109	-0.331195
N	-0.0998216856	 0.0455751075	-0.0863468968	-0.270553
C	 0.6100421701	-0.4982834469	-1.2385186115	-0.118776
C	 2.0825700547	-0.4584039341	-1.0430095999	 0.271743
N	 3.2174048901	-0.4023476054	-0.8252173807	-0.342917
C	 0.1197889571	-1.9297154816	-1.5699886781	 0.012684
C	-1.382754908	-1.9325092982	-1.8709985438	-0.398141
C	 0.917571112	-2.5373949952	-2.7276870721	-0.097372
O	 0.4679183039	-3.8719546879	-2.9028809648	-0.420916
H	 1.2392799018	 1.6826304117	 0.3547785495	 0.125852
H	-0.182457134	 2.0638157249	-0.6427562855	 0.127746
H	-0.383480472	 1.7507859808	 1.0852605139	 0.128587
H	 0.1117709356	-0.5184669716	 0.7309841436	 0.229832
H	 0.3857491721	 0.1514795116	-2.0957771845	 0.124174
H	 0.3102203052	-2.5575417153	-0.6886847852	 0.093389
H	-1.6005179591	-1.3131809274	-2.7500090951	 0.106826
H	-1.712610131	-2.9500688308	-2.0867347289	 0.1384
H	-1.9519835818	-1.5340372543	-1.0302119728	 0.129295
H	 0.7524999663	-1.9380343966	-3.6398918089	 0.085371
H	 1.992712857	-2.5102409754	-2.502665753	 0.114934
H	 1.0011340266	-4.2806126374	-3.5904777364	 0.291035
52.8404	86.2222	111.5715	137.6655	173.9238	190.3625	222.1811	238.5494	272.1183	292.0983	338.1744	356.4268	426.9661	464.1546	585.1222	618.8582	755.7364	860.6741	895.3918	935.3075	969.1149	997.7544	1072.4798	1085.9983	1119.513	1156.4618	1159.9746	1168.6853	1189.584	1259.6776	1265.46	1295.9347	1337.1619	1349.2888	1371.9875	1399.1308	1458.6087	1464.1368	1487.3443	1494.2044	1494.9113	1500.8309	1519.9924	1524.3639	2335.9953	2954.1013	2983.9752	3011.7181	3020.9505	3029.5783	3039.1506	3068.3406	3115.0515	3117.647	3152.7213	3518.2428	3836.5845
CNC(C#N)C(C)CO	CN[C@@H](C#N)[C@@H](C)CO	
InChI=1S/C6H12N2O/c1-5(4-9)6(3-7)8-2/h5-6,8-9H,4H2,1-2H3	InChI=1S/C6H12N2O/c1-5(4-9)6(3-7)8-2/h5-6,8-9H,4H2,1-2H3/t5-,6-/m0/s1
