18
gdb 102850	3.13284	0.83519	0.7088	1.4643	73.85	-0.2566	-0.0349	0.2217	1547.2109	0.144194	-439.095863	-439.085421	-439.084477	-439.133178	34.843	
C	 0.017181627	 1.5170890069	 0.099455194	-0.261354
O	-0.0992659417	 0.1011857633	 0.0459853891	-0.253055
C	 0.5251856377	-0.5298177921	-1.0523727739	 0.091189
C	 1.0769669277	-1.8726726236	-0.5487381907	-0.288962
C	 2.1619958272	-1.6970420881	 0.4951458076	 0.149104
O	 3.2108157657	-2.288046252	 0.4812875562	-0.235428
C	-0.4783949502	-0.7798064022	-2.2071532344	-0.339345
C	-0.959720967	 0.4416423675	-2.8470324436	 0.267377
N	-1.3278914749	 1.4103894758	-3.3587101338	-0.307743
H	 1.0713245649	 1.8289995778	 0.1007259826	 0.11505
H	-0.4979997678	 2.0077551128	-0.7328804246	 0.150008
H	-0.4443155484	 1.8287711078	 1.0388717137	 0.137011
H	 1.3504474864	 0.0911009478	-1.4315893363	 0.100577
H	 0.2457590819	-2.417665683	-0.0795085846	 0.136871
H	 1.4749750488	-2.4813710282	-1.3648647633	 0.123907
H	 1.9139739303	-0.9717291178	 1.2984683528	 0.096438
H	-0.0088244522	-1.4061434442	-2.9736921203	 0.156065
H	-1.3350650954	-1.3336910386	-1.8081712207	 0.16229
38.565	50.9461	86.9489	101.7063	126.1351	172.5036	220.7101	285.5484	336.21	392.9702	400.792	433.6985	524.6669	593.3569	806.0596	834.5737	914.148	938.4501	1000.4738	1047.8009	1092.4209	1104.1838	1143.0446	1182.2108	1206.8066	1215.0154	1270.6026	1276.9879	1329.2428	1372.2679	1389.8717	1417.0092	1443.1928	1455.7927	1482.6726	1494.2815	1513.077	1832.6991	2359.7734	2915.7413	2996.8193	3004.3144	3024.9749	3048.3809	3082.9824	3093.4115	3109.9661	3129.9952
COC(CC=O)CC#N	CO[C@@H](CC=O)CC#N	
InChI=1S/C6H9NO2/c1-9-6(2-4-7)3-5-8/h5-6H,2-3H2,1H3	InChI=1S/C6H9NO2/c1-9-6(2-4-7)3-5-8/h5-6H,2-3H2,1H3/t6-/m1/s1
