17
gdb 50735	2.36943	1.51158	1.01128	3.8831	68.98	-0.2581	-0.0323	0.2258	1150.5483	0.136131	-459.016135	-459.007896	-459.006952	-459.05003	29.84	
O	-0.6732702428	 0.9688425662	-0.7696485632	-0.240378
C	 0.0093391793	 1.1679298893	 0.2005332852	 0.146855
C	 1.3323699592	 1.9334357208	 0.1457446548	-0.238255
C	 1.5945760845	 2.5780282499	-1.2185603172	-0.217007
C	 2.6647647061	 3.6580119622	-1.082638674	-0.241762
C	 2.2062595503	 4.6783801622	-0.0550992971	-0.058738
O	 1.9144072595	 4.0969641556	 1.2317498662	-0.22736
C	 1.4236168851	 2.8513667016	 1.3734460471	 0.411963
O	 1.1035184877	 2.4623432415	 2.4657425679	-0.32927
H	-0.2660388506	 0.8067549436	 1.2093136459	 0.124481
H	 2.1008273442	 1.1722132166	 0.355739138	 0.144606
H	 1.880165887	 1.8099695771	-1.9418516904	 0.118894
H	 0.663651401	 3.0176298898	-1.593194903	 0.126378
H	 3.6225920306	 3.2228939549	-0.7716823172	 0.113902
H	 2.834575665	 4.1697259414	-2.0356579513	 0.115647
H	 2.9694415694	 5.4332457591	 0.1475629051	 0.128656
H	 1.3022821746	 5.1940262982	-0.4035448169	 0.121389
39.4021	111.5374	126.1139	218.8538	280.4339	326.2129	403.1683	455.1518	513.2814	562.914	657.2116	695.8318	750.0176	867.1001	887.4435	906.0162	964.6316	974.6813	1054.9873	1093.5866	1112.4109	1155.0491	1174.7199	1210.4547	1233.4627	1271.9719	1292.9153	1320.1328	1372.0923	1380.3474	1401.1096	1429.6632	1481.707	1492.9346	1515.5221	1816.1295	1834.0432	2966.1035	2996.7767	3027.844	3035.7706	3053.7677	3085.9159	3099.6217	3105.3792
O=CC1CCCOC1=O	O=C[C@H]1CCCOC1=O	
InChI=1S/C6H8O3/c7-4-5-2-1-3-9-6(5)8/h4-5H,1-3H2	InChI=1S/C6H8O3/c7-4-5-2-1-3-9-6(5)8/h4-5H,1-3H2/t5-/m1/s1
