18
gdb 123412	4.80166	0.90101	0.84726	0.4632	77.	-0.257	-0.0001	0.2568	1385.1562	0.150435	-398.123296	-398.115318	-398.114374	-398.15738	29.399	
C	-0.0999425745	 1.6148401583	 0.0153825277	-0.345172
C	-0.2403472477	 0.1318425814	-0.2950587632	 0.034076
C	-0.0609479227	-0.8861634525	 0.7996676739	-0.247825
C	-1.4316005908	-0.6364026769	 0.216224065	-0.27603
C	 1.3240775188	 2.0820173413	 0.0243491221	 0.320851
N	 2.0324286082	 2.178426503	 1.1545069106	-0.267616
N	 3.2253444139	 2.5847891272	 0.7377274352	-0.071223
N	 3.36952372	 2.7709967922	-0.5658634418	-0.194614
C	 2.1655023582	 2.4539003612	-1.0429588066	-0.127439
H	-0.6696638312	 2.198871156	-0.717752066	 0.109312
H	-0.5381868557	 1.8216443484	 0.9972900226	 0.117021
H	 0.1288783962	-0.1536900773	-1.2766924084	 0.08418
H	 0.4379566776	-1.8191035567	 0.5621452266	 0.110637
H	 0.142721922	-0.5164521659	 1.7991076535	 0.121545
H	-2.1534636631	-0.1036005499	 0.8269553213	 0.110735
H	-1.8683732672	-1.3972531415	-0.4212117336	 0.110955
H	 3.9784632579	 2.7602810114	 1.3826996353	 0.291081
H	 1.9580405102	 2.5086369803	-2.1000868843	 0.119526
35.3366	63.2447	115.5485	285.8748	309.4583	354.1993	415.6507	517.8787	687.3797	723.7076	764.2864	775.4248	805.9319	844.2695	880.8282	896.0826	957.499	990.9111	999.3062	1029.654	1056.9174	1078.146	1113.7791	1138.9861	1165.8569	1196.4959	1201.8599	1223.4111	1238.8297	1270.3995	1323.3448	1363.7619	1405.2223	1418.7828	1468.4809	1474.4047	1484.8938	1508.3027	1565.2176	3031.2949	3079.9795	3129.5602	3135.0069	3140.8291	3207.9304	3223.4833	3265.2355	3670.4885
C(C1CC1)C1=NNN=C1	C(C1CC1)c1n[nH]nc1	
InChI=1S/C6H9N3/c1-2-5(1)3-6-4-7-9-8-6/h4-5H,1-3H2,(H,7,8,9)	InChI=1S/C6H9N3/c1-2-5(1)3-6-4-7-9-8-6/h4-5H,1-3H2,(H,7,8,9)
