18
gdb 121707	7.12006	0.58465	0.54581	1.322	73.7	-0.2703	-0.0231	0.2472	1995.2198	0.14436	-476.241949	-476.231628	-476.230684	-476.278961	34.306	
C	-0.0418416226	 1.4237250401	 0.0783332324	-0.386236
C	 0.0190394666	-0.0902697658	-0.014497312	-0.028557
O	 0.7016815886	-0.436718673	-1.2079629784	-0.22679
C	 0.8130008271	-1.8117687197	-1.3922628226	-0.175944
C	 1.5488230406	-2.0868704553	-2.6873629354	 0.42983
O	 1.9813769701	-1.2831557461	-3.4581399425	-0.312194
O	 1.6427222219	-3.4518921666	-2.8392430187	-0.208368
C	 2.2787239611	-3.9336469945	-3.9567789189	 0.118088
N	 2.363042792	-5.1804685036	-4.0935590229	-0.418932
H	 0.9660971961	 1.8470556695	 0.0959890774	 0.133091
H	-0.5729437239	 1.8389878652	-0.7824510017	 0.133107
H	-0.5640358011	 1.7268569574	 0.9904803879	 0.117836
H	 0.5448768675	-0.5146315621	 0.85710064	 0.091915
H	-0.9954493491	-0.5227360085	-0.0217107666	 0.091913
H	 1.3669721247	-2.3067972511	-0.5757831703	 0.127602
H	-0.1683535659	-2.3142999736	-1.4464583192	 0.127567
H	 2.6441789418	-3.1413879644	-4.6103888028	 0.14521
H	 2.8542289144	-5.399249438	-4.9591473356	 0.240863
42.8582	64.8758	94.6816	111.6598	116.3121	144.0602	219.0795	243.7178	321.4346	336.5188	474.6919	546.451	578.7975	747.6082	823.2761	852.4353	907.2572	954.1584	1013.2643	1034.6882	1064.1188	1072.8	1149.7657	1164.9526	1188.1872	1198.3559	1248.5558	1266.1722	1298.1705	1384.5172	1393.9955	1409.2619	1444.9314	1483.2938	1486.276	1499.6097	1531.6674	1748.3795	1871.9431	2954.7223	2965.1756	2980.2597	2987.6769	3048.3309	3123.3163	3126.6625	3139.626	3508.2938
CCOCC(=O)OC=N	CCOCC(=O)O[CH][NH]	
InChI=1S/C5H9NO3/c1-2-8-3-5(7)9-4-6/h4,6H,2-3H2,1H3	InChI=1S/C5H9NO3/c1-2-8-3-5(7)9-4-6/h4,6H,2-3H2,1H3
