17
gdb 58156	3.55793	0.74233	0.63425	0.5841	87.55	-0.2444	-0.0237	0.2207	1714.7665	0.131514	-421.763219	-421.752663	-421.751719	-421.798992	37.819	
C	-0.0955189813	 1.5604761688	-0.0265820811	-0.41114
C	-0.0498654428	 0.0358604223	-0.0396522541	 0.127217
O	 0.5059254352	-0.478469856	-1.2371537628	-0.417911
C	 0.7139072708	-0.5155269698	 1.197863933	-0.121024
O	 0.156330967	-0.028703961	 2.4157917894	-0.412347
C	 0.7812905255	-1.9746564509	 1.1799801608	 0.386311
C	 0.7836749425	-3.1849917949	 1.2061204051	-0.223339
C	 0.7913773513	-4.5450855803	 1.2317734663	 0.283363
C	 0.7967755544	-5.7523273304	 1.2570722925	-0.550885
H	 0.9183716415	 1.976521862	-0.0948093457	 0.10657
H	-0.6731721998	 1.925460495	-0.8796178831	 0.124708
H	-0.5440542684	 1.9283113986	 0.8985332712	 0.138041
H	-1.0694953775	-0.36718419	-0.0031324686	 0.093257
H	 1.354360967	-0.0449105995	-1.3831768463	 0.281588
H	 1.7345151959	-0.1072163077	 1.1672110552	 0.111396
H	-0.6174317355	-0.567134491	 2.6166772127	 0.290709
H	 0.8031244542	-6.8138588855	 1.2763313854	 0.193485
62.4374	68.3803	117.3111	191.9848	227.3249	248.7039	266.0215	277.7065	286.7158	346.7444	405.0764	441.9292	492.1571	515.4685	524.0041	570.3534	591.3756	607.9181	767.1509	871.5649	940.2839	1035.7433	1065.5676	1110.6117	1140.4389	1174.1822	1233.0931	1274.9286	1319.289	1368.5877	1398.1194	1413.2034	1418.0736	1489.8703	1496.9067	2180.4899	2358.5649	3006.2909	3025.3206	3044.2485	3104.5348	3140.1264	3504.8763	3797.5785	3806.6626
CC(O)C(O)C#CC#C	C[C@@H](O)[C@@H](O)C#CC#C	
InChI=1S/C7H8O2/c1-3-4-5-7(9)6(2)8/h1,6-9H,2H3	InChI=1S/C7H8O2/c1-3-4-5-7(9)6(2)8/h1,6-9H,2H3/t6-,7+/m1/s1
