20
gdb 13630	3.60335	1.16148	1.05755	1.0506	71.69	-0.2567	0.0679	0.3246	1224.7891	0.174431	-386.124825	-386.115165	-386.11422	-386.159562	34.557	
C	-0.1977599244	 1.5169619896	-0.0328230571	-0.385261
C	-0.1018847368	-0.0018631437	-0.1907936759	-0.189177
C	 1.0614097857	-0.441105727	-1.0873391692	 0.09865
O	 2.3254593465	-0.0035158157	-0.5922910286	-0.429982
C	 1.0734016922	-1.9471777564	-1.2688556657	 0.03998
O	 0.0136859455	-2.5250903583	-2.0361179522	-0.266557
C	 1.3569863874	-2.6488769744	-2.5302671691	 0.07926
C	 1.6837627943	-1.9839116521	-3.8417216624	-0.420119
H	 0.739718927	 1.9278059731	 0.3519370926	 0.124426
H	-0.3993211263	 1.9992603883	-0.9956202091	 0.116765
H	-1.0029995654	 1.7933797518	 0.6541003435	 0.111288
H	 0.0177089242	-0.4772746478	 0.7947011354	 0.08201
H	-1.0278853574	-0.4068916326	-0.6146380658	 0.120498
H	 0.9574302738	 0.0441537823	-2.0627081338	 0.089654
H	 2.417527882	-0.3332801178	 0.3089564909	 0.278716
H	 1.2910678065	-2.4878141232	-0.340918219	 0.074465
H	 1.7536820241	-3.6621588648	-2.4337450612	 0.087701
H	 1.2548731233	-0.9826339409	-3.9109085879	 0.130747
H	 2.7689348257	-1.9085615807	-3.9682403315	 0.12855
H	 1.2883728921	-2.5778834395	-4.6723546539	 0.128385
45.8202	104.2031	125.4013	177.2165	200.9909	238.1806	258.4411	283.3895	385.7192	404.349	423.7083	523.2798	553.4059	778.9967	782.7741	853.339	882.8565	976.6139	986.3168	1001.401	1044.6909	1081.3358	1088.8273	1118.415	1144.0581	1171.6925	1186.6065	1246.8419	1285.0231	1299.3653	1332.3399	1379.3511	1399.1661	1405.7731	1415.4905	1421.0977	1469.7168	1484.0314	1491.1494	1496.3947	1508.6144	1513.8659	2997.9105	3037.9702	3040.9552	3041.8874	3063.2107	3075.2303	3082.2238	3102.4453	3103.7877	3118.9119	3137.3164	3794.0935
CCC(O)C1OC1C	CC[C@@H](O)[C@H]1O[C@H]1C	
InChI=1S/C6H12O2/c1-3-5(7)6-4(2)8-6/h4-7H,3H2,1-2H3	InChI=1S/C6H12O2/c1-3-5(7)6-4(2)8-6/h4-7H,3H2,1-2H3/t4-,5+,6-/m0/s1
