15
gdb 34737	3.5248	1.55388	1.36776	3.0183	75.05	-0.2348	-0.0717	0.1631	935.224	0.113444	-379.551852	-379.545154	-379.54421	-379.582917	26.548	
N	 0.6229422667	-1.0552601972	-0.0355765779	-0.327965
C	 0.3455654021	 0.0669699011	-0.0563573456	 0.289204
C	-0.0072711481	 1.4790749437	-0.0677558903	-0.201826
C	-0.2563285744	 2.2695240926	 1.3022162132	-0.055441
C	 0.3817520328	 3.479894904	 0.7484097815	-0.090086
N	 0.8719823466	 2.9902981077	 2.0173093862	-0.107906
C	 2.3012620507	 2.640343908	 1.7629853417	-0.182518
C	 2.2912153094	 2.1618122638	 0.3171633121	-0.107786
C	 1.1126493533	 2.5273790651	-0.22701839	 0.007015
H	-0.9004655269	 1.6288226016	-0.6846833629	 0.136279
H	-1.1692347885	 2.1713870104	 1.8783331177	 0.127464
H	 0.0080641592	 4.4827620763	 0.5833073309	 0.107291
H	 2.8953773557	 3.5273378258	 2.014019885	 0.130858
H	 2.6399419741	 1.8170514028	 2.4013014294	 0.138681
H	 2.8127660272	 1.2527553643	 0.035258349	 0.136736
116.7655	158.5347	292.3168	398.2749	412.9703	518.4935	548.0372	616.868	697.6843	755.1401	781.0812	807.492	822.8684	874.9783	892.9943	898.4636	936.2774	968.805	1006.9356	1040.9176	1061.563	1080.2836	1134.6273	1193.499	1197.9256	1216.9799	1282.7621	1287.1083	1322.7956	1346.3752	1470.3155	1572.8133	2353.0398	3033.2774	3047.6414	3082.2629	3183.9853	3185.4966	3197.5288
N#CC1C2C3N2CC=C13	N#C[C@H]1[C@@H]2[C@H]3N2C[CH][C]13	
InChI=1S/C7H6N2/c8-3-5-4-1-2-9-6(4)7(5)9/h1,5-7H,2H2	InChI=1S/C7H6N2/c8-3-5-4-1-2-9-6(4)7(5)9/h1,5-7H,2H2/t5-,6+,7-,9?/m1/s1
