18
gdb 61535	3.53595	0.92332	0.86427	3.0015	72.62	-0.2707	0.0017	0.2725	1367.7984	0.146024	-439.07367	-439.064282	-439.063338	-439.108164	34.823	
O	-0.2637837765	 1.2917422738	-0.0343211907	-0.417057
C	-0.0078178244	-0.1049277858	 0.0280967583	-0.039702
C	 0.6105230553	-0.6740934864	-1.2666457142	-0.302781
C	-0.0778274472	-0.0971467563	-2.4956979643	 0.44091
O	-1.47522011	-0.0322707719	-2.3931959406	-0.475412
C	 0.6071541061	 0.9720205827	-3.3136671622	-0.324969
C	 0.4429768094	-0.4344731685	-3.8572664507	-0.309549
C	 0.8218606032	-0.4432115062	 1.2001830024	 0.269286
N	 1.49823133	-0.6938877738	 2.1029358984	-0.311402
H	 0.5675488705	 1.7490112077	-0.2069803733	 0.299601
H	-0.9930562644	-0.5591767586	 0.1681723277	 0.153715
H	 1.6839688735	-0.4580842335	-1.299772037	 0.115958
H	 0.5030128425	-1.7646779668	-1.2344374276	 0.131301
H	-1.6696544984	 0.7205958604	-1.819648239	 0.293099
H	-0.0260554102	 1.7439204782	-3.7363433731	 0.121781
H	 1.6014627949	 1.3017245256	-3.0293595265	 0.106896
H	 1.3210453519	-1.0664131756	-3.9354222272	 0.117066
H	-0.3008755961	-0.5857629551	-4.6303172306	 0.131259
63.7484	84.493	122.1173	198.5119	255.6118	296.2086	329.3371	348.2391	380.985	443.8719	492.2622	537.5097	572.0283	589.0494	754.4772	778.3821	833.4306	909.6697	924.3808	932.7947	965.9629	995.9847	1042.4845	1054.9754	1079.955	1100.7195	1168.1688	1190.2695	1271.5879	1287.3395	1304.3576	1326.9394	1353.11	1399.5371	1431.0738	1452.8321	1481.3681	1498.66	2355.862	3037.9681	3073.8242	3090.9151	3127.9667	3140.1524	3216.1859	3234.3746	3765.0946	3802.2079
OC(CC1(O)CC1)C#N	O[C@@H](CC1(O)CC1)C#N	
InChI=1S/C6H9NO2/c7-4-5(8)3-6(9)1-2-6/h5,8-9H,1-3H2	InChI=1S/C6H9NO2/c7-4-5(8)3-6(9)1-2-6/h5,8-9H,1-3H2/t5-/m0/s1
