17
gdb 67253	3.08533	1.56556	1.30589	2.9497	72.1	-0.2419	0.0683	0.3101	996.9766	0.135715	-421.736061	-421.72883	-421.727885	-421.767394	29.387	
O	-0.1320863063	 1.4283123217	 0.0204002433	-0.4473
C	 0.0229187365	 0.0716166461	 0.0262051189	 0.380584
C	 0.0338630214	-0.9917410138	-1.0396559943	-0.162662
C	 1.2837159227	-1.6576174745	-0.4616531178	-0.230038
C	 0.9334749145	-0.949497026	 0.8771243595	-0.247231
C	-0.3837745562	-1.6235945734	 1.2869854806	 0.526796
C	-0.6620833624	-2.815441415	 2.0836821433	-0.292812
O	-0.9215311285	-1.4865944242	 2.586610962	-0.296427
C	-1.0434105876	-0.9864935506	 0.0908273747	-0.220131
H	 0.6237742964	 1.8243820277	-0.4285308575	 0.292119
H	-0.2798986451	-0.9136354665	-2.073219581	 0.092966
H	 1.3273505743	-2.752086333	-0.4357219757	 0.095197
H	 2.1969356969	-1.2646640418	-0.9176071144	 0.096813
H	 1.6839546821	-0.7049451694	 1.6252393086	 0.08441
H	-1.5495554422	-3.4139097091	 1.8815788909	 0.114122
H	 0.1510941815	-3.3462638558	 2.5779188338	 0.111933
H	-2.0957456982	-0.8893407625	-0.1393347548	 0.101662
124.341	247.6566	277.1209	309.8622	343.6679	377.0237	479.226	490.4948	580.4211	639.8863	713.6732	790.5638	844.4128	874.9866	892.4468	904.0306	921.6143	950.0923	979.8144	999.8947	1009.5828	1063.3842	1091.5071	1106.4173	1115.4924	1137.281	1153.6049	1181.9626	1193.8054	1213.1442	1268.6423	1280.0621	1310.4358	1453.6311	1485.5237	1502.6015	1544.6925	3037.9286	3078.2297	3094.1762	3150.9631	3163.4476	3194.4295	3215.9146	3783.8721
OC12C3CC1C1(CO1)C23	O[C@@]12[C@H]3C[C@@H]1[C@]1(CO1)[C@@H]23	
InChI=1S/C7H8O2/c8-7-3-1-4(7)6(2-9-6)5(3)7/h3-5,8H,1-2H2	InChI=1S/C7H8O2/c8-7-3-1-4(7)6(2-9-6)5(3)7/h3-5,8H,1-2H2/t3-,4+,5-,6+,7-/m0/s1
