18
gdb 97811	3.55602	0.63734	0.58367	1.642	79.09	-0.2474	0.0168	0.2641	1884.2602	0.146464	-439.009952	-438.999869	-438.998925	-439.047443	34.924	
O	 0.0456294193	 1.4077164104	-0.5784043735	-0.400771
C	 0.0187984783	 0.1888141699	 0.150967371	-0.195077
C	-1.302130876	-0.4370534117	 0.1949628396	 0.101209
C	-2.3962157466	-0.9430516955	 0.1691667437	 0.105518
C	-3.7142360424	-1.515011584	 0.1901961271	-0.268638
N	-4.1696779925	-2.2627743599	-1.0116820048	-0.334004
C	-3.9673927172	-2.990673727	 0.2476902323	-0.019904
C	-2.8570525415	-4.0138781253	 0.2011860555	-0.074714
O	-3.2226281727	-5.1172110102	-0.6098726463	-0.420092
H	-0.346993662	 1.2350569565	-1.4406207253	 0.288956
H	 0.7477221813	-0.5347108695	-0.2481735309	 0.120903
H	 0.3495069563	 0.4414318092	 1.1646316355	 0.141527
H	-4.4605530165	-0.8987402597	 0.6878225119	 0.113645
H	-5.1574913018	-2.0768396588	-1.1646369455	 0.239841
H	-4.856541625	-3.2995726532	 0.7945263746	 0.097812
H	-1.9348998169	-3.5346618619	-0.1544083054	 0.102752
H	-2.6661104007	-4.4129508555	 1.2026350696	 0.110701
H	-3.4127292535	-4.7529979537	-1.4825127691	 0.290335
16.7462	61.1038	75.5231	107.893	169.9174	219.1537	288.8102	335.8479	355.0535	430.4873	454.6252	501.0573	588.2223	597.3826	746.0975	817.6255	882.7529	914.7469	967.4854	986.9581	999.6292	1044.219	1069.9726	1093.6626	1150.6356	1174.8769	1214.1046	1218.1765	1257.6965	1274.5867	1358.6971	1362.8716	1395.9108	1418.5479	1432.8684	1459.6919	1489.5904	1498.713	2356.4268	2976.6029	3017.0824	3062.1006	3081.873	3119.8269	3130.9891	3504.5486	3792.6967	3815.9913
OCC#CC1NC1CO	OCC#C[C@H]1N[C@H]1CO	
InChI=1S/C6H9NO2/c8-3-1-2-5-6(4-9)7-5/h5-9H,3-4H2	InChI=1S/C6H9NO2/c8-3-1-2-5-6(4-9)7-5/h5-9H,3-4H2/t5-,6+/m1/s1
