19
gdb 75526	2.0991	1.65622	1.01966	4.2037	78.21	-0.2384	0.0025	0.241	1190.2669	0.159418	-423.066258	-423.057529	-423.056585	-423.100151	32.418	
C	-0.0922484467	 1.5269694043	 0.0170718337	-0.47948
C	-0.0152207832	 0.0281817895	-0.042811127	 0.320506
C	-0.0763973898	-0.6710603827	-1.1757337436	-0.165157
C	 0.0529210423	-2.1728778031	-1.1828509247	-0.280833
C	 1.430852294	-2.6447115833	-0.7208773094	-0.04028
O	 1.7954637338	-2.4505938424	 0.6569753464	-0.234465
C	 1.4325664195	-1.456965805	 1.503445844	 0.398839
O	 2.1145559643	-1.2630600753	 2.4738074346	-0.308095
C	 0.1234933426	-0.7028605363	 1.2810227943	-0.422927
H	 0.8066654187	 1.9484346945	 0.4842562058	 0.138046
H	-0.1990429874	 1.964725629	-0.9787535528	 0.123781
H	-0.9422509919	 1.8542344586	 0.6294944372	 0.129592
H	-0.1890049754	-0.1595006776	-2.1276757535	 0.088545
H	-0.7236117278	-2.6443602233	-0.5640835689	 0.116798
H	-0.0843387365	-2.5646887528	-2.1962131766	 0.111599
H	 1.5230176841	-3.7257910816	-0.8638355894	 0.119215
H	 2.2022814122	-2.1569990067	-1.3295780879	 0.117405
H	 0.0457958828	-0.0126374243	 2.1214509742	 0.132185
H	-0.6897726356	-1.4347465717	 1.3851872235	 0.134727
69.2986	72.9215	146.9968	214.4208	293.3913	302.6292	350.6424	386.1605	476.0836	496.6146	565.9138	588.3975	648.8131	791.8521	833.6467	850.2605	897.909	949.9392	958.7288	1010.8386	1055.6747	1067.3769	1083.2563	1117.269	1146.4099	1210.6797	1228.8844	1262.8091	1302.2629	1322.2546	1358.2184	1369.5976	1414.1181	1440.3742	1461.8343	1477.6415	1481.7429	1490.2723	1506.4842	1743.9121	1826.5111	3008.7118	3016.0527	3018.6426	3029.2342	3066.2708	3075.4282	3083.0815	3115.0739	3127.4969	3163.4391
CC1=CCCOC(=O)C1	CC1=CCCOC(=O)C1	
InChI=1S/C7H10O2/c1-6-3-2-4-9-7(8)5-6/h3H,2,4-5H2,1H3	InChI=1S/C7H10O2/c1-6-3-2-4-9-7(8)5-6/h3H,2,4-5H2,1H3
