20
gdb 8077	3.5219	2.13578	1.705	0.1782	79.27	-0.2294	0.0245	0.254	858.1035	0.179164	-311.87538	-311.868437	-311.867493	-311.905747	29.106	
C	-0.0495683401	 1.5461622227	-0.0122304397	-0.497537
C	 0.0263978268	 0.0308560412	-0.001371077	 0.313013
C	 1.0844831457	-0.6981616773	-0.8943607679	-0.243741
C	 1.0859828534	-1.8144171823	 0.189031497	-0.026182
C	 0.6997379095	-0.7023768797	 1.2058650947	-0.24374
C	-0.0979280172	-2.773089903	-0.0297731308	-0.250494
C	-1.3660353843	-1.9830996788	-0.260496318	-0.08011
C	-1.3105056701	-0.6514425219	-0.2476527728	-0.082679
H	 0.933994015	 1.9920036812	 0.1687270182	 0.107976
H	-0.4144119643	 1.917507078	-0.977352916	 0.11369
H	-0.7329176793	 1.9139979615	 0.7624958247	 0.113692
H	 0.7909704145	-0.9609097465	-1.9143342937	 0.08869
H	 2.035900343	-0.1573812688	-0.9090857597	 0.087701
H	 2.0163253284	-2.3617601435	 0.3583638643	 0.056692
H	 1.5837664081	-0.1623356909	 1.5590001004	 0.087701
H	 0.0639033021	-0.9688741733	 2.0545263264	 0.08869
H	 0.0999860663	-3.4340405835	-0.8859349418	 0.102045
H	-0.2158902939	-3.4374976771	 0.8383777655	 0.102045
H	-2.2952716946	-2.5191420806	-0.4318048568	 0.083694
H	-2.1914035189	-0.0351265376	-0.407794277	 0.078853
214.3706	233.5154	290.707	320.7783	366.6925	441.8242	470.5415	489.2669	633.3255	695.4475	716.9628	825.0023	837.333	866.8045	908.1912	920.9195	924.1455	937.7302	977.5372	1019.8978	1021.6138	1027.5387	1086.2331	1101.9215	1121.6918	1171.582	1185.6314	1223.9571	1226.2508	1270.9141	1282.7126	1283.8917	1326.686	1363.4027	1406.2409	1412.4499	1471.1248	1471.319	1492.5627	1493.0023	1505.202	1700.2194	2998.5098	3019.3586	3022.176	3039.7504	3045.7923	3075.0336	3081.7138	3094.7963	3100.9691	3104.06	3149.6315	3175.0114
CC12CC(C1)CC=C2	C[C@@]12C[C@@H](C1)CC=C2	
InChI=1S/C8H12/c1-8-4-2-3-7(5-8)6-8/h2,4,7H,3,5-6H2,1H3	InChI=1S/C8H12/c1-8-4-2-3-7(5-8)6-8/h2,4,7H,3,5-6H2,1H3/t7-,8+
