16
gdb 45761	3.12874	1.3669	1.00517	1.7027	69.09	-0.2683	-0.0283	0.24	1140.0021	0.125114	-437.916147	-437.908524	-437.90758	-437.949156	28.152	
O	 0.1364200626	 0.0478909977	 0.0376383455	-0.308242
C	 0.0609293585	 1.2341160083	 0.0467679815	 0.42775
O	-1.1634098251	 1.9094804531	 0.0220605213	-0.205469
C	-0.8435972531	 3.2466803463	 0.0408221245	 0.114816
N	 0.3742950366	 3.5882034858	 0.0723197521	-0.244295
C	 1.1330729897	 2.3295685555	 0.0890392887	-0.160509
C	 2.0498524748	 2.2029047122	 1.2861788174	 0.03683
C	 3.2141330575	 1.2477717315	 1.2294341711	-0.257767
C	 3.4566505705	 2.7354111176	 1.2128394063	-0.274739
H	-1.6997100593	 3.9107144683	 0.0266712806	 0.157638
H	 1.7325041361	 2.2589169036	-0.8275693296	 0.129007
H	 1.5386208749	 2.2999528163	 2.2392431466	 0.096528
H	 3.4547217322	 0.6901592846	 2.1268531407	 0.121823
H	 3.368034844	 0.6922295155	 0.3110008004	 0.125038
H	 3.7762365393	 3.1923820062	 0.2824130832	 0.12082
H	 3.8660092407	 3.2046842575	 2.0998651097	 0.120771
59.6005	99.2997	149.9537	262.5556	300.6579	376.8267	521.061	547.6713	662.7241	707.0917	768.8433	824.131	859.045	865.463	886.7592	935.6189	952.8669	968.5875	1046.4751	1062.6139	1070.9994	1079.5824	1131.2962	1143.7605	1183.9212	1193.3334	1228.645	1262.1178	1275.2218	1341.3592	1407.625	1472.8903	1507.2625	1696.8156	1920.6423	3035.1222	3138.1853	3143.8981	3154.0054	3217.4726	3224.6261	3232.0824
O=C1OC=NC1C1CC1	O=C1OC=N[C@H]1C1CC1	
InChI=1S/C6H7NO2/c8-6-5(4-1-2-4)7-3-9-6/h3-5H,1-2H2	InChI=1S/C6H7NO2/c8-6-5(4-1-2-4)7-3-9-6/h3-5H,1-2H2/t5-/m0/s1
