20
gdb 114797	3.5349	1.23664	1.08749	1.0498	80.47	-0.2145	0.0227	0.2373	1187.5383	0.172078	-403.116338	-403.108185	-403.107241	-403.149401	31.024	
C	-0.5765810463	 1.7964195498	 0.0525328881	-0.237927
O	-0.4063343718	 0.5319804805	 0.6537785029	-0.237587
C	-1.2744303896	-0.4416240789	 0.1475098072	 0.136926
C	-0.9512056658	-1.0874501201	-1.2281102136	-0.216213
N	-1.1197825401	-2.4406601904	-0.6295470308	-0.098118
C	 0.0360395323	-3.3422162463	-0.779453502	-0.222122
C	 0.9120934923	-3.0387514078	 0.4181316745	-0.077776
C	 0.3065345483	-2.1987626995	 1.2556993447	-0.058674
C	-1.0679796388	-1.8507339973	 0.7491546369	-0.087344
H	 0.1180513452	 2.4845058626	 0.5399524101	 0.128258
H	-0.3538310183	 1.7740559854	-1.0249166218	 0.109675
H	-1.6033316644	 2.1727089303	 0.1840491489	 0.105942
H	-2.3181595746	-0.1009948829	 0.2162097641	 0.068921
H	-1.6294291718	-0.8833024675	-2.0625760384	 0.098112
H	 0.0808482083	-0.8665089759	-1.5341347895	 0.098999
H	-0.2790402541	-4.3962641518	-0.7913121476	 0.105508
H	 0.5373152413	-3.1558231712	-1.738829598	 0.104682
H	 1.8894108222	-3.4847278161	 0.5644213583	 0.095938
H	 0.6998363961	-1.8360213813	 2.1966992767	 0.104094
H	-1.8590467204	-2.1883177016	 1.4315957395	 0.078707
78.3303	106.2603	153.1218	202.0643	280.2644	354.0123	419.5036	447.9488	511.4844	689.5159	704.33	758.5778	805.9855	816.8532	876.2564	933.5766	951.8536	961.4339	978.4902	1030.5212	1053.697	1072.5453	1087.2716	1105.5293	1125.397	1178.5117	1184.0341	1187.3989	1226.7061	1235.0111	1251.5094	1275.3359	1299.6164	1313.718	1340.3833	1356.522	1395.399	1482.4938	1487.5898	1493.999	1505.9266	1508.1003	1672.353	2973.6648	2989.3847	2990.9806	3006.6818	3014.2254	3022.6175	3030.3748	3071.7703	3116.3618	3193.2325	3224.895
COC1CN2CC=CC12	CO[C@H]1CN2CC=C[C@@H]12	
InChI=1S/C7H11NO/c1-9-7-5-8-4-2-3-6(7)8/h2-3,6-7H,4-5H2,1H3	InChI=1S/C7H11NO/c1-9-7-5-8-4-2-3-6(7)8/h2-3,6-7H,4-5H2,1H3/t6-,7-/m0/s1
