17
gdb 33018	5.05452	0.92154	0.78868	3.5786	77.25	-0.2466	-0.0364	0.2102	1415.8532	0.137482	-418.043686	-418.035383	-418.034439	-418.078382	29.116	
C	 0.5275846136	 1.4357131494	-0.015652202	-0.228406
O	 0.7657476619	 0.0473483409	 0.0227126277	-0.230813
C	 0.0287720153	-0.6082967146	 1.0243515511	-0.155281
C	 0.3033690195	-2.0888912983	 0.9685526871	 0.176004
C	-0.078848373	-2.9419988577	 2.0018408518	-0.036416
N	 0.1273046302	-4.258488542	 1.9722850365	-0.250765
C	 0.7370258951	-4.7246699599	 0.8799379099	 0.074057
N	 1.1587427054	-4.0160040554	-0.1663683749	-0.252119
C	 0.9366241288	-2.6994169235	-0.1122510853	-0.027751
H	 0.8081374233	 1.9220565212	 0.9314436314	 0.110464
H	 1.1396902781	 1.8475817651	-0.8207222374	 0.135623
H	-0.5308210634	 1.6610925943	-0.2189368943	 0.110379
H	 0.2886852891	-0.2150863871	 2.0229176573	 0.104678
H	-1.052325702	-0.4222120816	 0.8896370473	 0.108765
H	-0.5696831965	-2.5493765815	 2.8922202639	 0.108898
H	 0.9100998421	-5.7975736398	 0.8428836014	 0.118856
H	 1.2772881223	-2.1033005495	-0.9523838617	 0.133827
20.3893	78.7302	145.3576	212.3883	228.8183	345.1065	384.0297	414.799	441.8948	640.6285	659.8656	755.4539	845.4528	917.7723	999.9482	1007.0876	1011.2738	1057.6964	1060.5187	1138.8913	1164.0312	1185.0691	1211.0168	1225.9338	1240.9656	1259.9811	1263.5435	1368.7835	1411.639	1454.7431	1465.9823	1482.6158	1486.3634	1498.9376	1523.0128	1599.5501	1630.0864	2937.1125	2959.3261	2976.766	3023.0408	3124.0502	3130.1497	3165.6273	3193.2365
COCC1=CN=CN=C1	COCc1cncnc1	
InChI=1S/C6H8N2O/c1-9-4-6-2-7-5-8-3-6/h2-3,5H,4H2,1H3	InChI=1S/C6H8N2O/c1-9-4-6-2-7-5-8-3-6/h2-3,5H,4H2,1H3
