18
gdb 96808	2.36874	1.42773	0.94617	1.6643	76.31	-0.2422	0.0057	0.2479	1241.738	0.147712	-435.336062	-435.326533	-435.325589	-435.37146	33.632	
C	-0.0448295696	 1.4006516556	 0.0549518093	-0.342286
N	 0.0040471906	-0.0530581282	 0.0354553645	-0.316467
C	 0.5573057075	-0.6107775637	-0.9571367632	 0.426071
N	 1.1555460151	-0.0602354069	-2.0787236684	-0.414714
C	 1.6725980242	-1.0246222597	-2.961234803	 0.455784
O	 2.2771811665	-0.8012701345	-3.9822934715	-0.399192
N	 1.3319925206	-2.2331273885	-2.4122262183	-0.356448
C	 0.688763872	-2.1278809857	-1.1100094186	-0.061326
C	 1.4812559591	-2.761654943	 0.0357555226	-0.390777
H	 0.9596861482	 1.8511999684	 0.0663632805	 0.113439
H	-0.5833884104	 1.8120102611	-0.8127672023	 0.113447
H	-0.5655700956	 1.7350686512	 0.9550610687	 0.130033
H	 1.2604371983	 0.9210650048	-2.2701988064	 0.271029
H	 1.718917021	-3.0823784203	-2.7852167488	 0.261136
H	-0.317705714	-2.5641035523	-1.1374984157	 0.117205
H	 2.4947681111	-2.3519656507	 0.0787985834	 0.125784
H	 0.9765759516	-2.5485411655	 0.9809005417	 0.151282
H	 1.5483525338	-3.846857012	-0.0908898544	 0.116001
40.2769	64.5784	112.6471	166.4932	192.4335	242.6141	292.0246	327.7114	431.4673	445.6827	486.7984	555.7262	632.6617	672.734	732.8404	765.689	828.9819	951.5136	1000.3308	1025.621	1055.2672	1095.5067	1113.1141	1141.8459	1166.9872	1212.2353	1299.8296	1348.3937	1354.8954	1390.9063	1406.1012	1421.1671	1437.9095	1491.5294	1492.8028	1495.8909	1506.3525	1784.2677	1870.5557	2972.9449	3020.5571	3025.0365	3041.3972	3106.6154	3113.826	3136.1823	3682.302	3684.8895
CN=C1NC(=O)NC1C	CN=C1NC(=O)N[C@H]1C	
InChI=1S/C5H9N3O/c1-3-4(6-2)8-5(9)7-3/h3H,1-2H3,(H2,6,7,8,9)	InChI=1S/C5H9N3O/c1-3-4(6-2)8-5(9)7-3/h3H,1-2H3,(H2,6,7,8,9)/t3-/m0/s1
