18
gdb 27257	3.18178	1.48563	1.04102	1.6053	79.68	-0.1767	0.0378	0.2145	1132.0549	0.150621	-401.985177	-401.977445	-401.976501	-402.017213	30.312	
N	 0.1283026628	 1.3855805443	 0.128498486	-0.595708
C	-0.0559754207	 0.0103840364	 0.026621603	 0.189764
C	-1.1389522974	-0.8109909204	 0.0214684028	 0.194802
C	-2.6400145412	-0.8036120181	 0.0429156005	-0.365571
C	-2.9713543977	-2.2596445698	-0.4129374888	-0.1948
C	-1.7506647385	-3.143627972	-0.0102157924	-0.349816
C	-0.6241854053	-2.1499173503	-0.0136132852	 0.268427
C	 0.7236124055	-2.0639754938	-0.0334258831	-0.218922
O	 1.086613024	-0.7261830181	-0.0078101725	-0.18356
H	 0.9664410255	 1.6959082891	-0.3480091616	 0.252596
H	-0.6749546068	 1.90534077	-0.1987452232	 0.25204
H	-3.0316785492	-0.6138847611	 1.0518729966	 0.10705
H	-3.1018083821	-0.0606199238	-0.6170395808	 0.096124
H	-3.9126918581	-2.6273708433	 0.0043562487	 0.094738
H	-3.0717461798	-2.2727301699	-1.5033935429	 0.106601
H	-1.893222033	-3.5662854564	 0.9929546046	 0.111662
H	-1.6095753041	-3.9871431939	-0.6923996852	 0.107864
H	 1.544567826	-2.7584252289	-0.0714796067	 0.126709
137.7437	159.3543	184.8005	266.4426	272.3194	345.3373	517.0768	560.2352	593.0178	617.5881	647.5942	672.458	706.3895	744.608	801.1615	848.6827	889.1754	904.9306	986.4044	999.2221	1059.5418	1064.5605	1111.3243	1146.895	1201.4895	1215.4754	1231.7119	1270.079	1302.3773	1314.2625	1334.7955	1348.0811	1439.543	1484.0552	1488.9463	1504.8212	1625.4317	1643.1242	1709.2782	3006.2658	3020.9945	3042.899	3056.8875	3078.8069	3099.8488	3286.57	3535.9431	3636.6094
NC1=C2CCCC2=CO1	Nc1c2CCCc2co1	
InChI=1S/C7H9NO/c8-7-6-3-1-2-5(6)4-9-7/h4H,1-3,8H2	InChI=1S/C7H9NO/c8-7-6-3-1-2-5(6)4-9-7/h4H,1-3,8H2
