19
gdb 58928	2.85272	1.57775	1.22972	1.5657	74.71	-0.2331	0.058	0.2912	1060.0285	0.157979	-422.931517	-422.923286	-422.922342	-422.964371	32.141	
C	-0.0300397894	 1.4943351119	-0.1707810439	-0.410724
C	-0.046206323	-0.0232071727	-0.0026798819	-0.042198
O	 0.6805201234	-0.4557192629	 1.1441667611	-0.419728
C	-1.4539414022	-0.5637658001	 0.0487334531	 0.502914
O	-2.3848627957	-0.2006391901	-1.0228213495	-0.370023
C	-3.1584266014	-1.0536078521	-0.1290852556	 0.082854
C	-1.9854517974	-2.0307986099	 0.1815897137	-0.135369
C	-2.1951833241	-1.9010493573	 1.705120492	-0.277505
C	-2.5384563753	-0.4865717959	 1.184800318	-0.155465
H	 0.9995419419	 1.8542050804	-0.2439024843	 0.12289
H	-0.5796279054	 1.78619412	-1.0692869094	 0.146543
H	-0.5102554275	 1.9826472933	 0.6861795086	 0.107616
H	 0.4638713062	-0.4877576952	-0.8551956152	 0.103588
H	 0.3648492093	 0.0573291188	 1.8965905589	 0.283809
H	-4.1992431267	-1.2622171978	-0.374695556	 0.094329
H	-1.6746286888	-2.8871205414	-0.4165622346	 0.082846
H	-3.0262088467	-2.472168315	 2.1286716791	 0.09567
H	-1.3022682176	-1.9957252382	 2.3246640631	 0.109428
H	-2.8656121596	 0.4043680243	 1.7223952128	 0.078527
57.0856	163.4244	184.5743	249.5608	302.953	322.481	375.5352	467.745	479.8281	546.3018	638.7472	752.5271	773.9361	821.926	854.1753	887.5791	892.1276	898.6847	925.2787	995.3197	1007.6142	1044.4812	1058.9001	1065.1523	1098.9116	1100.9339	1129.3934	1149.5334	1168.1218	1182.3263	1240.098	1247.0309	1263.3777	1300.6829	1344.7929	1391.5684	1399.9764	1411.0055	1488.852	1495.1208	1509.2324	3029.5409	3043.7433	3058.9128	3105.0455	3108.5877	3119.2351	3127.1537	3132.2763	3133.5022	3799.7236
CC(O)C12OC3C1CC23	C[C@@H](O)[C@@]12O[C@H]3[C@@H]1C[C@@H]23	
InChI=1S/C7H10O2/c1-3(8)7-4-2-5(7)6(4)9-7/h3-6,8H,2H2,1H3	InChI=1S/C7H10O2/c1-3(8)7-4-2-5(7)6(4)9-7/h3-6,8H,2H2,1H3/t3-,4-,5+,6-,7+/m1/s1
