13
gdb 13050	4.35591	1.39846	1.11622	3.0929	56.61	-0.2703	-0.0196	0.2507	997.7279	0.094908	-435.742265	-435.734762	-435.733817	-435.775572	25.201	
N	 0.0150305073	 1.2319752188	-0.0118706969	-0.427409
C	-0.053902825	-0.0126163233	-0.1812073006	 0.125808
O	-1.1003792793	-0.6941245847	 0.3611102825	-0.192595
C	-1.0915177906	-2.0877502373	 0.1770578518	-0.068102
C	-2.406514757	-2.7755257783	 0.5634156816	-0.107454
O	-2.5487777171	-3.2872943016	-0.8048422919	-0.23226
C	-1.4369971797	-2.6152531612	-1.2354885839	 0.441221
O	-0.9978551605	-2.5293787118	-2.3348589655	-0.311873
H	 0.8413767048	 1.6036371397	-0.4756415898	 0.239001
H	 0.6421907986	-0.6487479796	-0.7397053908	 0.115422
H	-0.1911693702	-2.5503426619	 0.5972771629	 0.126807
H	-2.3468456787	-3.5941316451	 1.2809681328	 0.138167
H	-3.2117566925	-2.0820842837	 0.8083758076	 0.153268
45.9081	77.7538	120.0287	197.8111	276.6801	393.4034	494.6423	569.6349	738.8397	767.4781	825.1952	865.7895	936.684	962.9806	1029.2712	1038.9503	1099.8186	1128.0935	1156.4038	1190.2198	1235.8242	1277.3597	1330.4173	1386.0721	1425.4799	1508.6934	1752.4371	1943.6585	3046.3117	3062.7999	3091.3179	3160.6442	3523.0442
N=COC1COC1=O	[NH][CH]O[C@H]1COC1=O	
InChI=1S/C4H5NO3/c5-2-8-3-1-7-4(3)6/h2-3,5H,1H2	InChI=1S/C4H5NO3/c5-2-8-3-1-7-4(3)6/h2-3,5H,1H2/t3-/m0/s1
