22
gdb 120577	3.88813	0.73837	0.69053	0.987	91.26	-0.2347	0.0395	0.2741	1741.0303	0.191559	-367.166744	-367.156031	-367.155087	-367.202806	39.191	
C	 0.0749840086	 1.5454848445	-0.1644863446	-0.383007
C	 0.1791037173	 0.0222022556	-0.0587302632	-0.157998
C	 0.4298289628	-0.4630661542	 1.3762260515	-0.189861
C	 0.5331281573	-1.9692941988	 1.4525433015	-0.042412
N	 1.8208069203	-2.5830846487	 1.1016147032	-0.366208
C	 1.3147983956	-2.7229271595	 2.493432463	 0.121831
C	 2.1340184231	-2.0323558684	 3.5690829867	-0.457388
C	 0.7852950497	-4.0102256556	 2.8756798189	 0.280851
C	 0.3656049432	-5.0901944732	 3.2011476148	-0.456291
H	 0.9967039939	 2.0297193565	 0.1768014308	 0.115977
H	-0.1037694015	 1.8619837398	-1.1968089578	 0.112243
H	-0.7468630612	 1.9315263004	 0.4491137776	 0.112818
H	-0.742496815	-0.4365387379	-0.4412698795	 0.092108
H	 0.9925815981	-0.3415486981	-0.6979491414	 0.111333
H	 1.3495864083	-0.006185218	 1.7544409002	 0.102774
H	-0.3868517451	-0.1263422333	 2.0291243306	 0.097278
H	-0.3603314048	-2.4889288853	 1.1069619824	 0.088739
H	 1.67809409	-3.4536882354	 0.5961022147	 0.236442
H	 2.5718951163	-1.1087164983	 3.188687437	 0.130846
H	 1.5137421285	-1.8020224608	 4.4406781943	 0.124682
H	 2.9490884999	-2.6851996185	 3.8952138738	 0.12979
H	-0.0120542253	-6.0404956328	 3.4869875953	 0.195452
58.7867	79.7407	99.5402	152.8514	167.5882	195.5856	245.5214	262.3385	315.4352	361.3191	401.4651	479.5961	552.4174	579.6992	600.5261	650.0455	681.5216	746.4846	813.5178	847.11	900.0567	909.1573	974.1463	994.7851	1049.5256	1075.702	1097.8613	1102.1323	1113.9711	1139.3348	1230.2359	1273.4794	1290.1245	1304.9038	1325.962	1335.7504	1384.9715	1411.4252	1413.9913	1452.996	1472.3769	1486.1685	1492.4125	1498.4548	1499.935	1509.3387	2228.9502	3016.725	3021.4185	3029.0566	3047.0887	3054.8224	3081.0689	3096.7838	3101.7666	3111.4486	3111.5446	3144.9879	3502.4731	3506.3377
CCCC1NC1(C)C#C	CCC[C@H]1N[C@]1(C)C#C	
InChI=1S/C8H13N/c1-4-6-7-8(3,5-2)9-7/h2,7,9H,4,6H2,1,3H3	InChI=1S/C8H13N/c1-4-6-7-8(3,5-2)9-7/h2,7,9H,4,6H2,1,3H3/t7-,8-/m1/s1
