16
gdb 125234	3.27267	1.3752	0.97465	4.3693	78.13	-0.2011	-0.0222	0.179	1163.9084	0.125852	-434.117543	-434.109122	-434.108178	-434.150938	31.595	
C	 0.0413408074	 1.4953056822	 0.0060783662	-0.494847
C	-0.0354286819	-0.0061716464	 0.0021379278	 0.432757
C	-1.1923412362	-0.7214369951	 0.184924367	-0.362716
C	-1.1679744247	-2.1511343818	 0.1774595956	 0.360626
O	-2.128519496	-2.9139713918	 0.3032056413	-0.422508
C	 0.2001523395	-2.7179128093	-0.0215722775	 0.288034
N	 0.2529701605	-4.073169379	 0.0239030869	-0.542531
N	 1.2851356255	-2.0159782272	-0.2122397873	-0.31036
N	 1.1244257716	-0.6666653465	-0.190350023	-0.293436
H	 0.6148020525	 1.8604324537	 0.8656134536	 0.146651
H	 0.5251259476	 1.8720356146	-0.9019073518	 0.14039
H	-0.9601565825	 1.9236353165	 0.0605219379	 0.15215
H	-2.135828218	-0.2107570912	 0.3293065652	 0.106488
H	-0.6537973657	-4.5159259948	-0.0203785066	 0.272458
H	 1.0594120816	-4.5481818874	-0.3431209794	 0.257514
H	 1.9842056289	-0.1626829367	-0.333514226	 0.269331
40.9984	126.2674	190.3605	296.0014	320.8356	350.8394	362.4419	470.6767	482.1031	513.1777	525.637	552.9143	599.5674	623.5003	708.6332	800.2499	808.8471	865.7529	974.0375	1040.8173	1060.3086	1080.4593	1186.5885	1238.0803	1274.9436	1403.2069	1411.8413	1420.544	1479.4577	1482.2614	1556.6007	1578.3965	1620.0948	1655.6351	1718.485	3035.1041	3089.953	3144.2249	3212.884	3572.7958	3647.8028	3719.4847
CC1=CC(=O)C(N)=NN1	Cc1cc(=O)c(N)n[nH]1	
InChI=1S/C5H7N3O/c1-3-2-4(9)5(6)8-7-3/h2H,1H3,(H2,6,8)(H,7,9)	InChI=1S/C5H7N3O/c1-3-2-4(9)5(6)8-7-3/h2H,1H3,(H2,6,8)(H,7,9)
