21
gdb 79401	2.47599	1.51312	1.38932	1.8635	82.55	-0.2231	0.0851	0.3082	1098.1071	0.180187	-387.019255	-387.010236	-387.009292	-387.052192	35.047	
C	-0.126268287	 1.6303606067	-0.0086300017	-0.42125
C	-0.0524536061	 0.1094767822	-0.001543262	-0.068489
C	 1.1430808832	-0.5854730821	-0.6940546029	-0.146618
C	 2.0778336424	-0.3725254409	 0.5318834407	 0.034824
O	 2.4824993929	-1.7682287593	 0.6316277159	-0.368759
C	 1.0640909297	-1.8208571508	 0.2618101601	 0.427829
C	 0.4127278553	-3.1543410314	 0.082372903	-0.5299
C	 0.6670669784	-0.6009647135	 1.1753837994	 0.266416
C	 0.3357273861	-0.6438144561	 2.6394159839	-0.533702
H	 0.8396161411	 2.083211949	 0.2403470512	 0.113246
H	-0.424503691	 2.0067621718	-0.9932854789	 0.116788
H	-0.8613158199	 1.9946911114	 0.7177055215	 0.116135
H	-1.0282250943	-0.325422883	-0.2527628604	 0.062322
H	 1.4376176606	-0.5941736127	-1.7443466207	 0.073022
H	 2.826811629	 0.3946954732	 0.7250107024	 0.088169
H	 0.4528201361	-3.731255187	 1.0117818539	 0.133273
H	-0.6365853533	-3.0319048061	-0.2043296342	 0.12768
H	 0.9203683871	-3.7270712298	-0.6999526148	 0.135383
H	 1.0812877345	-1.2418815659	 3.1742500416	 0.134087
H	 0.3274391797	 0.3601592922	 3.0779184036	 0.121296
H	-0.6497634945	-1.0904201081	 2.8134995083	 0.118245
164.2997	177.52	190.3272	197.3318	210.1218	218.8055	270.6675	304.9604	393.1212	522.1995	551.782	653.4925	684.2518	734.2648	737.2071	795.3172	824.6295	834.7632	890.2241	919.9996	958.4826	1006.3787	1046.766	1059.8215	1081.7105	1118.8107	1138.3002	1143.7002	1151.3702	1168.7171	1214.0116	1245.2534	1276.9712	1319.5453	1367.2716	1399.0135	1407.3282	1413.3407	1421.0177	1473.6124	1487.4143	1491.4147	1492.9433	1494.752	1501.5095	3021.7812	3025.2235	3027.3214	3036.4911	3088.7119	3090.1533	3095.8976	3099.2476	3107.7294	3108.3944	3111.444	3125.7876
CC1C2C3OC2(C)C13C	C[C@H]1[C@H]2[C@@H]3O[C@@]2(C)[C@]13C	
InChI=1S/C8H12O/c1-4-5-6-7(4,2)8(5,3)9-6/h4-6H,1-3H3	InChI=1S/C8H12O/c1-4-5-6-7(4,2)8(5,3)9-6/h4-6H,1-3H3/t4-,5-,6-,7+,8+/m0/s1
