21
gdb 115408	5.02352	0.82047	0.74576	0.8334	85.61	-0.2511	0.0517	0.3028	1564.4695	0.182009	-387.071219	-387.061695	-387.06075	-387.106438	35.387	
C	 0.4727747835	 1.382733504	 0.5520032527	-0.383242
C	 0.1387122892	-0.0235166387	 0.048097937	-0.196888
C	-1.3576108302	-0.2873287164	-0.0518946732	 0.161569
C	-1.745555331	-1.7051841871	-0.5498122779	-0.279041
C	-2.8385157752	-2.1761648299	 0.4586554058	-0.159699
C	-3.167240931	-0.859484819	 1.2085869767	-0.096929
O	-1.9430329884	-0.1614669031	 1.2465138583	-0.256882
C	-3.9946065287	-2.8207998923	-0.1408111469	 0.30902
C	-4.961656767	-3.335137588	-0.6370472299	-0.465634
H	 1.5547347094	 1.5279302159	 0.6255204399	 0.109691
H	 0.0782397114	 2.1486644358	-0.1250331044	 0.111945
H	 0.0352312333	 1.5516717708	 1.5391545793	 0.137096
H	 0.5798094148	-0.1851442339	-0.9434443991	 0.097477
H	 0.574569505	-0.7777410175	 0.7154512777	 0.100225
H	-1.8167050715	 0.4648654721	-0.7162001422	 0.064907
H	-2.1348916861	-1.6786723994	-1.5691032	 0.116927
H	-0.8879979346	-2.3826631663	-0.5361242771	 0.110477
H	-2.3800523498	-2.8631088523	 1.1782995487	 0.110081
H	-3.9380801628	-0.2969400325	 0.6580757319	 0.097528
H	-3.5103015585	-1.0181782224	 2.2332383827	 0.116125
H	-5.8135999417	-3.79650476	-1.07132435	 0.195245
24.4228	109.507	135.442	170.5314	210.4279	241.0413	270.7942	365.9543	447.0256	506.3241	529.3506	569.4309	628.3783	631.5514	652.8582	773.1077	835.3495	860.0277	931.0894	947.8343	986.9302	1032.6236	1037.7472	1064.7389	1091.7317	1108.8725	1133.4354	1147.7819	1216.8249	1243.6011	1288.3436	1296.6182	1307.7187	1327.4594	1335.8362	1359.4172	1394.7284	1407.6257	1414.6163	1475.4233	1496.4714	1496.9826	1508.7799	1514.184	2236.0596	2950.0911	2981.319	3024.4399	3037.1263	3043.3195	3062.3951	3068.9039	3101.8892	3107.3315	3121.0169	3124.8034	3504.9311
CCC1CC(CO1)C#C	CC[C@H]1C[C@@H](CO1)C#C	
InChI=1S/C8H12O/c1-3-7-5-8(4-2)9-6-7/h1,7-8H,4-6H2,2H3	InChI=1S/C8H12O/c1-3-7-5-8(4-2)9-6-7/h1,7-8H,4-6H2,2H3/t7-,8-/m0/s1
