15
gdb 74137	1.9802	1.76471	0.93796	12.3148	75.53	-0.1729	-0.0275	0.1453	1160.9805	0.114579	-453.968011	-453.959866	-453.958922	-454.001125	30.294	
N	-0.0349655238	 0.9746959605	 0.0426130267	-0.477958
H	-0.026875182	-0.0475878567	 0.0224298008	 0.336481
H	 0.9317145573	 1.3082846086	 0.0284434199	 0.327937
H	-0.5126697001	 1.3131235142	-0.7959718975	 0.327938
C	-0.7366785721	 1.4924545392	 1.2750503457	 0.346693
C	-2.0903235541	 1.6854917189	 1.1472440715	-0.447485
C	-2.7990486545	 2.1516032279	 2.3180541745	 0.451735
O	-3.9999171664	 2.3779233537	 2.389144663	-0.421691
N	-1.9674998681	 2.340578513	 3.4364828597	-0.433408
C	-0.5824527332	 2.1448266839	 3.5829350808	 0.451731
O	-0.0317824385	 2.365652984	 4.6536134986	-0.421687
C	 0.0628192663	 1.6787613032	 2.375990475	-0.447485
H	 1.1285296813	 1.4940378745	 2.3943840163	 0.079461
H	-2.649181227	 1.5055802802	 0.2386694971	 0.079464
H	-2.440946165	 2.6689927548	 4.267942068	 0.248272
63.0388	152.0446	181.9093	200.5472	290.5443	371.7067	480.3045	481.0912	509.1869	526.3755	574.011	607.6078	676.1047	694.0619	765.0664	777.1705	908.9503	952.5684	972.7334	1016.3319	1034.4463	1101.7215	1160.211	1270.1781	1358.2465	1375.0943	1428.4382	1484.5797	1615.1316	1644.5232	1677.8428	1750.5202	1761.9035	3212.6898	3215.4733	3402.9694	3497.8158	3500.1624	3601.237
[NH3+]C1=CC(=O)NC(=O)[CH-]1	[NH3]C1=CC(=O)NC(=O)[CH]1	
InChI=1S/C5H5N2O2/c6-3-1-4(8)7-5(9)2-3/h1-2H,6H2,(H,7,8,9)/q-1/p+1	InChI=1S/C5H6N2O2/c6-3-1-4(8)7-5(9)2-3/h1-2H,6H3,(H,7,8,9)
