14
gdb 11891	4.91342	1.67243	1.40751	5.1272	57.95	-0.2784	0.0416	0.3201	862.1624	0.107789	-419.711219	-419.704617	-419.703673	-419.742476	24.482	
O	 0.0563306785	 0.0409316848	-0.1235740711	-0.369499
C	 0.0100770135	 1.225732725	-0.0494898103	 0.490367
O	-1.1199297991	 1.9680577399	-0.1819422017	-0.242236
C	-0.8359718198	 3.3446416	 0.0828731128	-0.168712
C	 0.6835872529	 3.3890332172	 0.0770011091	 0.408137
C	 1.51685518	 4.2947564922	-0.7735021924	-0.323221
C	 1.5248325252	 4.4197387028	 0.7438945426	-0.332641
O	 1.0800835926	 2.0314257931	 0.1833810618	-0.266709
H	-1.2911227888	 3.9584777887	-0.6978399881	 0.135857
H	-1.2645645539	 3.6152807058	 1.0547329338	 0.129348
H	 2.3933762859	 3.8620642189	-1.2417930762	 0.142637
H	 1.0120301558	 5.0582395005	-1.3564274536	 0.125478
H	 1.0271061737	 5.2685594051	 1.2018160154	 0.12712
H	 2.4063567234	 4.070601206	 1.2691945878	 0.144074
65.4256	167.2007	263.3842	302.6298	454.1662	501.6578	545.8988	721.9174	761.4126	771.2368	821.0583	879.9561	913.5852	942.7216	959.5127	1005.1237	1057.5357	1081.8803	1096.1397	1107.1896	1145.6682	1188.029	1219.4756	1286.6277	1364.0833	1414.991	1452.0113	1502.4464	1525.3114	1931.4523	3037.6431	3102.8192	3133.3663	3135.6729	3220.6594	3233.9062
O=C1OCC2(CC2)O1	O=C1OCC2(CC2)O1	
InChI=1S/C5H6O3/c6-4-7-3-5(8-4)1-2-5/h1-3H2	InChI=1S/C5H6O3/c6-4-7-3-5(8-4)1-2-5/h1-3H2
