17
gdb 80816	2.01256	1.68254	1.23937	2.5294	76.15	-0.2464	0.048	0.2944	1073.8078	0.134196	-421.73285	-421.724131	-421.723187	-421.765812	33.489	
O	-0.0310378493	 1.4590458359	-0.0312582602	-0.442317
C	 0.0294041754	 0.0591259784	 0.0169788253	 0.11912
C	-0.0271051108	-0.660321369	 1.4050834203	-0.1867
C	-1.4937707666	-0.1598173681	 1.5216717613	-0.275748
C	-1.3618637657	-0.6568619945	 0.0382457562	 0.214243
C	-2.3645340981	-0.6593643433	-0.9853908816	 0.051655
C	-3.2055575472	-0.6609279529	-1.8453256078	-0.366592
C	-0.6145970018	-1.8851372096	 0.6384318075	 0.104699
O	 0.1811588257	-2.607286176	-0.2634785076	-0.439248
H	 0.8609508808	 1.7941930197	-0.1554283703	 0.288502
H	 0.7450148195	-0.3467222114	-0.7005070636	 0.09386
H	 0.732884283	-0.6691562193	 2.1864461707	 0.071974
H	-2.1669270296	-0.7373341453	 2.1604495664	 0.094344
H	-1.6281679614	 0.9120644535	 1.6416428039	 0.13003
H	-3.9464831409	-0.6610215391	-2.6056676447	 0.175959
H	-1.2532112301	-2.5435877654	 1.2394619171	 0.077942
H	 0.6522009772	-3.2871541536	 0.227640497	 0.288276
119.2506	141.9027	158.8812	229.2108	247.3044	302.2602	345.7454	374.8652	492.4811	524.1501	571.8088	586.4769	628.2313	630.3359	677.4117	784.6882	840.7898	863.6919	938.8884	948.1968	962.5212	1039.4744	1080.1985	1139.3241	1142.2336	1159.8291	1162.8349	1190.36	1211.7317	1229.0878	1267.7518	1296.4608	1320.1247	1428.7655	1450.2366	1516.3924	2235.4401	3033.5855	3072.6565	3094.3803	3117.4326	3176.4337	3503.0857	3826.3544	3842.0293
OC1C2CC1(C#C)C2O	O[C@H]1[C@H]2C[C@]1(C#C)[C@H]2O	
InChI=1S/C7H8O2/c1-2-7-3-4(5(7)8)6(7)9/h1,4-6,8-9H,3H2	InChI=1S/C7H8O2/c1-2-7-3-4(5(7)8)6(7)9/h1,4-6,8-9H,3H2/t4-,5-,6-,7+/m0/s1
