19
gdb 108383	2.27736	1.40093	1.08953	5.6848	80.16	-0.2304	0.0355	0.2658	1193.0892	0.159746	-382.040646	-382.031811	-382.030867	-382.074432	32.867	
C	-0.0095172347	 1.5463276232	-0.247905461	-0.375873
C	 0.0126457232	 0.0507818659	 0.0984051958	-0.302867
C	-1.359228026	-0.5642062917	 0.1264861278	 0.318387
C	-2.4192559442	-0.351358591	 1.2209701823	-0.240934
N	-2.9660480916	-1.7354179545	 0.9929481076	-0.317195
C	-1.8795090191	-1.9846084631	 0.0355880407	-0.092189
C	-2.0523682306	-1.0542923418	-1.1483202049	-0.236046
C	-3.3356594373	-0.575960797	-1.5864123997	 0.313973
N	-4.3549629586	-0.1677061298	-1.9504192932	-0.351403
H	 1.0026183501	 1.9612101782	-0.2552730855	 0.117991
H	-0.4531656514	 1.7151227316	-1.2340983499	 0.129746
H	-0.5974520692	 2.1130204646	 0.4814220876	 0.125205
H	 0.6339462087	-0.4883730085	-0.6275632481	 0.103111
H	 0.4897490325	-0.0949236949	 1.0765417275	 0.103599
H	-1.951923769	-0.2366543017	 2.2041416627	 0.109256
H	-3.1565487805	 0.4428198649	 1.0706589946	 0.130802
H	-2.8588930306	-2.3063670099	 1.8240198625	 0.229771
H	-1.3811020512	-2.9425531011	-0.0623584728	 0.105892
H	-1.3514939404	-1.2400662236	-1.957657254	 0.128774
73.2356	107.1176	140.4701	193.5294	212.5114	298.3801	338.956	381.7777	405.7777	543.2405	605.0606	655.029	763.5913	783.2723	809.2075	826.2408	887.6487	945.7686	982.5994	990.0276	1013.6365	1019.8681	1023.7823	1047.8083	1093.2051	1140.1486	1155.1444	1222.132	1256.1846	1262.4136	1317.3139	1344.2767	1358.4599	1361.9539	1412.8179	1463.2173	1481.4694	1499.0411	1503.4827	1507.2975	2352.6517	3017.708	3038.4406	3043.909	3052.1321	3096.9747	3108.1616	3113.0389	3154.0894	3178.737	3537.5345
CCC12CNC1C2C#N	CC[C@]12CN[C@H]1[C@H]2C#N	
InChI=1S/C7H10N2/c1-2-7-4-9-6(7)5(7)3-8/h5-6,9H,2,4H2,1H3	InChI=1S/C7H10N2/c1-2-7-4-9-6(7)5(7)3-8/h5-6,9H,2,4H2,1H3/t5-,6+,7-/m1/s1
