18
gdb 125376	2.90262	1.34157	0.98719	3.5779	79.17	-0.2182	0.0173	0.2355	1205.1068	0.150105	-398.129618	-398.12123	-398.120285	-398.163383	30.833	
C	 0.1731278104	 1.5770598908	-0.0858578424	-0.514603
C	 0.0469280703	 0.0854398875	-0.0254773461	 0.122701
C	 0.046709737	-0.8067477102	-1.0785448903	-0.102932
N	-0.0949915882	-2.044682441	-0.5467347699	-0.190969
N	-0.1824723957	-2.0291853446	 0.7953292714	-0.321812
C	-0.102954046	-0.7392406679	 1.1227078701	 0.302301
C	-0.172233001	-0.3214512401	 2.540385521	-0.104634
C	-1.2444181438	-0.8657351561	 3.4257112156	-0.228714
N	 0.1473777416	-1.2933662187	 3.6001451642	-0.319211
H	 1.0318313748	 1.935984322	 0.4931144685	 0.133282
H	 0.3075904253	 1.9173533916	-1.116350993	 0.122169
H	-0.7154219362	 2.0793861441	 0.313172546	 0.132006
H	 0.1358699746	-0.6517532128	-2.1427934354	 0.133497
H	-0.1167239295	-2.9267764705	-1.0283894941	 0.273911
H	 0.1932679462	 0.683454061	 2.735614079	 0.085429
H	-1.6448717797	-0.2552188872	 4.2310428907	 0.112828
H	-1.9473549658	-1.5565576928	 2.9688622307	 0.119643
H	 0.2734492957	-2.2005992751	 3.153760254	 0.245107
49.644	95.6449	163.5782	179.3114	261.9036	274.7804	428.4864	475.4118	482.7734	614.0351	659.8034	728.5654	750.3543	787.4771	833.3251	889.5261	952.5933	978.2871	1006.6196	1010.6313	1067.3079	1089.5942	1105.9565	1136.6453	1142.0989	1185.7365	1244.2555	1271.4445	1311.7185	1323.8256	1360.6198	1419.1499	1425.3695	1484.5658	1489.7099	1493.762	1502.713	1524.41	1610.0134	3027.9568	3077.1508	3105.4333	3108.1809	3138.3072	3197.9542	3254.6362	3486.5819	3680.7754
CC1=CNN=C1C1CN1	Cc1c[nH]nc1[C@H]1CN1	
InChI=1S/C6H9N3/c1-4-2-8-9-6(4)5-3-7-5/h2,5,7H,3H2,1H3,(H,8,9)	InChI=1S/C6H9N3/c1-4-2-8-9-6(4)5-3-7-5/h2,5,7H,3H2,1H3,(H,8,9)/t5-/m1/s1
