17
gdb 28491	3.18202	1.33435	0.94653	2.8805	81.17	-0.1983	0.0018	0.2001	1209.0991	0.137036	-418.07703	-418.06841	-418.067466	-418.11055	32.614	
C	-0.0042446829	 1.5026217769	 0.0138622042	-0.466997
C	 0.0256297205	-0.0046372257	 0.0205978552	 0.323851
N	 0.0427618711	-0.6159263499	-1.1683140976	-0.335104
C	 0.0851399695	-1.9484273168	-1.1931963794	-0.069373
C	 0.1143174487	-2.7699926752	-0.0652479413	 0.188975
N	 0.2195092302	-4.160312841	-0.1331054412	-0.598777
C	 0.0859690321	-2.1164455684	 1.175711283	 0.364685
O	 0.0936573659	-2.9098907378	 2.2856458925	-0.452026
C	 0.0425073948	-0.729983309	 1.2150314815	-0.309303
H	 0.9426197269	 1.907423131	-0.3609857513	 0.134432
H	-0.7922740968	 1.864959266	-0.6527045348	 0.1358
H	-0.1755852281	 1.9097359716	 1.0140580105	 0.109035
H	 0.0967280978	-2.41330706	-2.1787334458	 0.090787
H	-0.1641274438	-4.5636815629	-0.9759421106	 0.247169
H	-0.1193915604	-4.6304010157	 0.6944102004	 0.257333
H	 0.0497654164	-2.3564824168	 3.0722396771	 0.300661
H	 0.018219548	-0.2155771461	 2.1723801077	 0.078852
38.9169	137.7289	222.7817	288.7522	300.6173	305.651	345.3398	387.8201	452.2683	460.832	522.9437	575.6839	628.2188	657.1355	759.4835	769.8068	806.8802	853.2243	930.9089	959.5085	1021.0942	1056.4221	1109.9684	1165.3935	1194.0421	1307.5626	1327.4179	1336.643	1367.4039	1409.3622	1440.5527	1476.0072	1495.5796	1542.3461	1623.7905	1639.5379	1661.338	3035.7885	3095.5981	3119.4662	3126.1367	3155.3727	3557.3246	3658.1969	3824.8334
CC1=NC=C(N)C(O)=C1	Cc1ncc(N)c(O)c1	
InChI=1S/C6H8N2O/c1-4-2-6(9)5(7)3-8-4/h2-3H,7H2,1H3,(H,8,9)	InChI=1S/C6H8N2O/c1-4-2-6(9)5(7)3-8-4/h2-3H,7H2,1H3,(H,8,9)
