20
gdb 14515	3.60036	1.77464	1.4956	1.3499	74.93	-0.2549	0.0736	0.3285	938.7067	0.177371	-348.953662	-348.94584	-348.944896	-348.985453	31.098	
C	 0.8409734856	-0.4923947164	 1.2812409309	-0.371318
C	 0.0647231261	-0.0306852339	 0.0421289178	-0.277237
C	-1.3577847125	-0.5920023265	-0.0148768897	 0.491926
O	-2.0943367466	-0.0884798706	 1.0905288179	-0.490812
C	-2.1189010591	-0.6850125352	-1.3897751672	-0.124164
C	-1.2122873799	-1.9027816713	-1.7358080667	-0.236052
C	-1.6296458489	-2.10995151	-0.2505158141	-0.086708
C	-3.0706049699	-1.7108991831	-0.7020402467	-0.227128
H	 1.8175038628	-0.0023498283	 1.3403705075	 0.107487
H	 0.2838953282	-0.2651983238	 2.1937325321	 0.126325
H	 1.0112967267	-1.573868603	 1.2563286313	 0.11789
H	-0.0137882009	 1.067242491	 0.0468025078	 0.081022
H	 0.626857969	-0.2764190136	-0.8616923112	 0.103142
H	-2.0032213114	 0.8699774824	 1.0938105371	 0.275221
H	-2.3968530218	 0.1396940159	-2.0499527969	 0.060787
H	-1.644172692	-2.6168499739	-2.4404260566	 0.093492
H	-0.1603518941	-1.7280688373	-1.9616548418	 0.090752
H	-1.3482826758	-2.933490727	 0.4078073941	 0.068698
H	-3.7404009087	-1.329428809	 0.0643909523	 0.113295
H	-3.5658841868	-2.4173562263	-1.3725591977	 0.083383
85.6039	169.4013	210.3819	288.7473	312.6635	358.0964	437.7148	447.8409	555.2408	579.5781	673.8922	783.5438	793.4309	802.5123	895.7324	899.8508	906.5352	962.1926	995.9279	1014.9542	1017.9943	1041.4907	1077.4105	1083.2198	1110.3078	1112.165	1156.3311	1185.4277	1193.3681	1196.0245	1233.6899	1246.3493	1259.1073	1278.3564	1360.5708	1390.8871	1406.5942	1483.1079	1494.9186	1501.165	1511.5784	1543.1837	2994.1674	3039.6572	3070.0433	3071.043	3086.4547	3091.2271	3101.5673	3104.4989	3123.5707	3138.1007	3170.1608	3809.4542
CCC1(O)C2CC1C2	CC[C@@]1(O)[C@H]2C[C@@H]1C2	
InChI=1S/C7H12O/c1-2-7(8)5-3-6(7)4-5/h5-6,8H,2-4H2,1H3	InChI=1S/C7H12O/c1-2-7(8)5-3-6(7)4-5/h5-6,8H,2-4H2,1H3/t5-,6+,7-
