16
gdb 53762	5.09979	0.53924	0.51473	2.4071	78.91	-0.2611	-0.0563	0.2048	2073.9322	0.121413	-437.897247	-437.887001	-437.886057	-437.935498	33.63	
C	-0.2529851299	 1.4459008777	-0.0891269192	-0.478991
C	-0.1705185867	-0.0638363591	-0.0116372468	 0.254317
O	-0.3186233294	-0.685566661	 1.0185326906	-0.274484
C	 0.1018761687	-0.7412949157	-1.2676720464	 0.048274
C	 0.3219487491	-1.3127922786	-2.3080050431	 0.037989
C	 0.617036823	-2.033751543	-3.5387270262	-0.294045
N	 0.5002606263	-3.4773032228	-3.3843264917	-0.271587
C	-0.2261297128	-4.2303680684	-4.2560673638	 0.163426
O	-0.7709607613	-3.8039409262	-5.251149825	-0.316915
H	 0.6840640182	 1.8548727636	-0.4822553744	 0.147532
H	-1.046984469	 1.7431746978	-0.782752193	 0.150491
H	-0.4519238461	 1.851946659	 0.9036028374	 0.146074
H	-0.0800804978	-1.7554381568	-4.3367656757	 0.185347
H	 1.621877243	-1.7558913948	-3.8868621716	 0.151395
H	 0.8697885254	-3.9051285445	-2.5503035872	 0.2621
H	-0.2565463609	-5.2942031872	-3.9530857238	 0.089076
23.7801	26.4826	68.6485	117.1507	141.9674	164.4559	244.6469	270.5004	364.7059	410.6425	481.8181	520.0594	600.7222	618.8727	672.5791	785.9655	955.2106	971.0484	1032.3107	1035.2481	1043.3562	1059.5228	1201.7499	1243.3612	1256.2201	1367.6239	1382.8689	1424.1623	1460.3085	1468.2394	1474.8944	1517.1814	1769.7891	1804.3064	2331.077	2956.293	3009.8385	3039.6907	3078.0418	3103.7087	3153.3037	3641.7631
CC(=O)C#CCNC=O	CC(=O)C#CCNC=O	
InChI=1S/C6H7NO2/c1-6(9)3-2-4-7-5-8/h5H,4H2,1H3,(H,7,8)	InChI=1S/C6H7NO2/c1-6(9)3-2-4-7-5-8/h5H,4H2,1H3,(H,7,8)
