16
gdb 51401	4.85376	0.84847	0.81381	1.8902	71.44	-0.2561	-0.0296	0.2265	1372.1605	0.123342	-437.830045	-437.821987	-437.821043	-437.863874	29.077	
O	-0.2673964787	 0.0375963344	-0.0110725368	-0.235611
C	 0.0019312707	 1.2100100703	 0.0212319913	 0.161206
C	 1.3831915051	 1.7861902629	-0.1985634563	-0.31769
C	 1.3922582189	 2.8634443933	-1.2827131674	 0.01488
C	 0.8273436487	 4.2832674844	-0.9402183923	-0.169289
N	 2.069133251	 4.4682254695	-0.0689838954	-0.315222
C	 2.6240268159	 3.8221508609	-1.3375078615	-0.172547
C	 1.7118478375	 4.8181083918	-2.0917870045	 0.443396
O	 1.7410885839	 5.6586753602	-2.9335636884	-0.317429
H	-0.7858666385	 1.9715311683	 0.2311256821	 0.072918
H	 1.716874945	 2.2352873841	 0.744359946	 0.150057
H	 2.0602410472	 0.967599135	-0.4595664797	 0.123915
H	 1.0779803568	 2.4701664691	-2.2526482399	 0.10442
H	-0.1655643359	 4.5704675923	-0.599991233	 0.109818
H	 2.3358606958	 5.4543822951	-0.0077787196	 0.238304
H	 3.6778055469	 3.5730878284	-1.4466833546	 0.108875
53.6063	74.8457	136.8336	178.8477	290.8551	345.5134	462.6998	489.811	564.2573	689.4379	758.116	784.0988	797.3067	837.4941	846.2776	895.3342	983.4361	1029.2379	1046.0623	1070.1695	1095.9021	1118.511	1130.2909	1163.5354	1183.6274	1191.9904	1235.5618	1266.3275	1276.9803	1298.4045	1401.5794	1429.6319	1458.9123	1836.3594	1912.9683	2854.388	3045.272	3084.8423	3107.2752	3145.4459	3148.583	3420.1042
O=CCC1C2NC1C2=O	O=CC[C@H]1[C@H]2N[C@@H]1C2=O	
InChI=1S/C6H7NO2/c8-2-1-3-4-6(9)5(3)7-4/h2-5,7H,1H2	InChI=1S/C6H7NO2/c8-2-1-3-4-6(9)5(3)7-4/h2-5,7H,1H2/t3-,4+,5-
