20
gdb 59072	2.10887	1.36022	1.04519	1.3142	81.94	-0.2254	0.0291	0.2545	1244.8247	0.167572	-403.078593	-403.068255	-403.06731	-403.113662	38.066	
C	 0.2197838949	 1.0812110734	-1.1530371049	-0.409537
C	-0.238802152	 0.6535739562	 0.2410782259	 0.11229
O	-0.3932560396	 1.7720281406	 1.1162362058	-0.433485
C	-1.528204318	-0.1446850396	 0.1719277299	-0.027835
C	-1.5374117775	-1.6496552976	 0.0682494719	-0.218728
C	-0.3033105814	-2.3873497488	 0.0684489123	 0.353741
C	 0.7084394275	-3.0395060906	 0.0617245362	-0.469482
N	-2.0311920427	-0.9500532012	 1.2692122569	-0.110243
C	-1.2823289608	-1.0327988716	 2.520526638	-0.319434
H	 1.1107627633	 1.7099577364	-1.0775733084	 0.125712
H	 0.4551113889	 0.2082676761	-1.7695543554	 0.130867
H	-0.5630609382	 1.6555942002	-1.6642053347	 0.105927
H	 0.5465557764	 0.0501205551	 0.7020816896	 0.1024
H	-1.0799176045	 2.3409233156	 0.7497696651	 0.277484
H	-2.3197570228	 0.3769515273	-0.3731355498	 0.084295
H	-2.3276243778	-2.1151043181	-0.5179229166	 0.114442
H	 1.602278004	-3.6130009944	 0.0530989652	 0.201506
H	-0.2225972347	-1.2921243866	 2.4035895842	 0.119646
H	-1.3499213768	-0.0660146578	 3.0243551714	 0.139597
H	-1.7490844282	-1.7962089148	 3.1499388773	 0.120839
63.9832	104.4495	139.9638	165.8001	193.3437	237.0007	259.2468	288.7703	343.2234	351.6352	368.8396	462.0864	552.3049	590.6611	605.4373	615.5038	661.1262	740.353	838.6896	847.4706	908.1805	987.9398	1039.9307	1068.7114	1088.6368	1101.4607	1136.1699	1162.7658	1172.3385	1196.271	1265.5022	1324.5205	1342.0038	1363.0896	1401.1671	1414.4192	1432.0233	1454.5579	1485.5303	1491.8113	1495.2246	1513.5804	2226.6051	3019.4981	3026.2694	3060.6868	3084.4229	3088.982	3106.8029	3118.3698	3123.474	3128.7969	3501.9771	3793.8807
CC(O)C1C(C#C)N1C	C[C@@H](O)[C@H]1[C@@H](C#C)N1C	
InChI=1S/C7H11NO/c1-4-6-7(5(2)9)8(6)3/h1,5-7,9H,2-3H3	InChI=1S/C7H11NO/c1-4-6-7(5(2)9)8(6)3/h1,5-7,9H,2-3H3/t5-,6-,7+,8?/m1/s1
