17
gdb 33850	4.33683	1.27768	1.14683	1.8942	78.46	-0.2494	0.0245	0.2739	1080.1457	0.136054	-384.632496	-384.625117	-384.624173	-384.664001	29.946	
C	-0.0742695101	-1.1595494635	 0.2713674428	-0.374201
C	-0.0074903789	 0.0282708481	 0.0975650683	 0.2201
C	 0.0391632376	 1.4431274315	-0.1385915381	 0.22663
C	-1.0040269426	 2.1037128777	-1.0445815461	-0.319509
C	-0.3435144593	 3.3670526988	-1.6048081414	-0.04969
C	 0.0908354347	 4.4709093449	-0.6783566843	-0.285311
C	 1.0945260582	 3.4277484468	-1.1126876229	-0.060977
C	 1.2827429686	 2.2565970861	-0.1805490756	-0.03812
O	 0.4422679245	 2.2677828735	 0.976859255	-0.282632
H	-0.1246912722	-2.2077304716	 0.4344151339	 0.192853
H	-1.2485606367	 1.4140677334	-1.8584863438	 0.118252
H	-1.9289590594	 2.3031598218	-0.4936858122	 0.123075
H	-0.5815661029	 3.6370717973	-2.6274867665	 0.089261
H	 0.1911918138	 5.461316081	-1.1087845427	 0.109525
H	-0.2322145113	 4.4452058395	 0.3548957723	 0.137306
H	 1.9187783776	 3.6959746077	-1.7620387103	 0.08812
H	 2.2661788485	 1.8188874768	-0.0348683086	 0.105319
129.7296	145.2497	271.2097	294.845	403.0619	441.0261	514.2021	569.5555	590.1708	615.1531	668.054	684.7063	720.4477	785.0315	808.3329	839.5342	886.0563	900.5395	948.036	987.4496	1016.9562	1064.4491	1070.5041	1087.9679	1102.8496	1113.3602	1182.1287	1200.7157	1219.7641	1270.1734	1317.9339	1345.6274	1374.0379	1411.3854	1474.151	1482.5024	2239.3359	3052.7957	3094.2364	3141.4231	3158.565	3169.115	3189.9597	3236.1493	3502.1293
C#CC12CC3CC3C1O2	C#C[C@]12C[C@H]3C[C@H]3[C@H]1O2	
InChI=1S/C8H8O/c1-2-8-4-5-3-6(5)7(8)9-8/h1,5-7H,3-4H2	InChI=1S/C8H8O/c1-2-8-4-5-3-6(5)7(8)9-8/h1,5-7H,3-4H2/t5-,6-,7-,8+/m1/s1
