16
gdb 69914	2.92566	1.70236	1.39471	0.5584	68.54	-0.2547	-0.0087	0.246	945.3095	0.124562	-437.835193	-437.828018	-437.827074	-437.866649	28.281	
C	-0.0668351912	 1.4862972917	 0.0318703498	-0.496937
C	 0.0718596924	-0.0045309567	-0.009057877	 0.442088
O	-0.7742064744	-0.7986764119	 0.8288286933	-0.269099
C	 0.638473757	-0.8976567985	 1.0160719588	-0.013467
C	 1.3307232987	-1.9652496229	 0.15065457	-0.190886
N	 0.2972633711	-2.1765492557	-0.9265193778	-0.279795
C	 0.5295734329	-0.7342955829	-1.2934689242	-0.235116
C	 2.0214159832	-1.0427276849	-0.9155701265	 0.404501
O	 3.1014498241	-0.9063365136	-1.3980637301	-0.316592
H	 0.8157848958	 1.9681788383	-0.4020979995	 0.1359
H	-0.9427758304	 1.8113958149	-0.5397936792	 0.135687
H	-0.1840437741	 1.8326346783	 1.0615007539	 0.137364
H	 1.0425807311	-0.5859346327	 1.9723962367	 0.112653
H	 1.7966133207	-2.8350529871	 0.6072890467	 0.09797
H	 0.7088600524	-2.7626645899	-1.6533177927	 0.241866
H	 0.2042148708	-0.3829056065	-2.2701143923	 0.093863
128.5869	176.3258	217.5177	297.3136	367.8311	452.4259	519.9425	532.4494	589.8776	703.5692	712.4581	759.0183	844.4572	861.6881	874.5214	908.9012	942.688	961.0632	999.2222	1036.4649	1058.9893	1070.9977	1092.394	1121.7887	1159.972	1181.7859	1226.1222	1278.0139	1306.8649	1341.8448	1408.6783	1447.9391	1484.1343	1494.5726	1888.8485	3036.7555	3099.2224	3125.2823	3153.9575	3158.6314	3185.7619	3467.6387
CC12OC1C1NC2C1=O	C[C@]12O[C@H]1[C@H]1N[C@@H]2C1=O	
InChI=1S/C6H7NO2/c1-6-4-3(8)2(7-4)5(6)9-6/h2,4-5,7H,1H3	InChI=1S/C6H7NO2/c1-6-4-3(8)2(7-4)5(6)9-6/h2,4-5,7H,1H3/t2-,4+,5-,6+/m0/s1
