18
gdb 46795	2.86163	1.64219	1.28446	3.9923	71.19	-0.2246	0.0079	0.2325	1004.995	0.150346	-439.090832	-439.083564	-439.08262	-439.122589	29.046	
O	 0.0613383272	 0.1131296449	 0.8364108598	-0.31152
C	-0.019653885	 1.1117462721	 0.172984809	 0.377553
C	-1.3854534934	 1.7752857727	-0.1029716465	-0.306732
N	-1.7182116977	 2.337854146	-1.4047606135	-0.288687
C	-0.7326678481	 3.1920787961	-2.0540314355	 0.012318
C	 0.5474872237	 2.4428648541	-2.5493545404	-0.252606
C	 1.2031251814	 2.7765328474	-1.1878416504	 0.131537
C	 0.1763794829	 3.9271808576	-1.0321989154	-0.255248
O	 1.1297395219	 1.7102783835	-0.2358605623	-0.236972
H	-2.1221356678	 1.0079449349	 0.1387896034	 0.140387
H	-1.4939726516	 2.5512204526	 0.6662166167	 0.139551
H	-1.9934907361	 1.5961406707	-2.0388859863	 0.224755
H	-1.2422684033	 3.814340297	-2.7950366302	 0.08024
H	 0.4493127819	 1.3830190351	-2.800046639	 0.10695
H	 1.0474934031	 2.9645690941	-3.370464452	 0.108321
H	 2.2590627644	 3.0470110891	-1.1850702389	 0.098237
H	 0.5831816075	 4.8432518653	-1.4670550853	 0.115785
H	-0.2092471511	 4.1588056968	-0.0388716833	 0.116132
78.7693	181.8765	325.5303	331.7699	352.4982	432.3523	455.6551	493.6231	551.9039	659.0593	730.168	775.1061	785.2994	847.0751	874.5823	901.5785	919.5545	955.6681	988.1834	1036.2301	1074.6766	1095.0365	1100.0344	1151.729	1183.9415	1219.0909	1244.7495	1260.2366	1272.3778	1277.1769	1303.5447	1356.3369	1384.9174	1409.8658	1454.8599	1470.4706	1489.4217	1502.2287	1828.9445	3024.9842	3053.057	3062.2833	3081.0263	3109.9809	3116.6203	3125.1807	3135.908	3529.0376
O=C1CNC2CC(C2)O1	O=C1CN[C@@H]2C[C@@H](C2)O1	
InChI=1S/C6H9NO2/c8-6-3-7-4-1-5(2-4)9-6/h4-5,7H,1-3H2	InChI=1S/C6H9NO2/c8-6-3-7-4-1-5(2-4)9-6/h4-5,7H,1-3H2/t4-,5+
