16
gdb 64539	4.35071	1.25832	1.12874	1.8198	71.52	-0.2366	-0.0452	0.1914	1061.8212	0.123327	-437.792548	-437.785128	-437.784184	-437.824268	29.278	
O	 0.0637586974	 1.4754734476	 0.1322605499	-0.473056
C	-0.072933013	 0.102661028	 0.0273284528	 0.324122
C	 1.0110177693	-0.6071595591	 0.762810817	 0.121609
O	 1.8792754124	 0.0086327036	 1.3395438001	-0.298132
C	-1.3687974317	-0.6808878679	 0.0466022786	-0.162008
C	-2.4658630929	-0.0922915291	-0.8565681999	-0.053272
C	-2.1068504065	 1.1185004309	-1.624623702	-0.251597
N	-1.6064745423	-0.2017408906	-2.0856193874	-0.153681
C	-0.4962692031	-0.7069374388	-1.2003541863	-0.0794
H	 0.8781613723	 1.599864723	 0.6509422277	 0.297433
H	 0.9845000092	-1.7137211212	 0.7492197109	 0.104553
H	-1.5733872905	-1.4564126217	 0.7753935887	 0.102437
H	-3.4652743839	-0.5142734849	-0.8525513421	 0.111086
H	-2.8755152747	 1.4879634852	-2.2980830382	 0.122982
H	-1.4256450983	 1.8589790806	-1.2354219735	 0.17507
H	 0.1322233261	-1.4833166158	-1.6214246764	 0.111853
101.4756	200.0071	213.8858	341.7806	352.1994	371.6399	463.4336	484.926	563.462	652.4079	688.6168	746.279	773.8733	817.7544	859.373	866.8001	954.4887	970.4509	1005.1274	1025.8387	1040.0435	1057.0012	1081.5858	1104.6462	1121.2108	1152.065	1228.0605	1263.804	1282.0256	1322.1509	1378.5274	1386.9361	1454.07	1502.2417	1791.2463	2951.7112	3135.775	3164.35	3170.0558	3180.6861	3272.8985	3639.4409
OC1(C=O)C2C3CN3C12	O[C@@]1(C=O)[C@H]2[C@H]3CN3[C@@H]12	
InChI=1S/C6H7NO2/c8-2-6(9)4-3-1-7(3)5(4)6/h2-5,9H,1H2	InChI=1S/C6H7NO2/c8-2-6(9)4-3-1-7(3)5(4)6/h2-5,9H,1H2/t3-,4+,5-,6+,7?/m1/s1
