18
gdb 29361	3.20553	1.21746	0.89207	3.0561	85.9	-0.22	-0.0384	0.1816	1282.8876	0.147414	-402.021737	-402.012536	-402.011592	-402.055949	33.033	
C	 0.0246894983	 1.5261453763	-0.0080311943	-0.503174
C	 0.0144263797	 0.0275861474	 0.0134472648	 0.200682
C	-0.0144347432	-0.8126564756	-1.0908312365	-0.149445
N	-0.0150395869	-2.0975094439	-0.6619232943	-0.297551
C	 0.0133557857	-2.1263322264	 0.7149484995	 0.142954
C	 0.0185563024	-3.3998506548	 1.3914755029	 0.074794
O	-0.0008391618	-4.4723010184	 0.8088855446	-0.328698
C	 0.0321864445	-0.8045845813	 1.16457012	 0.12261
C	 0.0647765405	-0.3300623013	 2.5851135976	-0.513142
H	 0.9183645109	 1.9348184809	 0.4788896716	 0.127912
H	 0.006099376	 1.9065904016	-1.0331843334	 0.123004
H	-0.8420410961	 1.9474092976	 0.5154876668	 0.12791
H	-0.0345651872	-0.5694581774	-2.1424978111	 0.129007
H	-0.0314799774	-2.9407315019	-1.2122926023	 0.276433
H	 0.041809164	-3.3498534025	 2.4992463978	 0.070415
H	 0.9532307148	 0.2824866841	 2.7800305877	 0.132915
H	-0.8060428209	 0.2951202289	 2.8161601998	 0.132917
H	 0.0734077468	-1.1594128234	 3.2958601889	 0.130456
78.4205	110.0294	115.0002	180.0084	214.3726	235.8158	291.5346	327.6486	362.8014	511.0927	572.4177	625.4304	665.0991	680.7923	728.2692	792.0139	810.6219	947.6613	1001.5403	1019.3323	1045.7721	1074.0704	1095.1461	1123.5694	1208.3904	1265.8	1367.5837	1393.3281	1415.9457	1425.27	1441.5209	1474.0835	1477.8538	1485.9182	1486.0139	1505.7099	1548.5744	1613.5815	1745.6779	2918.0644	3021.8887	3025.22	3067.5613	3070.9096	3107.2297	3120.0109	3250.3455	3662.3818
CC1=CNC(C=O)=C1C	Cc1c[nH]c(C=O)c1C	
InChI=1S/C7H9NO/c1-5-3-8-7(4-9)6(5)2/h3-4,8H,1-2H3	InChI=1S/C7H9NO/c1-5-3-8-7(4-9)6(5)2/h3-4,8H,1-2H3
