15
gdb 6321	4.51629	1.11924	1.04334	3.441	58.99	-0.2602	-0.0315	0.2288	1126.069	0.116048	-436.992704	-436.983632	-436.982688	-437.027511	30.857	
C	-0.1181887629	 1.4590367949	 0.1164337559	-0.403293
C	-0.0425417487	-0.0502775836	-0.0574876642	 0.033205
O	 0.6574666648	-0.4098529839	-1.2589342086	-0.278936
C	-0.1217187627	-0.6993225385	-2.3411397889	 0.508573
N	 0.6695085179	-0.9321019899	-3.4228562275	-0.563479
O	-1.3297106137	-0.720869942	-2.3351377587	-0.393133
C	 0.6786260103	-0.7591159835	 1.0780515384	 0.152144
O	 0.71039539	-0.3584484906	 2.2110829893	-0.242411
H	 0.87893917	 1.9032614295	 0.0534117913	 0.12988
H	-0.7550450991	 1.8970074525	-0.6551751911	 0.135904
H	-0.5348564071	 1.6877073198	 1.0999808411	 0.145677
H	-1.0537566968	-0.4750953267	-0.1201828823	 0.145788
H	 1.6590520701	-1.056310119	-3.2981629805	 0.26891
H	 0.228211227	-1.3210054848	-4.2373174887	 0.274094
H	 1.1674507709	-1.7100947342	 0.7700440745	 0.087078
34.9541	85.7591	90.2944	195.8663	226.9647	244.8825	262.9554	375.0876	402.2139	466.4451	530.9905	605.4389	684.5626	780.242	834.3871	889.08	927.7669	1032.9356	1100.0155	1121.6954	1136.1719	1161.0721	1310.2267	1348.1654	1376.3943	1396.842	1415.443	1485.3535	1495.8925	1610.6975	1835.9668	1841.4037	2892.9327	3031.3516	3055.0662	3132.6981	3142.6472	3622.6891	3755.6682
CC(OC(N)=O)C=O	C[C@@H](OC(=O)N)C=O	
InChI=1S/C4H7NO3/c1-3(2-6)8-4(5)7/h2-3H,1H3,(H2,5,7)	InChI=1S/C4H7NO3/c1-3(2-6)8-4(5)7/h2-3H,1H3,(H2,5,7)/t3-/m1/s1
