18
gdb 11077	2.22469	2.17157	1.83284	2.0213	68.31	-0.2241	0.0734	0.2975	887.29	0.151713	-384.900285	-384.891777	-384.890833	-384.932561	31.861	
C	 0.0068305895	 1.5657262455	 0.0317073426	-0.422969
C	 0.0972118233	 0.0560385922	 0.0149452915	-0.140834
C	 1.3566681264	-0.7510457588	-0.2563306356	 0.241492
O	 1.4453110329	-1.7561312677	-1.2009490497	-0.454567
C	 2.5571210109	-0.1072453664	 0.4289918129	-0.149421
O	 1.8352488861	-0.0526699057	 1.6892526704	-0.318638
C	 0.7261465115	-0.771939906	 1.1185281264	 0.390614
C	 0.0605061008	-1.8058741746	 1.9640580664	-0.488543
H	 0.8066612917	 1.9917747272	 0.6423041037	 0.138189
H	 0.0751109401	 1.9897702245	-0.9763292509	 0.108997
H	-0.9452116864	 1.8909129434	 0.4643404963	 0.11854
H	-0.7645480032	-0.4594062714	-0.408260652	 0.087974
H	 1.2667045273	-1.377076874	-2.0684122433	 0.288346
H	 3.4114002269	-0.7899887808	 0.4999842535	 0.113494
H	 2.8925459901	 0.8813453188	 0.0935386377	 0.098323
H	-0.4678085827	-1.34185382	 2.8046153554	 0.129615
H	-0.6686022231	-2.3664141098	 1.3722764845	 0.128696
H	 0.795277898	-2.5083010863	 2.3693851404	 0.130691
158.8361	168.7376	181.6785	207.4889	248.1463	256.8885	286.9097	358.665	391.7086	524.6978	591.1872	600.1947	728.9274	760.2937	776.2917	909.3614	954.2159	977.7105	1011.1892	1045.3168	1097.0323	1114.7746	1127.181	1147.7153	1168.2511	1217.788	1260.2989	1308.4808	1323.521	1360.7641	1408.6844	1412.6735	1472.4689	1487.9581	1492.6291	1497.9294	1514.2694	1534.237	3023.2397	3032.5396	3033.7219	3076.0864	3089.4061	3096.9953	3114.3596	3118.7968	3129.7709	3794.2949
CC1C2(O)COC12C	C[C@H]1[C@@]2(O)CO[C@@]12C	
InChI=1S/C6H10O2/c1-4-5(2)6(4,7)3-8-5/h4,7H,3H2,1-2H3	InChI=1S/C6H10O2/c1-4-5(2)6(4,7)3-8-5/h4,7H,3H2,1-2H3/t4-,5+,6+/m1/s1
