20
gdb 41955	2.27724	2.04084	1.63035	1.7054	73.23	-0.201	0.074	0.2751	937.7332	0.175507	-440.2729	-440.265864	-440.26492	-440.304089	28.92	
C	-0.0190138508	 1.3993561946	-0.1156307804	-0.078154
C	 1.3956105082	 2.0050648752	-0.0191456456	-0.185952
N	 2.2677748052	 1.3605782481	 0.9683710682	-0.077489
C	 1.9218626778	 1.5862352067	 2.3757227857	-0.185959
C	 0.6299807605	 0.8828734304	 2.8379667704	-0.07815
O	 0.4711993009	-0.4260806062	 2.2865373624	-0.272487
C	 0.8534721264	-0.60640961	 0.9351097747	 0.219995
C	 2.2691390568	-0.0834864578	 0.7155531129	-0.20722
O	-0.0320395	-0.0254830525	-0.0048162199	-0.272478
H	-0.6844795209	 1.8364636603	 0.6397056216	 0.100109
H	-0.4547565603	 1.6245130766	-1.0950114029	 0.106417
H	 1.8958167649	 1.9067292453	-0.9905603621	 0.110047
H	 1.3222082161	 3.0756019026	 0.2035894392	 0.101846
H	 2.7659937274	 1.2141568057	 2.9694590937	 0.110047
H	 1.8405991404	 2.6630575271	 2.5625312129	 0.101851
H	 0.6483026537	 0.7465253926	 3.9246263595	 0.106419
H	-0.252406003	 1.4928299409	 2.6060373973	 0.100109
H	 0.7639562418	-1.6829776333	 0.7665475814	 0.091859
H	 2.589291736	-0.2773481171	-0.3135789791	 0.104599
H	 2.966013039	-0.5771553991	 1.4010098103	 0.104592
129.0164	194.0059	293.3581	391.8918	395.4205	432.3192	445.1967	541.4756	601.0262	631.2353	767.0006	784.9529	824.3646	841.3613	864.5517	892.8304	929.9437	1015.3835	1044.3136	1050.8253	1066.2024	1077.0873	1105.8626	1153.2136	1162.4244	1178.6051	1241.3136	1269.6882	1271.1038	1337.3101	1352.6154	1360.9283	1368.6817	1371.6187	1390.1946	1397.928	1416.5854	1418.9761	1471.3323	1474.5498	1487.1485	1504.1573	1527.2879	3006.8164	3020.0219	3022.7216	3023.721	3037.8206	3061.3944	3064.6315	3073.7147	3080.1779	3082.3031	3090.0368
C1CN2CCOC(C2)O1	C1CN2CCO[C@H](C2)O1	
InChI=1S/C6H11NO2/c1-3-8-6-5-7(1)2-4-9-6/h6H,1-5H2	InChI=1S/C6H11NO2/c1-3-8-6-5-7(1)2-4-9-6/h6H,1-5H2
