23
gdb 63946	2.61542	1.62462	1.46032	1.525	83.68	-0.2356	0.0785	0.3141	1055.6615	0.20785	-388.313263	-388.305054	-388.30411	-388.345241	33.944	
C	-0.0974455401	 1.5507206978	 0.0141684851	-0.440531
C	-0.0198805433	 0.0188200902	-0.0069126732	 0.326202
C	-1.4443837142	-0.5563511543	-0.0276434086	-0.443864
C	 0.8504455329	-0.5232015651	-1.2037613209	-0.266041
C	 2.0070650209	-1.2780643855	-0.5053610946	-0.037073
C	 2.8685149339	-0.2419941064	 0.2315018732	-0.074767
O	 2.0258118994	 0.2046127445	 1.3120199891	-0.282564
C	 0.7999512175	-0.5359460455	 1.1972729112	 0.089169
C	 1.2847928633	-1.9065630217	 0.7056212552	-0.241283
H	 0.8962345113	 1.998335001	 0.0744090103	 0.127453
H	-0.5953682808	 1.9231956518	-0.8879227006	 0.103765
H	-0.6719306541	 1.9027516065	 0.878897726	 0.106367
H	-1.9781401872	-0.2205025109	-0.9237158578	 0.113903
H	-1.4555116895	-1.6503435222	-0.0320027106	 0.109789
H	-2.017377442	-0.218802695	 0.8435226686	 0.11139
H	 0.2709859614	-1.2021659758	-1.8379687523	 0.090378
H	 1.2184831337	 0.2853398002	-1.8433132462	 0.093739
H	 2.5762630526	-1.9486854078	-1.1509526322	 0.063345
H	 3.7879937687	-0.6765347462	 0.6460315469	 0.094041
H	 3.1439506911	 0.6107707216	-0.4019301111	 0.093071
H	 0.2883777787	-0.4870956776	 2.1606289884	 0.064466
H	 0.4865387176	-2.5979413922	 0.4296970745	 0.098863
H	 1.956660258	-2.3907894974	 1.4189834695	 0.100183
135.0611	207.9148	238.034	241.557	307.348	346.1205	376.0837	420.8663	468.0224	487.7746	540.1072	682.1427	781.735	819.2908	840.5445	897.9842	907.0509	916.0078	937.152	951.5475	954.1464	969.2419	975.6754	1002.8327	1018.3008	1045.884	1085.8699	1114.023	1148.2198	1179.3572	1206.2938	1222.7483	1250.8766	1261.0639	1269.6607	1294.9776	1319.8929	1325.9004	1347.7575	1382.5851	1397.9814	1419.6281	1481.8337	1484.6698	1490.6197	1499.6348	1505.2913	1509.9879	1532.3813	3005.7552	3024.1768	3029.8825	3040.186	3043.1032	3070.1574	3080.6608	3086.8818	3091.1859	3099.6425	3100.3657	3106.1921	3127.4858	3130.1205
CC1(C)CC2COC1C2	CC1(C)C[C@H]2CO[C@@H]1C2	
InChI=1S/C8H14O/c1-8(2)4-6-3-7(8)9-5-6/h6-7H,3-5H2,1-2H3	InChI=1S/C8H14O/c1-8(2)4-6-3-7(8)9-5-6/h6-7H,3-5H2,1-2H3/t6-,7+/m0/s1
