25
gdb 123006	4.89175	0.49069	0.46907	1.309	90.63	-0.261	0.0815	0.3425	2398.296	0.227406	-389.480476	-389.469191	-389.468247	-389.518313	40.247	
C	 0.1317975924	 1.5477261343	-0.3003755788	-0.403446
C	 0.0729204071	 0.0556596593	-0.0531119912	-0.004882
C	 1.3305549055	-0.7798619032	 0.0029278835	-0.291273
C	 0.4968426737	-0.5857855491	 1.2500551561	 0.012135
C	 1.0282154945	 0.1967707594	 2.4337985158	-0.210823
C	 1.873692999	-0.6661967714	 3.3811491324	-0.173773
C	 2.4092702614	 0.1108488781	 4.5866696765	-0.166473
C	 3.2427972234	-0.7487792029	 5.5273369062	-0.074289
O	 3.6861855825	 0.0717794901	 6.5987562701	-0.421928
H	 1.0195877235	 2.0039826575	 0.1464407883	 0.11583
H	 0.1634749597	 1.7603044613	-1.3748890148	 0.11453
H	-0.746068993	 2.0583844849	 0.1119282607	 0.114628
H	-0.7767241518	-0.4253662462	-0.5322834371	 0.07877
H	 1.3453647452	-1.7502129321	-0.4816973799	 0.104518
H	 2.2774865384	-0.2488411883	-0.0450894097	 0.103723
H	-0.1005717455	-1.4472352492	 1.5433247918	 0.075336
H	 1.6339244475	 1.0428883511	 2.0879203622	 0.093156
H	 0.1904062742	 0.6329051279	 2.9957032193	 0.093848
H	 1.2694490319	-1.5154284243	 3.7299534325	 0.090686
H	 2.709807897	-1.1013597131	 2.817509737	 0.096933
H	 3.0265789078	 0.9532541378	 4.2501419822	 0.102426
H	 1.5786538582	 0.5440137382	 5.1578314366	 0.102801
H	 2.6353785989	-1.5917097336	 5.8969778352	 0.08172
H	 4.0956253648	-1.1812457907	 4.9780762515	 0.081938
H	 4.2138463735	-0.4694688658	 7.1929265836	 0.283907
44.0291	55.4431	79.3779	116.1448	135.8704	164.976	205.0326	237.3563	261.8952	327.295	348.066	421.3434	471.2981	534.2818	738.772	760.7674	794.1334	830.8767	865.9377	890.1749	927.7415	959.3823	1002.9769	1028.7325	1037.8354	1061.2172	1064.4277	1085.4981	1104.8118	1115.5271	1152.1815	1188.4593	1199.2341	1216.6125	1227.3304	1249.1407	1282.4052	1289.4392	1315.1607	1326.1971	1344.7301	1387.4924	1399.7132	1418.7423	1430.7585	1463.5389	1478.7636	1488.404	1493.4029	1495.5131	1505.5759	1505.9359	1528.3948	2955.5191	2980.0791	3004.6829	3009.9775	3027.2642	3028.115	3034.687	3055.85	3074.2988	3084.2313	3103.6324	3115.7474	3119.9952	3133.2036	3203.6873	3830.5956
CC1CC1CCCCO	C[C@H]1C[C@H]1CCCCO	
InChI=1S/C8H16O/c1-7-6-8(7)4-2-3-5-9/h7-9H,2-6H2,1H3	InChI=1S/C8H16O/c1-7-6-8(7)4-2-3-5-9/h7-9H,2-6H2,1H3/t7-,8+/m0/s1
