20
gdb 75427	3.14555	1.22817	0.95209	3.1337	83.17	-0.2481	0.0021	0.2502	1266.1436	0.17197	-403.16546	-403.156749	-403.155805	-403.198958	33.151	
C	-0.0458364432	 1.5537252691	 0.0016159617	-0.48255
C	-0.0257501888	 0.0515068172	-0.0165368949	 0.341997
C	-0.0344180562	-0.6585654447	-1.1470062971	-0.169134
C	-0.0177203801	-2.1613565093	-1.1548870227	-0.138916
O	 1.1901602967	-2.7755726414	-0.6537342324	-0.252793
C	 1.4532396713	-2.7769232235	 0.6897781967	 0.355286
N	 1.9001002699	-3.8179777194	 1.25893879	-0.479198
C	 1.3538239126	-1.4846811731	 1.4755458563	-0.243147
C	 0.0609936223	-0.6555667487	 1.3198813861	-0.324207
H	 0.8483432323	 1.9542685763	 0.4968372984	 0.129372
H	-0.0953376488	 1.973443266	-1.0063271534	 0.124142
H	-0.9064804206	 1.9251717204	 0.5726793422	 0.129071
H	-0.0573401993	-0.1545780342	-2.1093888587	 0.087442
H	-0.8693263778	-2.5664624082	-0.5896568181	 0.111588
H	-0.095704341	-2.5394439216	-2.1759012633	 0.119396
H	 1.9462475258	-4.5815373752	 0.5794577268	 0.215617
H	 1.5021819207	-1.7621788762	 2.5206952762	 0.129684
H	 2.2044148791	-0.8562717752	 1.1808985464	 0.12293
H	 0.0303109951	 0.0784505476	 2.1307748585	 0.105123
H	-0.8115980202	-1.3067383059	 1.4656264311	 0.118296
59.3746	144.3257	166.104	211.4147	267.3086	301.1921	353.5718	374.2491	445.4735	511.7478	531.9411	663.3848	690.0078	729.6539	780.5036	844.9207	902.6665	932.4051	946.3589	986.6049	1007.7242	1037.7333	1058.4822	1079.1882	1098.8178	1126.2894	1176.4619	1219.0974	1261.7312	1295.4346	1319.3862	1335.2741	1365.6853	1385.3236	1411.5524	1420.3998	1468.9912	1478.0189	1482.7891	1490.017	1501.2189	1731.8985	1734.5987	2998.9299	3014.5821	3017.961	3032.3771	3061.915	3077.8585	3107.9143	3115.1182	3116.7141	3162.3476	3450.9339
CC1=CCOC(=N)CC1	CC1=CCO[C]([NH])CC1	
InChI=1S/C7H11NO/c1-6-2-3-7(8)9-5-4-6/h4,8H,2-3,5H2,1H3	InChI=1S/C7H11NO/c1-6-2-3-7(8)9-5-4-6/h4,8H,2-3,5H2,1H3
