22
gdb 113825	4.08804	0.80965	0.73933	2.1672	84.79	-0.2273	0.0829	0.3102	1636.5664	0.19248	-404.296417	-404.286428	-404.285484	-404.332189	36.33	
C	-1.8718612484	-0.0935720888	 3.0416722133	-0.377395
C	-1.3977264231	-1.495865035	 2.6393343391	-0.213748
C	-2.399775567	-2.1854434611	 1.7436472948	 0.066918
O	-2.4690026459	-1.7621675885	 0.3774687814	-0.270496
C	-2.079680444	-3.1193901638	 0.6482217733	 0.041562
C	-0.692740677	-3.5186310862	 0.2684933136	-0.016182
C	-0.3295966356	-4.9683676896	 0.2199407329	-0.257985
N	-0.3862958823	-4.184931214	-1.0022131555	-0.083904
C	-1.4501834328	-4.4738434174	-1.9542617419	-0.313213
H	-1.1421947412	 0.397339688	 3.6920474521	 0.114303
H	-2.0153057997	 0.5316614322	 2.155456478	 0.135604
H	-2.8251131183	-0.1363811967	 3.579853295	 0.115358
H	-0.4296607797	-1.4258837133	 2.135842178	 0.10966
H	-1.2498939448	-2.1135029014	 3.5348052496	 0.102
H	-3.3843525627	-2.3105609336	 2.2042750012	 0.083364
H	-2.8516648451	-3.8480910316	 0.3988896874	 0.088328
H	 0.0733158531	-2.8040863827	 0.5565174226	 0.095681
H	 0.6534356477	-5.3036816488	 0.5405981112	 0.116527
H	-1.1335374941	-5.6820378212	 0.4054577996	 0.104121
H	-2.3683100257	-4.8880084131	-1.509820924	 0.100125
H	-1.7118017912	-3.558010656	-2.49261448	 0.135492
H	-1.0743972523	-5.2026132874	-2.6793507615	 0.12388
39.3038	70.6899	118.9795	152.5436	205.3994	230.3883	240.1984	285.9461	367.1559	421.3315	440.4443	502.6911	594.3877	746.7606	750.5993	808.0181	845.463	886.032	926.4562	943.9684	1016.204	1034.0932	1045.2106	1082.5922	1105.3301	1114.9524	1126.557	1143.3152	1165.1444	1180.2421	1201.5135	1214.4672	1292.6018	1301.6357	1323.3004	1339.6935	1351.1756	1408.6395	1434.0704	1451.398	1471.9571	1487.9082	1496.2871	1498.8057	1504.1675	1508.6144	1517.8107	2981.0961	3030.0978	3036.5323	3059.0031	3069.7896	3079.1141	3087.2191	3102.4244	3108.7806	3109.052	3117.538	3144.3852	3169.5159
CCC1OC1C1CN1C	CC[C@H]1O[C@H]1[C@H]1CN1C	
InChI=1S/C7H13NO/c1-3-6-7(9-6)5-4-8(5)2/h5-7H,3-4H2,1-2H3	InChI=1S/C7H13NO/c1-3-6-7(9-6)5-4-8(5)2/h5-7H,3-4H2,1-2H3/t5-,6-,7+,8?/m1/s1
