18
gdb 115786	2.8549	0.97941	0.78327	3.7205	71.	-0.2552	0.0125	0.2677	1434.9202	0.146542	-476.184418	-476.175102	-476.174157	-476.22042	32.467	
O	 0.0127354432	 1.2707381534	-0.1597039473	-0.422713
C	 0.0797777874	-0.1407627162	-0.1039675708	-0.064024
C	-1.2910699963	-0.6980939825	 0.2511054395	 0.071032
O	-2.2731658184	-0.2707289892	-0.7344136849	-0.301911
C	-2.43515406	-1.6181540146	-1.2313090509	-0.10451
C	-1.5778096201	-2.1816443993	-0.0866485348	 0.055444
O	-0.4779075143	-2.9613336517	-0.5070738171	-0.18519
C	-0.1191963088	-4.0246904507	 0.2469066479	 0.121659
N	 0.9059005103	-4.690385617	-0.05649251	-0.435437
H	-0.7138421891	 1.4762533119	-0.7613527337	 0.292415
H	 0.4260756784	-0.5736394198	-1.0530567763	 0.104999
H	 0.811091504	-0.4034021853	 0.667511286	 0.114809
H	-1.5871563832	-0.3671490861	 1.2532859147	 0.088859
H	-3.4866495847	-1.9211071655	-1.2620440466	 0.115119
H	-1.9783024163	-1.7637288859	-2.2170652939	 0.125154
H	-2.1479664802	-2.707072909	 0.6855841451	 0.09858
H	-0.8032287428	-4.2122940704	 1.0864931695	 0.091202
H	 1.0272840107	-5.4628314421	 0.5948226934	 0.234512
27.6874	75.6606	108.0357	110.8345	162.9308	256.1364	285.44	405.573	454.8151	465.0431	522.787	619.0823	796.7137	819.882	848.9706	908.0333	915.4952	1002.2568	1029.5155	1040.7793	1059.8091	1078.7367	1096.3454	1127.5421	1157.7781	1181.5881	1211.78	1250.8678	1272.0323	1292.5319	1330.4144	1347.2435	1395.1965	1400.2672	1428.5731	1436.6332	1499.1723	1517.5431	1748.726	3009.4519	3018.0728	3032.4154	3041.7362	3058.9014	3082.553	3088.4714	3523.4326	3781.0714
OCC1OCC1OC=N	OC[C@H]1OC[C@H]1O[CH][NH]	
InChI=1S/C5H9NO3/c6-3-9-5-2-8-4(5)1-7/h3-7H,1-2H2	InChI=1S/C5H9NO3/c6-3-9-5-2-8-4(5)1-7/h3-7H,1-2H2/t4-,5-/m1/s1
