20
gdb 60306	3.77536	0.67081	0.59664	3.8253	81.53	-0.2949	-0.0835	0.2114	1855.5374	0.167905	-403.182856	-403.172267	-403.171323	-403.219694	36.979	
C	 0.0822619023	 1.569334685	 0.0106923451	-0.385535
C	 0.0145408902	 0.0351897668	 0.0228064708	 0.027921
C	 0.7894060399	-0.5299005587	 1.2208785737	-0.390731
C	-1.4317312959	-0.4922963857	 0.0338287407	-0.177146
C	-2.2378907832	-0.13269794	-1.2146428636	-0.319833
C	-3.6162883496	-0.7485272798	-1.2360436377	 0.288314
O	-4.0839671914	-1.4566889961	-0.3814128834	-0.262422
C	-4.4174813414	-0.4156922237	-2.4398310249	 0.227243
N	-5.0294509356	-0.1468168946	-3.383388394	-0.295638
H	 1.1217067465	 1.9117942561	 0.026429068	 0.118121
H	-0.3884795148	 2.0011958285	-0.8779821846	 0.112437
H	-0.4178294421	 1.9888821611	 0.8920132127	 0.116271
H	 0.4981085973	-0.3327564775	-0.8943054508	 0.074034
H	 0.3460615649	-0.1953187804	 2.166205786	 0.116668
H	 0.7845550826	-1.6247053304	 1.2201061294	 0.114494
H	 1.8323309147	-0.1976910639	 1.2079324069	 0.113858
H	-1.4200434315	-1.582877929	 0.1367381839	 0.115148
H	-1.9552347265	-0.114987269	 0.9210504728	 0.113215
H	-2.3697673969	 0.951828362	-1.3304213122	 0.148438
H	-1.7248192096	-0.4512797304	-2.1344348589	 0.145143
36.0998	68.326	92.85	119.4853	186.1121	227.4968	252.8846	255.3316	275.3851	349.6129	411.8111	423.2225	499.0882	572.1088	612.5037	767.5865	797.8426	861.5446	931.0145	941.4329	965.1243	977.6679	1041.7364	1080.4744	1126.8949	1151.8516	1195.7867	1225.1143	1295.5847	1312.408	1358.7554	1371.9877	1397.0607	1404.8518	1426.0488	1441.5402	1482.2685	1489.8364	1496.6572	1506.8483	1512.4477	1801.2225	2336.4868	2993.5817	3013.1221	3026.0676	3029.5372	3037.8301	3045.0866	3078.8353	3092.1844	3097.699	3102.2887	3105.0357
CC(C)CCC(=O)C#N	CC(C)CCC(=O)C#N	
InChI=1S/C7H11NO/c1-6(2)3-4-7(9)5-8/h6H,3-4H2,1-2H3	InChI=1S/C7H11NO/c1-6(2)3-4-7(9)5-8/h6H,3-4H2,1-2H3
