20
gdb 112849	3.1082	1.17785	0.96871	1.8656	74.75	-0.2411	0.0705	0.3116	1262.353	0.1718	-440.253544	-440.244844	-440.243899	-440.287128	33.048	
C	 0.116533401	 1.3408152123	 0.1170396131	-0.23439
O	-0.1181529322	-0.0339962076	-0.0816557431	-0.247799
C	 0.5466733436	-0.5707532977	-1.2045525169	 0.168152
C	 2.0793316839	-0.7285359877	-1.0542788044	-0.300014
C	 2.4713533977	-1.9549638478	-1.9229360288	 0.151328
O	 3.5898825546	-2.669599773	-1.435848086	-0.441
C	 1.1984048404	-2.7887902326	-1.9755173406	-0.07944
N	 0.6762918076	-3.0022208117	-0.6064849478	-0.343685
C	 0.0620287026	-1.9796973412	-1.4843278273	-0.079462
H	 1.1684769452	 1.5554986677	 0.3560305251	 0.108934
H	-0.1622224024	 1.9337544321	-0.7693764786	 0.099852
H	-0.5035117575	 1.6563700444	 0.9597142899	 0.126525
H	 0.3181623097	 0.0469272376	-2.0917430008	 0.061461
H	 2.6392396382	 0.1659165729	-1.3337859352	 0.099102
H	 2.2958450806	-0.9545542346	-0.0066359716	 0.122177
H	 2.7446578916	-1.6395720482	-2.9359054539	 0.087029
H	 3.3099679093	-3.0541525667	-0.5954986688	 0.286398
H	 1.0874222321	-3.5716211768	-2.7183487327	 0.089169
H	 0.0780257649	-3.8241094571	-0.5981556271	 0.235316
H	-0.9543894007	-2.1335068342	-1.8308281845	 0.090349
84.8549	101.0846	153.1539	186.305	238.3634	338.1746	377.7694	435.5405	442.0691	484.5264	571.6815	616.9965	666.6781	812.0049	843.7512	897.6116	898.6702	919.8612	997.3422	1004.898	1032.2136	1061.8137	1080.3974	1095.6146	1121.5538	1155.1094	1166.9347	1182.6926	1198.3139	1227.9728	1254.4602	1267.816	1310.3645	1331.3416	1349.1027	1357.5844	1397.8548	1430.067	1440.6957	1478.281	1482.0501	1491.8648	1510.221	2940.1304	2970.4674	3022.1075	3053.1828	3070.1456	3112.3922	3122.5422	3164.3595	3175.1024	3509.2662	3776.2292
COC1CC(O)C2NC12	CO[C@H]1C[C@@H](O)[C@H]2N[C@@H]12	
InChI=1S/C6H11NO2/c1-9-4-2-3(8)5-6(4)7-5/h3-8H,2H2,1H3	InChI=1S/C6H11NO2/c1-9-4-2-3(8)5-6(4)7-5/h3-8H,2H2,1H3/t3-,4+,5-,6+/m1/s1
