19
gdb 91195	2.90974	1.57542	1.21815	1.8157	76.72	-0.2458	0.0053	0.251	1068.0553	0.160098	-423.012331	-423.00442	-423.003476	-423.04495	30.458	
C	 0.1680637194	 1.5525488677	-0.134131921	-0.394991
C	 0.0559173693	 0.0573472318	 0.0620781391	 0.133049
O	 0.8734581069	-0.6972377507	-0.8724492361	-0.322151
C	 1.4079381478	-1.5140895932	 0.2008430805	 0.08976
C	 2.8954782579	-1.6165807123	 0.2563836193	-0.091104
C	 3.5564413334	-1.1249758723	 1.3013889088	-0.07048
C	 2.8510503188	-0.3394422878	 2.3753338621	-0.124406
O	 1.660113739	 0.2721831847	 1.9088845681	-0.257322
C	 0.7646379325	-0.6062201779	 1.2687030727	 0.029486
H	 1.197882166	 1.8818474381	 0.0103620301	 0.133274
H	-0.15296835	 1.8134236872	-1.1473402084	 0.121981
H	-0.473556527	 2.0822017978	 0.5777888742	 0.116073
H	-0.9924902369	-0.2669933779	-0.0105508349	 0.069331
H	 0.9574051186	-2.517802649	 0.1711292596	 0.076475
H	 3.401695894	-2.1378928597	-0.5509732219	 0.101856
H	 4.6304679014	-1.2528216648	 1.4056955886	 0.099784
H	 2.6459086909	-0.9764665861	 3.254643582	 0.10157
H	 3.486696227	 0.4819190577	 2.7226297349	 0.120965
H	 0.1189279909	-1.1055215633	 2.0035913421	 0.066849
65.9671	151.9894	188.0589	248.4902	278.4843	379.8563	462.4871	466.2334	525.2109	536.4945	710.3217	770.7661	820.7133	839.2995	891.4688	924.5309	928.9321	972.4063	994.0674	1011.5769	1039.8052	1053.7044	1097.8336	1104.8948	1145.2444	1162.8988	1212.7475	1257.7905	1274.8745	1280.0778	1327.0967	1348.0056	1361.7302	1394.0308	1400.0111	1409.031	1419.9733	1481.1758	1489.2676	1491.3694	1717.6114	2943.3894	2981.8433	2990.6982	3014.7027	3044.2785	3067.4508	3109.6082	3147.0773	3158.483	3180.8051
CC1OC2C=CCOC12	C[C@H]1O[C@H]2C=CCO[C@@H]12	
InChI=1S/C7H10O2/c1-5-7-6(9-5)3-2-4-8-7/h2-3,5-7H,4H2,1H3	InChI=1S/C7H10O2/c1-5-7-6(9-5)3-2-4-8-7/h2-3,5-7H,4H2,1H3/t5-,6+,7+/m1/s1
