12
gdb 130110	3.61543	1.78643	1.19788	2.1976	62.09	-0.2221	-0.0497	0.1724	913.3335	0.080568	-461.113512	-461.106869	-461.105925	-461.144428	25.048	
N	 0.0823322321	 1.3859006856	 0.1881098787	-0.594524
C	 0.0221696751	 0.016436771	 0.0267509537	 0.407929
N	-1.0493814856	-0.73880693	-0.042957	-0.280254
N	-0.6817375223	-2.097601251	-0.087806049	-0.349114
C	 0.6175024103	-2.0693913997	-0.0593939083	 0.554602
N	 1.7492359301	-2.8375912687	-0.0814305394	-0.369041
N	 2.8510673542	-2.0407282156	-0.023071776	-0.046855
N	 2.5029549386	-0.813409188	 0.0387159607	-0.134239
N	 1.1311722138	-0.8025179321	 0.0197920117	-0.034393
H	 0.7654836723	 1.8435384349	-0.4028300073	 0.267067
H	-0.8353222942	 1.7978426311	 0.076202882	 0.273018
H	 1.8601666556	-3.8346318675	-0.141787547	 0.305803
190.212	222.5155	232.231	289.9312	369.3705	424.8204	547.8444	650.9563	669.0068	681.7774	698.4209	724.2233	757.7647	846.6047	1008.5456	1020.9598	1043.4412	1129.4814	1196.3163	1252.1197	1329.6778	1405.2513	1432.8982	1454.7913	1596.2199	1647.9135	1665.8014	3538.2962	3638.3426	3699.5405
NC1=NN=C2NN=NN12	Nc1nnc2[nH]nnn12	
InChI=1S/C2H3N7/c3-1-4-5-2-6-7-8-9(1)2/h(H2,3,4)(H,5,6,8)	InChI=1S/C2H3N7/c3-1-4-5-2-6-7-8-9(1)2/h(H2,3,4)(H,5,6,8)
