20
gdb 82181	2.71651	1.60953	1.29237	2.4604	77.6	-0.2315	0.0826	0.314	1067.5662	0.17092	-403.118911	-403.11069	-403.109746	-403.151136	32.598	
C	-0.0894255832	 1.5711573148	 0.0110037257	-0.40808
C	 0.0233201716	 0.0501005919	-0.0333434721	 0.021838
C	 0.7624125394	-0.5021822236	-1.2492520577	-0.055529
O	 0.6156038695	-1.9260935932	-1.3746582229	-0.303282
C	 1.8349353822	-1.4096834695	-0.8125585151	 0.419085
C	 3.102921839	-1.7171350642	-1.5601717753	-0.485355
C	 1.7942421261	-1.4105715905	 0.6924695015	-0.104817
C	 2.1150668323	-0.1064107398	 1.324386728	-0.255541
N	 0.7136191183	-0.5215869385	 1.1600261384	-0.101699
H	 0.8841710427	 2.0625700686	-0.0820421947	 0.115272
H	-0.7242441755	 1.9292030909	-0.8055385523	 0.120159
H	-0.5388927387	 1.8869451442	 0.9564703189	 0.132788
H	-0.9857108751	-0.378537113	-0.0260539077	 0.099908
H	 0.7975008718	 0.0499047788	-2.1863230449	 0.091621
H	 2.9462769982	-1.6204263297	-2.6371347995	 0.131983
H	 3.9097975278	-1.0432678654	-1.2550384713	 0.124926
H	 3.4285509861	-2.7430780298	-1.3563012568	 0.131132
H	 1.9278335823	-2.3492074039	 1.2239383619	 0.09736
H	 2.4565520931	-0.0665595535	 2.3542952483	 0.11936
H	 2.5174950223	 0.6756675655	 0.6840408977	 0.108872
132.554	188.0502	212.9804	220.9006	266.1751	331.0596	346.5534	436.2526	479.4863	514.0167	602.271	693.689	732.6583	759.9414	841.5395	864.1424	878.8148	904.1799	955.488	1011.7838	1019.3773	1034.4796	1077.2546	1105.716	1110.9826	1119.7261	1126.024	1153.0361	1161.1964	1240.8507	1263.7509	1278.6563	1331.0527	1358.4601	1380.4574	1408.6382	1410.4809	1447.7591	1484.6347	1492.7006	1496.8797	1499.6912	1505.7932	3036.9957	3037.9484	3041.2854	3100.4286	3103.6535	3109.629	3119.3926	3126.289	3134.6028	3143.3113	3191.5205
CC1C2OC2(C)C2CN12	C[C@H]1[C@@H]2O[C@]2(C)[C@H]2CN12	
InChI=1S/C7H11NO/c1-4-6-7(2,9-6)5-3-8(4)5/h4-6H,3H2,1-2H3	InChI=1S/C7H11NO/c1-4-6-7(2,9-6)5-3-8(4)5/h4-6H,3H2,1-2H3/t4-,5+,6-,7+,8?/m0/s1
