14
gdb 129849	3.21736	1.43083	0.99046	2.793	71.66	-0.2129	-0.0424	0.1705	1099.2805	0.101433	-470.005272	-469.997316	-469.996371	-470.037743	30.172	
N	 0.0462236316	 1.312464156	-0.15226637	-0.580373
C	-0.0320872069	-0.0296621689	-0.0682755974	 0.335003
C	-1.1595008433	-0.7890910404	-0.026615275	-0.315895
C	-0.9985566722	-2.2040109904	 0.0383396667	 0.456875
O	-2.1334827624	-2.9349574554	 0.0748058633	-0.413569
N	 0.1147154456	-2.8638585789	 0.0649462326	-0.243817
O	 1.2854665949	-2.0693788514	 0.0278544615	-0.283949
C	 1.2747063097	-0.7154452289	-0.0300898334	 0.406388
N	 2.347991457	-0.0279902569	-0.0491029482	-0.560011
H	 0.9705126677	 1.7140459669	-0.1000192159	 0.285374
H	-0.7692723209	 1.893850329	-0.0849596186	 0.265143
H	-2.1580293514	-0.372175832	-0.0453989482	 0.11002
H	-1.8672029083	-3.8648096883	 0.1161260445	 0.307134
H	 3.1730115189	-0.6257787205	-0.0145829418	 0.231676
90.1668	142.3659	192.996	322.3472	326.0906	374.4251	430.0609	472.8203	504.5292	511.002	571.5379	584.6622	685.0388	702.695	771.6637	810.4342	833.0851	847.7269	934.4387	1036.8067	1088.8639	1109.2183	1215.5922	1288.059	1304.1408	1448.9209	1483.5726	1595.9857	1645.5595	1683.5792	1721.0872	3213.1764	3503.4181	3582.694	3735.9482	3759.3815
NC1=CC(O)=NOC1=N	NC1=C(ON=C([CH]1)O)[NH]	
InChI=1S/C4H5N3O2/c5-2-1-3(8)7-9-4(2)6/h1,6H,5H2,(H,7,8)	InChI=1S/C4H5N3O2/c5-2-1-3(8)7-9-4(2)6/h1,6H,5H2,(H,7,8)
