22
gdb 16698	3.29914	1.77939	1.54783	0.0491	81.4	-0.2787	0.0943	0.3731	969.1211	0.202496	-313.06888	-313.061217	-313.060273	-313.100165	31.171	
C	-0.1243806633	 1.5716236394	-0.0306163692	-0.434581
C	 0.0126910581	 0.0530891512	-0.0304962508	 0.060924
C	 1.1488999452	-0.5806154053	-0.8960908677	-0.014696
C	 2.1081243377	-0.2847179635	 0.2940030522	-0.240648
C	 0.8342954272	-0.6009064452	 1.1304698611	-0.022136
C	 0.6651035625	-2.114693798	 0.8542453064	 0.05344
C	-0.6478368362	-2.7369307147	 1.3266783778	-0.418056
C	 0.8710302126	-2.0847377943	-0.7052899351	-0.235953
H	 0.8240139002	 2.0911434383	 0.1313473626	 0.115965
H	-0.5316906186	 1.9214700128	-0.9859069822	 0.112411
H	-0.8141324841	 1.8954149489	 0.7569760152	 0.112869
H	-0.9787500786	-0.3830353491	-0.1990838187	 0.055443
H	 1.3588932854	-0.2322448857	-1.9091400189	 0.050324
H	 2.9740861742	-0.9415974339	 0.424630948	 0.082749
H	 2.4282863475	 0.7553934702	 0.3515642375	 0.095147
H	 0.7258390905	-0.2709693046	 2.1659054705	 0.047957
H	 1.4895277051	-2.6599205478	 1.3288405732	 0.06379
H	-1.5194935347	-2.2245284944	 0.906363468	 0.114863
H	-0.7113175727	-3.7888327763	 1.0269606055	 0.111496
H	-0.733271231	-2.6981632022	 2.4185515371	 0.108851
H	-0.025543532	-2.410197562	-1.2437984022	 0.090223
H	 1.7044923748	-2.7134067139	-1.0325010604	 0.089617
177.5321	198.0588	214.056	257.6784	276.0342	333.2771	434.0673	480.0526	522.8649	627.6236	773.8308	804.6269	830.0925	837.8701	860.3771	916.9623	928.3642	954.5862	996.9918	1010.8391	1020.3194	1038.9769	1072.2448	1082.8761	1102.6597	1110.6664	1138.2999	1161.5367	1204.2881	1225.2183	1237.081	1258.2009	1270.1969	1282.9555	1310.801	1323.2034	1379.0358	1398.5565	1409.7682	1414.982	1491.4858	1497.1056	1498.266	1499.4854	1503.7945	1520.869	3023.6159	3025.3086	3028.7392	3033.4079	3042.0272	3053.7027	3084.7476	3086.3537	3088.4897	3090.6794	3095.3969	3099.3387	3109.3564	3135.4892
CC1C2CC1C(C)C2	C[C@H]1[C@H]2C[C@@H]1[C@@H](C)C2	
InChI=1S/C8H14/c1-5-3-7-4-8(5)6(7)2/h5-8H,3-4H2,1-2H3	InChI=1S/C8H14/c1-5-3-7-4-8(5)6(7)2/h5-8H,3-4H2,1-2H3/t5-,6-,7+,8+/m0/s1
