16
gdb 127927	5.02131	1.07188	0.88895	2.247	80.56	-0.1959	-0.0617	0.1342	1266.7655	0.125878	-430.251442	-430.24312	-430.242175	-430.284212	31.228	
C	 0.2489880857	 1.3938083017	 0.1767698908	-0.341531
N	 0.1667158885	-0.0506659982	 0.120366809	-0.328183
C	 0.4253143333	-0.6041536276	-1.0120575533	 0.393072
N	 0.7783869352	 0.0104859874	-2.1949612797	-0.327689
N	 1.0469228052	-0.6231776384	-3.3794103559	-0.281241
C	 0.9264533096	-1.9144915544	-3.3561066368	 0.4491
N	 1.0862477011	-2.635053577	-4.5195683489	-0.553162
N	 0.5999937904	-2.6925645108	-2.2456959631	-0.28468
C	 0.3708696348	-2.0560521391	-1.1521933757	-0.004502
H	 1.2591922797	 1.7717607057	-0.0616617983	 0.105147
H	-0.4511785551	 1.8871986494	-0.520596555	 0.106108
H	 0.0022494596	 1.7364029063	 1.1844680714	 0.127096
H	 0.8742429565	 1.0104669239	-2.2451170004	 0.271067
H	 1.5731678383	-2.1531846462	-5.2595438113	 0.260903
H	 1.3643945984	-3.5932898618	-4.3756030287	 0.262758
H	 0.1204519388	-2.6130082211	-0.2514346639	 0.145739
77.3335	184.9237	198.0502	200.7595	295.5193	356.3828	395.3637	418.0765	457.6728	471.6798	554.6624	584.042	637.0221	637.5808	784.2437	804.8651	840.1861	990.6938	1001.4139	1049.9287	1076.1907	1101.5101	1167.2756	1252.1882	1334.4646	1339.7235	1405.8285	1435.4112	1467.5423	1499.5761	1500.0599	1596.2	1631.8493	1675.7218	1705.4388	2935.0472	2972.1537	3101.3763	3163.0861	3584.8013	3665.9535	3702.2373
CN=C1NN=C(N)N=C1	CN=c1[nH]nc(N)nc1	
InChI=1S/C4H7N5/c1-6-3-2-7-4(5)9-8-3/h2H,1H3,(H,6,8)(H2,5,7,9)	InChI=1S/C4H7N5/c1-6-3-2-7-4(5)9-8-3/h2H,1H3,(H,6,8)(H2,5,7,9)
