18
gdb 54994	2.94375	1.34226	1.10484	13.5429	74.87	-0.1718	-0.0104	0.1614	1121.5471	0.147979	-439.017339	-439.008857	-439.007913	-439.051616	31.338	
O	 0.2873173556	 0.33391786	 0.5642176071	-0.442555
C	 0.1195534107	 1.3769827481	-0.0660296852	 0.345331
O	 0.8730616859	 2.1153003807	-0.7380604954	-0.495948
C	-1.3351528601	 2.0091110525	 0.0074452935	-0.168859
C	-2.1506126818	 2.0390074593	 1.2787853059	-0.363439
C	-1.3828784065	 3.236898022	 0.8214793019	 0.31375
C	-0.177881813	 4.039352508	 1.3099829696	-0.287025
C	-0.5744313022	 5.1075329553	 0.2757825111	-0.179764
N	-1.9878880446	 4.5172615952	 0.2027647362	-0.316441
H	-2.3911686134	 4.4078322116	-0.7276337427	 0.3021
H	-2.6527735282	 5.0038356506	 0.8066116607	 0.296525
H	-1.8672684731	 2.0123323123	-0.9413109282	 0.089152
H	-3.2373161672	 2.0713286934	 1.2386687824	 0.100912
H	-1.7394928542	 1.4963075403	 2.1263050326	 0.155045
H	-0.2593531432	 4.3870519983	 2.3436381386	 0.111702
H	 0.7772822703	 3.5556675233	 1.1112689074	 0.197393
H	-0.5801723256	 6.1657612758	 0.5340006165	 0.143594
H	-0.0921145394	 4.9128021734	-0.6818312921	 0.198527
37.8313	61.4215	144.6634	205.1737	277.9715	310.2493	382.1419	465.6463	554.2285	575.7616	699.0526	731.0385	774.3673	798.4501	826.1281	890.2016	903.9711	919.658	950.4301	981.22	1010.9895	1042.2987	1054.2522	1081.2591	1135.6604	1159.9466	1200.0705	1231.366	1249.6944	1276.3009	1283.702	1308.1197	1333.0823	1385.9746	1460.9436	1467.1269	1485.1737	1626.8493	1797.9057	3066.5017	3099.909	3101.8616	3133.1946	3159.1153	3183.869	3189.8464	3425.8635	3514.8203
[O-]C(=O)C1CC11CC[NH2+]1	[O]C(=O)[C@H]1C[C@]21CC[NH2]2	
InChI=1S/C6H9NO2/c8-5(9)4-3-6(4)1-2-7-6/h4,7H,1-3H2,(H,8,9)	InChI=1S/C6H9NO2/c8-5(9)4-3-6(4)1-2-7-6/h4H,1-3,7H2/t4-,6+/m1/s1
