18
gdb 18798	3.14501	2.9529	2.30178	0.2501	75.01	-0.2276	0.0215	0.2491	708.3212	0.157699	-310.638923	-310.633405	-310.632461	-310.667971	24.498	
C	-0.0320565499	 1.5470753493	 0.0872742487	-0.222686
C	 1.5335810913	 1.4668407079	-0.0110641505	-0.081966
C	 2.0199625495	 1.2545520619	 1.3988754988	-0.069226
C	 1.5493632817	 0.1553409384	 1.9928590542	-0.069225
C	 0.7924939675	-0.7777221746	 1.0839554749	-0.081965
C	 1.8033095546	-1.1796165035	-0.049208057	-0.222686
C	 1.3398960675	 0.0803177467	-0.7832443505	-0.01614
C	-0.0264101802	 0.0217497684	-0.0324937966	-0.01614
H	-0.4524032902	 2.0320916862	 0.9726034161	 0.09075
H	-0.466916494	 1.9819229326	-0.8188330732	 0.093601
H	 2.0536800891	 2.2618938449	-0.5461196718	 0.059874
H	 2.6326975665	 1.999478933	 1.8953287498	 0.085959
H	 1.7551588417	-0.1150448317	 3.0230851989	 0.085958
H	 0.2653656757	-1.5768503911	 1.6059006374	 0.059874
H	 2.8517544586	-1.3004959268	 0.2369585535	 0.090751
H	 1.4602540327	-2.0654583346	-0.594023446	 0.093601
H	 1.4262045948	 0.1628871544	-1.8681359388	 0.059832
H	-0.897494467	-0.5157955015	-0.4113268379	 0.059832
347.2079	347.9497	394.0276	503.4039	567.0852	666.8678	714.7887	715.1738	757.1256	795.8588	809.6545	867.0499	902.3193	938.3481	949.8205	959.6443	975.7159	996.2534	1029.2593	1055.378	1063.9019	1077.4917	1087.1694	1124.0874	1162.493	1175.3895	1212.1969	1227.5971	1245.8521	1272.552	1283.5114	1288.3268	1311.3183	1342.5504	1388.3326	1480.0561	1482.084	1677.0335	3040.3667	3040.6987	3083.7509	3091.175	3098.0407	3098.329	3102.3136	3106.3064	3170.8855	3195.0853
C1C2C=CC3CC2C13	C1[C@H]2C=C[C@@H]3C[C@H]2[C@H]13	
InChI=1S/C8H10/c1-2-6-4-7-5(1)3-8(6)7/h1-2,5-8H,3-4H2	InChI=1S/C8H10/c1-2-6-4-7-5(1)3-8(6)7/h1-2,5-8H,3-4H2/t5-,6-,7-,8-/m1/s1
