16
gdb 75698	2.24011	2.0794	1.18367	2.8057	73.41	-0.2472	-0.0241	0.2231	1013.8338	0.125573	-434.064339	-434.05652	-434.055576	-434.096804	29.251	
C	 0.161780154	 1.4450182054	 0.0021923872	-0.370915
N	 0.0425322752	 0.0048306495	-0.0021128854	-0.135846
C	 0.0711577524	-0.7694796632	-1.1713614943	 0.389361
N	 0.0442310524	-0.4121595846	-2.3890021731	-0.54867
C	 0.1131229752	-2.2005520585	-0.7244607093	-0.032724
O	 1.2461875818	-2.4719168688	 0.1115571867	-0.242892
C	-0.013186264	-2.1947419293	 0.7389351519	-0.032709
C	-0.1300474428	-0.7602267014	 1.1608504015	 0.389355
N	-0.3643598401	-0.3934172545	 2.3530451841	-0.548603
H	 0.7950146937	 1.7604033782	-0.8312006519	 0.148868
H	-0.8100269675	 1.9460534111	-0.0839038352	 0.142534
H	 0.6427058405	 1.7677053493	 0.9293100057	 0.148845
H	-0.0149922982	 0.6009948416	-2.4992963785	 0.217437
H	-0.2177255556	-2.9899503536	-1.3879215151	 0.129266
H	-0.4533419075	-2.9791344931	 1.3420744708	 0.12927
H	-0.4409217595	 0.620551212	 2.4434202348	 0.217423
110.1704	120.5656	163.7504	218.773	331.2917	355.4618	376.3728	501.4562	599.982	640.9228	693.5544	731.046	774.5326	859.7807	860.7703	879.3391	884.1156	924.8547	988.0295	1064.8743	1067.9075	1113.1826	1146.7688	1224.2392	1246.8306	1248.0608	1283.2667	1325.524	1393.7725	1422.6827	1463.0827	1497.9882	1507.2936	1730.2459	1772.8687	3025.4229	3093.7206	3122.3852	3200.6663	3210.3684	3471.3993	3472.8656
CN1C(=N)C2OC2C1=N	CN1[C]([NH])[C@H]2O[C@H]2[C]1[NH]	
InChI=1S/C5H7N3O/c1-8-4(6)2-3(9-2)5(8)7/h2-3,6-7H,1H3	InChI=1S/C5H7N3O/c1-8-4(6)2-3(9-2)5(8)7/h2-3,6-7H,1H3/t2-,3+
