21
gdb 90915	3.30654	1.48373	1.39781	1.4122	83.13	-0.2199	0.0838	0.3037	1044.1477	0.184027	-387.004172	-386.996758	-386.995814	-387.035427	31.265	
C	-0.4304382671	 1.43792757	-0.1280365095	-0.406058
C	 0.0047656506	-0.0175274054	-0.0275008891	-0.078263
C	 1.2021392737	-0.4227478275	-1.0124787555	-0.293581
C	 2.1706575674	-0.1183209546	 0.1868419718	-0.000774
C	 2.9608949495	-0.8289992684	 1.3578833795	-0.119786
C	 1.9237836861	-0.0521708205	 2.3139704356	-0.334813
C	 1.0072576173	-0.3852902167	 1.1050780608	 0.420481
O	 0.9536553497	-1.8428061117	 1.177220506	-0.31278
C	 2.3302169028	-2.2119705292	 1.3657004989	-0.078833
H	 0.418893378	 2.1271798087	-0.0754490338	 0.112915
H	-0.9433937403	 1.617906456	-1.0786817281	 0.11782
H	-1.1222704371	 1.6984023936	 0.6797586938	 0.120307
H	-0.8649435635	-0.6786824428	-0.0617967406	 0.083908
H	 1.1417271362	-1.4680406285	-1.310792516	 0.121266
H	 1.335660305	 0.2071070826	-1.8956979591	 0.092922
H	 2.4366809583	 0.9396127769	 0.175148417	 0.083269
H	 4.0404537676	-0.7481663064	 1.4893781603	 0.072244
H	 1.7038372692	-0.5013068727	 3.2865741807	 0.099964
H	 2.1667386095	 1.0062931804	 2.4120271893	 0.106397
H	 2.6710856393	-2.8546995722	 0.5444144477	 0.0967
H	 2.4594811779	-2.7493971914	 2.3132934304	 0.096697
177.4536	203.9106	232.3351	318.5329	354.9591	424.9023	436.0803	487.8531	592.1285	663.3401	685.0289	748.6629	798.3343	827.5109	834.9188	889.4077	926.0548	940.7106	964.731	988.2405	994.2606	1025.5534	1036.0849	1052.4151	1074.7625	1089.3937	1120.8047	1151.8758	1172.2868	1182.5969	1197.1615	1205.5342	1221.7233	1236.3235	1266.3064	1281.4874	1341.6483	1352.622	1375.0236	1414.2111	1472.7207	1486.5197	1496.5833	1498.7845	1528.3581	3014.3665	3032.7519	3051.0955	3061.948	3069.9681	3072.8745	3091.4389	3099.0178	3104.5874	3113.9564	3142.3284	3153.8792
CC1CC2C3CC12OC3	C[C@H]1C[C@@H]2[C@H]3C[C@@]12OC3	
InChI=1S/C8H12O/c1-5-2-7-6-3-8(5,7)9-4-6/h5-7H,2-4H2,1H3	InChI=1S/C8H12O/c1-5-2-7-6-3-8(5,7)9-4-6/h5-7H,2-4H2,1H3/t5-,6-,7+,8+/m0/s1
