16
gdb 35533	4.72809	1.09597	0.98431	3.8578	76.25	-0.2533	0.0055	0.2588	1182.3238	0.124716	-400.684768	-400.677282	-400.676338	-400.716794	29.044	
C	-0.1188911414	-1.2209259063	-0.268643151	-0.44252
C	-0.0012096998	-0.0346141322	-0.1189913066	 0.348805
C	 0.0923880324	 1.402226369	 0.089563399	-0.159591
C	-0.6726410759	 1.8782106393	 1.4003759794	-0.264522
C	 0.0920863868	 3.1758993553	 1.6898079387	-0.153979
C	 1.0224602613	 3.5739367046	 2.8752598772	-0.128654
O	 2.2138203262	 3.4168438215	 1.9971403052	-0.272191
C	 1.4015113836	 2.7943484828	 1.093524411	 0.439952
N	 1.5242872894	 1.8427726608	 0.275334439	-0.306051
H	-0.206732787	-2.2693364021	-0.4126900246	 0.198056
H	-0.3322784429	 1.9117560166	-0.7872391942	 0.113311
H	-1.7457479391	 1.9970953717	 1.2396343408	 0.116881
H	-0.5142404813	 1.129118792	 2.1812050945	 0.127499
H	-0.3718176835	 4.0576396281	 1.240703107	 0.113535
H	 0.9458669543	 4.5981461204	 3.2418052052	 0.133134
H	 1.0796824868	 2.8564979984	 3.6973772894	 0.136338
88.7995	152.0266	213.1607	300.2608	334.2994	446.1511	483.5799	530.3518	598.101	624.0929	657.7916	681.3176	753.65	808.9347	825.2758	912.8969	916.2581	952.6891	959.22	1051.3893	1062.3916	1097.2876	1141.064	1159.1389	1201.8322	1213.2609	1256.4175	1273.2823	1335.9815	1345.7695	1369.3578	1482.7583	1498.5007	1769.3724	2242.0303	3000.912	3069.4854	3071.8234	3081.0469	3129.892	3147.2545	3504.7414
C#CC1CC2COC2=N1	C#C[C@H]1C[C@H]2CO[C]2[N]1	
InChI=1S/C7H7NO/c1-2-6-3-5-4-9-7(5)8-6/h1,5-6H,3-4H2	InChI=1S/C7H7NO/c1-2-6-3-5-4-9-7(5)8-6/h1,5-6H,3-4H2/t5-,6-/m0/s1
