21
gdb 56189	4.48394	0.68634	0.63549	1.8234	79.88	-0.2418	-0.0067	0.2351	1800.3241	0.18018	-424.23434	-424.224134	-424.22319	-424.272143	35.176	
C	-0.1123971614	 1.4669792127	 0.2623237276	-0.472658
C	 0.0648728801	-0.0272552621	 0.0520870909	 0.374672
O	 1.1603961275	-0.533336352	-0.0384711342	-0.292473
C	-1.2140023056	-0.8486297977	-0.0361197127	-0.298999
C	-0.9729342423	-2.3496628023	-0.1905419303	-0.195747
C	-2.2728048457	-3.1319491806	-0.2181477946	 0.153212
C	-2.2098861137	-4.6638048408	-0.0228487638	-0.301175
C	-3.106328127	-4.4018030725	 1.2032700609	-0.057187
O	-3.0362517831	-2.9739732924	 1.0074142849	-0.296931
H	 0.8609577287	 1.9587944851	 0.2716678159	 0.141003
H	-0.7373666634	 1.896505689	-0.5285425949	 0.135426
H	-0.6284034697	 1.6561914317	 1.2105042122	 0.140408
H	-1.8190068042	-0.6566410042	 0.8595715142	 0.140855
H	-1.810100253	-0.4554832305	-0.872811973	 0.115257
H	-0.4096733659	-2.5486547539	-1.1099335639	 0.108962
H	-0.3512455484	-2.7045197994	 0.6384167513	 0.110578
H	-2.8811756178	-2.8259809974	-1.0830095675	 0.067479
H	-2.6468861413	-5.2686470002	-0.8184441114	 0.10958
H	-1.212386258	-5.0420718171	 0.2104521719	 0.112912
H	-4.1349536314	-4.7745361879	 1.1158645845	 0.100085
H	-2.7045864043	-4.7023858175	 2.1779739221	 0.104742
21.8056	46.8422	79.4654	100.0983	116.7151	137.1159	236.8064	303.0941	444.4437	448.2485	482.8094	590.4885	729.5184	751.9941	803.8842	838.6454	874.1938	901.0315	943.7551	963.4247	981.6415	1016.3259	1039.1838	1088.4787	1109.0055	1140.8276	1165.6991	1175.97	1201.5438	1222.9494	1256.1469	1275.4184	1303.5616	1314.8355	1363.8977	1378.6133	1387.0144	1409.5101	1449.9348	1465.9169	1474.0709	1477.7877	1490.9119	1531.5546	1810.0941	2981.8557	3012.3314	3014.2661	3037.2328	3042.1336	3053.8547	3054.8282	3077.6843	3087.8008	3097.5976	3133.5091	3151.7097
CC(=O)CCC1CCO1	CC(=O)CC[C@H]1CCO1	
InChI=1S/C7H12O2/c1-6(8)2-3-7-4-5-9-7/h7H,2-5H2,1H3	InChI=1S/C7H12O2/c1-6(8)2-3-7-4-5-9-7/h7H,2-5H2,1H3/t7-/m0/s1
