18
gdb 31526	3.08269	1.13161	0.88051	0.9311	76.79	-0.2013	0.0118	0.2131	1346.6974	0.14679	-439.140457	-439.13107	-439.130125	-439.175307	33.535	
C	 0.2674010314	 1.4724175534	-0.1117273765	-0.378354
C	-0.0680369738	-0.0057876013	 0.1508346734	-0.28845
C	 0.6070233543	-0.5541125379	 1.3602073171	 0.385404
N	 0.0632157156	-1.0058151134	 2.4522786634	-0.387274
C	 1.1350769514	-1.3750437682	 3.239859934	 0.242419
O	 0.9595429823	-1.8996620992	 4.4718508513	-0.436882
C	 2.3065331741	-1.1332749751	 2.5997702732	 0.224177
C	 3.7397334532	-1.3130282527	 2.9268148054	-0.503908
O	 1.956703936	-0.5965288023	 1.3703628742	-0.213306
H	 1.3438775222	 1.6096367481	-0.2445388542	 0.133462
H	-0.2364652675	 1.8232071276	-1.0168446423	 0.118409
H	-0.0544166174	 2.1007471487	 0.7240077895	 0.128637
H	-1.1426599641	-0.1387205673	 0.2968583964	 0.132331
H	 0.2191255149	-0.6045446976	-0.7225538771	 0.12279
H	 0.0075023892	-1.9340378045	 4.6214994199	 0.303751
H	 4.2417339634	-1.9881592061	 2.2234134372	 0.134205
H	 4.2862413223	-0.3623321279	 2.9186735462	 0.133929
H	 3.8231678625	-1.7432809345	 3.9277130489	 0.148659
37.0259	118.2523	131.4613	195.6998	219.8769	244.7062	286.6097	315.6366	331.6751	405.0206	512.7346	606.1661	653.4181	694.588	747.6384	794.7233	806.8599	965.9359	970.3412	1026.3304	1067.7228	1081.3749	1096.2481	1126.8752	1197.4889	1271.9087	1321.0919	1336.0686	1366.4938	1401.7215	1409.8667	1436.9593	1473.5408	1473.7834	1495.0038	1497.599	1507.1036	1610.0367	1741.1676	3022.0305	3034.2092	3044.6823	3068.617	3103.2771	3117.2699	3126.3881	3127.7809	3812.5239
CCC1=NC(O)=C(C)O1	CCc1nc(O)c(C)o1	
InChI=1S/C6H9NO2/c1-3-5-7-6(8)4(2)9-5/h8H,3H2,1-2H3	InChI=1S/C6H9NO2/c1-3-5-7-6(8)4(2)9-5/h8H,3H2,1-2H3
