27
gdb 99965	2.17402	1.16643	1.13506	1.3767	91.32	-0.2597	0.065	0.3247	1360.5243	0.247916	-390.704043	-390.691826	-390.690882	-390.740822	46.381	
C	-0.0610912917	 1.6243217212	 0.085391415	-0.400347
C	 0.0094264227	 0.0941585869	-0.0124887694	-0.206537
C	 0.723796984	-0.4742629281	-1.2672240946	 0.29142
C	 0.0046096085	 0.0076623716	-2.5478743084	-0.430902
C	 2.184146597	 0.0301451922	-1.3171917601	-0.430906
C	 0.7214120206	-2.0530010831	-1.234201325	 0.352071
C	 1.4866447411	-2.6361020709	-0.0319884662	-0.431515
C	-0.6939705444	-2.6585664129	-1.2633100029	-0.431502
O	 1.4050215574	-2.4444754476	-2.4376792906	-0.471469
H	 0.9325398779	 2.0807127082	 0.1161654749	 0.118189
H	-0.6067977294	 2.0654543763	-0.7537446967	 0.118186
H	-0.5823934249	 1.9162082633	 1.0027134993	 0.109532
H	 0.5126838399	-0.2794068397	 0.8865163938	 0.091234
H	-1.0145576272	-0.2946434376	 0.0238922757	 0.091238
H	 0.161898119	 1.0793710849	-2.6971911561	 0.106031
H	 0.3919296427	-0.514739824	-3.4244172434	 0.132429
H	-1.0764182387	-0.1572649898	-2.4997138114	 0.102579
H	 2.7035751168	-0.117898111	-0.3651286065	 0.102575
H	 2.742934503	-0.4907713835	-2.0967068179	 0.132428
H	 2.2140018717	 1.1004596994	-1.5388389837	 0.106034
H	 1.0163885175	-2.3841164805	 0.9220914969	 0.117304
H	 1.4979026138	-3.7303655235	-0.1047738521	 0.097066
H	 2.5231580835	-2.2949211741	-0.0136834672	 0.124116
H	-1.2500359251	-2.3340555396	-2.1445511389	 0.124117
H	-0.6203945581	-3.7521995907	-1.3005400226	 0.097067
H	-1.2721212278	-2.4073717969	-0.3702551722	 0.117299
H	 1.4271485903	-3.4064510107	-2.4589104699	 0.272261
33.2646	75.7897	168.8521	199.3304	218.9866	232.0032	233.1426	250.7395	279.2883	293.0902	333.8009	336.8541	359.9262	381.0634	390.4947	409.276	468.0166	499.56	538.7364	664.5709	788.4912	799.2489	869.3237	915.4264	925.5476	946.0772	964.4768	997.3531	1002.2664	1025.9199	1059.7758	1072.7392	1124.058	1179.3718	1191.8684	1211.2445	1244.9575	1253.9371	1336.7816	1352.1258	1375.7409	1391.5581	1398.0346	1406.7116	1414.874	1423.6165	1475.8873	1482.2151	1482.6476	1492.7409	1498.3849	1498.9924	1504.9356	1511.7659	1511.8984	1518.7286	1522.5206	3029.8198	3030.4397	3037.3626	3041.1764	3041.4712	3048.4377	3066.2357	3094.4128	3101.1221	3101.8237	3102.164	3108.8473	3117.5355	3133.9963	3137.0326	3138.0845	3139.7182	3813.9539
CCC(C)(C)C(C)(C)O	CCC(C)(C)C(C)(C)O	
InChI=1S/C8H18O/c1-6-7(2,3)8(4,5)9/h9H,6H2,1-5H3	InChI=1S/C8H18O/c1-6-7(2,3)8(4,5)9/h9H,6H2,1-5H3
