16
gdb 45230	3.54955	1.6926	1.51466	1.8493	68.28	-0.252	0.0129	0.2649	886.5551	0.1279	-437.874924	-437.868978	-437.868034	-437.905138	25.025	
N	-0.0174664035	 1.3296803834	-0.2700912095	-0.554936
C	-0.0007832685	 0.0930079783	-0.022849041	 0.411312
O	 1.1331619639	-0.6755894986	 0.1364313075	-0.255359
C	 0.7002952161	-1.9776231442	 0.5824238559	 0.050298
C	 0.0604217056	-1.8099781368	 1.9843529833	-0.234234
C	-1.3709613628	-1.6013350503	 1.4581331166	 0.057462
O	-1.5507335431	-2.8417117993	 0.7037237888	-0.296526
C	-0.6238344422	-2.2417139683	-0.2207718967	 0.075711
C	-1.169869	-0.8333306776	 0.0941518475	-0.130567
H	 0.9349656376	 1.6974153947	-0.3216364356	 0.223962
H	 1.5300563772	-2.6713246442	 0.4751849032	 0.097259
H	 0.1033798763	-2.7121201596	 2.5969107523	 0.121369
H	 0.497415343	-0.9672727689	 2.5235483912	 0.122005
H	-2.1819478236	-1.3682427183	 2.1450962221	 0.098183
H	-0.5783270089	-2.6974217806	-1.2080749201	 0.101422
H	-2.0889362972	-0.5177396395	-0.3891302954	 0.112638
151.1684	312.5123	402.7056	457.9361	538.2749	583.0316	626.4949	657.3818	792.9678	823.3616	854.0238	871.2783	897.3633	899.7602	917.9008	932.8671	957.2522	973.8846	1001.0278	1030.5338	1043.9552	1067.9604	1133.2274	1159.8822	1167.2183	1207.836	1234.3995	1259.007	1279.574	1300.8617	1311.9806	1336.4187	1373.0546	1476.0847	1788.5978	3081.0658	3139.4045	3143.9746	3147.3391	3160.5678	3183.1659	3464.2281
N=C1OC2CC3OC2C13	[NH][C]1O[C@H]2C[C@@H]3O[C@H]2[C@H]13	
InChI=1S/C6H7NO2/c7-6-4-2-1-3(9-6)5(4)8-2/h2-5,7H,1H2	InChI=1S/C6H7NO2/c7-6-4-2-1-3(9-6)5(4)8-2/h2-5,7H,1H2/t2-,3-,4+,5+/m0/s1
