14
gdb 129475	4.55172	0.99318	0.85791	5.3552	63.27	-0.2702	-0.0388	0.2314	1261.7528	0.101023	-469.999755	-469.991653	-469.990709	-470.03391	28.53	
N	 0.2142863132	 1.1722433222	-0.318249701	-0.517155
C	-0.0680643112	 0.0196565101	 0.3449537962	 0.415244
O	 0.5147651837	-0.3241193698	 1.3544223796	-0.351662
C	-1.2289416661	-0.7939138297	-0.2439793175	-0.438141
C	-0.9950406174	-2.2672008332	-0.1505844612	 0.348575
N	-1.214620391	-3.0622843098	-1.1640555856	-0.154156
O	-0.9163050895	-4.320990188	-0.7262690027	-0.149737
N	-0.5029569776	-4.3081876037	 0.5780288644	-0.068601
C	-0.5444486655	-3.0594296119	 0.9466672579	-0.089189
H	 0.9678768492	 1.7454084389	 0.0258902663	 0.269922
H	-0.207154479	 1.4069362051	-1.1992741088	 0.267466
H	-2.1176773837	-0.5252533138	 0.3421913479	 0.161213
H	-1.4396563238	-0.5309044428	-1.2833361275	 0.134701
H	-0.2494683815	-2.7412016437	 1.932088602	 0.171519
37.7648	61.9917	141.2065	225.7019	297.0845	325.3623	376.1284	508.0609	590.3713	648.448	656.5369	697.558	797.8413	858.8414	889.4429	908.7999	939.6532	955.8934	1026.2454	1056.2132	1095.4877	1187.9981	1207.816	1289.3345	1393.8743	1426.6806	1453.2865	1470.0457	1614.5289	1622.7793	1799.0583	3033.6896	3106.1298	3301.074	3602.9647	3739.8828
NC(=O)CC1=NON=C1	NC(=O)Cc1nonc1	
InChI=1S/C4H5N3O2/c5-4(8)1-3-2-6-9-7-3/h2H,1H2,(H2,5,8)	InChI=1S/C4H5N3O2/c5-4(8)1-3-2-6-9-7-3/h2H,1H2,(H2,5,8)
