23
gdb 85856	2.10105	1.41497	1.29687	0.745	81.53	-0.249	0.0725	0.3215	1186.0227	0.201866	-425.428859	-425.41802	-425.417076	-425.463409	41.482	
C	-0.8876126707	 0.9977003939	-0.1397050036	-0.424198
C	 0.1676684953	-0.0953775367	-0.0546939074	 0.003505
C	 1.5591735528	 0.1366504001	-0.7022759682	-0.310852
C	 2.2100095909	-0.6405971577	 0.4814571204	 0.379014
C	 2.4961896482	-2.1046862197	 0.166212471	-0.444642
O	 3.3314625881	-0.0333853412	 1.1002051233	-0.482638
C	 0.8955280435	-0.4163143459	 1.2966266884	 0.346312
C	 0.9858850671	 0.7503689341	 2.2734423007	-0.452014
O	 0.4667882392	-1.5922469449	 1.9638481715	-0.480221
H	-0.500854009	 1.9649983141	 0.1968628963	 0.113776
H	-1.2321874526	 1.1237091951	-1.172069412	 0.115248
H	-1.7664904073	 0.7576131017	 0.4701114884	 0.109073
H	-0.2543879514	-1.0384143657	-0.4175331472	 0.07674
H	 1.7210285266	-0.2549241294	-1.7100919151	 0.088911
H	 1.8539291889	 1.1897414534	-0.6754905304	 0.099131
H	 3.3327050802	-2.1736385967	-0.5414305531	 0.094993
H	 2.7562694972	-2.6454690884	 1.0790144324	 0.133088
H	 1.6348308047	-2.6009732956	-0.2869210863	 0.126323
H	 4.1209089438	-0.3080964884	 0.6228202954	 0.274002
H	 1.3682614696	 1.6573325461	 1.8004169202	 0.128171
H	-0.0052422253	 0.9772583392	 2.6860113124	 0.097977
H	 1.661555633	 0.4929236773	 3.0922567991	 0.13328
H	-0.2030916027	-1.3459084047	 2.6092891641	 0.275024
94.3255	164.993	204.416	209.9266	221.6925	236.035	241.3281	253.2765	266.5784	307.7631	345.9292	362.0193	407.6702	453.9922	506.8292	550.8711	590.133	685.0445	786.7319	858.7527	888.6105	911.8167	940.8729	959.2434	989.0543	1013.2326	1064.5356	1114.4113	1128.5551	1144.2298	1178.0762	1192.2592	1211.0434	1225.6236	1264.9272	1287.1843	1326.4366	1377.918	1400.5845	1403.4768	1409.2712	1414.2459	1478.8252	1482.6364	1485.8982	1487.7122	1495.4318	1501.0556	1505.2175	3022.1303	3024.6131	3029.2066	3047.3082	3051.96	3085.4336	3099.8679	3102.7725	3106.5148	3109.7587	3133.9601	3135.2606	3812.8091	3816.6307
CC1CC(C)(O)C1(C)O	C[C@H]1C[C@@](C)(O)[C@]1(C)O	
InChI=1S/C7H14O2/c1-5-4-6(2,8)7(5,3)9/h5,8-9H,4H2,1-3H3	InChI=1S/C7H14O2/c1-5-4-6(2,8)7(5,3)9/h5,8-9H,4H2,1-3H3/t5-,6+,7+/m0/s1
