19
gdb 83994	2.75911	1.58301	1.27373	2.5255	76.36	-0.2281	0.0117	0.2397	1044.5307	0.160716	-423.000572	-422.992769	-422.991824	-423.032537	31.166	
O	-0.0767845723	 1.3956269977	-0.1007809327	-0.426259
C	-0.0030522104	 0.0104173745	-0.0297106417	 0.098205
C	-0.3506642227	-0.6583722694	 1.2707790595	 0.013389
O	-0.7264476652	 0.2733557293	 2.2406045457	-0.259386
C	-1.7679398775	-0.1078302391	 3.1347459503	-0.057126
C	-2.9713600355	-0.7960220702	 2.4618106309	-0.286154
C	-3.3834023436	-0.1497453317	 1.1607085473	-0.062727
C	-2.605461611	-0.1804128628	 0.0779198031	-0.044259
C	-1.2693839907	-0.8343262057	 0.0644486018	-0.173665
H	-0.3939865548	 1.6878260579	 0.7654068157	 0.29529
H	 0.8224517733	-0.3845069462	-0.6138986823	 0.100704
H	 0.2312179869	-1.5025306503	 1.6399059103	 0.087181
H	-1.3647794697	-0.7653536083	 3.9191769239	 0.096321
H	-2.0772412657	 0.8283091506	 3.609467864	 0.113519
H	-2.7231677236	-1.8481798432	 2.2817868723	 0.120709
H	-3.7956379567	-0.794697428	 3.1824619358	 0.104582
H	-4.3454747628	 0.3541526836	 1.1209055606	 0.090444
H	-2.9366740901	 0.2852290304	-0.847419756	 0.095964
H	-1.213642768	-1.7972582991	-0.4429693585	 0.093267
137.4838	152.2179	208.2722	285.4912	331.3955	370.8551	391.1639	431.9879	576.7903	634.8183	635.5667	713.4427	758.561	787.3512	800.5783	861.6564	912.041	924.9738	977.1202	995.6748	1028.5564	1052.7715	1083.0044	1093.378	1113.3529	1121.1868	1167.0869	1216.3512	1228.1385	1269.4795	1275.9124	1326.45	1340.1262	1361.2765	1374.1704	1409.525	1427.2491	1456.6099	1483.9489	1507.6984	1709.3833	2996.0275	3038.8315	3071.7619	3089.136	3096.0406	3105.2763	3146.3285	3157.0298	3170.75	3742.1028
OC1C2OCCC=CC12	O[C@H]1[C@H]2OCCC=C[C@@H]12	
InChI=1S/C7H10O2/c8-6-5-3-1-2-4-9-7(5)6/h1,3,5-8H,2,4H2	InChI=1S/C7H10O2/c8-6-5-3-1-2-4-9-7(5)6/h1,3,5-8H,2,4H2/t5-,6+,7-/m0/s1
