15
gdb 127839	1.54282	1.10926	0.66264	3.1378	74.06	-0.2313	-0.0074	0.2239	1607.8145	0.106512	-450.183296	-450.171104	-450.17016	-450.225643	36.939	
C	 0.0177218878	 1.1990800405	-0.0917694385	-0.334784
N	-0.5271701961	 0.0667201719	 0.6407717359	-0.270574
C	-0.1177255119	-1.0654551545	 0.6770690014	 0.452537
C	 0.2500233801	-2.3312710001	 0.7929608153	-0.428187
C	 1.2267243866	-2.7263453085	 1.8289666658	 0.431611
N	 1.4958612718	-4.0773585334	 1.86435047	-0.53887
O	 1.7857325977	-1.9398201883	 2.5746473321	-0.386895
N	 2.2980946128	 0.9235343796	 4.0511229849	 0.006413
N	 1.8945715676	 1.1453058182	 3.0539908108	-0.008728
H	 0.8252599765	 0.912183431	-0.7729333438	 0.136828
H	-0.7898008984	 1.6742636931	-0.6541168554	 0.145819
H	 0.3977029384	 1.9209005281	 0.635292501	 0.166606
H	-0.1665856091	-3.0586588207	 0.1056260189	 0.117336
H	 0.8510880351	-4.7353154355	 1.4592052354	 0.252674
H	 2.0246262012	-4.3927650614	 2.6623022663	 0.258214
12.172	39.0048	48.5556	58.2666	73.0464	76.2537	103.1886	117.9736	197.0397	238.0229	341.7134	396.4767	472.643	515.7813	610.5041	662.2269	675.4211	775.7066	881.2303	931.3873	1088.8684	1135.6631	1141.7581	1200.0671	1300.4048	1440.3772	1467.2609	1488.7516	1498.1728	1618.2309	1762.2445	2173.7837	2435.12	3035.8668	3117.6704	3128.9039	3186.1894	3589.9727	3717.6421	12.1785	39.0052	48.5557	58.2666	73.0465	76.2542	103.1892	117.9747	197.0401	238.0227	341.7141	396.4768	472.6431	515.7815	610.5043	662.227	675.4212	775.7061	881.2302	931.3873	1088.8684	1135.6631	1141.758	1200.0665	1300.4048	1440.3771	1467.2608	1488.7514	1498.1727	1618.2311	1762.2446	2173.7837	2435.1201	3035.8669	3117.6704	3128.9039	3186.1895	3589.9728	3717.6421
CN=C1C=C(N)ON=N1	C[N][C][CH]C(=O)N.N#N	
InChI=1S/C4H6N4O/c1-6-4-2-3(5)9-8-7-4/h2H,5H2,1H3	InChI=1S/C4H6N2O.N2/c1-6-3-2-4(5)7;1-2/h2H,1H3,(H2,5,7);
