21
gdb 87118	2.1476	1.46418	1.21745	1.5425	74.68	-0.2384	0.0636	0.302	1155.0065	0.178542	-461.340221	-461.329824	-461.32888	-461.374459	40.297	
C	 0.3986288125	 1.4756250906	-0.0602899201	-0.415977
C	 0.01386048	-0.0103560332	-0.1432770335	 0.259116
C	 0.1867963445	-0.6836735454	 1.2216908522	-0.427802
O	-1.3638651071	-0.1300096087	-0.563437219	-0.482795
C	 0.7665501721	-0.6558773514	-1.3131861834	 0.442267
O	 0.4295525951	-0.0445892738	-2.5327317355	-0.478662
C	 2.2087074089	-1.0736504289	-1.2476131687	-0.390047
C	 1.1242035599	-2.1165434906	-1.4509160123	 0.023443
O	 0.8321263519	-3.0414858958	-0.445525815	-0.420842
H	 1.4356900381	 1.5903587393	 0.2691882813	 0.119323
H	 0.2909974382	 1.9536910419	-1.0352340009	 0.132041
H	-0.2389840831	 1.992170356	 0.6673468441	 0.095853
H	-0.3906400253	-0.1243469059	 1.9670273097	 0.094165
H	-0.1624885689	-1.7135926274	 1.1953261954	 0.154523
H	 1.2314854791	-0.6762752589	 1.5474464884	 0.108519
H	-1.889030924	 0.4787989347	-0.0344807555	 0.280539
H	-0.5373769097	-0.0182621782	-2.5337014286	 0.285831
H	 2.8431956037	-0.8060539894	-2.0851692679	 0.1222
H	 2.6883397522	-1.0600759734	-0.2747660739	 0.114171
H	 1.0039864189	-2.4896719435	-2.4674322702	 0.096069
H	 1.5842257232	-3.6378440878	-0.3654361366	 0.288067
70.08	178.7846	222.2523	233.6629	237.707	263.2863	271.9737	276.7995	317.6393	353.8444	372.6374	418.2539	447.3979	466.5075	504.6809	520.5557	601.18	636.5874	819.4473	846.4586	917.5558	929.9999	949.039	960.9187	981.1106	1021.9881	1041.5796	1099.9615	1129.8013	1172.1287	1199.6737	1200.5726	1241.3822	1263.4183	1300.6574	1374.4398	1389.3258	1396.7812	1415.6026	1426.7602	1478.4206	1484.6988	1497.1987	1501.3892	1513.8173	3028.6053	3037.7631	3093.5858	3101.4078	3109.5487	3133.9235	3140.996	3177.8515	3227.1552	3755.0045	3797.1307	3820.0959
CC(C)(O)C1(O)CC1O	CC(C)(O)[C@@]1(O)C[C@H]1O	
InChI=1S/C6H12O3/c1-5(2,8)6(9)3-4(6)7/h4,7-9H,3H2,1-2H3	InChI=1S/C6H12O3/c1-5(2,8)6(9)3-4(6)7/h4,7-9H,3H2,1-2H3/t4-,6-/m1/s1
