15
gdb 28194	5.10059	1.26807	1.022	2.422	73.44	-0.1798	0.0038	0.1836	1093.1846	0.115425	-416.85208	-416.845093	-416.844149	-416.883237	27.671	
O	 0.0779718482	 1.2947736225	 0.1538862872	-0.427282
C	 0.0683649082	-0.042691036	 0.0157731731	 0.413024
N	 0.0878393536	-0.7142481348	-1.1083556377	-0.456768
C	 0.0654771063	-2.0318324896	-0.6821929773	 0.268129
C	 0.0332253907	-2.126872452	 0.6784958621	 0.283931
C	 0.0092409136	-3.5481012712	 1.1297181666	-0.411961
C	 0.0336374553	-4.2613538232	-0.2245873129	-0.090843
C	 0.0655929829	-3.3793966027	-1.2455747043	-0.18019
N	 0.034923784	-0.8227724344	 1.1425582053	-0.437023
H	 0.10188674	 1.6544735608	-0.7417916951	 0.314838
H	 0.8732177001	-3.8356173238	 1.7439318857	 0.128319
H	-0.8874516846	-3.8187817398	 1.7033497976	 0.128322
H	 0.0251875122	-5.3396697477	-0.3044973415	 0.095981
H	 0.0875696159	-3.621631017	-2.2997348964	 0.100995
H	 0.0165450235	-0.4787009411	 2.0870472675	 0.270529
122.9179	256.1062	282.5299	315.5492	398.4248	425.4449	468.2225	526.9945	563.9201	655.0994	713.6697	732.8776	752.8926	791.9807	885.2652	918.8788	919.8856	944.2989	1027.1988	1080.783	1126.1138	1163.2108	1172.7699	1209.7979	1271.7408	1301.5599	1417.8832	1442.1245	1462.6518	1523.7661	1550.8726	1602.576	1629.4928	3021.7586	3049.1494	3215.9852	3238.5699	3676.8046	3806.0706
OC1=NC2=C(CC=C2)N1	Oc1nc2c(CC=C2)[nH]1	
InChI=1S/C6H6N2O/c9-6-7-4-2-1-3-5(4)8-6/h1-2H,3H2,(H2,7,8,9)	InChI=1S/C6H6N2O/c9-6-7-4-2-1-3-5(4)8-6/h1-2H,3H2,(H2,7,8,9)
