15
gdb 14677	4.28304	0.79955	0.70871	3.8478	68.65	-0.262	0.0121	0.2741	1535.2967	0.11654	-399.745686	-399.736331	-399.735387	-399.781933	30.501	
O	-0.4650787337	 0.4483018885	 1.3561240329	-0.408677
C	-0.3760020412	-0.1662291735	 0.0777161317	-0.214533
C	-1.6980804838	-0.6037614719	-0.3493426907	 0.079302
C	-2.7809798548	-0.9727718731	-0.7229872424	 0.091808
C	-4.0973021276	-1.4303040055	-1.1514661608	-0.238252
O	-4.3316420686	-2.8213170169	-0.9057880153	-0.1726
C	-4.4738083869	-3.1747672145	 0.3910900942	 0.135063
N	-4.6733509454	-4.3835305222	 0.6892187068	-0.437094
H	 0.4250784529	 0.711824125	 1.6111077934	 0.292875
H	 0.0285767621	 0.5291451344	-0.6757247387	 0.122845
H	 0.2951229798	-1.0401620569	 0.0964362027	 0.126428
H	-4.8800203838	-0.8249310145	-0.6734687363	 0.139919
H	-4.2118282863	-1.3154844874	-2.2328226285	 0.154715
H	-4.3992833856	-2.3305852177	 1.0889093055	 0.09791
H	-4.7688167271	-4.4799307439	 1.6980937154	 0.230291
29.6196	54.6998	80.6511	129.115	151.8291	227.7446	284.5178	324.9011	352.4698	473.6756	554.9596	664.2432	774.1075	820.4928	950.1509	1021.7821	1027.6835	1040.7588	1050.6663	1115.0222	1151.6219	1240.5841	1249.7943	1258.3119	1315.9589	1392.7001	1428.0522	1459.1938	1481.1141	1498.7412	1749.2847	2369.2495	2966.8137	2986.7405	3012.4956	3036.8062	3091.8061	3518.1955	3818.5686	29.6193	54.6997	80.6512	129.1149	151.8289	227.7444	284.5177	324.9009	352.4697	473.6757	554.9596	664.2433	774.1075	820.4928	950.1508	1021.7821	1027.6835	1040.7587	1050.6663	1115.0221	1151.6219	1240.5841	1249.7943	1258.3119	1315.959	1392.7002	1428.0521	1459.1938	1481.1144	1498.7412	1749.2846	2369.2495	2966.8137	2986.7405	3012.4956	3036.8061	3091.806	3518.1954	3818.5687
OCC#CCOC=N	OCC#CCO[CH][NH]	
InChI=1S/C5H7NO2/c6-5-8-4-2-1-3-7/h5-7H,3-4H2	InChI=1S/C5H7NO2/c6-5-8-4-2-1-3-7/h5-7H,3-4H2
