17
gdb 30875	2.44449	1.3975	0.93235	1.4433	74.03	-0.1617	0.0526	0.2143	1242.4018	0.135691	-455.148667	-455.139181	-455.138237	-455.183046	34.242	
C	 0.0932265983	 1.1509040122	-0.3303206704	-0.248602
O	-0.2053719759	 0.1217182357	 0.6213370821	-0.275092
C	-1.2645955881	-0.6460669253	 0.3140905232	 0.306974
C	-1.3699340931	-1.9386835989	-0.0814048215	 0.147701
N	-0.3240396176	-2.8238672289	-0.3994776263	-0.619247
C	-2.7839835181	-2.2119849347	-0.1948036818	-0.344383
C	-3.4157455367	-1.0523566678	 0.13674367	 0.386938
N	-4.75362013	-0.7041178566	 0.2905134844	-0.593685
O	-2.5278346927	-0.0800987748	 0.4481834966	-0.215914
H	 1.0047609967	 1.6418744972	 0.0166764627	 0.128216
H	 0.2554959393	 0.7235331562	-1.3269502179	 0.121339
H	-0.7195474111	 1.8837547925	-0.3787856899	 0.127711
H	 0.5625092204	-2.4698981637	-0.0585770184	 0.24279
H	-0.4751926532	-3.7438279677	-0.0013786226	 0.240753
H	-3.2446855034	-3.1397760288	-0.4945151468	 0.089795
H	-5.3676820277	-1.2772133001	-0.2724012006	 0.252628
H	-4.9160327873	 0.2770522735	 0.0998026572	 0.252079
71.288	134.6114	145.4	153.9929	211.889	235.4123	275.6694	303.1515	336.1603	440.6802	545.1453	603.2034	635.8445	660.1647	668.0543	711.2166	747.4449	815.5462	836.2123	1007.8672	1012.5237	1065.4863	1104.5759	1163.2406	1172.2696	1203.1408	1219.9125	1309.2561	1382.3043	1460.8021	1481.3702	1488.208	1503.627	1619.8886	1648.5656	1668.3743	1734.7515	3018.0091	3089.0005	3131.4444	3255.8278	3512.4631	3538.7262	3600.2047	3638.4289
COC1=C(N)C=C(N)O1	COc1c(N)cc(N)o1	
InChI=1S/C5H8N2O2/c1-8-5-3(6)2-4(7)9-5/h2H,6-7H2,1H3	InChI=1S/C5H8N2O2/c1-8-5-3(6)2-4(7)9-5/h2H,6-7H2,1H3
