16
gdb 105290	2.31986	1.30815	1.08056	3.1043	72.34	-0.2683	-0.0141	0.2542	1166.9368	0.123485	-434.03938	-434.030278	-434.029334	-434.073821	32.211	
O	 0.1894022613	 1.3275227851	 0.1246000655	-0.403824
C	-0.0015723617	 0.0466616732	-0.428336037	-0.123198
C	-1.3068197906	-0.5819154043	 0.0419102847	 0.100411
C	-1.377918518	-2.0424078336	 0.4115207098	-0.261093
N	-1.2830250495	-1.0353690005	 1.4433346076	-0.098308
C	-2.3669174583	-0.8154924438	 2.3082398249	 0.052417
N	-3.0779887706	-1.7741694348	 2.7301250916	-0.40232
C	-2.5155026951	 0.0471629147	-0.4491628848	 0.276872
N	-3.4662345214	 0.5701428665	-0.8482316147	-0.332337
H	 0.2619137998	 1.2174560233	 1.0796898038	 0.293898
H	-0.0180057019	 0.1713577499	-1.514878099	 0.135628
H	 0.8155340484	-0.6423105276	-0.1714145666	 0.10579
H	-2.3330327857	-2.5478977051	 0.3074526219	 0.162437
H	-0.4949062772	-2.655381647	 0.2569149279	 0.137209
H	-2.46180083	 0.238001595	 2.5910976797	 0.117354
H	-3.7684603997	-1.4405174511	 3.4014259148	 0.239066
62.5238	90.9567	140.3394	163.8524	177.3769	259.6721	343.3919	358.8487	406.2459	447.993	565.4251	588.3013	628.811	754.8211	821.2063	859.2147	904.8775	930.9556	984.2314	1056.3325	1070.1158	1094.092	1135.4456	1153.2826	1202.0944	1234.9588	1295.0834	1365.4979	1402.0696	1408.7758	1422.1196	1489.1032	1500.7969	1711.11	2354.38	3007.3027	3073.7712	3097.6608	3121.9955	3218.7304	3499.553	3800.3393
OCC1(CN1C=N)C#N	OC[C@]1(CN1[CH][NH])C#N	
InChI=1S/C5H7N3O/c6-1-5(3-9)2-8(5)4-7/h4,7,9H,2-3H2	InChI=1S/C5H7N3O/c6-1-5(3-9)2-8(5)4-7/h4,7,9H,2-3H2/t5-,8?/m1/s1
