17
gdb 68911	2.72682	1.51868	1.18666	4.3835	68.34	-0.2589	0.009	0.2679	1060.0971	0.134504	-458.996277	-458.98797	-458.987026	-459.028811	32.022	
C	-0.1361967392	 1.4478401378	-0.0006145397	-0.465297
C	 0.0845729511	-0.0343431187	 0.0176876837	 0.374798
C	 1.4348336999	-0.6862598646	-0.18407609	-0.405466
C	 0.7027060444	-0.8159748635	 1.141954283	 0.33308
O	 1.1693380442	-0.1339477196	 2.2621707498	-0.467992
C	-0.1738140061	-2.0358820776	 1.3281763949	-0.44324
C	-1.1960763025	-1.9458975986	 0.1916609748	 0.412544
O	-2.0446739927	-2.7332978762	-0.1025285404	-0.325824
O	-1.0124656344	-0.780667154	-0.4999890147	-0.248617
H	 0.6764767391	 1.9477125467	 0.5308466644	 0.137618
H	-0.1741556486	 1.8273729208	-1.0260104351	 0.133835
H	-1.0783301581	 1.6989997075	 0.4955799812	 0.135218
H	 1.5057916519	-1.5447648011	-0.8447747203	 0.125078
H	 2.2923272984	-0.0217701889	-0.1890897733	 0.1251
H	 1.984008059	-0.5556578008	 2.5564648893	 0.290024
H	 0.3410382824	-2.9994439007	 1.2805254368	 0.138211
H	-0.7016598687	-1.9838525885	 2.2859316256	 0.15093
110.396	181.3234	189.4996	211.9034	299.9006	327.5636	392.0641	414.4523	471.0005	517.1904	561.5858	589.6083	619.0213	743.8826	757.7641	845.5522	915.1363	930.0247	938.9479	991.9233	999.7797	1038.1852	1111.6546	1131.2448	1154.1198	1220.5095	1234.7319	1238.3383	1301.2822	1348.7629	1404.5139	1424.3046	1456.2981	1478.5729	1485.932	1506.3453	1888.4562	3046.5355	3061.3322	3105.7276	3113.1279	3125.13	3135.8539	3221.3342	3799.6843
CC12CC1(O)CC(=O)O2	C[C@@]12C[C@]1(O)CC(=O)O2	
InChI=1S/C6H8O3/c1-5-3-6(5,8)2-4(7)9-5/h8H,2-3H2,1H3	InChI=1S/C6H8O3/c1-5-3-6(5,8)2-4(7)9-5/h8H,2-3H2,1H3/t5-,6-/m1/s1
