16
gdb 45737	2.92103	1.67932	1.26884	3.3184	70.44	-0.2239	-0.0292	0.1947	988.9477	0.125216	-437.902785	-437.895103	-437.894159	-437.935334	28.822	
O	-0.0971231438	 0.0104009783	 0.0495786265	-0.362963
C	-0.0721374821	 1.2168942105	 0.0316668812	 0.380939
N	-1.1568330463	 2.0713748351	 0.0331607126	-0.351396
C	-0.732704605	 3.4099054461	-0.0214129852	-0.027354
C	 0.600833549	 3.5102717457	-0.0313971868	-0.235745
C	 1.1865730447	 2.1338176934	 0.0225643783	 0.333368
C	 2.2479339222	 1.7319558464	 1.0840527076	-0.334345
C	 3.0569155112	 1.2278603371	-0.1238788314	-0.069309
O	 2.092197156	 1.781630402	-1.0492921679	-0.313053
H	-2.1099448944	 1.7543909825	-0.0268841011	 0.264639
H	-1.476206674	 4.1946942986	-0.0372847639	 0.136739
H	 1.1764015483	 4.422166178	-0.0676075454	 0.112699
H	 2.6844376008	 2.5847011901	 1.6055727446	 0.114185
H	 1.9257632433	 0.9772009636	 1.8015826969	 0.128356
H	 4.051553964	 1.663323918	-0.2689589161	 0.103304
H	 3.117773466	 0.1379456147	-0.2109033499	 0.119935
83.9685	89.9473	209.5978	242.4184	283.698	430.8412	444.8598	552.1646	569.374	707.2274	715.3432	751.3262	769.5931	800.2321	868.032	915.6052	945.0761	978.6047	1017.7703	1031.4246	1059.4865	1094.6284	1152.651	1165.0427	1202.7484	1214.2188	1255.8962	1270.1511	1347.799	1373.2099	1409.9245	1476.1291	1524.3232	1663.14	1846.4388	3033.1414	3078.8189	3087.1102	3148.8919	3230.7896	3258.147	3663.7141
O=C1NC=CC11CCO1	O=C1NC=C[C@]21CCO2	
InChI=1S/C6H7NO2/c8-5-6(1-3-7-5)2-4-9-6/h1,3H,2,4H2,(H,7,8)	InChI=1S/C6H7NO2/c8-5-6(1-3-7-5)2-4-9-6/h1,3H,2,4H2,(H,7,8)/t6-/m1/s1
