21
gdb 38373	2.09634	2.05155	1.30853	0.9651	77.76	-0.2316	0.0717	0.3033	1039.6379	0.18493	-424.197569	-424.189916	-424.188972	-424.229302	31.206	
C	-0.0665101877	 1.5285506958	 0.1717349564	-0.252201
C	 1.4738643291	 1.6880236586	 0.0298341086	-0.011974
C	 1.620376805	 0.142781521	 0.1863800499	-0.272504
C	 0.0775892081	-0.0104868997	 0.0009241733	 0.139308
O	-0.4394002071	-0.5306841888	-1.2093820504	-0.268985
C	 0.3078879548	-0.4728466073	-2.4079698539	-0.072199
C	 0.7547274138	 0.9025895125	-2.9227232418	-0.096527
O	 1.9948636206	 1.3369333304	-2.3917037231	-0.243971
C	 1.9789368661	 2.2467534417	-1.3077961401	-0.092758
H	-0.4293273113	 1.8030053075	 1.1660420931	 0.096747
H	-0.6941982434	 2.0261954731	-0.5723612999	 0.098507
H	 1.934022613	 2.2804481735	 0.8262649785	 0.069603
H	 2.2645075399	-0.3515906353	-0.5407918002	 0.119132
H	 1.9289095668	-0.1590977529	 1.1897853474	 0.098959
H	-0.4139821482	-0.6006641126	 0.7790686064	 0.081109
H	 1.2022885234	-1.1117980881	-2.3568596527	 0.102412
H	-0.3619265318	-0.9112024632	-3.156702292	 0.105364
H	 0.9162362493	 0.7974033418	-4.0035870059	 0.105276
H	-0.0360463417	 1.6522069114	-2.777961353	 0.10023
H	 1.3974436779	 3.1468504855	-1.5705782604	 0.088066
H	 3.0258007935	 2.5514798752	-1.2012603305	 0.106407
129.6779	203.3824	257.5426	290.3903	323.8272	366.0336	403.4259	445.8298	525.6517	567.2802	701.5645	753.0383	776.5019	814.7725	866.2455	903.9685	926.6008	957.798	978.8613	1008.5229	1048.7117	1082.7346	1087.1559	1096.4078	1123.97	1137.0236	1172.5707	1188.8465	1234.6124	1258.1309	1272.9469	1280.1624	1284.271	1332.2658	1352.8906	1353.3917	1391.6117	1403.29	1413.9857	1418.9383	1452.9898	1476.9239	1483.7609	1490.3256	1494.5698	2962.2836	2996.0664	3002.5558	3048.234	3050.2953	3056.4202	3062.5596	3065.5238	3067.6068	3081.3627	3109.9951	3138.5329
C1C2CC1OCCOC2	C1[C@H]2C[C@@H]1OCCOC2	
InChI=1S/C7H12O2/c1-2-9-7-3-6(4-7)5-8-1/h6-7H,1-5H2	InChI=1S/C7H12O2/c1-2-9-7-3-6(4-7)5-8-1/h6-7H,1-5H2/t6-,7+
