12
gdb 11166	4.1811	1.6419	1.43838	2.4046	55.72	-0.2964	-0.0107	0.2858	845.2736	0.084543	-414.668982	-414.66224	-414.661296	-414.700493	23.844	
N	-0.0347368037	 1.284028148	-0.0017350313	-0.516628
C	-0.0358895264	 0.0308240198	-0.037001507	 0.397175
C	-1.2405427646	-0.8768734748	-0.1572031422	-0.179299
O	-0.6742126255	-2.149307404	-0.4736917573	-0.228138
C	 0.624418339	-2.134123836	 0.040411211	 0.050017
O	 1.0743610574	-0.7868425868	 0.0178520356	-0.220892
C	 0.6728195132	-2.6518635639	 1.4362270238	 0.284178
N	 0.7050192595	-3.073717441	 2.510484022	-0.304389
H	 0.9076618701	 1.6602388739	 0.1056482875	 0.242211
H	-1.7999066523	-0.9088563053	 0.786840333	 0.153942
H	-1.9076096821	-0.5770671884	-0.9654354195	 0.16438
H	 1.2724250354	-2.7413675914	-0.5968631255	 0.157442
80.5724	121.7659	214.2754	286.7267	428.9628	506.427	528.9571	573.0538	676.8721	809.1038	862.6938	892.6974	924.2675	984.3544	1006.8241	1019.951	1055.8181	1149.8522	1212.532	1265.662	1337.3161	1361.5803	1376.4659	1495.9333	1816.734	2362.5049	3033.0296	3093.3647	3138.4927	3493.4064
N=C1COC(O1)C#N	[NH][C]1CO[C@@H](O1)C#N	
InChI=1S/C4H4N2O2/c5-1-4-7-2-3(6)8-4/h4,6H,2H2	InChI=1S/C4H4N2O2/c5-1-4-7-2-3(6)8-4/h4,6H,2H2/t4-/m0/s1
