21
gdb 98399	2.1692	1.19195	0.78409	2.3382	84.79	-0.2239	-0.0437	0.1802	1507.3672	0.179504	-420.427922	-420.416566	-420.415622	-420.465841	39.001	
C	 0.2885633891	 1.4523934866	 0.1093640372	-0.384689
C	 0.0700530369	-0.0578151654	 0.0701939326	-0.260778
C	-1.3976501249	-0.4395777371	 0.1267520065	 0.335756
O	-2.2778344278	 0.3925966743	 0.1957482757	-0.325155
C	-1.7156412575	-1.9253819905	 0.0926083505	 0.289779
N	-3.0256114185	-2.3178640544	 0.1421935696	-0.350223
C	-4.2411328418	-1.5183930581	 0.2266208371	-0.299968
N	-0.7033519634	-2.7172063684	 0.0179148183	-0.279478
C	-0.9508377865	-4.1421361888	-0.0176662204	-0.344502
H	 1.3565781406	 1.6835763415	 0.0661336319	 0.107697
H	-0.2052342051	 1.9457869471	-0.7321828324	 0.124854
H	-0.1216225226	 1.8881589711	 1.0244252605	 0.124839
H	 0.5002510508	-0.5118996112	-0.8292534032	 0.13643
H	 0.5812075186	-0.568218396	 0.8939195718	 0.13637
H	-3.16542995	-3.3125665955	 0.1158151175	 0.244843
H	-5.0855119379	-2.2127953149	 0.244053816	 0.111842
H	-4.2715777725	-0.9071464254	 1.1314640667	 0.142813
H	-4.3556758168	-0.8490601532	-0.6290461125	 0.142824
H	-0.0010153056	-4.6785394422	-0.080893703	 0.12554
H	-1.4754736138	-4.5018168837	 0.8843309774	 0.110601
H	-1.5601511012	-4.442859686	-0.8874391878	 0.110604
23.3862	58.2071	79.4153	160.1821	167.7856	179.5874	211.5349	219.2189	235.3858	311.408	342.2763	349.4794	422.0894	506.4404	519.1799	676.8154	677.3974	745.8672	817.7601	967.3051	1015.6157	1040.9074	1075.7798	1093.1924	1104.4647	1132.5212	1154.0543	1163.6085	1219.5785	1257.4831	1345.7897	1398.7091	1414.3548	1429.8684	1435.6714	1469.1128	1482.3784	1483.564	1494.5125	1498.8009	1501.5196	1504.3426	1524.5748	1688.8358	1785.7652	2945.1197	2986.1553	3046.5609	3048.5375	3057.3334	3080.2062	3100.3628	3116.2214	3119.4573	3120.0448	3122.1312	3665.4576
CCC(=O)C(NC)=NC	CCC(=O)C(=NC)NC	
InChI=1S/C6H12N2O/c1-4-5(9)6(7-2)8-3/h4H2,1-3H3,(H,7,8)	InChI=1S/C6H12N2O/c1-4-5(9)6(7-2)8-3/h4H2,1-3H3,(H,7,8)
