20
gdb 133796	2.791	0.85934	0.76811	2.1719	68.18	-0.3266	0.0822	0.4088	1542.7008	0.165678	-534.680873	-534.670593	-534.669649	-534.717001	36.659	
C	-0.0738879748	 1.6103508595	 0.0428129549	-0.381143
C	-0.0022395869	 0.081507319	-0.0103651444	-0.183859
C	 0.7930620701	-0.5064800434	 1.1607651951	-0.176123
C	 0.8242381944	-2.0461677619	 1.1930083703	-0.130562
C	 1.5781208643	-2.672147404	 0.0115421854	-0.410838
C	 1.4266168792	-2.5300841238	 2.5056918332	 0.285987
F	 0.743104845	-2.0714460992	 3.5686344478	-0.084852
F	 1.4237874113	-3.8720455033	 2.5894802481	-0.085467
F	 2.7019589787	-2.1269801907	 2.6502460443	-0.089576
H	 0.9271275884	 2.0541802472	 0.0074916003	 0.117305
H	-0.6455234156	 2.0110540762	-0.7998072687	 0.11417
H	-0.5541312465	 1.9527021149	 0.9659565916	 0.117644
H	-1.0186658486	-0.3342593964	-0.0033253764	 0.097352
H	 0.446548373	-0.2240731862	-0.9627454669	 0.102094
H	 1.8235479087	-0.130415374	 1.1340448003	 0.107442
H	 0.3584436215	-0.1467882385	 2.1002364613	 0.110788
H	-0.2074599314	-2.4205358511	 1.1995219323	 0.101103
H	 1.6022324289	-3.7608919596	 0.0969628056	 0.132767
H	 1.0934981638	-2.4182659646	-0.9333020867	 0.125022
H	 2.6099608462	-2.3094167099	-0.0244806973	 0.130746
55.9841	70.8728	98.58	139.2109	196.8581	247.0911	257.8796	278.4439	315.1165	330.0219	419.9759	476.0249	563.5	575.6322	659.5396	747.6872	804.5433	864.5506	885.1556	936.5027	1006.7257	1022.3996	1055.8494	1092.4646	1128.338	1164.2927	1199.7216	1205.8407	1264.3175	1283.2011	1308.1309	1332.116	1358.158	1380.7962	1403.3982	1410.897	1416.655	1485.8444	1495.6047	1497.1169	1500.5868	1507.2586	1514.0178	3018.3976	3028.715	3032.3817	3038.6339	3050.8372	3054.0235	3079.0689	3100.339	3105.3021	3124.5505	3135.1248
CCCC(C)C(F)(F)F	CCC[C@@H](C)C(F)(F)F	
InChI=1S/C6H11F3/c1-3-4-5(2)6(7,8)9/h5H,3-4H2,1-2H3	InChI=1S/C6H11F3/c1-3-4-5(2)6(7,8)9/h5H,3-4H2,1-2H3/t5-/m1/s1
