18
gdb 23357	2.73819	1.53278	1.17721	1.5144	79.75	-0.225	0.0311	0.256	1084.6395	0.147021	-401.859243	-401.851172	-401.850228	-401.891498	31.755	
C	 0.0088270921	 1.5716910083	 0.0079261523	-0.503903
C	 0.0530689138	 0.0697446175	 0.0501935471	 0.212456
C	-1.2387729816	-0.8039126676	 0.1777726707	-0.269423
C	-0.3408826146	-1.8681504813	 0.8082478432	-0.071662
C	 0.997099999	-1.8576974908	 0.03761012	-0.167
C	 0.705716971	-0.8675885897	 1.1741563419	-0.12457
C	 0.8933235194	-0.7379643401	-0.9284472699	 0.447965
N	 1.4308535697	-0.3744315421	-2.0148858691	-0.313082
O	 2.2647954269	-1.3988014582	-2.5336406913	-0.404683
H	 1.0171890762	 1.9963997386	 0.0062596937	 0.129725
H	-0.49349436	 1.9116315244	-0.9038920542	 0.13407
H	-0.5371079835	 1.9751490935	 0.8668397896	 0.114887
H	-1.93119044	-0.3831665322	 0.9130706653	 0.100884
H	-1.7720485731	-1.0404831348	-0.7495646166	 0.100885
H	-0.6310304072	-2.7563483021	 1.3551917719	 0.09544
H	 1.6726980199	-2.699331699	 0.0385123838	 0.111349
H	 1.2795090453	-0.6601351444	 2.0649928335	 0.104734
H	 2.6038322069	-0.9881798899	-3.335517472	 0.301928
124.4857	164.2485	202.8307	248.1693	276.0175	322.4512	380.8229	421.4979	534.8296	598.8371	684.1856	720.8944	744.7541	791.3541	798.8749	845.5794	878.9277	925.588	927.903	954.5247	986.0204	1009.1139	1028.0094	1039.9691	1109.5501	1127.351	1132.3032	1174.9417	1201.4616	1237.7279	1284.2168	1335.8895	1349.7321	1408.1712	1417.9459	1487.1754	1489.6636	1496.4897	1798.2329	3034.3122	3038.336	3097.2475	3102.3652	3108.8507	3194.3432	3229.1934	3243.9945	3825.1619
CC12CC3C(C13)C2=NO	C[C@]12C[C@H]3[C@H]([C@@H]13)C2=NO	
InChI=1S/C7H9NO/c1-7-2-3-4(5(3)7)6(7)8-9/h3-5,9H,2H2,1H3	InChI=1S/C7H9NO/c1-7-2-3-4(5(3)7)6(7)8-9/h3-5,9H,2H2,1H3/t3-,4+,5-,7-/m0/s1
