17
gdb 9898	4.74131	0.88921	0.82829	2.1424	74.74	-0.2433	0.028	0.2713	1408.8688	0.140784	-363.798603	-363.789503	-363.788558	-363.833841	31.974	
C	-0.1812645883	 1.4506119408	-0.2349988173	-0.460641
C	 0.0105234904	-0.0328952838	 0.032463632	 0.099909
C	 0.8842362834	-0.8198538928	-0.891779857	-0.259554
N	 1.3491696187	-0.512289838	 0.4655752458	-0.327824
C	-1.1091271684	-0.6854558193	 0.6680425345	 0.058381
C	-2.0766030172	-1.1849657818	 1.1852484949	 0.091113
C	-3.2192692512	-1.8579747144	 1.8007656377	-0.197525
O	-3.8346508157	-2.8238157121	 0.9581505909	-0.402343
H	 0.6890115643	 1.8645860584	-0.7549682785	 0.111473
H	-1.0656455337	 1.6228591665	-0.8556804828	 0.137218
H	-0.3182383215	 1.998040165	 0.7029043738	 0.134086
H	 0.6661141473	-1.8676982202	-1.0728374864	 0.124411
H	 1.3180075968	-0.2890455159	-1.7359511167	 0.11454
H	 1.9997989282	 0.2702653218	 0.4392721804	 0.231038
H	-2.9031997298	-2.3047512641	 2.7571340554	 0.120161
H	-4.0027162823	-1.1294602706	 2.0377433922	 0.138637
H	-3.1407384008	-3.4142225196	 0.6466318611	 0.286918
18.0684	87.9865	112.1043	199.8928	234.0575	282.0271	323.7747	338.2996	363.1593	485.3818	554.6455	566.6324	642.6795	809.1896	839.1275	931.6685	972.6216	982.623	997.8027	1035.5481	1057.1254	1089.1179	1125.4805	1153.3818	1215.164	1265.736	1315.3713	1358.0994	1373.7493	1412.7517	1418.9822	1480.6947	1491.0188	1500.1882	1506.9448	2357.5608	2976.2001	3033.1272	3061.6041	3105.0729	3107.9069	3110.1004	3199.239	3487.9949	3817.029
CC1(CN1)C#CCO	C[C@]1(CN1)C#CCO	
InChI=1S/C6H9NO/c1-6(5-7-6)3-2-4-8/h7-8H,4-5H2,1H3	InChI=1S/C6H9NO/c1-6(5-7-6)3-2-4-8/h7-8H,4-5H2,1H3/t6-/m1/s1
