14
gdb 25239	3.42797	1.62408	1.10969	6.7403	69.32	-0.2323	-0.0069	0.2254	1000.333	0.104476	-436.757304	-436.750768	-436.749823	-436.788259	25.441	
O	-0.0739237701	-0.0279369182	 0.0060128187	-0.348933
C	 0.0452138031	 1.1625904502	 0.0096004924	 0.393161
O	-1.0799273307	 1.9976719163	 0.0287381308	-0.254923
C	-0.7224491983	 3.3861680935	 0.0297743531	-0.189447
C	 0.7682838791	 3.3378642242	 0.0088378501	 0.282364
C	 1.211982902	 2.0440418303	-0.0028881542	 0.100144
C	 2.6362387682	 2.0651619176	-0.022626379	-0.339155
C	 2.9908137776	 3.3924791561	-0.0216628592	-0.055888
N	 1.8368575247	 4.1709371361	-0.0023580966	-0.381136
H	-1.1658545995	 3.8679766879	-0.8507729862	 0.133698
H	-1.1411210965	 3.8602894984	 0.9264556222	 0.133695
H	 3.3120791293	 1.225422536	-0.035677184	 0.123002
H	 3.9612015805	 3.8627189817	-0.0330454775	 0.132834
H	 1.8213752906	 5.1765327097	 0.0021503296	 0.270582
163.4486	200.0288	241.4462	314.1711	494.2494	541.1113	620.9427	633.6829	641.5775	656.7864	730.5035	770.9948	775.2854	849.5474	931.2741	1001.1406	1026.6359	1030.4652	1072.4766	1078.3153	1157.1346	1190.3002	1276.9692	1315.8826	1384.5921	1462.714	1494.8172	1503.6427	1535.8944	1604.1132	1882.2344	3019.4692	3051.086	3258.1184	3276.4353	3672.2102
O=C1OCC2=C1C=CN2	O=C1OCc2c1cc[nH]2	
InChI=1S/C6H5NO2/c8-6-4-1-2-7-5(4)3-9-6/h1-2,7H,3H2	InChI=1S/C6H5NO2/c8-6-4-1-2-7-5(4)3-9-6/h1-2,7H,3H2
