14
gdb 26059	3.28081	1.28598	0.97994	4.5616	67.28	-0.2499	-0.0017	0.2482	1131.9958	0.102581	-432.907262	-432.899404	-432.89846	-432.940733	28.365	
O	 0.4235526771	 1.4626344589	-0.1942625795	-0.409368
C	 0.0612809627	 0.1241341393	-0.0056670325	-0.083129
C	 0.4086797889	-0.708772118	-1.1842305863	 0.255597
N	 0.6472396129	-1.4040971526	-2.075411549	-0.317583
C	 0.7363470309	-0.4243637011	 1.230997102	 0.352891
N	 1.3884298753	 0.3506673911	 2.0628208367	-0.317525
C	 1.8548614849	-0.4814325005	 3.0569985834	-0.086576
C	 1.4733099643	-1.7715113384	 2.8085316687	-0.100983
N	 0.7517308302	-1.7212936141	 1.6329834615	-0.298504
H	 1.0266381764	 1.6748445973	 0.5389178634	 0.309217
H	-1.0332258312	 0.0532379857	 0.107663197	 0.141161
H	 2.4325910867	-0.1019257119	 3.8848285799	 0.125674
H	 1.639078382	-2.6961773386	 3.3351091286	 0.145334
H	 0.3707322588	-2.5068282772	 1.1304259259	 0.283795
33.4994	106.5245	190.6872	245.6377	292.5032	391.9264	436.739	489.3945	556.0617	605.8786	642.1828	683.9323	747.6907	821.8898	859.6862	924.0733	933.2331	1010.156	1099.9721	1115.9556	1141.9312	1186.1116	1249.7436	1297.571	1355.1292	1387.8037	1452.0485	1487.6351	1512.5463	1587.5855	2356.899	2968.766	3261.3701	3288.2156	3651.8036	3655.128
OC(C#N)C1=NC=CN1	O[C@@H](C#N)c1ncc[nH]1	
InChI=1S/C5H5N3O/c6-3-4(9)5-7-1-2-8-5/h1-2,4,9H,(H,7,8)	InChI=1S/C5H5N3O/c6-3-4(9)5-7-1-2-8-5/h1-2,4,9H,(H,7,8)/t4-/m0/s1
