17
gdb 12235	3.42457	1.47708	1.1397	4.0965	65.28	-0.2434	0.038	0.2814	1044.2723	0.141463	-401.018045	-401.009383	-401.008439	-401.051596	30.858	
C	-0.1356371649	 1.6087514824	 0.1731673403	-0.409402
C	-0.001637183	 0.1009876793	 0.0007657427	-0.181549
C	 0.7130113757	-0.5078155616	-1.255859552	 0.056541
C	 1.3436134696	 0.4300239318	-2.2683281263	-0.085312
O	 2.1154011182	-0.3822063482	-3.1426368684	-0.427456
N	 1.664559526	-1.1226859013	-0.3263985869	-0.325975
C	 1.1211718844	-0.5954131705	 0.8182284362	 0.431116
O	 1.4247267209	-0.6601320251	 1.9797746483	-0.368526
H	 0.8149718795	 2.1280007374	 0.0212287367	 0.124469
H	-0.8716824553	 2.0294628367	-0.5192762837	 0.119141
H	-0.4677607903	 1.8283795999	 1.1920217103	 0.140914
H	-0.9653422526	-0.3854580548	 0.1792151036	 0.104317
H	 0.1081732239	-1.2462520337	-1.7950816776	 0.091238
H	 0.5520167701	 0.9713932703	-2.8106311843	 0.091907
H	 1.9737808314	 1.1700201582	-1.754849428	 0.092305
H	 2.5748830128	 0.1906001314	-3.7634693661	 0.291694
H	 2.4712971637	-1.7055469023	-0.4925201349	 0.25458
57.0815	108.2773	167.207	196.5509	225.7424	262.3785	297.6802	399.2474	447.9995	494.03	536.4488	690.4617	745.9532	810.9747	841.7586	925.3773	1006.2513	1060.5255	1069.9431	1080.0331	1128.0229	1152.4455	1190.6583	1191.993	1233.5607	1262.5067	1293.7564	1351.1147	1375.5948	1391.5667	1412.5404	1463.169	1495.5407	1500.3819	1514.1649	1891.4021	2975.2382	3016.7058	3041.3659	3043.1189	3069.579	3109.2782	3117.8724	3617.6362	3831.97
CC1C(CO)NC1=O	C[C@H]1[C@@H](CO)NC1=O	
InChI=1S/C5H9NO2/c1-3-4(2-7)6-5(3)8/h3-4,7H,2H2,1H3,(H,6,8)	InChI=1S/C5H9NO2/c1-3-4(2-7)6-5(3)8/h3-4,7H,2H2,1H3,(H,6,8)/t3-,4+/m0/s1
