18
gdb 74221	2.41087	1.5784	1.07592	4.1093	75.41	-0.2491	-0.0383	0.2107	1134.5138	0.148742	-439.112873	-439.104536	-439.103592	-439.145851	31.43	
C	-0.1221654315	 1.5101596836	 0.061884817	-0.446483
C	-0.0518380034	 0.0178919203	-0.0469804498	 0.270203
C	-0.1324926222	-0.6566040414	-1.2031971186	-0.272073
C	-0.0645021267	-2.1388947774	-1.2984226119	 0.387131
O	 0.5033716545	-2.7164286979	-2.1873936988	-0.333266
O	-0.6745401407	-2.8733058834	-0.3162817094	-0.230118
C	-1.6629848545	-2.2544955114	 0.5166697911	-0.084484
C	-1.0255075271	-1.4337516747	 1.6502899687	-0.188249
N	 0.1488090351	-0.6708897024	 1.2025631722	-0.350997
H	 0.8130505609	 1.9040849019	 0.4752481087	 0.14396
H	-0.3179217356	 1.9845816285	-0.902227932	 0.127334
H	-0.9129153368	 1.7979219339	 0.7654210269	 0.135641
H	-0.162265299	-0.1395520185	-2.1563888197	 0.117379
H	-2.3137224795	-1.6240801016	-0.0965641679	 0.119395
H	-2.2636841769	-3.0747628758	 0.9181304212	 0.12368
H	-1.781566259	-0.7568942852	 2.0666853625	 0.115228
H	-0.6923311864	-2.0873908831	 2.4615817592	 0.120858
H	 0.9000022489	-1.3417163557	 1.0744596305	 0.244863
98.8545	123.4882	172.5385	204.662	303.3648	319.2757	351.4908	406.2017	493.3244	512.9673	628.7565	667.6528	737.4227	805.5092	817.4564	836.3377	886.3125	911.3753	930.6691	1030.7703	1049.8067	1093.9782	1108.1242	1131.7241	1181.2171	1217.4022	1272.3366	1295.654	1337.8901	1382.2341	1406.0332	1410.1059	1461.9973	1475.9707	1479.4377	1487.1344	1499.5086	1695.5771	1823.9478	3029.9738	3036.2863	3057.0439	3082.6769	3089.3017	3112.089	3129.5228	3189.2992	3515.3285
CC1=CC(=O)OCCN1	CC1=CC(=O)OCCN1	
InChI=1S/C6H9NO2/c1-5-4-6(8)9-3-2-7-5/h4,7H,2-3H2,1H3	InChI=1S/C6H9NO2/c1-5-4-6(8)9-3-2-7-5/h4,7H,2-3H2,1H3
