19
gdb 8905	2.67754	1.47204	1.00616	3.2079	71.83	-0.2747	0.0349	0.3096	1166.1048	0.163709	-365.081056	-365.071305	-365.070361	-365.115554	34.533	
C	 0.0446724165	 1.5535579589	 0.0196097787	-0.4167
C	 0.0286022616	 0.0199674526	 0.0285229783	 0.040507
C	 0.7767223145	-0.5179267968	 1.2531576453	-0.095528
O	 2.1172810176	-0.0581520721	 1.1783719931	-0.421274
C	-1.4193889964	-0.5419730497	-0.0240296895	-0.14119
C	-2.2286844756	-0.053518552	-1.2434514724	-0.403322
C	-1.4142381929	-2.0108439778	-0.0081105031	 0.275802
N	-1.415825395	-3.1670662134	-0.0114556144	-0.336686
H	 1.066316805	 1.9039525317	 0.1768678608	 0.147454
H	-0.3150232986	 1.9655405584	-0.926211343	 0.118278
H	-0.5794176945	 1.9574742359	 0.8264738778	 0.109997
H	 0.5629261161	-0.3453761145	-0.8577830007	 0.100522
H	 0.282278943	-0.1566114248	 2.1717452743	 0.083491
H	 0.7358588028	-1.6157056586	 1.2633250867	 0.116721
H	 2.6064307114	-0.4351062291	 1.9150100266	 0.291379
H	-1.9416525953	-0.2195272722	 0.8878139865	 0.12291
H	-3.2122557065	-0.5286818396	-1.2666571013	 0.13826
H	-2.3727502443	 1.0273904556	-1.1987036407	 0.131827
H	-1.7103852494	-0.2984231927	-2.175083923	 0.137554
62.1581	106.9307	143.7799	202.6446	213.8648	229.0974	237.2965	277.6451	322.5708	369.3519	421.9676	439.4864	565.7929	593.5158	806.5966	858.0754	930.5884	934.6281	977.4772	1043.6973	1069.5157	1105.1332	1133.7257	1155.8816	1171.2859	1247.8776	1267.2529	1298.3966	1329.5906	1347.7042	1375.262	1403.773	1413.6036	1463.3073	1491.5336	1495.492	1499.8003	1511.7829	1523.1629	2351.6142	2952.4278	3012.8609	3023.505	3031.602	3042.1694	3053.615	3107.2132	3126.2688	3137.2965	3142.2977	3837.8122
CC(CO)C(C)C#N	C[C@@H](CO)[C@@H](C)C#N	
InChI=1S/C6H11NO/c1-5(3-7)6(2)4-8/h5-6,8H,4H2,1-2H3	InChI=1S/C6H11NO/c1-5(3-7)6(2)4-8/h5-6,8H,4H2,1-2H3/t5-,6-/m0/s1
