20
gdb 110471	4.55081	1.22049	1.17475	1.8487	80.84	-0.2246	0.0755	0.3001	1133.0189	0.172536	-365.925334	-365.918042	-365.917098	-365.957109	29.513	
C	-0.0096741034	 1.5875745407	-0.0092972194	-0.382903
C	 0.1476216951	 0.0635708646	 0.038587933	-0.196973
C	 0.7260748163	-0.5249037417	-1.2472911995	 0.012443
C	 0.6902844434	-2.0759126454	-1.3255226326	-0.084303
C	 1.1301901838	-2.423885215	-2.7599736672	-0.060962
C	-0.2471238044	-2.6266422262	-3.2654322689	-0.063339
C	-0.7716500453	-2.0245177036	-1.9378793345	-0.080565
C	-0.270165012	-0.6288581289	-2.422837816	-0.000084
N	 0.4541212827	-1.3396145481	-3.5606487281	-0.156649
H	 0.953223137	 2.0769937782	-0.1921006547	 0.117413
H	-0.6925507511	 1.8963297698	-0.807546559	 0.11882
H	-0.4059087676	 1.9742377474	 0.9347770062	 0.11227
H	 0.803958168	-0.2074718005	 0.8756514444	 0.095641
H	-0.8236361705	-0.4007780149	 0.25492165	 0.095434
H	 1.6877089416	-0.0553827751	-1.4876704589	 0.070721
H	 0.9841888693	-2.724378442	-0.5014257295	 0.068901
H	 2.080703389	-2.7943207746	-3.1225726128	 0.093922
H	-0.6632239109	-3.2679794116	-4.0327850393	 0.093548
H	-1.6840294697	-2.2469199663	-1.392430286	 0.073843
H	-0.8955849412	 0.1938205631	-2.7674987971	 0.072823
94.9548	160.6161	183.1346	267.49	369.8007	480.9255	536.7472	725.6156	744.1288	771.5282	790.8804	804.6255	837.2192	859.1252	887.5718	899.9217	914.3598	939.0703	948.7734	972.583	997.7475	1021.8512	1031.466	1070.3846	1075.196	1095.6507	1137.4767	1153.0765	1164.8571	1184.1516	1207.5942	1232.0553	1245.6439	1258.697	1279.2065	1287.4303	1331.7722	1353.2567	1393.9823	1413.0741	1487.1029	1499.3638	1506.8721	3015.8744	3031.0319	3033.9374	3050.2298	3100.608	3104.0363	3120.5361	3127.1529	3156.3992	3181.4674	3196.4706
CCC1C2C3C4C2C1N34	CC[C@H]1[C@@H]2[C@H]3[C@H]4[C@@H]2[C@@H]1N34	
InChI=1S/C8H11N/c1-2-3-4-5-6(3)9-7(4)8(5)9/h3-8H,2H2,1H3	InChI=1S/C8H11N/c1-2-3-4-5-6(3)9-7(4)8(5)9/h3-8H,2H2,1H3/t3-,4-,5-,6+,7-,8+,9?/m0/s1
