18
gdb 70215	3.48244	1.32826	1.13901	3.003	73.01	-0.2522	0.0278	0.28	1090.713	0.148644	-439.085732	-439.077784	-439.076839	-439.117997	31.326	
O	-0.1093276483	 1.3967257081	-0.4038015511	-0.460516
C	-0.080721992	 0.0351276555	-0.088005083	 0.365327
C	-0.3998043347	-0.9931448673	-1.1425334814	-0.360966
C	-1.3855235081	-0.6841512315	-0.0255580112	-0.076541
C	-1.5619517814	-1.6344791253	 1.1437605418	-0.300746
C	-0.2901230601	-2.362045968	 1.5166421043	 0.384438
N	-0.3109859973	-3.5618420884	 1.9197170156	-0.51461
O	 0.8922781707	-1.6853824271	 1.3820907426	-0.248614
C	 0.8909659385	-0.3007110849	 1.0285231107	-0.148069
H	 0.6612973016	 1.59542601	-0.9479670061	 0.286601
H	-0.6501787939	-0.6094292185	-2.1249872731	 0.11743
H	 0.1267934169	-1.9414907753	-1.1384437769	 0.133546
H	-2.2644822453	-0.1145177162	-0.3077156752	 0.104501
H	-1.8989100064	-1.0598335882	 2.0180790038	 0.129113
H	-2.3218895063	-2.3951114821	 0.9543467784	 0.14128
H	 0.6376368951	-3.872307647	 2.1415335155	 0.217236
H	 1.9233396538	-0.080479307	 0.7363543923	 0.11198
H	 0.6511433771	 0.3174888832	 1.9048546431	 0.118608
83.58	185.4981	227.5411	301.3892	327.4214	357.1493	391.3695	446.3588	479.9993	509.2454	588.8896	691.6234	719.8895	773.2433	838.9746	907.9711	914.1684	923.8318	949.9451	1011.6075	1033.8226	1058.2424	1074.3027	1096.4061	1120.5722	1149.6063	1220.4531	1226.8707	1267.3101	1292.911	1318.9026	1333.5613	1355.8302	1414.0712	1427.6818	1472.7864	1497.2167	1517.2035	1750.1405	3010.5895	3016.866	3068.9373	3110.2905	3135.9735	3170.0825	3227.4332	3460.9191	3788.4807
OC12CC1CC(=N)OC2	O[C@]12C[C@H]1C[C]([NH])OC2	
InChI=1S/C6H9NO2/c7-5-1-4-2-6(4,8)3-9-5/h4,7-8H,1-3H2	InChI=1S/C6H9NO2/c7-5-1-4-2-6(4,8)3-9-5/h4,7-8H,1-3H2/t4-,6+/m1/s1
