16
gdb 13749	3.4299	1.35332	1.20455	4.1936	67.29	-0.2421	-0.0382	0.2039	1049.0353	0.128087	-383.761636	-383.753166	-383.752222	-383.79539	29.659	
C	-0.059299435	 1.5162988246	 0.0659015005	-0.485673
C	 0.0646355129	 0.0270021556	-0.1826215828	 0.388896
O	 1.1234562548	-0.4952179989	-0.4603990591	-0.318624
C	-1.2090221471	-0.7597510131	-0.0759757007	-0.120854
C	-1.3067767356	-2.0815649299	-0.7801700084	-0.295831
C	-1.2555041901	-2.0818822225	 0.7251148757	-0.098977
C	-0.0616175151	-2.6230132262	 1.430507447	 0.142985
O	-0.1361656026	-3.1708437531	 2.5044632628	-0.26735
H	 0.9178840357	 1.9914463524	-0.0216675946	 0.14729
H	-0.754407029	 1.9626055292	-0.6548577582	 0.144095
H	-0.4760358374	 1.6994406684	 1.0630314387	 0.14724
H	-2.1139790836	-0.1687801252	 0.0151203601	 0.102409
H	-2.2425898561	-2.3475700333	-1.2566489937	 0.133296
H	-0.4054914315	-2.394789494	-1.2970605127	 0.151219
H	-2.1808004111	-2.252501681	 1.2650851733	 0.115954
H	 0.9004642808	-2.5075031131	 0.896613912	 0.113927
47.2759	93.6903	137.2518	189.5507	213.8601	311.365	330.174	382.6961	484.1497	597.621	619.582	751.8365	820.386	868.4109	890.0128	943.5696	974.5317	1049.5431	1056.0765	1087.8987	1108.4253	1136.7111	1171.4459	1190.2525	1219.4773	1339.7633	1377.8178	1405.7568	1439.4366	1462.0793	1471.0183	1473.6261	1794.9216	1808.7811	2963.7671	3034.263	3093.9097	3140.5978	3157.4416	3168.4292	3179.3416	3236.8286
CC(=O)C1CC1C=O	CC(=O)[C@H]1C[C@H]1C=O	
InChI=1S/C6H8O2/c1-4(8)6-2-5(6)3-7/h3,5-6H,2H2,1H3	InChI=1S/C6H8O2/c1-4(8)6-2-5(6)3-7/h3,5-6H,2H2,1H3/t5-,6+/m0/s1
