22
gdb 81687	3.24592	1.26773	1.21483	0.1818	81.84	-0.2069	0.0845	0.2914	1174.1715	0.195491	-404.317857	-404.309434	-404.30849	-404.350397	33.654	
C	-0.2642932387	 1.4129416681	 0.0289732328	-0.420381
C	 0.0121885349	-0.0791539062	-0.0515925576	 0.059248
C	 0.892563365	-0.6050837808	-1.2113187753	 0.114053
C	 2.0774006291	-0.3474457892	-0.2579603091	-0.22232
N	 1.115770351	-0.5279444386	 0.8964335734	-0.133002
C	 0.9374479062	-1.9795086012	 1.092215164	-0.201588
C	 1.015113109	-2.7920240539	-0.2365681093	 0.145394
C	 0.128266277	-4.0268761188	-0.2346999523	-0.405635
O	 0.6511696046	-1.9954287045	-1.3759997112	-0.29205
H	 0.6344196068	 2.0126787671	-0.1412349464	 0.118257
H	-1.0093411853	 1.7033249719	-0.7194963521	 0.11603
H	-0.6524184226	 1.6704450324	 1.0189848167	 0.126639
H	-0.9169794389	-0.6439754781	 0.0786620624	 0.069934
H	 0.849202596	-0.1522188529	-2.2063644509	 0.071065
H	 2.9300599401	-1.0295520131	-0.2807679422	 0.107394
H	 2.4452924424	 0.6797991612	-0.2872735926	 0.109151
H	 1.7091838608	-2.3488489976	 1.7781950761	 0.101191
H	-0.0314277737	-2.130860126	 1.5819117439	 0.103617
H	 2.0572323927	-3.1154873098	-0.3778588179	 0.074002
H	-0.9207911092	-3.7460202466	-0.0978091594	 0.119736
H	 0.2183183836	-4.5657298537	-1.1821195141	 0.125305
H	 0.4163894492	-4.7040816099	 0.5762701009	 0.113961
95.3518	192.1085	224.7429	249.7867	274.2959	296.9476	356.5198	427.7127	457.436	468.0071	513.0116	642.9029	779.4351	797.9251	818.7608	853.9435	882.7897	906.6135	934.285	957.0343	996.2602	1035.1358	1054.2734	1067.1972	1088.1068	1138.2693	1142.7428	1166.8687	1175.4344	1196.9285	1248.7211	1252.9809	1285.4447	1291.936	1339.1262	1350.7503	1376.1854	1388.184	1396.9364	1408.1859	1411.6379	1482.216	1488.105	1493.0041	1496.2701	1498.4501	1513.0307	2975.3401	3023.5883	3036.3035	3037.6112	3049.7573	3060.9034	3069.1848	3075.947	3106.2796	3108.5465	3113.5847	3116.3844	3125.0208
CC1C2CN1CC(C)O2	C[C@H]1[C@H]2CN1C[C@@H](C)O2	
InChI=1S/C7H13NO/c1-5-3-8-4-7(9-5)6(8)2/h5-7H,3-4H2,1-2H3	InChI=1S/C7H13NO/c1-5-3-8-4-7(9-5)6(8)2/h5-7H,3-4H2,1-2H3/t5-,6+,7-/m1/s1
