19
gdb 124627	4.32712	0.90594	0.82857	5.8615	78.77	-0.2092	0.0187	0.2279	1427.4604	0.15996	-415.385864	-415.376778	-415.375834	-415.420085	33.633	
C	-0.008883702	 1.5113008299	 0.0728527986	-0.389759
C	 0.0354068644	-0.0192971584	-0.0431724447	 0.055728
C	 0.7923148898	-0.4759578216	-1.2910220584	-0.398574
N	 0.6350541556	-0.6688555727	 1.1302195248	-0.407224
C	-0.0521548738	-0.6642124259	 2.3269522573	 0.420913
C	-1.3678788997	-0.4049966257	 2.6694521018	-0.144421
N	-1.5248344758	-0.6372723512	 4.0050883156	-0.183206
N	-0.4031580516	-1.0177724904	 4.5233835341	-0.128906
N	 0.5077326889	-1.0387062503	 3.5046416127	-0.276494
H	 1.0058605295	 1.926021772	 0.0931845681	 0.110757
H	-0.5330078011	 1.9500205143	-0.7820872961	 0.120946
H	-0.5230641583	 1.8222890792	 0.9859442388	 0.136222
H	-0.9908317855	-0.4004130495	-0.1037784364	 0.10564
H	 1.8371847664	-0.1430198785	-1.2560032397	 0.112512
H	 0.7836689278	-1.5654568545	-1.3762045157	 0.129606
H	 0.342379249	-0.048886759	-2.1914150946	 0.124964
H	 1.6244452519	-0.4745762027	 1.2204069955	 0.230731
H	-2.1849841266	-0.0744387305	 2.0514274302	 0.111345
H	 1.4484650011	-1.3463431145	 3.688720768	 0.269219
62.9158	78.21	139.1909	225.1032	258.1733	293.9664	317.8029	343.1537	429.8032	467.1191	486.8718	553.7615	699.9195	719.6752	769.2224	784.3814	850.3991	932.18	949.1267	970.4469	1000.4327	1019.0561	1073.6724	1138.3856	1150.4071	1168.693	1193.799	1248.9746	1339.1372	1353.3281	1360.1584	1395.4597	1399.3435	1417.8328	1428.5003	1485.7523	1486.636	1496.3681	1508.7471	1531.952	1633.2759	3028.7536	3031.6498	3043.309	3096.9455	3105.2933	3121.5066	3127.5795	3279.5759	3556.4893	3661.9266
CC(C)NC1=CN=NN1	CC(C)Nc1cnn[nH]1	
InChI=1S/C5H10N4/c1-4(2)7-5-3-6-9-8-5/h3-4H,1-2H3,(H2,6,7,8,9)	InChI=1S/C5H10N4/c1-4(2)7-5-3-6-9-8-5/h3-4H,1-2H3,(H2,6,7,8,9)
