19
gdb 55143	3.50559	1.32761	1.14402	3.6294	76.15	-0.2256	0.0603	0.2858	1109.2541	0.162542	-419.22966	-419.222021	-419.221077	-419.261996	30.494	
N	-0.1432248284	 1.3028559579	-0.1470999464	-0.562176
C	-0.0359367753	-0.0828104788	-0.0527562849	 0.421675
O	 1.0008737634	-0.6744955539	-0.3000061156	-0.407823
N	-1.1950735818	-0.7139684077	 0.3330099552	-0.096363
C	-2.5669779236	-0.2000104692	 0.1197344104	-0.193717
C	-3.2708857474	-1.5532017966	-0.1083188884	-0.046982
C	-2.6233372912	-2.4264982934	 1.0121740695	-0.227884
C	-1.3507322305	-2.1704023957	 0.1629082562	 0.016527
C	-2.2772396593	-2.2605830264	-1.0838702589	-0.223286
H	 0.7617818559	 1.7479346743	-0.1823128092	 0.257423
H	-0.8017442926	 1.7631373056	 0.4636276045	 0.249065
H	-2.9515099027	 0.3323036626	 0.9987251062	 0.102034
H	-2.6227416891	 0.4647382	-0.7488492699	 0.120615
H	-4.3457523518	-1.5193112822	-0.2824895597	 0.072155
H	-2.6301404172	-2.0494101389	 2.0378511057	 0.098173
H	-2.9538293464	-3.4655882908	 0.9764446865	 0.10529
H	-0.412904723	-2.7052459299	 0.2693056025	 0.105919
H	-2.5806122439	-3.2820378645	-1.3194988077	 0.104441
H	-1.9628962649	-1.7304235324	-1.9864028661	 0.104913
76.3417	108.3863	215.2139	358.4336	403.7559	424.8024	474.9837	518.2747	549.4715	581.5519	644.8124	767.1579	778.1443	828.1068	841.0114	855.1337	881.6798	945.6802	949.8502	1028.0597	1031.3605	1038.7607	1076.3194	1085.764	1100.1774	1124.2001	1164.3235	1184.2305	1194.2372	1222.1301	1244.2956	1270.0577	1289.2625	1307.9014	1359.3135	1439.8945	1480.0575	1509.1661	1530.9412	1621.7576	1783.8959	3018.2958	3064.3502	3069.8297	3070.3211	3123.7556	3131.2363	3137.8668	3188.2589	3570.1686	3684.6123
NC(=O)N1CC2CC1C2	NC(=O)N1C[C@@H]2C[C@H]1C2	
InChI=1S/C6H10N2O/c7-6(9)8-3-4-1-5(8)2-4/h4-5H,1-3H2,(H2,7,9)	InChI=1S/C6H10N2O/c7-6(9)8-3-4-1-5(8)2-4/h4-5H,1-3H2,(H2,7,9)/t4-,5+
