21
gdb 109264	3.02412	1.23766	0.9884	1.4342	84.2	-0.2229	0.0347	0.2576	1256.0976	0.183779	-387.088937	-387.080368	-387.079424	-387.122466	32.763	
O	-0.1545686194	 1.4121541925	-0.3564255343	-0.414569
C	-0.1340253393	 0.0022544706	-0.218012296	-0.180052
C	-1.5122583365	-0.5076097858	 0.057177053	 0.310738
C	-2.6203581424	 0.2240722888	 0.1970064107	-0.154242
C	-3.8444195703	-0.6074811231	 0.5060390886	-0.27939
C	-3.3364750982	-2.0507708631	 0.3251861415	 0.001745
C	-3.3663729266	-2.6323962244	-1.1207799617	-0.218511
C	-1.8255574258	-2.8312807011	-1.0784275297	-0.22381
C	-1.7744760905	-1.9841645192	 0.2308150868	-0.121499
H	 0.7429785127	 1.7073416031	-0.5326271289	 0.288006
H	 0.2603805037	-0.4828081118	-1.1287263503	 0.093952
H	 0.5344894485	-0.3102801293	 0.6050932222	 0.091415
H	-2.6436846098	 1.3041214539	 0.1176837848	 0.102512
H	-4.2089286864	-0.4131363708	 1.5247968313	 0.098381
H	-4.6852742977	-0.3846963983	-0.1648265849	 0.098559
H	-3.7290549374	-2.7448587292	 1.0706830414	 0.061434
H	-3.9645586852	-3.535085761	-1.2667541424	 0.094484
H	-3.6824296039	-1.8904294904	-1.859453772	 0.101247
H	-1.5380746133	-3.8726378688	-0.9087396899	 0.095443
H	-1.2561453172	-2.4529391093	-1.93211755	 0.093004
H	-1.1793954848	-2.4184404831	 1.0430997097	 0.061151
69.9532	99.3756	177.1086	210.6404	234.6742	259.9614	360.1839	404.9737	540.178	609.9584	700.4114	711.3717	764.7876	819.2128	837.2394	879.7673	887.8895	948.9719	958.8074	979.6535	993.8315	1031.1688	1058.176	1064.3754	1083.0548	1107.5231	1160.5427	1191.9611	1201.1578	1216.7668	1229.7636	1248.9231	1253.088	1268.8776	1271.313	1290.1194	1314.9219	1334.2577	1356.4716	1466.1986	1476.6285	1487.5419	1494.2598	1507.3044	1716.4226	2934.0314	2947.762	3001.2824	3025.9338	3028.8244	3049.9924	3058.5821	3083.7568	3094.557	3114.6755	3212.6817	3837.5898
OCC1=CCC2CCC12	OCC1=CC[C@H]2CC[C@@H]12	
InChI=1S/C8H12O/c9-5-7-2-1-6-3-4-8(6)7/h2,6,8-9H,1,3-5H2	InChI=1S/C8H12O/c9-5-7-2-1-6-3-4-8(6)7/h2,6,8-9H,1,3-5H2/t6-,8+/m0/s1
