17
gdb 102854	1.71869	1.38266	0.86819	6.9738	70.18	-0.2595	0.0207	0.2802	1320.9596	0.134925	-455.178352	-455.168461	-455.167517	-455.214427	33.949	
O	-0.0867842779	 1.6055820783	 0.0423580219	-0.427508
C	 0.1177149699	 0.199725544	 0.106465346	-0.101675
C	-1.2575495355	-0.4570187933	-0.0194849744	 0.02316
C	-2.1481773947	-0.0549437255	 1.1829069544	-0.350131
C	-3.4942527876	-0.6144200769	 1.1176656582	 0.270254
N	-4.5630104288	-1.0503813782	 1.0707608295	-0.303965
N	-1.8746283023	-0.0963767206	-1.2810525461	-0.272494
C	-2.1535695648	-1.0146385189	-2.2509403559	 0.164486
O	-1.9733737391	-2.2082565941	-2.1513623341	-0.317574
H	 0.7677962779	 2.0455297981	 0.037126189	 0.3005
H	 0.7536178135	-0.15229895	-0.7169521781	 0.1143
H	 0.5888533494	-0.0957652712	 1.0562267196	 0.09943
H	-1.1380819649	-1.5426545841	-0.0428177132	 0.140952
H	-1.6729116222	-0.3862422446	 2.1130786741	 0.152213
H	-2.2154997613	 1.0365925322	 1.2328684473	 0.166085
H	-1.9487221796	 0.8856714883	-1.4981444418	 0.25795
H	-2.576166152	-0.5377295336	-3.1559602965	 0.084018
37.8262	69.8603	113.5987	127.5223	201.4088	221.1741	256.7298	284.2469	338.8393	396.0241	420.635	547.5929	557.4312	632.8974	764.4487	870.4749	912.2358	937.0786	981.6126	1031.3041	1071.2101	1100.765	1131.4834	1190.8875	1195.8783	1259.7885	1264.4487	1311.629	1360.636	1376.8068	1429.057	1447.7987	1467.8362	1516.3601	1521.2052	1806.6559	2366.9751	2952.549	2987.7703	3035.7275	3051.5806	3091.4566	3110.4774	3631.2129	3842.1603
OCC(CC#N)NC=O	OC[C@@H](CC#N)NC=O	
InChI=1S/C5H8N2O2/c6-2-1-5(3-8)7-4-9/h4-5,8H,1,3H2,(H,7,9)	InChI=1S/C5H8N2O2/c6-2-1-5(3-8)7-4-9/h4-5,8H,1,3H2,(H,7,9)/t5-/m1/s1
