16
gdb 34372	2.72118	1.65029	1.31242	3.8839	73.4	-0.2389	0.0037	0.2426	984.0734	0.126584	-396.941131	-396.933673	-396.932729	-396.973274	28.458	
N	 0.098287958	-1.1324143421	-0.3983362775	-0.341049
C	 0.0441175171	-0.0011530204	-0.1649257249	 0.240006
C	-0.0126395059	 1.4314247611	 0.0858892954	 0.164919
C	-0.4580951753	 2.3066134473	-1.1357676447	-0.272377
C	 0.933738851	 3.0085857709	-1.158181847	-0.211882
C	 1.3493165096	 2.2558592624	 0.1305384205	-0.027339
N	 1.282916336	 3.0633454073	 1.3478933378	-0.244035
C	 0.1929261626	 2.7585884138	 1.9375019228	 0.062734
N	-0.5816642261	 1.7449842674	 1.3913820002	-0.349789
H	-0.7103927716	 1.7353833929	-2.0304580881	 0.129471
H	-1.2980459313	 2.9592252817	-0.8871130895	 0.112065
H	 1.537176958	 2.7479991955	-2.0303320889	 0.118066
H	 0.9212681912	 4.0937127236	-1.0454357654	 0.120985
H	 2.2794329499	 1.6861766849	 0.0874445263	 0.106601
H	-0.1350014282	 3.217604246	 2.8657247813	 0.137791
H	-1.580898435	 1.7246225876	 1.5305246316	 0.253833
73.5916	153.1057	184.5755	289.9065	379.2366	412.4028	494.4254	533.1625	558.8733	610.7436	677.2918	740.9476	817.5828	857.3034	884.3855	949.625	958.1057	982.4609	1008.5483	1040.7606	1102.1135	1118.5051	1131.09	1201.9128	1217.004	1257.7381	1275.3055	1285.3743	1312.1997	1346.0586	1402.8028	1470.2574	1485.3463	1681.914	2351.0872	3072.2454	3076.4644	3094.8815	3124.7322	3141.8729	3189.3896	3618.4799
N#CC12CCC1N=CN2	N#C[C@]12CC[C@H]1N=CN2	
InChI=1S/C6H7N3/c7-3-6-2-1-5(6)8-4-9-6/h4-5H,1-2H2,(H,8,9)	InChI=1S/C6H7N3/c7-3-6-2-1-5(6)8-4-9-6/h4-5H,1-2H2,(H,8,9)/t5-,6-/m1/s1
