23
gdb 112802	2.3287	1.07916	0.88795	2.4151	81.62	-0.2578	0.0707	0.3285	1416.6846	0.204636	-425.402253	-425.391765	-425.39082	-425.437757	38.556	
C	 0.753249279	 1.4510747544	-0.332574758	-0.407749
C	 0.1239370781	 0.1150354571	 0.0529081615	 0.027815
C	 0.5617201397	-1.1075428526	-0.8100856924	-0.23856
C	 1.3839867449	-1.6702540019	 0.3852408067	-0.0028
C	 2.8922052493	-1.5801466057	 0.2096183608	-0.094937
O	 3.2547242901	-2.5318347572	-0.7822755338	-0.423255
C	 0.7072696527	-0.6101018349	 1.3135225044	 0.010629
C	 1.5379072249	 0.1703773994	 2.3158306594	-0.107539
O	 0.6634662126	 1.0886463412	 2.9643451497	-0.4233
H	 1.8365559891	 1.3722437152	-0.4773271739	 0.106124
H	 0.3290963421	 1.8152253229	-1.2747857579	 0.108429
H	 0.5705624851	 2.2027172367	 0.4413373094	 0.125435
H	-0.9598727177	 0.2483338466	 0.1127315691	 0.068858
H	-0.2682975074	-1.7547662012	-1.1031098416	 0.095438
H	 1.1461049147	-0.8793069864	-1.7059321513	 0.099211
H	 1.1509828011	-2.7061614192	 0.6486550507	 0.074434
H	 3.1882584612	-0.5646344838	-0.0974437244	 0.08418
H	 3.3985153548	-1.7939130156	 1.1655352905	 0.08159
H	 4.1992112329	-2.4529276318	-0.9445193862	 0.284573
H	-0.1077020874	-1.0784367296	 1.8743830557	 0.079791
H	 1.9895179069	-0.5247454251	 3.0427056128	 0.084537
H	 2.3627524311	 0.7032081459	 1.8194290045	 0.082253
H	 1.1825389822	 1.6144448155	 3.5800232144	 0.284846
69.9758	102.9845	122.4407	136.3483	214.9072	251.9573	256.0051	274.0212	281.4501	316.9584	344.0478	399.4883	488.5626	542.2224	747.2184	769.7297	830.7645	838.3785	905.7919	936.2092	965.6818	1008.3474	1034.035	1055.0545	1067.536	1078.0764	1115.7197	1147.1326	1167.3353	1169.3619	1210.8387	1231.0951	1247.0473	1266.678	1270.7046	1274.3622	1296.0332	1305.6475	1359.8975	1367.6329	1375.3553	1405.6888	1454.6067	1461.9343	1486.701	1495.1443	1501.633	1519.8334	1526.6593	2957.147	2966.9225	2986.768	3000.6726	3027.5634	3045.5627	3055.6569	3057.6413	3068.3529	3089.8162	3106.6677	3110.2662	3826.8457	3829.5088
CC1CC(CO)C1CO	C[C@H]1C[C@@H](CO)[C@H]1CO	
InChI=1S/C7H14O2/c1-5-2-6(3-8)7(5)4-9/h5-9H,2-4H2,1H3	InChI=1S/C7H14O2/c1-5-2-6(3-8)7(5)4-9/h5-9H,2-4H2,1H3/t5-,6-,7-/m0/s1
