22
gdb 60009	1.95472	1.16462	0.83442	4.168	83.07	-0.2607	0.0376	0.2983	1476.06	0.19088	-404.373884	-404.362828	-404.361884	-404.411006	39.332	
C	 0.0946211585	 1.5312725833	 0.0897983482	-0.385278
C	-0.0093436197	 0.0082167972	-0.0057994706	 0.140054
C	-1.4495194434	-0.4661856523	-0.1628612485	-0.387568
O	 0.7039585508	-0.4816157821	-1.1474628309	-0.270331
C	 2.0986892851	-0.6544643374	-0.9881743481	 0.131949
C	 2.4288947003	-2.0600164559	-0.4815929442	-0.401362
C	 2.726821984	-0.4036386788	-2.3731016862	-0.346369
C	 2.5456693752	 0.9742525748	-2.8226339968	 0.271698
N	 2.4156551811	 2.0706965138	-3.1630050793	-0.314141
H	 1.1328788413	 1.8623860608	 0.1841904547	 0.12138
H	-0.3243650852	 1.994588182	-0.808211012	 0.137137
H	-0.4535617994	 1.8981105032	 0.9636871753	 0.111687
H	 0.4157755954	-0.4429190075	 0.9046718922	 0.067002
H	-1.8802450504	-0.061617994	-1.0841278706	 0.129003
H	-1.4924353602	-1.5572886398	-0.215359154	 0.117405
H	-2.0604608259	-0.1307613601	 0.6803192273	 0.114417
H	 2.5019018431	 0.090843471	-0.2880152809	 0.088185
H	 3.5078451362	-2.1923086536	-0.3506957883	 0.116795
H	 1.9492915505	-2.2387049923	 0.4847434318	 0.126477
H	 2.0640016937	-2.813630931	-1.1864322091	 0.127559
H	 3.7974819356	-0.6325888209	-2.3513331187	 0.146385
H	 2.2583745632	-1.0792207902	-3.0973233714	 0.157917
35.3807	49.9241	94.8565	149.4951	189.6745	215.0141	234.142	253.0556	284.7689	367.5289	384.4922	395.9735	412.7592	471.0315	498.2223	575.4718	793.6554	862.9963	886.7772	910.1764	927.3715	942.7594	961.2557	1017.2992	1097.7141	1115.3349	1142.9248	1149.5483	1161.6894	1200.386	1255.7743	1306.9892	1354.3348	1363.7625	1376.534	1398.2668	1404.4326	1412.5	1419.0699	1453.8234	1479.4518	1483.9186	1488.1664	1493.7645	1497.2396	1507.4908	2364.8903	2974.9754	3008.1446	3037.4468	3038.6165	3043.5945	3050.7225	3094.4409	3107.9929	3111.7089	3115.3178	3117.588	3121.6526	3122.3405
CC(C)OC(C)CC#N	CC(C)O[C@@H](C)CC#N	
InChI=1S/C7H13NO/c1-6(2)9-7(3)4-5-8/h6-7H,4H2,1-3H3	InChI=1S/C7H13NO/c1-6(2)9-7(3)4-5-8/h6-7H,4H2,1-3H3/t7-/m0/s1
