16
gdb 42373	3.46235	0.89612	0.77041	6.6802	70.42	-0.2709	-0.0401	0.2307	1434.4626	0.122192	-437.888115	-437.879029	-437.878085	-437.923547	31.342	
O	 0.4089442598	 0.0617683187	 1.3723249304	-0.266705
C	-0.069015058	 0.9822458018	 0.764195477	 0.383132
C	 0.6957484279	 1.7489676885	-0.3283131612	-0.466121
C	 1.9900083612	 1.1692909509	-0.6600915563	 0.286307
N	 3.0180780976	 0.7242750652	-0.9388351319	-0.295784
C	-1.5011212348	 1.4628142294	 0.9873677573	-0.330912
C	-2.42278837	 0.8721656351	-0.0652413313	 0.086593
C	-3.5091285859	 1.6508542441	-0.671115032	-0.176926
O	-2.2949094457	 1.4055819566	-1.3870990429	-0.228831
H	 0.0582290434	 1.8128662416	-1.218713739	 0.201775
H	 0.8330229712	 2.7833511222	 0.013546823	 0.17249
H	-1.8156447492	 1.1298282139	 1.9800919636	 0.13979
H	-1.5527192692	 2.5555767033	 0.9374825711	 0.117718
H	-2.5184909803	-0.2131581392	-0.0333530525	 0.12264
H	-4.3882666886	 1.1419533683	-1.0613612749	 0.131188
H	-3.6663657594	 2.6815775097	-0.3569674003	 0.123646
49.2677	57.0859	83.2404	152.9048	169.8806	310.8261	353.7057	377.7938	415.3477	442.5004	553.3176	652.9167	787.9428	816.186	851.6248	921.0844	936.101	958.6164	981.6589	1058.8136	1096.0882	1137.0552	1162.6558	1174.7562	1219.033	1246.889	1289.0462	1303.4924	1339.3703	1428.2649	1439.4707	1462.6017	1526.7892	1834.5145	2375.6892	3035.694	3051.3126	3074.9205	3090.9988	3110.0401	3124.7347	3181.754
O=C(CC#N)CC1CO1	O=C(CC#N)C[C@H]1CO1	
InChI=1S/C6H7NO2/c7-2-1-5(8)3-6-4-9-6/h6H,1,3-4H2	InChI=1S/C6H7NO2/c7-2-1-5(8)3-6-4-9-6/h6H,1,3-4H2/t6-/m0/s1
