15
gdb 37752	3.17946	1.73176	1.17249	3.1059	82.98	-0.216	-0.0718	0.1442	986.4354	0.11463	-383.527404	-383.520881	-383.519937	-383.558298	26.066	
O	-1.3507791531	 1.1484766178	-0.837290264	-0.317438
C	 1.7436198882	 1.1154406371	 0.4073229941	-0.139331
C	 2.5601024953	 0.242258199	 1.0448302104	-0.069442
C	 2.3276786269	-1.1189154449	 0.5588623431	-0.221335
C	 1.387413009	-1.0622461069	-0.4163869309	 0.237896
C	 0.3353740327	-1.9168160947	-0.9185333199	-0.153507
C	-0.7774316728	-1.1828118777	-1.1719371388	-0.191265
C	-0.5434985053	 0.2536585513	-0.8659367443	 0.338165
C	 0.998305939	 0.3679828606	-0.6547224131	-0.197606
H	 1.7234295135	 2.1895540677	 0.5297077901	 0.117213
H	 3.2736568881	 0.494091873	 1.8200727765	 0.105179
H	 2.7444403817	-2.0119746907	 1.0076947076	 0.107624
H	 0.4051346964	-2.9955089902	-1.0051406424	 0.12315
H	-1.7304665646	-1.5488440009	-1.5316374189	 0.119934
H	 1.3683499951	 0.6991345495	-1.6399279595	 0.140764
130.2242	193.2469	295.2138	361.8142	498.5493	555.2102	594.2077	644.1835	653.0918	720.7356	739.3303	802.3819	849.847	882.8143	890.2682	943.2354	952.3363	981.534	998.8315	1036.7139	1075.463	1106.4192	1133.8989	1159.5504	1203.5138	1239.9649	1310.4633	1357.2194	1375.8234	1540.0756	1563.557	1642.9076	1819.145	2986.2232	3195.2261	3202.2954	3216.0972	3226.9513	3238.3969
O1C2C3C=C4C=CC13C24	O=C1C=C[C]2[CH]C=C[C@H]12	
InChI=1S/C8H6O/c1-2-8-5-3-4(1)6(8)7(5)9-8/h1-3,5-7H	InChI=1S/C8H6O/c9-8-5-4-6-2-1-3-7(6)8/h1-5,7H/t7-/m0/s1
