21
gdb 73014	2.71132	1.46614	1.17584	1.2323	82.68	-0.2359	0.0703	0.3062	1139.5914	0.182467	-387.045878	-387.037222	-387.036278	-387.079239	33.592	
O	 0.0146647369	 1.4415718008	 0.2075247805	-0.456723
C	-0.0042117208	 0.0599076636	 0.1117303104	 0.318188
C	-0.83130668	-0.7196534346	-0.9169391584	-0.297367
C	-1.1646649516	-1.7707354332	 0.1948762774	-0.22833
C	-0.3538529288	-0.9512540982	 1.2055914096	-0.191406
C	 1.0662150201	-0.7923500442	 0.7197958393	 0.317146
C	 2.0217978316	-1.8435161837	 0.1260441009	-0.308574
C	 3.0621743152	-1.4449143915	 1.2157041453	-0.20599
C	 2.1791383178	-0.2256210159	 1.6148197071	-0.302645
H	 0.797857093	 1.7691528103	-0.2491532338	 0.283381
H	-1.7162496201	-0.1610104611	-1.2296987623	 0.109301
H	-0.3033776321	-1.0776747868	-1.8076880244	 0.088262
H	-2.2308910102	-1.8073617339	 0.4271308942	 0.104972
H	-0.8111470705	-2.7911731948	 0.0165986774	 0.095831
H	-0.6098197285	-0.786336331	 2.2462418617	 0.086272
H	 1.6797810026	-2.8818494388	 0.143888778	 0.100707
H	 2.349653455	-1.6093017772	-0.8922550643	 0.095118
H	 3.1383151379	-2.1869039927	 2.0138443406	 0.105371
H	 4.0699496706	-1.2162066374	 0.8624168344	 0.09726
H	 2.5741314946	 0.7309135191	 1.2546330577	 0.085581
H	 1.9486961971	-0.1128774187	 2.6774801787	 0.103643
56.7706	164.9974	167.9181	193.3599	232.3099	268.4311	365.3282	419.0944	505.9845	542.4169	667.7371	695.8072	725.8161	796.0951	799.8014	849.5889	912.4562	928.225	942.9954	949.8326	960.0782	981.3839	1020.3536	1059.0276	1075.1956	1097.4938	1146.61	1160.8301	1206.5416	1210.5809	1215.1532	1229.408	1246.9201	1247.118	1251.4725	1278.3116	1284.525	1295.2573	1337.5304	1446.3018	1475.8503	1479.4382	1481.0986	1504.3281	1507.3929	3036.5451	3038.3603	3042.6583	3053.0765	3066.7329	3086.3734	3090.9479	3099.3277	3116.7481	3120.9744	3173.9974	3784.8968
OC12CCC1C21CCC1	O[C@]12CC[C@H]1C12CCC1	
InChI=1S/C8H12O/c9-8-5-2-6(8)7(8)3-1-4-7/h6,9H,1-5H2	InChI=1S/C8H12O/c9-8-5-2-6(8)7(8)3-1-4-7/h6,9H,1-5H2/t6-,8+/m0/s1
