21
gdb 77502	1.89932	1.70819	1.27489	1.6368	78.98	-0.245	0.0713	0.3163	1131.8349	0.180417	-424.184017	-424.174256	-424.173312	-424.217663	37.439	
C	-0.1258993484	 1.6094900077	 0.0641507029	-0.450353
C	 0.0115381749	 0.0961169651	 0.0092184217	-0.022155
C	 0.8420377579	-0.6291749862	-1.1173102516	 0.296263
C	 0.5735250402	-0.624451471	-2.5964764594	-0.517787
C	 2.1431481132	-0.1739422423	-0.3823646843	-0.359158
C	 1.167101186	-0.6456842021	 0.7319922318	 0.326109
O	 1.3342263022	-0.6323917241	 2.1085311562	-0.475568
C	 0.8736029597	-1.8746483042	-0.1859501559	 0.046389
O	-0.327556498	-2.5914749172	-0.0491266752	-0.449119
H	 0.8083279115	 2.1486207454	-0.112685607	 0.113299
H	-0.8514496472	 1.9529131547	-0.6816859012	 0.115159
H	-0.4998500736	 1.9165507067	 1.0467744112	 0.125064
H	-0.9592185966	-0.3756720124	 0.173305906	 0.079049
H	 0.5748172392	 0.3946491803	-2.9978627526	 0.118745
H	 1.3331669346	-1.1985066409	-3.1383606751	 0.117512
H	-0.4027579167	-1.0713236601	-2.8113484257	 0.131549
H	 3.0332688992	-0.7898148904	-0.5518668	 0.081897
H	 2.3905393308	 0.8859333771	-0.4178658091	 0.101134
H	 2.1916373835	-1.0191339404	 2.3168215682	 0.281825
H	 1.7241425714	-2.5533304925	-0.350403848	 0.052202
H	-0.3754229138	-2.9185449331	 0.855382047	 0.287946
150.6331	162.942	183.856	198.5572	208.0774	221.3359	260.2207	278.2951	294.2466	403.6712	440.171	511.0919	552.7306	595.5057	655.6035	679.6647	755.8353	781.5037	815.8406	935.1244	964.95	1007.0268	1035.8924	1074.2451	1093.2804	1105.4547	1120.8764	1145.516	1150.9747	1173.5119	1201.6682	1208.6308	1262.9069	1308.9371	1353.2513	1359.6337	1405.0298	1410.9218	1418.3754	1440.6758	1489.553	1492.4828	1497.4621	1505.5497	1533.8851	2988.7681	3028.416	3034.86	3047.8826	3088.1572	3091.8129	3093.7237	3099.9706	3115.2735	3144.3457	3805.5588	3809.4891
CC1C2(C)CC1(O)C2O	C[C@H]1[C@@]2(C)C[C@]1(O)[C@H]2O	
InChI=1S/C7H12O2/c1-4-6(2)3-7(4,9)5(6)8/h4-5,8-9H,3H2,1-2H3	InChI=1S/C7H12O2/c1-4-6(2)3-7(4,9)5(6)8/h4-5,8-9H,3H2,1-2H3/t4-,5-,6+,7+/m0/s1
