17
gdb 50404	3.30135	1.13922	0.87959	1.7794	76.21	-0.2446	-0.0577	0.187	1255.6214	0.135827	-421.874693	-421.866547	-421.865603	-421.908016	30.021	
O	-0.73902565	 0.9096730881	-0.6103617487	-0.241186
C	 0.1280877229	 0.9755803357	 0.2230740851	 0.145295
C	 1.3658671896	 1.8413725554	 0.1162627707	-0.11583
C	 1.4539273784	 2.5930669159	-1.2145013995	-0.252563
C	 2.5539871097	 3.6148171853	-1.2117377904	-0.064592
C	 3.1242413184	 4.097954549	-0.0996887591	-0.138923
C	 2.6777596025	 3.7047752859	 1.2523000788	 0.36724
O	 3.2289499585	 4.0981245253	 2.259156678	-0.323747
C	 1.4373077601	 2.8129696821	 1.3132616089	-0.32941
H	 0.0618393106	 0.3886092913	 1.1679966266	 0.086237
H	 2.2266474237	 1.1595619746	 0.2033334821	 0.108177
H	 1.5994651635	 1.8883881981	-2.0404332439	 0.127189
H	 0.4922663748	 3.0807980628	-1.4282890822	 0.14137
H	 2.8916116019	 3.9695993103	-2.1832124038	 0.114601
H	 3.9339703905	 4.8196610637	-0.1363052453	 0.111415
H	 0.5599029391	 3.4754728765	 1.2996534763	 0.135635
H	 1.4350359757	 2.2920064398	 2.2743081264	 0.12909
70.3912	106.8767	141.1554	224.0314	309.477	327.8088	392.2197	463.2728	489.4077	597.5329	656.3682	717.0429	752.9526	817.1029	877.846	906.0033	930.2456	966.3024	1026.1309	1045.2223	1067.5137	1113.142	1148.9427	1189.8033	1244.7665	1254.7005	1274.1008	1321.4859	1336.3429	1385.7537	1406.8124	1426.699	1456.016	1471.1184	1680.4055	1782.845	1827.5035	2870.0407	2990.0653	3019.1583	3022.7208	3067.4835	3100.8514	3153.2602	3192.2633
O=CC1CC=CC(=O)C1	O=C[C@H]1CC=CC(=O)C1	
InChI=1S/C7H8O2/c8-5-6-2-1-3-7(9)4-6/h1,3,5-6H,2,4H2	InChI=1S/C7H8O2/c8-5-6-2-1-3-7(9)4-6/h1,3,5-6H,2,4H2/t6-/m0/s1
