22
gdb 118252	3.17954	0.8216	0.71451	1.7963	80.04	-0.2187	0.0697	0.2884	1657.1305	0.192221	-441.426498	-441.416011	-441.415067	-441.462814	37.436	
C	 0.3147953666	 0.7177162997	-0.5387529222	-0.225327
O	-0.2280860562	-0.5629164681	-0.319986218	-0.230943
C	-1.2357253667	-0.5760570069	 0.6648932487	-0.067167
C	-1.7682077203	-2.0053158725	 0.8163882967	 0.055959
O	-2.6105189736	-2.071934635	 1.9654360058	-0.423795
C	-2.4629996603	-2.46684425	-0.4751429219	-0.153889
N	-2.8120781225	-3.8700221902	-0.6715966555	-0.080302
C	-1.8622332353	-4.9164082415	-0.3269685309	-0.226475
C	-3.1185394696	-4.7428405501	 0.4588644167	-0.229522
H	 1.0811738994	 0.6209386613	-1.3114390773	 0.129328
H	-0.4502310622	 1.4314593989	-0.8830474183	 0.105546
H	 0.7775264225	 1.1250820072	 0.373669915	 0.107044
H	-0.8471948693	-0.2399331105	 1.6389827674	 0.098002
H	-2.0617769629	 0.1056490983	 0.3876916664	 0.07416
H	-0.9130276372	-2.6504291684	 1.0446230429	 0.103697
H	-3.4649447571	-1.695598746	 1.7260902722	 0.280972
H	-3.394284735	-1.8860737316	-0.5734906789	 0.085949
H	-1.8232134223	-2.1708444156	-1.3131817928	 0.128679
H	-1.7694398309	-5.7191094864	-1.0543201452	 0.112017
H	-0.9286775911	-4.6483512075	 0.1635530206	 0.111583
H	-3.025457257	-4.342979778	 1.4634870823	 0.13729
H	-3.954840499	-5.4203355572	 0.3032564161	 0.107193
46.5491	80.1085	107.5852	119.2608	198.9017	211.4079	232.1031	282.1445	292.3314	354.7678	395.6892	423.7886	477.668	567.9316	763.8565	821.6314	852.2364	883.8344	944.3917	996.2011	1023.6966	1043.259	1072.9315	1098.4109	1118.0878	1123.3585	1129.6792	1167.1663	1174.6467	1181.45	1191.7619	1225.0783	1240.4827	1250.3182	1326.8786	1338.7919	1348.093	1395.4435	1408.4602	1419.8046	1477.9535	1479.5955	1485.4421	1500.9118	1502.4043	1525.9277	1527.0693	2931.5185	2972.3849	2981.6835	2997.2289	3017.7135	3064.5286	3079.4307	3098.1385	3107.7983	3116.016	3175.2779	3205.6426	3798.3233
COCC(O)CN1CC1	COC[C@@H](O)CN1CC1	
InChI=1S/C6H13NO2/c1-9-5-6(8)4-7-2-3-7/h6,8H,2-5H2,1H3	InChI=1S/C6H13NO2/c1-9-5-6(8)4-7-2-3-7/h6,8H,2-5H2,1H3/t6-/m0/s1
