15
gdb 82290	2.56669	1.87581	1.23639	3.9478	66.94	-0.2631	-0.0763	0.1868	968.3408	0.112995	-457.766363	-457.75916	-457.758216	-457.797995	27.96	
O	-0.169304531	 1.4414746186	-0.0940301823	-0.437994
C	-0.0897079498	 0.0452456965	-0.0518662818	 0.025509
C	-1.4567449346	-0.5967763798	-0.0196391027	 0.01183
O	-2.1107981168	-0.8107656458	-1.2622299664	-0.238729
C	-1.5993647797	-1.9633339038	-0.5578979919	-0.020033
C	-0.4192020547	-2.6191571958	-1.1797065195	-0.033576
C	 0.677713641	-1.9253490365	-1.5119568735	-0.173094
C	 0.7665572617	-0.485016962	-1.2120473843	 0.348903
O	 1.5058528043	 0.2830540326	-1.7961662725	-0.349191
H	 0.5114021329	 1.7120425505	-0.7316436828	 0.296746
H	 0.4332680438	-0.2894768943	 0.867459304	 0.095349
H	-2.1068930825	-0.2708510092	 0.791270837	 0.115422
H	-2.3702245642	-2.6161581205	-0.1560582991	 0.107198
H	-0.493640994	-3.6795222065	-1.403147972	 0.122736
H	 1.5064278238	-2.3685588342	-2.053598762	 0.128925
100.2206	182.5426	273.491	315.3665	362.3971	451.5808	455.2355	502.1434	554.5568	618.1751	676.1308	749.3472	795.9948	840.7161	859.5662	904.7988	975.9444	1004.6295	1012.9819	1094.5726	1122.0542	1142.3268	1158.0217	1221.6294	1245.8802	1281.7797	1337.2166	1383.7878	1402.9879	1437.5231	1457.4706	1674.7328	1776.3329	2900.7541	3124.0364	3145.9917	3174.5672	3200.2376	3681.4084
OC1C2OC2C=CC1=O	O[C@H]1[C@H]2O[C@H]2C=CC1=O	
InChI=1S/C6H6O3/c7-3-1-2-4-6(9-4)5(3)8/h1-2,4-6,8H	InChI=1S/C6H6O3/c7-3-1-2-4-6(9-4)5(3)8/h1-2,4-6,8H/t4-,5+,6-/m0/s1
