20
gdb 102180	2.16677	1.09736	0.78561	4.2453	79.37	-0.2816	0.0336	0.3152	1458.9901	0.169571	-403.147838	-403.13797	-403.137026	-403.183425	35.08	
C	 0.317108853	-0.4286430354	 1.5817736027	-0.390331
C	-0.0554028696	-0.1233811977	 0.1275934782	-0.19505
C	-1.4189960211	-0.6915520491	-0.3001919312	-0.010599
C	-1.8212740281	-0.2292897832	-1.7244642616	-0.35214
C	-1.9736972017	 1.2190259827	-1.8325984336	 0.262705
N	-2.0902003055	 2.367176174	-1.8975467808	-0.315104
C	-1.4348160272	-2.2068523938	-0.2753895533	 0.07861
C	-2.0766109636	-2.9793054553	 0.7952691304	-0.179651
O	-2.7071685046	-2.8265610168	-0.4776752058	-0.243881
H	 1.27692601	 0.0284666594	 1.839002015	 0.122722
H	-0.4346661464	-0.0316966504	 2.2726685119	 0.121241
H	 0.4023992526	-1.5042646159	 1.7642013927	 0.120412
H	-0.0684853655	 0.9614573972	-0.0241480382	 0.129047
H	 0.7208001047	-0.5157239664	-0.5441506762	 0.098692
H	-2.1908183744	-0.3337693431	 0.3922696709	 0.097112
H	-1.069526542	-0.5556837269	-2.4539166548	 0.14667
H	-2.7669191271	-0.7059953631	-2.0021615296	 0.170978
H	-0.6209014197	-2.6840095405	-0.8275868679	 0.096595
H	-1.7259931909	-3.984131107	 1.0256557248	 0.121383
H	-2.5557991028	-2.4535748588	 1.6198058162	 0.12059
66.4078	80.9066	93.3433	133.2849	185.1242	229.484	246.6754	327.6622	366.1104	399.5421	427.7566	497.184	581.9971	758.8501	822.3326	858.7708	873.5265	927.2118	957.5767	967.3388	1017.6043	1024.8742	1086.484	1110.6569	1124.8484	1159.7067	1166.4278	1187.2603	1232.3249	1270.5751	1289.6573	1309.057	1339.2452	1363.4259	1382.5028	1415.1192	1448.2711	1469.1419	1490.2625	1501.266	1508.1341	1529.992	2359.8092	3014.9736	3033.152	3037.7076	3043.8704	3068.1164	3078.5503	3086.7589	3090.8033	3105.2388	3112.4603	3173.7805
CCC(CC#N)C1CO1	CC[C@@H](CC#N)[C@H]1CO1	
InChI=1S/C7H11NO/c1-2-6(3-4-8)7-5-9-7/h6-7H,2-3,5H2,1H3	InChI=1S/C7H11NO/c1-2-6(3-4-8)7-5-9-7/h6-7H,2-3,5H2,1H3/t6-,7+/m0/s1
