19
gdb 35839	3.3126	1.17992	0.90421	0.7976	90.87	-0.2183	-0.0262	0.1921	1282.4847	0.16012	-348.733065	-348.724673	-348.723729	-348.7664	32.63	
C	-0.0576612693	-1.213502387	-0.1876608016	-0.446941
C	-0.0110417145	-0.0177795833	-0.0741490756	 0.304233
C	 0.0445811255	 1.435769408	 0.0868400045	-0.223041
C	-0.7996771212	 1.8824455754	 1.3148161721	-0.206976
C	-1.2625390356	 3.3401082594	 1.2658143459	-0.268167
C	-0.2142390461	 4.4104268311	 1.1625321155	-0.064934
C	 1.0913524587	 4.3084497421	 0.8702802408	-0.06958
C	 1.8883803752	 3.1388254518	 0.5108039879	-0.087744
C	 1.48355859	 1.9109761719	 0.1619040417	-0.066682
H	-0.1016258643	-2.2686174156	-0.2976465372	 0.192523
H	-0.4170382396	 1.885372749	-0.8066539859	 0.120588
H	-1.6859019321	 1.2439566349	 1.3765107954	 0.110841
H	-0.2130747584	 1.7000257289	 2.2204795966	 0.117527
H	-1.9783960071	 3.4727011894	 0.4399479355	 0.114033
H	-1.8535162849	 3.5345692936	 2.1721344432	 0.110167
H	-0.5888334241	 5.4116904853	 1.3694962693	 0.089572
H	 1.6604750686	 5.235801879	 0.8913576479	 0.084023
H	 2.9615929702	 3.3163608807	 0.4958022902	 0.088013
H	 2.2347811289	 1.1697957856	-0.0917479961	 0.102546
40.9313	146.505	185.3503	241.5397	310.7681	352.3866	387.1207	480.0255	520.5109	557.5798	596.2117	621.7079	639.4162	704.2758	772.5123	818.136	840.6766	891.5481	907.8478	947.2073	999.0596	1017.2648	1018.4025	1059.7612	1083.8196	1091.6901	1177.2185	1235.3954	1269.2329	1285.1	1303.2758	1307.4951	1363.0642	1391.0821	1425.5315	1456.1367	1465.3103	1491.3547	1684.0442	1713.0388	2237.1388	2975.2444	2992.2464	3019.2443	3054.9068	3096.9681	3126.0861	3141.1579	3155.5868	3181.4949	3505.0189
C#CC1CCC=CC=C1	C#C[C@H]1CCC=CC=C1	
InChI=1S/C9H10/c1-2-9-7-5-3-4-6-8-9/h1,3-5,7,9H,6,8H2	InChI=1S/C9H10/c1-2-9-7-5-3-4-6-8-9/h1,3-5,7,9H,6,8H2/t9-/m1/s1
