13
gdb 20648	7.60542	1.24863	1.07975	5.4638	63.12	-0.2657	-0.0713	0.1944	1029.0066	0.094545	-398.606927	-398.599614	-398.59867	-398.639041	25.225	
C	 0.0315613056	 1.5038635104	 0.0161661903	-0.491545
C	-0.0883160494	 0.0226477587	 0.0522231324	 0.448303
C	-1.1077846603	-0.8518934314	-0.1588698448	-0.42313
C	-0.5111002093	-2.1291337175	 0.0433222759	 0.290856
C	-1.1818610877	-3.4487083496	-0.0628182966	 0.097791
O	-0.6514328044	-4.5144756111	 0.1138393017	-0.235464
N	 0.7665383163	-2.0254902118	 0.3515300621	-0.170119
O	 1.029879895	-0.6725764363	 0.3564895574	-0.192954
H	 0.7724611262	 1.8179342079	-0.7259541174	 0.158285
H	-0.9298359666	 1.9522283165	-0.2399539275	 0.146813
H	 0.3513809859	 1.8938052216	 0.9877422761	 0.158274
H	-2.1292982353	-0.6280487786	-0.4186932444	 0.13063
H	-2.2589434859	-3.3699497087	-0.3298695253	 0.082261
85.9978	98.468	181.7817	199.0238	326.099	336.0955	460.0753	650.5128	680.2415	684.2533	783.3431	818.143	952.1959	1010.1747	1030.1779	1033.3394	1051.9427	1066.7318	1142.7761	1270.4278	1395.0461	1414.2204	1458.7072	1473.6115	1490.3245	1496.3934	1634.2958	1822.7086	2887.5482	3045.7046	3103.8719	3142.1675	3274.0884
CC1=CC(C=O)=NO1	Cc1cc(C=O)no1	
InChI=1S/C5H5NO2/c1-4-2-5(3-7)6-8-4/h2-3H,1H3	InChI=1S/C5H5NO2/c1-4-2-5(3-7)6-8-4/h2-3H,1H3
