20
gdb 119736	3.19991	1.11672	0.97975	2.3961	75.57	-0.2212	0.0709	0.2921	1291.6371	0.170565	-440.218292	-440.209351	-440.208407	-440.252589	32.718	
C	-0.4214834977	 1.3391330906	-0.6134742116	-0.221804
O	-0.6842808474	-0.0420478521	-0.6944471408	-0.239146
C	-0.815981454	-0.6523050243	 0.5703874612	-0.159592
C	-1.0554524759	-2.1278933316	 0.3752105879	 0.4287
C	-0.1793790156	-2.9415136812	-0.6043802382	-0.220889
N	-1.3880268212	-3.6935418528	-1.0716959336	-0.325031
C	-2.2830040473	-2.8259409211	-0.2644302699	-0.107447
C	-2.518782591	-3.3990626088	 1.1421012577	-0.07161
O	-1.2894459597	-2.7950459983	 1.6333053206	-0.345161
H	-0.3362096255	 1.7164835013	-1.6353051619	 0.128086
H	-1.2325975751	 1.8792907839	-0.1005788226	 0.106811
H	 0.5185773945	 1.5438150257	-0.0775742104	 0.107946
H	 0.0957139675	-0.509976856	 1.1777036893	 0.097531
H	-1.6539242534	-0.2150482746	 1.1377639006	 0.094473
H	 0.2804485537	-2.3095178721	-1.3706512879	 0.113072
H	 0.5808242841	-3.5730027274	-0.1341119371	 0.106317
H	-1.5444596951	-3.5842589533	-2.066592273	 0.222065
H	-3.1019860603	-2.3284440952	-0.7848980602	 0.078971
H	-3.3911157674	-2.9980622792	 1.6740455897	 0.096145
H	-2.5028556631	-4.4913803036	 1.2086562801	 0.110563
70.9641	84.6688	105.5079	184.4382	230.8232	270.9228	327.6668	382.7638	413.4798	442.8972	652.2733	706.2561	752.0671	838.7397	852.8696	929.2314	944.6283	983.9044	997.3411	1001.5919	1043.4701	1056.8537	1109.4269	1137.4963	1152.037	1156.6654	1172.6268	1182.5404	1193.5528	1231.6868	1256.4027	1266.7665	1306.7754	1332.0988	1369.1402	1398.219	1415.3271	1480.393	1485.8658	1490.91	1501.2905	1505.7363	1520.9043	2948.9142	2973.9971	2987.0566	3014.883	3018.7717	3040.0328	3084.6732	3095.7726	3105.5699	3115.6667	3544.6558
COCC12CNC1CO2	COC[C@]12CN[C@H]1CO2	
InChI=1S/C6H11NO2/c1-8-4-6-3-7-5(6)2-9-6/h5,7H,2-4H2,1H3	InChI=1S/C6H11NO2/c1-8-4-6-3-7-5(6)2-9-6/h5,7H,2-4H2,1H3/t5-,6+/m0/s1
