12
gdb 130814	8.16528	0.66598	0.61576	5.4187	78.18	-0.2764	-0.0904	0.186	1644.9289	0.076978	-435.450349	-435.442634	-435.441689	-435.48422	26.144	
O	-0.0991922766	-0.034537741	 0.0001475045	-0.217899
C	-0.0111526688	 1.1710812726	 0.007250867	 0.002383
C	 1.2354065198	 1.8949531225	-0.0005185076	 0.208479
C	 2.265402756	 2.5274818438	-0.0067666366	-0.036195
C	 3.4543816008	 3.2925244999	-0.0139682914	 0.221589
N	 4.6409807186	 2.7022376858	-0.031818397	-0.177909
O	 5.5590720429	 3.7265855009	-0.0337872231	-0.146531
C	 4.9194167228	 4.908521836	-0.0177875213	 0.064056
C	 3.5795188827	 4.7166580886	-0.0049845991	-0.331038
H	-0.9090277981	 1.8211014978	 0.0205239649	 0.105689
H	 5.549486214	 5.7840182131	-0.0179359229	 0.165564
H	 2.791622396	 5.44952898	 0.0089562826	 0.141811
46.6158	75.2423	106.8861	204.4061	266.5321	411.3504	502.2525	511.0453	617.7674	700.5272	730.3756	806.7583	878.1288	920.4715	952.6949	970.6273	1018.1088	1047.0965	1090.8596	1149.9067	1309.2069	1406.2706	1420.9398	1477.4879	1578.8017	1765.4076	2328.1666	2925.9439	3270.5119	3299.1128
O=CC#CC1=NOC=C1	O=CC#Cc1nocc1	
InChI=1S/C6H3NO2/c8-4-1-2-6-3-5-9-7-6/h3-5H	InChI=1S/C6H3NO2/c8-4-1-2-6-3-5-9-7-6/h3-5H
