15
gdb 124415	3.29279	1.23177	0.96226	4.062	70.66	-0.2692	-0.0136	0.2557	1170.1552	0.114117	-413.002174	-412.994063	-412.993118	-413.036429	28.712	
C	-0.7706906624	 1.5792110196	-0.5308929185	-0.385651
C	-0.0539816966	 0.2657113137	-0.1315342652	-0.280552
C	-1.0212238182	-0.7126492679	 0.3809272719	 0.282365
N	-1.7899620309	-1.4956282042	 0.743516488	-0.319188
C	 0.7339578295	-0.3274432576	-1.2717027439	 0.374223
C	 1.8676175026	 0.0922128769	-1.9304168203	-0.160852
N	 2.1560265221	-0.7956758087	-2.9216084995	-0.181223
N	 1.2666299868	-1.7461861736	-2.9155637554	-0.107042
N	 0.4013447076	-1.467974462	-1.9233038798	-0.243551
H	-0.0313294167	 2.3056826619	-0.8744059775	 0.143051
H	-1.4821613659	 1.3978482503	-1.339478106	 0.149783
H	-1.3070184868	 1.9963206639	 0.3246778491	 0.145104
H	 0.6417764496	 0.4888818834	 0.6866004372	 0.157394
H	 2.480669812	 0.960890244	-1.7515933452	 0.128583
H	-0.3615365228	-2.0998322097	-1.726696635	 0.297556
19.3671	120.2079	159.0813	208.3214	234.4994	338.2792	379.7925	491.7799	560.2485	622.0623	689.6703	723.6743	732.9273	850.7988	863.0489	986.7203	1008.0567	1058.6638	1077.7665	1080.8057	1116.2333	1140.0654	1235.0155	1276.8363	1311.128	1340.9934	1380.8145	1412.3244	1449.9106	1490.5327	1495.8996	1595.9602	2359.4191	3040.3305	3057.0061	3139.69	3143.548	3268.3843	3631.5053
CC(C#N)C1=CN=NN1	C[C@@H](C#N)c1cnn[nH]1	
InChI=1S/C5H6N4/c1-4(2-6)5-3-7-9-8-5/h3-4H,1H3,(H,7,8,9)	InChI=1S/C5H6N4/c1-4(2-6)5-3-7-9-8-5/h3-4H,1H3,(H,7,8,9)/t4-/m0/s1
