14
gdb 69020	2.99269	1.35296	1.10658	1.4066	68.7	-0.2679	-0.0558	0.2121	1074.0392	0.098466	-436.676579	-436.668319	-436.667375	-436.709627	29.842	
C	-0.0601073518	 1.5692699798	 0.0693511321	-0.510625
C	 0.1617457732	 0.0994479072	-0.0152809111	 0.19699
O	-0.6910060787	-0.7943193997	 0.7324426983	-0.287865
C	 0.7155622472	-0.9213467332	 0.9391542301	 0.237695
C	 1.2316443352	-1.8461914122	-0.1741426557	-0.426305
C	 0.6868993199	-0.7744667122	-1.1674647014	 0.404079
O	 0.7764908685	-0.6148703491	-2.3444923512	-0.279286
C	 1.2541545141	-0.7101768202	 2.2448182059	 0.216326
N	 1.7173205592	-0.5497066988	 3.2921812253	-0.329781
H	 0.7984204608	 2.1075962747	-0.341582671	 0.151026
H	-0.9454535103	 1.8481873278	-0.510256654	 0.158742
H	-0.2122734756	 1.8736477906	 1.1076714895	 0.157584
H	 2.320022378	-1.9231649149	-0.2433442618	 0.157018
H	 0.7762956502	-2.8372284098	-0.1957837249	 0.154402
91.988	121.8244	151.0087	200.2041	244.9689	308.2999	413.3371	478.7782	514.5564	566.888	578.2252	605.2383	675.4315	709.3649	777.8565	841.698	973.4571	1003.1553	1058.4271	1085.514	1120.4503	1184.0964	1194.8471	1282.1164	1397.7682	1431.3331	1453.6147	1475.619	1484.3387	1911.3848	2358.9444	3048.5892	3079.0127	3119.1718	3134.9492	3144.9356
CC12OC1(CC2=O)C#N	C[C@]12O[C@]1(CC2=O)C#N	
InChI=1S/C6H5NO2/c1-5-4(8)2-6(5,3-7)9-5/h2H2,1H3	InChI=1S/C6H5NO2/c1-5-4(8)2-6(5,3-7)9-5/h2H2,1H3/t5-,6-/m1/s1
