18
gdb 90018	2.85045	1.50473	1.17908	3.4787	72.39	-0.2429	-0.0382	0.2047	1068.1599	0.147549	-439.064122	-439.056046	-439.055101	-439.096641	31.483	
O	-0.0516119956	 1.4381203948	-0.1683705431	-0.444104
C	-0.0223686483	 0.0365802651	-0.0830376718	 0.155424
C	 0.3534823024	-0.5252701296	 1.3204387864	-0.301522
C	-1.1626755834	-0.6411367527	 1.6194872344	 0.23647
C	-1.4213080252	-0.6346701507	 0.0818890611	-0.319381
N	-1.7538193355	-1.5858955766	 2.5918364055	-0.401223
C	-2.5725973133	-0.5290575299	 3.2503312548	-0.282122
C	-1.8310637354	 0.4959828947	 2.3844738756	 0.350363
O	-1.7790340071	 1.6925473205	 2.3042409285	-0.315118
H	-0.5467457986	 1.7915949483	 0.5870303665	 0.294745
H	 0.5803380931	-0.3084024796	-0.9248947198	 0.086483
H	 0.8080738196	-1.5182602682	 1.263480463	 0.111619
H	 0.9536073631	 0.1191803912	 1.967324511	 0.112842
H	-2.2859418548	-0.0853269736	-0.2989950989	 0.112413
H	-1.4301191768	-1.6577401933	-0.3080898917	 0.106775
H	-2.2975527358	-2.3291145128	 2.1685092792	 0.225034
H	-3.6509668928	-0.5507530159	 3.0440963449	 0.131375
H	-2.4235984255	-0.4462141614	 4.3321199542	 0.139926
103.9343	138.9466	157.5911	256.3919	311.2189	393.4315	411.1632	496.7725	518.7592	535.6476	559.7511	677.1141	722.2058	806.5224	848.3124	861.6618	885.8941	945.5874	955.8893	987.3972	997.1455	1062.5262	1070.1949	1081.5619	1124.2319	1158.984	1187.1374	1205.7669	1242.9792	1256.3323	1265.9325	1299.3395	1346.422	1367.9822	1452.1784	1464.102	1471.7042	1482.6821	1882.6576	3020.1751	3047.3609	3060.3244	3074.9324	3097.5652	3113.8435	3122.2993	3544.5538	3691.4085
OC1CC2(C1)NCC2=O	O[C@H]1C[C@@]2(C1)NCC2=O	
InChI=1S/C6H9NO2/c8-4-1-6(2-4)5(9)3-7-6/h4,7-8H,1-3H2	InChI=1S/C6H9NO2/c8-4-1-6(2-4)5(9)3-7-6/h4,7-8H,1-3H2/t4-,6-
