20
gdb 112768	2.41761	1.2045	0.91976	3.6363	79.1	-0.276	0.023	0.2989	1328.7967	0.170456	-403.160189	-403.150666	-403.149722	-403.194765	35.088	
C	-0.1194620326	 1.5865240389	 0.1048601493	-0.385087
C	 0.0144987109	 0.0664449088	-0.0344167417	-0.205572
C	 0.722802303	-0.5677608773	 1.1546235135	 0.038226
C	 0.0329183363	-0.5773020472	 2.5475067392	-0.283569
C	 0.6441147803	-1.976998744	 2.803227914	 0.163579
O	-0.0535045048	-2.9495562892	 3.5114506078	-0.421882
C	 0.8530083904	-2.1324092552	 1.2432679699	-0.25611
C	-0.2584086808	-2.8538332484	 0.6486673398	 0.279976
N	-1.1768463722	-3.4283716216	 0.2406660996	-0.342202
H	 0.8617288179	 2.0673525377	 0.1864702135	 0.115664
H	-0.6299499562	 2.0160802849	-0.7619060961	 0.120826
H	-0.6957625652	 1.8548715617	 0.9966586011	 0.122568
H	-0.978168039	-0.3849234088	-0.1490520555	 0.11878
H	 0.5672747157	-0.1729691534	-0.9519308039	 0.10379
H	 1.7333620686	-0.1545581576	 1.2462284087	 0.087123
H	 0.2693707976	 0.2182007125	 3.2561902005	 0.110807
H	-1.0557639554	-0.6481317875	 2.4414527682	 0.111761
H	 1.6254041441	-1.8971210005	 3.2781315135	 0.106545
H	-0.8934513596	-3.1159806707	 3.0656267559	 0.295274
H	 1.7954793209	-2.5748685232	 0.9129901426	 0.119505
86.0791	96.1043	116.8179	137.8785	208.406	250.	331.4379	378.1384	387.7767	422.5801	445.0537	496.2045	667.7604	678.4785	752.6497	788.6442	812.784	898.988	944.023	969.5919	980.8346	1035.2984	1059.4833	1085.6141	1129.5272	1134.4347	1174.8184	1201.572	1247.5209	1249.6843	1258.7474	1295.6267	1330.6721	1345.9195	1351.4903	1395.6818	1411.8293	1444.3584	1483.3574	1490.8897	1499.5825	1506.9247	2339.8874	3025.1391	3032.9903	3042.2428	3049.4313	3065.3322	3080.5127	3091.8251	3100.4187	3109.3233	3121.272	3779.9939
CCC1CC(O)C1C#N	CC[C@H]1C[C@@H](O)[C@H]1C#N	
InChI=1S/C7H11NO/c1-2-5-3-7(9)6(5)4-8/h5-7,9H,2-3H2,1H3	InChI=1S/C7H11NO/c1-2-5-3-7(9)6(5)4-8/h5-7,9H,2-3H2,1H3/t5-,6-,7+/m0/s1
