16
gdb 19475	4.86615	1.53347	1.46602	1.4295	64.14	-0.2346	0.0004	0.235	890.7261	0.13093	-383.676093	-383.669197	-383.668253	-383.707268	26.633	
O	-0.0994421973	 1.411638401	-0.2714395149	-0.427651
C	 0.0035887827	 0.0433594986	 0.1086208169	-0.116807
C	-1.3972400771	-0.5338967164	 0.0720032659	 0.04172
C	-1.9741315041	-0.8347732506	-1.3539123458	 0.019137
O	-1.1350035554	-2.0404550597	-1.3752751559	-0.289424
C	-1.5058312032	-2.0958247579	 0.0425643356	-0.008442
C	-3.0311129351	-2.2904874406	-0.0414691979	-0.082573
C	-3.3516333628	-1.4237551115	-1.004552544	-0.080093
H	 0.7883979089	 1.7786844679	-0.309872612	 0.287975
H	 0.6507799378	-0.520875063	-0.5748667767	 0.106824
H	 0.4127122355	-0.0548304531	 1.1279500102	 0.082133
H	-2.0591930422	-0.0045382161	 0.761350165	 0.080255
H	-1.8466560304	-0.1721634393	-2.207644152	 0.086814
H	-0.8947658749	-2.7651380247	 0.6479584958	 0.077426
H	-3.6394732433	-2.9585346256	 0.5495791053	 0.110956
H	-4.3044919592	-1.164116769	-1.4409614456	 0.111751
90.8753	169.3208	234.0882	290.4661	392.7443	505.3216	546.7301	625.5025	704.7583	753.7299	811.4854	862.3213	869.5967	887.3796	909.0033	912.7161	957.4852	998.3985	1055.3922	1074.563	1090.4396	1149.958	1153.5867	1177.3211	1218.5244	1237.3793	1262.9221	1265.4717	1298.0855	1303.3912	1372.4506	1456.7128	1523.1893	1614.7527	2963.9769	3039.329	3089.6897	3126.073	3149.166	3234.0292	3261.2597	3831.9431
OCC1C2OC1C=C2	OC[C@H]1[C@H]2O[C@@H]1C=C2	
InChI=1S/C6H8O2/c7-3-4-5-1-2-6(4)8-5/h1-2,4-7H,3H2	InChI=1S/C6H8O2/c7-3-4-5-1-2-6(4)8-5/h1-2,4-7H,3H2/t4-,5-,6+
