16
gdb 42720	2.80535	1.74637	1.38916	2.0227	74.17	-0.2459	-0.0042	0.2418	947.5818	0.125162	-400.696978	-400.689997	-400.689053	-400.7282	28.034	
O	 0.010142346	-0.0051106527	 0.1954016026	-0.298806
C	-0.007324264	 1.171708176	 0.0722866426	 0.429981
C	-1.087438155	 2.333521031	-0.0569387632	-0.292872
C	-0.703837652	 3.0522002388	 1.2246396149	-0.097286
C	 0.6437084617	 3.073104161	 1.2115816001	-0.075546
C	 1.029086891	 2.3692304342	-0.0749668829	-0.271645
C	-0.0463677587	 2.9118682091	-1.0490482933	 0.435454
C	-0.0943635793	 2.8980231763	-2.5217072815	-0.33239
N	-0.0239239846	 4.1691420157	-1.7509576588	-0.389554
H	-2.1311410343	 2.1609145235	-0.3093113709	 0.085591
H	-1.3858988795	 3.358572987	 2.0042039219	 0.112287
H	 1.32980222	 3.4096134329	 1.9748265092	 0.114134
H	 2.0724683368	 2.2359364106	-0.346538987	 0.091765
H	 0.795303243	 2.6738851246	-3.1035601085	 0.129503
H	-1.0324175513	 2.6293493396	-3.0014869595	 0.120674
H	-0.9329408696	 4.6235729726	-1.7185476858	 0.23871
121.8019	202.5768	253.3614	296.1241	393.8374	493.8441	544.198	596.2278	605.6311	713.5428	772.6397	787.6186	807.4037	879.2223	904.4675	919.4334	929.2246	940.4714	962.6442	977.3493	1004.4745	1057.0311	1085.6473	1119.8073	1131.7716	1149.8536	1202.1129	1213.6675	1241.0567	1252.3653	1327.5921	1422.823	1516.7009	1583.9057	1923.1063	3106.5013	3152.342	3167.6843	3192.7818	3228.6242	3252.1177	3506.0764
O=C1C2C=CC1C21CN1	O=C1[C@H]2C=C[C@@H]1[C@]12CN1	
InChI=1S/C7H7NO/c9-6-4-1-2-5(6)7(4)3-8-7/h1-2,4-5,8H,3H2	InChI=1S/C7H7NO/c9-6-4-1-2-5(6)7(4)3-8-7/h1-2,4-5,8H,3H2/t4-,5+,7-
