18
gdb 8435	2.76603	2.13502	1.80403	2.1995	67.45	-0.2237	0.0641	0.2878	842.7785	0.152156	-384.911301	-384.903196	-384.902252	-384.942893	31.937	
C	-0.1025407505	 1.5934439608	 0.0148259841	-0.464758
C	 0.064119197	 0.0822144238	 0.0290360262	 0.327197
O	-1.201635227	-0.5700803993	-0.0858281435	-0.494951
C	 1.1367395948	-0.58813151	-0.9043126405	-0.28084
C	 1.7220016223	-1.323231847	 0.3075264945	-0.136415
C	 2.1870311553	-0.3031770335	 1.3285571452	-0.33793
C	 0.7325374952	-0.5948451561	 1.2329581995	 0.424078
O	 0.0123795881	-1.000119123	 2.3319267111	-0.46636
H	 0.8562208474	 2.1011159132	 0.1522123962	 0.12263
H	-0.5182107554	 1.932210232	-0.942994064	 0.105385
H	-0.7805853622	 1.9075392531	 0.8141239486	 0.13009
H	-1.6657547774	-0.2055445578	-0.8460295984	 0.280267
H	 0.6537651895	-1.246930783	-1.6290804681	 0.100582
H	 1.819608807	 0.091934261	-1.4266883031	 0.087154
H	 2.0788610319	-2.3451148959	 0.3220205098	 0.087682
H	 2.6483979712	-0.730543292	 2.213537266	 0.12217
H	 2.6137753128	 0.6500892796	 1.0198518639	 0.099444
H	-0.8287481101	-1.3285954958	 1.9870023126	 0.294574
151.1437	207.1001	222.5287	228.4051	273.8311	353.3025	397.9621	430.9345	449.0576	485.0751	520.4169	635.3416	671.0496	800.4879	844.5859	859.3451	907.6997	938.7531	960.1726	973.3935	1016.4117	1028.698	1089.9755	1097.6794	1139.0877	1178.0525	1196.6733	1238.3003	1247.9191	1270.5709	1323.8851	1396.4894	1405.5543	1438.9735	1473.1198	1488.4518	1493.5853	1514.0333	3022.875	3033.2748	3090.3121	3092.3939	3108.346	3119.3217	3189.8754	3198.5047	3765.9511	3819.8025
CC1(O)CC2CC12O	C[C@@]1(O)C[C@H]2C[C@@]12O	
InChI=1S/C6H10O2/c1-5(7)2-4-3-6(4,5)8/h4,7-8H,2-3H2,1H3	InChI=1S/C6H10O2/c1-5(7)2-4-3-6(4,5)8/h4,7-8H,2-3H2,1H3/t4-,5+,6-/m0/s1
