17
gdb 20891	5.48611	1.29151	1.14468	4.2928	71.37	-0.242	0.0074	0.2493	1089.7977	0.142596	-360.058023	-360.049739	-360.048795	-360.092186	28.778	
C	-0.325881294	 1.5027700551	 0.2218528939	-0.376885
C	 0.2064567259	 0.0973484448	-0.0616948999	-0.145215
N	 0.7713744598	-0.5398911908	 1.1184865268	 0.083176
C	 0.1426677837	-1.1570414353	 2.1493259443	-0.189614
C	 1.1523674886	-1.5150595828	 3.0137416075	 0.304113
C	 1.0892224616	-2.2357090766	 4.3205795533	-0.482398
N	 2.3325703089	-1.0969791548	 2.4696318192	-0.250756
N	 2.1002540731	-0.50847574	 1.3304261465	-0.151939
H	 0.4733335426	 2.1438920172	 0.6026860038	 0.147006
H	-0.718227814	 1.9456073941	-0.6984002221	 0.126252
H	-1.132343527	 1.4806205392	 0.9607479933	 0.126676
H	-0.5842805037	-0.55011719	-0.4532288467	 0.123887
H	 1.0122885397	 0.1291113321	-0.7979200719	 0.147087
H	-0.9259641998	-1.290838444	 2.1785573686	 0.136281
H	 1.6301008585	-3.1864636125	 4.2733156074	 0.140875
H	 1.547803228	-1.6415654046	 5.1171876649	 0.141532
H	 0.0548060679	-2.4466727812	 4.6036086109	 0.119922
33.2501	53.3779	111.0025	206.0302	265.5853	287.0533	404.5132	415.8434	603.92	671.1863	716.4845	740.226	782.312	793.1548	970.9487	996.8429	1040.9602	1059.5036	1065.7273	1092.5955	1103.4684	1163.2709	1251.2219	1285.7029	1343.2934	1374.7006	1388.8637	1410.1606	1421.1958	1466.5675	1478.937	1483.7283	1490.2571	1504.6663	1507.2142	1595.3596	3041.5142	3045.504	3061.513	3098.8937	3110.2902	3121.2289	3123.7206	3135.594	3274.8991
CCN1C=C(C)N=N1	CCn1cc(C)nn1	
InChI=1S/C5H9N3/c1-3-8-4-5(2)6-7-8/h4H,3H2,1-2H3	InChI=1S/C5H9N3/c1-3-8-4-5(2)6-7-8/h4H,3H2,1-2H3
