16
gdb 29030	2.6738	1.65875	1.03007	1.9753	85.	-0.2493	-0.0919	0.1574	1107.1472	0.125497	-400.789261	-400.781451	-400.780507	-400.822047	29.049	
C	-0.2112776158	 1.527533391	 0.0079434449	-0.458507
C	-0.1457505828	 0.0262276737	-0.0087794914	 0.157623
C	-0.0557059843	-0.6161850835	-1.2126809566	-0.049051
N	 0.0199115396	-1.9284845666	-1.5892265913	-0.26129
C	 0.0229975199	-2.9524613126	-0.7973126295	 0.018681
C	-0.0472715275	-3.0321392904	 0.6344063506	-0.093305
C	-0.1370627747	-2.028591597	 1.5371649653	-0.128074
C	-0.1894202583	-0.5750041282	 1.3413858179	 0.279185
O	-0.271325117	 0.1500653553	 2.3288655819	-0.356296
H	 0.6137190989	 1.9356427203	 0.601560927	 0.150187
H	-0.1776326804	 1.9468696598	-0.9993515685	 0.118295
H	-1.1246357543	 1.8606695446	 0.5122724804	 0.150182
H	-0.0388153166	 0.0402843893	-2.0822687626	 0.109456
H	 0.0903189628	-3.9174979804	-1.3039591663	 0.118914
H	-0.023934221	-4.0462998149	 1.0273658852	 0.114417
H	-0.1803355186	-2.2893295604	 2.591823393	 0.129582
49.7333	153.7622	194.6855	301.1364	330.0452	357.5901	359.968	448.4312	513.6016	627.7892	652.5153	684.7156	745.5916	866.629	875.6994	942.1327	973.8515	993.4325	1001.0302	1047.011	1063.6261	1120.6404	1146.3876	1258.9809	1312.9066	1409.8346	1427.9814	1448.7402	1460.9995	1471.3122	1475.5894	1548.5195	1624.3464	1670.4783	1702.0942	3040.4047	3092.7609	3103.7855	3124.12	3136.3679	3152.084	3175.5233
CC1=CN=CC=CC1=O	Cc1cncccc1=O	
InChI=1S/C7H7NO/c1-6-5-8-4-2-3-7(6)9/h2-5H,1H3	InChI=1S/C7H7NO/c1-6-5-8-4-2-3-7(6)9/h2-5H,1H3
