15
gdb 23298	2.96689	1.33611	0.99752	2.806	70.03	-0.2383	-0.0284	0.2099	1129.8737	0.112591	-453.900829	-453.893189	-453.892245	-453.93318	29.203	
O	-0.063582476	 1.3137299996	-0.0468702421	-0.38583
N	 0.0396189623	-0.0836236949	-0.0458526303	-0.244258
C	-1.1051230408	-0.6344919263	 0.0184876025	 0.46332
C	-2.4710106747	-0.0064912754	 0.1638561714	-0.439446
C	-3.3257197133	-1.1195096203	 0.797703895	 0.446591
O	-4.3338122425	-0.9651915545	 1.4342820373	-0.313771
C	-2.619524583	-2.4309457727	 0.559871038	-0.165758
N	-2.2684176876	-2.5908068757	-0.8769263206	-0.334556
C	-1.2391690355	-2.1165669131	 0.0730772208	-0.139247
H	 0.8596193673	 1.5884204812	-0.063459283	 0.310805
H	-2.4621506867	 0.892981487	 0.7819296101	 0.158631
H	-2.8917487613	 0.2669068107	-0.8108038602	 0.166341
H	-2.863735792	-3.2961899828	 1.1641756365	 0.114524
H	-2.1179072768	-3.5825386204	-1.0525034465	 0.248968
H	-0.3798206994	-2.7342541023	 0.3027300811	 0.113685
86.2183	152.2212	207.5725	266.3242	364.4425	436.4185	447.0884	462.1616	533.9161	561.9392	630.4528	687.9512	791.2411	842.5038	844.6523	857.924	905.5937	961.7965	990.3426	1004.7017	1108.6047	1120.8332	1148.0819	1174.6728	1223.5447	1239.2782	1286.2615	1348.0689	1372.586	1417.1307	1436.4444	1762.2405	1857.2963	3056.7295	3126.7771	3194.051	3202.8524	3493.8282	3817.0689
ON=C1CC(=O)C2NC12	ON=C1CC(=O)[C@H]2N[C@@H]12	
InChI=1S/C5H6N2O2/c8-3-1-2(7-9)4-5(3)6-4/h4-6,9H,1H2	InChI=1S/C5H6N2O2/c8-3-1-2(7-9)4-5(3)6-4/h4-6,9H,1H2/t4-,5+/m0/s1
