12
gdb 130307	3.54127	1.84914	1.2159	4.0383	60.95	-0.2551	-0.0206	0.2345	904.4687	0.080929	-464.968515	-464.962157	-464.961213	-464.999198	24.274	
N	 0.0423413597	 1.3483177915	 0.1524470227	-0.593688
C	 0.0273366798	-0.0059419251	 0.0384095817	 0.475884
N	-1.0393274165	-0.7665396634	-0.0088751046	-0.219342
O	-0.5554976225	-2.1293239565	-0.0400511915	-0.250547
C	 0.7717204934	-2.0643880549	-0.0272859783	 0.546877
N	 1.7930369801	-2.8860083437	-0.0537849582	-0.397548
C	 2.8316627087	-1.9846741514	-0.0179693856	 0.048089
N	 2.5273703911	-0.6892035868	 0.02907113	-0.288058
N	 1.1631047211	-0.7740128313	 0.0241120544	-0.03943
H	 0.8660763427	 1.80654823	-0.2080936807	 0.289003
H	-0.8305573477	 1.8064727769	-0.0621621905	 0.285637
H	 3.8631077	-2.3055651754	-0.0279224894	 0.143124
168.7511	250.8956	262.1901	336.2604	409.8699	527.893	574.552	651.5945	669.3124	679.5724	715.6378	772.1953	805.1288	897.4773	919.4143	978.2865	1123.6086	1164.4015	1210.1699	1268.6529	1291.9813	1405.3015	1452.357	1544.9245	1593.2685	1629.6677	1685.3908	3261.0917	3581.3276	3692.5024
NC1=NOC2=NC=NN12	Nc1noc2ncnn12	
InChI=1S/C3H3N5O/c4-2-7-9-3-5-1-6-8(2)3/h1H,(H2,4,7)	InChI=1S/C3H3N5O/c4-2-7-9-3-5-1-6-8(2)3/h1H,(H2,4,7)
