17
gdb 55202	2.80311	1.72045	1.41176	2.7157	66.96	-0.245	0.0194	0.2644	950.2952	0.139172	-455.188692	-455.181452	-455.180508	-455.219969	29.365	
N	 0.6243535434	 0.7122134165	 0.7848639595	-0.585113
C	 0.4605941335	-0.5988552569	 0.296387255	 0.406643
N	-0.9110908256	-0.9712906389	 0.046354384	-0.294057
H	-1.4144391646	-1.091013659	 0.9182772754	 0.229005
C	-0.8345770916	-2.2422530867	-0.7234019495	-0.180615
C	 0.6967608418	-2.4676977659	-0.8617482979	-0.186687
C	 1.1710830225	-1.0084301442	-0.9973374855	-0.249111
C	 1.1884956726	-2.7739443424	 0.5531109476	 0.438861
O	 1.5912838132	-3.80186562	 1.0185421956	-0.359774
O	 1.053526636	-1.6189470843	 1.2591746675	-0.294046
H	 1.5780556266	 0.8567983234	 1.0982271637	 0.247112
H	 0.0055174501	 0.8974987217	 1.5673356932	 0.240918
H	-1.3362026247	-3.0689479858	-0.212072279	 0.124077
H	-1.2961790628	-2.1195013427	-1.7094320379	 0.117646
H	 0.9990433033	-3.2037158359	-1.6024309576	 0.099831
H	 0.7719326773	-0.4791055253	-1.8640734307	 0.127216
H	 2.2539127989	-0.8854426237	-0.9396703133	 0.118095
149.4278	228.8958	256.1192	306.5706	342.3615	445.9152	469.2417	509.8084	552.6307	649.3648	679.8512	757.0831	771.4968	795.9477	837.6414	862.1732	903.9229	907.2327	954.8598	980.7685	1038.6945	1048.2473	1072.0009	1105.8694	1180.0458	1212.6794	1237.8354	1272.8873	1279.9076	1335.9571	1353.6105	1398.6654	1461.6439	1496.2704	1526.1882	1661.3102	1880.1829	3037.3465	3083.0306	3086.6476	3143.6544	3157.7492	3516.5123	3542.4294	3598.6402
NC1=[NH+]CC(C1)C([O-])=O	N[C@@]12NC[C@@H](C1)C(=O)O2	
InChI=1S/C5H8N2O2/c6-4-1-3(2-7-4)5(8)9/h3H,1-2H2,(H2,6,7)(H,8,9)	InChI=1S/C5H8N2O2/c6-5-1-3(2-7-5)4(8)9-5/h3,7H,1-2,6H2/t3-,5-/m1/s1
