18
gdb 16838	3.63319	1.7725	1.42131	1.8764	66.37	-0.2515	0.0777	0.3292	920.3496	0.154437	-384.935763	-384.928225	-384.92728	-384.967424	29.137	
C	 0.0681387887	 1.5633170194	-0.0178412662	-0.401292
C	 0.0242142515	 0.0344642136	 0.0207483514	-0.002826
C	 0.653318551	-0.6522122494	-1.2163048264	-0.266097
C	 1.2108374684	-2.0191051348	-0.7363817559	 0.130534
O	 2.3391756413	-2.4732131807	-1.4597245018	-0.439595
C	 1.4750863061	-1.7982234718	 0.7433250528	-0.004779
O	 2.220876032	-0.5874132752	 0.9786493729	-0.274069
C	 0.7969456861	-0.5777851365	 1.1803914975	 0.046039
H	 1.1047327844	 1.9133843418	-0.0561482514	 0.12968
H	-0.4545071927	 1.9513306485	-0.8978823353	 0.116408
H	-0.4035991307	 1.9985332363	 0.8696654335	 0.112467
H	-1.0200706667	-0.2913357876	 0.1276084381	 0.07717
H	-0.05211569	-0.7630010368	-2.0426943031	 0.104064
H	 1.4915327972	-0.0516400376	-1.5834332636	 0.105736
H	 0.458241553	-2.8087234151	-0.8487225951	 0.090284
H	 3.0502198242	-1.8450248437	-1.2850862258	 0.286239
H	 1.7142476216	-2.630176635	 1.4005233184	 0.097587
H	 0.4803322445	-0.4166709355	 2.2086260901	 0.09245
96.1177	162.0529	237.9553	241.5552	351.2242	386.2777	420.9761	482.7711	568.6026	613.2792	658.8477	822.6705	835.6074	866.8488	894.6372	930.2736	945.5525	996.461	1046.9678	1057.5475	1097.0426	1105.5166	1126.9436	1146.5353	1200.9877	1254.7679	1260.0802	1304.706	1323.7854	1330.0342	1337.4487	1372.7765	1407.6013	1434.5239	1438.0577	1485.28	1497.8275	1501.6031	3009.5696	3032.142	3044.4952	3059.4546	3099.4621	3107.1347	3112.7505	3137.2913	3156.1346	3789.7915
CC1CC(O)C2OC12	C[C@H]1C[C@@H](O)[C@H]2O[C@@H]12	
InChI=1S/C6H10O2/c1-3-2-4(7)6-5(3)8-6/h3-7H,2H2,1H3	InChI=1S/C6H10O2/c1-3-2-4(7)6-5(3)8-6/h3-7H,2H2,1H3/t3-,4+,5-,6+/m0/s1
