14
gdb 27438	2.6504	1.66025	1.09736	4.9096	76.7	-0.2314	-0.0927	0.1386	1041.8851	0.102187	-432.893625	-432.886176	-432.885232	-432.92557	28.407	
N	 0.1176082359	 1.3264469539	 0.3180938821	-0.539092
C	-0.0468001874	-0.0071936368	 0.0266191363	 0.387216
C	-1.268718331	-0.6201181612	 0.0753956934	-0.248118
C	-1.5127125109	-2.0299765641	-0.2025060252	 0.331826
O	-2.485034062	-2.4399712406	-0.7993143899	-0.332029
N	-0.6245058847	-2.9618575742	 0.3929742837	-0.208378
C	 0.6466028697	-2.8923882113	 0.2970103867	-0.013997
C	 1.4410715965	-1.8245349889	-0.3110895859	 0.00125
N	 1.1491680623	-0.5771414524	-0.3883840107	-0.269289
H	 0.9240951055	 1.7614696154	-0.1016501367	 0.264054
H	-0.7066563765	 1.9013421807	 0.3821770826	 0.26294
H	-2.1596418195	-0.0090859356	 0.1906729591	 0.109036
H	 1.2298055914	-3.7074193632	 0.7371256656	 0.12645
H	 2.4336635006	-2.1079913115	-0.6689039112	 0.128129
98.547	142.4518	276.3279	344.1965	382.4798	409.0517	435.5109	456.6675	489.2455	548.5927	629.126	707.2541	724.6824	824.2118	845.7617	859.1361	903.8312	936.9954	962.4888	1026.3628	1105.2593	1230.1479	1286.6985	1374.128	1415.2336	1442.0565	1580.3219	1628.7292	1660.9753	1707.0388	1772.9365	3075.1711	3105.5186	3166.1944	3590.7854	3710.6679
NC1=CC(=O)N=CC=N1	Nc1cc(=O)nccn1	
InChI=1S/C5H5N3O/c6-4-3-5(9)8-2-1-7-4/h1-3H,6H2	InChI=1S/C5H5N3O/c6-4-3-5(9)8-2-1-7-4/h1-3H,6H2
