16
gdb 25813	4.02562	1.13225	0.88917	4.11	76.83	-0.2255	-0.027	0.1985	1264.7325	0.125132	-434.119199	-434.110646	-434.109702	-434.152817	31.245	
C	 0.0011573104	 1.401680804	 0.2125031322	-0.492392
C	-0.0142744403	-0.0657180316	-0.0146360311	 0.377497
N	-0.0641961687	-0.7114149803	-1.1395960889	-0.297497
C	-0.0562178672	-2.0488175071	-0.7816924121	-0.180038
C	-0.001127603	-2.1554607663	 0.5702577747	 0.363955
O	 0.026663631	-0.8756886803	 1.0762189737	-0.228009
C	 0.0388324404	-3.286192605	 1.5011857525	 0.211616
N	-0.0016496298	-2.9328179645	 2.8379841739	-0.556607
N	 0.0612735335	-4.4680665517	 1.0068990009	-0.51863
H	 0.9074452095	 1.7100871159	 0.7441750412	 0.14604
H	-0.0346375554	 1.9069041439	-0.7526653202	 0.1624
H	-0.8580910746	 1.7170599032	 0.8135726068	 0.148147
H	-0.0902640725	-2.844741592	-1.5065813316	 0.148998
H	 0.2512047318	-1.9868778401	 3.076425628	 0.261278
H	 0.2930422003	-3.6336938414	 3.4992883017	 0.25004
H	 0.0795167247	-5.1768991669	 1.7414298782	 0.203203
64.8657	103.0016	152.9929	167.5353	284.1244	337.9439	393.2245	414.9121	440.238	522.6363	598.0992	638.3034	692.1083	714.7303	743.4456	831.9371	897.5317	972.2074	982.4454	1027.9526	1066.0139	1095.9103	1120.775	1158.2922	1206.1419	1246.7444	1347.5671	1410.2749	1416.2115	1475.9053	1480.0149	1597.5531	1629.1164	1651.5381	1705.2003	3043.5678	3097.6531	3159.7353	3286.4977	3464.9887	3585.3944	3701.1336
CC1=NC=C(O1)C(N)=N	Cc1ncc(o1)C(=N)N	
InChI=1S/C5H7N3O/c1-3-8-2-4(9-3)5(6)7/h2H,1H3,(H3,6,7)	InChI=1S/C5H7N3O/c1-3-8-2-4(9-3)5(6)7/h2H,1H3,(H3,6,7)
