16
gdb 26779	3.66532	1.11275	0.85906	2.3738	88.47	-0.1805	-0.0028	0.1777	1304.6095	0.122844	-400.753931	-400.744731	-400.743787	-400.787937	33.564	
C	-0.0590657075	 1.5823182814	 0.0031208285	-0.518995
C	-0.012738599	 0.085318703	 0.0372982184	 0.239199
C	 0.1157319595	-0.7625968331	-1.0335375476	 0.261773
N	 0.2908974753	-0.534480501	-2.3883951656	-0.609085
O	 0.1345426749	-2.0544322391	-0.6486816159	-0.206925
C	 0.0133224836	-2.0663522477	 0.7352844049	 0.210728
C	-0.084030549	-0.7760663463	 1.1748300351	-0.396787
C	 0.0185706539	-3.3077084416	 1.382172673	 0.251931
C	 0.0197858611	-4.3727321881	 1.9488640105	-0.43196
H	 0.4088258112	 1.9726228591	-0.9067976573	 0.122115
H	-1.0837552272	 1.9739112807	 0.0419266662	 0.126978
H	 0.4806920753	 2.0129344626	 0.8525306564	 0.133374
H	-0.2339424374	 0.2548941359	-2.7381309335	 0.258956
H	 0.1211845975	-1.3608214546	-2.9461435628	 0.26034
H	-0.1862723226	-0.4755952567	 2.206480978	 0.111799
H	 0.0211610105	-5.3085990546	 2.4495086817	 0.186557
72.3186	114.1633	141.844	161.2617	245.8571	253.0129	300.3197	398.2	443.0904	479.8762	530.666	575.0267	625.5491	653.3606	664.2512	690.9466	726.1997	799.1783	839.3431	967.5502	998.3913	1062.6008	1081.9771	1162.6388	1212.3806	1261.8979	1334.3585	1415.6698	1457.3722	1490.723	1500.3035	1573.3441	1638.0638	1674.5657	2219.3344	3017.7305	3072.8087	3099.5312	3252.6325	3505.3452	3555.0429	3653.3923
CC1=C(N)OC(=C1)C#C	Cc1c(N)oc(c1)C#C	
InChI=1S/C7H7NO/c1-3-6-4-5(2)7(8)9-6/h1,4H,8H2,2H3	InChI=1S/C7H7NO/c1-3-6-4-5(2)7(8)9-6/h1,4H,8H2,2H3
