14
gdb 131207	3.40458	1.62234	1.11788	3.9209	64.16	-0.2093	0.003	0.2123	1003.8909	0.103452	-469.981847	-469.974855	-469.973911	-470.013444	26.043	
O	 0.0039503237	 1.3944763054	 0.0100112622	-0.434589
C	 0.0620096124	 0.0491579518	-0.0785264336	 0.227149
C	 0.0636574373	-0.7530508217	-1.1949821021	 0.346476
O	-0.0245972681	-0.7175988472	-2.5443380915	-0.28195
C	 0.2683028623	-2.0716251479	-2.9839838412	-0.1092
C	 0.0556184715	-3.002441655	-1.7523271408	-0.195899
N	 0.1465277355	-2.0048942917	-0.7040363376	 0.035987
N	 0.1790161928	-2.0307453	 0.6384248609	-0.197516
N	 0.1345113239	-0.7657393016	 1.0056830376	-0.273905
H	 0.0199426414	 1.6054542105	 0.9521045171	 0.306937
H	-0.3927609824	-2.3032444576	-3.819460105	 0.14169
H	 1.3095053772	-2.1050854518	-3.3211638989	 0.137206
H	-0.9257954519	-3.4872926899	-1.7458813614	 0.146038
H	 0.8333096345	-3.7632270831	-1.6658758057	 0.151577
125.1518	148.0976	261.6032	279.083	324.8779	393.8963	517.6186	624.52	645.0723	666.5049	697.7312	772.2489	850.0807	875.8758	944.2993	996.7801	1114.4782	1137.8917	1146.088	1198.8816	1230.2368	1249.2296	1271.3538	1320.1143	1355.9972	1387.2792	1418.9916	1503.2905	1520.2139	1550.032	1722.2516	3053.0807	3056.3277	3118.5169	3137.5491	3794.974
OC1=C2OCCN2N=N1	Oc1c2OCCn2nn1	
InChI=1S/C4H5N3O2/c8-3-4-7(6-5-3)1-2-9-4/h8H,1-2H2	InChI=1S/C4H5N3O2/c8-3-4-7(6-5-3)1-2-9-4/h8H,1-2H2
