22
gdb 105899	2.14298	1.71825	1.17681	1.9138	86.04	-0.222	0.0827	0.3046	1165.8444	0.193743	-367.127184	-367.118369	-367.117425	-367.160524	34.182	
C	 0.0577188605	 1.5359800791	 0.0826129145	-0.379158
C	-0.0082108815	 0.0068293218	-0.0248080629	-0.327549
C	-1.4221379137	-0.5236932163	-0.0371119801	 0.333749
C	-2.5737435068	-0.2661919561	-1.0203875147	 0.014561
C	-2.5051342485	-0.7291385577	-2.4628725193	-0.423589
N	-3.2543702141	-1.2217585289	-0.03918429	-0.17569
C	-1.9200284901	-2.0000142929	 0.1377668161	-0.067122
C	-2.0215217197	-1.907698831	 1.6625089733	-0.268561
C	-2.4769744133	-0.5510222061	 1.1224779383	-0.037877
H	 1.0934076716	 1.8883463916	 0.0801593227	 0.114448
H	-0.4593871667	 2.0152982395	-0.7552803763	 0.119784
H	-0.4138127461	 1.8872888391	 1.0063999543	 0.118827
H	 0.5036837727	-0.3220539932	-0.9390421719	 0.100936
H	 0.540905018	-0.447314975	 0.8106068312	 0.098976
H	-3.0238457333	 0.7341132331	-0.9599467269	 0.06363
H	-2.04259514	-1.7165274523	-2.5562403076	 0.114797
H	-3.5110274444	-0.7868339475	-2.8916974185	 0.127324
H	-1.9222341787	-0.0265053694	-3.0684955501	 0.115243
H	-1.6923706612	-2.867371105	-0.4837716573	 0.078153
H	-2.7954857593	-2.5230822098	 2.1287402547	 0.106381
H	-1.0875018685	-1.9345901458	 2.229048525	 0.096665
H	-2.9121496267	 0.3037025828	 1.6451998954	 0.076072
73.4435	161.2601	172.8846	199.7623	233.7517	237.1527	292.5262	396.2849	485.0502	534.442	611.9472	719.0953	737.0253	774.1552	851.6802	868.6858	885.8886	900.5408	914.5957	922.5427	983.7164	1015.2749	1023.1262	1060.7918	1073.5874	1082.9594	1113.4636	1129.4444	1141.2469	1163.6379	1193.483	1213.4074	1225.8091	1245.753	1279.9496	1308.315	1328.2102	1369.2175	1403.2342	1411.159	1421.9164	1477.2154	1491.4279	1493.552	1494.2989	1499.0645	1505.3459	3012.2465	3013.8773	3033.254	3034.8614	3044.6855	3056.6777	3087.9231	3097.7865	3100.354	3102.3107	3107.3111	3109.6017	3121.0076
CCC12C(C)N3C1CC23	CC[C@@]12[C@@H](C)N3[C@@H]1C[C@@H]23	
InChI=1S/C8H13N/c1-3-8-5(2)9-6(8)4-7(8)9/h5-7H,3-4H2,1-2H3	InChI=1S/C8H13N/c1-3-8-5(2)9-6(8)4-7(8)9/h5-7H,3-4H2,1-2H3/t5-,6-,7+,8-/m1/s1
