15
gdb 13319	5.74719	1.24448	1.08757	4.9396	61.7	-0.2719	0.0326	0.3045	1046.06	0.119485	-399.812439	-399.804843	-399.803898	-399.846203	26.126	
N	 0.0926161898	-1.1840966753	 0.2071780869	-0.301985
C	 0.0663425727	-0.0474703635	 0.0035174286	 0.261916
C	 0.0316650566	 1.3906437862	-0.2390763722	-0.358709
C	 1.3826352575	 2.066197295	 0.0389007369	 0.227048
O	 2.3774841453	 1.6247173056	-0.865364292	-0.264219
C	 2.9042714081	 2.7628249203	-1.5457727554	-0.089954
C	 2.4502335147	 3.9295528617	-0.6680856307	-0.103166
O	 1.2159628009	 3.4503119525	-0.1452111551	-0.257637
H	-0.2460708117	 1.5864733078	-1.2790694089	 0.158481
H	-0.7264554565	 1.8486780629	 0.4046943983	 0.163133
H	 1.7192441716	 1.8404075167	 1.064181645	 0.095283
H	 3.9908822942	 2.6642209178	-1.6157701935	 0.122059
H	 2.4846327083	 2.8318581909	-2.5580058295	 0.110432
H	 3.1673994724	 4.1275287911	 0.141375845	 0.110599
H	 2.256456286	 4.8542961904	-1.2145462831	 0.126718
22.5258	69.418	135.2934	233.5149	327.379	393.0599	420.7944	540.2258	661.6077	734.2712	834.0766	901.7112	953.5846	956.4134	1013.8131	1015.1226	1057.963	1075.7972	1148.0108	1171.9284	1219.9269	1231.987	1249.0883	1296.0251	1340.6008	1383.4004	1399.1055	1420.1802	1450.6588	1513.9704	1526.8397	2369.1358	2970.8828	3006.3261	3020.2049	3059.9013	3094.1453	3109.0649	3120.0467
N#CCC1OCCO1	N#CCC1OCCO1	
InChI=1S/C5H7NO2/c6-2-1-5-7-3-4-8-5/h5H,1,3-4H2	InChI=1S/C5H7NO2/c6-2-1-5-7-3-4-8-5/h5H,1,3-4H2
