22
gdb 109040	2.89298	1.27851	1.01976	1.3552	88.03	-0.2221	0.0202	0.2423	1265.763	0.195047	-367.205145	-367.19614	-367.195196	-367.238755	34.844	
C	 0.1083205217	 1.4038343912	 0.357592704	-0.375965
C	-0.0608014801	-0.0271516893	-0.1833835506	-0.291071
C	-1.476976223	-0.5219742528	-0.1428368897	 0.332298
C	-2.2074346711	-0.9166880332	-1.1925893083	-0.182573
C	-3.5419798166	-1.4227298021	-0.767202859	-0.081009
N	-3.4378804864	-2.6248065626	 0.1166975096	-0.335963
C	-3.5820594238	-1.2757717272	 0.7093219884	-0.05522
C	-2.2623921201	-0.6515272527	 1.1672313581	-0.080731
C	-1.548884443	-1.4646102206	 2.257617332	-0.397133
H	 1.1531670767	 1.7223591285	 0.2918635361	 0.112591
H	-0.4994042304	 2.1120845303	-0.2144772425	 0.119101
H	-0.1948313333	 1.4764415071	 1.4070179345	 0.119893
H	 0.3044840455	-0.0739289774	-1.2153532414	 0.100535
H	 0.5816991768	-0.7017092924	 0.3992547437	 0.108849
H	-1.8678939412	-0.9183686052	-2.2224581253	 0.086692
H	-4.4191445036	-1.3176446672	-1.3969540713	 0.083658
H	-4.3494467831	-3.079508559	 0.1522419398	 0.22319
H	-4.497223413	-1.0411672105	 1.2431542819	 0.080188
H	-2.4685563626	 0.3526448632	 1.5661903892	 0.075759
H	-1.3823024974	-2.4881530427	 1.9125720136	 0.139609
H	-0.5836178017	-1.022383027	 2.5236184888	 0.109706
H	-2.1555382803	-1.5047300684	 3.1683747682	 0.107595
72.6314	120.1826	186.7645	200.6193	230.1191	265.7061	275.5582	389.7254	465.6844	526.208	552.3607	651.8162	694.9165	773.6947	798.9386	809.3452	844.2715	862.9475	897.2316	920.4696	958.1856	980.069	1032.843	1055.0558	1072.8487	1077.4581	1107.8549	1119.9731	1130.5408	1168.2717	1191.4951	1257.9724	1271.6961	1296.5808	1321.0753	1345.7656	1354.0611	1376.8588	1396.6028	1406.6501	1417.0103	1475.0287	1496.5394	1498.2973	1503.0826	1508.0264	1694.784	2993.1537	3013.0001	3036.2707	3036.753	3059.885	3098.2963	3106.5799	3108.2257	3125.3088	3156.5856	3167.4523	3191.6866	3468.6886
CCC1=CC2NC2C1C	CCC1=C[C@H]2N[C@H]2[C@H]1C	
InChI=1S/C8H13N/c1-3-6-4-7-8(9-7)5(6)2/h4-5,7-9H,3H2,1-2H3	InChI=1S/C8H13N/c1-3-6-4-7-8(9-7)5(6)2/h4-5,7-9H,3H2,1-2H3/t5-,7+,8-/m0/s1
