21
gdb 80565	2.27735	1.4769	1.25782	0.8964	77.84	-0.2435	0.07	0.3135	1125.0098	0.182444	-424.220916	-424.211791	-424.210847	-424.254123	35.69	
C	 0.1918316157	 1.6786144012	 0.1213651691	-0.444078
C	 0.1620496254	 0.1651086401	 0.124949486	-0.069197
C	 1.30848798	-0.7479514505	-0.300951117	-0.105154
C	 2.7339714199	-0.218715838	-0.3528869452	-0.261638
C	 3.1069465984	 0.2537184127	 1.0859806607	 0.103491
O	 3.2322720804	 1.6713018341	 1.2075800897	-0.415596
C	 1.961672927	-0.2139709811	 2.013736501	-0.293968
C	 0.8340812273	-0.740670777	 1.1291564517	 0.370119
O	 0.1238397627	-1.848035096	 1.6127977585	-0.470309
H	 1.1505389715	 2.0788719383	 0.4550894097	 0.150809
H	-0.0049050447	 2.0623570994	-0.8866947072	 0.108986
H	-0.5880969026	 2.0804839977	 0.7788818444	 0.107165
H	-0.7953657357	-0.249859991	-0.1855948727	 0.082413
H	 1.049260607	-1.5821289602	-0.9436982507	 0.087639
H	 3.4066579184	-1.0217661247	-0.6729257675	 0.101712
H	 2.8644258132	 0.6071299589	-1.0629495059	 0.094404
H	 4.0559578163	-0.2052873522	 1.3948050757	 0.075143
H	 3.9187315762	 1.9597558558	 0.5974117792	 0.280673
H	 2.289152552	-1.0454797343	 2.6446964948	 0.108512
H	 1.669190334	 0.6087756898	 2.6741406085	 0.109902
H	-0.5634547623	-1.5232715128	 2.2042329674	 0.278974
105.52	150.6865	194.7065	225.932	234.8285	295.2931	317.6532	345.8908	418.9547	433.8236	465.3047	520.3583	587.9657	672.5446	692.8897	800.4889	817.9421	880.7648	912.2919	955.4108	975.0012	1009.7325	1030.7805	1045.6395	1085.6295	1113.906	1121.1418	1134.0702	1188.018	1216.9058	1242.2852	1250.1913	1273.1299	1299.592	1316.169	1339.3733	1349.9521	1371.0267	1421.4056	1427.7424	1458.541	1477.0788	1492.129	1510.5111	1515.2305	2996.2189	3024.783	3030.1455	3052.4111	3070.2007	3075.7114	3096.634	3117.7476	3141.4752	3169.5701	3799.2748	3815.0354
CC1C2CC(O)CC12O	C[C@H]1[C@H]2C[C@@H](O)C[C@@]12O	
InChI=1S/C7H12O2/c1-4-6-2-5(8)3-7(4,6)9/h4-6,8-9H,2-3H2,1H3	InChI=1S/C7H12O2/c1-4-6-2-5(8)3-7(4,6)9/h4-6,8-9H,2-3H2,1H3/t4-,5+,6+,7+/m0/s1
