16
gdb 14577	4.85444	0.82859	0.73866	3.9663	71.07	-0.2512	0.0314	0.2826	1455.7915	0.1296	-342.75159	-342.74265	-342.741706	-342.78619	30.985	
C	 0.0677684108	-0.1963139113	 1.3230352849	-0.459171
C	 0.0803247979	 0.4251692899	 0.29351263	 0.304905
C	 0.1555207961	 1.2000267466	-0.951914114	-0.315377
N	 1.3338316086	 2.0624889722	-1.0826985413	-0.281677
C	 1.4235030625	 3.0995194138	-0.0608931151	-0.129125
C	 2.6123298321	 4.022791991	-0.3816023668	-0.343494
C	 2.7423072355	 5.1147883891	 0.5789683658	 0.256618
N	 2.8300894628	 5.9743184104	 1.3461214385	-0.302731
H	 0.0415739006	-0.749203338	 2.2296225051	 0.204014
H	 0.1410921324	 0.5160527611	-1.8082174406	 0.140051
H	-0.7379297929	 1.829688548	-1.0465691596	 0.142141
H	 2.1654463373	 1.4792472209	-1.042783601	 0.224212
H	 0.4980876969	 3.6856836598	-0.0879078481	 0.127638
H	 1.5239345324	 2.707407004	 0.9629539522	 0.120236
H	 3.546767298	 3.4481854439	-0.3820158876	 0.148884
H	 2.4927622089	 4.4353039087	-1.3886140324	 0.162875
55.7527	68.8852	105.0608	149.2284	213.519	291.3413	340.0585	370.0422	401.1282	536.9341	599.4821	629.2346	667.806	781.7848	792.632	926.481	931.8634	950.2956	1021.0251	1063.8072	1121.7537	1142.3512	1209.0534	1273.951	1314.6344	1327.4793	1360.3728	1405.3889	1464.0467	1469.4523	1503.5399	1518.2566	2227.5211	2364.9819	2989.2832	3031.0875	3040.5052	3064.5841	3066.8017	3092.4877	3500.7522	3503.3541
C#CCNCCC#N	C#CCNCCC#N	
InChI=1S/C6H8N2/c1-2-5-8-6-3-4-7/h1,8H,3,5-6H2	InChI=1S/C6H8N2/c1-2-5-8-6-3-4-7/h1,8H,3,5-6H2
