16
gdb 34376	2.6615	1.64503	1.28888	3.7794	73.24	-0.2649	-0.0118	0.2531	995.0341	0.125962	-400.751926	-400.744629	-400.743684	-400.783886	27.818	
N	-0.1122563314	-1.1372890965	-0.3182407169	-0.344146
C	-0.0638940371	 0.0035527719	-0.1352398992	 0.223205
C	-0.0105056593	 1.4332086467	 0.0983418012	 0.098729
C	-0.2376037221	 2.3131223672	-1.1678538364	-0.108078
O	 1.1183405423	 2.7904830502	-1.1599376001	-0.284563
C	 1.4027604353	 2.1120697414	 0.0877814614	 0.061599
C	 1.3771677409	 3.0104657576	 1.2902477942	-0.083436
C	 0.2383603415	 2.9035308279	 1.9739976058	-0.065022
C	-0.7182941182	 1.8844737738	 1.4017156798	-0.337858
H	-0.4734947448	 1.7659358126	-2.0853639529	 0.129596
H	-0.9681920759	 3.1172546553	-1.0166022734	 0.111667
H	 2.2918304824	 1.4811265964	-0.0035925064	 0.105304
H	 2.1996092626	 3.673471661	 1.5303636785	 0.115361
H	-0.0065712686	 3.4693639438	 2.8663082502	 0.113996
H	-1.7097703143	 2.3054373499	 1.1960159601	 0.125432
H	-0.8734314633	 1.0433262909	 2.0868938142	 0.138214
89.0943	157.8187	191.3619	258.231	359.8895	451.1449	531.4358	548.7959	564.7489	666.2541	745.0288	784.4476	875.1443	926.6591	933.2077	960.4515	972.032	978.9142	1012.2361	1027.8858	1047.4221	1112.2951	1145.359	1153.1899	1187.1166	1234.4272	1271.1178	1305.8583	1339.6923	1362.5336	1367.2266	1484.9568	1518.5782	1680.2229	2353.4029	3024.0251	3035.0797	3067.0838	3070.0472	3088.4303	3190.5696	3217.5067
N#CC12COC1C=CC2	N#C[C@]12CO[C@H]1C=CC2	
InChI=1S/C7H7NO/c8-4-7-3-1-2-6(7)9-5-7/h1-2,6H,3,5H2	InChI=1S/C7H7NO/c8-4-7-3-1-2-6(7)9-5-7/h1-2,6H,3,5H2/t6-,7+/m0/s1
