16
gdb 45116	2.88614	1.63273	1.13128	4.6879	70.83	-0.2492	-0.0603	0.1889	1041.0566	0.125144	-437.890387	-437.882965	-437.88202	-437.922613	28.544	
N	-0.0436257352	 1.1492361625	-0.7041369587	-0.469784
C	-0.0414836715	 0.072072893	-0.0460576449	 0.296633
O	 0.9863549558	-0.2849192806	 0.7902050193	-0.248289
C	 1.1864976732	-1.6671234835	 1.0118580215	 0.089784
C	 0.9591876465	-2.1731504352	 2.4020324208	-0.310558
C	-0.0374770632	-2.4902328984	 1.3061017893	-0.063645
C	-1.3552327264	-1.7315455487	 1.1990662963	-0.33814
C	-1.2820523042	-0.8220416594	-0.0183236348	 0.329902
O	-2.1144428684	-0.7776325394	-0.8849252748	-0.273063
H	 0.8405939341	 1.6459482824	-0.566758955	 0.231389
H	 1.9947004693	-2.0711788358	 0.4099984362	 0.112918
H	 1.5989914781	-2.9692309673	 2.7652258996	 0.12664
H	 0.6671940353	-1.4406999187	 3.1470126382	 0.131876
H	-0.0485689711	-3.5017971952	 0.9154623177	 0.113189
H	-2.2136778244	-2.3966606109	 1.09416278	 0.136552
H	-1.5195346879	-1.1070285747	 2.0858019093	 0.134597
75.1589	111.8948	276.7071	314.1075	352.2538	438.0761	457.0555	485.5237	568.1516	634.916	704.2767	753.8399	821.5536	847.0006	879.6992	908.9478	933.4198	1010.9372	1035.1618	1042.7103	1062.5362	1099.0657	1127.5808	1152.5241	1177.1743	1228.2483	1242.4754	1286.1704	1318.7436	1366.214	1401.5053	1459.2981	1480.2288	1733.8862	1835.6232	3038.3993	3124.2556	3137.4893	3152.6233	3172.1021	3229.5422	3454.704
N=C1OC2CC2CC1=O	[NH][C]1O[C@H]2C[C@H]2CC1=O	
InChI=1S/C6H7NO2/c7-6-4(8)1-3-2-5(3)9-6/h3,5,7H,1-2H2	InChI=1S/C6H7NO2/c7-6-4(8)1-3-2-5(3)9-6/h3,5,7H,1-2H2/t3-,5+/m1/s1
