16
gdb 20939	7.41463	1.1341	1.00022	4.3172	67.21	-0.2134	0.0374	0.2509	1150.4869	0.133114	-376.128247	-376.120492	-376.119548	-376.16092	27.649	
C	 0.0136479624	 1.5110945167	 0.0169739606	-0.400489
C	-0.1122731774	-0.0009333956	-0.1345980623	-0.13136
N	 0.8688515635	-0.5013903061	-1.0872552204	-0.390786
C	 0.9121928888	-1.8281554814	-1.4240138702	 0.485835
N	 1.4689745239	-2.3258871124	-2.5181023143	-0.360822
C	 1.2967957415	-3.6688091493	-2.3520950387	 0.036343
N	 0.6758567365	-4.0436197397	-1.2530502969	-0.231153
N	 0.4257719629	-2.8320419637	-0.6571917776	-0.268178
H	 1.019397573	 1.7859568656	 0.3468883506	 0.137805
H	-0.1862439752	 2.0173678132	-0.9338372595	 0.127006
H	-0.7071974569	 1.8825159264	 0.7496719253	 0.130019
H	 0.0735660217	-0.4770054702	 0.8374110601	 0.111092
H	-1.1403497128	-0.2664015306	-0.4306648692	 0.107507
H	 1.0509856621	 0.0932514712	-1.8831444683	 0.255057
H	 1.6428521662	-4.3919382032	-3.0760880876	 0.119398
H	-0.03989075	-2.799497781	 0.2323600285	 0.272724
66.7155	90.6482	142.7945	258.2243	310.9247	342.8651	433.85	445.6791	549.6128	677.5225	757.9524	776.8997	823.6848	913.0864	937.1584	977.089	1044.3904	1075.2652	1096.9552	1157.997	1177.7266	1232.2849	1298.0195	1300.8546	1325.7299	1342.1706	1408.2553	1424.7126	1487.3953	1497.3001	1502.8762	1528.4035	1558.1442	1642.8097	2969.4028	3024.1725	3041.6127	3110.4493	3128.6413	3254.8881	3606.5179	3688.5692
CCNC1=NC=NN1	CCNc1ncn[nH]1	
InChI=1S/C4H8N4/c1-2-5-4-6-3-7-8-4/h3H,2H2,1H3,(H2,5,6,7,8)	InChI=1S/C4H8N4/c1-2-5-4-6-3-7-8-4/h3H,2H2,1H3,(H2,5,6,7,8)
