16
gdb 11049	3.53769	2.40701	2.02176	1.4108	67.31	-0.2241	-0.0056	0.2185	728.9019	0.131754	-346.585641	-346.579352	-346.578407	-346.615464	26.435	
O	-0.0587909614	 1.4015109185	 0.0116913794	-0.507509
C	 0.0256238796	 0.0014627963	-0.0018393187	 0.353092
C	-1.345594438	-0.7259741802	-0.0174296192	-0.217303
C	-0.6579701973	-2.128963195	-0.0273393436	-0.125398
C	 0.2386644829	-1.93031176	-1.267888139	-0.075066
C	 0.6506827377	-0.6646320559	-1.2512038327	-0.141207
C	 0.2238937705	-1.9553590713	 1.2275390631	-0.075114
C	 0.6353365429	-0.6894683386	 1.2416312633	-0.141061
H	 0.8338830155	 1.7612018632	 0.01763483	 0.277806
H	-1.9350676799	-0.5341341303	 0.8823728963	 0.09965
H	-1.9241385823	-0.5160207193	-0.920276391	 0.099627
H	-1.3016019537	-3.0074794018	-0.0399810951	 0.063103
H	 0.4993795074	-2.7136637573	-1.9670929623	 0.099967
H	 1.3231297932	-0.1560022741	-1.9302158492	 0.09471
H	 0.4763331727	-2.7526479153	 1.9139093059	 0.099963
H	 1.2990704503	-0.1943855889	 1.9389616827	 0.094742
171.7053	329.0567	332.2268	437.5933	462.5265	520.6216	550.1246	633.5227	674.2753	712.9443	754.8363	789.2719	805.5251	899.224	903.8574	913.3033	918.2563	941.1863	957.4788	1025.1158	1068.9827	1071.7146	1082.0765	1151.1963	1189.8519	1241.6126	1255.9497	1271.7978	1290.2985	1336.3974	1366.5966	1496.5755	1618.3438	1663.2412	3063.347	3123.2794	3128.1397	3201.4883	3202.7852	3228.3037	3230.8926	3817.7849
OC12CC(C=C1)C=C2	O[C@@]12C[C@@H](C=C1)C=C2	
InChI=1S/C7H8O/c8-7-3-1-6(5-7)2-4-7/h1-4,6,8H,5H2	InChI=1S/C7H8O/c8-7-3-1-6(5-7)2-4-7/h1-4,6,8H,5H2/t6-,7-
