19
gdb 70662	2.31694	1.63843	1.23799	3.8612	75.59	-0.2433	-0.0214	0.2219	1080.3186	0.158452	-423.027664	-423.019148	-423.018204	-423.060908	31.933	
C	-0.2243082126	 1.3378915729	-0.1159019382	-0.493839
C	 0.0240589978	-0.1428281835	 0.0279120847	 0.308249
C	-0.7378724595	-0.9931732222	 1.0184404959	-0.334669
C	 0.7421633107	-0.7688379257	 1.2025501143	-0.099625
C	 1.6559491807	-1.8312922285	 0.6276664083	-0.095616
O	 1.1553628577	-2.0991240254	-0.681552659	-0.252227
C	 0.5341466532	-0.9396089877	-1.1873469698	-0.025016
C	-0.6001629864	-1.3133142941	-2.1250528838	 0.151665
O	-1.0748133395	-2.4102375827	-2.2415703506	-0.239728
H	 0.6579391703	 1.8536514091	-0.5128525233	 0.121283
H	-1.0632140736	 1.5467936517	-0.789380264	 0.12612
H	-0.4660649752	 1.7861956395	 0.852430247	 0.124579
H	-1.4094491013	-0.4773683909	 1.6960445721	 0.112651
H	-1.0735462659	-1.9756548677	 0.7009486019	 0.141374
H	 1.0987913228	-0.157467396	 2.0238563502	 0.092273
H	 2.6930891414	-1.4622274408	 0.5866919363	 0.094909
H	 1.6486043766	-2.7804886157	 1.1732449917	 0.116502
H	 1.2427607187	-0.3036947109	-1.7520967211	 0.077058
H	-0.9939895461	-0.4414710211	-2.6991824727	 0.074058
75.3372	116.216	202.4478	218.7376	234.4423	282.7091	306.9174	404.9196	428.8321	554.6885	676.8108	722.1899	736.7665	824.628	847.5018	897.479	934.3888	961.6399	981.979	1005.5621	1033.6445	1068.6516	1081.7631	1095.6122	1113.1096	1130.8366	1148.2853	1234.8432	1246.0082	1285.4392	1306.063	1354.8477	1374.5123	1408.0057	1421.9302	1432.0708	1484.7212	1490.3509	1503.067	1518.7539	1844.4099	2850.8485	2922.6126	2979.7763	3025.6361	3071.6595	3084.0338	3103.9475	3128.2398	3176.6056	3217.8478
CC12CC1COC2C=O	C[C@]12C[C@H]1CO[C@H]2C=O	
InChI=1S/C7H10O2/c1-7-2-5(7)4-9-6(7)3-8/h3,5-6H,2,4H2,1H3	InChI=1S/C7H10O2/c1-7-2-5(7)4-9-6(7)3-8/h3,5-6H,2,4H2,1H3/t5-,6-,7-/m0/s1
