20
gdb 63762	2.93731	1.37815	1.14335	1.5086	85.09	-0.2294	0.0296	0.259	1146.8499	0.169168	-365.935168	-365.926165	-365.92522	-365.968085	35.373	
C	-0.2583165959	 1.5718935934	-0.028357013	-0.464522
C	-0.0366713506	 0.0613729469	-0.0004090669	 0.307383
C	-1.3635484008	-0.6799825873	-0.1999460597	-0.432876
C	 1.087396252	-0.5580345795	-0.8873927608	-0.222496
N	 1.6797302638	-1.3103131027	 0.2822325114	-0.150474
C	 2.1893920852	-0.282109696	 1.2331201299	-0.213893
C	 2.8653389271	 0.9160875102	 0.8209394962	 0.345502
C	 3.5032949649	 1.8868846434	 0.5061229146	-0.443627
C	 0.7265036902	-0.5526815202	 1.1833362752	-0.071925
H	 0.672228323	 2.1250328681	 0.1066582979	 0.135451
H	-0.6989349433	 1.8739310135	-0.9856950762	 0.110781
H	-0.954167156	 1.8746871435	 0.7625823226	 0.111987
H	-1.8037328526	-0.4249167353	-1.1702087796	 0.114976
H	-1.2253248412	-1.7652849237	-0.164234492	 0.1249
H	-2.0860037457	-0.4050856171	 0.5770940873	 0.113058
H	 0.7284748964	-1.2653938952	-1.6374319756	 0.108042
H	 1.787719153	 0.1415533738	-1.3512840422	 0.115459
H	 2.6843323974	-0.7756709364	 2.0679615166	 0.121002
H	 4.0520099937	 2.7526522808	 0.2280386102	 0.200595
H	 0.2447719294	-1.0379715102	 2.0298039741	 0.090679
128.086	135.3357	200.698	217.6194	257.2137	280.948	341.7203	370.6853	400.8439	431.8354	559.419	600.0181	618.1979	637.3451	660.9405	741.8672	779.2168	853.2217	892.8395	915.6197	949.53	967.4302	983.1315	1001.359	1043.8076	1067.6909	1090.3979	1168.9539	1221.2705	1227.9994	1242.4201	1265.439	1290.9734	1363.7853	1399.6514	1401.9677	1422.7776	1485.5996	1488.2628	1497.0657	1503.4057	1513.6764	2228.2006	3023.8473	3029.9131	3062.4506	3084.8404	3092.7615	3102.1854	3119.5999	3120.2852	3132.3167	3138.1175	3501.3301
CC1(C)CN2C(C#C)C12	CC1(C)CN2[C@@H](C#C)[C@@H]12	
InChI=1S/C8H11N/c1-4-6-7-8(2,3)5-9(6)7/h1,6-7H,5H2,2-3H3	InChI=1S/C8H11N/c1-4-6-7-8(2,3)5-9(6)7/h1,6-7H,5H2,2-3H3/t6-,7-,9?/m0/s1
