18
gdb 44883	3.03037	1.54438	1.38585	2.1437	75.89	-0.2171	-0.0113	0.2058	995.5117	0.149004	-401.909875	-401.902749	-401.901805	-401.941224	29.073	
O	 0.0267954202	 0.0570110707	-0.0261604883	-0.330628
C	 0.0353565326	 1.2564198254	 0.0017097153	 0.428721
C	-1.1510792759	 2.2516539251	 0.0774696841	-0.28968
N	-0.4285305547	 3.5594136672	 0.0966990598	-0.166483
C	 0.6111270702	 3.3020067669	-0.9838075756	-0.190551
C	 1.2067666024	 2.2365890819	-0.0128249672	-0.234233
C	 0.6830800846	 3.223141205	 1.0490063744	 0.424789
C	 1.4172329429	 4.2595271405	 1.8242880867	-0.364733
C	 0.5884861163	 3.1933456873	 2.5330585768	-0.369707
H	-1.8147483711	 2.1778765257	-0.7885185014	 0.129444
H	-1.7404304086	 2.1116958917	 0.9869186524	 0.132112
H	 0.205938349	 2.9726794265	-1.9444700186	 0.112334
H	 1.2494808746	 4.1771018471	-1.1105578955	 0.124279
H	 2.2154200383	 1.8306831327	-0.0557975946	 0.087379
H	 2.4982097647	 4.1948729751	 1.88921501	 0.120725
H	 1.0183069782	 5.2680253626	 1.8046081188	 0.131222
H	-0.3467262795	 3.5081575703	 2.9842532585	 0.12816
H	 1.1100076556	 2.4091373585	 3.0717798544	 0.126849
114.6028	215.3591	238.14	292.3876	428.8218	448.0514	539.162	553.876	628.666	644.881	764.5246	768.2718	804.5947	846.4919	855.8922	909.117	936.4272	973.1686	993.6922	1009.7144	1015.5678	1038.5509	1051.7515	1083.0074	1143.2213	1150.652	1163.0193	1185.3244	1193.6121	1209.7248	1230.2757	1256.4844	1295.956	1382.4311	1452.1224	1463.5351	1498.4765	1516.9666	1876.6671	3063.2001	3068.2102	3119.725	3130.3478	3132.6822	3136.546	3143.1266	3212.2772	3225.6946
O=C1CN2CC1C21CC1	O=C1CN2C[C@H]1C12CC1	
InChI=1S/C7H9NO/c9-6-4-8-3-5(6)7(8)1-2-7/h5H,1-4H2	InChI=1S/C7H9NO/c9-6-4-8-3-5(6)7(8)1-2-7/h5H,1-4H2/t5-/m1/s1
