21
gdb 121172	2.46926	1.05673	0.79008	1.7137	83.41	-0.2237	0.027	0.2507	1519.9891	0.180986	-420.386987	-420.376573	-420.375629	-420.423681	36.223	
C	-0.2073100349	 1.3923372925	 0.0310666713	-0.386399
C	-0.2157343975	-0.117931652	 0.1850223826	-0.047497
O	 0.8679746898	-0.4817201523	 1.0385061794	-0.255124
C	 0.9592125426	-1.8559593386	 1.2621542361	 0.015666
C	 2.0790534556	-2.2301489509	 2.2728971658	-0.194201
N	 1.0592868268	-2.9603325196	 3.049432613	-0.352279
C	-0.0073022616	-2.4670288059	 2.293437161	 0.401919
N	-1.2655244012	-2.4745702563	 2.3923867655	-0.324504
C	-1.8373290362	-3.0953455217	 3.5803175006	-0.339341
H	 0.741946355	 1.7337438774	-0.3923147272	 0.121894
H	-1.017755479	 1.7090708565	-0.6321721047	 0.115582
H	-0.3445583874	 1.8781375182	 1.0013401306	 0.126159
H	-1.1605841004	-0.4707835933	 0.61635375	 0.131125
H	-0.0916398129	-0.6104067367	-0.7940839337	 0.083342
H	 0.996837917	-2.4176561558	 0.3168221089	 0.084169
H	 2.8964617114	-2.8558621797	 1.904859522	 0.110231
H	 2.4760394802	-1.3371924847	 2.7653727117	 0.121121
H	 1.0694393807	-3.0878583078	 4.0507313688	 0.244679
H	-1.8010452775	-2.4145032874	 4.443156126	 0.114553
H	-2.8892745558	-3.330220449	 3.3969326131	 0.124291
H	-1.3271183845	-4.027427233	 3.8676156192	 0.104614
43.1335	62.4879	97.2672	112.7596	163.8342	192.2875	221.9418	249.2898	308.3777	381.517	410.3086	486.5734	538.2448	724.6449	756.3722	822.4233	835.8463	918.4066	937.3707	999.7645	1041.8867	1064.8064	1074.2187	1110.1055	1144.1615	1151.9762	1169.9827	1183.0931	1189.7591	1202.8463	1242.7255	1300.0775	1302.7681	1349.2329	1378.5549	1402.4493	1435.7527	1443.7327	1483.4431	1489.9886	1501.7199	1505.662	1516.2773	1531.5766	1808.623	2966.5874	2978.4184	2994.7869	3030.3569	3043.3345	3048.8277	3051.6989	3095.3871	3103.7437	3118.0965	3119.8658	3604.3044
CCOC1CNC1=NC	CCO[C@H]1CNC1=NC	
InChI=1S/C6H12N2O/c1-3-9-5-4-8-6(5)7-2/h5H,3-4H2,1-2H3,(H,7,8)	InChI=1S/C6H12N2O/c1-3-9-5-4-8-6(5)7-2/h5H,3-4H2,1-2H3,(H,7,8)/t5-/m0/s1
