17
gdb 19059	3.55022	2.30428	2.11779	1.2913	66.35	-0.212	0.0732	0.2852	733.0077	0.144939	-363.811306	-363.805119	-363.804175	-363.841212	25.531	
O	-0.0334959953	 1.4676727438	-0.0251454121	-0.429675
C	 0.016713335	 0.0420527365	 0.0103284914	 0.072759
C	 0.645527368	-0.5427670697	 1.3133241205	-0.196273
N	-0.471087356	-0.9459995615	 2.187032081	-0.125679
C	-1.3633926458	 0.2533883391	 2.4440618131	-0.177267
C	-2.2566122789	-0.1693412354	 1.2894102312	-0.078499
C	-1.3924569627	-0.5217957707	 0.0784061627	-0.039288
C	-1.5007349326	-1.4721723097	 1.235619091	-0.047135
H	 0.8665207709	 1.7911148611	-0.132971273	 0.28111
H	 0.5386344133	-0.3316172535	-0.8832855854	 0.061609
H	 1.2373809917	-1.4353499702	 1.079077864	 0.099886
H	 1.2946387918	 0.179684028	 1.8187310754	 0.096417
H	-1.8483989689	 0.1493662817	 3.4191235188	 0.102698
H	-0.8647894708	 1.2233120417	 2.3730185605	 0.113209
H	-3.3194960776	 0.009751506	 1.1817935385	 0.087981
H	-1.9358984906	-0.7315550684	-0.8353532498	 0.088221
H	-1.8032722515	-2.5114479588	 1.2153615221	 0.089925
172.6862	276.4927	299.7473	410.7682	427.3127	524.3072	675.6286	697.9574	769.614	802.5135	815.4638	842.7618	886.9927	915.8987	959.6414	985.1149	995.9513	1020.3911	1032.5976	1057.2641	1073.1112	1091.5018	1124.8042	1136.5203	1202.2462	1223.2869	1231.0422	1257.7986	1297.4733	1311.5266	1315.3391	1348.8462	1393.243	1426.4532	1475.4807	1506.1163	2981.5278	3033.8192	3048.0623	3087.5133	3107.2768	3179.9083	3183.7241	3198.3604	3816.6835
OC1CN2CC3C1C23	O[C@H]1CN2C[C@H]3[C@@H]1[C@@H]23	
InChI=1S/C6H9NO/c8-4-2-7-1-3-5(4)6(3)7/h3-6,8H,1-2H2	InChI=1S/C6H9NO/c8-4-2-7-1-3-5(4)6(3)7/h3-6,8H,1-2H2/t3-,4-,5-,6-/m0/s1
