18
gdb 30784	3.3359	1.25397	0.92631	2.0007	76.49	-0.1837	0.0382	0.2219	1259.5802	0.14811	-435.288727	-435.279017	-435.278073	-435.32397	33.654	
C	 0.0537395636	 1.3962513701	 0.0158966475	-0.232802
O	 0.0047826522	-0.0246960408	-0.0034304306	-0.281901
C	 0.6023112839	-0.6148808	-1.0633394299	 0.342538
C	 0.6924576591	-1.9787148882	-1.2414744819	 0.092496
N	 0.2988465527	-3.1000961968	-0.4863626719	-0.61964
N	 1.3982406106	-2.1199248726	-2.4349957067	-0.003602
C	 1.7266521466	-3.375332888	-3.0763093488	-0.33132
C	 1.6661042561	-0.8719778972	-2.8860383661	-0.014015
N	 1.2046202128	 0.0666418967	-2.0749291279	-0.369783
H	 1.0869131722	 1.7594598837	 0.0333150017	 0.127466
H	-0.4450174568	 1.8240970949	-0.8602205488	 0.128456
H	-0.46485773	 1.7012420136	 0.9268112934	 0.118291
H	-0.7029676867	-3.2634602566	-0.5315349526	 0.243894
H	 0.5343547151	-2.9778757032	 0.4927998645	 0.249137
H	 0.8777337718	-3.7711739808	-3.6446678449	 0.135623
H	 2.5663367278	-3.2206826612	-3.7569117105	 0.136318
H	 2.0010411576	-4.1083424697	-2.3158255341	 0.156831
H	 2.1953089611	-0.6966074841	-3.8108410225	 0.122014
60.879	64.7543	133.1641	152.9633	179.0987	199.5314	262.1886	274.1464	352.216	358.9719	549.7406	625.0985	640.1885	727.7669	759.4853	769.5793	770.8636	823.2822	1013.1545	1080.806	1132.0091	1153.3945	1181.4699	1199.5605	1219.5539	1238.2684	1280.2449	1345.8714	1408.8943	1440.0271	1447.9887	1478.9126	1480.1348	1489.0503	1504.945	1523.8068	1538.2924	1644.1062	1669.9375	3027.5478	3038.2042	3091.3422	3109.6126	3132.893	3147.5965	3244.4902	3488.4861	3558.1568
COC1=C(N)N(C)C=N1	COc1c(N)n(C)cn1	
InChI=1S/C5H9N3O/c1-8-3-7-5(9-2)4(8)6/h3H,6H2,1-2H3	InChI=1S/C5H9N3O/c1-8-3-7-5(9-2)4(8)6/h3H,6H2,1-2H3
