20
gdb 115099	2.61685	1.28693	1.00731	3.524	75.13	-0.2403	0.0337	0.274	1223.6404	0.171595	-440.294846	-440.285762	-440.284818	-440.328687	33.735	
C	-0.1830330222	 1.5801750628	-0.068312606	-0.405183
C	 0.0214891494	 0.0675795712	 0.0168226559	 0.103722
O	 0.7319458771	-0.3735227732	-1.1607516617	-0.239816
C	 2.0860065864	-0.4126593101	-1.0806984484	 0.122444
N	 2.8442044307	-0.2426307605	-0.084490375	-0.272132
C	 2.2225636257	-0.0040776361	 1.2137835751	-0.16247
C	 0.7512369766	-0.4372585421	 1.2702535955	-0.016347
C	 0.0616540718	-0.0274850627	 2.5670603124	-0.103727
O	 0.6851914699	-0.7440330811	 3.6225867436	-0.420552
H	 0.7622198807	 2.1219004122	 0.0281873266	 0.134393
H	-0.6239736505	 1.8355181644	-1.0353645564	 0.130892
H	-0.8617987541	 1.9260615714	 0.7172367618	 0.121084
H	-0.9536119594	-0.4256239667	-0.0597170727	 0.091879
H	 2.4997385368	-0.6363176385	-2.0628162124	 0.120006
H	 2.7947705113	-0.5403817888	 1.9753678632	 0.128645
H	 2.3205797623	 1.063264226	 1.4605226439	 0.10307
H	 0.7241007416	-1.5337784312	 1.2305482631	 0.099538
H	 0.1549099972	 1.0592718973	 2.7194086801	 0.089897
H	-1.0152457786	-0.2605791259	 2.5095939919	 0.085238
H	 0.3136675874	-0.4410374883	 4.4560155995	 0.289419
98.2133	109.424	136.5913	202.3966	233.0415	256.1458	295.2381	350.8342	424.4044	463.0382	487.1786	545.5827	610.3611	774.4021	847.7897	886.3241	906.115	965.9645	982.4324	993.1932	1032.9395	1047.2586	1097.1153	1106.2802	1145.4168	1165.9537	1178.6076	1231.6623	1253.0406	1270.3316	1324.545	1343.0696	1359.6439	1382.5529	1403.996	1412.0332	1414.3689	1458.9007	1486.8655	1489.5268	1504.3948	1521.0804	1735.6836	2953.1655	2988.5845	3002.6225	3032.6251	3045.4998	3048.6622	3086.6194	3118.1143	3124.8849	3153.6878	3833.2875
CC1OC=NCC1CO	C[C@H]1OC=NC[C@H]1CO	
InChI=1S/C6H11NO2/c1-5-6(3-8)2-7-4-9-5/h4-6,8H,2-3H2,1H3	InChI=1S/C6H11NO2/c1-5-6(3-8)2-7-4-9-5/h4-6,8H,2-3H2,1H3/t5-,6+/m1/s1
