19
gdb 5824	2.71901	1.684	1.37604	3.2494	71.1	-0.2954	0.012	0.3074	996.4193	0.162638	-365.083557	-365.073895	-365.072951	-365.117109	35.599	
C	-0.017212346	 1.5434434493	 0.0092147038	-0.416153
C	-0.0018545501	 0.005626168	 0.0510976848	 0.236209
C	 0.7166472771	-0.4801887589	 1.3220642606	-0.436075
C	-1.4419346349	-0.5338868501	 0.0208189932	-0.423237
C	 0.7545103471	-0.4915246504	-1.2192830244	-0.006627
O	 2.0795619341	-0.0025650473	-1.3274743783	-0.420799
C	 0.7463749523	-1.9670429331	-1.3228622534	 0.261716
N	 0.771954335	-3.121280595	-1.3799492153	-0.33249
H	 0.9969539438	 1.9460418041	-0.0448698692	 0.1307
H	-0.572881096	 1.9099415665	-0.8610129578	 0.113034
H	-0.5014291658	 1.9416068226	 0.9061986844	 0.114744
H	 0.1773516221	-0.1423652562	 2.2120844724	 0.12474
H	 0.7731418665	-1.5729216923	 1.3608863706	 0.136749
H	 1.7329234338	-0.0767207639	 1.3918632817	 0.109922
H	-1.9633388508	-0.2247235807	-0.8920028204	 0.11626
H	-1.4678689246	-1.6262571817	 0.0727374664	 0.140106
H	-2.0069149034	-0.1434323048	 0.8729110042	 0.120071
H	 0.2327026604	-0.0987551518	-2.09973737	 0.133959
H	 2.6186277893	-0.4345432244	-0.6556900134	 0.297171
74.7717	149.6925	203.6814	224.0683	253.3795	259.8636	268.1163	313.2701	321.9733	348.1914	384.9326	403.9877	474.7414	567.9991	616.4066	761.4135	857.7089	938.3931	941.5637	961.9989	965.6261	1039.0262	1045.0937	1086.3763	1207.5267	1242.5361	1261.7242	1281.718	1329.8421	1398.1387	1400.3308	1418.4261	1432.1028	1479.9825	1487.425	1490.9041	1504.3331	1509.7196	1521.9746	2349.9796	3030.2198	3031.6566	3038.0409	3051.8691	3097.243	3098.2642	3102.6777	3108.7393	3113.8114	3126.1333	3812.3973
CC(C)(C)C(O)C#N	CC(C)(C)[C@@H](O)C#N	
InChI=1S/C6H11NO/c1-6(2,3)5(8)4-7/h5,8H,1-3H3	InChI=1S/C6H11NO/c1-6(2,3)5(8)4-7/h5,8H,1-3H3/t5-/m0/s1
