20
gdb 109426	2.34203	1.31807	1.04625	4.6459	75.69	-0.253	0.0255	0.2784	1232.4671	0.169564	-440.313991	-440.304282	-440.303337	-440.348276	36.327	
C	-0.0603170388	 1.5317207869	-0.1998537403	-0.431179
C	-0.0406860866	 0.0163306418	-0.0000689653	 0.311437
C	-1.4103396594	-0.6017980938	-0.2716362665	-0.428165
N	 1.057741367	-0.6542826988	-0.7453852685	-0.366577
C	 1.7525489768	-1.0539923375	 0.3603939483	 0.460736
O	 2.8369143132	-1.5628829052	 0.5283053501	-0.394752
C	 0.6671504958	-0.5139363883	 1.3053828066	-0.23363
C	 1.2492692127	 0.408739205	 2.3774943219	-0.082333
O	 2.0941937395	-0.3388893462	 3.229751938	-0.424538
H	 0.9296291423	 1.9716537761	-0.0598854105	 0.128124
H	-0.3985845446	 1.7776788443	-1.2126997458	 0.117472
H	-0.7532139499	 2.0064069473	 0.5022184077	 0.128482
H	-1.7414429698	-0.38583548	-1.293516718	 0.116815
H	-1.3802739097	-1.6874031068	-0.1447550161	 0.125866
H	-2.1598607284	-0.1930402704	 0.4139289443	 0.125584
H	 1.3268576886	-0.6155074984	-1.7189468142	 0.245047
H	 0.1030447836	-1.3146044208	 1.7914985614	 0.105066
H	 1.78965985	 1.2480292814	 1.9130707848	 0.089036
H	 0.4596531271	 0.8356531757	 3.0053201392	 0.107892
H	 2.7200020906	-0.8087509422	 2.6597843929	 0.299617
73.4034	117.7756	160.9428	199.8606	225.976	243.7769	308.0938	331.2847	341.0721	415.1107	429.8046	489.1718	521.4446	560.4085	620.469	724.0958	823.4238	857.7832	867.43	939.5914	978.5616	1007.249	1043.1774	1071.0082	1109.6868	1141.4901	1164.1761	1204.6612	1220.9598	1262.0803	1292.8192	1329.7632	1372.339	1391.116	1404.9313	1421.5664	1454.3492	1479.3654	1486.0685	1500.5124	1506.3331	1515.8553	1860.5061	2982.869	3031.399	3037.3888	3061.6377	3082.9939	3096.492	3102.2371	3117.3581	3125.3968	3589.8782	3732.7976
CC1(C)NC(=O)C1CO	CC1(C)NC(=O)[C@H]1CO	
InChI=1S/C6H11NO2/c1-6(2)4(3-8)5(9)7-6/h4,8H,3H2,1-2H3,(H,7,9)	InChI=1S/C6H11NO2/c1-6(2)4(3-8)5(9)7-6/h4,8H,3H2,1-2H3,(H,7,9)/t4-/m1/s1
