23
gdb 118111	2.61892	0.81787	0.68539	1.7636	82.49	-0.2568	0.077	0.3337	1708.7528	0.203037	-425.408033	-425.396994	-425.396049	-425.445087	39.324	
C	-0.1938954092	 2.8183664276	-1.7560945896	-0.398437
C	 0.0375806974	 1.515131542	-0.9732398281	-0.023883
C	-1.2632242173	 0.8703357748	-0.4627972705	-0.170534
C	-2.0343505582	 1.7150356437	 0.544664637	-0.083996
O	-3.1291852447	 0.9350490798	 1.0040028051	-0.421308
C	 0.7742698603	 0.525919506	-1.8545969364	 0.07183
O	 2.1423732733	 0.8075451594	-2.1697159954	-0.275609
C	 1.8518246202	-0.3783495328	-1.4168975501	 0.073396
C	 2.4032276487	-0.4672249307	-0.0167785261	-0.422328
H	 0.7541287535	 3.192356828	-2.1527291109	 0.134224
H	-0.8728475768	 2.6526627138	-2.6010711416	 0.112989
H	-0.6282868553	 3.5998187674	-1.1262882358	 0.112795
H	 0.6748968705	 1.7480706154	-0.112152152	 0.07463
H	-1.925955684	 0.6434078257	-1.307916023	 0.103333
H	-1.0336694472	-0.0884616743	 0.0174355851	 0.107159
H	-1.3689676347	 1.996980682	 1.3781473804	 0.083099
H	-2.3850719612	 2.647665311	 0.0779073804	 0.089544
H	-3.6500745165	 1.4738760082	 1.6064053718	 0.285259
H	 0.1904001068	 0.2015950261	-2.7218010352	 0.081543
H	 1.9754551297	-1.2953315643	-1.9983771234	 0.085345
H	 2.2631723069	 0.4616616422	 0.5389858677	 0.128468
H	 1.9190453368	-1.281929036	 0.5327514042	 0.123026
H	 3.476954201	-0.6802278852	-0.0501613435	 0.129455
41.1559	72.0284	101.222	123.5762	169.4508	190.9032	243.2217	249.2203	267.5944	340.4774	346.2701	398.2231	403.4452	550.2805	559.8805	777.9091	792.3244	824.7259	889.8275	940.0874	970.3862	985.8361	1006.075	1027.5649	1064.6846	1084.7846	1122.7618	1149.5123	1172.2891	1181.1959	1196.4215	1232.8016	1246.3529	1294.3119	1304.9639	1320.0366	1346.8268	1365.8477	1402.6622	1407.1542	1419.9942	1461.6323	1470.0853	1489.5871	1490.9209	1498.043	1505.8001	1514.5176	1529.3509	2958.8618	2999.1535	3025.0096	3031.5676	3036.5611	3040.3236	3056.6342	3071.4281	3077.9796	3098.2788	3101.3322	3117.0878	3134.331	3830.1999
CC(CCO)C1OC1C	C[C@@H](CCO)[C@H]1O[C@H]1C	
InChI=1S/C7H14O2/c1-5(3-4-8)7-6(2)9-7/h5-8H,3-4H2,1-2H3	InChI=1S/C7H14O2/c1-5(3-4-8)7-6(2)9-7/h5-8H,3-4H2,1-2H3/t5-,6-,7+/m0/s1
