19
gdb 12672	3.28795	1.81966	1.35074	3.1077	72.1	-0.2532	0.0307	0.2839	964.7163	0.166617	-365.094942	-365.086841	-365.085897	-365.1272	30.561	
C	-0.5139097431	 1.4262384459	-0.0245161238	-0.421572
C	 0.0878528952	 0.0236747252	-0.0184224698	 0.003044
C	 1.1696224469	-0.2016423924	-1.0847689627	-0.092876
O	 1.9336690946	-1.3265090533	-0.6259639051	-0.23963
C	 1.7724643375	-1.489121248	 0.7229344757	 0.407294
N	 2.3487019069	-2.377981726	 1.4098469558	-0.545662
C	 0.8216800421	-0.4355872934	 1.2656665731	-0.088117
C	 1.6076277926	 0.6560843829	 2.0109533342	-0.401779
H	 0.2480481901	 2.1965758053	 0.1278593349	 0.123709
H	-1.0068139043	 1.6319569376	-0.9807253136	 0.119044
H	-1.2659201268	 1.5371089545	 0.7629416578	 0.124108
H	-0.7133868678	-0.7009226915	-0.2099734732	 0.088858
H	 0.7702498657	-0.4448616097	-2.0726384865	 0.117322
H	 1.8321263913	 0.6692987118	-1.1830438841	 0.106155
H	 2.9607942665	-2.9462932001	 0.8214488337	 0.218712
H	 0.1350048638	-0.9098693692	 1.9706213544	 0.102151
H	 2.3181064019	 1.1713386023	 1.3556479491	 0.117891
H	 0.9339679768	 1.4056856469	 2.4358586732	 0.116986
H	 2.1764560701	 0.2000397313	 2.8247420271	 0.144363
81.8132	182.3102	226.2539	238.529	250.6629	278.7909	298.5611	442.2106	501.5148	594.3599	678.7597	682.1058	783.6736	834.1262	893.9865	907.5326	962.5551	984.6566	1019.1644	1036.0472	1077.0194	1093.4775	1128.1524	1168.1	1184.1315	1228.1172	1277.1036	1292.8549	1336.9131	1361.0367	1367.7153	1403.6107	1411.5964	1422.9434	1491.4518	1496.8959	1503.8728	1507.1544	1524.2036	1774.8733	3011.6874	3027.3479	3035.8539	3039.8565	3081.5825	3094.8516	3100.0429	3109.0277	3111.9119	3127.1349	3468.2177
CC1COC(=N)C1C	C[C@H]1CO[C]([NH])[C@H]1C	
InChI=1S/C6H11NO/c1-4-3-8-6(7)5(4)2/h4-5,7H,3H2,1-2H3	InChI=1S/C6H11NO/c1-4-3-8-6(7)5(4)2/h4-5,7H,3H2,1-2H3/t4-,5-/m0/s1
