25
gdb 115373	3.07547	0.96134	0.85583	1.2267	88.4	-0.2612	0.0779	0.3391	1486.0988	0.230627	-389.516102	-389.506387	-389.505443	-389.550297	37.776	
C	-0.3049109658	 1.5314452134	 0.0067923942	-0.389112
C	-0.0035908214	 0.024467613	 0.0020463725	 0.044891
C	 0.7573633261	-0.4211348941	-1.2645471667	-0.212171
C	 2.2294103216	 0.0201996681	-1.2710765646	-0.205346
C	 2.9697817723	-0.4568249171	-0.0116584707	 0.05766
C	 4.4297970596	-0.0168864088	-0.0288431746	-0.097998
O	 5.0911093028	-0.5967177393	 1.0883964365	-0.425567
C	 2.2380226173	 0.0177475673	 1.2551285191	-0.186434
C	 0.7683796428	-0.4271853569	 1.2597076201	-0.215923
H	 0.6043139403	 2.1405010258	 0.0082597688	 0.114758
H	-0.8879294821	 1.8157881328	-0.8759999993	 0.107558
H	-0.885254239	 1.8096249649	 0.8931831705	 0.108942
H	-0.9719146494	-0.4930160521	 0.0032228045	 0.062045
H	 0.7221088467	-1.5171711787	-1.3276735002	 0.088731
H	 0.2484721083	-0.0436220145	-2.1596723271	 0.084515
H	 2.7251391234	-0.366518808	-2.1700974535	 0.08665
H	 2.2920850393	 1.1153940783	-1.3352723264	 0.092105
H	 2.9702781353	-1.5574981602	-0.0106356434	 0.07444
H	 4.899491386	-0.3361529661	-0.9738037964	 0.079022
H	 4.4834623003	 1.0845622109	 0.0074342026	 0.079112
H	 5.9979844922	-0.278154857	 1.1000920551	 0.285327
H	 2.75467994	-0.3643303221	 2.1398406857	 0.108673
H	 2.2996005504	 1.1138806392	 1.3114117135	 0.085618
H	 0.2657668792	-0.0550573671	 2.1606180756	 0.08412
H	 0.7341296737	-1.5236050416	 1.3178887242	 0.088386
82.3076	121.3617	186.3751	202.3698	228.5964	240.0648	269.5415	352.6211	371.3037	394.5278	438.8163	460.4421	512.1967	634.0939	761.0485	792.4645	806.2838	881.8312	938.0308	946.5306	959.353	978.2833	995.066	1013.4756	1062.5104	1069.9625	1091.8595	1103.2638	1112.0801	1167.9175	1190.1318	1197.4651	1233.2734	1263.4031	1287.7135	1288.7003	1327.231	1340.2272	1345.3642	1368.5293	1378.9098	1383.2831	1388.3445	1408.2312	1415.0846	1459.2078	1480.2118	1483.4614	1487.1168	1502.306	1505.0748	1509.6703	1519.2382	2951.7714	2977.0051	2995.8538	3002.2871	3007.682	3010.8668	3016.0951	3022.5133	3032.4055	3048.8399	3053.1453	3057.6085	3089.7578	3093.2885	3103.6866	3834.014
CC1CCC(CO)CC1	C[C@H]1CC[C@@H](CO)CC1	
InChI=1S/C8H16O/c1-7-2-4-8(6-9)5-3-7/h7-9H,2-6H2,1H3	InChI=1S/C8H16O/c1-7-2-4-8(6-9)5-3-7/h7-9H,2-6H2,1H3/t7-,8+
