18
gdb 63527	3.37714	1.10028	1.02481	4.9083	74.08	-0.2362	0.0327	0.2689	1220.7208	0.145518	-439.088959	-439.079985	-439.079041	-439.122309	34.34	
C	-0.0915566509	 1.5431868911	-0.0385462172	-0.451301
C	 0.0130200269	 0.038552824	 0.036550817	 0.328498
O	-1.1573773764	-0.6540488244	-0.3200621274	-0.469115
C	 1.3337454809	-0.6682183496	-0.2644554109	-0.426135
C	 0.7662119902	-0.6496747695	 1.128234531	 0.380657
C	 1.3430375011	-0.1108664472	 2.4458955816	-0.491152
C	 0.6662602302	-1.3560642888	 3.0857544527	 0.434147
O	 0.5102266294	-1.7818983907	 4.1965339838	-0.353922
N	 0.2711288859	-1.8101299102	 1.8424412599	-0.36838
H	 0.8237146183	 2.023376821	 0.3188082434	 0.12389
H	-0.2546085247	 1.8701175519	-1.0730015439	 0.11334
H	-0.9310341557	 1.9006905364	 0.5662034992	 0.132137
H	-1.2894423648	-0.5512844519	-1.2692729377	 0.285693
H	 1.2735315994	-1.6034959473	-0.8118362495	 0.11782
H	 2.2125366367	-0.066224583	-0.4747664216	 0.117096
H	 2.4320973873	-0.0937587832	 2.5177562266	 0.133237
H	 0.9301105366	 0.8374793503	 2.7946729938	 0.135024
H	-0.4693759605	-2.4447378988	 1.5805547292	 0.258467
80.5169	146.2007	177.3394	221.6815	276.5874	295.3486	367.2301	388.5672	402.7536	447.1813	501.2515	517.4147	561.2526	591.6037	709.8993	778.7695	871.22	894.5464	918.1452	958.8403	984.1865	1016.8998	1039.5446	1083.2281	1100.0537	1135.2581	1172.6147	1192.1669	1236.8186	1269.7278	1301.361	1350.0686	1412.0088	1423.9947	1458.0565	1483.5054	1488.331	1522.6568	1900.3369	3025.4497	3083.2008	3089.8588	3116.3308	3121.6178	3141.3161	3214.1403	3614.0538	3791.9797
CC1(O)CC11CC(=O)N1	C[C@@]1(O)C[C@]21CC(=O)N2	
InChI=1S/C6H9NO2/c1-5(9)3-6(5)2-4(8)7-6/h9H,2-3H2,1H3,(H,7,8)	InChI=1S/C6H9NO2/c1-5(9)3-6(5)2-4(8)7-6/h9H,2-3H2,1H3,(H,7,8)/t5-,6+/m1/s1
