15
gdb 128574	6.83265	0.85995	0.76758	6.2486	72.25	-0.2321	-0.0438	0.1883	1404.0073	0.112814	-453.956805	-453.948494	-453.94755	-453.990348	29.361	
C	-0.0113563675	 1.4100039187	 0.0166646594	-0.269418
O	-0.003230802	-0.0106451379	 0.0179145611	-0.256654
C	 0.5867669017	-0.6248727253	-1.0186340092	 0.539713
C	 0.7252538367	-1.9754444379	-1.2471691088	-0.459054
C	 1.4222650016	-2.0489191646	-2.4796523055	 0.270045
C	 1.8210081225	-3.288222327	-3.1701157982	 0.101604
O	 2.4144853831	-3.3522756919	-4.2186638782	-0.260126
N	 1.6968708418	-0.8406618106	-2.9800964578	-0.284104
N	 1.178258189	 0.0095648081	-2.0725587427	-0.280104
H	 1.008580338	 1.8158333051	 0.0313775229	 0.133323
H	-0.554635933	 1.806143338	-0.8511647808	 0.133287
H	-0.5275645303	 1.7125996576	 0.9276268016	 0.157313
H	 0.3760415073	-2.7775483125	-0.6191539095	 0.124385
H	 1.5164047373	-4.2082704631	-2.6208610255	 0.06852
H	 1.2626021737	 0.9985600333	-2.2357460388	 0.281269
57.238	106.5773	162.0864	216.3121	241.8164	273.0122	372.7905	392.3925	506.3171	557.7799	679.3327	684.8006	700.1777	789.18	801.0169	1001.1014	1021.2448	1034.7134	1071.1606	1159.9529	1175.3352	1204.2396	1216.4651	1307.1628	1401.6427	1439.6786	1466.408	1482.7258	1495.1032	1497.9252	1509.9881	1635.4292	1813.4699	2870.2668	3004.6836	3066.6883	3151.4786	3277.3775	3674.7324
COC1=CC(C=O)=NN1	COc1cc(C=O)n[nH]1	
InChI=1S/C5H6N2O2/c1-9-5-2-4(3-8)6-7-5/h2-3H,1H3,(H,6,7)	InChI=1S/C5H6N2O2/c1-9-5-2-4(3-8)6-7-5/h2-3H,1H3,(H,6,7)
