19
gdb 110333	2.30652	1.38693	1.26898	3.0199	76.21	-0.2421	-0.0014	0.2407	1130.1455	0.159022	-419.15992	-419.151007	-419.150062	-419.193601	33.466	
C	-0.3587925058	 1.370564509	-0.2561635356	-0.380571
C	 0.1465682426	-0.0283491296	 0.1199404559	-0.227845
C	 0.853673482	-0.6972810545	-1.0427035611	 0.017997
C	 0.9765433656	-2.1435242158	-1.3251409419	-0.125023
C	-0.2623784103	-2.9687519951	-0.973037092	 0.0349
O	-0.5688752061	-3.368359511	 0.3344681645	-0.421922
C	-1.0566269565	-1.87797025	-1.7134548689	 0.307695
N	-2.2506250488	-1.5460851807	-1.9213365248	-0.513434
N	 0.1280845407	-1.2264843876	-2.2369381719	-0.154489
H	 0.4648106507	 2.0063772868	-0.5979024087	 0.119497
H	-1.0948464422	 1.3067485064	-1.0621928521	 0.155976
H	-0.8283096411	 1.8601334391	 0.6016230601	 0.116154
H	 0.8552898163	 0.0360275055	 0.9553581034	 0.105822
H	-0.7025876238	-0.6260110891	 0.4670776588	 0.09679
H	 1.7179449092	-0.1265927804	-1.381081434	 0.108865
H	 1.9013366357	-2.5708402772	-1.6974324442	 0.107278
H	-0.2748379359	-3.8833111798	-1.5756873362	 0.1286
H	-0.460692412	-2.6128907379	 0.9206251058	 0.29232
H	-2.8823814603	-2.1914225682	-1.4410714068	 0.23139
68.6693	117.932	175.5393	196.3873	237.8981	248.5747	311.6639	369.0461	441.733	513.6566	579.1204	653.7167	664.4026	768.3845	794.5365	835.1723	868.7659	889.9201	914.5707	954.6991	983.611	1014.4617	1056.9692	1077.964	1121.4913	1145.3572	1167.8986	1222.9686	1241.228	1261.3847	1294.6451	1312.7101	1345.6815	1362.6451	1413.1378	1427.0689	1447.9227	1482.5052	1499.1087	1506.8201	1798.3314	3029.2989	3040.5992	3065.1038	3070.1409	3109.3121	3119.3749	3125.8505	3175.7689	3452.3284	3826.6317
CCC1C2C(O)C(=N)N12	CC[C@H]1[C@H]2[C@@H](O)[C]([NH])N12	
InChI=1S/C6H10N2O/c1-2-3-4-5(9)6(7)8(3)4/h3-5,7,9H,2H2,1H3	InChI=1S/C6H10N2O/c1-2-3-4-5(9)6(7)8(3)4/h3-5,7,9H,2H2,1H3/t3-,4-,5+,8?/m0/s1
