12
gdb 42356	4.3695	0.90181	0.75091	4.289	67.6	-0.2797	-0.1261	0.1536	1371.3291	0.073613	-435.477281	-435.468165	-435.467221	-435.512738	30.516	
O	-0.0819948409	-0.1086623335	-0.0025488192	-0.239619
C	-0.0325425368	 1.0896824251	 0.0037656047	 0.290869
C	 1.2565884226	 1.9145466796	 0.0001344873	-0.460391
C	 2.4583429341	 1.0929527284	-0.013922981	 0.282399
N	 3.4214761659	 0.4569295256	-0.0250740279	-0.288465
C	-1.3159006631	 1.9545096128	 0.0168737157	 0.127677
O	-1.2319230105	 3.1634376656	 0.0227397779	-0.273876
C	-2.5578278201	 1.2273965551	 0.021199847	 0.295793
C	-3.599314713	 0.6244494677	 0.0248170978	-0.353717
H	 1.2397896555	 2.5882421376	-0.864501543	 0.194167
H	 1.2520980784	 2.5762125136	 0.8742001624	 0.194156
H	-4.5203395021	 0.0920372324	 0.0276125283	 0.231007
38.7283	47.9843	99.2246	164.6501	224.8112	240.3334	361.1998	375.1973	411.4314	440.4097	496.3361	660.9096	677.7182	704.9149	732.3139	803.5962	902.7023	944.7059	1006.9123	1195.6212	1207.3727	1340.6979	1416.4461	1757.1012	1834.8934	2217.8751	2377.9285	3055.9305	3086.092	3488.3858
O=C(CC#N)C(=O)C#C	O=C(CC#N)C(=O)C#C	
InChI=1S/C6H3NO2/c1-2-5(8)6(9)3-4-7/h1H,3H2	InChI=1S/C6H3NO2/c1-2-5(8)6(9)3-4-7/h1H,3H2
