18
gdb 117518	2.29927	1.11451	0.79976	2.7099	74.35	-0.2681	-0.0362	0.2318	1451.3012	0.143336	-439.10327	-439.092676	-439.091731	-439.140312	35.701	
C	 0.1524036244	 1.5407651637	 0.0418348609	-0.386449
C	 0.1101522442	 0.0259071527	-0.0291301725	-0.05369
O	 0.5510374945	-0.4839017418	 1.2292944918	-0.218594
C	 0.5228852033	-1.8688993294	 1.3323122691	-0.103156
C	 1.5470757471	-2.5218930311	 0.4870901779	 0.257352
N	 2.3548558066	-3.021005669	-0.1721896175	-0.326052
C	 0.6979758707	-2.2755270666	 2.8307315945	 0.369958
C	 0.8694958525	-3.7540795825	 3.0950539845	-0.493859
O	 0.6589632322	-1.436515268	 3.6860458107	-0.257643
H	 1.1714222249	 1.8864226118	 0.2343851271	 0.138307
H	-0.1876656779	 1.9696159155	-0.9051895779	 0.12242
H	-0.4935180357	 1.9066587448	 0.8442995087	 0.135909
H	-0.9121352952	-0.3323141189	-0.2310373006	 0.095779
H	 0.7588397809	-0.3481720516	-0.8343730819	 0.117199
H	-0.4563552655	-2.2808766712	 1.0215883092	 0.128276
H	 1.8710479574	-4.0700713526	 2.7836435354	 0.176219
H	 0.7441902363	-3.9467062829	 4.1607671707	 0.154395
H	 0.1544344493	-4.3486679428	 2.5166712197	 0.14363
41.8545	70.8233	82.8005	115.1992	135.0103	145.5259	236.6326	261.3665	308.898	336.2395	428.3104	450.6087	526.3095	594.8302	647.0286	798.1309	824.7052	886.5817	945.4336	981.1734	1042.7976	1059.354	1145.5028	1158.8214	1185.8846	1191.9003	1264.7442	1301.3928	1336.2832	1388.1384	1404.2328	1436.1651	1459.9496	1473.5571	1483.0033	1499.1384	1525.3819	1854.5223	2346.1642	2929.924	2976.5524	3021.2034	3044.0022	3050.1611	3106.5045	3125.5538	3130.3209	3158.5618
CCOC(C#N)C(C)=O	CCO[C@@H](C#N)C(=O)C	
InChI=1S/C6H9NO2/c1-3-9-6(4-7)5(2)8/h6H,3H2,1-2H3	InChI=1S/C6H9NO2/c1-3-9-6(4-7)5(2)8/h6H,3H2,1-2H3/t6-/m0/s1
