20
gdb 100741	2.47962	1.16924	0.96903	4.1256	71.9	-0.2559	0.0231	0.279	1299.6027	0.168862	-477.453353	-477.442945	-477.442001	-477.488868	37.781	
C	 0.5204717879	 1.8340046809	 1.0523475635	-0.241621
O	 1.132742606	 0.6376065554	 0.6194937229	-0.258966
C	 0.5439407087	-0.5622040487	 1.1245627185	 0.107947
C	-0.8133022043	-0.8799808239	 0.5012429204	-0.413962
C	 1.5843335567	-1.6808916305	 0.9037608351	 0.016724
O	 1.1781914486	-2.8343223998	 1.5862540623	-0.43997
C	 1.8122209718	-2.0497761268	-0.5771262746	 0.372741
N	 2.1494657842	-1.0371500711	-1.4046353189	-0.514215
O	 1.7197747669	-3.2196731823	-0.9205892572	-0.38901
H	 0.4670199066	 1.8774891758	 2.1499426022	 0.115628
H	 1.1406294001	 2.6602811566	 0.6964480731	 0.130219
H	-0.4936212379	 1.9563094185	 0.6484610021	 0.116893
H	 0.4282755441	-0.4676565032	 2.2151299275	 0.088982
H	-1.5765567565	-0.1570233869	 0.8007293555	 0.114776
H	-0.7494071556	-0.8834291632	-0.5913186631	 0.122519
H	-1.1306603102	-1.8696251253	 0.8386933295	 0.144929
H	 2.5422168245	-1.3052402721	 1.2982304781	 0.096699
H	 1.2420279631	-3.5403625692	 0.9167621625	 0.295013
H	 2.0355999921	-0.0861943151	-1.0832004982	 0.27397
H	 2.245836403	-1.2350429991	-2.3875120411	 0.260704
67.207	82.7456	99.171	175.8081	192.5256	232.5635	256.107	309.7673	343.2897	365.6696	408.127	452.4164	504.896	513.173	570.4213	630.3021	664.1825	730.5783	830.5428	867.0356	930.8128	1066.2412	1088.555	1127.0705	1128.4449	1158.4482	1167.1252	1184.2245	1224.8315	1273.1459	1323.0381	1340.9899	1380.5818	1386.0251	1406.0012	1473.0308	1479.2697	1486.2383	1495.3453	1505.8997	1512.5133	1618.7688	1781.3688	2975.6195	2990.3745	2994.8898	3044.2864	3049.8229	3115.3773	3118.7313	3133.6903	3552.8192	3609.9346	3701.6263
COC(C)C(O)C(N)=O	CO[C@@H](C)[C@@H](O)C(=O)N	
InChI=1S/C5H11NO3/c1-3(9-2)4(7)5(6)8/h3-4,7H,1-2H3,(H2,6,8)	InChI=1S/C5H11NO3/c1-3(9-2)4(7)5(6)8/h3-4,7H,1-2H3,(H2,6,8)/t3-,4+/m0/s1
