17
gdb 20278	5.32085	2.12262	2.05238	1.4077	70.68	-0.2287	0.095	0.3237	723.9425	0.145828	-326.647412	-326.642123	-326.641179	-326.67636	23.142	
C	 0.0170697134	 1.4917816681	-0.0224625617	-0.246894
C	 1.2903557444	 0.7247816672	 0.0187876922	-0.05357
C	 1.8397116232	 0.3217817101	 1.3767190496	-0.022942
C	 1.4040431066	-1.1813630337	 1.5910071364	-0.047637
C	 1.2416575193	-0.907480559	 3.0990918478	-0.260375
C	 0.6711630481	 0.3526447388	 2.4125820279	-0.076572
C	-0.0079704041	-0.5687039922	 1.335712149	 0.029598
N	-0.0105575407	 0.0168522848	-0.0192040795	-0.116874
H	-0.3084860797	 2.0271025521	 0.8642836919	 0.114535
H	-0.3029729971	 1.9383896809	-0.9598312879	 0.114582
H	 1.9239839092	 0.6527370436	-0.8609806945	 0.091513
H	 2.8377264637	 0.6452664922	 1.6745053202	 0.067246
H	 1.8278239863	-2.0586438782	 1.1000583348	 0.074844
H	 0.5306241054	-1.536939503	 3.6418756357	 0.092722
H	 2.1609429836	-0.7732683343	 3.6753314891	 0.093676
H	 0.2512880387	 1.2318176311	 2.9026039277	 0.072044
H	-0.9106788204	-1.1290013286	 1.5811213213	 0.074104
325.9406	339.7085	417.6892	540.6755	666.0092	686.4745	773.9035	808.8184	809.9633	838.5876	887.2859	896.5866	921.2589	941.0615	980.5252	992.5163	1006.7528	1035.9586	1064.8444	1081.9656	1089.5743	1108.5043	1114.699	1128.6222	1153.3754	1178.3497	1187.6059	1228.8919	1235.7525	1249.6177	1267.1373	1274.0497	1331.2792	1368.2963	1504.1044	1520.6643	3049.6503	3097.6279	3102.1518	3107.4606	3112.9936	3115.7665	3121.8984	3146.2423	3200.3888
C1C2C3C4CC3C4N12	C1[C@H]2[C@@H]3[C@H]4C[C@@H]3[C@H]4N12	
InChI=1S/C7H9N/c1-3-6-4(1)7(3)8-2-5(6)8/h3-7H,1-2H2	InChI=1S/C7H9N/c1-3-6-4(1)7(3)8-2-5(6)8/h3-7H,1-2H2/t3-,4+,5-,6-,7+,8?/m0/s1
