20
gdb 121887	3.85798	0.70714	0.64194	4.8446	72.85	-0.2525	0.0201	0.2726	1765.2492	0.169979	-477.450505	-477.440222	-477.439278	-477.487006	36.051	
C	-0.0408494514	 1.5253138017	-0.1006676029	-0.387046
C	-0.0282249732	 0.0187834676	 0.089078882	-0.036879
O	-1.3633866278	-0.456159562	 0.0274271007	-0.256232
C	-1.4696918612	-1.8534420854	 0.1885089934	-0.057155
C	-2.9446885821	-2.2316135426	 0.0365941407	-0.141005
N	-3.4324413657	-1.8068513397	-1.2828235084	-0.539968
H	-2.94201806	-0.9599269697	-1.5551822536	 0.252816
H	-3.3597855638	-3.6603843475	-1.6456480299	 0.306117
H	-4.4204268412	-1.5787014936	-1.243544419	 0.247951
C	-3.0577541627	-3.7619429206	 0.1769715437	 0.417468
O	-2.9140329556	-4.3336305533	 1.2246384121	-0.345694
O	-3.28983287	-4.3859028717	-0.9834473495	-0.364131
H	 0.9778960047	 1.9211281835	-0.0563380634	 0.121908
H	-0.4721286355	 1.7887378931	-1.0708065226	 0.124505
H	-0.6345548992	 2.0062885311	 0.6816398356	 0.130768
H	 0.5799821891	-0.4684999645	-0.6906404738	 0.093547
H	 0.4177574255	-0.2474374363	 1.0606538696	 0.097602
H	-0.8693470306	-2.3751723056	-0.5763304193	 0.098981
H	-1.1173830244	-2.1779543623	 1.1768468544	 0.126589
H	-3.4970136049	-1.7822654223	 0.8703196401	 0.109858
48.8666	66.0947	96.6305	109.3375	161.0527	212.8704	249.6038	323.3691	332.7691	342.7604	431.7334	452.663	560.4233	657.5463	739.9675	819.9174	848.037	880.8766	902.8575	923.6404	974.017	1033.9083	1048.1593	1125.2154	1149.1466	1157.7531	1184.2126	1214.0718	1242.3881	1280.21	1297.6316	1316.7648	1362.7042	1390.8346	1407.8622	1435.766	1445.0977	1484.2552	1499.1345	1510.8819	1535.5256	1658.3016	1869.3867	2961.5553	2970.9158	2996.8528	3033.7933	3046.1181	3047.5566	3120.5252	3123.4886	3443.1336	3504.4839	3579.5987
CCOCC([NH3+])C([O-])=O	CCOC[C@@H](N)C(=O)O	
InChI=1S/C5H11NO3/c1-2-9-3-4(6)5(7)8/h4H,2-3,6H2,1H3,(H,7,8)	InChI=1S/C5H11NO3/c1-2-9-3-4(6)5(7)8/h4H,2-3,6H2,1H3,(H,7,8)/t4-/m1/s1
