19
gdb 93700	2.99023	1.22625	1.12991	4.955	74.97	-0.2459	0.0362	0.2822	1152.4333	0.160128	-419.221757	-419.212824	-419.21188	-419.255372	33.971	
C	 0.4071646553	 1.3184222001	-0.2273412637	-0.452832
C	-0.0395506588	-0.1391316932	-0.0302785527	 0.149944
C	 0.3272066242	-1.0499277964	-1.260313399	-0.299271
C	 1.5163834125	-1.8816658946	-0.7583888708	 0.113468
O	 2.7409480386	-1.1534794192	-0.8178751306	-0.437674
C	 1.1725141405	-2.0417727447	 0.72445376	-0.179345
N	 0.6391245734	-0.7392229867	 1.1445060442	-0.313198
C	-1.5019337149	-0.1721592421	 0.1867225255	 0.293807
N	-2.6490089574	-0.1949109316	 0.3269423914	-0.352081
H	 1.4735157695	 1.3269003485	-0.4691568102	 0.132957
H	-0.1474831739	 1.7933759998	-1.0404005216	 0.137565
H	 0.2378620191	 1.8975143479	 0.6849676597	 0.141692
H	-0.5079065175	-1.7057320421	-1.520010794	 0.129012
H	 0.5703005164	-0.4547043248	-2.1445788389	 0.105552
H	 1.6044702561	-2.8423373865	-1.2829031936	 0.073158
H	 2.9467607268	-0.9861167109	-1.7429047993	 0.286463
H	 0.4084114988	-2.8187490795	 0.8480687628	 0.116605
H	 2.0413465234	-2.314605809	 1.3266426625	 0.121129
H	 1.4139427279	-0.1374430447	 1.3983907882	 0.233048
53.031	139.9259	181.8454	215.0982	282.9457	318.4514	329.9069	386.9569	395.9567	402.7763	534.3382	581.1332	610.7383	736.9703	739.327	826.2719	858.8869	872.4956	914.5866	953.7964	971.3205	993.4864	1043.3944	1088.9296	1117.5262	1166.5063	1184.1511	1205.2018	1252.2777	1268.291	1314.111	1346.0818	1361.3175	1403.4467	1417.4139	1478.0744	1481.7351	1492.2977	1496.4498	1500.5069	2352.8583	3015.9938	3039.3609	3044.6394	3065.3906	3112.0123	3119.2501	3124.8668	3130.6021	3543.9647	3821.2298
CC1(CC(O)CN1)C#N	C[C@]1(C[C@@H](O)CN1)C#N	
InChI=1S/C6H10N2O/c1-6(4-7)2-5(9)3-8-6/h5,8-9H,2-3H2,1H3	InChI=1S/C6H10N2O/c1-6(4-7)2-5(9)3-8-6/h5,8-9H,2-3H2,1H3/t5-,6+/m1/s1
