13
gdb 129296	2.56833	1.86054	1.17222	4.1996	71.07	-0.2647	-0.1116	0.1532	975.8855	0.088762	-452.705733	-452.69827	-452.697325	-452.738561	26.997	
N	 0.1401541977	 1.2948159293	-0.0366873938	-0.430456
C	-0.0691926613	 0.0597360434	 0.0375931502	 0.265519
O	 0.9410401123	-0.8948137359	-0.1195997577	-0.261067
N	 1.5240154464	-1.4290780381	 1.0544465267	-0.100615
C	 0.7224671952	-1.977775568	 1.8950745099	 0.034917
C	-0.7060898544	-2.2430349229	 1.8375999185	-0.071056
C	-1.6372864755	-1.6826539431	 1.0454195398	-0.167845
C	-1.4627187256	-0.5209279659	 0.1550318842	 0.357421
O	-2.3954446814	-0.0427085189	-0.4514421185	-0.291142
H	 1.1408910851	 1.4831048205	-0.1369328594	 0.250099
H	 1.2586498556	-2.3827533553	 2.7515168655	 0.144893
H	-1.0280227811	-3.0243883048	 2.5212492213	 0.131259
H	-2.6634945732	-2.0337522804	 1.0959863033	 0.138074
43.7733	98.9664	235.2549	303.9898	341.0666	372.5888	428.1511	517.1787	594.8587	685.0925	710.8457	776.6011	853.5936	871.6344	875.5966	954.058	975.3486	982.7951	998.7539	1033.854	1167.2678	1231.3548	1312.3811	1360.3897	1425.684	1628.8883	1679.9003	1754.5218	1770.3599	3153.1898	3168.1253	3192.0129	3463.9168
N=C1ON=CC=CC1=O	[NH][C]1ON=CC=CC1=O	
InChI=1S/C5H4N2O2/c6-5-4(8)2-1-3-7-9-5/h1-3,6H	InChI=1S/C5H4N2O2/c6-5-4(8)2-1-3-7-9-5/h1-3,6H
