19
gdb 89828	2.84202	1.38624	1.11638	1.7313	75.57	-0.2423	-0.0244	0.2179	1143.8799	0.157962	-423.040379	-423.031847	-423.030903	-423.073718	32.73	
C	-0.0924883224	 1.5519623052	 0.0132639476	-0.399313
C	 0.0457629403	 0.0279976435	-0.0025404686	 0.013739
O	 0.7670761678	-0.4592226483	-1.1308438569	-0.301065
C	 2.1037273532	-0.7284108063	-0.7412239264	 0.439147
C	 3.0018630128	-1.257927082	-1.8022252331	-0.33821
C	 3.1965407669	 0.1590961707	-1.2825163782	-0.322468
C	 2.0609066185	-1.197073334	 0.6971547948	-0.419999
C	 0.8163527911	-0.4815518468	 1.2252527117	 0.377532
O	 0.4919154801	-0.3215859826	 2.371321683	-0.309434
H	 0.8893656321	 2.0342697802	 0.0254196684	 0.12521
H	-0.6337426435	 1.8892687135	-0.8742089279	 0.127345
H	-0.641747528	 1.8609788121	 0.9070680651	 0.13836
H	-0.9489271001	-0.433643888	-0.019087187	 0.108672
H	 3.7291566791	-2.01670479	-1.5340069379	 0.117963
H	 2.5714654713	-1.3681891234	-2.7913269198	 0.129233
H	 2.8945931819	 0.9683945652	-1.9373569241	 0.123572
H	 4.0590823682	 0.3681343233	-0.6578479325	 0.113726
H	 1.8860819283	-2.279012352	 0.7643106005	 0.139151
H	 2.9421450626	-0.9565676304	 1.2940678913	 0.136839
68.3825	87.9834	223.7763	224.9626	269.018	313.376	368.7691	436.9704	481.453	514.6926	560.5937	653.9143	757.0951	768.2899	778.9874	845.3907	891.9056	922.5944	935.0151	961.4514	992.4267	1038.1685	1049.8969	1077.8312	1096.8656	1121.0926	1139.7364	1186.8812	1190.6919	1231.7363	1258.0208	1309.7402	1360.9019	1379.0959	1394.3166	1449.1522	1452.4856	1486.6596	1495.9206	1501.742	1858.0492	3030.6154	3039.1608	3044.9731	3121.9637	3122.3475	3129.3295	3129.821	3135.3673	3216.9361	3230.6474
CC1OC2(CC2)CC1=O	C[C@H]1OC2(CC2)CC1=O	
InChI=1S/C7H10O2/c1-5-6(8)4-7(9-5)2-3-7/h5H,2-4H2,1H3	InChI=1S/C7H10O2/c1-5-6(8)4-7(9-5)2-3-7/h5H,2-4H2,1H3/t5-/m1/s1
