18
gdb 97128	2.47978	1.15971	0.83548	4.3533	78.34	-0.2336	0.0144	0.248	1379.7675	0.146551	-435.242241	-435.232481	-435.231537	-435.278028	33.374	
C	-0.1727461281	 1.1435186756	 0.1174965579	-0.340843
N	-0.2674550749	-0.2770791887	-0.1877549685	-0.325364
C	 0.5634815506	-0.7583325993	-1.0058553823	 0.411215
N	 1.6408780988	-0.2899035053	-1.7497572598	-0.351733
C	 1.9033617775	-1.5781432513	-2.4110925778	-0.185137
C	 0.7596876132	-2.1798934704	-1.5504673882	-0.006353
O	 1.2200270919	-3.1694029303	-0.6530836246	-0.196697
C	 0.3721182694	-3.5016839963	 0.3534197649	 0.114783
N	 0.6887372412	-4.4410411844	 1.1335749909	-0.439675
H	 0.8596307506	 1.5248233119	 0.1013943545	 0.105504
H	-0.7629928531	 1.7370779905	-0.5942490788	 0.120032
H	-0.5865713347	 1.3285269087	 1.1125767968	 0.129606
H	 1.7976768682	 0.6353641854	-2.1166579992	 0.251747
H	 1.7158367131	-1.5910847117	-3.4893538779	 0.115522
H	 2.8877746562	-1.9995819673	-2.1932145723	 0.134348
H	-0.0956233032	-2.5451909409	-2.1291280176	 0.108508
H	-0.5267502668	-2.8779420143	 0.3937211217	 0.125048
H	-0.0382168399	-4.560275072	 1.8364811803	 0.22949
68.2894	73.489	98.4876	107.132	168.7096	186.5483	221.0127	294.5652	346.217	419.2107	538.1866	579.0023	728.3842	750.3035	827.939	872.5311	948.2651	992.4137	1026.206	1048.0209	1056.7313	1095.2521	1114.2522	1153.0483	1167.1572	1185.7712	1197.5	1222.5113	1292.4868	1312.088	1357.8418	1388.5791	1431.1302	1437.8796	1488.8671	1505.3848	1516.7917	1743.4084	1815.527	2981.7635	3039.4369	3045.4499	3054.4862	3080.1569	3095.7069	3107.769	3514.4923	3631.9387
CN=C1NCC1OC=N	CN=C1NC[C@H]1O[CH][NH]	
InChI=1S/C5H9N3O/c1-7-5-4(2-8-5)9-3-6/h3-4,6H,2H2,1H3,(H,7,8)	InChI=1S/C5H9N3O/c1-7-5-4(2-8-5)9-3-6/h3-4,6H,2H2,1H3,(H,7,8)/t4-/m1/s1
