19
gdb 12063	3.93902	1.5722	1.42363	2.8064	71.13	-0.2255	0.0736	0.299	947.9184	0.165207	-365.010551	-365.002383	-365.001439	-365.04261	31.361	
C	-0.0435110489	 1.5905880349	 0.1238564985	-0.455308
C	-0.0049324523	 0.0691060864	 0.0428124852	 0.354107
C	-1.3878373469	-0.5263042414	-0.1927614724	-0.131969
O	-1.8504411194	-0.0983565604	-1.4662346608	-0.42491
C	 1.0563399875	-0.5708685045	-0.939756995	-0.26631
C	 1.6759663642	-1.2959387206	 0.2564900214	-0.038054
N	 2.1211868815	-0.2336143028	 1.1940271276	-0.339538
C	 0.7060343874	-0.6735280986	 1.1958013451	-0.107305
H	 0.9550381008	 1.9831994354	 0.3272960447	 0.131926
H	-0.4109516134	 2.0144013062	-0.8147794248	 0.127325
H	-0.7137270546	 1.9218734475	 0.9266190138	 0.098683
H	-1.3296695133	-1.6261625922	-0.1418438719	 0.078474
H	-2.0694248203	-0.1945161385	 0.6085121306	 0.081413
H	-2.7276011325	-0.4653962593	-1.6073847661	 0.287322
H	 0.5877954142	-1.2271129426	-1.6748504584	 0.108375
H	 1.7234278679	 0.1301726014	-1.4466723647	 0.103086
H	 2.1355688683	-2.2765696918	 0.2804235914	 0.087624
H	 2.573643075	-0.6989124723	 1.980866365	 0.225017
H	 0.2512861749	-1.0645095468	 2.0999164707	 0.080043
115.1886	172.4687	208.5042	218.1541	252.8973	298.3164	359.0305	398.4168	449.1728	552.7815	656.0145	772.0863	813.6079	837.9292	858.2478	926.1514	950.3612	956.6576	968.0305	1007.9143	1014.9526	1073.7134	1088.2635	1110.4799	1142.5382	1149.3158	1194.9279	1226.3755	1241.9435	1270.2255	1287.9161	1320.8699	1332.7277	1382.5836	1400.0341	1459.0125	1480.5978	1494.0638	1497.1971	1522.088	2953.3379	2982.7526	3029.5255	3071.4016	3100.2729	3131.3018	3132.8553	3163.4724	3187.4618	3468.6361	3834.8633
CC1(CO)CC2NC12	C[C@@]1(CO)C[C@H]2N[C@@H]12	
InChI=1S/C6H11NO/c1-6(3-8)2-4-5(6)7-4/h4-5,7-8H,2-3H2,1H3	InChI=1S/C6H11NO/c1-6(3-8)2-4-5(6)7-4/h4-5,7-8H,2-3H2,1H3/t4-,5-,6+/m1/s1
