19
gdb 97114	2.69282	1.25875	0.87652	3.4607	82.89	-0.2384	-0.0104	0.228	1325.5073	0.157816	-419.241735	-419.231903	-419.230959	-419.277214	34.204	
C	 0.227825448	 1.4140281976	-0.1633549623	-0.329817
N	 0.3951066196	-0.0264614625	-0.1381880049	-0.317579
C	 0.6410366857	-0.580438376	 0.9646844758	 0.426994
C	 0.8446374841	-0.2075039637	 2.4426338441	-0.366265
C	 1.0575673949	-1.7299222902	 2.6909079898	-0.16963
N	 0.8423581588	-1.9397059545	 1.2528359816	-0.131233
C	 0.8607562568	-3.1343575259	 0.5556116327	 0.367272
C	 0.6038282118	-3.0350190661	-0.929519129	-0.472494
O	 1.075963902	-4.1711046812	 1.1509529081	-0.346356
H	 0.9609243929	 1.85556365	-0.8483399512	 0.129794
H	-0.7639051285	 1.6603896208	-0.5600916544	 0.129794
H	 0.3365309499	 1.9009414191	 0.8169204383	 0.104781
H	 1.7139227282	 0.422806436	 2.6384726412	 0.135458
H	-0.0313175992	 0.2259819059	 2.9285226577	 0.135457
H	 2.0555531709	-2.0228064382	 3.0249012293	 0.131327
H	 0.3070731049	-2.2199879064	 3.3153289891	 0.131356
H	-0.36535377	-2.5673122028	-1.1229341243	 0.152645
H	 1.3501032103	-2.3935317301	-1.4064231291	 0.152282
H	 0.636550699	-4.0386549219	-1.3532800425	 0.136215
59.6629	96.9719	102.65	136.0486	148.7961	183.2841	246.2848	276.0073	377.7487	397.1468	511.494	600.2888	623.8491	686.6976	722.6998	802.1642	938.9055	969.8538	1012.7653	1049.9301	1059.8575	1085.7824	1131.7458	1132.1192	1156.2843	1161.8274	1195.1059	1204.2186	1253.8876	1336.4546	1387.2373	1412.595	1447.0336	1450.2856	1468.3826	1471.454	1485.2551	1500.63	1520.8808	1778.613	1805.8274	2990.376	3057.5348	3062.4235	3069.377	3074.9815	3085.9011	3116.7333	3122.3799	3140.1211	3164.5718
CN=C1CCN1C(C)=O	CN=C1CCN1C(=O)C	
InChI=1S/C6H10N2O/c1-5(9)8-4-3-6(8)7-2/h3-4H2,1-2H3	InChI=1S/C6H10N2O/c1-5(9)8-4-3-6(8)7-2/h3-4H2,1-2H3
