16
gdb 28252	4.84418	1.16748	0.95199	2.644	72.13	-0.1806	0.0566	0.2372	1166.3315	0.126054	-437.903569	-437.895677	-437.894733	-437.936116	29.308	
O	 0.1206785427	 1.3175613772	 0.221570871	-0.435909
C	 0.0812956369	-0.0209765673	-0.0014776896	 0.401958
C	 0.0740370731	-0.7853179381	-1.1493504998	-0.500428
C	 0.0230185915	-2.1399484349	-0.6947838624	 0.279156
C	 0.0022509107	-2.1372962811	 0.6630144849	 0.236874
C	-0.0511393974	-3.514177705	 1.2281472977	-0.173812
O	-0.0601488524	-4.3362453196	 0.0537567967	-0.280218
C	-0.0159076572	-3.5589978457	-1.1617316943	-0.179574
N	 0.0382056639	-0.8337700314	 1.1058343441	-0.423911
H	 0.1546118832	 1.7645700081	-0.6293340832	 0.308822
H	 0.1015018082	-0.4103416933	-2.1606479765	 0.091965
H	 0.8185900713	-3.777925821	 1.8517923252	 0.101026
H	-0.9546277766	-3.7202384349	 1.8249362471	 0.101046
H	-0.9014353653	-3.8012397401	-1.768211793	 0.103187
H	 0.8704425803	-3.8588677374	-1.7406444934	 0.103156
H	 0.0343288672	-0.4944360555	 2.0517672156	 0.266662
92.7724	125.4251	204.0497	237.6977	272.1218	303.2499	415.5763	499.5442	524.2214	640.4948	658.0064	720.9301	723.4249	757.3964	877.5466	892.3772	1022.6021	1022.7215	1060.9485	1070.9182	1118.9976	1151.5716	1161.756	1186.7733	1212.4154	1258.4781	1337.1651	1353.3697	1434.8929	1499.9364	1518.0741	1526.515	1535.8409	1581.6122	1640.7986	2958.7856	2970.6417	2982.3101	2999.3951	3245.4173	3683.904	3850.6812
OC1=CC2=C(COC2)N1	Oc1cc2c(COC2)[nH]1	
InChI=1S/C6H7NO2/c8-6-1-4-2-9-3-5(4)7-6/h1,7-8H,2-3H2	InChI=1S/C6H7NO2/c8-6-1-4-2-9-3-5(4)7-6/h1,7-8H,2-3H2
