21
gdb 84145	2.55596	1.21255	0.9338	3.0168	85.59	-0.2314	-0.0178	0.2136	1328.266	0.181115	-387.123875	-387.11429	-387.113346	-387.158665	35.3	
C	-0.6881298057	 1.3530527935	 0.1036515584	-0.407009
C	-0.0438007391	-0.0349646351	-0.0175091572	-0.032902
C	 1.0097177375	-0.1641017303	-1.0945985796	-0.165354
C	 2.0616129762	-0.8948214758	-0.722308972	 0.325184
C	 3.2531578896	-1.2695401082	-1.5451287325	-0.492987
C	 1.8982734903	-1.3856315173	 0.7023518133	-0.334507
C	 0.7152478942	-0.5467997142	 1.2594646294	-0.09513
C	 1.263251786	 0.6029467905	 2.0787857228	 0.165507
O	 0.8527592046	 0.9355156992	 3.1612749372	-0.260685
H	 0.0588750471	 2.1402533059	 0.2471172908	 0.121305
H	-1.2485091603	 1.5923483433	-0.8057951149	 0.113179
H	-1.3838476355	 1.3934102959	 0.9474316758	 0.129677
H	-0.8555673775	-0.7483102862	-0.2269669445	 0.088549
H	 0.8741981052	 0.2649739665	-2.0828165144	 0.086332
H	 3.2005141006	-0.8438651027	-2.5506425035	 0.125308
H	 4.1834468439	-0.9249984939	-1.0756428773	 0.126925
H	 3.3408474296	-2.3595133357	-1.6410413279	 0.127171
H	 1.6685954834	-2.4595616547	 0.7247650313	 0.113339
H	 2.8152549674	-1.262854206	 1.2956082841	 0.104348
H	 0.0524052413	-1.1160566588	 1.9148934576	 0.087212
H	 2.1176230514	 1.139782074	 1.6025533032	 0.074538
58.3672	71.3697	143.1634	193.2868	235.4076	247.4207	283.7662	328.9382	378.394	413.7629	432.7002	497.7567	608.3295	683.9931	834.8544	848.8559	874.2222	905.195	934.4014	974.0686	999.1255	1018.0474	1040.154	1047.7454	1096.3634	1118.6001	1140.8847	1185.5174	1206.8804	1247.4188	1281.1155	1294.3654	1328.7973	1348.4936	1358.8937	1411.9669	1415.4328	1428.5529	1479.463	1486.1322	1489.4683	1494.603	1503.3031	1726.083	1829.6152	2851.2641	2977.5421	3006.3823	3017.4637	3031.9261	3035.2377	3062.1099	3090.207	3103.1216	3109.5767	3112.5221	3177.5285
CC1C=C(C)CC1C=O	C[C@H]1C=C(C)C[C@H]1C=O	
InChI=1S/C8H12O/c1-6-3-7(2)8(4-6)5-9/h3,5,7-8H,4H2,1-2H3	InChI=1S/C8H12O/c1-6-3-7(2)8(4-6)5-9/h3,5,7-8H,4H2,1-2H3/t7-,8-/m0/s1
