17
gdb 11637	3.11115	1.90387	1.4752	4.2278	73.87	-0.3029	0.0255	0.3285	902.4121	0.143534	-326.697686	-326.690505	-326.689561	-326.728954	27.738	
C	-0.1513574715	 1.5831491785	-0.0021568748	-0.44745
C	 0.0229650657	 0.0746158084	 0.0125068121	 0.027717
C	 1.1922748452	-0.6474343861	-0.737693322	-0.080034
C	 2.1659660728	-0.1590264675	 0.3755019142	-0.260649
C	 0.8811205955	-0.6479542547	 1.1173264853	 0.224946
C	 0.9070831599	-1.8839536384	 0.1640014286	-0.253251
C	 0.6373680917	-0.6462394518	 2.5379634573	 0.152022
N	 0.4321555196	-0.6347295476	 3.6763855068	-0.353519
H	 0.7825344852	 2.1345413306	 0.1280049241	 0.124606
H	-0.5920602798	 1.897626309	-0.9542492865	 0.12577
H	-0.8353259071	 1.893845288	 0.7945079983	 0.136373
H	-0.9463576303	-0.4132767691	-0.1373630173	 0.080687
H	 1.3762369952	-0.6523931947	-1.8112234066	 0.08557
H	 3.0606099985	-0.7638082101	 0.5384803454	 0.109324
H	 2.396057464	 0.9043193226	 0.4283295759	 0.111496
H	-0.0451832041	-2.3986121253	 0.0174595802	 0.108143
H	 1.7316007495	-2.5835514319	 0.3151243391	 0.108249
124.367	162.8893	191.3944	295.6562	336.1498	509.4667	526.3494	542.3896	558.0636	603.9824	766.2967	804.3968	814.1629	913.8976	947.568	954.5776	1000.3456	1011.9427	1051.288	1086.6955	1119.263	1134.9427	1148.7736	1165.0952	1181.5869	1216.9734	1240.8953	1242.8844	1268.0043	1406.134	1423.0602	1489.7974	1493.7441	1511.5322	1542.576	2347.3304	3039.8039	3047.3108	3065.2943	3079.5661	3099.6827	3122.7937	3126.6292	3136.4216	3152.348
CC1C2CC1(C2)C#N	C[C@H]1[C@H]2C[C@@]1(C2)C#N	
InChI=1S/C7H9N/c1-5-6-2-7(5,3-6)4-8/h5-6H,2-3H2,1H3	InChI=1S/C7H9N/c1-5-6-2-7(5,3-6)4-8/h5-6H,2-3H2,1H3/t5-,6-,7+/m0/s1
