18
gdb 79092	2.96521	1.66482	1.40511	1.7579	75.99	-0.2219	-0.0036	0.2183	983.73	0.147746	-401.871259	-401.863574	-401.862629	-401.902894	30.792	
C	-0.1404835409	 1.5702017333	-0.030934127	-0.442624
C	 0.0248056542	 0.0646062335	 0.0607064998	 0.006682
N	 1.2288745924	-0.5650075709	-0.6478892091	-0.153233
C	 2.1310681775	-0.1702315903	 0.5575776644	-0.122248
C	 3.1309962743	-1.2919575798	 0.6860359543	-0.086984
C	 2.3933626001	-2.384881004	 0.4807990617	-0.097295
C	 1.0118683092	-1.8245020575	 0.2469766866	-0.061738
C	 0.7670581288	-0.6328659676	 1.2168940713	 0.33307
O	 0.4205454774	-0.7654909952	 2.5468971213	-0.463767
H	 0.7355607669	 2.1241198949	 0.3165895722	 0.117675
H	-0.3316562664	 1.8648500188	-1.0678137629	 0.135231
H	-1.0003145736	 1.8929832251	 0.5669817655	 0.116313
H	-0.9032838754	-0.4330276471	-0.2455191106	 0.070981
H	 2.4699221753	 0.8636354126	 0.5825723171	 0.07009
H	 4.1877882231	-1.1903436369	 0.8856855765	 0.109207
H	 2.675000297	-3.4272565955	 0.4586694965	 0.11137
H	 0.1865418364	-2.4701216696	-0.0547833018	 0.073136
H	 0.1922750437	 0.1027852963	 2.8973563842	 0.284134
167.9426	185.6881	220.8071	246.8785	273.913	320.307	496.4648	519.5923	557.4996	599.6188	693.8422	746.612	764.2913	782.8818	839.47	882.3971	914.5214	915.9152	944.6625	960.0358	989.3128	1013.061	1061.3025	1103.5949	1131.0082	1133.311	1147.4663	1173.0159	1228.2011	1268.443	1275.3617	1297.182	1336.9227	1362.0754	1410.5881	1431.6845	1494.8575	1498.8677	1635.1628	3031.4955	3037.4454	3097.3521	3114.7085	3119.4189	3140.0584	3229.4111	3255.9832	3802.3965
CC1N2C3C=CC2C13O	C[C@H]1N2[C@@H]3C=C[C@H]2[C@]13O	
InChI=1S/C7H9NO/c1-4-7(9)5-2-3-6(7)8(4)5/h2-6,9H,1H3	InChI=1S/C7H9NO/c1-4-7(9)5-2-3-6(7)8(4)5/h2-6,9H,1H3/t4-,5-,6+,7+/m1/s1
