22
gdb 122117	2.24217	0.79959	0.63872	2.9768	80.58	-0.2397	0.0293	0.2691	1798.5041	0.192752	-441.507352	-441.496339	-441.495395	-441.545034	38.178	
C	 0.117284094	 1.5249471457	 0.1041697508	-0.371636
C	-0.0494215231	 0.0123894352	-0.0729044094	-0.168715
N	 0.6414556237	-0.5222617638	-1.2380013831	-0.023651
C	 2.0882896032	-0.7176076812	-1.1987572245	-0.183999
C	 2.4881837866	-2.1218324747	-0.7265824987	-0.203574
C	 4.0048970605	-2.3174697901	-0.7038850121	-0.056227
O	 4.3854459821	-3.5995813937	-0.2324076328	-0.418352
C	-0.0366372182	-0.9013230921	-2.3552454408	 0.145686
O	 0.4701689511	-1.3774659239	-3.3518366842	-0.353233
H	 1.1694106955	 1.8045995796	 0.2131166653	 0.127177
H	-0.2878841774	 2.0618816227	-0.7585313134	 0.128745
H	-0.4118235338	 1.8615212022	 1.001303299	 0.122011
H	 0.304016154	-0.513915904	 0.8226055246	 0.115423
H	-1.1118947396	-0.2315052485	-0.1769176034	 0.119753
H	 2.4668687463	-0.548329566	-2.210478251	 0.138905
H	 2.5224414759	 0.0452460834	-0.5438498413	 0.10461
H	 2.0910307314	-2.3185900288	 0.2761770719	 0.103895
H	 2.0349694133	-2.8524795968	-1.4075808903	 0.116774
H	 4.4225615524	-2.1169999893	-1.7038228445	 0.094388
H	 4.4689250973	-1.6021053854	-0.0147597479	 0.108244
H	 4.0413015562	-4.2520619764	-0.8508857661	 0.282915
H	-1.1268087515	-0.7246768441	-2.259849158	 0.070859
36.2987	69.4003	88.5673	99.1049	126.3354	191.4085	215.6428	269.719	311.5001	328.2386	333.108	418.5445	441.2126	518.6325	644.634	753.6187	792.5918	842.5411	897.3507	966.4296	1025.616	1028.455	1053.8717	1079.494	1088.7751	1110.2454	1123.6753	1161.0438	1259.3665	1284.4195	1286.457	1319.7687	1343.9232	1388.6551	1398.8423	1411.5505	1416.2025	1425.0232	1431.5029	1457.2291	1473.4914	1490.8311	1491.2426	1494.091	1505.634	1515.4518	1785.0424	2929.1237	2975.8667	3025.8067	3031.3537	3040.3977	3049.5366	3054.1253	3073.1984	3078.9249	3107.8705	3113.0343	3119.658	3814.7462
CCN(CCCO)C=O	CCN(CCCO)C=O	
InChI=1S/C6H13NO2/c1-2-7(6-9)4-3-5-8/h6,8H,2-5H2,1H3	InChI=1S/C6H13NO2/c1-2-7(6-9)4-3-5-8/h6,8H,2-5H2,1H3
