21
gdb 58772	3.01386	1.27635	1.23255	1.5421	77.26	-0.245	0.0684	0.3135	1143.6301	0.182853	-424.210584	-424.201936	-424.200992	-424.243752	33.953	
C	 0.1132834041	 1.3897904314	-0.3806379033	-0.41683
C	 0.030634786	-0.0856139967	 0.0079155108	-0.005064
O	 0.7017029883	-0.3666147394	 1.2344998344	-0.430323
C	-1.3960157339	-0.5978960541	 0.0730962309	 0.452702
C	-1.7549480215	-2.1033638087	 0.0341835511	-0.276186
C	-3.0114293918	-1.4754638859	-0.5999162258	 0.075206
C	-3.6798209622	-0.7281626342	 0.5724241596	-0.216207
C	-2.3927955579	-0.0318527496	 1.1204843902	-0.280664
O	-2.1570879364	-0.4346604261	-1.1728032959	-0.341511
H	 1.1593321256	 1.692233586	-0.4773903818	 0.122239
H	-0.3988658651	 1.5648989649	-1.3306131627	 0.143349
H	-0.3575181258	 2.0267273976	 0.3776734538	 0.106642
H	 0.5620118616	-0.6790736206	-0.7445726124	 0.093784
H	 0.3622103603	 0.2430816701	 1.8987238704	 0.281493
H	-1.1483554734	-2.6417989846	-0.695005271	 0.107027
H	-1.8454055563	-2.6579902858	 0.9711509932	 0.095585
H	-3.6389231417	-1.9866416362	-1.329784706	 0.076961
H	-4.4253027246	-0.0137315686	 0.2176425816	 0.107552
H	-4.1533682674	-1.4001863366	 1.2932126278	 0.099191
H	-2.1434716462	-0.3277083863	 2.1429376504	 0.099644
H	-2.4574415115	 1.0571506434	 1.0734177849	 0.10541
60.6377	156.0456	200.6434	239.0411	283.1609	285.0253	324.3048	411.668	474.4343	486.0626	556.4356	628.4439	718.9616	827.3233	834.3346	847.6458	874.4141	900.6152	933.0872	952.81	958.6469	993.8424	1027.1765	1032.511	1070.2642	1087.7902	1112.4202	1140.8309	1165.111	1206.801	1226.9471	1240.8185	1280.7215	1291.8484	1296.9983	1313.3627	1339.4538	1389.4105	1400.4003	1414.363	1480.5243	1482.8204	1490.8988	1496.2516	1507.8791	3031.775	3050.0626	3061.3481	3066.8983	3072.5405	3103.5051	3108.8846	3123.8493	3125.5946	3129.2367	3142.3706	3804.0968
CC(O)C12CC(CC1)O2	C[C@@H](O)[C@@]12C[C@@H](CC1)O2	
InChI=1S/C7H12O2/c1-5(8)7-3-2-6(4-7)9-7/h5-6,8H,2-4H2,1H3	InChI=1S/C7H12O2/c1-5(8)7-3-2-6(4-7)9-7/h5-6,8H,2-4H2,1H3/t5-,6-,7+/m1/s1
