13
gdb 24749	3.71977	1.23784	0.92877	4.779	74.45	-0.2461	-0.0602	0.1859	1155.4608	0.090002	-415.624136	-415.616538	-415.615594	-415.656787	27.685	
O	 0.0084618276	-0.0324875002	 0.0045790855	-0.31801
C	-0.0346960821	 1.1865492837	 0.0077625482	 0.126685
C	 1.1781630948	 1.9861586868	 0.0012632527	 0.296668
C	 2.211252114	 2.6025884342	-0.0044566603	-0.419667
C	-1.3086853278	 1.9187143056	 0.018712666	 0.205347
C	-2.5612227223	 1.3421204169	 0.0263827747	-0.142894
N	-3.4360853275	 2.3890337904	 0.0350778441	-0.240721
C	-2.6959532874	 3.5452031165	 0.0326259217	 0.00596
N	-1.4138426837	 3.2954802423	 0.0228551119	-0.30539
H	 3.1208298432	 3.1520874014	-0.0096957538	 0.207663
H	-2.8732307631	 0.3120077218	 0.0261720634	 0.165314
H	-4.4409530527	 2.3215337913	 0.0420403519	 0.277054
H	-3.1574024129	 4.5213729993	 0.0382916739	 0.141992
70.0448	119.8853	186.137	235.9702	279.8335	445.0531	496.0227	571.297	641.8793	649.1719	679.0026	681.2003	699.9874	776.2922	813.8942	855.2004	934.5075	949.5829	1057.7488	1114.0163	1125.6164	1247.4234	1327.0163	1374.7949	1430.1394	1536.6988	1565.377	1723.0035	2218.8386	3254.1167	3293.1781	3497.0025	3656.237
O=C(C#C)C1=CNC=N1	O=C(C#C)c1c[nH]cn1	
InChI=1S/C6H4N2O/c1-2-6(9)5-3-7-4-8-5/h1,3-4H,(H,7,8)	InChI=1S/C6H4N2O/c1-2-6(9)5-3-7-4-8-5/h1,3-4H,(H,7,8)
