18
gdb 22421	3.67406	1.18745	1.04377	1.7659	75.92	-0.2441	0.011	0.2551	1178.0482	0.147038	-439.028796	-439.020705	-439.019761	-439.061134	31.874	
C	 0.0248701008	 1.484420609	 0.0593699642	-0.49276
C	-0.0189415406	-0.0134795079	-0.0308254145	 0.40153
C	 0.6214386691	-0.8381669326	-1.1796968438	-0.275613
C	 0.6969146588	-1.8512969695	-0.0126030534	-0.021357
O	 0.8845494534	-0.7177677147	 0.8985858342	-0.328409
C	-0.7631198736	-2.1559681033	 0.2341956578	 0.490174
C	-1.3573672148	-0.7562581737	 0.2403094973	-0.354005
N	-1.2583091084	-3.3094616056	 0.3973083619	-0.286622
O	-2.6478043737	-3.2370272463	 0.6184448698	-0.392129
H	 1.0401758995	 1.8539535949	-0.1078267853	 0.129417
H	-0.6369837003	 1.9302027681	-0.6902379529	 0.125125
H	-0.3066232329	 1.818774243	 1.0477726811	 0.132938
H	 0.026231796	-1.0838668841	-2.0631884304	 0.103697
H	 1.608732937	-0.4588636168	-1.4473457109	 0.112932
H	 1.4325628071	-2.6472089498	 0.0729606164	 0.09537
H	-1.7823295136	-0.4919293331	 1.2124488005	 0.131402
H	-2.1228063091	-0.6115204713	-0.5278707125	 0.121969
H	-2.8818770548	-4.1633065862	 0.7410980204	 0.30634
108.6856	177.2049	196.6891	268.4091	310.0567	349.6604	403.9695	442.8093	462.2477	546.2396	591.6465	618.1329	710.3693	804.5231	817.3901	830.1921	870.694	925.7115	958.3185	960.2464	981.7429	1023.3424	1063.2757	1088.7146	1139.8159	1183.6427	1205.75	1209.0282	1249.5617	1259.9922	1275.0823	1346.311	1407.1028	1418.2052	1460.0722	1479.6462	1489.3051	1493.5076	1794.8324	3039.0706	3060.296	3065.4355	3107.076	3110.2092	3119.4069	3139.7614	3161.7575	3817.0333
CC12CC(O1)C(C2)=NO	C[C@@]12C[C@@H](O1)C(=NO)C2	
InChI=1S/C6H9NO2/c1-6-2-4(7-8)5(3-6)9-6/h5,8H,2-3H2,1H3	InChI=1S/C6H9NO2/c1-6-2-4(7-8)5(3-6)9-6/h5,8H,2-3H2,1H3/t5-,6-/m1/s1
