20
gdb 26406	4.05449	0.8813	0.84815	1.1121	80.49	-0.239	0.0061	0.245	1452.0679	0.171169	-403.193257	-403.18421	-403.183266	-403.227845	33.254	
C	 0.035749418	 1.5271327179	-0.0709107299	-0.394177
C	 0.0524864739	 0.002730775	 0.0919420072	 0.05426
C	 0.7331244289	-0.4052879511	 1.4040913479	-0.385277
C	-1.3820301294	-0.565745449	-0.0084827213	-0.315216
C	-1.4358877308	-2.0560925028	-0.099702715	 0.262938
C	-1.967048593	-2.9692009941	 0.7500296498	-0.122004
O	-1.7710666156	-4.2196686743	 0.2255332412	-0.139938
C	-1.1176243704	-3.9884218137	-0.9333018401	 0.074822
N	-0.8882801878	-2.743665728	-1.1873762581	-0.300419
H	 1.0494780381	 1.9388695286	-0.0314812673	 0.110616
H	-0.4097351002	 1.8228742633	-1.0266230707	 0.111309
H	-0.5450729995	 2.0022200773	 0.729344813	 0.109008
H	 0.6239834385	-0.4276804224	-0.7400556357	 0.097541
H	 0.7500044687	-1.4920850997	 1.527649536	 0.116787
H	 1.7670125686	-0.0468047238	 1.4377528698	 0.111282
H	 0.2065824971	 0.0215650553	 2.2670283316	 0.105468
H	-1.970784174	-0.2335842812	 0.8558319762	 0.096541
H	-1.8640055301	-0.1454371532	-0.8999996463	 0.11253
H	-2.4842753088	-2.9196812673	 1.6925098639	 0.144483
H	-0.8580958723	-4.8528620569	-1.5244092723	 0.149446
48.9377	75.8845	113.0691	219.9419	245.0161	289.5912	317.3704	346.0717	417.2253	426.777	638.7385	678.1331	746.0094	776.2436	829.8484	848.9	888.5039	931.0382	936.189	952.6627	968.4024	990.7951	1093.5067	1107.092	1134.9009	1139.0027	1191.4947	1234.9312	1252.9729	1286.896	1318.4609	1345.657	1372.0469	1376.4653	1401.5739	1421.5205	1473.3891	1487.7944	1493.7672	1503.5254	1509.6219	1559.574	1628.8477	3019.4028	3021.7697	3023.8988	3032.7444	3063.1592	3085.958	3093.4024	3099.7565	3108.4294	3273.7706	3293.7083
CC(C)CC1=COC=N1	CC(C)Cc1cocn1	
InChI=1S/C7H11NO/c1-6(2)3-7-4-9-5-8-7/h4-6H,3H2,1-2H3	InChI=1S/C7H11NO/c1-6(2)3-7-4-9-5-8-7/h4-6H,3H2,1-2H3
