15
gdb 105151	2.53072	1.22455	0.95889	1.7558	75.9	-0.2603	-0.0047	0.2556	1221.8125	0.108275	-420.520913	-420.511517	-420.510573	-420.555316	34.153	
O	 0.1376576344	 1.3273864944	-0.4396187122	-0.408187
C	 0.0330051874	 0.1469552183	 0.3277644524	-0.136649
C	-1.3595346731	-0.4545663938	 0.2158309429	 0.11475
O	-1.6316807292	-1.0202365248	-1.084141518	-0.270424
C	-1.5469592729	-1.9239531001	 0.0245429146	-0.210715
C	-0.4604255065	-2.8650886201	 0.0543881864	 0.330099
C	 0.414940969	-3.6879776845	 0.0940285937	-0.399673
C	-2.4361280064	 0.3052978953	 0.8020435682	 0.313552
C	-3.3153235371	 0.9393464059	 1.3202820917	-0.406137
H	-0.0491738511	 1.0868004707	-1.3543740346	 0.296127
H	 0.767581672	-0.6102226495	 0.0254333034	 0.110248
H	 0.2312784345	 0.4285512633	 1.3659752469	 0.123874
H	-2.5105108357	-2.3258385586	 0.3352563194	 0.130037
H	 1.1941105837	-4.4095783318	 0.1262268501	 0.2088
H	-4.0937762189	 1.5068255855	 1.768033635	 0.204298
66.7396	106.7316	122.9087	152.2602	218.7731	262.5519	332.9853	409.2839	413.225	452.3054	526.3028	583.4773	625.1808	634.6795	647.7017	668.5125	676.4971	716.1357	838.7885	936.8923	949.4221	1020.2525	1072.8561	1095.195	1189.5836	1261.0036	1305.35	1379.1901	1417.193	1426.4832	1490.8221	2237.028	2243.0604	3027.653	3097.9009	3121.9637	3499.551	3500.5391	3800.227
OCC1(OC1C#C)C#C	OC[C@]1(O[C@H]1C#C)C#C	
InChI=1S/C7H6O2/c1-3-6-7(4-2,5-8)9-6/h1-2,6,8H,5H2	InChI=1S/C7H6O2/c1-3-6-7(4-2,5-8)9-6/h1-2,6,8H,5H2/t6-,7+/m0/s1
