15
gdb 126836	5.08857	0.9331	0.83627	5.7064	70.98	-0.2685	-0.0693	0.1991	1347.237	0.11272	-450.123622	-450.115348	-450.114404	-450.157825	28.359	
C	 0.0970128228	 1.5407455117	 0.0270809136	-0.384663
C	-0.0340846942	 0.0208927692	-0.0456074343	-0.140493
N	 0.6616596718	-0.5347218693	-1.2032460793	 0.143898
N	 0.0138590525	-1.0041916279	-2.2760418846	-0.110577
N	 0.9287233345	-1.3857014391	-3.1200610003	-0.233518
C	 2.1225393667	-1.1299519398	-2.5245130065	 0.292537
C	 3.45846991	-1.3982373327	-3.094943776	 0.103179
O	 3.649060058	-1.8806994905	-4.1812422761	-0.237343
N	 1.9729227142	-0.5904155142	-1.3123955454	-0.274926
H	 1.1464757317	 1.835060837	 0.1029978248	 0.151231
H	-0.3376462432	 2.0115634229	-0.8585942599	 0.145369
H	-0.4316542186	 1.9095751666	 0.9101696296	 0.136742
H	 0.3853636084	-0.4565145962	 0.8432913204	 0.149192
H	-1.0739434932	-0.2911401539	-0.1551094884	 0.158972
H	 4.2849827788	-1.1068745038	-2.4145501776	 0.1004
38.697	82.6788	158.0022	174.2292	228.0461	278.4116	353.6991	421.4261	499.4246	696.4279	727.7139	748.3813	788.3873	798.8881	982.6973	1031.6573	1037.2568	1069.589	1105.1947	1115.1496	1221.0593	1277.6801	1341.523	1382.308	1389.4249	1406.2757	1414.9308	1436.2979	1479.8424	1489.3047	1503.982	1507.19	1822.6415	2926.5814	3053.0429	3081.6988	3127.0274	3131.2999	3150.1315
CCN1N=NC(C=O)=N1	CCn1nnc(C=O)n1	
InChI=1S/C4H6N4O/c1-2-8-6-4(3-9)5-7-8/h3H,2H2,1H3	InChI=1S/C4H6N4O/c1-2-8-6-4(3-9)5-7-8/h3H,2H2,1H3
