22
gdb 6893	2.68793	1.41751	1.23982	1.3739	78.69	-0.2377	0.0751	0.3128	1147.4417	0.197632	-350.200372	-350.1903	-350.189355	-350.234609	37.277	
C	-0.5460387828	 0.5362050828	-2.6352567983	-0.372418
C	-0.2350990018	-0.4608500981	-1.5115064612	-0.204945
C	-1.4791463048	-0.8903988038	-0.7595505409	-0.040048
C	-2.3603185936	-2.0674374024	-1.1793022744	-0.081744
C	-2.0755414931	-2.9372085737	-2.3859310647	-0.414945
C	-1.5581436113	-2.1164271733	 0.106905994	 0.357279
C	-0.3894560273	-3.0571543198	 0.30070391	-0.449432
O	-2.2813183945	-1.892853618	 1.2986642354	-0.46618
H	 0.3665625966	 0.8510984969	-3.1511983727	 0.107865
H	-1.2196129552	 0.096887076	-3.3783056648	 0.118025
H	-1.0330403142	 1.4341677121	-2.2396189745	 0.115415
H	 0.2848899368	-1.3276616677	-1.9325693345	 0.091884
H	 0.4698338408	-0.0032368847	-0.804933223	 0.099753
H	-2.0402443263	-0.055182769	-0.3462497622	 0.089691
H	-3.4201124599	-1.8962011523	-1.0059013046	 0.08189
H	-1.0064913357	-3.0773422012	-2.5640659808	 0.115683
H	-2.5185391249	-3.9328186716	-2.2674330353	 0.113252
H	-2.5008983408	-2.4958373983	-3.2943935234	 0.118467
H	 0.1992430278	-3.1950032152	-0.6085634917	 0.116799
H	 0.2734759741	-2.6749367315	 1.0835131906	 0.125898
H	-0.7421310863	-4.0476936619	 0.615483414	 0.103917
H	-2.7105733135	-2.7218750051	 1.5395018831	 0.273892
75.7861	141.0591	161.399	185.8224	196.2416	233.8866	248.3196	285.096	301.1605	326.9077	415.6231	458.2465	492.8438	550.3662	691.9945	767.3725	796.263	842.7126	921.8081	967.1806	986.3952	1021.3391	1045.9174	1055.754	1090.7704	1104.7746	1137.0978	1160.8482	1182.2549	1235.9355	1290.2703	1293.5321	1331.4222	1344.8091	1387.7645	1409.3727	1412.7175	1422.1248	1459.0428	1479.5849	1489.3056	1493.9665	1498.3735	1499.7054	1505.7794	1519.1967	3020.9269	3024.1165	3029.75	3032.0586	3061.1927	3081.3784	3086.82	3100.3387	3104.6673	3109.7967	3126.9676	3129.6402	3140.7794	3784.0026
CCC1C(C)C1(C)O	CC[C@H]1[C@@H](C)[C@]1(C)O	
InChI=1S/C7H14O/c1-4-6-5(2)7(6,3)8/h5-6,8H,4H2,1-3H3	InChI=1S/C7H14O/c1-4-6-5(2)7(6,3)8/h5-6,8H,4H2,1-3H3/t5-,6+,7+/m1/s1
