20
gdb 31782	3.01013	1.27022	0.96036	1.0208	84.46	-0.1689	0.0594	0.2283	1268.8934	0.171805	-399.347228	-399.33732	-399.336376	-399.382302	35.941	
C	-0.7041159993	 0.9035103562	-0.0556384194	-0.322139
N	 0.4831432444	 0.0691792413	 0.1636854778	-0.384468
C	 0.9963336597	-0.5687966353	-0.984450246	 0.237427
C	 1.7801017128	-0.1238020644	-2.0240834533	-0.21102
C	 2.0140104795	-1.2253241676	-2.8956556578	-0.223538
C	 1.3455613136	-2.3089524765	-2.3694049235	 0.269922
N	 1.1457437439	-3.6182238217	-2.8540654219	-0.610012
N	 0.7248353491	-1.9159930267	-1.2078206748	-0.03866
C	-0.0692472486	-2.7724569667	-0.3552559114	-0.339433
H	-0.5496734033	 1.7071740631	-0.791622216	 0.108252
H	-1.5264413316	 0.2769569459	-0.4139887207	 0.125992
H	-1.0103000516	 1.3516514194	 0.895220667	 0.111002
H	 1.2062460628	 0.6090083126	 0.6231439354	 0.229521
H	 2.1542177513	 0.8827486508	-2.1387531394	 0.079527
H	 2.5995625184	-1.2275158501	-3.8027518861	 0.076658
H	 1.5082166506	-3.6999901545	-3.7960206884	 0.244305
H	 1.6088395667	-4.321701534	-2.2845743857	 0.238735
H	 0.5252768153	-3.6040004332	 0.0413512369	 0.118058
H	-0.4215233213	-2.1708210863	 0.4829022301	 0.152491
H	-0.9185934023	-3.1907776024	-0.9040853729	 0.13738
44.534	108.6302	142.4346	165.5035	187.9088	193.9239	261.6678	290.196	326.528	399.3948	524.0003	585.2692	641.205	662.3925	699.8496	728.6342	752.5613	769.3178	798.5217	836.2867	963.8375	1030.8899	1056.117	1126.1142	1142.2629	1156.5814	1161.4319	1213.0936	1231.3176	1262.1767	1338.5404	1394.5827	1431.0541	1453.984	1461.3971	1487.9946	1494.0353	1509.6093	1512.919	1520.8679	1558.9491	1610.0326	1655.6476	2986.2458	3026.7459	3068.3659	3083.8434	3106.5724	3152.3095	3231.8774	3247.3902	3480.3613	3541.7108	3596.0506
CNC1=CC=C(N)N1C	CNc1ccc(N)n1C	
InChI=1S/C6H11N3/c1-8-6-4-3-5(7)9(6)2/h3-4,8H,7H2,1-2H3	InChI=1S/C6H11N3/c1-8-6-4-3-5(7)9(6)2/h3-4,8H,7H2,1-2H3
