15
gdb 129465	4.66384	0.98092	0.84236	2.4575	66.88	-0.2454	0.0053	0.2508	1291.2613	0.11417	-450.162035	-450.153767	-450.152823	-450.196328	29.431	
N	 0.2282082376	 1.1968701747	-0.275186557	-0.518805
C	-0.0603818104	 0.0278704678	 0.3617504791	 0.413839
O	 0.4872672525	-0.3036795522	 1.396540869	-0.359066
C	-1.1726928559	-0.7974541345	-0.2903045145	-0.436114
C	-0.9796279275	-2.2736528964	-0.1530424587	 0.319392
C	-0.4828109836	-3.02000256	 0.8908197155	-0.143988
N	-0.5660493399	-4.2928958848	 0.4410342098	-0.156375
N	-1.0777437736	-4.3525036042	-0.801610974	-0.119702
N	-1.3296758752	-3.1263840957	-1.1611437794	-0.25686
H	 0.9549220799	 1.7792694306	 0.1082089457	 0.263434
H	-0.1452868701	 1.4230669193	-1.1796989903	 0.263838
H	-2.1068323208	-0.485646505	 0.1980545423	 0.149959
H	-1.2879455753	-0.5601856589	-1.3517644586	 0.126666
H	-0.0823325137	-2.7420732059	 1.8485270531	 0.172385
H	-0.2901044441	-5.1454943346	 0.901330188	 0.281397
40.6478	51.8313	150.3666	206.6831	287.7928	327.9592	371.2395	505.9216	584.5587	593.9615	654.4202	685.7483	733.9865	794.6091	824.4766	865.4744	957.3951	988.045	1037.1277	1053.7463	1090.3549	1127.4123	1193.3529	1254.7298	1274.2293	1328.5527	1343.6927	1405.6606	1458.8189	1495.3203	1588.4903	1619.3952	1792.5701	3016.9598	3090.1488	3315.9075	3603.3471	3659.3081	3740.7705
NC(=O)CC1=CNN=N1	NC(=O)Cc1c[nH]nn1	
InChI=1S/C4H6N4O/c5-4(9)1-3-2-6-8-7-3/h2H,1H2,(H2,5,9)(H,6,7,8)	InChI=1S/C4H6N4O/c5-4(9)1-3-2-6-8-7-3/h2H,1H2,(H2,5,9)(H,6,7,8)
