16
gdb 127890	2.5722	1.65294	1.01316	4.8883	82.9	-0.1919	-0.0369	0.155	1124.9763	0.125308	-430.221613	-430.213126	-430.212182	-430.255068	31.432	
C	 0.0266677221	 1.344445354	 0.0184645822	-0.30922
N	 0.0087314506	-0.1081262571	-0.0119285718	-0.338323
C	-1.1271747778	-0.7062488711	-0.0090976103	 0.376745
N	-2.3590238825	-0.0300730806	 0.020372557	-0.306895
N	-3.4743883024	-0.6535854189	 0.0486584042	-0.062426
N	-3.4701149806	-1.9842941136	 0.0519189622	-0.218309
C	-2.3449126795	-2.7834059714	 0.0146790546	-0.078656
C	-1.1327127816	-2.1729117875	-0.0294945652	 0.248867
N	 0.0843173116	-2.7743269045	-0.1209152912	-0.584895
H	 1.0647529982	 1.6864697887	 0.0478386846	 0.104742
H	-0.4567881393	 1.7791768838	-0.8663742764	 0.122404
H	-0.5003983541	 1.7488117473	 0.8926390426	 0.121643
H	-4.3937876436	-2.3848154762	 0.0766373925	 0.2795
H	-2.5096182514	-3.8526670608	 0.0150004908	 0.12336
H	 0.195161483	-3.7310952643	 0.1699084102	 0.250568
H	 0.8480325673	-2.1305604876	 0.049034104	 0.270894
50.2153	111.7403	204.3068	211.0684	294.8887	327.6804	371.9284	453.7282	509.806	515.4491	547.9331	574.4619	609.3771	643.5046	769.9708	783.8087	797.5366	942.7609	1007.0255	1068.3036	1096.089	1106.7099	1155.243	1214.1071	1249.1814	1335.5683	1410.7545	1437.5521	1460.9716	1488.0922	1493.3996	1547.8731	1595.9083	1676.7682	1699.1437	3003.5841	3053.0478	3096.9276	3214.3582	3531.2868	3651.7096	3690.2676
CN=C1N=NNC=C1N	C[N]c1nn[nH]cc1N	
InChI=1S/C4H7N5/c1-6-4-3(5)2-7-9-8-4/h2H,1H3,(H2,5,9)(H,6,7,8)	InChI=1S/C4H12N5/c1-6-4-3(5)2-7-9-8-4/h3-4,7-9H,2,5H2,1H3
