18
gdb 10911	3.24143	1.91166	1.5236	2.267	67.02	-0.2512	0.0641	0.3153	892.2542	0.153189	-384.911701	-384.903592	-384.902647	-384.943657	31.13	
C	-0.0750340355	 1.4806187618	-0.0065038451	-0.502432
C	 0.081017705	-0.0145073254	-0.0289971828	 0.314514
C	-0.8056826325	-0.9450193223	 0.767959208	-0.349419
C	 0.6694922964	-0.9728088322	 1.0281026612	-0.106057
C	 1.3561350173	-1.7968287495	-0.0660718665	 0.104875
O	 0.9330718902	-3.1275793159	-0.227666001	-0.446247
C	 0.7790247519	-0.8009770793	-1.1357400148	 0.021762
O	-0.0019453884	-1.4027096653	-2.1576122342	-0.443215
H	 0.8714691763	 1.9834176063	-0.2347314297	 0.120661
H	-0.8146150224	 1.8170817455	-0.7430024619	 0.123078
H	-0.40931997	 1.8275426916	 0.9765863197	 0.121277
H	-1.4106039895	-0.4497870496	 1.5204183215	 0.114298
H	-1.2783798569	-1.8206499641	 0.3302873172	 0.107836
H	 1.0953304032	-0.724491774	 1.9926725538	 0.087473
H	 2.449778505	-1.7474764546	-0.00050078	 0.069763
H	 0.5790895993	-3.1718320299	-1.1280187244	 0.283989
H	 1.5649013717	-0.225514157	-1.6324786569	 0.08687
H	-0.9172725112	-1.4151666063	-1.857657944	 0.290973
111.7831	190.6468	203.5712	239.9823	261.6543	281.8477	340.4846	466.1268	504.2136	546.5807	579.8621	696.9041	739.4539	794.1309	852.4764	901.5401	953.1795	965.021	991.094	1026.6576	1068.3425	1090.114	1105.71	1107.3451	1149.0975	1174.4186	1218.9341	1255.1178	1298.0264	1314.5638	1365.3017	1375.9084	1399.5074	1417.4969	1430.7713	1486.997	1497.2951	1500.724	3022.6586	3025.4423	3074.546	3081.4856	3098.3453	3115.0549	3186.1263	3202.7178	3719.6283	3813.0963
CC12CC1C(O)C2O	C[C@]12C[C@H]1[C@@H](O)[C@H]2O	
InChI=1S/C6H10O2/c1-6-2-3(6)4(7)5(6)8/h3-5,7-8H,2H2,1H3	InChI=1S/C6H10O2/c1-6-2-3(6)4(7)5(6)8/h3-5,7-8H,2H2,1H3/t3-,4+,5+,6-/m0/s1
