18
gdb 32996	5.10188	0.89904	0.77299	4.3496	83.8	-0.215	-0.029	0.186	1462.9025	0.149936	-398.179471	-398.171087	-398.170143	-398.213	30.819	
C	-0.0569325999	 1.5629822665	 0.0013216897	-0.408842
C	 0.0002855375	 0.0406536349	-0.067735916	-0.110429
N	-1.3219245353	-0.5281458746	 0.140480051	-0.393708
C	-1.5592508936	-1.8841235357	 0.0618031281	 0.287446
C	-0.5510311939	-2.8602162947	 0.0860088786	-0.052092
N	-0.8171186669	-4.1664144397	 0.0541703752	-0.24463
C	-2.0977245286	-4.519629637	-0.0114641434	 0.050977
N	-3.1434885702	-3.6876577377	-0.0543162562	-0.2409
C	-2.8683466328	-2.3914450163	-0.0180179939	-0.049822
H	 0.9401556237	 1.9889267481	-0.1355714817	 0.130737
H	-0.7029339416	 1.9693767783	-0.7853644535	 0.121981
H	-0.4447319148	 1.8950845458	 0.9689074088	 0.133829
H	 0.4287827161	-0.2774601847	-1.0325736719	 0.104656
H	 0.672878022	-0.3356655344	 0.7130831251	 0.121266
H	-2.0851878904	 0.0534621854	-0.17312499	 0.23648
H	 0.4976765587	-2.5807058999	 0.1336818462	 0.104474
H	-2.3164008618	-5.5832632536	-0.037072254	 0.110629
H	-3.7146037082	-1.7042531207	-0.0525466721	 0.097948
64.0511	103.3583	145.7489	216.4766	261.1646	333.333	377.4367	434.9662	463.819	526.542	633.791	658.5026	753.6422	821.9521	852.7275	906.8519	941.0794	956.1189	972.1144	1040.5785	1072.9991	1144.5493	1163.8129	1172.8443	1226.4095	1245.3011	1297.7428	1329.9349	1378.123	1389.8277	1414.8635	1446.1778	1474.0717	1492.1976	1500.2225	1527.6753	1530.435	1592.207	1623.9928	2966.5472	3033.621	3039.3681	3105.3682	3117.7034	3125.9026	3166.3935	3176.1793	3595.4914
CCNC1=CN=CN=C1	CCNc1cncnc1	
InChI=1S/C6H9N3/c1-2-9-6-3-7-5-8-4-6/h3-5,9H,2H2,1H3	InChI=1S/C6H9N3/c1-2-9-6-3-7-5-8-4-6/h3-5,9H,2H2,1H3
