17
gdb 46574	3.17487	1.69309	1.35978	4.4449	72.21	-0.2545	0.0065	0.261	952.6463	0.138404	-421.790643	-421.784137	-421.783193	-421.821407	26.697	
O	-0.1725076435	-0.0647415214	 0.0278142305	-0.333873
C	-0.0188928383	 1.119702665	 0.0150909365	 0.40684
O	-1.1027621286	 1.9799932779	-0.0838203067	-0.246483
C	-0.7386107791	 3.3890129129	-0.0031712023	-0.19978
C	 0.6566562125	 3.3033410358	 0.5605965292	 0.292494
C	 2.1067333112	 3.8705219284	 0.5487489775	-0.309188
C	 2.201001623	 2.411559193	 1.1460139107	-0.07371
C	 0.9554964367	 2.7591167933	 1.9970390734	-0.259702
C	 1.2247444632	 1.9919554027	-0.0009554219	-0.146031
H	-0.7786386026	 3.8252235866	-1.007844906	 0.120789
H	-1.477913342	 3.8774381228	 0.6362265663	 0.126337
H	 2.5632493428	 4.0304155596	-0.4311929423	 0.104795
H	 2.3285658059	 4.6879991954	 1.2387099243	 0.104331
H	 3.1065750151	 1.8987736112	 1.4680108073	 0.090804
H	 1.0877648059	 3.5118460275	 2.7776407817	 0.097006
H	 0.3520719234	 1.920400604	 2.350667574	 0.125063
H	 1.6376639946	 2.0327997655	-1.0151486921	 0.100307
148.4624	219.0174	298.0474	354.9786	480.0315	565.8921	575.3558	606.0476	655.3505	747.7896	781.8366	849.1182	885.4165	895.1955	926.0261	960.8008	995.4486	997.1756	1014.2148	1024.6758	1046.6873	1100.2737	1122.0349	1134.5029	1157.3374	1163.913	1202.6693	1214.9526	1220.774	1250.0158	1297.4001	1350.8227	1375.5405	1500.7096	1508.709	1542.6433	1884.912	3040.7687	3049.8528	3058.4094	3064.1318	3104.6046	3122.4308	3127.2765	3130.2653
O=C1OCC23CC(C2)C13	O=C1OC[C@@]23C[C@@H](C2)[C@@H]13	
InChI=1S/C7H8O2/c8-6-5-4-1-7(5,2-4)3-9-6/h4-5H,1-3H2	InChI=1S/C7H8O2/c8-6-5-4-1-7(5,2-4)3-9-6/h4-5H,1-3H2/t4-,5-,7+/m0/s1
