17
gdb 67394	2.76627	1.5677	1.40868	2.5114	71.99	-0.2312	-0.0112	0.22	978.4623	0.136753	-421.822671	-421.815436	-421.814492	-421.854105	29.22	
O	-0.1153793332	 1.3903128269	-0.0078729222	-0.458176
C	 0.0141708555	 0.02296768	-0.0147724717	 0.3767
C	-1.0526982388	-1.0164355849	 0.0226515342	-0.107635
C	-0.4569397737	-1.7577162658	-1.1685317612	-0.23451
C	 0.8300997178	-0.8788289764	-1.0165115661	-0.126495
C	 1.8762507544	-1.6064508659	-0.1725828642	-0.334094
C	 1.1921380362	-1.7704429453	 1.1993036528	 0.40985
O	 1.605543769	-2.4247304253	 2.1249271564	-0.333734
C	-0.0203054063	-0.8956702299	 1.1883444959	-0.245098
H	 0.6469498342	 1.7731675237	 0.4412369747	 0.291439
H	-2.0998417632	-0.9149792623	 0.2807663984	 0.104727
H	-0.3216517098	-2.8414540057	-1.0863841352	 0.102585
H	-1.002523089	-1.5292167022	-2.0872945447	 0.113182
H	 1.1994261245	-0.4016199838	-1.9227242063	 0.084118
H	 2.1910596218	-2.5732287386	-0.5747478637	 0.127422
H	 2.779922702	-1.0004181813	-0.0272776929	 0.122211
H	-0.4465470815	-0.559591103	 2.1255689159	 0.107507
112.9003	209.0945	274.8356	320.2495	384.3716	402.2868	475.4945	554.5464	567.445	622.0582	664.768	711.8453	797.4	857.4989	875.6525	897.2051	908.0104	969.4336	1003.1122	1018.8436	1042.7452	1073.0986	1116.1563	1120.0801	1141.465	1187.4558	1204.882	1210.931	1257.1476	1276.6689	1291.5253	1313.1388	1323.2	1448.183	1470.5307	1501.02	1828.894	3034.3406	3044.0977	3098.9204	3105.2881	3129.0092	3189.1447	3203.6752	3788.8385
OC12C3CC1CC(=O)C23	O[C@@]12[C@H]3C[C@@H]1CC(=O)[C@@H]23	
InChI=1S/C7H8O2/c8-5-2-3-1-4-6(5)7(3,4)9/h3-4,6,9H,1-2H2	InChI=1S/C7H8O2/c8-5-2-3-1-4-6(5)7(3,4)9/h3-4,6,9H,1-2H2/t3-,4+,6+,7-/m1/s1
