12
gdb 23684	3.67664	2.02946	1.30765	2.5127	62.33	-0.2183	-0.0475	0.1708	835.1142	0.08438	-422.658546	-422.652396	-422.651451	-422.688968	23.447	
F	 0.1207203892	 0.0774358934	 0.0017699264	-0.038418
C	-0.0564009244	 1.3786912828	 0.0111196313	 0.410818
C	-1.2584090843	 1.9771712622	 0.0307390777	-0.381122
C	-1.2490163252	 3.4143539091	 0.0382769959	-0.05189
C	-0.0880539803	 4.1053923088	 0.0260998113	-0.167009
C	 1.1894878509	 3.4280150162	 0.0050285206	 0.396821
N	 2.3233200679	 3.9897484645	-0.0074587382	-0.528429
O	 1.1125956824	 2.0074021837	-0.0014961378	-0.250013
H	-2.1633579191	 1.3890964391	 0.0399713883	 0.127434
H	-2.1968373624	 3.941069444	 0.0540402411	 0.123863
H	-0.0476145588	 5.1859423299	 0.0313137813	 0.128822
H	 3.0798190739	 3.3070367363	-0.021435748	 0.229125
137.5374	203.8855	343.0658	418.6647	502.6273	522.0958	535.7464	659.6135	708.4432	751.5398	783.6686	826.4544	852.0613	888.5853	996.9164	999.1687	1023.8955	1094.1383	1163.1838	1232.2414	1302.1074	1403.3589	1436.4211	1608.8495	1695.3755	1759.3812	3195.4119	3236.144	3250.7625	3507.2396
FC1=CC=CC(=N)O1	FC1=CCC=C([NH])O1	
InChI=1S/C5H4FNO/c6-4-2-1-3-5(7)8-4/h1-3,7H	InChI=1S/C5H5FNO/c6-4-2-1-3-5(7)8-4/h2-3,7H,1H2
