19
gdb 42074	2.48492	1.59349	1.08736	1.3731	83.06	-0.2327	0.0066	0.2393	1133.7969	0.160712	-385.840944	-385.832726	-385.831782	-385.873474	31.801	
C	-0.1511769249	 1.214891712	 0.1721569567	-0.054606
C	 1.1638108232	 2.0341284259	 0.1182211049	-0.275248
C	 2.2614062776	 1.6452623283	 1.08043668	-0.008876
C	 3.4469607277	 1.0878767265	 0.8236445132	-0.054685
C	 3.9602232493	 0.5627547304	-0.5188604183	-0.394924
C	 2.8506349188	-0.0617959005	-1.2282130471	 0.11068
C	 1.7425793779	-0.4198214371	-1.535758367	 0.008021
C	 0.2913450285	-0.5664632324	-1.3956303633	-0.210762
O	-0.100793899	-0.1790246381	-0.0842861078	-0.224399
H	-0.5776818218	 1.2852877177	 1.1788109558	 0.108733
H	-0.8617265372	 1.6934756676	-0.5229990943	 0.086024
H	 1.5328693273	 2.0793980558	-0.9065216694	 0.118396
H	 0.8530677528	 3.0582066954	 0.3746556878	 0.099721
H	 2.062769146	 1.9074886663	 2.1192806742	 0.086906
H	 4.1365876094	 0.9490141053	 1.6525938142	 0.091216
H	 4.4069740652	 1.3736303921	-1.111926461	 0.137109
H	 4.7717948752	-0.1509942698	-0.3364305462	 0.132906
H	-0.2429032052	 0.0262938689	-2.1560348429	 0.110503
H	-0.0299544407	-1.6069314942	-1.5091559895	 0.133283
98.9038	167.1788	212.1669	229.9676	294.9981	343.9435	357.9036	413.607	439.1097	521.3298	602.245	658.869	712.1575	802.1378	807.1568	849.0376	913.7772	955.3094	978.4021	1001.975	1017.7373	1028.9373	1112.7605	1118.0112	1149.4366	1208.9656	1242.4521	1263.9563	1289.3226	1320.7873	1329.1463	1365.506	1382.482	1408.5113	1428.1655	1471.0884	1476.396	1480.5097	1489.0331	1714.816	2348.1915	2961.7266	2973.8748	3004.3409	3006.5786	3050.5716	3065.0747	3069.0638	3116.5417	3130.3939	3160.0651
C1CC=CCC#CCO1	C1CC=CCC#CCO1	
InChI=1S/C8H10O/c1-2-4-6-8-9-7-5-3-1/h1,3H,2,5,7-8H2/b3-1-	InChI=1S/C8H10O/c1-2-4-6-8-9-7-5-3-1/h1,3H,2,5,7-8H2/b3-1-
