19
gdb 74652	3.79824	1.54388	1.41298	1.2222	80.33	-0.23	0.0154	0.2454	990.3067	0.161605	-385.876966	-385.870119	-385.869175	-385.907862	28.662	
C	-0.0568065674	 1.4819284029	 0.0802511055	-0.511069
C	 0.0864253324	 0.0017861665	-0.0437985768	 0.337243
C	 0.0226144534	-0.7780352015	-1.1360786866	-0.1892
C	 0.1051719722	-2.2001076296	-0.700457312	-0.082214
C	-1.0260989975	-2.6802464484	 0.3544585543	 0.086508
C	 0.0969601335	-3.4081983086	 1.1203912831	-0.247109
C	 0.9069717916	-2.1821833615	 0.6424228355	-0.063813
C	 0.1120457288	-0.9466958065	 1.1411015954	-0.011152
O	-1.2455357915	-1.5310997635	 1.157706319	-0.281252
H	 0.7854622643	 1.9245451882	 0.6270626067	 0.122641
H	-0.1154891165	 1.9626398599	-0.9002435623	 0.123858
H	-0.964926397	 1.7409596632	 0.639313055	 0.137877
H	-0.1537236877	-0.4446340173	-2.1522524009	 0.092543
H	 0.375775834	-2.9657284153	-1.4258815647	 0.06924
H	-1.9717058601	-3.1280845388	 0.0543360782	 0.079792
H	-0.0599468972	-3.5603275749	 2.1903398619	 0.097596
H	 0.4323471974	-4.3280873205	 0.6353673344	 0.097523
H	 1.9945031785	-2.1159161907	 0.6577269297	 0.072887
H	 0.3357125389	-0.5346133137	 2.1255095446	 0.068098
156.4559	176.1156	264.9327	411.794	430.2897	483.6996	528.5403	576.2958	702.2949	731.0856	769.2765	825.2554	853.0569	856.8865	880.6897	897.4468	925.9329	941.3804	974.3493	987.2194	1008.434	1029.7684	1060.0488	1064.9189	1085.5695	1110.6998	1166.9328	1179.9833	1223.1842	1228.4452	1246.3537	1269.6451	1271.5625	1308.1689	1334.413	1342.1869	1410.7464	1478.8542	1487.3193	1490.0273	1680.9924	3016.7342	3063.7389	3065.3303	3108.1071	3112.2196	3123.3745	3127.7824	3130.8519	3141.5354	3195.5229
CC1=CC2C3CC2C1O3	CC1=C[C@@H]2[C@H]3C[C@@H]2[C@@H]1O3	
InChI=1S/C8H10O/c1-4-2-5-6-3-7(5)9-8(4)6/h2,5-8H,3H2,1H3	InChI=1S/C8H10O/c1-4-2-5-6-3-7(5)9-8(4)6/h2,5-8H,3H2,1H3/t5-,6-,7+,8+/m0/s1
