14
gdb 132018	2.37736	1.88253	1.05313	6.7559	71.32	-0.201	-0.0136	0.1874	1038.1121	0.102828	-474.1777	-474.170014	-474.16907	-474.209758	29.186	
N	 0.0856325108	 1.4069209979	 0.1472801692	-0.591774
C	-0.0012183035	 0.0201531699	 0.0392335884	 0.254561
C	-1.1444830276	-0.6980794662	 0.0248033503	 0.165844
F	-2.3088877653	-0.035811394	 0.0335950007	-0.07658
C	-1.1554620579	-2.1530140539	-0.0032449687	 0.254148
N	-2.2541800616	-2.8081061739	-0.0111459961	-0.542467
N	 0.1206974829	-2.7681265953	-0.034404357	-0.319381
C	 1.1772882951	-2.0446561082	-0.0198459233	 0.085886
N	 1.2004632251	-0.6748638886	-0.0059035473	-0.367462
H	 0.6417422993	 1.8328524462	-0.5869003208	 0.255377
H	-0.8373372379	 1.8229097776	 0.1618693186	 0.27015
H	-2.0321730749	-3.8046743179	-0.0464582578	 0.214004
H	 2.1592016386	-2.5142985963	-0.0282856882	 0.131068
H	 2.0538716168	-0.1810206774	 0.2046585118	 0.266625
106.2828	184.4173	275.7239	295.0851	308.4618	325.031	401.3931	512.0401	516.8205	549.0642	551.0664	593.2272	702.2037	763.2999	799.0425	882.4231	893.1079	952.6389	995.4462	1048.5228	1179.2406	1205.5714	1272.4967	1338.7336	1388.0305	1429.1457	1528.5521	1643.2928	1668.819	1692.4957	1751.6481	3151.3286	3467.4357	3515.0087	3618.6646	3630.6091
NC1=C(F)C(=N)N=CN1	NC1=C(F)C(=NCN1)[NH]	
InChI=1S/C4H5FN4/c5-2-3(6)8-1-9-4(2)7/h1H,(H4,6,7,8,9)	InChI=1S/C4H6FN4/c5-2-3(6)8-1-9-4(2)7/h6,9H,1,7H2
