25
gdb 60045	2.50351	0.95386	0.88242	1.2208	89.34	-0.2486	0.0661	0.3147	1536.9823	0.22614	-389.488574	-389.477423	-389.476479	-389.5245	41.963	
C	-1.1728319469	 0.8119748744	 2.2461809903	-0.393351
C	-0.9270653321	 0.5315856163	 0.7578825114	 0.031162
C	 0.3690631021	-0.2682922461	 0.5641980842	-0.382537
C	-2.1552843852	-0.1628684532	 0.1347651562	-0.234475
C	-2.1087355139	-0.3206171984	-1.3754957279	 0.392087
O	-1.9209331708	 0.8927291587	-2.070230911	-0.472917
C	-1.5450686615	-1.5647108158	-2.0300540466	-0.3472
C	-3.0306888116	-1.2612018646	-2.1014975915	-0.0359
C	-4.0543119391	-2.1374859709	-1.4146595053	-0.413945
H	-0.3277432419	 1.3459034711	 2.6933482167	 0.10822
H	-2.0716674804	 1.419243721	 2.3950310243	 0.111923
H	-1.306485397	-0.1228584523	 2.8040922049	 0.110715
H	-0.8104199195	 1.5029178528	 0.2567191247	 0.069006
H	 0.2956507168	-1.2512049204	 1.0454086269	 0.110849
H	 0.5958661295	-0.4386022014	-0.4924208333	 0.11228
H	 1.2216672132	 0.2546663446	 1.0103055754	 0.109135
H	-2.28231408	-1.145625821	 0.6041758939	 0.089146
H	-3.0480812729	 0.4242504531	 0.387512048	 0.097555
H	-0.9970565336	 1.1479121788	-1.9762291271	 0.281308
H	-0.9549212589	-1.4352110902	-2.9310199591	 0.106362
H	-1.2247877046	-2.3816245558	-1.390374067	 0.105094
H	-3.3542800165	-0.8583026838	-3.0572910817	 0.094775
H	-3.672772723	-2.562110608	-0.4815699922	 0.114324
H	-4.9669520845	-1.57916664	-1.1777162554	 0.119327
H	-4.3371880677	-2.9757260888	-2.0609100689	 0.117056
55.5712	97.8328	123.5648	179.6125	214.411	226.9008	230.7934	255.073	301.4811	320.228	373.4276	385.3661	420.8039	445.9986	461.2926	519.3677	736.6048	800.747	830.819	868.5194	899.3958	920.0617	931.0561	943.2211	965.3273	971.4957	1019.3021	1037.902	1067.6997	1126.7604	1135.7997	1146.9837	1185.3339	1194.8891	1226.5805	1276.1947	1305.6271	1321.7111	1343.047	1370.6263	1385.3224	1404.721	1407.4125	1423.2411	1427.7211	1467.3572	1484.0167	1487.195	1493.6348	1496.5324	1504.6635	1506.6718	1510.3213	3003.2686	3016.0174	3023.4174	3028.6419	3030.1043	3063.5383	3086.717	3087.6875	3093.2126	3099.5935	3103.3167	3105.56	3122.195	3149.5922	3211.6053	3803.3911
CC(C)CC1(O)CC1C	CC(C)C[C@@]1(O)C[C@H]1C	
InChI=1S/C8H16O/c1-6(2)4-8(9)5-7(8)3/h6-7,9H,4-5H2,1-3H3	InChI=1S/C8H16O/c1-6(2)4-8(9)5-7(8)3/h6-7,9H,4-5H2,1-3H3/t7-,8-/m1/s1
