20
gdb 118456	2.10425	1.32362	0.97082	2.5887	72.74	-0.2298	0.0259	0.2556	1290.9085	0.16889	-477.42863	-477.417937	-477.416993	-477.465221	37.191	
C	-0.0126703345	 0.853422251	-0.3556955634	-0.241947
O	-0.7442037625	 0.267525718	 0.7141585666	-0.244764
C	-1.7399481259	-0.6663488765	 0.3238225599	-0.12533
C	-1.2449809581	-2.0904576143	 0.0551940397	 0.034471
O	-0.4178183038	-2.0603797779	-1.0993005532	-0.256706
C	-0.2475434072	-3.3143663909	-1.7423667114	-0.241871
C	-0.5027809693	-2.7987568093	 1.2146968193	 0.375806
N	 0.1689083285	-1.9945609687	 2.073641643	-0.519129
O	-0.512042653	-4.0160117518	 1.2941450687	-0.376377
H	 0.6102136419	 1.6355302165	 0.0852742967	 0.124096
H	 0.6140640223	 0.1197195183	-0.8703373739	 0.140727
H	-0.6948339354	 1.3113342253	-1.0857057631	 0.113577
H	-2.4632697694	-0.6996954364	 1.1458952478	 0.118792
H	-2.2563448847	-0.3092395089	-0.5783016125	 0.107467
H	-2.1339401257	-2.7121037474	-0.136786913	 0.089933
H	 0.3688552501	-3.1286260094	-2.6251522727	 0.121172
H	 0.2427550321	-4.0474727463	-1.0936380397	 0.143125
H	-1.2169499225	-3.7267377162	-2.0595587097	 0.107735
H	 0.1803051022	-0.993849489	 1.9349587774	 0.274839
H	 0.7183971247	-2.427945586	 2.7978152737	 0.254385
38.159	82.797	97.9878	120.4948	179.5691	189.4801	227.3309	267.8844	298.2308	338.1938	387.3545	425.1326	445.1055	530.2472	680.456	688.1914	788.5315	838.6945	860.4282	955.796	1023.2274	1066.7484	1128.1925	1138.731	1155.4696	1185.0448	1187.6696	1217.0704	1224.2101	1305.5509	1344.9556	1370.1201	1374.7385	1411.8228	1467.6013	1476.931	1481.9292	1485.0633	1488.2744	1513.6485	1515.3724	1613.7653	1782.8165	2985.9129	2995.8508	3006.5087	3012.1265	3077.0493	3078.875	3089.6611	3123.9327	3127.5443	3538.4821	3698.9891
COCC(OC)C(N)=O	COC[C@@H](OC)C(=O)N	
InChI=1S/C5H11NO3/c1-8-3-4(9-2)5(6)7/h4H,3H2,1-2H3,(H2,6,7)	InChI=1S/C5H11NO3/c1-8-3-4(9-2)5(6)7/h4H,3H2,1-2H3,(H2,6,7)/t4-/m1/s1
