22
gdb 57456	2.87456	1.32778	1.20887	3.4282	81.38	-0.2317	0.0693	0.301	1159.0467	0.193585	-404.31144	-404.30236	-404.301416	-404.344598	36.178	
C	-1.5241877124	-0.4199039267	-0.1062381831	-0.408018
C	-0.0463265565	-0.0145321482	 0.0357075591	 0.346044
C	 0.0818442338	 1.5077771811	 0.1580267653	-0.399503
O	 0.4830356097	-0.5496535967	 1.2463443095	-0.47853
C	 0.7547708059	-0.5145994515	-1.1830541428	-0.013138
C	 2.3257203015	-0.5854425359	-1.0763426085	-0.257442
C	 2.2382618075	-2.0824774554	-1.3901511274	-0.044636
N	 1.3981015075	-2.6961808798	-0.3283595369	-0.344645
C	 0.7569182198	-2.024377674	-1.4937719304	-0.073983
H	-1.9754763732	-0.0052795366	-1.0150361242	 0.098076
H	-1.6237676918	-1.5095862098	-0.1400250347	 0.107924
H	-2.0902542246	-0.0589076048	 0.7569924001	 0.117831
H	-0.3995982065	 1.8428674777	 1.081315834	 0.119806
H	 1.1339812957	 1.8040410265	 0.2022299098	 0.115123
H	-0.3913856885	 2.0184014019	-0.6869235627	 0.100273
H	 0.7642834033	-1.4605594964	 1.0545830495	 0.288835
H	 0.4566669942	 0.048703296	-2.0721396645	 0.074124
H	 2.8247414791	-0.0126443326	-1.8602236862	 0.103391
H	 2.7496565579	-0.3368352302	-0.1020478947	 0.122712
H	 2.9478880798	-2.6950456827	-1.9320401004	 0.096836
H	 1.3671336515	-3.6998848431	-0.4975291189	 0.23415
H	 0.0775421167	-2.5777239587	-2.1304748921	 0.094771
84.3477	186.5185	189.0137	209.1035	246.9413	297.835	339.4537	357.0924	385.782	452.6695	503.3929	578.6734	638.7015	690.6505	752.8449	803.4273	833.835	867.0082	907.9308	924.9347	954.9889	964.5848	969.884	985.8207	1017.4287	1024.3724	1054.9274	1097.2293	1112.7478	1159.9141	1169.0581	1203.1508	1211.7518	1248.6892	1254.8589	1290.9845	1322.4172	1339.6848	1376.9546	1392.0156	1409.7575	1453.379	1474.5771	1474.8184	1484.9581	1503.8871	1504.8575	3027.2201	3037.0485	3064.2161	3078.1584	3096.1661	3109.7769	3112.0787	3116.2681	3136.8838	3183.3126	3198.1481	3489.3212	3617.5299
CC(C)(O)C1CC2NC12	CC(C)(O)[C@H]1C[C@H]2N[C@@H]12	
InChI=1S/C7H13NO/c1-7(2,9)4-3-5-6(4)8-5/h4-6,8-9H,3H2,1-2H3	InChI=1S/C7H13NO/c1-7(2,9)4-3-5-6(4)8-5/h4-6,8-9H,3H2,1-2H3/t4-,5+,6-/m0/s1
