17
gdb 91860	3.8927	1.19527	1.05442	2.1813	69.94	-0.2541	-0.0331	0.221	1152.3605	0.133991	-458.958394	-458.950159	-458.949215	-458.991278	30.769	
C	 0.1529796911	 1.5296077517	-0.1073140756	-0.407195
C	 0.0896954606	 0.025301244	-0.0253397848	 0.213397
O	 0.8545592823	-0.5691588323	-1.0726051248	-0.265303
C	 1.2909794889	-1.8096646949	-0.5913609745	 0.038826
C	 2.5235010589	-1.8061036291	 0.2524534848	-0.344994
C	 1.1586213613	-1.7268140073	 0.9230264988	 0.27733
O	 0.674260737	-0.4387096514	 1.1926788734	-0.306246
C	 0.6227239122	-2.8437242929	 1.7293316186	 0.083707
O	 1.0243773711	-3.9806253056	 1.6524449201	-0.272756
H	 1.1920782555	 1.8598716377	-0.0419216573	 0.135644
H	-0.2740069457	 1.8674593855	-1.0546674971	 0.13612
H	-0.4181064706	 1.9698443975	 0.7137268393	 0.135373
H	-0.9481358826	-0.3461546265	-0.086212633	 0.077095
H	 0.9780130016	-2.6845326094	-1.1511812642	 0.127507
H	 3.0418738567	-2.7510966835	 0.3765110241	 0.147379
H	 3.1183988383	-0.9012996693	 0.2746356687	 0.135354
H	-0.1994058367	-2.5449441943	 2.4147404636	 0.088761
93.3956	129.4127	197.565	211.7637	222.9991	315.9804	362.4536	441.855	482.8085	553.4001	686.5238	702.4128	774.1299	823.5551	841.2175	868.308	920.1229	963.6841	1013.8985	1045.8837	1076.9466	1078.31	1112.4136	1123.8454	1144.5938	1162.9956	1233.9072	1275.71	1345.173	1380.9874	1396.1394	1413.2548	1434.8076	1444.9357	1484.4835	1485.0978	1806.4403	2906.4895	2954.2184	3057.7527	3138.0354	3140.5771	3143.7685	3174.3998	3248.5271
CC1OC2CC2(O1)C=O	C[C@H]1O[C@H]2C[C@]2(O1)C=O	
InChI=1S/C6H8O3/c1-4-8-5-2-6(5,3-7)9-4/h3-5H,2H2,1H3	InChI=1S/C6H8O3/c1-4-8-5-2-6(5,3-7)9-4/h3-5H,2H2,1H3/t4-,5-,6-/m0/s1
