17
gdb 77634	2.16235	1.45452	1.30326	2.6988	77.55	-0.2206	0.0161	0.2367	1096.665	0.132542	-421.743009	-421.733782	-421.732837	-421.776636	34.311	
C	-0.018078071	 1.531608078	-0.0127323807	-0.422202
C	 0.0603880666	 0.0236937117	-0.0918435135	-0.160456
C	 0.684477108	-0.7690374482	-1.2120189535	 0.241028
O	 0.0612466556	-1.7831449661	-1.9003852797	-0.445388
C	 1.9769134949	-0.1196888671	-1.6862853972	-0.148197
O	 2.4725813942	-0.0229759746	-0.3237187315	-0.320636
C	 1.3430270023	-0.7570484097	 0.1774165121	 0.219283
C	 1.5242228104	-1.7259954517	 1.1945872111	 0.24204
C	 1.6687148967	-2.5526231453	 2.0574015774	-0.41209
H	 0.9523142825	 1.9806572857	-0.2359690402	 0.143543
H	-0.758239841	 1.9321510263	-0.7139635666	 0.114417
H	-0.3053170054	 1.8467427592	 0.9951287037	 0.128214
H	-0.7949353683	-0.513884572	 0.3159603179	 0.103009
H	-0.8460995513	-1.5209334477	-2.0861480329	 0.294926
H	 2.5933038877	-0.8082716968	-2.2740960166	 0.124725
H	 1.9192808925	 0.8559140938	-2.1819584043	 0.10534
H	 1.8025580556	-3.2829912255	 2.8163620347	 0.192445
100.4017	141.7937	150.5901	170.858	228.1849	241.5068	297.5077	358.4615	402.6156	502.521	522.5145	550.8073	586.0618	644.185	687.3585	719.6781	768.5034	781.7219	948.7378	976.4029	994.4369	1041.5624	1090.792	1112.8972	1117.6132	1146.188	1191.369	1265.9206	1286.5218	1323.0304	1374.0462	1406.7175	1475.58	1490.7656	1504.1175	1519.5261	2230.397	3031.8133	3037.7931	3086.6822	3098.6713	3120.9189	3135.3002	3502.0073	3814.1445
CC1C2(O)COC12C#C	C[C@H]1[C@@]2(O)CO[C@@]12C#C	
InChI=1S/C7H8O2/c1-3-7-5(2)6(7,8)4-9-7/h1,5,8H,4H2,2H3	InChI=1S/C7H8O2/c1-3-7-5(2)6(7,8)4-9-7/h1,5,8H,4H2,2H3/t5-,6-,7-/m0/s1
