13
gdb 21337	6.07103	1.29866	1.13482	4.8974	63.23	-0.2602	0.005	0.2652	983.5901	0.098096	-357.680579	-357.67377	-357.672826	-357.712766	24.32	
N	-0.3681498254	-0.7939866299	-0.9600528704	-0.311975
C	-0.1402841563	 0.1350753041	-0.3124017781	 0.263664
C	 0.1419478716	 1.3249400592	 0.4922613799	-0.439693
C	 1.4794083315	 1.9445029771	 0.1831633194	 0.348438
N	 2.2648990697	 2.3281443978	 1.1863772874	-0.283738
N	 3.341005491	 2.8607235236	 0.5798709889	-0.180015
C	 3.2650921019	 2.820864209	-0.7717205701	-0.008116
C	 2.0585774546	 2.2285843467	-1.0742292684	-0.273004
H	-0.6693179338	 2.0448665624	 0.3243014095	 0.164105
H	 0.1146215666	 1.0591494838	 1.5533000542	 0.173554
H	 4.0905665493	 3.2187915734	 1.147080417	 0.280943
H	 4.0562603095	 3.2028893925	-1.3970731771	 0.141612
H	 1.6583179199	 2.0191365202	-2.0525125224	 0.124224
30.8305	114.9324	282.0799	332.2358	381.0503	485.4003	523.123	652.1311	687.4694	756.2014	779.0532	852.8011	936.9591	939.5162	955.0411	997.1823	1075.5806	1111.9571	1191.9017	1226.9527	1295.9082	1328.3446	1411.4842	1454.4394	1473.2133	1495.9204	1574.2178	2366.2209	3033.4487	3094.5008	3261.7127	3280.9289	3676.5537
N#CCC1=NNC=C1	N#CCc1n[nH]cc1	
InChI=1S/C5H5N3/c6-3-1-5-2-4-7-8-5/h2,4H,1H2,(H,7,8)	InChI=1S/C5H5N3/c6-3-1-5-2-4-7-8-5/h2,4H,1H2,(H,7,8)
