16
gdb 79383	3.28215	1.39419	1.11559	2.5841	76.28	-0.2281	0.0229	0.251	1073.4671	0.123637	-400.609161	-400.601562	-400.600618	-400.64104	30.097	
O	-0.0151273035	 1.4919684391	-0.065229248	-0.440165
C	 0.065950359	 0.0872117577	-0.0297201814	 0.102155
C	 0.0643341507	-0.6054093867	 1.3497251197	-0.166034
C	-1.4726210696	-0.3566587755	 1.5379921582	-0.041982
N	-1.8378841799	-1.7892793823	 1.7849902315	-0.382257
C	-0.7235666159	-1.8460992673	 0.7698742298	 0.302303
C	-0.1863697517	-3.0559565569	 0.227880037	 0.087732
C	 0.2773004606	-4.0731605945	-0.2166661777	-0.382803
C	-1.3017247728	-0.5995500198	 0.005120106	-0.106561
H	 0.8738299978	 1.8497980247	 0.0210588599	 0.285899
H	 0.7817048749	-0.3051778437	-0.7640838957	 0.079668
H	 0.830329173	-0.6429138977	 2.1268005229	 0.077773
H	-1.9674172058	 0.4773219209	 2.0293626963	 0.096462
H	-1.4839105772	-2.0920943972	 2.697747656	 0.208178
H	 0.6775347685	-4.973674012	-0.6126119715	 0.183983
H	-2.0926724481	-0.6285242489	-0.7422635632	 0.095648
113.7366	160.3087	226.4607	277.3535	329.9491	435.5741	454.5233	540.8524	559.6894	612.8664	624.1381	670.7197	743.373	800.3134	851.1937	869.2966	904.4017	924.2678	946.6252	975.8024	1033.0492	1067.0172	1110.3842	1115.4372	1128.6478	1151.1956	1195.5461	1209.8629	1245.674	1262.0687	1293.3743	1307.2968	1334.7626	1436.4893	2232.4709	3019.0504	3100.5803	3139.1598	3155.0962	3388.5618	3500.4269	3822.929
OC1C2C3NC2(C#C)C13	O[C@H]1[C@H]2[C@@H]3N[C@@]2(C#C)[C@H]13	
InChI=1S/C7H7NO/c1-2-7-3-5(8-7)4(7)6(3)9/h1,3-6,8-9H	InChI=1S/C7H7NO/c1-2-7-3-5(8-7)4(7)6(3)9/h1,3-6,8-9H/t3-,4+,5+,6+,7-
