17
gdb 10818	4.95177	1.49649	1.19272	5.452	75.03	-0.209	-0.0256	0.1834	995.7891	0.143798	-363.899792	-363.89227	-363.891326	-363.931566	28.044	
C	-0.0292125168	 1.4544341356	-0.2488620023	-0.335877
N	 0.0142924616	 0.1268364034	 0.3323523084	-0.044843
C	-1.2383302162	-0.6253126728	 0.3362416675	-0.169812
C	-1.1447039622	-1.847377216	 1.2482797434	-0.327327
C	 0.0971744243	-2.7022561869	 0.9601760591	 0.369303
O	 0.1005199128	-3.9035197305	 1.1673791942	-0.35891
C	 1.2510794322	-1.9377419226	 0.5188363136	-0.262696
C	 1.1640213852	-0.601507228	 0.2845523198	 0.048842
H	 0.9521514313	 1.9267384814	-0.1656146719	 0.137714
H	-0.3169122177	 1.4356757491	-1.3117201054	 0.124645
H	-0.754160383	 2.0747787272	 0.2877052112	 0.134339
H	-2.0437691894	 0.0422096594	 0.6585329617	 0.112728
H	-1.4697147868	-0.9452625897	-0.6948195851	 0.10861
H	-1.0778389796	-1.5229393821	 2.2955339388	 0.126233
H	-2.0376819109	-2.4691318692	 1.1543946222	 0.124984
H	 2.2079061176	-2.4388677368	 0.44903629	 0.096412
H	 2.0526561177	-0.0244401916	 0.0420030347	 0.115656
95.2468	161.9668	182.9222	247.7709	341.072	387.114	431.2273	465.9618	514.5832	641.3476	755.1715	771.8076	779.4758	818.1594	974.4158	975.6825	1006.7293	1062.9612	1081.0438	1147.6133	1161.0803	1199.9101	1206.699	1250.5617	1291.6471	1346.6248	1367.1227	1408.827	1451.4984	1460.1953	1473.4036	1482.9025	1497.6858	1526.9751	1659.5913	1761.3623	2956.2982	2984.7944	3027.9273	3069.4599	3071.6719	3113.7658	3124.6977	3165.4859	3217.4072
CN1CCC(=O)C=C1	CN1CCC(=O)C=C1	
InChI=1S/C6H9NO/c1-7-4-2-6(8)3-5-7/h2,4H,3,5H2,1H3	InChI=1S/C6H9NO/c1-7-4-2-6(8)3-5-7/h2,4H,3,5H2,1H3
