17
gdb 38334	4.04329	1.46116	1.22862	2.1326	72.97	-0.236	0.0102	0.2462	1000.77	0.139081	-417.944658	-417.937987	-417.937043	-417.975837	26.616	
C	-0.0095018923	 1.6398508037	 0.0802424121	-0.217738
C	 1.4718725326	 1.1933239508	-0.0021649207	-0.089985
N	 1.1468028278	 0.2082164593	 1.1074563812	-0.330966
C	 0.0155754365	 0.0907847095	 0.1005294804	-0.089984
C	 1.050228042	 0.1329689055	-1.0699334863	 0.366097
C	 0.6589856748	 0.5147967512	-2.5187675768	-0.19657
O	 1.3425546735	-0.4644776424	-3.3386025828	-0.223782
C	 2.0031767704	-1.255545209	-2.4634255701	 0.099911
N	 1.9197622509	-1.0294748025	-1.2192878223	-0.32222
H	-0.2921325975	 2.1012449134	 1.0258680809	 0.114168
H	-0.4488801559	 2.139608153	-0.7850743772	 0.095369
H	 2.3742148742	 1.8077977138	 0.0120739295	 0.08247
H	 1.7562797864	-0.6070818533	 0.9972595046	 0.230493
H	-0.8139156093	-0.6058873191	 0.2368932647	 0.08247
H	-0.413479862	 0.4349980871	-2.7182569695	 0.12773
H	 1.0044136682	 1.5084466582	-2.8182437124	 0.12773
H	 2.5748110797	-2.0535070692	-2.9240952651	 0.144805
97.972	219.3422	243.1568	335.2529	430.8481	530.9802	559.8331	634.5214	773.0569	795.3311	802.7756	878.0089	879.9402	898.8601	915.6869	966.0748	970.7725	1021.8664	1030.8422	1063.9603	1071.6393	1114.2956	1114.6173	1156.151	1166.6812	1185.4505	1203.8405	1216.8522	1224.0401	1283.9124	1318.1893	1322.325	1328.2876	1373.6741	1497.4929	1510.336	1702.469	3050.3006	3076.4448	3094.8382	3097.0833	3102.3994	3158.2717	3216.0042	3414.638
C1C2NC1C21COC=N1	C1[C@H]2N[C@@H]1[C@]12COC=N1	
InChI=1S/C6H8N2O/c1-4-6(5(1)8-4)2-9-3-7-6/h3-5,8H,1-2H2	InChI=1S/C6H8N2O/c1-4-6(5(1)8-4)2-9-3-7-6/h3-5,8H,1-2H2/t4-,5+,6-
