21
gdb 107423	2.69329	1.43388	1.28765	1.5247	80.81	-0.2279	0.0838	0.3118	1117.2116	0.1831	-387.059284	-387.051102	-387.050157	-387.091814	32.822	
C	-0.3427392596	 1.5113785871	-0.035764233	-0.378286
C	 0.1722833346	 0.0684477914	 0.0450913297	-0.287662
C	 0.7970229102	-0.446556027	-1.2383994124	 0.330475
C	 1.9665524302	-1.4161384882	-1.1774139636	-0.390062
C	 2.1647299807	-0.0229325685	-1.7216832736	 0.06776
O	 2.1497706807	 0.1810299178	-3.1148141948	-0.261582
C	 0.8427556102	 0.0139812038	-3.6115191822	 0.108964
C	 0.2574235044	-1.3722969646	-3.6586891383	-0.338834
C	-0.0593593925	-0.4480473106	-2.4958685148	-0.134786
H	 0.4645848005	 2.2020530381	-0.3001669905	 0.120534
H	-1.1309356559	 1.622793311	-0.7868573839	 0.118317
H	-0.757904777	 1.8293093165	 0.9255935233	 0.112999
H	 0.9170222263	 0.0005360405	 0.84699505	 0.096002
H	-0.6469082067	-0.600510045	 0.3409830197	 0.100694
H	 2.3784832345	-1.6127961466	-0.1918763258	 0.107193
H	 2.0189102174	-2.2611485446	-1.8524794464	 0.115892
H	 2.8070272411	 0.682189064	-1.2031879697	 0.095944
H	 0.5789038471	 0.7552020925	-4.3585574146	 0.096997
H	-0.5438010851	-1.5370087688	-4.3723578949	 0.110775
H	 0.9079190425	-2.2267119584	-3.5200423578	 0.120085
H	-1.0742583636	-0.0828931405	-2.3963113862	 0.088581
91.7543	138.45	203.9681	254.0224	278.2811	323.3636	422.6714	483.5982	517.5158	578.8605	703.7541	713.5233	773.2462	783.8045	820.9427	841.3335	876.6009	920.2201	966.4438	980.8221	985.7984	1002.5424	1028.5596	1039.0509	1060.8661	1064.7584	1092.825	1104.5717	1117.1906	1118.7538	1171.3259	1209.1252	1236.1764	1261.9751	1308.3583	1341.7087	1366.9591	1379.0409	1406.3833	1412.1718	1468.8237	1485.0489	1496.9938	1498.4906	1506.4167	3017.1198	3036.7723	3052.6602	3105.583	3106.575	3129.3136	3136.8935	3155.2503	3163.2981	3182.7628	3219.646	3228.5166
CCC12CC1OC1CC21	CC[C@]12C[C@H]1O[C@H]1C[C@@H]21	
InChI=1S/C8H12O/c1-2-8-4-7(8)9-6-3-5(6)8/h5-7H,2-4H2,1H3	InChI=1S/C8H12O/c1-2-8-4-7(8)9-6-3-5(6)8/h5-7H,2-4H2,1H3/t5-,6+,7-,8-/m1/s1
