16
gdb 7121	6.29038	0.93852	0.8907	1.1452	64.6	-0.2342	-0.0254	0.2089	1298.9944	0.129298	-417.076141	-417.06719	-417.066245	-417.110679	30.226	
C	 0.7185527334	 0.8426435917	 0.2769261189	-0.321568
N	-0.3721644739	 0.3615982028	-0.56981704	-0.260401
C	 0.051263896	-0.5387707892	-1.6156090128	-0.292312
C	 0.4703349634	-1.9262203715	-1.1415818542	 0.449322
O	 0.2920293051	-2.3734331517	-0.0416318013	-0.339932
O	 1.0559831877	-2.6184179718	-2.1725204178	-0.201833
C	 1.4513004924	-3.9151297018	-1.9446279465	 0.117761
N	 1.987200312	-4.5410464582	-2.8938639773	-0.415894
H	 1.2964485416	 0.0460878882	 0.7704812903	 0.114583
H	 1.4074472771	 1.4415054991	-0.3294491973	 0.122913
H	 0.3069874675	 1.4958816194	 1.0511321962	 0.124734
H	-1.0634901112	-0.105414602	 0.0077481987	 0.229851
H	-0.7592150172	-0.6905132728	-2.3417977481	 0.143463
H	 0.8803831863	-0.1009871865	-2.1823309448	 0.144431
H	 1.2417716976	-4.2494828792	-0.9283995664	 0.14379
H	 2.229999812	-5.4836395765	-2.5916890076	 0.241092
47.2767	103.219	113.7716	146.1557	152.7664	219.0853	301.4052	350.9847	449.6841	530.527	558.1674	717.2969	779.901	854.7818	933.429	951.0609	988.7144	1023.7955	1072.7025	1148.0901	1153.3345	1172.1702	1209.7335	1262.5757	1308.3953	1365.9797	1390.7408	1441.2845	1462.4538	1490.7594	1502.5685	1526.5998	1746.8891	1837.7566	2987.3334	3024.8527	3064.3343	3080.1791	3109.3134	3139.0959	3505.9386	3530.1315
CNCC(=O)OC=N	CNCC(=O)O[CH][NH]	
InChI=1S/C4H8N2O2/c1-6-2-4(7)8-3-5/h3,5-6H,2H2,1H3	InChI=1S/C4H8N2O2/c1-6-2-4(7)8-3-5/h3,5-6H,2H2,1H3
