19
gdb 115573	2.07555	1.44269	1.19434	2.3774	72.67	-0.2444	-0.0308	0.2136	1151.547	0.156459	-460.149816	-460.140228	-460.139284	-460.184632	34.659	
C	 0.0344645031	 0.9604288605	 0.5591414783	-0.256928
O	-0.2659793452	 0.0331253888	-0.4749013409	-0.243342
C	-1.4454963289	-0.6883445143	-0.2559074887	 0.080929
C	-1.8866295954	-1.5749093003	-1.4325278616	-0.275737
C	-2.1291385098	-2.7344761032	-0.4291931914	-0.262627
C	-1.2656178701	-1.9919324331	 0.6348101986	 0.285084
O	 0.0805482221	-2.394896034	 0.6807713076	-0.49698
C	-1.827144502	-1.9154395335	 2.0320299026	 0.106247
O	-2.9904289174	-1.703878212	 2.2737913314	-0.268309
H	 0.9598851556	 1.4665815592	 0.2772124328	 0.138404
H	-0.7670787101	 1.7031242436	 0.6669040171	 0.126662
H	 0.1816079094	 0.4556751884	 1.5243024592	 0.123365
H	-2.2492592225	-0.052985176	 0.1357722588	 0.092545
H	-2.7303619624	-1.2223327973	-2.0279213969	 0.110205
H	-1.0404893708	-1.7719555272	-2.0950595741	 0.118684
H	-3.1684557528	-2.8035001755	-0.1014236376	 0.126934
H	-1.7532558688	-3.7210234459	-0.7022408776	 0.117559
H	 0.5824701581	-1.7408011172	 0.1729483843	 0.292442
H	-1.0660516722	-2.0486639009	 2.8333134881	 0.084862
59.6754	91.3155	110.7558	184.0251	199.8935	250.8104	286.2711	299.4427	372.2245	446.1482	477.4387	528.1766	604.6371	680.0189	746.9073	755.9258	872.1475	924.727	952.1443	987.1615	1023.5866	1073.7521	1131.3744	1151.9392	1174.7415	1178.9711	1188.6455	1230.9802	1236.7607	1256.9596	1269.0709	1284.6571	1365.0457	1378.8458	1403.7065	1463.8828	1479.7613	1488.6761	1491.991	1503.5168	1815.0727	2887.77	2996.6545	3036.1291	3056.3151	3074.2783	3080.065	3127.6009	3129.3162	3147.6409	3719.7899
COC1CCC1(O)C=O	CO[C@H]1CC[C@]1(O)C=O	
InChI=1S/C6H10O3/c1-9-5-2-3-6(5,8)4-7/h4-5,8H,2-3H2,1H3	InChI=1S/C6H10O3/c1-9-5-2-3-6(5,8)4-7/h4-5,8H,2-3H2,1H3/t5-,6-/m0/s1
