20
gdb 120290	3.31245	0.97563	0.94313	1.8704	79.73	-0.2132	0.0117	0.2249	1342.2568	0.171664	-403.116448	-403.10783	-403.106886	-403.150479	32.464	
O	-0.5013974119	 1.403235934	 1.1909958815	-0.420916
C	-0.6948225226	 0.0001818495	 1.2830848618	-0.075209
C	-1.2396371177	-0.4808053161	-0.0585025114	-0.208353
C	-1.3975025767	-1.9830692247	-0.0896484671	 0.000586
C	-2.664426287	-2.7218470939	 0.2340907873	-0.091166
C	-3.9442015158	-1.9651802011	 0.1947849184	-0.071025
C	-4.1690949512	-1.4997304373	-1.0347972847	-0.083726
C	-3.0563671715	-1.9228504683	-1.9679155306	-0.208031
N	-2.111525209	-2.7178157725	-1.1472443544	-0.134287
H	-0.1652872646	 1.7166735153	 2.0355472741	 0.285613
H	 0.2507339079	-0.5183680708	 1.5119758477	 0.085092
H	-1.4085017787	-0.2551012844	 2.0828110471	 0.089049
H	-2.1858069586	 0.0304029661	-0.2495541847	 0.116221
H	-0.5396471419	-0.1717290577	-0.8455314173	 0.110986
H	-0.4791335701	-2.5069233645	 0.1794020484	 0.087305
H	-2.6130181265	-3.6548943992	 0.7914937132	 0.088843
H	-4.5808491894	-1.8278261944	 1.0601418707	 0.09967
H	-5.0046928325	-0.8827178577	-1.3449451199	 0.100507
H	-3.4245591543	-2.5505112226	-2.7901900996	 0.112983
H	-2.5451788078	-1.0686085494	-2.4323248705	 0.11586
52.9092	87.2525	129.2348	235.7509	259.9885	281.8107	337.7326	430.0463	516.0424	572.1431	716.6313	730.5391	754.5197	777.4365	816.6256	866.1533	918.5617	932.1087	954.5378	991.2743	1019.2563	1033.0528	1063.1988	1072.4434	1089.9341	1112.3537	1129.4907	1163.9682	1204.563	1233.0029	1244.6417	1281.1927	1309.4366	1318.6319	1327.4999	1349.6672	1376.1235	1429.7356	1460.5049	1486.1396	1497.2422	1527.6072	1666.7506	2961.572	2988.7964	3010.8558	3033.9713	3035.3051	3086.8191	3109.2733	3125.1516	3192.8288	3219.2094	3830.3816
OCCC1C2C=CCN12	OCC[C@H]1[C@H]2C=CCN12	
InChI=1S/C7H11NO/c9-5-3-7-6-2-1-4-8(6)7/h1-2,6-7,9H,3-5H2	InChI=1S/C7H11NO/c9-5-3-7-6-2-1-4-8(6)7/h1-2,6-7,9H,3-5H2/t6-,7+,8?/m1/s1
