20
gdb 59732	3.22803	1.11559	0.8706	2.7137	75.27	-0.2429	0.0274	0.2704	1323.641	0.17157	-440.296371	-440.287325	-440.286381	-440.330318	33.754	
C	 0.0612925448	 1.5735984828	 0.0788955932	-0.416475
C	-0.0107411868	 0.0460085299	 0.0354666429	 0.129677
O	 0.7176669238	-0.5240851249	 1.1207834761	-0.428374
C	-1.4454164931	-0.5101021613	-0.0073178567	-0.060319
C	-2.2158081889	-0.0605016413	-1.2492780613	-0.085153
O	-3.5285768817	-0.6360247012	-1.2973757689	-0.227599
C	-3.6363804566	-1.9074123009	-0.8362125938	 0.125406
N	-2.7761205765	-2.6272121987	-0.2568163243	-0.273024
C	-1.4661404647	-2.0472550881	 0.0267438231	-0.155034
H	 1.1026925265	 1.8875789254	 0.1877875058	 0.130551
H	-0.3386734041	 2.0324508528	-0.8304508995	 0.122121
H	-0.5066070084	 1.968278164	 0.9308765113	 0.110842
H	 0.5218731542	-0.3098502913	-0.8567477387	 0.091551
H	 0.3264635581	-0.1992156015	 1.9398114779	 0.278322
H	-1.9878879082	-0.1342145889	 0.8736646063	 0.07621
H	-2.3740755977	 1.0192872469	-1.2781006958	 0.118459
H	-1.6740537792	-0.3531305698	-2.1599498098	 0.111785
H	-4.640595095	-2.280707245	-1.0295387079	 0.122093
H	-0.7405638456	-2.4477890386	-0.6955403485	 0.11101
H	-1.1373718508	-2.4076444903	 1.0044032886	 0.117952
68.7739	117.1066	159.5015	183.7201	243.565	293.6307	325.1339	363.8092	413.2154	479.4927	492.8278	508.1205	562.4576	786.8164	877.6135	898.865	926.701	954.8487	956.881	969.0259	984.1765	1064.9996	1080.7905	1124.5387	1137.3842	1162.2356	1176.2815	1229.4816	1239.5292	1304.9553	1322.7205	1345.27	1361.9622	1378.6798	1404.5443	1406.5193	1418.8557	1424.907	1483.8904	1492.056	1497.5602	1510.2669	1741.4587	2990.0452	3006.9525	3014.0722	3025.2859	3031.6215	3089.5671	3097.6241	3105.8417	3121.7915	3157.7925	3794.7216
CC(O)C1COC=NC1	C[C@@H](O)[C@H]1COC=NC1	
InChI=1S/C6H11NO2/c1-5(8)6-2-7-4-9-3-6/h4-6,8H,2-3H2,1H3	InChI=1S/C6H11NO2/c1-5(8)6-2-7-4-9-3-6/h4-6,8H,2-3H2,1H3/t5-,6-/m1/s1
