14
gdb 127363	3.73069	1.30451	0.97251	5.4156	66.8	-0.2495	-0.0396	0.21	1130.6184	0.101631	-470.062866	-470.054816	-470.053871	-470.096064	27.921	
C	-0.0143190589	 1.4731960886	-0.0102763202	-0.353916
N	 0.0138552521	 0.0239490224	-0.0263181625	-0.145069
C	 0.0625297316	-0.8278103087	-1.1033294279	 0.072438
N	 0.0766718199	-2.0788059348	-0.7789277838	-0.220371
N	 0.0347935626	-2.0604250903	 0.6063168675	-0.148674
C	 0.0331263545	-3.2203932829	 1.3880012397	 0.182285
O	 0.0672191679	-4.3346613787	 0.9486548015	-0.270691
C	-0.0052977999	-0.7561035154	 1.1287233728	 0.520108
O	-0.0471088389	-0.3942038754	 2.2816824725	-0.415069
H	 0.8860805204	 1.8879927023	-0.4719800291	 0.150404
H	-0.8975290179	 1.8537662674	-0.530853665	 0.15038
H	-0.0546434218	 1.77769706	 1.0369014994	 0.181999
H	 0.0861658217	-0.4766086423	-2.1241961312	 0.164027
H	-0.0039566835	-2.9492448921	 2.4553914862	 0.132148
85.9866	93.5558	195.5392	198.932	230.7368	289.2843	310.1431	413.8682	551.0181	642.3663	739.1883	755.0844	771.5103	847.5314	875.5495	1021.3162	1040.9042	1072.2531	1159.2303	1176.8105	1262.6859	1319.8205	1348.3705	1407.7117	1426.5426	1463.7872	1496.0108	1508.9314	1631.7333	1829.7943	1850.4342	3023.2127	3047.1811	3114.0383	3151.4115	3258.3472
CN1C=NN(C=O)C1=O	Cn1cnn(C=O)c1=O	
InChI=1S/C4H5N3O2/c1-6-2-5-7(3-8)4(6)9/h2-3H,1H3	InChI=1S/C4H5N3O2/c1-6-2-5-7(3-8)4(6)9/h2-3H,1H3
