20
gdb 7389	3.73593	1.00352	0.83493	1.352	67.72	-0.2508	0.0686	0.3194	1378.1195	0.173956	-423.267491	-423.257134	-423.25619	-423.302842	36.808	
C	 0.0220963974	 1.5397960298	-0.010203481	-0.405253
C	-0.0020478926	 0.0144029964	 0.0359683864	 0.1117
O	 0.7141492801	-0.48908122	 1.1600658288	-0.424323
C	-1.4397906346	-0.5490825014	-0.0011210617	 0.09686
O	-2.1559136774	-0.0358327542	-1.1251430886	-0.430137
C	-1.4658479239	-2.0768294222	 0.0414557487	-0.188409
C	-2.8735720145	-2.6459260132	 0.1588535708	-0.079214
O	-2.7711367664	-4.0627707969	 0.1391079401	-0.422536
H	 1.052595266	 1.9041129016	-0.0304587376	 0.120204
H	-0.5114141258	 1.9103504065	-0.8878396919	 0.132369
H	-0.4726166226	 1.9570260743	 0.8771032427	 0.103446
H	 0.5368944658	-0.3844452174	-0.8355335054	 0.078398
H	 0.3827531724	-0.0354359987	 1.9432400931	 0.278901
H	-1.9790467519	-0.1497685343	 0.8710959186	 0.073726
H	-1.7852762519	-0.4466484593	-1.9149059505	 0.279987
H	-0.9989725894	-2.4742056177	-0.8716491702	 0.090868
H	-0.8543356656	-2.4242388382	 0.8785944999	 0.12467
H	-3.3370428959	-2.2928496768	 1.0954467928	 0.080872
H	-3.4934578674	-2.2741596501	-0.66974819	 0.093379
H	-3.6603092919	-4.4269359281	 0.174322175	 0.284491
66.4126	95.161	96.7982	145.0841	234.2739	251.5956	268.0208	279.3938	300.9843	315.4213	370.6309	396.7022	469.7707	489.453	575.8667	799.4838	865.2985	913.5849	964.7211	1008.8179	1054.1694	1075.7191	1081.3949	1097.269	1134.4186	1150.3824	1206.7751	1227.1338	1253.6352	1298.4744	1314.1625	1317.507	1361.9445	1393.9234	1398.3242	1412.373	1417.6724	1460.7443	1490.0488	1491.6523	1496.6341	1531.5379	2960.4193	2996.1706	3006.456	3011.9035	3020.952	3027.3102	3100.9093	3102.8799	3138.7517	3791.4281	3797.3546	3829.7665
CC(O)C(O)CCO	C[C@@H](O)[C@@H](O)CCO	
InChI=1S/C5H12O3/c1-4(7)5(8)2-3-6/h4-8H,2-3H2,1H3	InChI=1S/C5H12O3/c1-4(7)5(8)2-3-6/h4-8H,2-3H2,1H3/t4-,5+/m1/s1
