19
gdb 88174	2.38079	1.482	1.23241	2.1345	71.5	-0.2424	0.0711	0.3136	1104.2069	0.158248	-460.140576	-460.131789	-460.130845	-460.174452	33.108	
C	 0.062354437	 1.6248274306	-0.1406465549	-0.400293
C	 0.0210913	 0.113840634	 0.0252216226	 0.053008
O	 0.7274483342	-0.487100297	-1.0731504782	-0.268228
C	 1.5311217483	-1.5075793983	-0.5396460265	 0.007664
O	 1.9176268859	-1.0801216801	 0.7482879091	-0.26997
C	 0.7657873049	-0.4468181684	 1.2474800313	 0.377913
C	 0.86455288	 0.1932950011	 2.5954383727	-0.406025
C	 0.0445332263	-1.0741369679	 2.4053929616	 0.014995
O	-1.3500583663	-0.9958438239	 2.3893797572	-0.417935
H	 1.0902529721	 1.9922252753	-0.0742756013	 0.125341
H	-0.3446600114	 1.9011312882	-1.1173391057	 0.126772
H	-0.5409664247	 2.1148925302	 0.629654542	 0.114572
H	-1.0172615447	-0.2391576306	 0.0343964028	 0.103465
H	 0.9710712537	-2.45842865	-0.4752826035	 0.083874
H	 2.4241255358	-1.6323220331	-1.1580748897	 0.117626
H	 1.8117311601	 0.1113882498	 3.1174550302	 0.128302
H	 0.324605148	 1.1213643927	 2.75243366	 0.119973
H	 0.4658653591	-1.9991595362	 2.7976427973	 0.097005
H	-1.6528137783	-0.8040489665	 3.2833233932	 0.291943
34.8964	163.6983	185.4566	216.5625	248.3856	289.9562	309.7165	403.4025	434.4153	452.6261	533.3119	575.4209	743.1959	745.9378	834.2579	867.4254	889.8205	946.8396	973.0666	1024.426	1040.3866	1067.3721	1089.353	1098.1678	1115.5102	1135.6906	1171.8369	1180.9987	1232.3085	1250.1052	1286.4831	1301.5421	1350.5939	1393.7885	1406.8636	1413.1155	1428.8502	1482.22	1489.6276	1498.3802	1541.0473	2935.4179	3035.4484	3042.8197	3093.0571	3111.048	3116.3318	3124.6	3131.7208	3225.2192	3799.9264
CC1OCOC11CC1O	C[C@H]1OCO[C@]21C[C@H]2O	
InChI=1S/C6H10O3/c1-4-6(2-5(6)7)9-3-8-4/h4-5,7H,2-3H2,1H3	InChI=1S/C6H10O3/c1-4-6(2-5(6)7)9-3-8-4/h4-5,7H,2-3H2,1H3/t4-,5-,6+/m1/s1
