22
gdb 81966	2.51693	1.58017	1.24909	3.117	81.15	-0.2439	0.0687	0.3126	1118.5769	0.195749	-404.346531	-404.337777	-404.336832	-404.379306	34.815	
C	-0.1127410052	 1.5823739077	-0.0207677033	-0.395346
C	 0.0431866072	 0.0628276662	 0.0070886716	-0.00047
C	 0.787028945	-0.5402383395	-1.1763433566	-0.04238
N	 2.2646790508	-0.4608977963	-1.0276627732	-0.361327
C	 1.5448445914	-1.7235456445	-0.7124007387	-0.042383
C	 1.3051049537	-1.9075479527	 0.7796294581	-0.000461
C	 2.4844729242	-2.4729926816	 1.5692388668	-0.395355
C	 0.832341785	-0.4908564765	 1.2354859809	 0.079925
O	 1.9081508333	 0.346682579	 1.6141903851	-0.433055
H	 0.8615969302	 2.0749834778	-0.0476233536	 0.125635
H	-0.6851547935	 1.899483005	-0.8992516984	 0.101155
H	-0.6387472526	 1.9390692487	 0.8702284275	 0.115774
H	-0.9551223448	-0.3980890783	 0.0205317893	 0.071751
H	 0.3690515965	-0.4778507111	-2.1765851901	 0.08323
H	 2.7074441066	-0.534731333	-1.9391169779	 0.234246
H	 1.7183992699	-2.5848193393	-1.3504974949	 0.08323
H	 0.4486335101	-2.5899307582	 0.8798948522	 0.07175
H	 3.3598407288	-1.8258493646	 1.4817540672	 0.125639
H	 2.2404197183	-2.5564916443	 2.6328428424	 0.115775
H	 2.7541027986	-3.4707505517	 1.2062943026	 0.101157
H	 0.1876027339	-0.5581690431	 2.1169694393	 0.071862
H	 2.4721957625	 0.3988548201	 0.8257131637	 0.289649
124.0751	168.9792	200.9026	216.6117	227.1337	283.7295	293.4556	419.2747	449.8018	488.3149	574.9551	616.024	689.3778	747.4574	806.8645	824.1131	856.1675	869.5693	902.0542	924.3772	933.7268	997.3659	1013.2593	1059.2515	1080.0203	1099.5554	1121.3103	1135.3867	1139.6171	1142.6664	1184.5397	1251.2484	1263.8457	1271.8819	1310.0809	1324.5949	1359.9503	1363.2048	1389.2863	1410.0503	1410.2213	1424.8105	1474.5963	1493.8381	1494.1726	1495.4317	1497.9472	3001.0531	3005.9221	3037.94	3038.2235	3064.0003	3099.3575	3099.6353	3128.4493	3128.9466	3150.1411	3161.4325	3513.4917	3670.3623
CC1C2NC2C(C)C1O	C[C@H]1[C@H]2N[C@H]2[C@@H](C)[C@H]1O	
InChI=1S/C7H13NO/c1-3-5-6(8-5)4(2)7(3)9/h3-9H,1-2H3	InChI=1S/C7H13NO/c1-3-5-6(8-5)4(2)7(3)9/h3-9H,1-2H3/t3-,4+,5+,6-,7-
