21
gdb 104046	3.37165	1.19073	1.08463	2.2585	77.99	-0.2398	0.0687	0.3085	1197.2561	0.182017	-424.186559	-424.177558	-424.176613	-424.22008	34.297	
C	 0.1731803601	 1.4979163322	 0.0550137593	-0.45384
C	 0.0145246882	-0.0153367135	 0.0005215682	 0.320766
C	-1.4420027356	-0.4278856921	-0.1855560572	-0.126733
O	-1.8760501871	 0.0198420875	-1.461598231	-0.42449
C	 0.9530610433	-0.7942927817	-0.9883180698	-0.285443
C	 1.4660337704	-1.6844215814	 0.1762657765	-0.076477
C	 2.6814250596	-1.1110991953	 0.9193429125	-0.080941
O	 1.8423200074	-0.2405594198	 1.7175503214	-0.294244
C	 0.6409619978	-0.8249266565	 1.1745221358	 0.06982
H	 1.2102138985	 1.7672554407	 0.2674525403	 0.122923
H	-0.1277165466	 1.9453669936	-0.8962377526	 0.127614
H	-0.4519182075	 1.9314553749	 0.8447788476	 0.106159
H	-1.5328601133	-1.5244067069	-0.1027385415	 0.078998
H	-2.049716622	 0.013360279	 0.6216888585	 0.086549
H	-2.7879951372	-0.2581445545	-1.5856673006	 0.288301
H	 0.4096000903	-1.3224960209	-1.7737613821	 0.110492
H	 1.7289115675	-0.1848675893	-1.460359559	 0.096223
H	 1.3876291761	-2.7657481938	 0.0749741658	 0.073934
H	 3.2147613633	-1.8315160723	 1.5533971264	 0.098709
H	 3.4106165592	-0.5530616426	 0.3183193082	 0.10014
H	-0.0235801323	-1.2008978773	 1.9605753034	 0.061542
84.3317	122.9829	170.6179	216.0397	250.6487	258.5097	310.327	358.9056	370.3691	409.295	534.3444	645.7802	769.8606	792.1241	838.9842	868.5661	915.4616	919.0602	964.7185	976.7075	989.39	1013.6397	1024.5439	1047.6488	1083.1355	1143.2852	1147.2896	1165.2809	1196.0068	1200.2654	1216.56	1237.1269	1258.4729	1270.4767	1303.0679	1322.8343	1334.4172	1360.2813	1403.7896	1455.2196	1488.3603	1491.124	1498.813	1518.4262	1524.6095	2949.6327	2981.5241	3004.4999	3032.9525	3040.5807	3049.6705	3060.9414	3101.5485	3114.2312	3125.6041	3130.2972	3832.9812
CC1(CO)CC2COC12	C[C@@]1(CO)C[C@H]2CO[C@@H]12	
InChI=1S/C7H12O2/c1-7(4-8)2-5-3-9-6(5)7/h5-6,8H,2-4H2,1H3	InChI=1S/C7H12O2/c1-7(4-8)2-5-3-9-6(5)7/h5-6,8H,2-4H2,1H3/t5-,6+,7-/m0/s1
