17
gdb 8234	5.7695	1.18434	1.02613	5.3696	64.19	-0.2534	0.0186	0.2721	1114.1803	0.143979	-401.039611	-401.031812	-401.030868	-401.072122	28.44	
O	-0.3594773551	 0.333284006	 0.8825899002	-0.218374
C	-0.090111882	 1.3356839637	 0.0030891369	 0.428884
O	 1.0230711328	 1.6079364887	-0.3396718594	-0.336769
C	-1.4010612913	 1.9952249884	-0.4178132143	-0.3868
C	-2.471464095	 0.9823619219	 0.0000384274	 0.012286
C	-1.7688069073	 0.2485678104	 1.1578602095	-0.070481
N	-4.7116881898	 0.5177364939	 0.8815703256	-0.511071
H	-4.988501276	-0.0887036377	 0.1143996999	 0.228437
H	-5.5690389127	 0.9227102734	 1.2437367729	 0.233413
C	-3.823235546	 1.5742018961	 0.3870511798	-0.179748
H	-1.496892007	 2.9372662067	 0.1377053339	 0.134032
H	-1.3779365643	 2.2411539498	-1.4800527981	 0.138605
H	-2.6188731041	 0.2683108681	-0.8212311653	 0.08508
H	-2.0337629064	-0.8053999703	 1.2385551157	 0.130826
H	-1.9728891532	 0.7324355016	 2.1207935821	 0.114787
H	-3.6746854111	 2.2944050438	 1.2020335858	 0.106542
H	-4.2274416715	 2.1442947656	-0.4667520725	 0.090351
76.6172	124.6242	177.9844	205.3019	248.9343	366.5078	423.7205	518.3656	543.3268	634.0031	693.5593	838.0989	840.559	879.0637	925.3753	946.2371	1026.5665	1059.1215	1062.3593	1098.3499	1124.6713	1155.3642	1176.8887	1206.5167	1262.3595	1277.0881	1309.6159	1354.3629	1362.6664	1403.6691	1428.0786	1466.489	1508.0716	1519.9342	1660.2828	1884.1468	2953.6734	3013.9336	3036.801	3037.097	3048.2299	3127.487	3132.9765	3490.4629	3569.7901
[O-]C(=O)CC1C[NH2+]C1	O1C(=O)C[C@@H](C1)CN	
InChI=1S/C5H9NO2/c7-5(8)1-4-2-6-3-4/h4,6H,1-3H2,(H,7,8)	InChI=1S/C5H9NO2/c6-2-4-1-5(7)8-3-4/h4H,1-3,6H2/t4-/m1/s1
