21
gdb 117890	4.07393	0.52207	0.48295	1.507	85.49	-0.2593	0.0277	0.287	2300.993	0.179474	-424.19147	-424.179996	-424.179052	-424.229998	39.481	
C	 0.0518444065	 1.5296462565	-0.0973719447	-0.388178
C	 0.0107129251	 0.0032746435	 0.0090370328	-0.164051
C	-1.413561054	-0.5573009169	-0.036779277	-0.1713
C	-1.4583801556	-2.0890538715	 0.1313429789	-0.076052
O	-0.8510712298	-2.5115688581	 1.353060753	-0.414732
C	-2.8262166912	-2.5989906903	 0.0010489773	 0.007584
C	-3.9661807408	-2.9842087644	-0.0775891778	 0.105161
C	-5.3223653003	-3.523619317	-0.1704779567	-0.192196
O	-5.3942666181	-4.7691295526	-0.8492663418	-0.401041
H	 1.0803761831	 1.9020065896	-0.0636988699	 0.113974
H	-0.3976182798	 1.8771795047	-1.0343903143	 0.113781
H	-0.4986286515	 1.9996076469	 0.7254551947	 0.113139
H	 0.5968846117	-0.4388274094	-0.8077078831	 0.094879
H	 0.4883164982	-0.3242274435	 0.9382309168	 0.112757
H	-2.0259013202	-0.1037131277	 0.7548240532	 0.092492
H	-1.8974139786	-0.2984802576	-0.986566982	 0.106793
H	-0.8355793993	-2.5421050953	-0.6509929689	 0.117011
H	-1.4533158057	-2.2752008264	 2.0675175519	 0.281732
H	-5.7526666785	-3.592200997	 0.8419496691	 0.117833
H	-5.96260858	-2.8383380954	-0.7372319325	 0.141469
H	-4.7399162112	-5.352376338	-0.450570649	 0.288944
24.1583	63.8566	82.5768	88.8467	139.9766	163.4291	238.9261	244.5065	266.5309	309.7701	328.2988	349.0692	416.2547	524.8814	551.6209	588.2454	749.6283	792.7397	855.5451	906.3499	949.0901	988.2273	1040.7526	1046.7439	1077.2002	1103.1707	1119.8372	1162.5984	1216.6042	1239.7337	1268.4994	1294.9732	1332.3577	1348.9811	1356.1551	1389.2408	1413.2562	1416.0873	1422.3619	1478.3315	1490.25	1494.7812	1499.4787	1512.0631	2350.7232	2972.3821	3012.1775	3022.5832	3028.5211	3031.7295	3058.1935	3061.6365	3076.1304	3098.4249	3102.8747	3802.6444	3816.1662
CCCC(O)C#CCO	CCC[C@@H](O)C#CCO	
InChI=1S/C7H12O2/c1-2-4-7(9)5-3-6-8/h7-9H,2,4,6H2,1H3	InChI=1S/C7H12O2/c1-2-4-7(9)5-3-6-8/h7-9H,2,4,6H2,1H3/t7-/m1/s1
