14
gdb 28990	3.11814	1.54785	1.03438	1.2429	82.12	-0.2306	-0.0463	0.1844	1070.8386	0.101976	-399.579532	-399.572216	-399.571271	-399.611169	28.489	
O	 0.070701462	 1.3334524477	-0.0173104651	-0.430032
C	 0.0491406002	-0.0158162972	-0.0085708269	 0.334046
C	 0.0350944075	-0.7058983386	-1.2183887354	-0.175047
C	 0.013009267	-2.0919328337	-1.1868750898	-0.103441
C	 0.0056504779	-2.744610583	 0.0478990088	-0.029376
N	 0.0188105286	-2.1025526585	 1.2118641989	-0.315156
C	 0.0401863994	-0.7618812337	 1.1899524923	 0.068044
C	 0.0548564225	-0.0387894304	 2.4228929782	 0.180472
C	 0.0684118784	 0.6605249691	 3.4052015576	-0.369037
H	 0.0779025016	 1.6413110132	 0.9016081514	 0.297636
H	 0.0417090204	-0.1476353304	-2.1474763235	 0.119627
H	 0.0015490427	-2.6652874578	-2.1072303132	 0.109139
H	-0.0115721245	-3.8297140287	 0.098598403	 0.108889
H	 0.0795295762	 1.2366703519	 4.2978083736	 0.204236
125.2603	144.1371	241.8406	387.3446	387.3839	479.977	489.8546	509.2844	560.7971	577.7219	600.6931	606.5604	683.6663	739.9939	792.4242	834.1059	872.4425	945.8014	985.7417	1072.3137	1119.7083	1175.9103	1259.3507	1290.6792	1317.3119	1362.9523	1469.4836	1497.0463	1603.7414	1639.4196	2212.4084	3164.6547	3192.2038	3208.1462	3496.1317	3715.661
OC1=CC=CN=C1C#C	Oc1cccnc1C#C	
InChI=1S/C7H5NO/c1-2-6-7(9)4-3-5-8-6/h1,3-5,9H	InChI=1S/C7H5NO/c1-2-6-7(9)4-3-5-8-6/h1,3-5,9H
