18
gdb 67789	3.17329	2.00578	1.48692	1.5982	79.25	-0.2224	0.0127	0.2351	910.3301	0.149265	-364.753635	-364.746925	-364.745981	-364.784097	28.627	
C	-0.0144542034	 1.4581316599	 0.0481597631	-0.487262
C	-0.0392885443	-0.0565535727	-0.0206249554	 0.315333
C	-1.2122904131	-0.6875872547	-0.6300887387	-0.157994
C	-1.2172251773	-2.0203981546	-0.7420498624	-0.073489
C	-0.058083362	-2.7433962973	-0.226032524	-0.077283
C	 0.6983829419	-2.2673437995	 0.9759874163	-0.069687
C	 0.7116074197	-0.7488482058	 1.1360982773	-0.153545
C	 1.3377667464	-0.700042094	-0.2247216447	-0.063466
N	 1.3597520614	-2.193703885	-0.3579471891	-0.179479
H	 0.9204536787	 1.8241810899	 0.4839189239	 0.11928
H	-0.1116382162	 1.8960193451	-0.95101611	 0.124946
H	-0.8383884208	 1.8353931913	 0.6636457939	 0.123945
H	-2.0211268403	-0.0623292544	-0.993685632	 0.090935
H	-2.0250491411	-2.5756408146	-1.2038649139	 0.095886
H	-0.0356778363	-3.8179305817	-0.3778867037	 0.096535
H	 1.0449363773	-2.9525570219	 1.7428748704	 0.098473
H	 0.9509034119	-0.2198112824	 2.0489172113	 0.093481
H	 2.1691939175	-0.1394889278	-0.6321176524	 0.103393
199.7448	245.8603	311.9222	369.9144	395.9563	502.8155	566.5467	599.7476	652.663	670.0744	729.7545	757.6461	824.7031	846.3304	863.289	893.2513	919.0735	942.9676	950.3628	965.4972	988.4046	1029.8315	1064.9368	1074.6121	1076.2424	1097.913	1151.4564	1186.479	1203.164	1241.9521	1272.6246	1294.3534	1360.8951	1393.6918	1418.8174	1453.6392	1492.5608	1503.1554	1685.5454	3029.5323	3093.5426	3103.0099	3156.2368	3165.3961	3175.2126	3190.9861	3202.4816	3205.0844
CC12C=CC3C4C1C2N34	C[C@]12C=C[C@@H]3[C@@H]4[C@H]1[C@H]2N34	
InChI=1S/C8H9N/c1-8-3-2-4-6-5(8)7(8)9(4)6/h2-7H,1H3	InChI=1S/C8H9N/c1-8-3-2-4-6-5(8)7(8)9(4)6/h2-7H,1H3/t4-,5+,6-,7-,8+,9?/m1/s1
