14
gdb 132999	3.9562	1.17018	0.9081	5.7684	71.03	-0.2295	-0.0375	0.192	1191.9203	0.101121	-474.181956	-474.174007	-474.173063	-474.215259	28.304	
C	 0.033325069	 1.4359440207	 0.0736990132	-0.326178
N	 0.1755342345	-0.0038661679	 0.0666676683	-0.283003
C	 0.6458207043	-0.5953612892	-0.9516445542	 0.384626
N	 1.0617686992	 0.077860296	-2.1378647596	-0.281049
C	 1.5195891299	-0.6130574805	-3.1022874615	 0.090812
N	 1.6392975684	-1.9920001415	-3.0681078222	-0.374566
C	 1.226192281	-2.5964158853	-1.9059176584	 0.40202
F	 1.3694651186	-3.9103596665	-1.9468925713	-0.060612
N	 0.7605581567	-2.0103125519	-0.8972120262	-0.347934
H	 0.6021371592	 1.8416607095	 0.9194319568	 0.122157
H	 0.3577848193	 1.9337938031	-0.8463166921	 0.123117
H	-1.0181549561	 1.6848357976	 0.2630822344	 0.122151
H	 1.8490520358	-0.1432546449	-4.0269524156	 0.144743
H	 2.0018363402	-2.5308833291	-3.8376726516	 0.283717
56.2512	101.8859	155.1663	244.6197	298.6659	368.9953	399.4244	477.6622	511.189	539.5974	640.5689	704.2166	767.1728	788.9567	916.868	955.3118	997.1619	1058.6396	1099.7873	1131.0599	1153.1051	1240.184	1299.0889	1408.8511	1430.8608	1476.2081	1488.7703	1495.1667	1677.4686	1732.6097	1797.436	3012.345	3063.7928	3089.5377	3155.58	3652.6076
CN=C1N=CNC(F)=N1	C[N]C1=NCNC(=N1)F	
InChI=1S/C4H5FN4/c1-6-4-8-2-7-3(5)9-4/h2H,1H3,(H,6,7,8,9)	InChI=1S/C4H6FN4/c1-6-4-8-2-7-3(5)9-4/h2H2,1H3,(H,7,8,9)
