15
gdb 125826	2.505	1.77965	1.05055	3.2213	74.31	-0.2401	-0.0679	0.1722	1076.8841	0.112592	-450.069016	-450.060985	-450.060041	-450.10145	30.568	
C	 0.1009054172	 1.4499863587	 0.0026645173	-0.457529
C	-0.0102156297	-0.0435679099	 0.0338412134	 0.362797
N	-0.0511731208	-0.6563150686	-1.1020942085	-0.129314
O	-0.1495658486	-2.0240005107	-1.1247105305	-0.227295
N	-0.302146085	-2.7838500775	 0.0210151956	-0.170289
C	-0.2214580974	-2.188352038	 1.1666533272	 0.374599
N	-0.2863681699	-2.9714462516	 2.3052678039	-0.5631
C	-0.0214377159	-0.7425455444	 1.3158647934	 0.135245
N	 0.139683327	-0.0936373976	 2.412099819	-0.518742
H	 1.0071602559	 1.7691659332	 0.5258033129	 0.153685
H	 0.1206391949	 1.8024212453	-1.0290269691	 0.142505
H	-0.7411989019	 1.9029716236	 0.5350120857	 0.147419
H	-0.5223297832	-3.9349240938	 2.1037585582	 0.268194
H	-0.8572663696	-2.5867373	 3.0465859401	 0.259639
H	 0.1762648272	-0.7249259887	 3.2141194913	 0.222185
80.8637	172.5832	256.379	287.2904	311.4917	337.2771	372.0533	454.7984	476.667	521.7023	530.101	569.1677	684.4635	711.354	794.3271	855.8465	888.2148	899.509	930.7933	1018.2401	1060.7277	1063.6074	1176.5078	1240.3301	1375.3581	1411.8724	1466.2185	1468.3591	1478.1635	1609.2736	1632.629	1640.1727	1682.7737	3051.2401	3109.7598	3156.0194	3463.814	3540.3543	3641.6805
CC1=NON=C(N)C1=N	CC1=NON=C(N)[C]1[NH]	
InChI=1S/C4H6N4O/c1-2-3(5)4(6)8-9-7-2/h5H,1H3,(H2,6,8)	InChI=1S/C4H6N4O/c1-2-3(5)4(6)8-9-7-2/h5H,1H3,(H2,6,8)
