18
gdb 66553	3.01976	2.01594	1.68972	1.5256	78.44	-0.2274	0.0024	0.2299	876.258	0.149703	-364.755812	-364.749242	-364.748298	-364.786275	27.763	
C	-0.0064496218	 1.4929723331	-0.0337193701	-0.507836
C	 0.0634224321	 0.0000236121	-0.0007183387	 0.355254
C	 0.3370194066	-1.0150683395	-1.0392242403	-0.127691
C	 0.5071004044	-2.0561733808	 0.1090202334	-0.089403
C	-1.0309586207	-2.1086481603	 0.2376880154	-0.012118
C	-1.352627036	-1.8978593274	 1.6858247807	-0.079551
C	-0.3540750799	-1.1850874715	 2.22789792	-0.09284
C	 0.6516716053	-0.8972247194	 1.1491298811	-0.127112
N	-1.0674224858	-0.7862217598	-0.5839356239	-0.198795
H	 0.9892241964	 1.9361178692	 0.0769070172	 0.115448
H	-0.4365837048	 1.8388435901	-0.9775523924	 0.133522
H	-0.6381971433	 1.8667501552	 0.7802510473	 0.125105
H	 0.6528120413	-0.9668195199	-2.0729234563	 0.09357
H	 1.1443968976	-2.9388499678	 0.1512716843	 0.070599
H	-1.5768073312	-2.8756533643	-0.3099049923	 0.073072
H	-2.2783276027	-2.1918683339	 2.1646259173	 0.099988
H	-0.3115047615	-0.7923264282	 3.2367674213	 0.10037
H	 1.6638552141	-0.6176582067	 1.4413961461	 0.068416
192.6797	199.594	279.5117	393.4404	440.4605	561.6793	588.0444	671.2684	728.8842	738.1356	774.763	829.0415	839.6066	845.1582	876.3518	912.985	921.9691	945.5513	953.0469	985.2781	996.7824	1014.2765	1021.3977	1085.2428	1126.4233	1144.7887	1153.5011	1168.3917	1221.3933	1232.7449	1249.4101	1282.3412	1312.5769	1362.3174	1400.2798	1442.2514	1486.1089	1490.6801	1629.5393	3029.1029	3090.701	3113.6228	3114.9652	3119.9061	3128.4663	3194.8636	3202.1285	3220.4485
CC12C3C4C(C=CC14)N23	C[C@@]12[C@H]3[C@@H]4[C@@H](C=C[C@H]14)N23	
InChI=1S/C8H9N/c1-8-4-2-3-5-6(4)7(8)9(5)8/h2-7H,1H3	InChI=1S/C8H9N/c1-8-4-2-3-5-6(4)7(8)9(5)8/h2-7H,1H3/t4-,5+,6-,7+,8-,9?/m0/s1
