21
gdb 39423	2.34727	1.88059	1.31552	2.2469	81.41	-0.2369	0.0689	0.3058	1040.5115	0.187203	-383.224858	-383.217411	-383.216467	-383.256361	30.784	
C	-0.0173496511	 1.5126553548	-0.0898943966	-0.188535
C	 1.3618000921	 2.2101157857	-0.1231697662	-0.216294
C	 2.3284221311	 1.9238652829	 1.0210331631	-0.017406
N	 1.8587326624	 1.0958547399	 2.143960651	-0.329298
C	 2.8794831625	 0.5534311916	 1.2346947175	-0.026548
C	 2.5268012192	-0.5468941286	 0.2801238498	-0.010287
N	 1.7633456696	-1.7240724308	 0.7297777123	-0.340571
C	 1.154411678	-0.7903127293	-0.2421446417	-0.038427
C	-0.0436162982	 0.0017082284	 0.2429536319	-0.195162
H	-0.653427469	 2.0215499526	 0.6423765862	 0.102462
H	-0.4822158954	 1.6916468497	-1.0674484955	 0.087462
H	 1.8739809865	 1.9573629158	-1.0609260781	 0.099395
H	 1.184179339	 3.2913733466	-0.1675344081	 0.093472
H	 2.9955262523	 2.7495783057	 1.2636130001	 0.078229
H	 2.2937367232	 1.3862014322	 3.0144806871	 0.230798
H	 3.894537323	 0.4905173648	 1.624703999	 0.075707
H	 3.3362808761	-0.7312498238	-0.427264504	 0.074838
H	 2.1053421838	-2.5572387146	 0.2575275863	 0.224998
H	 1.111198699	-1.1252508693	-1.2783869971	 0.073259
H	-0.0857614927	-0.121189574	 1.3238185553	 0.142511
H	-0.9572500112	-0.4399704105	-0.1735369921	 0.079397
150.1915	200.2328	230.6795	277.9374	321.8468	407.2378	465.849	516.9772	608.8644	676.7713	738.5209	769.2479	786.5333	813.7412	870.7691	884.592	895.8129	942.4345	966.8317	982.1396	985.7998	1034.1594	1068.1873	1080.6059	1110.8254	1138.7091	1159.6543	1170.4285	1201.1245	1216.8443	1228.5398	1264.3746	1276.7294	1286.4724	1314.9895	1348.309	1371.3298	1393.6537	1407.8583	1425.1971	1464.5956	1478.749	1480.3858	1492.3844	1502.0499	3015.0693	3023.7383	3036.3939	3047.0921	3070.0005	3088.1518	3101.7987	3108.1046	3118.3461	3146.833	3494.7498	3513.299
C1CC2NC2C2NC2C1	C1C[C@H]2N[C@H]2[C@H]2N[C@H]2C1	
InChI=1S/C7H12N2/c1-2-4-6(8-4)7-5(3-1)9-7/h4-9H,1-3H2	InChI=1S/C7H12N2/c1-2-4-6(8-4)7-5(3-1)9-7/h4-9H,1-3H2/t4-,5+,6-,7+
