17
gdb 115986	2.19833	1.52302	0.96097	0.6421	80.66	-0.239	-0.0283	0.2107	1218.92	0.134143	-421.792553	-421.78363	-421.782686	-421.826531	32.305	
C	-0.2250915628	 1.3317663842	 0.1273296729	-0.239294
O	-0.1557048796	-0.0831731836	 0.1607547312	-0.232154
C	 0.8019801111	-0.5744364269	 1.0543132142	 0.094584
O	 0.449707902	-0.3633982607	 2.4096714202	-0.266984
C	-0.0051325029	-1.5806463288	 2.9932807224	-0.11879
C	 0.3655099159	-2.6453990104	 2.0071569758	-0.228784
C	 0.8629749376	-2.0861984013	 0.8994681447	 0.169228
C	 1.33188774	-2.7064101918	-0.2779993108	 0.270131
C	 1.7578887581	-3.2018074807	-1.2898608909	-0.4393
H	 0.7465486685	 1.7730423723	-0.1416926962	 0.107003
H	-0.9589570845	 1.5968222155	-0.6365220334	 0.128293
H	-0.5418575346	 1.7408799431	 1.0941630385	 0.125374
H	 1.7623616948	-0.0639746463	 0.8808269273	 0.076286
H	 0.4905499377	-1.7093588765	 3.965098399	 0.120438
H	-1.0904768495	-1.5524243782	 3.1793694349	 0.11939
H	 0.2267654845	-3.703390208	 2.1845779388	 0.118755
H	 2.1209195735	-3.6458248819	-2.1834265785	 0.195824
82.6515	110.7338	135.361	166.3504	187.1912	244.0781	350.5621	391.7284	473.7657	544.9344	587.9088	599.2468	636.1784	649.2951	782.8009	838.9655	940.2048	942.7947	977.8117	1007.1335	1033.7866	1080.8545	1130.8609	1178.0742	1189.7531	1200.1598	1217.0726	1272.1269	1349.0824	1382.2411	1395.4558	1476.3128	1484.9339	1507.5563	1512.1437	1686.2736	2229.5376	2981.877	2983.5286	2992.4805	3025.9683	3061.8854	3126.2954	3231.0385	3502.8513
COC1OCC=C1C#C	CO[C@H]1OCC=C1C#C	
InChI=1S/C7H8O2/c1-3-6-4-5-9-7(6)8-2/h1,4,7H,5H2,2H3	InChI=1S/C7H8O2/c1-3-6-4-5-9-7(6)8-2/h1,4,7H,5H2,2H3/t7-/m0/s1
