18
gdb 67899	2.43142	1.87407	1.3393	3.9437	75.16	-0.2328	0.0278	0.2606	996.706	0.147981	-401.933948	-401.926298	-401.925353	-401.965661	30.762	
C	-0.0199158189	 1.524562967	-0.0236163304	-0.47684
C	 0.0090443687	 0.0162790931	 0.0309265322	 0.367681
N	-1.2949618927	-0.6615610374	 0.1187450606	-0.372215
C	-0.9681007762	-1.4522732495	 1.2107554003	 0.414988
O	-1.5752929275	-2.3077224081	 1.795875221	-0.364483
C	 0.433689569	-0.7951939797	 1.2888796076	-0.259208
C	 1.5620285259	-1.4637065981	 0.4596802868	-0.0455
C	 1.0401514169	-2.1792235492	-0.7514047324	-0.311149
C	 1.1401795189	-0.6823879252	-0.7886983035	-0.095577
H	 0.9853148299	 1.931872519	 0.1236601346	 0.127545
H	-0.377474317	 1.8746151973	-0.9995102422	 0.121548
H	-0.6801756444	 1.9301958417	 0.7481992677	 0.127528
H	-2.030735485	-0.7900089759	-0.5631730299	 0.241651
H	 0.7267626845	-0.3039511042	 2.214632513	 0.095282
H	 2.55656291	-1.6426174574	 0.8464799622	 0.096901
H	 1.7980200187	-2.6952707587	-1.3322914131	 0.116606
H	 0.0770664792	-2.6811075036	-0.7405675777	 0.128224
H	 1.7596615799	-0.1627091812	-1.5102438566	 0.087019
120.9459	212.3948	228.8657	264.9866	310.4646	382.0964	442.7707	496.4242	534.6868	600.8926	679.1157	716.4427	758.52	808.6932	860.6992	871.3274	901.2112	939.2103	950.6499	989.7894	1004.3457	1026.1788	1058.3065	1086.644	1099.9045	1113.9636	1168.7472	1178.214	1224.8491	1236.2427	1248.935	1300.1267	1331.8337	1380.9644	1411.1387	1486.4448	1488.0095	1493.0095	1884.77	3028.9609	3093.1935	3116.5779	3122.2269	3140.9112	3176.0672	3195.8207	3207.6863	3582.0632
CC12NC(=O)C1C1CC21	C[C@]12NC(=O)[C@H]1[C@H]1C[C@@H]21	
InChI=1S/C7H9NO/c1-7-4-2-3(4)5(7)6(9)8-7/h3-5H,2H2,1H3,(H,8,9)	InChI=1S/C7H9NO/c1-7-4-2-3(4)5(7)6(9)8-7/h3-5H,2H2,1H3,(H,8,9)/t3-,4+,5+,7+/m0/s1
