21
gdb 122121	2.0853	1.0116	0.80995	2.9303	76.74	-0.2425	-0.0296	0.2129	1536.9113	0.178045	-461.347374	-461.336188	-461.335244	-461.385385	37.696	
C	-0.102959626	 1.302116404	 0.0817828489	-0.381287
C	-0.629138171	-0.0655530033	 0.4810615372	-0.041215
O	-1.1239181844	-0.7028747647	-0.6928191746	-0.253463
C	-1.4997596034	-2.0513205764	-0.5423866973	-0.101589
C	-2.9288927579	-2.2465843054	-0.0117708587	 0.024061
O	-2.9744379452	-1.879494092	 1.3516959389	-0.24154
C	-4.1392137095	-2.3238071679	 2.019978349	-0.243858
C	-3.8979201929	-1.4027855384	-0.8443475477	 0.14926
O	-4.3385145329	-1.7459240713	-1.9089111378	-0.244947
H	 0.292092287	 1.8265075842	 0.9571629119	 0.11403
H	 0.6960341285	 1.2077249594	-0.6590894785	 0.125127
H	-0.9017620886	 1.9097539522	-0.3533675959	 0.126039
H	 0.1753015007	-0.6780117365	 0.9198470497	 0.086166
H	-1.421074891	 0.0198407541	 1.2347852156	 0.10986
H	-1.4564557375	-2.5015098415	-1.5397133524	 0.125437
H	-0.8068570579	-2.5912578872	 0.1205065732	 0.100748
H	-3.1969166915	-3.3074659096	-0.1465764379	 0.090047
H	-4.067219887	-1.9826095023	 3.0548486546	 0.135595
H	-5.0580510481	-1.9129745793	 1.5759094683	 0.116476
H	-4.2124082092	-3.4215312807	 2.0072255702	 0.115364
H	-4.1490758021	-0.4218807274	-0.3820927867	 0.089688
46.3503	49.3889	68.9862	104.2688	121.1546	180.4036	203.3929	234.9958	255.7599	298.5623	315.391	403.334	458.4726	536.979	634.8908	814.8715	820.8801	883.9543	918.1947	993.4768	1044.0243	1068.7298	1097.8902	1132.8961	1150.9837	1163.5726	1182.4852	1187.7417	1227.6823	1271.6125	1295.786	1326.92	1341.9234	1389.1225	1400.1871	1407.2647	1431.179	1472.1425	1481.5123	1482.8021	1488.0655	1500.093	1506.3843	1531.7133	1838.2409	2885.0377	2973.9459	2976.1923	2983.9956	2996.9427	3032.9289	3043.5538	3050.7772	3081.8039	3117.4553	3121.0188	3124.2438
CCOCC(OC)C=O	CCOC[C@@H](OC)C=O	
InChI=1S/C6H12O3/c1-3-9-5-6(4-7)8-2/h4,6H,3,5H2,1-2H3	InChI=1S/C6H12O3/c1-3-9-5-6(4-7)8-2/h4,6H,3,5H2,1-2H3/t6-/m0/s1
