19
gdb 75743	2.86224	1.47228	1.09555	3.6986	83.65	-0.2329	-0.042	0.1909	1129.6064	0.159612	-385.920186	-385.91196	-385.911016	-385.953022	32.04	
C	-0.1464844064	 1.5592569685	-0.0450573332	-0.402408
C	 0.0449793862	 0.0427694703	 0.0155345326	-0.204919
C	 0.9101461198	-0.4610181404	-1.1650329439	 0.37277
O	 0.7403136864	-0.159561859	-2.3250898345	-0.343203
C	 1.9517666752	-1.3454153907	-0.6054202296	-0.21723
C	 1.8531525033	-1.3715391983	 0.7325621031	-0.098102
C	 0.7485640799	-0.5342790944	 1.2494838789	 0.317538
C	 0.932578649	 0.22612499	 2.5533506238	-0.308108
C	 0.0063534681	-0.9509147832	 2.5066345666	-0.3077
H	 0.7977836565	 2.0844323405	 0.1300035447	 0.121393
H	-0.5079019052	 1.8339826098	-1.0395021935	 0.141831
H	-0.8734578151	 1.9079827675	 0.6950102812	 0.110338
H	-0.9344956266	-0.4392816374	-0.1032946513	 0.106332
H	 2.6787131459	-1.8609576578	-1.2188959376	 0.114788
H	 2.5000654689	-1.9311604218	 1.4017412622	 0.114006
H	 1.8806270465	 0.120831105	 3.0701330256	 0.117782
H	 0.5009266093	 1.218590068	 2.6139550344	 0.125973
H	-1.0618349705	-0.7614860558	 2.5283138675	 0.122256
H	 0.3069072189	-1.8707770705	 2.997234693	 0.116664
54.1007	202.3832	232.9186	247.4646	254.7774	282.8242	357.0074	459.6089	502.2008	551.2312	687.0505	695.7864	762.6814	780.7981	799.0279	834.3614	890.0096	920.1168	948.8559	980.3946	998.0187	1028.6716	1057.829	1080.2204	1090.9809	1100.4237	1115.0922	1176.0935	1193.9685	1241.4678	1295.0007	1309.7057	1338.0218	1392.4526	1402.9679	1467.9453	1493.9011	1499.2923	1504.465	1629.4604	1806.1208	3022.3415	3037.749	3105.7025	3122.5881	3127.8666	3136.1471	3178.2177	3209.2842	3226.2655	3229.6703
CC1C(=O)C=CC11CC1	C[C@H]1C(=O)C=CC21CC2	
InChI=1S/C8H10O/c1-6-7(9)2-3-8(6)4-5-8/h2-3,6H,4-5H2,1H3	InChI=1S/C8H10O/c1-6-7(9)2-3-8(6)4-5-8/h2-3,6H,4-5H2,1H3/t6-/m0/s1
