17
gdb 67285	3.10088	1.91598	1.73859	0.4072	69.83	-0.2389	0.0513	0.2902	847.7741	0.137633	-421.745692	-421.73946	-421.738516	-421.775815	26.872	
O	-0.0952387714	 1.4414152385	 0.0038901038	-0.482206
C	-0.0164420051	 0.0682098096	 0.0008458868	 0.408952
C	 0.7644168641	-0.8728924503	-0.9834309986	-0.01805
O	 1.6367084941	-1.3300069807	 0.0723366403	-0.284249
C	 0.6682430617	-0.8828677667	 1.045262469	-0.018067
C	-0.6206483075	-1.8021231721	 1.0274136283	-0.061567
C	-0.4441756947	-2.9109366977	-0.0340863787	-0.227458
C	-0.5199494866	-1.791678501	-1.0965921178	-0.061569
C	-1.2541374224	-0.8616952396	-0.062410812	-0.112933
H	 0.7983583657	 1.8024746202	 0.0488821613	 0.288442
H	 1.2990019995	-0.5957595659	-1.8932930336	 0.078161
H	 1.1142119886	-0.6149107246	 2.0042991944	 0.078153
H	-1.0787214861	-2.0115447771	 1.9938654125	 0.06693
H	 0.4630633845	-3.5179377449	 0.0059420973	 0.108513
H	-1.3282151173	-3.5523292915	-0.0791502459	 0.09777
H	-0.8844553994	-1.9913966813	-2.1040468802	 0.066932
H	-2.2950955179	-0.553656205	-0.1102453271	 0.072245
244.7702	274.1213	350.51	380.1528	489.1406	528.015	575.0411	631.4597	726.0432	793.4528	797.6489	814.2572	846.9057	850.2364	919.0983	945.0415	957.0244	974.0396	1009.9667	1020.4975	1020.7456	1068.6839	1078.3763	1101.0678	1133.0811	1145.1028	1178.0614	1185.95	1227.7851	1236.8836	1262.2001	1271.6669	1291.1152	1323.8375	1339.9549	1411.637	1470.9121	3060.3544	3098.6393	3098.9939	3111.4005	3113.2866	3119.4564	3152.7834	3784.5462
OC12C3OC1C1CC3C21	O[C@@]12[C@H]3O[C@@H]1[C@@H]1C[C@H]3[C@H]21	
InChI=1S/C7H8O2/c8-7-4-2-1-3(4)6(7)9-5(2)7/h2-6,8H,1H2	InChI=1S/C7H8O2/c8-7-4-2-1-3(4)6(7)9-5(2)7/h2-6,8H,1H2/t2-,3+,4-,5-,6+,7-
