15
gdb 25970	5.10913	1.04798	0.87431	3.3837	70.25	-0.2168	-0.0179	0.199	1260.9036	0.113077	-454.013279	-454.005152	-454.004208	-454.047178	28.842	
C	-0.1690751788	 1.4985502807	 0.0377566261	-0.484847
C	 0.1436674822	 0.02783179	-0.0247131197	 0.422226
O	 1.2472693169	-0.4598924225	-0.0266202207	-0.353207
O	-1.0095051064	-0.6888898782	-0.0797392431	-0.256467
C	-1.0234561177	-2.0564588395	-0.1435326912	 0.386358
C	-2.1156467494	-2.8782903484	-0.2023663392	-0.190345
N	-1.6977641775	-4.1882896051	-0.2553244712	-0.253787
C	-0.3860245513	-4.1469520571	-0.2286092312	 0.016038
N	 0.0850052804	-2.8667325366	-0.1602059352	-0.307843
H	 0.7612751293	 2.0627274088	 0.0817009024	 0.156243
H	-0.7472870415	 1.7960015253	-0.8415324431	 0.161493
H	-0.780817738	 1.7141483244	 0.9182311236	 0.161488
H	-3.1570426455	-2.5998012209	-0.2091044718	 0.116204
H	 0.2774515305	-4.9978268306	-0.2555751722	 0.133941
H	 1.0294586868	-2.5170713204	-0.1261969434	 0.292503
56.8469	66.7498	100.2391	194.1642	325.9748	353.8672	373.5949	585.134	592.5721	610.8138	667.2056	703.9452	748.3972	798.7375	829.4753	918.6679	932.1244	1012.8591	1050.2732	1060.4991	1095.5967	1140.6387	1254.7519	1258.764	1285.3791	1379.8775	1398.3755	1436.7345	1467.54	1474.1049	1514.0857	1608.5957	1811.643	3059.5737	3124.7147	3174.336	3255.6775	3264.5421	3648.0395
CC(=O)OC1=CN=CN1	CC(=O)Oc1cnc[nH]1	
InChI=1S/C5H6N2O2/c1-4(8)9-5-2-6-3-7-5/h2-3H,1H3,(H,6,7)	InChI=1S/C5H6N2O2/c1-4(8)9-5-2-6-3-7-5/h2-3H,1H3,(H,6,7)
