21
gdb 95074	2.22038	1.90335	1.34911	1.3644	77.24	-0.2376	0.0676	0.3052	1036.0604	0.183461	-424.214263	-424.205973	-424.205029	-424.246423	33.555	
C	-0.1130681604	 1.5174894284	 0.0947526118	-0.484847
C	 0.0011628624	 0.0061804032	 0.0270756168	 0.29816
C	 1.0763631706	-0.6621477705	-0.8898943318	-0.301578
C	 1.0890078171	-1.8130261615	 0.1523896833	 0.132841
C	 0.6774445591	-0.7622367262	 1.2093145285	-0.275666
O	 0.027825766	-2.7404289609	-0.0371850061	-0.279237
C	-1.1224581439	-2.1606037349	-0.6488753335	-0.123858
C	-1.3536586013	-0.6781094839	-0.271522898	 0.0933
O	-2.2908318397	-0.5002581158	 0.7829590183	-0.44181
H	 0.8415615718	 1.9735305498	 0.3776047931	 0.105918
H	-0.4107128101	 1.9341202477	-0.8748501409	 0.112895
H	-0.8690289333	 1.8116721652	 0.8293205155	 0.130854
H	 0.8273584788	-0.8892966229	-1.9294942189	 0.099723
H	 2.0180107291	-0.1073030363	-0.8611938687	 0.100806
H	 1.9964784351	-2.4017036365	 0.2973599617	 0.076389
H	 1.532187062	-0.2049308843	 1.6035900407	 0.097873
H	 0.0690119828	-1.119449491	 2.0461447291	 0.08132
H	-1.0381352662	-2.2454332212	-1.7417508006	 0.095991
H	-1.9866346042	-2.7547126401	-0.3384370795	 0.113773
H	-1.8220659658	-0.1816508432	-1.1300293601	 0.085019
H	-1.9501969199	-0.9487448152	 1.5643352393	 0.282134
124.9979	207.226	236.4721	263.8219	279.848	321.9961	390.9899	417.4515	432.5075	480.9095	497.7409	658.7399	672.8478	810.9961	832.1765	857.4672	868.7677	908.171	931.7979	964.6149	976.5261	1011.403	1030.5413	1062.1195	1075.1935	1108.8537	1130.574	1188.1313	1206.4703	1222.7277	1242.2264	1260.9811	1269.418	1287.9362	1297.0889	1346.2066	1361.9111	1402.6189	1407.9709	1431.2333	1474.516	1490.0247	1496.5094	1501.8002	1518.5749	2993.5399	3025.9293	3040.2507	3043.4285	3060.9967	3087.2996	3089.9216	3095.3731	3100.1005	3108.0294	3114.3387	3809.7451
CC12CC(C1)OCC2O	C[C@@]12C[C@@H](C1)OC[C@H]2O	
InChI=1S/C7H12O2/c1-7-2-5(3-7)9-4-6(7)8/h5-6,8H,2-4H2,1H3	InChI=1S/C7H12O2/c1-7-2-5(3-7)9-4-6(7)8/h5-6,8H,2-4H2,1H3/t5-,6-,7+/m1/s1
