19
gdb 64054	2.25257	1.72987	1.2859	1.329	76.39	-0.233	-0.0188	0.2141	1060.3563	0.158228	-423.061444	-423.052585	-423.051641	-423.094671	34.053	
C	-0.0273896564	 1.5550369737	-0.0176668166	-0.437122
C	 0.0436404769	 0.0323554728	 0.0024757494	 0.245076
O	-1.2728063512	-0.5465266469	 0.0159643493	-0.461062
C	 0.7265379862	-0.5306075656	-1.2560106308	-0.268611
C	 1.1071543725	-1.9817833995	-1.1396619174	-0.056469
C	 1.1721852551	-2.6422790811	 0.013255404	-0.046542
C	 0.868040312	-2.0101876909	 1.3466134723	-0.349165
C	 0.7614424223	-0.494693335	 1.2621491476	 0.358566
O	 1.1740973051	 0.2378861896	 2.1305877882	-0.321408
H	 0.9724925639	 1.9958868574	-0.0185538984	 0.130877
H	-0.567139675	 1.8883994829	-0.9085338164	 0.118041
H	-0.542159612	 1.9303986151	 0.8720799876	 0.118372
H	-1.7727254581	-0.1127072505	 0.7166593208	 0.284703
H	 0.0330233692	-0.3843034455	-2.0936102163	 0.120179
H	 1.6158268346	 0.0723991716	-1.4850744172	 0.116558
H	 1.3473170784	-2.4942859065	-2.0676580852	 0.090063
H	 1.4529378744	-3.6920558632	 0.0267084665	 0.092996
H	-0.0894620369	-2.3941636133	 1.7282115025	 0.138321
H	 1.624025589	-2.254307505	 2.0998509101	 0.126626
74.935	113.2807	210.6298	233.8872	292.0197	341.6681	353.2915	365.0373	381.3824	482.798	498.134	534.3694	611.4477	667.4405	679.7535	811.4169	886.4815	906.3176	943.2609	961.6591	972.4707	1001.5011	1016.1309	1094.0577	1126.7064	1133.9275	1167.5607	1195.463	1245.1548	1281.0065	1330.293	1344.3537	1392.5722	1407.6322	1411.0625	1439.1886	1458.7587	1482.5583	1489.096	1734.2695	1815.163	3009.9944	3015.6167	3044.3627	3051.6366	3077.5367	3115.1777	3128.9572	3149.882	3172.7505	3800.1692
CC1(O)CC=CCC1=O	C[C@@]1(O)CC=CCC1=O	
InChI=1S/C7H10O2/c1-7(9)5-3-2-4-6(7)8/h2-3,9H,4-5H2,1H3	InChI=1S/C7H10O2/c1-7(9)5-3-2-4-6(7)8/h2-3,9H,4-5H2,1H3/t7-/m1/s1
