18
gdb 19912	4.03555	1.75655	1.55998	1.2076	71.1	-0.2048	0.0755	0.2803	890.9233	0.153612	-347.709616	-347.702303	-347.701359	-347.741153	28.375	
C	 0.2453852075	 1.2174997681	 0.2179625035	-0.240295
O	-0.432931276	 0.1007480145	-0.3242801626	-0.235745
C	 0.3631634659	-0.6165665654	-1.2168667076	 0.127302
C	 1.4309994866	-1.6282317749	-0.896341367	-0.128429
C	 1.1011869355	-2.6801488751	 0.1955403344	-0.057951
C	-0.2410578555	-2.5211073465	 0.8669834975	-0.301883
C	-0.168521836	-3.069682274	-0.5332577931	-0.050439
C	 0.1271634019	-2.023693827	-1.6418274647	-0.135159
H	 1.1315744034	 0.9137831444	 0.792692771	 0.115431
H	 0.5661379761	 1.9145821228	-0.5716830278	 0.105876
H	-0.4556958692	 1.7311868623	 0.8794144782	 0.126687
H	 0.6739300697	 0.000258485	-2.067743644	 0.086235
H	 2.4297936348	-1.536760611	-1.3071070772	 0.08393
H	 1.8670876888	-3.3334715552	 0.5927158498	 0.086083
H	-0.4348750367	-3.2836692141	 1.6171321383	 0.102819
H	-0.6747182134	-1.5544568727	 1.0731609187	 0.140859
H	-0.5143378178	-4.0635067453	-0.7855596069	 0.086488
H	 0.0046245045	-2.271858866	-2.6895644304	 0.08819
83.2211	164.6327	188.1731	272.276	331.3067	394.9493	565.86	634.0698	690.8862	698.551	716.0827	773.9645	866.4612	904.4359	909.7314	945.7247	960.7314	1005.1874	1031.7426	1038.765	1055.4731	1078.2859	1092.8614	1095.1905	1137.8283	1180.1256	1185.1644	1212.1369	1253.5179	1266.7686	1298.0175	1333.6872	1363.9564	1437.7134	1475.5759	1485.577	1491.6773	1509.9561	2981.4449	3034.6986	3038.5179	3120.9376	3131.3738	3168.8113	3178.1859	3188.6584	3199.4627	3255.3136
COC1C2C3CC3C12	CO[C@H]1[C@H]2[C@H]3C[C@H]3[C@@H]12	
InChI=1S/C7H10O/c1-8-7-5-3-2-4(3)6(5)7/h3-7H,2H2,1H3	InChI=1S/C7H10O/c1-8-7-5-3-2-4(3)6(5)7/h3-7H,2H2,1H3/t3-,4+,5-,6+,7-
