20
gdb 67626	2.3626	1.93221	1.59035	1.727	81.79	-0.2145	0.0871	0.3016	980.5763	0.171701	-365.972717	-365.964907	-365.963963	-366.004442	31.433	
C	-0.063109181	 1.5322346461	 0.0289221612	-0.519997
C	 0.0173539382	 0.0366712057	 0.0042563091	 0.274601
C	 0.8103775858	-0.8366211136	-0.9835323083	-0.108911
C	 1.0409483976	-2.1350016812	-0.3018471002	-0.047537
C	 0.9038358292	-1.9922365522	 1.1970336904	-0.249178
C	-0.144415065	-0.8985429895	 1.2052743525	-0.174996
C	-1.0373300496	-1.0451448109	-0.0043946178	 0.320516
C	-2.530160712	-1.0474423739	-0.0526263426	-0.50737
N	-0.2582597066	-1.8889346453	-1.0029057955	-0.194299
H	 0.8878185256	 1.9809295093	 0.3414295828	 0.120653
H	-0.311638509	 1.9373614005	-0.9588360424	 0.122127
H	-0.8329452974	 1.8730438416	 0.7288629209	 0.119921
H	 1.2945505911	-0.5019583805	-1.8946599766	 0.089371
H	 1.659181178	-2.9036652648	-0.7528632929	 0.092369
H	 0.553280348	-2.9145895991	 1.6732069307	 0.106332
H	 1.8470267706	-1.6930887972	 1.6677622114	 0.103825
H	-0.5597913832	-0.4961922289	 2.1217448576	 0.084289
H	-2.943768744	-0.3132598372	 0.6461168545	 0.116106
H	-2.89325545	-0.8071252901	-1.0572550149	 0.127173
H	-2.9264675762	-2.0330754989	 0.2187042901	 0.125005
168.9526	185.4797	193.2308	223.8372	286.8872	310.7559	412.1325	571.554	598.5237	606.0238	713.95	739.3139	758.4137	804.1305	844.2543	871.4814	878.6775	932.17	948.5258	957.6031	1001.1443	1015.8639	1040.114	1070.3977	1102.2902	1109.3774	1145.1496	1163.2091	1187.4277	1212.2558	1227.7049	1243.8415	1303.9979	1334.5562	1371.7115	1411.9064	1417.8928	1476.4677	1480.3799	1487.312	1489.2253	1496.0451	1510.952	3019.1497	3026.4603	3039.5582	3075.341	3081.4091	3088.2768	3094.8239	3104.9696	3163.7849	3179.1463	3189.7744
CC12C3C4CC1C2(C)N34	C[C@@]12[C@H]3[C@H]4C[C@@H]1[C@]2(C)N34	
InChI=1S/C8H11N/c1-7-5-3-4-6(7)9(4)8(5,7)2/h4-6H,3H2,1-2H3	InChI=1S/C8H11N/c1-7-5-3-4-6(7)9(4)8(5,7)2/h4-6H,3H2,1-2H3/t4-,5+,6-,7+,8+,9?/m1/s1
