15
gdb 125505	3.52964	1.19399	0.89798	5.0844	75.31	-0.2344	-0.0481	0.1862	1230.6313	0.113237	-450.156351	-450.147982	-450.147037	-450.18943	30.224	
C	-0.0528182202	 1.4879634189	-0.0852522604	-0.509958
C	-0.0156210159	 0.0004162516	 0.002574603	 0.281664
N	-0.0161221915	-0.7904200922	-1.0502665967	-0.267994
N	 0.0112929638	-2.035554602	-0.5352984336	 0.060519
C	 0.0154171728	-3.1472748718	-1.3875372998	 0.202022
O	 0.0398544178	-4.2867299717	-1.0194137011	-0.267028
N	 0.0394622503	-2.0987345297	 0.8156629497	-0.286081
C	 0.0175491403	-0.82935724	 1.1746277409	 0.295188
N	-0.0412461231	-0.4193129847	 2.4887909199	-0.586568
H	 0.8460437324	 1.9390466525	 0.3526122192	 0.133751
H	-0.1158162249	 1.8008003786	-1.1287609613	 0.156652
H	-0.9163292472	 1.8925679346	 0.4544754478	 0.145622
H	-0.0061241249	-2.7993394456	-2.4329611545	 0.115417
H	 0.1911763338	-1.1457321232	 3.1517579069	 0.268491
H	 0.4284424965	 0.4512045546	 2.68921288	 0.258305
102.8542	123.2158	194.6711	227.556	238.5323	272.3074	316.5349	400.907	441.2391	545.1755	611.3793	645.0835	662.3392	756.0274	764.8825	849.5988	989.5955	1021.2183	1024.3005	1066.2905	1135.7079	1245.8944	1280.107	1357.8193	1414.621	1419.674	1444.387	1480.9787	1491.7394	1559.8546	1614.306	1660.7653	1840.7487	3019.7595	3029.4818	3080.5718	3141.3214	3565.7765	3668.2405
CC1=NN(C=O)N=C1N	Cc1nn(C=O)nc1N	
InChI=1S/C4H6N4O/c1-3-4(5)7-8(2-9)6-3/h2H,1H3,(H2,5,7)	InChI=1S/C4H6N4O/c1-3-4(5)7-8(2-9)6-3/h2H,1H3,(H2,5,7)
