18
gdb 107550	2.35872	1.39316	1.06907	2.271	72.26	-0.2414	-0.032	0.2093	1160.6801	0.146265	-439.035064	-439.026069	-439.025125	-439.069693	32.252	
O	 0.374909902	 1.205321479	 0.5294485072	-0.404638
C	 0.0939129362	-0.1011374323	 0.0430184777	-0.192629
C	-1.379860835	-0.3897930742	-0.0173186995	 0.308095
C	-2.1670431516	-0.9261822175	 1.1132824199	-0.283882
N	-1.9388170115	-1.7990467165	-0.0552184	-0.166774
C	-2.9335074834	-1.3449779279	-1.0960367731	-0.180651
C	-2.3301338083	 0.0750598226	-1.1498070239	-0.169704
C	-3.1848533165	 1.2639946231	-0.8060784875	 0.150222
O	-4.3586395279	 1.2131181086	-0.5367273805	-0.245383
H	 0.1665449101	 1.8370143796	-0.1656634864	 0.284727
H	 0.5522661201	-0.2685825042	-0.9437963065	 0.094448
H	 0.5624076262	-0.8005725847	 0.7423965223	 0.127557
H	-1.6130859187	-1.2394279822	 1.9925425623	 0.128538
H	-3.1718274011	-0.559811483	 1.3096500929	 0.135132
H	-2.8027185354	-1.9173560765	-2.0151078148	 0.117581
H	-3.974829129	-1.4014909797	-0.7698533656	 0.132212
H	-1.7758979542	 0.279820444	-2.0725504436	 0.095089
H	-2.6328084121	 2.2332353717	-0.7741410608	 0.070059
55.7666	70.9024	104.4605	200.6938	232.7048	243.2728	322.8222	338.0066	435.4029	488.2739	640.9334	687.8578	728.302	802.1201	857.7724	893.922	935.5981	952.9547	995.4618	1015.6332	1050.5363	1080.0585	1088.277	1124.1322	1134.8235	1157.3637	1189.0053	1202.8704	1274.2126	1313.326	1338.7639	1377.7168	1384.4613	1413.3576	1425.0793	1489.3997	1495.3039	1513.1191	1821.8317	2849.6687	2988.0734	3052.1814	3073.8476	3084.9394	3114.0813	3133.8056	3206.6359	3823.3886
OCC12CN1CC2C=O	OC[C@]12CN1C[C@H]2C=O	
InChI=1S/C6H9NO2/c8-2-5-1-7-3-6(5,7)4-9/h2,5,9H,1,3-4H2	InChI=1S/C6H9NO2/c8-2-5-1-7-3-6(5,7)4-9/h2,5,9H,1,3-4H2/t5-,6-,7?/m0/s1
