17
gdb 87079	4.20961	0.71416	0.67353	4.5456	91.42	-0.2587	-0.0457	0.213	1669.5485	0.134633	-380.843345	-380.83374	-380.832796	-380.878164	34.216	
C	-0.0846115066	 1.5164334183	-0.0835872428	-0.404382
C	 0.0042651364	 0.0173557152	 0.0618895876	-0.021534
N	 1.3055253081	-0.6190270203	-0.1456795162	-0.352537
C	 0.7012463017	-0.6711391356	 1.2121879462	 0.091508
C	 1.4394416982	 0.0789402672	 2.3067874594	-0.460444
C	 0.1275440984	-1.9229720177	 1.6212425989	 0.082856
C	-0.3335299763	-2.9844814963	 1.9772777522	 0.04679
C	-0.8621752452	-4.179101934	 2.3689068183	 0.195546
N	-1.3136084343	-5.1975434962	 2.7006975012	-0.33747
H	 0.8219489476	 2.0128181263	 0.2664367693	 0.13438
H	-0.2193154022	 1.7766831724	-1.138717386	 0.133561
H	-0.9415053548	 1.9102506584	 0.4722438038	 0.129182
H	-0.8653727239	-0.5188519307	-0.314898059	 0.103199
H	 1.2050261698	-1.5162681987	-0.6139955025	 0.245869
H	 1.8987540509	 0.9824443181	 1.9046572121	 0.139427
H	 0.7584747412	 0.3532711291	 3.1177080209	 0.133999
H	 2.2333147108	-0.5477835954	 2.7228884963	 0.14005
75.289	81.1856	158.9909	163.4259	194.0493	220.8606	269.0049	324.295	350.0522	461.3918	514.0388	535.7605	577.7834	583.1294	611.5029	754.2138	808.1827	902.2277	976.0519	1027.1012	1056.5218	1088.2087	1097.3906	1113.8073	1160.3816	1240.3996	1302.0506	1337.4049	1403.4253	1418.5905	1447.1666	1477.7473	1486.7359	1493.5616	1507.7411	2256.4517	2386.5768	3042.9474	3051.9995	3104.4711	3117.835	3118.0889	3140.2044	3152.4115	3506.5016
CC1NC1(C)C#CC#N	C[C@H]1N[C@]1(C)C#CC#N	
InChI=1S/C7H8N2/c1-6-7(2,9-6)4-3-5-8/h6,9H,1-2H3	InChI=1S/C7H8N2/c1-6-7(2,9-6)4-3-5-8/h6,9H,1-2H3/t6-,7-/m1/s1
