19
gdb 79579	2.16664	1.63051	1.48144	1.1378	74.49	-0.2387	0.0751	0.3139	1039.9411	0.157234	-422.972924	-422.96416	-422.963216	-423.005625	34.064	
C	-0.0712582941	 1.5445445196	-0.1312096279	-0.42298
C	 0.0757258918	 0.045593184	 0.0363234098	-0.052015
C	 1.3614981634	-0.7415377918	-0.1755154955	-0.213257
C	 2.5435142331	-0.0442063173	 0.4516724507	-0.042122
O	 3.0197496691	-0.8386559362	 1.5555064268	-0.304574
C	 1.887767858	 0.0361391987	 1.7736351882	 0.306063
C	 1.9751678045	 1.0211890769	 2.8949337654	-0.509653
C	 0.6640614536	-0.6710791087	 1.2133038189	 0.34794
O	-0.0674492609	-1.6327735097	 1.8787179323	-0.462607
H	 0.8041150022	 2.0873360993	 0.2333667771	 0.121117
H	-0.2037366866	 1.7999425489	-1.1881672224	 0.119699
H	-0.947827541	 1.9138335503	 0.4121756162	 0.121997
H	-0.7804933279	-0.513384199	-0.3406148749	 0.100003
H	 1.4147326051	-1.5953052015	-0.8396963458	 0.098407
H	 3.2512148535	 0.6496011797	 0.0127381152	 0.1034
H	 2.9675282201	 1.4776928844	 2.9292573684	 0.133768
H	 1.2235600788	 1.8083645586	 2.7822419342	 0.129985
H	 1.7954993209	 0.5253783109	 3.8553520571	 0.132468
H	 0.5557331662	-2.2961871571	 2.1996574364	 0.292363
157.0823	174.3063	193.7507	210.0934	225.9791	240.0793	319.4757	388.5805	429.8149	481.1734	538.1682	632.7538	653.9174	664.8619	748.1604	771.3883	869.9291	891.0053	938.9064	945.036	979.4971	994.9323	1022.8462	1089.1536	1100.8621	1109.2082	1131.3968	1174.3164	1222.7777	1242.4973	1287.487	1321.2487	1357.7933	1403.417	1411.928	1452.8105	1471.1183	1483.6759	1491.7348	1499.8558	1504.482	3034.385	3038.5596	3093.024	3100.2141	3111.0101	3125.6044	3128.96	3184.3289	3195.1804	3779.0369
CC1C2C3OC3(C)C12O	C[C@H]1[C@H]2[C@@H]3O[C@]3(C)[C@@]12O	
InChI=1S/C7H10O2/c1-3-4-5-6(2,9-5)7(3,4)8/h3-5,8H,1-2H3	InChI=1S/C7H10O2/c1-3-4-5-6(2,9-5)7(3,4)8/h3-5,8H,1-2H3/t3-,4-,5-,6-,7+/m0/s1
