19
gdb 30714	2.85411	1.24348	0.91259	1.5291	79.54	-0.2111	0.0174	0.2285	1294.6505	0.158215	-423.062583	-423.05295	-423.052005	-423.097278	34.694	
C	-0.0489014812	 1.4924140844	 0.0021023847	-0.502207
C	 0.001493755	-0.0033246922	 0.0046638891	 0.188474
C	 0.0804537847	-0.8300471482	-1.0713868957	-0.132244
O	 0.1002904183	-2.1330987346	-0.6862690852	-0.183432
C	 0.0418461749	-2.144336096	 0.6797917962	 0.224525
C	 0.048691197	-3.4887983775	 1.334069897	-0.171129
O	-0.9704886664	-3.6405721611	 2.3178358774	-0.406628
C	-0.0246247707	-0.8680904087	 1.1601333001	 0.077262
C	-0.0958279047	-0.4422885652	 2.5950014762	-0.518004
H	 0.794243401	 1.9258077705	 0.552749687	 0.129285
H	-0.0187158476	 1.8876646881	-1.0170125017	 0.12453
H	-0.9637830245	 1.8662754018	 0.4770299443	 0.128276
H	 0.1254217817	-0.6523229154	-2.1339588102	 0.129788
H	-0.0211180369	-4.2529376083	 0.5460489759	 0.110464
H	 0.986335235	-3.6642630927	 1.8737843955	 0.123632
H	-1.8026669923	-3.3805253375	 1.9082002614	 0.282026
H	 0.8302142448	 0.0498636303	 2.9171762866	 0.125474
H	-0.907785232	 0.276279319	 2.7573205182	 0.122607
H	-0.272892486	-1.3015526066	 3.2449174532	 0.1473
58.989	119.6756	139.3624	152.0362	205.5951	231.5479	262.9722	298.8255	356.3767	404.6911	455.9276	589.5403	631.1851	681.584	691.0615	742.5326	771.2868	929.6556	967.3995	1011.0374	1049.0854	1054.1114	1075.4425	1124.5974	1146.4302	1174.5748	1214.5054	1258.3745	1300.4534	1364.8885	1409.015	1415.113	1426.0448	1435.8754	1481.2481	1486.7864	1496.4691	1501.2612	1503.9146	1592.0026	1671.5354	3002.3413	3023.0391	3025.4736	3057.3354	3069.1234	3073.1883	3109.3731	3130.9391	3267.0612	3807.5329
CC1=COC(CO)=C1C	Cc1coc(CO)c1C	
InChI=1S/C7H10O2/c1-5-4-9-7(3-8)6(5)2/h4,8H,3H2,1-2H3	InChI=1S/C7H10O2/c1-5-4-9-7(3-8)6(5)2/h4,8H,3H2,1-2H3
