13
gdb 99442	3.36564	0.75228	0.62966	4.8194	77.61	-0.309	-0.0754	0.2336	1650.6517	0.087256	-415.574166	-415.564902	-415.563958	-415.609314	30.899	
C	-0.021586989	 1.3895069215	-0.1553041578	-0.250116
O	-0.0120060813	 0.0121477585	 0.2062222879	-0.224678
C	-1.2723671853	-0.6004821317	 0.11157075	-0.205139
C	-1.7329858406	-0.7173069273	-1.2980662572	 0.287644
N	-2.0826301221	-0.7628399022	-2.3975521346	-0.307589
C	-1.2055442546	-1.9222665975	 0.7356220765	 0.03065
C	-1.1772021311	-3.002373041	 1.2690675315	 0.195486
C	-1.1375349036	-4.2272785288	 1.8734300778	 0.211527
N	-1.1056390746	-5.2664804641	 2.3897607956	-0.31864
H	 0.9961803932	 1.7490680957	-0.0016558835	 0.154193
H	-0.3025126861	 1.5281976866	-1.2067232221	 0.145367
H	-0.710700655	 1.9613116671	 0.4820185701	 0.123772
H	-2.0364894899	-0.0058424668	 0.6444932958	 0.157521
65.2824	79.8943	107.7465	164.7012	197.1901	227.9533	260.5999	353.6152	358.3709	448.1194	519.456	575.1755	585.8332	603.7122	816.0637	907.303	983.2528	1120.6226	1174.0579	1181.1129	1210.6281	1324.9433	1342.9794	1476.8526	1487.9285	1505.3188	2278.0203	2361.3194	2414.8664	2947.4953	3002.2235	3068.6463	3149.4753
COC(C#N)C#CC#N	CO[C@@H](C#N)C#CC#N	
InChI=1S/C6H4N2O/c1-9-6(5-8)3-2-4-7/h6H,1H3	InChI=1S/C6H4N2O/c1-9-6(5-8)3-2-4-7/h6H,1H3/t6-/m1/s1
