19
gdb 102041	2.04895	1.176	0.91111	2.958	74.96	-0.2351	-0.0346	0.2006	1372.5232	0.157657	-456.377004	-456.366584	-456.36564	-456.413423	35.633	
C	-0.2018088504	 1.2857516282	-1.3426463219	-0.324182
N	 0.0529258445	 0.0986058741	-0.5334426729	-0.307403
C	 1.2617346255	-0.6203546286	-0.8670582455	-0.161621
C	 1.9831448818	-1.093030278	 0.3901955849	 0.150578
O	 1.6582900126	-0.7509114847	 1.4991672966	-0.255101
C	 1.0592558815	-1.8605369046	-1.7735058005	 0.383045
O	 2.0221240368	-2.436454945	-2.2514968022	-0.390492
N	-0.2343510124	-2.2146823095	-1.9219070001	-0.29594
C	-0.6536639792	-3.3652223612	-2.6932952445	-0.333546
H	 0.6254263866	 2.0147478348	-1.3326843268	 0.110521
H	-0.3779496753	 0.9949790326	-2.3837521395	 0.128898
H	-1.1038672533	 1.7850927117	-0.9788092381	 0.127146
H	 0.0837354041	 0.3220725691	 0.4576784595	 0.242207
H	 2.0048267156	-0.0069107512	-1.4072386574	 0.116341
H	 2.8308439092	-1.7765464726	 0.1978158717	 0.127133
H	-0.8964667042	-1.633282339	-1.4242153105	 0.257521
H	 0.2398506598	-3.8126872516	-3.1315777623	 0.167784
H	-1.1510105478	-4.1093476955	-2.0610559207	 0.129669
H	-1.3406681553	-3.0758034889	-3.4959388797	 0.127444
58.4274	74.579	89.486	124.8438	158.8252	189.0532	204.4827	263.5979	280.448	352.9672	364.3517	499.7368	607.9679	684.7991	724.7428	739.4526	794.0377	845.8459	918.1411	1027.5597	1069.4923	1098.0341	1148.1508	1154.3411	1167.38	1182.2597	1191.3721	1252.2555	1256.4671	1323.7075	1391.9033	1441.1538	1462.2078	1481.7754	1493.0424	1498.6162	1500.9235	1518.2108	1565.4214	1779.9976	1819.5881	2953.8524	2969.9589	2975.2185	3028.6497	3065.6595	3081.2107	3112.0584	3146.4529	3501.9044	3568.5945
CNC(C=O)C(=O)NC	CN[C@@H](C=O)C(=O)NC	
InChI=1S/C5H10N2O2/c1-6-4(3-8)5(9)7-2/h3-4,6H,1-2H3,(H,7,9)	InChI=1S/C5H10N2O2/c1-6-4(3-8)5(9)7-2/h3-4,6H,1-2H3,(H,7,9)/t4-/m0/s1
