25
gdb 123020	5.10723	0.53775	0.51396	0.8425	91.65	-0.2461	0.0902	0.3363	2284.4736	0.226977	-389.477675	-389.466456	-389.465512	-389.515511	39.797	
C	 0.0987274099	 1.4503626696	 0.187926194	-0.382088
C	-0.0418228611	-0.0725399509	 0.2443257784	-0.180996
C	-1.4485504098	-0.5423175787	-0.1011749588	-0.025993
O	-1.4908076169	-1.949638571	-0.0227222164	-0.247103
C	-2.7568422012	-2.4903521959	-0.3466186916	-0.075373
C	-2.6673937391	-3.9911205295	-0.2733328482	-0.00895
C	-2.8374298368	-4.7105167429	 1.0431523514	-0.283796
C	-3.8750254401	-4.8737479797	-0.0401860192	 0.000718
C	-5.2830416793	-4.3413289903	 0.1278497348	-0.406178
H	 1.1162701375	 1.7613496432	 0.4415808871	 0.116134
H	-0.1258744149	 1.8360824919	-0.8127979403	 0.115163
H	-0.5829738685	 1.9410051628	 0.8916414808	 0.115101
H	 0.6622262832	-0.546135296	-0.4494722262	 0.105331
H	 0.2112149001	-0.441492353	 1.2449141343	 0.106054
H	-2.1823841558	-0.0952538051	 0.5937221315	 0.077993
H	-1.7268273329	-0.2039503192	-1.1156836708	 0.078701
H	-3.5219176476	-2.1043818869	 0.346686749	 0.07905
H	-3.053865687	-2.1692384358	-1.3608848523	 0.081213
H	-1.9134309071	-4.3958304875	-0.9430554039	 0.086847
H	-2.1773766626	-5.5386715871	 1.2763514534	 0.108492
H	-3.107678644	-4.1042904787	 1.9029097307	 0.108107
H	-3.8373538416	-5.8195400549	-0.5753769372	 0.082532
H	-5.3087430627	-3.4234133553	 0.7218114934	 0.116639
H	-5.7509233739	-4.1255756792	-0.8394832676	 0.115377
H	-5.9114896676	-5.07717943	 0.6418042839	 0.117026
38.4158	49.1029	84.1715	113.0655	147.7876	172.2288	213.0993	236.0697	238.5745	320.7161	374.3773	419.1342	464.9265	544.5493	762.6656	764.2783	835.9667	876.8305	888.6619	901.4042	914.6916	944.9825	989.9903	1025.6058	1056.8774	1062.0568	1082.3231	1111.3085	1148.3269	1151.2481	1154.0613	1184.336	1200.0678	1200.9937	1247.5356	1265.8323	1277.0039	1313.3952	1330.6309	1366.0183	1400.3393	1412.5177	1418.1416	1427.606	1461.5704	1491.0713	1492.4972	1494.4676	1501.0889	1505.7892	1508.6068	1514.3291	1534.0797	2931.9234	2947.3537	2957.3248	2979.9401	3029.2034	3031.0113	3038.5985	3070.7612	3085.4766	3098.9361	3103.6158	3107.1213	3126.1674	3131.5699	3146.4089	3210.515
CCCOCC1CC1C	CCCOC[C@H]1C[C@H]1C	
InChI=1S/C8H16O/c1-3-4-9-6-8-5-7(8)2/h7-8H,3-6H2,1-2H3	InChI=1S/C8H16O/c1-3-4-9-6-8-5-7(8)2/h7-8H,3-6H2,1-2H3/t7-,8-/m1/s1
