20
gdb 23153	2.01442	1.06837	0.74644	0.5547	79.58	-0.2317	0.0152	0.2469	1530.966	0.169253	-440.223828	-440.213744	-440.2128	-440.259542	36.531	
O	-0.1568501439	 1.2825339963	-0.1944238905	-0.428628
C	 0.0170206226	-0.1146616729	-0.398658637	-0.08361
C	-1.2725974668	-0.7826148758	 0.0623764456	-0.264963
C	-1.2843835428	-2.2880948479	-0.0378687588	 0.347155
N	-0.2925541836	-2.8165595295	-0.6545171871	-0.194297
O	-0.3672738881	-4.2204000148	-0.7125754305	-0.407287
C	-2.4061825114	-3.0639283916	 0.5468670094	-0.065446
C	-2.8509965218	-2.8369846851	 1.9850139177	-0.26544
C	-3.7487944463	-2.4315217375	 0.856973309	-0.276368
H	 0.6362018836	 1.7280271543	-0.5052429733	 0.285242
H	 0.20539419	-0.3504446108	-1.4542087637	 0.102639
H	 0.8670329398	-0.5062763367	 0.1778015403	 0.097549
H	-1.4644798458	-0.47667823	 1.0989231121	 0.121051
H	-2.1050231372	-0.3726323426	-0.5240642562	 0.12692
H	 0.4198765151	-4.4383540915	-1.2214697365	 0.303113
H	-2.4311096675	-4.0927809892	 0.2152831463	 0.117373
H	-3.099589715	-3.7176411412	 2.5661638666	 0.121615
H	-2.3590553554	-2.0542611312	 2.5513833155	 0.122297
H	-3.8761141979	-1.3724613293	 0.6662699071	 0.122852
H	-4.6308517778	-3.0279227129	 0.6526469041	 0.118232
62.7377	75.8004	106.1814	139.0807	215.387	253.2991	255.768	290.9756	324.1076	378.8085	394.6927	489.4817	611.571	630.4268	762.7006	799.6543	803.5037	836.3608	903.0826	953.3515	988.448	1014.9184	1054.4597	1067.4108	1077.411	1084.4391	1090.8993	1144.3408	1201.7489	1217.7551	1219.6905	1234.149	1272.4555	1306.2903	1346.7816	1386.2761	1418.6152	1458.0786	1469.1984	1483.3711	1504.7358	1522.9316	1714.7797	3000.8283	3025.7954	3031.9826	3061.1245	3139.1547	3143.7739	3208.2798	3218.4522	3234.6863	3828.4706	3834.5914
OCCC(=NO)C1CC1	OCCC(=NO)C1CC1	
InChI=1S/C6H11NO2/c8-4-3-6(7-9)5-1-2-5/h5,8-9H,1-4H2	InChI=1S/C6H11NO2/c8-4-3-6(7-9)5-1-2-5/h5,8-9H,1-4H2
