21
gdb 86216	2.90667	1.16833	0.94275	0.9766	85.	-0.2458	0.0507	0.2965	1315.8268	0.180983	-387.076117	-387.066454	-387.065509	-387.111044	36.349	
C	-0.3686871365	 1.4023652302	 0.3405448429	-0.402946
C	-0.0038825875	-0.0203294694	-0.0494191662	 0.15339
C	 1.2040137507	-0.1680529819	-0.9751883132	-0.233766
C	 1.6316223748	-1.6238413147	-0.6894432747	-0.230917
C	 2.9910582872	-1.9519393725	-1.0845380419	 0.323774
C	 4.1127895664	-2.2187694861	-1.4258553794	-0.45526
C	 1.308423713	-1.7710494558	 0.8381073609	 0.13841
C	 2.4960531014	-1.6220569404	 1.7797021897	-0.391181
O	 0.3562657719	-0.7435069358	 1.1279726809	-0.287663
H	 0.4887307881	 1.9044586113	 0.7989611044	 0.120599
H	-0.6830276478	 1.9734262168	-0.5387948026	 0.113614
H	-1.1912348646	 1.4013353097	 1.0611022627	 0.12687
H	-0.8792937803	-0.5020654922	-0.5199905362	 0.062715
H	 0.9696778619	 0.0016090897	-2.0284208089	 0.1092
H	 1.9978110764	 0.5262828538	-0.6810419014	 0.113129
H	 0.9483151279	-2.2863816961	-1.235610031	 0.108049
H	 5.1037427509	-2.4554333261	-1.7248120623	 0.193572
H	 0.8339574827	-2.7470772949	 1.0094700533	 0.077497
H	 3.037402197	-0.6909996559	 1.5873637469	 0.117851
H	 2.1372432823	-1.6034104272	 2.8124777585	 0.121225
H	 3.1926447641	-2.4564234327	 1.6633708674	 0.121839
32.2499	98.4761	143.2131	214.7973	229.9558	240.4506	300.5086	346.5345	405.5474	449.1418	496.0455	520.3901	573.1339	623.43	632.4029	679.1375	773.922	837.7498	897.6991	931.2428	954.1367	977.4492	1032.7742	1064.6567	1096.8176	1120.6629	1134.3432	1147.3109	1166.2345	1208.5496	1267.1131	1298.5209	1327.6018	1355.8401	1367.2211	1387.9092	1395.4971	1410.1507	1415.0583	1482.6119	1484.3619	1488.9341	1493.272	1499.3049	2235.0424	2939.0858	2997.8757	3024.5236	3040.0066	3045.3116	3058.1359	3112.6309	3116.5849	3119.0718	3120.5214	3126.7734	3504.3875
CC1CC(C#C)C(C)O1	C[C@H]1C[C@@H](C#C)[C@@H](C)O1	
InChI=1S/C8H12O/c1-4-8-5-6(2)9-7(8)3/h1,6-8H,5H2,2-3H3	InChI=1S/C8H12O/c1-4-8-5-6(2)9-7(8)3/h1,6-8H,5H2,2-3H3/t6-,7+,8+/m0/s1
