16
gdb 36997	3.03012	2.33257	1.67757	2.0757	77.76	-0.2144	-0.0246	0.1898	811.9645	0.127861	-363.574647	-363.568825	-363.567881	-363.604429	24.824	
C	-0.0626867618	 1.5613528851	-0.0778997796	-0.160409
C	 1.3881870389	 1.7693320026	 0.0381550889	 0.17436
C	 2.3183826177	 1.9685756878	 0.9969234779	-0.170313
C	 3.0780804157	 0.684213589	 0.6024610059	-0.052138
C	 2.1133384576	 0.6192519213	-0.627241727	-0.069007
C	 1.1149755471	-0.5176085205	-0.3929178467	-0.154222
C	-0.2295086118	 0.2420669526	-0.2897507836	-0.079636
C	 1.618505322	-1.0010207839	 0.9731427814	 0.009103
N	 2.6270340271	-0.4103819794	 1.4869560412	-0.165993
H	-0.8485454556	 2.2796845137	 0.1157481956	 0.114144
H	 2.3327535699	 2.5491825782	 1.9113808989	 0.105954
H	 4.1652784349	 0.6755678396	 0.4916817624	 0.073732
H	 2.5033848156	 0.7605988361	-1.6349095901	 0.076255
H	 1.0871593732	-1.3269239861	-1.1289493868	 0.082646
H	-1.1849559128	-0.2698835015	-0.3001811754	 0.107764
H	 1.1135376323	-1.7951159147	 1.525246517	 0.107761
227.6081	291.3903	352.2903	522.3922	544.8588	618.4807	671.46	717.9801	767.571	797.01	831.1725	847.7022	871.2335	890.6076	909.2552	930.1572	944.3246	961.7407	964.7037	981.6692	1014.618	1106.6234	1145.2857	1157.4871	1211.1391	1230.2009	1246.1687	1257.4755	1275.2333	1300.4894	1323.4404	1346.5738	1587.24	1626.7038	1662.0475	3058.0756	3074.9076	3111.9563	3122.4931	3196.5561	3201.1716	3225.0731
C1=C2C3C4C2C2C1C2N34	C1=C[C@H]2[C@H]3[C]1[CH][C@H]3N=C2	
InChI=1S/C8H7N/c1-2-4-5-3(1)7-8(5)9(7)6(2)4/h1-2,4-8H	InChI=1S/C8H7N/c1-2-6-4-9-7-3-5(1)8(6)7/h1-4,6-8H/t6-,7-,8-/m1/s1
