19
gdb 39567	3.34403	1.54895	1.1155	0.9797	81.7	-0.2335	0.0137	0.2472	1083.8565	0.161939	-385.893695	-385.886651	-385.885707	-385.9249	28.988	
C	-0.068531689	 1.553797375	 0.1277121899	-0.326479
C	 1.3953223543	 1.8842693512	-0.131499136	-0.065737
C	 2.2053239396	 0.8827609917	 0.2293725632	-0.112947
C	 1.3873094035	-0.2270353363	 0.8554109368	-0.036259
C	 1.6829704714	-1.6967703828	 0.7562544303	-0.12844
C	 0.643985515	-2.5323233266	 0.7097185826	-0.063571
C	-0.8007313487	-2.0792407684	 0.7105869472	-0.131357
O	-1.0013915686	-0.6735998045	 0.8440295595	-0.275143
C	 0.0264558161	 0.0269581411	 0.1862847989	 0.161821
H	-0.4087961142	 1.961792077	 1.0907391888	 0.114818
H	-0.7491509597	 1.922803186	-0.6451367176	 0.10422
H	 1.7167160255	 2.8356161319	-0.5398663361	 0.094725
H	 3.2876143599	 0.8864338366	 0.1644291517	 0.093085
H	 1.2771356924	 0.017419707	 1.9273122483	 0.101309
H	 2.7058427963	-2.0635850966	 0.7599297505	 0.087278
H	 0.7865900226	-3.6086819035	 0.6509798583	 0.092263
H	-1.2830405173	-2.4392889172	-0.216826845	 0.101015
H	-1.3411223318	-2.5457540147	 1.5436643394	 0.118313
H	 0.1113752029	-0.3330876867	-0.8533011808	 0.071087
141.4064	194.3294	269.5749	367.9534	417.3932	446.6223	471.0075	543.0204	563.5716	675.9516	718.5364	763.1843	804.4334	875.8704	893.3906	937.0879	959.6165	975.5606	990.5807	1019.193	1043.4346	1085.6218	1092.9732	1115.4379	1137.4389	1147.7799	1174.8825	1203.5911	1246.4874	1267.1085	1284.8196	1312.0022	1336.4685	1377.3397	1390.7648	1403.8865	1427.5175	1486.6478	1490.8268	1650.6748	1702.6295	2933.7496	2937.6587	2958.2713	3010.3739	3041.9656	3081.2612	3149.534	3172.0799	3183.5433	3208.0876
C1C=CC2C=CCOC12	C1C=C[C@@H]2C=CCO[C@@H]12	
InChI=1S/C8H10O/c1-3-7-4-2-6-9-8(7)5-1/h1-4,7-8H,5-6H2	InChI=1S/C8H10O/c1-3-7-4-2-6-9-8(7)5-1/h1-4,7-8H,5-6H2/t7-,8+/m1/s1
