20
gdb 87954	3.77319	1.07296	0.98154	1.0197	82.5	-0.22	0.0301	0.25	1305.9693	0.170494	-403.168408	-403.159394	-403.15845	-403.202183	33.676	
C	-0.1676326862	 1.4511744284	 0.0127185957	-0.412315
C	 0.0462731346	-0.0449717779	 0.0486960803	-0.044689
C	 1.4081226899	-0.6428541118	-0.2244284701	-0.346543
C	 0.8226452276	-0.7066765385	 1.1627753772	 0.319729
C	 1.4092835644	 0.0398293513	 2.368332324	-0.180913
O	 1.2026737219	-0.8818356985	 3.4591309313	-0.260558
C	 0.6039271211	-1.983281752	 2.9155046416	 0.390892
C	 0.3029411698	-3.0758971473	 3.8814832188	-0.476709
N	 0.3596635109	-1.9806884167	 1.6671933644	-0.337671
H	 0.7153084596	 1.9967045132	 0.3635316283	 0.112404
H	-0.3723826463	 1.7903868376	-1.0085169179	 0.12219
H	-1.015066922	 1.752675933	 0.6388126649	 0.119816
H	-0.7948168843	-0.636057907	-0.3023229727	 0.098217
H	 1.4667129865	-1.5724318089	-0.778865495	 0.121846
H	 2.2371609099	 0.0411777407	-0.3859206907	 0.105044
H	 2.4826990595	 0.2394084926	 2.2818519805	 0.114912
H	 0.894224252	 0.9766610607	 2.6055038783	 0.115773
H	 1.2228565469	-3.4204702596	 4.3645757357	 0.143931
H	-0.3615920687	-2.7119422003	 4.6716644585	 0.143788
H	-0.169981777	-3.907012049	 3.3595296167	 0.150853
69.1089	143.5851	151.469	183.1104	208.6624	250.3784	295.9837	402.1109	425.9639	466.147	520.1118	632.4478	671.0621	792.9341	833.2647	879.3758	905.5206	910.5991	941.92	1011.7635	1019.7898	1032.6191	1057.1363	1065.9665	1086.4999	1113.3531	1129.2075	1183.1721	1214.0971	1227.6824	1242.8066	1334.8172	1378.8796	1406.5136	1415.2418	1423.3946	1474.5164	1477.0275	1483.5899	1492.8275	1504.6882	1524.2685	1735.7804	3024.7979	3034.2094	3048.702	3074.2452	3088.4049	3090.7236	3104.6874	3118.8393	3152.9093	3164.9239	3216.3706
CC1CC11COC(C)=N1	C[C@H]1C[C@]21COC(=N2)C	
InChI=1S/C7H11NO/c1-5-3-7(5)4-9-6(2)8-7/h5H,3-4H2,1-2H3	InChI=1S/C7H11NO/c1-5-3-7(5)4-9-6(2)8-7/h5H,3-4H2,1-2H3/t5-,7+/m0/s1
