21
gdb 90109	2.9501	1.6639	1.47348	0.2407	87.94	-0.2115	0.0112	0.2227	1007.8502	0.183751	-349.846791	-349.839374	-349.83843	-349.877961	31.593	
C	-0.2335928007	 1.5954256665	-0.1096447897	-0.395891
C	-0.0971829744	 0.0793946211	-0.0287747907	-0.038417
C	 0.9220132585	-0.60629251	-1.0623271262	-0.346649
C	 1.9330639164	-0.6957118009	 0.1160301777	 0.256909
C	 2.6478282148	-1.6236233951	 1.1969824403	-0.302666
C	 1.9274293488	-0.5505386417	 2.1648824543	-0.140301
C	 2.6751319424	 0.713775748	 1.7410851718	-0.076172
C	 2.6828397494	 0.617864529	 0.4113130391	-0.115574
C	 0.7689020617	-0.644857748	 1.0858302272	 0.031223
H	 0.7273319795	 2.1107660047	-0.1183003159	 0.123148
H	-0.7776165515	 1.8740547464	-1.019690538	 0.108426
H	-0.8040382798	 1.9732707785	 0.7458348915	 0.114574
H	-1.1007745837	-0.3548870304	-0.0769210598	 0.071276
H	 0.548549011	-1.5739246359	-1.4066322785	 0.103342
H	 1.2190799408	-0.0071792017	-1.9295039795	 0.094548
H	 2.2402621291	-2.6362671918	 1.2732829974	 0.096801
H	 3.7411161915	-1.6339309658	 1.224090577	 0.09433
H	 1.7804610858	-0.752644474	 3.227092295	 0.06072
H	 3.1162931818	 1.4505715891	 2.397102088	 0.097524
H	 3.1263214613	 1.2617397894	-0.3364660069	 0.091163
H	 0.3211104873	-1.6405987274	 1.1847026061	 0.071684
179.5186	196.226	224.9133	325.727	379.111	408.6576	469.1752	541.547	607.9849	678.0268	714.8613	750.5581	762.8011	771.4182	822.0996	852.2264	864.4258	908.7219	917.8265	944.1219	953.2458	998.5904	1021.8348	1045.0047	1072.137	1074.0967	1100.7205	1124.0482	1152.6433	1167.7173	1187.8574	1202.4305	1215.0534	1228.3449	1250.9728	1259.2381	1323.4307	1362.2215	1397.9248	1421.1128	1473.4547	1488.1435	1491.8242	1501.4283	1627.9627	3020.0825	3031.2614	3042.649	3043.1189	3052.7093	3088.5526	3102.486	3108.4991	3115.723	3140.4455	3209.1874	3241.1606
CC1CC23CC(C=C2)C13	C[C@H]1C[C@@]23C[C@@H](C=C2)[C@@H]13	
InChI=1S/C9H12/c1-6-4-9-3-2-7(5-9)8(6)9/h2-3,6-8H,4-5H2,1H3	InChI=1S/C9H12/c1-6-4-9-3-2-7(5-9)8(6)9/h2-3,6-8H,4-5H2,1H3/t6-,7+,8+,9+/m0/s1
