20
gdb 116792	4.17738	0.72661	0.65317	2.6296	80.55	-0.2356	0.0244	0.26	1748.7992	0.169358	-440.253967	-440.243985	-440.24304	-440.291224	33.835	
C	 0.3721430646	 1.2490980505	 0.1156335039	-0.249481
O	 0.0302297512	-0.123862107	-0.028937378	-0.191395
C	 0.6701249805	-0.779846631	-1.0146565241	 0.147696
N	 0.4635190356	-2.0069829718	-1.206290451	-0.220393
C	 1.2315377958	-2.642309866	-2.2567372636	-0.178096
C	 2.3850369093	-3.4373320109	-1.6601776905	 0.171308
C	 3.3879589318	-4.0789269465	-2.6437595557	-0.300491
C	 4.427792337	-3.1847515246	-1.9408683722	-0.05687
O	 3.4140936288	-2.5702899215	-1.1183789615	-0.293534
H	 1.4253962679	 1.3719172986	 0.3949269594	 0.132204
H	 0.1736810983	 1.8128922864	-0.8042539857	 0.124692
H	-0.2576878726	 1.6400280682	 0.9155789847	 0.145072
H	 1.3527910899	-0.1566860695	-1.6120676413	 0.07728
H	 0.5807901798	-3.3361722187	-2.8052971452	 0.102287
H	 1.647301	-1.9253320522	-2.9856276274	 0.080928
H	 2.0010361927	-4.113560815	-0.8863546478	 0.087611
H	 3.5330898293	-5.1554377348	-2.5461293448	 0.111772
H	 3.2058996855	-3.8345142489	-3.6929378212	 0.10781
H	 5.1708347363	-3.7215066143	-1.3374362345	 0.101458
H	 4.9482514982	-2.452058711	-2.5694152037	 0.100142
32.3473	47.7455	77.0187	87.669	139.2324	194.6993	241.6475	286.0533	362.4668	457.159	463.8232	608.4625	746.1511	812.3251	876.3474	904.8333	969.8928	985.0364	1009.161	1036.6812	1056.7398	1072.5591	1099.4893	1148.3426	1170.4241	1177.0536	1181.1869	1216.0564	1243.8214	1255.9633	1282.678	1295.1127	1332.083	1370.5579	1391.8021	1414.0711	1485.3323	1487.5674	1489.8975	1494.0901	1501.4125	1531.8165	1770.8699	2954.0134	2999.4382	3012.4044	3017.3496	3028.4367	3040.9679	3051.2212	3074.1537	3077.8781	3131.8912	3144.2443
COC=NCC1CCO1	COC=NC[C@H]1CCO1	
InChI=1S/C6H11NO2/c1-8-5-7-4-6-2-3-9-6/h5-6H,2-4H2,1H3	InChI=1S/C6H11NO2/c1-8-5-7-4-6-2-3-9-6/h5-6H,2-4H2,1H3/t6-/m1/s1
