18
gdb 36543	3.86802	0.9511	0.86665	3.3961	80.18	-0.2405	0.0224	0.2628	1381.2695	0.147497	-401.930448	-401.921649	-401.920705	-401.965112	32.119	
C	-0.0947669269	-0.9412462597	-0.3531029164	-0.482919
C	 0.013779106	 0.2166464106	-0.0501663068	 0.342588
C	 0.1503935	 1.623594548	 0.325715079	-0.312421
N	 1.5309790045	 2.1069716711	 0.1938406523	-0.33121
C	 1.8934039817	 2.5396910404	-0.9347798542	 0.454047
C	 3.2726367398	 3.0584733842	-1.2786223663	-0.31513
C	 3.0189831193	 3.8809986122	-2.5500148696	-0.232404
C	 1.8149351105	 3.1481501684	-3.1564732405	-0.07734
O	 1.0879313641	 2.6141825034	-2.0369518589	-0.243766
H	-0.193181075	-1.9635359209	-0.6215130792	 0.192395
H	-0.5506447294	 2.2212135333	-0.273364384	 0.13193
H	-0.1388699824	 1.7388621595	 1.3764716198	 0.129026
H	 3.7031612309	 3.6168424098	-0.4476293989	 0.137539
H	 3.930344153	 2.2052397848	-1.482689227	 0.134184
H	 2.7447892348	 4.9089305316	-2.2936319675	 0.120301
H	 3.8719898603	 3.9161178431	-3.2302372781	 0.114509
H	 1.1364946865	 3.7931957313	-3.7191935707	 0.122244
H	 2.1249241623	 2.316696369	-3.801752263	 0.116427
29.2812	87.5433	130.4265	209.0678	224.3051	279.9814	329.8912	422.8319	560.0203	600.1971	607.4558	644.2483	652.1941	687.9595	805.4655	882.4198	891.8031	935.5746	940.0234	993.382	1018.4607	1029.9529	1081.5241	1098.1478	1190.7732	1196.0141	1211.4842	1256.4202	1266.7702	1314.1963	1340.0613	1356.7194	1398.4213	1474.3139	1482.5322	1497.0035	1523.8101	1785.3688	2236.6775	3007.3212	3030.3772	3047.8727	3053.5632	3062.0044	3104.3756	3120.928	3137.225	3507.4697
C#CCN=C1CCCO1	C#CCN=C1CCCO1	
InChI=1S/C7H9NO/c1-2-5-8-7-4-3-6-9-7/h1H,3-6H2	InChI=1S/C7H9NO/c1-2-5-8-7-4-3-6-9-7/h1H,3-6H2
