20
gdb 97230	2.32129	1.55945	0.97124	2.5791	87.6	-0.2326	-0.0215	0.2111	1250.6617	0.170997	-403.178536	-403.1693	-403.168356	-403.212955	33.799	
C	 0.1431564536	 1.410711021	 0.0979178194	-0.321462
N	 0.1680452628	-0.0407746872	 0.0721298185	-0.305168
C	 0.5013705206	-0.6347983872	-0.9999829851	 0.349876
O	 0.8814816477	 0.0658569809	-2.1133488018	-0.267261
C	 0.824304925	-0.614835749	-3.3704398189	-0.08384
C	 1.5605409715	-1.9459963114	-3.3208446633	-0.271972
C	 1.0901978836	-2.720029146	-2.1228481816	-0.162424
C	 0.5627508418	-2.1126190767	-1.0512502273	 0.237651
C	 0.0710864107	-2.8545392643	 0.1596717748	-0.469939
H	 1.1380133123	 1.8048686904	 0.3458375924	 0.123595
H	-0.1568371963	 1.8597444762	-0.8565230889	 0.117113
H	-0.5420104853	 1.739600428	 0.8845335722	 0.115712
H	-0.2271298013	-0.7812660909	-3.6421272312	 0.108771
H	 1.2627847607	 0.0754887371	-4.0949067259	 0.115146
H	 1.3686247739	-2.5006256299	-4.246927891	 0.112092
H	 2.6470760137	-1.784111316	-3.2759113587	 0.123293
H	 1.1940781992	-3.8018134854	-2.1337407224	 0.093184
H	 0.6135445064	-2.5386159044	 1.0551334024	 0.14314
H	-0.9841575188	-2.6353544409	 0.3502132306	 0.135207
H	 0.1902686881	-3.9332308942	 0.0276299058	 0.107285
49.3519	97.3545	166.8804	192.9383	207.4705	228.7399	305.3856	324.8539	453.8832	466.3754	492.7949	565.268	650.8102	732.3472	749.5234	855.9042	890.1749	941.0789	971.1015	1040.1725	1069.2687	1075.0835	1081.0192	1093.1888	1114.0192	1147.8109	1169.2168	1220.2493	1241.0348	1302.1684	1365.711	1388.0316	1415.0899	1424.2911	1435.4887	1467.9718	1469.6974	1484.8229	1488.0401	1494.2122	1506.4472	1710.1433	1731.5001	3006.3586	3007.611	3016.1105	3043.4336	3059.8184	3060.9951	3095.9222	3101.7885	3105.077	3122.8564	3162.114
CN=C1OCCC=C1C	CN=C1OCCC=C1C	
InChI=1S/C7H11NO/c1-6-4-3-5-9-7(6)8-2/h4H,3,5H2,1-2H3	InChI=1S/C7H11NO/c1-6-4-3-5-9-7(6)8-2/h4H,3,5H2,1-2H3
