18
gdb 89700	3.65	1.20173	1.1021	4.1187	76.45	-0.2779	0.0277	0.3056	1125.5337	0.149631	-401.955388	-401.947695	-401.94675	-401.987369	30.507	
O	-0.072629706	 1.3973684883	-0.0193473137	-0.439481
C	-0.0275701361	-0.016733184	 0.0126868288	 0.13045
C	 0.501334162	-0.6110052555	 1.3643055856	-0.296743
C	-0.7903939912	-1.3301043572	 1.8267244881	 0.222616
C	-1.2362681786	-2.0333630389	 0.5022801656	-0.266064
C	-1.4611486692	-0.5672194721	 0.0408337394	-0.044682
C	-1.8907080583	-0.2666759121	 1.5046699981	-0.254918
C	-0.7511246875	-2.0316425545	 3.0901254278	 0.156839
N	-0.7232539484	-2.595432161	 4.099601996	-0.345957
H	 0.8298530267	 1.7310554593	-0.0206980018	 0.286734
H	 0.5345621796	-0.4056296181	-0.8473017847	 0.07158
H	 1.3341685616	-1.307387249	 1.2392925645	 0.113868
H	 0.8019621886	 0.1833334423	 2.0518865502	 0.116859
H	-0.490389906	-2.6420089492	-0.0162451656	 0.106169
H	-2.1684083515	-2.5881296318	 0.6184982338	 0.121644
H	-2.0950515364	-0.3186325215	-0.8080499585	 0.080909
H	-2.8923949648	-0.6317857291	 1.7356112693	 0.116207
H	-1.7421857645	 0.7444702541	 1.884645027	 0.123971
124.9633	149.6518	215.593	272.888	332.2269	421.8122	463.266	489.488	543.767	549.9238	578.1507	677.8604	822.8241	839.867	852.1045	906.8087	931.1154	967.5324	978.9414	997.5503	1012.7935	1045.6329	1099.383	1137.7761	1140.5176	1165.8925	1213.5929	1217.4913	1221.9821	1241.886	1256.557	1288.9954	1325.1849	1339.3243	1426.8356	1482.5252	1485.9303	1522.292	2351.6598	3004.7483	3062.8859	3065.9441	3085.7331	3118.2548	3134.3627	3141.1296	3152.942	3822.0112
OC1CC2(CC1C2)C#N	O[C@H]1C[C@@]2(C[C@H]1C2)C#N	
InChI=1S/C7H9NO/c8-4-7-1-5(2-7)6(9)3-7/h5-6,9H,1-3H2	InChI=1S/C7H9NO/c8-4-7-1-5(2-7)6(9)3-7/h5-6,9H,1-3H2/t5-,6-,7-/m0/s1
