19
gdb 59816	4.40478	0.68018	0.62249	7.4702	79.8	-0.2283	0.0088	0.237	1786.0951	0.157688	-456.382117	-456.37184	-456.370895	-456.418749	35.171	
C	-0.3790406034	 1.4086953345	 0.1562442498	-0.33649
N	-0.1090745734	-0.0110438356	 0.0244120924	-0.055154
C	 0.4320197081	-0.6986691447	 1.1784115971	-0.335839
C	-0.1078030674	-0.5984965659	-1.1983658116	 0.134941
N	-0.3655413249	 0.0160575472	-2.290802116	-0.308685
H	 0.3481078177	 1.3782138376	-3.4011928396	 0.299391
C	-0.3926023306	-0.7519218926	-3.5185419294	-0.290893
C	 0.3110421611	 0.0085367592	-4.6533649651	 0.412707
O	 0.6351131099	 1.2697842187	-4.33258252	-0.362074
O	 0.5325138117	-0.4738299248	-5.7306084304	-0.338057
H	 0.5409399609	 2.0077913408	 0.1057505127	 0.129345
H	-1.0398557341	 1.7207236195	-0.6526668271	 0.160673
H	-0.8622161138	 1.5979090164	 1.1196591457	 0.12778
H	-0.2355656266	-0.58253339	 2.0398225428	 0.134659
H	 0.5315042697	-1.7647181863	 0.9616106471	 0.139533
H	 1.4214259417	-0.3116649169	 1.4606580122	 0.131629
H	 0.1144400333	-1.672699797	-1.1635933662	 0.098138
H	 0.0710181162	-1.7460894231	-3.440921899	 0.119813
H	-1.4271592662	-0.9107022071	-3.8534806653	 0.138582
48.1969	64.1711	85.5355	121.8483	143.5601	206.7225	216.5853	301.548	324.3618	370.8737	453.1697	466.2797	571.2217	614.7237	693.4669	778.6173	860.7428	898.6635	985.074	1017.2933	1086.2084	1088.6569	1130.	1132.7401	1176.1505	1221.5548	1231.3201	1288.7517	1331.7095	1406.0336	1421.1245	1442.4773	1447.8255	1466.5034	1475.0517	1476.9046	1491.2575	1509.5294	1540.5363	1734.873	1876.9899	2997.9849	3002.1151	3010.4389	3035.9461	3039.4278	3062.1993	3081.862	3124.0212	3151.9489	3512.0158
CN(C)C=[NH+]CC([O-])=O	CN(C)C=NCC(=O)O	
InChI=1S/C5H10N2O2/c1-7(2)4-6-3-5(8)9/h4H,3H2,1-2H3,(H,8,9)	InChI=1S/C5H10N2O2/c1-7(2)4-6-3-5(8)9/h4H,3H2,1-2H3,(H,8,9)
