21
gdb 114472	3.27648	1.20372	1.10057	1.3146	81.2	-0.2325	0.076	0.3085	1190.2271	0.183706	-387.023239	-387.0151	-387.014156	-387.055982	32.434	
O	-0.2270348808	 1.6071350961	 0.2069127733	-0.42314
C	 0.0426360941	 0.2097089575	 0.2472669215	-0.106793
C	-1.2697964324	-0.5137044952	 0.0205002627	 0.041945
C	-1.9723679723	-0.4729502919	-1.3804322498	-0.275177
C	-2.1660270923	-2.0221225258	-1.3169289436	-0.011903
C	-1.1407094623	-2.9560937042	-2.0046235139	-0.055793
C	 0.2378696952	-2.3710325441	-2.0265422672	-0.28863
C	-0.2756831498	-2.9424552195	-0.7308715854	-0.062519
C	-1.3318441924	-2.0728295087	-0.0062003116	-0.062842
H	 0.607427086	 2.0760147142	 0.2990502832	 0.284297
H	 0.788139351	-0.0671240651	-0.5109892177	 0.088543
H	 0.4530253724	-0.0892450499	 1.2267932285	 0.081266
H	-1.9664520616	-0.1472005851	 0.7822420848	 0.081008
H	-2.9024184424	 0.0987546918	-1.3937572353	 0.099044
H	-1.3493901132	-0.1143675109	-2.2038625893	 0.101601
H	-3.1931087727	-2.385986874	-1.331237071	 0.065902
H	-1.4075933295	-3.7940070485	-2.638315626	 0.08123
H	 0.9831393112	-2.9931351646	-2.5137397755	 0.109139
H	 0.4048967375	-1.310347615	-2.1738337195	 0.108268
H	 0.2444656829	-3.7671441607	-0.2569670646	 0.081005
H	-1.7290663586	-2.5605305663	 0.8854346962	 0.063551
75.9148	138.8205	179.7283	258.6547	305.3926	320.2693	420.2157	433.8981	551.6936	676.6006	715.4564	735.0249	757.1305	836.4964	854.9387	892.5442	908.8318	923.4961	935.1942	974.9294	1007.0743	1028.3557	1055.7665	1064.0807	1070.338	1086.2523	1091.5043	1107.4788	1135.4872	1170.3274	1185.7818	1208.7456	1221.8916	1253.5153	1261.6724	1274.528	1290.7664	1304.3074	1324.416	1357.2848	1372.8596	1458.069	1480.7833	1502.4734	1523.1835	2959.25	3013.3692	3046.7927	3065.2782	3090.2617	3105.4643	3118.6288	3130.6777	3164.8036	3175.4759	3208.1929	3827.2731
OCC1CC2C3CC3C12	OC[C@H]1C[C@H]2[C@H]3C[C@H]3[C@@H]12	
InChI=1S/C8H12O/c9-3-4-1-6-5-2-7(5)8(4)6/h4-9H,1-3H2	InChI=1S/C8H12O/c9-3-4-1-6-5-2-7(5)8(4)6/h4-9H,1-3H2/t4-,5-,6+,7-,8+/m1/s1
