18
gdb 106639	2.89353	1.22587	1.00138	1.5486	73.6	-0.2431	-0.0219	0.2213	1208.2671	0.146274	-439.06357	-439.054422	-439.053478	-439.097841	33.441	
C	 0.1061386094	 1.5181421636	 0.0042503257	-0.496571
C	-0.0355332272	 0.0350358222	 0.1493801456	 0.153799
N	 1.1258904366	-0.8493946525	-0.0928638087	-0.396908
C	 0.4409144286	-0.9881823596	 1.1828466758	 0.26188
C	 1.2297620219	-0.7758981909	 2.441445109	-0.161095
O	 2.050521731	-1.8946230214	 2.7398020515	-0.411564
C	-0.8008945501	-1.8749212401	 0.9946498847	-0.430414
C	-1.296374089	-0.790670627	-0.0065557017	 0.373128
O	-2.349335616	-0.5841722213	-0.5385970505	-0.306301
H	 1.073999516	 1.8528615293	 0.3855558278	 0.13525
H	 0.0414360262	 1.805861447	-1.0502817834	 0.140936
H	-0.6900159004	 2.0404227973	 0.5429741722	 0.133551
H	 0.91875707	-1.6104320638	-0.7378400041	 0.238096
H	 1.8221864858	 0.1454322632	 2.3467598819	 0.100317
H	 0.5547884051	-0.65799996	 3.295010808	 0.116485
H	 2.6735230418	-1.9842358264	 2.0098704733	 0.290184
H	-0.6191509017	-2.8891158267	 0.6269815418	 0.123319
H	-1.4747214179	-1.9241701827	 1.855957991	 0.135908
62.9735	96.8159	139.8371	156.5661	229.2206	272.6516	314.3264	403.4452	414.0125	478.2434	509.5191	579.8502	647.2682	678.9868	769.6524	797.8047	842.153	933.0675	979.6272	1012.4214	1050.985	1074.2075	1086.6297	1120.8162	1128.7046	1164.095	1188.3901	1212.4314	1263.4368	1355.2842	1374.2685	1404.3567	1424.7367	1446.9032	1468.5675	1481.4401	1488.3166	1493.3478	1878.6777	3002.6236	3042.1073	3053.1777	3083.3004	3105.3781	3106.6501	3125.9222	3460.1635	3803.626
CC12NC1(CO)CC2=O	C[C@@]12N[C@]1(CO)CC2=O	
InChI=1S/C6H9NO2/c1-5-4(9)2-6(5,3-8)7-5/h7-8H,2-3H2,1H3	InChI=1S/C6H9NO2/c1-5-4(9)2-6(5,3-8)7-5/h7-8H,2-3H2,1H3/t5-,6-/m0/s1
