19
gdb 87366	2.18898	1.57587	1.09195	4.5096	76.24	-0.2647	0.0131	0.2778	1165.3503	0.158246	-423.051921	-423.043	-423.042056	-423.085385	33.328	
C	-0.0316799408	 1.4950430448	-0.3024082549	-0.409776
C	 0.0311587405	-0.0003509468	-0.0844653762	-0.057803
C	 1.3232223853	-0.745102063	-0.2607994312	-0.345016
C	 0.7208052513	-0.6038155006	 1.1154201347	 0.097678
C	 1.2903853052	-0.0455068233	 2.4224608302	 0.064206
C	 0.7210898266	 1.2220047436	 3.0213356992	-0.401331
O	 0.760775746	-1.2405610862	 3.1134145343	-0.276639
C	 0.2279340771	-1.744774805	 1.9486704728	 0.438825
O	-0.383132727	-2.7557634251	 1.7973507049	-0.350288
H	 0.8986835561	 1.9849336358	 0.0014974851	 0.117495
H	-0.1893781608	 1.7163479588	-1.3631832503	 0.128482
H	-0.8521090258	 1.9520597959	 0.2596113715	 0.127833
H	-0.8637324535	-0.5424414703	-0.380884681	 0.114115
H	 1.3108593105	-1.7349875856	-0.7039947327	 0.13865
H	 2.2150569875	-0.160608679	-0.4664905896	 0.121162
H	 2.3832395177	-0.0635466062	 2.4770969301	 0.100151
H	-0.3696647067	 1.234114978	 2.9466996314	 0.131022
H	 0.9972559211	 1.2906687896	 4.0776512402	 0.136596
H	 1.1176428997	 2.1035582548	 2.5087260817	 0.124638
104.0201	128.8805	163.6299	205.2145	233.021	262.7642	279.8674	331.498	384.866	493.635	578.1289	620.0763	710.6086	745.3502	825.1947	851.4283	857.1443	907.5826	933.0593	1011.7548	1040.7594	1059.2947	1076.2757	1103.3541	1118.0621	1140.5829	1145.7364	1189.0774	1221.751	1288.3956	1342.361	1384.5624	1409.092	1413.9728	1432.2036	1480.1278	1483.0307	1495.9516	1496.9353	1507.4934	1928.4666	3034.9273	3044.6447	3063.3408	3099.5514	3104.5898	3117.1233	3126.22	3126.5486	3142.3354	3217.2916
CC1CC11C(C)OC1=O	C[C@H]1C[C@]21[C@@H](C)OC2=O	
InChI=1S/C7H10O2/c1-4-3-7(4)5(2)9-6(7)8/h4-5H,3H2,1-2H3	InChI=1S/C7H10O2/c1-4-3-7(4)5(2)9-6(7)8/h4-5H,3H2,1-2H3/t4-,5+,7-/m0/s1
