20
gdb 78893	2.89383	1.97193	1.60459	1.6011	80.14	-0.2046	0.0769	0.2816	922.072	0.174207	-365.95523	-365.948575	-365.947631	-365.985835	28.491	
C	-0.0932041063	 1.5828740956	-0.017393994	-0.410571
C	 0.0525229714	 0.0595839217	 0.0207379697	 0.023988
C	 0.8246843448	-0.5687253746	-1.1349590718	-0.064722
C	 1.1942037623	-1.9865985393	-0.7986547016	-0.119298
C	 2.2940745665	-0.9565345554	-0.9460038807	-0.038844
N	 2.726250475	-1.0866653375	 0.4687061758	-0.13453
C	 2.2330052675	 0.0266249902	 1.3415747744	-0.173238
C	 0.7877401958	-0.519650128	 1.2481182542	-0.085368
C	 1.4424348938	-1.8564164708	 0.7155105137	-0.002202
H	 0.8738299049	 2.0911812142	-0.0656173173	 0.119161
H	-0.6676421277	 1.8905098349	-0.897552364	 0.113166
H	-0.6240720857	 1.9512977174	 0.8670361882	 0.112616
H	-0.9596917187	-0.3711837439	 0.0018291519	 0.070574
H	 0.5394124185	-0.3418001458	-2.157815076	 0.08006
H	 0.9615508658	-2.8740069911	-1.3708022071	 0.088962
H	 3.0256016624	-0.8152667056	-1.7342396118	 0.087799
H	 2.6727023127	-0.0763452887	 2.3387236082	 0.100314
H	 2.4352062145	 1.0351968056	 0.9713000413	 0.099612
H	 0.1809548978	-0.53496638	 2.1559777379	 0.061672
H	 1.5008070148	-2.7328671389	 1.3612108091	 0.07085
163.8692	224.5251	270.5654	383.5649	469.0502	505.6988	596.2621	679.0053	693.0469	766.4823	783.3644	801.3834	840.5107	893.2126	897.3728	914.2084	933.5088	940.0241	980.6653	989.6382	1015.2596	1039.5051	1052.9902	1060.3346	1097.1666	1109.8798	1123.1172	1143.8391	1177.7674	1198.763	1216.6976	1240.6702	1259.1282	1282.2715	1290.9062	1314.6351	1347.9324	1371.2844	1396.6618	1411.6199	1491.5771	1497.3169	1512.0628	2986.5051	3034.3198	3045.1335	3080.9193	3095.1296	3095.9351	3107.0007	3113.8966	3157.4521	3166.9796	3207.2994
CC1C2C3C2N2CC1C32	C[C@H]1[C@@H]2[C@H]3[C@@H]2N2C[C@@H]1[C@@H]32	
InChI=1S/C8H11N/c1-3-4-2-9-7(4)6-5(3)8(6)9/h3-8H,2H2,1H3	InChI=1S/C8H11N/c1-3-4-2-9-7(4)6-5(3)8(6)9/h3-8H,2H2,1H3/t3-,4+,5-,6-,7+,8-/m1/s1
