19
gdb 56641	2.34586	1.32577	0.98813	2.1134	75.76	-0.264	0.0255	0.2895	1230.5596	0.158035	-419.194717	-419.18475	-419.183806	-419.229285	36.766	
C	-0.2568790993	 1.5750388976	 0.2819186673	-0.451624
C	-0.0093126272	 0.1060660254	-0.0055999934	 0.313492
C	 1.4005581792	-0.3258816495	-0.3844877671	-0.377465
C	 0.8256514093	-0.6804570714	 0.9676232078	 0.058193
O	 1.252692865	-0.0067989946	 2.1146348603	-0.425464
C	-1.1961668771	-0.5732330121	-0.697175793	-0.190903
N	-1.4437954188	 0.0513721532	-2.001393061	-0.493747
C	-1.0295845709	-2.0405465427	-0.8064257877	 0.262389
N	-0.9121133279	-3.1823967844	-0.9497036579	-0.340517
H	 0.5962046352	 2.0103519348	 0.8030391824	 0.130684
H	-0.4381181018	 2.123257287	-0.6450848679	 0.133464
H	-1.135152744	 1.7002198127	 0.9257559393	 0.116539
H	 1.5413226527	-1.1300012386	-1.0997728717	 0.125972
H	 2.1522288373	 0.4554080428	-0.4163564169	 0.118055
H	 0.5620808463	-1.7252842279	 1.1261717074	 0.11053
H	 2.1273008276	-0.3385631094	 2.3424669882	 0.291504
H	-2.0880340788	-0.4022028303	-0.0800744979	 0.132657
H	-0.6457362062	-0.1107909845	-2.6096844333	 0.242216
H	-2.2473860707	-0.378439488	-2.4495418749	 0.244026
62.75	136.328	166.7785	172.0432	228.9311	264.3805	272.6871	296.1697	306.514	356.4941	376.2489	463.0027	497.2108	593.4597	619.0942	712.1174	833.6693	848.1128	896.3842	924.6271	955.7134	996.2753	1022.2254	1047.1963	1091.4397	1111.6133	1124.6604	1189.1527	1209.953	1243.6306	1300.5971	1307.9232	1354.4187	1388.0025	1411.1998	1430.3684	1485.7116	1490.2346	1509.5436	1655.2565	2340.2309	3028.4551	3042.1081	3112.0305	3115.0649	3128.0896	3152.2046	3219.3513	3492.9885	3575.5222	3811.0553
CC1(CC1O)C(N)C#N	C[C@]1(C[C@H]1O)[C@@H](N)C#N	
InChI=1S/C6H10N2O/c1-6(2-5(6)9)4(8)3-7/h4-5,9H,2,8H2,1H3	InChI=1S/C6H10N2O/c1-6(2-5(6)9)4(8)3-7/h4-5,9H,2,8H2,1H3/t4-,5+,6-/m0/s1
