16
gdb 80155	2.52244	1.643	1.32343	5.239	69.22	-0.2399	-0.0835	0.1564	1000.5768	0.123781	-437.901057	-437.893127	-437.892182	-437.93389	29.586	
C	-0.1578896853	 1.507023418	 0.1090467242	-0.424332
C	-0.0224855176	 0.0175416753	-0.0939596768	-0.000236
C	 0.7246279439	-0.6180054611	-1.2149986419	-0.056369
C	 1.6693506783	 0.1668516769	-2.1102950303	-0.385592
C	 2.8487093399	 0.5132775114	-1.1986473431	 0.334916
O	 3.8799674585	 1.0469822106	-1.4893849075	-0.269508
C	 2.4296459249	 0.1000234558	 0.2472964294	 0.271888
O	 2.9954092545	 0.4360560056	 1.2503616231	-0.289313
N	 1.2630220494	-0.6878363797	 0.1692780321	-0.137707
H	 0.6312534585	 2.0823069319	-0.3819439625	 0.132652
H	-1.1198978767	 1.8442781523	-0.28928965	 0.134317
H	-0.1293245427	 1.7504287237	 1.1754594005	 0.155758
H	-0.8643123514	-0.5532764143	 0.2925477288	 0.115723
H	 0.3563967191	-1.5666699903	-1.5948356193	 0.112357
H	 2.0196944768	-0.4337150113	-2.9541991823	 0.153346
H	 1.2384887998	 1.0828652752	-2.5277147943	 0.152101
57.3992	125.6666	199.8191	233.0443	322.9666	356.8468	407.7161	494.1664	531.5556	582.7695	679.1879	692.7327	708.6538	771.7027	803.7719	934.712	942.5044	989.0593	1021.964	1058.0024	1082.2142	1144.2671	1158.4227	1177.1005	1193.3511	1266.9288	1311.3698	1376.3657	1419.6143	1426.6959	1445.3193	1486.5411	1500.3988	1843.432	1863.8102	3045.226	3060.2737	3103.8639	3112.5274	3115.9736	3135.3115	3150.3271
CC1C2CC(=O)C(=O)N12	C[C@H]1[C@H]2CC(=O)C(=O)N12	
InChI=1S/C6H7NO2/c1-3-4-2-5(8)6(9)7(3)4/h3-4H,2H2,1H3	InChI=1S/C6H7NO2/c1-3-4-2-5(8)6(9)7(3)4/h3-4H,2H2,1H3/t3-,4+,7?/m0/s1
