16
gdb 43002	2.32687	1.6606	1.29199	3.6726	74.46	-0.2327	-0.0273	0.2054	1022.5597	0.124388	-400.710442	-400.702593	-400.701649	-400.74304	30.027	
O	 0.0367816408	 0.0848349652	 0.1794486226	-0.315014
C	-0.045471949	 1.2752431306	 0.0494557753	 0.446156
C	-1.285180854	 2.0632198911	-0.2422358678	-0.164226
N	-1.3822167967	 3.2709566662	 0.6316762989	-0.316888
C	-0.8692422526	 3.4093498697	-0.7300275455	-0.030477
C	 0.6500534328	 3.5064634526	-0.7689046746	-0.235265
C	 1.1661934365	 2.2658249393	 0.0236677293	-0.284918
C	 1.6446559496	 2.5530597943	 1.3667492693	 0.375884
C	 2.0586189163	 2.78239002	 2.4712300663	-0.498712
H	-2.1834032834	 1.5480797595	-0.5601119571	 0.109341
H	-2.3608257306	 3.5484776168	 0.6639393419	 0.244062
H	-1.4600204438	 3.932941529	-1.4747815247	 0.100041
H	 0.9935551667	 3.4503328004	-1.8065772444	 0.111276
H	 1.0091940128	 4.4439709611	-0.3394875683	 0.12836
H	 1.9624286588	 1.7571381599	-0.529713861	 0.131903
H	 2.4120323859	 2.9839840844	 3.4518420798	 0.198479
67.2963	134.5795	173.7849	251.6851	362.0679	394.9652	460.8629	504.1916	564.9151	612.4797	635.3009	669.2055	702.4492	795.5522	843.4993	861.3794	886.0629	905.2146	951.357	1007.7036	1036.0684	1085.1871	1110.462	1143.4631	1178.852	1204.3938	1220.9508	1248.0392	1309.6143	1337.5626	1360.7562	1410.2374	1482.9538	1853.9421	2238.0653	3051.4397	3063.3284	3115.6169	3164.7587	3196.1427	3498.4011	3505.0822
O=C1C2NC2CC1C#C	O=C1[C@H]2N[C@H]2C[C@H]1C#C	
InChI=1S/C7H7NO/c1-2-4-3-5-6(8-5)7(4)9/h1,4-6,8H,3H2	InChI=1S/C7H7NO/c1-2-4-3-5-6(8-5)7(4)9/h1,4-6,8H,3H2/t4-,5+,6+/m1/s1
