18
gdb 99622	2.30552	1.247	1.00165	2.4893	71.92	-0.2679	0.021	0.2889	1240.2368	0.145974	-439.076185	-439.066604	-439.06566	-439.110752	35.099	
O	-0.0887587324	 1.4650182247	 0.1168265428	-0.418278
C	-0.0893822432	 0.065214771	 0.2797747981	-0.071821
C	-1.4653932813	-0.5706002383	-0.0482183923	-0.218994
C	-1.8341372066	-0.238701722	-1.4298238029	 0.246516
N	-2.0720850931	 0.0044250387	-2.5352198313	-0.328435
C	-1.4547143517	-2.0885428271	 0.1318481713	 0.41809
O	-0.539353271	-2.7493222463	-0.6962579765	-0.468186
C	-1.5880267771	-2.6600333612	 1.5098264733	-0.312344
C	-2.7204728333	-2.810830405	 0.5113936283	-0.325646
H	-0.1389544346	 1.6597812172	-0.8256852444	 0.298025
H	 0.6812749375	-0.4320132055	-0.3217521767	 0.122214
H	 0.1274634832	-0.1283262769	 1.3338610662	 0.124732
H	-2.2143619965	-0.1254406312	 0.6158833836	 0.13053
H	-0.8836330174	-2.7307319851	-1.5980323674	 0.297031
H	-0.9878996896	-3.5365209781	 1.7223638663	 0.135686
H	-1.7222375496	-1.9823537193	 2.3459422653	 0.121765
H	-3.6279853659	-2.2365698278	 0.6631934467	 0.122208
H	-2.8669153074	-3.7911209078	 0.0728279196	 0.126906
73.5128	98.4116	124.7974	157.0187	210.1241	305.5581	323.3098	359.5756	367.8275	386.6739	423.27	502.1971	548.3048	593.3367	772.5715	816.8846	834.0827	913.54	933.8449	945.8165	989.9707	1042.7527	1056.2619	1063.0148	1084.9453	1090.5724	1188.9386	1191.7943	1220.5646	1292.08	1299.1305	1331.4466	1383.9641	1401.1556	1414.827	1455.9292	1500.6283	1507.7332	2347.3008	3034.2617	3061.4849	3102.868	3137.1027	3142.4726	3223.9563	3237.8798	3776.4696	3804.8619
OCC(C#N)C1(O)CC1	OC[C@@H](C#N)C1(O)CC1	
InChI=1S/C6H9NO2/c7-3-5(4-8)6(9)1-2-6/h5,8-9H,1-2,4H2	InChI=1S/C6H9NO2/c7-3-5(4-8)6(9)1-2-6/h5,8-9H,1-2,4H2/t5-/m1/s1
