13
gdb 26916	3.15474	1.46465	1.00387	5.5348	66.27	-0.2239	-0.0632	0.1607	1073.7912	0.089122	-489.935828	-489.927843	-489.926898	-489.968665	29.057	
N	 0.0519268705	 1.4765407385	-0.0798063334	-0.60435
C	 0.0058333759	 0.0589976807	-0.0164030973	 0.028991
C	-1.1453136242	-0.6852104702	-0.1009334512	 0.463445
O	-2.3481830481	-0.1227973666	-0.222203656	-0.396224
O	-1.1420025285	-1.9981853208	-0.1075333245	-0.269679
C	 0.1295597026	-2.7713737349	 0.0532610608	 0.446529
O	-0.0253726188	-3.9498083376	 0.0912886635	-0.31994
N	 1.2570048342	-2.0270534434	 0.119657221	-0.347091
C	 1.1802141059	-0.7170281792	 0.0673596447	 0.037471
H	-0.8190957898	 1.8554535572	-0.4319971398	 0.252617
H	 0.2239251648	 1.8949126041	 0.8288374452	 0.250726
H	-3.0055995043	-0.8296956028	-0.29329179	 0.321518
H	 2.1277086398	-0.1786207649	 0.1000491368	 0.135989
89.5002	96.1788	188.1198	278.0985	305.7088	339.7994	432.8522	478.1238	484.4611	485.2265	611.0575	657.9751	726.8848	768.728	778.6298	823.3206	836.4475	999.516	1018.3083	1153.46	1195.703	1300.1236	1346.3442	1433.4715	1438.2429	1549.107	1661.1383	1719.0402	1911.2727	3136.4346	3508.055	3597.2889	3771.224
NC1=C(O)OC(=O)N=C1	Nc1c(O)oc(=O)nc1	
InChI=1S/C4H4N2O3/c5-2-1-6-4(8)9-3(2)7/h1,7H,5H2	InChI=1S/C4H4N2O3/c5-2-1-6-4(8)9-3(2)7/h1,7H,5H2
