21
gdb 115748	3.63932	0.85762	0.737	2.3807	85.13	-0.2424	0.0538	0.2963	1580.8104	0.180401	-387.0407	-387.030603	-387.029659	-387.077093	36.229	
C	-0.1461649203	 1.663902835	 0.1369914366	-0.397348
C	 0.1773999673	 0.1827609008	-0.0886740541	-0.181189
C	 0.7690567533	-0.4759845326	 1.1548677265	-0.052483
C	-0.2124064481	-0.7947431029	 2.3059996008	-0.076632
O	 0.0140559498	-2.2122542983	 2.1748959387	-0.284521
C	 1.0205987299	-2.0114555035	 1.1619254607	 0.129147
C	 0.7479049215	-2.8260252067	-0.1076598794	-0.380034
C	 0.9276824932	-4.2572224238	 0.1013244735	 0.294968
C	 1.0916175796	-5.4331162442	 0.2862433479	-0.422558
H	 0.7550294669	 2.2296654678	 0.3977509538	 0.117685
H	-0.5776818276	 2.1164471785	-0.7606705851	 0.117317
H	-0.8660410711	 1.7943445061	 0.952503775	 0.121093
H	-0.7349206535	-0.3454173841	-0.3919540632	 0.102912
H	 0.8821567231	 0.0877487068	-0.9246102092	 0.099493
H	 1.6484934914	 0.0887305016	 1.4786566701	 0.07663
H	 0.0777616735	-0.4231919671	 3.2967183233	 0.100051
H	-1.2625457297	-0.530754558	 2.1234339864	 0.098647
H	 2.0139285867	-2.2824810472	 1.5445484705	 0.082457
H	-0.2717119285	-2.6273474432	-0.4557889513	 0.132622
H	 1.429006848	-2.4811893379	-0.8973600927	 0.128504
H	 1.2257054944	-6.4735346372	 0.4490014711	 0.193239
31.4967	60.3204	100.4116	112.0297	178.0491	224.4912	272.3602	338.8615	362.4938	393.6812	484.6532	515.5373	616.9691	637.5193	757.2054	810.7463	819.1721	878.1496	904.1627	962.9741	972.1792	985.5044	1023.4686	1041.8449	1055.5939	1122.5064	1139.3184	1157.0545	1189.2169	1225.4905	1254.1729	1275.6746	1300.4531	1313.4155	1342.8076	1370.7484	1397.0792	1398.809	1413.2022	1454.1422	1486.7869	1499.2278	1506.3234	1527.1531	2241.2825	3003.0086	3009.2568	3017.3855	3024.5033	3031.5302	3042.7467	3050.1801	3066.0228	3073.5533	3098.6868	3106.9193	3508.1682
CCC1COC1CC#C	CC[C@H]1CO[C@H]1CC#C	
InChI=1S/C8H12O/c1-3-5-8-7(4-2)6-9-8/h1,7-8H,4-6H2,2H3	InChI=1S/C8H12O/c1-3-5-8-7(4-2)6-9-8/h1,7-8H,4-6H2,2H3/t7-,8-/m0/s1
