22
gdb 96235	2.26045	1.55844	1.14046	2.0567	82.93	-0.2406	0.0131	0.2538	1178.8401	0.195011	-404.361868	-404.352689	-404.351745	-404.395617	35.048	
C	-0.3050868844	 1.5213155064	-0.0350139614	-0.403424
C	-0.0091600862	 0.0136813522	-0.015227712	 0.027473
C	 0.7603557514	-0.4638597023	-1.2582377731	-0.233389
C	 2.1411237301	 0.150618441	-1.4465332628	-0.068716
O	 3.1172509798	-0.1964575932	-0.454129457	-0.231158
C	 2.9551872537	 0.2370551904	 0.8295476521	 0.103002
N	 1.9595378507	 0.2027385568	 1.6001428734	-0.240636
C	 0.6942605011	-0.4600668899	 1.280067608	 0.056303
C	-0.2123593054	-0.3538514073	 2.5115577904	-0.400206
H	 0.5983803993	 2.1203065547	 0.1092204448	 0.125996
H	-0.7572267882	 1.8154130877	-0.988336526	 0.107286
H	-1.0050602086	 1.7952047431	 0.7589307015	 0.120787
H	-0.9744056683	-0.5097939686	-0.0338474656	 0.074033
H	 0.8638106476	-1.5557385793	-1.2265628708	 0.102892
H	 0.1810804861	-0.2283929177	-2.1607287518	 0.096892
H	 2.579764707	-0.1991392881	-2.3846977827	 0.11601
H	 2.0745190854	 1.2445007165	-1.4984197319	 0.11035
H	 3.9038393901	 0.6215740488	 1.2095308301	 0.11268
H	 0.9219501668	-1.5274909106	 1.1286110005	 0.081275
H	-0.4463407628	 0.6897844866	 2.7406062495	 0.121014
H	-1.150727017	-0.8973322123	 2.3593434993	 0.101496
H	 0.2946321619	-0.7735011349	 3.3840900355	 0.120041
65.8344	117.633	195.4383	224.9016	255.8035	264.8883	313.1359	337.0045	379.5342	426.8511	445.6836	568.7029	645.5912	730.6676	785.8204	832.5058	841.4337	908.9435	957.0781	972.1231	983.3808	1003.7187	1018.7029	1048.4137	1114.3971	1133.8908	1143.3863	1154.946	1169.4475	1255.6563	1290.2374	1315.9875	1338.8057	1364.4406	1380.9038	1389.8776	1408.6518	1416.9143	1421.5328	1428.1129	1472.2951	1486.6229	1491.7897	1495.2772	1505.7632	1513.8099	1742.643	2970.401	3008.823	3023.5193	3029.4314	3038.6906	3042.1661	3062.155	3096.5127	3103.1444	3111.8417	3115.9886	3116.4403	3121.6347
CC1CCOC=NC1C	C[C@H]1CCOC=N[C@H]1C	
InChI=1S/C7H13NO/c1-6-3-4-9-5-8-7(6)2/h5-7H,3-4H2,1-2H3	InChI=1S/C7H13NO/c1-6-3-4-9-5-8-7(6)2/h5-7H,3-4H2,1-2H3/t6-,7-/m0/s1
