21
gdb 108794	3.63836	1.02136	0.97857	1.4031	81.85	-0.2105	0.0638	0.2743	1352.9765	0.182265	-420.439641	-420.429729	-420.428784	-420.474649	36.204	
C	-0.0468157073	 1.4383992739	 0.0633438948	-0.327714
N	-0.0373207871	-0.0140336567	 0.1237830124	-0.373127
C	-1.1812679671	-0.7528604568	 0.054140369	 0.490088
N	-1.2694138987	-1.971810547	-0.3169155482	-0.401993
C	-2.6651428863	-2.3853114603	-0.0822828883	 0.284407
C	-3.2494837703	-3.0214294591	-1.3480670352	-0.415331
C	-2.7158396778	-3.3776970224	 1.0904387194	-0.407748
C	-3.3772476642	-1.0431727867	 0.2744785986	-0.138983
O	-2.3038829538	-0.1036229529	 0.4763338584	-0.258593
H	 0.9329169854	 1.8101532475	 0.373286837	 0.127583
H	-0.2676025186	 1.8322659797	-0.9393575732	 0.118959
H	-0.7959026056	 1.824696966	 0.755281925	 0.156164
H	 0.7435182807	-0.4830912892	-0.3083598348	 0.254696
H	-2.6934329755	-3.9268598285	-1.607157762	 0.123147
H	-4.3015446007	-3.2935264837	-1.2048264192	 0.104231
H	-3.1817864212	-2.3303984123	-2.1936137256	 0.110149
H	-2.3311251747	-2.915323375	 2.0049384151	 0.113514
H	-3.7413144029	-3.7160701504	 1.2792157537	 0.102218
H	-2.0972702452	-4.2519489023	 0.8693737361	 0.122918
H	-4.0103929855	-0.6728492486	-0.5397477695	 0.10388
H	-3.9680889436	-1.0880359154	 1.1930784264	 0.111536
51.9825	101.2535	114.5571	176.77	214.1684	225.1642	268.9402	310.5266	340.2685	370.4088	469.4258	503.0225	565.0098	629.1881	708.1804	735.727	824.2401	898.9656	921.5808	941.6471	964.2967	995.0751	1032.2466	1039.513	1081.9592	1152.1877	1184.3057	1200.7845	1216.9112	1237.3364	1265.596	1359.7459	1394.0021	1408.3196	1422.7143	1456.5604	1475.3678	1476.922	1485.7593	1495.4537	1496.666	1504.6138	1520.0574	1526.7423	1743.681	2999.294	3026.2316	3030.4593	3038.571	3094.5044	3095.0957	3096.5509	3101.8785	3114.4973	3118.0146	3148.3824	3633.816
CNC1=NC(C)(C)CO1	CN[C]1[N]C(C)(C)CO1	
InChI=1S/C6H12N2O/c1-6(2)4-9-5(7-3)8-6/h4H2,1-3H3,(H,7,8)	InChI=1S/C6H12N2O/c1-6(2)4-9-5(7-3)8-6/h4H2,1-3H3,(H,7,8)
