20
gdb 104999	2.34467	1.25628	1.0452	3.6542	78.7	-0.2931	0.0136	0.3067	1249.623	0.169433	-403.148389	-403.138482	-403.137538	-403.183442	36.427	
C	 1.5139699545	-0.9885317834	-1.1169567443	-0.388887
C	 0.392056053	-0.4482791284	-0.2215496537	-0.252849
C	 0.6112669319	-0.6820137644	 1.2691325565	 0.326414
C	-0.6061634573	-0.9026952233	 2.1427053477	-0.331749
C	 0.3146606409	-2.0542930424	 1.8209058577	-0.30932
C	 1.7631635355	 0.1394155496	 1.848032288	-0.08446
O	 1.5470569076	 1.5347079261	 1.7138415156	-0.40421
C	 2.0554204574	-0.2016159057	 3.2582156057	 0.26667
N	 2.268084947	-0.4481133851	 4.3671278019	-0.334324
H	 1.677880425	-2.0575757172	-0.9464211514	 0.121121
H	 1.2629783067	-0.8506331201	-2.1728338568	 0.119683
H	 2.4636342093	-0.4722386108	-0.9430723943	 0.123899
H	 0.2636621225	 0.6253485207	-0.3985431285	 0.111819
H	-0.5533325861	-0.9257346266	-0.5031829682	 0.097245
H	-0.5916456777	-0.5314346579	 3.1624791113	 0.131058
H	-1.5798211719	-0.8659387954	 1.666639075	 0.118161
H	-0.0268007422	-2.8033936685	 1.1144590411	 0.11634
H	 0.9276505622	-2.4440907876	 2.62538645	 0.139951
H	 2.677259025	-0.0592333262	 1.2774118724	 0.139863
H	 0.7026639567	 1.7383453368	 2.1345538342	 0.293574
46.129	84.7727	149.977	188.927	211.7399	244.54	263.8751	325.8149	345.0698	372.0788	423.3283	491.958	560.5225	610.7259	728.6082	776.8473	797.5806	866.532	925.2082	940.4475	949.1275	1002.5033	1020.9938	1052.6601	1064.6106	1087.5345	1092.9115	1119.7509	1190.8566	1250.3353	1267.8208	1280.3381	1342.9798	1358.6951	1382.1019	1410.9484	1417.6238	1467.1785	1481.6579	1500.2542	1503.9917	1507.2523	2352.908	3034.5263	3037.2308	3059.1145	3071.7271	3104.9775	3109.3478	3130.2856	3137.3894	3212.1992	3226.7187	3789.3138
CCC1(CC1)C(O)C#N	CCC1(CC1)[C@@H](O)C#N	
InChI=1S/C7H11NO/c1-2-7(3-4-7)6(9)5-8/h6,9H,2-4H2,1H3	InChI=1S/C7H11NO/c1-2-7(3-4-7)6(9)5-8/h6,9H,2-4H2,1H3/t6-/m0/s1
