19
gdb 103280	4.27293	1.00044	0.96384	2.2192	71.57	-0.2412	0.0594	0.3006	1290.2284	0.157795	-460.113276	-460.10437	-460.103426	-460.146617	34.064	
C	 0.0246095957	 1.3551410651	-0.1425454229	-0.400477
C	 0.0416415325	-0.1310790973	 0.1400383355	 0.112008
O	 0.9932335178	-0.8237276026	-0.7445044655	-0.322535
C	 1.8200982797	-1.1536389098	 0.3791354465	 0.000158
C	 0.8211528834	-0.5756720702	 1.3756117545	-0.217286
C	 1.0671678241	-2.071363861	 1.2820688946	 0.385788
O	 0.1183537999	-2.9483523987	 0.7363278364	-0.489551
C	 1.7968481939	-2.7351706188	 2.4251280182	-0.114303
O	 2.4182172034	-3.9348161652	 2.0107786782	-0.421487
H	 1.0246717999	 1.7842763068	-0.0324370238	 0.126254
H	-0.3250142283	 1.5423007061	-1.1621375259	 0.130478
H	-0.6532724989	 1.8632847703	 0.5521681395	 0.12037
H	-0.9594879659	-0.566560897	 0.0378641952	 0.08988
H	 2.8962262891	-1.09092832	 0.2598689347	 0.111236
H	 0.9647630269	 0.0101161797	 2.2752781681	 0.098897
H	 0.0989607607	-2.7612208922	-0.2131122193	 0.298428
H	 2.5822517965	-2.074516776	 2.8072646857	 0.105907
H	 1.0837038704	-2.9145084604	 3.2461447545	 0.097526
H	 1.7429092991	-4.4159068988	 1.5168908155	 0.288708
92.0327	133.0802	177.759	214.0745	245.765	300.3442	319.4113	362.3598	428.5428	438.0199	515.3081	601.5569	645.6443	727.677	778.4215	829.1388	863.6375	905.604	931.5829	1000.8666	1014.8452	1024.4955	1053.9593	1072.4534	1079.6359	1097.1063	1126.3504	1156.3544	1195.3008	1218.9838	1272.1978	1304.4846	1359.1871	1374.3303	1386.1897	1409.1323	1425.6922	1462.2427	1485.0814	1492.7428	1501.2095	2974.7285	3036.0491	3039.6181	3073.3608	3108.6601	3121.3318	3172.6604	3189.5931	3738.3572	3786.9294
CC1OC2C1C2(O)CO	C[C@H]1O[C@H]2[C@@H]1[C@]2(O)CO	
InChI=1S/C6H10O3/c1-3-4-5(9-3)6(4,8)2-7/h3-5,7-8H,2H2,1H3	InChI=1S/C6H10O3/c1-3-4-5(9-3)6(4,8)2-7/h3-5,7-8H,2H2,1H3/t3-,4-,5+,6-/m1/s1
