21
gdb 102382	1.71152	1.39506	1.21148	4.2528	79.09	-0.2425	0.0275	0.27	1246.0052	0.18053	-420.403135	-420.392102	-420.391158	-420.438991	39.168	
C	 0.1304336159	 1.5388394389	-0.0662834077	-0.404628
C	 0.0486202312	 0.0170096513	 0.086941463	-0.21551
C	-1.3952429478	-0.5488314474	 0.0709118497	 0.206008
C	-2.2342191673	-0.0556811663	 1.2642515969	-0.181887
N	-3.5480301884	-0.6846218654	 1.2428334388	-0.504344
O	-2.1295016445	-0.1357751199	-1.0769656704	-0.277173
C	-1.6906000034	-0.6174951457	-2.3378121836	-0.26073
C	-1.3034815585	-2.031791476	 0.117633096	 0.294745
N	-1.1603141825	-3.178414651	 0.1208576016	-0.353452
H	 1.1730679865	 1.8463598031	-0.1871492551	 0.119724
H	-0.429237375	 1.8768626593	-0.9423091776	 0.134405
H	-0.2672021679	 2.0630039951	 0.8069069625	 0.125087
H	 0.6140673204	-0.4664348896	-0.7160745323	 0.118684
H	 0.5232270635	-0.3047625125	 1.0203546763	 0.119058
H	-1.7196838095	-0.3371060997	 2.1889389396	 0.116397
H	-2.2523873899	 1.0433531327	 1.2098984345	 0.099477
H	-4.09356654	-0.3872322729	 2.0440648794	 0.231922
H	-4.0439098588	-0.3882364181	 0.4088521563	 0.239631
H	-0.7099719593	-0.21205486	-2.6182510703	 0.11552
H	-1.6429069311	-1.7131597937	-2.3582270429	 0.142245
H	-2.4304313336	-0.2777911721	-3.0654846048	 0.134824
89.8696	101.6928	121.5631	145.8702	159.3912	186.6488	205.6584	233.841	276.6978	299.6472	313.2919	387.8352	437.2411	491.1029	580.6027	631.0628	682.669	778.3169	840.265	891.5776	965.0998	974.0898	1050.4555	1071.6076	1100.3896	1120.0971	1136.8347	1183.7948	1191.4737	1216.4132	1251.512	1317.6039	1330.256	1374.8925	1411.4421	1424.5424	1474.873	1484.0546	1492.4045	1498.7988	1500.3508	1505.8155	1513.4878	1645.4982	2351.6176	2986.9018	3009.5715	3048.8405	3049.3378	3071.6679	3074.9205	3083.2977	3116.327	3125.9557	3127.6424	3512.0485	3594.7557
CCC(CN)(OC)C#N	CC[C@@](CN)(OC)C#N	
InChI=1S/C6H12N2O/c1-3-6(4-7,5-8)9-2/h3-4,7H2,1-2H3	InChI=1S/C6H12N2O/c1-3-6(4-7,5-8)9-2/h3-4,7H2,1-2H3/t6-/m0/s1
