13
gdb 25362	3.64204	1.06547	0.82432	8.0482	73.68	-0.2564	-0.0777	0.1787	1272.6399	0.089479	-452.79705	-452.789476	-452.788531	-452.829734	26.767	
O	-0.1841285947	 0.0277896218	-0.0001740734	-0.232424
C	-0.0184740095	 1.2197418006	 0.0079027467	 0.0949
C	 1.2889429234	 1.8937150474	-0.0016057608	 0.260211
N	 2.4868450493	 1.3508333118	-0.0201046251	-0.294984
C	 3.3695041838	 2.3964234367	-0.0213894504	 0.172351
C	 4.8328743227	 2.2523831448	-0.0393532202	 0.083361
O	 5.4335619562	 1.2076222406	-0.0549841193	-0.249897
C	 2.6833546859	 3.604391363	-0.0032796921	-0.131778
N	 1.369393018	 3.2742811217	 0.0085188635	-0.278784
H	-0.8788479614	 1.9305160131	 0.0235849048	 0.065315
H	 5.3672583334	 3.2306658429	-0.0371776064	 0.066182
H	 3.0245154553	 4.6272901597	 0.0014574769	 0.16291
H	 0.5932338576	 3.917969126	 0.0225636557	 0.282635
121.2107	132.1773	138.0643	214.0849	259.5208	347.8355	455.167	527.6841	594.1139	671.243	710.9695	733.4629	807.6226	833.2511	995.2923	1015.9999	1029.8033	1037.928	1121.2245	1194.6286	1330.6298	1331.9397	1429.1062	1435.7031	1462.5126	1532.1554	1561.066	1812.1589	1824.1818	2846.0549	2860.9237	3269.5287	3639.3478
O=CC1=NC(C=O)=CN1	O=Cc1nc(C=O)c[nH]1	
InChI=1S/C5H4N2O2/c8-2-4-1-6-5(3-9)7-4/h1-3H,(H,6,7)	InChI=1S/C5H4N2O2/c8-2-4-1-6-5(3-9)7-4/h1-3H,(H,6,7)
