21
gdb 92510	2.7006	1.4407	1.03353	1.9788	86.15	-0.2251	0.0128	0.2379	1212.972	0.182493	-387.068313	-387.059562	-387.058617	-387.101459	33.647	
C	-0.2515914327	 1.5008028158	 0.0636850465	-0.402686
C	-0.0068514558	-0.0091491926	-0.0093331287	-0.054631
C	 0.9134645678	-0.4244353409	-1.21003874	-0.260239
C	 1.5266680264	-1.7402043911	-0.7180439054	 0.110691
O	 2.982119814	-1.9559744715	-0.6390461064	-0.309924
C	 2.8892493906	-2.1933318722	 0.8007710869	-0.154672
C	 1.502872837	-1.5991381891	 0.764796012	 0.084715
C	 0.7488057355	-0.5952594793	 1.2054110594	 0.183223
C	 0.6656446685	-0.0253848118	 2.5854128184	-0.499705
H	 0.6881228552	 2.0490361933	 0.1953309468	 0.116934
H	-0.7169782636	 1.8578377847	-0.8608025119	 0.116836
H	-0.9173538038	 1.7658222705	 0.8914673175	 0.114497
H	-0.9861431634	-0.4997098963	-0.1185214115	 0.079698
H	 0.3743145015	-0.4970043359	-2.159518683	 0.091814
H	 1.7114914895	 0.3184821984	-1.3203490903	 0.111781
H	 1.0578982673	-2.6301757788	-1.1603654488	 0.073269
H	 2.9566890981	-3.266568301	 1.0246992749	 0.10292
H	 3.6533595664	-1.6529319303	 1.3706374147	 0.113409
H	 1.3628375404	-0.525459866	 3.2631424653	 0.12343
H	 0.8859318223	 1.0482625875	 2.596322647	 0.129586
H	-0.3432794312	-0.1398326135	 3.0037153266	 0.129054
101.7172	143.0202	161.5971	229.0785	250.9867	260.2552	308.3407	390.0132	443.7898	502.2942	539.8358	620.7202	682.4508	776.8618	835.7743	882.8804	908.5999	935.0951	943.3842	976.5517	1016.5825	1047.5516	1058.8516	1085.1541	1110.6811	1126.1315	1142.0732	1150.9819	1187.3827	1237.249	1249.7418	1288.075	1309.4213	1331.5873	1349.2207	1359.94	1407.0032	1413.5588	1477.4093	1478.3102	1485.0466	1499.7439	1501.129	1511.0074	1774.1037	2981.4441	3000.3312	3008.3388	3017.603	3028.2397	3043.4724	3063.4993	3066.9335	3094.047	3099.1882	3100.2533	3110.6237
CC1CC2OCC2=C1C	C[C@H]1C[C@H]2OC[C]2[C]1C	
InChI=1S/C8H12O/c1-5-3-8-7(4-9-8)6(5)2/h5,8H,3-4H2,1-2H3	InChI=1S/C8H12O/c1-5-3-8-7(4-9-8)6(5)2/h5,8H,3-4H2,1-2H3/t5-,8+/m0/s1
