21
gdb 109042	2.91613	1.28528	1.02503	2.0184	83.73	-0.2337	0.0066	0.2402	1242.5314	0.182246	-387.089281	-387.080349	-387.079405	-387.12291	34.119	
C	-0.3760698072	 1.4089151691	-0.0596943382	-0.377117
C	 0.1948888914	-0.0167907572	 0.0411605785	-0.29017
C	 0.873450924	-0.4825557719	-1.2133257188	 0.332565
C	 2.1502830616	-0.8710832038	-1.3266732989	-0.221361
C	 2.4400959185	-1.3519899359	-2.7064760457	 0.005206
O	 1.6399654009	-2.5006577753	-3.0936497566	-0.263336
C	 1.196604991	-1.1956960402	-3.4735701409	 0.030154
C	 0.1337596438	-0.5977776196	-2.5511714962	-0.115537
C	-1.1496527046	-1.4405014037	-2.4939860225	-0.398462
H	 0.4137959315	 2.1310345126	-0.2891680796	 0.121138
H	-1.1357172309	 1.4845388516	-0.8442681673	 0.121004
H	-0.8437456042	 1.7055693465	 0.8838944009	 0.115516
H	 0.9067784876	-0.0693149199	 0.872250927	 0.103665
H	-0.6221131787	-0.7067329416	 0.2936929316	 0.111407
H	 2.8766595742	-0.8806862262	-0.522285193	 0.092799
H	 3.4332823915	-1.3210667702	-3.143790183	 0.093366
H	 1.1662819601	-1.0074965214	-4.5441606352	 0.089463
H	-0.1224167613	 0.4071107801	-2.9165331367	 0.081882
H	-0.9108201465	-2.4643071629	-2.1944160595	 0.138565
H	-1.8710310016	-1.0277269763	-1.7824133796	 0.114161
H	-1.6339456212	-1.4751686237	-3.4750490161	 0.115092
70.5635	120.3359	181.2101	200.8646	229.4901	264.4398	273.8301	391.2528	479.7677	525.2806	559.5413	658.8968	704.1491	778.9089	800.6994	815.0711	857.0274	867.6572	898.8264	958.2765	987.2942	1008.1652	1029.3177	1066.7453	1077.2911	1098.878	1116.0691	1126.4299	1196.1346	1250.2358	1269.6215	1294.6089	1305.6655	1324.8477	1352.5745	1359.6872	1396.7569	1407.1612	1420.4586	1474.7037	1496.9144	1498.5018	1502.6946	1507.8273	1688.0358	3003.325	3013.8966	3037.5919	3039.6901	3062.124	3104.2404	3108.2062	3110.1454	3124.2057	3138.175	3163.6489	3198.5716
CCC1=CC2OC2C1C	CCC1=C[C@H]2O[C@H]2[C@H]1C	
InChI=1S/C8H12O/c1-3-6-4-7-8(9-7)5(6)2/h4-5,7-8H,3H2,1-2H3	InChI=1S/C8H12O/c1-3-6-4-7-8(9-7)5(6)2/h4-5,7-8H,3H2,1-2H3/t5-,7+,8-/m0/s1
