18
gdb 75919	2.82366	1.57492	1.12425	4.845	72.52	-0.2317	0.0566	0.2883	1086.9174	0.148225	-439.119709	-439.111322	-439.110378	-439.153005	31.069	
C	-0.0991792797	 1.4207792069	 0.0292269645	-0.354983
N	-0.0849530255	-0.0220964843	 0.0424276395	-0.186134
C	 0.1515091086	-0.745556871	-1.103007089	 0.482133
O	 0.2583364336	-0.3321227549	-2.2262181413	-0.406413
O	 0.2487578443	-2.0706058218	-0.7767783176	-0.24701
C	-0.0445632816	-2.2491167316	 0.6126655188	-0.15381
C	 0.0238932852	-0.8479066007	 1.2121382254	 0.348417
C	 0.9140787585	-0.5099254298	 2.3807306166	-0.321692
C	-0.5994804602	-0.5120338218	 2.5300594057	-0.33231
H	 0.7959632273	 1.8463532494	 0.5007445072	 0.125808
H	-0.122845094	 1.7309502241	-1.0164550222	 0.17335
H	-0.9855479245	 1.8126129125	 0.5396358721	 0.128509
H	-1.0471671201	-2.6837158754	 0.7089354972	 0.120125
H	 0.6877485938	-2.9366424314	 1.0425722436	 0.126867
H	 1.4814516686	-1.3160820043	 2.8344334452	 0.122415
H	 1.4155884668	 0.4511998596	 2.3936617101	 0.125388
H	-1.092427532	 0.4476779585	 2.6397286841	 0.12576
H	-1.0673343691	-1.3159231042	 3.0900206001	 0.123578
69.6974	110.0533	179.2634	187.6975	254.858	305.9871	333.8542	454.4927	497.9488	545.3487	681.9283	723.8478	761.4044	769.7412	840.9545	901.0404	923.2371	953.2502	1001.9642	1054.5671	1075.987	1079.9869	1092.0254	1127.3988	1159.6276	1187.591	1195.9674	1230.3657	1282.2454	1360.7716	1405.5134	1419.7373	1457.4345	1458.409	1495.8164	1506.0995	1520.9503	1522.3567	1872.2529	3016.7363	3027.5364	3072.4412	3098.7036	3128.9952	3133.894	3147.4896	3210.4328	3225.3911
CN1C(=O)OCC11CC1	CN1C(=O)OCC21CC2	
InChI=1S/C6H9NO2/c1-7-5(8)9-4-6(7)2-3-6/h2-4H2,1H3	InChI=1S/C6H9NO2/c1-7-5(8)9-4-6(7)2-3-6/h2-4H2,1H3
