24
gdb 101332	3.18572	0.77222	0.72276	2.2293	86.75	-0.2429	0.0712	0.3141	1744.6714	0.215684	-405.53038	-405.519247	-405.518303	-405.567582	40.141	
C	-0.315196226	 1.5179051475	-0.0664229349	-0.384562
C	-0.1885499342	-0.0008749556	-0.2006737892	-0.189444
C	 0.9765711497	-0.4335016942	-1.0991332306	 0.145738
O	 2.2303819382	 0.0631902836	-0.6286791941	-0.435399
C	 1.0190553137	-1.94019923	-1.2607308232	-0.065907
N	 0.1491601553	-2.5278666517	-2.2947878824	-0.342838
C	 1.6154307837	-2.642117671	-2.4270349495	 0.001443
C	 2.2650374542	-1.9617397788	-3.6109295295	-0.177622
C	 2.1649182377	-2.8088493914	-4.8843266586	-0.380793
H	 0.6187549312	 1.951303233	 0.3012576083	 0.125122
H	-0.5359944947	 1.9798531997	-1.0349652607	 0.116091
H	-1.1188751123	 1.7903024349	 0.6243035311	 0.107102
H	-0.0526181551	-0.454786311	 0.7930835542	 0.076739
H	-1.1108140844	-0.4293140775	-0.6109633518	 0.110961
H	 0.846344053	 0.0234713572	-2.0847829238	 0.092993
H	 2.3892202484	-0.3218157182	 0.2405523596	 0.274236
H	 1.0815169672	-2.4712092764	-0.3075128969	 0.066765
H	-0.2566825573	-3.4008186899	-1.9702408249	 0.22904
H	 2.0417650054	-3.6211286059	-2.2018242663	 0.075121
H	 1.791648481	-0.990616472	-3.7811357769	 0.106483
H	 3.3162161251	-1.761627216	-3.3691149733	 0.103027
H	 2.6590735089	-3.7789887831	-4.7573991195	 0.107887
H	 1.1170633839	-2.9974352946	-5.1384033179	 0.126697
H	 2.6355000075	-2.3053823086	-5.7342254492	 0.111121
40.0017	57.1295	91.8925	118.9381	178.5261	217.2123	231.4585	249.6575	272.0079	280.621	377.4435	416.0465	462.2186	522.756	585.2311	756.8719	779.6162	816.1241	859.5335	886.1694	938.4128	953.9138	978.0747	991.7003	1037.2415	1057.9903	1070.1079	1102.3125	1117.1166	1120.5623	1156.6309	1197.3784	1242.5158	1262.539	1271.9722	1296.781	1303.3696	1332.9492	1343.4412	1384.3271	1403.3825	1405.5832	1414.1352	1430.4204	1473.089	1481.1971	1486.8458	1496.402	1499.0066	1507.3297	1508.5821	2993.1127	3030.5884	3036.4124	3037.4539	3056.8288	3063.7815	3077.1105	3080.9447	3091.293	3101.8227	3105.6649	3110.817	3120.0827	3507.6306	3795.8058
CCC(O)C1NC1CC	CC[C@@H](O)[C@H]1N[C@H]1CC	
InChI=1S/C7H15NO/c1-3-5-7(8-5)6(9)4-2/h5-9H,3-4H2,1-2H3	InChI=1S/C7H15NO/c1-3-5-7(8-5)6(9)4-2/h5-9H,3-4H2,1-2H3/t5-,6+,7-/m0/s1
