16
gdb 16054	3.48977	1.73436	1.47093	4.327	67.39	-0.2444	-0.0271	0.2173	900.8168	0.129191	-383.706183	-383.698597	-383.697653	-383.738077	27.837	
C	-0.0223400909	 1.5550729939	 0.0895525853	-0.419144
C	 0.0732260799	 0.0466609257	 0.0448503551	-0.076734
C	 1.312002981	-0.7354402125	-0.2843160079	-0.189652
C	 2.538672415	-0.1136026629	 0.3774490662	-0.099387
O	 1.8770575424	-0.0483278153	 1.6690422255	-0.302271
C	 0.7525601816	-0.7440611902	 1.1508775449	 0.362341
C	 0.1072124449	-1.8257497955	 1.9044449103	 0.065794
O	 0.3902677131	-2.1593396935	 3.027811721	-0.26399
H	 0.8123485446	 1.9848521312	 0.6471200049	 0.145065
H	-0.0247016761	 1.9772042913	-0.9205752101	 0.123155
H	-0.9466548824	 1.8636313444	 0.5872471937	 0.129075
H	-0.818342422	-0.458267162	-0.3236548155	 0.103087
H	 1.3289011509	-1.5440359883	-1.0031139744	 0.114371
H	 3.3938949537	-0.7952800218	 0.4232273828	 0.124671
H	 2.8637482259	 0.8711575639	 0.0248283715	 0.114331
H	-0.7027050316	-2.3264011882	 1.3234155168	 0.069286
98.0371	163.7595	195.7079	241.7463	261.8304	282.4707	432.9865	487.902	598.0776	727.8027	734.6284	786.519	893.7074	927.9735	969.3239	983.4435	991.0099	1025.2956	1055.8274	1086.5231	1114.4444	1137.5804	1167.0344	1199.2409	1274.9301	1320.597	1348.9805	1403.7229	1419.8186	1457.0691	1491.0635	1500.3703	1520.367	1813.6295	2854.3872	3037.445	3043.5611	3088.7071	3105.0363	3124.2124	3139.4115	3201.9463
CC1C2COC12C=O	C[C@H]1[C@H]2CO[C@@]12C=O	
InChI=1S/C6H8O2/c1-4-5-2-8-6(4,5)3-7/h3-5H,2H2,1H3	InChI=1S/C6H8O2/c1-4-5-2-8-6(4,5)3-7/h3-5H,2H2,1H3/t4-,5+,6-/m0/s1
