19
gdb 102414	2.18047	1.15306	0.83107	4.1399	80.59	-0.2354	0.0227	0.258	1409.8191	0.156841	-419.165024	-419.154577	-419.153633	-419.200823	37.164	
C	 1.1079810371	-0.4586401925	-0.1545458631	-0.332078
N	-0.2507939921	 0.053844827	-0.0842952852	-0.329546
C	-1.3613515682	-0.7381324342	-0.0038683775	 0.370302
C	-1.1592203762	-2.229256705	 0.2444646132	-0.111385
O	-2.3806110627	-2.8931322537	 0.3483809347	-0.425453
N	-2.5844485282	-0.3565398108	-0.0849821971	-0.324708
C	-2.9025127531	 1.0568440192	-0.2436024676	-0.320093
C	-2.383639241	 1.6859179848	-1.4653193501	 0.298852
C	-1.9293356155	 2.1895242041	-2.4593472376	-0.464707
H	 1.8003095256	 0.3822571001	-0.0752119417	 0.135804
H	 1.3119489428	-1.1330851562	 0.6811574122	 0.145708
H	 1.3227969581	-0.9929132105	-1.0901983833	 0.131454
H	-0.3946566218	 0.9548629367	-0.5173187736	 0.253951
H	-0.5514269303	-2.6446376804	-0.5771983406	 0.102438
H	-0.5649211823	-2.3576228775	 1.1646713055	 0.104277
H	-3.0409770501	-2.1859521795	 0.21395615	 0.288439
H	-3.9932294316	 1.1575606618	-0.2382808238	 0.143522
H	-2.5369921734	 1.632790477	 0.6229530624	 0.130583
H	-1.5579759872	 2.6345204295	-3.349479307	 0.202639
58.9663	91.8342	125.63	137.309	170.9799	195.8682	237.8002	258.7768	327.1665	351.5257	457.2611	503.5202	517.4044	583.3219	626.3268	641.9247	651.7111	697.0485	790.8492	925.6486	999.2593	1033.7859	1066.6612	1084.8963	1146.1398	1150.0036	1196.3834	1260.7989	1268.4795	1312.2204	1346.2194	1372.3439	1470.6742	1476.5288	1487.3578	1492.2075	1501.0021	1516.133	1527.3473	1720.7361	2222.5896	2960.9116	2968.0577	2974.3405	3009.0169	3057.101	3090.5406	3128.5604	3501.9115	3562.8381	3589.3315
CNC(CO)=NCC#C	CNC(=NCC#C)CO	
InChI=1S/C6H10N2O/c1-3-4-8-6(5-9)7-2/h1,9H,4-5H2,2H3,(H,7,8)	InChI=1S/C6H10N2O/c1-3-4-8-6(5-9)7-2/h1,9H,4-5H2,2H3,(H,7,8)
