19
gdb 61956	2.29944	0.85305	0.65285	3.1488	79.5	-0.2438	-0.0199	0.2239	1685.1071	0.154138	-422.988608	-422.977883	-422.976938	-423.026195	36.895	
C	 0.0273659553	 1.5618638631	-0.0759023163	-0.405166
C	 0.0297797959	 0.0318095009	-0.0627359433	 0.137118
C	 0.7572955962	-0.5256293034	 1.1675736277	-0.285606
C	 0.9199580963	-2.0309605619	 1.1247636026	 0.149518
O	 1.9438247429	-2.6079754238	 1.3910946649	-0.24339
O	-1.2879367225	-0.5095901438	-0.0088712767	-0.260222
C	-1.9961903806	-0.4676645438	-1.2359698454	-0.219912
C	-3.2457104729	-1.2049295009	-1.1034062803	 0.283642
C	-4.2819660515	-1.8054783245	-1.0198063608	-0.412433
H	 1.0522295377	 1.9447813825	-0.095722145	 0.124941
H	-0.4892179584	 1.9565081124	-0.9554835115	 0.122366
H	-0.4719777441	 1.9467994823	 0.818584243	 0.130535
H	 0.5297035655	-0.3346603914	-0.9760459489	 0.077313
H	 1.7433825744	-0.0694803575	 1.287268548	 0.120021
H	 0.1523199929	-0.2763560357	 2.0506725445	 0.134047
H	 0.0042926794	-2.5833747347	 0.8251750824	 0.096294
H	-2.215751786	 0.5688574342	-1.5351377805	 0.125079
H	-1.3884262474	-0.9097498881	-2.0434601889	 0.122015
H	-5.196653203	-2.3394145359	-0.9409807555	 0.203841
34.6473	54.381	74.9265	105.1756	134.2058	198.5846	239.6087	271.2822	329.2686	360.4017	399.1686	461.1517	528.7762	546.759	612.8941	679.3759	788.6178	860.1727	941.0673	960.2777	977.0463	1013.8413	1032.1025	1098.5623	1117.0973	1140.9014	1163.5639	1244.4932	1254.8637	1292.6199	1359.2315	1378.9733	1405.99	1416.5108	1427.9689	1443.8816	1489.93	1493.9539	1505.3051	1829.7468	2249.005	2915.1332	2953.8828	2963.8848	2995.0456	3025.1254	3041.8786	3107.4548	3115.2065	3119.1224	3505.7229
CC(CC=O)OCC#C	C[C@@H](CC=O)OCC#C	
InChI=1S/C7H10O2/c1-3-6-9-7(2)4-5-8/h1,5,7H,4,6H2,2H3	InChI=1S/C7H10O2/c1-3-6-9-7(2)4-5-8/h1,5,7H,4,6H2,2H3/t7-/m0/s1
