17
gdb 107714	3.47909	1.34933	1.14864	3.1213	68.36	-0.2257	0.0663	0.292	1083.0401	0.133533	-458.847347	-458.839111	-458.838167	-458.880109	31.256	
C	 0.0139650971	 1.370033811	 0.0181298575	-0.262883
O	-0.0307367174	-0.042844478	 0.1358560706	-0.285486
C	 0.6264247138	-0.533992547	 1.2256680087	 0.432268
C	 0.3376438457	-0.309464325	 2.7334845884	-0.424085
C	 1.5133950332	-1.3152132717	 2.7132734626	 0.377886
O	 2.2230386085	-1.8409815215	 3.7624622939	-0.462379
C	 0.9986277216	-2.0327978858	 1.4032902317	-0.068955
O	 2.2781802469	-1.9312059339	 0.7197107402	-0.320886
C	 2.1843889183	-0.6829666193	 1.4602225269	-0.045495
H	 1.0477536874	 1.7309147901	-0.0691559589	 0.117404
H	-0.5331657825	 1.6286290608	-0.8901987563	 0.135878
H	-0.4618258709	 1.8619525938	 0.8774235663	 0.117066
H	 0.5582196627	 0.6799223863	 3.1430019762	 0.105318
H	-0.6230802463	-0.6814385869	 3.1022499858	 0.099329
H	 1.6168828126	-2.3156308156	 4.3415891612	 0.290483
H	 0.3869823244	-2.9238280812	 1.2645239136	 0.09664
H	 2.9976495149	 0.0387452339	 1.3957261916	 0.097897
80.0021	163.3701	175.1482	235.5877	287.4103	319.6341	331.7349	429.2173	472.27	573.885	604.3768	700.4189	716.6872	801.6618	861.6799	905.2818	933.0802	955.9659	1003.8304	1023.224	1056.8778	1091.1847	1093.6923	1116.1553	1139.575	1166.1044	1180.3485	1182.5153	1232.1388	1283.4957	1297.4063	1351.6481	1426.6301	1486.2723	1488.8508	1504.3554	1528.9524	2998.4291	3049.2395	3055.5597	3111.331	3126.6395	3131.4873	3133.9646	3806.8888
COC12CC3(O)C1OC23	CO[C@@]12C[C@@]3(O)[C@@H]1O[C@@H]23	
InChI=1S/C6H8O3/c1-8-6-2-5(7)3(6)9-4(5)6/h3-4,7H,2H2,1H3	InChI=1S/C6H8O3/c1-8-6-2-5(7)3(6)9-4(5)6/h3-4,7H,2H2,1H3/t3-,4+,5+,6-
