12
gdb 25546	5.72598	1.00252	0.85315	4.1935	58.98	-0.2348	-0.0293	0.2055	1214.3128	0.077534	-509.826193	-509.818824	-509.81788	-509.858685	26.321	
O	 0.537632323	 2.3896890445	 1.4142378998	-0.291954
C	 0.1747532209	 1.9582348524	 0.3451681468	 0.147801
N	 0.9794661128	 1.2225375985	-0.489131258	-0.413573
C	 2.2866394857	 0.9054640142	-0.1793753597	 0.412838
C	 3.0979482824	 1.1511107675	 0.8496721121	-0.122003
O	 4.3240880619	 0.5501992227	 0.5646850327	-0.209704
C	 4.2296651433	-0.0532771668	-0.6447225721	 0.507308
O	 5.074672644	-0.6628474016	-1.2121841868	-0.362778
O	 2.9498276378	 0.1622319154	-1.1263728703	-0.251166
H	-0.8340233243	 2.1054961663	-0.0776661437	 0.108211
H	 0.625051232	 0.8868916026	-1.3722590001	 0.281084
H	 2.9855871004	 1.6806550443	 1.7739571893	 0.193934
66.0418	157.4725	183.9742	255.1426	301.6857	368.5948	509.5234	556.1134	603.8004	634.005	718.0577	762.0683	774.4642	869.6989	928.8251	984.1653	1008.7511	1063.6489	1112.7755	1148.4045	1274.4614	1308.3627	1424.6532	1542.6559	1746.0586	1804.3729	1949.404	2990.5181	3355.3602	3630.3058
O=CNC1=COC(=O)O1	O=CNc1coc(=O)o1	
InChI=1S/C4H3NO4/c6-2-5-3-1-8-4(7)9-3/h1-2H,(H,5,6)	InChI=1S/C4H3NO4/c6-2-5-3-1-8-4(7)9-3/h1-2H,(H,5,6)
