21
gdb 31637	3.28076	1.06442	0.85734	3.4979	87.61	-0.2033	0.0377	0.241	1436.9546	0.182393	-383.329287	-383.319199	-383.318255	-383.365199	35.717	
C	 0.0351590145	 1.527252815	-0.1498927189	-0.364034
C	-0.0077523361	 0.003724769	 0.0482682846	-0.288052
C	-1.3967862661	-0.5524462068	-0.0127094469	 0.277556
C	-1.9343516643	-1.4297125561	-0.9162206627	-0.229259
N	-3.2554889524	-1.605037589	-0.5464961524	-0.020214
C	-4.2010107185	-2.5017127095	-1.1780492507	-0.340764
C	-3.4562656868	-0.8339199147	 0.5677448827	 0.326787
C	-4.7595875058	-0.7487848224	 1.2908420158	-0.503398
N	-2.359315518	-0.1885370456	 0.9067158641	-0.356277
H	 1.0561825681	 1.9092422562	-0.0489383466	 0.10142
H	-0.336220806	 1.8036939361	-1.142182937	 0.108613
H	-0.5951953338	 2.0226377443	 0.5933629094	 0.135773
H	 0.6120984762	-0.491186211	-0.7082404431	 0.090846
H	 0.433229467	-0.2403218517	 1.0231754563	 0.107798
H	-1.5190604748	-1.9366046436	-1.7724875154	 0.115915
H	-4.1441121915	-3.514004321	-0.7606412002	 0.139051
H	-5.2179711156	-2.1280474005	-1.0425350683	 0.143699
H	-3.9963127392	-2.5557571611	-2.2498673673	 0.143123
H	-5.0815977539	-1.7191909121	 1.6869702741	 0.127717
H	-4.6378147505	-0.0600335492	 2.1275773624	 0.15542
H	-5.5667888126	-0.3715972264	 0.6512108301	 0.12828
49.7678	52.2305	118.8306	138.6934	188.8851	202.3171	250.6715	275.8307	299.4137	394.8636	481.257	592.0746	646.3754	657.9944	717.6474	733.738	791.4029	794.5731	960.0627	1004.2526	1035.2819	1059.626	1069.0076	1073.5762	1090.3079	1148.1991	1188.4193	1221.2581	1278.8819	1335.9007	1355.0568	1383.6178	1402.9297	1405.7415	1441.5934	1469.4902	1478.6131	1482.5383	1492.1846	1494.7819	1498.0786	1509.1726	1517.4047	1559.4336	1606.0662	3022.6689	3024.0115	3031.0872	3035.3299	3061.9037	3070.6292	3101.6068	3102.2355	3121.7529	3135.344	3147.5788	3259.1238
CCC1=CN(C)C(C)=N1	CCc1cn(C)c(C)n1	
InChI=1S/C7H12N2/c1-4-7-5-9(3)6(2)8-7/h5H,4H2,1-3H3	InChI=1S/C7H12N2/c1-4-7-5-9(3)6(2)8-7/h5H,4H2,1-3H3
