17
gdb 128313	3.35074	1.28651	0.94175	4.0913	71.27	-0.1983	0.049	0.2473	1212.3936	0.137111	-451.367906	-451.358635	-451.357691	-451.402047	32.619	
C	-0.009484261	 1.4366489824	-0.0164022465	-0.317463
N	-0.0890376121	-0.0192094036	-0.0574404218	-0.39365
C	 0.6061778124	-0.6586799382	-1.0565362214	 0.493616
N	 1.1958554296	-0.0701566683	-2.0573565405	-0.319064
N	 1.6571493962	-1.1356611028	-2.825396457	-0.323339
C	 1.3766178549	-2.3669895955	-2.3042589774	 0.460201
O	 1.6311194969	-3.4828051095	-2.7129228979	-0.438559
N	 0.6817043018	-2.0312110207	-1.1248508738	-0.182118
C	 0.1002329075	-3.0169099434	-0.2452861187	-0.361178
H	 1.0134044009	 1.8071652738	 0.1318106558	 0.129363
H	-0.3757605864	 1.8383351318	-0.96337134	 0.15762
H	-0.6480885035	 1.797444527	 0.7923043659	 0.124371
H	-0.0019337491	-0.4650096309	 0.8451727535	 0.245612
H	 2.1509379829	-0.9612024705	-3.6812541477	 0.275858
H	 0.2629854798	-3.9888087719	-0.7159217699	 0.177322
H	 0.5827357887	-3.0200333149	 0.7392677199	 0.129445
H	-0.9730895496	-2.8446586447	-0.1180428725	 0.141964
87.8116	131.2495	153.6852	165.1561	182.216	197.0383	273.5044	279.6589	382.1351	444.926	535.1726	576.7469	678.7365	704.1653	757.1663	795.937	805.0553	962.1267	1080.1956	1088.4724	1154.5103	1160.0117	1188.9222	1226.3432	1238.232	1325.9359	1392.3324	1404.717	1453.7281	1457.2097	1482.1791	1496.8853	1511.9434	1515.5197	1570.7612	1670.8052	1839.3762	3018.4423	3025.2886	3087.4432	3102.0765	3139.7551	3142.4863	3587.2836	3711.4837
CNC1=NNC(=O)N1C	CNc1n[nH]c(=O)n1C	
InChI=1S/C4H8N4O/c1-5-3-6-7-4(9)8(3)2/h1-2H3,(H,5,6)(H,7,9)	InChI=1S/C4H8N4O/c1-5-3-6-7-4(9)8(3)2/h1-2H3,(H,5,6)(H,7,9)
