18
gdb 70706	2.32263	1.86418	1.22198	2.6202	71.84	-0.2238	-0.0296	0.1942	1040.741	0.148345	-439.087066	-439.078884	-439.07794	-439.119683	31.256	
C	-0.0908317143	 1.5282030878	 0.0411769684	-0.474152
C	 0.1285453204	 0.0412471808	-0.0295926167	 0.279122
O	-0.7451470893	-0.7858965492	 0.7740249003	-0.282075
C	 0.6348227472	-0.7467318478	 1.1250742486	-0.019042
C	 1.4062738187	-2.0464851825	 0.9229183565	-0.197822
N	 1.7196938901	-2.3885863067	-0.4654827457	-0.296527
C	 0.6367228132	-2.0572671055	-1.4010276958	-0.275737
C	 0.3674924827	-0.5551490487	-1.3991886747	 0.344751
O	 0.4004337048	 0.1353907046	-2.3929481197	-0.311083
H	 0.7847396203	 2.0618937591	-0.3389808921	 0.135506
H	-0.9444111602	 1.8169429214	-0.577896144	 0.14357
H	-0.2796193139	 1.8356510287	 1.0723115796	 0.124369
H	 0.835747929	-0.1997969316	 2.0486753731	 0.098287
H	 2.3438642416	-2.0056870744	 1.4860686542	 0.112889
H	 0.8037218322	-2.8538173877	 1.3613261781	 0.128137
H	 2.5581520908	-1.8926407849	-0.7516761199	 0.225824
H	 0.9107752891	-2.3606025642	-2.4139730708	 0.126118
H	-0.2657705527	-2.6000790494	-1.0996033094	 0.137867
84.8453	165.0031	206.3809	219.9721	287.1632	317.9725	384.6068	448.8921	484.584	503.811	602.9294	653.2535	767.432	782.5082	797.4588	863.594	879.7578	941.4199	997.8562	1006.4682	1072.3619	1083.1846	1113.7934	1146.3135	1157.5706	1218.258	1304.2705	1323.0594	1334.5272	1340.6167	1378.8431	1413.1311	1444.5111	1460.3776	1475.1415	1476.6297	1490.4903	1499.1695	1805.9015	3018.4307	3051.5059	3051.7066	3078.9786	3092.8299	3118.155	3122.5228	3134.4003	3513.1364
CC12OC1CNCC2=O	C[C@]12O[C@H]1CNCC2=O	
InChI=1S/C6H9NO2/c1-6-4(8)2-7-3-5(6)9-6/h5,7H,2-3H2,1H3	InChI=1S/C6H9NO2/c1-6-4(8)2-7-3-5(6)9-6/h5,7H,2-3H2,1H3/t5-,6+/m0/s1
