15
gdb 131501	3.97168	1.28455	1.10997	2.6679	68.47	-0.2574	-0.0364	0.221	1068.0749	0.11425	-450.083749	-450.076572	-450.075628	-450.115991	26.946	
O	 0.1305965358	 1.4080887058	 0.1589564434	-0.417362
C	 0.0272666858	 0.0365893959	 0.0556421728	 0.133028
C	-0.4737969011	-0.8345909822	 1.175885003	-0.353455
C	-1.3176299737	-0.6708504315	-0.0756271415	 0.003883
N	-2.5169522617	 0.1111448161	-0.0105243268	 0.158647
N	-3.6106161032	-0.1839862704	-0.6978920563	-0.245727
C	-4.4136283747	 0.8215667203	-0.3567340297	 0.081486
N	-3.8357407136	 1.6897010054	 0.4949559554	-0.203611
N	-2.6260428367	 1.2245718578	 0.7084670397	-0.166707
H	-0.6681889452	 1.7501383681	 0.5917568287	 0.308936
H	 0.818672449	-0.3572622803	-0.5741103407	 0.1257
H	-0.0221141261	-1.8050249635	 1.3507383962	 0.132389
H	-0.8377500858	-0.3273242474	 2.0630759914	 0.150226
H	-1.4469966178	-1.4921205397	-0.7665452145	 0.138491
H	-5.4207640209	 0.9221044955	-0.7263732911	 0.154077
58.7795	148.815	197.2451	303.7239	374.6027	466.9949	480.9188	558.6168	692.0609	714.8728	741.3113	766.8054	815.4974	899.1245	938.4837	1024.9827	1032.6402	1040.8868	1061.1626	1071.2769	1116.7209	1141.1429	1169.1372	1207.2767	1236.0717	1259.4398	1321.2029	1360.1073	1374.9149	1433.3396	1451.5363	1476.6676	1494.7015	3135.1215	3168.5348	3217.8959	3231.5827	3291.6399	3674.2475
OC1CC1N1N=CN=N1	O[C@H]1C[C@H]1n1ncnn1	
InChI=1S/C4H6N4O/c9-4-1-3(4)8-6-2-5-7-8/h2-4,9H,1H2	InChI=1S/C4H6N4O/c9-4-1-3(4)8-6-2-5-7-8/h2-4,9H,1H2/t3-,4+/m1/s1
