19
gdb 44944	2.54429	1.79347	1.59099	2.3812	75.35	-0.2268	0.0266	0.2534	947.7084	0.164544	-419.232319	-419.225426	-419.224482	-419.263335	28.585	
N	-0.0540770075	 1.2868228324	-0.1402245056	-0.565036
C	-0.0236300149	 0.0271721967	-0.0643947702	 0.419052
O	 1.1144770241	-0.7382533523	-0.0213675281	-0.258744
C	 0.7283679266	-2.1376876149	 0.0976737147	 0.088939
C	-0.6404344696	-2.173966816	-0.5909500048	-0.219391
C	-1.2237450195	-0.9097859281	 0.0488604896	-0.079508
N	-1.552106076	-1.219481418	 1.4516214346	-0.298905
C	-0.3633731204	-1.4982229626	 2.276660826	-0.164236
C	 0.5732625984	-2.5017365694	 1.5799387571	-0.202768
H	 0.894274254	 1.6688767219	-0.1626462715	 0.218732
H	 1.5081342166	-2.7218969787	-0.3938077267	 0.086719
H	-0.5364038384	-2.0634257901	-1.6740428186	 0.109811
H	-1.2227211854	-3.0670008201	-0.3615753734	 0.112489
H	-2.1036635685	-0.4995021058	-0.4444140977	 0.096611
H	-2.0514791888	-0.4327333724	 1.853653986	 0.229799
H	 0.215479839	-0.5857564823	 2.4913057645	 0.10656
H	-0.6974137579	-1.8987734382	 3.2388503542	 0.103366
H	 0.1735794439	-3.5199684123	 1.6439171707	 0.108416
H	 1.5454487743	-2.4951774498	 2.0819983791	 0.108092
133.823	236.7774	282.2992	356.4729	422.7634	443.326	473.4899	569.6775	682.3913	704.714	753.2126	805.3183	829.0204	852.6646	886.0067	903.1837	908.3738	931.5596	950.9473	1012.8578	1050.2234	1078.9711	1093.8687	1095.1856	1117.9116	1176.7774	1194.2723	1234.8891	1265.9839	1284.1258	1318.88	1333.6716	1349.1205	1360.3609	1385.9321	1412.5115	1470.8459	1487.0453	1491.4003	1516.4921	1778.2473	2972.3969	3044.737	3066.8377	3069.6395	3092.7375	3100.6515	3130.3997	3135.6326	3454.9376	3522.806
N=C1OC2CC1NCC2	[NH][C]1O[C@@H]2C[C@H]1NCC2	
InChI=1S/C6H10N2O/c7-6-5-3-4(9-6)1-2-8-5/h4-5,7-8H,1-3H2	InChI=1S/C6H10N2O/c7-6-5-3-4(9-6)1-2-8-5/h4-5,7-8H,1-3H2/t4-,5+/m0/s1
