19
gdb 104541	2.59447	0.99984	0.84427	1.2055	80.13	-0.2433	0.0504	0.2937	1453.4008	0.156072	-422.974568	-422.964109	-422.963165	-423.011392	36.304	
C	 2.1401709974	 0.027947691	 0.9183502061	-0.499261
C	 1.356122362	-1.0701331445	 0.3695565581	 0.056902
C	 0.7195594161	-1.9817107322	-0.0937634603	 0.082501
C	-0.0428195047	-3.1109502031	-0.6256527044	-0.418254
C	-1.444303432	-3.2162650721	-0.0244027762	 0.347905
C	-2.4826219113	-2.2287453149	-0.5315368104	-0.101808
O	-1.9879479981	-0.9230067168	-0.7431592087	-0.415753
C	-1.9143641484	-4.4925979248	 0.5302403904	-0.227336
O	-1.4559778727	-3.4507586169	 1.3920569973	-0.264182
H	 3.2105300583	-0.2055142854	 0.9040978633	 0.149786
H	 1.9948734337	 0.9500874483	 0.344971339	 0.149172
H	 1.8621554066	 0.2344880964	 1.9577061695	 0.150185
H	-0.1285228857	-3.0254462153	-1.7161496603	 0.136463
H	 0.5000369956	-4.040457149	-0.419597289	 0.129468
H	-2.8547533958	-2.5663159332	-1.5069311245	 0.109348
H	-3.3282033294	-2.2448167519	 0.1735743662	 0.096134
H	-1.433412753	-0.6827861713	 0.007894037	 0.290595
H	-2.9829623552	-4.7028987471	 0.5760484516	 0.113993
H	-1.2746200634	-5.3724651373	 0.4720303854	 0.114141
42.8737	56.5459	71.0023	93.0163	207.2471	222.4626	270.7779	314.0213	335.6952	373.1689	381.4245	387.3159	491.5013	518.5426	750.8494	772.1535	872.0576	880.9537	926.8909	982.2228	1025.2395	1053.133	1055.0148	1095.8374	1127.8423	1162.5917	1166.1963	1195.9483	1241.2822	1289.5437	1333.885	1347.5456	1414.8918	1418.0107	1445.5863	1457.2247	1478.9131	1479.6415	1494.7368	1531.1863	2369.891	2986.131	3027.5544	3028.012	3050.8034	3066.9749	3076.4721	3088.3205	3089.0874	3160.7471	3798.8199
CC#CCC1(CO)CO1	CC#CC[C@@]1(CO)CO1	
InChI=1S/C7H10O2/c1-2-3-4-7(5-8)6-9-7/h8H,4-6H2,1H3	InChI=1S/C7H10O2/c1-2-3-4-7(5-8)6-9-7/h8H,4-6H2,1H3/t7-/m1/s1
