19
gdb 102842	2.04834	1.20343	0.83901	5.7631	77.	-0.2613	0.0194	0.2807	1390.9965	0.158011	-419.255356	-419.245065	-419.244121	-419.291942	35.531	
C	 0.3728685974	 1.4843634211	 0.0246370467	-0.389353
C	 0.160604066	-0.02950575	-0.0334430798	-0.17958
C	-1.3193169894	-0.4456324665	 0.0294207804	 0.031293
C	-1.4502913555	-1.976771452	-0.1589992214	-0.366298
C	-2.8302856223	-2.45315122	-0.115445425	 0.270076
N	-3.920999269	-2.8313136005	-0.0725013678	-0.300313
N	-1.9648751858	-0.0214396938	 1.2610645652	-0.274563
C	-2.9510699495	 0.9226895407	 1.2958339607	 0.164943
O	-3.3636930365	 1.5335542947	 0.3354998539	-0.316076
H	 1.4374785874	 1.7274916565	-0.0360191851	 0.118109
H	-0.1383746146	 1.9875798612	-0.8016468869	 0.135999
H	-0.015561246	 1.9026302124	 0.9572880116	 0.125975
H	 0.5884601445	-0.4288555958	-0.9612736733	 0.106217
H	 0.704149677	-0.5170091752	 0.7883239999	 0.093177
H	-1.8736821773	 0.0591252402	-0.7666450745	 0.143325
H	-1.0066823617	-2.2640116086	-1.1182351069	 0.159858
H	-0.8774632735	-2.4997081733	 0.6177377693	 0.145595
H	-1.6967468375	-0.4585795463	 2.1298191197	 0.247868
H	-3.3348054437	 1.0742135553	 2.3232458132	 0.083749
35.6735	63.9037	101.3629	114.676	177.2925	207.6721	235.8734	280.3692	340.8367	393.96	421.5804	441.44	517.716	590.5002	750.3382	793.5912	858.1017	911.5415	948.3088	991.9634	1026.7476	1035.8611	1081.2265	1133.1219	1142.441	1190.8878	1240.9103	1294.2834	1302.28	1354.5959	1373.5675	1388.4869	1417.8036	1430.5171	1461.7307	1480.1247	1497.6284	1506.1136	1528.1459	1808.214	2366.3023	2948.8749	3009.2473	3033.1012	3045.9112	3052.078	3079.2465	3097.3218	3115.9658	3120.3936	3618.78
CCC(CC#N)NC=O	CC[C@@H](CC#N)NC=O	
InChI=1S/C6H10N2O/c1-2-6(3-4-7)8-5-9/h5-6H,2-3H2,1H3,(H,8,9)	InChI=1S/C6H10N2O/c1-2-6(3-4-7)8-5-9/h5-6H,2-3H2,1H3,(H,8,9)/t6-/m0/s1
