15
gdb 19604	3.15359	2.66375	1.87931	4.1415	63.96	-0.2428	0.0021	0.2449	738.3743	0.11917	-362.6151	-362.608624	-362.60768	-362.645523	25.2	
C	 0.1246972271	 1.5768604283	 0.0969101955	-0.419665
C	 0.0800912963	 0.0673388315	-0.0333780108	 0.040058
C	 0.7714439808	-0.6801636123	-1.1801178987	-0.095143
C	 1.1829100106	-1.7299109843	-0.2243341456	-0.026024
C	 2.2656357734	-0.802865601	-0.7666062698	-0.222801
C	 2.3103026848	-0.2217526962	 0.6023715922	 0.43655
O	 3.1045045249	 0.3207934324	 1.3023160271	-0.3207
N	 0.9498223046	-0.7474491442	 0.9349136948	-0.23444
H	 1.1305321099	 1.9767760919	-0.0574278962	 0.13709
H	-0.5420234095	 2.0342858385	-0.6411804977	 0.121188
H	-0.2116780111	 1.8794534523	 1.0934145772	 0.14143
H	-0.9450521475	-0.2977029339	 0.0804039977	 0.094204
H	 0.4912071132	-0.7816002454	-2.2226368672	 0.104576
H	 1.1452404204	-2.8057342749	-0.1559850297	 0.124877
H	 3.0502442122	-1.0002134129	-1.4841543986	 0.118801
141.3562	192.4888	228.5809	319.8414	458.2859	556.0744	638.4272	700.3087	783.9779	797.5095	814.5924	831.6663	848.6266	884.0567	915.9827	933.354	1010.7447	1022.4805	1031.7552	1084.9483	1093.079	1107.1887	1152.619	1179.8042	1263.8371	1279.7125	1348.5155	1390.6009	1414.9558	1489.9681	1492.3213	1920.1185	3041.5949	3062.5745	3110.9915	3122.4093	3178.9313	3216.4829	3248.7296
CC1C2C3C2C(=O)N13	C[C@H]1[C@@H]2[C@H]3[C@@H]2C(=O)N13	
InChI=1S/C6H7NO/c1-2-3-4-5(3)7(2)6(4)8/h2-5H,1H3	InChI=1S/C6H7NO/c1-2-3-4-5(3)7(2)6(4)8/h2-5H,1H3/t2-,3-,4+,5-/m0/s1
