23
gdb 96089	2.75232	1.30676	1.02034	1.0701	86.06	-0.2373	0.0858	0.3231	1269.0167	0.207084	-388.298783	-388.290125	-388.289181	-388.331584	34.816	
C	-0.0133524557	 1.5201152691	 0.0574873837	-0.400992
C	 0.0252633528	 0.0009380722	-0.0117971337	 0.145645
C	 0.7564258942	-0.5297959427	-1.2550274322	-0.277532
C	 0.8812931564	-2.0436588659	-1.1967448931	 0.38371
C	-0.1993710144	-2.8847395287	-1.8382447536	-0.303055
C	 1.1801660916	-2.8120297121	-2.4541831851	-0.335955
C	 1.4712623737	-2.504154428	 0.1256073173	-0.27987
C	 0.6988278477	-1.8657459923	 1.2844871831	-0.070917
O	 0.6688105624	-0.4531907507	 1.1758163488	-0.262795
H	 1.002715913	 1.9266611009	 0.0782370719	 0.121339
H	-0.5350296683	 1.9325293351	-0.8115501855	 0.110468
H	-0.5306080417	 1.8473342492	 0.9633763853	 0.121208
H	-1.0076434069	-0.3917541047	-0.0251358321	 0.060744
H	 0.2243267581	-0.2172990345	-2.1612201745	 0.087732
H	 1.7558331275	-0.0744245152	-1.2893461707	 0.096251
H	-0.4917186669	-3.8093652929	-1.3509904214	 0.107589
H	-1.0130080829	-2.3800001387	-2.349146681	 0.10731
H	 1.2967735509	-2.2553346585	-3.3786854966	 0.107454
H	 1.8178955683	-3.6872868962	-2.3806994983	 0.107648
H	 1.441784538	-3.5965927555	 0.2118397496	 0.088558
H	 2.5236088727	-2.1977023962	 0.1906809866	 0.100534
H	-0.3296832289	-2.2654255186	 1.3093173404	 0.083744
H	 1.1704868885	-2.0878243452	 2.2465025114	 0.101183
121.4411	138.4385	217.885	236.9545	274.0108	330.1518	346.6528	385.6705	452.5597	457.3173	490.9187	589.999	721.0971	783.0892	819.7143	862.6164	877.6057	911.9372	931.244	945.3409	948.3878	983.6455	998.0566	1052.2473	1072.5563	1079.7504	1087.8092	1122.1292	1152.1573	1164.1813	1188.1245	1211.2108	1218.1392	1286.6275	1298.547	1322.1312	1355.4998	1376.3682	1383.8155	1398.5667	1410.9722	1418.6381	1465.6949	1468.5262	1480.1098	1484.6684	1496.2034	1502.5088	1507.2081	2937.7466	2959.7263	3011.2167	3019.3573	3040.6541	3061.998	3066.5684	3079.5661	3113.6241	3120.0897	3121.5192	3126.4863	3198.6529	3213.1633
CC1CC2(CC2)CCO1	C[C@H]1CC2(CC2)CCO1	
InChI=1S/C8H14O/c1-7-6-8(2-3-8)4-5-9-7/h7H,2-6H2,1H3	InChI=1S/C8H14O/c1-7-6-8(2-3-8)4-5-9-7/h7H,2-6H2,1H3/t7-/m0/s1
