19
gdb 63273	2.11888	1.63852	1.26063	3.4296	76.23	-0.2415	-0.0382	0.2033	1097.3328	0.156205	-423.016768	-423.007586	-423.006641	-423.05052	34.47	
C	-0.4239686489	 1.5234637181	 0.0981081936	-0.454504
C	-0.0145583009	 0.055412012	 0.0162378486	 0.202403
C	-1.1880061183	-0.8421400279	-0.3857653799	-0.430374
C	 1.2826654522	-0.2364158441	-0.8212521654	-0.414582
C	 1.8727980613	-0.9873205068	 0.3897299499	 0.345913
O	 2.8263793862	-1.6871517421	 0.5672868503	-0.300338
C	 0.7210764607	-0.5098225499	 1.260284739	 0.315647
C	 0.8014345688	-0.0013868897	 2.6400610617	-0.25225
O	 0.1314920236	-1.2211634257	 2.3299677303	-0.261536
H	 0.4156135366	 2.1578127074	 0.400756406	 0.114028
H	-0.7826398489	 1.8816856534	-0.8730240253	 0.121804
H	-1.2347812337	 1.6678349592	 0.8209406757	 0.121728
H	-1.5950135891	-0.5348749728	-1.3548511731	 0.116238
H	-0.8829189371	-1.8908000312	-0.4629744316	 0.124017
H	-1.9887076606	-0.7876026087	 0.3579774149	 0.128591
H	 1.1544983467	-0.8435202214	-1.7210264593	 0.133482
H	 1.8635244186	 0.6550913009	-1.0782460627	 0.129845
H	 1.7334372163	-0.1068188064	 3.192924032	 0.135188
H	 0.1589153965	 0.826549076	 2.9354741852	 0.1247
54.8574	163.0131	206.1911	215.5979	223.4712	250.9346	298.9289	329.7462	339.8837	445.4296	533.2387	553.0477	593.9294	633.6851	781.909	828.7018	861.8335	919.1234	938.0154	962.3589	986.3968	1013.5688	1026.0199	1088.8029	1129.4527	1129.8912	1161.2582	1179.512	1209.4975	1257.8536	1292.2195	1398.9245	1403.561	1421.0733	1445.2454	1482.083	1486.8179	1502.0684	1506.0386	1520.0157	1891.4766	3025.5157	3033.1594	3057.8356	3085.8884	3092.5631	3098.0965	3102.18	3109.2882	3115.323	3180.3461
CC1(C)CC(=O)C11CO1	CC1(C)CC(=O)[C@]21CO2	
InChI=1S/C7H10O2/c1-6(2)3-5(8)7(6)4-9-7/h3-4H2,1-2H3	InChI=1S/C7H10O2/c1-6(2)3-5(8)7(6)4-9-7/h3-4H2,1-2H3/t7-/m0/s1
