22
gdb 105070	2.53036	1.15073	1.07173	1.299	82.16	-0.2401	0.0735	0.3136	1283.4696	0.193414	-404.301463	-404.291584	-404.29064	-404.336422	37.108	
C	-1.8391716271	 0.2812879176	 1.9676709918	-0.395826
C	-0.9189554439	-0.6065418663	 1.1666079583	 0.018594
N	-0.1156681683	 0.0329656266	 0.11490655	-0.343496
C	 0.5714191242	-0.5740037905	 1.2724136622	-0.140405
C	 1.3520559126	 0.3414826084	 2.1909038596	 0.360448
C	 1.6145716011	 1.7281286211	 1.6261353313	-0.145201
O	 2.4033375622	 2.4642569766	 2.5528072496	-0.426627
C	 1.1645215967	 0.1935479639	 3.6849426837	-0.289299
C	 2.4340499437	-0.2925520014	 3.0327144886	-0.314947
H	-1.3519595091	 1.2217109656	 2.2329298408	 0.132205
H	-2.7421324068	 0.516168878	 1.3937987021	 0.116372
H	-2.1475608035	-0.2154075069	 2.8937577503	 0.114637
H	-1.3405442768	-1.5826216471	 0.9258491903	 0.077088
H	-0.0364911912	-0.5652024444	-0.7019327302	 0.229232
H	 1.0607648276	-1.5300051981	 1.0885566945	 0.079561
H	 2.12861723	 1.6292163005	 0.6575780061	 0.089058
H	 0.6614867065	 2.2370077361	 1.4272675202	 0.099847
H	 2.5227295701	 3.3496304593	 2.1998117645	 0.288765
H	 1.2281353342	 1.0914130526	 4.2877467442	 0.123888
H	 0.4495058242	-0.5455917043	 4.0304826917	 0.101402
H	 2.5836171445	-1.3637975105	 2.9356808487	 0.098065
H	 3.3351684091	 0.2829348835	 3.2047246117	 0.126639
40.8642	109.3906	167.2247	178.7594	212.2854	223.8677	273.7066	300.6302	365.2116	378.5781	417.1175	505.0629	591.8502	699.0496	784.2504	791.5382	837.9199	862.1772	899.5636	939.0394	966.3519	992.6413	1016.927	1019.5561	1060.8549	1073.3784	1080.0116	1086.9529	1102.424	1146.4273	1184.2629	1200.1422	1211.5915	1248.3303	1260.0057	1267.0923	1323.8139	1333.3016	1401.3791	1429.6794	1453.7454	1455.034	1462.0508	1486.1138	1497.6646	1498.6256	1514.8403	2982.0393	3022.554	3037.3865	3094.2887	3096.5499	3106.0405	3127.7207	3134.3003	3135.6128	3219.9884	3233.1807	3511.3794	3846.4694
CC1NC1C1(CO)CC1	C[C@H]1N[C@H]1C1(CO)CC1	
InChI=1S/C7H13NO/c1-5-6(8-5)7(4-9)2-3-7/h5-6,8-9H,2-4H2,1H3	InChI=1S/C7H13NO/c1-5-6(8-5)7(4-9)2-3-7/h5-6,8-9H,2-4H2,1H3/t5-,6-/m1/s1
