19
gdb 30093	3.55951	1.11327	1.03597	3.7663	81.68	-0.2123	0.0312	0.2436	1230.1045	0.161622	-382.101554	-382.093332	-382.092388	-382.134963	31.23	
C	-0.6291392938	 1.3474800705	 0.3063153358	-0.409541
C	-0.1601539223	-0.0819204821	 0.160994253	 0.015055
C	 1.1744515176	-0.3922154937	-0.4606893792	-0.290997
C	 0.9749972604	-0.6408124859	 1.0167597659	-0.173854
C	 1.6842803013	 0.1863189166	 2.0102829909	 0.322126
C	 2.8456287854	 0.9202383232	 1.9769151676	-0.171266
N	 3.0994610831	 1.5141467393	 3.192991923	-0.254998
C	 2.1065462524	 1.1458636556	 3.96714937	 0.009081
N	 1.2230272569	 0.3442063184	 3.3063221228	-0.305908
H	 0.2029225828	 2.0114004232	 0.5570544296	 0.132537
H	-1.0791499869	 1.7070883331	-0.6253551287	 0.118102
H	-1.3817926418	 1.4440468024	 1.0973301389	 0.109285
H	-0.9514984772	-0.7968182971	-0.0497538517	 0.08338
H	 1.2687550517	-1.2520195358	-1.1141700308	 0.112332
H	 1.7974566675	 0.4505415678	-0.7407357394	 0.121449
H	 0.856355771	-1.6849963278	 1.3002705082	 0.091183
H	 3.5177593804	 1.0434044968	 1.1412656925	 0.104415
H	 1.9716410259	 1.4213520071	 5.0027627871	 0.125953
H	 0.3755083158	-0.0510257117	 3.6782952044	 0.261666
48.2606	105.7532	168.8047	223.9631	267.1428	348.8556	412.064	503.0972	532.2488	623.16	684.723	721.952	778.376	807.5286	845.3689	854.1344	882.4169	928.8747	935.3506	1006.3285	1032.3213	1079.4958	1086.7426	1110.5766	1123.7023	1145.0909	1148.9415	1198.1748	1205.3074	1240.2073	1280.695	1348.6408	1392.7665	1416.2519	1424.4137	1428.5611	1488.0343	1495.6897	1503.7407	1505.53	1616.8846	3029.4894	3087.0249	3109.3379	3113.0003	3135.9764	3141.1519	3220.8027	3246.1634	3249.6733	3661.1258
CC1CC1C1=CN=CN1	C[C@H]1C[C@H]1c1cnc[nH]1	
InChI=1S/C7H10N2/c1-5-2-6(5)7-3-8-4-9-7/h3-6H,2H2,1H3,(H,8,9)	InChI=1S/C7H10N2/c1-5-2-6(5)7-3-8-4-9-7/h3-6H,2H2,1H3,(H,8,9)/t5-,6+/m0/s1
