17
gdb 55073	2.30407	1.32778	1.00537	4.1232	70.93	-0.2524	0.0156	0.268	1207.8764	0.134869	-455.152524	-455.143123	-455.142179	-455.18784	33.337	
N	 0.4457432199	 0.5444823138	-0.5908731628	-0.51418
C	 0.0126707421	-0.2647708125	 0.411370129	 0.40022
O	 0.6558097759	-0.4649787693	 1.4257216893	-0.372493
C	-1.34217879	-0.9048187269	 0.2102519815	-0.155959
C	-1.9014025911	-1.3067737274	-1.1386173303	-0.342739
C	-1.4244527231	-2.3607130031	-0.1903126559	 0.117831
O	-0.2631118508	-3.0381957817	-0.5819140171	-0.194212
C	 0.5409147829	-3.4744519779	 0.4279674755	 0.127725
N	 1.4898616462	-4.2569152466	 0.1548148987	-0.444657
H	 1.3392619813	 0.9972902327	-0.4882703684	 0.266502
H	-0.1219394641	 0.75579411	-1.39119726	 0.264402
H	-2.0496097536	-0.5981130519	 0.9747786025	 0.125171
H	-2.9647547851	-1.2027485711	-1.3206134829	 0.126627
H	-1.2715591471	-1.1624385433	-2.0100221018	 0.13405
H	-2.1557230819	-2.988199404	 0.3132348334	 0.109711
H	 0.2769388845	-3.0572184492	 1.4043077741	 0.120325
H	 2.012666864	-4.4682893316	 1.0027048953	 0.231674
37.3288	73.7559	134.2591	151.0094	179.8391	220.9679	269.8651	373.7803	476.3067	488.6832	521.8758	582.5045	654.9414	736.8593	785.5352	823.41	832.1711	868.2633	990.8529	1002.9884	1040.4524	1071.9222	1079.3814	1095.1853	1098.5745	1129.069	1176.8974	1238.4652	1283.6634	1323.7899	1385.471	1405.5837	1426.2526	1477.5213	1611.1062	1746.2154	1782.6935	3087.2063	3134.5603	3139.3168	3160.4915	3228.2448	3514.5106	3609.1721	3749.7704
NC(=O)C1CC1OC=N	NC(=O)[C@H]1C[C@H]1O[CH][NH]	
InChI=1S/C5H8N2O2/c6-2-9-4-1-3(4)5(7)8/h2-4,6H,1H2,(H2,7,8)	InChI=1S/C5H8N2O2/c6-2-9-4-1-3(4)5(7)8/h2-4,6H,1H2,(H2,7,8)/t3-,4+/m0/s1
