19
gdb 83372	2.16786	1.94251	1.56814	2.2996	69.23	-0.2434	0.0525	0.296	951.4717	0.160798	-460.165561	-460.157693	-460.156749	-460.197264	31.774	
O	 0.1887025112	 1.389348058	 0.0808205989	-0.456074
C	 0.0962221239	-0.0149159801	 0.0778175167	 0.108103
C	 0.3594285813	-0.6461769575	 1.4498941738	 0.083287
C	-0.7475859667	-0.037532829	 2.3314102648	-0.217099
C	-1.9485296109	 0.0391382688	 1.3365370749	-0.272293
C	-1.3492146337	-0.5557188392	 0.0404463915	 0.320503
O	-2.0091492233	-0.2337829217	-1.1598201406	-0.506546
C	-1.0549861047	-2.0475251571	 0.2827113546	-0.118047
O	 0.0526022285	-2.0291755777	 1.203585624	-0.282756
H	-0.3111059975	 1.7011809667	-0.6829892351	 0.29157
H	 0.7212174314	-0.464564317	-0.7054293296	 0.074866
H	 1.3719945886	-0.5876102692	 1.8481792845	 0.080937
H	-0.9403181819	-0.6788314754	 3.1938791266	 0.104867
H	-0.4649589167	 0.9548736233	 2.6887071865	 0.115753
H	-2.8223239653	-0.5280491786	 1.673036353	 0.090865
H	-2.2548679016	 1.072551523	 1.1602937647	 0.104326
H	-2.9560848123	-0.3499927679	-1.0326562873	 0.284603
H	-1.9013458372	-2.5890221375	 0.7256484005	 0.090121
H	-0.7657742033	-2.5500976318	-0.6490656624	 0.103011
181.0414	205.8077	238.8204	248.0818	317.5744	369.5852	382.3995	410.0118	444.5739	569.4425	606.9386	611.412	763.8359	782.0553	842.9651	879.2046	921.8999	932.9652	967.4842	1013.0886	1024.9362	1046.4547	1093.0431	1124.6603	1145.9008	1163.7145	1184.7769	1206.05	1228.4707	1247.2385	1276.7774	1298.4883	1315.2206	1329.451	1347.2057	1366.7589	1406.7427	1431.3231	1468.7257	1493.7485	1528.9857	3005.2377	3020.6472	3046.0021	3051.0829	3074.9174	3103.0737	3125.7624	3128.6341	3790.9904	3817.7395
OC1C2CCC1(O)CO2	O[C@H]1[C@H]2CC[C@]1(O)CO2	
InChI=1S/C6H10O3/c7-5-4-1-2-6(5,8)3-9-4/h4-5,7-8H,1-3H2	InChI=1S/C6H10O3/c7-5-4-1-2-6(5,8)3-9-4/h4-5,7-8H,1-3H2/t4-,5+,6+/m1/s1
