18
gdb 50327	3.11851	1.5188	1.47438	2.688	73.72	-0.2305	-0.0247	0.2058	965.0567	0.149437	-401.916596	-401.90949	-401.908546	-401.948395	27.97	
O	-0.579246117	 0.6347600931	-0.5597364986	-0.244539
C	 0.2088015078	 0.9463733097	 0.2964777355	 0.160073
C	 1.3342255077	 1.9527054594	 0.1365676139	-0.118832
C	 1.3822399676	 2.7008194946	-1.219051397	-0.240918
C	 0.934213613	 4.1246142852	-0.8585132042	-0.062407
C	-0.4541739655	 4.0858186509	-0.175639759	-0.168113
N	 0.1614988519	 4.0602729716	 1.2005459468	-0.150191
C	 1.4893692045	 4.3878359646	 0.565625439	-0.049891
C	 1.2804595364	 3.0692406412	 1.1902244134	-0.043896
H	 0.1616590162	 0.4829375421	 1.3086758149	 0.083187
H	 2.2548615028	 1.3787457285	 0.3176254932	 0.1012
H	 2.4014400232	 2.7016324493	-1.6182583904	 0.100729
H	 0.7235712355	 2.230593315	-1.9540898435	 0.12805
H	 1.091075445	 4.8691201767	-1.6381539564	 0.073563
H	-1.0087251128	 5.0220658069	-0.270420114	 0.111892
H	-1.1164094061	 3.2474416001	-0.410951016	 0.12305
H	 2.1366380808	 5.1813485915	 0.9207755475	 0.096076
H	 1.6418491989	 2.8661756796	 2.1926624447	 0.100968
76.0546	144.7413	219.6832	314.4584	389.1819	459.1768	576.9414	647.781	700.3738	748.1585	773.2134	809.3523	843.5497	867.6058	893.8692	923.2916	967.4573	988.2453	1009.3439	1023.032	1044.8816	1054.0813	1101.9179	1113.0988	1170.203	1176.8498	1204.0681	1237.3871	1258.6701	1276.1248	1295.5454	1302.6722	1326.9054	1347.712	1382.8663	1427.8298	1484.7097	1512.1887	1825.4325	2869.9317	3003.9308	3052.9377	3059.1446	3107.7714	3112.0767	3121.5958	3167.4691	3181.6635
O=CC1CC2CN3C2C13	O=C[C@H]1C[C@H]2CN3[C@H]2[C@H]13	
InChI=1S/C7H9NO/c9-3-5-1-4-2-8-6(4)7(5)8/h3-7H,1-2H2	InChI=1S/C7H9NO/c9-3-5-1-4-2-8-6(4)7(5)8/h3-7H,1-2H2/t4-,5+,6+,7-,8?/m0/s1
