15
gdb 22468	3.11177	0.94356	0.77684	3.3806	74.47	-0.2479	-0.0452	0.2027	1405.0579	0.110126	-453.888135	-453.878556	-453.877612	-453.923829	33.386	
O	-0.4767114869	 1.6990566152	-0.2874113705	-0.377951
N	-0.0377825127	 0.5030317163	-0.8275194011	-0.154837
C	-0.70292582	-0.5120691296	-0.3988359026	 0.144276
C	-0.2869722477	-1.8584187162	-0.953133535	-0.25021
N	 0.1936632091	-2.7556338793	 0.0826900388	-0.272922
C	-0.4117148943	-3.9417013923	 0.3720766985	 0.162841
O	-1.3720061034	-4.3968782171	-0.209283302	-0.316069
C	-1.7675924579	-0.4543528253	 0.542758188	 0.37772
C	-2.6752458624	-0.4568114659	 1.3331459571	-0.468175
H	 0.1037976943	 2.3439931232	-0.7077556395	 0.313682
H	-1.1399886782	-2.3630159716	-1.4144749479	 0.163857
H	 0.4796028038	-1.6858708997	-1.7146384063	 0.133158
H	 0.977498435	-2.4662129189	 0.646291497	 0.25343
H	 0.0902170561	-4.4601460245	 1.2123944669	 0.078943
H	-3.4781753148	-0.4513682443	 2.0288962386	 0.212256
40.3791	48.5992	124.0761	158.9793	225.6159	262.6662	281.6451	324.7165	400.6765	456.7939	467.6349	538.5179	627.5157	650.4134	651.7684	731.6935	769.2048	789.5879	963.2441	1026.2805	1033.2095	1063.0808	1204.8547	1237.9731	1285.8101	1366.3119	1408.176	1429.5566	1474.589	1525.2697	1679.5101	1809.4698	2223.2848	2942.7568	3058.9015	3118.6543	3498.8361	3633.4022	3805.8586
ON=C(CNC=O)C#C	ON=C(CNC=O)C#C	
InChI=1S/C5H6N2O2/c1-2-5(7-9)3-6-4-8/h1,4,9H,3H2,(H,6,8)	InChI=1S/C5H6N2O2/c1-2-5(7-9)3-6-4-8/h1,4,9H,3H2,(H,6,8)
