17
gdb 15934	3.49293	1.92691	1.54182	2.9244	68.01	-0.2241	-0.032	0.1921	864.0262	0.142323	-363.823545	-363.816211	-363.815266	-363.855742	27.138	
O	-0.2241471195	 0.0179736031	-0.0936328938	-0.248653
C	-0.0097154684	 1.2032407139	-0.0964736411	 0.100461
C	 1.3575528156	 1.8326837313	-0.0724035363	 0.29384
C	 1.5775834869	 2.9559406415	 0.9738632034	-0.313678
C	 2.0185663811	 3.8588761822	-0.2074129124	-0.160807
N	 1.6469091702	 2.8092754079	-1.2121091304	-0.171627
C	 2.8114150716	 1.9525711195	-1.6173537618	-0.162974
C	 2.5591709422	 0.9481936742	-0.4604666631	-0.319788
H	-0.840364124	 1.9456641025	-0.1309319862	 0.078287
H	 0.6555633026	 3.2849122426	 1.4610015192	 0.114312
H	 2.3196893417	 2.7374924309	 1.7443650044	 0.116185
H	 1.4389587866	 4.7774256057	-0.3348331187	 0.112445
H	 3.0827682515	 4.1205587902	-0.2221451658	 0.103564
H	 2.6688656106	 1.5383046582	-2.6193465241	 0.115036
H	 3.768908217	 2.4833293446	-1.5956154772	 0.104338
H	 3.3467197293	 0.879997169	 0.2932133052	 0.10588
H	 2.2705483051	-0.0591661373	-0.7636625012	 0.133178
67.4421	74.9779	216.7707	272.6382	336.0774	399.6934	479.5099	659.1865	715.3665	754.4361	761.7206	826.7723	894.8114	907.7903	927.1767	950.1963	966.6978	1002.5733	1051.4381	1058.1894	1150.3068	1186.6064	1198.5012	1218.1376	1225.4845	1251.693	1262.5949	1291.5857	1306.9767	1330.8034	1415.8274	1476.2458	1489.6128	1497.1159	1516.9334	1824.6747	2868.8632	3032.3548	3041.6882	3061.224	3074.5391	3082.3375	3089.6684	3119.6311	3135.8262
O=CC12CCN1CC2	O=C[C@]12CCN1CC2	
InChI=1S/C6H9NO/c8-5-6-1-3-7(6)4-2-6/h5H,1-4H2	InChI=1S/C6H9NO/c8-5-6-1-3-7(6)4-2-6/h5H,1-4H2
