15
gdb 35438	2.43601	1.44496	1.0978	4.7217	77.56	-0.2374	0.0051	0.2425	1105.6004	0.11217	-379.596538	-379.588501	-379.587557	-379.629223	30.455	
C	-0.0589770062	-1.2088784051	-0.0458951673	-0.398422
C	-0.0189938525	-0.0058513824	-0.0323283411	 0.179253
C	 0.0207269084	 1.4106271177	 0.0091663569	 0.154674
C	 0.3448621092	 2.3008475755	-1.1829469843	-0.308895
C	 1.1810294845	 2.4277752943	 0.0394612578	-0.067019
N	 0.4790093643	 3.2973722459	 1.0021269991	-0.315628
C	-0.6086158227	 2.2706434769	 1.133231995	-0.205197
C	-1.9655402637	 2.7806261678	 0.9262564054	 0.315081
N	-3.0394447839	 3.170291512	 0.7532320041	-0.323968
H	-0.0984253051	-2.2698246767	-0.0662997427	 0.194456
H	 0.7890093861	 1.7579678062	-2.0095400478	 0.139281
H	-0.3311936078	 3.1064228117	-1.4547729645	 0.142538
H	 2.2491170124	 2.2570204508	 0.0811515121	 0.121822
H	 0.9832838783	 3.3781667091	 1.8785083005	 0.238632
H	-0.5684606913	 1.7335187563	 2.0847958566	 0.133391
93.6957	127.1635	158.6477	217.8505	324.3906	440.3542	450.1364	481.5985	533.466	550.7389	573.8885	643.8274	670.4371	721.4035	813.6269	823.7385	889.4765	937.2418	978.6913	999.1421	1040.03	1058.1745	1090.6145	1101.0297	1182.3404	1200.4927	1269.1827	1339.8711	1375.3755	1404.2534	1480.9304	2233.0226	2359.7112	3075.2707	3127.2157	3202.723	3229.0189	3502.1498	3536.0629
C#CC12CC1NC2C#N	C#C[C@]12C[C@H]1N[C@H]2C#N	
InChI=1S/C7H6N2/c1-2-7-3-5(7)9-6(7)4-8/h1,5-6,9H,3H2	InChI=1S/C7H6N2/c1-2-7-3-5(7)9-6(7)4-8/h1,5-6,9H,3H2/t5-,6+,7+/m1/s1
