21
gdb 40366	3.33202	1.28655	1.15521	0.2965	85.94	-0.199	0.0847	0.2837	1164.7468	0.18321	-349.866316	-349.85849	-349.857546	-349.898623	32.218	
C	-0.1181994737	 1.4412356344	-0.1809254919	-0.278016
C	 1.2739429401	 0.9151030804	 0.066237762	-0.271386
C	 0.0975735536	-0.0351473709	 0.0563975993	-0.09903
C	-0.3503914131	-0.712470107	 1.3021014725	 0.392925
C	-0.3387872654	-2.2106067154	 1.4612861338	-0.365275
C	-1.6441359349	-1.4661439189	 1.5934183075	-0.116625
C	-1.7994486388	-0.6951832818	 2.932245075	-0.048773
C	-0.634981011	-0.8466553487	 3.8721668686	-0.306573
C	-0.4998314175	 0.0415791956	 2.663311768	-0.1233
H	-0.5887027025	 2.0255217795	 0.602133153	 0.113639
H	-0.377667269	 1.7616191797	-1.1841128359	 0.107939
H	 1.9730436998	 0.8816379282	-0.7620567191	 0.109188
H	 1.7327051108	 1.1342988914	 1.024745178	 0.11428
H	 0.0128096464	-0.6634483917	-0.8266636582	 0.076799
H	-0.236518791	-2.7451890711	 0.5205703917	 0.107204
H	 0.1383931597	-2.7228943704	 2.2897583698	 0.107988
H	-2.4771670541	-1.6509413956	 0.9266100239	 0.085105
H	-2.7459385187	-0.2797885078	 3.25331578	 0.086689
H	-0.7463468939	-0.298687649	 4.8037298687	 0.109528
H	-0.088157141	-1.7754199245	 3.9886938487	 0.111547
H	-0.3022788658	 1.1013139138	 2.7630891344	 0.086147
76.0881	143.9733	177.6989	307.401	368.637	421.0883	464.8323	497.1332	588.0885	697.7299	756.5493	774.6637	794.7398	816.6003	834.8099	881.9487	896.1485	907.2786	915.7136	942.2696	972.0188	989.6943	1020.2661	1032.4635	1048.7174	1054.486	1060.3169	1066.5164	1073.921	1094.9809	1110.2268	1130.2511	1180.747	1197.3631	1218.7268	1220.615	1256.0732	1304.0608	1311.8687	1359.2882	1434.4819	1469.9661	1481.1889	1508.8572	1515.6343	3116.6379	3130.3582	3131.263	3133.0825	3137.9514	3180.514	3184.6061	3194.1166	3195.8701	3206.7322	3208.8468	3223.8314
C1CC1C12CC1C1CC21	C1CC1[C@]12C[C@H]1[C@H]1C[C@@H]21	
InChI=1S/C9H12/c1-2-5(1)9-4-8(9)6-3-7(6)9/h5-8H,1-4H2	InChI=1S/C9H12/c1-2-5(1)9-4-8(9)6-3-7(6)9/h5-8H,1-4H2/t6-,7+,8-,9-/m0/s1
