16
gdb 49587	2.19917	1.72351	1.10734	4.0553	70.59	-0.2394	-0.0361	0.2033	1075.1238	0.123056	-437.86796	-437.859726	-437.858782	-437.901926	29.351	
O	-0.9330804641	 0.9552484741	 0.6184733887	-0.235413
C	 0.0776716253	 0.8580470171	-0.0287776335	 0.127084
C	 1.220155439	 1.8607803627	 0.0816615136	-0.076999
C	 1.3597560656	 2.6958479185	 1.3637153742	-0.079814
C	 1.7029278028	 1.8212601499	 2.5434946506	-0.288803
C	 2.7673487773	 2.1300315792	 1.5283818581	-0.020645
N	 2.5766740817	 1.3224481196	 0.3324350961	-0.057524
C	 3.1997585989	 0.2241996839	-0.1527274736	 0.133187
O	 2.7792958743	-0.4650139825	-1.061322387	-0.337103
H	 0.241376442	 0.0496380389	-0.7668144549	 0.128759
H	 1.2157687297	 2.4739252398	-0.8311784177	 0.125403
H	 1.0270927175	 3.7175219391	 1.4681036169	 0.116706
H	 1.7942783244	 2.356250081	 3.4834951341	 0.129148
H	 1.3022538015	 0.8163435984	 2.629154932	 0.133188
H	 3.7085590346	 2.6254617491	 1.729701969	 0.121889
H	 4.1682838296	 0.0454530511	 0.3563441234	 0.080937
45.2218	73.5438	155.5522	185.7116	251.6754	296.8425	403.0459	459.4731	536.9902	658.0327	726.1649	759.2104	805.2591	864.6235	923.0745	949.5173	993.9532	1003.1394	1028.2948	1054.5861	1075.8496	1083.7121	1097.5304	1162.167	1194.4844	1238.3861	1296.5091	1335.7195	1345.1845	1394.2494	1402.559	1447.4269	1480.4386	1780.209	1825.3369	2934.2581	2963.2703	3009.4142	3128.5737	3195.8906	3216.9618	3233.3499
O=CC1C2CC2N1C=O	O=C[C@H]1[C@H]2C[C@H]2N1C=O	
InChI=1S/C6H7NO2/c8-2-6-4-1-5(4)7(6)3-9/h2-6H,1H2	InChI=1S/C6H7NO2/c8-2-6-4-1-5(4)7(6)3-9/h2-6H,1H2/t4-,5+,6-/m0/s1
