19
gdb 39091	3.202	1.69566	1.61335	1.7221	78.87	-0.2391	0.0072	0.2463	926.2089	0.162188	-385.838555	-385.832082	-385.831138	-385.86891	28.043	
C	-0.0702327114	 1.5420576053	 0.1535237169	-0.215429
C	 1.4596363918	 1.7870387732	 0.0618148729	-0.245836
C	 1.9168446849	 0.3147763912	-0.1232417299	 0.443289
C	 3.3005043282	 0.1218675851	-0.7229219856	-0.39955
C	 2.8896364824	 0.3474059641	-2.1991651017	-0.042421
C	 1.5725250189	 0.1932364985	-2.4297965121	-0.172942
C	 0.9754831165	-0.3061594665	-1.1334938669	-0.003823
C	-0.0092621397	 0.0154433136	 0.0390083535	-0.006283
O	 1.1184773626	-0.3302606284	 0.9454222023	-0.374967
H	-0.5050693658	 1.8595787799	 1.1034977321	 0.105786
H	-0.6377503528	 1.9992522702	-0.6621951975	 0.098639
H	 1.7526798116	 2.4385921739	-0.7626358061	 0.104283
H	 1.8798461541	 2.1804290903	 0.9905713562	 0.103606
H	 4.0664999633	 0.8246666706	-0.3810275558	 0.106353
H	 3.6839520313	-0.8973256042	-0.5822714082	 0.123373
H	 3.6281407223	 0.5835607417	-2.9576967323	 0.098908
H	 1.0941179648	 0.2762618601	-3.3982668347	 0.098583
H	 1.0982661184	-1.3960077854	-1.0907749659	 0.100371
H	-0.9004441014	-0.5821455833	 0.2291342528	 0.078058
207.2098	269.9927	309.5351	410.724	445.8902	528.6878	552.8447	645.6435	688.571	744.2888	778.9055	813.952	833.0182	844.5332	892.9148	908.7752	915.431	944.3795	954.7833	962.592	984.3874	1027.475	1087.7294	1101.6745	1117.6191	1139.8593	1152.3372	1201.1883	1223.2399	1234.3896	1251.6081	1260.7164	1291.1195	1311.3563	1329.5469	1365.6332	1379.6699	1475.2114	1479.3203	1497.7005	1603.525	3018.1846	3027.0935	3061.4128	3074.1685	3080.7064	3109.188	3127.6856	3130.3626	3185.2825	3210.1967
C1CC23CC=CC2C1O3	C1C[C@]23CC=C[C@@H]2[C@H]1O3	
InChI=1S/C8H10O/c1-2-6-7-3-5-8(6,4-1)9-7/h1-2,6-7H,3-5H2	InChI=1S/C8H10O/c1-2-6-7-3-5-8(6,4-1)9-7/h1-2,6-7H,3-5H2/t6-,7+,8-/m1/s1
