16
gdb 78635	5.85973	0.96742	0.94679	3.7438	70.37	-0.2494	-0.0357	0.2137	1219.855	0.123163	-437.776286	-437.768636	-437.767692	-437.808852	28.686	
O	 0.1217743257	 1.3124126526	-0.384030168	-0.437928
C	 0.274424739	-0.0061895878	 0.0650204077	 0.11744
C	-0.1467605868	-0.3541169719	 1.5019460263	-0.049306
C	-1.667576868	-0.2580727422	 1.187337661	-0.078182
C	-1.839286168	-1.6660332209	 1.7795628766	-0.054303
C	-2.9496830927	-2.5429549705	 1.2709516385	 0.155114
O	-3.8154672861	-2.9972765812	 1.9761729096	-0.25068
N	-0.4840066298	-1.8085964335	 1.065301531	-0.192537
C	-0.9776407645	-0.8637595641	-0.0741809783	-0.040876
H	 0.9217332673	 1.8034178613	-0.1724419932	 0.292153
H	 1.2058768175	-0.4773293106	-0.275218427	 0.088817
H	 0.345749794	-0.1731208375	 2.4590673978	 0.088759
H	-2.3261536881	 0.6100644522	 1.2535613198	 0.091308
H	-1.766405876	-1.7586499008	 2.8676373852	 0.094469
H	-2.9387491009	-2.7417239969	 0.1758553745	 0.078714
H	-1.4375795024	-1.260446018	-0.9786115514	 0.097039
63.1977	153.9261	179.6263	264.4831	284.3252	360.3002	411.1794	507.0758	597.2217	723.429	803.6282	817.16	844.2093	851.9364	919.0324	923.713	955.8179	1021.2531	1027.592	1069.0635	1097.439	1117.8632	1138.8127	1150.1791	1167.4621	1175.2841	1202.5187	1225.9951	1242.1381	1289.7347	1313.9949	1336.7315	1435.3898	1440.3103	1823.7514	2880.973	3028.0474	3072.8686	3088.8465	3105.0122	3125.7364	3825.1196
OC1C2C3C(C=O)N2C13	O[C@H]1[C@H]2[C@@H]3[C@@H](C=O)N2[C@H]13	
InChI=1S/C6H7NO2/c8-1-2-3-4-6(9)5(3)7(2)4/h1-6,9H	InChI=1S/C6H7NO2/c8-1-2-3-4-6(9)5(3)7(2)4/h1-6,9H/t2-,3-,4+,5-,6-/m1/s1
