23
gdb 114427	3.61297	1.20493	1.08144	0.2285	87.88	-0.2482	0.0859	0.3342	1236.694	0.208476	-351.144073	-351.136077	-351.135132	-351.176412	32.699	
C	-0.0827052712	 1.6129403196	 0.0106509526	-0.381436
C	-0.0857626961	 0.0805139397	-0.0228290897	-0.194979
C	 0.7302403378	-0.5077027042	-1.1772113896	 0.066656
C	 2.2591881792	-0.2140380334	-1.13372402	-0.252879
C	 2.8922647573	-1.4564572322	-1.7590102923	-0.035088
C	 2.6906322445	-2.8036412129	-1.0790983257	-0.05767
C	 1.4729749648	-2.7616764028	-0.1570293118	-0.239352
C	 0.6824440694	-2.0421500327	-1.3047336964	-0.061531
C	 1.8427065448	-2.4029488494	-2.2741320182	-0.091375
H	 0.9301490119	 2.0087873334	 0.1388962605	 0.117934
H	-0.484408735	 2.0289996953	-0.9203358624	 0.111445
H	-0.6937228499	 1.9935055511	 0.8352378663	 0.108825
H	 0.2974036847	-0.3049333561	 0.9308995979	 0.094658
H	-1.1216307501	-0.2756931697	-0.1002973343	 0.088727
H	 0.3343950094	-0.0959823916	-2.1175722526	 0.062948
H	 2.5174404498	 0.6884580344	-1.695786924	 0.094767
H	 2.6039394034	-0.0550639848	-0.1042208168	 0.093989
H	 3.817696552	-1.3597600339	-2.3165220789	 0.077054
H	 3.4974716353	-3.5266076857	-1.0347639274	 0.075539
H	 1.0785284686	-3.7644558464	 0.0267200196	 0.097458
H	 1.5673792357	-2.2427314469	 0.8037585501	 0.086903
H	-0.3106807534	-2.4417391643	-1.5147776588	 0.059581
H	 1.7830237669	-2.8137873867	-3.2732071382	 0.077825
102.2494	138.305	191.1713	249.448	316.194	384.1507	407.9999	472.8398	596.8633	696.5721	707.5597	774.7183	783.9852	801.2223	820.5401	881.6667	911.837	940.0345	951.7359	967.735	980.9742	993.2728	1004.7918	1037.9084	1049.4241	1060.1553	1083.394	1108.0348	1134.8214	1141.5114	1150.8859	1206.2244	1219.1425	1234.3003	1267.5585	1288.4866	1293.1759	1306.497	1314.3636	1330.9689	1364.0727	1390.0096	1406.7396	1413.6469	1486.1824	1489.8856	1501.514	1505.4023	1508.7088	2989.0442	3013.8572	3023.9114	3030.5591	3033.3597	3048.0227	3075.4957	3088.7681	3096.7069	3101.7387	3103.2732	3164.0267	3172.8509	3199.7267
CCC1CC2C3CC1C23	CC[C@H]1C[C@H]2[C@H]3C[C@@H]1[C@@H]23	
InChI=1S/C9H14/c1-2-5-3-7-8-4-6(5)9(7)8/h5-9H,2-4H2,1H3	InChI=1S/C9H14/c1-2-5-3-7-8-4-6(5)9(7)8/h5-9H,2-4H2,1H3/t5-,6-,7-,8+,9-/m0/s1
