17
gdb 62031	4.69766	0.69601	0.62231	2.1212	67.37	-0.2497	-0.0465	0.2031	1693.2087	0.134335	-492.326268	-492.316325	-492.315381	-492.363032	34.841	
N	-0.0033163893	 1.3392803365	-0.1197126559	-0.56591
C	 0.031979999	-0.0170425138	 0.1781523499	 0.459036
O	 0.923330293	-0.5238829695	 0.8351047915	-0.394792
N	-1.0149843045	-0.7317209371	-0.3573314726	-0.341444
C	-1.0500427503	-2.1735275098	-0.282867606	-0.163396
C	-2.4865419748	-2.6450814747	-0.0013368173	 0.040566
O	-3.3602595613	-2.1667090004	-0.9919383753	-0.443962
C	-2.5507222842	-4.155376718	 0.0774668323	 0.133699
O	-3.2598042279	-4.7964598466	-0.6604111403	-0.256549
H	 0.6244001715	 1.8760493397	 0.4592079735	 0.261568
H	-0.905751636	 1.7695918134	-0.2563183903	 0.248376
H	-1.6103681784	-0.3084775989	-1.0511777443	 0.252854
H	-0.7058906779	-2.6334644784	-1.2206038508	 0.111957
H	-0.3651834289	-2.4715203525	 0.5148079505	 0.147721
H	-2.7815182232	-2.2520710994	 0.9872841502	 0.103945
H	-3.7643026299	-2.955523424	-1.3878551427	 0.297238
H	-1.912134197	-4.6397088964	 0.8431920276	 0.109093
20.2924	63.7068	80.4445	115.5909	247.6072	263.3579	292.8328	341.6207	375.5664	422.1654	466.4114	497.3751	533.379	553.4814	659.0146	755.3837	775.1154	843.7718	886.0799	955.2794	1011.7664	1088.3531	1104.5142	1168.1881	1177.0596	1247.4078	1251.8295	1309.9205	1345.3908	1392.139	1400.6902	1436.1363	1491.0498	1541.3468	1629.588	1799.4436	1812.6184	2937.8559	2965.8637	3001.6651	3114.2972	3575.0714	3638.0713	3687.3303	3690.1456
NC(=O)NCC(O)C=O	NC(=O)NC[C@@H](O)C=O	
InChI=1S/C4H8N2O3/c5-4(9)6-1-3(8)2-7/h2-3,8H,1H2,(H3,5,6,9)	InChI=1S/C4H8N2O3/c5-4(9)6-1-3(8)2-7/h2-3,8H,1H2,(H3,5,6,9)/t3-/m1/s1
