24
gdb 116758	3.74715	0.66734	0.66087	2.8186	91.46	-0.2471	0.0217	0.2688	1883.0384	0.213352	-405.554945	-405.543218	-405.542274	-405.592758	41.521	
C	-0.0480838295	 1.4785654376	 0.0829411802	-0.248467
O	 0.0581824641	 0.0654244088	-0.034472688	-0.194021
C	-1.1089943211	-0.6089824345	-0.0219556999	 0.132735
N	-1.1333361958	-1.8567045174	-0.1737261119	-0.213081
C	-2.4228243058	-2.5183122491	-0.1322782025	-0.161508
C	-2.6832301565	-3.3943653079	-1.3829398691	 0.267336
C	-1.6009574762	-4.4822998127	-1.4907406576	-0.395766
C	-4.0652754212	-4.0500115208	-1.2214033382	-0.406144
C	-2.6707976526	-2.5191439196	-2.6472988472	-0.403694
H	 0.972250812	 1.8612781358	 0.1259999279	 0.14637
H	-0.558867845	 1.9165234742	-0.7833693993	 0.127369
H	-0.5780631381	 1.7686758624	 0.9985588072	 0.126298
H	-1.9986401151	 0.0217966455	 0.13877026	 0.070549
H	-2.4391995187	-3.171846342	 0.7509478265	 0.098645
H	-3.2557319936	-1.8006151953	-0.0174275856	 0.069952
H	-1.623612427	-5.1468237457	-0.6194817851	 0.101874
H	-1.7567057518	-5.0975121254	-2.3837863684	 0.099877
H	-0.6056452961	-4.035125939	-1.5451982873	 0.134364
H	-4.8604364437	-3.2986526935	-1.1529068294	 0.104358
H	-4.291669035	-4.6954113173	-2.0768527119	 0.109196
H	-4.109852941	-4.6688721948	-0.3179345071	 0.107019
H	-1.6959736964	-2.0434510243	-2.7856904268	 0.123751
H	-2.8842555859	-3.1208322134	-3.5372224007	 0.106237
H	-3.4289181902	-1.7287135714	-2.5904347556	 0.096752
34.9163	60.9158	72.025	141.8119	171.8104	204.2844	231.4734	247.8793	268.571	286.9493	317.7205	336.8189	385.3739	414.0765	452.2205	486.9038	632.8027	752.0387	908.2736	923.3824	940.2357	949.7903	959.156	991.109	1030.3631	1049.1723	1068.0385	1100.5778	1176.0028	1179.3679	1216.4587	1237.6837	1273.277	1278.5524	1314.5116	1371.5165	1393.5643	1397.3602	1409.447	1432.4246	1477.2202	1482.194	1484.9521	1487.1887	1489.024	1494.2728	1501.0865	1504.2765	1505.7567	1519.9099	1774.9255	2930.6763	2981.1763	3014.0664	3017.9241	3020.1064	3023.397	3031.1927	3075.4024	3084.1501	3087.9937	3088.6275	3094.9894	3112.3658	3124.6405	3144.3649
COC=NCC(C)(C)C	COC=NCC(C)(C)C	
InChI=1S/C7H15NO/c1-7(2,3)5-8-6-9-4/h6H,5H2,1-4H3	InChI=1S/C7H15NO/c1-7(2,3)5-8-6-9-4/h6H,5H2,1-4H3
