20
gdb 86571	2.79215	1.18701	0.90544	5.7847	75.38	-0.2488	0.0238	0.2726	1303.0423	0.171639	-440.313038	-440.303832	-440.302888	-440.347043	34.697	
C	-0.200439113	 1.5694427508	-0.0975105761	-0.40266
C	-0.0064063303	 0.0579336658	-0.1630240247	-0.026671
C	 1.2596238644	-0.3925001708	-0.9631001826	-0.257086
C	 2.0236868796	-0.4989045657	 0.3759717931	-0.119623
C	 0.6637848185	-0.5795855332	 1.1080176488	 0.018373
N	 0.6630029558	-0.0353031613	 2.4535926251	-0.536291
H	 0.7844921699	 0.9731770136	 2.4451597885	 0.236929
H	-0.2018405706	-0.233051	 2.9465249677	 0.240576
H	 2.5550242051	-1.2279089232	 2.5039187891	 0.307808
C	 3.0005343785	-1.608476578	 0.6797667163	 0.394662
O	 3.580476256	-2.2780803932	-0.1300109608	-0.329245
O	 3.1675751746	-1.8056837878	 2.0119520758	-0.382697
H	 0.7252473383	 2.0943980281	 0.1670402331	 0.112852
H	-0.52425613	 1.95836092	-1.0680065676	 0.126785
H	-0.9625035168	 1.843164468	 0.6407244811	 0.111899
H	-0.9434813996	-0.4189643184	-0.4647803226	 0.070995
H	 1.1404176718	-1.37089984	-1.4332197929	 0.123587
H	 1.6518567615	 0.308593431	-1.7020655847	 0.107138
H	 2.5084433345	 0.4534591028	 0.6241801811	 0.101335
H	 0.3531586519	-1.6273151485	 1.1808578322	 0.101336
86.8154	100.9595	146.6985	217.7116	223.209	253.4195	302.6662	359.4599	389.9702	460.8537	542.6948	575.4726	668.3847	728.0624	743.532	795.2357	810.0188	875.67	902.3708	919.7524	993.0033	1017.19	1052.3483	1075.1428	1082.8851	1157.3346	1173.1213	1184.188	1212.0323	1227.1123	1264.434	1274.9665	1286.0043	1350.4704	1371.2191	1394.6975	1413.2226	1433.2003	1495.4203	1497.1824	1502.405	1656.2154	1870.4548	3024.0719	3034.5054	3051.5264	3060.6301	3078.3672	3088.8852	3100.5383	3131.5876	3496.1195	3578.9529	3608.6383
CC1CC(C1[NH3+])C([O-])=O	C[C@H]1C[C@@H]([C@H]1N)C(=O)O	
InChI=1S/C6H11NO2/c1-3-2-4(5(3)7)6(8)9/h3-5H,2,7H2,1H3,(H,8,9)	InChI=1S/C6H11NO2/c1-3-2-4(5(3)7)6(8)9/h3-5H,2,7H2,1H3,(H,8,9)/t3-,4-,5-/m0/s1
