18
gdb 44501	4.29655	1.38299	1.20259	3.6802	76.11	-0.2371	0.0292	0.2663	1035.5036	0.15113	-401.951052	-401.944334	-401.94339	-401.982181	27.75	
O	 0.0085480874	-0.0864993644	 0.0958016381	-0.379166
C	-0.0183557402	 1.126610496	 0.0295074634	 0.400393
C	-1.3063713559	 1.9450884495	-0.0199554029	-0.379947
C	-1.0782701401	 3.4501432358	-0.101291656	 0.008562
C	 0.0293995946	 3.9820062486	-1.0739238583	-0.079313
C	 0.0949643339	 5.2579848012	-0.1956200684	-0.231513
C	 0.0223164694	 4.0852061882	 0.8158899284	-0.079305
C	 1.0546519066	 3.3435820921	-0.087476107	 0.07607
N	 1.1037672546	 1.9042231037	-0.0086772265	-0.33913
H	-1.8871108068	 1.589101083	-0.8787377285	 0.133423
H	-1.8935960557	 1.6844949136	 0.8681618719	 0.133424
H	-2.0213946561	 4.0047896594	-0.1351127403	 0.069308
H	 0.039103498	 3.9159762144	-2.1632062892	 0.075692
H	 1.0269783088	 5.8295108647	-0.2233369463	 0.09191
H	-0.7780882513	 5.9128503574	-0.2346536008	 0.099297
H	 0.0238532718	 4.1381862536	 1.905927059	 0.075692
H	 2.0695072652	 3.7461289211	-0.105649483	 0.078972
H	 1.9894378958	 1.4234892321	 0.0207867863	 0.245631
80.6551	256.9527	373.0416	386.418	448.8588	470.8938	471.6745	614.4129	625.7283	771.8782	772.0185	784.9516	822.1094	848.7256	887.6186	903.7322	967.0518	998.0651	1015.0922	1020.3085	1076.8232	1079.607	1101.7467	1107.1216	1156.3514	1164.8066	1199.0854	1214.4805	1245.0487	1258.7948	1266.5052	1287.4273	1318.7979	1398.8767	1412.9993	1454.5549	1474.0031	1518.0155	1805.7588	3041.8072	3053.7837	3057.8149	3077.6681	3088.8066	3098.5329	3106.6635	3121.9214	3630.5435
O=C1CC2C3CC2C3N1	O=C1C[C@@H]2[C@H]3C[C@@H]2[C@H]3N1	
InChI=1S/C7H9NO/c9-6-2-3-4-1-5(3)7(4)8-6/h3-5,7H,1-2H2,(H,8,9)	InChI=1S/C7H9NO/c9-6-2-3-4-1-5(3)7(4)8-6/h3-5,7H,1-2H2,(H,8,9)/t3-,4-,5+,7+
