17
gdb 69683	3.26001	1.28944	1.17989	1.9442	78.4	-0.2082	0.0375	0.2457	1090.1575	0.134177	-384.568088	-384.560125	-384.559181	-384.600133	32.199	
O	 0.0537089657	 1.4741565072	 0.0401407747	-0.450439
C	 0.0721864769	 0.094336869	 0.0700212559	 0.403286
C	-0.8379863811	-0.6517681493	 0.9771256848	-0.341706
C	 0.660993335	-0.8985387021	 1.0668733325	-0.159862
C	 1.2542785815	-1.7136910875	-0.1144719794	-0.085186
C	 0.2920765799	-2.2127396396	-1.1817766886	-0.188625
C	-0.9864509337	-2.8585564423	-1.0462024175	 0.287783
C	-2.0187199249	-3.4773115451	-1.0256380026	-0.417955
C	 0.6613683275	-0.7376726339	-1.1103417256	-0.18611
H	 0.9524882869	 1.7878520292	-0.1133864691	 0.284428
H	-1.1937952757	-0.0281861477	 1.792837798	 0.117502
H	-1.5423200337	-1.3988704021	 0.6395955125	 0.141876
H	 1.2076629698	-0.7303667522	 1.985359117	 0.093369
H	 2.2654166303	-2.1013596652	-0.0843286042	 0.094164
H	 0.8646828526	-2.6766116989	-1.9865357621	 0.121851
H	-2.9422086044	-3.9990737027	-0.9786349203	 0.19371
H	 1.1423734373	-0.256006167	-1.954386586	 0.091912
99.2138	167.5092	262.1088	301.209	336.8162	367.3524	409.4029	441.1715	588.6425	600.6879	615.9413	636.9676	649.0211	695.3605	725.4689	808.2306	842.3127	890.6569	918.297	936.5459	947.559	975.1929	1012.5156	1026.8272	1068.2095	1086.1786	1098.1322	1179.1649	1187.6423	1247.3258	1271.308	1295.2543	1334.673	1398.3632	1435.0173	1504.1245	2226.1384	3094.0895	3138.4993	3169.3136	3181.8961	3200.7663	3241.1297	3503.0791	3781.7774
OC12CC1C1C(C#C)C21	O[C@]12C[C@H]1[C@H]1[C@@H](C#C)[C@@H]21	
InChI=1S/C8H8O/c1-2-4-6-5-3-8(5,9)7(4)6/h1,4-7,9H,3H2	InChI=1S/C8H8O/c1-2-4-6-5-3-8(5,9)7(4)6/h1,4-7,9H,3H2/t4-,5+,6-,7-,8-/m1/s1
