19
gdb 100376	2.10252	1.18533	1.04345	4.2335	78.7	-0.2721	0.0037	0.2758	1283.6106	0.154538	-423.015629	-423.005112	-423.004168	-423.051081	37.703	
C	-0.0339108539	 1.5600017702	-0.102473756	-0.396488
C	-0.0378819624	 0.0334502099	-0.0093313019	-0.200362
C	 0.7325725299	-0.5398782124	 1.2040137912	 0.140499
C	 0.7225465691	-2.0791466138	 1.2085389611	-0.42191
O	 2.1094500774	-0.0379318044	 1.2325382103	-0.227026
C	 2.9572197321	-0.3484027723	 0.2361102846	 0.17557
O	 4.0884787333	 0.0395975751	 0.2218330342	-0.278817
C	 0.1449367795	-0.0524441058	 2.4549233789	 0.36193
C	-0.3768579476	 0.3133906161	 3.4725042113	-0.463407
H	 0.9817698698	 1.9532007885	-0.1964136098	 0.138334
H	-0.6056748738	 1.8861858033	-0.975730863	 0.117764
H	-0.484901311	 2.0071658515	 0.7873971563	 0.13705
H	-1.0660456094	-0.3378205203	 0.0640196597	 0.11796
H	 0.3814865437	-0.4049372045	-0.9222448293	 0.102388
H	 1.1018264358	-2.4829197371	 0.2662626103	 0.12275
H	 1.3353779412	-2.4544747723	 2.0309664655	 0.146729
H	-0.3002093107	-2.438207482	 1.3458437524	 0.139862
H	 2.5196739829	-0.9824300075	-0.5540456003	 0.080813
H	-0.825408816	 0.6456098177	 4.3765246244	 0.20636
70.4466	111.8292	129.3159	133.5122	180.084	218.7456	242.7677	262.7219	263.4138	363.58	427.7364	435.0061	475.6511	593.5806	604.855	638.6894	679.7256	747.9547	806.5924	911.4171	927.7591	1003.2651	1042.1721	1044.8155	1066.7268	1141.9731	1167.2096	1180.0147	1244.3654	1318.2587	1363.9883	1405.1069	1416.1059	1430.6099	1477.6987	1489.6505	1494.4632	1496.6629	1507.7872	1853.7232	2244.2416	2985.7548	3038.6039	3050.2443	3053.5838	3075.7115	3120.4701	3127.3037	3129.4872	3139.9965	3499.1255
CCC(C)(OC=O)C#C	CC[C@@](C)(OC=O)C#C	
InChI=1S/C7H10O2/c1-4-7(3,5-2)9-6-8/h1,6H,5H2,2-3H3	InChI=1S/C7H10O2/c1-4-7(3,5-2)9-6-8/h1,6H,5H2,2-3H3/t7-/m0/s1
