20
gdb 118313	2.5597	0.79061	0.64809	1.8787	86.87	-0.2222	-0.0276	0.1947	1803.2217	0.167333	-403.122207	-403.11092	-403.109976	-403.161109	37.802	
C	-0.0538845866	 1.5573719717	 0.0958196995	-0.392118
C	-0.1110036655	 0.0367089145	-0.0071862767	-0.107713
N	 0.7986615126	-0.4364026296	-1.0552952834	-0.272866
C	 0.7817172161	-1.8764117766	-1.2460893601	-0.246864
C	-0.4881992752	-2.4151503098	-1.9453302563	 0.159508
O	-1.3239514034	-1.7029290321	-2.4340144552	-0.245424
C	 1.9110323119	-2.3554004249	-2.0486797752	 0.002551
C	 2.7852566896	-2.7667557831	-2.7677954412	 0.156974
C	 3.8676031463	-3.2482573853	-3.6131401547	-0.501154
H	 0.9705304916	 1.8941798472	 0.2784773749	 0.126519
H	-0.4056457978	 2.0261243358	-0.8301876237	 0.118601
H	-0.6918688883	 1.9139322579	 0.9098485422	 0.11504
H	 0.2194090566	-0.4089574407	 0.9406085524	 0.098911
H	-1.1530019368	-0.2834070249	-0.1668008732	 0.09775
H	 0.5478485537	 0.0019592969	-1.9375588611	 0.223838
H	 0.8244304325	-2.3553441639	-0.2553436974	 0.117313
H	-0.5549045249	-3.5245274559	-1.9953543736	 0.090016
H	 4.2451848564	-4.2147108131	-3.2619592556	 0.151433
H	 3.5383841638	-3.3752873509	-4.6501158202	 0.151942
H	 4.7068519573	-2.5443240433	-3.6139885013	 0.155743
19.0543	59.9921	66.6187	84.3513	105.4863	174.9186	213.5171	253.5138	266.772	297.1488	338.3841	391.5342	452.0456	519.1762	670.034	762.8259	792.9447	818.9431	869.1733	938.9427	1010.6057	1050.7902	1053.4868	1055.241	1133.6003	1140.5349	1172.6424	1205.4751	1258.5705	1290.6226	1327.1523	1391.146	1404.5285	1413.9555	1419.3154	1476.1857	1477.7714	1484.2558	1498.812	1507.466	1519.4432	1831.6912	2365.6425	2888.8518	2976.2403	2992.5258	3028.6711	3029.8617	3036.3144	3091.7166	3093.0711	3102.6125	3119.9288	3506.788
CCNC(C=O)C#CC	CCN[C@@H](C=O)C#CC	
InChI=1S/C7H11NO/c1-3-5-7(6-9)8-4-2/h6-8H,4H2,1-2H3	InChI=1S/C7H11NO/c1-3-5-7(6-9)8-4-2/h6-8H,4H2,1-2H3/t7-/m1/s1
