21
gdb 64314	2.56896	1.52389	1.21882	1.023	87.81	-0.2164	-0.024	0.1925	1130.3589	0.182343	-387.098837	-387.090045	-387.0891	-387.131883	34.819	
C	-0.0506472831	 1.5148987989	-0.0337330933	-0.407128
C	-0.0563242029	-0.0194889631	 0.0236233283	 0.300573
C	-1.5024851394	-0.5395836046	 0.11130971	-0.428295
O	 0.5769361393	-0.3977669593	-1.2097854233	-0.281808
C	 0.4561307859	-1.7178509696	-1.6830092911	-0.145014
C	 1.1181455629	-2.7904867303	-0.8721516751	-0.07992
C	 1.5448837665	-2.7248500744	 0.3968863861	-0.073196
C	 1.4196528019	-1.6285790474	 1.3510138764	-0.089896
C	 0.7366727428	-0.4827141113	 1.2270497221	-0.079655
H	 0.9733051792	 1.8807205564	-0.1472426643	 0.127565
H	-0.6369014054	 1.8591909049	-0.889581894	 0.116679
H	-0.4764003208	 1.9411755811	 0.879238194	 0.109583
H	-2.0639700044	-0.2448238647	-0.7822879082	 0.118157
H	-1.5358566195	-1.6269986141	 0.2128386855	 0.129064
H	-1.9997972927	-0.1128891062	 0.9870558974	 0.118019
H	-0.5977767063	-1.9932253927	-1.8655888476	 0.099883
H	 0.9271332443	-1.6941739073	-2.6749324444	 0.118546
H	 1.2711897413	-3.7208488267	-1.4170993045	 0.089974
H	 2.0376895061	-3.6099933956	 0.7933082949	 0.085479
H	 1.9277218637	-1.7967130953	 2.2982121412	 0.086681
H	 0.7365888705	 0.2041519613	 2.07049333	 0.084709
55.2748	217.6468	232.5023	253.294	287.4362	310.9104	312.0133	398.8903	402.8016	436.7825	466.0154	560.8786	672.9751	697.1351	735.5746	799.0829	862.0337	869.925	897.9802	930.6622	949.4974	986.9807	1002.2924	1008.9272	1014.4576	1038.3604	1145.0682	1180.7693	1204.2729	1232.1166	1258.8349	1279.589	1303.4992	1388.385	1399.3279	1406.5524	1425.3171	1457.3661	1470.9505	1478.8237	1485.7882	1495.6497	1511.2969	1682.6204	1716.4764	2946.5558	3030.6743	3033.8604	3044.9329	3107.4192	3121.1521	3122.7249	3125.6575	3128.9328	3137.3448	3152.5689	3164.4244
CC1(C)OCC=CC=C1	CC1(C)OCC=CC=C1	
InChI=1S/C8H12O/c1-8(2)6-4-3-5-7-9-8/h3-6H,7H2,1-2H3	InChI=1S/C8H12O/c1-8(2)6-4-3-5-7-9-8/h3-6H,7H2,1-2H3
