19
gdb 72862	3.10632	1.20048	1.02937	0.4496	81.84	-0.2437	0.0435	0.2872	1210.1791	0.158148	-385.830755	-385.822174	-385.82123	-385.864036	33.715	
O	 0.5651652574	 1.2264013532	-0.8279844982	-0.478125
C	 0.1822579167	 0.0487946733	-0.1860756418	 0.438008
C	 0.4805231367	-1.2027117398	-1.0500612109	-0.263821
C	-1.0181598519	-1.6297736859	-0.9709238061	-0.228554
C	-1.3029916433	-0.4675348297	 0.0049619321	-0.111538
C	-0.947940773	-0.7973097108	 1.5000963738	-0.167059
C	 0.4486734653	-0.0988167758	 1.3261878957	-0.318151
C	-1.8193337089	-0.2288319631	 2.5072570254	 0.289178
C	-2.5413292201	 0.2720332484	 3.329231876	-0.437347
H	 0.3124369398	 1.9725749633	-0.2734768512	 0.277847
H	 0.8148456843	-0.9298280269	-2.0523855963	 0.117127
H	 1.2028246608	-1.900174258	-0.6173030712	 0.097691
H	-1.5349764912	-1.5137519529	-1.9263461166	 0.106866
H	-1.2233678571	-2.6342660347	-0.5901320797	 0.09816
H	-2.190448182	 0.1470842855	-0.1428372353	 0.077952
H	-0.8540857085	-1.8763186402	 1.6614867374	 0.10053
H	 1.3313839882	-0.6651962504	 1.6359278392	 0.10517
H	 0.4599986136	 0.8732314409	 1.8287049709	 0.103371
H	-3.1809384569	 0.6993894737	 4.0609098669	 0.192695
49.4905	148.968	169.927	264.3361	333.7012	341.369	387.4292	401.1484	461.3903	518.0915	604.4454	616.9727	625.1261	654.9625	737.5393	780.41	874.1987	888.2988	920.5233	945.8994	951.7902	986.4172	1042.9678	1054.0827	1099.6513	1110.4617	1126.5213	1147.9106	1210.6893	1221.3732	1234.5783	1248.1388	1267.3964	1281.6376	1321.398	1356.8026	1385.985	1468.3906	1478.4403	1492.3689	2230.9449	3045.8633	3047.5437	3055.0407	3064.1625	3102.5253	3105.4923	3118.9178	3129.0572	3504.97	3803.2679
OC12CCC1C(C2)C#C	O[C@]12CC[C@H]1[C@@H](C2)C#C	
InChI=1S/C8H10O/c1-2-6-5-8(9)4-3-7(6)8/h1,6-7,9H,3-5H2	InChI=1S/C8H10O/c1-2-6-5-8(9)4-3-7(6)8/h1,6-7,9H,3-5H2/t6-,7+,8+/m1/s1
