18
gdb 50759	3.4107	1.18139	0.91536	2.6258	78.63	-0.2234	-0.0087	0.2147	1241.1539	0.149533	-439.106809	-439.098784	-439.09784	-439.139781	30.077	
O	-0.0721439983	 0.0124269064	 0.9266656664	-0.322102
C	-0.0215728568	 1.1900637841	 0.6572132266	 0.151035
N	 0.9821817034	 1.8026055691	-0.0677398554	-0.092261
C	 0.9627283692	 3.2518640279	-0.2203670584	-0.168476
C	 1.318714697	 3.7544397561	-1.6185531941	-0.086275
O	 2.7100212057	 3.7375484036	-1.8398745533	-0.235479
C	 3.2293352758	 2.4938229747	-2.2640078162	-0.149487
C	 3.0313743673	 1.308349331	-1.3579656065	-0.135711
C	 2.0677866485	 1.0173257486	-0.4794673474	 0.024104
H	-0.7980667506	 1.9142093966	 0.9675541226	 0.08178
H	-0.0418833346	 3.5949196435	 0.0474551849	 0.114659
H	 1.6761252503	 3.7117540792	 0.4764928429	 0.127892
H	 0.7780931346	 3.1844823118	-2.3905128197	 0.101229
H	 1.0113071335	 4.8031933109	-1.6908879244	 0.116404
H	 2.818741197	 2.2435657177	-3.2612443558	 0.104443
H	 4.3017979772	 2.6647555621	-2.4047222812	 0.121624
H	 3.7654596906	 0.5212358359	-1.5112514182	 0.102703
H	 2.05059365	 0.0481234208	 0.0046330472	 0.143918
66.2183	131.2716	194.1748	277.3368	295.4404	337.6007	381.3232	417.6231	475.2766	544.267	637.6284	742.5207	775.2241	851.1205	876.0157	923.0875	989.1138	995.0334	1020.6786	1032.8827	1040.5069	1104.0396	1163.8362	1217.4004	1243.0791	1272.5388	1330.733	1351.6781	1372.0774	1383.3384	1403.4083	1421.0134	1444.7655	1448.4324	1480.1421	1487.6059	1493.2019	1738.2677	1801.1629	2919.7459	2954.3675	2988.6047	3019.1123	3066.5506	3074.4191	3082.5096	3159.0429	3211.8905
O=CN1CCOCC=C1	O=CN1CCOCC=C1	
InChI=1S/C6H9NO2/c8-6-7-2-1-4-9-5-3-7/h1-2,6H,3-5H2	InChI=1S/C6H9NO2/c8-6-7-2-1-4-9-5-3-7/h1-2,6H,3-5H2
