19
gdb 67712	2.20172	1.95955	1.69052	1.2198	73.09	-0.2277	0.0735	0.3012	934.7618	0.161691	-423.019513	-423.0123	-423.011356	-423.050736	29.663	
O	-0.0533904328	 1.3687749691	-0.0621839013	-0.47153
C	 0.0266284237	-0.0165556147	-0.0205411272	 0.338891
C	-1.2004490176	-0.8905053972	 0.0060540057	-0.115201
C	-1.0665971573	-2.0208834828	-1.0108887529	-0.230918
C	 0.2322464233	-1.6903235068	-1.790716831	-0.208328
C	 1.0769995414	-0.8259248689	-0.8287277291	-0.12128
C	 1.7510914813	-1.6496588316	 0.2819619371	-0.080112
O	 0.7243881839	-1.9294697628	 1.2459719099	-0.258874
C	-0.2105247407	-0.8828178042	 1.1754870177	 0.000893
H	 0.6523473369	 1.7303735768	 0.4854442389	 0.281376
H	-2.1671137792	-0.441032334	 0.2063639078	 0.090576
H	-0.9875958861	-2.9878459866	-0.5040289914	 0.114355
H	-1.9360191191	-2.0657803982	-1.671847717	 0.099033
H	 0.7639170583	-2.5827453384	-2.1362096137	 0.092989
H	-0.0143321539	-1.0929724022	-2.6749759195	 0.103745
H	 1.7864536636	-0.1782269919	-1.3482297873	 0.075176
H	 2.1594075976	-2.6064976405	-0.0564826404	 0.106903
H	 2.5604382673	-1.0725750722	 0.7566545729	 0.085438
H	-0.5318110904	-0.4950217428	 2.1368434208	 0.096869
149.0895	227.7529	251.8808	302.7741	327.6974	394.9037	519.8717	556.3131	576.1482	681.2184	735.197	753.1353	805.4772	847.5217	884.1413	921.7611	940.5132	954.578	970.156	994.6581	1012.4319	1059.5522	1074.5581	1089.4621	1129.7231	1156.5786	1187.3365	1204.8722	1233.2779	1245.1837	1273.0319	1300.7349	1303.4404	1321.8992	1336.164	1353.0394	1380.5247	1460.0251	1483.3776	1499.4989	1514.7939	2976.7788	3041.2222	3053.9287	3079.6735	3084.9431	3092.6283	3101.8245	3162.1419	3175.4163	3791.4793
OC12C3CCC1COC23	O[C@@]12[C@H]3CC[C@@H]1CO[C@@H]23	
InChI=1S/C7H10O2/c8-7-4-1-2-5(7)6(7)9-3-4/h4-6,8H,1-3H2	InChI=1S/C7H10O2/c8-7-4-1-2-5(7)6(7)9-3-4/h4-6,8H,1-3H2/t4-,5+,6-,7-/m1/s1
