20
gdb 92262	2.10347	1.97494	1.20728	1.5818	80.14	-0.2147	0.0175	0.2323	1079.8342	0.172072	-403.134906	-403.126657	-403.125713	-403.167618	32.23	
C	 0.4575131649	 1.2933468822	-0.1315472343	-0.498873
C	 0.0840386944	-0.156254775	-0.1011061276	 0.307195
C	-0.2751822813	-0.9464805593	-1.117283089	-0.188178
C	-0.6691704474	-2.3279376786	-0.6434079093	-0.222044
N	-0.3398244046	-2.3357636636	 0.7932932508	-0.096106
C	 1.0389515997	-2.7828296799	 1.1236604076	-0.216107
C	 1.338157568	-1.4278791846	 1.8129909432	 0.128976
O	 2.5304655795	-0.7603958919	 1.4859809368	-0.427284
C	-0.0071232651	-0.9314394711	 1.1926098227	-0.122618
H	 1.4329301152	 1.4570200608	 0.3397304014	 0.137639
H	 0.4883655012	 1.6842479895	-1.1520821297	 0.122472
H	-0.2650313514	 1.891024028	 0.4390984068	 0.130698
H	-0.34090737	-0.6370364808	-2.155343775	 0.091579
H	-1.7407899534	-2.5151339847	-0.8095506682	 0.107129
H	-0.131699764	-3.1363037662	-1.1581347124	 0.103388
H	 1.0819691021	-3.6827923014	 1.7455061024	 0.105794
H	 1.6773214147	-2.9391988135	 0.2407461458	 0.085035
H	 1.3103789831	-1.4737814378	 2.9035235468	 0.097464
H	 2.5998707928	-0.7445870385	 0.5244417917	 0.281351
H	-0.7076339084	-0.4676583736	 1.9008294496	 0.072489
75.6215	160.1259	187.8715	237.1425	291.7137	341.5294	401.0213	432.5844	452.6642	541.0583	620.8715	710.9886	716.9115	802.8638	830.8443	847.5068	935.6818	963.6156	982.6838	1003.0142	1028.6727	1036.2971	1063.3725	1070.6167	1092.2413	1146.0998	1175.5034	1198.9168	1220.0373	1231.8115	1253.3887	1276.5704	1304.6628	1315.3838	1335.3886	1351.4053	1412.4982	1440.4598	1477.9161	1494.8063	1497.6459	1508.0914	1708.2616	2984.7247	2989.8271	3003.1718	3022.4767	3023.2326	3064.1133	3075.6615	3097.0015	3114.8462	3186.7006	3792.8977
CC1=CCN2CC(O)C12	CC1=CCN2C[C@@H](O)[C@@H]12	
InChI=1S/C7H11NO/c1-5-2-3-8-4-6(9)7(5)8/h2,6-7,9H,3-4H2,1H3	InChI=1S/C7H11NO/c1-5-2-3-8-4-6(9)7(5)8/h2,6-7,9H,3-4H2,1H3/t6-,7-/m1/s1
