20
gdb 76866	2.34999	1.81623	1.39908	1.5854	77.23	-0.2408	0.0186	0.2593	1021.0088	0.172281	-403.158862	-403.150605	-403.149661	-403.191967	31.651	
C	-0.6050360334	 1.3960909276	 0.1591692255	-0.403253
C	-0.0807930702	-0.0303001403	 0.035882915	-0.032214
C	 0.6855355905	-0.4512857538	-1.2805675975	 0.003318
C	 0.7601780234	 0.5150783249	-2.4545115845	-0.401871
C	 1.9772601465	-0.6895677654	-0.4361965251	-0.03013
N	 2.987768108	 0.3793361962	-0.4929753392	-0.261441
C	 2.8411594932	 1.0536001007	 0.5709905314	 0.109153
O	 1.878842457	 0.719500836	 1.4692683572	-0.22221
C	 1.1817891743	-0.3967891762	 0.8683585396	 0.070994
H	 0.1742682982	 2.1420361311	-0.0136834839	 0.125112
H	-1.4061332845	 1.5740298179	-0.5652036337	 0.116107
H	-1.0121841274	 1.5726811668	 1.1598019591	 0.119848
H	-0.8980832061	-0.7246284089	 0.2560238281	 0.074389
H	 0.3004763022	-1.4125410888	-1.6368300819	 0.072464
H	 1.2016721359	 1.4725564631	-2.1681417872	 0.125625
H	 1.3805626784	 0.0991615563	-3.2548035017	 0.120286
H	-0.2365778258	 0.7034626234	-2.8674082062	 0.109195
H	 2.4598343281	-1.6613292943	-0.5684402804	 0.078469
H	 3.4405928488	 1.9102828866	 0.8600260647	 0.140051
H	 1.0626813327	-1.1646790629	 1.6334778909	 0.086108
42.4729	198.1619	204.9853	220.7837	234.6615	250.1797	405.9025	467.7979	494.8627	604.3955	641.7486	743.7911	805.4295	839.6024	868.2485	876.5731	906.6865	960.9326	965.9937	972.6959	1006.5353	1033.5723	1099.6569	1102.6268	1115.5771	1165.715	1172.4129	1196.654	1250.9937	1276.891	1295.3326	1310.8235	1323.4896	1345.2978	1354.3681	1372.468	1410.1045	1416.4727	1484.6171	1488.6976	1499.5088	1504.2506	1687.5666	3034.4339	3038.3904	3041.5679	3053.0902	3070.8348	3099.0825	3104.5099	3105.0324	3118.4485	3126.0258	3211.8367
CC1C(C)C2N=COC12	C[C@H]1[C@@H](C)[C@H]2N=CO[C@@H]12	
InChI=1S/C7H11NO/c1-4-5(2)7-6(4)8-3-9-7/h3-7H,1-2H3	InChI=1S/C7H11NO/c1-4-5(2)7-6(4)8-3-9-7/h3-7H,1-2H3/t4-,5+,6-,7+/m1/s1
