19
gdb 58225	2.29149	1.32854	0.96743	1.3763	68.98	-0.2633	-0.0241	0.2392	1242.6705	0.155748	-497.304717	-497.29449	-497.293546	-497.339848	37.303	
C	 0.0631392537	 1.4185663407	 0.2071236012	-0.395818
C	-0.4249316746	 0.0003195997	 0.4776765528	 0.079355
O	-1.0512078377	-0.1006441189	 1.7612720538	-0.426905
C	-1.5004858852	-0.4565938833	-0.5203998964	 0.122965
O	-1.0855872276	-0.2779121108	-1.8585207966	-0.43656
C	-1.8809552498	-1.9414509462	-0.3133302102	 0.012345
O	-0.8103198085	-2.748047034	-0.7459820913	-0.45278
C	-2.2606239398	-2.3130831696	 1.1079304845	 0.154869
O	-1.692939637	-3.2169906443	 1.6792094744	-0.292659
H	 0.8471064218	 1.6997052139	 0.917910608	 0.10485
H	 0.4639759263	 1.4955788262	-0.8059709507	 0.134913
H	-0.7630606829	 2.1291942354	 0.3107765611	 0.123129
H	 0.4147557824	-0.7064827249	 0.4094208231	 0.078217
H	-0.3711925995	-0.192293453	 2.4348562773	 0.293634
H	-2.3900914601	 0.1684083515	-0.3738081113	 0.093274
H	-0.4934330192	-1.0168986056	-2.0532727892	 0.297704
H	-2.7701422373	-2.1307128194	-0.9397347434	 0.101944
H	-0.6183276738	-3.3363746758	 0.0043224069	 0.297902
H	-3.1115453111	-1.7729352417	 1.5567318958	 0.109623
62.3748	102.6612	115.6768	209.7727	221.572	232.8966	259.7106	305.0244	327.356	370.7488	380.3827	452.4136	484.0669	517.2284	528.0404	669.6304	745.6454	835.6337	861.4808	917.1171	992.3226	1001.5196	1069.8221	1102.0325	1120.8172	1126.5661	1165.9776	1200.9522	1259.5474	1280.6871	1321.3537	1342.4539	1381.9776	1399.3284	1400.5003	1420.7571	1428.521	1436.361	1487.5804	1499.2836	1791.6339	2960.2269	2992.1142	3002.547	3038.9306	3046.476	3106.7571	3134.9235	3651.9673	3763.6023	3838.4961
CC(O)C(O)C(O)C=O	C[C@@H](O)[C@@H](O)[C@@H](O)C=O	
InChI=1S/C5H10O4/c1-3(7)5(9)4(8)2-6/h2-5,7-9H,1H3	InChI=1S/C5H10O4/c1-3(7)5(9)4(8)2-6/h2-5,7-9H,1H3/t3-,4+,5-/m1/s1
