19
gdb 19306	7.73956	0.83504	0.79783	2.0761	72.95	-0.2338	0.0921	0.3259	1436.134	0.16496	-365.003101	-364.994793	-364.993849	-365.036889	29.895	
C	-0.0010941948	 1.4876336767	-0.2923461589	-0.223076
C	 0.0194459587	 0.0473846459	 0.2274014401	-0.132733
N	-1.3129014384	-0.5414184953	 0.1725237944	-0.059655
C	-1.6633457924	-1.2359288265	-1.0626457242	-0.22126
C	-1.3762183119	-1.997164833	 0.1845996757	-0.220343
C	 1.3630335272	 2.1282550353	-0.2383755987	 0.098189
C	 1.5607561624	 3.5386053853	 0.1159467264	-0.179556
O	 1.8430016963	 2.5031970643	 1.0583568251	-0.236776
H	-0.3617792805	 1.4987903223	-1.3293703481	 0.100924
H	-0.7087468221	 2.0724510374	 0.3039635229	 0.114993
H	 0.7570677121	-0.5467489993	-0.3458190649	 0.073881
H	 0.3496752722	 0.0476270135	 1.2721077335	 0.122304
H	-2.6840062155	-1.1048970741	-1.4103352175	 0.116536
H	-0.9145250572	-1.2819829384	-1.8528976257	 0.105715
H	-0.4374844082	-2.5483677914	 0.2226278438	 0.108975
H	-2.1832530957	-2.4321440873	 0.7672381098	 0.117229
H	 2.1265485777	 1.6578641005	-0.8624263322	 0.0884
H	 2.4284649978	 4.0785673298	-0.2611228164	 0.112668
H	 0.6949118826	 4.1578836944	 0.3476935747	 0.113584
61.5895	69.5013	122.9098	138.4516	268.4509	324.2176	407.8638	465.4836	471.0223	762.1309	778.053	815.8759	839.4425	878.7016	905.752	949.0985	1009.423	1018.3076	1045.6479	1068.92	1105.2624	1112.7324	1117.6852	1141.3611	1160.9303	1168.7907	1177.3677	1194.5147	1251.5859	1288.8456	1304.7025	1318.298	1326.4617	1402.1671	1448.592	1473.7104	1488.2109	1500.1285	1522.1999	1531.886	2916.9146	3027.2164	3062.9739	3076.5175	3081.7013	3088.8173	3094.4653	3094.5744	3166.4161	3174.3947	3188.6216
C(CN1CC1)C1CO1	C(CN1CC1)[C@H]1CO1	
InChI=1S/C6H11NO/c1(6-5-8-6)2-7-3-4-7/h6H,1-5H2	InChI=1S/C6H11NO/c1(6-5-8-6)2-7-3-4-7/h6H,1-5H2/t6-/m0/s1
