18
gdb 20233	4.01041	2.57927	2.20695	0.0631	72.8	-0.2344	0.0938	0.3282	707.8651	0.157769	-310.631478	-310.625972	-310.625028	-310.660707	23.915	
C	-0.045407183	 1.5908606794	 0.0053464754	-0.225963
C	 1.4430081665	 2.0687367225	-0.0067149951	-0.225959
C	 2.2540463765	 0.7654397781	 0.0022581329	-0.010342
C	 2.1289246817	-0.0772495853	 1.2798754359	-0.068049
C	 0.6648232961	-0.5473536403	 1.2916135067	-0.068041
C	 1.7145324795	-1.3204915886	 0.5303997485	-0.103333
C	 1.3950065868	-0.3552452543	-0.6666487664	-0.078788
C	 0.0539951103	 0.0590686638	 0.019915266	-0.010346
H	-0.5982034329	 1.9658987438	 0.8726852711	 0.095115
H	-0.5770645785	 1.9415300419	-0.8860030901	 0.091604
H	 1.6580590379	 2.6589628388	-0.9042259721	 0.091605
H	 1.6868339292	 2.6997203309	 0.8540519124	 0.095112
H	 3.2796555204	 0.8455259014	-0.3637952616	 0.058465
H	 2.7023816416	-0.0013667828	 2.1953526186	 0.077353
H	 0.1677456719	-0.8151956467	 2.2156724419	 0.077353
H	 2.0444473235	-2.3462636917	 0.598660524	 0.085059
H	 1.4575312873	-0.5765693014	-1.7301140862	 0.06069
H	-0.831760505	-0.4745053392	-0.3308213319	 0.058465
172.2276	345.5821	448.0258	648.7614	656.6287	755.2855	756.392	773.4766	797.5007	822.5111	840.9499	875.1472	889.8985	891.4421	934.617	970.6609	989.5198	1007.7008	1025.3995	1034.276	1041.3243	1068.3602	1071.028	1136.891	1146.1048	1171.4864	1183.3854	1219.4909	1240.0533	1264.0225	1266.9279	1283.2444	1321.1159	1342.219	1355.291	1366.9765	1482.6777	1503.3181	3032.661	3044.8417	3066.9224	3087.7747	3089.6508	3092.4112	3134.3599	3184.3044	3192.2827	3227.3206
C1CC2C3C4C3C2C14	C1C[C@H]2[C@H]3[C@@H]4[C@H]3[C@H]2[C@H]14	
InChI=1S/C8H10/c1-2-4-5-3(1)6-7(4)8(5)6/h3-8H,1-2H2	InChI=1S/C8H10/c1-2-4-5-3(1)6-7(4)8(5)6/h3-8H,1-2H2/t3-,4+,5-,6+,7-,8+
