18
gdb 90464	2.72481	1.40275	1.21902	4.2508	75.75	-0.2487	0.0279	0.2766	1095.8739	0.148617	-401.959254	-401.95114	-401.950196	-401.992119	30.756	
C	-0.647242308	 1.1302493245	 0.038391723	-0.409919
C	 0.2979452449	-0.0588977914	 0.0125999874	 0.132127
C	 1.1765755894	-0.1737665165	-1.2628397044	-0.271289
C	 2.5620163748	-0.5129219004	-0.7421186148	-0.102645
C	 2.485072455	-0.3269778718	 0.7353408312	 0.106755
O	 1.216174342	 0.0581408708	 1.1277341801	-0.264476
C	 2.7145485932	-1.7385511941	 0.1713212659	-0.248125
C	 1.7210708166	-2.7672368969	 0.2404703727	 0.317093
N	 0.9190807565	-3.6006696562	 0.2916739151	-0.35751
H	-0.0955806198	 2.0661960703	-0.0942269937	 0.120241
H	-1.3880289141	 1.043169209	-0.7627630837	 0.121749
H	-1.1793267204	 1.1741404191	 0.9924050856	 0.134087
H	-0.2707389046	-0.9841209226	 0.1489921434	 0.117432
H	 0.7751467808	-0.9192713018	-1.9543650412	 0.12895
H	 1.2246339928	 0.7844577548	-1.7907131781	 0.112629
H	 3.430259067	-0.2273365435	-1.3233441562	 0.108588
H	 3.2684597364	 0.1067659976	 1.3459868773	 0.119352
H	 3.7310409175	-2.1068590009	 0.2707732205	 0.134962
90.6938	120.8835	132.7701	242.7862	291.6095	352.9083	375.3703	459.6926	563.7524	634.2019	667.4185	733.0447	739.5813	787.6313	816.0511	896.4546	917.6969	942.1983	985.8036	1010.4302	1035.0861	1068.5973	1105.5437	1126.834	1148.5971	1154.4048	1204.1777	1226.8942	1296.9455	1313.7095	1350.5651	1377.323	1394.4731	1412.2518	1414.5184	1485.2767	1492.3395	1500.4159	2345.4294	3040.1573	3051.1155	3058.5099	3101.2443	3115.0011	3123.1831	3159.7863	3180.9498	3191.1551
CC1CC2C(O1)C2C#N	C[C@H]1C[C@H]2[C@@H](O1)[C@H]2C#N	
InChI=1S/C7H9NO/c1-4-2-5-6(3-8)7(5)9-4/h4-7H,2H2,1H3	InChI=1S/C7H9NO/c1-4-2-5-6(3-8)7(5)9-4/h4-7H,2H2,1H3/t4-,5+,6-,7+/m0/s1
