21
gdb 13899	2.73028	1.63734	1.24042	1.4865	75.13	-0.2153	0.073	0.2883	1079.0571	0.186108	-366.229833	-366.219841	-366.218897	-366.264384	36.05	
C	 0.3577973792	 0.5058901226	-1.4820827537	-0.400998
C	 0.003334792	 0.2220849726	-0.0207131254	 0.121798
O	 0.0200569125	 1.4200950523	 0.7595425789	-0.43574
C	-1.3423602417	-0.4695824746	 0.0912214647	-0.032084
C	-1.5158322701	-1.9579555434	 0.1564741408	-0.003137
C	-0.3639197935	-2.941083836	 0.1037978735	-0.418143
N	-1.8180725816	-1.113724062	 1.3133424136	-0.109909
C	-0.9825288171	-1.1387948686	 2.5067162059	-0.310323
H	 1.2948423089	 1.0659118001	-1.5394630845	 0.123895
H	 0.4663484958	-0.4233841477	-2.0507034339	 0.118819
H	-0.4272669825	 1.1023770624	-1.9628506285	 0.108116
H	 0.7926019895	-0.3910937256	 0.4208808518	 0.083801
H	-0.7174589779	 1.9679120685	 0.4673783602	 0.2766
H	-2.1268518562	 0.0991008457	-0.4183007497	 0.071679
H	-2.4183641523	-2.3578254388	-0.307682276	 0.085342
H	 0.5667161037	-2.5526094891	 0.5206296582	 0.124013
H	-0.6173704354	-3.8547589165	 0.6528725296	 0.124497
H	-0.1675485876	-3.2281344858	-0.9349813847	 0.12288
H	 0.0756213317	-1.3874002462	 2.3470167683	 0.098993
H	-1.0202167062	-0.1525709483	 2.9761744226	 0.134596
H	-1.3969465311	-1.8728687016	 3.2053544785	 0.115305
61.8917	107.6454	145.3525	164.6876	197.6242	231.0104	265.5988	269.3436	290.1939	365.2419	432.2932	478.8756	534.2681	570.3479	744.488	778.7827	839.0522	908.6329	983.5194	1003.8087	1044.1253	1071.381	1096.1053	1107.3614	1139.5926	1155.245	1171.0814	1187.0172	1205.0269	1260.7245	1327.665	1353.2723	1393.6271	1400.6873	1412.5472	1419.6373	1439.1134	1459.3345	1481.0508	1488.6992	1493.7978	1496.2306	1504.5108	1508.4261	3002.5649	3026.813	3036.9559	3042.8802	3070.2758	3079.8252	3086.6498	3091.1991	3101.3256	3116.5034	3120.3696	3133.0656	3794.4424
CC(O)C1C(C)N1C	C[C@@H](O)[C@H]1[C@@H](C)N1C	
InChI=1S/C6H13NO/c1-4-6(5(2)8)7(4)3/h4-6,8H,1-3H3	InChI=1S/C6H13NO/c1-4-6(5(2)8)7(4)3/h4-6,8H,1-3H3/t4-,5-,6-,7?/m1/s1
