18
gdb 42895	2.74153	1.64468	1.29049	2.1169	76.42	-0.2391	-0.0216	0.2175	1025.6852	0.148154	-401.910378	-401.902718	-401.901774	-401.942623	29.678	
O	 0.0005180332	 0.0253950638	-0.1230181976	-0.32125
C	-0.0353250098	 1.2131522211	 0.034258827	 0.378252
C	-1.1122439879	 2.2540030659	-0.0274796959	-0.171927
C	-0.8868221342	 3.2445028588	 1.0668306077	-0.241918
N	-0.0454061692	 3.3538614824	-0.118259715	-0.161719
C	 1.0345394025	 2.3200282161	 0.0690122276	 0.227081
C	 2.1221497701	 2.4238096206	 1.1630438769	-0.288139
C	 3.1346303571	 1.8316763859	 0.1438211736	-0.214304
C	 2.1480602772	 2.194449942	-0.9985331887	-0.285661
H	-2.0112553839	 2.2418406181	-0.6327070054	 0.12364
H	-1.6274916569	 4.0336424625	 1.1568078537	 0.135205
H	-0.4476805981	 2.9230492012	 2.0081103436	 0.12825
H	 2.332421894	 3.4739702338	 1.3884211504	 0.11705
H	 1.959353823	 1.88176551	 2.0971153961	 0.108609
H	 4.128139116	 2.2817112134	 0.109814792	 0.104918
H	 3.2369300752	 0.750621205	 0.259281184	 0.124474
H	 1.9908850927	 1.4622088309	-1.7927208655	 0.118011
H	 2.3553598689	 3.1733567483	-1.4383318946	 0.119429
97.9779	130.3107	183.3114	244.4921	276.33	413.2343	495.7289	536.0245	653.5143	687.5491	712.3585	783.735	791.2846	811.1632	887.0571	906.4852	935.545	936.9554	961.6118	1030.7136	1047.8724	1068.3368	1087.3347	1117.9382	1148.3576	1176.5487	1192.7111	1212.2428	1216.5362	1249.2003	1276.2638	1277.4879	1288.0955	1300.6314	1465.7534	1479.5703	1499.4025	1502.8344	1881.6708	3054.6676	3068.3582	3075.9183	3107.9964	3111.3081	3122.8242	3137.3027	3188.2356	3201.3829
O=C1C2CN2C11CCC1	O=C1[C@H]2CN2C21CCC2	
InChI=1S/C7H9NO/c9-6-5-4-8(5)7(6)2-1-3-7/h5H,1-4H2	InChI=1S/C7H9NO/c9-6-5-4-8(5)7(6)2-1-3-7/h5H,1-4H2/t5-,8?/m1/s1
