25
gdb 121939	3.87521	0.66371	0.60148	0.9103	90.91	-0.2483	0.0922	0.3406	1972.2803	0.226862	-389.479479	-389.468389	-389.467445	-389.516637	39.901	
C	-0.0840456347	 1.470284065	 0.060977569	-0.384793
C	-0.0759722486	-0.047030643	 0.14361428	-0.025834
O	-1.3990994604	-0.5148277833	-0.0065352766	-0.247359
C	-1.5079290033	-1.9213689288	 0.0479074178	-0.047364
C	-2.9704907606	-2.3217901627	-0.157296622	-0.014273
C	-3.4935423317	-1.8469529708	-1.5195247219	-0.39096
C	-3.1327285357	-3.8210788531	 0.0136836161	 0.040854
C	-3.2448478084	-4.4374727517	 1.3859434182	-0.27449
C	-4.4455809071	-4.4019365276	 0.4720498398	-0.27756
H	 0.9300528845	 1.8649514474	 0.175032706	 0.112877
H	-0.4785884099	 1.7995366671	-0.9045881478	 0.125275
H	-0.7127240221	 1.8938649683	 0.8494240463	 0.125447
H	 0.5705431948	-0.4736053834	-0.6427168075	 0.083008
H	 0.3383552384	-0.3791826215	 1.1112629216	 0.082693
H	-0.8771346775	-2.384360965	-0.7329358771	 0.076464
H	-1.1461639297	-2.297131745	 1.0195565688	 0.084069
H	-3.5505969159	-1.822388175	 0.6313260484	 0.074269
H	-4.5574412745	-2.0768076497	-1.6314064416	 0.109795
H	-3.3516999308	-0.7699345799	-1.6329661654	 0.127793
H	-2.9568548552	-2.3459318915	-2.3358502613	 0.104688
H	-2.5925935178	-4.4105204573	-0.7251695869	 0.076809
H	-2.7632275227	-5.3916076102	 1.5696038322	 0.108692
H	-3.2434098525	-3.76944969	 2.241483232	 0.110208
H	-5.2452719275	-3.7100347037	 0.7170857349	 0.110537
H	-4.7854995611	-5.3315363246	 0.0290558268	 0.109156
47.9294	66.9712	97.0374	103.8486	146.1117	193.6517	228.609	246.8674	282.7596	294.8089	343.9513	439.7483	485.1366	512.8606	766.8067	816.9837	820.3107	827.9712	894.2186	903.0489	927.5068	939.3535	970.9002	1003.9402	1042.4647	1056.2322	1075.4576	1120.2337	1139.5559	1153.0295	1160.5983	1174.1218	1193.537	1199.565	1213.867	1226.6202	1266.2968	1294.9961	1297.0471	1355.5967	1385.0414	1398.0793	1407.3062	1421.0718	1449.2775	1469.472	1483.5226	1492.4956	1499.2747	1502.6423	1506.1859	1512.221	1536.4169	2934.6742	2951.7736	2971.8861	2976.5035	3014.8216	3030.2715	3044.1139	3095.5985	3118.404	3120.1705	3120.2891	3126.0987	3128.3903	3131.4734	3203.847	3219.0453
CCOCC(C)C1CC1	CCOC[C@@H](C)C1CC1	
InChI=1S/C8H16O/c1-3-9-6-7(2)8-4-5-8/h7-8H,3-6H2,1-2H3	InChI=1S/C8H16O/c1-3-9-6-7(2)8-4-5-8/h7-8H,3-6H2,1-2H3/t7-/m1/s1
