20
gdb 92152	3.04896	1.481	1.44092	0.8725	78.04	-0.2257	0.0864	0.3121	1040.7025	0.17158	-403.111249	-403.103198	-403.102254	-403.143337	31.813	
C	-0.2876860528	 1.5740271634	 0.0675365616	-0.403357
C	 0.0191106342	 0.0827504116	-0.0521864419	 0.116244
O	 0.7173213266	-0.2312416907	-1.274290445	-0.28398
C	 2.0012856323	-0.7171049191	-0.9167825636	 0.01863
C	 2.8079940917	 0.3465750277	-0.1455179236	-0.180295
N	 2.3369772328	-0.1986866968	 1.1767039238	-0.203429
C	 0.8787550176	-0.5285223733	 1.0450761231	-0.109771
C	 1.8616969567	-1.4450367483	 0.4511574066	 0.340825
C	 2.2143476801	-2.8460330686	 0.8348863791	-0.523841
H	 0.6171697562	 2.1732350194	 0.1887921781	 0.126878
H	-0.8159815014	 1.9190362377	-0.8256584264	 0.126967
H	-0.9318348974	 1.7519811062	 0.935450822	 0.115628
H	-0.9372193275	-0.4611546541	-0.0756019356	 0.081847
H	 2.4432473742	-1.2168393262	-1.7788792978	 0.082868
H	 3.8897118952	 0.1940992273	-0.2009392785	 0.108203
H	 2.5769084698	 1.3949874676	-0.353694507	 0.102754
H	 0.4204106774	-0.7480015714	 2.0036767153	 0.097682
H	 1.5450199655	-3.5645159155	 0.3480694167	 0.127577
H	 3.241399693	-3.0952100563	 0.5464812151	 0.125133
H	 2.1287667356	-2.9780601306	 1.9175256582	 0.133436
149.9839	183.3062	197.3028	210.6127	239.9576	315.8138	409.7881	452.5965	529.7263	595.1767	654.4542	674.6426	786.9293	806.1467	845.1698	864.4413	919.0669	927.03	956.0704	991.0538	1027.1127	1042.6012	1089.2467	1107.5925	1120.2995	1123.4017	1139.9055	1180.3864	1194.7576	1246.6166	1281.9334	1304.1427	1322.9689	1360.5385	1382.192	1405.7684	1408.689	1457.6891	1483.6362	1485.7926	1493.0636	1495.7419	1505.8083	2986.4817	3028.706	3042.2702	3050.9457	3089.8657	3103.4351	3109.4456	3111.2628	3117.8262	3133.3877	3172.2197
CC1OC2CN3C1C23C	C[C@H]1O[C@H]2CN3[C@@H]1[C@@]23C	
InChI=1S/C7H11NO/c1-4-6-7(2)5(9-4)3-8(6)7/h4-6H,3H2,1-2H3	InChI=1S/C7H11NO/c1-4-6-7(2)5(9-4)3-8(6)7/h4-6H,3H2,1-2H3/t4-,5+,6+,7-,8?/m1/s1
