18
gdb 20847	3.0179	1.85573	1.26223	1.9648	73.89	-0.2274	0.0311	0.2585	1000.5652	0.154876	-344.021898	-344.013492	-344.012548	-344.055382	30.292	
C	 0.0257244689	 1.5634794413	 0.0546977907	-0.372233
C	-0.0602321682	 0.0342051789	-0.09062668	-0.281759
C	 0.7270069667	-0.4959025495	-1.2522036213	 0.273425
N	 0.120004368	-0.7796931533	-2.4041974014	-0.290925
N	 1.1086768656	-1.199577411	-3.2159463829	-0.1913
C	 2.3227738275	-1.1971448372	-2.6136106518	-0.112923
C	 2.1271955886	-0.7420972677	-1.326229188	 0.1512
C	 3.1569555569	-0.5602768855	-0.2532632938	-0.515068
H	 1.0587707445	 1.8939562899	 0.2041916902	 0.115746
H	-0.3550133807	 2.0570139036	-0.8444038115	 0.126381
H	-0.5636514986	 1.9084062215	 0.910371336	 0.10923
H	 0.2906257727	-0.43794797	 0.8354922537	 0.097857
H	-1.1054092648	-0.2619426933	-0.2227142573	 0.11647
H	 0.8831008303	-1.4872057894	-4.1522192799	 0.270209
H	 3.2154812765	-1.5164428415	-3.1293633464	 0.126118
H	 3.3159337466	 0.496366622	-0.0071884922	 0.129262
H	 2.8647552255	-1.0627287384	 0.6761009357	 0.127772
H	 4.1227881339	-0.9725553004	-0.5592175698	 0.120539
38.6982	108.9484	157.102	195.3607	256.4308	266.2969	401.104	411.2826	476.6998	622.6067	664.2637	693.2417	751.7261	783.8909	789.439	947.9161	973.1176	1006.4932	1059.2938	1062.5083	1081.7088	1091.0267	1168.0936	1228.9382	1280.8598	1321.8626	1352.0735	1402.6188	1407.1352	1422.6341	1470.876	1479.5049	1485.9353	1492.7149	1496.9669	1503.1525	1520.075	1612.2426	3024.3941	3029.2858	3034.8734	3071.8533	3079.9532	3103.8832	3104.9524	3113.9612	3252.2775	3682.2813
CCC1=NNC=C1C	CCc1n[nH]cc1C	
InChI=1S/C6H10N2/c1-3-6-5(2)4-7-8-6/h4H,3H2,1-2H3,(H,7,8)	InChI=1S/C6H10N2/c1-3-6-5(2)4-7-8-6/h4H,3H2,1-2H3,(H,7,8)
