19
gdb 126928	3.36739	1.03703	0.80596	5.7709	79.7	-0.2101	0.0201	0.2303	1427.2695	0.159973	-415.384638	-415.37528	-415.374335	-415.419508	33.207	
C	 0.0149072226	 1.5511460916	-0.0002991479	-0.401787
C	-0.0341854809	 0.0293284225	-0.0694923979	-0.114089
N	 0.7394706352	-0.4592439135	-1.2090866834	-0.412932
C	 0.8104650409	-1.8304729012	-1.3834409735	 0.400658
C	 0.4126119607	-2.9062764947	-0.6113393318	-0.155402
N	 0.8068570608	-4.0517767108	-1.2345822747	-0.188889
N	 1.4133626256	-3.7616628314	-2.3414695987	-0.163989
N	 1.4334820792	-2.3989715702	-2.4465442223	-0.028363
C	 2.0701374568	-1.7532699767	-3.5689454145	-0.345897
H	 1.0467957856	 1.904685167	 0.0790184544	 0.133511
H	-0.4337376724	 2.0031665426	-0.892672205	 0.117727
H	-0.5442021475	 1.9112832149	 0.8673124864	 0.129123
H	 0.4073745696	-0.4022502568	 0.8357294474	 0.126514
H	-1.0797656667	-0.3166901996	-0.1092277046	 0.104732
H	 0.534223824	 0.0479280408	-2.0613788643	 0.235237
H	-0.1147825366	-2.9186291277	 0.3273906165	 0.11143
H	 1.336692237	-1.2738904033	-4.2280841566	 0.134151
H	 2.7834271977	-0.9998524172	-3.2207159292	 0.146609
H	 2.5965678286	-2.5252286963	-4.1302419801	 0.171654
68.7716	78.1241	125.7099	135.2563	200.3237	254.1381	276.6726	313.5775	344.0034	480.0595	575.6752	672.4446	692.6046	722.3045	786.5104	809.9711	828.0667	928.8882	982.4186	1015.0714	1078.4984	1136.2191	1148.2995	1152.7234	1165.1691	1230.84	1265.8905	1295.1588	1317.021	1371.366	1381.51	1413.9825	1436.0656	1462.9486	1486.2331	1493.0441	1499.1201	1508.8866	1524.9236	1536.8794	1620.3548	2973.3919	3028.7455	3035.4731	3058.8389	3092.0597	3105.0716	3126.1361	3159.376	3277.8058	3547.3339
CCNC1=CN=NN1C	CCNc1cnnn1C	
InChI=1S/C5H10N4/c1-3-6-5-4-7-8-9(5)2/h4,6H,3H2,1-2H3	InChI=1S/C5H10N4/c1-3-6-5-4-7-8-9(5)2/h4,6H,3H2,1-2H3
