19
gdb 39514	2.9992	1.91699	1.53457	0.5385	84.3	-0.2142	0.0079	0.2221	924.7743	0.162685	-348.735392	-348.728836	-348.727892	-348.765822	28.172	
C	-0.0579454912	 1.4772372147	 0.167257986	-0.268095
C	 1.4000130784	 1.8875094638	 0.1159991802	-0.134341
C	 2.17390746	 0.9207835287	-0.3969645728	 0.166387
C	 3.5076642258	 0.5189670893	 0.1068713149	-0.161963
C	 3.3949688471	-0.3925747444	 1.0834184346	-0.038413
C	 2.0113137852	-0.8464346799	 1.5435999057	-0.295166
C	 1.0122123291	-1.0094934305	 0.3699057801	-0.022659
C	 0.0028673468	 0.002504993	-0.2276113915	-0.06664
C	 1.3367979805	-0.2416280095	-0.8740539306	-0.123439
H	-0.4511243328	 1.6425114154	 1.1796176289	 0.106902
H	-0.7183511397	 2.0354953146	-0.5124412227	 0.103739
H	 1.7784723736	 2.7381430984	 0.673523962	 0.088729
H	 4.4565747186	 0.8952679663	-0.2598581692	 0.095644
H	 4.2668172078	-0.8136445563	 1.5768532417	 0.089741
H	 2.0914226201	-1.797667321	 2.0791035036	 0.098749
H	 1.6297760005	-0.125071227	 2.2786572498	 0.118883
H	 0.672293768	-2.032615563	 0.2295137068	 0.084471
H	-0.8956150454	-0.4521905109	-0.6314965466	 0.078481
H	 1.5167946775	-0.7065138415	-1.8376166809	 0.078992
184.0318	232.6499	314.8362	433.4198	448.2182	532.8609	562.012	622.4551	677.3417	730.7491	746.4418	800.161	837.4358	851.618	872.6052	889.0666	921.8788	956.7887	973.2584	979.8529	1000.0846	1030.6316	1053.6782	1058.2212	1108.0386	1142.225	1165.263	1170.9921	1203.4202	1217.8354	1256.6557	1301.6027	1314.5392	1335.4272	1351.8208	1375.3061	1398.1443	1472.4641	1479.8176	1637.5635	1670.8902	2996.9372	3017.5748	3029.8613	3068.9824	3131.1549	3154.9151	3159.4477	3168.5191	3182.7646	3188.0553
C1C=C2C=CCC3C1C23	C1[CH][C]2C=CC[C@H]3[C@@H]1[C@@H]23	
InChI=1S/C9H10/c1-2-6-4-5-8-7(3-1)9(6)8/h1-2,4,7-9H,3,5H2	InChI=1S/C9H10/c1-2-6-4-5-8-7(3-1)9(6)8/h1-2,4,7-9H,3,5H2/t7-,8+,9-/m0/s1
