19
gdb 108437	2.26638	1.72203	1.23513	3.6303	77.6	-0.233	0.021	0.254	1086.1069	0.159516	-419.179427	-419.17086	-419.169916	-419.212529	32.503	
C	-0.1190315002	 1.5798186409	 0.0702099138	-0.38814
C	-0.0210544379	 0.0477239011	 0.1027166233	-0.28494
C	-1.3665037013	-0.59848849	-0.0851200129	 0.385856
O	-2.3223404532	-0.2919127111	 0.969170457	-0.319797
C	-2.6703869918	-1.6816568667	 1.1434997533	-0.096429
C	-1.7531254409	-2.1139492233	-0.0140256954	-0.108841
N	-2.3102878507	-1.9751220261	-1.360643735	-0.340698
C	-2.0797449294	-0.5952165308	-1.447491452	 0.351041
N	-2.3413502085	 0.326294722	-2.2710866874	-0.552739
H	 0.8665219504	 2.0310482149	 0.2165359248	 0.106094
H	-0.5237551501	 1.9194643447	-0.8863350443	 0.156018
H	-0.7807323663	 1.9359213073	 0.8644970907	 0.134278
H	 0.6475583961	-0.3081778122	-0.6904254586	 0.1083
H	 0.4001801138	-0.2864592322	 1.0584903684	 0.099358
H	-2.354222335	-2.047950394	 2.1283864655	 0.108342
H	-3.7421577962	-1.871639327	 1.0105289292	 0.10132
H	-1.0629251566	-2.9455695943	 0.1264234342	 0.095437
H	-3.1161754737	-2.4670712988	-1.7245724665	 0.236544
H	-2.9009367186	-0.0091128045	-3.0579060981	 0.208994
92.6589	131.5656	162.4239	204.3088	248.8528	300.513	317.3797	423.1954	472.8833	489.1194	661.5889	680.0862	723.4451	780.6105	836.2401	854.2913	885.8646	939.3568	949.6239	985.3869	1010.6811	1034.5873	1055.3648	1094.4602	1118.9645	1137.2567	1171.5645	1174.4318	1246.2753	1280.6076	1316.4404	1336.7689	1347.8227	1360.627	1389.6314	1409.346	1475.8358	1496.0457	1511.8259	1513.6225	1791.0856	3014.4223	3028.2608	3047.4648	3062.9934	3067.4458	3113.8276	3118.575	3133.4924	3449.5958	3570.526
CCC12OCC1NC2=N	CC[C@]12OC[C@H]1N[C]2[NH]	
InChI=1S/C6H10N2O/c1-2-6-4(3-9-6)8-5(6)7/h4H,2-3H2,1H3,(H2,7,8)	InChI=1S/C6H10N2O/c1-2-6-4(3-9-6)8-5(6)7/h4H,2-3H2,1H3,(H2,7,8)/t4-,6+/m1/s1
