23
gdb 73679	2.43784	1.61636	1.25526	1.5614	83.68	-0.2459	0.0754	0.3213	1118.9459	0.208858	-388.31771	-388.309515	-388.30857	-388.350463	33.027	
C	 0.0336484968	 1.5053363017	-0.0050920105	-0.456218
C	-0.0323041697	-0.0270066656	-0.0173676354	 0.348782
C	-1.4889175218	-0.5535417293	 0.0610000498	-0.276739
C	-1.6856302371	-0.972373428	 1.5300121787	-0.197473
C	-0.3232842414	-1.5755662498	 1.9100910766	-0.232006
C	 0.7002219281	-0.6442480641	 1.2316556884	-0.038462
C	 1.965516058	-1.2960637192	 0.634169854	-0.103582
O	 2.1263176532	-0.737374506	-0.6641347043	-0.245719
C	 0.8135574603	-0.5899652399	-1.1817778589	-0.143677
H	 1.0751453579	 1.8434490068	-0.0044819268	 0.123779
H	-0.4611275782	 1.930325515	-0.8858431202	 0.109425
H	-0.4552415804	 1.9177431641	 0.8845370019	 0.109325
H	-2.2203898677	 0.1902256865	-0.2693087233	 0.093094
H	-1.6101732701	-1.430189654	-0.5870668738	 0.092214
H	-1.890243269	-0.0900007539	 2.1492872577	 0.098142
H	-2.5208579131	-1.6650916309	 1.6722570841	 0.09301
H	-0.1756417947	-1.6607309296	 2.990771566	 0.095428
H	-0.2409328126	-2.588254653	 1.4938659302	 0.093904
H	 0.9834673381	 0.1580619256	 1.9198508602	 0.070668
H	 2.881141627	-1.0949465557	 1.1963767049	 0.105189
H	 1.8376700757	-2.389945958	 0.5653740536	 0.081986
H	 0.4177281481	-1.5655756036	-1.5135161102	 0.07615
H	 0.8704786125	 0.072256151	-2.0505435426	 0.102778
51.4177	200.5842	228.4463	272.2942	282.407	346.4838	383.0748	418.1769	520.8113	539.976	609.4011	653.5207	748.7531	856.9826	870.26	903.7142	918.7177	944.7004	954.9465	969.465	988.5849	1008.9789	1011.1439	1053.3074	1069.0902	1108.0424	1126.4997	1168.6891	1197.8677	1203.8985	1225.6088	1259.5424	1262.0075	1282.5005	1314.389	1331.0807	1335.1488	1349.5353	1351.0762	1370.6045	1393.3235	1415.1253	1487.2879	1490.0744	1496.0992	1501.3017	1506.5749	1507.6473	1521.2238	2949.8531	2958.2315	3020.7091	3021.6965	3026.8804	3030.9428	3048.9748	3077.7694	3081.047	3081.9698	3087.165	3089.6152	3093.1789	3099.8397
CC12CCCC1COC2	C[C@]12CCC[C@H]1COC2	
InChI=1S/C8H14O/c1-8-4-2-3-7(8)5-9-6-8/h7H,2-6H2,1H3	InChI=1S/C8H14O/c1-8-4-2-3-7(8)5-9-6-8/h7H,2-6H2,1H3/t7-,8+/m0/s1
