18
gdb 62985	2.27397	1.58294	1.26349	0.7334	77.92	-0.2345	0.0466	0.281	1071.4904	0.145399	-401.865428	-401.856564	-401.85562	-401.898346	34.605	
C	-0.1411945446	 1.5605621833	-0.1719408864	-0.464002
C	-0.0092891946	 0.0554423542	-0.0479911596	 0.407493
O	-1.2437585302	-0.575658976	 0.225536802	-0.480188
C	 0.6558334824	-0.7069962796	-1.2034288335	-0.083859
N	 2.0268758086	-0.1628745059	-1.3281806663	-0.335085
C	 1.7422210189	-1.2167174504	-0.3316301148	-0.060783
C	 1.1553164954	-0.5161513606	 0.9076474799	-0.263522
C	 1.9928949746	 0.3836956386	 1.6703937281	 0.352451
C	 2.6674843973	 1.143081749	 2.3151114846	-0.466311
H	 0.8098123558	 2.0003400567	-0.4762042299	 0.154641
H	-0.908999078	 1.8071866807	-0.9121064924	 0.116548
H	-0.426178453	 2.0042875628	 0.7896272001	 0.111348
H	-1.6636805872	-0.1027857506	 0.9524130642	 0.280175
H	 0.1405444802	-1.1738342047	-2.0332785736	 0.099732
H	 2.460458404	-0.6142668273	-2.1324837912	 0.233945
H	 2.2707609664	-2.161456707	-0.3470464407	 0.100205
H	 0.6753931056	-1.2537266645	 1.5574076288	 0.105427
H	 3.2752493682	 1.8099455313	 2.8745830809	 0.191786
106.1097	135.77	216.5947	229.0424	267.877	297.831	361.7567	367.9288	392.1715	500.9876	541.8702	567.7136	618.7591	629.4052	658.7018	768.3702	837.6038	845.1526	882.6687	924.3346	964.9543	970.7136	1011.9644	1060.2363	1085.4327	1094.0654	1112.7853	1149.6454	1173.9331	1215.3959	1273.2306	1295.047	1339.8148	1373.9806	1403.3126	1409.9684	1482.2103	1497.6185	2229.995	3031.6024	3069.6421	3097.4428	3144.9326	3189.1283	3203.5068	3482.8163	3504.3138	3804.4257
CC1(O)C2NC2C1C#C	C[C@@]1(O)[C@H]2N[C@H]2[C@H]1C#C	
InChI=1S/C7H9NO/c1-3-4-5-6(8-5)7(4,2)9/h1,4-6,8-9H,2H3	InChI=1S/C7H9NO/c1-3-4-5-6(8-5)7(4,2)9/h1,4-6,8-9H,2H3/t4-,5+,6+,7+/m1/s1
