21
gdb 114891	3.19709	1.19239	1.07157	1.3263	77.26	-0.2504	0.073	0.3234	1227.7241	0.183661	-424.220202	-424.211754	-424.21081	-424.25375	32.053	
C	 0.1751293438	 1.3287998	-0.2943498251	-0.382958
C	 0.0163037844	-0.1638271453	 0.0115320258	-0.186131
C	-1.441368805	-0.6048092966	 0.072851546	 0.00822
C	-2.2797591614	-0.627974028	-1.2461802627	-0.290148
C	-2.732002983	-2.0837941641	-0.9259408427	 0.095128
O	-2.2940812133	-3.1057762758	-1.8002947153	-0.250535
C	-0.9287140929	-3.2972675224	-1.5135017574	 0.012278
O	-0.7397718206	-3.0371147169	-0.1355310067	-0.25549
C	-1.7460741917	-2.1225596087	 0.2750290409	 0.050341
H	 1.2307683254	 1.6128448505	-0.3455269988	 0.11352
H	-0.285603429	 1.5906941307	-1.2531999663	 0.117575
H	-0.2987927218	 1.9450681241	 0.4779138094	 0.112831
H	 0.5448585003	-0.7560565381	-0.7447805754	 0.100637
H	 0.5013548583	-0.400553666	 0.9668695479	 0.100996
H	-1.9629729975	-0.0297570983	 0.8472900514	 0.068972
H	-3.0841121138	 0.1064677831	-1.3233033368	 0.10335
H	-1.6762499465	-0.5740346246	-2.1571626088	 0.106417
H	-3.7962963614	-2.2286033815	-0.7382970595	 0.08904
H	-0.662822803	-4.3376094308	-1.7235866462	 0.12013
H	-0.3025176247	-2.6205841925	-2.1211273509	 0.084667
H	-2.0945037766	-2.4300094488	 1.263447551	 0.081162
73.6061	85.9256	155.2395	217.6301	236.0371	289.3212	393.8922	419.2968	507.2858	657.2035	729.3415	753.8518	770.7039	788.7805	860.7592	909.2909	929.6005	954.6815	963.7908	981.4051	1020.0408	1033.5825	1071.2941	1123.9229	1135.4988	1142.7477	1176.4605	1184.2164	1216.6151	1220.8189	1246.1277	1275.0124	1279.5002	1288.4487	1335.6674	1345.8772	1359.181	1389.0554	1410.6366	1432.1972	1474.6565	1485.7745	1499.0627	1506.4326	1544.9775	2945.0702	3027.6001	3028.3679	3031.3447	3059.3461	3060.5635	3080.2894	3084.5337	3096.5145	3102.2678	3105.812	3120.5489
CCC1CC2OCOC12	CC[C@H]1C[C@H]2OCO[C@@H]12	
InChI=1S/C7H12O2/c1-2-5-3-6-7(5)9-4-8-6/h5-7H,2-4H2,1H3	InChI=1S/C7H12O2/c1-2-5-3-6-7(5)9-4-8-6/h5-7H,2-4H2,1H3/t5-,6+,7-/m0/s1
