20
gdb 77309	2.83923	1.20759	0.91814	4.2932	85.78	-0.2467	0.0132	0.2599	1301.9869	0.171063	-366.05754	-366.048348	-366.047404	-366.091468	34.34	
C	-0.0386894116	 1.5957512198	-0.0180348128	-0.414557
C	 0.0560161818	 0.0678705895	 0.0157117286	-0.073289
C	 0.8473430963	-0.5181797345	-1.1963587195	-0.144149
C	 1.5402258734	-1.8037317756	-0.6604750846	-0.278472
C	 1.5949668607	-1.5336732153	 0.8212632089	-0.181757
C	 0.8014725997	-0.5304303843	 1.2011977861	 0.328967
C	 0.5627573954	-0.0520214346	 2.5990682342	-0.49884
C	 0.027805528	-0.726276858	-2.385007233	 0.26721
N	-0.6317286024	-0.8896406132	-3.32064041	-0.33354
H	 0.9559226752	 2.0542454952	 0.0214741579	 0.118203
H	-0.5310925316	 1.9305368123	-0.9364483696	 0.134729
H	-0.6201278672	 1.9771584936	 0.8264628248	 0.122822
H	-0.9677215164	-0.3355252461	 0.0069002457	 0.099574
H	 1.6297927907	 0.2049401775	-1.4561187467	 0.122913
H	 0.9451164905	-2.6991642883	-0.8831579942	 0.128134
H	 2.5209962617	-1.9567304317	-1.1217788911	 0.1191
H	 2.1864613483	-2.142250256	 1.4969816552	 0.094307
H	 1.1421211251	-0.6317221282	 3.3222285763	 0.127409
H	 0.8317551473	 1.0044322094	 2.7165782182	 0.131595
H	-0.498108655	-0.1350376015	 2.8690617254	 0.129644
60.7954	134.855	178.827	215.5883	230.2624	258.3821	260.4175	357.4352	358.0576	473.26	550.9605	556.4525	570.449	655.2547	794.7258	828.0754	833.7831	944.0827	986.3428	1006.9739	1025.914	1038.1202	1043.9541	1091.3289	1094.3748	1118.0756	1183.2177	1206.5995	1257.5013	1298.0682	1307.8579	1325.8399	1349.8589	1362.9996	1409.9596	1416.0464	1479.1845	1486.5927	1494.7678	1498.918	1502.6313	1721.8513	2354.4118	2991.6311	3020.3819	3023.6107	3031.7706	3039.3916	3068.8532	3073.9347	3101.7095	3109.7481	3115.0249	3188.7535
CC1C(CC=C1C)C#N	C[C@H]1[C@@H](CC=C1C)C#N	
InChI=1S/C8H11N/c1-6-3-4-8(5-9)7(6)2/h3,7-8H,4H2,1-2H3	InChI=1S/C8H11N/c1-6-3-4-8(5-9)7(6)2/h3,7-8H,4H2,1-2H3/t7-,8+/m1/s1
