17
gdb 57830	3.10897	1.05398	0.88411	0.4313	76.71	-0.2498	-0.1019	0.1479	1342.5669	0.13141	-421.820062	-421.809781	-421.808836	-421.85623	35.723	
C	-0.2402792102	 1.6411266796	-0.000753462	-0.401479
C	-0.0978015973	 0.1041349231	 0.0947155234	-0.067752
C	 0.688301497	-0.3229063438	 1.3359780438	-0.397754
C	-1.4836696846	-0.5135355965	 0.0876655688	 0.2933
O	-2.0533506593	-0.9416157039	 1.0619573082	-0.287407
C	-2.1960381479	-0.5803825708	-1.2897040321	 0.120147
O	-1.627720724	-0.2569113003	-2.3104278035	-0.277441
C	-3.5569575395	-1.0665484377	-1.2643058681	 0.301507
C	-4.6945448698	-1.4596058195	-1.2689790541	-0.379498
H	 0.7520070176	 2.1000751497	-0.0326125577	 0.127266
H	-0.7794495262	 1.9396889625	-0.9029339971	 0.138462
H	-0.7691069372	 2.036984202	 0.8724735223	 0.128524
H	 0.4073891093	-0.2318597874	-0.8176583042	 0.111617
H	 0.1702604901	-0.0147678376	 2.248063601	 0.133656
H	 0.8100762703	-1.4090227573	 1.3769947798	 0.122429
H	 1.6821908284	 0.1339035567	 1.3290606264	 0.113468
H	-5.6991280668	-1.8080472788	-1.269667205	 0.220955
34.5459	55.1938	122.4805	186.6847	198.6067	209.0235	234.7839	259.1051	302.4327	347.341	422.3638	499.4145	507.2715	648.6765	654.8578	721.0568	727.7634	818.7697	862.5039	932.3349	956.4158	974.0135	1102.2679	1123.7344	1185.7725	1216.9625	1314.523	1369.2993	1398.1164	1419.5942	1486.6902	1487.6282	1501.7977	1511.1704	1754.9362	1806.7115	2213.8586	3040.2054	3045.7315	3054.9138	3111.5955	3115.9055	3124.2666	3127.9467	3493.1841
CC(C)C(=O)C(=O)C#C	CC(C)C(=O)C(=O)C#C	
InChI=1S/C7H8O2/c1-4-6(8)7(9)5(2)3/h1,5H,2-3H3	InChI=1S/C7H8O2/c1-4-6(8)7(9)5(2)3/h1,5H,2-3H3
