24
gdb 6409	3.8494	0.89104	0.86909	1.2607	81.88	-0.2625	0.0775	0.34	1483.2479	0.221014	-351.415106	-351.404271	-351.403327	-351.450975	39.16	
C	 0.8850380369	-0.3169108816	-1.0882364507	-0.381729
C	-0.0203348382	 0.0655738149	 0.0910808118	 0.032833
C	-0.1589999647	 1.591419311	 0.1894414109	-0.38651
C	-1.4133602088	-0.5866267337	 0.0006937799	-0.175354
C	-1.4583952269	-2.1251935392	 0.0196346814	 0.028019
C	-0.8785154161	-2.728081597	 1.3061057644	-0.391334
C	-2.8986998791	-2.597044322	-0.1931250216	-0.077668
O	-2.897075801	-4.011169655	-0.3365391873	-0.424704
H	 1.8580336368	 0.1794985413	-1.0096090448	 0.108121
H	 1.0685832599	-1.3942052037	-1.1374578169	 0.116634
H	 0.4344204505	-0.0121463134	-2.0408920499	 0.109049
H	 0.4622907388	-0.2808145567	 1.0145510511	 0.075565
H	-0.6343991914	 2.0014840751	-0.7100388016	 0.109441
H	-0.7710782496	 1.8824759134	 1.0498187595	 0.107533
H	 0.8190178795	 2.0727381932	 0.2948911859	 0.107453
H	-2.0257701985	-0.2109280505	 0.8332933427	 0.084623
H	-1.9000272438	-0.2279051558	-0.9182678444	 0.084113
H	-0.8847756565	-2.5114564973	-0.8328886654	 0.083663
H	-1.0267094253	-3.8101941109	 1.3147793685	 0.131725
H	 0.1927539831	-2.5304470032	 1.4035664038	 0.110726
H	-1.3763457023	-2.3098985622	 2.1902484992	 0.103011
H	-3.5180861008	-2.286668639	 0.6655436109	 0.079594
H	-3.3162100308	-2.112932678	-1.0906680246	 0.079995
H	-3.8091025517	-4.3090801897	-0.3942139828	 0.2852
47.3763	81.2455	124.4621	152.682	220.3025	231.739	239.6673	247.6892	271.9753	315.2671	339.0258	410.0591	414.8988	445.3473	540.1224	812.3631	831.6504	880.9525	921.0522	926.2524	935.2821	966.2937	981.9685	1046.1999	1069.7887	1081.5671	1142.9239	1172.1017	1190.6186	1195.9028	1234.3246	1264.1634	1286.0382	1310.6235	1343.8296	1366.9059	1385.1467	1390.2296	1399.0051	1404.7218	1421.428	1455.501	1477.7533	1487.6269	1493.3031	1496.691	1503.9769	1506.401	1510.9962	1520.8112	2953.5622	2983.687	2992.4224	3009.9308	3020.6876	3022.9132	3026.865	3027.556	3041.2539	3085.1792	3091.814	3096.2821	3097.7484	3105.1484	3127.5146	3835.0811
CC(C)CC(C)CO	CC(C)C[C@@H](C)CO	
InChI=1S/C7H16O/c1-6(2)4-7(3)5-8/h6-8H,4-5H2,1-3H3	InChI=1S/C7H16O/c1-6(2)4-7(3)5-8/h6-8H,4-5H2,1-3H3/t7-/m1/s1
