13
gdb 25207	2.57343	1.83446	1.12137	3.6841	72.59	-0.2519	-0.1037	0.1482	999.3242	0.08934	-452.742103	-452.734627	-452.733683	-452.775846	26.738	
N	-0.1477921627	 1.4134401488	 0.1957702969	-0.444261
C	-0.0477081667	 0.1981779158	-0.1181527519	 0.296975
O	 1.1624304771	-0.3061366372	-0.555427048	-0.233989
C	 1.4608779951	-1.5635359654	-0.9528889962	 0.052517
C	 0.6631456914	-2.5610844995	-1.3719677787	-0.064033
N	-0.7068881938	-2.599997601	-1.5418651651	-0.211839
C	-1.5332303297	-1.7895008947	-1.0008263015	-0.067662
C	-1.294738273	-0.6783424527	-0.0286974487	 0.276302
O	-2.1504891927	-0.4039354588	 0.7779954864	-0.260832
H	 0.7387143705	 1.9017798495	 0.0540445203	 0.241079
H	 2.5370479991	-1.6951432236	-0.9599830294	 0.143719
H	 1.176069136	-3.4646194769	-1.6854797406	 0.12753
H	-2.5962113608	-1.9393645242	-1.1956691035	 0.144493
29.8554	41.1006	280.3026	327.6924	349.8325	407.2431	424.9651	523.9361	594.789	630.5798	736.1438	788.5195	838.687	871.0542	911.693	929.5938	942.6263	945.1587	1005.338	1158.4065	1199.1404	1284.9253	1361.0469	1390.6149	1441.827	1623.0553	1679.5779	1729.0832	1779.1062	3124.923	3179.4784	3209.0244	3476.385
N=C1OC=CN=CC1=O	[NH][C]1OC=CN=CC1=O	
InChI=1S/C5H4N2O2/c6-5-4(8)3-7-1-2-9-5/h1-3,6H	InChI=1S/C5H4N2O2/c6-5-4(8)3-7-1-2-9-5/h1-3,6H
