18
gdb 133831	3.14041	2.06404	1.89986	3.7345	80.36	-0.1852	0.0134	0.1985	832.1811	0.147709	-364.679063	-364.672127	-364.671183	-364.709768	28.778	
C	 7.1290709354	-0.2394741459	 1.5433183332	-0.512303
C	 5.9584522465	-0.6051550939	 0.689424832	 0.34294
C	 5.3767361117	 0.3940563587	-0.4207744953	-0.101901
N	 4.6866763045	 0.045639174	 0.8531408689	-0.124798
C	 3.7068457639	-0.8834212227	 0.1611100134	-0.020874
C	 4.2642753839	-2.2859605153	 0.4088129725	-0.229428
C	 5.6962213717	-1.9372891248	-0.0253281834	-0.157372
C	 5.4605706205	-1.1090924106	-1.3002750864	-0.025722
C	 4.2219021283	-0.4070971114	-1.2444373508	-0.18373
H	 7.1031965728	 0.8263654012	 1.7870042784	 0.140367
H	 8.072174218	-0.459679481	 1.0327901211	 0.128019
H	 7.1145158904	-0.8009526602	 2.4847240928	 0.135953
H	 5.8221031133	 1.3528760915	-0.65166644	 0.111833
H	 2.6738477027	-0.6809889523	 0.4330103816	 0.079773
H	 3.7955559842	-3.0365330714	-0.2350860201	 0.113356
H	 4.1979992571	-2.6047717131	 1.4542422299	 0.104457
H	 6.4804955779	-2.6884467708	-0.0017936519	 0.077544
H	 6.2309481072	-0.970853352	-2.051523826	 0.121887
161.0343	205.9461	248.5456	323.1099	406.5845	440.0863	562.0272	636.744	678.1317	705.394	764.0574	796.0635	824.1487	840.726	879.2668	907.9444	944.8229	951.5891	968.2226	981.5824	996.1487	1010.5367	1021.3236	1094.0656	1106.1847	1133.187	1163.2488	1170.1658	1190.4552	1225.9884	1249.7364	1275.8723	1300.256	1352.0203	1375.7114	1416.6407	1475.1484	1479.6768	1491.5337	3029.3131	3050.6981	3091.5248	3106.8016	3116.5876	3143.619	3160.4641	3188.9043	3194.8169
CC12C3N1C1CC2C=C31	C[C@]12[C@@H]3N1[C@@H]1C[C@H]2[CH][C]31	
InChI=1S/C8H9N/c1-8-4-2-5-6(3-4)9(8)7(5)8/h2,4,6-7H,3H2,1H3	InChI=1S/C8H9N/c1-8-4-2-5-6(3-4)9(8)7(5)8/h2,4,6-7H,3H2,1H3/t4-,6-,7-,8+,9?/m1/s1
