18
gdb 9122	5.19635	0.78533	0.69386	3.5498	79.98	-0.2517	-0.0422	0.2095	1650.9158	0.150747	-347.807845	-347.797844	-347.796899	-347.846483	33.437	
C	-0.0292145774	 1.5881692485	 0.016598856	-0.368722
C	 0.0206273151	 0.0503496297	-0.0230419396	-0.324564
C	 0.6890749385	-0.4814002779	-1.2027102209	 0.175821
C	 1.2433888449	-0.9218817259	-2.1813039617	-0.038759
C	 1.9100868462	-1.4452634615	-3.3583039743	 0.210466
O	 2.0241020161	-2.6377027569	-3.5536555941	-0.294528
C	 2.450343755	-0.3965342311	-4.3198512992	-0.275874
C	 3.1416625494	-0.9958188412	-5.5413844579	-0.384446
H	 0.9790647321	 2.0105314924	 0.0122556892	 0.131993
H	-0.56539381	 1.9826790599	-0.8505201616	 0.132049
H	-0.5410565748	 1.9265577871	 0.9218759709	 0.121625
H	 0.530256738	-0.3306481392	 0.8714071661	 0.143511
H	-0.997273945	-0.3583305405	 0.0187083319	 0.143501
H	 1.6109401572	 0.2510878409	-4.6072989027	 0.127224
H	 3.1275478283	 0.254878181	-3.7508964029	 0.127251
H	 2.4533795458	-1.6267219731	-6.1094410285	 0.132529
H	 3.5117348269	-0.2049998275	-6.1998098668	 0.108361
H	 3.9856789539	-1.6232072747	-5.243944624	 0.13256
3.099	57.6956	63.2217	131.4462	180.4996	199.7015	236.5113	268.6503	381.1677	389.2419	533.5377	567.5189	571.8888	719.9175	778.7215	807.2175	889.5347	984.0707	1020.4905	1077.3699	1087.2536	1095.3085	1099.061	1195.8222	1271.7069	1281.7955	1345.5336	1367.9048	1409.7765	1412.9975	1449.4729	1463.3588	1492.1687	1494.8503	1497.8716	1504.459	1761.4693	2330.4079	3022.6564	3023.6185	3047.722	3049.7507	3051.6135	3051.7384	3122.6709	3122.8424	3126.5581	3128.1811
CCC#CC(=O)CC	CCC#CC(=O)CC	
InChI=1S/C7H10O/c1-3-5-6-7(8)4-2/h3-4H2,1-2H3	InChI=1S/C7H10O/c1-3-5-6-7(8)4-2/h3-4H2,1-2H3
