15
gdb 83984	2.46176	1.83665	1.35609	2.509	60.09	-0.2328	-0.0517	0.1811	938.954	0.112413	-494.88164	-494.874017	-494.873073	-494.914341	27.918	
O	 0.6928171922	 0.9674829738	 0.6403960812	-0.420703
C	 0.2140057606	-0.1889658585	 0.0358301979	 0.036602
C	-1.3162542128	-0.4833087114	 0.101212023	 0.011711
O	-2.0721331787	 0.7238740475	 0.0810391902	-0.282408
C	-2.5077775246	 0.9794040368	-1.2578741271	 0.011476
O	-2.4072479821	-0.224752078	-1.9778579423	-0.238047
C	-1.3428836872	-0.9292090218	-1.3848448768	-0.023462
C	 0.0842264812	-0.2758697275	-1.5173133704	 0.298627
O	 0.7039584217	 0.1564886743	-2.4398538388	-0.2752
H	-0.0148910998	 1.6223341434	 0.570581129	 0.294501
H	 0.7941436927	-1.0448863963	 0.4049973063	 0.11902
H	-1.6858848751	-1.1409391219	 0.8878111242	 0.098607
H	-3.5541824651	 1.2969599512	-1.2434737678	 0.131946
H	-1.8754177765	 1.7605768298	-1.7076054428	 0.114096
H	-1.4209651164	-1.9893868314	-1.6262088859	 0.123234
60.5274	134.7702	198.2789	210.9669	252.435	409.471	500.2088	526.7666	573.4297	673.865	732.18	771.4545	835.6167	872.3779	919.6715	948.4123	998.3086	1015.716	1081.206	1099.1178	1137.5045	1162.1717	1179.2094	1208.3812	1231.2793	1239.9447	1304.7787	1327.9503	1333.587	1417.7895	1434.5976	1547.2883	1900.0686	2981.8648	3034.3106	3089.7474	3113.1639	3123.8354	3761.5685
OC1C2OCOC2C1=O	O[C@H]1[C@H]2OCO[C@H]2C1=O	
InChI=1S/C5H6O4/c6-2-3(7)5-4(2)8-1-9-5/h2,4-6H,1H2	InChI=1S/C5H6O4/c6-2-3(7)5-4(2)8-1-9-5/h2,4-6H,1H2/t2-,4-,5+/m1/s1
