18
gdb 46734	2.78075	1.72309	1.36566	1.5845	73.47	-0.2263	-0.0274	0.1988	975.792	0.149546	-401.923677	-401.916539	-401.915594	-401.955502	28.4	
O	 0.0053155345	 0.099678857	 0.5393357159	-0.314166
C	 0.0014614001	 1.2262071436	 0.1151588055	 0.394977
C	-1.2505989551	 1.9921647193	-0.3541485024	-0.329067
C	-0.8213955867	 3.4439978573	-0.6780313146	-0.251494
C	 0.7198823314	 3.5000024259	-0.5567051902	 0.02223
C	 1.2165736053	 2.1349737948	-0.0442266331	-0.156576
C	 2.00719813	 2.0328595413	-1.3614905623	-0.02466
C	 1.1610230372	 2.2013194587	-2.5564570704	-0.253108
N	 1.5658330236	 3.4132613606	-1.8197748454	-0.142571
H	-1.6679517791	 1.4615171093	-1.2175969574	 0.139094
H	-2.0119103101	 1.9317974923	 0.4295241226	 0.133629
H	-1.1447347229	 3.7662805862	-1.6718020696	 0.121888
H	-1.2666578957	 4.1411453537	 0.0369392562	 0.113399
H	 1.0606897603	 4.3702381492	 0.0040863946	 0.091623
H	 1.8471999609	 2.1263892572	 0.8448532977	 0.103557
H	 3.0422332594	 1.7138758239	-1.4195964981	 0.10506
H	 1.6567378059	 2.1283817706	-3.5197546486	 0.128816
H	 0.1237846811	 1.8811601192	-2.5745974405	 0.11737
71.994	144.3616	237.3857	322.0171	441.9757	487.3211	563.5491	580.6533	655.9248	702.6426	734.6397	775.715	796.7618	812.8667	901.4128	920.2396	967.075	983.6056	999.2618	1039.4078	1055.6147	1064.3852	1110.2434	1141.8644	1150.2648	1172.1681	1190.8962	1215.7917	1232.2201	1263.623	1270.6299	1290.0497	1326.7966	1344.3637	1364.6587	1450.1881	1489.0719	1512.9166	1839.8426	3048.1182	3060.7754	3084.2569	3099.2245	3108.8399	3118.0186	3124.9617	3169.7951	3204.717
O=C1CCC2C1C1CN21	O=C1CC[C@H]2[C@@H]1[C@H]1CN21	
InChI=1S/C7H9NO/c9-6-2-1-4-7(6)5-3-8(4)5/h4-5,7H,1-3H2	InChI=1S/C7H9NO/c9-6-2-1-4-7(6)5-3-8(4)5/h4-5,7H,1-3H2/t4-,5+,7+,8?/m0/s1
