18
gdb 90316	2.75917	1.56448	1.06248	2.804	80.41	-0.2179	-0.0192	0.1987	1129.8237	0.147299	-401.923157	-401.91514	-401.914196	-401.955759	30.581	
C	-0.1309822145	 1.5277979704	-0.0596335012	-0.327798
N	-0.0632032218	 0.0863958062	 0.0827229296	-0.095255
C	-1.2609980552	-0.6118771911	 0.667458882	-0.254236
C	-0.2760355932	-1.4700162295	 1.4259349654	 0.239727
C	 0.1695735051	-2.7115727255	 1.603852123	-0.216794
C	 1.687954871	-2.702288332	 1.645877526	-0.358808
C	 2.0369642954	-1.3494850706	 0.943238506	 0.372776
O	 3.038438057	-1.1007479988	 0.3363438298	-0.289828
C	 0.7935933753	-0.4592855954	 1.1744026597	-0.105694
H	 0.8410982177	 1.9030657153	-0.3932128421	 0.137084
H	-0.8726266429	 1.7878289521	-0.8217136423	 0.124104
H	-0.4024921509	 2.0492992246	 0.8777697658	 0.091477
H	-1.8579669608	 0.0558424707	 1.3093363434	 0.100444
H	-1.9183178352	-1.098879797	-0.0594867241	 0.120953
H	-0.4122732567	-3.6251030441	 1.5671323187	 0.106468
H	 2.1163535254	-2.6959754083	 2.6579808932	 0.134036
H	 2.1467124506	-3.5433383927	 1.1161098233	 0.134566
H	 0.9971505436	 0.2710915359	 1.9758216438	 0.08678
82.1979	152.837	220.5029	234.2375	247.93	333.3258	385.7907	448.5034	537.9742	610.5331	644.291	712.681	779.0104	795.121	844.0123	913.6681	943.4393	978.2449	990.1266	1003.3461	1069.8049	1109.946	1126.0102	1149.1672	1159.1387	1178.8374	1196.3246	1228.7478	1258.1022	1287.8144	1312.6958	1325.7566	1447.793	1454.9499	1485.6754	1495.963	1502.7375	1734.7272	1867.2414	2928.1527	2957.2807	2975.581	3015.7752	3065.6423	3074.1189	3082.5842	3110.0415	3198.5026
CN1CC2=CCC(=O)C12	CN1C[C]2[CH]CC(=O)[C@@H]12	
InChI=1S/C7H9NO/c1-8-4-5-2-3-6(9)7(5)8/h2,7H,3-4H2,1H3	InChI=1S/C7H9NO/c1-8-4-5-2-3-6(9)7(5)8/h2,7H,3-4H2,1H3/t7-/m0/s1
