16
gdb 5545	3.18222	1.99147	1.31676	1.0246	67.88	-0.169	0.0558	0.2248	925.1972	0.131195	-379.932554	-379.92422	-379.923275	-379.965654	30.093	
C	-0.5168775705	 0.9204640183	 0.0897923195	-0.25226
O	 0.7701858121	 0.2939239779	 0.0667760706	-0.279119
C	 0.9921823903	-0.484531545	-1.0261638682	 0.275069
C	 0.6175615867	-1.7832509113	-1.2866003487	 0.171394
N	-0.2023087764	-2.5841222148	-0.4596141062	-0.61982
C	 1.1449578296	-2.1113843856	-2.5705800506	-0.222682
C	 1.8209811028	-1.0081498171	-3.0428780183	-0.087939
N	 1.7126830238	-0.013564238	-2.1070580566	-0.295181
H	-0.6348343576	 1.6113299951	-0.7543884657	 0.114072
H	-1.3177701022	 0.1734671169	 0.0521984909	 0.135775
H	-0.5769776359	 1.4786182201	 1.0270711511	 0.124801
H	-0.0734260607	-2.3417048136	 0.5166828897	 0.240292
H	 0.0120582809	-3.5682411041	-0.5681755297	 0.238285
H	 1.031457572	-3.0535066978	-3.0856820666	 0.084214
H	 2.3721057247	-0.8579052606	-3.9564632713	 0.113487
H	 2.1717022305	 0.8796568196	-2.1281878799	 0.259612
42.9193	154.3316	157.2787	194.7891	269.4286	276.2074	382.3205	425.5253	466.4565	623.9904	648.2262	652.7707	707.1347	741.2043	790.3124	838.2685	910.1213	1011.421	1066.5316	1088.0152	1124.5009	1175.4551	1207.0066	1253.5371	1264.6918	1343.8002	1441.4504	1458.3803	1485.7885	1503.1066	1510.6616	1521.9772	1648.0479	1670.9453	3012.1493	3080.6536	3124.5781	3239.6063	3271.8267	3512.6514	3600.3285	3689.7305
COC1=C(N)C=CN1	COc1c(N)cc[nH]1	
InChI=1S/C5H8N2O/c1-8-5-4(6)2-3-7-5/h2-3,7H,6H2,1H3	InChI=1S/C5H8N2O/c1-8-5-4(6)2-3-7-5/h2-3,7H,6H2,1H3
