14
gdb 129406	2.83778	1.76	1.08637	7.8775	68.66	-0.1891	-0.0373	0.1518	1013.6203	0.101021	-466.197723	-466.189617	-466.188672	-466.230892	29.661	
N	-0.0604194537	 1.3214814433	 0.028747179	-0.553429
C	-0.007729712	-0.0030499495	 0.0005874821	 0.601869
N	 1.1185687242	-0.7210921837	-0.0441363993	-0.559606
H	 1.0111914202	-1.7258921664	-0.0246346738	 0.310837
H	 2.0258535387	-0.2968695954	 0.0201973208	 0.279203
N	-1.1720179491	-0.6652612949	 0.0125175337	-0.1019
N	-1.2285313358	-2.0712336163	 0.0048565939	-0.231884
N	-2.4896084012	-2.3522174282	 0.0098048999	-0.159865
C	-3.2699498504	-1.2471955304	 0.0194290307	-0.201083
C	-2.4850878366	-0.0804789931	 0.0229517956	 0.386963
O	-2.6589449847	 1.1539447754	 0.0328124455	-0.486166
H	 0.767079351	 1.8885426571	-0.0212964112	 0.272183
H	-1.0365938414	 1.6918763849	 0.0332621119	 0.325942
H	-4.3444152691	-1.3121294027	 0.0253250613	 0.116936
48.7452	115.6303	190.0559	238.7411	305.0556	354.6636	370.2869	448.1235	551.661	571.5706	657.8184	680.1961	729.1865	746.68	747.6213	767.3842	854.5002	914.8137	1023.2373	1081.3811	1132.0789	1144.7257	1207.8749	1275.349	1344.7757	1386.078	1441.7566	1567.7192	1682.485	1689.6419	1747.1364	3032.6626	3281.4067	3576.818	3696.3147	3738.8738
NC(=[NH2+])N1N=NC=C1[O-]	NC(=[NH2])n1nncc1=O	
InChI=1S/C3H5N5O/c4-3(5)8-2(9)1-6-7-8/h1,9H,(H3,4,5)	InChI=1S/C3H8N5O/c4-3(5)8-2(9)1-6-7-8/h6-7H,1,4-5H2
