21
gdb 101465	3.87635	0.90957	0.86827	2.9051	80.29	-0.2488	0.0077	0.2565	1415.2146	0.183214	-424.232795	-424.223599	-424.222655	-424.267305	34.673	
O	 0.036283593	 1.4840022285	 0.0016057624	-0.425842
C	 0.0952729543	 0.0807851364	 0.142132651	-0.069297
C	-1.3045161981	-0.531981193	 0.0264653122	 0.088514
O	-1.9246151563	-0.0449139503	-1.1691104027	-0.446459
C	-1.3311237125	-2.0681526426	 0.0990243474	-0.043872
C	-2.780278957	-2.6390408554	 0.1140515194	-0.238186
C	-2.7791681692	-3.8661478619	-0.8339546725	-0.255778
C	-1.4989490459	-3.7014749439	-1.6140548235	-0.064898
C	-0.7123515107	-2.7531213303	-1.1060513383	-0.102228
H	-0.5860074597	 1.6355373454	-0.7222359739	 0.285108
H	 0.7642215801	-0.3663669553	-0.6140273682	 0.074538
H	 0.5234348851	-0.1356591103	 1.1276240394	 0.103038
H	-1.9142829475	-0.123079679	 0.8414488973	 0.092804
H	-1.6304966939	-0.6116732601	-1.894197157	 0.281616
H	-0.785359809	-2.3564713991	 1.0098979394	 0.08122
H	-3.1143352669	-2.8884074131	 1.1237333496	 0.100109
H	-3.4562066073	-1.874247379	-0.2780896969	 0.122385
H	-2.7639706992	-4.8151617718	-0.2802074219	 0.11038
H	-3.6667713632	-3.904533073	-1.4756964677	 0.108135
H	-1.2433833501	-4.3352110819	-2.4570099372	 0.097776
H	 0.2803572242	-2.5135502502	-1.4721936983	 0.100937
49.5895	98.0653	115.6673	184.0152	227.7209	305.133	347.8009	369.1052	397.2412	505.4836	528.8754	604.7189	687.9054	766.9523	774.7538	831.4002	857.2322	883.7044	922.384	966.2718	979.8356	1010.1918	1040.7189	1046.2791	1093.8505	1095.9182	1114.6226	1143.9047	1180.2759	1205.9437	1230.0229	1252.7461	1277.5478	1309.9681	1316.4268	1332.6402	1348.7863	1387.927	1398.6559	1427.7168	1445.4162	1481.3707	1499.5714	1505.7353	1681.2632	2951.6584	2991.2694	3012.9198	3039.9708	3052.3442	3063.5391	3067.0645	3111.6248	3176.4223	3201.7208	3758.7324	3763.2062
OCC(O)C1CCC=C1	OC[C@@H](O)[C@H]1CCC=C1	
InChI=1S/C7H12O2/c8-5-7(9)6-3-1-2-4-6/h1,3,6-9H,2,4-5H2	InChI=1S/C7H12O2/c8-5-7(9)6-3-1-2-4-6/h1,3,6-9H,2,4-5H2/t6-,7-/m1/s1
