19
gdb 126560	4.95386	0.76035	0.69366	2.6162	78.59	-0.2144	0.0436	0.258	1645.519	0.159825	-419.23724	-419.227905	-419.226961	-419.272199	34.035	
C	-0.0110680439	 1.5289457993	 0.1571810729	-0.378261
C	-0.0903252225	 0.0110673483	 0.3349839997	-0.156134
C	-1.35445777	-0.5972915065	-0.3000023974	-0.288094
C	-1.4469755621	-2.0838651547	-0.1362875095	 0.370215
N	-1.2679714758	-2.8872625267	-1.1793021186	-0.303333
N	-1.3932188076	-4.1428109355	-0.667080202	-0.253684
C	-1.6479959715	-4.1352126264	 0.6580656957	 0.459229
O	-1.8031635642	-5.3166993144	 1.2951810968	-0.430215
C	-1.6921702666	-2.8165423888	 1.0573496555	-0.446839
H	 0.8951903793	 1.9376523687	 0.6151092167	 0.109611
H	-0.0008997112	 1.802689521	-0.9037159951	 0.116009
H	-0.8713828006	 2.0283192546	 0.6173621266	 0.110998
H	 0.7916716158	-0.4644261878	-0.1103908544	 0.105637
H	-0.0646525437	-0.2388831738	 1.4030842836	 0.093257
H	-2.2402848447	-0.1202704753	 0.140318406	 0.097393
H	-1.3712665158	-0.3731938342	-1.3718438253	 0.113802
H	-1.3129553192	-4.9465528306	-1.2655057285	 0.274749
H	-1.9723580858	-5.1431949908	 2.2261486272	 0.312777
H	-1.87546736	-2.4392204664	 2.05060506	 0.092884
42.2426	84.2845	98.9394	245.6837	250.1291	261.5376	292.5102	320.5208	388.9324	448.2962	479.0928	637.5029	686.4003	714.6725	744.9837	750.2305	796.5827	876.0287	901.4383	993.94	1043.1654	1055.8463	1079.7122	1112.0416	1152.7184	1172.3263	1187.3032	1255.4314	1308.3101	1321.7337	1353.8492	1382.2526	1412.1219	1439.1985	1475.0139	1490.182	1499.8795	1500.7659	1510.281	1570.0472	1626.975	3016.8633	3026.6892	3029.0436	3055.7376	3080.8748	3097.2693	3100.9916	3254.4861	3683.1693	3846.8251
CCCC1=NNC(O)=C1	CCCc1n[nH]c(O)c1	
InChI=1S/C6H10N2O/c1-2-3-5-4-6(9)8-7-5/h4H,2-3H2,1H3,(H2,7,8,9)	InChI=1S/C6H10N2O/c1-2-3-5-4-6(9)8-7-5/h4H,2-3H2,1H3,(H2,7,8,9)
