14
gdb 27075	3.28697	1.42196	1.00701	1.0506	67.77	-0.1914	0.0024	0.1937	1084.5746	0.102986	-470.06074	-470.053128	-470.052184	-470.093267	28.282	
N	-0.527434282	 0.8220510508	-0.9719300451	-0.608134
C	-0.251768067	-0.3279143547	-0.2745777171	 0.316324
C	-0.9839337623	-1.243019684	 0.4315901028	 0.251653
N	-2.3646097211	-1.3782500794	 0.6410946371	-0.390075
C	-3.3657421805	-0.8337591522	-0.0888240433	 0.13927
O	-3.2294030692	-0.0997478807	-1.0545556133	-0.339076
N	-0.1298885034	-2.1518027907	 1.0358548248	-0.311583
C	 1.0494051581	-1.7775389264	 0.6759099012	 0.059958
O	 1.0599933748	-0.6770368531	-0.1267664929	-0.171776
H	 0.1229574001	 0.9955812922	-1.7276225662	 0.254224
H	-1.5009134434	 0.8234611116	-1.2746568546	 0.285679
H	-2.6104553848	-2.0073391511	 1.3914458705	 0.267956
H	-4.3579253285	-1.1271505983	 0.297143602	 0.093155
H	 2.004236479	-2.2122760641	 0.9190098441	 0.152425
53.3438	211.8846	221.0296	272.374	307.0324	364.5701	402.4732	463.6835	579.8423	611.6426	650.2578	707.5892	737.0941	761.7286	816.7403	869.7131	954.6692	1006.3318	1040.7569	1125.4962	1164.6501	1227.4374	1284.066	1334.086	1425.346	1441.4768	1538.7677	1584.0687	1617.0572	1712.358	1774.0195	2980.2909	3293.2194	3447.435	3603.857	3619.4141
NC1=C(NC=O)N=CO1	Nc1c(NC=O)nco1	
InChI=1S/C4H5N3O2/c5-3-4(6-1-8)7-2-9-3/h1-2H,5H2,(H,6,8)	InChI=1S/C4H5N3O2/c5-3-4(6-1-8)7-2-9-3/h1-2H,5H2,(H,6,8)
