18
gdb 131810	5.63044	0.67019	0.63963	1.9286	73.93	-0.2565	0.0121	0.2686	1720.022	0.149316	-435.289601	-435.280656	-435.279711	-435.324891	31.394	
O	-0.055868219	 1.4264019839	-0.1549194973	-0.421814
C	 0.0103435309	 0.0148780984	-0.0199090391	-0.074129
C	-1.4137478118	-0.5233979468	-0.0231082719	-0.163251
C	-1.4616089549	-2.0525287129	 0.1298855012	-0.306544
C	-2.8541719583	-2.5908706054	 0.0623731354	 0.349383
N	-3.4503925442	-3.1691795467	 1.0959204676	-0.268187
N	-4.6700996651	-3.4783883664	 0.5899552068	-0.178799
C	-4.7555465587	-3.0831901816	-0.6946722559	 0.015533
N	-3.6264427541	-2.5170015411	-1.0668215353	-0.298786
H	 0.8419004648	 1.7705413929	-0.1545576285	 0.284382
H	 0.5799603343	-0.4392548123	-0.8479393249	 0.083774
H	 0.5162951815	-0.2725305505	 0.9170678963	 0.0825
H	-1.972352443	-0.0491391766	 0.7916908336	 0.110201
H	-1.9038657449	-0.2324700907	-0.9577525554	 0.127452
H	-0.8679184478	-2.515380341	-0.6683367369	 0.115742
H	-1.0218737584	-2.3578444668	 1.0843539208	 0.117581
H	-5.3519551162	-3.9404449471	 1.1683094455	 0.280827
H	-5.6363936053	-3.2281092993	-1.3023371319	 0.144136
37.3013	78.7387	93.7826	124.4242	251.9873	258.6678	325.9055	346.3506	473.0534	532.7867	681.0268	722.1008	760.0583	798.6943	856.9787	870.7798	994.4381	1000.8532	1023.9815	1039.0762	1081.9744	1087.037	1105.9142	1169.5017	1210.4321	1232.1888	1285.897	1297.7408	1306.7611	1313.7133	1359.5436	1375.3005	1464.5243	1470.5994	1472.6889	1491.9923	1501.4875	1528.548	1562.4975	2954.2504	2979.3406	3030.0159	3048.9775	3081.2571	3103.6124	3256.4031	3668.2484	3830.5868
OCCCC1=NNC=N1	OCCCc1n[nH]cn1	
InChI=1S/C5H9N3O/c9-3-1-2-5-6-4-7-8-5/h4,9H,1-3H2,(H,6,7,8)	InChI=1S/C5H9N3O/c9-3-1-2-5-6-4-7-8-5/h4,9H,1-3H2,(H,6,7,8)
