22
gdb 100633	2.41741	1.08485	0.94509	4.9934	82.07	-0.2776	0.0418	0.3193	1363.1145	0.191463	-404.366261	-404.355107	-404.354162	-404.402262	40.502	
C	-0.1337890466	 1.5495971005	-0.0253309757	-0.426423
C	 0.0653556149	 0.0272404186	-0.0438880382	 0.036818
C	 0.7495457325	-0.3968661308	-1.3503817821	-0.103916
O	-0.1514350491	-0.0929997585	-2.4064441221	-0.41909
C	 0.7943653385	-0.5288329679	 1.2280800671	 0.066666
C	 0.7251648385	-2.0752859441	 1.2898418707	-0.415514
C	 2.2692995116	-0.0719719289	 1.3287068028	-0.413455
C	 0.0782910561	-0.025601834	 2.4152067834	 0.280501
N	-0.4791136169	 0.3519018179	 3.35516116	-0.354692
H	 0.8240498272	 2.081470339	-0.0158408014	 0.111827
H	-0.6706648706	 1.851214529	-0.926474083	 0.139908
H	-0.708317887	 1.8693879945	 0.8471148676	 0.141348
H	-0.9271892678	-0.4404472242	-0.0576735497	 0.099881
H	 1.6970385495	 0.1502455891	-1.4735658715	 0.090429
H	 0.9840945761	-1.4706292841	-1.3428856994	 0.087453
H	 0.2917934612	-0.2691725484	-3.2411572552	 0.289356
H	 1.3251637384	-2.521598779	 0.4932995144	 0.123711
H	 1.1144046652	-2.4368182934	 2.2452700045	 0.134432
H	-0.305184763	-2.4264816793	 1.1877135762	 0.135434
H	 2.3587484783	 1.0162030144	 1.311680107	 0.137541
H	 2.7152765526	-0.4316420006	 2.2596694883	 0.134515
H	 2.8482850604	-0.4822913799	 0.4968535565	 0.12327
46.7852	99.6453	143.7749	183.3473	224.2304	232.041	239.6031	252.5244	255.9783	287.2917	320.7682	343.1467	404.4606	428.3745	476.3042	587.3208	610.6107	717.6595	835.5855	909.7993	937.4562	944.8924	949.1675	1020.4956	1046.3213	1074.379	1094.169	1161.0921	1182.9428	1215.9388	1230.4413	1265.4996	1281.1613	1343.7131	1367.2971	1399.7873	1408.0721	1423.6454	1459.1562	1482.5908	1489.4403	1496.3388	1502.9336	1504.9784	1514.7138	1525.8384	2349.5027	2978.77	3013.1152	3034.1569	3044.4192	3049.2361	3052.4311	3114.5173	3120.06	3123.9494	3128.8281	3135.2789	3141.2105	3835.4965
CC(CO)C(C)(C)C#N	C[C@@H](CO)C(C)(C)C#N	
InChI=1S/C7H13NO/c1-6(4-9)7(2,3)5-8/h6,9H,4H2,1-3H3	InChI=1S/C7H13NO/c1-6(4-9)7(2,3)5-8/h6,9H,4H2,1-3H3/t6-/m0/s1
