14
gdb 24911	4.94537	1.33327	1.05705	2.0452	69.29	-0.2127	-0.007	0.2057	1047.8534	0.103113	-436.70844	-436.701879	-436.700935	-436.739539	25.596	
N	-0.075773389	 1.2210875556	 0.0073020179	-0.517498
C	-0.03217526	-0.0332430838	 0.0007094101	 0.393737
C	-1.2601845141	-0.9732307873	 0.0025568006	-0.453137
C	-0.5437614712	-2.273498412	-0.0078793668	 0.252099
C	 0.7893897529	-2.0954063022	-0.0141439367	 0.313948
O	 1.1629193556	-0.7693676232	-0.0094368013	-0.261552
C	 1.4110408162	-3.3744273424	-0.0239466973	-0.35827
C	 0.3523377227	-4.2429106084	-0.0227144196	-0.002172
O	-0.8521240917	-3.5907626963	-0.0128813899	-0.189853
H	 0.8633101866	 1.6219189835	 0.004284347	 0.234928
H	-1.8738638895	-0.7805291043	 0.8893634626	 0.156968
H	-1.8833516291	-0.7715944637	-0.8756054519	 0.156968
H	 2.4565051359	-3.634137978	-0.0308701791	 0.13013
H	 0.2933026348	-5.3181700475	-0.0278770756	 0.143704
106.6848	175.4734	327.8156	338.7151	526.6822	542.3619	544.3927	607.3669	682.3252	717.9701	731.2985	793.2821	811.0821	832.0589	893.4751	922.1923	975.0842	991.717	1042.3671	1119.4874	1143.6646	1160.3077	1232.3748	1254.9401	1300.1581	1380.8992	1466.9538	1493.8949	1505.6913	1678.6393	1797.5404	3043.1449	3073.762	3270.4497	3293.5169	3483.7871
N=C1CC2=C(O1)C=CO2	[NH][C]1Cc2c(O1)cco2	
InChI=1S/C6H5NO2/c7-6-3-5-4(9-6)1-2-8-5/h1-2,7H,3H2	InChI=1S/C6H5NO2/c7-6-3-5-4(9-6)1-2-8-5/h1-2,7H,3H2
