16
gdb 68650	2.57309	2.03961	1.55804	2.4066	69.22	-0.2569	-0.0178	0.2391	883.9907	0.12631	-437.895817	-437.889092	-437.888147	-437.926478	28.145	
O	 0.093041432	 1.3805338159	 0.0446650952	-0.501855
C	 0.0273042903	 0.0008159531	 0.0527387142	 0.310003
C	-1.3539910136	-0.7274885451	-0.0424057498	-0.274637
C	-0.658699746	-2.0960890942	-0.0383614955	 0.034662
O	 0.2531362655	-1.9437814086	-1.2161674219	-0.258853
C	 0.6732151016	-0.6604234349	-1.1672746176	 0.40115
N	 1.4219201751	-0.028818935	-1.9635223623	-0.598163
C	 0.2053543481	-1.9991568347	 1.2078334836	-0.086825
C	 0.6307912052	-0.7345343356	 1.2540038438	-0.125476
H	 0.6374868647	 1.6124535506	-0.7252398626	 0.296734
H	-1.9807863082	-0.5479240986	 0.8309282262	 0.121757
H	-1.8977109625	-0.5206517399	-0.9681016913	 0.116714
H	-1.237203727	-2.9992644881	-0.2090706005	 0.096114
H	 1.7449283317	-0.6024502605	-2.7418981404	 0.231086
H	 0.4820005037	-2.831118231	 1.8402352746	 0.11506
H	 1.3348674993	-0.2677203834	 1.9294178642	 0.122528
158.7873	282.5961	356.5977	398.3006	435.2643	445.5787	462.1099	557.419	635.5415	663.8702	691.3943	734.5597	780.5354	822.1085	851.4265	871.4391	924.5597	933.1905	946.7612	959.3645	1035.4073	1059.1848	1081.0299	1087.596	1140.558	1222.0708	1244.6717	1274.1619	1287.0949	1342.5735	1377.3393	1428.1936	1490.8975	1635.6222	1786.6835	3073.9937	3149.4618	3169.1903	3219.6892	3244.0887	3497.1146	3685.8377
OC12CC(OC1=N)C=C2	O[C@@]12C[C@@H](O[C]1[NH])C=C2	
InChI=1S/C6H7NO2/c7-5-6(8)2-1-4(3-6)9-5/h1-2,4,7-8H,3H2	InChI=1S/C6H7NO2/c7-5-6(8)2-1-4(3-6)9-5/h1-2,4,7-8H,3H2/t4-,6-/m0/s1
