17
gdb 49042	2.50122	1.68993	1.26592	1.3362	72.82	-0.2518	-0.0328	0.219	1013.8856	0.136391	-421.824068	-421.816505	-421.815561	-421.856527	28.568	
O	-0.2704816295	 0.0813662153	 0.1113974068	-0.256583
C	-0.0317051082	 1.2622880461	 0.1183187261	 0.097868
C	 1.3349444834	 1.8719395381	-0.0331944345	 0.163633
C	 1.53687866	 3.1812335096	 0.7756037856	-0.127667
O	 1.5596152716	 4.0046829017	-0.4044351832	-0.287633
C	 1.486085539	 2.8385173872	-1.2626170123	 0.05199
C	 2.7892506425	 2.4234517064	-1.8828794416	-0.087113
C	 3.3341128138	 1.3836766941	-1.2506196474	-0.060716
C	 2.5016074831	 0.8752380743	-0.0969137589	-0.353695
H	-0.8508879263	 2.0101261444	 0.2273951102	 0.085562
H	 0.7127458596	 3.4587540343	 1.445002879	 0.107906
H	 2.480302922	 3.217769084	 1.3338183098	 0.110484
H	 0.65711591	 2.9366386926	-1.9732328236	 0.088473
H	 3.2075898297	 2.9351751133	-2.741767082	 0.107593
H	 4.2762594444	 0.9189247878	-1.522279126	 0.106962
H	 3.0703900428	 0.8429596441	 0.8407686277	 0.112167
H	 2.127653722	-0.1403462033	-0.2701650158	 0.140767
79.5888	103.3578	229.2583	249.8804	301.379	387.4865	446.0987	522.3866	624.0991	716.5383	751.111	797.5438	876.2354	896.0561	932.1	952.6468	969.3192	975.0714	981.7461	1024.1603	1030.1714	1089.7827	1107.6553	1141.5672	1162.3409	1225.7586	1241.3384	1271.1432	1308.6356	1341.8526	1358.3478	1370.2506	1430.2063	1484.8382	1519.4728	1678.2973	1822.3923	2867.0227	3011.0085	3030.3398	3039.4401	3057.2206	3067.8109	3184.1242	3211.7631
O=CC12COC1C=CC2	O=C[C@]12CO[C@H]1C=CC2	
InChI=1S/C7H8O2/c8-4-7-3-1-2-6(7)9-5-7/h1-2,4,6H,3,5H2	InChI=1S/C7H8O2/c8-4-7-3-1-2-6(7)9-5-7/h1-2,4,6H,3,5H2/t6-,7+/m0/s1
