16
gdb 54666	3.49254	1.27433	0.98903	2.4939	71.42	-0.2472	-0.0385	0.2087	1152.3141	0.12501	-437.907461	-437.899686	-437.898742	-437.940081	29.702	
N	-0.0553609805	 1.3347672473	 0.0976777673	-0.543809
C	 0.0412489942	-0.0346614704	 0.0192409091	 0.303587
O	 1.1119184756	-0.6072121814	-0.0694681781	-0.359509
C	-1.2597951793	-0.7567380628	 0.0143829345	 0.257083
C	-1.3665008475	-2.0860494043	 0.1533205512	-0.141138
C	-2.7996971256	-2.5607172086	 0.1114175589	-0.298799
C	-3.5903850587	-1.2622671909	-0.0141743294	 0.049123
O	-3.4372750209	-0.3668794635	 1.0883379526	-0.25562
C	-2.627026561	-0.1504307783	-0.0911892417	-0.13276
H	 0.8122110254	 1.8264185885	 0.2485056866	 0.260734
H	-0.8888696215	 1.7649211189	 0.4635457297	 0.263145
H	-0.518729217	-2.7419913502	 0.3100309194	 0.133618
H	-2.9799324731	-3.2241464532	-0.7443500748	 0.12434
H	-3.076102021	-3.1232133889	 1.0113874611	 0.135952
H	-4.5627062446	-1.2438824129	-0.4986142752	 0.102307
H	-2.8182609444	 0.7775250408	-0.6226514913	 0.101747
63.8658	140.9195	190.5917	302.1759	377.518	386.8625	397.024	446.8442	533.3059	611.5605	654.0361	742.4441	766.9992	819.6378	852.9466	878.3091	880.4596	927.4003	959.0679	1011.9719	1042.6404	1094.9387	1097.9025	1121.294	1183.9124	1250.2555	1263.2488	1305.4449	1347.4617	1367.5434	1409.4054	1451.5283	1619.0412	1672.3676	1781.4232	3030.1343	3065.8078	3149.0311	3160.6072	3218.4521	3584.7492	3712.0307
NC(=O)C1=CCC2OC12	NC(=O)C1=CC[C@H]2O[C@@H]12	
InChI=1S/C6H7NO2/c7-6(8)3-1-2-4-5(3)9-4/h1,4-5H,2H2,(H2,7,8)	InChI=1S/C6H7NO2/c7-6(8)3-1-2-4-5(3)9-4/h1,4-5H,2H2,(H2,7,8)/t4-,5+/m1/s1
