21
gdb 96049	2.99504	0.98731	0.81949	1.4944	79.15	-0.2486	-0.0247	0.2238	1426.715	0.181616	-424.245439	-424.23592	-424.234976	-424.281063	34.227	
C	 0.2252610732	 1.5459808315	-0.3441192444	-0.391915
C	-0.0033167914	 0.0899147207	 0.0566534024	 0.129532
O	 0.2536875129	-0.7457117416	-1.0792209366	-0.2752
C	 1.3138657801	-1.659444584	-0.8102761064	-0.070401
C	 2.0621830134	-1.0913567465	 0.3946622827	-0.238194
C	 0.907865727	-0.456082434	 1.1885464566	-0.021341
C	 1.3276093246	 0.5562965112	 2.2625494583	-0.30924
C	 2.0597517681	-0.1154397856	 3.4034874764	 0.164894
O	 3.1511687353	 0.1946428673	 3.80443021	-0.239692
H	 1.2773240008	 1.7391759654	-0.5764105148	 0.117074
H	-0.3611194087	 1.7653001432	-1.2403542092	 0.127823
H	-0.0906483922	 2.2342028348	 0.4464613612	 0.11075
H	-1.0585298647	-0.0349367522	 0.3372780295	 0.075368
H	 0.9068873294	-2.6570362585	-0.5816285857	 0.091233
H	 1.9316910305	-1.7464369481	-1.7098069331	 0.107358
H	 2.6078107073	-1.8531645855	 0.9575909178	 0.10947
H	 2.7807453305	-0.3251156189	 0.0824604278	 0.113645
H	 0.3567266733	-1.2671154645	 1.6842063005	 0.08285
H	 1.9654182663	 1.3463100875	 1.8582309042	 0.125032
H	 0.4288742498	 1.0259363035	 2.6895866125	 0.120555
H	 1.4967027945	-0.9586463657	 3.8714197704	 0.070398
50.0741	58.5769	81.487	158.8055	195.9983	257.0581	283.5035	342.4892	408.5059	432.7809	549.1315	601.2677	695.5999	769.4237	813.7583	870.7273	873.9132	932.6883	990.251	997.2263	1023.0877	1036.0431	1068.3636	1094.4953	1132.812	1155.6852	1158.7539	1195.2428	1226.3772	1244.243	1281.4442	1311.0889	1326.564	1350.0676	1383.9611	1388.8093	1401.4114	1411.3507	1429.518	1462.1556	1486.3022	1489.4734	1498.5075	1527.649	1837.5492	2844.201	2978.2637	2993.9306	3008.404	3014.947	3038.2583	3047.0569	3070.9369	3103.0613	3106.4388	3110.9621	3119.5572
CC1OCCC1CC=O	C[C@H]1OCC[C@H]1CC=O	
InChI=1S/C7H12O2/c1-6-7(2-4-8)3-5-9-6/h4,6-7H,2-3,5H2,1H3	InChI=1S/C7H12O2/c1-6-7(2-4-8)3-5-9-6/h4,6-7H,2-3,5H2,1H3/t6-,7-/m1/s1
