17
gdb 9513	2.73125	1.96526	1.58503	4.0848	64.6	-0.2531	0.0256	0.2787	883.3658	0.142017	-401.021517	-401.013228	-401.012284	-401.053929	30.479	
C	-0.0854392822	 1.6055097191	-0.0596753401	-0.448142
C	-0.0515658459	 0.0812343061	-0.0698981119	 0.130338
C	-1.4370589504	-0.5375854328	 0.1685036961	-0.101
O	-1.9282500921	-0.194602446	 1.4477417978	-0.423697
C	 0.8116049883	-0.5851902988	-1.1912987722	-0.221939
N	 1.7095163121	-1.0601677878	-0.1291069588	-0.329032
C	 0.961188023	-0.5686194768	 0.905358063	 0.420289
O	 1.0258910429	-0.6764654123	 2.1070778091	-0.387705
H	 0.9204569988	 2.0312590444	-0.1253222875	 0.119181
H	-0.6728492502	 1.9815531267	-0.9048671309	 0.117819
H	-0.5546322735	 1.9587356656	 0.8612213085	 0.148712
H	-2.1609036798	-0.1558537149	-0.5611786165	 0.106264
H	-1.37935115	-1.6311685424	 0.0357723127	 0.085647
H	-1.2421411687	-0.4328679956	 2.0874867941	 0.299641
H	 0.3121162796	-1.3892125475	-1.7424637938	 0.1151
H	 1.2799648545	 0.109769028	-1.8943008733	 0.115923
H	 2.4651423037	-1.7299621551	-0.1402854463	 0.252601
113.9494	133.4449	187.5565	218.7247	240.7822	288.4591	317.08	422.2313	490.717	516.3959	530.1103	721.0755	759.6434	777.7699	874.0421	923.2268	978.3309	984.9217	999.7741	1079.7598	1134.189	1153.385	1183.6348	1204.9373	1251.5678	1269.0366	1318.3124	1379.2107	1390.5105	1409.9191	1451.972	1488.4352	1499.8544	1510.045	1522.0425	1863.5216	2959.5739	3034.259	3039.107	3054.2887	3090.1247	3100.4228	3131.2263	3602.49	3738.2106
CC1(CO)CNC1=O	C[C@@]1(CO)CNC1=O	
InChI=1S/C5H9NO2/c1-5(3-7)2-6-4(5)8/h7H,2-3H2,1H3,(H,6,8)	InChI=1S/C5H9NO2/c1-5(3-7)2-6-4(5)8/h7H,2-3H2,1H3,(H,6,8)/t5-/m0/s1
