17
gdb 62205	5.42995	0.63757	0.60701	5.0411	76.73	-0.2457	0.0101	0.2558	1755.9175	0.133853	-417.960586	-417.950496	-417.949552	-417.996774	35.286	
O	-0.4667349682	 1.1123604998	-0.1959138673	-0.418466
C	 0.1451942225	-0.1768003144	-0.2423687618	-0.065126
C	 1.2857740272	-0.1855132741	-1.2957305925	-0.169011
N	 0.8926993124	 0.3026661662	-2.6076765023	-0.282262
C	 0.0449723961	-0.6120373083	-3.3655397719	-0.278773
C	-0.2243875032	-0.0802126417	-4.7056288568	 0.264765
N	-0.4584281023	 0.3411121412	-5.7550667952	-0.297397
C	 0.6375906724	-0.6090121573	 1.0628099777	 0.286918
C	 1.0988639419	-0.9248285486	 2.1273468617	-0.42831
H	 0.0847809793	 1.6776917012	 0.3570872746	 0.29114
H	-0.6541557688	-0.8538792696	-0.567772484	 0.120774
H	 2.0947620278	 0.4521441735	-0.9204213513	 0.114173
H	 1.6925206756	-1.1988133944	-1.3882787045	 0.119219
H	 0.4171883764	 1.193247724	-2.4948265287	 0.239347
H	 0.5732787571	-1.5670210113	-3.477026004	 0.156692
H	-0.9297566534	-0.8437190978	-2.9020400872	 0.138486
H	 1.4833557671	-1.2179970883	 3.0734174534	 0.207831
44.2547	54.1283	91.5926	146.1955	184.0464	232.6929	254.8	304.6802	378.8857	391.8631	476.0461	505.7868	567.434	585.3761	640.4018	687.5961	759.5094	852.497	934.4451	970.4614	982.9981	1017.1724	1070.4208	1118.8087	1153.8732	1219.9264	1266.4527	1296.1094	1322.524	1377.9311	1388.7471	1417.6383	1470.1989	1488.2734	1511.7411	2231.4683	2369.3731	2953.7406	3031.4375	3041.7852	3051.5577	3084.7089	3500.8986	3521.5063	3802.6413
OC(CNCC#N)C#C	O[C@@H](CNCC#N)C#C	
InChI=1S/C6H8N2O/c1-2-6(9)5-8-4-3-7/h1,6,8-9H,4-5H2	InChI=1S/C6H8N2O/c1-2-6(9)5-8-4-3-7/h1,6,8-9H,4-5H2/t6-/m1/s1
