25
gdb 111056	2.93532	1.03941	0.90297	0.2689	93.73	-0.2777	0.0928	0.3705	1469.0116	0.229109	-352.319898	-352.310157	-352.309213	-352.354715	37.423	
C	-0.0089354076	 1.6067064916	 0.0029426723	-0.372582
C	 0.0242674185	 0.088709903	 0.2229462286	-0.236051
C	-1.3538233703	-0.5477111267	 0.0862205794	 0.024243
C	-2.0356376866	-0.7872122285	-1.3002896558	-0.060436
C	-1.0786122635	-1.9910475673	-1.5229684816	-0.268426
C	-1.5497566021	-2.101228729	-0.0337096456	 0.345168
C	-1.1604651783	-3.1449349858	 0.9857453548	-0.313594
C	-1.5066424655	-4.5767323356	 0.5604740655	-0.379136
C	-2.9824779689	-1.779390506	-0.5701933901	-0.260178
H	 0.9809946866	 2.0515915453	 0.1449091329	 0.108958
H	-0.343392265	 1.8520691609	-1.010671841	 0.116659
H	-0.6966687573	 2.0936079034	 0.7033930372	 0.112747
H	 0.7440662611	-0.3604325714	-0.4691000908	 0.095493
H	 0.4054618267	-0.1205205302	 1.2316501923	 0.094349
H	-2.0327921002	-0.0915409893	 0.8201062628	 0.051152
H	-2.3232092964	-0.0338606074	-2.0353586876	 0.064078
H	-1.439067751	-2.7698833738	-2.2013789637	 0.085168
H	-0.0239617195	-1.7800702234	-1.7086175673	 0.088143
H	-0.0819739468	-3.0700988708	 1.1793091253	 0.096934
H	-1.6576483295	-2.9125593665	 1.937244387	 0.095023
H	-1.2083703285	-5.2992236119	 1.3262661369	 0.110188
H	-2.5830039796	-4.6908008448	 0.3945977889	 0.117926
H	-0.9971268369	-4.8468560193	-0.3704556061	 0.117838
H	-3.6887282518	-1.3504476872	 0.1475406116	 0.082283
H	-3.4568958777	-2.5439957192	-1.1919227361	 0.084053
64.7208	76.1733	127.1727	198.5716	212.9666	218.7466	288.0946	310.7089	357.9087	485.6376	544.669	585.728	618.8352	741.7975	755.5833	802.1041	825.4968	858.3887	903.4894	927.8612	944.4847	962.4149	996.5043	1011.9403	1016.1404	1055.9301	1063.8892	1069.7024	1114.6321	1134.2366	1146.4339	1155.2586	1173.9378	1190.9774	1221.4256	1228.6571	1242.943	1289.2318	1306.3461	1309.4218	1349.3457	1373.5709	1408.3944	1408.9936	1431.3089	1479.9733	1484.7778	1498.5875	1498.8947	1501.4606	1506.8084	1509.8855	1545.4091	3002.6461	3010.2963	3018.8983	3030.1111	3034.2675	3040.047	3041.7184	3055.1423	3066.9143	3096.8326	3098.8421	3102.1377	3102.665	3104.0773	3106.1684	3119.8101
CCC1C2CC1(CC)C2	CC[C@H]1[C@H]2C[C@]1(CC)C2	
InChI=1S/C9H16/c1-3-8-7-5-9(8,4-2)6-7/h7-8H,3-6H2,1-2H3	InChI=1S/C9H16/c1-3-8-7-5-9(8,4-2)6-7/h7-8H,3-6H2,1-2H3/t7-,8-,9+/m0/s1
