17
gdb 79472	2.55822	1.87395	1.48916	1.1663	66.21	-0.2263	0.0695	0.2958	918.7759	0.136657	-458.91012	-458.90295	-458.902006	-458.941215	29.457	
O	 0.0372697793	 1.5100858642	 0.14337096	-0.439505
C	 0.0213531014	 0.1110656908	 0.0098088184	 0.099906
C	-1.3400383877	-0.5778686643	-0.041002731	-0.112288
C	-1.9788456761	-0.3747010113	-1.4752063611	 0.069737
C	-0.7796350339	 0.1943493553	-2.2528165785	-0.279904
C	 0.2496095896	-0.5468862083	-1.3741177431	 0.309655
O	 1.5613644951	-0.7167355937	-1.7984564606	-0.494203
C	-0.727299565	-1.7293854132	-0.8718355926	 0.022256
O	-1.8521914692	-1.8053029021	-1.7558668901	-0.297904
H	 0.9518599465	 1.8042721109	 0.0755218881	 0.290168
H	 0.6515694938	-0.3773487597	 0.767389662	 0.076791
H	-1.9945505164	-0.7175125956	 0.814909131	 0.083862
H	-2.9801951258	 0.0195486144	-1.6381269849	 0.085934
H	-0.801281109	-0.1427976207	-3.2924259297	 0.095377
H	-0.6652962657	 1.2770071071	-2.1938440662	 0.116674
H	 1.5514298505	-1.0529374517	-2.7010894792	 0.284567
H	-0.3248268975	-2.673874002	-0.5106890426	 0.08888
195.9779	238.7961	273.7769	294.8811	321.9647	369.4022	483.1814	538.8212	600.949	624.0257	711.2166	750.7899	815.7266	826.9001	846.7967	879.6335	930.4397	939.0426	984.368	1021.6029	1029.3291	1079.9838	1102.5431	1113.2775	1135.8602	1152.5602	1185.7096	1215.9018	1235.2736	1262.6756	1273.6108	1291.7849	1321.2391	1357.0198	1386.4003	1443.3612	1476.0592	3004.19	3070.8577	3136.8667	3141.1454	3142.878	3160.8473	3806.4681	3811.3827
OC1C2C3CC1(O)C2O3	O[C@H]1[C@H]2[C@H]3C[C@]1(O)[C@@H]2O3	
InChI=1S/C6H8O3/c7-4-3-2-1-6(4,8)5(3)9-2/h2-5,7-8H,1H2	InChI=1S/C6H8O3/c7-4-3-2-1-6(4,8)5(3)9-2/h2-5,7-8H,1H2/t2-,3-,4+,5-,6-/m1/s1
