16
gdb 51050	2.29856	1.50965	1.16456	3.2497	65.68	-0.2545	-0.0396	0.2149	1076.7813	0.122742	-475.021792	-475.013024	-475.01208	-475.056089	30.621	
O	-0.1194422987	 0.1755214048	-0.8190354114	-0.320906
C	-0.1019477376	 1.1658651934	-0.1215331211	 0.154847
N	 1.038420888	 1.8223180341	 0.2558122719	-0.339339
C	 2.3220690664	 1.1964464035	 0.0665471315	 0.166989
C	 2.6815334003	 0.7205080525	-1.3633103568	-0.100534
O	 3.9531581776	 1.405655119	-1.3077359974	-0.268313
C	 3.5494455672	 2.1288576145	-0.137228365	-0.125445
C	 2.6203322314	 0.139400251	 1.1211449956	 0.153126
O	 1.9251554043	-0.0731792006	 2.0774643172	-0.261498
H	-1.0155914364	 1.6683464917	 0.2477535915	 0.094058
H	 0.951813311	 2.4667687397	 1.0287167757	 0.254563
H	 2.7925228497	-0.3562216216	-1.5143097076	 0.129183
H	 2.0152155575	 1.1339551089	-2.1253779523	 0.131779
H	 3.2502026458	 3.1627199518	-0.3570995038	 0.112825
H	 4.3196259524	 2.12582402	 0.6424529589	 0.118178
H	 3.5699983009	-0.4130605526	 0.9449543532	 0.100487
53.1669	104.8956	123.5766	155.3347	192.779	294.9621	329.8162	405.8705	411.9562	504.915	518.7528	732.9722	802.1567	845.8789	906.6565	938.9508	990.487	1015.7904	1029.4991	1034.4152	1114.5559	1148.0376	1152.4584	1165.1608	1221.127	1288.5403	1301.7007	1379.416	1413.0675	1426.8744	1500.0432	1501.6619	1526.8958	1800.2837	1840.2659	2893.076	2961.9583	3006.5776	3059.0775	3065.2342	3114.6354	3604.2058
O=CNC1(COC1)C=O	O=CNC1(COC1)C=O	
InChI=1S/C5H7NO3/c7-1-5(6-4-8)2-9-3-5/h1,4H,2-3H2,(H,6,8)	InChI=1S/C5H7NO3/c7-1-5(6-4-8)2-9-3-5/h1,4H,2-3H2,(H,6,8)
