15
gdb 67366	3.03129	1.9374	1.35976	4.0524	66.31	-0.2398	0.0032	0.243	897.6916	0.113578	-453.876132	-453.869414	-453.86847	-453.906853	27.707	
O	 0.1037316008	 1.3879067932	-0.0243080985	-0.48038
C	 0.0439915137	 0.0265664721	-0.0021157957	 0.382359
C	 0.0147349043	-0.8305630416	 1.319131718	 0.007151
O	-1.4116297785	-0.5682707479	 1.5259677331	-0.314534
C	-1.3069796224	-0.8040287671	 0.0876832931	-0.014412
C	-0.3182302684	-1.9901961861	 0.3427473415	-0.048786
N	 0.7355846746	-2.0455346697	-0.6657383033	-0.358893
C	 0.9180865982	-0.7016649909	-0.9935990978	 0.317845
N	 1.5939344853	-0.0846997379	-1.8720117898	-0.577291
H	 0.6989964424	 1.6082819793	-0.7603022912	 0.300287
H	 0.6818148105	-0.8085496652	 2.1806897884	 0.106811
H	-2.2133876881	-0.7388181815	-0.5152784422	 0.102213
H	-0.6821792189	-2.9356292475	 0.7324411057	 0.110307
H	 0.6762013798	-2.7259546768	-1.4105887573	 0.247035
H	 2.1215470965	-0.7017178024	-2.4892147339	 0.220287
158.5161	272.8885	352.0687	365.2736	403.8244	455.9643	477.3986	577.3723	631.5234	647.5417	703.7121	729.2715	805.7145	846.1042	869.7427	893.7048	908.0378	921.307	1009.8277	1019.9812	1046.9512	1082.9446	1125.1026	1142.4837	1159.8061	1190.2058	1230.595	1281.8424	1341.2995	1374.3901	1419.0569	1450.5078	1777.5316	3117.7504	3128.9456	3184.9853	3482.8142	3593.1762	3674.6907
OC12C3OC1C3NC2=N	O[C@@]12[C@H]3O[C@@H]1[C@H]3N[C]2[NH]	
InChI=1S/C5H6N2O2/c6-4-5(8)2-1(7-4)3(5)9-2/h1-3,8H,(H2,6,7)	InChI=1S/C5H6N2O2/c6-4-5(8)2-1(7-4)3(5)9-2/h1-3,8H,(H2,6,7)/t1-,2-,3+,5-
