23
gdb 60587	2.84142	1.05636	0.82565	2.019	85.04	-0.2403	0.0802	0.3205	1448.5193	0.205521	-388.256359	-388.246785	-388.24584	-388.291323	35.541	
C	-0.0300962636	 1.5830740108	 0.1222824002	-0.397364
C	 0.036150411	 0.0558107129	-0.037617035	-0.024841
C	 0.7047857764	-0.3234086731	-1.3490111281	 0.044887
C	 0.3413222255	-1.5886870197	-2.0875123823	-0.275768
C	-0.0524799575	-0.2449144975	-2.6500743168	-0.279537
C	 0.7516725306	-0.5800094952	 1.1545360756	 0.002181
C	 0.0873804135	-0.5030187376	 2.5488326629	-0.097641
O	 0.2110647029	-1.9268155288	 2.7354010014	-0.274579
C	 0.6590989244	-2.1072444625	 1.3761502819	-0.092771
H	 0.976705683	 2.0166212802	 0.14696753	 0.112595
H	-0.568507353	 2.0407154519	-0.712774548	 0.11771
H	-0.5379922097	 1.8690048289	 1.0493215998	 0.11426
H	-0.9936330411	-0.3322475953	-0.0596399339	 0.065814
H	 1.7531412474	-0.0346083853	-1.4020947105	 0.078191
H	 1.129607673	-2.1461514339	-2.5813729301	 0.111475
H	-0.4480048796	-2.2092510321	-1.6768910404	 0.11266
H	-1.1019142806	 0.0292279149	-2.6071185589	 0.110343
H	 0.4638652866	 0.1192842943	-3.5312412698	 0.110842
H	 1.7896108935	-0.2314329284	 1.1842809637	 0.074733
H	 0.6133704618	 0.0620763865	 3.3270175529	 0.100593
H	-0.9653765629	-0.1838176187	 2.5299066658	 0.091787
H	-0.0993538094	-2.6120462042	 0.7624857512	 0.093922
H	 1.593148748	-2.6780418983	 1.3232518284	 0.100507
76.2925	85.0362	99.8854	141.9284	218.5013	232.2662	250.6636	345.7782	372.0175	420.1812	495.9856	729.9515	774.897	818.8139	829.4136	871.9062	895.9454	928.2692	944.9762	970.4985	989.8627	1003.9276	1030.887	1039.0514	1059.8759	1080.0163	1087.0611	1123.2699	1139.8901	1163.3107	1165.3462	1191.4699	1200.5237	1220.8588	1226.6439	1271.3196	1285.2728	1309.6219	1323.8725	1368.908	1400.0698	1409.7457	1419.6118	1469.4187	1495.7309	1498.1748	1506.5963	1510.9324	1537.0796	2986.6572	2990.1204	3009.5259	3027.712	3039.6353	3052.8313	3065.4061	3092.2887	3107.4029	3118.351	3128.7931	3134.5859	3206.6037	3221.7295
CC(C1CC1)C1COC1	C[C@@H](C1CC1)C1COC1	
InChI=1S/C8H14O/c1-6(7-2-3-7)8-4-9-5-8/h6-8H,2-5H2,1H3	InChI=1S/C8H14O/c1-6(7-2-3-7)8-4-9-5-8/h6-8H,2-5H2,1H3/t6-/m0/s1
