24
gdb 102654	2.6652	0.92055	0.77147	1.7768	87.34	-0.2265	0.0869	0.3134	1609.4737	0.215354	-405.508411	-405.497554	-405.49661	-405.545068	38.828	
C	 0.6450915916	 1.0740582254	 0.0264627903	-0.386058
C	 0.1873269958	-0.3775977205	 0.1786901528	-0.177547
C	-1.3383138672	-0.5286676867	 0.1878611266	 0.123799
C	-1.7425110423	-2.0081554848	 0.2709349364	-0.143208
N	-3.1683826165	-2.2141425832	 0.0354588497	-0.059619
C	-3.5693101121	-2.4489752721	-1.3484400189	-0.222406
C	-3.5699914961	-3.5588565379	-0.3558943378	-0.221041
O	-1.8208651493	 0.2144865399	 1.2965577419	-0.252414
C	-3.1381022421	 0.7155124768	 1.1767750514	-0.236199
H	 1.7360790392	 1.1495916346	 0.0634608843	 0.107104
H	 0.314448757	 1.4949739141	-0.9300828056	 0.106549
H	 0.2287827219	 1.6901607445	 0.8267437459	 0.133585
H	 0.5965693601	-0.9894230166	-0.63398146	 0.089964
H	 0.5780340914	-0.7942642985	 1.1157765097	 0.103502
H	-1.7463817616	-0.1028100347	-0.7457254205	 0.060228
H	-1.1281637681	-2.5895561956	-0.4422268377	 0.071051
H	-1.5088940836	-2.3690963361	 1.279219917	 0.110338
H	-4.50007046	-1.9844102659	-1.6609427249	 0.117124
H	-2.7902355698	-2.465644122	-2.1096803409	 0.108385
H	-2.7900723013	-4.3126439273	-0.4561070648	 0.108487
H	-4.500788692	-3.9211270569	 0.0710368617	 0.117851
H	-3.2442052042	 1.3523456801	 0.2840039286	 0.093803
H	-3.8791990799	-0.0887202156	 1.1233213031	 0.131547
H	-3.3227059509	 1.3284353791	 2.0635945718	 0.115176
63.8989	72.0829	97.8111	112.2218	138.7499	186.4624	214.8495	257.3792	305.263	321.4189	381.8851	417.4933	495.0297	547.6165	762.5504	770.8507	832.2452	868.5208	895.6391	934.8611	978.9966	1011.3851	1034.3705	1052.325	1085.596	1113.4776	1119.1771	1124.0708	1140.6434	1160.8469	1177.1544	1186.1899	1189.8825	1229.409	1274.5921	1299.8433	1314.5272	1321.3718	1378.4644	1393.3021	1402.1776	1405.6734	1471.576	1477.9148	1480.8823	1482.6322	1493.6033	1494.8997	1510.9996	1521.8875	1523.2815	2923.8011	2951.3366	2978.8428	3026.7291	3035.0132	3058.918	3067.1406	3068.3616	3091.6366	3095.9122	3098.8459	3111.5756	3128.062	3175.6212	3189.7124
CCC(CN1CC1)OC	CC[C@@H](CN1CC1)OC	
InChI=1S/C7H15NO/c1-3-7(9-2)6-8-4-5-8/h7H,3-6H2,1-2H3	InChI=1S/C7H15NO/c1-3-7(9-2)6-8-4-5-8/h7H,3-6H2,1-2H3/t7-/m0/s1
