18
gdb 33726	3.19038	1.57259	1.31944	1.7781	82.15	-0.2344	0.0422	0.2766	1004.8168	0.148997	-364.718918	-364.711869	-364.710925	-364.749997	29.742	
C	 0.006710571	-1.1898106793	-0.0383891458	-0.339836
C	 0.0198209439	 0.0120466479	-0.0162440757	 0.108691
C	 0.0686594037	 1.4511516986	 0.0262874738	 0.229952
C	-0.2872314177	 2.2983551548	 1.3009530373	-0.240411
C	 0.4925563347	 3.3952639138	 0.492177942	-0.084156
C	 1.4188500183	 2.238187714	 0.046004764	-0.281578
C	-0.4854179936	 3.5489008947	-0.6801378483	-0.017762
C	-0.1842152642	 2.94298204	-2.0026124976	-0.260074
N	-0.8485738308	 2.1315898476	-0.9664798228	-0.142895
H	-0.0142313552	-2.2511387691	-0.061363084	 0.181618
H	-1.352450308	 2.4542224551	 1.4825561864	 0.111517
H	 0.2274326893	 1.9601525633	 2.2017619202	 0.10688
H	 0.8781163655	 4.3002410442	 0.9588410949	 0.074103
H	 2.0519067299	 1.8874778989	 0.8612603642	 0.112988
H	 2.0155636625	 2.3215500054	-0.8616993218	 0.103645
H	-1.3059767589	 4.2538678117	-0.5742118194	 0.096941
H	-0.8452473189	 3.1799226866	-2.8318884033	 0.119772
H	 0.8338585188	 2.7298858218	-2.3055784241	 0.120605
138.7596	159.5674	337.9088	418.9048	483.4713	501.9724	528.9918	558.766	577.497	628.2263	643.3524	650.226	746.747	790.5926	831.9585	859.2376	910.9009	921.3221	955.1883	971.39	1001.2634	1037.5673	1057.5269	1071.3037	1096.7748	1114.1806	1139.0746	1157.5105	1168.884	1209.5014	1215.8337	1241.6004	1281.6289	1295.092	1364.0004	1476.0009	1500.6282	1543.6382	2241.4686	3073.9597	3093.8742	3127.088	3128.9484	3142.2549	3144.3064	3147.6117	3212.9638	3502.8379
C#CC12CC(C1)C1CN21	C#C[C@@]12C[C@@H](C1)[C@H]1CN21	
InChI=1S/C8H9N/c1-2-8-3-6(4-8)7-5-9(7)8/h1,6-7H,3-5H2	InChI=1S/C8H9N/c1-2-8-3-6(4-8)7-5-9(7)8/h1,6-7H,3-5H2/t6-,7-,8+,9?/m1/s1
