20
gdb 41917	2.25835	2.10751	1.8381	0.6099	76.53	-0.2209	0.0736	0.2945	903.6605	0.175498	-403.135557	-403.128608	-403.127664	-403.167052	28.382	
C	 0.0567022284	 1.5617098551	-0.1557278131	-0.096486
O	 1.3481830312	 2.1372516454	-0.0274084318	-0.27004
C	 2.2325329938	 1.4554521866	 0.8565757185	 0.092211
C	 1.696954209	 1.3444543952	 2.2927213639	-0.240008
C	 0.5619251216	 0.2908282757	 2.4538108981	-0.162545
N	 0.2637800459	-0.5753859386	 1.3062283294	-0.104561
C	-0.0058932665	 0.0528862363	 0.0097449924	-0.046465
C	 1.2487767471	-0.7247316071	 0.2333662672	-0.033507
C	 2.5413627273	 0.0613273704	 0.3031206293	-0.234423
H	-0.639926498	 2.0336882774	 0.558627378	 0.094081
H	-0.2951674466	 1.8245291627	-1.1595282921	 0.111268
H	 3.1349949029	 2.0736223363	 0.8595940393	 0.083242
H	 2.5426383209	 1.0725846721	 2.9339866796	 0.102195
H	 1.3574883154	 2.3306800611	 2.6237211661	 0.107924
H	 0.7986738537	-0.3745172968	 3.2903096784	 0.108626
H	-0.3774994799	 0.7874260826	 2.7197984148	 0.111104
H	-0.8326669438	-0.4054758131	-0.5311684401	 0.087054
H	 1.3253998025	-1.7353210272	-0.1647657576	 0.084086
H	 2.9838239994	 0.1458647186	-0.6952212127	 0.108012
H	 3.2688439059	-0.4496453926	 0.9463090425	 0.098232
60.1128	200.3566	336.4761	364.1479	405.7278	448.5983	542.0568	568.066	695.9238	723.0357	764.1734	782.1094	819.3789	854.4485	882.8835	915.0751	969.8139	981.2277	1020.4008	1041.2799	1057.6679	1080.0966	1096.03	1113.4092	1143.9519	1178.079	1219.6656	1259.6646	1281.3102	1285.8487	1297.3109	1319.734	1350.9524	1360.3615	1371.1142	1382.6006	1388.5145	1416.1421	1448.9728	1477.8309	1484.5283	1498.9457	1513.6885	2953.3837	3026.7015	3033.8525	3043.4368	3056.0117	3064.3165	3068.2968	3073.832	3091.3663	3105.9415	3115.9498
C1OC2CCN3C1C3C2	C1O[C@H]2CCN3[C@@H]1[C@H]3C2	
InChI=1S/C7H11NO/c1-2-8-6-3-5(1)9-4-7(6)8/h5-7H,1-4H2	InChI=1S/C7H11NO/c1-2-8-6-3-5(1)9-4-7(6)8/h5-7H,1-4H2/t5-,6+,7-,8?/m0/s1
