17
gdb 126472	6.36639	0.86898	0.77558	2.3049	74.08	-0.238	-0.0008	0.2373	1482.2745	0.13417	-455.140288	-455.130945	-455.13	-455.17719	31.85	
C	 0.1859853639	 1.4471580551	 0.1198166287	-0.379807
C	-0.0620350581	-0.0498744951	-0.0775901945	-0.307619
C	-1.4987315017	-0.4267593825	-0.0013996153	 0.431906
N	-2.4896095722	 0.3573441174	 0.2046536638	-0.182331
O	-3.6291739444	-0.4961082976	 0.1832019829	-0.258262
C	-3.2068480058	-1.7796225311	-0.0431437683	 0.530561
O	-1.8322768815	-1.7312981664	-0.1626544436	-0.228403
N	-3.859574342	-2.8368082732	-0.1371521803	-0.363957
C	-5.3066540121	-2.8023597565	 0.0015237425	-0.335984
H	 1.2559448412	 1.6578218326	 0.0527698566	 0.123806
H	-0.3316044532	 2.0352052756	-0.6417440571	 0.143468
H	-0.1723080782	 1.7795329388	 1.0969689528	 0.143466
H	 0.3185799406	-0.3882384335	-1.0493945387	 0.14473
H	 0.4764165407	-0.6415471604	 0.6732415352	 0.144733
H	-5.7640167793	-3.1836473825	-0.9179635525	 0.132087
H	-5.6040301216	-3.4778623106	 0.8107572881	 0.132024
H	-5.7181148463	-1.80770462	 0.2085184596	 0.129582
7.2908	56.8067	110.5788	148.3332	207.6634	240.0749	266.7622	304.0162	360.145	582.7179	626.6317	643.903	716.2221	731.0814	800.4842	898.854	916.9303	964.4747	1020.4122	1085.863	1113.2118	1116.9721	1138.4125	1147.99	1205.3878	1280.7792	1283.7289	1416.7496	1419.8829	1449.7628	1470.6436	1494.1333	1494.5322	1503.2096	1505.5785	1699.3867	1850.8169	3018.5867	3035.3121	3057.5058	3063.5029	3084.0396	3087.8011	3132.4384	3134.2821
CCC1=NOC(O1)=NC	CCc1noc(=NC)o1	
InChI=1S/C5H8N2O2/c1-3-4-7-9-5(6-2)8-4/h3H2,1-2H3	InChI=1S/C5H8N2O2/c1-3-4-7-9-5(6-2)8-4/h3H2,1-2H3
