15
gdb 6822	3.1328	1.75633	1.45118	3.7986	61.61	-0.2756	-0.0054	0.2702	890.5595	0.117197	-399.787747	-399.779678	-399.778734	-399.820205	29.204	
C	-0.1801072297	 1.5516042928	-0.0585946532	-0.464796
C	-0.0240242459	 0.0405776392	-0.0667167342	 0.318982
O	-1.1811167452	-0.6245832005	-0.4929232249	-0.455748
C	 1.242195891	-0.4867686902	-0.7735604749	-0.095333
O	 1.8910060046	-0.7609485811	 0.4910924373	-0.278445
C	 0.6640314653	-0.5724703641	 1.2138512821	-0.047622
C	 0.8117772956	 0.2587140375	 2.4050086857	 0.275088
N	 0.8875699062	 0.9368308174	 3.3382068663	-0.324983
H	 0.7492830245	 2.0435447904	 0.2389219515	 0.152004
H	-0.4570701685	 1.8976624308	-1.0589784387	 0.133197
H	-0.957034712	 1.8611671424	 0.6501027559	 0.132077
H	-1.9531066585	-0.1451065897	-0.1736236067	 0.289874
H	 1.0511476379	-1.4024851089	-1.3441153311	 0.120888
H	 1.8107903722	 0.2259774836	-1.3781320155	 0.118878
H	 0.1955847425	-1.5266872496	 1.4876110103	 0.125938
72.0886	139.5787	203.8309	255.8654	284.4343	307.173	360.7538	397.3739	425.8069	544.5507	566.5086	670.1442	809.3642	913.9792	933.3149	958.3943	1001.2523	1018.214	1061.247	1126.1798	1154.5517	1169.2386	1193.0399	1279.3908	1331.235	1356.6788	1402.5079	1415.4974	1487.439	1492.3371	1516.7412	2352.4441	3027.6736	3034.1591	3039.3408	3097.0415	3105.2722	3128.6085	3810.3235
CC1(O)COC1C#N	C[C@@]1(O)CO[C@H]1C#N	
InChI=1S/C5H7NO2/c1-5(7)3-8-4(5)2-6/h4,7H,3H2,1H3	InChI=1S/C5H7NO2/c1-5(7)3-8-4(5)2-6/h4,7H,3H2,1H3/t4-,5+/m0/s1
