19
gdb 104579	2.30842	1.24907	1.05133	2.0057	71.83	-0.2611	0.0071	0.2682	1249.9839	0.156097	-460.179644	-460.169571	-460.168627	-460.215545	35.709	
C	 1.8859365416	 0.8040239035	-2.2291892005	-0.477131
C	 1.6038863292	-0.6698976581	-2.0613293207	 0.408217
O	 2.3192610534	-1.5670564668	-2.4195760476	-0.341275
O	 0.4050037941	-0.8480976047	-1.4401996952	-0.300977
C	-0.0348173055	-2.1932175685	-1.2292700671	 0.431349
C	 0.6406115301	-2.8443555008	-0.0464429009	-0.135523
O	 0.3527140043	-2.1791322153	 1.1730485061	-0.420125
C	-1.4979206145	-2.3898345519	-1.4804110636	-0.31527
C	-0.4715937911	-2.9787701635	-2.4266273955	-0.30881
H	 1.1085130363	 1.2648193413	-2.8454487423	 0.151788
H	 1.8679639336	 1.3066300784	-1.2581044692	 0.147599
H	 2.859592303	 0.9351091128	-2.6993919076	 0.150822
H	 0.2639423441	-3.8660297755	 0.0621852175	 0.109069
H	 1.7217659004	-2.9032208658	-0.2316773266	 0.115883
H	 0.5929396921	-1.2542764673	 1.053680869	 0.284147
H	-2.0388859505	-3.0470320655	-0.8092168113	 0.125789
H	-2.0574415587	-1.5280038771	-1.8249236172	 0.123933
H	-0.3534616339	-2.511344705	-3.3966902534	 0.12633
H	-0.2986752581	-4.0493417104	-2.4219097538	 0.124184
51.4834	75.897	84.9483	118.916	172.4898	208.596	289.6222	310.1016	355.5639	400.6922	411.682	540.3341	608.5251	643.2669	754.2875	766.8069	865.3113	912.197	914.9605	966.9376	1001.5946	1025.9056	1053.9489	1061.6994	1063.9	1072.697	1081.8972	1182.5092	1184.2022	1243.1329	1293.8857	1351.1258	1372.1949	1393.9811	1432.0283	1458.7439	1468.2938	1475.4848	1496.9666	1507.1383	1832.5709	3017.9889	3056.6664	3086.3586	3120.8703	3141.5402	3144.1049	3169.7003	3223.8614	3236.9733	3813.9768
CC(=O)OC1(CO)CC1	CC(=O)OC1(CO)CC1	
InChI=1S/C6H10O3/c1-5(8)9-6(4-7)2-3-6/h7H,2-4H2,1H3	InChI=1S/C6H10O3/c1-5(8)9-6(4-7)2-3-6/h7H,2-4H2,1H3
