17
gdb 76601	2.49654	1.08203	1.00998	5.2144	76.46	-0.2568	-0.0813	0.1755	1287.4842	0.133549	-417.998031	-417.98842	-417.987476	-418.03291	33.655	
C	 0.4135682181	 1.8769240795	-0.6322482728	-0.421042
C	-0.0030402853	 0.4226273594	-0.6514958106	-0.00609
C	 0.9026980257	-0.6143213376	-1.2847840671	-0.147687
N	 0.6118664317	-0.6139908007	 0.1478909845	-0.089057
C	 1.7088546103	-0.3179520177	 1.0614837038	-0.321967
C	 0.3721251729	-1.7362355574	-2.0983625348	 0.32197
O	 0.8399924044	-2.0927129731	-3.1520382553	-0.280953
C	-0.8260210681	-2.4162112754	-1.54993516	 0.236393
N	-1.7756528072	-2.962545116	-1.1809783618	-0.323738
H	 1.4971857698	 2.0077245532	-0.6090996682	 0.129999
H	 0.0334944808	 2.3814888843	-1.5255700811	 0.140601
H	-0.0118198943	 2.3827856815	 0.2411154885	 0.13806
H	-1.075376611	 0.2708945275	-0.7701850205	 0.119665
H	 1.870687087	-0.2576613951	-1.6331539494	 0.111624
H	 2.4307700491	 0.4212303811	 0.686738871	 0.112246
H	 1.2908012876	 0.0499787172	 2.0029069148	 0.138394
H	 2.2471627286	-1.2470605005	 1.2674323588	 0.141582
56.1408	114.7258	131.0069	177.5911	182.4691	221.8467	281.5216	296.2261	326.65	367.5734	447.5954	525.4733	656.0897	681.3692	739.7636	786.2239	839.9727	957.8689	1016.9217	1049.0866	1090.4281	1126.9591	1152.4364	1167.6885	1189.5324	1233.4647	1278.1125	1373.1443	1409.5969	1427.8285	1462.9177	1486.8681	1488.7119	1500.1	1511.3065	1783.5272	2341.2047	3002.7408	3045.1782	3085.6868	3106.9516	3110.7559	3119.401	3130.9378	3139.7849
CC1C(N1C)C(=O)C#N	C[C@H]1[C@@H](N1C)C(=O)C#N	
InChI=1S/C6H8N2O/c1-4-6(8(4)2)5(9)3-7/h4,6H,1-2H3	InChI=1S/C6H8N2O/c1-4-6(8(4)2)5(9)3-7/h4,6H,1-2H3/t4-,6+,8?/m0/s1
