21
gdb 88595	2.71618	1.18285	0.99282	2.208	78.56	-0.2339	0.0577	0.2916	1279.5526	0.181347	-424.186542	-424.176957	-424.176013	-424.221178	36.324	
C	-0.4624607419	 1.2602844006	 0.3267513184	-0.405308
C	 0.0105731884	-0.1710897338	 0.1864626748	-0.008559
C	 1.3940347686	-0.4687908829	-0.3322079108	-0.315199
C	 1.0673139357	-0.7677850316	 1.1108570838	-0.027475
C	 1.7022179566	 0.0189889178	 2.2174146877	-0.126831
C	 0.924753924	 0.2932300267	 3.4958938122	 0.026943
O	-0.3358537871	-0.3046732534	 3.6547182662	-0.429921
C	 2.068064861	-0.6848675023	 3.5200068235	 0.076571
O	 1.7417486744	-2.0270507361	 3.6845778731	-0.42493
H	 0.3463229194	 1.9203987906	 0.6534484814	 0.121414
H	-0.8376223354	 1.6429744722	-0.6286489804	 0.121422
H	-1.2764099627	 1.3550891485	 1.056496687	 0.108414
H	-0.7644827729	-0.864100497	-0.1331190618	 0.083912
H	 1.5339007237	-1.3001070688	-1.0143356855	 0.113087
H	 2.0428336754	 0.3797072172	-0.5293573862	 0.109547
H	 0.9402764272	-1.8182143185	 1.3533469473	 0.101044
H	 2.3753628783	 0.8158448693	 1.9144395775	 0.088425
H	 1.015601163	 1.2615040187	 3.9821560675	 0.093289
H	-0.7918705872	-0.2713897125	 2.8060789052	 0.303029
H	 2.9974304067	-0.4107380303	 4.0107190637	 0.098725
H	 0.7999917247	-2.0379220942	 3.9132896354	 0.292401
43.8083	108.0779	168.9905	188.328	206.2272	267.366	285.9055	315.227	390.3243	419.5442	504.2952	567.9964	624.0975	678.2783	765.8595	778.8934	783.2351	847.9624	871.2492	911.6585	955.3721	1012.5262	1036.2041	1045.5849	1059.4791	1074.5227	1112.5189	1119.6709	1154.1939	1160.4655	1184.0234	1203.5623	1224.4855	1247.9671	1299.5734	1330.451	1346.6488	1382.5354	1393.6682	1422.701	1426.2049	1448.9079	1488.027	1489.8426	1504.2934	3021.5306	3078.204	3103.7898	3123.4086	3127.1452	3129.9195	3141.0348	3153.3958	3158.7751	3209.2703	3711.0465	3793.8287
CC1CC1C1C(O)C1O	C[C@H]1C[C@H]1[C@H]1[C@@H](O)[C@H]1O	
InChI=1S/C7H12O2/c1-3-2-4(3)5-6(8)7(5)9/h3-9H,2H2,1H3	InChI=1S/C7H12O2/c1-3-2-4(3)5-6(8)7(5)9/h3-9H,2H2,1H3/t3-,4+,5-,6+,7-/m0/s1
