23
gdb 120547	4.09873	0.69189	0.67316	1.2219	83.5	-0.2436	0.0774	0.321	1820.4501	0.204033	-425.405381	-425.394905	-425.393961	-425.442116	37.066	
C	 0.346606354	 1.1257615036	 0.2270052397	-0.380086
C	 0.0155129485	-0.3623034028	 0.0818583751	-0.18802
C	-1.4606379909	-0.6051269294	-0.1768263307	 0.174799
C	-2.0097416419	-2.04372291	-0.0612765663	-0.322011
C	-2.9526365643	-1.4493455006	 1.0029260774	 0.136636
C	-2.8944172621	-2.0129546828	 2.410466215	-0.073048
O	-3.5530144443	-3.2586772788	 2.4044891131	-0.235127
C	-3.5658535991	-3.8807450105	 3.6666761203	-0.223086
O	-2.2999597753	-0.163548073	 0.9267957727	-0.319016
H	 1.406509767	 1.2771930315	 0.451652652	 0.11033
H	 0.1172881723	 1.6741978313	-0.6933828962	 0.11285
H	-0.2418444872	 1.5680186431	 1.0358930208	 0.136798
H	 0.5860816676	-0.8043799821	-0.7461416137	 0.094948
H	 0.3058998455	-0.9021706266	 0.9918208397	 0.094648
H	-1.7660792857	-0.0959843908	-1.1030785368	 0.069235
H	-2.4835032051	-2.4580088263	-0.9514867718	 0.108992
H	-1.2923130952	-2.766284766	 0.3354169086	 0.106861
H	-4.0015062116	-1.3877986633	 0.6832774932	 0.080581
H	-1.8432321762	-2.1194746353	 2.728451419	 0.083957
H	-3.3778500185	-1.3074758006	 3.1078712761	 0.093622
H	-4.0950235155	-4.8307719325	 3.5590095355	 0.126844
H	-2.5467837866	-4.080717262	 4.0342853931	 0.10382
H	-4.0857600956	-3.266687726	 4.4190341241	 0.105475
40.3776	67.9778	92.2238	113.5766	168.2241	208.9832	227.855	236.1167	337.6872	388.2105	413.9816	443.1296	480.2197	718.5807	784.6664	833.1427	908.8312	922.9807	947.6999	979.6733	991.0786	1022.0522	1043.2843	1085.5193	1114.0159	1138.726	1157.2652	1172.9269	1191.508	1202.154	1226.1068	1251.3244	1252.1708	1269.8385	1290.4087	1315.9632	1350.0835	1371.1194	1406.0655	1410.1852	1431.9149	1474.2942	1481.5191	1484.9567	1490.9614	1498.6794	1503.8134	1509.5656	1526.2606	2951.3727	2971.9376	2982.3016	2989.2528	3014.088	3017.812	3019.0197	3036.6882	3057.6339	3072.8083	3102.982	3113.0321	3119.0713	3134.3519
CCC1CC(COC)O1	CC[C@H]1C[C@@H](COC)O1	
InChI=1S/C7H14O2/c1-3-6-4-7(9-6)5-8-2/h6-7H,3-5H2,1-2H3	InChI=1S/C7H14O2/c1-3-6-4-7(9-6)5-8-2/h6-7H,3-5H2,1-2H3/t6-,7-/m0/s1
