18
gdb 72594	2.20594	1.70111	1.47398	3.3674	73.43	-0.2547	0.0115	0.2663	1018.9764	0.145863	-439.072108	-439.063414	-439.062469	-439.105056	32.686	
C	-0.3789406301	 1.4343295337	 0.0102028532	-0.485265
C	 0.0468043007	-0.0034778847	-0.0169013351	 0.34126
C	 1.191744159	-0.5211093336	-0.8974415006	-0.127622
O	 1.701384532	-1.3453345555	 0.1779609634	-0.322345
C	 0.6940953121	-0.8654472922	 1.1080974849	 0.250741
C	 1.2364085332	-0.4700837428	 2.4488898822	-0.485371
C	-0.5762602741	-1.6941433465	 0.9855427944	 0.413625
N	-1.0420292565	-2.6942286451	 1.577762831	-0.555087
O	-1.0890609681	-0.9338806774	-0.0551202942	-0.310375
H	 0.4879436536	 2.0900905685	 0.1333737669	 0.131769
H	-0.8789598685	 1.7025560085	-0.9267969281	 0.140614
H	-1.0776914359	 1.6175200649	 0.8311860835	 0.136975
H	 0.8805088608	-1.1017443157	-1.7717843202	 0.118857
H	 1.9243811977	 0.239875668	-1.1928840192	 0.108378
H	 2.0540311028	 0.2475814183	 2.3402222091	 0.12604
H	 0.4513577516	-0.0334843763	 3.0730186689	 0.132035
H	 1.618722288	-1.3583496956	 2.9613672788	 0.156413
H	-1.9398359784	-2.9828633966	 1.1841904609	 0.229359
116.6164	172.8506	175.9748	192.7044	200.8919	280.7289	320.6632	343.3765	408.0545	519.6925	611.6203	644.5652	683.445	742.8773	839.6393	843.7284	870.8164	900.7575	930.9547	969.0461	995.8815	1006.7074	1125.6123	1133.6126	1152.2632	1179.9262	1190.5367	1255.0387	1281.7812	1339.2405	1372.1512	1410.451	1416.4183	1475.0035	1481.6535	1486.0325	1490.106	1505.0362	1825.3541	3024.0553	3039.5458	3044.2539	3084.9439	3107.6183	3117.8875	3121.5218	3124.835	3470.0644
CC12COC1(C)C(=N)O2	C[C@@]12CO[C@]1(C)[C]([NH])O2	
InChI=1S/C6H9NO2/c1-5-3-8-6(5,2)4(7)9-5/h7H,3H2,1-2H3	InChI=1S/C6H9NO2/c1-5-3-8-6(5,2)4(7)9-5/h7H,3H2,1-2H3/t5-,6-/m1/s1
