18
gdb 39408	2.49191	2.17191	1.75212	2.8968	69.96	-0.2315	0.064	0.2955	862.9461	0.151094	-439.020573	-439.014131	-439.013186	-439.051082	26.88	
C	 0.1244447278	 1.4502588609	 0.3682768332	-0.038011
O	 1.1969757982	 2.205818496	-0.1657243555	-0.245849
C	 1.5348746656	 2.0467310717	-1.5280327455	-0.092294
C	 1.964105696	 0.6059022022	-1.8698259639	 0.071231
O	 2.4180600782	-0.0872458658	-0.6723902267	-0.280708
C	 1.1785426885	-0.7942891655	-0.6176378746	 0.107496
C	-0.0959819642	 0.0597655414	-0.22143605	-0.089774
N	-0.5108128177	 0.1520889304	-1.6706120288	-0.326585
C	 0.7946263898	-0.4224156769	-2.051435402	-0.066571
H	 0.333319502	 1.3706926146	 1.4417359686	 0.107541
H	-0.8246456563	 1.9968849796	 0.2469771091	 0.093792
H	 0.7178490356	 2.3457235477	-2.201188619	 0.10793
H	 2.3794423506	 2.7252001117	-1.6797231816	 0.108032
H	 2.7315166155	 0.5979896689	-2.6499792147	 0.083749
H	 1.2675689887	-1.7936082257	-0.1859794779	 0.082145
H	-0.8183568664	-0.4733149454	 0.4051864351	 0.079461
H	-1.2568516955	-0.5072373246	-1.8701460987	 0.220775
H	 0.8359276034	-1.0768273814	-2.9221420571	 0.077638
177.3069	254.2532	312.0746	363.9796	386.9376	503.6821	638.1165	680.7044	724.5506	751.8566	793.9512	830.5324	838.6997	875.1169	893.1151	942.8484	977.9179	1008.1597	1033.1388	1039.4975	1060.7625	1068.6316	1091.6793	1171.3833	1183.8388	1200.6053	1214.8323	1252.0463	1265.0243	1296.3368	1319.5552	1329.0758	1343.6565	1368.5613	1380.8676	1403.5313	1424.589	1480.9296	1492.8234	2974.9893	3003.2528	3050.9022	3057.5965	3060.1972	3085.4204	3087.164	3113.7697	3514.2399
C1OCC2OC3C1NC23	C1OC[C@H]2O[C@H]3[C@@H]1N[C@@H]23	
InChI=1S/C6H9NO2/c1-3-6-5(7-3)4(9-6)2-8-1/h3-7H,1-2H2	InChI=1S/C6H9NO2/c1-3-6-5(7-3)4(9-6)2-8-1/h3-7H,1-2H2/t3-,4-,5+,6+/m1/s1
