16
gdb 44206	3.67857	1.26056	1.16665	3.4764	68.9	-0.2557	-0.021	0.2346	1068.5989	0.123947	-437.834687	-437.827209	-437.826265	-437.867082	28.032	
O	 0.0869220323	 0.0360848053	-0.1980763465	-0.284367
C	 0.0212338777	 1.2202661167	-0.1157196039	 0.400449
C	-1.1102390475	 2.2639408648	-0.0668852845	-0.383809
C	 0.0164351328	 3.2876722141	 0.0576508414	-0.111688
N	 1.0975517226	 2.1818347184	 0.0970996101	-0.221632
C	 0.9877169697	 3.148950896	-1.0245451297	 0.283134
C	 0.8269731885	 2.8692022522	-2.5194741	-0.146674
O	 1.8703400305	 3.8206043854	-2.8167787973	-0.273421
C	 2.1399699573	 4.063383969	-1.417906088	-0.156822
H	-1.7729499305	 2.3304528104	-0.9334410262	 0.139217
H	-1.7122420054	 2.1522133178	 0.8383875601	 0.150304
H	 0.0531036111	 4.092865018	 0.7820263057	 0.120112
H	 1.090461501	 1.8506812463	-2.8305893903	 0.129008
H	-0.1332444027	 3.1530718889	-2.9671422432	 0.114427
H	 2.0329748547	 5.1218161156	-1.1522666308	 0.113727
H	 3.1270713079	 3.7003795013	-1.1103408668	 0.128035
83.1674	121.0615	173.5455	227.5686	374.1875	422.4499	493.8867	503.4954	596.1977	674.1907	792.0291	820.3226	862.5953	880.6233	944.2087	970.5446	995.0298	1015.3324	1024.1239	1031.774	1046.0568	1106.4338	1144.3772	1149.131	1167.1573	1185.2436	1228.7695	1267.7403	1306.6546	1360.628	1453.3202	1471.3918	1500.7622	1525.9284	1921.6773	3013.9447	3027.308	3062.6271	3070.1359	3075.5238	3125.1107	3190.215
O=C1CC2N1C21COC1	O=C1C[C@H]2N1C12COC1	
InChI=1S/C6H7NO2/c8-5-1-4-6(7(4)5)2-9-3-6/h4H,1-3H2	InChI=1S/C6H7NO2/c8-5-1-4-6(7(4)5)2-9-3-6/h4H,1-3H2/t4-,7?/m1/s1
