17
gdb 30296	3.03384	1.5786	1.13388	3.1413	75.08	-0.1804	0.048	0.2284	1053.7312	0.139332	-418.026671	-418.019054	-418.01811	-418.058693	29.915	
O	 0.0883299347	 1.4592933987	 0.107636167	-0.434742
C	 0.0589774066	 0.0331635018	-0.0018931155	-0.019877
C	 0.6382890525	-0.7094507401	 1.2621310292	-0.19739
N	-0.4913009726	-1.3511221927	 2.0091898549	-0.417232
C	-1.5639223917	-1.2135515066	 1.1169704857	 0.335561
C	-1.3207109696	-0.5463027242	-0.0543390257	 0.229322
C	-2.5182873404	-0.6085919593	-0.8297565608	-0.335984
C	-3.4330173857	-1.3174306916	-0.0865186667	-0.077923
N	-2.8361642832	-1.6947346877	 1.1160844614	-0.370973
H	-0.7155222062	 1.7162435662	 0.5720589367	 0.270714
H	 0.6870163279	-0.1878017582	-0.8702981522	 0.086068
H	 1.3268334127	-1.4986173799	 0.9434473509	 0.115833
H	 1.1848724118	-0.00953366	 1.8981445435	 0.112327
H	-0.654402532	-0.9106242964	 2.9094187941	 0.229583
H	-2.6989465541	-0.1887044831	-1.8074469531	 0.098184
H	-4.4543351521	-1.5911568888	-0.2954146016	 0.115831
H	-3.2607656686	-2.267813518	 1.8237199723	 0.260696
94.7814	147.5944	251.4157	296.0946	320.728	414.2976	436.4556	488.1389	619.1344	630.6053	653.2448	679.7349	735.4825	744.4245	820.4007	843.6094	870.2522	932.3599	961.0564	1010.9793	1054.216	1072.8856	1083.8067	1148.8795	1219.3703	1242.0323	1269.5417	1291.4651	1335.9096	1344.2782	1394.151	1416.032	1443.5449	1487.5574	1508.4414	1544.9554	1625.194	3045.8892	3065.5872	3113.5252	3246.1117	3271.9945	3495.8693	3683.6533	3803.8059
OC1CNC2=C1C=CN2	O[C@H]1CNc2c1cc[nH]2	
InChI=1S/C6H8N2O/c9-5-3-8-6-4(5)1-2-7-6/h1-2,5,7-9H,3H2	InChI=1S/C6H8N2O/c9-5-3-8-6-4(5)1-2-7-6/h1-2,5,7-9H,3H2/t5-/m0/s1
