14
gdb 25483	5.70115	1.00012	0.85086	0.9494	76.71	-0.2553	-0.0521	0.2032	1263.6504	0.105071	-429.114851	-429.107687	-429.106743	-429.146969	25.955	
N	 1.0880909261	-0.0807647237	 0.3034376192	-0.45986
C	-0.0298988053	 0.4751686225	 0.071025719	 0.100072
N	-1.2030918759	-0.2220732231	 0.3098283236	-0.353699
C	-2.4733186187	 0.2352167627	 0.111434189	 0.508453
N	-2.6467566833	 1.4791296013	-0.3610556626	-0.309219
C	-3.918997358	 1.8259283358	-0.5178076474	 0.087756
N	-4.9883883147	 1.0723081376	-0.255543997	-0.258463
C	-4.6793556459	-0.1427906244	 0.2088408111	 0.087305
N	-3.4612994807	-0.6243139008	 0.4152834685	-0.323295
H	 1.8509724904	 0.5550886226	 0.0792587927	 0.235413
H	-0.2095164358	 1.4806062758	-0.3117616178	 0.143636
H	-1.1157145881	-1.1643064722	 0.6668592881	 0.274707
H	-4.1043359739	 2.828000503	-0.8993407668	 0.133277
H	-5.5100355763	-0.8057414771	 0.4418316305	 0.133918
87.6366	170.513	180.8013	208.7918	369.4418	420.0344	478.7487	565.7524	692.5144	697.8741	709.9541	829.7882	849.9718	930.7247	995.0219	1004.4365	1051.038	1088.1874	1108.1218	1178.793	1200.5477	1273.6241	1323.5544	1363.5213	1397.9482	1424.1437	1441.361	1549.5241	1599.1528	1620.4154	1732.6986	3132.9689	3160.3586	3164.5188	3512.0223	3606.5065
N=CNC1=NC=NC=N1	N=CNc1ncncn1	
InChI=1S/C4H5N5/c5-1-7-4-8-2-6-3-9-4/h1-3H,(H2,5,6,7,8,9)	InChI=1S/C4H5N5/c5-1-7-4-8-2-6-3-9-4/h1-3H,(H2,5,6,7,8,9)
