20
gdb 103419	2.59111	1.40012	1.22612	2.6166	74.45	-0.2272	0.0543	0.2815	1119.2042	0.169781	-440.233182	-440.22393	-440.222986	-440.266738	35.332	
C	-0.2236066735	 1.5317195035	-0.0116584541	-0.41147
C	 0.0393728103	 0.0384650401	-0.0236660985	-0.001992
N	 1.0003518769	-0.4965933262	-1.0641303148	-0.143745
C	 2.3338733571	 0.0382778114	-0.7364793045	-0.254673
C	 1.8323104661	-1.0928089615	 0.0635601107	-0.077408
C	 0.872083416	-0.6138752561	 1.1400700456	 0.399998
O	 1.4628563871	 0.2525393333	 2.0841895218	-0.486027
C	 0.142588685	-1.7352546909	 1.8633218853	-0.156498
O	-0.8046102311	-1.1007227075	 2.7202763743	-0.437785
H	 0.6586461804	 2.1089766052	 0.2725284671	 0.127817
H	-0.5594491496	 1.8636401061	-0.9995912611	 0.122133
H	-1.0128907642	 1.7624049779	 0.7113049206	 0.121284
H	-0.9036705758	-0.4966051463	-0.1659779427	 0.081385
H	 3.0689081843	-0.1889962604	-1.5024879422	 0.118504
H	 2.4411489357	 1.0163649764	-0.2798407546	 0.130053
H	 2.250887443	-2.092890276	 0.0004156887	 0.086455
H	 0.8096604801	 0.355875088	 2.7893785413	 0.285352
H	-0.3477411604	-2.4044881596	 1.1425206389	 0.103367
H	 0.8700443549	-2.3207923486	 2.4452536995	 0.096643
H	-1.1656834822	-1.7558471789	 3.3237104788	 0.296605
104.1024	117.9004	168.458	213.3151	226.9961	260.0195	299.6894	354.6441	393.1388	454.3996	474.9503	550.9092	565.9392	689.1738	740.1462	776.6495	794.7247	905.0461	921.3925	989.6675	1018.4156	1045.0397	1054.999	1099.4696	1100.7783	1107.7728	1108.7195	1127.4218	1182.7119	1195.9115	1227.3259	1248.9286	1277.2513	1286.7987	1336.9947	1373.8877	1403.5487	1426.3557	1454.307	1482.5489	1491.9566	1509.6571	1511.4675	2986.5154	3030.2548	3040.2453	3064.657	3104.3855	3125.032	3131.431	3153.2658	3213.9312	3760.0328	3842.0612
CC1N2CC2C1(O)CO	C[C@H]1N2C[C@H]2[C@]1(O)CO	
InChI=1S/C6H11NO2/c1-4-6(9,3-8)5-2-7(4)5/h4-5,8-9H,2-3H2,1H3	InChI=1S/C6H11NO2/c1-4-6(9,3-8)5-2-7(4)5/h4-5,8-9H,2-3H2,1H3/t4-,5+,6+,7?/m1/s1
