18
gdb 92738	2.99099	1.36078	0.96909	2.4278	74.98	-0.2354	-0.0022	0.2331	1198.2582	0.149705	-435.335276	-435.326719	-435.325775	-435.368304	32.644	
C	-0.0879235141	 1.5425169758	-0.0117739384	-0.393717
C	 0.0690975696	 0.0229270035	 0.0082707377	-0.130356
C	 0.7786520996	-0.5384681911	-1.238616556	-0.171432
N	 0.992774014	-1.9793109971	-1.1938798696	-0.310786
C	 1.2943958567	-2.4590467301	-0.0541557211	 0.428199
N	 1.6954980314	-3.7783355215	 0.1074079545	-0.570165
N	 1.3265170432	-1.7223959232	 1.1376917133	-0.382856
C	 0.7959269792	-0.4475643249	 1.2619889042	 0.427498
O	 0.9024730822	 0.1803943425	 2.2920625432	-0.361683
H	 0.8867515834	 2.0336904754	-0.0968367512	 0.123924
H	-0.7014433667	 1.8522900427	-0.8628990832	 0.112092
H	-0.5564038525	 1.8956152213	 0.9086174265	 0.138481
H	-0.9266846634	-0.4447447058	 0.0549921853	 0.108863
H	 0.1856146955	-0.3030595232	-2.1277140774	 0.109307
H	 1.7454108791	-0.0243767302	-1.3680526745	 0.105046
H	 1.5780981418	-4.2998411652	-0.750950288	 0.262198
H	 1.2932879257	-4.2544898025	 0.9042786329	 0.250106
H	 1.8237614253	-2.0808318764	 1.9409064619	 0.255283
91.4873	124.2244	190.8322	264.9899	271.3274	333.7338	353.245	392.2687	435.366	513.4054	555.6359	575.905	649.3103	705.0086	728.8234	758.1918	771.5424	901.3395	939.4068	984.8646	1056.5263	1085.0961	1119.9979	1150.0499	1196.5352	1239.1542	1254.3557	1306.1607	1313.5645	1341.2115	1398.5362	1411.6396	1484.7377	1490.11	1496.2099	1500.8388	1626.6006	1756.4101	1813.0762	2972.2207	2996.7825	3044.9018	3068.3439	3110.3131	3136.8132	3545.3223	3604.7488	3651.9464
CC1CN=C(N)NC1=O	C[C@H]1CN=C(N)NC1=O	
InChI=1S/C5H9N3O/c1-3-2-7-5(6)8-4(3)9/h3H,2H2,1H3,(H3,6,7,8,9)	InChI=1S/C5H9N3O/c1-3-2-7-5(6)8-4(3)9/h3H,2H2,1H3,(H3,6,7,8,9)/t3-/m0/s1
