17
gdb 76129	3.06679	1.34547	1.13038	1.4415	73.69	-0.2436	0.0352	0.2789	1093.8051	0.133616	-421.753682	-421.744808	-421.743863	-421.786817	33.975	
O	 0.1479309868	 1.3999251329	-0.2190453798	-0.435156
C	 0.007715927	 0.0217300439	-0.0324496988	 0.055585
C	 0.2613681905	-0.6005349747	 1.4132885709	-0.254185
C	 0.4423047463	 0.375547386	 2.4699588086	 0.308688
C	 0.5673870164	 1.2561333109	 3.2821427051	-0.437765
C	-1.111561847	-1.2946136256	 1.3042045022	-0.109656
C	-2.1981937991	-0.2565903637	 1.1618408113	-0.361624
C	-1.3775705	-0.6310021989	-0.0406801103	 0.375288
O	-1.9295655593	-1.2237432176	-1.1613472994	-0.465943
H	-0.0363762016	 1.8344593939	 0.6232949971	 0.284749
H	 0.6477428368	-0.474302335	-0.7677180414	 0.102293
H	 1.0946942996	-1.3071155487	 1.3971531087	 0.109519
H	 0.6957162364	 1.9972675629	 4.0322287399	 0.201579
H	-1.3130906662	-2.3095094255	 1.6201248078	 0.103907
H	-3.203263113	-0.6651355688	 1.1392809492	 0.119418
H	-2.11191659	 0.7087698842	 1.6538244935	 0.112166
H	-2.4615455236	-0.5644901263	-1.6205342945	 0.291138
94.7134	124.0146	185.2788	246.6654	259.9965	273.7926	328.2517	375.0621	422.5045	498.5966	558.6375	603.1271	631.6012	648.8143	706.8522	725.5824	790.8514	851.0464	912.2695	943.8766	986.2803	1013.4933	1052.989	1062.5161	1084.3077	1123.1909	1151.1678	1216.1133	1232.1614	1276.8691	1308.6799	1316.6916	1332.08	1408.7095	1439.0717	1499.5529	2219.9175	3070.7941	3083.827	3115.0581	3201.4502	3209.595	3500.1254	3766.1798	3798.4775
OC1C(C#C)C2CC12O	O[C@H]1[C@@H](C#C)[C@H]2C[C@@]12O	
InChI=1S/C7H8O2/c1-2-4-5-3-7(5,9)6(4)8/h1,4-6,8-9H,3H2	InChI=1S/C7H8O2/c1-2-4-5-3-7(5,9)6(4)8/h1,4-6,8-9H,3H2/t4-,5+,6-,7-/m0/s1
