18
gdb 116118	2.65183	1.30651	0.91373	4.5145	70.48	-0.25	0.0404	0.2904	1247.0198	0.148517	-476.233607	-476.225053	-476.224109	-476.267584	31.473	
O	-0.0254245608	 1.4157714251	 0.0124220414	-0.421151
C	 0.0324697399	 0.0096675036	 0.0704265206	-0.068149
C	-1.3474859073	-0.6197110815	-0.0804268642	 0.110181
C	-1.3732463943	-2.1360276787	-0.0155912043	-0.24676
C	-2.8296547996	-2.565397277	 0.0145268239	-0.081912
O	-3.5476197078	-1.9072031465	 1.0664094322	-0.266845
C	-3.2961571361	-0.6100648736	 1.3884700512	 0.46743
N	-4.0726557243	 0.0830301919	 2.1011048204	-0.543704
O	-2.1199971885	-0.0676071547	 1.0028211291	-0.270471
H	-0.6676092708	 1.692520445	 0.6772630253	 0.301333
H	 0.6719119407	-0.3210524363	-0.754904345	 0.111306
H	 0.4805875003	-0.3459788515	 1.0124116137	 0.096667
H	-1.7918804585	-0.2707781732	-1.0239812351	 0.097119
H	-0.872755656	-2.5661143018	-0.8888185308	 0.119728
H	-0.8547661411	-2.4836995203	 0.8848013381	 0.123779
H	-3.3170873022	-2.3384398332	-0.9435693116	 0.116696
H	-2.9450625235	-3.6336009357	 0.2107853704	 0.127489
H	-4.88728112	-0.4723146417	 2.3540312847	 0.227264
71.462	81.7426	120.5625	179.0273	252.5683	363.7913	432.4025	440.7814	473.7627	518.2542	539.9363	665.5283	707.7092	786.3263	826.8711	889.6893	933.0812	951.246	980.2324	1051.7795	1087.0985	1107.2084	1115.1899	1141.8464	1171.8156	1222.5109	1247.9999	1264.9862	1293.7082	1319.871	1376.771	1395.4058	1402.8416	1434.8961	1442.7908	1472.4334	1495.8078	1516.8672	1760.7877	2977.0147	3006.5406	3015.9207	3048.1923	3077.3913	3099.6604	3106.3992	3527.6773	3795.0083
OCC1CCOC(=N)O1	OC[C@H]1CCO[C]([NH])O1	
InChI=1S/C5H9NO3/c6-5-8-2-1-4(3-7)9-5/h4,6-7H,1-3H2	InChI=1S/C5H9NO3/c6-5-8-2-1-4(3-7)9-5/h4,6-7H,1-3H2/t4-/m1/s1
