15
gdb 43408	2.85063	1.47721	1.00301	7.7846	73.85	-0.2387	-0.0498	0.1889	1105.0292	0.114715	-416.853771	-416.846024	-416.84508	-416.886226	28.841	
O	-0.0416817876	-0.1022009856	 0.1412841604	-0.331065
C	-0.0748125406	 1.1081030473	 0.0814076486	 0.380341
C	-1.2745731835	 1.911615078	-0.0622536687	-0.230418
C	-1.2245568733	 3.2682175833	-0.0944439697	 0.029553
N	-0.0859253524	 3.9887716626	 0.0970370153	-0.301946
C	 1.0513818315	 3.3220618756	 0.711135603	-0.179
C	 1.2454655782	 1.9449698087	 0.0471149986	-0.290716
C	 2.3646291766	 1.2346282049	 0.6536844407	 0.299576
N	 3.269214549	 0.7198927697	 1.1542896548	-0.317346
H	-2.2117522588	 1.3924247859	-0.2121691494	 0.114623
H	-2.1142357238	 3.8571581216	-0.2965218062	 0.133293
H	-0.183128795	 4.9757302425	 0.2707281783	 0.261736
H	 1.9445339109	 3.9382824024	 0.5877540913	 0.14068
H	 0.8819300289	 3.1739043373	 1.7887250235	 0.135369
H	 1.4708832997	 2.0995995158	-1.0176896704	 0.155321
86.212	146.8475	180.7536	260.9779	348.7314	392.7211	414.202	490.4551	506.7073	551.2194	574.2299	657.2086	761.2949	816.3226	848.166	974.5714	979.8606	1008.6391	1060.4841	1085.5526	1098.4189	1205.3511	1217.5538	1274.3332	1280.8549	1315.5069	1382.1025	1427.844	1494.3113	1532.5307	1662.5758	1777.7059	2368.5414	2992.4405	3023.1713	3104.9384	3181.8713	3225.7016	3643.2258
O=C1C=CNCC1C#N	O=C1C=CNC[C@H]1C#N	
InChI=1S/C6H6N2O/c7-3-5-4-8-2-1-6(5)9/h1-2,5,8H,4H2	InChI=1S/C6H6N2O/c7-3-5-4-8-2-1-6(5)9/h1-2,5,8H,4H2/t5-/m1/s1
