19
gdb 41827	2.41279	1.98049	1.48859	1.171	70.1	-0.2512	0.0681	0.3194	949.8204	0.16228	-460.163299	-460.156036	-460.155092	-460.195397	28.477	
C	 0.2487148391	 1.704072265	 0.1647948909	-0.099606
O	 1.5029156906	 1.9500909607	-0.45803899	-0.275632
C	 1.9415514856	 0.7410953791	-1.0701231597	 0.205387
C	 3.170694859	 0.2047919185	-0.3390168542	-0.218431
C	 2.9150608335	-0.0511021736	 1.1478495271	-0.088064
O	 1.9212566386	-1.0418590413	 1.3566722698	-0.233869
C	 0.5890294245	-0.5906829709	 1.3934677623	-0.100414
C	 0.0985096785	 0.1739575662	 0.1274789646	 0.042516
O	 0.8515811795	-0.1623440057	-1.0295140449	-0.246218
H	 0.2575233861	 2.1126920861	 1.1810892972	 0.106423
H	-0.5543146257	 2.1911757982	-0.4041058193	 0.104304
H	 2.1632051172	 0.9304207628	-2.127660001	 0.086013
H	 3.4831908394	-0.7270969537	-0.8224032523	 0.113007
H	 3.9859226986	 0.9305593848	-0.4484657908	 0.103432
H	 3.8282802948	-0.4330631179	 1.6154266531	 0.107524
H	 2.6488843806	 0.8868109472	 1.6569772616	 0.102116
H	-0.0079461345	-1.4994369987	 1.5138597481	 0.114061
H	 0.4093913304	 0.0445682282	 2.2783664874	 0.085771
H	-0.9412261659	-0.1095565052	-0.0621254	 0.091682
52.1013	176.9115	274.4993	332.7948	366.59	369.9843	411.3269	598.9824	615.8295	747.4034	778.9663	815.2765	825.9745	898.9635	908.739	937.7533	955.2035	992.1115	1037.0332	1052.6343	1085.1149	1098.9895	1110.2927	1148.4107	1194.7513	1221.5257	1232.6249	1268.2263	1302.5498	1328.8523	1346.7377	1356.733	1370.9427	1385.9562	1394.7639	1417.1589	1425.4746	1458.6317	1490.2738	1501.0816	1527.2904	2954.7458	3002.5466	3010.7961	3028.1783	3043.2426	3061.6964	3067.2479	3073.8599	3085.1335	3089.6162
C1OC2CCOCC1O2	C1O[C@H]2CCOC[C@@H]1O2	
InChI=1S/C6H10O3/c1-2-7-3-5-4-8-6(1)9-5/h5-6H,1-4H2	InChI=1S/C6H10O3/c1-2-7-3-5-4-8-6(1)9-5/h5-6H,1-4H2/t5-,6+/m0/s1
