20
gdb 12368	2.81281	2.12093	1.44016	1.0472	76.57	-0.2406	0.025	0.2657	946.5739	0.177706	-349.019033	-349.011009	-349.010064	-349.050871	31.169	
C	-0.0939986721	 1.5175905798	-0.0982578607	-0.412441
C	 0.0383120647	 0.0059384714	 0.0105411043	 0.127057
O	 0.6832202565	-0.4443824445	-1.1796697825	-0.26301
C	 0.6197722322	-1.8472823072	-1.3413959369	-0.118237
C	 0.9232857073	-2.6018332409	-0.0777252445	-0.069757
C	 1.018604256	-1.9890151989	 1.0993069995	-0.074288
C	 0.8102007027	-0.4999407553	 1.2484952053	-0.023973
C	 2.1530637759	 0.2175965867	 1.4775824831	-0.392173
H	 0.8825289462	 1.9877285322	-0.2403379092	 0.128349
H	-0.7210448176	 1.7771119891	-0.9553936001	 0.120257
H	-0.552237762	 1.931339048	 0.8055860935	 0.11122
H	-0.9727299677	-0.4350147658	 0.0539585623	 0.062795
H	-0.3731329978	-2.147647204	-1.7274420253	 0.093613
H	 1.3473055295	-2.098757543	-2.1230444172	 0.114115
H	 1.0567791509	-3.676593577	-0.1711849958	 0.088553
H	 1.2672829716	-2.5518995237	 1.9960369685	 0.085519
H	 0.1729054931	-0.3265158136	 2.1276855079	 0.071732
H	 2.7586989601	 0.179268747	 0.5675476206	 0.13019
H	 2.0120066236	 1.2653312008	 1.7590972481	 0.111728
H	 2.7182453169	-0.268832301	 2.278976649	 0.10875
113.127	197.0815	228.9708	243.3987	282.939	299.4469	324.5629	464.7839	482.9338	513.1124	619.3439	725.6096	750.5331	835.2815	855.3543	915.5226	950.1606	996.4053	998.8985	1009.6296	1038.7155	1095.221	1106.4677	1122.583	1155.427	1175.9259	1211.3684	1267.562	1314.5792	1336.5684	1372.2018	1379.069	1397.0983	1408.3766	1410.0722	1420.4437	1481.893	1486.1374	1495.8506	1502.1062	1514.0653	1725.0722	2923.053	2948.3005	3000.7714	3038.2263	3043.5616	3046.0199	3103.5143	3116.6687	3119.5003	3126.6293	3144.0999	3169.6286
CC1OCC=CC1C	C[C@H]1OCC=C[C@H]1C	
InChI=1S/C7H12O/c1-6-4-3-5-8-7(6)2/h3-4,6-7H,5H2,1-2H3	InChI=1S/C7H12O/c1-6-4-3-5-8-7(6)2/h3-4,6-7H,5H2,1-2H3/t6-,7-/m1/s1
