17
gdb 13370	6.6677	1.14247	0.99347	2.9615	76.45	-0.2324	-0.0269	0.2055	1185.9559	0.142321	-363.88631	-363.878435	-363.877491	-363.921073	28.25	
C	 0.2305816002	 1.5497488347	-0.2658961249	-0.374219
C	-0.4007270213	 0.3320859115	 0.402533841	-0.115975
N	 0.3132871208	-0.0046992637	 1.6293709483	-0.347762
C	-0.1094891531	-0.9698777492	 2.3253892356	 0.442555
O	-1.2098710313	-1.7441562389	 2.0128854433	-0.259372
C	-1.3941884804	-2.7384508395	 3.0222857837	-0.131832
C	-0.2830343815	-2.5022046813	 4.0047681616	-0.101083
C	 0.4516716327	-1.4728404373	 3.5836086468	-0.159642
H	 1.2791141047	 1.3545856731	-0.5102978678	 0.117727
H	-0.2986258372	 1.8065152778	-1.1893274044	 0.101579
H	 0.1998737575	 2.415485794	 0.4026044946	 0.117333
H	-1.4617499264	 0.5258774136	 0.6186374631	 0.102091
H	-0.3907463667	-0.5246352802	-0.2875606798	 0.102237
H	-2.3913182311	-2.6205042582	 3.4683143821	 0.128136
H	-1.3519043675	-3.7343520458	 2.5602683879	 0.128164
H	-0.1433187787	-3.0981247079	 4.8964684938	 0.122183
H	 1.3240126893	-1.0311697828	 4.0412843051	 0.127881
5.1253	143.0668	144.811	219.3208	280.3323	349.0702	407.7161	476.1643	673.5101	734.0673	784.9251	798.8973	799.3485	869.0683	923.239	953.694	973.6878	1029.8492	1044.8789	1085.3154	1115.4526	1117.4977	1134.1647	1192.5863	1198.9443	1294.1725	1362.2885	1374.9477	1379.4376	1411.6202	1472.4367	1489.1368	1499.738	1504.9247	1659.6693	1771.3913	2987.0292	3008.5247	3014.0149	3035.9134	3037.6402	3109.4276	3113.3883	3228.8916	3262.4872
CCN=C1OCC=C1	CC[N]C1=C[CH]CO1	
InChI=1S/C6H9NO/c1-2-7-6-4-3-5-8-6/h3-4H,2,5H2,1H3	InChI=1S/C6H9NO/c1-2-7-6-4-3-5-8-6/h3-4H,2,5H2,1H3
