23
gdb 103335	2.73553	1.3131	1.06198	1.8877	85.78	-0.2338	0.0764	0.3101	1262.073	0.204006	-388.217672	-388.207925	-388.206981	-388.252115	37.188	
C	 0.047555981	 1.416188911	-0.0758864751	-0.385551
C	-0.2735094381	-0.0830279258	-0.1442287957	-0.247378
C	 0.358729196	-0.7917516778	-1.3519084968	 0.378051
C	-0.213845711	-0.2261634564	-2.6619918784	-0.496406
C	 1.888069807	-1.1352225223	-1.1769859442	-0.032609
O	 1.5100175732	-2.0746601702	-0.0934208599	-0.304812
C	 0.5607131065	-2.336275304	-1.2002213396	-0.048676
C	 1.8074605317	-2.3453926345	-2.1489154527	 0.0587
C	 1.851723212	-2.2771705864	-3.6743187076	-0.452762
H	 1.1272137394	 1.5867627267	 0.0001589151	 0.113846
H	-0.3124710559	 1.9591369288	-0.9558434039	 0.111905
H	-0.4188979778	 1.870766717	 0.803541718	 0.113743
H	 0.0648142941	-0.5686395623	 0.7717607886	 0.120616
H	-1.3625664101	-0.2165734047	-0.1983467407	 0.085096
H	 0.4021346381	 0.5831561722	-3.067676838	 0.122639
H	-0.3317510677	-0.9781109761	-3.4415662913	 0.124716
H	-1.2074623119	 0.1937021265	-2.4763486955	 0.116153
H	 2.7268326209	-0.4633469466	-0.979260654	 0.084328
H	-0.186213149	-3.1177491826	-1.0386324236	 0.082531
H	 2.4830177633	-3.1285914362	-1.7961426195	 0.088726
H	 1.6100287405	-1.299875674	-4.0895812646	 0.12641
H	 2.8623765857	-2.5290590645	-4.0118123433	 0.118665
H	 1.1733462423	-3.0118331178	-4.1226287471	 0.122069
71.9429	109.4194	120.5895	153.4455	224.3873	256.9736	323.5	340.6537	347.7337	421.8576	433.1801	589.1661	625.0592	643.2672	735.8402	778.2035	805.6174	813.8498	868.9592	873.4944	920.8954	1006.2897	1023.3731	1027.7596	1052.5977	1062.8103	1094.7849	1106.7262	1140.3455	1143.2246	1162.0476	1218.1986	1221.5744	1231.6673	1264.8425	1288.6848	1327.9929	1362.0587	1402.8004	1410.0231	1415.3666	1420.4913	1485.7425	1493.0925	1498.4307	1499.8114	1506.6904	1509.5645	1530.0148	3016.2338	3032.2952	3039.522	3042.5631	3074.3217	3082.6782	3090.6338	3092.8806	3094.7464	3095.7666	3101.4493	3125.3009	3139.0051	3156.0009
CCC1(C)C2OC1C2C	CC[C@@]1(C)[C@H]2O[C@@H]1[C@H]2C	
InChI=1S/C8H14O/c1-4-8(3)6-5(2)7(8)9-6/h5-7H,4H2,1-3H3	InChI=1S/C8H14O/c1-4-8(3)6-5(2)7(8)9-6/h5-7H,4H2,1-3H3/t5-,6-,7+,8-
