16
gdb 86695	2.48213	1.30066	0.943	4.3767	71.8	-0.2626	-0.0012	0.2613	1211.8911	0.124533	-434.073221	-434.064236	-434.063292	-434.108347	31.324	
N	 0.2659146846	 1.1788561603	-0.7267743535	-0.507079
C	 0.0026998351	-0.0378590268	-0.0174747312	 0.013005
C	 0.0336536839	-0.1370302817	 1.5494325545	-0.198984
N	-1.3123633719	-0.7027834905	 1.491356982	-0.030807
C	-2.1198501912	-1.1673102549	 2.4789181667	 0.137846
O	-1.79058885	-1.2336766837	 3.6421729734	-0.314635
C	-1.5143418931	-0.4821577446	 0.0596507689	-0.177546
C	-2.4793693426	 0.5725422404	-0.2641235929	 0.306882
N	-3.2311122727	 1.4177903878	-0.5011347871	-0.320304
H	-0.1747072347	 1.9815928289	-0.2891315302	 0.248456
H	 1.2604466174	 1.3604982084	-0.7950032673	 0.244235
H	 0.5892774923	-0.8397249832	-0.4702113956	 0.115382
H	 0.7808865835	-0.803539894	 1.9887278134	 0.13337
H	 0.0726263302	 0.8338343235	 2.0578241026	 0.124366
H	-3.1083029471	-1.4885615321	 2.0941085639	 0.08569
H	-1.7601776136	-1.3802796478	-0.5162553075	 0.140123
27.1142	75.7454	135.3874	173.1331	235.2619	270.1772	300.2067	366.9923	422.9441	460.6325	537.5841	656.8431	761.8239	787.9925	800.0685	857.3065	950.2067	1009.3229	1023.2483	1033.7559	1137.2201	1153.4575	1160.261	1215.6316	1252.8843	1275.5847	1302.5436	1349.428	1389.3804	1425.9243	1450.0031	1514.2369	1662.8277	1797.6571	2354.4912	2939.5494	3034.1388	3056.9363	3089.04	3103.4309	3513.0746	3600.3147
NC1CN(C=O)C1C#N	N[C@H]1CN(C=O)[C@H]1C#N	
InChI=1S/C5H7N3O/c6-1-5-4(7)2-8(5)3-9/h3-5H,2,7H2	InChI=1S/C5H7N3O/c6-1-5-4(7)2-8(5)3-9/h3-5H,2,7H2/t4-,5-/m0/s1
