16
gdb 23361	3.08061	1.61775	1.27813	1.0977	71.67	-0.2392	0.0178	0.2571	981.3185	0.123693	-437.786308	-437.778784	-437.777839	-437.817881	30.249	
O	-0.2469365259	 1.3593957166	 0.0412492271	-0.420383
N	-0.0320436542	-0.0606264342	 0.0652063248	-0.316675
C	-1.1483936567	-0.6562603971	 0.1491474522	 0.40527
C	-1.5072708791	-2.0838065257	 0.0094697831	-0.153319
C	-2.9040155967	-2.2394857845	 0.6433395275	-0.07429
C	-3.2897520452	-0.8931951848	 1.2615976703	-0.282525
C	-2.6108292948	-0.2463912	 0.0231282392	 0.31956
O	-2.9792267782	 0.9957586151	-0.4195953562	-0.476619
C	-2.786095276	-1.6712868683	-0.7318795323	-0.153587
H	 0.6312184747	 1.6912829623	-0.1688149486	 0.309907
H	-0.8573092956	-2.9220423508	-0.1927307176	 0.110172
H	-3.2530468195	-3.2248287375	 0.9220509931	 0.101104
H	-4.3714118889	-0.7390615485	 1.2250986113	 0.114285
H	-2.8979361698	-0.6223019318	 2.247949264	 0.102652
H	-2.1651912061	 1.5007819932	-0.5561476873	 0.302288
H	-3.1356729081	-1.9546310241	-1.7129182706	 0.11216
117.0007	207.9387	278.5958	317.2988	357.8283	365.7125	445.0916	458.309	477.0766	640.4389	698.4062	725.5481	741.1791	789.3391	805.4729	830.3159	901.6375	914.6461	925.1477	986.3275	1001.2983	1016.8795	1042.6052	1078.9676	1122.9752	1134.9431	1194.6654	1234.2735	1276.9631	1331.7944	1364.9432	1393.3671	1428.7421	1498.5001	1782.6107	3043.9879	3111.6085	3205.2696	3231.3075	3242.7787	3736.0396	3837.1658
ON=C1C2C3CC1(O)C23	O[N][C]1[C@H]2[C@H]3C[C@]1(O)[C@@H]23	
InChI=1S/C6H7NO2/c8-6-1-2-3(4(2)6)5(6)7-9/h2-4,8-9H,1H2	InChI=1S/C6H7NO2/c8-6-1-2-3(4(2)6)5(6)7-9/h2-4,8-9H,1H2/t2-,3+,4-,6+/m1/s1
