16
gdb 36218	4.06449	1.09942	0.98922	2.5136	73.06	-0.2262	0.001	0.2272	1190.1969	0.12601	-396.939828	-396.932109	-396.931165	-396.97287	29.054	
N	-0.7999604077	 0.1453159103	-1.3630891967	-0.307298
C	-0.2529195342	 0.4921350978	-0.4062867245	 0.251702
C	 0.4488181319	 0.9722437291	 0.7838864248	-0.42235
C	 1.6491832022	 1.8245087458	 0.4477660887	 0.361873
N	 2.7764374153	 1.703986506	 1.0472732802	-0.29872
C	 3.6665943444	 2.6590195081	 0.4205488647	 0.001507
C	 3.9666461662	 2.4485134612	-1.0466632139	-0.302542
C	 2.8633241675	 3.4000338947	-0.648437039	-0.024792
N	 1.5417671284	 2.8493045322	-0.4753302555	-0.335832
H	-0.2584865021	 1.553673964	 1.388436623	 0.175832
H	 0.7880427459	 0.1281597785	 1.3881342074	 0.186898
H	 4.4027383694	 3.1285119232	 1.0611348043	 0.102672
H	 4.8753618075	 2.9042215585	-1.4233528142	 0.120823
H	 3.706164634	 1.494266236	-1.492953718	 0.120726
H	 2.9251252855	 4.4613049121	-0.8572935804	 0.106542
H	 0.9021442859	 2.7749080327	-1.2529920709	 0.26296
40.5808	100.6305	214.1665	326.3907	379.3839	380.911	417.5661	475.1069	488.3058	654.2434	731.7324	740.1144	770.4988	811.911	911.0227	934.1472	943.9325	970.3588	1007.8446	1032.5473	1050.3434	1088.1686	1120.8107	1140.6126	1188.465	1213.1982	1269.8259	1310.8686	1326.2318	1363.5481	1445.639	1452.5688	1468.6992	1678.9037	2364.1741	3043.7808	3121.395	3130.8073	3176.7769	3188.5448	3225.6063	3611.8084
N#CCC1=NC2CC2N1	N#CCC1=N[C@H]2C[C@H]2N1	
InChI=1S/C6H7N3/c7-2-1-6-8-4-3-5(4)9-6/h4-5H,1,3H2,(H,8,9)	InChI=1S/C6H7N3/c7-2-1-6-8-4-3-5(4)9-6/h4-5H,1,3H2,(H,8,9)/t4-,5+
