19
gdb 56208	4.45406	0.77374	0.73441	3.365	72.2	-0.2428	0.0507	0.2934	1555.6999	0.16001	-456.357491	-456.348006	-456.347062	-456.39323	33.735	
N	-0.0886188445	 1.2399469709	-0.0970844843	-0.563678
C	-0.4040548138	-0.0596528113	 0.2829026605	 0.446711
O	-0.33630696	-0.4460515421	 1.4356494779	-0.388525
N	-0.7740754534	-0.8788732453	-0.7623333798	-0.339472
C	-0.9187959327	-2.3126488062	-0.5282135119	-0.179317
C	-2.2593755408	-2.6666709428	 0.1084060824	-0.012084
C	-3.4911267952	-2.5330325269	-0.8108247453	-0.074563
O	-3.6427623359	-3.966437297	-0.8913712465	-0.273743
C	-2.6060362146	-4.1713212615	 0.0913551292	-0.091078
H	-0.0413334281	 1.8683360924	 0.6908002465	 0.261597
H	-0.5721683276	 1.6237026255	-0.8954373095	 0.247319
H	-0.5057439321	-0.5923480763	-1.6895541589	 0.243152
H	-0.8278019141	-2.8150341701	-1.4971261208	 0.103356
H	-0.1064680446	-2.6677871282	 0.1170750699	 0.126605
H	-2.3384662753	-2.1749893174	 1.0777529541	 0.108617
H	-4.3674954957	-2.0549294232	-0.3543265007	 0.098275
H	-3.3137423813	-2.078644955	-1.7944102433	 0.089206
H	-1.8202109928	-4.8468802179	-0.2722872894	 0.096962
H	-3.0055434476	-4.5694552177	 1.03279024	 0.10066
52.3544	60.9863	75.3167	104.5325	215.1132	279.1411	330.9292	363.4027	412.2669	435.7738	523.5522	569.6275	689.2429	777.9288	797.4198	844.9008	872.6246	888.401	956.04	977.2833	1033.1824	1059.9487	1089.7022	1106.3181	1135.7256	1156.4452	1159.9081	1203.0764	1263.6856	1301.5809	1307.5642	1331.3122	1357.9407	1389.2248	1403.7884	1471.9749	1512.825	1528.6549	1538.93	1627.8241	1799.9447	2999.5151	3010.2851	3031.1838	3044.5578	3045.4358	3080.2215	3122.8033	3573.3914	3635.7449	3686.7707
NC(=O)NCC1COC1	NC(=O)NCC1COC1	
InChI=1S/C5H10N2O2/c6-5(8)7-1-4-2-9-3-4/h4H,1-3H2,(H3,6,7,8)	InChI=1S/C5H10N2O2/c6-5(8)7-1-4-2-9-3-4/h4H,1-3H2,(H3,6,7,8)
