15
gdb 43246	3.68257	1.73009	1.41995	4.368	72.69	-0.235	-0.0655	0.1695	889.0296	0.113921	-420.573945	-420.567742	-420.566798	-420.60438	25.326	
O	-0.0518700243	 0.0838738645	 0.3976644326	-0.322829
C	-0.0644425516	 1.2275690478	 0.016683509	 0.388445
C	-1.2317241558	 2.1350608824	-0.2168348408	-0.25991
C	-0.769908075	 3.2969650614	-0.7096094498	 0.170765
C	-0.6709370714	 4.6773333067	-0.0996673166	-0.30961
C	 0.86727304	 4.2823415876	 0.0415817054	 0.125142
O	 1.1790756771	 3.1968419639	 0.9547471313	-0.314026
C	 1.1648849036	 2.1694212347	-0.1137086606	 0.000901
C	 0.7087392893	 3.2549528	-1.0871597342	-0.151017
H	-2.1740336739	 1.9769013959	 0.2936323408	 0.121435
H	-0.7233132086	 5.5157919522	-0.8026865081	 0.124888
H	-1.2724239968	 4.8822112868	 0.7873086031	 0.130152
H	 1.5924739795	 5.096464316	 0.1112152012	 0.098582
H	 2.1316313315	 1.6692214501	-0.1913731336	 0.093083
H	 1.0330388864	 3.3519787798	-2.1197318795	 0.103997
137.8159	285.0971	346.4721	380.7887	441.5753	589.6887	621.0666	700.5677	733.3835	799.9067	811.7494	828.8639	858.2743	872.2496	900.3528	937.1722	950.7853	961.7721	1011.0297	1055.0187	1098.8802	1141.6765	1155.063	1176.0274	1208.9885	1231.142	1251.1194	1261.9039	1298.709	1302.6746	1467.0457	1632.9483	1819.2044	3050.1428	3085.1824	3106.5142	3132.395	3152.9753	3209.2204
O=C1C=C2CC3OC1C23	O=C1[CH][C]2C[C@H]3O[C@@H]1[C@@H]23	
InChI=1S/C7H6O2/c8-4-1-3-2-5-6(3)7(4)9-5/h1,5-7H,2H2	InChI=1S/C7H6O2/c8-4-1-3-2-5-6(3)7(4)9-5/h1,5-7H,2H2/t5-,6+,7+/m1/s1
