24
gdb 60404	3.74365	0.66946	0.60819	0.8922	87.22	-0.2201	0.0747	0.2948	1928.6732	0.215052	-405.521905	-405.510946	-405.510002	-405.558764	39.979	
C	-0.2332546946	 1.5954994748	 0.1303595414	-0.399614
C	-0.032631315	 0.0913597798	-0.056566954	 0.136581
O	 0.7016528902	-0.1854578056	-1.2503013805	-0.429827
C	 0.6160403115	-0.56539982	 1.1672881949	-0.190562
C	 0.7710992083	-2.080585139	 1.0239227204	-0.140674
N	 1.49321867	-2.62128932	 2.1696960253	-0.0822
C	 0.712384339	-3.1243501068	 3.2964575694	-0.255793
C	 1.4862821863	-4.0615798785	 2.4318401267	 0.031184
C	 0.7935234959	-5.0683302519	 1.5384120212	-0.410621
H	 0.7262103886	 2.0941741302	 0.3169618084	 0.106231
H	-0.6773694503	 2.0341068683	-0.7673181271	 0.122161
H	-0.8874926792	 1.8063496386	 0.9826243059	 0.114607
H	-1.0098611354	-0.3765796989	-0.2342304739	 0.085427
H	 1.5698201589	 0.2231539557	-1.156099544	 0.275634
H	 1.6061643238	-0.1218065185	 1.340500501	 0.094098
H	 0.0172830302	-0.3389475874	 2.0588500432	 0.094653
H	-0.226827008	-2.5309459793	 0.886291158	 0.077123
H	 1.3457337534	-2.2963641182	 0.1175090034	 0.111654
H	 1.0612175554	-2.850263207	 4.2891312468	 0.108872
H	-0.3730917819	-3.1466531385	 3.1899767913	 0.099821
H	 2.4450570913	-4.4124375865	 2.8136119361	 0.086302
H	-0.2039136791	-4.742947275	 1.2344483924	 0.12116
H	 1.3782769461	-5.2608312173	 0.631892934	 0.123449
H	 0.6843818946	-6.020839279	 2.0679280999	 0.120332
41.3503	62.9083	99.9198	133.2739	181.9687	226.2316	248.115	255.6199	295.4964	331.4774	379.2588	429.3652	470.4585	482.7551	536.8411	752.308	788.5745	805.6302	868.5283	902.9417	937.1784	950.807	974.7418	1027.1351	1045.5487	1062.0611	1087.6184	1111.7904	1122.6039	1148.0916	1148.7713	1170.0638	1190.7853	1224.3431	1285.9268	1302.7508	1335.4952	1340.3262	1370.0963	1394.7015	1402.1909	1408.6914	1420.5652	1423.4187	1477.7178	1491.0672	1493.5016	1495.7893	1497.2747	1503.4785	1516.3645	2950.6955	3013.8125	3022.172	3029.346	3035.5287	3053.5653	3076.1722	3078.5579	3092.1725	3094.0383	3096.3461	3117.5946	3126.841	3164.5773	3791.3751
CC(O)CCN1CC1C	C[C@@H](O)CCN1C[C@H]1C	
InChI=1S/C7H15NO/c1-6-5-8(6)4-3-7(2)9/h6-7,9H,3-5H2,1-2H3	InChI=1S/C7H15NO/c1-6-5-8(6)4-3-7(2)9/h6-7,9H,3-5H2,1-2H3/t6-,7-,8?/m1/s1
