23
gdb 102677	2.17102	0.79879	0.61879	2.0404	88.86	-0.254	0.0619	0.3159	1844.9316	0.202691	-388.258389	-388.246941	-388.245997	-388.295837	40.897	
C	 0.8080987269	 1.7819247441	 0.3595632782	-0.387692
C	 0.3772976584	 0.3137973242	 0.2606378855	-0.190603
C	 0.8299361042	-0.5760971924	 1.4349454305	 0.049865
C	 0.0258066907	-0.2699865108	 2.7013068146	-0.0967
O	 0.6250297635	-0.9608916468	 3.7895111113	-0.422275
C	 0.7324251207	-2.0770733778	 1.101698558	-0.191048
C	 1.8557730807	-2.5781664199	 0.1702092816	-0.366923
C	 1.7239489739	-3.9909942549	-0.1647877319	 0.298609
C	 1.5909418548	-5.1563578559	-0.4285790193	-0.443207
H	 1.8985840817	 1.8674104242	 0.4215307288	 0.117365
H	 0.480699273	 2.3445066091	-0.5203584544	 0.113563
H	 0.3882713257	 2.2798214	 1.2390797399	 0.118212
H	-0.7162445996	 0.2529685808	 0.1692703287	 0.094772
H	 0.7734112791	-0.1005752139	-0.6734885698	 0.098709
H	 1.8791980454	-0.3431434132	 1.6688634523	 0.076858
H	 0.0129619867	 0.8133268875	 2.8907667384	 0.085312
H	-1.0192878551	-0.5905408757	 2.5533354945	 0.08391
H	 0.074183338	-0.8355297553	 4.5672334185	 0.287273
H	 0.773249244	-2.6489455361	 2.0322125279	 0.126651
H	-0.2397173735	-2.2893339372	 0.6388039668	 0.098397
H	 1.8744535023	-1.9924962126	-0.7576723852	 0.127351
H	 2.8264104608	-2.4078227224	 0.6544996076	 0.131278
H	 1.4847453879	-6.1854340051	-0.6662752525	 0.190323
53.8708	64.4832	95.7546	116.3201	125.699	201.3358	232.8511	257.4827	263.123	276.7397	348.4172	410.3785	440.1354	484.6303	545.5609	611.8227	630.7966	754.0348	768.1617	860.0818	918.4619	947.8574	974.7826	1001.53	1037.5004	1040.77	1073.6164	1128.1796	1135.7747	1136.4281	1210.7982	1238.9585	1263.4734	1292.9178	1301.3933	1316.7897	1346.8386	1354.0063	1383.0197	1398.4246	1414.8953	1455.9623	1473.4132	1486.3731	1498.0763	1501.9376	1508.0628	1520.5241	2237.8026	2960.8869	2997.1172	3009.3703	3015.8882	3017.2321	3034.4888	3035.3957	3047.5222	3057.6159	3100.3943	3103.5903	3106.9253	3508.4611	3835.85
CCC(CO)CCC#C	CC[C@@H](CO)CCC#C	
InChI=1S/C8H14O/c1-3-5-6-8(4-2)7-9/h1,8-9H,4-7H2,2H3	InChI=1S/C8H14O/c1-3-5-6-8(4-2)7-9/h1,8-9H,4-7H2,2H3/t8-/m1/s1
