16
gdb 98746	2.49929	1.15077	0.94802	2.1505	67.61	-0.2559	-0.0395	0.2163	1265.2139	0.12229	-475.026894	-475.017587	-475.016643	-475.062589	31.591	
C	-0.452938838	 1.444766308	-0.4174198556	-0.242827
O	-1.0204553739	 0.1627263	-0.7273261794	-0.227816
C	-1.0120646155	-0.72435573	 0.2781556773	 0.473375
O	-0.5663682124	-0.5042488896	 1.3768280489	-0.367369
C	-1.609333834	-2.0505892455	-0.092246366	-0.142631
N	-2.6627737087	-2.1224091514	-1.0983733384	-0.320242
C	-1.3861212725	-2.7715748503	-1.4038802582	-0.12386
C	-0.6022923579	-2.1909993598	-2.539976721	 0.169335
O	 0.2669678891	-2.8058383327	-3.1050058509	-0.254783
H	-0.5364857981	 2.0319309686	-1.3312781952	 0.139859
H	-1.0057507841	 1.9191193929	 0.3967084813	 0.146246
H	 0.5931365213	 1.3391869082	-0.1204878879	 0.146919
H	-1.6661330791	-2.6959901618	 0.7797390042	 0.124256
H	-3.3653702531	-2.8063293082	-0.8312870871	 0.253723
H	-1.2915422051	-3.8522170007	-1.319428858	 0.117195
H	-0.898491508	-1.1654530279	-2.8280872839	 0.108623
37.2211	62.0504	110.6994	133.9454	179.0413	241.2795	294.4381	337.7322	361.2277	472.291	506.8488	665.2626	752.1402	824.6518	859.285	929.8988	943.8309	996.7826	1029.2093	1049.8922	1118.1884	1174.7559	1178.954	1205.6219	1210.5947	1219.4894	1322.5701	1364.0544	1404.0167	1453.8643	1477.5902	1481.2316	1496.5978	1814.355	1820.9409	2973.0569	3056.6784	3133.74	3140.3456	3160.4267	3166.8565	3517.2543
COC(=O)C1NC1C=O	COC(=O)[C@H]1N[C@H]1C=O	
InChI=1S/C5H7NO3/c1-9-5(8)4-3(2-7)6-4/h2-4,6H,1H3	InChI=1S/C5H7NO3/c1-9-5(8)4-3(2-7)6-4/h2-4,6H,1H3/t3-,4-/m0/s1
