21
gdb 73100	2.61082	1.44682	1.22123	2.8858	81.4	-0.2353	-0.0128	0.2226	1126.1673	0.182778	-387.123011	-387.114554	-387.11361	-387.156554	33.095	
C	-0.3760850421	 1.4880728122	 0.1864645335	-0.474667
C	 0.0605048063	 0.0471449778	-0.0325776121	 0.354006
C	-1.0734245358	-1.0081748223	 0.1882833883	-0.2734
C	-0.3747272843	-1.5007447	 1.4845174798	-0.219868
C	 0.864219262	-0.6206170094	 1.1620443133	-0.055672
C	 2.0595331528	-1.3523446836	 0.5396569766	-0.335045
C	 1.829613705	-1.338769767	-0.977663417	 0.384201
O	 2.3081746497	-2.1078137332	-1.7698552069	-0.306857
C	 0.8869969207	-0.1757906568	-1.3020863033	-0.382096
H	 0.4865983523	 2.1639873532	 0.2157193013	 0.111233
H	-1.0400114308	 1.8281326426	-0.616948275	 0.1171
H	-0.9186659475	 1.5985153205	 1.1320906057	 0.113415
H	-2.0761190091	-0.5914073047	 0.3137646559	 0.099368
H	-1.119912099	-1.7646289707	-0.6005449153	 0.104828
H	-0.8900292876	-1.1919639197	 2.3971741833	 0.103088
H	-0.186511814	-2.5759012213	 1.5505084882	 0.101132
H	 1.1668911623	 0.0570825221	 1.9634317629	 0.066092
H	 2.9974410198	-0.8123239055	 0.7250154351	 0.126656
H	 2.2077854047	-2.3750963969	 0.8966742867	 0.125451
H	 0.3001055668	-0.3852277641	-2.2002279638	 0.122754
H	 1.5153646377	 0.7005302768	-1.5191231372	 0.118281
43.8432	76.7446	244.9596	250.2861	312.291	348.8344	381.2075	432.0195	476.8114	550.4295	591.174	661.2584	740.6285	772.7018	796.2877	825.6261	874.7829	888.4496	937.7416	956.0262	976.7154	988.9278	1035.4709	1088.0849	1110.3374	1133.9089	1164.5253	1188.1013	1211.4681	1230.8201	1240.9121	1251.1434	1259.8248	1285.9363	1294.977	1324.6827	1347.7798	1412.9149	1445.1362	1454.0262	1479.4973	1492.1024	1495.4709	1498.5094	1844.9759	3010.4215	3017.8623	3029.1343	3050.0957	3057.3365	3073.3377	3084.1549	3086.9807	3093.2907	3096.7321	3098.8471	3113.7821
CC12CCC1CC(=O)C2	C[C@]12CC[C@H]1CC(=O)C2	
InChI=1S/C8H12O/c1-8-3-2-6(8)4-7(9)5-8/h6H,2-5H2,1H3	InChI=1S/C8H12O/c1-8-3-2-6(8)4-7(9)5-8/h6H,2-5H2,1H3/t6-,8+/m0/s1
