18
gdb 43218	2.87357	1.82433	1.62595	3.0407	74.53	-0.2186	-0.0217	0.197	901.3647	0.150787	-401.918442	-401.911906	-401.910962	-401.94912	27.232	
O	 0.051421353	 0.0420630279	 0.1891315232	-0.324281
C	 0.0261134479	 1.2387656076	 0.1393368185	 0.429832
C	-1.0821390463	 2.2904052785	-0.037327259	-0.153489
C	-1.3446515334	 2.916962077	 1.3465426568	-0.239775
C	 0.0432578986	 3.1842972127	 1.9899012808	-0.175016
N	 1.0778775074	 3.4369860788	 0.9672524053	-0.125535
C	 0.4935436179	 4.3592834248	-0.0743481975	-0.187522
C	-0.0077642548	 3.1402476995	-0.8399563412	-0.046578
C	 1.0864239553	 2.3090287491	-0.0693357239	-0.11895
H	-1.9904441415	 1.9894728472	-0.5605858838	 0.090165
H	-1.9236185562	 3.8393403166	 1.2318952162	 0.109828
H	-1.9400570498	 2.2406745131	 1.9675265432	 0.116875
H	 0.0101567686	 4.0465122557	 2.6637659512	 0.109604
H	 0.3655852863	 2.3199695101	 2.5800494794	 0.123932
H	-0.2239378852	 5.0944444145	 0.3036892842	 0.104293
H	 1.2965053265	 4.8875603891	-0.5974723084	 0.112765
H	-0.1175134939	 3.125611509	-1.9244115124	 0.083438
H	 2.0881554695	 2.0604767888	-0.4217817928	 0.090416
128.6551	261.032	319.3878	397.5048	464.0145	482.1461	540.5757	609.38	718.9783	750.9606	781.0591	808.3604	841.3768	857.9123	910.7936	925.0625	954.1563	992.1479	1028.0938	1045.8829	1054.9063	1064.7858	1112.3439	1136.3024	1168.3344	1195.4322	1204.5537	1216.8995	1256.9064	1261.9883	1291.3064	1298.0128	1307.4221	1350.1672	1362.1291	1481.0535	1492.8829	1516.555	1876.7283	3039.065	3041.5301	3048.3491	3080.2273	3088.3653	3097.6961	3102.5664	3108.1659	3115.8993
O=C1C2CCN3CC2C13	O=C1[C@H]2CCN3C[C@H]2[C@H]13	
InChI=1S/C7H9NO/c9-7-4-1-2-8-3-5(4)6(7)8/h4-6H,1-3H2	InChI=1S/C7H9NO/c9-7-4-1-2-8-3-5(4)6(7)8/h4-6H,1-3H2/t4-,5+,6+/m0/s1
