17
gdb 53737	3.86125	0.73035	0.65199	3.4482	81.64	-0.2514	-0.0203	0.2311	1701.6851	0.134601	-417.984656	-417.974766	-417.973822	-418.020852	34.814	
C	 0.0478462396	 1.4777729804	 0.1988937703	-0.460931
C	 0.0127281683	-0.0272873224	-0.0053172733	 0.083664
C	 0.6612414803	-0.6089667978	-1.2231157399	-0.257546
N	 1.2791523008	-0.7995918266	 0.0922469464	-0.327178
C	-1.1425106495	-0.689366137	 0.5468521574	 0.058964
C	-2.133118578	-1.2042719655	 1.0031065598	 0.091528
C	-3.3484658776	-1.7824907704	 1.5555632202	 0.24951
N	-3.232793019	-3.1081639793	 1.866151488	-0.520483
O	-4.3726086008	-1.1449982762	 1.7103647626	-0.335214
H	 0.9271283618	 1.9102770452	-0.2893797915	 0.114324
H	-0.8456505054	 1.9478202275	-0.2219553482	 0.144913
H	 0.0853488682	 1.722946785	 1.2647467132	 0.139306
H	 0.2508670647	-1.5085913637	-1.6706417352	 0.131326
H	 1.1060177328	 0.0922281521	-1.9249905099	 0.119973
H	 2.048482124	-0.1439858703	 0.2132583763	 0.234959
H	-2.3430943205	-3.5749385212	 1.8332277559	 0.268251
H	-4.0076754396	-3.5526066397	 2.3310636181	 0.264634
26.8727	71.4617	97.1358	186.7052	194.6121	214.4218	267.7117	291.5818	358.9747	445.2848	530.6257	547.979	574.9424	583.3499	650.1775	771.9438	790.5897	822.5339	931.1012	961.9009	985.3693	1030.7836	1059.796	1091.8836	1125.1458	1147.407	1262.9427	1310.9868	1331.828	1382.3293	1415.8216	1480.1145	1500.4715	1507.7784	1608.1052	1772.4227	2343.8357	3036.2029	3109.1697	3111.8069	3114.7941	3203.7618	3491.4634	3598.8708	3739.7945
CC1(CN1)C#CC(N)=O	C[C@]1(CN1)C#CC(=O)N	
InChI=1S/C6H8N2O/c1-6(4-8-6)3-2-5(7)9/h8H,4H2,1H3,(H2,7,9)	InChI=1S/C6H8N2O/c1-6(4-8-6)3-2-5(7)9/h8H,4H2,1H3,(H2,7,9)/t6-/m1/s1
