19
gdb 54787	3.49952	1.22573	1.10793	1.3835	76.01	-0.2411	-0.0194	0.2217	1157.617	0.159526	-423.020453	-423.01239	-423.011446	-423.053648	30.791	
C	-0.5113059101	 1.4725212083	-0.0213322822	-0.47928
C	-0.1340928345	 0.0062328083	 0.1093358142	 0.347451
O	 0.1383837103	-0.4838275315	 1.1844214848	-0.304608
C	-0.1223392544	-0.7694328423	-1.189021494	-0.091218
C	 0.5135655477	-2.2002014191	-1.1901485617	-0.076119
C	-0.826267916	-2.7177074339	-0.5764100724	-0.243703
C	-1.3928378634	-1.6428171192	-1.5246515114	 0.095314
O	-1.0817891936	-2.1354259666	-2.8308788227	-0.277297
C	 0.2917434569	-2.57413433	-2.6593130816	-0.093485
H	 0.2776500507	 2.0114015412	-0.5594088941	 0.143805
H	-1.42923466	 1.5894347921	-0.6078628356	 0.138139
H	-0.6375925948	 1.9131525161	 0.9681292154	 0.141878
H	 0.1560969332	-0.1073335366	-2.0151501261	 0.080492
H	 1.4835788687	-2.3990765916	-0.7388549218	 0.085819
H	-1.1215200602	-3.7492093327	-0.782730381	 0.098007
H	-0.913720226	-2.4739704969	 0.4791620376	 0.140094
H	-2.4128472321	-1.2615491929	-1.5050829823	 0.086056
H	 0.9412813618	-2.0374564034	-3.3600158719	 0.102479
H	 0.3686353559	-3.6504935294	-2.8505022131	 0.106176
47.8917	133.8827	159.0028	202.17	331.7449	372.9286	387.7951	493.9755	573.1732	606.2862	654.9549	825.1444	851.7493	865.2747	895.5219	909.382	927.914	938.725	968.3599	999.1917	1015.6934	1034.9428	1054.688	1080.2327	1101.6218	1132.6317	1170.1299	1188.0281	1214.4118	1226.6828	1257.2907	1259.0996	1290.8678	1358.4716	1375.7607	1388.6352	1462.6762	1475.325	1491.9111	1527.2202	1794.2519	3028.399	3034.2285	3059.245	3070.4838	3079.2521	3094.7203	3134.5637	3143.0117	3153.0296	3181.2109
CC(=O)C1C2CC1OC2	CC(=O)[C@H]1[C@H]2C[C@@H]1OC2	
InChI=1S/C7H10O2/c1-4(8)7-5-2-6(7)9-3-5/h5-7H,2-3H2,1H3	InChI=1S/C7H10O2/c1-4(8)7-5-2-6(7)9-3-5/h5-7H,2-3H2,1H3/t5-,6-,7-/m0/s1
