19
gdb 81395	3.96222	1.1756	1.10294	4.8833	79.59	-0.2492	0.0204	0.2696	1157.8959	0.161686	-382.05148	-382.04371	-382.042766	-382.083567	30.572	
C	-0.1677492919	 1.5118657687	 0.0962341366	-0.435493
C	 0.0356254643	 0.0111043915	-0.0074368298	 0.079923
C	 0.7234799515	-0.5918777872	-1.2668898957	-0.029304
C	 2.0334229367	-0.2300322124	-0.5295798079	-0.202376
N	 1.2605342029	-0.511047609	 0.7516267176	-0.131652
C	 1.0189491762	-1.9791319332	 0.5813408638	-0.11725
C	 0.6244469864	-2.0932711557	-0.9500293261	-0.259242
C	 2.1924736424	-2.7696256626	 0.9466461565	 0.287707
N	 3.1146010954	-3.4125494234	 1.2150243818	-0.329698
H	 0.6932263206	 2.09171265	-0.2434074708	 0.126081
H	-1.0302364219	 1.8088920617	-0.5093906951	 0.122613
H	-0.3708381759	 1.7889545263	 1.1347707792	 0.135953
H	-0.8865270601	-0.4923321818	 0.3081900296	 0.072179
H	 0.4949568419	-0.2766477913	-2.2862410105	 0.07116
H	 2.9156520283	-0.8576967611	-0.6783464824	 0.124146
H	 2.31952455	 0.8187899817	-0.5746976195	 0.11929
H	 0.194456745	-2.276258708	 1.2348238535	 0.126678
H	-0.3809284541	-2.5004469484	-1.0807935361	 0.112581
H	 1.3271443923	-2.7032389057	-1.5210169947	 0.126704
126.2561	145.9658	187.3181	276.8253	299.6129	348.6502	468.6033	477.8352	532.0046	586.6076	705.7144	783.9517	813.8818	837.4916	840.0542	861.0942	932.1495	955.6387	984.2944	1008.6346	1037.2355	1046.9922	1079.5613	1095.7544	1122.8824	1161.1146	1175.2306	1222.4401	1242.0245	1263.2888	1267.8342	1283.842	1311.3459	1356.1789	1406.1465	1421.6005	1488.46	1496.0941	1502.1887	1533.5615	2359.7307	3025.3618	3045.9905	3070.4951	3077.712	3080.1191	3105.1959	3110.8419	3124.5756	3127.2891	3158.2976
CC1C2CN1C(C2)C#N	C[C@H]1[C@H]2CN1[C@@H](C2)C#N	
InChI=1S/C7H10N2/c1-5-6-2-7(3-8)9(5)4-6/h5-7H,2,4H2,1H3	InChI=1S/C7H10N2/c1-5-6-2-7(3-8)9(5)4-6/h5-7H,2,4H2,1H3/t5-,6+,7-/m0/s1
