21
gdb 113449	2.13996	1.60839	1.10989	3.044	79.33	-0.2376	0.057	0.2945	1162.786	0.182202	-424.192799	-424.183793	-424.182849	-424.226142	35.215	
O	 0.0234447765	 0.2783304536	 1.1750503815	-0.410982
C	-0.2372646945	 0.1126841141	-0.2251239256	-0.115782
C	-1.557049611	-0.5927145919	-0.3348988098	-0.038038
C	-1.8632093796	-1.5823586245	-1.4398023008	-0.407669
C	-1.6368391116	-2.0686583228	-0.04269327	 0.359732
C	-0.4772770935	-2.9022736898	 0.5252685284	-0.32318
C	-1.3077339254	-3.029870719	 1.837732682	 0.160621
O	-0.9517104254	-2.09379374	 2.8258559898	-0.45506
C	-2.58395247	-2.6535697328	 1.0120415653	-0.319754
H	 0.8811426525	 0.6990256669	 1.2885435291	 0.292704
H	-0.2653912466	 1.0921885831	-0.7242705128	 0.098359
H	 0.5541681858	-0.4835139066	-0.7020505561	 0.092245
H	-2.3977258082	-0.0021493438	 0.0217585571	 0.09268
H	-2.8695394614	-1.5874659658	-1.8462049576	 0.11444
H	-1.0888959041	-1.7854896376	-2.1746518511	 0.108959
H	-0.3680157915	-3.8599755302	 0.005596406	 0.096069
H	 0.5060733475	-2.4371304586	 0.6312686469	 0.097425
H	-1.3199348923	-4.0085449832	 2.3238655739	 0.071298
H	-0.6940721734	-1.2681062399	 2.388036708	 0.292636
H	-3.2856527083	-1.9726748356	 1.5012246536	 0.100066
H	-3.1202788355	-3.5407098656	 0.6576209223	 0.093231
107.7356	123.6858	147.5278	215.1531	276.1699	317.1989	341.6257	394.7017	406.1	428.3754	503.1307	536.4218	599.7574	777.6955	792.4105	840.6914	848.0256	886.2433	908.0146	967.705	980.5169	990.3878	1023.3807	1034.4786	1064.341	1086.7581	1101.4724	1131.2276	1163.0652	1172.9761	1199.9809	1224.6931	1241.6995	1256.9147	1264.1397	1280.9977	1334.1984	1350.4127	1410.4175	1456.5227	1460.1424	1464.2164	1484.8659	1499.529	1518.5295	2988.7966	3021.5489	3038.6796	3044.7457	3078.6088	3102.9632	3103.2399	3117.9366	3135.7432	3201.3406	3702.2184	3827.5384
OCC1CC11CC(O)C1	OC[C@H]1C[C@]21C[C@@H](O)C2	
InChI=1S/C7H12O2/c8-4-5-1-7(5)2-6(9)3-7/h5-6,8-9H,1-4H2	InChI=1S/C7H12O2/c8-4-5-1-7(5)2-6(9)3-7/h5-6,8-9H,1-4H2/t5-,6-,7+/m1/s1
