15
gdb 129370	2.76133	1.60219	1.0159	2.5975	71.9	-0.2119	0.0025	0.2144	1089.6284	0.11546	-446.324825	-446.316789	-446.315845	-446.357131	30.89	
N	-0.0908246151	 1.3344484108	 0.1124895626	-0.555958
C	 0.0577630031	-0.0270374112	 0.039315214	 0.281992
N	 1.1620816541	-0.6941526225	-0.0129446013	-0.579189
C	-1.1959273581	-0.7731760768	 0.053927735	 0.295407
C	-1.3423328741	-2.1554476555	 0.0548418476	 0.30005
N	-0.3938971159	-3.1357151683	 0.1414018833	-0.60117
N	-2.6825994043	-2.3267067561	 0.0303750537	-0.253551
N	-3.3457118556	-1.1239346479	 0.0110591701	-0.133172
N	-2.4372546346	-0.2067110002	 0.0302460525	-0.285122
H	 0.6836543626	 1.9183583131	-0.1553604049	 0.24772
H	-1.0173266677	 1.7007854777	-0.0459222511	 0.272858
H	 1.9763494388	-0.0809942729	-0.0201585178	 0.199946
H	 0.5323398273	-2.7294187084	 0.0059174353	 0.284142
H	-0.5661023953	-3.9875129003	-0.3722119691	 0.25075
H	-3.214388115	-3.1814316614	 0.04912055	 0.275298
99.5884	193.729	201.4554	303.4085	329.1714	348.3948	377.5035	438.2898	493.2776	512.4351	538.8644	652.7578	664.7233	691.9138	728.4315	761.4845	805.1174	809.5759	998.0012	1009.3646	1093.0332	1115.6505	1145.9425	1244.8113	1307.3168	1315.7496	1400.6634	1455.9865	1549.7228	1594.8704	1630.5472	1674.3759	1696.6803	3433.372	3479.233	3582.097	3629.405	3665.0139	3709.1409
NC(=N)C1=C(N)NN=N1	NC(=N)c1c(N)[nH]nn1	
InChI=1S/C3H6N6/c4-2(5)1-3(6)8-9-7-1/h(H3,4,5)(H3,6,7,8,9)	InChI=1S/C3H6N6/c4-2(5)1-3(6)8-9-7-1/h(H3,4,5)(H3,6,7,8,9)
