19
gdb 80052	2.48712	1.91424	1.48099	1.499	78.97	-0.2229	0.0075	0.2303	967.3535	0.16043	-385.86861	-385.861048	-385.860103	-385.90005	31.07	
C	 0.022834679	 1.5332198825	 0.0499500673	-0.509441
C	 0.0663512553	 0.0329004539	 0.0007133722	 0.284971
C	-0.9287094974	-0.8272733625	 0.8270929608	-0.129327
C	-1.4587547173	-2.0979465977	 0.2504524908	-0.103606
C	-0.4435088037	-2.8272666728	-0.2305153041	-0.102647
C	 0.8288241574	-2.0215083395	-0.1184781269	-0.154125
C	 0.5602807944	-0.9827334845	 1.014723159	-0.120786
C	 0.6956183695	-0.7869747725	-1.1180681258	 0.104716
O	 0.0534645094	-0.9275857237	-2.3549980079	-0.439787
H	 1.0119879187	 1.965447002	-0.1410007293	 0.119168
H	-0.6629851304	 1.9300087638	-0.7070512968	 0.129211
H	-0.3159297074	 1.8934534471	 1.0271492368	 0.115809
H	-1.505516541	-0.2635283892	 1.5519440903	 0.082894
H	-2.5111173523	-2.353926119	 0.2280921383	 0.097792
H	-0.517383167	-3.7708418789	-0.7566302305	 0.102246
H	 1.7690433979	-2.569060724	-0.1513242154	 0.066803
H	 1.1077541696	-0.8411530226	 1.9389060025	 0.087756
H	 1.695780587	-0.4001381509	-1.3314046709	 0.092049
H	-0.7997816917	-1.3432494415	-2.1785567102	 0.276304
171.3673	186.3332	220.7443	260.6143	316.8836	416.9334	469.3898	504.3022	586.4672	619.7668	725.8688	729.4426	779.5414	812.6443	828.2922	841.2372	875.5506	897.9228	941.8164	953.535	983.9681	996.3224	1012.3522	1063.9258	1089.9925	1114.814	1126.7279	1131.1644	1197.3429	1221.5102	1260.5081	1273.0079	1297.2479	1301.0486	1362.192	1406.6386	1421.5471	1444.5931	1486.4154	1497.01	1636.6249	3022.951	3079.1745	3084.5884	3093.5456	3126.7157	3172.7028	3184.4738	3197.2962	3222.0557	3773.6192
CC12C3C=CC(C13)C2O	C[C@]12[C@H]3C=C[C@H]([C@@H]13)[C@H]2O	
InChI=1S/C8H10O/c1-8-5-3-2-4(6(5)8)7(8)9/h2-7,9H,1H3	InChI=1S/C8H10O/c1-8-5-3-2-4(6(5)8)7(8)9/h2-7,9H,1H3/t4-,5+,6-,7-,8+/m1/s1
