23
gdb 123051	6.08838	0.54516	0.52648	1.0995	84.28	-0.2442	0.0849	0.3291	2178.362	0.204364	-425.403417	-425.39295	-425.392006	-425.44062	36.378	
C	 0.1422629887	 1.4926160431	-0.0011273861	-0.384213
C	 0.1278022451	-0.0267976778	 0.0113182357	-0.027462
O	 0.6578049791	-0.4931117826	-1.2115777138	-0.245334
C	 0.7008610071	-1.9008496573	-1.2993957732	-0.051563
C	 1.3189945739	-2.2832274814	-2.6385290081	-0.220524
C	 1.4166863002	-3.7862663983	-2.820922043	 0.161466
C	 2.2615089654	-4.325868646	-3.9967252529	-0.299975
C	 3.0650917774	-5.0508628092	-2.8988842032	-0.057214
O	 2.3036120621	-4.4098017952	-1.8551674421	-0.294453
H	 1.1637338166	 1.8652174582	-0.119759083	 0.125524
H	-0.4595217928	 1.8752165858	-0.8304966441	 0.124528
H	-0.2651383762	 1.8864940714	 0.9348598864	 0.112746
H	 0.7231841673	-0.4127600654	 0.856401126	 0.085225
H	-0.9011308123	-0.4022247984	 0.1488633548	 0.082161
H	 1.2991970291	-2.3258343831	-0.4779183403	 0.106747
H	-0.3162995223	-2.3231033068	-1.212561209	 0.078758
H	 0.7138571504	-1.8615643176	-3.4511626193	 0.103475
H	 2.3189361599	-1.8403650734	-2.7100751536	 0.105475
H	 0.4159619017	-4.2406745734	-2.7611073067	 0.070078
H	 1.7410794312	-4.9596907287	-4.7159256211	 0.109277
H	 2.8175887768	-3.553680331	-4.5325162925	 0.111169
H	 2.9442321162	-6.1418423305	-2.8802285342	 0.09961
H	 4.1333368254	-4.8139355227	-2.8328463966	 0.1045
45.2919	64.2664	81.3582	95.6629	135.4713	143.8854	217.3836	248.2703	300.8043	392.6214	476.6731	500.554	739.7917	792.9559	820.3437	826.493	879.9735	903.0714	936.2879	975.5905	1008.8532	1031.3203	1051.4616	1089.1174	1108.8166	1146.209	1157.307	1167.4883	1178.666	1191.6982	1216.4217	1240.7312	1256.1879	1279.7877	1295.1933	1308.374	1314.1332	1366.0493	1388.5153	1402.6483	1412.1671	1453.0222	1478.1604	1483.5778	1490.6639	1500.0541	1518.2227	1533.4577	1540.6299	2941.3655	2953.7394	2973.8091	2983.6419	2996.0569	3012.6041	3031.5553	3044.0451	3054.7493	3076.3885	3080.4434	3118.2487	3120.2697	3132.8465
CCOCCC1CCO1	CCOCC[C@H]1CCO1	
InChI=1S/C7H14O2/c1-2-8-5-3-7-4-6-9-7/h7H,2-6H2,1H3	InChI=1S/C7H14O2/c1-2-8-5-3-7-4-6-9-7/h7H,2-6H2,1H3/t7-/m0/s1
