18
gdb 96717	2.46077	1.11474	0.77459	3.9507	83.41	-0.231	-0.0728	0.1582	1449.4157	0.145833	-435.286657	-435.276561	-435.275617	-435.322671	35.188	
C	-0.2398993774	 1.6515443728	 0.8082947324	-0.326857
N	-0.0662019165	 0.2611802655	 0.4599554703	-0.286203
C	-0.9874289653	-0.609885668	 0.3317760994	 0.239402
N	-0.6670210731	-1.9106714079	-0.0081289637	-0.285259
C	 0.6020784646	-2.394422854	-0.2361424714	 0.099307
N	 0.7761034127	-3.6179108505	-0.5447857187	-0.465004
C	-2.5184219329	-0.4934563339	 0.494030423	 0.361495
C	-3.1636879518	 0.8183468294	 0.8649463932	-0.490883
O	-3.1899789919	-1.4867053028	 0.3151560595	-0.301988
H	 0.7466414038	 2.1226963745	 0.8338747109	 0.129465
H	-0.8441080648	 2.2097348517	 0.0806581642	 0.120721
H	-0.6920236218	 1.7981461591	 1.7983653631	 0.120766
H	-1.4455377881	-2.5514948682	-0.0933680755	 0.275664
H	 1.368956582	-1.6265300006	-0.1197474879	 0.127476
H	 1.7684113246	-3.8043317786	-0.6771279574	 0.226417
H	-2.7914618236	 1.1824220066	 1.8270513896	 0.153065
H	-2.9414320832	 1.5906099623	 0.1226877218	 0.153076
H	-4.2414510072	 0.6628011226	 0.9225124972	 0.149343
34.999	95.9012	102.4137	155.7733	163.1247	236.8319	265.9705	276.7163	319.9795	388.9872	411.7322	466.8438	568.3749	621.2882	691.8441	726.4046	810.1228	824.2738	966.327	1034.8641	1045.3447	1088.5766	1102.5724	1103.5101	1142.1157	1220.5056	1273.883	1313.6136	1385.6471	1395.6568	1437.3315	1451.3135	1469.9554	1497.69	1506.2275	1519.9876	1709.2708	1729.3354	1783.047	2996.0776	3049.9007	3050.5408	3089.0944	3117.6818	3121.8789	3156.9118	3504.4853	3588.5152
CN=C(NC=N)C(C)=O	CN=C(NC=N)C(=O)C	
InChI=1S/C5H9N3O/c1-4(9)5(7-2)8-3-6/h3H,1-2H3,(H2,6,7,8)	InChI=1S/C5H9N3O/c1-4(9)5(7-2)8-3-6/h3H,1-2H3,(H2,6,7,8)
