23
gdb 64208	2.75091	1.2017	1.09354	1.5996	85.37	-0.2629	0.0799	0.3428	1263.6761	0.204696	-388.266289	-388.256773	-388.255829	-388.300301	36.552	
C	-0.0113429127	 1.5365902834	 0.046556353	-0.435804
C	-0.0050911565	 0.0057012021	-0.0020814297	 0.322361
C	-1.3783072407	-0.5287634122	-0.3978231771	-0.451235
C	 1.2069743499	-0.544097625	-0.8209928949	-0.259262
C	 1.9773485091	-0.798404482	 0.5005060576	-0.252848
C	 0.6402882194	-0.6626934358	 1.2728836144	-0.021842
C	 0.6214667361	 0.0624611899	 2.5916224772	 0.055175
C	 1.7305497514	-0.0169318696	 3.5523509081	-0.184699
O	 1.5270410388	 1.1591905946	 2.767172002	-0.230817
H	 0.9596034364	 1.9407880622	 0.3432485392	 0.133867
H	-0.2642889893	 1.9420755577	-0.9399208129	 0.104793
H	-0.7538482574	 1.9115275922	 0.7598353018	 0.1094
H	-1.683566079	-0.1437532677	-1.3780583706	 0.112132
H	-1.3802706108	-1.6228541285	-0.4538091702	 0.105549
H	-2.1460050649	-0.2287772584	 0.3258869461	 0.109015
H	 0.9601814181	-1.4744589619	-1.3412303084	 0.092561
H	 1.6626796287	 0.1432535724	-1.5388813273	 0.094344
H	 2.5130446459	-1.7458187958	 0.5935918446	 0.092166
H	 2.6588808567	 0.0187966047	 0.7481418718	 0.12046
H	 0.1809846456	-1.6471100101	 1.4282367787	 0.068945
H	-0.3726418066	 0.2566482827	 3.0005665531	 0.088867
H	 1.5363747625	 0.0933674024	 4.6183487602	 0.112733
H	 2.6173592495	-0.5965250574	 3.2996093534	 0.114138
84.4908	105.4747	162.5351	212.7101	232.3073	256.296	276.6265	323.1766	352.9464	379.2077	484.3701	586.5705	612.295	715.2362	768.2166	832.1754	872.9432	893.0118	918.5777	949.4358	954.2156	965.7255	984.7076	1002.7029	1019.7028	1076.7428	1099.6742	1151.1257	1162.356	1170.6724	1187.0331	1201.2401	1227.4749	1250.5916	1267.1119	1279.9005	1286.2047	1318.7023	1370.3968	1404.1841	1424.1386	1425.9385	1479.6897	1482.4649	1490.4281	1499.2538	1503.9819	1506.3835	1527.0564	3015.6688	3025.575	3028.6311	3049.1186	3064.5446	3079.326	3080.5811	3085.4081	3088.1475	3088.5456	3097.0483	3118.429	3122.5924	3169.1804
CC1(C)CCC1C1CO1	CC1(C)CC[C@H]1[C@H]1CO1	
InChI=1S/C8H14O/c1-8(2)4-3-6(8)7-5-9-7/h6-7H,3-5H2,1-2H3	InChI=1S/C8H14O/c1-8(2)4-3-6(8)7-5-9-7/h6-7H,3-5H2,1-2H3/t6-,7+/m0/s1
