17
gdb 8162	2.83774	2.63716	1.75081	3.5197	67.84	-0.2364	0.0225	0.259	796.3468	0.143809	-363.881979	-363.875063	-363.874119	-363.912671	27.497	
C	-0.0276629148	 1.5453499084	 0.0186922678	-0.494335
C	 0.0504391612	 0.0420301255	 0.0090558949	 0.181173
C	 0.9899736662	-0.8014152959	-0.9232342941	-0.247283
C	 0.6082216376	-1.9218216285	 0.0749263562	-0.006593
C	 0.6435038751	-0.8321824498	 1.1851715382	-0.261636
N	-0.8357563529	-2.0507296686	-0.2324418573	-0.323685
C	-1.275160566	-0.7271206274	-0.1674049648	 0.407144
O	-2.4060459111	-0.3100278465	-0.1923756845	-0.380972
H	 0.952435017	 1.9952959701	 0.2045617393	 0.110553
H	-0.4010286527	 1.9196291044	-0.9399497523	 0.131215
H	-0.7204992217	 1.8894489087	 0.7927563065	 0.13414
H	 0.695913372	-0.940637604	-1.9658369478	 0.109915
H	 2.0338383091	-0.4890960076	-0.8439402619	 0.103788
H	 1.1308010337	-2.8742985177	 0.1366344327	 0.082629
H	 1.6514555752	-0.5174324893	 1.4681113264	 0.104214
H	 0.0241194386	-0.9903003998	 2.0726032875	 0.103067
H	-1.3987654066	-2.7695849618	 0.199956403	 0.246665
148.1311	194.4131	241.2195	309.6046	425.0728	483.9055	488.2365	531.7116	641.7518	676.6977	742.2436	780.1362	844.7305	853.4277	902.1334	934.9862	977.3695	994.6195	1033.4408	1053.556	1086.3103	1104.0985	1157.8351	1195.5225	1211.3573	1230.3308	1235.5712	1307.9634	1341.5034	1380.5876	1417.5053	1478.539	1486.4023	1488.5326	1517.8563	1860.342	3037.6494	3052.8078	3065.7335	3106.198	3110.3156	3117.703	3131.8352	3139.3206	3605.8002
CC12CC(C1)NC2=O	C[C@@]12C[C@@H](C1)NC2=O	
InChI=1S/C6H9NO/c1-6-2-4(3-6)7-5(6)8/h4H,2-3H2,1H3,(H,7,8)	InChI=1S/C6H9NO/c1-6-2-4(3-6)7-5(6)8/h4H,2-3H2,1H3,(H,7,8)/t4-,6+
