14
gdb 24787	2.69911	2.05402	1.18398	5.2951	69.5	-0.2593	-0.0551	0.2043	958.3385	0.104227	-432.916634	-432.910013	-432.909069	-432.947927	24.83	
O	 0.0394783592	-0.0896199376	 0.00145386	-0.368874
C	-0.0241707292	 1.1137260703	 0.009065638	 0.442018
N	-1.18781153	 1.8857604413	 0.0295548485	-0.314783
C	-1.1142662214	 3.1871892739	 0.0357104443	 0.067639
N	 0.0016012435	 4.0044317576	 0.0244096289	-0.373991
C	 1.0753395137	 3.2829279417	 0.0054923103	 0.46301
C	 2.5837399211	 3.4249231876	-0.014895702	-0.37969
C	 2.5924997818	 1.8493215852	-0.0236171074	-0.173345
N	 1.1208578876	 1.9357341409	-0.0023954855	-0.112203
H	-2.0606335489	 3.7257751116	 0.0515959012	 0.132514
H	 2.9885463461	 3.9003654281	-0.9096532398	 0.15663
H	 3.0135845152	 3.8906407565	 0.8732759131	 0.156631
H	 2.983376686	 1.3786750766	-0.9271716519	 0.152225
H	 3.0086265754	 1.3688985763	 0.8633632423	 0.152219
115.1476	173.4802	217.8907	308.9809	449.5703	531.8322	577.0616	609.9785	657.6487	743.3782	799.2366	813.3023	888.5703	907.9093	994.803	1018.2339	1064.8061	1101.7459	1145.8165	1176.3147	1193.8753	1229.9047	1249.8571	1276.7192	1409.197	1431.0092	1461.4223	1511.7795	1535.5802	1696.2257	1832.4626	3086.1418	3094.1874	3141.4114	3150.6097	3154.1916
O=C1N=CN=C2CCN12	O=c1ncnc2CCn12	
InChI=1S/C5H5N3O/c9-5-7-3-6-4-1-2-8(4)5/h3H,1-2H2	InChI=1S/C5H5N3O/c9-5-7-3-6-4-1-2-8(4)5/h3H,1-2H2
