18
gdb 106457	2.42115	1.43088	1.07474	0.7188	72.24	-0.238	-0.0418	0.1962	1143.9589	0.146747	-438.996682	-438.98804	-438.987096	-439.030651	31.576	
O	-0.0127284854	 1.4380073504	-0.0933544204	-0.410693
C	-0.1127153638	 0.0385865924	-0.3227536231	-0.221846
C	-1.5079454975	-0.4782614737	-0.068117715	 0.287618
C	-2.3669113333	-0.4008963061	 1.2183017078	-0.195108
N	-3.318186747	-1.1436825243	 0.2561651829	-0.167581
C	-2.8399500413	-0.1030492185	-0.7772364033	-0.233719
C	-2.0389394519	-1.9287017517	-0.1413268793	-0.083887
C	-2.1020242335	-2.7011934918	-1.4338864266	 0.123328
O	-1.4527609643	-2.4422810056	-2.4172453451	-0.244512
H	-0.5037331096	 1.8848262259	-0.7901074567	 0.286952
H	 0.1999500771	-0.2380083059	-1.339715295	 0.116372
H	 0.5891018737	-0.4318640727	 0.375568994	 0.112305
H	-2.0649084318	-0.9995386804	 2.0823547713	 0.10325
H	-2.7442533306	 0.5783248023	 1.5200982284	 0.112214
H	-3.2517086568	 0.8919845019	-0.5899702395	 0.104909
H	-2.982048562	-0.4011764971	-1.8168778709	 0.122945
H	-1.7354640424	-2.6176457009	 0.6594093704	 0.093452
H	-2.7954651296	-3.5717891343	-1.41213582	 0.094002
72.5734	77.9875	123.1552	194.17	257.0779	280.4824	323.1161	404.1094	467.043	595.2936	655.7597	728.2509	767.7514	802.0106	848.0496	890.4383	904.7252	964.5417	1000.0935	1026.8258	1041.1503	1063.8659	1102.7931	1113.4952	1142.8309	1168.308	1192.2088	1194.9847	1246.6096	1257.6833	1325.4814	1376.5513	1400.6151	1414.6774	1418.8651	1497.0962	1514.5832	1555.962	1817.3162	2885.4257	3007.7286	3016.4457	3055.4978	3066.6743	3067.8252	3127.7709	3139.2295	3819.4113
OCC12CN(C1)C2C=O	OC[C@@]12CN(C1)[C@H]2C=O	
InChI=1S/C6H9NO2/c8-1-5-6(4-9)2-7(5)3-6/h1,5,9H,2-4H2	InChI=1S/C6H9NO2/c8-1-5-6(4-9)2-7(5)3-6/h1,5,9H,2-4H2/t5-/m0/s1
