14
gdb 128752	6.956	0.75379	0.68306	3.3031	73.11	-0.2366	-0.0371	0.1995	1549.5002	0.099524	-469.972198	-469.963803	-469.962859	-470.006981	28.315	
C	-0.0163571153	 1.3865735105	 0.0142610397	-0.254621
O	-0.0116714233	-0.0409812036	 0.0249014644	-0.186581
C	 0.5835146227	-0.6280426523	-1.0163207014	 0.127685
N	 0.6291982818	-1.8955244165	-1.0748860781	-0.338607
C	 1.2435573857	-2.494241175	-2.1517085554	 0.321873
C	 1.3945294205	-3.8278400985	-2.3950262481	-0.039709
O	 2.0452007433	-3.9911507703	-3.5433224098	-0.162817
N	 2.3138571845	-2.6760910715	-4.0433886473	-0.005028
N	 1.8434303194	-1.8490384509	-3.2252287263	-0.188637
H	 1.0037449087	 1.7858647602	 0.0333100819	 0.138463
H	-0.545961517	 1.7743945591	-0.8629557669	 0.13839
H	-0.5414637368	 1.6948350893	 0.9182118376	 0.153794
H	 1.0028506156	 0.0476683153	-1.770001091	 0.122826
H	 1.0960714502	-4.7074839558	-1.8508062993	 0.172968
32.9343	72.402	115.9494	162.0468	184.2299	324.7095	402.1234	411.9123	538.1625	621.998	642.4607	730.4498	803.539	840.5238	970.7833	1006.5589	1037.8916	1059.8326	1143.758	1167.6505	1176.2525	1263.428	1283.5631	1323.8368	1403.282	1477.5699	1485.0683	1495.0793	1497.8317	1627.0715	1740.6337	3025.4731	3070.5382	3095.1271	3155.3158	3295.9454
COC=NC1=CON=N1	COC=Nc1conn1	
InChI=1S/C4H5N3O2/c1-8-3-5-4-2-9-7-6-4/h2-3H,1H3	InChI=1S/C4H5N3O2/c1-8-3-5-4-2-9-7-6-4/h2-3H,1H3
