17
gdb 14434	4.37507	2.17542	1.82395	1.7115	71.71	-0.2085	0.005	0.2136	776.5164	0.143961	-326.692281	-326.68589	-326.684945	-326.722306	26.091	
C	-0.0887975733	 1.5187095433	 0.0488183099	-0.491162
C	 0.0393336835	 0.0249563332	-0.021437638	 0.336631
C	-0.2112330352	-0.8051727154	-1.2731429731	-0.293541
C	-0.6681374909	-1.9437074192	-0.3025653234	-0.052748
C	 0.5283321027	-2.799177814	 0.0330295474	-0.084366
C	 1.3455841707	-2.0721088353	 0.7960496613	-0.073924
C	 0.6780002845	-0.7753980394	 1.092668438	-0.117432
N	-0.777765063	-0.9146957316	 0.8333664677	-0.169816
H	 0.7540760046	 2.004554272	-0.4567283471	 0.121689
H	-1.0123432972	 1.8592316367	-0.4321998245	 0.122291
H	-0.1030080525	 1.8621898992	 1.087556859	 0.126605
H	-1.0598967438	-0.3929447384	-1.8247624995	 0.109838
H	 0.6125455426	-1.0095638517	-1.9639362207	 0.095134
H	-1.6023246791	-2.4559975361	-0.5283715247	 0.07854
H	 0.7274301224	-3.7663055804	-0.4107558267	 0.102468
H	 2.3363639937	-2.3339770715	 1.1432691718	 0.103444
H	 0.9321418304	-0.2197793113	 1.9909704627	 0.086348
174.1104	224.0375	301.5899	360.9109	421.8762	543.4493	588.0767	721.7055	728.5782	757.5114	789.8898	820.7572	863.8402	871.6071	932.0415	947.9162	959.1177	992.5076	1014.5956	1056.8588	1074.6814	1089.267	1117.2173	1153.4763	1215.5631	1225.3948	1271.2885	1294.3479	1313.3036	1352.3349	1395.148	1416.6255	1481.3063	1490.4893	1491.8506	1655.4851	3026.1182	3047.4458	3088.489	3104.9366	3106.5032	3120.2938	3150.5677	3206.5055	3231.9487
CC12CC3C=CC1N23	C[C@@]12C[C@H]3C=C[C@@H]1N23	
InChI=1S/C7H9N/c1-7-4-5-2-3-6(7)8(5)7/h2-3,5-6H,4H2,1H3	InChI=1S/C7H9N/c1-7-4-5-2-3-6(7)8(5)7/h2-3,5-6H,4H2,1H3/t5-,6+,7-,8?/m1/s1
