15
gdb 19503	3.31993	2.27971	1.99028	1.6918	67.22	-0.2306	-0.0314	0.1992	740.9412	0.119534	-362.643114	-362.636588	-362.635644	-362.673647	24.968	
O	-0.4966874438	 0.3841527791	 0.4756248088	-0.275109
C	-0.0138206949	 1.2495956116	-0.2180164267	 0.149927
C	 1.2590294725	 1.9736942799	 0.0111975538	-0.100585
C	 1.494241648	 2.8592531714	 1.232833169	-0.083194
C	 0.6554504434	 2.6407563641	 2.4382925435	-0.075346
C	 0.8841002645	 1.421193362	 2.9259497709	-0.054977
C	 1.9170344165	 0.7016008571	 2.094287739	-0.2051
N	 2.2903508385	 1.6505929036	 1.0108413953	-0.121601
H	-0.5237899334	 1.5797528931	-1.1522086145	 0.077912
H	 1.6891393003	 2.3473804643	-0.9173156034	 0.105139
H	 1.964547048	 3.8231215687	 1.0525021811	 0.1051
H	-0.0310552708	 3.3804651421	 2.8285838513	 0.105719
H	 0.392979983	 0.9695492276	 3.7790726722	 0.109737
H	 2.8249954211	 0.4744820516	 2.6675270518	 0.116428
H	 1.536458277	-0.2358936964	 1.6819018979	 0.145952
140.1071	189.4552	216.6071	317.3746	394.5806	505.0893	707.4769	720.5304	730.1273	743.2855	816.0935	867.0342	892.9019	939.8643	954.6233	965.452	994.4557	1032.363	1056.7823	1096.7779	1104.5831	1127.6006	1220.972	1270.9806	1306.4873	1349.0429	1369.3085	1384.9998	1432.2864	1475.44	1664.8739	1796.8606	2865.8577	3024.4859	3102.9177	3116.119	3136.5047	3207.1813	3232.0249
O=CC1C2C=CCN12	O=C[C@H]1[C@H]2C=CCN12	
InChI=1S/C6H7NO/c8-4-6-5-2-1-3-7(5)6/h1-2,4-6H,3H2	InChI=1S/C6H7NO/c8-4-6-5-2-1-3-7(5)6/h1-2,4-6H,3H2/t5-,6+,7?/m1/s1
