18
gdb 45102	2.73269	1.76272	1.24648	3.8352	75.45	-0.229	0.031	0.26	1010.7929	0.15088	-401.964709	-401.957567	-401.956623	-401.996245	29.096	
O	 0.0313346566	-0.0454465787	-0.1871754115	-0.384006
C	 0.0377610065	 1.1671091099	-0.0699912443	 0.39204
N	-1.12304523	 1.8685528884	 0.165347074	-0.323907
C	-1.3354176775	 3.2780432715	 0.0298757583	 0.016384
C	-1.0384538599	 4.2224978295	 1.1736238805	-0.316858
C	-0.1093487194	 4.148196703	-0.0189333976	-0.03956
C	 1.2411554879	 3.4823585628	 0.0050353753	-0.052235
C	 1.737162754	 2.669426786	 1.1626773331	-0.302142
C	 1.2985674802	 1.9690838893	-0.1133294065	-0.125735
H	-1.9355830977	 1.2739491176	 0.2451378302	 0.245071
H	-2.1659493103	 3.5289849286	-0.6246700166	 0.101441
H	-1.6561073629	 5.1073732568	 1.281774877	 0.115392
H	-0.7123086273	 3.7806947639	 2.1079420458	 0.121618
H	-0.1634470597	 4.9833719507	-0.7085501993	 0.097052
H	 2.0031751755	 4.020185045	-0.5488580538	 0.094697
H	 2.799385598	 2.6847817205	 1.377955008	 0.123586
H	 1.1076859825	 2.555280544	 2.0376566029	 0.12667
H	 2.0690820535	 1.5051753313	-0.7161681355	 0.11049
86.6069	199.7166	251.6651	382.9326	419.579	459.6711	502.4181	546.023	570.331	687.565	736.9033	756.0736	796.7434	819.8678	843.7511	873.6416	933.7022	953.2575	994.3071	1017.7425	1045.4367	1060.1857	1070.2136	1094.4279	1119.8166	1123.7718	1132.4152	1158.6357	1214.2348	1253.2951	1313.2599	1376.099	1391.6737	1401.3238	1422.5972	1459.3184	1486.5126	1500.0499	1781.7625	3131.3352	3137.0447	3143.0043	3154.809	3170.2099	3194.271	3226.3923	3230.1795	3603.996
O=C1NC2CC2C2CC12	O=C1N[C@H]2C[C@H]2[C@H]2C[C@@H]12	
InChI=1S/C7H9NO/c9-7-5-1-3(5)4-2-6(4)8-7/h3-6H,1-2H2,(H,8,9)	InChI=1S/C7H9NO/c9-7-5-1-3(5)4-2-6(4)8-7/h3-6H,1-2H2,(H,8,9)/t3-,4+,5-,6+/m1/s1
