17
gdb 71147	2.94071	1.74089	1.35372	4.1742	71.89	-0.2419	0.0058	0.2476	965.3575	0.137608	-418.000767	-417.993636	-417.992692	-418.031937	28.875	
C	 0.0096287797	 1.5447500421	-0.0022083771	-0.491985
C	 0.0433008173	 0.0357652731	 0.0247049822	 0.269178
C	-1.2337361605	-0.7817874297	 0.3940426386	-0.182751
N	-0.4435750216	-1.696239818	 1.2812637615	-0.150852
C	 0.8418410211	-2.0746746184	 0.5740943998	-0.154502
C	 0.7054841942	-0.7454979721	 1.1989844919	-0.071272
C	 0.9544111277	-1.9003138646	-0.9204914674	 0.411273
O	 1.2547293629	-2.7314358079	-1.7457587784	-0.373883
N	 0.6664945822	-0.5633433203	-1.1562582773	-0.346168
H	 1.0181805146	 1.9519360052	-0.1218379074	 0.136954
H	-0.6048315389	 1.9092453345	-0.8330420788	 0.125138
H	-0.4172335568	 1.9371611836	 0.9251722143	 0.130584
H	-1.9282051247	-0.2283572697	 1.0312607413	 0.117293
H	-1.7760813164	-1.2642531306	-0.4261696517	 0.108623
H	 1.3489636859	-2.904553262	 1.0475854692	 0.122243
H	 1.244362387	-0.3622790038	 2.0577724234	 0.105857
H	 0.3374739062	-0.3172947512	-2.0810057241	 0.244269
154.7775	222.6787	256.729	285.6696	367.7073	463.6636	467.1476	550.0778	599.0107	640.1525	693.9904	731.5977	782.2422	814.7472	873.7515	895.0636	916.2801	958.4919	978.7622	996.4039	1010.4252	1057.4703	1153.1476	1157.2508	1187.7904	1200.5842	1242.7114	1263.3238	1297.9474	1309.9291	1345.9363	1401.3414	1419.2747	1490.2126	1492.0656	1496.4486	1835.9118	3035.1439	3043.0811	3102.1104	3109.113	3118.6705	3181.576	3217.0948	3585.2702
CC12CN3C(C13)C(=O)N2	C[C@]12CN3[C@H]([C@@H]13)C(=O)N2	
InChI=1S/C6H8N2O/c1-6-2-8-3(4(6)8)5(9)7-6/h3-4H,2H2,1H3,(H,7,9)	InChI=1S/C6H8N2O/c1-6-2-8-3(4(6)8)5(9)7-6/h3-4H,2H2,1H3,(H,7,9)/t3-,4+,6+,8?/m1/s1
