22
gdb 101869	5.2388	0.56301	0.53371	4.5619	84.76	-0.2813	0.011	0.2923	2087.1706	0.191593	-404.35777	-404.346677	-404.345733	-404.395325	38.341	
C	 0.0309902127	 1.536122681	 0.0500438405	-0.391798
C	-0.0450926251	 0.0067824063	 0.0067997597	-0.172494
C	-1.4776504222	-0.5567991319	-0.0283857935	 0.019062
C	-2.2440009785	-0.167639885	-1.2995511638	-0.393183
C	-1.4316001031	-2.0753697373	 0.1335569459	-0.057047
O	-2.7593878505	-2.5703718401	 0.2446064519	-0.241518
C	-2.8047795376	-3.9672015384	 0.3601415377	-0.184005
C	-4.2021113028	-4.4001491112	 0.4645791042	 0.263315
N	-5.2918094926	-4.7717458388	 0.5486615827	-0.292443
H	 1.0693096054	 1.8707614786	 0.1355505225	 0.115137
H	-0.3872386483	 1.992325375	-0.8519128774	 0.122571
H	-0.5184657038	 1.9342481541	 0.9103362303	 0.117245
H	 0.5070407642	-0.3618885654	-0.8689244834	 0.095355
H	 0.4735996944	-0.3973161894	 0.8861322172	 0.093299
H	-2.0233562592	-0.1640877955	 0.8408960797	 0.086821
H	-3.2286210859	-0.6402013592	-1.3141921019	 0.136273
H	-2.3868080053	 0.9138693874	-1.3671648906	 0.117545
H	-1.6993274862	-0.4903150199	-2.1956605536	 0.107625
H	-0.9298774709	-2.539689178	-0.7333865525	 0.090346
H	-0.8567897332	-2.3506844582	 1.0331088285	 0.09092
H	-2.3486988206	-4.4645239703	-0.5122645555	 0.138695
H	-2.2614505709	-4.321402344	 1.2522922215	 0.138278
36.6255	72.9557	78.6091	102.9625	133.0429	198.0699	206.9447	255.1435	293.1371	302.9137	379.3097	386.8157	427.797	505.3119	583.6894	778.2693	832.7116	918.6471	929.2467	957.6965	982.027	1014.001	1032.0928	1039.127	1055.6744	1152.612	1163.6039	1177.9092	1193.5787	1250.9733	1266.8603	1296.2651	1314.1242	1377.4372	1380.7437	1387.7996	1410.3405	1416.7614	1444.1877	1483.9116	1492.3165	1495.518	1500.0747	1507.1506	1512.5666	1521.4738	2374.0842	2950.0457	2966.6475	2984.2392	2989.7774	3007.3773	3016.0939	3032.5932	3036.0704	3044.9782	3101.6206	3104.131	3111.9914	3130.8807
CCC(C)COCC#N	CC[C@@H](C)COCC#N	
InChI=1S/C7H13NO/c1-3-7(2)6-9-5-4-8/h7H,3,5-6H2,1-2H3	InChI=1S/C7H13NO/c1-3-7(2)6-9-5-4-8/h7H,3,5-6H2,1-2H3/t7-/m1/s1
