19
gdb 64781	4.32801	0.67966	0.66603	1.1511	97.64	-0.2404	-0.0101	0.2303	1744.7333	0.156617	-348.695372	-348.685599	-348.684654	-348.730347	36.471	
C	 0.0395132286	 1.5379263909	 0.4956663624	-0.46075
C	-0.0032208063	 0.0760504619	 0.099572475	 0.386208
C	-1.3719500802	-0.4200351236	-0.3746994591	-0.47058
C	-1.8384020973	 0.2345195544	-1.5906640589	 0.41001
C	-2.2109499067	 0.7857426954	-2.6021090944	-0.266111
C	-2.6308204123	 1.4029956216	-3.7400046841	 0.292599
C	-3.0027841203	 1.9508730859	-4.750013902	-0.553681
C	 1.2137396669	-0.5357041186	-0.5464740541	-0.286804
C	 0.842552972	-0.9067028889	 0.8716234654	-0.316445
H	 1.043852968	 1.8262021842	 0.819758499	 0.11414
H	-0.2426209117	 2.1815476109	-0.3441050615	 0.133529
H	-0.6505231331	 1.7446455804	 1.3226870052	 0.114028
H	-1.328740293	-1.5033802785	-0.5462323337	 0.131181
H	-2.1128632831	-0.2678303502	 0.4231649992	 0.134006
H	-3.3297576712	 2.4326044971	-5.6375883971	 0.188724
H	 1.0642937688	-1.2774990128	-1.3238808706	 0.115021
H	 2.0809768207	 0.0971309338	-0.7010483911	 0.112952
H	 1.4559516698	-0.5220066482	 1.6794830032	 0.112533
H	 0.4481998406	-1.9015560556	 1.0525230571	 0.10944
51.9362	68.3614	154.4445	193.5358	224.5499	306.7742	333.0953	341.5621	358.4313	383.2779	471.976	524.9859	529.5787	586.5873	591.5563	719.9481	741.262	782.2373	873.4274	898.4103	931.3401	955.8733	975.9989	1045.4399	1070.7022	1081.065	1124.2356	1172.7043	1186.0926	1206.3558	1305.0406	1326.9437	1371.515	1421.717	1458.0012	1470.5814	1492.0769	1499.8923	1511.4847	2180.8019	2362.1191	3005.7349	3026.1251	3042.5462	3088.855	3107.3169	3126.2883	3133.2243	3204.6837	3219.8221	3506.5822
CC1(CC#CC#C)CC1	CC1(CC#CC#C)CC1	
InChI=1S/C9H10/c1-3-4-5-6-9(2)7-8-9/h1H,6-8H2,2H3	InChI=1S/C9H10/c1-3-4-5-6-9(2)7-8-9/h1H,6-8H2,2H3
