13
gdb 28997	3.06218	1.54657	1.02759	4.5808	75.19	-0.2574	-0.0646	0.1928	1054.6604	0.092173	-415.694851	-415.687924	-415.68698	-415.726357	26.182	
O	 0.1073490286	 1.3344137379	 0.0664861806	-0.393927
C	 0.0743136199	-0.00376077	 0.0322768245	 0.393981
N	 0.0879499146	-0.5958924461	-1.1531867668	-0.359444
C	 0.0550565586	-1.9313724662	-1.1903543926	 0.008396
C	 0.0073927389	-2.7310950492	-0.0541379998	-0.1336
C	-0.0066680259	-2.103808588	 1.1858326883	-0.140235
C	 0.0269634336	-0.7097696619	 1.2538211454	 0.037451
C	 0.0141383522	-0.0243696215	 2.5035390251	 0.232331
N	 0.0029033112	 0.5108773564	 3.5299722221	-0.334606
H	 0.1371149537	 1.632422321	-0.8542285184	 0.308026
H	 0.0676935001	-2.3773315127	-2.1812582007	 0.128148
H	-0.0178839322	-3.8100994488	-0.1380458655	 0.116685
H	-0.0433569689	-2.6766104808	 2.1052918177	 0.136795
124.3844	149.5502	234.2904	387.6307	407.9326	478.1008	502.6145	571.5012	583.2705	605.238	607.4441	739.2495	800.2055	829.5793	894.2889	985.7073	991.5542	1076.5189	1111.882	1192.5728	1232.6535	1293.626	1347.7159	1358.0978	1490.8391	1504.2731	1622.3147	1637.7842	2345.562	3168.9076	3203.0327	3220.261	3760.4686
OC1=NC=CC=C1C#N	Oc1ncccc1C#N	
InChI=1S/C6H4N2O/c7-4-5-2-1-3-8-6(5)9/h1-3H,(H,8,9)	InChI=1S/C6H4N2O/c7-4-5-2-1-3-8-6(5)9/h1-3H,(H,8,9)
