20
gdb 70473	3.38442	0.98377	0.88341	3.1456	80.59	-0.2216	-0.0228	0.1989	1371.498	0.168806	-403.111425	-403.10223	-403.101286	-403.146076	33.862	
C	-0.0942414633	 1.474080797	-0.1149967639	-0.479908
C	 0.0163204674	-0.0105593061	 0.0625373309	 0.371519
C	-0.8166367818	-0.8239124632	 1.0238485657	-0.331954
C	 0.690673521	-0.8713823233	 1.1219912349	-0.124426
C	 1.2359475545	-1.7430945679	-0.0077226353	-0.187355
N	 0.5948678237	-0.8372898955	-1.007293365	-0.136546
C	-0.2752682506	-1.3991077928	-2.0203657308	-0.247308
C	 0.5329100486	-1.9272883299	-3.1954057042	 0.158279
O	 0.2418829664	-2.8975542053	-3.844394174	-0.238299
H	 0.8495549243	 1.8938087293	-0.476634562	 0.12675
H	-0.8769432184	 1.7300345526	-0.8399315152	 0.120196
H	-0.3550394446	 1.9590503636	 0.8304588071	 0.121977
H	-1.3115014875	-0.2500120906	 1.8012716076	 0.11339
H	-1.3715494376	-1.699359529	 0.6951904028	 0.107701
H	 1.2358537319	-0.5625964322	 2.0039316873	 0.095075
H	 2.3261631409	-1.7489733129	-0.1038437279	 0.111662
H	 0.8709138863	-2.7794658848	-0.0255968172	 0.102374
H	-0.9547872795	-2.195367741	-1.6755487953	 0.106955
H	-0.9006693385	-0.58564511	-2.4181639607	 0.128088
H	 1.4375750268	-1.3164980881	-3.4157276749	 0.081831
51.3706	77.2841	137.9891	181.6296	200.4484	267.6197	317.6114	383.2971	418.7041	467.6331	519.0559	641.7531	706.5815	769.5564	817.4072	851.4745	884.9212	935.5267	969.153	982.9855	998.0531	1040.9607	1065.3628	1071.6001	1103.7421	1119.6819	1130.6981	1155.823	1211.2404	1240.0967	1259.3342	1281.6757	1331.7361	1336.868	1378.6037	1404.1066	1421.9082	1452.7519	1478.146	1486.8441	1499.2052	1513.8452	1837.9251	2883.5264	2971.4925	3005.7811	3025.0774	3027.6943	3070.0663	3086.6864	3109.6828	3113.5073	3196.0891	3205.3709
CC12CC1CN2CC=O	C[C@]12C[C@H]1CN2CC=O	
InChI=1S/C7H11NO/c1-7-4-6(7)5-8(7)2-3-9/h3,6H,2,4-5H2,1H3	InChI=1S/C7H11NO/c1-7-4-6(7)5-8(7)2-3-9/h3,6H,2,4-5H2,1H3/t6-,7-/m0/s1
