15
gdb 52069	2.75024	1.10065	0.88107	6.2378	67.79	-0.2893	-0.0101	0.2791	1281.0007	0.111493	-453.938598	-453.929787	-453.928843	-453.97354	30.353	
O	 0.3817349883	-0.0601152747	 0.0945157637	-0.257209
C	 0.5667216947	 1.0336792586	-0.3357136878	 0.182441
O	 0.7075248128	 2.1146590294	 0.4736756341	-0.181172
C	 0.9271366084	 3.385827337	-0.132557589	-0.176578
C	 2.3730209418	 3.8190041163	 0.0240166342	 0.152313
C	 2.6559936991	 5.2452903145	 0.3838134	-0.264419
N	 2.8816188892	 4.1829759791	 1.357462006	-0.309067
C	 3.304165436	 3.0897816043	-0.8140058369	 0.277188
N	 4.0024540175	 2.5028074742	-1.5236329195	-0.326901
H	 0.6337999063	 1.2922111166	-1.4093533293	 0.095956
H	 0.6474854293	 3.3619921566	-1.1930185721	 0.136654
H	 0.2737865244	 4.096536889	 0.3821371209	 0.128274
H	 3.5549163921	 5.7167857603	 0.0007067587	 0.154378
H	 1.797641903	 5.9041099794	 0.4910937238	 0.132133
H	 2.1275184571	 4.1219683894	 2.0380705831	 0.256009
49.4087	50.5048	146.2433	160.6965	221.715	268.8319	292.4307	394.4313	427.5874	561.119	584.1928	676.6972	719.287	857.5648	901.1917	925.0403	978.2684	1014.0004	1036.3433	1063.8632	1093.1407	1139.3236	1153.5715	1241.1899	1287.6749	1312.0207	1382.5839	1403.2661	1430.6905	1489.0416	1511.4498	1880.4175	2360.8246	2965.5751	3033.8045	3094.1595	3115.6898	3211.3381	3504.4519
O=COCC1(CN1)C#N	O=COC[C@]1(CN1)C#N	
InChI=1S/C5H6N2O2/c6-1-5(2-7-5)3-9-4-8/h4,7H,2-3H2	InChI=1S/C5H6N2O2/c6-1-5(2-7-5)3-9-4-8/h4,7H,2-3H2/t5-/m1/s1
