14
gdb 49361	1.87032	1.79268	1.36826	4.3183	70.65	-0.258	-0.0586	0.1993	1002.6865	0.097477	-436.639145	-436.630393	-436.629448	-436.672974	30.599	
O	 0.1436748943	 0.1586450426	 0.7233372084	-0.241611
C	 0.1752849844	 1.0799031003	-0.0514359449	 0.152704
C	 1.2906674927	 2.0740955663	-0.1298291804	-0.132075
C	 1.5582757206	 2.9620805213	 1.1071213284	-0.227204
C	 0.7675758986	 2.8364596912	 2.2977136957	 0.390016
C	 0.0991423337	 2.787689825	 3.2941486194	-0.434912
N	 2.4682525165	 1.92969864	 0.6795996349	-0.080708
C	 2.8677914286	 0.8075161422	 1.4149800299	 0.175269
O	 3.2161568522	 0.8516541975	 2.5630795057	-0.28209
H	-0.6452589163	 1.2647752432	-0.7767282287	 0.100333
H	 1.4264433575	 2.5411648859	-1.1042116581	 0.122951
H	 1.8957943199	 3.9726159101	 0.8847622587	 0.139987
H	-0.4769984429	 2.7204650509	 4.1842438311	 0.214342
H	 2.9235286303	-0.0917141664	 0.7786808198	 0.102997
88.4589	105.2182	115.279	149.5851	229.2534	259.994	294.9102	366.9424	508.3636	528.6289	620.6965	648.0211	679.3722	755.9047	811.1443	870.3403	900.9684	983.0751	1020.796	1039.6792	1083.4464	1090.3329	1131.4088	1349.5726	1359.6027	1408.8701	1417.2851	1426.7998	1809.376	1826.7962	2246.4305	2911.4067	2994.5456	3122.4322	3130.5856	3501.8044
O=CC1C(C#C)N1C=O	O=C[C@H]1[C@@H](C#C)N1C=O	
InChI=1S/C6H5NO2/c1-2-5-6(3-8)7(5)4-9/h1,3-6H	InChI=1S/C6H5NO2/c1-2-5-6(3-8)7(5)4-9/h1,3-6H/t5-,6+,7?/m1/s1
