19
gdb 47725	2.46047	1.73866	1.16109	2.593	76.27	-0.2307	-0.019	0.2117	1084.1723	0.159806	-423.041046	-423.033026	-423.032081	-423.073737	31.314	
O	 0.0188921646	 0.0405237444	 0.4645374697	-0.326424
C	-0.0069894138	 1.1952372614	 0.0966949746	 0.326439
C	-1.3223818958	 1.9243326852	-0.1619930947	-0.314341
C	-1.1870920683	 3.1748845528	-1.0419934862	-0.215449
C	 0.0613324404	 3.9560250702	-0.6434492414	-0.089869
O	 1.2174691446	 3.1497991383	-0.8300705855	-0.297776
C	 1.2486645052	 2.0138890622	-0.0119103206	 0.327215
C	 2.1056043552	 2.0786210607	 1.2568257748	-0.309731
C	 2.5700864656	 1.3111176503	 0.0522741088	-0.310081
H	-2.0439453529	 1.2015474642	-0.5517514074	 0.129701
H	-1.687078611	 2.2160996468	 0.8337648728	 0.133711
H	-1.0906157314	 2.889224866	-2.095400451	 0.116923
H	-2.0792358084	 3.8047235152	-0.9546409248	 0.102389
H	 0.2041767088	 4.8351481986	-1.2772000353	 0.110823
H	-0.0063286267	 4.2951864088	 0.4034103442	 0.090612
H	 2.5664401953	 3.0398679102	 1.454223035	 0.124119
H	 1.7664000986	 1.5231337004	 2.1235414361	 0.13118
H	 2.5329748671	 0.2292363295	 0.0915283163	 0.142343
H	 3.3575107329	 1.7466284047	-0.5513895554	 0.128217
66.0036	125.6501	234.4991	272.2286	296.8151	380.5796	426.0216	444.4789	510.4081	569.0078	632.1517	658.2198	779.2243	820.7393	845.0937	867.9772	904.9871	931.5935	957.452	1002.3443	1019.3915	1051.695	1082.1007	1098.4595	1111.7382	1141.8049	1202.1003	1211.8719	1227.3271	1289.8483	1297.0121	1339.8842	1350.3201	1376.574	1406.1496	1437.3651	1451.4581	1472.2455	1484.2532	1501.2157	1793.2115	2974.1446	3015.7491	3039.4675	3082.8125	3094.468	3100.0737	3138.3939	3147.9323	3232.8215	3249.2357
O=C1CCCOC11CC1	O=C1CCCOC21CC2	
InChI=1S/C7H10O2/c8-6-2-1-5-9-7(6)3-4-7/h1-5H2	InChI=1S/C7H10O2/c8-6-2-1-5-9-7(6)3-4-7/h1-5H2
