19
gdb 87530	2.95358	1.50245	1.30209	2.3801	74.94	-0.2376	0.0699	0.3075	1039.1053	0.160221	-422.975936	-422.968278	-422.967334	-423.007867	30.718	
O	-0.1449318441	 1.4548462062	-0.0633432026	-0.423955
C	-0.0263387162	 0.0611578247	 0.0022348297	-0.009953
C	-0.5020736912	-0.679930746	 1.2460244401	-0.426527
C	-1.297798658	-0.6987163551	-0.019856572	 0.437512
C	-2.7446851997	-0.2492146904	-0.2227526492	 0.000887
C	-2.8057522458	 0.0555109747	-1.7349920309	-0.219054
C	-2.0835045468	-1.2433960526	-2.2287662847	-0.218079
C	-1.8379627117	-1.8724698274	-0.8390344985	-0.027777
O	-3.1294867968	-1.6647384938	-0.1822195012	-0.303864
H	 0.5499460961	 1.8408560768	 0.4804298532	 0.289516
H	 0.8332193272	-0.3550894818	-0.5261254756	 0.085159
H	 0.0365737614	-1.5718899706	 1.551595111	 0.113388
H	-0.8811639432	-0.0729043459	 2.0625959476	 0.117984
H	-3.2824446718	 0.385233208	 0.4803833899	 0.081432
H	-3.8368203334	 0.1247495958	-2.0874736727	 0.102945
H	-2.2738400233	 0.9738813164	-1.9925002714	 0.11778
H	-2.725152191	-1.8782087614	-2.8432334059	 0.105374
H	-1.157289286	-1.0443516941	-2.7745330243	 0.099343
H	-1.4538332755	-2.8900303735	-0.7649610123	 0.077889
126.1238	141.703	216.1574	291.9599	309.4122	413.8539	434.1514	444.1525	589.1783	637.1591	749.0898	813.9278	835.2377	847.4283	870.251	875.4041	918.5212	946.4343	949.7787	982.3865	990.1188	1016.2924	1036.4435	1052.6107	1095.524	1128.6634	1162.9703	1191.5161	1197.4425	1217.309	1236.9715	1251.7974	1275.711	1292.8911	1304.391	1318.4194	1379.1758	1438.2791	1478.6669	1497.7558	1519.0893	3064.7177	3076.2633	3083.0981	3112.6083	3119.3376	3122.0427	3131.5356	3134.9252	3207.5921	3802.3434
OC1CC11C2CCC1O2	O[C@H]1C[C@]21[C@H]1CC[C@@H]2O1	
InChI=1S/C7H10O2/c8-4-3-7(4)5-1-2-6(7)9-5/h4-6,8H,1-3H2	InChI=1S/C7H10O2/c8-4-3-7(4)5-1-2-6(7)9-5/h4-6,8H,1-3H2/t4-,5-,6+,7+/m0/s1
