14
gdb 131756	2.28975	1.47841	0.90459	2.9493	71.86	-0.252	-0.0339	0.2181	1193.1074	0.099676	-436.641155	-436.632818	-436.631874	-436.674657	30.013	
O	 0.3626998137	 1.0159297707	 0.8767890802	-0.409821
C	-0.050118196	 0.35061013	-0.2904358376	-0.161085
C	-1.4287181217	-0.2346543868	-0.1867871155	 0.279395
N	-2.0345663922	-0.2844084595	 0.9693676445	-0.209957
O	-3.2578617487	-0.9140253245	 0.7416581013	-0.166042
C	-3.3478326317	-1.2223530575	-0.5533947661	-0.010293
C	-2.2257775343	-0.829467707	-1.2252618063	-0.048683
C	-1.9080232001	-0.9599826377	-2.5936245406	 0.245252
C	-1.6075904771	-1.0567761567	-3.7552216163	-0.444874
H	-0.0287521419	 0.5603110837	 1.6311196891	 0.30295
H	-0.0259042919	 1.0728308634	-1.1152401139	 0.136179
H	 0.6427370378	-0.4618067355	-0.570776436	 0.118044
H	-4.2553214808	-1.7122399887	-0.8697926473	 0.169388
H	-1.3492603352	-1.1446643141	-4.7816268256	 0.199546
66.8791	109.2255	171.7116	202.7872	252.8381	276.2682	392.0513	475.1676	558.8343	578.3412	589.5484	607.527	671.9354	690.7111	749.221	851.5643	932.9259	945.0201	1020.7564	1092.9977	1162.7938	1184.3178	1233.8034	1290.3778	1322.653	1394.1425	1459.446	1492.7974	1525.8617	1626.5568	2240.5142	2958.1668	3054.0984	3271.9106	3501.6584	3797.1989
OCC1=NOC=C1C#C	OCc1nocc1C#C	
InChI=1S/C6H5NO2/c1-2-5-4-9-7-6(5)3-8/h1,4,8H,3H2	InChI=1S/C6H5NO2/c1-2-5-4-9-7-6(5)3-8/h1,4,8H,3H2
