14
gdb 128910	7.51379	0.74278	0.68159	2.4099	67.27	-0.3045	-0.0407	0.2638	1508.0537	0.101873	-432.886721	-432.878818	-432.877873	-432.921094	27.004	
N	-0.0150957254	-1.1674681371	-0.0266798446	-0.29461
C	 0.0482458961	-0.0362085304	 0.1984597986	 0.25992
C	 0.1419369865	 1.3960529616	 0.4699275547	-0.335154
C	 1.1695511614	 2.0821597109	-0.4494936366	-0.337998
C	 1.2584233455	 3.5434005102	-0.1642817718	 0.459711
N	 0.6007998184	 4.2343855185	 0.7194997513	-0.317671
C	 1.1002746866	 5.4986127043	 0.5140421117	 0.035616
N	 1.9998808596	 5.5963325278	-0.4234666782	-0.104556
O	 2.1119418915	 4.2771218667	-0.8868533548	-0.203506
H	-0.8433112368	 1.8536899926	 0.3399084315	 0.175542
H	 0.4152824777	 1.5479572711	 1.518384065	 0.175614
H	 2.1589271497	 1.6298090007	-0.3225826893	 0.165849
H	 0.8999561003	 1.9364090485	-1.5009875463	 0.165827
H	 0.7832530589	 6.3632971245	 1.078474989	 0.155417
32.1264	60.4295	110.266	215.0045	258.406	384.3107	396.03	525.7035	649.7321	686.4377	761.3353	786.3898	906.915	932.01	953.1573	979.9265	1035.4285	1041.1865	1045.3118	1190.7372	1196.3777	1215.8351	1274.9402	1307.3788	1331.414	1404.0017	1461.5968	1475.9391	1520.739	1621.2591	2367.6692	3054.6514	3070.5727	3086.6127	3112.149	3264.933
N#CCCC1=NC=NO1	N#CCCc1ncno1	
InChI=1S/C5H5N3O/c6-3-1-2-5-7-4-8-9-5/h4H,1-2H2	InChI=1S/C5H5N3O/c6-3-1-2-5-7-4-8-9-5/h4H,1-2H2
