17
gdb 72176	2.41869	2.22697	1.72787	2.3435	66.31	-0.2293	0.0597	0.2891	853.249	0.137765	-458.934321	-458.927683	-458.926739	-458.964888	27.637	
O	-0.0695969279	 1.4047981883	 0.0262308073	-0.484998
C	-0.0108068391	 0.0210555258	-0.0509015693	 0.34563
C	 0.2483938199	-0.8116508446	-1.3350332252	-0.324648
C	-0.3553090062	-1.9243484655	-0.4535915396	 0.040423
O	 0.6508487451	-2.1023301524	 0.5643235031	-0.278665
C	 0.7248474564	-0.7605389168	 1.0874852233	-0.012745
C	-0.2788885941	-0.7001313779	 2.2340015768	-0.074417
O	-1.5342649894	-0.9485510245	 1.5717661728	-0.278315
C	-1.2797233459	-0.8277660051	 0.1956323281	 0.090335
H	 0.8210134974	 1.7594570735	-0.0732821497	 0.284948
H	-0.3999583255	-0.4958405283	-2.1552359337	 0.111583
H	 1.274669985	-0.9647299338	-1.6729116623	 0.104785
H	-0.7000079704	-2.8858626277	-0.8252894936	 0.08956
H	 1.754307286	-0.4809326153	 1.3216729817	 0.07597
H	-0.0979713224	-1.4846512844	 2.9737426432	 0.114202
H	-0.2984665452	 0.2814713849	 2.7280410644	 0.099253
H	-2.1834085338	-0.5682958463	-0.3537104173	 0.097098
239.1125	255.2373	268.083	312.6079	428.9775	454.2086	488.8524	582.8274	661.5185	744.4058	766.783	809.3578	854.5981	911.1783	917.9258	936.6899	951.8944	970.3448	1014.3191	1014.5842	1065.7413	1076.9046	1111.5542	1120.6321	1147.8115	1194.0213	1209.0923	1215.4257	1249.1035	1281.3772	1290.5913	1311.8768	1337.7247	1376.6623	1407.7857	1485.9498	1499.4908	3008.4884	3073.1512	3091.8436	3096.2627	3137.5669	3141.7442	3159.5092	3797.8098
OC12CC3OC1COC23	O[C@@]12C[C@H]3O[C@@H]1CO[C@@H]23	
InChI=1S/C6H8O3/c7-6-1-3-5(6)8-2-4(6)9-3/h3-5,7H,1-2H2	InChI=1S/C6H8O3/c7-6-1-3-5(6)8-2-4(6)9-3/h3-5,7H,1-2H2/t3-,4-,5-,6+/m1/s1
