23
gdb 115097	2.49702	1.22955	0.9883	1.4348	86.39	-0.2331	0.0346	0.2676	1307.345	0.206657	-388.306651	-388.297194	-388.29625	-388.340545	36.373	
C	-0.1960316766	 1.5691023759	-0.0648095316	-0.397444
C	 0.0041926463	 0.0457565561	 0.0054625456	-0.000015
C	 0.7700940011	-0.4683353034	-1.2313318588	-0.270181
C	 2.2593639476	-0.252822755	-1.1260884164	-0.043802
C	 2.883388952	 0.0191933485	 0.0194987726	-0.058307
C	 2.174248978	 0.1261168008	 1.3423692753	-0.247339
C	 0.7419340522	-0.4315592102	 1.278432733	 0.039517
C	-0.0351787192	-0.1529865024	 2.5616199483	-0.109403
O	 0.6243932019	-0.8264186313	 3.627407826	-0.425704
H	 0.759442355	 2.0993536476	-0.1200943475	 0.126451
H	-0.7699018112	 1.8341892471	-0.9590614933	 0.109753
H	-0.745526586	 1.9521826668	 0.8004100795	 0.109731
H	-0.9911417459	-0.4183594461	 0.0029207519	 0.063027
H	 0.5677207866	-1.539896309	-1.376524398	 0.102847
H	 0.3879309488	 0.0239502429	-2.1353815511	 0.0944
H	 2.8331234425	-0.3356775971	-2.0464872356	 0.079417
H	 3.9599196858	 0.1755807395	 0.0236941523	 0.079146
H	 2.733161525	-0.4068106093	 2.1188173061	 0.119395
H	 2.15793557	 1.1773093027	 1.6714576862	 0.097593
H	 0.8219234997	-1.5253102019	 1.2056958751	 0.081638
H	-0.0796976031	 0.9302359435	 2.7547542503	 0.083719
H	-1.0720641007	-0.5114315702	 2.4505992237	 0.080066
H	 0.1843186602	-0.5923473755	 4.4494004262	 0.285493
106.1098	123.3953	141.547	201.145	224.0025	252.7735	299.3645	329.1096	398.4725	401.629	462.4341	541.6513	576.1926	675.1327	761.0654	810.2085	879.7638	894.0281	911.4775	950.6783	1001.0814	1004.9965	1007.6157	1022.8016	1059.2853	1092.8267	1106.2518	1111.262	1141.8234	1190.7761	1218.3653	1227.9626	1260.1345	1271.9005	1305.7608	1329.3484	1341.9492	1366.3276	1376.4492	1405.0819	1414.9268	1419.4222	1456.6202	1475.7392	1478.8926	1500.8134	1507.3617	1519.5311	1724.5632	2958.1662	2983.4742	2988.2901	2993.1895	3008.4197	3019.6538	3030.8664	3038.6674	3066.8833	3099.134	3113.3866	3137.2258	3161.4561	3833.2545
CC1CC=CCC1CO	C[C@H]1CC=CC[C@H]1CO	
InChI=1S/C8H14O/c1-7-4-2-3-5-8(7)6-9/h2-3,7-9H,4-6H2,1H3	InChI=1S/C8H14O/c1-7-4-2-3-5-8(7)6-9/h2-3,7-9H,4-6H2,1H3/t7-,8-/m0/s1
