18
gdb 37175	3.97368	1.63646	1.51678	2.0198	74.5	-0.2345	0.0564	0.2909	909.1139	0.150484	-401.822701	-401.816597	-401.815652	-401.852687	26.781	
C	 0.0059956067	 1.4104159024	 0.1378716639	-0.251531
C	 1.2740448585	 0.6580337008	-0.0036383581	-0.140374
N	-0.0728569861	-0.0483851868	-0.0960699887	-0.129927
C	-0.0618726009	-0.50654314	-1.5510344909	-0.055772
C	 0.6004180731	 0.6112072495	-2.3608591579	-0.285079
C	 1.7952942008	 0.310128883	-1.3864690547	 0.263453
C	 3.0444678981	-0.1586579163	-2.1383734697	-0.195339
O	 2.3074574965	-1.3517716165	-2.5696984741	-0.309279
C	 1.3596692635	-1.1653754872	-1.479259869	 0.148907
H	-0.3119906643	 1.6818423553	 1.1415471919	 0.120676
H	-0.3146167485	 2.1162742129	-0.6191538459	 0.118596
H	 1.8806430938	 0.4209331309	 0.8651755046	 0.102017
H	-0.9958780565	-1.0040583744	-1.8104432189	 0.077752
H	 0.8419538419	 0.2908595205	-3.371971928	 0.12623
H	 0.1615022241	 1.6069524366	-2.3859499552	 0.09654
H	 3.3891117148	 0.437578981	-2.9886145312	 0.112884
H	 3.8930100361	-0.4369986205	-1.5004734754	 0.109816
H	 1.5262403983	-1.8835751112	-0.6720885128	 0.090428
297.8939	307.3692	314.9807	444.6049	511.6599	524.1203	559.6062	644.7248	712.2518	737.4884	756.8183	855.663	878.9259	898.9234	912.944	930.0875	968.579	998.076	1013.9872	1027.0808	1042.6367	1051.3007	1098.7738	1114.2168	1128.3238	1140.3398	1159.9437	1188.9815	1222.3767	1232.7254	1233.7846	1249.11	1268.106	1305.1526	1343.4496	1389.1495	1480.8718	1510.7752	1533.2541	3019.6645	3079.0694	3087.8333	3105.9491	3120.6397	3126.0248	3155.1768	3164.8635	3206.5447
C1C2N1C1CC22COC12	C1[C@H]2N1[C@H]1C[C@]32CO[C@H]13	
InChI=1S/C7H9NO/c1-4-6-7(1,3-9-6)5-2-8(4)5/h4-6H,1-3H2	InChI=1S/C7H9NO/c1-4-6-7(1,3-9-6)5-2-8(4)5/h4-6H,1-3H2/t4-,5+,6+,7+,8?/m0/s1
