19
gdb 93283	2.09566	1.80526	1.23492	3.4029	74.97	-0.2388	-0.0355	0.2033	1080.6397	0.158728	-423.039461	-423.030972	-423.030028	-423.072656	32.279	
C	 0.7103526399	 1.5131223698	-0.3278245218	-0.397228
C	 0.019010111	 0.2047550206	 0.084361372	-0.094799
C	 0.1331726543	-0.8903932286	-1.0147922198	-0.240436
C	 1.4775076262	-1.5968711679	-0.7513118586	-0.333709
C	 1.677851519	-1.4922071664	 0.7596207715	 0.361055
O	 2.4504314773	-2.1142236458	 1.4408448026	-0.311991
C	 0.6916910984	-0.4526101899	 1.2802216753	 0.333854
C	 0.8345871969	 0.0997584829	 2.6319949483	-0.243099
O	-0.1238430728	-0.9201802264	 2.3708147776	-0.268445
H	 1.7707177568	 1.3592850042	-0.5575115491	 0.118886
H	 0.2362574623	 1.9324828823	-1.2207977739	 0.120503
H	 0.6521608522	 2.2617617786	 0.4678227558	 0.121157
H	-1.0274973218	 0.4103284114	 0.3255801435	 0.093067
H	-0.6859499869	-1.6079039729	-0.9013844985	 0.117129
H	 0.0636787615	-0.4709602913	-2.0216330497	 0.103433
H	 1.5215835001	-2.6379451168	-1.0787077524	 0.135195
H	 2.3119055648	-1.0758126881	-1.2383010598	 0.135346
H	 1.6884772945	-0.2094163488	 3.2322187646	 0.134291
H	 0.4240280962	 1.0856906032	 2.8472112623	 0.115792
58.5077	158.5341	190.7684	230.1662	260.318	266.9658	326.0905	459.713	470.196	547.8609	573.7281	648.7829	696.8158	792.2508	831.1405	847.9059	906.0819	954.1228	963.7823	984.2003	1031.4744	1058.5956	1073.143	1115.9865	1133.0685	1171.971	1193.8796	1195.3638	1250.14	1287.5337	1296.0041	1333.5905	1351.8325	1406.1978	1422.9535	1450.7837	1493.0784	1498.4877	1503.1431	1512.789	1848.0025	3032.6918	3037.9504	3051.5269	3071.1024	3083.1758	3099.3194	3101.5855	3109.3513	3112.3757	3178.6342
CC1CCC(=O)C11CO1	C[C@H]1CCC(=O)[C@]21CO2	
InChI=1S/C7H10O2/c1-5-2-3-6(8)7(5)4-9-7/h5H,2-4H2,1H3	InChI=1S/C7H10O2/c1-5-2-3-6(8)7(5)4-9-7/h5H,2-4H2,1H3/t5-,7+/m0/s1
