20
gdb 104637	2.55245	1.19606	0.97116	3.4735	80.03	-0.2747	0.0186	0.2933	1308.9529	0.16927	-403.147957	-403.138262	-403.137318	-403.182528	35.47	
C	 0.0012949468	 1.3814583196	-0.0629313609	-0.26732
O	-0.0489433011	-0.0230531073	 0.1395062428	-0.273804
C	-1.3279457526	-0.5875133915	 0.049351352	 0.281452
C	-2.0231053397	-0.6430436808	-1.3538738028	-0.296033
C	-2.3737182959	-2.1334020433	-1.0814534033	 0.045777
C	-2.2374465073	-3.1328034841	-2.2183784314	-0.408766
C	-1.3050542574	-2.1397915219	 0.0471646119	-0.293485
C	-2.2279670508	-0.0436682869	 1.0854265382	 0.244767
N	-2.9310237283	 0.3925898252	 1.8930607627	-0.351243
H	 1.0521413545	 1.6670012127	 0.0092793179	 0.13715
H	-0.3786308707	 1.6598912698	-1.0556080879	 0.115542
H	-0.5731872071	 1.9212316772	 0.7010934711	 0.136779
H	-2.8367818037	 0.0556532756	-1.5535910155	 0.118283
H	-1.2537229825	-0.5461770949	-2.1258661686	 0.114956
H	-3.3742738749	-2.2008508466	-0.6426486564	 0.093335
H	-1.2415742873	-3.0786173208	-2.6722996429	 0.115334
H	-2.3882277892	-4.1581438095	-1.863611413	 0.122299
H	-2.9753466902	-2.9415515575	-3.0050583337	 0.121183
H	-0.325919568	-2.4614625507	-0.3180784761	 0.121272
H	-1.5320644545	-2.6481666244	 0.9848967859	 0.122523
70.279	108.4611	161.9776	168.1374	192.6467	226.809	259.7271	312.8824	366.0494	417.9706	436.3387	495.7952	589.8923	645.6493	706.1393	829.6484	835.5047	895.668	928.4975	952.3138	1023.7129	1051.975	1053.5487	1105.2136	1147.5772	1183.4198	1186.5524	1200.177	1227.4256	1234.6113	1276.9444	1283.4687	1294.4748	1379.5003	1414.042	1463.7137	1477.9985	1488.9948	1490.137	1496.1162	1497.4002	1507.4678	2345.0672	3001.1467	3026.6402	3053.5785	3059.7529	3062.3754	3072.0778	3096.7141	3096.9186	3130.4287	3133.3767	3137.7985
COC1(CC(C)C1)C#N	CO[C@]1(C[C@@H](C)C1)C#N	
InChI=1S/C7H11NO/c1-6-3-7(4-6,5-8)9-2/h6H,3-4H2,1-2H3	InChI=1S/C7H11NO/c1-6-3-7(4-6,5-8)9-2/h6H,3-4H2,1-2H3/t6-,7+
