18
gdb 94931	2.10409	1.80385	1.55123	2.1131	71.94	-0.2368	-0.0261	0.2107	973.3369	0.148036	-439.063341	-439.055142	-439.054198	-439.096175	30.863	
O	-0.076417361	 1.4256882278	 0.3633883813	-0.432514
C	 0.039681484	 0.0430248986	 0.0511483126	 0.105177
C	 0.8542938511	-0.7853566069	 1.08044049	-0.277071
C	 0.0021932177	-2.043226192	 1.3625282104	-0.154937
N	-1.3687328864	-1.81824977	 0.8411087999	-0.122733
C	-2.1032852358	-0.6559833988	 1.3559848717	-0.100755
C	-1.7976790922	 0.1664690783	 2.5629009062	 0.163565
O	-0.9069656969	 0.0005584934	 3.3610392565	-0.276014
C	-1.3447582655	-0.5847447664	 0.0585279426	-0.039195
H	 0.8091505691	 1.8016732699	 0.3924065296	 0.288264
H	 0.4595407553	-0.0735773071	-0.9593446179	 0.075024
H	 1.8443466534	-1.0457237914	 0.6964156073	 0.096324
H	 0.9774130099	-0.1931710093	 1.9876439619	 0.13973
H	 0.3867682346	-2.9119037556	 0.818799601	 0.108303
H	-0.0333939261	-2.2936319658	 2.4232800977	 0.133854
H	-3.1828903614	-0.7625789327	 1.2403721008	 0.109401
H	-2.5496607759	 0.9739332354	 2.7105240555	 0.084452
H	-1.9203538937	-0.5647617273	-0.8626057369	 0.099124
84.5911	122.9247	182.8089	212.4337	280.4627	304.7281	341.4859	419.7831	543.6258	659.283	674.5324	712.3089	752.0231	822.6466	852.0609	869.9894	928.3207	969.6089	985.4427	1006.7877	1058.4566	1079.1153	1107.6587	1123.527	1139.454	1214.2165	1240.8026	1253.7816	1282.0017	1307.5172	1339.3269	1349.9119	1374.7712	1411.3721	1430.0303	1433.4708	1484.429	1500.3142	1810.3342	2879.401	2982.8579	3052.8424	3069.1955	3098.5828	3125.4586	3138.3622	3148.4382	3818.6076
OC1CCN2C(C=O)C12	O[C@H]1CCN2[C@@H](C=O)[C@@H]12	
InChI=1S/C6H9NO2/c8-3-4-6-5(9)1-2-7(4)6/h3-6,9H,1-2H2	InChI=1S/C6H9NO2/c8-3-4-6-5(9)1-2-7(4)6/h3-6,9H,1-2H2/t4-,5-,6-,7?/m0/s1
