21
gdb 67711	2.10691	1.91478	1.64735	1.2913	79.95	-0.2399	0.077	0.3169	986.2934	0.185892	-387.10126	-387.09381	-387.092865	-387.132697	31.156	
O	-0.0624460622	 1.362896233	 0.0698608606	-0.475371
C	 0.0218985439	-0.0244781543	 0.013329106	 0.381448
C	-0.2784329227	-0.8673642179	-1.2010098489	-0.125674
C	 0.7639848813	-1.9699364562	-1.3523713631	-0.234616
C	 1.8201982313	-1.6611238031	-0.2571856846	-0.203535
C	 1.0877572258	-0.8193211563	 0.8145685406	-0.097067
C	 0.2535034908	-1.6751400876	 1.7979005339	-0.202983
C	-1.07305467	-1.9922070937	 1.0586878034	-0.236633
C	-1.2070832754	-0.8766151906	 0.0262880539	-0.079903
H	 0.6553220116	 1.7291502184	-0.4582467749	 0.278091
H	-0.6972012337	-0.4024313384	-2.0874964155	 0.080128
H	 0.3269064376	-2.966644934	-1.2199727464	 0.101323
H	 1.2071091525	-1.9583423461	-2.3526619009	 0.094441
H	 2.2840626814	-2.5621803163	 0.1567835404	 0.0911
H	 2.625218181	-1.0596338931	-0.6954138609	 0.089924
H	 1.7721089028	-0.1529550303	 1.345190369	 0.066371
H	 0.7834486763	-2.5718656463	 2.1352805022	 0.088239
H	 0.0323441217	-1.0753545001	 2.6874076922	 0.101578
H	-1.0490361629	-2.9826840059	 0.5893620181	 0.099093
H	-1.9251664063	-1.9953872788	 1.7444903146	 0.097802
H	-2.1721844848	-0.4070483824	-0.1293026896	 0.086245
119.6371	232.386	260.0722	299.0127	327.4082	398.0097	474.6327	553.7325	565.9451	671.1402	688.1978	719.0532	780.2299	832.1287	842.343	905.3436	907.7902	920.9413	942.8687	973.5148	979.6662	995.9998	1060.2079	1078.6728	1085.8489	1093.5553	1141.528	1177.5049	1196.2688	1208.5997	1229.3284	1250.3917	1284.3445	1286.9718	1304.623	1311.2752	1323.6141	1341.2884	1353.8031	1355.3391	1461.0319	1480.2168	1496.6478	1497.5579	1518.8343	3030.4754	3032.8224	3036.0783	3039.2432	3070.8181	3074.9815	3080.2834	3084.5053	3091.502	3161.3469	3174.7066	3792.7316
OC12C3CCC1CCC23	O[C@@]12[C@H]3CC[C@@H]1CC[C@@H]23	
InChI=1S/C8H12O/c9-8-5-1-3-6(8)7(8)4-2-5/h5-7,9H,1-4H2	InChI=1S/C8H12O/c9-8-5-1-3-6(8)7(8)4-2-5/h5-7,9H,1-4H2/t5-,6+,7-,8-
