21
gdb 83457	2.81578	1.06123	0.94434	2.7695	83.73	-0.2383	-0.0198	0.2186	1343.2859	0.181228	-387.075644	-387.066323	-387.065379	-387.110509	34.456	
C	 0.1031298615	 1.6369338389	 0.0860684243	-0.420519
C	 0.1297640012	 0.1227904111	 0.1116649657	-0.041638
C	 1.3185478362	-0.7394914788	-0.2308793365	-0.137024
C	 2.6286865976	-0.1296252905	 0.2820002962	-0.223738
C	 2.0398423167	-0.1111166711	 1.7279809073	-0.290133
C	 0.7380289279	-0.7372643245	 1.1953972885	 0.334883
C	-0.0377952967	-1.8043922286	 1.928788021	-0.390486
C	-0.8446801685	-1.2190574512	 3.0721353627	 0.166036
O	-0.7737765216	-1.5728886595	 4.2204254318	-0.238918
H	 1.0351684108	 2.0792182088	 0.4460567359	 0.123242
H	-0.0614016765	 2.0030106775	-0.93328129	 0.119206
H	-0.7077800528	 2.0245119811	 0.7127920802	 0.117504
H	-0.7924225321	-0.3182979626	-0.2659256646	 0.080917
H	 1.2497767691	-1.5168749461	-0.9840792137	 0.082599
H	 3.4739119586	-0.8150443881	 0.1931941335	 0.10572
H	 2.9204787404	 0.8320737768	-0.1513182134	 0.099021
H	 2.5759690897	-0.7869400787	 2.3985960411	 0.109348
H	 1.9511633012	 0.8606625596	 2.2237091508	 0.099187
H	-0.7480242428	-2.2772422888	 1.2352121535	 0.115962
H	 0.6165353417	-2.5846480382	 2.3318952138	 0.116076
H	-1.5304584312	-0.3943727872	 2.7661588019	 0.072755
52.7723	61.5605	144.7572	162.9094	244.1887	256.1769	298.125	311.8777	418.5344	481.7097	538.7226	655.8343	719.9358	754.7685	797.9523	817.2746	901.3066	925.9814	953.2984	958.5681	990.3192	1001.825	1055.8501	1061.3261	1086.6357	1119.4838	1136.4981	1153.0906	1189.6669	1218.7562	1240.348	1252.4154	1265.7894	1301.8927	1316.6331	1342.1447	1416.9366	1424.8167	1453.4926	1458.2026	1478.0331	1500.1261	1503.4418	1510.6069	1833.7905	2857.6081	3009.738	3033.1408	3048.6342	3055.8847	3080.1602	3089.3766	3095.9652	3105.4755	3114.4732	3123.2841	3167.6171
CC1C2CCC12CC=O	C[C@H]1[C@H]2CC[C@@]12CC=O	
InChI=1S/C8H12O/c1-6-7-2-3-8(6,7)4-5-9/h5-7H,2-4H2,1H3	InChI=1S/C8H12O/c1-6-7-2-3-8(6,7)4-5-9/h5-7H,2-4H2,1H3/t6-,7+,8+/m0/s1
