17
gdb 64112	3.5896	1.07298	1.01149	5.0494	76.34	-0.2739	-0.0543	0.2196	1232.3363	0.135279	-418.039383	-418.030554	-418.02961	-418.073397	32.093	
C	 0.0655022357	 1.4790987555	 0.0530839888	-0.417256
C	-0.044077496	-0.0485450134	-0.0176256006	 0.247388
C	-1.5102487204	-0.4944355802	-0.064566298	-0.417263
C	 0.7922639734	-0.6461482153	-1.1944983046	-0.14651
O	 1.7902975384	-1.4805349969	-0.5554176584	-0.254599
C	 1.5437529925	-1.3630196306	 0.7706189498	 0.320373
N	 0.5959804044	-0.6314297075	 1.1883374191	-0.315926
C	 2.42286392	-2.115396649	 1.6241226041	 0.276488
N	 3.1297244681	-2.7202409217	 2.3084268554	-0.312277
H	 1.1119737069	 1.7933007589	 0.1062919528	 0.125232
H	-0.3879666068	 1.93556214	-0.8331302252	 0.119484
H	-0.4493841002	 1.8563859495	 0.9401876374	 0.137572
H	-2.0041279863	-0.0887317275	-0.9538676215	 0.119485
H	-1.5856655623	-1.5853256209	-0.0949909496	 0.125228
H	-2.0437223235	-0.1402688994	 0.8210852258	 0.137571
H	 0.2047727124	-1.2797753293	-1.8640707401	 0.127499
H	 1.3161039036	 0.1127957977	-1.7814747852	 0.12751
40.763	122.0411	157.3259	215.0276	254.559	302.067	321.8603	368.4183	380.3593	520.9409	547.4226	567.682	630.4266	725.3489	827.3752	886.6826	929.4234	944.7955	965.3877	998.6839	1010.6868	1032.9498	1190.1955	1197.6006	1212.549	1264.9555	1296.3703	1377.3083	1398.4325	1420.7298	1475.945	1484.8593	1495.1868	1504.4912	1520.3888	1701.4927	2373.8381	3036.2925	3039.9427	3058.3149	3107.4459	3108.9212	3111.6529	3124.9721	3128.5922
CC1(C)COC(=N1)C#N	CC1(C)COC(=N1)C#N	
InChI=1S/C6H8N2O/c1-6(2)4-9-5(3-7)8-6/h4H2,1-2H3	InChI=1S/C6H8N2O/c1-6(2)4-9-5(3-7)8-6/h4H2,1-2H3
