15
gdb 131236	4.69562	0.85969	0.7819	2.3076	69.39	-0.2203	-0.0383	0.182	1394.6152	0.111958	-453.957069	-453.948583	-453.947639	-453.991803	29.779	
O	 0.4261596458	 1.3382347063	-0.2852425281	-0.440038
C	 0.1744553101	 0.0145865169	-0.1026229762	 0.225391
C	 0.1709155834	-0.9362647291	-1.1030741539	-0.122058
N	-0.1459109317	-2.1180012022	-0.4965596057	 0.055064
C	-0.1720595651	-3.4286553497	-1.0961214268	-0.244931
C	 1.2093349296	-4.0820349308	-1.1460401481	 0.148262
O	 1.4957506077	-4.956025631	-1.9177370875	-0.2236
N	-0.3260054692	-1.9896354511	 0.8275638085	-0.259115
C	-0.1393341225	-0.69255204	 1.0773501568	-0.114601
H	 0.3685298655	 1.7847190188	 0.5646570269	 0.302782
H	 0.3491648527	-0.8576569278	-2.16256026	 0.140111
H	-0.8227370253	-4.058139478	-0.4802409147	 0.166975
H	-0.5894150908	-3.3856169176	-2.1055235548	 0.149769
H	 1.9250832259	-3.6886536639	-0.3910518807	 0.106009
H	-0.2447502161	-0.3128511307	 2.0837381244	 0.109981
33.3968	66.3681	96.1741	233.2977	285.5457	292.7236	388.5574	426.2961	442.2853	634.7838	654.9676	673.4588	721.6156	758.2571	817.3255	835.238	998.1705	1029.9791	1037.5158	1061.6804	1154.8392	1190.996	1217.7221	1266.6922	1330.0668	1382.746	1403.3101	1405.4097	1436.7317	1441.2305	1500.6094	1648.8226	1843.2053	2901.769	3062.1473	3119.7908	3235.2726	3274.5624	3840.5305
OC1=CN(CC=O)N=C1	Oc1cn(CC=O)nc1	
InChI=1S/C5H6N2O2/c8-2-1-7-4-5(9)3-6-7/h2-4,9H,1H2	InChI=1S/C5H6N2O2/c8-2-1-7-4-5(9)3-6-7/h2-4,9H,1H2
