18
gdb 16524	3.46426	2.34406	1.79896	1.1689	70.01	-0.2435	0.0774	0.321	788.7911	0.155948	-347.781701	-347.775188	-347.774244	-347.811789	27.173	
O	-0.0684072618	 1.3251522789	-0.0107233366	-0.484422
C	 0.0178506886	-0.0677054866	-0.0335585128	 0.428199
C	 1.0480893482	-0.7321827372	-0.9507097959	-0.297817
C	 0.3720100835	-2.0711986807	-1.353489274	-0.20267
C	-0.7403450042	-2.2543869224	-0.3074326368	-0.045588
C	-0.1472379683	-2.2870939404	 1.1426438167	-0.241865
C	-0.414271452	-0.787478265	 1.2401813844	-0.123351
C	-1.2742534724	-0.8234464391	-0.021544324	-0.118817
H	 0.6541001212	 1.659418495	 0.5315561197	 0.280999
H	 1.2338077893	-0.0863331016	-1.8136252594	 0.104357
H	 2.0097203489	-0.8894982873	-0.4484475248	 0.091365
H	-0.0676495834	-1.9868115452	-2.3533803072	 0.098388
H	 1.0698481069	-2.9146121136	-1.3696866732	 0.093062
H	-1.4605205134	-3.0375667134	-0.5434614881	 0.06729
H	-0.7868778048	-2.8512570198	 1.826836435	 0.100448
H	 0.8850208963	-2.6422754538	 1.2512432525	 0.08416
H	-0.5827802087	-0.2107390347	 2.1432869668	 0.077324
H	-2.245928294	-0.3948225231	-0.2260245824	 0.088938
196.1141	268.873	316.088	360.3942	381.9902	435.6519	572.9491	610.5039	683.6186	767.2626	822.9874	845.1427	863.1571	875.4807	906.4339	945.7709	970.9333	982.4228	995.0471	1032.6082	1047.1431	1091.3	1119.9302	1141.3844	1167.914	1207.4572	1229.0371	1241.3224	1260.1141	1277.1582	1283.5965	1319.8242	1325.831	1347.1441	1434.2132	1484.5828	1494.7161	1510.2609	3022.7413	3033.7872	3040.4871	3076.732	3086.9994	3093.1813	3112.4001	3166.2557	3208.1665	3796.3543
OC12CCC3CC1C23	O[C@@]12CC[C@H]3C[C@@H]1[C@@H]23	
InChI=1S/C7H10O/c8-7-2-1-4-3-5(7)6(4)7/h4-6,8H,1-3H2	InChI=1S/C7H10O/c8-7-2-1-4-3-5(7)6(4)7/h4-6,8H,1-3H2/t4-,5+,6-,7-/m0/s1
