17
gdb 43440	2.97908	1.44662	1.06128	0.6456	76.25	-0.2566	-0.005	0.2515	1116.7156	0.137883	-418.061271	-418.053497	-418.052552	-418.09404	29.941	
N	-0.0813209409	 1.3035333324	 0.0077189479	-0.528414
C	-0.0195908737	 0.0370940899	 0.0010870575	 0.398149
C	-1.2378710387	-0.8781594772	 0.0029723114	-0.396522
C	-0.6582750233	-2.2861793741	-0.0074909888	 0.206804
C	-1.2468642319	-3.4663565298	 0.737343357	-0.296073
C	-1.2545629007	-3.4584166099	-0.7587580363	-0.296049
C	 0.8343209792	-2.1530375499	-0.0142791281	 0.394056
O	 1.6650463999	-3.0308922452	-0.0242299541	-0.37626
N	 1.1039821018	-0.7897275827	-0.0093799565	-0.385573
H	 0.8456943401	 1.7323448947	 0.0047353486	 0.210531
H	-1.8451320572	-0.6681263901	 0.8879004864	 0.142271
H	-1.8546376521	-0.6589920847	-0.8731236483	 0.142292
H	-0.5423892266	-4.1230532261	 1.2354539741	 0.141175
H	-2.1803102959	-3.2956462076	 1.2626635837	 0.121329
H	-2.1933668337	-3.2822305386	-1.2725990075	 0.121353
H	-0.5552899833	-4.109766972	-1.271016492	 0.141196
H	 2.0531428669	-0.4462442391	-0.0131951851	 0.259736
48.5464	138.8059	241.3259	242.39	340.2106	358.2212	484.8388	540.3018	582.1839	591.627	642.585	737.637	754.5562	788.0814	851.3345	874.9144	884.536	923.8317	957.3762	1006.7386	1020.4664	1066.9947	1092.7645	1104.7581	1183.3646	1188.6699	1202.8878	1250.3918	1308.7955	1352.7268	1370.13	1394.0318	1454.5717	1473.4042	1488.4446	1763.1297	1841.0686	3063.5142	3101.6893	3134.4416	3136.3521	3221.5807	3235.7792	3458.4867	3625.1099
N=C1CC2(CC2)C(=O)N1	[NH][C]1CC2(CC2)C(=O)N1	
InChI=1S/C6H8N2O/c7-4-3-6(1-2-6)5(9)8-4/h1-3H2,(H2,7,8,9)	InChI=1S/C6H8N2O/c7-4-3-6(1-2-6)5(9)8-4/h1-3H2,(H2,7,8,9)
