12
gdb 131999	4.64483	1.15167	0.92377	7.9122	61.03	-0.2583	-0.0765	0.1818	1141.4749	0.07903	-502.05765	-502.050234	-502.04929	-502.090314	26.589	
N	-0.0307088521	 1.0176261701	-0.0073675324	-0.600253
H	-0.0729023321	 0.0526257191	-0.3033597134	 0.283858
H	 0.7159226678	 1.5314608333	-0.4519983327	 0.266417
C	-1.2642852491	 1.6152250513	 0.0017570995	 0.453862
N	-1.466681703	 2.9490613654	 0.1710334699	-0.239163
N	-2.7968700252	 3.2275382077	 0.2040662714	-0.237877
C	-3.2989213558	 2.0222667721	 0.0558714352	 0.444917
N	-2.428517764	 0.9949828301	-0.0776204615	-0.339424
N	-4.7465809428	 1.8186984957	 0.0316769672	 0.362388
O	-5.447575655	 2.8131235898	 0.1353886287	-0.345101
O	-5.1336709066	 0.6677357198	-0.0901376992	-0.339642
H	-0.8012475022	 3.6939760356	 0.3021862173	 0.29002
45.534	172.1461	204.3019	275.3578	348.9512	388.5996	431.5035	503.4617	561.7745	605.0734	666.5027	745.8127	761.3206	808.9458	854.8871	1017.4135	1048.8677	1116.314	1167.4481	1344.0583	1356.1737	1416.8961	1462.9932	1548.1252	1609.6383	1657.5308	1670.1318	3571.8053	3655.1448	3673.6085
[NH2+]=C1NN=C([N-]1)N(=O)=O	Nc1[nH]nc(n1)N(=O)=O	
InChI=1S/C2H2N5O2/c3-1-4-2(6-5-1)7(8)9/h(H2-,3,4,5,6)/q-1/p+1	InChI=1S/C2H3N5O2/c3-1-4-2(6-5-1)7(8)9/h(H3,3,4,5,6)
