15
gdb 27221	3.46817	1.6159	1.10887	4.0425	74.71	-0.1759	0.0187	0.1946	1018.8752	0.116885	-413.021929	-413.014646	-413.013702	-413.05325	28.577	
N	 0.1965151227	 1.4412970216	 0.0098702222	-0.619195
C	-0.0169273917	 0.0467554488	 0.0116789702	 0.095413
C	-1.1048795587	-0.8028881674	-0.0125368918	 0.294088
N	-2.4858042135	-0.8978819585	-0.048686958	-0.451586
C	-2.7723846456	-2.2541341005	-0.0490095242	-0.002504
N	-1.7274323747	-3.0345133129	-0.0169356939	-0.353456
C	-0.6521880354	-2.1536010306	 0.006823864	 0.263002
C	 0.7315455787	-2.1327360168	 0.0434454136	-0.221751
N	 1.0797430066	-0.8047227607	 0.0453710271	-0.241366
H	-0.1657488168	 1.893577112	-0.8228523972	 0.239061
H	-0.2105790128	 1.9025295582	 0.8165545647	 0.239059
H	-3.16039722	-0.1546472864	-0.0703975492	 0.256003
H	-3.7987755849	-2.595076078	-0.0744192518	 0.122031
H	 1.473421286	-2.9124808676	 0.067370204	 0.121387
H	 2.0191439101	-0.4454547313	 0.0684433303	 0.259813
185.2987	200.6788	265.7014	271.6506	281.679	379.9274	510.2041	556.5545	612.4659	614.0879	645.2198	678.4905	707.6185	769.2547	769.3091	827.2064	846.5606	947.4535	1063.5752	1080.7336	1110.3028	1195.9658	1205.3366	1269.0435	1312.5529	1331.3769	1382.4454	1431.2224	1481.3091	1529.6382	1566.0945	1657.946	1694.7985	3231.9269	3277.3719	3495.075	3557.2388	3674.3768	3688.8942
NC1=C2NC=NC2=CN1	Nc1c2[nH]cnc2c[nH]1	
InChI=1S/C5H6N4/c6-5-4-3(1-7-5)8-2-9-4/h1-2,7H,6H2,(H,8,9)	InChI=1S/C5H6N4/c6-5-4-3(1-7-5)8-2-9-4/h1-2,7H,6H2,(H,8,9)
