16
gdb 64571	2.1581	1.5931	1.45389	2.5831	70.09	-0.2477	-0.0521	0.1957	1004.5874	0.12209	-437.860096	-437.851557	-437.850613	-437.893407	30.983	
C	 0.1629267289	 1.7245855208	 0.1431764038	-0.468425
C	 0.0266487868	 0.2067105482	 0.0331131018	 0.068186
C	-1.3600494954	-0.2608800862	 0.421762536	 0.115281
O	-2.0113014402	-1.0571865731	-0.2062365527	-0.251231
C	 0.5639231037	-0.5220085005	-1.2129016114	-0.076977
N	 1.983213567	-0.1837769859	-1.3098570708	-0.343307
C	 1.5592222514	-1.3204462125	-0.4155702207	-0.181115
C	 1.0690020918	-0.6681735361	 0.85000333	 0.42268
O	 1.2397000533	-0.8362249132	 2.0192405653	-0.303607
H	 1.1643515675	 2.0305862735	-0.1636561288	 0.156395
H	-0.5691834276	 2.236909141	-0.490031835	 0.127471
H	 0.0029386022	 2.0451930647	 1.1774067118	 0.137745
H	-1.7441452292	 0.1918498208	 1.3612307194	 0.097926
H	-0.0258128464	-0.8616996732	-2.0522487204	 0.12892
H	 2.3557375005	-0.6229817877	-2.1521932757	 0.245948
H	 1.9553961657	-2.3171165208	-0.5596496024	 0.124111
86.0497	119.6182	183.884	192.4465	213.6488	233.2494	287.2191	424.445	500.7098	584.9787	633.0667	703.9128	756.0546	807.4203	833.9697	856.2595	921.3807	945.1406	965.2522	1008.1727	1050.4044	1090.0979	1102.9997	1148.0514	1174.235	1216.9106	1271.9183	1320.4682	1352.6903	1396.0619	1422.9747	1486.7621	1503.7701	1807.9824	1892.6032	2903.4942	3038.8509	3104.5227	3140.8216	3207.6246	3230.8752	3470.1147
CC1(C=O)C2NC2C1=O	C[C@@]1(C=O)[C@H]2N[C@H]2C1=O	
InChI=1S/C6H7NO2/c1-6(2-8)4-3(7-4)5(6)9/h2-4,7H,1H3	InChI=1S/C6H7NO2/c1-6(2-8)4-3(7-4)5(6)9/h2-4,7H,1H3/t3-,4+,6-/m1/s1
