20
gdb 92043	2.55074	1.6029	1.27051	2.9752	80.8	-0.2278	0.0111	0.2389	1078.7313	0.173116	-403.145398	-403.137348	-403.136404	-403.177486	32.417	
C	 0.0624791188	 1.5198745655	 0.0352031247	-0.489293
C	-0.0363816238	 0.0234938024	-0.0175264958	 0.294236
C	-0.0430491002	-0.6740284685	-1.1591541535	-0.125354
C	-0.0738024626	-2.155757997	-1.1728940174	-0.069537
N	 0.9460428599	-2.8555785755	-0.3270598818	-0.352205
C	-0.4725630645	-2.868450153	 0.073062523	-0.028928
C	-0.8311755971	-2.0221941492	 1.2729016251	-0.242408
C	-0.0339530025	-0.7035039382	 1.3200757371	 0.019437
O	 1.3016367841	-0.9185414475	 1.7698950482	-0.443041
H	 0.9480821217	 1.8176831399	 0.6097023976	 0.142874
H	 0.1321128444	 1.9622788122	-0.9623359111	 0.115448
H	-0.8049438045	 1.9581470271	 0.5457057572	 0.120873
H	-0.0038427544	-0.1641143053	-2.1184786838	 0.081905
H	-0.3049351998	-2.6266343572	-2.1238280626	 0.083582
H	 1.2033857598	-3.7425639788	-0.752302864	 0.233944
H	-1.0124642311	-3.8069911263	-0.031835636	 0.08555
H	-1.9055089936	-1.8015959443	 1.2344546253	 0.100935
H	-0.6382556505	-2.5678947831	 2.2030806994	 0.109814
H	-0.4865923211	-0.0543730816	 2.0785351366	 0.075239
H	 1.6776582068	-1.5451467316	 1.1300980516	 0.286929
128.6355	189.4962	213.1979	237.1397	310.0952	369.7429	379.8198	429.6844	492.2865	614.5079	624.8969	644.9771	714.4208	767.2101	808.3078	839.3658	878.1097	885.2482	938.3851	963.9803	988.7815	1028.4069	1054.0623	1067.9224	1083.7757	1116.2256	1143.6694	1172.7857	1198.7425	1228.4767	1266.0494	1293.1571	1331.5347	1354.9342	1390.827	1402.7387	1409.0521	1450.81	1465.201	1475.944	1479.8261	1491.6119	1723.3219	3016.6052	3026.0896	3043.2542	3068.7383	3075.5241	3109.4748	3128.231	3146.2329	3160.9124	3500.1304	3666.4777
CC1=CC2NC2CC1O	CC1=C[C@H]2N[C@H]2C[C@H]1O	
InChI=1S/C7H11NO/c1-4-2-5-6(8-5)3-7(4)9/h2,5-9H,3H2,1H3	InChI=1S/C7H11NO/c1-4-2-5-6(8-5)3-7(4)9/h2,5-9H,3H2,1H3/t5-,6+,7-/m1/s1
