16
gdb 44611	2.95089	1.93988	1.52926	4.7526	66.89	-0.2309	0.0151	0.246	874.1558	0.127644	-437.90503	-437.898546	-437.897602	-437.935826	26.21	
O	 0.0041639416	-0.0537107419	-0.1364327588	-0.367564
C	-0.0013345404	 1.1522126239	-0.085307807	 0.403385
N	-1.105617485	 1.9663959844	 0.0382033196	-0.313946
C	-0.8007565716	 3.3681572876	 0.0080917595	-0.017082
C	 0.1378668501	 3.944987527	 1.0616008577	-0.099883
C	 0.7246547661	 2.986770118	 2.0924453956	-0.10314
O	 1.6160686085	 2.1190333697	 1.3831795019	-0.254502
C	 1.2237143514	 2.107978452	 0.0074074109	-0.050983
C	 0.6646583679	 3.5012479292	-0.2844212656	-0.088574
H	-2.0091330616	 1.5904709443	 0.2766956251	 0.255134
H	-1.5359660856	 4.0100782746	-0.4629085471	 0.107926
H	 0.0533822117	 4.9981808871	 1.3026240887	 0.099754
H	 1.3040366165	 3.5168811092	 2.8540432388	 0.115871
H	-0.0556648322	 2.3995574179	 2.5966248755	 0.104553
H	 2.0690116585	 1.7733534545	-0.5917346589	 0.105002
H	 1.0821054642	 4.1578151923	-1.0348927759	 0.10405
118.1084	240.8865	271.219	418.0867	438.2214	509.7254	594.2532	709.6302	725.6319	747.0015	766.6356	786.9027	819.9959	877.5701	919.3142	946.672	973.255	999.0961	1032.4726	1043.8749	1060.722	1088.1291	1115.4257	1153.8038	1231.4945	1236.5432	1257.4336	1289.9615	1318.8921	1346.9553	1365.4839	1387.686	1431.1135	1519.6731	1844.1562	3006.84	3079.6654	3137.9451	3176.6811	3184.9945	3211.2698	3645.9972
O=C1NC2C3COC1C23	O=C1N[C@H]2[C@H]3CO[C@@H]1[C@@H]23	
InChI=1S/C6H7NO2/c8-6-5-3-2(1-9-5)4(3)7-6/h2-5H,1H2,(H,7,8)	InChI=1S/C6H7NO2/c8-6-5-3-2(1-9-5)4(3)7-6/h2-5H,1H2,(H,7,8)/t2-,3+,4-,5+/m0/s1
