16
gdb 9095	4.36714	0.97924	0.84602	2.8073	63.22	-0.2679	-0.039	0.2289	1295.7672	0.127318	-420.90871	-420.899631	-420.898687	-420.943953	30.166	
C	-0.0470289309	 1.6906907007	-0.0359044946	-0.407014
C	-0.0778888586	 0.1565746854	 0.083777355	-0.091739
C	-1.4642236421	-0.4359257931	-0.1622784496	-0.08351
O	-2.3895466768	 0.0842012483	 0.7996558578	-0.183457
C	-3.0017637011	-0.7805926291	 1.6315601528	 0.169164
O	-3.7725083282	-0.4308016385	 2.472573058	-0.271278
C	 0.941595139	-0.466807032	-0.8489074191	 0.153007
O	 0.6955589098	-1.326302711	-1.6570117926	-0.242979
H	 0.9555854514	 2.0808730772	 0.1633888347	 0.126072
H	-0.3437051765	 2.010319193	-1.0404192421	 0.132098
H	-0.7390727936	 2.134978023	 0.6819584621	 0.155389
H	 0.2413999924	-0.1070569303	 1.1045632013	 0.111621
H	-1.8308171864	-0.1585429049	-1.1548976161	 0.134661
H	-1.4309524059	-1.5295805482	-0.1134836663	 0.127964
H	-2.7115567626	-1.8330648062	 1.4431965397	 0.081032
H	 1.9722524	-0.0590255243	-0.738433401	 0.088967
40.0317	59.5726	113.814	139.5947	207.0185	222.2709	272.9413	341.0271	388.2254	435.4258	599.2648	727.8209	815.2925	909.6031	921.6775	943.5652	1045.3301	1049.9824	1098.453	1130.1096	1163.2403	1205.6631	1298.3246	1306.214	1333.0144	1401.8017	1404.9714	1426.1238	1438.055	1490.8637	1501.2772	1506.1797	1823.8678	1868.9263	2876.4581	2946.103	2995.4647	3042.1692	3048.6635	3099.9151	3109.7658	3138.1051
CC(COC=O)C=O	C[C@@H](COC=O)C=O	
InChI=1S/C5H8O3/c1-5(2-6)3-8-4-7/h2,4-5H,3H2,1H3	InChI=1S/C5H8O3/c1-5(2-6)3-8-4-7/h2,4-5H,3H2,1H3/t5-/m1/s1
