14
gdb 13000	2.88712	2.61083	1.61257	1.3182	57.9	-0.2432	-0.0356	0.2075	774.4356	0.106183	-419.66911	-419.662112	-419.661168	-419.70021	26.356	
O	 0.2222833604	 1.3403055253	-0.3734720609	-0.46984
C	 0.0072252999	 0.0102366766	-0.075785473	 0.307581
C	-0.4932221432	-0.9613520713	-1.1438009271	-0.37226
C	-1.326935282	-0.6889902264	 0.072147502	 0.037089
O	-1.2755577881	-1.6506272173	 1.1040681547	-0.25951
C	 0.0591044026	-1.7620265351	 1.5851837116	-0.194335
C	 0.8337839841	-0.5778500576	 1.0092557877	 0.307498
O	 1.8648689118	-0.0966679858	 1.4168003649	-0.338327
H	 1.0588607454	 1.5688414575	 0.0595311258	 0.299187
H	-0.799024025	-0.4607067243	-2.0564822481	 0.142297
H	-0.0255477117	-1.9315273529	-1.2766411337	 0.127753
H	-2.2811561952	-0.1808700289	 0.0057893152	 0.128776
H	 0.0603026369	-1.7186710131	 2.6786563407	 0.149427
H	 0.5194819542	-2.7131677967	 1.28121086	 0.134665
107.5682	170.3039	274.2949	300.1602	334.0855	433.9254	474.3469	539.4904	623.1898	656.3998	708.1478	831.056	873.1306	908.7524	993.2751	1002.5559	1008.3946	1037.6041	1065.8972	1102.6155	1149.3494	1200.4411	1209.8317	1292.2112	1344.0231	1395.9441	1419.237	1477.9339	1485.3397	1826.5432	3009.5854	3083.7555	3128.0902	3196.013	3225.1825	3720.4464
OC12CC1OCC2=O	O[C@]12C[C@H]1OCC2=O	
InChI=1S/C5H6O3/c6-3-2-8-4-1-5(3,4)7/h4,7H,1-2H2	InChI=1S/C5H6O3/c6-3-2-8-4-1-5(3,4)7/h4,7H,1-2H2/t4-,5+/m1/s1
