18
gdb 78399	3.18013	1.3547	1.20133	3.744	75.36	-0.2341	0.0266	0.2607	1092.7311	0.148593	-401.929119	-401.921514	-401.92057	-401.961017	30.154	
C	-0.1003940108	 1.4104399435	 0.0024730933	-0.428201
C	 0.036292466	-0.0969556849	 0.0621541042	-0.022995
C	 1.3961330411	-0.6747753846	-0.2221196532	-0.073816
C	 0.8249475635	-0.6726938858	 1.2033300425	-0.06171
C	 0.8198382381	-2.2257636797	 1.2223166413	-0.204724
C	 1.3980515377	-2.2292414921	-0.2155380406	-0.005873
N	 0.1984730991	-2.9569365807	-0.6391110929	-0.320512
C	-0.4173938945	-2.9364971865	 0.6063141797	 0.39946
O	-1.4930927139	-3.3175375296	 0.9785741527	-0.358083
H	 0.8020168076	 1.9074546852	 0.3739272744	 0.116528
H	-0.2691559313	 1.7501516135	-1.0248594126	 0.120667
H	-0.9440019214	 1.7507726602	 0.6117505865	 0.126699
H	-0.8421068523	-0.6345515861	-0.2880480304	 0.097309
H	 2.1951689635	-0.0712607005	-0.6364498209	 0.085936
H	 1.1170984376	-0.0671360359	 2.0521776376	 0.093247
H	 1.3301691235	-2.7083660471	 2.0526999176	 0.099045
H	 2.3457065519	-2.7086248557	-0.4605245096	 0.09083
H	-0.2175472255	-3.0862783731	-1.5512379896	 0.246193
113.029	194.6295	222.2951	253.0615	286.3263	389.6906	448.2237	487.1667	559.6854	688.8856	739.2109	769.865	784.5941	811.9805	848.9332	893.341	936.0027	943.1695	986.8267	1008.5693	1020.0286	1043.3611	1070.6031	1093.9376	1137.9417	1146.9242	1156.1746	1192.6832	1207.9261	1237.4711	1265.9545	1298.3791	1334.5463	1352.4192	1416.967	1427.0933	1495.6006	1502.4379	1886.1229	3031.0818	3096.2464	3099.11	3111.2124	3129.8596	3147.7195	3176.4083	3190.8247	3590.1953
CC1C2C1C1C2NC1=O	C[C@H]1[C@H]2[C@@H]1[C@@H]1[C@H]2NC1=O	
InChI=1S/C7H9NO/c1-2-3-4(2)6-5(3)7(9)8-6/h2-6H,1H3,(H,8,9)	InChI=1S/C7H9NO/c1-2-3-4(2)6-5(3)7(9)8-6/h2-6H,1H3,(H,8,9)/t2-,3-,4+,5-,6+/m1/s1
