21
gdb 108180	3.17004	1.3696	1.27471	1.6396	81.73	-0.2356	0.0107	0.2463	1107.0446	0.184232	-387.092984	-387.085069	-387.084125	-387.125168	32.083	
C	 0.054497323	 1.5483566046	-0.0386739622	-0.39111
C	-0.039365476	 0.0179447627	 0.0204763789	-0.284169
C	-1.4584021761	-0.533239879	 0.0464124895	 0.259377
C	-2.35373387	-0.1907349196	-1.19338639	-0.094133
O	-3.4207535487	-1.1413400281	-1.1450148587	-0.279267
C	-3.1625947741	-1.9642518911	 0.0320167511	 0.049553
C	-1.6350346428	-2.0805074859	-0.0010635286	-0.262057
C	-3.3643462477	-1.076171894	 1.250059615	-0.089534
C	-2.3429245186	-0.2126682585	 1.2477288403	-0.111839
H	 1.0996532631	 1.8722139355	-0.0354542196	 0.115473
H	-0.4114152943	 1.9472927035	-0.9456118296	 0.122468
H	-0.4377089252	 2.0174934879	 0.8194586775	 0.118798
H	 0.4846285732	-0.4079101169	-0.8453335133	 0.095721
H	 0.4952256738	-0.3441969858	 0.9077663667	 0.099308
H	-2.7550344246	 0.8282729587	-1.1566167796	 0.095487
H	-1.7913759845	-0.3165619626	-2.1291558722	 0.092679
H	-3.7683201932	-2.8646542484	-0.0534402176	 0.071883
H	-1.2624721047	-2.5381035995	-0.9228315203	 0.095413
H	-1.209778813	-2.5765736107	 0.8731607553	 0.099817
H	-4.2358172986	-1.0761336139	 1.8919159037	 0.099522
H	-2.2022225511	 0.6419594613	 1.8983802039	 0.096609
85.8294	179.3004	205.3707	278.4673	327.454	375.4953	414.1197	494.0799	516.0525	603.5343	675.3688	743.633	778.2006	803.141	807.3259	874.2262	909.5003	923.2455	939.4252	956.275	972.9227	984.2108	1012.4898	1032.4247	1061.2663	1094.7191	1117.5512	1150.2421	1192.0842	1208.4434	1235.2761	1265.0901	1282.0621	1294.874	1317.3898	1350.1376	1372.4335	1380.2074	1410.6754	1483.0821	1489.816	1500.9193	1505.8225	1521.3541	1634.3662	3001.5244	3016.2131	3035.9024	3047.9644	3054.8466	3058.2629	3103.2914	3105.847	3126.8535	3138.7455	3195.6919	3223.5864
CCC12COC(C1)C=C2	CC[C@@]12CO[C@@H](C1)C=C2	
InChI=1S/C8H12O/c1-2-8-4-3-7(5-8)9-6-8/h3-4,7H,2,5-6H2,1H3	InChI=1S/C8H12O/c1-2-8-4-3-7(5-8)9-6-8/h3-4,7H,2,5-6H2,1H3/t7-,8+/m1/s1
