15
gdb 132161	3.28555	1.31449	0.93975	3.7119	75.17	-0.1803	0.0021	0.1824	1142.7586	0.114167	-458.128584	-458.12079	-458.119846	-458.160541	30.617	
N	 0.0433898364	 1.3725794858	 0.1553399018	-0.587925
C	-0.0144008375	-0.0042273586	 0.0540179584	 0.260334
C	-1.163400929	-0.7250159751	 0.0261206123	-0.103729
N	-1.1336102661	-2.1170379089	-0.0213502497	-0.399505
C	 0.0486627971	-2.7675406428	-0.030917268	 0.408189
F	-0.0696289389	-4.0911244888	-0.0654873708	-0.065574
C	 1.2415974411	-2.1310575042	-0.0123532607	-0.422435
C	 1.2989737472	-0.6852956784	 0.0169107303	 0.299853
N	 2.3504439181	 0.0697429316	 0.0035260439	-0.588908
H	 0.9763445132	 1.7060954779	-0.0647070828	 0.26674
H	-0.7063747715	 1.8949132268	-0.2699820332	 0.238942
H	-2.1491913599	-0.281484917	 0.0463572784	 0.116431
H	-1.9839494488	-2.6538513002	-0.026689179	 0.269948
H	 2.1509358951	-2.7174698146	-0.0354055803	 0.105964
H	 3.2030789936	-0.4881602836	-0.0313271606	 0.201675
127.0013	193.2501	265.2634	336.2539	361.5091	364.0463	402.4328	427.828	450.8388	509.8107	590.3392	642.5409	645.6483	750.3787	752.3062	783.4054	799.6791	801.9474	848.3434	992.4557	1101.389	1127.406	1202.6622	1232.8212	1296.6086	1335.4338	1371.658	1452.9121	1574.7772	1601.1159	1630.0537	1677.9243	1705.5802	3215.3913	3223.8337	3474.0196	3511.417	3659.1116	3674.0154
NC1=CNC(F)=CC1=N	NC1=CN[C@@H](F)C=C1[NH]	
InChI=1S/C5H6FN3/c6-5-1-3(7)4(8)2-9-5/h1-2H,8H2,(H2,7,9)	InChI=1S/C5H7FN3/c6-5-1-3(7)4(8)2-9-5/h1-2,5,7,9H,8H2/t5-/m1/s1
