23
gdb 105230	1.96355	1.39497	1.01252	1.8012	81.55	-0.2483	0.0695	0.3177	1304.6494	0.203089	-425.410837	-425.400036	-425.399092	-425.44624	40.644	
C	-1.4930195827	 0.006402518	-0.1707711243	-0.388569
C	 0.0242487763	-0.1033777316	 0.0346663732	-0.25226
C	 0.7760525494	-0.667832683	-1.1665489301	 0.318634
C	 2.084427105	-1.3900512443	-0.8775208188	-0.397162
C	 0.8513100695	-2.1635369984	-1.2864904059	 0.072934
O	 0.1495133841	-2.9193245219	-0.3379686226	-0.427273
C	 0.6659374229	 0.1324628944	-2.4722954018	 0.049833
C	 1.1663741674	 1.5719513527	-2.3369372875	-0.415026
O	 1.3212948064	-0.5211339203	-3.5600232142	-0.430692
H	-1.756388563	 0.7068812404	-0.9701051716	 0.112017
H	-1.9168335797	-0.9702197657	-0.4217777808	 0.136354
H	-1.9788566189	 0.3604591725	 0.7439787509	 0.107899
H	 0.4385432216	 0.8769747647	 0.3000673569	 0.08943
H	 0.2095786936	-0.7591848175	 0.8890896628	 0.108279
H	 2.9047872014	-1.3328176236	-1.5858850105	 0.089722
H	 2.3899025106	-1.4492914495	 0.1620149451	 0.108276
H	 0.8473834112	-2.5690555303	-2.295694352	 0.101486
H	 0.649027596	-3.726035597	-0.1762893161	 0.286823
H	-0.3886223045	 0.150447341	-2.7711920691	 0.092415
H	 0.5674140479	 2.1472142458	-1.6259519504	 0.125932
H	 2.2059970554	 1.5894102625	-1.9862855755	 0.110597
H	 1.1185114184	 2.0720832347	-3.3083135238	 0.121426
H	 2.2624776117	-0.3286619337	-3.4928303338	 0.278925
60.4832	86.0392	168.405	185.5535	227.3337	242.4345	258.2966	279.7065	303.2578	316.6613	335.6247	401.6525	453.4201	464.4065	488.3438	622.0072	671.4054	776.4477	823.069	868.4246	899.7422	927.4167	964.641	1009.8777	1034.5653	1041.0998	1051.0224	1074.8287	1110.5378	1122.1933	1140.1203	1173.5152	1248.4077	1271.7841	1293.8208	1312.9355	1324.3101	1361.0742	1377.6341	1399.0431	1407.0657	1420.5431	1428.1876	1480.3007	1490.9787	1494.2168	1497.6605	1503.0578	1508.0419	3025.8509	3032.5214	3035.2601	3042.9254	3085.13	3100.0523	3103.7624	3117.1151	3121.1075	3122.1135	3132.4007	3208.8902	3807.4759	3809.4204
CCC1(CC1O)C(C)O	CC[C@]1(C[C@H]1O)[C@@H](C)O	
InChI=1S/C7H14O2/c1-3-7(5(2)8)4-6(7)9/h5-6,8-9H,3-4H2,1-2H3	InChI=1S/C7H14O2/c1-3-7(5(2)8)4-6(7)9/h5-6,8-9H,3-4H2,1-2H3/t5-,6-,7+/m1/s1
