19
gdb 81642	2.61724	1.51685	1.39181	1.9166	75.98	-0.2378	-0.003	0.2348	1043.1627	0.160172	-423.018314	-423.01049	-423.009546	-423.050216	31.426	
C	-0.0468281639	 1.494524649	 0.0195552372	-0.479695
C	-0.0289822887	-0.0037104045	-0.0440331783	 0.297601
C	-0.0672718497	-0.7178972234	-1.1774167831	-0.184351
C	 0.0199751466	-2.221612721	-1.0447388726	 0.005041
O	 1.0606038144	-2.5542000155	-0.0779502843	-0.293254
C	 0.1065331471	-2.2821573212	 0.9843237156	 0.035397
C	 0.0783499815	-0.7739002426	 1.265020948	-0.310401
C	-1.0260577361	-2.7019987443	 0.0047519162	 0.122056
O	-2.3024756109	-2.1485986261	 0.0684193665	-0.431173
H	 0.8752340569	 1.8749523712	 0.4777303199	 0.132645
H	-0.1421142282	 1.940310718	-0.9741309949	 0.125361
H	-0.8737764552	 1.8584431897	 0.6423195186	 0.126252
H	-0.1476683809	-0.2511348966	-2.1543386754	 0.09
H	 0.1406947934	-2.7540431128	-1.9898650379	 0.07494
H	 0.296250943	-2.8815315792	 1.8786443421	 0.075756
H	 0.9842692747	-0.4703931663	 1.8057025286	 0.117465
H	-0.7695953768	-0.5325225907	 1.9212455419	 0.113747
H	-1.132115888	-3.7877194436	-0.0139791391	 0.103924
H	-2.217843159	-1.2138942901	-0.162596119	 0.278688
128.4378	185.7143	215.8992	283.9971	319.9201	386.4566	422.8149	460.2697	478.9454	581.5683	614.2687	628.5124	784.8837	808.0839	836.5894	858.1157	891.4996	919.0206	968.424	974.8015	1028.2811	1057.2163	1061.7882	1067.7035	1137.9402	1162.5193	1185.2461	1206.4735	1231.8216	1288.7485	1307.9467	1314.1927	1329.7878	1355.8098	1383.8045	1413.8941	1434.9394	1460.25	1477.6046	1487.6859	1703.659	3012.3975	3018.575	3046.1269	3064.7768	3077.0082	3095.757	3111.3262	3112.732	3173.7793	3749.3563
CC1=CC2OC(C1)C2O	CC1=C[C@H]2O[C@@H](C1)[C@H]2O	
InChI=1S/C7H10O2/c1-4-2-5-7(8)6(3-4)9-5/h2,5-8H,3H2,1H3	InChI=1S/C7H10O2/c1-4-2-5-7(8)6(3-4)9-5/h2,5-8H,3H2,1H3/t5-,6+,7+/m1/s1
