23
gdb 118755	2.32668	1.06702	0.85783	0.415	82.07	-0.2472	0.075	0.3222	1469.9625	0.203778	-425.419335	-425.409006	-425.408062	-425.454467	39.122	
C	 0.5239183669	 1.5044418384	 0.1069260779	-0.379658
C	 0.2167556584	 0.0054345038	 0.0359053622	-0.193185
C	 0.7155687873	-0.7593991268	 1.2680101326	-0.220715
C	 0.4851647069	-2.2729511805	 1.2145289281	 0.41634
O	-0.8893775156	-2.6008956469	 1.1108325643	-0.487435
C	 1.4471708164	-3.0363155774	 0.2407155667	-0.287084
C	 2.3156229508	-3.440605035	 1.4523674299	 0.121861
O	 3.4412386683	-2.5784371997	 1.5276452493	-0.431296
C	 1.1435011424	-3.039346515	 2.3907592128	-0.302345
H	 1.6028295945	 1.6811291068	 0.1744587736	 0.118857
H	 0.1527751695	 2.0319280362	-0.7773097294	 0.110481
H	 0.0591366842	 1.9607379925	 0.9878412329	 0.115827
H	-0.8692608395	-0.1251456782	-0.0699923303	 0.085984
H	 0.6702413311	-0.4165738415	-0.8704778856	 0.100651
H	 1.7896891901	-0.5861326694	 1.3970116043	 0.113278
H	 0.214348174	-0.3708888529	 2.1648511061	 0.092214
H	-1.2449740628	-2.1670148047	 0.328140667	 0.275015
H	 0.9394486667	-3.8950021291	-0.2039677742	 0.101675
H	 1.9654989796	-2.4663177389	-0.533832988	 0.103203
H	 2.6296316252	-4.4909565116	 1.4974092266	 0.066489
H	 3.8340784467	-2.6830661523	 2.4004989705	 0.281502
H	 1.4009066263	-2.4632398662	 3.284687186	 0.089236
H	 0.5291759526	-3.8979513315	 2.6727371269	 0.109105
74.6316	91.6509	130.8629	168.2343	245.9556	254.6609	291.5822	296.7824	329.5331	360.4342	371.0231	413.1	454.3212	503.8563	692.1351	755.6035	822.4399	827.8006	849.9783	878.5069	908.094	950.0722	962.8087	989.3479	993.3172	1051.3324	1069.1754	1072.3065	1128.4033	1177.2236	1192.0047	1197.4834	1244.2215	1262.8141	1275.771	1301.6368	1304.8202	1327.9328	1342.639	1362.2319	1404.9187	1411.8118	1415.9152	1450.3021	1476.3942	1482.368	1493.0188	1499.2798	1509.1539	3005.0997	3013.4835	3017.8214	3030.8332	3041.325	3053.1904	3067.8693	3079.7178	3099.004	3102.5413	3117.9571	3129.3476	3809.5994	3810.4016
CCCC1(O)CC(O)C1	CCC[C@@]1(O)C[C@@H](O)C1	
InChI=1S/C7H14O2/c1-2-3-7(9)4-6(8)5-7/h6,8-9H,2-5H2,1H3	InChI=1S/C7H14O2/c1-2-3-7(9)4-6(8)5-7/h6,8-9H,2-5H2,1H3/t6-,7-
