18
gdb 13420	5.91732	1.0313	0.9223	2.1975	64.64	-0.254	0.0796	0.3336	1245.7858	0.153754	-422.06961	-422.061073	-422.060129	-422.103904	29.503	
O	-0.0882866921	 1.4572534624	-0.142028802	-0.420877
C	 0.001165714	 0.0489375586	 0.0164718956	-0.077132
C	-1.4190807928	-0.5023872017	 0.0108278718	-0.203014
C	-1.4562196145	-2.0154510481	 0.0711248553	 0.216831
O	-0.8900637297	-2.4807930621	 1.2762089952	-0.248999
C	-1.4436671547	-3.7729094357	 1.4626225136	-0.109287
C	-2.8711652507	-3.6290306202	 0.8952305981	-0.089625
O	-2.796464088	-2.4807593779	 0.0554521526	-0.268364
H	 0.7989648712	 1.821855019	-0.0767853956	 0.285552
H	 0.5820843501	-0.4070884959	-0.8028851412	 0.082111
H	 0.4973481189	-0.221405541	 0.9593853947	 0.105886
H	-1.9791451987	-0.1064853223	 0.8631294743	 0.117011
H	-1.9282404245	-0.1796185422	-0.9028880915	 0.119096
H	-0.9115417281	-2.4618453655	-0.784863377	 0.057268
H	-0.8693080798	-4.5286316199	 0.9057522402	 0.099164
H	-1.4122372672	-4.016604135	 2.5265127971	 0.119401
H	-3.1789062593	-4.5098519631	 0.3191000162	 0.104014
H	-3.6136738441	-3.4469010193	 1.6806850524	 0.110964
46.9298	87.315	93.6269	154.8195	202.6383	262.2595	339.1116	381.3869	548.4305	694.3343	730.0772	799.3375	874.6864	905.4235	945.1921	972.6658	1034.0564	1058.2538	1070.5704	1091.2388	1136.3677	1157.6401	1174.8743	1220.8242	1225.4831	1245.3685	1254.0698	1307.2078	1320.7817	1344.3923	1377.6543	1399.8258	1441.1392	1464.5757	1482.0381	1514.9265	1529.6903	1533.3245	2900.1398	2960.5496	2991.4494	3016.367	3024.9176	3059.9469	3062.136	3110.3928	3110.7011	3831.0034
OCCC1OCCO1	OCCC1OCCO1	
InChI=1S/C5H10O3/c6-2-1-5-7-3-4-8-5/h5-6H,1-4H2	InChI=1S/C5H10O3/c6-2-1-5-7-3-4-8-5/h5-6H,1-4H2
