21
gdb 95817	2.31034	1.45691	1.20872	2.1562	80.4	-0.2474	0.0104	0.2578	1152.716	0.183478	-424.223056	-424.214072	-424.213128	-424.256766	34.365	
C	-0.4888699685	 1.4279776937	 0.0023484452	-0.381275
C	-0.0238927715	-0.0435727835	-0.0105844298	-0.040438
C	 0.7178181471	-0.3838201438	-1.3075547173	-0.085303
O	 1.9642550781	 0.2729881111	-1.4595423725	-0.256059
C	 3.0500015523	-0.39533942	-0.8427316998	-0.107803
C	 3.2093723521	-0.0460315163	 0.6340998982	 0.07937
O	 3.576676357	 1.3272365907	 0.7852788525	-0.431092
C	 2.0313259291	-0.3701712781	 1.5310202922	-0.088351
C	 0.7224255819	-0.3602566773	 1.2663594007	-0.066122
H	 0.3678044158	 2.1011242579	-0.0955191589	 0.122308
H	-1.1730232247	 1.626548522	-0.82949343	 0.113878
H	-1.005672641	 1.6733701648	 0.9347068101	 0.116892
H	-0.9281219763	-0.6698302049	-0.0194193778	 0.079717
H	 0.8613498073	-1.4727451208	-1.3783162749	 0.090992
H	 0.1033654797	-0.0715482421	-2.160250858	 0.100992
H	 2.9544245526	-1.4849173239	-0.9670626373	 0.088651
H	 3.9525704641	-0.0622579929	-1.3657591373	 0.111411
H	 4.0803137066	-0.6056881924	 0.9981209233	 0.085514
H	 2.8725723814	 1.8380527923	 0.368198047	 0.284055
H	 2.3184268596	-0.5522160231	 2.5647798049	 0.092193
H	 0.0607783874	-0.5383133033	 2.1139623295	 0.09047
60.1538	107.2639	203.4613	216.724	258.6333	311.981	317.1804	353.6181	388.6844	482.0839	499.4796	581.0867	699.8721	737.2522	777.0609	799.0669	844.603	903.7424	941.3478	961.5269	981.2092	1019.1509	1020.5386	1071.2362	1102.9053	1119.4677	1154.5495	1175.9763	1258.8021	1262.2774	1293.3857	1321.3936	1344.6577	1365.1791	1385.6921	1389.3641	1396.7515	1417.5708	1428.2722	1444.5488	1473.9932	1489.6241	1496.2543	1500.9858	1721.4968	2982.6855	2989.2807	3002.439	3034.2566	3034.8583	3056.6824	3077.2374	3105.1412	3114.5481	3118.8067	3150.0758	3791.2223
CC1COCC(O)C=C1	C[C@H]1COC[C@@H](O)C=C1	
InChI=1S/C7H12O2/c1-6-2-3-7(8)5-9-4-6/h2-3,6-8H,4-5H2,1H3	InChI=1S/C7H12O2/c1-6-2-3-7(8)5-9-4-6/h2-3,6-8H,4-5H2,1H3/t6-,7+/m1/s1
