19
gdb 60790	2.4915	1.16959	1.02168	3.1488	77.96	-0.2447	-0.0241	0.2206	1251.101	0.153756	-423.000408	-422.989619	-422.988675	-423.036061	39.008	
C	 0.0734221604	 1.5300262341	 0.0433866622	-0.441717
C	 0.0062425179	-0.0062713204	-0.0131171176	-0.056141
C	 0.7849416478	-0.5593687819	 1.1694476713	 0.139665
O	 1.866293593	-1.0837551014	 1.0852186338	-0.257023
C	-1.4632530285	-0.5413032234	-0.0017668727	 0.132431
C	-1.4863345959	-2.076461958	 0.0365287967	-0.407184
O	-2.141535112	-0.1112733629	 1.1855496936	-0.453052
C	-2.1715139586	-0.0583442824	-1.1953825379	 0.309361
C	-2.7553612149	 0.3556208943	-2.1617076337	-0.460036
H	 1.1082398484	 1.8708136872	-0.0453380344	 0.137067
H	-0.5048495283	 1.9684960213	-0.7745603526	 0.138
H	-0.3223323223	 1.9090763875	 0.9917171746	 0.12161
H	 0.4975289811	-0.3625443732	-0.9236483446	 0.102623
H	 0.2879835026	-0.4100204519	 2.1526075443	 0.094979
H	-1.0295524848	-2.431864326	 0.9643721453	 0.135977
H	-2.5176634227	-2.4321052197	 9.8861*^-6	 0.135696
H	-0.9341859531	-2.4918899051	-0.8096178537	 0.133231
H	-2.4416270573	 0.793029564	 1.0472775094	 0.290388
H	-3.2768139929	 0.7096987279	-3.0170895001	 0.204125
58.8658	73.9787	140.9769	180.587	213.1781	230.171	246.3613	254.6893	294.0113	321.8855	378.0795	398.6856	443.9713	472.6108	575.1837	617.314	637.5482	671.1361	750.9169	878.7303	914.7195	938.8363	961.1888	1027.6059	1060.1489	1117.044	1150.2869	1170.7927	1183.4617	1292.4485	1328.5258	1360.3234	1393.8323	1410.4511	1418.7928	1477.5418	1493.9612	1498.2132	1506.3163	1827.0226	2227.9029	2900.3738	3039.0065	3053.2766	3072.5633	3110.9665	3123.2504	3130.3915	3143.4779	3497.0127	3822.4372
CC(C=O)C(C)(O)C#C	C[C@@H](C=O)[C@@](C)(O)C#C	
InChI=1S/C7H10O2/c1-4-7(3,9)6(2)5-8/h1,5-6,9H,2-3H3	InChI=1S/C7H10O2/c1-4-7(3,9)6(2)5-8/h1,5-6,9H,2-3H3/t6-,7-/m0/s1
