25
gdb 122954	2.42568	0.82814	0.64892	1.098	87.66	-0.2437	0.0874	0.3311	1840.9404	0.225451	-426.616801	-426.604971	-426.604027	-426.65535	41.263	
C	-0.4596211903	 1.5944050684	-0.1753264735	-0.389314
C	-0.1473493985	 0.0993099175	-0.0704660396	-0.171748
C	 0.68341742	-0.4149563875	-1.2481740722	 0.161
C	 1.0969346012	-1.8794837731	-1.0834182691	-0.403345
O	-0.1142364624	-0.2290466279	-2.4124687967	-0.253823
C	 0.579420882	-0.1307680353	-3.6329807598	-0.072944
C	-0.3481658227	 0.4806214928	-4.664847049	-0.056709
O	-0.5533513106	 1.8386786605	-4.3492288492	-0.224322
C	-1.4678201887	 2.4684362191	-5.2120175151	-0.223587
H	 0.4540326825	 2.194229035	-0.0923278373	 0.105815
H	-0.917581627	 1.8170187719	-1.1422381326	 0.144235
H	-1.1405877156	 1.9152305699	 0.6188846794	 0.103493
H	 0.3903921078	-0.1169515001	 0.8605523373	 0.088323
H	-1.0794075274	-0.4789708527	-0.0385425456	 0.100406
H	 1.5916771891	 0.2060055704	-1.3389469757	 0.061115
H	 0.2111964241	-2.5153788841	-0.9847278939	 0.120405
H	 1.675428119	-2.2312247567	-1.9432455845	 0.112482
H	 1.7170877358	-2.0082018326	-0.1903934029	 0.112319
H	 1.4699883077	 0.508763664	-3.5273069342	 0.096202
H	 0.9141599026	-1.1171895398	-3.9942583408	 0.083686
H	 0.1004521475	 0.3757975524	-5.6681240261	 0.080385
H	-1.3036398757	-0.0692925552	-4.6668750909	 0.095222
H	-1.1255946761	 2.447538948	-6.2597025392	 0.099622
H	-2.4626789419	 1.9971411686	-5.1691751832	 0.104633
H	-1.5568250725	 3.5095519065	-4.8921836757	 0.12645
37.5008	39.18	81.6403	124.1275	138.1746	186.5267	219.4944	230.8816	241.464	254.6718	286.7752	322.627	402.7271	470.5594	490.5051	558.0886	771.2275	833.6127	866.4909	872.6678	957.4185	984.3529	1005.7921	1038.2034	1054.0985	1121.6669	1125.7607	1142.9163	1162.7194	1179.6065	1187.5623	1202.7592	1227.6618	1263.798	1299.0065	1303.0384	1329.7599	1369.2292	1394.4482	1403.6004	1405.885	1413.0044	1441.0794	1475.0667	1478.4317	1485.595	1490.334	1494.8524	1496.965	1497.7779	1510.1758	1513.187	1521.2664	2948.1342	2951.0758	2963.8493	2970.6208	2989.4598	3006.7568	3009.051	3026.1406	3034.5384	3036.0113	3064.0965	3098.0948	3105.6409	3110.2424	3112.8092	3129.0275
CCC(C)OCCOC	CC[C@@H](C)OCCOC	
InChI=1S/C7H16O2/c1-4-7(2)9-6-5-8-3/h7H,4-6H2,1-3H3	InChI=1S/C7H16O2/c1-4-7(2)9-6-5-8-3/h7H,4-6H2,1-3H3/t7-/m1/s1
