15
gdb 48662	2.31638	1.54632	1.16073	2.3925	69.32	-0.2586	-0.0705	0.1881	1059.3459	0.110071	-457.736501	-457.728297	-457.727352	-457.769712	29.41	
O	-0.2094985856	 0.1646852328	-0.1713840064	-0.262993
C	-0.0463129266	 1.3620139703	-0.1311012686	 0.067037
C	 1.2759103562	 1.9860142925	 0.0164414711	 0.128523
C	 1.5063283321	 3.4202121655	 0.4297246512	-0.379903
C	 1.9628691286	 3.0359627585	-0.9332227175	 0.312723
O	 3.1833626509	 2.3221027464	-0.9264119485	-0.313399
C	 2.6107602949	 1.2608608571	-0.1041937464	-0.145832
C	 1.4421820725	 3.602601919	-2.1958027561	 0.082037
O	 0.4001566668	 4.2078919572	-2.27362844	-0.261219
H	-0.894678795	 2.0742558406	-0.2074500498	 0.098245
H	 0.6131855186	 4.0372765158	 0.441658969	 0.160252
H	 2.2551004192	 3.6402252171	 1.1847961112	 0.13886
H	 3.1787337069	 1.1042300457	 0.8177806746	 0.125058
H	 2.5340870755	 0.3301790564	-0.6710743433	 0.146071
H	 2.0944878049	 3.4095456151	-3.0728204304	 0.10454
80.5083	119.8551	167.936	194.7325	238.9944	278.4197	402.7214	419.3182	482.6791	549.085	679.9346	730.6774	777.0706	821.0429	940.3839	968.0168	979.6186	1024.4494	1032.9451	1047.6225	1081.9607	1133.9724	1151.7537	1213.9398	1300.4305	1331.1282	1384.0625	1410.0071	1434.102	1467.1208	1515.5006	1790.9409	1803.2027	2913.5506	2924.7392	3056.2648	3120.3904	3123.2032	3223.4527
O=CC12CC1(OC2)C=O	O=C[C@]12C[C@]1(OC2)C=O	
InChI=1S/C6H6O3/c7-2-5-1-6(5,3-8)9-4-5/h2-3H,1,4H2	InChI=1S/C6H6O3/c7-2-5-1-6(5,3-8)9-4-5/h2-3H,1,4H2/t5-,6-/m0/s1
