14
gdb 9944	3.51782	1.53768	1.45051	3.1248	60.8	-0.2326	0.0184	0.251	903.3156	0.103789	-419.599325	-419.591011	-419.590067	-419.63149	31.15	
O	-0.1106230009	 1.378130778	-0.0039891079	-0.434012
C	-0.0076206079	-0.0113255863	-0.0196332822	-0.010508
C	-0.4539530279	-0.7216153551	 1.2352862078	-0.034058
O	-0.869999701	 0.1149495548	 2.2793688637	-0.422041
C	-1.359886024	-0.7465223756	 0.0007634127	 0.167181
O	-2.4848000124	 0.0700515092	-0.0037591209	-0.455574
C	-1.4834414902	-1.9939577973	-0.6989753156	 0.29678
C	-1.551140496	-3.0474392843	-1.2756845239	-0.42531
H	-0.3285067769	 1.6159243276	 0.9116871537	 0.294262
H	 0.8028857215	-0.3851643076	-0.6356865456	 0.119861
H	 0.0159927074	-1.6571217316	 1.5259263392	 0.114505
H	-0.1596361627	 0.1450428788	 2.9298302905	 0.302667
H	-2.1815625317	 0.9372247785	-0.3129290983	 0.291108
H	-1.6279191972	-3.9736205391	-1.7892655832	 0.19514
130.8891	151.4476	209.6396	230.3319	253.638	302.0036	350.5001	431.5529	476.385	539.7517	574.8758	612.2712	638.3954	674.9435	680.6484	735.6023	832.2244	868.8619	1033.3402	1056.6703	1106.1487	1146.1833	1191.0925	1230.0237	1271.3344	1314.4418	1390.8251	1406.2537	1458.1355	2233.1629	3145.3877	3173.0829	3502.9196	3687.4189	3710.7112	3806.8768
OC1C(O)C1(O)C#C	O[C@H]1[C@@H](O)[C@]1(O)C#C	
InChI=1S/C5H6O3/c1-2-5(8)3(6)4(5)7/h1,3-4,6-8H	InChI=1S/C5H6O3/c1-2-5(8)3(6)4(5)7/h1,3-4,6-8H/t3-,4+,5-
