16
gdb 53910	2.17538	1.42871	1.06099	4.8804	70.8	-0.2494	0.0154	0.2647	1163.4152	0.121464	-437.847782	-437.838228	-437.837284	-437.883413	33.825	
N	 0.0190550499	 1.3036712904	-0.1591024242	-0.525567
C	 0.0420239557	-0.0069302566	 0.2364603481	 0.416402
O	 0.9986116214	-0.5212735524	 0.7644658681	-0.329277
C	-1.3071458774	-0.7406949337	 0.0141446802	-0.376751
C	-1.1098065669	-2.1698331513	-0.1761365416	 0.359784
C	-0.9709431393	-3.3477298329	-0.3617208485	-0.430885
C	-2.2431025402	-0.4028393737	 1.1835794572	 0.110517
C	-3.2610795839	-1.3287371865	 1.6899749569	-0.194031
O	-2.0442733545	-1.0880675529	 2.40591056	-0.211318
H	 0.8776741075	 1.824509882	-0.0762080003	 0.265764
H	-0.6943849631	 1.666563942	-0.766945767	 0.258358
H	-1.7822103583	-0.3256967706	-0.8870392146	 0.110259
H	-0.823706926	-4.3885259545	-0.5130268256	 0.200369
H	-2.4169179702	 0.6693958576	 1.2889136757	 0.097866
H	-4.1628712003	-0.9306607779	 2.1527510797	 0.116337
H	-3.3452854144	-2.318272829	 1.2475447159	 0.132171
26.5441	64.948	136.9814	159.3166	172.7517	238.8268	340.9346	360.3105	371.1238	443.4825	547.3466	616.9143	635.4235	654.5227	662.2398	707.0326	815.467	855.3696	910.4312	958.3212	981.7735	1081.2037	1099.2893	1112.2282	1163.1452	1170.029	1232.1137	1277.4711	1313.5555	1365.874	1420.0366	1521.4872	1618.601	1824.9564	2248.4141	2999.3621	3090.6589	3098.5712	3189.8026	3503.5144	3596.678	3729.432
NC(=O)C(C#C)C1CO1	NC(=O)[C@@H](C#C)[C@H]1CO1	
InChI=1S/C6H7NO2/c1-2-4(6(7)8)5-3-9-5/h1,4-5H,3H2,(H2,7,8)	InChI=1S/C6H7NO2/c1-2-4(6(7)8)5-3-9-5/h1,4-5H,3H2,(H2,7,8)/t4-,5+/m0/s1
