20
gdb 53314	5.15795	0.77987	0.74596	1.6076	90.02	-0.2201	0.0592	0.2793	1618.4125	0.169622	-365.950301	-365.940576	-365.939632	-365.98702	35.091	
C	-0.0145855385	 1.5430646873	-0.0965814163	-0.497717
C	-0.0086940628	 0.08838841	-0.0402575831	 0.047161
C	-0.0132314809	-1.1149506987	 0.0133626756	 0.112485
C	-0.011250413	-2.5641001424	 0.0737949149	-0.172845
C	 0.3080750266	-3.2834982775	 1.4475682078	-0.280494
C	-1.0316886079	-4.0279458527	 1.3295333604	 0.349783
C	-1.3314785804	-5.4177688668	 1.7968893281	-0.507703
N	-2.0595982678	-2.9564113499	 1.3236402975	-0.357807
C	-1.360020689	-3.3117168496	 0.0656213666	-0.114698
H	 1.0038565494	 1.9478024691	-0.1071580396	 0.142902
H	-0.521703262	 1.9057470877	-0.9979549174	 0.143607
H	-0.5322792909	 1.9728978891	 0.7683046534	 0.147301
H	 0.6400044939	-2.9741059877	-0.7052924108	 0.096022
H	 1.1833635713	-3.9328403433	 1.375417064	 0.100217
H	 0.3970397012	-2.6265307597	 2.3143179545	 0.111886
H	-1.4022014699	-5.4611581844	 2.8903743822	 0.129354
H	-2.2822381244	-5.7756456241	 1.3861654052	 0.116533
H	-0.5473049484	-6.1170355789	 1.4869319138	 0.123638
H	-2.9702393953	-3.4159384113	 1.2885660895	 0.221431
H	-1.9172099312	-3.632066966	-0.8072597364	 0.088945
8.9929	70.2992	89.901	187.6779	214.6898	252.4572	291.8663	335.6799	374.7443	436.3448	467.6118	543.8819	649.163	677.658	756.9463	847.0282	902.4182	930.6755	939.0199	959.5843	983.6221	1024.9014	1052.8304	1053.5818	1057.5925	1093.5197	1135.5826	1162.4888	1189.1198	1216.7651	1236.8312	1288.6722	1324.4997	1363.5559	1408.1861	1414.5082	1444.5002	1478.5792	1479.3949	1479.7385	1483.5048	1499.4926	2369.3989	3021.4118	3023.3715	3047.0457	3071.2973	3081.6553	3083.0666	3083.8066	3093.6196	3134.3324	3178.6408	3459.5192
CC#CC1CC2(C)NC12	CC#C[C@H]1C[C@@]2(C)N[C@@H]12	
InChI=1S/C8H11N/c1-3-4-6-5-8(2)7(6)9-8/h6-7,9H,5H2,1-2H3	InChI=1S/C8H11N/c1-3-4-6-5-8(2)7(6)9-8/h6-7,9H,5H2,1-2H3/t6-,7-,8+/m0/s1
