14
gdb 6633	5.86247	0.8076	0.71614	3.4241	73.95	-0.2583	-0.0505	0.2077	1500.8748	0.103129	-345.355958	-345.346742	-345.345797	-345.392682	30.851	
C	 0.0112385883	 1.5342487215	-0.0402037323	-0.477843
C	-0.0322006292	 0.024991043	 0.0869875613	 0.252434
O	-0.0801037879	-0.5470645741	 1.1542996519	-0.27169
C	-0.012199385	-0.7062553162	-1.1684932495	 0.04655
C	 0.0048889944	-1.3114211941	-2.2115054112	 0.076277
C	 0.0242947399	-2.0452325568	-3.4762182799	-0.501234
C	 0.0378943644	-3.4998664098	-3.3192003723	 0.315999
C	 0.0494804495	-4.694144622	-3.2040361904	-0.428279
H	 0.9181134024	 1.8404735515	-0.5728797746	 0.146161
H	-0.8409134598	 1.8868070033	-0.6313364131	 0.145982
H	-0.0097209997	 1.9853511704	 0.9528219121	 0.144233
H	-0.8481155014	-1.7461329481	-4.0740478417	 0.172166
H	 0.9001161773	-1.7280150365	-4.059421072	 0.171744
H	 0.0592846367	-5.7503389519	-3.0931753585	 0.2075
6.3528	64.5524	117.7302	142.0209	146.4044	313.8795	314.6711	368.9327	398.0744	500.8178	601.1631	622.8559	634.0928	658.8445	695.5449	924.9971	930.6807	966.2436	1042.6235	1053.7485	1229.3037	1242.8353	1332.6615	1380.7161	1441.0076	1460.683	1468.5803	1771.9649	2251.5346	2340.2167	3009.6372	3034.4383	3039.0628	3103.0683	3152.4874	3506.0564
CC(=O)C#CCC#C	CC(=O)C#CCC#C	
InChI=1S/C7H6O/c1-3-4-5-6-7(2)8/h1H,4H2,2H3	InChI=1S/C7H6O/c1-3-4-5-6-7(2)8/h1H,4H2,2H3
