20
gdb 117405	4.87351	0.60967	0.54921	1.6295	84.21	-0.2684	0.0225	0.2909	2012.3022	0.16775	-403.121199	-403.110552	-403.109608	-403.158362	37.295	
C	 0.0885227192	 1.5992700241	-0.1903093829	-0.385243
C	 0.0127154974	 0.078897611	-0.0309426349	-0.154603
C	 0.6812667333	-0.6592132486	-1.1907210582	-0.266233
C	 0.6359473249	-2.1631333355	-1.0843320734	 0.433544
N	 0.0878557333	-2.765128612	-0.1133986755	-0.528653
O	 1.2616038068	-2.7067304305	-2.1714509823	-0.241857
C	 1.3202509438	-4.1296644227	-2.2518387058	-0.267184
C	 2.0166985627	-4.5094008845	-3.470519722	 0.279837
C	 2.5869897981	-4.8578303334	-4.4674640128	-0.387558
H	 1.1272213882	 1.9465363458	-0.2341510398	 0.111921
H	-0.4076459183	 1.9313268512	-1.1095310708	 0.111919
H	-0.3953554742	 2.1074926206	 0.6492676501	 0.113279
H	 0.4843901342	-0.2277648752	 0.9082106331	 0.112548
H	-1.0310352125	-0.2427594653	 0.0442243725	 0.112559
H	 0.2205323254	-0.3802024322	-2.1476027064	 0.122413
H	 1.7349720852	-0.3648297652	-1.2844025096	 0.122398
H	 0.1350548271	-3.7797709331	-0.1780258187	 0.222783
H	 1.8445603273	-4.5350136267	-1.3744754101	 0.141054
H	 0.3038363903	-4.549010695	-2.2506404202	 0.141035
H	 3.0929157179	-5.1603675427	-5.3510323423	 0.20604
36.3966	67.4086	83.8885	89.9524	148.0872	184.7107	249.4179	296.0701	337.7223	339.4065	387.6913	533.5207	544.6765	620.1453	675.0869	684.0199	745.3179	851.141	884.4894	894.1706	932.4625	987.3509	1014.4763	1040.0837	1051.7043	1113.6169	1130.984	1131.6282	1252.3541	1253.7918	1255.9434	1320.0886	1338.2464	1394.7449	1414.1913	1421.6555	1464.8062	1487.4084	1501.5075	1501.9252	1508.8022	1732.6275	2252.9155	2994.7539	3023.8352	3025.7142	3027.7586	3049.8582	3053.9164	3076.997	3102.5328	3103.2824	3504.6828	3513.6316
CCCC(=N)OCC#C	CCC[C]([NH])OCC#C	
InChI=1S/C7H11NO/c1-3-5-7(8)9-6-4-2/h2,8H,3,5-6H2,1H3	InChI=1S/C7H11NO/c1-3-5-7(8)9-6-4-2/h2,8H,3,5-6H2,1H3
