18
gdb 10090	2.43969	1.67023	1.00993	2.9869	73.79	-0.2504	-0.0198	0.2306	1156.4405	0.152267	-381.155587	-381.146197	-381.145253	-381.190171	32.54	
C	 0.0356965239	 1.6535400317	 0.0071568997	-0.377675
C	-0.0038476954	 0.1274022254	-0.032944211	-0.246204
C	-1.404209775	-0.4357878417	 0.0149268514	 0.393062
N	-1.536334871	-1.8437653929	-0.0174708811	-0.355021
C	-0.5775558398	-2.8311800766	-0.0879968351	 0.161397
O	 0.6189257445	-2.6839523164	-0.1382454976	-0.293633
N	-2.4135667395	 0.3358159102	 0.0815045892	-0.262667
C	-3.7563395578	-0.2123827563	 0.1272251655	-0.347326
H	 1.0736413932	 1.9971399087	-0.0303470066	 0.105485
H	-0.5062977684	 2.0859092492	-0.837026465	 0.126362
H	-0.4268768692	 2.0377107912	 0.9191832172	 0.12635
H	 0.4931404501	-0.255857562	-0.9309042868	 0.13327
H	 0.57117148	-0.3032283966	 0.7941702424	 0.133263
H	-2.4850330047	-2.1861281774	 0.0159916622	 0.25067
H	-1.0584772675	-3.8301241511	-0.0935293925	 0.087537
H	-4.004702903	-0.8023795398	-0.7695382996	 0.115515
H	-3.9238505516	-0.8529028048	 1.0079559966	 0.115422
H	-4.4766140086	 0.6070684891	 0.1833139011	 0.134192
50.5525	100.895	135.8838	191.695	200.2163	221.2028	257.5608	269.684	295.9118	436.4279	576.4684	589.991	641.1981	748.8864	801.7209	832.7685	985.5713	1029.6182	1041.9529	1087.723	1098.9627	1119.0797	1132.3861	1192.7146	1240.813	1288.1292	1390.8801	1414.9918	1433.1009	1445.2806	1452.1294	1476.6292	1490.131	1499.193	1512.8526	1525.1443	1739.1598	1825.6047	2930.7282	2963.2655	3012.0007	3051.243	3053.2072	3077.3189	3103.4992	3122.2464	3132.8233	3617.8519
CCC(NC=O)=NC	CCC(=NC)NC=O	
InChI=1S/C5H10N2O/c1-3-5(6-2)7-4-8/h4H,3H2,1-2H3,(H,6,7,8)	InChI=1S/C5H10N2O/c1-3-5(6-2)7-4-8/h4H,3H2,1-2H3,(H,6,7,8)
