19
gdb 53156	4.51426	0.833	0.77177	1.3456	86.42	-0.2352	0.0534	0.2886	1530.0929	0.158504	-385.812802	-385.803728	-385.802784	-385.848272	33.348	
C	 0.0580317955	 1.5423576363	-0.0530130099	-0.50302
C	 0.0462928352	 0.0873596652	 0.0013791959	 0.152141
C	 0.0375630372	-1.1173846191	 0.0446941378	 0.007972
C	 0.0562831653	-2.5654018787	 0.0710766437	-0.184087
C	-0.0791622811	-3.3256595078	 1.4414227213	-0.096552
C	-1.5775594846	-2.9167921897	 1.4574510377	-0.243618
C	-1.2966581171	-3.36969656	-0.0036855841	-0.066263
C	-0.5386131268	-4.5680169695	 0.6116346626	 0.118766
O	 0.3621336905	-5.2249992548	-0.2425590791	-0.43456
H	 0.8110532735	 1.9089262292	-0.7596968883	 0.146467
H	-0.9130409859	 1.938215688	-0.3713587104	 0.14573
H	 0.2858249398	 1.9774612655	 0.9267248712	 0.145143
H	 0.8361781477	-2.967385512	-0.5769804805	 0.105444
H	 0.6279064307	-3.2964813	 2.2722897333	 0.070727
H	-2.2541416717	-3.5444758394	 2.0442888264	 0.088034
H	-1.7820461237	-1.8561193969	 1.5973537859	 0.116897
H	-1.9925202645	-3.3904578502	-0.8428026638	 0.078386
H	-1.1658820423	-5.2816897529	 1.1616279128	 0.066601
H	 0.9127582823	-5.8068721732	 0.2902993474	 0.285794
15.5307	92.8011	94.5201	241.2319	259.8217	293.8577	301.2808	362.8072	448.6602	502.4918	519.197	588.3383	767.2495	821.704	826.8675	887.9448	903.267	912.4541	923.8621	1021.5671	1040.0148	1052.1039	1054.9246	1058.665	1104.3269	1109.6801	1155.6543	1185.7053	1196.6684	1198.9457	1214.1226	1246.6931	1252.0145	1312.1127	1372.1441	1414.7578	1432.8633	1478.8152	1478.8343	1512.2462	2362.5504	3017.4086	3023.701	3061.8414	3082.5872	3083.8626	3097.5665	3103.4059	3114.2829	3148.4283	3822.7331
CC#CC1C2CC1C2O	CC#C[C@H]1[C@H]2C[C@@H]1[C@H]2O	
InChI=1S/C8H10O/c1-2-3-5-6-4-7(5)8(6)9/h5-9H,4H2,1H3	InChI=1S/C8H10O/c1-2-3-5-6-4-7(5)8(6)9/h5-9H,4H2,1H3/t5-,6+,7-,8-
