16
gdb 14205	2.76326	2.47422	1.85108	0.872	64.	-0.2158	0.0704	0.2862	787.1794	0.129743	-383.667613	-383.660502	-383.659558	-383.698479	27.733	
C	-0.1385906521	 1.5346117979	-0.0608002541	-0.532906
C	-0.0300888905	 0.0484065258	 0.0214356788	 0.244539
C	 0.0583886113	-1.0695105149	-0.9729085176	-0.037282
O	 1.2177048417	-1.682393199	-0.4109001671	-0.294861
C	 0.8826168562	-0.9711087612	 0.8172451258	 0.020222
C	-0.3893925937	-1.6910745945	 1.3377520351	-0.302001
C	-1.0529018119	-1.076092154	 0.1046654781	 0.286386
O	-2.3933644006	-0.9512026217	-0.1886022634	-0.457564
H	 0.7912874094	 1.9883289984	-0.4204428858	 0.127408
H	-0.9412766293	 1.8146876835	-0.7505468673	 0.136007
H	-0.3755629345	 1.9751262059	 0.9143159689	 0.124742
H	-0.1155823535	-1.1145357263	-2.0410208768	 0.105228
H	 1.7411859851	-0.754608832	 1.4494131686	 0.088244
H	-0.3249466257	-2.7796124038	 1.4378564515	 0.095345
H	-0.7670587833	-1.2353208767	 2.2568542358	 0.106867
H	-2.6927756184	-1.7640743373	-0.6114660505	 0.289626
168.4403	190.32	224.3955	285.6631	358.3623	372.4089	449.4739	554.7165	620.8025	662.6044	744.1392	783.092	822.6041	909.3795	919.4	927.9019	955.0839	1014.8885	1037.5994	1094.0903	1121.3798	1128.4048	1158.8215	1179.6798	1219.5515	1232.6783	1277.2961	1309.2639	1358.7256	1412.4233	1470.6087	1484.5632	1493.5279	1509.5023	3026.1389	3044.2912	3086.4592	3101.4013	3111.602	3143.3997	3196.6467	3788.6778
CC12C3OC1CC23O	C[C@@]12[C@H]3O[C@@H]1C[C@@]23O	
InChI=1S/C6H8O2/c1-5-3-2-6(5,7)4(5)8-3/h3-4,7H,2H2,1H3	InChI=1S/C6H8O2/c1-5-3-2-6(5,7)4(5)8-3/h3-4,7H,2H2,1H3/t3-,4-,5+,6+/m1/s1
