18
gdb 120437	3.97552	0.83043	0.72553	4.0547	75.38	-0.2432	-0.0279	0.2153	1520.1462	0.147939	-439.125272	-439.116311	-439.115367	-439.159729	32.532	
O	-0.0612141867	 1.5005313566	-0.1214327818	-0.417232
C	 0.0394216913	 0.0950691933	 0.0293029174	-0.079631
C	-1.3740509989	-0.4731392345	-0.0229814133	-0.170386
C	-1.415278854	-2.0087544494	 0.0378021359	-0.039903
N	-0.9528498057	-2.5645186177	 1.2959872774	-0.3295
C	-1.8679031312	-3.4128101856	 1.8927713421	 0.39868
O	-1.6937138356	-4.0642073851	 2.9000429549	-0.383127
C	-3.0796865817	-3.3356231805	 1.0207553057	-0.198683
C	-2.8213818323	-2.5589310307	-0.0308486123	-0.069004
H	 0.8181847144	 1.8792460321	-0.0323328561	 0.289015
H	 0.6493454991	-0.3517587622	-0.7745726668	 0.084225
H	 0.5138697276	-0.1689849584	 0.9879444836	 0.088667
H	-1.9614579762	-0.0612874207	 0.8038294775	 0.120891
H	-1.8419554052	-0.1413130216	-0.9573425501	 0.111252
H	-0.824492734	-2.4079295602	-0.8040790155	 0.097787
H	 0.0092595032	-2.5640988212	 1.5897962945	 0.251824
H	-3.9908980323	-3.8657068832	 1.2578388769	 0.124804
H	-3.4897142719	-2.3016800807	-0.8429254701	 0.120321
66.7496	91.5407	119.4608	141.3465	261.3544	274.5352	335.3939	387.7445	421.681	489.7425	556.0538	668.1156	711.5101	766.3525	819.5363	840.7545	913.4071	934.6011	976.1728	999.1408	1041.8215	1067.9063	1089.1589	1120.7162	1137.0902	1206.8846	1228.8163	1235.7995	1288.6765	1312.8183	1327.649	1355.4012	1377.1127	1413.6401	1464.0722	1482.7556	1528.0312	1656.2982	1824.5719	2952.1943	2962.7183	2986.7944	3042.5196	3095.9784	3213.0351	3250.7959	3667.7884	3831.4837
OCCC1NC(=O)C=C1	OCC[C@H]1NC(=O)C=C1	
InChI=1S/C6H9NO2/c8-4-3-5-1-2-6(9)7-5/h1-2,5,8H,3-4H2,(H,7,9)	InChI=1S/C6H9NO2/c8-4-3-5-1-2-6(9)7-5/h1-2,5,8H,3-4H2,(H,7,9)/t5-/m0/s1
