13
gdb 15459	3.82605	1.83887	1.25166	4.1605	70.03	-0.2477	-0.0467	0.201	901.6501	0.095607	-361.479503	-361.472306	-361.471361	-361.511031	26.483	
O	-0.0062834264	-0.0428649551	 0.0035148021	-0.366113
C	 0.0056358727	 1.1657243984	 0.0099025917	 0.33024
N	-1.0849809721	 2.0040390527	 0.0278587664	-0.332957
C	-0.7440833862	 3.4053324176	 0.0310540756	-0.198722
C	 0.7580999459	 3.3661348171	 0.0119548757	-0.216335
C	 1.1999557628	 2.0980674184	-0.0003535511	 0.077816
C	 2.5288292401	 1.6241479048	-0.0196477859	 0.268562
C	 3.6544995089	 1.1983797098	-0.0361188373	-0.407705
H	-2.0235924069	 1.6438325466	 0.0378164005	 0.259132
H	-1.1433032873	 3.9373458642	-0.8455530033	 0.132179
H	-1.1210826133	 3.9279114439	 0.9230390345	 0.132172
H	 1.3647683599	 4.2611558255	 0.0090234016	 0.123936
H	 4.6452091718	 0.8165302462	-0.0506550804	 0.197796
101.4835	138.8614	168.4124	347.9054	395.0065	416.6597	507.4158	525.4667	610.3088	616.14	638.8297	752.0396	792.4837	794.3694	838.6974	960.2041	1012.5932	1074.2251	1152.038	1185.4286	1224.5123	1295.0187	1342.7622	1426.4187	1497.9135	1665.1435	1833.9589	2235.5522	2992.4231	3011.6522	3233.4892	3503.6009	3675.481
O=C1NCC=C1C#C	O=C1NCC=C1C#C	
InChI=1S/C6H5NO/c1-2-5-3-4-7-6(5)8/h1,3H,4H2,(H,7,8)	InChI=1S/C6H5NO/c1-2-5-3-4-7-6(5)8/h1,3H,4H2,(H,7,8)
