21
gdb 84357	2.43806	1.47016	1.20093	2.3316	84.02	-0.2348	-0.0156	0.2192	1164.8715	0.180794	-387.13523	-387.125574	-387.12463	-387.169515	36.33	
C	-0.1967898171	 1.5832531583	 0.0143953073	-0.393125
C	-0.0022762422	 0.0598348863	-0.0407341136	-0.150678
C	 0.7856581124	-0.4643824253	-1.214290143	-0.094839
C	 1.8365960627	-1.1999471587	-0.8499066986	-0.103035
C	 1.9845906792	-1.3395772514	 0.6478099964	 0.120934
C	 1.7809295011	-2.7900740463	 1.1330710771	-0.417244
C	 3.3208163332	-0.7891868068	 1.1809888064	-0.417652
C	 0.8154303461	-0.462981429	 1.1552951925	 0.383825
O	 0.5931747232	-0.2134923109	 2.3127508286	-0.336207
H	 0.7624833191	 2.1040397339	-0.0665157745	 0.120273
H	-0.8380442165	 1.9256598414	-0.8032659664	 0.115624
H	-0.6603965245	 1.8639519181	 0.9637959506	 0.139511
H	-0.9970168782	-0.4089405229	 0.0083711785	 0.107554
H	 0.5046872434	-0.2484437133	-2.2396249996	 0.09793
H	 2.5322238581	-1.6721885605	-1.53638831	 0.095915
H	 2.5939911298	-3.4308340118	 0.7758009082	 0.114272
H	 1.7696983408	-2.8207711136	 2.2267321089	 0.134565
H	 0.8376780559	-3.2068007539	 0.7668553878	 0.117334
H	 3.5041380229	 0.2289390889	 0.8245603634	 0.116984
H	 3.3069447332	-0.7716793262	 2.2746126644	 0.135936
H	 4.1551895874	-1.4181006361	 0.8528979055	 0.112122
42.6999	167.1268	199.0325	210.871	217.3553	238.8915	253.0235	289.4887	326.4041	344.1967	515.5506	535.0951	581.9216	671.7571	695.861	754.5504	788.4833	863.6838	895.2743	947.2557	952.8785	984.9789	1003.6777	1015.9051	1064.9538	1097.945	1100.1216	1145.5589	1164.9103	1237.4318	1255.9325	1282.5006	1307.7699	1376.0533	1387.7079	1402.6551	1417.1955	1481.8246	1485.5913	1494.9342	1499.2484	1500.4151	1509.2446	1677.0651	1839.8968	2991.8481	3030.9072	3034.2035	3039.1426	3101.6365	3104.3226	3109.1664	3113.4107	3117.3317	3123.829	3172.0675	3196.7334
CC1C=CC(C)(C)C1=O	C[C@H]1C=CC(C)(C)C1=O	
InChI=1S/C8H12O/c1-6-4-5-8(2,3)7(6)9/h4-6H,1-3H3	InChI=1S/C8H12O/c1-6-4-5-8(2,3)7(6)9/h4-6H,1-3H3/t6-/m0/s1
