13
gdb 61136	6.26777	0.59466	0.55433	0.9287	77.76	-0.3088	-0.0699	0.2389	1809.6536	0.087826	-415.596187	-415.587009	-415.586065	-415.631218	31.186	
O	-0.0845614553	 1.4394442472	 0.0069681181	-0.388935
C	 0.0065714261	 0.032614705	 0.0080763603	-0.08429
C	 0.6857641254	-0.5214641645	-1.2761842786	-0.356551
C	-0.0099825405	-0.0893131104	-2.4845604375	 0.270054
N	-0.5636372006	 0.2411273978	-3.4425346452	-0.287685
C	 0.7007257402	-0.4781820133	 1.1941676676	 0.065476
C	 1.3052127135	-0.8712566551	 2.163147536	 0.094124
C	 1.9830004894	-1.3179404559	 3.2619179073	 0.212242
N	 2.5628450926	-1.6985172091	 4.1932061622	-0.321057
H	 0.8004058324	 1.811069345	 0.1038612864	 0.299144
H	-1.0302881941	-0.321900824	 0.0264419344	 0.161584
H	 1.7267186259	-0.1812721485	-1.3134657694	 0.162056
H	 0.7062651351	-1.6157751144	-1.2389391616	 0.173838
55.663	64.5598	120.0854	159.1172	227.254	256.456	325.1764	354.7218	394.5427	451.8248	517.311	546.6055	580.9961	592.5575	777.4755	864.2364	958.5824	1005.2647	1083.2508	1155.436	1198.3395	1276.5582	1312.1284	1354.5002	1417.5416	1458.9413	2266.066	2371.2228	2403.0368	3048.7029	3060.1219	3096.267	3796.758
OC(CC#N)C#CC#N	O[C@@H](CC#N)C#CC#N	
InChI=1S/C6H4N2O/c7-4-1-2-6(9)3-5-8/h6,9H,3H2	InChI=1S/C6H4N2O/c7-4-1-2-6(9)3-5-8/h6,9H,3H2/t6-/m1/s1
