15
gdb 43443	3.01664	1.4893	1.08261	3.5103	67.79	-0.2698	-0.0213	0.2485	1067.9516	0.113626	-453.969106	-453.961616	-453.960671	-454.001842	28.036	
N	-0.0448716406	 1.2541284979	 0.123989311	-0.512936
C	-0.0393072816	 0.0028482243	 0.0252235535	 0.41454
C	-1.2581446485	-0.8947014065	-0.0307028368	-0.425281
C	-0.6647564679	-2.2893029791	-0.0038331939	 0.152948
C	-1.2186458481	-3.4426408486	 0.7631070749	-0.268592
N	-1.2303305769	-3.4539243529	-0.6998211722	-0.326135
C	 0.8270264149	-2.1217647547	-0.0952329886	 0.43554
O	 1.6820618774	-2.9461788504	-0.1570936389	-0.316154
O	 1.1125576347	-0.7647863861	-0.0560460493	-0.223122
H	 0.9052988053	 1.628085739	 0.1348300995	 0.23965
H	-1.929066295	-0.6733152325	 0.8018914931	 0.154759
H	-1.8045327242	-0.6959999261	-0.9591513365	 0.153463
H	-0.5288392217	-4.1489113941	 1.2150843612	 0.151618
H	-2.145823461	-3.2733782667	 1.3047814032	 0.12702
H	-2.1560016869	-3.2116820835	-1.0474231502	 0.242683
42.635	138.2728	244.7039	267.4555	342.674	363.4343	488.4774	529.388	595.4525	638.9019	735.0403	744.552	849.4606	874.6668	911.2646	912.3066	959.6955	978.2048	988.1132	1041.5588	1076.0964	1111.4636	1141.4309	1189.6747	1251.6296	1269.3627	1319.1166	1329.0464	1397.5126	1466.7188	1500.0712	1794.6315	1921.6645	3054.9416	3111.1033	3111.7665	3207.5122	3483.3552	3492.5382
N=C1CC2(CN2)C(=O)O1	[NH][C]1C[C@]2(CN2)C(=O)O1	
InChI=1S/C5H6N2O2/c6-3-1-5(2-7-5)4(8)9-3/h6-7H,1-2H2	InChI=1S/C5H6N2O2/c6-3-1-5(2-7-5)4(8)9-3/h6-7H,1-2H2/t5-/m0/s1
