17
gdb 71552	2.44481	1.62197	1.50117	1.688	73.9	-0.2311	-0.0452	0.186	980.1393	0.135252	-417.902102	-417.894132	-417.893187	-417.93468	30.109	
C	 0.0121512339	 1.3951617161	-0.2638916279	-0.53275
C	-0.0118224041	-0.0889964082	-0.0842332295	 0.33379
N	 0.416252548	-1.0836853178	-1.1101383666	-0.375419
C	-0.0468192768	-1.9364947312	 0.0320392747	-0.083204
C	 0.5459420564	-0.950971042	 1.0867324142	-0.055803
N	-0.7075632728	-0.7974323616	 1.8982037695	-0.390865
C	-1.2063011389	-0.9953884048	 0.5032357183	 0.210214
C	-2.6210166849	-0.9359411763	 0.0680167249	 0.018264
O	-3.0037995371	-1.374085565	-0.9925055744	-0.26277
H	 1.0263346143	 1.7260293203	-0.5093704809	 0.140479
H	-0.6534559193	 1.7078390608	-1.0750751062	 0.132327
H	-0.3060266909	 1.8865738309	 0.6600503205	 0.146625
H	-0.2681875331	-1.1224577022	-1.8693667074	 0.225921
H	-0.03096855	-3.0272773464	 0.0161561926	 0.091942
H	 1.548317786	-0.9329470844	 1.5141122028	 0.096195
H	-0.8702657487	-1.6410033277	 2.4547599648	 0.215272
H	-3.3080905221	-0.4136260607	 0.7705647007	 0.08978
82.5762	147.2218	175.7876	222.305	250.9012	331.1993	475.2003	493.9933	503.1299	625.0678	681.9527	707.844	788.5105	814.5724	863.8894	912.8295	936.1098	955.0878	1022.0699	1044.3764	1054.6443	1089.4632	1102.0433	1131.0919	1184.2498	1187.6384	1237.7189	1271.2716	1292.8621	1298.3061	1323.7856	1365.99	1409.1123	1413.6005	1482.0771	1487.8051	1794.0552	2885.2798	3037.3503	3105.8149	3108.9403	3121.3064	3126.5734	3402.616	3420.3277
CC12NC3C1NC23C=O	C[C@@]12N[C@H]3[C@@H]1N[C@@]23C=O	
InChI=1S/C6H8N2O/c1-5-3-4(7-5)6(5,2-9)8-3/h2-4,7-8H,1H3	InChI=1S/C6H8N2O/c1-5-3-4(7-5)6(5,2-9)8-3/h2-4,7-8H,1H3/t3-,4-,5+,6+/m0/s1
