25
gdb 77693	2.44295	1.29642	1.14287	0.1803	92.94	-0.2565	0.0813	0.3378	1275.6478	0.227387	-352.346149	-352.336109	-352.335165	-352.38025	39.644	
C	-0.7863946297	 0.9765893935	 0.0652427359	-0.422502
C	-0.0861602326	-0.371020601	-0.035315724	-0.06687
C	 0.8336807328	-0.6797259587	-1.2284898265	 0.380671
C	 0.4620774252	-1.0159030264	-2.6392106597	-0.339739
C	 1.2028712028	 0.2682468725	-2.3351870956	-0.318212
C	 1.8274269779	-1.3939190382	-0.3077018122	-0.348902
C	 1.1170239194	-0.7292388766	 0.9196965608	 0.341658
C	 1.8901536665	 0.4938429502	 1.4183073978	-0.441922
C	 0.774050351	-1.6611263089	 2.0783411985	-0.456742
H	-0.0861116737	 1.8119549696	-0.0258187856	 0.116829
H	-1.5367402022	 1.0860582504	-0.7265564525	 0.111271
H	-1.3094413623	 1.0794324897	 1.022613237	 0.11236
H	-0.8386899973	-1.1662155096	 0.0496728226	 0.063462
H	 1.0028494418	-1.8155492367	-3.1363303032	 0.106951
H	-0.5826487839	-0.9422998371	-2.9272350487	 0.106023
H	 0.6565582332	 1.2018904805	-2.4250329968	 0.108834
H	 2.2480627908	 0.3365875508	-2.6213573862	 0.106402
H	 1.7059066297	-2.4827116302	-0.3188716204	 0.090355
H	 2.8884854485	-1.1598753102	-0.4408298248	 0.090369
H	 2.1715217865	 1.1592428578	 0.5963746711	 0.117342
H	 1.30344123	 1.0762452135	 2.1375630118	 0.109075
H	 2.8127792163	 0.1803940813	 1.9203260343	 0.107927
H	 1.6791251936	-1.9979570813	 2.597973545	 0.109096
H	 0.1384312357	-1.1584945062	 2.8174861531	 0.109065
H	 0.2398668702	-2.5508449187	 1.7279139383	 0.107198
59.7143	196.1555	209.4183	224.9462	231.2477	248.3379	254.1187	298.7804	325.9451	339.5059	386.9848	458.6038	504.7463	532.6154	694.3657	738.4327	778.8269	829.6906	856.4604	898.3873	909.1472	936.9929	951.6978	967.7719	979.3687	1018.3986	1044.5864	1057.5004	1074.6288	1078.9641	1110.4487	1146.7091	1187.9367	1191.0262	1210.2114	1228.3662	1263.2471	1282.2216	1313.5177	1367.6822	1386.0146	1399.9271	1405.6679	1418.795	1463.6759	1482.342	1484.0263	1489.1938	1495.3504	1497.5207	1505.2419	1506.9478	1511.4328	3008.5695	3015.4735	3023.9139	3027.8146	3033.6604	3078.0643	3081.6331	3083.8013	3088.102	3090.0072	3100.8145	3108.0044	3115.548	3121.4598	3192.4185	3208.4427
CC1C2(CC2)CC1(C)C	C[C@H]1C2(CC2)CC1(C)C	
InChI=1S/C9H16/c1-7-8(2,3)6-9(7)4-5-9/h7H,4-6H2,1-3H3	InChI=1S/C9H16/c1-7-8(2,3)6-9(7)4-5-9/h7H,4-6H2,1-3H3/t7-/m1/s1
