15
gdb 15597	3.57747	1.78348	1.39899	4.28	61.04	-0.2725	0.0231	0.2956	876.3661	0.120091	-399.808016	-399.800663	-399.799719	-399.840083	26.757	
O	-0.0034906345	 1.4987435407	 0.3308126497	-0.414874
C	 0.0206981664	 0.1279727187	 0.0217551958	 0.136334
C	 0.7113775115	-0.6887685532	 1.1169629176	-0.123207
O	-0.2753689689	-0.7505675912	 2.1403065094	-0.250423
C	-1.4957591558	-1.1006268975	 1.5009381676	-0.096022
C	-1.4017615269	-0.5330241916	 0.0414319457	-0.233001
C	-2.4794009809	 0.3846399146	-0.2982920004	 0.283823
N	-3.3581339139	 1.0907190674	-0.5528177193	-0.321525
H	-0.2818186319	 1.587445528	 1.2510894955	 0.293958
H	 0.4894525375	 0.0371653629	-0.9600006212	 0.108155
H	 0.9862590239	-1.6953024245	 0.7616013415	 0.097987
H	 1.5956519229	-0.189341181	 1.5166141865	 0.131576
H	-1.6162479372	-2.1918047832	 1.4676128944	 0.112864
H	-2.3192521796	-0.672416808	 2.0748962865	 0.140977
H	-1.4204386226	-1.3586104022	-0.6765061894	 0.133381
58.2988	153.9078	199.3397	235.2506	366.3725	407.8263	425.3549	507.2295	571.4267	724.2265	762.9056	812.3205	884.664	927.0405	941.7895	1003.9038	1038.43	1068.1076	1115.4517	1133.1087	1210.038	1230.5859	1255.6778	1271.8734	1313.408	1347.519	1353.7772	1392.9083	1434.4172	1498.5177	1519.3319	2361.3939	2977.4421	3012.554	3066.865	3106.3476	3118.086	3123.274	3782.6828
OC1COCC1C#N	O[C@H]1COC[C@H]1C#N	
InChI=1S/C5H7NO2/c6-1-4-2-8-3-5(4)7/h4-5,7H,2-3H2	InChI=1S/C5H7NO2/c6-1-4-2-8-3-5(4)7/h4-5,7H,2-3H2/t4-,5+/m1/s1
