17
gdb 88354	2.1482	1.31574	0.89739	4.6693	78.53	-0.2686	0.0155	0.2841	1292.3502	0.13423	-380.818601	-380.809108	-380.808164	-380.853545	34.052	
C	-1.085453122	 0.6989558837	 0.7929179897	-0.400865
C	-0.0664343424	-0.2339366807	 0.1838630457	 0.002687
N	 1.0482389465	 0.3674990431	-0.56885928	-0.33365
C	 1.3373396462	-0.3850645528	 0.6507320784	-0.017323
C	 1.9229454883	 0.4266059968	 1.8135572933	-0.331862
C	 1.6248296461	-0.1875750331	 3.1090965122	 0.334344
C	 1.3568222121	-0.7053981519	 4.1579914878	-0.430395
C	 3.3760711775	 0.5865386905	 1.6254361822	 0.293326
N	 4.5128333959	 0.699260614	 1.4562592943	-0.319671
H	-0.6286522854	 1.6326674893	 1.1284122483	 0.12848
H	-1.8496560214	 0.9572248659	 0.052817073	 0.128095
H	-1.5835158549	 0.2268878906	 1.6457084472	 0.130384
H	-0.4951491656	-1.1476721036	-0.2267076352	 0.093318
H	 1.285490837	-0.1701067401	-1.3970947076	 0.241842
H	 1.7837593205	-1.372704816	 0.5616033048	 0.110087
H	 1.4859907479	 1.4310188481	 1.7748209507	 0.16106
H	 1.1275346339	-1.1572826337	 5.0916725452	 0.210143
46.1147	104.9127	127.471	157.1181	167.479	230.3652	331.6644	362.9465	420.175	439.713	520.6517	558.0896	580.6328	651.9167	665.9562	789.6438	847.9554	884.1827	937.8994	978.1153	1016.2846	1031.0013	1056.499	1088.613	1153.4407	1194.9961	1244.5489	1264.7345	1274.0492	1303.8097	1396.8857	1421.145	1463.5443	1488.5954	1502.618	2249.0061	2365.799	3042.4353	3052.9962	3104.8025	3107.855	3130.6763	3139.2221	3502.2188	3521.4699
CC1NC1C(C#C)C#N	C[C@H]1N[C@H]1[C@@H](C#C)C#N	
InChI=1S/C7H8N2/c1-3-6(4-8)7-5(2)9-7/h1,5-7,9H,2H3	InChI=1S/C7H8N2/c1-3-6(4-8)7-5(2)9-7/h1,5-7,9H,2H3/t5-,6+,7-/m1/s1
