23
gdb 118233	4.986	0.59718	0.55654	1.1376	82.98	-0.2631	0.0781	0.3412	1991.5845	0.203612	-425.40097	-425.390167	-425.389223	-425.4379	38.434	
C	 0.038597169	 1.5808596048	-0.103643628	-0.393952
C	 0.0060776046	 0.0469690399	-0.0074549387	 0.018057
C	-1.4263813294	-0.5061346162	 0.0844305354	-0.168622
C	-2.2094267428	-0.053851733	 1.3116399723	-0.08711
O	-3.4374084608	-0.7698017534	 1.3214071814	-0.421462
C	 0.7434069231	-0.609586164	-1.1926736283	-0.220088
C	 2.2313185971	-0.3550134872	-1.2147009061	 0.089615
C	 3.0089290738	-0.3338045818	-2.4598517642	-0.183401
O	 2.689793716	 0.8800418076	-1.7787483369	-0.231266
H	 1.0583837854	 1.9514616154	-0.2274900398	 0.141844
H	-0.542189574	 1.9249445843	-0.9680737952	 0.112308
H	-0.38450313	 2.0499478771	 0.7896343024	 0.108499
H	 0.5370350133	-0.2485348045	 0.9109081003	 0.068481
H	-1.9914886752	-0.2282371429	-0.8149584843	 0.100828
H	-1.3957468086	-1.6025211891	 0.1045606916	 0.100597
H	-1.6220890531	-0.2604849167	 2.2225590634	 0.081336
H	-2.3890134939	 1.030915673	 1.2791160494	 0.088899
H	-3.9650273018	-0.4496489354	 2.0586956869	 0.284411
H	 0.5891878669	-1.6965463002	-1.1521841573	 0.09846
H	 0.311250732	-0.2620349685	-2.1396514654	 0.100822
H	 2.7618448009	-0.6356085719	-0.3015652396	 0.087465
H	 4.061476937	-0.6140056493	-2.4503346568	 0.112172
H	 2.4994388505	-0.482699708	-3.4114378027	 0.112108
49.6151	67.9334	87.4853	115.8909	127.381	227.0927	243.2583	268.6543	286.3581	334.9277	372.0272	431.2973	460.5626	546.5759	788.6814	791.806	851.6694	859.0155	909.8068	941.0947	970.3215	979.3216	1027.5874	1059.1258	1068.2334	1086.8269	1126.1742	1154.6233	1160.0504	1176.328	1184.7335	1226.9413	1241.9506	1267.5264	1294.8238	1302.0517	1315.6225	1345.8212	1374.8179	1382.5729	1420.1924	1447.5875	1460.6984	1466.4505	1488.9433	1501.6244	1505.9669	1528.5284	1531.1674	2956.2482	2982.6997	2999.5982	3012.6912	3022.3997	3034.1069	3056.0403	3066.1631	3079.3183	3085.2239	3097.563	3129.9735	3165.3266	3830.1223
CC(CCO)CC1CO1	C[C@@H](CCO)C[C@H]1CO1	
InChI=1S/C7H14O2/c1-6(2-3-8)4-7-5-9-7/h6-8H,2-5H2,1H3	InChI=1S/C7H14O2/c1-6(2-3-8)4-7-5-9-7/h6-8H,2-5H2,1H3/t6-,7-/m0/s1
