16
gdb 11269	4.15023	1.50686	1.23327	2.731	67.85	-0.2318	-0.0673	0.1646	985.11	0.131321	-379.949094	-379.941507	-379.940563	-379.981136	27.757	
C	 0.4257565447	 1.5488906605	 0.0341699971	-0.397646
C	 0.0227609236	 0.0739098778	 0.0970805554	 0.022213
C	 0.4340573481	-0.7371468799	-1.1726354908	-0.17869
N	 1.6626858441	-1.4696322348	-0.8186292072	-0.282606
C	 1.7627237547	-1.3629105895	 0.4574300376	 0.270566
N	 0.7714630858	-0.675324836	 1.1212542672	-0.340258
C	 2.8998623961	-1.9540128806	 1.2073079883	 0.111709
O	 3.0574220955	-1.7891839727	 2.3935317774	-0.264304
H	 1.4923141576	 1.6513629994	-0.1921900206	 0.129901
H	-0.1409595024	 2.0653188401	-0.7476772529	 0.124044
H	 0.2247530496	 2.0572284025	 0.9832580095	 0.118213
H	-1.0518857075	-0.0057598944	 0.2872058487	 0.088867
H	-0.3386593664	-1.4650598989	-1.4513300249	 0.121162
H	 0.6054771724	-0.0969498762	-2.0440485005	 0.115451
H	 1.0052654282	-0.248919753	 2.0067949541	 0.251766
H	 3.5959648159	-2.5385457341	 0.5765742315	 0.109613
96.0088	122.8402	196.7882	257.7541	289.6188	347.484	410.3356	493.9739	570.6336	630.2165	742.4385	752.9373	830.4993	923.4057	948.479	984.205	1009.5552	1031.0559	1060.1389	1119.903	1133.769	1226.8911	1261.4366	1296.5724	1330.125	1383.8239	1386.6657	1407.2074	1473.512	1486.3701	1495.8258	1496.5082	1674.5178	1803.1045	2966.6869	3023.8323	3030.4897	3054.9135	3074.6373	3101.9473	3109.1093	3606.8534
CC1CN=C(N1)C=O	C[C@H]1C[N][C](N1)C=O	
InChI=1S/C5H8N2O/c1-4-2-6-5(3-8)7-4/h3-4H,2H2,1H3,(H,6,7)	InChI=1S/C5H8N2O/c1-4-2-6-5(3-8)7-4/h3-4H,2H2,1H3,(H,6,7)/t4-/m0/s1
