14
gdb 28138	5.3418	1.33557	1.06952	1.1217	71.48	-0.1745	0.0294	0.2039	1042.4718	0.104596	-432.909306	-432.902396	-432.901452	-432.940289	27.296	
N	 0.0439225438	 1.3181436323	 0.1514874668	-0.588971
C	-0.0539961347	-0.0463157487	 0.0507454452	 0.424495
N	-1.1466127894	-0.7601199242	 0.0260279946	-0.435026
C	-0.6315343094	-2.0432005638	 0.0125925816	 0.318042
C	 0.7350008787	-2.0474134258	 0.0179776479	 0.292247
O	 1.1373589144	-0.7234106049	 0.0446742005	-0.243941
C	 1.2172817581	-3.3732294953	-0.0204502946	-0.330986
C	 0.0684861297	-4.1502684096	-0.0441242382	-0.070451
N	-1.0597782116	-3.3380679463	-0.0256305394	-0.391495
H	 0.8728698534	 1.7105708875	-0.2710576239	 0.265111
H	-0.8069296481	 1.7924134313	-0.1126574633	 0.270406
H	 2.2299374467	-3.7409785296	-0.0261878164	 0.105522
H	-0.0344227372	-5.2224841719	-0.0667027877	 0.11862
H	-2.0110439544	-3.6598200209	-0.0336837129	 0.266427
138.6334	263.8031	298.8207	336.1575	339.0358	412.6173	543.8204	583.2657	608.956	616.3582	643.773	730.2316	751.9119	767.8752	790.0958	837.5479	941.3423	954.8099	1056.9227	1094.9965	1121.2295	1181.1072	1272.502	1352.1621	1391.5261	1476.3494	1485.3145	1559.3881	1595.115	1603.0009	1674.6451	3262.4716	3280.0301	3572.5061	3682.3941	3691.7831
NC1=NC2=C(O1)C=CN2	Nc1nc2c(o1)cc[nH]2	
InChI=1S/C5H5N3O/c6-5-8-4-3(9-5)1-2-7-4/h1-2,7H,(H2,6,8)	InChI=1S/C5H5N3O/c6-5-8-4-3(9-5)1-2-7-4/h1-2,7H,(H2,6,8)
