16
gdb 15075	3.11418	1.61346	1.1953	2.5781	61.4	-0.2503	-0.035	0.2152	1012.6796	0.12728	-420.839049	-420.830436	-420.829492	-420.872717	29.522	
C	 0.6744305712	 1.162515378	-0.70268309	-0.243528
O	 0.4704648879	-0.0998716073	-0.0978921163	-0.245877
C	-0.8529152298	-0.3045570388	 0.3470724177	 0.016257
C	-1.7853989819	-0.6123878317	-0.8316945224	 0.132243
O	-2.9766839391	-0.4494291705	-0.8066310625	-0.243268
C	-0.8362526766	-1.4818897138	 1.3046849082	 0.052033
C	-2.0640432948	-2.1653670818	 1.7202037403	-0.185691
O	-1.180885429	-2.7596071971	 0.7624146846	-0.227658
H	 1.72470736	 1.2101851381	-0.997270105	 0.138635
H	 0.050414981	 1.3032071441	-1.5976828959	 0.115947
H	 0.4593465341	 1.9824778457	-0.0009950903	 0.114685
H	-1.2360815967	 0.5850638779	 0.8733225088	 0.095821
H	-1.2521033613	-1.0148966392	-1.719671943	 0.104514
H	 0.0300595314	-1.483909603	 1.9654674529	 0.110739
H	-2.0941111298	-2.6556159097	 2.6914076579	 0.122613
H	-3.0204879867	-1.8314777511	 1.3235434548	 0.142535
86.25	91.8946	120.8413	175.7308	205.4615	227.2959	314.8246	381.0407	403.2393	542.9796	583.0484	806.8622	861.113	934.7896	963.8264	1027.115	1038.2181	1102.7621	1115.7404	1147.1237	1166.9319	1171.2807	1182.5235	1224.5383	1267.4483	1313.6651	1339.8253	1379.7546	1422.7777	1479.8826	1490.2391	1506.9592	1523.9158	1833.0961	2908.0515	2976.5991	2983.8844	3031.575	3095.7675	3123.5434	3126.8937	3189.9463
COC(C=O)C1CO1	CO[C@@H](C=O)[C@H]1CO1	
InChI=1S/C5H8O3/c1-7-4(2-6)5-3-8-5/h2,4-5H,3H2,1H3	InChI=1S/C5H8O3/c1-7-4(2-6)5-3-8-5/h2,4-5H,3H2,1H3/t4-,5+/m0/s1
