22
gdb 60592	2.9774	1.09781	0.85686	1.9056	82.22	-0.2374	0.0779	0.3153	1386.3244	0.19376	-404.291866	-404.282514	-404.28157	-404.326536	34.504	
C	-0.2049667636	 1.4517179422	 0.216947464	-0.394286
C	-0.0083266959	-0.04605055	-0.0324109922	 0.017286
C	 0.8117988823	-0.2871296213	-1.2962084621	 0.004009
C	 0.8640482164	-1.699012355	-1.9246303802	-0.097268
O	 0.456401837	-1.1887794933	-3.2104674042	-0.273926
C	 0.1988358287	 0.1162804933	-2.656044231	-0.095255
N	 0.6926441375	-0.630708125	 1.11372802	-0.06137
C	-0.1080392147	-0.9205610374	 2.2969996704	-0.225553
C	 0.408237752	-2.0242825081	 1.4424600055	-0.224121
H	 0.7628388562	 1.9440574864	 0.3540788952	 0.126206
H	-0.7216652401	 1.925007363	-0.6234535178	 0.117676
H	-0.8017887123	 1.621957783	 1.1177823423	 0.116742
H	-1.0031878662	-0.5159267296	-0.1651588679	 0.053374
H	 1.81132032	 0.1302548227	-1.1494274702	 0.089186
H	 1.8440247824	-2.1872062572	-1.9665795141	 0.104897
H	 0.1299178032	-2.4108100002	-1.5223657954	 0.091334
H	-0.8781586861	 0.3383781492	-2.6212988939	 0.092248
H	 0.7046303566	 0.9109706987	-3.2161676557	 0.103278
H	 0.3554090752	-0.6928671513	 3.2526317765	 0.117142
H	-1.1786542368	-0.7245449502	 2.2514850276	 0.109398
H	-0.3237393704	-2.5573073877	 0.8382677006	 0.111688
H	 1.2591413586	-2.6213505122	 1.7578176627	 0.117316
74.3819	89.4379	110.7926	150.955	217.6488	246.9841	266.9536	354.8009	392.2168	415.6961	519.6534	734.6961	762.491	835.803	872.4039	895.7199	907.7424	952.9355	979.6236	995.8375	1017.2307	1028.8768	1040.6561	1089.6163	1098.7587	1112.2259	1121.3843	1134.4104	1164.3555	1167.0687	1175.0262	1193.522	1222.0894	1269.1198	1302.4232	1311.5934	1317.3883	1359.9614	1376.6411	1405.1692	1410.1885	1488.2262	1492.3122	1499.3419	1510.0453	1520.707	1536.6522	2899.7892	2987.8905	3006.1142	3039.3377	3050.7424	3057.0308	3082.6802	3091.711	3100.4364	3111.6868	3114.2852	3176.1801	3190.9586
CC(C1COC1)N1CC1	C[C@@H](C1COC1)N1CC1	
InChI=1S/C7H13NO/c1-6(8-2-3-8)7-4-9-5-7/h6-7H,2-5H2,1H3	InChI=1S/C7H13NO/c1-6(8-2-3-8)7-4-9-5-7/h6-7H,2-5H2,1H3/t6-/m0/s1
