19
gdb 91877	2.38448	1.62262	1.05294	4.2192	76.18	-0.2316	0.0167	0.2483	1152.3135	0.161793	-419.228489	-419.220369	-419.219425	-419.261217	31.51	
C	 0.1416056543	 1.5693907103	 0.0076343794	-0.410004
C	 0.0232877425	 0.0469386526	-0.0094289933	 0.054426
C	 0.5318221151	-0.5543748374	-1.3269829955	-0.191343
C	 0.6617626048	-2.0711133321	-1.2529197732	-0.069991
N	 2.0006214069	-2.5633603681	-0.8984059561	-0.323199
C	 0.8945540627	-2.6976995553	 0.0770277728	-0.137085
C	 1.0216825105	-1.8441072147	 1.3122169006	 0.430222
O	 1.3374281479	-2.3092035711	 2.3911571675	-0.380579
N	 0.776355882	-0.5110231717	 1.1182776463	-0.327081
H	 1.1876565303	 1.8757399045	-0.0935617424	 0.132226
H	-0.4290852411	 2.005438236	-0.8174285233	 0.124267
H	-0.2507331578	 1.9870337297	 0.9412258644	 0.118358
H	-1.0420070829	-0.2162460863	 0.0976101323	 0.08114
H	-0.1555513073	-0.2693720487	-2.1299759406	 0.100772
H	 1.5142363927	-0.1316318198	-1.5614609654	 0.120635
H	 0.0886511572	-2.6469798082	-1.9750492013	 0.09094
H	 2.1736013153	-3.4694863502	-1.3268734094	 0.237399
H	 0.5156737599	-3.6932495973	 0.2849467891	 0.1084
H	 0.8008948369	 0.0292009577	 1.9726509981	 0.240497
85.4924	122.9728	220.9903	247.9342	282.1219	395.3807	432.2434	444.115	455.5184	535.9671	586.8277	662.935	752.2932	815.6762	821.4721	884.3906	897.3461	926.6677	943.9875	990.8084	1002.9701	1052.7858	1103.1346	1132.0208	1168.0103	1189.1648	1206.459	1251.2375	1259.491	1318.5095	1338.0796	1371.3638	1388.2156	1410.4777	1414.6561	1440.8258	1454.9757	1474.0252	1495.8183	1500.2992	1795.6342	2957.8585	3034.34	3045.6656	3092.6045	3103.3983	3117.2207	3137.3836	3167.0206	3498.9425	3591.0869
CC1CC2NC2C(=O)N1	C[C@H]1C[C@H]2N[C@H]2C(=O)N1	
InChI=1S/C6H10N2O/c1-3-2-4-5(8-4)6(9)7-3/h3-5,8H,2H2,1H3,(H,7,9)	InChI=1S/C6H10N2O/c1-3-2-4-5(8-4)6(9)7-3/h3-5,8H,2H2,1H3,(H,7,9)/t3-,4+,5+/m0/s1
