19
gdb 82846	3.13224	1.75124	1.74122	1.9833	73.08	-0.2453	0.0881	0.3334	903.4542	0.162218	-423.030355	-423.023653	-423.022709	-423.061151	27.974	
C	-0.0595798654	 1.5946047	 0.00109223	-0.416342
C	 0.0702332485	 0.0828369592	 0.0243161519	 0.016341
C	 1.1517985234	-0.623189323	-0.8371155248	 0.072959
O	 2.4092952808	 0.0672738297	-0.7020573681	-0.275003
C	 2.8873194941	-0.3348600953	 0.5754305101	 0.185395
C	 2.7438749831	-1.8612227343	 0.5451090069	-0.250281
C	 1.2560001386	-1.7494826657	 0.2538784706	-0.100324
C	 0.7473255549	-0.6261917587	 1.2281160779	 0.072964
O	 1.9624866165	 0.0639486661	 1.5793391553	-0.275004
H	 0.9077527728	 2.0625014116	 0.1909506471	 0.138815
H	-0.4247632043	 1.9411582231	-0.9717044382	 0.110574
H	-0.7645309308	 1.9386667072	 0.7655908244	 0.110579
H	-0.8942482287	-0.4056726178	-0.1652847225	 0.069008
H	 0.9769376323	-0.8395868607	-1.8922586274	 0.073263
H	 3.8539054504	 0.127534268	 0.7654084831	 0.091816
H	 3.3221424429	-2.3218001033	-0.2581869669	 0.110543
H	 2.9766551425	-2.3243779412	 1.5058945379	 0.110542
H	 0.6427140837	-2.6378364149	 0.1324744602	 0.080894
H	 0.1874653147	-0.84545016	 2.1387282223	 0.073262
162.0883	196.2914	219.1266	448.5446	473.2177	476.9694	586.9567	600.0094	667.6085	777.8304	825.0276	838.9872	844.8659	859.3955	900.9105	925.2418	927.9567	950.87	980.929	1007.4536	1014.3126	1061.0272	1084.8333	1109.3758	1124.4572	1136.9263	1157.5887	1215.5414	1222.1346	1255.1372	1257.8967	1290.3765	1300.2769	1302.6115	1360.9032	1371.0415	1375.7491	1406.1658	1475.3849	1489.5627	1497.5491	3028.2147	3037.9282	3077.3838	3094.3877	3095.95	3097.5347	3137.9571	3140.0774	3153.6184	3163.1857
CC1C2OC3CC2C1O3	C[C@H]1[C@H]2O[C@@H]3C[C@H]2[C@H]1O3	
InChI=1S/C7H10O2/c1-3-6-4-2-5(8-6)9-7(3)4/h3-7H,2H2,1H3	InChI=1S/C7H10O2/c1-3-6-4-2-5(8-6)9-7(3)4/h3-7H,2H2,1H3/t3-,4+,5-,6+,7-
