17
gdb 93194	2.87228	1.3423	0.95254	5.9656	69.44	-0.2552	-0.0766	0.1786	1201.3444	0.135444	-459.015424	-459.006947	-459.006003	-459.049267	30.977	
C	-0.2130157589	 1.5018314213	-0.0267534771	-0.404745
C	 0.0067360966	-0.0125277353	-0.0731473955	-0.033504
C	 1.0272963267	-0.3890127758	-1.1399488419	-0.064989
O	 1.1990214035	-1.8093870854	-1.2852421209	-0.227618
C	 1.1938147664	-2.6411373354	-0.2197164975	 0.323035
O	 1.4290466821	-3.805412446	-0.3581072828	-0.287323
C	 0.8277037183	-2.0496828221	 1.1790140148	 0.263998
O	 0.8184307714	-2.7901465994	 2.1246918662	-0.256361
C	 0.4979827425	-0.5726335712	 1.2660586967	-0.316577
H	 0.7195126467	 2.0297490748	 0.2034027484	 0.124284
H	-0.5873297721	 1.8787884949	-0.9835426255	 0.126255
H	-0.9421340264	 1.7638483725	 0.7454319102	 0.130775
H	-0.94193263	-0.5006118536	-0.3348822769	 0.101733
H	 0.7210652526	-0.0431788482	-2.1300520691	 0.130958
H	 2.0030439477	 0.0622828427	-0.9121003427	 0.116315
H	 1.4249480875	-0.0544940854	 1.5569270231	 0.136039
H	-0.2135781546	-0.4237178184	 2.0834417204	 0.137725
42.2271	93.9003	205.7739	218.3003	271.3836	344.4074	391.7138	409.6193	415.5545	455.099	588.3081	596.3128	703.1525	742.8915	875.0045	893.2506	955.5581	968.1317	1057.9985	1068.2457	1104.2356	1143.3051	1175.264	1193.7065	1247.2496	1292.8302	1298.0102	1351.7179	1380.9133	1411.2838	1427.1006	1451.9219	1496.9692	1498.5901	1515.5534	1832.863	1850.7532	3001.5184	3011.7927	3026.2494	3034.8254	3091.6377	3099.6981	3105.2937	3112.9576
CC1COC(=O)C(=O)C1	C[C@H]1COC(=O)C(=O)C1	
InChI=1S/C6H8O3/c1-4-2-5(7)6(8)9-3-4/h4H,2-3H2,1H3	InChI=1S/C6H8O3/c1-4-2-5(7)6(8)9-3-4/h4H,2-3H2,1H3/t4-/m1/s1
