19
gdb 39891	2.77372	1.81455	1.60547	1.4999	78.81	-0.2335	0.0097	0.2432	934.817	0.161507	-385.86627	-385.859373	-385.858428	-385.897091	29.069	
C	-0.0341213354	 1.4737001948	 0.0029430468	-0.351137
C	 1.2979022487	 0.7376929329	-0.0005498481	-0.361164
C	 0.013667119	-0.0184282844	 0.0057737505	 0.458218
C	-0.5016146114	-0.9454541908	 1.1171734763	-0.197738
C	-1.9994094461	-0.9813781825	 0.6745800366	-0.066787
O	-1.9401877648	-0.9787648782	-0.7580159358	-0.281587
C	-0.5197250967	-0.9229877001	-1.0939235506	-0.028618
C	 0.0800420965	-2.2605286472	-0.6848231863	-0.072879
C	 0.0851288605	-2.2697066109	 0.6538036493	-0.080327
H	-0.3285909482	 1.9828757118	 0.9158082015	 0.110448
H	-0.3429667917	 1.9804224232	-0.9058458596	 0.116273
H	 1.8844655187	 0.7529891196	-0.9137496715	 0.113494
H	 1.893075332	 0.7550882544	 0.9068984002	 0.111641
H	-0.3343688038	-0.6497415554	 2.1526086649	 0.067455
H	-2.5239639075	-1.8761867879	 1.0285547259	 0.095136
H	-2.5357181515	-0.0884930347	 1.0195127709	 0.097784
H	-0.428574413	-0.6063229668	-2.1317907681	 0.071636
H	 0.3237466574	-3.0713365719	-1.3586648801	 0.10011
H	 0.3386261472	-3.093554276	 1.3091452671	 0.098042
173.3639	241.3492	257.7537	308.2626	374.9337	505.9484	529.288	591.9	700.5719	744.1183	767.1633	794.7013	851.226	873.9886	895.4033	916.3367	938.512	945.8507	959.7768	959.9315	973.1585	992.843	1025.4437	1052.2685	1061.0906	1079.0009	1125.7669	1176.3437	1180.3333	1212.0181	1226.9925	1250.5197	1271.4593	1280.6533	1338.0617	1361.4829	1412.3745	1465.4827	1511.6948	1517.8953	1632.1079	3016.6244	3061.0478	3120.2738	3120.9344	3125.0318	3134.7962	3197.745	3200.6976	3211.8884	3227.1401
C1CC11C2COC1C=C2	C1CC21[C@H]1CO[C@@H]2C=C1	
InChI=1S/C8H10O/c1-2-7-8(3-4-8)6(1)5-9-7/h1-2,6-7H,3-5H2	InChI=1S/C8H10O/c1-2-7-8(3-4-8)6(1)5-9-7/h1-2,6-7H,3-5H2/t6-,7-/m1/s1
