17
gdb 36587	2.57926	1.16543	0.99064	4.4368	78.13	-0.2435	0.0192	0.2627	1242.356	0.13446	-380.816922	-380.807658	-380.806714	-380.851687	34.041	
C	 0.2966489626	-0.2805225545	 1.349543219	-0.463007
C	 0.104154824	 0.4577909456	 0.4197348903	 0.318532
C	-0.0985052258	 1.3312275761	-0.7431866499	-0.335584
N	 1.0315060094	 2.1939215186	-1.1051692414	-0.33597
C	 1.2852608239	 3.3105853649	-0.2310372447	 0.185621
C	 1.9372839098	 3.1665651811	 1.147673736	-0.288191
C	 2.7161877038	 3.7446830833	 0.0012425544	-0.314321
C	 0.2958475624	 4.3603393304	-0.3632261493	 0.285909
N	-0.5096407697	 5.1861783351	-0.4478511108	-0.349413
H	 0.4505140141	-0.9283210656	 2.1771510673	 0.203885
H	-0.3367639663	 0.7128935802	-1.6163117526	 0.142381
H	-0.9710254902	 1.9741135269	-0.5796781165	 0.162469
H	 1.8738755912	 1.647860201	-1.2374585839	 0.232267
H	 1.6098392235	 3.8321709419	 1.9376643868	 0.139404
H	 2.150784619	 2.1518086655	 1.4580055808	 0.141415
H	 3.4822591761	 3.1344983409	-0.466389328	 0.128702
H	 2.9258052922	 4.8072504885	-0.0068722775	 0.145902
31.2387	96.4994	146.1204	206.9711	216.5324	249.9236	330.936	368.959	400.9431	558.4675	573.0848	606.2407	624.0055	650.7593	664.3654	702.341	774.9326	878.6072	907.8121	924.0519	952.4011	979.2084	1038.0248	1059.3948	1090.4397	1106.2365	1191.5603	1242.9208	1283.7566	1342.2242	1368.516	1464.8766	1466.5184	1494.3402	1500.0501	2226.6507	2351.7261	3038.7832	3074.4414	3140.7135	3153.0994	3229.229	3250.6601	3502.0264	3560.6036
C#CCNC1(CC1)C#N	C#CCNC1(CC1)C#N	
InChI=1S/C7H8N2/c1-2-5-9-7(6-8)3-4-7/h1,9H,3-5H2	InChI=1S/C7H8N2/c1-2-5-9-7(6-8)3-4-7/h1,9H,3-5H2
