18
gdb 69346	2.63742	1.48075	1.15886	4.0906	76.47	-0.2571	0.0127	0.2697	1114.9873	0.145537	-401.930208	-401.921355	-401.92041	-401.963285	33.55	
C	 0.1444063035	 1.4960457355	-0.0241020722	-0.491128
C	 0.0549498141	 0.0105082856	 0.0779330133	 0.473075
C	-0.9415851554	-0.8094904087	 0.8306544604	-0.357719
C	 0.5422414028	-1.0218169864	 1.0723690316	-0.204121
C	 1.1630973619	-1.7267972727	-0.144237809	 0.238196
C	 0.808719778	-3.1698410324	-0.4721212496	-0.446838
O	 0.5432796963	-0.7623725627	-1.0433701656	-0.346217
C	 2.6257795098	-1.5349695132	-0.1653885578	 0.277268
N	 3.7728964148	-1.3958203117	-0.1636354376	-0.338462
H	 1.1694374372	 1.8121829223	-0.2379227659	 0.143363
H	-0.5027508016	 1.8623886114	-0.8286740918	 0.138249
H	-0.1811530912	 1.9617090271	 0.9102778781	 0.128474
H	-1.4423219884	-0.302846436	 1.6501860779	 0.124136
H	-1.5461501801	-1.5479818204	 0.3132097522	 0.120697
H	 1.0183488431	-0.9145099654	 2.0369104443	 0.119954
H	-0.2705524904	-3.3173011549	-0.4034659538	 0.131922
H	 1.1330446263	-3.4134135148	-1.4874824659	 0.148534
H	 1.307583809	-3.8504191627	 0.2237582414	 0.140617
104.8964	155.4563	196.4448	214.0195	222.281	242.3026	331.7854	361.6864	450.2317	473.0735	512.36	558.5883	630.898	686.3577	818.3122	822.3107	875.4525	915.6834	935.5952	970.0707	975.8263	1006.3218	1065.0906	1085.4273	1103.8321	1118.288	1171.4163	1209.5508	1229.649	1295.4099	1386.4188	1408.6965	1429.685	1473.6719	1478.8889	1485.1281	1491.5331	1502.2985	2355.0353	3038.0523	3052.687	3104.6867	3120.7822	3123.2708	3126.591	3143.3727	3208.1449	3215.8331
CC12CC1C(C)(O2)C#N	C[C@]12C[C@H]1[C@@](C)(O2)C#N	
InChI=1S/C7H9NO/c1-6-3-5(6)7(2,4-8)9-6/h5H,3H2,1-2H3	InChI=1S/C7H9NO/c1-6-3-5(6)7(2,4-8)9-6/h5H,3H2,1-2H3/t5-,6+,7+/m1/s1
