21
gdb 77248	2.71553	0.95428	0.87427	2.6	79.9	-0.244	-0.0189	0.2251	1426.9395	0.178509	-424.223329	-424.212631	-424.211687	-424.259785	38.38	
C	-1.7057246614	 0.7182344717	-1.4702395784	-0.418299
C	-0.8020757695	-0.3172686194	-0.834457053	-0.077765
C	 0.6014393996	-0.6346757033	-1.3477051677	-0.07475
C	 1.2294955658	 0.0659597859	-2.5406462268	-0.315454
C	 0.8165265755	-0.593671585	-3.8408333533	 0.173536
O	 0.3347937065	-0.0196302843	-4.782798717	-0.241138
C	 0.4209328382	 0.0156109307	-0.0022897545	 0.35903
C	 0.8497135631	 1.4379234044	 0.2813725941	-0.450075
O	 0.7111622124	-0.8672979872	 1.0578845091	-0.464081
H	-1.1601365001	 1.590304279	-1.8382409884	 0.121356
H	-2.2442409588	 0.2924759335	-2.323669322	 0.130556
H	-2.4525887927	 1.0779243439	-0.7537432993	 0.116833
H	-1.3303030225	-1.1953833483	-0.4709217079	 0.088319
H	 0.8735341289	-1.6843477673	-1.2703231029	 0.100404
H	 0.9757189925	 1.1257596305	-2.6047582655	 0.119145
H	 2.3247346978	-0.0105410635	-2.4662878563	 0.123848
H	 0.9902242299	-1.6954328476	-3.8692133472	 0.071989
H	 0.6564352493	 2.1138457613	-0.5538927132	 0.120829
H	 0.3098019519	 1.8316594099	 1.1515122996	 0.109507
H	 1.9196022232	 1.4691342083	 0.5103544248	 0.128539
H	 0.1506190705	-0.6245609631	 1.8038349459	 0.27767
37.3041	55.4622	136.2335	164.2029	191.3523	210.6154	246.8863	261.1675	287.5654	315.8969	411.3241	433.6827	482.0919	509.8672	574.3636	692.362	757.139	796.3442	878.9481	924.9908	981.5248	1018.7215	1035.1283	1046.3507	1067.9036	1091.0678	1132.4501	1151.189	1164.5964	1212.9246	1242.1061	1283.0738	1293.1572	1343.144	1374.4401	1414.2062	1423.2022	1428.7717	1456.6796	1464.0968	1485.216	1494.4495	1497.3613	1518.9997	1835.171	2854.0765	3006.1906	3028.7565	3035.2832	3089.9149	3091.0367	3110.9616	3117.8479	3131.3411	3135.3963	3145.9198	3786.1044
CC1C(CC=O)C1(C)O	C[C@H]1[C@@H](CC=O)[C@]1(C)O	
InChI=1S/C7H12O2/c1-5-6(3-4-8)7(5,2)9/h4-6,9H,3H2,1-2H3	InChI=1S/C7H12O2/c1-5-6(3-4-8)7(5,2)9/h4-6,9H,3H2,1-2H3/t5-,6+,7+/m0/s1
