17
gdb 76479	3.28367	1.09217	1.01215	4.931	69.48	-0.2666	0.0119	0.2785	1219.4176	0.134021	-458.967541	-458.958805	-458.957861	-459.00097	32.356	
C	 0.0489434813	 1.6331503486	-0.2306929854	-0.420713
C	 0.0367390872	 0.1300948389	-0.0597988954	-0.143497
C	 1.3391225787	-0.6847824312	-0.059521073	-0.008461
O	 2.5772477557	-0.0392173933	-0.0867374908	-0.415598
C	 0.5574565028	-0.5054129665	 1.1877583877	 0.419084
C	 0.9920146264	 0.0806807943	 2.5188369456	-0.487816
C	 0.2494456913	-1.1347434804	 3.0848125985	 0.430884
O	-0.0011393411	-1.6094496204	 4.1432996607	-0.310711
O	-0.1160631743	-1.61054676	 1.8425039877	-0.265052
H	 0.9726140049	 2.0638290402	 0.1646486042	 0.13319
H	-0.0212444549	 1.9062158569	-1.2890354072	 0.122257
H	-0.7957819481	 2.0985054258	 0.2873658729	 0.12879
H	-0.8029184619	-0.3913113361	-0.5132582413	 0.108395
H	 1.3033786591	-1.6666279187	-0.531108256	 0.107706
H	 2.7585464144	 0.2309055683	-0.9935445074	 0.295958
H	 2.0662685931	 0.0884472211	 2.7081301709	 0.160239
H	 0.5563003055	 1.0414019126	 2.7987762881	 0.145347
88.8312	151.9172	158.5882	186.0041	217.1241	283.3958	322.1772	387.6395	484.3182	512.861	526.3585	574.1042	610.8821	780.9155	808.5024	868.0271	906.9851	970.7857	996.5157	1026.4796	1040.5947	1075.2282	1110.7086	1138.8166	1149.3252	1168.1435	1204.2125	1230.9828	1275.6941	1328.416	1376.8845	1412.6104	1455.2113	1490.6403	1499.5255	1514.5738	1947.9609	3036.6038	3090.531	3096.3055	3108.7423	3117.8306	3146.0163	3148.0411	3802.3924
CC1C(O)C11CC(=O)O1	C[C@H]1[C@@H](O)[C@]21CC(=O)O2	
InChI=1S/C6H8O3/c1-3-5(8)6(3)2-4(7)9-6/h3,5,8H,2H2,1H3	InChI=1S/C6H8O3/c1-3-5(8)6(3)2-4(7)9-6/h3,5,8H,2H2,1H3/t3-,5+,6+/m0/s1
