23
gdb 100670	2.89433	0.95827	0.85898	1.3649	77.8	-0.2562	0.0607	0.3169	1447.809	0.202412	-462.553971	-462.542455	-462.541511	-462.59016	42.376	
C	 0.0050429961	 1.5589867623	 0.1415881569	-0.418812
C	-0.0237975792	 0.0264142879	 0.011792715	 0.027499
C	-1.4800415672	-0.4587671839	 0.0324304281	-0.094404
O	-2.0402475412	-0.0953949231	 1.291408753	-0.425094
C	 0.7258740684	-0.5000916407	-1.2386231864	 0.36138
C	 0.7785671352	-2.0405969161	-1.2860135882	-0.439909
O	 0.0308664078	-0.0050091786	-2.3848580003	-0.482504
C	 2.1655073481	 0.0438055573	-1.2895268852	-0.125634
O	 2.7117711001	-0.3576970547	-2.5479851257	-0.434822
H	 0.9871307432	 1.9343479474	 0.4426035071	 0.102056
H	-0.2660835968	 2.0233362981	-0.8111420749	 0.125482
H	-0.7139386961	 1.8700167105	 0.9017145396	 0.131134
H	 0.4641273948	-0.412916466	 0.8921598314	 0.075352
H	-2.0272214239	 0.0048661172	-0.7999783755	 0.105116
H	-1.527597746	-1.5472622153	-0.1007311564	 0.083278
H	-2.9828184401	-0.2803083275	 1.2598154624	 0.284807
H	-0.2078018999	-2.4550929778	-1.5002125837	 0.121951
H	 1.4596582461	-2.3632269136	-2.0773688843	 0.128887
H	 1.1361261786	-2.4570888618	-0.3380050823	 0.107498
H	 0.6495189413	-0.0973956885	-3.1208761523	 0.282111
H	 2.1532862706	 1.1356889986	-1.2168335662	 0.099096
H	 2.758128139	-0.3588124489	-0.4546162812	 0.090963
H	 3.4764326811	 0.1918594172	-2.7374685007	 0.294565
59.0552	94.0208	135.0889	168.5448	220.6556	228.7465	233.9227	238.9147	281.6614	300.5614	335.2997	356.4291	369.888	377.3033	452.2782	489.1793	509.4923	650.1215	767.6337	851.397	921.1962	929.8809	942.6702	954.8329	1022.8994	1043.9522	1066.0797	1090.0766	1134.5645	1166.0956	1178.5904	1192.7798	1231.4643	1271.5574	1277.729	1284.5814	1335.6924	1360.177	1390.1142	1397.1798	1409.6451	1443.902	1452.4953	1489.3035	1503.2662	1506.4302	1509.4811	1518.5142	1524.7617	2994.7271	3002.2577	3018.9015	3039.2122	3045.8586	3047.6575	3074.2809	3113.5313	3115.6513	3135.7295	3136.2145	3768.9365	3836.633	3848.9541
CC(CO)C(C)(O)CO	C[C@@H](CO)[C@@](C)(O)CO	
InChI=1S/C6H14O3/c1-5(3-7)6(2,9)4-8/h5,7-9H,3-4H2,1-2H3	InChI=1S/C6H14O3/c1-5(3-7)6(2,9)4-8/h5,7-9H,3-4H2,1-2H3/t5-,6-/m0/s1
