17
gdb 51225	4.13821	1.06552	1.04073	3.1271	72.02	-0.235	-0.0232	0.2118	1185.3948	0.134659	-421.764386	-421.756616	-421.755671	-421.797863	29.033	
O	-0.3207593078	 0.8317115328	 0.9633470077	-0.241321
C	 0.0363577414	 1.1930292029	-0.1274979477	 0.163087
C	 1.4242182273	 1.7337392472	-0.4351413548	-0.412873
C	 1.3768968558	 2.9065400286	-1.3618013408	 0.479316
O	 0.9922551708	 2.6916038534	-2.7244906917	-0.329701
C	 1.4630916754	 4.0457920094	-2.9837929781	 0.068386
C	 0.4067192074	 4.9387366663	-2.2840292886	-0.232042
C	 0.9636624311	 4.3486340053	-0.9887720019	-0.157047
C	 2.3061550797	 4.034007129	-1.6523867587	-0.217255
H	-0.6429585597	 1.1462798491	-1.0063377736	 0.099392
H	 1.9182801115	 1.9923422673	 0.5055461602	 0.132413
H	 2.001793926	 0.9278800807	-0.9104887921	 0.139007
H	 1.8034669101	 4.1983612328	-4.0052922604	 0.091892
H	 0.6488699902	 6.0006012649	-2.3754492681	 0.108241
H	-0.6380837383	 4.7547994337	-2.5524269698	 0.104647
H	 0.7810210744	 4.6527866795	 0.0341449866	 0.10023
H	 3.3325026546	 4.2517003471	-1.3917438984	 0.103628
49.2521	65.1792	130.7246	280.0714	333.4573	426.9286	464.2406	553.7707	649.1312	756.7258	779.2062	788.6122	808.7792	835.1392	886.2803	922.216	932.8408	959.5472	969.9759	1004.6288	1057.7875	1069.2383	1079.0587	1097.1	1136.7496	1157.375	1172.1422	1223.4585	1249.8728	1265.7868	1298.4824	1317.1921	1421.7515	1434.3946	1456.8771	1487.0949	1835.3415	2901.9014	3017.1486	3051.7633	3103.5441	3114.7901	3151.1836	3198.2122	3213.3199
O=CCC12OC3CC1C23	O=CC[C@@]12O[C@H]3C[C@@H]1[C@@H]23	
InChI=1S/C7H8O2/c8-2-1-7-4-3-5(9-7)6(4)7/h2,4-6H,1,3H2	InChI=1S/C7H8O2/c8-2-1-7-4-3-5(9-7)6(4)7/h2,4-6H,1,3H2/t4-,5+,6-,7-/m1/s1
