17
gdb 85791	2.52046	1.21067	1.16335	1.4566	76.04	-0.234	-0.0357	0.1982	1179.2524	0.132165	-421.794145	-421.784549	-421.783605	-421.828719	35.02	
C	-1.0758612047	 0.9905175108	 0.1784739366	-0.414676
C	-0.0205490904	-0.0866185792	-0.0348941517	-0.096216
C	 0.9375998175	-0.0144029061	-1.2672869899	-0.279562
C	 2.1727636757	-0.3203595291	-0.368436758	 0.111758
O	 2.4358416582	-1.719565613	-0.437918357	-0.457149
C	 3.3638799687	 0.4947992129	-0.5040931793	 0.270052
C	 4.3510781867	 1.1785131091	-0.5711655788	-0.435102
C	 1.2274824502	-0.0401778671	 0.8596278229	 0.345272
O	 1.4267633029	 0.1801322341	 2.0157841163	-0.294967
H	-0.6396468851	 1.9915758296	 0.0987439063	 0.124529
H	-1.8752087524	 0.9086856315	-0.5644434586	 0.123909
H	-1.5230120946	 0.8983025964	 1.1725283059	 0.137792
H	-0.4693264456	-1.0841610652	 0.0405640483	 0.119262
H	 0.785020851	-0.751692069	-2.0552882773	 0.126438
H	 0.9909552826	 0.9876979502	-1.6969044534	 0.122438
H	 3.0855151197	-1.9245853446	 0.24533907	 0.293962
H	 5.2231024097	 1.7814142587	-0.6383657223	 0.202259
46.6585	113.9123	171.3201	187.9593	196.6751	221.1089	290.4838	337.9201	372.6097	402.7751	500.8165	574.2381	593.6219	626.1513	672.6324	717.4916	722.2057	830.4125	880.5194	931.6577	966.8046	975.3528	1057.9752	1114.1228	1129.1596	1174.0101	1188.1895	1247.8394	1260.189	1325.7094	1362.7404	1408.203	1469.9751	1494.6631	1495.5346	1892.5299	2228.1229	3036.9603	3044.4397	3085.0158	3106.4114	3114.3056	3151.0703	3499.5049	3793.5725
CC1CC(O)(C#C)C1=O	C[C@H]1C[C@@](O)(C#C)C1=O	
InChI=1S/C7H8O2/c1-3-7(9)4-5(2)6(7)8/h1,5,9H,4H2,2H3	InChI=1S/C7H8O2/c1-3-7(9)4-5(2)6(7)8/h1,5,9H,4H2,2H3/t5-,7-/m0/s1
