18
gdb 116433	2.4228	1.44886	0.96021	4.9537	68.98	-0.2434	0.0196	0.263	1199.534	0.149205	-476.250446	-476.241922	-476.240978	-476.284037	31.657	
O	 0.0222309869	 1.4076173302	-0.0504965729	-0.426804
C	 0.0423362776	-0.0024373769	 0.0026572217	-0.063249
C	-1.3767256759	-0.5682360209	 0.030922942	-0.029626
O	-2.0184862136	-0.0978902413	-1.152506575	-0.274576
C	-3.2755782272	-0.7089480536	-1.3597154763	-0.080012
C	-3.0804599295	-2.1905185599	-1.6571672464	-0.157226
N	-2.2474384592	-2.7749904517	-0.6170131084	-0.329101
C	-1.3670942406	-2.0930457055	 0.1706553794	 0.39968
O	-0.6362530253	-2.6449648119	 0.9730409086	-0.379319
H	-0.5465154759	 1.6421974838	-0.7928583467	 0.290018
H	 0.5798581084	-0.4364825867	-0.8550575801	 0.09308
H	 0.5614759191	-0.3003083209	 0.9146182373	 0.137473
H	-1.8984609715	-0.1644401167	 0.914876502	 0.107197
H	-3.9198734053	-0.5783828481	-0.475800299	 0.105173
H	-3.7451231787	-0.2064768813	-2.2091676144	 0.119753
H	-4.0507633932	-2.6999415784	-1.6806084294	 0.116688
H	-2.6152833125	-2.3069782888	-2.6459239338	 0.119582
H	-2.1858778734	-3.7802923515	-0.5389908688	 0.25127
65.819	120.4745	149.9485	187.8869	299.3738	329.2837	401.6881	430.6015	469.7825	488.3486	529.8473	573.1484	684.8622	694.0305	827.1031	899.3469	931.1538	972.8854	1046.7148	1080.2721	1098.4533	1107.029	1135.5086	1151.1549	1223.4864	1264.8296	1280.5413	1288.9574	1342.9615	1360.2732	1391.1099	1396.1749	1412.8195	1428.2172	1479.6759	1495.9579	1499.6556	1519.3112	1786.9644	2969.9273	2985.1437	2989.7214	3007.5176	3060.5368	3101.4176	3130.4824	3602.8891	3800.1082
OCC1OCCNC1=O	OC[C@H]1OCCNC1=O	
InChI=1S/C5H9NO3/c7-3-4-5(8)6-1-2-9-4/h4,7H,1-3H2,(H,6,8)	InChI=1S/C5H9NO3/c7-3-4-5(8)6-1-2-9-4/h4,7H,1-3H2,(H,6,8)/t4-/m1/s1
