23
gdb 15183	8.37249	0.6348	0.61998	1.0044	83.73	-0.2292	0.09	0.3192	1887.9855	0.211189	-330.304547	-330.294783	-330.293839	-330.340021	34.879	
C	 0.0044718145	 1.52128175	-0.1111311327	-0.379612
C	 0.146172801	-0.0021170317	-0.0591751461	-0.162243
C	 0.6614903049	-0.5152729841	 1.2899143538	-0.15928
C	 0.8121475249	-2.038562214	 1.341963642	-0.177632
C	 1.3212334182	-2.5445495641	 2.6913817063	-0.142541
N	 1.424847695	-4.0005113752	 2.7021292551	-0.058454
C	 2.6973174391	-4.5585641147	 2.2564569942	-0.218435
C	 2.3196160652	-4.5786445931	 3.6966591341	-0.220666
H	 0.9662338479	 2.0147659045	 0.0689413616	 0.112107
H	-0.3636170485	 1.8564866782	-1.085918924	 0.110431
H	-0.6967885765	 1.8803732441	 0.6505944493	 0.112877
H	-0.8234835971	-0.4691921177	-0.2763102524	 0.09544
H	 0.8259312712	-0.3346715197	-0.8549882786	 0.093596
H	 1.6291688866	-0.0424713198	 1.5102515366	 0.089726
H	-0.021619808	-0.1870215046	 2.0862011004	 0.091534
H	-0.1496616383	-2.5204724172	 1.1284784984	 0.105286
H	 1.5021329111	-2.367382099	 0.5532503348	 0.093975
H	 2.2893857922	-2.0632061143	 2.9297616908	 0.073017
H	 0.6207384126	-2.2553652094	 3.4852785865	 0.09974
H	 2.6383959685	-5.4609425373	 1.6546005007	 0.114693
H	 3.4832448494	-3.8640465132	 1.961124604	 0.105806
H	 2.855892243	-3.8997982914	 4.3586678376	 0.106116
H	 1.9772125931	-5.4959925963	 4.1674137378	 0.11452
54.9989	66.1324	100.2932	127.4856	147.5689	237.8709	244.2708	298.7123	384.7249	408.5602	502.5751	735.1869	767.5664	769.4316	833.6097	863.6912	894.8018	909.5832	984.2665	1006.6033	1024.2926	1036.8641	1065.3371	1069.1959	1112.0425	1115.8434	1132.7928	1156.1551	1178.3786	1210.3892	1247.4643	1269.7642	1303.8629	1319.2189	1325.6841	1333.5253	1349.1444	1397.8748	1407.2273	1415.1753	1483.8645	1484.9304	1490.0854	1495.1316	1499.5684	1505.2137	1514.5778	1523.2065	2916.0237	3000.6168	3013.9774	3019.8642	3025.5584	3028.2787	3037.2847	3049.1378	3070.7548	3088.4089	3093.3493	3094.0856	3100.2383	3172.368	3186.7309
CCCCCN1CC1	CCCCCN1CC1	
InChI=1S/C7H15N/c1-2-3-4-5-8-6-7-8/h2-7H2,1H3	InChI=1S/C7H15N/c1-2-3-4-5-8-6-7-8/h2-7H2,1H3
