17
gdb 114594	2.91498	1.18075	0.97261	2.0761	75.91	-0.2398	0.026	0.2658	1225.3732	0.1342	-421.741157	-421.732562	-421.731618	-421.774492	32.658	
O	 0.0696885822	 1.3813414103	-0.3260900133	-0.417992
C	 0.0990713245	 0.0476896857	 0.1469848132	-0.085611
C	-1.2908343348	-0.5574819543	 0.0990468619	 0.066616
O	-1.8472177985	-0.5311585059	-1.2526235111	-0.313151
C	-2.173579023	-1.915125736	-1.1705192247	 0.063538
C	-0.9547105909	-2.7570563731	-1.0503083545	-0.345948
C	-1.5113815484	-2.0763614155	 0.2017998773	 0.076581
C	-1.9092078147	-2.7746551666	 1.3712781854	 0.176892
C	-2.2363677745	-3.3485369714	 2.377593168	-0.398255
H	-0.3294707461	 1.3497190708	-1.2038015425	 0.29557
H	 0.8059423341	-0.5693019522	-0.4270593774	 0.089313
H	 0.4491553306	 0.0811810134	 1.1843557087	 0.120237
H	-1.9661791097	-0.013392976	 0.7682025533	 0.100363
H	-3.1416215422	-2.2351382198	-1.536854977	 0.12329
H	-1.1225174723	-3.828796411	-1.0593868778	 0.135884
H	-0.0224407637	-2.4267393653	-1.4966854254	 0.123263
H	-2.5294893928	-3.8573426431	 3.262130176	 0.18941
78.7433	126.8729	157.8064	189.5414	256.763	374.3865	427.9687	449.8176	469.5565	504.5591	550.0648	575.2479	628.399	659.2712	747.0806	823.2923	855.7493	892.6313	986.7512	995.8914	1028.6615	1043.3565	1070.5203	1089.7003	1091.9264	1127.8331	1207.7235	1217.2278	1238.9266	1289.4279	1347.208	1379.9686	1400.8178	1437.0403	1475.9794	1498.9669	2234.5772	2997.7118	3055.2478	3079.2887	3130.4968	3192.1463	3225.2732	3503.1605	3793.3547
OCC1OC2CC12C#C	OC[C@H]1O[C@H]2C[C@@]12C#C	
InChI=1S/C7H8O2/c1-2-7-3-5(7)9-6(7)4-8/h1,5-6,8H,3-4H2	InChI=1S/C7H8O2/c1-2-7-3-5(7)9-6(7)4-8/h1,5-6,8H,3-4H2/t5-,6+,7+/m0/s1
