21
gdb 47587	2.23588	1.82207	1.15323	2.8637	81.46	-0.2326	-0.0104	0.2222	1115.614	0.184765	-387.11885	-387.110852	-387.109908	-387.151867	31.439	
O	-0.2254233985	 0.7509434843	 1.4366988551	-0.317026
C	-0.1514357211	 1.4441171864	 0.4476184131	 0.372113
C	-1.4013242119	 1.8899641331	-0.3153342142	-0.293965
C	-1.2075476049	 3.186284169	-1.1307444125	-0.207864
C	-0.2377372789	 4.1325858208	-0.4040028448	-0.231474
C	 1.1536172952	 3.4948166913	-0.3716667369	 0.031642
C	 2.0772372139	 3.6675908731	 0.8698089452	-0.241168
C	 2.3129376757	 2.1288939959	 0.9076431746	-0.231798
C	 1.1648216822	 1.9481683726	-0.1135031148	-0.119331
H	-1.7102128223	 1.0598035381	-0.9638559468	 0.124766
H	-2.1950860322	 2.0023045046	 0.4302893058	 0.128144
H	-0.8031678228	 2.9544714534	-2.1242140724	 0.0996
H	-2.1777086309	 3.6646296856	-1.2988577685	 0.100781
H	-0.2086336167	 5.1148766488	-0.8872577234	 0.097006
H	-0.6005711402	 4.2983808096	 0.6198745852	 0.098764
H	 1.6866729756	 3.7263291932	-1.2992188533	 0.072015
H	 2.9594383556	 4.2982210626	 0.7384974346	 0.099001
H	 1.5262098569	 4.0271190824	 1.7442648606	 0.104695
H	 3.2860848488	 1.8332811592	 0.5093876681	 0.098279
H	 2.154116896	 1.6271247896	 1.8634949179	 0.123589
H	 1.3892609504	 1.3391625463	-0.9981428327	 0.092231
67.3789	70.6313	226.61	253.6721	333.5303	411.7081	446.6412	481.1228	541.893	615.913	672.8033	698.9928	758.8543	852.0511	876.026	889.0575	910.709	951.9459	961.9955	973.5188	1006.5149	1047.5324	1066.3597	1093.2081	1115.934	1124.3348	1173.9368	1204.0841	1224.109	1242.5675	1258.5636	1265.2464	1273.422	1283.9076	1326.4427	1335.9807	1348.5652	1369.2521	1374.9708	1450.7581	1479.3077	1492.7395	1499.0911	1501.3435	1803.5003	3012.326	3025.5668	3026.8715	3035.6995	3047.251	3054.4316	3069.1202	3072.9792	3074.2365	3088.4347	3106.5709	3132.4568
O=C1CCCC2CCC12	O=C1CCC[C@H]2CC[C@@H]12	
InChI=1S/C8H12O/c9-8-3-1-2-6-4-5-7(6)8/h6-7H,1-5H2	InChI=1S/C8H12O/c9-8-3-1-2-6-4-5-7(6)8/h6-7H,1-5H2/t6-,7+/m0/s1
