16
gdb 5589	3.32763	1.88561	1.22067	0.2293	67.96	-0.1776	0.0536	0.2312	964.0583	0.131622	-379.934642	-379.926472	-379.925527	-379.967377	29.679	
C	 0.0127248685	 1.3742722292	 0.0833265471	-0.241949
O	 0.0295271697	-0.0358749772	 0.0267931369	-0.274755
C	 0.6230267341	-0.5759256576	-1.0771640808	 0.308595
C	 0.7111968084	-1.9429034701	-1.2638432658	 0.132233
N	 0.2873620397	-3.053446803	-0.5017359263	-0.615344
N	 1.3611018069	-2.1325858897	-2.4657924902	-0.243071
C	 1.6790072051	-0.9334526264	-3.0308330101	-0.086488
C	 1.2326867491	 0.0680591073	-2.1900847477	-0.290564
H	 1.0291250042	 1.79190032	 0.0882797799	 0.116428
H	-0.5394793022	 1.8073129369	-0.76228309	 0.116427
H	-0.4895299933	 1.6448559963	 1.0144702245	 0.12518
H	-0.7175543622	-3.0359432056	-0.354161884	 0.24299
H	 0.7117369958	-3.0493066929	 0.4212087944	 0.242995
H	 1.5546348288	-3.0456639946	-2.8387806029	 0.259375
H	 2.1923676609	-0.8755752148	-3.9765149681	 0.114873
H	 1.3360304665	 1.1270378923	-2.3619798769	 0.093075
64.1103	123.6583	201.337	208.8733	246.3478	322.8617	328.0478	477.561	539.2431	615.7773	636.1778	666.8435	701.3662	750.4212	792.1751	836.6695	912.2504	1051.4476	1104.5631	1124.572	1181.6927	1199.2822	1219.0486	1220.1913	1271.5508	1335.3998	1441.2267	1468.8132	1486.2485	1493.8084	1510.1464	1525.1606	1640.1954	1671.5425	2993.0736	3046.0052	3123.0458	3256.1395	3274.5776	3487.5534	3543.2916	3683.2445
COC1=C(N)NC=C1	COc1c(N)[nH]cc1	
InChI=1S/C5H8N2O/c1-8-4-2-3-7-5(4)6/h2-3,7H,6H2,1H3	InChI=1S/C5H8N2O/c1-8-4-2-3-7-5(4)6/h2-3,7H,6H2,1H3
