16
gdb 76850	2.52665	1.67807	1.39378	3.7968	64.37	-0.2424	0.0203	0.2626	959.4525	0.124687	-475.014921	-475.006966	-475.006022	-475.047571	30.247	
O	-0.0492843079	 1.4320951012	-0.0757154547	-0.441863
C	-0.0353338975	 0.0350455868	-0.0364205684	 0.107688
C	 0.3013922572	-0.5766389628	 1.371680235	 0.046519
O	 0.4577652222	 0.3915976348	 2.3900883635	-0.409851
C	-1.0750993547	-1.296508477	 1.4035496282	-0.236066
C	-1.4188607699	-0.6889945138	-0.0024133506	-0.024886
N	-2.4801471457	 0.0726686651	 0.6492823756	-0.313546
C	-2.2046969653	-0.374936964	 1.931838257	 0.428407
O	-2.6756627833	-0.110946886	 3.0010102595	-0.34908
H	-0.0532055974	 1.717582399	 0.8501384944	 0.289766
H	 0.6107003216	-0.3414480434	-0.8367714213	 0.081139
H	 1.1423566962	-1.2768781199	 1.352870783	 0.085926
H	 1.394592521	 0.5876047129	 2.4909898794	 0.299454
H	-1.1063484198	-2.3526003621	 1.660702437	 0.098235
H	-1.7293373319	-1.2777800866	-0.8658009983	 0.085369
H	-2.8822338848	 0.9561282858	 0.3666142808	 0.25279
64.8882	149.3395	204.107	243.9647	270.3017	386.2452	444.6711	492.2871	527.2439	567.6899	597.9561	679.647	767.2416	779.4943	812.5626	872.2195	896.6455	954.4456	1004.1025	1046.931	1112.0915	1120.9618	1139.1773	1152.0715	1162.8186	1214.2453	1219.7743	1281.7634	1290.3508	1314.1988	1351.1361	1361.1248	1418.9501	1435.844	1899.3588	3042.9164	3057.6931	3108.7861	3150.0517	3593.7187	3715.6322	3826.4309
OC1C(O)C2C1NC2=O	O[C@H]1[C@@H](O)[C@@H]2[C@H]1NC2=O	
InChI=1S/C5H7NO3/c7-3-1-2(4(3)8)6-5(1)9/h1-4,7-8H,(H,6,9)	InChI=1S/C5H7NO3/c7-3-1-2(4(3)8)6-5(1)9/h1-4,7-8H,(H,6,9)/t1-,2+,3-,4+/m0/s1
