21
gdb 96463	2.14564	1.80156	1.2668	3.0091	77.32	-0.252	0.0612	0.3131	1078.7664	0.184395	-424.215354	-424.207161	-424.206217	-424.247547	32.867	
O	 0.1264226619	 1.3645905514	-0.3009088944	-0.411425
C	 0.032575893	-0.0296439497	-0.0520358724	 0.06105
C	 0.7742125373	-0.4550193793	 1.2341520137	-0.235538
C	 0.5594303871	 0.466634882	 2.4493250775	-0.1699
C	-0.8668468377	 0.572662697	 3.0182482335	-0.192384
C	-1.9029032293	 1.1634208527	 2.041495269	-0.234956
C	-2.3580889543	 0.129716957	 1.0326278768	 0.061165
O	-2.4476135065	 0.4954209249	-0.3519795835	-0.248183
C	-1.4392325406	-0.4286960202	 0.0344083393	 0.06935
H	 1.0614743651	 1.584763149	-0.3656456595	 0.283927
H	 0.4684400979	-0.5833568829	-0.8993766788	 0.066374
H	 0.4813237265	-1.4854262856	 1.4778441163	 0.099341
H	 1.8511312196	-0.492771363	 1.0200218316	 0.087785
H	 1.2257644899	 0.1210926042	 3.2489353757	 0.09113
H	 0.8994878891	 1.4744718744	 2.1829148706	 0.096168
H	-1.2058265374	-0.4154944887	 3.3603323492	 0.08976
H	-0.823103565	 1.2014692341	 3.915415384	 0.094179
H	-2.7722691648	 1.5317993236	 2.5976871599	 0.090502
H	-1.4707345193	 2.0101716666	 1.5029756898	 0.132471
H	-3.176222824	-0.5137876033	 1.3635773103	 0.083673
H	-1.6148413385	-1.453633094	-0.2994610487	 0.085508
139.5679	187.4924	227.4959	275.621	286.3927	315.0196	343.1119	400.245	458.7668	492.9862	564.6079	716.8191	746.8526	777.7348	810.362	878.0802	886.8779	909.7059	948.1439	969.7283	1016.4206	1036.3493	1075.7558	1101.3128	1107.1023	1132.3638	1155.5473	1201.3071	1214.4798	1237.1983	1268.9118	1282.2036	1315.8392	1341.9486	1354.3448	1378.1298	1390.5335	1397.2872	1403.9858	1450.4126	1477.134	1482.5034	1485.9861	1492.8281	1504.9174	2958.6021	3008.2262	3008.7309	3026.3187	3038.6784	3043.5525	3055.9276	3068.0882	3075.0033	3087.5671	3113.6114	3815.5251
OC1CCCCC2OC12	O[C@H]1CCCC[C@H]2O[C@@H]12	
InChI=1S/C7H12O2/c8-5-3-1-2-4-6-7(5)9-6/h5-8H,1-4H2	InChI=1S/C7H12O2/c8-5-3-1-2-4-6-7(5)9-6/h5-8H,1-4H2/t5-,6+,7-/m0/s1
