15
gdb 123687	4.11958	1.63725	1.27356	2.4835	70.74	-0.2399	0.0039	0.2438	935.2065	0.116531	-416.808381	-416.80228	-416.801336	-416.838861	24.394	
C	-0.0565946918	 1.43130276	 0.0090282618	-0.202022
C	 1.4120010172	 1.8592708521	-0.0235001567	 0.047668
O	 2.1671907795	 1.460072289	 1.1158671151	-0.243537
C	 2.2664494353	 0.6523244905	-0.0819410491	-0.162349
C	 1.34058892	-0.4986575876	-0.0672555402	 0.456311
C	 1.2371181596	-1.8748002745	-0.0483702746	-0.39619
C	-0.1556229379	-2.1056490609	 0.0487846717	 0.014478
N	-0.8633310248	-0.9705704565	 0.088589704	-0.289361
N	 0.0714009805	-0.0194391787	 0.0035272224	 0.037971
H	-0.570760126	 1.7790352616	 0.9095646555	 0.148633
H	-0.601638007	 1.7849211582	-0.8725402314	 0.133571
H	 1.6832852867	 2.8108753646	-0.4706802448	 0.113647
H	 3.243124568	 0.6205005544	-0.5504286219	 0.116291
H	 2.0305373717	-2.6026928324	-0.0829248725	 0.110846
H	-0.6710107409	-3.0540451298	 0.0909211806	 0.114044
149.3168	203.7151	353.2129	437.6042	451.7469	628.8634	661.4348	708.565	747.3398	787.7359	797.6269	856.1889	864.6632	883.6533	911.5399	956.1582	996.1605	1050.3063	1056.6384	1101.8777	1155.2554	1204.6617	1211.1924	1243.0695	1295.3076	1309.8141	1342.2454	1348.9595	1396.8655	1439.187	1471.1572	1505.3033	1595.1023	3052.0013	3100.8765	3163.1849	3191.3392	3245.4794	3275.7324
C1C2OC2C2=CC=NN12	C1[C@H]2O[C@H]2c2ccnn12	
InChI=1S/C6H6N2O/c1-2-7-8-3-5-6(9-5)4(1)8/h1-2,5-6H,3H2	InChI=1S/C6H6N2O/c1-2-7-8-3-5-6(9-5)4(1)8/h1-2,5-6H,3H2/t5-,6+/m1/s1
