15
gdb 27934	2.53945	1.38599	0.90227	6.1859	74.53	-0.2184	-0.0288	0.1896	1226.8882	0.111927	-453.999131	-453.990545	-453.989601	-454.032416	30.91	
C	-0.0252070358	 1.4541198802	 0.1432366017	-0.490571
C	 0.0109438314	-0.015528636	-0.0525073434	 0.373532
N	-0.0208552389	-0.7055560832	-1.1298389659	-0.319187
C	 0.0355012622	-2.0478351597	-0.725184049	 0.088942
C	 0.0089238225	-3.1893538175	-1.612530241	 0.069549
O	-0.055028485	-3.1645584659	-2.8216184337	-0.282948
C	 0.1061863339	-2.0671540385	 0.6523623079	 0.325535
N	 0.2490250658	-3.0411253713	 1.5973174493	-0.593777
O	 0.090745974	-0.7955599927	 1.1019161522	-0.207129
H	 0.8772148323	 1.8081210818	 0.6527974501	 0.147467
H	-0.0945321698	 1.9330180716	-0.8335440038	 0.166197
H	-0.8864097741	 1.752052466	 0.7506437994	 0.145275
H	 0.0524997359	-4.1664172261	-1.0673799572	 0.02841
H	 0.0076403912	-3.9749665885	 1.3039528919	 0.275947
H	-0.0841150455	-2.8021828903	 2.5198228714	 0.272757
117.9453	141.7418	164.6692	194.6993	216.4108	272.0402	311.2818	392.9585	398.6703	527.0958	554.0362	649.6638	680.9025	684.7269	733.8399	873.4276	921.1005	1015.3754	1017.2206	1065.3035	1080.0703	1179.5456	1225.7187	1326.5918	1412.3281	1430.7546	1473.676	1476.1687	1485.4204	1600.3443	1661.7441	1691.9385	1792.5961	2795.3724	3042.0973	3095.7558	3159.866	3578.8842	3688.3928
CC1=NC(C=O)=C(N)O1	Cc1nc(C=O)c(N)o1	
InChI=1S/C5H6N2O2/c1-3-7-4(2-8)5(6)9-3/h2H,6H2,1H3	InChI=1S/C5H6N2O2/c1-3-7-4(2-8)5(6)9-3/h2H,6H2,1H3
