16
gdb 13674	3.96885	1.26743	1.16204	2.4505	65.9	-0.2382	0.0214	0.2596	1060.4756	0.127632	-383.661557	-383.653001	-383.652057	-383.695376	31.04	
O	 0.0925445762	 1.2142470962	-0.4632623233	-0.432474
C	-0.1530180277	 0.0772657319	 0.3028294422	 0.119551
C	-1.2902942163	 0.062240634	 1.3018527153	-0.343206
C	-1.3830053099	-0.7304695073	 0.0116846435	 0.059817
O	-2.1314396064	-0.2186400679	-1.0551890387	-0.253199
C	-3.5094943347	-0.5676595155	-1.0564595496	-0.22195
C	-4.3260457873	 0.1539809261	-0.0791103271	 0.321556
C	-5.0245103664	 0.7476986343	 0.6977762619	-0.459609
H	-0.6261823826	 1.2728671786	-1.1059438063	 0.295069
H	 0.7622336639	-0.4505208558	 0.5540689224	 0.100915
H	-1.1747830751	-0.4822955693	 2.2331102158	 0.111425
H	-1.8901384744	 0.9623088666	 1.3593858316	 0.133334
H	-1.3478785018	-1.8191830194	 0.0456226085	 0.091231
H	-3.865635721	-0.3429410095	-2.0674162436	 0.143849
H	-3.6217705574	-1.6513885268	-0.9033851106	 0.127316
H	-5.6368700791	 1.2693931238	 1.3914295881	 0.206374
31.2842	92.8627	176.1904	208.6635	290.6804	319.9994	337.4157	365.6564	472.2338	546.8832	620.3837	659.0673	685.1366	747.15	806.7791	876.1637	933.8316	988.5534	1015.5629	1034.3513	1058.0854	1082.6346	1116.7306	1134.8977	1171.479	1238.6345	1298.454	1349.0037	1367.5101	1409.6674	1426.7366	1474.6515	1480.5223	2235.7942	2997.7224	3071.3725	3101.5214	3137.791	3152.6152	3237.7947	3502.4957	3768.8439
OC1CC1OCC#C	O[C@H]1C[C@H]1OCC#C	
InChI=1S/C6H8O2/c1-2-3-8-6-4-5(6)7/h1,5-7H,3-4H2	InChI=1S/C6H8O2/c1-2-3-8-6-4-5(6)7/h1,5-7H,3-4H2/t5-,6+/m0/s1
