19
gdb 94070	4.57272	0.99128	0.85709	1.0521	78.41	-0.2524	0.0453	0.2977	1349.1472	0.158791	-423.003151	-422.994417	-422.993473	-423.036326	33.397	
C	 0.0282206707	 1.5026079532	 0.0098023182	-0.409552
C	 0.051540581	-0.0092898148	 0.0014610271	 0.215787
O	 0.7057704553	-0.4380199865	-1.1723859861	-0.246022
C	 0.7721192438	-1.8486771794	-1.2609238955	-0.092167
C	 1.4966116543	-2.4285649035	-0.0252677941	-0.192515
C	 0.7958048039	-1.8620521639	 1.2300881374	-0.092167
O	 0.7279442465	-0.4505306575	 1.1579727138	-0.246021
C	 1.503090875	-3.8825068011	-0.0331346103	 0.303039
C	 1.4759285313	-5.08451163	-0.0393186288	-0.44788
H	 1.0527914345	 1.8820111364	 0.0020747015	 0.136443
H	-0.4958468975	 1.8721126633	-0.8742845277	 0.127404
H	-0.478864581	 1.8625434253	 0.9076335159	 0.127404
H	-0.9724394801	-0.4332062919	 0.0089269697	 0.054977
H	-0.2386443932	-2.2833968955	-1.3254356618	 0.099343
H	 1.3089571436	-2.0879247862	-2.1813474284	 0.12285
H	 2.5254565491	-2.0482678044	-0.0330092108	 0.118568
H	-0.2135999245	-2.2975276804	 1.3091332296	 0.099344
H	 1.3500081293	-2.1111139709	 2.1375249964	 0.12285
H	 1.4679310682	-6.1463657623	-0.0449271761	 0.198314
88.8105	133.0175	197.7236	207.6688	264.9718	313.1531	330.8956	395.0528	470.9504	504.5398	527.4886	569.4452	638.1613	645.5125	647.7547	840.0018	883.7208	904.6825	919.5514	1025.1398	1063.1319	1067.5857	1092.1547	1107.9721	1126.6756	1175.7606	1191.2756	1254.6231	1286.9895	1309.2475	1329.031	1367.6702	1390.1819	1407.3705	1416.7367	1434.7209	1481.6272	1486.9883	1497.1642	1503.5222	2235.8889	2906.3072	2975.9344	2982.6052	3039.5809	3059.7679	3105.8667	3107.7921	3141.7251	3143.0469	3504.115
CC1OCC(CO1)C#C	C[C@H]1OC[C@@H](CO1)C#C	
InChI=1S/C7H10O2/c1-3-7-4-8-6(2)9-5-7/h1,6-7H,4-5H2,2H3	InChI=1S/C7H10O2/c1-3-7-4-8-6(2)9-5-7/h1,6-7H,4-5H2,2H3/t6-,7-
