21
gdb 91432	2.37419	1.51203	1.09411	2.7683	82.16	-0.2408	-0.0238	0.2171	1169.6173	0.182265	-387.071354	-387.062608	-387.061664	-387.105792	33.093	
C	 0.3912004318	 1.552995314	-0.22969537	-0.411357
C	 0.0726548183	 0.0897533439	 0.0441571196	 0.047498
C	 0.5549422662	-0.9896094174	-0.9780460346	-0.257342
C	 1.1669688067	-1.8188222794	 0.1812955865	 0.000251
C	 2.6650568891	-1.5259062145	 0.4643611558	-0.275616
C	 2.2702593748	-0.4946839469	 1.5591504869	-0.058262
C	 2.8727144763	 0.8883057225	 1.5294791063	 0.134967
O	 2.7874544111	 1.6849972464	 2.4299289462	-0.259394
C	 0.7501829684	-0.703437402	 1.2054513036	-0.070316
H	 1.4420294035	 1.7011339228	-0.4995396519	 0.110569
H	-0.2095572516	 1.9225817097	-1.0683044889	 0.11269
H	 0.1790726731	 2.1833305536	 0.6398988678	 0.131001
H	-1.0097527497	-0.004172707	 0.1849848477	 0.080214
H	-0.2517409827	-1.4834550924	-1.525307551	 0.100577
H	 1.2899585127	-0.6352879215	-1.7087319723	 0.093376
H	 0.8443855749	-2.8555743951	 0.2790167873	 0.067348
H	 3.2445720581	-2.3720804194	 0.8401947545	 0.107014
H	 3.2053767386	-1.0994475835	-0.388654824	 0.098047
H	 2.4382727622	-0.8830522283	 2.5677987831	 0.105871
H	 3.4335978473	 1.139965631	 0.5973718241	 0.06983
H	 0.1182064209	-0.8833506567	 2.0756012134	 0.073034
30.5452	63.8984	185.7158	228.3835	275.3461	296.5294	347.2685	379.3215	462.5366	542.6525	616.2358	711.9808	741.0356	815.7657	838.1525	871.3264	897.0996	930.4708	940.2438	983.8534	1017.2306	1052.7021	1067.0812	1078.1814	1118.4079	1134.4019	1147.7853	1158.9617	1197.3627	1223.0597	1226.5463	1256.9695	1285.3588	1291.0585	1298.4253	1321.8506	1329.353	1363.9803	1415.4505	1423.5047	1478.1346	1488.8928	1494.789	1505.4819	1819.0496	2837.5982	3030.2024	3034.2601	3038.197	3044.175	3065.6057	3091.2274	3094.1043	3098.0584	3099.2731	3106.0286	3114.0057
CC1CC2CC(C=O)C12	C[C@H]1C[C@H]2C[C@@H](C=O)[C@@H]12	
InChI=1S/C8H12O/c1-5-2-6-3-7(4-9)8(5)6/h4-8H,2-3H2,1H3	InChI=1S/C8H12O/c1-5-2-6-3-7(4-9)8(5)6/h4-8H,2-3H2,1H3/t5-,6-,7-,8-/m0/s1
