18
gdb 90603	2.41659	1.63516	1.24169	4.5127	73.06	-0.2366	0.0149	0.2515	1066.6864	0.147138	-439.081104	-439.072512	-439.071568	-439.114437	31.398	
C	-0.1103943916	 1.534665494	-0.0490428519	-0.413814
C	 0.058104929	 0.0344913211	 0.0414713323	 0.138839
O	 1.0893898061	-0.4783144048	-0.8496488962	-0.30849
C	 1.7295703632	-1.2036916365	 0.2185823638	-0.039449
C	 0.7545531081	-0.6182566467	 1.2696642125	-0.084212
N	 1.888206522	 0.1068211779	 1.833652377	-0.067011
C	 1.996393928	 1.103389942	 2.8709940041	-0.352958
C	 2.8272179367	-0.3611425826	 0.9318862668	 0.39845
O	 3.9980982319	-0.1273752735	 0.7989660977	-0.368962
H	 0.8216956234	 2.0492251926	 0.197792917	 0.133901
H	-0.3931528097	 1.8166028139	-1.0677521115	 0.136944
H	-0.9001378134	 1.8752077698	 0.6294166927	 0.117963
H	-0.8891273276	-0.479295599	-0.1739361041	 0.083872
H	 1.9029828953	-2.2585850946	 0.0044985373	 0.105074
H	 0.1566890891	-1.1938330955	 1.9767389485	 0.093266
H	 1.6811545874	 0.7022250547	 3.8411626011	 0.130835
H	 3.0480674074	 1.3936669569	 2.9341531816	 0.164839
H	 1.3973635948	 1.9943920306	 2.6510404711	 0.130912
96.4907	130.1133	136.9187	199.0629	238.8575	247.4583	283.6571	393.7214	432.5007	579.1275	667.5103	689.9664	777.9418	822.0094	841.9272	883.5766	918.7119	968.1391	988.8174	1069.8716	1076.9824	1096.8806	1140.6719	1147.8887	1174.4851	1181.1456	1270.8026	1283.743	1292.1207	1323.2927	1378.9813	1399.6871	1411.2826	1448.7219	1479.2401	1485.1535	1496.704	1516.5077	1878.8257	3007.641	3022.2497	3039.3772	3076.3879	3106.7575	3109.2973	3119.5255	3125.883	3129.5446
CC1OC2C1N(C)C2=O	C[C@H]1O[C@@H]2[C@H]1N(C)C2=O	
InChI=1S/C6H9NO2/c1-3-4-5(9-3)6(8)7(4)2/h3-5H,1-2H3	InChI=1S/C6H9NO2/c1-3-4-5(9-3)6(8)7(4)2/h3-5H,1-2H3/t3-,4+,5-/m1/s1
