16
gdb 76215	2.40544	1.59731	1.01205	8.0122	76.43	-0.2141	-0.0617	0.1524	1130.6579	0.123786	-437.944339	-437.935476	-437.934532	-437.978044	32.294	
C	-0.0950846864	 1.5670064447	-0.0001259645	-0.401167
C	 0.0296504683	 0.0362798782	-0.031087564	-0.217968
C	 0.818962869	-0.535825983	-1.1891947827	 0.394728
N	 0.4395978746	-0.2600414316	-2.4524891641	-0.573631
C	 1.8659046597	-1.3210491455	-0.7966374424	-0.332155
C	 1.9597938076	-1.3991813879	 0.6456213505	 0.299531
O	 2.7412868714	-1.999459427	 1.3521548563	-0.343406
C	 0.8087991172	-0.5040363193	 1.1786793475	 0.305236
O	 0.5759790275	-0.2464548018	 2.3278532147	-0.296069
H	 0.8860671348	 2.0427469325	-0.0907955576	 0.133798
H	-0.736589612	 1.9467582881	-0.8016535422	 0.108752
H	-0.5326906529	 1.8658615056	 0.955639265	 0.154918
H	-0.9779963574	-0.4027930653	-0.016182697	 0.121743
H	-0.3099676684	 0.3822553221	-2.6388319555	 0.27088
H	 0.9747085925	-0.5893301221	-3.2383249651	 0.271661
H	 2.5476016545	-1.8320447277	-1.4648815391	 0.103149
57.3449	154.4794	161.3955	213.0509	234.7016	253.1833	317.5384	332.0151	466.9909	516.4917	546.9032	584.3915	639.4123	656.3215	716.4045	805.3279	839.6274	859.2523	969.0614	1058.3565	1067.4456	1080.9264	1115.3757	1215.509	1249.2253	1296.99	1312.7863	1399.7518	1428.8139	1494.7748	1499.806	1619.9946	1669.5296	1799.9152	1856.3515	3013.3323	3039.2855	3107.7163	3128.7038	3210.4782	3612.7595	3734.2335
CC1C(N)=CC(=O)C1=O	C[C@H]1C(=CC(=O)C1=O)N	
InChI=1S/C6H7NO2/c1-3-4(7)2-5(8)6(3)9/h2-3H,7H2,1H3	InChI=1S/C6H7NO2/c1-3-4(7)2-5(8)6(3)9/h2-3H,7H2,1H3/t3-/m0/s1
