19
gdb 113770	2.78111	1.08883	0.83817	3.1762	73.12	-0.2534	-0.0457	0.2077	1353.4008	0.157818	-460.151017	-460.141689	-460.140745	-460.185521	34.434	
O	 0.3062116306	 0.6398454986	 0.7789076075	-0.429336
C	-0.1818396374	 0.2432632522	-0.484669139	-0.071273
C	-1.5134630115	-0.4740238091	-0.3906358649	-0.031956
C	-1.9223704035	-1.5318161631	-1.3820353909	-0.322833
C	-1.5927533978	-1.9237805464	 0.0410127577	-0.027761
C	-0.3224845584	-2.6945662745	 0.3603835406	 0.019146
O	 0.3130784099	-2.1998751506	 1.5175865194	-0.432349
C	-0.6366000845	-4.1662976242	 0.5416295724	 0.136798
O	-0.366207865	-4.7517122963	 1.5623933929	-0.262088
H	 0.4123482987	-0.1673095777	 1.3025016665	 0.297718
H	-0.302201221	 1.160500127	-1.0722108724	 0.106256
H	 0.5473276929	-0.3814282861	-1.0277511233	 0.075895
H	-2.3100541137	 0.1508501721	 0.003137258	 0.100074
H	-2.955338975	-1.5791387096	-1.7070326444	 0.120403
H	-1.2049088191	-1.7990266764	-2.1527438656	 0.115212
H	-2.4289431507	-2.1717464219	 0.6894335819	 0.096362
H	 0.3642647731	-2.6254410249	-0.5003662373	 0.100389
H	 0.3807470176	-2.9478601699	 2.1329488443	 0.299481
H	-1.1377097352	-4.6674579392	-0.3096408334	 0.10986
62.1948	101.0478	139.8998	186.0186	199.4529	294.8447	338.1863	345.6525	361.2654	435.8608	496.5115	540.6706	575.0674	750.8257	796.7919	812.9674	855.5144	883.5572	969.2047	995.4663	1011.5931	1021.9149	1072.3017	1085.8414	1137.0925	1142.2225	1160.0635	1173.1095	1230.1122	1255.0481	1259.3939	1309.4296	1362.3856	1391.7448	1397.4465	1417.7853	1438.6673	1468.7874	1491.1252	1510.7034	1812.0698	2946.2434	2957.538	2971.9404	3059.2863	3127.3949	3138.3169	3153.1655	3213.7952	3681.389	3735.3382
OCC1CC1C(O)C=O	OC[C@H]1C[C@H]1[C@@H](O)C=O	
InChI=1S/C6H10O3/c7-2-4-1-5(4)6(9)3-8/h3-7,9H,1-2H2	InChI=1S/C6H10O3/c7-2-4-1-5(4)6(9)3-8/h3-7,9H,1-2H2/t4-,5-,6+/m1/s1
