18
gdb 107606	2.71277	1.55419	1.13157	3.6104	71.65	-0.2406	-0.0277	0.2129	1088.7422	0.148739	-439.089133	-439.081016	-439.080071	-439.12188	31.092	
O	-0.0232941856	 1.3865113646	 0.4836383398	-0.418913
C	 0.0506230147	 0.0327757961	 0.0854984673	-0.175882
C	-1.3157004254	-0.5683790462	-0.1207539077	 0.194481
N	-2.1516288146	-1.0840527233	 1.0088321544	-0.363321
C	-1.688124978	-2.0086093914	-0.0317088381	-0.09615
C	-2.7777936216	-2.3280717107	-1.0504297497	-0.222721
C	-3.3260015677	-0.9483907898	-1.4852862162	-0.330057
C	-2.2129063573	 0.0482422685	-1.1583548498	 0.411869
O	-2.0301729658	 1.1296290307	-1.6710320764	-0.348815
H	-0.5230418167	 1.8372011462	-0.2109373935	 0.299673
H	 0.6350173195	-0.0831034219	-0.8417962866	 0.098349
H	 0.5856665093	-0.5075534178	 0.8757487095	 0.100576
H	-1.5456187954	-1.1502025617	 1.8252977753	 0.241539
H	-0.9429245274	-2.7576398348	 0.2187979343	 0.0977
H	-2.3338497334	-2.8518404026	-1.9037242861	 0.111923
H	-3.5508480753	-2.9751821866	-0.6268853246	 0.116836
H	-3.5996939	-0.8864873308	-2.5400509333	 0.130324
H	-4.2053770992	-0.6643691085	-0.8978866088	 0.15259
101.1514	111.6856	168.265	241.9405	270.0764	369.8956	431.6512	487.379	529.8857	537.1988	633.9844	659.3615	699.7198	808.278	824.9139	883.6695	892.2332	977.7096	992.4532	1019.0996	1037.6984	1065.2332	1090.7042	1096.3824	1160.2442	1176.8247	1211.4475	1238.4298	1280.202	1297.7186	1340.5078	1374.3746	1386.1191	1430.7394	1446.4469	1454.295	1489.9069	1495.7655	1816.3589	2972.4276	3050.886	3052.2067	3064.5804	3096.0803	3124.9813	3159.3277	3484.2597	3754.1287
OCC12NC1CCC2=O	OC[C@]12N[C@H]1CCC2=O	
InChI=1S/C6H9NO2/c8-3-6-4(7-6)1-2-5(6)9/h4,7-8H,1-3H2	InChI=1S/C6H9NO2/c8-3-6-4(7-6)1-2-5(6)9/h4,7-8H,1-3H2/t4-,6-/m0/s1
