15
gdb 132774	2.33983	1.81708	1.02609	3.4813	72.61	-0.2118	-0.0015	0.2103	1068.1445	0.114889	-458.148417	-458.14078	-458.139836	-458.180169	29.911	
N	-0.0730747393	 1.4194682799	 0.0799414218	-0.60963
C	-0.0093431108	 0.0160962729	 0.0137610955	 0.205329
C	-1.2160264032	-0.7046964583	-0.0160495737	 0.155971
N	-2.4422734923	-0.0477700704	-0.0520081235	-0.607474
C	-1.1081023076	-2.0914686186	-0.0495140897	 0.187001
F	-2.2460103695	-2.8101051794	-0.0772250638	-0.09476
C	 0.1242727613	-2.7215121206	-0.0315236809	-0.109872
N	 1.2672326032	-2.0350400304	 0.0192034543	-0.286332
C	 1.1856906302	-0.7033196657	 0.0338003119	-0.063687
H	 0.8354214932	 1.8563565418	-0.009030198	 0.249434
H	-0.7073849516	 1.8111278593	-0.608540608	 0.252755
H	-2.4657885943	 0.77716875	 0.535421761	 0.258387
H	-3.2271048485	-0.6591325175	 0.1264440599	 0.258345
H	 0.1746465206	-3.8063019391	-0.0536984278	 0.113388
H	 2.1292877784	-0.1599870239	 0.0637279212	 0.091146
158.3023	233.1014	254.6079	283.4118	305.0738	308.5776	465.9602	486.7304	506.0648	572.5455	590.4144	597.9627	693.8232	707.5008	754.5447	809.7892	863.8374	893.4376	932.8917	989.122	1116.5551	1191.189	1221.8164	1288.5154	1309.6253	1346.6074	1367.915	1473.7375	1546.4589	1606.4216	1632.4958	1652.8272	1666.0573	3131.5362	3171.244	3511.1643	3533.216	3613.7196	3641.7058
NC1=C(N)C(F)=CN=C1	Nc1c(N)c(F)cnc1	
InChI=1S/C5H6FN3/c6-3-1-9-2-4(7)5(3)8/h1-2H,7H2,(H2,8,9)	InChI=1S/C5H6FN3/c6-3-1-9-2-4(7)5(3)8/h1-2H,7H2,(H2,8,9)
