18
gdb 15682	3.49049	1.68344	1.20831	4.1061	67.56	-0.2605	0.0141	0.2747	1013.0606	0.154859	-384.997889	-384.990018	-384.989074	-385.030353	28.906	
C	 0.14333595	 1.6112259491	 0.1055141737	-0.392873
C	 0.0112598304	 0.0861243852	 0.0541640135	-0.186743
C	 0.5414700657	-0.5407278158	-1.2420933283	-0.127238
C	 0.6425781588	-2.0722024245	-1.254231896	-0.254712
C	 0.5065756865	-2.3959725412	-2.7463438799	-0.087582
O	-0.3216367579	-1.3533571835	-3.2896211503	-0.217801
C	-0.3313092112	-0.2654604506	-2.4711759555	 0.444925
O	-0.9567065473	 0.7205206315	-2.7408294373	-0.338755
H	 1.1939661559	 1.9160685915	 0.036989113	 0.108182
H	-0.3995292741	 2.0728279925	-0.721174201	 0.157397
H	-0.2544071018	 2.0022116276	 1.0468803022	 0.110364
H	 0.5569910947	-0.3613009868	 0.8941952889	 0.097139
H	-1.0396014496	-0.2022185126	 0.1809642112	 0.10673
H	 1.5281052431	-0.1101216357	-1.4702645719	 0.106667
H	 1.5709674272	-2.4546023334	-0.8249251113	 0.114235
H	-0.1938743286	-2.5053949933	-0.6944659822	 0.117773
H	 1.4748847324	-2.3780312039	-3.2612194343	 0.116083
H	 0.0185946058	-3.3504936559	-2.9538377243	 0.126208
81.6713	126.2009	197.7472	201.7707	253.3416	310.7325	385.0828	502.2868	583.7284	670.6866	710.6745	749.6435	823.002	875.8462	937.5983	960.7928	986.7041	1037.2802	1062.2205	1086.7025	1143.5132	1144.405	1179.6903	1210.342	1238.9015	1273.661	1292.5253	1338.6017	1360.4328	1377.6509	1401.3822	1410.6766	1486.5255	1495.2938	1498.0558	1516.0692	1524.773	1869.0997	3001.0947	3023.6197	3034.0108	3036.0858	3050.2606	3059.7574	3099.7345	3106.2608	3116.0135	3142.9717
CCC1CCOC1=O	CC[C@H]1CCOC1=O	
InChI=1S/C6H10O2/c1-2-5-3-4-8-6(5)7/h5H,2-4H2,1H3	InChI=1S/C6H10O2/c1-2-5-3-4-8-6(5)7/h5H,2-4H2,1H3/t5-/m0/s1
