16
gdb 54066	2.21631	1.15159	0.89731	2.5801	74.17	-0.2581	-0.0378	0.2203	1323.6446	0.119568	-437.854716	-437.8445	-437.843556	-437.891503	34.548	
C	-0.3867147615	 0.3852540968	 0.9872295167	-0.478758
C	 0.4033169238	 0.5954550331	-0.27944449	 0.374562
O	 0.937567385	 1.6279992557	-0.5899900206	-0.287673
C	 0.494376041	-0.6197813353	-1.2472221917	-0.15727
O	 0.6263889795	-1.797703462	-0.4450878774	-0.190566
C	 0.9104466026	-2.9493815999	-1.1014679031	 0.13688
N	 1.0569246279	-4.0125771	-0.44285111	-0.433703
C	-0.6929227034	-0.6536796262	-2.0975856911	 0.339736
C	-1.6845687953	-0.6666679168	-2.7764753226	-0.463467
H	-0.4706884183	 1.3299120427	 1.5246466432	 0.143763
H	-1.3793626846	-0.0115487346	 0.7505925969	 0.154383
H	 0.1095254693	-0.3650025548	 1.6099269395	 0.171873
H	 1.3936162148	-0.4649490107	-1.8551394501	 0.134609
H	 0.9870179877	-2.8287805985	-2.1887895467	 0.104041
H	 1.271651827	-4.7856499369	-1.069237867	 0.235363
H	-2.5559488455	-0.6808826225	-3.3846217462	 0.216228
41.6177	59.1062	77.837	122.9709	138.0765	150.2248	222.1119	314.1828	368.1223	420.1934	502.5831	538.3436	599.3082	643.4185	686.8387	700.0939	813.6176	819.2535	955.8211	974.0468	1030.0358	1039.1595	1059.5036	1114.7768	1216.2745	1265.0943	1289.5182	1331.5568	1383.4431	1423.6187	1458.6169	1467.0079	1748.9064	1834.9821	2231.3602	3041.4298	3050.676	3052.0667	3116.6343	3162.6254	3498.6991	3520.6307
CC(=O)C(OC=N)C#C	CC(=O)[C@@H](O[CH][NH])C#C	
InChI=1S/C6H7NO2/c1-3-6(5(2)8)9-4-7/h1,4,6-7H,2H3	InChI=1S/C6H7NO2/c1-3-6(5(2)8)9-4-7/h1,4,6-7H,2H3/t6-/m0/s1
