20
gdb 56791	2.90053	1.04619	0.9555	3.9943	85.6	-0.2478	0.0049	0.2527	1342.8249	0.171786	-366.051596	-366.042464	-366.04152	-366.086048	33.489	
C	 0.0160301317	 1.5362890701	-0.0124056094	-0.392532
C	-0.0134621271	-0.0102449132	 0.0279708857	-0.252703
C	 0.7424152805	-0.497042446	 1.1931271387	 0.272386
N	 1.3268225368	-0.8725728162	 2.117080112	-0.332975
C	-1.4189136189	-0.5682620714	 0.040026345	 0.371474
C	-1.9723660433	-1.2969573035	-0.9298593413	-0.188005
C	-3.4120649181	-1.6426382858	-0.6399660953	-0.245993
C	-3.5596221702	-1.2800927444	 0.8611478034	-0.206995
C	-2.4007695533	-0.2970205098	 1.1635469765	-0.3112
H	 1.0451116395	 1.9018274653	-0.051634891	 0.137161
H	-0.5181026009	 1.8852302142	-0.8997547751	 0.129635
H	-0.4634822741	 1.9602198362	 0.8731043493	 0.141616
H	 0.498942627	-0.3892461541	-0.8642412007	 0.127011
H	-1.4695837158	-1.5902870551	-1.8460189339	 0.090847
H	-4.0864494793	-1.0501574383	-1.274794554	 0.107928
H	-3.6463284574	-2.6933083162	-0.8435812789	 0.108209
H	-4.5405383409	-0.8648886019	 1.1038087663	 0.100184
H	-3.4315237775	-2.1837578217	 1.4645748201	 0.114081
H	-1.9612273052	-0.4549980448	 2.154485703	 0.12375
H	-2.7374407736	 0.7490119866	 1.1377067595	 0.106121
52.8909	95.3306	148.2637	179.6319	202.5188	224.9837	297.7545	359.9236	442.9694	524.4741	579.1396	630.4861	690.7688	813.2597	824.7478	862.6872	883.3676	909.6938	920.8236	957.3747	989.9879	1038.2497	1063.2148	1082.2418	1095.1581	1155.6282	1182.5866	1233.2967	1244.0597	1265.8818	1311.8102	1321.3935	1323.5828	1331.8744	1373.8784	1406.2397	1483.606	1488.0093	1492.3612	1498.4113	1506.6588	1716.6088	2353.7423	3006.4419	3007.969	3043.5065	3051.2908	3051.6614	3060.7653	3069.2334	3107.7327	3131.0784	3133.6699	3182.5296
CC(C#N)C1=CCCC1	C[C@@H](C#N)C1=CCCC1	
InChI=1S/C8H11N/c1-7(6-9)8-4-2-3-5-8/h4,7H,2-3,5H2,1H3	InChI=1S/C8H11N/c1-7(6-9)8-4-2-3-5-8/h4,7H,2-3,5H2,1H3/t7-/m0/s1
