19
gdb 38728	2.55661	2.14602	1.56848	1.319	73.34	-0.2221	0.0808	0.3029	907.2151	0.161993	-422.984921	-422.978245	-422.977301	-423.015502	28.519	
C	 0.033243444	 1.5269004441	 0.0965372071	-0.401455
C	 1.420925091	 0.8812253298	 0.188210621	 0.043022
O	 2.039137123	 0.3411590886	 1.3357318962	-0.278639
C	 1.5776014637	-1.0342412638	 1.3035776702	 0.103287
C	 0.0723486501	-0.8300016591	 1.1353123069	-0.294935
C	 0.2131886892	 0.0571141816	-0.1174967716	 0.398599
O	 0.1834867749	-0.6555144446	-1.3135530781	-0.312025
C	 1.0229562612	-1.8243920776	-1.1474190648	-0.091519
C	 2.0736671262	-1.7636453401	 0.0101822498	-0.249293
H	-0.5150024651	 1.8392022013	 0.9794394908	 0.122366
H	-0.0790280727	 2.180172095	-0.7635964094	 0.126102
H	 2.1029255511	 1.146280461	-0.6137159248	 0.097543
H	 1.928143095	-1.5116470132	 2.2212928087	 0.075987
H	-0.5060546412	-1.7339207304	 0.9345110924	 0.109119
H	-0.3596452777	-0.3085548139	 1.9916976336	 0.105848
H	 0.3652820332	-2.6865836139	-0.9772667271	 0.105001
H	 1.527296951	-1.9866166217	-2.1047358038	 0.11173
H	 2.9978107541	-1.2795703902	-0.3179311677	 0.123648
H	 2.3303038491	-2.8015368831	 0.2483528408	 0.105612
188.7117	240.9462	364.2666	371.005	419.9534	464.2664	499.422	582.5631	631.0488	711.7354	764.0214	799.432	833.7909	856.7585	898.5108	916.1026	937.486	952.2604	968.3963	999.9892	1029.5943	1053.2651	1077.9711	1084.4657	1096.8671	1131.7938	1137.1536	1218.892	1232.3048	1244.6857	1279.651	1301.7154	1323.2844	1342.1255	1345.8844	1389.7713	1421.4788	1472.0975	1477.447	1492.6375	1521.0632	3013.5207	3049.8156	3073.1341	3075.6121	3094.5357	3101.7658	3123.8782	3129.2382	3154.6645	3215.9289
C1C2OC3CC12OCC3	C1[C@H]2O[C@H]3C[C@@]12OCC3	
InChI=1S/C7H10O2/c1-2-8-7-3-5(1)9-6(7)4-7/h5-6H,1-4H2	InChI=1S/C7H10O2/c1-2-8-7-3-5(1)9-6(7)4-7/h5-6H,1-4H2/t5-,6-,7-/m1/s1
