21
gdb 69516	2.34992	1.64723	1.2848	1.9317	82.69	-0.216	0.0771	0.2931	1114.986	0.179603	-387.03807	-387.028733	-387.027789	-387.071247	36.295	
C	-0.0616471052	 1.5764144065	 0.1136659063	-0.495869
C	 0.0256806782	 0.0793192629	 0.0402571961	 0.289024
C	-0.8831693955	-0.866615991	 0.7788347515	-0.339057
C	 0.6005975772	-0.90677147	 1.0515298038	-0.189553
C	 1.3824775953	-1.6083493991	-0.1062675437	 0.346676
C	 2.6814632361	-2.332223415	 0.0208335977	-0.506069
O	 0.4271560981	-2.0672848255	-1.085268459	-0.326566
C	 0.8222371429	-0.679812215	-1.0904367227	 0.285601
C	 1.3210102202	-0.0922922382	-2.3700041787	-0.510582
H	 0.914405559	 2.050255591	-0.04578376	 0.114265
H	-0.7508574392	 1.9793254583	-0.6388337447	 0.120193
H	-0.4251446805	 1.8960684822	 1.095741792	 0.119777
H	-1.4723765787	-0.4010362861	 1.5636784256	 0.103194
H	-1.3635255449	-1.6911251223	 0.2676713729	 0.130627
H	 1.0330271164	-0.6901993488	 2.0205831499	 0.084833
H	 2.5445116491	-3.2828312732	 0.5495267647	 0.131838
H	 3.102781415	-2.5484510405	-0.9644385124	 0.13058
H	 3.4027181343	-1.7350429334	 0.5888955198	 0.123586
H	 0.4918659576	 0.0908150389	-3.0635388556	 0.131077
H	 1.8262478855	 0.8625710408	-2.1934764301	 0.124714
H	 2.0233937192	-0.7744442727	-2.8562622734	 0.131712
144.2555	175.9918	184.5873	189.7009	204.6649	227.1672	288.6711	336.134	372.5405	451.0308	507.2795	555.4037	569.9904	621.8875	684.0743	745.0921	824.817	854.0554	873.0808	907.3875	934.6652	965.1815	998.7198	1039.8703	1082.6608	1092.2184	1107.4397	1114.2376	1125.8372	1170.1509	1200.4941	1267.5289	1280.7724	1368.7722	1407.8933	1408.1251	1420.0749	1467.2	1473.1976	1475.7103	1483.8955	1487.8827	1493.369	1501.3644	1537.8754	3015.6361	3029.8742	3032.2508	3070.0182	3090.8725	3092.4498	3094.0073	3117.6594	3120.2136	3133.0722	3189.437	3228.0892
CC12CC1C1(C)OC21C	C[C@]12C[C@H]1[C@@]1(C)O[C@@]21C	
InChI=1S/C8H12O/c1-6-4-5(6)7(2)8(6,3)9-7/h5H,4H2,1-3H3	InChI=1S/C8H12O/c1-6-4-5(6)7(2)8(6,3)9-7/h5H,4H2,1-3H3/t5-,6+,7-,8+/m1/s1
