15
gdb 74785	3.23002	1.46999	1.43381	4.0324	65.17	-0.2549	-0.0295	0.2254	963.9047	0.11335	-457.789816	-457.782829	-457.781884	-457.821255	27.038	
C	 0.00153283	 1.4808999266	 0.0503578354	-0.513165
C	-0.0604529396	-0.0021250839	-0.0413240472	 0.356391
C	-0.0822203052	-0.8378285469	-1.0822354419	-0.217611
C	-0.0211434722	-2.2390703575	-0.4693923503	-0.156342
O	-0.7379936478	-2.0549716918	 0.7700063348	-0.218895
C	 0.0233528514	-0.9494952486	 1.1708274985	 0.079532
O	 1.3936361544	-1.4836324739	 1.186373911	-0.254523
C	 1.4129824139	-2.3351978175	 0.1153441911	 0.4782
O	 2.3606581478	-2.9654976541	-0.241368449	-0.340463
H	 0.9294751836	 1.7975470318	 0.5432127947	 0.149214
H	-0.0357636302	 1.9457394735	-0.9376249178	 0.139277
H	-0.8264510721	 1.878466761	 0.6499286627	 0.139281
H	-0.0357077929	-0.6176448995	-2.1387379685	 0.129707
H	-0.3673581616	-3.0989511794	-1.0339249717	 0.119344
H	-0.2272010695	-0.5957722898	 2.1679943181	 0.110055
122.65	177.0696	208.0863	295.0898	396.4122	473.9935	534.7324	587.0356	628.1955	731.3359	773.1105	780.5693	803.7973	855.2314	878.1315	912.3047	936.2838	989.8289	1009.2681	1061.9072	1070.2883	1133.9424	1195.9428	1206.1834	1245.1002	1291.2821	1322.9906	1341.83	1413.3294	1477.2232	1483.8283	1698.3205	1908.2094	3022.6614	3071.7002	3121.8479	3165.1608	3185.9405	3243.8922
CC1=CC2OC1OC2=O	CC1=C[C@@H]2O[C@H]1OC2=O	
InChI=1S/C6H6O3/c1-3-2-4-5(7)9-6(3)8-4/h2,4,6H,1H3	InChI=1S/C6H6O3/c1-3-2-4-5(7)9-6(3)8-4/h2,4,6H,1H3/t4-,6-/m0/s1
