23
gdb 102317	2.46236	0.89361	0.76292	3.7466	82.87	-0.2439	-0.0165	0.2274	1614.0378	0.20227	-425.438459	-425.4271	-425.426156	-425.475572	40.208	
C	-1.4913793623	-0.3274836467	-0.147451265	-0.392085
C	 0.0121793232	-0.1299614812	 0.0894916285	 0.036946
C	 0.4700568868	-0.8513927242	 1.3646459746	-0.390987
C	 0.7960118893	-0.5785042409	-1.1599402738	-0.209258
C	 2.3357527215	-0.4524872398	-1.0806059519	-0.076615
C	 2.9848160208	-0.9180954141	-2.3812305044	-0.095843
O	 4.3898041595	-0.8074119184	-2.2177356443	-0.420036
C	 2.7281894919	 0.9873802162	-0.8043080438	 0.186626
O	 3.0267960263	 1.427436721	 0.2754589452	-0.257815
H	-1.8313262774	 0.2036553414	-1.0431903383	 0.10792
H	-1.731219516	-1.3895913601	-0.2790493175	 0.110803
H	-2.0748181259	 0.0408112386	 0.702304597	 0.113664
H	 0.1909286184	 0.9433815603	 0.2357429515	 0.088279
H	 0.4118926971	-1.9406594356	 1.2459382244	 0.104849
H	 1.4974750519	-0.5866798565	 1.6266491128	 0.138122
H	-0.1674942862	-0.5772204529	 2.2113717277	 0.110494
H	 0.5573991215	-1.6297071801	-1.3720872232	 0.100765
H	 0.4364197846	-0.0056636363	-2.0261567206	 0.094886
H	 2.7214361093	-1.0603781882	-0.2571879765	 0.109021
H	 2.6798228917	-1.9533484028	-2.5972934681	 0.094123
H	 2.6287522178	-0.2903810735	-3.2157114777	 0.088624
H	 4.815253618	-1.0387216106	-3.048635634	 0.290831
H	 2.683724028	 1.6518269342	-1.7012657027	 0.066687
51.7956	76.182	86.5691	129.2217	137.2656	223.7244	231.3955	263.4166	284.1625	297.8247	309.1286	345.237	409.1714	428.3042	529.7686	551.5318	810.2738	839.6333	897.0232	934.4025	938.0294	970.0721	983.3634	1035.1361	1041.7166	1071.7545	1125.4487	1146.7395	1174.2504	1194.8241	1230.5586	1248.6038	1258.757	1303.4683	1338.283	1350.8748	1372.8958	1386.9005	1401.4516	1422.3143	1429.057	1454.2934	1478.7927	1490.9567	1495.5687	1505.6901	1517.1856	1520.2167	1833.5157	2837.9972	2960.2052	2998.8158	3003.6277	3017.5629	3022.6351	3028.4939	3043.0089	3084.7484	3087.9645	3092.5475	3100.6515	3120.0803	3831.0911
CC(C)CC(CO)C=O	CC(C)C[C@@H](CO)C=O	
InChI=1S/C7H14O2/c1-6(2)3-7(4-8)5-9/h4,6-7,9H,3,5H2,1-2H3	InChI=1S/C7H14O2/c1-6(2)3-7(4-8)5-9/h4,6-7,9H,3,5H2,1-2H3/t7-/m1/s1
