17
gdb 116590	3.9526	0.93572	0.79225	3.2041	73.42	-0.2639	0.0009	0.2648	1435.8637	0.136143	-455.209122	-455.200146	-455.199202	-455.244428	31.334	
C	-0.4715103118	 0.3598782649	 0.945398932	-0.362398
C	 0.3885463191	 0.4889204885	-0.3125683728	-0.15158
N	 0.7068235812	-0.8338754557	-0.8407123727	-0.311852
C	 1.886147664	-1.1503132912	-1.1114576327	 0.4255
C	 2.3387527073	-2.494523244	-1.6550079465	-0.267805
N	 3.7676176302	-2.2929496416	-1.7136939508	-0.367766
C	 4.1527976999	-1.0366858488	-1.3538527381	 0.484199
O	 5.2426421515	-0.5471159405	-1.3353582085	-0.374052
O	 3.0043349673	-0.3438094003	-0.9726793848	-0.238807
H	-1.3720074459	-0.2249677148	 0.7381464561	 0.125779
H	 0.0815108907	-0.1415757078	 1.7456163493	 0.119738
H	-0.7713337435	 1.3485997254	 1.3059556046	 0.113989
H	-0.1827090469	 1.0167600428	-1.0867868744	 0.114229
H	 1.2849012675	 1.0854010416	-0.1050514679	 0.119543
H	 2.0464744108	-3.3055960637	-0.9793168107	 0.149422
H	 1.8902087642	-2.6873019872	-2.6367478987	 0.147706
H	 4.4356026244	-2.9403244076	-2.0927628934	 0.274154
35.6107	60.746	118.6951	144.5366	178.0556	265.0208	384.1976	394.8087	440.0988	548.0712	610.213	655.0484	739.788	766.5355	808.6297	864.9138	918.2314	962.0009	1028.3372	1065.4874	1080.8326	1110.9655	1126.3978	1172.9721	1194.378	1287.1903	1305.8088	1353.8211	1385.4209	1408.4905	1438.3119	1488.9837	1493.6616	1510.3546	1516.407	1820.0564	1928.2299	3020.4147	3033.3143	3040.9363	3059.4481	3069.0107	3112.5484	3121.2209	3691.6267
CCN=C1CNC(=O)O1	CCN=C1CNC(=O)O1	
InChI=1S/C5H8N2O2/c1-2-6-4-3-7-5(8)9-4/h2-3H2,1H3,(H,7,8)	InChI=1S/C5H8N2O2/c1-2-6-4-3-7-5(8)9-4/h2-3H2,1H3,(H,7,8)
