23
gdb 105798	2.27945	1.42737	1.1806	0.2844	89.21	-0.1997	0.0781	0.2778	1221.4859	0.205246	-351.083875	-351.07461	-351.073666	-351.117675	36.136	
C	 0.0315327279	 1.4975210658	 0.1665074321	-0.371673
C	-0.0616614735	-0.009032265	-0.1155406714	-0.286165
C	-1.4737062072	-0.5285359918	-0.0652463346	 0.346854
C	-2.1297099431	-1.0297692939	 1.1993107627	-0.064167
C	-3.3726790779	-0.5448359386	 1.948020727	-0.437805
C	-1.9818795996	-1.9674474944	 0.0166946115	-0.163584
C	-2.8968466821	-1.7209316786	-1.2109884896	-0.046633
C	-3.8871075199	-0.5990811159	-1.0715675593	-0.309096
C	-2.4290458015	-0.2763877806	-1.2750683098	-0.110657
H	 1.0643737691	 1.8524233231	 0.0925976552	 0.108013
H	-0.5700771381	 2.0705819172	-0.5472365159	 0.117822
H	-0.3365421209	 1.7313180322	 1.1708546171	 0.115883
H	 0.3698275158	-0.2212798085	-1.1038634815	 0.093297
H	 0.5503708584	-0.5590926944	 0.6102030793	 0.09212
H	-1.3337999321	-1.2792865801	 1.9022548532	 0.084205
H	-4.2187490475	-1.2295022853	 1.8385746399	 0.1281
H	-3.1513360326	-0.4774956928	 3.0178849826	 0.107956
H	-3.6939238905	 0.4492555637	 1.6261103901	 0.128746
H	-1.3912920346	-2.8729665248	 0.1008745241	 0.079675
H	-2.9555622498	-2.4349261854	-2.0225460625	 0.085034
H	-4.4844954041	-0.4397540731	-1.9661075354	 0.10745
H	-4.4252614148	-0.3933020186	-0.1589412714	 0.111981
H	-2.0885670613	 0.2728692097	-2.1444765733	 0.082644
82.4307	110.4617	133.6277	201.5073	236.1512	276.3271	307.634	354.1979	394.67	475.0578	579.8877	672.1211	685.892	732.6758	759.6506	782.4049	835.9071	875.4885	897.4542	919.4912	959.2037	978.1169	986.5268	1013.2879	1033.4349	1059.9399	1066.1469	1083.6219	1085.8554	1096.9754	1114.0249	1162.1582	1186.2317	1216.893	1251.9587	1284.0823	1309.1613	1338.8375	1354.1813	1368.0929	1406.5941	1413.9283	1468.753	1480.3799	1490.6022	1497.0486	1504.1488	1506.6785	1515.7731	3005.9762	3032.2949	3037.4058	3045.1226	3084.7617	3100.7265	3103.7476	3104.7462	3111.4733	3132.9709	3165.3904	3178.2555	3192.017	3251.992
CCC12C(C)C1C1CC21	CC[C@]12[C@@H](C)[C@H]1[C@H]1C[C@@H]21	
InChI=1S/C9H14/c1-3-9-5(2)8(9)6-4-7(6)9/h5-8H,3-4H2,1-2H3	InChI=1S/C9H14/c1-3-9-5(2)8(9)6-4-7(6)9/h5-8H,3-4H2,1-2H3/t5-,6-,7+,8-,9+/m0/s1
