18
gdb 43382	2.66338	1.79688	1.28892	5.6923	79.09	-0.2083	-0.0223	0.1859	994.9716	0.150755	-401.970648	-401.963128	-401.962184	-402.00258	29.523	
O	 0.0424874834	-0.0471063527	 0.5389804003	-0.365285
C	 0.0062363086	 1.096074348	 0.1081281072	 0.359664
C	-1.2669535385	 1.7833043886	-0.0990214009	-0.210308
C	-1.4960248332	 3.0400271596	-0.5631605838	 0.014323
N	-0.6038114905	 3.9848151361	-0.9552849934	-0.276717
C	 0.8343951587	 3.8141901248	-0.9482749788	 0.004443
C	 1.3077185214	 2.4917998711	-1.6207863496	-0.240992
C	 1.3120075995	 1.8173173219	-0.2151397888	-0.121833
C	 1.3878725632	 3.2506149998	 0.3937685836	-0.241019
H	-2.1356034816	 1.1893867427	 0.1599018711	 0.092764
H	-2.5269882695	 3.3742691045	-0.6473645321	 0.117006
H	-0.9677375952	 4.8654773757	-1.2711014252	 0.252766
H	 1.2740705673	 4.7428869725	-1.3156175535	 0.077756
H	 0.6692060097	 2.0654063164	-2.3969444521	 0.115491
H	 2.3236976017	 2.6023405055	-2.0063869208	 0.110794
H	 2.1292571193	 1.1330057664	 0.0101302992	 0.084818
H	 2.4249600436	 3.5611876348	 0.5390945328	 0.110825
H	 0.8163043123	 3.4580926144	 1.3005198648	 0.115505
98.5841	137.1202	229.5045	314.7156	363.1772	372.1402	436.9923	519.0452	520.4044	703.7249	733.7325	779.846	818.6272	836.2257	843.607	872.7881	924.99	967.9489	982.5771	998.8574	1003.6465	1070.8052	1083.446	1147.0252	1159.2883	1180.1734	1248.482	1261.4594	1265.4443	1287.1055	1309.6163	1334.7015	1387.9974	1437.3462	1463.6373	1489.2321	1538.9462	1665.3636	1733.628	3067.988	3070.689	3094.4012	3116.8464	3128.6533	3130.5141	3162.972	3202.1468	3677.8035
O=C1C=CNC2CC1C2	O=C1C=CN[C@@H]2C[C@H]1C2	
InChI=1S/C7H9NO/c9-7-1-2-8-6-3-5(7)4-6/h1-2,5-6,8H,3-4H2	InChI=1S/C7H9NO/c9-7-1-2-8-6-3-5(7)4-6/h1-2,5-6,8H,3-4H2/t5-,6+
