20
gdb 128101	1.88985	1.78294	0.98494	1.6349	82.86	-0.1993	0.0337	0.2329	1247.4499	0.17114	-399.353237	-399.343151	-399.342207	-399.388788	35.711	
C	 0.196252099	 1.3750839883	 0.5005670761	-0.325894
N	 0.0210804114	 0.0797336871	-0.1637021829	-0.388426
C	-1.2862140393	-0.4624176755	-0.1035271859	 0.008757
C	-1.7918426964	-1.2256739682	 0.9362398569	 0.360825
C	-1.1537404193	-1.6738311226	 2.2064876646	-0.511049
N	-3.0640612264	-1.5309627294	 0.5721210362	-0.273364
N	-3.4161291508	-1.0412644682	-0.6363000363	-0.298596
C	-2.3407489799	-0.3777000952	-1.0543830023	 0.304816
C	-2.3298351855	 0.3073097041	-2.3844787732	-0.505951
H	 1.231355849	 1.7069765327	 0.3733113568	 0.11462
H	-0.4737556998	 2.1665577394	 0.1275552214	 0.103638
H	 0.0107626268	 1.2622341032	 1.5728847412	 0.124623
H	 0.3274457257	 0.1469251289	-1.1270225724	 0.224033
H	-1.4512848562	-1.0613014054	 3.0666430444	 0.131821
H	-1.4041932948	-2.7142587153	 2.4408322279	 0.125557
H	-0.0682250732	-1.5980635993	 2.1014646184	 0.153494
H	-3.7340873671	-2.0740732334	 1.0889623911	 0.264548
H	-2.0600090561	 1.3656289807	-2.2937122518	 0.122932
H	-1.6118558262	-0.1519021384	-3.07533517	 0.121577
H	-3.3203133511	 0.2429221464	-2.8398651401	 0.14204
41.5105	98.1748	136.1313	146.3925	172.7128	183.1616	247.8049	257.5129	329.7067	421.787	469.5016	489.5998	574.0193	673.5986	686.3186	721.7515	767.8472	812.6423	988.2506	1007.7086	1035.498	1048.6309	1063.2057	1065.5349	1150.8958	1173.3524	1189.0508	1260.3178	1310.3789	1396.0642	1413.2723	1424.5493	1449.9659	1466.1658	1477.4249	1485.1206	1486.4874	1487.5573	1497.7883	1509.2169	1517.9999	1541.3405	1639.7516	2971.4779	3022.5926	3024.1192	3068.2242	3072.233	3075.8229	3108.2022	3119.2162	3129.7	3540.9961	3673.6289
CNC1=C(C)NN=C1C	CNc1c(C)[nH]nc1C	
InChI=1S/C6H11N3/c1-4-6(7-3)5(2)9-8-4/h7H,1-3H3,(H,8,9)	InChI=1S/C6H11N3/c1-4-6(7-3)5(2)9-8-4/h7H,1-3H3,(H,8,9)
