16
gdb 127990	3.74392	1.21664	0.92881	3.5022	79.7	-0.2432	-0.0871	0.1561	1241.3956	0.122388	-434.042347	-434.033569	-434.032624	-434.076826	30.905	
C	 0.0280475283	 1.4363527522	 0.0513196098	-0.318002
N	 0.0339220258	-0.0141446505	-0.0220448303	-0.28917
C	 0.5673581611	-0.6728388092	 0.9108052937	 0.464714
O	 1.1440577725	 0.0181052838	 2.0008186976	-0.279627
N	 1.7426580015	-0.6438560458	 3.0518423655	-0.037611
C	 1.7471518577	-1.9244497243	 2.9855320386	-0.01187
C	 1.1617998899	-2.6725182863	 1.8767503435	 0.300426
C	 1.2205734764	-4.1696958706	 1.8968207233	-0.487481
N	 0.6026059701	-2.0590828867	 0.8945013153	-0.315904
H	 1.0446314772	 1.8493116004	 0.0943194706	 0.127321
H	-0.4711935272	 1.8326905633	-0.8353897039	 0.122898
H	-0.5007468523	 1.8000714745	 0.9423397254	 0.127326
H	 2.2227047115	-2.4270546339	 3.8219884635	 0.141017
H	 0.7179947534	-4.5625696942	 2.7886250961	 0.147288
H	 0.742845023	-4.5726185737	 1.0038630775	 0.161387
H	 2.260855691	-4.513368909	 1.9410017635	 0.147288
33.6581	110.5132	135.2343	152.8967	202.5127	315.6141	319.325	370.7784	496.9141	524.0323	611.5957	636.0793	702.1828	755.6176	832.1441	903.1589	936.0254	970.507	1016.1602	1051.9269	1069.0874	1106.5872	1130.2538	1221.7878	1276.6225	1361.0963	1406.006	1436.5845	1467.7659	1475.0693	1483.4808	1498.2064	1621.8444	1699.4086	1755.0314	3004.6269	3032.6819	3055.0442	3086.1037	3112.5708	3158.674	3186.8277
CN=C1ON=CC(C)=N1	C[N]C1=N[C](C=NO1)C	
InChI=1S/C5H7N3O/c1-4-3-7-9-5(6-2)8-4/h3H,1-2H3	InChI=1S/C5H7N3O/c1-4-3-7-9-5(6-2)8-4/h3H,1-2H3
