18
gdb 40978	3.90882	1.25591	1.25186	1.3107	76.57	-0.2432	0.0211	0.2643	1063.6881	0.150242	-401.974715	-401.967406	-401.966462	-402.007299	28.256	
C	 0.0288491972	 1.5708945029	-0.1015836583	-0.157595
O	 1.3632399525	 1.9280728712	 0.3319595846	-0.220532
C	 1.989056216	 0.7498319697	 0.5545461178	 0.10518
N	 1.374780394	-0.3418543739	 0.3682214663	-0.297149
C	 0.0143044267	 0.0096700269	-0.0840695409	 0.307898
C	-1.0840427034	-0.5701369786	 0.8524189095	-0.310142
C	-2.1978804895	-0.9381328438	-0.0965698731	-0.064041
C	-1.7818397628	-0.9562040686	-1.3620382868	-0.064041
C	-0.3191199617	-0.6033636005	-1.4742403056	-0.31014
H	-0.683924379	 2.0205202042	 0.5951306239	 0.118247
H	-0.1278193081	 1.996367025	-1.0965946508	 0.118249
H	 3.0157566075	 0.8459487302	 0.890697577	 0.13951
H	-0.6955091775	-1.4549335181	 1.3729405646	 0.125024
H	-1.3812337239	 0.143894871	 1.6294197281	 0.09861
H	-3.1952605882	-1.1950724398	 0.2423028658	 0.093644
H	-2.3858106884	-1.2302317258	-2.2197956815	 0.093644
H	-0.0913121771	 0.0878638933	-2.2941199191	 0.09861
H	 0.2949495955	-1.4979571753	-1.6397301513	 0.125024
49.377	78.3368	276.633	362.1229	379.9464	428.845	449.174	577.3736	666.1813	743.0751	776.6723	811.5605	858.6433	936.8442	941.0438	951.7242	967.4918	969.8649	977.365	983.2555	984.0241	1081.4741	1096.5946	1131.7707	1140.3758	1146.7727	1185.5067	1236.2842	1251.4668	1293.3056	1322.5659	1338.2408	1365.6986	1384.4907	1481.1477	1486.7128	1519.8989	1684.891	1703.5936	3023.7524	3025.9728	3053.5143	3057.46	3058.9055	3102.7012	3183.4805	3208.6358	3213.7191
C1OC=NC11CC=CC1	C1OC=N[C@]21CC=CC2	
InChI=1S/C7H9NO/c1-2-4-7(3-1)5-9-6-8-7/h1-2,6H,3-5H2	InChI=1S/C7H9NO/c1-2-4-7(3-1)5-9-6-8-7/h1-2,6H,3-5H2
