15
gdb 29893	3.34505	1.4653	1.02548	3.9127	72.37	-0.2432	-0.0391	0.2041	1094.7784	0.115515	-450.206079	-450.198195	-450.197251	-450.239073	28.508	
C	-0.017690555	 1.4657570804	 0.0022071913	-0.334624
N	-0.0008693183	 0.0072730601	-0.0104604698	-0.14516
C	-0.1285358242	-0.7236414698	-1.161805253	 0.105934
N	-0.1244636006	-2.0025672457	-1.261835301	-0.327732
C	 0.0241298785	-2.7501607755	-0.0894052118	 0.418321
N	 0.0485965903	-4.0191504303	-0.0165268383	-0.544541
N	 0.1563039129	-2.0138271343	 1.1003708772	-0.397265
C	 0.1538087983	-0.6507286163	 1.2225989139	 0.511654
O	 0.2700486202	-0.0466151441	 2.264622568	-0.394769
H	 0.9169516479	 1.8538751807	 0.4129038384	 0.161625
H	-0.1424729225	 1.8208788873	-1.0218168866	 0.137738
H	-0.8409539701	 1.8319490181	 0.6194884239	 0.161548
H	-0.2431474484	-0.1245139593	-2.0637291965	 0.136784
H	-0.058027995	-4.4024467192	-0.9542395156	 0.230742
H	 0.2644539159	-2.540773652	 1.9554940499	 0.279744
77.6798	93.1976	153.6007	212.2155	318.4596	387.6393	428.2841	465.3441	573.8091	619.314	655.564	754.6603	755.9248	773.2119	826.7029	868.8947	942.9293	987.4702	1066.2777	1122.7973	1158.1819	1221.1003	1275.7741	1358.2867	1402.0559	1413.0333	1447.6428	1471.3442	1471.593	1518.786	1691.7815	1735.4845	1830.0037	3058.9917	3130.0561	3146.2451	3152.7809	3515.7089	3622.2243	77.6838	93.1988	153.6006	212.2159	318.4596	387.6393	428.2841	465.344	573.8089	619.3139	655.564	754.66	755.9249	773.2119	826.7028	868.8949	942.9294	987.4699	1066.2776	1122.7974	1158.1813	1221.1004	1275.7742	1358.2865	1402.0558	1413.033	1447.6425	1471.3432	1471.5923	1518.785	1691.7815	1735.4839	1830.0036	3058.9917	3130.0562	3146.2452	3152.7809	3515.7084	3622.2244
CN1C=NC(=N)NC1=O	CN1[CH]N=C([NH])NC1=O	
InChI=1S/C4H6N4O/c1-8-2-6-3(5)7-4(8)9/h2H,1H3,(H2,5,7,9)	InChI=1S/C4H6N4O/c1-8-2-6-3(5)7-4(8)9/h2H,1H3,(H2,5,7,9)
