17
gdb 84619	2.40555	1.69709	1.27823	2.6903	72.95	-0.2576	-0.04	0.2176	1023.9531	0.135901	-418.001355	-417.993337	-417.992393	-418.033956	30.061	
C	-0.0684107398	 1.6194814876	-0.0182803521	-0.40083
C	 0.0637263653	 0.0987077877	 0.027519475	-0.033789
N	 0.8343143959	-0.4275803309	-1.1192952356	-0.202664
C	 1.7340392505	-1.1982304819	-0.6668415388	 0.02761
N	 1.8244608197	-1.4242310046	 0.749830439	-0.158785
C	 2.2244442738	-0.1931678459	 1.4515606572	-0.285737
C	 0.7722577858	-0.4852060503	 1.2554353181	 0.211245
C	-0.0254223113	-0.9630252747	 2.4173175265	 0.094874
O	-1.1960273126	-0.7168461274	 2.5657694981	-0.253954
H	 0.9080197875	 2.1096806147	 0.0419572832	 0.113933
H	-0.5433865701	 1.9251860243	-0.9537275609	 0.135716
H	-0.6849758973	 1.9652563448	 0.8162179186	 0.134247
H	-0.9442601197	-0.3313111055	-0.0141396863	 0.117359
H	 2.4416975784	-1.7313715779	-1.2950724374	 0.135316
H	 2.6771482852	-0.3533358784	 2.4260939667	 0.134646
H	 2.6559964993	 0.6107538372	 0.8619217054	 0.141456
H	 0.5479377095	-1.5682651788	 3.1527263432	 0.089357
86.3811	150.8009	196.6923	229.6855	253.585	304.7041	397.7968	467.8998	499.3757	586.8602	663.8765	731.4015	795.4144	819.9411	856.5342	921.4693	939.6893	953.7699	1033.8857	1036.8135	1075.8169	1104.0276	1121.8514	1133.3254	1154.9855	1248.1826	1291.1206	1326.8561	1332.8876	1379.3506	1405.1083	1427.067	1489.94	1493.7384	1501.1579	1683.9609	1818.6621	2900.7845	3040.3222	3045.679	3111.5132	3117.9092	3129.0606	3188.9297	3204.9185
CC1N=CN2CC12C=O	C[C@H]1N=CN2C[C@@]12C=O	
InChI=1S/C6H8N2O/c1-5-6(3-9)2-8(6)4-7-5/h3-5H,2H2,1H3	InChI=1S/C6H8N2O/c1-5-6(3-9)2-8(6)4-7-5/h3-5H,2H2,1H3/t5-,6-,8?/m1/s1
