20
gdb 79624	2.14741	1.89484	1.56555	1.9412	77.36	-0.2176	0.055	0.2726	986.9197	0.172391	-403.091724	-403.083749	-403.082805	-403.123636	32.272	
C	-0.0703955241	 1.591360345	 0.0946826585	-0.437995
C	 0.0303180912	 0.0810824228	-0.0303069002	 0.02652
C	 0.4881923205	-0.7055377105	-1.2136162543	-0.064826
C	 1.4020975486	-0.1268145136	-2.3048717008	 0.070053
O	 0.8540317848	 1.0768232306	-2.8378577129	-0.423242
C	 2.7818777769	 0.0153958012	-1.6393461594	-0.085122
C	 2.9529563404	 1.1013968881	-0.604098604	-0.301584
C	 2.5841584588	-0.3014833966	-0.1777293283	 0.00759
N	 1.2283139174	-0.7867810553	 0.0607362382	-0.131188
H	 0.3157036198	 2.1210634782	-0.7735111933	 0.154925
H	-1.1307262014	 1.849164174	 0.1844215445	 0.115415
H	 0.4269216358	 1.9506132104	 1.0017781651	 0.122446
H	-0.7773064475	-0.4049853855	 0.5180634893	 0.091582
H	-0.0760371927	-1.5913420532	-1.4998796355	 0.084005
H	 1.4814041971	-0.8731693147	-3.1087080854	 0.07368
H	 1.4937207931	 1.4371766387	-3.4604872252	 0.284194
H	 3.6489367862	-0.3310839492	-2.1916428844	 0.083006
H	 3.973565289	 1.4007477756	-0.3860310431	 0.109111
H	 2.2413202072	 1.9088740764	-0.5612554453	 0.125674
H	 3.3271211588	-0.8585103723	 0.3829785066	 0.095757
150.3141	162.5374	225.5793	264.4002	294.6874	334.859	347.9155	495.8198	547.0005	625.2364	630.5675	697.4948	735.2528	760.4737	804.6985	814.344	847.7695	957.5937	968.4205	981.1624	1029.0883	1032.5095	1056.9881	1059.5667	1106.4982	1113.5004	1128.7715	1138.6751	1160.9284	1168.804	1206.4623	1235.8927	1318.791	1331.0908	1339.9819	1378.4126	1386.7123	1410.5005	1421.4506	1438.9962	1481.8077	1495.7782	1523.5863	2989.6311	3040.8995	3083.9684	3096.9572	3113.8832	3146.0278	3155.7771	3165.1482	3167.0672	3285.7196	3815.0612
CC1C2C(O)C3CC3N12	C[C@H]1[C@H]2[C@@H](O)[C@H]3C[C@H]3N12	
InChI=1S/C7H11NO/c1-3-6-7(9)4-2-5(4)8(3)6/h3-7,9H,2H2,1H3	InChI=1S/C7H11NO/c1-3-6-7(9)4-2-5(4)8(3)6/h3-7,9H,2H2,1H3/t3-,4-,5+,6-,7-,8?/m0/s1
