23
gdb 104459	2.44342	1.32029	1.21388	1.8752	81.39	-0.2384	0.0776	0.316	1200.144	0.205715	-425.430509	-425.421006	-425.420062	-425.464639	36.428	
C	-0.1413915965	 1.4014671083	 0.0771508373	-0.244873
O	 0.0011877601	 0.0029884547	-0.0243691062	-0.282469
C	 0.6740744738	-0.52860907	-1.178419275	 0.368572
C	-0.0254752362	-0.1065471085	-2.4749846101	-0.444771
C	 2.1666164766	-0.1326876135	-1.1882025522	-0.238996
C	 2.9011672429	-0.7038918472	 0.0274054299	-0.077786
O	 2.7717968245	-2.11286227	 0.1007982066	-0.251821
C	 1.4141726099	-2.5101032172	 0.2207115669	-0.082234
C	 0.5858470005	-2.0535567012	-0.9825260784	-0.218912
H	 0.8211770713	 1.9320923961	 0.0913127339	 0.104461
H	-0.7561087629	 1.8247188891	-0.7289572064	 0.107367
H	-0.6471771072	 1.590283533	 1.0279194876	 0.126879
H	 0.0929660001	 0.9627461331	-2.6757081966	 0.112836
H	 0.3969726532	-0.6475273629	-3.3267281605	 0.117588
H	-1.0952575267	-0.3321511508	-2.4204333425	 0.11965
H	 2.6242152255	-0.5308457521	-2.1012685397	 0.102311
H	 2.2860193045	 0.9560391148	-1.2250283433	 0.090765
H	 3.9738052115	-0.4971987925	-0.0347922407	 0.100734
H	 2.5169206589	-0.2389008098	 0.9494219367	 0.093866
H	 1.421140399	-3.6014786506	 0.2955608091	 0.09993
H	 0.9786792193	-2.1029128112	 1.1453717536	 0.101943
H	-0.4630074246	-2.3384828058	-0.8466273231	 0.098221
H	 0.9589964924	-2.5500824959	-1.8850014269	 0.096739
51.3973	137.699	182.6336	196.7451	242.6368	280.8576	301.0999	336.2107	369.2922	419.1321	453.8622	496.1085	532.3838	616.7955	705.5062	801.0252	843.5774	882.461	890.0205	988.4011	992.8176	1014.2283	1021.2597	1046.5875	1116.9566	1129.5129	1153.4164	1178.6481	1187.9594	1197.181	1219.1248	1257.8555	1284.9137	1294.9358	1331.1036	1355.3045	1385.4869	1389.7449	1402.5316	1425.673	1458.0152	1467.758	1479.0274	1488.1563	1491.0069	1494.9335	1504.7089	1508.2707	1511.3898	2980.2151	2993.0345	3000.0346	3031.2932	3035.9269	3042.6674	3044.7806	3074.6784	3081.4548	3083.4991	3090.3228	3104.1531	3107.5571	3112.4491
COC1(C)CCOCC1	COC1(C)CCOCC1	
InChI=1S/C7H14O2/c1-7(8-2)3-5-9-6-4-7/h3-6H2,1-2H3	InChI=1S/C7H14O2/c1-7(8-2)3-5-9-6-4-7/h3-6H2,1-2H3
