25
gdb 121284	2.68599	0.94169	0.73409	0.2418	95.96	-0.2233	0.0363	0.2596	1658.4623	0.229217	-352.388135	-352.377974	-352.37703	-352.423384	38.173	
C	-0.5350637462	 1.4696819942	-2.4515697922	-0.381498
C	-0.402874831	-0.0540993126	-2.3781869884	-0.164202
C	 0.5040349198	-0.5218164731	-1.2336447357	-0.181638
C	 0.6176211441	-2.0493304001	-1.1128562768	-0.067805
C	 1.2710420584	-2.7349485492	-2.3428741664	-0.212356
C	 2.0810260579	-3.9284578866	-1.7809294851	-0.261125
C	 2.2657186687	-3.5514127373	-0.3328440533	-0.172684
C	 1.4807712481	-2.5401401742	 0.0442288832	 0.335222
C	 1.3630998904	-1.9689790554	 1.4236903998	-0.498025
H	-0.9559483592	 1.8757838056	-1.5248080928	 0.111951
H	 0.4404946492	 1.9445796993	-2.6049992578	 0.113007
H	-1.187179286	 1.7763404934	-3.2755244573	 0.109647
H	-1.3976480076	-0.5032614927	-2.2544230866	 0.092015
H	-0.0168721517	-0.4323511926	-3.3328849362	 0.099102
H	 1.5096348673	-0.0973386017	-1.366203653	 0.089361
H	 0.1198641951	-0.1091473493	-0.2912825263	 0.088989
H	-0.4039050144	-2.4406072209	-0.96649759	 0.067279
H	 0.5433694811	-3.0335769665	-3.101800236	 0.093412
H	 1.9582004701	-2.024196095	-2.8175277571	 0.097448
H	 1.5270668082	-4.8746865441	-1.8689509278	 0.100175
H	 3.0270914759	-4.0810045239	-2.3134546852	 0.097222
H	 2.9333394032	-4.0906406484	 0.3322124978	 0.078738
H	 2.0094487359	-2.4967169033	 2.1304630709	 0.119171
H	 1.632689329	-0.9061526466	 1.4492449439	 0.126146
H	 0.3313211936	-2.0351150287	 1.7941803184	 0.120447
76.1467	103.317	114.6075	141.8534	193.4983	247.1991	252.7221	269.2623	314.8977	365.4516	431.5653	558.3897	570.5162	670.0415	747.3979	814.1678	822.5584	852.4748	898.5642	900.289	930.7164	950.7452	992.3983	1022.845	1037.8578	1047.1373	1058.8258	1092.8692	1119.8492	1134.5977	1178.4143	1206.1577	1242.3447	1258.8201	1273.6119	1298.6576	1317.969	1332.2755	1339.9351	1349.5149	1368.0297	1394.008	1413.6442	1414.2847	1478.7791	1484.1468	1486.714	1491.2026	1495.0594	1501.0208	1503.1491	1511.1917	1721.2286	2950.1224	2997.9379	3002.6288	3014.7856	3016.8913	3028.3223	3032.0887	3034.9315	3050.1872	3058.5042	3062.2033	3094.1826	3095.2024	3099.8089	3107.1404	3176.8476
CCCC1CCC=C1C	CCC[C@H]1CCC=C1C	
InChI=1S/C9H16/c1-3-5-9-7-4-6-8(9)2/h6,9H,3-5,7H2,1-2H3	InChI=1S/C9H16/c1-3-5-9-7-4-6-8(9)2/h6,9H,3-5,7H2,1-2H3/t9-/m0/s1
