20
gdb 105387	2.98834	1.03897	0.88025	3.2838	76.77	-0.2448	-0.0205	0.2243	1366.9843	0.168396	-440.262826	-440.252625	-440.251681	-440.298298	36.53	
C	 0.0535334071	 1.4802792	-0.3013231671	-0.404691
C	 0.0618326089	 0.0139041301	 0.0661252123	-0.045727
N	 1.3542141114	-0.6926859483	 0.0284302137	-0.360407
C	 0.6424946054	-0.561334609	 1.3156684754	 0.294342
C	 1.3357774228	 0.3185877901	 2.345146823	-0.129091
O	 2.2597334528	-0.4225325323	 3.134436907	-0.413896
C	-0.0275827902	-1.7929169033	 1.912170636	-0.364367
C	 0.9440248433	-2.7650268438	 2.5603514279	 0.164608
O	 0.8080061527	-3.2116072695	 3.6725256757	-0.261939
H	 0.9584963654	 1.9876922437	 0.0373232836	 0.132277
H	-0.0000657773	 1.5932972032	-1.3893963728	 0.125269
H	-0.8157698757	 1.9877458497	 0.1307500493	 0.118701
H	-0.8016281887	-0.531998009	-0.3155659787	 0.079529
H	 1.2462239022	-1.6273930817	-0.3577515242	 0.226519
H	 1.9138804757	 1.0890727322	 1.8315983823	 0.12102
H	 0.585592186	 0.8177958073	 2.9749895969	 0.095787
H	 1.8096973894	-0.7575657085	 3.9157151444	 0.299211
H	-0.779867161	-1.5193368694	 2.6606172155	 0.118863
H	-0.5424777046	-2.3412188611	 1.1103767814	 0.116008
H	 1.7924402843	-3.0765953103	 1.9136111086	 0.087984
68.0684	90.6847	108.5181	151.4888	166.5876	199.1244	252.5599	301.6066	357.0097	371.1243	393.9491	480.242	516.6414	545.8253	732.1805	795.1212	849.2908	871.6119	939.8115	967.3372	998.647	1035.584	1047.0163	1069.629	1083.8015	1111.0702	1123.1136	1186.9332	1226.8817	1242.0963	1275.4745	1324.0177	1358.0933	1400.1784	1412.9766	1415.8661	1426.9898	1452.557	1462.6565	1485.0921	1492.5801	1503.3607	1818.8212	2900.5393	3005.8961	3013.5908	3038.3951	3076.6321	3093.544	3096.8019	3110.8463	3139.2068	3494.9212	3834.7287
CC1NC1(CO)CC=O	C[C@H]1N[C@]1(CO)CC=O	
InChI=1S/C6H11NO2/c1-5-6(4-9,7-5)2-3-8/h3,5,7,9H,2,4H2,1H3	InChI=1S/C6H11NO2/c1-5-6(4-9,7-5)2-3-8/h3,5,7,9H,2,4H2,1H3/t5-,6+/m1/s1
