17
gdb 44104	3.14097	1.68467	1.47419	2.8342	79.03	-0.2279	-0.0246	0.2033	932.0423	0.138141	-384.674492	-384.667968	-384.667024	-384.705268	27.046	
O	-0.1537756291	 0.0950152315	 0.203823012	-0.315966
C	-0.1023499919	 1.2940365981	 0.1420356699	 0.393919
C	-1.3525807715	 2.2544574831	 0.0126853973	-0.36898
C	-0.6311544965	 3.4488333262	 0.5652564857	 0.108293
C	-0.4681118691	 3.6479585177	 1.8843568333	-0.105319
C	 0.9962569623	 3.7633409224	 2.2486568139	-0.268934
C	 1.6636651506	 3.3478079199	 0.9411700123	-0.04639
C	 1.1637636048	 2.1397314186	 0.0543267592	-0.154845
C	 0.6967406143	 3.5629984588	-0.1622633344	-0.125084
H	-1.6503407048	 2.3243907358	-1.0399297286	 0.119915
H	-2.1897492157	 1.8826931713	 0.6044806178	 0.125615
H	-1.2273375372	 3.4288032972	 2.627808085	 0.103308
H	 1.3376954031	 4.7661161266	 2.5446884309	 0.114691
H	 1.2173238168	 3.0959361058	 3.0904030969	 0.123395
H	 2.7194439527	 3.5599865624	 0.7983691358	 0.092361
H	 1.9650212224	 1.6884681645	-0.5237895496	 0.10786
H	 0.8383515589	 4.1318118401	-1.0740838474	 0.09616
107.0289	257.8778	353.5495	383.6818	433.0308	565.7196	568.6463	640.6124	710.8284	713.1305	769.4366	803.3243	829.0488	850.2489	869.2553	926.1826	954.625	976.3763	991.1453	1012.8253	1039.707	1052.0658	1086.6446	1114.0478	1139.503	1168.8805	1190.7507	1219.6497	1257.8882	1301.6659	1312.0934	1323.591	1380.9233	1468.5477	1472.4478	1648.4715	1831.4462	3003.5415	3043.3915	3054.587	3133.6676	3151.484	3160.036	3177.3817	3187.8043
O=C1CC2=CCC3C1C23	O=C1C[C]2[CH]C[C@H]3[C@@H]1[C@@H]23	
InChI=1S/C8H8O/c9-6-3-4-1-2-5-7(4)8(5)6/h1,5,7-8H,2-3H2	InChI=1S/C8H8O/c9-6-3-4-1-2-5-7(4)8(5)6/h1,5,7-8H,2-3H2/t5-,7+,8+/m1/s1
