21
gdb 58289	2.41637	1.04254	0.93078	1.3634	75.53	-0.2689	0.0117	0.2805	1402.2222	0.178643	-461.412595	-461.401516	-461.400571	-461.449659	39.019	
C	-0.1766557038	 1.5230973073	-0.014614309	-0.409128
C	 0.0718831693	 0.0142430077	-0.0559348011	 0.132902
O	 0.8616770403	-0.3555991634	-1.1788675776	-0.438032
C	 0.6909550492	-0.5190353815	 1.2445106959	 0.119684
C	 0.7997962593	-2.0372855795	 1.2830769151	-0.411998
O	 2.0220117969	 0.0670042825	 1.2992309615	-0.274942
C	 2.5695336179	 0.2605962431	 2.5207182197	 0.43621
C	 3.9475994316	 0.8653698436	 2.394326986	-0.481565
O	 2.0193798033	-0.0159172376	 3.5556673876	-0.349964
H	 0.7578477285	 2.0643208273	 0.1647009522	 0.116125
H	-0.5911243864	 1.8565757223	-0.9691186373	 0.125689
H	-0.8798314647	 1.7865099273	 0.7826255802	 0.115773
H	-0.8847803324	-0.5035040029	-0.1944862669	 0.089863
H	 1.7469212809	-0.0095589504	-1.0146327116	 0.2847
H	 0.1295722777	-0.1563374286	 2.1097823457	 0.107225
H	-0.2005748193	-2.4814399681	 1.2662719976	 0.120097
H	 1.3507206517	-2.399091143	 0.4118245669	 0.13312
H	 1.3002924785	-2.3609657392	 2.1981186225	 0.134954
H	 3.8941728024	 1.8173662472	 1.8585795277	 0.148307
H	 4.3673237682	 1.0207613049	 3.387296599	 0.150934
H	 4.596208121	 0.2016706708	 1.8153986058	 0.150046
47.8005	60.576	80.5042	104.7861	177.9948	220.4328	229.7455	238.31	280.1112	332.2918	380.6426	394.6183	454.6642	518.0065	608.9537	627.1767	635.1917	795.4458	866.7514	929.273	959.5872	992.5802	1027.0276	1031.7191	1063.5048	1071.0923	1094.3528	1155.5661	1171.4162	1258.8027	1299.2493	1331.6581	1363.3233	1385.666	1395.5665	1401.3559	1405.951	1427.8116	1469.3554	1476.8288	1489.7322	1493.2378	1495.825	1499.6828	1824.0242	3037.2738	3042.6302	3050.0448	3056.19	3081.7233	3107.3288	3120.6713	3120.9131	3124.6232	3142.2789	3169.2116	3794.1868
CC(O)C(C)OC(C)=O	C[C@@H](O)[C@@H](C)OC(=O)C	
InChI=1S/C6H12O3/c1-4(7)5(2)9-6(3)8/h4-5,7H,1-3H3	InChI=1S/C6H12O3/c1-4(7)5(2)9-6(3)8/h4-5,7H,1-3H3/t4-,5-/m1/s1
