17
gdb 76238	2.88855	1.56424	1.13263	1.2345	69.46	-0.2316	0.0242	0.2558	1060.8403	0.137104	-455.139235	-455.131252	-455.130308	-455.171461	31.32	
N	-0.0511089509	 1.2313955321	-0.5844681619	-0.572892
C	-0.1258770878	-0.0468996642	-0.1084863508	 0.344527
N	-1.1923402822	-0.753331876	-0.0360156233	-0.290914
C	-0.8495838703	-2.0534818593	 0.5575174704	-0.232704
C	 0.6729550076	-2.1298987409	 0.5389921087	 0.350181
C	 1.5270071607	-3.2365228114	 0.956137742	-0.251993
O	 1.2943461713	-2.9800218489	-0.4417433785	-0.276264
C	 1.1429989896	-0.6777838249	 0.460692915	-0.032071
O	 2.3090505198	-0.4865192696	-0.304706137	-0.443339
H	 0.8569435548	 1.4934607269	-0.9398391501	 0.263106
H	-0.8357120156	 1.5394255846	-1.1399323691	 0.257312
H	-1.241408226	-2.1263926179	 1.5818524258	 0.107477
H	-1.2887466772	-2.8741825	-0.0195099038	 0.120283
H	 2.5408884805	-3.034248626	 1.2984171976	 0.124655
H	 1.0813096712	-4.1562012214	 1.3313630461	 0.125339
H	 1.3318800118	-0.2654921606	 1.4612435821	 0.11074
H	 2.3526661927	-1.2517705924	-0.8988546331	 0.296555
88.2576	231.9267	247.6875	250.46	280.5539	365.1091	433.0493	468.141	494.2776	511.548	546.7265	588.9569	656.5481	720.4926	774.2981	873.1371	887.6841	913.6665	968.9644	991.206	1036.2887	1117.9438	1120.3561	1162.6635	1173.5908	1197.3385	1235.6831	1258.1177	1298.0862	1317.5021	1414.3949	1427.701	1446.6013	1489.5668	1527.9326	1622.1329	1729.7364	3008.7463	3020.5022	3068.5873	3087.0876	3175.5745	3565.87	3679.1493	3708.0492
NC1=NCC2(CO2)C1O	N[C]1[N]C[C@]2(CO2)[C@H]1O	
InChI=1S/C5H8N2O2/c6-4-3(8)5(1-7-4)2-9-5/h3,8H,1-2H2,(H2,6,7)	InChI=1S/C5H8N2O2/c6-4-3(8)5(1-7-4)2-9-5/h3,8H,1-2H2,(H2,6,7)/t3-,5-/m0/s1
