19
gdb 104124	2.58024	1.30713	1.13473	5.2392	71.14	-0.2869	0.0446	0.3315	1176.3137	0.158539	-460.231085	-460.222076	-460.221132	-460.265069	33.138	
C	-0.0134777747	 1.5458370273	 0.1624710391	-0.398702
C	-0.0819656344	 0.0205557131	 0.0513222805	-0.211091
C	-1.50022765	-0.5586633469	-0.0883586635	 0.349364
C	-2.224987366	-0.1145336038	-1.3515310897	-0.444826
C	-1.4955895178	-2.0925349491	 0.0960152711	-0.139702
O	-1.8123020971	-2.2780254481	 1.4758758337	-0.244973
C	-2.3561480287	-1.136319572	 1.9752059843	 0.487773
O	-2.8261716093	-1.0315318339	 3.0625407994	-0.374172
O	-2.2848928728	-0.1412184846	 1.0583256587	-0.275774
H	 1.0142884177	 1.8651020453	 0.3566862427	 0.121074
H	-0.3416074406	 2.0398526572	-0.7569668496	 0.120023
H	-0.6406660162	 1.9026319876	 0.9833884672	 0.145565
H	 0.5060399464	-0.3262356398	-0.8080002971	 0.102855
H	 0.3745927916	-0.4311860052	 0.940824495	 0.114789
H	-1.6863590638	-0.464835395	-2.2379961992	 0.125854
H	-3.2372036687	-0.5265223611	-1.3745376427	 0.132356
H	-2.2983495923	 0.9735725232	-1.4025332212	 0.142394
H	-2.2570159814	-2.5883652857	-0.5163931002	 0.118151
H	-0.5208756018	-2.5426185984	-0.1042737186	 0.12904
65.7107	111.9252	148.4056	201.4092	229.4398	251.3145	319.9264	339.5369	395.5957	482.3126	553.5215	620.6487	726.6674	776.8431	785.0135	807.5981	885.1718	931.2258	965.9081	1007.1591	1010.7765	1036.3926	1076.834	1098.5071	1131.3215	1198.1361	1214.1082	1246.1487	1285.1319	1322.3026	1380.0502	1406.888	1412.5595	1415.692	1474.9647	1489.4405	1493.6238	1506.7419	1509.5269	1524.5621	1924.0628	3023.576	3041.735	3046.4271	3049.0558	3060.878	3109.8986	3112.2957	3119.3731	3128.0883	3136.1402
CCC1(C)COC(=O)O1	CC[C@@]1(C)COC(=O)O1	
InChI=1S/C6H10O3/c1-3-6(2)4-8-5(7)9-6/h3-4H2,1-2H3	InChI=1S/C6H10O3/c1-3-6(2)4-8-5(7)9-6/h3-4H2,1-2H3/t6-/m0/s1
