20
gdb 15271	2.61683	1.7098	1.29146	1.4815	72.44	-0.2273	0.074	0.3013	1057.8562	0.174487	-386.09728	-386.087634	-386.08669	-386.131591	33.812	
C	 0.0953705719	 1.1396640033	 0.3784473251	-0.23187
O	-0.1259502841	 0.0342875375	-0.4809844137	-0.231015
C	-1.3590655029	-0.5692261182	-0.2807686345	 0.064046
C	-1.4396007254	-2.0527763416	-0.5535137094	-0.108783
C	-0.2043760094	-2.7956589682	-1.0150983716	-0.397599
C	-1.5425866312	-1.5253229546	 0.8733622484	 0.063565
O	-0.4654240956	-1.6648917712	 1.7423546052	-0.231173
C	-0.4966113134	-2.8761332465	 2.4725571745	-0.231431
H	 1.0742502644	 1.5510076324	 0.1203527363	 0.122504
H	-0.6664749539	 1.9206448304	 0.2311030155	 0.09889
H	 0.093015324	 0.8325460998	 1.4306009847	 0.129158
H	-2.2137836734	 0.0569262616	-0.5472452248	 0.078701
H	-2.3734322483	-2.3931927005	-0.9939752597	 0.082563
H	 0.6777813546	-2.4533432655	-0.4731020999	 0.141423
H	-0.315647712	-3.8738373526	-0.8586128568	 0.107341
H	-0.0272008377	-2.6289541786	-2.0825210131	 0.118989
H	-2.5183641905	-1.5599777695	 1.3627414605	 0.078162
H	 0.3777449376	-2.8788322111	 3.1277125914	 0.127142
H	-1.4048510298	-2.9492824314	 3.0900184371	 0.105902
H	-0.4549214751	-3.7523307153	 1.8115641949	 0.113485
101.38	111.7254	138.6589	158.9232	165.4963	182.9571	215.9504	263.9339	301.8045	360.8883	520.4968	624.4421	661.5755	755.9157	797.2827	884.7262	971.3296	990.2336	1066.1455	1074.1773	1110.9592	1125.803	1150.129	1168.2362	1170.7861	1182.2341	1187.1901	1222.0574	1246.3291	1277.1799	1361.3072	1365.3879	1410.4253	1438.5086	1482.4325	1484.8512	1486.0477	1487.8755	1494.928	1501.075	1507.8444	1509.3921	2985.0939	2986.5136	3038.1983	3042.8721	3062.6577	3066.0534	3075.8866	3093.9938	3118.1629	3119.8973	3132.529	3149.8723
COC1C(C)C1OC	CO[C@H]1[C@@H](C)[C@H]1OC	
InChI=1S/C6H12O2/c1-4-5(7-2)6(4)8-3/h4-6H,1-3H3	InChI=1S/C6H12O2/c1-4-5(7-2)6(4)8-3/h4-6H,1-3H3/t4-,5+,6-
