17
gdb 110707	3.2004	1.24802	1.14109	2.2337	73.24	-0.2465	-0.0039	0.2427	1107.5064	0.136171	-421.801752	-421.793891	-421.792946	-421.834325	30.188	
O	 0.0735370185	 1.4571815864	-0.1263986985	-0.416044
C	 0.0871564065	 0.0740030551	 0.1998092633	-0.117524
C	-1.3001456438	-0.5424964376	 0.0853928573	 0.015137
C	-1.9772093876	-0.7122340815	-1.3259382153	-0.210502
C	-1.0569101314	-1.7028402637	-2.0146954968	-0.097198
C	-0.738043528	-2.5888682324	-1.0520578759	-0.088929
C	-1.480253929	-2.0984652771	 0.1793116047	-0.209215
C	-2.849876547	-1.7965366603	-0.5632035139	 0.427567
O	-3.9749821998	-2.1608253996	-0.5272233403	-0.298109
H	-0.0788188882	 1.5314359879	-1.073755591	 0.284867
H	 0.8114478793	-0.4795934869	-0.4100435473	 0.09995
H	 0.4203753219	 0.0170781587	 1.2415164355	 0.113959
H	-1.9826860139	-0.0254502788	 0.7697322975	 0.098276
H	-2.4135422658	 0.1142302021	-1.882166146	 0.085131
H	-0.8340503563	-1.7319680411	-3.0714688805	 0.112273
H	-0.1924856295	-3.5180288636	-1.1305600484	 0.113673
H	-1.4143189358	-2.6509421976	 1.1135465955	 0.086686
84.4889	131.5448	173.589	256.1343	305.0276	380.5341	407.7997	509.9616	582.2718	615.4913	707.3562	741.7021	777.4358	816.0152	835.3093	904.8096	916.417	944.7961	969.8933	997.5705	1012.368	1066.4747	1094.5849	1104.5301	1129.3791	1151.0303	1158.7909	1209.5102	1249.2773	1258.5203	1332.0446	1358.8529	1400.3558	1417.5757	1501.9018	1585.3982	1922.7598	3028.3671	3051.3138	3080.4554	3151.2225	3154.718	3226.0049	3249.8213	3818.7044
OCC1C2C=CC1C2=O	OC[C@H]1[C@H]2C=C[C@@H]1C2=O	
InChI=1S/C7H8O2/c8-3-6-4-1-2-5(6)7(4)9/h1-2,4-6,8H,3H2	InChI=1S/C7H8O2/c8-3-6-4-1-2-5(6)7(4)9/h1-2,4-6,8H,3H2/t4-,5+,6+
