17
gdb 16362	2.71576	2.28709	1.4359	2.6695	70.24	-0.2189	-0.0216	0.1973	896.771	0.140897	-363.837011	-363.829212	-363.828268	-363.869024	29.22	
C	-0.1461464899	 1.5485033946	 0.096361225	-0.332293
N	 0.0411409247	 0.1114061683	 0.0667006084	-0.138602
C	-1.1665057282	-0.7252115012	 0.3030652579	-0.292472
C	-0.3556689021	-1.5203791356	 1.3432397407	 0.333484
O	-0.5331232532	-2.5018677045	 2.0043398245	-0.308466
C	 0.7591604014	-0.5306528432	 1.1808484802	 0.243986
C	 2.2361911312	-0.7707708816	 1.3115093817	-0.304857
C	 1.536250771	 0.111407969	 2.3101480537	-0.324429
H	 0.8203824579	 2.0543431681	 0.0037180311	 0.122949
H	-0.7569290834	 1.8508256363	-0.7598409756	 0.127412
H	-0.6389235381	 1.9116490583	 1.0169754865	 0.098109
H	-2.0063654208	-0.1868051854	 0.7683029934	 0.119315
H	-1.528589867	-1.2711534248	-0.573476183	 0.132292
H	 2.5473050764	-1.7635389689	 1.6192988672	 0.134633
H	 2.8709670102	-0.2948102194	 0.5714724056	 0.127185
H	 1.7067373865	 1.1809126501	 2.2482817342	 0.12572
H	 1.3592399332	-0.2652065601	 3.3120659384	 0.136034
84.1697	178.9775	207.0306	220.1589	251.4396	305.8271	433.6078	506.368	558.6553	606.423	659.3659	752.1656	801.5099	828.5265	928.5803	944.4293	989.4399	1010.2273	1035.5847	1063.0964	1071.2662	1113.4866	1159.5491	1180.1788	1195.9867	1201.3432	1248.3403	1305.8125	1358.2087	1449.344	1452.721	1471.8139	1483.3095	1496.9689	1501.1582	1904.6717	2938.6002	2995.1091	3063.7345	3079.9988	3103.0269	3130.6974	3132.4708	3214.4961	3228.9568
CN1CC(=O)C11CC1	CN1CC(=O)C21CC2	
InChI=1S/C6H9NO/c1-7-4-5(8)6(7)2-3-6/h2-4H2,1H3	InChI=1S/C6H9NO/c1-7-4-5(8)6(7)2-3-6/h2-4H2,1H3
