20
gdb 14452	3.12815	2.34013	1.93213	0.2163	78.48	-0.2748	0.0914	0.3662	821.3929	0.179413	-311.84728	-311.840487	-311.839543	-311.877724	27.996	
C	 0.0113541346	 1.5125440376	-0.0407240914	-0.520619
C	 0.0189834728	 0.0061234152	-0.0346570625	 0.342316
C	 0.6075131532	-0.9466506312	-1.1070109635	-0.27992
C	 0.0258181184	-1.8797124077	-0.022060433	-0.060197
C	 0.6000481489	-0.936055377	 1.0801071705	-0.026095
C	-0.3451881433	-0.9301446033	 2.2820346899	-0.242909
C	-1.7136803195	-0.9400506093	 1.5397913952	-0.24291
C	-1.2216744853	-0.9492581049	 0.0920410219	-0.026096
H	 1.0311744304	 1.9125927295	-0.0702068679	 0.117057
H	-0.5243781794	 1.9013134752	-0.9141029012	 0.117058
H	-0.4772715355	 1.9139872634	 0.854595014	 0.116576
H	 0.1116070729	-0.9543337833	-2.0831572755	 0.081729
H	 1.69618673	-0.9428525728	-1.2237120239	 0.081729
H	 0.0258477475	-2.9714898716	-0.007523618	 0.060118
H	 1.678042841	-0.9302926365	 1.2594137781	 0.052966
H	-0.2057887377	-1.8065319074	 2.9232234647	 0.094395
H	-0.2113115614	-0.0434196085	 2.9105900011	 0.09372
H	-2.3173211672	-1.8218032573	 1.7779907356	 0.094394
H	-2.3234174479	-0.0586954623	 1.7650043792	 0.09372
H	-1.9598795424	-0.9566594379	-0.7137225333	 0.052966
190.5824	201.6247	211.643	318.7429	407.6473	428.3911	623.2635	665.6778	721.3605	732.3071	809.8184	832.8172	871.7979	900.8149	928.7892	932.8238	964.8812	992.848	995.6889	1016.8221	1031.1512	1058.0401	1075.0251	1113.4901	1138.7905	1183.8627	1187.1428	1214.4048	1218.9215	1247.123	1249.1738	1256.1703	1283.2065	1315.1675	1315.3141	1384.9425	1408.6919	1483.6637	1489.9895	1492.5493	1508.2973	1521.0214	3021.5606	3034.3043	3037.3302	3047.0664	3069.2127	3082.5632	3083.1716	3086.5919	3088.5528	3089.6972	3092.2983	3096.2924
CC12CC3C1CCC23	C[C@@]12C[C@H]3[C@@H]1CC[C@@H]23	
InChI=1S/C8H12/c1-8-4-5-6(8)2-3-7(5)8/h5-7H,2-4H2,1H3	InChI=1S/C8H12/c1-8-4-5-6(8)2-3-7(5)8/h5-7H,2-4H2,1H3/t5-,6-,7+,8+
