21
gdb 109816	3.49329	0.90968	0.85111	1.1402	84.85	-0.2524	0.0505	0.3029	1460.9446	0.180288	-387.041397	-387.031148	-387.030203	-387.077081	37.82	
C	-0.0146853346	 1.4724226964	-0.6364854529	-0.380743
C	 0.0316912895	 0.1264866622	 0.097672007	-0.191829
C	-1.3475543661	-0.4868367689	 0.2374179558	-0.048781
C	-1.8940048814	-1.4195054866	-0.814189955	 0.091716
O	-1.032087111	-1.7657607487	-1.8596777788	-0.42512
C	-1.595165468	-1.9504726121	 0.569243719	-0.08742
C	-0.4609067142	-2.9550504924	 0.7508515549	-0.377323
C	-0.7412366696	-4.2208489634	 0.0726551588	 0.296323
C	-0.999708339	-5.2363650342	-0.5189015497	-0.456937
H	 0.9844566466	 1.9115936404	-0.7183754173	 0.108692
H	-0.4131622238	 1.3466315237	-1.6478829543	 0.131117
H	-0.6531268792	 2.1914883036	-0.111020334	 0.109352
H	 0.6847837174	-0.5521896606	-0.4569869678	 0.115472
H	 0.476545915	 0.2622520254	 1.0920561487	 0.090527
H	-2.081092585	 0.1931556555	 0.6658832055	 0.083153
H	-2.9383103109	-1.3133465645	-1.1068959829	 0.081531
H	-1.0708080427	-2.7248334463	-1.9630220157	 0.293916
H	-2.4598329249	-2.1608962472	 1.1921461318	 0.091389
H	 0.479838374	-2.5515016859	 0.3659705225	 0.14287
H	-0.2983365914	-3.1392769617	 1.8196562918	 0.133116
H	-1.2160294706	-6.1485797148	-1.0176967376	 0.198979
48.4992	64.5397	101.3255	170.5755	201.6533	236.9129	282.4159	293.0836	336.8425	406.2309	433.2454	547.7844	561.4849	620.0358	628.1048	641.4486	753.0412	797.6723	816.0183	868.3825	922.4557	949.14	987.5262	1017.5315	1042.7907	1073.3755	1114.0104	1135.6813	1147.7325	1189.2907	1242.9979	1256.7345	1298.6296	1317.9933	1330.0137	1337.0412	1386.9184	1400.8426	1411.9651	1456.5938	1468.7387	1484.8398	1498.7069	1505.9674	2228.5856	3022.9919	3032.3154	3037.8156	3082.4209	3088.8572	3096.4401	3103.6313	3111.8627	3125.3521	3147.5047	3504.2485	3768.3963
CCC1C(O)C1CC#C	CC[C@H]1[C@@H](O)[C@H]1CC#C	
InChI=1S/C8H12O/c1-3-5-7-6(4-2)8(7)9/h1,6-9H,4-5H2,2H3	InChI=1S/C8H12O/c1-3-5-7-6(4-2)8(7)9/h1,6-9H,4-5H2,2H3/t6-,7+,8-/m1/s1
