19
gdb 29267	4.41755	1.01924	0.87454	1.624	85.12	-0.1779	0.0548	0.2326	1358.7796	0.160241	-382.078073	-382.069388	-382.068444	-382.111877	32.597	
C	-0.4033716442	 1.4518699548	 0.1164284464	-0.499757
C	-0.0630591346	-0.0030519257	-0.0013915393	 0.294365
C	 0.536906454	-0.6178333816	-1.0729774695	-0.183969
N	 0.668294081	-1.9601014449	-0.7815653905	-0.309594
C	 0.1583396289	-2.2108641355	 0.4662390632	 0.351411
C	-0.3050412758	-1.0189821988	 0.97888133	-0.325836
N	 0.2539117952	-3.5093699663	 0.9929831806	-0.168044
C	-0.6742353691	-3.8831827624	 2.0498132255	-0.218245
C	-0.8246850403	-4.4689835041	 0.6914352599	-0.23112
H	 0.0937414213	 1.9178776638	 0.975767876	 0.120734
H	-0.0969660557	 2.0015547325	-0.7787089922	 0.115015
H	-1.4805913439	 1.6110222024	 0.2479419094	 0.118992
H	 0.875348337	-0.2172060191	-2.0152156711	 0.107926
H	 1.1221142111	-2.6510089816	-1.3526635487	 0.257022
H	-0.7493114206	-0.876803795	 1.9520778122	 0.081803
H	-0.2456346633	-4.4672604059	 2.8585886193	 0.12055
H	-1.4184207441	-3.1512205974	 2.3527275789	 0.126188
H	-1.6548445251	-4.112522112	 0.0869202024	 0.123668
H	-0.4965098519	-5.4836920633	 0.4880885275	 0.118889
52.1908	114.4293	132.7873	179.0562	252.0088	324.5327	358.6828	459.7356	489.4183	537.6433	636.3481	678.4629	682.7482	710.9418	780.3431	820.1137	870.291	920.4277	985.1539	999.852	1009.7374	1039.7482	1063.9255	1107.9341	1123.9247	1133.3933	1150.491	1176.4899	1190.9783	1250.3338	1282.5876	1349.2013	1416.2688	1421.0769	1462.3175	1482.5078	1486.5211	1503.7149	1512.7771	1561.3545	1632.9414	3018.9331	3064.775	3099.4261	3108.7825	3113.4082	3193.0378	3207.4443	3244.659	3258.1352	3685.658
CC1=CNC(=C1)N1CC1	Cc1c[nH]c(c1)N1CC1	
InChI=1S/C7H10N2/c1-6-4-7(8-5-6)9-2-3-9/h4-5,8H,2-3H2,1H3	InChI=1S/C7H10N2/c1-6-4-7(8-5-6)9-2-3-9/h4-5,8H,2-3H2,1H3
