20
gdb 88201	3.44307	1.20309	1.03449	2.6666	75.33	-0.243	0.073	0.3161	1214.0617	0.172419	-440.258149	-440.249851	-440.248907	-440.290906	32.004	
C	-0.0814534842	 1.521634223	-0.1460423369	-0.402255
C	 0.0136590908	 0.0260061083	 0.0502269894	-0.054796
N	 1.34090993	-0.5981674325	-0.0964118261	-0.360351
C	 0.6649468908	-0.6367983755	 1.2101702913	 0.298619
C	 1.3586700827	 0.1094027654	 2.3349936086	-0.145166
O	 2.2622590304	-0.7592280518	 3.0141112303	-0.234493
C	 1.6205491474	-1.9171110037	 3.4690095331	 0.022066
O	 1.0785602937	-2.6869798948	 2.4249420329	-0.234261
C	 0.0919021615	-1.9463886891	 1.7189944158	-0.162753
H	 0.7972577897	 2.0333079458	 0.2521608701	 0.129659
H	-0.1476774943	 1.7597836157	-1.2128536292	 0.12483
H	-0.9738508425	 1.9254094302	 0.3442875834	 0.117394
H	-0.8309943226	-0.5245260656	-0.3682011842	 0.077595
H	 1.2743953145	-1.4999315298	-0.5628284093	 0.229587
H	 1.9548164034	 0.9382461448	 1.9533087344	 0.122065
H	 0.6110251767	 0.5004568372	 3.046755349	 0.086342
H	 2.3761047111	-2.5322376317	 3.960980753	 0.12005
H	 0.817786386	-1.6482291938	 4.1850001003	 0.070909
H	-0.7677081263	-1.7451399638	 2.3825961837	 0.092417
H	-0.2541123088	-2.5783362783	 0.8948887401	 0.10254
100.1008	160.3699	193.1674	205.8079	272.4595	323.9453	398.442	432.5206	447.4335	510.9467	526.0447	640.4435	751.8968	864.9894	890.7845	938.4	949.5045	964.8311	977.8122	1009.181	1044.7434	1056.0937	1083.0591	1109.2075	1119.9954	1168.2344	1199.1952	1238.1546	1241.6539	1288.2334	1314.2721	1334.9633	1356.0083	1378.1513	1410.8849	1416.4956	1442.2784	1470.3353	1481.9419	1486.5318	1492.749	1505.454	1507.4223	2901.4131	2949.7595	2962.1797	3037.9682	3073.6622	3084.0072	3098.1521	3117.0297	3126.5033	3135.6836	3491.7533
CC1NC11COCOC1	C[C@H]1NC21COCOC2	
InChI=1S/C6H11NO2/c1-5-6(7-5)2-8-4-9-3-6/h5,7H,2-4H2,1H3	InChI=1S/C6H11NO2/c1-5-6(7-5)2-8-4-9-3-6/h5,7H,2-4H2,1H3/t5-/m1/s1
