17
gdb 22486	3.5183	0.75357	0.66919	4.3837	72.59	-0.2708	-0.0239	0.2469	1614.393	0.134399	-455.111326	-455.101499	-455.100555	-455.147237	34.455	
O	 0.3513011167	 0.8244227539	-0.8052284692	-0.419555
C	-0.031930514	 0.0571385108	 0.3225050599	-0.147321
C	-1.4509463407	-0.4695468482	 0.1971463019	 0.332491
C	-1.700532348	-1.9467213705	 0.0657914878	-0.285564
C	-1.2354183166	-2.4648616839	-1.3199768001	-0.336179
C	-1.3591282074	-3.9155175098	-1.4329440692	 0.257624
N	-1.4634560538	-5.0642271975	-1.5020918229	-0.300873
N	-2.4776588115	 0.2896096054	 0.1440872666	-0.155785
O	-2.1133175081	 1.6494940094	 0.2378406226	-0.408736
H	-0.258263009	 1.572061861	-0.8339472575	 0.300215
H	 0.6747690855	-0.7746808872	 0.3889282239	 0.113445
H	 0.0456823466	 0.6351750417	 1.2554074862	 0.121795
H	-1.1557207271	-2.4863438355	 0.8489433716	 0.133515
H	-2.7652107547	-2.1517818286	 0.1948837072	 0.143234
H	-1.8340209582	-1.9936403154	-2.1064540631	 0.166583
H	-0.1936517174	-2.1839028997	-1.5090434512	 0.169119
H	-2.9647959023	 2.0970174741	 0.1931697356	 0.315993
51.7245	64.3661	79.9956	143.1145	201.4143	251.2252	328.8101	333.6365	377.6707	403.6578	439.8869	495.4308	506.7317	630.448	667.238	772.3864	850.7927	937.7025	958.6933	985.3972	1006.0846	1048.7062	1073.0458	1175.0979	1208.8821	1268.0535	1289.2347	1312.0815	1363.6213	1375.2909	1397.5394	1448.3415	1464.692	1483.8835	1493.8959	1726.815	2363.727	2997.1885	3045.1288	3056.6159	3088.9765	3091.1213	3121.6063	3788.6492	3825.7399
OCC(CCC#N)=NO	OCC(=NO)CCC#N	
InChI=1S/C5H8N2O2/c6-3-1-2-5(4-8)7-9/h8-9H,1-2,4H2	InChI=1S/C5H8N2O2/c6-3-1-2-5(4-8)7-9/h8-9H,1-2,4H2
