17
gdb 71174	2.6581	1.62791	1.34501	2.4479	75.4	-0.2652	0.0157	0.281	999.844	0.136929	-380.835686	-380.828112	-380.827168	-380.867609	29.34	
C	-0.0690054952	 1.5370056121	 0.0271451952	-0.504082
C	-0.0372794141	 0.0390429916	 0.0019833015	 0.32642
C	 0.414525773	-0.7729821033	-1.2318464295	-0.292982
C	-0.5744927224	-1.8050546373	-0.7271424792	-0.030478
C	-0.5448825046	-1.8127802581	 0.7643733031	-0.06132
C	 0.4594399214	-0.7738943381	 1.2397007993	-0.180245
C	 1.8725928723	-1.1054424021	 1.3675718102	 0.266177
N	 2.9970233844	-1.3646446493	 1.4413452648	-0.334381
N	-1.3719132295	-0.7881551338	 0.0443953161	-0.191457
H	 0.9501680962	 1.9396862315	 0.0209983178	 0.13857
H	-0.5965661022	 1.925524117	-0.8491195395	 0.135627
H	-0.579602617	 1.9042309423	 0.9227811377	 0.132261
H	 0.0544183267	-0.304301438	-2.1512717872	 0.11809
H	 1.4722453232	-1.0328849096	-1.330684706	 0.127176
H	-1.0675715558	-2.5924861639	-1.2846943986	 0.106969
H	-1.0009521226	-2.5929294904	 1.3613553926	 0.11264
H	 0.1028055261	-0.2999138606	 2.1589709816	 0.131013
122.9032	140.2875	201.0529	275.5666	304.1682	397.7034	417.145	547.1037	553.2939	632.9379	737.1294	780.3205	798.6506	814.9132	835.9848	929.9646	955.9648	998.0133	1008.8804	1034.4932	1037.5721	1074.1926	1105.9174	1122.8163	1125.7636	1173.6878	1228.6213	1248.6475	1306.4377	1327.8002	1363.225	1381.1914	1417.5867	1479.7027	1490.7872	1495.6506	2352.2942	3034.4255	3057.5421	3074.7355	3105.1695	3112.4386	3115.4898	3187.223	3199.2824
CC12CC3C(C1C#N)N23	C[C@@]12C[C@H]3[C@@H]([C@H]1C#N)N23	
InChI=1S/C7H8N2/c1-7-2-5-6(9(5)7)4(7)3-8/h4-6H,2H2,1H3	InChI=1S/C7H8N2/c1-7-2-5-6(9(5)7)4(7)3-8/h4-6H,2H2,1H3/t4-,5+,6-,7-,9?/m1/s1
