19
gdb 64498	3.5026	1.31131	1.16439	1.6733	75.9	-0.2359	0.0573	0.2932	1113.9047	0.158518	-422.934459	-422.926473	-422.925529	-422.966943	31.897	
O	-0.0407400204	 1.4461352075	-0.1487997587	-0.479681
C	-0.0274705612	 0.043592208	-0.0371796511	 0.394735
C	-1.4030852546	-0.5733780328	-0.0902239704	-0.040801
C	-2.6144303261	 0.1426098932	 0.4610587009	-0.299667
C	-2.4489823035	-0.0241717136	-1.0278113714	-0.26317
C	 1.0988174562	-0.6428756468	-0.8668050125	 0.016666
C	 2.1714116123	-0.0384176576	 0.069776621	-0.237015
C	 1.0249053925	-0.6171824471	 0.9304203959	-0.021121
O	 1.002674739	-1.8052161654	 0.0479732336	-0.313783
H	-0.5326321519	 1.8028367976	 0.5982761583	 0.284964
H	-1.3849433735	-1.6474462497	 0.0402797161	 0.109395
H	-3.3584387965	-0.4534429174	 0.9774568439	 0.116382
H	-2.5083780398	 1.1454616671	 0.8640123248	 0.093575
H	-2.1882403243	 0.863274008	-1.5930048416	 0.122669
H	-3.0902503172	-0.7264024575	-1.5482528682	 0.112498
H	 1.135751964	-0.847480635	-1.9372214408	 0.094608
H	 3.0971417959	-0.6119540242	 0.1168027184	 0.105814
H	 2.3174092303	 1.0404033805	 0.0566120985	 0.115597
H	 0.9742555488	-0.792890035	 2.0063281232	 0.088334
66.7161	169.9385	213.7916	270.6629	314.1846	342.8623	412.3991	469.3847	536.8564	617.6728	674.3342	764.2875	789.1873	810.8456	839.9316	878.2256	890.0158	903.7488	922.1363	956.9773	1011.8621	1040.3562	1049.8423	1058.5741	1081.0812	1088.2329	1130.9407	1151.2792	1157.7682	1173.7496	1199.4596	1206.0811	1215.005	1250.211	1258.8418	1276.9439	1326.4335	1418.2179	1461.2856	1474.8551	1504.7545	3091.2222	3105.7145	3119.8485	3124.2287	3139.8448	3175.0015	3198.1215	3206.3986	3230.9349	3810.0838
OC1(C2CC2)C2CC1O2	O[C@@]1(C2CC2)[C@H]2C[C@@H]1O2	
InChI=1S/C7H10O2/c8-7(4-1-2-4)5-3-6(7)9-5/h4-6,8H,1-3H2	InChI=1S/C7H10O2/c8-7(4-1-2-4)5-3-6(7)9-5/h4-6,8H,1-3H2/t5-,6+,7+
