19
gdb 62200	5.37367	0.5711	0.53149	1.6599	84.58	-0.2592	0.0289	0.2882	2001.688	0.155155	-385.819077	-385.808395	-385.807451	-385.855581	38.264	
O	-0.0836322252	 1.432562134	 0.032609815	-0.414192
C	 0.0238322659	 0.0105068232	 0.039287225	-0.067378
C	 0.6724616169	-0.5265221097	-1.2521765924	-0.195781
C	-0.0924021634	-0.1051048891	-2.5085987377	-0.175747
C	 0.5933025515	-0.5927920557	-3.8004780491	-0.363495
C	-0.1277529009	-0.2075208744	-5.0075592505	 0.292366
C	-0.7414908244	 0.1211655523	-5.9874004482	-0.433768
C	 0.7356408713	-0.4689423181	 1.2276830736	 0.292444
C	 1.3624825876	-0.8365113815	 2.1855416778	-0.435951
H	 0.7939937933	 1.7894642349	 0.2099157867	 0.285758
H	-1.0145463391	-0.3428001475	 0.0797074576	 0.119919
H	 1.7083352443	-0.1637087725	-1.2950746724	 0.097991
H	 0.7293411028	-1.619825959	-1.1832366136	 0.109892
H	-1.1133002406	-0.503971446	-2.4749439371	 0.109394
H	-0.1850874173	 0.9841779335	-2.5306969991	 0.127619
H	 1.6159746102	-0.1947345576	-3.8438588248	 0.128511
H	 0.6973311047	-1.6857525296	-3.771721928	 0.12854
H	-1.2757988861	 0.4072954016	-6.8589801243	 0.193336
H	 1.8964046286	-1.166023449	 3.0426246315	 0.200541
46.4807	75.4964	87.1059	131.8491	146.1059	217.2074	268.6558	303.3857	305.0838	349.0554	417.5052	517.6885	566.7451	573.4833	616.1132	633.4921	635.691	673.1745	744.4915	825.7936	890.0011	960.5524	984.4945	1035.0438	1056.5634	1088.659	1101.0779	1161.9026	1242.6316	1266.9915	1298.9262	1321.5501	1332.2092	1366.0394	1389.0509	1419.3765	1473.319	1477.7954	1505.19	2232.3128	2239.5071	3012.2084	3016.7858	3032.212	3038.067	3046.6212	3062.9073	3104.6759	3502.3526	3507.5691	3803.9846
OC(CCCC#C)C#C	O[C@@H](CCCC#C)C#C	
InChI=1S/C8H10O/c1-3-5-6-7-8(9)4-2/h1-2,8-9H,5-7H2	InChI=1S/C8H10O/c1-3-5-6-7-8(9)4-2/h1-2,8-9H,5-7H2/t8-/m1/s1
