17
gdb 30327	2.93614	1.60691	1.1381	2.1428	74.46	-0.22	0.0091	0.2291	1056.8244	0.138472	-421.85525	-421.847885	-421.846941	-421.887232	28.693	
O	-0.156002431	 1.4991218735	-0.2230517586	-0.426428
C	 0.1001516959	 0.1114585448	-0.0130012929	-0.009813
C	-1.1910931209	-0.7613094453	 0.1754778494	-0.234207
C	-1.4296574521	-1.5968479245	-1.1308070748	-0.360516
C	-0.1062320563	-1.4693759675	-1.8287315082	 0.245928
C	 0.6932890561	-0.5804813698	-1.191510458	 0.281065
O	 1.885265273	-0.4328189894	-1.8202624498	-0.197301
C	 1.8308226828	-1.2729196546	-2.8972840113	-0.00851
C	 0.6386607977	-1.9338645129	-2.9601682708	-0.361551
H	-0.5558648729	 1.5906395695	-1.09532145	 0.275796
H	 0.7253857921	 0.090273568	 0.8844629026	 0.097918
H	-1.0409647546	-1.4424126087	 1.01794182	 0.112562
H	-2.0333526573	-0.112482558	 0.4275209694	 0.11123
H	-1.6979063025	-2.6315188429	-0.8935605483	 0.113209
H	-2.2533807579	-1.1961555155	-1.73443805	 0.110512
H	 2.7151932638	-1.291001145	-3.5134782803	 0.136066
H	 0.353474114	-2.6517254216	-3.7136199183	 0.11404
87.8337	143.4902	237.4014	307.7559	329.7021	422.8258	467.4597	607.8408	617.7433	680.0943	710.1815	747.4932	770.6158	815.6013	824.9799	902.8693	922.2065	970.7535	1011.9216	1049.7565	1060.1976	1087.1533	1161.5716	1168.1174	1211.0968	1242.1303	1261.6893	1263.3783	1298.7463	1328.4302	1360.1762	1432.4301	1463.0327	1478.9848	1504.0617	1516.0861	1649.4118	3028.8993	3056.7474	3066.3391	3073.897	3114.2742	3250.6066	3279.4199	3796.9844
OC1CCC2=C1OC=C2	O[C@H]1CCc2c1occ2	
InChI=1S/C7H8O2/c8-6-2-1-5-3-4-9-7(5)6/h3-4,6,8H,1-2H2	InChI=1S/C7H8O2/c8-6-2-1-5-3-4-9-7(5)6/h3-4,6,8H,1-2H2/t6-/m0/s1
