20
gdb 46061	3.66034	1.06228	0.92734	2.4032	79.18	-0.2131	-0.0169	0.1962	1303.0687	0.171213	-403.147211	-403.138784	-403.13784	-403.180983	32.195	
O	 0.2480913191	 0.1656371107	 0.2351415602	-0.306146
C	 0.0902977784	 1.3526682779	 0.1257826935	 0.398442
C	-1.0810469018	 2.1835868388	 0.6618906964	-0.330318
C	-0.8891429501	 3.5437974517	-0.0346215635	-0.182603
N	 0.5625434463	 3.6845601378	-0.2857555192	-0.079722
C	 1.0284404723	 2.3321281112	-0.6033405095	-0.290672
C	 1.2759944769	 4.2910915137	 0.8089053768	 0.052812
C	 2.5515983069	 5.023058503	 0.4881071436	-0.274667
C	 1.3100807903	 5.79421938	 0.8688201457	-0.276554
H	-2.0344904945	 1.6879142437	 0.4659747966	 0.130168
H	-0.9726306476	 2.2649949584	 1.7502696829	 0.13519
H	-1.4160220949	 3.5502044822	-0.9971215726	 0.106898
H	-1.248462851	 4.3939496049	 0.5471842796	 0.115656
H	 2.0721097232	 2.1764735706	-0.322481753	 0.136428
H	 0.9438968037	 2.1327955358	-1.6820415773	 0.127024
H	 1.2538109768	 3.7731318955	 1.7738290206	 0.071384
H	 3.3692416922	 4.9689891173	 1.197819492	 0.113149
H	 2.8488452914	 5.0493637537	-0.5536839507	 0.120808
H	 0.7960906035	 6.3254842577	 0.076209085	 0.120343
H	 1.2715256987	 6.2721805554	 1.841104293	 0.112381
55.2222	83.7797	121.3555	227.4205	313.3422	338.1586	426.8458	455.7668	500.2228	595.8674	658.3984	727.2187	754.0497	794.6059	826.3895	835.0047	900.4973	914.6111	955.5438	973.716	1026.0048	1053.7997	1055.8061	1079.5441	1127.8826	1138.6708	1142.7094	1149.4243	1195.4641	1201.9358	1221.5899	1231.9183	1269.4574	1289.7749	1350.1816	1358.6185	1404.5645	1447.3589	1455.7521	1456.3501	1493.2762	1505.3092	1852.8249	3000.9941	3023.8193	3030.7009	3046.2812	3110.8053	3112.8938	3119.4256	3139.0004	3143.715	3223.3607	3236.7788
O=C1CCN(C1)C1CC1	O=C1CCN(C1)C1CC1	
InChI=1S/C7H11NO/c9-7-3-4-8(5-7)6-1-2-6/h6H,1-5H2	InChI=1S/C7H11NO/c9-7-3-4-8(5-7)6-1-2-6/h6H,1-5H2
