19
gdb 91826	3.33776	1.2343	1.04137	1.9725	76.77	-0.2313	0.006	0.2373	1174.6575	0.159425	-423.01476	-423.006379	-423.005434	-423.047343	33.309	
O	-0.1875884951	 1.478323005	-0.1883484895	-0.434764
C	 0.0086599756	 0.0798152401	-0.0017972542	 0.078798
C	-1.3862048979	-0.5451665459	 0.1140832915	-0.229188
C	-1.3495162842	-2.070243265	 0.0431505247	-0.128471
C	-1.7471230821	-2.7872594182	-1.2376891582	-0.322057
C	-0.3038842959	-2.7182156408	-0.8340199816	 0.405023
O	 0.2397909342	-3.9561605969	-0.4463681527	-0.467878
C	 0.6419692607	-1.8042586154	-1.5274431834	-0.169398
C	 0.793595406	-0.5369984824	-1.1434985017	-0.086485
H	 0.6737757315	 1.907494013	-0.1784308186	 0.280669
H	 0.5610426823	-0.0936747337	 0.9392441725	 0.070725
H	-1.8568537326	-0.2112893918	 1.0436331565	 0.105013
H	-1.9844602494	-0.1324644768	-0.7056496419	 0.114366
H	-1.5721335215	-2.6058710329	 0.9602474002	 0.089191
H	-2.2229687618	-3.7573545417	-1.1449850221	 0.120551
H	-2.0760993221	-2.1840822348	-2.0772001745	 0.116093
H	 0.956836374	-3.7762868277	 0.1722881541	 0.277049
H	 1.224946889	-2.225282317	-2.3433370929	 0.095384
H	 1.5038891493	 0.114577643	-1.6491304382	 0.08538
86.0827	178.6127	248.0214	254.8632	312.591	349.6345	393.3577	396.7794	408.8754	479.2976	523.4974	596.9256	663.1194	732.3426	775.5143	843.6489	894.234	913.7657	937.2511	968.6465	991.8442	1011.2179	1044.6505	1069.8722	1091.7446	1102.3953	1111.7627	1181.4297	1209.8395	1234.4612	1271.0053	1284.3588	1319.5435	1333.7369	1358.3115	1401.0949	1414.9251	1428.0616	1477.0417	1492.6597	1705.0332	2929.6438	3044.4024	3088.3728	3130.5463	3137.7759	3161.1189	3162.8083	3225.0421	3790.8851	3816.66
OC1CC2CC2(O)C=C1	O[C@H]1C[C@H]2C[C@@]2(O)C=C1	
InChI=1S/C7H10O2/c8-6-1-2-7(9)4-5(7)3-6/h1-2,5-6,8-9H,3-4H2	InChI=1S/C7H10O2/c8-6-1-2-7(9)4-5(7)3-6/h1-2,5-6,8-9H,3-4H2/t5-,6+,7-/m0/s1
