19
gdb 37873	2.96241	2.2253	2.1801	0.2095	76.54	-0.1966	0.092	0.2886	792.111	0.165128	-382.010858	-382.005468	-382.004524	-382.040147	24.878	
C	-0.055051883	 1.4852385003	-0.0184388675	-0.191179
C	 1.4750061676	 1.5161319336	-0.0398334145	-0.011928
C	 1.4049434374	 0.0961766706	-0.6312095967	 0.004869
C	 2.3069968957	-0.4445432209	 0.460889329	-0.006236
C	 1.4352387849	-1.4979450531	 1.1520599213	-0.230072
C	 0.2726049674	-0.521923722	 1.3834466769	-0.006768
C	 1.0433312106	 0.568419081	 2.1667488577	-0.179506
N	 2.1178802495	 0.8925420148	 1.2038798303	-0.142213
N	-0.0036791481	-0.0204982806	-0.0113021533	-0.145854
H	-0.6316345618	 1.9531906361	 0.7838038946	 0.104103
H	-0.4597539244	 1.8260982986	-0.9775563198	 0.106575
H	 2.0358312515	 2.3683220745	-0.4316177122	 0.069299
H	 1.4543252947	-0.1837270128	-1.6856514262	 0.069903
H	 3.3484243238	-0.6815219813	 0.2444638794	 0.074034
H	 1.1822035632	-2.3139753274	 0.4693220162	 0.110213
H	 1.8472413358	-1.9090964127	 2.0764738097	 0.103579
H	-0.6302001686	-0.9232910281	 1.8485485595	 0.069455
H	 0.4766779457	 1.4614489448	 2.4322789162	 0.104759
H	 1.469747848	 0.1657668646	 3.0924067093	 0.096967
388.6359	425.205	455.9933	513.2207	594.7531	650.7005	734.3121	743.8361	760.0921	807.6078	836.5954	878.5589	887.9696	912.0852	928.1324	942.7017	953.7757	978.2856	980.6614	1004.7289	1018.5367	1046.3888	1070.3621	1101.5252	1143.0847	1173.672	1196.9995	1200.2886	1221.3656	1224.5949	1251.293	1273.6864	1281.1913	1286.3215	1293.1942	1309.2246	1319.033	1340.5438	1481.4515	1496.1931	1533.3828	3040.1384	3044.0762	3065.0163	3068.9529	3082.5202	3091.1451	3092.2531	3115.2706	3120.5024	3122.539
C1C2C3C4CC(CN24)N13	C1[C@@H]2[C@H]3[C@@H]4C[C@@H](CN24)N13	
InChI=1S/C7H10N2/c1-4-2-9-5(1)7-6(9)3-8(4)7/h4-7H,1-3H2	InChI=1S/C7H10N2/c1-4-2-9-5(1)7-6(9)3-8(4)7/h4-7H,1-3H2/t4-,5-,6+,7+/m0/s1
