20
gdb 60901	3.23582	1.17033	1.00004	3.3206	78.8	-0.2378	-0.0221	0.2156	1242.6079	0.169746	-403.114272	-403.105208	-403.104263	-403.1486	33.45	
C	 0.1633534865	 1.4832678596	-0.2650830714	-0.39313
C	 0.0126010845	-0.0077382276	 0.0513474677	-0.192545
C	 0.3922448766	-0.8904023496	-1.1294281197	 0.138261
O	 0.6828075551	-0.4734783137	-2.2223510902	-0.24901
C	 0.7722999537	-0.4063221034	 1.2990000208	 0.356959
C	 2.1889882407	-0.8291453851	 1.3076975213	-0.284702
N	 1.1624473556	-1.841262179	 1.6344410037	-0.172569
C	 0.7802019762	-1.5625014216	 3.0641760179	-0.150558
C	 0.2970614209	-0.1279201089	 2.7276857038	-0.319144
H	 1.2102173394	 1.7311060433	-0.4616267857	 0.129701
H	-0.4109713598	 1.7468990656	-1.155780787	 0.133393
H	-0.1852016125	 2.0962050866	 0.5711544114	 0.113898
H	-1.0507953713	-0.2371324921	 0.2374948475	 0.096801
H	 0.3707047002	-1.9781380635	-0.9096627629	 0.109152
H	 2.6716568039	-1.0075432636	 0.3508181683	 0.130339
H	 2.861142791	-0.4893701799	 2.0937905091	 0.11072
H	-0.0187012316	-2.2371329748	 3.3769557438	 0.115265
H	 1.618436823	-1.6571809463	 3.7621538786	 0.107967
H	 0.7661485244	 0.7132232852	 3.2458830013	 0.107169
H	-0.7878695666	-0.0229770312	 2.8011083121	 0.112033
57.9081	73.236	159.1243	180.6995	233.3095	257.457	288.2639	352.1685	432.4845	490.7252	607.2809	696.4588	744.9925	779.5785	809.8748	832.1085	889.0635	927.8168	939.1429	967.1013	998.4645	1053.7313	1080.7089	1096.9775	1105.1778	1132.8964	1141.7121	1192.8568	1207.2091	1220.8095	1262.2965	1300.2365	1326.1889	1344.9075	1376.5722	1405.1912	1421.8984	1488.407	1490.4289	1494.4433	1498.1246	1521.2708	1823.7057	2923.6257	2967.4213	3048.6154	3048.9992	3058.1346	3097.1863	3102.3626	3118.4279	3121.292	3131.9053	3188.93
CC(C=O)C12CN1CC2	C[C@@H](C=O)[C@]12CN1CC2	
InChI=1S/C7H11NO/c1-6(4-9)7-2-3-8(7)5-7/h4,6H,2-3,5H2,1H3	InChI=1S/C7H11NO/c1-6(4-9)7-2-3-8(7)5-7/h4,6H,2-3,5H2,1H3/t6-,7-,8?/m0/s1
