19
gdb 41206	2.79149	1.83755	1.64552	2.0021	75.63	-0.234	0.05	0.284	918.3957	0.160954	-422.906328	-422.899507	-422.898563	-422.937033	28.832	
C	 0.104583073	 1.5769925923	-0.1875959947	-0.177106
O	 1.5726073049	 1.4002600847	 0.0063994436	-0.330342
C	 1.1996773124	 0.2789478298	 0.8912478927	 0.115385
C	 1.2547302889	-1.2802000393	 1.1413545307	-0.105654
C	-0.3575464164	-1.0941423705	 1.1491422941	-0.320119
C	-0.0558280704	 0.0628635353	 0.1377350972	 0.365667
O	 0.1154201438	-0.5860759636	-1.1375215401	-0.303321
C	 1.3346481179	-1.2952469676	-1.3230959226	-0.066582
C	 1.6935797917	-2.0993235846	-0.0681139819	-0.224763
H	-0.2987921583	 2.2748153681	 0.5551362824	 0.103603
H	-0.1289086692	 1.8801919883	-1.2090409073	 0.124614
H	 0.9957225738	 0.7264936887	 1.8723531438	 0.087903
H	 1.7161420902	-1.614427276	 2.0726998717	 0.079458
H	-0.9411397193	-1.9282212411	 0.7558615318	 0.11391
H	-0.7282126721	-0.7840829133	 2.127148456	 0.11216
H	 1.1891656012	-1.9346396239	-2.1984217209	 0.102094
H	 2.1401841265	-0.5827822058	-1.5435511671	 0.113292
H	 2.7730887858	-2.2848004361	-0.0419379511	 0.105311
H	 1.1952745558	-3.0755114254	-0.0547138384	 0.10449
203.5771	227.5898	293.9633	369.173	390.4115	427.5864	528.6175	544.0078	637.9655	737.4706	758.365	798.7086	807.9449	829.5446	867.1133	889.8117	931.5747	949.8511	982.2909	1011.9988	1045.678	1061.9531	1090.1147	1113.5307	1124.6237	1149.6362	1183.5266	1210.371	1216.2965	1243.9056	1257.7595	1277.3284	1299.707	1323.4911	1363.8456	1409.2351	1430.6593	1468.5272	1486.1974	1491.4975	1510.8747	3008.2666	3017.9886	3032.8225	3036.1289	3071.1171	3075.8842	3089.5417	3090.1589	3134.7996	3147.5112
C1OC2C3CC12OCC3	C1O[C@@H]2[C@H]3C[C@@]12OCC3	
InChI=1S/C7H10O2/c1-2-9-7-3-5(1)6(7)8-4-7/h5-6H,1-4H2	InChI=1S/C7H10O2/c1-2-9-7-3-5(1)6(7)8-4-7/h5-6H,1-4H2/t5-,6-,7-/m1/s1
