16
gdb 133603	2.9867	1.30192	1.15813	2.173	62.03	-0.2549	0.0108	0.2657	1067.7064	0.121987	-532.279041	-532.271173	-532.270229	-532.312247	29.235	
F	-0.2407363883	-0.0625069236	 0.2208218343	-0.083455
C	-0.0763497942	 1.2638774252	 0.0888426722	 0.272823
F	 1.2438593467	 1.4993099624	 0.0058445162	-0.084751
F	-0.6187820354	 1.6147238178	-1.0906359968	-0.083155
C	-0.7083045646	 2.0343219906	 1.2402761545	-0.171252
C	-2.200978072	 1.6579962262	 1.4509739462	-0.237537
C	-2.2270931953	 0.7211995119	 2.6864017562	-0.249485
C	-0.88838578	 0.9693102928	 3.3365794953	-0.049188
C	-0.0682533815	 1.6785965341	 2.5652827141	-0.086091
H	-0.5827490985	 3.0914709229	 0.9815389981	 0.102668
H	-2.7641003643	 2.5697306891	 1.6648582698	 0.111771
H	-2.644083151	 1.2066571393	 0.561166016	 0.119844
H	-3.0687685509	 0.9398304428	 3.3525932731	 0.107279
H	-2.324983616	-0.3341224056	 2.4005572138	 0.120668
H	-0.6341235524	 0.5786133066	 4.3157772399	 0.101237
H	 0.9522851977	 1.9519062675	 2.8033636472	 0.108623
68.8573	79.4739	179.7322	228.2276	329.2701	372.7303	428.6772	527.8784	570.8012	612.2625	732.5705	735.3005	795.7667	808.7458	868.9021	919.9569	942.6371	975.5757	1000.6628	1043.9411	1066.5728	1131.827	1142.3721	1178.0317	1197.3398	1229.3355	1271.9107	1290.5147	1314.5301	1325.8799	1375.2134	1383.1186	1481.5762	1501.1998	1690.8921	3026.2242	3050.6383	3059.6895	3076.8529	3120.7926	3190.3267	3219.2303
FC(F)(F)C1CCC=C1	FC(F)(F)[C@H]1CCC=C1	
InChI=1S/C6H7F3/c7-6(8,9)5-3-1-2-4-5/h1,3,5H,2,4H2	InChI=1S/C6H7F3/c7-6(8,9)5-3-1-2-4-5/h1,3,5H,2,4H2/t5-/m1/s1
