12
gdb 21512	5.24034	1.80706	1.3437	3.7806	57.85	-0.2826	-0.0418	0.2408	829.224	0.085981	-410.878246	-410.871528	-410.870584	-410.909643	23.848	
N	-0.1242476107	 1.2996481017	 0.009709082	-0.561941
C	 0.0653425773	-0.0380587047	 0.0015888486	 0.528156
O	 1.110021036	-0.629568167	-0.0099354642	-0.336989
N	-1.2010464809	-0.7462671546	 0.0090713838	 0.033576
N	-2.3807175526	-0.1089780273	 0.0202074225	-0.225083
C	-3.2673078816	-1.0941021411	 0.0236880045	-0.054187
C	-2.5726227855	-2.3208138848	 0.0142269629	-0.047561
N	-1.2692545467	-2.0762576204	 0.0050101131	-0.179759
H	 0.6907816503	 1.8861820656	 0.0021324765	 0.278386
H	-1.0525355481	 1.6876019992	 0.0161948909	 0.287314
H	-4.326674387	-0.8915631984	 0.0324572758	 0.139217
H	-2.9477358105	-3.3318951682	 0.0136899836	 0.138871
65.3637	166.6256	213.9638	248.4827	429.7374	518.4931	580.5342	674.6769	676.8262	680.799	764.8045	863.2167	908.184	974.2039	978.7259	1081.1696	1099.9854	1196.2639	1271.9911	1297.111	1311.6208	1392.1095	1437.0425	1527.5468	1590.9821	1878.9361	3262.8702	3279.3153	3612.1935	3757.6032
NC(=O)N1N=CC=N1	NC(=O)n1nccn1	
InChI=1S/C3H4N4O/c4-3(8)7-5-1-2-6-7/h1-2H,(H2,4,8)	InChI=1S/C3H4N4O/c4-3(8)7-5-1-2-6-7/h1-2H,(H2,4,8)
