18
gdb 121608	4.53819	0.64162	0.56799	0.573	69.79	-0.2411	-0.0622	0.1789	1863.4437	0.145046	-476.268582	-476.258082	-476.257138	-476.305599	36.118	
N	-0.0072562479	 1.3036013251	 0.0081247232	-0.518088
C	 0.0765587582	-0.0442485915	 0.0004363071	 0.332427
O	 1.1008749104	-0.7002066575	-0.0127230019	-0.352217
C	-1.3204879542	-0.7149956338	 0.0103370423	 0.285089
O	-2.3197606255	-0.031504885	 0.0235524341	-0.308269
C	-1.3155331616	-2.2225312862	 0.0023736403	-0.30027
C	-2.7115163748	-2.8382985001	 0.0125051555	-0.173779
C	-2.6692182284	-4.3604283049	 0.0041281992	-0.077876
O	-4.0073516725	-4.8304637815	 0.0144887981	-0.419988
H	 0.8292837465	 1.8616115861	 0.0032687261	 0.26915
H	-0.9188659256	 1.7319518669	 0.0192974358	 0.279385
H	-0.7269327482	-2.5407296559	-0.8690324657	 0.143742
H	-0.7104008205	-2.5497910672	 0.8589754051	 0.143747
H	-3.2650200423	-2.5011769457	 0.8949393495	 0.120146
H	-3.2817719448	-2.4920078227	-0.8555957956	 0.120143
H	-2.1278200622	-4.7137352532	-0.8894331889	 0.085143
H	-2.1108341935	-4.7230183629	 0.883404622	 0.085143
H	-3.9893979032	-5.7917719199	 0.0091995438	 0.286373
43.892	58.3172	89.3862	97.9158	131.3659	231.7147	262.7422	287.2107	312.1945	357.0801	415.4413	456.8577	543.0534	613.6981	628.6419	701.0426	776.7686	802.7069	879.1413	1016.7286	1041.1605	1074.3311	1093.3073	1093.3721	1103.7108	1201.8355	1240.8707	1283.6016	1305.1155	1310.2773	1361.6581	1402.8491	1432.8616	1468.4537	1494.1072	1528.1113	1586.5638	1796.3349	1809.2008	2955.584	2979.9991	3028.7233	3049.5224	3056.3738	3098.7457	3596.127	3737.9705	3831.0571
NC(=O)C(=O)CCCO	NC(=O)C(=O)CCCO	
InChI=1S/C5H9NO3/c6-5(9)4(8)2-1-3-7/h7H,1-3H2,(H2,6,9)	InChI=1S/C5H9NO3/c6-5(9)4(8)2-1-3-7/h7H,1-3H2,(H2,6,9)
