20
gdb 77814	2.36523	1.51634	1.31387	3.3588	80.9	-0.2486	0.0284	0.277	1103.3134	0.171557	-403.16861	-403.159921	-403.158977	-403.201514	33.385	
C	-0.0657783996	 1.5557905615	-0.0386891373	-0.429626
C	 0.0672182177	 0.0503132886	 0.0519245454	-0.059581
C	 1.3686134918	-0.7068661023	-0.1962441123	-0.183688
C	 2.6223419985	 0.0778793403	-0.0833493273	 0.420255
N	 3.5113266963	 0.1984190943	-0.9728166618	-0.552771
O	 2.6835706916	 0.6686428885	 1.1572212133	-0.249612
C	 1.6870258049	 0.1220112243	 2.0360580417	-0.150092
C	 0.7276134983	-0.6959735676	 1.1802499768	 0.287783
C	 0.07467666	-1.8996600116	 1.8148982568	-0.489875
H	 0.8107488217	 2.0773163261	 0.3520051064	 0.140586
H	-0.1974858351	 1.8655888908	-1.0803620104	 0.129227
H	-0.941714173	 1.8988055005	 0.5230632568	 0.116632
H	-0.7895296038	-0.4810930416	-0.3574728307	 0.091376
H	 1.3717962374	-1.5656580018	-0.8541354686	 0.109309
H	 4.2906442999	 0.7576392795	-0.6213759119	 0.219679
H	 2.1830570821	-0.5159057139	 2.7784817993	 0.111662
H	 1.2088458215	 0.9558563583	 2.5613917506	 0.11589
H	-0.5949347803	-1.6035008868	 2.631076874	 0.124125
H	-0.5240202068	-2.4517183717	 1.0844079521	 0.125173
H	 0.820335367	-2.5883750652	 2.2280647071	 0.123547
115.7737	182.1348	193.8091	199.1767	210.8267	244.5633	303.7926	412.063	457.7192	486.4036	560.7377	655.5462	695.4666	757.0571	786.5317	863.1761	890.059	935.7397	943.457	974.5873	989.9472	1023.1109	1056.1558	1074.6139	1106.7583	1131.1746	1138.2122	1144.3827	1226.3345	1243.7321	1269.5018	1323.7432	1354.582	1390.7509	1418.0183	1423.8638	1462.9486	1489.0749	1497.7119	1500.1815	1504.6409	1523.3708	1774.4488	3021.1811	3026.2704	3036.9449	3067.8875	3083.8101	3095.2393	3104.9166	3118.4454	3135.123	3207.2857	3471.6719
CC1C2C(=N)OCC12C	C[C@H]1[C@H]2[C]([NH])OC[C@@]12C	
InChI=1S/C7H11NO/c1-4-5-6(8)9-3-7(4,5)2/h4-5,8H,3H2,1-2H3	InChI=1S/C7H11NO/c1-4-5-6(8)9-3-7(4,5)2/h4-5,8H,3H2,1-2H3/t4-,5-,7-/m0/s1
