18
gdb 13231	7.00997	0.88162	0.84095	2.0055	74.31	-0.2471	0.0596	0.3067	1365.5079	0.152562	-347.753732	-347.745147	-347.744203	-347.787775	30.626	
C	-0.0003265517	-1.1896958936	-0.1748198988	-0.44031
C	-0.0018917021	 0.0110464991	-0.1170221346	 0.292903
C	 0.0298642627	 1.4656997389	-0.0408729443	-0.352788
C	 1.4505895342	 2.0265353778	 0.173761874	-0.196874
C	 1.4515253841	 3.5436335583	 0.2204467144	 0.16081
C	 2.8052878522	 4.2783673577	 0.0958973203	-0.304466
C	 2.1709719447	 4.9360594313	-1.1457003379	-0.057114
O	 0.9790410225	 4.1324468543	-1.0183095466	-0.294239
H	-0.0140367312	-2.2497471076	-0.229562069	 0.191607
H	-0.3778201222	 1.898449595	-0.9619184281	 0.152942
H	-0.6243551062	 1.8043100252	 0.7736618083	 0.126282
H	 1.8690770645	 1.6365538435	 1.1095283802	 0.108201
H	 2.1004625704	 1.6871948905	-0.6404243101	 0.110007
H	 0.837679953	 3.894092407	 1.0642049583	 0.071322
H	 3.0676631827	 4.9474428574	 0.9163075979	 0.111495
H	 3.6503112199	 3.6200176066	-0.1166992024	 0.111856
H	 1.9521626716	 6.0065626185	-1.0433980657	 0.102082
H	 2.6778304908	 4.7694286601	-2.1031359261	 0.106285
52.7768	87.5705	102.8587	126.9163	224.7072	344.6966	363.0777	440.643	522.3047	613.4569	634.2465	740.2458	769.5532	816.7272	882.9308	922.1345	950.3763	974.8	1010.2045	1033.1346	1059.6796	1105.5234	1131.7713	1166.2363	1202.8102	1221.6904	1254.3761	1269.0421	1296.5648	1313.7436	1357.3909	1372.4493	1404.814	1470.071	1484.9802	1491.3735	1531.9598	2239.0231	2983.3605	3016.1087	3019.4404	3035.7403	3057.6997	3060.8291	3077.7852	3086.5738	3134.2271	3508.273
C#CCCC1CCO1	C#CCC[C@H]1CCO1	
InChI=1S/C7H10O/c1-2-3-4-7-5-6-8-7/h1,7H,3-6H2	InChI=1S/C7H10O/c1-2-3-4-7-5-6-8-7/h1,7H,3-6H2/t7-/m0/s1
