21
gdb 61227	3.04776	0.97904	0.93585	4.3122	83.41	-0.2321	0.0277	0.2598	1371.3858	0.180893	-383.257457	-383.247478	-383.246533	-383.292262	36.931	
C	 0.9972986642	-0.5151915391	 0.3690570529	-0.347227
N	-0.0673721487	-0.2652971114	-0.5952550418	-0.099207
C	 0.1648004779	-0.9114030431	-1.8787992594	-0.292752
C	 1.3099875566	-0.3211960774	-2.5862299937	 0.274726
N	 2.2154730762	 0.1294332352	-3.1443073815	-0.310655
C	-1.4079402886	-0.4765721899	-0.0856986898	 0.363456
C	-1.8048362214	-1.8919092048	 0.3092640794	-0.467699
C	-1.9597301613	 0.6725357562	 0.7189391279	-0.307062
C	-2.4619993346	 0.4232253183	-0.6845075346	-0.307345
H	 1.9466826798	-0.1468847583	-0.0307635653	 0.144498
H	 0.7795501737	 0.0297641916	 1.2906127558	 0.129385
H	 1.1272039875	-1.5827935513	 0.6193106806	 0.100673
H	 0.3472574903	-1.999983616	-1.8061570473	 0.12945
H	-0.7251624821	-0.778554201	-2.5027704843	 0.154821
H	-1.1577506386	-2.2851815968	 1.1005495361	 0.123666
H	-2.8323598515	-1.9145158037	 0.6828393075	 0.12198
H	-1.7517357244	-2.5806594293	-0.5418382814	 0.117273
H	-2.6150120206	 0.4443608605	 1.5524095757	 0.113355
H	-1.3139284479	 1.5301753485	 0.8652787905	 0.123318
H	-2.1442602811	 1.1209707144	-1.4506308755	 0.12198
H	-3.4620609955	 0.0241350873	-0.8146424418	 0.113366
63.5215	92.9956	143.9515	214.1575	229.7904	239.8866	253.3503	305.4118	331.8638	390.6623	395.9522	442.8129	502.1332	546.3595	721.4558	789.2804	853.1216	875.4044	926.7313	931.7934	963.3896	987.6056	1027.1898	1040.6693	1063.2825	1087.5561	1124.7104	1154.4443	1168.9526	1191.6175	1240.671	1267.9293	1319.7026	1346.8282	1385.2724	1415.2097	1454.6185	1458.9172	1473.8476	1488.3652	1491.466	1495.6318	1506.0298	1514.7934	2363.6071	2930.3794	2953.829	3030.7415	3074.632	3075.8145	3090.4158	3109.8805	3123.5246	3135.4517	3140.5391	3220.5478	3234.1862
CN(CC#N)C1(C)CC1	CN(CC#N)C1(C)CC1	
InChI=1S/C7H12N2/c1-7(3-4-7)9(2)6-5-8/h3-4,6H2,1-2H3	InChI=1S/C7H12N2/c1-7(3-4-7)9(2)6-5-8/h3-4,6H2,1-2H3
