19
gdb 108753	2.21375	1.3089	0.86663	5.3937	80.12	-0.2288	-0.0353	0.1935	1328.6736	0.158272	-423.064661	-423.055341	-423.054397	-423.099412	33.901	
C	-0.1060375593	 1.5516844153	 0.0469855589	-0.404156
C	 0.0349955328	 0.0200910707	 0.0332253649	-0.082299
C	 0.8220559989	-0.5167794594	-1.1815980194	-0.353047
C	 1.9658928319	-1.3647177579	-0.600876854	 0.389432
O	 2.7886783196	-1.9751833152	-1.2444849493	-0.33774
C	 1.8556375642	-1.2839127063	 0.8684818994	-0.290243
C	 0.8050124693	-0.5312869928	 1.225095322	 0.312798
C	 0.3640808846	-0.2425751484	 2.6222759122	-0.172451
O	 1.1710417476	-0.9508719264	 3.5399249968	-0.40895
H	 0.8779614785	 2.0328291924	 0.063183406	 0.125275
H	-0.6335751241	 1.8931307571	-0.8487718422	 0.124597
H	-0.6704152867	 1.9034906244	 0.9164453274	 0.115731
H	-0.9775085421	-0.4072933419	 0.0490437291	 0.088797
H	 0.2145337041	-1.1294190494	-1.8535857685	 0.129314
H	 1.2483551785	 0.2892688445	-1.787990577	 0.127932
H	 2.5364147283	-1.7843815529	 1.5425666953	 0.126256
H	 0.4148469439	 0.8462271242	 2.7950998127	 0.110268
H	-0.7023798881	-0.516538645	 2.7179576858	 0.104609
H	 0.9069844182	-0.701626713	 4.4300234899	 0.293876
51.2667	85.9431	146.4122	178.2409	223.4124	247.9709	271.3039	339.5125	414.9362	493.1166	524.1138	565.2729	609.8123	660.7373	800.3654	850.1529	881.6331	920.9144	929.9689	1011.7455	1044.8758	1064.417	1080.4111	1124.8513	1151.1145	1179.3023	1210.9728	1220.9154	1254.5529	1259.8847	1299.8842	1330.1366	1339.3559	1407.8937	1456.3254	1462.4831	1494.5332	1499.2044	1501.1364	1680.0531	1811.3084	2941.8323	2964.1893	3002.7586	3032.3789	3058.1628	3099.908	3104.5029	3107.1362	3243.1018	3839.1637
CC1CC(=O)C=C1CO	C[C@H]1CC(=O)C=C1CO	
InChI=1S/C7H10O2/c1-5-2-7(9)3-6(5)4-8/h3,5,8H,2,4H2,1H3	InChI=1S/C7H10O2/c1-5-2-7(9)3-6(5)4-8/h3,5,8H,2,4H2,1H3/t5-/m0/s1
