17
gdb 16386	3.20422	2.31691	1.71782	3.6918	68.69	-0.228	0.0294	0.2574	812.0347	0.144226	-363.872054	-363.865101	-363.864157	-363.903318	26.479	
C	-0.0415034676	 1.3651994323	-0.1273530271	-0.347098
N	-0.0330235732	-0.0427328514	 0.1845467214	-0.061729
C	-1.1830540057	-0.9646398185	 0.0415675127	-0.003321
C	-0.7461635657	-2.1079591362	 0.9950799375	-0.219944
C	 0.3815187971	-2.2490032523	-0.0799164488	-0.154495
C	-0.7287880462	-1.8845820015	-1.1323947957	-0.230173
C	 1.0644781632	-0.8707678386	 0.0318462618	 0.411921
O	 2.2305621603	-0.5599120056	-0.0389847117	-0.399671
H	 0.9939724017	 1.7118638246	-0.0968646816	 0.161593
H	-0.4483833118	 1.5700571725	-1.1281889492	 0.116805
H	-0.6257083646	 1.9316729706	 0.6059890836	 0.123873
H	-2.1499963798	-0.4667824648	 0.0929226362	 0.081163
H	-0.4600424015	-1.8274193506	 2.0107814211	 0.109852
H	-1.4320950602	-2.9579470443	 0.9965178928	 0.105672
H	 1.0386038447	-3.1104282354	-0.1649553415	 0.089892
H	-1.410153665	-2.7139934566	-1.3359539752	 0.106713
H	-0.4174480657	-1.4004920041	-2.0616446662	 0.108947
83.7055	165.8996	201.653	267.4567	445.2307	477.8106	496.5085	629.3442	721.7809	756.1041	831.0604	845.5195	873.0266	891.2154	923.893	999.7651	1008.8864	1034.9173	1059.7629	1100.903	1107.3825	1148.7567	1160.2846	1220.2203	1231.3794	1243.7038	1254.9751	1255.7102	1287.7244	1410.4758	1454.4288	1478.9886	1490.4352	1514.8133	1519.2297	1844.4579	2997.267	3059.2372	3063.4771	3068.0414	3124.3266	3130.985	3133.4496	3134.4011	3159.3952
CN1C2CC(C2)C1=O	CN1[C@@H]2C[C@@H](C2)C1=O	
InChI=1S/C6H9NO/c1-7-5-2-4(3-5)6(7)8/h4-5H,2-3H2,1H3	InChI=1S/C6H9NO/c1-7-5-2-4(3-5)6(7)8/h4-5H,2-3H2,1H3/t4-,5+
