14
gdb 29436	5.14328	0.86145	0.75689	2.0952	66.75	-0.2005	-0.0101	0.1904	1389.1839	0.100084	-473.86396	-473.85552	-473.854576	-473.897684	30.143	
O	 0.5647772437	 1.2205226921	 0.1669014521	-0.446325
C	 0.1856787855	-0.0787335623	 0.0064251659	 0.341708
C	-0.2547198968	-0.6070960112	-1.1828891857	-0.172619
N	-0.5326787824	-1.9453461941	-0.9520888219	-0.304007
C	-0.2845406447	-2.2367996781	 0.3510319446	 0.398328
O	-0.533924421	-3.5041794546	 0.804445577	-0.216716
C	 0.5016436595	-4.1726266581	 1.4005552906	 0.155976
O	 0.3542364339	-5.2442565164	 1.8941811861	-0.252439
C	 0.168350251	-1.1084642014	 0.9958804195	-0.414985
H	 0.7787416338	 1.3678845385	 1.0922542091	 0.299234
H	-0.3947810187	-0.15369014	-2.1481501791	 0.129012
H	-0.8903390999	-2.6024634716	-1.6228469331	 0.274386
H	 1.4398957064	-3.5926203022	 1.3590260636	 0.103086
H	 0.4231520496	-1.0258554707	 2.0409476613	 0.105359
57.3488	116.8631	146.5947	178.4686	282.3847	326.5952	364.6875	437.4918	453.2964	506.7198	617.5632	667.7118	679.0641	690.7922	755.6988	831.6662	985.6507	1025.1426	1044.0045	1108.3143	1115.9418	1167.9441	1194.8	1311.6516	1329.9471	1400.6101	1458.1341	1502.7532	1557.192	1660.1944	1879.6472	2996.8022	3250.0729	3290.9017	3690.5561	3848.4982
OC1=CNC(OC=O)=C1	Oc1c[nH]c(OC=O)c1	
InChI=1S/C5H5NO3/c7-3-9-5-1-4(8)2-6-5/h1-3,6,8H	InChI=1S/C5H5NO3/c7-3-9-5-1-4(8)2-6-5/h1-3,6,8H
