19
gdb 39200	2.61593	2.14798	1.84142	1.5934	77.09	-0.2292	0.0084	0.2376	859.3777	0.163813	-385.886635	-385.880515	-385.87957	-385.91663	26.914	
C	-0.0370745392	 1.5026598112	 0.1243473714	-0.220457
C	 1.4087815686	 2.0365372197	-0.0491439213	-0.187114
C	 2.1779170766	 1.1513441667	-1.0643837436	-0.109616
C	 1.5179967876	 1.2766128894	-2.4289448311	-0.07311
C	 0.5378904432	 0.380049175	-2.5707585948	-0.097889
C	 0.5157847915	-0.5355434513	-1.3809426369	-0.071115
C	 0.0113439853	-0.0259913557	 0.0249861261	 0.078562
O	 1.2677095619	-0.4660037329	 0.6253218818	-0.303238
C	 1.870959003	-0.3390584293	-0.6820714884	 0.100274
H	-0.436978009	 1.808103101	 1.0963652088	 0.099937
H	-0.7078303488	 1.9039666159	-0.6430772254	 0.102156
H	 1.4077059005	 3.0845348003	-0.3644804084	 0.08928
H	 1.9229584278	 1.9810971426	 0.9137050172	 0.112779
H	 3.2433394653	 1.3973366913	-1.0636270791	 0.065565
H	 1.7595057238	 2.0704151051	-3.1275796109	 0.095531
H	-0.1425909428	 0.3071904679	-3.4108810928	 0.094356
H	 0.2177994417	-1.5686837211	-1.5659149494	 0.07427
H	-0.8504755025	-0.5310649346	 0.4677923446	 0.073679
H	 2.7025348255	-1.0313508712	-0.8348283077	 0.076148
248.1861	293.3506	355.5363	428.2206	481.3977	581.4806	617.3333	685.2673	744.0265	760.2234	782.3976	810.2219	841.5509	861.7317	921.4462	934.9057	950.0365	966.1977	986.9504	994.6167	1010.9006	1050.433	1066.7879	1078.3987	1119.6111	1133.2063	1169.9029	1224.8453	1234.9774	1266.4591	1284.2656	1300.4326	1312.2466	1323.0434	1348.1678	1358.179	1374.1876	1382.7844	1473.2667	1486.4863	1661.2299	3042.8974	3053.4655	3064.8733	3076.1618	3082.1707	3083.1117	3101.5769	3103.9138	3182.8993	3209.7906
C1CC2C=CC3C1OC23	C1C[C@@H]2C=C[C@@H]3[C@H]1O[C@H]23	
InChI=1S/C8H10O/c1-3-6-7-4-2-5(1)8(6)9-7/h1,3,5-8H,2,4H2	InChI=1S/C8H10O/c1-3-6-7-4-2-5(1)8(6)9-7/h1,3,5-8H,2,4H2/t5-,6+,7-,8+/m0/s1
