16
gdb 55133	2.55771	1.5782	1.18533	6.5554	64.75	-0.2382	0.0146	0.2527	1039.1066	0.123775	-474.995655	-474.987497	-474.986553	-475.028637	30.804	
N	-0.123950573	 1.0617852469	-0.0336789683	-0.613714
H	 0.0456220279	 0.0685115164	-0.1561645988	 0.24767
H	 0.7176111342	 1.5689205694	-0.2776520855	 0.249318
H	-2.2639216394	 1.9296966857	-0.4881154162	 0.310046
C	-0.6075121136	 1.3875457869	 1.2635426298	 0.221952
C	-0.0996520914	 2.5139410544	 2.1291746209	-0.338438
C	-0.3199218192	 1.1611166842	 2.7457957173	 0.047509
O	-1.7091515889	 0.9893775036	 3.0478407014	-0.28026
C	-2.0541980436	 1.0876074875	 1.6514767917	-0.036454
C	-3.0730088205	 2.1373355068	 1.2443331745	 0.402337
O	-3.8366362641	 2.705579828	 1.9677963662	-0.315644
O	-3.030592998	 2.3786643862	-0.0914292329	-0.379649
H	 0.9436103614	 2.7615943197	 1.9480405055	 0.115232
H	-0.7308368144	 3.3521197778	 2.4139553801	 0.144692
H	 0.4015175683	 0.5840062198	 3.3112056085	 0.114837
H	-2.3815348457	 0.1073173869	 1.2758253958	 0.110566
72.8634	129.1636	139.7095	272.8394	301.2949	355.9642	421.5435	427.915	487.9961	573.3103	657.4717	674.3614	725.7664	760.8962	818.96	861.2648	902.9153	943.3258	962.5105	1004.3457	1016.1706	1056.4945	1078.9395	1100.5221	1159.6741	1190.6886	1219.4744	1260.7151	1323.7496	1344.0853	1377.6886	1409.0983	1486.5351	1648.5582	1889.9817	3007.4383	3106.866	3192.1643	3199.3429	3508.4562	3604.5188	3655.2074
[NH3+]C12CC1OC2C([O-])=O	N[C@]12C[C@H]1O[C@H]2C(=O)O	
InChI=1S/C5H7NO3/c6-5-1-2(5)9-3(5)4(7)8/h2-3H,1,6H2,(H,7,8)	InChI=1S/C5H7NO3/c6-5-1-2(5)9-3(5)4(7)8/h2-3H,1,6H2,(H,7,8)/t2-,3+,5-/m1/s1
