12
gdb 125469	5.42535	1.35082	1.08886	4.3621	64.68	-0.2567	-0.0688	0.1879	1010.4785	0.077386	-468.779937	-468.772933	-468.771988	-468.811698	25.047	
C	-0.0126788982	 1.4365466184	 0.069924788	-0.492471
C	-0.0133280966	-0.0391413919	-0.0614607022	 0.38143
N	-0.2052995414	-0.7415313454	-1.1519025848	-0.38868
C	-0.0988700179	-2.0312955736	-0.6937914774	 0.402813
C	 0.1504233215	-2.0380993431	 0.6439743593	 0.294218
O	 0.2143624054	-0.7587982439	 1.0958614649	-0.210687
N	 0.2548137886	-3.2987215138	 1.0909172071	-0.190687
N	 0.0904933827	-4.0991122361	 0.139615335	-0.037755
O	-0.1651880663	-3.2494725729	-1.1556362361	-0.258163
H	 0.9513069867	 1.790440612	 0.4491011164	 0.16401
H	-0.2026875602	 1.8790416515	-0.9074701378	 0.171973
H	-0.7847088744	 1.7623530186	 0.7742109876	 0.163999
84.3072	149.3495	244.3026	298.7257	303.255	368.358	554.0374	581.2533	635.6056	668.3589	776.8686	784.1192	831.0578	913.8406	979.7305	1027.2372	1061.4501	1187.7671	1285.9949	1401.7625	1417.4955	1455.8141	1469.9564	1482.0783	1522.2515	1570.9182	1587.7687	3049.8787	3107.4422	3167.4184
CC1=NC2=C(O1)N=NO2	Cc1nc2c(o1)nno2	
InChI=1S/C4H3N3O2/c1-2-5-3-4(8-2)6-7-9-3/h1H3	InChI=1S/C4H3N3O2/c1-2-5-3-4(8-2)6-7-9-3/h1H3
