22
gdb 32727	2.88774	0.99823	0.79031	1.6996	90.66	-0.189	0.0514	0.2404	1530.5255	0.19434	-367.266637	-367.256592	-367.255647	-367.302687	36.597	
C	 0.0578902812	 1.6015499421	-0.2026758127	-0.379657
C	 0.0546046851	 0.0717725634	-0.1629565139	-0.14921
C	-1.3425960244	-0.5178911489	 0.1205289423	-0.311679
C	-1.3845212927	-2.013288323	 0.1519213484	 0.214112
C	-1.3979048663	-2.9134476957	 1.2021672631	 0.204916
C	-1.3917157913	-2.5941470677	 2.6680544292	-0.50877
C	-1.4076675508	-4.2236506928	 0.6327918772	-0.22403
C	-1.397503464	-4.0905227698	-0.7332184175	-0.094218
N	-1.3802647961	-2.748560617	-1.0153205075	-0.29008
H	 1.0587629129	 1.9938090411	-0.407865005	 0.112401
H	-0.6143878063	 1.9805157073	-0.9810409024	 0.111168
H	-0.2753833651	 2.0232809354	 0.7522748344	 0.115056
H	 0.4270304755	-0.3249385386	-1.1161512233	 0.089432
H	 0.7509372123	-0.2867849524	 0.6041993371	 0.104588
H	-1.7031971845	-0.1326967855	 1.0808172036	 0.10987
H	-2.046973512	-0.1391864134	-0.6348518132	 0.092697
H	-2.1673068031	-3.1542098123	 3.2029336212	 0.120912
H	-0.4341849163	-2.8479196482	 3.1399706747	 0.121351
H	-1.5706314402	-1.5308153779	 2.8535859268	 0.114571
H	-1.4253122856	-5.1558886065	 1.1779692561	 0.083838
H	-1.4091683203	-4.8262119847	-1.5213598344	 0.110448
H	-1.3930771682	-2.351691155	-1.9384715343	 0.252285
37.7128	76.4096	81.5608	111.6288	237.9749	240.7272	266.4493	310.8885	348.8952	412.6218	453.593	633.1856	638.619	675.556	706.2613	740.0756	765.2667	819.4395	864.8976	893.4846	917.7266	983.0245	1040.0989	1045.0799	1059.8922	1093.5662	1108.6033	1129.7279	1188.0896	1240.6976	1273.0022	1298.5866	1308.5216	1334.4468	1378.0602	1411.4012	1416.8102	1432.1292	1475.9509	1482.5444	1487.777	1490.9785	1498.8063	1501.5215	1509.3679	1514.6332	1630.9353	2997.5585	3019.6719	3024.3943	3027.7409	3053.0199	3066.7758	3070.6235	3094.9527	3099.4035	3102.0777	3236.6385	3266.4793	3678.7478
CCCC1=C(C)C=CN1	CCCc1c(C)cc[nH]1	
InChI=1S/C8H13N/c1-3-4-8-7(2)5-6-9-8/h5-6,9H,3-4H2,1-2H3	InChI=1S/C8H13N/c1-3-4-8-7(2)5-6-9-8/h5-6,9H,3-4H2,1-2H3
