15
gdb 44668	3.00503	1.93765	1.73612	4.6999	67.9	-0.2475	-0.0233	0.2242	826.8573	0.11638	-416.819632	-416.813628	-416.812684	-416.849858	24.875	
O	-0.0510995779	 0.0185693953	 0.2775492533	-0.352542
C	-0.0367394672	 1.2007677507	 0.063588544	 0.400741
N	-1.1459397471	 2.0254222037	-0.1315632439	-0.306668
C	-0.7734932268	 3.4061695171	 0.2422280309	-0.098392
C	-0.6980508348	 3.4704830249	 1.7639571071	-0.090081
C	 0.5321385403	 3.1436677447	 2.177104198	-0.070909
C	 1.4630551168	 3.0057174192	 1.0213520263	-0.064461
C	 0.7102927411	 3.3962377668	-0.1909432834	-0.043233
N	 1.1453763471	 2.0066726255	-0.0940377443	-0.169054
H	-2.0188624531	 1.6414206509	 0.2060098402	 0.249232
H	-1.4087987765	 4.1417081811	-0.2508057883	 0.094856
H	-1.5761037512	 3.5675624835	 2.392284181	 0.112295
H	 0.8372111797	 2.97069497	 3.2014701217	 0.116045
H	 2.5291766821	 3.1574155733	 1.1377878173	 0.113672
H	 1.0852857375	 4.0073680734	-1.0042504399	 0.108498
141.5	270.8202	405.2606	491.0786	526.6289	605.6059	645.0223	673.8713	735.4575	763.727	784.0629	833.525	850.7012	858.4325	910.5559	928.2008	945.2589	978.5978	1012.5487	1025.8382	1044.5576	1111.6443	1126.5247	1156.8076	1250.7355	1266.7256	1290.6613	1320.1208	1360.3619	1378.0085	1392.3987	1645.3764	1862.7743	3114.6155	3172.0386	3191.747	3196.4389	3223.4815	3593.3033
O=C1NC2C=CC3C2N13	O=C1N[C@H]2C=C[C@@H]3[C@H]2N13	
InChI=1S/C6H6N2O/c9-6-7-3-1-2-4-5(3)8(4)6/h1-5H,(H,7,9)	InChI=1S/C6H6N2O/c9-6-7-3-1-2-4-5(3)8(4)6/h1-5H,(H,7,9)/t3-,4+,5-,8?/m0/s1
