19
gdb 98789	4.16969	0.97571	0.87393	1.5985	77.35	-0.2405	0.017	0.2575	1366.7917	0.159434	-423.073967	-423.064931	-423.063987	-423.109489	32.082	
C	 0.0187338296	 1.3559807557	 0.1185907181	-0.239653
O	 0.1748852001	-0.0652584506	 0.0266564956	-0.236504
C	 0.5294553758	-0.5306641912	-1.1906516182	 0.433265
O	 0.7216946702	 0.1857046861	-2.1420584956	-0.362476
C	 0.6012179134	-2.0423919276	-1.1833404874	-0.098747
C	-0.8168890375	-2.683614799	-1.3596015824	-0.266786
C	-0.5458786897	-3.8632850372	-2.2610254919	-0.061726
C	 0.6805983239	-3.8354121934	-2.7767730972	-0.061182
C	 1.4679856099	-2.6306121695	-2.3241238457	-0.274158
H	 0.9562766076	 1.8637036894	-0.121972138	 0.140173
H	-0.7541250583	 1.7062716318	-0.5704578615	 0.139093
H	-0.2700734338	 1.5573567468	 1.1503312368	 0.13153
H	 0.9924875188	-2.3544060256	-0.2120825871	 0.099616
H	-1.2576814781	-2.9604836515	-0.3965413304	 0.113605
H	-1.5214632753	-1.9865940617	-1.8347099333	 0.117194
H	-1.3033947559	-4.6082931275	-2.4779535347	 0.093064
H	 1.0819744515	-4.5599953197	-3.4765634389	 0.094072
H	 1.5794867134	-1.8982478534	-3.133119365	 0.135646
H	 2.4784123445	-2.8813661019	-1.9823990034	 0.103975
21.6463	69.6918	119.4598	135.2266	206.4843	276.2311	332.3178	383.4571	389.262	571.5348	706.3238	732.8657	766.9885	789.5286	845.2455	922.3851	943.979	960.4404	975.43	981.4148	1039.8122	1043.3746	1087.6317	1131.0082	1158.0462	1179.7144	1186.5042	1209.0668	1223.279	1298.0707	1304.9588	1325.5729	1361.566	1382.4923	1473.8269	1482.1604	1485.4129	1491.751	1498.34	1692.2519	1814.6957	3012.145	3033.9588	3050.9955	3060.2894	3066.4212	3086.6274	3124.6692	3157.044	3183.2413	3208.7329
COC(=O)C1CC=CC1	COC(=O)[C@H]1CC=CC1	
InChI=1S/C7H10O2/c1-9-7(8)6-4-2-3-5-6/h2-3,6H,4-5H2,1H3	InChI=1S/C7H10O2/c1-9-7(8)6-4-2-3-5-6/h2-3,6H,4-5H2,1H3
