16
gdb 131667	3.47222	0.94347	0.7744	1.5579	68.04	-0.2592	-0.0155	0.2437	1421.1479	0.123805	-475.004104	-474.995253	-474.994309	-475.038958	31.16	
O	 0.4555318976	 0.749181848	-0.8061587773	-0.399503
C	-0.0777470305	 0.1202389194	 0.3403981816	-0.172778
C	-1.4194600291	-0.4916127097	 0.0726566696	 0.396977
C	-2.0697989989	-0.8178213708	-1.0743260896	-0.410168
C	-3.3044414167	-1.3637493304	-0.6152982889	 0.352311
C	-4.4490803316	-1.8873799999	-1.434133164	-0.172432
O	-4.8998317662	-0.93946912	-2.3907170967	-0.410275
N	-3.3849738096	-1.3494181424	 0.6940757428	-0.201839
O	-2.1829819319	-0.7945737554	 1.1381152967	-0.214533
H	-0.1319890846	 1.4737966121	-1.0459930916	 0.291241
H	 0.6399143508	-0.6601493565	 0.6189042797	 0.146027
H	-0.156996536	 0.80013325	 1.2020564283	 0.122533
H	-1.7259522112	-0.703526374	-2.0878231498	 0.134668
H	-4.1245108602	-2.7570167276	-2.0148082467	 0.128492
H	-5.2487613236	-2.215437417	-0.7572436756	 0.120279
H	-5.2324362284	-0.1755758557	-1.9076771586	 0.289
44.8585	72.4888	108.1856	183.0537	221.9925	318.6911	336.4216	382.6669	409.279	482.6066	622.6491	647.7541	725.0829	778.5792	833.3568	933.6932	968.0239	987.1915	1011.3481	1022.9347	1075.8537	1094.3554	1140.9412	1202.0927	1204.1261	1259.6033	1371.2595	1385.6719	1409.7143	1421.6058	1460.2234	1491.9308	1495.9799	1522.4501	1638.8195	2997.7894	3024.1322	3062.1348	3081.0331	3290.0845	3810.7526	3812.5667
OCC1=CC(CO)=NO1	OCc1cc(CO)no1	
InChI=1S/C5H7NO3/c7-2-4-1-5(3-8)9-6-4/h1,7-8H,2-3H2	InChI=1S/C5H7NO3/c7-2-4-1-5(3-8)9-6-4/h1,7-8H,2-3H2
