17
gdb 26848	2.88206	1.42901	0.96675	4.8749	81.07	-0.224	-0.0506	0.1734	1191.7099	0.134973	-421.903391	-421.894514	-421.89357	-421.939323	31.678	
C	 0.1636888073	 1.4993978348	 0.1317488304	-0.473865
C	-0.0634733012	 0.0221243201	 0.0626481112	 0.324095
C	-1.2409316649	-0.6474623009	-0.0555200936	 0.112059
C	-2.5987287815	 0.0022048126	-0.1430751404	-0.500644
C	-1.1620124214	-2.080937337	-0.096871664	-0.071169
C	 0.013323213	-2.7469601482	-0.0237390731	-0.278704
C	 1.2617724642	-2.0294418913	 0.1012858264	 0.423656
O	 2.3745212707	-2.4782336874	 0.1762882203	-0.349257
O	 1.1198827379	-0.6330151296	 0.1364217254	-0.262286
H	 0.8196202318	 1.8140402353	-0.6870273124	 0.152665
H	-0.7637967667	 2.0667762187	 0.0754273431	 0.134344
H	 0.6756256311	 1.7538188612	 1.0660240327	 0.152724
H	-3.1112897769	-0.2896647405	-1.0671616292	 0.135363
H	-3.2380165196	-0.31371637	 0.6897835005	 0.135651
H	-2.5519759753	 1.0912124931	-0.1250569687	 0.13052
H	-2.0901184556	-2.6395639837	-0.1909716276	 0.111685
H	 0.0796036971	-3.8268314573	-0.054611181	 0.123163
7.7687	85.0991	104.0263	179.7728	289.5022	318.6178	328.929	419.3859	468.3286	506.0799	562.5899	605.9876	715.8943	749.671	763.9054	848.9376	854.2147	979.4205	1007.1094	1037.0458	1054.4813	1069.8836	1088.9745	1147.3955	1221.3721	1226.4674	1326.0064	1409.3603	1425.7837	1445.5241	1469.9604	1479.9877	1484.4045	1495.8357	1597.7031	1694.6074	1840.9357	3030.08	3044.6683	3075.9736	3095.8305	3139.3593	3161.6755	3165.3885	3222.2045
CC1=C(C)C=CC(=O)O1	Cc1c(C)ccc(=O)o1	
InChI=1S/C7H8O2/c1-5-3-4-7(8)9-6(5)2/h3-4H,1-2H3	InChI=1S/C7H8O2/c1-5-3-4-7(8)9-6(5)2/h3-4H,1-2H3
