16
gdb 44201	4.13765	1.16306	1.10829	2.1741	70.63	-0.2562	0.0081	0.2643	1109.8004	0.124382	-437.819225	-437.811824	-437.81088	-437.851596	27.886	
N	-0.0991882374	 1.1952171737	-0.0689740299	-0.552046
C	-0.1000880884	-0.0555662422	-0.0743801643	 0.463287
O	 0.9620255444	-0.9614444622	-0.1940213713	-0.273738
C	 0.052367057	-2.0636494978	 0.0639369263	-0.001638
C	-1.136610423	-1.1190855932	 0.0915913419	-0.294487
C	-0.9418841362	-2.1381854486	-1.0251022424	 0.267359
C	-0.7756116023	-1.9838237101	-2.5326409921	-0.139024
O	-1.6266825939	-3.1352123834	-2.7516580271	-0.273424
C	-1.8782140122	-3.3020968342	-1.3424539826	-0.150842
H	 0.843974292	 1.5684508651	-0.1878902342	 0.234742
H	 0.3846003037	-2.8429820706	 0.7368569335	 0.128963
H	-2.0208190284	-1.0790942744	 0.7114426408	 0.127087
H	-1.2002412783	-1.0699319542	-2.9646145442	 0.120302
H	 0.2385875167	-2.1367364221	-2.9177646954	 0.120439
H	-1.5651484195	-4.2885367413	-0.9768503263	 0.111223
H	-2.9341416043	-3.1417900045	-1.0886738726	 0.111795
79.5373	118.2512	185.7722	233.1292	367.1929	420.8389	457.2113	586.1052	680.9613	752.8974	816.7304	860.2859	868.2815	868.8413	921.6788	947.0049	967.125	991.8541	999.9989	1029.2975	1033.186	1056.0134	1126.4333	1144.9136	1150.1824	1164.3057	1179.725	1231.7104	1290.834	1307.8498	1362.8718	1448.981	1507.8784	1531.9545	1834.3672	3005.5219	3027.0615	3048.1794	3074.8188	3208.3565	3226.616	3482.5827
N=C1OC2C1C21COC1	[NH][C]1O[C@H]2[C@@H]1C12COC1	
InChI=1S/C6H7NO2/c7-5-3-4(9-5)6(3)1-8-2-6/h3-4,7H,1-2H2	InChI=1S/C6H7NO2/c7-5-3-4(9-5)6(3)1-8-2-6/h3-4,7H,1-2H2/t3-,4-/m0/s1
