15
gdb 42488	6.42044	0.64674	0.61652	2.3213	74.23	-0.2711	-0.0585	0.2126	1684.8691	0.112596	-413.016044	-413.006512	-413.005568	-413.051758	32.273	
N	-0.4716984277	 0.9299211525	 0.8572295164	-0.521404
C	-0.1831988364	-0.0594406408	 0.0976186909	 0.292442
N	-1.1080298174	-0.6486646515	-0.7146008369	-0.311412
C	-2.4715442787	-0.1665354828	-0.7930590856	-0.164967
C	-3.3155664692	-0.5782007684	 0.4382174584	-0.331703
C	-4.7001041768	-0.1363414142	 0.3084372494	 0.258251
N	-5.7915586202	 0.2190340882	 0.1758098477	-0.298188
C	 1.1428961448	-0.6531673161	 0.0114684895	 0.231563
N	 2.2070972979	-1.1032403679	-0.0271895681	-0.31137
H	 0.3425673073	 1.2584523839	 1.3685458613	 0.247217
H	-0.8345927852	-1.4557079133	-1.2477294927	 0.273035
H	-2.4571635496	 0.9245146943	-0.8630512494	 0.16401
H	-2.9201791565	-0.5635278187	-1.7060953278	 0.136223
H	-3.2973742183	-1.6664903189	 0.5602025518	 0.150679
H	-2.873061614	-0.1329907562	 1.334048575	 0.185626
44.3264	58.0844	92.8868	155.8455	178.0468	244.6183	270.7968	330.3875	393.4894	401.0299	498.3495	574.8605	616.3816	726.9515	757.3491	824.3109	878.171	958.9903	1012.2512	1043.9638	1099.0931	1174.6718	1237.4161	1300.6211	1318.4147	1352.1306	1406.0316	1467.8043	1477.7399	1551.9759	1684.0485	2350.6898	2364.0014	3055.0814	3072.4786	3103.4933	3129.9589	3543.0955	3674.034
N=C(NCCC#N)C#N	N=C(NCCC#N)C#N	
InChI=1S/C5H6N4/c6-2-1-3-9-5(8)4-7/h1,3H2,(H2,8,9)	InChI=1S/C5H6N4/c6-2-1-3-9-5(8)4-7/h1,3H2,(H2,8,9)
