21
gdb 66347	2.23949	1.41434	1.33332	4.4219	81.87	-0.2352	0.0365	0.2717	1134.0085	0.184684	-383.300538	-383.291791	-383.290846	-383.33337	34.364	
C	 0.0065971089	 1.529953199	 0.0366670903	-0.428535
C	-0.021617955	-0.0074293872	-0.0010869101	 0.093071
C	 0.6553864137	-0.5441803307	-1.2930970473	-0.206184
C	 0.806999411	-2.0712823239	-1.2710700033	-0.215499
C	 1.5136460284	-2.5307065365	 0.0114256521	-0.190255
C	 0.7935014435	-1.9738194336	 1.2480019546	-0.171538
N	 0.6098182493	-0.5167532855	 1.2277064181	-0.299296
C	-1.4374268995	-0.4456193161	 0.0071261027	 0.315551
N	-2.5416085922	-0.7857571463	-0.0192875386	-0.356926
H	 1.0456365854	 1.8754438686	 0.0147256567	 0.117151
H	-0.5118958168	 1.9505642416	-0.8280573623	 0.136348
H	-0.4660201715	 1.8964655112	 0.9502521559	 0.145489
H	 0.0914065379	-0.218128227	-2.1736556827	 0.110275
H	 1.6454974182	-0.0727397104	-1.3506084598	 0.093293
H	-0.1861933163	-2.5346141778	-1.3282762417	 0.122289
H	 1.3577656383	-2.4005677549	-2.1582053638	 0.098639
H	 1.5504983083	-3.624889927	 0.0602150787	 0.099018
H	 2.5544443736	-2.1773166494	 0.0067816126	 0.087787
H	-0.2005094804	-2.4312583819	 1.3313215807	 0.128748
H	 1.3337666779	-2.2263765238	 2.1656863603	 0.104349
H	 1.5103124072	-0.0557586985	 1.324238747	 0.216227
114.0993	149.8161	201.0595	238.1018	265.3925	309.0094	323.7515	404.1068	417.8623	456.5613	535.8688	593.9444	615.7627	675.0715	738.1553	818.3972	851.0576	873.3842	914.8864	936.3485	975.8671	984.2831	1058.3954	1067.311	1104.7413	1127.2013	1161.4676	1200.4132	1211.4161	1245.1523	1299.8674	1328.6363	1359.0494	1371.6892	1379.5453	1390.4842	1407.0814	1468.7426	1474.1648	1484.7053	1485.8714	1494.02	1498.8504	1502.975	2353.7785	3009.1737	3019.0838	3030.5236	3032.5275	3043.1707	3066.5861	3071.9917	3077.771	3083.7285	3118.0307	3141.3212	3504.4339
CC1(CCCCN1)C#N	C[C@]1(CCCCN1)C#N	
InChI=1S/C7H12N2/c1-7(6-8)4-2-3-5-9-7/h9H,2-5H2,1H3	InChI=1S/C7H12N2/c1-7(6-8)4-2-3-5-9-7/h9H,2-5H2,1H3/t7-/m0/s1
