20
gdb 115145	2.57325	1.27117	0.98434	3.078	74.91	-0.236	0.0375	0.2735	1241.5625	0.17184	-440.331407	-440.32211	-440.321166	-440.36549	34.538	
C	-0.7879019778	 1.263867397	 0.0530970438	-0.408713
C	-0.0161314305	-0.0529643802	 0.0030564405	-0.123802
C	 0.6864884831	-0.4665809021	-1.3127051396	-0.009924
C	 1.2515406543	 0.7115157936	-2.105675042	-0.089446
O	 1.9098499999	 0.1779238947	-3.2475819918	-0.422623
C	 1.8271652055	-1.3908980512	-0.8167702226	-0.182461
N	 2.1181518075	-0.8535742339	 0.5025989201	-0.309993
C	 1.1066525641	-0.1181971634	 1.0533168496	 0.413764
O	 1.0943700136	 0.3744162972	 2.1616383905	-0.391511
H	-0.1579263448	 2.1198329612	-0.2056976721	 0.121863
H	-1.6466363976	 1.2516639193	-0.6249345087	 0.110386
H	-1.1479960596	 1.4255847947	 1.0721139254	 0.141571
H	-0.7075258202	-0.8629385398	 0.2780015715	 0.103193
H	 0.0149239097	-1.0169197407	-1.977333281	 0.085658
H	 0.4356661655	 1.38518851	-2.4030176298	 0.094823
H	 1.9489056634	 1.2889901156	-1.478208498	 0.097861
H	 2.3054416629	 0.9059912126	-3.7350784068	 0.289188
H	 1.4955788728	-2.4376735036	-0.7653354494	 0.100943
H	 2.6948990037	-1.3407092965	-1.4784986162	 0.130049
H	 2.9087600545	-1.1343933846	 1.0602962368	 0.249174
70.8332	129.2219	158.5087	198.0759	234.1563	252.4616	262.7886	300.0637	410.3181	436.801	515.6935	533.4155	624.2077	719.6144	732.102	783.8616	840.7948	910.2226	967.0065	1005.9592	1035.7995	1069.5071	1075.5435	1102.7357	1138.6949	1165.9568	1201.3871	1236.8952	1255.552	1264.3432	1276.2011	1318.5183	1343.1396	1359.0128	1380.5887	1410.8749	1438.5963	1459.8177	1493.7593	1503.6408	1521.902	1535.7723	1825.2494	2977.1278	2999.2431	3001.8619	3017.7229	3044.5889	3074.6006	3098.7005	3111.9393	3125.5334	3643.6974	3834.6502
CC1C(CO)CNC1=O	C[C@H]1[C@@H](CO)CNC1=O	
InChI=1S/C6H11NO2/c1-4-5(3-8)2-7-6(4)9/h4-5,8H,2-3H2,1H3,(H,7,9)	InChI=1S/C6H11NO2/c1-4-5(3-8)2-7-6(4)9/h4-5,8H,2-3H2,1H3,(H,7,9)/t4-,5+/m0/s1
