13
gdb 33334	3.08255	0.88371	0.722	7.1301	82.48	-0.2858	-0.0558	0.23	1462.9623	0.089336	-378.457196	-378.448927	-378.447983	-378.491078	29.053	
N	-0.0809642969	-3.7568296818	-0.0291955786	-0.330399
C	-0.045048519	-2.5957201108	-0.0165391993	 0.213908
C	-0.0119188079	-1.2316153542	-0.0000470644	 0.046158
C	 0.0114368394	-0.0235185343	 0.0213145732	 0.130099
C	 0.017905932	 1.4024365057	 0.0355758759	-0.213097
C	 0.487047699	 2.1576098965	 1.2616345541	-0.282327
C	 1.3458365752	 2.1829894432	 0.0206948822	-0.166557
C	 2.5958730125	 1.4774039941	-0.0033173065	 0.296449
N	 3.6075699958	 0.9183526738	-0.0269763321	-0.314556
H	-0.7743129511	 1.8669709391	-0.5439465654	 0.149416
H	-0.0417102445	 3.0665809288	 1.5214222555	 0.150078
H	 0.842248256	 1.5677800448	 2.0970795465	 0.166909
H	 1.3355304095	 3.091050995	-0.5722373012	 0.153919
56.5716	96.0846	149.8586	203.2485	258.0107	267.7948	432.9688	476.2485	554.9303	571.922	579.3354	614.036	701.3364	765.4154	833.6675	894.6618	952.8035	1029.4033	1090.2873	1114.3415	1133.255	1172.9028	1238.5367	1374.4848	1395.3732	1479.4129	2269.1153	2362.9358	2398.0082	3155.9557	3157.8739	3177.8883	3255.2719
N#CC#CC1CC1C#N	N#CC#C[C@H]1C[C@H]1C#N	
InChI=1S/C7H4N2/c8-3-1-2-6-4-7(6)5-9/h6-7H,4H2	InChI=1S/C7H4N2/c8-3-1-2-6-4-7(6)5-9/h6-7H,4H2/t6-,7-/m0/s1
