17
gdb 75232	3.68693	1.21445	1.07767	3.094	74.46	-0.2527	-0.037	0.2157	1146.4326	0.13554	-418.010169	-418.001996	-418.001052	-418.042985	30.376	
C	 0.0603340788	 1.4861813789	 0.0601610677	-0.47235
C	 0.018349189	-0.0012655936	-0.0414285902	 0.333304
N	 0.0123530771	-0.664528762	-1.1272930609	-0.248359
C	-0.0583949213	-2.0945826792	-0.7985349981	-0.256696
C	-0.0211173775	-2.1536792816	 0.7265186425	 0.21063
C	 1.1556248029	-1.5441122455	 1.4141253604	-0.29004
N	-0.0538599411	-0.7354449774	 1.2054923818	-0.181979
C	-0.8833985855	-3.1117171981	 1.4698716271	 0.096293
O	-1.4817330857	-4.0175020517	 0.9467880649	-0.253572
H	 0.9248871487	 1.8058543038	 0.6525087157	 0.138432
H	 0.1151691796	 1.9284373909	-0.9345071001	 0.150288
H	-0.832162846	 1.8514747731	 0.5784691956	 0.149868
H	-0.9923572039	-2.5280851218	-1.1712484591	 0.142774
H	 0.7619894795	-2.6341034939	-1.2829171867	 0.124124
H	 1.3656751804	-1.7913947708	 2.4512231869	 0.131946
H	 2.0262810459	-1.3313448277	 0.7983521436	 0.138626
H	-0.9333452608	-2.9265790634	 2.565296909	 0.086709
82.7503	160.8737	179.0786	201.3589	255.3057	316.8501	369.5471	398.9202	479.2317	624.8066	656.5221	684.0546	785.9889	801.8194	831.9621	932.9791	960.1062	976.205	1009.1772	1049.3229	1071.8257	1076.2401	1122.5716	1134.6483	1192.9074	1238.8757	1285.8243	1303.4825	1362.4396	1409.5902	1425.8026	1472.3203	1474.9142	1487.9388	1500.6754	1721.9818	1821.4867	2895.576	3043.4989	3051.9845	3085.5419	3099.1109	3103.6633	3159.118	3196.2536
CC1=NCC2(CN12)C=O	CC1=NC[C@]2(CN12)C=O	
InChI=1S/C6H8N2O/c1-5-7-2-6(4-9)3-8(5)6/h4H,2-3H2,1H3	InChI=1S/C6H8N2O/c1-5-7-2-6(4-9)3-8(5)6/h4H,2-3H2,1H3/t6-,8?/m0/s1
