17
gdb 34850	3.81246	1.32422	1.22484	4.7767	77.2	-0.2366	-0.0105	0.2261	1041.5312	0.138733	-380.849276	-380.842271	-380.841327	-380.880536	28.072	
N	-0.0343012278	-1.1376949888	-0.0782478547	-0.328091
C	-0.008853618	 0.0170520932	-0.0343930538	 0.299919
C	-0.0217811254	 1.4746458753	 0.0485741349	-0.136199
C	-0.1643516802	 2.0643609838	 1.4916179552	-0.069537
C	 1.3809724556	 1.9515569976	 1.5115065169	-0.186268
N	 1.3788640976	 2.0544364089	 0.0024079601	-0.120139
C	 1.2616220898	 3.4797030186	-0.3784423959	-0.222705
C	 0.1888408034	 4.2134850994	 0.4054071674	-0.07195
C	-0.5091428462	 3.5307967973	 1.3134738152	-0.075538
H	-0.7058779293	 1.8730886281	-0.7048934677	 0.122906
H	-0.7716055153	 1.5391204484	 2.2293312464	 0.088818
H	 1.9372417519	 2.7350113716	 2.0295981434	 0.114577
H	 1.7512941117	 0.9659557447	 1.8040288056	 0.132232
H	 2.2431265245	 3.9467221863	-0.2262717749	 0.125506
H	 1.0637022982	 3.5329203158	-1.4568750066	 0.123601
H	 0.0221404046	 5.2682080627	 0.2077977873	 0.101068
H	-1.2935010853	 3.977931157	 1.9141197712	 0.101803
141.0137	151.7366	294.44	341.5692	405.2119	469.7281	499.8412	508.1701	553.8743	709.2845	729.7943	821.3564	865.54	884.0638	904.9419	906.3066	956.1213	958.7895	974.4345	1022.2556	1059.6684	1079.8343	1096.6028	1155.5722	1167.7414	1216.7876	1227.4532	1270.8801	1285.3716	1310.6038	1347.6412	1354.6512	1382.3842	1472.0961	1503.0477	1693.5483	2355.7356	3020.7749	3051.2452	3064.2117	3082.6226	3107.2249	3127.9227	3168.7574	3195.9536
N#CC1C2CN1CC=C2	N#C[C@H]1[C@H]2CN1CC=C2	
InChI=1S/C7H8N2/c8-4-7-6-2-1-3-9(7)5-6/h1-2,6-7H,3,5H2	InChI=1S/C7H8N2/c8-4-7-6-2-1-3-9(7)5-6/h1-2,6-7H,3,5H2/t6-,7+/m1/s1
