13
gdb 129005	3.99002	1.8017	1.24122	3.6738	76.2	-0.2269	-0.0754	0.1515	903.3778	0.094338	-411.818434	-411.812717	-411.811773	-411.84841	23.01	
N	-0.1047484517	 1.2826638623	 0.00987785	-0.270089
N	 1.0797643608	 1.9217129129	 0.0023714177	-0.18947
H	 1.0018133674	 2.928298329	 0.008789392	 0.29108
C	 2.3048786112	 1.334846502	-0.0124457247	 0.071306
N	 2.4998930609	 0.0442780926	-0.0215750481	-0.33732
C	 1.3570918062	-0.6847632596	-0.0149703504	 0.330401
C	 1.0790498048	-2.030656768	-0.019982877	-0.309499
C	-0.3499550911	-2.0949338193	-0.006916591	-0.006198
N	-0.9870091883	-0.9213096005	 0.0057141587	-0.325915
C	 0.0285481326	-0.0183470579	 0.0012705142	 0.372221
H	 3.1451227475	 2.0224954601	-0.016449016	 0.144087
H	 1.7701054319	-2.8586948883	-0.0311614092	 0.112682
H	-0.9262566622	-3.0148246152	-0.0067010761	 0.116714
221.6063	259.1628	426.2032	483.1807	572.5554	573.8205	617.6043	632.6676	671.4956	773.6151	794.2228	829.6394	877.7185	902.8414	944.3013	969.4473	1023.9885	1055.2511	1156.9153	1227.5167	1298.8	1325.2136	1347.8678	1412.913	1429.3035	1494.2164	1583.564	1614.451	1637.5317	3185.115	3190.8871	3259.5223	3616.5353
[N-]1[NH+]=CN=C2C=CN=C12	n1[nH]cnc2ccnc12	
InChI=1S/C5H4N4/c1-2-6-5-4(1)7-3-8-9-5/h1-3H,(H-,6,7,8,9)	InChI=1S/C5H4N4/c1-2-6-5-4(1)7-3-8-9-5/h1-3H,(H,7,8)
