22
gdb 23009	2.39329	1.10877	0.96945	0.5857	85.9	-0.2317	0.0159	0.2476	1387.2342	0.192453	-404.302591	-404.292307	-404.291363	-404.337841	38.324	
C	 0.073725615	 1.9946395268	-1.0079656059	-0.377129
C	 0.6547110995	 0.5834242109	-0.9454910603	-0.247355
C	 0.1645404077	-0.3902421425	-2.003081149	 0.356717
N	-0.7233956099	 0.0758021223	-2.7977388401	-0.203282
O	-1.1792185357	-0.8387889687	-3.7680513116	-0.3972
C	 0.8133687908	-1.7291607879	-1.9317418744	-0.081993
C	 0.4499221552	-2.985882865	-2.7011783974	-0.314878
C	 1.7371437813	-2.2843032612	-3.0217385902	 0.011339
C	 1.9398277836	-1.5681226741	-4.3381894865	-0.414653
H	 0.3004311188	 2.4734122024	-1.9638686771	 0.125299
H	-1.0136987276	 1.9791862498	-0.9027451744	 0.127423
H	 0.4918982146	 2.6088489047	-0.2045468599	 0.101579
H	 1.7511459722	 0.6222348461	-1.0135167282	 0.113719
H	 0.4481755814	 0.137089646	 0.038096772	 0.112312
H	-1.8285430231	-0.3096837712	-4.2422013714	 0.303335
H	 1.1896792	-1.9143169172	-0.9292081757	 0.083777
H	 0.4915349373	-3.9178600414	-2.1468939612	 0.104588
H	-0.3535773336	-2.9176702629	-3.418630027	 0.144234
H	 2.6375601983	-2.7483477893	-2.6264057545	 0.084314
H	 1.0055311685	-1.1343803027	-4.6989307283	 0.144119
H	 2.6791129376	-0.764618243	-4.2448785536	 0.110958
H	 2.306695998	-2.2673256018	-5.0982516755	 0.112778
50.2356	88.8658	160.7963	195.8858	221.9904	225.4388	251.6078	301.2204	311.1842	382.0999	400.6619	409.2188	448.3491	621.7918	637.2554	747.7205	765.2722	808.7134	860.329	891.4776	951.1975	957.4852	977.5984	1042.0404	1078.9052	1089.0545	1098.3303	1104.9258	1130.9989	1152.8656	1159.804	1212.0731	1255.4033	1290.5622	1366.9004	1380.9591	1396.7237	1413.4868	1426.9239	1437.4444	1471.8742	1487.5444	1489.8051	1500.2518	1503.0462	1506.7347	1731.5535	3004.8277	3028.2774	3031.0369	3047.4511	3084.1053	3116.2726	3123.8195	3128.0098	3134.8134	3143.8112	3149.6847	3266.0629	3824.4466
CCC(=NO)C1CC1C	CCC(=NO)[C@H]1C[C@H]1C	
InChI=1S/C7H13NO/c1-3-7(8-9)6-4-5(6)2/h5-6,9H,3-4H2,1-2H3	InChI=1S/C7H13NO/c1-3-7(8-9)6-4-5(6)2/h5-6,9H,3-4H2,1-2H3/t5-,6+/m1/s1
