18
gdb 34312	3.28637	1.44332	1.28895	4.2397	75.17	-0.2393	0.0277	0.267	1018.5931	0.152171	-398.133552	-398.126329	-398.125385	-398.165043	29.023	
N	 0.0568208678	-1.1016079612	 0.0580148879	-0.342311
C	 0.0301770094	 0.0529528392	 0.0189474422	 0.20702
C	-0.0326019047	 1.5086035562	 0.0072637381	 0.174744
C	-0.8456229869	 2.1186587536	 1.1906785941	-0.20408
N	-1.0748180611	 3.5182581197	 0.7406949622	-0.298509
C	-0.4746264567	 3.5832086164	-0.6123530402	-0.037647
C	 1.0505982012	 3.5557707752	-0.4276295872	-0.148725
N	 1.3072058433	 2.1297915501	-0.0638837802	-0.330394
C	-0.7235173188	 2.1780703381	-1.2021368825	-0.236774
H	-1.7807282996	 1.5762983346	 1.3701988831	 0.115459
H	-0.2547167812	 2.0838873898	 2.1126551571	 0.111532
H	-2.0714399998	 3.6900994285	 0.6708362538	 0.225035
H	-0.8506893387	 4.4372184687	-1.1752445024	 0.078062
H	 1.5824587527	 3.8127668938	-1.351030736	 0.107759
H	 1.3564770027	 4.2496266019	 0.3600783221	 0.11342
H	 1.7855514098	 2.0497859747	 0.8263529237	 0.22833
H	-0.2021203813	 1.9680571479	-2.1374284222	 0.127667
H	-1.7809757081	 1.920313743	-1.2874998935	 0.109411
143.7928	156.156	192.1906	355.9789	422.1245	460.9901	505.2757	549.5661	557.3433	573.5703	752.6925	783.0595	796.1245	835.6621	867.2391	910.478	946.0179	965.8833	969.9194	999.5331	1027.546	1071.9186	1091.3146	1139.3363	1159.4907	1170.7408	1219.3933	1237.3572	1256.4751	1277.5481	1298.8305	1354.6891	1374.7336	1417.9266	1442.4685	1486.7573	1511.0414	1517.18	2361.9302	3028.5713	3030.7913	3068.9213	3080.8798	3089.0252	3123.769	3143.03	3531.9178	3538.3203
N#CC12CNC(CN1)C2	N#C[C@@]12CN[C@@H](CN1)C2	
InChI=1S/C6H9N3/c7-3-6-1-5(2-9-6)8-4-6/h5,8-9H,1-2,4H2	InChI=1S/C6H9N3/c7-3-6-1-5(2-9-6)8-4-6/h5,8-9H,1-2,4H2/t5-,6+/m1/s1
