18
gdb 115028	1.99667	1.72109	1.02258	5.0139	77.8	-0.2631	0.0017	0.2649	1176.1582	0.147581	-401.95998	-401.951247	-401.950303	-401.993867	31.738	
C	 0.0794336108	 1.3773966432	 0.0590639727	-0.238934
O	-0.0853540236	-0.0142979125	-0.0973937789	-0.23241
C	 0.6344429831	-0.5691370835	-1.173878011	 0.115633
C	 2.097489962	-0.9059899013	-0.7772618449	-0.284068
C	 2.0266422667	-2.3533525783	-0.359582979	-0.064728
C	 0.8899099078	-2.9320451479	-0.7329613038	-0.056181
C	 0.0040791007	-1.9614064129	-1.4974258602	-0.224109
C	-1.4216444481	-2.055570982	-1.1831395092	 0.290665
N	-2.5509825801	-2.1778359923	-0.9730753046	-0.332921
H	 1.1165389672	 1.6538860193	 0.3008378562	 0.106464
H	-0.2220131058	 1.9224796108	-0.8484091553	 0.111783
H	-0.5645856405	 1.6819996845	 0.8865493399	 0.139975
H	 0.5806368718	 0.099078623	-2.0442921199	 0.075102
H	 2.784197205	-0.7709233338	-1.6239000278	 0.113161
H	 2.4462620245	-0.2427022387	 0.0210754099	 0.12096
H	 2.83442368	-2.8525231658	 0.162875921	 0.107033
H	 0.6033810359	-3.9635967743	-0.574218702	 0.119037
H	 0.0996457926	-2.1521145673	-2.5763273431	 0.133539
75.0942	92.0353	137.9537	183.4517	202.1685	301.221	362.1086	386.139	425.3671	524.0148	566.5033	698.6942	775.2741	805.8917	853.3047	866.7836	957.3651	971.7823	985.7468	1013.8111	1057.4676	1073.034	1134.5648	1144.2134	1183.9746	1197.0355	1214.9374	1244.7704	1278.6838	1309.0641	1321.0999	1375.7552	1390.9484	1469.3248	1480.6366	1490.6355	1508.5981	1688.9588	2364.0434	2978.8206	2998.7521	3010.9827	3024.5228	3028.6663	3075.0153	3125.5765	3197.8764	3227.7508
COC1CC=CC1C#N	CO[C@H]1CC=C[C@H]1C#N	
InChI=1S/C7H9NO/c1-9-7-4-2-3-6(7)5-8/h2-3,6-7H,4H2,1H3	InChI=1S/C7H9NO/c1-9-7-4-2-3-6(7)5-8/h2-3,6-7H,4H2,1H3/t6-,7-/m0/s1
