17
gdb 7430	3.29648	1.62171	1.17541	2.4082	67.61	-0.2349	-0.0496	0.1853	1041.1601	0.139132	-401.042072	-401.032283	-401.031339	-401.077598	32.615	
C	 0.3030748063	 1.2406531607	 0.1647850242	-0.346399
N	 0.0867688399	-0.1772599799	-0.0861410916	-0.098278
C	 0.286477366	-1.048179471	 1.0618806353	-0.335353
C	-0.2739306998	-0.5639501329	-1.339127341	 0.339738
O	-0.3878467635	 0.2068919423	-2.2838771898	-0.381758
C	-0.6197910068	-2.0472934418	-1.611755625	 0.291543
C	-0.2589039503	-2.5149985688	-3.0009598325	-0.468585
O	-1.2133345137	-2.7320428607	-0.8105014126	-0.29859
H	 1.3243891465	 1.4116669949	 0.5254181267	 0.125396
H	 0.1445838609	 1.7867354057	-0.763177984	 0.171485
H	-0.3956307444	 1.6025655088	 0.9290435	 0.12904
H	-0.4777240545	-0.860482986	 1.8264604147	 0.132078
H	 0.2304699601	-2.0939105568	 0.7782495371	 0.166118
H	 1.2681054167	-0.8423873074	 1.5059584815	 0.121158
H	-0.7022006962	-1.8433767673	-3.7396838597	 0.172996
H	 0.8266463646	-2.4577746681	-3.142883808	 0.143091
H	-0.6018171017	-3.5400830318	-3.1430320953	 0.136317
45.7086	66.6533	96.6057	124.622	137.0496	225.9431	244.0091	327.3086	361.3305	394.8024	416.2347	553.6679	611.6454	698.0858	728.1591	913.4049	987.7479	1033.9889	1080.7236	1122.7398	1129.4358	1179.3489	1240.2532	1281.7863	1374.3978	1429.855	1437.0966	1456.5493	1460.9292	1473.6081	1481.2609	1498.5232	1501.8877	1543.4816	1728.9158	1802.5676	3016.5634	3023.5518	3045.6223	3064.2146	3070.3717	3117.6609	3165.008	3173.4934	3205.2656
CN(C)C(=O)C(C)=O	CN(C)C(=O)C(=O)C	
InChI=1S/C5H9NO2/c1-4(7)5(8)6(2)3/h1-3H3	InChI=1S/C5H9NO2/c1-4(7)5(8)6(2)3/h1-3H3
