15
gdb 50902	4.67185	0.71268	0.69629	6.0384	71.33	-0.2555	-0.0134	0.2421	1595.1003	0.110536	-453.958438	-453.948767	-453.947823	-453.994889	33.01	
O	-0.1975910696	 0.2039271619	-0.8065987943	-0.252322
C	-0.007650887	 1.2142867891	-0.190486067	 0.168704
N	 1.2027451235	 1.672634009	 0.3164593369	-0.391564
C	 2.4476407906	 1.0071650216	 0.2792888374	 0.531144
O	 2.5949780731	-0.1289761074	-0.0974522678	-0.346585
N	 3.4651912388	 1.7999292065	 0.7724078595	-0.373822
C	 4.8476593115	 1.3395050776	 0.6701011416	-0.288375
C	 5.6457216337	 2.153797352	-0.2425518916	 0.288762
C	 6.2930123672	 2.8523693962	-0.9750562916	-0.448768
H	-0.8098082633	 1.9426298621	 0.050796843	 0.08203
H	 1.1566067637	 2.5518645061	 0.8099152581	 0.250533
H	 3.3348373188	 2.7994152315	 0.7949975732	 0.245638
H	 5.3132280501	 1.3324215484	 1.6634792896	 0.14083
H	 4.7962094606	 0.3026350236	 0.3241159955	 0.186134
H	 6.8716534685	 3.450488932	-1.6350492825	 0.20766
24.548	53.2968	76.5714	166.249	196.9743	248.8081	293.1082	324.6552	356.163	428.4054	550.6159	569.7207	602.3645	623.1552	675.147	762.8184	845.8723	928.1585	955.9086	1027.6182	1040.2319	1082.5191	1170.521	1211.2283	1269.3085	1375.2005	1450.2717	1477.6217	1510.1183	1519.5286	1808.2931	1877.5004	2241.1239	2915.6092	3028.388	3094.0419	3504.5125	3609.2403	3624.3875
O=CNC(=O)NCC#C	O=CNC(=O)NCC#C	
InChI=1S/C5H6N2O2/c1-2-3-6-5(9)7-4-8/h1,4H,3H2,(H2,6,7,8,9)	InChI=1S/C5H6N2O2/c1-2-3-6-5(9)7-4-8/h1,4H,3H2,(H2,6,7,8,9)
