16
gdb 77150	2.73228	1.24015	0.92748	4.316	66.27	-0.2317	0.0153	0.247	1216.9119	0.124543	-471.247575	-471.238282	-471.237338	-471.282392	33.221	
N	-0.0634853646	 1.480285634	 0.2296737057	-0.527557
C	-0.0012434937	 0.0610641372	-0.0255800263	-0.142363
C	-1.3626415677	-0.719149513	-0.0649504936	-0.064241
N	-0.9699783699	-1.2302721626	-1.3695386369	-0.321
C	 0.2288255743	-0.5540656297	-1.4462206532	 0.399752
O	 1.0829656376	-0.4852173282	-2.2872399066	-0.355528
C	-1.5802742964	-1.7770504502	 1.0091890412	 0.37485
N	-1.8370493041	-1.2546964964	 2.2428648642	-0.521291
O	-1.5457968882	-2.9675087009	 0.7708294549	-0.359622
H	 0.8733916451	 1.8655730469	 0.2944012055	 0.248253
H	-0.5215189877	 1.9630349502	-0.5386009996	 0.240693
H	 0.6933172143	-0.398021019	 0.6851604535	 0.120933
H	-2.2240347324	-0.0401728695	-0.1002977097	 0.10406
H	-1.2947652626	-2.0612685901	-1.8411075302	 0.264682
H	-1.7104761624	-0.2731624737	 2.4285195339	 0.272435
H	-1.9014217914	-1.8873677651	 3.0238946172	 0.265944
48.8439	65.4942	137.3711	219.1684	225.9167	281.7795	306.1577	330.0834	394.9037	410.1863	512.7666	560.6273	635.9854	697.2457	706.3806	754.6909	816.7155	913.6184	935.2862	976.2031	1067.6467	1100.7425	1144.333	1166.2337	1193.6523	1217.6785	1272.0619	1302.1047	1355.5193	1407.1604	1424.8124	1620.9225	1664.1616	1805.5299	1894.82	3025.4394	3070.2736	3494.2321	3575.0579	3589.2131	3624.4321	3722.3921
NC1C(NC1=O)C(N)=O	N[C@H]1[C@@H](NC1=O)C(=O)N	
InChI=1S/C4H7N3O2/c5-1-2(3(6)8)7-4(1)9/h1-2H,5H2,(H2,6,8)(H,7,9)	InChI=1S/C4H7N3O2/c5-1-2(3(6)8)7-4(1)9/h1-2H,5H2,(H2,6,8)(H,7,9)/t1-,2+/m0/s1
