13
gdb 129219	3.75783	1.24287	0.93397	0.5095	81.38	-0.2391	-0.0846	0.1545	1154.4415	0.089731	-411.73103	-411.723616	-411.722672	-411.763033	28.036	
N	-0.0463242661	 1.3793904634	 0.0110651901	-0.552928
C	-0.0213355357	 0.1003255432	 0.003667549	 0.433356
N	 1.1324347038	-0.7042992627	-0.0070079155	-0.298792
N	 1.2060939852	-2.0498399003	-0.0150375239	-0.046122
N	 0.1454828876	-2.7369453783	-0.0133282934	-0.255257
C	-1.0991403211	-2.0722096655	-0.0029788141	 0.20374
C	-1.2108318945	-0.7203275106	 0.0053014921	-0.225455
C	-2.2311649553	-2.9326790871	-0.0018639707	 0.265219
C	-3.1924359245	-3.6557679178	-0.0008739593	-0.361591
H	 0.891357875	 1.7840561227	 0.0084000227	 0.207751
H	 2.0446361402	-0.2692272518	-0.0093551885	 0.274362
H	-2.1706633019	-0.2209033886	 0.0132307988	 0.145882
H	-4.0375465628	-4.2993142465	-0.0000383873	 0.209835
124.9809	146.7812	148.1911	323.0271	400.5188	455.0282	474.2383	551.5895	555.5707	633.9956	651.2955	667.4761	674.9418	751.8518	768.0223	808.6038	931.9342	933.8399	1000.9264	1081.9423	1127.3252	1193.1888	1290.2629	1335.0897	1419.929	1553.714	1623.0415	1722.3164	2237.0711	3230.1371	3463.0135	3501.5878	3605.9394
N=C1NN=NC(=C1)C#C	[NH]c1[nH]nnc(c1)C#C	
InChI=1S/C5H4N4/c1-2-4-3-5(6)8-9-7-4/h1,3H,(H2,6,7,8)	InChI=1S/C5H9N4/c1-2-4-3-5(6)8-9-7-4/h1,4-9H,3H2
