16
gdb 87479	3.72805	1.23234	1.11069	2.7361	71.27	-0.2487	0.0023	0.251	1093.9149	0.123689	-437.791048	-437.783323	-437.782379	-437.823288	29.717	
O	-0.0880348692	 1.3910111155	-0.0733028508	-0.417038
C	-0.003332281	-0.0003047131	-0.0111247151	-0.010247
C	-0.4301127782	-0.7156827145	 1.2721981591	-0.426282
C	-1.2860050889	-0.7342172509	 0.0488518215	 0.497839
C	-2.7093173142	-0.2401317884	-0.2417003944	-0.257558
N	-2.4600602201	-0.7132307172	-1.6789473482	-0.302072
C	-1.8732388288	-1.8466728397	-0.8333297588	-0.28352
C	-3.1624045252	-1.7032894266	 0.0256678236	 0.445013
O	-4.0755365662	-2.3362682552	 0.4526647053	-0.324292
H	 0.6619462209	 1.7572702759	 0.4077218279	 0.290816
H	 0.8118258423	-0.445541949	-0.5822810375	 0.095439
H	 0.0965975568	-1.618439001	 1.5656774676	 0.1208
H	-0.748387791	-0.0820121179	 2.0941110223	 0.125533
H	-3.1600325099	 0.7228039839	-0.0162061975	 0.112037
H	-3.3391272242	-1.0109370963	-2.1147545523	 0.230605
H	-1.3827603231	-2.7108476156	-1.2767385527	 0.102925
112.6119	130.5802	191.0846	257.0591	311.6268	396.7903	434.7109	476.1273	550.3135	603.9659	704.0063	786.8381	791.3753	801.6845	829.7275	874.8805	961.5576	984.664	1008.9954	1039.9501	1052.5991	1080.0599	1109.7769	1127.1275	1135.6686	1167.2826	1184.3633	1187.8072	1249.3705	1279.1039	1294.299	1371.2059	1434.0533	1523.0443	1905.9397	3097.6698	3124.2355	3147.6356	3165.0491	3213.9291	3393.5	3801.0726
OC1CC11C2NC1C2=O	O[C@H]1C[C@]21[C@H]1N[C@@H]2C1=O	
InChI=1S/C6H7NO2/c8-2-1-6(2)4-3(9)5(6)7-4/h2,4-5,7-8H,1H2	InChI=1S/C6H7NO2/c8-2-1-6(2)4-3(9)5(6)7-4/h2,4-5,7-8H,1H2/t2-,4-,5+,6-/m0/s1
