16
gdb 34515	5.01837	1.18682	1.08177	4.747	81.68	-0.2447	-0.0525	0.1922	1099.3748	0.126841	-363.577192	-363.57068	-363.569736	-363.608117	26.35	
N	 0.0343866316	-1.1493295556	-0.0433943143	-0.34928
C	-0.0230074557	 0.0085979922	-0.0182842445	 0.190244
C	-0.0501693787	 1.418979535	 0.0124309833	 0.20566
C	-1.0971625099	 2.2616594236	 0.0170187234	-0.207748
C	-0.4615156707	 3.6316530066	 0.0557084907	-0.056881
C	 0.8149500881	 3.5745996698	-0.8715203302	-0.034614
C	 1.5622764604	 4.5148901469	 0.1022334829	-0.25514
C	 0.7897499121	 3.5330547866	 1.0132994376	-0.034613
C	 1.1616452244	 2.3495079127	 0.0491476556	-0.123202
H	-2.1518003316	 2.0278494272	-0.002231558	 0.133707
H	-1.085841147	 4.524406521	 0.0670396408	 0.077531
H	 0.8171704633	 3.5855084093	-1.9639288696	 0.083876
H	 2.6526712453	 4.442578746	 0.1152190233	 0.101358
H	 1.2379269772	 5.5585077004	 0.1208997721	 0.100085
H	 0.7627729918	 3.4958262512	 2.1047968431	 0.083874
H	 2.1651780293	 1.926522887	 0.0532402339	 0.085143
130.1244	151.2488	389.4171	409.3326	462.9447	488.3077	586.192	603.7443	714.0816	753.7992	797.6457	866.0419	868.8299	889.4135	901.3671	916.1879	966.0976	970.4152	1016.107	1056.9282	1074.4652	1095.1144	1127.4534	1155.2791	1173.6997	1194.5264	1202.9133	1230.656	1246.664	1261.737	1298.8521	1314.9376	1519.101	1644.2483	2330.9516	3056.0094	3090.1796	3093.2799	3117.037	3129.6742	3136.5762	3245.1113
N#CC1=CC2C3CC2C13	N#CC1=C[C@@H]2[C@H]3C[C@@H]2[C@@H]13	
InChI=1S/C8H7N/c9-3-4-1-5-6-2-7(5)8(4)6/h1,5-8H,2H2	InChI=1S/C8H7N/c9-3-4-1-5-6-2-7(5)8(4)6/h1,5-8H,2H2/t5-,6-,7+,8+
