22
gdb 36935	3.87559	0.93516	0.84335	0.9785	82.37	-0.2319	0.0847	0.3166	1442.7907	0.195856	-404.316238	-404.307419	-404.306474	-404.351235	32.74	
C	-0.0500280361	 1.4377221541	 0.1218568636	-0.14911
C	 0.1644621858	-0.0796524146	 0.1838623706	 0.008874
C	-1.1907235988	-0.83337762	 0.303108791	-0.260748
C	-1.3513398342	-1.5358724554	-1.0677850902	-0.067138
O	-0.3967593758	-0.93744749	-1.9332570524	-0.24417
C	 0.7354516845	-0.6651083593	-1.1223017159	-0.095709
N	 1.2122411626	 2.1718441513	 0.1272089587	-0.069407
C	 1.7020964797	 2.6704394427	-1.1567686297	-0.219864
C	 1.1226757563	 3.6005986921	-0.1516989409	-0.226236
H	-0.6738196148	 1.6843629593	-0.7571921201	 0.088992
H	-0.6117212829	 1.7479264086	 1.0115775223	 0.099818
H	 0.8257459583	-0.2934163228	 1.0277669506	 0.08142
H	-1.1869219012	-1.5548881263	 1.1235675844	 0.103191
H	-2.0104643643	-0.1332566416	 0.4904289123	 0.103666
H	-1.1547556815	-2.6160362226	-0.9739848096	 0.087402
H	-2.3392658877	-1.4074095596	-1.5175836079	 0.105992
H	 1.3901784394	 0.0139693922	-1.6710890284	 0.113843
H	 1.295887234	-1.592326829	-0.9141483381	 0.081872
H	 2.7766151697	 2.6177323384	-1.3087372047	 0.116279
H	 1.1042548716	 2.4684950754	-2.0442942524	 0.117564
H	 0.1408416272	 4.0177246724	-0.3719414492	 0.107951
H	 1.7644229782	 4.2408843048	 0.447141136	 0.115519
30.3155	68.4525	114.396	170.889	226.0365	333.6843	338.1983	388.5981	460.4226	680.0137	714.2643	769.4012	824.2563	846.517	853.2564	899.3411	929.1015	939.8128	959.4266	979.742	1013.9025	1038.9039	1047.0217	1095.0606	1110.9285	1121.2508	1133.0123	1151.5665	1174.65	1183.9005	1224.7515	1235.1399	1254.1819	1277.4955	1300.8126	1305.9231	1321.4193	1349.9633	1372.7027	1394.4026	1406.4241	1485.2408	1493.1374	1497.3952	1507.8138	1520.5805	1524.494	2935.7997	2959.6277	2973.0334	3042.4504	3056.7889	3075.4071	3088.5779	3090.4474	3094.962	3106.2174	3118.4998	3173.1388	3187.7573
C(C1CCOC1)N1CC1	C([C@H]1CCOC1)N1CC1	
InChI=1S/C7H13NO/c1-4-9-6-7(1)5-8-2-3-8/h7H,1-6H2	InChI=1S/C7H13NO/c1-4-9-6-7(1)5-8-2-3-8/h7H,1-6H2/t7-/m1/s1
