13
gdb 129987	3.28492	1.48066	1.02062	0.4229	65.06	-0.2191	-0.0462	0.1729	1053.5001	0.091972	-486.121639	-486.114281	-486.113337	-486.153293	28.26	
N	 0.0059451689	 1.3100386579	 0.0076839722	-0.538296
C	-0.0594990813	-0.0251378007	 0.0006148898	 0.327741
N	-1.1922017498	-0.6762617661	 0.0037122837	-0.367594
C	-1.0941725495	-2.0305168297	-0.0043680186	 0.465107
O	-2.2823506766	-2.6611366235	-0.0007477845	-0.396415
N	-0.0189950965	-2.7659597712	-0.0147993047	-0.345608
N	 1.147455586	-2.0436396329	-0.0177369598	-0.287143
C	 1.2732563156	-0.6930476611	-0.0110185714	 0.405797
O	 2.3336797601	-0.0783187351	-0.0139745478	-0.413968
H	 0.9242097479	 1.7262431131	 0.0042425362	 0.288264
H	-0.8314500996	 1.8659535823	 0.0153991163	 0.277038
H	-2.0945817485	-3.6091208115	-0.0070935593	 0.308031
H	 1.9915379534	-2.5985655916	-0.0258415921	 0.277045
122.0675	205.5786	293.6881	309.4098	362.4896	386.9606	448.8419	511.6321	523.515	537.9323	607.0901	644.4327	677.041	735.2166	744.5236	816.1245	825.1324	977.3307	1097.3696	1210.1133	1285.8267	1320.2141	1420.9148	1436.9562	1494.0591	1565.5314	1627.1955	1675.9619	1771.2785	3592.9029	3614.2388	3739.2451	3790.0832
NC1=NC(O)=NNC1=O	Nc1nc(O)n[nH]c1=O	
InChI=1S/C3H4N4O2/c4-1-2(8)6-7-3(9)5-1/h(H,6,8)(H3,4,5,7,9)	InChI=1S/C3H4N4O2/c4-1-2(8)6-7-3(9)5-1/h(H,6,8)(H3,4,5,7,9)
