17
gdb 46694	2.84317	1.82677	1.42454	3.0597	70.54	-0.2016	-0.0161	0.1855	929.4417	0.139293	-417.957088	-417.9502	-417.949256	-417.988413	27.719	
O	 0.0839755379	-0.0417963364	 0.0408212406	-0.325313
C	-0.0036688394	 1.1635336388	 0.0170192157	 0.43531
C	-1.3345912492	 1.9167736246	 0.0155290497	-0.268415
N	-1.3982137402	 3.0676717007	-0.9131963656	-0.322825
C	-0.1413267055	 3.6931904706	-1.2648668923	 0.029241
C	 0.9134520263	 4.1552661512	-0.3079629115	-0.02629
N	 0.955576068	 3.2859253383	 0.8872121904	-0.339972
C	 1.1967514296	 2.0928714056	-0.0083720971	-0.13878
C	 1.1995801933	 2.9946140982	-1.2711864177	-0.149647
H	-2.1340037578	 1.2129198348	-0.2238023307	 0.118405
H	-1.493436996	 2.2740202494	 1.0401468975	 0.147356
H	-1.8193671244	 2.7455532737	-1.777762773	 0.225603
H	-0.2699731994	 4.3852922558	-2.0931504924	 0.102058
H	 1.2784435893	 5.1760108804	-0.2775294265	 0.097314
H	 1.809264836	 3.4672894024	 1.406109689	 0.229004
H	 2.1218683771	 1.5518688565	 0.191948801	 0.091371
H	 1.8514203343	 2.8818950354	-2.1294354271	 0.095579
100.922	148.7711	298.198	419.3637	421.3768	461.9906	521.3218	615.6558	661.6468	700.9583	766.1843	780.1645	807.309	852.763	887.5789	940.4198	947.0365	971.842	994.1752	1012.5918	1049.021	1063.6195	1078.7184	1102.2277	1186.7861	1209.0608	1226.0877	1259.6065	1260.9792	1273.8303	1343.2436	1355.7566	1375.1754	1450.7488	1469.5239	1509.7255	1824.4977	3037.0399	3110.395	3115.4956	3147.779	3166.2572	3179.5174	3515.2937	3521.762
O=C1CNC2C3NC1C23	O=C1CN[C@H]2[C@H]3N[C@@H]1[C@@H]23	
InChI=1S/C6H8N2O/c9-2-1-7-5-3-4(2)8-6(3)5/h3-8H,1H2	InChI=1S/C6H8N2O/c9-2-1-7-5-3-4(2)8-6(3)5/h3-8H,1H2/t3-,4-,5+,6-/m0/s1
