17
gdb 45998	4.82641	0.93609	0.83519	3.4121	78.82	-0.2377	-0.0504	0.1872	1342.1146	0.136073	-421.843745	-421.835715	-421.834771	-421.877237	29.489	
O	-0.0794813868	-0.0298351872	 0.2388527688	-0.335419
C	-0.0227991897	 1.1737436245	 0.1371128234	 0.403965
C	-1.2240239944	 2.1290113967	 0.0251996568	-0.344381
C	-0.6186600488	 3.539608656	-0.0926812028	-0.321904
C	 0.8786723515	 3.3106178839	-0.0355516532	 0.350219
C	 1.1937147693	 2.0120085522	 0.1011326531	-0.321587
C	 1.844931227	 4.4210029408	-0.105826592	-0.025116
C	 1.6753742674	 5.5590540049	-1.0355658248	-0.18058
O	 1.3899822725	 5.7066253428	 0.3466095991	-0.223017
H	-1.8292056711	 1.8479828403	-0.8413671305	 0.134362
H	-1.8613242849	 2.010452012	 0.9061484178	 0.137043
H	-0.9053494075	 4.0391247774	-1.025560994	 0.1189
H	-0.9258828761	 4.211545272	 0.7148976281	 0.140072
H	 2.1899151305	 1.5947929607	 0.1819199633	 0.110057
H	 2.8631488194	 4.1776129255	 0.1953989959	 0.105939
H	 2.5651236769	 6.0744989389	-1.3945292387	 0.128339
H	 0.8154847448	 5.5910573088	-1.7017939601	 0.123109
58.8617	92.9887	140.4131	176.9271	291.4363	356.3749	497.4293	542.9708	567.1669	614.8395	636.5973	828.0737	832.4818	834.6587	858.5419	903.5029	913.8667	972.9824	1010.3133	1017.5927	1093.872	1143.91	1155.434	1163.6327	1170.2295	1185.7417	1229.3399	1258.9982	1275.8382	1300.6893	1358.6793	1406.4511	1452.1016	1481.8032	1521.9108	1671.3319	1812.591	3040.8823	3067.9935	3078.199	3088.1441	3109.1936	3121.2633	3178.433	3214.3093
O=C1CCC(=C1)C1CO1	O=C1CCC(=C1)[C@H]1CO1	
InChI=1S/C7H8O2/c8-6-2-1-5(3-6)7-4-9-7/h3,7H,1-2,4H2	InChI=1S/C7H8O2/c8-6-2-1-5(3-6)7-4-9-7/h3,7H,1-2,4H2/t7-/m1/s1
