22
gdb 10861	3.33303	1.51636	1.29791	1.6558	77.28	-0.2556	0.0623	0.3179	1058.8825	0.201857	-350.234151	-350.225739	-350.224795	-350.266382	33.106	
C	-0.0369746176	 1.5674751544	 0.0282522139	-0.403409
C	 0.0251851082	 0.0376489313	 0.010549451	 0.060859
C	 0.7324929093	-0.4903884623	-1.2498186223	-0.199005
C	 0.8111478435	-2.0249283496	-1.2714503673	-0.224006
C	 1.479414242	-2.5875211717	-0.0066051029	 0.148584
O	 2.8838421817	-2.3327514938	 0.0102332905	-0.444812
C	 0.7863239617	-2.0552062056	 1.257987422	-0.223997
C	 0.7077590639	-0.5205702173	 1.2715495382	-0.199001
H	 0.9706298793	 2.0004698691	 0.0433233217	 0.109807
H	-0.5506448799	 1.9566021327	-0.857430707	 0.109996
H	-0.5680148729	 1.9354104202	 0.9127469259	 0.109996
H	-1.006407862	-0.3470114691	-0.0041757701	 0.0684
H	 0.2205267668	-0.1291284875	-2.149265736	 0.092897
H	 1.7464462307	-0.0638546291	-1.2961990401	 0.082514
H	-0.2038513529	-2.437740041	-1.3446616857	 0.091143
H	 1.363761363	-2.3714433955	-2.1509312864	 0.099032
H	 1.4089236723	-3.6805996541	-0.0203820941	 0.077072
H	 3.017443644	-1.3800263541	 0.0227901971	 0.278347
H	-0.2298204649	-2.4694118869	 1.3013679894	 0.091139
H	 1.3216580171	-2.4228031275	 2.1395939452	 0.099031
H	 1.7205142465	-0.0955246126	 1.3479955663	 0.082517
H	 0.1781687802	-0.1808116603	 2.1691690808	 0.092895
111.5056	200.1245	215.2137	237.6562	241.4765	304.0658	365.6806	399.4149	428.3047	475.0976	493.0892	679.5768	777.8937	783.1546	804.6469	875.9045	938.9231	943.0829	967.5669	982.5661	1006.1169	1036.8498	1078.7232	1094.57	1117.804	1146.9873	1160.055	1224.5494	1237.1354	1283.1058	1295.0333	1330.4327	1338.6144	1350.1476	1374.1424	1376.6268	1385.1567	1393.6448	1415.9567	1430.7485	1470.0597	1482.8601	1488.2642	1498.1477	1501.3266	1504.1385	2979.6995	2990.7278	3000.7865	3018.481	3021.8693	3023.3934	3051.4387	3053.1086	3058.4216	3074.7786	3077.3639	3088.3305	3095.7595	3824.8885
CC1CCC(O)CC1	C[C@H]1CC[C@@H](O)CC1	
InChI=1S/C7H14O/c1-6-2-4-7(8)5-3-6/h6-8H,2-5H2,1H3	InChI=1S/C7H14O/c1-6-2-4-7(8)5-3-6/h6-8H,2-5H2,1H3/t6-,7+
