18
gdb 44843	3.37998	1.64202	1.5084	3.077	75.38	-0.2524	0.0336	0.2859	933.7681	0.152009	-401.956003	-401.949696	-401.948751	-401.98641	27.054	
N	-0.0739116774	 1.2500206274	 0.0224637965	-0.567447
C	-0.0418291267	-0.0103340557	 0.0035892354	 0.445534
O	 1.0980031368	-0.7864481045	 0.009401283	-0.264539
C	 0.6389785165	-2.1774315352	 0.0158337966	 0.078425
C	-0.5978289231	-2.0778188505	-0.8879048161	-0.263873
C	-1.2236963672	-0.9696260457	-0.0116680043	-0.122937
C	-1.1959396653	-1.5810349602	 1.4046914832	-0.019519
C	-1.2609442992	-3.0750055831	 1.5899974035	-0.331797
C	 0.0817676569	-2.4080145537	 1.4184107827	-0.031154
H	 0.8741755217	 1.6311985622	 0.0517829343	 0.219484
H	 1.4710867368	-2.7999497843	-0.309171381	 0.086126
H	-0.3345120897	-1.7267525672	-1.8873907585	 0.120022
H	-1.1852978904	-2.9904044018	-0.9731560164	 0.112012
H	-2.1570352081	-0.5137716622	-0.3335422034	 0.092769
H	-1.4560773052	-0.9325338748	 2.2323052753	 0.10817
H	-1.4875099025	-3.4046154661	 2.5985880284	 0.120423
H	-1.669403052	-3.7264149599	 0.8267049779	 0.117459
H	 0.777544548	-2.3709399045	 2.2478161929	 0.100841
151.2556	285.1913	372.4848	440.3588	492.0824	504.0395	567.5864	697.9553	719.0861	769.2388	818.9095	830.8915	873.8824	885.3821	900.5506	912.7128	931.6485	943.4712	966.1521	995.3686	1028.7705	1047.9576	1063.3557	1078.3216	1095.4984	1117.5611	1131.1547	1194.7061	1210.1392	1254.5488	1268.2707	1285.9289	1299.2565	1336.8885	1354.3613	1381.1108	1481.7301	1523.257	1789.2084	3093.1199	3134.1717	3138.8052	3150.0972	3152.5791	3183.9113	3191.3745	3218.8658	3461.1873
N=C1OC2CC1C1CC21	[NH][C]1O[C@@H]2C[C@H]1[C@H]1C[C@@H]21	
InChI=1S/C7H9NO/c8-7-5-2-6(9-7)4-1-3(4)5/h3-6,8H,1-2H2	InChI=1S/C7H9NO/c8-7-5-2-6(9-7)4-1-3(4)5/h3-6,8H,1-2H2/t3-,4+,5-,6+/m0/s1
