17
gdb 75315	2.3732	1.72373	1.19237	4.7798	78.98	-0.2427	-0.007	0.2357	1061.9763	0.136467	-380.870491	-380.862458	-380.861514	-380.90289	30.553	
C	 0.0281138943	 1.5006656328	 0.0595171614	-0.507078
C	 0.0107584277	 0.0086001375	-0.0055973382	 0.276525
C	-0.0203250639	-0.7943128238	-1.0707591004	-0.199802
C	-0.0730686164	-2.2497289175	-0.6741082582	-0.215273
N	 0.0086786598	-2.2741670009	 0.8071398788	-0.130296
C	 1.2459822308	-1.7385970763	 1.3603779446	-0.261541
C	 0.0440930774	-0.8481154546	 1.2330164509	 0.114205
C	-0.7126889801	-0.4465036714	 2.3940587896	 0.221416
N	-1.3019028586	-0.0789449612	 3.3185151856	-0.345308
H	 0.9436098807	 1.8674091986	 0.5394519885	 0.137239
H	-0.0380753807	 1.9405166891	-0.9380511705	 0.132452
H	-0.8100684025	 1.8747517305	 0.6587889	 0.154778
H	 0.0011382641	-0.4632349718	-2.1025934177	 0.107719
H	-1.0107454551	-2.7282314554	-0.9836378704	 0.12905
H	 0.744815035	-2.8458784031	-1.0973606708	 0.123172
H	 1.5155567996	-2.1435357671	 2.3315002968	 0.138978
H	 2.0754494078	-1.5127860052	 0.6932739599	 0.123765
124.4459	139.8801	179.1007	218.2752	286.6414	317.5378	399.0125	498.3363	530.9457	578.4641	617.7543	626.6992	749.3017	809.8371	818.1054	846.2828	929.8059	959.4581	1007.414	1029.9595	1052.8701	1070.5864	1124.5024	1136.3758	1151.3777	1218.8115	1242.6899	1317.3746	1330.2325	1339.4575	1418.9671	1477.4485	1484.5035	1488.1795	1498.4614	1716.5896	2355.6048	3022.9157	3028.5571	3054.6911	3079.2227	3100.0752	3125.8365	3197.6598	3201.8451
CC1=CCN2CC12C#N	CC1=CCN2C[C@@]12C#N	
InChI=1S/C7H8N2/c1-6-2-3-9-5-7(6,9)4-8/h2H,3,5H2,1H3	InChI=1S/C7H8N2/c1-6-2-3-9-5-7(6,9)4-8/h2H,3,5H2,1H3/t7-,9?/m0/s1
