14
gdb 125535	5.53546	1.33654	1.08389	6.1553	69.36	-0.2341	-0.0088	0.2253	1043.1183	0.103847	-429.057325	-429.050396	-429.049452	-429.088666	26.083	
C	-0.0229757279	 1.4591908761	 0.0067561476	-0.502643
C	-0.0014278988	-0.0280882082	-0.0229142155	 0.390544
N	-0.0498474443	-0.7404112998	-1.1219285111	-0.298677
N	-0.0032663691	-2.0374651839	-0.6551437113	 0.01956
C	-0.0046131045	-3.3440177956	-1.0706836288	-0.008406
N	 0.0648551845	-4.12223066	-0.0131926744	-0.216697
N	 0.1152428591	-3.3459798786	 1.1433064895	-0.365908
C	 0.0715139023	-2.1161309173	 0.7004193792	 0.511476
N	 0.0728655994	-0.804139499	 1.1194616103	-0.447985
H	 0.8862305861	 1.8588376049	 0.4682334312	 0.151033
H	-0.0911540499	 1.8314790638	-1.01561194	 0.17266
H	-0.8812022956	 1.8310889993	 0.5762963396	 0.150732
H	-0.0552570081	-3.6578742589	-2.0989569774	 0.154085
H	 0.1197404269	-0.4801903429	 2.069094701	 0.290227
126.3958	143.2353	284.4982	314.1652	343.2773	400.8212	515.5532	584.2629	657.0907	665.1034	750.8267	779.8358	803.1379	830.9755	984.1575	993.7521	1010.705	1034.1637	1066.2347	1201.5523	1209.7869	1251.5646	1351.6415	1406.9202	1421.0399	1456.2991	1474.2483	1478.0537	1500.6804	1605.5712	1643.8098	3043.3137	3099.3682	3158.619	3296.1739	3696.8312
CC1=NN2C=NN=C2N1	Cc1nn2cnnc2[nH]1	
InChI=1S/C4H5N5/c1-3-6-4-7-5-2-9(4)8-3/h2H,1H3,(H,6,7,8)	InChI=1S/C4H5N5/c1-3-6-4-7-5-2-9(4)8-3/h2H,1H3,(H,6,7,8)
