21
gdb 62112	3.46442	0.81992	0.72018	4.5878	81.71	-0.2395	0.0413	0.2808	1603.0566	0.182055	-420.401953	-420.392079	-420.391135	-420.43789	35.632	
C	 0.2340265028	 1.549227068	 0.1013086505	-0.422027
C	 0.0536995222	 0.0268962171	 0.1428374002	 0.051711
C	 0.4612433018	-0.5254265292	 1.5168891811	-0.14543
N	 0.3522416316	-1.9696278415	 1.5474118695	-0.271564
C	 1.3119693106	-2.782067141	 2.0526188081	 0.152359
O	 2.3400483774	-2.4134338056	 2.584598706	-0.332763
N	-1.2871176478	-0.5083662224	-0.1592157888	-0.089063
C	-2.4850367518	 0.310437246	 0.000625374	-0.223358
C	-1.9994230724	-0.0829182192	-1.3524107409	-0.225793
H	 1.2959913803	 1.7930857017	 0.1994141185	 0.130508
H	-0.1135427445	 1.9816733794	-0.8414658005	 0.12073
H	-0.29441976	 2.0444610114	 0.922222284	 0.124666
H	 0.7166221577	-0.42458928	-0.6061998711	 0.094574
H	 1.4963023652	-0.2689267818	 1.7527295155	 0.14057
H	-0.1773953015	-0.0722596493	 2.2893257354	 0.105388
H	-0.4506445775	-2.3598776998	 1.0766207881	 0.252054
H	 1.0492191793	-3.8518539199	 1.9269483386	 0.068302
H	-3.33870512	-0.190033174	 0.4491022262	 0.118786
H	-2.3781675755	 1.3559975681	 0.2766304805	 0.11692
H	-1.5667295356	 0.7024196984	-1.9690341747	 0.114278
H	-2.4926811324	-0.8732883665	-1.9120172304	 0.119152
34.1871	77.3966	88.0235	174.2252	220.061	235.3547	284.1962	290.2002	316.9357	396.5035	504.8777	521.1078	620.2298	686.6227	781.0609	818.6016	888.0368	898.6258	944.3571	958.0435	1020.9362	1030.7684	1033.6873	1095.1306	1112.4032	1123.0117	1137.0872	1154.1841	1174.1121	1182.1631	1220.9343	1264.793	1318.6834	1326.2609	1377.1192	1394.6745	1407.9819	1428.639	1485.6693	1493.4909	1498.9046	1509.0347	1516.6511	1526.8322	1800.6747	2928.9236	2997.2908	3031.8718	3039.9912	3099.2284	3107.5858	3111.259	3113.2073	3118.1461	3178.2842	3196.9993	3617.4559
CC(CNC=O)N1CC1	C[C@@H](CNC=O)N1CC1	
InChI=1S/C6H12N2O/c1-6(4-7-5-9)8-2-3-8/h5-6H,2-4H2,1H3,(H,7,9)	InChI=1S/C6H12N2O/c1-6(4-7-5-9)8-2-3-8/h5-6H,2-4H2,1H3,(H,7,9)/t6-/m0/s1
