23
gdb 111112	3.22944	1.2415	1.13733	0.1457	88.62	-0.2475	0.0958	0.3433	1220.804	0.208391	-351.117221	-351.109293	-351.108348	-351.149554	32.838	
C	-0.0944153778	 1.5695485428	 0.0561617299	-0.379008
C	-0.1470346444	 0.0398693851	-0.0396998494	-0.228702
C	 0.6325208384	-0.495977779	-1.2420315837	 0.067935
C	 2.1904784341	-0.5396972269	-1.146295774	-0.050397
C	 2.0028992105	-1.8767793489	-0.345563913	-0.222103
C	 0.8107256757	-2.0402747842	-1.3543732127	-0.063162
C	 1.6095098181	-2.2350597448	-2.6614624003	-0.031368
C	 1.6999902985	-1.1365628561	-3.6933695252	-0.319178
C	 2.6341559477	-1.1198099077	-2.5073957536	-0.029862
H	 0.9319987306	 1.9258404349	 0.1940004017	 0.11727
H	-0.4858607476	 2.0375089034	-0.8540917389	 0.112991
H	-0.6889632804	 1.934254994	 0.8995892805	 0.110159
H	 0.2060874814	-0.3920384343	 0.901682429	 0.097413
H	-1.1932059866	-0.2783558642	-0.1430435431	 0.093244
H	 0.2252517495	 0.0018722171	-2.1250746611	 0.05512
H	 2.7649141067	 0.299053447	-0.7501244868	 0.054863
H	 2.8117840526	-2.6098454197	-0.4125384769	 0.084644
H	 1.7055127115	-1.7482518675	 0.6961549753	 0.092449
H	-0.0209252302	-2.7218373902	-1.1663621423	 0.052747
H	 1.8941602538	-3.2441755003	-2.938417742	 0.08312
H	 2.1635059838	-1.4327016038	-4.6301216015	 0.104108
H	 0.9184792291	-0.3988352111	-3.8282249617	 0.11499
H	 3.693834725	-1.2852874358	-2.6679971302	 0.082728
78.0122	161.0227	198.3778	295.8049	335.6801	378.4749	429.9694	512.4553	552.0083	641.0412	747.5802	771.6483	800.1044	816.8154	839.3355	873.0614	886.6969	898.2421	912.6332	955.7267	994.9988	998.439	1030.9231	1045.7595	1060.5441	1063.0194	1079.5954	1090.5667	1105.0796	1112.4334	1129.2655	1142.4478	1195.8723	1215.3433	1241.047	1246.0823	1257.2072	1273.4978	1298.5567	1315.9314	1349.0048	1369.4141	1410.5592	1417.0575	1486.2671	1498.0402	1500.9784	1502.6047	1516.2878	3019.2182	3030.8705	3057.0218	3063.1897	3076.7067	3094.5557	3099.1533	3101.0602	3103.3417	3126.5882	3130.8442	3161.4921	3170.8417	3206.8329
CCC1C2CC1C1CC21	CC[C@H]1[C@H]2C[C@@H]1[C@H]1C[C@@H]21	
InChI=1S/C9H14/c1-2-5-6-3-7(5)9-4-8(6)9/h5-9H,2-4H2,1H3	InChI=1S/C9H14/c1-2-5-6-3-7(5)9-4-8(6)9/h5-9H,2-4H2,1H3/t5-,6+,7-,8-,9+
