20
gdb 10855	3.63071	1.51717	1.29736	1.7837	76.61	-0.2471	0.0125	0.2597	1028.1549	0.178359	-349.025245	-349.017182	-349.016238	-349.05737	31.442	
C	-0.0675846358	 1.5619431461	 0.0235358235	-0.4019
C	 0.0307725542	 0.0293428045	 0.0023748629	-0.002346
C	 0.7006245341	-0.4871199606	-1.2809017781	-0.208927
C	 1.0099784426	-1.9840272575	-1.1802467203	-0.230461
C	 1.9751370904	-2.2812564262	-0.0227431061	 0.107722
O	 3.3420885356	-2.033171044	-0.3789464928	-0.440036
C	 1.6061480195	-1.5129070916	 1.2205665691	-0.122374
C	 0.7491236547	-0.4905063814	 1.2255601647	-0.035146
H	 0.9286169773	 2.0182668236	 0.0103206792	 0.115176
H	-0.6180220255	 1.9301272381	-0.8482866734	 0.113648
H	-0.5844686768	 1.9155384506	 0.9219629518	 0.112507
H	-0.9987787413	-0.3643752807	 0.0297446981	 0.084767
H	 0.0643736281	-0.2778052315	-2.1476613941	 0.092603
H	 1.6350669572	 0.0688881772	-1.4443898225	 0.085622
H	 0.0769319029	-2.5389877977	-1.0149591401	 0.092891
H	 1.4538239591	-2.3606534732	-2.106765219	 0.101231
H	 1.9501736686	-3.3563880567	 0.1915534989	 0.084016
H	 3.4842453167	-1.0829648026	-0.3159349819	 0.275839
H	 2.1078174892	-1.8127393422	 2.1374612423	 0.090415
H	 0.534247899	 0.0215556257	 2.1626517378	 0.084752
76.7669	201.9451	222.9167	264.727	306.9179	309.5202	365.0322	423.6744	454.2226	552.5421	590.8969	723.085	750.9355	809.0279	833.4851	910.3707	935.9044	965.2887	1004.8077	1010.6519	1019.3896	1072.6295	1090.2291	1119.2403	1140.5474	1170.904	1231.2943	1252.0294	1270.0044	1319.1095	1334.4005	1362.8219	1366.6727	1386.5632	1402.4024	1414.4773	1432.2836	1477.6037	1493.0877	1498.4854	1500.7864	1711.2035	2964.9405	3007.2531	3021.0376	3027.9671	3039.7468	3064.6052	3084.6287	3096.2834	3101.2449	3129.471	3162.5091	3811.8727
CC1CCC(O)C=C1	C[C@H]1CC[C@@H](O)C=C1	
InChI=1S/C7H12O/c1-6-2-4-7(8)5-3-6/h2,4,6-8H,3,5H2,1H3	InChI=1S/C7H12O/c1-6-2-4-7(8)5-3-6/h2,4,6-8H,3,5H2,1H3/t6-,7+/m1/s1
