20
gdb 40316	2.97477	1.33542	1.08221	2.0764	77.86	-0.2425	0.0766	0.3191	1176.3888	0.171263	-403.08239	-403.073838	-403.072894	-403.116042	32.582	
C	-0.3005466401	 1.3867681148	-0.0181972799	-0.257336
C	 1.1495006204	 0.9868451154	 0.0877868244	-0.280284
C	 0.0802453488	-0.0716779984	 0.0704411539	-0.064594
C	-0.2484565673	-0.8633527091	 1.3057526208	 0.352862
C	 0.828466925	-1.4310587204	 2.1339659849	-0.216622
O	 0.1238929293	-0.2500854993	 2.5469837827	-0.27557
C	-1.6098109664	-1.5070507613	 1.3067773555	-0.051448
C	-2.275699082	-1.8846502749	 2.5736572294	-0.249624
N	-2.7785801336	-0.744953463	 1.7823553614	-0.323881
H	-0.7485123997	 1.8415549565	 0.8580658999	 0.121205
H	-0.6752534531	 1.762599927	-0.9632573082	 0.11493
H	 1.7837331245	 1.0861580595	-0.7857991645	 0.110629
H	 1.6399394636	 1.180793033	 1.0349194447	 0.126668
H	-0.0221649921	-0.6484442912	-0.8449841616	 0.089475
H	 0.6351235809	-2.3157991446	 2.7372291502	 0.116153
H	 1.8653621184	-1.2674192077	 1.8469169872	 0.118291
H	-1.8146219859	-2.095334837	 0.4139571506	 0.0898
H	-2.9319148117	-2.7497141868	 2.602299736	 0.115096
H	-1.7512408512	-1.665310347	 3.4985967849	 0.1245
H	-2.4469133979	 0.1134141246	 2.2187477977	 0.239749
64.0133	79.8375	167.8833	202.7697	260.1443	274.1926	400.206	407.038	543.1634	557.6044	680.6299	787.5381	808.9083	826.5702	842.0774	870.6541	910.2115	929.2772	946.0547	963.8441	995.6659	1028.2705	1065.1619	1090.6668	1096.5628	1117.0061	1130.2489	1134.7994	1148.2466	1173.6633	1178.9694	1201.4347	1204.0692	1229.7189	1271.4155	1305.6507	1377.3537	1409.4309	1431.5164	1460.2253	1498.7504	1500.0792	1520.4247	3091.6525	3115.233	3122.437	3137.808	3139.7947	3145.1462	3184.213	3206.0152	3219.8125	3233.8202	3488.0455
C1CC1C1(CO1)C1CN1	C1CC1[C@]1(CO1)[C@H]1CN1	
InChI=1S/C7H11NO/c1-2-5(1)7(4-9-7)6-3-8-6/h5-6,8H,1-4H2	InChI=1S/C7H11NO/c1-2-5(1)7(4-9-7)6-3-8-6/h5-6,8H,1-4H2/t6-,7-/m1/s1
