21
gdb 82296	2.25598	1.65725	1.31459	1.5102	76.99	-0.2484	0.0671	0.3155	1076.2776	0.182319	-424.221634	-424.212692	-424.211747	-424.254532	35.711	
C	 0.6905310457	 1.3576274637	-0.2193399064	-0.42441
C	 0.0523812037	-0.0224616049	-0.0438837452	 0.319806
O	-1.3599341968	 0.1506682087	 0.1452127699	-0.480374
C	 0.3598861485	-0.9944365049	-1.2209977049	-0.27877
C	 1.4183404162	-1.9688172213	-0.7227472612	-0.03404
C	 2.6779084084	-1.4128589139	-0.1089697612	-0.292189
C	 1.5319187592	-1.830210893	 0.7790422001	-0.039593
C	 0.5409003706	-0.7841764431	 1.2352992673	 0.095041
O	 1.0997812611	 0.043753987	 2.2432208947	-0.433719
H	 1.7745433789	 1.3100973745	-0.3368010582	 0.128998
H	 0.2832473192	 1.8386796358	-1.117573061	 0.098715
H	 0.474255313	 1.9931594704	 0.6418252804	 0.113642
H	-1.6892533908	 0.7023168886	-0.5724468895	 0.272918
H	-0.5608582963	-1.5411309333	-1.4500082522	 0.105187
H	 0.6611810459	-0.4611526749	-2.1308210044	 0.090066
H	 1.471108042	-2.943545978	-1.1950851405	 0.081746
H	 3.545299345	-2.0642267077	-0.1044027005	 0.109319
H	 2.9256149004	-0.3643121832	-0.2186365597	 0.117672
H	 1.6713614781	-2.6928099022	 1.4203208048	 0.08394
H	-0.3479336582	-1.3001136523	 1.6260073044	 0.080524
H	 0.3788676862	 0.5439798238	 2.6395801532	 0.28552
91.9702	171.6063	207.4837	269.6234	285.8736	311.3849	344.3081	362.8301	374.7875	425.5713	469.7834	555.02	613.2113	631.9864	769.5121	790.7897	831.4133	879.3393	913.8729	930.3449	945.222	966.2728	1018.2055	1053.2881	1066.8749	1083.9462	1095.7421	1111.5835	1126.1804	1162.7868	1182.6493	1211.6315	1239.1294	1256.3813	1298.3008	1339.1715	1353.5775	1373.0396	1395.5679	1418.1851	1438.6593	1474.6116	1486.1332	1494.6793	1499.717	2998.5749	3026.3458	3032.2472	3075.4395	3109.0321	3137.9198	3144.6285	3164.1685	3176.3793	3224.3031	3804.2323	3813.355
CC1(O)CC2CC2C1O	C[C@@]1(O)C[C@H]2C[C@H]2[C@H]1O	
InChI=1S/C7H12O2/c1-7(9)3-4-2-5(4)6(7)8/h4-6,8-9H,2-3H2,1H3	InChI=1S/C7H12O2/c1-7(9)3-4-2-5(4)6(7)8/h4-6,8-9H,2-3H2,1H3/t4-,5-,6-,7-/m1/s1
