18
gdb 64038	2.3095	1.63481	1.22574	1.7634	71.51	-0.2472	-0.0347	0.2125	1065.4477	0.145677	-439.116259	-439.107283	-439.106339	-439.150428	32.769	
C	 0.1642387124	 1.6146415195	-0.1154155322	-0.429237
C	 0.0869886801	 0.0949721852	 0.0117980793	 0.357245
C	-1.3409807955	-0.4183922799	-0.1059084339	-0.435535
O	 0.8714252609	-0.4599543648	-1.1059287171	-0.248305
C	 1.9675986755	-1.0167440268	-0.560681611	 0.11302
N	 2.0911968075	-1.0858583496	 0.7007417867	-0.289542
C	 0.8530385093	-0.50984155	 1.2421509155	-0.114852
C	 1.1355159974	 0.4257072721	 2.4084511428	 0.140281
O	 0.3154542655	 1.1644798414	 2.8909152021	-0.251178
H	 1.1997122608	 1.9617011035	-0.0483670714	 0.122481
H	-0.2371589481	 1.9198336635	-1.0854931933	 0.124246
H	-0.4099066908	 2.0952299844	 0.6782567913	 0.151698
H	-1.8127801351	-0.0549153579	-1.0231416247	 0.127972
H	-1.3617680121	-1.5117554771	-0.1138437942	 0.1258
H	-1.9253871847	-0.0651247456	 0.749259346	 0.139924
H	 2.6944074632	-1.3828320539	-1.2782384092	 0.143592
H	 0.2548837811	-1.324538912	 1.6814210434	 0.119242
H	 2.1682630826	 0.344191048	 2.8092238499	 0.103148
42.6625	84.8078	189.4363	232.916	239.9362	279.9028	308.3196	334.3316	396.0806	463.1256	545.4678	586.7402	635.567	728.9861	796.7115	910.2606	929.8598	955.3368	972.8449	1001.0586	1029.1428	1045.2884	1085.2755	1135.7897	1200.3375	1208.9332	1255.96	1281.2083	1323.8958	1340.492	1399.3265	1402.1679	1419.076	1479.6239	1482.1416	1498.1277	1505.6019	1697.4629	1824.1992	2913.6738	2976.5606	3041.3871	3049.1131	3116.7859	3119.652	3121.5612	3148.1952	3209.436
CC1(C)OC=NC1C=O	CC1(C)OC=N[C@H]1C=O	
InChI=1S/C6H9NO2/c1-6(2)5(3-8)7-4-9-6/h3-5H,1-2H3	InChI=1S/C6H9NO2/c1-6(2)5(3-8)7-4-9-6/h3-5H,1-2H3/t5-/m0/s1
