19
gdb 17445	4.69851	1.55048	1.39331	1.6224	75.38	-0.2134	0.0769	0.2903	975.9739	0.164815	-327.846935	-327.839217	-327.838273	-327.878271	30.467	
C	-0.0049322349	 1.4679842927	-0.0208384056	-0.42488
C	 0.0052281995	-0.0482065434	-0.0067427078	-0.030349
C	 1.3607298137	-0.6863296637	-0.1479054334	-0.00784
C	 0.6538855025	-0.6981261273	 1.1887864392	-0.135824
C	 0.7135932176	-2.241508827	 1.1051591454	 0.332149
C	 1.1981991708	-3.0592006153	 2.2652325935	-0.47823
C	 0.1124503439	-2.8080557563	-0.1213042916	-0.296387
N	 1.4616228432	-2.1980245129	-0.2054016541	-0.187952
H	 0.9028544226	 1.8763136411	 0.4359695409	 0.118504
H	-0.0641851212	 1.8501872889	-1.0453351633	 0.121862
H	-0.8622190971	 1.8607175492	 0.5362113325	 0.120597
H	-0.8778634724	-0.4868261306	-0.4604385824	 0.0815
H	 2.2285931078	-0.1314727708	-0.4831342567	 0.097588
H	 0.8859485209	-0.1534265659	 2.0955989814	 0.086053
H	 0.4203012774	-3.1454680412	 3.033497144	 0.118819
H	 1.4743352274	-4.0663651091	 1.9407083974	 0.12691
H	 2.0782334574	-2.5977717078	 2.7272429027	 0.12281
H	 0.1617513617	-3.888597325	-0.2279556933	 0.116424
H	-0.7375513806	-2.3638619855	-0.625545089	 0.118246
181.951	190.5366	208.9596	232.0569	266.3901	340.8177	414.5338	433.0718	526.9325	615.2154	706.2638	778.7462	809.3946	837.6342	878.8466	908.1571	933.0532	972.9293	1000.3436	1025.9395	1041.1154	1067.0681	1093.9847	1101.7271	1113.5635	1136.2232	1146.001	1194.118	1225.749	1278.0622	1299.4732	1363.5682	1412.3868	1413.7209	1423.8475	1480.1551	1492.9148	1495.4217	1501.0591	1514.6399	3024.4749	3029.3179	3084.7723	3094.9529	3096.9896	3112.3882	3121.965	3147.4158	3178.3333	3190.2493	3207.8605
CC1C2C1C1(C)CN21	C[C@H]1[C@H]2[C@@H]1[C@@]1(C)CN21	
InChI=1S/C7H11N/c1-4-5-6(4)8-3-7(5,8)2/h4-6H,3H2,1-2H3	InChI=1S/C7H11N/c1-4-5-6(4)8-3-7(5,8)2/h4-6H,3H2,1-2H3/t4-,5-,6+,7-,8?/m1/s1
