18
gdb 24116	4.80202	0.9638	0.86472	1.3943	77.67	-0.2357	0.0079	0.2436	1350.1095	0.149184	-401.97069	-401.962727	-401.961783	-402.004779	29.459	
C	-0.0315718134	 1.5305366009	-0.3109546657	-0.334757
C	-0.1099850461	 0.0156207556	-0.1946379139	 0.031778
C	-0.1438690242	-0.6433092645	 1.1593606466	-0.249253
C	-1.3777715401	-0.6384880344	 0.2903464811	-0.277531
C	 1.3602064946	 2.0546010704	-0.1936617919	 0.393439
N	 2.1318440226	 2.5147252805	-1.1286240976	-0.303393
C	 3.3194982635	 2.8336038653	-0.4800837543	-0.114741
C	 3.1973524368	 2.5431004448	 0.8341874205	-0.043094
O	 1.9418591815	 2.0407230471	 1.0366055431	-0.170106
H	-0.4186216265	 1.8597273433	-1.2793347212	 0.134748
H	-0.6548102468	 1.9866870949	 0.467673782	 0.11588
H	 0.4375556509	-0.5107108536	-0.9713201239	 0.096053
H	 0.3918895059	-1.5765248922	 1.2922742103	 0.113597
H	-0.134386857	-0.0005449154	 2.0331347412	 0.117521
H	-2.2006646455	 0.0064730996	 0.5816147013	 0.111534
H	-1.6881264108	-1.567144265	-0.175269209	 0.114378
H	 4.1634822503	 3.2474730529	-1.0084944854	 0.121929
H	 3.8313090641	 2.6213178399	 1.7003344368	 0.142018
31.5472	68.8224	111.4081	285.4018	302.8359	343.8272	414.9352	631.7783	689.031	756.3818	773.7492	779.6958	808.6024	844.4444	863.4004	895.0483	933.3804	944.5721	953.8517	1000.3622	1058.51	1077.887	1102.1928	1117.7909	1140.4388	1152.0223	1166.9747	1197.2124	1224.2311	1235.5328	1285.3405	1323.6605	1387.7044	1410.2843	1463.6168	1473.4546	1507.7393	1557.0891	1617.5042	3038.3049	3099.7897	3130.5967	3136.8954	3149.6536	3209.281	3224.5761	3263.2302	3299.767
C(C1CC1)C1=NC=CO1	C(C1CC1)c1ncco1	
InChI=1S/C7H9NO/c1-2-6(1)5-7-8-3-4-9-7/h3-4,6H,1-2,5H2	InChI=1S/C7H9NO/c1-2-6(1)5-7-8-3-4-9-7/h3-4,6H,1-2,5H2
