19
gdb 85463	2.26139	1.40755	1.07806	2.7289	80.57	-0.2386	-0.0171	0.2215	1188.1259	0.157795	-385.897206	-385.88822	-385.887276	-385.930938	34.213	
C	-0.2075380668	 1.5230629661	-0.0295725503	-0.412695
C	 0.1017638851	 0.0301174689	-0.0271626972	 0.01763
C	 0.9834351483	-0.4621056731	-1.1853184608	-0.32609
C	 1.5664250263	-1.7930828282	-0.7037668868	 0.411205
O	 2.1198433655	-2.6168034216	-1.3832002299	-0.31073
C	 1.3100821041	-1.9107479666	 0.8054725122	-0.33003
C	 0.8495846965	-0.49989364	 1.2441825238	-0.201658
C	 1.9870684492	 0.3364431536	 1.617338959	 0.350674
C	 2.9375200959	 1.0118291821	 1.9123636435	-0.488034
H	 0.7120639525	 2.1130393754	 0.0252237293	 0.133119
H	-0.7424258639	 1.8063549162	-0.9415944905	 0.116224
H	-0.8346117986	 1.7987402649	 0.8250397193	 0.115391
H	-0.8454911263	-0.5249012404	-0.0632720552	 0.082029
H	 0.4661347169	-0.579671864	-2.1402858663	 0.125921
H	 1.8225245837	 0.2274146907	-1.3499963966	 0.139524
H	 0.4983058146	-2.6352410833	 0.9475179918	 0.130372
H	 2.1874841317	-2.2885321645	 1.332236176	 0.139876
H	 0.1581071516	-0.5499418658	 2.0921134392	 0.105759
H	 3.7728658235	 1.6083472495	 2.1849837095	 0.201514
65.1099	111.4107	152.7721	228.0865	235.8557	276.0718	373.4423	440.6064	468.1437	486.9472	515.0637	598.4401	631.265	638.3301	678.3904	739.226	810.3912	838.4926	887.2075	938.1609	975.1095	994.9635	1041.8398	1103.2779	1142.5621	1148.7087	1172.5066	1194.5324	1244.4694	1264.8074	1298.169	1311.3337	1370.6524	1377.8352	1413.3494	1445.5968	1449.4004	1496.3691	1498.1281	1850.2526	2230.0049	3010.9218	3034.0642	3035.595	3039.2313	3052.1197	3100.8541	3108.8373	3114.7139	3127.825	3502.4561
CC1CC(=O)CC1C#C	C[C@H]1CC(=O)C[C@H]1C#C	
InChI=1S/C8H10O/c1-3-7-5-8(9)4-6(7)2/h1,6-7H,4-5H2,2H3	InChI=1S/C8H10O/c1-3-7-5-8(9)4-6(7)2/h1,6-7H,4-5H2,2H3/t6-,7+/m0/s1
