14
gdb 62294	3.45507	1.58549	1.36282	4.3915	64.13	-0.2656	0.011	0.2766	915.59	0.100824	-436.619509	-436.612641	-436.611697	-436.65067	27.125	
O	 0.0888095078	 1.3692004721	-0.0121952904	-0.476309
C	 0.0082162512	-0.019163057	-0.0064231443	 0.298677
C	 0.8387995489	-0.5569867089	 1.0724413386	 0.278949
N	 1.4964797516	-1.0083751298	 1.9078700991	-0.332014
C	-1.367466305	-0.7076091404	-0.0754207945	-0.179691
C	-1.6862288699	-0.7178043865	-1.5725595176	 0.049815
O	-0.6204665336	-0.0333784226	-2.2550094739	-0.300123
C	 0.2824440484	-0.7516362051	-1.3738934706	-0.005607
C	-0.8251737792	-1.7922846304	-1.0100779419	-0.124774
H	-0.2565981897	 1.6331669436	-0.8784016805	 0.295481
H	-2.1135752328	-0.78554032	 0.7031301084	 0.119706
H	-2.6788582911	-0.7087560432	-2.0000092278	 0.1328
H	 1.2830938084	-0.8962671392	-1.7712312551	 0.11724
H	-0.870918695	-2.8697305528	-0.9858926396	 0.125851
144.556	151.7136	254.7913	335.3806	483.2152	500.1023	516.7298	541.1558	626.4096	672.3091	782.8793	787.19	817.3142	839.5309	872.9712	935.748	950.6873	965.6708	1016.0626	1029.3968	1059.3329	1086.1971	1095.4055	1152.6523	1184.5752	1192.066	1227.0287	1308.3023	1357.6646	1407.1436	2365.455	3171.806	3220.2519	3226.9098	3247.892	3729.938
OC1(C#N)C2C3OC1C23	O[C@@]1(C#N)[C@H]2[C@H]3O[C@@H]1[C@@H]23	
InChI=1S/C6H5NO2/c7-1-6(8)3-2-4(3)9-5(2)6/h2-5,8H	InChI=1S/C6H5NO2/c7-1-6(8)3-2-4(3)9-5(2)6/h2-5,8H/t2-,3+,4-,5+,6-/m0/s1
