17
gdb 45203	3.47701	1.57639	1.33827	4.4676	72.06	-0.2686	0.0027	0.2713	963.956	0.138683	-421.799924	-421.793463	-421.792519	-421.83062	26.678	
O	-0.2253922437	 0.0765821956	 0.4081738088	-0.324087
C	-0.0679934213	 1.1974321173	 0.0570137364	 0.349486
O	-1.0517460645	 2.1003629216	-0.3756076908	-0.281712
C	-0.0036322011	 2.9918023472	-0.918207533	 0.143858
C	 0.3331456307	 4.4710039417	-0.628977785	-0.283704
C	 1.6609893355	 4.195165226	 0.1552154218	-0.02626
C	 1.1072881841	 3.2032872677	 1.2026928027	-0.22789
C	 1.0136389824	 2.2773860416	-0.0502566114	 0.110518
C	 2.3478722735	 2.9197473926	-0.5087591966	-0.3319
H	 0.0731817485	 2.7649122727	-1.984421171	 0.100103
H	 0.4584663355	 5.0342993579	-1.5569061156	 0.108206
H	-0.3875804751	 4.9998555604	-0.0007555329	 0.127108
H	 2.2661138349	 5.0564110317	 0.4397474064	 0.078568
H	 1.8571641269	 2.8343376183	 1.9049777962	 0.114028
H	 0.1816773432	 3.4592017843	 1.7229268432	 0.113959
H	 2.5547717231	 2.9220778193	-1.5813717289	 0.109396
H	 3.2327641473	 2.619556924	 0.0541873496	 0.120324
153.0441	236.9713	281.1312	403.4371	461.5392	509.8785	606.317	675.7979	698.5939	722.3952	804.9275	807.4255	843.5237	864.9986	921.3963	932.9367	972.9114	983.4527	995.052	1053.9066	1069.4744	1079.4358	1088.7962	1143.7838	1167.1581	1193.1009	1207.2075	1231.6101	1248.1696	1266.3742	1304.7317	1313.657	1403.1929	1484.4992	1490.9859	1523.7088	1939.8286	3065.011	3069.0706	3070.5397	3076.4416	3115.2562	3118.5828	3134.369	3140.2865
O=C1OC2CC3CC12C3	O=C1O[C@H]2C[C@H]3C[C@@]12C3	
InChI=1S/C7H8O2/c8-6-7-2-4(3-7)1-5(7)9-6/h4-5H,1-3H2	InChI=1S/C7H8O2/c8-6-7-2-4(3-7)1-5(7)9-6/h4-5H,1-3H2/t4-,5-,7-/m0/s1
