19
gdb 86295	1.74849	1.67201	1.22914	3.3221	71.9	-0.2407	-0.029	0.2117	1135.8632	0.156144	-460.161705	-460.151865	-460.150921	-460.196461	35.851	
C	-0.8592194033	 1.0698751497	-0.0471330179	-0.406833
C	 0.1018885645	-0.1037186216	-0.0995610043	 0.002188
C	 1.4709980255	 0.077561686	-0.8138120876	-0.305696
C	 2.12292135	-0.752493305	 0.3110323444	 0.079041
O	 3.3166116175	-0.2886087769	 0.9111946758	-0.44004
C	 0.8681163399	-0.4852006835	 1.2172826647	 0.270775
O	 1.0878464855	 0.6038096427	 2.0752880157	-0.490022
C	 0.3323263777	-1.6756879082	 1.980084988	 0.102127
O	 0.0160401133	-2.7142204232	 1.4536458715	-0.266093
H	-0.3886626829	 1.9300759618	 0.43611437	 0.130203
H	-1.1659622778	 1.3610830804	-1.0574876803	 0.114081
H	-1.7629983933	 0.8195560683	 0.5182188494	 0.121739
H	-0.3919050262	-1.0086936582	-0.4651665131	 0.099512
H	 1.5736627993	-0.2870969945	-1.8379765757	 0.108195
H	 1.8004041398	 1.1213923634	-0.7662816852	 0.100288
H	 2.198972768	-1.8160130077	 0.0624712663	 0.104673
H	 3.7911113016	 0.2527582462	 0.2734015234	 0.298466
H	 2.0512371685	 0.7022575003	 2.1303293643	 0.289311
H	 0.2589018322	-1.51664279	 3.0787010606	 0.088086
72.0835	86.0492	140.6584	195.0279	207.9395	216.0445	244.5542	293.9303	356.8377	433.7106	447.6654	511.9261	549.9594	595.206	681.2906	739.7158	785.1973	871.4513	916.2022	937.5264	1006.255	1050.439	1092.867	1103.5748	1128.8195	1162.4209	1192.2298	1196.4988	1244.4834	1252.8014	1292.8467	1345.2452	1351.6438	1375.6066	1388.1744	1400.5264	1412.9146	1478.909	1488.9783	1502.1268	1815.8549	2894.7306	3035.3578	3045.3737	3059.1743	3072.9434	3098.6457	3113.7493	3123.0166	3694.6298	3835.6034
CC1CC(O)C1(O)C=O	C[C@H]1C[C@@H](O)[C@]1(O)C=O	
InChI=1S/C6H10O3/c1-4-2-5(8)6(4,9)3-7/h3-5,8-9H,2H2,1H3	InChI=1S/C6H10O3/c1-4-2-5(8)6(4,9)3-7/h3-5,8-9H,2H2,1H3/t4-,5+,6-/m0/s1
