16
gdb 122788	3.7568	0.85785	0.74027	3.4328	68.54	-0.2636	-0.1023	0.1613	1470.2898	0.121572	-475.017354	-475.007707	-475.006763	-475.053394	32.849	
O	-0.334397659	 1.15124241	-1.3566155262	-0.427013
C	-0.218235347	 0.2073604125	-0.3193442119	-0.044522
C	-1.5672516358	-0.3246100649	 0.137338208	-0.098462
O	-2.0847645535	-1.1722530015	-0.898937419	-0.235347
C	-3.4404256495	-1.0682260615	-1.1642653505	-0.190086
C	-3.7483493712	-0.0039301356	-2.215431374	 0.281828
O	-2.9260620979	 0.6798348603	-2.7683742302	-0.250267
C	-5.1842473509	 0.1219370762	-2.5377466875	 0.222967
N	-6.3175867323	 0.1894819308	-2.7568160331	-0.279947
H	-0.9284555136	 0.7851141774	-2.0253630041	 0.300065
H	 0.4137277547	-0.6497681053	-0.604325554	 0.097728
H	 0.2688212445	 0.7108931469	 0.5235787743	 0.108009
H	-1.469129119	-0.9119259074	 1.0608949054	 0.106725
H	-2.2456064977	 0.5176827061	 0.3230030063	 0.107554
H	-3.7988200673	-2.0270626075	-1.5674033538	 0.160316
H	-4.0558924847	-0.8604440262	-0.2735075996	 0.140451
37.1019	59.6161	97.4618	145.8164	157.6741	262.2793	281.6116	301.8105	374.1047	464.9912	499.3252	551.8662	567.5056	591.9966	817.7001	843.7983	892.5671	997.2726	1029.1807	1066.1028	1105.9959	1131.0573	1192.68	1236.0018	1281.5245	1292.9547	1377.8209	1393.1025	1402.0402	1441.0937	1449.9184	1496.7354	1500.3146	1803.0466	2337.6858	2976.3887	2981.4723	3004.2133	3031.6991	3059.214	3067.6002	3761.6835
OCCOCC(=O)C#N	OCCOCC(=O)C#N	
InChI=1S/C5H7NO3/c6-3-5(8)4-9-2-1-7/h7H,1-2,4H2	InChI=1S/C5H7NO3/c6-3-5(8)4-9-2-1-7/h7H,1-2,4H2
