22
gdb 7827	3.07603	1.62685	1.14858	1.2979	78.25	-0.2408	0.0847	0.3255	1114.4025	0.201475	-350.228072	-350.219648	-350.218704	-350.260359	32.723	
C	-0.0339153001	 1.5587215722	-0.02164391	-0.406295
C	 0.0136649106	 0.0291772321	 0.0011179501	 0.013017
C	 0.7157033047	-0.5261143646	-1.244575301	-0.068714
O	 0.7771816641	-1.9408020281	-1.2435320941	-0.250124
C	 1.4916273124	-2.4468281343	-0.1305959506	-0.068715
C	 0.8523307949	-2.0467904701	 1.2051518372	 0.013017
C	 1.646342355	-2.6004341485	 2.3906105684	-0.406295
C	 0.7151279851	-0.5166659072	 1.2551540085	-0.190228
H	 0.9759014895	 1.9859106157	-0.0276384046	 0.113615
H	-0.5580053234	 1.9304851081	-0.9088450619	 0.112368
H	-0.5521829476	 1.9492730028	 0.8601820084	 0.114043
H	-1.0150203401	-0.3572324652	-0.0113346892	 0.076946
H	 0.1785782591	-0.2450139158	-2.15618112	 0.100887
H	 1.7348189518	-0.1015526163	-1.310296317	 0.076647
H	 1.5077082445	-3.5351855353	-0.2479263751	 0.100888
H	 2.5382161965	-2.0902786374	-0.1569001379	 0.076647
H	-0.1567505541	-2.4817263264	 1.2208630056	 0.076946
H	 2.6683667726	-2.2034625943	 2.4022311429	 0.113615
H	 1.175698955	-2.3279679288	 3.3408762819	 0.114044
H	 1.7139647289	-3.6931370289	 2.3527359381	 0.112368
H	 1.7187968422	-0.0694090928	 1.327198437	 0.086824
H	 0.1746544786	-0.2104989367	 2.1595114434	 0.088499
148.7967	155.4496	221.6461	223.6377	241.667	318.084	339.8488	425.1745	427.3744	437.5926	457.272	578.2496	849.335	853.4667	866.7894	915.7787	926.3777	966.8732	982.9445	990.0306	1036.3984	1060.5759	1127.5113	1132.1099	1162.6372	1188.4201	1203.7971	1212.6709	1295.5672	1304.3009	1324.9653	1337.6255	1338.6076	1378.407	1379.5353	1401.3355	1409.5381	1417.268	1422.7411	1483.4367	1488.111	1496.0292	1497.6973	1500.2574	1501.6215	1502.1474	2932.1007	2939.1139	2991.3461	3009.4956	3014.2771	3024.7083	3025.8763	3047.7938	3071.1741	3074.0283	3090.5869	3091.5238	3097.6836	3098.0009
CC1COCC(C)C1	C[C@H]1COC[C@@H](C)C1	
InChI=1S/C7H14O/c1-6-3-7(2)5-8-4-6/h6-7H,3-5H2,1-2H3	InChI=1S/C7H14O/c1-6-3-7(2)5-8-4-6/h6-7H,3-5H2,1-2H3/t6-,7+
