18
gdb 89777	2.40375	1.48488	1.06635	3.7048	76.26	-0.2771	0.021	0.2981	1148.2482	0.14741	-401.936167	-401.927613	-401.926669	-401.969523	32.438	
O	 0.5686164359	 0.5995383646	-0.8651490737	-0.422894
C	-0.0115571305	-0.2799740397	 0.0413800237	 0.170877
C	 0.0114486008	 0.0203393676	 1.5667851569	-0.354212
C	-1.4231814623	-0.5111983473	 1.6469088392	 0.384025
C	-1.8935544638	-1.6832116545	 2.4585307346	-0.327102
C	-2.4581417279	-0.3023296742	 2.7053805811	-0.323273
C	-1.5916974164	-0.4016224406	 0.114151669	-0.320866
C	-2.2386849164	 0.8263166972	-0.3190642982	 0.284939
N	-2.6940275899	 1.8348909506	-0.6578263071	-0.33873
H	 0.1447403749	 1.4626747496	-0.7786650407	 0.295712
H	 0.4054908257	-1.2662219339	-0.1739887481	 0.110977
H	 0.7791508823	-0.4808499103	 2.1607165966	 0.112473
H	 0.0638016092	 1.0988845517	 1.7536148331	 0.113593
H	-2.5332023204	-2.4182153129	 1.9802987072	 0.119997
H	-1.20834352	-2.0970611422	 3.1914708721	 0.121007
H	-2.1581329784	 0.2221492546	 3.6065933574	 0.122806
H	-3.4765809733	-0.1001675659	 2.3905215199	 0.129461
H	-2.0335671791	-1.2571883342	-0.4025931532	 0.121211
68.7765	120.1051	141.7112	248.4019	275.9686	353.4397	371.2848	402.4961	441.2771	482.6432	539.581	668.8905	739.8638	772.0249	811.8872	875.1853	890.9962	936.4716	943.1331	999.2735	1028.9001	1048.9075	1057.6315	1083.9768	1115.4304	1142.4976	1178.7147	1186.4444	1224.5433	1241.884	1257.9833	1310.4307	1336.7427	1385.6334	1438.5986	1464.4449	1484.457	1503.9614	2343.1591	3044.2622	3080.4785	3092.1841	3111.2058	3124.6054	3131.6268	3204.6768	3219.9871	3778.5899
OC1CC2(CC2)C1C#N	O[C@H]1CC2(CC2)[C@H]1C#N	
InChI=1S/C7H9NO/c8-4-5-6(9)3-7(5)1-2-7/h5-6,9H,1-3H2	InChI=1S/C7H9NO/c8-4-5-6(9)3-7(5)1-2-7/h5-6,9H,1-3H2/t5-,6-/m0/s1
