16
gdb 67918	2.1412	1.76751	1.19162	4.0128	75.93	-0.2469	-0.0171	0.2298	1064.3668	0.121818	-400.700048	-400.691567	-400.690622	-400.732964	32.017	
C	-0.0616053783	 1.5580701582	 0.0826747637	-0.489739
C	 0.0287958465	 0.0672910265	-0.0358358698	 0.3299
C	-0.7636618398	-0.7849730451	-1.0317630786	-0.441671
C	-1.0387940103	-1.7001873488	 0.1703345947	 0.423504
O	-1.684831153	-2.6767725113	 0.3719189536	-0.288036
N	-0.3355709885	-0.8582682987	 1.1372137936	-0.229719
C	 1.0843051378	-0.7398723671	 0.6198342061	-0.268932
C	 1.7610235654	-1.8416699084	-0.0044916748	 0.356903
C	 2.3439849713	-2.7583602755	-0.5196020564	-0.430434
H	 0.4620259776	 2.0425800599	-0.7488138063	 0.135483
H	-1.1055160942	 1.887155487	 0.0631072599	 0.135032
H	 0.3879051741	 1.9038052735	 1.0174580389	 0.13867
H	-1.6797195513	-0.3048721274	-1.3859087232	 0.140364
H	-0.2238746724	-1.2184183602	-1.8757355028	 0.144752
H	 1.6857467427	-0.2048366335	 1.3509372631	 0.133526
H	 2.8542884625	-3.5739669191	-0.9701161918	 0.210398
94.5492	146.1511	155.8485	192.5904	294.3357	320.4903	358.8003	476.0076	497.1148	538.4713	598.2045	621.7532	629.3948	660.7366	676.5697	738.6835	852.0303	914.9842	953.8561	975.6851	1017.1418	1050.5015	1090.7975	1117.1866	1146.0329	1216.7895	1288.7884	1305.5348	1410.5366	1430.0796	1457.8793	1483.9454	1491.5175	1927.256	2237.7044	3035.9367	3074.5649	3100.8633	3118.9005	3132.5168	3141.0494	3500.2626
CC12CC(=O)N1C2C#C	C[C@]12CC(=O)N1[C@H]2C#C	
InChI=1S/C7H7NO/c1-3-5-7(2)4-6(9)8(5)7/h1,5H,4H2,2H3	InChI=1S/C7H7NO/c1-3-5-7(2)4-6(9)8(5)7/h1,5H,4H2,2H3/t5-,7+,8?/m0/s1
