19
gdb 72665	2.34865	1.48184	1.41907	1.1981	81.75	-0.244	0.0302	0.2742	1066.9901	0.157389	-385.834048	-385.82522	-385.824275	-385.867336	33.893	
C	-0.2079334132	 1.5521204345	 0.0608723548	-0.475028
C	 0.0007569183	 0.0637072157	 0.0491065625	 0.406488
C	-1.2059118231	-0.9041717218	-0.001753147	-0.262361
C	-0.5623099941	-1.7770556442	 1.1171297973	-0.288494
C	 0.6505544411	-0.7963797499	 1.2115301988	 0.068346
C	 1.744670734	-1.0844740088	 0.1586730981	-0.121783
O	 1.0414803141	-0.3538040893	-0.8654372558	-0.325355
C	 1.0411412176	-0.2944014756	 2.4980653677	 0.193084
C	 1.3613259719	 0.13699417	 3.5754104977	-0.413913
H	 0.7294154356	 2.0743459323	 0.2720641406	 0.129534
H	-0.5738682878	 1.8845153212	-0.9173616358	 0.129717
H	-0.9448975302	 1.8363094638	 0.8181136757	 0.122194
H	-2.150918799	-0.4442119776	 0.2987291424	 0.103568
H	-1.3337989421	-1.3796835447	-0.9760402819	 0.111875
H	-1.1464143683	-1.8069640548	 2.0377471463	 0.11774
H	-0.2929884419	-2.799414	 0.8408184635	 0.105407
H	 2.7139728294	-0.6267957005	 0.3881108397	 0.109654
H	 1.8920759376	-2.1402240761	-0.1010421671	 0.100453
H	 1.64750148	 0.5148513259	 4.5256125623	 0.188873
77.2759	115.8072	170.2291	197.8268	254.3239	335.7782	348.3614	376.9471	515.7613	537.6928	545.3855	620.4735	624.4715	659.8693	685.6131	749.8088	864.4109	895.0598	913.2736	937.3919	952.4373	1000.9708	1018.8854	1067.233	1137.086	1164.3617	1168.1234	1194.2393	1217.5957	1233.9498	1253.4662	1288.2574	1311.4105	1357.1237	1408.1627	1465.9795	1478.5724	1484.3559	1487.1937	1522.3395	2227.5435	3013.3782	3034.0887	3062.5759	3063.8622	3070.0763	3103.7552	3116.8501	3119.5551	3135.528	3501.0341
CC12CCC1(CO2)C#C	C[C@]12CC[C@]1(CO2)C#C	
InChI=1S/C8H10O/c1-3-8-5-4-7(8,2)9-6-8/h1H,4-6H2,2H3	InChI=1S/C8H10O/c1-3-8-5-4-7(8,2)9-6-8/h1H,4-6H2,2H3/t7-,8-/m0/s1
