16
gdb 40334	4.52343	1.27197	1.24063	1.156	71.38	-0.2169	0.0535	0.2705	1026.6264	0.124107	-400.589549	-400.582726	-400.581782	-400.621253	26.58	
C	 0.1194173589	 1.4678304793	-0.0387075509	-0.182489
O	 1.1597158893	 0.5022278082	-0.2049666703	-0.235849
C	-0.1761762492	 0.0294250559	 0.025818775	-0.107153
C	-0.4283922996	-0.6708255863	 1.2928076782	 0.400398
C	-0.3460578333	-2.1784199401	 1.616681195	-0.178061
C	-0.0200163077	-1.8138321398	 3.0850966092	-0.041664
C	-0.1033737723	-0.3635405999	 2.7782519789	-0.132137
N	-1.3356728538	-1.0958765636	 3.2481995579	-0.180164
C	-1.6398650191	-1.4300694065	 1.7881828631	-0.08097
H	 0.1623044554	 2.0478803153	 0.8820701885	 0.115605
H	-0.1460193564	 2.034077246	-0.9305933826	 0.117203
H	-0.6406821079	-0.4330071825	-0.8475146028	 0.094071
H	-0.0707308669	-2.9945305471	 0.964407961	 0.103981
H	 0.4527495432	-2.3511743646	 3.8977084636	 0.102495
H	 0.2853453979	 0.5075090609	 3.2915982606	 0.100093
H	-2.6322517785	-1.5651043452	 1.3763802555	 0.104639
77.431	143.962	164.0845	381.5289	431.3117	605.4286	666.1918	757.8866	768.8022	778.4595	826.2295	848.7952	869.2496	882.0484	898.7323	917.9745	940.0617	975.5088	983.3215	1003.1154	1008.9765	1046.6352	1094.5612	1118.4797	1133.2655	1154.3204	1165.0622	1192.1799	1241.3001	1270.7441	1304.9828	1316.761	1369.488	1478.0461	1532.1496	3081.9002	3089.8466	3169.0541	3180.6783	3188.8485	3194.9674	3224.3817
C1OC1C12C3C4C1N4C23	C1O[C@H]1[C@@]12[C@H]3[C@H]4[C@@H]1N4[C@@H]23	
InChI=1S/C7H7NO/c1-2(9-1)7-3-4-6(7)8(4)5(3)7/h2-6H,1H2	InChI=1S/C7H7NO/c1-2(9-1)7-3-4-6(7)8(4)5(3)7/h2-6H,1H2/t2-,3+,4+,5-,6+,7+,8?/m1/s1
