17
gdb 32668	2.93355	1.48083	1.06682	4.0305	78.45	-0.2251	-0.0561	0.169	1121.438	0.137915	-418.069033	-418.061126	-418.060182	-418.101804	29.65	
C	 0.011892139	 1.5620379668	-0.0371915084	-0.381069
C	-0.0141470772	 0.0368473493	 0.0670005448	-0.162462
N	-1.3806920221	-0.5002400504	 0.0689931965	-0.102103
C	-2.0121096392	-0.8290221626	 1.2310984678	 0.007032
C	-3.2831003771	-1.3132872258	 1.2205049333	-0.079839
N	-3.9727086692	-1.4917340241	 0.0537513136	-0.230003
C	-3.3779035269	-1.1797572159	-1.0581006931	-0.078989
C	-2.0249781571	-0.6385931048	-1.1757052745	 0.379498
O	-1.4701667896	-0.326101208	-2.2185965619	-0.408601
H	 1.0472190616	 1.9154048206	-0.0353213713	 0.126134
H	-0.4603950648	 1.8813628012	-0.9683470083	 0.159831
H	-0.5106762606	 2.0261942382	 0.804900354	 0.12132
H	 0.4955090672	-0.4040644961	-0.7920013507	 0.151156
H	 0.475165202	-0.3075620395	 0.982093748	 0.113575
H	-1.4448437621	-0.6863074759	 2.1436763761	 0.133055
H	-3.7859330974	-1.5776328078	 2.1420292479	 0.118695
H	-3.9092579266	-1.317285505	-1.996861074	 0.132769
76.328	112.7446	181.7145	230.6369	332.9891	360.6705	435.8391	488.2173	554.8281	571.9511	629.7439	741.1543	773.1543	791.4305	814.7566	871.3658	924.1839	945.7407	978.7507	1038.4973	1103.6694	1124.9138	1161.2354	1225.6134	1248.655	1284.8428	1362.362	1385.2053	1395.6133	1409.8887	1469.1176	1488.8161	1493.5607	1507.7343	1548.9069	1647.5766	1754.6694	3046.3213	3066.9165	3111.3925	3127.1049	3144.8679	3164.2045	3193.6118	3216.0307
CCN1C=CN=CC1=O	CCn1ccncc1=O	
InChI=1S/C6H8N2O/c1-2-8-4-3-7-5-6(8)9/h3-5H,2H2,1H3	InChI=1S/C6H8N2O/c1-2-8-4-3-7-5-6(8)9/h3-5H,2H2,1H3
