14
gdb 7629	5.00121	1.35892	1.17951	6.1302	59.51	-0.2416	0.0081	0.2497	977.5843	0.107739	-415.886774	-415.879238	-415.878294	-415.919076	27.438	
O	-0.0696438655	 0.008469175	 0.5104485516	-0.367552
C	-0.0698499024	 1.3404620766	 0.3272580193	 0.414088
O	 0.9066657041	 2.0204853437	 0.4925805775	-0.339598
C	-1.4222310259	 1.8949835149	-0.1034307273	-0.090772
C	-1.5123690771	 2.4753438762	-1.5507683092	-0.359037
C	-2.4837206094	 1.3306057395	-1.6813395577	 0.413075
N	-3.2736393514	 0.9500587201	-2.7095996403	-0.573612
H	-3.0412370646	 1.246407826	-3.6420931926	 0.269695
H	-3.7670340286	 0.0742089205	-2.6245624272	 0.270312
N	-2.4079292579	 0.8338090259	-0.4818717474	-0.33912
H	-1.7851815772	 2.5743126241	 0.6744004356	 0.115586
H	-1.9315594405	 3.480059116	-1.6435150737	 0.134578
H	-0.5969101927	 2.4058600854	-2.1431784464	 0.142304
H	-0.9674252909	-0.3043261739	 0.2869294078	 0.310052
61.8749	105.4726	206.1805	318.8096	332.0514	387.1036	435.6252	481.0286	573.5821	592.9818	706.2956	736.9302	759.4478	806.4808	930.2393	973.2455	1023.735	1031.3926	1103.0933	1115.8013	1193.7025	1221.767	1228.7709	1307.8624	1401.2948	1441.2333	1477.6278	1615.5827	1696.1034	1869.2851	3063.446	3071.3607	3127.2281	3587.8388	3591.8322	3715.4461
[O-]C(=O)C1CC(=[NH2+])N1	OC(=O)[C@H]1C[C](N)[N]1	
InChI=1S/C4H6N2O2/c5-3-1-2(6-3)4(7)8/h2H,1H2,(H2,5,6)(H,7,8)	InChI=1S/C4H6N2O2/c5-3-1-2(6-3)4(7)8/h2H,1H2,(H2,5,6)(H,7,8)/t2-/m1/s1
