19
gdb 61064	2.85409	1.19785	0.90384	1.9687	78.42	-0.2363	-0.0264	0.2099	1290.0857	0.157542	-423.037619	-423.028419	-423.027475	-423.072944	32.804	
C	-0.049177744	 1.5167453129	-0.0890828945	-0.417247
C	-0.0155824617	-0.0149632518	 0.0196334796	-0.073863
C	 0.8177881244	-0.4377822078	 1.2121269719	 0.158141
O	 1.6894281972	-1.2689310962	 1.1951048781	-0.253746
C	-1.4499654185	-0.5916469945	 0.1781926404	 0.074843
O	-2.2894130215	-0.1114916707	-0.8738118639	-0.278233
C	-2.8569688144	-1.2014237328	-1.5995049109	-0.117925
C	-2.3111147496	-2.435168757	-0.9405886636	-0.105765
C	-1.5227917087	-2.0924008459	 0.0704715945	-0.085516
H	 0.9489297947	 1.9204378225	-0.2825229913	 0.122666
H	-0.7138911517	 1.8123681272	-0.9025001438	 0.148217
H	-0.424979281	 1.9695964751	 0.8359492165	 0.117934
H	 0.4330664394	-0.4593759472	-0.8742571449	 0.097164
H	 0.5517500623	 0.089760161	 2.1603479896	 0.070371
H	-1.8577435107	-0.2325530399	 1.139269207	 0.08464
H	-3.9555737559	-1.1468490504	-1.5471731325	 0.110132
H	-2.5794220766	-1.1305309925	-2.6624353785	 0.110855
H	-2.5477948969	-3.4380847488	-1.2718578592	 0.1123
H	-0.9776894569	-2.7553764632	 0.7292014957	 0.125033
37.0083	61.8835	91.0874	189.0294	224.3558	268.5082	290.3213	345.981	398.331	475.5538	564.4518	709.2378	769.6796	812.8754	876.773	897.8069	937.472	947.7531	958.1244	970.8725	1020.5225	1045.2305	1094.275	1115.4548	1127.8733	1134.0675	1148.6202	1197.6638	1258.9243	1297.8131	1326.4441	1360.4524	1374.8319	1387.1477	1400.6905	1431.6992	1494.1799	1504.4346	1521.2227	1693.3636	1828.7583	2836.8519	2945.5352	2979.8899	2998.3248	3036.201	3069.6752	3104.0094	3140.3343	3213.264	3237.8769
CC(C=O)C1OCC=C1	C[C@@H](C=O)[C@H]1OCC=C1	
InChI=1S/C7H10O2/c1-6(5-8)7-3-2-4-9-7/h2-3,5-7H,4H2,1H3	InChI=1S/C7H10O2/c1-6(5-8)7-3-2-4-9-7/h2-3,5-7H,4H2,1H3/t6-,7-/m0/s1
