18
gdb 76726	3.33797	0.93943	0.8374	4.7591	70.39	-0.244	0.0297	0.2736	1384.0631	0.146245	-476.181139	-476.171637	-476.170693	-476.216224	34.193	
O	-0.8870100997	 1.5636060849	-0.0518009191	-0.419792
C	-0.50606821	 0.2148370313	-0.2054333211	 0.01197
C	-0.4039120056	-0.5684983192	 1.0811366849	 0.078498
O	-0.6190298765	 0.1235663899	 2.2727949824	-0.427867
C	-1.5628024351	-0.8145271634	 0.1276350794	-0.104761
C	-2.9709834339	-0.4253639728	 0.5103444243	-0.102148
O	-3.8518045908	-0.419143493	-0.6176729557	-0.187758
C	-3.8316945359	 0.6822981118	-1.3964770426	 0.110692
N	-4.5604436172	 0.7307289479	-2.427599631	-0.444563
H	-0.0885126351	 2.1025569383	-0.0710496342	 0.302741
H	 0.1681268208	 0.0222278014	-1.0361021291	 0.104343
H	 0.3514697998	-1.3408561883	 1.1887706693	 0.109427
H	-0.7909950393	 1.0428516995	 2.0253192001	 0.285601
H	-1.5116260715	-1.7282649083	-0.4578062426	 0.109144
H	-3.390339803	-1.1702414604	 1.1908261284	 0.130029
H	-2.9947921236	 0.5428365155	 1.0181621427	 0.114227
H	-3.1509111575	 1.4636670288	-1.037828802	 0.106626
H	-4.4366486558	 1.629432546	-2.8898223343	 0.223591
54.5288	78.5818	132.6049	143.2731	202.3973	266.3087	284.9382	307.4498	363.7428	489.3087	518.8745	580.249	647.2152	671.9631	777.6755	792.0054	826.0431	916.9927	958.8883	982.8725	1049.4097	1057.5241	1076.8577	1120.5173	1128.0051	1147.9735	1156.6593	1230.2254	1244.9294	1272.8409	1317.688	1326.8124	1367.9981	1407.7863	1413.1434	1433.8136	1468.1299	1497.4999	1741.218	3057.3404	3066.2853	3111.9438	3133.258	3150.8165	3161.7295	3512.2716	3739.4721	3806.0754
OC1C(O)C1COC=N	O[C@H]1[C@@H](O)[C@H]1CO[CH][NH]	
InChI=1S/C5H9NO3/c6-2-9-1-3-4(7)5(3)8/h2-8H,1H2	InChI=1S/C5H9NO3/c6-2-9-1-3-4(7)5(3)8/h2-8H,1H2/t3-,4+,5-
