20
gdb 53512	5.02381	0.58119	0.5553	4.1487	89.07	-0.2543	0.0247	0.279	1998.8944	0.168383	-366.017455	-366.006467	-366.005523	-366.055683	37.531	
C	 0.0907120085	 1.5103877916	 0.0076917491	-0.498871
C	 0.0557445692	 0.0548245383	-0.0191919648	 0.126954
C	 0.0383188616	-1.1491100158	-0.0413634128	 0.013415
C	-0.0056783026	-2.6064876632	-0.0565317346	-0.368196
C	-1.443932344	-3.179131082	-0.036198339	 0.029899
C	-2.2449265908	-2.7627213228	-1.2724773887	-0.397853
C	-1.3631699885	-4.7183743502	 0.1021233884	-0.347718
C	-2.6722952588	-5.3490093646	 0.2532457679	 0.261826
N	-3.7148281903	-5.8324204428	 0.3765784127	-0.311608
H	 0.8859387053	 1.8765508516	 0.6663437501	 0.14966
H	 0.2705986388	 1.9239972132	-0.9906970276	 0.149014
H	-0.8561047595	 1.9241521685	 0.3717453248	 0.149866
H	 0.5152170497	-2.9847376123	-0.9480898598	 0.125367
H	 0.5499557547	-2.9963183951	 0.8071284368	 0.124333
H	-1.9454718934	-2.7893740554	 0.8570030783	 0.106502
H	-1.7777413254	-3.146521106	-2.187654893	 0.113603
H	-3.2674380711	-3.1475659587	-1.2285595762	 0.140748
H	-2.2875630088	-1.6737042523	-1.348485701	 0.136006
H	-0.8711829634	-5.1480798649	-0.7797294413	 0.148855
H	-0.7504774014	-4.9903766769	 0.9695912904	 0.148198
18.8916	48.392	74.269	88.4455	156.3318	214.5345	247.6518	268.8911	290.8122	362.5039	385.7539	398.2499	406.6534	466.5228	589.5994	767.2076	836.7392	877.724	907.2862	925.5906	972.0338	1052.857	1053.3587	1098.7107	1117.0201	1132.6044	1171.4506	1216.0939	1271.2968	1285.9698	1345.5077	1370.9789	1376.8142	1414.994	1417.0784	1462.2498	1474.12	1478.3589	1478.9512	1498.1479	1503.0659	2360.7477	2372.7351	2999.9262	3027.3097	3027.5066	3031.3365	3033.147	3049.6132	3074.1901	3088.2481	3088.5108	3105.1589	3129.2331
CC#CCC(C)CC#N	CC#CC[C@@H](C)CC#N	
InChI=1S/C8H11N/c1-3-4-5-8(2)6-7-9/h8H,5-6H2,1-2H3	InChI=1S/C8H11N/c1-3-4-5-8(2)6-7-9/h8H,5-6H2,1-2H3/t8-/m1/s1
