19
gdb 72667	2.28103	1.50757	1.45879	3.4869	80.04	-0.2411	0.0097	0.2508	1052.067	0.159881	-382.055032	-382.046497	-382.045553	-382.087963	32.67	
C	 0.072815043	 1.553613351	-0.1056075364	-0.494436
C	 0.0056050713	 0.0498089898	-0.0078281455	 0.283113
C	-1.3424810251	-0.5899180903	 0.4576279854	-0.279232
C	-0.6457156564	-1.2125017067	 1.7044551599	-0.253355
C	 0.7265103445	-0.8069713675	 1.1150430008	 0.193741
N	 1.1763257505	-1.7521643659	 0.0540938524	-0.365402
C	 0.785708956	-0.8087955529	-1.0280876786	-0.212645
C	 1.7589213478	-0.2792533941	 1.979581345	 0.190287
N	 2.5930236096	 0.1509049007	 2.6574829297	-0.348351
H	 1.1047391481	 1.9042653699	-0.2084283828	 0.131156
H	-0.4920726698	 1.9045052545	-0.9778618187	 0.125508
H	-0.3578880183	 2.0315266287	 0.7805928784	 0.127132
H	-2.1233395374	 0.1372465184	 0.6900653613	 0.108314
H	-1.7465107665	-1.3210027167	-0.2459933927	 0.113947
H	-0.8754528433	-0.6738290482	 2.6269892916	 0.117997
H	-0.7657076209	-2.2847532584	 1.8647702076	 0.118596
H	 2.1629658341	-1.9794637308	 0.0908453293	 0.234661
H	 0.2070304219	-1.2743321573	-1.8339348724	 0.105991
H	 1.6271960109	-0.2580794842	-1.4688269741	 0.102978
97.2718	118.8306	183.2494	206.9993	260.6124	333.7131	356.4756	374.7143	513.535	550.5015	564.9769	626.3772	683.7271	708.7955	767.6384	843.4701	928.1039	945.9092	957.6551	976.9889	1013.135	1022.1599	1069.2626	1107.6594	1147.0084	1172.9249	1187.3876	1224.2593	1240.3708	1262.9845	1274.0995	1291.5766	1345.0252	1391.279	1414.2982	1464.9038	1484.6162	1487.8822	1491.6536	1515.9359	2335.889	3008.4504	3025.1363	3060.8248	3067.4242	3072.5249	3089.6529	3103.1884	3118.0945	3139.1622	3551.1399
CC12CCC1(NC2)C#N	C[C@]12CC[C@]1(NC2)C#N	
InChI=1S/C7H10N2/c1-6-2-3-7(6,4-8)9-5-6/h9H,2-3,5H2,1H3	InChI=1S/C7H10N2/c1-6-2-3-7(6,4-8)9-5-6/h9H,2-3,5H2,1H3/t6-,7+/m1/s1
