15
gdb 124070	5.08517	1.01807	0.96783	3.4771	67.84	-0.2643	-0.0466	0.2177	1190.5656	0.11328	-453.895393	-453.888011	-453.887067	-453.928522	26.3	
C	-0.0033937804	 1.4986384032	-0.1083245002	-0.082555
O	 1.3996654111	 1.5789368192	 0.1957313259	-0.263754
C	 1.460997798	 0.1792398474	 0.518966131	-0.082533
C	 0.0129477537	-0.052009768	 0.0024132168	-0.159253
C	-0.9628116712	-0.7087310875	 0.8991039773	 0.418002
C	-1.8279953075	-1.748549722	 0.7352470876	-0.223288
N	-2.4903249608	-1.9164625631	 1.9270889525	-0.10498
N	-2.101915546	-1.0797370952	 2.7767677416	-0.006188
O	-1.0945173433	-0.259477002	 2.1485469809	-0.220737
H	-0.6216700795	 1.9920557838	 0.6511006952	 0.122826
H	-0.2394917378	 1.906133531	-1.0968738046	 0.115902
H	 2.2540030309	-0.340560736	-0.0287461915	 0.1159
H	 1.5820411411	 0.0065235126	 1.5950648875	 0.122801
H	-0.0124339144	-0.5430823252	-0.9710999589	 0.105117
H	-2.0207714941	-2.3711069584	-0.1213817212	 0.14274
54.8888	79.391	144.5896	209.0288	380.6653	387.0072	574.4141	664.629	696.6046	734.171	824.5259	825.042	888.6219	924.5557	987.3409	1007.3911	1018.0885	1049.4601	1068.7648	1105.5658	1122.8549	1165.2865	1175.1248	1246.0978	1254.1457	1313.2666	1322.0144	1370.2891	1402.5453	1464.7808	1508.9556	1535.3151	1609.1233	3022.1574	3032.2217	3075.978	3078.4369	3109.4465	3291.1764
C1OCC1C1=CN=NO1	C1OCC1c1cnno1	
InChI=1S/C5H6N2O2/c1-5(9-7-6-1)4-2-8-3-4/h1,4H,2-3H2	InChI=1S/C5H6N2O2/c1-5(9-7-6-1)4-2-8-3-4/h1,4H,2-3H2
