19
gdb 33391	2.22166	1.29428	0.85506	0.7697	87.16	-0.258	0.035	0.293	1351.6999	0.15698	-348.670949	-348.661501	-348.660557	-348.7055	35.357	
C	-0.1161971372	-1.1850407218	 0.0405827994	-0.44679
C	-0.0048981678	 0.0108805829	 0.028768345	 0.334688
C	 0.0921433978	 1.4740145583	-0.0123900409	-0.390703
C	 1.487180645	 1.9254845383	-0.0560183432	 0.33477
C	 2.6187201891	 2.3241848078	-0.1144296736	-0.446856
C	-0.7138451515	 2.0496189662	-1.1988430871	 0.068098
C	-2.2557212504	 1.8734682972	-1.195713123	-0.234664
C	-2.3756114309	 3.3201211013	-1.7492876111	-0.216871
C	-0.9214441449	 3.5858680185	-1.2713671789	-0.234661
H	-0.2030577423	-2.2431904138	 0.0604106658	 0.197683
H	-0.3617404529	 1.8685575027	 0.9097505957	 0.128028
H	 3.6232410293	 2.6659200242	-0.1565266083	 0.197686
H	-0.2808121538	 1.6711114114	-2.1289829809	 0.090521
H	-2.6730594132	 1.0566250205	-1.7874122617	 0.105353
H	-2.64596071	 1.7966808952	-0.175403979	 0.101846
H	-2.452862464	 3.3321228589	-2.8400048502	 0.105345
H	-3.1652658926	 3.9535070071	-1.339571737	 0.099324
H	-0.8991645745	 4.0384972989	-0.274451367	 0.101847
H	-0.2580651352	 4.156002526	-1.9243499339	 0.105355
69.3167	112.4569	113.8862	122.9881	185.6587	304.8507	342.7478	368.9418	461.9516	487.13	561.9547	629.0413	630.4297	644.9039	647.2348	664.8629	782.9058	783.0928	893.5911	918.9085	932.3237	960.7835	980.0622	1010.4252	1084.7918	1091.644	1130.4104	1202.0566	1217.009	1256.0126	1260.5818	1266.0495	1290.4876	1293.3221	1311.3542	1363.771	1478.254	1485.6549	1509.2729	2237.7801	2243.17	2985.4523	3050.722	3053.2992	3061.849	3071.3084	3105.7228	3113.3025	3124.6513	3503.5925	3504.4488
C#CC(C#C)C1CCC1	C#CC(C#C)C1CCC1	
InChI=1S/C9H10/c1-3-8(4-2)9-6-5-7-9/h1-2,8-9H,5-7H2	InChI=1S/C9H10/c1-3-8(4-2)9-6-5-7-9/h1-2,8-9H,5-7H2
