16
gdb 36708	5.09305	0.82528	0.78534	2.0587	71.86	-0.2622	0.0161	0.2783	1434.4897	0.1234	-437.852396	-437.843943	-437.842999	-437.886677	30.181	
C	-0.0036171552	-1.2068253222	 0.1509507622	-0.413557
C	 0.0122265997	-0.0100605853	 0.0579970743	 0.285379
C	-0.0041072666	 1.4399660357	-0.0567120794	-0.223105
O	 1.335450716	 1.9330079903	-0.0924294008	-0.240793
C	 1.4223475003	 3.3179590838	-0.0829836769	 0.203415
C	 2.9048740314	 3.7375821294	-0.1135539477	-0.204528
N	 3.128426161	 4.2724284067	-1.4652906257	-0.255363
C	 1.9876622361	 4.2983350462	-2.0111014167	 0.116166
O	 0.8959214642	 3.8769654971	-1.3139216218	-0.233477
H	-0.0115418094	-2.2657386979	 0.2323269823	 0.204715
H	-0.5392144286	 1.7433274934	-0.9660663107	 0.145665
H	-0.5403904251	 1.8800527049	 0.7997910009	 0.12428
H	 0.8205654039	 3.7448241771	 0.7296434175	 0.085437
H	 3.1334098887	 4.5059441782	 0.631550474	 0.122913
H	 3.5435725336	 2.8712066446	 0.0758194478	 0.139321
H	 1.7727565401	 4.6470591179	-3.0148366094	 0.14353
42.3021	93.3378	109.9585	167.942	260.1757	329.2456	376.2131	451.7445	510.9001	612.8912	615.2874	681.0592	761.6311	877.5718	887.1968	944.1362	954.1523	970.3072	986.4913	1028.3633	1028.6798	1080.7288	1090.7679	1156.0357	1230.7496	1253.4381	1305.4066	1321.1261	1353.4072	1373.5167	1435.3959	1480.2882	1500.2844	1711.4278	2250.6376	2976.4089	3026.2294	3036.7945	3059.7658	3109.0844	3219.3417	3505.9412
C#CCOC1CN=CO1	C#CCO[C@H]1CN=CO1	
InChI=1S/C6H7NO2/c1-2-3-8-6-4-7-5-9-6/h1,5-6H,3-4H2	InChI=1S/C6H7NO2/c1-2-3-8-6-4-7-5-9-6/h1,5-6H,3-4H2/t6-/m1/s1
