16
gdb 86698	2.36132	1.35078	0.95444	4.0516	73.4	-0.2471	0.0182	0.2653	1205.2173	0.121953	-437.845102	-437.835778	-437.834834	-437.880654	32.526	
O	 0.2123155919	 1.2503332065	-0.4882151235	-0.410047
C	 0.0664057648	-0.0402403258	 0.0244909778	 0.104287
C	 0.0742053623	-0.2021620157	 1.5761722059	-0.203994
N	-1.2821742981	-0.7338149623	 1.4843792722	-0.031405
C	-2.1639889994	-1.0375369376	 2.4657002187	 0.135074
O	-1.8920677597	-1.0337103057	 3.6481131543	-0.326763
C	-1.4335054171	-0.5226835947	 0.033128053	-0.245626
C	-2.4425814163	 0.4411090599	-0.3712354028	 0.384731
C	-3.3028697264	 1.2094133013	-0.7067864748	-0.446981
H	 1.1484664513	 1.4739192567	-0.4944480473	 0.294909
H	 0.7152731641	-0.762114733	-0.4850344541	 0.089142
H	 0.8038490894	-0.9020593211	 1.9941967684	 0.122313
H	 0.1310748255	 0.7528424501	 2.1093843116	 0.129876
H	-3.1610664437	-1.3028630907	 2.0618221754	 0.079853
H	-1.5775748834	-1.4593439299	-0.5191869643	 0.118487
H	-4.0531999352	 1.901949272	-0.9995194105	 0.206143
32.7358	48.423	133.1376	177.4932	200.1584	239.2561	302.0543	343.6098	424.2473	445.4259	528.0856	636.3745	659.9629	673.5725	777.2345	812.9303	860.1159	939.9301	1033.1066	1036.0933	1049.6392	1135.4085	1161.0659	1192.1483	1201.8984	1258.5344	1300.46	1305.2645	1352.3227	1391.9795	1427.3985	1452.1021	1505.0162	1790.2148	2240.0295	2941.8821	3022.1951	3036.7197	3042.9446	3095.4034	3501.5536	3822.9656
OC1CN(C=O)C1C#C	O[C@H]1CN(C=O)[C@H]1C#C	
InChI=1S/C6H7NO2/c1-2-5-6(9)3-7(5)4-8/h1,4-6,9H,3H2	InChI=1S/C6H7NO2/c1-2-5-6(9)3-7(5)4-8/h1,4-6,9H,3H2/t5-,6-/m0/s1
