20
gdb 57992	3.99316	0.74442	0.63734	3.5064	83.97	-0.2401	0.028	0.268	1742.0437	0.167864	-403.146732	-403.135769	-403.134825	-403.183961	37.843	
C	 0.0226361743	 1.4418766886	 0.0689330748	-0.34526
N	 0.0092734313	-0.0116653289	 0.0684741696	-0.094719
C	 1.3111228301	-0.6439949625	 0.1384247457	-0.339741
C	-1.1937889747	-0.6671995224	 0.0012666917	 0.435011
O	-2.2562982792	-0.0666975653	-0.0573189589	-0.380169
C	-1.1654327416	-2.1975790531	 0.0022195703	-0.333565
C	-2.5899973304	-2.7735036728	-0.0765169526	-0.355226
C	-2.590675863	-4.2311655469	-0.0768785658	 0.280161
C	-2.5649090572	-5.4331313797	-0.0757335042	-0.429868
H	 0.588674338	 1.8231571047	-0.7905893645	 0.120102
H	-1.0053372686	 1.7949026944	 0.0140017913	 0.170802
H	 0.4940961044	 1.8232349335	 0.983668554	 0.120107
H	 1.8386025644	-0.3442374171	 1.0540381304	 0.127663
H	 1.2294140776	-1.728569075	 0.1347703952	 0.144122
H	 1.9334926187	-0.3453478194	-0.7159713835	 0.127614
H	-0.5734509017	-2.5662414085	-0.842860181	 0.133562
H	-0.6699166488	-2.5666769201	 0.9070874141	 0.133581
H	-3.1801264626	-2.3921576043	 0.7630237293	 0.147615
H	-3.0841528564	-2.3918268715	-0.9757751699	 0.147607
H	-2.5629686046	-6.4946810239	-0.075877406	 0.190602
51.4773	58.7261	81.7595	102.8575	136.8949	158.7843	233.9958	234.9434	311.3942	348.7083	388.9809	450.0058	526.0721	575.6795	616.7627	623.5838	641.8767	797.3997	800.2031	966.3601	977.9705	1032.8228	1054.3894	1082.2416	1131.7472	1152.8683	1171.4817	1185.6083	1274.9305	1291.1181	1310.8794	1369.236	1427.9811	1437.7733	1460.2396	1469.4468	1481.7395	1484.5281	1502.5944	1504.1612	1545.0916	1746.9997	2238.8275	3004.7832	3014.5536	3040.1129	3045.2491	3057.2358	3058.7817	3073.1463	3095.0299	3172.1278	3173.3017	3508.292
CN(C)C(=O)CCC#C	CN(C)C(=O)CCC#C	
InChI=1S/C7H11NO/c1-4-5-6-7(9)8(2)3/h1H,5-6H2,2-3H3	InChI=1S/C7H11NO/c1-4-5-6-7(9)8(2)3/h1H,5-6H2,2-3H3
