18
gdb 41877	3.41132	1.49089	1.09091	0.4863	71.39	-0.2544	0.0165	0.2709	1070.6267	0.151284	-439.091438	-439.084281	-439.083337	-439.123263	27.627	
C	 0.0118745972	 1.5673265013	 0.0721056358	-0.104491
O	 1.3971032678	 1.9132776521	-0.1225428758	-0.273751
C	 2.2322134639	 0.7625047921	 0.0373908136	-0.112128
C	 1.327840997	-0.2498399383	 0.7251266025	 0.12366
O	 1.681726413	-1.6179480589	 0.5723165354	-0.239619
C	 0.6190133855	-2.4502238163	 0.7977544608	 0.121705
N	-0.6054499264	-2.1741344484	 0.9479869981	-0.265335
C	-1.0700457336	-0.787523093	 0.7935676626	-0.207562
C	-0.0190581785	 0.0436139026	 0.0723262568	-0.023717
H	-0.3403339975	 1.982335873	 1.0284908183	 0.098599
H	-0.5758496735	 2.0183443395	-0.7332503768	 0.112082
H	 2.5685571722	 0.3753659666	-0.9354755594	 0.105323
H	 3.1102888969	 1.0470149557	 0.6246395101	 0.112081
H	 1.271588871	-0.0303550872	 1.8011889864	 0.094311
H	 0.9666404233	-3.4800645719	 0.8442625604	 0.127655
H	-2.0193079624	-0.818267796	 0.2486951558	 0.117235
H	-1.2945195382	-0.3762400508	 1.7869153888	 0.11506
H	 0.0465148823	-0.3088426419	-0.9659622735	 0.098894
103.1044	163.9281	182.0511	332.4315	358.7734	435.5311	508.032	545.576	558.9621	671.4734	818.8705	864.4893	908.0327	927.6709	954.5264	971.2169	977.3267	1035.3058	1080.1939	1113.5347	1123.0295	1139.3583	1153.5096	1159.8415	1191.0077	1219.9246	1255.0418	1309.138	1327.8914	1339.5606	1365.5003	1372.47	1404.1106	1412.9825	1422.2943	1491.1874	1523.4113	1532.1866	1722.1727	2990.2974	2997.6546	3005.5494	3016.7183	3030.2183	3066.3958	3075.0657	3081.6563	3166.9875
C1OCC2OC=NCC12	C1OC[C@@H]2OC=NC[C@@H]12	
InChI=1S/C6H9NO2/c1-5-2-8-3-6(5)9-4-7-1/h4-6H,1-3H2	InChI=1S/C6H9NO2/c1-5-2-8-3-6(5)9-4-7-1/h4-6H,1-3H2/t5-,6-/m0/s1
