16
gdb 24358	3.65087	1.56624	1.12993	2.8293	70.73	-0.1936	0.039	0.2326	1019.4286	0.127952	-437.910849	-437.903994	-437.90305	-437.941994	27.274	
C	 0.0218742407	 1.4087676177	 0.0054214716	-0.000367
O	 1.3023425665	 1.9608812413	-0.0384950724	-0.234715
C	 2.0479937193	 1.7016837235	 1.1576296635	-0.206784
C	 1.8914641918	 0.2572012515	 1.5240591282	 0.133955
C	 2.5572621611	-0.5874435174	 2.3843745692	-0.192537
N	 1.9811125802	-1.8257164483	 2.280745184	-0.242242
C	 0.9444795595	-1.8056629147	 1.3700759508	-0.215901
C	 0.879143365	-0.5180572756	 0.8949309144	 0.294293
O	 0.0261124842	-0.0128962382	-0.0427933115	-0.275256
H	-0.5083431687	 1.729957877	 0.9190832007	 0.085444
H	-0.508524464	 1.7423896578	-0.8874750091	 0.120275
H	 3.082859189	 1.9693516922	 0.9240730617	 0.123678
H	 1.7022705824	 2.3756387245	 1.9589725456	 0.101644
H	 3.3865409693	-0.4128516216	 3.0508378828	 0.121225
H	 2.2692138708	-2.6371094658	 2.7965687178	 0.26323
H	 0.368056723	-2.683927264	 1.1369156327	 0.124059
121.5262	213.8935	315.5098	375.3392	408.9605	425.1267	477.6593	584.3161	622.3295	631.4429	700.0772	712.3214	738.9549	779.839	917.0398	955.2753	1013.7793	1029.5756	1072.7832	1089.6628	1116.467	1168.46	1225.4774	1252.9208	1256.2143	1320.2567	1340.8458	1368.9007	1432.8602	1441.7843	1477.5573	1497.0378	1509.9185	1571.0776	1645.8944	2949.5402	2961.6768	3074.2596	3125.1938	3260.5097	3282.755	3699.3165
C1OCC2=CNC=C2O1	C1OCc2c[nH]cc2O1	
InChI=1S/C6H7NO2/c1-5-3-8-4-9-6(5)2-7-1/h1-2,7H,3-4H2	InChI=1S/C6H7NO2/c1-5-3-8-4-9-6(5)2-7-1/h1-2,7H,3-4H2
