17
gdb 14868	2.74696	1.73691	1.12666	5.0297	66.85	-0.2355	0.031	0.2665	1037.2984	0.14197	-401.00235	-400.993866	-400.992921	-401.036166	29.383	
O	 0.141515317	 1.3050472424	 0.3300159884	-0.417016
C	 0.0921744318	-0.0682624555	-0.0200825558	-0.083018
C	-1.3630374142	-0.4951703306	 0.0193677269	 0.055039
C	-1.6597005582	-2.0094250425	-0.1917254372	-0.280575
C	-2.3448331054	-2.0196874017	 1.2064769338	-0.161152
N	-1.9465707355	-0.6208377098	 1.3618060448	-0.040651
C	-2.3161454377	 0.2789028166	 2.3042607734	 0.116703
O	-2.9583148498	-0.0046636269	 3.2965307456	-0.336584
H	 1.0597825252	 1.5577163153	 0.4622269875	 0.294036
H	 0.486346939	-0.2439499058	-1.0348896032	 0.091947
H	 0.6703072767	-0.6880703191	 0.681896843	 0.093115
H	-1.940926223	 0.169908976	-0.6346603537	 0.097024
H	-2.3091454526	-2.2411723167	-1.0354349304	 0.120203
H	-0.7614220142	-2.6272137638	-0.2528591591	 0.114284
H	-3.4306468299	-2.1607102646	 1.1958639852	 0.124893
H	-1.9132117967	-2.6931559187	 1.9529006507	 0.123467
H	-1.9486490224	 1.2958333154	 2.0715374501	 0.088286
59.7615	86.0288	122.6144	190.2224	231.3262	244.907	319.7776	397.8076	427.0658	587.1001	732.6192	799.7325	864.5814	906.9287	950.7133	1018.7227	1041.4206	1053.8432	1092.8432	1118.9082	1154.0918	1182.5344	1210.2811	1243.0154	1261.7594	1271.2685	1286.5513	1321.3863	1376.1813	1398.011	1433.5103	1460.106	1490.1798	1510.0776	1524.4994	1782.3272	2965.3831	2967.726	3005.6877	3032.5724	3044.8534	3082.0307	3087.9841	3143.7957	3834.7037
OCC1CCN1C=O	OC[C@H]1CCN1C=O	
InChI=1S/C5H9NO2/c7-3-5-1-2-6(5)4-8/h4-5,7H,1-3H2	InChI=1S/C5H9NO2/c7-3-5-1-2-6(5)4-8/h4-5,7H,1-3H2/t5-/m1/s1
