19
gdb 80447	2.47177	1.41828	1.20103	3.0051	77.24	-0.2265	0.0071	0.2336	1130.8907	0.158014	-423.020529	-423.011686	-423.010742	-423.053373	34.482	
C	 0.0823046075	 1.4830296221	 0.0355954176	-0.487908
C	 0.0346055172	-0.0109631306	-0.031525875	 0.311402
C	 0.0467256576	-0.7806881319	-1.129434261	-0.318034
C	 0.0444915966	-2.2397626766	-0.8090923573	 0.33314
O	-0.607395493	-3.1368855912	-1.6522760906	-0.464995
C	 1.2406670656	-2.742156807	-0.0550243026	 0.094249
O	 2.4568788802	-2.065365393	 0.0036461421	-0.427649
C	 0.0167197428	-2.3014509974	 0.7300782653	-0.194047
C	-0.0090241855	-0.8620048025	 1.2293341871	-0.320715
H	 0.9727112865	 1.8319362696	 0.5732732302	 0.131327
H	 0.0897846434	 1.9332451082	-0.9605509918	 0.126897
H	-0.7827879361	 1.87718156	 0.5842332094	 0.128666
H	 0.0817905492	-0.4210661283	-2.1525773167	 0.09631
H	-1.5457455696	-2.9138776621	-1.6511356689	 0.279064
H	 1.3914842457	-3.8161897389	-0.1057229856	 0.112475
H	 2.3243595463	-1.1978544537	-0.3987783799	 0.282173
H	-0.5505851033	-3.0668085344	 1.2470117891	 0.088378
H	 0.8563980458	-0.6458333629	 1.8710595856	 0.122349
H	-0.902233277	-0.6402039495	 1.827422473	 0.106918
123.6316	171.4214	197.8612	252.3709	266.8503	282.55	306.8459	349.26	401.3922	427.7283	544.5923	557.1523	597.0877	643.7705	764.7616	843.2124	856.9955	866.816	889.8492	946.1585	976.48	1011.5477	1041.065	1058.2137	1075.517	1115.3614	1159.3996	1189.9831	1216.9133	1233.2539	1290.9174	1319.5698	1327.8893	1348.6702	1374.2126	1414.2364	1455.9713	1470.0155	1479.0323	1489.711	1693.537	3013.1579	3019.8522	3043.4589	3064.9985	3112.8225	3163.4436	3180.0156	3187.5748	3764.0785	3778.733
CC1=CC2(O)C(O)C2C1	CC1=C[C@@]2(O)[C@@H](O)[C@H]2C1	
InChI=1S/C7H10O2/c1-4-2-5-6(8)7(5,9)3-4/h3,5-6,8-9H,2H2,1H3	InChI=1S/C7H10O2/c1-4-2-5-6(8)7(5,9)3-4/h3,5-6,8-9H,2H2,1H3/t5-,6+,7+/m1/s1
