21
gdb 106065	2.3826	1.58093	1.33172	0.8352	82.27	-0.2292	0.0737	0.3029	1096.3092	0.182119	-387.047636	-387.038831	-387.037886	-387.080912	34.207	
C	 0.1257626978	 1.5285646832	-0.2349351328	-0.380145
C	-0.0825993567	 0.032341914	 0.0422294623	-0.331675
C	 0.6617659894	-0.4505611458	 1.2452954315	 0.340305
C	 2.1181178958	-0.7371317252	 1.5347724164	-0.114046
C	 2.1298967688	 0.1646977836	 2.7672109936	-0.298283
C	 0.5888010541	-0.0486062603	 2.7811520519	 0.335998
O	-0.2874428118	 0.924775927	 3.2420645084	-0.48155
C	 0.4128306039	-1.5540249537	 3.1329183056	-0.296262
C	 1.0412062938	-1.8169263607	 1.7656357689	-0.135988
H	 1.1817607752	 1.7490226468	-0.4230642344	 0.112812
H	-0.4478488955	 1.8502448201	-1.1098575699	 0.105817
H	-0.1956227261	 2.126794028	 0.6226953453	 0.136701
H	-1.154908196	-0.1668056345	 0.1709132632	 0.103846
H	 0.2333663124	-0.5570933953	-0.8285993927	 0.097557
H	 2.9138698253	-0.8929809306	 0.8172333091	 0.082096
H	 2.6981157609	-0.1457053435	 3.6532188874	 0.079176
H	 2.3759487908	 1.1970357743	 2.5037850255	 0.101267
H	-0.1538637023	 1.0351190474	 4.1903923871	 0.280092
H	 0.9096613096	-1.9331512422	 4.0347983617	 0.079425
H	-0.6459801103	-1.8274639852	 3.1432629779	 0.100341
H	 1.060373791	-2.7465796875	 1.2108656837	 0.082517
83.3048	127.0047	153.6149	177.0992	260.8754	305.4921	368.0133	407.6815	454.1073	489.1529	600.4429	651.1178	715.1748	748.5652	802.1132	835.5249	892.7338	898.2705	910.6159	967.4325	975.311	995.5068	1006.2474	1035.6776	1071.1865	1081.1086	1108.3827	1117.127	1165.4029	1171.7585	1208.0757	1238.7034	1248.4597	1281.5713	1289.4662	1300.2002	1351.433	1372.8603	1407.9354	1460.663	1477.3285	1487.8033	1498.5884	1510.5933	1511.7638	3011.2264	3016.2215	3024.4309	3035.4737	3042.7951	3095.3842	3097.9212	3103.2081	3115.6407	3186.9657	3196.8343	3793.2254
CCC12C3CC1(O)CC23	CC[C@@]12[C@H]3C[C@]1(O)C[C@@H]23	
InChI=1S/C8H12O/c1-2-8-5-3-7(8,9)4-6(5)8/h5-6,9H,2-4H2,1H3	InChI=1S/C8H12O/c1-2-8-5-3-7(8,9)4-6(5)8/h5-6,9H,2-4H2,1H3/t5-,6+,7-,8-
