16
gdb 39865	3.20926	1.8977	1.54118	0.4177	66.84	-0.2326	0.0526	0.2851	866.3441	0.126416	-437.791101	-437.784955	-437.784011	-437.821468	25.546	
C	 0.0477364834	 1.450464983	-0.0092576557	-0.283913
O	 1.1712193424	 0.5436233551	 0.0095899839	-0.301454
C	-0.1437710659	 0.008605045	 0.0017755724	 0.538752
C	-0.5924340336	-0.9265374971	 1.1264166856	-0.187163
N	 0.2324610833	-2.1456826886	 0.8795196715	-0.310835
C	-0.5399932552	-2.2840333568	-0.3628195642	-0.05983
C	-1.7642481729	-1.639016655	 0.302422304	 0.119192
O	-2.0946534962	-0.8374053354	-0.8369367844	-0.292304
C	-0.6641199886	-0.8750526794	-1.1252054473	-0.064501
H	-0.0953130135	 2.0222483261	 0.906141788	 0.121525
H	-0.0831328406	 2.010926177	-0.9333751196	 0.124227
H	-0.6759628867	-0.5555761507	 2.1459807495	 0.081416
H	 1.2240846166	-1.9381396773	 0.7598269186	 0.230295
H	-0.5141780809	-3.2111173672	-0.9322902718	 0.091851
H	-2.5920167416	-2.1282846768	 0.8095020281	 0.10187
H	-0.3962807697	-0.6794542517	-2.1610579286	 0.090873
153.7501	272.2684	315.5735	443.0489	483.7596	580.1807	605.5467	734.8965	777.6263	785.5431	839.1775	857.7237	868.1997	894.9098	930.4652	960.6573	978.2769	986.8805	1019.8045	1039.301	1073.3305	1102.5145	1116.0953	1150.1593	1164.2837	1173.6512	1196.2058	1205.8	1238.9184	1252.9991	1306.1108	1319.8133	1343.4302	1457.4501	1544.6468	3088.5839	3137.447	3140.8971	3154.6191	3161.1158	3176.0634	3458.6575
C1OC11C2NC3C2OC13	C1O[C@]21[C@@H]1N[C@H]3[C@@H]1O[C@@H]23	
InChI=1S/C6H7NO2/c1-6(8-1)4-3-2(7-4)5(6)9-3/h2-5,7H,1H2	InChI=1S/C6H7NO2/c1-6(8-1)4-3-2(7-4)5(6)9-3/h2-5,7H,1H2/t2-,3-,4+,5+,6+/m0/s1
