23
gdb 103076	2.07521	1.33963	1.12527	2.1508	82.29	-0.2286	0.0647	0.2933	1266.6671	0.201807	-425.413368	-425.402083	-425.401139	-425.448918	41.987	
C	 0.0358225912	 1.4706023688	-0.3666461011	-0.383709
C	-0.0425237542	 0.0447413364	 0.1971421141	-0.235945
C	-1.4406993318	-0.5632233842	 0.1350090651	 0.256459
C	-2.4811484283	 0.1680044606	 0.9692223849	-0.453722
C	-1.9102168116	-1.1593839271	-1.1778174873	-0.032445
O	-1.0387579482	-1.0615987281	-2.2715650026	-0.415556
C	-1.5899127465	-2.0737549709	-0.0057894111	 0.277047
C	-0.4047968833	-3.0120911231	-0.0669750754	-0.456561
O	-2.6866155693	-2.6101921342	 0.6981554807	-0.455571
H	 1.0639320298	 1.8439350504	-0.3215553722	 0.105551
H	-0.2841156048	 1.4877411932	-1.4126144985	 0.132954
H	-0.5912710871	 2.1707626782	 0.193325124	 0.113187
H	 0.6646246711	-0.5774475785	-0.3538640627	 0.104251
H	 0.2889168709	 0.0432554993	 1.2442473496	 0.090112
H	-2.6379032985	 1.1845654454	 0.5949595263	 0.113251
H	-3.4378410175	-0.3542701159	 0.9608318357	 0.130028
H	-2.1547535591	 0.2422233859	 2.0131684729	 0.112233
H	-2.9681903765	-1.0373775497	-1.4167956193	 0.079603
H	-1.1670980395	-1.8351596177	-2.8304545205	 0.2868
H	 0.3665726271	-2.6559397913	-0.7512259349	 0.132221
H	 0.0380996096	-3.15570162	 0.9234881136	 0.127361
H	-0.7325744446	-3.9966688264	-0.4264908471	 0.096675
H	-3.0093910689	-3.3719812412	 0.2038961261	 0.275778
61.5121	131.3297	165.1119	175.2323	201.0886	220.5488	236.6238	273.3531	284.727	305.3542	312.9948	330.464	382.0091	414.3191	447.9657	545.779	597.9206	692.4526	712.6359	784.1495	865.3701	937.1955	974.8086	1001.2117	1017.5363	1042.77	1062.9826	1084.9966	1121.2354	1151.4746	1192.4614	1201.9236	1267.2212	1282.0084	1305.7033	1319.7396	1351.3555	1373.2664	1404.2793	1410.1076	1416.8982	1453.9012	1477.5927	1493.0585	1496.5115	1497.7251	1506.5315	1508.7678	1509.9942	3018.5876	3020.6773	3034.2495	3040.0002	3083.3315	3084.6815	3090.8632	3098.3089	3109.3184	3121.4326	3140.6316	3146.0612	3788.921	3801.8891
CCC1(C)C(O)C1(C)O	CC[C@@]1(C)[C@@H](O)[C@]1(C)O	
InChI=1S/C7H14O2/c1-4-6(2)5(8)7(6,3)9/h5,8-9H,4H2,1-3H3	InChI=1S/C7H14O2/c1-4-6(2)5(8)7(6,3)9/h5,8-9H,4H2,1-3H3/t5-,6+,7+/m1/s1
