14
gdb 127969	2.86813	1.38931	0.94139	4.1964	69.59	-0.241	-0.0388	0.2022	1168.3036	0.100501	-470.020632	-470.0124	-470.011456	-470.054389	28.186	
C	 0.0078191808	 1.4454342641	 0.0785083831	-0.337524
N	-0.0233465326	-0.0056812689	 0.1022528259	-0.363183
C	-1.1035911801	-0.6268481775	 0.0034723942	 0.54464
O	-2.393724516	-0.1097668234	-0.1377101229	-0.213571
C	-3.2134722788	-1.1942947729	-0.2012775753	 0.102318
N	-2.6439695502	-2.333124788	-0.1221385825	-0.189693
N	-1.29754097	-2.0164057353	 0.0093455902	-0.159385
C	-0.2978060232	-2.9826014671	 0.129158762	 0.172826
O	-0.4985321929	-4.165298432	 0.1305296355	-0.272903
H	 0.6453947466	 1.7774983874	-0.747937449	 0.137442
H	-0.9776499534	 1.9124094153	-0.0304472991	 0.127399
H	 0.4672184909	 1.8100046106	 1.0036001219	 0.137442
H	-4.2712168435	-1.0164733582	-0.3124597674	 0.180156
H	 0.6840474323	-2.4922309342	 0.2202452835	 0.134034
61.1932	103.8659	164.556	168.0303	229.7334	254.4737	308.4683	414.7442	587.7747	627.2415	714.4211	719.2476	830.1614	866.3569	934.8175	987.7375	1035.9483	1043.0232	1136.1296	1140.489	1158.032	1251.9216	1305.7577	1358.6093	1423.6886	1448.0735	1492.2805	1502.0411	1664.455	1825.6399	1845.1485	3019.9931	3029.3054	3085.3356	3090.5154	3285.7738
CN=C1OC=NN1C=O	CN=c1ocnn1C=O	
InChI=1S/C4H5N3O2/c1-5-4-7(3-8)6-2-9-4/h2-3H,1H3	InChI=1S/C4H5N3O2/c1-5-4-7(3-8)6-2-9-4/h2-3H,1H3
