13
gdb 25291	7.96232	0.66894	0.6171	6.6096	85.63	-0.2379	-0.0637	0.1742	1660.5725	0.090358	-415.62549	-415.617693	-415.616749	-415.659018	27.089	
O	-0.0991504082	-0.0214767597	-0.0009407009	-0.242171
C	-0.0028337942	 1.1874996009	 0.0080623322	-0.009789
C	 1.2351378317	 1.9087251446	-0.0002387462	 0.209538
C	 2.264796254	 2.5473948101	-0.0067265804	-0.078083
C	 3.4754463102	 3.264208393	-0.014817719	 0.136424
C	 4.7513318086	 2.7333032909	-0.0337701973	-0.178387
N	 5.5915377781	 3.8093116756	-0.0345881469	-0.222888
C	 4.813772958	 4.9378536712	-0.0165972873	 0.000455
N	 3.5398542865	 4.651890689	-0.0043524422	-0.292397
H	-0.9008291329	 1.8385083547	 0.0238513577	 0.097614
H	 5.1041792292	 1.7160874231	-0.0460593642	 0.156588
H	 6.5978037117	 3.7744520364	-0.0463480204	 0.279916
H	 5.2418569174	 5.9290998001	-0.0134837052	 0.14318
71.888	72.8739	116.6043	206.8877	258.8776	415.2146	512.5449	524.6973	560.6497	660.2184	704.9477	716.9706	782.6373	838.8137	938.8361	946.8489	1017.997	1037.8694	1106.2587	1124.1842	1238.5216	1304.9616	1364.5975	1420.6446	1436.018	1540.4556	1564.3987	1751.1183	2307.6688	2916.2297	3256.3652	3285.8892	3659.7708
O=CC#CC1=CNC=N1	O=CC#Cc1c[nH]cn1	
InChI=1S/C6H4N2O/c9-3-1-2-6-4-7-5-8-6/h3-5H,(H,7,8)	InChI=1S/C6H4N2O/c9-3-1-2-6-4-7-5-8-6/h3-5H,(H,7,8)
