18
gdb 90693	3.6434	1.15843	1.0616	16.3618	76.92	-0.1542	-0.032	0.1222	1164.3367	0.148792	-439.003489	-438.99527	-438.994326	-439.03649	31.452	
N	 0.0958837065	 1.0797647234	 0.0871375993	-0.437375
H	 0.2068249127	 0.0639748124	 0.1595369132	 0.314927
H	 1.0266447728	 1.4959021389	 0.0143970435	 0.323331
H	-0.4274008223	 1.2968859138	-0.7638305831	 0.321929
C	-0.64321964	 1.60124584	 1.3454117255	-0.013105
C	-1.9471135904	 0.7871970373	 1.5389943973	-0.242546
C	-1.3100760483	 0.1293220549	 2.7819977233	-0.073589
C	-0.0188819313	 0.9331319963	 2.5669580016	-0.104446
C	-0.8896730432	 1.174902225	 3.7826456703	-0.13864
C	-1.6471631367	 2.5184399971	 4.0359859511	 0.354313
O	-1.8961415717	 2.7519539197	 5.2188955414	-0.452332
O	-1.9076212008	 3.1695495365	 2.9872470484	-0.501421
H	-0.7003337314	 2.6840753626	 1.2737312992	 0.160863
H	-2.8259921363	 1.4061106712	 1.7058500603	 0.169241
H	-2.122980889	 0.0713129091	 0.7241105439	 0.063112
H	-1.4308041247	-0.9127337644	 3.0518078574	 0.087354
H	 1.0290432687	 0.6586656891	 2.6509077439	 0.07502
H	-0.4652224046	 0.7308671371	 4.6795312036	 0.093365
59.9754	148.3983	223.4377	238.0453	251.8572	315.2889	341.7048	430.5524	485.8023	651.7207	727.2615	757.2664	770.9786	799.0729	820.6923	849.4666	877.6112	908.4949	940.3358	967.4497	1002.2056	1019.0918	1055.8485	1082.8033	1101.9162	1105.8498	1185.0109	1219.6639	1251.3226	1257.3847	1297.3706	1307.822	1344.3645	1365.7608	1427.4162	1455.8555	1637.1882	1653.0943	1769.3222	3006.3701	3140.4023	3152.1992	3159.3732	3173.2912	3185.9712	3387.7475	3489.3137	3512.8806
[NH3+]C1CC2C1C2C([O-])=O	[NH3][C@H]1C[C@H]2[C@@H]1[C@H]2C(=O)[O]	
InChI=1S/C6H9NO2/c7-3-1-2-4(3)5(2)6(8)9/h2-5H,1,7H2,(H,8,9)	InChI=1S/C6H9NO2/c7-3-1-2-4(3)5(2)6(8)9/h2-5H,1H2,7H3/t2-,3-,4-,5-/m0/s1
