16
gdb 116272	2.21154	1.51768	1.02739	2.6429	64.17	-0.2743	-0.0019	0.2724	1133.0969	0.124538	-475.016531	-475.007986	-475.007042	-475.05121	30.115	
O	-0.0192477779	 1.4714449703	-0.0950194484	-0.418256
C	 0.034400975	 0.0619208048	-0.1199303599	-0.080976
C	-1.3325664	-0.5251975976	 0.2214558866	 0.063046
O	-2.297309792	-0.0978336899	-0.7486261492	-0.268364
C	-2.7344169981	-1.2392183948	-1.4497744985	 0.010845
O	-2.6467740838	-2.3177487982	-0.5418635578	-0.225418
C	-1.463933345	-2.0825868777	 0.201514604	-0.08439
C	-0.3084475311	-2.7735825784	-0.4080928618	 0.28888
N	 0.5879470832	-3.3288429149	-0.8804412192	-0.323968
H	-0.7130496243	 1.7315839047	-0.7123285603	 0.293428
H	 0.3685354726	-0.3204612525	-1.0958368284	 0.111589
H	 0.7745658432	-0.2443450947	 0.6269106325	 0.124505
H	-1.6534885377	-0.137309592	 1.1936091335	 0.113066
H	-3.7796568864	-1.1139196525	-1.7416903645	 0.137681
H	-2.1042150011	-1.4267525827	-2.3349014949	 0.109962
H	-1.6112261267	-2.487108834	 1.2057241663	 0.14837
23.6051	115.6762	132.9919	167.8658	231.4695	303.6288	368.997	435.3759	468.4274	484.7668	597.7742	739.497	797.1169	831.5366	862.9649	958.2872	1020.5384	1040.661	1070.1211	1089.5262	1105.2318	1114.4343	1182.8604	1225.5168	1229.7037	1274.8985	1305.1353	1357.1928	1360.0533	1400.8483	1425.1558	1436.3065	1493.6782	1544.1333	2355.3885	2970.2352	3000.8713	3059.7291	3083.1303	3093.0155	3108.7891	3798.8298
OCC1OCOC1C#N	OC[C@H]1OCO[C@H]1C#N	
InChI=1S/C5H7NO3/c6-1-4-5(2-7)9-3-8-4/h4-5,7H,2-3H2	InChI=1S/C5H7NO3/c6-1-4-5(2-7)9-3-8-4/h4-5,7H,2-3H2/t4-,5+/m0/s1
