19
gdb 72417	2.65816	1.70593	1.38155	4.4641	74.25	-0.256	0.0198	0.2758	1006.0151	0.16135	-423.095796	-423.088322	-423.087378	-423.127336	30.219	
C	-0.1052897139	 1.4645229053	 0.0157184778	-0.474214
C	 0.0559009922	-0.0361737063	 0.012346336	 0.404869
C	 0.7621073438	-0.674820271	-1.2056344827	-0.240541
C	 1.0129144017	-2.1350923844	-0.72144551	-0.233337
C	 0.3879158235	-2.1324056094	 0.7068327149	-0.164186
C	 0.7549493693	-0.722077529	 1.2009184331	-0.266229
C	-1.1096999428	-1.9454446583	 0.4876994084	 0.442292
O	-2.0165641515	-2.7169041156	 0.6009736432	-0.354038
O	-1.2734599533	-0.6537961205	 0.0652095456	-0.271693
H	 0.876184254	 1.9481648754	 0.0300321948	 0.121351
H	-0.6414442342	 1.8005209078	-0.8766090191	 0.133643
H	-0.6673073943	 1.7907516979	 0.8950758529	 0.132316
H	 0.1198535502	-0.6204946462	-2.0873272706	 0.119013
H	 1.6945589107	-0.1507271987	-1.4331328465	 0.104768
H	 0.5560513263	-2.8869899706	-1.368455882	 0.124441
H	 2.08094357	-2.3592090122	-0.6548757462	 0.109235
H	 0.6266694498	-2.993362529	 1.3266952506	 0.09271
H	 1.8314224952	-0.5323442618	 1.2312087791	 0.104689
H	 0.3054421931	-0.4559192033	 2.1611350809	 0.114911
147.5276	206.2518	234.4932	282.1292	285.9562	416.8528	457.6858	497.3435	574.3266	600.5564	708.4887	763.005	814.7397	829.3871	858.9622	891.6681	905.7425	928.0122	954.4045	973.0844	1005.986	1026.679	1076.529	1089.3225	1150.0583	1175.2277	1204.3593	1240.2508	1253.422	1262.1189	1279.7481	1307.155	1333.3636	1356.2701	1416.5422	1478.4465	1483.6803	1490.3261	1496.1056	1510.9162	1890.5403	3043.3136	3059.0289	3061.5333	3069.9145	3104.545	3115.8031	3116.5619	3121.0973	3123.7428	3151.2663
CC12CCC(C1)C(=O)O2	C[C@@]12CC[C@@H](C1)C(=O)O2	
InChI=1S/C7H10O2/c1-7-3-2-5(4-7)6(8)9-7/h5H,2-4H2,1H3	InChI=1S/C7H10O2/c1-7-3-2-5(4-7)6(8)9-7/h5H,2-4H2,1H3/t5-,7+/m0/s1
