15
gdb 131405	5.92987	0.96224	0.88009	1.3994	70.04	-0.2397	-0.0137	0.226	1267.6476	0.114113	-453.913439	-453.905974	-453.90503	-453.945919	28.015	
O	 0.3733375198	 1.3091189643	-0.0238331601	-0.416538
C	 0.1225548139	-0.0053819627	 0.0507955252	 0.481702
N	-0.3196974748	-0.6856287343	-0.9794180443	-0.258488
O	-0.4538061178	-1.9989970406	-0.5023214213	-0.242327
C	-0.0837270378	-2.0423924644	 0.7936287047	 0.495983
C	 0.2999705813	-0.806287986	 1.2121644873	-0.467875
C	-0.15103099	-3.3458348335	 1.4659058664	-0.112505
C	-1.2445638703	-4.3056266393	 1.1277808288	-0.232895
N	 0.1306246524	-4.5832280747	 0.7091077471	-0.315421
H	 0.1719895905	 1.5967017211	-0.9246082352	 0.313306
H	 0.6539643015	-0.5014083789	 2.1815984394	 0.130109
H	 0.2481580618	-3.3374720597	 2.475397874	 0.108676
H	-1.6308622699	-4.9568758616	 1.9064976292	 0.128618
H	-1.9667955533	-3.9919170556	 0.3802246597	 0.136554
H	 0.2398780728	-4.347368544	-0.2752182407	 0.251102
61.9081	147.6504	169.1038	310.3469	342.1988	432.4975	457.3319	480.1092	629.8205	687.2844	734.2315	747.5353	800.8987	822.1266	877.4476	953.1677	969.0844	996.0267	1009.7346	1047.846	1102.2037	1133.2548	1156.9438	1179.4065	1234.2101	1266.6182	1305.1086	1328.5279	1384.3815	1503.9529	1541.8617	1560.7176	1659.818	3116.8802	3160.4854	3209.7862	3288.675	3500.5945	3779.9322
OC1=NOC(=C1)C1CN1	Oc1noc(c1)[C@H]1CN1	
InChI=1S/C5H6N2O2/c8-5-1-4(9-7-5)3-2-6-3/h1,3,6H,2H2,(H,7,8)	InChI=1S/C5H6N2O2/c8-5-1-4(9-7-5)3-2-6-3/h1,3,6H,2H2,(H,7,8)/t3-/m1/s1
