20
gdb 8180	2.70728	2.43477	1.69535	1.2681	73.85	-0.2535	0.0757	0.3292	861.2897	0.178735	-349.002872	-348.995508	-348.994564	-349.033744	30.287	
C	-0.0841104051	 1.5344971289	 0.0623320669	-0.420626
C	 0.0679305876	 0.0155629213	 0.0394054155	 0.032099
C	 0.999064859	-0.5601683974	-1.07924095	-0.229947
C	 1.9818003374	-1.3663862655	-0.203714337	-0.0167
C	 2.3038367919	-0.3569297253	 0.9339184938	-0.291277
C	 0.7935344367	-0.5870326621	 1.2620298057	 0.416518
O	 0.1975449168	-0.2325832539	 2.469649594	-0.4932
C	 1.0225527615	-2.0612377831	 0.8047379782	-0.287809
H	 0.8851303399	 2.0416251312	 0.1160214786	 0.110468
H	-0.5890325031	 1.8867431057	-0.8435185855	 0.107787
H	-0.6753490009	 1.8502818022	 0.926828054	 0.128168
H	-0.9316988425	-0.4296946329	-0.0230606381	 0.070219
H	 0.4623586318	-1.1898299055	-1.7948734313	 0.093479
H	 1.5031556691	 0.2325584191	-1.6418474913	 0.093553
H	 2.7717200425	-1.9212771402	-0.7077650977	 0.061554
H	 2.9594903558	-0.7842008777	 1.6983553136	 0.084125
H	 2.6425620906	 0.647071064	 0.6659251841	 0.091983
H	 0.7032218035	-0.6268475356	 3.1872236464	 0.277808
H	 0.1670237088	-2.6204374997	 0.4139328288	 0.088551
H	 1.5568805188	-2.6543759838	 1.5527235213	 0.083248
178.0343	219.6421	243.7986	290.483	378.3062	383.7082	419.8901	489.6789	539.8535	590.1126	664.7571	792.0421	828.2223	846.4326	899.589	900.4123	938.6073	956.2983	978.375	998.767	1013.0918	1069.5746	1099.0292	1106.1617	1124.1329	1142.9806	1161.4549	1194.8811	1207.3601	1252.3294	1262.0798	1284.0732	1306.3154	1337.3793	1367.5195	1401.5083	1412.5451	1482.7291	1494.5787	1498.9623	1503.4488	1528.8458	3032.0153	3033.5366	3044.106	3045.8194	3055.7413	3089.2205	3096.3607	3105.2689	3110.1911	3114.0152	3123.4708	3818.0077
CC1CC2CC1(O)C2	C[C@H]1C[C@H]2C[C@]1(O)C2	
InChI=1S/C7H12O/c1-5-2-6-3-7(5,8)4-6/h5-6,8H,2-4H2,1H3	InChI=1S/C7H12O/c1-5-2-6-3-7(5,8)4-6/h5-6,8H,2-4H2,1H3/t5-,6-,7-/m0/s1
