23
gdb 91915	2.3412	1.43891	1.00177	1.467	84.98	-0.2555	0.0728	0.3284	1265.7836	0.207381	-388.297339	-388.288445	-388.287501	-388.33043	35.503	
C	 0.0076258062	 1.581472816	-0.0073624383	-0.403517
C	 0.0175621648	 0.0505590447	 0.0181782712	 0.038852
C	 0.6946313143	-0.5291533364	-1.2385848902	-0.215275
C	 0.9352410695	-2.0377852876	-1.1755216613	-0.04656
C	 2.180287469	-2.5814991862	-0.5175478718	-0.279237
C	 0.8438232332	-2.7747086911	 0.1476725339	-0.00146
C	 0.4866422469	-2.0203274463	 1.4078660666	 0.102103
O	 1.254565372	-2.5761536206	 2.4744347361	-0.440894
C	 0.6933761631	-0.5054258194	 1.2797023582	-0.238045
H	 1.028250085	 1.9814084522	 0.0161432037	 0.112812
H	-0.4756870316	 1.9604833348	-0.9144086848	 0.110172
H	-0.5298880256	 1.9908913393	 0.8545844606	 0.108225
H	-1.0267571552	-0.2963432751	 0.0253252785	 0.069373
H	 0.078037517	-0.2972157518	-2.1140096558	 0.094487
H	 1.6482773202	-0.0065949118	-1.3954877817	 0.095345
H	 0.5826206121	-2.5906131399	-2.0406387922	 0.080198
H	 2.6625933445	-3.4517940526	-0.9488499115	 0.105754
H	 2.8710405142	-1.8678246792	-0.0802328137	 0.112657
H	 0.4411638263	-3.7825972248	 0.1175979518	 0.082599
H	-0.5868326393	-2.1923601127	 1.5999315527	 0.058656
H	 0.9820816914	-2.1392797876	 3.2883704973	 0.274719
H	 1.7685117447	-0.283365312	 1.265471603	 0.100706
H	 0.2871459875	-0.0160288818	 2.1752172579	 0.078328
96.3978	157.5552	210.4195	240.0214	256.6012	294.7113	349.7237	393.335	418.3229	432.0769	442.8166	582.0878	625.2129	754.3573	817.9786	846.7113	865.2594	886.3974	927.7199	933.6699	966.3145	1009.6268	1018.744	1056.8437	1063.0155	1092.5295	1113.8366	1116.7842	1133.0206	1155.8886	1180.7787	1200.8747	1233.3253	1265.1507	1285.9606	1293.9102	1321.5924	1367.8622	1374.4386	1383.9198	1393.1562	1410.0493	1419.6443	1443.5088	1485.6378	1488.9757	1497.4472	1501.0268	1506.9801	2940.519	2988.3924	3009.0909	3012.3233	3024.4951	3050.8044	3059.4868	3090.5675	3095.0808	3130.994	3143.2676	3153.8184	3213.4817	3805.164
CC1CC2CC2C(O)C1	C[C@H]1C[C@H]2C[C@H]2[C@@H](O)C1	
InChI=1S/C8H14O/c1-5-2-6-4-7(6)8(9)3-5/h5-9H,2-4H2,1H3	InChI=1S/C8H14O/c1-5-2-6-4-7(6)8(9)3-5/h5-9H,2-4H2,1H3/t5-,6-,7+,8-/m0/s1
