14
gdb 15607	3.60017	1.90455	1.256	5.9023	69.62	-0.229	-0.0735	0.1556	918.8508	0.107255	-378.748958	-378.741391	-378.740447	-378.781234	26.901	
C	 0.0165245482	 1.4319570481	 0.0422424839	-0.342377
N	-0.0062639554	-0.0154867175	 0.1169494989	-0.257822
C	-1.1051095237	-0.6339747956	 0.0276409888	 0.28945
N	-2.4093748955	-0.1409287204	-0.1411371222	-0.358097
C	-3.3059006322	-1.1992614963	-0.0991740791	-0.005876
C	-2.7007167215	-2.4035378302	-0.006123222	-0.25937
C	-1.2563277224	-2.1710273101	 0.076741959	 0.334824
O	-0.3404937897	-2.9557093641	 0.1592214537	-0.31498
H	 0.9522640335	 1.7479050544	-0.4274414842	 0.144828
H	-0.8160209249	 1.8769700717	-0.5236008172	 0.099686
H	 0.0102982918	 1.8544160685	 1.0557685052	 0.138766
H	-2.6789965442	 0.8073621936	 0.0530807824	 0.265818
H	-4.3650986375	-0.9846562036	-0.1602365067	 0.14159
H	-3.1795843665	-3.3690705685	-0.0000505207	 0.12356
62.4031	135.9939	196.266	218.7081	278.452	351.0973	415.6354	593.937	605.8177	612.8616	740.3159	772.5819	807.0667	833.5776	946.2326	1000.4032	1064.4941	1092.3314	1112.614	1136.6366	1161.0592	1250.9958	1352.7305	1420.784	1431.1664	1476.9266	1512.9796	1621.2514	1762.2036	1813.3818	2981.5142	3051.2582	3096.7875	3220.767	3272.5851	3675.8713
CN=C1NC=CC1=O	CN=C1NC=CC1=O	
InChI=1S/C5H6N2O/c1-6-5-4(8)2-3-7-5/h2-3H,1H3,(H,6,7,8)	InChI=1S/C5H6N2O/c1-6-5-4(8)2-3-7-5/h2-3H,1H3,(H,6,7,8)
