20
gdb 12076	3.43093	1.74829	1.54508	1.1017	74.67	-0.24	0.0889	0.3288	940.0966	0.176059	-348.969067	-348.960814	-348.95987	-349.001215	31.835	
C	 0.0893378233	 1.3311502237	-0.0611287319	-0.24778
O	-0.0128130296	-0.0603995693	 0.1410109848	-0.284653
C	-1.3187036011	-0.605848984	 0.0500322426	 0.429695
C	-2.2508431531	-0.0650898443	 1.1317786376	-0.456247
C	-1.9733038874	-0.6192564938	-1.3863892204	-0.301508
C	-1.9531127472	-2.1499079013	-1.3440859239	-0.037856
C	-0.5412103638	-2.6344743038	-1.1821754374	-0.285344
C	-1.2750212538	-2.1357322283	 0.0287508274	-0.081075
H	 1.1556362295	 1.5651462828	-0.119423718	 0.124426
H	-0.3894076262	 1.65012983	-0.9991115652	 0.104027
H	-0.3473175793	 1.9134150915	 0.7628421472	 0.105726
H	-2.4637968849	 0.9992375153	 0.9923755808	 0.114029
H	-3.2044165945	-0.6004474858	 1.1114537256	 0.119906
H	-1.7991603832	-0.2021844185	 2.1199454238	 0.12055
H	-2.9747982299	-0.1826093078	-1.3938729367	 0.097934
H	-1.3807542024	-0.1638761394	-2.1861941764	 0.095095
H	-2.7487219314	-2.7963767329	-1.6925761458	 0.082413
H	-0.4069214915	-3.710699726	-1.2225128743	 0.10717
H	 0.2876442906	-2.0593989493	-1.5844575357	 0.115699
H	-1.4567502041	-2.7617860289	 0.894605256	 0.077791
110.2534	148.8353	185.08	237.7498	257.2249	313.1345	373.6639	405.004	456.1032	517.6956	617.4348	753.7664	792.7803	830.7767	896.0559	912.1487	921.6502	959.2198	983.1576	994.0481	1029.1346	1064.3301	1082.2405	1104.2445	1136.6466	1166.6527	1180.407	1184.7642	1201.931	1235.9327	1238.5748	1253.6762	1315.5332	1367.3291	1401.0767	1473.025	1476.2127	1484.4635	1490.774	1493.8177	1504.1209	1511.6326	2983.7641	3030.0782	3037.2127	3046.3594	3102.7467	3105.0549	3107.6674	3113.618	3121.3529	3173.2506	3188.4526	3209.0467
COC1(C)CC2CC12	CO[C@@]1(C)C[C@H]2C[C@@H]12	
InChI=1S/C7H12O/c1-7(8-2)4-5-3-6(5)7/h5-6H,3-4H2,1-2H3	InChI=1S/C7H12O/c1-7(8-2)4-5-3-6(5)7/h5-6H,3-4H2,1-2H3/t5-,6-,7+/m1/s1
