17
gdb 26461	3.7823	1.03716	0.98873	3.1166	74.56	-0.2323	-0.0461	0.1862	1233.9957	0.135977	-418.048636	-418.040079	-418.039135	-418.083167	30.401	
C	-0.1387853236	 1.4526332757	-0.0697519785	-0.388339
C	 0.0331958982	-0.0637731201	 0.0133808491	-0.08238
C	 0.716059324	-0.6505531239	-1.2278586309	 0.150005
O	 0.8343644886	-0.0639631479	-2.2691361245	-0.228519
N	 0.7427066154	-0.5065725493	 1.2060159285	 0.008529
C	 0.2405821072	-1.2722971315	 2.2389308926	-0.127629
C	 1.27854819	-1.4388901898	 3.1160523551	-0.092752
N	 2.4077624116	-0.8037739018	 2.6548771378	-0.27056
C	 2.0538486534	-0.2591828421	 1.5140779008	 0.003854
H	 0.8316516021	 1.954546439	-0.0949154771	 0.139651
H	-0.6716412981	 1.7120431931	-0.9865887812	 0.146103
H	-0.6998744812	 1.8189433761	 0.7927151216	 0.132309
H	-0.9546303448	-0.5427718629	 0.0529531625	 0.125712
H	 1.0915212688	-1.687467068	-1.0841574149	 0.103992
H	-0.7834582552	-1.6084261473	 2.2425018989	 0.129373
H	 1.278000472	-1.9784193871	 4.0508563536	 0.113397
H	 2.6910280414	 0.3276574076	 0.8683108564	 0.137252
37.8477	68.4348	118.5254	191.4429	239.7651	256.1908	389.5949	405.614	581.0007	645.125	681.9551	714.6773	728.6212	815.9439	847.3043	858.5014	914.432	923.79	1010.0809	1073.1454	1102.1967	1111.5564	1137.3769	1149.0224	1253.2717	1261.8343	1307.1504	1318.6272	1389.4435	1398.332	1409.5817	1425.1103	1486.1794	1492.1083	1521.7014	1544.6603	1838.8295	2901.1705	3028.1111	3059.8478	3135.7682	3146.1186	3243.1606	3248.7792	3275.1036
CC(C=O)N1C=CN=C1	C[C@@H](C=O)n1ccnc1	
InChI=1S/C6H8N2O/c1-6(4-9)8-3-2-7-5-8/h2-6H,1H3	InChI=1S/C6H8N2O/c1-6(4-9)8-3-2-7-5-8/h2-6H,1H3/t6-/m0/s1
