21
gdb 119125	2.35908	1.22743	0.91492	3.517	80.33	-0.2393	-0.0068	0.2325	1351.1729	0.179804	-424.226925	-424.216711	-424.215767	-424.262605	36.752	
C	-0.3678708272	 1.431440038	-0.3189975528	-0.226282
O	-0.4770098907	 0.0287992146	-0.3922109252	-0.234383
C	 0.6988020708	-0.5870047118	-0.8858314919	-0.176313
C	 0.5014863619	-2.0820434837	-0.9395442832	 0.241865
C	-0.3010957533	-2.6398240062	-2.1081717412	-0.270137
C	 1.1736677457	-2.8386778282	-2.0850293468	-0.296603
C	 0.3851781604	-2.8679440242	 0.3421195867	 0.329916
C	 0.5514446515	-2.1259078168	 1.6532891392	-0.503741
O	 0.1726489388	-4.0629956998	 0.3151866726	-0.322162
H	 0.4455756314	 1.7453265707	 0.3543190157	 0.104993
H	-0.1824275477	 1.8768073647	-1.3092329544	 0.106232
H	-1.315117874	 1.8135704969	 0.0683986764	 0.13099
H	 0.9233547388	-0.2097866083	-1.8972016963	 0.086839
H	 1.5599924187	-0.3207283333	-0.2498033659	 0.088802
H	-0.9237180657	-3.4964017986	-1.8808991554	 0.140374
H	-0.7244194436	-1.9143495518	-2.7935245842	 0.119148
H	 1.7953909695	-2.2612613851	-2.7606224598	 0.114494
H	 1.5415333993	-3.827274731	-1.8379656294	 0.138726
H	-0.1256913487	-1.2683880726	 1.6893766707	 0.156998
H	 0.3594294262	-2.809522027	 2.4804876721	 0.135968
H	 1.5724092178	-1.7343318066	 1.739022413	 0.134275
50.1507	79.2667	115.8729	156.5391	179.028	233.1036	257.6154	278.6713	331.1767	361.6672	401.3207	433.2377	584.4107	617.7294	699.73	794.867	846.0885	897.9436	947.5132	956.989	970.7259	1014.3581	1057.7916	1061.9497	1071.462	1099.3915	1143.8643	1169.2319	1185.2301	1203.3693	1224.8472	1258.9923	1318.221	1350.5769	1383.7246	1423.3226	1453.1386	1468.0828	1474.2524	1481.9087	1484.7147	1486.5141	1504.151	1524.2448	1784.0247	2953.308	2972.0276	2981.6308	3014.7933	3037.4944	3109.1133	3117.9425	3138.3179	3145.0561	3159.6366	3229.8743	3244.5816
COCC1(CC1)C(C)=O	COCC1(CC1)C(=O)C	
InChI=1S/C7H12O2/c1-6(8)7(3-4-7)5-9-2/h3-5H2,1-2H3	InChI=1S/C7H12O2/c1-6(8)7(3-4-7)5-9-2/h3-5H2,1-2H3
