17
gdb 37340	3.3664	1.87408	1.79938	2.9358	69.01	-0.2218	0.0739	0.2956	829.5762	0.140198	-417.930577	-417.924794	-417.923849	-417.96034	25.491	
N	-0.0305580696	 1.4849882497	 0.0304830001	-0.332091
C	 1.2856718969	 0.8044054697	-0.0065873641	-0.045676
C	 0.0363862953	 0.0045506788	 0.0013982795	-0.045673
C	 0.0491642537	-0.6487694009	-1.4088856279	 0.041448
O	 1.4593311539	-0.8583617315	-1.6003133763	-0.245063
C	 1.8608718378	 0.5111517293	-1.4204615127	 0.041446
C	 0.989911826	 1.2380535999	-2.4522903028	-0.036228
N	 0.6473853862	 0.3897098545	-3.6162425367	-0.346311
C	-0.2558441677	 0.4404822166	-2.4443228847	-0.03623
H	-0.215434744	 1.7832722276	 0.9872658596	 0.230191
H	 1.9482851188	 0.8670641157	 0.8488671018	 0.093974
H	-0.2900532972	-0.566032531	 0.8631736834	 0.093973
H	-0.4769160169	-1.5986750821	-1.4927139482	 0.079995
H	 2.9429533764	 0.5908485027	-1.5145703931	 0.079995
H	 0.9835112005	 2.3182459143	-2.5177605473	 0.098728
H	 0.2523119024	 0.9996638318	-4.3299528091	 0.228794
H	-1.2347573124	 0.8980427949	-2.5035704814	 0.098728
285.1945	290.8612	407.8595	447.2053	585.9453	629.0174	649.8207	757.6824	775.7869	798.8257	856.1779	857.8209	873.9727	880.9654	901.9751	911.6061	923.9063	964.158	964.4663	997.2707	1009.6359	1061.8862	1081.9649	1127.7099	1140.9036	1145.5367	1150.8952	1199.994	1236.4762	1255.0456	1256.8756	1307.9514	1330.5223	1334.5587	1355.8801	1384.2011	1416.6389	3130.5232	3132.8053	3174.2125	3184.1612	3195.3575	3205.2278	3473.163	3487.2766
N1C2C1C1OC2C2NC12	N1[C@H]2[C@@H]1[C@@H]1O[C@H]2[C@H]2N[C@@H]12	
InChI=1S/C6H8N2O/c7-1-2(7)6-4-3(8-4)5(1)9-6/h1-8H	InChI=1S/C6H8N2O/c7-1-2(7)6-4-3(8-4)5(1)9-6/h1-8H/t1-,2+,3-,4+,5-,6+
