18
gdb 38479	3.65526	1.68783	1.54248	1.3415	75.22	-0.2346	0.0622	0.2968	909.6068	0.150429	-401.814628	-401.808433	-401.807489	-401.844715	27.101	
C	 0.0236081435	 1.5069837098	-0.154064502	-0.326626
C	 1.3375089956	 0.818395034	 0.0296676053	 0.09648
O	 1.8781902917	 0.7235582555	 1.3450333465	-0.304213
C	 0.9116174219	-0.0010800789	 2.0631492872	 0.338952
C	 0.7930714324	-1.14771822	 3.0989502267	-0.240037
N	-0.6470580125	-1.0007112042	 2.5469572442	-0.182795
C	-0.4213634496	 0.5006924253	 2.6951102436	-0.230332
C	 0.1012076681	-0.855724461	 1.1390315647	 0.040687
C	 0.026419907	-0.0173230169	-0.1129020156	-0.163583
H	-0.3702779289	 2.1138932647	 0.648809882	 0.129316
H	-0.1671638092	 1.9181553479	-1.1406123961	 0.120699
H	 2.1130288964	 0.8492451247	-0.725699713	 0.105831
H	 1.2664594378	-2.1028547797	 2.8629011889	 0.111955
H	 0.85521986	-0.9037840172	 4.1611819713	 0.109821
H	-0.3938606546	 0.8330824982	 3.7357255686	 0.099365
H	-1.1224695953	 1.0908077284	 2.1109406814	 0.114271
H	 0.5032487092	-1.8373008583	 0.873238365	 0.079881
H	-0.1831020834	-0.5201882822	-1.0497827785	 0.100327
251.3603	275.4986	387.6556	422.1144	470.1693	511.8771	595.8158	686.6423	698.3556	728.3913	793.6228	808.1237	828.2079	866.4323	901.7803	912.7082	932.3038	986.1193	1006.8907	1048.1277	1049.5538	1067.6783	1087.0018	1104.4344	1114.7294	1129.7225	1147.9337	1163.3745	1183.6151	1186.628	1218.5156	1251.6321	1282.3908	1338.1158	1360.5827	1415.772	1481.2195	1508.3892	1549.473	3064.0012	3068.4628	3077.1644	3142.627	3143.5708	3170.3291	3176.9492	3193.3588	3241.464
C1C2OC34CN(C3)C4C12	C1[C@H]2O[C@@]34CN(C3)[C@H]4[C@@H]12	
InChI=1S/C7H9NO/c1-4-5(1)9-7-2-8(3-7)6(4)7/h4-6H,1-3H2	InChI=1S/C7H9NO/c1-4-5(1)9-7-2-8(3-7)6(4)7/h4-6H,1-3H2/t4-,5+,6-/m0/s1
