18
gdb 66822	2.65668	2.25053	1.84062	1.8699	80.45	-0.205	-0.0299	0.1751	849.4359	0.148735	-364.705608	-364.698984	-364.698039	-364.736006	28.156	
C	-0.2525160942	 1.5884535028	-0.2365486272	-0.507011
C	 0.0180922197	 0.1235479983	-0.0619402441	 0.364793
C	-0.9261408297	-0.9260155411	 0.5734808913	-0.088434
C	-0.1404182713	-0.8477509819	 1.952043228	-0.279576
C	 0.9907763882	-0.4105278127	 1.0085128733	-0.037477
C	 1.7112813205	-1.4268673435	 0.4787630227	-0.107282
C	 1.0885565294	-1.7657877972	-0.8101192074	-0.068206
C	-0.4323326273	-1.8280402156	-0.5994277581	-0.074844
N	 0.2163884643	-0.6876112477	-1.3251208272	-0.17979
H	 0.621369138	 2.0826639477	-0.674880482	 0.130765
H	-1.1054595308	 1.7540246275	-0.9020886396	 0.122628
H	-0.462367462	 2.0646317238	 0.7268409963	 0.118892
H	-2.009065649	-0.7813959835	 0.5891612424	 0.089719
H	-0.5991272478	-0.0802725884	 2.5847872317	 0.107627
H	 0.0260489337	-1.7595681278	 2.5282583668	 0.108755
H	 2.1957355485	-2.1959294293	 1.0726918382	 0.1013
H	 1.5208995942	-2.4165653577	-1.5640134507	 0.097148
H	-1.0391489543	-2.5554147436	-1.1270606646	 0.100992
202.2088	236.0376	255.6803	366.8797	476.8767	516.1498	593.7396	665.2016	694.978	721.9017	736.2058	777.6931	792.6415	830.7829	847.6372	887.8135	921.1577	931.3224	964.832	984.7224	1025.3588	1034.7068	1064.7907	1086.6221	1099.2917	1136.9408	1162.3331	1171.5978	1197.177	1245.4323	1275.5943	1282.2723	1326.5802	1333.1837	1411.7224	1477.7039	1490.9789	1494.9242	1567.3644	3031.4915	3042.2394	3086.8067	3100.8361	3107.4747	3118.8089	3158.4128	3172.8867	3178.9537
CC12C3CC1=CC1C3N21	C[C@]12[C@@H]3C[C]1[CH][C@H]1[C@@H]3N21	
InChI=1S/C8H9N/c1-8-4-2-5(8)7-6(3-4)9(7)8/h3,5-7H,2H2,1H3	InChI=1S/C8H9N/c1-8-4-2-5(8)7-6(3-4)9(7)8/h3,5-7H,2H2,1H3/t5-,6+,7-,8-,9?/m1/s1
