15
gdb 42201	3.24267	1.32513	1.03812	5.3895	72.49	-0.2822	-0.0834	0.1987	1114.7429	0.112653	-416.78502	-416.777057	-416.776113	-416.818155	28.918	
O	 0.8241465509	 1.4318062637	 1.5316395597	-0.286288
C	 0.2201279732	 1.6435925176	 0.5059626968	 0.222757
C	 0.778632764	 1.2064022209	-0.7928190284	 0.243461
N	 1.2533360126	 0.8263850941	-1.7758432805	-0.322115
C	-1.0957526532	 2.2975928362	 0.4509312759	 0.235089
C	-1.9045876095	 2.7759645503	 1.6616050898	-0.310124
C	-3.2107574987	 2.2766473226	 0.9607412819	-0.237912
C	-2.3754723735	 1.806518647	-0.2394917088	-0.078171
N	-1.5741898791	 2.8572400214	-0.8096414709	-0.339858
H	-1.667973569	 2.2125065154	 2.5645708449	 0.14252
H	-1.8251833217	 3.8448516298	 1.8791339564	 0.114121
H	-3.6837885474	 1.4544427273	 1.5002620606	 0.127986
H	-3.9709245243	 3.0272719803	 0.7241099496	 0.115363
H	-2.515934692	 0.9040860184	-0.8233289989	 0.129862
H	-1.9638955423	 3.7905518049	-0.6877440082	 0.243308
55.7178	126.7166	147.2049	237.9215	274.3042	338.0152	418.4675	471.4616	497.4172	661.0146	728.0604	759.523	782.0098	825.1526	869.3544	936.8302	950.5159	1002.3956	1052.1513	1060.5361	1077.9099	1129.2662	1162.2396	1212.398	1227.9179	1258.7025	1297.9541	1319.6859	1431.5105	1478.7488	1496.9547	1769.718	2343.1189	3059.0949	3068.515	3121.2086	3141.4063	3190.0308	3468.0033
O=C(C#N)C12CCC1N2	O=C(C#N)[C@]12CC[C@H]1N2	
InChI=1S/C6H6N2O/c7-3-5(9)6-2-1-4(6)8-6/h4,8H,1-2H2	InChI=1S/C6H6N2O/c7-3-5(9)6-2-1-4(6)8-6/h4,8H,1-2H2/t4-,6+/m1/s1
