20
gdb 83799	2.31346	1.8358	1.55223	2.3468	77.69	-0.2074	0.0596	0.2671	979.3953	0.173652	-403.099408	-403.091805	-403.090861	-403.130932	31.164	
O	 0.0631617674	 1.4224498178	-0.0662793116	-0.410363
C	 0.0561395125	 0.0249190401	 0.0319193946	 0.057679
C	-0.4384106294	-0.699785875	 1.2655687479	-0.096256
C	-1.0459074609	 0.0373449715	 2.4505919856	-0.220407
C	-2.0452181594	 1.1489677283	 2.0650938106	-0.237277
C	-3.0430561599	 0.6701779664	 1.0188164737	 0.001625
C	-2.9523578936	 1.1228265611	-0.4023013187	-0.25743
N	-2.5936466943	-0.2450073392	-0.0311999007	-0.098592
C	-1.2464169136	-0.7502741756	-0.0218800674	-0.019476
H	 0.7745995825	 1.7549716716	 0.4908591867	 0.290834
H	 0.8797279908	-0.4493893574	-0.5036751184	 0.086213
H	 0.1085256485	-1.5973769169	 1.5416257764	 0.082184
H	-1.5581379761	-0.706508338	 3.0743318889	 0.105794
H	-0.2519193736	 0.463460177	 3.0766489032	 0.091695
H	-2.5875707815	 1.4668423564	 2.9610187617	 0.094556
H	-1.4998284454	 2.0179641674	 1.6950481051	 0.110143
H	-4.0253384794	 0.4069363644	 1.4094617689	 0.081667
H	-3.8512624956	 1.2055066009	-1.0094285284	 0.103077
H	-2.1580969562	 1.8182697517	-0.649303403	 0.139668
H	-1.1770253827	-1.6663332026	-0.6031026048	 0.094664
171.4308	195.2761	204.8635	288.9225	314.6155	403.1813	434.5695	483.9485	549.697	605.5406	686.3248	743.9091	760.1382	780.5694	794.0463	867.8143	934.8905	949.3592	963.4893	987.6459	1043.6506	1050.9334	1096.8239	1124.7692	1127.432	1131.5937	1149.8958	1161.0045	1172.6666	1241.381	1244.5528	1260.496	1292.2085	1347.7494	1359.11	1369.3985	1379.0548	1392.7871	1415.0482	1451.0638	1481.0606	1495.7637	1507.7851	3015.9352	3045.56	3058.6741	3082.0962	3098.7443	3106.2123	3122.33	3123.6331	3139.1374	3212.5171	3803.2652
OC1C2CCC3CN3C12	O[C@H]1[C@H]2CC[C@H]3CN3[C@@H]12	
InChI=1S/C7H11NO/c9-7-5-2-1-4-3-8(4)6(5)7/h4-7,9H,1-3H2	InChI=1S/C7H11NO/c9-7-5-2-1-4-3-8(4)6(5)7/h4-7,9H,1-3H2/t4-,5-,6+,7-,8?/m0/s1
