14
gdb 72991	2.74315	1.57877	1.23348	2.8036	62.53	-0.2634	-0.0113	0.2521	985.9057	0.098706	-473.766819	-473.758528	-473.757583	-473.79947	30.655	
O	 0.1823865741	 1.4234142895	-0.0835827724	-0.444343
C	 0.0308168659	 0.0673723995	-0.0167940223	 0.292092
C	 0.6456705764	-0.8687513674	-1.0425089296	-0.159208
O	-0.4736504578	-1.802668057	-0.8910261777	-0.298304
C	-1.1489370095	-0.898234956	-0.0221493053	-0.065008
C	-0.2819914252	-0.7673265536	 1.2320230222	 0.196792
O	 0.5124299661	-1.8184160431	 1.6704089145	-0.463938
C	-0.8550864636	 0.0330450784	 2.2867494942	 0.240552
N	-1.2955070858	 0.7521065592	 3.0796540772	-0.334869
H	 0.0266376633	 1.8122860148	 0.7868079059	 0.313222
H	 0.6511050762	-0.4471110322	-2.0509558267	 0.142736
H	 1.6087316162	-1.3257111502	-0.800219169	 0.133135
H	-2.2304575609	-0.8447330031	-0.0531148712	 0.140234
H	 0.3185640446	-2.5600698687	 1.0791196604	 0.306908
114.3367	133.7565	210.9784	241.7494	247.387	296.7363	366.5668	402.4455	465.21	493.4496	554.1336	592.4503	694.3012	713.763	784.5211	902.7786	963.4147	1002.0904	1016.2427	1042.931	1057.776	1147.8639	1149.8572	1209.9017	1238.1655	1305.0029	1382.2936	1396.9067	1451.8023	1503.7072	2343.2046	3061.4621	3124.7164	3194.7929	3745.5275	3774.9033
OC12COC1C2(O)C#N	O[C@]12CO[C@H]1[C@]2(O)C#N	
InChI=1S/C5H5NO3/c6-1-4(7)3-5(4,8)2-9-3/h3,7-8H,2H2	InChI=1S/C5H5NO3/c6-1-4(7)3-5(4,8)2-9-3/h3,7-8H,2H2/t3-,4+,5+/m0/s1
