18
gdb 99231	3.88677	0.85163	0.8453	2.9436	70.22	-0.2512	0.0174	0.2686	1469.392	0.144974	-476.289597	-476.278999	-476.278055	-476.327385	35.223	
C	 0.3889053566	 1.184453669	 0.0551988426	-0.332247
N	 0.0159674831	-0.2110821221	 0.1930280568	-0.31695
C	 0.3187497424	-0.9416357508	 1.3011399266	 0.417383
O	 0.8827679395	-0.4990551425	 2.2811732911	-0.368041
C	-0.178030156	-2.3955702534	 1.2306407563	-0.191938
O	 0.4260158167	-3.1867803057	 2.2407839181	-0.218839
C	 1.733740493	-3.4826171616	 2.0298312053	 0.447237
C	 2.3172457354	-4.1849405595	 3.2270868964	-0.483056
O	 2.3165064107	-3.2063918428	 1.0131998942	-0.357335
H	 0.7603733339	 1.5185539887	 1.0243426386	 0.173013
H	 1.1801888671	 1.3188264256	-0.6911038128	 0.131527
H	-0.4741444268	 1.7939221565	-0.2318325845	 0.125803
H	-0.355719337	-0.6891209522	-0.6115715925	 0.247457
H	-1.2515030924	-2.4239122542	 1.4365453076	 0.138096
H	 0.0159859131	-2.8209740346	 0.2410422657	 0.12946
H	 2.4381478492	-3.4579210763	 4.0362182304	 0.166269
H	 1.6434712232	-4.9670274263	 3.5844995177	 0.145436
H	 3.288680078	-4.6036377378	 2.9669361525	 0.146724
27.1378	68.0799	71.939	82.7652	96.3977	145.1818	232.0467	292.8181	330.36	370.1463	439.6961	477.5117	595.5241	600.2098	658.821	729.5691	856.3198	901.3154	992.1529	1037.5379	1054.9093	1064.3063	1125.3827	1153.8208	1172.3175	1233.5423	1261.831	1304.3973	1389.7872	1400.8635	1440.2226	1461.1526	1470.0127	1475.188	1493.9543	1500.0451	1566.5207	1800.0951	1831.1229	3030.4618	3053.6908	3058.767	3085.3205	3110.8397	3126.8752	3156.5808	3169.5284	3639.3431
CNC(=O)COC(C)=O	CNC(=O)COC(=O)C	
InChI=1S/C5H9NO3/c1-4(7)9-3-5(8)6-2/h3H2,1-2H3,(H,6,8)	InChI=1S/C5H9NO3/c1-4(7)9-3-5(8)6-2/h3H2,1-2H3,(H,6,8)
