14
gdb 27312	3.28413	1.42281	0.99879	3.3742	66.2	-0.2515	-0.036	0.2155	1104.8876	0.101559	-473.892998	-473.885337	-473.884392	-473.925356	28.297	
C	-0.0296345073	 1.4962114352	-0.0056789203	-0.473998
C	-0.0070600756	-0.0008594166	-0.0221698379	 0.099321
C	-0.0399914922	-0.7253090858	-1.1444871981	-0.024472
O	-0.0188508434	-2.0979941025	-1.1467784065	-0.185469
C	 0.0375530737	-2.6835217673	 0.0575134493	 0.504482
O	 0.0518331184	-4.0029981515	-0.0997009012	-0.376303
N	 0.0740891768	-2.1236913082	 1.2054076315	-0.435204
C	 0.0551226989	-0.7193330453	 1.2751819317	 0.337638
O	 0.0877957862	-0.1329102711	 2.3355149547	-0.341799
H	 0.86042549	 1.882575615	 0.5004996602	 0.152029
H	-0.0747933843	 1.9133360875	-1.0150914629	 0.11735
H	-0.8899016453	 1.8555222583	 0.5675285979	 0.151991
H	-0.0856623137	-0.3423382848	-2.1554665063	 0.148549
H	 0.092745158	-4.3767341228	 0.7923761081	 0.325885
95.3556	147.6496	185.1762	271.9766	323.5345	382.8133	408.4903	475.7823	553.112	568.5281	597.9948	747.9894	757.0181	791.7542	802.7797	893.9676	956.9	1018.4223	1066.712	1120.3294	1180.6942	1256.9601	1313.8344	1385.7287	1416.0488	1463.7258	1466.6005	1483.8236	1649.6883	1728.0462	1790.9196	3042.8743	3104.6901	3123.5856	3227.7208	3778.2179
CC1=COC(O)=NC1=O	Cc1coc(O)nc1=O	
InChI=1S/C5H5NO3/c1-3-2-9-5(8)6-4(3)7/h2H,1H3,(H,6,7,8)	InChI=1S/C5H5NO3/c1-3-2-9-5(8)6-4(3)7/h2H,1H3,(H,6,7,8)
