18
gdb 110622	4.58387	0.98127	0.91436	2.7641	71.86	-0.2281	0.0607	0.2888	1288.5809	0.146713	-438.979271	-438.970939	-438.969995	-439.012111	32.437	
O	 0.035385528	 1.1952359584	 0.3838495835	-0.419997
C	-0.0352987831	-0.0561081962	-0.2717381454	-0.084398
C	-1.4471037922	-0.6012368726	-0.240833349	-0.028011
C	-1.6670259748	-2.0409463815	 0.0067679778	-0.140629
N	-1.812871741	-1.0448588245	 1.1282322809	-0.166422
C	-3.2779568271	-1.4347213368	 1.2163983628	-0.060217
C	-4.1129293286	-1.3377408777	-0.0458439607	-0.373633
C	-3.1474263916	-2.4753340263	 0.144393644	 0.381238
O	-3.5111093167	-3.8049936274	 0.1871605102	-0.451333
H	-0.3330609972	 1.0476436446	 1.2635432911	 0.292694
H	 0.2840893267	 0.1102839229	-1.3059051284	 0.109323
H	 0.6506717893	-0.7889084939	 0.1803681343	 0.092549
H	-2.1576729555	-0.0153306804	-0.8134362974	 0.096019
H	-0.8662820062	-2.7747512818	 0.0281050824	 0.104681
H	-3.7179235443	-1.4685236256	 2.2042458416	 0.11564
H	-5.1389497771	-1.6409957449	 0.1431854324	 0.123806
H	-4.0174259813	-0.562183343	-0.7976787765	 0.119258
H	-3.7678962873	-4.0788233633	-0.7007980937	 0.289432
81.2601	135.8989	224.5358	244.0388	278.404	336.0699	405.831	434.3302	456.6146	498.0142	556.7793	632.1624	733.2615	754.3557	823.7321	868.5916	899.3781	951.6402	980.3277	988.2372	1010.0763	1034.8392	1060.7665	1071.8106	1081.6717	1106.4895	1136.6469	1177.1111	1211.6665	1227.9758	1244.9996	1291.8927	1305.638	1368.0305	1402.1911	1428.7255	1451.2448	1498.5972	1508.9233	2986.8561	3074.9171	3125.9861	3153.399	3171.766	3202.3291	3209.5814	3785.1349	3786.6207
OCC1C2N1C1CC21O	OC[C@H]1[C@H]2N1[C@H]1C[C@@]21O	
InChI=1S/C6H9NO2/c8-2-3-5-6(9)1-4(6)7(3)5/h3-5,8-9H,1-2H2	InChI=1S/C6H9NO2/c8-2-3-5-6(9)1-4(6)7(3)5/h3-5,8-9H,1-2H2/t3-,4-,5+,6-,7?/m0/s1
