16
gdb 8472	3.02405	2.01211	1.54552	3.3974	66.37	-0.2337	-0.0076	0.2261	866.8526	0.128647	-383.732205	-383.724263	-383.723319	-383.76415	29.716	
C	 0.0071449276	 1.5198192347	 0.1099942169	-0.491357
C	-0.020714835	 0.0220945643	 0.0469587279	 0.288269
C	 1.1479074093	-0.8271455782	-0.3363060442	-0.391771
C	 0.5828530777	-0.9875387226	 1.0739586081	 0.242676
O	 1.3332994481	-0.7187741911	 2.193541333	-0.448644
C	-0.7034193575	-1.7599969139	 1.0248370082	 0.36045
O	-1.1879224649	-2.6050618213	 1.7226869227	-0.323111
C	-1.2883627481	-0.8398674807	-0.0857025406	-0.407747
H	 0.9707302777	 1.8745035596	 0.4882476214	 0.131845
H	-0.1487277262	 1.9606650064	-0.8812343189	 0.127115
H	-0.7767597645	 1.9017816456	 0.7725154909	 0.128048
H	 1.0561494553	-1.6165411696	-1.0782864184	 0.118
H	 2.1111190366	-0.3239806321	-0.3271961864	 0.122917
H	 2.0549301851	-1.3547878351	 2.2488511771	 0.297717
H	-2.199186147	-0.3529624674	 0.2767045903	 0.129766
H	-1.4812692843	-1.2892094087	-1.064295498	 0.115829
106.2807	172.0866	191.7743	222.4778	265.6057	336.8787	382.149	463.2584	516.6936	565.7451	613.2642	676.9879	717.0855	783.5469	864.852	960.8453	983.7247	991.3252	1010.8418	1066.2258	1083.8934	1122.4458	1140.1766	1200.7275	1242.449	1283.0719	1363.8167	1407.6843	1423.6794	1458.5013	1485.4715	1496.0592	1508.7262	1878.391	3029.0579	3051.2214	3090.2134	3104.7017	3105.9579	3108.1171	3194.5776	3798.9711
CC12CC1(O)C(=O)C2	C[C@@]12C[C@]1(O)C(=O)C2	
InChI=1S/C6H8O2/c1-5-2-4(7)6(5,8)3-5/h8H,2-3H2,1H3	InChI=1S/C6H8O2/c1-5-2-4(7)6(5,8)3-5/h8H,2-3H2,1H3/t5-,6+/m1/s1
