19
gdb 63093	2.71959	1.41884	1.25937	4.5677	75.42	-0.2594	0.0108	0.2702	1093.7837	0.159552	-423.069122	-423.060767	-423.059823	-423.101657	32.213	
C	-0.0586460729	 1.5411640081	 0.0426004655	-0.471502
C	 0.0241408791	 0.0270767746	-0.031406996	 0.314588
C	-1.1803969009	-0.6751647208	 0.5734321347	-0.453488
C	 0.6771905749	-0.6764796098	-1.1894704243	-0.118895
C	 1.6177919836	 0.1250438836	-2.0749792365	-0.112854
O	 2.6576868846	 0.6382594889	-1.225999359	-0.229677
C	 2.6051422681	 0.0870696687	 0.02952351	 0.443064
O	 3.475607508	 0.261023017	 0.8321214747	-0.345787
C	 1.3493027314	-0.7115307803	 0.1669889798	-0.241439
H	 0.8201668848	 2.0392987446	-0.3711804709	 0.144408
H	-0.9387403597	 1.8982624376	-0.5046113836	 0.117704
H	-0.1643494102	 1.8653372127	 1.0833952188	 0.12852
H	-2.1003013326	-0.3713200961	 0.0611963695	 0.122141
H	-1.096588902	-1.7633736965	 0.4962682412	 0.117907
H	-1.2894405425	-0.4200094258	 1.6330565124	 0.127624
H	 0.204919699	-1.5546081798	-1.6145224012	 0.099207
H	 2.0792718486	-0.5087269268	-2.8400675322	 0.122681
H	 1.1379102913	 0.9752000186	-2.5703224832	 0.122264
H	 1.3840857372	-1.5743562782	 0.8189547202	 0.113535
128.6726	191.0429	198.4926	218.4542	231.1831	272.5114	350.4192	413.0453	450.211	488.455	639.0381	660.9741	735.6109	782.9237	828.6637	862.7741	904.4634	973.0568	982.1817	990.0589	1002.9631	1051.6172	1055.2006	1072.312	1118.1975	1145.2484	1182.6653	1215.1016	1239.2515	1302.5894	1313.0984	1386.0586	1412.1128	1420.0986	1436.3686	1485.4105	1491.9166	1504.9834	1512.5916	1521.4146	1877.733	3027.8787	3034.3498	3040.9224	3081.2503	3090.1917	3093.576	3105.7738	3131.0331	3175.6933	3205.2024
CC1(C)C2COC(=O)C12	CC1(C)[C@H]2COC(=O)[C@@H]12	
InChI=1S/C7H10O2/c1-7(2)4-3-9-6(8)5(4)7/h4-5H,3H2,1-2H3	InChI=1S/C7H10O2/c1-7(2)4-3-9-6(8)5(4)7/h4-5H,3H2,1-2H3/t4-,5-/m0/s1
