15
gdb 127568	3.28515	1.45954	1.01697	1.6422	73.76	-0.2387	-0.0599	0.1789	1098.5733	0.114496	-450.161843	-450.154	-450.153056	-450.194391	29.086	
C	-0.4254329954	 1.368404256	-0.0207027617	-0.304628
N	 0.054510573	-0.0081562594	 0.0151176114	-0.052963
N	 0.3591127696	-0.5708704535	-1.1599224264	-0.143661
C	 0.7892602053	-1.7873827523	-1.2000716438	-0.12053
C	 0.9752101259	-2.6270426626	-0.0130278875	 0.404935
O	 1.3755229634	-3.7715706506	-0.004550576	-0.362328
N	 0.6322901767	-1.9526219199	 1.1569111064	-0.442771
C	 0.1643766836	-0.645806805	 1.2535260356	 0.499636
N	-0.1558666565	-0.0098837707	 2.3112953506	-0.562183
H	 0.2345850681	 2.0148233479	 0.5626001486	 0.153235
H	-0.4357483009	 1.6713368129	-1.0660419366	 0.148765
H	-1.4275820347	 1.4313599227	 0.4099350327	 0.153231
H	 1.0245200352	-2.2057716719	-2.1704585737	 0.147931
H	 0.7380500674	-2.477708637	 2.0141334173	 0.263787
H	-0.0333386308	-0.5769572466	 3.1468160631	 0.217542
111.4355	116.8561	154.2125	230.9669	343.4934	377.6902	428.5767	488.5036	521.3547	614.9496	623.0515	713.1201	738.7223	759.0262	772.4076	798.8056	880.9922	976.8054	1032.1913	1105.507	1156.3841	1232.6937	1257.127	1292.5779	1390.1095	1392.5254	1435.719	1459.0207	1471.9784	1511.2301	1625.9362	1726.7527	1805.4555	3060.7659	3124.8786	3179.4127	3219.9176	3519.5724	3607.3561
CN1N=CC(=O)NC1=N	CN1N=CC(=O)N[C]1[NH]	
InChI=1S/C4H6N4O/c1-8-4(5)7-3(9)2-6-8/h2H,1H3,(H2,5,7,9)	InChI=1S/C4H6N4O/c1-8-4(5)7-3(9)2-6-8/h2H,1H3,(H2,5,7,9)
