19
gdb 89324	1.96656	1.72667	1.18874	1.9413	84.17	-0.2239	0.0423	0.2662	1128.2536	0.156755	-385.83221	-385.822907	-385.821963	-385.865744	35.67	
C	 0.0270558467	 1.5520108922	 0.0432837255	-0.492853
C	-0.0290505264	 0.0534864024	 0.0510381849	 0.292762
C	 1.1301501873	-0.8174213637	-0.3224755563	-0.374035
C	 0.5684408743	-0.9426162304	 1.08307305	 0.165251
C	 1.3428612487	-0.698767421	 2.2492159238	 0.19458
C	 2.0020003448	-0.4780859255	 3.2322943184	-0.428795
C	-0.7078362242	-1.7973384307	 1.0140861812	 0.056421
O	-1.3587557429	-1.8093242755	 2.2619362954	-0.4244
C	-1.3119047473	-0.7864866131	-0.0179403366	-0.318479
H	 1.0149126824	 1.9076992314	 0.3525598885	 0.128563
H	-0.1734161825	 1.949241849	-0.959310393	 0.120364
H	-0.7135088458	 1.9792383314	 0.7277674846	 0.12469
H	 1.0087790828	-1.6435582145	-1.0210901626	 0.10547
H	 2.0955172003	-0.3252487525	-0.3749611449	 0.125462
H	 2.5746293394	-0.2893202294	 4.1057420488	 0.18154
H	-0.5472446387	-2.8202846401	 0.6407577816	 0.063388
H	-2.1860550854	-2.2910567664	 2.1608443667	 0.284374
H	-2.167514936	-0.2795287815	 0.4350089993	 0.105948
H	-1.5911704075	-1.168687032	-1.0060742753	 0.089747
105.8495	120.957	143.8538	188.5711	252.1077	306.0179	327.4885	346.3514	427.1631	450.5859	536.1474	547.1986	560.7211	576.5734	648.7798	680.9616	762.1263	816.8213	864.7371	917.132	956.4931	978.4941	1025.2293	1061.4524	1073.4797	1102.5542	1155.314	1180.0515	1198.8406	1236.2204	1265.9035	1277.6585	1340.5177	1386.0497	1420.5146	1426.7169	1470.5742	1483.4941	1494.9819	1505.5177	2230.1068	2976.264	3023.2974	3038.0729	3084.5735	3098.5906	3104.0325	3107.1482	3203.4856	3505.2395	3816.4515
CC12CC1(C#C)C(O)C2	C[C@@]12C[C@]1(C#C)[C@@H](O)C2	
InChI=1S/C8H10O/c1-3-8-5-7(8,2)4-6(8)9/h1,6,9H,4-5H2,2H3	InChI=1S/C8H10O/c1-3-8-5-7(8,2)4-6(8)9/h1,6,9H,4-5H2,2H3/t6-,7+,8+/m0/s1
