15
gdb 6629	7.58004	0.76263	0.69914	2.7256	67.33	-0.2523	0.0345	0.2867	1557.6882	0.116739	-399.817952	-399.808441	-399.807497	-399.854937	31.35	
C	-0.0532447615	 1.4447392744	-0.0192407579	-0.498754
C	-0.0476398258	-0.0094696938	 0.0297942919	 0.131663
C	-0.0474783508	-1.2119010981	 0.0688159266	 0.010444
C	-0.0027617819	-2.6626282865	 0.1238715973	-0.222258
O	-1.33127593	-3.1788246898	-0.093886518	-0.256506
C	-1.4149293391	-4.5318421864	-0.0326596568	 0.510416
N	-2.6934981826	-4.9290709726	-0.3030374403	-0.564102
O	-0.4843464139	-5.2687031937	 0.1978421272	-0.395095
H	 0.6156633324	 1.820062682	-0.8012716565	 0.15133
H	-1.0584233433	 1.8242643862	-0.2329017569	 0.153528
H	 0.269160915	 1.8779654754	 0.9337809327	 0.150837
H	 0.6695187527	-3.0711422022	-0.6387886524	 0.146581
H	 0.3649814151	-3.0161383895	 1.0932889387	 0.146744
H	-3.4314654958	-4.2466704597	-0.2680703034	 0.266361
H	-2.9182125104	-5.8835419857	-0.0817859222	 0.268813
17.0896	24.0759	82.1457	147.6341	199.2929	228.0922	308.1805	334.8446	377.8548	422.5859	503.6534	551.2119	643.7413	783.11	799.4796	942.4648	1011.1331	1051.6751	1056.5874	1071.3498	1116.1966	1183.1757	1250.1551	1339.6792	1414.5024	1421.8587	1475.8463	1478.7156	1494.6402	1611.6967	1831.6102	2381.9993	3028.9998	3040.389	3073.0126	3090.8536	3091.574	3615.4962	3745.8063
CC#CCOC(N)=O	CC#CCOC(=O)N	
InChI=1S/C5H7NO2/c1-2-3-4-8-5(6)7/h4H2,1H3,(H2,6,7)	InChI=1S/C5H7NO2/c1-2-3-4-8-5(6)7/h4H2,1H3,(H2,6,7)
