15
gdb 27626	2.9472	1.29998	0.90871	7.6763	76.78	-0.2145	-0.0075	0.207	1213.9866	0.114432	-413.056769	-413.048276	-413.047332	-413.089783	31.022	
C	-0.023952027	 1.5061089641	 0.0927482406	-0.517987
C	 0.0316805452	 0.0240300833	-0.0185168252	 0.239694
C	 0.0470689398	-0.8219818865	-1.1028871313	 0.111128
N	 0.0850891277	-2.1553788777	-0.7091154141	-0.369381
C	 0.1063512699	-2.1140309818	 0.5964886562	 0.386624
N	 0.2334423733	-3.2018631841	 1.4485900529	-0.601628
N	 0.071339858	-0.8261640838	 1.0706049396	-0.338242
C	 0.0140214216	-0.4221006058	-2.4631137398	 0.209504
N	-0.0147588507	-0.0592147656	-3.5631962207	-0.358741
H	 0.847138471	 1.9097871094	 0.6226826261	 0.138451
H	-0.0419677908	 1.9449556163	-0.9069241937	 0.169354
H	-0.921440445	 1.8421680143	 0.6257447836	 0.138691
H	 0.1942000976	-4.0627287313	 0.9173665691	 0.270251
H	-0.4456160577	-3.2226810998	 2.1998642669	 0.253301
H	 0.158919377	-0.5453074309	 2.0334299	 0.268979
138.3923	139.6299	148.9339	199.386	248.8237	268.6038	337.2831	415.7973	491.5844	529.1756	545.4463	595.9655	646.0713	681.0695	724.4356	781.3139	814.5836	1000.4915	1034.1611	1063.0393	1127.7933	1168.75	1251.6915	1302.676	1409.949	1420.9314	1480.2737	1483.0342	1493.8157	1605.417	1623.6545	1664.2289	2341.5674	3024.3014	3072.8707	3133.7198	3533.7809	3630.5152	3656.857
CC1=C(N=C(N)N1)C#N	Cc1c(nc(N)[nH]1)C#N	
InChI=1S/C5H6N4/c1-3-4(2-6)9-5(7)8-3/h1H3,(H3,7,8,9)	InChI=1S/C5H6N4/c1-3-4(2-6)9-5(7)8-3/h1H3,(H3,7,8,9)
