19
gdb 58728	3.58955	1.36117	1.1949	1.412	77.74	-0.2223	0.0662	0.2885	1087.7942	0.157973	-385.774702	-385.766616	-385.765672	-385.807327	31.987	
C	 0.0375129943	 1.5438071041	 0.1474726941	-0.40234
C	-0.0406594282	 0.0246391859	-0.0201010433	-0.043145
O	 0.709620405	-0.6549815498	 0.9855014294	-0.424616
C	-1.4542312546	-0.4814235311	-0.0333310838	 0.406126
C	-2.7162767647	-0.1138436377	-0.8822436037	-0.185884
C	-3.6132023099	-0.4904116495	 0.287287815	-0.084724
C	-3.2232947237	-1.5414415873	-0.7413402944	-0.086548
C	-1.9668245161	-1.9055072009	 0.1056298261	-0.156258
C	-2.3613692601	-0.8552437647	 1.1391519189	-0.166251
H	 1.0815504126	 1.8682568826	 0.164246278	 0.121381
H	-0.4745915594	 2.0577115055	-0.6724355079	 0.119458
H	-0.4408460942	 1.852598035	 1.0846487669	 0.10889
H	 0.4513061961	-0.2531432308	-0.9618553809	 0.09115
H	 0.364787836	-0.3669354062	 1.8384955496	 0.279283
H	-2.8794768049	 0.6058061048	-1.6736786315	 0.083932
H	-4.5918609952	-0.11273258	 0.5513720713	 0.085554
H	-3.8499136292	-2.117909416	-1.4085244277	 0.085957
H	-1.4015375539	-2.8175287328	 0.2394547608	 0.091896
H	-2.1727346599	-0.8409719913	 2.2052003228	 0.076139
68.3252	144.5338	172.0709	253.0853	307.9379	327.2671	419.5532	474.8538	612.3333	667.1009	747.6176	753.1322	792.8832	796.7666	842.373	847.3302	895.7515	899.3309	901.451	949.7751	957.6591	975.8323	1005.9217	1019.9028	1032.3067	1059.425	1080.8622	1089.6807	1129.0613	1166.823	1197.8813	1243.8706	1258.772	1297.1275	1322.1499	1350.8184	1399.5432	1413.4425	1426.2321	1491.0515	1494.8688	3019.0506	3029.2174	3098.2403	3118.5891	3183.3096	3192.0705	3197.4738	3208.9426	3214.5055	3794.0828
CC(O)C12C3C4C3C1C24	C[C@@H](O)[C@@]12[C@@H]3[C@H]4[C@@H]3[C@@H]1[C@@H]24	
InChI=1S/C8H10O/c1-2(9)8-5-3-4(5)7(8)6(3)8/h2-7,9H,1H3	InChI=1S/C8H10O/c1-2(9)8-5-3-4(5)7(8)6(3)8/h2-7,9H,1H3/t2-,3-,4+,5-,6+,7-,8+/m1/s1
