15
gdb 9131	4.02424	0.87571	0.76015	2.6605	70.4	-0.2741	0.0078	0.282	1448.8099	0.11709	-362.638491	-362.629234	-362.62829	-362.674095	31.131	
C	-0.1587167019	 1.4518926581	 0.0517751422	-0.381364
C	 0.0386185965	-0.0846239933	 0.0253984649	-0.301509
C	 0.6888800611	-0.5000019633	-1.2305801128	 0.288423
N	 1.1867118992	-0.8115681747	-2.2251504874	-0.31926
C	 0.7900444682	-0.5629831064	 1.187211994	 0.081962
C	 1.3967337596	-0.9255078386	 2.1613356783	 0.069299
C	 2.1396394015	-1.429156097	 3.3184183164	-0.196517
O	 1.710713734	-2.7102085205	 3.750608914	-0.397465
H	 0.8073724774	 1.9598525552	 0.0317193355	 0.150098
H	-0.7448698159	 1.7710399841	-0.8130599398	 0.141294
H	-0.6849431077	 1.7316645315	 0.9666493935	 0.14061
H	-0.9540714458	-0.5555849269	 0.033542822	 0.159934
H	 3.2161543609	-1.4178527723	 3.0860259661	 0.1271
H	 1.9944193676	-0.7606827273	 4.17405205	 0.145618
H	 1.7778590853	-3.3088197287	 2.9991269431	 0.291776
20.4344	82.6041	105.0199	189.6957	207.8554	227.2168	262.1179	337.1442	384.0318	481.9213	494.7218	570.8239	602.0133	747.2017	852.0433	979.6113	991.6783	1050.6146	1072.7797	1091.0021	1178.6184	1216.7589	1295.1973	1326.5705	1364.6018	1407.6188	1417.4138	1488.4276	1489.1522	1496.9056	2361.8217	2370.3605	2984.0067	3018.7182	3058.5353	3067.439	3141.565	3147.1444	3815.1327
CC(C#N)C#CCO	C[C@@H](C#N)C#CCO	
InChI=1S/C6H7NO/c1-6(5-7)3-2-4-8/h6,8H,4H2,1H3	InChI=1S/C6H7NO/c1-6(5-7)3-2-4-8/h6,8H,4H2,1H3/t6-/m1/s1
