17
gdb 132504	3.07736	1.29823	0.91909	1.4218	81.4	-0.1981	0.0047	0.2028	1229.4955	0.136241	-426.048993	-426.040571	-426.039627	-426.082305	32.064	
C	 0.0033514556	 1.5315840835	 0.02164973	-0.492376
C	 0.0048699997	 0.0229087828	-0.0048187223	 0.306815
C	-0.0806115627	-0.6898318639	-1.2005086183	-0.191148
C	-0.089683082	-2.0829057648	-1.2231419277	-0.181798
C	-0.0113792107	-2.8223358048	-0.0410735615	 0.169585
N	-0.0757152757	-4.2155829431	-0.0011723184	-0.596807
C	 0.0801850061	-2.0910617342	 1.1491564659	 0.262496
F	 0.1755703403	-2.7916767095	 2.2982705342	-0.099509
C	 0.0887586898	-0.7123614684	 1.18449179	-0.329479
H	 0.8714749722	 1.9273783043	 0.5608670206	 0.126759
H	 0.0243310876	 1.9432127729	-0.9909980518	 0.121177
H	-0.8898469226	 1.9263647326	 0.5205050404	 0.129344
H	-0.1420481083	-0.148520504	-2.1395662852	 0.087467
H	-0.1612814344	-2.6101135104	-2.1698109007	 0.08752
H	 0.2909795038	-4.6745699723	-0.8222309269	 0.247568
H	 0.2980459843	-4.6117930679	 0.8492181342	 0.253055
H	 0.1660957269	-0.2203582329	 2.1485336774	 0.09933
44.9673	143.6362	228.2482	287.9552	294.8642	306.5878	351.157	444.3926	452.5507	503.4215	574.1705	595.1501	638.7034	724.9294	733.5393	803.4309	827.9838	883.4283	920.2536	949.4947	1018.7472	1060.9502	1089.2719	1161.275	1176.3894	1257.9066	1301.6446	1327.5429	1371.2097	1414.2148	1460.2526	1484.6449	1502.055	1555.6467	1625.0335	1639.3506	1675.7114	3025.5573	3075.9881	3111.0786	3164.1018	3181.2274	3185.6877	3563.5204	3664.9566
CC1=CC=C(N)C(F)=C1	Cc1ccc(N)c(F)c1	
InChI=1S/C7H8FN/c1-5-2-3-7(9)6(8)4-5/h2-4H,9H2,1H3	InChI=1S/C7H8FN/c1-5-2-3-7(9)6(8)4-5/h2-4H,9H2,1H3
