18
gdb 32801	3.22721	1.05019	0.83074	1.5896	75.28	-0.1937	0.0446	0.2383	1389.4597	0.149004	-435.294538	-435.285582	-435.284637	-435.328899	32.909	
C	-0.134246936	 1.5162472985	-0.1233359954	-0.39294
C	-0.2992751207	 0.0251299661	-0.3964465379	-0.107866
N	-1.359394964	-0.546388154	 0.4526757822	-0.420094
C	-1.5759631224	-1.931764705	 0.2806277965	 0.136875
C	-2.7549037365	-2.4620700342	-0.1699138263	 0.350778
O	-3.9203076311	-1.8862140862	-0.5263622807	-0.438332
N	-2.5829935059	-3.8184331294	-0.211284751	-0.308943
C	-1.2961958919	-4.0592517385	 0.2206199823	-0.008323
N	-0.6700950143	-2.9509950709	 0.5204013893	-0.293547
H	 0.6321556482	 1.9469113466	-0.7744482377	 0.116916
H	-1.0744745121	 2.0506348848	-0.290900172	 0.117702
H	 0.1744265187	 1.6954962163	 0.9133968395	 0.113035
H	-0.5928491637	-0.1384747448	-1.4397877701	 0.101627
H	 0.6590334621	-0.4960358006	-0.2525532651	 0.107517
H	-1.1444948301	-0.3405141433	 1.4250674694	 0.224041
H	-3.7831935455	-0.9385243583	-0.3812678389	 0.304875
H	-3.2746249496	-4.4917502155	-0.4946518837	 0.270988
H	-0.8984126353	-5.0602563316	 0.2870369998	 0.12569
59.4198	74.4082	120.6475	233.5335	258.0709	287.3612	331.5498	373.6228	471.8496	480.9908	517.7863	670.9279	676.2495	709.3316	756.485	764.3757	807.5383	848.8706	922.187	956.4354	1065.1168	1084.678	1128.9148	1144.6212	1168.477	1208.3013	1287.7246	1297.7865	1325.7594	1375.4408	1407.7925	1417.761	1463.5447	1493.2391	1498.6224	1508.3421	1522.8021	1559.1231	1682.1973	2994.4719	3030.7906	3053.2503	3097.983	3114.9893	3253.2322	3482.5781	3669.112	3747.1134
CCNC1=C(O)NC=N1	CCNc1c(O)[nH]cn1	
InChI=1S/C5H9N3O/c1-2-6-4-5(9)8-3-7-4/h3,6,9H,2H2,1H3,(H,7,8)	InChI=1S/C5H9N3O/c1-2-6-4-5(9)8-3-7-4/h3,6,9H,2H2,1H3,(H,7,8)
