20
gdb 75172	4.22003	0.87023	0.80942	4.3676	85.46	-0.2407	0.0203	0.261	1463.0132	0.171454	-366.055673	-366.046635	-366.04569	-366.089909	33.494	
C	-0.118895691	 1.5166167296	 0.0648998614	-0.494298
C	-0.0070618399	 0.026912285	-0.0088345205	 0.342014
C	-0.0458984648	-0.7410986703	-1.0999093864	-0.161159
C	 0.0475369938	-2.2126144251	-0.7819731653	-0.267776
C	 0.5081979379	-2.2263891263	 0.702475473	 0.006948
C	 2.0375935318	-2.4280573086	 0.8158999188	-0.345141
C	 2.4826354111	-3.7314736217	 0.327408216	 0.260563
N	 2.8169115251	-4.7679422554	-0.0600219177	-0.312141
C	 0.1230747948	-0.8226314443	 1.2405241978	-0.324601
H	 0.7624004584	 1.9591556002	 0.5467606594	 0.124583
H	-0.2241833321	 1.9632613962	-0.9273631464	 0.126271
H	-0.9848702519	 1.8198380315	 0.6675278077	 0.126973
H	-0.1679648197	-0.36955563	-2.111964262	 0.088717
H	-0.9279478887	-2.7042828362	-0.8981778271	 0.111562
H	 0.7380346031	-2.7588646959	-1.4351596189	 0.120355
H	 0.0192952336	-3.024098591	 1.2667755785	 0.090399
H	 2.5536739969	-1.6455664073	 0.2463220507	 0.153869
H	 2.355178008	-2.3258391917	 1.8596794726	 0.147449
H	 0.8642551492	-0.4268480768	 1.9475725865	 0.096734
H	-0.8297178655	-0.8511264319	 1.7874005919	 0.108677
56.32	91.0228	146.2964	179.923	232.7579	294.4178	350.5764	364.3458	405.3447	445.7406	528.3242	617.7727	728.1544	800.4533	838.6306	872.3645	898.972	922.344	942.284	971.6665	995.6052	1034.1685	1035.2433	1068.5892	1095.3879	1172.2923	1176.212	1199.5744	1245.6939	1267.8543	1291.9646	1317.3779	1330.7917	1364.6572	1372.2349	1415.177	1466.2117	1479.0272	1485.7846	1489.9828	1496.9965	1724.648	2359.0601	3006.8075	3014.01	3016.6601	3034.6405	3039.4933	3054.9292	3060.7062	3072.494	3088.0822	3111.6654	3187.7234
CC1=CCC(CC#N)C1	CC1=CC[C@@H](CC#N)C1	
InChI=1S/C8H11N/c1-7-2-3-8(6-7)4-5-9/h2,8H,3-4,6H2,1H3	InChI=1S/C8H11N/c1-7-2-3-8(6-7)4-5-9/h2,8H,3-4,6H2,1H3/t8-/m0/s1
