13
gdb 44196	5.78315	1.04523	0.96355	1.3778	62.69	-0.2711	-0.0283	0.2427	1131.8827	0.090133	-452.735611	-452.728451	-452.727507	-452.767716	26.132	
O	 0.1676185595	 0.2339530552	-0.8264664028	-0.298679
C	 0.1083854124	 1.2543463462	-0.2330446096	 0.488247
O	-0.9933780051	 1.7849159007	 0.437661113	-0.258091
C	-0.2844397263	 2.9974782481	 0.7832832036	 0.103133
C	 0.4352451324	 2.9036817211	 2.1637584173	-0.143323
N	 1.580215065	 2.2028537038	 1.5058250529	-0.324331
C	 1.008614671	 2.4440815802	 0.1524448472	-0.205341
C	 0.76921177	 4.2104049341	 2.719896807	 0.272058
N	 1.0578990571	 5.2501390578	 3.1349796434	-0.305543
H	-0.831518909	 3.8969123413	 0.5145686268	 0.135714
H	-0.0814512436	 2.2950580963	 2.9117596381	 0.152588
H	 2.4786320353	 2.6428673104	 1.663810577	 0.255775
H	 1.6338829013	 2.9165235247	-0.602590134	 0.127792
81.2289	134.4955	182.4904	280.4892	356.3408	448.5417	473.6097	558.6257	660.649	718.4637	785.6838	818.7983	870.2295	920.7611	938.6576	971.6423	1002.4312	1051.7702	1053.9709	1087.638	1189.0208	1197.4945	1229.5728	1262.5212	1288.9121	1338.3648	1395.8509	1963.8085	2353.0666	3074.9423	3143.0081	3163.7694	3567.1802
O=C1OC2C(NC12)C#N	O=C1O[C@H]2[C@@H](N[C@@H]12)C#N	
InChI=1S/C5H4N2O2/c6-1-2-4-3(7-2)5(8)9-4/h2-4,7H	InChI=1S/C5H4N2O2/c6-1-2-4-3(7-2)5(8)9-4/h2-4,7H/t2-,3+,4-/m0/s1
