16
gdb 18892	4.4705	2.39785	2.04566	1.1402	65.77	-0.2297	0.0874	0.3172	711.5714	0.131611	-346.550837	-346.544938	-346.543993	-346.580387	24.667	
C	-0.0750519296	 1.4363465697	 0.0237888663	-0.49248
C	 0.0028642359	-0.0593925227	 0.0154997005	 0.445034
O	-1.1544887993	-0.7103710557	-0.4477599892	-0.265358
C	-0.7858332316	-2.0531562121	-0.3398992498	 0.06299
C	 0.6948490289	-2.261100742	-0.5933310925	-0.130137
C	 0.1448013583	-2.2976945056	 0.8322787212	-0.130136
C	 0.7026164159	-0.8844554275	 1.0844451754	-0.166443
C	 1.253210983	-0.8478954129	-0.3421954206	-0.166451
H	 0.8608130967	 1.8625319451	 0.3951109104	 0.123827
H	-0.2513590906	 1.821284645	-0.9853083321	 0.131117
H	-0.8889211089	 1.7789622809	 0.6701420238	 0.1311
H	-1.5450177646	-2.7578116209	-0.6508940602	 0.104936
H	 1.1210795989	-3.0404979728	-1.2090982148	 0.089602
H	 0.0607258868	-3.1110476439	 1.5391655719	 0.089602
H	 1.1043039178	-0.4883760306	 2.0069724771	 0.086397
H	 2.1634127624	-0.418064864	-0.7372475375	 0.086397
196.2003	250.2537	300.5878	574.0639	586.8726	617.5659	713.6349	752.7128	764.19	768.4383	804.6772	833.9896	857.0198	905.3499	917.3776	919.1374	964.419	994.2157	1017.5888	1029.6261	1046.3304	1078.9385	1110.8922	1118.9923	1175.5096	1195.601	1197.0333	1259.1352	1320.8698	1367.8839	1397.3584	1429.2502	1479.6058	1500.8376	3041.4237	3107.756	3120.7259	3198.3782	3207.3917	3209.6268	3214.0751	3224.8012
CC12OC3C4C3C1C24	C[C@]12O[C@H]3[C@@H]4[C@H]3[C@H]1[C@H]24	
InChI=1S/C7H8O/c1-7-4-2-3(5(4)7)6(2)8-7/h2-6H,1H3	InChI=1S/C7H8O/c1-7-4-2-3(5(4)7)6(2)8-7/h2-6H,1H3/t2-,3+,4-,5+,6+,7-
