18
gdb 38803	3.22319	1.93683	1.67757	2.0456	73.71	-0.2437	0.018	0.2617	861.5479	0.152906	-401.954804	-401.948906	-401.947961	-401.984696	25.602	
C	-0.0438454347	 1.5759196527	 0.0493749644	-0.239834
C	 1.5045537641	 1.4317978255	 0.0016011457	-0.043513
C	 1.7789482587	 0.7880891959	 1.3743847151	-0.246557
C	 0.7287754125	-0.3618132606	 1.3044598467	 0.11799
O	 1.3733676592	-1.6457902118	 1.1475975962	-0.239695
C	 2.1334312365	-1.7369424124	 0.0302698705	 0.111385
N	 2.192377458	-0.9233314757	-0.9405898558	-0.288861
C	 1.2463713779	 0.172861694	-0.8998839933	 0.050699
C	-0.0095472873	 0.0298220862	 0.0125995889	-0.076836
H	-0.4782782075	 2.0688268969	 0.9238740026	 0.093452
H	-0.4670055299	 1.9965883515	-0.8656492851	 0.105987
H	 2.1538014678	 2.2474053662	-0.3151923979	 0.069224
H	 2.7907392353	 0.3920453611	 1.4834699062	 0.11913
H	 1.5905470986	 1.4792138216	 2.2007362165	 0.101617
H	 0.1040231915	-0.4663345841	 2.1910891794	 0.088282
H	 2.7362788203	-2.642895938	 0.0498055325	 0.123775
H	 0.9876856273	 0.4661359158	-1.9193373199	 0.082628
H	-0.8659291683	-0.5819420348	-0.2677267527	 0.071127
251.1646	312.5313	372.6381	453.8528	499.3336	571.1357	582.4128	719.976	795.2021	815.0941	834.1585	854.5105	877.6008	933.7002	952.2523	958.291	966.6727	975.5792	998.0763	1025.7086	1060.5679	1087.2493	1098.485	1123.8763	1163.2078	1180.684	1198.9237	1214.9237	1234.1851	1261.7292	1284.2662	1323.4371	1330.6165	1352.7634	1380.575	1407.4922	1488.1473	1508.2581	1702.223	3055.2942	3063.5673	3088.8061	3111.3302	3115.9224	3119.0371	3122.437	3129.596	3160.5473
C1C2CC3OC=NC2C13	C1[C@H]2C[C@@H]3OC=N[C@H]2[C@H]13	
InChI=1S/C7H9NO/c1-4-2-6-5(1)7(4)8-3-9-6/h3-7H,1-2H2	InChI=1S/C7H9NO/c1-4-2-6-5(1)7(4)8-3-9-6/h3-7H,1-2H2/t4-,5+,6-,7+/m0/s1
