20
gdb 6568	2.91858	1.97379	1.48641	1.2576	75.58	-0.2529	0.0822	0.3351	942.5769	0.176089	-348.96759	-348.959196	-348.958252	-348.999587	32.816	
C	-0.1389762163	 1.5743514754	 0.074066864	-0.447879
C	 0.0408934306	 0.0647877277	 0.0301598866	-0.008393
C	 0.8703421407	-0.6503047358	-1.0995276949	 0.3262
C	 0.5810544224	-0.655439719	-2.5754113251	-0.510029
C	 2.1726535999	-0.1484141545	-0.3974319969	-0.338526
C	 1.2251192556	-0.6414141468	 0.7385457199	 0.389132
O	 1.4179887651	-0.5828533919	 2.1075615711	-0.473767
C	 0.9277223863	-1.8874839227	-0.1497754585	-0.324668
H	 0.7817671593	 2.1308418793	-0.1177197576	 0.116267
H	-0.8795766743	 1.894018989	-0.6676387494	 0.113119
H	-0.5082479631	 1.8809942282	 1.0584339101	 0.126505
H	-0.9209880435	-0.4270721176	 0.2215534086	 0.059044
H	 0.592175468	 0.3608529002	-2.9846263364	 0.119433
H	 1.326880248	-1.2426857512	-3.1222822354	 0.118049
H	-0.4037373899	-1.088464682	-2.7828562191	 0.118218
H	 3.0704536688	-0.7489574456	-0.5759219607	 0.079221
H	 2.4011756548	 0.9170282031	-0.4477578362	 0.092211
H	 2.2182582034	-1.0728238746	 2.3247740012	 0.28062
H	-0.0157604046	-2.4091510044	 0.0351542429	 0.087394
H	 1.7540855988	-2.5857923568	-0.3153207944	 0.07785
157.0521	181.5527	203.3478	223.7877	233.7435	269.4711	348.0682	417.8335	457.7942	548.3452	590.8885	595.4977	656.9395	734.2424	778.1864	812.8451	943.817	960.9241	995.5658	998.3677	1033.7789	1077.3913	1103.1217	1112.714	1121.0181	1138.7996	1150.4712	1164.0385	1192.6807	1209.538	1290.6035	1336.1341	1367.0922	1407.3712	1411.8456	1430.2137	1487.2724	1490.19	1491.8532	1495.3658	1510.9314	1553.1386	3023.8143	3025.2019	3035.3263	3039.3992	3053.2141	3090.9447	3092.035	3092.7979	3106.439	3113.1851	3128.4678	3809.348
CC1C2(C)CC1(O)C2	C[C@H]1[C@@]2(C)C[C@]1(O)C2	
InChI=1S/C7H12O/c1-5-6(2)3-7(5,8)4-6/h5,8H,3-4H2,1-2H3	InChI=1S/C7H12O/c1-5-6(2)3-7(5,8)4-6/h5,8H,3-4H2,1-2H3/t5-,6-,7-/m0/s1
