18
gdb 88302	2.38467	1.24357	1.08894	3.0546	78.48	-0.2434	0.002	0.2454	1213.5701	0.144969	-401.916669	-401.90704	-401.906095	-401.951764	34.636	
C	 0.7429822471	 1.3336044454	 0.6022967477	-0.405622
C	 0.535881512	 0.1480668964	-0.3098995846	 0.014135
C	 1.6948273129	-0.4620961207	-1.0575304426	-0.264143
N	 1.0589069709	-1.1514292493	 0.0472086147	-0.08034
C	 1.5842903387	-1.5331319011	 1.2646707563	 0.373596
O	 1.0480744572	-1.2951999128	 2.32263951	-0.343238
C	 2.8664172285	-2.3834760262	 1.1636485349	-0.414892
C	 4.0537668055	-1.5405996421	 1.0868743933	 0.306648
C	 5.0176159359	-0.8242279545	 1.0277451314	-0.465574
H	 1.7670562464	 1.3631791491	 0.9848544309	 0.131848
H	 0.5494783694	 2.2625694522	 0.0566358244	 0.120029
H	 0.0676330302	 1.2847765187	 1.460285132	 0.150604
H	-0.4376588901	 0.1036451791	-0.7960432949	 0.103409
H	 1.541304906	-0.8991988158	-2.0411064783	 0.123955
H	 2.6808576596	-0.0385391381	-0.886837113	 0.144271
H	 2.9041463544	-3.0108546141	 2.0587638567	 0.157421
H	 2.8094750026	-3.0371197964	 0.2861603581	 0.144709
H	 5.8803505028	-0.2064509399	 0.9863182031	 0.203183
50.1735	65.8625	142.1677	151.7798	191.2823	230.5663	329.5991	369.4027	377.8285	419.2033	432.8375	616.9394	621.7377	636.8165	655.073	767.7978	829.4763	911.6781	918.5598	960.4995	969.8344	1043.7875	1064.7099	1117.8116	1132.1556	1160.4224	1165.6229	1194.3505	1232.8563	1297.6647	1385.1733	1412.6749	1440.8513	1457.0012	1485.5273	1492.6799	1514.5117	1791.7662	2234.171	3044.1994	3045.4863	3099.4722	3106.7101	3109.6255	3120.4653	3130.717	3199.5402	3504.9349
CC1CN1C(=O)CC#C	C[C@H]1CN1C(=O)CC#C	
InChI=1S/C7H9NO/c1-3-4-7(9)8-5-6(8)2/h1,6H,4-5H2,2H3	InChI=1S/C7H9NO/c1-3-4-7(9)8-5-6(8)2/h1,6H,4-5H2,2H3/t6-,8?/m0/s1
