19
gdb 82252	2.52863	1.89715	1.41216	1.9525	72.87	-0.2507	0.0678	0.3185	969.0109	0.161264	-423.001613	-422.994217	-422.993273	-423.033427	29.752	
O	 0.0957647048	 1.4320489293	 0.0633314332	-0.435363
C	 0.0422201192	 0.0205604288	-0.0254408145	 0.105103
C	 0.7558570534	-0.6730439439	 1.1269667914	-0.003839
O	 0.0629051055	-0.4598833228	 2.3705809989	-0.269353
C	-0.0966067029	-1.7238852972	 1.6982168472	 0.028887
C	-1.3928035282	-1.8379069165	 0.9186974388	-0.054077
C	-2.6705220872	-1.2947955564	 1.6243276099	-0.222155
C	-2.495391175	 0.0563467135	 0.8727633233	-0.224661
C	-1.3893183714	-0.5877293615	-0.0171182125	-0.042347
H	-0.176416238	 1.6642341099	 0.9586966579	 0.2909
H	 0.5482434657	-0.228474653	-0.9654062815	 0.086219
H	 1.841261739	-0.6695742857	 1.1932849994	 0.098856
H	 0.3109873353	-2.5747958896	 2.2392527212	 0.094606
H	-1.4710408244	-2.8248191297	 0.4546472679	 0.069128
H	-3.5711192753	-1.8357527378	 1.3247026326	 0.100278
H	-2.6349398699	-1.2522962513	 2.7147802395	 0.107934
H	-3.3720412251	 0.4233073481	 0.3347000901	 0.098169
H	-2.130582805	 0.8561806947	 1.5187023072	 0.098479
H	-1.7389010505	-0.7792400888	-1.0327719801	 0.073235
86.3209	169.7199	243.4165	261.496	368.796	456.1668	495.0709	527.6253	629.3383	703.7223	743.3774	754.1345	809.5484	840.9666	868.7811	893.3191	910.2136	955.7374	964.2592	1010.9779	1051.233	1057.3898	1084.27	1111.5136	1113.931	1132.4656	1183.1049	1224.6723	1246.0109	1255.2831	1263.9095	1269.1727	1280.3911	1303.1414	1319.0276	1343.0654	1354.0219	1426.9218	1433.4223	1471.3657	1491.9981	3044.7012	3063.4007	3070.2616	3073.7571	3093.2898	3113.191	3131.7517	3137.0589	3150.8191	3799.2768
OC1C2OC2C2CCC12	O[C@H]1[C@H]2O[C@H]2[C@H]2CC[C@@H]12	
InChI=1S/C7H10O2/c8-5-3-1-2-4(3)6-7(5)9-6/h3-8H,1-2H2	InChI=1S/C7H10O2/c8-5-3-1-2-4(3)6-7(5)9-6/h3-8H,1-2H2/t3-,4+,5-,6+,7-/m1/s1
