17
gdb 80777	1.98114	1.78448	1.16148	3.0958	81.09	-0.2365	0.0046	0.2411	1101.1903	0.134482	-384.625792	-384.617385	-384.61644	-384.658596	32.213	
C	-0.1470781343	 1.5546355591	 0.0040835884	-0.445813
C	 0.03085003	 0.0441495941	 0.0069365991	 0.003077
C	 1.2190621423	-0.6381496674	-0.7716678709	-0.20772
C	 2.1652950636	-0.1692993682	 0.384126828	-0.281704
C	 0.8787395056	-0.6539981221	 1.1560569153	 0.110443
C	 0.6261767219	-0.6453668442	 2.559054426	 0.045814
C	 0.4015292065	-0.6436219504	 3.7411697042	-0.347381
C	 0.9390351486	-1.8351370489	 0.1426480316	 0.421147
O	 0.8290321412	-3.0178525904	 0.1151777623	-0.313552
H	 0.7813829976	 2.1135376242	 0.1361276232	 0.126172
H	-0.595302498	 1.8733899756	-0.9425574336	 0.127897
H	-0.8285766557	 1.8475947202	 0.8091380128	 0.136996
H	-0.9377729001	-0.4371969434	-0.1580989452	 0.096989
H	 1.412397378	-0.6206553331	-1.8409534405	 0.100524
H	 3.0783428505	-0.7430414284	 0.5494486908	 0.123883
H	 2.3564878755	 0.9005770312	 0.4358171895	 0.119528
H	 0.2052650568	-0.6506582078	 4.7847605389	 0.1837
110.1158	145.6823	164.5752	186.8578	247.5591	369.7227	374.8207	488.7539	517.9137	535.4061	616.3169	624.878	648.2964	726.1378	735.8051	786.3017	793.2687	854.396	927.1959	984.8654	1020.7586	1034.6421	1083.2727	1095.2375	1119.9653	1150.7525	1178.6024	1212.4677	1227.5666	1310.235	1408.5017	1422.1953	1492.7427	1494.7938	1526.7106	1923.3175	2232.9619	3043.1869	3061.9109	3091.2442	3103.3724	3128.2344	3160.7101	3167.5282	3500.9034
CC1C2CC1(C#C)C2=O	C[C@H]1[C@H]2C[C@]1(C#C)C2=O	
InChI=1S/C8H8O/c1-3-8-4-6(5(8)2)7(8)9/h1,5-6H,4H2,2H3	InChI=1S/C8H8O/c1-3-8-4-6(5(8)2)7(8)9/h1,5-6H,4H2,2H3/t5-,6+,8-/m0/s1
