18
gdb 100453	2.94112	0.73739	0.63366	3.1533	79.98	-0.2569	-0.0224	0.2346	1765.7267	0.144573	-439.078736	-439.067856	-439.066912	-439.11652	36.957	
C	-0.4974014	 0.1285948855	-0.5805639499	-0.237542
O	-0.4876565927	-0.0744980712	 0.817313847	-0.225758
C	 0.8002382814	-0.3254643712	 1.3547198456	-0.046133
C	 0.6724931561	-0.274213969	 2.8788815828	-0.393863
C	 1.3508206582	-1.6128097013	 0.9058173278	 0.11402
C	 1.8035422004	-2.6714774485	 0.5462982735	-0.009349
C	 2.4152084424	-3.9318549383	 0.1478684827	 0.26394
N	 1.5718665247	-4.7610752654	-0.5357954042	-0.520952
O	 3.5741343188	-4.2058091425	 0.3913770646	-0.333044
H	-0.1482333162	-0.7591280571	-1.126047894	 0.114411
H	-1.5311031688	 0.3386975043	-0.863672472	 0.130716
H	 0.1330812022	 0.9839534804	-0.868780278	 0.108029
H	 1.4944115348	 0.4673311498	 1.0252428237	 0.101206
H	-0.0176018485	-1.0483378872	 3.2224382187	 0.137464
H	 1.645502938	-0.4335169157	 3.3490483996	 0.134604
H	 0.2828814228	 0.7028251219	 3.1743464155	 0.129046
H	 0.5908483291	-4.5568762289	-0.6152665949	 0.26684
H	 1.9042631472	-5.6830412454	-0.7678531484	 0.266365
19.6639	65.5091	92.9173	126.3765	181.4484	196.527	215.7316	234.091	263.8284	277.77	402.3648	442.0277	551.4505	562.9643	584.8869	606.2486	719.1531	772.7574	857.739	956.4137	1053.4795	1091.9006	1098.6047	1139.1387	1146.7499	1183.9027	1231.0212	1336.3193	1345.2868	1360.4508	1402.3515	1477.405	1482.0428	1485.5579	1495.9321	1510.6306	1608.8872	1775.2187	2337.2325	2951.4883	2983.2134	3039.3102	3055.4509	3122.3379	3137.5329	3140.3973	3598.8838	3739.4637
COC(C)C#CC(N)=O	CO[C@@H](C)C#CC(=O)N	
InChI=1S/C6H9NO2/c1-5(9-2)3-4-6(7)8/h5H,1-2H3,(H2,7,8)	InChI=1S/C6H9NO2/c1-5(9-2)3-4-6(7)8/h5H,1-2H3,(H2,7,8)/t5-/m0/s1
