21
gdb 122313	5.08654	0.71045	0.68556	1.3059	80.17	-0.2477	0.0852	0.3329	1718.2106	0.180894	-424.179292	-424.169764	-424.16882	-424.214673	34.366	
C	-0.2875574052	 1.3571491945	 0.1142576812	-0.2294
O	-0.0069966234	-0.0142970457	-0.0259180407	-0.230524
C	 0.6254508408	-0.5632840489	 1.1086948782	-0.048994
C	 0.8524101354	-2.0517659808	 0.8525527318	-0.333539
C	 1.5594915224	-2.7215382275	 1.9879475096	 0.429126
C	 3.0413310175	-2.6169414969	 2.4083098705	-0.288501
C	 2.9259804579	-4.0608892429	 3.0115857753	-0.236668
C	 1.4570340692	-4.0730177167	 2.5694618263	-0.047997
O	 0.819480614	-2.9544690548	 3.2008815778	-0.294132
H	 0.6295219366	 1.9498586183	 0.2627362486	 0.102059
H	-0.7754948702	 1.6879313413	-0.8059175483	 0.126141
H	-0.9609039637	 1.5526943143	 0.9639623565	 0.10508
H	 1.5860685992	-0.0529328251	 1.2985766027	 0.085559
H	 0.0028617293	-0.4279247612	 2.0080248128	 0.104525
H	-0.1157553198	-2.5361580433	 0.6901344872	 0.117898
H	 1.4376393085	-2.1662889117	-0.0672957561	 0.110261
H	 3.7284031872	-2.5716534191	 1.5595361234	 0.105587
H	 3.2693771237	-1.8078370227	 3.106042555	 0.107633
H	 3.5448427636	-4.7879563698	 2.4803873208	 0.105225
H	 3.0846519973	-4.1621701565	 4.0876678033	 0.111257
H	 0.8246437897	-4.9135235346	 2.3043258741	 0.099404
51.6561	83.0937	97.1004	118.9155	225.2544	230.0054	284.4903	326.973	357.7926	479.0471	494.1644	711.5964	728.1731	772.703	798.8944	876.3848	919.7452	924.5771	956.3513	988.203	997.6977	1028.7935	1066.6304	1086.4097	1153.2505	1163.1284	1176.1402	1197.2303	1210.9896	1216.2061	1228.1065	1242.9097	1258.6005	1283.5439	1312.4936	1322.6267	1420.6585	1454.2368	1463.7064	1477.1953	1482.1045	1485.2685	1495.0037	1504.8879	1533.7947	2948.5381	2969.3488	2989.7052	3011.3102	3042.0485	3061.8324	3069.6287	3092.0399	3112.5925	3112.9969	3129.4888	3176.8918
COCCC12CCC1O2	COCC[C@]12CC[C@H]1O2	
InChI=1S/C7H12O2/c1-8-5-4-7-3-2-6(7)9-7/h6H,2-5H2,1H3	InChI=1S/C7H12O2/c1-8-5-4-7-3-2-6(7)9-7/h6H,2-5H2,1H3/t6-,7-/m1/s1
