18
gdb 99547	2.14821	1.1759	0.93497	3.372	78.89	-0.2432	0.0254	0.2686	1320.7835	0.146591	-398.082079	-398.071746	-398.070801	-398.117718	36.649	
C	 0.7401930845	-0.740485013	 1.1327127769	-0.323345
N	-0.0445096113	-0.0215317708	 0.1302970734	-0.285543
C	-1.3900422153	-0.5603895344	-0.0679249202	-0.150953
C	-2.3227352244	-0.2498698114	 1.0241457855	 0.341793
C	-3.055662464	 0.0192050741	 1.9384758124	-0.453917
C	-1.9453329704	-0.0474949866	-1.4304461993	-0.14032
N	-1.7754163499	 1.4000744291	-1.5298077391	-0.503893
C	-1.3094007197	-0.7879245111	-2.5421333524	 0.266089
N	-0.8229085583	-1.3389406294	-3.4344507301	-0.324389
H	 1.7037683634	-0.2390217714	 1.2554811158	 0.12622
H	 0.2524891725	-0.805661631	 2.1179984274	 0.114896
H	 0.9365068073	-1.7578202008	 0.778705367	 0.132465
H	-0.1388701279	 0.9491331905	 0.4123176515	 0.233632
H	-1.2965529411	-1.6502102378	-0.1469187758	 0.127493
H	-3.7073583884	 0.2535628235	 2.743893685	 0.201792
H	-3.0168046225	-0.26895513	-1.4574919581	 0.140021
H	-0.7983819237	 1.6053482284	-1.7176888587	 0.250108
H	-2.3084765207	 1.7622750123	-2.313383571	 0.247852
56.8687	82.2707	120.2664	160.9169	187.0254	201.5917	247.6973	295.2886	305.6799	345.0932	387.0283	488.3539	563.9299	589.1162	635.8017	661.5069	697.1126	793.2373	854.3253	923.3982	957.4119	994.6776	1015.5641	1113.7256	1137.6481	1159.4756	1176.2646	1229.0613	1297.8402	1335.7791	1348.9325	1396.6541	1456.8375	1486.9062	1493.0579	1517.7527	1655.8577	2228.0646	2348.0362	2983.0432	3041.9726	3072.4586	3072.8881	3114.9341	3501.0653	3505.3425	3522.789	3585.4359
CNC(C#C)C(N)C#N	CN[C@@H](C#C)[C@@H](N)C#N	
InChI=1S/C6H9N3/c1-3-6(9-2)5(8)4-7/h1,5-6,9H,8H2,2H3	InChI=1S/C6H9N3/c1-3-6(9-2)5(8)4-7/h1,5-6,9H,8H2,2H3/t5-,6-/m0/s1
