18
gdb 71071	3.63538	1.59982	1.31727	3.744	76.58	-0.2266	-0.022	0.2046	995.1219	0.148118	-401.875047	-401.867755	-401.866811	-401.906251	29.642	
C	-0.2782275739	 1.4953169173	-0.0290410585	-0.495363
C	-0.027593757	 0.0254211879	-0.0172536328	 0.439675
O	-0.0710006537	-0.6503296182	-1.3231364468	-0.301233
C	-0.2256474266	-1.8306003646	-0.5903292168	 0.307324
N	 0.4939082502	-2.8474659658	-0.7696124423	-0.219533
C	 1.0730660148	-3.2159292266	 0.5339353609	-0.167198
C	 1.8242189185	-1.9063299372	 0.9708816588	-0.238138
C	 0.8030181849	-0.7488620061	 1.0810843653	-0.082516
C	-0.6133016274	-1.1263164678	 0.7057905827	-0.303568
H	 0.5081610388	 2.0155914891	-0.5850563149	 0.142797
H	-1.2391652062	 1.7184415803	-0.5023524281	 0.138752
H	-0.2894778684	 1.885926137	 0.9923204625	 0.130027
H	 0.3358215977	-3.4883858573	 1.3026065762	 0.104565
H	 1.7594005956	-4.0549797007	 0.4039700433	 0.110798
H	 2.3134155323	-2.0432717789	 1.9427211238	 0.098942
H	 2.607385741	-1.7000197304	 0.2357008684	 0.127587
H	 0.8969400377	-0.1407764545	 1.9794172562	 0.094801
H	-1.4812989684	-1.2568163737	 1.3377464821	 0.112282
187.3126	196.0962	229.2024	271.9136	343.1701	431.9955	478.4015	535.7611	558.6394	648.0418	697.9489	739.2034	798.6878	838.4472	842.7297	893.7222	902.4522	917.5466	971.3332	1023.8752	1028.2675	1043.443	1084.1654	1097.5621	1106.2182	1172.5731	1205.7716	1225.7036	1248.7902	1296.7332	1312.904	1330.679	1403.6076	1443.1712	1473.2484	1480.5338	1496.7947	1498.5812	1723.6421	3002.0868	3037.9059	3040.792	3091.4192	3108.1602	3109.0697	3120.4866	3127.14	3200.1922
CC12OC3=NCCC1C23	C[C@@]12O[C]3[N]CC[C@@H]1[C@@H]23	
InChI=1S/C7H9NO/c1-7-4-2-3-8-6(9-7)5(4)7/h4-5H,2-3H2,1H3	InChI=1S/C7H9NO/c1-7-4-2-3-8-6(9-7)5(4)7/h4-5H,2-3H2,1H3/t4-,5-,7-/m1/s1
