21
gdb 6898	3.00653	1.4182	1.30107	1.3688	75.7	-0.216	0.0722	0.2882	1088.7171	0.185948	-366.229742	-366.21971	-366.218766	-366.264089	36.344	
C	-0.5541007337	 0.648970562	-2.0759089184	-0.312816
N	-0.12904177	-0.3155566191	-1.0709763492	-0.1255
C	 1.2879104075	-0.445279176	-0.724175089	-0.075196
C	 2.3794855216	 0.3706761195	-1.3795086653	-0.087157
O	 2.6048462983	-0.0187439893	-2.7306625446	-0.417382
C	 0.2996259196	 0.0947553492	 0.2715790904	 0.302273
C	 0.3182451475	 1.5547314782	 0.6924205381	-0.458538
C	-0.1846592104	-0.8325880982	 1.3726692388	-0.434076
H	-0.0685994271	 1.6336571435	-2.0357176804	 0.099244
H	-0.3568921515	 0.2272688082	-3.0652191047	 0.132901
H	-1.6332687391	 0.8044047427	-1.9755579262	 0.116473
H	 1.5909813241	-1.4883994752	-0.5896694348	 0.0698
H	 2.1364381589	 1.4335834779	-1.4244114322	 0.106923
H	 3.3001369217	 0.2761607197	-0.7809312663	 0.090466
H	 2.7662379898	-0.9681523933	-2.7385058483	 0.281997
H	 0.6705929723	 2.2348029549	-0.0834061084	 0.121327
H	-0.6896369965	 1.8744044893	 0.9817477535	 0.121066
H	 0.9644387825	 1.6860018787	 1.5670477526	 0.121589
H	 0.4771704811	-0.7884768403	 2.2454135656	 0.109199
H	-1.1912608404	-0.5491139127	 1.7017257355	 0.113958
H	-0.2260400162	-1.8638242996	 1.0146989633	 0.12345
76.7246	116.2187	143.8308	177.184	197.9014	226.679	262.6308	287.0159	310.7233	330.4274	389.9144	468.2041	483.0583	584.264	700.0997	741.1155	822.835	949.1874	979.9314	994.3625	1022.9561	1045.1697	1088.174	1114.5767	1137.055	1150.2733	1173.3908	1189.9483	1222.4052	1278.5709	1351.0069	1371.9484	1402.3272	1410.0521	1420.5588	1440.4949	1460.0506	1476.1799	1485.0955	1488.7712	1496.0866	1507.9503	1509.8355	1516.5074	2973.3555	3002.6296	3025.3695	3035.4613	3046.0302	3070.2854	3084.6049	3090.2715	3110.0586	3111.6399	3123.2475	3139.5482	3807.4498
CN1C(CO)C1(C)C	CN1[C@@H](CO)C1(C)C	
InChI=1S/C6H13NO/c1-6(2)5(4-8)7(6)3/h5,8H,4H2,1-3H3	InChI=1S/C6H13NO/c1-6(2)5(4-8)7(6)3/h5,8H,4H2,1-3H3/t5-,7?/m0/s1
