18
gdb 71966	2.82905	1.68835	1.21818	1.77	83.57	-0.2363	0.024	0.2603	1044.5363	0.147044	-364.731683	-364.723657	-364.722713	-364.763759	31.805	
C	-0.0358229526	 1.4767284878	 0.0192773136	-0.507641
C	 0.1069363678	-0.0113858388	-0.0502830617	 0.297583
C	 0.0087232782	-0.8942069449	-1.2857915334	-0.287985
C	-0.2735577797	-2.0160586239	-0.272088411	-0.016356
C	 1.0342117987	-2.2278811854	 0.5044285497	-0.301773
C	 0.768059332	-0.8261230333	 1.0416354931	 0.160758
C	 1.3083470978	-0.2511426952	 2.2264532449	 0.1664
C	 1.8002077017	 0.2170441389	 3.2201077657	-0.385145
N	-0.7324231091	-0.9451773604	 0.7730999091	-0.22618
H	 0.8282637378	 1.9690451815	-0.4407279427	 0.12465
H	-0.9371013731	 1.8018173591	-0.5103331594	 0.124531
H	-0.1044560123	 1.8118897704	 1.0571292952	 0.142957
H	-0.8845016985	-0.6362489915	-1.8618970681	 0.111949
H	 0.8687442069	-0.9941445241	-1.9563522644	 0.098041
H	-0.9379031868	-2.8454260633	-0.5026717513	 0.089353
H	 0.9198173689	-2.9660562103	 1.3013596357	 0.121543
H	 1.9548523445	-2.4180278775	-0.0563982918	 0.100761
H	 2.2242939277	 0.6301890109	 4.1015062367	 0.186552
134.3482	146.729	177.9995	258.4847	306.9284	407.8998	414.2554	501.3934	513.3216	576.8944	598.971	648.4987	662.4113	727.656	739.8582	815.3752	879.4371	907.9737	944.1386	962.1221	997.2498	1030.1767	1033.7801	1090.5214	1142.419	1149.375	1182.2349	1219.8698	1259.9732	1270.0815	1284.9114	1350.5919	1374.1858	1420.5747	1483.119	1488.3582	1489.6088	1506.952	2232.5096	3035.1727	3041.2179	3049.1327	3098.039	3100.5957	3114.5498	3125.1399	3147.2665	3502.6071
CC12CC3CC1(C#C)N23	C[C@@]12C[C@H]3C[C@]1(C#C)N23	
InChI=1S/C8H9N/c1-3-8-5-6-4-7(8,2)9(6)8/h1,6H,4-5H2,2H3	InChI=1S/C8H9N/c1-3-8-5-6-4-7(8,2)9(6)8/h1,6H,4-5H2,2H3/t6-,7+,8-,9?/m0/s1
