13
gdb 133252	3.25505	1.50319	1.03842	5.055	67.21	-0.2547	-0.0798	0.175	1049.7319	0.088678	-490.182275	-490.174502	-490.173558	-490.215747	27.328	
C	-0.0695117837	 1.4532339812	 0.003357052	-0.338445
N	-0.036451999	-0.0010190618	 0.0559027313	-0.108127
N	 0.0674076383	-0.6592099915	-1.1656251123	-0.047655
N	 0.1262868971	-1.9022129203	-1.1778741114	-0.200109
C	 0.0570584221	-2.6767335949	 0.0441411303	 0.408022
N	-0.0657332177	-3.9380554371	-0.0049658201	-0.483067
N	 0.1477148693	-1.9965925541	 1.2614922594	-0.347813
C	 0.0842103495	-0.736171036	 1.1927255851	 0.441109
F	 0.1538457326	 0.0032948257	 2.2854268203	-0.050924
H	 0.8358283309	 1.8840920764	 0.4391060343	 0.159085
H	-0.1339287055	 1.7242719713	-1.0503181001	 0.171504
H	-0.9425445528	 1.8353680243	 0.5371304689	 0.160271
H	-0.0934361409	-4.2270206533	-0.9838551578	 0.23615
34.0823	111.6192	172.8941	211.8837	300.0371	380.4674	460.6683	514.169	554.0178	571.0281	709.9624	725.6174	781.276	817.8183	900.733	913.1757	959.7099	1100.9475	1155.1351	1211.5555	1275.3309	1300.8861	1407.1526	1466.428	1484.8582	1507.1973	1590.4544	1722.6048	1748.8644	3055.5728	3126.1739	3165.9963	3486.7793
CN1N=NC(=N)N=C1F	Cn1nnc([NH])nc1F	
InChI=1S/C3H4FN5/c1-9-2(4)6-3(5)7-8-9/h5H,1H3	InChI=1S/C3H9FN5/c1-9-2(4)6-3(5)7-8-9/h2-3,5-8H,1H3
