18
gdb 26972	2.94506	1.21754	0.9551	2.1178	84.52	-0.1943	0.0421	0.2364	1249.0056	0.147127	-364.821598	-364.812429	-364.811485	-364.856091	33.929	
C	 0.2767194555	 1.4477868978	 0.0077280015	-0.513044
C	 0.1151773091	-0.0368083023	-0.0426111062	 0.22569
C	 0.0194487415	-0.9090333418	-1.1112087754	 0.213961
C	 0.0579873634	-0.5531407841	-2.580262862	-0.473001
C	 1.2945982073	 0.0981772053	-3.0153146539	 0.325266
C	 2.3052902609	 0.6427882471	-3.3728399245	-0.476116
C	-0.1506831059	-2.2205278436	-0.5797051508	-0.241641
C	-0.1553249649	-2.1186147969	 0.7897700233	-0.09215
N	 0.005308017	-0.7917908236	 1.1013121004	-0.285422
H	 0.9515640891	 1.7512259347	 0.8168331348	 0.119333
H	 0.7058554387	 1.8117234896	-0.9283638594	 0.152898
H	-0.67700017	 1.9688284232	 0.1653814017	 0.125645
H	-0.0827137622	-1.4694847287	-3.1659648924	 0.134698
H	-0.7888757022	 0.0955016104	-2.8449094404	 0.132738
H	 3.2032097072	 1.1127516101	-3.6886950097	 0.191885
H	-0.2512404625	-3.1317723298	-1.1504293597	 0.089409
H	-0.2515985328	-2.865658436	 1.56073077	 0.114858
H	 0.0508046709	-0.4186619613	 2.0337260627	 0.254995
42.4596	87.7494	109.6256	226.7581	236.8904	287.1791	330.1381	389.9007	450.6119	485.8119	612.0947	621.7804	638.188	642.4477	683.4926	700.4794	759.2003	820.7034	910.6589	928.0648	951.7141	985.0327	1061.1199	1085.7775	1113.0809	1166.879	1227.6467	1272.5323	1293.4534	1345.2282	1416.079	1438.6601	1465.3341	1476.114	1490.0699	1497.035	1519.8558	1626.9663	2233.5272	3005.7913	3013.1446	3050.9154	3063.8679	3125.5446	3239.0889	3270.4231	3507.0083	3674.953
CC1=C(CC#C)C=CN1	Cc1c(CC#C)cc[nH]1	
InChI=1S/C8H9N/c1-3-4-8-5-6-9-7(8)2/h1,5-6,9H,4H2,2H3	InChI=1S/C8H9N/c1-3-4-8-5-6-9-7(8)2/h1,5-6,9H,4H2,2H3
