17
gdb 45030	2.40383	1.67052	1.16352	3.0216	72.8	-0.2428	-0.0281	0.2147	1054.799	0.136412	-421.86737	-421.859662	-421.858718	-421.900186	29.501	
O	-0.0745137756	 0.8024875581	 1.3513742426	-0.307575
C	-0.0431579363	 1.359763543	 0.2799067091	 0.357367
C	-1.3015341494	 1.6972736692	-0.5085656775	-0.310736
C	-1.329938334	 3.1655717023	-0.9059872874	-0.046316
C	-0.8143075071	 4.1883416422	 0.0519558731	-0.298493
C	-0.0177329882	 3.8682982902	-1.2148665124	-0.122485
C	 1.2708592411	 3.1310775695	-1.1069520476	 0.387687
O	 2.2914616352	 3.5483789738	-1.6021630799	-0.321221
C	 1.2623601468	 1.7762027247	-0.3778313535	-0.404411
H	-1.3178771927	 1.0730676165	-1.4130581283	 0.123862
H	-2.1697973249	 1.4321677004	 0.1002485266	 0.131281
H	-2.1688729852	 3.4511308059	-1.5323154936	 0.106651
H	-1.27813252	 5.1668777614	 0.0868682046	 0.132986
H	-0.4193267544	 3.8505653574	 1.0049006759	 0.143475
H	-0.0053302531	 4.6362736842	-1.9793742879	 0.113124
H	 2.0780661297	 1.7322255145	 0.3474215772	 0.155198
H	 1.4950336179	 1.0348824466	-1.156146491	 0.159606
53.5816	96.4522	215.7729	328.8675	378.3318	397.5243	450.0424	506.7785	526.7238	571.095	658.723	759.7654	790.1439	807.1445	853.2092	867.6213	935.2769	984.7272	993.1145	1033.365	1072.8676	1091.7942	1126.0344	1150.7628	1200.4987	1218.0538	1226.7067	1258.6629	1276.6517	1313.1778	1360.6129	1404.4847	1417.0335	1469.2809	1494.054	1795.3898	1822.067	3018.1995	3026.3736	3100.8547	3115.7608	3137.4534	3160.9314	3186.131	3225.72
O=C1CC2CC2C(=O)C1	O=C1C[C@H]2C[C@H]2C(=O)C1	
InChI=1S/C7H8O2/c8-5-1-4-2-6(4)7(9)3-5/h4,6H,1-3H2	InChI=1S/C7H8O2/c8-5-1-4-2-6(4)7(9)3-5/h4,6H,1-3H2/t4-,6+/m0/s1
