21
gdb 84952	1.97959	1.82539	1.27564	1.2065	84.87	-0.2268	-0.0079	0.2189	1101.6736	0.18451	-387.083366	-387.074888	-387.073944	-387.115794	33.89	
O	 0.2347647299	 1.3225472283	-0.4427628206	-0.427654
C	 0.0714422357	-0.0690800019	-0.162234789	 0.026411
C	 0.8869976855	-0.4396730002	 1.0589932694	-0.04399
C	 0.9548875303	 0.2391154808	 2.204191849	-0.048293
C	 0.2801147395	 1.5457772215	 2.5577027015	-0.243323
C	-1.2542408997	 1.4908643094	 2.7657405461	-0.180572
C	-2.1331704301	 1.5179870667	 1.4895262329	-0.239896
C	-2.2929862361	 0.2067273555	 0.7500464378	-0.049917
C	-1.3789269796	-0.4680568989	 0.0492940815	-0.09217
H	-0.4128046678	 1.5469987478	-1.1194354202	 0.281843
H	 0.4598061007	-0.6489476635	-1.013879991	 0.069918
H	 1.4162694227	-1.3859417203	 0.9820214039	 0.084873
H	 1.5638595126	-0.1993029147	 2.9930565279	 0.084442
H	 0.7221064586	 1.909866334	 3.491530473	 0.087961
H	 0.50232739	 2.2920360052	 1.7904956489	 0.130698
H	-1.5174449034	 0.6207465109	 3.3786716611	 0.095952
H	-1.5280290497	 2.3748501065	 3.354415145	 0.092622
H	-3.1317831669	 1.8555541523	 1.7875498431	 0.090902
H	-1.7347051571	 2.2855490017	 0.8194414264	 0.1075
H	-3.2817308779	-0.2439037905	 0.8181648642	 0.087633
H	-1.6630691772	-1.4221151205	-0.3896303508	 0.085062
156.1597	163.7587	186.1266	237.2873	292.073	301.6818	356.2206	382.6402	430.2887	530.0787	574.1382	643.4246	708.7435	741.8351	753.1767	794.7867	855.6109	870.1464	899.4656	956.6248	993.0583	994.6651	1001.1835	1019.8409	1064.7153	1080.4635	1128.4528	1180.3266	1238.9224	1267.7661	1278.6283	1283.7874	1303.0405	1357.0493	1361.5221	1369.5278	1376.6343	1406.3983	1421.2116	1432.398	1477.2904	1481.4364	1488.9981	1714.2867	1725.707	2970.139	3019.8434	3040.0797	3042.5289	3064.1682	3084.1933	3099.5037	3128.6264	3131.6553	3155.1383	3163.7171	3809.443
OC1C=CCCCC=C1	O[C@H]1C=CCCCC=C1	
InChI=1S/C8H12O/c9-8-6-4-2-1-3-5-7-8/h4-9H,1-3H2/b6-4-,7-5-	InChI=1S/C8H12O/c9-8-6-4-2-1-3-5-7-8/h4-9H,1-3H2/b6-4-,7-5-
