19
gdb 95386	2.58786	1.76212	1.29573	2.0331	69.66	-0.2496	0.0711	0.3207	1009.6141	0.161961	-460.17146	-460.16392	-460.162975	-460.203754	29.565	
O	 0.1284072669	 1.2051338235	-0.5713007934	-0.438289
C	 0.0232082676	-0.0548442735	 0.0391964091	 0.117291
C	 0.2719388476	-0.0571849523	 1.5588541476	-0.118776
O	-0.4162496504	-1.1951705565	 2.0643371979	-0.279776
C	-1.5221338137	-1.5240260819	 1.2163297724	 0.095267
C	-2.8703763237	-1.0965237454	 1.8133704912	-0.237322
C	-3.0001288921	 0.3524586411	 1.3413282015	-0.088569
O	-2.3706508386	 0.3886963788	 0.0532450498	-0.290736
C	-1.3951891284	-0.657366397	-0.048472751	 0.037766
H	-0.7446447429	 1.6108124876	-0.4689553237	 0.287476
H	 0.7356697912	-0.7252110354	-0.4546015515	 0.090582
H	 1.3274717256	-0.1519172091	 1.8274552496	 0.111691
H	-0.1090327135	 0.8803919652	 1.9936011336	 0.090847
H	-1.4792722857	-2.5992174731	 1.0201578197	 0.085778
H	-3.6724870664	-1.7106537034	 1.390628997	 0.108838
H	-2.8783971656	-1.2061632732	 2.8994293845	 0.120126
H	-4.0331401478	 0.6870836153	 1.2132115067	 0.114107
H	-2.4988859217	 1.0425402325	 2.0342835359	 0.106114
H	-1.5733382083	-1.1900659632	-0.9861089769	 0.087584
65.2762	167.3263	199.0998	271.0769	362.2032	406.1482	489.6605	509.6411	596.2761	646.6025	672.1756	818.8093	828.0516	853.4722	888.1347	921.7796	937.5352	971.3031	1015.7844	1029.9267	1069.1977	1085.695	1101.7783	1132.413	1147.9029	1204.8797	1215.2218	1227.6019	1263.8255	1279.1281	1297.7647	1323.7412	1339.4133	1353.9785	1369.0962	1384.5181	1395.7529	1443.9345	1474.7848	1520.5391	1533.3345	2983.8927	3006.2146	3048.2624	3052.2149	3066.2471	3080.52	3089.1776	3093.0211	3125.3317	3732.837
OC1COC2CCOC12	O[C@H]1CO[C@H]2CCO[C@@H]12	
InChI=1S/C6H10O3/c7-4-3-9-5-1-2-8-6(4)5/h4-7H,1-3H2	InChI=1S/C6H10O3/c7-4-3-9-5-1-2-8-6(4)5/h4-7H,1-3H2/t4-,5-,6-/m0/s1
