19
gdb 111823	2.79938	1.43572	1.12044	2.8479	77.13	-0.2261	0.0051	0.2312	1142.5859	0.159763	-419.152721	-419.144182	-419.143238	-419.186461	31.448	
C	-0.549322881	 1.7555829766	-0.1173342906	-0.242959
O	-0.2453478618	 0.409078064	-0.4232236267	-0.23648
C	-1.2865530608	-0.4898846903	-0.1783947887	 0.025822
C	-1.0703907896	-1.9221555709	-0.7142441954	-0.020212
C	 0.3479791119	-2.5377682986	-0.6068400159	-0.254275
C	-0.133299202	-3.2446064141	 0.6950429953	-0.169093
N	-1.429726941	-2.482081546	 0.6466321215	-0.124266
C	-1.3427749686	-1.1787609395	 1.2136971184	 0.302095
N	-1.1968612263	-0.8852730506	 2.4319400463	-0.520873
H	 0.3120498741	 2.3542123786	-0.4216224974	 0.135816
H	-1.4386389049	 2.1001389415	-0.6662713236	 0.11344
H	-0.7228786694	 1.9106465674	 0.9563259405	 0.113399
H	-2.255430534	-0.0715058287	-0.4921236285	 0.087421
H	-1.6854442341	-2.2355331826	-1.5599858575	 0.081491
H	 0.6358578109	-3.1938290444	-1.4298409928	 0.108975
H	 1.129755144	-1.7913427845	-0.4542571774	 0.130842
H	-0.3069024897	-4.3179333094	 0.5870428678	 0.11353
H	 0.4316959815	-3.0579632834	 1.6107518792	 0.132808
H	-1.1244335491	 0.1232048548	 2.5628312954	 0.222519
60.5103	98.4338	156.0413	180.9674	223.3929	256.0276	336.6944	462.7421	517.9522	627.2835	684.3107	735.0752	805.6222	826.5663	863.5818	873.9159	893.0465	943.127	987.6508	1016.757	1040.7601	1075.7536	1097.412	1170.2889	1175.9632	1177.8838	1207.4853	1216.0287	1234.6568	1246.6106	1260.5294	1281.3329	1315.8765	1345.6657	1379.8571	1478.3113	1483.1722	1490.7099	1505.26	1506.0886	1770.0354	2982.0397	2988.7045	3040.7059	3065.5788	3079.0198	3089.6499	3119.5979	3122.5726	3140.1827	3490.4085
COC1C2CCN2C1=N	CO[C@H]1[C@H]2CCN2[C]1[NH]	
InChI=1S/C6H10N2O/c1-9-5-4-2-3-8(4)6(5)7/h4-5,7H,2-3H2,1H3	InChI=1S/C6H10N2O/c1-9-5-4-2-3-8(4)6(5)7/h4-5,7H,2-3H2,1H3/t4-,5+/m1/s1
