25
gdb 58524	2.68747	1.22119	1.08591	0.1423	92.62	-0.2344	0.031	0.2654	1294.2057	0.228623	-352.379363	-352.369498	-352.368554	-352.413273	38.952	
C	 0.0275446941	 1.6480018455	 0.1216491653	-0.403224
C	 0.0964424691	 0.1129268823	 0.1637575264	-0.008774
C	 0.763198948	-0.3434759106	 1.4714690285	-0.403225
C	-1.2723502064	-0.5726632323	-0.1017388481	 0.349677
C	-2.3223267149	-0.2322536103	 0.9728803683	-0.441112
C	-1.8542665644	-0.1865716671	-1.5028457051	-0.301067
C	-2.4492715336	-1.4697866863	-2.0243987887	-0.066143
C	-2.0600355799	-2.5234239739	-1.3103250162	-0.06614
C	-1.1363355556	-2.1299807708	-0.1857491748	-0.301066
H	 1.0323008356	 2.0769416487	 0.1981097032	 0.108264
H	-0.4182818956	 2.0152200493	-0.8073417788	 0.113252
H	-0.5591229506	 2.0479274155	 0.9556277797	 0.114672
H	 0.7511772446	-0.2044661525	-0.661351069	 0.066375
H	 0.2003377567	-0.0078866002	 2.3490839854	 0.114673
H	 0.8550715108	-1.4319893584	 1.5291946751	 0.113252
H	 1.7707320417	 0.077955947	 1.5529674517	 0.108264
H	-2.5249452986	 0.8422953346	 1.0182811244	 0.110165
H	-3.267106487	-0.7363083284	 0.7441314328	 0.117166
H	-2.0070132861	-0.55968723	 1.9684383325	 0.110166
H	-2.587895512	 0.6257260078	-1.4329722181	 0.096561
H	-1.0668437356	 0.1724674155	-2.18170943	 0.098631
H	-3.089132774	-1.5048497169	-2.8996753395	 0.087222
H	-2.3320422468	-3.5542504318	-1.5107492566	 0.087222
H	-0.104343462	-2.4329803142	-0.41592986	 0.09863
H	-1.3903258878	-2.6160559823	 0.7640619616	 0.096561
90.5747	113.0937	202.4909	218.8942	239.9226	283.5432	288.2106	328.2059	332.0072	393.4004	405.9224	450.9437	457.0437	603.2784	699.7245	767.129	773.4542	855.2301	918.7936	926.6212	935.7554	936.8134	952.125	965.2331	976.5694	989.7648	992.1692	1052.3099	1113.7493	1126.9425	1145.0165	1155.6936	1165.3547	1206.5456	1216.4311	1289.7985	1298.2414	1337.0088	1350.9645	1366.1412	1368.2862	1401.4713	1406.5338	1424.268	1479.5371	1485.6349	1486.7842	1491.902	1501.1429	1508.5208	1510.5709	1513.044	1692.0912	2987.3899	2997.9488	3001.5081	3031.8406	3031.9051	3037.7161	3041.6947	3044.083	3091.1454	3096.7863	3101.17	3104.5155	3107.7764	3109.3026	3176.1988	3202.1906
CC(C)C1(C)CC=CC1	CC(C)[C@@]1(C)CC=CC1	
InChI=1S/C9H16/c1-8(2)9(3)6-4-5-7-9/h4-5,8H,6-7H2,1-3H3	InChI=1S/C9H16/c1-8(2)9(3)6-4-5-7-9/h4-5,8H,6-7H2,1-3H3
