16
gdb 34151	2.79949	1.70845	1.36848	5.3126	73.53	-0.2372	0.0076	0.2448	954.4138	0.127812	-396.868056	-396.861359	-396.860415	-396.899157	26.762	
N	-0.0581195792	-1.1160182767	 0.0599655165	-0.347064
C	-0.0453390482	 0.0402089567	 0.0497656721	 0.158408
C	-0.0347010997	 1.4800731915	 0.0150190906	 0.248433
N	-0.6138971844	 2.3430091912	 1.1052196439	-0.355148
C	-0.0749447353	 3.3117673171	 0.0817047526	-0.077901
C	 1.2083595975	 2.4377897122	-0.0521983657	-0.047651
C	 1.6834164446	 2.481559276	-1.4975296898	-0.203138
N	 0.3811576165	 2.3773500543	-2.21482928	-0.312757
C	-0.560914362	 2.4207187369	-1.1216199067	-0.038559
H	-1.6371236047	 2.3130081755	 1.0469488055	 0.218685
H	-0.1368904847	 4.3912279854	 0.2163905363	 0.092177
H	 1.9232274146	 2.4090020615	 0.767204115	 0.104156
H	 2.2175291262	 3.4118531456	-1.7231739196	 0.109444
H	 2.3401455099	 1.6425847299	-1.7510057099	 0.128535
H	 0.2411871569	 3.1378706497	-2.8701229139	 0.228359
H	-1.616218758	 2.3875546831	-1.3958520769	 0.094021
131.0414	157.0449	292.249	370.3152	457.0593	526.9417	540.1762	565.3562	691.6399	702.6077	779.8874	810.1058	830.5022	921.1564	943.5256	948.3025	965.0628	998.4401	1006.8871	1043.6874	1089.5885	1102.7073	1144.2379	1152.7986	1200.3981	1228.3921	1248.2287	1262.5343	1285.0388	1296.6261	1307.1833	1391.3664	1411.1325	1514.6733	2351.2822	3034.3591	3073.1885	3118.261	3126.833	3156.6612	3384.3346	3541.0736
N#CC12NC3C1CNC23	N#C[C@@]12N[C@H]3[C@@H]1CN[C@@H]23	
InChI=1S/C6H7N3/c7-2-6-3-1-8-5(6)4(3)9-6/h3-5,8-9H,1H2	InChI=1S/C6H7N3/c7-2-6-3-1-8-5(6)4(3)9-6/h3-5,8-9H,1H2/t3-,4-,5+,6+/m0/s1
