19
gdb 58861	2.6098	1.52001	1.12934	2.6857	77.44	-0.2129	0.0211	0.2341	1129.0948	0.158047	-419.154312	-419.145458	-419.144513	-419.187888	33.459	
C	-0.0597363685	 1.5154657522	 0.2105685333	-0.347317
N	-0.0154577793	 0.064675986	 0.0408123446	-0.148556
C	 0.8466357366	-0.592539995	 1.005936128	-0.336062
C	-1.3106125478	-0.4964066858	-0.0862028366	 0.259188
C	-2.2560701165	-0.9844197677	 1.0491215203	-0.349877
C	-1.8514028411	-1.9000393517	-0.0586808678	 0.004817
O	-2.7006601399	-1.6363038991	-1.2128128822	-0.272558
C	-2.162905483	-0.3559156262	-1.3147162451	 0.420195
N	-2.3309802541	 0.5348003779	-2.1785959742	-0.566396
H	 0.9535454274	 1.917674634	 0.1160154834	 0.116728
H	-0.6816817319	 1.9502506857	-0.57461964	 0.163521
H	-0.4622979044	 1.8194330513	 1.1937383014	 0.094678
H	 0.537012602	-0.4397017012	 2.0567466072	 0.098219
H	 0.8795630524	-1.6681448454	 0.8080812163	 0.121665
H	 1.8622866946	-0.1990031451	 0.9019000982	 0.128088
H	-1.7520318724	-1.142510317	 1.9977710653	 0.126519
H	-3.2878479223	-0.6538684508	 1.1180264993	 0.128255
H	-1.3928770435	-2.8775375012	-0.0001411034	 0.127241
H	-2.9848902281	 0.2343167192	-2.9033553181	 0.231653
51.549	152.6503	190.216	213.2275	257.7583	262.8622	320.5199	376.1672	420.0343	467.6064	518.5484	616.669	655.2558	761.7442	855.5178	862.3813	872.6099	899.2989	933.6962	976.0993	1006.9568	1032.9511	1053.8483	1061.57	1077.2136	1122.9343	1165.7671	1183.8619	1225.5718	1234.3017	1292.6277	1311.0395	1415.0019	1442.9805	1466.9471	1483.0585	1484.6272	1499.1807	1502.5934	1522.6175	1834.2916	2931.4705	2945.8492	3064.3478	3074.1705	3109.1554	3122.2705	3133.0041	3212.5219	3218.7578	3478.6721
CN(C)C12CC1OC2=N	CN(C)[C@]12C[C@H]1O[C]2[NH]	
InChI=1S/C6H10N2O/c1-8(2)6-3-4(6)9-5(6)7/h4,7H,3H2,1-2H3	InChI=1S/C6H10N2O/c1-8(2)6-3-4(6)9-5(6)7/h4,7H,3H2,1-2H3/t4-,6-/m1/s1
