17
gdb 84933	2.29423	1.72801	1.2709	2.7521	71.01	-0.2599	0.0049	0.2648	1032.0197	0.137469	-455.152169	-455.144074	-455.14313	-455.185076	30.111	
C	 1.1299688218	 1.1428864305	-0.3160329638	-0.401403
C	 0.0394767243	 0.1434033551	 0.1190418006	-0.047904
N	-0.3848787186	-0.6852311433	-0.9996939225	-0.252515
C	-0.0923357026	-1.8870495464	-1.2226117933	 0.120964
O	 0.742919764	-2.7471738003	-0.566474069	-0.209703
C	 1.7095548624	-2.1648099602	 0.2778211062	 0.004998
O	 1.1781502009	-1.6557335572	 1.472704781	-0.240036
C	 0.3792363912	-0.5382167819	 1.444905376	 0.368143
N	-0.0797141433	-0.0557312477	 2.5182414031	-0.492543
H	 2.0842824574	 0.6555485722	-0.536140399	 0.118593
H	 0.7995367279	 1.657666134	-1.221731862	 0.139059
H	 1.2906355982	 1.8786849434	 0.475664142	 0.141883
H	-0.8338403625	 0.7472541862	 0.3803135716	 0.133717
H	-0.545608946	-2.4109239392	-2.0628051852	 0.133675
H	 2.3762157705	-2.975128409	 0.5716297721	 0.140222
H	 2.2601341643	-1.3951146214	-0.2734194915	 0.118373
H	 0.2554117901	-0.5897322648	 3.3229645435	 0.224476
69.9445	123.4843	212.1178	244.1656	259.3967	326.9083	358.7725	440.4453	513.6357	563.728	679.3934	697.8314	708.1805	821.1024	883.1997	919.3827	961.8631	966.0701	995.3148	1054.4213	1067.0749	1103.9968	1156.5614	1167.1704	1203.9393	1318.1417	1330.6969	1341.7684	1362.6743	1400.9498	1424.5778	1456.5214	1487.808	1494.0118	1514.3227	1747.986	1772.9228	3045.2691	3053.6747	3070.9135	3121.8001	3135.3282	3145.748	3154.2417	3464.3493
CC1N=COCOC1=N	C[C@H]1N=COCO[C]1[NH]	
InChI=1S/C5H8N2O2/c1-4-5(6)9-3-8-2-7-4/h2,4,6H,3H2,1H3	InChI=1S/C5H8N2O2/c1-4-5(6)9-3-8-2-7-4/h2,4,6H,3H2,1H3/t4-/m1/s1
