23
gdb 95958	2.56814	1.45308	1.15808	1.538	84.72	-0.2386	0.0787	0.3173	1180.7431	0.206973	-388.292546	-388.283745	-388.2828	-388.326184	34.298	
C	 0.5803732748	 1.4911817617	-0.7151004576	-0.394033
C	 0.0251160274	 0.1956290676	-0.1264145866	 0.072002
O	 0.2672021419	-0.8692165124	-1.0612125133	-0.278771
C	 1.0333145134	-1.8972539575	-0.4444986932	-0.070602
C	 1.7455017531	-1.2250946243	 0.7273419336	-0.285264
C	 0.6661012867	-0.2419432926	 1.2074463603	 0.342115
C	 1.122893031	 0.8086599129	 2.2586332974	-0.289797
C	 0.5512021077	-0.0985221462	 3.3806683165	-0.217432
C	-0.2651516994	-0.8567270728	 2.3012762941	-0.267099
H	 1.6733615502	 1.4634678785	-0.772396037	 0.111966
H	 0.1924293777	 1.6261149308	-1.7285169501	 0.123979
H	 0.2854334119	 2.3598718703	-0.1179649223	 0.109256
H	-1.0628867631	 0.2980315464	-0.0035970986	 0.066525
H	 0.3773616796	-2.7086860311	-0.0894817921	 0.087187
H	 1.7128546524	-2.3175392441	-1.192985138	 0.10169
H	 2.0653575619	-1.9287259318	 1.5008481681	 0.097647
H	 2.6297668246	-0.6810457035	 0.3754486083	 0.101409
H	 2.1892698216	 1.0494141521	 2.2890482034	 0.095214
H	 0.5613547275	 1.7437359509	 2.1735027112	 0.100136
H	 1.3211620524	-0.7276657106	 3.8352322968	 0.103062
H	-0.0093051365	 0.3890813521	 4.1812353318	 0.097579
H	-1.2882888999	-0.476770025	 2.2203863325	 0.098249
H	-0.3074195566	-1.9480463714	 2.3662954845	 0.094984
49.9213	128.3856	186.8725	198.9285	241.2706	309.4847	334.5403	380.7388	476.2499	486.8186	633.9851	690.5754	735.9891	794.9308	837.2847	871.8924	879.7073	921.3042	933.8297	942.0955	974.0657	989.0718	1018.6771	1034.5925	1075.5977	1097.069	1119.7118	1156.9622	1171.0172	1197.6753	1210.3343	1220.1513	1243.3178	1258.9367	1273.1875	1277.0749	1303.5564	1317.329	1346.7678	1377.5444	1394.5675	1403.8885	1474.1029	1483.1488	1486.8904	1489.0399	1497.1395	1506.7885	1529.4736	2969.9698	2991.0667	3035.7111	3038.3532	3043.9456	3050.4898	3062.2757	3069.4471	3090.0214	3095.1735	3098.1368	3109.0133	3116.4876	3118.243
CC1OCCC11CCC1	C[C@H]1OCCC21CCC2	
InChI=1S/C8H14O/c1-7-8(3-2-4-8)5-6-9-7/h7H,2-6H2,1H3	InChI=1S/C8H14O/c1-7-8(3-2-4-8)5-6-9-7/h7H,2-6H2,1H3/t7-/m1/s1
