14
gdb 132165	3.33021	1.33673	0.95471	1.3098	70.11	-0.2056	-0.02	0.1855	1115.662	0.102009	-477.996356	-477.98899	-477.988046	-478.028046	28.843	
N	 0.0333577718	 1.3557679062	 0.1498652874	-0.5858
C	-0.0046647998	-0.0181346938	 0.0509316948	 0.221238
C	-1.133823209	-0.7558664315	 0.0204871107	-0.053489
O	-1.1315389227	-2.1383688317	-0.0194500399	-0.203803
C	 0.0426996928	-2.7451567208	-0.0230431326	 0.398537
F	-0.1133966448	-4.0508262962	-0.0517953228	-0.042746
C	 1.2410504054	-2.1373747723	-0.0046902643	-0.441646
C	 1.3132560578	-0.6907110624	 0.0163957221	 0.300347
N	 2.3620526302	 0.0570715314	-0.0026405241	-0.569117
H	 0.9532758427	 1.7155085197	-0.0773939851	 0.270816
H	-0.7391551954	 1.8717458749	-0.2399507136	 0.246681
H	-2.1434693277	-0.3740194744	 0.0328584303	 0.128906
H	 2.1388920972	-2.7410577126	-0.0200458208	 0.118027
H	 3.2152581716	-0.5007147264	-0.0346021721	 0.212048
125.0059	193.4756	329.414	331.6319	368.8475	389.1838	430.6061	449.0342	519.1397	583.935	621.718	663.1445	754.6034	755.4604	782.0203	793.0872	815.8843	871.7426	960.6338	1100.2899	1126.8959	1215.1675	1255.3118	1303.7599	1320.5631	1432.798	1473.8376	1609.1184	1652.5309	1684.3773	1719.1359	3219.6619	3248.4524	3474.8065	3530.612	3670.8812
NC1=COC(F)=CC1=N	NC1=CO[C@@H](F)C=C1[NH]	
InChI=1S/C5H5FN2O/c6-5-1-3(7)4(8)2-9-5/h1-2,7H,8H2	InChI=1S/C5H6FN2O/c6-5-1-3(7)4(8)2-9-5/h1-2,5,7H,8H2/t5-/m1/s1
