16
gdb 81310	2.38557	1.74699	1.61995	3.4599	64.04	-0.2309	0.0128	0.2437	916.6305	0.126104	-475.032034	-475.024577	-475.023633	-475.063845	28.753	
O	 0.0169369552	 1.4872418272	 0.0333008595	-0.420062
C	 0.027765006	 0.0925286523	-0.0431094438	 0.106862
C	-1.3509850915	-0.5912257177	-0.1044702778	 0.05098
C	-2.3423979043	 0.2025059877	-0.9535164105	-0.16226
N	-1.7176146981	 0.499763822	-2.2376515798	-0.312081
C	-0.4199834674	 0.1853789761	-2.5173986719	 0.430982
O	 0.1762074139	 0.5344026393	-3.5164003051	-0.382658
C	 0.2036071148	-0.651006814	-1.3992170724	-0.104414
O	-0.762719722	-1.6327389902	-0.9292011607	-0.287434
H	 0.923052213	 1.8115396115	 0.0295498961	 0.298958
H	 0.6541516583	-0.3729827086	 0.7266028312	 0.096052
H	-1.8075853186	-0.9743442887	 0.8106754248	 0.090532
H	-3.2526349971	-0.3922183654	-1.0991384867	 0.118308
H	-2.6117300496	 1.1268399296	-0.4268377122	 0.126118
H	-2.1956687569	 1.0833238589	-2.9073609627	 0.250746
H	 1.1575585144	-1.0823608399	-1.7016978979	 0.099372
106.9601	195.3775	222.2235	238.5646	347.5113	421.9791	436.0619	500.1717	563.0134	567.5127	654.0946	771.0085	787.7261	837.9589	876.6976	919.2511	970.9756	997.3994	1017.9839	1066.081	1110.1013	1147.8814	1181.8006	1212.5232	1230.6843	1260.9474	1299.1989	1318.4444	1326.6689	1356.0459	1389.1354	1432.7755	1474.287	1511.0238	1813.285	3018.7924	3040.8977	3056.592	3095.6803	3129.2875	3623.0784	3825.7079
OC1C2CNC(=O)C1O2	O[C@H]1[C@H]2CNC(=O)[C@@H]1O2	
InChI=1S/C5H7NO3/c7-3-2-1-6-5(8)4(3)9-2/h2-4,7H,1H2,(H,6,8)	InChI=1S/C5H7NO3/c7-3-2-1-6-5(8)4(3)9-2/h2-4,7H,1H2,(H,6,8)/t2-,3+,4-/m1/s1
