16
gdb 97028	2.00181	1.82166	0.96523	2.0074	75.08	-0.2548	-0.0394	0.2154	1163.1875	0.124667	-434.100117	-434.091791	-434.090847	-434.133635	29.71	
C	 0.2496243947	 1.3874511253	-0.0257362526	-0.339577
N	 0.0452514182	-0.043945244	 0.0606458294	-0.301137
C	-1.0805641673	-0.6026659687	 0.1332016348	 0.382941
C	-1.273596018	-2.1141094738	 0.2238200408	-0.245407
N	-2.7135985156	-2.36116653	 0.2911308001	-0.248174
C	-3.2802394469	-1.2268435912	 0.2495034202	 0.086037
N	-2.4246786797	-0.1021272157	 0.1553120085	-0.172217
C	-2.9381978465	 1.1913730356	 0.1021845161	 0.157348
O	-4.12164853	 1.425407194	 0.1330978763	-0.299655
H	 1.322792798	 1.5871043593	-0.0759617621	 0.133416
H	-0.2097532611	 1.8231453148	-0.9241836721	 0.128206
H	-0.1449512723	 1.9211151119	 0.8503814373	 0.128184
H	-0.8386484219	-2.6177727055	-0.6458501239	 0.15329
H	-0.7732368526	-2.5208768957	 1.1088929017	 0.153293
H	-4.3466277919	-1.0457348987	 0.2790994682	 0.173382
H	-2.1674876572	 1.9674068525	 0.0301608673	 0.110071
54.6649	134.6697	200.6959	222.0876	242.2765	249.3281	291.677	397.0252	490.6626	550.3618	636.5772	671.3649	784.7478	879.2511	939.4266	991.3339	1006.2757	1022.6721	1041.179	1082.103	1102.4554	1165.7149	1192.7562	1194.9633	1274.7106	1316.1896	1356.406	1429.1421	1440.7775	1455.6283	1496.224	1512.9306	1706.9036	1793.1891	1800.0842	2988.6023	3045.295	3055.2252	3076.9891	3087.4052	3101.7305	3240.8222
CN=C1CN=CN1C=O	CN=C1CN=CN1C=O	
InChI=1S/C5H7N3O/c1-6-5-2-7-3-8(5)4-9/h3-4H,2H2,1H3	InChI=1S/C5H7N3O/c1-6-5-2-7-3-8(5)4-9/h3-4H,2H2,1H3
