16
gdb 9719	3.87783	1.55285	1.54191	2.6445	66.67	-0.2505	-0.0404	0.2101	895.5582	0.130152	-383.76205	-383.754583	-383.753639	-383.793983	28.025	
O	 0.0096637346	 1.4346939504	-0.0328556207	-0.479752
C	 0.0244283824	 0.0297459249	-0.0141739958	 0.306725
C	-1.4111328119	-0.5857747446	-0.0888070245	-0.284754
C	-1.333441651	-1.7698756634	-1.0835932778	-0.259425
C	-0.0199967611	-1.5425461739	-1.7914180357	-0.058986
C	 0.7064350396	-0.5804257167	-1.2282583409	-0.129357
C	 0.7374325145	-0.439320476	 1.2466860652	 0.113018
O	 1.2263177252	 0.3305174759	 2.0375965814	-0.276226
H	 0.484688169	 1.7147126746	 0.7662180919	 0.290512
H	-1.8027201323	-0.8760820248	 0.8904688051	 0.104793
H	-2.0508278576	 0.2117471522	-0.4734906598	 0.135277
H	-1.3349509472	-2.7373573836	-0.5642740929	 0.112954
H	-2.182755654	-1.7970644218	-1.7756851711	 0.113903
H	 0.279467066	-2.1188654672	-2.6602744784	 0.104225
H	 1.6837731792	-0.2367558285	-1.545984843	 0.107904
H	 0.7834268345	-1.5378001975	 1.3920859771	 0.09919
79.0297	103.9331	245.9644	287.9594	349.7089	392.1367	445.623	501.7469	519.0891	683.2736	757.1466	779.814	828.8056	848.7097	923.8979	937.8547	973.4633	994.1019	1004.5416	1065.3192	1108.4645	1134.4383	1160.449	1220.4023	1247.8047	1290.8437	1320.1603	1367.8563	1385.9888	1431.9506	1479.771	1499.086	1681.5762	1808.9639	2931.967	3021.2971	3055.064	3063.4611	3115.6718	3186.3946	3215.0633	3681.1499
OC1(CCC=C1)C=O	O[C@]1(CCC=C1)C=O	
InChI=1S/C6H8O2/c7-5-6(8)3-1-2-4-6/h1,3,5,8H,2,4H2	InChI=1S/C6H8O2/c7-5-6(8)3-1-2-4-6/h1,3,5,8H,2,4H2/t6-/m1/s1
