19
gdb 74475	3.06139	1.41527	1.10773	2.2729	83.75	-0.214	0.0105	0.2245	1143.9095	0.160675	-382.026294	-382.018384	-382.01744	-382.058433	31.379	
C	-0.0265098322	 1.4992846925	 0.0787529515	-0.499524
C	-0.0280516359	 0.0074317164	-0.0003274226	 0.356547
C	 0.0043392817	-0.7639016664	-1.0947604114	-0.283291
C	-0.0067881192	-2.2188880677	-0.7625848511	 0.39473
C	-0.72971293	-3.2115475645	-1.6070261078	-0.29845
N	 0.737930869	-3.2263933214	-1.5394766536	-0.355174
C	 0.0354963429	-2.2707193267	 0.7450688828	-0.140931
N	 1.2523533075	-1.653794586	 1.3225456109	-0.337846
C	-0.0113972784	-0.866192337	 1.2223020239	-0.163332
H	 0.8630810757	 1.8627524217	 0.6086453869	 0.136088
H	-0.0428730331	 1.9559204549	-0.9144513453	 0.123435
H	-0.8962657437	 1.8697293316	 0.6364280266	 0.12413
H	 0.0652316304	-0.4042351865	-2.117423861	 0.088481
H	-1.2153968511	-4.0652982114	-1.1393951904	 0.11513
H	-1.2202598515	-2.8499168187	-2.5077932774	 0.108505
H	 1.1367580122	-2.7952827645	-2.3704714612	 0.231372
H	-0.4414693098	-3.0891873244	 1.2726549638	 0.088244
H	 1.3458310256	-1.9937350433	 2.2791818112	 0.226746
H	-0.5184965301	-0.5645362388	 2.1333221942	 0.08514
124.4033	182.8891	188.8364	236.4521	275.493	356.4954	425.5371	478.0425	525.7999	601.2249	628.8193	815.5011	836.2609	841.2057	848.975	867.7706	898.9227	916.1058	925.0593	948.6263	981.3766	1020.1977	1048.7915	1066.4644	1079.7456	1125.0723	1137.9454	1159.0315	1172.563	1253.8008	1259.2994	1269.7209	1323.9441	1348.2773	1393.9506	1413.5142	1438.0043	1478.7504	1489.2118	1508.6393	1700.2881	3017.06	3063.4476	3094.5587	3111.1061	3159.6417	3173.5389	3176.981	3179.7831	3469.0455	3491.9669
CC1=CC2(CN2)C2NC12	CC1=C[C@]2(CN2)[C@H]2N[C@@H]12	
InChI=1S/C7H10N2/c1-4-2-7(3-8-7)6-5(4)9-6/h2,5-6,8-9H,3H2,1H3	InChI=1S/C7H10N2/c1-4-2-7(3-8-7)6-5(4)9-6/h2,5-6,8-9H,3H2,1H3/t5-,6-,7-/m0/s1
