19
gdb 93880	2.05657	1.66388	1.04426	4.1352	76.1	-0.2324	0.0215	0.2539	1173.3019	0.159646	-419.215025	-419.205921	-419.204977	-419.249214	33.513	
C	 0.1191325696	 1.3694476562	-0.1682319452	-0.334224
N	-0.0921528602	-0.0261921616	 0.149776676	-0.047479
C	-1.4755894465	-0.4990899411	 0.1382491863	-0.161565
C	-1.372508097	-1.8729466319	 0.7936393299	-0.250182
C	-0.403004975	-1.6029398159	 1.9553914018	 0.125292
O	 0.2184145079	-2.7178995073	 2.5301163927	-0.424498
C	 0.5694700475	-0.5134261154	 1.3575662191	-0.172817
C	 1.8829065733	-1.0980427679	 1.0360070603	 0.301383
N	 2.8948303495	-1.597524233	 0.7844417514	-0.336503
H	 1.1900730146	 1.5757080966	-0.2578008193	 0.136345
H	-0.3459518176	 1.5979752875	-1.1320745318	 0.128422
H	-0.3036043351	 2.0579705394	 0.5876760212	 0.098035
H	-2.1524782996	 0.1574254206	 0.7180685678	 0.084384
H	-1.8528909914	-0.5316474514	-0.8889224691	 0.114189
H	-2.3286918888	-2.2702673312	 1.1391027719	 0.114458
H	-0.9259857561	-2.5920004472	 0.0977499647	 0.114478
H	-0.950078278	-1.1283535004	 2.7757725932	 0.10634
H	 0.8152935704	-3.1126531158	 1.8820830131	 0.294805
H	 0.7348595026	 0.2794780498	 2.104144886	 0.109139
41.0698	135.5546	169.3934	199.5936	232.9878	280.1025	315.7141	347.5446	393.2987	448.1399	475.1248	561.7076	589.0266	667.7293	813.0227	854.8383	914.2686	934.5476	985.6968	1052.9245	1060.6936	1104.0754	1134.6063	1138.9509	1186.7438	1197.3323	1223.0239	1252.2114	1284.456	1310.1784	1319.5219	1358.3634	1364.241	1384.3689	1443.745	1463.5632	1485.2356	1491.8484	1501.9872	1527.1256	2349.4466	2918.0545	2932.1895	2970.365	3049.5712	3065.2747	3066.6014	3069.7875	3109.0545	3122.3392	3779.3972
CN1CCC(O)C1C#N	CN1CC[C@@H](O)[C@H]1C#N	
InChI=1S/C6H10N2O/c1-8-3-2-6(9)5(8)4-7/h5-6,9H,2-3H2,1H3	InChI=1S/C6H10N2O/c1-8-3-2-6(9)5(8)4-7/h5-6,9H,2-3H2,1H3/t5-,6-/m1/s1
