20
gdb 115794	4.099	1.06251	0.948	2.0671	74.84	-0.2491	0.084	0.3331	1285.0089	0.171658	-440.266014	-440.257279	-440.256334	-440.299265	33.323	
C	-0.0515713945	 1.4674537619	-0.0767527262	-0.475422
C	-0.0393895449	-0.0309351541	 0.0675395761	 0.319392
C	-1.3135704598	-0.82309415	-0.1986738927	-0.14801
O	-1.0771686503	-2.1229992292	 0.334252622	-0.288731
C	-0.2021121696	-1.9909859197	 1.4648934721	 0.077096
C	 0.4906494363	-3.3355964829	 1.6480238303	-0.066326
O	-0.4454124467	-4.3785032673	 1.8319294352	-0.422982
C	 0.675647565	-0.7999387709	 1.1222726017	-0.108987
N	 1.2085716455	-0.7402683802	-0.2488363705	-0.37312
H	 0.9236151301	 1.8811440982	 0.1895520697	 0.136312
H	-0.2668676505	 1.7600982879	-1.1107962639	 0.123778
H	-0.8130953686	 1.9210169742	 0.5670314837	 0.118259
H	-2.168028989	-0.3365507708	 0.2989606794	 0.098479
H	-1.5535044735	-0.9386741628	-1.2616909379	 0.111958
H	-0.7891465993	-1.7662236543	 2.3711589486	 0.079292
H	 1.147054829	-3.5269387665	 0.7839975557	 0.086854
H	 1.1192319884	-3.3067100395	 2.5442431225	 0.110272
H	-1.0779501546	-4.3011287197	 1.1082334239	 0.293446
H	 1.2773388971	-0.3368168614	 1.8979657567	 0.095096
H	 1.0081488596	-1.6116369027	-0.7379538264	 0.233345
91.6006	140.4018	183.149	192.7705	225.628	305.494	352.3053	400.2221	431.4165	460.4	521.5963	595.8987	708.1837	766.8317	830.6168	854.815	911.1993	966.923	994.5737	1012.1603	1042.6544	1057.9569	1077.3232	1089.334	1108.6138	1121.3379	1152.6009	1187.3712	1223.8208	1250.726	1285.01	1305.0749	1333.4167	1353.8643	1355.075	1399.3675	1413.1653	1440.7988	1457.8687	1487.4646	1496.4506	1497.9685	1512.9527	2965.084	2977.7213	2982.2838	3032.4935	3062.5763	3077.2563	3091.4842	3126.8147	3163.4075	3473.0743	3800.4667
CC12COC(CO)C1N2	C[C@]12CO[C@@H](CO)[C@H]1N2	
InChI=1S/C6H11NO2/c1-6-3-9-4(2-8)5(6)7-6/h4-5,7-8H,2-3H2,1H3	InChI=1S/C6H11NO2/c1-6-3-9-4(2-8)5(6)7-6/h4-5,7-8H,2-3H2,1H3/t4-,5+,6-/m0/s1
