16
gdb 42668	2.60536	1.92886	1.76593	3.0643	67.31	-0.222	-0.017	0.205	853.748	0.127594	-437.879124	-437.872715	-437.871771	-437.90992	25.895	
O	-0.0455453271	 0.0586447065	-0.124480347	-0.343855
C	-0.0653294792	 1.2559895125	 0.0027842361	 0.484498
C	-1.2328963728	 2.1612350215	 0.1405572869	-0.251859
C	-0.6626595757	 3.4318088824	 0.7829255681	-0.068185
N	 0.7503062327	 3.1833869369	 1.0585607625	-0.301135
C	 1.1455019611	 2.2055910712	 0.029375052	-0.191137
C	 1.1976353166	 2.8774530365	-1.3571837717	-0.079697
O	-0.0350135645	 3.5455015247	-1.6459268131	-0.271315
C	-1.0215108878	 3.4628147859	-0.6614199455	 0.117799
H	-2.2250760966	 1.7740052424	 0.3276094377	 0.112757
H	-1.2141067008	 3.9855268012	 1.5343114052	 0.10858
H	 1.280822313	 4.0458400046	 0.9546661438	 0.225497
H	 2.0787671752	 1.6934395368	 0.2653176967	 0.105051
H	 2.0080298071	 3.6188029818	-1.3737782007	 0.107377
H	 1.3891566372	 2.1457256669	-2.1531565934	 0.123501
H	-1.9198916083	 3.9727564282	-0.9896619878	 0.122124
119.2477	179.576	348.9369	455.9589	468.2641	516.0764	612.5472	647.9167	705.6571	750.1439	780.3178	828.2373	857.0802	873.5976	899.9089	947.6505	961.9175	1013.3877	1047.7611	1079.573	1089.8616	1094.2882	1133.3777	1167.9899	1199.8022	1217.672	1271.2289	1284.3075	1298.0031	1344.06	1380.4029	1426.3432	1429.8714	1514.3927	1851.6051	3003.2999	3042.7313	3114.9033	3173.5053	3184.975	3214.6083	3476.3005
O=C1C2C3NC1COC23	O=C1[C@H]2[C@H]3N[C@@H]1CO[C@@H]23	
InChI=1S/C6H7NO2/c8-5-2-1-9-6-3(5)4(6)7-2/h2-4,6-7H,1H2	InChI=1S/C6H7NO2/c8-5-2-1-9-6-3(5)4(6)7-2/h2-4,6-7H,1H2/t2-,3-,4-,6+/m1/s1
