17
gdb 36246	4.3613	1.13874	1.07048	5.5102	75.33	-0.2405	0.0328	0.2733	1134.1214	0.137637	-380.80178	-380.794528	-380.793584	-380.834103	28.118	
N	 0.0070485424	-1.1415676691	 0.212798987	-0.304634
C	-0.0111398361	 0.0024784853	 0.0528261868	 0.272859
C	-0.0371953447	 1.4489004093	-0.1575188859	-0.385473
C	 1.3492095663	 2.0960571083	-0.0428184714	 0.065007
C	 1.5035671992	 3.6045706485	 0.0151833075	-0.120789
C	 1.4158600705	 3.9875403548	 1.5101304219	-0.087665
C	 1.2051155913	 2.6884713092	 2.2654479156	-0.183675
N	 2.1150750779	 1.9932954062	 1.2692676799	-0.171936
C	 2.6695722262	 3.4012648352	 0.9349560076	-0.023883
H	-0.4234757119	 1.6464078803	-1.1648159848	 0.154645
H	-0.7505970786	 1.8978469304	 0.5389350787	 0.153083
H	 2.0014339864	 1.668174028	-0.8096479125	 0.1046
H	 1.3870411496	 4.3464660826	-0.7652830623	 0.097278
H	 1.232513384	 5.0117870844	 1.8099043524	 0.098296
H	 1.7058123274	 2.6903642028	 3.2364304295	 0.120821
H	 0.2057522115	 2.2574703685	 2.3826065101	 0.10215
H	 3.7123953787	 3.6807783852	 0.91303419	 0.109315
53.4772	117.8699	235.8935	310.9476	396.324	457.7127	492.7119	586.5665	709.5749	757.4139	797.6153	813.211	815.0086	858.5716	889.177	941.5496	962.536	992.0497	1004.8608	1024.3959	1032.1794	1035.2725	1067.7867	1100.2758	1125.3939	1168.6459	1185.0536	1224.008	1246.9644	1274.7571	1300.8577	1319.4741	1364.0823	1409.5729	1463.4316	1524.3609	2364.3887	3047.8201	3051.1307	3066.3588	3101.7975	3108.6637	3188.1496	3195.723	3232.066
N#CCC1C2C3CN1C23	N#CC[C@H]1[C@H]2[C@H]3CN1[C@@H]23	
InChI=1S/C7H8N2/c8-2-1-5-6-4-3-9(5)7(4)6/h4-7H,1,3H2	InChI=1S/C7H8N2/c8-2-1-5-6-4-3-9(5)7(4)6/h4-7H,1,3H2/t4-,5+,6-,7-/m1/s1
