15
gdb 49815	2.92175	1.28915	1.01608	4.4494	68.85	-0.2446	-0.0696	0.175	1137.6163	0.112377	-453.982733	-453.974513	-453.973569	-454.017083	29.389	
N	-0.0852190448	 1.3155255444	 0.0735128148	-0.526639
C	-0.0160809653	 0.0490561102	-0.0148016296	 0.280429
N	-1.0774638526	-0.8201670671	-0.0968203365	-0.303131
C	-0.7306832929	-2.2217863488	 0.0351760777	-0.080805
C	 0.8167273497	-2.2676821708	-0.0330502068	-0.378085
C	 1.2409730327	-0.8003320204	-0.045448742	 0.359496
O	 2.3617104686	-0.3680125566	-0.0561720244	-0.296566
C	-1.2878145667	-2.8436407213	 1.3106416359	 0.152829
O	-2.0223356982	-2.2696886512	 2.0690613008	-0.232459
H	 0.8672978172	 1.686274587	 0.0937918711	 0.236103
H	-1.9880708873	-0.5146307311	 0.2132267285	 0.268173
H	-1.1584682044	-2.8156490091	-0.7885745925	 0.11761
H	 1.2691038814	-2.776198663	 0.8240664768	 0.153559
H	 1.1849825952	-2.7657259157	-0.933343167	 0.15808
H	-0.9811362626	-3.9015293865	 1.474423243	 0.091407
23.0773	96.3406	119.9439	248.4003	311.38	327.0953	371.8326	491.5982	527.5209	626.0862	641.7936	676.8235	713.143	760.8768	849.88	863.9388	914.026	1013.8964	1042.5461	1076.4177	1126.6234	1169.4202	1190.8374	1245.5145	1293.1637	1346.4217	1401.3754	1414.9423	1432.1407	1453.4374	1742.9526	1837.0333	1857.325	2881.4364	2974.8968	3065.348	3111.792	3461.9148	3624.7044
N=C1NC(CC1=O)C=O	[NH][C]1N[C@@H](CC1=O)C=O	
InChI=1S/C5H6N2O2/c6-5-4(9)1-3(2-8)7-5/h2-3H,1H2,(H2,6,7)	InChI=1S/C5H6N2O2/c6-5-4(9)1-3(2-8)7-5/h2-3H,1H2,(H2,6,7)/t3-/m0/s1
