16
gdb 29419	4.55172	0.83973	0.76899	3.7181	74.45	-0.1992	-0.0246	0.1746	1449.3881	0.123597	-437.915652	-437.906918	-437.905973	-437.950549	31.286	
N	 0.1286777884	 1.4844352024	 0.0760662842	-0.604576
C	 0.074325433	 0.0860831619	 0.0242995023	 0.240794
C	-1.0165257692	-0.7280662574	 0.1071815274	-0.102157
O	-0.6269075734	-2.0443701953	 0.1020843393	-0.186394
C	 0.7263338635	-2.0618696896	 0.0036692184	 0.355447
C	 1.3819047063	-3.4001367317	 0.02027457	-0.38455
C	 1.5410087604	-3.9388858882	 1.4400620036	 0.161738
O	 2.553041431	-4.4254860399	 1.8684931534	-0.232812
C	 1.2116122547	-0.7902931103	-0.0386212358	-0.34059
H	 0.8568519543	 1.8701102318	-0.5107581084	 0.24685
H	-0.7529209509	 1.9254247346	-0.150803003	 0.244808
H	-2.0758377804	-0.5483834566	 0.1747651223	 0.122083
H	 0.76055593	-4.1161097593	-0.5350465391	 0.141166
H	 2.3679364091	-3.3650868062	-0.4478142191	 0.136835
H	 0.6268676891	-3.8431960041	 2.0668220757	 0.09169
H	 2.249799764	-0.5017671323	-0.1023581911	 0.109668
30.2792	60.9389	124.2589	218.9235	255.2954	284.3519	381.7238	418.8755	442.0352	610.1983	626.0587	668.632	681.7827	726.9141	750.8595	801.5268	814.5614	950.3645	1000.3457	1024.3306	1047.7619	1106.8859	1148.2375	1172.9451	1194.5828	1276.3433	1288.8396	1343.7579	1417.6004	1441.3277	1450.4793	1581.1129	1652.5166	1680.0869	1836.095	2891.4525	3025.5016	3120.1883	3250.3872	3282.5361	3541.1637	3630.7237
NC1=COC(CC=O)=C1	Nc1coc(CC=O)c1	
InChI=1S/C6H7NO2/c7-5-3-6(1-2-8)9-4-5/h2-4H,1,7H2	InChI=1S/C6H7NO2/c7-5-3-6(1-2-8)9-4-5/h2-4H,1,7H2
