16
gdb 48117	3.13254	1.33519	1.01059	3.1212	72.58	-0.2404	-0.0711	0.1694	1141.4789	0.123587	-437.873324	-437.865206	-437.864262	-437.906853	29.301	
O	-0.8171615456	 1.4033917842	-0.192392924	-0.24758
C	 0.303225474	 1.0159074787	 0.0180783226	 0.094812
C	 1.5455717391	 1.9010141331	 0.1050145124	 0.274203
O	 2.631946948	 1.3851796599	 0.3227705448	-0.367655
N	 1.3522684392	 3.2172659706	-0.1074454262	-0.072987
C	 0.1943733	 4.1220798207	-0.2839768101	-0.17722
C	 1.1657201385	 5.3073821243	-0.1535827924	-0.098653
C	 1.9555571668	 5.2061197707	 1.1277519345	-0.280038
C	 2.3078695869	 4.3037267643	-0.0221169589	 0.001094
H	 0.5604160199	-0.0510903524	 0.1788657358	 0.116229
H	-0.2540775242	 4.0230559614	-1.2756796102	 0.134642
H	-0.5853084986	 4.024518552	 0.4752629332	 0.133314
H	 1.1220105179	 6.2072003401	-0.7497866733	 0.111358
H	 2.6522118795	 6.0203181442	 1.3001600674	 0.127565
H	 1.5094413559	 4.787974551	 2.0258272729	 0.122608
H	 3.2793897527	 4.2360308071	-0.4925211187	 0.128307
62.1716	89.0964	153.1106	166.5025	260.3809	343.158	454.7184	457.0376	581.929	593.0696	684.9688	770.4964	792.9307	836.089	927.9216	950.746	984.9331	1025.4915	1029.2824	1051.9121	1076.5047	1098.1522	1105.985	1150.5008	1189.9319	1205.0962	1264.6814	1306.4767	1355.054	1368.9837	1466.3574	1479.7968	1505.9089	1750.9938	1821.6491	2939.3584	3063.8256	3115.0622	3119.7003	3208.988	3212.8498	3226.5821
O=CC(=O)N1CC2CC12	O=CC(=O)N1C[C@H]2C[C@@H]12	
InChI=1S/C6H7NO2/c8-3-6(9)7-2-4-1-5(4)7/h3-5H,1-2H2	InChI=1S/C6H7NO2/c8-3-6(9)7-2-4-1-5(4)7/h3-5H,1-2H2/t4-,5-/m1/s1
