15
gdb 131617	4.19003	0.96636	0.85416	1.1207	62.94	-0.2734	-0.059	0.2145	1289.2079	0.112186	-491.027973	-491.019731	-491.018787	-491.061832	29.503	
O	 0.0516354055	 1.4209845837	 0.0749239534	-0.415082
C	-0.0187292093	 0.032248842	 0.2748490749	-0.059806
C	-1.4244629423	-0.4848599899	-0.0939276625	-0.020938
O	-1.7384327805	-0.0701921276	-1.4138424986	-0.434578
C	-1.5223002842	-1.9717683941	 0.073049309	 0.333407
N	-1.4639774558	-2.7733071055	-0.9560741168	-0.163951
O	-1.530902773	-4.0429121768	-0.4576813463	-0.148058
N	-1.6309327993	-4.0321525817	 0.9021737925	-0.053113
C	-1.6257533178	-2.7745523078	 1.2460499256	-0.115798
H	-0.3215022145	 1.5773515659	-0.8025790301	 0.292514
H	 0.7230803524	-0.5157096417	-0.3308147976	 0.093729
H	 0.1998467266	-0.1621344255	 1.3307889659	 0.111318
H	-2.1503140911	 0.008440194	 0.5633123769	 0.115998
H	-1.4438424578	-0.759513331	-2.0225386637	 0.30623
H	-1.6995586687	-2.4812443539	 2.2817156474	 0.15813
43.606	116.8791	122.2059	228.5262	292.4374	317.594	365.6799	431.3743	507.5065	524.0684	647.9631	711.1415	803.4585	883.9655	897.1683	904.1286	945.3636	1028.0071	1064.9744	1076.9477	1090.4667	1105.5966	1190.7754	1212.8548	1267.0946	1310.9149	1381.2314	1401.5727	1433.0671	1454.2269	1466.9542	1500.1926	1608.4057	2964.5643	3048.8138	3071.8678	3269.924	3770.4361	3781.8906
OCC(O)C1=NON=C1	OC[C@@H](O)c1nonc1	
InChI=1S/C4H6N2O3/c7-2-4(8)3-1-5-9-6-3/h1,4,7-8H,2H2	InChI=1S/C4H6N2O3/c7-2-4(8)3-1-5-9-6-3/h1,4,7-8H,2H2/t4-/m1/s1
