21
gdb 89440	2.69007	1.70697	1.40884	1.3874	81.42	-0.2321	0.0924	0.3245	1036.7321	0.183078	-387.077203	-387.069199	-387.068255	-387.109059	32.701	
C	-0.2727262709	 1.5324178308	-0.0225656915	-0.396934
C	 0.0565367539	 0.0416367843	-0.0361507486	 0.109515
O	 0.761246486	-0.3348658011	-1.2316710917	-0.318886
C	 2.0588990893	-0.8116211082	-0.8724247539	 0.420967
C	 2.6324298734	-1.6080657782	-2.0172270415	-0.479317
C	 2.907245231	 0.3516369835	-0.2509083529	-0.278146
C	 2.419007394	-0.1044725727	 1.1247924413	-0.08476
C	 0.9376441677	-0.4585272613	 1.1020760365	-0.063416
C	 1.9292379058	-1.4295920273	 0.5521898313	-0.140903
H	 0.6303085564	 2.1444174075	 0.0418542485	 0.120507
H	-0.8158778181	 1.8088372428	-0.9308431546	 0.122281
H	-0.907160488	 1.768629766	 0.8390307148	 0.108617
H	-0.8891401953	-0.5210818698	-0.0269231822	 0.072078
H	 2.7271929398	-0.9807064094	-2.9090555399	 0.126268
H	 3.6221909522	-1.9963178544	-1.7609122255	 0.115466
H	 1.9772481265	-2.4499992029	-2.2612875525	 0.123409
H	 3.9803184875	 0.1673704671	-0.3641502471	 0.095763
H	 2.6743561309	 1.3613603993	-0.6017194953	 0.093138
H	 2.9255554468	 0.0654964951	 2.0677333745	 0.082927
H	 0.4797901909	-0.6552282608	 2.0650512683	 0.086852
H	 2.08363378	-2.4538466106	 0.864344022	 0.084574
154.0637	202.8119	216.3508	220.7452	286.1599	321.7553	422.6055	460.2889	510.0375	605.7963	657.025	696.0681	759.9078	781.3617	847.7072	857.1362	862.4393	906.3676	943.5615	968.2011	978.6817	1002.9129	1004.2317	1047.7301	1063.0559	1092.206	1114.8381	1137.2712	1152.8817	1163.4134	1196.8148	1213.8191	1239.1698	1312.5188	1332.8866	1353.5016	1385.1664	1400.4374	1406.0164	1414.5912	1482.1097	1483.8977	1492.3614	1494.0085	1499.8833	2983.8536	3037.8346	3038.5858	3043.9975	3093.9091	3106.5252	3109.9963	3117.8222	3127.0891	3173.2739	3181.0455	3203.2618
CC1OC2(C)CC3C1C23	C[C@H]1O[C@@]2(C)C[C@H]3[C@@H]1[C@@H]23	
InChI=1S/C8H12O/c1-4-6-5-3-8(2,9-4)7(5)6/h4-7H,3H2,1-2H3	InChI=1S/C8H12O/c1-4-6-5-3-8(2,9-4)7(5)6/h4-7H,3H2,1-2H3/t4-,5+,6-,7+,8+/m1/s1
