18
gdb 66740	2.456	2.34711	1.7985	1.0955	81.33	-0.2075	-0.046	0.1615	860.8738	0.147783	-364.675269	-364.668331	-364.667387	-364.705954	28.977	
C	 0.0845217019	 1.6476093548	-0.0300311834	-0.525975
C	 0.0938726911	 0.1446687641	 0.0175314884	 0.293083
C	 0.5414430845	-0.8581181081	-1.0802330741	-0.113162
C	-0.6271525861	-1.6923388662	-0.7634438764	-0.07931
N	 0.738110379	-1.8796516248	 0.0026264446	-0.184047
C	 0.7625048183	-0.739088896	 1.0681787174	 0.002283
C	-0.2526458913	-0.7694067728	 2.2514697838	-0.270457
C	-1.5415743043	-0.9638027437	 1.4484828871	-0.108514
C	-1.2364981862	-0.6816579601	 0.1652556607	 0.005647
H	 1.095499894	 2.050501514	-0.1569094429	 0.118581
H	-0.5301909106	 2.0109334161	-0.8608812428	 0.124488
H	-0.3330090655	 2.0643552325	 0.893167846	 0.125129
H	 1.179066623	-0.781266222	-1.9520263271	 0.092915
H	-1.0079238951	-2.5961120079	-1.2213151888	 0.106351
H	 1.8117442639	-0.5820182599	 1.3342525783	 0.073074
H	-0.1416923048	-1.6224324762	 2.9307178403	 0.121351
H	-0.1378711425	 0.1374467152	 2.8616067554	 0.114442
H	-2.2672017592	-1.7168979791	 1.7402584434	 0.104121
202.5878	213.9816	236.7529	316.0031	382.5784	509.4578	558.5913	573.0371	638.9549	689.3074	748.1548	763.5184	790.7479	833.7036	861.4364	881.6233	911.6647	923.8083	948.6019	975.5393	1002.4852	1017.4011	1041.1633	1109.2779	1127.9604	1152.5926	1186.6194	1191.4064	1234.8762	1243.0679	1271.5142	1294.7843	1316.9252	1365.1022	1411.1964	1454.4119	1485.951	1492.9369	1582.3259	3008.4972	3025.449	3067.1131	3076.5566	3091.6441	3094.4601	3169.6487	3187.9165	3206.1229
CC12C3C4N3C1CC=C24	C[C@@]12[C@@H]3[C@H]4N3[C@@H]1C[CH][C]24	
InChI=1S/C8H9N/c1-8-4-2-3-5(8)9-6(4)7(8)9/h2,5-7H,3H2,1H3	InChI=1S/C8H9N/c1-8-4-2-3-5(8)9-6(4)7(8)9/h2,5-7H,3H2,1H3/t5-,6+,7+,8+,9?/m1/s1
