17
gdb 18876	3.15916	2.4912	2.10485	1.7284	66.06	-0.2357	0.0612	0.2969	737.197	0.145055	-363.830219	-363.823836	-363.822892	-363.860403	25.726	
O	 0.0247040265	 1.4736544007	 0.1231656837	-0.431619
C	-0.0103703885	 0.0693037257	-0.0275721003	 0.115111
C	-1.3861013914	-0.5538062631	-0.0542289737	-0.063549
C	-2.044537703	-0.4319397866	-1.3799211968	-0.015167
C	-1.6275329082	 0.6578581797	-2.358381772	-0.238308
C	-0.1180600138	 0.3750781343	-2.5693268288	-0.199665
C	 0.2180369421	-0.5778361633	-1.427799055	-0.053203
N	-1.0034573766	-1.4704356177	-1.2143416384	-0.153685
H	 0.9327704206	 1.7408009679	 0.2964191222	 0.284523
H	 0.6117230241	-0.4238010679	 0.7295539188	 0.079752
H	-1.9175256524	-0.9287625722	 0.8153835476	 0.087686
H	-3.0523546467	-0.8323725124	-1.4376637242	 0.090426
H	-2.1927036648	 0.5749167411	-3.2909259932	 0.100827
H	-1.8000923216	 1.6543587042	-1.9459935187	 0.122998
H	 0.0634056163	-0.1121255487	-3.5321980117	 0.103367
H	 0.4869956051	 1.2843351679	-2.5265046839	 0.100389
H	 1.1366991923	-1.1511787397	-1.5550759257	 0.070118
160.0868	231.7368	273.3132	299.6595	481.3315	554.8286	625.9973	705.6015	758.5412	776.493	799.7582	822.9314	852.8949	916.6048	965.9922	973.957	993.4668	1049.3238	1054.779	1061.0811	1088.0908	1145.507	1163.502	1185.3686	1206.864	1233.3824	1264.958	1272.9872	1304.2246	1318.1893	1340.6395	1367.0177	1412.835	1438.355	1472.8777	1500.4617	3025.2712	3052.9711	3064.7216	3098.3918	3108.4094	3116.1501	3149.9268	3162.662	3819.4621
OC1C2C3CCC1N23	O[C@H]1[C@H]2[C@H]3CC[C@@H]1N23	
InChI=1S/C6H9NO/c8-6-4-2-1-3-5(6)7(3)4/h3-6,8H,1-2H2	InChI=1S/C6H9NO/c8-6-4-2-1-3-5(6)7(3)4/h3-6,8H,1-2H2/t3-,4+,5-,6-,7?/m1/s1
