17
gdb 72291	3.19099	1.64158	1.36528	1.4027	66.37	-0.2303	0.0735	0.3037	950.7629	0.137506	-458.913248	-458.906169	-458.905224	-458.944446	28.563	
O	-0.1025324226	 1.4418459614	-0.020678497	-0.450892
C	 0.0199450234	 0.0650762448	-0.0641826987	 0.316813
C	 0.6658944677	-0.693808947	-1.2219393208	-0.349106
C	-0.3521434256	-1.8599628891	-0.9701554629	 0.091548
O	 0.1495235162	-3.0340747955	-0.3427327349	-0.25731
C	 1.0338579338	-2.7570974344	 0.7082701045	 0.023631
O	 0.5312429294	-1.8518877716	 1.6708186155	-0.266334
C	-0.2298645241	-0.788698438	 1.1617757911	 0.046466
C	-1.1406348366	-0.95547068	-0.0092136869	-0.172461
H	 0.6514574715	 1.8012517754	 0.4600087172	 0.290066
H	 0.425296034	-0.202142516	-2.1682428044	 0.115503
H	 1.7384676689	-0.9042502626	-1.1970325899	 0.100924
H	-0.8837210365	-2.1992271239	-1.8577188492	 0.096001
H	 1.2057846574	-3.7011486916	 1.230480332	 0.11941
H	 1.9905184087	-2.3771931586	 0.3156237442	 0.087217
H	-0.6342371899	-0.2145258731	 1.9890991444	 0.111468
H	-2.2145750057	-0.82292536	 0.0233151858	 0.097058
146.0941	202.3458	302.4179	327.1188	341.9674	438.33	452.7818	545.4563	554.2402	631.1186	724.295	754.4749	835.4608	869.7302	916.0348	944.0548	944.7357	985.7245	1016.8491	1025.3215	1055.694	1087.7825	1131.3221	1172.366	1187.96	1209.1743	1219.4351	1242.894	1290.6481	1302.0307	1318.5841	1340.7504	1375.9972	1437.3361	1465.4293	1502.6568	1535.6759	2970.6814	3058.3648	3099.8142	3106.7493	3124.644	3173.1801	3195.1216	3795.406
OC12CC3OCOC1C23	O[C@@]12C[C@H]3OCO[C@@H]1[C@@H]23	
InChI=1S/C6H8O3/c7-6-1-3-4(6)5(6)9-2-8-3/h3-5,7H,1-2H2	InChI=1S/C6H8O3/c7-6-1-3-4(6)5(6)9-2-8-3/h3-5,7H,1-2H2/t3-,4+,5-,6-/m1/s1
