18
gdb 70414	2.29029	1.57857	1.40981	2.8717	72.19	-0.2447	-0.0319	0.2128	1028.2164	0.145732	-439.053283	-439.044499	-439.043555	-439.086626	33.201	
C	 0.109580233	 1.5170086689	 0.0543299642	-0.531396
C	 0.2017376045	 0.0255649388	-0.0154212499	 0.297637
N	-0.8056733336	-0.87260151	 0.6011132066	-0.401194
C	 0.6375420241	-1.008599338	 0.9563543993	-0.087109
C	 1.2627556988	-1.8748516517	-0.1288399363	-0.283164
C	 0.7193156325	-0.8537856246	-1.2056177482	 0.28671
O	-0.2714118863	-1.2910647229	-2.0896672276	-0.497471
C	 1.8003042189	-0.1838533871	-2.024242613	 0.116783
O	 2.8941244545	 0.0975847174	-1.6034584604	-0.265182
H	 1.0626313457	 1.9782811016	-0.2217692789	 0.149106
H	-0.6634117193	 1.8982071767	-0.6227594596	 0.134735
H	-0.1398054761	 1.8436304529	 1.0697979393	 0.121401
H	-1.2673792357	-0.3485185737	 1.3435231739	 0.231772
H	 0.9598063691	-0.8881824789	 1.9831950667	 0.100665
H	 2.354025861	-1.8623874193	-0.1025044477	 0.131467
H	 0.881837853	-2.8938551036	-0.227194512	 0.107937
H	-1.0250081671	-1.5226246636	-1.5266149246	 0.292126
H	 1.4849213032	 0.0493826672	-3.0641545918	 0.095177
68.3255	129.8935	192.764	207.136	250.6907	272.3839	332.949	414.6012	448.677	479.2877	550.5699	619.2012	641.4439	693.3341	755.4283	843.101	881.0069	912.3841	924.2789	975.0121	1015.7323	1044.0443	1070.5096	1103.1308	1116.7144	1136.4836	1152.8641	1218.8089	1235.1959	1287.6635	1328.5286	1384.9639	1406.4369	1423.1894	1435.7041	1465.9876	1483.4236	1498.8788	1825.6567	2907.1819	3028.1451	3069.1816	3092.2766	3107.1358	3138.91	3194.9927	3479.1711	3725.6758
CC12NC1CC2(O)C=O	C[C@]12N[C@H]1C[C@]2(O)C=O	
InChI=1S/C6H9NO2/c1-5-4(7-5)2-6(5,9)3-8/h3-4,7,9H,2H2,1H3	InChI=1S/C6H9NO2/c1-5-4(7-5)2-6(5,9)3-8/h3-4,7,9H,2H2,1H3/t4-,5-,6-/m0/s1
