27
gdb 58184	2.15017	1.20638	0.9596	1.2702	91.84	-0.253	0.0691	0.3221	1433.5961	0.248726	-390.702996	-390.691154	-390.69021	-390.739212	45.467	
C	 0.2331898824	 1.6196278801	-0.403294276	-0.399682
C	 0.0879889759	 0.168888572	 0.0968198659	 0.044655
C	 0.8578659955	 0.0403886372	 1.4232142672	-0.397
C	-1.4061509697	-0.2731353327	 0.177173511	 0.000409
C	-2.1495725784	 0.066750783	-1.1306047345	-0.418169
C	-1.6409045273	-1.7667303976	 0.5948111673	 0.356115
C	-3.1375387971	-2.1339862742	 0.5715456122	-0.424419
C	-0.8533062944	-2.7635081753	-0.2611051551	-0.399627
O	-1.1753487837	-1.9938953651	 1.9359636252	-0.457157
H	 1.2819980193	 1.9292957466	-0.3519230145	 0.107746
H	-0.0930868403	 1.7503570664	-1.4373591479	 0.11235
H	-0.3426584552	 2.3130490938	 0.2227203106	 0.107415
H	 0.5814134029	-0.4751128428	-0.6439768607	 0.072219
H	 0.8804163645	-0.9807487341	 1.7990074073	 0.139205
H	 1.8867798143	 0.3931883754	 1.2923036478	 0.097315
H	 0.397476063	 0.666959564	 2.1983646305	 0.094311
H	-1.8741037488	 0.3264532866	 0.976996327	 0.050583
H	-1.6979642206	-0.4408516804	-1.9907576727	 0.114577
H	-3.2013705476	-0.2205334606	-1.0888643874	 0.1143
H	-2.1234977582	 1.1387281089	-1.3322246462	 0.119098
H	-3.5360991148	-2.2435551191	-0.4400573214	 0.117531
H	-3.2653928149	-3.0862598061	 1.0932134965	 0.119865
H	-3.7394296183	-1.3781315763	 1.0910403182	 0.100847
H	 0.2228656239	-2.6252318338	-0.1377649516	 0.126281
H	-1.0960588761	-3.7849301823	 0.0453403439	 0.117726
H	-1.0999552653	-2.6563190639	-1.3209142635	 0.113087
H	-1.6327790108	-1.3737162397	 2.5141300811	 0.270417
44.973	79.3512	190.7454	200.6346	225.8072	240.7364	248.4073	279.475	287.0849	308.3088	313.7805	350.7035	377.0558	400.9248	423.4554	444.5336	477.0795	513.2703	548.0623	724.7003	803.6064	886.129	925.6003	928.8088	933.662	954.471	968.1659	984.7647	1009.3511	1041.5962	1084.0596	1101.1814	1158.7056	1183.0516	1192.643	1206.6016	1224.805	1296.7014	1318.992	1347.9684	1365.0469	1384.1581	1397.8648	1400.4869	1413.2451	1424.8657	1426.4232	1478.5679	1489.032	1489.6564	1491.3425	1498.6649	1500.3713	1507.5104	1511.9661	1514.4579	1532.101	2953.9227	3011.3045	3020.9905	3027.7024	3028.9844	3045.4282	3051.8635	3077.3076	3090.9571	3099.6509	3113.6656	3116.5742	3121.8563	3125.759	3132.1584	3139.3216	3161.5322	3803.3878
CC(C)C(C)C(C)(C)O	CC(C)[C@@H](C)C(C)(C)O	
InChI=1S/C8H18O/c1-6(2)7(3)8(4,5)9/h6-7,9H,1-5H3	InChI=1S/C8H18O/c1-6(2)7(3)8(4,5)9/h6-7,9H,1-5H3/t7-/m1/s1
