20
gdb 120830	2.48874	0.93441	0.75069	3.9484	77.56	-0.2356	-0.0169	0.2188	1547.5602	0.167786	-440.240408	-440.230205	-440.229261	-440.277112	35.024	
C	-0.0190617561	 1.5034016486	-0.1816293852	-0.231506
O	 0.0294190933	 0.1026072596	-0.0269049715	-0.223549
C	-1.235560628	-0.5075111014	-0.1534603621	-0.095031
C	-1.1543348367	-2.0077790391	 0.040585778	-0.014294
C	 0.1443861292	-2.7348071749	 0.0061017515	-0.25173
N	-0.631205479	-2.6480455312	 1.2451298211	-0.10466
C	-0.108064767	-1.837681727	 2.3349157157	-0.240208
C	 0.6311319845	-2.7232723486	 3.3247968149	 0.159418
O	 1.4368230283	-2.3176940669	 4.1211633745	-0.244383
H	 1.0007621263	 1.8783847859	-0.071936634	 0.134659
H	-0.3998387768	 1.7867331156	-1.1748891494	 0.110048
H	-0.6580245811	 1.9756100827	 0.5802980775	 0.110452
H	-1.9441980061	-0.0717425451	 0.5735495199	 0.094799
H	-1.6545695301	-0.3138375044	-1.1560913446	 0.09853
H	-2.0386063876	-2.5088435714	-0.3525312562	 0.096385
H	 0.2135094395	-3.7226281257	-0.4413184491	 0.114744
H	 1.0364910671	-2.1198443315	-0.0777172898	 0.134666
H	 0.5410506902	-1.007365078	 2.0306836872	 0.138926
H	-0.957509385	-1.4013858497	 2.8820292417	 0.127046
H	 0.3472899549	-3.7978905574	 3.2628738898	 0.085687
55.2751	67.4116	75.6612	102.0544	134.654	195.1595	231.0417	270.6695	335.9513	395.2671	459.9687	500.2577	626.2937	720.3139	781.0554	836.2014	936.8788	944.4078	1019.1368	1041.8984	1056.9996	1082.3292	1107.6177	1124.4348	1149.4996	1168.8459	1173.4372	1188.4205	1229.2752	1255.9957	1278.0385	1330.3241	1339.8343	1402.8606	1414.4767	1422.3379	1462.0795	1479.7275	1485.6739	1499.2976	1506.6452	1523.5977	1837.7357	2887.55	2943.4572	2969.002	2978.3894	3002.2704	3025.1743	3057.7237	3106.7183	3109.938	3122.6556	3197.673
COCC1CN1CC=O	COC[C@H]1CN1CC=O	
InChI=1S/C6H11NO2/c1-9-5-6-4-7(6)2-3-8/h3,6H,2,4-5H2,1H3	InChI=1S/C6H11NO2/c1-9-5-6-4-7(6)2-3-8/h3,6H,2,4-5H2,1H3/t6-,7?/m1/s1
