20
gdb 69967	2.49684	1.89164	1.37456	0.8	77.96	-0.225	0.0609	0.2859	1014.7586	0.170221	-403.081424	-403.073124	-403.07218	-403.113611	32.962	
C	 0.142279833	 1.5440153645	 0.1555737038	-0.503447
C	-0.0354403861	 0.0626776291	-0.0144479292	 0.308292
C	-0.996761211	-0.741319968	 0.7568119205	-0.299592
N	 0.4445289993	-0.9502136777	 1.0331103168	-0.195665
C	 1.0511769781	-1.7779622423	-0.0830925109	-0.066671
C	 0.1924363165	-2.8127452489	-0.8177516577	-0.116566
O	-0.3193489981	-1.7956052377	-1.7200768632	-0.33739
C	 0.5801994106	-0.7919158341	-1.1598984797	 0.386648
C	 1.4260844345	-0.1219447793	-2.2084551102	-0.490711
H	 1.1760887857	 1.8574977323	-0.0213852924	 0.121515
H	-0.5016973349	 2.0959945235	-0.5391100372	 0.125428
H	-0.126478547	 1.8407929392	 1.1734440282	 0.1308
H	-1.4948230161	-0.2512942966	 1.5884113245	 0.11708
H	-1.5894800213	-1.5030026637	 0.2636458705	 0.133341
H	 2.0936336801	-2.0076233165	 0.132751874	 0.089161
H	 0.7779109356	-3.5660774077	-1.3601322942	 0.104796
H	-0.5989443947	-3.315790448	-0.2504212668	 0.108593
H	 0.7969022462	 0.4696065785	-2.8829863015	 0.131735
H	 2.1639809756	 0.5468454617	-1.7559351552	 0.125872
H	 1.9536821439	-0.8695800683	-2.80701794	 0.126779
140.8335	170.9874	204.0401	249.6212	282.9271	300.3575	360.1213	396.5625	470.5697	519.6365	603.8974	625.7188	699.8093	769.9744	826.0934	876.0351	877.9647	902.6894	945.2818	979.144	994.0316	1017.9057	1082.253	1089.4971	1119.1593	1130.1246	1136.1713	1160.4322	1165.7454	1168.1937	1266.5968	1304.2936	1320.7979	1348.8336	1369.9132	1411.3476	1416.0158	1478.1982	1479.7885	1493.3694	1496.2051	1503.4099	1520.7531	3015.5563	3029.7652	3037.559	3062.8901	3092.5297	3105.8531	3111.2726	3120.2444	3121.0852	3129.5594	3216.6119
CC12CN1C1COC21C	C[C@]12CN1[C@H]1CO[C@@]21C	
InChI=1S/C7H11NO/c1-6-4-8(6)5-3-9-7(5,6)2/h5H,3-4H2,1-2H3	InChI=1S/C7H11NO/c1-6-4-8(6)5-3-9-7(5,6)2/h5H,3-4H2,1-2H3/t5-,6+,7+,8?/m0/s1
