19
gdb 30830	2.43763	1.27446	0.88912	2.769	80.75	-0.1835	0.0348	0.2183	1346.3535	0.159113	-419.267522	-419.257786	-419.256841	-419.302885	34.972	
C	-0.4841323376	 1.5283627621	 0.1814542434	-0.364876
C	 0.1083767353	 0.124952785	-0.0449747159	-0.311315
C	 0.8501244099	-0.4245745568	 1.1263593761	 0.211949
C	 2.179944675	-0.6723493112	 1.3496455823	 0.257698
O	 3.1942258413	-0.4656030219	 0.4735085934	-0.44551
N	 2.4109700956	-1.1745806749	 2.599004445	-0.381041
C	 1.2230614972	-1.2461139857	 3.1750784389	 0.334378
C	 0.9528739157	-1.7398883072	 4.5565530275	-0.498465
N	 0.2536760085	-0.8042053302	 2.3296403829	-0.342784
H	 0.3040654723	 2.2474897537	 0.4225779185	 0.127473
H	-1.010073745	 1.8797271962	-0.7120898008	 0.112262
H	-1.2002649157	 1.5321666254	 1.0107918667	 0.102743
H	-0.6967159759	-0.5610351264	-0.3457666757	 0.098791
H	 0.8086116786	 0.1562143919	-0.8855176013	 0.129998
H	 3.9968960801	-0.7525764701	 0.9244958566	 0.297043
H	 0.4847988786	-0.9714289782	 5.1831415201	 0.129958
H	 0.2914804987	-2.6144814103	 4.5583383662	 0.130003
H	 1.8995944371	-2.0263135534	 5.0162407994	 0.155247
H	-0.7318261796	-0.7665271678	 2.5288674168	 0.256449
46.5549	60.5448	118.9753	184.255	221.1127	274.5806	277.2061	304.0297	341.2076	418.3981	479.6983	517.8993	604.2857	646.3295	684.5681	733.5271	775.9835	814.288	968.1969	990.6866	1044.5861	1059.0258	1065.3622	1081.3549	1141.8803	1216.5309	1250.451	1314.6025	1342.3157	1365.4475	1407.0854	1410.3926	1441.2361	1463.1012	1476.7245	1482.5792	1496.8523	1504.1536	1510.9714	1569.392	1694.675	2999.8917	3026.1466	3031.5778	3073.2873	3077.5177	3100.281	3114.5006	3146.9198	3661.6433	3809.9393
CCC1=C(O)N=C(C)N1	CCc1c(O)nc(C)[nH]1	
InChI=1S/C6H10N2O/c1-3-5-6(9)8-4(2)7-5/h9H,3H2,1-2H3,(H,7,8)	InChI=1S/C6H10N2O/c1-3-5-6(9)8-4(2)7-5/h9H,3H2,1-2H3,(H,7,8)
