20
gdb 117198	3.41119	0.94393	0.82088	2.9512	78.04	-0.237	0.034	0.271	1474.8923	0.16968	-440.310341	-440.300401	-440.299456	-440.346142	36.397	
C	 0.3308103367	 1.3393355638	 0.1694089968	-0.372882
C	-0.3340355947	 0.0417910188	-0.2932135536	-0.140147
N	 0.360233856	-0.5729758205	-1.4104575188	-0.332348
C	 0.8685344099	-1.8321675093	-1.3664195043	 0.355369
O	 0.8287547787	-2.5617861924	-0.3864118117	-0.403238
C	 1.4997196097	-2.2841284628	-2.6627244932	 0.275863
O	 1.5723639895	-1.3246740086	-3.6899810414	-0.468462
C	 2.5700661394	-3.345800137	-2.5744357448	-0.308526
C	 1.2035517224	-3.699034798	-3.0947787948	-0.273777
H	 1.3574912732	 1.1538613908	 0.4983750817	 0.12732
H	 0.3605988163	 2.081933072	-0.6357908395	 0.110767
H	-0.2254704079	 1.7763470655	 1.004636567	 0.120066
H	-0.3353362605	-0.7021191456	 0.5066364485	 0.148766
H	-1.3796701147	 0.2331193333	-0.5683727064	 0.105762
H	 0.3919120557	-0.1097544041	-2.3058155139	 0.247785
H	 2.3976850222	-0.8391508408	-3.5808907568	 0.287872
H	 3.3790641219	-3.2744247429	-3.2933390079	 0.111623
H	 2.8363542069	-3.6784589219	-1.5787105994	 0.144186
H	 0.5506076145	-4.2785278316	-2.4538795691	 0.139997
H	 1.0904600547	-3.8481388385	-4.1620228885	 0.124004
32.1529	68.9262	95.3133	173.6007	249.3561	254.3727	312.0397	331.8066	351.0433	392.3602	433.2298	486.8908	554.6574	623.4911	761.0695	771.45	781.6421	827.6513	899.0779	914.2684	933.0376	943.3231	1000.7191	1062.2136	1076.7378	1088.3851	1120.7476	1175.7647	1203.4553	1205.1815	1273.3935	1307.2804	1331.8174	1349.7655	1393.3276	1411.29	1435.6367	1474.7292	1490.7588	1492.8243	1505.6106	1552.3433	1763.7564	3017.9402	3033.0704	3094.4304	3114.3113	3122.1813	3138.96	3147.7567	3235.9503	3250.182	3623.8735	3795.5798
CCNC(=O)C1(O)CC1	CCNC(=O)C1(O)CC1	
InChI=1S/C6H11NO2/c1-2-7-5(8)6(9)3-4-6/h9H,2-4H2,1H3,(H,7,8)	InChI=1S/C6H11NO2/c1-2-7-5(8)6(9)3-4-6/h9H,2-4H2,1H3,(H,7,8)
