18
gdb 76452	2.13241	1.33227	1.21098	3.1663	78.87	-0.2715	-0.048	0.2235	1161.2047	0.145434	-401.96962	-401.959974	-401.95903	-402.003683	34.784	
C	-0.1910431875	 1.5037700202	 0.2245066105	-0.430254
C	-0.0006530731	 0.0230804111	-0.0110993923	-0.048029
C	 0.73786837	-0.555629736	-1.1608011546	-0.048033
C	 1.3982398409	 0.2584167357	-2.2495771816	-0.430253
C	 1.3669296441	-0.6811649384	 0.2641549917	 0.024387
C	 2.5787222437	 0.1045869025	 0.6469533169	 0.105134
O	 2.8461983568	 1.216790138	 0.258834785	-0.26954
C	 1.3016139199	-1.9816526948	 0.8768121162	 0.224767
N	 1.2566352614	-3.0259748352	 1.3735901456	-0.337632
H	 0.6895299948	 2.0852873464	-0.0438174678	 0.163964
H	-1.0410113863	 1.8558682785	-0.369921602	 0.129448
H	-0.4183204962	 1.6971087286	 1.2771321336	 0.132565
H	-0.8253279578	-0.5859533199	 0.3492052788	 0.124172
H	 0.3631515923	-1.517248471	-1.5009582965	 0.12417
H	 1.8614321283	 1.1669913054	-1.8681058663	 0.163972
H	 2.1703145965	-0.3313462357	-2.7527032595	 0.132563
H	 0.6475968908	 0.5327146987	-2.9986160127	 0.129443
H	 3.2495732314	-0.4328013939	 1.3484699848	 0.109157
133.3272	151.9916	152.8071	166.9548	186.4214	212.6579	220.3945	250.8286	360.8756	372.6709	517.0006	522.4288	557.2576	561.7257	716.424	718.2959	805.0157	941.4469	1008.0805	1026.7065	1027.832	1057.9827	1092.8172	1107.5181	1136.1567	1196.3058	1238.277	1306.2664	1380.9888	1413.5332	1419.5606	1425.0347	1449.9773	1483.6891	1498.3316	1503.6505	1516.8795	1799.5279	2346.3632	2921.9369	3044.9591	3046.9488	3103.5627	3104.5987	3140.7976	3151.3884	3166.3312	3173.503
CC1C(C)C1(C=O)C#N	C[C@H]1[C@@H](C)[C@]1(C=O)C#N	
InChI=1S/C7H9NO/c1-5-6(2)7(5,3-8)4-9/h4-6H,1-2H3	InChI=1S/C7H9NO/c1-5-6(2)7(5,3-8)4-9/h4-6H,1-2H3/t5-,6+,7-
