24
gdb 5985	3.73901	0.97411	0.9485	1.2979	81.51	-0.2606	0.0725	0.3331	1386.268	0.220706	-351.410659	-351.399741	-351.398797	-351.446658	39.637	
C	 0.2094901763	 1.4954501236	 0.0075929233	-0.406658
C	-0.0654087859	-0.0125414634	 0.0026993124	-0.170452
C	-1.5513246439	-0.4665095102	 0.0144883319	 0.255451
C	-2.2543327294	 0.0525072457	 1.2838396818	-0.410337
C	-2.2785775453	 0.0663621049	-1.235312864	-0.410338
C	-1.5246518576	-2.0160424804	 0.0057103372	-0.168093
C	-2.8655455158	-2.7440401861	 0.0149951687	-0.102713
O	-2.5763212648	-4.1379183631	 0.0041008009	-0.420689
H	 1.2886683035	 1.6795287842	-0.0011492123	 0.112685
H	-0.2104825149	 1.9954550141	-0.8703208757	 0.11657
H	-0.1946938481	 1.9868738157	 0.8976823499	 0.116559
H	 0.4156845327	-0.4539756574	-0.8800050399	 0.090269
H	 0.4322148002	-0.4627197224	 0.8717174614	 0.090267
H	-2.2477003354	 1.1457270176	 1.3261396909	 0.111594
H	-3.3019431151	-0.2614600322	 1.3214521571	 0.109368
H	-1.7615958803	-0.3206967263	 2.1889535109	 0.108269
H	-1.803166546	-0.2965015732	-2.1538000224	 0.108268
H	-3.3266545957	-0.2475911401	-1.2564134977	 0.109364
H	-2.2729632437	 1.1599896989	-1.265497332	 0.1116
H	-0.9733475218	-2.3591400548	-0.8788945308	 0.098006
H	-0.9559386304	-2.3687768701	 0.8753792552	 0.097994
H	-3.4480639902	-2.4751561414	 0.9090868566	 0.084821
H	-3.4658685564	-2.4649898538	-0.8640812135	 0.084817
H	-3.4108572821	-4.6155228297	 0.0098263402	 0.283378
42.1554	77.0704	101.8839	155.3504	204.0927	251.9735	268.9357	279.5426	300.1456	325.768	327.2234	359.9033	408.7985	418.0461	553.9994	735.3356	776.1901	796.56	864.4066	938.9029	963.9803	988.6188	997.9097	1010.7986	1038.2424	1066.4073	1086.3003	1110.1474	1199.1278	1213.8862	1240.5723	1259.8372	1272.633	1310.5488	1350.8693	1355.2448	1366.5633	1397.7951	1409.1936	1422.8633	1458.4408	1474.6063	1484.1913	1487.9239	1490.0441	1505.5621	1508.8555	1511.5084	1516.072	1529.8088	2976.3916	3002.2345	3009.5661	3021.8567	3028.6316	3034.3532	3040.5731	3043.645	3064.6359	3095.4828	3097.3067	3100.051	3100.3616	3108.0157	3112.6926	3828.0607
CCC(C)(C)CCO	CCC(C)(C)CCO	
InChI=1S/C7H16O/c1-4-7(2,3)5-6-8/h8H,4-6H2,1-3H3	InChI=1S/C7H16O/c1-4-7(2,3)5-6-8/h8H,4-6H2,1-3H3
