19
gdb 12240	3.59649	1.46885	1.12343	3.8258	73.42	-0.2383	0.0395	0.2778	1092.546	0.164807	-365.096011	-365.087094	-365.08615	-365.129707	31.704	
C	 0.0951875316	 1.5785606176	 0.0593159016	-0.390557
C	 0.0384357477	 0.0585259852	-0.1255486946	-0.186365
C	-1.3572597183	-0.5391235959	 0.0261336985	 0.060455
C	-1.4731322327	-2.0914944638	-0.0477432453	-0.411856
C	-2.0756212735	-2.002336765	 1.369683701	 0.411087
O	-2.5541579731	-2.7639124147	 2.1706471084	-0.376455
N	-1.893269342	-0.6406389467	 1.3984748932	-0.071983
C	-2.3852980121	 0.3303289474	 2.3433652989	-0.348115
H	 1.10795506	 1.9561117868	-0.1101562678	 0.120093
H	-0.5710101843	 2.08758926	-0.6461312739	 0.117323
H	-0.2018176061	 1.8755578801	 1.0695963713	 0.123319
H	 0.4002420305	-0.1974609425	-1.1298110017	 0.105316
H	 0.7117018469	-0.4362066646	 0.5855977433	 0.102628
H	-2.0601023021	-0.027047648	-0.6469142328	 0.075301
H	-2.158250426	-2.4818150049	-0.8022989375	 0.129135
H	-0.5213179996	-2.6240741648	-0.1047801878	 0.126826
H	-2.9333956479	-0.216367054	 3.1153062969	 0.15973
H	-1.5767660505	 0.8929327358	 2.8234942666	 0.129751
H	-3.0669142485	 1.043555942	 1.8631093216	 0.124366
81.9556	104.5174	128.6453	168.4313	209.7652	235.0426	264.1884	359.0827	421.8329	527.7263	566.0308	707.0407	723.2568	813.0472	830.9674	953.8179	968.9142	985.3502	1065.071	1075.6034	1087.0339	1105.5377	1149.1055	1181.5867	1199.2778	1239.9056	1287.705	1301.3143	1340.9848	1402.6006	1406.1574	1417.1587	1444.578	1464.3385	1477.3059	1485.7698	1501.5223	1504.7698	1518.4117	1875.6845	2998.5541	3015.6559	3021.8793	3036.8735	3060.2524	3069.0253	3081.0447	3103.2474	3112.7415	3122.5717	3139.1819
CCC1CC(=O)N1C	CC[C@H]1CC(=O)N1C	
InChI=1S/C6H11NO/c1-3-5-4-6(8)7(5)2/h5H,3-4H2,1-2H3	InChI=1S/C6H11NO/c1-3-5-4-6(8)7(5)2/h5H,3-4H2,1-2H3/t5-/m0/s1
