23
gdb 116009	1.93861	1.39627	0.89389	1.6487	88.9	-0.2236	0.0209	0.2445	1405.5439	0.204991	-388.308158	-388.298087	-388.297143	-388.343637	36.75	
C	-0.1195166791	 1.6232846549	 0.1374456705	-0.382465
C	-0.0880911902	 0.0947382637	 0.056814356	-0.178139
C	 0.8062523789	-0.5321655569	 1.1338131999	 0.047152
O	 0.3390625776	-0.1426949197	 2.4293003989	-0.279683
C	 0.1774212721	-1.2842835356	 3.2651141477	-0.114383
C	 0.4905905076	-2.4570151575	 2.3842379443	-0.210477
C	 0.8447595674	-2.0474818062	 1.1681518516	 0.304948
C	 1.2652840421	-2.8908147479	-0.0037539045	-0.295084
C	 0.1009766237	-3.3134946096	-0.9197780898	-0.370348
H	 0.8801198514	 2.0466460952	-0.0129582522	 0.109979
H	-0.7795851309	 2.0453025156	-0.62646516	 0.106375
H	-0.4755442685	 1.9460662991	 1.1188584411	 0.136846
H	-1.1008842107	-0.3108017591	 0.168114605	 0.096436
H	 0.2797754176	-0.2181877036	-0.9285891801	 0.092712
H	 1.8313774839	-0.1391429658	 0.9924154358	 0.069858
H	 0.8589686083	-1.2207096449	 4.1300684944	 0.099366
H	-0.8474691401	-1.3059866039	 3.6677007303	 0.102366
H	 0.4489507953	-3.4833408387	 2.7300182206	 0.095061
H	 2.0110729648	-2.3460339035	-0.5967946475	 0.102698
H	 1.7655854804	-3.792634666	 0.3663211267	 0.108266
H	 0.4669285511	-3.9293048136	-1.7475222605	 0.112553
H	-0.6366289308	-3.8970933272	-0.3607562334	 0.120902
H	-0.4139533219	-2.4482594389	-1.3459027248	 0.125059
68.4083	75.9489	113.8148	140.4603	190.4795	216.8447	234.4088	286.7177	312.2917	384.3708	449.3853	574.2496	619.0681	759.0686	777.2466	790.1036	828.9327	865.6576	918.8963	939.1148	965.2211	986.4712	1042.8361	1054.7523	1066.9886	1086.0686	1095.6736	1127.5685	1138.0408	1196.2437	1203.7284	1262.3365	1287.9508	1297.387	1334.5224	1348.8007	1367.4104	1384.6395	1390.4069	1406.7479	1409.0139	1474.5286	1486.1978	1496.466	1497.0817	1508.2411	1508.9893	1524.6605	1722.4778	2912.3287	2960.5623	2984.2039	3022.224	3023.7005	3035.3394	3040.286	3062.8486	3064.493	3099.9523	3108.9503	3121.1639	3126.1485	3201.4596
CCC1OCC=C1CC	CC[C@H]1OCC=C1CC	
InChI=1S/C8H14O/c1-3-7-5-6-9-8(7)4-2/h5,8H,3-4,6H2,1-2H3	InChI=1S/C8H14O/c1-3-7-5-6-9-8(7)4-2/h5,8H,3-4,6H2,1-2H3/t8-/m1/s1
