16
gdb 37544	4.08226	1.76066	1.51643	1.6724	71.82	-0.2507	0.007	0.2576	868.4954	0.126481	-400.640998	-400.635139	-400.634195	-400.670926	24.815	
C	-0.1056862464	 1.6116299728	-0.0413895507	-0.267479
C	 1.4052892742	 1.3074880996	 0.0185174804	-0.098803
C	 1.2192372045	 0.1210107199	 1.0055589991	-0.091233
C	-0.052836479	 0.0717084711	 0.0085071518	-0.150958
C	 1.2529891774	-0.0038643863	-0.8436340128	 0.446082
O	 1.8536497578	-0.1428388323	-2.1199878549	-0.296078
C	 3.1322274468	-0.5019317633	-1.6979179695	 0.08389
N	 3.361596179	-0.8276226797	-0.483498882	-0.296902
C	 1.9967722354	-0.8811426509	 0.103604529	-0.028846
H	-0.5314749545	 2.1045753676	 0.8374266018	 0.099798
H	-0.4935363066	 2.0603977437	-0.9596515864	 0.106954
H	 2.2526793269	 1.9902139754	-0.0006166226	 0.088866
H	 1.1354538487	 0.1866836345	 2.0894257184	 0.090711
H	-0.8563196153	-0.6635203536	 0.0411030722	 0.089533
H	 3.869513234	-0.4735632394	-2.4923785613	 0.139794
H	 1.6929670874	-1.9282163589	 0.2186613074	 0.084671
212.2632	302.3984	327.4068	506.7938	514.7774	572.1382	686.475	705.256	814.1364	827.9588	861.4935	877.7404	906.5714	915.6745	927.2742	956.7518	967.1645	1005.4315	1023.6979	1038.9195	1055.3767	1073.9598	1118.6222	1139.6969	1151.2494	1168.055	1183.4811	1216.8448	1242.9435	1279.2703	1312.6467	1324.0782	1368.4104	1508.965	1613.0624	3040.1543	3052.1432	3111.1425	3121.9327	3128.8087	3138.8265	3218.8652
C1C2C3C1C21OC=NC31	C1[C@H]2[C@H]3[C@@H]1[C@]12O[CH][N][C@@H]31	
InChI=1S/C7H7NO/c1-3-5-4(1)7(3)6(5)8-2-9-7/h2-6H,1H2	InChI=1S/C7H7NO/c1-3-5-4(1)7(3)6(5)8-2-9-7/h2-6H,1H2/t3-,4+,5-,6-,7-/m0/s1
