16
gdb 71751	2.9136	2.27445	1.7076	0.4965	65.05	-0.2332	0.0708	0.304	806.8148	0.12697	-437.828942	-437.823053	-437.822109	-437.858774	25.588	
O	 0.1264086307	 1.3604030473	 0.1332570347	-0.500838
C	 0.0873989199	-0.0207970583	 0.1030705576	 0.432736
C	 0.8936394109	-0.7729518751	 1.1307680537	-0.215211
N	 0.5797637239	-2.1663496579	 0.7539229233	-0.135437
C	 0.3682559173	-2.18694559	-0.7142189749	-0.055863
C	-0.8014276476	-2.1741657096	 0.2127629445	-0.055863
C	-1.2977669919	-0.7429053886	-0.0555726095	-0.02874
O	-1.1926937481	-0.5682553561	-1.5046308122	-0.314676
C	 0.2395887883	-0.7597005697	-1.2739367249	-0.028741
H	-0.4396610581	 1.6725637609	-0.5853747094	 0.288588
H	 1.9700349949	-0.5938435694	 1.0507442717	 0.118487
H	 0.5723368778	-0.578573969	 2.1584319213	 0.118487
H	 0.7269438455	-3.0400375636	-1.2750272398	 0.103302
H	-1.4407225932	-3.0163550139	 0.4428669748	 0.103302
H	-2.2368035818	-0.3922633114	 0.3699063915	 0.085234
H	 0.8729338113	-0.4262395255	-2.0945770625	 0.085234
284.1721	297.1514	412.3879	467.1021	511.9742	525.4797	636.6988	699.0948	707.8671	738.8415	788.1053	819.3363	863.2035	875.2304	899.1036	916.2212	936.6898	981.1959	1026.1013	1043.3434	1064.1294	1095.7147	1113.8388	1151.9755	1152.5115	1204.726	1219.9883	1232.5042	1275.0402	1280.5137	1288.0385	1327.704	1373.6198	1427.2287	1495.1472	3056.5045	3107.245	3136.333	3138.8776	3195.41	3204.9871	3762.0293
OC12CN3C4C3C1OC24	O[C@@]12CN3[C@H]4[C@@H]3[C@@H]1O[C@@H]24	
InChI=1S/C6H7NO2/c8-6-1-7-2-3(7)5(6)9-4(2)6/h2-5,8H,1H2	InChI=1S/C6H7NO2/c8-6-1-7-2-3(7)5(6)9-4(2)6/h2-5,8H,1H2/t2-,3+,4+,5-,6+,7?
