19
gdb 97105	2.541	1.36651	1.03569	0.9293	80.44	-0.237	0.0164	0.2534	1222.6402	0.158147	-419.166656	-419.157364	-419.15642	-419.201006	33.355	
C	 0.0236520168	 1.4162586017	 0.0132018371	-0.341188
N	 0.1917117547	-0.0288962327	-0.0573087154	-0.344858
C	 0.5120176651	-0.6612542894	 0.9737055769	 0.425821
O	 0.7539698076	-0.2243764601	 2.2727028296	-0.282223
C	 1.0787380439	-1.5779833873	 2.7248796139	-0.148753
C	 0.788380071	-2.0934984697	 1.3174184149	 0.175597
C	 0.1031975662	-3.3048777772	 0.797543973	-0.305289
N	 1.5305737898	-3.0969220075	 0.5885040182	-0.130751
C	 1.9727742045	-2.7705052943	-0.7677399904	-0.327721
H	 0.6715487619	 1.8884799418	-0.7332035689	 0.12772
H	-1.0082941458	 1.6705487778	-0.2534100046	 0.128652
H	 0.247568177	 1.8443148007	 0.9969070923	 0.129164
H	 2.1214203065	-1.6509220967	 3.0435562949	 0.128136
H	 0.4030470598	-1.8981498818	 3.5220049305	 0.122227
H	-0.1674960943	-4.1108181711	 1.4751747751	 0.121589
H	-0.5722171665	-3.1505835031	-0.0431723257	 0.129494
H	 1.2767338325	-2.1155514003	-1.3074453607	 0.143252
H	 2.9446380988	-2.2711090467	-0.7126693386	 0.125857
H	 2.0993567806	-3.7049958142	-1.3220362019	 0.123273
75.7062	114.4205	123.3753	165.3626	210.045	221.2367	248.411	321.6271	410.4267	424.7313	508.8951	644.8977	707.5395	755.0659	776.9112	894.9687	926.7907	965.1017	1025.9389	1048.5428	1078.7181	1087.2173	1114.6772	1131.938	1142.9085	1146.6975	1161.4617	1176.8499	1207.6352	1242.088	1317.4899	1434.2686	1440.8038	1453.6309	1491.9339	1494.1858	1497.1503	1499.7637	1511.0401	1514.1525	1838.3765	3016.6454	3018.6896	3060.6507	3082.6911	3089.8989	3090.3018	3092.1485	3112.0846	3121.6437	3180.6729
CN=C1OCC11CN1C	CN=C1OC[C@]21CN2C	
InChI=1S/C6H10N2O/c1-7-5-6(4-9-5)3-8(6)2/h3-4H2,1-2H3	InChI=1S/C6H10N2O/c1-7-5-6(4-9-5)3-8(6)2/h3-4H2,1-2H3/t6-,8?/m0/s1
