18
gdb 58856	2.40206	1.51598	1.27508	2.0628	72.52	-0.2531	-0.031	0.2221	1072.9939	0.146333	-439.056444	-439.047728	-439.046783	-439.090004	32.748	
C	-0.0037852902	 1.5656278038	 0.0420978154	-0.414136
C	 0.0187968498	 0.0362392223	 0.0287023497	-0.006644
O	 0.7209117671	-0.5054918713	 1.1409720716	-0.429778
C	-1.3753485691	-0.555907296	 0.0374146987	 0.228687
C	-1.9038481329	-1.6256910182	-0.8567597797	-0.287918
N	-2.5283206624	-0.3102499027	-0.9569424377	-0.162762
C	-3.5086788522	-0.2650934772	 0.1907109531	-0.284354
C	-2.3270523776	-0.3633973047	 1.1727491055	 0.367657
O	-2.1594077025	-0.0953619671	 2.3331817812	-0.331415
H	 1.019292807	 1.9496434157	 0.0612594472	 0.127593
H	-0.513630361	 1.9516024406	-0.8457306512	 0.131177
H	-0.5271296448	 1.9385566053	 0.9292722324	 0.125782
H	 0.5608017607	-0.3101193936	-0.8582999567	 0.095362
H	 0.2176504091	-0.2740387889	 1.9333876703	 0.295876
H	-1.2724372067	-1.8785656717	-1.7041217488	 0.139358
H	-2.4752975949	-2.4583046211	-0.4506884628	 0.124725
H	-4.0033856751	 0.7074439547	 0.2545945338	 0.147512
H	-4.2570787043	-1.06235452	 0.1749668381	 0.133277
58.0176	123.5388	156.9525	188.7425	255.1094	327.509	414.3157	449.5396	459.9125	475.0324	492.154	568.2838	673.0998	717.4893	782.1744	847.7	872.6071	916.3925	977.8923	1004.1459	1042.8765	1055.4811	1091.8678	1096.2523	1114.2777	1134.8882	1193.4423	1233.5903	1253.0272	1321.9614	1345.2587	1377.1709	1400.5706	1436.4409	1459.0719	1492.1597	1498.9865	1505.9193	1859.5924	3037.6144	3047.9243	3061.3011	3098.3293	3111.4033	3123.8399	3126.6012	3191.7597	3760.6835
CC(O)C12CN1CC2=O	C[C@@H](O)[C@]12CN1CC2=O	
InChI=1S/C6H9NO2/c1-4(8)6-3-7(6)2-5(6)9/h4,8H,2-3H2,1H3	InChI=1S/C6H9NO2/c1-4(8)6-3-7(6)2-5(6)9/h4,8H,2-3H2,1H3/t4-,6+,7?/m1/s1
