16
gdb 81576	3.37934	1.22918	1.0011	3.8387	65.74	-0.2363	0.023	0.2593	1149.9321	0.12378	-474.975483	-474.967309	-474.966365	-475.008873	30.887	
N	 0.7208633853	 0.2867054653	-0.802181379	-0.530237
C	 0.0172025686	 0.0453503138	 0.3356530343	 0.357858
O	 0.2978446752	 0.5381708953	 1.4132781254	-0.365056
C	-1.1709464259	-0.9025278003	 0.2121767555	-0.067518
C	-2.20706536	-0.7557582866	-0.9386013168	-0.027503
O	-1.2301080193	-1.3213572455	-1.902223946	-0.318817
C	-1.1212561062	-2.1726627483	-0.6871226966	-0.005072
C	-2.6647025032	-2.2317444659	-0.686643655	 0.126663
O	-3.2823898115	-2.6147202426	 0.5014085254	-0.419043
H	 1.483868034	 0.9415634904	-0.7563640497	 0.253878
H	 0.4030105801	-0.0959207676	-1.6790221977	 0.267658
H	-1.5969520969	-1.05163485	 1.2024074545	 0.120657
H	-2.7713024793	 0.1215975899	-1.2556049847	 0.104073
H	-0.3916149621	-2.9817008898	-0.7037783631	 0.108914
H	-3.0789314169	-2.7068644567	-1.581977761	 0.095979
H	-4.2354548719	-2.5403687712	 0.3924147544	 0.297569
34.5606	178.618	181.4823	257.0699	295.8494	347.8172	379.5272	392.6461	490.1543	612.7097	641.8494	653.9774	734.0884	779.1557	848.9967	863.362	896.1935	897.5041	943.1323	998.9118	1085.9773	1112.1027	1123.7445	1124.0464	1157.5142	1189.5639	1200.2012	1237.6039	1260.7978	1296.1996	1356.8037	1373.0186	1428.3469	1589.2884	1791.8095	3063.8509	3121.035	3131.2003	3148.6857	3566.8444	3719.6923	3827.2619
NC(=O)C1C2OC1C2O	NC(=O)[C@H]1[C@H]2O[C@@H]1[C@H]2O	
InChI=1S/C5H7NO3/c6-5(8)1-3-2(7)4(1)9-3/h1-4,7H,(H2,6,8)	InChI=1S/C5H7NO3/c6-5(8)1-3-2(7)4(1)9-3/h1-4,7H,(H2,6,8)/t1-,2-,3+,4-
