19
gdb 109217	4.26145	1.07548	0.95848	2.2843	78.21	-0.2182	0.0223	0.2405	1290.7067	0.159184	-419.206946	-419.19799	-419.197046	-419.240395	33.348	
C	 0.0161848832	 1.4158834467	-0.0920015055	-0.316612
N	-0.0312847212	-0.0259915365	 0.0791488981	-0.373117
C	-1.2297479688	-0.6779659185	 0.0417456895	 0.439031
N	-2.3739573495	-0.0928051736	 0.0107531377	-0.327959
C	-3.421228225	-1.1148146512	 0.1252832442	-0.214611
C	-2.7304902986	-2.4809558873	 0.1357609301	 0.410039
C	-3.3564820268	-3.6907554261	 0.7694844528	-0.489332
O	-1.977629521	-2.6995676592	-1.0707959867	-0.289254
C	-1.2906703779	-2.1790864217	 0.0838702607	-0.182738
H	 1.0307367015	 1.7673279551	 0.1094762054	 0.117335
H	-0.2840786607	 1.7316536305	-1.0998861172	 0.128695
H	-0.6731133164	 1.8797162777	 0.6167890483	 0.154529
H	 0.7622799171	-0.5465166541	-0.2590136825	 0.245031
H	-3.9973384655	-0.9629995678	 1.0483422921	 0.101529
H	-4.1259430734	-1.0331282679	-0.7111970335	 0.114217
H	-4.2938169849	-3.9479569567	 0.263975743	 0.131916
H	-2.6881229306	-4.5526226124	 0.7007551875	 0.130392
H	-3.5847261825	-3.5028344701	 1.8235302443	 0.126321
H	-0.4996382891	-2.8009017569	 0.4959796818	 0.094584
94.2846	130.3369	174.2541	190.5834	218.2047	267.3702	312.2733	363.2874	426.3908	438.1756	475.953	604.1707	703.3655	711.7202	789.2465	838.7764	895.7385	925.9291	971.1381	1010.3499	1034.814	1041.0147	1094.0776	1106.7753	1149.7777	1195.086	1215.5898	1231.4443	1246.9638	1310.6819	1358.7718	1405.0634	1444.825	1451.1966	1476.198	1479.4568	1484.6461	1495.6706	1507.1367	1552.3904	1697.1753	3013.9225	3017.7971	3036.8568	3053.5034	3095.7078	3099.5559	3123.5359	3137.966	3143.9999	3630.6803
CNC1=NCC2(C)OC12	CNC1=NC[C@@]2(C)O[C@@H]12	
InChI=1S/C6H10N2O/c1-6-3-8-5(7-2)4(6)9-6/h4H,3H2,1-2H3,(H,7,8)	InChI=1S/C6H10N2O/c1-6-3-8-5(7-2)4(6)9-6/h4H,3H2,1-2H3,(H,7,8)/t4-,6+/m0/s1
