18
gdb 77192	3.34056	1.04678	0.89412	3.5714	83.32	-0.2692	0.0176	0.2868	1307.6427	0.146551	-364.791051	-364.781897	-364.780953	-364.825108	33.88	
C	-0.0634615312	 1.5926414446	-0.0602858506	-0.425692
C	 0.1258412263	 0.0881651949	-0.0380148771	 0.025915
C	 0.7407280351	-0.6212940009	-1.2907573445	-0.164204
C	 1.4885422629	-1.5899776176	-0.3243604374	-0.24382
C	 1.259338015	-0.567270956	 0.8353378229	-0.200899
C	 2.4032551642	 0.3001586819	 1.0733815939	 0.283807
N	 3.3111131532	 0.995129483	 1.2493330922	-0.335302
C	-0.1552608153	-1.1709694015	-2.2845132697	 0.291952
C	-0.9184136433	-1.6362495212	-3.0893398939	-0.432027
H	 0.8753328563	 2.1105865169	-0.2783201095	 0.141572
H	-0.793855542	 1.8684290242	-0.8278415994	 0.130909
H	-0.4331289223	 1.9599422154	 0.9027159851	 0.12683
H	-0.8108507484	-0.4144116961	 0.2197199478	 0.099223
H	 1.4646825473	 0.05162461	-1.7645862139	 0.118664
H	 0.9163312003	-2.5026632192	-0.1510128749	 0.126492
H	 2.5196551908	-1.8434327449	-0.5698082271	 0.132621
H	 0.9342248951	-0.9891461824	 1.7887915547	 0.124521
H	-1.585167884	-2.0441554209	-3.8081833387	 0.199438
61.0788	118.2286	148.7773	181.2617	231.1585	246.0571	296.5316	394.1796	457.7858	488.7463	540.5993	607.2696	626.6078	640.133	662.4378	779.0487	807.5815	883.4959	935.1085	973.7461	986.1776	1060.4015	1080.5928	1113.5977	1141.1601	1159.6566	1195.2103	1238.3901	1259.2743	1264.149	1327.822	1360.2523	1381.2746	1417.1578	1485.7288	1495.0002	1495.9609	2235.012	2349.1776	3036.59	3042.1897	3069.7009	3085.0537	3092.8197	3104.9299	3115.6522	3152.2771	3503.3639
CC1C(CC1C#N)C#C	C[C@H]1[C@@H](C[C@H]1C#N)C#C	
InChI=1S/C8H9N/c1-3-7-4-8(5-9)6(7)2/h1,6-8H,4H2,2H3	InChI=1S/C8H9N/c1-3-7-4-8(5-9)6(7)2/h1,6-8H,4H2,2H3/t6-,7+,8-/m0/s1
