21
gdb 118251	2.73774	0.79816	0.66908	3.3431	76.43	-0.2596	0.0661	0.3256	1725.7567	0.179755	-461.320482	-461.310019	-461.309075	-461.357134	36.688	
C	-0.5560116923	 1.11747171	-0.7734034271	-0.224325
O	-0.8204752968	-0.2622108785	-0.6822690775	-0.230402
C	-0.7466100105	-0.75397157	 0.6349564099	-0.078631
C	-1.0159403952	-2.2597393188	 0.6254571386	 0.099218
O	-0.83000639	-2.7872868905	 1.9353240254	-0.435537
C	-2.3952268669	-2.6057845845	 0.0531844496	-0.244732
C	-2.6057920529	-4.0949264921	-0.0663496274	 0.101996
C	-3.4246058901	-4.685315777	-1.1310056042	-0.183056
O	-1.9989243281	-4.7290957464	-1.1985957204	-0.237116
H	-0.6303748476	 1.3962400374	-1.8271698275	 0.129568
H	-1.2819395769	 1.7113586123	-0.1953995073	 0.103556
H	 0.4539937811	 1.3633047215	-0.4099772095	 0.107556
H	 0.2470008162	-0.5713916125	 1.0741991699	 0.098325
H	-1.4892687052	-0.2478884924	 1.2822732912	 0.067876
H	-0.2504358031	-2.7439822259	 0.00987308	 0.118448
H	-1.5008037861	-2.3975700584	 2.5079370931	 0.277505
H	-3.1712761605	-2.1773494601	 0.7064573332	 0.082191
H	-2.4997879997	-2.1352095607	-0.9287246144	 0.126912
H	-2.4894846704	-4.6551109426	 0.8613809339	 0.09878
H	-3.916629877	-5.6441191901	-0.9715649028	 0.111688
H	-3.906893388	-4.0339018707	-1.8595004166	 0.110179
59.9256	68.9324	80.2454	114.7747	160.9844	194.8884	239.815	305.9212	313.9887	345.3952	419.4063	440.3491	477.1058	563.6948	788.8186	836.4111	883.5097	916.6797	963.4656	999.6537	1036.2419	1066.9409	1094.6929	1126.7958	1138.1911	1157.975	1168.9916	1173.1867	1185.7261	1209.7771	1232.0959	1242.7669	1292.8873	1304.4259	1323.2572	1382.5291	1405.4889	1423.5675	1443.7296	1466.4766	1482.1472	1487.3797	1502.4214	1524.6616	1530.492	2917.6774	2971.7847	2993.8359	2995.019	3016.9396	3069.7794	3077.8774	3095.7796	3116.3649	3118.0375	3163.3741	3790.1778
COCC(O)CC1CO1	COC[C@@H](O)C[C@H]1CO1	
InChI=1S/C6H12O3/c1-8-3-5(7)2-6-4-9-6/h5-7H,2-4H2,1H3	InChI=1S/C6H12O3/c1-8-3-5(7)2-6-4-9-6/h5-7H,2-4H2,1H3/t5-,6-/m0/s1
