16
gdb 52955	4.46612	0.86778	0.79331	3.4324	83.82	-0.2426	0.0029	0.2455	1462.3469	0.122766	-400.697218	-400.68853	-400.687586	-400.732051	31.283	
C	 0.0339321074	 1.4149620579	 0.0770175403	-0.508815
C	-0.0080916163	-0.0370528668	 0.0225017032	 0.213754
C	-0.0430624392	-1.2410710768	-0.0158389598	-0.105924
C	-0.0659579579	-2.6545170558	-0.0692265194	 0.282057
C	-0.383943154	-3.5402848721	-1.2298588804	-0.328303
C	-1.1879457824	-3.6877947613	 0.0585008282	-0.256051
C	-0.3036773545	-4.3046435557	 1.0878248722	 0.444503
N	-0.4218731786	-5.2410871022	 1.9106399052	-0.553993
O	 0.7540739989	-3.4206011908	 0.8754071582	-0.297763
H	 0.7392681825	 1.7512825785	 0.8446574311	 0.161149
H	 0.3525035562	 1.8431263341	-0.8795414409	 0.154653
H	-0.9483966494	 1.83259285	 0.323553075	 0.155674
H	-0.9270868716	-3.0689846732	-2.0423298708	 0.13888
H	 0.3300062989	-4.3045517928	-1.5200022107	 0.135692
H	-2.2586955891	-3.5605949181	 0.1111454866	 0.132594
H	 0.4183794292	-5.3374806248	 2.4833055322	 0.231894
27.1186	77.647	100.8433	189.7781	298.4765	318.1532	403.6434	425.0201	456.0949	521.5101	568.0004	647.7194	729.0905	835.7998	852.18	870.4035	936.5042	946.32	970.8554	995.5235	1038.0594	1049.4657	1053.6561	1072.5253	1086.3959	1146.1228	1239.0333	1289.0493	1404.0075	1418.6146	1472.5684	1476.432	1482.0618	1835.5497	2366.5725	3029.5662	3091.5171	3094.9046	3128.4354	3224.6262	3238.853	3479.3489
CC#CC12CC1C(=N)O2	CC#C[C@]12C[C@H]1[C]([NH])O2	
InChI=1S/C7H7NO/c1-2-3-7-4-5(7)6(8)9-7/h5,8H,4H2,1H3	InChI=1S/C7H7NO/c1-2-3-7-4-5(7)6(8)9-7/h5,8H,4H2,1H3/t5-,7-/m0/s1
