20
gdb 96302	2.11595	1.62428	0.99447	2.786	76.24	-0.2201	-0.0185	0.2016	1211.1607	0.171354	-440.282131	-440.27338	-440.272436	-440.316078	32.777	
C	 0.2317099113	 1.4217331677	-0.1155269638	-0.321104
N	-0.0061499321	-0.0169144638	-0.1070982958	-0.08002
C	-1.3417010698	-0.3402616187	-0.5943545964	-0.139905
C	-1.5098810673	-1.8102902132	-0.9653558994	-0.083997
O	-1.3892071472	-2.6834331529	 0.1456361563	-0.239893
C	-0.0757829385	-3.0901661465	 0.4392716088	-0.181667
C	 0.8197815614	-2.0322867921	 1.0923983162	 0.363828
O	 1.907674274	-2.3454742083	 1.5129774575	-0.295091
C	 0.2905884525	-0.6024053369	 1.2049885602	-0.253692
H	 1.2639284285	 1.6288580124	 0.1800829756	 0.128035
H	 0.0869059548	 1.8103290427	-1.1282125282	 0.121396
H	-0.4386604766	 1.9814028076	 0.5632587364	 0.097166
H	-2.1225985474	-0.0676212419	 0.1427606339	 0.08675
H	-1.5289550712	 0.2526175626	-1.4972620342	 0.100906
H	-2.5178356674	-1.9610374119	-1.3671778481	 0.10849
H	-0.7829719576	-2.0824084941	-1.7449715357	 0.098621
H	-0.1476186218	-3.9279861417	 1.1405007813	 0.140458
H	 0.446181223	-3.4619383261	-0.4573168126	 0.123784
H	 1.0851891516	-0.0287335477	 1.6852989794	 0.121498
H	-0.5913812302	-0.5935938271	 1.8734594984	 0.104437
44.6461	100.3828	180.7397	235.425	277.1177	328.9224	353.7277	405.3791	414.2753	484.0615	516.7544	553.2737	569.9121	755.6818	816.0387	879.3246	926.9533	977.6992	1014.1738	1037.6538	1083.5795	1105.7752	1126.6903	1154.1734	1170.1538	1214.2767	1259.1947	1273.8712	1289.8023	1330.5069	1343.3392	1358.1826	1374.0903	1406.8272	1414.6484	1448.8507	1455.3322	1467.5532	1489.1524	1491.9551	1498.1305	1506.7623	1817.7008	2913.508	2925.5541	2937.2815	2984.1512	2998.2933	3057.5658	3066.9671	3072.6268	3083.067	3108.622	3115.4084
CN1CCOCC(=O)C1	CN1CCOCC(=O)C1	
InChI=1S/C6H11NO2/c1-7-2-3-9-5-6(8)4-7/h2-5H2,1H3	InChI=1S/C6H11NO2/c1-7-2-3-9-5-6(8)4-7/h2-5H2,1H3
