23
gdb 103755	3.03448	1.06585	0.92757	2.3512	82.88	-0.2293	0.0746	0.3039	1400.4057	0.202152	-425.408355	-425.397436	-425.396491	-425.44379	40.555	
C	 0.412984213	 1.6000866917	 0.0921871206	-0.375282
C	-0.0842279843	 0.1562393034	-0.0488229086	-0.235509
C	 0.5649616178	-0.559681109	-1.2134252085	 0.3994
O	 0.3101820435	 0.1055992179	-2.4180123865	-0.484141
C	 1.9236913295	-1.2298132718	-1.0588355738	-0.411478
C	 0.6751921886	-2.0657694234	-1.3031859658	 0.325707
C	 0.1359052976	-3.0107707234	-0.2549707442	-0.457594
O	 0.4697684162	-2.5061105818	-2.6278358875	-0.298155
C	 1.3296741291	-3.5417927601	-3.0689377829	-0.247121
H	 1.4917977907	 1.6277676923	 0.2788359355	 0.112708
H	 0.216363931	 2.1639814779	-0.8228206966	 0.138887
H	-0.0873630443	 2.1056122962	 0.9237122717	 0.104047
H	 0.1111666622	-0.3922646919	 0.8782002282	 0.090342
H	-1.1707373404	 0.1536952509	-0.2005241522	 0.101467
H	 0.2400026969	-0.586598346	-3.0904305955	 0.288109
H	 2.6157425252	-1.10809259	-1.8853905982	 0.112629
H	 2.3855061481	-1.2755885476	-0.0772004267	 0.107047
H	 0.241372213	-2.594102242	 0.7487276831	 0.124677
H	-0.9243419029	-3.2170336301	-0.4333547197	 0.127207
H	 0.6758559766	-3.9642494321	-0.2675256314	 0.116902
H	 2.3865233483	-3.2650931782	-2.9588645714	 0.114655
H	 1.1537881177	-4.4781596795	-2.5235619756	 0.115741
H	 1.1093771073	-3.7067681836	-4.126141804	 0.129756
84.079	99.4906	132.9739	161.3366	180.2119	219.8109	235.1919	258.6143	294.7227	349.753	393.2337	397.9518	417.5834	465.9374	486.2948	628.1015	712.2868	733.8689	794.6025	879.9118	899.9971	933.4774	940.3051	988.4701	1023.2104	1056.6612	1086.211	1101.6993	1126.9455	1170.3979	1182.9055	1214.8685	1226.0583	1271.956	1295.5812	1346.8474	1363.1735	1405.7879	1416.2404	1431.094	1472.8327	1474.89	1478.5203	1482.4422	1495.1479	1498.1492	1505.2238	1511.2791	1512.819	3004.0889	3030.1551	3035.8662	3039.2217	3060.4454	3076.2854	3095.0093	3104.0871	3120.3918	3122.6323	3126.9991	3130.0001	3215.878	3734.3517
CCC1(O)CC1(C)OC	CC[C@@]1(O)C[C@]1(C)OC	
InChI=1S/C7H14O2/c1-4-7(8)5-6(7,2)9-3/h8H,4-5H2,1-3H3	InChI=1S/C7H14O2/c1-4-7(8)5-6(7,2)9-3/h8H,4-5H2,1-3H3/t6-,7+/m0/s1
