19
gdb 93410	2.69671	1.37327	0.95668	4.0042	80.96	-0.2299	-0.0499	0.1799	1235.2542	0.15837	-423.062188	-423.053336	-423.052392	-423.095668	33.274	
C	-0.0783058296	 1.5397774842	-0.0673592231	-0.408632
C	 0.031360049	 0.0183021031	 0.0291438187	 0.046663
O	 0.6283548082	-0.4040360852	-1.1837316773	-0.253161
C	 0.9051518929	-1.7873057681	-1.2499958061	-0.195542
C	 1.8031874772	-2.2563392469	-0.1100050898	 0.356531
O	 2.5191379396	-3.2316575054	-0.2198540957	-0.327482
C	 1.6594685794	-1.4924470371	 1.1361821731	-0.270203
C	 0.7979146653	-0.4671936937	 1.2484313598	 0.304209
C	 0.5209653519	 0.2007171388	 2.5645058963	-0.483894
H	 0.9162975807	 1.994742912	-0.0781868489	 0.132063
H	-0.5845357097	 1.7983660702	-1.0000702874	 0.134944
H	-0.6507570851	 1.9541876953	 0.7653699893	 0.120387
H	-0.9928456815	-0.4015765949	 0.1013693504	 0.081568
H	-0.0246045816	-2.3851021923	-1.2243452111	 0.107864
H	 1.3997573829	-1.9767767946	-2.2049454181	 0.136143
H	 2.228999011	-1.852919095	 1.9883918028	 0.101968
H	 1.0332429028	-0.311766202	 3.3815619158	 0.135217
H	 0.8428151046	 1.248292418	 2.5579100999	 0.144208
H	-0.5545344279	 0.2059561837	 2.7820324713	 0.137149
67.6839	154.7238	194.1234	210.3265	235.3195	299.087	321.9465	363.8539	436.7947	456.641	502.8516	562.0641	613.0104	648.1041	788.8387	857.4521	893.4554	901.061	1010.9722	1014.8877	1026.3243	1071.4486	1099.4164	1143.9752	1152.0634	1177.716	1251.867	1283.8122	1324.4203	1344.8603	1358.0657	1379.2595	1405.8145	1408.7636	1468.5072	1474.698	1478.9216	1493.3579	1501.2133	1684.1961	1783.1047	2894.608	2944.0157	3026.6034	3052.2394	3078.5246	3113.2137	3125.338	3129.0563	3137.011	3170.7471
CC1OCC(=O)C=C1C	C[C@H]1OCC(=O)C=C1C	
InChI=1S/C7H10O2/c1-5-3-7(8)4-9-6(5)2/h3,6H,4H2,1-2H3	InChI=1S/C7H10O2/c1-5-3-7(8)4-9-6(5)2/h3,6H,4H2,1-2H3/t6-/m1/s1
