19
gdb 119761	3.99168	0.83624	0.70347	5.015	81.48	-0.2308	-0.0361	0.1947	1593.0287	0.158363	-423.056938	-423.047741	-423.046797	-423.091858	32.66	
C	 0.0151446741	 1.4174916112	-0.0505112807	-0.227897
O	-0.0058750513	 0.0103299919	 0.0132265392	-0.225531
C	 0.6220581424	-0.597153307	-1.0844571134	-0.145748
C	 0.5708165842	-2.0831023929	-0.9684097236	 0.287567
C	 0.0153472977	-2.796616071	 0.0211242865	-0.279333
C	 0.1705012304	-4.244423409	-0.2271184893	 0.396013
O	-0.2159128594	-5.1550114386	 0.4688910607	-0.338226
C	 0.9288939763	-4.3942582515	-1.5592492913	-0.335398
C	 1.1896649926	-2.955602313	-2.0419665483	-0.315664
H	 1.0440493446	 1.810119437	-0.0642672885	 0.108124
H	-0.5085675412	 1.7934770127	-0.9434550223	 0.108128
H	-0.4937112302	 1.7898048993	 0.8410912455	 0.135151
H	 0.1443438528	-0.2898960963	-2.034881501	 0.103284
H	 1.6781329319	-0.2747323903	-1.1659486996	 0.103248
H	-0.4834040721	-2.3956297816	 0.8919538628	 0.123408
H	 1.8478402327	-4.9624819376	-1.3899257484	 0.132916
H	 0.3210469491	-4.9766618191	-2.2573600764	 0.132915
H	 0.735954659	-2.749464495	-3.0193814217	 0.118502
H	 2.2585970167	-2.7349187693	-2.1532191701	 0.118539
75.3097	82.8632	106.2494	125.4982	166.3881	235.7639	335.5815	376.4092	435.7024	486.6475	554.4132	623.947	683.6466	828.0938	833.8337	878.0862	915.167	986.6055	994.7913	1015.7103	1047.041	1126.2635	1156.7471	1163.3089	1185.5524	1187.8708	1225.7773	1230.3151	1255.1826	1265.9336	1283.4224	1332.7533	1431.0175	1454.2245	1474.9036	1484.9837	1487.2125	1493.7332	1518.1134	1684.4297	1812.507	2921.5604	2932.4347	2973.6781	3018.9842	3026.5751	3051.9962	3068.235	3109.0279	3123.2586	3245.5917
COCC1=CC(=O)CC1	COCC1=CC(=O)CC1	
InChI=1S/C7H10O2/c1-9-5-6-2-3-7(8)4-6/h4H,2-3,5H2,1H3	InChI=1S/C7H10O2/c1-9-5-6-2-3-7(8)4-6/h4H,2-3,5H2,1H3
