17
gdb 92732	2.40291	1.56758	1.18379	3.0311	70.16	-0.2477	-0.0225	0.2252	1088.9577	0.136161	-455.188548	-455.179817	-455.178873	-455.22197	31.901	
C	-0.0001996642	 1.4360068382	-0.1163681564	-0.456833
C	-0.1708432642	-0.0455507064	-0.0101150908	 0.393786
N	-1.2591998276	-0.6468992611	-0.2325793331	-0.281473
C	-1.2733521521	-2.0950657695	-0.0616066016	-0.190847
C	 0.0802386217	-2.7311923682	-0.4152729987	-0.131596
N	 0.44610424	-2.6629004099	-1.8369668507	-0.518321
C	 1.1638802692	-2.0125169951	 0.3777098823	 0.456229
O	 2.0959415968	-2.5077648443	 0.9312755505	-0.302329
O	 1.0188543941	-0.6365417232	 0.4058393841	-0.249459
H	 0.7855321169	 1.6771338783	-0.8393437621	 0.14765
H	-0.9408726694	 1.8916200601	-0.4225269394	 0.150783
H	 0.3144616548	 1.8459700067	 0.8485038817	 0.152459
H	-1.5506710836	-2.3258361284	 0.9776981983	 0.125189
H	-2.0584971112	-2.5173566881	-0.6981632066	 0.11213
H	 0.1164152406	-3.7783669661	-0.1074186764	 0.11454
H	-0.1106953507	-3.3349351496	-2.3560535585	 0.239051
H	 0.2112251787	-1.7478859735	-2.2125152725	 0.239042
99.0102	117.0623	159.936	189.2147	231.6072	267.1529	308.1707	343.6577	467.2902	535.7779	562.8484	609.3016	687.6707	758.5944	830.8882	847.8012	914.3317	924.239	988.2048	1017.6536	1057.4747	1071.3047	1122.9213	1162.2617	1196.8833	1255.7446	1259.0121	1291.2697	1370.4222	1409.3279	1414.9838	1472.352	1474.6303	1479.0589	1660.3571	1763.1928	1892.7148	3004.8847	3050.6578	3062.8038	3098.2671	3108.7599	3169.1674	3488.8714	3569.9675
CC1=NCC(N)C(=O)O1	CC1=NC[C@@H](N)C(=O)O1	
InChI=1S/C5H8N2O2/c1-3-7-2-4(6)5(8)9-3/h4H,2,6H2,1H3	InChI=1S/C5H8N2O2/c1-3-7-2-4(6)5(8)9-3/h4H,2,6H2,1H3/t4-/m1/s1
