19
gdb 70050	3.60428	1.10996	0.9518	3.6453	85.55	-0.2417	-0.0523	0.1893	1268.3964	0.159168	-385.913446	-385.905153	-385.904208	-385.946192	32.002	
C	-0.0497556248	 1.5152631071	 0.0371584827	-0.48262
C	 0.0555916301	 0.009756877	-0.0057071411	 0.34132
C	-0.8075901155	-0.8237987699	 0.8963665401	-0.315609
C	 0.7018100457	-0.798949965	 1.12582875	-0.116432
C	 1.4415834247	-1.8933418587	 0.4627815152	-0.150351
C	 1.2941091261	-1.8615935014	-0.8757864926	 0.21719
C	 0.4882783046	-0.6570629319	-1.3188882204	-0.388372
C	 1.8547582755	-2.8461983803	-1.794504365	 0.072042
O	 1.7093704923	-2.821559598	-2.9989086265	-0.281354
H	 0.8872376138	 1.9877584834	-0.278230515	 0.121004
H	-0.8426666919	 1.8728697727	-0.6301410196	 0.124273
H	-0.2827649609	 1.8709884262	 1.0458449357	 0.115559
H	-1.4140128254	-0.2950575128	 1.6250198556	 0.11478
H	-1.2456551671	-1.7443508247	 0.5236697794	 0.116862
H	 1.0797655837	-0.3449350536	 2.0351394641	 0.093468
H	 2.0115467997	-2.6438254492	 1.0016850884	 0.111528
H	-0.3625223601	-0.9421882675	-1.9475112469	 0.126692
H	 1.1050079606	 0.0162788771	-1.927897299	 0.118199
H	 2.4533810591	-3.6472022006	-1.3039380449	 0.061822
98.0968	164.7556	174.9567	209.2592	282.8828	342.667	386.6342	406.142	458.299	521.517	585.1459	721.8566	728.0247	824.1082	859.7961	884.6865	888.4373	928.6135	950.7619	990.5193	1017.2929	1038.3465	1061.655	1069.266	1088.1737	1102.3615	1179.3249	1208.0426	1248.3648	1276.4823	1311.8364	1365.5148	1395.6006	1419.0711	1421.2562	1472.4128	1486.0106	1492.4984	1501.3976	1659.9382	1776.627	2870.0597	3023.7721	3030.0592	3068.5779	3085.0878	3099.5373	3121.7657	3170.7074	3187.3284	3211.3158
CC12CC1C=C(C2)C=O	C[C@]12C[C@H]1C=C(C2)C=O	
InChI=1S/C8H10O/c1-8-3-6(5-9)2-7(8)4-8/h2,5,7H,3-4H2,1H3	InChI=1S/C8H10O/c1-8-3-6(5-9)2-7(8)4-8/h2,5,7H,3-4H2,1H3/t7-,8+/m1/s1
