20
gdb 65033	2.51904	1.42388	1.2585	2.0841	74.01	-0.2449	0.064	0.3089	1108.4487	0.169573	-440.231147	-440.221881	-440.220937	-440.265355	34.809	
C	-0.0010585998	 1.4705681367	-0.4935018238	-0.477601
C	-0.0150594969	 0.0205696885	-0.0530493293	 0.304262
C	 1.1678941158	-0.8286715137	-0.3367977769	-0.27976
N	 0.8677800725	-0.402197587	 1.0446007619	-0.352366
C	-1.3952556825	-0.6099446534	-0.0254163977	 0.29708
O	-1.8890973282	-0.5307215067	-1.3484396973	-0.483819
C	-1.566320269	-1.9844207628	 0.6712135455	-0.138775
O	-2.5132710383	-1.4386692295	 1.6138310312	-0.272696
C	-2.3607197437	-0.1103074634	 1.0845085378	-0.128476
H	 1.0232136745	 1.8540042602	-0.5391841847	 0.108867
H	-0.4561103165	 1.5762488484	-1.4810220947	 0.147951
H	-0.5650228553	 2.0992886122	 0.2057581505	 0.120698
H	 1.0517850081	-1.8932312013	-0.5214537055	 0.119872
H	 2.0072414069	-0.3717960211	-0.8539496372	 0.113488
H	 1.4774198453	 0.3656827809	 1.314391221	 0.229595
H	-2.7879853962	-0.8760450057	-1.3572444885	 0.28565
H	-2.0128492344	-2.7551882076	 0.0289902409	 0.087354
H	-0.676591957	-2.3772234556	 1.1714664307	 0.125302
H	-1.9223684188	 0.5771670365	 1.8185229993	 0.102775
H	-3.3063561966	 0.3096534743	 0.7148496967	 0.0906
58.4216	69.8381	189.0922	217.2359	246.6394	299.7067	314.1015	344.6662	365.8856	422.983	484.8208	512.4786	572.8154	798.4712	853.9927	862.9561	904.6387	930.7709	934.8133	973.2168	994.504	995.6362	1040.7267	1047.2134	1084.6873	1105.7765	1120.1651	1150.7723	1158.0113	1164.8065	1219.0965	1264.5728	1301.6151	1304.9575	1358.3618	1378.6725	1411.0695	1441.4458	1483.2887	1494.5388	1505.2043	1516.0496	1523.9191	2998.2277	3014.2135	3029.5734	3051.1364	3089.4864	3092.2253	3108.0547	3126.7744	3191.3651	3498.9095	3811.5102
CC1(CN1)C1(O)COC1	C[C@]1(CN1)C1(O)COC1	
InChI=1S/C6H11NO2/c1-5(2-7-5)6(8)3-9-4-6/h7-8H,2-4H2,1H3	InChI=1S/C6H11NO2/c1-5(2-7-5)6(8)3-9-4-6/h7-8H,2-4H2,1H3/t5-/m0/s1
