13
gdb 24758	3.66934	1.31089	0.96584	3.4967	73.36	-0.2481	-0.0907	0.1573	1111.5955	0.090605	-415.666421	-415.659118	-415.658174	-415.698692	26.64	
O	 0.0403671393	-0.0585403036	 0.0030045534	-0.307225
C	-0.0239528577	 1.145008807	 0.0064057516	 0.384508
C	 1.1923082019	 1.9746980931	 0.0004355171	 0.228617
N	 2.1776688384	 2.5778081201	-0.0045844683	-0.317378
N	-1.2033761691	 1.8681751652	 0.0161285593	-0.100193
C	-1.3481592619	 3.2603219162	 0.0206119014	-0.063411
C	-2.6792964193	 3.5353866953	 0.030183745	-0.175114
C	-3.3880412658	 2.2823879865	 0.0317694284	-0.172869
C	-2.467970115	 1.2803075785	 0.0231251973	-0.054881
H	-0.4813917634	 3.8994873787	 0.0164335057	 0.167569
H	-3.1173026434	 4.5214199754	 0.0355812643	 0.123774
H	-4.4592555013	 2.1521563318	 0.0385928858	 0.12337
H	-2.5536777528	 0.2076981857	 0.0210112591	 0.163232
86.613	140.4789	149.8162	270.6226	318.3606	486.7311	506.8075	606.9608	610.9284	676.1116	714.3099	760.8985	774.5291	861.66	871.5658	896.6367	925.0658	1020.8913	1069.7481	1101.2639	1140.658	1286.0451	1325.1378	1362.1562	1439.7198	1514.4172	1603.4754	1792.0104	2352.3844	3251.1783	3262.9601	3288.8226	3301.8589
O=C(C#N)N1C=CC=C1	O=C(C#N)n1cccc1	
InChI=1S/C6H4N2O/c7-5-6(9)8-3-1-2-4-8/h1-4H	InChI=1S/C6H4N2O/c7-5-6(9)8-3-1-2-4-8/h1-4H
