17
gdb 33728	3.30435	1.51621	1.29109	1.8688	77.81	-0.2503	0.0384	0.2887	1000.4345	0.136631	-384.607981	-384.601026	-384.600082	-384.639052	29.031	
C	 0.0045890201	-1.1897049275	-0.0434598136	-0.33911
C	 0.0249366644	 0.012888659	-0.0234713812	 0.028253
C	 0.0435393429	 1.45108267	 0.0084406303	 0.235777
C	-0.2736124589	 2.2839530782	 1.3165242175	-0.255534
C	 0.4522707322	 3.4154000202	 0.5116897792	-0.110869
C	 1.3619041233	 2.2905177366	-0.0486856214	-0.254056
C	-0.574768691	 3.6114079704	-0.6253285975	 0.039569
O	-0.1901323814	 3.0880392154	-1.9090715483	-0.251244
C	-0.8688819854	 2.2278546966	-0.9885124986	-0.008685
H	-0.0082775377	-2.2511814219	-0.064306798	 0.180648
H	-1.3279044874	 2.4274814655	 1.5699386515	 0.10083
H	 0.2860127523	 1.9305002396	 2.1853770741	 0.110835
H	 0.8588518114	 4.3015070015	 0.9956218964	 0.073804
H	 2.0807515435	 1.9388324813	 0.691809092	 0.106711
H	 1.8255260542	 2.4316306237	-1.0223250063	 0.127472
H	-1.2892703421	 4.4271597792	-0.6316230109	 0.10532
H	-1.8264670203	 1.827442222	-1.3016365252	 0.110279
140.4732	155.9756	373.0756	391.2662	485.8906	502.9031	521.9176	531.7362	609.6547	631.7344	637.6547	686.4714	795.8582	818.8806	855.0847	884.6969	902.5911	920.4983	957.8891	966.7224	1000.9744	1019.4847	1054.5563	1083.8968	1098.1781	1163.6449	1173.5453	1213.509	1225.2564	1236.8269	1257.9983	1287.8353	1313.3196	1400.1377	1476.2007	1511.4555	2235.8302	3056.8674	3097.7263	3124.4067	3133.5276	3172.3983	3175.0668	3187.8524	3502.6413
C#CC12CC(C1)C1OC21	C#C[C@@]12C[C@@H](C1)[C@H]1O[C@@H]21	
InChI=1S/C8H8O/c1-2-8-3-5(4-8)6-7(8)9-6/h1,5-7H,3-4H2	InChI=1S/C8H8O/c1-2-8-3-5(4-8)6-7(8)9-6/h1,5-7H,3-4H2/t5-,6-,7-,8+/m1/s1
