17
gdb 28331	4.6693	1.233	0.99756	3.3025	75.33	-0.1886	0.039	0.2276	1153.206	0.139754	-418.063136	-418.055848	-418.054904	-418.094804	28.418	
O	 0.0750020993	 1.3129159272	-0.0368467263	-0.43767
C	 0.0810160476	-0.0384862633	-0.0679165285	 0.336185
C	 0.0484171502	-0.8341893913	-1.1916071264	-0.268153
N	 0.1042825595	-2.1188010507	-0.6759426389	 0.02121
C	 0.0019621804	-3.4769178663	-1.1764113236	-0.17941
C	 0.3846500139	-4.3059743717	 0.0811450471	-0.214418
C	 0.1084953847	-3.3814213759	 1.3025019089	-0.347247
C	 0.1409949613	-2.0248253221	 0.6720099088	 0.384201
N	 0.1341668439	-0.7715718242	 1.0881728477	-0.451715
H	 0.1051598343	 1.5556106192	 0.896511453	 0.298782
H	 0.0228656384	-0.6113623717	-2.2427450244	 0.125137
H	-1.0192992692	-3.6876419697	-1.5188726042	 0.120629
H	 0.6811346132	-3.6492558027	-2.0165349541	 0.123205
H	-0.1672729132	-5.2464805455	 0.1286434021	 0.113313
H	 1.4497254154	-4.549175121	 0.0400442711	 0.1229
H	-0.8732662751	-3.5830474387	 1.7492704609	 0.124238
H	 0.8513841855	-3.5035244115	 2.0948183467	 0.128814
117.4695	172.4764	227.761	310.2965	331.4203	376.147	521.3227	536.4446	640.6339	655.3355	678.7856	723.2273	741.2691	817.7089	878.0277	906.1076	918.4811	1008.7762	1022.4796	1089.8588	1133.3776	1152.2634	1184.167	1214.1312	1230.129	1254.3792	1304.3579	1321.9408	1337.0183	1376.8134	1440.8021	1480.6805	1496.4383	1502.0384	1537.0557	1556.8909	1641.7013	3020.9964	3028.278	3065.7107	3079.7876	3091.2177	3121.7651	3295.8458	3803.0557
OC1=CN2CCCC2=N1	Oc1cn2CCCc2n1	
InChI=1S/C6H8N2O/c9-6-4-8-3-1-2-5(8)7-6/h4,9H,1-3H2	InChI=1S/C6H8N2O/c9-6-4-8-3-1-2-5(8)7-6/h4,9H,1-3H2
