18
gdb 78817	3.72831	1.28874	1.13721	1.1978	81.49	-0.2354	0.0488	0.2843	1114.8402	0.147238	-364.709219	-364.701352	-364.700408	-364.741329	31.134	
C	 0.0372736798	 1.6025990332	-0.0950729917	-0.422881
C	 0.0864046075	 0.0855432036	-0.0802143168	 0.076188
C	 0.7046299969	-0.7562054424	-1.2184426049	-0.097294
C	 1.1922358093	-1.7057504237	-0.0595969636	-0.038651
C	 2.3171796945	-0.7637313993	 0.1210483387	-0.041754
C	 2.1726871172	-0.2205333783	-1.3141202953	-0.216341
C	 2.9913206441	-0.9465656563	-2.2671585043	 0.308471
C	 3.6735676175	-1.5437589459	-3.057109549	-0.442075
N	 1.0385220083	-0.5680698264	 0.8882571356	-0.167297
H	 1.017041955	 2.0539055856	-0.2691726845	 0.125078
H	-0.6478412061	 1.9573312009	-0.8728447956	 0.119742
H	-0.3275862328	 1.968813917	 0.8697716815	 0.130565
H	-0.9050157407	-0.311826017	 0.1640430141	 0.08302
H	 0.1666156127	-1.0203217899	-2.1263778452	 0.083546
H	 1.0385740574	-2.7452923543	 0.1943864051	 0.102339
H	 3.2242025313	-0.8675584609	 0.7005819301	 0.107608
H	 2.2896157965	 0.8574678662	-1.4658437714	 0.096309
H	 4.2767870915	-2.0678059421	-3.7562700328	 0.193429
122.5369	144.9154	180.4147	248.9779	278.2383	398.943	498.3829	503.2775	564.1759	614.746	640.0496	692.728	763.8522	796.9976	828.24	864.4066	880.629	905.9913	929.3615	965.7105	1007.7982	1027.1819	1049.3498	1082.4582	1103.4721	1131.0568	1149.0453	1164.2791	1201.0065	1224.363	1245.791	1277.0548	1326.9808	1347.8192	1395.1859	1412.5084	1486.3599	1502.0113	2235.1812	3038.4329	3044.9773	3050.8709	3105.0245	3123.4193	3141.7065	3207.7888	3221.7181	3504.7264
CC1C2C3C(C2C#C)N13	C[C@H]1[C@@H]2[C@H]3[C@@H]([C@H]2C#C)N13	
InChI=1S/C8H9N/c1-3-5-6-4(2)9-7(5)8(6)9/h1,4-8H,2H3	InChI=1S/C8H9N/c1-3-5-6-4(2)9-7(5)8(6)9/h1,4-8H,2H3/t4-,5-,6-,7+,8-,9?/m0/s1
