20
gdb 121649	5.94061	0.64319	0.6121	2.4111	78.25	-0.2566	0.0036	0.2602	1875.7727	0.17028	-440.300113	-440.290213	-440.289269	-440.336362	34.472	
C	 0.154030672	 1.5446171363	 0.130493046	-0.384499
C	 0.227871642	 0.0159985589	 0.0804114915	-0.190646
C	 0.6243678346	-0.4852930252	-1.2980908727	-0.047887
O	 0.6688726123	-1.9266168014	-1.2477530592	-0.247969
C	 0.9994231271	-2.5452225197	-2.3905274431	 0.461617
O	 1.2637233498	-1.9765405117	-3.4259127552	-0.388226
C	 1.0075265834	-4.0278776721	-2.2287443955	-0.129832
C	 0.3717872521	-4.8149669033	-3.3306247524	-0.21931
N	 1.8223100026	-4.792730616	-3.1849763127	-0.304939
H	 1.1200240749	 1.999438849	-0.1140106489	 0.121893
H	-0.5844201436	 1.9324648951	-0.5794932271	 0.121408
H	-0.1319668848	 1.8883178537	 1.128282931	 0.122107
H	 0.9536105056	-0.3529040212	 0.8141064698	 0.111551
H	-0.7406342587	-0.4196836418	 0.3512909054	 0.110715
H	-0.0934567829	-0.1786534932	-2.0663496216	 0.121704
H	 1.6079782744	-0.1112192438	-1.6013547186	 0.122995
H	 0.9855560375	-4.3993694025	-1.2107641264	 0.109837
H	-0.10830789	-5.7578377439	-3.0862935662	 0.127332
H	-0.0789446678	-4.2495692101	-4.1409378369	 0.133096
H	 2.2043977794	-4.1231565873	-3.8530832472	 0.249055
40.5998	66.7667	95.0814	107.128	180.3479	232.1536	246.4777	295.9532	317.9279	340.463	497.7681	695.3559	759.0158	774.4423	832.6438	870.5428	891.5467	912.5097	935.6451	980.8764	1011.6978	1030.9129	1055.0367	1116.5269	1137.9377	1149.9125	1178.9745	1188.5799	1238.2196	1268.7056	1287.4806	1313.7106	1319.7273	1334.2747	1398.419	1415.9965	1436.3861	1491.8524	1495.368	1500.6104	1504.2436	1519.8985	1794.8563	3035.0076	3037.7095	3047.8017	3067.1708	3090.9209	3107.0239	3113.4194	3116.164	3181.9196	3210.2149	3474.4139
CCCOC(=O)C1CN1	CCCOC(=O)[C@H]1CN1	
InChI=1S/C6H11NO2/c1-2-3-9-6(8)5-4-7-5/h5,7H,2-4H2,1H3	InChI=1S/C6H11NO2/c1-2-3-9-6(8)5-4-7-5/h5,7H,2-4H2,1H3/t5-/m1/s1
