19
gdb 95314	2.74576	1.76275	1.52374	1.1687	69.61	-0.2418	0.0838	0.3257	957.3057	0.161462	-460.168695	-460.161289	-460.160344	-460.200266	29.429	
C	-0.1663367231	 1.56056381	 0.0533684135	-0.412968
C	 0.0398422567	 0.0484279155	-0.025783655	 0.102346
O	 0.7155112262	-0.3464288999	-1.226956072	-0.277942
C	 2.1294350975	-0.2050995122	-1.1924302192	-0.089807
C	 2.6853873818	-0.7774665722	 0.1088607155	 0.034033
C	 2.1232777778	-2.1829821287	 0.4101018365	-0.087911
O	 0.9114005853	-1.9133095207	 1.1200785923	-0.267432
C	 0.7970339008	-0.5038984603	 1.1956353784	 0.179333
O	 2.1234784515	-0.0107764522	 1.185969719	-0.26232
H	 0.783999587	 2.0842231192	 0.1842157667	 0.130401
H	-0.6473776177	 1.9187006258	-0.8602872537	 0.125939
H	-0.8098083719	 1.8144194416	 0.9026558277	 0.116283
H	-0.9299034773	-0.4576793753	-0.079148311	 0.094665
H	 2.5098780262	-0.7480787808	-2.064225195	 0.109923
H	 2.4357567013	 0.8479123661	-1.2798653441	 0.101254
H	 3.7737685111	-0.7076018398	 0.1611729069	 0.090611
H	 1.9087768032	-2.7515600476	-0.500144664	 0.11451
H	 2.7964033483	-2.7615289563	 1.0524167748	 0.106308
H	 0.3176962654	-0.2283635823	 2.1395775027	 0.092774
146.2714	194.2687	215.4618	245.5216	349.3543	374.1335	445.803	486.8223	560.7901	685.0799	780.4084	811.2677	828.1053	844.8599	905.9033	914.0146	950.719	980.3574	997.0096	1041.2036	1060.7144	1088.299	1107.112	1119.5823	1147.4838	1174.8522	1210.0331	1252.5827	1295.4849	1315.3235	1338.3322	1351.9388	1362.0462	1376.2597	1387.0595	1399.1455	1414.1705	1485.7632	1492.5399	1505.22	1518.6639	2996.0889	3035.9229	3042.012	3058.4124	3072.376	3079.0903	3085.0924	3102.208	3111.9113	3130.6948
CC1OCC2COC1O2	C[C@H]1OC[C@@H]2CO[C@H]1O2	
InChI=1S/C6H10O3/c1-4-6-8-3-5(9-6)2-7-4/h4-6H,2-3H2,1H3	InChI=1S/C6H10O3/c1-4-6-8-3-5(9-6)2-7-4/h4-6H,2-3H2,1H3/t4-,5-,6+/m1/s1
