15
gdb 77666	2.24992	1.44083	1.27605	4.0652	64.39	-0.2485	-0.0339	0.2146	1048.9105	0.109643	-494.844872	-494.836252	-494.835308	-494.878207	31.307	
O	 0.0318504885	 1.3548280167	 0.0188110446	-0.425453
C	-0.0902926279	-0.0257051288	 0.0379109865	-0.003467
C	-1.3938397779	-0.760109334	 0.0827432914	 0.221353
O	-1.7189993942	-1.7666620191	 0.9537300386	-0.435996
C	-2.4104050424	-0.0603538771	-0.8080539739	-0.149824
O	-1.4564484749	 0.0288631012	-1.9073558986	-0.315948
C	-0.511102277	-0.7793688897	-1.2140218133	 0.242606
C	 0.2560427153	-1.8279951499	-1.891121786	 0.062086
O	 0.1935819959	-2.0820366001	-3.0687649067	-0.265506
H	-0.3249640049	 1.6486751195	-0.8316072389	 0.306657
H	 0.7039818091	-0.509861544	 0.6039954108	 0.122306
H	-1.3966316169	-1.5377684759	 1.8323625258	 0.303981
H	-3.2473631891	-0.7092506205	-1.0813640032	 0.138596
H	-2.7703477514	 0.9225121777	-0.4865373415	 0.121891
H	 0.923965768	-2.3870848559	-1.1970559558	 0.076719
89.76	127.0038	176.5377	217.0276	250.1152	262.0444	304.5097	372.4212	438.7337	484.3138	569.2559	632.8936	639.0497	738.8122	808.2671	840.837	967.2077	1008.0641	1035.833	1045.4399	1088.4515	1111.0887	1151.3077	1215.8433	1253.029	1272.2296	1336.7641	1359.5341	1396.6718	1427.1278	1474.9383	1513.603	1804.4587	2872.142	3045.6632	3107.4085	3138.2777	3745.7197	3805.3207
OC1C2(O)COC12C=O	O[C@H]1[C@@]2(O)CO[C@@]12C=O	
InChI=1S/C5H6O4/c6-1-5-3(7)4(5,8)2-9-5/h1,3,7-8H,2H2	InChI=1S/C5H6O4/c6-1-5-3(7)4(5,8)2-9-5/h1,3,7-8H,2H2/t3-,4-,5-/m0/s1
