19
gdb 78937	3.42658	1.52799	1.33943	1.3015	77.77	-0.2326	0.0747	0.3073	1015.2502	0.159602	-385.812017	-385.804692	-385.803748	-385.843203	30.521	
C	-0.1719584591	 1.5127082315	-0.0166458645	-0.409799
C	-0.0249372599	-0.0043609606	 0.0198846221	 0.000186
C	 1.1485642907	-0.5583578233	-0.8382818388	-0.053741
C	 1.2502246969	-2.0701459449	-0.5426658435	-0.166048
C	 2.4060146176	-1.9305104227	 0.4402190637	-0.167405
C	 2.1380680622	-0.3966718342	 0.3823993418	-0.046723
C	 0.8044903281	-0.5482073236	 1.2163238838	-0.135992
C	 1.0097110345	-2.0651410242	 0.975667093	 0.407128
O	 0.4935106302	-3.1289021789	 1.6814992466	-0.469234
H	 0.7894851011	 2.0135658182	 0.1429863139	 0.115121
H	-0.5639948221	 1.8487446238	-0.9830149391	 0.111897
H	-0.8594524807	 1.86281713	 0.7610993086	 0.112413
H	-0.9986545196	-0.4859090817	-0.1412421802	 0.050395
H	 1.3540619145	-0.1946928062	-1.8459572601	 0.059394
H	 0.9893297125	-2.9213077455	-1.1588264047	 0.0826
H	 3.2943300612	-2.5304261314	 0.5822088274	 0.091983
H	 2.8641238918	 0.4009239745	 0.5118786479	 0.070608
H	 0.6829571221	-0.19202854	 2.2395330427	 0.063908
H	-0.4091755019	-3.2866343008	 1.3822625296	 0.28331
180.3382	226.2987	246.9538	269.9895	323.7383	371.2508	493.0217	548.1463	611.9434	711.0127	768.5816	784.6148	812.0614	830.7653	861.3511	875.3206	887.7734	915.787	923.6273	942.6903	976.7071	1026.8997	1039.9856	1066.7186	1073.4922	1115.1571	1124.1721	1151.8245	1165.3906	1173.6081	1199.5188	1240.5342	1258.1493	1262.9788	1281.9999	1307.0135	1367.46	1412.1398	1452.9363	1495.4318	1499.8945	3011.6713	3025.8098	3090.0687	3093.6527	3102.4193	3115.6149	3152.0845	3193.4056	3211.0296	3784.0842
CC1C2C3C4C2C1C34O	C[C@H]1[C@@H]2[C@H]3[C@H]4[C@@H]2[C@@H]1[C@@]34O	
InChI=1S/C8H10O/c1-2-3-4-5(2)8(9)6(3)7(4)8/h2-7,9H,1H3	InChI=1S/C8H10O/c1-2-3-4-5(2)8(9)6(3)7(4)8/h2-7,9H,1H3/t2-,3-,4-,5+,6-,7+,8+/m0/s1
