21
gdb 40168	3.01847	1.58889	1.40599	1.2677	82.07	-0.2281	0.0822	0.3102	1026.9021	0.184972	-387.066102	-387.058794	-387.05785	-387.097483	30.716	
C	-0.0605192749	 1.4868006097	 0.0737748656	-0.339436
C	 1.3007099331	 0.8169271908	-0.0422031197	-0.33335
C	 0.0328862514	 0.0002099507	-0.0426801313	 0.48238
O	-0.2980154317	-0.6851067521	 1.1452091068	-0.306975
C	-0.2402550142	-2.1076974046	 1.055470034	-0.084164
C	-0.6475356508	-2.6030189518	-0.3373588978	-0.028796
C	 0.3831256618	-2.0797010279	-1.3729690773	-0.226476
C	-0.4033000329	-0.7418103701	-1.2934597763	-0.086695
C	-1.66187624	-1.5902126915	-0.9447443464	-0.232051
H	-0.3372078782	 1.8806873486	 1.0452519124	 0.12149
H	-0.4369974605	 2.0511598186	-0.7727348876	 0.110642
H	 1.855499434	 0.9250838945	-0.9688850625	 0.107313
H	 1.9087670626	 0.7807559284	 0.854487881	 0.116725
H	 0.7693429504	-2.4733230815	 1.3045218765	 0.08836
H	-0.9306178158	-2.4744777237	 1.8229411663	 0.103854
H	-0.8889702304	-3.6685361654	-0.3200174532	 0.062913
H	 1.4391725822	-2.0675563383	-1.0857275198	 0.09267
H	 0.2720131047	-2.5649586015	-2.3462654401	 0.092137
H	-0.4172528839	-0.0831199708	-2.1645302271	 0.05984
H	-2.1419717868	-1.9880209675	-1.8417814719	 0.094107
H	-2.4092848401	-1.1482165046	-0.2823288716	 0.105511
111.7982	201.7066	293.7963	333.529	390.3437	407.266	425.6593	538.7706	594.5613	688.3124	767.7458	823.635	826.9587	869.5365	878.3686	890.6085	904.5792	935.228	959.2863	968.3457	977.5518	1032.9949	1051.2045	1055.6573	1072.0303	1076.1266	1092.6061	1112.8539	1135.5812	1162.9714	1188.9388	1237.7524	1245.4455	1259.9221	1273.6089	1292.1725	1298.8854	1341.0004	1393.76	1407.4057	1450.5816	1474.8813	1496.4359	1502.736	1514.819	2971.0491	3044.9435	3059.9341	3063.4356	3080.6262	3083.8337	3103.4582	3123.8946	3127.7025	3133.4952	3214.3383	3228.6362
C1CC11OCC2CC1C2	C1CC21OC[C@@H]1C[C@H]2C1	
InChI=1S/C8H12O/c1-2-8(1)7-3-6(4-7)5-9-8/h6-7H,1-5H2	InChI=1S/C8H12O/c1-2-8(1)7-3-6(4-7)5-9-8/h6-7H,1-5H2/t6-,7+
