17
gdb 17299	3.07489	2.4623	1.89439	1.6148	67.04	-0.2249	0.0675	0.2923	769.7611	0.142843	-363.786799	-363.780032	-363.779088	-363.817194	27.583	
O	-0.0470089639	 1.4170694551	-0.0008082406	-0.482155
C	 0.0049266325	 0.0200410222	-0.0131480889	 0.419465
C	 0.4321285333	-0.7178814825	-1.318704449	-0.287594
C	-0.9084871115	-1.5214117569	-1.2894775268	-0.222761
C	-1.3363178813	-0.7653415618	 0.0040672306	-0.066421
C	-0.9214122595	-1.373514745	 1.3652151328	-0.053367
N	 0.3572902616	-2.1023027156	 1.1635989943	-0.335687
C	 0.3712918109	-0.634541303	 1.3517863806	-0.136656
H	 0.858022052	 1.7499864881	 0.001678446	 0.276285
H	 0.5023247477	-0.0202805257	-2.1573183674	 0.094915
H	 1.3427622805	-1.3156169072	-1.2548994894	 0.103864
H	-1.561248282	-1.3234056113	-2.1422331238	 0.094168
H	-0.7892013797	-2.5978812793	-1.1661210924	 0.11313
H	-2.2793126229	-0.2199661468	 0.0101716354	 0.077062
H	-1.5704952847	-1.6356181333	 2.1922282515	 0.089553
H	 0.6071514181	-2.5244085797	 2.0572884291	 0.229878
H	 0.9330114689	-0.1737617473	 2.157240488	 0.086321
169.8118	247.9311	278.1422	295.8944	371.0344	436.8493	529.6043	619.7834	694.9293	730.0222	795.7529	800.171	830.4314	873.4498	918.7605	931.281	944.4241	983.6682	1007.68	1023.7909	1068.019	1089.2374	1108.929	1139.629	1151.1878	1216.276	1225.411	1245.8218	1256.3182	1276.6357	1315.8178	1328.2453	1342.3013	1390.4811	1450.7617	1475.3939	3063.3455	3075.1612	3121.5842	3125.7647	3142.2011	3166.3918	3184.2239	3473.8218	3784.3378
OC12CCC1C1NC21	O[C@]12CC[C@H]1[C@H]1N[C@@H]21	
InChI=1S/C6H9NO/c8-6-2-1-3(6)4-5(6)7-4/h3-5,7-8H,1-2H2	InChI=1S/C6H9NO/c8-6-2-1-3(6)4-5(6)7-4/h3-5,7-8H,1-2H2/t3-,4+,5+,6+/m0/s1
