21
gdb 117448	6.18867	0.51045	0.48407	3.4109	82.28	-0.2508	-0.0229	0.2279	2257.0394	0.178309	-424.266077	-424.255019	-424.254075	-424.304751	37.279	
C	 0.0267665194	 1.6193094334	 0.0372293653	-0.387224
C	 0.1633648802	 0.1008620257	-0.0957075473	-0.161133
C	 0.6099196737	-0.5671877467	 1.2048092634	-0.282199
C	 0.7115542543	-2.0821536366	 1.1238836297	 0.376491
O	 0.3171618551	-2.7096100407	 0.1682793705	-0.296792
C	 1.3633651464	-2.7749549579	 2.3219356437	-0.318369
C	 1.0699042908	-4.2783615947	 2.3782224361	-0.26784
C	 2.0454202962	-5.0097810452	 3.2670418932	 0.158322
O	 1.7477295821	-5.7291765981	 4.184678701	-0.238583
H	 0.9774146694	 2.0841835139	 0.3221973509	 0.113508
H	-0.2922328445	 2.0698721702	-0.9073674931	 0.118386
H	-0.7128838689	 1.8883786268	 0.7998129695	 0.114588
H	-0.7875266441	-0.3404278649	-0.410757107	 0.118445
H	 0.8799487016	-0.1448162449	-0.8874512067	 0.109681
H	 1.5771045984	-0.1717777998	 1.5468332297	 0.116606
H	-0.0908559176	-0.3350157588	 2.0214040261	 0.125876
H	 2.4464717691	-2.599460724	 2.2278990866	 0.131355
H	 1.0665181548	-2.2704037082	 3.2485141781	 0.127659
H	 0.0520326086	-4.479804519	 2.7210051401	 0.127212
H	 1.1646499154	-4.67545193	 1.3585658221	 0.146912
H	 3.1169341796	-4.8323227905	 3.0041758283	 0.0671
34.9526	49.1223	55.1319	71.728	108.5385	127.5918	225.0901	248.9793	274.9197	350.4113	388.3651	468.4715	523.5278	676.1551	707.96	769.0736	820.9085	854.2369	878.8904	911.708	1009.889	1028.9084	1040.5288	1053.4072	1103.4459	1131.5425	1141.9325	1192.4346	1244.4722	1258.4	1306.2168	1314.6796	1329.968	1368.164	1394.7673	1413.8268	1430.7221	1446.4692	1454.5129	1468.3925	1486.3578	1500.8676	1507.5713	1808.3328	1838.6164	2835.7548	3000.8049	3005.9281	3028.603	3031.9565	3035.1914	3048.212	3066.259	3076.5171	3101.07	3105.5193	3112.5732
CCCC(=O)CCC=O	CCCC(=O)CCC=O	
InChI=1S/C7H12O2/c1-2-4-7(9)5-3-6-8/h6H,2-5H2,1H3	InChI=1S/C7H12O2/c1-2-4-7(9)5-3-6-8/h6H,2-5H2,1H3
