15
gdb 75666	2.85207	1.3418	1.11999	3.5653	71.15	-0.2722	-0.0427	0.2294	1091.6708	0.111871	-416.800743	-416.79259	-416.791646	-416.833584	29.804	
C	-0.0535191253	 1.6493226773	 0.0070389703	-0.420512
C	 0.0650474744	 0.1332452153	 0.0623631976	-0.191457
C	 1.1212053692	-0.600844803	-0.7844665702	 0.406421
O	 1.4242152601	-0.6313016698	-1.9317766179	-0.278771
N	 1.6649327934	-1.3865896464	 0.3272109223	-0.188343
C	 2.2031987071	-0.3706962753	 1.2702244241	-0.273962
C	 0.7379250034	-0.5742709611	 1.2549878993	 0.16925
C	 0.0248376485	-1.1931545992	 2.3297123789	 0.223765
N	-0.5757980452	-1.6510144462	 3.2055401089	-0.324941
H	 0.8928356727	 2.1434267016	 0.2430063354	 0.128746
H	-0.351511729	 1.9583445611	-0.9988313818	 0.151263
H	-0.8106150236	 2.005054591	 0.7115594309	 0.142903
H	-0.905087242	-0.3356573217	-0.1374572541	 0.141704
H	 2.7656532679	-0.815209393	 2.0838973977	 0.165526
H	 2.6217563384	 0.5494646594	 0.8712559986	 0.148407
98.04	139.2299	187.2086	194.9909	226.2763	280.868	422.6945	478.663	513.0951	562.0199	634.3173	666.4077	698.4622	757.4276	799.4345	907.5306	946.079	993.4604	1065.7346	1093.3072	1115.6192	1129.224	1154.225	1210.7593	1238.7153	1323.1325	1376.7706	1411.7758	1491.0782	1494.7584	1505.223	1933.8527	2356.8766	3047.8773	3060.8635	3120.851	3122.3997	3124.7625	3221.4857
CC1C(=O)N2CC12C#N	C[C@H]1C(=O)N2C[C@@]12C#N	
InChI=1S/C6H6N2O/c1-4-5(9)8-3-6(4,8)2-7/h4H,3H2,1H3	InChI=1S/C6H6N2O/c1-4-5(9)8-3-6(4,8)2-7/h4H,3H2,1H3/t4-,6-,8?/m0/s1
