19
gdb 71076	2.52609	1.54391	1.31748	3.8999	80.52	-0.2305	0.0126	0.2431	1072.0248	0.15841	-385.876203	-385.867783	-385.866838	-385.90882	32.508	
C	-0.0971887064	 1.4464998602	-0.0027636555	-0.50463
C	 0.0186454999	-0.0497190979	-0.0331899228	 0.280318
C	 0.9927991909	-0.8841261068	-0.8747015013	-0.288132
C	 0.1093493314	-2.107519551	-0.5087314923	-0.237821
C	 0.2929426862	-2.240351522	 1.0160174744	 0.445944
O	 0.5787392273	-3.1527640013	 1.7414593155	-0.349794
C	-0.3159181641	-0.89319605	 1.219248861	-0.288233
C	-1.0547779044	-1.0889794626	-0.137595154	 0.30201
C	-2.521970881	-1.0931514928	-0.413631885	-0.527186
H	 0.78273734	 1.9009592105	 0.4657407296	 0.130407
H	-0.1830655495	 1.8497489118	-1.0179343486	 0.123583
H	-0.9780797042	 1.7699872817	 0.5613096363	 0.122826
H	 0.9146788846	-0.6225993896	-1.934601422	 0.102387
H	 2.0476677431	-0.9213010062	-0.5782880966	 0.101268
H	 0.0336921126	-2.9869672388	-1.1428349629	 0.089272
H	-0.703136047	-0.4393060863	 2.1222013536	 0.102485
H	-3.0094354027	-0.2309344653	 0.0527750498	 0.129221
H	-2.7253237872	-1.0502374426	-1.4895212327	 0.129044
H	-2.9978338895	-1.9977827212	-0.0194915065	 0.137034
113.3948	177.2093	192.8565	198.3625	243.2508	262.5022	350.8697	461.3094	478.6575	534.9735	616.7533	647.3314	700.4311	760.7455	808.9592	820.9623	917.8174	932.852	938.2236	962.7868	995.6401	1056.461	1076.2677	1114.3909	1127.4177	1142.4747	1143.5243	1167.0841	1206.8132	1236.7257	1262.4521	1332.67	1413.5492	1415.9473	1458.1087	1482.1935	1488.1675	1492.5222	1497.1426	1510.658	1873.5732	3026.2715	3027.315	3031.7566	3087.8298	3089.2259	3091.3842	3098.0265	3100.314	3159.4531	3208.1621
CC12CC3C(=O)C1C23C	C[C@@]12C[C@H]3C(=O)[C@@H]1[C@@]23C	
InChI=1S/C8H10O/c1-7-3-4-5(9)6(7)8(4,7)2/h4,6H,3H2,1-2H3	InChI=1S/C8H10O/c1-7-3-4-5(9)6(7)8(4,7)2/h4,6H,3H2,1-2H3/t4-,6-,7+,8-/m0/s1
