16
gdb 52360	6.61671	0.48878	0.47371	5.0294	79.09	-0.266	-0.0614	0.2046	2175.5936	0.12207	-437.887697	-437.877551	-437.876607	-437.925761	32.933	
O	 0.5476650228	 1.0038963026	-1.5281874932	-0.319007
C	 0.2495948051	 1.5693657022	-0.4969602197	 0.147958
N	 1.0725632202	 1.6813332833	 0.5797179658	-0.267939
C	 2.4082095807	 1.1119298729	 0.5827255274	-0.157985
C	 3.4026863123	 1.9411984922	-0.2655910379	-0.352502
C	 4.7460636682	 1.3896379551	-0.239417494	 0.072075
C	 5.858102044	 0.918792018	-0.1982974198	 0.056818
C	 7.1708413763	 0.3290210791	-0.1548170456	 0.018655
O	 8.2054946614	 0.9468572041	-0.2619667796	-0.22823
H	-0.733318482	 2.0505222191	-0.3268028878	 0.084297
H	 0.7537794377	 2.2010208901	 1.3809935853	 0.255336
H	 2.7551132802	 1.0488054572	 1.6165440771	 0.124248
H	 2.3586202746	 0.0984333164	 0.1762809127	 0.1517
H	 3.0335884225	 1.9570864768	-1.2975670295	 0.178201
H	 3.416069399	 2.9798198898	 0.0866429181	 0.137761
H	 7.1679132569	-0.7707984788	-0.0104293392	 0.098615
22.5496	45.1434	59.2618	80.0357	162.1268	185.3514	215.7214	270.9207	369.3782	400.0579	485.1309	501.5689	611.5089	724.2638	812.3765	848.044	977.2197	1013.5785	1022.0665	1036.5095	1079.301	1159.0028	1202.4318	1242.0332	1300.4162	1332.6792	1398.8651	1423.1551	1426.4854	1463.9887	1476.3617	1522.752	1767.2275	1800.6846	2329.605	2916.4018	2946.7696	3034.1342	3070.9332	3076.1345	3125.4022	3645.0279
O=CNCCC#CC=O	O=CNCCC#CC=O	
InChI=1S/C6H7NO2/c8-5-3-1-2-4-7-6-9/h5-6H,2,4H2,(H,7,9)	InChI=1S/C6H7NO2/c8-5-3-1-2-4-7-6-9/h5-6H,2,4H2,(H,7,9)
