19
gdb 115323	2.65694	1.2889	1.05129	2.3147	71.92	-0.2437	-0.0305	0.2132	1223.3348	0.157883	-460.179282	-460.169921	-460.168977	-460.214035	33.36	
C	 0.0897147131	 1.3456757161	 0.1695913242	-0.241257
O	 0.0317233599	-0.065530166	 0.0245238005	-0.24715
C	 0.615049047	-0.5291778576	-1.1602579018	 0.097547
O	 2.0106888369	-0.3688273563	-1.1983034782	-0.254644
C	 2.6037544954	-1.4788368564	-0.5020576018	-0.113878
C	 1.7641521572	-2.6974762468	-0.9051832932	-0.109687
C	 1.7010348197	-3.8613581913	 0.0808624911	-0.407471
C	 0.3975697138	-2.0601135286	-1.1716447763	 0.380885
O	-0.6453538231	-2.6248412237	-1.3515143604	-0.304473
H	 1.1248705077	 1.7047781694	 0.197401164	 0.12705
H	-0.437867448	 1.8480590661	-0.6543959522	 0.112457
H	-0.4060732441	 1.5874748699	 1.1116639747	 0.132048
H	 0.1977946778	-0.0173421312	-2.038010271	 0.092478
H	 3.6483248896	-1.5337489491	-0.8131318031	 0.116911
H	 2.564791378	-1.316022746	 0.5834166188	 0.109994
H	 2.1192714636	-3.0574836108	-1.8810980298	 0.116763
H	 1.3933741748	-3.5166871582	 1.0732801424	 0.129294
H	 0.9699686051	-4.5989961781	-0.2602260956	 0.143747
H	 2.6729573055	-4.3539518815	 0.1766277278	 0.119386
46.9231	105.2508	150.6174	181.0115	198.201	206.56	242.1839	320.8311	366.8596	464.9403	546.0143	605.4632	660.4119	691.9879	828.2139	904.5679	942.6891	956.9115	981.9475	1034.4656	1070.8348	1106.7235	1127.3563	1159.9555	1169.7935	1179.218	1209.6147	1235.9024	1292.1359	1309.5293	1331.7227	1371.1321	1392.7975	1411.5169	1474.3576	1483.8643	1496.5529	1498.5305	1511.1348	1515.2972	1869.3041	2997.7642	3012.2092	3022.2531	3024.608	3042.1677	3069.2587	3110.664	3115.6374	3124.0218	3130.7881
COC1OCC(C)C1=O	CO[C@H]1OC[C@@H](C)C1=O	
InChI=1S/C6H10O3/c1-4-3-9-6(8-2)5(4)7/h4,6H,3H2,1-2H3	InChI=1S/C6H10O3/c1-4-3-9-6(8-2)5(4)7/h4,6H,3H2,1-2H3/t4-,6+/m1/s1
