21
gdb 59537	2.69747	1.20628	1.15547	1.5493	77.77	-0.2331	0.0669	0.3	1218.1824	0.181256	-424.182778	-424.173586	-424.172642	-424.216534	35.33	
C	 0.0684768157	 1.4119915293	-0.235445337	-0.392628
C	 0.1367743592	-0.0745551116	 0.1386583045	-0.004115
C	 0.6609880796	-0.2780049074	 1.5671098571	-0.395587
C	-1.2393980905	-0.715117427	 0.0057239171	 0.147187
O	-1.8431690648	-0.6173256694	-1.3322244663	-0.328494
C	-2.224173172	-2.0004898827	-1.2745392735	 0.013167
C	-0.9935337046	-2.8295546666	-1.3248091497	 0.126967
O	 0.1239741055	-2.4331222262	-2.05579998	-0.431912
C	-1.4271814543	-2.231395317	 0.0084916807	-0.216096
H	 1.0603122137	 1.8724602691	-0.187088241	 0.111217
H	-0.3229056639	 1.5459820861	-1.2477174001	 0.128714
H	-0.5872307643	 1.9596221944	 0.4524804188	 0.110496
H	 0.8154321178	-0.5882916306	-0.5495505114	 0.091489
H	 0.7348818217	-1.3401883114	 1.8210756085	 0.120835
H	 1.6568728489	 0.161605298	 1.6781521354	 0.117427
H	 0.0039458637	 0.2017593475	 2.3026647103	 0.111738
H	-1.9350420184	-0.2405194991	 0.7133099238	 0.082311
H	-3.2278399882	-2.2591801406	-1.5934936904	 0.10395
H	-1.1525114903	-3.9032647986	-1.3773674691	 0.110286
H	-0.0810337824	-1.5466473339	-2.3838713014	 0.293842
H	-1.6547817419	-2.8372687523	 0.8756547538	 0.099205
68.9538	137.1432	162.5995	227.225	240.3964	255.3463	308.7482	338.0353	412.6495	462.3523	472.8422	556.5896	659.2191	733.6013	800.6572	813.0938	861.8837	906.1648	934.5656	938.3008	962.0764	986.3683	1006.5156	1025.8786	1052.8156	1061.7786	1093.1078	1128.9738	1177.07	1187.474	1208.8863	1252.3666	1280.2044	1312.0567	1325.7323	1357.9385	1369.5852	1396.4962	1409.0735	1424.6581	1455.7362	1489.3773	1492.3284	1504.2311	1513.0592	2995.0014	3025.3292	3029.3122	3061.0901	3091.0848	3100.0097	3106.4671	3115.2245	3154.7721	3171.5725	3198.6057	3749.7685
CC(C)C1OC2C(O)C12	CC(C)[C@H]1O[C@H]2[C@@H](O)[C@@H]12	
InChI=1S/C7H12O2/c1-3(2)6-4-5(8)7(4)9-6/h3-8H,1-2H3	InChI=1S/C7H12O2/c1-3(2)6-4-5(8)7(4)9-6/h3-8H,1-2H3/t4-,5-,6+,7+/m0/s1
