22
gdb 5818	2.63262	1.64394	1.33227	0.5563	83.39	-0.2582	0.0544	0.3126	1071.518	0.196615	-313.051001	-313.040779	-313.039835	-313.084948	38.833	
C	-0.1043556996	 1.5560080242	-0.0859783783	-0.410391
C	 0.0549158535	 0.0213868477	-0.0109075816	-0.15133
C	 0.6875821795	-0.4609894051	-1.2402010336	 0.332009
C	 1.2078023662	-0.825802595	-2.2617819158	-0.473737
C	 0.788680819	-0.5073692073	 1.2748675605	 0.266542
C	 0.0437485194	-0.019996088	 2.5313671369	-0.417488
C	 0.7606669633	-2.0473131959	 1.2559428684	-0.410272
C	 2.2492848377	-0.0260302219	 1.32130763	-0.410017
H	 0.8665507832	 2.057524656	-0.1081925712	 0.128022
H	-0.6379241959	 1.828902671	-1.0000705388	 0.125842
H	-0.6743739597	 1.9366917979	 0.764525503	 0.11724
H	-0.9574190327	-0.407331124	 0.0230420956	 0.099
H	 1.6600380397	-1.1579947228	-3.1632119926	 0.191224
H	-1.0177195175	-0.2913648009	 2.4973744177	 0.107117
H	 0.4741714455	-0.4821662381	 3.4259417623	 0.110635
H	 0.1128578376	 1.0637346753	 2.6598451354	 0.113967
H	 1.2708570665	-2.4432986107	 0.3739919042	 0.127525
H	 1.2546350686	-2.4509482735	 2.1460747239	 0.105933
H	-0.2688317391	-2.4235290073	 1.2466342962	 0.105242
H	 2.3170875933	 1.0638973629	 1.3941884099	 0.109507
H	 2.7581930934	-0.4440975201	 2.1962692258	 0.10776
H	 2.7970851979	-0.3408392246	 0.428424602	 0.125669
64.0247	154.3084	191.8033	202.4427	244.1959	257.7659	271.2957	292.6478	321.4272	352.1845	386.8181	402.2767	443.7628	550.1029	561.9679	618.6821	632.0612	717.4601	829.8526	903.0752	936.2154	939.542	964.5621	1002.1379	1020.5395	1064.5814	1096.1831	1117.8421	1218.7187	1246.1195	1259.1335	1330.3592	1336.2159	1398.3832	1400.7686	1406.5046	1433.2523	1478.4253	1484.8118	1489.9658	1493.5494	1499.3057	1509.5848	1512.4284	1520.9485	2226.7319	2994.1696	3025.7749	3029.8848	3037.6316	3052.5054	3088.8599	3094.0318	3099.2099	3106.9229	3113.6061	3117.8224	3123.3706	3131.4772	3503.7558
CC(C#C)C(C)(C)C	C[C@@H](C#C)C(C)(C)C	
InChI=1S/C8H14/c1-6-7(2)8(3,4)5/h1,7H,2-5H3	InChI=1S/C8H14/c1-6-7(2)8(3,4)5/h1,7H,2-5H3/t7-/m0/s1
