20
gdb 73568	2.17513	2.05978	1.54002	2.424	77.2	-0.2188	0.0793	0.2981	974.5366	0.17291	-403.106445	-403.098836	-403.097892	-403.138079	30.857	
C	 0.1012950524	 1.5908316737	-0.0793032455	-0.484251
C	 0.0020891318	 0.0738254585	-0.009814985	 0.317516
C	-1.3771129098	-0.5065788377	-0.3742855136	-0.29189
C	-1.6469626008	-1.5938185489	 0.6952325415	-0.066539
O	-0.8022665229	-1.3058103998	 1.8191721089	-0.269605
C	 0.3091124898	-0.5727615051	 1.3862841141	 0.08545
C	 1.5278478021	-1.2899062107	 0.7653130787	-0.08342
N	 1.0401627559	-2.1026869674	-0.3786061907	-0.344547
C	 1.2553869219	-0.6515834128	-0.5550212533	-0.106885
H	 1.0881866011	 1.9412851795	 0.2431286884	 0.113377
H	-0.0602823791	 1.9523324559	-1.1015853633	 0.116465
H	-0.6497301106	 2.0608348235	 0.5645043857	 0.121051
H	-2.1338598265	 0.282507333	-0.3212525219	 0.096871
H	-1.4002056649	-0.9298749113	-1.3813086763	 0.107356
H	-2.6799747394	-1.582491129	 1.059125978	 0.091047
H	-1.4169773956	-2.5871848114	 0.3014306672	 0.117569
H	 0.6034928192	 0.1297304285	 2.1722353754	 0.075013
H	 2.4695041557	-1.5301127582	 1.2442967339	 0.088635
H	 1.8528356787	-2.5818049985	-0.7648312827	 0.229865
H	 1.9489143309	-0.2734412618	-1.2972177296	 0.086922
135.7981	208.7351	238.2905	265.7603	271.1368	322.4098	458.5486	536.5086	609.9811	636.82	708.9685	781.9416	799.6622	834.8702	869.5426	898.2781	924.1437	936.7106	950.5599	980.1427	993.8575	1015.7648	1041.3721	1080.1611	1107.9005	1124.1556	1159.8477	1184.2622	1213.3984	1224.6228	1246.7233	1255.5594	1287.	1311.1657	1342.4993	1357.2415	1381.105	1403.2054	1412.5369	1481.6254	1493.2886	1499.1469	1518.0491	3021.8375	3040.6189	3052.5609	3062.6306	3085.7651	3088.1081	3096.0034	3111.1171	3174.5082	3188.3675	3474.0023
CC12CCOC1C1NC21	C[C@]12CCO[C@H]1[C@H]1N[C@@H]21	
InChI=1S/C7H11NO/c1-7-2-3-9-6(7)4-5(7)8-4/h4-6,8H,2-3H2,1H3	InChI=1S/C7H11NO/c1-7-2-3-9-6(7)4-5(7)8-4/h4-6,8H,2-3H2,1H3/t4-,5+,6-,7+/m0/s1
