20
gdb 121591	4.06422	0.72489	0.64764	1.3621	79.74	-0.237	-0.0165	0.2205	1772.5948	0.170818	-436.522447	-436.511946	-436.511002	-436.559479	37.208	
C	-0.21772189	 1.4384411314	-0.1178940791	-0.377865
C	-0.1240927995	-0.0788682547	-0.2952437378	-0.168213
C	 1.1941217223	-0.504723929	-0.954045987	-0.150665
N	 1.3120592485	-1.940938657	-1.1103697398	-0.314209
C	 1.2501221489	-2.5683696487	-2.298292331	 0.414977
O	 1.1261260193	-2.0306797369	-3.3919422298	-0.411035
C	 1.3507214375	-4.0915214644	-2.1838452436	 0.271754
N	 1.3816368532	-4.6698378234	-3.4111924702	-0.530519
N	 1.4081346444	-4.6187125488	-1.0173943452	-0.545893
H	 0.5957560897	 1.8169221496	 0.5112175773	 0.115598
H	-0.1572939737	 1.9542059983	-1.0824074573	 0.122033
H	-1.1624491936	 1.7237984679	 0.3538099453	 0.117099
H	-0.2176744588	-0.5748018486	 0.6795028852	 0.096767
H	-0.9564568026	-0.4412837355	-0.9094026304	 0.111836
H	 1.2761467421	-0.0738486986	-1.9555269238	 0.142164
H	 2.0419379761	-0.1354650447	-0.3622423762	 0.105874
H	 1.3883314482	-2.5560485161	-0.3097649376	 0.265866
H	 1.2030238264	-4.0540792883	-4.1911409668	 0.275174
H	 1.2713820396	-5.6620428166	-3.5223064636	 0.253373
H	 1.4725962019	-5.6366239157	-1.0518864787	 0.205885
29.3314	64.5451	82.7908	87.5398	216.6459	236.3665	252.4139	269.1721	328.6677	368.009	460.4545	501.8163	556.9353	588.903	630.8343	662.3775	748.2066	821.3207	841.0202	853.4898	892.5955	934.7142	1034.4527	1072.6224	1098.3115	1126.2009	1143.9261	1189.274	1238.556	1283.4144	1333.5379	1338.5901	1404.7395	1414.0947	1429.3569	1482.2873	1492.9095	1500.0567	1510.1655	1571.7938	1591.8817	1724.0355	1776.7423	3018.8347	3025.3248	3032.0904	3063.1288	3096.4848	3107.5668	3109.4202	3466.0257	3572.5502	3577.7598	3726.2442
CCCNC(=O)C(N)=N	CCCNC(=O)C(=N)N	
InChI=1S/C5H11N3O/c1-2-3-8-5(9)4(6)7/h2-3H2,1H3,(H3,6,7)(H,8,9)	InChI=1S/C5H11N3O/c1-2-3-8-5(9)4(6)7/h2-3H2,1H3,(H3,6,7)(H,8,9)
