17
gdb 56462	2.37856	1.14152	0.80625	1.4214	79.32	-0.2572	-0.0219	0.2353	1395.7763	0.134349	-418.01585	-418.006132	-418.005188	-418.051375	34.628	
C	 0.1622112171	 1.7191699952	 0.86407765	-0.384483
C	-0.0355642401	 0.4707314355	-0.0243249154	-0.318728
C	 0.6097777658	-0.7121985975	 0.5341095209	 0.306459
C	 1.1318462008	-1.6876045633	 1.0064365017	-0.428251
C	-1.5416657536	 0.2956687423	-0.3336408459	 0.466536
O	-2.1972410674	 1.2276535171	-0.7505893003	-0.364438
N	-2.0602388154	-0.9579208396	-0.1217055745	-0.329366
C	-3.385049788	-1.2899254198	-0.3643136369	 0.097443
N	-3.795248093	-2.470240587	-0.1399815647	-0.458399
H	 1.2250221948	 1.9528474265	 0.9548706567	 0.12929
H	-0.3615434951	 2.562974652	 0.4126259601	 0.150945
H	-0.2401201787	 1.5465287444	 1.8658327218	 0.132642
H	 0.4154882446	 0.6827726882	-1.003534181	 0.145627
H	 1.6038838547	-2.5454644865	 1.4187938893	 0.208597
H	-1.4566042709	-1.6867353407	 0.2375231546	 0.272161
H	-3.9592574778	-0.4428610699	-0.744492418	 0.139903
H	-4.7847572477	-2.5484576567	-0.3681027883	 0.234062
27.8651	116.0712	124.1027	180.2441	196.51	229.153	249.8756	293.2617	366.9664	475.6172	518.6447	537.8362	599.9527	637.8176	661.576	699.2281	760.9866	837.4002	858.2453	953.8321	1024.4669	1074.646	1092.2815	1103.3808	1129.9734	1205.0673	1281.0615	1299.8254	1319.3299	1392.8385	1400.1168	1494.3855	1499.4677	1507.6796	1727.6968	1793.3461	2230.204	3020.7764	3056.6641	3123.1322	3132.3308	3153.3697	3499.1511	3505.5289	3580.2746
CC(C#C)C(=O)NC=N	C[C@@H](C#C)C(=O)NC=N	
InChI=1S/C6H8N2O/c1-3-5(2)6(9)8-4-7/h1,4-5H,2H3,(H2,7,8,9)	InChI=1S/C6H8N2O/c1-3-5(2)6(9)8-4-7/h1,4-5H,2H3,(H2,7,8,9)/t5-/m0/s1
