19
gdb 91462	2.46783	2.02305	1.46366	1.6857	74.43	-0.2425	0.0025	0.245	964.1081	0.159282	-423.028886	-423.021111	-423.020167	-423.060496	31.562	
C	-0.0345718751	 1.5292156461	-0.0686894262	-0.413467
C	 0.0063461082	 0.0103521219	 0.0100086274	 0.129986
O	 0.8228123571	-0.5014206299	-1.0592059336	-0.293685
C	 1.871989244	-1.228753364	-0.3850219998	 0.121355
O	 2.1045773127	-0.4732253251	 0.7795839119	-0.260798
C	 0.7492385091	-0.5751053309	 1.276499607	 0.294925
C	 0.5706150634	 0.1099911373	 2.6072477285	-0.499676
C	 0.5084419177	-2.0833690422	 1.1949034035	-0.13663
C	 1.2338677235	-2.5052204514	 0.1604068931	-0.087467
H	 0.9639028925	 1.9452304576	 0.088772775	 0.132226
H	-0.3820729993	 1.836424577	-1.0589510732	 0.125912
H	-0.7205664467	 1.9448531383	 0.6766219789	 0.109416
H	-1.0035033405	-0.4096138417	-0.0741267801	 0.074628
H	 2.7472229338	-1.2858092984	-1.0288840384	 0.091326
H	 0.8552956813	 1.1631229659	 2.5513162178	 0.134864
H	-0.474422268	 0.0511932082	 2.9277327203	 0.122424
H	 1.1896699276	-0.3751445064	 3.366756738	 0.134785
H	-0.2078231373	-2.6260922705	 1.7969521921	 0.106882
H	 1.2687711359	-3.479616492	-0.3060470821	 0.112995
157.1072	191.6655	248.5905	266.8993	316.3617	336.3341	412.1635	431.1137	549.081	628.3738	656.7298	712.5533	733.2823	785.4739	833.9157	860.2779	875.3504	881.4475	893.9439	922.913	943.1055	1041.1454	1046.7894	1071.9321	1108.393	1130.0019	1164.0871	1172.5747	1261.5758	1277.0203	1321.6064	1332.2948	1339.6942	1376.3141	1400.4487	1416.9205	1478.3654	1485.4505	1497.9724	1501.8611	1640.9012	3028.0203	3040.5486	3047.099	3111.6681	3116.0108	3127.8294	3130.0335	3151.9909	3216.5006	3244.8082
CC1OC2OC1(C)C=C2	C[C@H]1O[C@H]2O[C@]1(C)C=C2	
InChI=1S/C7H10O2/c1-5-7(2)4-3-6(8-5)9-7/h3-6H,1-2H3	InChI=1S/C7H10O2/c1-5-7(2)4-3-6(8-5)9-7/h3-6H,1-2H3/t5-,6+,7-/m1/s1
