16
gdb 16285	3.26012	1.80008	1.43285	3.5118	70.43	-0.2367	0.0157	0.2524	905.8003	0.131311	-342.757392	-342.749963	-342.749019	-342.78893	28.093	
C	-0.1110327053	 1.550887979	 0.017086401	-0.392252
C	 0.0883961103	 0.0473620582	 0.0255821803	-0.00992
N	 1.1989514032	-0.4751970724	-0.8522006134	-0.336334
C	 1.7277771963	-1.2654146773	 0.2672176059	-0.049616
C	 2.2245022892	-0.3445660866	 1.3218447593	-0.307973
C	 0.7292079391	-0.6325321708	 1.2582752388	 0.164884
C	 0.0051872477	-1.192082036	 2.3453632139	 0.187427
N	-0.6007238484	-1.6499391042	 3.2204842868	-0.356477
H	 0.8156343869	 2.0768312503	 0.2612911883	 0.125127
H	-0.4357400097	 1.8852464858	-0.9734022508	 0.125554
H	-0.8791048789	 1.8378278078	 0.7428339895	 0.129692
H	-0.8540403153	-0.4637492595	-0.1979035244	 0.096611
H	 0.8252428419	-1.0694217966	-1.5842194648	 0.230917
H	 2.0301909982	-2.3006732826	 0.1698309183	 0.121122
H	 2.7201263907	-0.8091883445	 2.1670490705	 0.140404
H	 2.594011224	 0.6367807294	 1.0414931609	 0.130833
124.5389	161.3871	201.0257	214.0777	311.9748	452.1077	476.066	500.0931	561.8958	611.0586	690.6763	800.2921	818.5304	873.8422	892.5587	948.1416	983.4958	1038.6955	1043.6196	1084.6721	1092.2652	1127.977	1134.4266	1216.4233	1221.5544	1288.2002	1357.3118	1387.2302	1398.8385	1419.6714	1479.0966	1485.6076	1494.1421	2337.7905	3039.3995	3048.9186	3108.595	3121.8352	3130.8693	3197.168	3228.1612	3534.6868
CC1NC2CC12C#N	C[C@H]1N[C@H]2C[C@@]12C#N	
InChI=1S/C6H8N2/c1-4-6(3-7)2-5(6)8-4/h4-5,8H,2H2,1H3	InChI=1S/C6H8N2/c1-4-6(3-7)2-5(6)8-4/h4-5,8H,2H2,1H3/t4-,5+,6-/m1/s1
