14
gdb 42937	3.22995	1.23251	0.98266	5.7649	65.85	-0.2622	-0.0485	0.2137	1138.5907	0.099767	-436.664021	-436.656173	-436.655229	-436.697326	28.059	
O	-0.0031665252	 0.0098162792	-0.2051297605	-0.274314
C	-0.0448818379	 1.1907362775	-0.0609427392	 0.420076
C	-1.1530094831	 2.2408488405	-0.0425348242	-0.106936
O	-0.8963061495	 3.0090983734	 1.1570207235	-0.230585
C	-0.1229386686	 3.3094670403	 0.0026827335	 0.008412
C	 1.0516646598	 2.3163384988	 0.0012152816	-0.159968
C	 2.0083902742	 2.3773757645	 1.1982777029	-0.35602
C	 2.966892101	 1.2744919965	 1.2147979084	 0.268108
N	 3.7395339612	 0.4158521007	 1.2196893236	-0.298194
H	-2.1651831706	 2.23307302	-0.4271659486	 0.136938
H	-0.1762240837	 4.3102602056	-0.4073966726	 0.130592
H	 1.6015214597	 2.3099403084	-0.9463093034	 0.130363
H	 2.5707660475	 3.3187460305	 1.1781637622	 0.158129
H	 1.4289462953	 2.367866754	 2.1265584928	 0.1734
58.0503	92.2573	163.6105	219.5796	245.8997	389.507	456.9547	507.3692	541.3296	637.9282	756.2442	765.5954	847.7694	851.5242	913.6125	943.9561	974.1596	994.095	1025.7746	1058.9022	1107.31	1162.6992	1210.1463	1226.7605	1256.3	1304.0335	1343.5298	1368.7374	1470.3309	1913.4251	2367.3654	3041.9181	3065.849	3096.3783	3200.4717	3213.4248
O=C1C2OC2C1CC#N	O=C1[C@H]2O[C@H]2[C@H]1CC#N	
InChI=1S/C6H5NO2/c7-2-1-3-4(8)6-5(3)9-6/h3,5-6H,1H2	InChI=1S/C6H5NO2/c7-2-1-3-4(8)6-5(3)9-6/h3,5-6H,1H2/t3-,5-,6+/m0/s1
