17
gdb 55403	2.74614	1.53468	1.00855	4.0897	70.88	-0.2592	-0.0006	0.2586	1138.289	0.137383	-455.204263	-455.195876	-455.194932	-455.237874	30.249	
C	 0.0086346871	 1.4725014021	-0.1059616036	-0.436756
C	 0.03983381	-0.0285033657	-0.0087689149	 0.382425
N	 1.1640150914	-0.6301601427	 0.0179155352	-0.506577
N	-1.1976118707	-0.7041263708	 0.0248805856	-0.205255
C	-1.2744302593	-2.1561416341	 0.0775425182	-0.210746
C	-2.7861189434	-2.3871518432	-0.0740170199	-0.104355
O	-3.3877714446	-1.1269039139	 0.2345056877	-0.236203
C	-2.4609105591	-0.1308614302	 0.1966474895	 0.502443
O	-2.7485798515	 1.0257223373	 0.3088248546	-0.377776
H	 1.0397024133	 1.8129216058	-0.1940526685	 0.139175
H	-0.5744136313	 1.8039530183	-0.9685941945	 0.144307
H	-0.4626588204	 1.917029392	 0.7727366062	 0.156905
H	 1.0729352048	-1.6425140626	 0.0934262004	 0.211093
H	-0.7055031546	-2.6159621652	-0.7355911306	 0.138385
H	-0.8859936894	-2.53843419	 1.0299973443	 0.133257
H	-3.0564779353	-2.665289279	-1.0979402884	 0.132011
H	-3.1772345269	-3.137984728	 0.6143465487	 0.137666
59.1357	118.8179	152.6771	208.2535	211.7609	250.6613	390.7913	416.1643	559.7331	592.791	627.6525	712.8481	763.854	766.1445	868.3665	900.3932	966.8225	997.6734	1035.4356	1077.8556	1086.005	1124.9211	1144.3882	1222.0777	1228.8937	1245.8088	1267.6258	1365.0041	1389.2067	1417.1249	1421.4713	1457.8513	1477.4709	1523.6517	1535.7317	1706.596	1880.0203	3021.7029	3051.3917	3067.2075	3080.2891	3120.9406	3132.4777	3168.5277	3489.8888
CC(=N)N1CCOC1=O	C[C]([NH])N1CCOC1=O	
InChI=1S/C5H8N2O2/c1-4(6)7-2-3-9-5(7)8/h6H,2-3H2,1H3	InChI=1S/C5H8N2O2/c1-4(6)7-2-3-9-5(7)8/h6H,2-3H2,1H3
