18
gdb 57858	2.95189	1.11455	0.88991	4.181	75.53	-0.2327	-0.0157	0.217	1314.1946	0.146021	-435.262098	-435.251673	-435.250729	-435.298147	35.979	
C	-0.020063968	 1.4251266472	-0.121093687	-0.321499
N	-0.0168223902	-0.0314045567	-0.1349820138	-0.090145
C	 1.255535854	-0.636423159	 0.2275259759	-0.339707
C	-1.2312213473	-0.6588505588	 0.0082216078	 0.359623
N	-2.3093289682	 0.0238612749	 0.1276069508	-0.53625
C	-1.1849385932	-2.2003497544	 0.0054825752	-0.143036
O	-0.7393672915	-2.7228622072	 1.2477413304	-0.40462
C	-2.5017118575	-2.7606263678	-0.3573084522	 0.290687
N	-3.5324788703	-3.2146567697	-0.614425721	-0.315405
H	 0.9114375403	 1.7806028067	-0.570238721	 0.117047
H	-0.8734048859	 1.792597909	-0.6896750913	 0.162076
H	-0.0968401697	 1.8277700531	 0.8987929216	 0.123097
H	 1.5525255847	-0.3710588404	 1.2531805236	 0.125208
H	 1.222479853	-1.7218344648	 0.1721512971	 0.153501
H	 2.0339038176	-0.2764241912	-0.4532807204	 0.12891
H	-3.1337240841	-0.5729227809	 0.1050296164	 0.235505
H	-0.4668331057	-2.5573933286	-0.7391738437	 0.152473
H	-1.3112623281	-2.3656157415	 1.9384443916	 0.302533
47.676	92.0462	97.2496	134.6163	157.5877	201.3056	235.191	286.2488	298.7368	371.3129	399.4557	439.3071	475.1636	579.8091	615.5669	725.7904	816.3437	853.3977	897.345	1005.9439	1058.1435	1082.6911	1111.2109	1126.2145	1172.601	1234.7865	1255.1201	1302.2289	1325.721	1420.3483	1434.4527	1450.6499	1473.5309	1477.333	1494.5351	1505.2297	1532.6797	1682.4833	2358.9935	2995.6972	3010.1271	3069.9975	3073.0769	3088.2529	3158.6684	3174.9531	3505.7814	3790.0875
CN(C)C(=N)C(O)C#N	CN(C)C(=N)[C@@H](O)C#N	
InChI=1S/C5H9N3O/c1-8(2)5(7)4(9)3-6/h4,7,9H,1-2H3	InChI=1S/C5H9N3O/c1-8(2)5(7)4(9)3-6/h4,7,9H,1-2H3/t4-/m0/s1
