21
gdb 113671	2.57516	0.95477	0.85769	1.8235	79.72	-0.2456	-0.0225	0.2232	1499.9596	0.179204	-424.23333	-424.222838	-424.221894	-424.270176	36.896	
C	-0.5785503716	 0.756080968	-1.7194291006	-0.378584
C	-0.0041842877	 0.0840301988	-0.4660686777	-0.223898
C	-1.0841995827	-0.2429489829	 0.5367978288	 0.094185
O	-1.9659876047	-1.334833868	 0.2586951522	-0.252756
C	-1.1163609239	-1.4399475016	 1.4034587008	-0.05436
C	-0.0327373595	-2.4938971885	 1.4188527883	 0.338503
O	 0.7274906842	-2.5359801236	 2.3604535973	-0.308922
C	-0.0029559828	-3.4963168521	 0.2804828503	-0.281072
C	 1.1940557157	-4.4407483381	 0.3412333299	-0.382336
H	 0.2146883919	 1.0005101376	-2.4314379651	 0.118987
H	-1.2944913875	 0.095742017	-2.2177013158	 0.1348
H	-1.0999312219	 1.6856061898	-1.4665891445	 0.119838
H	 0.5451020837	-0.8199037761	-0.7443244284	 0.108016
H	 0.7173641298	 0.7510572541	 0.0222706087	 0.114308
H	-1.6046084779	 0.6341270252	 0.9299734874	 0.098148
H	-1.6144363328	-1.3398783442	 2.3687545287	 0.116129
H	-0.9531860597	-4.0484582674	 0.3323211106	 0.134522
H	-0.0633377434	-2.9605762357	-0.672931262	 0.131611
H	 1.1458669225	-5.177439273	-0.4652742215	 0.111245
H	 2.1341461689	-3.8897379275	 0.2479377997	 0.126545
H	 1.2238034893	-4.9701458316	 1.2965288528	 0.135091
44.343	53.2161	72.3622	139.6585	167.613	199.6632	222.2549	249.3887	288.055	416.6584	453.8384	502.0844	548.7149	617.9717	744.7334	755.6158	800.4517	838.7693	879.142	951.785	997.8508	1017.1289	1034.5786	1057.2411	1093.0723	1102.8924	1131.0716	1171.4515	1199.4461	1264.04	1282.2583	1291.3256	1343.2921	1367.2986	1385.6819	1411.1945	1414.4289	1439.9778	1468.8956	1474.6068	1493.3168	1498.5626	1499.2457	1508.5599	1798.7619	3018.8886	3037.2621	3038.8756	3050.9029	3071.1166	3074.3541	3089.5015	3108.2879	3111.9022	3118.7483	3119.3564	3129.6211
CCC1OC1C(=O)CC	CC[C@H]1O[C@H]1C(=O)CC	
InChI=1S/C7H12O2/c1-3-5(8)7-6(4-2)9-7/h6-7H,3-4H2,1-2H3	InChI=1S/C7H12O2/c1-3-5(8)7-6(4-2)9-7/h6-7H,3-4H2,1-2H3/t6-,7+/m1/s1
