14
gdb 10010	3.33821	1.48257	1.03315	4.7906	71.05	-0.243	-0.0457	0.1973	1075.2866	0.104601	-378.704613	-378.695796	-378.694851	-378.738857	30.044	
C	 0.0104216389	 1.5968427242	 0.1142051968	-0.334296
N	 0.0499028322	 0.1533059516	 0.101067435	-0.240986
C	-1.018809407	-0.5211230308	 0.000352159	 0.27639
N	-1.0129762708	-1.9300589458	-0.0152580578	-0.352304
C	 0.0553644848	-2.8074069696	 0.0674874971	 0.158691
O	 1.2199489412	-2.5336462774	 0.1721679921	-0.262227
C	-2.3602095262	 0.00680331	-0.1102916239	 0.268071
C	-3.4808572216	 0.435148926	-0.20282268	-0.457777
H	 0.6288873623	 1.972053729	-0.7093325202	 0.137734
H	-0.993571527	 2.0340842044	 0.0319305829	 0.114481
H	 0.4766939204	 1.9518826257	 1.0405095152	 0.137738
H	-1.9227570683	-2.3571874208	-0.0994165275	 0.261336
H	-0.3237803577	-3.8498790918	 0.0222054482	 0.077053
H	-4.4666648913	 0.8242885654	-0.284214417	 0.216096
32.8305	124.3386	140.5622	175.3008	190.6482	245.3053	305.1223	335.8284	448.7288	574.4757	601.1932	644.6119	674.4196	712.8298	715.9947	868.0844	1021.6723	1067.7483	1127.9526	1129.0135	1168.9178	1242.4474	1436.9721	1451.4443	1483.3677	1495.2141	1524.8737	1721.3178	1843.611	2219.1049	2912.1018	3002.7343	3074.9238	3078.1365	3493.9569	3628.7839
CN=C(NC=O)C#C	CN=C(NC=O)C#C	
InChI=1S/C5H6N2O/c1-3-5(6-2)7-4-8/h1,4H,2H3,(H,6,7,8)	InChI=1S/C5H6N2O/c1-3-5(6-2)7-4-8/h1,4H,2H3,(H,6,7,8)
