21
gdb 86548	3.5934	1.09227	0.98427	1.6429	78.55	-0.2418	0.0848	0.3266	1306.7568	0.180785	-424.200285	-424.190947	-424.190003	-424.234559	34.94	
C	-0.4500513758	 1.3302989239	 0.2945390812	-0.402355
C	 0.3986865841	 0.0773535575	 0.2520410025	 0.174782
C	 0.7042152536	-0.5610013159	-1.1207350824	-0.313146
C	 2.1863298347	-0.3463073778	-0.7309989494	 0.072877
O	 1.8098841989	 0.3595125038	 0.4660661706	-0.309739
C	 2.9749617928	-1.612473841	-0.4542682238	 0.381479
C	 3.5380496955	-2.3023887183	-1.6764486665	-0.469995
C	 3.5867166832	-1.7981681332	 0.868029015	-0.21851
O	 2.3704134708	-2.4747377252	 0.5190331333	-0.277927
H	-0.1138930346	 2.0556518839	-0.4531586577	 0.116679
H	-1.4999087985	 1.085875503	 0.0979195219	 0.116217
H	-0.3893418893	 1.8008738387	 1.2810446194	 0.126841
H	 0.0504358878	-0.6527918172	 0.9924923588	 0.089239
H	 0.3951371191	-1.5994869244	-1.2441821531	 0.118603
H	 0.3682814402	 0.0312180835	-1.9741903111	 0.103379
H	 2.7660371163	 0.2977737803	-1.4061293622	 0.073847
H	 4.2813372313	-1.6709976485	-2.1749790868	 0.123254
H	 4.0121411912	-3.2453592239	-1.3948470558	 0.131663
H	 2.7456832426	-2.5235632463	-2.4003961383	 0.126199
H	 4.462468397	-2.4388269592	 0.9658573523	 0.105105
H	 3.473520279	-1.0163927539	 1.6137833621	 0.131506
61.6031	89.1779	169.6267	194.4255	229.571	236.7664	305.4804	347.551	369.6025	430.8332	499.1067	544.0268	698.4102	747.3902	818.5914	872.3245	892.8706	905.8522	924.4193	938.4034	983.5315	1017.5579	1051.7389	1059.1406	1094.1147	1117.6775	1136.2476	1144.7555	1176.6403	1206.3087	1248.2861	1257.837	1270.5695	1326.5373	1369.3201	1393.1681	1394.2557	1409.5488	1415.3704	1481.0454	1483.1778	1487.3104	1495.1198	1496.3041	1518.3738	3009.3647	3030.6898	3032.607	3034.3149	3078.0088	3090.1418	3095.3788	3104.2541	3110.8577	3126.8496	3138.8512	3194.2623
CC1CC(O1)C1(C)CO1	C[C@H]1C[C@@H](O1)[C@@]1(C)CO1	
InChI=1S/C7H12O2/c1-5-3-6(9-5)7(2)4-8-7/h5-6H,3-4H2,1-2H3	InChI=1S/C7H12O2/c1-5-3-6(9-5)7(2)4-8-7/h5-6H,3-4H2,1-2H3/t5-,6+,7+/m0/s1
