18
gdb 38091	2.80758	2.23313	1.89998	1.3804	79.28	-0.2037	-0.0014	0.2024	825.2638	0.15184	-364.776869	-364.770959	-364.770015	-364.806569	26.318	
C	-0.0215592225	 1.470554484	 0.0564727159	-0.161991
C	 1.5299467961	 1.4715411415	-0.0024888977	-0.109705
C	 1.9622230946	 1.2364066191	 1.4198145522	-0.05457
C	 1.363467249	 0.2311532467	 2.0664429055	-0.076464
C	 0.4790772029	-0.6866049038	 1.2245355051	-0.111563
C	 1.4832276548	-1.6858360134	 0.6575595247	-0.059927
C	 2.0097698077	-1.177296807	-0.459824585	-0.075204
C	 1.2887328045	 0.0834057511	-0.784773643	-0.026506
N	-0.0168281494	-0.0235256789	-0.0295629242	-0.120402
H	-0.4905627279	 1.902588283	 0.9427730251	 0.102513
H	-0.4940002512	 1.8626240085	-0.8500858995	 0.101634
H	 2.0629611659	 2.2772907032	-0.5111557633	 0.059565
H	 2.6935602375	 1.887900339	 1.8869776149	 0.088657
H	 1.5638155302	-0.0212999534	 3.1029884799	 0.08912
H	-0.3480626236	-1.1269003065	 1.7875397479	 0.07578
H	 1.7884418968	-2.5847387571	 1.1783381759	 0.102574
H	 2.8266294922	-1.5868596961	-1.0400417003	 0.098342
H	 1.1290290824	 0.2666579002	-1.8520631341	 0.078144
297.3742	313.5413	419.8923	438.2635	533.3866	572.9047	651.2055	682.594	724.7522	737.1918	776.9661	795.9506	836.1563	898.9558	929.5299	935.9935	945.5796	962.9675	968.1109	977.4461	987.8065	1031.2114	1065.2028	1095.1558	1128.1563	1153.4492	1170.3928	1197.6615	1225.9618	1266.0033	1270.1243	1301.1161	1319.3952	1321.313	1364.2548	1387.018	1500.7977	1647.5952	1669.8723	3044.9942	3053.7509	3068.1465	3086.0078	3114.2851	3164.3862	3188.0457	3202.1175	3226.9178
C1C2C=CC3C=CC2N13	C1[C@H]2C=C[C@@H]3C=C[C@H]2N13	
InChI=1S/C8H9N/c1-2-7-3-4-8-6(1)5-9(7)8/h1-4,6-8H,5H2	InChI=1S/C8H9N/c1-2-7-3-4-8-6(1)5-9(7)8/h1-4,6-8H,5H2/t6-,7-,8-/m1/s1
