23
gdb 40820	3.60342	1.03728	0.8671	1.1116	86.27	-0.2406	0.0914	0.332	1413.668	0.207875	-388.29363	-388.28507	-388.284125	-388.327039	33.752	
C	-0.1544098823	 1.4136582503	-0.1475547333	-0.272618
C	 1.2651611255	 0.9839445589	 0.1254355412	-0.27133
C	 0.171931156	-0.0466255204	 0.0448793173	 0.020519
C	-0.289561446	-0.7604870576	 1.2889190514	 0.127366
C	-1.7063800777	-1.3374165377	 1.1552480648	-0.195885
C	-2.0888317464	-2.1462515966	 2.4023176021	-0.213122
C	-1.0007595685	-3.1831107837	 2.7119609942	-0.192204
C	 0.3677150661	-2.5011145806	 2.7594670306	-0.062293
O	 0.6513390174	-1.7965009566	 1.5630419051	-0.263706
H	-0.6905718754	 1.9238943023	 0.6464737668	 0.108471
H	-0.4122771983	 1.7556011004	-1.1435997113	 0.110148
H	 1.9849361361	 1.0327197055	-0.6838246984	 0.110885
H	 1.6823410405	 1.1977085198	 1.1037162274	 0.113008
H	 0.158624979	-0.6697988265	-0.8453418589	 0.083669
H	-0.2817562187	-0.0432943715	 2.1323309675	 0.048804
H	-2.4171338162	-0.5219693741	 0.981698133	 0.094632
H	-1.7323316774	-1.9853859313	 0.2694983711	 0.096429
H	-2.1936517473	-1.4651988476	 3.2584943537	 0.092828
H	-3.0623110349	-2.6294190218	 2.2663989204	 0.093233
H	-1.1960897393	-3.6899735101	 3.6641178349	 0.090284
H	-0.9853448781	-3.9519000126	 1.9294407955	 0.101126
H	 0.4077694877	-1.8105288408	 3.6212605996	 0.078357
H	 1.1741012781	-3.2309071276	 2.8806458854	 0.101398
70.1515	108.7336	162.293	241.331	263.548	339.9821	413.0447	427.1327	463.9537	495.5695	559.716	768.9562	816.7292	827.3374	847.0532	852.282	893.1288	904.8022	929.5044	957.7563	968.1973	1023.7214	1054.977	1060.9528	1074.1369	1078.6289	1110.6101	1123.6976	1135.2148	1195.4563	1198.7407	1212.2453	1226.5145	1233.7563	1283.1407	1291.1778	1321.8481	1352.0697	1369.3649	1376.0543	1384.6681	1413.0583	1438.9972	1470.125	1471.5184	1481.5582	1490.2642	1501.5041	1508.1066	2915.2989	2944.9816	3011.6806	3024.359	3026.9293	3064.8268	3071.3852	3075.9549	3078.8587	3128.5606	3135.6649	3144.3669	3207.2479	3223.3386
C1CC1C1CCCCO1	C1CC1[C@H]1CCCCO1	
InChI=1S/C8H14O/c1-2-6-9-8(3-1)7-4-5-7/h7-8H,1-6H2	InChI=1S/C8H14O/c1-2-6-9-8(3-1)7-4-5-7/h7-8H,1-6H2/t8-/m1/s1
