18
gdb 82659	3.89241	1.41675	1.27988	2.5688	75.48	-0.2167	-0.0109	0.2058	1020.4379	0.149285	-401.904357	-401.897337	-401.896393	-401.935525	28.572	
C	 0.0006695333	 1.4562846166	-0.2039440768	-0.330365
N	-0.006070963	 0.0092289451	-0.0280181959	-0.092947
C	-1.2228496957	-0.5198552381	 0.6841361751	-0.018426
C	-0.9401367034	-2.0328152015	 0.5569218244	-0.216913
C	 0.3586791968	-1.9756766665	 1.4065536942	-0.189574
C	 0.6842705052	-0.4273087863	 1.2059286371	-0.002826
C	-0.5937903374	-0.2180003998	 2.1159338045	-0.194471
C	-0.2491462591	-1.5537508524	 2.7523462905	 0.442648
O	-0.2650672003	-2.0003392321	 3.8626310769	-0.330953
H	 0.998056475	 1.772844304	-0.5260051209	 0.124024
H	-0.7056960424	 1.7220730239	-0.9967492888	 0.122672
H	-0.2623905587	 2.0342422114	 0.6992242155	 0.097736
H	-2.1935510896	-0.127300155	 0.3828659933	 0.080061
H	-1.7010205355	-2.6826074544	 0.9973114056	 0.110782
H	-0.7728214988	-2.305066433	-0.4856389612	 0.119235
H	 1.0998182225	-2.7649020415	 1.3158149415	 0.090789
H	 1.6829219335	-0.0615849453	 1.4371127041	 0.091674
H	-0.8571436224	 0.6809425849	 2.6647617609	 0.096854
139.6284	210.3305	239.9756	305.8797	373.2089	467.8069	497.7654	582.0686	671.8875	754.9937	764.4973	772.6907	804.6486	826.2853	909.2329	918.351	952.817	967.848	982.4759	999.272	1031.9768	1090.3414	1110.3146	1125.0978	1155.7031	1160.0113	1175.3736	1188.9195	1213.7485	1229.6724	1238.6039	1286.0005	1306.1785	1321.2825	1453.7234	1490.7342	1493.4097	1500.8938	1892.9615	2954.1858	3063.0661	3069.1118	3101.6992	3125.2087	3133.4122	3139.6854	3163.8004	3171.6902
CN1C2CC3C1C2C3=O	CN1[C@H]2C[C@H]3[C@@H]1[C@@H]2C3=O	
InChI=1S/C7H9NO/c1-8-4-2-3-6(8)5(4)7(3)9/h3-6H,2H2,1H3	InChI=1S/C7H9NO/c1-8-4-2-3-6(8)5(4)7(3)9/h3-6H,2H2,1H3/t3-,4-,5+,6+/m0/s1
