20
gdb 38421	3.68355	1.3143	1.30073	2.2247	77.65	-0.2207	0.0762	0.2969	1072.513	0.172943	-403.11453	-403.106967	-403.106023	-403.146758	30.06	
C	 0.0457198626	 1.4814444883	-0.1062050459	-0.25493
C	 1.2349302519	 0.5905940955	-0.10256054	-0.023155
C	 1.9843777305	 0.4256507392	 1.2081766351	-0.274443
C	 0.8773981208	 0.1913216115	 2.2504496627	 0.400506
C	 1.2378942396	-0.4533758668	 3.6064024289	-0.358062
C	 0.7881316772	 0.8845534657	 4.2213600495	-0.069483
O	 0.476956048	 1.4255654872	 2.9226907245	-0.313454
C	-0.2638284693	-0.42404219	 1.4160199203	-0.207543
N	-0.1275398487	 0.0221854663	 0.020428382	-0.106372
H	-0.1304520615	 2.1046051323	 0.7659796885	 0.144743
H	-0.3132143095	 1.8901249167	-1.0463865751	 0.11019
H	 1.7604947551	 0.3840536206	-1.0305153351	 0.08641
H	 2.6376499198	-0.4541753981	 1.1575036996	 0.103984
H	 2.5987327918	 1.2883683336	 1.4797823577	 0.114893
H	 0.6345973333	-1.3226693844	 3.8770116818	 0.111976
H	 2.2941537397	-0.6984050368	 3.7331129717	 0.111087
H	-0.0961629241	 0.8387191263	 4.8683508291	 0.104029
H	 1.5686073893	 1.4632474023	 4.7298727989	 0.103489
H	-0.1766340987	-1.5179800212	 1.4273914099	 0.102194
H	-1.2420981177	-0.1528677281	 1.823426456	 0.11394
67.1644	136.1212	221.978	305.2661	375.4049	393.8607	424.2788	483.0051	664.1022	752.1509	779.9018	782.913	828.6896	862.5029	865.9682	880.3077	926.0082	965.1125	980.7198	1010.7844	1027.713	1037.2481	1087.25	1115.8534	1127.2376	1159.8884	1161.1978	1180.531	1196.1829	1210.0958	1240.9036	1248.2977	1263.7745	1288.6023	1305.6944	1338.8155	1359.8551	1393.1559	1466.4679	1480.0089	1487.9004	1513.1452	1531.5693	3017.7299	3025.2487	3034.9981	3056.5868	3071.1536	3092.9681	3096.402	3113.6021	3125.0934	3147.1178	3204.6412
C1C2CC3(CCO3)CN12	C1[C@H]2C[C@]3(CCO3)CN12	
InChI=1S/C7H11NO/c1-2-9-7(1)3-6-4-8(6)5-7/h6H,1-5H2	InChI=1S/C7H11NO/c1-2-9-7(1)3-6-4-8(6)5-7/h6H,1-5H2/t6-,7-,8?/m1/s1
