19
gdb 116883	5.19091	0.51208	0.48864	2.9106	83.37	-0.2532	-0.0409	0.2123	2259.3025	0.155854	-423.008389	-422.997727	-422.996783	-423.046328	36.495	
C	-0.1734772619	 1.6375492712	-0.1409157256	-0.382347
C	-0.2788774167	 0.1132996934	-0.2160744072	-0.156326
C	 0.993825996	-0.5314710994	-0.8027597012	-0.336918
C	 0.9175588694	-1.9842304407	-0.8974310206	-0.00662
C	 0.8155193561	-3.1820863097	-0.9799539748	 0.141973
C	 0.7390641364	-4.6442221134	-1.0727508945	-0.112043
O	 0.5155773959	-5.1207769669	-2.3724282427	-0.410393
C	 2.0510914576	-5.2102420863	-0.5182757386	 0.145306
O	 2.7614948256	-5.9120252161	-1.1911874082	-0.252088
H	 0.6666875121	 1.9481493761	 0.4902172266	 0.116678
H	-0.0207554681	 2.074409696	-1.1340094704	 0.118457
H	-1.0841418279	 2.0751296171	 0.278458881	 0.117532
H	-0.4592440656	-0.3028688817	 0.7813455962	 0.108647
H	-1.1372922083	-0.1767161238	-0.8317402805	 0.114356
H	 1.1858755283	-0.1168437309	-1.8014531109	 0.134815
H	 1.8613290465	-0.2506023338	-0.1903115417	 0.129045
H	-0.0663502423	-5.0001579503	-0.4063393617	 0.121337
H	 1.3304660369	-5.5891583839	-2.6162736702	 0.296168
H	 2.3063298901	-4.9180637267	 0.5180862451	 0.112421
20.8156	56.3864	73.0702	103.9908	135.4308	222.4163	243.3468	293.332	316.1569	330.129	408.8703	476.9302	481.995	551.6923	715.7871	742.0629	794.3158	865.3708	871.2916	903.0858	1016.1362	1041.5866	1107.4206	1116.674	1122.5882	1168.0517	1240.7015	1259.0277	1305.22	1322.3738	1325.6934	1381.3172	1389.1593	1414.2161	1433.0113	1469.443	1492.0809	1499.5505	1508.7408	1820.9977	2356.8792	2950.7532	2964.2477	3013.2405	3031.2607	3040.5787	3043.6304	3075.8413	3102.241	3108.077	3684.9794
CCCC#CC(O)C=O	CCCC#C[C@@H](O)C=O	
InChI=1S/C7H10O2/c1-2-3-4-5-7(9)6-8/h6-7,9H,2-3H2,1H3	InChI=1S/C7H10O2/c1-2-3-4-5-7(9)6-8/h6-7,9H,2-3H2,1H3/t7-/m1/s1
