14
gdb 29242	3.23345	1.45804	1.01116	3.0675	68.13	-0.2614	-0.0595	0.2019	1099.799	0.100587	-473.881436	-473.873547	-473.872602	-473.914462	28.473	
C	-0.3105689414	 1.5350594722	 0.0029302848	-0.47654
C	-0.0059506522	 0.0667343027	-0.023803307	 0.028987
C	 0.1050473576	-0.6585853562	-1.143868646	 0.017561
O	 0.378953575	-1.9810685813	-1.1869146069	-0.194285
C	 0.5671176286	-2.6851179418	-0.0306173433	 0.475926
N	 0.8195739321	-3.9096841974	-0.1160942733	-0.528981
O	 0.4650863348	-1.9956417639	 1.1401185724	-0.250749
C	 0.1837101762	-0.62685215	 1.2452656924	 0.400465
O	 0.1239009322	-0.1527846954	 2.3411973474	-0.308416
H	 0.4917947384	 2.0896587005	 0.4992764905	 0.152393
H	-0.4326499264	 1.9291187475	-1.0090650496	 0.127471
H	-1.2273035147	 1.731494099	 0.5674134185	 0.152503
H	-0.0139906495	-0.2591757341	-2.1441388132	 0.155877
H	 0.9366217594	-4.312027732	 0.8109058533	 0.247788
60.9497	124.3885	145.732	266.7785	287.9814	380.2958	380.4419	460.6864	537.7698	600.8665	708.2548	709.1942	770.7552	810.9514	838.5247	918.2806	935.8273	999.682	1043.0088	1072.5561	1080.1311	1213.2425	1267.693	1365.539	1398.7235	1421.3785	1470.8493	1491.614	1712.938	1778.7208	1867.3234	3043.8429	3103.9454	3125.8517	3214.306	3543.712
CC1=COC(=N)OC1=O	CC1=CO[C]([NH])OC1=O	
InChI=1S/C5H5NO3/c1-3-2-8-5(6)9-4(3)7/h2,6H,1H3	InChI=1S/C5H5NO3/c1-3-2-8-5(6)9-4(3)7/h2,6H,1H3
