13
gdb 24998	4.78302	1.32636	1.05477	5.2345	59.6	-0.2143	0.0232	0.2375	1040.7552	0.09065	-493.722964	-493.716217	-493.715273	-493.754586	24.829	
O	 0.0480862383	 0.0476157824	 0.1513736639	-0.344376
C	-0.0164151273	 1.2264138813	 0.0602126211	 0.471472
O	-1.1565901263	 1.9742130386	-0.053211894	-0.245753
C	-0.7370526708	 3.2994983191	-0.1913430552	 0.122781
C	 0.5780356867	 3.3158599548	-0.1084411943	 0.420973
O	 1.2093899416	 4.4891317662	-0.0230587362	-0.274529
C	 0.0895172205	 5.4431149245	-0.2027932964	-0.09073
C	-1.281467481	 4.6774995922	-0.0345059557	-0.360189
O	 1.1050730379	 2.0771094141	 0.0311976683	-0.251802
H	 0.2368318896	 6.2367746126	 0.5285454799	 0.143814
H	 0.1833641051	 5.8455849407	-1.2136505937	 0.142712
H	-1.9923591655	 5.0040020646	-0.7996075954	 0.13424
H	-1.7393472887	 4.8550384488	 0.9474634378	 0.131387
96.6895	136.4167	248.7749	309.5001	338.0704	541.3128	605.0334	653.0776	710.888	745.3164	764.6579	823.225	850.026	879.9911	913.3278	955.9275	974.7235	1082.8845	1179.9812	1190.1462	1252.5604	1264.302	1338.7095	1358.0282	1462.542	1501.9136	1519.0995	1815.3004	1956.6757	3015.8626	3067.123	3085.0771	3153.4803
O=C1OC2=C(OCC2)O1	O=c1oc2c(OCC2)o1	
InChI=1S/C5H4O4/c6-5-8-3-1-2-7-4(3)9-5/h1-2H2	InChI=1S/C5H4O4/c6-5-8-3-1-2-7-4(3)9-5/h1-2H2
