18
gdb 66809	3.71986	1.7979	1.76713	1.823	76.29	-0.2146	0.0718	0.2864	864.8801	0.150006	-364.746947	-364.740695	-364.739751	-364.777156	26.815	
C	-0.1595745565	 1.52096773	 0.0245812587	-0.515507
C	 0.0842190244	 0.0444471531	-0.0112005368	 0.360785
C	 0.129567981	-0.8429518316	-1.1971161683	-0.120451
C	 1.1342781406	-1.9593793845	-0.9883915084	-0.069923
C	 0.6547398466	-2.826912029	 0.1532896778	-0.07852
C	 1.7680721555	-1.8104329948	 0.3786788189	-0.09196
C	 0.7738987994	-0.836729388	 1.0639751806	-0.143901
C	-0.359010643	-1.8686732803	 0.8086272058	-0.010778
N	-1.0122590284	-0.9760686842	-0.2391527792	-0.198764
H	 0.7802807361	 2.0754529973	-0.082303457	 0.119216
H	-0.8271612458	 1.8204290324	-0.7888700719	 0.129479
H	-0.6246705439	 1.8247935746	 0.9690535529	 0.1216
H	-0.1365315123	-0.4948690386	-2.1883399747	 0.088784
H	 1.6861598576	-2.3941192696	-1.8109732372	 0.089018
H	 0.6699954142	-3.9094807534	 0.1548110197	 0.088053
H	 2.8191890026	-1.9632330398	 0.5911713837	 0.086337
H	 0.9924281944	-0.4352764567	 2.0502887821	 0.070463
H	-1.0404120426	-2.219527807	 1.5796905732	 0.076067
177.3729	224.1387	273.7791	543.8649	557.1518	591.3126	691.3194	732.6076	764.8469	771.5699	797.6871	806.8758	820.1066	880.8212	893.812	901.5735	912.3157	925.5406	959.8668	994.6482	1017.3425	1034.8428	1053.7291	1059.0993	1076.2965	1095.1993	1159.9844	1170.9574	1206.1357	1226.9848	1237.5124	1262.315	1277.3683	1302.5884	1351.0652	1403.4805	1436.3805	1481.8109	1491.5618	3024.9225	3085.6458	3107.2336	3142.504	3151.3246	3180.03	3182.7375	3191.5088	3213.3352
CC12C3C4C5C4C1C5N23	C[C@@]12[C@H]3[C@@H]4[C@H]5[C@@H]4[C@@H]1[C@H]5N23	
InChI=1S/C8H9N/c1-8-5-2-3-4(2)7(8)9(8)6(3)5/h2-7H,1H3	InChI=1S/C8H9N/c1-8-5-2-3-4(2)7(8)9(8)6(3)5/h2-7H,1H3/t2-,3+,4-,5+,6-,7+,8-,9?/m0/s1
