21
gdb 77252	2.71478	1.00934	0.92555	3.8863	80.81	-0.2689	0.004	0.2729	1392.393	0.179107	-424.243791	-424.233222	-424.232277	-424.279552	37.629	
C	 0.2337413907	 1.4715454535	-0.2512454213	-0.426373
C	 0.2002068831	-0.0263152902	-0.0358912657	-0.082112
C	 1.461163669	-0.864944672	-0.0782835982	 0.053432
O	 2.7179256301	-0.2175648091	-0.1778056966	-0.188177
C	 3.1568576274	 0.0551014304	-1.4246053715	 0.174612
O	 4.2086536156	 0.5797394885	-1.6345507731	-0.274813
C	 0.7231466473	-0.7075089068	 1.2241749597	 0.263553
C	 1.3540981345	 0.1144201551	 2.3330627086	-0.452494
C	-0.0448892187	-1.9204608513	 1.7193236636	-0.451309
H	 1.1598354663	 1.9226794387	 0.1095502391	 0.138804
H	 0.1444317858	 1.7107222589	-1.3168214306	 0.121255
H	-0.6001381072	 1.9575816629	 0.2658000108	 0.124317
H	-0.6665004845	-0.5106747697	-0.48102978	 0.086198
H	 1.4468811714	-1.832700175	-0.5735435486	 0.102826
H	 2.4444782789	-0.2642700125	-2.2090695895	 0.079842
H	 1.9861023144	 0.9176042287	 1.9540706962	 0.138082
H	 0.5799298248	 0.5540287254	 2.971710365	 0.11602
H	 1.9821323528	-0.5237174116	 2.964368303	 0.12193
H	 0.6012584799	-2.5831785946	 2.3064018135	 0.121189
H	-0.8799248067	-1.6150968566	 2.3602828511	 0.120493
H	-0.4598335651	-2.5038630329	 0.8912651548	 0.112725
53.3082	119.6078	127.6058	157.1245	169.7674	200.2594	225.2027	240.2286	280.4014	303.9062	361.4839	440.8018	488.5455	556.3866	691.67	708.3616	780.4701	879.3794	973.6469	977.4966	982.7461	1019.0231	1049.004	1053.419	1077.1387	1127.8119	1150.3747	1160.5192	1176.6573	1182.8169	1265.05	1333.5262	1361.8293	1409.8781	1416.0172	1421.3721	1426.0704	1453.6655	1480.9471	1488.649	1494.8782	1500.1633	1507.0512	1518.9157	1866.451	2958.9223	3023.6957	3035.0895	3038.2466	3086.9758	3090.8582	3092.4264	3098.013	3118.9368	3130.8961	3137.7319	3147.4337
CC1C(OC=O)C1(C)C	C[C@H]1[C@@H](OC=O)C1(C)C	
InChI=1S/C7H12O2/c1-5-6(9-4-8)7(5,2)3/h4-6H,1-3H3	InChI=1S/C7H12O2/c1-5-6(9-4-8)7(5,2)3/h4-6H,1-3H3/t5-,6+/m0/s1
