18
gdb 20133	4.69014	1.57385	1.501	1.5729	70.62	-0.2326	0.0827	0.3154	913.7387	0.154429	-347.741122	-347.734078	-347.733134	-347.772504	27.569	
C	-0.1896102711	 1.3174463907	-0.3241257683	-0.259071
C	 1.1692116813	 0.9936003408	 0.2460598255	-0.272591
C	 0.1778884657	-0.1121665009	-0.0179920539	-0.007754
C	-0.421503867	-0.8675838404	 1.1385987359	 0.113253
O	-0.8943604754	-0.01897728	 2.2294199134	-0.30519
C	-2.1391065543	-0.7259620982	 2.2504372652	 0.108026
C	-2.9023548602	-0.5357767011	 0.9789330092	-0.297403
C	-1.7869415929	-1.5602121067	 1.0433490377	-0.148711
H	-0.8881697305	 1.807991899	 0.3420237907	 0.126307
H	-0.2603121862	 1.6167967681	-1.3639652993	 0.105948
H	 2.0392285629	 1.0710769322	-0.3963906291	 0.107779
H	 1.3443250536	 1.2657744075	 1.2812236874	 0.126714
H	 0.3905712079	-0.7543442119	-0.8696018664	 0.084583
H	 0.3211794198	-1.5697309753	 1.5434583213	 0.08252
H	-2.5613892066	-0.9716214419	 3.2176651403	 0.103201
H	-3.8969137953	-0.9721059283	 0.9729448705	 0.113048
H	-2.7994387867	 0.3784188652	 0.4057265219	 0.123123
H	-1.9385624749	-2.6130675788	 0.8485235779	 0.09622
83.8219	152.3929	185.6335	297.2303	392.7001	482.284	582.0059	706.5254	765.509	781.6534	804.0436	827.2716	840.8667	922.0534	931.8398	950.3537	979.6445	991.073	1038.0522	1048.8104	1057.5666	1067.8243	1077.5446	1087.7038	1090.5054	1129.1416	1141.8474	1199.8103	1203.6913	1230.2791	1261.1036	1290.7509	1360.3565	1374.856	1410.1321	1457.6213	1475.8006	1501.6568	2999.3803	3130.8421	3133.3084	3135.7715	3143.637	3181.521	3204.0346	3218.224	3221.4419	3236.4563
C1CC1C1OC2CC12	C1CC1[C@H]1O[C@H]2C[C@@H]12	
InChI=1S/C7H10O/c1-2-4(1)7-5-3-6(5)8-7/h4-7H,1-3H2	InChI=1S/C7H10O/c1-2-4(1)7-5-3-6(5)8-7/h4-7H,1-3H2/t5-,6+,7-/m1/s1
