15
gdb 124101	3.69969	1.611	1.15784	3.4574	66.35	-0.2232	0.0176	0.2408	984.9705	0.116831	-453.957228	-453.950659	-453.949715	-453.988196	25.698	
C	 0.0261984567	 1.3759115916	 0.0143363713	 0.001357
O	 1.2986589899	 1.9428192092	-0.0404626305	-0.233218
C	 2.0512055766	 1.7236285818	 1.15897118	-0.208463
C	 1.9078737338	 0.2846620209	 1.546156829	 0.09378
C	 2.5555444343	-0.5918556888	 2.3899992403	-0.163727
N	 1.9466606723	-1.7923506777	 2.2294295111	-0.187056
N	 0.9276485724	-1.7733994408	 1.3334802445	-0.331073
C	 0.9163456271	-0.5144695511	 0.9315641527	 0.402556
O	 0.0471428665	-0.0533609311	 0.0054326839	-0.252497
H	-0.5142725323	 1.7097136591	 0.9158504464	 0.094793
H	-0.505021939	 1.6740756579	-0.8895146563	 0.129939
H	 3.0816260533	 1.9985250902	 0.915916375	 0.129664
H	 1.6993785493	 2.4073036966	 1.9483764272	 0.107692
H	 3.3838120278	-0.4628540925	 3.069231816	 0.138194
H	 2.1629171212	-2.6582185654	 2.6904728794	 0.278059
126.1662	222.5709	329.3772	376.9158	424.7245	435.4924	483.2798	597.0968	644.8089	722.8643	732.815	776.2189	786.3124	950.9442	957.504	1010.7374	1032.4515	1072.6427	1103.0372	1137.1334	1198.0024	1245.7739	1254.7989	1314.4498	1320.4165	1368.0814	1427.8366	1441.7686	1484.8197	1495.9106	1510.6928	1554.2055	1639.9576	2964.7565	2971.8247	3079.7647	3136.8926	3256.348	3693.3212
C1OCC2=CNN=C2O1	C1OCc2c[nH]nc2O1	
InChI=1S/C5H6N2O2/c1-4-2-8-3-9-5(4)7-6-1/h1H,2-3H2,(H,6,7)	InChI=1S/C5H6N2O2/c1-4-2-8-3-9-5(4)7-6-1/h1H,2-3H2,(H,6,7)
