16
gdb 27291	3.31338	1.57867	1.09446	3.8497	71.61	-0.1787	0.0349	0.2136	1050.1511	0.128415	-434.091024	-434.083853	-434.082909	-434.122577	27.807	
O	 0.0403176154	 1.3859215265	-0.0110944041	-0.442009
C	 0.0756454037	 0.0321174791	-0.0677085686	 0.232384
C	 0.0480044912	-0.7664274003	-1.1805732217	 0.233216
N	 0.014218106	-0.7349279362	-2.593514071	-0.413853
C	 0.356564809	-2.1217956882	-2.9884282423	-0.175413
C	 0.0149779955	-3.0371995494	-1.7717088586	-0.197839
N	 0.0943955247	-2.0622406544	-0.6966838532	-0.009291
C	 0.1372378086	-1.9977585341	 0.6567631664	-0.031998
N	 0.1232937962	-0.7375862809	 1.063285997	-0.356244
H	 0.0788777228	 1.6101467564	 0.9264291688	 0.296759
H	-0.9049536101	-0.4748547646	-2.9397367311	 0.23788
H	-0.1705505198	-2.4126199453	-3.8987498929	 0.116856
H	 1.4328351402	-2.1749048714	-3.1838254816	 0.130401
H	-0.992435987	-3.4670922584	-1.835147991	 0.12108
H	 0.7353282255	-3.8490589095	-1.6478900463	 0.129916
H	 0.2082837182	-2.8651143591	 1.2937195201	 0.128156
126.6479	178.7751	258.5301	284.7533	342.7421	360.2167	527.6402	609.7699	625.2607	640.5947	692.7396	740.6666	753.0363	796.1976	844.5631	912.6148	929.9826	1003.4694	1078.0872	1111.8105	1132.5919	1201.4464	1241.8389	1255.427	1296.3928	1309.9515	1365.6776	1371.8032	1401.83	1417.999	1463.8654	1496.8164	1503.9732	1525.6641	1713.3143	3025.9789	3049.2798	3101.6299	3122.0716	3260.8113	3486.1905	3805.221
OC1=C2NCCN2C=N1	Oc1c2NCCn2cn1	
InChI=1S/C5H7N3O/c9-5-4-6-1-2-8(4)3-7-5/h3,6,9H,1-2H2	InChI=1S/C5H7N3O/c9-5-4-6-1-2-8(4)3-7-5/h3,6,9H,1-2H2
