15
gdb 53917	1.72409	1.54849	1.35181	1.936	70.58	-0.2922	-0.0664	0.2257	1084.4915	0.109186	-416.845663	-416.835798	-416.834854	-416.881017	33.787	
C	 0.6045975541	 0.6093145681	-0.9824136985	-0.503026
C	-0.1151059039	 0.2291791679	 0.2845042395	 0.389238
O	 0.1808033892	 0.6032206859	 1.3826640512	-0.258544
C	-1.3706066685	-0.7515916003	 0.1279793956	-0.165926
C	-1.9989553376	-1.0394200416	 1.5102129969	-0.406229
C	-2.345690494	-0.0988157002	-0.7568416973	 0.29286
N	-3.1029889788	 0.4620416563	-1.4252600064	-0.319093
C	-0.8947961345	-1.9961712528	-0.4921267239	 0.292806
N	-0.4764052512	-2.9726848634	-0.946252369	-0.318957
H	 1.4396268686	 1.2662565825	-0.7397570361	 0.162
H	 0.9681759951	-0.2875347913	-1.4941499262	 0.179877
H	-0.0830857112	 1.114865416	-1.668125709	 0.180308
H	-2.3227203853	-0.1013799897	 1.9621537389	 0.160561
H	-2.8535142169	-1.7089363343	 1.4013279509	 0.15337
H	-1.2519180151	-1.4996852531	 2.1575398335	 0.160754
37.3849	123.5832	128.2421	141.2775	164.2194	209.6696	237.7425	273.6615	377.145	426.9467	472.7099	506.5039	577.1567	591.2161	607.0934	649.5187	842.5961	937.0804	959.6964	1052.246	1091.3831	1147.5446	1169.3187	1200.2261	1392.235	1411.941	1462.7156	1471.6343	1478.7919	1484.5738	1853.8577	2354.9433	2360.8402	3050.975	3072.7316	3116.1852	3160.7129	3165.3937	3165.5772
CC(=O)C(C)(C#N)C#N	CC(=O)C(C)(C#N)C#N	
InChI=1S/C6H6N2O/c1-5(9)6(2,3-7)4-8/h1-2H3	InChI=1S/C6H6N2O/c1-5(9)6(2,3-7)4-8/h1-2H3
