14
gdb 21000	7.22081	1.26352	1.08269	5.129	68.21	-0.2462	-0.0379	0.2084	1033.7665	0.108261	-378.7567	-378.749344	-378.7484	-378.78914	25.399	
C	-0.0096796421	 1.4231707767	 0.0561814312	-0.320093
N	-0.0341953091	-0.0228882464	-0.0244032659	 0.058244
C	 0.1827061459	-0.8024207031	-1.0992180984	-0.107688
C	 0.0502826387	-2.1206941786	-0.6787088237	 0.084246
C	 0.1935412652	-3.327767074	-1.4796782881	 0.070663
O	 0.0659870443	-4.4561940422	-1.0560762174	-0.282087
C	-0.254509024	-2.0080145227	 0.7026029201	-0.058978
N	-0.3047969901	-0.7452626513	 1.0939634326	-0.259457
H	 0.2213705659	 1.8295615894	-0.9294459864	 0.143591
H	-0.9828525207	 1.7956824433	 0.3851187572	 0.158855
H	 0.7518285262	 1.7448611873	 0.7707934055	 0.158832
H	 0.4109766135	-0.3845358269	-2.0677543783	 0.150614
H	 0.4378546821	-3.1442388379	-2.5509688466	 0.059314
H	-0.4343319957	-2.8087583735	 1.4035501983	 0.143946
50.3876	112.114	170.0779	226.6761	288.7009	357.6293	487.2409	628.3159	676.8715	714.6517	771.9238	814.9774	914.5972	988.7884	1030.8772	1038.2802	1078.8623	1152.9347	1178.8458	1221.7352	1305.9954	1390.0106	1425.8559	1448.8714	1458.0083	1472.7181	1486.8861	1533.4336	1588.6747	1788.6957	2865.305	3055.9407	3126.198	3152.351	3254.84	3262.6841
CN1C=C(C=O)C=N1	Cn1cc(C=O)cn1	
InChI=1S/C5H6N2O/c1-7-3-5(4-8)2-6-7/h2-4H,1H3	InChI=1S/C5H6N2O/c1-7-3-5(4-8)2-6-7/h2-4H,1H3
