14
gdb 20998	7.07747	1.2925	1.10053	2.5087	74.63	-0.2218	0.0033	0.225	1030.9836	0.107672	-341.577282	-341.569734	-341.56879	-341.609956	26.996	
C	-0.0118376063	 1.4292286226	 0.0752013799	-0.31834
N	 0.0096377839	-0.0156284019	-0.0135490364	 0.06317
C	-0.0644589819	-0.7800482934	-1.1242989438	-0.151599
C	 0.0371685646	-2.1042532159	-0.7153918786	 0.06765
C	 0.1744053248	-2.008334132	 0.6948882226	-0.101328
N	 0.1583509154	-0.7494313048	 1.1102819875	-0.257511
C	 0.0051186657	-3.2664258418	-1.5166484095	 0.254633
C	-0.0198291179	-4.2663816785	-2.1877265211	-0.457731
H	 0.975836478	 1.8136137803	 0.3462423471	 0.151592
H	-0.3064325604	 1.8402723759	-0.8915611306	 0.142045
H	-0.7316458524	 1.7371072753	 0.8363401892	 0.157536
H	-0.1829467769	-0.3531284615	-2.1070725564	 0.141841
H	 0.2781942269	-2.8165027997	 1.4030225441	 0.121984
H	-0.0422362335	-5.1467326447	-2.7802471941	 0.186058
31.758	138.0559	146.5562	232.2103	357.6412	471.2895	535.5618	543.7637	544.2368	640.0423	652.1101	679.8698	735.3	797.3283	885.682	1000.5907	1026.6425	1077.1683	1151.31	1181.6023	1219.3785	1326.2144	1367.5867	1409.3757	1452.4702	1474.9368	1480.3958	1527.324	1587.714	2234.9386	3051.4992	3122.1982	3151.3159	3255.2918	3267.3018	3505.9135
CN1C=C(C=N1)C#C	Cn1cc(cn1)C#C	
InChI=1S/C6H6N2/c1-3-6-4-7-8(2)5-6/h1,4-5H,2H3	InChI=1S/C6H6N2/c1-3-6-4-7-8(2)5-6/h1,4-5H,2H3
