21
gdb 81694	2.64634	1.38702	1.34698	2.4281	77.27	-0.2447	0.0731	0.3178	1086.435	0.184676	-424.217228	-424.209121	-424.208177	-424.249265	33.114	
O	 0.2167607831	 1.0162829543	-0.3443895536	-0.453254
C	 0.0529927121	-0.3575242598	-0.0320611935	 0.136229
C	 0.1167995022	-0.6506540286	 1.5018220982	-0.052967
C	-1.3677248132	-0.1948166343	 1.5641782373	-0.221013
C	-1.4635979706	-0.6638317257	 0.0850064213	-0.018431
C	-1.7197351017	-2.1778470371	 0.0424182933	-0.220909
C	-0.572953016	-2.9827298447	 0.6954957061	 0.115266
O	 0.2970940762	-3.3591525444	-0.3784995965	-0.426867
C	 0.1914283963	-2.1618513108	 1.7682000835	-0.241013
H	 1.1433440662	 1.2388298534	-0.209384211	 0.277305
H	 0.6480810662	-0.9934205574	-0.6946499043	 0.077217
H	 0.8547447997	-0.0948339228	 2.0886177104	 0.049454
H	-2.0175195682	-0.6848508391	 2.2967290369	 0.07739
H	-1.4582734235	 0.8875432954	 1.6533351413	 0.108526
H	-2.1226562931	-0.1146185473	-0.5908099467	 0.067443
H	-2.6658819684	-2.394087332	 0.5517136186	 0.095036
H	-1.8168019506	-2.5383566291	-0.9861698957	 0.113411
H	-0.9802645579	-3.8940217257	 1.1568833514	 0.063408
H	 1.0487522787	-3.8254054674	 0.0017832554	 0.276797
H	 1.2328516085	-2.5093218152	 1.7882204403	 0.079215
H	-0.221655826	-2.3706698118	 2.7631587076	 0.097758
129.5566	231.3751	238.2632	296.2428	310.346	322.0945	343.2597	416.24	447.0211	502.1237	513.5505	692.0862	780.0046	840.7174	846.9894	856.8027	901.6206	916.5882	944.4664	957.1512	984.2849	1031.1804	1034.7649	1078.5015	1105.7718	1112.2497	1123.5662	1130.1367	1171.9343	1228.2693	1240.2491	1250.416	1258.4187	1286.2255	1305.5597	1316.6783	1332.635	1355.7808	1369.3704	1382.7914	1424.0411	1426.6926	1476.6635	1478.2057	1493.8142	2981.2507	3012.6912	3039.4668	3045.3974	3050.9524	3055.0294	3062.7465	3083.7599	3089.9929	3133.4256	3810.152	3813.8285
OC1C2CC1CC(O)C2	O[C@H]1[C@H]2C[C@@H]1C[C@@H](O)C2	
InChI=1S/C7H12O2/c8-6-2-4-1-5(3-6)7(4)9/h4-9H,1-3H2	InChI=1S/C7H12O2/c8-6-2-4-1-5(3-6)7(4)9/h4-9H,1-3H2/t4-,5+,6-,7-
