18
gdb 37489	3.87705	1.95223	1.66764	1.4359	81.22	-0.2046	-0.0325	0.172	847.209	0.150726	-364.689297	-364.68352	-364.682576	-364.718911	25.802	
C	-0.0299832162	 1.5239577682	-0.055574259	-0.182207
C	 1.4960063524	 1.4330327802	-0.1912929659	-0.102805
C	 1.3401513953	 0.0768824455	 0.7445748366	-0.027935
C	 1.7055444122	-1.2352884235	-0.0813193001	-0.013069
C	 2.9900492054	-1.3713636783	-0.9491334374	-0.274523
C	 2.9816675052	 0.017415533	-1.592321116	-0.154832
C	 1.763696768	 0.5475747753	-1.370426921	 0.115327
C	 0.7062726776	-0.5500079453	-1.0162357917	-0.04762
N	-0.0611460682	 0.0385845309	 0.141932277	-0.142764
H	-0.3664742574	 2.0138241663	 0.8631554455	 0.105311
H	-0.6032683572	 1.9007858133	-0.9084615063	 0.103775
H	 2.1892093374	 2.2392168045	 0.0474250559	 0.0755
H	 1.4462538952	 0.1734410711	 1.8274644573	 0.080864
H	 1.3672930574	-2.1277342276	 0.454048778	 0.076897
H	 3.9227674369	-1.4949139324	-0.3862762752	 0.10983
H	 2.9001203816	-2.2512852688	-1.6024994076	 0.110677
H	 3.8886699918	 0.613484666	-1.6256903309	 0.093272
H	 0.1525629026	-1.0382875084	-1.8179047093	 0.074303
270.469	364.3061	408.0822	439.0126	562.8664	630.2572	662.5082	705.1433	770.8276	795.0876	831.8912	843.7501	858.5901	880.7648	893.9642	922.8002	945.2185	969.4181	994.3356	1004.4244	1020.0073	1053.279	1070.3287	1114.3043	1132.3397	1143.0307	1174.2284	1194.0118	1202.6679	1234.1889	1247.522	1257.9569	1268.8433	1295.6557	1310.3453	1330.7666	1472.1607	1503.529	1610.0376	2999.4184	3045.2481	3056.9124	3071.8032	3091.6425	3101.1731	3116.3487	3124.4691	3164.9734
C1C2C3C4CC=C2C4N13	C1[C@H]2[C@@H]3[C@@H]4C[CH][C]2[C@@H]4N13	
InChI=1S/C8H9N/c1-2-5-7-4(1)6-3-9(7)8(5)6/h1,5-8H,2-3H2	InChI=1S/C8H9N/c1-2-5-7-4(1)6-3-9(7)8(5)6/h1,5-8H,2-3H2/t5-,6-,7+,8+/m1/s1
