19
gdb 93905	2.78076	1.45291	1.16608	1.2564	69.74	-0.2637	0.0671	0.3307	1088.2407	0.160568	-460.153556	-460.145448	-460.144504	-460.186042	32.092	
O	 0.1118766896	 1.3944691948	-0.1122469567	-0.440583
C	 0.047697609	-0.0194618189	 0.0069004405	 0.117906
C	 0.8553938166	-0.5324155458	 1.2108851752	-0.233437
C	 0.1051618873	-0.3464109064	 2.5345725032	-0.246642
C	-1.1753546067	-1.1888200306	 2.5612164511	 0.122271
O	-1.9643944682	-0.9496040545	 3.7184160662	-0.439036
C	-2.001795262	-0.9952970094	 1.3066649987	 0.024753
O	-2.2281626856	 0.3741454521	 0.9210627553	-0.275945
C	-1.4164167262	-0.4560037571	 0.0686861402	-0.003903
H	-0.6081288123	 1.7439062767	 0.4277672571	 0.294446
H	 0.4903809232	-0.4192058917	-0.9123634957	 0.083884
H	 1.0753866255	-1.5984685941	 1.0616675467	 0.093806
H	 1.8134125459	-0.0044233429	 1.2259816277	 0.111681
H	 0.7290678215	-0.626825518	 3.387683653	 0.107994
H	-0.1580971666	 0.7100620059	 2.6668296531	 0.097904
H	-0.9061909271	-2.2517228267	 2.6184468867	 0.094744
H	-2.2751373765	-0.0381210843	 3.665847182	 0.285734
H	-2.8938795841	-1.6180459619	 1.2416249755	 0.10138
H	-1.8952908633	-0.6926134973	-0.8804788898	 0.103042
78.163	176.4726	235.2827	292.1457	340.5812	357.8744	379.8531	426.5384	442.5108	489.8797	589.9638	625.9491	720.5959	761.9508	799.522	857.1351	901.8108	945.176	948.398	1003.4192	1047.4517	1075.4767	1084.9562	1105.1075	1139.8085	1158.2588	1183.9616	1208.4394	1270.682	1283.1801	1301.3251	1341.8989	1347.7272	1368.3971	1382.3439	1388.447	1428.643	1437.2072	1456.1665	1477.3739	1493.6445	3017.0358	3029.232	3041.5357	3047.0712	3088.0915	3093.6829	3113.7499	3126.2518	3776.3526	3794.4739
OC1CCC(O)C2OC12	O[C@H]1CC[C@@H](O)[C@H]2O[C@@H]12	
InChI=1S/C6H10O3/c7-3-1-2-4(8)6-5(3)9-6/h3-8H,1-2H2	InChI=1S/C6H10O3/c7-3-1-2-4(8)6-5(3)9-6/h3-8H,1-2H2/t3-,4+,5-,6+
