25
gdb 121232	2.80981	0.84224	0.70079	1.0024	90.52	-0.2428	0.083	0.3258	1750.1595	0.227673	-389.478723	-389.468001	-389.467057	-389.515166	38.855	
C	-0.0272858736	 1.5732704803	-0.157833046	-0.379016
C	 0.1241698061	 0.050673098	-0.1019110847	-0.164698
C	 0.578537374	-0.4568599216	 1.2720871589	-0.18492
C	 0.7383057729	-1.9703219266	 1.3232975761	 0.009301
C	 1.868690764	-2.6597145258	 0.5028481803	-0.223396
C	 2.1040983765	-3.62117322	 1.6988665529	-0.251534
C	 1.3185764437	-2.6288762555	 2.6070027959	 0.113312
O	 2.146716193	-1.7110224091	 3.2890664426	-0.244112
C	 2.7291311179	-2.2408319868	 4.4561809203	-0.232483
H	 0.9208911996	 2.0728598009	 0.0701227247	 0.113499
H	-0.351008867	 1.9087077154	-1.1483507145	 0.107496
H	-0.7665682398	 1.9242399886	 0.5709758296	 0.111903
H	-0.8307960451	-0.4226532043	-0.3680154797	 0.088863
H	 0.8439082887	-0.2727229783	-0.8653230033	 0.096727
H	 1.5291912797	 0.0134739702	 1.547516203	 0.106161
H	-0.146834851	-0.1417121183	 2.0349256999	 0.088068
H	-0.2206366676	-2.4520749829	 1.0955137854	 0.066627
H	 1.5990240413	-3.1060837533	-0.4569987048	 0.092582
H	 2.718138718	-1.9876620116	 0.3501114104	 0.104838
H	 1.5771355431	-4.5726385158	 1.5833335015	 0.098036
H	 3.1384014913	-3.8259618262	 1.9855209434	 0.099442
H	 0.5953591336	-3.0686174841	 3.3107896994	 0.051381
H	 1.9630539517	-2.5687094298	 5.1769829796	 0.10246
H	 3.3865980569	-3.0974701588	 4.2445152559	 0.104628
H	 3.3260147421	-1.4466555744	 4.9117094933	 0.124836
74.7084	78.2737	95.4895	116.7199	128.6101	198.2964	226.5356	247.3864	313.1219	317.7387	382.7442	456.2269	543.0767	703.9798	742.3599	760.6547	843.1063	865.8132	890.0996	913.1127	941.1773	955.9833	1003.1999	1020.1935	1049.484	1089.0464	1102.0533	1140.6151	1162.821	1174.1301	1184.123	1206.5044	1227.4871	1248.0156	1262.8471	1272.35	1276.1822	1292.0837	1314.661	1328.9946	1372.0661	1384.3285	1396.4225	1411.7735	1468.0538	1480.6931	1482.5628	1486.9668	1491.1263	1496.343	1499.1724	1510.3753	1511.1652	2969.3818	2978.4166	3008.8407	3015.4568	3019.2572	3026.9818	3027.9067	3039.4387	3055.0375	3059.5782	3072.3196	3094.6367	3098.315	3102.003	3110.417	3117.9603	74.7076	78.2736	95.4893	116.7203	128.6097	198.2959	226.5355	247.3859	313.1219	317.7387	382.7443	456.227	543.0766	703.9798	742.3597	760.6548	843.1064	865.8133	890.0994	913.1127	941.1773	955.9833	1003.1998	1020.1935	1049.484	1089.0463	1102.0533	1140.6151	1162.821	1174.1301	1184.123	1206.5043	1227.4872	1248.0154	1262.847	1272.3498	1276.1822	1292.0836	1314.661	1328.9949	1372.0662	1384.3282	1396.4225	1411.7736	1468.0535	1480.6932	1482.5629	1486.9671	1491.1262	1496.3431	1499.1727	1510.3755	1511.1655	2969.3819	2978.4166	3008.8407	3015.4568	3019.2572	3026.9817	3027.9067	3039.4387	3055.0375	3059.5782	3072.3196	3094.6367	3098.315	3102.003	3110.417	3117.9603
CCCC1CCC1OC	CCC[C@H]1CC[C@H]1OC	
InChI=1S/C8H16O/c1-3-4-7-5-6-8(7)9-2/h7-8H,3-6H2,1-2H3	InChI=1S/C8H16O/c1-3-4-7-5-6-8(7)9-2/h7-8H,3-6H2,1-2H3/t7-,8+/m0/s1
