18
gdb 90691	2.43219	1.56381	1.25858	2.7444	71.13	-0.2485	0.0092	0.2577	1050.8802	0.14845	-439.083304	-439.075014	-439.07407	-439.116416	32.23	
N	 0.9214046304	-0.1754171069	 0.787252211	-0.517434
C	-0.0748623857	 0.1521473442	-0.1132371685	 0.339169
O	 0.0188309289	 1.1031319678	-0.8579949412	-0.341035
C	-1.272516929	-0.7757035522	-0.0996377098	-0.130808
C	-1.7396828692	-1.5223232612	-1.3070066306	-0.049109
C	-0.5444027782	-2.0256605744	-2.1246820601	-0.297835
C	-0.1196858155	-2.9067285105	-0.8945692077	 0.149056
O	 1.2023891011	-2.9183305611	-0.4288600468	-0.444102
C	-1.2518801697	-2.2858286111	-0.0580254954	-0.147598
H	 1.6236244475	 0.5314874554	 0.9524873083	 0.264245
H	 0.7060369655	-0.7961768955	 1.5521673726	 0.269609
H	-2.0861228893	-0.3468369176	 0.4831111687	 0.119666
H	-2.7538722592	-1.4273741407	-1.6723951609	 0.095219
H	-0.8116753745	-2.6206511534	-2.999568396	 0.104875
H	 0.1646438205	-1.2507348849	-2.4293023783	 0.120926
H	-0.3644849941	-3.9522821043	-1.0998480738	 0.095429
H	 1.4577865123	-2.0090749746	-0.2243319728	 0.28373
H	-1.8355313119	-2.8243917189	 0.6807795513	 0.085996
49.461	151.2739	173.8919	218.5022	341.1711	373.6476	422.4447	467.3153	502.7803	556.976	586.7201	669.2631	682.2294	705.7575	794.5574	801.8573	857.9131	906.8949	927.8061	966.9796	1006.0902	1036.5723	1060.2967	1070.6591	1099.7977	1121.2832	1140.304	1165.1505	1227.224	1266.7942	1286.4888	1295.992	1335.629	1347.8866	1425.4863	1457.3193	1493.6524	1606.6613	1805.0492	3064.8159	3074.8751	3122.9192	3127.9706	3166.958	3199.7978	3563.7892	3695.0072	3740.1517
NC(=O)C1C2CC(O)C12	NC(=O)[C@H]1[C@H]2C[C@@H](O)[C@@H]12	
InChI=1S/C6H9NO2/c7-6(9)5-2-1-3(8)4(2)5/h2-5,8H,1H2,(H2,7,9)	InChI=1S/C6H9NO2/c7-6(9)5-2-1-3(8)4(2)5/h2-5,8H,1H2,(H2,7,9)/t2-,3+,4-,5-/m0/s1
