19
gdb 58152	3.70874	0.70651	0.65841	1.2693	94.27	-0.2476	-0.0244	0.2232	1747.4548	0.155311	-385.839529	-385.828802	-385.827857	-385.875377	38.85	
C	-0.0612776906	 1.5719479259	-0.0895324802	-0.408622
C	 0.0303474057	 0.0418420468	-0.0432206713	 0.040287
C	 0.7338715434	-0.5194880815	-1.2844117772	-0.400839
C	 0.7528609506	-0.4541738745	 1.2399082236	-0.11242
O	 2.0988805693	 0.0111057881	 1.3205130644	-0.417841
C	-0.0004732261	-0.1309434103	 2.4528927335	 0.386692
C	-0.6157290724	 0.1639299359	 3.4536851751	-0.22083
C	-1.3079153687	 0.4906470636	 4.5786542082	 0.284169
C	-1.9222998467	 0.7819274615	 5.5765648295	-0.554684
H	 0.9354391188	 2.0221222283	-0.1601692469	 0.113664
H	-0.6260037177	 1.8962778853	-0.9683967512	 0.119552
H	-0.5599498158	 1.9731934644	 0.7981075181	 0.12687
H	-0.9876659599	-0.366288983	 0.003467281	 0.086526
H	 1.7771722563	-0.1920470702	-1.3137347903	 0.132724
H	 0.7249729426	-1.6147277902	-1.2874564952	 0.111406
H	 0.23976699	-0.1775086354	-2.1988791587	 0.110002
H	 0.8423424032	-1.5460106608	 1.1707942671	 0.119301
H	 2.075469193	 0.9261511596	 1.6203139634	 0.2903
H	-2.4627142849	 1.0359579066	 6.4544721371	 0.193742
60.6167	69.422	122.2558	202.9623	217.6932	233.3266	251.1053	269.5489	283.5802	330.9172	355.1424	439.319	493.3871	519.3873	553.4943	590.262	607.7118	619.4677	765.8051	818.9014	925.0643	939.3359	968.9119	1014.3722	1101.8523	1132.3957	1173.4533	1202.4092	1256.9039	1296.6181	1347.4598	1365.3584	1396.8961	1415.7951	1419.3177	1488.5779	1496.401	1505.4368	1514.5812	2178.9571	2355.5032	3022.6095	3029.682	3032.6346	3037.4609	3099.6491	3102.3622	3111.8519	3118.1932	3504.6204	3814.7752
CC(C)C(O)C#CC#C	CC(C)[C@@H](O)C#CC#C	
InChI=1S/C8H10O/c1-4-5-6-8(9)7(2)3/h1,7-9H,2-3H3	InChI=1S/C8H10O/c1-4-5-6-8(9)7(2)3/h1,7-9H,2-3H3/t8-/m0/s1
