19
gdb 57641	3.12954	0.98661	0.93234	2.872	77.74	-0.2626	0.0428	0.3054	1343.8007	0.155409	-422.964476	-422.954488	-422.953544	-422.999393	36.97	
C	 0.3242531052	 1.6019403746	-0.0382781457	-0.402406
C	-0.0438064647	 0.1103641628	-0.0253875896	 0.150896
O	 0.4556204627	-0.4064460044	 1.2066282182	-0.445859
C	-1.5790859281	-0.1134745596	-0.1340463321	-0.276517
C	-2.3212324383	 0.1828878465	 1.1465704611	 0.087704
C	-3.4883557535	-0.6158073344	 1.5434023966	-0.186146
O	-2.2181442901	-0.8248776649	 2.1645567913	-0.239103
C	 0.602349938	-0.5671539257	-1.165828152	 0.342054
C	 1.1122668505	-1.1264641863	-2.099899789	-0.476629
H	 1.4011048118	 1.7094240244	 0.1083210912	 0.139687
H	 0.0515408118	 2.0626825755	-0.9911262617	 0.120228
H	-0.1855227536	 2.1230267313	 0.7765008953	 0.12006
H	-0.108023501	-1.1384781712	 1.483845143	 0.295957
H	-1.9732269133	 0.4987081143	-0.952909531	 0.118416
H	-1.7616920365	-1.1600382734	-0.4006252194	 0.114448
H	-2.2489226321	 1.1985842662	 1.5342026633	 0.103735
H	-4.2509030831	-0.1797834855	 2.1863178706	 0.12091
H	-3.8323298792	-1.4201095892	 0.894421132	 0.117717
H	 1.5778756036	-1.6218676611	-2.915864982	 0.194848
56.0775	96.3799	133.4523	188.6789	213.0942	245.4469	284.0484	325.2345	349.7877	394.9493	411.9128	497.8555	566.2098	576.7459	631.1091	657.6377	753.6617	796.6095	861.8248	903.4345	940.4134	943.0517	978.5067	1042.5773	1091.5738	1122.6045	1157.5513	1165.1971	1184.5498	1189.1976	1268.8363	1292.4509	1331.4485	1389.8179	1410.138	1443.5985	1467.686	1480.302	1495.1162	1528.4635	2228.7912	3042.3305	3050.7356	3085.3534	3087.1762	3119.6827	3129.1032	3136.9316	3175.0983	3500.5554	3793.4761
CC(O)(CC1CO1)C#C	C[C@@](O)(C[C@H]1CO1)C#C	
InChI=1S/C7H10O2/c1-3-7(2,8)4-6-5-9-6/h1,6,8H,4-5H2,2H3	InChI=1S/C7H10O2/c1-3-7(2,8)4-6-5-9-6/h1,6,8H,4-5H2,2H3/t6-,7-/m0/s1
