17
gdb 98749	4.77705	0.77688	0.69768	2.6416	73.04	-0.2624	-0.048	0.2144	1547.8184	0.133774	-455.120249	-455.110937	-455.109993	-455.155324	32.771	
O	 0.230143251	 1.2482577052	-0.3739814498	-0.420074
C	 0.0920207356	-0.0841799149	 0.0183035655	-0.081668
C	-1.3642263986	-0.4744995033	 0.1912793037	 0.320085
N	-2.2502425828	 0.4121204019	-0.0153824527	-0.523232
N	-1.5760872933	-1.7738293906	 0.6695743866	-0.096752
C	-1.1994553206	-2.9690471054	-0.0445460068	-0.253788
C	-2.6534719795	-2.61913732	 0.1767313282	-0.122585
C	-3.4399174861	-3.3515949726	 1.2143300569	 0.164726
O	-4.5688539902	-3.7335420115	 1.0517051833	-0.24328
H	-0.6756499793	 1.5982764283	-0.4092916174	 0.298143
H	 0.5513280607	-0.7574982322	-0.7245687121	 0.103681
H	 0.6097803014	-0.2784625787	 0.9714563177	 0.118808
H	-3.2008152676	 0.0772984433	 0.1382142945	 0.228651
H	-0.8419549214	-2.8781920649	-1.0674575449	 0.147672
H	-0.731330171	-3.7524173069	 0.545663657	 0.141101
H	-3.2170856793	-2.288032846	-0.6930087224	 0.126132
H	-2.880056569	-3.5210178017	 2.1609692826	 0.092378
62.4851	77.7185	86.1291	165.7399	185.7822	279.8217	308.1258	358.4952	396.1356	420.8955	538.4615	569.7455	584.5404	793.9346	869.8919	881.2802	894.569	978.1731	1022.0317	1043.2768	1072.581	1087.4702	1128.983	1137.7333	1154.582	1158.2609	1228.3059	1252.5765	1299.779	1361.6635	1386.9277	1433.7712	1475.1993	1503.7425	1510.3994	1721.6118	1834.5017	2893.5087	2970.4373	2989.3256	3106.2378	3146.3384	3197.6519	3490.03	3661.3103
OCC(=N)N1CC1C=O	OC[C]([NH])N1C[C@H]1C=O	
InChI=1S/C5H8N2O2/c6-5(3-9)7-1-4(7)2-8/h2,4,6,9H,1,3H2	InChI=1S/C5H8N2O2/c6-5(3-9)7-1-4(7)2-8/h2,4,6,9H,1,3H2/t4-,7?/m0/s1
