19
gdb 55954	3.72793	0.99706	0.93045	1.8096	77.15	-0.2448	0.0186	0.2634	1333.864	0.158497	-423.081478	-423.072408	-423.071463	-423.117055	32.366	
C	 0.0155741757	 1.4383534889	-0.1080572939	-0.477057
C	-0.0993349573	-0.0585643115	 0.0602268613	 0.42751
O	-0.3550705099	-0.6281139381	 1.0920543956	-0.358329
O	 0.1279269174	-0.6854494906	-1.113029151	-0.254904
C	 0.0686282183	-2.1326040212	-1.0942733227	 0.128781
C	-1.3956574897	-2.6157593773	-1.2332810543	-0.264478
C	-1.5182981334	-2.95152089	-2.6995160303	-0.059452
C	-0.3368645398	-2.9532073984	-3.3134520541	-0.056958
C	 0.7920443386	-2.6179847449	-2.3687462411	-0.279894
H	 1.0068971546	 1.6991399373	-0.4890756606	 0.147864
H	-0.7159380636	 1.7892880107	-0.8416386243	 0.14885
H	-0.1563264493	 1.925738551	 0.8508136014	 0.146483
H	 0.5307709487	-2.4708890221	-0.1671006795	 0.10285
H	-1.5766377586	-3.4963538614	-0.6028130481	 0.11476
H	-2.0983233351	-1.8480150206	-0.8952030054	 0.118408
H	-2.4684975988	-3.1850822227	-3.1663885933	 0.093662
H	-0.1703190501	-3.1899691118	-4.35807298	 0.093327
H	 1.4656173382	-1.8413469077	-2.7455232972	 0.118018
H	 1.4116713839	-3.4997232097	-2.1578156326	 0.110559
41.2618	54.3173	67.4113	115.7443	204.8786	317.5449	360.1981	417.6003	452.782	609.4513	627.4914	695.7798	751.8515	791.9408	848.1405	888.8206	905.4976	949.9758	977.0911	978.8944	993.0817	1022.3586	1058.8747	1064.1472	1068.4601	1130.5158	1172.7049	1216.4374	1248.5373	1273.7402	1309.2355	1330.3223	1376.9399	1387.2919	1402.9699	1468.4936	1469.7599	1476.0463	1477.2764	1687.9006	1817.2049	3021.7019	3025.8671	3056.8494	3073.7761	3079.7315	3117.1312	3121.615	3168.4277	3186.4905	3211.7168
CC(=O)OC1CC=CC1	CC(=O)O[C@H]1CC=CC1	
InChI=1S/C7H10O2/c1-6(8)9-7-4-2-3-5-7/h2-3,7H,4-5H2,1H3	InChI=1S/C7H10O2/c1-6(8)9-7-4-2-3-5-7/h2-3,7H,4-5H2,1H3
