19
gdb 70801	2.91285	1.5245	1.2069	3.5367	80.12	-0.23	0.0133	0.2433	1091.6592	0.158076	-385.876917	-385.868492	-385.867548	-385.909417	32.734	
C	 0.0205549705	 1.4682047289	 0.080011368	-0.502953
C	-0.0154219482	-0.029867168	-0.0019033392	 0.339506
C	-1.2474651707	-0.910472559	-0.2496171381	-0.326278
C	-0.3785621988	-2.1114467943	 0.2279356894	 0.174679
C	-0.9605664152	-3.3591858793	 0.82947414	-0.505793
C	 0.595544746	-1.048227242	 0.9037655925	-0.174648
C	 1.2040857965	-0.8260208729	-0.5063485501	-0.24803
C	 0.7121495787	-2.1894772275	-0.8648909973	 0.422
O	 1.1337266492	-3.0925062063	-1.5342743723	-0.352194
H	 0.9991247473	 1.8264942594	 0.4154750391	 0.124164
H	-0.1859664806	 1.921626504	-0.8956962981	 0.128963
H	-0.7313332306	 1.834962099	 0.7873365175	 0.124295
H	-2.0424265429	-0.6780633437	 0.4670503284	 0.099912
H	-1.6642439622	-0.9629739022	-1.2627412423	 0.098904
H	-1.5776555837	-3.8815673696	 0.0906013314	 0.134725
H	-0.1727932471	-4.0501952702	 1.1455097906	 0.131324
H	-1.5903843662	-3.1329017909	 1.6959140906	 0.117137
H	 1.1133137761	-1.0182088722	 1.8509017842	 0.108962
H	 2.1391734218	-0.3415536031	-0.7533859143	 0.105327
134.089	174.6585	193.987	207.898	242.2322	251.6807	348.7895	427.3083	481.5974	537.1391	626.4883	692.6992	719.1665	768.5036	810.2701	822.3147	855.317	877.2956	917.7391	953.8548	999.7926	1014.862	1046.6306	1053.8739	1124.642	1127.8695	1140.3845	1187.6246	1194.8727	1222.9178	1282.2768	1355.1356	1401.4646	1414.8821	1427.9456	1486.4829	1487.0886	1489.3774	1496.0626	1503.4856	1870.2372	3024.5984	3029.0404	3033.9728	3082.8821	3092.4564	3100.9111	3101.4261	3105.5356	3212.8435	3232.8861
CC12CC3(C)C1C2C3=O	C[C@]12C[C@]3(C)[C@H]1[C@H]2C3=O	
InChI=1S/C8H10O/c1-7-3-8(2)5(7)4(7)6(8)9/h4-5H,3H2,1-2H3	InChI=1S/C8H10O/c1-7-3-8(2)5(7)4(7)6(8)9/h4-5H,3H2,1-2H3/t4-,5-,7+,8+/m0/s1
