16
gdb 17938	3.41823	2.36321	2.11796	1.7388	68.27	-0.2225	0.0024	0.2249	738.5237	0.131234	-346.561722	-346.555395	-346.55445	-346.591732	25.694	
C	-0.026254651	 1.552684591	-0.0347648163	-0.520069
C	-0.0153128686	 0.056289881	 0.0095641764	 0.258808
C	 0.4915209375	-1.0205380434	-0.8784197246	 0.055595
O	 1.1830337466	-1.7297013321	 0.1156704265	-0.297168
C	 0.4903021054	-0.8953444522	 1.1474455941	-0.001947
C	-0.6989003024	-1.7066684806	 1.5780547406	-0.108965
C	-1.5527491569	-1.752319842	 0.5424197716	-0.054997
C	-1.0552078757	-0.8928056643	-0.5537175685	-0.183836
H	 0.9656624405	 1.9687119858	 0.1736049881	 0.125317
H	-0.334969725	 1.905768186	-1.0241028039	 0.124446
H	-0.7287121383	 1.9660404583	 0.6981684991	 0.127467
H	 0.8684937986	-1.0633594706	-1.8937293921	 0.109413
H	 1.2041278467	-0.5428580878	 1.890910193	 0.080084
H	-0.736743528	-2.3000046622	 2.4818462714	 0.100612
H	-2.4289136988	-2.3843352995	 0.4614061439	 0.102151
H	-1.6828810105	-0.5658598574	-1.3748723193	 0.083088
195.2677	203.2136	273.0865	405.0352	441.8464	575.6637	609.1216	675.3873	727.0481	759.3384	800.6943	815.6748	862.2116	892.2628	918.7443	924.6951	942.3775	984.927	1031.2204	1051.1426	1076.1244	1121.5395	1142.2013	1187.8172	1207.7094	1219.0929	1271.319	1314.0618	1363.7762	1411.1085	1464.7456	1484.9414	1496.6708	1621.1718	3024.6601	3086.7547	3098.4789	3126.4934	3179.4892	3187.882	3200.9369	3228.9212
CC12C3OC1C=CC23	C[C@@]12[C@H]3O[C@@H]1C=C[C@@H]23	
InChI=1S/C7H8O/c1-7-4-2-3-5(7)8-6(4)7/h2-6H,1H3	InChI=1S/C7H8O/c1-7-4-2-3-5(7)8-6(4)7/h2-6H,1H3/t4-,5-,6+,7+/m1/s1
