17
gdb 83452	2.95464	1.18152	1.06864	4.9552	72.36	-0.2388	0.0202	0.2589	1169.1055	0.136512	-417.964579	-417.956284	-417.95534	-417.997977	31.12	
O	-0.0803609256	 1.4006469904	-0.011267017	-0.434572
C	-0.0569483589	 0.0151219659	-0.0059257551	 0.121808
C	-0.329015649	-0.8276621222	 1.2327234291	-0.210643
C	-1.4206254478	-0.1530448777	 2.0655995209	-0.181546
N	-2.2698012439	 0.0371342587	 0.8370772507	-0.38679
C	-1.3161803088	-0.7872130918	 0.0574712804	 0.314069
C	-1.7758694722	-1.8372636018	-0.9205773836	-0.473715
C	-2.5473445781	-1.2759967295	-2.0341021669	 0.268258
N	-3.1668704667	-0.8309080633	-2.9015743466	-0.299712
H	-1.0121178299	 1.6445403695	 0.1084054849	 0.299501
H	 0.7262207385	-0.3860634154	-0.6440082206	 0.105783
H	 0.3450699469	-1.6030048222	 1.5755577169	 0.098392
H	-1.876292662	-0.8334263223	 2.7900810755	 0.112678
H	-1.1548311132	 0.7853445328	 2.5622620346	 0.121125
H	-3.1807575482	-0.3981318352	 0.929470709	 0.232455
H	-0.9053832166	-2.3640551923	-1.3266165645	 0.16263
H	-2.3956464543	-2.5924216036	-0.4190310776	 0.150278
54.644	97.4413	212.3079	236.592	279.7394	307.8978	390.5776	446.0512	496.8037	521.4937	608.7028	740.6447	742.482	804.4348	816.0815	899.8169	932.4767	954.389	965.4575	982.3966	1011.4896	1027.9671	1103.5423	1126.1614	1162.8246	1178.6681	1227.0865	1268.5908	1280.9334	1317.7139	1329.0633	1355.4515	1406.0736	1455.1976	1487.9767	1510.8651	2364.1529	3024.9468	3048.083	3076.5619	3098.4371	3151.967	3185.8599	3540.1973	3691.7902
OC1C2CNC12CC#N	O[C@H]1[C@H]2CN[C@@]12CC#N	
InChI=1S/C6H8N2O/c7-2-1-6-4(3-8-6)5(6)9/h4-5,8-9H,1,3H2	InChI=1S/C6H8N2O/c7-2-1-6-4(3-8-6)5(6)9/h4-5,8-9H,1,3H2/t4-,5+,6-/m1/s1
