19
gdb 119331	5.27597	1.01363	0.98071	1.07	79.37	-0.2178	0.0776	0.2955	1273.9201	0.158096	-385.760172	-385.752047	-385.751102	-385.793471	30.73	
C	-0.1249327037	 1.4137999059	 0.8038677461	-0.216809
O	-0.1384743728	 0.0222385001	 1.0092680255	-0.236428
C	 0.8236813785	-0.659103469	 0.2306050065	-0.23252
C	 0.7130743804	-2.1147934515	 0.5331146923	 0.379776
C	 1.4928843898	-3.357392034	-0.0024174651	-0.182548
C	 0.255991832	-4.2198791666	 0.2076369701	-0.086062
C	 1.2731553005	-4.0643673691	 1.3279265508	-0.086061
C	 0.4987712852	-2.822013103	 1.8624159897	-0.137551
C	-0.5221788066	-2.9781055376	 0.7379625281	-0.137541
H	-0.3443509023	 1.6751708204	-0.243695306	 0.103588
H	-0.8970755334	 1.8467123169	 1.4445800141	 0.126776
H	 0.8478253467	 1.8574576443	 1.0698699889	 0.103587
H	 0.652775524	-0.4702975391	-0.8452318389	 0.086883
H	 1.839325518	-0.2887624933	 0.4621089293	 0.086883
H	 2.2974554636	-3.4616723847	-0.718452471	 0.0828
H	-0.0563612085	-5.1107810645	-0.3206129476	 0.083777
H	 1.8822439618	-4.8143928714	 1.8145386567	 0.083777
H	 0.3729112786	-2.396284907	 2.8482626466	 0.088835
H	-1.5647009718	-2.692517287	 0.7142060438	 0.08884
72.4435	83.2857	120.5932	216.793	268.6218	341.0487	371.0555	650.7621	663.863	747.2746	776.462	781.9204	795.9048	844.4471	868.3442	874.6196	892.0984	950.5287	957.3785	976.2754	987.4703	1005.0487	1021.548	1076.9495	1086.3412	1104.9008	1158.6218	1166.6807	1184.9115	1195.5294	1223.8967	1241.5778	1255.957	1270.428	1322.3805	1407.776	1452.9964	1480.5673	1483.7644	1504.0332	1526.8872	2927.0853	2946.949	2968.8107	3011.3146	3113.2742	3191.1727	3191.4795	3208.0228	3208.4638	3217.5856
COCC12C3C4C3C1C24	COC[C@@]12[C@@H]3[C@H]4[C@@H]3[C@@H]1[C@@H]24	
InChI=1S/C8H10O/c1-9-2-8-5-3-4(5)7(8)6(3)8/h3-7H,2H2,1H3	InChI=1S/C8H10O/c1-9-2-8-5-3-4(5)7(8)6(3)8/h3-7H,2H2,1H3/t3-,4+,5-,6+,7-,8+
