19
gdb 71913	3.11339	1.66869	1.63508	0.3956	72.75	-0.2403	0.0683	0.3085	914.9387	0.162276	-423.030886	-423.024257	-423.023313	-423.061316	28.771	
O	 0.0038242652	 1.3579254542	 0.0274220933	-0.499234
C	 0.0284722278	-0.047484164	 0.0049468873	 0.388643
C	 0.6292947351	-0.7000705272	-1.2691003931	-0.280367
C	 0.2718208652	-2.1838901244	-1.0464940535	 0.096897
O	 1.1607666379	-2.7531976967	-0.0561296075	-0.300347
C	 0.3051901274	-2.215674606	 0.9803319955	 0.096888
C	 0.670569029	-0.7393935078	 1.2374574593	-0.280304
C	-0.8973452413	-2.1168297218	-0.0122594974	-0.07309
C	-1.3817330613	-0.6708738068	 0.0183864858	-0.254456
H	 0.9130254748	 1.6746075273	 0.016276334	 0.276348
H	 0.137643641	-0.289372588	-2.1578056933	 0.100378
H	 1.7107118541	-0.5675812621	-1.3691529402	 0.09686
H	 0.2089332171	-2.7976016872	-1.9471944732	 0.077385
H	 0.2716555109	-2.8573764003	 1.8629144744	 0.077385
H	 1.7547541672	-0.6095312096	 1.3059811703	 0.096856
H	 0.2086358558	-0.3569899328	 2.1542836215	 0.10038
H	-1.6176192622	-2.9315201639	-0.0131749363	 0.074949
H	-1.9428333511	-0.4142788851	 0.9217393178	 0.102418
H	-1.9721112029	-0.3863692476	-0.8575307346	 0.10241
255.5033	267.5333	331.9274	373.8447	418.3969	474.6048	478.1727	580.7177	612.2089	645.8441	771.0102	846.1087	847.5756	867.5504	872.0562	905.315	934.4676	942.2649	967.3896	992.6126	1012.9261	1030.4188	1068.5436	1081.1392	1110.9186	1150.6177	1159.1727	1172.8263	1239.0593	1261.0759	1262.4319	1276.0389	1285.7955	1287.5256	1314.8809	1336.7737	1360.1948	1397.8004	1469.1611	1475.5327	1506.8661	3042.5623	3044.2929	3057.4415	3089.8824	3092.0018	3096.3042	3100.4927	3106.8617	3145.4499	3811.044
OC12CC3OC(C1)C3C2	O[C@@]12C[C@H]3O[C@@H](C1)[C@H]3C2	
InChI=1S/C7H10O2/c8-7-1-4-5(2-7)9-6(4)3-7/h4-6,8H,1-3H2	InChI=1S/C7H10O2/c8-7-1-4-5(2-7)9-6(4)3-7/h4-6,8H,1-3H2/t4-,5+,6-,7-
