22
gdb 100077	3.14234	0.92343	0.85871	4.0715	78.57	-0.2412	0.0297	0.2709	1437.0526	0.191337	-441.52254	-441.511218	-441.510274	-441.559391	40.981	
C	-0.1083531207	 1.5991132213	 0.2777832444	-0.408402
C	-0.0084485046	 0.0964394282	-0.0392468251	 0.266524
C	 0.8398030044	-0.6164388755	 1.0299489341	-0.418944
C	-1.4199248155	-0.5181094285	-0.0576254707	-0.088943
O	-2.0251889712	-0.3295391205	 1.2122813599	-0.425082
C	 0.5885348277	-0.1330380063	-1.4558106368	-0.328747
C	 2.0479659646	 0.2932703178	-1.5886802506	 0.388998
N	 2.9423753084	-0.7323105614	-1.7307616355	-0.508358
O	 2.4024579573	 1.4573360143	-1.5876907338	-0.359286
H	 0.875172784	 2.0703451614	 0.2477550457	 0.141566
H	-0.7404680741	 2.1093897193	-0.4578777962	 0.101306
H	-0.5549103461	 1.7451273648	 1.2638912896	 0.122275
H	 0.351669808	-0.5470636872	 2.0043669326	 0.136549
H	 0.9651447179	-1.680846916	 0.795086644	 0.090003
H	 1.834239883	-0.1676700751	 1.1104751376	 0.120714
H	-2.0130758556	-0.0372479876	-0.8524453595	 0.082726
H	-1.3487008055	-1.5917458026	-0.3006390587	 0.075239
H	-2.9168248086	-0.6863452307	 1.1780048673	 0.288377
H	 0.4769004856	-1.1894908447	-1.7294195004	 0.084177
H	 0.022121772	 0.4554844753	-2.1853445926	 0.124734
H	 2.6780686518	-1.6920566442	-1.5962754238	 0.256506
H	 3.922846977	-0.500209862	-1.7242463914	 0.25807
25.995	83.1374	127.3596	153.6837	215.3302	228.562	236.7924	250.0433	258.9819	307.3625	333.9512	375.6563	394.1099	435.4556	503.989	566.8252	605.8768	714.3482	787.3455	865.6508	908.0077	922.4857	939.5209	966.2576	999.5776	1042.8724	1083.4454	1095.1321	1170.6627	1193.4318	1217.6867	1241.7281	1280.8542	1315.1017	1328.6102	1380.6895	1399.4006	1413.6488	1459.4634	1478.6463	1483.9802	1491.4735	1499.2514	1515.1362	1520.1405	1616.9217	1790.1931	2950.9788	2985.0965	3022.6903	3027.238	3040.3445	3080.4214	3094.4722	3111.1229	3129.5453	3147.1887	3597.6086	3736.1286	3839.4146
CC(C)(CO)CC(N)=O	CC(C)(CO)CC(=O)N	
InChI=1S/C6H13NO2/c1-6(2,4-8)3-5(7)9/h8H,3-4H2,1-2H3,(H2,7,9)	InChI=1S/C6H13NO2/c1-6(2,4-8)3-5(7)9/h8H,3-4H2,1-2H3,(H2,7,9)
