16
gdb 28242	4.78754	1.23884	1.00071	2.6426	72.08	-0.196	0.0306	0.2266	1137.5397	0.127973	-434.08226	-434.074671	-434.073727	-434.114761	28.447	
N	 0.0756553018	 1.3002817659	 0.0883077501	-0.590017
C	-0.0514869338	-0.0644210654	 0.0267089641	 0.414965
N	-1.1485054878	-0.7657989711	 0.0203523552	-0.4184
C	-0.6639177441	-2.071182411	 0.0070992675	 0.242803
C	 0.6724893935	-2.0767908918	 0.000442965	 0.262987
C	 1.2885920561	-3.4240010212	 0.1166969988	-0.29072
N	 0.0678655793	-4.291803571	 0.0765381254	-0.309612
C	-1.1871763148	-3.4679773676	 0.1017834438	-0.293759
O	 1.1183912455	-0.7739025717	 0.026876842	-0.232653
H	 0.9123256496	 1.6672965427	-0.3410244518	 0.264694
H	-0.7660636649	 1.7841825955	-0.1873150858	 0.271844
H	 1.9791527837	-3.6870235643	-0.6953821765	 0.107479
H	 1.8376041474	-3.563301042	 1.0598858673	 0.117624
H	 0.0847780994	-4.8233179492	-0.7831422024	 0.225016
H	-1.7426510434	-3.6392261828	 1.0343633267	 0.118802
H	-1.8523839274	-3.754710645	-0.7219332792	 0.108949
56.4876	135.9528	242.091	271.4327	303.1169	326.0909	511.9812	530.504	600.2032	651.2242	706.5598	727.8369	749.0796	775.2313	872.0621	886.7582	956.1995	1034.4157	1042.162	1053.5657	1112.4973	1125.3455	1185.7889	1202.4214	1288.466	1297.3068	1349.0713	1406.4553	1427.8852	1459.2871	1515.9962	1524.1515	1595.3217	1669.253	1705.7946	2985.6141	3003.4424	3019.2308	3037.3408	3570.013	3575.5351	3684.6801
NC1=NC2=C(CNC2)O1	Nc1nc2c(CNC2)o1	
InChI=1S/C5H7N3O/c6-5-8-3-1-7-2-4(3)9-5/h7H,1-2H2,(H2,6,8)	InChI=1S/C5H7N3O/c6-5-8-3-1-7-2-4(3)9-5/h7H,1-2H2,(H2,6,8)
