14
gdb 129336	6.94915	0.8444	0.75845	11.8935	102.94	-0.1549	-0.0728	0.0821	1411.1392	0.101063	-466.135691	-466.127441	-466.126497	-466.169037	30.005	
N	-0.1688165594	 1.2345162608	 0.2530889419	-0.586721
C	 0.0018694799	-0.0092704744	 0.0475102536	 0.418252
N	 1.0953414219	-0.7781440409	-0.3031026485	-0.323027
N	 0.6884475862	-2.0541508223	-0.4056627033	-0.267849
C	-0.5867144096	-2.0715083602	-0.1332794123	 0.444279
N	-1.383001826	-3.1885031538	-0.036303757	-0.334104
C	-0.9493138874	-4.4269013966	 0.1205783134	 0.10937
N	-1.7138706953	-5.5174864866	-0.1417791056	-0.49697
H	-2.7076291038	-5.4105191274	-0.2812778343	 0.277496
H	-1.4373352883	-6.386789608	 0.2865197248	 0.292058
O	-1.1243007921	-0.875178292	 0.1638773581	-0.239908
H	 0.7285667299	 1.7002809848	 0.1310666313	 0.223094
H	-2.3806190429	-3.0167667809	-0.1244324529	 0.283522
H	 0.104447607	-4.5565337926	 0.3285114707	 0.200508
61.365	99.4732	154.3255	236.4287	317.8681	360.4006	397.9357	415.3564	447.9164	535.8838	625.4287	710.0671	736.0399	747.4017	762.5058	825.9151	839.6509	878.5295	975.9569	1060.7871	1097.9288	1158.3591	1256.5527	1280.2478	1328.8253	1379.913	1497.7032	1552.4772	1645.5577	1698.5169	1722.031	3242.8332	3518.1865	3519.364	3579.1641	3694.4505
N=C1[N-]N=C(NC=[NH2+])O1	[NH]c1nnc(NC=[NH2])o1	
InChI=1S/C3H4N5O/c4-1-6-3-8-7-2(5)9-3/h1H,(H3-,4,5,6,7,8)/q-1/p+1	InChI=1S/C3H5N5O/c4-1-6-3-8-7-2(5)9-3/h1,5H,4H2,(H,6,8)
