18
gdb 67110	2.68778	2.04689	1.72486	1.5078	75.11	-0.2284	0.0821	0.3105	879.6579	0.148682	-401.828641	-401.821769	-401.820825	-401.859449	28.286	
C	-0.1373862079	 1.5120168444	-0.0602471314	-0.538121
C	 0.0108091175	 0.0237427943	-0.0594499292	 0.360101
C	 0.7793011002	-0.8967498764	-1.0070729636	 0.01772
O	 2.1668162143	-0.8618758889	-0.5757498781	-0.299188
C	 2.1295716282	-0.8766589393	 0.8825772101	-0.196055
C	 0.6239811548	-0.9120718444	 1.0368432603	 0.190193
C	-0.7414199323	-0.9488049828	 1.7346589813	-0.277168
N	-1.1682084579	-0.9446946773	 0.2549885812	-0.220128
C	 0.0491472854	-1.8423607123	-0.0671512096	-0.037612
H	 0.8375891084	 1.9874473095	-0.2108987035	 0.135596
H	-0.8018213488	 1.8321453202	-0.8694065372	 0.136729
H	-0.5555548336	 1.8780434349	 0.8835471089	 0.12493
H	 0.7540854233	-0.8941632106	-2.0960526068	 0.084259
H	 2.6553352968	-1.7623122042	 1.2546527922	 0.109323
H	 2.6119695904	 0.0266999769	 1.2715752577	 0.107972
H	-1.0209745834	-1.8640573329	 2.2645038511	 0.109341
H	-1.0658335764	-0.0649492057	 2.2913951452	 0.108633
H	-0.0217182888	-2.9294808354	-0.0430598886	 0.083476
187.9021	203.9034	241.9174	318.5201	402.9646	441.4285	506.2702	643.4237	679.1268	729.7598	756.1167	817.1399	850.9963	851.7508	887.747	903.8307	920.7762	943.5587	967.6951	1023.2815	1057.4296	1089.3308	1096.1774	1116.0056	1150.1611	1173.1078	1185.9331	1201.3556	1214.0507	1246.7423	1274.223	1284.8391	1339.4391	1376.0976	1413.1207	1480.6436	1487.4896	1517.7108	1520.3162	3031.0686	3032.6082	3049.7936	3078.1317	3099.2268	3105.4186	3111.4184	3118.5746	3135.3614
CC12C3OCC11CN2C31	C[C@@]12[C@H]3OC[C@]41CN2[C@@H]34	
InChI=1S/C7H9NO/c1-6-5-4-7(6,3-9-5)2-8(4)6/h4-5H,2-3H2,1H3	InChI=1S/C7H9NO/c1-6-5-4-7(6,3-9-5)2-8(4)6/h4-5H,2-3H2,1H3/t4-,5-,6+,7+/m0/s1
