16
gdb 30567	6.74507	0.77975	0.70198	4.4493	77.85	-0.2101	0.0182	0.2283	1560.8597	0.124954	-434.095227	-434.086753	-434.085808	-434.130463	29.996	
C	-0.042217337	 1.4003761616	 0.0383934113	-0.314727
N	 0.0539352519	-0.0448407992	 0.0727909706	-0.207795
C	 0.5576170145	-0.6039227349	-0.9334255426	 0.1016
O	 0.6664999126	-1.9624483563	-0.9416443489	-0.245745
C	 1.2110466908	-2.5731541409	-2.0280722076	 0.39229
C	 1.3688981304	-3.9296584625	-2.1464999113	-0.219634
N	 1.9515230174	-4.0903944676	-3.3906339391	-0.235477
C	 2.1074108676	-2.8595633602	-3.9356918803	 0.025847
N	 1.6662870531	-1.9127289327	-3.1310915977	-0.335425
H	 0.5065816097	 1.8236183828	 0.8875297513	 0.126693
H	 0.3458215208	 1.8559668855	-0.8867357241	 0.099879
H	-1.089822429	 1.7000227779	 0.1570642788	 0.126689
H	 0.9342261823	-0.120388359	-1.838224126	 0.129582
H	 1.1328655677	-4.7513054204	-1.4947995498	 0.142727
H	 2.2108792914	-4.9668762321	-3.8103359217	 0.27341
H	 2.542457086	-2.7033622218	-4.9106922628	 0.140086
11.5982	84.9745	130.644	207.898	293.3862	327.9143	333.6134	409.2939	513.5688	555.6765	656.4507	674.5399	733.6058	790.8985	801.452	948.2766	994.5639	996.5308	1059.1123	1085.6397	1141.4577	1142.2694	1152.1303	1204.4158	1260.9761	1327.062	1358.9405	1386.2512	1448.4692	1477.43	1481.7872	1503.4418	1522.5651	1615.4582	1774.1781	2973.3436	3058.7979	3076.4	3102.6637	3259.5696	3298.2118	3673.1181
CN=COC1=CNC=N1	CN=COc1c[nH]cn1	
InChI=1S/C5H7N3O/c1-6-4-9-5-2-7-3-8-5/h2-4H,1H3,(H,7,8)	InChI=1S/C5H7N3O/c1-6-4-9-5-2-7-3-8-5/h2-4H,1H3,(H,7,8)
