15
gdb 20372	6.27713	1.47114	1.3176	4.6961	67.31	-0.2534	0.0009	0.2543	921.6501	0.121022	-358.822433	-358.815903	-358.814959	-358.85378	24.416	
C	-0.1837535106	 1.3626851707	-0.287341952	-0.284916
C	 1.2299121552	 1.0812168992	 0.1693062756	-0.284918
C	 0.2199835425	-0.0312513296	 0.1068574375	 0.093095
N	-0.2873452915	-0.6352355157	 1.3052495454	 0.062588
C	-0.5710013079	-0.0974135706	 2.5156491465	-0.10605
C	-1.023941692	-1.1611774815	 3.2598535651	-0.066127
N	-0.9962161041	-2.2780965779	 2.4862916948	-0.191853
N	-0.5504929264	-1.9606047668	 1.3033196019	-0.149511
H	-0.8348154759	 1.9058605985	 0.3885515066	 0.129201
H	-0.3690466657	 1.5551078696	-1.337862694	 0.133275
H	 2.0288058281	 1.0776735767	-0.5632988929	 0.133271
H	 1.5244629818	 1.436121508	 1.1506507295	 0.129198
H	 0.3171577469	-0.7878554061	-0.6603315921	 0.133419
H	-0.4357665422	 0.946457984	 2.7411574261	 0.143911
H	-1.359764478	-1.1846429986	 4.283818702	 0.125417
51.7914	164.1147	204.3348	410.1703	422.6479	630.9119	660.1191	716.2208	776.6734	779.1425	819.7497	857.6354	910.2475	950.3376	962.4899	1030.3209	1062.2034	1077.2835	1083.5777	1100.7261	1129.8657	1142.674	1190.3676	1196.1312	1229.7552	1293.4081	1348.0965	1413.4097	1467.4423	1494.5015	1503.6801	1529.5422	3140.4622	3143.2633	3210.8039	3221.5043	3236.4041	3268.7776	3291.8469
C1CC1N1C=CN=N1	C1CC1n1ccnn1	
InChI=1S/C5H7N3/c1-2-5(1)8-4-3-6-7-8/h3-5H,1-2H2	InChI=1S/C5H7N3/c1-2-5(1)8-4-3-6-7-8/h3-5H,1-2H2
