20
gdb 101556	2.31505	1.12005	0.858	1.881	79.7	-0.2225	-0.0876	0.1349	1405.9313	0.167481	-440.284273	-440.273641	-440.272697	-440.321183	36.636	
C	-0.7989071716	 0.505678213	-0.0289935291	-0.393735
C	 0.2850046386	-0.5709133966	-0.0363147192	-0.119017
N	 1.0626409818	-0.5997119419	-1.2754229707	-0.068806
C	 1.8325075988	 0.6075569596	-1.5420235446	-0.336063
C	 1.8704777487	-1.8065058242	-1.4437644404	-0.256281
C	 1.7566650632	-2.1143223037	-2.9246482426	 0.314055
O	 2.5754819335	-1.8316156702	-3.7684465636	-0.289418
C	 0.4406461346	-2.7668728813	-3.3715487806	 0.093384
O	-0.3456449097	-3.2757925714	-2.6163440909	-0.224119
H	-0.3830513574	 1.5168930464	-0.007824509	 0.121136
H	-1.435521103	 0.4129834829	-0.9138287906	 0.128809
H	-1.4248634876	 0.3920527235	 0.8611607612	 0.11968
H	 0.9432337266	-0.4412513085	 0.8446969015	 0.081415
H	-0.1938085741	-1.5499817367	 0.0620645388	 0.120161
H	 2.5762825283	 0.8168254585	-0.7506957608	 0.09805
H	 2.3698907477	 0.4972694949	-2.4875990249	 0.143808
H	 1.1715257034	 1.4723059694	-1.6314722199	 0.126635
H	 2.9232173567	-1.6843751422	-1.1502324617	 0.107018
H	 1.4281099267	-2.6252848385	-0.8725570517	 0.129193
H	 0.320186405	-2.7737147229	-4.4759995712	 0.104094
40.335	60.2919	85.1174	132.6273	135.118	214.2784	222.5351	268.7763	305.4768	368.1006	390.8955	450.0285	481.9188	561.4342	599.5433	793.7952	810.897	812.9258	954.9984	1000.9234	1022.4436	1065.3862	1077.2326	1125.5459	1148.244	1166.4949	1238.5013	1267.7782	1303.1257	1338.453	1359.5708	1370.159	1400.2822	1423.6383	1459.4389	1475.8674	1487.8613	1491.4361	1504.5646	1508.3982	1516.4936	1803.3559	1819.0515	2916.5253	2917.6682	2937.6501	2999.4969	3044.8146	3070.7194	3085.1602	3113.8446	3115.9302	3120.5329	3129.8471
CCN(C)CC(=O)C=O	CCN(C)CC(=O)C=O	
InChI=1S/C6H11NO2/c1-3-7(2)4-6(9)5-8/h5H,3-4H2,1-2H3	InChI=1S/C6H11NO2/c1-3-7(2)4-6(9)5-8/h5H,3-4H2,1-2H3
