14
gdb 129646	2.42817	1.9015	1.06994	3.8598	74.36	-0.2105	-0.0676	0.1429	1032.6936	0.101201	-466.15369	-466.145568	-466.144623	-466.186109	30.72	
N	-0.0361286764	 1.4063213442	-0.2131679969	-0.589536
C	-0.041506532	 0.0038277689	-0.1814905446	 0.278642
C	-1.1657761941	-0.7163470445	 0.0946182573	 0.215975
N	-2.3706376766	-0.1641179391	 0.4047357445	-0.587368
C	-1.0755037341	-2.1730777061	 0.0920251766	 0.406607
N	-2.1077979241	-2.8771167623	 0.3474800756	-0.566462
O	 0.1364118819	-2.7007457647	-0.2112095482	-0.292727
N	 1.3039866201	-1.8495336712	-0.5480187086	-0.008155
N	 1.1367829498	-0.630950641	-0.4958617445	-0.150179
H	-0.3504350097	 1.8183967424	 0.6596059294	 0.25556
H	 0.8849271797	 1.7589553994	-0.4437116076	 0.25945
H	-2.560635889	 0.7556353652	 0.034725984	 0.264573
H	-3.1343896891	-0.8278193729	 0.4092078052	 0.283189
H	-1.9009544265	-3.8733491884	 0.2892294278	 0.230433
119.3478	155.7018	174.2632	271.8947	291.5526	313.905	443.0669	499.8533	514.4161	532.0834	549.1497	597.308	626.5577	647.0179	756.7005	761.3331	806.3976	836.2888	900.5647	983.8917	1078.0552	1117.8508	1272.4109	1304.6735	1361.2661	1447.0442	1563.758	1611.6831	1641.0189	1691.897	1714.1784	3506.3204	3507.5478	3542.6746	3611.5307	3668.7911
NC1=C(N)C(=N)ON=N1	NC1=N[N]OC(=C1N)[NH]	
InChI=1S/C3H5N5O/c4-1-2(5)7-8-9-3(1)6/h6H,4-5H2	InChI=1S/C3H5N5O/c4-1-2(5)7-8-9-3(1)6/h6H,4-5H2
