17
gdb 115324	2.94337	1.27229	1.00995	1.934	65.07	-0.2601	-0.046	0.2141	1187.1239	0.134394	-496.099733	-496.090803	-496.089859	-496.133893	31.912	
C	 0.0349314571	 1.3479335185	-0.1303480261	-0.242678
O	 0.0124899581	-0.0684239022	-0.0212992413	-0.239169
C	-1.2742767888	-0.6031194437	 0.0116858606	 0.115449
O	-1.9769139615	-0.4743961302	-1.2072275983	-0.259544
C	-1.6792830877	-1.6133958052	-2.0333520393	-0.139649
C	-1.7333177029	-2.7815372281	-1.0408423296	 0.045952
O	-1.0626369277	-3.9446643288	-1.427013998	-0.434283
C	-1.10871367	-2.1257605442	 0.186619552	 0.331831
O	-0.5154829755	-2.7127334884	 1.0499650094	-0.30876
H	 1.0845846179	 1.6467258768	-0.1250076221	 0.136202
H	-0.4385303274	 1.6857505318	-1.0588865961	 0.130852
H	-0.4783808621	 1.8158390484	 0.7223501632	 0.113393
H	-1.8855483976	-0.1268083751	 0.7918182382	 0.098246
H	-2.4340964019	-1.6526324888	-2.8188610817	 0.124771
H	-0.6815076727	-1.5425605691	-2.4837805672	 0.123582
H	-2.7941487448	-2.9802268593	-0.8043911222	 0.106608
H	-0.5919387925	-4.2612432225	-0.6421229515	 0.297196
56.985	111.1219	154.9492	178.9212	207.895	266.1688	328.7468	351.6039	392.1307	475.1393	545.2622	632.3547	666.9495	687.4268	856.2868	938.9587	981.1839	1004.7948	1045.9112	1077.5641	1097.225	1141.1292	1179.4582	1182.0672	1211.7988	1214.4403	1259.518	1309.6268	1340.1277	1374.7114	1389.7691	1408.3023	1475.6305	1484.1584	1510.7137	1517.1948	1869.204	2948.3838	2999.0825	3009.3749	3037.5905	3073.7423	3134.1855	3135.5221	3728.9932
COC1OCC(O)C1=O	CO[C@H]1OC[C@@H](O)C1=O	
InChI=1S/C5H8O4/c1-8-5-4(7)3(6)2-9-5/h3,5-6H,2H2,1H3	InChI=1S/C5H8O4/c1-8-5-4(7)3(6)2-9-5/h3,5-6H,2H2,1H3/t3-,5+/m1/s1
