18
gdb 34991	2.64115	1.62949	1.40457	4.2725	78.35	-0.2612	0.025	0.2862	993.0246	0.150384	-364.805762	-364.798546	-364.797601	-364.837362	28.964	
N	-0.3482510151	-1.180804866	-0.1831725444	-0.358063
C	-0.1427733821	-0.0446586749	-0.0964695058	 0.300949
C	 0.0259708591	 1.3769805027	 0.0056626789	-0.186597
C	 0.4801611694	 2.0853884487	 1.2767312222	-0.060495
C	 1.2626954105	 1.3235569384	 2.3551140875	-0.264417
C	 2.6704463238	 1.0704436044	 1.7936763657	-0.026727
C	 2.8551545105	 0.0772622385	 0.6777408204	-0.317263
C	 2.6910885914	 1.5435827172	 0.3507627779	-0.044872
C	 1.3416436892	 2.1577661838	 0.0410500948	-0.064845
H	-0.7646061227	 1.8984589518	-0.5280919366	 0.134531
H	-0.1422045316	 2.9154660677	 1.5926309404	 0.100924
H	 1.3284449623	 1.9537958764	 3.2467859692	 0.111703
H	 0.7592027541	 0.3986248682	 2.6575506051	 0.127217
H	 3.5106928601	 1.2565348317	 2.4534507461	 0.087902
H	 3.8539757564	-0.3269078686	 0.547822054	 0.111538
H	 2.0694502375	-0.6280594752	 0.4465992165	 0.158541
H	 3.5457821187	 2.0702557458	-0.0575259983	 0.089864
H	 1.3481052584	 3.0413234895	-0.5870539036	 0.100112
102.9677	160.483	225.1113	305.2069	376.5034	434.2805	585.9196	629.8193	660.8345	696.5042	716.5828	753.0548	800.4372	820.2694	853.8735	890.1396	938.9689	965.2579	997.3798	1013.9892	1045.6183	1057.3115	1078.9737	1080.8578	1107.7105	1115.9702	1122.5349	1201.5246	1221.6646	1232.0601	1301.5644	1315.3367	1358.949	1364.0897	1382.0419	1415.4395	1484.7893	1501.7002	2343.2501	3047.4234	3087.4614	3139.73	3144.5361	3162.8865	3166.6382	3171.7183	3183.8601	3247.7647
N#CC1C2CC3CC3C12	N#C[C@H]1[C@H]2C[C@H]3C[C@H]3[C@@H]12	
InChI=1S/C8H9N/c9-3-7-6-2-4-1-5(4)8(6)7/h4-8H,1-2H2	InChI=1S/C8H9N/c9-3-7-6-2-4-1-5(4)8(6)7/h4-8H,1-2H2/t4-,5-,6-,7+,8-/m1/s1
