17
gdb 65016	1.9637	1.7238	1.07824	2.3409	74.07	-0.2543	-0.0441	0.2102	1128.625	0.132372	-421.780946	-421.77178	-421.770836	-421.814892	34.286	
O	-0.249176402	 1.2973543409	-0.5408793559	-0.472513
C	-0.0604264321	-0.0032013831	-0.0693240179	 0.43826
C	-0.4160711855	-0.3073297794	 1.3633346626	-0.319255
C	-1.3145900103	-0.7601486031	 0.2268133642	-0.320643
C	 1.1404532066	-0.6871275225	-0.7367361965	-0.343489
C	 2.447752117	 0.0719456193	-0.4541840889	 0.168033
O	 2.4994382205	 1.1830035686	 0.0084572732	-0.254411
C	 1.3296963966	-2.0940451019	-0.4066533355	 0.292572
C	 1.5291709576	-3.2424568842	-0.1128076488	-0.437909
H	 0.5212324372	 1.801161601	-0.2423349042	 0.293075
H	 0.1511774984	-1.0631659258	 1.8948295343	 0.120893
H	-0.7478180042	 0.5322124107	 1.9627087845	 0.120559
H	-2.2383117808	-0.2158192508	 0.0693093797	 0.126571
H	-1.3518330985	-1.8183279568	-0.0038143598	 0.123689
H	 0.9977276018	-0.598445243	-1.8275980718	 0.145977
H	 3.3690715375	-0.4835947993	-0.7254999243	 0.111328
H	 1.6876735505	-4.2628293005	 0.1368059552	 0.207261
73.8838	96.7736	141.3405	198.9113	216.2028	320.5236	325.5118	381.7361	449.9882	498.0653	514.8702	581.2858	630.8398	639.2009	670.9439	683.9154	774.6662	845.4309	911.4781	940.4339	984.6876	1014.8265	1033.8173	1054.6483	1058.5564	1083.135	1191.3384	1221.7614	1259.8962	1286.8347	1311.1686	1403.438	1416.3506	1446.1215	1499.2009	1817.9969	2234.4359	2924.8557	2970.5746	3139.9006	3144.4742	3227.6652	3240.4715	3500.9086	3741.4524
OC1(CC1)C(C=O)C#C	OC1(CC1)[C@@H](C=O)C#C	
InChI=1S/C7H8O2/c1-2-6(5-8)7(9)3-4-7/h1,5-6,9H,3-4H2	InChI=1S/C7H8O2/c1-2-6(5-8)7(9)3-4-7/h1,5-6,9H,3-4H2/t6-/m1/s1
