19
gdb 60968	4.13417	0.88344	0.76826	2.5163	72.95	-0.2532	-0.0379	0.2153	1479.4565	0.156921	-460.156853	-460.147434	-460.14649	-460.191986	33.899	
C	-0.5837352601	 1.3268693476	 0.2255558205	-0.398884
C	 0.1950841538	 0.0379742712	 0.0676157787	 0.168866
C	 0.8184937594	-0.2777465577	-1.3129349893	-0.316441
C	 2.1609287537	-0.2526106536	-0.5599099252	 0.122876
O	 1.5164574056	 0.1114715799	 0.677863504	-0.317736
C	 2.8894386247	-1.6018557902	-0.4392130779	 0.026675
O	 3.4075420978	-1.9861246751	-1.6808422479	-0.435676
C	 3.9918415975	-1.5081916299	 0.5958656835	 0.128309
O	 5.1393062739	-1.7607613012	 0.3104044712	-0.265738
H	-0.0369494175	 2.1689171082	-0.2098771402	 0.122017
H	-1.5561255387	 1.2463100779	-0.2728410561	 0.11956
H	-0.7594688456	 1.5411726759	 1.2843814634	 0.129319
H	-0.3698507089	-0.7996045536	 0.4980257798	 0.079797
H	 0.5510607911	-1.2356205401	-1.7609456688	 0.122762
H	 0.697176948	 0.5136988998	-2.0544084729	 0.113447
H	 2.8761521589	 0.5102772403	-0.8916215375	 0.08882
H	 2.1586187606	-2.3418520581	-0.065364232	 0.092717
H	 4.3611767152	-2.102776655	-1.5370396443	 0.29642
H	 3.6893957006	-1.1900616862	 1.610196161	 0.122892
48.7827	69.5941	110.996	164.9139	234.2857	265.6999	320.5791	327.2911	380.867	434.6097	476.7289	501.3894	742.0855	754.4638	817.2488	878.5179	890.819	905.037	946.7285	990.7516	1028.4814	1050.0916	1090.5402	1130.3472	1143.0338	1166.5727	1201.0193	1256.1937	1265.5203	1272.1146	1302.4754	1328.6089	1369.1944	1381.4074	1392.0659	1409.4253	1439.4828	1482.5266	1490.7916	1497.8176	1804.8963	2946.0349	2979.9917	3011.132	3029.4469	3033.8681	3083.4808	3106.2999	3113.805	3139.1865	3673.2808
CC1CC(O1)C(O)C=O	C[C@H]1C[C@@H](O1)[C@@H](O)C=O	
InChI=1S/C6H10O3/c1-4-2-6(9-4)5(8)3-7/h3-6,8H,2H2,1H3	InChI=1S/C6H10O3/c1-4-2-6(9-4)5(8)3-7/h3-6,8H,2H2,1H3/t4-,5-,6+/m0/s1
