20
gdb 76307	2.24926	1.44446	1.00586	1.4632	82.66	-0.2262	0.032	0.2582	1239.7501	0.167777	-403.089977	-403.079818	-403.078874	-403.124915	37.317	
C	 0.0632068085	 1.6032948347	 0.0836592332	-0.400113
C	 0.0571172277	 0.0951006152	-0.0720483085	 0.022668
C	 0.7661121285	-0.5562434284	-1.2990044095	 0.119741
O	 1.7679904337	 0.2010054747	-1.9165025594	-0.424734
C	 1.2660630062	-1.6329730363	-0.2716777908	-0.237059
C	 2.6368026092	-2.1024443361	-0.3624529466	 0.334612
C	 3.7818612027	-2.4586065166	-0.4538753769	-0.42206
N	 0.9803653349	-0.6586509613	 0.8054137948	-0.080248
C	 0.5091715607	-1.1612058668	 2.0765899882	-0.334031
H	 1.0624910526	 2.0082563164	-0.0923601466	 0.117626
H	-0.6256403667	 2.0665966898	-0.6300825772	 0.119583
H	-0.2537554818	 1.8906361227	 1.091774295	 0.115494
H	-0.9756722187	-0.2930824835	-0.0012934148	 0.053247
H	 0.1150821795	-0.9244848473	-2.0927131596	 0.094683
H	 2.4926772855	 0.3097599359	-1.2892504565	 0.291803
H	 0.5716682548	-2.4916438424	-0.2602134095	 0.083528
H	 4.7894886267	-2.78523564	-0.5314684559	 0.198676
H	 1.2947813834	-1.7565948305	 2.5528086644	 0.130221
H	 0.2726461359	-0.3248491159	 2.7421076594	 0.124153
H	-0.3948399033	-1.7928597742	 1.9824247766	 0.092209
52.8168	120.2607	157.0229	169.4094	213.7063	225.4967	252.0432	293.4031	302.5147	356.1125	395.815	488.9681	535.545	622.6221	634.282	651.0222	744.8144	789.0224	825.3586	880.4864	956.3319	1008.6575	1047.3236	1076.6516	1136.3605	1154.8521	1163.5287	1171.8364	1222.2255	1241.9208	1255.2112	1290.2201	1330.6092	1342.6322	1393.9493	1416.5039	1439.7975	1453.0434	1486.2195	1488.5084	1493.3897	1495.6967	2231.9603	2924.0482	2929.9017	2943.4353	3039.2623	3062.3604	3102.849	3104.6746	3109.0994	3126.5101	3501.4588	3793.9189
CC1C(O)C(C#C)N1C	C[C@H]1[C@@H](O)[C@@H](C#C)N1C	
InChI=1S/C7H11NO/c1-4-6-7(9)5(2)8(6)3/h1,5-7,9H,2-3H3	InChI=1S/C7H11NO/c1-4-6-7(9)5(2)8(6)3/h1,5-7,9H,2-3H3/t5-,6+,7+/m0/s1
