17
gdb 51188	4.75346	1.09226	1.04085	2.7103	73.83	-0.2411	0.0115	0.2526	1165.9959	0.136271	-417.927347	-417.919697	-417.918753	-417.9613	28.654	
N	-0.0999132138	 1.297903248	-0.0012334292	-0.439048
C	-0.0556964409	 0.0391097208	-0.0504279039	 0.10589
O	-1.2001732915	-0.6754056157	 0.054333991	-0.2422
C	-1.0799258819	-2.0647406586	 0.0344055263	 0.383035
C	-0.4923991256	-2.836168872	-1.1833430116	-0.308026
C	-1.4217160462	-3.9628417534	-0.7384824028	-0.030722
C	-2.3112687808	-3.041646741	 0.0041353984	-0.116711
N	-1.4825912122	-4.011874731	 0.7715559894	-0.144309
C	-0.5945899154	-2.8936250437	 1.2361261743	-0.202988
H	 0.8373105234	 1.6829912939	-0.0993586926	 0.232548
H	 0.8408703418	-0.5807730035	-0.1770121346	 0.094196
H	-0.832305001	-2.4005980718	-2.1260411602	 0.123889
H	 0.5877343782	-3.0150876362	-1.211277958	 0.09973
H	-1.6604257437	-4.8844107546	-1.2516586299	 0.109169
H	-3.3812553747	-2.9192409237	 0.0981516979	 0.111916
H	 0.4714030856	-3.1361276716	 1.3166842588	 0.098832
H	-0.9762928014	-2.522622816	 2.1900080467	 0.124799
16.5727	82.8387	155.5293	341.7746	361.0843	423.9275	454.7885	497.2063	706.2585	727.9617	784.8631	798.4523	823.9766	853.1977	928.8645	951.0457	967.6416	978.5789	996.7275	1018.181	1043.7006	1054.4199	1094.4582	1127.5769	1146.7471	1162.7881	1178.9042	1210.4579	1248.742	1264.8091	1281.0022	1324.2562	1343.8553	1422.4049	1489.3371	1511.932	1747.3296	3034.1988	3037.2912	3046.1441	3113.2517	3115.8614	3206.6651	3221.4088	3518.8749
N=COC12CC3C1N3C2	[NH][CH]O[C@]12C[C@@H]3[C@H]1N3C2	
InChI=1S/C6H8N2O/c7-3-9-6-1-4-5(6)8(4)2-6/h3-5,7H,1-2H2	InChI=1S/C6H8N2O/c7-3-9-6-1-4-5(6)8(4)2-6/h3-5,7H,1-2H2/t4-,5-,6+,8?/m1/s1
