18
gdb 107109	4.28525	0.92394	0.84198	4.202	74.8	-0.2381	0.0202	0.2583	1363.3019	0.147286	-439.061299	-439.052598	-439.051653	-439.095268	31.869	
O	 0.0793851678	 1.4108977271	 0.2411772808	-0.408181
C	 0.0623544361	 0.0045993727	 0.0417765392	-0.17327
C	-1.3264193576	-0.5286624539	-0.1375344282	 0.286647
C	-2.2090426743	-0.9797143913	 1.0092159927	-0.345136
C	-1.8470237337	-1.9613671559	-0.0734036744	-0.086255
N	-2.6431770781	-1.7210141011	-1.2677600361	-0.041644
C	-2.1837080063	-0.3251160617	-1.4032145314	-0.230539
C	-3.8390030136	-2.2491714187	-1.6396756921	 0.13265
O	-4.6038210235	-1.7344232683	-2.4270027315	-0.322371
H	-0.4551184324	 1.601061345	 1.0195697038	 0.284918
H	 0.6562030396	-0.1669240238	-0.8627267695	 0.118142
H	 0.5612560814	-0.5294440313	 0.8666480582	 0.090475
H	-1.6908498851	-1.1268696141	 1.9528632161	 0.121766
H	-3.233806056	-0.6296074964	 1.0997111456	 0.12524
H	-1.3225439009	-2.8957777165	 0.0870928534	 0.117265
H	-2.9857420497	 0.4169839475	-1.3599489962	 0.131314
H	-1.5904663882	-0.1702624264	-2.3094793093	 0.128864
H	-4.0161579255	-3.2368783129	-1.1650801212	 0.070114
66.5773	79.6514	143.3933	205.0399	283.4282	306.9073	328.1639	386.7216	405.0746	467.107	573.1596	696.4847	759.9909	853.4129	882.423	918.6265	934.7559	968.5209	995.7969	1035.1853	1045.5364	1057.5133	1074.2891	1095.3542	1150.7633	1169.6389	1188.5808	1256.6112	1269.2174	1300.292	1371.7044	1390.5569	1403.107	1427.3165	1439.8219	1481.9309	1499.2659	1513.9277	1795.4423	2918.4336	2975.2414	3052.7806	3068.3577	3105.7113	3112.1432	3184.9614	3202.9064	3809.3532
OCC12CC1N(C2)C=O	OC[C@]12C[C@H]1N(C2)C=O	
InChI=1S/C6H9NO2/c8-3-6-1-5(6)7(2-6)4-9/h4-5,8H,1-3H2	InChI=1S/C6H9NO2/c8-3-6-1-5(6)7(2-6)4-9/h4-5,8H,1-3H2/t5-,6-/m1/s1
