17
gdb 99006	3.82937	0.80745	0.73261	3.7895	66.85	-0.2674	-0.0362	0.2312	1545.0591	0.132688	-496.143201	-496.133101	-496.132157	-496.180328	34.003	
C	 0.3537836547	 1.4127549322	-0.1325808294	-0.242837
O	-0.1341536776	 0.134930512	-0.5747390027	-0.217431
C	 0.8108269546	-0.7731086387	-0.8568273747	 0.437257
O	 1.9956928428	-0.572083831	-0.761520643	-0.350013
C	 0.1825557004	-2.0886185485	-1.3005718214	-0.408818
C	 0.808183749	-2.5972941602	-2.5965531443	 0.357128
O	 0.227625983	-2.5148409012	-3.6561703863	-0.311337
C	 2.1863361043	-3.2260372722	-2.529523201	-0.141524
O	 2.6401562364	-3.6048575858	-3.7945061811	-0.420828
H	 0.9444693337	 1.3018501509	 0.7796831939	 0.146562
H	 0.9763811705	 1.8706027831	-0.9045529816	 0.149581
H	-0.5336219256	 2.0164600012	 0.0541173211	 0.141502
H	 0.3658682562	-2.8126807151	-0.4981975463	 0.150279
H	-0.8904508803	-1.9684629589	-1.4443452257	 0.152775
H	 2.8634180532	-2.5043686213	-2.0487991095	 0.154575
H	 2.1208612291	-4.0920251746	-1.8462506969	 0.110032
H	 1.9086345056	-3.4058030818	-4.399340851	 0.293096
25.0133	45.4592	95.4155	123.7931	155.2439	206.1399	245.7519	290.585	366.4168	385.9413	421.0258	495.8245	592.3382	673.7903	751.6039	811.5746	876.1372	950.206	1013.6442	1033.2116	1106.6432	1136.8595	1178.66	1191.8554	1215.2855	1234.4821	1268.6307	1314.4061	1329.9002	1446.5826	1455.9715	1473.8445	1482.232	1493.4169	1495.2991	1797.3604	1815.8823	2954.256	3023.8276	3055.0989	3057.7967	3135.77	3151.2999	3168.2269	3700.4356
COC(=O)CC(=O)CO	COC(=O)CC(=O)CO	
InChI=1S/C5H8O4/c1-9-5(8)2-4(7)3-6/h6H,2-3H2,1H3	InChI=1S/C5H8O4/c1-9-5(8)2-4(7)3-6/h6H,2-3H2,1H3
