23
gdb 120909	2.98951	0.94561	0.85179	1.572	85.81	-0.2306	0.0783	0.3088	1507.729	0.204954	-388.254909	-388.24524	-388.244296	-388.289873	36.266	
C	-0.3335709352	 1.3769534767	-0.1255314304	-0.380242
C	-0.167486496	-0.0984865489	 0.247659364	-0.165503
C	 1.2889528597	-0.5748694827	 0.1702706472	-0.208123
C	 1.4258809362	-2.0438890972	 0.5320886157	 0.141625
O	 2.7715231685	-2.5953141663	 0.3926572651	-0.310496
C	 2.6382856437	-3.2650059846	 1.6518511136	 0.069275
C	 2.5915675485	-2.2910799555	 2.7837297367	-0.012342
C	 3.4111013685	-1.0195378311	 2.8363245598	-0.421671
C	 1.3312631441	-2.5647609347	 1.9682467523	-0.179007
H	 0.0105516817	 1.5677989555	-1.1480585697	 0.115891
H	-1.3807504338	 1.6887819924	-0.0623299205	 0.111395
H	 0.2472888419	 2.0218604177	 0.5430464532	 0.115695
H	-0.5489670036	-0.2631775527	 1.2638663397	 0.101151
H	-0.7887214187	-0.7161190678	-0.4145301165	 0.096095
H	 1.6690479837	-0.4400280881	-0.8514173339	 0.102794
H	 1.9142551469	 0.0406560603	 0.822844565	 0.102253
H	 0.7533795321	-2.6346020771	-0.1080589831	 0.078604
H	 2.9473895761	-4.3033519429	 1.7015748103	 0.097667
H	 2.5096076543	-2.8051724485	 3.7410513136	 0.087293
H	 3.7339586738	-0.7252858243	 1.8360964009	 0.140238
H	 2.8542019912	-0.1898033201	 3.2844713268	 0.112821
H	 4.3102779924	-1.1800770193	 3.4410582438	 0.112027
H	 0.4304290741	-2.9542543109	 2.4240885862	 0.092559
62.7247	76.6081	123.4837	178.9757	239.2288	247.7718	252.0856	294.1522	354.9653	403.1411	549.9672	630.4959	700.7246	737.1451	758.5365	803.5459	867.1561	879.8645	905.8219	944.4434	971.4885	997.4894	1021.608	1035.6353	1053.8725	1061.6738	1082.4273	1104.024	1117.3242	1150.6146	1173.6987	1207.0614	1251.3614	1263.199	1286.3878	1316.0849	1328.6501	1342.9325	1384.4367	1405.5475	1410.6201	1414.9228	1444.5879	1483.9316	1493.5789	1498.5449	1499.796	1506.5361	1511.2217	2985.9914	3013.8267	3024.4797	3030.4425	3034.2496	3045.074	3089.202	3092.7461	3100.8691	3102.4779	3114.3571	3135.8352	3169.011	3195.5793
CCCC1OC2C(C)C12	CCC[C@H]1O[C@H]2[C@@H](C)[C@@H]12	
InChI=1S/C8H14O/c1-3-4-6-7-5(2)8(7)9-6/h5-8H,3-4H2,1-2H3	InChI=1S/C8H14O/c1-3-4-6-7-5(2)8(7)9-6/h5-8H,3-4H2,1-2H3/t5-,6+,7-,8-/m0/s1
