17
gdb 133830	3.00324	2.01224	1.9133	3.8331	74.62	-0.1931	-0.0709	0.1222	830.1389	0.13534	-380.718006	-380.7112	-380.710255	-380.748521	28.542	
C	 1.3853300792	-0.1692349466	 0.3418923533	-0.5156
C	 2.8289574523	 0.0816952444	 0.0506389444	 0.348067
C	 4.0177693588	-0.3876627872	 0.8238699729	-0.098499
C	 5.1148679415	 0.5387077122	 0.2860195386	-0.136491
C	 4.4809385563	 1.9270131946	 0.1613077615	-0.203411
C	 3.345177817	 1.3943412807	-0.7649676225	-0.079713
N	 4.053801731	 0.8037078235	-2.012489541	-0.31796
C	 4.5259152244	 0.0197529	-1.1244012765	 0.227703
N	 3.7003921038	-1.0332690908	-0.4947164831	-0.181575
H	 0.9847478391	 0.6281089634	 0.9796515146	 0.125985
H	 1.2449909679	-1.1249470619	 0.853588748	 0.137617
H	 0.8046364278	-0.188588318	-0.5856793658	 0.145221
H	 4.0157798998	-0.9542618069	 1.7468859149	 0.104944
H	 6.1484122252	 0.3889845462	 0.5807185068	 0.099846
H	 5.1076314023	 2.648216401	-0.3650788067	 0.124973
H	 4.1285728987	 2.3398241576	 1.1102756503	 0.10577
H	 2.564692015	 2.0565805378	-1.1308626896	 0.113121
195.7975	217.8854	269.0255	377.3739	425.3572	494.5126	552.2527	573.9941	595.1771	676.2137	716.3109	746.8189	814.4628	834.9882	861.8405	883.7261	928.7824	937.0757	972.4674	985.749	999.4695	1051.5447	1065.0752	1085.8289	1110.9716	1145.8225	1165.9425	1186.7106	1211.0976	1245.9273	1289.5679	1388.9394	1419.599	1468.1417	1476.6417	1489.8729	1565.5546	3029.8357	3070.368	3096.8705	3119.7442	3138.9935	3150.5898	3179.0339	3195.2636
CC12C3C4CC1N=C4N23	C[C@]12[C@@H]3[C@@H]4C[C@H]1[N][C]4N23	
InChI=1S/C7H8N2/c1-7-4-2-3-5(7)9(7)6(3)8-4/h3-5H,2H2,1H3	InChI=1S/C7H8N2/c1-7-4-2-3-5(7)9(7)6(3)8-4/h3-5H,2H2,1H3/t3-,4+,5-,7+,9?/m0/s1
