21
gdb 111239	2.59623	1.39028	1.31535	1.4526	77.21	-0.2333	0.0757	0.309	1119.8864	0.184069	-424.207643	-424.199406	-424.198462	-424.240495	31.92	
C	 0.7393721846	-0.1627442848	 1.4815391089	-0.379944
C	 0.14622597	 0.001322766	 0.0763157711	-0.23139
C	-1.2554753509	-0.5867533602	-0.0335058134	 0.035779
C	-2.055330912	-0.6589525973	-1.358445714	 0.025203
C	-1.1988881237	-1.1286396128	-2.5260616819	-0.072119
O	-0.2248086954	-2.0785252037	-2.0980938607	-0.271008
C	-0.597731074	-2.8689299512	-0.9709698318	-0.073233
C	-1.5532816707	-2.1097032939	-0.0606401157	 0.043884
O	-2.7479010147	-1.8390293468	-0.8526778374	-0.303024
H	 1.7332678766	 0.2899813232	 1.5463103563	 0.115781
H	 0.1059954808	 0.3120325232	 2.2392928024	 0.114693
H	 0.8402333593	-1.2196832482	 1.7520673583	 0.115914
H	 0.0924125319	 1.0707182763	-0.1676976436	 0.095129
H	 0.8065195912	-0.4557934164	-0.6651122336	 0.125401
H	-1.9092874261	-0.1387724829	 0.7219273796	 0.08518
H	-2.7383101064	 0.1505717378	-1.6324988072	 0.077378
H	-1.8614557294	-1.5653804215	-3.288605396	 0.103646
H	-0.6427377562	-0.3005226102	-2.9808579175	 0.105015
H	-1.0912255881	-3.7987356912	-1.292267741	 0.103994
H	 0.3343854112	-3.1301394058	-0.4562003046	 0.105485
H	-1.772558258	-2.6472720294	 0.8662554616	 0.078235
79.4418	153.2592	189.7851	212.4577	260.2281	291.9498	405.3027	434.6217	489.2723	610.296	650.1444	759.9046	828.4826	843.8725	855.8799	884.2203	895.1048	963.51	981.016	1003.5225	1011.1503	1030.8698	1071.1622	1088.2793	1105.5822	1155.4183	1182.2065	1188.3323	1238.6813	1243.984	1268.006	1290.0974	1322.5778	1335.4224	1348.0531	1363.4274	1373.1468	1405.2842	1413.6993	1426.3671	1486.3941	1496.5041	1498.2383	1500.588	1509.9207	2989.8179	2996.2674	3021.9692	3029.7656	3051.9341	3057.6075	3060.1166	3071.3503	3076.5168	3084.1933	3103.0679	3108.639
CCC1C2COCC1O2	CC[C@H]1[C@H]2COC[C@@H]1O2	
InChI=1S/C7H12O2/c1-2-5-6-3-8-4-7(5)9-6/h5-7H,2-4H2,1H3	InChI=1S/C7H12O2/c1-2-5-6-3-8-4-7(5)9-6/h5-7H,2-4H2,1H3/t5-,6+,7-
