20
gdb 83467	2.96404	1.08842	0.97515	2.7798	80.49	-0.2381	-0.0216	0.2165	1293.9762	0.169313	-403.111152	-403.101996	-403.101052	-403.145886	33.613	
C	-0.0073982138	 1.5896769833	 0.0576646343	-0.324313
N	 0.1322600892	 0.141913156	 0.1013445748	-0.11325
C	 1.3750888728	-0.5411255064	-0.1896799735	-0.106804
C	 2.6142465623	 0.1975809521	 0.3505420196	-0.239729
C	 1.9786788877	 0.1768528252	 1.7750865373	-0.292236
C	 0.7588722237	-0.5751505293	 1.1943670718	 0.314523
C	-0.0230386636	-1.6490065693	 1.9100802935	-0.368204
C	-0.969004905	-1.0526859386	 2.9345159171	 0.156126
O	-0.9854907143	-1.3345914516	 4.1047018977	-0.23819
H	 0.8515521859	 2.1571041107	 0.4406150265	 0.110014
H	-0.1771898804	 1.8914949848	-0.9804287487	 0.126559
H	-0.8885536198	 1.8757132764	 0.6405781194	 0.124337
H	 1.3741101228	-1.2964510255	-0.9695632984	 0.092378
H	 3.5159359773	-0.4153497093	 0.2923005602	 0.110063
H	 2.8310320331	 1.1745328326	-0.0913686862	 0.104181
H	 2.5476007328	-0.4412316002	 2.4729208504	 0.114021
H	 1.7762926127	 1.1393414528	 2.2542266662	 0.103695
H	-0.6306249863	-2.1817377212	 1.1675147098	 0.129002
H	 0.6362317869	-2.3619076669	 2.4143311238	 0.116234
H	-1.6733081141	-0.2987106657	 2.5133509545	 0.081594
51.5956	59.3106	148.0773	164.5111	272.0912	272.5084	302.055	313.2189	428.1084	489.3364	546.9872	659.4419	735.363	765.7365	796.0256	840.769	917.5196	932.496	955.1799	961.0688	1016.5376	1037.0323	1091.1191	1115.8001	1120.3557	1158.6515	1181.0191	1189.7608	1219.7937	1226.8704	1247.2139	1269.1638	1289.3315	1301.6472	1417.7514	1422.9019	1446.3462	1454.4411	1473.7336	1487.9665	1504.3495	1508.6065	1833.3892	2868.9954	3008.558	3032.0827	3056.4776	3062.6777	3076.1983	3099.7183	3104.5072	3105.4396	3121.52	3158.5625
CN1C2CCC12CC=O	CN1[C@H]2CC[C@@]12CC=O	
InChI=1S/C7H11NO/c1-8-6-2-3-7(6,8)4-5-9/h5-6H,2-4H2,1H3	InChI=1S/C7H11NO/c1-8-6-2-3-7(6,8)4-5-9/h5-6H,2-4H2,1H3/t6-,7-,8?/m0/s1
