14
gdb 45909	2.84418	1.47455	1.0346	3.2925	64.53	-0.2584	-0.107	0.1514	1078.1374	0.100229	-473.850747	-473.842947	-473.842003	-473.883859	28.276	
N	-0.2005016944	 1.3904463726	-0.1070161555	-0.493569
C	-0.027569597	 0.174436961	 0.1773075947	 0.392375
C	-1.1200667676	-0.8495100977	-0.0447324448	-0.414162
C	-1.2229520093	-1.8193932975	 1.1198153281	 0.313062
O	-2.2421239429	-2.1522766589	 1.6594775991	-0.257119
C	 0.1545285026	-2.394105045	 1.5417123241	 0.294847
O	 0.265507929	-3.3435172422	 2.2688644385	-0.254758
C	 1.3421327496	-1.6869465965	 0.8961455754	-0.200832
O	 1.1350658876	-0.2815032852	 0.7401669547	-0.244877
H	 0.6396531827	 1.9334747346	 0.1021433023	 0.231538
H	-2.0674775385	-0.3448316286	-0.2254580158	 0.1731
H	-0.8725428995	-1.4424764667	-0.9394049477	 0.154438
H	 2.2231207696	-1.8049974881	 1.5282567747	 0.163765
H	 1.5532684081	-2.1588039517	-0.0758781677	 0.142191
55.1162	98.8002	161.0038	297.6255	353.4985	401.6682	413.6132	448.6952	533.7993	580.41	593.2127	668.9186	786.6012	841.5145	890.8769	911.4205	1007.7386	1020.31	1075.0782	1145.3288	1156.7346	1213.4754	1252.0236	1275.0677	1302.8001	1379.9391	1439.2588	1476.3147	1766.0796	1831.4728	1852.4133	2996.1909	3004.1891	3133.0226	3159.2985	3471.8701
N=C1CC(=O)C(=O)CO1	[NH][C]1CC(=O)C(=O)CO1	
InChI=1S/C5H5NO3/c6-5-1-3(7)4(8)2-9-5/h6H,1-2H2	InChI=1S/C5H5NO3/c6-5-1-3(7)4(8)2-9-5/h6H,1-2H2
