17
gdb 128681	3.29226	1.24365	0.91301	0.8421	72.77	-0.1941	0.0345	0.2286	1257.8993	0.135006	-455.157426	-455.147575	-455.14663	-455.192659	33.973	
C	-0.0489635709	 1.3640877467	-0.0328583803	-0.234368
O	-0.017473048	-0.0593395174	-0.0433029543	-0.287266
C	-1.2220490611	-0.6685439597	-0.0224783001	 0.356958
N	-2.387926437	-0.044488102	 0.0045297829	-0.326441
N	-3.2903610796	-1.0580389369	 0.0167296649	-0.301604
C	-2.7230574439	-2.3008611994	-0.0022058762	 0.315821
C	-3.4975874323	-3.5744972994	 0.0059034321	-0.508999
C	-1.3638128076	-2.0753472576	-0.0279812001	 0.067157
O	-0.3783499094	-3.0186086689	-0.0530001599	-0.463006
H	 0.9917527005	 1.6908640535	-0.0509352504	 0.125062
H	-0.5817906939	 1.7494609608	-0.9086697054	 0.13348
H	-0.5471236997	 1.7371365892	 0.8683144173	 0.13351
H	-4.2685211758	-0.8332810315	 0.0373728757	 0.266231
H	-4.1591087197	-3.6591530801	-0.8643720477	 0.132332
H	-2.8045682771	-4.4181952934	-0.0171448865	 0.15516
H	-4.1174614973	-3.6734243179	 0.9048829789	 0.132473
H	 0.4638326429	-2.5511593261	-0.0698977008	 0.303502
53.4212	76.7144	148.0559	183.6709	183.8709	218.7121	233.4938	254.4939	323.6109	343.2455	426.4427	534.5828	630.0962	645.2711	722.2947	754.8468	782.4222	988.4026	1002.6969	1061.2372	1101.0534	1181.9459	1183.3362	1226.4351	1265.5417	1293.4959	1313.7576	1416.3229	1458.8024	1462.8494	1476.975	1484.7796	1491.5243	1504.6521	1544.7202	1584.3507	1691.5452	3024.9052	3029.941	3072.9337	3095.0883	3130.1853	3141.8962	3695.1282	3820.8592
COC1=NNC(C)=C1O	COc1n[nH]c(C)c1O	
InChI=1S/C5H8N2O2/c1-3-4(8)5(9-2)7-6-3/h8H,1-2H3,(H,6,7)	InChI=1S/C5H8N2O2/c1-3-4(8)5(9-2)7-6-3/h8H,1-2H3,(H,6,7)
