20
gdb 90256	3.54284	1.44991	1.21966	2.5009	78.3	-0.2114	0.0673	0.2787	1074.4139	0.171616	-403.07588	-403.068119	-403.067175	-403.108114	30.911	
C	 0.2679361212	 1.615218545	-0.0773904055	-0.409903
C	 0.0066674242	 0.1168964805	-0.0694987799	 0.067716
C	 0.8544706773	-0.7436764294	-1.058635162	-0.395377
C	 1.4801264142	-1.3831023659	 0.1749936632	 0.343971
C	 1.9247939442	-2.7947668352	 0.5381844501	-0.153968
O	 2.9123254282	-2.2662000109	 1.4646559459	-0.29492
C	 2.6667130762	-0.9062760729	 1.0466896912	 0.049043
C	 1.6347478472	-0.1564221249	 1.9219060627	-0.207009
N	 0.5016932666	-0.7091294908	 1.1039829818	-0.169186
H	 1.3352223009	 1.8592684949	-0.0942348736	 0.118127
H	-0.1822841455	 2.0555899194	-0.9733932699	 0.121242
H	-0.1813587605	 2.1028524386	 0.7945100094	 0.127206
H	-1.0703581342	-0.0474981853	-0.1782288733	 0.083902
H	 0.263906193	-1.4386274331	-1.6615163167	 0.111716
H	 1.5353778212	-0.20017993	-1.7193720948	 0.10701
H	 1.1736395257	-3.4211331643	 1.0320264218	 0.111694
H	 2.4056887407	-3.3555399806	-0.2751312055	 0.098783
H	 3.5790196925	-0.398912683	 0.7179454506	 0.074382
H	 1.5986708818	-0.4937145293	 2.9617696926	 0.114072
H	 1.7237055252	 0.9338941171	 1.9054151319	 0.1015
63.306	195.1897	240.7611	277.9294	321.7749	364.536	395.0935	454.1151	526.8396	677.3649	742.8121	753.5454	776.431	844.3948	858.7796	897.1792	909.1229	956.1388	984.7888	1000.8562	1017.1983	1054.2364	1090.4567	1109.5992	1133.1379	1159.5744	1170.0142	1174.2297	1203.8832	1215.5451	1250.1256	1272.8556	1297.3386	1299.6148	1315.1119	1370.3297	1386.8926	1407.4097	1473.6476	1481.9577	1492.8186	1499.3045	1504.2827	3004.6135	3029.0055	3036.6927	3046.599	3055.6229	3059.6171	3070.6156	3096.6052	3100.3484	3102.5101	3107.9568
CC1CC23COC2CN13	C[C@H]1C[C@@]23CO[C@@H]2CN13	
InChI=1S/C7H11NO/c1-5-2-7-4-9-6(7)3-8(5)7/h5-6H,2-4H2,1H3	InChI=1S/C7H11NO/c1-5-2-7-4-9-6(7)3-8(5)7/h5-6H,2-4H2,1H3/t5-,6+,7+/m0/s1
