20
gdb 113835	4.17486	0.80674	0.73734	2.0237	77.21	-0.2334	0.0736	0.3069	1570.5937	0.169296	-440.21669	-440.207037	-440.206093	-440.252299	34.845	
C	 0.2641204242	 1.755236655	-0.5004928673	-0.314942
N	 0.105974706	 0.3288221496	-0.2506148784	-0.083241
C	 1.2877948683	-0.4427803604	 0.091553674	-0.256957
C	 0.2205692104	-0.2027559595	 1.1113199439	-0.022087
C	 0.5110990008	 0.6708761475	 2.2864587415	 0.050502
O	-0.6074022047	 1.103035376	 3.078886639	-0.275142
C	 0.3717628553	 0.2501046644	 3.6924620622	 0.019576
C	-0.1306956929	-1.0929313656	 4.1621685309	-0.085953
O	-0.8981110772	-0.9534907871	 5.3464756695	-0.418229
H	 1.1109596966	 2.2253113637	 0.0229507629	 0.10119
H	 0.4166058099	 1.9006168704	-1.574431782	 0.126768
H	-0.6527669955	 2.2771652096	-0.2108300184	 0.135916
H	 1.3908245979	-1.4161330104	-0.3810159304	 0.119704
H	 2.2263923598	 0.0962924932	 0.2273271054	 0.106246
H	-0.4941700782	-0.9968035688	 1.3086387993	 0.098225
H	 1.2375916357	 1.4622595874	 2.1015868661	 0.094164
H	 0.9935365515	 0.7622027341	 4.4298830207	 0.098058
H	-0.7047494808	-1.5917352596	 3.3703921715	 0.097468
H	 0.7173654932	-1.7365733511	 4.4204021171	 0.115041
H	-1.6270211101	-0.3581951985	 5.1377880624	 0.293695
36.9826	65.7958	121.0965	152.5695	211.3617	234.133	289.1937	369.7096	394.535	422.9154	442.9139	519.5738	600.1242	747.1308	794.2601	832.5483	898.3266	918.3456	945.135	1033.3849	1048.7934	1070.1706	1073.3319	1104.7413	1126.3957	1129.8994	1152.0649	1163.8603	1200.7184	1210.6053	1230.5828	1299.8037	1320.9095	1337.9091	1364.2706	1408.8947	1439.0408	1451.6072	1487.0668	1488.9362	1496.6968	1505.3449	1516.9511	2980.3735	3017.7441	3071.0968	3073.4097	3079.9546	3092.753	3109.7313	3110.5674	3144.8895	3171.3813	3801.8706
CN1CC1C1OC1CO	CN1C[C@H]1[C@H]1O[C@H]1CO	
InChI=1S/C6H11NO2/c1-7-2-4(7)6-5(3-8)9-6/h4-6,8H,2-3H2,1H3	InChI=1S/C6H11NO2/c1-7-2-4(7)6-5(3-8)9-6/h4-6,8H,2-3H2,1H3/t4-,5-,6+,7?/m0/s1
