15
gdb 27329	3.30199	1.41659	0.99237	3.9798	74.06	-0.1859	0.0024	0.1884	1111.3121	0.115753	-450.180409	-450.172664	-450.17172	-450.212283	30.553	
N	 0.0375755976	 1.3811123245	 0.1562594989	-0.58891
C	-0.0310670555	 0.0050976631	 0.0538614382	 0.269932
C	-1.1659621842	-0.726660338	 0.0247133383	-0.125039
N	-1.0819550718	-2.1231323541	-0.0186754284	-0.354708
C	 0.1299474166	-2.710995001	-0.0188458886	 0.496486
O	 0.0758096481	-4.0558492415	-0.0416581382	-0.414596
N	 1.262306376	-2.0922111858	-0.0046986476	-0.44365
C	 1.2721143243	-0.6996345518	 0.0143138169	 0.306961
N	 2.3372960594	 0.0182764282	-0.009711224	-0.564755
H	 0.9679727902	 1.7119645915	-0.0740924042	 0.267824
H	-0.7134481791	 1.9075352081	-0.2627659609	 0.239922
H	-2.1646776241	-0.3135783001	 0.0405006555	 0.115735
H	-1.9091198085	-2.6954617057	-0.0291515881	 0.272618
H	 0.9968553035	-4.3506183856	-0.0433075101	 0.31224
H	 3.1576836174	-0.5866118217	-0.0443999475	 0.209941
110.9404	198.0877	306.8393	332.6801	367.8492	376.8938	410.5637	450.6715	483.6692	515.0928	537.2468	593.3666	641.7688	728.7402	756.8314	785.2921	795.9418	815.6354	872.0573	990.7355	1079.554	1136.2549	1215.2972	1238.2226	1292.3974	1339.6389	1387.1531	1445.9675	1590.9789	1613.0617	1665.742	1674.8904	1717.1627	3227.8134	3485.0845	3523.4477	3657.2727	3665.6182	3783.1746
NC1=CNC(O)=NC1=N	NC1=CN[C@@H](O)N=C1[NH]	
InChI=1S/C4H6N4O/c5-2-1-7-4(9)8-3(2)6/h1H,5H2,(H3,6,7,8,9)	InChI=1S/C4H7N4O/c5-2-1-7-4(9)8-3(2)6/h1,4,6-7,9H,5H2/t4-/m1/s1
