15
gdb 76364	2.0867	1.43871	1.19845	5.1307	73.14	-0.2515	-0.0065	0.245	1097.3957	0.113003	-412.983181	-412.97405	-412.973106	-413.016894	33.03	
N	 0.0874901223	 1.464897935	 0.0664053485	-0.501533
C	 0.0290072237	 0.0610993696	 0.009720305	-0.000951
C	-1.2853479516	-0.6277401647	 0.0617760638	-0.076856
N	-2.4421217146	 0.2125529067	 0.0620313122	-0.507057
C	-0.5148523491	-0.723560027	-1.2836269807	-0.041332
C	-0.9498530811	 0.0848268579	-2.3830155974	 0.259798
N	-1.2771511338	 0.7642432723	-3.2602640294	-0.339711
C	 0.1005989712	-1.9790383672	-1.5975884237	 0.240706
N	 0.6166121283	-2.9962682208	-1.7945666357	-0.333761
H	 0.887445946	 1.8461260532	-0.424557132	 0.256448
H	-0.7656117886	 1.8879352805	-0.2830129233	 0.267437
H	 0.8747670813	-0.452288559	 0.4548411394	 0.142398
H	-1.3115996166	-1.5829525107	 0.5877763636	 0.121028
H	-3.2513557734	-0.2611444389	-0.3238429223	 0.257633
H	-2.6657925942	 0.5098905729	 1.0060846121	 0.255751
105.2563	133.2703	147.5851	158.588	198.7632	248.7316	344.5576	375.9373	396.0475	477.0329	502.1976	583.536	593.9907	623.6394	655.4383	703.011	816.6384	853.9335	905.6194	974.2754	1073.8284	1110.47	1170.5456	1216.1834	1255.4228	1301.9712	1304.5857	1395.2241	1469.4451	1643.9226	1653.0296	2345.2942	2353.1041	3092.1245	3177.7286	3513.184	3521.8612	3595.3305	3611.2058
NC1C(N)C1(C#N)C#N	N[C@H]1[C@@H](N)C1(C#N)C#N	
InChI=1S/C5H6N4/c6-1-5(2-7)3(8)4(5)9/h3-4H,8-9H2	InChI=1S/C5H6N4/c6-1-5(2-7)3(8)4(5)9/h3-4H,8-9H2/t3-,4+
