18
gdb 28908	2.41453	1.78173	1.03943	3.8163	82.93	-0.2179	-0.0197	0.1982	1139.0538	0.148764	-398.201788	-398.193128	-398.192183	-398.234633	32.891	
C	 0.0364694993	 1.5029945477	-0.0238878701	-0.505509
C	 0.0027731175	-0.0008494602	 0.0025831675	 0.289309
N	-0.069956327	-0.6420778942	-1.1670063397	-0.303107
C	-0.0881505373	-1.9725527148	-1.1282326207	 0.032515
N	-0.0363649455	-2.735793195	-0.0388418347	-0.303104
C	 0.0366034184	-2.1098257508	 1.1389750809	 0.289303
C	 0.1080153983	-2.957724304	 2.3796834427	-0.50551
C	 0.0547947174	-0.7065203815	 1.2170915536	 0.17703
N	 0.1865447611	-0.0462575518	 2.4384797205	-0.598011
H	 0.9316239589	 1.8909898899	 0.4772023478	 0.136651
H	 0.0310025377	 1.8464596388	-1.0585722667	 0.148879
H	-0.8340307315	 1.9367416688	 0.4871881259	 0.124202
H	-0.1494235921	-2.4880786773	-2.0831530948	 0.106644
H	 1.0059410835	-2.730611003	 2.9671238649	 0.136653
H	-0.7580113372	-2.7907628158	 3.0348353081	 0.124196
H	 0.1245839477	-4.010631049	 2.0974017787	 0.14888
H	-0.1341422328	-0.5657237147	 3.2421996838	 0.250487
H	-0.1580087264	 0.902306567	 2.4511876123	 0.250491
110.9219	159.3051	176.0043	233.5557	292.823	295.549	307.6829	338.3847	490.2665	517.5287	555.0544	556.9416	565.8123	630.8773	701.5351	797.8119	890.7028	907.7387	953.7907	986.055	1011.6768	1056.3793	1058.2504	1183.4174	1236.6001	1281.1832	1290.3187	1320.389	1400.2637	1404.0307	1443.0875	1471.9795	1475.1597	1484.9425	1486.1261	1503.968	1596.693	1610.1697	1659.0307	3013.2854	3013.9959	3065.7604	3065.8968	3148.9749	3149.1214	3165.9158	3568.9662	3666.1353
CC1=NC=NC(C)=C1N	Cc1ncnc(C)c1N	
InChI=1S/C6H9N3/c1-4-6(7)5(2)9-3-8-4/h3H,7H2,1-2H3	InChI=1S/C6H9N3/c1-4-6(7)5(2)9-3-8-4/h3H,7H2,1-2H3
