17
gdb 38646	2.84424	2.28427	1.95829	2.0602	69.63	-0.2308	0.004	0.2348	790.8416	0.140437	-421.817272	-421.81176	-421.810815	-421.846747	24.755	
C	-0.0351784855	 1.5889024216	-0.0091276164	-0.19768
C	 1.4834474918	 1.7554333211	-0.0452906848	 0.032261
O	 1.7370543045	 1.0215391992	-1.2561826853	-0.24913
C	 1.4085299278	-0.2388781562	-0.6929365703	 0.181975
O	 2.4160401158	-0.3926703671	 0.2643545518	-0.242462
C	 2.1499144083	 0.7930678375	 1.0699075287	 0.010297
C	 1.1640107388	 0.2916304709	 2.0965843532	-0.079925
C	 0.0888355105	-0.2615640467	 1.526837219	-0.049018
C	-0.0099143314	 0.020179497	 0.047914617	-0.157055
H	-0.5548102518	 2.0210658011	 0.845194174	 0.102253
H	-0.4513981959	 1.9828755443	-0.9383728526	 0.109139
H	 1.9037043627	 2.7576786901	-0.100348249	 0.087367
H	 1.4400137514	-1.0390761857	-1.4293689438	 0.099514
H	 3.0905641557	 1.1719754635	 1.4663909998	 0.083857
H	 1.3972688776	 0.2702337658	 3.1540051621	 0.097861
H	-0.6954625896	-0.7846750871	 2.0619418536	 0.098395
H	-0.8405724108	-0.4731080895	-0.4545728568	 0.072351
325.7501	415.3018	428.9382	542.4956	576.3287	622.5742	676.7406	691.7955	731.9287	770.2492	783.7889	862.1275	877.3681	911.8617	936.9009	947.3544	949.588	970.2677	984.9566	991.7366	1030.578	1048.1948	1085.3069	1104.4471	1157.8501	1192.1787	1236.9854	1254.1563	1265.7356	1284.9685	1302.1512	1311.2843	1321.7687	1351.3789	1378.9103	1487.6419	1660.1427	3080.3153	3122.9359	3127.4211	3141.8128	3146.3212	3157.0279	3185.7213	3211.4739
C1C2OC3OC2C=CC13	C1[C@@H]2O[C@H]3O[C@@H]2C=C[C@@H]13	
InChI=1S/C7H8O2/c1-2-5-6-3-4(1)7(8-5)9-6/h1-2,4-7H,3H2	InChI=1S/C7H8O2/c1-2-5-6-3-4(1)7(8-5)9-6/h1-2,4-7H,3H2/t4-,5+,6-,7+/m0/s1
