19
gdb 114699	3.7664	1.15531	1.08704	1.2713	71.29	-0.2382	0.0766	0.3148	1179.9424	0.158504	-460.141746	-460.133141	-460.132197	-460.17477	32.977	
C	 0.0539888535	 1.0681846143	 0.6873137558	-0.243901
O	-0.1891289789	-0.3029700719	 0.4249449625	-0.234659
C	-1.4007376335	-0.5396624704	-0.245428315	 0.188784
C	-1.5169563582	-2.0511617989	-0.5084016787	-0.327198
C	-2.4456538738	-2.5459980144	 0.5933930338	 0.358774
O	-3.2485497883	-3.6567492805	 0.3406111167	-0.470281
C	-2.0895837364	-2.1604240658	 2.017889418	-0.382509
C	-3.0319417142	-1.3093825865	 1.1876746586	 0.060278
O	-2.526261957	-0.1660953902	 0.5419166767	-0.260048
H	 1.0307059629	 1.1316499711	 1.1716238513	 0.125161
H	 0.0785554554	 1.651846688	-0.2456259735	 0.105875
H	-0.710829456	 1.493417673	 1.3465655424	 0.129459
H	-1.4435418707	 0.0807153329	-1.1517863191	 0.078426
H	-1.9995521549	-2.2406383775	-1.4714840022	 0.117438
H	-0.5244956003	-2.5074758658	-0.5112952653	 0.115311
H	-2.7305304018	-4.4471671207	 0.5280572752	 0.283745
H	-2.5575314481	-2.7514212059	 2.7986508636	 0.111333
H	-1.0958110649	-1.7838438708	 2.2292741357	 0.133198
H	-4.0761131848	-1.21461629	 1.4582362533	 0.110816
96.4779	136.4241	170.2262	225.8789	287.1386	308.8181	345.4628	381.3043	421.5338	462.2351	558.6167	617.213	704.0577	772.8688	839.2943	870.502	902.5356	934.1023	983.2615	1011.2353	1020.5787	1030.814	1057.5456	1078.5347	1116.4422	1156.9128	1178.6073	1180.7255	1230.2822	1249.3218	1265.453	1305.8078	1324.9523	1370.714	1393.7645	1413.0687	1467.8902	1475.2442	1483.5976	1493.1723	1514.7611	2990.9535	3007.6544	3065.6971	3069.3929	3118.0215	3126.3048	3133.0698	3197.2248	3235.1739	3794.5537
COC1CC2(O)CC2O1	CO[C@H]1C[C@@]2(O)C[C@H]2O1	
InChI=1S/C6H10O3/c1-8-5-3-6(7)2-4(6)9-5/h4-5,7H,2-3H2,1H3	InChI=1S/C6H10O3/c1-8-5-3-6(7)2-4(6)9-5/h4-5,7H,2-3H2,1H3/t4-,5-,6+/m1/s1
