21
gdb 108917	3.18155	1.09598	0.92117	1.4683	85.32	-0.2135	0.0301	0.2436	1346.1076	0.182164	-387.089861	-387.080728	-387.079784	-387.12355	34.953	
C	-0.0459081677	 1.5702798427	 0.0783175868	-0.482768
C	 0.038361016	 0.0638293022	 0.0053177586	 0.337662
C	-0.8206459977	-0.8068539231	 0.9055346108	-0.316294
C	 0.6802667867	-0.8093884118	 1.0740816406	-0.085
C	 1.4859358313	-1.9006679622	 0.3721710689	-0.329784
C	 1.1737796843	-1.6814311199	-1.0986177091	 0.293109
C	 1.6804213812	-2.6193007746	-2.1450329345	-0.172937
O	 1.2723724974	-2.1782908807	-3.4278744418	-0.413634
C	 0.4123727481	-0.5996379259	-1.2835846439	-0.237018
H	 0.8908559133	 2.0383494047	-0.2448708924	 0.116423
H	-0.8473220923	 1.9546298793	-0.5639380907	 0.116167
H	-0.2540295668	 1.9053783789	 1.0994868725	 0.111312
H	-1.3954596827	-0.3101382675	 1.6819327339	 0.101605
H	-1.305197223	-1.6754998842	 0.4704032938	 0.104862
H	 1.083629561	-0.3650444111	 1.9771749286	 0.078868
H	 2.5627176251	-1.7985927067	 0.5696826165	 0.101186
H	 1.2085365442	-2.9093588718	 0.7086057315	 0.103128
H	 2.7820863857	-2.6804745187	-2.0737389989	 0.090611
H	 1.3071243167	-3.6380264064	-1.9341056774	 0.092095
H	 1.6184016855	-2.7946793303	-4.079055416	 0.288276
H	 0.0719577138	-0.246637513	-2.2493080977	 0.10213
78.1204	145.1704	170.9997	204.2915	222.0756	238.0608	325.4327	381.5356	389.2583	445.4804	487.5574	580.2615	655.0001	756.0942	816.1581	855.7388	858.2142	895.7534	932.9805	959.6239	971.9671	1001.5879	1051.9071	1059.227	1070.0698	1092.8722	1098.6606	1113.8728	1160.9666	1192.1004	1213.9497	1249.8142	1253.5138	1277.8993	1325.3011	1336.6331	1395.503	1418.6286	1466.213	1475.8658	1486.9373	1488.6368	1501.7835	1509.3148	1713.6704	2931.0818	2941.0979	3000.7882	3021.8027	3026.7326	3080.5217	3097.191	3114.5068	3168.36	3202.6694	3212.4726	3839.0441
CC12CC1CC(CO)=C2	C[C@]12C[C@H]1CC(=C2)CO	
InChI=1S/C8H12O/c1-8-3-6(5-9)2-7(8)4-8/h3,7,9H,2,4-5H2,1H3	InChI=1S/C8H12O/c1-8-3-6(5-9)2-7(8)4-8/h3,7,9H,2,4-5H2,1H3/t7-,8+/m1/s1
