22
gdb 122236	2.73321	0.81871	0.6991	4.0655	87.43	-0.2822	0.0377	0.3199	1713.1403	0.193331	-367.229825	-367.219602	-367.218658	-367.265828	37.053	
C	 0.1499214093	 1.5199690117	 0.2575308862	-0.382591
C	-0.085477008	 0.0354812623	-0.0335826299	-0.165648
C	 0.7905795785	-0.4962479445	-1.1727767543	-0.165842
C	 0.5572575914	-1.9832698702	-1.4647231707	-0.284033
C	 1.4178465179	-2.5280669198	-2.6005361638	 0.190827
C	 2.8446934285	-2.9715329402	-2.3061393331	-0.283873
C	 1.7989432688	-4.0013784607	-2.6121075137	-0.304671
C	 1.1854077966	-1.9177586356	-3.8872429331	 0.245914
N	 0.9861527447	-1.4203201618	-4.9130997364	-0.355741
H	 1.1898808547	 1.7066614878	 0.5476166233	 0.114331
H	-0.0614459033	 2.1337770339	-0.6248180749	 0.120017
H	-0.4911186028	 1.8734274219	 1.0709711171	 0.113081
H	 0.1030088758	-0.551505608	 0.875486004	 0.092863
H	-1.1421236869	-0.1261050391	-0.2845207518	 0.099136
H	 0.5982651621	 0.0850036942	-2.0835959213	 0.120576
H	 1.8492928322	-0.337545963	-0.9273692306	 0.09602
H	 0.7714762074	-2.5764697378	-0.5671022861	 0.098909
H	-0.4999169562	-2.1529632238	-1.7042942373	 0.114765
H	 3.6026859082	-2.7709581716	-3.0534628633	 0.140113
H	 3.1779760307	-2.8592094115	-1.280188001	 0.127668
H	 1.4086234499	-4.6044095697	-1.7997703724	 0.127994
H	 1.8394061703	-4.5039398448	-3.5709614668	 0.140184
55.5497	71.9773	106.1857	131.4954	178.5215	226.523	247.6261	281.6299	306.33	370.2725	443.6723	572.6392	593.2008	695.4305	736.9256	788.9987	792.9874	874.8894	904.2968	931.561	936.1906	958.9814	983.247	1031.1324	1065.7834	1069.1455	1091.0043	1119.0938	1136.8467	1194.6784	1234.6431	1276.2031	1289.461	1303.521	1330.7097	1351.64	1370.2187	1400.4639	1414.6898	1466.9534	1480.2785	1486.105	1497.7588	1500.2535	1500.9266	1512.7542	2346.3641	3010.3126	3015.9598	3025.7666	3031.3109	3036.9778	3052.6477	3073.8693	3098.3005	3104.1019	3141.4004	3144.9814	3226.5785	3240.3474
CCCCC1(CC1)C#N	CCCCC1(CC1)C#N	
InChI=1S/C8H13N/c1-2-3-4-8(7-9)5-6-8/h2-6H2,1H3	InChI=1S/C8H13N/c1-2-3-4-8(7-9)5-6-8/h2-6H2,1H3
