17
gdb 133875	3.51898	2.15095	1.87617	2.3177	73.27	-0.2283	0.0744	0.3027	785.0566	0.139289	-384.596376	-384.59102	-384.590076	-384.625639	24.482	
C	 0.4444737774	-0.6675210703	-1.5433892751	-0.361137
C	 1.0910368595	 0.6939634747	-1.1648231622	-0.060781
C	 1.208623207	 0.8356320309	 0.3635814197	-0.10519
C	 0.1034263158	 1.5631984398	-0.3654662332	-0.10519
C	-1.0873779161	 0.6781286647	-0.074788528	-0.061062
C	-1.044648359	-0.1189813687	 1.2614687451	-0.013414
O	-1.3958974749	-1.3924320469	 0.5230808287	-0.399329
C	-0.3989094147	-0.6925618805	-0.2898483435	 0.421277
C	 0.4635250374	-0.3428521786	 0.9482709523	-0.061064
H	 1.1823382107	-1.4718034751	-1.6101895003	 0.114757
H	-0.1270137134	-0.609840146	-2.4739007915	 0.114757
H	 1.8235993345	 1.1527044997	-1.8175370669	 0.090038
H	 2.0416256789	 1.3440926335	 0.8303082958	 0.088887
H	 0.0735480979	 2.6397045796	-0.4679405514	 0.088887
H	-2.051483003	 0.8437725279	-0.5516685408	 0.079093
H	-1.5750166299	 0.020352941	 2.2045304461	 0.090379
H	 0.9847972418	-1.1550479257	 1.4512263653	 0.079093
378.5531	431.5695	464.6021	503.5232	643.6646	690.7927	723.1239	738.2583	740.561	798.4134	814.9241	820.3452	878.0505	900.8284	934.3557	960.0581	973.6584	988.4201	992.1017	1002.5082	1012.3536	1051.3814	1075.3572	1081.2508	1098.5246	1139.2164	1168.2427	1190.2721	1212.6572	1240.9752	1248.4786	1251.6115	1306.653	1318.2506	1337.445	1382.4847	1487.917	3059.3283	3105.0805	3112.8465	3140.885	3143.9583	3192.4426	3196.2884	3208.5203
C1C2C3C2C2C4OC12C34	C1[C@@H]2[C@H]3[C@@H]2[C@@H]2[C@H]4O[C@@]12[C@@H]34	
InChI=1S/C8H8O/c1-2-3-4(2)6-7-5(3)8(1,6)9-7/h2-7H,1H2	InChI=1S/C8H8O/c1-2-3-4(2)6-7-5(3)8(1,6)9-7/h2-7H,1H2/t2-,3+,4-,5+,6-,7+,8-
