21
gdb 95264	2.58096	1.71465	1.3344	1.4058	80.94	-0.2467	0.0769	0.3236	1038.4344	0.185917	-387.071434	-387.063988	-387.063044	-387.10296	31.071	
O	-0.0283783378	 1.4525412112	 0.0151488542	-0.439324
C	 0.0235937998	 0.0265440205	 0.0198485878	 0.111609
C	 0.9793454049	-0.4995742009	 1.1033849828	-0.244647
C	 0.7274253332	-1.9711220955	 1.4705698617	-0.220798
C	-0.7548805053	-2.2151627345	 1.7686751363	-0.010254
C	-1.480802235	-1.1141872795	 2.6190955027	-0.248797
C	-2.250805094	-0.6822208175	 1.3707050063	-0.061403
C	-1.6981637139	-1.8789213124	 0.589630145	-0.103189
C	-1.3980169519	-0.4836681719	 0.135355922	-0.002863
H	 0.8660802452	 1.778236483	-0.1303104898	 0.276324
H	 0.3895118315	-0.3290628943	-0.9600163983	 0.058188
H	 2.0152984151	-0.3631778402	 0.7683278813	 0.079163
H	 0.8558275209	 0.1320431573	 1.9885677196	 0.11183
H	 1.0394911282	-2.6282942491	 0.6475294062	 0.094091
H	 1.3447988781	-2.2401326433	 2.3361193738	 0.093063
H	-0.9109629165	-3.2197046347	 2.167434415	 0.067737
H	-2.1526313019	-1.5735712136	 3.34905802	 0.097644
H	-0.8741638831	-0.3669503445	 3.1379687115	 0.095858
H	-3.2656787244	-0.3011590173	 1.3783122915	 0.081172
H	-2.2171267167	-2.6047852858	-0.0251309886	 0.076879
H	-2.0074793866	-0.1614084971	-0.7062834511	 0.087714
106.5263	253.0256	281.039	290.5536	350.7199	378.3137	440.4711	498.1285	585.1928	639.0321	711.1048	770.5637	784.0465	828.2811	838.1974	904.0006	924.1935	953.1642	972.9048	1000.5121	1011.3999	1033.0766	1056.2568	1075.2706	1088.8852	1100.5785	1102.7594	1160.9631	1167.436	1195.9491	1215.5037	1250.1762	1265.3003	1271.4407	1300.923	1329.9843	1339.5348	1355.3777	1376.6063	1390.6769	1437.4791	1452.8856	1483.9014	1491.6381	1515.3707	2930.7526	3012.8151	3027.9359	3051.5928	3053.3755	3077.3563	3083.3508	3101.0507	3133.1545	3168.3371	3181.3981	3807.4725
OC1CCC2CC3C2C13	O[C@H]1CC[C@H]2C[C@@H]3[C@H]2[C@H]13	
InChI=1S/C8H12O/c9-6-2-1-4-3-5-7(4)8(5)6/h4-9H,1-3H2	InChI=1S/C8H12O/c9-6-2-1-4-3-5-7(4)8(5)6/h4-9H,1-3H2/t4-,5+,6-,7-,8-/m0/s1
