19
gdb 93605	2.83852	1.26115	0.93247	1.4801	89.	-0.2231	-0.019	0.2041	1276.8584	0.15698	-385.88007	-385.8705	-385.869556	-385.914409	35.151	
C	 0.1371978419	 1.5666959181	-0.1196412174	-0.393866
C	-0.0043630352	 0.0559579705	 0.0715311352	 0.064125
O	 0.5513218483	-0.6209077527	-1.0578465698	-0.279
C	 1.4544768711	-1.6333790456	-0.6404252407	-0.179462
C	 1.5630930791	-1.4715016628	 0.8605808653	 0.078139
C	 2.4212670206	-2.2678885606	 1.6505217045	 0.210065
C	 3.166969868	-2.9663814194	 2.2905477068	-0.428828
C	 0.7233631704	-0.5077540871	 1.2692683236	 0.179459
C	 0.4703650074	-0.0395808128	 2.6623188065	-0.519656
H	 1.1927406972	 1.8533516667	-0.1451103597	 0.120534
H	-0.3258747212	 1.8623212386	-1.0648385163	 0.129907
H	-0.3593731835	 2.1112740098	 0.6898460482	 0.113307
H	-1.08109269	-0.1851186015	 0.1437908839	 0.079632
H	 1.0738171929	-2.6313619942	-0.9098439587	 0.10883
H	 2.4206780607	-1.5029640589	-1.1480075556	 0.113762
H	 3.8206725856	-3.5776414989	 2.8617935955	 0.192275
H	 1.0545876529	-0.6161292318	 3.3827858188	 0.142364
H	 0.72669117	 1.0203855798	 2.7794133373	 0.136347
H	-0.592081906	-0.1350749071	 2.9207158327	 0.132064
69.7739	125.2922	135.1075	163.4317	213.0083	243.1375	260.188	326.133	385.711	485.0858	507.3993	563.5272	582.6136	614.9237	637.0451	646.4469	772.0442	866.2638	907.0325	1011.4818	1037.7571	1050.2966	1079.5764	1094.6073	1117.291	1121.0276	1197.1502	1202.7101	1267.9937	1349.9332	1368.1638	1378.7627	1398.832	1414.4194	1480.159	1480.7181	1490.3548	1495.6717	1526.7634	1706.8747	2220.1372	2926.2394	2977.2052	3013.661	3021.2223	3039.1907	3068.1473	3113.9122	3123.0128	3126.0865	3502.8894
CC1OCC(C#C)=C1C	C[C@H]1OCC(=C1C)C#C	
InChI=1S/C8H10O/c1-4-8-5-9-7(3)6(8)2/h1,7H,5H2,2-3H3	InChI=1S/C8H10O/c1-4-8-5-9-7(3)6(8)2/h1,7H,5H2,2-3H3/t7-/m1/s1
