21
gdb 22524	2.79391	1.04242	0.97006	1.1235	82.99	-0.2282	0.0071	0.2353	1356.7295	0.180623	-420.348534	-420.33841	-420.337466	-420.383416	37.54	
C	 0.1520232392	 1.5241537249	 0.1688047328	-0.396775
C	-0.0262140054	 0.0188461654	-0.046818203	-0.184206
C	 0.6286750654	-0.5068259767	-1.3328431029	 0.222629
C	 0.0033319111	 0.068735649	-2.6069069235	-0.4459
N	 2.1350380324	-0.400810074	-1.2892788576	-0.354639
C	 2.3031551949	-1.8677696832	-1.5144755009	-0.265391
C	 0.8068623389	-2.0180378452	-1.3841071804	 0.372719
N	-0.0388558599	-2.9531175478	-1.3095877958	-0.250828
O	 0.5907888981	-4.2113789138	-1.3909243678	-0.392069
H	 1.2134622828	 1.7890066822	 0.1330909902	 0.128648
H	-0.374999645	 2.1169982368	-0.5855743293	 0.111705
H	-0.2363055914	 1.8218690477	 1.14741327	 0.11339
H	 0.4189640616	-0.519172073	 0.7967367004	 0.099586
H	-1.0898583	-0.2484919675	-0.0641494509	 0.101816
H	 0.1539324755	 1.1521428286	-2.6585860544	 0.121257
H	 0.44815976	-0.3804254272	-3.5005173302	 0.114349
H	-1.07316039	-0.1265602581	-2.6331909817	 0.131805
H	 2.5089690746	 0.1594200818	-2.0477257189	 0.215437
H	 2.688565194	-2.1601413492	-2.5001646312	 0.119034
H	 2.9051380224	-2.3706803511	-0.7498619999	 0.130712
H	-0.1543258292	-4.8165273096	-1.3110471552	 0.306721
84.2419	92.8688	121.5071	170.3565	219.2716	245.4355	272.5788	319.7375	335.0108	356.3757	380.8495	446.4439	515.507	599.9298	639.6702	756.6079	773.0206	795.5373	916.5797	920.7121	966.7122	972.1335	1003.2564	1021.733	1034.2974	1056.4841	1120.471	1132.0025	1182.6659	1216.2655	1248.6601	1298.5289	1302.7023	1368.6975	1378.9279	1401.6588	1403.9801	1411.3657	1474.2933	1489.6564	1491.5483	1495.1486	1506.3123	1510.6593	1799.8977	3016.5187	3031.703	3035.8688	3038.6917	3062.926	3073.1554	3101.5946	3107.0925	3109.7899	3112.4616	3526.9687	3817.4113
CCC1(C)NCC1=NO	CC[C@@]1(C)NCC1=NO	
InChI=1S/C6H12N2O/c1-3-6(2)5(8-9)4-7-6/h7,9H,3-4H2,1-2H3	InChI=1S/C6H12N2O/c1-3-6(2)5(8-9)4-7-6/h7,9H,3-4H2,1-2H3/t6-/m1/s1
