18
gdb 54980	3.23966	1.03953	1.0061	2.2804	73.21	-0.244	-0.0227	0.2214	1256.1311	0.145882	-439.049132	-439.04012	-439.039176	-439.083954	32.155	
C	-0.5668315654	 0.5029789967	 0.9309352238	-0.492863
C	 0.3791738872	-0.141572928	-0.0598490819	 0.402396
O	 1.575048522	 0.0507355772	-0.0436261624	-0.307514
C	-0.1997029837	-1.0603334371	-1.1014713273	-0.204811
N	-1.5617803085	-1.6063730723	-0.8856226869	-0.368784
C	-1.3492517137	-0.6899262459	-1.9775792179	 0.272717
C	-2.1039755658	 0.6178020685	-2.2069885757	-0.134806
O	-2.2120380718	 0.31888554	-3.6169961457	-0.27251
C	-1.5122947214	-0.9335834568	-3.4771164532	-0.140563
H	 0.0126530148	 1.0631775623	 1.6651848298	 0.140416
H	-1.2582901231	 1.1839921733	 0.4219157036	 0.143411
H	-1.1837697567	-0.2578101389	 1.4166858854	 0.157886
H	 0.557035061	-1.6951568914	-1.5579175354	 0.106322
H	-1.6171976388	-2.5690753656	-1.2106486601	 0.242818
H	-3.0818066847	 0.6739735501	-1.7137737081	 0.116863
H	-1.5450574965	 1.5445900547	-2.0298741586	 0.114149
H	-0.5882762052	-0.9625867337	-4.0678012878	 0.117164
H	-2.1416040697	-1.7940519332	-3.7445323017	 0.10771
44.0119	94.2172	115.2178	134.7177	164.8246	285.575	362.9442	397.2089	464.1964	520.1782	536.9743	635.3563	762.3878	826.6042	875.842	931.6655	953.3404	959.8279	989.3808	1024.8406	1032.2285	1044.7435	1056.7389	1127.9752	1149.7704	1154.6572	1163.2206	1256.5663	1270.4416	1302.8856	1321.9034	1368.3885	1385.1516	1456.0338	1467.7511	1480.1259	1502.8742	1528.237	1799.0526	2999.4907	3019.3796	3046.3024	3050.0303	3066.5759	3111.44	3138.1935	3160.1528	3495.2684
CC(=O)C1NC11COC1	CC(=O)[C@H]1NC21COC2	
InChI=1S/C6H9NO2/c1-4(8)5-6(7-5)2-9-3-6/h5,7H,2-3H2,1H3	InChI=1S/C6H9NO2/c1-4(8)5-6(7-5)2-9-3-6/h5,7H,2-3H2,1H3/t5-/m1/s1
