14
gdb 42611	2.67215	1.92318	1.39355	3.2405	66.12	-0.2532	-0.0477	0.2054	897.7595	0.101599	-436.677443	-436.670928	-436.669984	-436.708533	25.532	
O	 0.0924279808	 0.0425231774	 0.1677554035	-0.300913
C	 0.0051972359	 1.2218468058	 0.0055226337	 0.417161
C	-1.1319030415	 2.2023932028	 0.0346483069	-0.172846
C	-0.11227367	 3.2773101777	 0.399242029	-0.060146
C	 1.0829947265	 2.3722068045	-0.0042613131	-0.298919
C	 1.3514224015	 2.7184259517	-1.4597253732	 0.416319
O	 2.364947426	 2.5671514009	-2.0831577884	-0.305494
C	 0.001372051	 3.240337986	-1.9873932056	-0.286282
N	-0.8771841572	 3.3817567286	-0.8189393358	-0.091107
H	-2.1457790429	 2.0316045416	 0.3755895073	 0.128444
H	-0.1637741047	 4.0102584435	 1.1931143094	 0.131352
H	 1.9554156339	 2.2152110418	 0.6232429701	 0.121468
H	 0.1248489444	 4.2215951221	-2.4555099776	 0.14931
H	-0.4157386336	 2.5565940256	-2.7331335862	 0.151654
115.548	140.2522	362.6408	403.7449	464.5973	506.2173	573.4915	639.2418	675.0485	745.9672	750.174	819.6031	838.6353	878.4645	919.4739	956.5875	966.3676	1020.7976	1034.3113	1081.8988	1120.3317	1127.5145	1194.0433	1213.4541	1236.6102	1245.2894	1290.2857	1320.5952	1461.0206	1848.5455	1893.1618	3059.8948	3107.0826	3175.9873	3196.4776	3213.6388
O=C1C2C3C1C(=O)CN23	O=C1[C@H]2[C@H]3[C@@H]1C(=O)CN23	
InChI=1S/C6H5NO2/c8-2-1-7-4-3(2)6(9)5(4)7/h3-5H,1H2	InChI=1S/C6H5NO2/c8-2-1-7-4-3(2)6(9)5(4)7/h3-5H,1H2/t3-,4+,5+,7?/m0/s1
