19
gdb 91138	2.67223	1.70317	1.47169	1.2467	73.15	-0.2411	0.0597	0.3009	970.0412	0.160578	-422.95809	-422.950519	-422.949575	-422.990636	29.797	
O	 0.3058321269	 1.1678636165	-0.6930142775	-0.440471
C	 0.0678904496	-0.1032836457	-0.1309562079	 0.152075
C	 0.27247428	-0.3229173668	 1.3956519505	-0.302724
C	-1.0740692668	-1.090253935	 1.4534360543	-0.045522
C	-2.3138679631	-0.2508379672	 1.8933146407	 0.111176
O	-2.04911735	 1.1285993227	 2.2348597787	-0.293168
C	-2.4439274548	 1.5743371669	 0.909980048	-0.100927
C	-2.6133697998	 0.1259061916	 0.42005107	-0.08418
C	-1.3735027692	-0.7047861738	-0.0414926358	-0.08058
H	 0.2995457425	 1.8144367679	 0.0181195087	 0.287833
H	 0.6830387586	-0.8076777744	-0.7026493403	 0.08751
H	 1.1638937885	-0.8906590836	 1.6687941352	 0.103223
H	 0.2450210381	 0.6011051318	 1.9808439834	 0.116121
H	-1.0494383463	-2.1235583342	 1.7999974071	 0.065259
H	-3.0217534867	-0.7172110347	 2.5845502725	 0.075248
H	-3.3872592025	 2.1331377244	 0.9556081397	 0.104445
H	-1.689457065	 2.1969253862	 0.423277119	 0.097507
H	-3.5473214163	-0.1159612485	-0.0858592201	 0.079465
H	-1.6117928036	-1.4494478541	-0.8024074361	 0.067708
45.0004	128.0969	251.395	275.7864	324.7849	401.2233	499.387	576.2073	633.1959	680.5425	723.9528	795.3013	832.7668	853.9965	889.1121	907.398	934.6206	974.0989	994.5233	1010.2265	1035.4928	1067.4109	1090.234	1105.9553	1119.0117	1139.1611	1164.6481	1191.3414	1208.2901	1225.3954	1250.1506	1258.2239	1290.0152	1298.6704	1308.8909	1331.0695	1345.2438	1362.9785	1419.5083	1473.2914	1529.6589	3021.5784	3033.5619	3058.8813	3061.969	3088.7609	3095.8711	3104.615	3115.9178	3121.4507	3836.7006
OC1CC2C3OCC3C12	O[C@H]1C[C@H]2[C@H]3OC[C@H]3[C@@H]12	
InChI=1S/C7H10O2/c8-5-1-3-6(5)4-2-9-7(3)4/h3-8H,1-2H2	InChI=1S/C7H10O2/c8-5-1-3-6(5)4-2-9-7(3)4/h3-8H,1-2H2/t3-,4+,5+,6+,7-/m1/s1
