17
gdb 95490	2.26468	1.72659	1.04327	4.7657	72.31	-0.265	-0.0459	0.2191	1127.1089	0.135928	-459.001687	-458.993577	-458.992633	-459.034532	30.363	
C	-0.4247130094	 1.294975514	-0.0226618653	-0.399975
C	 0.035799797	-0.1462408973	-0.0943683222	 0.201816
O	 1.0881881048	-0.2423383213	-1.0113101796	-0.23841
C	 1.1682235924	-1.4730900967	-1.6953332	-0.143685
C	 1.1636740583	-2.6953030021	-0.8347050867	-0.063211
C	 1.0351755248	-2.7910292858	 0.4912279583	-0.18446
C	 0.9069155846	-1.7374851375	 1.5340045402	 0.398817
O	 1.1792002079	-1.9818228987	 2.6817665089	-0.331625
O	 0.4678740436	-0.4907699734	 1.2227544158	-0.23061
H	 0.4237679508	 1.932801597	 0.2361731612	 0.14637
H	-0.8213902579	 1.6053416714	-0.9919659669	 0.124984
H	-1.1987930806	 1.4066620173	 0.7391650086	 0.13604
H	-0.7835446762	-0.8200291621	-0.3848808749	 0.085603
H	 0.3519540081	-1.563353812	-2.4346973262	 0.115479
H	 2.1001323236	-1.4367119428	-2.2729224482	 0.140197
H	 1.2863273908	-3.6200205499	-1.3971778461	 0.115765
H	 1.0950776573	-3.77204902	 0.950794303	 0.126904
89.0657	122.1703	209.5881	221.9864	300.7363	335.8855	372.4387	409.8312	471.853	571.3739	632.0037	657.9048	757.7746	829.4729	856.7693	862.0417	919.2365	993.948	1012.1188	1043.4474	1082.6951	1109.2166	1156.8554	1173.1239	1205.9312	1279.0703	1310.0727	1373.4868	1400.5304	1411.2273	1413.0849	1425.7116	1477.1596	1483.3735	1489.2238	1712.5612	1809.9429	2948.7957	3001.5358	3052.3429	3059.5894	3141.1741	3141.3009	3145.697	3192.222
CC1OCC=CC(=O)O1	C[C@H]1OCC=CC(=O)O1	
InChI=1S/C6H8O3/c1-5-8-4-2-3-6(7)9-5/h2-3,5H,4H2,1H3	InChI=1S/C6H8O3/c1-5-8-4-2-3-6(7)9-5/h2-3,5H,4H2,1H3/t5-/m0/s1
