23
gdb 59658	2.30635	1.28305	1.0304	2.2816	81.91	-0.242	0.0639	0.3059	1303.3847	0.202857	-425.418162	-425.407602	-425.406657	-425.453213	39.483	
C	 0.9467729711	 1.4395831941	 0.2933586456	-0.391459
C	 0.3070478914	 0.0539009649	 0.1254290826	-0.007049
C	-1.2263062463	 0.1387318515	 0.1235969448	-0.39493
C	 0.8004722608	-0.596137227	-1.1584743917	 0.150648
O	 2.2450488242	-0.6710095619	-1.2591216025	-0.304786
C	 2.1680742281	-1.9703121761	-1.876721921	-0.11766
C	 0.688714238	-2.1211663701	-1.432215953	 0.312709
C	 0.5117209491	-3.0268198625	-0.2207023196	-0.459774
O	-0.264838488	-2.3946198929	-2.4364391723	-0.474981
H	 2.0370375001	 1.3677493804	 0.2889314273	 0.135366
H	 0.6486874408	 2.108809816	-0.5224084023	 0.111243
H	 0.6321783651	 1.9004863566	 1.2353371754	 0.105711
H	 0.6270695775	-0.5692494208	 0.9699779212	 0.069731
H	-1.5777538489	 0.7958045584	-0.6801906256	 0.118615
H	-1.6929408599	-0.8397024092	-0.0266928976	 0.120216
H	-1.5925645429	 0.5468324865	 1.0708720284	 0.112099
H	 0.3892586287	-0.054890196	-2.0261521824	 0.073116
H	 2.2705390469	-1.9184260638	-2.9690402594	 0.096169
H	 2.9063902975	-2.6673468524	-1.4636450317	 0.094175
H	 1.2448182615	-2.7959313582	 0.5567211535	 0.136605
H	-0.4916973294	-2.9331582737	 0.2038523436	 0.128998
H	 0.6637614399	-4.0741498153	-0.5123755889	 0.107451
H	-0.3713253152	-3.3491284584	-2.5063862042	 0.277789
75.76	98.399	148.1458	204.4291	216.48	242.9945	259.7687	274.6985	290.008	326.8174	360.472	389.4231	434.6793	489.4731	531.608	666.9996	798.0293	872.8168	905.2622	917.6653	931.8209	954.3782	976.3987	990.9816	1017.2815	1048.5276	1101.8038	1126.6674	1150.2421	1178.9159	1198.6927	1211.4855	1225.9109	1289.036	1319.5001	1332.747	1347.6626	1390.6975	1397.7187	1407.0599	1413.4028	1427.2392	1486.2521	1488.1016	1493.2265	1497.0399	1502.9941	1511.3748	1517.6741	2973.0021	3006.7587	3023.3441	3026.5669	3029.364	3033.9881	3063.9739	3092.3098	3092.7458	3099.7779	3107.1774	3123.8619	3124.4487	3807.99
CC(C)C1OCC1(C)O	CC(C)[C@H]1OC[C@]1(C)O	
InChI=1S/C7H14O2/c1-5(2)6-7(3,8)4-9-6/h5-6,8H,4H2,1-3H3	InChI=1S/C7H14O2/c1-5(2)6-7(3,8)4-9-6/h5-6,8H,4H2,1-3H3/t6-,7+/m1/s1
