16
gdb 16134	3.99022	1.79188	1.46418	3.2924	71.05	-0.2378	-0.0157	0.2222	872.7297	0.131225	-346.616353	-346.609557	-346.608613	-346.647258	26.311	
O	-0.1759057841	 0.0110694412	 0.1621280809	-0.269662
C	-0.020261745	 1.1781516244	-0.1075271232	 0.076558
C	 1.2726323581	 1.8833598608	-0.0759049566	 0.242049
C	 1.2702814835	 3.3826695691	 0.2513351349	-0.319194
C	 1.6461276848	 2.9579529891	-1.1234583585	-0.08621
C	 3.1239118686	 2.7463973069	-1.4557003003	-0.277449
C	 3.5627457021	 1.657274394	-0.4979663613	-0.082185
C	 2.5486342656	 1.1711895612	 0.2192260256	-0.146242
H	-0.8831499048	 1.8227784952	-0.4000714143	 0.059002
H	 0.3009982777	 3.8563726136	 0.3758771452	 0.122248
H	 2.0367908252	 3.7176956004	 0.941746693	 0.128457
H	 0.953842276	 3.1805428957	-1.9273404034	 0.100849
H	 3.2542899154	 2.4334344712	-2.4997683863	 0.11743
H	 3.7056931469	 3.6692401649	-1.3353524149	 0.116699
H	 4.5948648544	 1.3351147359	-0.4221171161	 0.101385
H	 2.5984289358	 0.3689903362	 0.9439889653	 0.116266
108.7317	195.4518	251.7682	296.3212	405.1932	437.1102	519.7497	668.4035	722.6317	746.6114	791.2149	805.1376	874.4417	924.4192	944.8946	957.816	973.212	1029.558	1044.2821	1055.2701	1078.1098	1094.0415	1136.2866	1192.7157	1246.2701	1285.8109	1319.8987	1355.161	1408.9773	1437.0863	1470.2736	1483.2128	1673.534	1807.5295	2846.943	3020.8336	3048.5086	3124.1156	3176.9423	3197.6408	3216.3133	3228.5271
O=CC12CC1CC=C2	O=C[C@]12C[C@H]1CC=C2	
InChI=1S/C7H8O/c8-5-7-3-1-2-6(7)4-7/h1,3,5-6H,2,4H2	InChI=1S/C7H8O/c8-5-7-3-1-2-6(7)4-7/h1,3,5-6H,2,4H2/t6-,7+/m1/s1
