21
gdb 93510	2.76749	1.35516	0.95412	3.3739	81.55	-0.2257	0.0245	0.2502	1261.0871	0.183601	-420.413032	-420.404051	-420.403107	-420.446525	34.231	
C	-0.1641727118	 1.5277643523	-0.0485351859	-0.422882
C	-0.0120909673	 0.0065554695	 0.0162189839	 0.051575
C	 0.7655951031	-0.463330664	-1.2096092697	-0.073716
O	 1.0245335787	-1.8708019783	-1.2350454026	-0.251801
C	 1.3696925953	-2.4835010757	-0.0690875397	 0.372116
N	 2.0353803	-3.5589127969	-0.0442219391	-0.509106
C	 0.8041808955	-1.9016437455	 1.2048190393	-0.220274
N	 0.7240042809	-0.4441141879	 1.1989143443	-0.087505
C	 0.1762971627	 0.0288191861	 2.4621170389	-0.322944
H	 0.8057124897	 2.0172080157	 0.0856087435	 0.130901
H	-0.5684683379	 1.822205629	-1.0220364551	 0.120923
H	-0.8491709353	 1.902638135	 0.7146448142	 0.127596
H	-1.0221290872	-0.4532263515	-0.0119234784	 0.059647
H	 0.2045565044	-0.2539562246	-2.1238673376	 0.114947
H	 1.7233838626	 0.0721139641	-1.2522641432	 0.111354
H	 2.2834342408	-3.8353644986	-0.9969813473	 0.218046
H	-0.1975312288	-2.357968276	 1.3527368821	 0.100198
H	 1.4348147734	-2.2375918156	 2.0294352209	 0.136946
H	 0.7697180172	-0.3827858366	 3.283869927	 0.125627
H	 0.2317435516	 1.1171634527	 2.5256764596	 0.124558
H	-0.8760033775	-0.2771826232	 2.6195071049	 0.093795
79.7089	132.7773	192.9359	217.7055	243.4805	296.583	333.3317	362.1733	407.2305	448.0334	488.7566	519.8941	562.5301	708.0016	764.7004	855.3576	914.2551	921.2207	955.2198	1002.6418	1037.3041	1049.3292	1100.1805	1109.3195	1144.1311	1158.147	1167.4171	1195.0383	1261.1461	1276.7488	1302.4893	1316.2448	1358.6422	1379.7701	1395.4118	1409.7142	1440.7993	1459.8124	1481.9939	1489.2782	1497.2662	1503.5438	1506.2437	1513.7234	1756.3961	2879.726	2887.3588	2926.9504	3020.8723	3043.8903	3077.3935	3099.1604	3112.5493	3114.6557	3122.5383	3131.0775	3458.9386
CC1COC(=N)CN1C	C[C@H]1CO[C]([NH])CN1C	
InChI=1S/C6H12N2O/c1-5-4-9-6(7)3-8(5)2/h5,7H,3-4H2,1-2H3	InChI=1S/C6H12N2O/c1-5-4-9-6(7)3-8(5)2/h5,7H,3-4H2,1-2H3/t5-/m0/s1
