18
gdb 126642	4.94352	0.79464	0.72662	1.3704	76.74	-0.2132	-0.0176	0.1957	1566.5352	0.147639	-431.415863	-431.406488	-431.405544	-431.451333	32.792	
C	 0.0137654118	 1.469664837	-0.0706017706	-0.377369
C	 0.2100648998	-0.0476812709	-0.0366569619	-0.155283
C	 0.6190936718	-0.5642710858	 1.3518079045	-0.154077
N	 0.7135726189	-2.0133078775	 1.4014082329	-0.360078
C	 1.8425774955	-2.5535518864	 1.1923527567	 0.535654
N	 3.1235479972	-2.0747237947	 0.9244294415	-0.315107
N	 4.0395937364	-3.0847072061	 0.8140630903	-0.083249
N	 3.4309338027	-4.181755099	 0.9733160667	-0.063371
N	 2.1178183322	-3.9141556861	 1.1884798815	-0.31231
H	 0.9342298033	 1.9991985908	 0.2014843227	 0.108403
H	-0.2817606696	 1.8107473175	-1.0673280643	 0.115227
H	-0.76540245	 1.783680818	 0.6327844362	 0.117766
H	-0.7134211642	-0.5578738946	-0.3326262577	 0.110916
H	 0.9708572558	-0.3443933562	-0.770631018	 0.087132
H	 1.5528304965	-0.0602277183	 1.6656081244	 0.062382
H	-0.1413186242	-0.2528840921	 2.0787572528	 0.103546
H	 3.4281085122	-1.1223163524	 0.8413699293	 0.289204
H	 1.4652138037	-4.6565030832	 1.3691956131	 0.290613
35.406	88.6356	96.4428	126.4567	223.8533	246.1486	289.1764	323.8679	376.6374	434.6993	561.4119	701.6686	715.4371	718.2482	757.5067	888.667	896.8464	983.5536	1006.8942	1019.5468	1038.1887	1088.4503	1109.3632	1122.8845	1177.8244	1263.8566	1298.6984	1317.8115	1323.0574	1370.458	1388.6628	1390.5262	1412.8348	1489.1038	1499.7571	1503.7195	1519.0883	1526.9193	1789.8935	2917.332	3019.6873	3028.3519	3037.151	3066.115	3095.2747	3104.0776	3700.7272	3715.2379
CCCN=C1NN=NN1	CCCN=c1[nH]nn[nH]1	
InChI=1S/C4H9N5/c1-2-3-5-4-6-8-9-7-4/h2-3H2,1H3,(H2,5,6,7,8,9)	InChI=1S/C4H9N5/c1-2-3-5-4-6-8-9-7-4/h2-3H2,1H3,(H2,5,6,7,8,9)
