16
gdb 70162	2.67562	1.72873	1.19813	4.6514	71.63	-0.2533	-0.0664	0.1869	1024.2197	0.123962	-437.902263	-437.894337	-437.893393	-437.934675	29.957	
C	-0.3200891433	 1.5209315147	 0.0231502441	-0.47809
C	 0.0612046301	 0.0629841631	 0.011022898	 0.184513
C	-0.6760227091	-0.9626852359	 0.8943643403	-0.349758
C	 0.7712513934	-0.6896914529	 1.1051363242	 0.038068
O	 1.6548451741	-1.656572585	 0.5463006494	-0.240423
C	 1.5670675054	-1.6468323455	-0.8184451158	 0.310536
N	 2.1760956384	-2.4185232941	-1.6062862248	-0.496704
C	 0.6209278264	-0.5247688146	-1.2454317024	 0.278045
O	 0.438012211	-0.1531042369	-2.3733925966	-0.29185
H	 0.5305085278	 2.1520893882	-0.2516014784	 0.137347
H	-1.11864352	 1.7065598842	-0.7010101801	 0.148706
H	-0.6723971994	 1.8303801491	 1.0111495281	 0.120007
H	-1.3884810643	-0.5361193056	 1.5920848053	 0.136365
H	-0.9583788441	-1.9240450719	 0.4780745171	 0.14306
H	 1.1706991747	-0.2312911004	 2.0009008856	 0.125667
H	 2.7575623589	-3.0837970865	-1.091432304	 0.234511
95.7667	151.0203	179.6764	261.1822	278.925	330.9541	441.4184	445.4293	516.8062	572.0121	635.0341	688.0643	795.6869	833.0971	862.8123	892.8231	911.4444	971.1397	981.7225	1024.2351	1046.8754	1061.1864	1105.0779	1118.4079	1142.3614	1244.6801	1294.3739	1344.8204	1398.2654	1419.4491	1478.6142	1484.9479	1497.5746	1764.3527	1848.594	3042.1997	3112.2143	3117.6293	3133.0889	3198.6682	3226.0594	3464.5526
CC12CC1OC(=N)C2=O	C[C@]12C[C@H]1O[C]([NH])C2=O	
InChI=1S/C6H7NO2/c1-6-2-3(6)9-5(7)4(6)8/h3,7H,2H2,1H3	InChI=1S/C6H7NO2/c1-6-2-3(6)9-5(7)4(6)8/h3,7H,2H2,1H3/t3-,6+/m1/s1
