19
gdb 56322	4.80473	0.65877	0.60677	0.8633	74.46	-0.2451	0.0247	0.2697	1807.4326	0.158072	-456.407898	-456.397157	-456.396213	-456.446439	35.901	
C	-0.1144737772	 1.3486909275	 0.109962671	-0.480731
C	-0.2521470042	-0.1648093382	 0.153000166	 0.405881
O	 0.507936752	-0.8713802291	 0.7942114668	-0.38201
N	-1.274671073	-0.6866902958	-0.5850906692	-0.305935
C	-1.5091850779	-2.118193786	-0.6479645503	-0.159353
C	-2.2091928474	-2.649218825	 0.6168417121	-0.160126
N	-2.4363875297	-4.0841361611	 0.5579562134	-0.265767
C	-3.4473115883	-4.6234257158	-0.1697494146	 0.151318
O	-4.2477137618	-3.9808876107	-0.8192585292	-0.329904
H	-0.1073842516	 1.7308797231	 1.1336840533	 0.152986
H	 0.8507661825	 1.6001283486	-0.3383366696	 0.154334
H	-0.9065995861	 1.8483270869	-0.4536635567	 0.112037
H	-1.9037986768	-0.0693091294	-1.069085399	 0.251081
H	-2.1295625628	-2.3359283146	-1.5196694258	 0.131574
H	-0.5454206927	-2.6224087636	-0.764318004	 0.127767
H	-1.5902308928	-2.4265514463	 1.487649052	 0.13589
H	-3.1765410126	-2.1519299981	 0.7333738638	 0.128551
H	-1.7964981263	-4.7032493961	 1.0282466286	 0.255215
H	-3.4699689935	-5.7291834265	-0.1003640988	 0.077191
29.2136	45.3855	52.8328	68.1459	88.9664	185.849	251.1946	292.902	340.3082	368.1212	399.6299	484.6705	518.6098	631.2608	654.4031	732.1666	806.205	904.8723	982.0133	996.7353	1028.9474	1045.079	1053.2029	1107.7312	1147.8676	1215.0603	1263.3381	1288.3238	1346.3487	1347.5147	1396.5673	1414.7612	1427.3	1466.9571	1470.5345	1479.3474	1485.2934	1524.8228	1536.7399	1770.8191	1798.4377	2937.417	3049.923	3059.9062	3071.2821	3117.4556	3125.5855	3131.8634	3139.2626	3644.3739	3660.0424
CC(=O)NCCNC=O	CC(=O)NCCNC=O	
InChI=1S/C5H10N2O2/c1-5(9)7-3-2-6-4-8/h4H,2-3H2,1H3,(H,6,8)(H,7,9)	InChI=1S/C5H10N2O2/c1-5(9)7-3-2-6-4-8/h4H,2-3H2,1H3,(H,6,8)(H,7,9)
