18
gdb 79279	2.9456	1.64068	1.47622	2.4249	74.2	-0.2135	-0.0116	0.202	963.2925	0.150524	-401.960256	-401.953224	-401.952279	-401.991479	28.581	
C	-0.0994045123	 1.5557214387	-0.0012330185	-0.415494
C	 0.0260623578	 0.0350789878	 0.0217114504	 0.027296
C	 0.9400665728	-0.5448284138	-1.0687365487	-0.076428
C	 2.3017896659	-0.6414296173	-0.4671225283	-0.01774
N	 2.211424407	-0.0931453248	 0.8913674135	-0.303297
C	 0.8363944507	-0.5531877326	 1.2089908655	-0.173185
C	 0.8607131193	-2.0489079853	 0.7928087566	 0.447722
O	 0.5043776096	-3.0218275774	 1.4016091047	-0.343811
C	 1.452784693	-1.9126591239	-0.5784355524	-0.223953
H	 0.8796921712	 2.0255764129	 0.1158913584	 0.140789
H	-0.5355689203	 1.8931528178	-0.9478300145	 0.111735
H	-0.7490598744	 1.9063797212	 0.8073511859	 0.114863
H	-0.9665988696	-0.4288033817	-0.0106192716	 0.086359
H	 0.7855656334	-0.3580143828	-2.1232833055	 0.09932
H	 3.2204699764	-0.5052307421	-1.0209602853	 0.105733
H	 2.8773995875	-0.5593448214	 1.5053124137	 0.225892
H	 0.5076425091	-0.3317352718	 2.2210868468	 0.087384
H	 1.6727678528	-2.7447659835	-1.230423801	 0.106815
137.683	205.9023	222.9272	268.3372	415.1916	482.3138	529.397	601.2164	684.756	732.6239	772.7849	793.8699	829.9021	840.5893	855.8388	898.3155	916.9172	967.7506	978.6913	1016.0441	1037.4607	1052.9526	1063.3243	1091.9628	1106.3711	1129.3963	1157.2037	1190.1758	1232.1735	1268.7853	1279.1635	1309.5712	1351.1006	1379.7098	1404.5115	1413.6444	1492.0929	1503.9893	1866.6823	3035.0479	3042.9487	3096.4154	3130.7107	3161.6993	3202.7558	3213.7175	3235.3868	3472.2338
CC1C2C3NC1C(=O)C23	C[C@H]1[C@H]2[C@H]3N[C@@H]1C(=O)[C@@H]23	
InChI=1S/C7H9NO/c1-2-3-4-6(3)8-5(2)7(4)9/h2-6,8H,1H3	InChI=1S/C7H9NO/c1-2-3-4-6(3)8-5(2)7(4)9/h2-6,8H,1H3/t2-,3+,4-,5-,6+/m0/s1
