21
gdb 107426	2.70314	1.41377	1.27096	2.672	81.65	-0.219	0.0711	0.2901	1126.1497	0.184514	-383.226061	-383.217929	-383.216985	-383.258582	32.55	
C	 0.1669539571	 1.5530720736	 0.2584478557	-0.37885
C	-0.0337972297	 0.0881254287	-0.1539775544	-0.296063
C	-1.4606875987	-0.3976349172	-0.0315251224	 0.360528
N	-1.9466284492	-1.5100780989	-0.8760994883	-0.357175
C	-2.5109046431	-0.1577760383	-1.0652167927	-0.09459
C	-3.8627479185	 0.07834134	-0.3908102639	-0.218215
C	-3.5933943422	-0.0328274209	 1.1117034182	-0.040758
N	-3.1756441971	-1.372119998	 1.5668773677	-0.31133
C	-2.1509535705	-0.3346539229	 1.3250561621	-0.104502
H	 1.2127016323	 1.8517248576	 0.1372810298	 0.114438
H	-0.4486298217	 2.2205054407	-0.3531899047	 0.118921
H	-0.103452766	 1.7207682066	 1.305601684	 0.119878
H	 0.2874433771	-0.0377912904	-1.1960373614	 0.090869
H	 0.6220985853	-0.5567641037	 0.4463876655	 0.10497
H	-1.2606126373	-1.6815675646	-1.6096806962	 0.218772
H	-2.2881429883	 0.3676543467	-1.9904214291	 0.07759
H	-4.2178804464	 1.0882172858	-0.6255582786	 0.094854
H	-4.6214129061	-0.6354700471	-0.7258208429	 0.118175
H	-4.1588103221	 0.5954413844	 1.7938706325	 0.08079
H	-3.3353022826	-1.4392835173	 2.5702713705	 0.224411
H	-1.5962673622	 0.0598285253	 2.1698686187	 0.077288
86.8049	143.866	206.9787	257.3313	287.9563	336.223	403.9528	457.1321	542.4691	586.3071	693.2643	729.431	783.3611	802.5002	851.5163	863.5893	865.6968	903.3169	916.6722	955.8499	981.0694	993.2587	1016.1967	1061.6138	1082.6468	1092.5233	1126.4821	1133.1221	1154.6293	1186.4931	1209.5297	1243.112	1261.4873	1291.9743	1316.8382	1333.5968	1358.9996	1386.6286	1411.5194	1424.6183	1444.0465	1468.1162	1484.4331	1499.8961	1507.0858	3011.7649	3037.8738	3044.1428	3044.49	3091.6848	3107.0267	3108.4084	3137.1807	3146.0649	3165.1559	3472.3951	3481.8916
CCC12NC1CC1NC21	CC[C@]12N[C@H]1C[C@H]1N[C@@H]21	
InChI=1S/C7H12N2/c1-2-7-5(9-7)3-4-6(7)8-4/h4-6,8-9H,2-3H2,1H3	InChI=1S/C7H12N2/c1-2-7-5(9-7)3-4-6(7)8-4/h4-6,8-9H,2-3H2,1H3/t4-,5+,6-,7+/m1/s1
