21
gdb 115621	2.42872	1.18811	0.97339	1.5757	79.1	-0.2236	0.0658	0.2894	1325.887	0.180738	-424.187198	-424.177596	-424.176652	-424.22197	35.694	
C	-0.041617931	 1.55181965	-0.0185940756	-0.385027
C	-0.1204162306	 0.0579646164	 0.3120275843	-0.193973
C	-1.4869057617	-0.5431903916	 0.0046990257	-0.106535
C	-1.84125598	-0.7686051679	-1.4870091764	-0.091988
O	-1.9353628454	-2.2019276586	-1.2981304157	-0.312843
C	-1.638489796	-2.0602585446	 0.087070494	 0.437535
C	-0.8423427454	-3.0742020812	 0.8560725805	-0.406127
C	-2.3238774318	-2.8549391709	 1.1404628966	 0.012638
O	-2.7165520659	-2.1509403565	 2.2830337263	-0.423131
H	 0.9488067867	 1.9571009095	 0.2093781538	 0.114471
H	-0.2377633126	 1.7363871433	-1.080711245	 0.117228
H	-0.777819554	 2.123235804	 0.5573865411	 0.117952
H	 0.6489511416	-0.4902677309	-0.2466098537	 0.100689
H	 0.1026657047	-0.0940584005	 1.3755217611	 0.10153
H	-2.2659277706	-0.0173026528	 0.5636740107	 0.093149
H	-2.7912144016	-0.3429342603	-1.8285748964	 0.104852
H	-1.0497689483	-0.5092400464	-2.2011781351	 0.099468
H	-0.5607089567	-3.989810559	 0.3460467842	 0.121921
H	-0.1263770934	-2.7057148757	 1.5845347794	 0.115724
H	-3.0073659535	-3.634185624	 0.8019965434	 0.093952
H	-2.5638606845	-2.7148701725	 3.0488618267	 0.288517
56.4006	93.8408	147.8171	161.266	222.0256	232.432	284.9596	326.4214	396.8048	437.069	447.2443	526.2643	596.3736	766.0563	806.7657	833.9403	870.2596	900.191	948.8031	962.532	976.2711	990.8355	1014.9205	1022.4826	1072.8577	1093.7631	1131.0936	1152.4556	1161.949	1193.3781	1208.8234	1240.7723	1287.4714	1291.9451	1328.651	1338.4258	1363.0495	1402.9808	1411.7149	1416.2754	1484.6528	1492.5834	1500.7258	1507.0851	1527.0628	3016.9851	3021.7459	3030.4981	3051.487	3062.2093	3078.9495	3097.3661	3101.0022	3104.8675	3124.2392	3217.7842	3797.8869
CCC1COC11CC1O	CC[C@H]1CO[C@]21C[C@H]2O	
InChI=1S/C7H12O2/c1-2-5-4-9-7(5)3-6(7)8/h5-6,8H,2-4H2,1H3	InChI=1S/C7H12O2/c1-2-5-4-9-7(5)3-6(7)8/h5-6,8H,2-4H2,1H3/t5-,6+,7-/m0/s1
