23
gdb 59516	3.61374	1.01128	0.88374	1.7006	86.21	-0.2426	0.0806	0.3231	1434.301	0.20365	-388.271492	-388.261609	-388.260665	-388.305937	37.567	
C	 0.0679921252	 1.4984282556	-0.0745951441	-0.392903
C	 0.052114444	-0.0288901169	 0.071798711	 0.031875
C	 0.7624522828	-0.4647660322	 1.3609586168	-0.39444
C	-1.3763775854	-0.5736707045	 0.021581554	 0.018276
C	-2.1942583544	-0.4523160667	-1.3197484352	-0.329903
C	-2.3440041377	-1.9845563313	-1.3207566165	 0.423758
C	-3.438472036	-2.8138691514	-1.9081349588	-0.499819
O	-1.0068196646	-2.5143937041	-1.3389658324	-0.288369
C	-1.5593960638	-2.1000838262	-0.0789702408	-0.068584
H	 1.0938223175	 1.8816435138	-0.0813302308	 0.109848
H	-0.4147012181	 1.821357563	-1.0024987523	 0.113231
H	-0.4588934952	 1.9785341448	 0.7592927201	 0.10731
H	 0.5900621124	-0.4650466107	-0.7794173526	 0.087263
H	 0.2517809616	-0.0663723895	 2.2464713385	 0.106628
H	 0.7942465457	-1.5549778055	 1.4543480336	 0.116263
H	 1.7944612792	-0.0996358878	 1.3835960672	 0.110361
H	-1.9622952401	-0.1735442999	 0.8582147811	 0.06706
H	-3.1393063462	 0.0822425125	-1.1955146555	 0.100706
H	-1.6590348025	-0.0492325815	-2.1838729375	 0.104091
H	-3.4121341033	-2.7738681632	-3.0032479157	 0.129651
H	-3.3320520385	-3.8586156311	-1.6039191324	 0.132779
H	-4.4190250408	-2.4503383663	-1.583720168	 0.122264
H	-1.5882491317	-2.8439329309	 0.7105504102	 0.092654
76.1903	107.8116	143.6442	199.2648	227.5241	246.6781	277.5843	294.5376	345.9468	388.7125	419.9982	446.5312	561.083	662.2411	723.5169	787.2719	863.6717	886.1346	907.6554	926.6701	938.1496	949.2512	974.5035	1005.3478	1008.4699	1043.4425	1065.325	1139.0463	1149.0258	1184.2531	1201.6247	1214.0446	1229.1077	1262.7314	1276.746	1301.4291	1359.3031	1387.3225	1398.0953	1404.3749	1419.3359	1455.4224	1476.5241	1486.0888	1486.9972	1493.2036	1497.5907	1505.0977	1510.2927	3021.1564	3023.4321	3025.7161	3032.1318	3039.9435	3058.5596	3085.2577	3092.4719	3093.4133	3099.1625	3101.4532	3115.0625	3119.2994	3170.2975
CC(C)C1CC2(C)OC12	CC(C)[C@H]1C[C@@]2(C)O[C@@H]12	
InChI=1S/C8H14O/c1-5(2)6-4-8(3)7(6)9-8/h5-7H,4H2,1-3H3	InChI=1S/C8H14O/c1-5(2)6-4-8(3)7(6)9-8/h5-7H,4H2,1-3H3/t6-,7+,8-/m1/s1
