16
gdb 29990	3.26322	1.58212	1.1141	3.273	78.81	-0.1829	-0.0151	0.1677	1040.5257	0.127073	-400.777203	-400.77002	-400.769076	-400.808612	28.7	
O	 0.2010435428	 1.4170489132	-0.2058170953	-0.420953
C	 0.0331224787	 0.0152497634	-0.0403660384	-0.058775
C	 0.6194176066	-0.5446732386	 1.2655898429	-0.129992
C	-0.2815996659	-1.2991924862	 1.9233869221	-0.204178
C	-1.5173091641	-1.2770689275	 1.1488297315	 0.294079
C	-1.3875680128	-0.5007425212	 0.0166875828	 0.246329
C	-2.6241812425	-0.5304730213	-0.6708855045	-0.340117
C	-3.4703980235	-1.3284601217	 0.0794543319	-0.076058
N	-2.7829264193	-1.7836671867	 1.1902493969	-0.381318
H	-0.3294772532	 1.8427021044	 0.4768271818	 0.281499
H	 0.5748286504	-0.4301332163	-0.8863668992	 0.108925
H	 1.6354127442	-0.3338783968	 1.5720338856	 0.10232
H	-0.1246445914	-1.824267505	 2.8574829499	 0.099914
H	-2.8888776618	-0.0341377901	-1.5921503094	 0.10001
H	-4.5009307424	-1.6038424287	-0.0778895719	 0.117628
H	-3.1645669158	-2.3918600711	 1.8936100734	 0.260689
135.0513	159.7257	279.0104	331.82	357.3651	475.9418	489.2813	555.458	617.3567	649.2578	674.6617	706.0561	712.1725	767.523	824.65	848.0374	926.8049	931.0202	966.9453	1033.7319	1066.8968	1083.2775	1120.8297	1172.485	1210.9584	1244.137	1269.7668	1315.5485	1372.838	1413.6236	1439.5937	1469.6365	1526.7071	1568.6933	1612.9428	3021.5806	3202.6999	3231.783	3244.5062	3268.1422	3677.1573	3802.8872
OC1C=CC2=C1C=CN2	O[C@H]1C=Cc2c1cc[nH]2	
InChI=1S/C7H7NO/c9-7-2-1-6-5(7)3-4-8-6/h1-4,7-9H	InChI=1S/C7H7NO/c9-7-2-1-6-5(7)3-4-8-6/h1-4,7-9H/t7-/m0/s1
