19
gdb 61766	3.61814	0.79607	0.74513	2.6153	78.56	-0.2526	-0.0251	0.2275	1548.1878	0.154562	-422.997715	-422.987008	-422.986063	-423.034226	37.78	
C	 0.1259003647	 1.6217319241	 0.0899727792	-0.413892
C	 0.003375676	 0.0844773966	 0.0639160058	-0.17097
C	 0.7530847992	-0.510432958	 1.1684748858	 0.324978
C	 1.3691141666	-0.9968722155	 2.0785149756	-0.45243
C	-1.4734916858	-0.409455183	 0.0885571974	 0.119744
O	-2.1944104581	 0.0860757146	 1.2041742967	-0.424943
C	-2.2223802654	-0.1196533929	-1.2213230954	-0.325268
C	-3.6397879882	-0.653189491	-1.1596339226	 0.168847
O	-4.622048713	-0.0114566932	-1.4236889349	-0.238409
H	 1.1770300973	 1.9163032164	 0.0564378346	 0.13753
H	-0.3804045429	 2.0790444491	-0.7653013612	 0.119701
H	-0.2991690094	 2.0249038312	 1.0134360391	 0.132102
H	 0.4401940333	-0.2795580156	-0.8766502613	 0.1057
H	 1.9113645895	-1.4302151459	 2.8820767949	 0.196828
H	-1.4476448414	-1.4946856301	 0.2393052494	 0.106969
H	-2.3890791889	 1.0177525517	 1.0543555236	 0.289609
H	-2.2691120777	 0.9508929348	-1.4457457232	 0.119887
H	-1.7068105969	-0.6180540494	-2.0544255024	 0.124783
H	-3.714094459	-1.7206753542	-0.8490622313	 0.079234
54.4592	64.5844	77.1712	132.6792	183.9423	207.3956	239.3886	281.0334	312.3878	322.9577	387.9194	452.9644	522.552	576.6028	625.4987	642.2703	660.3068	779.5856	808.66	903.2308	957.7774	1004.6278	1022.7467	1051.7656	1095.5632	1119.7476	1138.6698	1189.3743	1263.9473	1283.6066	1326.3797	1341.1026	1374.6398	1401.7223	1424.4723	1431.315	1458.615	1492.9167	1505.9881	1839.3523	2237.5315	2871.667	3008.748	3021.0387	3045.5011	3049.7249	3090.0286	3119.5281	3128.4063	3505.2578	3807.4764
CC(C#C)C(O)CC=O	C[C@@H](C#C)[C@@H](O)CC=O	
InChI=1S/C7H10O2/c1-3-6(2)7(9)4-5-8/h1,5-7,9H,4H2,2H3	InChI=1S/C7H10O2/c1-3-6(2)7(9)4-5-8/h1,5-7,9H,4H2,2H3/t6-,7-/m0/s1
