20
gdb 86041	2.97917	0.99486	0.86904	4.101	77.7	-0.2581	0.0217	0.2798	1391.2167	0.168901	-440.270768	-440.261187	-440.260242	-440.305275	35.871	
C	-0.5183736502	 1.87078336	 0.0961241559	-0.447601
C	-0.0221117643	 0.4353044936	 0.0407610319	 0.393487
C	 1.1819605465	 0.0732248325	-0.8841216595	-0.318685
C	 1.7021596057	-0.8645047813	 0.2399436878	 0.167194
O	 3.0790585168	-0.9714662314	 0.4801571683	-0.427631
C	 0.7913477892	-0.1064102932	 1.243416887	-0.301281
O	-1.125755816	-0.479268073	-0.128630791	-0.236733
C	-1.7674914872	-0.483507882	-1.3119559733	 0.113482
N	-2.7860147735	-1.2139894271	-1.4718976562	-0.444539
H	 0.3090925546	 2.5530306099	 0.3107315961	 0.116672
H	-0.970574483	 2.1810293987	-0.8515640188	 0.120287
H	-1.2711614696	 1.9786585172	 0.8831914502	 0.137616
H	 0.9732592359	-0.3559057295	-1.8662394227	 0.1095
H	 1.8421187678	 0.9383045512	-1.0106175105	 0.095909
H	 1.3468017357	-1.886122209	 0.089542465	 0.114052
H	 3.4283184778	-0.0881137226	 0.6397519253	 0.276191
H	 1.3370059919	 0.7008630584	 1.7434675712	 0.091681
H	 0.2331512576	-0.6834023629	 1.98215689	 0.124109
H	-1.3196662878	 0.1728307368	-2.068588636	 0.089744
H	-3.1389040479	-1.1095987365	-2.4211082306	 0.226546
60.5163	106.9678	161.8454	188.8776	219.7491	292.5427	303.6879	327.7617	357.9157	382.4284	466.252	499.9208	538.5529	628.5201	758.2657	806.5628	822.5294	891.7937	920.1223	943.2261	973.5648	992.1296	1047.5633	1063.0827	1083.3031	1107.0809	1112.0452	1187.8889	1211.6423	1222.4717	1249.244	1282.4714	1291.0804	1308.7311	1338.74	1409.1976	1422.6654	1435.9768	1456.8987	1484.1921	1486.6384	1492.9379	1739.0314	3034.4841	3038.8301	3048.8253	3056.1864	3093.9079	3106.7402	3115.1999	3118.5622	3131.7621	3513.7857	3803.9545
CC1(CC(O)C1)OC=N	C[C@]1(C[C@@H](O)C1)O[CH][NH]	
InChI=1S/C6H11NO2/c1-6(9-4-7)2-5(8)3-6/h4-5,7-8H,2-3H2,1H3	InChI=1S/C6H11NO2/c1-6(9-4-7)2-5(8)3-6/h4-5,7-8H,2-3H2,1H3/t5-,6-
