20
gdb 57962	2.76255	0.98717	0.85384	3.4071	75.95	-0.2564	-0.0323	0.2241	1421.7988	0.169226	-440.271928	-440.262013	-440.261069	-440.308658	35.587	
C	 0.1344378409	 0.6552450654	-0.8545343644	-0.403361
C	-0.4225332311	-0.4380047624	 0.0734627075	 0.050049
O	 0.4238435052	-0.6038596506	 1.1796119335	-0.437538
C	-1.8393955108	-0.1093906247	 0.5568853594	 0.362477
O	-2.0297599855	 0.0451786626	 1.7455566397	-0.326231
C	-2.9826731114	-0.0204267329	-0.4445733455	-0.326261
C	-3.3556878196	-1.3841180227	-1.0037977849	 0.023094
C	-4.0389723697	-1.4973074733	-2.3146899839	-0.246594
N	-2.6481717947	-1.9634300159	-2.1574814592	-0.308425
H	 1.173375459	 0.4135913986	-1.0903464347	 0.14255
H	-0.4220015639	 0.727041912	-1.7943233475	 0.104972
H	 0.1157992595	 1.6295352621	-0.3565709875	 0.12932
H	-0.484554422	-1.381636198	-0.4937460681	 0.110183
H	-0.1291313398	-0.4102175685	 1.9540952775	 0.291311
H	-3.8364896334	 0.412656327	 0.0854536876	 0.134752
H	-2.7150692881	 0.6490914183	-1.270469027	 0.113189
H	-3.5969140425	-2.1226617333	-0.2417369295	 0.112254
H	-4.7703463723	-2.2821473151	-2.4831176072	 0.127732
H	-4.2212099534	-0.5813491031	-2.8714833494	 0.115369
H	-2.0137500366	-1.2774091556	-2.5604555564	 0.231157
15.5149	67.6529	85.2547	143.4173	214.8596	246.9012	300.435	334.3043	372.2075	423.2787	454.6301	474.5354	596.0965	710.3894	751.5744	811.439	826.5593	914.3632	927.7227	938.3279	979.4162	1018.3593	1046.4051	1078.2847	1109.6231	1126.0391	1161.0826	1175.0517	1216.1965	1242.7215	1263.4489	1289.0406	1305.4754	1313.1823	1360.1296	1397.5536	1414.054	1436.5437	1461.2051	1487.8238	1498.2394	1512.8343	1787.7317	2975.0344	3035.5283	3041.7557	3095.3203	3109.5945	3111.9241	3129.1829	3130.8842	3196.1593	3492.0006	3674.2613
CC(O)C(=O)CC1CN1	C[C@@H](O)C(=O)C[C@H]1CN1	
InChI=1S/C6H11NO2/c1-4(8)6(9)2-5-3-7-5/h4-5,7-8H,2-3H2,1H3	InChI=1S/C6H11NO2/c1-4(8)6(9)2-5-3-7-5/h4-5,7-8H,2-3H2,1H3/t4-,5+/m1/s1
