21
gdb 87451	2.82853	1.32767	1.20761	1.9241	83.67	-0.226	0.0851	0.311	1169.256	0.180638	-387.012148	-387.003248	-387.002304	-387.045235	34.725	
C	-0.0251682221	 1.5798352101	-0.0579310144	-0.405957
C	-0.0038083021	 0.0663084798	-0.0163556349	-0.104533
C	 1.3116087338	-0.689522687	-0.2195806316	-0.392103
C	 0.6434090828	-0.6699090519	 1.1066523784	 0.4308
C	 1.1302628669	-0.3048991986	 2.5133695454	-0.050463
C	-0.2547625826	-0.7041637602	 3.0743307211	-0.257147
C	 0.211977876	-1.7960010874	 2.06773373	 0.304694
C	-0.3524217408	-3.1499024063	 1.7774069414	-0.517348
O	 1.5697712924	-1.7099585171	 2.6884557823	-0.344857
H	 0.882221754	 1.997022946	 0.3912035298	 0.114872
H	-0.0842560448	 1.9472065151	-1.0883346725	 0.118986
H	-0.8829847675	 1.9856134146	 0.4902128181	 0.116796
H	-0.8797483254	-0.4090545633	-0.45453677	 0.081965
H	 1.2933212616	-1.6061674721	-0.8012301033	 0.110595
H	 2.2137148437	-0.098965169	-0.351333496	 0.11269
H	 1.813404946	 0.4789235336	 2.8392134467	 0.091615
H	-0.2524268692	-1.016397115	 4.1200678799	 0.099242
H	-1.1192765523	-0.0921729193	 2.8040653292	 0.09351
H	-1.3492733287	-3.0586933861	 1.3341676913	 0.126216
H	 0.2918077597	-3.6919213689	 1.0782020954	 0.134752
H	-0.4356127414	-3.736201827	 2.6972874236	 0.135675
123.2503	140.3085	170.5304	195.152	225.6834	261.3906	316.8536	402.5982	429.1545	484.9904	591.8826	645.7891	673.8237	707.5651	791.3971	824.9834	865.5774	885.6774	907.3493	945.129	980.8484	993.6401	1026.4845	1029.1051	1062.0916	1095.902	1112.8739	1130.8918	1145.5246	1157.7212	1179.0599	1202.7288	1220.4136	1228.4407	1319.7569	1353.3038	1408.5609	1413.4914	1440.4652	1475.9996	1480.7959	1489.8021	1492.1987	1499.8826	1525.8874	3025.9352	3038.586	3058.5493	3087.5006	3093.8292	3111.7688	3115.2565	3117.8526	3121.3624	3123.8805	3141.1106	3200.3358
CC1CC11C2CC1(C)O2	C[C@H]1C[C@]21[C@H]1C[C@]2(C)O1	
InChI=1S/C8H12O/c1-5-3-8(5)6-4-7(8,2)9-6/h5-6H,3-4H2,1-2H3	InChI=1S/C8H12O/c1-5-3-8(5)6-4-7(8,2)9-6/h5-6H,3-4H2,1-2H3/t5-,6+,7-,8-/m0/s1
