20
gdb 112881	2.28549	1.36844	0.91836	1.9578	77.26	-0.2661	0.0245	0.2906	1320.0676	0.170208	-440.319731	-440.310402	-440.309458	-440.354213	34.202	
C	 0.0054052711	 1.5737583663	 0.0788420601	-0.39026
C	-0.0361867597	 0.0450760498	 0.0365396776	-0.18624
C	 0.7237073854	-0.5340955558	-1.1469371625	 0.031613
O	 2.1222131707	-0.2625890841	-1.0370960389	-0.268838
C	 2.7880908851	-1.3134984881	-1.6837598342	 0.217487
C	 4.1489626849	-1.5482876051	-1.0745662247	-0.404849
O	 1.9512035081	-2.4743558818	-1.5138647571	-0.248829
C	 0.6864314678	-2.0491136452	-1.2429423846	 0.382984
N	-0.3337877696	-2.7737395992	-1.0922324646	-0.541674
H	 1.0360076006	 1.9348951397	 0.1396272738	 0.132304
H	-0.4502623866	 2.0076096197	-0.8182551295	 0.114623
H	-0.5400847309	 1.954260799	 0.9472110566	 0.116042
H	 0.3890481795	-0.3761492131	 0.9542187767	 0.106734
H	-1.0655970669	-0.3208827718	-0.0331884175	 0.129926
H	 0.333455674	-0.1104161399	-2.0886925356	 0.096314
H	 2.856649958	-1.1216526566	-2.7684286184	 0.080531
H	 4.0441021587	-1.7641894794	-0.0087867761	 0.136599
H	 4.6423626099	-2.388792833	-1.5685342974	 0.133901
H	 4.7649487694	-0.6541626834	-1.2003249432	 0.135742
H	-0.1056504692	-3.760793458	-1.2186330705	 0.225891
77.9236	101.9826	114.995	165.7316	217.3108	231.5079	291.7608	330.6843	410.2938	487.5822	517.2935	585.2535	680.9493	710.1528	771.0598	853.0605	889.4113	897.4075	913.4643	957.9225	992.526	1064.8944	1074.5611	1099.6095	1139.9281	1145.6384	1173.1774	1176.1168	1278.4266	1285.8025	1318.032	1345.1555	1385.7659	1395.7816	1405.545	1412.3334	1438.8886	1475.7086	1484.1475	1487.1926	1497.3492	1508.2328	1792.159	2955.5123	2959.9657	3036.687	3048.8802	3055.8371	3088.509	3106.994	3119.7553	3136.1275	3142.274	3479.544
CCC1OC(C)OC1=N	CC[C@H]1O[C@@H](C)O[C]1[NH]	
InChI=1S/C6H11NO2/c1-3-5-6(7)9-4(2)8-5/h4-5,7H,3H2,1-2H3	InChI=1S/C6H11NO2/c1-3-5-6(7)9-4(2)8-5/h4-5,7H,3H2,1-2H3/t4-,5-/m1/s1
