15
gdb 20803	3.26035	1.80732	1.25815	4.9052	64.73	-0.2226	-0.0141	0.2085	954.2263	0.118187	-395.970131	-395.962097	-395.961153	-396.003282	28.891	
C	 0.0634074657	 1.6145274141	-0.1459536024	-0.366961
C	-0.0237779593	 0.0908057743	 0.0442997384	-0.304292
C	-1.4242560734	-0.4282022607	 0.1103593321	 0.187554
C	-2.1690951363	-0.89844098	 1.1716765732	 0.363157
N	-1.853418703	-1.1073954556	 2.4869111142	-0.58811
O	-3.3742610869	-1.2460587679	 0.7601123703	-0.227024
N	-3.3826491544	-0.9649618975	-0.7055238319	-0.046256
N	-2.2528000327	-0.5100161765	-0.9765941334	-0.149378
H	 1.1057831601	 1.9413755926	-0.2123911851	 0.113918
H	-0.4484940415	 1.9140517236	-1.0647798704	 0.140079
H	-0.409291837	 2.1456515589	 0.686627678	 0.111113
H	 0.5026848709	-0.4072699467	-0.7780147056	 0.128433
H	 0.5067619251	-0.2028279596	 0.9586917772	 0.095671
H	-1.1056061089	-0.538871491	 2.852685391	 0.268837
H	-2.6431752285	-1.1875545878	 3.1097118744	 0.273258
28.8577	148.7586	194.4609	267.3436	271.733	312.118	377.1389	426.2197	515.0488	575.1311	638.8544	675.7804	737.3133	771.2558	784.427	968.8457	989.2481	1055.1545	1081.9532	1087.4528	1230.208	1288.9555	1322.9952	1367.3547	1408.4395	1470.382	1481.6798	1483.0637	1496.7576	1508.4176	1619.7815	1665.5288	3028.4075	3037.0496	3062.7422	3107.0581	3119.2099	3583.5403	3689.304
CCC1=C(N)ON=N1	CCc1c(N)onn1	
InChI=1S/C4H7N3O/c1-2-3-4(5)8-7-6-3/h2,5H2,1H3	InChI=1S/C4H7N3O/c1-2-3-4(5)8-7-6-3/h2,5H2,1H3
