16
gdb 44349	3.7714	1.5483	1.28416	3.6824	76.03	-0.2287	-0.0588	0.1699	960.7647	0.12517	-400.661679	-400.65492	-400.653975	-400.692816	27.356	
O	 0.0112980649	-0.0785308453	-0.4525601757	-0.299564
C	 0.0173335849	 1.0826992674	-0.1426870804	 0.359441
C	-1.2807817289	 1.8646447411	 0.2505182098	-0.335431
C	-1.2722027344	 3.3057390565	-0.2793943036	-0.018436
C	-0.467873214	 4.5763154037	 0.1163155734	-0.019828
N	 0.8296378491	 4.3393726877	 0.8753523414	-0.370607
C	 1.0089514145	 3.2589070465	-0.1110348425	 0.190077
C	 1.1865604669	 1.9715439804	 0.1940213863	-0.242757
C	-0.0618239519	 3.7453621738	-1.0601890278	-0.198274
H	-2.1458261616	 1.3245519035	-0.1458261912	 0.124456
H	-1.3458774697	 1.8212223677	 1.3442768396	 0.138488
H	-2.2207452094	 3.6042785841	-0.7236658076	 0.102855
H	-0.9563821966	 5.5433537954	 0.1711881968	 0.106166
H	 1.4103858631	 5.1495706987	 0.6445577703	 0.229966
H	 1.7572594036	 1.6747357693	 1.0714319093	 0.127322
H	 0.0038391497	 3.9344009397	-2.1240122083	 0.106125
94.5829	181.8368	344.5778	410.838	427.2382	489.3831	532.0959	588.5173	682.0339	703.6875	771.8118	793.8692	807.9872	833.5075	883.4808	932.1009	937.1787	947.3069	970.6013	1031.414	1054.5205	1065.2979	1072.0615	1094.6634	1147.6588	1204.8238	1228.0464	1241.3364	1290.1391	1299.6305	1333.8959	1399.1917	1467.364	1677.2135	1825.9475	3039.0033	3090.732	3121.3447	3155.7096	3171.2179	3190.2631	3409.1274
O=C1CC2C3NC(=C1)C23	O=C1C[C@H]2[C@H]3N[C]([CH]1)[C@@H]23	
InChI=1S/C7H7NO/c9-3-1-4-6-5(2-3)8-7(4)6/h2,4,6-8H,1H2	InChI=1S/C7H7NO/c9-3-1-4-6-5(2-3)8-7(4)6/h2,4,6-8H,1H2/t4-,6-,7-/m1/s1
