20
gdb 76142	2.21901	1.25703	1.11694	2.8202	77.47	-0.2422	0.025	0.2672	1228.609	0.16879	-440.314201	-440.303961	-440.303017	-440.348757	38.395	
C	 1.3814741289	 1.4345874967	-0.2017889628	-0.427067
C	 0.8479994536	 0.0240946445	-0.0856919711	-0.055707
C	 1.7591675724	-1.2031872316	 0.1102150016	-0.225231
C	 3.2373478674	-1.0789641424	 0.260217938	 0.416854
N	 3.9461267481	-2.110328668	-0.3022120344	-0.533254
O	 3.8090418613	-0.1729902806	 0.8495871382	-0.383968
C	 0.7654256853	-0.7353560738	 1.1907403774	 0.388304
C	 1.2330925851	-0.1834877889	 2.5154898456	-0.469535
O	-0.4000718174	-1.5166657086	 1.2772232073	-0.45885
H	 2.2797294913	 1.5810379998	 0.3977020312	 0.159547
H	 1.6378377481	 1.6579435485	-1.2428867264	 0.114309
H	 0.6187327638	 2.1547026675	 0.1139360545	 0.114764
H	 0.0174651181	-0.1965049588	-0.7513059712	 0.100645
H	 1.4203199117	-2.092217984	-0.4123698158	 0.077266
H	 3.5192105946	-2.7538220334	-0.9454502272	 0.256232
H	 4.9486570726	-2.0133319025	-0.3257116848	 0.25725
H	 2.1689288952	 0.3642806716	 2.4145251069	 0.167094
H	 0.4618015638	 0.4678986978	 2.9388341241	 0.120255
H	 1.4070473348	-1.003496959	 3.224068121	 0.102925
H	-0.2376231887	-2.2140101245	 1.9228425078	 0.278166
68.0304	155.2582	170.1556	199.5657	224.7433	245.4008	264.1033	265.8468	335.6686	344.0432	391.401	437.6247	459.0266	499.1765	573.9952	643.1446	682.5693	769.3725	803.1441	847.8908	945.1825	981.128	997.8826	1029.4907	1071.3582	1087.8384	1108.8289	1134.8516	1149.365	1230.2821	1260.7525	1286.4203	1357.1806	1403.9831	1414.8943	1421.544	1456.3273	1486.4633	1496.9825	1516.5433	1520.703	1615.2815	1761.0244	3025.5091	3037.5214	3087.1874	3091.7382	3137.4555	3152.8718	3158.6988	3166.7952	3596.648	3731.4746	3789.9308
CC1C(C(N)=O)C1(C)O	C[C@H]1[C@@H](C(=O)N)[C@]1(C)O	
InChI=1S/C6H11NO2/c1-3-4(5(7)8)6(3,2)9/h3-4,9H,1-2H3,(H2,7,8)	InChI=1S/C6H11NO2/c1-3-4(5(7)8)6(3,2)9/h3-4,9H,1-2H3,(H2,7,8)/t3-,4-,6+/m0/s1
