18
gdb 67072	2.70953	1.55249	1.32089	1.2915	82.99	-0.2322	0.0297	0.2619	1041.5788	0.146928	-364.721579	-364.713484	-364.71254	-364.753834	31.865	
C	-0.134040504	 1.5322636879	-0.0810949136	-0.530439
C	 0.059184561	 0.0587762164	-0.0047750847	 0.304639
C	 0.6797079171	-0.9759769867	-0.8638980092	-0.096404
C	 1.3963172292	-1.6407527876	 0.3045621262	-0.286378
C	 0.3231016305	-0.9596267608	 1.209784533	 0.158593
C	-0.9731926347	-1.6404443909	 0.7113619133	-0.190034
N	-0.813027013	-0.9784822421	-0.6174923386	-0.18967
C	 0.5737922287	-0.6540228215	 2.5849556467	 0.046779
C	 0.7706538827	-0.3796646961	 3.7404848244	-0.337349
H	 0.7739495947	 2.0658441744	 0.2188865462	 0.1298
H	-0.3829957387	 1.8209504224	-1.1070159638	 0.138032
H	-0.9496491662	 1.8604835013	 0.5723530103	 0.132029
H	 0.9879060012	-0.9101928056	-1.8990378509	 0.102074
H	 1.4562204538	-2.7330125136	 0.3503915925	 0.101708
H	 2.3855437753	-1.2042815792	 0.4589432894	 0.117317
H	-0.9959064178	-2.7361202306	 0.6991568414	 0.099942
H	-1.8725273002	-1.2511959138	 1.1932003446	 0.117903
H	 0.9477823604	-0.1435410541	 4.7603599427	 0.181459
115.6255	146.7264	187.9475	224.5169	279.4537	407.1001	473.4725	502.723	514.8492	539.0956	615.0973	640.5731	659.4717	706.7576	740.9321	839.4778	888.4164	923.5368	937.9786	968.8934	985.9135	1060.3293	1081.1356	1090.2715	1110.8204	1146.2551	1153.053	1169.1991	1237.1793	1244.9697	1270.018	1323.3508	1397.8363	1447.751	1477.1387	1489.3896	1491.7207	1514.6701	2229.2049	3031.2178	3037.3028	3049.2105	3095.6376	3109.7847	3113.4222	3117.2777	3204.9818	3502.2339
CC12C3CC1(CN23)C#C	C[C@@]12[C@H]3C[C@@]1(CN23)C#C	
InChI=1S/C8H9N/c1-3-8-4-6-7(8,2)9(6)5-8/h1,6H,4-5H2,2H3	InChI=1S/C8H9N/c1-3-8-4-6-7(8,2)9(6)5-8/h1,6H,4-5H2,2H3/t6-,7-,8-,9?/m1/s1
