12
gdb 12661	3.52292	2.02553	1.33404	3.2948	51.11	-0.2669	-0.0974	0.1696	832.4332	0.083332	-455.649017	-455.642033	-455.641089	-455.680537	24.819	
O	 0.17315055	 1.2911688046	 0.4617137737	-0.429765
C	 0.0185675867	-0.0345672668	 0.0557094231	 0.036901
C	-1.4435145457	-0.4618698717	-0.1576135351	-0.11989
O	-1.3992782182	-1.5144080941	-1.1542047076	-0.21963
C	-0.2791045548	-1.4444872228	-1.9158579463	 0.377813
O	-0.0584964169	-2.1392120661	-2.859274971	-0.30458
C	 0.5998117895	-0.3330914076	-1.3105195098	 0.224391
O	 1.5094956724	 0.243878848	-1.8385730347	-0.282316
H	 0.93352401	 1.6446738114	-0.0220494053	 0.303644
H	 0.4888270258	-0.7404874096	 0.7650391693	 0.122715
H	-1.9261487131	-0.8744921775	 0.7278495181	 0.144839
H	-2.0285273756	 0.3806299422	-0.5385221345	 0.145879
82.9158	176.4359	221.9685	313.7525	335.8026	347.8808	473.9445	563.8882	624.4111	635.8938	747.1342	820.2624	977.7962	1027.225	1034.3216	1057.3576	1144.6694	1189.8637	1224.9702	1259.3079	1340.5034	1396.8377	1403.5953	1521.3553	1868.7938	1891.2311	2942.3603	3069.4432	3144.3895	3740.1179
OC1COC(=O)C1=O	O[C@H]1COC(=O)C1=O	
InChI=1S/C4H4O4/c5-2-1-8-4(7)3(2)6/h2,5H,1H2	InChI=1S/C4H4O4/c5-2-1-8-4(7)3(2)6/h2,5H,1H2/t2-/m0/s1
