16
gdb 26861	2.96487	1.48535	0.99855	2.9677	81.11	-0.1974	-0.0653	0.1321	1141.1223	0.124616	-434.089769	-434.08131	-434.080365	-434.122859	31.426	
C	 0.0938863228	 1.5257766055	 0.0086053299	-0.491344
C	-0.0563613565	 0.0511961063	 0.153443566	 0.346604
C	-1.2176199812	-0.6469716065	 0.1215760817	 0.189903
N	-2.4771230425	-0.0427873838	-0.0650904216	-0.585325
N	-1.2320106904	-2.0115869088	 0.3497154859	-0.258357
C	-0.1100425697	-2.6108329563	 0.5428044266	-0.083496
C	 1.1955704839	-1.9514565361	 0.5133145257	 0.347754
N	 2.3522248102	-2.4665841249	 0.6399413912	-0.515153
O	 1.1349223256	-0.5929847815	 0.3262226173	-0.236004
H	 0.8633938946	 1.8920801662	 0.6946898443	 0.151377
H	 0.4019421636	 1.8086296111	-1.0062443316	 0.141869
H	-0.8536235811	 2.0206187711	 0.2337965828	 0.147619
H	-2.5406189059	 0.5116964812	-0.9093180966	 0.247931
H	-3.193705334	-0.7581655722	-0.0759404041	 0.249246
H	-0.1185816757	-3.6819868976	 0.7387518232	 0.123796
H	 2.2678307262	-3.4723406037	 0.7781965393	 0.223581
83.6827	134.7547	164.3682	200.2882	286.8322	327.9244	345.6011	419.2297	479.6287	517.2939	580.2056	597.5239	700.1456	732.4541	773.4745	803.3816	830.5802	907.9281	927.5792	1017.9016	1052.3399	1067.7338	1104.6242	1230.6644	1244.5309	1344.2149	1351.0705	1402.8092	1423.6284	1476.6142	1483.1302	1595.8653	1641.8574	1678.5378	1718.6502	3024.9528	3088.5965	3134.1225	3141.6042	3504.9911	3533.8905	3625.0029
CC1=C(N)N=CC(=N)O1	CC1=C(N)[N]C=C([NH])O1	
InChI=1S/C5H7N3O/c1-3-5(7)8-2-4(6)9-3/h2,6H,7H2,1H3	InChI=1S/C5H7N3O/c1-3-5(7)8-2-4(6)9-3/h2,6H,7H2,1H3
