17
gdb 10742	2.52794	1.93006	1.5756	2.4886	68.01	-0.2579	0.0202	0.2781	907.9181	0.142315	-360.022822	-360.014268	-360.013324	-360.055466	31.573	
C	-0.0905091014	 1.4948697844	-0.1311159329	-0.395633
C	 0.0144949196	-0.0323781444	 0.0380923121	 0.065307
N	 0.769307486	-0.3201815282	 1.2614007538	-0.511858
C	-1.3580126492	-0.6013032076	 0.0827205947	 0.244482
N	-2.4179128187	-1.0608821975	 0.1471117558	-0.354064
C	 0.7872314025	-0.6373194555	-1.1366398704	 0.039817
C	 0.5990701682	-2.0433454294	-1.5700645736	-0.265603
N	 0.1558876514	-0.9246434582	-2.4247665969	-0.329931
H	 0.9178390397	 1.9150001526	-0.1504503482	 0.140196
H	-0.6047141729	 1.7481440764	-1.0609262649	 0.142228
H	-0.6413370447	 1.9422863329	 0.7013490135	 0.128977
H	 0.3032739964	 0.0825345119	 2.0693798916	 0.240849
H	 0.821877542	-1.3231961162	 1.4129388609	 0.242889
H	 1.7785767272	-0.1969542575	-1.2131637756	 0.110365
H	 1.4452922379	-2.6068128529	-1.9513349708	 0.125507
H	-0.1627321688	-2.6372564643	-1.0721761146	 0.132577
H	-0.8562620751	-0.8310813168	-2.3545813545	 0.243895
91.9012	145.7663	191.7518	211.2888	237.2972	293.9165	324.3903	357.6875	425.1365	467.5752	595.3645	627.4529	654.1655	814.9543	862.9022	892.8293	924.0403	963.0176	973.8299	1014.7875	1038.8288	1106.1855	1146.8787	1165.0152	1202.7593	1235.3893	1265.5338	1304.1692	1322.1687	1398.4382	1411.2911	1485.5966	1492.0153	1508.9787	1654.6086	2335.2119	3049.3955	3114.3059	3125.0516	3138.4802	3141.8577	3202.298	3483.0853	3493.8032	3577.7751
CC(N)(C#N)C1CN1	C[C@@](N)(C#N)[C@H]1CN1	
InChI=1S/C5H9N3/c1-5(7,3-6)4-2-8-4/h4,8H,2,7H2,1H3	InChI=1S/C5H9N3/c1-5(7,3-6)4-2-8-4/h4,8H,2,7H2,1H3/t4-,5-/m1/s1
