17
gdb 69131	2.88899	1.51997	1.15501	3.9373	74.79	-0.2446	-0.0763	0.1683	1074.4344	0.135929	-418.015155	-418.007181	-418.006236	-418.047601	30.645	
C	 0.0253727997	 1.4866000445	-0.0837191277	-0.471434
C	-0.0493107058	-0.0173943707	 0.0042918428	 0.313252
C	-0.7323976882	-0.6756726393	 1.1437735013	-0.288204
N	 0.7537504815	-0.6509997951	 1.0966521174	-0.142163
C	 1.311943945	-1.8506788328	 0.5960767823	 0.245956
N	 1.9969559846	-2.6621643246	 1.2832988744	-0.472405
C	 0.9622660753	-2.0146775268	-0.8842970957	 0.35373
O	 1.3222221303	-2.9370979346	-1.5665717531	-0.29927
C	 0.0921758016	-0.8258644084	-1.2808226394	-0.427732
H	 0.9371711238	 1.8021658946	-0.6019462675	 0.127817
H	-0.8331713353	 1.8845329399	-0.6357308292	 0.125271
H	 0.031693476	 1.9308833864	 0.9145608777	 0.137138
H	-1.1599792036	-0.077125278	 1.942139709	 0.134601
H	-1.2233472377	-1.6333324571	 0.9830899229	 0.127015
H	 2.285080963	-3.4295909277	 0.6656792692	 0.242081
H	-0.8575265404	-1.1673415008	-1.7035021051	 0.147735
H	 0.6043028002	-0.2536175995	-2.0624837993	 0.146613
83.1138	146.8067	205.294	294.6583	321.721	353.9963	374.89	422.9002	521.4733	582.7264	612.3523	668.2719	716.4775	748.184	828.3406	904.0653	919.5393	928.6079	979.0481	999.783	1050.2005	1079.5399	1113.3132	1139.4141	1141.9367	1179.7301	1227.5242	1314.9897	1355.8019	1383.8322	1421.6205	1446.6153	1486.7317	1493.0071	1513.6635	1736.9159	1845.653	3034.5518	3052.9232	3094.8695	3098.694	3106.0396	3124.7443	3197.4312	3414.0478
CC12CN1C(=N)C(=O)C2	C[C@]12CN1[C]([NH])C(=O)C2	
InChI=1S/C6H8N2O/c1-6-2-4(9)5(7)8(6)3-6/h7H,2-3H2,1H3	InChI=1S/C6H8N2O/c1-6-2-4(9)5(7)8(6)3-6/h7H,2-3H2,1H3/t6-,8?/m0/s1
