18
gdb 115757	3.49812	0.93868	0.78804	6.3642	73.38	-0.2671	0.0338	0.3009	1433.5933	0.146294	-439.065352	-439.055926	-439.054982	-439.10096	32.46	
C	 0.2051265039	 1.4205850096	 0.1084727353	-0.243228
O	-0.2968811223	 0.1746516224	-0.3324876529	-0.239942
C	 0.5475717963	-0.4809227129	-1.2349239336	 0.056826
C	 1.7342148131	-1.2847080398	-0.6493807785	-0.099891
O	 1.1746678291	-2.5249050205	-1.1345987926	-0.281217
C	 0.0127091792	-1.8648223936	-1.6694241337	 0.097341
C	-1.2894798608	-2.3143949814	-0.9970814802	-0.343552
C	-1.6176820573	-3.7005981027	-1.3185919783	 0.26063
N	-1.8810240999	-4.7934404334	-1.585207235	-0.304123
H	 1.1517073331	 1.3103615234	 0.6570163082	 0.116559
H	 0.3693712957	 2.1075554836	-0.7352347135	 0.11486
H	-0.5423328218	 1.8500205423	 0.7784672823	 0.138667
H	 0.8171886694	 0.1819288948	-2.0685034517	 0.084391
H	 2.7215280259	-1.0860502125	-1.0807597864	 0.110502
H	 1.7970159074	-1.257881815	 0.4454312104	 0.111206
H	-0.0591079231	-2.0096023296	-2.7538083191	 0.100639
H	-1.2042228594	-2.1976063739	 0.0862192905	 0.16237
H	-2.1085744585	-1.6657657506	-1.3267963612	 0.157962
55.772	61.4082	101.2484	110.8778	184.9558	203.2571	302.3436	379.6401	391.5115	430.8142	510.9804	551.1571	790.0569	839.305	886.8398	901.7544	962.7543	1004.1089	1039.8047	1052.4572	1082.1205	1109.037	1164.0394	1180.9186	1184.3315	1217.1002	1231.0308	1272.0451	1281.0789	1310.3344	1354.9565	1391.4811	1401.6783	1446.353	1483.3757	1490.1883	1508.066	1512.1766	2365.3882	2984.6043	3008.6005	3021.0776	3037.1069	3041.043	3060.8506	3074.751	3113.2488	3127.4418
COC1COC1CC#N	CO[C@H]1CO[C@H]1CC#N	
InChI=1S/C6H9NO2/c1-8-6-4-9-5(6)2-3-7/h5-6H,2,4H2,1H3	InChI=1S/C6H9NO2/c1-8-6-4-9-5(6)2-3-7/h5-6H,2,4H2,1H3/t5-,6-/m0/s1
