21
gdb 115848	2.77849	1.30443	1.17256	2.0646	77.74	-0.2361	0.0713	0.3074	1178.1111	0.183633	-424.219478	-424.210954	-424.210009	-424.252467	33.372	
C	-0.1339148319	 1.5292068842	 0.0640230839	-0.382004
C	-0.0003423264	 0.0057515231	-0.0080663442	-0.197023
C	 0.7341283118	-0.5907098222	 1.1892163242	 0.116034
O	 0.007288572	-0.2830789925	 2.3955358513	-0.289327
C	 0.4150414149	-1.2134287846	 3.4046830255	-0.112735
C	 0.6886447677	-2.513806289	 2.6698944089	-0.132276
C	-0.3435873389	-2.8923322382	 1.6392871685	 0.132682
O	-1.6459295972	-2.3876121703	 1.6388670842	-0.43516
C	 0.8716033085	-2.1054497497	 1.2097808179	-0.136985
H	 0.8495305758	 2.0102493875	 0.1141619494	 0.111046
H	-0.6516081868	 1.9198225973	-0.8170714602	 0.111768
H	-0.6962461465	 1.8292784322	 0.9521343205	 0.132882
H	-0.9847723303	-0.4670673383	-0.0898418137	 0.114144
H	 0.5561835097	-0.2796315969	-0.9095010831	 0.09801
H	 1.7396069604	-0.1393720448	 1.2562195818	 0.070723
H	 1.3207154942	-0.860368831	 3.9205787603	 0.102877
H	-0.3993771815	-1.2716462106	 4.134186546	 0.116997
H	 1.3012191534	-3.2663994048	 3.1534043066	 0.089808
H	-0.3585769993	-3.9351591543	 1.3393797016	 0.105248
H	-1.5900517891	-1.4623185708	 1.91565404	 0.295295
H	 1.6194683195	-2.5610170365	 0.5701202405	 0.087998
93.7183	140.242	187.2303	224.7725	248.4896	257.7075	371.8323	451.2154	505.8307	552.9728	571.0684	720.2056	741.7181	766.3734	777.8034	805.4426	869.1767	917.1705	950.1476	980.059	1015.2923	1027.4823	1041.3432	1061.3408	1080.438	1101.3284	1119.9324	1129.2412	1167.3932	1188.6519	1239.4848	1289.7189	1303.8948	1316.2348	1339.7411	1345.4731	1349.7733	1410.0173	1411.0371	1418.1666	1471.864	1486.1309	1497.6861	1509.0025	1517.3296	2945.9476	2992.4772	3035.7983	3036.5242	3073.1124	3079.4402	3103.6614	3121.9987	3162.9387	3168.1377	3180.2044	3733.979
CCC1OCC2C(O)C12	CC[C@H]1OC[C@H]2[C@@H](O)[C@@H]12	
InChI=1S/C7H12O2/c1-2-5-6-4(3-9-5)7(6)8/h4-8H,2-3H2,1H3	InChI=1S/C7H12O2/c1-2-5-6-4(3-9-5)7(6)8/h4-8H,2-3H2,1H3/t4-,5-,6-,7-/m1/s1
