17
gdb 112536	2.27657	1.29402	1.13981	2.1267	69.63	-0.2552	0.0022	0.2574	1153.8691	0.133777	-458.894366	-458.885144	-458.884199	-458.928789	33.766	
O	 0.0188040039	 1.0423658941	-0.8309151695	-0.423264
C	 0.0331997268	-0.2806252701	-0.3320690181	-0.059869
C	-1.3240182586	-0.6266103233	 0.2603346099	 0.0637
O	-2.3677724004	-0.4537679106	-0.745720425	-0.307098
C	-2.6398742089	-1.8752017956	-0.8027986594	-0.106113
C	-2.1992106826	-2.5077106584	-2.0361244573	 0.306602
C	-1.7740999701	-3.0603785973	-3.0172470809	-0.425685
C	-1.6898358238	-2.1258913156	 0.419775519	 0.062043
O	-0.701064007	-3.102343298	 0.3226619395	-0.422286
H	-0.7496809643	 1.0958471436	-1.4128938463	 0.29262
H	 0.2968426222	-1.0019677135	-1.1204760027	 0.078604
H	 0.8069252872	-0.3332294039	 0.4404074613	 0.118692
H	-1.5301405551	 0.011044951	 1.1269326439	 0.090593
H	-3.7014315342	-2.0786467655	-0.6246393121	 0.115623
H	-1.4342928666	-3.535375513	-3.9052800666	 0.213986
H	-2.2490682059	-2.3243340882	 1.3362021293	 0.111066
H	-0.4618958126	-3.2028784655	-0.608219815	 0.290782
53.1899	101.0781	137.0755	165.1349	216.1079	290.6249	319.469	377.9077	457.0759	479.0083	513.8722	572.1212	601.1427	653.1406	679.4268	776.6431	833.8887	867.3185	919.6188	987.0867	1027.5597	1056.5413	1084.7518	1114.1221	1172.1669	1189.8677	1216.2701	1260.4902	1282.5364	1328.1779	1332.9399	1356.222	1401.9585	1435.2346	1444.4452	1493.7892	2222.245	2988.1875	3047.3312	3051.1553	3084.5871	3096.9513	3496.2543	3755.8072	3780.9147
OCC1OC(C#C)C1O	OC[C@H]1O[C@@H](C#C)[C@H]1O	
InChI=1S/C6H8O3/c1-2-4-6(8)5(3-7)9-4/h1,4-8H,3H2	InChI=1S/C6H8O3/c1-2-4-6(8)5(3-7)9-4/h1,4-8H,3H2/t4-,5+,6+/m0/s1
