20
gdb 22694	2.91431	0.94202	0.87462	0.6645	78.57	-0.2442	0.0074	0.2516	1425.3814	0.168012	-440.218724	-440.208634	-440.20769	-440.254931	36.258	
C	 0.9602690137	 0.0689554178	-0.3386830523	-0.479683
C	-0.3748758697	-0.316687896	 0.2322769814	 0.360015
C	-0.4997926908	-0.5288569664	 1.7226878243	-0.161976
O	 0.4104076388	-1.4929657381	 2.2356960503	-0.247213
C	 0.0451951956	-2.8156604369	 1.9694251534	 0.154256
C	 0.5631073233	-3.5194677627	 0.7418342252	-0.284305
C	 1.1199052994	-3.8418631655	 2.1157165868	-0.294079
N	-1.453010206	-0.4624050931	-0.4379909495	-0.163815
O	-1.2630059149	-0.1938584511	-1.8018216813	-0.396504
H	 1.7576927744	-0.1814625816	 0.3632912381	 0.135539
H	 1.1332922074	-0.4353648248	-1.2921446676	 0.147778
H	 0.9949241109	 1.1468686906	-0.5373352848	 0.140376
H	-0.2485552476	 0.4021352338	 2.2454230355	 0.112009
H	-1.5385011683	-0.7919642344	 1.960190009	 0.109971
H	-0.9597018928	-3.0681030223	 2.3091278706	 0.087062
H	-0.0791345979	-4.2418805566	 0.2501448635	 0.114084
H	 1.2015029245	-2.9524449481	 0.0747803515	 0.121575
H	 2.1118920214	-3.4692731093	 2.3446674691	 0.12419
H	 0.8722035276	-4.7903381181	 2.5784796974	 0.114543
H	-2.1359651889	-0.3735547672	-2.1665695904	 0.306176
49.417	57.2055	79.5075	103.78	200.9957	241.9799	298.5176	337.3303	374.9614	407.7289	414.1363	514.8156	550.5681	668.0597	743.7128	807.4928	818.4414	819.9841	940.795	954.3748	979.4192	986.5037	1041.482	1049.2263	1069.9047	1080.3415	1101.6748	1127.4656	1182.6043	1192.4599	1239.0369	1268.9856	1301.1889	1375.1592	1392.7395	1398.3878	1417.7358	1453.5286	1476.7767	1481.4721	1487.4636	1498.4697	1733.8567	3017.6136	3039.6083	3067.5048	3097.17	3105.3953	3138.1973	3142.3045	3144.5657	3221.5518	3235.5209	3819.5408
CC(COC1CC1)=NO	CC(=NO)COC1CC1	
InChI=1S/C6H11NO2/c1-5(7-8)4-9-6-2-3-6/h6,8H,2-4H2,1H3	InChI=1S/C6H11NO2/c1-5(7-8)4-9-6-2-3-6/h6,8H,2-4H2,1H3
