20
gdb 70571	2.52533	1.74889	1.41197	2.7022	78.3	-0.2319	0.0732	0.3051	1016.8717	0.172639	-403.110759	-403.103049	-403.102105	-403.142379	31.473	
C	-0.006681693	 1.483688376	-0.0329217386	-0.475783
C	-0.023811396	-0.0308101241	 0.0215967188	 0.321594
C	-0.3358234696	-0.7143882251	 1.3359282536	-0.346814
C	 1.0676896091	-0.737955235	 0.7905117721	 0.051924
O	 1.544767845	-1.9643491041	 0.3177033478	-0.247374
C	 1.7641924906	-2.0264238742	-1.0812529584	-0.082264
C	 0.5196409077	-1.6805252762	-1.875580731	-0.039706
N	-0.7525377958	-2.1219878453	-1.2818744438	-0.336097
C	-0.4123477297	-0.6870145236	-1.2821259474	-0.104344
H	 0.6220915403	 1.8481922932	-0.8541344657	 0.115473
H	-1.0165806118	 1.8846855724	-0.1821298256	 0.117193
H	 0.3822588493	 1.908324189	 0.8972703248	 0.117308
H	-0.5469316692	-0.0905231098	 2.1981105833	 0.101282
H	-0.872064555	-1.6542545039	 1.2831511213	 0.139443
H	 1.8328419333	-0.130557731	 1.2743711237	 0.079525
H	 2.58190243	-1.352514823	-1.3895228574	 0.08574
H	 2.0814987123	-3.0550726038	-1.2810369766	 0.112521
H	 0.6361209187	-1.714190346	-2.9568685036	 0.082875
H	-1.4338675346	-2.3129038425	-2.0112144043	 0.231527
H	-0.9673465915	-0.0439626631	-1.961795613	 0.075977
158.9286	202.3451	228.6008	281.4123	312.5842	345.7414	442.7066	481.1625	493.9976	534.962	660.5698	770.4064	790.1669	819.3666	852.6167	872.1285	908.6903	947.9711	962.9895	979.7359	1034.9251	1050.5405	1057.3282	1071.9877	1105.8671	1119.4259	1126.0584	1157.8418	1182.7807	1197.8594	1239.0845	1259.5477	1293.237	1334.3879	1378.9179	1403.1953	1414.2507	1419.625	1456.0698	1477.6928	1491.5333	1495.2995	1502.4523	2961.3818	3019.2111	3072.6218	3077.3049	3093.7949	3102.5499	3121.1866	3132.8467	3135.475	3236.3525	3510.1668
CC12CC1OCC1NC21	C[C@]12C[C@H]1OC[C@H]1N[C@@H]21	
InChI=1S/C7H11NO/c1-7-2-5(7)9-3-4-6(7)8-4/h4-6,8H,2-3H2,1H3	InChI=1S/C7H11NO/c1-7-2-5(7)9-3-4-6(7)8-4/h4-6,8H,2-3H2,1H3/t4-,5-,6-,7+/m1/s1
