19
gdb 40678	3.84797	0.95498	0.87984	1.8283	76.62	-0.2398	0.0606	0.3004	1364.4209	0.15994	-419.118731	-419.110329	-419.109385	-419.152703	31.105	
C	-0.1172631581	 1.5491209149	-0.000194696	-0.241603
N	 1.1993071116	 0.8937161642	 0.0654997977	-0.32232
C	-0.0186518372	 0.067553662	 0.0181189799	 0.007338
C	-0.3113586076	-0.7280406288	 1.2470857894	-0.082752
N	-1.5273325301	-1.5723311818	 1.204116277	-0.386788
C	-0.2195220046	-2.2025943299	 1.2795320687	 0.275472
C	 0.3311275927	-3.2115820128	 0.2768432489	-0.130813
O	 0.8866855974	-3.9979155962	 1.3568697467	-0.275369
C	 0.3448421448	-3.1175956051	 2.3634975521	-0.146588
H	-0.4044552723	 2.083222784	 0.9018922628	 0.117109
H	-0.4239483085	 2.0292009137	-0.925643056	 0.114429
H	 1.6493684842	 0.9128741851	-0.8452184923	 0.234732
H	-0.2572143201	-0.4462755159	-0.911000385	 0.089185
H	-0.0779003739	-0.209651831	 2.1764888803	 0.090385
H	-1.9929188381	-1.5880076749	 2.1086580092	 0.232903
H	-0.4325489618	-3.7597307584	-0.2888314181	 0.109052
H	 1.1084970982	-2.8501418284	-0.4077443053	 0.105009
H	 1.1251482585	-2.6917783436	 3.0069342391	 0.1105
H	-0.406839085	-3.6193234071	 2.9899522211	 0.10012
51.8402	99.5304	128.2643	153.5223	295.3208	341.5423	365.4022	414.173	492.3616	609.7865	800.1981	851.7151	866.8188	878.0533	900.9237	919.9527	949.5688	962.5397	971.4363	1010.2514	1026.1487	1028.4912	1058.7265	1112.7242	1120.0014	1131.1372	1147.9467	1159.3905	1168.6301	1242.4921	1261.1541	1270.1855	1284.8552	1300.685	1320.6166	1358.1435	1424.9616	1502.4323	1506.0983	1526.9219	1530.4871	2992.5152	3014.8009	3043.8215	3059.7479	3106.1966	3115.8842	3131.3035	3190.8372	3493.4549	3511.494
C1NC1C1NC11COC1	C1N[C@H]1[C@H]1NC21COC2	
InChI=1S/C6H10N2O/c1-4(7-1)5-6(8-5)2-9-3-6/h4-5,7-8H,1-3H2	InChI=1S/C6H10N2O/c1-4(7-1)5-6(8-5)2-9-3-6/h4-5,7-8H,1-3H2/t4-,5-/m1/s1
