20
gdb 90545	3.24018	1.10777	1.04283	4.4169	81.14	-0.2358	0.0282	0.264	1247.6131	0.171644	-403.146962	-403.138384	-403.13744	-403.181182	31.938	
C	-0.989287322	 1.1770108791	 0.0015306143	-0.412353
C	-0.1233525116	-0.0750599574	-0.0063938988	 0.036107
C	 1.1307138051	-0.1008271441	-0.9439884694	-0.257003
C	 2.0318973625	-0.4485955125	 0.2716679135	-0.006701
C	 0.7858753106	-0.3950637805	 1.2236895071	-0.070775
C	 1.4614754877	 0.80031857	 1.9501191269	-0.186993
N	 2.564364746	 0.7101526279	 0.9890897779	-0.025186
C	 3.6880231535	 1.4484841593	 0.8717375982	 0.124332
O	 3.9726664098	 2.3912785987	 1.5833809474	-0.334857
H	-0.3943531458	 2.0860567628	 0.1363538059	 0.126281
H	-1.5241545667	 1.277952281	-0.9490034779	 0.120259
H	-1.73727922	 1.1420968757	 0.8014224892	 0.118085
H	-0.7590019547	-0.9427261142	-0.2091419231	 0.080326
H	 1.097775967	-0.8797099777	-1.7100147416	 0.105665
H	 1.3811679594	 0.8494442563	-1.4226104065	 0.107961
H	 2.713780911	-1.2978414084	 0.1877497871	 0.085988
H	 0.4861990079	-1.2294902131	 1.8554310232	 0.079955
H	 0.9324810173	 1.7578282339	 1.9446899309	 0.123368
H	 1.777724613	 0.5850623426	 2.9766561953	 0.122152
H	 4.3338582101	 1.0864859205	 0.0440013005	 0.063388
36.5957	69.1351	181.984	224.4713	268.6184	319.1817	345.1	366.7827	484.6822	522.1781	671.0143	751.044	783.4517	810.483	865.0221	890.9368	940.2272	958.7381	989.9435	1001.8668	1033.4441	1089.4005	1096.0517	1122.0732	1135.414	1156.9577	1192.808	1208.7265	1228.5741	1261.3882	1282.2728	1298.1196	1322.8301	1328.2957	1368.1611	1400.6072	1414.4925	1447.4089	1472.8512	1494.4822	1498.896	1525.0561	1788.3202	2910.9839	3030.049	3040.7788	3047.5844	3058.9661	3080.7408	3087.1312	3095.1555	3102.9193	3115.1889	3125.5222
CC1CC2C1CN2C=O	C[C@H]1C[C@@H]2[C@H]1CN2C=O	
InChI=1S/C7H11NO/c1-5-2-7-6(5)3-8(7)4-9/h4-7H,2-3H2,1H3	InChI=1S/C7H11NO/c1-5-2-7-6(5)3-8(7)4-9/h4-7H,2-3H2,1H3/t5-,6-,7+/m0/s1
