17
gdb 112302	2.85913	1.37612	1.0341	4.2264	68.44	-0.2644	-0.014	0.2504	1160.513	0.135717	-458.986191	-458.978161	-458.977216	-459.019135	29.83	
C	 0.0968285765	 1.4994122	 0.097241435	-0.389499
C	 0.0897028085	-0.0287388287	 0.0136608975	-0.189202
C	 0.6034305337	-0.5592557332	-1.3198584357	 0.096613
O	 1.9655046002	-0.1101761984	-1.5367217928	-0.244966
C	 2.7892778423	-1.114344237	-1.9484336837	 0.463875
O	 3.9030695088	-0.927901989	-2.3401264788	-0.336944
C	 2.0406395807	-2.4190331193	-1.8250207582	-0.133057
O	 1.5892673717	-2.6289949697	-0.4736326739	-0.23795
C	 0.6776456355	-2.0735263852	-1.4182437037	 0.009418
H	 1.1082855194	 1.890420935	-0.0376264565	 0.145008
H	-0.541793334	 1.9431339394	-0.6745865977	 0.115048
H	-0.2728490805	 1.8350596861	 1.0701410194	 0.119236
H	 0.7047241311	-0.4644442638	 0.8074764636	 0.128258
H	-0.9297219221	-0.4115148087	 0.1513806123	 0.102859
H	 0.0005555064	-0.166587914	-2.1497317874	 0.099196
H	 2.3489450917	-3.2923209819	-2.3871843365	 0.132501
H	-0.19799632	-2.6671344915	-1.6617971729	 0.119605
96.1247	122.9451	150.2862	215.6542	248.5159	329.7904	414.0884	489.2372	500.1792	641.1884	718.3655	766.8954	820.4242	836.2407	875.273	891.7778	911.1035	974.1132	988.0692	1029.1324	1066.1953	1088.8362	1126.6454	1159.6323	1191.3107	1241.5601	1288.3617	1305.4638	1318.7682	1369.0093	1399.7618	1412.9185	1420.1796	1479.922	1498.5973	1508.6986	1887.2307	3023.5042	3032.1239	3040.1477	3085.5631	3109.4078	3129.0272	3169.594	3201.1942
CCC1OC(=O)C2OC12	CC[C@H]1OC(=O)[C@H]2O[C@@H]12	
InChI=1S/C6H8O3/c1-2-3-4-5(9-4)6(7)8-3/h3-5H,2H2,1H3	InChI=1S/C6H8O3/c1-2-3-4-5(9-4)6(7)8-3/h3-5H,2H2,1H3/t3-,4+,5+/m1/s1
