19
gdb 72777	2.39003	1.74475	1.33487	2.4092	82.16	-0.2332	-0.0143	0.2189	1037.1421	0.159157	-385.89696	-385.888776	-385.887832	-385.929502	31.84	
C	-0.1283986745	 1.5786142288	-0.221288742	-0.458463
C	-0.0119130188	 0.0629614595	-0.0375827871	 0.184458
C	 1.181300877	-0.5785947096	-0.8409611065	-0.278055
C	 2.0078495375	-0.6334848294	 0.5025903796	-0.314677
C	 0.6711160306	-0.4813328578	 1.1885941668	 0.241481
C	-0.140402056	-1.1190853528	 2.0326656813	-0.228018
C	-1.5776343904	-0.9884100856	 1.5644446165	-0.358293
C	-1.4114282499	-0.5735904502	 0.0721907654	 0.327596
O	-2.2175865478	-0.7327775598	-0.8027556494	-0.307252
H	 0.8543148626	 2.0580188032	-0.1660083393	 0.118059
H	-0.5668514011	 1.8028343296	-1.1992290533	 0.135382
H	-0.7643339106	 2.0298013932	 0.5475133776	 0.121749
H	 0.9453627376	-1.5759837248	-1.2169496709	 0.120105
H	 1.597150756	 0.0288819319	-1.6483966969	 0.106423
H	 2.587163087	-1.534599104	 0.7160348613	 0.113281
H	 2.6623786097	 0.238637412	 0.5977800323	 0.115529
H	 0.1572573271	-1.7867575989	 2.8333606828	 0.09853
H	-2.1504471795	-1.9186882517	 1.6423148886	 0.129779
H	-2.1642943565	-0.2185834933	 2.0853317933	 0.132386
76.1701	197.8388	212.1063	229.3497	249.4362	284.035	361.3413	490.7148	544.5264	606.1964	622.2438	679.3102	745.2381	786.8685	809.5762	851.519	876.8631	903.5589	939.5743	974.4319	988.4538	1029.4769	1069.7331	1108.6537	1124.8812	1156.4356	1177.3746	1207.7489	1226.2279	1246.6482	1249.4993	1270.8329	1323.2473	1403.3576	1452.6699	1473.6472	1487.8698	1491.0038	1494.5663	1716.4029	1853.165	3013.4559	3029.0543	3052.1814	3065.9758	3075.0514	3099.7718	3104.4331	3106.4747	3131.7807	3190.9546
CC12CCC1=CCC2=O	C[C@@]12CC[C]1[CH]CC2=O	
InChI=1S/C8H10O/c1-8-5-4-6(8)2-3-7(8)9/h2H,3-5H2,1H3	InChI=1S/C8H10O/c1-8-5-4-6(8)2-3-7(8)9/h2H,3-5H2,1H3/t8-/m1/s1
