17
gdb 35385	4.08927	1.31879	1.19433	5.3148	76.44	-0.245	0.0333	0.2783	1046.254	0.1391	-380.822301	-380.81558	-380.814636	-380.85358	26.784	
N	-0.0516213118	-1.1626009194	-0.1348851982	-0.325752
C	-0.0222996411	-0.0103292542	-0.0498252239	 0.27933
C	 0.0053783364	 1.4461444434	 0.0391985986	-0.172322
C	-0.4925953545	 2.0209872762	 1.4056959043	-0.267363
C	 0.7514173692	 2.8074785889	 1.7869478917	 0.031446
C	 1.3912479946	 3.4981409677	 0.5524297773	-0.090582
C	 2.7428701283	 3.1847955544	 1.2074427728	-0.176806
N	 1.9654541021	 1.8937611555	 1.487040818	-0.147903
C	 1.4239044144	 2.034208232	 0.0479255736	 0.020459
H	-0.5689587481	 1.8462044818	-0.8027874307	 0.127373
H	-1.3784823694	 2.6504008971	 1.2929462389	 0.117647
H	-0.7140797788	 1.2331469779	 2.1284541907	 0.140995
H	 0.7772670353	 3.2947140212	 2.7628750629	 0.084072
H	 1.0611689055	 4.3972865088	 0.0192462223	 0.069318
H	 3.612146498	 3.0390824586	 0.5606360534	 0.108139
H	 3.0159529937	 3.7319628565	 2.1136380134	 0.107246
H	 2.1095024062	 1.7249273737	-0.7416934252	 0.094701
99.561	156.5403	292.5964	363.0274	442.0506	485.3514	563.0434	682.5756	698.3685	758.2667	798.4373	847.5133	864.4268	890.0535	928.004	965.5424	976.3278	1006.1176	1037.4807	1050.043	1061.5331	1111.917	1119.821	1132.2934	1156.1866	1203.8212	1223.9292	1241.2173	1242.1418	1275.0803	1294.8344	1303.0075	1335.936	1373.7286	1484.7934	1532.0913	2359.4532	3033.0311	3056.7863	3059.3983	3074.8046	3111.1347	3117.8199	3121.1141	3126.8411
N#CC1CC2C3CN2C13	N#C[C@H]1C[C@@H]2[C@H]3CN2[C@@H]13	
InChI=1S/C7H8N2/c8-2-4-1-6-5-3-9(6)7(4)5/h4-7H,1,3H2	InChI=1S/C7H8N2/c8-2-4-1-6-5-3-9(6)7(4)5/h4-7H,1,3H2/t4-,5-,6-,7+/m1/s1
