17
gdb 19055	3.50673	2.27299	2.10369	2.0862	66.01	-0.231	0.0662	0.2972	739.805	0.145056	-363.825244	-363.818973	-363.818029	-363.855283	25.597	
O	-0.0296891222	 1.4663589073	-0.005802931	-0.430753
C	 0.0214771853	 0.0426637209	 0.0297661735	 0.083956
C	 0.6589511883	-0.5398386897	 1.3196314038	-0.23422
C	-0.5535216792	-0.9045920009	 2.1661533616	 0.006819
C	-1.4812911374	 0.3063722365	 2.4568452304	-0.245647
C	-2.2689962856	-0.1463826929	 1.2374855466	-0.020544
C	-1.3960378924	-0.503111861	 0.0902862749	-0.024115
N	-1.575295542	-1.4911551158	 1.1817637614	-0.16096
H	 0.8653077549	 1.7902293974	-0.1486979528	 0.282933
H	 0.5345698416	-0.3321482814	-0.8663224348	 0.07051
H	 1.2360183651	-1.4406068177	 1.0833659468	 0.105419
H	 1.3255935766	 0.1809812477	 1.8037550501	 0.095825
H	-0.350114361	-1.5754189984	 3.0005301525	 0.076609
H	-2.0540148275	 0.1645872635	 3.3760133239	 0.105009
H	-1.0449568897	 1.3073713521	 2.440100687	 0.110423
H	-3.3443367277	-0.0602850571	 1.112005854	 0.08931
H	-1.8924660469	-0.7705668205	-0.836618248	 0.089425
152.6036	272.0867	307.1074	370.6209	420.6508	518.4382	643.9201	708.1567	764.1894	797.4401	819.6496	842.3194	865.9937	885.1022	962.121	992.1672	1008.9206	1029.4531	1048.8852	1069.384	1083.3586	1112.8633	1152.0114	1185.0387	1192.244	1225.3198	1260.381	1269.265	1293.2218	1320.4281	1353.132	1370.9342	1409.608	1431.4513	1469.5725	1491.3014	3001.6683	3042.6593	3065.8321	3091.7038	3110.8907	3122.6642	3150.5153	3170.6868	3816.3774
OC1CC2CC3C1N23	O[C@H]1C[C@H]2C[C@H]3[C@@H]1N23	
InChI=1S/C6H9NO/c8-5-2-3-1-4-6(5)7(3)4/h3-6,8H,1-2H2	InChI=1S/C6H9NO/c8-5-2-3-1-4-6(5)7(3)4/h3-6,8H,1-2H2/t3-,4+,5+,6+,7?/m1/s1
