20
gdb 112587	3.17406	0.92091	0.84281	3.3246	79.98	-0.2869	0.0134	0.3003	1455.4159	0.169549	-403.157455	-403.14777	-403.146826	-403.192231	35.801	
C	 0.0730537075	 1.489475802	 0.2884089482	-0.381549
C	-0.1003359959	-0.0103910028	 0.0286191255	-0.197107
C	 0.6166883918	-0.4874018774	-1.2271006562	 0.05687
C	 2.1728905481	-0.5134839316	-1.235085872	-0.275982
C	 2.1249666165	-1.8722986699	-1.9836982043	 0.271542
O	 3.059431858	-2.8040044054	-1.4934896711	-0.456038
C	 0.6303412518	-2.0090555999	-1.5415855328	-0.314564
C	 2.2531040066	-1.7245999412	-3.4425122894	 0.226376
N	 2.3483740958	-1.6437604365	-4.5920600043	-0.339719
H	 1.1295230953	 1.7536069494	 0.4069357157	 0.121122
H	-0.3254152324	 2.0833369384	-0.5414392138	 0.118814
H	-0.4494388324	 1.7969060101	 1.1991661065	 0.116907
H	 0.2712968034	-0.580847572	 0.8905925517	 0.094703
H	-1.1686889219	-0.2482460346	-0.0579832412	 0.100931
H	 0.2508680657	 0.0697004973	-2.0967573228	 0.088142
H	 2.7168531919	 0.3030746788	-1.7106628953	 0.123192
H	 2.5805795993	-0.6935978648	-0.2362018856	 0.122723
H	 2.9767076006	-3.6233041035	-1.995340454	 0.292042
H	 0.5978074689	-2.6104605821	-0.6283434293	 0.115116
H	-0.0834320587	-2.4006263643	-2.2684324857	 0.11648
58.0394	97.0555	141.1669	178.3416	218.0359	240.6544	293.1926	345.5753	363.5857	408.725	426.9755	521.7479	590.5214	640.5289	705.3758	781.7809	835.8226	847.6784	939.5249	944.8814	973.1023	1008.7883	1020.496	1056.5974	1080.6385	1135.5067	1152.0407	1207.2155	1227.8617	1263.201	1275.6391	1280.5285	1308.9612	1346.8246	1363.2026	1396.7402	1413.9408	1466.2831	1483.0219	1492.9192	1500.0111	1506.6529	2346.5359	3011.9121	3032.4373	3038.1466	3053.8	3060.8453	3069.8467	3098.9985	3106.356	3128.5109	3137.2103	3799.2139
CCC1CC(O)(C1)C#N	CC[C@H]1C[C@@](O)(C1)C#N	
InChI=1S/C7H11NO/c1-2-6-3-7(9,4-6)5-8/h6,9H,2-4H2,1H3	InChI=1S/C7H11NO/c1-2-6-3-7(9,4-6)5-8/h6,9H,2-4H2,1H3/t6-,7+
