17
gdb 74460	3.52942	1.24804	1.07752	2.9322	74.36	-0.2381	-0.0389	0.1991	1145.6031	0.134259	-421.789199	-421.781063	-421.780119	-421.822095	30.525	
C	-0.0621405078	 1.506798578	 0.1615227884	-0.516449
C	 0.0140281251	 0.0287295248	 0.0139448946	 0.363728
C	 0.0828487488	-0.7789809098	-1.0483850536	-0.264949
C	 0.1518918467	-2.1632639689	-0.3828109219	 0.305493
C	-1.0065070258	-2.0541921278	 0.6748997841	-0.252807
C	 0.0345281799	-1.0071521598	 1.1661251707	-0.043506
O	 1.0857876755	-1.9316947023	 0.7270860456	-0.320452
C	 0.3944681443	-3.4070743991	-1.1808891441	 0.042244
O	-0.0325543724	-3.5745862125	-2.2948238055	-0.251472
H	 0.7895241124	 1.8919054231	 0.7362898809	 0.137302
H	-0.0691466487	 2.0050051656	-0.8114564616	 0.134958
H	-0.9672811635	 1.8084404627	 0.7038717829	 0.131721
H	 0.0996814266	-0.5789804856	-2.1087032747	 0.126441
H	-1.9842891434	-1.7177729304	 0.3274344948	 0.113523
H	-1.0698812938	-2.927745965	 1.3285075956	 0.113156
H	 0.1248557733	-0.6767239839	 2.2006589076	 0.085025
H	 0.9873838227	-4.180839739	-0.6463696338	 0.096045
79.6567	146.4672	169.3289	179.7018	255.5807	313.1673	440.5794	506.5499	550.9749	582.4403	626.2043	725.6237	781.7993	802.5098	838.6169	874.2312	897.0643	947.9935	1009.9194	1011.3905	1039.8341	1061.4472	1075.6161	1101.4759	1145.0448	1207.0976	1224.0183	1244.1213	1295.686	1321.5379	1404.8997	1415.2475	1478.7276	1482.7623	1484.8441	1687.5651	1826.2165	2903.4921	3018.6137	3064.8881	3066.5074	3113.9464	3128.8275	3145.407	3255.1244
CC1=CC2(CC1O2)C=O	CC1=C[C@@]2(C[C@H]1O2)C=O	
InChI=1S/C7H8O2/c1-5-2-7(4-8)3-6(5)9-7/h2,4,6H,3H2,1H3	InChI=1S/C7H8O2/c1-5-2-7(4-8)3-6(5)9-7/h2,4,6H,3H2,1H3/t6-,7-/m1/s1
