19
gdb 119634	4.34033	0.90109	0.82978	1.239	71.42	-0.2539	0.0729	0.3268	1403.1121	0.158736	-460.138177	-460.129335	-460.12839	-460.172377	32.266	
O	-0.1413880239	 1.4489553608	 0.2002620378	-0.419269
C	-0.0498656782	 0.0359032633	 0.2757699006	-0.073717
C	-1.3560631215	-0.5328465483	-0.2760058834	-0.29039
C	-1.3960613054	-2.0364050039	-0.2337467144	 0.388859
C	-0.5185955619	-2.890791019	-1.1363461744	-0.136823
O	-1.0411977234	-4.2114401413	-1.0655693778	-0.255802
C	-2.4102090224	-4.1658951362	-0.6784563679	-0.102901
C	-2.576987651	-2.8568200085	 0.0571005056	-0.055798
O	-1.5725979102	-2.6517882169	 1.0571324313	-0.294894
H	 0.6514630686	 1.8240409509	 0.5942193709	 0.28806
H	 0.8047173197	-0.3394819527	-0.3105025109	 0.088099
H	 0.0841275363	-0.3088251336	 1.3119090784	 0.10864
H	-2.1849281241	-0.1283239975	 0.3126924823	 0.118682
H	-1.4867136733	-0.1855300038	-1.3077697257	 0.112192
H	-0.5559027596	-2.4924365651	-2.1640930205	 0.093743
H	 0.5283456875	-2.932801024	-0.8181686456	 0.116099
H	-3.0851152672	-4.1877809661	-1.5503961388	 0.094215
H	-2.6114333533	-5.0461440071	-0.0592240491	 0.120241
H	-3.5613123067	-2.4437449709	 0.2615436317	 0.100764
64.5476	89.2853	120.3625	204.6554	259.957	266.8249	320.8254	340.6947	417.3912	459.1161	678.1529	708.8402	781.485	791.9064	888.2496	906.1368	932.2405	972.4444	991.148	1010.6463	1049.5447	1075.2567	1096.6971	1113.414	1124.5818	1205.069	1223.7117	1238.0066	1245.6647	1262.9658	1284.8596	1320.8562	1346.4845	1361.152	1384.132	1461.517	1471.7039	1483.873	1499.6254	1511.3083	1528.2083	2966.1539	2967.7925	2974.0725	3008.7306	3043.5822	3068.4121	3073.6079	3095.6949	3153.2223	3832.2542
OCCC12COCC1O2	OCC[C@]12COC[C@H]1O2	
InChI=1S/C6H10O3/c7-2-1-6-4-8-3-5(6)9-6/h5,7H,1-4H2	InChI=1S/C6H10O3/c7-2-1-6-4-8-3-5(6)9-6/h5,7H,1-4H2/t5-,6+/m1/s1
