20
gdb 10182	3.01161	1.12078	0.85514	4.5724	76.63	-0.2435	0.0307	0.2743	1380.3957	0.176185	-345.193135	-345.18325	-345.182306	-345.228356	34.466	
C	 0.0581821109	 1.6896536581	-0.0403698428	-0.384315
C	-0.0151138215	 0.1605691904	 0.0147364673	-0.191065
C	 0.6037922605	-0.4938728617	-1.2264909368	-0.183166
C	 0.6506914238	-2.0351374952	-1.1614889793	-0.114322
N	-0.6873593807	-2.6155508154	-1.2259023038	-0.286012
C	-0.7295864216	-4.0517911151	-0.9670511229	-0.328776
C	 1.4590966749	-2.5517653439	-2.2825632233	 0.305451
N	 2.1128743088	-2.9479989822	-3.1489132245	-0.332208
H	 1.0963905351	 2.0327759855	-0.1037609874	 0.121895
H	-0.4734681433	 2.0792432302	-0.9149913447	 0.123163
H	-0.3893779984	 2.1396038809	 0.8506587336	 0.118084
H	 0.5029092983	-0.2012640705	 0.9127775531	 0.102773
H	-1.0657937362	-0.1375426774	 0.1224762466	 0.101912
H	 0.0507630483	-0.2054477582	-2.1270902082	 0.125769
H	 1.6294724808	-0.1295386675	-1.3500013828	 0.119456
H	 1.1923421026	-2.3245826323	-0.2385272084	 0.098147
H	-1.2746746645	-2.1315986074	-0.557354911	 0.22735
H	-0.2037015431	-4.5833286435	-1.7660096691	 0.150829
H	-0.272992282	-4.3480622157	-0.0063144363	 0.099007
H	-1.7705270327	-4.3851825293	-0.9718797994	 0.126028
69.4861	83.7176	104.4767	126.4793	187.1381	237.3766	247.5371	286.1166	305.172	332.0705	464.434	570.2824	588.5511	725.4171	760.6979	832.4502	905.8551	917.0663	993.8975	1026.4914	1060.236	1114.419	1118.1301	1144.0095	1164.1265	1218.3166	1265.3999	1297.8792	1328.3044	1353.0181	1363.2972	1395.7829	1415.977	1461.7785	1476.9648	1481.9709	1490.1669	1494.3151	1499.3271	1508.4815	1519.2396	2359.1294	2897.8373	2953.516	3015.045	3034.3579	3044.886	3045.9643	3075.9852	3090.5467	3104.0031	3109.3162	3119.7614	3550.0462
CCCC(NC)C#N	CCC[C@@H](NC)C#N	
InChI=1S/C6H12N2/c1-3-4-6(5-7)8-2/h6,8H,3-4H2,1-2H3	InChI=1S/C6H12N2/c1-3-4-6(5-7)8-2/h6,8H,3-4H2,1-2H3/t6-/m1/s1
