23
gdb 122030	5.64442	0.47426	0.45204	1.361	79.56	-0.2589	0.0692	0.328	2390.2621	0.202867	-462.550125	-462.538341	-462.537396	-462.588356	40.914	
O	-0.0280614914	 1.4511256856	-0.0835445211	-0.420569
C	 0.0449360579	 0.0338599956	-0.0400451983	-0.075148
C	-1.3764650446	-0.5094066536	 0.0054504854	-0.164835
C	-1.427889824	-2.0381387592	 0.0607839052	-0.208969
C	-2.8563246668	-2.5976273038	 0.0398496302	 0.114489
O	-3.573946936	-2.1606972401	-1.1165197755	-0.428556
C	-2.8802705615	-4.1237500894	 0.1686850385	-0.188407
C	-4.2899356489	-4.6985189247	 0.2227234762	-0.076741
O	-4.1778555915	-6.1121964479	 0.3160436753	-0.424224
H	 0.8684222985	 1.797826204	-0.1073500987	 0.284239
H	 0.5678702075	-0.3653616146	-0.9255236927	 0.07995
H	 0.6052878507	-0.3085696081	 0.8461824506	 0.080747
H	-1.8826885792	-0.0853615923	 0.8814848347	 0.103335
H	-1.9242514736	-0.1537100772	-0.872584743	 0.117313
H	-0.8737170354	-2.4642686122	-0.7898752448	 0.083591
H	-0.9212245557	-2.4015790085	 0.9644815075	 0.096895
H	-3.4157018786	-2.1596096306	 0.877732013	 0.087288
H	-3.122124802	-2.5187159368	-1.8896742184	 0.276376
H	-2.347858752	-4.5739608414	-0.6809198675	 0.093252
H	-2.3374021041	-4.4272590913	 1.0716297245	 0.10496
H	-4.8245192966	-4.2826697336	 1.0929801204	 0.082889
H	-4.844517862	-4.3934467032	-0.6753417114	 0.097262
H	-5.0649087709	-6.4829199568	 0.3043627399	 0.284864
48.9092	68.4881	79.2605	95.1571	117.7258	160.2188	196.6984	262.4658	268.942	273.436	301.8068	323.6624	377.1628	453.7455	517.4922	578.0103	759.0179	798.8219	848.0102	913.7674	982.5167	1007.4812	1023.576	1057.5649	1066.3812	1077.2071	1099.2531	1118.9167	1122.764	1203.9723	1210.286	1223.3836	1249.043	1282.0994	1293.5691	1303.5959	1308.5297	1325.8527	1360.4755	1374.4194	1399.2056	1419.9022	1459.8725	1463.9943	1476.2317	1488.301	1502.3046	1529.0512	1531.2286	2952.0281	2964.5577	2976.0631	2992.3385	3012.7897	3020.8488	3026.7926	3037.5702	3044.5455	3072.0339	3095.5939	3788.5825	3830.336	3830.4772
OCCCC(O)CCO	OCCC[C@@H](O)CCO	
InChI=1S/C6H14O3/c7-4-1-2-6(9)3-5-8/h6-9H,1-5H2	InChI=1S/C6H14O3/c7-4-1-2-6(9)3-5-8/h6-9H,1-5H2/t6-/m1/s1
