23
gdb 105518	1.77772	1.70796	1.12615	1.8655	81.23	-0.2343	0.0702	0.3044	1229.3193	0.203834	-425.414375	-425.404014	-425.403069	-425.449342	38.671	
C	 0.1903826126	 1.4642281425	 0.0153787093	-0.393117
C	 0.0988766736	-0.0608402734	-0.1123925234	-0.242996
C	-1.3014633101	-0.6281448247	 0.1302520103	 0.457194
C	-1.3584653787	-2.155869109	 0.4043142069	-0.335243
C	-1.8603908288	-1.7452217017	 1.8000481073	-0.062439
O	-1.7213180065	-0.3424411987	 1.4951024863	-0.3292
C	-2.367129328	-0.1107029986	-0.8478127799	 0.069927
C	-2.0056309833	-0.3146848837	-2.3217408774	-0.411493
O	-3.5768032019	-0.7975977228	-0.53249103	-0.438727
H	 1.2338394535	 1.792061836	-0.0131832763	 0.110014
H	-0.3371543723	 1.9822450612	-0.791943194	 0.112647
H	-0.2426424041	 1.7882590753	 0.9659576034	 0.140447
H	 0.4656697238	-0.3923139806	-1.0914903941	 0.095299
H	 0.7578554909	-0.518435234	 0.6341210556	 0.098009
H	-2.0718230539	-2.7117061287	-0.2020326966	 0.120644
H	-0.3846842077	-2.6489404555	 0.3842770687	 0.096585
H	-2.9024420977	-2.0088577819	 2.0108473236	 0.107533
H	-1.2312511534	-2.0420193155	 2.6479954861	 0.092571
H	-2.4904586372	 0.9632701039	-0.6426462255	 0.077432
H	-2.8488560417	-0.0215422081	-2.9569094794	 0.104801
H	-1.1440796733	 0.2888229122	-2.620616628	 0.122147
H	-1.7845383396	-1.367369882	-2.52570704	 0.125047
H	-4.2929491063	-0.3730475322	-1.0131138028	 0.282918
84.4159	103.3092	114.2754	199.7982	209.2656	211.0923	244.7727	283.0533	299.3141	356.7891	389.2086	428.9764	479.7515	575.5898	642.8341	767.9499	792.3261	856.0193	881.1906	924.9703	938.9419	974.4013	997.1575	1025.8025	1042.3786	1050.6994	1095.8059	1123.481	1149.2004	1166.005	1168.9387	1213.7267	1251.9838	1254.812	1281.8526	1316.0432	1346.0851	1361.0057	1380.5545	1404.8312	1406.1299	1426.4418	1476.0271	1481.4894	1495.911	1499.911	1504.1757	1510.7075	1523.825	2992.5849	3020.2478	3030.1214	3033.7105	3041.1693	3064.8673	3066.4993	3082.2105	3098.0671	3104.8251	3117.3199	3120.6066	3152.3206	3834.9474
CCC1(CCO1)C(C)O	CC[C@]1(CCO1)[C@@H](C)O	
InChI=1S/C7H14O2/c1-3-7(6(2)8)4-5-9-7/h6,8H,3-5H2,1-2H3	InChI=1S/C7H14O2/c1-3-7(6(2)8)4-5-9-7/h6,8H,3-5H2,1-2H3/t6-,7+/m1/s1
