18
gdb 113602	3.47777	0.73814	0.64119	0.8257	98.27	-0.2265	-0.0218	0.2047	1738.8386	0.145149	-364.729775	-364.720118	-364.719173	-364.764834	35.202	
C	 0.3693937723	 1.6428239732	-0.0136243724	-0.377074
C	-0.1922035905	 0.2335684607	-0.1765352344	-0.117377
N	 0.5376562513	-0.4769404882	-1.2277983631	-0.073843
C	 1.7057730289	-1.23418543	-0.8239341156	-0.241233
C	 0.4579122694	-1.9507765611	-1.2622205705	-0.235541
C	-0.3181980431	-2.6926206543	-0.3138029953	 0.475099
C	-1.0112470908	-3.3390697385	 0.4422104424	-0.303013
C	-1.7771885176	-4.0621138531	 1.3012865701	 0.297518
C	-2.4597794504	-4.7040102495	 2.0638920592	-0.561635
H	 1.4159887987	 1.6151992693	 0.3073714809	 0.118103
H	 0.3202519915	 2.1901160749	-0.9590489438	 0.128796
H	-0.1995509614	 2.1956250681	 0.7399071133	 0.116388
H	-0.1595616379	-0.3030699257	 0.7848806523	 0.099655
H	-1.2436963561	 0.2774966045	-0.4810717037	 0.112602
H	 2.5614546001	-1.2020537803	-1.4929978468	 0.124303
H	 1.9455863302	-1.2865655803	 0.2370432103	 0.122565
H	 0.4311151062	-2.3524527877	-2.2731333007	 0.122537
H	-3.0573789807	-5.269549422	 2.7347698677	 0.19215
62.6188	81.9843	109.6605	176.2242	220.7896	250.2614	268.1408	364.6672	401.1961	482.3772	514.2596	533.5747	566.6887	602.1459	605.5228	710.8199	737.4032	809.6521	876.0593	937.6863	980.2407	1044.3159	1069.1443	1109.9868	1116.6018	1131.0191	1200.3562	1210.3369	1309.0472	1317.1563	1373.5674	1385.559	1410.129	1487.901	1488.9988	1501.5966	1517.8506	2178.5614	2348.3023	2980.6052	3039.5383	3062.2412	3094.1505	3108.9436	3120.7409	3124.1228	3185.572	3504.5392
CCN1CC1C#CC#C	CCN1C[C@H]1C#CC#C	
InChI=1S/C8H9N/c1-3-5-6-8-7-9(8)4-2/h1,8H,4,7H2,2H3	InChI=1S/C8H9N/c1-3-5-6-8-7-9(8)4-2/h1,8H,4,7H2,2H3/t8-,9?/m1/s1
