15
gdb 133116	2.58952	1.57973	0.9875	3.1887	72.49	-0.2266	-0.0198	0.2068	1123.4999	0.113844	-458.147055	-458.138971	-458.138027	-458.180444	28.827	
C	-0.0035675581	 1.4671795136	 0.0254479296	-0.316273
N	-0.0512041323	 0.0197338332	-0.0464770373	-0.365501
C	-1.2100295458	-0.6809216428	-0.0173667367	 0.32931
N	-2.3820453771	-0.0372346425	-0.0315467432	-0.341507
C	-3.4850761881	-0.7918220288	-0.0249479354	 0.06573
N	-3.5698918139	-2.1156711223	 0.0023542441	-0.274763
C	-2.3888486411	-2.7653472919	 0.0238513115	-0.086443
C	-1.1982460095	-2.0914651117	 0.0138191713	 0.160249
F	-0.0134611866	-2.7264169651	 0.0368939017	-0.087867
H	 1.0154057664	 1.7932820665	-0.1915449255	 0.127026
H	-0.6827002327	 1.9021089938	-0.7110826736	 0.156523
H	-0.2951224438	 1.8438209687	 1.0138119589	 0.134679
H	 0.7975975292	-0.5063325627	 0.0696199823	 0.258897
H	-4.4263015902	-0.2471857375	-0.0408225768	 0.115173
H	-2.4024714564	-3.8518598903	 0.0497038293	 0.124766
59.5907	100.5867	173.3618	192.1598	312.272	320.6328	395.0544	462.8041	528.728	545.3167	613.7096	632.3598	792.5689	797.2546	895.1035	949.1908	1000.0723	1090.2442	1125.8039	1156.78	1167.5924	1217.8952	1283.1616	1336.5142	1362.8991	1443.9507	1453.412	1469.497	1479.1972	1516.947	1559.9713	1618.6933	1652.0426	3025.8733	3099.8151	3140.5745	3161.509	3168.3378	3670.4035
CNC1=NC=NC=C1F	CNc1ncncc1F	
InChI=1S/C5H6FN3/c1-7-5-4(6)2-8-3-9-5/h2-3H,1H3,(H,7,8,9)	InChI=1S/C5H6FN3/c1-7-5-4(6)2-8-3-9-5/h2-3H,1H3,(H,7,8,9)
