16
gdb 26304	3.51366	1.06777	0.98083	2.8143	68.3	-0.225	0.0102	0.2352	1238.2715	0.123314	-475.038324	-475.029782	-475.028837	-475.071969	31.403	
C	-0.0893234596	 1.5624580299	-0.0501405829	-0.406867
C	 0.0083477106	 0.0330248327	-4.3697*^-6	 0.001602
O	-1.277281754	-0.573351465	 0.0745365414	-0.422496
C	 0.7870083641	-0.5177508403	-1.1481110034	 0.3467
C	 1.8989896235	-1.2331616385	-1.2774782904	-0.175326
O	 2.136696305	-1.4738354265	-2.6210795422	-0.218704
C	 1.1095732476	-0.8827906056	-3.3169538175	 0.500573
N	 0.9151599261	-0.8571632032	-4.5564263458	-0.578446
O	 0.2731374604	-0.2840134303	-2.4186026166	-0.245529
H	 0.9023652313	 2.0213381984	 0.0070200859	 0.124953
H	-0.5599773078	 1.8876777995	-0.983238284	 0.134836
H	-0.6935050989	 1.9141498332	 0.7895297501	 0.13156
H	 0.5236991604	-0.2715694975	 0.9169396508	 0.10896
H	-1.7420585009	-0.3717691422	-0.7461154199	 0.293856
H	 2.6037197798	-1.635193207	-0.5718481675	 0.16563
H	 1.6498852523	-1.3605959777	-5.0461019982	 0.238697
61.1373	110.4773	157.9822	214.5529	246.3936	312.104	345.5047	424.3712	461.4725	524.0787	643.2711	677.2428	732.0868	759.4372	764.4694	777.2604	897.5967	913.1026	981.0849	1005.1348	1023.2006	1079.6224	1094.2141	1105.8178	1203.6277	1264.6064	1285.8203	1328.2779	1367.6351	1401.3838	1418.7413	1489.3685	1495.7918	1738.3456	1813.9001	3042.508	3065.0765	3116.8434	3130.8416	3305.1993	3549.8127	3799.0529
CC(O)C1=COC(=N)O1	C[C@@H](O)C1=CO[C@H]([NH])O1	
InChI=1S/C5H7NO3/c1-3(7)4-2-8-5(6)9-4/h2-3,6-7H,1H3	InChI=1S/C5H8NO3/c1-3(7)4-2-8-5(6)9-4/h2-3,5-7H,1H3/t3-,5+/m1/s1
