18
gdb 54506	3.14608	1.42518	1.14609	2.6763	77.52	-0.2271	-0.0171	0.21	1100.2908	0.14713	-401.949541	-401.94129	-401.940346	-401.98271	31.263	
C	 0.1197374321	 1.3248160351	-0.652733948	-0.495917
C	-0.0477660486	 0.1093357532	 0.2357302902	 0.298977
O	 0.7865740033	-0.2245690403	 1.0495634942	-0.305991
C	-1.2980999846	-0.7069793716	 0.0733569641	 0.205412
C	-1.8871260925	-0.999636443	-1.2824701928	-0.268532
N	-2.5641519139	-0.0633363499	-0.4017804048	-0.139626
C	-3.6552516422	-0.658087259	 0.4090491433	-0.215391
C	-2.9982043715	-1.6872221351	 1.3030599374	-0.099647
C	-1.6782565875	-1.691492236	 1.1284641015	-0.13348
H	 0.9304399459	 1.9427216295	-0.2654523175	 0.14074
H	 0.37666877	 1.0102445241	-1.6712126893	 0.140842
H	-0.8142341355	 1.8892104043	-0.7137276441	 0.157821
H	-1.4604864562	-0.5521220919	-2.1762261709	 0.119614
H	-2.2965412477	-1.9992882693	-1.4131956064	 0.121667
H	-4.141257179	 0.1368870318	 0.9893258145	 0.121813
H	-4.4203586466	-1.0829673447	-0.2526817261	 0.119192
H	-3.55638395	-2.3234045843	 1.979431156	 0.107187
H	-0.9449995755	-2.2868297128	 1.6532936587	 0.12532
55.7668	121.553	164.8751	195.629	290.5947	381.5452	417.184	459.4814	505.6814	587.0714	623.0637	733.2914	749.4301	762.6742	799.3528	897.3774	927.3	946.6323	961.2619	962.8155	1001.462	1037.5885	1054.5545	1106.664	1119.7063	1132.3167	1164.2563	1219.7702	1273.0335	1326.6655	1339.9958	1365.3511	1389.6671	1466.775	1469.3204	1487.3411	1501.5481	1672.6441	1790.7232	3018.7337	3041.6611	3051.394	3097.0611	3110.7977	3159.2284	3187.9696	3205.2481	3248.728
CC(=O)C12CN1CC=C2	CC(=O)[C@]12CN1CC=C2	
InChI=1S/C7H9NO/c1-6(9)7-3-2-4-8(7)5-7/h2-3H,4-5H2,1H3	InChI=1S/C7H9NO/c1-6(9)7-3-2-4-8(7)5-7/h2-3H,4-5H2,1H3/t7-,8?/m0/s1
