13
gdb 21304	3.53514	1.95995	1.2725	4.2512	56.77	-0.236	-0.0181	0.2179	891.6123	0.095641	-431.867258	-431.859886	-431.858942	-431.898963	26.44	
C	-0.015411382	 1.3790594001	 0.0033031668	-0.249372
O	-0.0237147948	-0.0531857561	-0.0208977506	-0.269411
C	 0.5847187359	-0.6120040762	-1.0677904744	 0.387693
N	 1.1770012703	 0.0072908178	-2.0457725646	-0.185179
O	 1.654884239	-0.9881694236	-2.865081153	-0.184972
N	 1.3519504538	-2.2439806344	-2.3621632702	-0.1669
C	 0.6876922528	-2.0302967733	-1.2606629267	 0.285076
N	 0.1259897427	-3.0002810797	-0.4631709299	-0.5914
H	 1.0117688084	 1.755758843	 0.0227819133	 0.148111
H	-0.524103606	 1.7785584377	-0.8791079383	 0.15006
H	-0.5450164212	 1.6660793277	 0.9114245366	 0.140118
H	 0.5187182721	-3.9222994642	-0.587785007	 0.269165
H	 0.0334619591	-2.7357418987	 0.506612508	 0.267011
107.9575	173.2406	183.0618	271.3042	289.9403	330.9466	428.5079	546.4387	578.1596	610.6621	655.596	768.4152	798.1477	894.8729	941.7814	1041.4805	1047.5802	1152.6673	1180.8192	1221.2962	1334.0666	1468.683	1480.7032	1489.3935	1501.1502	1613.5417	1633.0441	1678.1353	3041.5805	3113.9915	3160.1011	3569.6359	3674.4997
COC1=NON=C1N	COc1nonc1N	
InChI=1S/C3H5N3O2/c1-7-3-2(4)5-8-6-3/h1H3,(H2,4,5)	InChI=1S/C3H5N3O2/c1-7-3-2(4)5-8-6-3/h1H3,(H2,4,5)
