19
gdb 89164	2.33479	1.62425	1.19018	4.0901	77.19	-0.2451	-0.0398	0.2053	1097.6611	0.158519	-423.014611	-423.006074	-423.00513	-423.047336	32.926	
C	 0.1432957178	 1.5760170111	 0.1828031682	-0.494154
C	 0.066570488	 0.0806805626	 0.0667865588	 0.323626
C	-1.2072258968	-0.7095171667	-0.2657617712	-0.349794
C	-0.7853408192	-1.7758235989	 0.8092771996	 0.163039
O	-0.7985153538	-3.1326394488	 0.5096513399	-0.440799
C	 0.5373978615	-1.0129158491	 1.0152098112	-0.175217
C	 1.3166715081	-0.7572704935	-0.2626535488	-0.154329
C	 1.4374247809	-1.6204860416	-1.4551370864	 0.142261
O	 0.7710710117	-2.5990951992	-1.7290137013	-0.284546
H	 1.0929216008	 1.8984768899	 0.6213104382	 0.122281
H	 0.0445651895	 2.0583478363	-0.7965619674	 0.128664
H	-0.6661474366	 1.9533830903	 0.8179735323	 0.127859
H	-2.1225461631	-0.1718165513	-0.0065968638	 0.105792
H	-1.2951294935	-1.0836977212	-1.2883710201	 0.114194
H	-1.39733747	-1.6489543672	 1.7076109127	 0.093092
H	-0.3011229721	-3.2340342924	-0.318424595	 0.296261
H	 1.063769989	-0.9121958686	 1.9589218432	 0.090602
H	 2.2212029037	-0.1760837207	-0.0951380777	 0.09803
H	 2.2217468842	-1.2852774312	-2.1676668522	 0.093139
123.6528	180.8317	199.1883	220.4828	234.0005	256.5726	311.2386	408.0147	429.7939	527.0173	609.4085	656.6296	670.4111	710.1749	832.7304	855.6677	890.2019	935.6501	952.8452	966.2406	989.3977	1030.	1045.7441	1067.7332	1124.0025	1153.8297	1162.8382	1221.6629	1236.6551	1246.0839	1298.4068	1343.9948	1350.856	1414.5762	1434.7006	1449.3511	1480.369	1483.4688	1487.9672	1496.1809	1780.2677	2899.7594	3024.6714	3061.1683	3067.1926	3085.2819	3100.1325	3118.7102	3133.566	3164.3715	3658.0793
CC12CC(O)C1C2C=O	C[C@]12C[C@@H](O)[C@H]1[C@H]2C=O	
InChI=1S/C7H10O2/c1-7-2-5(9)6(7)4(7)3-8/h3-6,9H,2H2,1H3	InChI=1S/C7H10O2/c1-7-2-5(9)6(7)4(7)3-8/h3-6,9H,2H2,1H3/t4-,5-,6-,7-/m1/s1
