16
gdb 35651	4.12195	0.9323	0.79936	4.0464	84.58	-0.266	-0.0473	0.2187	1375.1945	0.12452	-363.610844	-363.602528	-363.601584	-363.644097	30.87	
C	-0.095900497	-1.2408250696	-0.0964831582	-0.447335
C	-0.0453265997	-0.0412458884	-0.0466966114	 0.305956
C	 0.0183787989	 1.4135213067	 0.0262178516	-0.194954
C	-0.6036537735	 2.0179999073	 1.3242429956	-0.229984
C	 0.2355012524	 3.2789089279	 1.6308733622	-0.320653
C	 1.5423988536	 2.9907936134	 0.9101358166	 0.191102
C	 1.4276377388	 1.9770663887	 0.044347915	-0.148446
C	 2.7172754691	 3.7632635318	 1.1207450004	 0.20436
N	 3.6571057211	 4.4111819508	 1.3179655382	-0.331544
H	-0.1417439327	-2.3008582768	-0.1434956109	 0.202901
H	-0.4983083812	 1.8215220006	-0.857157386	 0.125371
H	-1.6686953535	 2.2273611058	 1.2103881702	 0.118531
H	-0.4891763635	 1.2914054132	 2.1323574045	 0.130253
H	-0.2220378238	 4.1907308738	 1.2266059485	 0.128593
H	 0.3760920036	 3.4448163914	 2.7025452291	 0.131124
H	 2.2126031072	 1.6083747035	-0.6033829254	 0.134725
78.9152	123.8686	140.7065	190.7526	246.1286	371.1388	461.0694	497.297	532.7205	557.2992	583.7715	621.606	641.0354	650.4469	834.5054	853.6224	903.3031	908.6954	973.7703	1021.3056	1031.2443	1075.4899	1151.7635	1175.0127	1231.9253	1266.5612	1279.9432	1296.1346	1329.848	1355.8545	1485.9058	1500.7808	1677.3068	2239.9699	2339.0441	2976.7366	3032.5674	3074.0538	3089.8434	3127.856	3225.4477	3502.8027
C#CC1CCC(=C1)C#N	C#C[C@H]1CCC(=C1)C#N	
InChI=1S/C8H7N/c1-2-7-3-4-8(5-7)6-9/h1,5,7H,3-4H2	InChI=1S/C8H7N/c1-2-7-3-4-8(5-7)6-9/h1,5,7H,3-4H2/t7-/m0/s1
