19
gdb 114469	3.34242	1.3651	1.23624	1.9562	74.79	-0.2417	0.0701	0.3119	1086.2025	0.158798	-422.945098	-422.937218	-422.936274	-422.977656	30.466	
C	-0.1702924268	 1.3745378386	 0.1133277429	-0.234412
O	 0.3747999667	 0.1028885313	-0.152640378	-0.237
C	 0.7739890796	-0.5812862719	 0.9992721375	 0.167027
C	-0.3086670115	-1.2018860328	 1.9555538328	-0.284929
C	 0.3887122877	-2.5890217055	 1.811317645	-0.067828
C	-0.1806623719	-3.5165101306	 0.7046270824	 0.012448
O	-0.7241575331	-2.6794264527	-0.3173072296	-0.228031
C	 0.688496317	-2.8960683416	-0.3146931024	 0.037835
C	 1.3624125323	-1.9867341839	 0.742756093	-0.127286
H	 0.5493052417	 2.0234133213	 0.6388188317	 0.098899
H	-0.4197369924	 1.829299277	-0.8482957638	 0.126713
H	-1.084712911	 1.3125591828	 0.7217935805	 0.109537
H	 1.4835211989	 0.03402358	 1.5773790403	 0.061135
H	-0.3096597254	-0.7923492851	 2.967823035	 0.093385
H	-1.3172047981	-1.1754915991	 1.5412545131	 0.121082
H	 0.7673839623	-3.0801272063	 2.7061299678	 0.073273
H	-0.5897035986	-4.5172055536	 0.792213781	 0.101106
H	 1.1207295137	-3.2879095254	-1.2283487362	 0.10416
H	 2.4428439491	-2.1184563825	 0.808490327	 0.072885
86.2253	125.8398	178.5788	217.6989	302.1042	359.1941	434.9368	479.7845	613.4394	711.4874	727.6872	793.7581	817.26	836.1806	867.6588	888.5825	912.8686	967.7849	992.274	1030.7663	1035.4497	1043.8526	1071.7578	1101.7769	1131.1317	1178.0925	1185.8223	1198.0242	1220.6988	1227.0016	1248.4316	1253.6249	1276.8441	1296.695	1317.5096	1376.7001	1393.418	1458.7006	1481.2386	1487.6116	1508.864	2953.7668	2970.5925	3020.9975	3073.267	3107.6355	3114.8902	3127.319	3141.114	3170.3925	3186.7961
COC1CC2C3OC3C12	CO[C@H]1C[C@H]2[C@H]3O[C@H]3[C@@H]12	
InChI=1S/C7H10O2/c1-8-4-2-3-5(4)7-6(3)9-7/h3-7H,2H2,1H3	InChI=1S/C7H10O2/c1-8-4-2-3-5(4)7-6(3)9-7/h3-7H,2H2,1H3/t3-,4+,5-,6-,7+/m1/s1
