23
gdb 100050	2.30257	1.30412	1.06373	1.7123	82.05	-0.2523	0.0824	0.3346	1284.9386	0.201572	-425.399513	-425.388482	-425.387538	-425.435681	40.183	
C	-1.468397577	 0.2388295865	 1.9284313685	-0.243209
O	-1.2639719903	-0.5231847665	 0.7590924048	-0.279649
C	 0.0904073439	-0.7612369303	 0.3402998275	 0.334739
C	 0.8158941946	 0.5654288925	 0.0539685619	-0.436779
C	 0.8805491098	-1.5806665731	 1.3709952826	-0.423233
C	-0.051230771	-1.5206331682	-0.9920527432	 0.030934
O	 0.4620205044	-2.8528318409	-1.0928537192	-0.259168
C	-0.9501677774	-2.6576407324	-1.2498175396	 0.084014
C	-1.8783270503	-3.3053855114	-0.2559642816	-0.410977
H	-1.0157319371	-0.2176625129	 2.8194513715	 0.107484
H	-1.0932822298	 1.2675466831	 1.837380138	 0.106445
H	-2.5503796073	 0.2827963581	 2.0788793852	 0.126563
H	 1.0032000641	 1.1337516435	 0.9686601875	 0.114653
H	 1.7843404597	 0.3678889358	-0.4156759185	 0.125199
H	 0.2232032561	 1.1852754194	-0.6261032044	 0.121868
H	 0.3662967561	-2.5077004138	 1.6277686846	 0.128601
H	 1.8570512362	-1.849931121	 0.961350443	 0.130722
H	 1.0454953102	-1.0027752382	 2.2847972119	 0.107301
H	 0.1955282452	-0.905661961	-1.8599076491	 0.078798
H	-1.2771518005	-2.7675760023	-2.2872394642	 0.083045
H	-1.5661000295	-3.1386344578	 0.7735562748	 0.131337
H	-2.8855299859	-2.892759281	-0.3715060865	 0.124484
H	-1.929365814	-4.3834814182	-0.4441074155	 0.116828
47.0122	66.6566	139.9419	161.7764	175.0058	227.7242	242.133	276.1958	286.6164	321.4889	370.59	380.9886	399.5878	443.5084	524.2134	615.7287	726.4433	786.0362	827.9751	894.7104	920.705	961.3843	986.22	1010.1763	1035.1085	1088.3165	1110.7266	1169.1842	1175.0763	1179.0433	1188.1529	1196.472	1218.9339	1271.3077	1331.8536	1391.163	1398.4313	1415.6803	1425.0451	1461.0051	1472.2334	1475.2113	1479.3241	1480.47	1496.0227	1499.7747	1506.49	1508.4419	1514.8947	2994.9587	3037.7135	3041.9487	3045.904	3056.3185	3066.9085	3084.3544	3102.4964	3106.4018	3111.3856	3117.7005	3124.0517	3144.6625	3164.0751
COC(C)(C)C1OC1C	COC(C)(C)[C@H]1O[C@H]1C	
InChI=1S/C7H14O2/c1-5-6(9-5)7(2,3)8-4/h5-6H,1-4H3	InChI=1S/C7H14O2/c1-5-6(9-5)7(2,3)8-4/h5-6H,1-4H3/t5-,6-/m0/s1
