16
gdb 7570	3.34736	1.79954	1.43805	4.102	60.67	-0.2403	0.0222	0.2625	888.2534	0.13113	-417.060582	-417.052449	-417.051505	-417.093583	29.753	
N	-0.0680453001	 1.374744379	 0.0390233863	-0.532931
C	 0.0832233658	 0.0269536278	-0.0200209557	 0.365172
O	 1.1612277711	-0.5369962102	-0.064163641	-0.37251
C	-1.2337020202	-0.7578797022	-0.0568941938	 0.145981
N	-2.3622904346	 0.0631647639	 0.369507566	-0.585652
C	-1.4897340733	-1.4708803713	-1.4132341357	-0.089955
O	-1.5428582577	-2.7623795199	-0.7887739171	-0.271018
C	-1.1276115352	-2.212538062	 0.4798708445	-0.106054
H	 0.750440268	 1.9548589444	-0.0402534352	 0.260429
H	-0.9925251976	 1.768493446	-0.0320590228	 0.270323
H	-3.2355823916	-0.4179243215	 0.1750046733	 0.242151
H	-2.33073461	 0.206741314	 1.3761996759	 0.237384
H	-2.4326066396	-1.1957402223	-1.9035142909	 0.09943
H	-0.6648333914	-1.3910857757	-2.1301194066	 0.120572
H	-0.1095440132	-2.5122012514	 0.7443529725	 0.128937
H	-1.8273256107	-2.4609202785	 1.2875638603	 0.087743
53.1671	73.1476	222.5055	264.5334	293.2633	360.5545	380.9586	422.3385	438.2656	545.523	643.1292	670.4835	765.8674	842.1245	870.3373	917.9743	966.0452	980.8328	1017.7164	1045.2262	1097.5969	1136.0146	1162.3665	1167.9947	1263.4495	1281.216	1307.3458	1374.0939	1394.5658	1494.5487	1522.4408	1582.7633	1656.8971	1795.8463	3009.935	3022.4981	3068.6075	3095.6581	3480.3514	3559.7974	3583.8747	3727.4627
NC(=O)C1(N)COC1	NC(=O)C1(N)COC1	
InChI=1S/C4H8N2O2/c5-3(7)4(6)1-8-2-4/h1-2,6H2,(H2,5,7)	InChI=1S/C4H8N2O2/c5-3(7)4(6)1-8-2-4/h1-2,6H2,(H2,5,7)
