23
gdb 88819	2.95855	1.06647	0.87427	1.2484	86.59	-0.2484	0.0744	0.3227	1419.0535	0.205401	-388.265096	-388.255424	-388.25448	-388.299903	36.729	
C	 0.0239124273	 1.5656513361	-0.2288014292	-0.405817
C	 0.0069303425	 0.0635946774	-0.0415939596	-0.000274
C	 1.2729838944	-0.7507264092	-0.1524658688	-0.309636
C	 0.5740901068	-0.6252027762	 1.1835917736	 0.000435
C	 1.1995730862	 0.1315161101	 2.3213277161	 0.016819
C	 0.3064986856	 0.6870106903	 3.4717614315	-0.235066
C	 1.4260166399	 0.2964313738	 4.4730982082	-0.248356
C	 2.0070427691	-0.6597990935	 3.3943523018	 0.109186
O	 1.4924095755	-1.9773229866	 3.4885511642	-0.433201
H	 0.9440769104	 2.0161586805	 0.1547031425	 0.112969
H	-0.0452554385	 1.8248575634	-1.2913790184	 0.113462
H	-0.8182674651	 2.0440669886	 0.2842063789	 0.114675
H	-0.8835978241	-0.4105873253	-0.4475689328	 0.078457
H	 1.2479672805	-1.7043702172	-0.6685231203	 0.106144
H	 2.2033760933	-0.2043107722	-0.2811676427	 0.100841
H	 0.0328397171	-1.507159735	 1.510699763	 0.09255
H	 1.8415251503	 0.9342002082	 1.9443986621	 0.064372
H	 0.0121970962	 1.7377136194	 3.4194793454	 0.092694
H	-0.5893751413	 0.0760910008	 3.6082388743	 0.107209
H	 2.1036661153	 1.1287849631	 4.6855397048	 0.097278
H	 1.1284549401	-0.1670975327	 5.4179962947	 0.088542
H	 3.0994273382	-0.6773094915	 3.2771365218	 0.054522
H	 1.8342430303	-2.3700928025	 4.297810589	 0.282197
49.7314	111.3252	119.9523	190.3136	203.8937	240.1533	281.5246	350.4612	372.3323	423.9332	478.5874	526.1482	695.6252	749.7331	777.7863	844.9918	862.045	886.9208	895.7017	914.7763	939.173	974.8139	991.9069	1031.6299	1043.1156	1064.0832	1088.0716	1110.7297	1127.0349	1151.6491	1184.9574	1198.2872	1204.259	1223.1795	1253.9209	1259.7449	1261.784	1282.6994	1305.8426	1334.38	1395.9075	1411.3326	1422.827	1439.936	1469.0386	1490.3151	1492.4307	1495.2828	1506.2481	2995.9608	3027.1612	3047.996	3055.1192	3064.4781	3083.1316	3098.7599	3101.8326	3119.7881	3120.938	3130.83	3162.4551	3204.7663	3816.9647
CC1CC1C1CCC1O	C[C@H]1C[C@H]1[C@H]1CC[C@H]1O	
InChI=1S/C8H14O/c1-5-4-7(5)6-2-3-8(6)9/h5-9H,2-4H2,1H3	InChI=1S/C8H14O/c1-5-4-7(5)6-2-3-8(6)9/h5-9H,2-4H2,1H3/t5-,6+,7+,8+/m0/s1
