19
gdb 85886	1.83907	1.68585	1.08373	4.5748	77.23	-0.2467	0.01	0.2567	1188.0534	0.1573	-419.197819	-419.188245	-419.187301	-419.231927	35.418	
C	 0.0260004488	 1.4644438654	-0.1067800048	-0.333463
N	-0.04005859	 0.0371127992	 0.1250715308	-0.08303
C	-1.3041249497	-0.5739169186	 0.5829386179	-0.227511
C	-0.4679148362	-1.6080713873	 1.3904172813	 0.399252
C	-0.9237715666	-2.0172957509	 2.7728075227	-0.434649
O	-0.1881488192	-2.7794168781	 0.6690359786	-0.463742
C	 0.6802571951	-0.5267585068	 1.2813616267	-0.20305
C	 2.0440816866	-0.9761445211	 1.0225262451	 0.305982
N	 3.1201508029	-1.3414652769	 0.8116804251	-0.327656
H	 1.0531146769	 1.7506796581	-0.353013318	 0.140321
H	-0.6107248806	 1.7255528002	-0.9576024171	 0.132164
H	-0.3024085598	 2.0578643196	 0.7663040621	 0.098992
H	-1.8969665773	 0.0863727941	 1.2368144986	 0.091259
H	-1.9428355335	-0.9707103175	-0.2121568681	 0.11369
H	-1.8202361143	-2.6397429389	 2.6978048153	 0.136338
H	-0.1445370125	-2.6051382041	 3.2663824456	 0.142209
H	-1.1535900824	-1.1446436423	 3.3891545953	 0.116716
H	 0.1266671197	-2.5264810843	-0.2075564176	 0.295696
H	 0.6789808721	 0.1351344502	 2.1634683202	 0.100482
79.4678	121.342	153.2849	202.9693	229.8625	265.0183	309.4473	325.5786	363.1939	395.46	421.6053	433.2811	559.5548	582.3119	612.0165	806.7645	820.9526	909.746	962.1215	977.6971	996.3052	1047.8342	1095.248	1117.4021	1150.4236	1165.4502	1187.7422	1222.1935	1246.4556	1283.8721	1305.554	1359.7051	1396.3312	1437.4299	1452.7082	1481.446	1488.0299	1494.5329	1497.2246	1513.1403	2356.2934	2940.8877	2962.9169	2974.2152	3046.9941	3069.61	3076.4884	3112.11	3120.2544	3127.82	3788.4712
CN1CC(C)(O)C1C#N	CN1C[C@@](C)(O)[C@H]1C#N	
InChI=1S/C6H10N2O/c1-6(9)4-8(2)5(6)3-7/h5,9H,4H2,1-2H3	InChI=1S/C6H10N2O/c1-6(9)4-8(2)5(6)3-7/h5,9H,4H2,1-2H3/t5-,6-/m1/s1
