18
gdb 106879	1.97294	1.85571	1.14961	2.0654	75.97	-0.2097	-0.0289	0.1809	1098.9214	0.146132	-439.031027	-439.022187	-439.021243	-439.064615	32.523	
C	 0.3469211668	 0.5001401808	-0.7082962872	-0.271546
O	-0.2340984248	 0.251921357	 0.5692494368	-0.26904
C	 0.5127438491	-0.4346743828	 1.4746499141	 0.385059
C	 1.9314874029	-0.8507616453	 1.3707420583	-0.371095
C	 0.93308022	-1.9686123941	 1.6155973496	 0.159023
N	 0.5641185529	-1.9494938985	 3.0432767077	-0.373106
C	-0.0067408384	-0.5654534554	 2.9013486891	-0.23339
C	 0.6927243255	-3.0544868015	 0.6794813982	 0.054856
O	 1.011932758	-3.0447609105	-0.4937053221	-0.295115
H	 0.5800505069	-0.4355533085	-1.2268741682	 0.157095
H	-0.4019918762	 1.0555485717	-1.2749440112	 0.13595
H	 1.2565158661	 1.1066120258	-0.6189537946	 0.122794
H	 2.3464379673	-0.8734842173	 0.3692278026	 0.147221
H	 2.6376584247	-0.6331292001	 2.1700749279	 0.124304
H	-0.1804094964	-2.615500176	 3.2312352384	 0.224364
H	 0.3787946086	 0.1533879443	 3.632418178	 0.113827
H	-1.100129088	-0.5490644436	 2.9133845874	 0.122936
H	 0.141303185	-3.9198546362	 1.1154963752	 0.065863
92.6925	100.1414	172.2395	199.4364	218.9129	262.281	293.0691	407.3604	412.4164	487.9301	539.0443	640.0845	697.0633	754.3747	800.6179	826.3988	953.0477	960.2821	998.6211	1005.582	1029.7787	1078.2217	1103.9548	1135.035	1179.9446	1186.6036	1215.438	1260.6809	1299.761	1307.7687	1369.206	1406.0357	1435.4016	1465.8625	1490.1635	1495.0162	1509.3614	1515.1306	1764.6668	2857.3475	3019.5749	3041.9156	3093.4996	3099.7741	3101.6887	3140.8172	3218.6896	3501.6275
COC12CC1(NC2)C=O	CO[C@]12C[C@]1(NC2)C=O	
InChI=1S/C6H9NO2/c1-9-6-2-5(6,4-8)7-3-6/h4,7H,2-3H2,1H3	InChI=1S/C6H9NO2/c1-9-6-2-5(6,4-8)7-3-6/h4,7H,2-3H2,1H3/t5-,6-/m0/s1
