20
gdb 72933	2.72059	1.74733	1.50649	0.2486	77.54	-0.2094	0.0611	0.2704	983.3957	0.171911	-403.07713	-403.069482	-403.068538	-403.109095	30.664	
C	-0.1996511017	 1.4484646185	-0.0155621923	-0.471861
C	 0.0356586688	-0.0450639725	-0.0167122479	 0.361625
C	-1.1866610814	-0.9942810569	-0.0871979582	-0.305564
C	-0.6869822792	-1.603669193	 1.2521619709	-0.169139
N	 0.4889461559	-0.6741022304	 1.2932462065	-0.180023
C	 1.7741506134	-1.1240806268	 0.6608435184	-0.045184
C	 1.8345220774	-2.4483496426	-0.1182842315	-0.097026
O	 1.2904710522	-1.8266562574	-1.3096089768	-0.289323
C	 1.3466825129	-0.5208435403	-0.7025111895	 0.037894
H	 0.7206918826	 1.992683319	 0.223641174	 0.118851
H	-0.5474805815	 1.7825512056	-1.0004744073	 0.117859
H	-0.9540757131	 1.7228554371	 0.728358535	 0.121698
H	-2.1532362621	-0.4879993835	-0.0367102883	 0.099238
H	-1.1761086367	-1.6757805339	-0.9384069431	 0.12277
H	-1.3444497368	-1.4317606398	 2.1097764552	 0.105142
H	-0.44041171	-2.6683471957	 1.2306554784	 0.103102
H	 2.656037887	-0.8462295482	 1.239485088	 0.085973
H	 2.8640281203	-2.7898553719	-0.289080116	 0.10381
H	 1.2347315968	-3.2963318585	 0.2272195034	 0.109607
H	 1.9087025451	 0.1981832112	-1.306200349	 0.070551
76.1229	217.8725	232.7462	261.94	307.8286	341.7473	471.5473	484.4535	569.3418	683.9349	745.6963	753.9581	831.2772	836.8525	874.125	902.0777	929.282	951.062	962.1162	981.927	1000.0953	1013.1372	1064.9615	1109.4179	1139.6194	1162.4985	1179.2092	1198.2401	1207.6566	1217.3693	1232.9742	1258.108	1276.3458	1302.0332	1310.9487	1328.901	1359.1676	1403.7474	1471.2047	1481.2527	1488.201	1497.4721	1531.4255	3014.0754	3023.3062	3047.5454	3060.3696	3072.3596	3073.9516	3091.0925	3091.4446	3095.7774	3103.4734	3136.7681
CC12CCN1C1COC21	C[C@]12CCN1[C@H]1CO[C@@H]21	
InChI=1S/C7H11NO/c1-7-2-3-8(7)5-4-9-6(5)7/h5-6H,2-4H2,1H3	InChI=1S/C7H11NO/c1-7-2-3-8(7)5-4-9-6(5)7/h5-6H,2-4H2,1H3/t5-,6+,7+/m0/s1
