20
gdb 61412	3.14111	0.86157	0.77375	1.1528	75.71	-0.2433	-0.0113	0.232	1535.3458	0.167143	-440.351406	-440.340087	-440.339143	-440.390158	38.561	
C	-0.1658018316	 1.6961530473	 0.1620981978	-0.398486
C	-0.0612250947	 0.16067162	 0.0648139401	-0.08308
C	 0.7818485431	-0.4246449218	 1.2010773435	-0.299541
C	 2.2733887161	-0.1501283164	 1.0708812906	 0.371041
C	 3.123995484	-0.5226146411	 2.2720469075	-0.471824
O	 2.7607830336	 0.3240689262	 0.0681210335	-0.301166
C	-1.4665009698	-0.4447558145	 0.0938539305	 0.399417
N	-2.0927395989	-0.4964878266	-1.1179546565	-0.526577
O	-2.0021534745	-0.8270364564	 1.1180618557	-0.370951
H	 0.8299530022	 2.1430484961	 0.1244336035	 0.140355
H	-0.7550620663	 2.1081751324	-0.662611723	 0.112099
H	-0.6515256399	 1.9874153533	 1.0992708134	 0.128063
H	 0.4262519812	-0.0869405076	-0.8847190608	 0.093567
H	 0.4216422892	-0.0699641995	 2.1735265852	 0.132368
H	 0.6580845032	-1.5152328515	 1.2476128543	 0.133191
H	 2.9065131783	-1.5427778328	 2.6057407286	 0.137692
H	 4.1816954109	-0.4259342256	 2.0243288702	 0.141226
H	 2.8861065896	 0.1414997553	 3.1113687678	 0.143563
H	-1.6522071827	-0.1894988002	-1.9667485284	 0.259831
H	-3.0418248629	-0.8302278665	-1.1541872134	 0.259213
18.7841	45.9595	64.3512	109.804	122.5022	141.4669	223.554	235.3239	286.0881	322.6121	334.0857	469.9993	494.296	579.8658	585.1602	617.9225	758.585	798.5442	811.7217	847.4873	927.0114	957.3848	987.1365	1049.633	1100.8308	1111.154	1146.0663	1174.3443	1240.4893	1259.1063	1333.3518	1354.0942	1382.5964	1397.2624	1412.0812	1443.527	1464.1897	1475.9993	1501.7766	1504.4942	1616.0849	1789.0378	1804.2158	3029.5461	3038.193	3040.8148	3048.3486	3072.5644	3098.2085	3108.5047	3132.2144	3152.1108	3604.2456	3742.4404
CC(CC(C)=O)C(N)=O	C[C@@H](CC(=O)C)C(=O)N	
InChI=1S/C6H11NO2/c1-4(6(7)9)3-5(2)8/h4H,3H2,1-2H3,(H2,7,9)	InChI=1S/C6H11NO2/c1-4(6(7)9)3-5(2)8/h4H,3H2,1-2H3,(H2,7,9)/t4-/m0/s1
