23
gdb 100043	2.50197	1.19378	1.00552	1.6537	81.73	-0.2593	0.08	0.3393	1330.3126	0.20286	-425.41984	-425.409291	-425.408347	-425.45485	39.872	
C	-0.4634874344	 1.6054794485	-0.7567518343	-0.394567
C	-0.4757081772	 0.1256667025	-0.3602904146	-0.179786
C	-1.8768886033	-0.5077257144	-0.2981499192	 0.325628
C	-2.7836648868	 0.1731186756	 0.7444773792	-0.423251
O	-2.4685748911	-0.3784316859	-1.5874874372	-0.470155
C	-1.7588285281	-1.9897125637	 0.0764882122	 0.017644
O	-2.7559213077	-2.8482262173	-0.498696753	-0.28556
C	-1.3681527961	-3.0923718697	-0.8176845709	 0.079602
C	-0.924649549	-2.9735474769	-2.2539762143	-0.440148
H	 0.564762625	 1.9608094803	-0.8742790835	 0.108746
H	-0.9864277949	 1.7522877878	-1.7051556231	 0.138971
H	-0.9440871044	 2.236149669	-0.0029352434	 0.115285
H	 0.1157119051	-0.4459224219	-1.0837343216	 0.102077
H	 0.009034247	-0.0066639923	 0.6153878886	 0.090669
H	-2.9916316745	 1.2035941016	 0.4496851476	 0.12659
H	-3.7384935466	-0.3581305263	 0.8149491912	 0.12114
H	-2.3229049636	 0.1778099795	 1.7383204781	 0.108024
H	-3.1254102364	-1.0868377794	-1.6435554349	 0.28515
H	-1.6064591516	-2.1520329959	 1.1456996476	 0.086107
H	-0.989481828	-3.9851044467	-0.3142893051	 0.09173
H	-1.260800795	-2.0416845832	-2.7066845341	 0.151518
H	 0.1692767674	-3.0151578693	-2.3020725137	 0.121011
H	-1.3105789858	-3.8189553721	-2.8340698419	 0.123577
71.7696	97.3637	156.814	205.3403	219.4984	227.1607	264.2705	284.5642	299.4387	364.1351	392.7054	396.5303	430.6489	505.6624	549.9723	641.3051	738.6526	781.9381	792.8441	836.0481	910.8832	948.0481	980.4136	999.8523	1010.4154	1038.7828	1069.5689	1096.8237	1147.3992	1167.6309	1187.5109	1194.4191	1235.4294	1298.7214	1324.4195	1346.1169	1382.9292	1400.7597	1408.9239	1413.2077	1427.165	1464.0774	1473.7034	1493.8758	1494.5521	1503.5615	1505.8931	1508.5898	1512.5795	3027.2186	3035.9039	3037.2451	3045.2024	3067.9929	3075.1934	3089.5059	3093.7094	3102.5652	3107.8893	3126.8007	3131.8816	3161.0943	3740.2227
CCC(C)(O)C1OC1C	CC[C@@](C)(O)[C@H]1O[C@H]1C	
InChI=1S/C7H14O2/c1-4-7(3,8)6-5(2)9-6/h5-6,8H,4H2,1-3H3	InChI=1S/C7H14O2/c1-4-7(3,8)6-5(2)9-6/h5-6,8H,4H2,1-3H3/t5-,6-,7+/m0/s1
