14
gdb 32393	6.84524	0.87363	0.77861	5.6085	74.65	-0.2361	-0.0443	0.1917	1373.2333	0.101215	-436.710506	-436.702585	-436.701641	-436.743337	28.45	
C	-0.0174695351	 1.4107532298	 0.0197710267	-0.256528
O	-0.0056085796	-0.0089995877	 0.0183350162	-0.256204
C	 0.5970613119	-0.5795164234	-1.0406481481	 0.376172
C	 1.2071883342	-0.0109300809	-2.1288262211	-0.174472
O	 1.6819209653	-0.9822282422	-2.9554578519	-0.174907
C	 1.3683372447	-2.1770373267	-2.3847888987	 0.310568
C	 0.7019941367	-1.9919283973	-1.2061004639	-0.423621
C	 1.7596360306	-3.3524352019	-3.0618430356	 0.231606
N	 2.0718437474	-4.3290094782	-3.6013073197	-0.335788
H	 1.0041030671	 1.8126230361	 0.0245053515	 0.129583
H	-0.554050882	 1.8005120615	-0.8550460857	 0.129585
H	-0.5336627617	 1.7168194982	 0.9299887086	 0.146593
H	 1.3786046517	 1.0018936781	-2.4464808737	 0.150063
H	 0.3322134089	-2.7541010053	-0.5402796045	 0.147351
78.9118	141.0329	159.4171	208.6898	244.1963	355.0531	423.2479	505.0535	560.2056	603.4827	632.6129	683.2491	700.5086	720.312	841.7035	958.726	997.5172	1064.1489	1166.6186	1181.0215	1181.0387	1214.4042	1251.3634	1330.5292	1416.7736	1473.107	1486.3084	1505.2609	1553.5778	1649.6132	2344.1723	3005.6248	3065.9339	3147.518	3278.8562	3298.483
COC1=COC(=C1)C#N	COc1coc(c1)C#N	
InChI=1S/C6H5NO2/c1-8-6-2-5(3-7)9-4-6/h2,4H,1H3	InChI=1S/C6H5NO2/c1-8-6-2-5(3-7)9-4-6/h2,4H,1H3
