17
gdb 23442	4.09411	1.1623	1.01698	1.2118	77.98	-0.2236	-0.0015	0.2221	1168.7187	0.136779	-417.94082	-417.933216	-417.932272	-417.973089	29.391	
O	-0.0374393454	 1.4031633262	 0.5746845461	-0.392895
N	 0.0719383309	-0.0005076034	 0.5974056372	-0.239213
C	-0.9377816202	-0.5398105408	 0.064778496	 0.418834
C	-2.2529394549	-0.1112379375	-0.5447318811	-0.275238
N	-2.6905785774	-1.5405113259	-0.5397325006	-0.100393
C	-2.9920779865	-2.1218468544	-1.8594107568	-0.222089
C	-1.6905629649	-2.7442928206	-2.3154037143	-0.069122
C	-0.7601955764	-2.6755618535	-1.3657162653	-0.083303
C	-1.310054461	-1.9959820269	-0.1363680522	-0.129156
H	 0.7718999464	 1.677151514	 1.0195708433	 0.307965
H	-2.8732990004	 0.5512863166	 0.0675379168	 0.131036
H	-2.1493442259	 0.3317246642	-1.5459398757	 0.118539
H	-3.7921949704	-2.8732758982	-1.7899850127	 0.11161
H	-3.3570861323	-1.3436223473	-2.5436028262	 0.108714
H	-1.5687363568	-3.2084321671	-3.2875123566	 0.103146
H	 0.2498145682	-3.0618578822	-1.4197179804	 0.110734
H	-1.265313813	-2.6262372231	 0.7606496625	 0.10083
82.8503	149.1849	185.0208	309.9923	355.1378	389.6247	429.5473	470.6094	549.4652	690.7381	700.9834	754.1957	805.3518	818.0762	899.9186	944.6392	955.8842	969.3729	980.1118	1009.8876	1024.5776	1059.7837	1101.3692	1121.6875	1171.3932	1183.371	1228.896	1230.7579	1280.8774	1289.6705	1331.8625	1348.2797	1406.8655	1479.0047	1502.1683	1673.6873	1802.4082	2994.2586	3002.1692	3025.2951	3026.1643	3068.9741	3195.2322	3224.1717	3815.3985
ON=C1CN2CC=CC12	ON=C1CN2CC=C[C@@H]12	
InChI=1S/C6H8N2O/c9-7-5-4-8-3-1-2-6(5)8/h1-2,6,9H,3-4H2	InChI=1S/C6H8N2O/c9-7-5-4-8-3-1-2-6(5)8/h1-2,6,9H,3-4H2/t6-/m0/s1
