17
gdb 74066	3.54339	1.18418	0.89745	6.314	80.5	-0.2354	-0.0369	0.1985	1269.1918	0.136101	-418.059098	-418.050403	-418.049459	-418.092792	31.225	
C	-0.0606015714	 1.4388042429	 0.1432093045	-0.490136
C	-0.0507745907	-0.0443150531	-0.0189742519	 0.306458
C	-0.1236380601	-0.7733874272	-1.1364704559	-0.31213
C	-0.0790460983	-2.2255328207	-0.8317912055	 0.443845
O	-0.1227282759	-3.1518922596	-1.5994188859	-0.345442
N	 0.027891531	-2.2968609123	 0.5817355642	-0.129881
C	 0.051758462	-0.9664451578	 1.1695595254	-0.261884
C	 0.1048115142	-3.4260145154	 1.3834281724	 0.088097
N	 0.0902390513	-4.6184136872	 0.9505884635	-0.418646
H	 0.8544035524	 1.7877307931	 0.6374580265	 0.139885
H	-0.1421325435	 1.9434232384	-0.8218393348	 0.142116
H	-0.8995176786	 1.7614519577	 0.771984255	 0.139811
H	-0.2052444035	-0.4182010218	-2.1543831146	 0.124443
H	 0.9781207543	-0.7890005131	 1.7347570671	 0.131495
H	-0.7856611209	-0.8153891318	 1.8660397914	 0.131508
H	 0.1799607868	-3.1418175653	 2.4425332059	 0.084605
H	 0.1587482009	-5.2645748168	 1.7353912626	 0.225856
75.3687	134.6097	142.1287	184.2672	202.7729	244.6016	288.7108	440.8546	455.0635	499.0786	584.6721	728.2965	741.2713	774.595	816.4798	880.0968	900.4034	981.1487	1009.7574	1063.1358	1080.5175	1108.1705	1143.3716	1190.7258	1204.6079	1249.7883	1293.9196	1342.9205	1408.431	1418.7436	1437.7337	1478.6675	1482.2257	1495.8742	1703.8791	1720.3551	1841.4083	2995.5802	3013.1708	3023.7101	3025.9032	3074.0857	3127.0863	3237.2131	3495.9821
CC1=CC(=O)N(C1)C=N	CC1=CC(=O)N(C1)[CH][NH]	
InChI=1S/C6H8N2O/c1-5-2-6(9)8(3-5)4-7/h2,4,7H,3H2,1H3	InChI=1S/C6H8N2O/c1-5-2-6(9)8(3-5)4-7/h2,4,7H,3H2,1H3
