18
gdb 10404	2.55152	1.94248	1.38597	4.7436	71.75	-0.2459	0.0219	0.2678	968.239	0.154198	-343.980123	-343.971771	-343.970826	-344.012817	30.694	
C	 0.0201569815	 1.4558569295	 0.2216849606	-0.40129
C	-0.1222877891	-0.0599821145	 0.0632436307	-0.23558
C	-1.5740854549	-0.5395836684	-0.133393384	 0.175506
C	-1.7370713738	-2.0878730739	 0.0077219592	-0.278729
C	-2.2998434733	-1.800373251	 1.4204891225	-0.158697
N	-2.4752808014	-0.3798837064	 1.0368426766	-0.327818
C	-2.1321328238	 0.0406289739	-1.365942706	 0.277128
N	-2.5508461863	 0.4857231541	-2.3472235644	-0.352003
H	 1.0688093506	 1.7289093937	 0.3685538621	 0.124128
H	-0.3468081553	 1.9819772579	-0.6644145313	 0.150074
H	-0.5380504339	 1.828790836	 1.0876183209	 0.115752
H	 0.4701909812	-0.4015277954	-0.7941031709	 0.118499
H	 0.276702579	-0.5734604563	 0.9465331017	 0.102934
H	-2.4769503709	-2.5006411725	-0.6776699889	 0.134818
H	-0.8117671501	-2.6607363601	-0.0605849084	 0.116714
H	-3.2333930566	-2.3015025664	 1.6919466067	 0.115756
H	-1.56521576	-1.9755284831	 2.2169250052	 0.100448
H	-2.1796998929	 0.3153392729	 1.7137838877	 0.222359
102.8377	127.0682	171.4399	187.0696	215.7813	263.4951	369.1764	411.4139	533.93	570.1726	615.0989	691.0371	773.4644	786.5085	895.1229	915.5091	956.7187	993.6734	1010.5607	1035.0624	1050.4693	1122.3649	1144.082	1179.2613	1209.0884	1220.7094	1265.8358	1305.3773	1335.9408	1360.6427	1382.2728	1417.8184	1476.444	1484.6035	1500.2841	1503.8245	1528.5202	2350.7069	3016.035	3027.9835	3036.7306	3066.0112	3077.0053	3092.5519	3103.3873	3120.5541	3153.3458	3528.1585
CCC1(CCN1)C#N	CC[C@]1(CCN1)C#N	
InChI=1S/C6H10N2/c1-2-6(5-7)3-4-8-6/h8H,2-4H2,1H3	InChI=1S/C6H10N2/c1-2-6(5-7)3-4-8-6/h8H,2-4H2,1H3/t6-/m0/s1
