17
gdb 46625	2.94639	1.67363	1.09626	1.204	75.48	-0.2365	0.0002	0.2367	1065.3837	0.139284	-418.0785	-418.070957	-418.070013	-418.111397	27.71	
O	 0.0203946811	-0.0483282058	 0.0016654334	-0.368314
C	-0.0008397328	 1.1599290169	 0.0090201838	 0.390316
C	-1.234796187	 2.0814805634	 0.0318753185	-0.342142
C	-0.6953540681	 3.5362094134	 0.0323663164	-0.346317
C	 0.8002229753	 3.356029768	 0.0097665782	 0.411267
N	 1.7870807108	 4.1541016636	-0.0004737371	-0.343371
C	 3.0033202057	 3.3103003017	-0.0225096294	-0.17811
C	 2.5328874114	 1.809897751	-0.02395996	-0.208507
N	 1.0896675112	 1.9955403731	-0.0015403859	-0.103752
H	-1.8565918482	 1.8555311734	-0.83797146	 0.143241
H	-1.8315197239	 1.8456502237	 0.9165359879	 0.143235
H	-1.0223614744	 4.1107564742	-0.837728136	 0.144976
H	-0.9970442222	 4.1007246604	 0.9180380318	 0.144969
H	 3.5985955867	 3.549297805	-0.9093978013	 0.122087
H	 3.623719865	 3.5396665293	 0.8495880494	 0.122086
H	 2.8428371886	 1.2600366149	-0.9168689315	 0.134168
H	 2.8691286609	 1.2500859637	 0.8530992415	 0.134169
61.4388	104.9723	127.3982	231.9289	298.5816	536.8648	565.834	587.2026	624.0295	634.0645	711.0676	805.786	814.7218	824.8553	917.6947	977.3898	1001.438	1024.1991	1041.7687	1097.0695	1102.3046	1156.4665	1210.4206	1238.1753	1242.3848	1258.1759	1275.8086	1303.4685	1338.1947	1374.858	1422.3128	1464.8102	1483.3561	1499.0586	1526.3754	1750.8313	1833.6718	3048.3096	3060.0313	3072.8073	3076.202	3079.9652	3102.7611	3106.2487	3123.3194
O=C1CCC2=NCCN12	O=C1CCC2=NCCN12	
InChI=1S/C6H8N2O/c9-6-2-1-5-7-3-4-8(5)6/h1-4H2	InChI=1S/C6H8N2O/c9-6-2-1-5-7-3-4-8(5)6/h1-4H2
