20
gdb 47738	2.49265	1.68372	1.13644	3.7073	79.86	-0.2378	0.034	0.2718	1111.4209	0.173966	-403.193652	-403.185613	-403.184669	-403.226232	31.707	
O	 0.0365338789	-0.0536343584	 0.0588638217	-0.398864
C	 0.0295620589	 1.1678320153	 0.0231325426	 0.370833
N	-1.1442376515	 1.8692036501	 0.0532016949	-0.335345
C	-1.322828401	 3.3128972042	-0.0146067338	-0.14638
C	-0.0585745433	 4.0360605663	 0.4472637465	-0.20998
C	 1.1533771718	 3.4680206188	-0.2953139233	-0.298426
C	 1.2960856266	 1.9822019991	-0.0119721004	 0.242801
C	 2.3603425792	 1.5008013646	 0.9679132451	-0.286462
C	 2.5234542504	 1.2441088177	-0.4973959584	-0.3017
H	-1.9637748842	 1.2798517843	 0.0482703757	 0.244018
H	-1.5688013099	 3.6250990037	-1.0416621003	 0.10594
H	-2.1763038265	 3.5891875563	 0.6145823164	 0.110236
H	-0.169876313	 5.1089510068	 0.2621629037	 0.101035
H	 0.0702251831	 3.8977209649	 1.5271905508	 0.11141
H	 1.0224573529	 3.6325698043	-1.3740945162	 0.10217
H	 2.0705471138	 3.9939114273	-0.0095803818	 0.098002
H	 2.9754794458	 2.2611575684	 1.4379976748	 0.108052
H	 2.0982343081	 0.6572218228	 1.5951512702	 0.135184
H	 2.3635382317	 0.2309608002	-0.8452684771	 0.140885
H	 3.2573513581	 1.8244818634	-1.0467249811	 0.106591
75.9122	128.1619	257.2205	265.8111	282.4625	372.7087	395.3333	458.8793	537.3214	582.3688	626.6375	666.6624	757.4484	790.7266	839.3886	874.0951	888.9987	921.1526	957.3557	967.6175	1009.2328	1023.3314	1065.0534	1091.4806	1110.0944	1126.0865	1196.3767	1202.1704	1216.1383	1261.1105	1288.5047	1314.5092	1360.5134	1376.1929	1387.764	1415.1677	1447.8614	1477.5919	1481.7136	1488.2067	1499.6705	1528.3979	1765.4987	2978.8509	3009.3408	3036.707	3055.1465	3066.7883	3088.9322	3132.8896	3136.7863	3225.5437	3239.3146	3613.1338
O=C1NCCCC11CC1	O=C1NCCCC21CC2	
InChI=1S/C7H11NO/c9-6-7(3-4-7)2-1-5-8-6/h1-5H2,(H,8,9)	InChI=1S/C7H11NO/c9-6-7(3-4-7)2-1-5-8-6/h1-5H2,(H,8,9)
