17
gdb 90396	2.61055	1.3778	1.18597	3.4338	73.13	-0.2502	0.0291	0.2793	1089.5866	0.136252	-417.983795	-417.975196	-417.974252	-418.016763	32.563	
N	-0.1196632641	 1.4679222359	 0.0282063548	-0.601311
C	-0.0655005747	 0.0539732389	-0.0653876056	 0.31827
C	-1.2075090324	-0.9559612413	-0.0197806188	-0.098472
C	-0.5286719342	-1.8142226701	-1.0918004631	-0.277305
C	 0.6435244321	-0.7754850056	-1.1557562042	 0.040276
O	 0.6620316847	 0.0025339444	-2.3349592811	-0.441482
C	-0.2822344703	-0.7856811954	 1.1760820992	-0.229202
C	 0.6352120533	-1.8083470612	 1.6042218697	 0.305142
N	 1.3798558401	-2.6344149557	 1.9246832582	-0.358448
H	 0.7398117656	 1.8370746416	 0.4265236654	 0.23832
H	-0.2040462712	 1.8577244431	-0.9068492935	 0.250448
H	-2.2702268655	-0.7886036457	 0.1044782176	 0.10535
H	-0.2741974517	-2.8390469033	-0.8083479643	 0.120971
H	-1.0802118576	-1.8127091159	-2.034050109	 0.11139
H	 1.6446185303	-1.1547859091	-0.9102396214	 0.084221
H	 1.0182344008	-0.5358699777	-3.0485036338	 0.290988
H	-0.7215662452	-0.2117658031	 1.9859315999	 0.140842
106.9544	133.4945	177.8388	238.4146	245.4438	288.8914	375.2149	383.8691	428.0909	455.3334	568.7704	623.8635	649.6932	780.4722	788.5827	850.8394	876.3756	895.6621	922.3806	974.0745	1025.7054	1027.5359	1081.4895	1125.9883	1172.5883	1185.3519	1206.9812	1245.599	1259.6006	1280.2464	1304.2668	1332.619	1415.1343	1453.0284	1485.6213	1661.2234	2346.4043	3012.1325	3063.4047	3125.3178	3170.3567	3193.3994	3485.0121	3560.2324	3824.1541
NC12C(CC1O)C2C#N	N[C@@]12[C@@H](C[C@H]1O)[C@H]2C#N	
InChI=1S/C6H8N2O/c7-2-4-3-1-5(9)6(3,4)8/h3-5,9H,1,8H2	InChI=1S/C6H8N2O/c7-2-4-3-1-5(9)6(3,4)8/h3-5,9H,1,8H2/t3-,4+,5+,6+/m0/s1
