18
gdb 55525	4.4543	0.85796	0.76186	4.071	76.82	-0.2535	-0.0242	0.2294	1499.682	0.148229	-435.284157	-435.274946	-435.274002	-435.318923	32.995	
C	 0.1111648537	 1.5637071259	 0.3270773383	-0.469088
C	 0.2241547602	 0.085975602	 0.0505186609	 0.37871
N	 1.3484972619	-0.472853812	-0.1165393228	-0.484084
N	-1.0422166264	-0.5547261679	 0.0073293216	-0.397019
C	-1.2922473178	-1.8849251024	-0.2298294859	 0.460934
O	-0.4222634611	-2.7190261214	-0.4247744239	-0.382878
C	-2.7447217413	-2.2606806592	-0.2328960942	-0.135057
C	-3.1871711536	-3.1725121799	-1.3332329529	-0.218704
N	-3.0570972847	-3.6701433147	 0.0307887374	-0.299888
H	 1.1114192504	 1.9935614077	 0.3484137373	 0.16134
H	-0.4791016393	 2.0671068994	-0.447767787	 0.132689
H	-0.3794463767	 1.7489501031	 1.2899566875	 0.133632
H	 1.2325003154	-1.4716263316	-0.2918492867	 0.251475
H	-1.8474549803	 0.0336389655	 0.1582078075	 0.255179
H	-3.4484334178	-1.5434151543	 0.1824443009	 0.093717
H	-4.2036201235	-3.0882994146	-1.7061681759	 0.127802
H	-2.4337225285	-3.4547136416	-2.062615264	 0.138519
H	-2.1638528605	-4.1575619541	 0.1128055118	 0.25272
58.3929	81.3112	129.1256	157.736	167.924	288.1768	311.2205	330.4715	397.3792	540.959	545.2633	579.4346	716.5235	762.233	834.4854	861.3285	926.1364	927.6724	969.8996	982.7809	1010.5898	1040.0654	1082.3295	1117.3052	1123.9223	1134.7656	1181.7487	1218.7251	1290.7146	1322.0779	1348.3701	1402.3251	1417.3417	1472.6194	1484.9389	1494.5259	1517.4178	1734.6401	1780.2862	3031.4682	3085.7762	3116.6174	3137.2904	3167.6687	3211.6202	3466.4975	3484.5916	3620.1346
CC(=N)NC(=O)C1CN1	CC(=N)NC(=O)[C@H]1CN1	
InChI=1S/C5H9N3O/c1-3(6)8-5(9)4-2-7-4/h4,7H,2H2,1H3,(H2,6,8,9)	InChI=1S/C5H9N3O/c1-3(6)8-5(9)4-2-7-4/h4,7H,2H2,1H3,(H2,6,8,9)/t4-/m1/s1
