17
gdb 55199	3.18773	1.2327	0.99187	5.7983	70.11	-0.2321	0.007	0.2391	1193.1204	0.137047	-455.207692	-455.199156	-455.198212	-455.241515	30.98	
C	-0.1189326572	 1.4751141843	-0.1290276887	-0.48686
C	 0.0000107764	-0.0101307774	-0.0062494013	 0.376264
N	-0.0217966724	-0.7997387671	-1.1313757234	-0.322657
H	 0.2738362218	-0.4350566657	-2.0228156639	 0.24877
C	 0.3006100951	-2.1747349924	-0.7402675935	-0.197286
C	 0.1129788073	-2.0746771708	 0.7951757873	-0.128123
N	 0.081254083	-0.6362432027	 1.1182723575	-0.338492
C	-1.1829626216	-2.7524498991	 1.2798037604	 0.423468
O	-1.5663185677	-3.8151615885	 0.8700380566	-0.337567
O	-1.826433188	-2.0573202966	 2.2266013152	-0.36788
H	 0.7096079937	 1.8854224883	-0.7169038706	 0.138007
H	-1.0493775514	 1.7440436759	-0.639351448	 0.150412
H	-0.106947855	 1.9265607983	 0.862443739	 0.158354
H	-0.379113692	-2.9070388957	-1.181666401	 0.146804
H	 1.3303266452	-2.4373333765	-1.0104678702	 0.109767
H	 0.928068594	-2.5673103111	 1.3366856223	 0.119991
H	-1.3458318011	-1.2071857833	 2.3060736822	 0.307028
77.3256	84.3568	119.4488	169.4597	261.759	338.9349	356.2089	437.4482	497.7167	534.8069	633.2626	675.5183	702.8425	767.6966	816.1104	841.1426	964.2039	976.3662	1014.7968	1054.8158	1063.945	1070.1594	1087.685	1193.9483	1222.2898	1256.0337	1295.0039	1315.0568	1325.3792	1404.0137	1413.4598	1466.6092	1480.6071	1494.6392	1537.7331	1679.0471	1867.7744	3026.7102	3043.9694	3051.4416	3100.9245	3105.3209	3162.9298	3532.0012	3635.9001
CC1=[NH+]CC(N1)C([O-])=O	C[C]1NC[C@@H]([N]1)C(=O)O	
InChI=1S/C5H8N2O2/c1-3-6-2-4(7-3)5(8)9/h4H,2H2,1H3,(H,6,7)(H,8,9)	InChI=1S/C5H8N2O2/c1-3-6-2-4(7-3)5(8)9/h4H,2H2,1H3,(H,6,7)(H,8,9)/t4-/m1/s1
