15
gdb 15134	7.92975	0.8763	0.83351	3.9376	66.49	-0.2568	-0.0296	0.2272	1327.6367	0.117263	-399.79907	-399.790987	-399.790043	-399.832661	27.831	
O	-0.1063527223	 0.384031212	-0.2791661105	-0.249958
C	 0.4135114213	 1.4504318284	-0.370241091	 0.180711
O	 0.9940075194	 2.0435621854	 0.728029494	-0.194906
C	 1.4460296406	 3.3321803438	 0.6317270019	 0.141002
N	 1.0908968115	 4.1245965846	-0.2756601511	-0.24048
C	 1.6171452553	 5.4587071121	-0.300427503	 0.054062
C	 2.9355198942	 5.8829318681	 0.3061448923	-0.289748
C	 2.7771987643	 5.792197118	-1.1972310572	-0.249352
H	 0.5143303912	 2.0594603892	-1.2772495325	 0.132574
H	 2.1202416375	 3.5436878973	 1.4640943996	 0.125749
H	 0.8168659647	 6.1930445725	-0.2822410614	 0.109714
H	 2.9889274189	 6.8628110752	 0.7673082311	 0.121647
H	 3.5645966441	 5.1392016795	 0.7813866467	 0.116591
H	 3.2664552788	 4.9614086732	-1.6940696554	 0.1212
H	 2.7328572705	 6.7043915006	-1.7812028036	 0.121194
56.8435	89.1547	105.9934	171.6706	228.0293	310.3845	429.8457	482.4506	523.9029	719.6953	779.7537	820.2205	847.819	940.4973	993.4804	1002.3816	1039.9303	1050.7967	1059.2951	1075.3449	1131.8393	1155.4253	1194.3871	1213.7042	1232.7272	1382.7469	1391.7687	1396.7865	1463.931	1499.4175	1744.1614	1874.437	3077.4277	3110.0438	3137.1934	3141.4921	3148.6736	3217.2328	3231.6177
O=COC=NC1CC1	O=COC=NC1CC1	
InChI=1S/C5H7NO2/c7-4-8-3-6-5-1-2-5/h3-5H,1-2H2	InChI=1S/C5H7NO2/c7-4-8-3-6-5-1-2-5/h3-5H,1-2H2
