14
gdb 43261	3.16586	1.51862	1.14902	1.3791	70.15	-0.2598	-0.0982	0.1616	1007.081	0.102293	-436.703356	-436.696347	-436.695403	-436.735015	26.696	
O	 0.0304238134	 0.0115810778	 0.4718148833	-0.325387
C	-0.009205582	 1.1718881938	 0.120450542	 0.440463
C	-1.2971587592	 1.8719613381	-0.1234173207	-0.154271
C	-1.3811539854	 3.009028733	-0.8296365215	-0.154334
C	-0.1937647572	 3.66967528	-1.4313369787	 0.440428
O	-0.3009568725	 4.4960992625	-2.3127410029	-0.325393
C	 1.1457577292	 3.2383931174	-0.9108024663	-0.177883
N	 1.2725072804	 3.2761825739	 0.5582178205	-0.326247
C	 1.2396380599	 1.9675992817	-0.1214916702	-0.178015
H	-2.1798403304	 1.3588447139	 0.2461526797	 0.133908
H	-2.3357748709	 3.4698409408	-1.0649036446	 0.133905
H	 1.9897984561	 3.5437819776	-1.5214071562	 0.118943
H	 2.2328744937	 3.5019061365	 0.8074729926	 0.254946
H	 2.1497610349	 1.3784043229	-0.176545937	 0.118937
84.4588	187.5446	286.0652	286.6804	404.2669	438.2995	472.7367	507.7037	620.966	703.3391	738.4147	785.035	840.2526	880.9564	902.2989	909.0678	943.9715	1034.5203	1058.3604	1083.5387	1151.1279	1174.3135	1232.8525	1236.1791	1313.8941	1373.1713	1390.4227	1416.7108	1662.4262	1783.2283	1783.3783	3165.4627	3172.9981	3177.1665	3195.7205	3503.8918
O=C1C=CC(=O)C2NC12	O=C1C=CC(=O)[C@H]2N[C@@H]12	
InChI=1S/C6H5NO2/c8-3-1-2-4(9)6-5(3)7-6/h1-2,5-7H	InChI=1S/C6H5NO2/c8-3-1-2-4(9)6-5(3)7-6/h1-2,5-7H/t5-,6+
