16
gdb 13771	3.2206	1.46588	1.20061	4.2782	65.84	-0.2735	0.0162	0.2897	1027.2831	0.129628	-379.903143	-379.894605	-379.893661	-379.936515	30.5	
C	-0.3462289492	 1.392122671	 0.1442732105	-0.410772
C	 0.1691401252	-0.0156019339	-0.1568868788	 0.12327
O	 1.1335351386	-0.021008554	-1.2028780624	-0.440168
C	 0.8791435983	-0.6079892656	 1.0393190122	 0.00457
N	 0.0366773587	-1.1161573657	 2.1162078011	-0.319894
C	 0.8558168752	-2.0731916332	 1.3407140632	-0.198005
C	 0.1388419995	-3.0125099404	 0.5116669831	 0.339773
N	-0.4141466694	-3.7746771213	-0.1589221204	-0.339731
H	 0.4832991831	 2.059030189	 0.4010547826	 0.120673
H	-0.8596653575	 1.8079648609	-0.7294524306	 0.112423
H	-1.0575698633	 1.3701400588	 0.9750756002	 0.135413
H	-0.6820945904	-0.666327741	-0.404508811	 0.095872
H	 0.7113949179	 0.3138836393	-1.9999182633	 0.288791
H	 1.8067767441	-0.099073974	 1.2981519342	 0.105336
H	 0.4619169747	-0.96405825	 3.02659456	 0.248394
H	 1.7418655146	-2.4935216299	 1.8082362593	 0.134055
55.2602	105.2142	184.9523	235.1316	248.5539	252.2148	321.4944	353.8216	455.2645	498.1733	583.9588	632.8032	786.154	842.2082	886.5597	927.5209	966.241	981.6048	1036.8652	1094.3498	1119.3702	1133.6232	1187.2158	1212.6848	1236.5375	1292.0577	1360.5585	1374.2835	1402.2577	1417.2916	1471.4874	1493.9388	1510.3068	2361.2266	3004.0819	3033.0416	3102.339	3118.9373	3124.2062	3152.7993	3515.7396	3827.6724
CC(O)C1NC1C#N	C[C@@H](O)[C@H]1N[C@H]1C#N	
InChI=1S/C5H8N2O/c1-3(8)5-4(2-6)7-5/h3-5,7-8H,1H3	InChI=1S/C5H8N2O/c1-3(8)5-4(2-6)7-5/h3-5,7-8H,1H3/t3-,4+,5-/m1/s1
