18
gdb 45489	2.95794	1.71083	1.50829	2.765	74.19	-0.2197	-0.0167	0.2029	937.1419	0.151043	-401.956516	-401.949862	-401.948917	-401.987588	27.308	
O	 0.0272502445	 0.0415750025	-0.5211712857	-0.325428
C	 0.0085422936	 1.1825904465	-0.1344599229	 0.390803
C	-1.2403844415	 2.0360562127	 0.1386263112	-0.286158
N	-0.7861320183	 3.2853134509	 0.7739169523	-0.094677
C	-0.7742357459	 3.176935507	 2.2493789777	-0.161289
C	 0.5117666172	 2.3950575893	 2.6237797994	-0.261391
C	 1.4279675233	 2.7271309694	 1.4462470745	-0.039942
C	 0.6314528342	 3.4579678316	 0.4064191721	-0.060771
C	 1.1848607091	 2.089819303	 0.071169094	-0.170595
H	-1.7127213566	 2.249986232	-0.8296584205	 0.133326
H	-1.9761380999	 1.5030208722	 0.7459493477	 0.127649
H	-0.7220875231	 4.1890319202	 2.6652188267	 0.108472
H	-1.699974206	 2.7192031444	 2.6068533953	 0.107889
H	 0.9429627563	 2.7377034589	 3.5687779188	 0.106348
H	 0.3309761271	 1.3194647632	 2.7220714222	 0.116627
H	 2.4615270789	 2.9926934105	 1.6387808078	 0.100511
H	 0.9367097595	 4.3735461762	-0.0863689044	 0.09819
H	 2.0521743476	 1.9363807194	-0.5599390862	 0.110437
99.2319	173.5152	353.732	400.2828	460.979	525.1967	592.046	633.4794	674.1935	712.6927	761.6085	815.0543	839.7909	876.7229	881.1807	923.4943	950.6797	970.7593	999.4901	1030.5089	1061.6691	1080.7625	1095.4826	1102.8865	1146.7803	1187.0565	1218.8662	1253.1209	1268.9221	1276.786	1302.3228	1320.6396	1326.7916	1354.4399	1373.1017	1464.2299	1497.6742	1510.5319	1837.1437	3019.5341	3043.6642	3048.1706	3088.7005	3099.3974	3108.5599	3170.194	3176.4016	3191.6032
O=C1CN2CCC3C2C13	O=C1CN2CC[C@@H]3[C@H]2[C@H]13	
InChI=1S/C7H9NO/c9-5-3-8-2-1-4-6(5)7(4)8/h4,6-7H,1-3H2	InChI=1S/C7H9NO/c9-5-3-8-2-1-4-6(5)7(4)8/h4,6-7H,1-3H2/t4-,6-,7-/m0/s1
