17
gdb 99931	3.94199	0.70469	0.68189	1.836	87.51	-0.2481	-0.0262	0.2219	1665.0257	0.131865	-421.767323	-421.757006	-421.756062	-421.802491	37.695	
C	 0.0008414194	 1.5361966746	 0.0655666835	-0.41729
C	-0.0775403011	 0.0044862264	-0.0300558787	 0.028335
O	 0.4456226357	-0.6036085532	 1.1609087153	-0.451601
C	-1.5482832163	-0.4811647555	-0.0606648871	-0.049711
O	-2.2299751069	-0.1050413815	 1.1128133155	-0.421316
C	 0.6340231717	-0.4849904846	-1.2139617854	 0.547129
C	 1.2247463917	-0.893546286	-2.1888990096	-0.353945
C	 1.8893273006	-1.3480117233	-3.2856240386	 0.301718
C	 2.4797404404	-1.7516131896	-4.2585123102	-0.572952
H	 1.0365736325	 1.8603786451	 0.2070677427	 0.113674
H	-0.3756987585	 2.00110876	-0.8496832972	 0.13137
H	-0.6052760815	 1.8689957508	 0.9104187886	 0.140584
H	 1.3553057096	-0.3095123129	 1.2765543543	 0.289198
H	-2.0690128273	-0.0235361282	-0.9057668098	 0.119335
H	-1.5440278107	-1.5709287877	-0.2026964632	 0.106867
H	-1.7015708451	-0.4437354017	 1.8460879065	 0.293749
H	 2.9976577159	-2.1060528527	-5.1149777665	 0.194858
70.4623	78.8227	152.4533	205.7353	232.2727	242.9487	249.2342	298.6797	348.7652	362.2824	421.975	474.5769	503.2447	508.61	548.2095	567.15	600.8262	614.3946	714.35	846.9862	924.7996	954.9946	1053.8247	1084.5191	1103.7397	1135.3773	1239.0545	1249.4956	1343.5787	1380.9021	1403.3747	1431.6743	1481.3882	1493.8355	1496.9293	2179.3796	2355.8839	3009.8824	3044.3187	3102.5448	3116.233	3143.2606	3503.9487	3790.1325	3817.1495
CC(O)(CO)C#CC#C	C[C@@](O)(CO)C#CC#C	
InChI=1S/C7H8O2/c1-3-4-5-7(2,9)6-8/h1,8-9H,6H2,2H3	InChI=1S/C7H8O2/c1-3-4-5-7(2,9)6-8/h1,8-9H,6H2,2H3/t7-/m0/s1
