23
gdb 59829	3.8717	0.56277	0.54423	1.7382	92.4	-0.2478	0.0422	0.29	2181.5936	0.202392	-388.275405	-388.263738	-388.262794	-388.314299	41.418	
C	-0.0426836939	 1.5705566717	 0.0085905607	-0.390652
C	 0.0364966062	 0.0398474976	 0.038436877	 0.051082
C	 0.8171074855	-0.4574345215	 1.2595706321	-0.380898
C	-1.3888261595	-0.5650160517	-0.0100113116	-0.349643
C	-1.4169030761	-2.0188143565	-0.1286417716	-0.015134
C	-1.4120352207	-3.2209256131	-0.2233468416	 0.131058
C	-1.4408584142	-4.6779804035	-0.3897338333	-0.018406
C	-2.8764994839	-5.2222558111	-0.3508911791	-0.381401
O	-0.7600727334	-5.089863444	-1.5751665649	-0.415424
H	 0.9574673206	 2.0150935661	 0.0050644367	 0.113122
H	-0.5724985254	 1.9290816259	-0.8805758031	 0.110057
H	-0.5717912868	 1.9534628403	 0.8897446083	 0.11274
H	 0.5614497694	-0.2974601833	-0.8646971011	 0.08487
H	 1.8391354498	-0.0652134297	 1.2572519928	 0.110647
H	 0.3370318602	-0.1284690966	 2.189553677	 0.108399
H	 0.8704497846	-1.5493929125	 1.2761013652	 0.129405
H	-1.9353390435	-0.2635727114	 0.8952008339	 0.123935
H	-1.9375573598	-0.1232086304	-0.8523144866	 0.12124
H	-0.8698942139	-5.1421336691	 0.423880513	 0.114193
H	-3.4751954267	-4.7775105145	-1.1524072221	 0.114641
H	-2.8585635677	-6.3070753449	-0.4850508607	 0.123032
H	-3.3572287631	-4.986411699	 0.6030676948	 0.122833
H	-1.1163652379	-4.5683988288	-2.3029646057	 0.280305
11.0087	56.9819	69.0719	143.8815	161.2052	228.0258	250.4448	257.2245	266.3845	298.2386	343.5229	355.9969	394.2088	419.1061	468.9138	542.1873	585.7997	739.0811	816.0464	878.0709	898.313	931.7686	948.2579	969.2746	1015.7785	1067.7454	1095.1072	1127.4052	1139.4835	1175.4599	1191.3417	1257.5097	1280.1328	1310.7596	1342.238	1365.5547	1369.6268	1397.4637	1401.4234	1417.6528	1422.0755	1465.5239	1487.7795	1488.529	1490.9717	1493.265	1503.6153	1510.9054	2354.9074	3003.706	3019.3656	3023.3426	3029.7125	3034.2564	3038.9257	3041.2374	3088.167	3094.5868	3101.788	3113.6728	3115.7136	3125.5148	3804.6933
CC(C)CC#CC(C)O	CC(C)CC#C[C@@H](C)O	
InChI=1S/C8H14O/c1-7(2)5-4-6-8(3)9/h7-9H,5H2,1-3H3	InChI=1S/C8H14O/c1-7(2)5-4-6-8(3)9/h7-9H,5H2,1-3H3/t8-/m1/s1
