18
gdb 62128	4.28407	0.81268	0.75502	1.9378	70.69	-0.2614	0.0204	0.2818	1503.0801	0.145864	-476.180639	-476.171099	-476.170155	-476.216669	33.379	
O	 0.8732440174	 1.3841351575	-0.7119241616	-0.440224
C	 0.0207102311	 0.4417829313	-0.0764634837	 0.070419
C	-0.051846297	-0.8461138476	-0.9053375052	-0.108549
O	-0.5170262666	-0.525682679	-2.2140184973	-0.192626
C	 0.4140782083	-0.3820757757	-3.1813950446	 0.111787
N	 0.103445445	 0.1736055066	-4.2710190012	-0.443235
C	 0.576590007	 0.2184631771	 1.3156239006	 0.081716
C	 0.1346927961	-0.8630250864	 2.2027500577	-0.188395
O	 1.3999460757	-0.9300043615	 1.5406997688	-0.223952
H	 0.4231461773	 1.7020956067	-1.5022921857	 0.305288
H	-0.9951413609	 0.856278681	 0.0204179926	 0.090294
H	 0.9364152117	-1.3149193537	-0.9409169046	 0.134651
H	-0.7665524972	-1.5567932424	-0.4819282328	 0.1167
H	 1.3920690373	-0.8004430468	-2.9105047867	 0.099057
H	 0.9005847345	 0.1635618151	-4.9039530147	 0.231573
H	 0.9545064975	 1.1352280513	 1.767545042	 0.113267
H	 0.1768498665	-0.7192329449	 3.2811455209	 0.124034
H	-0.6094444738	-1.5825283485	 1.8649427153	 0.118196
40.2474	49.5252	87.4412	129.5851	177.4001	262.3023	302.1971	373.5236	398.2648	438.5425	489.9052	571.6064	675.2693	789.1877	827.6429	880.0589	893.0146	951.4696	982.1938	1025.129	1043.234	1088.1389	1121.0847	1130.6987	1147.0145	1162.2353	1172.6542	1239.9819	1252.9789	1293.665	1323.4444	1357.2422	1387.5365	1410.9367	1428.2251	1449.8089	1492.7358	1536.0108	1739.5572	2984.3435	3037.5972	3055.2484	3088.2547	3112.1229	3121.7183	3173.5739	3518.7617	3813.5302
OC(COC=N)C1CO1	O[C@@H](CO[CH][NH])[C@H]1CO1	
InChI=1S/C5H9NO3/c6-3-8-1-4(7)5-2-9-5/h3-7H,1-2H2	InChI=1S/C5H9NO3/c6-3-8-1-4(7)5-2-9-5/h3-7H,1-2H2/t4-,5+/m0/s1
