16
gdb 24311	3.09583	2.22824	1.4828	1.1129	74.27	-0.2137	-0.0225	0.1911	855.6265	0.127486	-400.687348	-400.68117	-400.680226	-400.717679	25.296	
C	-0.112961091	 1.5432351359	-0.0619666159	-0.20256
C	 1.4479208709	 1.684171812	 0.0530499265	 0.063021
O	 2.0518358746	 2.1809225583	 1.248087739	-0.294399
C	 2.4820402018	 1.045082128	 2.0759274719	-0.145623
C	 1.6851278204	-0.1258686578	 1.5414002122	 0.062716
C	 1.3539382206	 0.2187142437	 0.2691965845	 0.072875
N	-0.0090028522	-0.0135093564	-0.0156637412	-0.104642
C	-0.4574317085	-0.7467987915	 1.0968831171	-0.089683
C	 0.5432340628	-0.8651114385	 2.0317194857	-0.179681
H	-0.63938638	 1.9150275936	 0.8159465793	 0.142866
H	-0.5688309092	 1.8806454206	-0.992540749	 0.130588
H	 1.9347104724	 2.1282421887	-0.8183271409	 0.093523
H	 3.5708182817	 0.9428650741	 1.9873796964	 0.113516
H	 2.2388981886	 1.2761795472	 3.1171449365	 0.119006
H	-1.446859078	-1.1846875829	 1.1083845119	 0.113851
H	 0.4645860752	-1.4120834853	 2.9620519361	 0.104624
153.2477	263.2728	320.066	372.6627	499.3448	599.2616	670.5884	696.6389	719.0407	747.0202	801.3469	843.5988	860.3938	891.585	895.2648	950.7356	988.6252	1006.7788	1036.9304	1080.7298	1102.7985	1131.0847	1143.396	1172.4356	1208.455	1233.766	1267.8389	1299.4678	1325.772	1367.333	1403.8212	1449.1334	1476.2605	1512.9983	1575.4707	3021.2919	3077.0286	3083.529	3090.1351	3174.6417	3212.5333	3233.7187
C1C2OCC3=C2N1C=C3	C1[C@H]2OC[C]3[C]2N1C=C3	
InChI=1S/C7H7NO/c1-2-8-3-6-7(8)5(1)4-9-6/h1-2,6H,3-4H2	InChI=1S/C7H7NO/c1-2-8-3-6-7(8)5(1)4-9-6/h1-2,6H,3-4H2/t6-/m1/s1
