21
gdb 71885	2.89834	1.65032	1.29453	1.6637	82.17	-0.2332	0.0801	0.3133	1066.1933	0.182105	-387.060178	-387.052074	-387.051129	-387.092031	33.075	
C	 0.1126206247	 1.5610533376	-0.0298281507	-0.495928
C	-0.0115425597	 0.0556509937	-0.0121426406	 0.33767
C	 0.4535769377	-0.7452463615	-1.2641654305	-0.285878
C	-0.7014942207	-1.745574109	-1.039314185	 0.109865
O	-0.403931856	-2.6727413503	 0.0266741123	-0.34313
C	-0.8033003248	-1.706166147	 1.0376024285	 0.453602
C	-1.5419806624	-2.3489222001	 2.1786531247	-0.484778
C	 0.3488397788	-0.7017142889	 1.2998482176	-0.315027
C	-1.3758134211	-0.751845789	-0.0563285382	-0.201587
H	 1.1655360161	 1.8669102349	 0.0095352305	 0.118131
H	-0.3212237584	 1.9882399019	-0.9411388119	 0.111879
H	-0.3948908693	 2.0148867117	 0.8291296206	 0.111316
H	 0.2816284241	-0.1610800333	-2.1756612534	 0.093848
H	 1.4692374741	-1.1515800311	-1.2781525429	 0.097817
H	-1.1642301061	-2.2403685906	-1.8955919828	 0.073349
H	-0.8841006282	-3.0478597699	 2.7080016108	 0.127665
H	-1.8858824629	-1.5956995343	 2.8945382241	 0.114217
H	-2.4077871222	-2.9089367359	 1.8130756857	 0.123359
H	 1.3542472069	-1.121781561	 1.3976504479	 0.096204
H	 0.1284213045	-0.0792725863	 2.1748489785	 0.091341
H	-2.3824897652	-0.3431603615	-0.1096870753	 0.066064
188.3417	201.1047	217.2464	236.0937	264.6708	340.7297	383.361	397.0186	451.3953	566.1354	602.5079	712.8814	773.38	821.9049	831.7833	851.1553	871.4443	904.8388	933.9532	948.443	971.6739	986.9345	1000.8743	1030.279	1080.559	1108.4525	1145.6456	1160.3333	1169.7944	1186.852	1216.829	1240.5486	1250.8428	1264.6482	1318.5883	1331.4119	1347.4976	1407.9233	1415.1338	1462.2536	1475.851	1478.7383	1489.5476	1492.1288	1493.2626	3016.2956	3029.7941	3033.3833	3036.185	3079.6632	3085.1909	3086.4267	3094.111	3096.8078	3100.1461	3113.1377	3138.8218
CC12CC3OC(C)(C1)C23	C[C@@]12C[C@H]3O[C@@](C)(C1)[C@@H]23	
InChI=1S/C8H12O/c1-7-3-5-6(7)8(2,4-7)9-5/h5-6H,3-4H2,1-2H3	InChI=1S/C8H12O/c1-7-3-5-6(7)8(2,4-7)9-5/h5-6H,3-4H2,1-2H3/t5-,6-,7-,8+/m1/s1
