19
gdb 22821	2.67289	1.34818	1.0427	2.7493	84.32	-0.1882	-0.009	0.1792	1187.2357	0.160773	-419.189544	-419.180852	-419.179908	-419.222499	33.563	
C	-0.1454610498	 1.5153100368	 0.1338332118	-0.387642
C	 0.0392518916	-0.0090638509	 0.0285648948	-0.06424
C	 0.8142899486	-0.4071880949	-1.2380187065	-0.189989
N	 2.202336934	 0.0344422514	-1.1346656156	-0.288835
C	 2.8550522492	-0.2342078471	 0.0432483493	-0.008959
C	 2.2183071239	-0.5415658714	 1.1971925019	-0.188324
C	 0.7710537337	-0.5520655109	 1.2470057784	 0.348807
N	 0.0275522376	-0.9129022368	 2.2335751674	-0.245706
O	 0.7963808587	-1.3415587052	 3.3362508672	-0.403472
H	 0.8193760199	 2.0281844117	 0.1785250458	 0.130941
H	-0.6945603673	 1.8996594255	-0.7330070667	 0.103862
H	-0.7083061068	 1.7637712949	 1.0368268435	 0.128891
H	-0.9468718135	-0.4804596144	-0.0130194068	 0.092304
H	 0.7673064298	-1.5013759398	-1.3601541245	 0.105449
H	 0.3633209079	 0.0531044372	-2.1224882961	 0.104867
H	 2.7534047801	-0.0381926631	-1.9749142428	 0.244107
H	 3.9372883356	-0.1603698475	-0.0019282417	 0.111137
H	 2.7826907423	-0.7388863148	 2.0961010186	 0.106625
H	 0.1135180245	-1.5616758408	 3.977285952	 0.300176
97.5507	177.7449	207.3954	213.1319	249.7086	315.081	340.7289	408.0824	412.7696	439.0272	517.9602	594.3139	609.1631	708.3679	789.2378	805.9952	849.9649	877.3751	936.1421	955.9668	977.3902	1001.2457	1062.8495	1075.1057	1126.7567	1144.9091	1230.8759	1272.6965	1286.2784	1307.5025	1340.3092	1365.9916	1390.9684	1412.452	1432.6774	1486.6343	1496.4178	1500.2326	1520.2664	1670.1075	1690.9134	2972.8704	3036.0168	3069.1768	3075.6609	3107.0727	3128.2593	3180.258	3247.6639	3626.3121	3829.4955
CC1CNC=CC1=NO	C[C@H]1CNC=CC1=NO	
InChI=1S/C6H10N2O/c1-5-4-7-3-2-6(5)8-9/h2-3,5,7,9H,4H2,1H3	InChI=1S/C6H10N2O/c1-5-4-7-3-2-6(5)8-9/h2-3,5,7,9H,4H2,1H3/t5-/m0/s1
