16
gdb 93195	2.89935	1.41271	0.99193	7.0055	66.98	-0.2583	-0.0492	0.2091	1150.1854	0.124873	-475.08686	-475.078629	-475.077685	-475.12	30.286	
C	-0.2592486612	 1.4771277833	 0.0245834579	-0.413911
C	 0.0422682289	-0.0189024262	-0.0310818161	 0.026297
C	 0.879313029	-0.381192322	-1.2479305789	-0.073721
O	 1.2089574292	-1.7752294952	-1.2678144747	-0.233136
C	 1.6699301449	-2.3581276266	-0.1316749996	 0.332599
O	 2.0776169712	-3.4793729444	-0.1472241429	-0.284615
C	 1.6011936653	-1.5385283613	 1.1854924479	 0.285351
O	 2.2041171821	-1.9024066602	 2.1676896283	-0.331155
N	 0.8049698482	-0.4320600803	 1.1402858292	-0.337744
H	 0.6652263494	 2.0622431063	 0.0489047003	 0.137578
H	-0.8450220231	 1.7819205398	-0.84698858	 0.137201
H	-0.8430831279	 1.7199336313	 0.9178008044	 0.133598
H	-0.9063051726	-0.5745713367	-0.0855849009	 0.106785
H	 0.3287538472	-0.1978943193	-2.1725952131	 0.134861
H	 1.8011766399	 0.2144672388	-1.2606004519	 0.124674
H	 0.6594642194	 0.0351138527	 2.0250058699	 0.255337
75.7944	98.6899	222.2784	235.7998	273.6941	351.0193	393.4296	427.7233	445.0523	509.996	576.5627	615.459	647.765	755.9676	820.2905	891.7422	957.4389	994.6965	1076.8961	1088.4226	1140.886	1164.3291	1207.3132	1273.3246	1342.7972	1355.3188	1390.5943	1406.4946	1414.128	1460.3426	1495.7168	1500.5145	1502.6997	1817.8627	1870.38	2987.719	3031.328	3042.3229	3113.3128	3117.9661	3125.151	3593.6878
CC1COC(=O)C(=O)N1	C[C@H]1COC(=O)C(=O)N1	
InChI=1S/C5H7NO3/c1-3-2-9-5(8)4(7)6-3/h3H,2H2,1H3,(H,6,7)	InChI=1S/C5H7NO3/c1-3-2-9-5(8)4(7)6-3/h3H,2H2,1H3,(H,6,7)/t3-/m0/s1
