19
gdb 113503	3.63661	0.97866	0.87224	1.6956	78.75	-0.2543	0.0137	0.268	1387.4608	0.15936	-419.184087	-419.175171	-419.174227	-419.218227	32.781	
C	-0.3025608528	 1.5255350254	 0.2168147936	-0.37642
C	 0.2720664828	 0.1433779335	-0.1133266319	-0.187011
C	 0.9584810565	-0.4868808573	 1.0764111313	-0.073771
N	 0.0895675937	-1.1590110074	 2.0582429678	-0.377804
C	 1.0208796177	-1.9543313978	 1.2730398655	 0.192205
C	 0.7096460244	-3.1532774307	 0.3818029543	-0.148908
O	 1.9015584401	-3.821476144	 0.9232553364	-0.267643
C	 2.1687502837	-2.7657605056	 1.775232724	 0.383747
N	 3.0459376329	-2.6020280764	 2.6558974616	-0.565586
H	 0.4862272155	 2.2182907451	 0.5298814678	 0.116388
H	-0.8041245163	 1.9617777833	-0.6519375519	 0.115438
H	-1.0304138709	 1.4534374322	 1.0305411554	 0.132768
H	-0.5320375536	-0.5206462904	-0.4499504647	 0.103835
H	 0.9911142438	 0.2211025853	-0.9387399443	 0.102975
H	 1.8129349754	 0.0619530613	 1.4716888364	 0.109654
H	 0.4555643615	-1.0559027421	 3.0030867647	 0.251109
H	-0.1986218182	-3.7057013409	 0.6325175085	 0.131624
H	 0.7985894827	-3.0110099529	-0.6977271385	 0.124938
H	 3.666587761	-3.4079906606	 2.7356486639	 0.23246
66.913	102.7588	137.0819	163.9744	233.0809	261.818	277.0624	393.5135	455.9612	536.4011	616.7209	692.0482	764.3776	788.276	829.4239	851.971	885.3103	932.433	964.6983	979.8187	1002.9075	1031.3168	1072.7927	1092.7794	1109.6486	1121.2685	1142.7253	1212.5449	1231.5967	1268.4855	1304.108	1325.994	1342.7548	1386.6058	1407.0211	1475.5666	1497.1694	1500.1633	1508.8962	1510.8278	1826.4409	3027.4815	3035.9792	3065.2594	3067.4345	3104.4489	3115.4696	3120.1489	3128.3029	3489.454	3491.7204
CCC1NC11COC1=N	CC[C@H]1N[C@]21CO[C]2[NH]	
InChI=1S/C6H10N2O/c1-2-4-6(8-4)3-9-5(6)7/h4,7-8H,2-3H2,1H3	InChI=1S/C6H10N2O/c1-2-4-6(8-4)3-9-5(6)7/h4,7-8H,2-3H2,1H3/t4-,6+/m1/s1
