15
gdb 7939	3.78381	1.74236	1.22026	2.4227	62.77	-0.2469	-0.0376	0.2094	938.4609	0.118487	-399.863838	-399.856153	-399.855209	-399.896355	27.266	
C	-0.0406555856	 1.4238847918	 0.0087823863	-0.345029
N	-0.0175928999	-0.0215744391	 0.0007861027	-0.086189
C	-1.2277418119	-0.8126553078	 0.0043511064	-0.277162
C	-0.7252983598	-2.2627431103	-0.0069131925	 0.39576
O	-1.434649815	-3.2318522915	-0.0078984668	-0.292362
C	 0.7936052598	-2.2230027013	-0.0165101808	-0.465594
C	 1.1545106101	-0.7399997579	-0.0109079353	 0.41578
O	 2.2690858034	-0.2635869804	-0.015466621	-0.383712
H	 0.9932657057	 1.7709943467	 0.0026645902	 0.171511
H	-0.5611195572	 1.8145893405	-0.8742691668	 0.127767
H	-0.5473193867	 1.8051215389	 0.9039310911	 0.127786
H	-1.8482595493	-0.635083054	 0.8945000549	 0.138727
H	-1.8598290758	-0.6252812634	-0.8755899345	 0.138728
H	 1.2117782418	-2.7327069782	 0.8570732382	 0.166998
H	 1.2005260703	-2.7233257738	-0.900757232	 0.166993
61.9865	141.5783	154.0323	190.7086	295.1879	382.3456	462.4175	531.5919	553.7171	570.0266	658.1452	790.5707	816.5557	828.3615	1011.4235	1021.5726	1093.0817	1139.8587	1154.0551	1203.785	1212.2363	1238.0495	1268.1691	1318.3414	1413.8734	1421.5408	1443.3504	1492.415	1494.0929	1529.3271	1809.8092	1869.2496	2999.8271	3017.5695	3027.9703	3066.6276	3067.5742	3107.13	3151.6203
CN1CC(=O)CC1=O	CN1CC(=O)CC1=O	
InChI=1S/C5H7NO2/c1-6-3-4(7)2-5(6)8/h2-3H2,1H3	InChI=1S/C5H7NO2/c1-6-3-4(7)2-5(6)8/h2-3H2,1H3
