18
gdb 46686	2.92374	1.7508	1.33559	1.9442	73.69	-0.226	-0.0186	0.2074	969.7355	0.150457	-401.930926	-401.92405	-401.923106	-401.962187	27.922	
O	-0.0302816683	 0.1643574734	-0.7848178858	-0.321015
C	-0.0579596854	 1.1572627833	-0.0954440191	 0.397984
C	-1.3190200877	 1.6270739873	 0.6207408744	-0.305433
C	-1.3667347366	 3.1474100625	 0.8649538485	-0.263016
C	-0.0634022124	 3.6766283177	 1.4564170113	-0.005844
C	 1.1791972062	 2.8790490695	 1.3941916614	-0.072827
C	 1.1613094026	 2.0363710051	 0.1087236749	-0.139983
C	 1.0964915105	 3.4111660479	-0.634211614	-0.175363
N	 1.0725640428	 4.1917783939	 0.645286505	-0.14742
H	-2.1918137371	 1.2623430525	 0.0736149068	 0.127065
H	-1.3188408451	 1.1130243942	 1.5928341283	 0.132387
H	-1.6069249466	 3.6765700867	-0.0641537426	 0.121089
H	-2.1841171456	 3.3738774385	 1.5553559913	 0.112965
H	-0.174448005	 4.2933447709	 2.3432565439	 0.104068
H	 1.8588520312	 2.7411994904	 2.2284694766	 0.097523
H	 2.0664989654	 1.4711112521	-0.1075924748	 0.100469
H	 2.0211376859	 3.6283595661	-1.1706642982	 0.126581
H	 0.2510684453	 3.5926090879	-1.3056281679	 0.110772
95.1151	194.9831	310.7291	383.1489	418.627	445.4261	500.4969	615.841	643.6725	713.647	749.5136	773.4769	813.8042	873.6534	905.4951	930.6671	981.4864	989.5496	996.17	1020.1297	1056.9244	1080.3157	1086.1412	1173.191	1187.6216	1207.4766	1216.9821	1239.9962	1252.8575	1293.4176	1300.9083	1331.8001	1340.3316	1368.5832	1415.8616	1454.2855	1484.2825	1510.455	1814.0933	3016.8055	3042.2145	3054.5664	3084.0569	3104.9178	3116.9365	3131.2487	3152.6078	3168.6923
O=C1CCC2C3C1CN23	O=C1CC[C@H]2[C@H]3[C@@H]1CN23	
InChI=1S/C7H9NO/c9-6-2-1-5-7-4(6)3-8(5)7/h4-5,7H,1-3H2	InChI=1S/C7H9NO/c9-6-2-1-5-7-4(6)3-8(5)7/h4-5,7H,1-3H2/t4-,5+,7-,8?/m1/s1
