16
gdb 80122	2.70923	1.53659	1.27332	2.8149	70.67	-0.2519	-0.0328	0.2192	1023.2301	0.123812	-437.890357	-437.882407	-437.881462	-437.923025	29.199	
C	-0.0535380593	 1.5584319392	-0.0508458604	-0.416288
C	 0.0874110611	 0.0546803715	-0.0121979231	-0.10118
C	 1.3787870287	-0.6934595683	-0.2032971032	-0.079331
N	 2.6132449474	 0.0051849299	 0.0187552477	-0.241997
C	 2.5959069225	 0.3916622166	 1.2308509693	 0.084928
O	 1.541086462	 0.0534705294	 2.0156516468	-0.219499
C	 0.6628607966	-0.6806753543	 1.1852491164	 0.285645
C	-0.0118363956	-1.8309088845	 1.8121736849	 0.085623
O	 0.1410302485	-2.194805799	 2.949807539	-0.262205
H	 0.842500991	 2.0676865713	 0.3078929826	 0.140883
H	-0.2345875744	 1.8898149821	-1.0777983458	 0.133206
H	-0.8964841614	 1.8819516626	 0.566904558	 0.133219
H	-0.7582141166	-0.4848679217	-0.4346433462	 0.108261
H	 1.4165478348	-1.5608913102	-0.8518280024	 0.118215
H	 3.3597348234	 0.9780338042	 1.7260543249	 0.15511
H	-0.7013522287	-2.3538057189	 1.1095185716	 0.075411
99.7678	124.6702	191.2873	225.4509	235.5761	264.4079	427.5975	473.814	559.0427	633.9308	694.1971	718.7047	789.1539	884.2661	912.8612	945.3329	960.2529	1012.3072	1019.9094	1053.4684	1090.3038	1113.7833	1140.269	1151.1777	1228.9629	1269.8735	1322.4094	1345.9662	1408.1703	1424.5772	1441.4087	1489.3504	1498.5977	1665.6893	1820.7753	2863.3747	3048.7892	3111.3756	3125.7222	3140.9333	3182.8215	3236.7159
CC1C2N=COC12C=O	C[C@H]1[C@H]2N=CO[C@@]12C=O	
InChI=1S/C6H7NO2/c1-4-5-6(4,2-8)9-3-7-5/h2-5H,1H3	InChI=1S/C6H7NO2/c1-4-5-6(4,2-8)9-3-7-5/h2-5H,1H3/t4-,5+,6-/m0/s1
