20
gdb 75917	2.68535	1.5542	1.10436	3.5572	80.23	-0.2224	0.0364	0.2587	1134.5056	0.171834	-403.186073	-403.177481	-403.176537	-403.219215	32.9	
C	-0.0192398052	 1.4193368788	 0.0247349899	-0.360816
N	 0.0572860436	-0.0222953737	 0.0374736069	-0.119928
C	 0.0137233494	-0.7557824196	-1.1242211473	 0.399123
O	-0.0360783622	-0.2956996675	-2.246676253	-0.395584
C	 0.0181867905	-2.233416721	-0.7323624848	-0.339198
C	 0.4440549457	-2.231674381	 0.743625897	-0.286585
C	 0.0500535201	-0.8373032581	 1.2293262046	 0.378822
C	 0.4805255815	-0.306891594	 2.5625788292	-0.33005
C	-0.9816504478	-0.6367108091	 2.3143278579	-0.319698
H	 0.8612292238	 1.8727818555	 0.4937470203	 0.126606
H	-0.0642699825	 1.7249759442	-1.0219938965	 0.168725
H	-0.9161928485	 1.7844448567	 0.5402751344	 0.122859
H	-0.9975347688	-2.621192173	-0.8707412157	 0.130213
H	 0.6769646885	-2.8001994035	-1.3920189769	 0.12932
H	-0.0242799438	-3.0196223989	 1.337122403	 0.108361
H	 1.5299442345	-2.3533477088	 0.8219778128	 0.11431
H	 1.0612333896	-0.9643025896	 3.2018588341	 0.118452
H	 0.7466419909	 0.7406416901	 2.6488934262	 0.119299
H	-1.6716204093	 0.1956168159	 2.2282162176	 0.118628
H	-1.40319625	-1.5185608634	 2.7850909702	 0.117139
86.9725	136.8683	154.0686	186.3346	268.0842	313.3746	340.5393	454.578	492.7676	512.8486	565.7218	657.4565	677.4056	766.5896	782.1205	883.7595	898.1422	917.9904	945.3071	989.8751	1006.5154	1050.8738	1061.576	1077.9588	1111.5584	1154.3508	1172.8282	1184.2971	1189.653	1233.9263	1281.1772	1303.9773	1328.1507	1377.5106	1414.2237	1446.5535	1458.0027	1470.557	1497.3589	1498.7463	1503.2338	1518.7462	1806.242	3017.1896	3045.3681	3052.6462	3068.9263	3104.8786	3123.1187	3129.3687	3132.5269	3141.3327	3209.1374	3223.1344
CN1C(=O)CCC11CC1	CN1C(=O)CCC21CC2	
InChI=1S/C7H11NO/c1-8-6(9)2-3-7(8)4-5-7/h2-5H2,1H3	InChI=1S/C7H11NO/c1-8-6(9)2-3-7(8)4-5-7/h2-5H2,1H3
