17
gdb 10163	3.22919	1.1729	0.90568	4.3307	66.73	-0.2472	-0.0447	0.2025	1262.0826	0.138265	-400.997393	-400.987764	-400.98682	-401.033478	31.835	
C	 0.0055444969	 1.7186898468	 0.215742337	-0.394247
C	-0.1544799003	 0.2027263669	 0.2142874419	-0.108163
N	 0.8346588542	-0.4265403472	 1.0917215691	-0.323358
C	 0.7759860206	-1.876395053	 1.1197234091	-0.130187
C	 2.1031067977	-2.4301643163	 1.6394782585	 0.143747
O	 2.2171369841	-3.4108712085	 2.3206460133	-0.2218
C	-0.363250677	-2.3423460787	 2.0299689711	 0.182864
O	-1.1574059511	-3.1928306481	 1.7381943555	-0.232955
H	 0.9885891953	 2.0121838998	-0.1707506875	 0.115452
H	-0.752118321	 2.1864074714	-0.4190125878	 0.125045
H	-0.0925179289	 2.1172728047	 1.2292700283	 0.133014
H	-1.1522507493	-0.0649987558	 0.5828517556	 0.120436
H	-0.0937030074	-0.1846148975	-0.8191414093	 0.089931
H	 1.7667663366	-0.1162244717	 0.8320116783	 0.218662
H	 0.6132791536	-2.3426383677	 0.1272618142	 0.105832
H	 2.992398238	-1.8377356354	 1.3150844359	 0.081494
H	-0.3945879919	-1.7963240497	 2.9976422867	 0.094234
44.2241	68.5123	72.9026	82.7857	164.3906	219.1816	254.0024	336.8653	359.9855	380.0801	557.6931	602.9144	729.1674	818.7689	831.3227	908.3904	977.9918	1054.2405	1062.4439	1080.7994	1146.2614	1162.6792	1182.9358	1268.044	1291.5508	1310.9306	1389.2397	1396.5672	1416.3353	1417.737	1485.1971	1497.2196	1506.9638	1524.182	1826.6975	1858.5467	2842.4822	2904.2797	2912.0618	2938.452	3034.8073	3046.1831	3103.7576	3124.9251	3496.493
CCNC(C=O)C=O	CCNC(C=O)C=O	
InChI=1S/C5H9NO2/c1-2-6-5(3-7)4-8/h3-6H,2H2,1H3	InChI=1S/C5H9NO2/c1-2-6-5(3-7)4-8/h3-6H,2H2,1H3
