15
gdb 46654	2.34966	1.76241	1.49101	4.7515	70.76	-0.25	0.0075	0.2575	941.318	0.113353	-416.785865	-416.778215	-416.777271	-416.818066	29.018	
O	-0.0065629461	-0.0395846115	 0.0928988136	-0.356176
C	-0.016872891	 1.1584372776	 0.0068050657	 0.410029
N	-1.1146992616	 1.9788443249	-0.0721208004	-0.306798
C	-0.8189373336	 3.3962667977	-0.0167479943	-0.201522
C	 0.7087041809	 3.3798768425	-0.0027144069	-0.039151
C	 1.4112119284	 2.7809789328	 1.1743764585	-0.214538
C	 0.7148844087	 2.5030143615	 2.39687249	 0.375536
C	 0.1492692792	 2.2910300078	 3.4366104649	-0.463023
N	 1.1729596656	 1.9907363434	-0.0757291101	-0.169691
H	-2.0291739831	 1.5952643082	 0.1004186239	 0.260511
H	-1.1877513974	 3.9261134418	-0.9024325211	 0.121465
H	-1.241441488	 3.8759747841	 0.8755241359	 0.127766
H	 1.2372236135	 4.1038922539	-0.6140103269	 0.114358
H	 2.4634259425	 3.0236287615	 1.2979019825	 0.131496
H	-0.3412810481	 2.0852208738	 4.3561025347	 0.209739
99.0423	129.9652	164.0201	256.6377	334.5195	449.434	478.7331	546.8858	569.6752	620.2323	676.0992	679.2965	733.9562	755.186	812.8159	838.7505	876.7647	972.9032	984.3124	1051.5225	1071.7016	1104.5944	1126.3545	1218.1656	1221.9596	1279.1972	1327.7511	1358.0275	1397.0922	1444.4306	1525.9463	1872.0878	2236.8506	3017.9024	3053.8889	3142.7874	3166.1244	3500.708	3659.7357
O=C1NCC2C(C#C)N12	O=C1NC[C@H]2[C@@H](C#C)N12	
InChI=1S/C6H6N2O/c1-2-4-5-3-7-6(9)8(4)5/h1,4-5H,3H2,(H,7,9)	InChI=1S/C6H6N2O/c1-2-4-5-3-7-6(9)8(4)5/h1,4-5H,3H2,(H,7,9)/t4-,5+,8?/m1/s1
