21
gdb 73377	2.35331	2.12659	1.5548	1.3438	80.35	-0.2514	0.0767	0.3282	952.6337	0.186161	-387.094166	-387.087139	-387.086195	-387.124937	30.444	
O	-0.0921584693	 1.3373748454	 0.0233068109	-0.511315
C	-0.0013313389	-0.0674526441	 0.0009962197	 0.439629
C	 0.7191233532	-0.7113738041	 1.2021670744	-0.267648
C	 0.3823055302	-2.2186431932	 1.0243053898	-0.25403
C	-0.7826362778	-2.1921014776	 0.0191698848	 0.005035
C	-0.456797993	-1.8227834182	-1.4782127768	-0.028558
C	-1.7739719189	-0.9972344879	-1.4713291705	-0.242752
C	-1.392390013	-0.7593312683	 0.0040539807	-0.054124
C	 0.5854590859	-0.7011794501	-1.3051981675	-0.282837
H	 0.8007954762	 1.6960648773	-0.009639239	 0.272771
H	 1.7950476624	-0.5035466965	 1.2028227976	 0.082248
H	 0.3018035066	-0.3155392126	 2.1345860972	 0.098843
H	 1.2341682976	-2.7946228087	 0.6473902206	 0.098294
H	 0.0824946218	-2.6789065559	 1.9701429211	 0.099137
H	-1.5034437142	-3.006505915	 0.1037669211	 0.064505
H	-0.258651691	-2.5880620001	-2.2303487629	 0.054674
H	-1.8421565345	-0.1348036866	-2.1405584715	 0.094532
H	-2.6668160645	-1.6200452077	-1.5692480146	 0.091857
H	-2.0964590574	-0.4029523505	 0.7566720356	 0.06091
H	 0.5635418676	 0.0093715922	-2.1368967008	 0.095234
H	 1.612780981	-1.0578855778	-1.1790345897	 0.083596
226.6262	236.4371	270.3807	331.1688	412.9113	431.1308	462.9228	566.8277	596.7224	682.9008	735.1053	779.9177	802.2758	840.8244	867.9199	892.375	932.4065	944.5257	958.7343	997.3543	1006.8638	1019.7963	1023.2874	1047.7412	1075.489	1090.5173	1129.2789	1156.2165	1168.4679	1196.2363	1214.8049	1228.2216	1242.0734	1256.5514	1264.5778	1283.8226	1297.4802	1314.6298	1338.3496	1344.5128	1391.6265	1486.0459	1490.0649	1505.0871	1516.924	3032.2678	3041.0268	3047.4187	3053.1724	3070.5499	3087.7933	3091.9147	3096.4394	3103.4639	3109.6957	3115.0266	3808.1856
OC12CCC3C(CC13)C2	O[C@@]12CC[C@@H]3[C@@H](C[C@H]13)C2	
InChI=1S/C8H12O/c9-8-2-1-6-5(4-8)3-7(6)8/h5-7,9H,1-4H2	InChI=1S/C8H12O/c9-8-2-1-6-5(4-8)3-7(6)8/h5-7,9H,1-4H2/t5-,6+,7-,8+/m0/s1
