18
gdb 7844	4.35648	1.11103	0.96122	2.2227	68.5	-0.2384	-0.0044	0.234	1223.6191	0.150896	-384.9425	-384.933294	-384.93235	-384.977917	32.425	
C	-0.131737924	 1.4575142973	 0.1952103819	-0.473052
C	 0.0258139502	-0.0534866388	 0.1508357491	 0.380154
O	 1.0753176701	-0.5936153804	 0.4148128296	-0.292161
C	-1.2149786973	-0.8400861389	-0.2586197612	-0.322448
C	-1.0506703684	-2.3345476738	-0.1294671811	 0.009394
C	-1.3765976943	-3.0273469703	 1.1786667829	-0.316978
C	-2.2561899715	-3.2222834555	-0.0314947508	 0.070874
O	-3.5069333718	-2.5927210277	-0.082609662	-0.419922
H	 0.8360540101	 1.9273082091	 0.3744520026	 0.140503
H	-0.5638293163	 1.8337655968	-0.7383678445	 0.134512
H	-0.8242694215	 1.7352962865	 0.9985465303	 0.139161
H	-2.0784717565	-0.4888733978	 0.3167354487	 0.126067
H	-1.4437403587	-0.5620818243	-1.2988062389	 0.124401
H	-0.2040259336	-2.735294697	-0.6765123814	 0.101166
H	-0.7454159292	-3.842499037	 1.5142764959	 0.114702
H	-1.7808405971	-2.4084822688	 1.9738304483	 0.10867
H	-2.213768891	-4.1842931049	-0.5421776332	 0.086522
H	-4.0924302491	-3.0501828748	 0.5294758637	 0.288435
23.7914	61.9774	107.9677	124.3129	218.8003	299.0643	314.2306	372.4165	453.4438	475.8201	539.6914	595.0192	772.8912	807.7403	834.6473	842.8465	884.7591	963.243	974.8659	1002.1672	1051.6736	1077.6077	1128.5333	1146.9002	1172.3868	1181.9208	1239.6051	1241.8339	1300.5536	1330.6326	1379.84	1402.641	1425.1735	1452.75	1465.6258	1476.3241	1491.4538	1812.5967	3006.7259	3035.6453	3074.5489	3096.4394	3097.4823	3129.4703	3151.256	3168.578	3218.7017	3809.1265
CC(=O)CC1CC1O	CC(=O)C[C@H]1C[C@H]1O	
InChI=1S/C6H10O2/c1-4(7)2-5-3-6(5)8/h5-6,8H,2-3H2,1H3	InChI=1S/C6H10O2/c1-4(7)2-5-3-6(5)8/h5-6,8H,2-3H2,1H3/t5-,6+/m0/s1
