21
gdb 81072	2.78968	1.44344	1.16702	1.8724	83.15	-0.227	0.0795	0.3065	1143.2893	0.18343	-383.159897	-383.151596	-383.150652	-383.19287	32.536	
C	-0.2787475033	 1.5027636614	-0.2590272935	-0.445982
C	 0.0135605105	 0.0340747981	-0.0218566191	 0.051878
N	 1.21853438	-0.6123605293	-0.7507076769	-0.155164
C	 2.1021619396	 0.0233904275	 0.3311849746	-0.239431
C	 0.8757028826	-0.5073089915	 1.1484681173	 0.335422
C	 1.0324493086	-1.7567427236	 0.260089717	-0.21099
N	 0.5423703215	-0.4793992344	 2.5375600448	-0.179558
C	 1.6419831262	-0.596244082	 3.4942106313	-0.235036
C	 0.944248015	 0.7027038557	 3.299585262	-0.23347
H	 0.5527426393	 2.168337311	-0.0181204768	 0.116227
H	-0.5444384169	 1.6623261707	-1.3093085182	 0.131665
H	-1.135661124	 1.8064020165	 0.3513573085	 0.125642
H	-0.8949256153	-0.5495630076	-0.2087470701	 0.072934
H	 3.0589036427	-0.4912120218	 0.4529504434	 0.098995
H	 2.2544327448	 1.0958984379	 0.211031656	 0.10101
H	 0.1457236072	-2.3682120109	 0.0741962326	 0.102344
H	 1.9280999215	-2.3704394774	 0.3858707073	 0.095702
H	 1.4384192814	-1.207184223	 4.3685929395	 0.119665
H	 2.6535050723	-0.6799423275	 3.101859133	 0.114463
H	 1.4901867609	 1.4850236872	 2.7763726934	 0.114251
H	 0.2225382752	 1.0574486928	 4.0293174339	 0.119432
69.1999	150.8587	159.7557	197.2825	275.9367	348.7696	409.0589	456.6836	550.8503	586.5022	621.655	755.7352	789.7612	817.8253	837.0561	852.1289	894.1693	939.5326	964.9955	979.0768	1008.6696	1036.1786	1055.2526	1099.6658	1107.0433	1111.6338	1122.8932	1153.745	1163.4946	1172.2934	1183.2233	1184.5381	1197.671	1207.6124	1225.2046	1281.2595	1359.9873	1406.05	1435.2698	1491.0355	1491.8191	1492.8905	1516.5188	1519.798	1554.8945	3038.3011	3043.0491	3054.1419	3068.3861	3101.6903	3102.7666	3105.6846	3120.4318	3124.3154	3140.9569	3183.5677	3197.8713
CC1N2CC1(C2)N1CC1	C[C@H]1N2C[C@@]1(C2)N1CC1	
InChI=1S/C7H12N2/c1-6-7(9-2-3-9)4-8(6)5-7/h6H,2-5H2,1H3	InChI=1S/C7H12N2/c1-6-7(9-2-3-9)4-8(6)5-7/h6H,2-5H2,1H3/t6-/m1/s1
