21
gdb 57301	2.81362	1.09597	1.02143	3.3666	79.43	-0.2447	-0.0291	0.2155	1308.7728	0.178949	-424.224133	-424.213771	-424.212827	-424.259764	37.647	
C	 0.2141443847	 1.5351288777	 0.028757553	-0.400285
C	 0.1037410413	 0.0045284884	 0.0570994554	 0.135117
C	 1.0026326758	-0.5643953559	 1.1788382234	-0.417784
C	-1.3645252226	-0.4134795035	 0.2962882308	-0.417906
C	 0.5775218988	-0.5625328804	-1.2903543596	 0.364737
O	 1.0193348062	 0.1345332787	-2.1738090882	-0.319221
C	 0.4635814006	-2.0594368452	-1.5088355952	-0.018326
C	 0.1143726309	-2.5424978989	-2.861712388	-0.163471
O	 1.4424719281	-2.6256912226	-2.3805834999	-0.210343
H	 1.2431976034	 1.8526084448	-0.1554349605	 0.127834
H	-0.4048563059	 1.9610764003	-0.7651225181	 0.12195
H	-0.1137444871	 1.9524783298	 0.9863061561	 0.103797
H	 0.6921599627	-0.1505735214	 2.1439508912	 0.121786
H	 0.9401508067	-1.6539377519	 1.2521305115	 0.11915
H	 2.0513246889	-0.2950284913	 1.0193219506	 0.131304
H	-2.0196888337	-0.0299451866	-0.4924438472	 0.124928
H	-1.4886896907	-1.4995013753	 0.342820083	 0.11715
H	-1.7133574795	-0.0027121743	 1.249444831	 0.122926
H	 0.2079940342	-2.6843391545	-0.6568468851	 0.101438
H	-0.4172955779	-3.4876046595	-2.9644103289	 0.11914
H	-0.0482229649	-1.8010143983	-3.6411608751	 0.136079
40.8089	67.6245	175.2691	183.4562	215.4875	236.0942	257.7789	287.7478	309.3436	321.6098	350.7748	381.8541	458.1723	578.291	745.6078	766.3396	823.7011	870.5113	903.5307	939.1533	945.0255	965.2762	1000.555	1014.4565	1041.5867	1080.2895	1101.0513	1163.3338	1172.3787	1221.3486	1240.4626	1278.4361	1293.1964	1398.2757	1403.5871	1413.2316	1433.1684	1477.1478	1480.7055	1483.8778	1499.3012	1504.1403	1505.3981	1516.7562	1800.8634	3033.2127	3035.7898	3044.6336	3087.0124	3101.7182	3103.9072	3108.4157	3113.1972	3115.0768	3127.0054	3144.9359	3187.4893
CC(C)(C)C(=O)C1CO1	CC(C)(C)C(=O)[C@H]1CO1	
InChI=1S/C7H12O2/c1-7(2,3)6(8)5-4-9-5/h5H,4H2,1-3H3	InChI=1S/C7H12O2/c1-7(2,3)6(8)5-4-9-5/h5H,4H2,1-3H3/t5-/m1/s1
