22
gdb 104471	2.06976	1.30867	1.10477	3.2777	84.05	-0.2277	-0.0189	0.2088	1273.1685	0.191091	-404.335491	-404.324865	-404.32392	-404.370674	38.616	
C	 0.4846612314	 1.0523031292	 0.4696071549	-0.391584
C	 0.2202892704	-0.3884150536	 0.0063757336	-0.268652
C	-1.2423311502	-0.7914252321	 0.0830999327	 0.191609
C	-2.1538797266	-0.0691955509	-0.8621875884	 0.143217
O	-1.7898111115	 0.60181377	-1.7963840261	-0.273457
C	-1.6794660369	-2.216947363	 0.3783059333	-0.043076
C	-0.6964870948	-3.3465307607	 0.6040252628	-0.422135
N	-1.9494620025	-1.156904218	 1.3300250044	-0.137023
C	-1.2594128707	-1.1118510684	 2.6117056704	-0.318359
H	 1.5466130626	 1.2957373526	 0.3688505254	 0.113381
H	-0.0819235502	 1.7639574297	-0.1350689745	 0.144475
H	 0.2078390736	 1.1969474309	 1.5184533206	 0.114469
H	 0.5234459258	-0.4855820706	-1.0418510673	 0.121862
H	 0.8447528986	-1.0800949803	 0.5762035054	 0.095487
H	-3.2314979264	-0.225705744	-0.6314017216	 0.080737
H	-2.5842521643	-2.5567334167	-0.1294076889	 0.091923
H	 0.2224788262	-3.0369674174	 1.1023999325	 0.126343
H	-1.161725869	-4.1276493817	 1.2153394799	 0.129517
H	-0.42287889	-3.7988584851	-0.3546301351	 0.133
H	-0.1896470603	-1.3577713691	 2.5872702	 0.107684
H	-1.3665672894	-0.1078149393	 3.0324559733	 0.132967
H	-1.7522499957	-1.8135481117	 3.2922810926	 0.127613
99.2827	103.5543	138.1548	172.3689	190.4886	210.1654	224.7601	254.6082	270.5301	301.3186	322.0119	415.7173	508.0574	544.1472	567.1099	708.4757	733.4908	794.4946	803.6299	969.1851	982.7588	1010.6197	1037.1899	1058.6177	1097.8074	1124.7081	1145.7792	1148.8049	1163.3591	1181.8496	1285.99	1308.6334	1348.8778	1365.7173	1404.5226	1409.5008	1415.9358	1427.9312	1454.3618	1472.2477	1488.0052	1492.7074	1501.3432	1504.5025	1507.2642	1514.3654	1815.4141	2887.8209	3005.925	3041.8542	3045.8573	3053.7092	3075.9686	3076.4474	3097.2873	3098.43	3105.5849	3110.9012	3134.0746	3144.9248
CCC1(C=O)C(C)N1C	CC[C@@]1(C=O)[C@@H](C)N1C	
InChI=1S/C7H13NO/c1-4-7(5-9)6(2)8(7)3/h5-6H,4H2,1-3H3	InChI=1S/C7H13NO/c1-4-7(5-9)6(2)8(7)3/h5-6H,4H2,1-3H3/t6-,7-,8?/m1/s1
