19
gdb 19753	3.60483	2.17748	2.10995	1.7309	72.74	-0.2328	0.0883	0.3211	777.9721	0.169416	-327.928218	-327.92198	-327.921036	-327.958128	26.16	
C	-0.1420867552	 1.5663393399	-0.0166943013	-0.424507
C	 0.0342683698	 0.0485648607	 0.0158614152	 0.033644
C	 0.9372263904	-0.5195035335	-1.0784134054	-0.03602
C	 2.3222042233	-0.609553304	-0.5323736608	-0.029455
C	 2.2869255298	-0.1071340625	 0.9061922064	-0.237812
C	 0.8376031287	-0.5552265775	 1.1998333262	-0.06876
C	 0.9237369352	-2.0195674882	 0.7300827595	-0.159573
N	 1.4781696523	-1.8303039277	-0.6370795771	-0.131688
H	 0.815211345	 2.0952145169	-0.0088716203	 0.119493
H	-0.6748214485	 1.8722019597	-0.9236057456	 0.116535
H	-0.7274847367	 1.9130388761	 0.8414708301	 0.114217
H	-0.9577771395	-0.4193337517	-0.0282969635	 0.070878
H	 0.7163898997	-0.4071137611	-2.1337070139	 0.08386
H	 3.2118442809	-0.5748668997	-1.1492265644	 0.086787
H	 3.0168951443	-0.6094824274	 1.5492273206	 0.099879
H	 2.4455472252	 0.9712715373	 0.9864906875	 0.100896
H	 0.4522063806	-0.3687252237	 2.2014082302	 0.063505
H	 1.6040626525	-2.635534275	 1.3260269103	 0.098465
H	-0.0475192377	-2.5203426587	 0.6720738662	 0.099656
194.6075	233.6449	283.0126	444.4983	456.2572	521.1459	666.5557	702.0848	761.7154	791.8196	850.0786	860.1702	911.7221	918.4268	929.9597	946.3201	955.0242	1012.8335	1020.9242	1036.5667	1069.8604	1086.4821	1106.2934	1132.9626	1147.8556	1190.3223	1210.0468	1223.9316	1248.4098	1278.4893	1287.0861	1302.743	1334.4578	1375.5013	1393.4614	1413.6503	1489.156	1496.3975	1504.9023	1516.0884	3021.0754	3034.3892	3049.3721	3056.207	3094.5215	3096.716	3100.8816	3113.1301	3128.4317	3175.2864	3189.7412
CC1C2C3CC1CN23	C[C@H]1[C@H]2[C@H]3C[C@@H]1CN23	
InChI=1S/C7H11N/c1-4-5-2-6-7(4)8(6)3-5/h4-7H,2-3H2,1H3	InChI=1S/C7H11N/c1-4-5-2-6-7(4)8(6)3-5/h4-7H,2-3H2,1H3/t4-,5-,6-,7+,8?/m1/s1
