13
gdb 25141	3.60994	1.21336	0.90813	5.001	75.89	-0.2422	-0.0835	0.1587	1163.0881	0.092058	-415.692885	-415.68586	-415.684916	-415.724596	26.425	
O	-0.049964785	-0.081618436	 0.0039424645	-0.38369
C	 0.006718573	 1.1338545367	 0.0092771173	 0.455189
N	-1.1758706892	 1.9046277903	 0.0292668486	-0.365366
C	-1.2353483753	 3.2625548182	 0.0367977209	 0.05376
C	-0.1005767982	 4.0092106072	 0.0249366468	-0.248929
C	 1.1518612446	 3.3150081944	 0.0043089579	 0.222428
C	 1.2101395399	 1.9476052736	-0.0032590307	-0.345223
C	 2.3638511641	 4.0817116025	-0.0085444535	 0.225497
N	 3.3326945559	 4.7140118196	-0.0187275332	-0.316867
H	-2.0254192745	 1.3562361911	 0.0381934483	 0.271735
H	-2.2266493073	 3.6985113117	 0.0525396386	 0.1513
H	-0.1400798623	 5.0881531478	 0.030813564	 0.134733
H	 2.1533744043	 1.4179892928	-0.0188478296	 0.145434
137.4772	153.0296	170.9716	379.6323	437.0394	439.1824	462.3592	553.2354	588.5821	661.194	716.9392	736.1769	762.0197	785.7811	901.2045	908.8706	942.7775	1008.1372	1124.3976	1152.592	1210.8161	1245.4006	1329.6367	1432.8949	1503.7567	1564.3107	1662.3391	1790.0813	2350.4059	3213.0171	3230.8569	3250.4853	3603.3357
O=C1NC=CC(=C1)C#N	O=c1[nH]ccc(c1)C#N	
InChI=1S/C6H4N2O/c7-4-5-1-2-8-6(9)3-5/h1-3H,(H,8,9)	InChI=1S/C6H4N2O/c7-4-5-1-2-8-6(9)3-5/h1-3H,(H,8,9)
