12
gdb 133443	3.24375	1.46754	1.01041	0.7889	63.	-0.2643	-0.0759	0.1884	1041.364	0.077696	-510.067953	-510.060762	-510.059818	-510.100078	26.757	
F	 0.0638799056	 0.087002466	-0.2070925309	-0.039672
C	 0.0182366817	 1.3904410422	-0.002338875	 0.2931
N	-1.1300599086	 1.9156158554	 0.1184666762	-0.115099
O	-1.1711999055	 3.2932365463	 0.3350246334	-0.279408
C	-0.0304106468	 4.075511204	 0.4186408427	 0.510773
N	-0.0931118885	 5.3187281096	 0.6148020401	-0.551426
N	 1.171751476	 3.417974323	 0.2754966288	-0.385762
C	 1.3259230352	 2.0678715849	 0.0593976509	 0.303992
N	 2.4712417471	 1.5296628891	-0.0632536489	-0.518221
H	-1.0577184072	 5.6312970032	 0.6961186328	 0.245117
H	 2.0033155912	 3.9893948232	 0.336646918	 0.29106
H	 2.37776547	 0.5272988132	-0.2166508878	 0.245547
82.265	115.4192	322.3058	324.3945	376.9128	402.5771	462.7954	544.1517	605.9156	616.6094	695.2631	710.7631	750.9626	797.7167	801.4674	864.7053	909.4398	1004.3592	1095.2729	1152.3149	1324.116	1351.0704	1414.7811	1480.3023	1695.4511	1739.9756	1786.9423	3520.7313	3540.0001	3615.6928
FC1=NOC(=N)NC1=N	FC1=NO[C]([NH])N[C]1[NH]	
InChI=1S/C3H3FN4O/c4-1-2(5)7-3(6)9-8-1/h(H3,5,6,7)	InChI=1S/C3H3FN4O/c4-1-2(5)7-3(6)9-8-1/h(H3,5,6,7)
