23
gdb 121005	4.843	0.75205	0.68109	0.7326	89.71	-0.2272	0.0324	0.2596	1748.3797	0.204741	-388.309953	-388.299908	-388.298964	-388.34562	36.781	
C	 0.0590082114	 1.5133931285	-0.0672880797	-0.384451
C	-0.1323954781	 0.0108318559	-0.191457241	-0.035282
O	 0.8345639317	-0.4900323694	-1.0928809445	-0.255089
C	 0.8151875553	-1.8937655045	-1.2439475692	 0.149615
C	-0.3974628776	-2.4546051364	-2.0433594742	-0.280335
C	 0.2267318429	-3.5475220679	-2.8735201102	-0.166043
C	 1.5612006795	-3.4980450859	-2.8767666869	 0.331483
C	 2.5004984437	-4.3924722946	-3.6211624846	-0.490723
C	 2.0611618661	-2.34583863	-2.0326613669	-0.334553
H	 1.0631559496	 1.7426376557	 0.300680872	 0.124817
H	-0.0665176982	 1.9971298783	-1.0402392112	 0.125356
H	-0.6725224452	 1.9364040563	 0.6278188502	 0.112091
H	-0.0192615585	-0.4765661859	 0.7924196652	 0.08263
H	-1.1506058754	-0.2163731179	-0.5462634683	 0.087792
H	 0.8249921586	-2.3648226934	-0.2473431962	 0.064115
H	-1.206372485	-2.8118244573	-1.3958719585	 0.096833
H	-0.8224286193	-1.661140676	-2.6752477533	 0.108987
H	-0.3631793353	-4.2678355372	-3.4317183259	 0.081171
H	 1.9643850351	-5.1575155779	-4.1896484734	 0.121025
H	 3.1211916484	-3.8196115979	-4.3224506748	 0.124877
H	 3.194527806	-4.8980055625	-2.9372883342	 0.122696
H	 2.4159144324	-1.5167756409	-2.6607681766	 0.115429
H	 2.8956120117	-2.6209395791	-1.3771869776	 0.097561
43.8274	81.7484	96.4402	172.8532	189.8131	243.3034	249.194	285.4615	338.4979	422.278	441.747	490.259	595.2745	660.6019	821.452	825.0399	853.1068	878.5622	908.4625	919.3165	967.5602	1015.9115	1033.6722	1049.4227	1079.5365	1088.8615	1137.67	1150.248	1163.9215	1188.4848	1194.0626	1226.2379	1284.1602	1296.2904	1300.5867	1329.2653	1362.8075	1376.7824	1403.0054	1414.001	1440.0855	1478.1081	1480.81	1483.2988	1489.1515	1491.6459	1500.1589	1529.9182	1724.8321	2952.5731	2962.3337	2986.0428	3005.7616	3012.811	3017.3887	3043.9094	3052.5362	3056.2646	3059.2157	3107.4291	3118.0576	3120.4126	3178.2977
CCOC1CC=C(C)C1	CCO[C@H]1CC=C(C)C1	
InChI=1S/C8H14O/c1-3-9-8-5-4-7(2)6-8/h4,8H,3,5-6H2,1-2H3	InChI=1S/C8H14O/c1-3-9-8-5-4-7(2)6-8/h4,8H,3,5-6H2,1-2H3/t8-/m0/s1
