12
gdb 131417	3.21292	1.49861	1.02194	4.0524	60.58	-0.257	-0.0639	0.1932	1038.546	0.07825	-505.951599	-505.944303	-505.943359	-505.983653	27.126	
O	-0.127974566	 1.3505227377	-0.1335272317	-0.399036
C	 0.0377918274	 0.0256042572	-0.0315184494	 0.551637
N	 1.2014492072	-0.4455535094	 0.2442113248	-0.244277
O	 1.2845322744	-1.8657499097	 0.3330970711	-0.253987
C	 0.2244717034	-2.6852611329	 0.1439317376	 0.41104
O	 0.3612612331	-3.8736327575	 0.2329464018	-0.31345
C	-1.1163065081	-2.0631735343	-0.1777138841	 0.255504
N	-2.1763729952	-2.7263899621	-0.3745702704	-0.496758
N	-1.1045046017	-0.6806284817	-0.2438803734	-0.383955
H	 0.7328475177	 1.7607090299	 0.0326717571	 0.328334
H	-1.9607103051	-3.7202775915	-0.2783684892	 0.257258
H	-1.9658465672	-0.1951787556	-0.4548495242	 0.287689
105.1108	107.137	290.9206	331.5399	380.5049	439.5159	480.4508	481.9582	509.4581	589.2942	616.8219	680.8388	689.9663	786.8712	817.6231	921.0868	964.3881	1073.4629	1134.8922	1195.3299	1240.2311	1343.3757	1421.8178	1568.5252	1719.679	1748.7091	1843.0515	3484.4387	3605.2998	3775.3563
OC1=NOC(=O)C(=N)N1	OC1=NOC(=O)[C]([NH])N1	
InChI=1S/C3H3N3O3/c4-1-2(7)9-6-3(8)5-1/h(H3,4,5,6,8)	InChI=1S/C3H3N3O3/c4-1-2(7)9-6-3(8)5-1/h(H3,4,5,6,8)
