17
gdb 105831	2.37396	1.4829	1.17123	3.6365	68.34	-0.2746	-0.0035	0.2711	1106.7913	0.134566	-458.956199	-458.947407	-458.946463	-458.990047	31.938	
C	 0.0544873371	 1.5279154229	-0.0448283554	-0.428298
C	 0.0914151817	 0.0204106767	 0.0678240357	-0.088098
C	 1.3092339713	-0.8136297119	-0.1090740869	 0.04238
O	 2.4839761358	-0.0978900528	 0.3746818864	-0.261631
C	 1.9749486909	-0.1432199001	 1.6642029581	 0.429763
O	 2.5291498221	 0.1477462511	 2.6765707813	-0.34355
C	 0.6650737912	-0.7694847241	 1.2627183656	 0.068448
C	-0.0741861905	-1.7642182355	 2.1130371856	-0.185182
O	 0.7880093403	-2.7312860984	 2.6843674224	-0.413446
H	 1.0095077447	 1.9721517635	 0.2429352804	 0.149695
H	-0.1560423361	 1.8236329174	-1.077723441	 0.129359
H	-0.7294844689	 1.9474751896	 0.5925596804	 0.129775
H	-0.8030012819	-0.4812638565	-0.302995542	 0.107393
H	 1.4883252523	-1.6362804514	-0.7868999283	 0.13574
H	-0.6476534676	-1.229794209	 2.8862309131	 0.108915
H	-0.7966482061	-2.3138072681	 1.5003337437	 0.118031
H	 1.3744525937	-2.2730713832	 3.2972251908	 0.300704
64.9559	125.4722	135.4189	181.7597	217.8109	251.4568	334.6708	391.5839	454.9558	501.2792	600.7872	652.3688	729.4427	770.2124	805.6949	902.3805	906.7661	929.1245	969.4575	1019.3426	1063.5693	1070.8255	1077.9841	1110.0898	1122.2773	1205.355	1265.6142	1290.6229	1336.8151	1385.5796	1415.9611	1420.2271	1461.5732	1490.8477	1494.3593	1502.658	1922.1754	2986.3814	3044.3611	3071.6173	3106.5045	3113.1046	3136.6279	3225.6475	3802.0207
CC1C2OC(=O)C12CO	C[C@H]1[C@H]2OC(=O)[C@@]12CO	
InChI=1S/C6H8O3/c1-3-4-6(3,2-7)5(8)9-4/h3-4,7H,2H2,1H3	InChI=1S/C6H8O3/c1-3-4-6(3,2-7)5(8)9-4/h3-4,7H,2H2,1H3/t3-,4+,6-/m0/s1
