17
gdb 40011	3.39118	1.60176	1.49982	2.9631	70.8	-0.2447	0.001	0.2457	927.0196	0.137668	-421.795311	-421.788741	-421.787797	-421.826068	27.25	
C	 0.0427954482	 1.50797498	-0.0007255201	-0.272789
O	 1.1942914007	 0.6512244763	 0.0072538952	-0.283869
C	-0.0969092921	 0.0533498342	 0.0176582324	 0.496203
C	-0.5005245056	-0.8243736243	 1.213645229	-0.324611
C	-1.1076722511	-2.0429492102	 0.4464514234	 0.016747
O	-0.230499518	-2.1217928466	-0.6866348844	-0.244832
C	-0.5107784369	-0.8103209022	-1.1939737533	-0.081702
C	-2.0386634605	-0.7965165805	-1.2204304967	-0.082084
C	-2.4105878679	-1.5646012772	-0.1971595587	-0.080119
H	-0.1213250005	 2.0802507955	 0.9116351619	 0.114438
H	-0.1189191082	 2.0630467029	-0.9251085181	 0.11033
H	 0.395999323	-1.1192566506	 1.763826184	 0.127114
H	-1.2028923355	-0.3462225455	 1.8991447472	 0.107187
H	-1.1242394935	-2.9877719468	 0.987394652	 0.08671
H	 0.0364297764	-0.6101721071	-2.1134250011	 0.091798
H	-2.6499631595	-0.1958859262	-1.879229637	 0.11086
H	-3.4043555392	-1.7505441519	 0.1865093144	 0.108618
122.8971	266.9087	330.6086	375.1348	406.5092	517.6148	535.5324	618.2338	726.3021	766.5634	803.2887	840.4546	854.5221	874.5466	902.2669	925.1838	927.2027	937.6751	952.6271	982.563	1037.2585	1046.1638	1103.0486	1121.8415	1158.2836	1161.6655	1184.875	1221.3865	1240.5011	1263.7645	1296.1642	1327.3122	1336.8221	1428.9065	1480.0463	1537.9561	1642.1871	3072.5464	3074.4306	3125.2781	3134.9546	3144.6853	3158.2794	3219.384	3245.0245
C1OC11CC2OC1C=C2	C1O[C@]21C[C@@H]1O[C@H]2C=C1	
InChI=1S/C7H8O2/c1-2-6-7(4-8-7)3-5(1)9-6/h1-2,5-6H,3-4H2	InChI=1S/C7H8O2/c1-2-6-7(4-8-7)3-5(1)9-6/h1-2,5-6H,3-4H2/t5-,6+,7+/m1/s1
