23
gdb 103877	3.43176	0.80419	0.73773	0.8749	92.78	-0.2522	0.0587	0.3109	1651.263	0.20301	-351.118233	-351.10752	-351.106576	-351.154179	39.906	
C	 0.421729783	 1.4758547265	 0.3195178446	-0.386844
C	-0.1484459988	 0.1226952244	-0.1275463629	-0.240095
C	 0.5578951303	-0.4767441953	-1.3377578317	 0.344576
C	 0.4433890166	 0.3472239401	-2.6102079708	-0.459803
C	 1.8538721071	-1.2301211664	-1.1167504245	-0.318853
C	 0.6108881856	-1.9806627619	-1.5294864716	-0.038713
C	-0.0552943729	-2.983811624	-0.5946140152	-0.393318
C	 0.5201325535	-4.3209534427	-0.7152362985	 0.30848
C	 1.0010067835	-5.4161714896	-0.8338744515	-0.446611
H	 1.4910226443	 1.3961917214	 0.542287294	 0.118353
H	 0.2982331406	 2.2445834775	-0.4489595501	 0.118587
H	-0.0848673562	 1.8301283291	 1.2225770492	 0.110856
H	-0.0909032439	-0.5706307902	 0.7177913835	 0.092706
H	-1.2174589715	 0.2376063769	-0.3547229683	 0.0931
H	 0.905398267	 1.3338096825	-2.4978188065	 0.118261
H	 0.939301828	-0.1515320061	-3.4485693141	 0.113318
H	-0.606517269	 0.5012559994	-2.887862758	 0.112247
H	 2.658389805	-1.115449433	-1.8356436878	 0.106973
H	 2.1940258769	-1.3599791574	-0.0931859986	 0.107267
H	 0.5838113312	-2.3056829028	-2.5663303124	 0.089503
H	 0.0292166091	-2.6548555305	 0.4469820815	 0.128684
H	-1.1315282512	-3.0356609896	-0.8089384303	 0.129259
H	 1.4237535218	-6.3852429185	-0.92934913	 0.192065
45.1026	85.0323	105.438	171.3512	199.6324	225.4035	243.0637	292.8491	339.1875	360.0267	374.5984	413.4374	476.9973	574.8024	613.6399	633.8095	679.8243	784.8135	829.084	866.4438	893.887	917.0873	957.8352	967.4327	1019.7864	1030.6469	1037.2202	1066.7709	1084.6631	1127.8414	1139.6702	1169.5148	1231.8866	1270.254	1311.6117	1319.1537	1336.7703	1376.5039	1408.0902	1418.0916	1430.2406	1466.3456	1478.4737	1490.1507	1497.6124	1501.6295	1507.9624	1511.8281	2237.8505	3011.2177	3016.6232	3024.1645	3037.1242	3058.354	3070.67	3085.9088	3099.0659	3104.3149	3111.3951	3121.1508	3138.2366	3203.8155	3507.8563
CCC1(C)CC1CC#C	CC[C@@]1(C)C[C@H]1CC#C	
InChI=1S/C9H14/c1-4-6-8-7-9(8,3)5-2/h1,8H,5-7H2,2-3H3	InChI=1S/C9H14/c1-4-6-8-7-9(8,3)5-2/h1,8H,5-7H2,2-3H3/t8-,9+/m1/s1
