16
gdb 17198	5.0466	1.61986	1.45484	0.3926	64.71	-0.2482	0.0639	0.312	869.7515	0.130486	-383.651076	-383.644337	-383.643392	-383.681613	26.846	
O	 0.1847526342	 1.4246993972	-0.1480185654	-0.450297
C	 0.0583766996	 0.0386832325	-0.0368654377	 0.197522
C	 0.0454413822	-0.6696049232	 1.3630058559	-0.207246
C	-1.4289391241	-0.1636661214	 1.5281144977	-0.265689
C	-1.3499544357	-0.6485068164	 0.0395831639	-0.207246
C	-0.5772544515	-1.8474546803	 0.6032696383	 0.566702
C	-0.1213789047	-3.1339577703	 0.1020782242	-0.320697
O	-1.1167266054	-3.0199394985	 1.1533791706	-0.301728
H	-0.4049011728	 1.8535412126	 0.4804737543	 0.28441
H	 0.7483419941	-0.3837824505	-0.7710882059	 0.089144
H	 0.83517965	-0.6934082155	 2.1130001922	 0.083786
H	-2.0682480974	-0.7456707428	 2.1929117308	 0.123743
H	-1.5782662545	 0.9055857209	 1.7026123631	 0.08074
H	-2.1408697156	-0.6484100513	-0.7095482688	 0.083786
H	-0.4974503852	-3.5211985816	-0.843613333	 0.121535
H	 0.8365549068	-3.5413860314	 0.4215818797	 0.121536
172.4513	220.3228	284.5246	303.3892	362.4796	442.6069	477.7835	602.0218	672.199	715.4734	801.5465	857.0373	884.6023	897.8166	898.9833	993.766	1000.9003	1052.9405	1055.6969	1108.5254	1113.5683	1120.3796	1121.8386	1137.9514	1171.6147	1192.7197	1210.3268	1241.0844	1257.9949	1288.2495	1448.0753	1467.2806	1526.2868	1564.2594	3058.3485	3086.0542	3090.0965	3124.6768	3128.1028	3133.3185	3172.0729	3817.3139
OC1C2CC1C21CO1	O[C@H]1[C@H]2C[C@@H]1[C@]12CO1	
InChI=1S/C6H8O2/c7-5-3-1-4(5)6(3)2-8-6/h3-5,7H,1-2H2	InChI=1S/C6H8O2/c7-5-3-1-4(5)6(3)2-8-6/h3-5,7H,1-2H2/t3-,4+,5+,6-
