19
gdb 72595	2.22512	1.60366	1.42573	3.677	75.65	-0.23	-0.0291	0.2009	1051.6056	0.156666	-423.020402	-423.011353	-423.010409	-423.053929	33.816	
C	-0.3037212106	 1.5273825552	 0.0940245058	-0.497892
C	-0.0191315832	 0.0466731831	-0.0035329328	 0.232153
C	 1.1416567791	-0.447930376	-0.8821454998	-0.118305
O	 1.6284853616	-1.3323356682	 0.1541601618	-0.324681
C	 0.6712394874	-0.8232640306	 1.1239562223	 0.283947
C	 1.2929167685	-0.3809521374	 2.4167294763	-0.489203
C	-0.5626289424	-1.756462946	 1.0993894529	 0.396319
O	-0.8894767501	-2.7142658201	 1.736250013	-0.298672
C	-1.2267935774	-0.9384514017	-0.0277439797	-0.424828
H	 0.6092755051	 2.0987298369	 0.2918457606	 0.123885
H	-0.7361128205	 1.9060185543	-0.8397085973	 0.127223
H	-1.0170005114	 1.7451787746	 0.8963476954	 0.121906
H	 0.8733698324	-0.987191726	-1.7985553215	 0.104961
H	 1.8880630321	 0.3201321516	-1.1241920075	 0.101828
H	 2.0750465609	 0.3636655774	 2.240898934	 0.125479
H	 0.5400566705	 0.0468122712	 3.0865765654	 0.124777
H	 1.7428071758	-1.2421702443	 2.9211687665	 0.14937
H	-2.1668866357	-0.4899338238	 0.3122719139	 0.131917
H	-1.419277672	-1.47170397	-0.9632596993	 0.129814
72.7198	167.1052	174.1046	179.0653	203.2149	269.8617	316.7926	330.0247	387.0687	494.5654	530.8451	586.391	623.9317	682.631	802.2661	826.3048	868.1825	905.6428	955.1732	993.915	1008.158	1040.7552	1061.1655	1125.8015	1135.9125	1155.5711	1170.1872	1201.849	1251.9231	1286.8909	1301.5663	1364.5454	1404.2645	1415.5922	1433.8592	1475.3689	1482.2826	1492.4222	1494.8493	1522.3026	1890.3256	3006.9719	3025.1364	3036.6997	3047.5177	3056.1806	3087.4701	3097.4518	3102.0853	3110.1102	3113.4474
CC12COC1(C)C(=O)C2	C[C@@]12CO[C@]1(C)C(=O)C2	
InChI=1S/C7H10O2/c1-6-3-5(8)7(6,2)9-4-6/h3-4H2,1-2H3	InChI=1S/C7H10O2/c1-6-3-5(8)7(6,2)9-4-6/h3-4H2,1-2H3/t6-,7-/m1/s1
