21
gdb 74692	2.83913	1.45819	1.14923	1.4264	84.04	-0.2259	0.0232	0.2491	1143.7232	0.183352	-387.099471	-387.091245	-387.090301	-387.131501	33.734	
C	 0.0123594016	 1.5017374894	 0.0627075445	-0.479868
C	 0.0026441234	 0.0037825009	-0.0233588144	 0.318887
C	-0.0235087909	-0.6918495583	-1.1638965754	-0.160904
C	-0.0322886538	-2.2028129289	-1.0951922254	-0.06478
C	-1.0835939533	-2.6461871988	-0.0285354709	-0.248572
C	 0.0026630125	-2.3002529637	 1.0140286969	 0.411075
O	-0.0600094988	-3.0536825913	 2.1988501833	-0.488483
C	 1.0581627192	-2.6592572675	-0.0756828642	-0.275075
C	 0.0172743676	-0.783752312	 1.2748933308	-0.360713
H	 0.9024496855	 1.8661861257	 0.5926251897	 0.119262
H	-0.0024779854	 1.960932603	-0.9295526452	 0.120635
H	-0.8547844922	 1.8750408328	 0.6233865763	 0.121355
H	-0.0392636422	-0.1964054629	-2.1305991172	 0.077807
H	-0.0577112765	-2.68009703	-2.0743636958	 0.06223
H	-2.033692372	-2.1081232697	 0.0109234795	 0.091926
H	-1.2563758638	-3.7253274792	-0.0460680683	 0.102597
H	 0.604946642	-2.716034166	 2.8092286957	 0.272125
H	 1.2185674137	-3.7403013868	-0.1004192891	 0.098524
H	 2.0141267488	-2.1286685988	-0.0814711099	 0.08525
H	 0.9104259029	-0.5188315266	 1.864732069	 0.088157
H	-0.8477068083	-0.5173773011	 1.8991861502	 0.108565
152.7552	186.3611	249.3453	275.8226	286.3967	363.5163	411.8138	420.8921	442.3705	470.769	497.4671	582.8103	667.4433	814.912	831.6221	851.128	889.3644	896.4419	911.283	953.249	966.0285	1010.6328	1028.023	1042.8557	1062.1393	1095.2674	1100.9469	1138.2102	1157.2242	1191.3158	1221.4626	1239.9427	1245.75	1265.2808	1325.757	1343.9101	1359.0987	1391.2843	1414.5434	1470.0498	1472.4927	1477.7035	1489.5804	1508.5938	1723.8163	2972.5721	3010.8183	3019.954	3050.717	3054.4766	3060.2242	3108.0371	3108.8091	3115.4556	3121.7456	3165.5896	3796.1806
CC1=CC2CC(O)(C2)C1	CC1=C[C@@H]2C[C@@](O)(C2)C1	
InChI=1S/C8H12O/c1-6-2-7-4-8(9,3-6)5-7/h2,7,9H,3-5H2,1H3	InChI=1S/C8H12O/c1-6-2-7-4-8(9,3-6)5-7/h2,7,9H,3-5H2,1H3/t7-,8-
