15
gdb 16360	2.56005	2.40011	1.45001	5.2581	61.76	-0.2606	-0.0017	0.2589	867.4679	0.118739	-399.796091	-399.788752	-399.787807	-399.827689	26.995	
C	-0.2784153197	 1.494787211	 0.0305094074	-0.406524
C	 0.1118275819	 0.0343241371	 0.0036155708	 0.076281
O	 1.3691426508	-0.1904416712	-0.7296074397	-0.275701
C	 1.978030309	-0.7952059094	 0.3518308825	 0.449121
O	 3.072672689	-1.249312873	 0.4157510096	-0.327792
C	 0.7708712444	-0.5897504136	 1.2372328228	 0.101268
C	 0.6942067852	-0.2073908404	 2.6666531494	-0.291517
N	 0.2649570797	-1.5392122392	 2.2173839384	-0.346237
H	 0.5208012755	 2.1029140189	 0.4628623053	 0.135265
H	-0.4824481334	 1.855153196	-0.9818171547	 0.141746
H	-1.1865455735	 1.6336688056	 0.6271211191	 0.123721
H	-0.6720665612	-0.5903627668	-0.4379674696	 0.103613
H	 1.6012054389	-0.1980633591	 3.2634518797	 0.148312
H	-0.0564421829	 0.5272473393	 2.9474998715	 0.125569
H	-0.7500399836	-1.5898809549	 2.1586474775	 0.242875
112.9926	193.0865	215.2035	221.7172	250.9582	321.3896	488.2125	530.1663	631.9749	724.666	742.7009	839.4662	861.7078	893.5066	956.6633	983.7779	1017.1298	1037.7275	1063.9111	1125.6862	1128.4338	1154.206	1256.9949	1275.6371	1299.5728	1379.4478	1411.5808	1425.9827	1484.548	1493.0887	1510.9507	1947.378	3040.0878	3054.62	3110.1628	3111.3985	3126.7681	3203.7207	3493.332
CC1OC(=O)C11CN1	C[C@H]1OC(=O)[C@]21CN2	
InChI=1S/C5H7NO2/c1-3-5(2-6-5)4(7)8-3/h3,6H,2H2,1H3	InChI=1S/C5H7NO2/c1-3-5(2-6-5)4(7)8-3/h3,6H,2H2,1H3/t3-,5-/m1/s1
