17
gdb 127700	5.69854	0.98556	0.90489	2.1882	76.76	-0.2543	-0.0163	0.238	1309.46	0.137594	-414.171089	-414.162981	-414.162037	-414.204636	29.094	
C	-0.1975732078	 1.4142731854	 0.0078832993	-0.317717
N	-0.0186811505	-0.0225153707	 0.0327479033	 0.150949
N	 0.1838613746	-0.7381775529	-1.0632307818	-0.124978
N	 0.3005273273	-1.9810210841	-0.6700650013	-0.28192
C	 0.1610583002	-1.9729423454	 0.6818040608	 0.410894
N	-0.042167446	-0.7430550116	 1.1508983491	-0.327739
C	 0.2257142565	-3.171502701	 1.526825848	-0.093508
C	-0.3137246808	-4.4881992377	 1.0000050791	-0.261066
C	 1.1650601931	-4.302148021	 1.1507712215	-0.261076
H	 0.583290943	 1.8955776938	 0.6007183504	 0.160093
H	-0.1305498333	 1.7316153648	-1.0319360922	 0.171062
H	-1.1754129448	 1.6735381836	 0.4195659222	 0.160081
H	 0.0919571049	-2.9631849123	 2.5814292934	 0.103206
H	-0.8349781017	-5.1281854054	 1.702867035	 0.116868
H	-0.7219976363	-4.4774144324	-0.0037907466	 0.138983
H	 1.7492754816	-4.1664964682	 0.248164716	 0.13901
H	 1.6769318602	-4.8121553249	 1.9589673538	 0.11686
53.5992	101.1238	144.428	163.9407	236.9804	315.4327	434.2927	459.1295	638.5294	693.9394	747.5717	779.8943	796.0367	831.8254	919.6254	924.5756	1041.5561	1045.4377	1062.5694	1071.651	1091.058	1107.6296	1131.7695	1151.7813	1206.0122	1220.5248	1252.1419	1306.5368	1355.8753	1413.9454	1428.3685	1449.6504	1462.5549	1476.2097	1495.3716	1508.4415	1563.3313	3063.8735	3135.5839	3140.4109	3143.219	3176.3366	3187.0069	3226.334	3240.884
CN1N=NC(=N1)C1CC1	Cn1nnc(n1)C1CC1	
InChI=1S/C5H8N4/c1-9-7-5(6-8-9)4-2-3-4/h4H,2-3H2,1H3	InChI=1S/C5H8N4/c1-9-7-5(6-8-9)4-2-3-4/h4H,2-3H2,1H3
