17
gdb 63340	2.52949	1.53396	1.20505	2.4061	70.63	-0.2711	-0.0022	0.2688	1071.9123	0.13581	-455.225422	-455.216804	-455.21586	-455.258533	32.349	
C	 0.0049184192	 1.5276856561	-0.0078258954	-0.40964
C	-0.0072356677	 0.001887145	 0.0352414423	 0.277761
C	-1.4140162539	-0.5807592151	-0.0724046832	-0.409623
O	 0.7897059904	-0.5004879399	-1.0762269895	-0.265667
C	 1.8438080661	-1.2234238437	-0.6356743562	 0.471217
O	 2.6596465094	-1.7518837201	-1.3325979263	-0.378284
N	 1.7969096047	-1.2351212953	 0.7578494466	-0.428462
C	 0.7251398242	-0.5287418324	 1.2682169262	 0.372566
N	 0.346445187	-0.310032672	 2.4575532657	-0.541489
H	 1.0297540493	 1.9075527226	 0.0155055794	 0.12951
H	-0.4786580707	 1.8823673058	-0.9217218414	 0.131811
H	-0.5302305392	 1.9174910223	 0.8610514025	 0.149398
H	-1.8981962982	-0.2287118517	-0.9870002328	 0.131839
H	-1.3801745561	-1.6732635137	-0.0929790906	 0.129519
H	-2.0017461279	-0.2673943964	 0.793426569	 0.149371
H	 2.4959925207	-1.7221904743	 1.2946502822	 0.272801
H	 0.9591568928	-0.7438418373	 3.1488209315	 0.21737
82.7013	135.9696	207.8435	225.5912	239.6654	297.2164	318.8623	396.5134	436.669	517.1558	582.5571	624.4613	645.4867	704.5165	751.4643	772.2688	863.1814	908.2535	946.8204	962.0444	1020.5119	1022.6827	1090.2197	1151.4095	1218.5504	1221.5303	1302.18	1358.7611	1392.6103	1395.3174	1417.6465	1475.1887	1479.025	1495.0591	1504.8147	1774.6513	1904.7869	3049.2302	3052.6329	3125.8582	3128.4251	3137.9385	3143.1031	3472.1679	3660.0118
CC1(C)OC(=O)NC1=N	CC1(C)OC(=O)N[C]1[NH]	
InChI=1S/C5H8N2O2/c1-5(2)3(6)7-4(8)9-5/h1-2H3,(H2,6,7,8)	InChI=1S/C5H8N2O2/c1-5(2)3(6)7-4(8)9-5/h1-2H3,(H2,6,7,8)
