22
gdb 10354	1.89944	1.58013	1.1056	2.011	73.8	-0.2539	0.0692	0.3231	1208.8146	0.198167	-387.334267	-387.323816	-387.322871	-387.369354	37.794	
C	-1.5440607739	-0.4485690329	-0.2054890602	-0.395728
C	-0.0561024421	-0.088137596	-0.3469431715	 0.036971
C	 0.1059559245	 1.3550324249	-0.8469338975	-0.404337
C	 0.7689180881	-0.3527899045	 0.9389990865	-0.013417
C	 0.1592610826	 0.2514820695	 2.2138592783	-0.082832
O	 1.0466926412	 0.205030376	 3.3255730148	-0.420671
C	 1.0532209003	-1.8485837966	 1.151643961	-0.083487
O	 1.7668411385	-2.4445886929	 0.0756982615	-0.419473
H	-2.0585780016	 0.2186057339	 0.4952831938	 0.113673
H	-2.0505414904	-0.3569550195	-1.1717447168	 0.112781
H	-1.6894308993	-1.4761435175	 0.1416785543	 0.116788
H	 0.3750917194	-0.7513241587	-1.1063252586	 0.091664
H	-0.3016578851	 2.0834430598	-0.1364272927	 0.111949
H	 1.1600159068	 1.6043019773	-1.0114982348	 0.105832
H	-0.4213052696	 1.499463711	-1.7957823349	 0.112549
H	 1.7480645158	 0.1373303753	 0.7962589696	 0.041347
H	-0.1797324144	 1.2806953572	 2.0264940087	 0.090909
H	-0.7194662459	-0.3232941575	 2.5248833415	 0.114145
H	 1.7976431175	 0.7721196185	 3.122995989	 0.279292
H	 1.5790797564	-1.9799203105	 2.1062558459	 0.103264
H	 0.1122627468	-2.4057475799	 1.2209120237	 0.109698
H	 2.6528885344	-2.0688120171	 0.0679189281	 0.279081
68.6555	103.8499	122.4614	192.9383	218.0786	231.3444	248.3859	254.8133	306.5267	307.8853	323.7929	399.2789	467.8772	531.6372	542.2292	767.8331	868.9897	919.7283	928.9577	965.6151	988.0455	1009.5462	1057.2103	1077.6845	1101.3899	1117.5105	1134.2792	1193.1772	1205.0975	1239.039	1309.2779	1336.6659	1369.7227	1379.4092	1392.2068	1400.5019	1405.3839	1408.8198	1419.7633	1426.7598	1486.9775	1494.1449	1504.4822	1508.8252	1509.9047	1515.5449	2946.7681	2996.4832	3021.7807	3024.6436	3032.421	3036.7502	3071.6409	3076.8335	3089.0434	3094.1831	3098.8165	3104.5275	3813.6689	3815.355
CC(C)C(CO)CO	CC(C)C(CO)CO	
InChI=1S/C6H14O2/c1-5(2)6(3-7)4-8/h5-8H,3-4H2,1-2H3	InChI=1S/C6H14O2/c1-5(2)6(3-7)4-8/h5-8H,3-4H2,1-2H3
