15
gdb 29472	3.34359	1.61892	1.09132	3.154	73.32	-0.171	0.0503	0.2213	1025.4755	0.114857	-416.839712	-416.831938	-416.830994	-416.871567	29.905	
O	 0.0917069209	 1.3599889214	-0.0822490634	-0.449934
C	 0.0547005983	-0.004186532	-0.0102361182	 0.174395
C	 0.0347259078	-0.8299135861	-1.1036636372	-0.174947
N	 0.0772317863	-2.1755660133	-0.6713186367	-0.421638
C	 0.0263891973	-2.1360451156	 0.6939423284	 0.403157
C	 0.0522567196	-0.8294138953	 1.1657885336	 0.172508
C	 0.085694985	-0.9173250238	 2.5969022042	-0.353253
C	 0.0718185629	-2.2535649345	 2.9128126698	-0.065259
N	 0.0440987451	-3.0122304566	 1.741387778	-0.40641
H	 0.0959439146	 1.7065263144	 0.813724903	 0.29769
H	 0.043864596	-0.5894032193	-2.1529402406	 0.114138
H	-0.2539091018	-2.9350244597	-1.2410129121	 0.251774
H	 0.1142362091	-0.1133058232	 3.3164353306	 0.085514
H	 0.0714009999	-2.7463274614	 3.8715078152	 0.114476
H	 0.0127146991	-4.014418515	 1.7005004955	 0.25779
143.8478	183.1699	226.156	271.9117	275.26	291.7117	416.084	542.0576	564.3169	601.7788	616.5543	666.3048	678.0644	697.0884	748.2699	790.6304	804.7378	924.4799	1050.0764	1063.5124	1092.3284	1142.0006	1186.4051	1222.3345	1296.3883	1324.3522	1359.3138	1396.5604	1498.3447	1511.6162	1547.0317	1618.7389	1657.7009	3241.3957	3270.4827	3278.6854	3664.6899	3696.5973	3855.3334
OC1=CNC2=C1C=CN2	Oc1c[nH]c2c1cc[nH]2	
InChI=1S/C6H6N2O/c9-5-3-8-6-4(5)1-2-7-6/h1-3,7-9H	InChI=1S/C6H6N2O/c9-5-3-8-6-4(5)1-2-7-6/h1-3,7-9H
