17
gdb 54869	3.31551	1.35656	1.20014	4.1866	73.39	-0.2321	-0.0002	0.2319	1056.1532	0.13847	-418.022167	-418.014611	-418.013667	-418.054538	29.695	
N	 0.6228811714	 0.304031862	-0.8117430579	-0.511643
C	-0.0646583248	 0.0770365725	 0.3382394926	 0.364901
O	 0.1371876349	 0.670693409	 1.3804227097	-0.371321
C	-1.1874632325	-0.9762009586	 0.2141825175	-0.121566
C	-2.3259882164	-0.5312561529	-0.6916883417	-0.082566
C	-2.6283414932	-1.4387974512	-1.6227760458	-0.06985
C	-1.714343063	-2.6135827053	-1.5268435631	-0.082483
N	-0.2895865159	-2.2508465164	-1.7929021349	-0.33945
C	-0.7889089507	-2.3250136773	-0.3980965149	-0.075633
H	 1.4192325833	 0.9186144153	-0.7637707587	 0.251344
H	 0.5125422949	-0.3377832186	-1.5879987786	 0.2724
H	-1.5402357988	-1.118886157	 1.2406377559	 0.108953
H	-2.7950869496	 0.438604452	-0.5745981429	 0.115028
H	-3.4014565818	-1.344357582	-2.3752227604	 0.10541
H	-2.0405947785	-3.6153476152	-1.78329535	 0.098248
H	 0.2418912912	-3.0975294505	-1.9866463926	 0.235329
H	-0.3942577904	-3.1026457957	 0.2453739956	 0.102899
53.4277	157.0423	212.0318	330.073	384.5268	417.7621	454.8518	495.1924	604.5944	673.625	713.242	751.1507	773.5533	793.3359	829.7073	861.6299	894.3259	932.164	948.4611	975.2218	982.1814	1021.2041	1086.0525	1113.4201	1140.3334	1148.5077	1166.5067	1244.0221	1260.8084	1303.6744	1321.9389	1350.9044	1390.7506	1402.8437	1620.9369	1659.4276	1799.198	3061.5956	3172.5264	3183.2182	3197.8696	3221.7765	3484.8463	3502.9543	3687.8989
NC(=O)C1C=CC2NC12	NC(=O)[C@H]1C=C[C@H]2N[C@@H]12	
InChI=1S/C6H8N2O/c7-6(9)3-1-2-4-5(3)8-4/h1-5,8H,(H2,7,9)	InChI=1S/C6H8N2O/c7-6(9)3-1-2-4-5(3)8-4/h1-5,8H,(H2,7,9)/t3-,4+,5-/m0/s1
