13
gdb 24770	3.51575	1.81046	1.19506	0.7483	72.74	-0.2318	-0.0994	0.1324	930.0069	0.092455	-415.675326	-415.669151	-415.668207	-415.705984	23.97	
O	-0.0089934714	-0.0616817303	 0.0025928587	-0.314352
C	-0.044162414	 1.1368439264	 0.0093305864	 0.411376
C	-1.2155732428	 2.0769823523	 0.0317493807	-0.222949
C	-0.7729610096	 3.348353304	 0.0319700457	-0.177159
C	 0.6903103891	 3.3210790479	 0.0102674231	 0.375677
N	 1.6968066795	 4.1546783918	-0.0000875038	-0.347579
C	 2.819583251	 3.3299417813	-0.0209305986	-0.091805
C	 2.4694529102	 2.0045336134	-0.0228445207	-0.124034
N	 1.0876671693	 2.0094686053	-0.0025954356	-0.08468
H	-2.2316162767	 1.7139379164	 0.0448433515	 0.142803
H	-1.360908922	 4.2548891308	 0.0454964199	 0.14891
H	 3.8138353998	 3.7488681254	-0.0332880075	 0.124063
H	 3.0455424776	 1.0952544152	-0.0361419999	 0.159729
131.6909	204.6048	310.4188	389.67	560.0035	618.2124	625.7514	684.0763	687.1607	756.0737	767.8916	768.9418	827.6169	861.5291	935.7085	955.1417	1043.5987	1063.6775	1102.4528	1115.2493	1184.3559	1254.5277	1320.7403	1403.2105	1407.7595	1494.9575	1577.0707	1610.4976	1856.2427	3243.3048	3258.1114	3267.8635	3294.8364
O=C1C=CC2=NC=CN12	O=C1C=Cc2nccn12	
InChI=1S/C6H4N2O/c9-6-2-1-5-7-3-4-8(5)6/h1-4H	InChI=1S/C6H4N2O/c9-6-2-1-5-7-3-4-8(5)6/h1-4H
