21
gdb 52319	5.29228	0.66375	0.62022	3.9836	80.6	-0.2444	-0.015	0.2294	1792.4141	0.182027	-424.247882	-424.238346	-424.237402	-424.284413	33.51	
O	-0.0738642199	-0.0690885777	-0.019829061	-0.240646
C	 0.0642854894	 1.127207616	-0.0079282238	 0.156586
C	 1.3802119229	 1.8555380455	-0.1268139792	-0.27245
C	 1.3779099252	 2.8624221132	-1.2899763294	-0.214639
C	 2.6309754444	 3.7347832843	-1.3108900013	 0.157307
C	 2.663285383	 4.7919017833	-2.4243722029	-0.244927
C	 3.4962977967	 5.9112006813	-1.7850162803	-0.229375
C	 3.0472303378	 5.8299592696	-0.3218052739	-0.059344
O	 2.7257867999	 4.4604186841	-0.0779204736	-0.279782
H	-0.8201066749	 1.801725119	 0.0935444449	 0.066615
H	 1.541855112	 2.4168453051	 0.8031569457	 0.14094
H	 2.1826498023	 1.1190420129	-0.2301908507	 0.116106
H	 1.2997402752	 2.3300411967	-2.2461014199	 0.107801
H	 0.5004849891	 3.5173747329	-1.2114183532	 0.101675
H	 3.5163075498	 3.0827548277	-1.3938593605	 0.070089
H	 3.0878717421	 4.4063540162	-3.3542176468	 0.106669
H	 1.6470438217	 5.1443617667	-2.6377500535	 0.103225
H	 4.5650711645	 5.6877252396	-1.8695693863	 0.109957
H	 3.3208211353	 6.8943096997	-2.2282289919	 0.105517
H	 3.8229686359	 6.1407597206	 0.3863209284	 0.105268
H	 2.1591382777	 6.4552957832	-0.1454784907	 0.093408
30.6988	53.8636	79.2856	112.6931	139.1904	225.1149	295.8256	353.3402	465.479	529.9616	582.2357	663.9763	763.3484	819.2917	866.0862	885.2169	901.9338	934.1894	949.7342	1001.5405	1031.6609	1037.8742	1062.6092	1115.634	1120.6777	1158.7188	1193.2527	1204.0027	1212.8898	1255.3721	1265.1652	1307.9882	1311.9879	1337.6997	1361.1623	1364.3066	1400.3756	1406.4022	1432.0628	1462.7698	1481.4345	1487.3384	1498.3708	1532.1903	1835.1968	2841.4033	2959.4673	2988.9087	3019.2247	3031.6417	3038.8391	3048.0179	3063.1025	3064.0363	3100.7395	3103.6778	3111.5591
O=CCCC1CCCO1	O=CCC[C@H]1CCCO1	
InChI=1S/C7H12O2/c8-5-1-3-7-4-2-6-9-7/h5,7H,1-4,6H2	InChI=1S/C7H12O2/c8-5-1-3-7-4-2-6-9-7/h5,7H,1-4,6H2/t7-/m0/s1
