14
gdb 25429	2.16865	1.61527	0.92575	4.676	80.44	-0.2261	-0.0389	0.1872	1167.891	0.101248	-399.571358	-399.563484	-399.56254	-399.603878	29.399	
O	-0.0599368996	 0.0001621788	-0.0001334513	-0.287991
C	 0.002052327	 1.2123539512	 0.0083817867	 0.046169
C	 1.2472041119	 1.9740019975	 0.0001125127	 0.063051
C	 2.5184554117	 1.432673443	-0.0183780187	-0.120595
N	 3.4100913128	 2.4599309728	-0.0205684834	-0.240027
C	 2.754073859	 3.6657848366	-0.0040088518	-0.186157
C	 1.3979087536	 3.4094030146	 0.0093112092	 0.075894
C	 0.3622464688	 4.3720692569	 0.028313333	 0.242837
C	-0.5271450119	 5.18439052	 0.0445103789	-0.444085
H	-0.917077562	 1.8351587986	 0.0234897892	 0.07891
H	 2.826785507	 0.4004875402	-0.0297224691	 0.161444
H	 4.4105897986	 2.3542353402	-0.0326456542	 0.276666
H	 3.2893185542	 4.6005990421	-0.0029181624	 0.143256
H	-1.3101317011	 5.9012058376	 0.0587447412	 0.190629
119.431	144.3644	166.5653	219.5763	263.6123	428.0221	466.9058	557.0775	558.7666	559.3491	602.7593	650.1152	655.7924	678.0386	763.6831	804.5223	813.7354	914.4686	1047.8408	1089.7268	1098.8431	1187.6557	1264.1564	1339.3397	1355.9947	1444.2719	1466.0843	1543.5279	1581.0617	1780.1275	2231.3162	2911.7701	3277.5103	3282.2144	3503.0902	3671.2338
O=CC1=CNC=C1C#C	O=Cc1c[nH]cc1C#C	
InChI=1S/C7H5NO/c1-2-6-3-8-4-7(6)5-9/h1,3-5,8H	InChI=1S/C7H5NO/c1-2-6-3-8-4-7(6)5-9/h1,3-5,8H
