18
gdb 89206	2.49072	1.64584	1.27037	2.9053	73.5	-0.2556	0.0115	0.2671	1061.044	0.146352	-439.070096	-439.061578	-439.060634	-439.102998	32.127	
C	-0.6247140625	 1.29063698	-0.1474456208	-0.412127
C	 0.0708546819	-0.040669409	 0.0257944363	 0.123017
O	 1.2834571256	-0.1750657445	-0.7743187848	-0.34489
C	 2.0696277972	-0.5878044917	 0.3751268985	 0.315989
C	 2.8871744848	-1.824999772	 0.1509764058	-0.486626
C	 0.8623680101	-0.330738206	 1.3099945232	-0.013185
O	 1.526968421	 0.8459695988	 1.8541245105	-0.277715
C	 2.6608981355	 0.6292386862	 1.0769297934	 0.416936
N	 3.7495128556	 1.2429050162	 1.0272549985	-0.5513
H	 0.0185618159	 2.1109017308	 0.17718201	 0.140064
H	-0.8809690389	 1.4393109938	-1.2004273847	 0.133581
H	-1.550412505	 1.3154827597	 0.4372336972	 0.12098
H	-0.6077513821	-0.8735301221	-0.2066965248	 0.085356
H	 3.6518522882	-1.6201825816	-0.6046755132	 0.154899
H	 3.3935906635	-2.1297297313	 1.0712334113	 0.132871
H	 2.2582337075	-2.6453361716	-0.2047726403	 0.127805
H	 0.468869675	-0.9769679474	 2.0921418837	 0.102836
H	 3.7633479068	 2.0467217518	 1.6577996203	 0.231509
98.222	175.9569	185.0817	209.7688	230.1899	261.6923	281.617	406.8235	439.4693	585.2208	621.8036	681.4195	719.4984	792.663	847.0445	866.8822	879.0322	896.3144	940.226	974.6436	986.6257	1054.4933	1090.3706	1133.9773	1144.0557	1166.2073	1179.271	1235.2644	1301.7381	1318.2009	1360.0526	1381.3093	1409.9029	1413.2252	1477.8041	1484.126	1485.1486	1493.2339	1828.38	3005.4927	3044.8959	3045.1599	3113.1475	3119.1178	3125.9674	3137.566	3139.8706	3473.1386
CC1OC2(C)C1OC2=N	C[C@H]1O[C@]2(C)[C@H]1O[C]2[NH]	
InChI=1S/C6H9NO2/c1-3-4-6(2,9-3)5(7)8-4/h3-4,7H,1-2H3	InChI=1S/C6H9NO2/c1-3-4-6(2,9-3)5(7)8-4/h3-4,7H,1-2H3/t3-,4+,6-/m1/s1
