19
gdb 30421	3.17604	1.16617	0.86709	3.6539	83.46	-0.1777	0.0403	0.218	1363.6919	0.157449	-419.245326	-419.23516	-419.234216	-419.28079	35.578	
C	-0.0365120992	 1.4073124857	-0.0589580654	-0.316181
N	-0.064570891	-0.0448526417	-0.0575133817	-0.388249
C	 0.498509821	-0.6470831885	-1.0146307051	 0.499392
N	 0.5846008319	-2.0117808231	-1.2011989562	-0.423092
C	 1.3605300505	-2.2916655111	-2.3339654846	 0.215478
C	 1.653055208	-3.6873417155	-2.7573149223	-0.502852
C	 1.6867931143	-1.1065359405	-2.8731381049	 0.247757
C	 2.4398487324	-0.6916416136	-4.0796879132	-0.492566
O	 1.1557053863	-0.0806056719	-2.0897500972	-0.257742
H	 0.9571330947	 1.8202504482	-0.2846914059	 0.107586
H	-0.7358595941	 1.8313123339	-0.7944275284	 0.109393
H	-0.339426903	 1.7698842647	 0.9273967592	 0.111541
H	 0.3250571199	-2.6598811411	-0.4794115466	 0.264797
H	 2.2060196354	-4.2351664947	-1.9841609503	 0.134722
H	 0.7308032745	-4.2461188423	-2.9573198288	 0.138815
H	 2.2560593333	-3.6954540437	-3.6671969363	 0.140242
H	 1.8093754036	-0.1131190894	-4.7655549029	 0.139809
H	 3.2972897352	-0.0608134053	-3.8167324635	 0.139666
H	 2.8128664765	-1.5666848204	-4.6166796361	 0.131487
50.3711	90.9565	150.5997	174.1497	178.9253	197.3074	238.9723	252.0737	257.4757	346.3424	375.9784	540.8667	610.1067	630.8887	648.274	728.4417	801.9243	917.3236	981.1694	1001.4576	1058.3795	1063.1382	1069.1812	1117.9967	1124.7012	1177.6618	1246.394	1269.673	1332.8519	1411.3816	1428.1648	1441.1096	1447.3539	1466.5111	1475.5673	1492.3032	1494.9837	1497.0776	1501.6085	1764.8577	1812.5863	2985.1183	3022.1698	3025.1615	3029.086	3068.4215	3071.4121	3089.9387	3125.2336	3132.5509	3695.986
CN=C1NC(C)=C(C)O1	CN=c1[nH]c(C)c(C)o1	
InChI=1S/C6H10N2O/c1-4-5(2)9-6(7-3)8-4/h1-3H3,(H,7,8)	InChI=1S/C6H10N2O/c1-4-5(2)9-6(7-3)8-4/h1-3H3,(H,7,8)
