17
gdb 30918	2.16737	1.66142	1.00199	1.7741	72.17	-0.2001	0.02	0.2201	1156.4323	0.136879	-455.178988	-455.170076	-455.169132	-455.212604	32.453	
C	-0.1713915642	 1.4094555278	 0.1048257834	-0.348784
N	-0.0598745806	-0.0364078571	 0.0900284267	-0.039166
C	-0.0588477285	-0.8430806193	-0.9950351192	-0.004422
N	 0.0649759924	-2.1205341764	-0.6746247731	-0.362622
C	 0.1436324058	-2.1256404148	 0.683594055	 0.272955
O	 0.2738036127	-3.2760464925	 1.3827844464	-0.438187
C	 0.0751224523	-0.8554849403	 1.2118687657	 0.142984
C	 0.0755018797	-0.3550981754	 2.6099548661	-0.1983
O	-1.1517765863	 0.2833848098	 2.989431279	-0.415482
H	 0.7919313586	 1.8789931187	 0.3328305351	 0.140555
H	-0.502486018	 1.7511508402	-0.8776418032	 0.139332
H	-0.8966799372	 1.7106991911	 0.8635312082	 0.16675
H	-0.1576781186	-0.4541985998	-1.9978421991	 0.128594
H	 0.2975082847	-3.9856669049	 0.7293761422	 0.30062
H	 0.3124898546	-1.1975718235	 3.2728741606	 0.121726
H	 0.8419843131	 0.4116845132	 2.7725516562	 0.112475
H	-1.8575706203	-0.3514831668	 2.8236723899	 0.280971
101.6106	126.083	143.4664	176.9097	235.6977	288.6927	329.7503	366.5995	379.3074	430.2666	526.7802	600.372	654.4716	724.2051	752.3539	793.5512	803.6764	939.1332	1009.1627	1080.7074	1093.4295	1156.5771	1160.5366	1216.7874	1264.2463	1301.4444	1357.0024	1368.9841	1407.3653	1418.0543	1448.3668	1469.4763	1482.6463	1498.6408	1527.6723	1547.4217	1673.2497	3020.6239	3038.2714	3059.9099	3109.978	3146.8514	3246.4659	3802.4697	3803.6068
CN1C=NC(O)=C1CO	Cn1cnc(O)c1CO	
InChI=1S/C5H8N2O2/c1-7-3-6-5(9)4(7)2-8/h3,8-9H,2H2,1H3	InChI=1S/C5H8N2O2/c1-7-3-6-5(9)4(7)2-8/h3,8-9H,2H2,1H3
