17
gdb 64683	5.01788	0.86587	0.82075	1.8607	81.81	-0.258	0.0152	0.2733	1398.5026	0.131261	-384.604269	-384.594538	-384.593593	-384.638881	35.76	
C	-0.1851787038	 1.706303885	 0.2196554039	-0.464152
C	-0.1332116655	 0.2003984194	 0.1301777758	 0.389891
C	-1.3630492376	-0.4863969366	-0.4682475382	-0.417855
C	-1.6792190529	-0.0270694654	-1.8163315099	 0.312711
C	-1.9332514774	 0.3614148781	-2.9245864668	-0.442745
O	 1.1134625674	-0.3589045023	-0.2823005198	-0.269383
C	 0.6910305746	-0.5957934701	 1.0739822836	-0.233593
C	 1.4632932444	-0.0038271015	 2.1325488228	 0.333929
C	 2.0992161101	 0.4599526166	 3.0412777695	-0.408229
H	 0.7224073321	 2.0947183917	 0.6832695398	 0.141538
H	-0.2873435193	 2.133754541	-0.7816035021	 0.144331
H	-1.0479174844	 2.0256403607	 0.8138758814	 0.12258
H	-1.1893600691	-1.5681783079	-0.4797366656	 0.139553
H	-2.2221328165	-0.3079632311	 0.1920589998	 0.136859
H	-2.157559601	 0.6951178604	-3.9074025278	 0.200019
H	 0.383442977	-1.6250347631	 1.2626426723	 0.111309
H	 2.665630892	 0.8734762851	 3.8390807612	 0.203235
52.6946	98.5527	140.0539	175.5479	184.997	301.9023	331.273	344.0453	373.4476	389.8235	441.4976	560.019	620.5398	623.6759	640.3009	649.3123	670.6609	733.5047	833.4113	895.071	920.2438	951.3275	1002.669	1050.6307	1094.6752	1113.1717	1210.0972	1257.1173	1317.5323	1359.091	1416.6562	1438.6093	1453.1868	1484.5666	1498.2269	2239.2752	2240.6638	3022.9451	3046.9083	3068.5168	3100.251	3114.0092	3148.9814	3501.602	3505.7485
CC1(CC#C)OC1C#C	C[C@@]1(CC#C)O[C@H]1C#C	
InChI=1S/C8H8O/c1-4-6-8(3)7(5-2)9-8/h1-2,7H,6H2,3H3	InChI=1S/C8H8O/c1-4-6-8(3)7(5-2)9-8/h1-2,7H,6H2,3H3/t7-,8-/m0/s1
