16
gdb 41764	2.7378	2.21534	1.69244	2.2168	66.98	-0.2433	0.0212	0.2645	830.0809	0.128079	-437.872445	-437.866361	-437.865417	-437.902799	24.875	
C	-0.0461769755	 1.5181876521	-0.0903851537	-0.079134
O	 1.2873048022	 1.9811010674	 0.14196178	-0.252663
C	 2.1647398869	 1.0030218505	-0.3416320929	 0.058929
C	 2.4992991316	-0.1612550935	 0.5633502221	 0.077616
O	 2.1591778013	-0.1846225771	 1.9236585481	-0.214405
C	 0.852801865	-0.3786060707	 2.2349757355	 0.131605
N	-0.1610350687	-0.3648170629	 1.4812957563	-0.266165
C	 0.0289344344	-0.0147341744	 0.0766740043	-0.021718
C	 1.4293485447	-0.3113745801	-0.4833286683	-0.194675
H	-0.7077403665	 1.9919240229	 0.6371256142	 0.125333
H	-0.3651353302	 1.7794883879	-1.1098677321	 0.096026
H	 2.9101882379	 1.3570163435	-1.0468833602	 0.103135
H	 3.456283952	-0.6488543146	 0.4131115336	 0.114019
H	 0.7575421947	-0.5730014394	 3.3008416809	 0.127897
H	-0.7447423729	-0.5188791187	-0.5062385685	 0.092147
H	 1.545272933	-0.9971909929	-1.3125431792	 0.102053
158.0316	212.4102	341.2286	481.8194	506.441	586.8154	649.7534	715.0259	748.4638	766.4943	794.6564	840.7939	878.33	937.5675	957.5885	974.6602	996.6319	1014.285	1037.263	1081.4333	1101.9079	1108.4922	1131.1967	1155.7434	1231.9324	1240.7853	1263.9783	1291.0481	1335.0554	1342.6826	1380.0591	1404.8159	1427.5434	1502.8997	1724.6292	3000.2837	3086.1486	3120.734	3156.0556	3168.8042	3172.8677	3192.6686
C1OC2C3OC=NC1C23	C1O[C@H]2[C@H]3OC=N[C@@H]1[C@@H]23	
InChI=1S/C6H7NO2/c1-3-4-5(8-1)6(4)9-2-7-3/h2-6H,1H2	InChI=1S/C6H7NO2/c1-3-4-5(8-1)6(4)9-2-7-3/h2-6H,1H2/t3-,4-,5+,6-/m0/s1
