17
gdb 85377	2.01887	1.76148	0.9779	4.3669	71.65	-0.2687	-0.0014	0.2673	1174.7132	0.137225	-455.214089	-455.205792	-455.204848	-455.247322	30.952	
C	-0.0978587491	 1.5511759784	-0.0169747027	-0.414292
C	 0.0469950574	 0.0321647236	 0.0012246917	 0.045724
C	 0.7382445689	-0.5106918922	-1.2503852794	-0.276978
C	 1.0248946995	-1.9757370187	-1.0953140484	 0.392337
N	 0.8543227415	-2.8151235337	-2.0197042833	-0.493837
O	 1.5301186012	-2.364492865	 0.1324119194	-0.250454
C	 1.5270413945	-1.5588892669	 1.25956695	 0.470606
O	 2.0929981902	-1.9375387558	 2.2483249196	-0.368537
N	 0.8577478167	-0.3787408792	 1.1415370815	-0.373167
H	 0.8805002529	 2.0336051246	-0.1066933296	 0.133456
H	-0.7198812014	 1.8618823174	-0.8608205955	 0.134956
H	-0.577072145	 1.9098934807	 0.9001075333	 0.125319
H	-0.9563889788	-0.4161093476	 0.0706352185	 0.100938
H	 0.1302121668	-0.3711308959	-2.1442145709	 0.143368
H	 1.6868561406	 0.0241550417	-1.3888394241	 0.134357
H	 1.1281891843	-3.7496913013	-1.7088375542	 0.233892
H	 0.7889953598	 0.13321628	 2.0072489841	 0.262313
86.6432	112.8034	133.5513	244.5097	273.3092	369.9281	423.4745	442.3565	495.2558	516.851	572.0929	600.0052	656.7119	755.6716	857.4612	903.0432	924.7288	941.1437	957.6929	1014.3566	1070.9073	1113.9442	1120.6317	1202.3138	1211.9802	1269.0052	1312.01	1365.922	1380.3605	1398.3216	1414.2822	1457.3796	1470.5798	1495.6066	1499.2952	1769.1904	1871.2215	2978.1693	3035.8388	3038.5079	3107.6903	3122.4658	3140.504	3468.9071	3638.2406
CC1CC(=N)OC(=O)N1	C[C@H]1C[C]([NH])OC(=O)N1	
InChI=1S/C5H8N2O2/c1-3-2-4(6)9-5(8)7-3/h3,6H,2H2,1H3,(H,7,8)	InChI=1S/C5H8N2O2/c1-3-2-4(6)9-5(8)7-3/h3,6H,2H2,1H3,(H,7,8)/t3-/m0/s1
