21
gdb 122944	3.82454	0.61686	0.5965	3.3509	77.64	-0.2528	-0.0261	0.2268	1943.7664	0.177748	-461.348241	-461.337032	-461.336087	-461.386619	37.623	
C	 0.0420663993	 1.4532311861	 0.1316536826	-0.225475
O	 0.1169313776	 0.0513496468	 0.0381729886	-0.225745
C	-1.1487575392	-0.5609933015	-0.020819104	-0.058947
C	-0.9697080804	-2.0654190751	-0.0401487314	-0.070612
O	-0.5662934308	-2.4940106981	 1.2443955742	-0.259583
C	-0.4096327604	-3.8902138462	 1.3906715603	 0.048871
C	 0.8646472498	-4.4545881716	 0.7617777289	-0.403619
C	-0.4656973809	-4.1550512088	 2.8933187191	 0.148924
O	-0.0638724492	-5.1587710181	 3.4194836387	-0.24612
H	 1.0655658904	 1.8332381015	 0.1727623844	 0.129206
H	-0.4666881796	 1.8962053442	-0.740006724	 0.101586
H	-0.4933664834	 1.7742600396	 1.0391727025	 0.10624
H	-1.7649040738	-0.2779796966	 0.8485149366	 0.095763
H	-1.6921810413	-0.2519339157	-0.9308828451	 0.084602
H	-1.9240229518	-2.5424727931	-0.3202417548	 0.086444
H	-0.2229759806	-2.3246039677	-0.8039616752	 0.107449
H	-1.2890584623	-4.4114561339	 0.9638761745	 0.091219
H	 1.7316403365	-3.8766224583	 1.0938321322	 0.13547
H	 0.9914296245	-5.4911367257	 1.0831912526	 0.143272
H	 0.8225355317	-4.4274666926	-0.329596223	 0.118531
H	-0.9365108059	-3.3259523355	 3.4654201322	 0.092524
33.0071	50.0493	75.906	91.2719	123.8457	181.4917	207.185	236.3642	266.6592	282.5862	321.1809	400.712	450.4713	524.3042	628.2618	827.4078	873.2506	884.3665	917.227	976.0537	1053.3689	1106.6014	1113.928	1137.6831	1140.1386	1163.6494	1181.7315	1187.3623	1228.7684	1261.9611	1305.1874	1329.8562	1336.6313	1382.894	1401.1228	1409.6767	1445.0648	1478.2079	1485.5567	1488.2444	1493.7799	1497.7498	1508.474	1521.7901	1841.0858	2903.0486	2917.1315	2949.0284	2966.1365	2972.9468	2990.5124	3011.1254	3028.3558	3051.9683	3116.0064	3127.1157	3136.8617
COCCOC(C)C=O	COCCO[C@@H](C)C=O	
InChI=1S/C6H12O3/c1-6(5-7)9-4-3-8-2/h5-6H,3-4H2,1-2H3	InChI=1S/C6H12O3/c1-6(5-7)9-4-3-8-2/h5-6H,3-4H2,1-2H3/t6-/m0/s1
