27
gdb 102642	1.80654	1.03861	0.78134	0.9956	93.32	-0.2408	0.0827	0.3235	1686.5581	0.248637	-390.707175	-390.695003	-390.694059	-390.74509	44.01	
C	-0.6068137773	 1.7145335518	-0.5015254757	-0.38569
C	-0.4328400549	 0.2208132612	-0.2191903859	-0.176763
C	-1.7222473353	-0.4696371014	 0.2326611869	 0.142032
C	-1.562927691	-1.9903795738	 0.4018822115	-0.186027
C	-1.3868909893	-2.7613730338	-0.910606574	-0.388637
O	-2.0942600018	 0.1247957332	 1.4750385512	-0.275279
C	-3.4858005169	 0.1295148179	 1.7842417741	 0.147689
C	-3.5982607621	 0.1418406112	 3.305723723	-0.38782
C	-4.1868916025	 1.3315250081	 1.1444555634	-0.384408
H	 0.3439082488	 2.1757258546	-0.7862059329	 0.106901
H	-1.3153677193	 1.8836803372	-1.3206415346	 0.106136
H	-0.9869378319	 2.2298282903	 0.3838010091	 0.129993
H	-0.0534246088	-0.2843826687	-1.114313598	 0.0937
H	 0.3175726056	 0.0747501598	 0.5681013598	 0.101762
H	-2.5068841482	-0.2782415065	-0.5191507187	 0.057748
H	-0.7138270388	-2.1760482842	 1.0711980899	 0.099071
H	-2.4503992901	-2.3716601618	 0.920706664	 0.094923
H	-0.463029326	-2.4871966792	-1.4288689082	 0.120194
H	-1.3501865438	-3.8394793809	-0.7266429782	 0.114299
H	-2.2202586728	-2.5717675105	-1.5969277635	 0.113217
H	-3.9497877726	-0.7942102215	 1.4041417425	 0.064581
H	-3.1056371614	 1.0311539369	 3.712040155	 0.121776
H	-4.6464908397	 0.1542285206	 3.6196663068	 0.108776
H	-3.1137688965	-0.7400318769	 3.7331207126	 0.117631
H	-3.7657106139	 2.2646426998	 1.5322100357	 0.120291
H	-4.0690605	 1.3303013389	 0.0568207745	 0.114725
H	-5.2593591794	 1.3170979878	 1.3656428598	 0.109179
53.767	66.3737	77.707	101.2783	172.0485	200.1432	218.3128	233.8896	249.2297	252.4673	273.6599	326.8132	411.5268	420.8764	466.2259	475.5845	535.042	753.7695	769.1017	838.8632	866.1341	920.2076	924.5625	933.3308	943.0834	1019.2036	1026.0279	1045.7035	1069.9141	1129.9128	1136.5093	1145.4185	1166.4125	1190.2435	1208.6709	1273.1149	1307.662	1332.315	1341.2895	1364.9919	1375.1921	1394.1536	1395.0044	1402.3265	1411.314	1412.3093	1420.7871	1474.3154	1479.584	1484.3391	1485.005	1493.5648	1496.7991	1501.3006	1506.414	1507.4316	1513.3559	2955.1565	2979.6193	3026.7759	3031.3018	3032.6855	3033.6311	3034.5475	3040.4982	3061.7441	3071.6786	3097.1233	3098.3162	3104.2728	3107.1138	3110.5206	3114.3944	3119.8054	3125.1695
CCC(CC)OC(C)C	CCC(CC)OC(C)C	
InChI=1S/C8H18O/c1-5-8(6-2)9-7(3)4/h7-8H,5-6H2,1-4H3	InChI=1S/C8H18O/c1-5-8(6-2)9-7(3)4/h7-8H,5-6H2,1-4H3
