19
gdb 117295	2.00033	0.96585	0.77941	1.0821	74.45	-0.19	0.042	0.232	1525.1586	0.156002	-456.400799	-456.389218	-456.388274	-456.440425	38.62	
C	-0.4754995992	-0.4552189866	 1.7748017635	-0.386104
C	 0.1912574267	-0.0389265841	 0.4597390185	-0.145829
N	-0.7398454857	 0.4624934502	-0.5587644942	-0.321699
C	-1.5788582725	-0.4238078527	-1.2419092326	 0.386303
N	-0.8872379156	-1.5191486369	-1.7813750992	-0.545194
H	-1.4718370819	-2.1024021809	-2.3636511661	 0.252923
H	-0.0380031785	-1.250444871	-2.2642307707	 0.243802
C	-2.9053873303	-0.2402094551	-1.3770735357	-0.474672
C	-3.1251450675	-3.390959176	-0.1651449229	 0.596075
O	-3.2006952379	-3.6799687248	-1.2902766832	-0.307545
O	-3.0591104322	-3.1334829181	 0.9660295761	-0.28685
H	 0.2716774036	-0.8140086652	 2.4908941469	 0.111723
H	-0.9995095398	 0.3905555855	 2.2347189395	 0.107952
H	-1.2038478306	-1.253901768	 1.6093000002	 0.146664
H	 0.9303617547	 0.749019077	 0.6439328447	 0.100511
H	 0.7304667832	-0.8876579065	 0.0331109101	 0.120003
H	-1.2600725998	 1.265641233	-0.2303740748	 0.228743
H	-3.4852671436	-0.829882638	-2.075016046	 0.090285
H	-3.4213756631	 0.5290488584	-0.8172035641	 0.082908
31.4688	50.6367	62.6108	68.0049	81.8364	98.1302	108.8756	223.8914	303.2695	398.6764	416.2857	460.8266	504.6891	611.2775	666.2888	675.2635	685.8726	729.5266	752.7379	776.723	791.6462	885.416	934.9029	986.0146	1068.8386	1126.4954	1153.8328	1179.2793	1312.7237	1374.3524	1376.9741	1409.4656	1412.9579	1430.9653	1484.3933	1491.4834	1501.3078	1508.2335	1629.6726	1711.9297	2429.7737	3031.099	3043.5857	3089.6888	3110.9619	3126.1506	3169.2838	3254.5425	3529.5615	3572.0609	3642.6525
CCNC(=[NH2+])CC([O-])=O	CCNC(=[NH2])[CH2].C(=O)=O	
InChI=1S/C5H10N2O2/c1-2-7-4(6)3-5(8)9/h2-3H2,1H3,(H2,6,7)(H,8,9)	InChI=1S/C4H10N2.CO2/c1-3-6-4(2)5;2-1-3/h6H,2-3,5H2,1H3;
