21
gdb 68480	2.72861	1.69345	1.30859	1.8819	77.82	-0.2487	0.0792	0.3279	1047.4008	0.184274	-424.219549	-424.211787	-424.210843	-424.251102	32.072	
C	-0.1634756318	 1.5682974118	 0.0422833201	-0.446809
C	 0.0434835402	 0.0670484524	 0.0294066853	 0.418842
C	 1.1760428684	-0.5204137261	-0.8739979861	-0.251474
C	 1.4608281592	-1.5648784476	 0.2438258422	-0.03465
C	 0.7542845809	-0.6036271955	 1.2420749881	-0.288784
C	 0.7138575336	-2.8810480283	 0.0083003711	-0.095464
O	-0.5320664601	-2.7232228067	-0.6623025296	-0.235799
C	-1.4401806834	-1.8637465208	-0.0284647466	 0.011543
O	-1.2325451058	-0.4985805898	-0.2833355082	-0.299263
H	 0.7825725792	 2.0888919461	 0.2159080877	 0.108019
H	-0.5730538731	 1.9008586387	-0.9166410527	 0.126282
H	-0.8697318662	 1.8526978623	 0.8286773919	 0.119647
H	 0.8623770605	-0.8945458499	-1.8495118078	 0.113081
H	 1.9999347553	 0.1884305236	-0.9923219861	 0.091837
H	 2.5089589987	-1.7892492422	 0.4618037283	 0.06794
H	 1.4669778601	 0.0950182902	 1.6878823177	 0.100717
H	 0.1412104412	-1.0252118883	 2.0430932316	 0.098981
H	 1.3012112262	-3.5364628048	-0.6421504813	 0.11158
H	 0.5623220386	-3.4042344705	 0.9669785069	 0.091146
H	-2.4250113179	-2.0820357779	-0.4485660074	 0.114507
H	-1.4502359337	-2.0663785765	 1.0558422449	 0.078121
194.08	215.7438	241.4072	275.3298	348.9643	358.9334	401.1841	427.0269	451.0621	513.2787	652.9583	660.413	789.3285	796.0524	840.1423	889.5118	898.5373	920.5172	938.538	980.2903	1016.9798	1045.312	1063.7752	1099.0805	1114.8847	1140.136	1163.7886	1183.4588	1214.6512	1224.6824	1249.1829	1266.6347	1297.4967	1319.5439	1336.3396	1353.0303	1401.5505	1411.4543	1445.5531	1458.936	1483.4203	1487.7891	1492.4827	1494.6585	1520.1968	2959.5995	2972.5749	3037.8961	3056.7013	3060.4164	3070.6226	3081.4518	3099.2809	3108.8616	3109.4006	3117.7051	3134.1661
CC12CC(C1)COCO2	C[C@@]12C[C@@H](C1)COCO2	
InChI=1S/C7H12O2/c1-7-2-6(3-7)4-8-5-9-7/h6H,2-5H2,1H3	InChI=1S/C7H12O2/c1-7-2-6(3-7)4-8-5-9-7/h6H,2-5H2,1H3/t6-,7+
