19
gdb 51631	4.57594	0.91621	0.88534	3.0658	75.72	-0.2468	-0.0192	0.2276	1338.2502	0.159767	-423.013007	-423.005064	-423.00412	-423.046434	30.04	
O	-0.1200126826	-0.0308058387	-0.1817072499	-0.241022
C	 0.0211691306	 1.1603032562	-0.0666780697	 0.154962
C	 1.3431582827	 1.8839916096	-0.1657857605	-0.296968
C	 1.3524429794	 2.9688890807	-1.2530928881	 0.010123
C	 0.4157004817	 4.198744281	-0.9802966868	-0.245203
C	 1.5138005542	 5.2811850316	-0.9351197926	 0.084104
C	 2.3821659327	 4.9782491655	-2.175384616	-0.237604
C	 2.6849188222	 3.7621566072	-1.2767217032	 0.067661
O	 2.5407600101	 4.6351388849	-0.1134174758	-0.297201
H	-0.8591693749	 1.8178408485	 0.1213574309	 0.071992
H	 1.5471796315	 2.3722851269	 0.7971770296	 0.133195
H	 2.1223037828	 1.1369128679	-0.3474953586	 0.115642
H	 1.1531449539	 2.5142591877	-2.2288357276	 0.084583
H	-0.3238468198	 4.3681779439	-1.766944785	 0.105814
H	-0.1058524172	 4.1301938658	-0.0227922514	 0.109994
H	 1.25237306	 6.2880452788	-0.6109071566	 0.083865
H	 1.8998062401	 4.8240183038	-3.1442072557	 0.096967
H	 3.2366501056	 5.6506830142	-2.251188747	 0.116221
H	 3.6212273671	 3.2041593245	-1.304712786	 0.082874
53.9853	88.4575	150.3596	203.9397	326.5813	414.0916	423.8446	528.0193	582.6062	700.5493	805.567	833.5749	837.2515	845.0739	868.9519	883.8241	936.9018	956.5267	965.8512	1019.009	1037.3266	1044.7852	1070.6994	1108.5859	1121.1821	1162.1345	1199.9947	1226.3288	1231.9273	1241.8429	1262.8182	1277.1994	1304.6377	1317.8156	1339.4965	1371.3031	1433.3122	1466.6098	1482.2547	1495.5468	1830.5602	2861.0785	3022.3988	3054.5614	3065.5132	3069.4491	3091.8783	3115.328	3121.1183	3128.7169	3148.165
O=CCC1CC2CC1O2	O=CC[C@H]1C[C@@H]2C[C@H]1O2	
InChI=1S/C7H10O2/c8-2-1-5-3-6-4-7(5)9-6/h2,5-7H,1,3-4H2	InChI=1S/C7H10O2/c8-2-1-5-3-6-4-7(5)9-6/h2,5-7H,1,3-4H2/t5-,6+,7+/m0/s1
