13
gdb 133360	3.27746	1.44392	1.00233	2.8326	66.32	-0.2143	-0.0456	0.1686	1056.6801	0.091242	-490.236885	-490.2296	-490.228656	-490.268582	28.036	
N	 0.0340572162	 1.2860852299	-0.1670775512	-0.539251
C	-0.0255080072	-0.0421577249	-0.0583569949	 0.427383
N	-1.1628179576	-0.6878357754	-0.0310933648	-0.398241
C	-1.0686080039	-2.0320474362	 0.0820933187	 0.357555
F	-2.2329490279	-2.6565272055	 0.1072334281	-0.061266
N	-0.0260420733	-2.7829582341	 0.1680729499	-0.29443
N	 1.152282142	-2.0777772159	 0.1366177754	-0.320564
C	 1.2921997184	-0.7225575061	 0.0276907172	 0.36749
N	 2.3639023107	-0.0117901972	-0.0067585511	-0.586074
H	 0.9525170095	 1.7049697373	-0.1821213545	 0.291435
H	-0.8092509556	 1.8291480686	-0.2326748791	 0.275977
H	 1.9710442731	-2.661830164	 0.2035737194	 0.269804
H	 3.2134190657	-0.5712964165	 0.058813077	 0.210183
107.5351	203.2149	321.6043	333.0713	355.6339	386.7723	452.6061	508.658	545.9132	562.809	598.3319	650.7098	719.9293	738.8239	779.0773	812.0852	815.3699	976.0571	1111.4632	1125.7171	1242.5925	1336.4878	1420.8091	1439.6449	1485.0797	1565.8384	1650.0846	1669.4131	1705.7798	3485.1	3576.4394	3635.3634	3732.6445
NC1=NC(F)=NNC1=N	Nc1nc(F)n[nH]c1[NH]	
InChI=1S/C3H4FN5/c4-3-7-1(5)2(6)8-9-3/h(H2,6,8)(H2,5,7,9)	InChI=1S/C3H9FN5/c4-3-7-1(5)2(6)8-9-3/h1-3,6-9H,5H2
