20
gdb 81137	2.43865	1.61886	1.20933	4.2656	83.17	-0.2942	0.0289	0.3231	1095.9869	0.173351	-366.029614	-366.021595	-366.020651	-366.061833	31.812	
C	-0.1725836885	 1.5356712887	-0.0089900263	-0.44067
C	 0.0024867063	 0.0240898511	-0.006150166	 0.01181
C	 1.1428539379	-0.5932030138	-0.8797729423	-0.039231
C	 2.1181177878	-0.2730698463	 0.2884722416	-0.271536
C	 0.8609708468	-0.6105541073	 1.1532397712	 0.229566
C	 0.6858579392	-2.1241927869	 0.8683363567	-0.263746
C	 0.9029317765	-2.1021861037	-0.6824364868	-0.227509
C	 0.7277017548	-0.1651673037	 2.5207689564	 0.160589
N	 0.6110388261	 0.2074665512	 3.6098177209	-0.35313
H	 0.7711963701	 2.0803422262	 0.0759787426	 0.124953
H	-0.6553775037	 1.8547063813	-0.9385904546	 0.121731
H	-0.8108803611	 1.8500701777	 0.8230017839	 0.137897
H	-0.9761505667	-0.4537335101	-0.129272747	 0.074282
H	 1.3326587993	-0.2381444809	-1.8924516724	 0.069764
H	 2.9927968387	-0.9151866321	 0.4203514603	 0.104409
H	 2.4117070228	 0.7732806708	 0.3512342041	 0.119518
H	 1.429726053	-2.7241733757	 1.3974439703	 0.115786
H	-0.3061603315	-2.4776163868	 1.1588243074	 0.116159
H	 0.0263469826	-2.4581417312	-1.2303255421	 0.10478
H	 1.7616928394	-2.7045384385	-0.9902166379	 0.10458
125.843	153.9685	191.8263	270.0593	278.7723	318.3917	452.5956	478.5253	529.8699	549.8327	586.272	661.1073	778.6987	824.0258	843.2042	884.2533	897.3133	934.3051	971.9686	980.0101	1007.2343	1040.5943	1069.4315	1097.2311	1115.1289	1145.6946	1165.7377	1194.6442	1220.1138	1239.3091	1247.3725	1263.175	1270.7762	1314.9227	1324.095	1391.4402	1418.4822	1491.1507	1493.0707	1495.9888	1507.9788	1525.183	2347.7521	3036.1324	3040.8176	3058.493	3070.5048	3074.9414	3098.7519	3102.2511	3116.8051	3120.5242	3121.173	3154.5837
CC1C2CC1(CC2)C#N	C[C@H]1[C@H]2C[C@@]1(CC2)C#N	
InChI=1S/C8H11N/c1-6-7-2-3-8(6,4-7)5-9/h6-7H,2-4H2,1H3	InChI=1S/C8H11N/c1-6-7-2-3-8(6,4-7)5-9/h6-7H,2-4H2,1H3/t6-,7+,8-/m0/s1
