19
gdb 31710	6.02558	0.84387	0.75397	1.5522	79.88	-0.1938	0.0398	0.2337	1544.5728	0.159593	-419.248514	-419.239083	-419.238139	-419.283471	33.66	
C	 0.3842079972	 0.7333366341	 0.884789514	-0.386703
C	-0.3395315255	 0.3558486249	-0.409889241	-0.283417
C	 0.5698411726	-0.0837835548	-1.5115011668	 0.264603
C	 1.9172974718	-0.183798237	-1.5364154288	-0.143804
O	 2.2895019621	-0.6416390211	-2.7947076038	-0.192805
C	 1.1151406513	-0.7813967265	-3.4453946664	 0.484072
N	 1.1651097986	-1.166545235	-4.75412837	-0.381578
C	 2.3102419788	-1.8921820272	-5.2795592203	-0.329046
N	 0.0580494243	-0.4793930746	-2.7518978507	-0.417732
H	 0.9528637102	-0.1137482084	 1.2824533891	 0.119097
H	 1.0839951027	 1.5595670532	 0.7212428197	 0.119692
H	-0.3295444166	 1.0467391337	 1.6516094866	 0.114178
H	-1.0644335382	-0.4455322221	-0.2169207065	 0.116477
H	-0.9362337202	 1.2044285773	-0.76886467	 0.117561
H	 2.7194009718	-0.0088970579	-0.8430898273	 0.134066
H	 0.2585178905	-1.4386682363	-5.1017717422	 0.258785
H	 2.1938919675	-1.9909268427	-6.360836175	 0.130859
H	 3.222835061	-1.3253183934	-5.0845395393	 0.152692
H	 2.4298278401	-2.8947926263	-4.8442813913	 0.123001
44.9001	81.2293	133.2721	155.2271	193.9872	238.5603	264.9532	346.6509	359.2369	497.7281	585.1973	632.5326	653.0107	675.6284	750.9517	758.8387	796.106	959.8097	967.5392	1030.5411	1072.8833	1079.4343	1106.4913	1111.923	1153.2689	1183.8005	1231.376	1265.8292	1278.0654	1378.9486	1407.328	1420.4184	1439.8363	1478.5511	1484.3201	1492.9753	1497.1692	1510.1881	1517.0508	1640.3994	1681.3022	3000.902	3022.5969	3036.4691	3045.2522	3097.5789	3102.324	3112.1309	3139.07	3308.1663	3631.4069
CCC1=COC(NC)=N1	CCc1coc(NC)n1	
InChI=1S/C6H10N2O/c1-3-5-4-9-6(7-2)8-5/h4H,3H2,1-2H3,(H,7,8)	InChI=1S/C6H10N2O/c1-3-5-4-9-6(7-2)8-5/h4H,3H2,1-2H3,(H,7,8)
