19
gdb 84936	2.61257	1.57864	1.04688	2.8626	80.04	-0.2076	0.0181	0.2257	1153.7209	0.162023	-419.254975	-419.246378	-419.245433	-419.288522	32.054	
C	 0.7573157632	 1.3274280356	-0.0624902841	-0.342529
N	 0.0733091242	 0.0363113907	 0.0310244838	-0.144792
C	-0.5048412544	-0.4223791635	-1.1637584242	 0.037101
C	-1.1063219953	-1.5713605811	-1.4904556593	-0.111049
C	-1.3051673942	-2.7988588672	-0.6555112106	-0.246131
C	-0.4472769001	-2.7894267095	 0.6053795398	-0.188651
N	-0.7529050783	-1.651850024	 1.4671548867	-0.343269
C	-0.2210310313	-0.3899060379	 1.3294639484	 0.447122
O	-0.0265390065	 0.3288186825	 2.2966014615	-0.408473
H	 1.4476719485	 1.3104282757	-0.9097062102	 0.122734
H	 0.0471249199	 2.1528391914	-0.1972626662	 0.127391
H	 1.3070906629	 1.4989197401	 0.8597365848	 0.16371
H	-0.4322350292	 0.3352547048	-1.9383649382	 0.102242
H	-1.4847740267	-1.6168133081	-2.507251608	 0.08774
H	-2.3607926962	-2.9073268873	-0.3705700538	 0.114494
H	-1.0587977842	-3.6884691394	-1.2517090891	 0.101968
H	-0.632385372	-3.694529628	 1.1895667184	 0.111739
H	 0.6156985148	-2.7940804851	 0.3291796847	 0.118619
H	-0.878600605	-1.8572098498	 2.4464751255	 0.250036
84.1615	92.268	113.4205	222.449	273.0495	339.3218	370.2149	417.8452	458.7656	545.4162	561.6424	656.9803	697.3395	740.18	770.0224	800.7457	876.1805	950.3589	966.3969	981.9421	1062.8557	1078.4304	1123.6986	1153.9259	1198.5907	1234.1004	1243.3971	1295.0102	1330.8042	1370.3692	1391.8478	1430.5049	1436.8551	1455.82	1472.5859	1480.2849	1494.5375	1504.4536	1516.7877	1738.5474	1769.4988	3005.514	3013.6078	3025.7069	3036.7897	3093.9359	3096.3446	3157.6766	3179.0267	3181.9871	3627.8351
CN1C=CCCNC1=O	CN1C=CCCNC1=O	
InChI=1S/C6H10N2O/c1-8-5-3-2-4-7-6(8)9/h3,5H,2,4H2,1H3,(H,7,9)	InChI=1S/C6H10N2O/c1-8-5-3-2-4-7-6(8)9/h3,5H,2,4H2,1H3,(H,7,9)
