22
gdb 97936	3.1879	0.72556	0.64154	1.0438	91.95	-0.2229	0.0559	0.2788	1844.4871	0.192403	-367.157902	-367.147241	-367.146297	-367.195369	37.777	
C	-0.0470393308	 0.5167299063	-1.2114595053	-0.363719
C	-0.3885172621	 0.3829012962	 0.2838686406	-0.313137
C	-1.5749677621	-0.4310274362	 0.5300022048	 0.088435
C	-2.5589227553	-1.1015745153	 0.7137353033	 0.047828
C	-3.7369296336	-1.94024329	 0.924963565	-0.389277
C	-3.8139301563	-3.1127667416	-0.0481863244	 0.039412
C	-5.1326373835	-3.6858664172	-0.4427194521	-0.264439
N	-4.3010438663	-2.9905001715	-1.4185038751	-0.069806
C	-4.7622297588	-1.7044408168	-1.9194533082	-0.314217
H	 0.8479681516	 1.131675209	-1.3458581951	 0.112716
H	 0.1382350068	-0.4644785222	-1.6568066982	 0.1298
H	-0.8712792583	 0.9837502609	-1.7575706851	 0.126104
H	 0.4680725843	-0.0502865976	 0.8164482349	 0.126874
H	-0.5355103032	 1.3812997412	 0.7160126941	 0.126645
H	-3.7187720953	-2.3493724596	 1.9442970374	 0.130743
H	-4.6470658385	-1.3328373849	 0.8670007917	 0.124953
H	-2.9624450624	-3.7861756979	 0.0372318513	 0.096072
H	-5.2612489141	-4.7552360507	-0.5904952919	 0.11275
H	-6.0208232586	-3.1712035446	-0.0734646854	 0.100977
H	-5.3826800182	-1.1298959264	-1.2134841158	 0.096786
H	-3.8975438861	-1.0917636697	-2.1907392151	 0.132554
H	-5.3594179392	-1.8765543413	-2.8206353616	 0.121946
25.2954	45.6438	79.0344	135.5076	176.3829	206.1577	260.0353	282.2049	321.2806	357.8797	407.1792	414.4262	501.041	563.0551	739.0813	753.6995	784.546	785.927	904.7147	960.3966	967.0545	1037.3383	1075.1634	1080.6086	1104.2709	1111.9475	1131.2164	1145.0605	1161.387	1173.2852	1202.629	1239.0205	1286.1448	1316.0156	1342.5988	1351.7328	1408.7517	1416.2022	1448.7669	1467.3443	1476.4184	1487.8993	1494.651	1503.9841	1505.6479	1516.4227	2366.2532	2974.0377	3017.7972	3018.3175	3043.4153	3044.2331	3058.3008	3068.8944	3078.3283	3109.4976	3115.3039	3116.3451	3122.9034	3166.6219
CCC#CCC1CN1C	CCC#CC[C@H]1CN1C	
InChI=1S/C8H13N/c1-3-4-5-6-8-7-9(8)2/h8H,3,6-7H2,1-2H3	InChI=1S/C8H13N/c1-3-4-5-6-8-7-9(8)2/h8H,3,6-7H2,1-2H3/t8-,9?/m0/s1
