21
gdb 119717	3.09093	1.00585	0.90382	1.8978	80.02	-0.244	0.0759	0.3199	1400.5525	0.181571	-424.17909	-424.169602	-424.168658	-424.213805	35.	
C	-0.1513155342	 1.3310922295	-0.0447921903	-0.219331
O	-0.1570357972	-0.0738883478	-0.1184358167	-0.239045
C	 0.7676205952	-0.577862835	-1.0680993416	-0.189674
C	 0.7369686787	-2.0706064362	-1.0180660917	 0.298245
C	 1.3850845888	-2.9342353935	 0.0748030832	-0.274798
C	 1.7954515849	-3.9857366696	-1.0024657102	-0.217112
C	 1.1372208876	-3.1226075861	-2.0863848354	-0.160928
C	-0.2963250238	-2.8763112792	-1.7554776072	 0.072139
O	-1.0532096451	-3.8844440456	-1.1507746994	-0.421694
H	 0.8357045612	 1.7228197383	 0.2496224873	 0.102683
H	-0.4270967352	 1.7937429657	-1.0064205092	 0.101198
H	-0.8855686653	 1.6240400856	 0.7098459018	 0.125274
H	 0.5098010414	-0.2216298557	-2.0811978848	 0.081556
H	 1.780612885	-0.1998123545	-0.8430340736	 0.081999
H	 2.2475100611	-2.4436447244	 0.5324812546	 0.098485
H	 0.7160064313	-3.2807937598	 0.8666036375	 0.095311
H	 2.8781868343	-4.0582458489	-1.1219164773	 0.097969
H	 1.3780257523	-4.9883682751	-0.887919875	 0.112703
H	 1.5205969893	-2.9713366189	-3.0895590049	 0.084008
H	-0.8337080121	-2.304261874	-2.5138920579	 0.080944
H	-1.6621847881	-3.4629630546	-0.5348597794	 0.290069
59.7352	96.3872	108.7972	220.1444	228.0169	243.4849	300.6146	331.6316	341.7561	349.7798	482.9591	582.8872	714.7893	768.2251	791.3779	817.1744	914.1171	952.7611	960.8235	969.9566	981.7384	1014.7431	1051.0809	1093.6712	1136.87	1147.1385	1156.6961	1184.7439	1219.443	1220.8933	1229.6662	1242.8701	1258.5582	1272.634	1306.0112	1330.3786	1352.7577	1411.5208	1468.2922	1473.477	1481.4736	1484.9624	1502.6933	1506.7962	1522.4615	2939.0945	2966.0315	2966.5331	3007.5557	3058.3564	3071.2199	3089.3468	3103.9519	3111.0171	3125.8387	3169.5722	3805.1485
COCC12CCC1C2O	COC[C@]12CC[C@H]1[C@H]2O	
InChI=1S/C7H12O2/c1-9-4-7-3-2-5(7)6(7)8/h5-6,8H,2-4H2,1H3	InChI=1S/C7H12O2/c1-9-4-7-3-2-5(7)6(7)8/h5-6,8H,2-4H2,1H3/t5-,6+,7+/m0/s1
