16
gdb 123849	3.61514	1.56263	1.12277	3.1074	77.88	-0.225	-0.0211	0.2039	1031.4781	0.127638	-400.767501	-400.760929	-400.759985	-400.798404	26.341	
C	-0.0357901947	 1.4975849984	 0.0744263639	-0.274873
C	 1.3700173365	 2.1321824082	-0.0395161332	-0.324784
C	 2.1820990911	 1.403312706	-1.0646918416	 0.333664
N	 3.1633243781	 1.8970784802	-1.7692139895	-0.228039
O	 3.6484696929	 0.8211174043	-2.5273584989	-0.17548
C	 2.9296302802	-0.2777274182	-2.2377346296	-0.045451
C	 1.9726766645	 0.0101034902	-1.316005223	 0.124021
C	 0.9051276432	-0.7100722536	-0.6481881062	-0.166945
C	-0.0247771997	-0.015688039	 0.0231059653	-0.085531
H	-0.5138242015	 1.8403993029	 0.9974543844	 0.112174
H	-0.6710264047	 1.8673997692	-0.7446939518	 0.12523
H	 1.3073318986	 3.1989251102	-0.2675459759	 0.129911
H	 1.8832228105	 2.0417386159	 0.9271567977	 0.129777
H	 3.2083248893	-1.1733130635	-2.771372573	 0.150957
H	 0.8653888494	-1.7926616141	-0.7091181996	 0.096377
H	-0.8422061635	-0.5368288172	 0.512105381	 0.098994
139.6659	204.8122	292.8279	392.8537	425.7392	511.0732	578.0064	600.3629	673.081	703.4676	743.0802	795.5878	838.4707	868.6182	894.3181	928.1009	943.6174	987.0159	1019.2256	1038.8768	1137.625	1168.0202	1192.0308	1221.1344	1250.4416	1280.2483	1340.5413	1360.9086	1408.82	1434.2578	1470.3504	1480.6574	1549.3891	1639.6914	1696.2019	2996.7496	3024.237	3072.6401	3102.0798	3169.0428	3190.8087	3262.1203
C1CC2=NOC=C2C=C1	C1Cc2nocc2C=C1	
InChI=1S/C7H7NO/c1-2-4-7-6(3-1)5-9-8-7/h1,3,5H,2,4H2	InChI=1S/C7H7NO/c1-2-4-7-6(3-1)5-9-8-7/h1,3,5H,2,4H2
