14
gdb 31311	2.17149	1.79218	0.99433	3.6357	71.34	-0.2532	-0.0476	0.2056	1105.5359	0.102726	-432.90015	-432.892149	-432.891205	-432.933479	28.326	
N	 0.4608683463	 0.9351445902	-0.7397838341	-0.506762
C	-0.2418486471	 0.1768166716	 0.2870830312	-0.280238
C	 0.7144912361	-0.4494812066	 1.2510468329	 0.187
C	 2.0749271961	-0.5826098671	 1.1924000172	 0.175023
O	 2.4791071636	-1.2457156003	 2.3340253923	-0.168156
C	 1.3382667349	-1.4704501204	 3.0041486638	 0.076427
N	 0.2674619242	-1.0266321768	 2.4282523909	-0.303654
C	 3.0832486806	-0.2079043938	 0.2812375312	 0.263396
N	 3.947997074	 0.0873339617	-0.4304633465	-0.351638
H	-0.1612386621	 1.1530184784	-1.5090855852	 0.241104
H	 0.8005523901	 1.8172877445	-0.3712118986	 0.240802
H	-0.9826145847	 0.744212598	 0.8747003043	 0.119243
H	-0.8048234588	-0.628154147	-0.2029139727	 0.140711
H	 1.4233569867	-1.9900350124	 3.9461410334	 0.166741
50.0341	141.0695	174.1181	213.6535	220.1548	290.7424	422.3508	509.5331	543.1874	621.297	657.7997	695.8918	719.5347	829.0678	870.5507	960.1246	975.5604	1074.4467	1103.447	1167.3797	1178.6689	1207.157	1289.9434	1318.6792	1352.5146	1433.5134	1487.1938	1542.2886	1628.2894	1667.0553	2347.9053	2967.1766	3041.1171	3275.7393	3515.72	3598.7917
NCC1=C(OC=N1)C#N	NCc1c(ocn1)C#N	
InChI=1S/C5H5N3O/c6-1-4-5(2-7)9-3-8-4/h3H,1,6H2	InChI=1S/C5H5N3O/c6-1-4-5(2-7)9-3-8-4/h3H,1,6H2
