20
gdb 117419	5.08676	0.59973	0.54368	0.6701	83.74	-0.2619	0.03	0.2919	2018.7588	0.168257	-403.130602	-403.120007	-403.119063	-403.167482	37.26	
C	 0.1139518111	 1.5427825887	-0.2364369245	-0.389541
C	 0.009391234	 0.0438244147	-0.0259312175	-0.031337
O	 0.6501969592	-0.5934925874	-1.1427727456	-0.25369
C	 0.6691454244	-1.9399834863	-1.1488446046	 0.409744
N	 0.1427250943	-2.6112189698	-0.2080709353	-0.537498
C	 1.3820734354	-2.4200019985	-2.3970858639	-0.272515
C	 1.4740232251	-3.9490594225	-2.5261945778	-0.390408
C	 2.1668921994	-4.3617414104	-3.7401285397	 0.280663
C	 2.7409200088	-4.6802837245	-4.7465117066	-0.40942
H	 1.1599808525	 1.8581923707	-0.2883897918	 0.126505
H	-0.3812216449	 1.8426764458	-1.1644641609	 0.126511
H	-0.364016514	 2.0692574913	 0.5950658174	 0.120136
H	 0.4999179772	-0.2774756314	 0.8988217499	 0.118732
H	-1.0311890965	-0.2927045364	 0.0290210508	 0.118626
H	 0.241817616	-3.6110276508	-0.3633374024	 0.225081
H	 0.8673581237	-2.0007819458	-3.2681205167	 0.140427
H	 2.3857455582	-1.9819968535	-2.4080934113	 0.140396
H	 1.9936254883	-4.3616965326	-1.6518940705	 0.140639
H	 0.4648274735	-4.380476382	-2.5182015707	 0.140612
H	 3.2463679345	-4.9744851691	-5.6326816782	 0.19634
49.1168	69.2223	82.1231	90.07	142.5668	188.6288	254.9599	274.8952	355.2624	358.8671	414.3766	509.4693	560.4453	624.5577	646.6916	686.1387	781.6768	804.2417	849.1585	878.0551	939.2423	975.6267	1033.5981	1055.5832	1070.4456	1118.8732	1136.7312	1183.2348	1195.0895	1265.7317	1288.1668	1307.1617	1342.5632	1383.4955	1408.4759	1437.7308	1468.1466	1485.1187	1487.1727	1496.3438	1521.0172	1719.9781	2243.114	3019.9389	3044.722	3046.8016	3050.9484	3055.5233	3082.7259	3092.9165	3119.4224	3123.1886	3506.4856	3530.3843
CCOC(=N)CCC#C	CCO[C]([NH])CCC#C	
InChI=1S/C7H11NO/c1-3-5-6-7(8)9-4-2/h1,8H,4-6H2,2H3	InChI=1S/C7H11NO/c1-3-5-6-7(8)9-4-2/h1,8H,4-6H2,2H3
