14
gdb 128300	7.0734	0.90954	0.81196	4.7928	70.59	-0.2394	-0.0773	0.1622	1336.7414	0.101295	-466.176981	-466.168721	-466.167777	-466.210456	28.325	
C	 0.0725996784	 1.3981526602	-0.0466895561	-0.327173
N	-0.0721514757	-0.0406685246	 0.1147621364	-0.370524
C	 0.5900835637	-0.7091658882	 1.0910336053	 0.516858
N	 0.739522197	-2.0229661269	 1.1439978075	-0.348882
N	 1.4064684003	-2.1596068593	 2.3126961203	 0.060787
C	 1.7927272409	-3.4326642607	 2.7999913192	 0.21002
O	 2.3862578177	-3.6044196186	 3.8209935626	-0.236328
N	 1.6553869083	-0.9972948479	 2.9298691848	-0.079543
N	 1.1536301951	-0.0720406386	 2.1803932266	-0.253132
H	 1.0547285402	 1.6889113436	-0.4429634587	 0.130667
H	-0.7028073264	 1.7515841501	-0.7292546247	 0.134033
H	-0.0634732581	 1.8871699364	 0.9191084914	 0.168421
H	-0.2642860224	-0.5832859661	-0.7120544167	 0.262065
H	 1.460017051	-4.2097974595	 2.0944968821	 0.132732
76.5195	108.5574	140.1056	166.5492	234.4203	267.6574	352.9001	404.2291	469.8651	625.4935	666.3124	735.5433	781.9848	818.9659	976.0273	1029.5689	1050.1588	1107.2771	1155.8541	1172.5004	1213.9327	1269.9781	1368.1208	1416.3688	1440.8253	1447.8989	1486.7519	1495.5848	1516.9414	1668.703	1855.078	3015.7502	3032.7011	3105.2251	3148.839	3640.0861
CNC1=NN(C=O)N=N1	CNc1nn(C=O)nn1	
InChI=1S/C3H5N5O/c1-4-3-5-7-8(2-9)6-3/h2H,1H3,(H,4,6)	InChI=1S/C3H5N5O/c1-4-3-5-7-8(2-9)6-3/h2H,1H3,(H,4,6)
