18
gdb 61673	4.37501	0.79186	0.70919	1.7296	72.47	-0.2542	0.0036	0.2578	1532.7657	0.146902	-439.064833	-439.055571	-439.054627	-439.099898	32.64	
O	-0.0359082421	 1.4442258933	-0.0012395207	-0.402111
C	 0.053148764	 0.0300562196	 0.0251891325	-0.023496
C	 0.6673577439	-0.5653628779	-1.2550612152	-0.240081
C	-0.1016951469	-0.159502959	-2.5048640376	-0.014327
C	 0.0880156914	 1.2601114304	-3.0859427532	-0.070743
O	 0.3984151985	 0.7289460568	-4.3902176576	-0.269013
C	 0.446253724	-0.6156571862	-3.8762965756	-0.100208
C	 0.786848339	-0.4335639247	 1.2210800291	 0.25606
N	 1.3919580186	-0.7796404284	 2.1426744161	-0.310626
H	 0.8576708724	 1.8062841066	 0.0221426515	 0.298125
H	-0.9831492183	-0.3157834815	 0.11661953	 0.143255
H	 1.7160996298	-0.2494842873	-1.3310073583	 0.113941
H	 0.6773275194	-1.6578338582	-1.1551598559	 0.127267
H	-1.1606626447	-0.4101667363	-2.3894792467	 0.087616
H	-0.7885626159	 1.9152603094	-3.0997398849	 0.114294
H	 0.9366841447	 1.8125494655	-2.659899507	 0.083973
H	 1.4735580243	-1.0073284287	-3.8442770576	 0.097633
H	-0.1775444422	-1.3047779535	-4.456587819	 0.10844
54.7925	90.4006	101.1948	135.3653	196.7106	260.1523	308.101	336.8237	373.6793	448.0625	566.6415	591.9273	742.6225	845.4314	881.3156	901.4397	918.5071	974.5984	989.4381	1036.0024	1057.4733	1105.4501	1116.9425	1139.5192	1159.8272	1165.2436	1229.4123	1258.3975	1286.7868	1307.644	1328.6253	1346.731	1378.3732	1407.258	1420.7702	1477.7876	1510.8679	1536.2299	2355.4147	2991.8988	3006.9842	3024.143	3049.3547	3051.9537	3062.2122	3071.5607	3082.1939	3800.3885
OC(CC1COC1)C#N	O[C@@H](CC1COC1)C#N	
InChI=1S/C6H9NO2/c7-2-6(8)1-5-3-9-4-5/h5-6,8H,1,3-4H2	InChI=1S/C6H9NO2/c7-2-6(8)1-5-3-9-4-5/h5-6,8H,1,3-4H2/t6-/m0/s1
