17
gdb 34554	3.7643	1.28366	1.21923	1.2638	82.59	-0.2303	-0.0301	0.2001	1064.2135	0.137547	-384.659524	-384.652404	-384.65146	-384.690921	28.956	
C	 0.0835222678	-1.1717194755	 0.0539053271	-0.371022
C	-0.0149310884	 0.029075947	 0.0082522743	 0.119342
C	-0.072431936	 1.4360546206	-0.0627953524	 0.242481
C	-1.1499422984	 2.2470824577	-0.0478841326	-0.193586
C	-0.6125651484	 3.6650955726	 0.0076795031	 0.06587
C	 0.6451085264	 3.5445977861	-0.8651879102	-0.228357
C	 1.1588860636	 2.3469689095	-0.0265515292	-0.167932
C	 1.1241810923	 3.0150920273	 1.3793457602	-0.073492
O	-0.0390098683	 3.8520817141	 1.3361823001	-0.277075
H	 0.15204295	-2.2303693624	 0.0968298643	 0.189304
H	-2.1864374872	 1.9527267236	 0.0451422484	 0.111674
H	-1.3100383084	 4.4804529549	-0.1726767028	 0.079365
H	 0.4388619911	 3.2803072408	-1.9031562127	 0.10855
H	 1.2830665394	 4.4310091834	-0.8112347887	 0.104031
H	 2.1075917959	 1.8874662962	-0.2973990347	 0.081537
H	 1.0365168657	 2.2840738018	 2.1906032688	 0.108291
H	 2.0135347029	 3.6342333223	 1.5511128468	 0.101018
114.0762	154.8558	293.189	361.4564	449.0993	469.8349	525.1428	550.6035	591.4514	635.4803	636.6086	732.5862	805.5413	842.4355	854.3398	878.14	882.2275	945.3367	954.0422	964.343	989.3655	1031.7064	1068.4963	1122.9059	1143.5366	1197.7064	1224.7969	1245.6169	1274.3282	1280.0319	1294.2602	1328.7511	1362.5841	1488.5417	1525.1232	1632.1576	2219.9412	3019.6786	3065.729	3068.8122	3135.4309	3139.1904	3146.4012	3227.3409	3502.7196
C#CC1=CC2CC1CO2	C#CC1=C[C@@H]2C[C@H]1CO2	
InChI=1S/C8H8O/c1-2-6-3-8-4-7(6)5-9-8/h1,3,7-8H,4-5H2	InChI=1S/C8H8O/c1-2-6-3-8-4-7(6)5-9-8/h1,3,7-8H,4-5H2/t7-,8+/m0/s1
