17
gdb 66641	3.38225	1.84404	1.68316	0.9353	69.14	-0.2359	0.0784	0.3143	852.0379	0.138706	-421.795561	-421.789471	-421.788527	-421.825581	26.499	
O	-0.0898456414	 1.3848581227	 0.0937396064	-0.472538
C	 0.0251196365	 0.0150250856	 0.0389062809	 0.421752
C	-1.0522175336	-1.0224115307	 0.0905503741	-0.141982
C	-0.1911465331	-0.8687438469	-1.1752939717	-0.175521
C	 0.9178382158	-1.9547244419	-1.1157471483	 0.047614
C	 0.3004260727	-3.0318910592	-0.1982189511	-0.211395
C	-0.1463211643	-2.0092296986	 0.8554119608	-0.079367
C	 1.0212225561	-0.9141397953	 0.7659280441	-0.038886
O	 1.9131477551	-1.3879174551	-0.2358928574	-0.257872
H	 0.6230762558	 1.7688274322	-0.4296296483	 0.289537
H	-2.1297826216	-0.9273190668	 0.1114093841	 0.093748
H	-0.6059354883	-0.4631401589	-2.0875558244	 0.092244
H	 1.375872485	-2.2595419187	-2.0544172705	 0.07487
H	-0.5423676813	-3.5603539887	-0.6524032164	 0.097722
H	 1.0529876428	-3.7431453369	 0.1500556289	 0.10345
H	-0.4499678868	-2.3526601062	 1.8413707517	 0.073312
H	 1.5479205904	-0.5855357566	 1.6587448171	 0.08331
245.8636	282.5985	331.168	452.2595	525.7281	571.8789	610.1901	682.1145	755.6805	775.0385	800.1538	826.897	865.9499	881.9399	898.8582	914.481	939.324	948.8466	970.8634	979.563	998.6951	1030.3455	1046.0546	1123.1908	1136.3275	1148.175	1177.646	1207.54	1224.6827	1241.9484	1256.8582	1283.1304	1298.5188	1316.6598	1334.6382	1471.1908	1481.3364	3063.2921	3122.5285	3146.1106	3147.3492	3157.217	3202.6753	3219.6624	3789.8943
OC12C3C1C1CC3C2O1	O[C@@]12[C@H]3[C@@H]1[C@@H]1C[C@H]3[C@H]2O1	
InChI=1S/C7H8O2/c8-7-4-2-1-3(5(4)7)9-6(2)7/h2-6,8H,1H2	InChI=1S/C7H8O2/c8-7-4-2-1-3(5(4)7)9-6(2)7/h2-6,8H,1H2/t2-,3+,4-,5+,6-,7+/m1/s1
