16
gdb 93618	2.70043	1.34526	1.04736	4.4541	68.91	-0.2752	-0.0558	0.2194	1132.9067	0.124379	-437.924176	-437.915854	-437.91491	-437.957778	30.532	
O	 0.3675609886	 1.1525081053	 0.6820563844	-0.436135
C	 0.0655733526	-0.0996571272	 0.1450142165	 0.07129
C	-1.4243880943	-0.4521833705	 0.0735957603	-0.246322
C	-1.4555272138	-1.6390006137	-0.9142038882	-0.243147
C	-0.3906663078	-1.295030309	-2.0007831727	-0.269182
C	-0.9650999743	-0.7680260891	-3.2330708368	 0.293396
N	-1.4433048695	-0.349580769	-4.1983153491	-0.3137
C	 0.5058066553	-0.228455189	-1.3097846041	 0.370866
O	 1.3540039803	 0.4470147718	-1.8235004441	-0.305306
H	 1.0592297335	 1.5339601467	 0.1217366377	 0.298011
H	 0.5854659968	-0.9076136445	 0.6982441529	 0.098515
H	-1.8504525013	-0.7025349751	 1.0465071113	 0.124658
H	-1.9729604008	 0.4072372488	-0.3275949583	 0.134546
H	-1.1582411467	-2.5621165294	-0.4080817984	 0.12306
H	-2.442514178	-1.8035866262	-1.3467030472	 0.141487
H	 0.2316990093	-2.1586954802	-2.2594699343	 0.157963
40.4778	133.0903	157.5982	246.0226	269.9268	355.3279	369.6917	430.7249	465.8934	521.6452	601.7093	623.7721	671.2414	785.1668	850.6363	907.5651	951.444	981.1383	1021.2693	1057.4251	1104.1369	1144.4852	1172.2429	1193.4515	1229.9162	1271.9677	1294.7837	1325.7809	1336.4491	1376.6102	1413.2432	1492.086	1502.5512	1855.3079	2360.0342	2907.1413	3055.3749	3058.2401	3070.7351	3123.1543	3135.3524	3731.0682
OC1CCC(C#N)C1=O	O[C@H]1CC[C@@H](C#N)C1=O	
InChI=1S/C6H7NO2/c7-3-4-1-2-5(8)6(4)9/h4-5,8H,1-2H2	InChI=1S/C6H7NO2/c7-3-4-1-2-5(8)6(4)9/h4-5,8H,1-2H2/t4-,5-/m0/s1
