17
gdb 48839	2.9514	1.4184	1.12049	3.1727	74.57	-0.2542	-0.0376	0.2166	1099.0597	0.136044	-421.829319	-421.821509	-421.820565	-421.861957	29.526	
O	-0.2628537771	 0.1593602082	 0.5122241383	-0.250186
C	-0.0523898205	 1.2844841623	 0.1385015175	 0.107392
C	 1.3101350335	 1.8833335344	-0.0154562062	 0.271711
O	 1.2832801511	 3.3230387051	 0.1839861012	-0.282081
C	 1.5174642688	 2.8386728708	-1.131148707	-0.026733
C	 2.9270911455	 3.0186263504	-1.6836570651	-0.235293
C	 3.8301945723	 1.7819347133	-1.5054822598	-0.274915
C	 3.6178177406	 1.0686619025	-0.194671135	-0.056333
C	 2.4754450089	 1.1174850161	 0.4888730975	-0.12841
H	-0.8709498367	 1.9940528666	-0.1155721225	 0.084173
H	 0.6906913595	 3.0207339974	-1.8188594577	 0.098772
H	 2.8730927042	 3.2919005905	-2.7417022185	 0.107676
H	 3.3666611419	 3.8695942478	-1.153447206	 0.130968
H	 3.6608838294	 1.0654488173	-2.3227354343	 0.123391
H	 4.8782537459	 2.0853491272	-1.5998152596	 0.115508
H	 4.4416946478	 0.4663738352	 0.1794329364	 0.103617
H	 2.3397217748	 0.5632281548	 1.4109503208	 0.110742
81.5376	110.0026	194.0054	246.6332	298.7311	406.7841	459.3243	508.9194	522.5741	560.6225	713.1789	727.8922	774.828	819.9558	857.202	895.3406	953.7305	978.0351	1002.79	1032.624	1052.1786	1089.5563	1108.2796	1192.1945	1215.5313	1249.3741	1273.2292	1319.1964	1349.9196	1380.023	1399.5678	1426.5433	1449.5629	1473.6258	1483.8037	1715.8617	1824.631	2893.6662	3004.8212	3048.7322	3065.9227	3091.0419	3105.5583	3161.554	3197.5181
O=CC12OC1CCC=C2	O=C[C@]12O[C@H]1CCC=C2	
InChI=1S/C7H8O2/c8-5-7-4-2-1-3-6(7)9-7/h2,4-6H,1,3H2	InChI=1S/C7H8O2/c8-5-7-4-2-1-3-6(7)9-7/h2,4-6H,1,3H2/t6-,7-/m0/s1
