15
gdb 25606	7.07755	0.72911	0.66378	1.862	68.42	-0.2222	-0.0372	0.1851	1564.4093	0.111181	-457.775294	-457.767081	-457.766136	-457.809511	28.845	
O	-0.2172203854	 0.1857199576	 0.54950696	-0.234116
C	 0.0397257573	 1.0949990321	-0.1920219258	 0.140215
C	 1.3446021329	 1.8684865366	-0.1391347065	-0.168039
O	 1.3014341545	 2.8581250141	-1.1454263847	-0.267728
C	 2.4003618171	 3.6443792678	-1.2369648217	 0.330855
C	 3.5525355653	 3.6327857235	-0.504257071	-0.14694
O	 4.3855254363	 4.6176204732	-0.9588911038	-0.14853
C	 3.7495329655	 5.2431516364	-1.9771244828	 0.026248
C	 2.5275451352	 4.6967139298	-2.2008588222	-0.312795
H	-0.6587793582	 1.4474221793	-0.9820137491	 0.103368
H	 1.4631941477	 2.3172547279	 0.8591188967	 0.138759
H	 2.1862526104	 1.1760181928	-0.2945460312	 0.138743
H	 3.9195313253	 3.0397449498	 0.3137833927	 0.136808
H	 4.2891841279	 6.0521099406	-2.441164491	 0.141711
H	 1.7994329583	 4.9839002285	-2.9416541895	 0.121442
51.1006	77.3039	114.0453	127.526	301.9596	336.4124	382.8353	565.4328	610.5787	645.8117	692.1313	729.367	752.0804	769.9613	827.4844	883.5934	998.4875	1042.0398	1064.2102	1089.3256	1112.9916	1114.0159	1217.7345	1234.5082	1266.3527	1318.1357	1356.6425	1404.9372	1431.5521	1479.6422	1546.8894	1644.671	1847.7429	2905.7713	2985.7667	3022.4573	3265.4235	3287.3489	3298.6384
O=CCOC1=COC=C1	O=CCOc1cocc1	
InChI=1S/C6H6O3/c7-2-4-9-6-1-3-8-5-6/h1-3,5H,4H2	InChI=1S/C6H6O3/c7-2-4-9-6-1-3-8-5-6/h1-3,5H,4H2
