16
gdb 12439	3.44872	1.95685	1.36737	4.3295	66.02	-0.2592	-0.0122	0.2469	888.6365	0.131826	-383.770338	-383.763227	-383.762283	-383.802117	26.638	
O	 0.0647143379	 0.2187223127	 0.8649846193	-0.311825
C	 0.0322298009	 1.2051612875	 0.1786267294	 0.383025
C	-1.3254154942	 1.8450744226	-0.1411442436	-0.302499
C	-1.4838515933	 2.9309711494	-1.2209338314	-0.284757
C	-0.643534707	 4.1475399163	-0.9377354833	-0.042372
C	 0.685244851	 4.0657310403	-0.9114819307	-0.074103
C	 1.3715762596	 2.7643237895	-1.217773131	-0.118352
O	 1.2138711437	 1.7365373833	-0.2144157251	-0.221971
H	-1.9872768215	 1.0001767507	-0.3525641	 0.139239
H	-1.6622773154	 2.2500101319	 0.8210919933	 0.145183
H	-1.2265462481	 2.5142649823	-2.2039031697	 0.12039
H	-2.5431195404	 3.1982171251	-1.273750296	 0.111473
H	-1.1454858403	 5.083670715	-0.7096853836	 0.103049
H	 1.3022800005	 4.9249183558	-0.6689361891	 0.104573
H	 1.0357258107	 2.3633765966	-2.1826075123	 0.120741
H	 2.4533537458	 2.8928243911	-1.2760763461	 0.128206
55.2069	149.6938	272.0051	285.5641	354.3924	454.521	514.041	534.6353	635.0985	684.9587	706.1632	790.1978	886.7424	911.6917	945.2472	990.7876	1015.6651	1057.253	1064.398	1085.2925	1198.1901	1218.8734	1235.8078	1269.9627	1284.2901	1343.2385	1370.0236	1402.787	1421.5882	1454.8931	1485.9929	1510.2343	1716.3101	1824.402	3018.5614	3024.2137	3044.3239	3083.6029	3094.6531	3116.8723	3163.7715	3188.9067
O=C1CCC=CCO1	O=C1CCC=CCO1	
InChI=1S/C6H8O2/c7-6-4-2-1-3-5-8-6/h1,3H,2,4-5H2	InChI=1S/C6H8O2/c7-6-4-2-1-3-5-8-6/h1,3H,2,4-5H2
