18
gdb 11701	5.54362	1.3307	1.21523	0.9197	80.16	-0.2289	0.0419	0.2708	1038.7278	0.152894	-310.6141	-310.606166	-310.605222	-310.645884	30.902	
C	-0.1378533775	 1.5683585342	 0.0631551787	-0.407075
C	 0.0767722913	 0.0601814787	 0.0255287812	 0.037625
C	 1.1684958919	-0.5341036989	-0.9300160839	-0.315736
C	 1.8097203394	-1.2653898399	 0.2668239808	 0.226739
C	 2.2165140301	-0.2450552249	 1.3072989992	-0.32093
C	 0.7696470512	-0.6202922313	 1.2161888376	-0.11459
C	 2.3174177452	-2.5935630024	 0.2426170794	 0.154171
C	 2.7401104465	-3.7204662051	 0.1982595913	-0.410038
H	 0.7935909548	 2.1052386201	 0.270259611	 0.114925
H	-0.5235523294	 1.9317642528	-0.8957068547	 0.115884
H	-0.8605519594	 1.8438214346	 0.839077936	 0.116245
H	-0.8776167856	-0.4368778618	-0.1729189495	 0.080362
H	 0.755742733	-1.2143595585	-1.6763597625	 0.114393
H	 1.8224705887	 0.1871718836	-1.4314271455	 0.096401
H	 2.7467142668	-0.652903525	 2.1608614333	 0.125367
H	 2.5694601665	 0.7322163175	 0.9860975538	 0.109642
H	 0.2608597405	-1.0932444757	 2.0479206924	 0.095618
H	 3.116380726	-4.7123303579	 0.1644047312	 0.180996
111.9684	141.7682	213.2568	231.2353	288.8956	394.5148	444.4657	512.6055	535.5515	557.5658	582.4496	641.5154	687.39	796.2873	835.9286	862.4992	902.0417	960.8527	972.3856	988.3753	1026.4233	1082.0121	1088.0592	1101.8643	1127.7209	1185.6164	1204.8665	1242.4012	1275.4429	1300.4351	1368.146	1383.417	1411.9665	1479.4083	1492.5246	1495.9413	1500.5337	2229.2331	3028.944	3047.383	3053.8808	3094.0235	3100.8285	3110.9866	3122.0703	3181.4909	3210.5215	3504.9186
CC1CC2(CC12)C#C	C[C@H]1C[C@]2(C[C@@H]12)C#C	
InChI=1S/C8H10/c1-3-8-4-6(2)7(8)5-8/h1,6-7H,4-5H2,2H3	InChI=1S/C8H10/c1-3-8-4-6(2)7(8)5-8/h1,6-7H,4-5H2,2H3/t6-,7-,8-/m0/s1
