20
gdb 57815	3.17715	0.65582	0.57091	3.8386	86.96	-0.2588	0.0198	0.2786	1972.4416	0.168313	-403.120758	-403.109843	-403.108899	-403.160599	37.195	
C	-0.3659564206	 1.3594368334	-0.2953534491	-0.375385
C	 0.2479130978	-0.0534297584	-0.2343245921	-0.127121
C	-0.8356889069	-1.1291228738	-0.0173055981	-0.374854
C	 1.0297900186	-0.340567477	-1.4371104978	 0.093576
C	 1.6547621037	-0.5702912505	-2.44137869	 0.045296
C	 2.4085489265	-0.8642090161	-3.655023116	-0.238897
O	 1.8052039711	-1.8771491904	-4.4709971685	-0.170563
C	 1.8799593769	-3.1376723229	-3.9941282447	 0.137278
N	 1.3465201024	-4.0832987612	-4.6362223616	-0.43788
H	 0.4076976149	 2.1205026881	-0.4262473613	 0.124162
H	-1.065927188	 1.4388390992	-1.1325773291	 0.128602
H	-0.9098753759	 1.5744160936	 0.6298384547	 0.115065
H	 0.9314771236	-0.0871998094	 0.6256008351	 0.106886
H	-1.5467482261	-1.1327051355	-0.8488043182	 0.131572
H	-0.3936810312	-2.1261839551	 0.0549146666	 0.123916
H	-1.3866145593	-0.9263529071	 0.9063612011	 0.115465
H	 2.461598802	 0.0160936026	-4.3016380964	 0.151395
H	 3.4404941884	-1.1504654405	-3.4075020333	 0.132454
H	 2.4311764189	-3.2182222764	-3.047620542	 0.09052
H	 1.5067378531	-4.9641136925	-4.1518236591	 0.228511
3.9424	44.5001	78.404	111.9118	119.3783	223.1562	231.8656	265.9632	298.6551	323.7865	346.396	440.8102	531.2951	561.2486	655.4622	724.1786	818.1922	880.0565	931.7341	950.4162	965.8104	1027.5938	1039.9098	1063.6483	1117.4155	1118.9541	1150.3639	1208.0253	1243.5597	1317.4892	1322.8304	1350.8574	1393.3883	1395.8285	1418.206	1427.4123	1485.1143	1485.6574	1489.073	1498.7749	1510.7438	1748.4942	2360.543	3006.2273	3007.7435	3030.6456	3038.372	3041.6229	3088.8676	3111.0102	3115.7056	3120.2716	3122.4637	3516.7568
CC(C)C#CCOC=N	CC(C)C#CCO[CH][NH]	
InChI=1S/C7H11NO/c1-7(2)4-3-5-9-6-8/h6-8H,5H2,1-2H3	InChI=1S/C7H11NO/c1-7(2)4-3-5-9-6-8/h6-8H,5H2,1-2H3
