18
gdb 123916	3.4323	1.54931	1.11289	1.8066	77.99	-0.1826	0.0354	0.218	1070.0302	0.152445	-398.162587	-398.155149	-398.154205	-398.194275	29.402	
C	-0.0361430741	 1.5225299648	 0.0285272966	-0.204712
C	 1.3831964971	 2.1172513293	 0.0627783824	-0.14943
N	 2.2192312942	 1.576761293	 1.1340522256	-0.392408
C	 1.931480875	 0.2980389913	 1.5772367666	 0.37287
N	 2.5768483849	-0.2992156383	 2.5748933555	-0.351715
N	 1.9755291256	-1.5177829881	 2.6505380577	-0.19331
C	 0.9952069712	-1.6901560263	 1.7329334354	-0.161026
C	 0.9231788489	-0.521609919	 1.0046112163	 0.175989
C	 0.010356041	-0.0161639445	-0.0712534112	-0.33825
H	-0.5716552421	 1.8102958963	 0.9411344243	 0.103015
H	-0.5808090102	 1.9471910524	-0.8212009217	 0.093868
H	 1.8650710065	 1.9267432833	-0.908464207	 0.1032
H	 1.3345726022	 3.2038796999	 0.1781723771	 0.102266
H	 2.522852773	 2.2207169195	 1.8461884816	 0.240252
H	 2.305367967	-2.1762504063	 3.3327618328	 0.268409
H	 0.4262806979	-2.6056798924	 1.6766720848	 0.124255
H	-0.9973394363	-0.4348321727	 0.0253491572	 0.101245
H	 0.3686646184	-0.3022147022	-1.070354344	 0.105481
102.6166	195.8122	251.8661	322.1532	360.2972	402.7798	406.9242	465.1631	535.811	639.0821	672.8343	733.9891	750.1518	778.0566	866.8947	876.181	947.083	952.9063	993.7868	1066.3336	1078.7579	1115.7669	1175.0136	1193.5242	1216.1105	1246.2475	1291.5976	1314.1024	1360.7352	1365.2947	1388.7274	1401.2577	1460.9211	1479.5617	1486.3932	1489.0456	1503.4344	1566.9716	1639.3559	2982.5519	3001.6835	3033.0167	3060.4864	3079.7019	3083.7124	3250.232	3632.4685	3698.2277
C1CNC2=NNC=C2C1	C1CNc2n[nH]cc2C1	
InChI=1S/C6H9N3/c1-2-5-4-8-9-6(5)7-3-1/h4H,1-3H2,(H2,7,8,9)	InChI=1S/C6H9N3/c1-2-5-4-8-9-6(5)7-3-1/h4H,1-3H2,(H2,7,8,9)
