16
gdb 99354	7.00368	0.5974	0.55621	5.9647	67.8	-0.286	0.0012	0.2872	1883.1572	0.121202	-475.040349	-475.030215	-475.029271	-475.0777	32.685	
C	 0.0812926277	 1.3229577458	 0.0074332953	-0.241616
O	-0.0714875598	-0.1043181215	 0.0009623875	-0.234884
C	-1.3434618617	-0.5456512823	 0.0121306269	 0.418387
O	-2.3165274156	 0.1536836774	 0.0264134949	-0.326214
C	-1.330816914	-2.0671638526	 0.0038405796	-0.17814
O	-2.6550468881	-2.5319183774	 0.0139195929	-0.216
C	-2.7232063989	-3.9361477458	 0.0072013867	-0.181063
C	-4.1284662729	-4.3521936209	 0.017941219	 0.270863
N	-5.2218069376	-4.7218085852	 0.0260453903	-0.28685
H	 1.1554959752	 1.5055207135	-0.002047717	 0.138043
H	-0.3909303026	 1.7629440295	-0.8742129849	 0.146812
H	-0.3736252371	 1.7530592625	 0.9029369786	 0.146839
H	-0.7819138036	-2.4091427304	-0.8884280081	 0.128802
H	-0.7651941925	-2.4185153924	 0.881935943	 0.128803
H	-2.2382554694	-4.3626266388	-0.8864654063	 0.143106
H	-2.2219402391	-4.3718993015	 0.8872903716	 0.143111
26.7153	70.9015	84.8444	97.6697	107.9971	166.1172	199.707	307.8872	315.8308	384.6337	414.4889	587.9919	599.8137	710.1025	900.8157	966.2048	1011.21	1019.8481	1051.7454	1070.0415	1179.6058	1186.2031	1208.0328	1230.2581	1245.6309	1258.1891	1384.6978	1436.7164	1475.1386	1481.9028	1483.2335	1497.8351	1507.9789	1856.9456	2376.8215	2968.2475	2977.736	2994.0757	3006.4709	3055.2102	3131.5907	3164.3997
COC(=O)COCC#N	COC(=O)COCC#N	
InChI=1S/C5H7NO3/c1-8-5(7)4-9-3-2-6/h3-4H2,1H3	InChI=1S/C5H7NO3/c1-8-5(7)4-9-3-2-6/h3-4H2,1H3
