22
gdb 107751	2.78233	1.36181	1.21103	1.9223	85.49	-0.2261	0.0746	0.3007	1176.3188	0.194168	-367.162388	-367.153492	-367.152548	-367.195737	34.447	
C	 0.0229425074	 1.5940721957	 0.0409950207	-0.380905
C	 0.0360520251	 0.0593930122	 0.0161253489	-0.307936
C	-1.3469494348	-0.5435951069	 0.0063598989	 0.275203
C	-2.3210282641	-0.3954914848	 1.2135545361	-0.286201
C	-2.9589614223	-1.6888977906	 0.7205236378	-0.086183
N	-2.9720675227	-1.705085536	-0.7925614294	-0.189462
C	-2.3209902901	-0.4136534859	-1.1810691389	-0.189277
C	-1.7473114606	-2.0889680692	-0.0326008223	 0.294025
C	-0.9923299216	-3.3632222701	-0.2002222005	-0.532717
H	 1.0404755986	 1.9959285634	 0.0397966201	 0.114305
H	-0.4968661667	 2.0009272498	-0.8328517602	 0.12124
H	-0.4844267779	 1.972131323	 0.934617318	 0.121705
H	 0.5867394775	-0.2865472106	-0.8688693133	 0.096762
H	 0.5908835567	-0.3157377087	 0.8863692664	 0.096081
H	-1.8107336276	-0.5538343713	 2.1683766541	 0.09944
H	-2.9311720057	 0.5133403508	 1.2671601021	 0.091454
H	-3.7028890451	-2.310141098	 1.2030123986	 0.092467
H	-2.9881901982	 0.4564755777	-1.2186063588	 0.090255
H	-1.8395254806	-0.5492682573	-2.1544148797	 0.099741
H	-0.3907625403	-3.3570223073	-1.1163898574	 0.123246
H	-0.3173812152	-3.5423527023	 0.6441245553	 0.121015
H	-1.6908892615	-4.2035153138	-0.2639709463	 0.135742
78.5616	133.9505	182.0709	204.8301	223.4074	248.7848	333.9374	379.8047	466.9374	484.8996	591.4724	667.4151	710.1461	744.4357	790.1069	837.1441	881.1868	919.9842	933.5762	963.8437	974.7094	989.6024	1016.3461	1056.4286	1077.2847	1097.4246	1108.8082	1134.3324	1153.1464	1176.6625	1203.5083	1243.0352	1248.7993	1271.1876	1315.9102	1335.1311	1377.298	1400.3969	1410.9141	1445.7531	1481.0073	1486.1235	1491.4538	1492.0838	1499.9018	1507.247	1516.3855	3011.121	3020.571	3025.8049	3033.3162	3036.4091	3041.4382	3084.6534	3086.4261	3092.511	3102.3872	3104.6973	3107.2902	3195.9902
CCC12CC3N(C1)C23C	CC[C@@]12C[C@H]3N(C1)[C@@]23C	
InChI=1S/C8H13N/c1-3-8-4-6-7(8,2)9(6)5-8/h6H,3-5H2,1-2H3	InChI=1S/C8H13N/c1-3-8-4-6-7(8,2)9(6)5-8/h6H,3-5H2,1-2H3/t6-,7-,8-,9?/m1/s1
