15
gdb 46088	4.67514	1.05253	0.90223	3.0924	75.2	-0.2418	-0.0642	0.1775	1226.328	0.111379	-420.602046	-420.594065	-420.593121	-420.634898	29.825	
O	-0.0220331461	-0.0327298316	 0.2514409818	-0.314589
C	-0.0097616243	 1.1556920483	 0.0113402065	 0.355047
C	-1.2994600106	 1.9661575314	-0.1035853277	-0.184311
O	-1.1611466602	 3.1113568026	-0.9257379891	-0.257027
C	-0.1383695116	 3.9914509898	-0.4898545859	-0.079751
C	 1.1793364376	 3.2700087647	-0.2839535052	-0.055246
C	 1.2309341056	 1.9466412011	-0.1060833568	-0.176739
C	-0.0030189386	 5.0676400409	-1.4704096799	 0.2924
C	 0.140938339	 5.9641324029	-2.2552744196	-0.417945
H	-2.0796339191	 1.3450863508	-0.5473393208	 0.144239
H	-1.6222737084	 2.2427651969	 0.9166780472	 0.115164
H	-0.4296854129	 4.4447520864	 0.479660485	 0.116286
H	 2.0735846106	 3.8860971812	-0.2834913286	 0.133908
H	 2.1670023407	 1.4127723869	 0.0227496041	 0.121361
H	 0.2560118682	 6.7543265276	-2.9559612609	 0.207204
59.919	139.8239	169.438	261.5286	313.3025	407.1822	423.356	455.3243	520.8025	588.815	617.9616	634.2931	685.4816	736.5876	756.7134	854.167	915.2067	1001.9998	1018.676	1021.2406	1066.6624	1123.6762	1171.3521	1243.0132	1272.3646	1300.6965	1338.3312	1366.7891	1396.4535	1464.8351	1681.1016	1793.744	2249.6779	2894.6016	2949.4668	3121.3026	3174.9387	3196.6782	3502.3713
O=C1COC(C=C1)C#C	O=C1CO[C@@H](C=C1)C#C	
InChI=1S/C7H6O2/c1-2-7-4-3-6(8)5-9-7/h1,3-4,7H,5H2	InChI=1S/C7H6O2/c1-2-7-4-3-6(8)5-9-7/h1,3-4,7H,5H2/t7-/m1/s1
