20
gdb 7965	2.82274	1.7599	1.27163	1.819	78.16	-0.2251	0.0299	0.255	1038.9425	0.176361	-349.032624	-349.023863	-349.022918	-349.065496	33.017	
C	-0.0166501569	 1.5131091695	 0.1378364816	-0.501469
C	 0.0414018605	 0.0212806779	 0.0260402893	 0.221207
C	 0.0521087017	-0.7365137147	-1.0824282327	 0.221206
C	 0.0089462973	-0.299622137	-2.5137503315	-0.501469
C	 0.0572778624	-2.2125667681	-0.7309383916	-0.315451
C	 0.478891227	-2.2291142951	 0.7554128523	 0.130117
O	 1.8824428286	-2.4170004269	 0.8974155349	-0.438115
C	 0.0379146645	-0.8420165288	 1.2738428624	-0.315451
H	 0.8312222673	 1.8982952279	 0.7189933751	 0.123077
H	-0.0110071972	 2.0109975006	-0.8347895084	 0.121381
H	-0.9226457409	 1.8310541632	 0.6706960341	 0.125468
H	 0.006418137	 0.7874057713	-2.6246097407	 0.121381
H	 0.8677406921	-0.6937673348	-3.0724265223	 0.123076
H	-0.8871418195	-0.6887067157	-3.0152449579	 0.125469
H	-0.9421173672	-2.6495242239	-0.8743498343	 0.100493
H	 0.7505456593	-2.8097090494	-1.3351366089	 0.101553
H	 0.0283401112	-3.0528444124	 1.3141970787	 0.079305
H	 2.3125492158	-1.7025904138	 0.4131699186	 0.276176
H	 0.7177647955	-0.4896044345	 2.0586131401	 0.101553
H	-0.9671751985	-0.8760168653	 1.7198565112	 0.100494
96.1435	152.0828	158.3635	177.8048	288.2043	298.5898	343.1134	356.739	386.7165	460.6015	512.4396	597.2139	651.2377	807.4819	843.4411	879.6048	914.2446	927.6147	987.3277	1002.8358	1024.0308	1069.0182	1094.0965	1094.6934	1173.4614	1174.8873	1196.3615	1238.2356	1279.532	1299.7296	1322.1343	1353.6313	1411.0028	1421.8584	1431.4441	1470.8257	1479.0966	1480.77	1482.6785	1488.4179	1493.8073	1732.8245	2998.7261	2999.5845	3014.1008	3016.3364	3054.3506	3055.375	3056.5339	3056.6412	3086.448	3112.1412	3118.175	3790.7379
CC1=C(C)CC(O)C1	CC1=C(C)C[C@@H](O)C1	
InChI=1S/C7H12O/c1-5-3-7(8)4-6(5)2/h7-8H,3-4H2,1-2H3	InChI=1S/C7H12O/c1-5-3-7(8)4-6(5)2/h7-8H,3-4H2,1-2H3
