15
gdb 67550	2.62451	1.8399	1.51656	2.6796	65.64	-0.245	0.0129	0.2579	902.6031	0.112452	-453.866423	-453.859052	-453.858107	-453.898157	28.557	
O	 0.1197428837	 1.4181843035	 0.1860318868	-0.476358
C	 0.1045233603	 0.043367712	 0.0517767235	 0.311423
C	 1.3235919195	-0.6823230728	 0.6900698256	-0.09656
N	 1.0335671629	-2.1262789914	 0.6793760746	-0.324232
C	 1.5534898944	-1.4818933778	-0.5492990987	-0.077588
C	 0.3563613476	-0.789863393	-1.2453245759	 0.027052
O	-0.9392854718	-1.4459006781	-1.0728128843	-0.259301
C	-1.2287316546	-0.6953129	 0.0507480217	 0.367288
N	-2.282959138	-0.5676748114	 0.7160596072	-0.565953
H	-0.7945575591	 1.7246251324	 0.1827117955	 0.30266
H	 2.0167762187	-0.226020016	 1.3850438918	 0.110191
H	 1.8174546442	-2.6029572767	 1.1235560812	 0.240195
H	 2.4715230401	-1.8168785418	-1.014133007	 0.103901
H	 0.4942525921	-0.3733772329	-2.2409242071	 0.104236
H	-3.0303428101	-1.1703546459	 0.3672893251	 0.233045
124.9835	130.3893	242.7005	280.1324	326.6667	360.5727	473.3539	583.2018	646.4022	690.8302	722.2671	788.9201	826.983	833.4407	869.5613	903.247	924.6099	950.0718	979.845	989.9836	1029.6777	1042.1021	1083.6	1103.2407	1154.3656	1210.1109	1238.9331	1286.135	1321.9447	1340.6853	1368.0698	1402.3903	1821.1565	3146.571	3196.003	3208.6144	3476.2218	3481.4344	3801.4585
OC12C3NC3C1OC2=N	O[C@]12[C@H]3N[C@H]3[C@H]1O[C]2[NH]	
InChI=1S/C5H6N2O2/c6-4-5(8)2-1(7-2)3(5)9-4/h1-3,6-8H	InChI=1S/C5H6N2O2/c6-4-5(8)2-1(7-2)3(5)9-4/h1-3,6-8H/t1-,2+,3-,5-/m1/s1
