17
gdb 37531	3.68515	1.93108	1.68585	2.169	68.83	-0.2311	0.0782	0.3093	826.8742	0.139947	-421.783719	-421.77815	-421.777206	-421.813433	24.165	
C	-0.0372905511	 1.6054411828	-0.0927151503	-0.093279
O	 1.3225443697	 2.010466146	 0.1188046931	-0.282801
C	 2.085528001	 0.843843394	 0.3868293701	 0.129492
C	 1.784649941	 0.2444140108	 1.7805712291	 0.041518
O	 2.4805260153	-1.0306210539	 1.7370195953	-0.296183
C	 1.4510796507	-1.3999294024	 0.8032651519	 0.099458
C	 0.4093251764	-0.4458370516	 1.4279034096	-0.097505
C	-0.0003512571	 0.0889627966	 0.0323387035	-0.069251
C	 1.4416375289	-0.3473670106	-0.373091146	-0.130774
H	-0.6879803729	 2.0744556291	 0.6570468964	 0.101955
H	-0.3615851859	 1.93962215	-1.0872521602	 0.101419
H	 3.1379649575	 1.0582869991	 0.206729343	 0.089686
H	 1.9727406201	 0.8362723063	 2.6744949943	 0.085562
H	 1.346692578	-2.4656665927	 0.6091247392	 0.088249
H	-0.2780423937	-0.709043682	 2.2291738762	 0.079552
H	-0.8282724544	-0.4506018753	-0.4274893149	 0.078663
H	 1.7447804964	-0.5585366262	-1.3954531404	 0.074239
209.4307	344.0039	417.8698	512.5499	635.1913	644.3722	767.7563	785.7905	814.948	849.3383	866.3829	873.2126	882.7743	928.8615	942.6542	962.4038	968.1866	983.301	1016.3711	1045.5897	1063.4295	1097.2543	1107.8819	1148.9057	1150.796	1178.1668	1195.7138	1215.2004	1236.4297	1255.8346	1269.5863	1299.9984	1309.2098	1323.2426	1343.2987	1388.3588	1523.4191	3006.7336	3040.9672	3118.5336	3130.9553	3133.6748	3140.0502	3146.3493	3154.8553
C1OC2C3OC4C3C1C24	C1O[C@H]2[C@@H]3O[C@H]4[C@@H]3[C@@H]1[C@@H]24	
InChI=1S/C7H8O2/c1-2-3-5-4(2)7(9-5)6(3)8-1/h2-7H,1H2	InChI=1S/C7H8O2/c1-2-3-5-4(2)7(9-5)6(3)8-1/h2-7H,1H2/t2-,3+,4-,5+,6+,7+/m0/s1
