20
gdb 108771	3.01245	1.09758	0.87196	4.4812	83.72	-0.2344	-0.0259	0.2085	1369.655	0.172717	-403.209298	-403.200448	-403.199504	-403.243122	33.245	
C	-0.1998903462	 1.53790647	 0.0565696897	-0.375567
C	 0.0593202205	 0.0202440602	 0.0189404834	-0.279196
C	 0.7674490617	-0.4326315448	-1.2312636204	 0.31013
C	 2.0468796243	-0.8302632362	-1.2347584054	-0.257769
C	 2.7400630847	-1.3442955027	-2.4406447706	 0.394152
O	 3.8515636249	-1.8453620619	-2.3988000575	-0.383348
N	 2.0182087779	-1.2551492498	-3.6109118247	-0.334086
C	 0.8860169356	-0.349936215	-3.7401935661	-0.171534
C	-0.0247936056	-0.4790363758	-2.5189890983	-0.289947
H	 0.742306481	 2.09312688	 0.0250750974	 0.127881
H	-0.8121538331	 1.8678819394	-0.7886637687	 0.119618
H	-0.7275902158	 1.8136122588	 0.9743599457	 0.121092
H	 0.6498152677	-0.2675084622	 0.8947060562	 0.111957
H	-0.9017479369	-0.5069493886	 0.0967948674	 0.107617
H	 2.6438925371	-0.8538571472	-0.3291780819	 0.102171
H	 2.5580680513	-1.470423886	-4.4365970779	 0.243215
H	 1.2186566621	 0.6966185807	-3.8339897449	 0.105009
H	 0.3378933652	-0.6005234325	-4.653201425	 0.112023
H	-0.5739767375	-1.4311325337	-2.5571488191	 0.125715
H	-0.779102729	 0.3141050071	-2.5430142495	 0.110866
69.2202	109.9022	154.0368	206.6209	239.2402	277.2647	317.8533	447.9868	458.2748	491.3469	565.0773	578.722	675.2286	744.1834	781.0784	807.705	882.0182	914.2129	927.2526	971.9058	1006.3546	1057.9869	1074.1972	1102.974	1121.5163	1169.5826	1222.6484	1257.4551	1270.3686	1310.431	1347.4921	1355.105	1384.8895	1402.3223	1409.4155	1461.8188	1474.4046	1480.9406	1500.1446	1506.7753	1516.5123	1698.4451	1779.7362	2969.4547	3008.4702	3014.6238	3039.4071	3072.3991	3075.72	3076.7423	3110.0393	3115.6012	3190.4287	3610.4462
CCC1=CC(=O)NCC1	CCC1=CC(=O)NCC1	
InChI=1S/C7H11NO/c1-2-6-3-4-8-7(9)5-6/h5H,2-4H2,1H3,(H,8,9)	InChI=1S/C7H11NO/c1-2-6-3-4-8-7(9)5-6/h5H,2-4H2,1H3,(H,8,9)
