17
gdb 15166	4.53976	0.91987	0.85715	0.9441	72.93	-0.2381	0.0293	0.2674	1360.4361	0.141072	-363.786488	-363.777577	-363.776632	-363.821636	30.869	
O	-0.6541672942	 1.0136865101	 1.2532459348	-0.400866
C	-0.3734748678	-0.0480312509	 0.3518067276	-0.192428
C	-1.57090767	-0.6941824717	-0.1849995574	 0.029229
C	-2.5784916352	-1.1701868416	-0.6474059721	 0.056226
C	-3.8065969	-1.7805729606	-1.1672180132	-0.281737
N	-4.5342289662	-2.6984887409	-0.282107605	-0.074154
C	-3.7691713238	-3.5713215726	 0.6010391942	-0.217636
C	-4.5467738541	-2.425516649	 1.1509583182	-0.219335
H	-1.2650343925	 1.6124777452	 0.8111438945	 0.287565
H	 0.2577277899	 0.2913447419	-0.4853329165	 0.12018
H	 0.222603347	-0.7699992697	 0.9208263135	 0.141435
H	-4.5073254789	-0.9871023084	-1.4556795448	 0.136641
H	-3.5719479054	-2.3333050624	-2.0854035447	 0.138312
H	-4.1422264398	-4.5880885504	 0.6839698403	 0.115636
H	-2.6861287161	-3.4711192841	 0.6114279867	 0.120698
H	-3.9687434143	-1.5803886697	 1.5180362607	 0.124745
H	-5.5007621688	-2.5868602454	 1.6446038231	 0.11549
25.7068	75.4592	91.2503	150.8421	246.2266	301.0025	341.5628	361.8768	379.1451	493.3583	601.8672	751.8282	774.027	831.1313	873.8012	982.7738	984.9541	1026.0757	1045.2795	1063.5959	1114.1866	1126.8497	1139.5185	1173.8409	1186.7727	1215.6542	1289.3124	1312.42	1357.9117	1361.2542	1418.6696	1464.7006	1481.9263	1490.1134	1511.6488	2344.066	2975.8533	3024.9385	3056.1271	3063.5068	3103.8098	3106.4657	3185.6729	3199.3088	3817.107
OCC#CCN1CC1	OCC#CCN1CC1	
InChI=1S/C6H9NO/c8-6-2-1-3-7-4-5-7/h8H,3-6H2	InChI=1S/C6H9NO/c8-6-2-1-3-7-4-5-7/h8H,3-6H2
