19
gdb 85824	2.044	1.4495	1.33452	1.3088	77.	-0.2467	0.0285	0.2752	1116.8754	0.155912	-422.976654	-422.966728	-422.965784	-423.010792	37.379	
C	 0.9004872518	 1.4728364077	 0.0016151051	-0.392611
C	 0.0705432744	 0.1911646825	 0.0057900946	-0.0131
C	 0.5656200285	-0.9081646147	-0.9806241104	-0.297773
C	 1.2402878144	-1.6701824177	 0.2133960953	 0.144914
O	 0.9107645336	-3.0426996773	 0.3656489066	-0.467208
C	 2.6780766725	-1.4632298581	 0.3161352321	 0.333681
C	 3.8737971106	-1.3489106199	 0.3834224731	-0.49721
C	 0.377137538	-0.7818767208	 1.1736442425	 0.105228
O	 0.9596735294	-0.1932062861	 2.3010143378	-0.425158
H	 1.9704526095	 1.2609362174	 0.0742221455	 0.132449
H	 0.7248290669	 2.0317791771	-0.9237324483	 0.105638
H	 0.6322220411	 2.1131051144	 0.8464845662	 0.125622
H	-0.9895288026	 0.4399433364	-0.0882042649	 0.074319
H	-0.2427202046	-1.5180151163	-1.3897588727	 0.109491
H	 1.2272118276	-0.5827226156	-1.7855585773	 0.105877
H	 1.5341963341	-3.5597512679	-0.1562274867	 0.282406
H	 4.9274433686	-1.2318382925	 0.4495869858	 0.201281
H	-0.5081930479	-1.3805823278	 1.4311474049	 0.081982
H	 1.219508754	-0.8920378107	 2.9104414008	 0.290171
81.525	126.794	177.8494	220.3085	232.4673	241.5438	257.189	284.1073	323.6468	353.8248	426.6118	495.4193	563.3873	618.2391	628.6144	667.0545	668.6669	770.4389	818.9301	844.8189	904.2863	969.2798	981.4525	1043.6074	1071.076	1113.5669	1164.9842	1171.85	1198.1426	1223.7995	1257.0598	1276.8877	1330.4096	1356.2126	1371.9844	1408.6805	1428.4979	1476.7279	1494.2202	1500.2557	2225.8833	3002.4533	3039.5451	3064.2008	3073.3335	3107.9889	3124.0487	3133.1632	3499.0796	3807.4542	3815.8052
CC1CC(O)(C#C)C1O	C[C@H]1C[C@@](O)(C#C)[C@H]1O	
InChI=1S/C7H10O2/c1-3-7(9)4-5(2)6(7)8/h1,5-6,8-9H,4H2,2H3	InChI=1S/C7H10O2/c1-3-7(9)4-5(2)6(7)8/h1,5-6,8-9H,4H2,2H3/t5-,6-,7-/m0/s1
