24
gdb 60422	3.82406	0.61942	0.57073	3.4553	88.07	-0.2399	0.0391	0.279	2054.47	0.215	-405.600134	-405.588342	-405.587398	-405.639945	40.99	
C	 0.1060841966	 1.4927235886	-0.215883634	-0.382189
C	-0.0260602649	-0.0151866409	 0.043383623	 0.045639
C	 0.4691238743	-0.3664963981	 1.4528629947	-0.389349
C	-1.4657046491	-0.5192994082	-0.1620931258	-0.172683
C	-1.9782292535	-0.39064758	-1.6022999453	-0.174301
N	-3.3026099133	-0.962519786	-1.7775201663	-0.312609
C	-4.4020279096	-0.2094451389	-2.0810105791	 0.406032
C	-5.7104102938	-0.9824701258	-2.1661781327	-0.480811
O	-4.3523017725	 0.992987421	-2.2702879591	-0.373638
H	 1.1355224062	 1.8271660748	-0.0505209729	 0.109838
H	-0.1674381754	 1.7629144903	-1.2397788245	 0.121332
H	-0.5410294829	 2.0620386796	 0.4619272594	 0.116532
H	 0.6170765406	-0.5403367245	-0.6786626739	 0.069677
H	-0.1396509362	 0.1320620628	 2.2166351738	 0.113783
H	 0.4187041451	-1.4446443226	 1.6388925595	 0.107139
H	 1.5068215749	-0.0486768838	 1.5982095141	 0.110572
H	-1.5162069138	-1.5758381543	 0.1369841447	 0.079143
H	-2.1468897242	 0.0233104348	 0.5067801701	 0.104634
H	-2.0698130427	 0.6552679139	-1.8999705756	 0.152268
H	-1.2738510397	-0.8753064616	-2.2924576239	 0.099717
H	-3.4244687799	-1.9467321309	-1.6050417671	 0.238914
H	-6.3818796527	-0.6248492494	-1.3803806975	 0.150968
H	-6.1850876513	-0.7615634858	-3.1251940003	 0.152097
H	-5.5934625123	-2.064873395	-2.0653774213	 0.107295
19.2669	33.4626	47.0494	79.552	102.8978	198.2396	224.2991	246.5697	275.4373	288.3156	389.5	396.2082	443.2716	453.0138	496.9614	624.68	639.849	772.7508	823.2189	903.0767	927.9717	946.1674	966.3335	989.112	1010.6187	1042.4843	1051.1579	1106.4401	1152.1978	1182.8518	1193.1585	1246.6763	1265.4294	1305.7661	1331.0054	1366.8784	1372.8683	1394.0891	1401.3352	1407.9227	1423.6491	1469.88	1477.9602	1486.4252	1488.2211	1494.6236	1499.5652	1506.016	1510.2088	1543.6511	1779.9361	2990.4549	3003.6066	3010.0047	3023.5415	3030.9783	3048.3549	3049.4159	3088.9068	3094.8619	3098.2975	3108.0265	3123.0351	3130.2805	3132.234	3643.6688
CC(C)CCNC(C)=O	CC(C)CCNC(=O)C	
InChI=1S/C7H15NO/c1-6(2)4-5-8-7(3)9/h6H,4-5H2,1-3H3,(H,8,9)	InChI=1S/C7H15NO/c1-6(2)4-5-8-7(3)9/h6H,4-5H2,1-3H3,(H,8,9)
