15
gdb 46445	3.64759	1.1978	1.08451	1.7575	71.04	-0.2553	-0.0456	0.2097	1101.03	0.113842	-416.82436	-416.816852	-416.815908	-416.856558	28.34	
O	 0.0283240685	-0.0064215044	-0.0068745784	-0.30808
C	-0.0120122838	 1.1938594338	-0.0533726318	 0.457046
C	-1.2645869462	 2.0752965472	-0.1266980585	-0.346903
C	-0.8244253039	 3.3660805043	-0.8512111845	-0.276363
C	 0.6886902774	 3.4348080365	-0.6251697384	 0.204581
N	 1.0514227975	 3.2614847892	 0.7929052429	-0.355411
C	 1.1878510228	 2.1075371043	-0.1294541069	-0.208983
C	 1.5055798876	 4.2664167207	-1.4646359968	 0.204573
N	 2.1511937071	 4.9540517989	-2.134470177	-0.328921
H	-2.0736745405	 1.5428772735	-0.6281972385	 0.140478
H	-1.5859003224	 2.287484248	 0.8979342093	 0.156605
H	-1.0198959533	 3.2962935959	-1.9251933981	 0.134498
H	-1.3201169767	 4.2633253496	-0.4737418217	 0.132896
H	 1.9772357829	 3.6513322757	 0.9616248274	 0.261619
H	 2.166810353	 1.7129901369	-0.372651339	 0.132365
98.5816	146.2184	157.4548	282.5683	367.3108	430.1048	480.738	532.6284	561.9056	580.6157	649.1808	678.0737	792.8358	817.2678	872.9824	924.4482	980.8881	994.2567	1053.6408	1062.9991	1079.1693	1175.2534	1192.1418	1223.6921	1266.3672	1293.5193	1298.7572	1343.9003	1398.7194	1450.2321	1491.3519	1854.4288	2352.1118	3066.4111	3069.6762	3114.0656	3135.0723	3203.754	3497.4036
O=C1CCC2(NC12)C#N	O=C1CC[C@]2(N[C@@H]12)C#N	
InChI=1S/C6H6N2O/c7-3-6-2-1-4(9)5(6)8-6/h5,8H,1-2H2	InChI=1S/C6H6N2O/c7-3-6-2-1-4(9)5(6)8-6/h5,8H,1-2H2/t5-,6-/m0/s1
