21
gdb 85823	1.9701	1.41562	1.33328	1.0265	84.	-0.2532	0.0314	0.2845	1166.1268	0.179461	-387.051355	-387.041222	-387.040278	-387.085584	38.617	
C	-0.4240930865	 1.4502483213	-0.09426693	-0.401168
C	-0.0621553794	-0.0313258663	-0.0114866804	 0.003308
C	 1.1413015907	-0.4496408052	-0.9045422203	-0.292489
C	 2.0621507249	-0.4749882509	 0.363663147	 0.221518
O	 2.8262242157	-1.6526271442	 0.5742363833	-0.46697
C	 2.9021704503	 0.7116502441	 0.4913208581	 0.321221
C	 3.634772257	 1.6630964352	 0.5715499532	-0.514372
C	 0.7673266976	-0.4774419842	 1.238407027	-0.00246
C	 0.7189905433	 0.2996268477	 2.542996563	-0.427022
H	 0.4549703612	 2.0918540594	 0.0206363661	 0.127605
H	-0.8746286934	 1.6773183698	-1.0667034654	 0.111279
H	-1.1469361894	 1.7289089009	 0.6799604128	 0.112964
H	-0.9647040258	-0.6286907677	-0.1682806816	 0.068827
H	 1.0472226614	-1.4649408766	-1.296519907	 0.107122
H	 1.4270914437	 0.231260944	-1.7095625253	 0.099515
H	 3.6770119779	-1.5401449428	 0.136250198	 0.280718
H	 4.2744403878	 2.5074071016	 0.6503962449	 0.200373
H	 0.5640940569	-1.5358393614	 1.4315726589	 0.090378
H	 0.9532594322	 1.3574601629	 2.396969965	 0.124147
H	-0.2748439713	 0.2311218162	 2.9986816945	 0.111729
H	 1.4420087451	-0.1057659839	 3.2584971181	 0.123774
84.5372	135.7792	177.9594	195.9461	226.5806	245.0489	254.2686	277.1828	317.984	345.0865	419.9384	484.2318	535.9216	587.9119	619.6789	659.8438	665.451	728.0144	789.5234	839.7722	892.6757	943.8112	982.9758	991.9589	1028.4906	1058.0964	1094.6689	1127.8266	1159.1432	1198.1783	1205.3893	1233.1497	1272.0661	1291.8124	1361.02	1371.1851	1374.1384	1410.635	1414.7993	1472.4987	1488.2266	1493.6183	1501.6798	1505.5955	2222.3471	3029.9885	3035.4549	3049.3928	3058.4881	3067.13	3093.1899	3097.9182	3107.7207	3116.9916	3125.4391	3498.8888	3807.0319
CC1CC(O)(C#C)C1C	C[C@H]1C[C@@](O)(C#C)[C@H]1C	
InChI=1S/C8H12O/c1-4-8(9)5-6(2)7(8)3/h1,6-7,9H,5H2,2-3H3	InChI=1S/C8H12O/c1-4-8(9)5-6(2)7(8)3/h1,6-7,9H,5H2,2-3H3/t6-,7-,8-/m0/s1
