17
gdb 83218	2.7507	1.48204	1.27075	5.4001	71.8	-0.2447	0.0185	0.2632	1030.1395	0.138505	-417.997573	-417.989996	-417.989052	-418.029679	29.508	
O	 0.3148039543	 1.4130296316	 0.4210655177	-0.427024
C	 0.0906202517	 0.0738448049	 0.1357163876	 0.140369
C	-0.4191631968	-0.9335847419	 1.1382266778	-0.113277
C	-1.1180110948	-0.3766315871	 2.3657208712	-0.18907
N	-1.9801452324	 0.686192778	 1.8150198469	-0.339139
C	-2.4686546794	 0.2202852873	 0.5043918126	-0.144344
C	-2.9191397843	 1.3554117591	-0.3162772211	 0.294705
N	-3.3122954507	 2.2287998995	-0.961914399	-0.32025
C	-1.275937776	-0.541214329	-0.0663518792	-0.10353
H	-0.4016651716	 1.7018567379	 1.0091441941	 0.30001
H	 0.8544960951	-0.2915084861	-0.5434063785	 0.113019
H	 0.0422059642	-1.9111357635	 1.2163943743	 0.096552
H	-1.6838342978	-1.1774292363	 2.8674012172	 0.102747
H	-0.4277690117	 0.0598583489	 3.0960145077	 0.124544
H	-2.7320341751	 0.9604477809	 2.4355078598	 0.242379
H	-3.3206522094	-0.4760447733	 0.5824191922	 0.11764
H	-1.4665343852	-1.207319181	-0.8989645314	 0.104669
92.948	152.7244	221.0747	252.2764	304.6241	468.7296	498.9812	525.8502	552.0657	605.2872	682.3576	718.5563	763.3473	775.0998	856.3175	888.5433	965.3646	988.3715	1011.2259	1031.0917	1054.718	1068.956	1096.687	1106.6362	1131.3646	1202.4454	1223.9161	1258.8326	1308.7982	1326.3756	1346.2893	1358.8662	1404.8775	1437.5904	1478.9167	1521.5145	2362.8761	2956.7656	2978.4542	3061.2764	3164.6099	3176.8898	3189.2457	3559.0582	3665.8525
OC1C2CNC(C#N)C12	O[C@H]1[C@H]2CN[C@@H](C#N)[C@@H]12	
InChI=1S/C6H8N2O/c7-1-4-5-3(2-8-4)6(5)9/h3-6,8-9H,2H2	InChI=1S/C6H8N2O/c7-1-4-5-3(2-8-4)6(5)9/h3-6,8-9H,2H2/t3-,4-,5-,6-/m0/s1
