23
gdb 100728	2.57486	0.98896	0.83832	3.5212	82.64	-0.2368	-0.0062	0.2306	1511.1032	0.201892	-425.455841	-425.444355	-425.443411	-425.492786	41.109	
C	 0.3083980542	 1.5588753113	 0.1249813421	-0.378772
C	-0.0056559997	 0.0673082658	-0.0288356773	-0.214568
C	 0.7277817989	-0.5763779912	-1.210253154	 0.153569
O	 2.1411656683	-0.3757483661	-1.1064355767	-0.439485
C	 0.4224385381	-2.0829910333	-1.4050414659	-0.104993
C	-1.0725953575	-2.3884262483	-1.5794388506	-0.404805
C	 1.1863801721	-2.5499601826	-2.656693861	 0.420046
C	 2.4556930819	-3.3443342495	-2.4413775293	-0.486561
O	 0.7780896158	-2.2679463147	-3.7602392358	-0.32441
H	 1.3822366988	 1.7251585057	 0.2406909955	 0.124277
H	-0.0174673943	 2.1187266865	-0.7581970188	 0.120739
H	-0.2028167412	 1.97927392	 0.9960236219	 0.111032
H	 0.2647116028	-0.4727355443	 0.8917525555	 0.084012
H	-1.0845168745	-0.0677655746	-0.1549015133	 0.109035
H	 0.4452900967	-0.0612441405	-2.1366702605	 0.108183
H	 2.4130420546	-0.6757934783	-0.231308282	 0.276462
H	 0.8086270533	-2.6172022205	-0.5257092647	 0.058938
H	-1.6448916641	-2.1316872052	-0.6851179726	 0.115096
H	-1.4743302112	-1.8351144427	-2.4322145131	 0.141534
H	-1.2275951123	-3.4534737165	-1.7777132769	 0.117705
H	 2.255665086	-4.2350356506	-1.8345829927	 0.129831
H	 2.8885490049	-3.635178197	-3.39943786	 0.137425
H	 3.1638488882	-2.7218068932	-1.8841942397	 0.14571
52.0402	64.9891	105.2193	139.7212	179.3848	199.614	219.7742	247.8934	264.5507	292.4612	312.2414	336.2099	435.227	444.5185	500.8527	600.9977	611.7892	779.6554	788.4099	849.679	941.0573	954.2248	980.9768	1007.1734	1034.2399	1058.9008	1094.0582	1111.1277	1135.2318	1139.3506	1176.8692	1250.3844	1273.764	1326.7724	1349.7764	1362.9451	1374.5878	1379.1797	1405.6625	1409.9621	1422.5107	1465.2309	1478.1577	1483.5388	1494.3607	1496.1423	1503.1263	1508.6566	1809.4402	2994.231	3007.659	3035.6547	3040.6407	3046.5562	3048.6112	3076.848	3102.1891	3105.7016	3111.7116	3124.8738	3132.1664	3151.1081	3789.6231
CCC(O)C(C)C(C)=O	CC[C@@H](O)[C@@H](C)C(=O)C	
InChI=1S/C7H14O2/c1-4-7(9)5(2)6(3)8/h5,7,9H,4H2,1-3H3	InChI=1S/C7H14O2/c1-4-7(9)5(2)6(3)8/h5,7,9H,4H2,1-3H3/t5-,7+/m0/s1
