19
gdb 90463	2.71028	1.38208	1.201	1.4741	81.14	-0.2241	0.0466	0.2707	1128.0231	0.158748	-385.850881	-385.842372	-385.841428	-385.883976	32.937	
C	-0.6590963666	 1.1017567545	 0.0409689567	-0.406147
C	 0.2943386464	-0.0822120314	 0.0073462972	 0.14503
C	 1.1826172012	-0.1713104487	-1.2637127075	-0.2716
C	 2.5719899599	-0.4827899273	-0.7386900216	-0.103295
C	 2.4808217947	-0.3302854274	 0.7437276901	 0.10148
O	 1.1954608383	 0.0223887012	 1.1319370502	-0.271708
C	 2.7460259549	-1.7207043227	 0.1558660258	-0.279079
C	 1.7994009829	-2.7919475988	 0.2009894746	 0.349338
C	 1.0248977286	-3.7129702084	 0.2353725315	-0.456036
H	-0.1106982982	 2.0422591941	-0.0729025544	 0.118188
H	-1.3922817042	 1.0242991788	-0.7685400894	 0.114989
H	-1.1999998637	 1.1309902667	 0.9909028993	 0.127783
H	-0.2691104249	-1.0139564875	 0.1199610205	 0.098067
H	 0.8020089944	-0.9267895171	-1.9567159732	 0.117317
H	 1.2062828382	 0.7886690147	-1.7906506757	 0.104431
H	 3.4341323647	-0.1539431594	-1.3066432547	 0.096474
H	 3.2448939865	 0.1248232134	 1.3639646247	 0.107164
H	 3.7817420116	-2.0376707617	 0.2538304781	 0.11361
H	 0.3386780254	-4.521803133	 0.2805018178	 0.193993
83.6841	120.471	133.3025	242.6687	282.5654	337.9788	356.1261	452.5511	542.9032	571.3387	624.8832	652.0475	669.8108	730.6225	740.6109	784.1113	817.0426	898.9484	915.8744	940.6741	998.7811	1015.766	1036.5677	1070.2938	1103.6649	1126.5358	1144.9724	1153.1335	1205.3238	1228.4192	1297.1004	1313.2719	1350.0016	1376.1065	1386.963	1407.2784	1413.7525	1484.8637	1491.051	1499.6186	2229.3733	3036.9535	3046.218	3052.5983	3095.1526	3110.9671	3119.0236	3131.5016	3172.2874	3183.1107	3503.459
CC1CC2C(O1)C2C#C	C[C@H]1C[C@H]2[C@@H](O1)[C@H]2C#C	
InChI=1S/C8H10O/c1-3-6-7-4-5(2)9-8(6)7/h1,5-8H,4H2,2H3	InChI=1S/C8H10O/c1-3-6-7-4-5(2)9-8(6)7/h1,5-8H,4H2,2H3/t5-,6-,7+,8-/m0/s1
