17
gdb 126264	2.0151	1.69783	0.98109	1.7729	70.79	-0.2092	0.0454	0.2546	1182.9576	0.135859	-455.172031	-455.162735	-455.161791	-455.206382	33.763	
C	 0.0463643608	 1.6170536464	 0.1713870401	-0.365694
C	-0.149467863	 0.1100958896	-0.0678603265	-0.319401
C	 0.5973141801	-0.4137406297	-1.2568460697	-0.018725
C	 0.1064692521	-0.8753126463	-2.4654070712	 0.381072
O	-1.1454659621	-1.0195959202	-2.9503076001	-0.43001
N	 1.1491820575	-1.2321723052	-3.2417564145	-0.273826
N	 2.3514001439	-1.0320069989	-2.6119688805	-0.3497
C	 1.9984129544	-0.5457537188	-1.4369520183	 0.36967
O	 2.9149130738	-0.2115668391	-0.5007574121	-0.431439
H	 1.1067172853	 1.8421667768	 0.3150750015	 0.13949
H	-0.3065959765	 2.2005382448	-0.6848794513	 0.111855
H	-0.498056817	 1.9486846254	 1.0615649868	 0.107162
H	 0.1601084872	-0.4364668406	 0.8316896771	 0.120043
H	-1.2224488106	-0.1038499298	-0.181822319	 0.072064
H	-1.7685900881	-0.7232046152	-2.2784934233	 0.310629
H	 1.120218661	-1.6075504117	-4.1724783273	 0.275671
H	 3.7832573712	-0.4020603175	-0.8780618117	 0.30114
42.871	129.6759	184.0375	199.161	249.9868	253.1666	278.1872	311.3251	392.9069	429.6761	461.714	549.3916	584.7801	666.9942	703.8094	747.7071	769.7003	815.4625	967.9916	1012.1773	1087.6428	1104.4257	1151.502	1190.9873	1225.0121	1283.217	1303.4295	1356.5104	1373.5285	1407.9769	1473.9374	1481.7422	1495.3285	1509.2237	1558.3107	1602.2481	1666.7629	2994.1953	3035.8774	3040.8145	3105.1633	3119.6992	3699.1721	3790.3441	3827.5838
CCC1=C(O)NN=C1O	CCc1c(O)[nH]nc1O	
InChI=1S/C5H8N2O2/c1-2-3-4(8)6-7-5(3)9/h2H2,1H3,(H3,6,7,8,9)	InChI=1S/C5H8N2O2/c1-2-3-4(8)6-7-5(3)9/h2H2,1H3,(H3,6,7,8,9)
