21
gdb 40005	3.1539	1.56053	1.47375	0.149	85.87	-0.2313	0.0226	0.2539	1009.0417	0.185928	-349.951086	-349.944076	-349.943132	-349.982063	30.23	
C	 0.0086659505	 1.5100719177	 0.0005992027	-0.335167
C	 1.3054895805	 0.7288807396	-0.0127675175	-0.340261
C	-0.0172894572	 0.0100499309	 0.0022513923	 0.444716
C	-0.4739428874	-0.82743066	 1.2157699843	-0.300134
C	-1.1592651689	-2.0570208456	 0.5254409844	-0.056725
C	-0.2363960522	-2.2406615038	-0.7047718478	-0.215513
C	-0.4927938146	-0.8062925469	-1.2256036769	-0.132786
C	-2.0171030672	-0.7751414362	-1.1936011602	-0.074632
C	-2.4108998542	-1.5203509707	-0.1566085912	-0.075636
H	-0.2647120116	 2.0295459654	 0.9137915181	 0.106521
H	-0.2796254517	 2.0319691738	-0.9068661092	 0.104951
H	 1.886133017	 0.7224230973	-0.9303140639	 0.106165
H	 1.9063719794	 0.7195527904	 0.8913900614	 0.106497
H	 0.3781614638	-1.1518429591	 1.8225614862	 0.094809
H	-1.1666450738	-0.2892344945	 1.8690785912	 0.096914
H	-1.2977069453	-2.9176954602	 1.1806325565	 0.056776
H	 0.8106082861	-2.4240788923	-0.4419573322	 0.089969
H	-0.5916198862	-3.0144253061	-1.3897222461	 0.091925
H	-0.0199255008	-0.5161928233	-2.1652019439	 0.051754
H	-2.6347835669	-0.1608602392	-1.836557665	 0.090379
H	-3.4176494192	-1.640585627	 0.2241547468	 0.089478
120.875	250.0656	290.3978	372.542	403.6853	480.4741	499.7873	553.9123	718.6517	742.0999	775.8055	781.9064	830.5662	844.7845	880.7019	906.1829	913.8349	917.1211	946.1556	948.6598	963.3488	975.8949	979.7317	1030.1103	1050.819	1056.6395	1077.9939	1122.302	1130.1733	1168.1355	1181.5633	1185.9364	1203.2992	1258.5068	1273.6863	1283.43	1297.7291	1306.3381	1358.4766	1377.0591	1467.3859	1486.5379	1500.9709	1505.5005	1643.9785	3040.018	3049.7174	3086.1612	3100.2749	3106.9241	3111.077	3116.584	3121.0702	3193.1623	3194.8088	3208.4281	3220.906
C1CC11CC2CC1C=C2	C1CC21C[C@@H]1C[C@H]2C=C1	
InChI=1S/C9H12/c1-2-8-5-7(1)6-9(8)3-4-9/h1-2,7-8H,3-6H2	InChI=1S/C9H12/c1-2-8-5-7(1)6-9(8)3-4-9/h1-2,7-8H,3-6H2/t7-,8+/m0/s1
