16
gdb 32139	2.97399	1.41875	0.96675	1.7261	76.16	-0.2182	-0.0089	0.2093	1169.6825	0.126633	-434.140286	-434.132267	-434.131323	-434.172803	30.09	
C	-0.0180647602	 1.4071463229	 0.0133172839	-0.232325
O	 0.0017858276	-0.0199098118	-0.0362491017	-0.26118
C	 0.6213458819	-0.5927509028	-1.0778905216	 0.455957
C	 0.6462161885	-1.9946593442	-1.1271301944	-0.250959
C	 1.2863691264	-2.5349331842	-2.2250882837	 0.018466
N	 1.8599067937	-1.8051574096	-3.1893152764	-0.332066
C	 1.7782907164	-0.4800356665	-3.0219431901	 0.4281
N	 2.3944440295	 0.3010351894	-3.957652438	-0.552702
N	 1.1748262135	 0.1692151098	-2.0075049704	-0.409112
H	 0.9963880907	 1.8137579663	 0.0435435764	 0.136518
H	-0.5344738198	 1.8238392438	-0.8557843701	 0.133434
H	-0.5550626017	 1.6577249991	 0.9290149365	 0.129656
H	 0.1846042193	-2.5937522495	-0.3552425826	 0.105135
H	 1.3460770866	-3.6142037281	-2.3484450972	 0.110608
H	 2.6393669487	-0.1482030907	-4.8239013716	 0.262023
H	 2.1334768289	 1.271872426	-3.986603259	 0.258447
112.179	160.8646	203.0915	215.8429	245.5259	386.6027	397.309	470.1703	479.8157	513.1148	601.6676	612.5994	729.8879	775.9321	815.3272	831.0294	985.6343	1003.5533	1004.7108	1051.9876	1090.2522	1143.8927	1177.8886	1219.637	1298.4586	1326.2548	1379.2973	1450.7369	1480.0443	1481.0247	1499.656	1520.1668	1608.711	1623.6632	1642.3508	3044.8406	3117.013	3148.7648	3153.0851	3232.6584	3610.2683	3739.7719
COC1=CC=NC(N)=N1	COc1ccnc(N)n1	
InChI=1S/C5H7N3O/c1-9-4-2-3-7-5(6)8-4/h2-3H,1H3,(H2,6,7,8)	InChI=1S/C5H7N3O/c1-9-4-2-3-7-5(6)8-4/h2-3H,1H3,(H2,6,7,8)
