18
gdb 108446	2.27568	1.77379	1.2432	1.9841	73.04	-0.2485	0.0208	0.2693	1057.8738	0.147207	-439.05549	-439.047079	-439.046135	-439.088615	31.334	
C	-0.0419495719	 1.3878708777	-0.0184418739	-0.275508
O	-0.0355500746	-0.0366528339	-0.0637535859	-0.291565
C	 0.6733350631	-0.5523395857	-1.1302601965	 0.316412
C	 0.0678471993	-0.4736007114	-2.5736340398	-0.305022
C	 0.2839359256	-2.0127332888	-2.7388828817	-0.236504
C	 0.8991415902	-2.0762234736	-1.3284684543	 0.032922
O	 2.3465755182	-1.8481577264	-1.360614861	-0.270113
C	 2.1960691923	-0.4946747715	-1.121099528	 0.383746
N	 3.0518954151	 0.4050159467	-0.9456770745	-0.558499
H	 0.9758373667	 1.78560339	 0.0542870476	 0.154898
H	-0.5313240868	 1.8134089798	-0.9058790619	 0.110833
H	-0.6133904222	 1.6663346217	 0.8689359537	 0.129019
H	-0.9886094497	-0.2005878747	-2.5308194714	 0.119868
H	 0.5814677188	 0.1803679696	-3.279752738	 0.119119
H	-0.649002558	-2.5730826363	-2.8301374712	 0.116324
H	 0.967454782	-2.3273441347	-3.5290030645	 0.122246
H	 0.6300485382	-2.8522830009	-0.6141978951	 0.102964
H	 4.0029114136	 0.0334181423	-0.9901496436	 0.228859
100.2675	115.6329	156.8265	184.8023	232.6965	306.854	334.5268	423.8159	492.042	598.7121	677.8212	716.8284	746.5672	824.3441	866.7738	875.4017	916.5868	953.8678	976.0778	1006.4755	1040.9213	1080.181	1109.2008	1138.5471	1184.3237	1185.8492	1212.9133	1225.6757	1240.3714	1247.9102	1275.4839	1315.7239	1361.0245	1462.6819	1478.0111	1486.6057	1488.3157	1511.9277	1818.0037	3003.4435	3073.668	3079.2118	3081.6819	3126.1567	3134.1181	3137.3721	3143.6836	3466.644
COC12CCC1OC2=N	CO[C@]12CC[C@H]1O[C]2[NH]	
InChI=1S/C6H9NO2/c1-8-6-3-2-4(6)9-5(6)7/h4,7H,2-3H2,1H3	InChI=1S/C6H9NO2/c1-8-6-3-2-4(6)9-5(6)7/h4,7H,2-3H2,1H3/t4-,6-/m1/s1
