17
gdb 127877	2.68567	1.63502	1.02922	1.829	83.78	-0.2107	-0.0709	0.1399	1137.2766	0.136728	-414.189067	-414.180524	-414.17958	-414.222811	30.609	
C	 0.0610305986	 1.4305620406	 0.0518239097	-0.327677
N	 0.0021547199	-0.0180286661	 0.0648493271	-0.343889
C	-1.1288754273	-0.6002474996	 0.0087601544	 0.471359
N	-2.3819145844	 0.0082203317	-0.0674772939	-0.306006
C	-3.4296532455	-0.7482200569	-0.1169993803	 0.000894
C	-3.3607895183	-2.174452235	-0.0971533829	-0.045446
N	-2.2050147114	-2.7784961158	-0.0263550799	-0.157639
N	-1.1215675822	-2.024981126	 0.0251818201	-0.042371
C	 0.1575783416	-2.7148266023	 0.1037784729	-0.306551
H	 0.670635349	 1.7600197468	-0.7987341671	 0.116428
H	-0.9179266412	 1.9179563513	-0.00746062	 0.127949
H	 0.5741577543	 1.7797056856	 0.9564821252	 0.116425
H	-4.4024337301	-0.2584035847	-0.1763824195	 0.123041
H	-4.2399965555	-2.8046491451	-0.1387648196	 0.127178
H	-0.0491824377	-3.783885468	 0.1043328911	 0.141576
H	 0.783411045	-2.4338503752	-0.7471249491	 0.152365
H	 0.6859726753	-2.4140926812	 1.0120790017	 0.152364
58.8817	90.0851	173.4058	186.2936	231.542	269.9346	356.4392	401.1939	523.0024	552.6793	565.3226	609.5114	763.3792	780.588	838.1997	904.9878	988.6722	1007.2438	1054.6533	1078.2743	1125.6438	1135.0257	1149.3221	1178.5024	1272.1684	1297.5037	1408.9168	1413.357	1433.9972	1443.3347	1463.3262	1493.3805	1498.0741	1506.5222	1543.4684	1656.5093	1724.9416	3010.1724	3055.6869	3058.7632	3088.4236	3118.0936	3120.5995	3173.5743	3213.1308
CN=C1N=CC=NN1C	C[N]c1nccnn1C	
InChI=1S/C5H8N4/c1-6-5-7-3-4-8-9(5)2/h3-4H,1-2H3	InChI=1S/C5H13N4/c1-6-5-7-3-4-8-9(5)2/h5,7-8H,3-4H2,1-2H3
