17
gdb 83514	2.23192	1.94787	1.4956	2.5428	68.59	-0.2252	0.0244	0.2497	945.5461	0.138418	-455.139387	-455.131907	-455.130963	-455.170815	30.059	
N	-0.0160941899	 1.364476671	 0.068763163	-0.614001
C	-0.0278605266	-0.0021063419	 0.0402546548	 0.430322
N	-1.0802123088	-0.7416829082	 0.0152240408	-0.278833
C	-0.5461570233	-2.1228941277	-0.0064056471	-0.04389
C	 0.117799332	-2.3084577594	-1.3858916004	-0.082039
O	 1.2810218261	-1.447479663	-1.3055266228	-0.281155
C	 1.2334330892	-0.8565527067	 0.0095313548	-0.066869
C	 0.7314607944	-2.0418238822	 0.8658169852	 0.129482
O	 0.4283551487	-1.7783502231	 2.2108396833	-0.431805
H	 0.7986281822	 1.8226090648	-0.3070993494	 0.256995
H	-0.8925613879	 1.8079345303	-0.168354669	 0.258472
H	-1.2893632762	-2.8701431358	 0.2672996661	 0.079981
H	 0.4452022211	-3.337071263	-1.5783597705	 0.100072
H	-0.5376728686	-1.9739001322	-2.1960942662	 0.110639
H	 2.1980129946	-0.396602515	 0.2270580057	 0.072115
H	 1.389679464	-2.9138377718	 0.7514456157	 0.073797
H	 1.2554284089	-1.6984682462	 2.695702136	 0.286718
153.6919	257.2481	270.9927	288.3108	308.4092	384.6913	392.8456	437.0551	526.4871	576.1137	641.7976	701.8588	751.7155	817.6117	880.7139	905.3519	921.391	945.3693	965.7605	996.661	1028.4991	1057.2512	1122.5587	1149.8453	1192.4335	1203.8274	1220.4463	1260.3055	1269.7837	1295.4207	1319.9768	1355.1194	1427.8686	1441.3006	1513.6881	1622.6021	1698.2309	3015.8736	3028.1734	3080.294	3117.4004	3133.8422	3568.5473	3687.1972	3823.963
NC1=NC2COC1C2O	N[C]1[N][C@H]2CO[C@@H]1[C@H]2O	
InChI=1S/C5H8N2O2/c6-5-4-3(8)2(7-5)1-9-4/h2-4,8H,1H2,(H2,6,7)	InChI=1S/C5H8N2O2/c6-5-4-3(8)2(7-5)1-9-4/h2-4,8H,1H2,(H2,6,7)/t2-,3-,4+/m0/s1
