18
gdb 79169	2.55846	1.92825	1.47143	2.2889	74.14	-0.2293	-0.0161	0.2133	944.9655	0.148887	-401.931096	-401.923771	-401.922827	-401.962703	29.052	
C	-0.3873760857	 1.5193349326	 0.0828477711	-0.40313
C	 0.0232510208	 0.0528401185	-0.010793463	-0.066714
N	 0.6952812206	-0.3217727733	-1.264625746	-0.101306
C	 2.0926053302	 0.0927497033	-1.4795606725	-0.04382
C	 2.8601621139	 0.3980292037	-0.1869332391	-0.259061
C	 2.2219647485	-0.8966145257	 0.4422309877	-0.172289
C	 1.7581915073	-1.2821735149	-0.9927480584	-0.06683
C	 0.955068736	-0.4180354078	 1.1285098592	 0.410294
O	 0.7178648057	-0.3664990921	 2.3070964064	-0.333359
H	 0.4704960462	 2.1861762932	-0.042037285	 0.123265
H	-1.1207627161	 1.7614738392	-0.6908185505	 0.129045
H	-0.8317180847	 1.7109517627	 1.0632537687	 0.141054
H	-0.8805857444	-0.5687287088	 0.0497739791	 0.112903
H	 2.3502481036	 0.4387673106	-2.4737561782	 0.099819
H	 3.9334779567	 0.2556799885	-0.3324631067	 0.122188
H	 2.6938920411	 1.3531135811	 0.3211091565	 0.112976
H	 2.8647511029	-1.5414542134	 1.0351076218	 0.094134
H	 1.7769425773	-2.2539366873	-1.4706247212	 0.100834
112.6822	187.7271	214.4881	231.2322	344.3489	456.3107	487.5353	581.9575	648.8336	714.6176	733.7129	768.6022	822.1412	849.8373	872.0251	911.0686	941.2178	948.9669	989.5724	997.9041	1031.6874	1085.6122	1102.8768	1117.9313	1123.5411	1172.6967	1193.4577	1220.0094	1232.2037	1265.721	1280.7437	1291.4608	1329.5668	1361.8654	1400.9614	1487.184	1491.2956	1501.552	1847.4332	3017.2412	3046.3578	3050.762	3108.6806	3120.7043	3127.6444	3158.9009	3178.142	3192.6212
CC1N2C3CC(C23)C1=O	C[C@H]1N2[C@H]3C[C@H]([C@@H]23)C1=O	
InChI=1S/C7H9NO/c1-3-7(9)4-2-5-6(4)8(3)5/h3-6H,2H2,1H3	InChI=1S/C7H9NO/c1-3-7(9)4-2-5-6(4)8(3)5/h3-6H,2H2,1H3/t3-,4-,5+,6-,8?/m1/s1
