19
gdb 74411	2.63537	1.55956	1.18641	1.6253	76.74	-0.2134	0.0562	0.2696	1108.2128	0.158932	-419.230099	-419.221277	-419.220333	-419.2628	34.455	
C	-0.1145930266	 1.4987435137	-0.1026659592	-0.473858
C	-0.0039764723	 0.0124544999	 0.0585032743	 0.361826
C	 1.2343921121	-0.7946447414	-0.2422644271	-0.38827
C	 0.6516211292	-0.8008783434	 1.1653877679	 0.287019
C	 1.4169516978	-0.2563099171	 2.3417029151	-0.467344
N	-0.2621945726	-1.89098214	 1.4436812969	-0.384273
C	-1.2366661894	-1.7444658712	 0.6279990716	 0.432618
N	-2.2941989282	-2.5959567349	 0.4440870489	-0.581899
O	-1.2342642362	-0.6689802499	-0.2094189483	-0.278178
H	 0.825458485	 1.9790936852	 0.1810513731	 0.125533
H	-0.3282936985	 1.7684195152	-1.1426826227	 0.129617
H	-0.912799544	 1.9039909515	 0.5274327133	 0.125317
H	 1.1447542121	-1.6939226844	-0.8431852438	 0.117502
H	 2.1442365338	-0.2231695433	-0.3986996604	 0.10876
H	 2.0277610032	 0.6051650736	 2.0557179709	 0.108275
H	 0.7362148401	 0.0510896303	 3.1420583787	 0.119433
H	 2.0842560172	-1.0242795254	 2.7461226722	 0.130199
H	-2.4305243043	-3.2360663073	 1.2115955647	 0.267052
H	-3.1395684986	-2.1568532711	 0.1110595738	 0.26067
166.2505	176.9748	189.9086	201.4989	209.2178	293.8595	359.9697	377.6392	447.2691	476.4559	486.0142	581.4392	587.1158	638.123	717.028	746.4423	787.1361	871.5373	921.2597	940.3198	962.8969	964.0171	1008.8726	1040.1888	1103.6798	1113.0369	1148.4865	1187.5781	1227.0653	1310.2214	1378.9024	1412.7396	1415.5569	1429.8762	1472.8589	1475.0801	1483.4085	1495.6648	1506.405	1614.3273	1733.1702	3033.8554	3036.1264	3097.5766	3101.4227	3109.1505	3118.7001	3122.3362	3212.6921	3579.5186	3692.3977
CC12CC1(C)N=C(N)O2	C[C@@]12C[C@]1(C)N=C(N)O2	
InChI=1S/C6H10N2O/c1-5-3-6(5,2)9-4(7)8-5/h3H2,1-2H3,(H2,7,8)	InChI=1S/C6H10N2O/c1-5-3-6(5,2)9-4(7)8-5/h3H2,1-2H3,(H2,7,8)/t5-,6+/m0/s1
