18
gdb 124622	4.35503	0.92181	0.85012	1.2625	76.91	-0.214	-0.0179	0.1961	1393.7541	0.147014	-431.419512	-431.410139	-431.409195	-431.45438	33.52	
C	-0.0663674925	 1.3146667632	-0.1502572973	-0.371617
C	 0.0797858197	-0.187022002	 0.1451443351	 0.056483
C	 0.7641931696	-0.4218555396	 1.4943754784	-0.371423
N	-1.2271781913	-0.8373798095	 0.1665609003	-0.36758
C	-1.7093103494	-1.2667930458	-0.9254266978	 0.53778
N	-1.2694505355	-1.28668068	-2.2473904334	-0.316108
N	-2.1566201249	-1.9158221716	-3.07744438	-0.083973
N	-3.1476247132	-2.2819028638	-2.3822738613	-0.062871
N	-2.9310851626	-1.9035014192	-1.0970252384	-0.316533
H	 0.9082336457	 1.814330403	-0.1437732214	 0.1089
H	-0.5304914101	 1.4872107977	-1.127234682	 0.101896
H	-0.7015549037	 1.7840963297	 0.6074556887	 0.125927
H	 0.7310503491	-0.6269817887	-0.634475764	 0.04209
H	 0.1570661004	 0.0024478218	 2.3003863143	 0.120833
H	 0.8768772472	-1.4923086523	 1.6873327399	 0.113244
H	 1.7548672039	 0.043628074	 1.52075832	 0.102405
H	-0.404421289	-0.9411230352	-2.6204609504	 0.290128
H	-3.5928402636	-2.1319694813	-0.3762518307	 0.290421
38.0294	107.9615	131.9988	150.3503	226.0529	259.3201	315.7607	326.2762	391.4737	428.9346	466.689	499.681	702.2358	718.8917	747.6864	848.1521	925.4028	950.3985	971.0319	990.7816	1019.6369	1038.203	1109.0906	1137.3216	1153.5387	1194.7862	1292.1381	1343.7914	1370.0849	1373.832	1392.4487	1400.7751	1415.6734	1481.1505	1486.1047	1496.075	1508.0286	1522.871	1786.5408	2901.7507	3028.6599	3036.9857	3096.1768	3106.0875	3111.7735	3115.3936	3700.1547	3715.7174
CC(C)N=C1NN=NN1	CC(C)N=c1[nH]nn[nH]1	
InChI=1S/C4H9N5/c1-3(2)5-4-6-8-9-7-4/h3H,1-2H3,(H2,5,6,7,8,9)	InChI=1S/C4H9N5/c1-3(2)5-4-6-8-9-7-4/h3H,1-2H3,(H2,5,6,7,8,9)
