20
gdb 85524	2.47056	1.58127	1.14249	3.9201	78.17	-0.2288	0.0375	0.2663	1120.5852	0.173244	-403.183594	-403.175379	-403.174435	-403.216549	32.326	
C	-0.3017277552	 1.5333857329	-0.066468487	-0.383783
C	 0.0266411231	 0.0352819595	 0.0290865434	 0.004115
N	 0.7597616057	-0.4363048903	-1.1496593371	-0.298454
C	 2.1166102095	-0.4390818122	-1.3152446161	 0.390047
O	 2.6397391667	-0.7062700463	-2.3819979371	-0.379558
C	 2.925222561	-0.0700785961	-0.0729512146	-0.349642
C	 2.2732608866	-0.4806769763	 1.2406299	-0.017536
C	 1.619757365	 0.5484267076	 2.1244018107	-0.302155
C	 0.7673304713	-0.3874324797	 1.3026859336	-0.027308
H	 0.6050571861	 2.1426646477	-0.1229423538	 0.122568
H	-0.890036748	 1.7345192289	-0.9673894696	 0.114439
H	-0.8814595347	 1.858402006	 0.8030302951	 0.122167
H	-0.9271071232	-0.5038295099	 0.0233318983	 0.091047
H	 0.2426726312	-0.5891241663	-2.0036058746	 0.242146
H	 3.9093185698	-0.5255130503	-0.1954673412	 0.133959
H	 3.0845353794	 1.0155998373	-0.1073986492	 0.124795
H	 2.7272028712	-1.3358869317	 1.729911075	 0.093729
H	 1.6347829974	 0.3974888365	 3.1981726581	 0.11398
H	 1.6951102636	 1.5884864938	 1.8249696012	 0.113467
H	 0.2626106934	-1.170561881	 1.8579357349	 0.091976
66.6894	93.0676	234.5521	271.502	329.4695	404.203	430.838	452.3687	483.6983	519.3509	546.8757	646.1905	712.2848	738.0554	822.9411	865.6783	879.1594	905.9086	935.9156	995.2994	1007.8828	1052.1498	1059.1876	1073.0745	1112.5806	1133.1862	1143.7866	1165.8982	1230.8952	1252.3725	1303.8383	1309.1234	1355.2025	1374.2884	1389.8013	1403.675	1416.629	1462.765	1470.8206	1486.2429	1499.2724	1504.6606	1789.139	3030.4818	3034.1215	3036.7549	3107.6047	3115.6252	3116.8274	3132.6241	3153.9524	3163.4717	3216.1304	3607.3997
CC1NC(=O)CC2CC12	C[C@H]1NC(=O)C[C@H]2C[C@@H]12	
InChI=1S/C7H11NO/c1-4-6-2-5(6)3-7(9)8-4/h4-6H,2-3H2,1H3,(H,8,9)	InChI=1S/C7H11NO/c1-4-6-2-5(6)3-7(9)8-4/h4-6H,2-3H2,1H3,(H,8,9)/t4-,5-,6+/m1/s1
