16
gdb 84755	2.07495	1.95901	1.1917	4.6741	67.16	-0.2365	-0.0268	0.2097	1020.8524	0.125253	-475.057612	-475.049429	-475.048485	-475.090314	31.218	
O	-0.0252371998	 1.4020376037	-0.2267631878	-0.44426
C	-0.0122550451	-0.0245738162	-0.036575689	 0.04321
C	 0.7650355884	-0.4374382605	 1.178756455	-0.18347
C	 0.1300331523	-0.6551687644	 2.3366229542	 0.026663
N	-1.2538554902	-0.5668702993	 2.470413464	-0.332389
C	-2.1105089461	-0.2973376543	 1.4104771505	 0.342885
O	-3.2569522399	 0.0385376764	 1.5861722039	-0.335567
C	-1.4650327633	-0.5401543404	 0.0308674638	-0.002794
O	-2.2396230139	-0.0263623131	-1.0112769726	-0.410579
H	 0.0001981661	 1.8112197181	 0.6455359315	 0.287767
H	 0.4340603673	-0.421995411	-0.9530096762	 0.105417
H	 1.8442960287	-0.5042533481	 1.1314029679	 0.106652
H	 0.654403666	-0.9103085671	 3.2508960023	 0.126983
H	-1.6651934496	-0.4951726857	 3.3898083234	 0.258406
H	-1.4350882383	-1.6330961561	-0.0879441473	 0.120929
H	-2.0372480627	 0.9183972983	-1.0473632737	 0.290147
84.3896	124.2551	230.4161	264.0416	308.6505	316.2538	439.9342	463.7989	479.2073	517.0891	564.6095	592.9589	635.312	689.2391	759.1551	822.6319	883.4475	930.2531	964.6019	1018.6204	1068.5004	1109.1319	1141.7858	1171.9578	1233.5151	1258.6475	1285.1739	1300.9919	1385.6994	1405.8171	1423.2878	1433.4188	1464.4517	1707.713	1825.6792	3016.4547	3069.285	3192.6835	3218.2061	3612.3096	3761.8432	3804.2352
OC1C=CNC(=O)C1O	O[C@H]1C=CNC(=O)[C@H]1O	
InChI=1S/C5H7NO3/c7-3-1-2-6-5(9)4(3)8/h1-4,7-8H,(H,6,9)	InChI=1S/C5H7NO3/c7-3-1-2-6-5(9)4(3)8/h1-4,7-8H,(H,6,9)/t3-,4-/m0/s1
