20
gdb 90673	4.09153	1.06378	1.05205	1.0032	79.15	-0.2282	0.0683	0.2965	1234.2776	0.171416	-403.083537	-403.075382	-403.074437	-403.116244	32.08	
O	 0.1246280125	 1.1939468032	-0.4662298406	-0.436407
C	 0.022820684	-0.169799046	-0.1309633376	 0.156406
C	 0.2134412746	-0.5135950267	 1.3706399376	-0.219854
N	-1.2244630177	-0.9476446504	 1.5270748442	-0.195225
C	-1.4003194276	-0.7136289487	 0.023656626	-0.195783
C	-1.4069913839	-2.0685370407	 0.604319488	 0.397551
C	-0.4836706216	-3.2592766515	 0.2959378388	-0.30635
C	-1.7642046499	-4.0963452883	-0.000530938	-0.215778
C	-2.6285103832	-2.9901100358	 0.6719739679	-0.310602
H	-0.4401349513	 1.6924847963	 0.1356674663	 0.282969
H	 0.6633388764	-0.6924144691	-0.8478536191	 0.091647
H	 0.9439135348	-1.2859559588	 1.6334441227	 0.104799
H	 0.4073901385	 0.3792582302	 1.9711904337	 0.106846
H	-2.2893563884	-0.2438600759	-0.390548001	 0.093195
H	 0.2400502735	-3.1482949868	-0.5153725743	 0.106098
H	 0.0425084721	-3.6103745434	 1.1894523573	 0.110929
H	-1.9598304414	-4.1823800871	-1.0717668809	 0.10817
H	-1.8092733412	-5.0922704939	 0.4433144355	 0.103736
H	-2.8896539332	-3.2254607605	 1.7075234902	 0.114177
H	-3.5302170872	-2.6660272061	 0.1469357531	 0.103474
87.7823	122.5755	200.7097	227.4579	295.2582	359.5524	418.9308	443.7772	489.2572	564.6748	705.1307	748.4645	781.7149	815.8881	858.3409	876.3775	897.3858	934.6245	946.6444	970.938	997.6473	1031.8711	1046.5724	1052.5825	1112.1818	1122.8398	1139.636	1175.518	1206.5506	1224.8898	1239.842	1251.9748	1258.0083	1274.211	1281.0512	1288.7071	1317.6813	1429.1375	1436.923	1472.8161	1481.1702	1491.2806	1506.0946	3042.437	3049.3493	3059.8148	3061.1684	3071.9142	3099.3146	3103.3576	3108.7409	3129.5817	3141.2675	3791.491
OC1CN2C1C21CCC1	O[C@H]1CN2[C@@H]1C12CCC1	
InChI=1S/C7H11NO/c9-5-4-8-6(5)7(8)2-1-3-7/h5-6,9H,1-4H2	InChI=1S/C7H11NO/c9-5-4-8-6(5)7(8)2-1-3-7/h5-6,9H,1-4H2/t5-,6-,8?/m0/s1
