16
gdb 13122	4.48076	1.18811	1.03102	3.6624	61.41	-0.2656	0.0063	0.2719	1126.5124	0.129854	-420.884679	-420.876509	-420.875565	-420.918432	27.932	
C	-0.6279307939	 0.849528008	-0.0905454901	-0.242906
O	 0.096032214	 0.4272833871	-1.2263834332	-0.228602
C	 1.2717059956	-0.2961095692	-0.9321282088	-0.085308
C	 0.9931630904	-1.7622056755	-0.594396165	-0.21534
C	 0.5690645515	-2.6857549028	-1.7489852586	-0.083956
O	 1.8037739203	-3.4628042005	-1.5923832643	-0.238345
C	 2.2274928197	-2.6717448553	-0.5552581492	 0.448428
O	 3.2380609043	-2.7571048542	 0.0642860639	-0.32258
H	-1.0312212918	 0.0085557759	 0.4929833598	 0.107618
H	-0.0068019589	 1.4660345399	 0.5765698778	 0.113919
H	-1.4652631141	 1.4509978756	-0.4515145772	 0.135819
H	 1.8955033806	-0.2399350796	-1.831037578	 0.119996
H	 1.831522256	 0.1689769426	-0.1067677767	 0.11269
H	 0.3818620097	-1.8531394921	 0.3067757817	 0.116034
H	-0.3057323197	-3.3157148238	-1.579794254	 0.128065
H	 0.5253157664	-2.2211307762	-2.736052848	 0.134468
49.9507	95.9086	135.5011	150.5127	202.4711	281.2187	399.4964	442.7682	562.8854	673.1795	740.5157	870.4102	912.6495	940.0376	956.7509	974.0941	1098.9901	1116.2255	1125.7114	1149.8553	1163.2733	1182.2447	1212.0085	1225.3744	1302.8976	1333.7257	1360.1854	1409.872	1476.4469	1490.3157	1494.4436	1508.7936	1519.1208	1934.4449	2980.9849	2998.253	3030.1889	3066.8559	3078.1276	3092.4338	3120.1984	3139.8873
COCC1COC1=O	COC[C@H]1COC1=O	
InChI=1S/C5H8O3/c1-7-2-4-3-8-5(4)6/h4H,2-3H2,1H3	InChI=1S/C5H8O3/c1-7-2-4-3-8-5(4)6/h4H,2-3H2,1H3/t4-/m0/s1
