17
gdb 46741	2.76669	1.83758	1.37738	3.9143	70.74	-0.2332	-0.0352	0.198	945.7497	0.137702	-417.959316	-417.952149	-417.951205	-417.991283	28.016	
O	-0.0194579366	-0.0295293871	-0.2339544408	-0.295666
C	-0.0297373368	 1.1480468014	 0.0031216783	 0.380992
C	-1.2796965026	 2.0056982273	 0.2529124499	-0.265139
N	-0.7933370616	 3.194360015	 0.9557611207	-0.31424
C	 0.6295156982	 3.4001908843	 0.6732765467	-0.040902
C	 1.6304106341	 3.1936328682	 1.8303576633	-0.01447
C	 1.4294407009	 1.8911784486	 2.4813325365	-0.247692
N	 2.1833094506	 1.9095779121	 1.2084149495	-0.141634
C	 1.1741677339	 2.0882783715	 0.0915609996	-0.08437
H	-1.7405208932	 2.2114802302	-0.7297275825	 0.116598
H	-2.01148869	 1.4402267728	 0.840494524	 0.133861
H	-1.3591479447	 4.0139465093	 0.7911031106	 0.228721
H	 0.834463799	 4.3008990207	 0.0876910674	 0.077567
H	 2.2984335099	 3.9537370984	 2.2217540304	 0.097818
H	 2.0697051265	 1.6509360493	 3.3239664337	 0.127618
H	 0.436296859	 1.4539879187	 2.5316754754	 0.129453
H	 1.6947835135	 2.1388114594	-0.8667766525	 0.111485
77.8203	104.1577	225.0134	353.3323	450.7958	492.1096	526.8893	579.0531	601.8399	724.8188	738.2478	766.9647	795.5275	833.1968	913.498	942.0782	951.2543	999.3214	1018.4899	1045.469	1055.2708	1103.3637	1122.9659	1147.328	1149.7895	1197.837	1213.1181	1223.177	1246.7427	1276.1729	1288.3655	1356.3169	1377.0771	1443.544	1492.9265	1509.0198	1855.9057	2947.7464	3056.9189	3058.6865	3094.8146	3121.95	3166.5443	3208.6648	3590.0949
O=C1CNC2C3CN3C12	O=C1CN[C@H]2[C@H]3CN3[C@@H]12	
InChI=1S/C6H8N2O/c9-4-1-7-5-3-2-8(3)6(4)5/h3,5-7H,1-2H2	InChI=1S/C6H8N2O/c9-4-1-7-5-3-2-8(3)6(4)5/h3,5-7H,1-2H2/t3-,5+,6+,8?/m1/s1
