23
gdb 89411	2.64604	1.40509	1.07982	1.4316	85.02	-0.2507	0.066	0.3167	1226.6108	0.205972	-388.29668	-388.287412	-388.286468	-388.330045	36.751	
C	-0.004188435	 1.5794056159	-0.0136610372	-0.435957
C	 0.0929460107	 0.0552901511	 0.0034222801	 0.04175
C	 0.7859923557	-0.5721027066	-1.2297194437	-0.305127
C	 1.2496936736	-1.960836662	-0.7649141563	 0.370737
C	 0.7760820869	-3.1733716212	-1.531427919	-0.489534
C	 2.568371777	-1.9925573514	-0.0396410673	-0.317801
C	 1.2852809926	-1.9243298076	 0.7556111572	-0.083072
C	 0.8365115171	-0.5463534964	 1.2304091737	 0.071608
O	 1.9778478626	 0.2150465786	 1.6251464764	-0.430778
H	 0.9912424808	 2.0341064331	-0.0547547525	 0.120988
H	-0.5618522016	 1.9291724958	-0.8882828938	 0.11735
H	-0.5209535514	 1.9631293948	 0.8747994265	 0.1051
H	-0.9231468574	-0.3607268085	 0.0461702402	 0.069619
H	 0.0991804322	-0.6417877186	-2.079374531	 0.092125
H	 1.6317836146	 0.0451045741	-1.5557607086	 0.099291
H	 1.183874423	-3.18699945	-2.5494030327	 0.115313
H	 1.0896221503	-4.1002648721	-1.0397125093	 0.111704
H	-0.31748602	-3.1930861605	-1.6140864251	 0.110127
H	 3.1063720185	-2.9352697097	-0.0159717246	 0.098732
H	 3.2008467303	-1.1125180231	-0.0502423423	 0.123724
H	 0.9977485905	-2.7903309922	 1.3416588583	 0.075537
H	 0.1492667312	-0.6394873662	 2.0839008561	 0.057588
H	 1.6653791977	 1.0675368226	 1.943989555	 0.280975
79.8646	162.4144	220.059	231.2006	253.9242	273.454	320.599	333.4964	373.1131	398.9356	477.8018	529.5545	570.0297	676.6601	742.3673	794.796	845.8572	864.529	910.5073	930.3552	947.2862	967.4603	983.479	1006.2885	1055.3856	1061.3995	1071.7566	1099.7128	1109.3378	1140.5597	1171.8551	1191.7963	1229.5792	1276.6936	1289.8751	1313.0757	1323.9221	1343.4659	1372.8049	1401.5906	1404.25	1419.5498	1424.9475	1485.7324	1489.1914	1498.3163	1500.5201	1506.1594	1508.2804	2985.0494	3010.2849	3016.2918	3022.9779	3031.4337	3073.5867	3075.5291	3086.669	3092.5025	3101.8335	3128.256	3164.0799	3219.4365	3819.4385
CC1CC2(C)CC2C1O	C[C@H]1C[C@@]2(C)C[C@H]2[C@H]1O	
InChI=1S/C8H14O/c1-5-3-8(2)4-6(8)7(5)9/h5-7,9H,3-4H2,1-2H3	InChI=1S/C8H14O/c1-5-3-8(2)4-6(8)7(5)9/h5-7,9H,3-4H2,1-2H3/t5-,6-,7-,8-/m0/s1
