16
gdb 15696	3.51308	1.7633	1.24338	1.1761	61.24	-0.231	-0.0342	0.1968	954.4929	0.129572	-420.875227	-420.867356	-420.866412	-420.907894	27.924	
C	-0.060062209	 1.4441736311	 0.0694266329	-0.248285
O	-0.0238355134	 0.0471356367	-0.1833351645	-0.242229
C	-1.2522019433	-0.6030877383	-0.015203812	 0.012693
C	-1.2197846637	-2.0127345743	-0.614318925	-0.123427
O	-2.1899183508	-2.7539741011	 0.1232675279	-0.250149
C	-2.0974334711	-2.3584297838	 1.480240157	-0.180718
C	-1.6053169041	-0.9123908478	 1.4575471036	 0.351895
O	-1.4698457163	-0.1790045572	 2.4009940721	-0.299743
H	 0.9400265404	 1.8256354643	-0.147686086	 0.129527
H	-0.7842003961	 1.9447968952	-0.5917962425	 0.10507
H	-0.3177540231	 1.6602066296	 1.1106854125	 0.145507
H	-2.0827289055	-0.021732946	-0.4523768032	 0.095571
H	-1.5000296494	-2.0558188999	-1.6675157537	 0.123195
H	-0.2073492046	-2.4284487134	-0.4944480969	 0.112494
H	-3.0763266842	-2.4554151538	 1.9584625489	 0.141774
H	-1.3755375759	-2.9716315312	 2.0456171091	 0.126825
69.1488	120.4596	186.7036	198.6865	252.5361	302.8278	405.5325	454.7588	577.4309	601.1021	661.9213	736.0772	931.6539	958.7803	993.0794	1042.0246	1092.6231	1099.0837	1138.3643	1179.0381	1182.2583	1204.7954	1233.2732	1248.6763	1286.6531	1311.9859	1346.2886	1395.4945	1473.2937	1478.3053	1483.931	1513.9055	1517.0027	1857.2042	2955.221	2972.2356	2988.8559	2997.0836	3083.5205	3090.3524	3122.911	3130.514
COC1COCC1=O	CO[C@H]1COCC1=O	
InChI=1S/C5H8O3/c1-7-5-3-8-2-4(5)6/h5H,2-3H2,1H3	InChI=1S/C5H8O3/c1-7-5-3-8-2-4(5)6/h5H,2-3H2,1H3/t5-/m0/s1
