18
gdb 23260	2.81044	1.49074	1.05695	0.8092	83.95	-0.2138	-0.0268	0.187	1139.5162	0.147932	-401.914877	-401.906725	-401.905781	-401.947218	31.991	
C	 0.0484207601	 1.5388928628	-0.0501392799	-0.488164
C	-0.0174218199	 0.0419010368	 0.0000989446	 0.220728
C	-0.0967325958	-0.7801082479	-1.0652450457	-0.15918
C	-0.0487884829	-2.221997254	-0.6973646025	-0.090135
C	 1.2473212218	-2.668173817	-0.0496140354	-0.28123
C	 0.0764140268	-2.2283803147	 0.810502246	-0.113692
C	 0.031189019	-0.7922061814	 1.2278715873	 0.338903
N	 0.0063708465	-0.5032173735	 2.4753489206	-0.257004
O	-0.0411884669	 0.880353653	 2.7164841183	-0.395343
H	 0.9657347165	 1.9138069867	 0.4141015567	 0.136294
H	 0.0166578543	 1.8861025658	-1.0871018316	 0.109385
H	-0.7800795178	 1.9922541158	 0.5006033478	 0.140826
H	-0.1389362362	-0.4389808751	-2.0942467571	 0.099484
H	-0.6493209143	-2.9477335781	-1.2336315424	 0.093657
H	 1.4698817734	-3.7302762175	-0.0449221583	 0.116039
H	 2.1107895995	-2.0176543096	-0.1358973503	 0.119652
H	-0.4064623051	-2.966934497	 1.4363594113	 0.103767
H	-0.0625021592	 0.9123426747	 3.6783034608	 0.306013
108.6555	191.9863	208.22	242.883	293.3592	340.6486	396.4528	418.1835	450.9816	479.3327	635.4766	701.6931	734.7802	746.2183	816.4749	838.0572	865.6757	931.5495	976.3617	990.3798	993.775	1014.2006	1064.4837	1070.7841	1072.0621	1096.6996	1158.6592	1188.8449	1243.3697	1328.2364	1334.8645	1355.15	1408.7297	1419.5835	1474.5763	1475.8912	1486.243	1663.3801	1716.049	3041.1166	3104.425	3116.7471	3128.3121	3173.6248	3189.6172	3203.3588	3221.8008	3822.661
CC1=CC2CC2C1=NO	CC1=C[C@H]2C[C@H]2C1=NO	
InChI=1S/C7H9NO/c1-4-2-5-3-6(5)7(4)8-9/h2,5-6,9H,3H2,1H3	InChI=1S/C7H9NO/c1-4-2-5-3-6(5)7(4)8-9/h2,5-6,9H,3H2,1H3/t5-,6+/m0/s1
