22
gdb 5865	3.98117	0.95626	0.93999	0.8851	84.44	-0.2564	0.058	0.3144	1369.7083	0.196802	-313.051121	-313.040851	-313.039907	-313.085993	38.23	
C	-0.0832441566	 1.5601440075	 0.0882416013	-0.403278
C	 0.0082324109	 0.0231452684	 0.0436605734	 0.263937
C	 0.6839878381	-0.4916173614	 1.3285920725	-0.403268
C	-1.416234047	-0.5583087604	-0.0370522784	-0.407417
C	 0.7759650827	-0.4507547015	-1.2150501614	-0.176021
C	 2.2410801361	 0.0222775141	-1.3401510332	-0.380757
C	 2.8780794019	-0.4740802896	-2.5543698437	 0.295787
C	 3.379242112	-0.8963601479	-3.5622473566	-0.436116
H	 0.899525934	 2.0273882536	 0.2063552962	 0.111442
H	-0.5367541811	 1.9572349484	-0.8268402732	 0.110156
H	-0.7005207545	 1.8849011546	 0.9329044913	 0.109728
H	 0.0896877174	-0.2255425024	 2.209481971	 0.109731
H	 0.7857578557	-1.5825496445	 1.3134932849	 0.110158
H	 1.6813316569	-0.0629629651	 1.4688091598	 0.111437
H	-1.9351402252	-0.2102374843	-0.9368769572	 0.10958
H	-1.3954909655	-1.653238669	-0.0653698653	 0.10958
H	-2.0127803304	-0.2571833429	 0.8309245523	 0.107753
H	 0.7677992899	-1.5469543022	-1.2434822706	 0.102567
H	 0.2327605237	-0.1182530246	-2.1077420496	 0.102561
H	 2.2863297297	 1.1179126167	-1.3360507026	 0.130639
H	 2.8214523126	-0.3106599841	-0.4713544458	 0.130629
H	 3.8339112991	-1.262431593	-4.4488220352	 0.191171
51.3081	88.1451	121.6524	222.0012	235.2435	263.3009	270.8541	329.9986	331.6737	349.8021	384.6715	415.7939	472.5451	519.5628	613.9939	632.1936	752.2424	760.7336	914.4952	932.1742	938.9908	958.3339	960.1219	970.8699	1024.5546	1064.713	1080.6555	1174.446	1217.4626	1268.8273	1269.3289	1299.1134	1337.8693	1379.3984	1401.9715	1402.5414	1435.1416	1470.6271	1482.413	1484.5239	1485.6721	1490.145	1509.4257	1510.6315	1518.9861	2237.9187	3022.366	3023.0735	3024.5868	3032.8016	3034.462	3052.5602	3075.7954	3090.7428	3091.1314	3095.333	3098.0453	3098.1255	3101.2663	3508.7821
CC(C)(C)CCC#C	CC(C)(C)CCC#C	
InChI=1S/C8H14/c1-5-6-7-8(2,3)4/h1H,6-7H2,2-4H3	InChI=1S/C8H14/c1-5-6-7-8(2,3)4/h1H,6-7H2,2-4H3
