16
gdb 24300	4.04011	1.64114	1.27248	4.2064	74.47	-0.212	0.0244	0.2364	953.5524	0.129264	-396.942277	-396.936058	-396.935114	-396.972796	25.276	
C	-0.0491191048	 1.4869643108	 0.0045758253	-0.188499
C	 1.4356797141	 1.8661830803	-0.0391331012	-0.035698
N	 2.1820022013	 1.4408404809	 1.1562832599	-0.327888
C	 2.2539921098	 0.6180963538	-0.0864074739	-0.215393
C	 1.2736651711	-0.4873209538	-0.0674168678	 0.44693
N	 1.2833037388	-1.7988967533	-0.0757583964	-0.370292
C	-0.0501473553	-2.145115938	 0.0112085045	-0.096965
C	-0.8557266227	-1.0307261339	 0.078689317	-0.152105
N	 0.0132691292	 0.0302635756	 0.0131940098	-0.002505
H	-0.5406427022	 1.8713425254	 0.9035770143	 0.13648
H	-0.5839194185	 1.8540827086	-0.8786962551	 0.122766
H	 1.7258314792	 2.7691183592	-0.5637119117	 0.103381
H	 3.0307762868	 1.9989156175	 1.2319841703	 0.236117
H	 3.1869968083	 0.5379101257	-0.6293264712	 0.113409
H	-0.3591942312	-3.1796089492	 0.0191786548	 0.104916
H	-1.9234358142	-0.9087618096	 0.1509142513	 0.125346
149.6884	200.6961	350.1386	437.8659	449.6153	614.7753	639.6863	723.229	725.9902	759.5389	793.6047	818.2934	842.2961	860.5128	885.8248	940.5583	950.684	1020.3262	1076.5479	1087.41	1118.4007	1141.6649	1162.0725	1188.9964	1220.7311	1242.3145	1294.569	1307.8643	1347.225	1395.4198	1417.8909	1449.3911	1491.8454	1522.2289	1593.526	3039.2567	3087.0239	3180.276	3202.5846	3245.7906	3279.8675	3484.3278
C1C2NC2C2=NC=CN12	C1[C@H]2N[C@H]2c2nccn12	
InChI=1S/C6H7N3/c1-2-9-3-4-5(8-4)6(9)7-1/h1-2,4-5,8H,3H2	InChI=1S/C6H7N3/c1-2-9-3-4-5(8-4)6(9)7-1/h1-2,4-5,8H,3H2/t4-,5-/m1/s1
