16
gdb 25567	6.76301	0.70327	0.65263	3.3482	71.85	-0.2461	-0.0254	0.2207	1618.0809	0.123885	-437.928267	-437.919857	-437.918913	-437.96343	28.937	
O	-0.4175174326	 0.3183668198	 0.4975830428	-0.23528
C	 0.0303474604	 1.0054705731	-0.382423224	 0.159192
C	 1.380356812	 1.6837255569	-0.353443857	-0.264668
C	 1.2800683433	 3.1733641667	-0.7141957734	-0.347009
C	 2.6201657792	 3.7865742566	-0.9473257072	 0.420723
N	 3.7521661687	 3.1997695265	-1.1756818944	-0.306986
C	 4.6588620446	 4.2401866794	-1.3473844975	-0.113528
C	 4.0100790796	 5.4173221013	-1.2088005452	-0.042478
O	 2.694848313	 5.1426235341	-0.9487353043	-0.179203
H	-0.5487417395	 1.1819563735	-1.3211345566	 0.070096
H	 1.8376712007	 1.5348075277	 0.627244389	 0.134802
H	 2.0212709904	 1.1896717151	-1.0957780033	 0.151879
H	 0.6685621672	 3.299629205	-1.6192709718	 0.134676
H	 0.7661141909	 3.7321413808	 0.0757948394	 0.141723
H	 5.7015075035	 4.0581501312	-1.5526958988	 0.127729
H	 4.2867804086	 6.4563669722	-1.2500545177	 0.148331
38.2375	54.7247	71.7962	142.8137	253.0603	297.6984	373.726	528.5858	628.4	686.0265	740.1667	762.6072	772.9237	858.8745	865.697	932.3953	962.8667	1021.9497	1073.6899	1096.6862	1110.9295	1141.9072	1167.9525	1193.7296	1211.2761	1272.9479	1306.93	1355.8206	1414.8765	1431.3122	1459.7674	1483.1542	1558.517	1618.4597	1840.6011	2841.136	3012.0199	3037.8723	3068.9429	3118.7487	3266.0411	3303.3337
O=CCCC1=NC=CO1	O=CCCc1ncco1	
InChI=1S/C6H7NO2/c8-4-1-2-6-7-3-5-9-6/h3-5H,1-2H2	InChI=1S/C6H7NO2/c8-4-1-2-6-7-3-5-9-6/h3-5H,1-2H2
