17
gdb 108812	3.32278	1.18295	0.91697	3.0744	70.76	-0.2443	0.0026	0.2468	1259.4496	0.136051	-455.205331	-455.196427	-455.195483	-455.239178	31.912	
C	-0.0409345613	 1.378567148	 0.0469148244	-0.238617
O	-0.0184804302	-0.0535341236	-0.0333901973	-0.262003
C	 0.6153720724	-0.546127925	-1.09241358	 0.508618
N	 1.1942246165	 0.0991210997	-2.0283400736	-0.370876
C	 1.7343694126	-0.92113712	-2.9388201877	-0.107021
C	 3.2446675826	-0.7952210363	-3.1470645938	-0.380638
C	 1.3517574433	-2.2844256923	-2.3255875731	 0.420443
O	 1.5968047256	-3.3998544542	-2.710035681	-0.365973
N	 0.6439222865	-1.9334896315	-1.1817105976	-0.413736
H	 0.9768266018	 1.7736972133	 0.0932416605	 0.147345
H	-0.5447608104	 1.8011354349	-0.8258212624	 0.14766
H	-0.5881798389	 1.6121114961	 0.9598751349	 0.136927
H	 1.2326757159	-0.8406840332	-3.9124408782	 0.11848
H	 3.7715521149	-0.8460948983	-2.1895866284	 0.121419
H	 3.6001407342	-1.6088576023	-3.7847577873	 0.137309
H	 3.4803209933	 0.1622075827	-3.6174785085	 0.128197
H	 0.2562965013	-2.576688308	-0.5107000109	 0.272466
87.7917	120.386	140.6107	202.3549	211.1826	221.6734	251.8941	408.217	446.9535	482.5627	538.5087	650.7467	690.7967	723.6378	743.8957	812.3751	931.5558	984.8923	1052.8083	1059.625	1111.3822	1136.2539	1182.7637	1196.6208	1230.9225	1284.7538	1286.6635	1316.9467	1399.4334	1441.0869	1477.6596	1487.2548	1494.2152	1496.3069	1506.2775	1719.6736	1857.3337	3023.9056	3046.8638	3053.9742	3121.715	3130.6396	3133.8316	3163.5347	3657.2005
COC1=NC(C)C(=O)N1	COC1=N[C@@H](C)C(=O)N1	
InChI=1S/C5H8N2O2/c1-3-4(8)7-5(6-3)9-2/h3H,1-2H3,(H,6,7,8)	InChI=1S/C5H8N2O2/c1-3-4(8)7-5(6-3)9-2/h3H,1-2H3,(H,6,7,8)/t3-/m0/s1
