21
gdb 61266	4.64942	0.79088	0.75392	1.6352	85.08	-0.255	0.0495	0.3045	1568.3115	0.180782	-387.043538	-387.033656	-387.032711	-387.078699	36.694	
O	-0.4213599071	 1.3234161381	 0.0362840355	-0.421308
C	-0.0667956817	-0.051189263	 0.0179896568	 0.094594
C	 0.7200518168	-0.4206617127	-1.260440706	-0.402197
C	 0.0237897964	-0.0862367692	-2.4955762978	 0.312137
C	-0.5573924459	 0.1840950005	-3.5119751939	-0.43607
C	 0.6938549319	-0.4730143505	 1.2763714625	 0.051665
C	 1.9897290174	 0.2892058139	 1.6875104249	-0.233203
C	 1.523493748	 0.1996145036	 3.1655938315	-0.212133
C	 0.0879725881	-0.1007072229	 2.6575124251	-0.244815
H	 0.3653797798	 1.8423469707	-0.161781998	 0.281805
H	-1.0267634999	-0.5817160759	-0.0031378732	 0.098376
H	 1.6948772324	 0.0883119189	-1.2336396541	 0.124512
H	 0.9432137362	-1.4950386001	-1.2396555261	 0.13189
H	-1.0725599527	 0.4258758141	-4.4081785099	 0.193764
H	 0.8936125703	-1.5497715153	 1.2236778969	 0.067091
H	 2.9526333588	-0.1550091356	 1.4238879155	 0.096273
H	 1.9778089641	 1.3258997933	 1.3336843216	 0.086132
H	 1.96435532	-0.6625044911	 3.6743034609	 0.101816
H	 1.6654329756	 1.0820604322	 3.7936528557	 0.09805
H	-0.5102479823	 0.8099862978	 2.572492229	 0.118808
H	-0.492693376	-0.8642569165	 3.1806230032	 0.092811
57.4131	81.334	109.1255	146.0362	211.7797	250.9688	283.8737	328.5284	349.4076	395.4147	528.1383	573.8486	619.1511	634.9082	684.5613	765.484	789.1984	863.8551	891.5481	932.0285	937.5358	955.2301	971.965	1012.9147	1035.1861	1054.6762	1128.8378	1146.7622	1189.8558	1202.5705	1246.452	1255.5371	1259.4864	1272.1139	1278.656	1312.4381	1317.2302	1365.7333	1374.9823	1423.9496	1468.1086	1473.6232	1485.9508	1508.9583	2241.1229	3002.8334	3033.8408	3037.2185	3042.4685	3053.7987	3056.8734	3064.6441	3095.6032	3107.8612	3124.89	3507.6511	3809.9518
OC(CC#C)C1CCC1	O[C@@H](CC#C)C1CCC1	
InChI=1S/C8H12O/c1-2-4-8(9)7-5-3-6-7/h1,7-9H,3-6H2	InChI=1S/C8H12O/c1-2-4-8(9)7-5-3-6-7/h1,7-9H,3-6H2/t8-/m0/s1
