20
gdb 84070	2.32809	1.57587	1.00753	3.6841	83.5	-0.2335	-0.0174	0.2161	1226.3219	0.17019	-403.214806	-403.205104	-403.20416	-403.249248	35.047	
C	-0.0916396958	 1.6071744815	-0.0033389	-0.394986
C	 0.0103944604	 0.0746006617	 0.0239239294	-0.02329
C	 0.7717395091	-0.4917181488	-1.1494355772	-0.208619
C	 1.8161232952	-1.2171476389	-0.7424648157	 0.209292
C	 2.8531008919	-1.9556648066	-1.5180272113	-0.483988
C	 1.831962888	-1.2191820706	 0.7559027589	 0.35055
O	 2.6134850526	-1.7972602375	 1.4885900662	-0.403455
N	 0.7715949204	-0.4330699565	 1.1516921049	-0.084534
C	 0.3880392334	-0.2750957598	 2.5325480814	-0.349112
H	 0.9055516586	 2.0554762814	-0.0311522621	 0.129939
H	-0.6464097633	 1.9333092951	-0.8884724757	 0.12186
H	-0.6193074135	 1.9823179845	 0.8786653225	 0.123635
H	-1.0113950232	-0.3404554827	 0.0462679113	 0.092541
H	 0.475820677	-0.2886193945	-2.1715898616	 0.107471
H	 3.8526563207	-1.5702999832	-1.2885694669	 0.143682
H	 2.8618617444	-3.0136972904	-1.2347447574	 0.145045
H	 2.6850901711	-1.878581885	-2.594996973	 0.118491
H	 1.1161374413	-0.8245399554	 3.1329355174	 0.165005
H	 0.395263184	 0.776907199	 2.841879425	 0.122315
H	-0.6131487422	-0.6836545834	 2.723316594	 0.118157
103.5735	119.6371	121.052	151.6962	168.2873	239.9744	253.5748	293.1434	339.1733	381.6171	501.1612	546.5281	564.8551	682.7297	725.0219	771.4848	856.16	889.8829	944.2514	1009.3797	1042.3193	1064.966	1070.1351	1090.2522	1114.9566	1160.4058	1206.5128	1258.0552	1302.9847	1333.7187	1351.609	1401.363	1413.8484	1418.3466	1449.0891	1471.53	1483.4974	1488.7887	1493.6692	1500.3553	1521.6775	1714.181	1793.398	2962.327	3009.0189	3037.3584	3039.8416	3058.0888	3091.0891	3111.3194	3121.8811	3123.4084	3134.6707	3206.8999
CC1C=C(C)C(=O)N1C	C[C@H]1C=C(C)C(=O)N1C	
InChI=1S/C7H11NO/c1-5-4-6(2)8(3)7(5)9/h4,6H,1-3H3	InChI=1S/C7H11NO/c1-5-4-6(2)8(3)7(5)9/h4,6H,1-3H3/t6-/m0/s1
