21
gdb 102413	1.62596	1.62595	1.00534	0.0004	70.58	-0.2431	0.0665	0.3095	1253.8886	0.179089	-498.467717	-498.455886	-498.454942	-498.504719	40.999	
O	-0.0264284703	 1.4104538229	 0.0102260051	-0.435005
C	 0.0124514211	-0.0139178865	 0.0022962989	-0.102719
C	-1.4339783764	-0.5346613181	 0.0129972172	 0.205698
C	-1.4004560524	-2.0716194185	 0.0041567384	-0.102711
O	-2.7437319069	-2.5469296745	 0.0145618594	-0.435012
C	-2.1622302725	-0.0334770242	 1.2707373851	-0.102713
O	-1.4601721974	-0.5141678419	 2.4137434055	-0.43501
C	-2.1856799881	-0.0196319588	-1.2252010508	-0.102716
O	-1.505696487	-0.4881667859	-2.3864554704	-0.435008
H	 0.8794097231	 1.7304019249	 0.0033308091	 0.286355
H	 0.5195302365	-0.3842161271	-0.8980940606	 0.099958
H	 0.5360675435	-0.3935516619	 0.8892030993	 0.099988
H	-0.8741836516	-2.412937194	-0.8966424574	 0.099988
H	-0.8566603571	-2.4228733439	 0.8906425912	 0.099954
H	-2.7169840399	-3.5072495093	 0.0091959891	 0.286354
H	-2.1820028202	 1.063991538	 1.2594684385	 0.099958
H	-3.1933501504	-0.4097662262	 1.2610879652	 0.099986
H	-1.9192292578	-0.1983757185	 3.1963668855	 0.286354
H	-3.2167272125	-0.395470688	-1.1999893261	 0.099954
H	-2.2044305222	 1.0776380577	-1.201759679	 0.099991
H	-1.9794666314	-0.1639385063	-3.1567643931	 0.286354
64.1966	111.9505	111.9512	124.9716	155.8334	192.055	192.067	203.8618	204.7627	273.1943	300.9741	300.9753	331.7413	409.501	411.8336	582.9581	582.9602	775.22	899.0892	899.093	946.0941	1044.0642	1044.065	1075.7722	1084.1681	1098.5604	1112.527	1191.9338	1191.9383	1228.1439	1228.1512	1242.9796	1261.6236	1278.0092	1332.8432	1332.8442	1342.6151	1429.6673	1446.6836	1446.6839	1481.4996	1505.6219	1505.6222	1505.9072	1523.0859	3003.8932	3003.8935	3012.1916	3013.2928	3044.6782	3045.137	3054.4102	3054.4106	3842.173	3842.1917	3842.1937	3842.2473
OCC(CO)(CO)CO	OCC(CO)(CO)CO	
InChI=1S/C5H12O4/c6-1-5(2-7,3-8)4-9/h6-9H,1-4H2	InChI=1S/C5H12O4/c6-1-5(2-7,3-8)4-9/h6-9H,1-4H2
