21
gdb 96179	2.17972	1.87691	1.16282	0.9164	77.7	-0.2384	0.0729	0.3112	1108.9124	0.184761	-424.213791	-424.205695	-424.204751	-424.246378	31.531	
C	 0.0465341692	 1.5584359101	-0.0080471597	-0.404752
C	 0.0533213408	 0.0268646493	 0.0006877981	-0.020331
C	 0.6370151705	-0.5599745456	-1.2890959975	-0.090957
O	 0.7074439769	-1.9745310083	-1.2190386835	-0.244136
C	 1.700909131	-2.38819627	-0.3017816304	-0.089687
C	 1.4124514203	-1.9406924228	 1.1445385628	-0.094086
C	 2.6102731088	-1.2449310402	 1.8210945694	-0.086562
O	 2.0936246541	 0.055092376	 1.4640386625	-0.298318
C	 0.7840132384	-0.5252144642	 1.2181887779	 0.145413
H	 1.0687693022	 1.9469659715	-0.0108557581	 0.139256
H	-0.4726197036	 1.9427899185	-0.8922615291	 0.111118
H	-0.4593501261	 1.9564004409	 0.8773739254	 0.116016
H	-0.979576469	-0.3407266053	 0.0733168246	 0.080345
H	-0.0031845967	-0.3207385692	-2.1434942943	 0.103446
H	 1.6377782348	-0.1389127096	-1.4821798758	 0.093765
H	 1.7455874839	-3.4788557933	-0.3677759458	 0.106513
H	 2.6791450254	-1.9926889586	-0.6226938731	 0.09069
H	 0.9018568778	-2.7195454074	 1.7135995631	 0.076813
H	 2.648882989	-1.3781969142	 2.9112666694	 0.095589
H	 3.6056444082	-1.4247990813	 1.3989116523	 0.104116
H	 0.1576585741	-0.4016955464	 2.1153072918	 0.065752
107.6531	124.5586	209.5212	221.3502	297.7386	348.0365	379.7751	431.7449	469.7981	568.1877	624.5773	779.2185	828.173	853.5463	885.1081	932.6132	955.0763	969.1771	983.0844	1006.5328	1011.6944	1085.2752	1092.385	1125.4906	1131.8538	1154.5555	1180.847	1206.2053	1232.7865	1256.8302	1278.8805	1314.7028	1332.5512	1345.9819	1359.9129	1365.3712	1387.0392	1402.0702	1417.9261	1429.7644	1488.4364	1493.9259	1500.7327	1505.3824	1522.1308	2962.6133	2970.9292	2974.7906	3002.688	3017.4821	3036.455	3060.1167	3077.965	3081.8656	3097.7197	3100.9319	3118.8369
CC1COCC2COC12	C[C@H]1COC[C@H]2CO[C@@H]12	
InChI=1S/C7H12O2/c1-5-2-8-3-6-4-9-7(5)6/h5-7H,2-4H2,1H3	InChI=1S/C7H12O2/c1-5-2-8-3-6-4-9-7(5)6/h5-7H,2-4H2,1H3/t5-,6-,7-/m0/s1
