18
gdb 74123	2.33526	1.5753	0.98289	5.9216	84.21	-0.2125	-0.0434	0.1691	1193.3739	0.14891	-401.9835	-401.974976	-401.974032	-402.016713	32.03	
C	 0.0856735516	 1.5012539479	 0.0556230997	-0.483077
C	 0.0171596863	-0.0048954591	 0.0025733412	 0.344948
C	-0.1113208606	-0.6507436515	-1.1898028447	-0.26772
C	 0.0779403408	-2.0576370966	-1.5341406553	 0.330043
O	-0.0093562088	-2.4268213414	-2.7018332961	-0.369687
C	 0.4857123116	-3.0688726237	-0.5155262675	-0.120764
C	 0.2544096618	-3.0345111765	 0.7968567313	-0.068103
C	-0.4779531961	-1.9151129647	 1.4945025527	-0.237351
N	 0.1011338827	-0.6047671351	 1.2284220112	-0.333306
H	 0.9969382874	 1.8206971778	 0.5758911688	 0.138342
H	 0.0989273611	 1.9312673395	-0.9455289511	 0.146949
H	-0.7670349596	 1.9172164281	 0.6058587104	 0.132782
H	-0.2494697516	-0.0301722792	-2.0681133745	 0.092198
H	 0.9674300342	-3.9357748804	-0.9590938192	 0.109817
H	 0.5719157601	-3.8702666579	 1.4148612727	 0.103524
H	-1.538211512	-1.9231174217	 1.1906707084	 0.123691
H	-0.4488149281	-2.0689242002	 2.5756557888	 0.113874
H	 0.1276013192	 0.0207854846	 2.0170219533	 0.24384
81.3648	122.7079	180.4185	199.6901	280.7076	332.4147	358.9682	409.309	447.6042	495.1465	593.2182	606.4269	661.7182	735.4176	808.5143	851.831	878.138	889.4324	982.2325	1013.2191	1019.0273	1062.183	1078.3435	1110.0445	1194.8068	1225.0113	1296.8051	1311.4371	1383.6116	1396.6193	1407.7889	1411.7999	1477.7702	1480.8593	1484.2912	1550.0706	1659.151	1693.2854	1716.1492	2962.5345	3026.3236	3077.5168	3096.4692	3150.9736	3156.3425	3182.0136	3191.4895	3632.5899
CC1=CC(=O)C=CCN1	CC1=CC(=O)C=CCN1	
InChI=1S/C7H9NO/c1-6-5-7(9)3-2-4-8-6/h2-3,5,8H,4H2,1H3	InChI=1S/C7H9NO/c1-6-5-7(9)3-2-4-8-6/h2-3,5,8H,4H2,1H3
