17
gdb 78299	2.76918	1.32921	1.08532	1.6684	68.28	-0.203	0.0646	0.2675	1127.1365	0.132502	-458.859331	-458.850352	-458.849407	-458.8927	34.247	
O	 0.2067028878	 1.2954366246	-0.1173013624	-0.441385
C	 0.0509969251	-0.09064939	-0.0301831409	 0.133106
C	-0.4507267981	-0.6685159868	 1.2706212697	-0.166974
C	-1.3480343368	-0.6519789724	 0.0284059568	-0.203811
C	-1.4363147657	-2.204557044	 0.088666842	 0.30812
O	-2.6044655962	-2.8868411327	-0.1824495692	-0.454923
C	-0.0701268069	-2.8900529021	 0.0618295881	-0.456933
C	-0.5468204976	-2.2107764831	 1.3225685849	 0.362945
O	-0.6037168589	-2.7831473529	 2.5772554362	-0.456555
H	-0.4870732136	 1.7175920138	 0.4011383706	 0.286961
H	 0.8387587911	-0.5601818769	-0.6069709585	 0.10608
H	-0.5411003909	-0.0691056044	 2.1684607061	 0.097549
H	-2.2235769486	-0.0371146596	-0.1446195765	 0.092791
H	-2.6322118905	-3.0845265041	-1.1266341183	 0.285317
H	-0.2001861943	-3.9706046943	 0.1140868416	 0.104213
H	 0.785069821	-2.5905639304	-0.5380095949	 0.11413
H	-0.5756374369	-3.7407574648	 2.4849980647	 0.289367
72.7259	183.2236	207.9394	213.2622	228.1104	277.0706	297.7553	398.4095	403.9822	411.4862	498.5069	564.3766	601.3073	732.0313	756.5412	787.3655	856.6403	877.988	902.516	919.9547	988.4355	1016.1053	1045.1628	1079.7761	1094.8839	1106.9573	1126.6222	1174.1704	1181.3773	1251.9947	1267.7786	1316.9553	1327.0507	1388.0655	1411.3118	1460.6113	1521.6254	3092.7015	3166.8353	3179.5596	3187.1308	3191.2416	3762.3323	3806.296	3825.5409
OC1C2C1C1(O)CC21O	O[C@H]1[C@H]2[C@@H]1[C@@]1(O)C[C@@]21O	
InChI=1S/C6H8O3/c7-4-2-3(4)6(9)1-5(2,6)8/h2-4,7-9H,1H2	InChI=1S/C6H8O3/c7-4-2-3(4)6(9)1-5(2,6)8/h2-4,7-9H,1H2/t2-,3+,4+,5-,6+
