14
gdb 45024	2.47824	1.8618	1.21886	3.4727	64.16	-0.2831	-0.0317	0.2514	972.7442	0.101572	-473.850302	-473.843225	-473.84228	-473.882256	26.615	
N	-0.2968362239	 1.3099651143	-0.1536104836	-0.495828
C	-0.1369917383	 0.0602438564	-0.1164524739	 0.417073
O	 1.0842750367	-0.5267871675	-0.3843325633	-0.24017
C	 1.2470370218	-1.857678223	-0.7193261027	 0.422216
O	 2.3538210053	-2.2976910017	-0.7692501336	-0.289524
C	-0.0047788237	-2.639441	-1.0802730771	-0.391817
C	-1.2015850314	-2.2311241274	-0.2627447021	 0.042594
O	-0.9255764731	-1.9467103445	 1.105690492	-0.24109
C	-1.2535763735	-0.8512478586	 0.2388273374	-0.032693
H	 0.5642537245	 1.7794906083	-0.4403315346	 0.240484
H	-0.2101097736	-2.4785907603	-2.1469859371	 0.153316
H	 0.2334753526	-3.6977964539	-0.9522017264	 0.160808
H	-2.1348786838	-2.7590927956	-0.4499794761	 0.119337
H	-2.1954963096	-0.3494135866	 0.433926241	 0.135295
84.8244	119.6863	257.9013	332.7294	373.1698	459.2627	523.6408	551.7648	581.6315	651.6054	728.1134	799.8821	859.9816	903.5373	914.043	934.345	968.296	1023.7448	1057.1826	1114.1394	1128.4931	1168.1926	1221.6554	1268.6267	1337.3247	1340.9909	1370.5267	1449.4572	1465.486	1762.1957	1884.4756	3039.5079	3113.4965	3133.74	3183.513	3477.956
N=C1OC(=O)CC2OC12	[NH][C]1OC(=O)C[C@H]2O[C@@H]12	
InChI=1S/C5H5NO3/c6-5-4-2(8-4)1-3(7)9-5/h2,4,6H,1H2	InChI=1S/C5H5NO3/c6-5-4-2(8-4)1-3(7)9-5/h2,4,6H,1H2/t2-,4-/m1/s1
