18
gdb 7911	3.28821	1.70204	1.20417	4.1679	75.97	-0.2298	-0.0364	0.1933	1018.4987	0.153411	-347.858579	-347.850416	-347.849472	-347.891272	30.273	
C	-0.09311065	 1.5595302097	 0.0349510525	-0.402418
C	 0.0321688013	 0.0273471531	 0.0118058405	-0.07306
C	 0.7992060247	-0.5135475263	-1.2138876082	-0.352342
C	 1.9425436494	-1.3701020587	-0.6471794769	 0.389707
O	 2.7559557805	-1.9863643615	-1.2978392978	-0.338829
C	 1.8436875222	-1.2901420585	 0.8218869803	-0.296582
C	 0.8025903175	-0.5322114367	 1.201206281	 0.340606
C	 0.3769194165	-0.2436306972	 2.6044122393	-0.492897
H	 0.8956481934	 2.0313221209	 0.0291323275	 0.123097
H	-0.6391015583	 1.9110435556	-0.8456770478	 0.124074
H	-0.631313498	 1.9103289694	 0.9207538379	 0.117164
H	-0.9849839838	-0.3888632529	 0.0396010275	 0.088065
H	 0.179556869	-1.1213283602	-1.8794045289	 0.128656
H	 1.2243058683	 0.2890694983	-1.8257420914	 0.127681
H	 2.5358109636	-1.8037965203	 1.4783317851	 0.105034
H	 0.9844312727	-0.7863079597	 3.3321231669	 0.134521
H	 0.4518902277	 0.8274692875	 2.8273111543	 0.141982
H	-0.6747532866	-0.5179492826	 2.7550066583	 0.135543
62.0442	137.2645	182.7455	232.5429	269.5465	311.932	341.0295	497.7611	531.2	565.3902	575.591	644.6864	770.7287	850.1494	876.2769	917.9246	929.9593	1006.408	1023.5459	1059.8879	1080.5167	1120.076	1161.5273	1189.3312	1210.5311	1259.4752	1297.931	1333.6236	1342.1989	1406.9839	1410.3635	1457.0726	1477.5537	1479.1991	1498.4253	1502.3675	1678.1462	1810.5143	3000.9442	3025.4985	3033.3097	3058.0766	3074.6635	3099.3889	3104.6927	3108.5728	3123.1698	3208.8359
CC1CC(=O)C=C1C	C[C@H]1CC(=O)C=C1C	
InChI=1S/C7H10O/c1-5-3-7(8)4-6(5)2/h3,6H,4H2,1-2H3	InChI=1S/C7H10O/c1-5-3-7(8)4-6(5)2/h3,6H,4H2,1-2H3/t6-/m0/s1
