19
gdb 17006	3.7276	2.1504	1.86151	1.4214	74.15	-0.2238	0.079	0.3027	809.7822	0.168798	-327.893105	-327.886614	-327.885669	-327.923214	27.087	
C	-0.0427245046	 1.5593407823	-0.3113406507	-0.298419
C	 1.5274091355	 1.5855400687	-0.3261737039	-0.298429
C	 1.5200895746	 0.1393982697	 0.2091864614	 0.258798
C	 2.0471188197	-0.4966176428	 1.4743674043	-0.282489
C	 0.8120404346	-1.2964445231	 2.0001918919	-0.200936
C	-0.4587273274	-0.5385140271	 1.4978930707	-0.28248
C	 0.0229239737	 0.1143837617	 0.2232564247	 0.258784
N	 0.7781039154	-0.7658417458	-0.6694388854	-0.387127
H	-0.4590277504	 2.2645888544	 0.4122130008	 0.106579
H	-0.5633139845	 1.6983402532	-1.2650703277	 0.094683
H	 2.0249813816	 1.7415097037	-1.2895200384	 0.094687
H	 1.9335327546	 2.3045228312	 0.3896035191	 0.106576
H	 2.9198773623	-1.1429479172	 1.336982869	 0.10066
H	 2.3296450856	 0.2933056107	 2.1809760542	 0.094803
H	 0.8247082459	-2.2982063258	 1.5660218635	 0.122667
H	 0.8241202875	-1.408311323	 3.0880594099	 0.09108
H	-1.3118323367	-1.2136848237	 1.3767146144	 0.100659
H	-0.7541694315	 0.2417450673	 2.2099352697	 0.094801
H	 0.7635822242	-0.4383598544	-1.6320859176	 0.225103
208.453	209.6938	301.004	325.442	467.2713	508.6749	591.3093	648.5363	729.2739	741.2255	770.6663	804.7174	853.1646	876.9807	905.0153	933.4382	966.5779	979.7173	1029.4274	1031.8868	1067.1639	1094.077	1134.9588	1173.8016	1195.7998	1221.5546	1228.2627	1237.0663	1246.2589	1246.9982	1280.4179	1333.9195	1341.5699	1368.317	1421.0588	1476.276	1479.266	1486.5482	1495.3741	1500.7892	3032.7977	3034.1783	3037.1063	3045.0821	3065.9716	3076.4529	3077.076	3092.354	3109.9521	3118.7744	3492.1733
C1CC23CCCC12N3	C1C[C@@]23CCC[C@@]12N3	
InChI=1S/C7H11N/c1-2-6-4-5-7(6,3-1)8-6/h8H,1-5H2	InChI=1S/C7H11N/c1-2-6-4-5-7(6,3-1)8-6/h8H,1-5H2/t6-,7+
