18
gdb 51118	3.73711	1.07902	0.99867	1.0762	75.96	-0.2137	-0.0265	0.1872	1222.4484	0.14647	-401.865611	-401.857479	-401.856534	-401.899395	30.809	
O	-0.5178667852	 0.6881221163	 0.9026190314	-0.237662
C	 0.0970935642	 0.912796562	-0.107057942	 0.16568
C	 1.3163124042	 1.8145954735	-0.1805430234	-0.407954
C	 1.1998376824	 2.8505034669	-1.2648887182	 0.329704
N	 1.8476047447	 4.1805695784	-1.1627275139	-0.383016
C	 0.3771701225	 4.0733514683	-1.3784643615	-0.117604
C	 0.1114277594	 3.7942729278	-2.8858745539	-0.051932
C	 1.384333388	 3.6782581026	-3.6803567085	-0.291347
C	 0.9703700075	 2.5407023152	-2.7829913845	-0.10745
H	-0.2061372759	 0.4536586691	-1.0749290021	 0.082237
H	 1.4475674685	 2.2797449134	 0.8014465973	 0.121125
H	 2.195886248	 1.1804119499	-0.3731647699	 0.130604
H	 1.9884273566	 4.3735400163	-0.1712293783	 0.228497
H	-0.3207424685	 4.5186994402	-0.6810902243	 0.101733
H	-0.8640807396	 3.9022667257	-3.3408359295	 0.093678
H	 1.2334845595	 3.4840550616	-4.7378957019	 0.108717
H	 2.2447042853	 4.2878429682	-3.4381564579	 0.145091
H	 0.7564486183	 1.5477117146	-3.157388439	 0.089901
47.2267	59.4094	142.7926	238.8416	339.2075	415.5624	435.656	465.3845	582.557	628.6155	720.1207	753.2883	778.9766	839.0018	842.6295	883.0542	919.0539	922.1847	959.633	986.1011	1013.2651	1033.9393	1051.991	1067.5516	1073.2062	1101.3798	1135.9364	1177.0581	1188.9855	1237.3428	1290.7116	1295.5996	1308.9064	1340.6531	1428.498	1440.5357	1451.4676	1464.0918	1834.9253	2878.7106	2995.2293	3087.226	3140.0856	3187.1046	3194.4178	3205.3536	3236.5734	3472.8079
O=CCC12NC1C1CC21	O=CC[C@]12N[C@H]1[C@H]1C[C@@H]21	
InChI=1S/C7H9NO/c9-2-1-7-5-3-4(5)6(7)8-7/h2,4-6,8H,1,3H2	InChI=1S/C7H9NO/c9-2-1-7-5-3-4(5)6(7)8-7/h2,4-6,8H,1,3H2/t4-,5+,6-,7+/m0/s1
