20
gdb 82780	3.01394	1.8231	1.71036	1.4688	80.16	-0.2294	0.0796	0.309	915.6755	0.174169	-365.961222	-365.95455	-365.953606	-365.991892	28.431	
C	-0.2168935398	 1.591331432	 0.001408122	-0.426017
C	 0.0432940447	 0.0912549565	 0.0057780364	 0.03585
C	 1.0570464306	-0.5719928932	-0.9865641844	-0.089851
C	 2.324057372	 0.2795549349	-1.1296360923	-0.159009
N	 3.0853287953	 0.1241459252	 0.1209038171	-0.102908
C	 2.3070822219	-0.0538800094	 1.3612711521	-0.065092
C	 2.8895193286	-1.2245295054	 0.6206434346	-0.07226
C	 1.4601850472	-1.6031087401	 0.1440074784	-0.057287
C	 0.8550861381	-0.5701669655	 1.1385144988	-0.058294
H	 0.6927146207	 2.1691133718	 0.191993753	 0.124113
H	-0.631874756	 1.9249828814	-0.956617395	 0.113051
H	-0.9390852747	 1.8559718543	 0.7819782657	 0.112455
H	-0.9125462075	-0.4409948115	-0.074409108	 0.068227
H	 0.6636988052	-0.9413811373	-1.9354951382	 0.062315
H	 2.9610741117	-0.0881668466	-1.9422006251	 0.100387
H	 2.1171842628	 1.335833549	-1.3221396082	 0.106257
H	 2.6651437094	 0.4731088449	 2.2388865807	 0.090166
H	 3.7365928682	-1.8685432609	 0.8265470688	 0.087774
H	 1.1253415518	-2.6352018787	 0.0842298338	 0.066759
H	 0.3703360496	-0.8772980712	 2.0674432896	 0.063364
155.9327	198.6548	265.3899	394.554	485.0913	546.3075	599.0716	647.8704	722.6462	756.357	776.3874	814.4221	844.2697	856.547	876.3114	911.4076	943.6875	947.0914	956.0076	991.7736	1021.6635	1033.2262	1051.132	1076.3494	1093.3459	1117.8919	1151.1809	1181.402	1188.8422	1204.0486	1208.9604	1244.0095	1253.8103	1266.4474	1313.9177	1323.4517	1331.224	1360.5099	1388.5444	1408.5465	1491.4147	1494.1555	1512.2731	3022.7456	3027.1859	3040.4488	3086.5128	3087.458	3088.5932	3093.9655	3102.4996	3150.4536	3165.0106	3180.3276
CC1C2CN3C4C3C2C14	C[C@H]1[C@H]2CN3[C@@H]4[C@H]3[C@H]2[C@H]14	
InChI=1S/C8H11N/c1-3-4-2-9-7-5(3)6(4)8(7)9/h3-8H,2H2,1H3	InChI=1S/C8H11N/c1-3-4-2-9-7-5(3)6(4)8(7)9/h3-8H,2H2,1H3/t3-,4+,5-,6+,7-,8+,9?/m0/s1
