16
gdb 34563	3.70941	1.29996	1.22354	4.0444	75.61	-0.2668	-0.0535	0.2133	1040.3171	0.127476	-400.768022	-400.761241	-400.760297	-400.799322	26.801	
N	 0.0814486061	-1.1283322781	 0.0816936221	-0.338001
C	-0.006516398	 0.0260689038	 0.0243031096	 0.191218
C	-0.0599933262	 1.4354797203	-0.0490507249	 0.241957
C	-1.1249906997	 2.249793799	-0.0238405598	-0.190785
C	-0.5481337312	 3.6565536099	 0.0233806345	 0.021624
C	 0.005584308	 3.8630009742	 1.4738452431	-0.219893
C	 1.2491573198	 2.9278048627	 1.4430300491	-0.222615
C	 1.1592125836	 2.3745713373	-0.0143094254	-0.047849
O	 0.662371262	 3.5054739523	-0.7268467259	-0.239606
H	-2.1681713812	 1.9802301958	 0.0623160301	 0.134628
H	-1.1583524973	 4.4622918748	-0.3799953065	 0.096773
H	 0.2941596762	 4.9070618486	 1.6110850889	 0.118733
H	-0.72213829	 3.6008660122	 2.2442193242	 0.11247
H	 2.1747367226	 3.4936297584	 1.5649963156	 0.118183
H	 1.2255611552	 2.1373362637	 2.1954449545	 0.119601
H	 2.0809016401	 2.0012108851	-0.4551725293	 0.103563
115.8811	157.0947	255.7682	374.0874	447.0464	498.6562	561.1784	589.3422	637.3173	737.6525	815.5809	834.6557	853.5168	875.0972	894.5527	902.3078	927.339	961.1481	990.9051	1050.9434	1056.6553	1128.9661	1169.1019	1204.8927	1228.5738	1241.3862	1248.5833	1292.8459	1310.7088	1321.907	1347.4567	1484.6261	1502.6104	1654.3624	2334.7114	3073.4312	3082.2373	3118.7353	3134.7331	3144.9005	3153.3646	3240.7314
N#CC1=CC2CCC1O2	N#CC1=C[C@H]2CC[C@@H]1O2	
InChI=1S/C7H7NO/c8-4-5-3-6-1-2-7(5)9-6/h3,6-7H,1-2H2	InChI=1S/C7H7NO/c8-4-5-3-6-1-2-7(5)9-6/h3,6-7H,1-2H2/t6-,7+/m1/s1
