17
gdb 107369	3.43989	1.17075	0.98337	2.8738	67.86	-0.25	-0.0231	0.2269	1190.0827	0.134958	-458.973324	-458.965063	-458.964119	-459.006753	30.944	
O	 0.1116053004	 1.3205137184	-0.347237375	-0.413651
C	 0.035957223	 0.032907794	 0.2405757118	-0.15414
C	-1.3693837568	-0.5039343734	 0.2160950428	 0.372587
C	-2.4940078502	 0.1823404213	 0.9606319754	-0.386988
C	-3.6090859015	-0.8742478546	 1.0498525931	 0.392761
O	-4.7328347518	-0.6708641115	 1.4201429912	-0.295509
C	-3.0515459206	-2.2435935847	 0.6125254682	-0.355766
C	-1.7105479553	-1.9244996257	-0.0001525215	-0.024545
O	-1.8070843068	-0.981167861	-1.0768655079	-0.307033
H	-0.1797618119	 1.2294777538	-1.2616489938	 0.294815
H	 0.7033140241	-0.6841292655	-0.2602434326	 0.097107
H	 0.3786332066	 0.1496773697	 1.2744287074	 0.11413
H	-2.1919809384	 0.4737718771	 1.9743828877	 0.133621
H	-2.8564859612	 1.0825635017	 0.4587157444	 0.149328
H	-2.9535815153	-2.8906821892	 1.4931758541	 0.134288
H	-3.7420389779	-2.7318773161	-0.0804961964	 0.147496
H	-0.9501950764	-2.6924808542	-0.1192647586	 0.1015
71.05	76.0172	147.0421	275.6642	309.0007	391.3063	418.3248	430.6578	477.6085	480.1519	634.4737	666.7532	731.4534	781.0181	810.2159	867.8295	908.1534	955.1762	1005.9353	1008.5767	1063.1852	1095.0985	1129.6954	1147.9845	1186.28	1217.194	1234.5086	1281.778	1292.022	1327.6619	1384.9506	1422.7699	1434.722	1438.6519	1463.0005	1490.22	1857.4516	2996.676	3044.2862	3046.9994	3075.1992	3103.721	3111.455	3145.6414	3802.0676
OCC12CC(=O)CC1O2	OC[C@]12CC(=O)C[C@H]1O2	
InChI=1S/C6H8O3/c7-3-6-2-4(8)1-5(6)9-6/h5,7H,1-3H2	InChI=1S/C6H8O3/c7-3-6-2-4(8)1-5(6)9-6/h5,7H,1-3H2/t5-,6-/m1/s1
