20
gdb 64023	2.21466	1.80772	1.4106	1.7438	79.06	-0.2265	0.0263	0.2528	1035.6593	0.17041	-403.162918	-403.154285	-403.153341	-403.196197	33.808	
C	-0.2144926188	 1.5514426675	 0.1134446599	-0.418659
C	-0.0280530028	 0.0387463526	 0.0315852179	 0.267428
C	-1.3220977571	-0.6797050113	-0.3412545802	-0.418646
O	 0.9311088694	-0.2160080758	-1.0548575267	-0.258257
C	 1.9805319386	-0.8519513039	-0.4921609877	 0.08954
N	 1.9755893827	-1.1029453479	 0.7510392138	-0.312003
C	 0.7177599562	-0.5792175658	 1.2468817165	 0.325905
C	 0.7132599529	-0.0037204195	 2.6393032402	-0.314736
C	 0.0524723284	-1.3340729574	 2.3683187619	-0.314736
H	 0.7271879848	 2.0436158454	 0.3694463548	 0.129032
H	-0.5640725996	 1.941487146	-0.846818482	 0.124223
H	-0.9563668605	 1.8088968701	 0.8752725617	 0.118571
H	-1.6876711653	-0.3220235687	-1.3081392529	 0.12422
H	-1.1604079625	-1.7587230226	-0.4053780542	 0.129032
H	-2.0982422898	-0.49118165	 0.4064750189	 0.118569
H	 2.7781236769	-1.1077527417	-1.1806894624	 0.135961
H	 1.6620156798	-0.0006806062	 3.1629633276	 0.125861
H	 0.075362617	 0.8486100589	 2.8455369279	 0.111419
H	-1.0307633823	-1.3783241825	 2.3919187994	 0.111417
H	 0.553212982	-2.2329961774	 2.7082635657	 0.12586
34.7648	216.6486	244.15	266.9112	273.9247	295.2789	330.1526	332.7143	422.4769	525.2669	526.2157	611.1198	638.3625	778.7049	804.4165	837.5088	911.0174	936.1358	936.42	938.4834	967.6019	973.157	991.6721	1020.3899	1056.6589	1080.9737	1113.4872	1192.9898	1195.7244	1203.2222	1233.9327	1276.7296	1341.857	1351.1422	1399.1653	1417.727	1452.5764	1476.4956	1482.6547	1488.885	1498.4281	1506.165	1699.6302	3041.2379	3045.9845	3112.264	3118.9319	3124.601	3126.3511	3138.1354	3140.7492	3214.5075	3221.4877	3235.361
CC1(C)OC=NC11CC1	CC1(C)OC=NC21CC2	
InChI=1S/C7H11NO/c1-6(2)7(3-4-7)8-5-9-6/h5H,3-4H2,1-2H3	InChI=1S/C7H11NO/c1-6(2)7(3-4-7)8-5-9-6/h5H,3-4H2,1-2H3
