15
gdb 84061	2.54351	1.53238	0.99353	3.4535	69.84	-0.239	-0.098	0.141	1136.6468	0.110721	-457.800514	-457.791792	-457.790848	-457.83432	30.999	
C	 0.0103699696	 1.513096499	-0.0061306422	-0.489796
C	-0.0119492048	 0.0207384359	-0.0043074867	 0.194883
C	-1.0748230495	-0.8073386975	-0.016835635	-0.177238
C	-0.7247735826	-2.2709817695	 0.0725193026	-0.006647
O	-1.4119909931	-3.0526471577	-0.8765435313	-0.433482
C	 0.7886487483	-2.2404025789	-0.1707355738	 0.277907
O	 1.4511337386	-3.1777207425	-0.5247640898	-0.290351
C	 1.2415294588	-0.7691428578	-0.0167843469	 0.244706
O	 2.3798344806	-0.3750936008	 0.0538698692	-0.296994
H	 0.5363255273	 1.8868907281	 0.8791860334	 0.152219
H	 0.5652049273	 1.8861370848	-0.8736504866	 0.153148
H	-0.9974827497	 1.9339405253	-0.0230230595	 0.13064
H	-2.1108030795	-0.4859069001	-0.0590999055	 0.131359
H	-0.911785622	-2.6424875345	 1.0967075719	 0.108801
H	-0.8407531493	-3.8060793639	-1.0772755797	 0.300846
61.8049	109.3643	153.1527	207.5232	247.9798	296.7657	320.7331	334.1824	407.1827	499.6124	544.2322	620.2722	694.1297	715.2133	816.8533	914.517	951.7833	996.5577	1038.938	1066.644	1067.4029	1117.3092	1199.0501	1262.5521	1340.6298	1348.4756	1403.7761	1414.8623	1471.8082	1480.7227	1672.8057	1815.8303	1856.7194	2934.8168	3039.4906	3095.0814	3128.9836	3187.7546	3765.3052
CC1=CC(O)C(=O)C1=O	CC1=C[C@@H](O)C(=O)C1=O	
InChI=1S/C6H6O3/c1-3-2-4(7)6(9)5(3)8/h2,4,7H,1H3	InChI=1S/C6H6O3/c1-3-2-4(7)6(9)5(3)8/h2,4,7H,1H3/t4-/m1/s1
