15
gdb 47179	2.3267	1.79072	1.09141	5.3638	72.22	-0.2322	-0.0373	0.1949	1054.1448	0.114173	-453.98713	-453.979175	-453.978231	-454.020253	28.984	
N	-0.424242824	 1.3155386757	-0.2730534776	-0.486036
C	-0.0123062615	 0.1636320993	 0.04430507	 0.400321
C	-0.8753327135	-1.0534495168	-0.1968035728	-0.258868
N	-1.3594969719	-1.6305167427	 1.0403573851	-0.284283
C	-0.5161597858	-2.148642709	 1.9571137701	 0.023702
C	 0.833188856	-2.0187514096	 1.9960208546	-0.241771
C	 1.7351863804	-1.1662915436	 1.2356869473	 0.370515
O	 2.9314783666	-1.2744857972	 1.2544163436	-0.322142
O	 1.2407533365	-0.0455408877	 0.5370619325	-0.246245
H	 0.2827400314	 2.0187034394	-0.046649507	 0.232978
H	-1.7242916882	-0.7399136888	-0.8012152424	 0.152188
H	-0.2917450296	-1.8062150745	-0.7480877665	 0.137901
H	-2.3488580207	-1.7594996927	 1.1535102805	 0.268068
H	-0.9994778084	-2.7603466868	 2.7140318165	 0.13116
H	 1.3672968226	-2.6241016051	 2.7168986662	 0.122511
64.8118	92.3573	184.8329	213.8406	320.2305	378.3563	399.6395	479.4456	536.2343	558.884	656.057	717.1663	788.796	829.1229	852.4621	914.7413	951.3744	972.9497	985.06	1031.8668	1083.8044	1138.9259	1235.9284	1266.48	1326.367	1348.1836	1395.0904	1434.9959	1467.1186	1541.209	1688.4549	1746.7988	1820.2255	2999.62	3157.7091	3172.1485	3218.3999	3464.982	3681.4424
N=C1CNC=CC(=O)O1	[NH][C]1CNC=CC(=O)O1	
InChI=1S/C5H6N2O2/c6-4-3-7-2-1-5(8)9-4/h1-2,6-7H,3H2	InChI=1S/C5H6N2O2/c6-4-3-7-2-1-5(8)9-4/h1-2,6-7H,3H2
