16
gdb 85600	2.87816	1.41953	1.15784	1.1793	66.47	-0.2522	-0.0306	0.2216	1059.7674	0.124385	-475.047815	-475.039649	-475.038705	-475.08097	30.351	
O	-0.0426194825	 1.4431289385	-0.3158524478	-0.431736
C	 0.0202418804	 0.0418935322	-0.0468256787	 0.004516
C	-1.4209401897	-0.4543984293	 0.0081907672	-0.325561
C	-2.0921038948	-0.2494521822	-1.3386821909	 0.384049
O	-3.2758730402	-0.0822992226	-1.487467927	-0.297477
C	-1.1442506205	-0.2307287775	-2.5366316231	-0.178219
O	 0.1105560774	-0.885793408	-2.3167599459	-0.253242
C	 0.780865785	-0.6649612349	-1.1526565128	 0.391161
N	 1.978849833	-1.0351523943	-0.9782660279	-0.518844
H	 0.8627333338	 1.7722417607	-0.3511964183	 0.298655
H	 0.546172736	-0.1584592295	 0.8918726626	 0.109267
H	-1.430532118	-1.5264129097	 0.2425747952	 0.145588
H	-1.9956923016	 0.0641004585	 0.778581733	 0.145858
H	-1.613334443	-0.739804929	-3.3800332263	 0.149185
H	-0.9776514291	 0.819406266	-2.8070240696	 0.1519
H	 2.3461009739	-1.4679421489	-1.8292645999	 0.2249
58.8264	110.1056	184.3723	237.9896	324.1338	390.4411	396.9994	430.0573	455.1751	499.3068	584.4368	710.5646	732.3143	751.3787	819.3897	916.1713	932.3689	948.5585	984.4129	1051.5064	1083.7289	1148.4294	1173.583	1193.7247	1242.5016	1261.3949	1325.1947	1337.7893	1353.9031	1395.502	1413.3237	1438.6971	1465.4853	1752.3118	1836.6504	3038.3055	3044.6684	3064.0261	3119.1147	3128.8912	3456.8697	3805.9517
OC1CC(=O)COC1=N	O[C@H]1CC(=O)CO[C]1[NH]	
InChI=1S/C5H7NO3/c6-5-4(8)1-3(7)2-9-5/h4,6,8H,1-2H2	InChI=1S/C5H7NO3/c6-5-4(8)1-3(7)2-9-5/h4,6,8H,1-2H2/t4-/m0/s1
