12
gdb 9473	3.36339	1.73784	1.5746	3.3609	51.93	-0.2787	-0.0694	0.2093	820.5579	0.082255	-455.634308	-455.627177	-455.626233	-455.665966	25.266	
O	 0.1054663227	 1.474669757	 0.0513498071	-0.456714
C	-0.006270294	 0.1052144048	 0.0012753095	 0.148089
C	-1.4174355201	-0.5191437264	-0.1680322417	-0.12785
O	-0.9736458705	-1.2415814415	-1.3562443071	-0.230514
C	 0.2429565448	-0.6106179296	-1.3722044516	 0.392037
O	 1.0963242161	-0.6647664805	-2.1907175956	-0.29914
C	 0.8052390608	-0.5525309016	 1.1041509924	 0.120575
O	 1.4810178621	 0.1135102374	 1.8465370783	-0.261605
H	 0.7468722081	 1.6661702736	 0.7570930309	 0.305168
H	-1.7717435779	-1.2105469872	 0.5993561863	 0.132917
H	-2.1743366404	 0.2275446851	-0.4121004453	 0.152669
H	 0.7399249982	-1.6545179911	 1.1825779068	 0.124369
102.8825	134.2361	204.8476	279.3985	316.7228	362.2449	480.5771	529.5034	616.5072	701.7459	760.2977	842.2724	897.7399	910.6007	972.2921	1064.3559	1087.1704	1122.0722	1156.0859	1280.1826	1340.3092	1384.6752	1445.3027	1508.1239	1813.4297	1949.5455	2960.2176	3076.1589	3146.6172	3659.8373
OC1(COC1=O)C=O	O[C@]1(COC1=O)C=O	
InChI=1S/C4H4O4/c5-1-4(7)2-8-3(4)6/h1,7H,2H2	InChI=1S/C4H4O4/c5-1-4(7)2-8-3(4)6/h1,7H,2H2/t4-/m0/s1
