18
gdb 127598	2.10292	1.68671	0.99654	2.1399	76.75	-0.1957	0.0137	0.2094	1180.1477	0.148624	-435.273592	-435.264135	-435.263191	-435.307987	33.909	
C	-0.1240618716	 1.3873541765	 0.09757978	-0.337888
N	-0.073900492	-0.0602907001	 0.099241464	-0.006155
N	-0.0893170824	-0.7335937009	-1.0555619712	-0.267853
C	 0.01776832	-2.0181704603	-0.7138362578	-0.055567
C	 0.1000549069	-2.1789078446	 0.6855864648	 0.074844
N	 0.2891753461	-3.3779647067	 1.3939998502	-0.609853
C	 0.0437155535	-0.8849939485	 1.1905955151	 0.269099
C	 0.0670702954	-0.3804045007	 2.5931387662	-0.190067
O	-1.1235601657	 0.3154501581	 2.9758564606	-0.409817
H	 0.8790399822	 1.8215007199	 0.1862246838	 0.133271
H	-0.5623104158	 1.7029851272	-0.8490776089	 0.153365
H	-0.737646149	 1.7293240658	 0.9330973833	 0.156852
H	 0.0243970509	-2.7829455898	-1.4771428969	 0.100831
H	-0.0603397908	-4.1799325877	 0.8857267772	 0.2452
H	-0.1293301086	-3.3692701096	 2.3153695794	 0.238769
H	 0.2689084718	-1.2240633205	 3.2699890395	 0.100044
H	 0.8748065322	 0.3438049466	 2.7487104153	 0.123955
H	-1.8702108731	-0.2355111348	 2.7166877254	 0.280971
95.7428	100.7653	128.2731	148.6735	181.613	246.6584	282.3448	318.8247	364.8026	419.2114	508.7718	593.4945	657.8509	685.7066	733.7936	756.4625	798.2911	839.5016	939.9304	1021.3879	1043.625	1077.9775	1133.3316	1151.8551	1213.3749	1229.1943	1258.6794	1346.6912	1369.2444	1410.3091	1413.7958	1426.6131	1457.9752	1489.9615	1502.5711	1511.2062	1532.1482	1626.4025	1658.0833	2994.628	3031.3077	3057.111	3114.2289	3164.6085	3237.811	3535.2781	3622.9704	3805.4425
CN1N=CC(N)=C1CO	Cn1ncc(N)c1CO	
InChI=1S/C5H9N3O/c1-8-5(3-9)4(6)2-7-8/h2,9H,3,6H2,1H3	InChI=1S/C5H9N3O/c1-8-5(3-9)4(6)2-7-8/h2,9H,3,6H2,1H3
