16
gdb 44582	3.15888	1.6219	1.45064	5.0393	66.57	-0.2337	0.0031	0.2368	927.7429	0.127099	-437.887773	-437.881178	-437.880234	-437.918841	26.564	
O	-0.413265583	 0.332553456	 0.6145792421	-0.320429
C	-0.1470972822	 1.3848928461	 0.1337865057	 0.44448
O	-0.9676524891	 2.1989595482	-0.6128740199	-0.251988
C	 0.0572061164	 3.2502230733	-0.7272233519	 0.085926
C	-0.1237959796	 4.4508538958	 0.1653046206	-0.073003
C	-0.6406112555	 4.1834984369	 1.5692429911	-0.301376
C	 0.8338319897	 4.2527609953	 1.3448020628	 0.004392
N	 1.5646195815	 3.0010107874	 1.2044762903	-0.295313
C	 1.0739638114	 2.3300980686	 0.0182912451	-0.203205
H	 0.2198070184	 3.4917266302	-1.7768339701	 0.097227
H	-0.2927964604	 5.418881488	-0.2889299555	 0.094188
H	-1.1039676965	 5.0206340492	 2.0791439468	 0.121548
H	-1.1026290896	 3.2258448458	 1.7810816588	 0.149239
H	 1.4018227356	 5.0682714611	 1.7770717046	 0.099351
H	 2.5544012334	 3.1909062438	 1.1172338759	 0.233074
H	 1.8754680797	 1.8733609444	-0.5655737464	 0.115891
100.7936	209.3463	269.264	408.4832	434.9666	538.8889	657.4841	660.9783	692.8506	748.6745	766.7374	793.9535	833.0705	851.0505	888.809	926.7216	936.4655	973.6363	1036.415	1049.1957	1064.7209	1086.7926	1095.3197	1123.3805	1167.0242	1182.5654	1204.3223	1249.1984	1298.7923	1343.9774	1347.7211	1415.0576	1464.9608	1499.6633	1938.7992	3099.332	3126.1572	3142.1179	3179.1159	3191.7972	3228.3807	3563.109
O=C1OC2C3CC3NC12	O=C1O[C@H]2[C@H]3C[C@H]3N[C@@H]12	
InChI=1S/C6H7NO2/c8-6-4-5(9-6)2-1-3(2)7-4/h2-5,7H,1H2	InChI=1S/C6H7NO2/c8-6-4-5(9-6)2-1-3(2)7-4/h2-5,7H,1H2/t2-,3+,4+,5-/m0/s1
