19
gdb 33410	1.95331	1.44928	0.88974	3.2353	79.73	-0.2609	0.0253	0.2861	1308.1916	0.159749	-382.038772	-382.029803	-382.028859	-382.073336	32.779	
N	 0.1929237784	-1.3643370675	-0.3028253135	-0.322583
C	 0.1054534752	-0.2189665431	-0.1763323015	 0.288076
C	-0.0009145086	 1.2419357633	-0.0370615698	-0.221754
C	 1.3836168398	 1.8736335193	 0.062052239	 0.040851
C	 1.5852052588	 3.1294627489	 0.8704803733	-0.276956
C	 2.1580342692	 1.8191609576	 1.3510975281	-0.27073
C	-0.8190310917	 1.808103233	-1.1946194506	 0.035486
C	-2.2968522152	 1.8677019996	-1.1103975573	-0.244166
N	-1.4919972581	 3.1031187472	-1.0606866195	-0.320529
H	-0.5438797392	 1.4369544633	 0.8985617	 0.110855
H	 1.9615206116	 1.7875894569	-0.8533450517	 0.105747
H	 2.2593812467	 3.8833427889	 0.4809798697	 0.126158
H	 0.7363743668	 3.5361456422	 1.4107955182	 0.110123
H	 1.6882053629	 1.3431551866	 2.2056097257	 0.121715
H	 3.2296663226	 1.6679156077	 1.2957406438	 0.125858
H	-0.3594483756	 1.6525102551	-2.1683538628	 0.110957
H	-2.8988142667	 1.7473392546	-2.0057042688	 0.130927
H	-2.7678465943	 1.5115009493	-0.1973635867	 0.117998
H	-1.4263358324	 3.4413044269	-0.1036576957	 0.23197
63.1307	74.2163	134.5633	145.9006	179.7871	324.6513	337.9693	380.3425	449.2065	517.5324	549.0761	763.7798	810.2782	828.5084	859.7791	883.9364	918.1351	936.7844	949.6376	976.9184	1005.2091	1058.3105	1065.823	1084.5837	1127.155	1136.0844	1152.1201	1158.9609	1193.7766	1209.5126	1228.2411	1247.3882	1269.9869	1287.3039	1314.037	1408.2501	1419.1748	1470.9093	1505.5376	1515.6516	2356.4038	3011.836	3111.517	3132.6286	3133.1743	3138.7804	3154.4436	3199.1589	3212.8731	3227.7834	3500.7853
N#CC(C1CC1)C1CN1	N#C[C@@H](C1CC1)[C@H]1CN1	
InChI=1S/C7H10N2/c8-3-6(5-1-2-5)7-4-9-7/h5-7,9H,1-2,4H2	InChI=1S/C7H10N2/c8-3-6(5-1-2-5)7-4-9-7/h5-7,9H,1-2,4H2/t6-,7+/m0/s1
