14
gdb 33683	3.28583	1.47148	1.38441	2.4437	66.34	-0.2508	0.0013	0.2521	941.732	0.102289	-436.643021	-436.636467	-436.635522	-436.674108	25.397	
N	-0.0608064411	-1.1664187449	 0.0197333278	-0.353547
C	-0.0387160639	-0.0086363013	-0.0010481089	 0.150266
C	-0.0137546442	 1.4063352508	-0.0229658926	 0.134127
C	-0.6560087928	 2.5124624196	 0.8155244785	 0.013009
O	 0.5540576352	 3.2344256415	 0.9735809306	-0.287269
C	 1.1923458793	 2.3889704105	-0.0339503012	-0.002458
C	 1.0657749629	 3.1137820872	-1.3621612768	-0.07948
O	-0.3544244912	 3.2506160644	-1.5476165488	-0.259445
C	-0.9884396498	 2.3857903214	-0.6531144427	 0.034903
H	-1.3506115489	 2.4639790444	 1.6459494472	 0.13611
H	 2.1787404674	 2.0411503516	 0.2682904291	 0.119406
H	 1.5116900336	 4.1108798336	-1.3230259087	 0.136359
H	 1.5061504274	 2.5410601548	-2.1906787657	 0.116717
H	-1.9741585938	 2.0596681463	-0.9611344578	 0.141303
134.0126	158.3763	258.4401	387.4277	478.8247	518.2476	527.2657	586.9812	688.6453	763.9246	779.1159	857.8446	897.1593	918.3893	943.5275	993.0972	1016.8365	1022.4453	1046.6421	1078.0692	1110.9367	1153.022	1183.3377	1237.2376	1253.9928	1280.2233	1321.8167	1368.6615	1436.3275	1496.7789	2343.9488	3011.4262	3104.2458	3142.7482	3191.8864	3207.8326
N#CC12C3OC1COC23	N#C[C@@]12[C@H]3O[C@@H]1CO[C@@H]23	
InChI=1S/C6H5NO2/c7-2-6-3-1-8-4(6)5(6)9-3/h3-5H,1H2	InChI=1S/C6H5NO2/c7-2-6-3-1-8-4(6)5(6)9-3/h3-5H,1H2/t3-,4-,5+,6-/m1/s1
