18
gdb 63024	2.29467	1.83198	1.40566	1.916	72.01	-0.2545	0.0155	0.2701	993.9784	0.14744	-439.089011	-439.080811	-439.079867	-439.121391	32.299	
C	 0.0981556363	 1.5800207011	-0.0206124597	-0.425744
C	 0.0609037625	 0.0541734049	 0.0000513032	 0.285283
O	-1.2870812799	-0.4182529746	-0.0229574903	-0.474513
C	 0.7736300669	-0.6491707493	-1.1422309925	-0.070121
C	 2.2824670692	-0.5223709359	-1.2352669156	-0.336714
C	 1.6594116329	-1.6780175186	-0.5107221084	 0.075624
O	 1.5916778895	-1.5511261176	 0.9022883488	-0.237027
C	 0.7474699595	-0.5360994218	 1.2415965445	 0.355879
N	 0.4994295634	-0.151314472	 2.4178144228	-0.546792
H	 1.1214658811	 1.9583811989	-0.0970378587	 0.116025
H	-0.4795613419	 1.9469680118	-0.8731791641	 0.122245
H	-0.3357484067	 1.9699801219	 0.9043778219	 0.137049
H	-1.6665505298	-0.2042176682	 0.83834591	 0.290329
H	 0.1915841351	-0.8552678421	-2.031016556	 0.112344
H	 2.7318727308	-0.7135058757	-2.203459708	 0.125295
H	 2.7928402509	 0.2271451125	-0.6387526638	 0.128678
H	 1.7601897678	-2.7074710332	-0.8275250329	 0.115681
H	 1.0096539823	-0.7045901619	 3.1074448586	 0.226479
83.7197	211.6987	218.8527	240.6831	297.5737	349.6996	373.5311	398.814	475.4918	498.507	610.6306	701.2956	716.9392	717.6524	811.4326	820.8178	887.475	909.0163	948.946	991.664	1001.0014	1036.1875	1042.4557	1071.2084	1100.6675	1132.0777	1143.1123	1170.8834	1187.3066	1199.1402	1271.873	1362.551	1387.4724	1396.0659	1404.4368	1475.497	1486.3207	1492.673	1771.614	3044.6971	3119.9492	3127.1676	3131.9724	3198.7478	3206.6126	3223.0773	3480.9497	3788.3451
CC1(O)C2CC2OC1=N	C[C@@]1(O)[C@H]2C[C@H]2O[C]1[NH]	
InChI=1S/C6H9NO2/c1-6(8)3-2-4(3)9-5(6)7/h3-4,7-8H,2H2,1H3	InChI=1S/C6H9NO2/c1-6(8)3-2-4(3)9-5(6)7/h3-4,7-8H,2H2,1H3/t3-,4+,6+/m0/s1
