21
gdb 76947	2.39742	1.18204	0.98657	3.5923	85.22	-0.239	-0.0154	0.2235	1311.2515	0.181392	-387.081354	-387.07203	-387.071086	-387.115736	34.655	
C	-0.1109692169	 0.7293458306	-2.2262776364	-0.417485
C	-0.0081281933	-0.33462158	-1.1537931843	-0.08544
C	 1.3099686398	-0.6675047437	-0.4337131504	-0.19634
C	 2.5425950734	 0.1058594542	-0.6777801474	 0.161756
O	 3.6563002186	-0.3646369297	-0.6584438669	-0.277281
C	 0.136513945	-0.0193598784	 0.2931855959	 0.328217
C	 0.0522638982	 1.3717594658	 0.9477449686	-0.295138
C	-1.0544275691	 0.804462519	 1.8848526246	-0.206096
C	-0.6761260471	-0.6388807671	 1.4380643485	-0.291503
H	 0.4162976896	 1.6478027251	-1.9572936254	 0.125265
H	 0.3019931442	 0.3745077225	-3.1760729972	 0.12958
H	-1.1605916429	 0.9927682365	-2.3968650006	 0.122421
H	-0.5922965392	-1.2271442835	-1.3696010137	 0.096273
H	 1.4964030561	-1.7162039682	-0.2213187675	 0.099602
H	 2.3923663185	 1.191222601	-0.8747016529	 0.064159
H	 0.9618020942	 1.6435043962	 1.491166139	 0.112075
H	-0.2284356808	 2.2094965043	 0.3041319797	 0.104476
H	-0.955828591	 1.0288366201	 2.9485562198	 0.104817
H	-2.0579368784	 1.0896581246	 1.5604222211	 0.107878
H	-1.4954632453	-1.3049355297	 1.1537728555	 0.102371
H	-0.0461923936	-1.1531163895	 2.17028342	 0.110392
69.9456	100.5573	138.5563	189.9392	209.3171	229.0224	247.2374	394.4358	427.3872	442.368	506.1099	569.6113	709.5383	760.2069	793.5583	860.9396	901.8941	922.4347	939.1761	960.0575	1004.5737	1015.0406	1051.0128	1076.7841	1091.679	1124.8717	1133.9044	1173.8942	1191.6434	1216.6766	1227.8664	1257.5101	1267.7567	1280.3638	1306.9985	1344.6198	1416.7787	1431.7631	1459.1376	1477.1798	1481.8081	1496.8116	1505.827	1507.1862	1804.2691	2873.5648	3036.7419	3048.7178	3055.1407	3069.5479	3095.1212	3095.7088	3101.2972	3112.39	3126.8387	3129.7838	3158.9235
CC1C(C=O)C11CCC1	C[C@H]1[C@@H](C=O)C21CCC2	
InChI=1S/C8H12O/c1-6-7(5-9)8(6)3-2-4-8/h5-7H,2-4H2,1H3	InChI=1S/C8H12O/c1-6-7(5-9)8(6)3-2-4-8/h5-7H,2-4H2,1H3/t6-,7+/m0/s1
