21
gdb 52395	6.35838	0.5566	0.53445	2.8474	81.43	-0.2534	-0.0251	0.2282	2052.1955	0.180576	-424.216103	-424.206239	-424.205295	-424.25285	34.457	
O	-0.6680440476	 0.815238747	 0.7424713971	-0.23291
C	-0.1422634096	 1.1332126523	-0.2923721991	 0.153398
C	 1.2613299339	 1.6776681803	-0.4211229681	-0.280005
C	 1.2927761243	 3.0225704707	-1.1480542153	-0.072333
O	 2.6391536388	 3.3356092246	-1.4292297935	-0.252451
C	 2.8059747813	 4.5593557016	-2.0991340999	 0.174753
C	 2.6797068682	 5.8893025235	-1.3006844524	-0.246533
C	 3.9321740822	 6.3953253798	-2.069823276	-0.217968
C	 4.2694463708	 4.9183325357	-2.4167259857	-0.250502
H	-0.6859495533	 1.0342991465	-1.2621304054	 0.072223
H	 1.7152962091	 1.7511932051	 0.5695959864	 0.130138
H	 1.8454521435	 0.9650711283	-1.0201971327	 0.131852
H	 0.7086083748	 2.9657543	-2.0836437914	 0.089657
H	 0.8297304858	 3.8029191398	-0.5240203806	 0.106464
H	 2.1767599667	 4.5852343834	-3.0033514601	 0.063438
H	 1.7540921588	 6.463468084	-1.3826499237	 0.09624
H	 2.9034854017	 5.7119011786	-0.2444769519	 0.109564
H	 3.6603272516	 6.9725655923	-2.9575383772	 0.105836
H	 4.6743408146	 6.960415658	-1.5035393505	 0.104834
H	 4.9269122407	 4.4694120537	-1.6670875364	 0.114918
H	 4.6504985739	 4.6854280549	-3.4130997436	 0.099388
40.2812	58.1276	73.642	106.1463	125.7738	182.8584	287.8933	295.5742	430.0094	481.3448	522.6131	641.695	763.4195	786.8333	796.1078	870.2251	901.7866	925.1348	946.9403	970.4866	1005.1574	1055.1447	1062.5509	1108.6307	1139.3473	1150.5723	1181.7745	1194.3573	1227.0853	1245.7777	1246.9022	1261.5535	1273.8327	1277.2925	1305.8673	1308.8514	1378.1494	1431.8284	1440.5811	1467.3619	1472.5937	1487.396	1509.7801	1526.2769	1838.4838	2848.2269	2949.0361	2972.3118	2994.6714	3027.683	3057.2339	3065.2549	3068.9597	3109.5038	3117.823	3118.51	3130.351
O=CCCOC1CCC1	O=CCCOC1CCC1	
InChI=1S/C7H12O2/c8-5-2-6-9-7-3-1-4-7/h5,7H,1-4,6H2	InChI=1S/C7H12O2/c8-5-2-6-9-7-3-1-4-7/h5,7H,1-4,6H2
