16
gdb 74250	3.2489	1.2837	1.05622	5.3885	74.62	-0.2616	-0.0171	0.2445	1140.8273	0.124293	-400.751339	-400.743413	-400.742469	-400.783964	29.548	
C	-0.0832542524	 1.5251622506	 0.0927904478	-0.501288
C	-0.0257285252	 0.0343665546	 0.0076961302	 0.32833
C	 0.0571166545	-0.726072202	-1.0877328223	-0.188168
C	 0.0666397024	-2.2183663382	-0.7663877224	-0.222202
C	 1.1904571019	-2.9393749039	-1.3688833918	 0.282497
N	 2.0649730702	-3.5119902978	-1.8609133479	-0.322677
C	 0.0833904403	-2.2363187044	 0.7713870793	 0.029341
O	 1.2114467482	-1.6035317383	 1.3554824036	-0.236708
C	-0.0120997916	-0.8429149273	 1.2259705465	-0.064986
H	 0.7793390858	 1.9174177436	 0.6446394592	 0.146311
H	-0.095148627	 1.9836401378	-0.8988069769	 0.134628
H	-0.9796393571	 1.8545478831	 0.6324559447	 0.133652
H	 0.1480811971	-0.3679456716	-2.1060365964	 0.122169
H	-0.8568282565	-2.6964982165	-1.1222096009	 0.136559
H	-0.3205065839	-3.0905420599	 1.3059520197	 0.115933
H	-0.4719093066	-0.5417774298	 2.1627799275	 0.106609
96.0923	131.3065	175.3142	208.1417	307.1993	340.9298	382.2307	493.7366	564.9155	592.7976	600.9782	773.0885	813.577	840.7281	870.9626	883.9538	930.5939	1001.0906	1005.4448	1029.6417	1064.8618	1081.4747	1102.403	1184.0186	1248.5133	1256.7575	1275.9698	1309.5306	1354.4011	1413.8451	1414.7024	1477.5717	1485.8906	1707.8309	2361.9639	3015.9044	3025.4983	3075.5605	3122.1867	3157.9742	3169.4314	3209.121
CC1=CC(C#N)C2OC12	CC1=C[C@@H](C#N)[C@H]2O[C@@H]12	
InChI=1S/C7H7NO/c1-4-2-5(3-8)7-6(4)9-7/h2,5-7H,1H3	InChI=1S/C7H7NO/c1-4-2-5(3-8)7-6(4)9-7/h2,5-7H,1H3/t5-,6-,7+/m0/s1
