16
gdb 42184	3.09938	1.3371	1.09581	1.9446	76.91	-0.249	-0.0667	0.1823	1109.2603	0.123648	-400.647371	-400.639359	-400.638414	-400.680892	29.894	
O	-0.0410385389	-0.0279237487	 0.4510517085	-0.284467
C	-0.0729135957	 1.163901351	 0.2272378275	 0.114377
C	 1.1278814706	 1.9460717877	 0.0020539467	 0.281415
C	 2.1207404313	 2.5992522058	-0.1882012125	-0.446732
C	-1.3698520213	 1.9165407324	 0.1420999714	 0.270748
C	-2.068563601	 2.447610074	-1.1498727212	-0.227449
C	-2.8965852879	 2.9059614249	 0.0756958867	-0.038106
C	-2.7594100111	 1.4746774647	 0.6664587858	-0.272068
N	-1.571156799	 3.3177332401	 0.7085275582	-0.354542
H	 3.0011728149	 3.1716284504	-0.3535708121	 0.217555
H	-1.5290819112	 3.2335859908	-1.6772537998	 0.119781
H	-2.5109889942	 1.6990427924	-1.8076496212	 0.109762
H	-3.7623468709	 3.5678146675	 0.0926041661	 0.092019
H	-3.2614408532	 0.6502829235	 0.1534407863	 0.107987
H	-2.8477048749	 1.3904843472	 1.7529920222	 0.101251
H	-1.6550571176	 3.2445405564	 1.7285974674	 0.208467
32.6238	111.8423	166.3207	222.2485	272.6851	415.8305	453.7731	543.8362	598.4494	644.2441	664.5449	704.4605	719.4163	790.2976	814.4612	893.9855	929.4862	937.7429	958.3617	991.1491	1047.671	1079.9847	1093.6085	1129.6298	1149.5068	1178.5639	1214.2677	1223.548	1276.4146	1299.9355	1326.6549	1478.8935	1524.4954	1756.0406	2213.1327	3052.5651	3087.9975	3117.7679	3122.269	3171.1477	3371.5353	3493.9642
O=C(C#C)C12CC(C1)N2	O=C(C#C)[C@@]12C[C@@H](C1)N2	
InChI=1S/C7H7NO/c1-2-6(9)7-3-5(4-7)8-7/h1,5,8H,3-4H2	InChI=1S/C7H7NO/c1-2-6(9)7-3-5(4-7)8-7/h1,5,8H,3-4H2/t5-,7+
