17
gdb 46426	3.94418	0.81026	0.71387	3.7401	74.21	-0.2662	0.003	0.2693	1533.3812	0.134738	-421.819332	-421.810398	-421.809453	-421.853977	31.969	
O	 0.0767841533	 0.1027325455	 0.3179584393	-0.322821
C	 0.0444669822	 1.2476636148	-0.0032212531	 0.464562
O	-1.010200462	 1.9418385753	-0.5382602174	-0.236408
C	-0.2430056237	 3.1900770054	-0.5602703599	-0.112114
C	 0.9876068627	 2.4578563899	 0.0110648462	-0.192283
C	 1.5341768663	 2.8786223931	 1.3737712463	-0.211913
C	 2.560516838	 1.8630579469	 1.9209744006	-0.359135
C	 3.0878914326	 2.253075302	 3.2218835369	 0.288316
C	 3.5061272831	 2.6009205617	 4.2935276639	-0.42908
H	-0.1591758969	 3.5749901877	-1.5780828979	 0.128989
H	-0.7015041168	 3.9325369595	 0.096931195	 0.129317
H	 1.7982931282	 2.3411263763	-0.7150629732	 0.116403
H	 2.0043651943	 3.8645086481	 1.2907078337	 0.120457
H	 0.7114916238	 2.9802071146	 2.0903141986	 0.123668
H	 2.0897699424	 0.8750305798	 1.9851669468	 0.164872
H	 3.3874698442	 1.7602141929	 1.2057537873	 0.130659
H	 3.8832525182	 2.8919245065	 5.2423712571	 0.19651
60.3545	91.1586	98.1512	162.3433	193.5074	304.7006	348.2782	354.1115	481.8451	531.8613	619.9873	645.4304	706.9021	762.1838	774.5898	841.8107	906.1359	945.6062	960.5799	1015.8983	1050.7929	1091.1502	1120.9848	1131.9791	1159.8073	1180.8592	1241.6009	1287.4933	1316.8921	1335.7438	1370.7904	1386.5093	1478.4543	1498.5318	1517.8256	1928.3139	2241.3892	3021.6423	3042.2713	3060.4146	3068.4423	3073.0319	3090.8743	3134.8342	3507.2119
O=C1OCC1CCC#C	O=C1OC[C@H]1CCC#C	
InChI=1S/C7H8O2/c1-2-3-4-6-5-9-7(6)8/h1,6H,3-5H2	InChI=1S/C7H8O2/c1-2-3-4-6-5-9-7(6)8/h1,6H,3-5H2/t6-/m1/s1
