23
gdb 114660	3.33264	1.07933	0.98933	1.6756	85.03	-0.2407	0.0901	0.3309	1348.3358	0.206659	-388.280163	-388.271317	-388.270373	-388.31345	34.728	
C	-0.0210308783	 1.5940254996	 0.0605165718	-0.377781
C	 0.0119640948	 0.061783375	 0.0838658846	-0.205842
C	-1.3762446403	-0.5697429416	-0.0376357787	 0.049125
C	-2.086736599	-0.442770502	-1.4317099809	-0.249172
C	-2.3607252754	-1.9442143575	-1.6540758695	 0.072194
O	-2.8303447631	-2.3686271443	-0.3337614685	-0.306685
C	-1.4417608174	-2.113285244	 0.0532008819	 0.038948
C	-1.0005998909	-2.6209396173	-1.3452646559	 0.031017
C	-0.9619005276	-4.1329436829	-1.5098322969	-0.425276
H	 0.98446959	 2.0150146178	 0.1577387553	 0.111183
H	-0.4501280709	 1.969410407	-0.8745817258	 0.11859
H	-0.6290240421	 1.9870656841	 0.8828302658	 0.115739
H	 0.6622397887	-0.2991850294	-0.7229458026	 0.0953
H	 0.4756798386	-0.2736458807	 1.0214742838	 0.093807
H	-2.0201939678	-0.1599025217	 0.7479965678	 0.075539
H	-3.0112381635	 0.1364739013	-1.3897968914	 0.104614
H	-1.4416658053	-0.0136359228	-2.2052540499	 0.094576
H	-3.0069198798	-2.252674145	-2.4773070958	 0.072337
H	-1.1433547029	-2.5969294511	 0.9852482139	 0.070063
H	-0.1143952253	-2.1509036772	-1.7839573042	 0.063333
H	-1.8526983114	-4.5898292941	-1.071845195	 0.13578
H	-0.915857716	-4.4113198594	-2.5683509297	 0.111083
H	-0.0794369749	-4.5578426539	-1.0190874703	 0.111529
93.7574	128.2015	194.0815	237.1067	257.609	265.7202	274.6854	362.8605	430.1904	485.8538	594.8061	679.6363	776.0031	793.8988	832.0007	837.3713	874.0203	909.7315	938.3731	952.0433	957.6316	978.1035	1037.2702	1039.9639	1062.9729	1081.3199	1096.3493	1116.5205	1128.9247	1197.1466	1204.1237	1230.6859	1240.796	1257.2942	1285.1093	1292.698	1304.8806	1318.9169	1350.069	1386.757	1400.4106	1406.6512	1412.7775	1482.295	1491.935	1497.2396	1500.594	1506.091	1507.1832	3012.268	3031.7049	3032.6299	3036.6576	3049.2255	3054.7315	3058.9999	3090.8358	3099.2473	3103.1867	3104.3003	3109.0541	3114.2109	3125.0893
CCC1CC2OC1C2C	CC[C@H]1C[C@@H]2O[C@H]1[C@H]2C	
InChI=1S/C8H14O/c1-3-6-4-7-5(2)8(6)9-7/h5-8H,3-4H2,1-2H3	InChI=1S/C8H14O/c1-3-6-4-7-5(2)8(6)9-7/h5-8H,3-4H2,1-2H3/t5-,6-,7-,8-/m0/s1
