21
gdb 112050	2.379	1.41327	1.02991	1.6611	83.24	-0.2354	0.0154	0.2508	1223.3984	0.183203	-387.080867	-387.072137	-387.071193	-387.11444	33.898	
O	 0.0911652303	 1.4694406516	-0.009807799	-0.424607
C	 0.0610209941	 0.0565486665	 0.1207189157	-0.065094
C	-1.3689143776	-0.51890604	 0.0627493945	-0.14009
C	-2.0299776376	-0.2314180844	-1.2689242796	-0.089578
C	-2.1644735732	-1.3243018156	-2.0191247066	-0.066299
C	-1.654360115	-2.5601222674	-1.3192350976	-0.334563
C	-1.4142189256	-2.0591087183	 0.1138371168	 0.362397
C	-0.6134076983	-2.8679921886	 1.1012772003	-0.321463
C	-2.1095243251	-2.7519913162	 1.2594730181	-0.308259
H	-0.1745698134	 1.6838548915	-0.909411832	 0.282378
H	 0.684654709	-0.4317299947	-0.6442197269	 0.086639
H	 0.5107581698	-0.1579351029	 1.0951579548	 0.105253
H	-1.9294485936	-0.071194094	 0.8934408976	 0.07903
H	-2.3279684931	 0.7686607258	-1.5661265929	 0.090649
H	-2.5757178186	-1.34953118	-3.0224782156	 0.093037
H	-2.3689180762	-3.3919924796	-1.3544906687	 0.104071
H	-0.7327480108	-2.9282840176	-1.7938968751	 0.106393
H	-0.2047946794	-3.8163394419	 0.7666674809	 0.108863
H	 0.0150181147	-2.3488355369	 1.8171148654	 0.112689
H	-2.4884267418	-2.1405801032	 2.0725250274	 0.111026
H	-2.7184678986	-3.6221500341	 1.0352623825	 0.107526
63.9238	99.8663	176.5013	236.1995	284.7485	303.2344	334.7774	385.0105	461.2886	513.0408	549.904	734.1533	767.3967	779.2287	808.6333	851.2459	880.114	926.6045	950.3745	978.731	983.7454	991.9816	1027.4195	1039.6258	1058.1446	1073.3703	1079.2043	1088.199	1130.6335	1184.3465	1189.7974	1190.6895	1245.1774	1264.7312	1290.4508	1326.3708	1372.034	1375.1471	1388.5708	1416.3751	1468.4182	1486.8767	1497.9234	1505.0471	1683.5329	2983.2711	2996.2907	3021.9841	3038.5555	3078.3913	3120.047	3126.4501	3175.1547	3198.0901	3201.6482	3213.4025	3820.671
OCC1C=CCC11CC1	OC[C@H]1C=CCC21CC2	
InChI=1S/C8H12O/c9-6-7-2-1-3-8(7)4-5-8/h1-2,7,9H,3-6H2	InChI=1S/C8H12O/c9-6-7-2-1-3-8(7)4-5-8/h1-2,7,9H,3-6H2/t7-/m1/s1
