18
gdb 52336	6.77199	0.5899	0.56205	5.1075	77.72	-0.2442	-0.018	0.2263	1908.5663	0.145985	-439.085512	-439.076127	-439.075182	-439.122303	31.857	
O	-1.3538085806	 1.1881510777	 0.1462246328	-0.235855
C	-0.1748008869	 1.1832684249	-0.0987378755	 0.153887
C	 0.4646558774	 1.8230130978	-1.3081977639	-0.255328
C	 1.5520003934	 2.838037303	-0.9134996444	-0.185
N	 2.1899996863	 3.3692938451	-2.112210757	-0.325562
C	 3.4384044785	 3.4117680142	-2.1699804311	 0.464642
C	 4.4501120512	 3.8644840295	-3.2010326931	-0.373548
C	 5.4783686115	 3.4150290575	-2.142849585	-0.077189
O	 4.3955862828	 3.0282073417	-1.2419039217	-0.261112
H	 0.5468699282	 0.6806081669	 0.5890532111	 0.069375
H	 0.9369457625	 1.024153568	-1.8972603505	 0.120052
H	-0.3056877198	 2.2932448817	-1.9235552698	 0.129928
H	 1.0802082895	 3.6731577139	-0.380463472	 0.123443
H	 2.2681648878	 2.3735541502	-0.2218846113	 0.115529
H	 4.4390840991	 3.2986898684	-4.1338732584	 0.14145
H	 4.4282424598	 4.9325245583	-3.4231978963	 0.142713
H	 6.0962512242	 2.5524393523	-2.4031844737	 0.12588
H	 6.0927848151	 4.2007704088	-1.69740088	 0.126693
23.849	55.5426	61.8521	116.3981	155.1397	219.6583	285.7786	337.6481	505.0262	534.5734	575.5328	745.1673	790.3336	793.4249	863.7331	906.4016	962.7815	984.0161	1005.8592	1057.267	1071.3729	1089.8966	1112.1273	1152.3099	1159.2441	1200.0851	1218.3021	1243.3593	1275.1129	1312.1203	1351.2052	1391.8515	1432.2276	1465.1485	1467.3538	1501.6485	1521.687	1833.9478	1842.6133	2844.8346	3005.9428	3020.3958	3049.2526	3065.9725	3089.5551	3116.8452	3119.8755	3145.5601
O=CCCN=C1CCO1	O=CCCN=C1CCO1	
InChI=1S/C6H9NO2/c8-4-1-3-7-6-2-5-9-6/h4H,1-3,5H2	InChI=1S/C6H9NO2/c8-4-1-3-7-6-2-5-9-6/h4H,1-3,5H2
