25
gdb 97579	2.88765	0.71453	0.60634	0.1456	99.26	-0.2393	0.0581	0.2974	1985.4341	0.226069	-352.35017	-352.338221	-352.337277	-352.389391	42.631	
C	-0.4739929169	 1.4407030177	 0.0420884884	-0.362202
C	 0.2383327308	 0.0893868631	-0.1505536231	-0.314937
C	 0.8812903996	-0.3989501486	 1.0662111235	 0.088819
C	 1.3982177724	-0.7762979437	 2.088061011	 0.041816
C	 2.0322473295	-1.2842784816	 3.307648876	-0.134648
C	 1.8056901543	-2.8079270224	 3.4112097433	-0.397841
C	 3.5351025763	-0.8808424212	 3.3756991233	 0.057205
C	 3.7026645563	 0.6427146424	 3.3063682776	-0.392549
C	 4.223635166	-1.4320763338	 4.6322260546	-0.401857
H	 0.2340636113	 2.2109747434	 0.3599613802	 0.126138
H	-0.9399570505	 1.765080503	-0.8933927261	 0.11164
H	-1.2520524395	 1.3637674976	 0.8064884471	 0.126444
H	-0.4847347311	-0.6563018662	-0.5061501236	 0.125329
H	 0.9872499665	 0.1824730806	-0.9478359193	 0.125258
H	 1.5351311694	-0.8133817045	 4.1700698012	 0.093413
H	 2.1317648739	-3.1948069792	 4.3797474835	 0.114573
H	 0.7448543507	-3.0423042991	 3.2917822083	 0.121497
H	 2.3555241652	-3.334102125	 2.6240311182	 0.120158
H	 4.022481387	-1.3194237296	 2.4940026719	 0.077246
H	 3.2485935013	 1.1243788258	 4.1813099267	 0.107219
H	 4.7625443976	 0.916683669	 3.2920748163	 0.105847
H	 3.2287697028	 1.05519888	 2.4125504359	 0.125606
H	 4.2500579987	-2.5245216396	 4.6514401149	 0.115333
H	 5.2582255905	-1.0779155918	 4.6847581867	 0.110271
H	 3.7134121777	-1.0907693863	 5.5415735935	 0.110224
9.3997	54.9765	83.6764	113.4767	191.1981	205.857	214.4508	225.7161	248.3679	290.2533	335.0629	360.8452	386.9568	415.2996	495.91	509.9557	558.0736	722.7358	785.5518	796.7184	906.5854	930.5755	947.9751	964.4359	984.1565	1025.3107	1077.1459	1086.6546	1105.0366	1136.0805	1162.9787	1188.697	1200.9113	1286.2239	1291.4077	1327.441	1350.3658	1351.7865	1366.4753	1398.3331	1405.8609	1407.812	1420.3666	1476.7434	1487.5409	1488.8252	1494.3399	1496.2111	1500.1106	1505.4142	1506.2115	1516.9992	2357.5102	2979.7764	3011.7565	3015.8215	3024.4383	3030.1623	3041.7572	3041.9074	3042.2739	3087.0105	3094.0284	3110.0951	3114.0863	3114.8287	3121.4984	3121.6413	3124.8758
CCC#CC(C)C(C)C	CCC#C[C@@H](C)C(C)C	
InChI=1S/C9H16/c1-5-6-7-9(4)8(2)3/h8-9H,5H2,1-4H3	InChI=1S/C9H16/c1-5-6-7-9(4)8(2)3/h8-9H,5H2,1-4H3/t9-/m1/s1
