16
gdb 49021	3.08837	1.59509	1.30961	2.3543	68.29	-0.2469	-0.0448	0.2021	970.6059	0.12401	-437.803453	-437.796227	-437.795283	-437.83525	27.785	
O	-0.8250104624	 1.0254820954	 0.396078957	-0.255931
C	 0.2536430146	 0.825330909	-0.1059735421	 0.09157
C	 1.3973003695	 1.7883799062	-0.0213552236	 0.193476
C	 1.3883173594	 2.8553125546	 1.0854719556	-0.147075
O	 1.6494985136	 3.9187146514	 0.1267903891	-0.290435
C	 1.5643418018	 2.9987525521	-0.9733159232	 0.06549
C	 2.882458242	 2.3671154941	-1.4458300722	-0.042661
C	 3.8023236599	 2.1279071679	-0.3244853579	-0.252081
N	 2.696256396	 1.1693206613	-0.5098497236	-0.197291
H	 0.4749455797	-0.0933348119	-0.6888010694	 0.095682
H	 0.3948012632	 2.9558042692	 1.5333508067	 0.138009
H	 2.1536714821	 2.7883029888	 1.8650975277	 0.116841
H	 0.8418446858	 3.2925887239	-1.7368943905	 0.102878
H	 3.1605748514	 2.230264146	-2.4858954905	 0.1048
H	 4.7631952021	 1.6819665039	-0.5609953516	 0.133719
H	 3.8137155014	 2.8104776079	 0.5176207385	 0.143007
90.8547	180.3565	214.7231	263.4694	342.6178	435.2868	449.2108	587.0791	670.5857	723.3627	743.8035	784.1916	858.1383	880.2222	931.9235	946.5846	976.7051	989.8264	1042.7177	1056.3311	1107.7099	1110.1643	1118.1081	1135.4072	1177.2462	1191.5892	1228.6229	1264.5479	1311.772	1342.4982	1360.0559	1404.9653	1497.5132	1516.4343	1813.8728	2918.9789	3041.9046	3098.9935	3100.2894	3136.2383	3165.6226	3223.3781
O=CC12COC1C1CN21	O=C[C@]12CO[C@H]1[C@H]1CN21	
InChI=1S/C6H7NO2/c8-2-6-3-9-5(6)4-1-7(4)6/h2,4-5H,1,3H2	InChI=1S/C6H7NO2/c8-2-6-3-9-5(6)4-1-7(4)6/h2,4-5H,1,3H2/t4-,5+,6+,7?/m1/s1
