23
gdb 89518	2.23124	1.69511	1.25783	1.5007	84.5	-0.247	0.08	0.3271	1134.886	0.207013	-388.296979	-388.288272	-388.287328	-388.329973	34.612	
C	 0.2978885663	 1.653917109	-0.1349488052	-0.417986
C	 0.04229062	 0.1578502854	-0.0111449522	 0.051999
C	 0.7313030951	-0.7689090099	-1.0531665644	-0.293682
C	 1.3036640107	-1.6606661328	 0.0914860857	 0.34839
C	 0.7980615163	-3.0934577408	 0.133911183	-0.487092
C	 2.8215011909	-1.5222698457	 0.2686788961	-0.137158
O	 3.0351891067	-0.2241609768	 0.8089961465	-0.254203
C	 1.9945632057	-0.0276656531	 1.7635286177	-0.098922
C	 0.7341293293	-0.6359234062	 1.1440301816	-0.098835
H	 1.3701595911	 1.866923664	-0.1932353753	 0.132208
H	-0.1690238257	 2.0497595214	-1.043732919	 0.110883
H	-0.1140720191	 2.2080367228	 0.7163888177	 0.108971
H	-1.0372362377	-0.0225796899	 0.014771191	 0.067062
H	 0.0606919214	-1.2812408247	-1.7486031368	 0.090596
H	 1.5091054155	-0.2619328781	-1.6325214055	 0.098825
H	 1.2002409839	-3.6807379432	-0.7007218946	 0.116072
H	 1.0900395318	-3.5937814963	 1.064396804	 0.112899
H	-0.2940284843	-3.1307152073	 0.0622245478	 0.115347
H	 3.1991273971	-2.295097127	 0.9608880469	 0.078301
H	 3.3825246869	-1.5917936041	-0.6683401987	 0.104061
H	 2.2375424387	-0.5468703905	 2.7056347191	 0.083866
H	 1.9314934489	 1.0436371497	 1.9711239945	 0.107364
H	 0.0564878508	-1.031506136	 1.90446729	 0.061032
64.8051	205.405	227.258	249.2383	251.4651	292.6094	305.2221	382.0186	403.645	472.5427	572.5991	585.1351	731.0347	756.6292	823.8173	862.1645	888.5121	909.0719	944.5118	950.5821	970.186	997.4091	1018.8823	1031.9318	1071.2282	1113.9319	1127.1957	1167.5238	1179.0957	1189.5341	1210.7147	1241.417	1270.3735	1283.6199	1288.4158	1291.7354	1333.5051	1356.2698	1368.767	1400.0141	1410.0644	1414.6969	1482.1128	1493.8772	1494.375	1495.1599	1499.2651	1507.6602	1518.3218	2950.2567	2965.4236	3019.5417	3024.8242	3040.6766	3046.2329	3076.1061	3079.4899	3082.5448	3086.9748	3092.7198	3093.3195	3098.9546	3105.6311
CC1CC2(C)COCC12	C[C@H]1C[C@@]2(C)COC[C@@H]12	
InChI=1S/C8H14O/c1-6-3-8(2)5-9-4-7(6)8/h6-7H,3-5H2,1-2H3	InChI=1S/C8H14O/c1-6-3-8(2)5-9-4-7(6)8/h6-7H,3-5H2,1-2H3/t6-,7-,8-/m0/s1
