23
gdb 100184	2.05634	1.25561	1.17787	2.8824	81.61	-0.252	-0.0363	0.2157	1274.5879	0.202451	-425.444882	-425.433891	-425.432946	-425.480476	40.677	
C	-0.1758968381	 1.6038537013	 0.1511777062	-0.415619
C	-0.1007401298	 0.0883627513	-0.0709866409	-0.193233
C	 0.7055399065	-0.4106768168	-1.312520005	 0.134001
C	-0.0127712859	-0.0041754208	-2.6126612826	-0.449775
C	 2.0717236785	 0.2585361974	-1.2851324936	 0.161227
O	 3.0794433841	-0.2132616315	-0.8076098189	-0.28615
C	 0.8470897726	-1.9628430958	-1.2004176965	 0.125571
C	 1.5428723847	-2.6262607342	-2.3957794762	-0.42968
O	 1.4732627162	-2.3390731431	 0.0160104482	-0.444847
H	 0.806964038	 2.040942162	 0.3559165232	 0.124133
H	-0.6068298325	 2.1350110598	-0.7035590986	 0.118171
H	-0.8089782526	 1.8184811359	 1.0174126874	 0.124011
H	 0.3321510948	-0.3930289799	 0.8092254362	 0.132085
H	-1.1170746322	-0.3124460865	-0.1770374341	 0.098936
H	-0.1980639599	 1.0734776713	-2.6460599869	 0.122806
H	 0.5652961764	-0.2644223705	-3.5035527296	 0.126506
H	-0.9815196632	-0.5095502777	-2.6812585263	 0.126256
H	 2.1074665685	 1.2718483792	-1.7444069805	 0.090103
H	-0.1735718447	-2.3624693054	-1.1318798428	 0.080794
H	 2.5463106666	-2.2178575474	-2.5511662269	 0.124937
H	 1.6428419207	-3.6950554615	-2.190022379	 0.128059
H	 0.9737827144	-2.5108180337	-3.3226494084	 0.1118
H	 2.3460496969	-1.9206327835	 0.0018719154	 0.289907
73.7453	83.5512	119.7051	188.3886	205.1897	233.073	252.7375	260.9088	313.382	319.2058	351.7268	354.172	436.3391	464.3336	486.7021	590.6096	611.0483	757.1887	780.3301	842.6811	908.9073	929.3521	998.6486	1004.067	1024.6347	1039.0298	1066.6624	1104.0275	1123.0487	1188.5848	1192.52	1238.7574	1300.9068	1327.2413	1349.7448	1372.0456	1404.9852	1408.3744	1417.1123	1440.0835	1453.7295	1486.3512	1494.5425	1498.4338	1500.6267	1503.8668	1506.7222	1515.4632	1798.1292	2878.3276	3016.689	3026.3334	3035.5301	3040.5118	3044.4534	3090.6946	3104.2458	3108.1532	3111.2011	3114.4073	3118.7701	3123.2477	3731.3982
CCC(C)(C=O)C(C)O	CC[C@@](C)(C=O)[C@@H](C)O	
InChI=1S/C7H14O2/c1-4-7(3,5-8)6(2)9/h5-6,9H,4H2,1-3H3	InChI=1S/C7H14O2/c1-4-7(3,5-8)6(2)9/h5-6,9H,4H2,1-3H3/t6-,7+/m1/s1
