15
gdb 43101	3.27724	1.95856	1.69496	3.2197	63.2	-0.228	-0.0172	0.2107	813.7492	0.115473	-457.752346	-457.74663	-457.745686	-457.782299	24.094	
O	 0.0040742673	 0.0246892221	-0.0003242873	-0.327728
C	-0.0151104886	 1.2173321212	 0.0089594032	 0.51128
C	-1.1479550539	 2.2627478736	 0.0479097421	-0.088617
O	-0.7847000032	 2.7458593679	 1.3633665199	-0.276111
C	 0.4707852518	 3.3666556581	 0.9853359888	 0.050967
C	-0.0670618373	 4.4461220235	 0.0341364147	-0.213861
C	-0.5701289206	 3.3648679462	-0.9339108492	 0.050966
O	 0.7045894782	 2.7907562245	-1.3212480869	-0.276112
C	 1.0835156413	 2.299123005	-0.0133923871	-0.088616
H	-2.187667249	 1.9564064003	-0.0026308953	 0.108494
H	 1.0458611087	 3.6351264287	 1.8672320832	 0.101486
H	-0.8348295026	 5.0429438464	 0.5275776017	 0.118937
H	 0.6809785417	 5.0749588301	-0.4497514263	 0.118936
H	-1.1537618539	 3.6284117412	-1.8116620676	 0.101487
H	 2.1325551402	 2.0256297013	 0.0326325262	 0.108494
170.4063	325.2418	492.6777	507.4769	538.1131	574.5148	632.8339	750.8522	802.3264	808.9946	825.723	864.3245	891.4562	899.8865	919.2294	919.4115	969.0182	970.8505	1020.4616	1029.5101	1101.689	1124.3355	1147.3594	1197.4239	1208.7356	1236.1193	1236.8424	1275.896	1280.6499	1309.3438	1322.2896	1466.5001	1907.6866	3090.3877	3156.1714	3167.0777	3169.2877	3186.5255	3189.3587
O=C1C2OC3CC2OC13	O=C1[C@H]2O[C@@H]3C[C@H]2O[C@H]13	
InChI=1S/C6H6O3/c7-4-5-2-1-3(9-5)6(4)8-2/h2-3,5-6H,1H2	InChI=1S/C6H6O3/c7-4-5-2-1-3(9-5)6(4)8-2/h2-3,5-6H,1H2/t2-,3-,5+,6+/m1/s1
