18
gdb 45533	4.18181	1.27291	1.03986	4.0554	81.58	-0.238	-0.0255	0.2125	1146.6406	0.150825	-401.987572	-401.980355	-401.979411	-402.019373	28.518	
N	-0.0581584009	 1.2745555257	 0.0651767466	-0.550276
C	-0.0274854952	 0.014616456	-0.0477578612	 0.40967
O	 1.1285339967	-0.7353010574	-0.1947151718	-0.267145
C	 0.7680742979	-2.1024596363	-0.360018389	 0.050076
C	 1.2454736127	-3.1327378553	 0.6725010482	-0.244979
C	 0.1944301751	-4.2654585595	 0.4962869363	-0.212602
C	-1.1531331734	-3.5608546261	 0.101639582	-0.329302
C	-0.7208914819	-2.1515460658	-0.1645443576	 0.352118
C	-1.1741935852	-0.9102494031	 0.007674631	-0.355632
H	 0.8872267058	 1.6591402196	 0.037396589	 0.221172
H	 1.0722787936	-2.4165638405	-1.3700315754	 0.098357
H	 2.2706315946	-3.4766055069	 0.5175065951	 0.107926
H	 1.1778582891	-2.6886592413	 1.67125293	 0.117628
H	 0.5074617768	-4.9405965548	-0.3061239331	 0.112671
H	 0.0929084709	-4.8724042359	 1.3982701151	 0.113831
H	-1.6035102346	-4.0354998105	-0.7769314708	 0.124872
H	-1.8991810264	-3.6044788412	 0.8998748705	 0.127582
H	-2.1710649257	-0.5677918469	 0.243615665	 0.124033
95.4219	159.0521	199.9613	311.2251	355.3029	487.4289	528.3325	608.8212	668.7666	694.6155	725.4466	787.814	847.7871	858.7527	879.468	894.4029	900.5067	915.2038	989.7796	996.5585	1049.2466	1055.8052	1115.8016	1153.6997	1159.0536	1184.5951	1225.506	1247.7776	1279.5286	1300.614	1316.479	1339.8188	1348.8384	1379.0939	1475.1156	1491.7998	1505.9478	1717.1563	1757.2477	2991.2317	3045.4156	3056.0319	3060.8315	3087.085	3108.7183	3118.4158	3248.1234	3480.7389
N=C1OC2CCCC2=C1	[NH]C1=C[C]2[C@@H](O1)CCC2	
InChI=1S/C7H9NO/c8-7-4-5-2-1-3-6(5)9-7/h4,6,8H,1-3H2	InChI=1S/C7H9NO/c8-7-4-5-2-1-3-6(5)9-7/h4,6,8H,1-3H2/t6-/m0/s1
