16
gdb 47680	2.32368	1.80067	1.20378	3.6594	66.19	-0.2824	-0.0142	0.2683	1024.9872	0.125006	-475.06558	-475.057695	-475.056751	-475.098965	28.865	
N	 0.1560319558	 0.6458877741	 1.106054538	-0.470677
C	-0.1013156653	 0.0497408355	 0.0314816776	 0.404116
C	-1.4847177714	-0.4682881196	-0.3010744175	-0.258321
C	-1.5478162655	-1.4099535118	-1.5065575553	-0.258348
C	-0.6706561289	-2.6433304871	-1.3182359657	-0.076668
O	 0.6440213808	-2.299021997	-0.8305745448	-0.253307
C	 1.259300734	-1.2592794447	-1.4540905079	 0.442747
O	 2.1132860085	-1.3606142261	-2.2757418019	-0.330742
O	 0.8650618682	-0.0400882952	-0.9886789326	-0.246915
H	 1.1279248121	 0.9587801416	 1.1275861649	 0.239932
H	-1.8763727095	-0.9483099775	 0.6006928562	 0.146127
H	-2.121275872	 0.4045260384	-0.4840470918	 0.145537
H	-2.5796629035	-1.7368574953	-1.6701715757	 0.119251
H	-1.2464028341	-0.8737236007	-2.4136541119	 0.134862
H	-1.07546588	-3.3079650061	-0.5512620488	 0.132025
H	-0.5673775792	-3.2065551083	-2.2527055028	 0.13038
52.7331	72.8869	156.0012	260.3793	313.2112	380.8058	470.534	518.7366	552.9709	582.3771	671.6609	734.089	834.1866	868.1061	885.051	910.6747	926.0961	939.3807	1039.136	1063.4329	1108.1116	1119.2966	1127.1663	1218.7439	1243.3313	1291.2671	1316.7902	1358.1302	1391.0528	1414.3827	1463.8835	1489.1051	1508.7864	1772.6163	1893.1462	3041.7519	3048.6335	3053.9742	3084.8503	3098.8174	3112.9552	3481.9253
N=C1CCCOC(=O)O1	[NH][C]1CCCOC(=O)O1	
InChI=1S/C5H7NO3/c6-4-2-1-3-8-5(7)9-4/h6H,1-3H2	InChI=1S/C5H7NO3/c6-4-2-1-3-8-5(7)9-4/h6H,1-3H2
