16
gdb 11028	4.30705	1.83223	1.49782	2.3518	64.73	-0.2498	-0.0095	0.2403	858.3873	0.130193	-383.726798	-383.719573	-383.718629	-383.757873	28.049	
C	-0.1650876455	 1.4874027014	 0.0678571466	-0.494377
C	 0.1493304808	 0.0220484669	-0.013557157	 0.390026
O	-0.6548935925	-0.8562924755	 0.8346653342	-0.30876
C	 0.7650444779	-0.7895005743	 1.0417717096	-0.071754
C	 1.4803187754	-1.9818378697	 0.3949041115	 0.081461
O	 0.9645178306	-3.2278064346	 0.8328501977	-0.434528
C	 1.2408250924	-1.7387074416	-1.091627082	-0.122452
C	 0.5069904579	-0.6481189676	-1.3124269231	-0.12849
H	 0.6702031857	 2.0826408047	-0.3158382539	 0.129174
H	-1.0503154855	 1.7266989948	-0.5315403078	 0.131194
H	-0.3630180495	 1.7816105439	 1.1010458156	 0.135162
H	 1.0827488581	-0.3976542256	 2.0041991319	 0.097153
H	 2.5471686954	-1.9924706706	 0.6449628167	 0.092146
H	 0.0035889197	-3.1391767205	 0.7737513436	 0.289474
H	 1.5738894931	-2.4510116798	-1.8377214423	 0.110207
H	 0.1675872661	-0.282425072	-2.2748812812	 0.104366
130.2629	192.3814	220.3071	275.1734	355.9072	427.7389	476.3754	534.8049	553.7135	631.4591	708.4431	758.6874	836.2968	855.9692	877.7242	922.7661	959.7468	998.7288	1033.531	1052.4148	1081.8563	1093.5104	1137.8553	1237.4877	1269.5836	1282.4593	1309.7762	1358.5764	1410.3013	1431.5085	1451.0743	1484.7316	1495.4864	1669.6272	3036.7621	3052.1358	3098.372	3128.3595	3151.4635	3188.8182	3214.1616	3761.9406
CC12OC1C(O)C=C2	C[C@]12O[C@H]1[C@@H](O)C=C2	
InChI=1S/C6H8O2/c1-6-3-2-4(7)5(6)8-6/h2-5,7H,1H3	InChI=1S/C6H8O2/c1-6-3-2-4(7)5(6)8-6/h2-5,7H,1H3/t4-,5-,6+/m0/s1
