19
gdb 41561	2.93698	1.86952	1.82416	1.6811	77.12	-0.236	0.017	0.253	874.8243	0.163416	-385.873063	-385.866868	-385.865924	-385.903237	26.888	
C	 0.0101165925	 1.546328908	 0.1605969113	-0.090746
O	 1.4541403051	 1.5609209896	 0.0828201013	-0.293231
C	 1.5058133037	 0.1253649771	-0.0481451085	 0.138847
C	-0.0393837357	 0.0199880936	-0.0516093878	-0.068427
C	-0.3406851724	-0.5934573129	-1.4640451385	-0.076452
C	 0.8603250097	-1.576974686	-1.5493003091	-0.209555
C	 1.9229648076	-0.448657443	-1.4441069149	-0.104563
C	 1.4043541711	 0.5075175345	-2.5050688698	-0.052319
C	 0.0712463788	 0.4129904103	-2.5271905817	-0.092086
H	-0.3386709417	 1.881586798	 1.1452931461	 0.094108
H	-0.4473831643	 2.1670300318	-0.6181607112	 0.0984
H	 2.0658949807	-0.337649554	 0.7718540241	 0.074408
H	-0.5077345178	-0.5568546317	 0.7468880206	 0.077801
H	-1.3391147741	-1.0197182588	-1.5657174679	 0.059065
H	 0.895991964	-2.290142302	-0.7173089975	 0.090848
H	 0.9080231974	-2.1172607135	-2.4975619535	 0.100409
H	 2.9709761376	-0.7382118871	-1.5224301257	 0.059821
H	 2.0239837434	 1.1962580866	-3.0638280738	 0.100106
H	-0.6182445356	 1.0068787695	-3.1138429235	 0.093568
188.7529	259.4632	370.8321	457.6365	494.1042	505.3421	660.8718	733.4617	756.053	764.1759	810.1387	842.5358	884.7411	901.9229	911.9293	940.1851	950.837	957.019	975.4888	996.1463	1016.1123	1034.1067	1067.0792	1084.679	1117.7971	1135.1738	1151.38	1166.8849	1174.7314	1243.8156	1272.3475	1277.4424	1284.8159	1287.1766	1301.7236	1345.043	1360.3504	1376.5012	1493.959	1512.6153	1645.5292	3016.0848	3037.8445	3042.4986	3063.205	3096.8345	3109.3212	3109.8598	3115.4551	3200.9204	3228.1954
C1OC2C1C1CC2C=C1	C1O[C@H]2[C@@H]1[C@@H]1C[C@H]2C=C1	
InChI=1S/C8H10O/c1-2-6-3-5(1)7-4-9-8(6)7/h1-2,5-8H,3-4H2	InChI=1S/C8H10O/c1-2-6-3-5(1)7-4-9-8(6)7/h1-2,5-8H,3-4H2/t5-,6+,7-,8+/m0/s1
