13
gdb 27492	2.12794	1.97398	1.03056	3.1597	63.93	-0.2956	-0.0701	0.2255	1068.2007	0.08844	-489.949174	-489.941361	-489.940416	-489.982486	27.467	
C	-0.1070284969	 1.4719858607	 0.083983407	-0.470668
C	 0.0484487469	-0.0010281791	-0.0755779485	 0.422952
N	-0.1936090111	-0.6077006508	-1.1749247347	-0.363613
C	-0.0209048114	-1.9821457493	-1.2266903543	 0.449037
O	-0.2060578889	-2.6738362474	-2.1744135005	-0.29873
O	 0.4150740103	-2.6139277357	-0.0405112257	-0.245572
C	 0.6667273046	-1.9447299329	 1.1091556065	 0.481543
N	 1.0571341548	-2.4508436159	 2.1838258657	-0.526478
O	 0.4678163884	-0.5843324315	 1.0703481099	-0.209107
H	 0.8475488594	 1.9139449189	 0.3862426693	 0.168789
H	-0.444309529	 1.9082349057	-0.8542210431	 0.170543
H	-0.8268843272	 1.6834828571	 0.880881548	 0.168797
H	 1.1660185002	-3.45798234	 2.0844484904	 0.252506
80.9328	88.2547	110.829	184.9075	304.7344	384.825	525.9156	535.9803	592.9722	602.0681	652.893	712.6339	791.3926	850.2682	863.533	920.453	982.8893	1064.8778	1068.3674	1071.3888	1138.7474	1320.375	1329.2076	1411.6982	1461.992	1470.1262	1705.2605	1794.7395	1908.1467	3055.0023	3115.0273	3181.8901	3538.2595
CC1=NC(=O)OC(=N)O1	CC1=NC(=O)O[C]([NH])O1	
InChI=1S/C4H4N2O3/c1-2-6-4(7)9-3(5)8-2/h5H,1H3	InChI=1S/C4H4N2O3/c1-2-6-4(7)9-3(5)8-2/h5H,1H3
