21
gdb 126529	5.16352	0.74078	0.6894	2.2111	87.25	-0.2252	0.0266	0.2518	1722.6782	0.183237	-383.303206	-383.293424	-383.29248	-383.339603	34.463	
C	 0.0582326051	 1.6081009481	-0.0894847388	-0.379065
C	 0.098190912	 0.0784021561	-0.0757094569	-0.148396
C	 0.6102949715	-0.4961780913	 1.2593455826	-0.314369
C	 0.6689699823	-1.995108091	 1.2861558653	 0.188935
C	-0.2562279481	-2.8786299076	 1.8111289833	-0.13468
N	 0.1943788384	-4.1351619982	 1.5650166707	 0.064926
C	-0.3857736333	-5.3877939156	 1.996237302	-0.31887
N	 1.3733496573	-4.1339398034	 0.9142213394	-0.271708
C	 1.6589036581	-2.845493706	 0.7414309172	-0.076994
H	 1.0546209436	 2.0325171059	 0.0781533798	 0.113453
H	-0.3084784059	 1.9892686171	-1.0476450403	 0.111436
H	-0.6000953625	 1.9952776085	 0.6965977169	 0.111786
H	-0.9024039066	-0.324580597	-0.2751632321	 0.096102
H	 0.7376436072	-0.2856409711	-0.8892093916	 0.100536
H	 1.6081979458	-0.0853155317	 1.4608003339	 0.102233
H	-0.0335301122	-0.1373848205	 2.0721350684	 0.095573
H	-1.1850615382	-2.7076904	 2.3338602657	 0.12303
H	-1.4633242449	-5.2638851117	 2.1232600431	 0.135806
H	-0.194774987	-6.1429977948	 1.2324821729	 0.155748
H	 0.0498270097	-5.7248696735	 2.9432892631	 0.140947
H	 2.5676876976	-2.5650791523	 0.2271168256	 0.103569
30.18	58.8395	83.1214	101.191	193.1055	241.3604	265.3542	307.2116	372.3427	415.7347	626.2987	659.3212	697.2319	741.8536	765.7027	794.8732	870.7415	877.3123	898.8601	1005.0675	1028.8361	1046.0489	1074.6692	1084.1321	1111.2715	1148.4841	1187.3264	1224.265	1260.8846	1307.1576	1322.5459	1346.3042	1377.5489	1401.1223	1411.2597	1421.6472	1447.1678	1472.8245	1482.7418	1485.0535	1493.1423	1499.0993	1510.0981	1520.2345	1608.1265	3014.1221	3026.1449	3029.2829	3038.8671	3042.6926	3065.5925	3094.5583	3100.8136	3112.0108	3150.1015	3231.8918	3248.0203
CCCC1=CN(C)N=C1	CCCc1cn(C)nc1	
InChI=1S/C7H12N2/c1-3-4-7-5-8-9(2)6-7/h5-6H,3-4H2,1-2H3	InChI=1S/C7H12N2/c1-3-4-7-5-8-9(2)6-7/h5-6H,3-4H2,1-2H3
