21
gdb 117852	2.25066	1.09157	0.97791	2.1892	71.02	-0.2455	0.0656	0.311	1352.0884	0.180112	-498.476512	-498.465698	-498.464754	-498.512969	38.889	
C	-0.4433695705	 1.375883184	-0.5960560701	-0.230386
O	-0.7301860367	 0.0017408792	-0.7433426035	-0.252199
C	-0.8061476983	-0.6892540521	 0.4944538424	-0.093287
C	-1.0799830461	-2.1697140416	 0.2224604617	 0.269468
O	-0.9534805865	-2.813448378	 1.4843110045	-0.478777
C	-2.502611897	-2.3776364204	-0.3166342858	-0.09735
O	-2.7912746834	-3.7685773131	-0.4277013307	-0.441022
C	-0.0291509481	-2.7659856967	-0.7426547462	-0.107307
O	-0.2347524671	-2.4091731674	-2.0975611076	-0.430716
H	-0.4147809046	 1.8142132786	-1.5960489534	 0.132988
H	-1.2186539828	 1.8840329482	-0.0040649406	 0.115691
H	 0.5281902393	 1.5347882858	-0.1050664689	 0.115172
H	 0.1412921692	-0.5992844694	 1.0479328828	 0.106105
H	-1.6031757827	-0.2642198234	 1.1242163705	 0.098714
H	-1.4350045424	-3.6470243157	 1.3944318415	 0.289442
H	-3.2160384693	-1.9740984995	 0.4097073215	 0.108393
H	-2.6367363767	-1.8580632063	-1.2696956452	 0.1122
H	-2.3920636029	-4.0760339508	-1.2487863029	 0.30019
H	 0.9747785484	-2.4887330781	-0.3861424873	 0.092395
H	-0.0953461208	-3.8579290764	-0.6894921892	 0.097959
H	-0.257599481	-1.4430213972	-2.1111736635	 0.292327
39.2063	74.7597	100.5831	153.6764	193.2358	214.1102	237.4881	294.502	340.687	359.278	377.7754	402.0588	426.44	508.8561	537.1789	579.4712	626.539	781.5551	902.3073	959.5646	967.9814	986.0215	1067.3188	1077.2778	1112.3455	1122.2409	1157.3999	1173.8096	1199.1118	1210.8283	1230.6511	1250.2174	1296.2107	1360.8046	1365.0012	1399.3252	1417.9633	1437.6429	1451.244	1482.5056	1485.1925	1485.4088	1501.2625	1509.515	1526.0042	2975.0005	2987.3507	2991.1261	3015.6252	3036.8106	3047.3095	3070.2344	3100.9449	3122.1751	3757.9988	3760.129	3812.7905
COCC(O)(CO)CO	COCC(O)(CO)CO	
InChI=1S/C5H12O4/c1-9-4-5(8,2-6)3-7/h6-8H,2-4H2,1H3	InChI=1S/C5H12O4/c1-9-4-5(8,2-6)3-7/h6-8H,2-4H2,1H3
