16
gdb 45002	2.4359	1.74964	1.14624	3.8823	71.25	-0.2544	-0.0289	0.2255	1040.1148	0.125094	-437.903452	-437.896002	-437.895058	-437.93585	28.648	
N	-0.0626034354	 1.3169555176	-0.1865413455	-0.496353
C	 0.0026096838	 0.076121277	 0.0367499791	 0.382507
C	-1.2466595862	-0.7787610656	 0.0412769292	-0.411815
C	-1.229700514	-1.8992291185	 1.0740945437	 0.404802
O	-2.1888882206	-2.161657787	 1.7610562107	-0.316612
C	 0.0671688547	-2.613854066	 1.1916286648	-0.171046
C	 0.8160798512	-3.0208726397	-0.0880600892	-0.32703
C	 1.2958270737	-1.8677617782	 0.7175319982	 0.114013
O	 1.2060058996	-0.5474757971	 0.2399681681	-0.248333
H	 0.8711421214	 1.7319963428	-0.1735483836	 0.225571
H	-2.1145739647	-0.1413647027	 0.2015344882	 0.164989
H	-1.3508138743	-1.233500814	-0.9538493941	 0.151365
H	 0.1501379823	-3.2623346518	 2.0554401435	 0.121464
H	 1.3767522296	-3.9474420204	-0.0489055503	 0.139585
H	 0.3364756031	-2.8214206977	-1.0391128526	 0.13809
H	 2.2064677859	-1.9727415887	 1.2951108297	 0.128803
68.5823	106.7048	218.7647	360.9521	401.0457	439.3977	475.4648	514.2609	537.6894	589.739	695.2324	755.083	809.4051	845.2857	874.707	906.4646	929.5948	983.432	1001.3089	1031.0216	1047.546	1083.6963	1125.2484	1173.8291	1174.6674	1226.5758	1257.4739	1279.6457	1323.4655	1359.5265	1410.6965	1444.8433	1477.9302	1754.0683	1814.5613	3024.04	3146.4885	3156.3128	3184.7222	3193.0749	3236.9342	3470.5109
N=C1CC(=O)C2CC2O1	[NH][C]1CC(=O)[C@H]2C[C@H]2O1	
InChI=1S/C6H7NO2/c7-6-2-4(8)3-1-5(3)9-6/h3,5,7H,1-2H2	InChI=1S/C6H7NO2/c7-6-2-4(8)3-1-5(3)9-6/h3,5,7H,1-2H2/t3-,5-/m1/s1
