20
gdb 9683	5.00575	1.05143	0.99463	1.9832	72.23	-0.2389	0.0637	0.3027	1254.6095	0.175076	-386.124189	-386.114685	-386.113741	-386.158197	34.912	
C	 0.2865106909	 1.448094264	 0.2235828109	-0.372446
C	-0.2089211008	 0.051712378	-0.168325703	-0.194191
C	 0.5390987368	-0.5192389166	-1.3564590424	-0.054483
C	 1.8862014795	-1.2003017162	-1.1689528414	-0.346533
C	 0.6612064019	-1.999318827	-1.5567158276	 0.422925
O	 0.0663466539	-2.8109372466	-0.5820922303	-0.476234
C	 0.5576828164	-2.5943773475	-2.9367317995	-0.147049
O	 1.1874395497	-3.8755486718	-2.8783865773	-0.432615
H	 1.3480814375	 1.4277711416	 0.4917887173	 0.116441
H	 0.1687236692	 2.158587653	-0.6024532571	 0.108779
H	-0.270700465	 1.8393810897	 1.0806337122	 0.108975
H	-0.1121040851	-0.6358361281	 0.6770924467	 0.114998
H	-1.2804317756	 0.094258994	-0.4028485405	 0.094921
H	 0.4368255824	 0.0654334354	-2.2695945747	 0.075915
H	 2.670515708	-1.0387572251	-1.9008441581	 0.106193
H	 2.2306339616	-1.3293429268	-0.1482780843	 0.113021
H	 0.43924608	-3.6905059932	-0.7229740265	 0.287112
H	-0.5024680345	-2.6961362362	-3.211477326	 0.095308
H	 1.0462339897	-1.941983577	-3.6752528019	 0.087276
H	 0.8770510434	-4.4018163137	-3.6201920767	 0.291685
76.6042	97.3731	149.2656	175.3766	235.4554	246.987	285.0976	328.7036	362.7585	401.8539	433.6714	472.6542	642.6876	713.7116	784.7852	820.8414	896.5854	918.4332	954.9731	972.3467	1020.1459	1041.0967	1048.3895	1066.7235	1106.635	1131.2071	1195.3453	1209.0918	1242.6278	1259.2215	1288.4227	1316.1149	1340.2988	1385.4707	1409.3573	1428.2792	1452.8565	1489.7014	1497.6094	1505.3119	1508.2832	1512.3967	2983.8795	3023.6308	3026.5807	3029.6012	3078.5199	3099.6611	3103.4318	3116.9484	3128.0793	3218.2814	3775.8215	3840.5099
CCC1CC1(O)CO	CC[C@H]1C[C@]1(O)CO	
InChI=1S/C6H12O2/c1-2-5-3-6(5,8)4-7/h5,7-8H,2-4H2,1H3	InChI=1S/C6H12O2/c1-2-5-3-6(5,8)4-7/h5,7-8H,2-4H2,1H3/t5-,6-/m0/s1
