15
gdb 15058	2.96816	1.60349	1.10775	4.2193	62.09	-0.2886	0.0061	0.2948	1041.4316	0.116924	-399.765008	-399.756564	-399.75562	-399.798724	28.696	
C	 0.2570933577	 1.4110492111	 0.2031861319	-0.249131
O	-0.072697193	 0.0426785807	 0.0201444156	-0.234577
C	 0.4539746817	-0.5280821327	-1.1511827105	-0.036015
C	 1.9365208883	-0.5704716832	-1.1189746209	 0.270437
N	 3.0906212241	-0.588071947	-1.0703274607	-0.319808
C	-0.1173221527	-1.9310396105	-1.2692255072	 0.073885
C	-1.3523646619	-2.1610544349	-2.0216684453	-0.175931
O	-0.0742070441	-2.4999628849	-2.5694536605	-0.224169
H	 1.339697043	 1.5554646626	 0.3115665767	 0.140633
H	-0.1017723691	 2.0227427691	-0.6372864279	 0.115803
H	-0.24262986	 1.7306305449	 1.1190100421	 0.14224
H	 0.1618034039	 0.0435336034	-2.046990871	 0.119246
H	 0.1489877653	-2.5988096234	-0.4515328066	 0.123368
H	-1.9879779066	-3.0042176764	-1.7596581539	 0.130451
H	-1.8574650767	-1.3215063587	-2.4965934818	 0.123569
59.6474	97.7939	145.2936	174.7236	187.8359	252.6881	344.7032	399.2809	447.1931	538.3581	613.2859	851.6715	876.9447	916.4456	978.9616	1005.2471	1096.9004	1122.8221	1152.8021	1162.1735	1176.4209	1183.6187	1220.9109	1285.5498	1292.9612	1345.5744	1444.4544	1479.6948	1487.9638	1507.3418	1530.6897	2355.3815	2982.7719	2996.4643	3060.3091	3093.6834	3133.4438	3137.2449	3184.5555
COC(C#N)C1CO1	CO[C@@H](C#N)[C@H]1CO1	
InChI=1S/C5H7NO2/c1-7-4(2-6)5-3-8-5/h4-5H,3H2,1H3	InChI=1S/C5H7NO2/c1-7-4(2-6)5-3-8-5/h4-5H,3H2,1H3/t4-,5+/m0/s1
