15
gdb 83478	3.38747	1.09472	0.95381	2.4567	62.09	-0.2572	-0.0089	0.2483	1199.5283	0.110493	-494.853762	-494.845561	-494.844617	-494.887102	29.618	
O	-0.0924122118	 1.3705304807	-0.1204899546	-0.4276
C	-0.2028677052	-0.0120501398	-0.1312971284	 0.050602
C	-0.4663210234	-0.8030490375	 1.1139141581	-0.048446
O	-1.2730063274	-0.0101224723	 1.9952853128	-0.296527
C	-2.3881977531	-0.0408027968	 1.0531740999	-0.154994
C	-1.5227563789	-0.7502040849	 0.0209210766	 0.281919
O	-1.99191505	-1.753245115	-0.8201486032	-0.223337
C	-2.184270805	-1.4167583503	-2.1273847703	 0.149373
O	-2.6129022164	-2.1935144448	-2.9209850778	-0.258623
H	-0.263743894	 1.6490837579	 0.7897738057	 0.302882
H	 0.4780637355	-0.4882944601	-0.832952267	 0.127587
H	 0.1443243605	-1.5899293846	 1.5401342507	 0.129771
H	-3.1959396916	-0.6697718097	 1.4386630806	 0.136579
H	-2.7576054255	 0.9602398537	 0.8084335439	 0.123901
H	-1.8958555637	-0.3719663865	-2.3401697771	 0.106914
74.1052	124.934	149.4234	215.415	245.8013	342.5692	371.6281	417.0131	433.7649	550.0122	655.2996	776.399	790.6994	849.3812	935.3836	961.8858	989.5952	1016.7825	1049.398	1054.9956	1093.0124	1122.3544	1139.6592	1172.4051	1218.1362	1257.7367	1289.218	1316.724	1383.6669	1414.5876	1464.6462	1508.4587	1877.5958	2988.1347	3046.055	3106.3358	3152.1918	3192.3237	3752.9188
OC1C2OCC12OC=O	O[C@H]1[C@H]2OC[C@@]12OC=O	
InChI=1S/C5H6O4/c6-2-9-5-1-8-4(5)3(5)7/h2-4,7H,1H2	InChI=1S/C5H6O4/c6-2-9-5-1-8-4(5)3(5)7/h2-4,7H,1H2/t3-,4+,5+/m0/s1
