16
gdb 44091	3.79775	1.45607	1.20064	3.0366	68.58	-0.2183	-0.0333	0.185	1003.5021	0.124351	-437.822492	-437.815385	-437.814441	-437.854063	27.917	
O	 0.0538278894	 0.0405447613	 0.046898434	-0.283789
C	 0.0078475762	 1.2330105104	 0.0307153037	 0.426749
C	-1.1610929829	 2.2586727433	 0.0919461766	-0.46855
C	-0.106450785	 3.3453567284	 0.2692620407	 0.476453
O	-0.1588815999	 4.6732996505	-0.2021387432	-0.328557
C	 0.7654389806	 5.0911226689	 0.8463247264	-0.105358
C	 0.677271118	 3.7066200055	 1.5530121094	-0.108495
N	 1.6949906051	 2.6716434637	 1.2812399688	-0.324809
C	 1.0786324871	 2.3658842006	-0.0372553585	-0.210335
H	-1.6445938032	 2.3300225388	-0.8912386027	 0.147734
H	-1.929600598	 2.1174369005	 0.8550323326	 0.134838
H	 1.7545151885	 5.3435276804	 0.4451454544	 0.104841
H	 0.3628214894	 5.9426000584	 1.4039408256	 0.118011
H	 0.2697629256	 3.7110581951	 2.565944083	 0.094272
H	 2.658404422	 2.9862038336	 1.2456906059	 0.227746
H	 1.7075613872	 2.3997341506	-0.9300229669	 0.099249
91.6822	182.9397	259.3315	327.1429	372.5049	444.1008	463.1141	549.3632	627.2964	676.7044	744.1704	816.3026	829.3679	862.9583	903.5072	921.3744	977.6388	999.9969	1007.1786	1047.7102	1093.3667	1109.0811	1114.07	1145.2004	1162.7758	1186.5736	1236.0032	1265.1674	1293.5067	1326.8395	1351.2531	1376.4733	1432.9108	1509.4666	1900.1626	3025.2661	3039.2695	3080.3491	3090.0013	3095.1065	3114.0147	3532.4799
O=C1CC23OCC2NC13	O=C1C[C@@]23OC[C@@H]2N[C@@H]13	
InChI=1S/C6H7NO2/c8-3-1-6-4(2-9-6)7-5(3)6/h4-5,7H,1-2H2	InChI=1S/C6H7NO2/c8-3-1-6-4(2-9-6)7-5(3)6/h4-5,7H,1-2H2/t4-,5-,6+/m0/s1
