15
gdb 56110	4.31202	0.7058	0.62772	5.4718	68.14	-0.2664	-0.0855	0.1809	1657.8818	0.110163	-454.002141	-453.992294	-453.99135	-454.038956	33.051	
N	 0.0430062968	 1.3054141384	-0.1403181965	-0.523694
C	 0.045116924	-0.015742048	 0.1900164542	 0.417226
O	 1.028265074	-0.5818303348	 0.6282456289	-0.355069
C	-1.2919173785	-0.7294075815	-0.0174493338	-0.335718
C	-1.0947244025	-2.2380217637	-0.1218122072	-0.300586
C	-2.3456907891	-3.0244622355	 0.1696355291	 0.282565
O	-3.3930855441	-2.5644106479	 0.5507149351	-0.268344
C	-2.2150208933	-4.4856349662	-0.0368634965	 0.234107
N	-2.1080257414	-5.6242418436	-0.2069311354	-0.293848
H	 0.8662532805	 1.8482346197	 0.0639023949	 0.266817
H	-0.7907306307	 1.7847671154	-0.4316143067	 0.263261
H	-1.9349131935	-0.5061993698	 0.8419788574	 0.157399
H	-1.8122648335	-0.3346635811	-0.8959983423	 0.122891
H	-0.7164044976	-2.5408568645	-1.1062504106	 0.150122
H	-0.3128634011	-2.5516071869	 0.5840181694	 0.182872
32.296	46.2682	75.5736	117.2086	201.2305	208.2406	257.4337	277.9732	385.6032	489.1506	520.8971	569.7224	595.5677	622.2382	661.6563	797.9302	806.2556	900.1888	1021.947	1047.2645	1089.6472	1111.9955	1165.1117	1253.7402	1290.3076	1366.7918	1407.6716	1441.6976	1469.9394	1620.735	1794.171	1798.028	2339.0253	3031.8386	3049.4803	3061.0855	3090.0913	3602.2841	3737.5091
NC(=O)CCC(=O)C#N	NC(=O)CCC(=O)C#N	
InChI=1S/C5H6N2O2/c6-3-4(8)1-2-5(7)9/h1-2H2,(H2,7,9)	InChI=1S/C5H6N2O2/c6-3-4(8)1-2-5(7)9/h1-2H2,(H2,7,9)
