17
gdb 91572	2.9571	1.25007	1.04592	5.3139	72.37	-0.2526	0.0223	0.2748	1158.9341	0.13637	-417.973157	-417.964841	-417.963897	-418.006658	31.131	
O	 0.2823889566	 1.3239584949	-0.0724702189	-0.428302
C	 0.2032250352	-0.0565424953	 0.0989760604	 0.106612
C	 0.2244547382	-0.6526649078	 1.5637513487	-0.259476
C	-1.1660772493	-1.2261345362	 1.2981386632	-0.116451
N	-2.0177950302	-0.0560049612	 0.9487728144	-0.379359
C	-1.1862214149	-0.7011625794	-0.0944110509	 0.3294
C	-1.7815612593	-1.2584473667	-1.360787184	-0.489691
C	-2.2583272297	-0.2180863523	-2.2784002518	 0.272326
N	-2.6452909036	 0.5983464891	-2.9979152079	-0.298859
H	-0.4978619272	 1.6914305945	 0.3652341507	 0.294426
H	 0.9708187105	-0.5088346025	-0.534388202	 0.094503
H	 0.998563731	-1.41141192	 1.6966403599	 0.108516
H	 0.281082489	 0.0848330476	 2.3673800803	 0.114294
H	-1.6131996233	-2.129461809	 1.6948406566	 0.103436
H	-2.977206335	-0.3813297413	 0.8340535513	 0.235341
H	-1.0390270911	-1.8703708662	-1.8866993549	 0.161696
H	-2.6235659469	-1.9212281383	-1.1246963952	 0.151588
54.113	89.5382	167.2438	249.1832	284.7669	383.4789	390.8669	434.7359	484.9384	515.171	588.2042	680.0075	738.703	814.8937	876.912	895.14	915.7985	933.7409	970.1649	1008.0746	1031.1041	1048.2682	1106.9397	1133.9203	1163.1154	1183.421	1199.4541	1251.1431	1277.422	1317.0967	1332.6345	1361.0035	1420.1201	1446.9284	1453.4187	1478.309	2366.0206	3031.4177	3069.7413	3070.1083	3083.8566	3131.6194	3192.5838	3478.6031	3755.5327
OC1CC2NC12CC#N	O[C@H]1C[C@H]2N[C@@]12CC#N	
InChI=1S/C6H8N2O/c7-2-1-6-4(8-6)3-5(6)9/h4-5,8-9H,1,3H2	InChI=1S/C6H8N2O/c7-2-1-6-4(8-6)3-5(6)9/h4-5,8-9H,1,3H2/t4-,5+,6-/m1/s1
