16
gdb 16108	4.46814	1.63766	1.44274	1.0112	70.98	-0.2274	0.0485	0.2759	891.2049	0.130809	-346.558188	-346.551118	-346.550174	-346.589158	27.743	
C	-0.076936495	-1.2090648965	-0.3128827181	-0.390662
C	-0.0296408358	-0.0220047629	-0.1196234598	 0.174983
C	 0.0186669054	 1.3868392532	 0.114805206	 0.140286
C	 0.3634595279	 2.3465332878	-1.0314338778	-0.365558
C	 1.3137685785	 2.1869849134	 0.1177555189	 0.088069
O	 1.3044300917	 3.122378144	 1.153606705	-0.252128
C	-0.0492370118	 3.3052795744	 1.5751558812	-0.101386
C	-0.793719174	 1.9890075715	 1.2626146593	-0.304497
H	-0.1162725152	-2.2560558357	-0.483529509	 0.184761
H	 0.6435929701	 1.8826157265	-1.9699318735	 0.12982
H	-0.2106051925	 3.261464297	-1.1310772872	 0.120206
H	 2.2850406775	 1.7282209001	-0.0192715591	 0.11825
H	-0.0358056338	 3.5548032984	 2.6389610175	 0.117794
H	-0.5014632224	 4.1486046347	 1.0359544744	 0.103509
H	-1.8423117843	 2.1641697163	 1.00682338	 0.11379
H	-0.7612324463	 1.302159148	 2.1130531523	 0.122763
141.2175	154.5746	236.7932	298.5243	432.8872	479.589	520.4494	548.5924	575.0729	645.3501	683.2076	697.2213	840.1786	843.9008	889.213	923.4196	961.6515	1008.1843	1022.3598	1037.3062	1076.1866	1099.065	1174.7205	1214.0047	1233.6105	1244.3326	1264.2057	1319.4457	1370.1799	1409.1826	1473.4307	1495.2197	1529.283	2233.9206	3010.4485	3059.5201	3092.9887	3108.902	3137.779	3198.1691	3229.9002	3504.2864
C#CC12CC1OCC2	C#C[C@]12C[C@H]1OCC2	
InChI=1S/C7H8O/c1-2-7-3-4-8-6(7)5-7/h1,6H,3-5H2	InChI=1S/C7H8O/c1-2-7-3-4-8-6(7)5-7/h1,6H,3-5H2/t6-,7+/m1/s1
