21
gdb 95290	2.03577	1.79118	1.39022	2.4917	76.78	-0.2394	0.0613	0.3007	1065.987	0.182653	-424.22321	-424.214467	-424.213523	-424.256409	34.079	
C	-0.3428704342	 1.5104796225	-0.0193685439	-0.423754
C	 0.1108420784	 0.0530654084	-0.0266741274	-0.044422
C	 1.0767491425	-0.3213304246	-1.1626924123	-0.110097
O	 1.6917973743	-1.5405126172	-0.7609537997	-0.258191
C	 1.8829881737	-1.4727638518	 0.6393154645	 0.083512
C	 3.0522230258	-0.5694911222	 1.133268856	-0.249261
C	 2.0289977368	 0.3960196009	 1.7957556476	-0.29765
C	 0.8534050829	-0.4632968916	 1.2277945956	 0.372956
O	-0.0082215733	-1.0271311356	 2.1936368407	-0.486682
H	 0.5039298384	 2.2030426551	 0.022719558	 0.121188
H	-0.9167223309	 1.7468236029	-0.9214723131	 0.121667
H	-0.9902015998	 1.7232920103	 0.839109741	 0.10752
H	-0.7676716711	-0.597862927	-0.1114771143	 0.090364
H	 0.5781674144	-0.496467515	-2.1198423786	 0.111037
H	 1.8281967563	 0.4725588119	-1.3133841874	 0.08566
H	 1.8591925716	-2.4856178408	 1.0445227886	 0.087683
H	 3.7440536609	-1.0565926609	 1.8231026439	 0.104907
H	 3.6298521688	-0.1388943114	 0.3122299532	 0.107982
H	 2.042809795	 0.3650143709	 2.8872635422	 0.105829
H	 2.0751894941	 1.4393440507	 1.4749303785	 0.094309
H	-0.5533625746	-0.3211439155	 2.558237157	 0.275442
59.915	183.735	198.4446	234.1872	249.9172	258.1019	322.1438	405.1388	444.072	503.5491	548.4677	621.5346	658.124	728.1458	810.9663	839.9663	899.3223	923.4854	951.7401	955.2582	981.3477	1011.4712	1039.8005	1072.3634	1112.6896	1146.3376	1155.5206	1171.4233	1195.8389	1216.4994	1237.7975	1249.0868	1258.1431	1268.5724	1323.7188	1331.4828	1358.8971	1376.115	1404.3454	1414.3456	1466.388	1483.4322	1494.2892	1502.5572	1521.1311	2959.4131	3028.5561	3037.4014	3064.2979	3072.1046	3089.0656	3089.7569	3100.9709	3102.811	3113.475	3131.2736	3796.6005
CC1COC2CCC12O	C[C@H]1CO[C@H]2CC[C@@]12O	
InChI=1S/C7H12O2/c1-5-4-9-6-2-3-7(5,6)8/h5-6,8H,2-4H2,1H3	InChI=1S/C7H12O2/c1-5-4-9-6-2-3-7(5,6)8/h5-6,8H,2-4H2,1H3/t5-,6-,7+/m0/s1
