20
gdb 18013	4.17356	1.47581	1.34809	1.5906	74.5	-0.236	0.0801	0.3161	1019.7533	0.177619	-348.977685	-348.969842	-348.968898	-349.010138	29.81	
C	 0.2776074175	 1.467449714	 0.1219943622	-0.379774
C	 0.0359364632	-0.0433438123	 0.0295342774	-0.197452
C	 0.5386525479	-0.6193546411	-1.2812773722	 0.165556
O	 1.9807732304	-0.4948158052	-1.4458568418	-0.318743
C	 2.1039079227	-1.8778208199	-1.8348783548	 0.133056
C	 2.5223888591	-2.7938684227	-0.6629903299	-0.228316
C	 1.0143003857	-3.0446421048	-0.3401914652	-0.234615
C	 0.6011337688	-2.1421056154	-1.5369101784	-0.115851
H	 1.3437725201	 1.6889849577	 0.0201819773	 0.137804
H	-0.2535909377	 2.0030164851	-0.6726159565	 0.112219
H	-0.0649846718	 1.8656185409	 1.0816578539	 0.109394
H	 0.5337914629	-0.545748384	 0.8660207446	 0.100377
H	-1.0366803274	-0.2638716374	 0.1150912654	 0.094366
H	 0.0346794349	-0.1059962084	-2.1157857675	 0.067707
H	 2.5935703262	-1.9951919438	-2.8057843551	 0.070783
H	 3.0595148709	-3.6950227202	-0.9716200256	 0.098396
H	 3.1056131499	-2.2763341751	 0.101737852	 0.1089
H	 0.7151802695	-4.0856018367	-0.4821399184	 0.103037
H	 0.6674021688	-2.7291160075	 0.6461154049	 0.102874
H	-0.1123776618	-2.5501044232	-2.2520731821	 0.070284
76.4841	96.1042	177.7291	224.6843	287.7451	373.4172	430.5548	491.3022	649.3926	727.3809	773.9577	780.1951	833.5961	857.2412	922.131	928.0836	948.2542	966.1282	997.8803	1032.8729	1041.4929	1092.5777	1108.9462	1124.4205	1168.7359	1180.2361	1207.4437	1236.8387	1258.5551	1272.2484	1283.1453	1306.4852	1315.0277	1325.2001	1357.1498	1405.3038	1415.2967	1464.2301	1473.0971	1490.8945	1498.6578	1508.97	2968.2824	3021.7061	3036.3303	3055.5838	3064.7144	3068.7587	3071.7412	3103.608	3105.9801	3113.737	3118.6306	3126.6663
CCC1OC2CCC12	CC[C@H]1O[C@H]2CC[C@@H]12	
InChI=1S/C7H12O/c1-2-6-5-3-4-7(5)8-6/h5-7H,2-4H2,1H3	InChI=1S/C7H12O/c1-2-6-5-3-4-7(5)8-6/h5-7H,2-4H2,1H3/t5-,6+,7-/m0/s1
