24
gdb 118873	2.96283	0.99838	0.89244	1.6982	88.6	-0.2277	0.0805	0.3082	1460.1235	0.217126	-368.374413	-368.364755	-368.363811	-368.4088	37.201	
C	 0.0544800136	 1.6239058446	-0.0025144139	-0.378487
C	 0.0814945607	 0.0929508489	-0.0351244	-0.172836
C	 0.5903906504	-0.5181396332	 1.2783828656	-0.239661
C	 0.7375933877	-2.045132131	 1.2693082479	 0.329763
C	-0.6073432474	-2.7555012141	 1.0882003804	-0.452957
C	 1.8415827738	-2.6757352888	 0.3610970518	-0.215839
N	 2.4745825899	-3.4073711964	 1.5171472653	-0.127979
C	 2.9549721896	-2.351793974	 2.4256921342	-0.253716
C	 1.5150442824	-2.6698592035	 2.4397670382	-0.071026
H	 1.0548356249	 2.0347526406	 0.1739816275	 0.113381
H	-0.313315204	 2.0371791822	-0.9469037337	 0.111326
H	-0.5975668926	 1.9909323227	 0.7979712603	 0.114432
H	-0.9252386611	-0.279660764	-0.2569267516	 0.100003
H	 0.719505243	-0.2425217509	-0.8637158732	 0.097484
H	 1.5599246512	-0.0643275821	 1.5185152719	 0.08858
H	-0.0860234564	-0.2329993622	 2.0970799661	 0.090575
H	-1.0553802624	-2.5288107062	 0.1158832985	 0.117366
H	-0.4835056345	-3.8411266788	 1.1532380494	 0.124843
H	-1.318276606	-2.4506768984	 1.8652764778	 0.110734
H	 1.4602643409	-3.3847976643	-0.377006116	 0.106402
H	 2.5281135025	-1.9805907159	-0.1359204666	 0.095062
H	 3.5567512677	-2.7387672841	 3.24290986	 0.118668
H	 3.3181845785	-1.4165413074	 2.0047538321	 0.108195
H	 1.0471085574	-3.1731777437	 3.2822212479	 0.085687
84.8559	89.2281	137.6436	205.66	238.8803	253.0044	288.5666	325.5117	351.4444	407.173	465.9149	505.8711	663.6863	744.6301	745.8418	778.1149	848.7042	865.7442	905.2394	925.0628	941.9246	972.6685	980.1701	1005.2665	1049.5829	1056.1728	1060.5437	1102.4374	1111.2603	1118.7107	1186.6711	1195.4597	1217.0061	1229.3018	1265.7198	1289.2049	1296.7013	1323.2153	1337.6352	1378.2286	1394.3498	1410.1272	1413.867	1479.8922	1491.0559	1493.8263	1496.7617	1499.1049	1501.311	1509.4385	1515.3573	3004.0026	3021.4156	3026.1599	3029.0734	3034.7995	3041.1483	3063.7669	3092.6143	3096.574	3101.2386	3102.7519	3103.925	3106.5471	3138.1321	3191.2706
CCCC1(C)CN2CC12	CCC[C@@]1(C)CN2C[C@@H]12	
InChI=1S/C8H15N/c1-3-4-8(2)6-9-5-7(8)9/h7H,3-6H2,1-2H3	InChI=1S/C8H15N/c1-3-4-8(2)6-9-5-7(8)9/h7H,3-6H2,1-2H3/t7-,8-,9?/m0/s1
