16
gdb 131282	3.22215	1.40082	1.05886	2.1348	70.92	-0.2339	0.0246	0.2585	1109.5133	0.126564	-434.078741	-434.071147	-434.070203	-434.111583	28.472	
O	-0.1489502099	 1.3297643129	 0.1242898507	-0.42378
C	-0.012178601	 0.002268237	 0.0123164633	 0.46048
N	-0.0285539008	-0.7066156301	-1.0979654735	-0.384426
C	 0.1515538856	-1.9713017973	-0.6187700773	 0.038508
N	 0.2745335831	-2.0748662032	 0.6905131471	-0.267641
N	 0.1654119747	-0.7710023509	 1.0975242125	-0.032097
C	 0.2406514924	-0.3843273072	 2.4771689957	 0.057742
C	-0.3311479165	-1.2874242816	 3.5331610609	-0.278576
C	 1.1659565993	-1.1200775636	 3.4046824762	-0.278535
H	-0.2629465141	 1.6709539708	-0.7717588024	 0.321233
H	 0.1927733447	-2.8396865501	-1.2591782113	 0.127388
H	 0.1296507214	 0.6875102722	 2.5797498101	 0.127654
H	-0.8447473169	-0.8263328089	 4.3691359472	 0.120203
H	-0.7500752467	-2.2248484648	 3.1879689434	 0.145859
H	 1.7159580034	-1.9492072331	 2.9763388413	 0.145776
H	 1.6992015212	-0.5420040721	 4.1508232161	 0.120212
44.3545	139.1359	177.8702	307.4663	312.7119	388.6532	443.3791	530.2398	620.0299	678.3915	737.5205	753.4976	789.2863	815.304	897.2102	916.1062	953.7819	987.9896	1061.8204	1070.1539	1085.7394	1120.6296	1121.7804	1200.4247	1212.8283	1228.6056	1238.6604	1297.9071	1334.7086	1418.3704	1451.2756	1467.5802	1509.5648	1588.8381	1616.4032	3143.7871	3145.5491	3203.1638	3233.3739	3245.995	3259.2412	3806.0397
OC1=NC=NN1C1CC1	Oc1ncnn1C1CC1	
InChI=1S/C5H7N3O/c9-5-6-3-7-8(5)4-1-2-4/h3-4H,1-2H2,(H,6,7,9)	InChI=1S/C5H7N3O/c9-5-6-3-7-8(5)4-1-2-4/h3-4H,1-2H2,(H,6,7,9)
