18
gdb 97423	5.39185	0.77603	0.72477	2.78	79.46	-0.2477	-0.0019	0.2458	1592.0249	0.146569	-439.082967	-439.074063	-439.073119	-439.117793	31.505	
C	 0.1448371468	 1.3297564642	 0.1106376452	-0.314658
N	 0.2175121447	-0.1163212892	 0.1120170557	-0.208599
C	 0.5848713097	-0.6760316289	-0.9509495202	 0.137674
O	 0.6538576523	-2.0250078173	-1.0309353671	-0.216658
C	 1.1985191557	-2.5520291746	-2.2419094382	 0.17114
O	 2.5973727426	-2.4218849841	-2.2848751281	-0.256824
C	 3.2139830783	-3.6939805987	-2.0775718269	-0.123671
C	 2.0842031002	-4.6801435591	-2.145327807	-0.084382
C	 0.9326693684	-4.0313604089	-2.2654407672	-0.107735
H	 0.4340373427	 1.7939202639	-0.8467954724	 0.095354
H	-0.8763081336	 1.6471732056	 0.3515106618	 0.126025
H	 0.7952364126	 1.7307996185	 0.8963534784	 0.127528
H	 0.8630511541	-0.1504190022	-1.8775717115	 0.079759
H	 0.7760491094	-1.9844074293	-3.0829112914	 0.090631
H	 3.9664628361	-3.8456933894	-2.8622397738	 0.120338
H	 3.7321690074	-3.7237516276	-1.1076818974	 0.12414
H	 2.2279322633	-5.7509570774	-2.0832691808	 0.118502
H	-0.0653593706	-4.4432015456	-2.314191809	 0.121435
44.3204	81.8221	103.0049	169.0779	207.7388	282.0963	300.8218	388.8796	426.2394	503.577	644.6262	737.2176	790.0682	832.7005	939.9449	944.0782	959.4631	978.2209	987.6448	1031.0245	1038.8694	1079.5252	1109.1549	1129.5107	1141.2293	1150.1635	1201.0759	1229.224	1310.7709	1367.14	1380.5182	1387.8626	1425.5889	1450.3337	1481.0445	1505.049	1510.2759	1690.415	1782.4753	2966.0675	2994.0075	3000.8393	3011.0985	3039.1641	3057.3281	3076.6392	3220.2554	3248.303
CN=COC1OCC=C1	CN=CO[C@H]1OCC=C1	
InChI=1S/C6H9NO2/c1-7-5-9-6-3-2-4-8-6/h2-3,5-6H,4H2,1H3	InChI=1S/C6H9NO2/c1-7-5-9-6-3-2-4-8-6/h2-3,5-6H,4H2,1H3/t6-/m1/s1
