19
gdb 79015	3.75777	1.76814	1.60298	0.7661	76.67	-0.2056	0.0875	0.2931	900.1063	0.163123	-382.018595	-382.012283	-382.011339	-382.048848	27.09	
C	-0.2674200831	 1.5048610004	-0.0019748227	-0.328514
N	 0.0200836427	 0.0793863456	 0.0227543653	-0.072468
C	 1.1537796826	-0.4513054871	-0.7910924084	-0.042761
C	 2.4397364334	 0.2603172509	-0.2786793689	-0.057967
C	 2.1653845189	 0.2303833467	 1.1860279951	-0.057966
C	 0.7864533338	-0.4913811426	 1.1699919898	-0.042761
C	 1.205914493	-1.6490742	 0.2095490176	-0.052226
C	 2.655230945	-1.9762336721	 0.4743305682	-0.178099
N	 3.2299159389	-0.6235927997	 0.6096163195	-0.130155
H	 0.606573546	 2.1522336533	 0.1749945331	 0.100517
H	-0.6942897909	 1.7658296702	-0.9763130027	 0.118855
H	-1.0198424747	 1.7303195521	 0.7613636454	 0.118854
H	 1.0041058053	-0.5539197623	-1.8661648283	 0.068637
H	 2.9649470436	 1.0403607422	-0.8141360181	 0.093592
H	 2.4555293194	 0.9847765541	 1.9055657071	 0.093592
H	 0.2587483623	-0.6352417823	 2.1131483602	 0.068637
H	 0.4747889667	-2.4375142856	 0.0564919282	 0.086932
H	 2.8149835543	-2.541240084	 1.3988780627	 0.106651
H	 3.1428087628	-2.50546994	-0.3513320231	 0.106651
221.5722	231.382	263.5158	416.8152	530.5184	539.3909	661.6062	741.9996	755.3463	774.3455	797.7619	814.0055	854.4992	861.7793	868.4671	925.3042	940.6019	973.1082	978.6303	1027.5178	1027.6584	1049.2896	1073.2353	1128.5886	1157.8511	1161.0634	1172.0872	1208.9821	1218.604	1225.2993	1231.3626	1232.6174	1279.5618	1280.0552	1308.5115	1314.4091	1363.5856	1445.6471	1487.5298	1495.4629	1507.238	2975.8847	3044.3847	3061.1393	3090.216	3096.3271	3112.7584	3113.9307	3167.3375	3191.9121	3202.179
CN1C2C3C4C1C2CN34	CN1[C@H]2[C@H]3[C@H]4[C@@H]1[C@@H]2CN34	
InChI=1S/C7H10N2/c1-8-4-3-2-9-6(4)7(9)5(3)8/h3-7H,2H2,1H3	InChI=1S/C7H10N2/c1-8-4-3-2-9-6(4)7(9)5(3)8/h3-7H,2H2,1H3/t3-,4-,5+,6+,7-,9?
