20
gdb 84251	3.4065	1.61019	1.39649	1.1495	84.22	-0.2061	-0.0029	0.2033	999.2788	0.173305	-365.940028	-365.932927	-365.931982	-365.971038	29.74	
C	 0.094618744	 1.5642334808	-0.098824635	-0.403198
C	 0.0000833968	 0.0393627204	-0.007445843	-0.010417
C	 0.7513390366	-0.6799862802	-1.1422603519	-0.156386
C	 1.2698703914	-1.828760443	-0.6940524458	 0.096413
C	 2.7149562307	-2.2662207122	-0.496332694	-0.219593
N	 2.5143060485	-1.9392240436	 0.9763707399	-0.144329
C	 2.2964640924	-0.4617013228	 1.256450288	-0.181858
C	 0.7232793275	-0.5896949922	 1.2171022348	-0.04791
C	 1.0084317586	-2.0342426624	 0.7859988595	-0.020373
H	 1.1366106073	 1.8993280596	-0.1450848781	 0.11549
H	-0.4133676532	 1.9373329269	-0.994136132	 0.116945
H	-0.3723944454	 2.0378499441	 0.7712107544	 0.114335
H	-1.0665461686	-0.2308824001	 0.032590949	 0.077548
H	 1.0587677991	-0.1595673571	-2.04388081	 0.087187
H	 2.9225885571	-3.3369753294	-0.5771751534	 0.116024
H	 3.4899601062	-1.6969541757	-1.0183098813	 0.110328
H	 2.6972020286	-0.2118378563	 2.2409682758	 0.112022
H	 2.7423929271	 0.2073263661	 0.514163338	 0.103085
H	 0.2351621419	-0.4096529887	 2.1782024422	 0.062264
H	 0.4904405032	-2.9154183746	 1.1692738227	 0.072424
156.7595	226.9972	244.4607	357.184	371.4292	393.8454	494.3594	564.8956	639.3377	718.2289	765.3433	768.3162	804.9401	861.5335	886.537	906.2441	914.4255	932.3891	969.6834	980.705	1004.8457	1012.3854	1045.9155	1078.4891	1105.4408	1139.3186	1162.8277	1178.8526	1188.9999	1227.6919	1243.2587	1262.0022	1265.6896	1292.8947	1308.0075	1331.3737	1355.5107	1408.4614	1483.7906	1495.4037	1497.614	1500.5962	1662.7121	2974.9782	3029.3439	3048.3146	3052.8569	3075.3939	3091.4106	3097.4218	3099.1103	3104.5264	3111.2947	3177.5884
CC1C=C2CN3CC1C23	C[C@H]1[CH][C]2CN3C[C@@H]1[C@@H]23	
InChI=1S/C8H11N/c1-5-2-6-3-9-4-7(5)8(6)9/h2,5,7-8H,3-4H2,1H3	InChI=1S/C8H11N/c1-5-2-6-3-9-4-7(5)8(6)9/h2,5,7-8H,3-4H2,1H3/t5-,7-,8+/m0/s1
