14
gdb 24958	5.06258	1.30398	1.0436	4.9411	70.32	-0.1931	-0.0222	0.1709	1059.7488	0.10271	-436.740016	-436.733109	-436.732164	-436.771513	26.456	
O	 0.0292659178	-0.0068514777	 0.0026849914	-0.389108
C	-0.027013175	 1.1897395222	 0.009988808	 0.451423
N	-1.1414106218	 2.019816698	 0.0300711787	-0.499744
C	-0.7203539085	 3.3429739717	 0.0312534297	 0.276212
C	 0.6205554812	 3.3144905536	 0.0122801941	 0.313518
O	 1.0929821931	 2.0288652144	-0.0012638419	-0.255883
C	 1.1781207923	 4.6535595105	 0.0116276821	-0.195564
C	 0.1315886155	 5.5092296329	 0.0309102764	-0.087834
C	-1.1996914422	 4.7565599223	 0.0455570819	-0.407305
H	-2.0725319472	 1.6431901095	 0.0409843065	 0.276441
H	 2.2281896693	 4.9075798766	-0.0017509345	 0.12121
H	 0.1842646738	 6.5882537588	 0.0359607207	 0.110919
H	-1.8135190586	 5.0193535315	-0.8254942046	 0.142857
H	-1.7887761496	 5.0099049258	 0.9362715314	 0.142858
85.6051	173.8873	269.0709	333.4417	407.5948	435.3883	564.1764	578.7662	637.5977	709.4615	730.8383	756.4246	802.2749	894.6401	899.6943	908.0625	922.2038	929.7868	1038.6537	1108.4129	1126.6743	1210.9913	1213.5047	1289.3662	1302.8468	1421.9525	1435.29	1475.6251	1556.8351	1684.6452	1898.04	3035.1017	3066.3395	3232.5406	3253.0963	3695.7084
O=C1NC2=C(O1)C=CC2	O=c1[nH]c2c(o1)C=CC2	
InChI=1S/C6H5NO2/c8-6-7-4-2-1-3-5(4)9-6/h1,3H,2H2,(H,7,8)	InChI=1S/C6H5NO2/c8-6-7-4-2-1-3-5(4)9-6/h1,3H,2H2,(H,7,8)
