14
gdb 48104	2.11316	1.37952	1.27684	3.0008	69.29	-0.2414	-0.0809	0.1605	1074.9743	0.097257	-436.623619	-436.614617	-436.613673	-436.658711	31.213	
O	 1.8283462148	 0.374562309	-1.3462252699	-0.206035
C	 0.9230083616	 0.8136589083	-0.6928884766	 0.082457
C	 1.0293132518	 2.0538915717	 0.2093911995	 0.317748
O	 0.5274244647	 1.9654964669	 1.3073759652	-0.28886
C	 1.7336079748	 3.2987946986	-0.224076272	-0.130303
N	 2.4060035593	 3.3439069908	-1.5180055887	-0.297928
C	 1.1634635573	 4.1073894087	-1.3752511595	-0.237186
C	 0.0153839875	 3.6627238105	-2.1173963968	 0.369625
C	-0.9645188241	 3.3062226033	-2.7153394044	-0.426668
H	-0.0485575934	 0.2908514376	-0.5619118993	 0.103963
H	 2.1101816638	 3.8834866486	 0.6126595245	 0.119405
H	 3.2140283619	 3.9591452235	-1.4779123574	 0.251829
H	 1.234544157	 5.1851028623	-1.2432983907	 0.13013
H	-1.8216669571	 2.9892750401	-3.2570959139	 0.211822
30.6006	86.1285	88.6514	168.855	213.6359	247.6711	335.1423	423.9262	466.1045	541.1553	571.6044	631.3911	676.2898	706.356	752.5504	828.8592	858.3985	928.6529	985.6179	998.7548	1064.7455	1140.1252	1179.245	1218.0422	1284.7667	1380.5339	1394.7027	1436.7993	1786.8633	1828.3021	2241.8711	2909.3719	3128.1262	3139.869	3501.016	3515.9496
O=CC(=O)C1NC1C#C	O=CC(=O)[C@H]1N[C@H]1C#C	
InChI=1S/C6H5NO2/c1-2-4-6(7-4)5(9)3-8/h1,3-4,6-7H	InChI=1S/C6H5NO2/c1-2-4-6(7-4)5(9)3-8/h1,3-4,6-7H/t4-,6-/m0/s1
