18
gdb 36272	4.45373	0.96219	0.89724	4.4807	79.71	-0.2248	0.0374	0.2622	1304.5549	0.148553	-364.742032	-364.734254	-364.73331	-364.774984	30.244	
N	 0.1575814604	-1.0500634233	 1.1458880895	-0.304374
C	 0.0309656979	-0.0422837851	 0.5944755154	 0.248077
C	-0.1061420726	 1.2376401681	-0.100576931	-0.395861
C	 1.2456792284	 1.976967082	-0.1862600667	-0.020215
C	 1.8566682324	 2.7434151939	-1.3293404063	-0.092506
C	 0.9639435588	 3.7833198608	-2.0609184391	-0.052141
C	-0.4511372164	 3.9076238832	-1.5651200784	-0.303566
C	 0.6716540259	 4.471670542	-0.7375854224	-0.052106
C	 1.5621087207	 3.4368351632	 0.0038500711	-0.092544
H	-0.5117852276	 1.0344484311	-1.0964495881	 0.165465
H	-0.850531312	 1.8317147826	 0.4384721791	 0.16545
H	 2.0270721271	 1.3898170848	 0.2918622957	 0.120705
H	 2.8205077898	 2.4579693107	-1.7325080211	 0.096596
H	 1.2804371075	 4.2354489245	-2.9915886842	 0.096301
H	-1.0167948781	 4.6739735469	-2.0887266573	 0.116357
H	-1.0656356176	 3.071386072	-1.265783825	 0.111473
H	 0.7319634858	 5.5273098558	-0.5079663458	 0.096296
H	 2.2698711093	 3.7541085867	 0.7597734747	 0.096593
42.0854	140.0968	197.2725	231.2083	381.6898	396.1169	460.5442	502.7444	631.1603	684.1768	704.203	713.193	782.2505	865.2223	876.9659	896.3178	913.9948	961.1903	966.5998	983.6271	1011.0511	1032.2449	1034.374	1059.5173	1078.7765	1092.4332	1121.4452	1177.1492	1228.9496	1252.0621	1269.5211	1299.8389	1300.7406	1334.8786	1374.8658	1448.9646	1470.1699	1503.772	2359.9077	3052.6053	3094.6702	3130.2647	3139.9446	3178.3323	3188.1069	3194.1055	3204.3643	3243.6622
N#CCC1C2C3CC3C12	N#CC[C@H]1[C@H]2[C@H]3C[C@H]3[C@@H]12	
InChI=1S/C8H9N/c9-2-1-4-7-5-3-6(5)8(4)7/h4-8H,1,3H2	InChI=1S/C8H9N/c9-2-1-4-7-5-3-6(5)8(4)7/h4-8H,1,3H2/t4-,5-,6+,7-,8+
