15
gdb 5260	7.57298	1.15943	1.01827	0.2756	63.63	-0.2146	0.0046	0.2191	1118.0613	0.119255	-399.823255	-399.815775	-399.81483	-399.856007	26.384	
C	-0.0481154314	 1.4896780936	 0.0106946431	-0.389687
C	 0.010551147	-0.0259329814	 0.0024071953	-0.04247
O	-1.342595157	-0.5053298784	 0.0103128291	-0.279556
C	-1.5098975579	-1.8342461611	 0.0051535587	 0.351537
C	-2.6927306513	-2.5073511128	 0.0106679899	-0.160385
O	-2.3884834817	-3.8491743147	 0.0019633066	-0.137301
C	-1.0481605046	-3.8951068192	-0.0081069664	 0.085236
N	-0.4622633573	-2.7380905428	-0.006948643	-0.339287
H	 0.9657525909	 1.9008224463	 0.0048933554	 0.120471
H	-0.5783947015	 1.8628172797	-0.8699273416	 0.129218
H	-0.564550048	 1.853677374	 0.9032870817	 0.129216
H	 0.5270985736	-0.4054141157	-0.8865819755	 0.116894
H	 0.5406780199	-0.4145770995	 0.8793481453	 0.11693
H	-3.7304142144	-2.2322745028	 0.0196576888	 0.146837
H	-0.5891128761	-4.8709779752	-0.0161824674	 0.152347
60.0537	64.1382	166.4887	251.9001	328.7982	352.3652	472.1192	639.5214	665.6513	731.1578	737.2251	811.9057	828.9642	909.8386	937.2741	1007.9497	1074.2874	1085.2986	1130.2576	1166.381	1182.1819	1250.7113	1292.2999	1335.1989	1347.2928	1394.627	1419.5301	1484.686	1498.2384	1522.1517	1548.6432	1657.644	3033.4364	3046.4794	3071.1842	3121.3826	3125.3578	3276.8343	3317.4257
CCOC1=COC=N1	CCOc1cocn1	
InChI=1S/C5H7NO2/c1-2-8-5-3-7-4-6-5/h3-4H,2H2,1H3	InChI=1S/C5H7NO2/c1-2-8-5-3-7-4-6-5/h3-4H,2H2,1H3
