18
gdb 125197	3.1091	1.60304	1.08542	3.4573	79.49	-0.1932	0.0405	0.2337	1105.4944	0.1514	-398.151119	-398.143272	-398.142328	-398.183945	29.229	
C	-0.0196198242	 1.5379591035	 0.0540701428	-0.518487
C	-0.0523918567	 0.043015114	-0.0266168341	 0.028057
C	 0.1049467525	-0.7789892522	-1.1278801514	 0.37358
N	 0.4696893284	-0.7492446586	-2.4788662409	-0.416018
C	 0.215282362	-2.122529786	-2.9875136604	-0.180182
C	 0.3274072319	-3.0199786511	-1.7268322026	-0.167563
N	-0.0308685728	-2.0559957757	-0.7085793179	 0.038922
N	-0.2136307328	-2.170675571	 0.6266586996	-0.315894
C	-0.2531583032	-0.8983240334	 1.0226420469	-0.053994
H	 0.8215335272	 1.9584787063	-0.5091037453	 0.122891
H	-0.9343481026	 2.0047258035	-0.3339456792	 0.119492
H	 0.0893887831	 1.8633402189	 1.0927990432	 0.127929
H	 0.0252000089	-0.0247043286	-3.027210296	 0.243573
H	-0.7932441537	-2.2105342936	-3.4134910938	 0.114248
H	 0.9419676335	-2.3934374995	-3.7564274863	 0.12221
H	-0.3563903253	-3.8710522382	-1.7496882384	 0.132719
H	 1.3489041072	-3.3908216683	-1.5751940758	 0.127098
H	-0.4271922635	-0.6725522102	 2.0664742795	 0.101419
60.8975	133.1093	177.246	227.5085	247.4671	322.8556	494.7887	566.458	620.4837	647.6793	671.933	710.3	792.5678	831.3278	874.8716	894.9967	952.8609	998.208	1027.1442	1064.981	1080.8274	1123.8677	1190.7772	1209.5281	1218.1567	1249.9737	1314.366	1328.2524	1340.2921	1373.351	1391.9012	1423.919	1463.095	1487.1975	1496.5426	1507.5649	1524.5057	1548.7735	1647.0877	3011.1269	3014.741	3027.1383	3063.1375	3099.1211	3102.6244	3108.2091	3224.3743	3568.6186
CC1=C2NCCN2N=C1	Cc1c2NCCn2nc1	
InChI=1S/C6H9N3/c1-5-4-8-9-3-2-7-6(5)9/h4,7H,2-3H2,1H3	InChI=1S/C6H9N3/c1-5-4-8-9-3-2-7-6(5)9/h4,7H,2-3H2,1H3
