15
gdb 9319	6.57687	0.82456	0.74285	3.624	64.09	-0.2719	-0.0888	0.1831	1442.8761	0.116086	-399.805727	-399.796673	-399.795728	-399.840569	29.765	
C	 0.0832377857	 1.3473415498	 0.0078316883	-0.233416
O	 0.005062164	-0.0605796183	 0.0016244454	-0.236041
C	-1.3205992277	-0.5334044415	 0.0118206926	-0.0638
C	-1.2529641064	-2.0550455306	 0.0033368053	-0.317805
C	-2.6112099014	-2.7043722481	 0.0129929073	 0.285927
O	-3.6644839049	-2.1179791855	 0.0259081609	-0.264611
C	-2.5894452927	-4.1858785776	 0.0045285194	 0.232101
N	-2.5627725426	-5.3417639612	-0.0020934507	-0.291348
H	 1.1424942721	 1.6134363613	-0.0009151689	 0.133251
H	-0.402900022	 1.785655739	-0.877408573	 0.110379
H	-0.3859525107	 1.7768619719	 0.9064271717	 0.110378
H	-1.8632832009	-0.1811592981	 0.9032171971	 0.108454
H	-1.8801418514	-0.172040531	-0.8653920547	 0.108453
H	-0.7010627583	-2.4129637832	-0.8761373102	 0.159045
H	-0.6844440329	-2.4219378969	 0.8684158194	 0.159033
55.5678	81.9042	99.3692	123.9133	189.3105	235.1618	276.0825	307.4262	387.8818	506.7945	575.7974	616.4185	806.6763	828.3108	995.2585	1043.0719	1074.8276	1104.5312	1166.6455	1179.9033	1219.8107	1234.0039	1295.3104	1337.4504	1426.8611	1447.1711	1484.2983	1486.733	1504.4147	1527.3555	1795.5662	2338.5216	2971.8009	2982.7144	3005.695	3024.1168	3032.2026	3064.9881	3121.8146
COCCC(=O)C#N	COCCC(=O)C#N	
InChI=1S/C5H7NO2/c1-8-3-2-5(7)4-6/h2-3H2,1H3	InChI=1S/C5H7NO2/c1-8-3-2-5(7)4-6/h2-3H2,1H3
