20
gdb 82359	2.81636	1.33182	1.01703	2.0713	79.55	-0.2382	-0.0253	0.2129	1195.5766	0.171219	-403.146192	-403.137668	-403.136724	-403.179677	32.374	
C	-0.0034811095	 1.5954485847	 0.0235127469	-0.399614
C	 0.0962268344	 0.0761069073	-0.022107194	 0.03796
C	 0.8909996182	-0.477558688	-1.2550882348	-0.095091
C	 1.4389984011	-1.8260831903	-0.7379728137	-0.266002
C	 1.5464294376	-1.6309753697	 0.7676787188	-0.012844
C	 2.1760437141	-0.3760701399	 1.2524800228	-0.25279
N	 0.7095306515	-0.4981166184	 1.1922448642	-0.096692
C	-0.0131293873	-0.6197483864	-2.4527904428	 0.145775
O	 0.0294982776	 0.0632724432	-3.4432740307	-0.252425
H	 0.9882357327	 2.0547652867	 0.0894447911	 0.119188
H	-0.4897759444	 1.9752836335	-0.8800380464	 0.132199
H	-0.5855178607	 1.9143326898	 0.8921899929	 0.129916
H	-0.9191441136	-0.3428871009	-0.0553475111	 0.085271
H	 1.6927937081	 0.2114731926	-1.531333354	 0.095061
H	 0.7257763672	-2.6328079702	-0.9501303161	 0.109644
H	 2.3877017243	-2.0997816035	-1.208766035	 0.119211
H	 1.5336577068	-2.5133902665	 1.4011475305	 0.094653
H	 2.5774945885	-0.3250979194	 2.2599021413	 0.119565
H	 2.6901849195	 0.2572456938	 0.5340071568	 0.115472
H	-0.7818942863	-1.4231999681	-2.3420745668	 0.071541
59.1214	99.1574	217.9372	227.7827	255.9652	306.2521	352.3103	378.0041	454.7247	532.4214	632.2436	672.0785	737.7236	817.4053	846.179	884.3062	927.2162	945.2986	983.0326	1016.2968	1052.6912	1061.7261	1102.429	1104.9811	1120.8128	1135.6322	1144.1647	1174.3483	1211.6599	1261.8557	1272.7966	1294.1815	1336.45	1357.1584	1367.7388	1391.482	1410.365	1427.8925	1487.2734	1490.0651	1498.0334	1507.9283	1829.0615	2836.1666	3003.9956	3030.011	3040.4693	3078.3033	3092.3986	3108.9281	3113.4785	3122.3052	3148.4978	3195.8895
CC1C(CC2CN12)C=O	C[C@H]1[C@@H](C[C@H]2CN12)C=O	
InChI=1S/C7H11NO/c1-5-6(4-9)2-7-3-8(5)7/h4-7H,2-3H2,1H3	InChI=1S/C7H11NO/c1-5-6(4-9)2-7-3-8(5)7/h4-7H,2-3H2,1H3/t5-,6-,7-,8?/m0/s1
