16
gdb 128418	4.32628	0.87202	0.79012	14.8116	80.16	-0.1697	-0.0217	0.148	1438.1093	0.124301	-471.161129	-471.152152	-471.151208	-471.196623	30.96	
C	 0.4771371563	 1.3860287649	-0.2057689576	-0.348324
N	 0.5010284643	-0.0805548131	 0.0338558522	-0.261337
H	-0.0930132647	-0.5872558102	-0.625906854	 0.308402
H	 1.441472162	-0.4675262305	-0.0762146632	 0.320943
C	 0.0362822109	-0.6038761483	 1.505383502	-0.320454
C	 0.2579990052	-2.0228250216	 1.5560678901	 0.335686
N	-0.6476465019	-2.9403152207	 1.312187407	-0.260757
N	-0.033819569	-4.1311594522	 1.237692593	-0.346838
C	 1.3147554305	-3.9453745186	 1.397406481	 0.397867
O	 2.2574628889	-4.6893598925	 1.3850458757	-0.396717
O	 1.5206273007	-2.5072802961	 1.6080399868	-0.289542
H	 1.1197072792	 1.8679905366	 0.5321939265	 0.182691
H	 0.8339006468	 1.6133168969	-1.2117142412	 0.176629
H	-0.5473029359	 1.7411029042	-0.086009101	 0.181405
H	 0.6550385501	 0.005793493	 2.1685172511	 0.15174
H	-1.0203029432	-0.3477400317	 1.5728408115	 0.168607
25.6884	69.3853	99.9092	191.0811	207.863	248.0677	290.1213	341.8723	505.1023	534.6391	652.5896	673.8705	743.2071	771.404	776.9892	825.4529	937.2149	972.7247	986.2574	1080.5038	1113.8914	1126.7117	1215.6157	1259.1451	1305.2787	1333.3443	1341.5447	1413.935	1451.8875	1466.8591	1493.2506	1499.3696	1531.8484	1648.0021	1865.4122	3070.4873	3073.1658	3160.1987	3167.7527	3168.6752	3427.8094	3493.6721
C[NH2+]CC1=N[N-]C(=O)O1	C[NH2]Cc1nnc(=O)o1	
InChI=1S/C4H7N3O2/c1-5-2-3-6-7-4(8)9-3/h5H,2H2,1H3,(H,7,8)	InChI=1S/C4H8N3O2/c1-5-2-3-6-7-4(8)9-3/h2,5H2,1H3,(H,7,8)
