19
gdb 83050	2.23733	1.83017	1.42378	2.6007	75.37	-0.2441	0.0074	0.2515	997.4184	0.161168	-423.016953	-423.0091	-423.008156	-423.04889	31.754	
O	-0.248293221	 1.6436131599	 0.3894480341	-0.431737
C	-0.0798652034	 0.2685966189	 0.1452035469	 0.099177
C	-0.3651518737	-0.7974059186	 1.1709861887	-0.103347
C	-0.8832832491	-0.4516580068	 2.5554209208	-0.28412
C	-2.1396098233	 0.3771072473	 2.5545138152	-0.104919
C	-2.9068928495	 0.5687590271	 1.4791736035	-0.085411
C	-2.6474954357	-0.0086566285	 0.1087442736	 0.071424
O	-2.8802568366	 0.970635565	-0.9043810348	-0.445332
C	-1.2716755692	-0.6364554135	-0.047362806	-0.120358
H	-0.8081659803	 1.7509988253	 1.1687747715	 0.291016
H	 0.7770475821	 0.1236940389	-0.5041113032	 0.106654
H	 0.312560637	-1.6461342969	 1.1551384373	 0.089844
H	-1.0758126495	-1.3824106457	 3.1072462982	 0.125052
H	-0.1022711332	 0.0649478991	 3.1311737354	 0.116999
H	-2.4272008471	 0.8194929236	 3.5057813057	 0.096321
H	-3.8077114734	 1.1737045133	 1.5457695734	 0.102456
H	-3.4090514528	-0.7780712129	-0.0748102625	 0.098344
H	-2.1433536275	 1.5932817707	-0.8403997668	 0.287732
H	-1.2063376937	-1.381935306	-0.8335020111	 0.090205
118.1233	167.3337	214.2441	303.6451	352.6358	371.1199	454.9916	482.1568	508.021	542.8401	575.4081	694.8204	732.213	753.1217	788.7055	841.2989	869.953	929.4342	961.9437	980.762	1014.1129	1053.8073	1058.0342	1067.5786	1103.5528	1129.2735	1130.1796	1187.5934	1223.3517	1236.1778	1268.407	1321.4502	1346.8385	1351.7716	1361.708	1393.8877	1414.1955	1442.3213	1465.0823	1479.6268	1711.1613	3005.0841	3018.8368	3025.1049	3140.7794	3145.5265	3153.6991	3170.1967	3172.0429	3749.9413	3760.5941
OC1C2CC=CC(O)C12	O[C@H]1[C@H]2CC=C[C@@H](O)[C@@H]12	
InChI=1S/C7H10O2/c8-5-3-1-2-4-6(5)7(4)9/h1,3-9H,2H2	InChI=1S/C7H10O2/c8-5-3-1-2-4-6(5)7(4)9/h1,3-9H,2H2/t4-,5+,6-,7-/m0/s1
