19
gdb 113511	3.47024	1.0204	0.91355	4.5372	78.5	-0.2322	0.0238	0.2561	1344.6671	0.158559	-419.194614	-419.18546	-419.184516	-419.228867	33.348	
C	-0.0539359911	 1.5413284537	-0.3137753756	-0.377973
C	-0.0053097446	 0.1322024527	 0.2695657779	-0.118664
N	-1.3192734809	-0.5021070766	 0.1807157824	-0.115844
C	-1.6195612137	-1.2519752409	-1.0351044958	-0.314155
C	-1.3844316529	-1.9420875206	 0.258827048	 0.18652
C	-0.2937703218	-2.9770584435	 0.6284986255	-0.241201
N	-1.3300408572	-3.631704185	 1.4354363906	-0.347603
C	-2.3541053175	-2.7571160525	 1.1234520918	 0.391916
O	-3.5169615235	-2.7178718936	 1.414570951	-0.360804
H	 0.9189103777	 2.0320489304	-0.2141491499	 0.114383
H	-0.3137202257	 1.5160068724	-1.3769476426	 0.120683
H	-0.8051361159	 2.1439408711	 0.2036682755	 0.134596
H	 0.7744161431	-0.4592319766	-0.2432803755	 0.082425
H	 0.2694252711	 0.1749534305	 1.3300174997	 0.110168
H	-2.6301811948	-1.1523442291	-1.4210044544	 0.136002
H	-0.836415301	-1.3457625467	-1.7882615599	 0.110519
H	 0.0813427999	-3.5804233992	-0.2045533812	 0.116969
H	 0.547208173	-2.589799795	 1.2127487023	 0.118366
H	-1.3448249642	-4.5314208216	 1.8902139505	 0.253698
81.7723	94.3465	136.5355	153.837	217.8273	246.5503	279.6053	352.8754	421.2264	458.2055	568.8352	645.8547	707.48	776.4565	811.1396	825.9055	869.7008	914.8225	971.3768	998.6443	1059.8602	1065.3193	1094.8099	1115.1941	1126.5592	1147.1573	1164.2306	1186.716	1210.65	1284.8005	1308.717	1368.1336	1386.921	1411.4158	1431.8985	1487.7991	1489.2333	1503.8558	1515.5582	1523.8281	1901.9374	2939.2983	3037.3438	3041.6533	3051.6306	3081.5518	3083.513	3111.1392	3124.042	3182.355	3629.3608
CCN1CC11CNC1=O	CCN1C[C@]21CNC2=O	
InChI=1S/C6H10N2O/c1-2-8-4-6(8)3-7-5(6)9/h2-4H2,1H3,(H,7,9)	InChI=1S/C6H10N2O/c1-2-8-4-6(8)3-7-5(6)9/h2-4H2,1H3,(H,7,9)/t6-,8?/m1/s1
