17
gdb 52301	5.11387	0.80107	0.74156	1.8046	71.51	-0.2541	0.0073	0.2614	1486.5905	0.136906	-455.147877	-455.139304	-455.13836	-455.183088	29.591	
N	 0.0115989364	 0.548349389	-1.2526160142	-0.437423
C	-0.3318479519	-0.0489409892	-0.196369759	 0.124126
O	-0.3873289343	-1.3965702064	-0.1703554132	-0.180728
C	-0.9649116723	-2.0063078327	 0.9811893236	-0.099894
C	-2.4512790163	-2.2939946247	 0.7548349356	 0.001578
C	-2.7260949303	-3.2763325128	-0.4145232112	-0.118024
O	-3.3409770195	-4.4216913324	 0.2329088384	-0.216349
C	-3.4367226556	-4.0875960779	 1.5365575906	 0.126678
N	-3.0092621646	-2.9649844306	 1.9443269076	-0.279548
H	 0.0336048035	 1.5531239408	-1.0918668553	 0.231267
H	-0.5893811075	 0.4153962588	 0.7664358448	 0.089033
H	-0.420061859	-2.9408826092	 1.14386238	 0.124868
H	-0.8375908032	-1.3766963672	 1.8697423406	 0.123697
H	-2.9662961115	-1.338479411	 0.602553913	 0.0956
H	-3.4284181565	-2.8878764448	-1.1551863856	 0.129771
H	-1.8193544235	-3.611069753	-0.9238495659	 0.138606
H	-3.8961355538	-4.8465538467	 2.1604883902	 0.146744
42.3574	63.3984	75.8345	116.1119	222.6327	307.7652	386.0697	426.4638	543.3996	656.3817	728.3782	821.6051	849.6289	906.1258	924.4357	956.3381	971.7252	981.5857	1016.5544	1044.0982	1085.5601	1133.8557	1146.4983	1154.2472	1212.3617	1248.5795	1276.4541	1317.4743	1333.2593	1360.9765	1380.17	1400.9029	1421.5707	1498.251	1520.5165	1698.8605	1745.9024	3014.7886	3036.3753	3038.9618	3071.1238	3099.3898	3121.0544	3216.631	3520.1642
N=COCC1COC=N1	[NH][CH]OC[C@H]1COC=N1	
InChI=1S/C5H8N2O2/c6-3-8-1-5-2-9-4-7-5/h3-6H,1-2H2	InChI=1S/C5H8N2O2/c6-3-8-1-5-2-9-4-7-5/h3-6H,1-2H2/t5-/m0/s1
