15
gdb 43159	2.80905	1.52528	1.2518	5.3769	70.23	-0.2458	-0.035	0.2108	1002.6825	0.114497	-416.797124	-416.78992	-416.788976	-416.828916	27.498	
O	 0.0177440806	-0.0504844423	 0.1668471539	-0.29611
C	-0.0032939761	 1.1364272682	 0.1260893739	 0.470664
C	-1.0735391392	 2.2500805418	 0.0211524069	-0.158623
C	-0.7281908862	 3.0313866491	 1.3078940621	-0.195869
N	 0.7743532709	 2.9910266624	 1.2634748329	-0.299065
C	 1.0195009063	 2.294395851	-0.0028539591	-0.131343
C	-0.0630327973	 2.917609927	-0.9908893603	-0.188994
C	-0.0792665641	 2.3875308057	-2.3393821644	 0.271289
N	-0.073663893	 1.9707720717	-3.4181887892	-0.315371
H	-2.1162078218	 2.0651124952	-0.2221232363	 0.116116
H	-1.1179054576	 4.0539996466	 1.2896651772	 0.117491
H	-1.1088079765	 2.5312796754	 2.2036420438	 0.135005
H	 1.1586524825	 3.9290730182	 1.2357455377	 0.234164
H	 2.0623286909	 2.1631386353	-0.2776799211	 0.115998
H	-0.0764116393	 4.0104714145	-1.0023748679	 0.124648
109.7133	155.7292	193.0066	286.6088	379.9612	450.0575	493.5086	521.1773	626.3634	636.6319	772.4271	799.0407	822.4474	894.8835	917.5491	962.5123	982.0907	1000.1787	1017.0236	1050.418	1076.6111	1085.3104	1150.4836	1187.1954	1213.5783	1230.0516	1249.9503	1319.1899	1359.5739	1418.2116	1520.8795	1933.4524	2352.3367	3044.7429	3085.2284	3087.8637	3169.669	3173.5756	3528.9472
O=C1C2CNC1C2C#N	O=C1[C@H]2CN[C@@H]1[C@H]2C#N	
InChI=1S/C6H6N2O/c7-1-3-4-2-8-5(3)6(4)9/h3-5,8H,2H2	InChI=1S/C6H6N2O/c7-1-3-4-2-8-5(3)6(4)9/h3-5,8H,2H2/t3-,4-,5+/m0/s1
