17
gdb 73387	3.05218	1.64596	1.34703	3.5053	72.38	-0.2397	-0.0024	0.2373	979.5135	0.136098	-421.822974	-421.815628	-421.814684	-421.854532	29.029	
C	-0.041839584	 1.4328047853	-0.0176534702	-0.474429
C	 0.0126721754	-0.0669934685	 0.0607154508	 0.462499
O	-1.1914539207	-0.678997619	-0.3488999005	-0.302277
C	-1.2891109495	-1.9440608869	 0.3137110308	-0.098174
C	 0.1382982042	-2.2406761024	 0.7834298024	-0.214195
C	 0.6962955355	-0.8277836621	 1.1176083489	-0.168351
C	 1.3437473885	-0.764950358	-0.312516799	-0.270912
C	 1.1134346047	-2.2311162707	-0.4245244246	 0.451579
O	 1.6197433344	-3.107212565	-1.0688255397	-0.338628
H	 0.9108493153	 1.8740150315	 0.2856798832	 0.126069
H	-0.2621563966	 1.7510413734	-1.0405455516	 0.142119
H	-0.8310036062	 1.8147780141	 0.6364801864	 0.134091
H	-1.9849264973	-1.875782479	 1.1624263686	 0.102825
H	-1.6678689565	-2.6831784183	-0.398395322	 0.128129
H	 0.2500119475	-3.0587678769	 1.4927405411	 0.101804
H	 1.1075386607	-0.4784780051	 2.054183153	 0.112283
H	 2.1965752046	-0.1983823825	-0.6679601174	 0.105568
128.9426	205.1825	211.5099	247.7377	313.2833	448.4531	469.4543	533.7207	607.4618	683.8514	732.2369	779.9334	833.2643	844.9882	850.4819	900.9592	917.2488	950.4767	973.7542	1008.0525	1042.8891	1058.9971	1095.7539	1112.3469	1136.9261	1179.1487	1212.8108	1233.2765	1244.4149	1274.4144	1375.4252	1405.1968	1428.2811	1478.7501	1501.1993	1517.3057	1874.979	3000.0801	3046.7649	3087.1144	3117.0851	3128.0394	3143.2837	3187.823	3216.9056
CC12OCC3C1C2C3=O	C[C@]12OC[C@@H]3[C@H]1[C@H]2C3=O	
InChI=1S/C7H8O2/c1-7-4-3(2-9-7)6(8)5(4)7/h3-5H,2H2,1H3	InChI=1S/C7H8O2/c1-7-4-3(2-9-7)6(8)5(4)7/h3-5H,2H2,1H3/t3-,4+,5+,7+/m1/s1
