15
gdb 14003	4.22158	1.47796	1.27129	3.9167	66.13	-0.2611	0.018	0.2792	948.0265	0.119126	-362.635433	-362.628157	-362.627212	-362.667415	26.325	
N	-0.0094749646	-1.1410263996	 0.0106087054	-0.33512
C	-0.0276481688	 0.0158142535	 0.03456691	 0.288519
C	-0.0167703686	 1.4508358803	 0.0573988289	-0.233611
C	 0.5484548163	 2.1806673791	 1.2741507227	-0.344934
C	 1.3128513033	 2.1748430365	 0.0003108234	 0.285489
C	 2.6827013313	 1.5840183009	-0.3147487873	-0.136848
O	 2.9704141379	 2.6903605822	-1.2000724529	-0.270446
C	 1.7033468035	 3.3220933045	-0.9257973908	-0.135813
H	-0.8544913956	 1.9166750721	-0.4522598793	 0.137242
H	 0.0360759692	 3.0891751234	 1.5727781934	 0.134749
H	 0.9116297246	 1.5700440831	 2.0936769543	 0.146016
H	 3.3829452756	 1.5393032739	 0.5286759466	 0.112308
H	 2.6791768155	 0.6202659393	-0.8375162709	 0.12976
H	 1.0940054597	 3.4415414647	-1.8305800907	 0.112154
H	 1.8249387507	 4.298772226	-0.438940013	 0.110533
82.4881	126.7646	149.957	294.8163	320.2559	367.8785	500.7189	546.5129	627.6468	793.3739	843.1464	874.0796	889.2542	942.2189	977.3051	1022.7776	1033.3321	1064.2865	1081.0427	1114.8101	1128.3734	1151.5145	1163.7607	1222.9142	1306.9695	1316.5141	1368.2274	1433.3175	1491.2756	1508.3068	1532.3327	2351.8957	3004.6531	3019.8513	3050.1216	3065.4126	3134.745	3161.5821	3225.8476
N#CC1CC11COC1	N#C[C@H]1CC21COC2	
InChI=1S/C6H7NO/c7-2-5-1-6(5)3-8-4-6/h5H,1,3-4H2	InChI=1S/C6H7NO/c7-2-5-1-6(5)3-8-4-6/h5H,1,3-4H2/t5-/m1/s1
