17
gdb 22986	2.50411	1.16865	0.96802	2.9681	73.15	-0.2312	-0.021	0.2103	1257.8364	0.133619	-455.08792	-455.078511	-455.077567	-455.123223	33.344	
C	 0.9093453643	 0.3420064736	 0.7454711493	-0.481289
C	-0.2267752449	 0.1678864935	-0.2358464885	 0.398678
O	-0.3746274233	 0.8621640482	-1.2130981786	-0.297952
C	-1.2450745188	-0.9406551728	 0.0683372314	-0.163504
N	-0.7324290071	-2.1448486183	 0.7878343946	-0.330898
C	-1.8069183857	-2.0656161065	 1.8213461203	-0.258265
C	-2.17262928	-0.7132685246	 1.253188498	 0.393188
N	-2.8786235578	 0.28324522	 1.574700251	-0.218821
O	-3.5535062641	 0.0530979168	 2.7828172097	-0.387371
H	 1.5563946	 1.1560272524	 0.4180404677	 0.137037
H	 0.5100153884	 0.5618570248	 1.7421316196	 0.144473
H	 1.4709892029	-0.5918054349	 0.8366348349	 0.153615
H	-1.7917220258	-1.1425920387	-0.8614408775	 0.106422
H	-0.7528252673	-2.9899739217	 0.229218102	 0.230669
H	-2.6138845712	-2.8040667931	 1.7232888664	 0.125245
H	-1.4434786943	-2.0821849611	 2.8541856948	 0.135695
H	-4.0407352352	 0.8754447127	 2.905065475	 0.313077
34.9627	92.8619	117.3899	132.4673	202.533	251.7744	293.5235	374.2246	438.4506	477.3956	495.3998	523.6111	622.9084	689.1847	768.9607	799.132	927.4783	969.7962	977.7625	1005.7785	1019.5946	1031.0833	1064.694	1119.9131	1162.6021	1221.1963	1237.8244	1280.7744	1326.1163	1375.5674	1380.0871	1409.4053	1456.8259	1468.4909	1494.3177	1796.3359	1816.7845	3016.5512	3031.2663	3045.7022	3070.1047	3111.0871	3160.4239	3545.9122	3813.5652
CC(=O)C1NCC1=NO	CC(=O)[C@H]1NCC1=NO	
InChI=1S/C5H8N2O2/c1-3(8)5-4(7-9)2-6-5/h5-6,9H,2H2,1H3	InChI=1S/C5H8N2O2/c1-3(8)5-4(7-9)2-6-5/h5-6,9H,2H2,1H3/t5-/m1/s1
