21
gdb 63679	4.07329	0.72014	0.7015	4.4417	81.16	-0.2722	0.0115	0.2837	1684.8577	0.18006	-424.242518	-424.232331	-424.231387	-424.2785	36.613	
C	 0.1426838735	 1.4266903393	-0.2546206548	-0.455847
C	 0.0601304892	-0.0482819393	 0.0996739851	 0.332494
C	-1.0700695061	-0.7764869124	-0.6059026075	-0.447438
C	 1.3444866889	-0.8091288732	 0.3368686319	-0.330132
C	 0.4098985012	-0.531089283	 1.4947402785	-0.032834
C	 0.8084267073	 0.3922625128	 2.6153772922	-0.126814
O	 1.5044963916	-0.3369974096	 3.6437008747	-0.172803
C	 2.8458124421	-0.2592993668	 3.6722149779	 0.177608
O	 3.5165354151	-0.878272019	 4.4425992394	-0.276796
H	 0.9953440546	 1.9263758787	 0.2124035613	 0.113244
H	 0.2505893397	 1.5479172966	-1.3385328016	 0.121779
H	-0.7666279088	 1.9607302787	 0.0453774563	 0.118654
H	-0.9580008318	-0.7085839877	-1.6943139804	 0.118051
H	-1.0932760902	-1.8370966726	-0.3381145597	 0.117139
H	-2.0432611827	-0.3438502968	-0.3455342816	 0.117322
H	 1.4262981245	-1.8285684701	-0.0246276098	 0.117318
H	 2.2748749737	-0.2500122561	 0.2950401727	 0.107592
H	-0.1699911009	-1.379928353	 1.8478698483	 0.098066
H	 1.4377461774	 1.216714007	 2.2611797916	 0.107304
H	-0.0660539891	 0.8239773521	 3.1107851528	 0.126338
H	 3.2514935306	 0.4470298245	 2.9201945027	 0.069755
48.2355	51.2061	136.8303	174.0534	191.3952	220.7061	243.1032	294.0135	363.9582	367.2223	397.3669	433.7508	483.4245	666.0245	702.0288	846.1597	881.7158	903.0566	922.0376	971.6571	1002.5112	1024.8971	1028.9101	1047.2081	1064.3455	1088.4065	1122.4163	1147.9869	1167.7753	1207.6271	1275.9136	1315.6676	1335.5918	1383.9157	1413.0063	1421.5094	1427.3286	1441.8728	1480.6362	1488.712	1493.3034	1500.0803	1505.041	1517.0656	1865.8207	2934.433	3022.0069	3027.6154	3038.8103	3081.7067	3084.8723	3090.4603	3102.4854	3112.1913	3123.4465	3145.2778	3208.1905
CC1(C)CC1COC=O	CC1(C)C[C@H]1COC=O	
InChI=1S/C7H12O2/c1-7(2)3-6(7)4-9-5-8/h5-6H,3-4H2,1-2H3	InChI=1S/C7H12O2/c1-7(2)3-6(7)4-9-5-8/h5-6H,3-4H2,1-2H3/t6-/m0/s1
