17
gdb 17309	2.73436	2.45478	1.70526	1.4371	68.08	-0.2187	0.0608	0.2795	826.3966	0.141524	-363.763251	-363.755846	-363.754902	-363.794313	29.025	
C	-0.0463845954	 1.4885239273	-0.0111486881	-0.49522
C	-0.0551642437	-0.0135707847	-0.014018046	 0.282515
C	-0.9281871971	-0.8526414399	 0.8535651778	 0.036272
O	-1.9173891273	-1.7374200826	 0.3976764983	-0.421242
C	 0.5644542662	-1.0507072	 0.952797334	-0.118751
N	 1.329968332	-1.7335376225	-0.153599383	-0.146275
C	 0.4146941303	-2.2551482612	-1.2005864425	-0.251708
C	 0.6713387938	-0.8013052161	-1.1265971092	-0.087954
H	 0.957488714	 1.8792004699	-0.212818506	 0.12442
H	-0.7183364758	 1.8865071855	-0.7817656745	 0.126852
H	-0.3746426691	 1.8864738815	 0.9537824936	 0.119975
H	-1.2601435586	-0.2660477583	 1.7159070344	 0.091593
H	-2.0283372028	-2.4196125608	 1.0698098136	 0.287474
H	 1.0979112969	-0.9194638931	 1.8881551439	 0.09642
H	 0.9705202631	-2.7964275735	-1.9623561824	 0.11504
H	-0.550447424	-2.6604864867	-0.9395810459	 0.145639
H	 1.2720657076	-0.2729653547	-1.861549908	 0.094951
180.4699	201.6992	215.1048	280.1771	299.0289	310.056	428.5327	523.5958	585.8257	637.2313	688.7774	759.5557	785.0933	855.5766	902.4068	946.6909	959.6686	991.7761	1013.9684	1056.5341	1092.143	1102.4761	1119.7993	1142.9164	1168.173	1222.2048	1245.4074	1264.8788	1288.5547	1344.88	1372.2418	1416.0124	1479.4029	1484.385	1494.9694	1504.8339	3020.5064	3053.6181	3078.6043	3103.1201	3126.3956	3148.3616	3165.341	3267.1756	3793.82
CC12C(O)C1N1CC21	C[C@]12[C@@H](O)[C@H]1N1C[C@@H]21	
InChI=1S/C6H9NO/c1-6-3-2-7(3)4(6)5(6)8/h3-5,8H,2H2,1H3	InChI=1S/C6H9NO/c1-6-3-2-7(3)4(6)5(6)8/h3-5,8H,2H2,1H3/t3-,4+,5-,6+,7?/m0/s1
