13
gdb 18998	5.6706	1.96114	1.7288	1.4016	58.52	-0.254	0.0039	0.2579	726.3251	0.097021	-398.535571	-398.530205	-398.529261	-398.564932	21.716	
N	-0.0240168605	 1.2825875932	-0.0207576907	-0.5454
C	-0.0287987243	 0.0255158421	-0.0046762289	 0.431352
O	 1.0849127306	-0.8035918274	-0.0265864939	-0.255283
C	 0.5086528986	-2.103022579	 0.0066644755	 0.05589
C	-0.7842503567	-2.1473468607	-0.8544817877	 0.04764
O	-1.3924623667	-3.1007139802	 0.0746603301	-0.313968
C	-0.7319362502	-2.1245654644	 0.9424040993	 0.04764
C	-1.1861857188	-0.9241785982	 0.0410612903	-0.158069
H	 0.9324974205	 1.6414413817	-0.0531571637	 0.230157
H	 1.2515279015	-2.8952155693	-0.0049205025	 0.118054
H	-0.926130886	-2.295694374	-1.923959958	 0.114258
H	-0.8112578271	-2.2456694334	 2.0217383332	 0.114258
H	-2.2022490209	-0.5449985404	 0.0658359768	 0.11347
174.6906	380.394	417.8271	515.9224	618.109	659.1383	714.8167	766.9974	848.059	867.7395	892.5911	893.3197	907.3774	919.9771	979.8167	1005.2251	1030.9489	1072.3667	1134.8602	1148.7222	1153.0602	1181.793	1209.9303	1220.0223	1268.1534	1311.3178	1366.6511	1809.7493	3135.1338	3137.2539	3182.0251	3195.0582	3468.4538
N=C1OC2C3OC2C13	[NH][C]1O[C@@H]2[C@H]3O[C@@H]2[C@@H]13	
InChI=1S/C5H5NO2/c6-5-1-2-4(8-5)3(1)7-2/h1-4,6H	InChI=1S/C5H5NO2/c6-5-1-2-4(8-5)3(1)7-2/h1-4,6H/t1-,2-,3+,4+
