16
gdb 9793	3.16779	1.78419	1.35069	1.7548	65.79	-0.2673	0.0324	0.2997	932.2422	0.12756	-383.680973	-383.672497	-383.671553	-383.713621	31.598	
C	-0.0533680227	 1.5364155443	-0.243754808	-0.472029
C	-0.0250523329	 0.0387259891	-0.0643782615	 0.383408
C	 0.8517604899	-0.8012572097	-0.8888621242	-0.228159
O	 1.181394098	-0.5113391661	 0.482975177	-0.281601
C	-1.2862316709	-0.6193241937	 0.530316981	-0.117394
O	-1.069956277	-1.9968607033	 0.7682632115	-0.414477
C	-1.7275370018	 0.0753944689	 1.7493976678	 0.318295
C	-2.079044476	 0.6279463954	 2.7572095556	-0.455558
H	 0.8904466915	 1.884817224	-0.6693648374	 0.129007
H	-0.8671163036	 1.827182235	-0.9172552144	 0.125101
H	-0.2135497913	 2.0366131388	 0.7146228065	 0.146428
H	 0.5788797039	-1.8342415855	-1.0848598309	 0.13082
H	 1.4991432303	-0.3273797308	-1.624481872	 0.116456
H	-2.0869284847	-0.5617026908	-0.2179676898	 0.123697
H	-0.2309817652	-2.0443196806	 1.2490540203	 0.294362
H	-2.3984642474	 1.109459085	 3.6485908284	 0.201644
70.7855	147.6824	192.951	225.319	278.0652	332.8681	363.2812	385.3126	451.6277	493.4981	545.3185	609.5077	633.4043	668.2571	751.0947	850.2303	878.6909	932.1716	985.8049	1016.067	1079.7692	1106.5723	1136.6557	1176.8016	1239.913	1281.7954	1317.7393	1390.6653	1420.2709	1430.0206	1481.8239	1496.5189	1519.2737	2232.0445	3035.0232	3043.856	3100.3392	3113.4306	3133.9045	3198.294	3500.5219	3745.2227
CC1(CO1)C(O)C#C	C[C@]1(CO1)[C@@H](O)C#C	
InChI=1S/C6H8O2/c1-3-5(7)6(2)4-8-6/h1,5,7H,4H2,2H3	InChI=1S/C6H8O2/c1-3-5(7)6(2)4-8-6/h1,5,7H,4H2,2H3/t5-,6-/m0/s1
