16
gdb 29399	4.98387	0.85992	0.75471	3.3838	74.7	-0.211	-0.0068	0.2043	1456.1535	0.123778	-437.943351	-437.934676	-437.933732	-437.97738	31.018	
C	-0.3774314147	 1.3694507524	 0.2952393578	-0.498888
C	-0.0534170107	-0.0672570055	 0.0178185149	 0.293677
C	 0.2059007123	-0.6247007983	-1.2117144328	-0.173659
N	 0.4573997729	-1.9693030031	-1.0363080917	-0.307416
C	 0.3695625687	-2.2596164154	 0.2944742416	 0.387254
O	 0.6199014296	-3.543451458	 0.7014669826	-0.216729
C	-0.3402636937	-4.1605836227	 1.4555571305	 0.156574
O	-0.1737093583	-5.2428706696	 1.9199327963	-0.255098
C	 0.0559436764	-1.1175636175	 0.9861845953	-0.363257
H	 0.351002648	 1.8253270794	 0.9757230745	 0.128087
H	-0.3795929263	 1.9563029538	-0.6278109085	 0.121153
H	-1.3636774672	 1.4811709379	 0.7605892873	 0.126489
H	 0.2386023325	-0.178049851	-2.1922789267	 0.122103
H	 0.6919339944	-2.637175554	-1.7499169626	 0.271853
H	-1.2408842487	-3.5316928272	 1.5641721057	 0.10237
H	-0.0563508551	-1.0328763511	 2.0558815158	 0.105486
61.761	112.8444	121.5997	151.4632	243.8315	294.2187	370.6429	432.2491	457.4423	489.328	637.2373	651.3211	667.1189	721.0259	795.6542	833.9575	980.2461	1003.5762	1022.0094	1046.2177	1065.5328	1112.6908	1122.7345	1179.8912	1263.102	1319.1454	1400.7792	1415.273	1422.1571	1479.7865	1482.6139	1505.5741	1552.2817	1632.3882	1878.1164	2997.0298	3026.1543	3075.0947	3106.6895	3251.3631	3265.1224	3685.1376
CC1=CNC(OC=O)=C1	Cc1c[nH]c(OC=O)c1	
InChI=1S/C6H7NO2/c1-5-2-6(7-3-5)9-4-8/h2-4,7H,1H3	InChI=1S/C6H7NO2/c1-5-2-6(7-3-5)9-4-8/h2-4,7H,1H3
