19
gdb 53981	2.87313	1.14073	1.01459	3.7512	72.8	-0.2506	0.01	0.2606	1231.0991	0.157605	-456.408169	-456.39801	-456.397065	-456.443108	37.3	
C	 0.0716885119	 1.6032645184	-0.0272463908	-0.402895
C	 0.0350222042	 0.0689917661	 0.0088576483	 0.142354
C	 0.8083427967	-0.4668933614	 1.2344973579	-0.404965
N	-1.3567933552	-0.4268517349	 0.0134436599	-0.32355
C	-2.2534226698	-0.2389839004	 1.0261347728	 0.16304
O	-2.0115111852	 0.1966488502	 2.1307385018	-0.320842
C	 0.74723889	-0.4949313384	-1.2437352102	 0.384068
N	 0.3209170782	-1.7307349838	-1.6579623167	-0.534755
O	 1.630003433	 0.1135516967	-1.8104072505	-0.357613
H	 1.1032898172	 1.9502335084	-0.0985647826	 0.141322
H	-0.4708782485	 1.9835638523	-0.8975410097	 0.112384
H	-0.3896392656	 1.9994869737	 0.8797010341	 0.13933
H	 0.3723940191	-0.0724699642	 2.1515065708	 0.164257
H	 0.7725033945	-1.5597129269	 1.2757273224	 0.106932
H	 1.8538755797	-0.1567979078	 1.1606718451	 0.133997
H	-1.7647951205	-0.6010309822	-0.8941638659	 0.249415
H	-3.2696826876	-0.5644914823	 0.7220788456	 0.080314
H	-0.2268948733	-2.3107458773	-1.0439408152	 0.262786
H	 0.8881734112	-2.1882360061	-2.3549821871	 0.264423
56.5369	83.2808	177.4975	214.6134	241.0937	250.081	259.8753	270.0755	344.2112	346.6003	400.0909	442.0569	507.761	540.7749	563.5721	633.828	691.2684	779.0205	835.2908	847.1224	948.6524	992.8012	1025.4055	1032.2286	1097.0868	1174.2522	1198.052	1204.5967	1246.8061	1346.851	1391.1255	1412.2682	1437.9847	1477.6692	1485.1351	1490.2341	1509.3695	1520.4179	1606.3621	1805.2686	1807.7311	2920.1574	3050.145	3055.2738	3120.2495	3128.9299	3153.9109	3165.0501	3582.3479	3596.5682	3713.1612
CC(C)(NC=O)C(N)=O	CC(C)(NC=O)C(=O)N	
InChI=1S/C5H10N2O2/c1-5(2,4(6)9)7-3-8/h3H,1-2H3,(H2,6,9)(H,7,8)	InChI=1S/C5H10N2O2/c1-5(2,4(6)9)7-3-8/h3H,1-2H3,(H2,6,9)(H,7,8)
