20
gdb 55863	3.75901	0.86039	0.84784	6.2614	76.45	-0.2483	0.0271	0.2755	1454.115	0.169838	-440.313073	-440.303516	-440.302572	-440.347949	35.357	
C	 0.3852424573	 1.3114359147	-0.3659217678	-0.442855
C	-0.1065170745	-0.0425863238	 0.1009923143	 0.318371
C	-1.3789481551	-0.5125294088	-0.5766340868	-0.46234
N	 0.9505380241	-1.0518532593	 0.3231207322	-0.382179
H	 0.6423549855	-1.9819392219	 0.0530740266	 0.24156
H	 2.496001764	-1.0354069143	 1.2793302602	 0.31387
C	 0.1656692252	-0.548085628	 1.4810577179	-0.062145
C	 0.9400386881	 0.2024167415	 2.5523106013	-0.362944
C	 2.1781410341	-0.5323773916	 3.0897065856	 0.401752
O	 2.9526560973	-1.0971342561	 2.1506191857	-0.371176
O	 2.4653927828	-0.5615436972	 4.2561036466	-0.328326
H	 1.3641868755	 1.5559257344	 0.0495867664	 0.134
H	 0.4812902184	 1.318518982	-1.4568358258	 0.126729
H	-0.3214090116	 2.1000969425	-0.0863367969	 0.125323
H	-1.2325114354	-0.602200893	-1.6589180061	 0.129328
H	-1.702974088	-1.4851312139	-0.1926943369	 0.118183
H	-2.1925420704	 0.2013833739	-0.4105647905	 0.133913
H	-0.5757569681	-1.2382779562	 1.8783597024	 0.101635
H	 1.2944432792	 1.1650155909	 2.1679666737	 0.131721
H	 0.2945271916	 0.416941614	 3.4055519579	 0.135581
45.4632	88.2291	151.3407	175.8487	232.6541	252.3218	285.1797	366.3398	389.5431	423.3004	459.1503	516.2314	598.7754	675.384	726.567	814.8174	838.5005	885.8561	903.9349	955.8382	962.9388	986.3332	996.2351	1034.6207	1092.7166	1130.9809	1150.2462	1170.2638	1237.4048	1280.5021	1306.0419	1315.2823	1352.2775	1413.4934	1424.4661	1443.5655	1456.1998	1466.2512	1477.7448	1490.49	1501.3081	1511.5148	1863.3096	3028.3749	3039.5141	3061.0473	3095.5206	3101.0636	3103.6253	3118.7087	3131.9835	3135.3638	3376.8999	3508.8898
CC1(C)[NH2+]C1CC([O-])=O	CC1(C)N[C@H]1CC(=O)O	
InChI=1S/C6H11NO2/c1-6(2)4(7-6)3-5(8)9/h4,7H,3H2,1-2H3,(H,8,9)	InChI=1S/C6H11NO2/c1-6(2)4(7-6)3-5(8)9/h4,7H,3H2,1-2H3,(H,8,9)/t4-/m0/s1
