20
gdb 116579	3.93542	0.95327	0.91216	2.2417	83.	-0.2433	0.0287	0.272	1401.5339	0.171198	-403.133758	-403.125027	-403.124083	-403.168461	32.197	
C	-0.652751323	 0.255681386	 0.7200912836	-0.358696
C	 0.418012346	 0.5856617976	-0.3213959646	-0.149459
N	 0.5097666659	-0.4859911693	-1.3099525523	-0.338815
C	 1.6105590713	-1.0378528758	-1.5235912792	 0.463319
O	 2.869008826	-0.7918888022	-0.9704355271	-0.28465
C	 3.4788365981	-1.8205418766	-1.8057652504	 0.115643
C	 3.5378358183	-3.1910647217	-1.1000410368	-0.235918
C	 2.1315397405	-3.5417451194	-1.682232917	-0.231636
C	 2.0884694861	-2.1603253076	-2.4113137125	-0.194881
H	-1.6134837634	 0.062428986	 0.2343745691	 0.123974
H	-0.3781973231	-0.6368085559	 1.2912511029	 0.114584
H	-0.7764070798	 1.0861702285	 1.4225091821	 0.107525
H	 0.1297382175	 1.5009733764	-0.8540234771	 0.105731
H	 1.3779875169	 0.7853362412	 0.1721974533	 0.108616
H	 4.3415148896	-1.4318462388	-2.3464001849	 0.091877
H	 4.3355836132	-3.8363479403	-1.4760329061	 0.110064
H	 3.619258937	-3.1244899749	-0.013500173	 0.119522
H	 2.1550972974	-4.3814533347	-2.3791048274	 0.11304
H	 1.32730572	-3.7083988064	-0.9636532499	 0.120937
H	 1.8227717957	-2.1268118223	-3.4656627128	 0.099223
28.5573	89.1291	122.7925	174.711	244.4257	268.1061	380.1627	390.3395	507.4688	662.9914	697.9871	734.136	790.3301	820.8364	839.9791	853.7952	915.2052	926.5243	946.0516	970.8069	1015.7315	1038.4124	1068.4412	1104.9572	1120.1969	1129.8595	1170.6555	1173.5448	1210.5526	1235.861	1253.2587	1276.792	1294.9618	1311.6802	1325.1511	1380.6823	1405.4872	1465.8933	1488.4106	1490.184	1494.0014	1511.3305	1838.7087	3010.6327	3036.7903	3046.5952	3068.3053	3077.6945	3107.3319	3114.6965	3117.1019	3120.6295	3135.2258	3143.2769
CCN=C1OC2CCC12	CCN=C1O[C@H]2CC[C@@H]12	
InChI=1S/C7H11NO/c1-2-8-7-5-3-4-6(5)9-7/h5-6H,2-4H2,1H3	InChI=1S/C7H11NO/c1-2-8-7-5-3-4-6(5)9-7/h5-6H,2-4H2,1H3/t5-,6+/m1/s1
