19
gdb 105207	2.16496	1.51001	1.08029	4.8296	71.89	-0.2333	0.0206	0.2539	1168.3296	0.159765	-456.350935	-456.341541	-456.340597	-456.384991	35.057	
C	 0.4692372022	-0.9913321387	 1.668994461	-0.333917
N	 0.0453466855	-0.3008523137	 0.4425791168	-0.380005
H	-1.0069797194	 1.1723508413	 1.1645430987	 0.303178
H	 0.7491890435	-0.4102025633	-0.2759722274	 0.236793
C	-1.2538632746	-0.6817235677	-0.058042211	 0.15796
C	-1.4453897741	-0.9329311808	-1.5417068027	-0.334469
C	-1.5862169259	-2.0789540664	-0.5877418295	-0.047515
N	-0.5237582174	-3.0532260705	-0.6014669827	-0.519415
C	-2.3890269173	 0.0735288457	 0.5946752836	 0.427253
O	-1.9781147469	 1.1427527579	 1.2967449592	-0.382003
O	-3.5502432241	-0.2267266944	 0.484134874	-0.357737
H	 1.4246830097	-0.5728489839	 1.9977830929	 0.124076
H	-0.2652190367	-0.806408157	 2.4585972583	 0.137881
H	 0.5842401508	-2.073440858	 1.5394585107	 0.121564
H	-2.337777055	-0.5268900823	-2.0020265501	 0.142785
H	-0.5479699177	-0.9116512009	-2.1523875712	 0.118434
H	-2.6063997748	-2.3977275548	-0.3792857341	 0.11001
H	-0.6130103847	-3.6849130196	 0.1880481553	 0.237268
H	-0.5920039032	-3.6255317631	-1.4380710617	 0.237859
72.1689	132.2132	162.8138	193.6679	217.6403	254.6176	281.6035	326.4265	376.3003	425.4777	478.7692	531.3163	643.5883	701.1074	741.9485	759.5295	848.0988	853.4168	872.3528	915.1496	946.9055	992.8934	1063.6145	1075.698	1095.793	1147.1589	1156.3009	1172.91	1194.7189	1262.1559	1276.3625	1331.3623	1399.469	1410.8815	1456.8207	1469.3515	1486.0224	1491.245	1524.0093	1662.9205	1854.4848	3030.6909	3097.4242	3115.2481	3117.5312	3133.4308	3232.5915	3492.8532	3516.4056	3566.4008	3566.9673
C[NH2+]C1(CC1N)C([O-])=O	CN[C@]1(C[C@H]1N)C(=O)O	
InChI=1S/C5H10N2O2/c1-7-5(4(8)9)2-3(5)6/h3,7H,2,6H2,1H3,(H,8,9)	InChI=1S/C5H10N2O2/c1-7-5(4(8)9)2-3(5)6/h3,7H,2,6H2,1H3,(H,8,9)/t3-,5+/m1/s1
