20
gdb 120012	2.55132	1.15869	0.87591	4.8451	75.76	-0.2308	0.0086	0.2395	1361.2296	0.169812	-440.305239	-440.295574	-440.29463	-440.340168	35.172	
C	-0.873709481	 0.8275432428	-0.7765265978	-0.375072
C	 0.1353625515	 0.2325706191	 0.2159342352	-0.142492
N	 1.2320854421	-0.5479349536	-0.345168451	-0.276505
C	 0.9316099811	-1.7951105001	-0.964174883	-0.170828
C	 0.6819795734	-2.0246921363	-2.5002236224	 0.118449
C	 1.0262397455	-0.9080987014	-3.4601824528	-0.408565
O	 1.7228309765	-3.0611429424	-2.49241525	-0.255489
C	 2.0853658438	-2.7947219452	-1.194697173	 0.431386
O	 2.9977857077	-3.250047052	-0.5862810842	-0.321269
H	-0.3808833009	 1.5021257851	-1.4851940773	 0.115332
H	-1.3827154784	 0.0449183535	-1.3493724717	 0.116587
H	-1.640795835	 1.4021160379	-0.2460606997	 0.118256
H	 0.5816942829	 1.0396716102	 0.8077284445	 0.110112
H	-0.3923607026	-0.4131767045	 0.9292778565	 0.112772
H	 1.8826915343	 0.0160325827	-0.8760175842	 0.22547
H	 0.1501858851	-2.2922398009	-0.3783371131	 0.120677
H	-0.2800199951	-2.4844351902	-2.7447007529	 0.090613
H	 1.9883792339	-0.4487435537	-3.211007745	 0.120515
H	 1.0957356585	-1.2958481235	-4.4804341382	 0.139864
H	 0.2546977966	-0.1330722974	-3.4388992298	 0.130186
66.6992	100.7097	104.3976	179.1745	200.6104	225.1461	258.1719	314.341	387.5238	438.085	480.4248	572.0624	583.2903	673.1394	754.3512	783.0863	820.9553	872.6504	895.1165	929.7368	1030.5377	1041.5192	1059.0872	1110.4729	1125.5214	1133.7738	1167.219	1205.6101	1239.3752	1302.9268	1309.4495	1377.3573	1378.7355	1393.3313	1406.9605	1414.8298	1476.7799	1481.0231	1490.778	1496.2869	1504.8029	1520.676	1939.1845	3026.3605	3027.9082	3041.753	3054.6618	3064.2006	3069.9918	3099.4371	3103.2442	3113.91	3123.5479	3567.96
CCNC1C(C)OC1=O	CCN[C@H]1[C@@H](C)OC1=O	
InChI=1S/C6H11NO2/c1-3-7-5-4(2)9-6(5)8/h4-5,7H,3H2,1-2H3	InChI=1S/C6H11NO2/c1-3-7-5-4(2)9-6(5)8/h4-5,7H,3H2,1-2H3/t4-,5+/m1/s1
