17
gdb 124944	3.28121	1.27562	0.92913	5.1482	79.7	-0.2466	-0.0436	0.203	1227.7026	0.135679	-418.056556	-418.047657	-418.046713	-418.090854	31.429	
C	-0.0312142618	 1.5567473622	 0.0787835482	-0.510086
C	 0.0140246045	 0.0630721776	-0.0058543483	 0.084784
C	-0.0054841972	-0.7417066731	-1.1174491109	 0.315613
C	-0.0766567699	-0.3934186714	-2.5692721682	-0.5093
N	 0.0564946989	-2.0496407118	-0.6493735937	-0.096705
C	 0.0629088631	-3.2181764845	-1.4192471755	 0.183861
O	 0.1173102773	-4.3316166571	-0.9806512734	-0.264234
N	 0.1145322207	-2.1081925091	 0.7138057254	-0.234292
C	 0.0890317032	-0.8508010654	 1.0910480566	-0.031428
H	 0.8586969832	 1.9556330151	 0.5783899948	 0.138537
H	-0.0872108042	 2.0203115928	-0.909442249	 0.127008
H	-0.9009489959	 1.8982027387	 0.6511661479	 0.138535
H	 0.7975667472	-0.7505105403	-3.1246895417	 0.146538
H	-0.968468066	-0.8081179134	-3.0519377924	 0.146538
H	-0.116757878	 0.6914235586	-2.6839253597	 0.142837
H	 0.0108485343	-2.9819812374	-2.4959359435	 0.098343
H	 0.1245353906	-0.6093500118	 2.1452305931	 0.123451
43.7027	97.9137	166.5331	191.168	213.8102	283.5104	293.5452	305.0334	381.5447	511.4469	649.7589	651.1791	674.0657	723.6091	846.5403	906.5177	941.0742	993.5093	1026.4421	1055.016	1068.9448	1106.3603	1156.4024	1227.7195	1309.7814	1361.5937	1399.1647	1423.5601	1429.798	1460.2356	1481.4869	1486.2303	1488.7405	1492.7131	1507.4429	1654.5645	1843.2023	2992.2636	3032.7124	3035.294	3083.1455	3086.0592	3113.7686	3130.986	3227.901
CC1=C(C)N(C=O)N=C1	Cc1c(C)n(C=O)nc1	
InChI=1S/C6H8N2O/c1-5-3-7-8(4-9)6(5)2/h3-4H,1-2H3	InChI=1S/C6H8N2O/c1-5-3-7-8(4-9)6(5)2/h3-4H,1-2H3
