17
gdb 86703	1.91805	1.78042	1.2032	3.0395	68.97	-0.2477	-0.0454	0.2022	1074.8069	0.132571	-458.955323	-458.946171	-458.945227	-458.990341	31.939	
C	 0.2909375625	 1.3532612412	-0.2346185194	-0.389204
C	-0.0278415679	-0.0567125561	 0.2188806023	 0.12826
O	 0.4457277544	-1.05587867	-0.7424698782	-0.30707
C	 1.3878965297	-1.5959235774	 0.1997292392	 0.024181
C	 2.801915106	-1.2985092202	-0.2635927922	 0.140923
O	 3.6741219446	-0.8606765508	 0.442460651	-0.234341
C	 0.8142320614	-0.7214504984	 1.3417160082	-0.171126
C	 1.7273202582	 0.063423159	 2.2573377409	 0.14529
O	 1.6592523976	 1.254446601	 2.4264118676	-0.25249
H	 1.3647658057	 1.4991307044	-0.3752695033	 0.130142
H	-0.2146179905	 1.5416219131	-1.1871363251	 0.121691
H	-0.0525029098	 2.0805430692	 0.5040778497	 0.141132
H	-1.1070944267	-0.1758125799	 0.3645946122	 0.092484
H	 1.2768576267	-2.6839719944	 0.3181331991	 0.106933
H	 2.9625408104	-1.5053741412	-1.3440865693	 0.107129
H	 0.1907828756	-1.3376939983	 2.0005321158	 0.117678
H	 2.4398387423	-0.5625828012	 2.8323319915	 0.098388
39.2702	74.0128	99.0478	196.3017	212.7534	246.2347	311.6432	341.5422	369.5736	411.092	645.0765	679.7691	708.9743	767.6682	832.2846	899.0432	959.5091	980.1123	1030.4659	1037.0095	1071.0926	1092.8493	1110.1183	1167.5176	1207.9981	1250.5422	1309.2392	1333.5614	1345.9784	1386.3479	1398.5193	1412.3611	1429.3697	1477.5332	1489.4579	1816.8347	1827.6074	2906.6376	2922.4774	2996.9414	3037.2271	3047.1507	3051.9725	3121.7157	3139.6411
CC1OC(C=O)C1C=O	C[C@H]1O[C@@H](C=O)[C@H]1C=O	
InChI=1S/C6H8O3/c1-4-5(2-7)6(3-8)9-4/h2-6H,1H3	InChI=1S/C6H8O3/c1-4-5(2-7)6(3-8)9-4/h2-6H,1H3/t4-,5+,6+/m1/s1
