18
gdb 11504	4.37885	1.05208	0.94038	2.8842	72.52	-0.257	0.0334	0.2904	1244.7631	0.154109	-343.975576	-343.966945	-343.966001	-344.0094	30.854	
C	-0.0122201744	 1.4893658218	-0.274485605	-0.395485
C	 0.0164189983	-0.0031935419	 0.1087053987	-0.131223
C	 0.6973448126	-0.2760280837	 1.4765562999	-0.225198
C	 2.1693458042	 0.0670347269	 1.4881846572	 0.020659
C	 3.1205201546	-0.7325273834	 2.2971673367	-0.248546
N	 3.1466006628	-0.815877051	 0.8246264807	-0.315947
C	-1.3442602251	-0.5509267509	 0.1192977915	 0.264053
N	-2.4173451302	-0.979995417	 0.1431199591	-0.321741
H	 1.0054028744	 1.8741614656	-0.3724952794	 0.13721
H	-0.5248627731	 1.6350483813	-1.22814947	 0.140884
H	-0.5357592629	 2.0746973587	 0.4871094064	 0.136296
H	 0.572927844	-0.5490622712	-0.6642056832	 0.131734
H	 0.1723690834	 0.296284162	 2.2512994392	 0.123208
H	 0.5706233798	-1.3351992936	 1.7292358759	 0.113949
H	 2.3999760826	 1.1214592986	 1.351635597	 0.099858
H	 3.9890865463	-0.258215247	 2.7444468368	 0.124982
H	 2.7256688477	-1.5749746978	 2.8595572897	 0.116344
H	 2.688189545	-1.6758512572	 0.5289244489	 0.228964
53.7911	91.8335	133.9611	198.1974	228.8098	270.5507	324.5098	398.0126	458.3487	544.7918	573.7699	789.8438	812.3582	833.3627	898.7549	915.5531	947.9008	970.6429	1033.327	1065.0924	1085.8049	1123.4596	1133.8989	1167.2024	1210.7875	1253.0795	1267.3645	1295.8335	1308.6842	1342.8435	1361.9633	1412.6325	1430.945	1477.0889	1496.1316	1501.4107	1513.8218	2356.0036	3026.7592	3033.8302	3051.3368	3073.3615	3110.1538	3125.7649	3128.3235	3136.3156	3196.0076	3481.5955
CC(CC1CN1)C#N	C[C@@H](C[C@H]1CN1)C#N	
InChI=1S/C6H10N2/c1-5(3-7)2-6-4-8-6/h5-6,8H,2,4H2,1H3	InChI=1S/C6H10N2/c1-5(3-7)2-6-4-8-6/h5-6,8H,2,4H2,1H3/t5-,6-/m0/s1
