19
gdb 88517	2.51492	1.27612	1.10664	3.0705	76.34	-0.2471	-0.0257	0.2214	1192.6176	0.156929	-423.005375	-422.996175	-422.995231	-423.039805	33.733	
C	-0.5289007774	 1.2749830943	-0.1232269815	-0.432598
C	 0.0112740419	-0.1264244718	-0.0097043099	 0.078058
O	 1.4224611035	-0.3250518301	-0.1951549275	-0.258835
C	 0.8642318547	-0.6143831919	 1.0903774508	-0.047949
C	 1.3187339588	 0.2172237807	 2.257855939	 0.225684
C	 0.4779973964	 0.1940610371	 3.527888876	-0.285764
C	 1.7809318998	-0.5206622212	 3.5225407455	-0.288504
C	 2.0811770459	 1.4738376726	 1.9943445525	 0.073849
O	 2.3369978937	 2.2924296173	 2.8483803398	-0.286632
H	-0.5030864328	 1.6080053212	-1.165883288	 0.135441
H	-1.5717996598	 1.2999743411	 0.2102969197	 0.127582
H	 0.0369583035	 1.9921169489	 0.4748965601	 0.13612
H	-0.5905615173	-0.8810911108	-0.5208577084	 0.092398
H	 0.8059812961	-1.6830545265	 1.3114955128	 0.089928
H	 0.421826698	 1.1362650309	 4.0609507753	 0.145407
H	-0.4363248464	-0.3884601409	 3.4956498106	 0.120695
H	 1.7868310104	-1.6044991069	 3.4731221846	 0.124263
H	 2.6093056991	-0.0713564808	 4.0574348272	 0.14253
H	 2.4314768917	 1.5946448767	 0.9523245414	 0.108326
44.9468	104.7079	159.4468	191.7599	213.3384	263.1694	290.449	326.8974	391.6013	423.4981	544.7776	649.3881	745.545	782.1752	793.7777	829.4475	846.4088	935.7724	966.6856	976.3436	1023.7152	1036.4115	1066.8635	1070.0625	1093.7149	1108.0836	1159.7573	1172.8002	1206.7987	1277.8635	1284.6245	1333.7602	1399.3006	1421.8982	1426.4326	1452.5163	1466.033	1483.0752	1484.8124	1505.4239	1795.4059	2963.3785	3042.3057	3068.2846	3086.3173	3103.5236	3134.5846	3134.9845	3137.2008	3225.0054	3238.9173
CC1OC1C1(CC1)C=O	C[C@H]1O[C@H]1C1(CC1)C=O	
InChI=1S/C7H10O2/c1-5-6(9-5)7(4-8)2-3-7/h4-6H,2-3H2,1H3	InChI=1S/C7H10O2/c1-5-6(9-5)7(4-8)2-3-7/h4-6H,2-3H2,1H3/t5-,6-/m1/s1
