16
gdb 125559	2.3776	1.76112	1.02458	3.3111	73.13	-0.2635	-0.0599	0.2037	1116.3233	0.123899	-434.118047	-434.109501	-434.108556	-434.151201	30.566	
C	-0.029324366	 1.4989690459	-0.0085473761	-0.482784
C	-0.0264431714	 0.0124250002	-0.0271636376	 0.365626
N	-0.0803729415	-0.7313002729	-1.0907975391	-0.256949
N	-0.0557652842	-2.0693247129	-0.6951042564	-0.260353
C	 0.0125958935	-2.105261207	 0.5999642089	 0.369771
C	 0.0597104382	-3.3447759356	 1.4249821536	-0.508207
N	 0.0347917861	-0.8045191216	 1.1076564406	-0.161012
C	 0.103559269	-0.428670357	 2.4501200874	 0.172958
O	 0.1205567116	 0.7080739181	 2.8384164698	-0.276858
H	 0.874477645	 1.8947117569	 0.4629157134	 0.152406
H	-0.086128354	 1.8468362706	-1.0409309661	 0.154272
H	-0.8787077547	 1.8902062309	 0.5581413116	 0.152482
H	 0.9774217315	-3.4093494067	 2.019501907	 0.145252
H	-0.7916876257	-3.4159137974	 2.1104792591	 0.145297
H	 0.0278659829	-4.1968171821	 0.7447337603	 0.171798
H	 0.1407514796	-1.3037504291	 3.1201412436	 0.116302
106.0545	171.6545	177.9434	184.1692	212.1203	254.4525	276.8508	343.384	403.9153	527.4045	619.6609	679.7393	686.6724	741.5402	824.6441	990.3891	1037.9152	1037.9303	1054.3927	1066.0663	1069.9566	1071.096	1289.7516	1345.4542	1383.258	1412.0136	1425.2646	1445.7202	1469.2204	1473.614	1482.914	1483.7402	1598.0312	1602.4402	1828.395	3002.7063	3038.2777	3055.2793	3092.6833	3114.7816	3150.3331	3153.7604
CC1=NN=C(C)N1C=O	Cc1nnc(C)n1C=O	
InChI=1S/C5H7N3O/c1-4-6-7-5(2)8(4)3-9/h3H,1-2H3	InChI=1S/C5H7N3O/c1-4-6-7-5(2)8(4)3-9/h3H,1-2H3
