19
gdb 67038	2.09019	2.0289	1.60634	2.3702	74.02	-0.226	0.0617	0.2876	958.8414	0.159298	-422.997431	-422.989416	-422.988472	-423.029361	31.872	
C	 0.0305556784	 1.5323423244	 0.0013937697	-0.51388
C	 0.0039971419	 0.0351183656	 0.016358473	 0.208811
C	 0.4811280598	-1.0524403697	-0.9604763743	-0.158136
C	 1.2202499189	-1.7946019613	 0.1547694091	-0.293965
C	 0.4575622669	-0.910757491	 1.1908251644	 0.321334
O	 1.1312437844	-0.4034774371	 2.3012276287	-0.486428
C	-0.847143988	-1.5928398302	 1.6009415113	-0.101982
O	-1.5338306587	-1.8096673761	 0.3669949799	-0.27197
C	-0.9806090705	-0.9075845665	-0.5733545041	 0.07037
H	 1.0344080471	 1.9226516529	 0.207595058	 0.110046
H	-0.2788521698	 1.9215949431	-0.9739077692	 0.123108
H	-0.6452021986	 1.9485127458	 0.7570740965	 0.130499
H	 0.8116981068	-0.9494478994	-1.9885759012	 0.081502
H	 1.0968240463	-2.8805619907	 0.2303767913	 0.102804
H	 2.2887115081	-1.5527196476	 0.152876375	 0.089909
H	 1.991127248	-0.0784676371	 2.0160586808	 0.282237
H	-0.6878429045	-2.5588657991	 2.089846498	 0.109436
H	-1.4280614774	-0.9413157252	 2.2713020355	 0.096421
H	-1.6886342491	-0.597028691	-1.3332866024	 0.099884
163.9522	183.0926	195.2251	245.2278	277.0107	327.1024	375.3953	449.067	498.2741	588.6725	609.498	663.7615	725.7095	780.8531	853.3481	875.0699	904.3555	952.2541	980.0477	991.9446	1022.8587	1048.1389	1066.1064	1086.4413	1116.1358	1122.948	1154.6027	1190.0578	1221.1558	1242.9202	1246.6268	1286.9677	1301.2347	1363.9836	1401.8244	1414.8464	1460.285	1486.408	1489.4112	1494.3918	1516.5661	2991.6182	3021.4011	3030.6756	3078.4666	3079.8802	3083.7852	3097.4816	3164.5033	3184.4081	3817.8447
CC12C3CC1(O)COC23	C[C@@]12[C@H]3C[C@]1(O)CO[C@@H]23	
InChI=1S/C7H10O2/c1-6-4-2-7(6,8)3-9-5(4)6/h4-5,8H,2-3H2,1H3	InChI=1S/C7H10O2/c1-6-4-2-7(6,8)3-9-5(4)6/h4-5,8H,2-3H2,1H3/t4-,5+,6-,7-/m0/s1
