17
gdb 46144	4.53819	0.98116	0.83505	0.7142	73.46	-0.2543	0.0099	0.2641	1303.8065	0.138614	-418.072361	-418.064216	-418.063272	-418.105482	30.173	
O	 0.0191317793	-0.0881722634	-0.0784222751	-0.365969
C	-0.0151856942	 1.1246687448	-0.0183658624	 0.401513
C	-1.3308782209	 1.8973748118	 0.0103261191	-0.329371
C	-1.224393487	 3.3776404261	-0.3693495034	-0.21932
C	-0.0334166678	 4.0152539363	 0.3741702907	-0.152309
C	 1.2684234831	 3.308898809	-0.04638477	-0.154102
N	 1.1309895715	 1.8701425712	 0.104979289	-0.322606
C	 0.0671426502	 5.452153684	 0.1212315223	 0.266189
N	 0.1471484107	 6.5857035559	-0.0880676327	-0.313199
H	-2.0294663766	 1.3660559152	-0.6395973367	 0.141542
H	-1.7233613966	 1.7978414129	 1.0305264401	 0.13863
H	-1.065479867	 3.4901219852	-1.4479735434	 0.127569
H	-2.1508234378	 3.9053254606	-0.1275751766	 0.128481
H	-0.1742691477	 3.8740109237	 1.45355546	 0.13628
H	 1.5006816288	 3.5860846881	-1.0850382201	 0.129481
H	 2.0996243603	 3.6557185912	 0.5750053288	 0.134981
H	 1.9742967917	 1.3150935175	 0.0614056705	 0.252211
70.6119	143.3481	157.7172	168.5452	311.6891	372.9681	424.5966	474.5912	515.802	537.4358	579.964	657.1776	686.4974	769.9176	821.4652	924.0844	955.4887	991.5749	1030.0156	1077.7585	1097.2646	1137.0286	1190.0365	1227.9808	1280.2592	1298.4663	1314.9554	1338.1851	1356.5529	1386.8834	1401.8878	1462.6707	1484.1411	1500.2593	1527.3593	1797.5513	2362.1585	2997.9902	3032.6684	3038.6738	3050.171	3076.5269	3098.1859	3114.3349	3601.1078
O=C1CCC(CN1)C#N	O=C1CC[C@@H](CN1)C#N	
InChI=1S/C6H8N2O/c7-3-5-1-2-6(9)8-4-5/h5H,1-2,4H2,(H,8,9)	InChI=1S/C6H8N2O/c7-3-5-1-2-6(9)8-4-5/h5H,1-2,4H2,(H,8,9)/t5-/m1/s1
