17
gdb 18454	3.19053	1.87629	1.46929	3.7877	67.9	-0.2439	-0.0096	0.2343	909.5239	0.141863	-363.848004	-363.84036	-363.839415	-363.880282	28.459	
C	-0.0127720824	 1.3304064459	 0.4139184425	-0.376716
C	 0.0029535036	-0.0457635176	-0.2637101924	-0.221985
C	-1.3575884384	-0.7092791311	-0.2322031811	 0.019626
C	-1.6392919691	-2.1504779109	-0.1382284684	-0.05574
C	-0.6208378621	-2.9205042651	 0.6999335634	-0.379475
C	-0.9254317488	-1.8768084483	 1.7867341237	 0.403468
O	-0.5531722723	-1.6670477096	 2.8987372986	-0.30033
N	-1.9831753458	-1.2160991137	 1.0414631121	-0.196272
H	 0.9681219076	 1.8090090892	 0.3453278123	 0.117699
H	-0.745183636	 1.9942327543	-0.0574432721	 0.118704
H	-0.2754835114	 1.2380006583	 1.4715214753	 0.148333
H	 0.2976709581	 0.0564516361	-1.3158654343	 0.106862
H	 0.7610635773	-0.6786865505	 0.2078087745	 0.114274
H	-2.1125101608	-0.1479076577	-0.7809879874	 0.110836
H	-2.4450951475	-2.6181809488	-0.6918210247	 0.112172
H	-0.974846155	-3.9102285725	 1.0004760372	 0.144497
H	 0.4074135429	-3.002289078	 0.3405899507	 0.134048
61.1408	126.3594	194.5922	223.9249	289.2321	441.7922	476.6812	490.061	591.814	638.9148	731.1268	781.7607	813.9728	856.0284	888.6746	959.7936	989.3356	1019.4787	1028.3649	1062.2032	1076.6478	1114.0424	1150.672	1178.1845	1223.8374	1261.61	1294.1295	1338.8584	1358.5043	1414.2074	1446.7622	1458.3721	1482.6933	1499.7604	1507.0751	1911.3342	3031.9238	3040.4234	3070.703	3078.2694	3110.0199	3121.5869	3123.7877	3125.7422	3186.2784
CCC1C2CC(=O)N12	CC[C@H]1[C@H]2CC(=O)N12	
InChI=1S/C6H9NO/c1-2-4-5-3-6(8)7(4)5/h4-5H,2-3H2,1H3	InChI=1S/C6H9NO/c1-2-4-5-3-6(8)7(4)5/h4-5H,2-3H2,1H3/t4-,5+,7?/m0/s1
