25
gdb 115721	2.5887	1.0368	0.81577	0.0813	93.35	-0.2598	0.0848	0.3447	1537.3843	0.229376	-352.338436	-352.328651	-352.327706	-352.373434	37.329	
C	-0.0058215093	 1.6165574891	-0.0270899344	-0.387433
C	-0.109735271	 0.0885262114	-0.0727071245	-0.174446
C	 0.6849348781	-0.5261206712	-1.2268113829	 0.00844
C	 2.226356221	-0.5726516882	-0.9939909729	-0.225836
C	 2.1032572597	-2.0716669899	-0.6142116962	-0.237944
C	 0.7013284182	-2.095159461	-1.2875938781	 0.0204
C	-0.4037383111	-2.9008397083	-0.661139094	 0.024352
C	-1.6273796502	-3.2801167477	-1.4616794613	-0.271871
C	-0.6228806368	-4.3365824179	-1.0756761053	-0.281172
H	 1.0333341883	 1.9450864766	 0.0819173506	 0.116368
H	-0.3974167787	 2.0643769081	-0.9473984063	 0.112606
H	-0.5737006943	 2.0298457553	 0.8124926576	 0.10884
H	 0.2363168666	-0.3276163503	 0.883080174	 0.089926
H	-1.1637402096	-0.2010951683	-0.1667550113	 0.098389
H	 0.37312141	-0.0447494395	-2.1606528949	 0.055935
H	 2.790692807	-0.4253315508	-1.9190104283	 0.095555
H	 2.6320705971	 0.1024264006	-0.2351934773	 0.091749
H	 2.8593824467	-2.7600649601	-0.9999372501	 0.091871
H	 2.0317683871	-2.2166350538	 0.468376012	 0.096469
H	 0.8081628561	-2.4028699696	-2.3351904012	 0.058915
H	-0.5793184271	-2.6904217998	 0.3907031104	 0.076549
H	-2.5919066477	-3.2799292782	-0.9658112993	 0.10792
H	-1.6650880741	-2.973503939	-2.5021159721	 0.108134
H	 0.0143957226	-4.7397969329	-1.8562219215	 0.108384
H	-0.9005565186	-5.0579551843	-0.3150266028	 0.1079
63.8446	104.5543	123.6175	130.0883	205.8471	220.8759	276.4911	307.413	389.1828	409.2084	514.8735	666.7655	746.0449	767.9935	795.971	819.432	828.9136	885.0443	909.5435	917.0425	933.4376	965.6592	978.1625	986.7131	1018.5887	1055.5592	1060.3084	1073.3071	1080.8059	1116.5601	1138.3167	1160.4841	1198.0434	1211.8458	1218.148	1228.5252	1255.0794	1260.2375	1272.04	1277.0829	1307.6756	1319.8567	1340.4249	1391.6902	1410.8482	1433.4846	1470.0912	1481.0732	1486.4241	1498.5412	1500.6411	1505.501	1508.1115	3011.3397	3018.7672	3028.7508	3032.9501	3047.306	3051.8595	3055.1997	3091.0944	3096.0431	3099.9309	3108.8471	3126.0824	3130.3888	3137.5083	3203.4371	3218.9267
CCC1CCC1C1CC1	CC[C@H]1CC[C@H]1C1CC1	
InChI=1S/C9H16/c1-2-7-5-6-9(7)8-3-4-8/h7-9H,2-6H2,1H3	InChI=1S/C9H16/c1-2-7-5-6-9(7)8-3-4-8/h7-9H,2-6H2,1H3/t7-,9+/m0/s1
