19
gdb 48362	2.79393	1.24273	1.06489	3.2102	75.5	-0.2505	-0.0275	0.2231	1190.1475	0.158669	-422.997373	-422.988771	-422.987826	-423.0311	31.711	
O	-0.1408979692	 0.1496201227	 0.6069495673	-0.28154
C	 0.1519148706	 0.9902814154	-0.2121307671	 0.076495
C	 1.3322652771	 1.8980052598	-0.0924803932	 0.255286
C	 1.7010426747	 2.283633061	 1.3390183965	-0.294631
C	 2.5398738072	 1.288073922	 0.6171565484	-0.294639
C	 1.5623936016	 2.8974708745	-1.2034344175	-0.133032
C	 1.4974556908	 2.3466775754	-2.6504198721	-0.093998
O	 0.2217738783	 2.9822199326	-2.8780494523	-0.268726
C	 0.3326832435	 3.7290539511	-1.6479942522	-0.093999
H	-0.4646307915	 1.1327034207	-1.1248657899	 0.102288
H	 2.0892977811	 3.2850725983	 1.4899176436	 0.119584
H	 1.0378522297	 1.9143699423	 2.1125489778	 0.142677
H	 2.4422945203	 0.2475171339	 0.9039428587	 0.142677
H	 3.5188579645	 1.5884043801	 0.2596871918	 0.119585
H	 2.453930797	 3.4887581572	-0.9829532404	 0.07807
H	 2.2726433331	 2.7373750533	-3.322606767	 0.102811
H	 1.4441239842	 1.2574671726	-2.7626786882	 0.10914
H	-0.5691079924	 3.6468001769	-1.0300662086	 0.109141
H	 0.5426558894	 4.7905661603	-1.8337405356	 0.102811
73.173	103.5849	136.7666	213.9519	215.6285	275.9457	321.7554	355.9153	479.7476	589.1379	726.8873	797.0969	826.7089	835.7648	872.2672	886.0273	951.4409	952.634	1001.4745	1033.2247	1056.2059	1058.2699	1068.5687	1072.7256	1096.2785	1106.1695	1159.8029	1169.6049	1205.9313	1238.8353	1264.3232	1307.1146	1316.7376	1373.3276	1397.0791	1445.7426	1453.3366	1484.5849	1512.5122	1537.4984	1802.1128	2909.8543	3005.6849	3015.3892	3058.2391	3059.5437	3081.6546	3137.1771	3138.5904	3226.1069	3239.6878
O=CC1(CC1)C1COC1	O=CC1(CC1)C1COC1	
InChI=1S/C7H10O2/c8-5-7(1-2-7)6-3-9-4-6/h5-6H,1-4H2	InChI=1S/C7H10O2/c8-5-7(1-2-7)6-3-9-4-6/h5-6H,1-4H2
