14
gdb 132712	5.68613	0.96817	0.82731	0.5638	82.36	-0.2307	-0.0287	0.202	1266.783	0.100952	-407.554118	-407.546826	-407.545882	-407.58587	28.363	
F	 0.001929938	 0.0094314415	 0.0037410136	-0.077858
C	-0.0161967925	 1.3449442081	 0.0106213306	 0.299975
C	-1.2382929863	 2.0041901883	 0.0302092523	-0.234601
C	-1.2526576014	 3.3925808267	 0.0372995816	-0.186042
C	-0.0539235566	 4.124532235	 0.0249359238	 0.156276
C	 1.1642324152	 3.425549996	 0.0052009486	-0.186042
C	 1.1875546899	 2.037281661	-0.0020082614	-0.234598
C	-0.0732521007	 5.5486270428	 0.0322706131	 0.218564
C	-0.0895987634	 6.7528354269	 0.0384712939	-0.414105
H	-2.1558645639	 1.428099909	 0.0395942741	 0.116369
H	-2.196788977	 3.9242141196	 0.0525430917	 0.115808
H	 2.0935853197	 3.9827400645	-0.0044366141	 0.115808
H	 2.1204218555	 1.4864333384	-0.0171995037	 0.116369
H	-0.1040262467	 7.8144548623	 0.0439352758	 0.194077
106.1243	144.5654	266.5435	396.955	415.5986	420.7166	456.7741	528.9436	548.5376	584.0358	644.4936	653.728	705.5068	734.2738	839.1535	851.2968	859.9344	950.2864	964.9012	1025.6867	1114.0085	1178.6682	1222.8217	1288.2874	1307.68	1317.9192	1433.4582	1539.9228	1612.8045	1647.4278	2227.3172	3197.2349	3198.2599	3211.8605	3213.3182	3503.6155
FC1=CC=C(C=C1)C#C	Fc1ccc(cc1)C#C	
InChI=1S/C8H5F/c1-2-7-3-5-8(9)6-4-7/h1,3-6H	InChI=1S/C8H5F/c1-2-7-3-5-8(9)6-4-7/h1,3-6H
