19
gdb 79033	4.64318	1.31643	1.25783	1.6742	77.68	-0.2459	0.0752	0.3211	1038.7658	0.161753	-385.823394	-385.816677	-385.815733	-385.854048	28.756	
O	 0.1957191324	 1.3978262113	-0.1882296395	-0.454187
C	 0.0498320902	 0.0101493966	-0.0387870545	 0.164924
C	 0.0277320097	-0.6509287455	 1.3557108414	-0.11249
C	-1.4693527411	-0.1798725214	 1.5512450237	-0.045471
C	-2.1988286938	-1.2497772228	 2.3558490586	-0.064071
C	-3.0984163151	-2.2045329436	 1.604295548	-0.296918
C	-1.6226483703	-2.5005963164	 1.7369471116	-0.057167
C	-0.6806420803	-1.8972998687	 0.7015800326	-0.018445
C	-1.3520506326	-0.6412770789	 0.0558931012	-0.122326
H	-0.3587709026	 1.8421160113	 0.4607530919	 0.28158
H	 0.7275122447	-0.4380267373	-0.7703895673	 0.08028
H	 0.8138853147	-0.6683823328	 2.1138162004	 0.067447
H	-1.6937940443	 0.8642169387	 1.7812804375	 0.050855
H	-2.3162099499	-1.1287375882	 3.4264987201	 0.084496
H	-3.7703072451	-2.8091823629	 2.2056225413	 0.106985
H	-3.5089615721	-1.9190567554	 0.6420052846	 0.112049
H	-1.2925766728	-3.3452520936	 2.3304142012	 0.085415
H	-0.0967921689	-2.5647904989	 0.0653300627	 0.064942
H	-2.139089713	-0.6316443512	-0.6997936756	 0.072104
209.6424	227.7479	268.3744	332.4871	417.5082	500.4845	552.0364	680.8557	683.1731	764.203	787.0473	815.2926	818.5289	867.094	904.5864	911.4151	930.4798	940.3426	987.6058	995.2708	1019.89	1061.2565	1066.641	1076.6532	1092.4224	1099.7082	1114.8892	1122.8712	1154.5853	1171.7587	1197.6246	1207.7457	1235.0861	1276.5071	1278.6685	1288.901	1325.3952	1333.3889	1378.1836	1455.6565	1489.2473	3075.5612	3079.0949	3089.88	3094.8313	3106.4905	3129.4552	3171.4814	3180.0805	3211.7653	3821.6593
OC1C2C3C4CC4C2C13	O[C@H]1[C@H]2[C@@H]3[C@H]4C[C@H]4[C@H]2[C@H]13	
InChI=1S/C8H10O/c9-8-6-4-2-1-3(2)5(6)7(4)8/h2-9H,1H2	InChI=1S/C8H10O/c9-8-6-4-2-1-3(2)5(6)7(4)8/h2-9H,1H2/t2-,3+,4-,5+,6-,7+,8-/m0/s1
