17
gdb 77999	3.07595	1.30509	1.08931	1.694	76.98	-0.2343	0.0104	0.2447	1142.1275	0.133607	-421.745868	-421.737251	-421.736307	-421.778667	33.263	
C	-0.1060037109	 1.5469824375	-0.017217567	-0.43109
C	 0.1879932088	 0.061490616	 0.0281189645	 0.14011
O	 1.3753661147	-0.3469768032	-0.7359736495	-0.356291
C	 1.8176908922	-1.1813350896	 0.3562674975	 0.229501
C	 2.2835093203	-2.4948416243	 0.092790876	 0.195123
C	 2.6894418374	-3.6082643383	-0.1156612069	-0.384296
C	 2.1996686954	-0.2691789497	 1.4824506342	 0.07423
O	 2.7786067255	 0.9686851323	 1.2346017308	-0.429912
C	 0.7324229532	-0.5990551853	 1.2901538744	-0.255668
H	 0.6930973054	 2.1305179242	 0.4421918456	 0.14015
H	-0.2445310255	 1.872424692	-1.0534006294	 0.130017
H	-1.0359578658	 1.7506960783	 0.5245117281	 0.12527
H	-0.6641891943	-0.5081000565	-0.3631533074	 0.09726
H	 3.0469184917	-4.590317572	-0.304435092	 0.193244
H	 2.643375074	-0.7626032829	 2.3420745127	 0.123011
H	 2.7273086502	 1.097988864	 0.2769381766	 0.297834
H	 0.1425012478	-1.1038160125	 2.0439442219	 0.111508
117.3943	143.7924	187.7937	229.5898	235.6944	311.252	386.1984	441.5793	463.8885	494.9688	539.4243	576.9108	616.504	688.7099	709.5606	747.6636	818.3845	861.4294	894.5661	948.5753	984.9718	1022.1379	1061.1466	1081.8945	1110.0053	1151.1719	1173.0442	1245.4686	1298.076	1315.2509	1364.5442	1389.4691	1410.9654	1466.067	1488.1958	1503.0115	2232.558	3025.7793	3042.6619	3105.1488	3146.0147	3167.2085	3202.5498	3500.9749	3744.6329
CC1OC2(C#C)C(O)C12	C[C@H]1O[C@@]2(C#C)[C@@H](O)[C@@H]12	
InChI=1S/C7H8O2/c1-3-7-5(6(7)8)4(2)9-7/h1,4-6,8H,2H3	InChI=1S/C7H8O2/c1-3-7-5(6(7)8)4(2)9-7/h1,4-6,8H,2H3/t4-,5-,6+,7-/m1/s1
