19
gdb 116119	2.7069	1.14545	0.84427	5.6164	72.01	-0.2549	0.0164	0.2712	1337.0636	0.159773	-460.202782	-460.193913	-460.192968	-460.236856	32.536	
O	-0.0381200144	 1.4301480707	-0.0227243358	-0.420985
C	 0.0542259043	 0.015403213	 0.0107524054	-0.097865
C	-1.362026509	-0.5494983215	-0.0179671505	 0.011095
C	-1.3832447482	-2.0779954381	-0.0366226685	-0.238416
C	-2.8232427077	-2.5586122876	-0.1340456982	-0.067768
O	-3.6892334722	-2.0220782316	 0.8784641602	-0.228165
C	-3.5221775698	-0.7765215085	 1.3944675334	 0.396513
O	-4.4013166897	-0.306845855	 2.0635860169	-0.321859
C	-2.1886106922	-0.0727650063	 1.1822474811	-0.327578
H	 0.8472082825	 1.7969242308	 0.0539754535	 0.291752
H	 0.6200176068	-0.3691735272	-0.8533695675	 0.088097
H	 0.5692386291	-0.3317268545	 0.9225916133	 0.086335
H	-1.8357769628	-0.1839918843	-0.9398885478	 0.091782
H	-0.8233103142	-2.4788983766	-0.8893662945	 0.107031
H	-0.917554483	-2.4739462763	 0.8752544562	 0.109192
H	-3.243085266	-2.2917456661	-1.1131454932	 0.114561
H	-2.8942015929	-3.6439140874	-0.0253379638	 0.122277
H	-1.6179273852	-0.2470568667	 2.1061599107	 0.130955
H	-2.3843874455	 0.9991125131	 1.1450717893	 0.153045
85.2319	97.366	123.9824	182.7647	232.7264	267.2862	350.6917	405.415	460.6978	490.9105	501.0565	586.0556	659.8011	782.0546	852.9556	898.7683	920.9738	972.6395	993.7443	1053.8562	1088.4077	1112.6694	1116.4127	1137.4011	1180.25	1222.7107	1229.9928	1255.6633	1285.0396	1292.1738	1311.2043	1330.3943	1385.1106	1398.0335	1429.3292	1458.6463	1460.9648	1483.4287	1514.6136	1520.741	1844.1603	2955.3063	2984.206	3009.8374	3017.93	3020.1808	3029.7348	3073.8753	3094.939	3133.8364	3835.914
OCC1CCOC(=O)C1	OC[C@H]1CCOC(=O)C1	
InChI=1S/C6H10O3/c7-4-5-1-2-9-6(8)3-5/h5,7H,1-4H2	InChI=1S/C6H10O3/c7-4-5-1-2-9-6(8)3-5/h5,7H,1-4H2/t5-/m0/s1
