17
gdb 79425	3.93346	1.22751	1.0621	4.5334	73.88	-0.2452	-0.0371	0.2082	1141.6309	0.133964	-421.736297	-421.728448	-421.727504	-421.768752	29.783	
C	-0.1220508195	 1.6250287891	-0.0045860258	-0.418896
C	-0.0496640855	 0.1049111592	-0.0017375931	-0.026252
C	 1.1421029621	-0.5845782634	-0.7057315361	-0.143062
C	 2.0922224473	-0.3767036112	 0.5175546685	 0.076324
O	 2.5040208451	-1.7722150532	 0.6046329894	-0.344636
C	 1.0996095901	-1.831322092	 0.2604162353	 0.39394
C	 0.3975387563	-3.1251118043	 0.0763843322	 0.023829
O	 0.9140419739	-4.2057068973	 0.1934655133	-0.242614
C	 0.6856658863	-0.6028165055	 1.1600344298	-0.142986
H	 0.8452788871	 2.0783999532	 0.2364871647	 0.118294
H	-0.4307230436	 2.0010425929	-0.9858029383	 0.123968
H	-0.850493976	 1.9842685361	 0.7301032443	 0.123969
H	-1.0260091177	-0.3284376405	-0.2448240505	 0.078251
H	 1.4253183304	-0.6092326531	-1.7583781488	 0.095489
H	 2.8403360235	 0.3903091552	 0.7080632264	 0.106617
H	-0.6787371201	-3.0089718342	-0.1864007429	 0.082258
H	 0.4510926405	-0.6482796709	 2.2238900417	 0.095509
99.0918	132.7813	210.1167	241.2884	247.0391	308.745	380.6109	554.2055	586.9171	679.6379	723.6153	770.6483	809.0375	828.1853	859.698	875.0229	948.1691	989.7365	999.4198	1043.8692	1051.829	1075.2591	1092.2209	1125.1716	1132.126	1163.4817	1167.5465	1240.2074	1242.0765	1298.1845	1335.0013	1400.5205	1418.1926	1428.0251	1493.2714	1500.5644	1824.4662	2870.3792	3031.7162	3045.3215	3097.825	3101.6169	3118.9301	3119.058	3142.4246
CC1C2C3OC2(C=O)C13	C[C@H]1[C@H]2[C@@H]3O[C@@]2(C=O)[C@H]13	
InChI=1S/C7H8O2/c1-3-4-6-5(3)7(4,2-8)9-6/h2-6H,1H3	InChI=1S/C7H8O2/c1-3-4-6-5(3)7(4,2-8)9-6/h2-6H,1H3/t3-,4-,5+,6-,7+
