23
gdb 40048	2.98255	1.49567	1.40272	0.1982	87.95	-0.2557	0.0861	0.3418	1072.9295	0.20988	-351.170059	-351.16265	-351.161706	-351.20155	31.63	
C	 0.0344282701	 1.5211083993	 0.011845323	-0.33609
C	 1.3205181553	 0.7246045359	-0.0173119784	-0.341112
C	-0.0086143288	 0.0191787481	 0.0072332669	 0.441304
C	-0.4534674035	-0.8130304921	 1.2313119109	-0.300997
C	-1.1613366028	-2.0210551521	 0.572079741	 0.000601
C	-2.5015073127	-1.5369224457	-0.0298871089	-0.202781
C	-2.0503574894	-0.6748505279	-1.2542474398	-0.209105
C	-0.5072684771	-0.7772090324	-1.2021718582	-0.077507
C	-0.3077540745	-2.2245647302	-0.7003845599	-0.225469
H	-0.2229070712	 2.041507757	 0.9292604191	 0.105752
H	-0.2562448831	 2.0487483402	-0.8917438651	 0.106142
H	 1.8940003352	 0.717243307	-0.9392606032	 0.106062
H	 1.9267292893	 0.7024032174	 0.8833263331	 0.104761
H	 0.4091408163	-1.1392258811	 1.8230816131	 0.091826
H	-1.1214426694	-0.2603351506	 1.9007128072	 0.091691
H	-1.2606800681	-2.8852720134	 1.2319856195	 0.052994
H	-3.1127037542	-2.3865339416	-0.3497238282	 0.091192
H	-3.0927920106	-0.9668305361	 0.6928694783	 0.091375
H	-2.4354849532	-1.0879214563	-2.1918146688	 0.088689
H	-2.3915980587	 0.3618927577	-1.1900113537	 0.095757
H	-0.0116130725	-0.5095173194	-2.1382334913	 0.048569
H	 0.7382505037	-2.4654540755	-0.4880713977	 0.091243
H	-0.71781563	-2.9798959581	-1.378507909	 0.085102
99.2026	221.3158	270.9997	303.7191	382.5122	416.4437	468.461	509.6203	647.2444	762.4717	779.1168	793.2134	815.9921	836.6131	872.8386	886.8199	922.4741	929.4386	937.1147	956.9927	962.7801	971.7929	977.2061	990.6174	1051.147	1062.1814	1076.0303	1088.2334	1127.6748	1138.9121	1163.9768	1187.2412	1193.7916	1237.1838	1257.2196	1267.9937	1278.1515	1289.8775	1296.3687	1334.9034	1337.3446	1344.8817	1389.2312	1466.7627	1485.1859	1491.1139	1494.1418	1504.5626	1517.9555	3030.9158	3041.9056	3045.4054	3052.6728	3070.4731	3079.0046	3084.1368	3092.697	3096.2742	3101.116	3115.3429	3119.8532	3192.2338	3207.703
C1CC11CC2CCC1C2	C1CC21C[C@H]1CC[C@@H]2C1	
InChI=1S/C9H14/c1-2-8-5-7(1)6-9(8)3-4-9/h7-8H,1-6H2	InChI=1S/C9H14/c1-2-8-5-7(1)6-9(8)3-4-9/h7-8H,1-6H2/t7-,8+/m0/s1
