21
gdb 76686	3.11545	1.06656	0.97284	1.8682	79.21	-0.2283	0.0742	0.3025	1330.1028	0.180671	-424.176523	-424.166885	-424.16594	-424.211432	35.857	
C	-0.2054195457	 1.3941784017	-0.2778696254	-0.394891
C	 0.1813503081	-0.0606878436	-0.1312559199	-0.108623
C	 1.6162405261	-0.4814166139	 0.1521869819	 0.090467
O	 2.5972763987	 0.4844417813	 0.387728576	-0.430481
C	 0.5493408312	-0.6601858649	 1.2062079415	 0.055455
O	 0.6260177626	 0.2335046448	 2.2912889683	-0.270795
C	 1.0670677572	-0.372968398	 3.4779694406	 0.136499
C	 2.5300719554	-0.6667435401	 3.6727047174	-0.294405
C	 1.8638687584	 0.4796979837	 4.4097173341	-0.290263
H	 0.4235328646	 2.0455106165	 0.3311223691	 0.120895
H	-0.101928566	 1.7127502526	-1.3200268331	 0.119836
H	-1.2443661711	 1.5574228639	 0.0258796649	 0.118826
H	-0.3716772036	-0.7396824946	-0.7763456278	 0.086724
H	 2.0262167475	-1.3442961565	-0.3630090455	 0.09821
H	 2.3255312707	 0.9516835448	 1.1890066799	 0.288758
H	 0.1818279275	-1.6494238541	 1.4709897689	 0.088097
H	 0.3407765051	-1.0671443783	 3.8992988712	 0.094403
H	 2.8080722929	-1.5537001892	 4.2314947756	 0.115569
H	 3.1940079197	-0.4196638353	 2.8520283467	 0.134473
H	 2.0889353308	 1.4866616512	 4.0767340124	 0.123034
H	 1.6842824198	 0.3870284482	 5.4747585434	 0.118211
73.0596	83.2537	111.716	123.7382	204.5895	215.2668	280.2905	390.238	430.6011	446.3404	506.8881	600.0288	663.7697	737.633	760.2644	794.5105	824.5989	832.9984	898.0528	959.6894	988.5383	996.2113	1026.8842	1057.5293	1073.0638	1080.8926	1107.8895	1126.8571	1140.8018	1151.5851	1168.8977	1194.082	1197.9474	1234.4675	1248.4812	1318.1358	1345.69	1376.3102	1413.516	1420.8546	1460.4157	1462.2687	1488.1363	1500.3516	1504.3933	3042.8056	3100.141	3107.233	3117.7709	3126.9744	3137.4252	3140.6628	3141.9151	3159.9076	3220.7251	3234.0543	3753.9804
CC1C(O)C1OC1CC1	C[C@H]1[C@@H](O)[C@H]1OC1CC1	
InChI=1S/C7H12O2/c1-4-6(8)7(4)9-5-2-3-5/h4-8H,2-3H2,1H3	InChI=1S/C7H12O2/c1-4-6(8)7(4)9-5-2-3-5/h4-8H,2-3H2,1H3/t4-,6+,7-/m0/s1
