16
gdb 75125	3.27368	1.31297	1.0411	3.76	67.16	-0.2579	-0.0046	0.2533	1134.3047	0.124492	-475.063095	-475.054958	-475.054014	-475.096222	29.631	
C	 0.2374944493	 1.2892438182	 0.8110742837	-0.443306
C	 0.0415677161	 0.0634371657	-0.0318118257	 0.390827
N	-1.0570902624	-0.5582596484	-0.0521080649	-0.292737
C	-1.3507035164	-1.7932904698	-0.7552877575	-0.314698
C	-0.2575928659	-2.8621666945	-0.8770902606	 0.404451
O	-0.4271375294	-4.0096714975	-0.5886320005	-0.299189
O	 0.9650127057	-2.4674508838	-1.3472608685	-0.21097
C	 1.1287246042	-1.1339240093	-1.7720025572	 0.00809
O	 1.207076938	-0.2223223378	-0.70590081	-0.240889
H	 1.0773937767	 1.1382136418	 1.4967236502	 0.14826
H	 0.4877175757	 2.1477175404	 0.1797036345	 0.140824
H	-0.6688442333	 1.4955904939	 1.3775095276	 0.149981
H	-2.1658657109	-2.2934231347	-0.228040314	 0.152279
H	-1.7346220817	-1.5753225441	-1.762232138	 0.141775
H	 2.0968332837	-1.0973408014	-2.2699136888	 0.14504
H	 0.3329404508	-0.8408569287	-2.4661678705	 0.120261
83.2503	104.5294	142.6318	246.2928	305.1624	328.0068	366.8858	423.9763	502.0372	554.8391	620.489	701.5773	738.5177	767.2009	844.6238	946.7466	987.0874	1051.5344	1063.4702	1102.2574	1117.1703	1134.676	1213.1415	1245.3654	1283.6691	1320.9445	1355.0952	1407.4182	1451.7776	1471.8951	1476.4259	1477.5738	1519.4228	1784.4295	1866.7662	3009.7486	3045.4543	3049.9657	3103.1992	3107.4382	3149.1817	3173.6231
CC1=NCC(=O)OCO1	CC1=NCC(=O)OCO1	
InChI=1S/C5H7NO3/c1-4-6-2-5(7)9-3-8-4/h2-3H2,1H3	InChI=1S/C5H7NO3/c1-4-6-2-5(7)9-3-8-4/h2-3H2,1H3
