23
gdb 109540	1.95936	1.3527	1.15194	1.8337	83.12	-0.2221	0.0699	0.2919	1275.1879	0.201144	-425.40599	-425.394595	-425.393651	-425.441565	41.662	
C	 0.0353918744	 1.1927583899	 0.4322118217	-0.233229
O	-0.1289114382	 0.0725053505	-0.4132922317	-0.233272
C	-1.333385408	-0.5975234265	-0.2031011523	-0.001375
C	-1.4471387709	-2.0207431202	-0.7054187928	 0.214655
C	-2.7655899675	-2.4308732567	-1.3397117834	-0.444751
C	-0.2357069203	-2.6599086802	-1.362737829	-0.451372
C	-1.4273069824	-1.7449253459	 0.7927298663	 0.297906
C	-0.2437534368	-2.1234653551	 1.6553663581	-0.451722
O	-2.6712292362	-1.9345311261	 1.4267700268	-0.455732
H	 0.9908818587	 1.6557566093	 0.1740624415	 0.127437
H	-0.7683312738	 1.930041433	 0.2837669144	 0.10723
H	 0.0508717743	 0.9076090915	 1.494009222	 0.104424
H	-2.2220945963	 0.0317853248	-0.2959936692	 0.077251
H	-2.7902949231	-2.1258723929	-2.3921507438	 0.108727
H	-2.8882926461	-3.5195740954	-1.3053086205	 0.113824
H	-3.6182756861	-1.9874492869	-0.824737515	 0.128755
H	 0.7049253606	-2.2309847795	-1.0169394737	 0.129729
H	-0.218401268	-3.7398854402	-1.1773874191	 0.112138
H	-0.2802685846	-2.5123554871	-2.4475531354	 0.115793
H	 0.7030303889	-1.8346185686	 1.1966538961	 0.133045
H	-0.309641088	-1.6159841848	 2.6262552384	 0.100252
H	-0.2285385572	-3.2010947315	 1.8484251498	 0.123625
H	-2.7217478034	-1.3146432513	 2.1629238209	 0.276663
103.3222	144.5712	147.3269	170.8098	177.5788	181.454	191.7089	238.039	263.1801	291.2023	296.1327	341.184	406.8996	433.2091	437.5899	523.0526	585.12	677.5358	743.3295	881.885	956.4271	972.5044	984.5641	1019.9057	1033.4704	1051.0538	1080.3512	1146.8662	1173.5121	1179.3651	1188.0391	1212.7019	1242.063	1286.8734	1309.4008	1336.992	1402.1168	1407.0265	1418.1276	1443.2828	1480.1236	1483.8806	1484.6752	1486.7452	1491.8741	1494.4992	1507.5052	1509.8065	1519.6985	2981.763	3023.1937	3028.0523	3032.2386	3034.04	3069.5969	3082.9396	3083.6992	3087.5006	3115.8307	3136.2712	3140.9386	3146.3176	3791.1267
COC1C(C)(C)C1(C)O	CO[C@H]1C(C)(C)[C@]1(C)O	
InChI=1S/C7H14O2/c1-6(2)5(9-4)7(6,3)8/h5,8H,1-4H3	InChI=1S/C7H14O2/c1-6(2)5(9-4)7(6,3)8/h5,8H,1-4H3/t5-,7+/m0/s1
