19
gdb 83923	2.38154	1.52795	1.21848	4.1217	77.22	-0.2396	-0.0159	0.2237	1105.6007	0.158865	-423.028108	-423.019541	-423.018597	-423.061413	31.902	
C	-0.0308679929	 1.5518480876	 0.0903021361	-0.412757
C	 0.0562564448	 0.0488252875	-0.0345936179	-0.079678
C	 0.6788533791	-0.6695842015	-1.2000160507	-0.133559
C	 1.6279983256	 0.0751807919	-2.1388760393	-0.25304
C	 2.9327399094	 0.1618523404	-1.3173898946	-0.081913
O	 2.5334878099	 0.1219263733	 0.058048503	-0.285406
C	 1.39278662	-0.6713227327	 0.1561597045	 0.321037
C	 1.4715017036	-1.9012488858	 0.9714329911	 0.097379
O	 2.4559300155	-2.3100163327	 1.5325028305	-0.270023
H	 0.9188467963	 2.0312884185	-0.1535120322	 0.135815
H	-0.8064519274	 1.9546187562	-0.5698026925	 0.12073
H	-0.2851338407	 1.8326288968	 1.116932026	 0.128868
H	-0.79024918	-0.4849205946	 0.3937425251	 0.094888
H	 0.1977398052	-1.5728828734	-1.5576734361	 0.102609
H	 1.771496856	-0.4746806306	-3.0720480902	 0.113983
H	 1.250281583	 1.0696738049	-2.3949666623	 0.115844
H	 3.5906614207	-0.6905203048	-1.5377910764	 0.111285
H	 3.4946576097	 1.0864795702	-1.4718379134	 0.11291
H	 0.4968187923	-2.4439275912	 1.0246925593	 0.061027
90.9946	134.7794	147.0373	190.2319	231.9141	256.7312	302.3226	416.1886	504.911	595.3325	625.9627	689.0353	762.4711	787.2776	840.6749	883.7208	935.6055	971.2696	995.6198	1015.1449	1039.2319	1048.6717	1071.4788	1102.012	1130.9148	1145.7185	1224.1069	1224.9891	1246.8363	1276.4934	1322.5754	1343.152	1391.4695	1407.0312	1423.0845	1441.7416	1487.8125	1496.8304	1504.8882	1518.6477	1821.8245	2839.3469	3007.8604	3041.2401	3058.5746	3096.6746	3101.4594	3110.168	3120.5989	3137.5227	3173.3571
CC1C2CCOC12C=O	C[C@H]1[C@H]2CCO[C@@]12C=O	
InChI=1S/C7H10O2/c1-5-6-2-3-9-7(5,6)4-8/h4-6H,2-3H2,1H3	InChI=1S/C7H10O2/c1-5-6-2-3-9-7(5,6)4-8/h4-6H,2-3H2,1H3/t5-,6+,7-/m0/s1
