17
gdb 37854	2.69983	2.59452	2.00548	1.8821	68.49	-0.2252	0.0451	0.2704	764.5442	0.142212	-417.954095	-417.948968	-417.948024	-417.983281	23.522	
N	-0.026064475	 1.4900479709	 0.0261930032	-0.295355
C	 1.4537985158	 1.3948448924	-0.0164486488	-0.034688
C	 1.3015297123	 0.0770886082	-0.8324040975	-0.004537
N	 2.2992395883	-0.8515855212	-0.3512545256	-0.297096
C	 2.0586945901	-0.7038296722	 1.0613771307	-0.048094
C	 1.9836006693	 0.8178721701	 1.3666174946	 0.072933
O	 0.8353190802	 0.6059476344	 2.2260303346	-0.289728
C	 0.5253583646	-0.5367951116	 1.386915942	 0.049675
C	-0.0329665789	 0.0061709932	 0.0120518583	-0.059525
H	-0.3502016903	 1.8563650717	 0.9221193376	 0.222252
H	 2.0011747527	 2.2567911606	-0.3997619618	 0.070994
H	 1.2129981725	 0.1545915104	-1.9134473328	 0.084815
H	 2.1452631954	-1.8003558366	-0.6799992025	 0.222609
H	 2.6575945266	-1.3342019998	 1.7162541724	 0.082601
H	 2.7878570839	 1.3722253864	 1.8496686516	 0.081859
H	-0.0724865595	-1.2921980151	 1.8977799605	 0.076301
H	-0.937231308	-0.4833549417	-0.3536683363	 0.064984
456.8735	476.3077	479.3643	563.9083	645.5798	661.6676	727.549	765.6716	782.1754	810.1464	820.326	845.7478	865.8432	893.0093	937.0006	954.8272	961.513	1001.3471	1032.0291	1038.3094	1057.2525	1073.9431	1101.6754	1114.5634	1172.4561	1199.0206	1205.1889	1235.875	1249.3904	1261.7646	1265.7717	1295.2419	1304.0365	1329.1316	1373.584	1387.1847	1403.7333	3090.8832	3100.3429	3112.1885	3120.1767	3138.3818	3149.4812	3447.5771	3515.6067
N1C2C3NC4C2OC4C13	N1[C@@H]2[C@H]3N[C@H]4[C@@H]2O[C@H]4[C@@H]13	
InChI=1S/C6H8N2O/c7-1-2-5-4(7)6(9-5)3(1)8-2/h1-8H	InChI=1S/C6H8N2O/c7-1-2-5-4(7)6(9-5)3(1)8-2/h1-8H/t1-,2-,3+,4+,5-,6+
