17
gdb 97911	6.27556	0.52286	0.49937	2.2201	75.56	-0.254	-0.0476	0.2064	2099.8327	0.132384	-458.928618	-458.918235	-458.917291	-458.966366	35.122	
O	 0.2067740707	 1.1392549864	-0.7943832619	-0.401978
C	 0.0464958868	 0.1505782815	 0.2144137464	-0.196433
C	-1.3010352108	-0.4148627464	 0.2709425554	 0.126878
C	-2.4269762197	-0.8395445333	 0.3182062862	 0.009744
C	-3.7764154939	-1.3837847282	 0.3566822004	-0.376949
C	-3.8075721796	-2.9120286499	 0.0906456484	 0.060572
O	-3.146773178	-3.619635377	 1.0961849555	-0.424779
C	-5.2427021173	-3.3860939169	-0.0395513303	 0.130671
O	-5.6864423534	-4.2638517954	 0.6593518439	-0.252632
H	-0.4843514625	 1.7968028453	-0.6640010011	 0.286337
H	 0.7724273558	-0.6352000714	-0.0219927536	 0.143424
H	 0.3183173233	 0.5432433173	 1.2072639984	 0.118854
H	-4.2361369182	-1.1999845225	 1.3356327648	 0.142212
H	-4.3991777474	-0.8769005276	-0.3933047651	 0.128653
H	-3.3284408188	-3.085866265	-0.8895270647	 0.108152
H	-3.7971717039	-4.2492903971	 1.4457455561	 0.296313
H	-5.860892893	-2.8854113196	-0.8130092788	 0.100962
20.0161	45.7725	70.6147	123.1045	140.8777	233.5712	282.8773	316.5573	333.1921	357.7506	384.7894	450.6825	509.8559	553.6922	748.884	775.603	839.621	883.6933	977.9934	988.3285	1045.5593	1063.5839	1156.599	1162.2901	1214.1346	1241.8729	1253.321	1324.7451	1355.9383	1360.8171	1401.9525	1417.6145	1438.5878	1457.0249	1491.7584	1816.1876	2366.5308	2924.7963	2956.3152	2977.7831	3013.6699	3057.3555	3064.5027	3692.1783	3817.2545
OCC#CCC(O)C=O	OCC#CC[C@@H](O)C=O	
InChI=1S/C6H8O3/c7-4-2-1-3-6(9)5-8/h5-7,9H,3-4H2	InChI=1S/C6H8O3/c7-4-2-1-3-6(9)5-8/h5-7,9H,3-4H2/t6-/m1/s1
