18
gdb 17956	2.69435	2.41496	1.41579	0.4819	83.78	-0.2089	-0.0305	0.1784	907.6068	0.156575	-310.678807	-310.671825	-310.670881	-310.709743	27.655	
C	 0.0007746211	 1.470642573	 0.2006919184	-0.261273
C	 1.3816586878	 2.1251667428	 0.0281939281	-0.246746
C	 1.9105041321	 2.2041008367	-1.3748977799	-0.045134
C	 1.4143029441	 1.811260904	-2.5596330238	-0.071326
C	 0.2257911428	 1.0724575144	-2.990893181	-0.093905
C	-0.424564468	 0.0189667245	-2.4576015822	-0.100561
C	-0.1965294764	-0.6341565903	-1.1765227543	-0.075693
C	 0.0137115273	-0.0158536354	-0.0082069081	-0.053621
H	-0.3584491833	 1.6885472838	 1.2129506191	 0.095548
H	-0.6990333629	 1.9385333225	-0.4996013514	 0.117464
H	 1.3525526442	 3.151986713	 0.4247586045	 0.102611
H	 2.1144150616	 1.6027546667	 0.6585298351	 0.110109
H	 2.8481485081	 2.7568736661	-1.4330472187	 0.086339
H	 2.0086008856	 2.1283096437	-3.4174230052	 0.085479
H	-0.1007145138	 1.3628845683	-3.9891045844	 0.087897
H	-1.1875629029	-0.442228572	-3.0837300827	 0.089137
H	-0.2530769229	-1.7219131299	-1.1851109252	 0.087555
H	 0.1871398754	-0.6274880118	 0.8752102617	 0.086122
115.8637	216.5526	263.347	293.5807	343.8753	420.9821	542.0678	586.7818	668.8614	727.3384	756.7135	791.7951	832.8882	854.9808	874.6724	925.7989	979.3324	1001.6745	1010.9705	1021.7615	1043.1572	1064.6975	1084.774	1191.0465	1246.5505	1271.2603	1278.8407	1315.9144	1346.5651	1388.3333	1417.7506	1445.8498	1470.3102	1476.0296	1489.309	1666.9561	1704.107	1707.2701	2987.663	3019.3008	3035.6512	3080.5282	3100.8579	3115.6228	3124.9429	3131.391	3141.3609	3152.75
C1CC=CC=CC=C1	C1CC=CC=CC=C1	
InChI=1S/C8H10/c1-2-4-6-8-7-5-3-1/h1-6H,7-8H2/b2-1-,5-3-,6-4-	InChI=1S/C8H10/c1-2-4-6-8-7-5-3-1/h1-6H,7-8H2/b2-1-,5-3-,6-4-
