16
gdb 131440	3.22671	1.50847	1.05088	2.3714	70.91	-0.2385	0.0043	0.2428	1089.2457	0.126984	-437.89179	-437.884657	-437.883712	-437.92347	27.603	
O	 0.1917142364	 1.3622167588	 0.0670868606	-0.417469
C	 0.1489645705	 0.0204500657	 0.0726654214	 0.301864
N	 0.2725223093	-0.670664841	-1.0436012131	-0.268383
O	 0.1762165406	-2.0294377002	-0.6609854907	-0.239259
C	 0.0097649543	-2.0526631473	 0.6617150377	 0.406028
C	-0.0176199556	-0.8159222485	 1.2063807969	 0.101007
C	-0.2542133611	-0.866659603	 2.6858509511	-0.36284
C	-0.0747728971	-2.4008622862	 2.9800872471	-0.20217
C	-0.1969275082	-3.1749796024	 1.6217382159	-0.351555
H	 0.3192410968	 1.6450842177	-0.848790551	 0.310286
H	 0.4466611115	-0.2635181572	 3.2706178443	 0.118664
H	-1.2617247598	-0.5214535352	 2.9482147392	 0.117487
H	 0.9242272799	-2.5685876359	 3.3914837524	 0.119553
H	-0.7918166942	-2.7629605783	 3.7199713143	 0.10995
H	-1.1859858657	-3.6312536828	 1.4907042357	 0.128699
H	 0.5407389524	-3.9774993943	 1.5290447882	 0.128138
113.6207	170.4899	233.7118	269.2994	376.944	470.117	511.0245	575.9574	616.7434	637.7473	716.2726	728.5479	795.3141	829.0468	895.0038	907.6465	940.1445	988.1946	1059.9219	1071.044	1158.2159	1208.6617	1214.2728	1220.8284	1259.7411	1285.2507	1320.5586	1345.9715	1379.6837	1482.2868	1493.6369	1510.5605	1527.0298	1568.2829	1684.4896	3030.413	3032.4729	3062.5436	3076.5178	3082.2746	3115.5821	3773.4003
OC1=NOC2=C1CCC2	Oc1noc2c1CCC2	
InChI=1S/C6H7NO2/c8-6-4-2-1-3-5(4)9-7-6/h1-3H2,(H,7,8)	InChI=1S/C6H7NO2/c8-6-4-2-1-3-5(4)9-7-6/h1-3H2,(H,7,8)
