15
gdb 66283	2.10572	1.69198	1.43268	4.2659	66.2	-0.2908	-0.0189	0.2719	983.8188	0.11326	-453.969663	-453.96165	-453.960706	-454.002271	29.826	
O	 0.319331408	 1.4059315675	 0.3681719626	-0.452497
C	 0.0147282633	 0.0878642758	 0.0250445121	 0.18551
C	-1.4762173295	-0.1495095765	-0.2789761544	-0.27376
C	-1.4098170932	-1.3201730675	-1.2662569456	-0.105521
O	-0.1688288889	-1.1381753581	-1.9948198059	-0.230693
C	 0.6479406068	-0.3072071385	-1.3181242229	 0.395791
N	 1.7540505873	 0.1717647141	-1.678928707	-0.55591
C	 0.4808110983	-0.8589671072	 1.0699240464	 0.251902
N	 0.8215316656	-1.6046633623	 1.8843292122	-0.331698
H	 1.1886144606	 1.5844432704	-0.026993279	 0.305274
H	-2.0761624585	-0.3666895702	 0.6046177105	 0.14347
H	-1.8557168273	 0.7553128304	-0.7608849623	 0.140812
H	-1.3734134947	-2.2892790442	-0.7585766649	 0.145401
H	-2.2200196787	-1.326510156	-1.9963710369	 0.139137
H	 2.0407558208	-0.1359083677	-2.6071799849	 0.242783
94.5847	139.8813	175.2785	225.4849	279.9871	356.2448	424.4413	459.3404	503.5708	568.4319	643.2479	663.9776	678.2733	736.6274	851.2949	872.1024	933.2701	958.913	996.8618	1053.6681	1099.9596	1144.1127	1173.4772	1227.153	1244.6676	1277.1237	1330.1039	1410.2462	1419.6735	1486.4451	1521.5181	1791.1799	2350.6967	3062.0568	3080.7382	3130.1869	3149.8588	3508.761	3691.8859
OC1(CCOC1=N)C#N	O[C@]1(CCO[C]1[NH])C#N	
InChI=1S/C5H6N2O2/c6-3-5(8)1-2-9-4(5)7/h7-8H,1-2H2	InChI=1S/C5H6N2O2/c6-3-5(8)1-2-9-4(5)7/h7-8H,1-2H2/t5-/m1/s1
