14
gdb 25376	6.55792	0.85477	0.75621	2.4817	82.08	-0.25	-0.0844	0.1655	1378.6633	0.101331	-436.751288	-436.743548	-436.742604	-436.78394	27.804	
O	-0.1817606752	 0.0597974322	-0.0005571641	-0.263119
C	-0.0082368089	 1.257744514	 0.0081057477	 0.076195
C	 1.2971990465	 1.9012937178	-0.0008965907	 0.22295
C	 2.5812222569	 1.3507233804	-0.0201098852	-0.1908
C	 3.4946010943	 2.4090478818	-0.0212032229	-0.190799
C	 2.762200799	 3.598775452	-0.0024906251	 0.222949
N	 1.4341897723	 3.2639970239	 0.0096564521	-0.365085
C	 3.2079435828	 4.9842956065	 0.0046065527	 0.076195
O	 4.3676292276	 5.3311243128	-0.0054938901	-0.263118
H	-0.8692392311	 1.9670629296	 0.0239670504	 0.060949
H	 2.7891390553	 0.2924471143	-0.0317211	 0.139026
H	 4.5718933905	 2.358109619	-0.0338368245	 0.139026
H	 0.6709704566	 3.9227019156	 0.0241154922	 0.274681
H	 2.3803621135	 5.73233664	 0.0205174376	 0.06095
88.1801	138.0641	179.3222	238.0615	272.7342	280.0348	396.4672	543.7584	586.8668	646.9229	662.2135	751.5419	768.4534	835.1622	920.1753	984.7804	1017.8482	1018.3885	1024.8282	1064.9402	1182.5763	1260.221	1313.8698	1410.795	1422.5425	1447.1162	1477.8346	1511.6675	1579.5322	1782.7101	1793.6032	2847.6585	2851.738	3261.3612	3274.8737	3642.3154
O=CC1=CC=C(N1)C=O	O=Cc1ccc([nH]1)C=O	
InChI=1S/C6H5NO2/c8-3-5-1-2-6(4-9)7-5/h1-4,7H	InChI=1S/C6H5NO2/c8-3-5-1-2-6(4-9)7-5/h1-4,7H
