23
gdb 101102	3.31134	1.04777	0.94272	1.3957	86.17	-0.2568	0.0711	0.3279	1374.5062	0.20572	-388.245912	-388.236581	-388.235636	-388.280205	35.948	
C	-0.0145569821	 1.5608682829	-0.0258734693	-0.382594
C	-0.0002860097	 0.0317948713	 0.032628662	-0.189478
C	-1.4070005273	-0.581883577	 0.0148404872	-0.041596
O	-2.1438785286	-0.1799101934	-1.1414250291	-0.429521
C	-1.3916111894	-2.0892719739	 0.1332459593	 0.384186
C	-0.8049544199	-2.9656729933	 1.2854778679	-0.264655
C	-1.4024541661	-3.9684179224	 0.2583414203	-0.047716
C	-2.6360898526	-3.0286386127	 0.1595887977	-0.256754
C	-0.7437576671	-3.1140694801	-0.8603774342	-0.26759
H	 1.000692383	 1.9664004427	-0.0705780335	 0.106372
H	-0.5649416008	 1.9057189981	-0.9050323872	 0.127975
H	-0.5050007461	 1.9834891643	 0.8581363138	 0.112961
H	 0.566966775	-0.3707905884	-0.8188083279	 0.087108
H	 0.5217309289	-0.3086691995	 0.9353408121	 0.099486
H	-1.981737167	-0.1742821565	 0.8578894964	 0.082925
H	-1.7121594493	-0.5766135983	-1.9067795266	 0.276974
H	 0.2829684807	-2.9683188803	 1.3991216411	 0.088551
H	-1.3081145202	-2.8958263348	 2.2544155729	 0.089095
H	-1.4063164061	-5.0563457177	 0.3303442031	 0.071482
H	-3.2764713211	-2.9618972152	 1.0439897413	 0.08701
H	-3.2266240675	-3.0788776701	-0.7585457606	 0.091797
H	-1.1926442495	-3.1886660194	-1.8560345616	 0.08459
H	 0.3488432628	-3.1305538265	-0.9121795252	 0.089392
61.5429	92.0434	140.9541	192.9429	229.3978	285.0202	293.7686	343.6136	419.6653	490.7087	548.2034	555.081	708.2452	778.2882	803.431	814.0313	874.6886	894.9298	947.9483	956.0032	960.6877	979.1715	989.5555	996.8029	1057.9819	1092.189	1096.892	1102.4031	1112.8957	1138.0672	1145.0726	1154.3603	1172.307	1228.2359	1236.1045	1237.8567	1259.1469	1298.9892	1327.189	1334.2787	1387.6186	1404.1219	1419.7588	1480.8922	1494.9666	1497.0944	1498.6465	1508.7243	1555.4135	3005.7139	3021.2882	3036.3331	3037.0157	3043.4597	3051.8216	3055.6449	3100.5936	3101.5586	3107.8053	3108.7233	3116.2356	3122.3128	3794.223
CCC(O)C12CC(C1)C2	CC[C@@H](O)[C@@]12C[C@@H](C1)C2	
InChI=1S/C8H14O/c1-2-7(9)8-3-6(4-8)5-8/h6-7,9H,2-5H2,1H3	InChI=1S/C8H14O/c1-2-7(9)8-3-6(4-8)5-8/h6-7,9H,2-5H2,1H3/t6-,7-,8-/m1/s1
