21
gdb 90043	2.86086	1.44393	1.19777	1.2093	84.26	-0.2368	0.0795	0.3163	1126.2948	0.182322	-386.975817	-386.967509	-386.966565	-387.00803	33.839	
C	-0.1983957745	 1.6325721554	-0.1077626098	-0.411264
C	 0.0008971528	 0.1231457415	-0.0096608277	-0.0147
C	 1.0107157897	-0.5823283836	-1.0213781676	-0.351409
C	 1.9281126428	-0.848280083	 0.1898813341	 0.296881
C	 2.6068697502	-1.7596318591	 1.2407338534	-0.37949
C	 2.0663015081	-0.4269325806	 1.9960013568	 0.367009
O	 2.1210042352	-0.1509501488	 3.3513796177	-0.470483
C	 2.6783953512	 0.3700036599	 0.8349126194	-0.319368
C	 0.7658993856	-0.6204438183	 1.1759036535	-0.071741
H	 0.7330298151	 2.192459676	-0.2145531077	 0.121057
H	-0.8166574918	 1.870570811	-0.9812529408	 0.113039
H	-0.7176895448	 2.0117318302	 0.778563881	 0.12416
H	-0.9895434072	-0.3360125311	-0.0771375223	 0.081975
H	 0.57584131	-1.4860655577	-1.4564851657	 0.106809
H	 1.4311065983	 0.031283941	-1.8237397962	 0.099936
H	 2.0928598114	-2.6919175007	 1.4852993833	 0.098622
H	 3.6946664863	-1.8874837226	 1.2107254293	 0.08336
H	 3.038130945	 0.0245070103	 3.5905104998	 0.27951
H	 3.7687134468	 0.3518744282	 0.7374292725	 0.079924
H	 2.2859542246	 1.3694204116	 0.6627045455	 0.0981
H	 0.2086648151	-1.5189964298	 1.4560786914	 0.068074
149.2077	163.6426	212.9221	237.8739	305.7099	339.28	363.6069	415.1115	483.4625	527.2681	588.2198	662.509	686.9496	749.7349	776.9908	812.9008	869.2758	881.3702	929.9195	974.574	993.4107	1010.2917	1026.3529	1061.7466	1078.5942	1096.0945	1110.8131	1113.9826	1134.3061	1163.0225	1178.7734	1207.4962	1225.6179	1243.2911	1264.4414	1293.5278	1344.7206	1357.1626	1390.6877	1416.4984	1478.6509	1487.4044	1493.02	1504.8249	1541.1421	3032.3209	3033.6373	3045.0592	3049.454	3053.4484	3065.5119	3092.1744	3107.0672	3118.3208	3121.4082	3165.2934	3800.0471
CC1CC23CC(O)(C2)C13	C[C@H]1C[C@@]23C[C@@](O)(C2)[C@@H]13	
InChI=1S/C8H12O/c1-5-2-7-3-8(9,4-7)6(5)7/h5-6,9H,2-4H2,1H3	InChI=1S/C8H12O/c1-5-2-7-3-8(9,4-7)6(5)7/h5-6,9H,2-4H2,1H3/t5-,6-,7-,8-/m0/s1
