17
gdb 65301	2.69871	1.38013	1.14075	1.3914	76.18	-0.2262	0.0296	0.2558	1120.6216	0.132983	-421.745097	-421.736203	-421.735259	-421.778609	33.492	
O	-0.1696477193	 1.351529571	-0.227196038	-0.447793
C	-0.0279125309	-0.0318889372	-0.0374282247	 0.092862
C	-0.3705702315	-0.5918463162	 1.3547539884	-0.425078
C	-1.3368087281	-0.7372191906	 0.2302976927	 0.436735
C	-2.7270947161	-0.1579989115	 0.0140043978	-0.35211
C	-2.9940092696	-1.5118981453	-0.6809755221	-0.076797
O	-1.6648623998	-1.9899561849	-0.3453977423	-0.301163
C	 0.9955870545	-0.6776341388	-0.8111334566	 0.333432
C	 1.8734180412	-1.1864264423	-1.4571968794	-0.479338
H	 0.6453226112	 1.773872543	 0.0681692962	 0.288399
H	 0.1644001636	-1.4799134972	 1.6732508965	 0.136426
H	-0.5904787214	 0.1384465081	 2.1271096781	 0.122345
H	-3.300470444	 0.0125370383	 0.9269903503	 0.116049
H	-2.7652190766	 0.7300567542	-0.6165038454	 0.135481
H	-3.7690912352	-2.1425598015	-0.2342838951	 0.110279
H	-3.1408793568	-1.4636326882	-1.7654008618	 0.113675
H	 2.6345332189	-1.645554781	-2.0380248747	 0.196595
83.0604	116.5489	136.035	207.2048	242.4796	291.9319	361.042	410.2929	434.5409	521.4691	557.1386	580.346	656.3498	680.9309	701.2276	792.6433	864.0343	872.3977	892.2076	911.8536	967.7279	1010.7651	1034.6757	1096.4496	1125.9442	1158.3895	1174.2309	1209.3547	1246.4884	1254.2642	1312.4995	1355.145	1396.0268	1468.1574	1490.8106	1531.0262	2231.0675	3035.7938	3080.9536	3087.0343	3127.1363	3145.7163	3227.8244	3501.6556	3789.8707
OC1(CC11CCO1)C#C	O[C@]1(C[C@]21CCO2)C#C	
InChI=1S/C7H8O2/c1-2-6(8)5-7(6)3-4-9-7/h1,8H,3-5H2	InChI=1S/C7H8O2/c1-2-6(8)5-7(6)3-4-9-7/h1,8H,3-5H2/t6-,7-/m0/s1
