19
gdb 77578	2.80627	1.41982	1.22266	3.9289	76.42	-0.225	0.0688	0.2937	1103.9722	0.159191	-419.132136	-419.123532	-419.122588	-419.165103	33.246	
C	-0.0592176404	 1.5626259257	 0.0606236736	-0.517976
C	 0.1457441178	 0.0828406627	-0.0171388895	 0.327715
N	-0.7592488714	-0.8833342104	 0.6544085954	-0.395288
C	 0.7057144661	-0.8979874286	 0.9619773939	-0.238858
C	 1.3188489652	-1.715663279	-0.147068331	 0.362049
C	 2.5953833188	-2.4546432352	-0.1504489229	-0.327546
N	 1.306275055	-3.1626595202	-0.3003833033	-0.35367
C	 0.7384107425	-0.7213376253	-1.2002008311	 0.024009
O	-0.1421209666	-1.2073169852	-2.164718847	-0.43208
H	 0.8419100338	 2.1003503054	-0.2526998334	 0.12879
H	-0.8793865027	 1.8772008442	-0.5946217976	 0.138486
H	-0.3025613292	 1.8790940406	 1.0811615859	 0.115935
H	-1.2241111921	-0.3819248482	 1.4115744866	 0.226901
H	 1.0649596816	-0.7401185995	 1.9724695441	 0.095055
H	 3.2216014544	-2.4545276814	-1.0391492639	 0.122415
H	 3.1400664936	-2.5466681489	 0.7869361677	 0.10914
H	 1.0372550933	-3.6062143914	 0.5750376547	 0.232403
H	 1.5248597507	-0.1683514936	-1.7227834841	 0.089224
H	-0.8085806004	-1.7136692316	-1.682202078	 0.293296
78.093	190.6169	202.4526	213.7779	227.7349	269.1393	330.5024	415.6534	482.7487	495.6624	559.8105	617.5921	711.9428	771.6482	830.5343	858.3433	899.7201	921.9665	943.098	966.2658	972.1442	996.2821	1031.8376	1063.1974	1104.3261	1126.5676	1135.9375	1145.0412	1199.8709	1238.2192	1259.1655	1282.1538	1307.1815	1328.2765	1403.5661	1431.633	1434.9192	1458.36	1481.7806	1496.9487	1517.1685	3024.5447	3072.2934	3089.8979	3095.5398	3096.8118	3180.0849	3181.2497	3465.2531	3493.0171	3776.0711
CC12NC1C1(CN1)C2O	C[C@]12N[C@H]1[C@]1(CN1)[C@H]2O	
InChI=1S/C6H10N2O/c1-5-3(8-5)6(2-7-6)4(5)9/h3-4,7-9H,2H2,1H3	InChI=1S/C6H10N2O/c1-5-3(8-5)6(2-7-6)4(5)9/h3-4,7-9H,2H2,1H3/t3-,4+,5+,6-/m1/s1
