17
gdb 27986	2.4691	1.39705	0.89818	3.388	81.88	-0.1927	-0.0249	0.1678	1252.6991	0.136709	-418.066743	-418.058099	-418.057155	-418.099757	32.459	
C	-0.0289377973	 1.5022543482	 0.0446355246	-0.502419
C	-0.0188025599	 0.0102115485	-0.0317004089	 0.348421
C	-0.0507452266	-0.8011127813	-1.1271478456	-0.305583
C	-0.0224545305	-2.1735230162	-0.6833594778	 0.249333
N	-0.1184279464	-3.2792028212	-1.5318096697	-0.601706
C	 0.0264875694	-2.1589499078	 0.6811662147	-0.175181
N	 0.0237831979	-0.8194958828	 1.0932297454	-0.103686
C	 0.0707003409	-0.4149468491	 2.4138865	 0.163815
O	 0.1118471824	-1.1716759167	 3.3536472647	-0.30893
H	 0.8689083588	 1.9068223419	 0.5264822542	 0.137119
H	-0.0693704637	 1.9081669031	-0.9687088744	 0.138051
H	-0.8972622127	 1.8901544222	 0.5898908893	 0.138552
H	-0.0992306516	-0.4665189392	-2.1534995373	 0.098905
H	 0.3599957847	-3.1498500689	-2.4132057737	 0.245363
H	 0.1795961333	-4.1446905372	-1.1023479483	 0.246748
H	 0.057340529	-2.9414755827	 1.4186112022	 0.137461
H	 0.0667937222	 0.682959349	 2.5163376905	 0.093737
129.4344	170.2463	198.9454	204.6931	231.5238	256.9631	282.3031	394.8176	416.8992	555.1849	599.6718	612.7989	649.1763	679.9029	700.3525	738.426	806.9305	886.7941	991.3708	1009.1447	1019.6126	1062.7546	1104.1878	1149.4904	1192.3145	1250.4929	1365.1809	1389.7045	1419.595	1455.964	1457.4325	1482.0564	1497.3675	1580.2554	1649.2826	1678.9987	1804.8792	2998.4393	3026.1693	3073.4417	3122.8676	3235.1142	3294.3512	3545.374	3637.6234
CC1=CC(N)=CN1C=O	Cc1cc(N)cn1C=O	
InChI=1S/C6H8N2O/c1-5-2-6(7)3-8(5)4-9/h2-4H,7H2,1H3	InChI=1S/C6H8N2O/c1-5-2-6(7)3-8(5)4-9/h2-4H,7H2,1H3
