20
gdb 72743	2.63111	1.67802	1.50651	2.3237	78.25	-0.2155	0.0744	0.2899	1001.5693	0.171211	-403.084305	-403.076383	-403.075438	-403.116428	31.421	
C	 0.2209633086	 1.5499994494	-0.1492203433	-0.478202
C	 0.1005861345	 0.0681156627	 0.0872502257	 0.384693
C	 0.7168121764	-0.9568172023	-0.9019499504	-0.232356
N	 1.2210474865	-1.7981616763	 0.2347485731	-0.146904
C	 2.6112690874	-1.4522315822	 0.6889047985	-0.170177
C	 2.0526302801	-0.6867136422	 1.9216687483	-0.360826
C	 0.6952737461	-0.7971608713	 1.2371085435	 0.277645
C	-0.7391276048	-0.9802210583	 1.705505066	-0.160664
O	-1.2351515905	-0.3209208516	 0.5110342293	-0.334532
H	 1.2527631886	 1.8310098905	-0.3836283634	 0.115602
H	-0.4105551579	 1.8460529293	-0.9949825052	 0.133057
H	-0.1078919718	 2.1139114881	 0.7287401387	 0.124447
H	-0.0172670129	-1.4755007274	-1.5248527317	 0.112337
H	 1.5173875302	-0.5614865429	-1.5393142329	 0.095425
H	 3.2233208206	-2.333669791	 0.8981097989	 0.109073
H	 3.1537046675	-0.8117249246	-0.017735445	 0.096977
H	 2.106729267	-1.2677194554	 2.8462932423	 0.116528
H	 2.4349264255	 0.317902652	 2.1158441526	 0.109065
H	-1.0838242368	-2.0166742389	 1.7904938397	 0.110751
H	-1.0109877741	-0.4208337977	 2.6114255153	 0.098061
102.9114	174.3892	194.5712	229.3834	337.2906	359.2407	393.2391	477.4881	492.4517	616.4382	700.4595	714.1013	784.911	812.399	849.2275	903.8482	920.7136	946.2494	950.3968	957.123	992.4098	1043.6375	1112.7499	1132.9809	1141.7257	1167.6559	1179.5651	1190.5336	1204.1957	1217.2466	1234.0813	1259.7281	1284.3695	1305.0913	1330.8619	1377.7595	1408.3322	1476.2702	1478.3408	1483.7148	1487.187	1505.9215	1511.5231	3002.8829	3019.1023	3025.0925	3031.8201	3062.109	3069.3488	3082.1516	3092.2919	3097.9901	3112.2604	3114.9874
CC12CN3CCC13CO2	C[C@@]12CN3CC[C@@]13CO2	
InChI=1S/C7H11NO/c1-6-4-8-3-2-7(6,8)5-9-6/h2-5H2,1H3	InChI=1S/C7H11NO/c1-6-4-8-3-2-7(6,8)5-9-6/h2-5H2,1H3/t6-,7-/m1/s1
