16
gdb 16978	4.00455	2.32752	2.18492	1.823	69.09	-0.2249	0.0056	0.2305	705.7477	0.131683	-346.468195	-346.46248	-346.461536	-346.497488	24.45	
C	 0.0592502272	 1.5835939505	-0.1541209709	-0.188055
O	 1.5136181112	 1.5040464241	 0.1277246807	-0.312981
C	 1.198606836	 0.3210049858	 0.9346254369	 0.161956
C	 1.3411733777	-1.262221258	 0.9289457942	-0.153456
C	-0.2683964164	-1.154384415	 1.118295078	-0.305656
C	-0.0230404186	 0.0574414373	 0.1118025914	 0.164827
C	 0.5549197513	-0.7182138061	-1.0886492979	-0.0921
C	 1.4221318154	-1.5771576252	-0.5564370416	-0.069439
H	-0.4408340855	 2.2276285377	 0.5783751671	 0.108118
H	-0.1277343032	 1.9317150304	-1.1738899994	 0.113942
H	 1.0163612536	 0.6668560263	 1.9600703362	 0.080155
H	 1.959423263	-1.812663532	 1.6386933768	 0.071119
H	-0.8377330253	-2.0081763711	 0.7462442648	 0.111587
H	-0.5846064968	-0.8705231763	 2.1253210791	 0.109099
H	 0.2616284356	-0.5585589962	-2.1169781003	 0.096774
H	 2.0497295349	-2.3238727922	-1.0202722152	 0.104109
283.4804	299.5268	380.4592	466.5598	530.4354	603.7409	682.188	715.3055	760.5131	811.9997	821.561	842.2767	884.6656	909.3259	913.3232	937.38	972.5649	978.0187	1012.3018	1046.6695	1089.7355	1118.5967	1123.6225	1173.1729	1193.8354	1200.1821	1223.4155	1254.435	1285.9393	1330.7177	1396.4739	1483.8074	1500.3409	1637.138	3018.9513	3031.9262	3063.496	3101.0442	3115.7229	3139.3798	3219.1493	3248.847
C1OC2C3CC12C=C3	C1O[C@@H]2[C@H]3C[C@@]12C=C3	
InChI=1S/C7H8O/c1-2-7-3-5(1)6(7)8-4-7/h1-2,5-6H,3-4H2	InChI=1S/C7H8O/c1-2-7-3-5(1)6(7)8-4-7/h1-2,5-6H,3-4H2/t5-,6-,7+/m1/s1
