15
gdb 126743	4.29548	1.00188	0.85626	7.3572	74.88	-0.2792	-0.0396	0.2396	1312.4282	0.114551	-413.030208	-413.022181	-413.021236	-413.063669	28.358	
C	 0.134258388	 1.5027302952	 0.1386471132	-0.378655
C	-0.095877394	 0.0110767946	-0.0954141319	-0.15112
N	 0.6590840403	-0.4923223767	-1.2383015926	 0.05745
C	 1.7099605079	-1.342341815	-1.2690260165	 0.002078
N	 2.124451372	-1.5274474774	-2.5062237624	-0.301092
C	 1.2662597637	-0.7414132783	-3.2157588175	 0.250788
N	 0.3594290189	-0.0934806426	-2.4870418417	-0.28362
C	 1.3181668123	-0.6119332374	-4.6354126226	 0.267316
N	 1.3652507829	-0.5098095128	-5.7858478609	-0.329918
H	 1.1860543103	 1.7085253056	 0.3564351114	 0.134014
H	-0.157042627	 2.0747498313	-0.7448892267	 0.160145
H	-0.4675961787	 1.8394263942	 0.9871833953	 0.133005
H	 0.2149194182	-0.5809766866	 0.7696322064	 0.132753
H	-1.1530964071	-0.1953769025	-0.2828151244	 0.149564
H	 2.1256279824	-1.7939495716	-0.3808558892	 0.157294
56.51	106.5127	152.9421	201.6256	227.6896	346.5438	406.049	520.6708	558.9614	584.9149	669.7114	709.4294	770.5007	799.4265	863.6995	974.5052	1029.215	1062.7453	1099.1223	1122.4046	1223.3395	1261.582	1340.5187	1350.9023	1389.6743	1412.3917	1445.1488	1461.9432	1482.3219	1489.4411	1507.8804	1522.2695	2368.5988	3051.8327	3067.4128	3110.2102	3128.0545	3143.5531	3261.8736
CCN1C=NC(=N1)C#N	CCn1cnc(n1)C#N	
InChI=1S/C5H6N4/c1-2-9-4-7-5(3-6)8-9/h4H,2H2,1H3	InChI=1S/C5H6N4/c1-2-9-4-7-5(3-6)8-9/h4H,2H2,1H3
