19
gdb 67465	2.56197	1.71276	1.61986	1.6601	73.94	-0.2337	0.0852	0.319	964.1359	0.161274	-422.991223	-422.983828	-422.982883	-423.022727	29.663	
C	-0.02501159	 1.525629004	 0.0210923928	-0.515878
C	 0.0070051765	 0.0263852824	-0.0046877328	 0.290047
C	 0.4704838092	-1.0020058471	-1.0834543002	-0.164724
C	 1.3147549982	-1.7343225212	-0.0425559836	-0.278086
C	 0.637170655	-0.8752612584	 1.0759414223	 0.037378
O	-0.333058752	-1.51365384	 1.8971650367	-0.260393
C	-1.1764986448	-2.3692643796	 1.173004478	 0.022093
O	-1.7738069836	-1.7780886739	 0.0372492863	-0.271488
C	-0.9783476537	-0.862401355	-0.6717006234	 0.080562
H	 0.9776730151	 1.9498161699	 0.1509696491	 0.117021
H	-0.4390711655	 1.929203891	-0.9089139388	 0.119943
H	-0.64875377	 1.8886883762	 0.8466416722	 0.131434
H	 0.7719595163	-0.8136850902	-2.1083364626	 0.084669
H	 1.249932685	-2.8235585741	 0.0179486426	 0.105079
H	 2.3700262647	-1.459585782	-0.1223187067	 0.106657
H	 1.3309517162	-0.3836047991	 1.7586268005	 0.087874
H	-0.6323705433	-3.2771959211	 0.8692911578	 0.089073
H	-1.9924704407	-2.6452950736	 1.8456381518	 0.116652
H	-1.6003222625	-0.3902843883	-1.4264115418	 0.102088
142.0354	193.1589	217.8945	269.9312	339.5	406.9496	461.3786	518.1587	548.5433	644.1978	718.7056	770.902	823.5694	849.7025	884.1055	935.5763	968.2172	973.7947	990.7031	1020.7741	1051.0477	1062.2945	1099.2224	1126.2533	1131.1604	1176.7788	1191.7341	1223.1379	1249.4361	1262.7285	1288.5074	1300.3959	1355.7517	1376.7298	1414.0283	1444.8919	1475.2486	1487.0745	1496.31	1505.3466	1537.5989	2974.8874	3019.5615	3058.6018	3079.1206	3093.2798	3093.6639	3099.3088	3109.2847	3158.3659	3171.3362
CC12C3CC1OCOC23	C[C@@]12[C@H]3C[C@@H]1OCO[C@@H]23	
InChI=1S/C7H10O2/c1-7-4-2-5(7)8-3-9-6(4)7/h4-6H,2-3H2,1H3	InChI=1S/C7H10O2/c1-7-4-2-5(7)8-3-9-6(4)7/h4-6H,2-3H2,1H3/t4-,5-,6+,7+/m0/s1
