13
gdb 131589	4.59481	1.04599	0.85655	2.9657	62.	-0.28	-0.0907	0.1893	1234.6366	0.088127	-489.873472	-489.865428	-489.864484	-489.90724	27.423	
O	 0.0541053797	 1.3332568146	 0.008978816	-0.393136
C	-0.0259808554	-0.0632330823	 0.0013093355	-0.17798
C	-1.4918105495	-0.4691673307	 0.0112898113	 0.282341
O	-2.4110307434	 0.3036524285	 0.0243117796	-0.246006
C	-1.7461876032	-1.9513241033	 0.0061268914	 0.348978
N	-2.8888702747	-2.5716121251	 0.0130688591	-0.282689
C	-2.4942586542	-3.8826317492	 0.0028365015	 0.042653
N	-1.2007504689	-4.077961243	-0.0093280361	-0.099254
O	-0.6898881921	-2.782567138	-0.0073526153	-0.195468
H	 0.9835885859	 1.5797073027	 0.0009138787	 0.300007
H	 0.4410336646	-0.5225934378	-0.887046655	 0.129523
H	 0.4560473272	-0.5331026261	 0.8760626025	 0.129584
H	-3.1850044561	-4.7130359603	 0.0047424506	 0.161446
51.7086	91.6069	149.8366	189.9739	229.8871	288.2336	376.2285	469.8518	527.6347	659.1908	738.871	760.3185	923.2275	936.6591	967.4327	977.2903	1010.5215	1063.4306	1150.973	1196.1053	1222.5476	1249.8154	1256.2438	1301.8033	1445.328	1474.5803	1490.3984	1603.0416	1831.542	2960.5852	2982.727	3266.7327	3838.7541
OCC(=O)C1=NC=NO1	OCC(=O)c1ncno1	
InChI=1S/C4H4N2O3/c7-1-3(8)4-5-2-6-9-4/h2,7H,1H2	InChI=1S/C4H4N2O3/c7-1-3(8)4-5-2-6-9-4/h2,7H,1H2
