16
gdb 53841	3.99361	0.86111	0.75726	1.726	66.07	-0.2454	-0.0677	0.1776	1460.2164	0.122161	-475.045026	-475.035741	-475.034797	-475.080836	32.433	
N	-0.0277140402	 1.2563639669	 0.2917859827	-0.518066
C	 0.0574718969	-0.0792942056	 0.116764319	 0.333318
O	 1.0792144502	-0.7386922594	 0.0867465696	-0.349477
C	-1.334023488	-0.7351039254	-0.0592605318	 0.299547
O	-2.3359951961	-0.0577427481	-0.0337956822	-0.306827
C	-1.3207850584	-2.2315846416	-0.2849201679	-0.339289
C	-2.6834271808	-2.8610134062	-0.1493990874	 0.099662
C	-2.8363824403	-4.2765422583	 0.2038849282	-0.184919
O	-3.0674232887	-3.2512734262	 1.1708393388	-0.231407
H	 0.8061881472	 1.8014673095	 0.4290163644	 0.270934
H	-0.9382123654	 1.6869972672	 0.3069123124	 0.280865
H	-0.9117812296	-2.3973856749	-1.2925610151	 0.147215
H	-0.5978470043	-2.6877426131	 0.3976098385	 0.15602
H	-3.4781266827	-2.3786063506	-0.7165062498	 0.109483
H	-3.7201332477	-4.8227287435	-0.122636372	 0.117589
H	-1.9502677122	-4.8876402507	 0.3726681627	 0.115353
33.6161	52.3187	83.7945	136.0583	248.3567	314.7149	331.6235	376.9777	407.6734	419.3429	527.548	611.8155	632.6748	718.5986	793.168	819.0949	865.5991	949.3113	966.3169	1046.7177	1093.1038	1099.6188	1123.3665	1159.6387	1165.7789	1214.8783	1295.8146	1321.2257	1379.0864	1416.6252	1452.1421	1532.5943	1588.9866	1798.8857	1810.4871	3022.6549	3081.9757	3098.7749	3128.7208	3168.625	3596.4465	3737.6428
NC(=O)C(=O)CC1CO1	NC(=O)C(=O)C[C@H]1CO1	
InChI=1S/C5H7NO3/c6-5(8)4(7)1-3-2-9-3/h3H,1-2H2,(H2,6,8)	InChI=1S/C5H7NO3/c6-5(8)4(7)1-3-2-9-3/h3H,1-2H2,(H2,6,8)/t3-/m0/s1
