17
gdb 73920	2.60607	1.44867	1.00501	3.4874	77.73	-0.2476	-0.0628	0.1848	1160.035	0.135031	-421.835377	-421.827199	-421.826255	-421.868209	30.411	
C	-0.0432929118	 1.5167245565	 0.1281131325	-0.512278
C	-0.0244096985	 0.0287197869	-0.0007460623	 0.231961
C	-0.003680845	-0.7464519557	-1.109786882	 0.112859
C	-0.0279552463	-2.2293743242	-0.7808970949	-0.335462
C	 0.0285046566	-2.2464265301	 0.7371922808	 0.028965
O	 1.2081900232	-1.6513315689	 1.2801033395	-0.249322
C	 0.0082608675	-0.8503046945	 1.2122795371	-0.047879
C	 0.0493042271	-0.2857514857	-2.4954967104	 0.078268
O	 0.0903551601	-1.034950261	-3.4499155182	-0.276541
H	 0.8638008442	 1.8661707799	 0.6368564631	 0.150946
H	-0.1176188086	 2.0305945294	-0.8311821704	 0.14054
H	-0.8893432717	 1.8338767146	 0.7505960109	 0.139782
H	-0.9411210814	-2.7052679095	-1.1565428078	 0.125241
H	 0.8146554828	-2.7621823622	-1.2332103909	 0.142462
H	-0.3842521918	-3.0709189139	 1.3115470743	 0.104013
H	-0.3878418068	-0.5236239085	 2.1697823197	 0.100951
H	 0.0408217804	 0.815199227	-2.6418076309	 0.065495
106.6866	156.0278	178.6023	199.7103	222.4946	301.0947	375.3964	413.1788	519.2464	584.2152	618.5437	713.8834	784.1591	846.8173	856.0644	897.9195	934.5094	991.6357	1008.1603	1032.9752	1059.3305	1099.1281	1102.7648	1178.5166	1204.5783	1249.773	1257.0138	1313.6442	1372.8672	1398.9448	1411.9393	1433.3689	1459.0737	1476.8142	1481.7855	1676.9917	1768.7487	2899.9478	3025.4146	3048.8073	3071.1327	3088.3406	3136.9915	3151.5291	3162.7857
CC1=C(CC2OC12)C=O	CC1=C(C[C@H]2O[C@@H]12)C=O	
InChI=1S/C7H8O2/c1-4-5(3-8)2-6-7(4)9-6/h3,6-7H,2H2,1H3	InChI=1S/C7H8O2/c1-4-5(3-8)2-6-7(4)9-6/h3,6-7H,2H2,1H3/t6-,7+/m1/s1
