15
gdb 123574	3.95334	1.64054	1.26754	4.6191	70.12	-0.249	-0.0104	0.2386	940.6436	0.115814	-416.768693	-416.762587	-416.761643	-416.799069	24.78	
C	 0.0328121893	 1.4662441707	 0.0091266403	-0.247324
C	 1.2808013826	 0.668552409	 0.0243220781	-0.017035
C	 1.9926250001	 0.3966379113	 1.3701155366	-0.394551
C	 0.9193230534	-0.3431635996	 2.1141998712	 0.148718
C	 0.5343903023	-0.942351702	 3.2623165603	-0.078702
O	-0.703419508	-1.4686601379	 3.1086451644	-0.177725
N	-1.1769368694	-1.2126397121	 1.8083191152	-0.252606
C	-0.1968094545	-0.5509154687	 1.2595312425	 0.408523
N	-0.0534388092	-0.0181009641	-0.0420852976	-0.179254
H	-0.2840851325	 1.9488028967	 0.9301537518	 0.132191
H	-0.2843093651	 1.9616552719	-0.9028717828	 0.133224
H	 1.8725639128	 0.6040077524	-0.8824189992	 0.109283
H	 2.8857467619	-0.2164607112	 1.2081212689	 0.132254
H	 2.3185328807	 1.3213560472	 1.8576602612	 0.130767
H	 0.9778483357	-1.0934974735	 4.2342921693	 0.152239
172.1276	232.3401	350.5353	434.3676	458.6311	585.5145	619.3278	690.7562	741.5002	768.676	788.8536	830.8001	836.6691	892.4313	912.7225	958.3585	967.3105	1062.4763	1088.7075	1109.223	1116.2586	1122.8768	1176.8945	1184.4252	1250.9326	1267.7667	1313.4337	1372.9505	1421.7652	1488.3017	1500.2878	1560.1122	1681.2937	3043.6046	3076.6255	3115.4396	3171.3313	3208.129	3262.8946
C1C2CC3=CON=C3N12	C1[C@H]2Cc3conc3N12	
InChI=1S/C6H6N2O/c1-4-3-9-7-6(4)8-2-5(1)8/h3,5H,1-2H2	InChI=1S/C6H6N2O/c1-4-3-9-7-6(4)8-2-5(1)8/h3,5H,1-2H2/t5-,8?/m1/s1
