20
gdb 84394	2.14837	1.59037	1.11869	3.8629	81.8	-0.2363	0.006	0.2423	1167.4518	0.170856	-403.194173	-403.185122	-403.184178	-403.227868	33.858	
C	-0.0312523958	 1.6447520087	-0.0277412282	-0.395238
C	-0.0025587044	 0.1103658637	 0.0176068701	-0.004232
C	 0.7026102024	-0.5282439247	-1.1508408421	-0.086143
C	 1.7478482229	-1.2543279648	-0.7688425693	-0.085137
C	 1.9350735523	-1.2306216581	 0.728147462	-0.02305
C	 3.2830880633	-0.6361336681	 1.164289188	-0.385619
N	 0.7771518415	-0.422847637	 1.1493242329	-0.054151
C	 0.2945592584	-0.39747625	 2.4149028343	 0.140068
O	-0.7294401783	 0.1614919975	 2.7597801333	-0.348544
H	 0.9816066821	 2.0507011216	-0.1077966913	 0.112951
H	-0.6095980169	 1.9853161237	-0.8929856807	 0.112968
H	-0.5020733089	 2.0291355474	 0.8790494951	 0.154694
H	-1.0389239646	-0.2435219841	 0.1090541854	 0.107683
H	 0.3703689011	-0.3731502055	-2.170024696	 0.109
H	 2.4242070981	-1.7993042301	-1.415746661	 0.10775
H	 1.8537509252	-2.2453324655	 1.1462791875	 0.097324
H	 3.4040484258	 0.3751962354	 0.766188822	 0.127248
H	 3.3559321999	-0.5905691608	 2.2550006711	 0.12439
H	 4.1079833334	-1.2560415954	 0.7975016358	 0.11865
H	 0.9430440926	-0.950741134	 3.1242525611	 0.069388
72.3572	122.0376	184.5124	223.7311	241.0557	255.6399	291.8378	310.1766	378.5387	482.6943	526.0156	565.3807	698.5047	768.7897	770.674	784.1832	903.8804	920.0182	969.1619	975.7034	1034.7706	1039.8529	1084.7441	1092.4841	1111.7888	1118.6413	1146.8555	1211.035	1293.2452	1311.138	1356.3428	1370.7938	1373.544	1396.4132	1400.2244	1408.0004	1442.9714	1486.5349	1492.5616	1496.0015	1505.0637	1694.2275	1782.6115	2923.241	2984.8666	3009.8195	3037.2403	3039.9273	3108.7272	3109.8598	3122.1408	3140.6305	3201.0163	3224.7251
CC1C=CC(C)N1C=O	C[C@H]1C=C[C@@H](C)N1C=O	
InChI=1S/C7H11NO/c1-6-3-4-7(2)8(6)5-9/h3-7H,1-2H3	InChI=1S/C7H11NO/c1-6-3-4-7(2)8(6)5-9/h3-7H,1-2H3/t6-,7+
