23
gdb 62663	2.92011	1.37045	1.18038	0.1549	90.24	-0.2499	0.0934	0.3432	1190.52	0.205063	-351.123851	-351.114761	-351.113816	-351.156616	36.572	
C	-0.0547833669	 1.5387714465	-0.0085361902	-0.459859
C	 0.066504763	 0.026508686	 0.0360544645	 0.318647
C	-1.1504278375	-0.6822752045	-0.5391870741	-0.452845
C	 1.3726890211	-0.6877895475	-0.225965112	-0.094514
C	 2.5706013936	 0.0163382522	 0.3608410935	-0.128469
C	 3.1725978616	-0.8255384904	 1.4574805718	-0.331928
C	 1.928124241	-0.0262225843	 1.7635204996	 0.347481
C	 1.8963628814	 1.0087039533	 2.8568640291	-0.495032
C	 0.7223974865	-0.7289213024	 1.1763949851	-0.165144
H	 0.8459193935	 2.039731671	 0.3491793027	 0.122386
H	-0.2357929989	 1.8744723601	-1.0368736463	 0.108258
H	-0.8992340626	 1.882536706	 0.6008766275	 0.108918
H	-1.3105992742	-0.3981277588	-1.5855820719	 0.11342
H	-1.0388292288	-1.7706223592	-0.5009227789	 0.112201
H	-2.0571489752	-0.4189194406	 0.0175469912	 0.113543
H	 1.4293496082	-1.5053660526	-0.9382420178	 0.077399
H	 3.1178512637	 0.8355937724	-0.0934864366	 0.081317
H	 3.136385879	-1.9102533832	 1.3915940358	 0.099551
H	 4.088188597	-0.4373276483	 1.8962210864	 0.102521
H	 2.8575899549	 1.526764553	 2.9409495903	 0.113985
H	 1.1214225836	 1.7622328159	 2.6855419199	 0.118527
H	 1.6919205238	 0.5422154304	 3.828463022	 0.117184
H	 0.2184179223	-1.574257595	 1.6365168183	 0.072455
165.7545	171.2302	196.5049	212.5459	244.5911	272.5025	335.8528	343.8375	352.4228	428.9478	494.8679	539.7258	609.9604	695.9573	774.8675	816.87	848.984	868.2927	898.8087	943.7677	964.9933	969.4944	984.6217	1010.7841	1027.7963	1041.8889	1058.8221	1066.3904	1088.5308	1101.5846	1118.1851	1160.0515	1204.0366	1219.9067	1268.3875	1300.49	1315.1628	1371.1561	1397.8028	1406.52	1420.8587	1423.4194	1483.5659	1487.5346	1489.5475	1496.4921	1499.5879	1509.0848	1512.5561	3020.8724	3023.8367	3025.9334	3074.7154	3081.4479	3083.6013	3097.8515	3101.4809	3104.8166	3132.7212	3142.3795	3154.7498	3163.339	3189.076
CC1(C)C2C3CC3(C)C12	CC1(C)[C@H]2[C@@H]3C[C@]3(C)[C@@H]12	
InChI=1S/C9H14/c1-8(2)6-5-4-9(5,3)7(6)8/h5-7H,4H2,1-3H3	InChI=1S/C9H14/c1-8(2)6-5-4-9(5,3)7(6)8/h5-7H,4H2,1-3H3/t5-,6-,7+,9-/m0/s1
