19
gdb 107501	2.09193	1.76198	1.22325	1.5801	75.76	-0.2457	0.058	0.3037	1088.0834	0.157968	-422.962338	-422.953734	-422.95279	-422.995514	32.915	
O	 0.1889347832	 1.3648210238	 0.2609695342	-0.413066
C	 0.0149862955	-0.005646176	-0.0732930822	-0.222937
C	-1.4378813683	-0.3436890837	 0.0275204433	 0.365212
O	-1.8649269402	-1.5267370366	-0.6754815964	-0.29948
C	-2.5387414978	-0.2916053738	-0.9517953604	-0.040732
C	-3.5862390005	-0.0854742991	 0.1565995036	-0.347458
C	-2.417248202	-0.1412613891	 1.1736384465	 0.330454
C	-2.3622299807	-0.7430087487	 2.5449225774	-0.328312
C	-2.2266910486	 0.7531954226	 2.3605336775	-0.321197
H	 1.1330571875	 1.5474177449	 0.2778664495	 0.292392
H	 0.3472168478	-0.2300750467	-1.0975280644	 0.106761
H	 0.5871844046	-0.6574602212	 0.6075162112	 0.096558
H	-2.5539775743	 0.0486432958	-1.9809053394	 0.103444
H	-4.0672238413	 0.8957249889	 0.1180623226	 0.109254
H	-4.3429498497	-0.8713875083	 0.2227648297	 0.109522
H	-3.2864990477	-1.1235716528	 2.9674252009	 0.113446
H	-1.4808339481	-1.3120859616	 2.8233258508	 0.111135
H	-1.2513874217	 1.2073813596	 2.4909923858	 0.126341
H	-3.0598315277	 1.3818376921	 2.6591290297	 0.108664
80.4397	148.7408	161.184	199.5639	258.5305	271.972	363.8511	402.8879	459.3829	526.0727	602.9892	651.5804	772.2689	793.5758	853.197	873.216	889.9973	922.3247	955.9546	976.94	983.1463	1048.1714	1054.7717	1066.1534	1076.1345	1080.5777	1148.8527	1163.3355	1186.139	1211.8945	1226.9256	1240.2629	1275.0794	1289.7635	1393.4117	1420.0516	1466.3792	1470.3203	1496.1562	1510.7141	1514.4332	2966.4252	3012.179	3057.627	3114.8941	3125.1554	3131.7848	3184.9663	3204.7722	3224.1844	3830.6037
OCC12OC1CC21CC1	OC[C@]12O[C@H]1CC12CC1	
InChI=1S/C7H10O2/c8-4-7-5(9-7)3-6(7)1-2-6/h5,8H,1-4H2	InChI=1S/C7H10O2/c8-4-7-5(9-7)3-6(7)1-2-6/h5,8H,1-4H2/t5-,7-/m0/s1
