16
gdb 127791	2.79578	1.5364	1.0039	2.4273	73.36	-0.2667	-0.0652	0.2015	1131.076	0.124191	-434.092931	-434.084343	-434.083399	-434.126735	30.157	
C	-0.027703562	 1.4517306908	 0.0145282969	-0.317309
N	-0.010868201	-0.0018148817	 0.077612902	-0.025032
N	-0.0275487895	-0.7073288121	-1.0568902301	-0.126807
N	-0.0072437377	-1.9829745083	-0.7507912653	-0.190507
C	 0.0225566557	-2.09744537	 0.5943681035	-0.14878
C	 0.0213664945	-0.8331947355	 1.1614219574	 0.255706
C	 0.0466239348	-0.3719960952	 2.5586907026	 0.307826
C	 0.0808977875	-1.4501633537	 3.6239013069	-0.489849
O	 0.0401603884	 0.8122750594	 2.8374850079	-0.330915
H	 0.8637334448	 1.8606294884	 0.4917302549	 0.161911
H	-0.0553291266	 1.7159671405	-1.0422202091	 0.160143
H	-0.9040208066	 1.8418846304	 0.5334970118	 0.162015
H	 0.0431948158	-3.06002337	 1.0802160989	 0.133666
H	 0.9686248522	-2.0804732519	 3.505213053	 0.149183
H	 0.0949960577	-0.9783656632	 4.6065383449	 0.149664
H	-0.795120918	-2.1021074178	 3.5406510037	 0.149087
66.9191	121.3182	132.8745	183.7378	188.9857	242.8863	317.6514	411.7745	497.4376	564.1011	638.4951	707.5382	712.5308	727.3968	871.1726	951.7926	980.8418	1045.3697	1047.5452	1103.8952	1153.0371	1160.2239	1247.704	1279.0519	1312.3424	1344.263	1383.6978	1437.8636	1466.7317	1473.5192	1474.288	1476.0762	1492.4862	1556.4065	1766.1726	3042.4508	3074.2406	3105.8304	3151.2842	3158.7682	3175.2989	3267.3595
CN1N=NC=C1C(C)=O	Cn1nncc1C(=O)C	
InChI=1S/C5H7N3O/c1-4(9)5-3-6-7-8(5)2/h3H,1-2H3	InChI=1S/C5H7N3O/c1-4(9)5-3-6-7-8(5)2/h3H,1-2H3
