17
gdb 97233	3.2714	1.28368	1.0219	2.5195	72.73	-0.2533	0.0037	0.257	1170.4489	0.136829	-455.146036	-455.137578	-455.136634	-455.180339	30.071	
C	 0.89235847	 1.4144348926	 0.1947949488	-0.327497
N	 0.4927712304	 0.0184773255	 0.1200995281	-0.276765
C	 0.1600516822	-0.4893071153	-0.9828332745	 0.393672
C	-0.2928732828	-1.9369048829	-1.0558627041	-0.27898
N	 0.3908640773	-2.811277147	-2.002659435	-0.252519
C	 0.7674645673	-2.4838442931	-3.1571979572	 0.135698
O	 0.6336648746	-1.3176363669	-3.8558512659	-0.213774
C	-0.2648016586	-0.3580176693	-3.3330676118	 0.008151
O	 0.1982613145	 0.2398995929	-2.1554853528	-0.241496
H	 1.987186074	 1.4805367878	 0.1750934776	 0.132441
H	 0.5003856401	 2.0375769075	-0.6164475433	 0.120825
H	 0.5627342148	 1.8220377627	 1.1548360399	 0.125181
H	-0.1361627007	-2.3365107891	-0.0531483976	 0.151183
H	-1.3762676363	-1.9824026293	-1.2348834753	 0.130958
H	 1.311483637	-3.1975798867	-3.7736122746	 0.134004
H	-0.3146368448	 0.4339532818	-4.0799543318	 0.139404
H	-1.2527028489	-0.8116666009	-3.1940845606	 0.119513
39.7161	69.0356	122.054	222.3975	266.8178	311.4521	368.2408	407.217	495.677	551.4984	595.339	734.2954	741.9015	841.7619	938.6719	958.0825	969.0201	988.9172	1064.5192	1077.8634	1110.1872	1128.8707	1156.2214	1189.9378	1241.9306	1276.1754	1317.5508	1355.8408	1420.3977	1437.0582	1447.7867	1479.9168	1487.5142	1499.699	1522.3465	1768.5223	1783.6025	3008.9221	3019.8837	3044.8115	3079.2097	3100.9034	3117.96	3143.0828	3158.3825
CN=C1CN=COCO1	CN=C1CN=COCO1	
InChI=1S/C5H8N2O2/c1-6-5-2-7-3-8-4-9-5/h3H,2,4H2,1H3	InChI=1S/C5H8N2O2/c1-6-5-2-7-3-8-4-9-5/h3H,2,4H2,1H3
