16
gdb 24492	3.89382	1.63837	1.15316	2.1557	85.94	-0.1992	-0.003	0.1962	1004.881	0.129331	-363.713896	-363.707578	-363.706634	-363.744209	26.503	
N	-0.0231482319	 1.3578199913	 0.009825054	-0.378026
C	 1.2651043088	 1.8530642347	 0.0004710876	-0.055255
C	 2.1544482573	 0.815057638	-0.0138953439	-0.294068
C	 1.3877835804	-0.3982245602	-0.0136703402	 0.299698
C	 0.0174930371	-0.0189315955	 0.0014945401	 0.315422
C	-1.016106396	-0.9566421718	 0.0058651862	-0.24647
C	-0.6643543019	-2.2980090271	-0.0052155195	-0.109696
C	 0.6853221313	-2.6974799899	-0.0203044134	-0.114303
C	 1.7089817875	-1.7639737649	-0.0246041951	-0.245481
H	-0.8582972865	 1.9157361345	 0.0209831927	 0.259018
H	 1.437541269	 2.9183918784	 0.0049725997	 0.123652
H	 3.2299217293	 0.9014835966	-0.023562174	 0.098608
H	-2.0567596255	-0.6487702411	 0.0174973103	 0.083531
H	-1.4432703812	-3.0531398596	-0.0022003035	 0.088496
H	 0.9232552876	-3.7559341061	-0.0286691108	 0.085917
H	 2.7466564147	-2.0819764673	-0.0362612101	 0.088958
217.8792	246.1922	391.0031	401.9582	433.9035	550.1991	584.5472	615.659	616.5689	735.98	760.2384	773.7253	788.4964	839.0604	863.9735	882.6641	908.3258	910.9807	955.1959	1034.7739	1092.0185	1109.4955	1143.4008	1173.7794	1222.212	1266.7756	1302.2108	1366.8063	1380.8918	1445.0218	1481.6645	1524.8097	1554.7346	1616.7712	1659.7623	3167.1383	3173.3101	3184.2754	3196.652	3245.109	3264.8828	3686.762
N1C=CC2=C1C=CC=C2	[nH]1ccc2c1cccc2	
InChI=1S/C8H7N/c1-2-4-8-7(3-1)5-6-9-8/h1-6,9H	InChI=1S/C8H7N/c1-2-4-8-7(3-1)5-6-9-8/h1-6,9H
