19
gdb 54517	3.00872	1.41276	1.12847	2.8796	76.17	-0.2363	-0.0114	0.2248	1127.7216	0.158732	-423.042706	-423.034181	-423.033237	-423.076099	32.171	
C	 0.7546690252	 1.0538828204	 0.2931507743	-0.477864
C	-0.3562791679	 0.1007343785	-0.0874076814	 0.307999
O	-1.391694673	 0.0096189808	 0.5395894416	-0.324329
C	-0.126396573	-0.7572503979	-1.2874854656	 0.335012
C	-1.3110568564	-1.2973946343	-2.0654419069	-0.343117
C	-0.452544176	-2.2423589139	-1.2702628299	-0.091152
C	 0.7226488991	-2.9059899057	-1.9677757354	-0.245299
C	 1.413453008	-1.7293516956	-2.6942086073	-0.102661
O	 1.0797565623	-0.5407966012	-1.9717082651	-0.308314
H	 1.6870317519	 0.503173621	 0.4535918382	 0.143018
H	 0.9507242568	 1.7497629222	-0.529269543	 0.149598
H	 0.472505623	 1.5997229741	 1.1937694828	 0.133816
H	-2.2813093455	-1.0554750037	-1.6480586207	 0.143307
H	-1.2479048377	-1.2927707518	-3.1483156535	 0.11856
H	-0.86555553	-2.6839159044	-0.3715828285	 0.113212
H	 1.385591048	-3.3519496436	-1.2195545674	 0.11421
H	 0.4312999768	-3.6933706078	-2.6693828531	 0.112981
H	 2.5032585798	-1.8113085909	-2.7215013093	 0.115345
H	 1.0558486186	-1.646922686	-3.7291075999	 0.105676
62.2848	135.4954	152.9191	186.4562	224.883	328.9438	377.1642	430.06	492.3545	583.8889	626.9817	663.1026	709.7777	812.0368	844.2954	879.3719	913.2995	932.5406	952.5634	979.1613	1018.851	1047.065	1049.2212	1071.311	1092.708	1130.0792	1161.1082	1219.1123	1232.9565	1245.0241	1299.2065	1337.7107	1372.2785	1390.1907	1402.3172	1455.3317	1460.5269	1466.6993	1494.5301	1527.2246	1789.1353	3013.0756	3046.1869	3050.9208	3085.756	3098.8589	3107.6476	3137.4306	3158.6322	3190.931	3235.5425
CC(=O)C12CC1CCO2	CC(=O)[C@]12C[C@H]1CCO2	
InChI=1S/C7H10O2/c1-5(8)7-4-6(7)2-3-9-7/h6H,2-4H2,1H3	InChI=1S/C7H10O2/c1-5(8)7-4-6(7)2-3-9-7/h6H,2-4H2,1H3/t6-,7-/m1/s1
