18
gdb 56747	2.86057	1.37231	1.1176	4.5016	76.02	-0.2537	0.0206	0.2742	1117.5096	0.14946	-398.061084	-398.052821	-398.051877	-398.094202	31.33	
N	-0.0669431705	 1.5093754028	-0.0422361788	-0.496432
C	-0.0003286394	 0.0466785079	-0.0631882152	-0.290078
C	-1.3585691665	-0.5144830179	 0.0645558208	 0.300345
N	-2.4125934542	-0.984531446	 0.1171766743	-0.326242
C	 0.6580971262	-0.5325284277	-1.3097871435	 0.363716
C	 2.0842330981	-0.2311820486	-1.8474066493	-0.257567
C	 1.3393580161	-1.0805883081	-2.9057320545	-0.020673
C	 0.8382095293	-2.0093913644	-1.7668606565	-0.279617
N	 0.147425207	-0.1543873546	-2.6947197936	-0.356981
H	 0.8762556936	 1.8748476582	 0.050690851	 0.240449
H	-0.4080299956	 1.8270702873	-0.9470365372	 0.253801
H	 0.5686332937	-0.2823229572	 0.815636541	 0.13505
H	 2.2742673674	 0.8048735816	-2.1289078633	 0.107437
H	 2.9213307583	-0.7001251009	-1.3279080248	 0.10092
H	 1.6771675085	-1.3517924591	-3.9054527952	 0.094368
H	 1.5744296672	-2.6247586595	-1.2400298558	 0.098819
H	-0.0852260144	-2.5600031065	-1.9639252853	 0.114818
H	-0.7155278446	-0.6766125273	-2.8805570043	 0.217866
68.2874	114.9325	177.2381	218.659	252.1264	335.9231	392.6738	470.9635	534.5364	589.0349	616.7272	703.974	784.0202	805.3546	865.4079	890.3393	917.5454	941.5848	962.1101	986.8251	995.3853	1057.6599	1094.5187	1118.8912	1128.3004	1148.0973	1181.8146	1204.6877	1215.8113	1231.5143	1267.4934	1272.9786	1303.2337	1330.365	1400.1244	1481.5212	1525.4356	1665.6982	2360.985	3040.3377	3043.1002	3078.8188	3117.6673	3122.219	3156.927	3380.9464	3484.7907	3567.8436
NC(C#N)C12CC(C1)N2	N[C@@H](C#N)[C@@]12C[C@@H](C1)N2	
InChI=1S/C6H9N3/c7-3-5(8)6-1-4(2-6)9-6/h4-5,9H,1-2,8H2	InChI=1S/C6H9N3/c7-3-5(8)6-1-4(2-6)9-6/h4-5,9H,1-2,8H2/t4-,5-,6+/m0/s1
