19
gdb 106581	2.74493	1.44195	1.27471	1.6743	75.28	-0.234	0.0043	0.2383	1089.7997	0.158059	-422.980358	-422.971792	-422.970847	-423.013343	33.094	
C	 0.1128478401	 1.5092785779	-0.0812818267	-0.381152
C	-0.0471867158	-0.0085466484	 0.0690273822	-0.315448
C	 0.6403907095	-0.5497566087	 1.2950332405	 0.358602
O	 2.1000447594	-0.3442595794	 1.3504956712	-0.321749
C	 2.0485139647	-1.3372729558	 2.4202781653	-0.050095
C	 1.1808880593	-0.6339052461	 3.4721477102	-0.073247
C	 0.2236543894	-0.0998036979	 2.7136695839	-0.108217
C	 0.9620869442	-2.0599132162	 1.5410966991	 0.075691
O	-0.0382376729	-2.8624683536	 2.09109549	-0.426311
H	 1.1711275487	 1.7801126522	-0.1247494443	 0.139729
H	-0.3721926143	 1.8641938148	-0.9952307668	 0.110508
H	-0.3320118174	 2.0430491381	 0.7647347817	 0.117423
H	-1.1087564788	-0.2795295365	 0.1268195787	 0.109434
H	 0.3599992285	-0.5144942516	-0.8139243745	 0.102879
H	 3.0135961346	-1.7656725408	 2.6883073574	 0.073182
H	 1.3220774477	-0.6281321592	 4.5425978231	 0.108555
H	-0.6498354098	 0.477573623	 2.978030814	 0.108314
H	 1.4197900099	-2.5091551485	 0.6515832045	 0.081971
H	 0.2027896329	-3.7840046932	 1.9611701205	 0.289931
85.0923	148.6724	191.2149	204.9508	245.0396	273.9808	330.1028	402.727	573.5073	588.0909	604.5079	634.3572	725.9649	761.4147	801.9458	833.4633	836.2951	897.5842	904.9441	913.9937	949.6655	981.3819	987.749	1061.6559	1106.6257	1139.0693	1155.973	1181.4648	1204.7921	1252.4034	1267.2278	1281.885	1310.187	1336.1788	1383.8113	1411.2339	1438.1625	1477.076	1497.9349	1507.9209	1621.1107	3031.1537	3041.817	3042.0224	3067.4051	3108.4839	3123.2944	3130.6189	3230.432	3257.7597	3835.5279
CCC12OC(C=C1)C2O	CC[C@@]12O[C@@H](C=C1)[C@H]2O	
InChI=1S/C7H10O2/c1-2-7-4-3-5(9-7)6(7)8/h3-6,8H,2H2,1H3	InChI=1S/C7H10O2/c1-2-7-4-3-5(9-7)6(7)8/h3-6,8H,2H2,1H3/t5-,6+,7+/m0/s1
