17
gdb 28015	5.04299	1.00239	0.87758	3.1811	74.75	-0.1964	0.0281	0.2245	1296.0859	0.137788	-418.027289	-418.019466	-418.018522	-418.060086	29.941	
O	 0.9212580217	 1.0700397143	 0.201577791	-0.436273
C	 0.2885533136	-0.1113926095	 0.0266033351	 0.342453
C	 0.5900191944	-1.0836261216	-0.8913554511	-0.233609
N	-0.3378950973	-2.0922735982	-0.6503107851	 0.015947
C	-1.1294920467	-1.6624940203	 0.3662612487	 0.004046
N	-0.7735181424	-0.4701000404	 0.8058574316	-0.361505
C	-0.4987508666	-3.2894844753	-1.4197687074	 0.02413
C	 0.6091548254	-4.3102378741	-1.427059078	-0.267002
C	-0.6809913884	-4.5999686809	-0.7021134648	-0.276981
H	 0.4618602242	 1.5119733824	 0.9259664323	 0.298857
H	 1.342983755	-1.1657157971	-1.6542727703	 0.127558
H	-1.9465596387	-2.2573719781	 0.7441799608	 0.130386
H	-1.0472877072	-3.1484256378	-2.3471426363	 0.114205
H	 0.8135786265	-4.8246478854	-2.3586882934	 0.124416
H	 1.4823780912	-4.0941074863	-0.8230773196	 0.135059
H	-0.6571800115	-4.5841887716	 0.3808648998	 0.132628
H	-1.3745435832	-5.31411932	-1.1301966134	 0.125686
62.9061	110.5349	177.2762	300.9227	370.3311	379.2436	399.6583	501.9095	590.142	648.2039	659.5838	730.7971	734.9423	787.78	810.0452	836.6453	901.1207	965.1211	1012.2852	1037.9956	1063.3854	1084.7318	1096.6006	1130.9793	1169.7273	1197.9755	1206.5985	1247.6927	1274.6351	1329.9838	1378.4001	1428.9125	1437.1161	1463.1443	1501.1717	1538.005	1658.6871	3135.9999	3145.0911	3149.5407	3228.8179	3242.1644	3258.191	3294.8045	3802.002
OC1=CN(C=N1)C1CC1	Oc1cn(cn1)C1CC1	
InChI=1S/C6H8N2O/c9-6-3-8(4-7-6)5-1-2-5/h3-5,9H,1-2H2	InChI=1S/C6H8N2O/c9-6-3-8(4-7-6)5-1-2-5/h3-5,9H,1-2H2
