21
gdb 39109	3.98736	1.12885	1.03493	1.4719	82.76	-0.2419	0.0746	0.3165	1241.9564	0.183731	-387.042173	-387.033976	-387.033032	-387.07552	31.495	
C	-0.2608670577	 1.292008368	 0.2640485249	-0.328897
C	 1.1267116333	 0.8258120137	-0.0918952957	-0.097207
C	 1.8329447769	 0.2722432933	 1.1509721395	-0.216327
C	 0.6680877333	-0.7564070325	 1.3326043833	-0.307556
C	-0.0177533811	-0.1794203755	 0.0828064956	 0.384443
C	-0.7186003181	-0.9975508766	-0.9536191685	 0.019447
C	-2.236470967	-1.2776684457	-0.7934158482	-0.291508
C	-2.3578349301	-0.6042242335	-2.1724114218	-0.059466
O	-0.9551798941	-0.2596977841	-2.1795218903	-0.293196
H	-0.4667788009	 1.7050338988	 1.2500017376	 0.094539
H	-0.7996001769	 1.7600460832	-0.5526915549	 0.121377
H	 1.6070837329	 1.1446314158	-1.0087905082	 0.093943
H	 2.7826884613	-0.2185873292	 0.9274475118	 0.102743
H	 1.9948221404	 0.9850948216	 1.9666793134	 0.094643
H	 1.0054326141	-1.7873036527	 1.1932257469	 0.101077
H	 0.0939269364	-0.7033710087	 2.2636081553	 0.093019
H	-0.1367186929	-1.9087758258	-1.1616820406	 0.066106
H	-2.5320512835	-2.3260584996	-0.7360424488	 0.10684
H	-2.6992714947	-0.7216753228	 0.0237258866	 0.111945
H	-2.611722877	-1.2808589629	-2.9986671355	 0.099857
H	-2.9973002744	 0.2837579251	-2.2340323724	 0.104178
65.6651	85.6793	146.4604	207.3489	277.2129	337.9863	419.1629	463.9725	658.3653	708.9062	775.4235	785.1856	827.7351	852.5129	872.2986	918.3473	936.4527	954.3655	965.1033	971.5216	1017.6876	1023.8263	1025.6958	1059.5417	1078.9127	1091.0526	1120.41	1160.0694	1169.4238	1203.0527	1218.5798	1224.6079	1245.9724	1254.7178	1272.4552	1279.5515	1292.503	1357.1377	1384.0056	1412.162	1476.7846	1482.7484	1488.5719	1508.4775	1532.0889	2976.7336	3013.6213	3038.4998	3046.6755	3056.7685	3080.3751	3087.2731	3098.2768	3108.7196	3137.3399	3186.9007	3207.6
C1C2CCC12C1CCO1	C1[C@H]2CC[C@@]12[C@H]1CCO1	
InChI=1S/C8H12O/c1-3-8(5-6(1)8)7-2-4-9-7/h6-7H,1-5H2	InChI=1S/C8H12O/c1-3-8(5-6(1)8)7-2-4-9-7/h6-7H,1-5H2/t6-,7-,8-/m1/s1
