19
gdb 89567	4.79505	1.05513	1.00713	1.7925	76.64	-0.2202	0.0235	0.2437	1236.5393	0.159993	-419.194115	-419.185974	-419.18503	-419.227185	30.599	
C	 0.0961706179	 1.5412819239	 0.0489614087	-0.322486
N	-0.0162506545	 0.1021717183	 0.0897394006	-0.065984
C	-1.300963461	-0.4980303	 0.4927201026	-0.220338
C	-0.5275378411	-1.5606623989	 1.3054721273	 0.38625
C	 0.7001287834	-0.6358539341	 1.1457887442	-0.220341
C	-1.0125988608	-2.0365837046	 2.6913319793	-0.263354
N	-1.085449183	-3.5040127513	 2.6047635984	-0.262662
C	-0.720036857	-3.7858315983	 1.4255066717	 0.107428
O	-0.3718930596	-2.7971142488	 0.5676021055	-0.254631
H	 1.1260075028	 1.8270335492	-0.1894893445	 0.124252
H	-0.5520227149	 1.9425976186	-0.7370841042	 0.124252
H	-0.1820536584	 2.0284783151	 1.0043602523	 0.087796
H	-1.9084857514	 0.1475033495	 1.1502180179	 0.085252
H	-1.9229448926	-0.8668980628	-0.3294359829	 0.11542
H	 1.634754952	-1.1119322636	 0.8316420232	 0.11542
H	 0.8798354457	-0.0445389494	 2.0602028362	 0.085252
H	-0.3240737249	-1.742555578	 3.4917752511	 0.119237
H	-1.996938026	-1.6272900247	 2.9458548498	 0.119238
H	-0.6521682163	-4.7838712802	 1.0069443428	 0.139998
74.448	80.8516	219.1178	270.3532	289.4345	294.792	388.6732	425.7698	438.2789	535.1238	718.0296	798.5379	842.6035	884.9399	913.8821	951.0574	959.4828	976.4837	987.8041	1002.2225	1106.1553	1123.2292	1131.2707	1135.9175	1146.804	1178.8646	1218.171	1223.9762	1242.9133	1276.4697	1302.3434	1322.9869	1338.082	1361.6634	1452.1408	1485.3149	1485.8833	1493.6963	1498.245	1513.9212	1708.7304	2914.0723	2949.4486	2959.5057	3032.6443	3057.8246	3063.3088	3067.9681	3067.9963	3100.6521	3216.8188
CN1CC2(C1)CN=CO2	CN1CC2(C1)CN=CO2	
InChI=1S/C6H10N2O/c1-8-3-6(4-8)2-7-5-9-6/h5H,2-4H2,1H3	InChI=1S/C6H10N2O/c1-8-3-6(4-8)2-7-5-9-6/h5H,2-4H2,1H3
