23
gdb 63212	2.03453	1.81049	1.34793	0.086	89.95	-0.2341	0.029	0.2632	1111.7285	0.205641	-351.16017	-351.151201	-351.150257	-351.193172	36.335	
C	-0.0476509187	 1.5815470931	-0.0391773841	-0.432905
C	-0.0098934274	 0.0463810477	 0.0113312545	 0.168588
C	-1.454364518	-0.4992177828	-0.0585917427	-0.408822
C	 0.7984923143	-0.5299143375	-1.1395036071	-0.074503
C	 1.6494057557	-1.47937278	-0.7615536705	-0.092749
C	 1.5985110813	-1.7204638595	 0.7259526444	-0.334527
C	 0.7552021329	-0.5393934777	 1.2345096743	 0.341167
C	 1.3429581245	 0.3374532592	 2.3151084268	-0.316088
C	 0.1756098398	-0.5675028278	 2.6226860079	-0.314873
H	 0.9594391938	 2.0077273121	-0.0380189651	 0.117882
H	-0.555102906	 1.9176932381	-0.950231	 0.107094
H	-0.5992691712	 2.0003881065	 0.810242711	 0.109666
H	-1.9291181998	-0.2204002811	-1.0060094983	 0.105503
H	-1.4673853518	-1.5906183478	 0.0149576963	 0.114025
H	-2.0703845365	-0.0961151189	 0.7524942397	 0.107557
H	 0.6329413943	-0.2027367425	-2.1614942922	 0.084979
H	 2.2892033472	-2.0500936596	-1.4258611174	 0.08953
H	 1.1300312127	-2.6912111762	 0.9479873274	 0.103449
H	 2.5927966708	-1.7498475783	 1.188564983	 0.100607
H	 2.3201999544	 0.067676936	 2.7033639477	 0.104052
H	 1.1593014485	 1.4051678185	 2.2900982684	 0.109589
H	-0.7897849721	-0.1002645977	 2.7903310095	 0.106171
H	 0.3471353613	-1.449990354	 3.2313362463	 0.104609
60.9041	224.5417	241.3964	254.9329	260.4436	298.7692	321.6049	338.9368	402.5951	442.9835	517.8671	537.8729	620.6525	740.7922	760.2237	780.3462	841.3216	883.1615	919.6429	934.3047	949.5112	953.4058	974.4936	980.4189	986.6692	1018.3196	1039.0462	1059.3512	1084.5589	1112.7135	1169.276	1185.05	1192.9309	1208.5731	1229.1298	1271.2216	1285.4477	1361.9594	1371.3278	1393.9286	1418.5151	1467.6668	1482.1705	1486.9165	1489.6041	1498.0974	1506.4955	1511.6473	1692.74	2990.575	3023.25	3028.142	3036.9654	3084.8929	3091.9455	3106.0883	3108.944	3119.5529	3129.0791	3169.4742	3197.0321	3198.1695	3217.2407
CC1(C)C=CCC11CC1	CC1(C)C=CCC21CC2	
InChI=1S/C9H14/c1-8(2)4-3-5-9(8)6-7-9/h3-4H,5-7H2,1-2H3	InChI=1S/C9H14/c1-8(2)4-3-5-9(8)6-7-9/h3-4H,5-7H2,1-2H3
