14
gdb 14222	4.76933	1.80771	1.62568	2.6457	61.48	-0.2387	0.0048	0.2435	785.8828	0.107071	-382.502218	-382.495868	-382.494924	-382.532419	25.233	
O	-0.1144572495	 1.3199726317	-0.0535570779	-0.45574
C	 0.030837182	-0.0453597678	-0.0424810486	 0.401044
C	 0.8803843984	-0.9040397767	-0.9808745409	-0.303879
C	 0.0070973227	-2.0942699477	-0.4676895027	-0.195351
C	-1.0659831313	-1.0391349362	 0.0160587407	-0.122308
C	-0.1721893147	-0.8521572147	 1.2746686162	-0.281681
C	 0.4005331125	-2.2092444002	 1.0229727542	 0.4514
O	 0.8180588562	-3.0981683693	 1.7097975487	-0.340808
H	 0.6542572096	 1.7156921135	 0.3732631669	 0.293083
H	 0.6681855446	-0.6662387442	-2.0270110924	 0.116798
H	 1.9617376015	-0.9655879435	-0.8151363942	 0.104129
H	-0.1757102611	-2.97121966	-1.0815557426	 0.099101
H	-2.1418952819	-0.9955157687	-0.0434696506	 0.12217
H	-0.428455379	-0.3449544761	 2.1948967233	 0.112041
142.8598	263.2162	322.9902	364.8591	444.7826	477.4366	544.1276	635.0835	709.3571	766.3009	807.9731	827.3	850.0943	902.5086	916.7691	939.3089	1000.7622	1040.3352	1066.016	1104.9761	1108.7412	1130.7511	1178.7215	1215.4757	1250.291	1264.0603	1311.0738	1448.0191	1505.3125	1881.5936	3039.9021	3105.6936	3170.0448	3218.6919	3251.3156	3791.7831
OC12CC3C1C2C3=O	O[C@]12C[C@@H]3[C@H]1[C@H]2C3=O	
InChI=1S/C6H6O2/c7-5-2-1-6(8)3(2)4(5)6/h2-4,8H,1H2	InChI=1S/C6H6O2/c7-5-2-1-6(8)3(2)4(5)6/h2-4,8H,1H2/t2-,3+,4+,6-/m1/s1
