22
gdb 73835	2.3333	1.61522	1.08163	1.2476	89.39	-0.2103	0.0278	0.2381	1202.7535	0.195482	-367.216367	-367.207407	-367.206463	-367.24963	34.804	
C	 0.1064240075	 1.5593548531	-0.0520098263	-0.486651
C	-0.0038506744	 0.0613675653	 0.0518402108	 0.191487
C	-1.1484125335	-0.6398713569	-0.0037712204	 0.279869
C	-2.5349650739	-0.0650347973	-0.1420766243	-0.501967
C	-1.1085035278	-2.1322868658	 0.0650034649	-0.11639
N	-0.2070895477	-2.849622483	-0.8840852383	-0.341593
C	 0.1121407944	-2.8262073366	 0.5506423787	-0.023884
C	 1.2771190111	-1.9620730254	 0.9707544541	-0.220395
C	 1.3320335344	-0.6506231386	 0.169058051	-0.29052
H	 0.7764016034	 1.8361479795	-0.8770374511	 0.124087
H	-0.846671361	 2.0621607569	-0.2198585759	 0.117601
H	 0.5538037365	 1.9798764272	 0.85859145	 0.119886
H	-2.5586454962	 1.0248045383	-0.1196063011	 0.120568
H	-3.0002947921	-0.3902991767	-1.0821211745	 0.125827
H	-3.1860536142	-0.425380898	 0.6654107435	 0.118733
H	-2.0651206919	-2.6088773029	 0.2676973512	 0.071111
H	-0.6217625441	-3.7453256558	-1.1297608141	 0.225928
H	-0.0272032119	-3.7454512885	 1.1167753814	 0.075898
H	 1.1616767471	-1.7380497176	 2.0393634639	 0.097541
H	 2.222611604	-2.5057660119	 0.8600601385	 0.096861
H	 1.7065183368	-0.8659699197	-0.8391410406	 0.127713
H	 2.0654406438	 0.0216215045	 0.6301405986	 0.08829
124.1691	134.3605	141.7611	159.2656	266.952	329.5865	345.344	367.4588	394.3722	485.9682	513.0637	587.0644	685.1376	693.4432	781.4462	826.9807	864.5327	898.6252	929.8391	955.1232	993.0815	1009.5614	1036.3272	1062.9671	1068.124	1093.5179	1128.187	1154.7907	1175.2277	1199.9779	1213.435	1251.4532	1262.8276	1289.5847	1354.3668	1382.1495	1402.878	1409.0822	1422.0889	1459.9109	1475.0388	1480.0163	1485.2261	1486.7407	1488.7389	1499.9896	1731.9732	3011.1732	3014.1466	3019.774	3027.5898	3051.7092	3053.004	3053.6783	3065.4397	3116.4913	3126.2592	3129.7419	3141.8172	3494.1524
CC1=C(C)C2NC2CC1	CC1=C(C)[C@H]2N[C@H]2CC1	
InChI=1S/C8H13N/c1-5-3-4-7-8(9-7)6(5)2/h7-9H,3-4H2,1-2H3	InChI=1S/C8H13N/c1-5-3-4-7-8(9-7)6(5)2/h7-9H,3-4H2,1-2H3/t7-,8+/m0/s1
