14
gdb 14468	4.04301	2.20555	2.17697	1.9688	54.49	-0.2313	0.0636	0.2949	682.4552	0.108784	-419.64804	-419.642397	-419.641453	-419.677441	23.362	
O	-0.0690820857	 1.3690738502	 0.0744754025	-0.463167
C	 0.0580928	-0.0064653672	 0.0599553799	 0.288371
C	 1.0682012102	-0.8067849364	 0.8785292054	-0.308805
C	 0.510790734	-2.1675507247	 0.4124431797	 0.153097
O	-0.8748051494	-2.0845817811	 0.737226517	-0.246358
C	-1.1696415624	-0.898839313	 0.0234731637	 0.004457
C	-0.2135289667	-0.8955901466	-1.1555877928	-0.041622
O	 0.5555454119	-2.0761058563	-1.0119058414	-0.249023
H	 0.6655800995	 1.7476917082	-0.4219691815	 0.289961
H	 2.1048706554	-0.6580602952	 0.5667920732	 0.107666
H	 0.9604701338	-0.6590357885	 1.9546542407	 0.121036
H	 0.9459980347	-3.0992418287	 0.7623635965	 0.103793
H	-2.1990976603	-0.5740754454	 0.0312486918	 0.122918
H	-0.4246852851	-0.5789394454	-2.1661937446	 0.117676
267.805	321.2675	357.1447	451.4853	557.7567	569.9911	616.3685	709.77	740.1099	822.87	850.5755	884.1633	917.6834	927.1415	983.4247	1001.959	1015.6597	1041.5576	1052.5537	1070.8749	1132.626	1166.6288	1216.2976	1237.0934	1285.4914	1295.4134	1331.6053	1344.6718	1441.6969	1485.5254	3073.5754	3136.4633	3178.8723	3233.775	3244.0828	3786.4674
OC12CC3OC1C2O3	O[C@@]12C[C@H]3O[C@@H]1[C@@H]2O3	
InChI=1S/C5H6O3/c6-5-1-2-7-3(5)4(5)8-2/h2-4,6H,1H2	InChI=1S/C5H6O3/c6-5-1-2-7-3(5)4(5)8-2/h2-4,6H,1H2/t2-,3+,4-,5-
