21
gdb 72101	2.68831	1.67591	1.52309	1.4004	80.17	-0.2382	0.077	0.3152	994.6581	0.186308	-387.109616	-387.102255	-387.101311	-387.14092	30.93	
O	-0.1386803326	 1.3910812427	 0.0594012043	-0.481406
C	-0.0396060817	-0.0009998614	 0.0259131835	 0.407186
C	 0.9950605636	-0.6957254747	 0.8985723499	-0.287191
C	 0.5153376809	-2.165245741	 0.874570499	-0.028781
C	-1.0259337407	-2.0334857787	 0.9572566115	-0.223277
C	-1.2972645967	-0.8321131731	 0.064214116	-0.096278
C	-0.4577354358	-0.7708222008	-1.2054818988	-0.106837
C	 0.3254185752	-1.9929240801	-1.6677652118	-0.227461
C	 0.8995846555	-2.8069007236	-0.471578049	-0.204637
H	 0.5898796934	 1.7535574841	-0.4562661606	 0.277286
H	 2.0237007322	-0.5881116628	 0.5317011216	 0.080244
H	 0.9536392688	-0.2711570749	 1.908582312	 0.099544
H	 0.9291070353	-2.7507939029	 1.6999532024	 0.062652
H	-1.5337897626	-2.9490636807	 0.6320185008	 0.089508
H	-1.3512630176	-1.8226180161	 1.9829454935	 0.095556
H	-2.2677216021	-0.3496650995	 0.0648620339	 0.084002
H	-0.8808555366	-0.1544262972	-1.9938802914	 0.07847
H	-0.3277390242	-2.6263837908	-2.2790554472	 0.100485
H	 1.1362323099	-1.673649404	-2.3329938187	 0.095566
H	 1.9908965856	-2.870606174	-0.5434600641	 0.091681
H	 0.5279364102	-3.8368586205	-0.5002577968	 0.093688
122.2114	235.6572	292.8117	333.5072	354.4546	391.4069	470.9436	483.7548	578.8235	611.7213	682.6713	773.1583	811.5396	815.3185	851.1354	892.0821	913.8175	928.5826	943.1983	997.8886	1003.5451	1044.984	1048.0865	1078.7461	1097.1535	1112.0488	1155.029	1160.8631	1178.8269	1219.4021	1253.2672	1266.3243	1285.4374	1302.3616	1312.4598	1321.4571	1340.3633	1356.9622	1365.3852	1381.3857	1459.5031	1490.1134	1492.7113	1502.7754	1519.126	3020.1246	3022.3657	3026.104	3037.1794	3046.8903	3061.9461	3062.9433	3071.7662	3076.598	3146.564	3179.6876	3794.7308
OC12CC3CC1C2CC3	O[C@@]12C[C@H]3C[C@@H]1[C@@H]2CC3	
InChI=1S/C8H12O/c9-8-4-5-1-2-6(8)7(8)3-5/h5-7,9H,1-4H2	InChI=1S/C8H12O/c9-8-4-5-1-2-6(8)7(8)3-5/h5-7,9H,1-4H2/t5-,6+,7-,8-/m1/s1
