23
gdb 123222	7.51138	0.3937	0.38573	4.3205	85.39	-0.2761	0.0104	0.2865	2803.5423	0.203473	-425.461928	-425.450683	-425.449739	-425.500573	38.21	
C	-0.1408053275	 1.5543271989	 0.2319605439	-0.380145
C	-0.0617904318	 0.0365962249	 0.0472395771	-0.166014
C	-1.4378530682	-0.6356421228	-0.0046878069	-0.159204
C	-1.3664654919	-2.1552743898	-0.189696297	-0.185901
C	-2.7463529111	-2.8202733797	-0.2430061302	-0.190171
C	-2.6564109507	-4.3298885978	-0.4302798066	-0.09086
O	-3.96339723	-4.9059159068	-0.5698324124	-0.173475
C	-4.4651026679	-5.5967082896	 0.4683275604	 0.170681
O	-5.5581556984	-6.0776018844	 0.4616518962	-0.275659
H	 0.8557784971	 2.0052408053	 0.2653276663	 0.113103
H	-0.691848444	 2.0250570868	-0.5897832222	 0.115193
H	-0.6548891745	 1.8135929198	 1.1641861573	 0.114806
H	 0.4875635205	-0.192789967	-0.8755007539	 0.095518
H	 0.5246321921	-0.402702912	 0.8652089245	 0.094864
H	-1.9890144428	-0.4076044843	 0.9181518089	 0.095305
H	-2.0259757588	-0.1980912983	-0.8231542623	 0.096629
H	-0.8156661867	-2.3829999967	-1.1128476132	 0.098747
H	-0.778549498	-2.5929575652	 0.6292677168	 0.096141
H	-3.3020540307	-2.6082316745	 0.6794260981	 0.105212
H	-3.3371378061	-2.401275618	-1.0660803137	 0.117891
H	-2.1133812008	-4.5811823487	-1.3465911681	 0.125156
H	-2.1301041245	-4.8005989363	 0.4111953368	 0.109328
H	-3.7535414453	-5.6740350239	 1.3152274003	 0.072853
31.5546	51.0966	71.1298	94.394	133.3563	143.1325	160.1974	246.9996	253.2928	275.9943	375.7339	435.8444	468.6181	679.177	733.4072	749.5813	801.0729	895.7562	898.9901	999.4693	1007.5165	1039.3998	1043.8577	1048.8398	1060.6903	1072.6797	1136.4251	1145.2053	1214.0455	1253.0192	1257.7099	1297.9831	1325.5682	1327.3531	1333.1094	1339.6023	1382.9583	1402.9357	1410.2761	1414.7148	1434.7409	1483.7149	1485.1154	1491.9016	1500.0082	1500.8674	1510.412	1516.6653	1866.3374	2932.741	3001.883	3006.2564	3016.1697	3016.962	3024.4894	3028.8859	3030.0778	3037.4448	3057.1629	3069.4907	3091.9131	3096.0604	3102.4555
CCCCCCOC=O	CCCCCCOC=O	
InChI=1S/C7H14O2/c1-2-3-4-5-6-9-7-8/h7H,2-6H2,1H3	InChI=1S/C7H14O2/c1-2-3-4-5-6-9-7-8/h7H,2-6H2,1H3
