21
gdb 95009	2.83903	1.6482	1.33369	1.6085	81.33	-0.2528	0.0683	0.3211	1035.1966	0.186008	-387.054507	-387.0472	-387.046256	-387.085888	30.499	
O	 0.139372885	 1.3961175232	-0.2427617966	-0.441454
C	 0.0865898871	-0.0121200264	-0.0063887882	 0.092765
C	 0.811382668	-0.4306762685	 1.2799860875	-0.226424
C	-0.1075491938	-0.2915887218	 2.502652002	-0.265966
C	-1.5264455273	-0.7425884569	 2.160072183	 0.040542
C	-1.7495923745	-1.7074705042	 0.941772799	-0.083159
C	-3.2077761435	-1.180929191	 0.8836864908	-0.236019
C	-2.3227897889	 0.075147447	 1.0964662851	-0.068455
C	-1.3583760945	-0.5085577495	 0.0100420469	 0.008573
H	-0.4279910117	 1.8246641791	 0.4064867918	 0.278789
H	 0.6103220214	-0.4436350225	-0.8666782362	 0.079711
H	 1.1013844093	-1.4835585338	 1.1765253866	 0.097375
H	 1.7326790928	 0.1490460163	 1.3878510047	 0.099586
H	 0.2875228839	-0.8799336475	 3.3380264954	 0.098099
H	-0.136139759	 0.7483594266	 2.8566008191	 0.093443
H	-2.10799818	-0.9977820589	 3.0521662197	 0.059619
H	-1.4216213899	-2.7447084281	 0.8491276311	 0.067902
H	-3.7192687219	-1.2619391655	-0.0793116188	 0.089978
H	-3.8636267861	-1.4603202514	 1.7132151042	 0.088156
H	-2.6669297835	 1.1092560892	 1.1881847662	 0.061249
H	-1.7866519928	-0.5408666055	-0.9965748632	 0.065689
135.8411	190.611	263.0694	304.7068	371.2165	434.2502	443.0605	527.1447	601.2805	711.7587	772.4218	783.3242	818.583	836.3046	877.855	901.8806	905.7306	963.0529	989.7227	1012.5192	1024.591	1048.5141	1058.0991	1065.4167	1094.1977	1116.9617	1130.5881	1150.5802	1165.132	1199.6214	1209.1537	1216.6376	1245.3508	1259.0129	1267.6605	1282.0766	1337.9855	1361.2874	1364.2599	1388.0395	1415.6864	1433.1671	1479.4901	1498.9399	1517.2179	3010.9962	3027.3523	3044.1203	3044.9566	3047.1338	3060.1625	3062.8382	3070.0148	3089.0416	3092.3985	3111.9255	3813.3234
OC1CCC2C3CC2C13	O[C@H]1CC[C@@H]2[C@H]3C[C@@H]2[C@@H]13	
InChI=1S/C8H12O/c9-7-2-1-4-5-3-6(4)8(5)7/h4-9H,1-3H2	InChI=1S/C8H12O/c9-7-2-1-4-5-3-6(4)8(5)7/h4-9H,1-3H2/t4-,5-,6+,7-,8+/m0/s1
