16
gdb 45628	5.07485	0.99978	0.89861	2.7654	71.41	-0.2677	-0.0218	0.2459	1274.1282	0.125049	-437.930054	-437.922384	-437.92144	-437.963282	28.329	
O	-0.0726818428	 0.1154145057	-0.6475424765	-0.309492
C	-0.0760755199	 1.2349436253	-0.2453032238	 0.400301
C	-1.1646922387	 2.0928988705	 0.3896342801	-0.312819
N	-0.5347697061	 3.3764250208	 0.6600826417	-0.319732
C	 0.668590539	 3.2677966977	 0.2591991828	 0.438439
O	 1.0492457634	 2.0542508924	-0.2901903491	-0.235093
C	 1.7268405162	 4.2834069611	 0.3049330876	-0.123267
C	 1.3405554465	 5.7425221264	 0.1213203923	-0.252037
C	 1.747921198	 5.2571753439	 1.4725815433	-0.252018
H	-2.0181419758	 2.1908157004	-0.2908041474	 0.156961
H	-1.5382128928	 1.6191330833	 1.3045069956	 0.156958
H	 2.6749005322	 3.9531224695	-0.09944692	 0.114409
H	 2.0265194287	 6.3636644365	-0.4428834637	 0.125246
H	 0.2879816926	 5.935655528	-0.0481218592	 0.143462
H	 0.9702279877	 5.1228279118	 2.2149201957	 0.143427
H	 2.7208145318	 5.5364398267	 1.8601147606	 0.125255
34.9984	140.522	174.752	200.9562	341.4851	341.5937	518.1782	545.1662	652.794	706.5943	732.1405	796.6105	827.6751	857.9464	883.2725	912.4594	953.556	991.917	1036.2328	1067.7503	1090.7628	1095.345	1127.217	1158.8504	1185.1474	1204.9706	1209.1611	1223.5128	1298.6197	1434.7978	1448.0301	1459.2443	1495.0484	1722.9864	1921.2832	3048.2867	3080.2062	3144.4409	3146.6266	3199.6172	3232.381	3246.9246
O=C1CN=C(O1)C1CC1	O=C1CN=C(O1)C1CC1	
InChI=1S/C6H7NO2/c8-5-3-7-6(9-5)4-1-2-4/h4H,1-3H2	InChI=1S/C6H7NO2/c8-5-3-7-6(9-5)4-1-2-4/h4H,1-3H2
