15
gdb 51101	4.79102	0.8943	0.82429	1.7718	67.19	-0.2547	-0.0458	0.2089	1329.0805	0.109396	-457.741713	-457.733384	-457.73244	-457.776016	29.583	
O	-0.2881102006	 0.1044927866	 0.2768014792	-0.22714
C	-0.0135749074	 1.2630186039	 0.1135967051	 0.158502
C	 1.3964835164	 1.7767974989	-0.1504749425	-0.39513
C	 1.4430308013	 2.7075904836	-1.3242376728	 0.397374
C	 1.303873368	 2.3821221652	-2.8251696989	-0.416071
C	 2.2552962844	 3.5937809764	-3.0725962453	 0.436946
O	 2.8388262226	 4.0061156741	-4.0274031283	-0.289021
C	 2.3072903979	 3.8956877167	-1.5764900172	-0.183229
O	 0.9243241612	 4.0291628348	-1.1752341353	-0.272631
H	-0.789162801	 2.0589259252	 0.1576319039	 0.101617
H	 1.7177964677	 2.3277388913	 0.7432327833	 0.142268
H	 2.0597733464	 0.91949842	-0.2944317502	 0.136164
H	 1.7832403082	 1.4515398679	-3.143811032	 0.141934
H	 0.292171128	 2.441948529	-3.2304390389	 0.142024
H	 3.056591877	 4.3878839264	-0.9673363902	 0.126394
46.6113	64.9706	104.0777	189.3486	287.6706	382.1485	418.2784	455.9497	481.8185	577.6644	644.9278	690.0615	768.466	826.1207	854.5225	941.6884	972.1588	996.4577	1025.8283	1038.0853	1063.1925	1120.2599	1176.3541	1192.7714	1210.8698	1283.7788	1294.7652	1410.1642	1421.6269	1442.7751	1453.8202	1839.5419	1906.8044	2897.3232	3032.9424	3069.1337	3108.4504	3133.4197	3194.5673
O=CCC12CC(=O)C1O2	O=CC[C@]12CC(=O)[C@H]1O2	
InChI=1S/C6H6O3/c7-2-1-6-3-4(8)5(6)9-6/h2,5H,1,3H2	InChI=1S/C6H6O3/c7-2-1-6-3-4(8)5(6)9-6/h2,5H,1,3H2/t5-,6+/m1/s1
