22
gdb 97939	2.74586	0.8426	0.74374	1.6784	91.41	-0.2206	0.0466	0.2672	1659.2834	0.192296	-367.15772	-367.147061	-367.146117	-367.195063	37.91	
C	-0.6047371585	 1.0466011248	-1.6529130079	-0.365515
C	 0.0124745499	 0.0386011585	-0.6665088045	-0.315205
C	 1.1100428976	-0.7359103428	-1.2389313191	 0.05711
C	 2.0258358208	-1.3564358572	-1.7200567175	 0.060815
C	 3.1319407261	-2.1548613553	-2.2591023219	-0.289758
N	 2.8662651945	-3.0694446812	-3.3813037013	-0.091959
C	 1.499102027	-3.3598071304	-3.798454823	-0.250822
C	 2.4083729876	-2.5742795625	-4.6821301284	 0.03947
C	 2.1687674785	-1.1107741502	-4.9809623895	-0.425465
H	 0.146319357	 1.7622652608	-1.9982777059	 0.12844
H	-1.0111226902	 0.5344389958	-2.5295000696	 0.127499
H	-1.4159497546	 1.6023029689	-1.1731824745	 0.115175
H	 0.3761469749	 0.5720824132	 0.221254808	 0.131037
H	-0.76669044	-0.6449445045	-0.3053208595	 0.129353
H	 3.9538058212	-1.493535646	-2.560414111	 0.130727
H	 3.5281434034	-2.7743274162	-1.4439738754	 0.136121
H	 1.2795170396	-4.4052982988	-4.0020717966	 0.107027
H	 0.6964141777	-2.8087278413	-3.3125258848	 0.115946
H	 2.8845984441	-3.1094077187	-5.504215512	 0.085777
H	 1.6363967739	-0.6062653872	-4.1728332459	 0.138932
H	 3.1162324346	-0.5846623591	-5.147037098	 0.117006
H	 1.576785555	-1.0109413408	-5.8973912716	 0.11829
20.2794	58.6508	82.6048	146.6223	187.7257	198.8189	232.2496	286.5525	306.3644	343.7459	410.6965	448.2954	505.4596	571.8786	735.3806	754.0663	776.708	784.7792	906.5726	934.7505	958.0677	994.6585	1040.9535	1073.5787	1079.9865	1103.7298	1123.2352	1138.5625	1160.8564	1167.2082	1193.4105	1281.4211	1286.7882	1327.5638	1350.9682	1364.9404	1403.4965	1409.4477	1422.8642	1469.4239	1474.2044	1493.9952	1495.7888	1501.3353	1505.1906	1509.4056	2350.4912	3016.9163	3019.6312	3031.4557	3043.6518	3046.4488	3047.5606	3085.3649	3092.3007	3095.1533	3116.7981	3122.2276	3138.1731	3178.7975
CCC#CCN1CC1C	CCC#CCN1C[C@H]1C	
InChI=1S/C8H13N/c1-3-4-5-6-9-7-8(9)2/h8H,3,6-7H2,1-2H3	InChI=1S/C8H13N/c1-3-4-5-6-9-7-8(9)2/h8H,3,6-7H2,1-2H3/t8-,9?/m1/s1
