17
gdb 67475	2.60996	1.73525	1.63151	0.3548	66.25	-0.23	0.0742	0.3043	915.2424	0.137474	-458.911994	-458.90484	-458.903896	-458.943289	28.626	
O	-0.0209423325	 1.4067243334	-0.0617038702	-0.465559
C	 0.0158887612	 0.0267423291	-0.0328067256	 0.338046
C	-1.1442836324	-0.9825045716	 0.1173052251	-0.163046
C	-0.6558823785	-1.7446702056	-1.1136579733	-0.275016
C	 0.6477994304	-0.8748304614	-1.1092377004	 0.015023
O	 1.8507442577	-1.4924527296	-0.6627587529	-0.263782
C	 1.6519152041	-2.3335800789	 0.4429195036	 0.02134
O	 0.9580419746	-1.7347456788	 1.5222922222	-0.271655
C	-0.0569711994	-0.8279053452	 1.1747243606	 0.035078
H	 0.7346637932	 1.7427204459	 0.4335225257	 0.292288
H	-2.1800048327	-0.7950945945	 0.3749016418	 0.096234
H	-0.5527527202	-2.8297532534	-1.0486938863	 0.108086
H	-1.2561003885	-1.5067482708	-1.9955748495	 0.11323
H	 0.8801356829	-0.3864327253	-2.0551701112	 0.098367
H	 1.1274318303	-3.2519725565	 0.1384021167	 0.092694
H	 2.6446428616	-2.5923972634	 0.8193673834	 0.118478
H	-0.4103340518	-0.3336345536	 2.0744077203	 0.110194
137.7536	198.9365	278.9992	309.5021	347.2518	415.9001	457.0191	524.4044	553.2382	659.3117	734.0625	769.5278	817.8656	878.279	901.4308	937.3621	963.9085	991.2449	1012.169	1045.6491	1059.0557	1105.2338	1118.3698	1169.4118	1182.665	1200.9668	1225.8633	1243.0921	1286.4196	1290.7404	1325.0457	1346.0828	1367.8565	1445.0172	1475.4496	1506.5974	1535.1832	2981.6032	3065.8101	3095.531	3111.635	3122.8718	3168.8967	3187.5361	3793.5089
OC12C3CC1OCOC23	O[C@@]12[C@H]3C[C@@H]1OCO[C@@H]23	
InChI=1S/C6H8O3/c7-6-3-1-4(6)8-2-9-5(3)6/h3-5,7H,1-2H2	InChI=1S/C6H8O3/c7-6-3-1-4(6)8-2-9-5(3)6/h3-5,7H,1-2H2/t3-,4-,5+,6-/m0/s1
