16
gdb 44660	3.09078	1.84321	1.61529	3.1063	73.18	-0.2379	-0.011	0.2269	872.8523	0.127761	-400.755475	-400.749329	-400.748384	-400.785859	25.716	
N	-0.0706739691	 1.2780459052	-0.3494917415	-0.551997
C	-0.0229005393	 0.0628333513	-0.007404764	 0.417672
O	 1.1302631203	-0.6347277831	 0.255677442	-0.250262
C	 0.7852618516	-1.9181827825	 0.856183058	 0.003673
C	 0.6201799009	-1.6446319775	 2.3420357372	-0.085027
C	-0.6596007265	-1.3720841295	 2.6067131521	-0.07557
C	-1.5156376613	-1.6064568589	 1.4067093344	-0.083973
C	-0.6441028426	-2.2296819901	 0.3594973871	-0.094855
C	-1.1905603487	-0.8609181986	 0.0833167669	-0.137504
H	 0.8697841303	 1.6751353539	-0.3826549302	 0.221348
H	 1.5625850787	-2.6235228239	 0.5649066059	 0.092824
H	 1.4640869762	-1.4964425861	 3.0033553404	 0.111339
H	-1.0513166121	-1.0003814148	 3.5457952811	 0.110059
H	-2.5528956014	-1.8985429513	 1.5209500451	 0.100053
H	-0.8860158778	-3.1205179054	-0.2045211014	 0.102728
H	-2.0163628392	-0.6762541384	-0.5909448933	 0.119491
127.7319	266.8731	386.4051	427.242	535.3243	630.2612	648.8205	698.7544	758.3245	767.3641	803.3376	823.0171	826.3126	885.5321	891.507	930.2528	945.9134	957.9981	975.173	983.0434	1016.1758	1037.2451	1081.0222	1092.7355	1128.8935	1133.9191	1258.3735	1280.9461	1285.3374	1324.8502	1359.9415	1368.3065	1388.9176	1658.6858	1770.9681	3124.8792	3182.4276	3199.8472	3203.1057	3211.4414	3229.0779	3474.101
N=C1OC2C=CC3C2C13	[NH][C]1O[C@H]2C=C[C@@H]3[C@H]2[C@H]13	
InChI=1S/C7H7NO/c8-7-6-3-1-2-4(9-7)5(3)6/h1-6,8H	InChI=1S/C7H7NO/c8-7-6-3-1-2-4(9-7)5(3)6/h1-6,8H/t3-,4+,5-,6-/m1/s1
