17
gdb 19937	3.73791	2.39571	1.95573	0.9464	66.7	-0.2092	0.0882	0.2974	743.1392	0.145003	-363.826075	-363.820032	-363.819087	-363.856019	24.462	
C	-0.103274358	 1.3847332017	-0.5279379842	-0.244496
C	 1.1277249903	 1.7204950916	 0.3514689217	-0.159992
N	 1.3341888038	 0.2718431353	 0.6212009756	-0.088587
C	 1.3942208509	-0.1929184537	 2.010554124	-0.212216
C	-0.0393272638	-0.5177417015	 2.4007248515	 0.046276
O	-0.9340981861	 0.5846553232	 2.2063422089	-0.253982
C	-0.8808998508	-0.433699768	 1.1956252665	 0.020352
C	 0.0062797653	-0.0605890266	 0.0258268078	-0.00693
H	-1.0238692013	 1.9143519178	-0.2823420167	 0.115079
H	 0.0822276016	 1.4534835984	-1.6008588093	 0.106849
H	 1.9769987911	 2.1917032606	-0.1555687979	 0.094554
H	 0.8729060059	 2.3025426981	 1.2438848985	 0.107099
H	 2.0129924125	-1.0969135293	 2.1015897215	 0.102385
H	 1.8368091462	 0.57735383	 2.6522010187	 0.113462
H	-0.2660914089	-1.1701347975	 3.2413304139	 0.094869
H	-1.790434241	-1.0147615295	 1.0621837259	 0.093977
H	 0.0222744024	-0.8737775706	-0.7109809264	 0.071301
158.0633	214.2633	345.6335	392.3142	478.131	654.7848	698.9881	719.7177	781.8149	834.2284	852.861	876.8972	915.103	934.7552	958.095	984.3579	1004.9425	1056.1841	1074.0013	1094.7182	1112.0442	1141.5977	1192.2783	1216.0482	1241.9163	1249.9096	1261.8511	1269.0845	1315.5067	1323.5913	1333.9941	1353.0018	1426.3224	1479.7156	1488.579	1515.123	3004.5691	3019.7481	3026.615	3065.7175	3070.2603	3085.91	3134.7176	3142.813	3148.0817
C1CN2CC3OC3C12	C1CN2C[C@H]3O[C@H]3[C@@H]12	
InChI=1S/C6H9NO/c1-2-7-3-5-6(8-5)4(1)7/h4-6H,1-3H2	InChI=1S/C6H9NO/c1-2-7-3-5-6(8-5)4(1)7/h4-6H,1-3H2/t4-,5-,6+/m1/s1
