17
gdb 29537	3.03206	1.56854	1.0559	2.4162	75.48	-0.1756	0.0499	0.2255	1093.9144	0.139279	-418.021303	-418.013549	-418.012605	-418.053242	30.242	
O	 0.1561416261	 1.3794398925	-0.0514839272	-0.456166
C	 0.0750257999	 0.015242463	-0.0047981633	 0.180513
C	 0.0291279221	-0.8144753751	-1.1097223384	-0.167663
N	-0.018339809	-2.1295715564	-0.6628340795	-0.390618
C	-0.023032671	-2.1263824041	 0.7016348831	 0.302389
C	 0.0528185215	-0.8303904714	 1.1337231807	 0.149376
N	 0.0537693532	-0.6975519471	 2.5552025844	-0.429522
C	-0.2850769885	-2.0806235479	 3.0137688382	-0.156251
C	-0.0022539087	-3.0924000266	 1.8438703519	-0.3555
H	-0.0986963571	 1.7134697424	 0.8146581267	 0.298374
H	 0.0116706269	-0.572042416	-2.1586500376	 0.116643
H	-0.1326787451	-2.9272201583	-1.2613766636	 0.25701
H	 0.9821462878	-0.4480779834	 2.8895910842	 0.22239
H	 0.2590614184	-2.3230739099	 3.9297464807	 0.101394
H	-1.3558489492	-2.1039058295	 3.2424769137	 0.117446
H	-0.7731721706	-3.8697468917	 1.8141535935	 0.107056
H	 0.9672112734	-3.6021075506	 1.9508889929	 0.10313
139.584	177.3667	232.0151	260.6199	293.7455	316.8658	397.8655	513.3603	603.5017	606.0558	616.1444	650.0298	694.4796	744.4057	796.8435	816.2071	910.1079	939.3422	979.1699	1042.8682	1074.0621	1106.1367	1155.8647	1180.4789	1228.3744	1240.0605	1285.6543	1325.4859	1349.5384	1375.3345	1409.5845	1474.6586	1488.015	1504.9961	1534.93	1576.0127	1654.6588	2985.1573	3041.6331	3061.1883	3104.655	3276.7502	3456.307	3693.0789	3823.1616
OC1=CNC2=C1NCC2	Oc1c[nH]c2c1NCC2	
InChI=1S/C6H8N2O/c9-5-3-8-4-1-2-7-6(4)5/h3,7-9H,1-2H2	InChI=1S/C6H8N2O/c9-5-3-8-4-1-2-7-6(4)5/h3,7-9H,1-2H2
