23
gdb 120930	3.17935	0.89528	0.80903	1.7964	86.15	-0.2423	0.088	0.3302	1563.7973	0.204162	-388.269999	-388.260139	-388.259195	-388.304948	36.887	
C	-0.0133113709	 1.590137459	 0.008840509	-0.378824
C	-0.1119555477	 0.064696603	-0.0790786339	-0.165158
C	 0.8324042288	-0.5370667093	-1.126695871	-0.185638
C	 0.7379399871	-2.0546088055	-1.2354245636	-0.053331
C	-0.5679302237	-2.6965351276	-1.8419674193	-0.265009
C	 0.3080517856	-3.3331668885	-2.9253296197	-0.040814
O	 0.9757898027	-2.2593306622	-3.6068660696	-0.290747
C	 1.537189789	-2.7373989158	-2.372127918	 0.405489
C	 2.9668829871	-3.1714344124	-2.3708657774	-0.50594
H	 1.0007404687	 1.9065384062	 0.2779065723	 0.112209
H	-0.259426446	 2.0574286029	-0.9511150997	 0.115664
H	-0.6983383579	 1.9935494198	 0.7612805066	 0.109243
H	 0.1073140597	-0.3744165531	 0.9035988605	 0.089965
H	-1.1454137447	-0.2216181234	-0.3136900478	 0.097985
H	 0.6206761489	-0.1041323796	-2.1117256047	 0.10923
H	 1.8666086603	-0.2566567714	-0.8804037585	 0.08711
H	 0.9721479285	-2.5245275925	-0.2728853505	 0.067785
H	-1.0392611764	-3.4199871846	-1.1725585346	 0.101711
H	-1.3237606223	-2.0018501862	-2.2184126516	 0.106255
H	 0.1543770618	-4.2490393431	-3.4858910318	 0.097192
H	 3.6387409706	-2.305385441	-2.3664799176	 0.130331
H	 3.1900602475	-3.7729276391	-1.4834738789	 0.122055
H	 3.1866636234	-3.7649855458	-3.26237599	 0.133241
77.6014	91.9675	114.3566	170.251	198.7063	248.0927	250.4971	304.6518	319.1381	412.3262	473.3129	560.0623	641.3974	723.7632	747.1598	827.51	842.9212	872.4689	893.9035	914.0864	925.8519	964.9999	1002.9904	1038.8779	1046.0836	1081.8098	1093.9024	1120.1823	1134.9123	1190.7062	1203.6956	1217.501	1257.1308	1266.2721	1278.7119	1305.5682	1329.1903	1367.682	1392.4567	1404.9089	1412.7475	1456.8954	1476.7214	1485.0779	1486.9753	1494.664	1497.1858	1500.0459	1510.9691	3005.1856	3014.3118	3028.783	3031.7082	3036.0631	3041.7046	3060.7459	3068.279	3093.1861	3095.8686	3100.4262	3117.0994	3118.7189	3175.8591
CCCC1CC2OC12C	CCC[C@H]1C[C@H]2O[C@@]12C	
InChI=1S/C8H14O/c1-3-4-6-5-7-8(6,2)9-7/h6-7H,3-5H2,1-2H3	InChI=1S/C8H14O/c1-3-4-6-5-7-8(6,2)9-7/h6-7H,3-5H2,1-2H3/t6-,7+,8-/m0/s1
