17
gdb 92527	2.94488	1.51398	1.13497	3.3999	67.39	-0.2461	-0.0424	0.2037	1060.828	0.136556	-458.957979	-458.950268	-458.949324	-458.990677	29.159	
O	 0.3706291517	 1.1812814108	 0.6044743571	-0.439134
C	 0.06554869	-0.0891695253	 0.1141024276	 0.06798
C	-1.4330818097	-0.4465911714	 0.0584864085	-0.276871
C	-1.5172493437	-1.6004212012	-0.976079256	-0.086067
C	-2.3376232767	-1.3313753704	-2.2555116064	-0.077807
O	-1.1416495475	-1.0327447967	-3.0180805832	-0.283607
C	-0.2988528742	-1.435198016	-1.9197254606	 0.022234
C	 0.5095652901	-0.276220018	-1.3346451896	 0.345603
O	 1.2815897626	 0.460254874	-1.893671253	-0.317485
H	 0.9728932914	 1.5754170972	-0.0461247739	 0.293644
H	 0.5846946188	-0.8722952128	 0.7014548108	 0.095016
H	-1.8291865809	-0.7231804259	 1.0369672111	 0.118098
H	-1.9849342236	 0.4339750226	-0.2873432237	 0.123129
H	-1.661750979	-2.5769465619	-0.514718263	 0.089263
H	-2.8571179819	-2.207346181	-2.6620005553	 0.109177
H	-3.0285996848	-0.4814446297	-2.2246090822	 0.113648
H	 0.3219823576	-2.3058716742	-2.1622436283	 0.103181
68.3029	101.7287	213.1893	281.1884	335.4492	389.3585	404.9452	480.964	562.7295	617.161	663.5448	790.3876	844.4207	867.067	893.5436	955.7109	974.1904	991.7541	1020.1977	1072.9791	1088.9559	1106.5266	1151.5699	1169.6183	1187.2316	1222.4226	1244.5038	1257.0952	1295.628	1312.0775	1333.5507	1353.2276	1374.5503	1421.3251	1498.1296	1522.7053	1846.4355	2912.7053	3021.7024	3037.9812	3056.345	3071.347	3106.8286	3123.4844	3696.385
OC1CC2COC2C1=O	O[C@H]1C[C@H]2CO[C@H]2C1=O	
InChI=1S/C6H8O3/c7-4-1-3-2-9-6(3)5(4)8/h3-4,6-7H,1-2H2	InChI=1S/C6H8O3/c7-4-1-3-2-9-6(3)5(4)8/h3-4,6-7H,1-2H2/t3-,4-,6+/m0/s1
