19
gdb 111812	2.95872	1.37091	1.31105	2.1684	70.	-0.2413	0.0682	0.3094	1057.5545	0.161257	-460.14967	-460.141912	-460.140968	-460.18216	30.103	
O	-0.0549968797	 1.3570725715	-0.2978039533	-0.425165
C	 0.0011463013	 0.006758139	 0.1489440445	-0.12397
C	-1.3981301325	-0.5721380231	 0.0318697737	 0.004667
C	-2.0665488532	-0.5487378863	-1.3587785589	 0.07874
C	-1.1669845679	-1.5049576257	-2.1494787137	-0.096121
O	-0.802160474	-2.494421738	-1.1590581465	-0.286278
C	-1.4915664499	-2.1094019468	 0.0417107055	 0.047511
C	-2.9931424458	-2.3015238453	-0.2032104464	-0.087555
O	-3.308245821	-1.2296964455	-1.1177955938	-0.286461
H	 0.8262254305	 1.7351680839	-0.2244353862	 0.288894
H	 0.7093015383	-0.5857300099	-0.4457175597	 0.108347
H	 0.328213891	-0.0498629423	 1.1993401176	 0.088396
H	-2.063248608	-0.1081698361	 0.7649248657	 0.089866
H	-2.2681470777	 0.4173263734	-1.8154511601	 0.097277
H	-1.7176978576	-1.9771302645	-2.9693884625	 0.110002
H	-0.2638402204	-1.0269336573	-2.5478994013	 0.103541
H	-1.0679372156	-2.6604539656	 0.8814500093	 0.081586
H	-3.1968932218	-3.2715833823	-0.6694056631	 0.108269
H	-3.5967721162	-2.2034737392	 0.7083963992	 0.098454
66.6008	170.1489	228.211	245.9354	284.8795	356.672	420.7284	459.854	552.3373	646.9495	773.929	796.4945	857.3375	864.5823	906.8793	931.5989	941.5093	999.1078	1005.3922	1038.7244	1060.3671	1067.0505	1080.3953	1090.2093	1128.9985	1180.2096	1189.8072	1213.0593	1238.168	1251.0806	1276.7973	1287.6736	1306.0139	1319.4683	1364.4314	1372.6661	1397.6607	1460.5452	1512.2265	1515.6674	1533.9813	2975.5615	3016.2205	3024.0648	3029.6928	3069.2524	3077.8922	3085.4517	3124.6664	3157.9302	3828.3957
OCC1C2COC1CO2	OC[C@H]1[C@H]2CO[C@@H]1CO2	
InChI=1S/C6H10O3/c7-1-4-5-2-8-6(4)3-9-5/h4-7H,1-3H2	InChI=1S/C6H10O3/c7-1-4-5-2-8-6(4)3-9-5/h4-7H,1-3H2/t5-,6-/m1/s1
