16
gdb 33339	5.34279	0.74782	0.71432	2.7658	92.67	-0.2309	-0.0095	0.2214	1565.3595	0.123795	-363.506968	-363.498766	-363.497822	-363.540227	31.084	
C	 0.0258656907	-3.8284814505	-0.1115757571	-0.572845
C	 0.0297964796	-2.6215295048	-0.0616904358	 0.306097
C	 0.0314377928	-1.2625202856	-0.0082602473	-0.321087
C	 0.0371710735	-0.052598655	 0.0437566857	 0.505656
C	 0.0291930295	 1.3921393211	 0.0906626983	-0.235718
C	-0.2200590283	 2.1242609975	 1.4762386201	-0.234185
C	 1.1112281791	 2.8538596313	 1.2787088709	-0.041896
N	 2.1449838978	 1.794044948	 1.2148487042	-0.317893
C	 1.3781455761	 2.1416571084	 0.0015552146	-0.052742
H	 0.0247106403	-4.8891391693	-0.1518442177	 0.187203
H	-0.6670471181	 1.786359514	-0.6566223063	 0.11107
H	-1.097840108	 2.7712114801	 1.4371489992	 0.110544
H	-0.2660783015	 1.475319865	 2.3519407165	 0.123467
H	 1.3639584391	 3.863322881	 1.5768631663	 0.099387
H	 3.0512845364	 2.2542098214	 1.1342837781	 0.232441
H	 1.8743122409	 2.4637176374	-0.9053385295	 0.100501
70.9214	87.2652	174.2845	230.4143	312.6838	411.3701	442.6842	509.337	518.0143	549.6179	584.4393	602.5596	676.2498	747.6894	812.017	833.3047	901.4555	913.8898	961.3278	971.0224	988.4825	1044.6985	1096.6143	1117.2971	1154.0043	1185.982	1204.021	1243.5805	1276.3237	1317.2065	1353.6286	1381.2131	1474.0725	2179.8704	2357.4964	3054.47	3081.0401	3143.9945	3188.6208	3202.5	3477.5521	3506.3854
C#CC#CC1CC2NC12	C#CC#C[C@H]1C[C@H]2N[C@@H]12	
InChI=1S/C8H7N/c1-2-3-4-6-5-7-8(6)9-7/h1,6-9H,5H2	InChI=1S/C8H7N/c1-2-3-4-6-5-7-8(6)9-7/h1,6-9H,5H2/t6-,7+,8-/m0/s1
