21
gdb 56844	2.80513	1.18999	1.00066	0.8719	87.95	-0.2457	0.0581	0.3038	1281.8813	0.181785	-349.891975	-349.882855	-349.88191	-349.926023	35.134	
C	 0.0643700005	 1.3417577705	-0.2352951681	-0.390486
C	 0.1086172025	-0.1588102266	 0.1206612651	-0.194981
C	 0.7471250841	-0.3752787677	 1.4195234744	 0.343701
C	 1.2543039422	-0.5406185118	 2.4972470548	-0.481045
C	-1.2956077123	-0.7619408904	 0.1050663225	 0.027187
C	-2.037725272	-1.187706617	-1.1335837428	-0.088929
C	-1.1127811632	-1.865520696	-2.1544642588	-0.231765
C	-0.6926676694	-2.9064502579	-1.0665027508	-0.231909
C	-1.6264757824	-2.2161450668	-0.0631050027	-0.071728
H	 1.0692841494	 1.7718557666	-0.2475020018	 0.122066
H	-0.3893605557	 1.4791968729	-1.221293263	 0.118456
H	-0.5312914919	 1.8943480526	 0.4976994264	 0.123437
H	 0.7202710289	-0.6620416492	-0.6375621882	 0.105383
H	 1.7102312242	-0.6945808202	 3.4435510193	 0.19137
H	-1.950544061	-0.279198752	 0.8285237361	 0.090024
H	-3.0228207918	-0.7958039913	-1.3593840875	 0.081562
H	-1.6671646821	-2.332262814	-2.971328313	 0.102928
H	-0.3230471983	-1.2454599344	-2.5922930685	 0.09571
H	-1.0237485904	-3.9155438688	-1.3200356815	 0.10289
H	 0.366491056	-2.9526908206	-0.7935976493	 0.103041
H	-2.2480940672	-2.7337070577	 0.6579905478	 0.083089
46.5347	122.4264	163.2475	202.0639	224.6144	267.3251	287.7955	430.4222	487.9767	507.7914	565.5959	622.5799	627.6569	740.1172	767.0087	788.5637	803.4508	849.1808	906.7266	946.1809	954.3266	962.715	1017.5389	1021.381	1042.967	1073.6564	1085.1834	1117.4523	1128.1046	1144.5077	1215.4638	1223.0232	1244.601	1264.0969	1296.6485	1305.4464	1324.2967	1355.0097	1403.0455	1446.2892	1484.4142	1491.3723	1498.3115	1506.5193	2232.4119	3036.6339	3040.3503	3042.4875	3052.3891	3095.4695	3113.5964	3114.544	3120.3361	3125.3001	3169.4597	3182.1933	3505.4192
CC(C#C)C1C2CCC12	C[C@@H](C#C)[C@H]1[C@H]2CC[C@@H]12	
InChI=1S/C9H12/c1-3-6(2)9-7-4-5-8(7)9/h1,6-9H,4-5H2,2H3	InChI=1S/C9H12/c1-3-6(2)9-7-4-5-8(7)9/h1,6-9H,4-5H2,2H3/t6-,7-,8+,9-/m0/s1
