19
gdb 108852	2.31297	1.38278	0.91578	0.6827	80.61	-0.2255	-0.0496	0.1759	1303.4025	0.158951	-419.255758	-419.246162	-419.245218	-419.29104	34.133	
C	-0.0079369927	 1.4306266461	 0.1076665766	-0.31833
N	-0.0419392022	-0.0014440211	-0.0920236379	-0.354284
C	 0.6056770354	-0.6157353895	-1.103490054	 0.293751
N	 1.2368543295	-0.0563584864	-2.0745650984	-0.312301
C	 1.756522285	-1.0919057263	-2.9900775638	 0.048689
C	 3.2528552924	-0.8817460618	-3.2255163192	-0.381618
C	 1.4051024594	-2.4730537253	-2.3829539765	-0.370124
C	 0.602698539	-2.1207917758	-1.1434471451	 0.349204
O	 0.0745813894	-2.84032341	-0.3303494726	-0.330253
H	 0.9759518051	 1.7806640974	 0.4477549874	 0.12913
H	-0.2332869492	 1.9387088454	-0.8341785697	 0.151141
H	-0.7579934451	 1.7092804728	 0.850682954	 0.126033
H	-0.3839637964	-0.6109620271	 0.634037757	 0.258738
H	 1.2411026378	-0.966331313	-3.9516817684	 0.085278
H	 3.811597582	-1.0121150691	-2.2921338181	 0.112724
H	 3.6378973806	-1.5957527918	-3.960951174	 0.110064
H	 3.4384884345	 0.1316067862	-3.5910988267	 0.127493
H	 0.8188132639	-3.1165559006	-3.0453207311	 0.13699
H	 2.2933647318	-3.0422491098	-2.0881260194	 0.137676
57.5253	70.073	95.0152	154.3981	169.2188	250.2047	312.1702	355.6058	398.6452	442.4473	473.0333	581.9992	601.7624	658.3887	702.0293	780.1416	866.6776	906.9967	954.6266	1022.1634	1055.2594	1083.3779	1132.8998	1157.2896	1165.9284	1195.1316	1200.3785	1254.384	1316.4276	1327.0421	1359.4312	1403.5939	1442.6936	1456.2642	1480.5638	1487.2031	1497.4357	1512.2549	1561.7097	1711.5906	1828.0484	3008.4158	3014.941	3032.4533	3056.4514	3086.7973	3099.4232	3102.1754	3120.1817	3133.0423	3635.4085
CNC1=NC(C)CC1=O	CNC1=N[C@@H](C)CC1=O	
InChI=1S/C6H10N2O/c1-4-3-5(9)6(7-2)8-4/h4H,3H2,1-2H3,(H,7,8)	InChI=1S/C6H10N2O/c1-4-3-5(9)6(7-2)8-4/h4H,3H2,1-2H3,(H,7,8)/t4-/m0/s1
