18
gdb 12930	3.50968	1.73574	1.42976	1.5508	68.42	-0.2232	0.0697	0.2929	947.1302	0.152244	-384.881235	-384.87296	-384.872016	-384.913872	30.093	
C	 0.2752819287	 0.9481817218	 0.4447042112	-0.234949
O	-0.4381876302	 0.0819653122	-0.4211185841	-0.238636
C	 0.3697318771	-0.5282978812	-1.3690858136	 0.054108
C	 1.4004352052	-1.5640981204	-1.0089875003	 0.00074
O	 1.0226167717	-2.2654637967	 0.1719600179	-0.288635
C	-0.1871070196	-2.7381515312	-0.479211858	-0.117851
C	 0.1264248849	-1.9605788422	-1.7607795842	 0.196618
C	-0.1517540644	-2.4378161606	-3.1560700976	-0.499504
H	 1.0387842273	 0.3999077997	 1.0102485636	 0.128468
H	 0.7580943102	 1.7672305145	-0.1091505764	 0.101384
H	-0.4528978295	 1.3744873683	 1.1386854049	 0.12549
H	 0.6652542243	 0.1124735318	-2.2051734296	 0.08166
H	 2.4522673024	-1.5441018651	-1.276011127	 0.09927
H	-0.1443184517	-3.8247928036	-0.6166633137	 0.10228
H	-1.0914833562	-2.4559914876	 0.0679981413	 0.117222
H	-1.2248278334	-2.3997293758	-3.3794213039	 0.127917
H	 0.3591838424	-1.8143417414	-3.8962594769	 0.122596
H	 0.183901891	-3.4708688125	-3.2996339636	 0.121822
81.4852	167.192	173.0887	189.5888	240.3224	262.6479	300.3529	358.1626	499.3434	620.7031	663.0532	791.2052	832.3174	912.6418	952.8318	956.9954	993.133	1008.4118	1025.2202	1064.8311	1092.4403	1134.0861	1159.5327	1171.8196	1185.3581	1238.4071	1246.8501	1281.7829	1299.4549	1350.5992	1417.7226	1455.22	1486.5187	1487.7949	1489.8044	1498.3586	1501.6315	1509.1572	2989.7186	3022.8914	3031.5721	3058.1804	3063.9386	3082.7872	3092.7921	3101.7822	3120.2932	3163.4502
COC1C2OCC12C	CO[C@H]1[C@H]2OC[C@@]12C	
InChI=1S/C6H10O2/c1-6-3-8-5(6)4(6)7-2/h4-5H,3H2,1-2H3	InChI=1S/C6H10O2/c1-6-3-8-5(6)4(6)7-2/h4-5H,3H2,1-2H3/t4-,5+,6-/m0/s1
