16
gdb 96743	3.29734	0.83612	0.67283	2.5437	81.95	-0.2474	-0.0421	0.2053	1595.857	0.121606	-396.900161	-396.88998	-396.889036	-396.936222	34.92	
C	 0.0565226151	 1.4629482161	-0.0745756325	-0.342812
N	 0.0487193419	 0.0166102216	-0.0684930138	-0.299042
C	-1.0421026789	-0.6362196882	 0.0138912933	 0.333553
N	-1.0768816392	-2.00615736	-0.0530402936	-0.357153
C	 0.1761726329	-2.7537764613	-0.0379206896	-0.276946
C	-0.0806302992	-4.1871414052	-0.0526693855	 0.254115
C	-0.3036757657	-5.3670578562	-0.0519670661	-0.402126
C	-2.3639050071	-0.032773851	 0.1527666873	 0.232544
N	-3.4004729152	 0.4640411292	 0.2769442635	-0.329145
H	 0.7025891556	 1.8208556523	 0.7350058714	 0.134992
H	 0.5001134789	 1.8178578465	-1.0122517763	 0.135329
H	-0.9330558521	 1.9267518949	 0.0378891488	 0.130341
H	-1.897678299	-2.4763172677	 0.2928191051	 0.268248
H	 0.7695990812	-2.4565633139	-0.9103590485	 0.161736
H	 0.7805555227	-2.480154164	 0.8395387764	 0.149176
H	-0.4878950618	-6.413184613	-0.0567965599	 0.207189
37.0302	91.9034	124.2009	135.4825	162.174	211.4645	238.0873	320.7597	332.4718	352.8138	385.2001	474.3563	536.8834	622.2346	655.9319	683.3795	718.0603	824.3936	964.9283	1000.1406	1082.8197	1122.8352	1133.9693	1164.2434	1239.6148	1280.8565	1372.4014	1448.7389	1483.2436	1495.7465	1501.8834	1510.7848	1716.782	2249.425	2345.5549	3001.5299	3001.9187	3053.7868	3071.1636	3077.8209	3504.3028	3647.6738
CN=C(NCC#C)C#N	CN=C(NCC#C)C#N	
InChI=1S/C6H7N3/c1-3-4-9-6(5-7)8-2/h1H,4H2,2H3,(H,8,9)	InChI=1S/C6H7N3/c1-3-4-9-6(5-7)8-2/h1H,4H2,2H3,(H,8,9)
