17
gdb 51911	4.62251	0.66664	0.59968	4.2963	74.5	-0.264	-0.0225	0.2415	1775.0126	0.134828	-455.124753	-455.115638	-455.114694	-455.159789	31.554	
O	-0.228475207	 0.3304490243	 0.2103079693	-0.253691
C	 0.230927579	 1.377113139	 0.5398779095	 0.177891
O	 0.8285175669	 2.2163304355	-0.3520587609	-0.157753
C	 1.330767343	 3.4041018069	 0.1212324852	 0.128005
N	 1.8715310527	 4.190663523	-0.689509106	-0.222109
C	 2.4157454177	 5.4594402271	-0.2218454129	-0.164385
C	 2.4263906603	 5.710100438	 1.2693313112	-0.00181
C	 2.2229795621	 7.0747580143	 1.8094322289	-0.249737
N	 1.1778750951	 6.0497152019	 1.9826969853	-0.318504
H	 0.2253219824	 1.7753535138	 1.5703887129	 0.101976
H	 1.1928808677	 3.5516463422	 1.1969612072	 0.133119
H	 3.4395289264	 5.5279409166	-0.6120038247	 0.130088
H	 1.854296402	 6.2573701214	-0.7277744051	 0.116188
H	 3.065218029	 5.0363444366	 1.8387641109	 0.101534
H	 2.7248026694	 7.376805295	 2.7237164953	 0.12697
H	 2.0463033096	 7.8819893949	 1.1029606803	 0.118509
H	 0.4346216739	 6.2130913495	 1.3058299936	 0.233709
67.4093	93.9902	104.3165	132.046	195.1658	218.5988	314.2144	323.9836	382.0437	476.6813	558.1419	736.6103	795.7375	834.0753	928.1085	930.6402	972.3439	1012.1569	1028.3614	1039.4893	1059.0297	1128.7726	1159.8055	1165.0293	1180.0449	1202.4383	1257.8063	1282.1137	1315.4512	1351.3474	1397.738	1427.4878	1450.0581	1470.694	1512.127	1765.7595	1892.2417	2980.0544	3013.4784	3045.0426	3075.5022	3110.5036	3117.9829	3197.0323	3480.8283
O=COC=NCC1CN1	O=COC=NC[C@H]1CN1	
InChI=1S/C5H8N2O2/c8-4-9-3-6-1-5-2-7-5/h3-5,7H,1-2H2	InChI=1S/C5H8N2O2/c8-4-9-3-6-1-5-2-7-5/h3-5,7H,1-2H2/t5-/m0/s1
