21
gdb 110911	2.23836	1.38619	1.06388	2.5439	82.55	-0.24	-0.0197	0.2204	1237.0484	0.181616	-387.070627	-387.061481	-387.060537	-387.105019	33.963	
C	 0.1273357419	 1.5101972733	-0.0046148931	-0.38239
C	-0.2005595131	 0.0140048658	-0.0785537544	-0.200466
C	 0.5297251357	-0.668205872	-1.2195673674	 0.026321
C	 1.9235660893	-1.2330494546	-1.1668952975	-0.070975
C	 2.1971047734	-1.9615164201	 0.1586690114	-0.274367
C	 1.0038963997	-2.9327526524	-0.1718039202	-0.085533
C	-0.0780620632	-3.1674498746	 0.8486786782	 0.142373
O	-1.2556441482	-2.9814587915	 0.6725364133	-0.24607
C	 0.7148568045	-2.1444916229	-1.4506148817	-0.10351
H	 1.1990042827	 1.6733793851	 0.1531175943	 0.114995
H	-0.1500292005	 2.0224210594	-0.9328288047	 0.112727
H	-0.4116194747	 1.9942771938	 0.8155828966	 0.111724
H	 0.0422709912	-0.4545382771	 0.8799098245	 0.093892
H	-1.2791903736	-0.129313516	-0.2093969621	 0.114149
H	 0.3550470089	-0.164923169	-2.1710851572	 0.084237
H	 2.7027633822	-0.9155237298	-1.8492691158	 0.086432
H	 3.1575397052	-2.4787611906	 0.1783464917	 0.109716
H	 2.1091093094	-1.3630429101	 1.0708705122	 0.105532
H	 1.4217239103	-3.9220254087	-0.4011173575	 0.103478
H	 0.2976682297	-3.5630675492	 1.8236125534	 0.069466
H	 0.4176363595	-2.6035456189	-2.385647514	 0.088272
67.3684	89.7395	118.5673	161.6762	217.3559	250.4097	287.2547	356.7152	449.1964	514.1154	662.6962	710.3702	729.2621	783.1876	800.7006	832.9523	891.5083	909.1974	954.4495	987.8883	1003.5379	1008.2628	1036.2358	1058.6915	1071.7285	1087.1589	1108.1849	1135.3171	1163.3137	1217.7864	1222.7393	1257.8296	1289.9936	1296.6142	1328.7832	1348.4258	1361.9429	1410.2016	1421.6958	1456.9922	1475.0168	1499.0884	1502.0239	1508.7757	1824.5507	2837.143	3023.8527	3029.7297	3044.9949	3053.4103	3072.9524	3097.4858	3104.288	3108.6561	3115.731	3175.6906	3186.7133
CCC1C2CC(C=O)C12	CC[C@H]1[C@H]2C[C@@H](C=O)[C@@H]12	
InChI=1S/C8H12O/c1-2-6-7-3-5(4-9)8(6)7/h4-8H,2-3H2,1H3	InChI=1S/C8H12O/c1-2-6-7-3-5(4-9)8(6)7/h4-8H,2-3H2,1H3/t5-,6-,7+,8-/m0/s1
