21
gdb 91947	2.33003	1.70951	1.3559	0.7548	81.61	-0.228	0.0713	0.2993	1061.2447	0.185042	-383.232036	-383.224014	-383.22307	-383.264149	32.496	
C	-0.2755152458	 1.5350313087	 0.0204615586	-0.392536
C	 0.0167475398	 0.0278593061	-0.0069681336	-0.08901
C	 0.9324542444	-0.3823884281	-1.2027278319	-0.22668
C	 2.3266043477	-0.5299742442	-0.6173625738	-0.029178
N	 2.7506097519	 0.6355851961	 0.1908184586	-0.347824
C	 2.2277454989	-0.5791164683	 0.8606464961	-0.099429
C	 0.7781055843	-0.4724542153	 1.2378778289	 0.37988
C	 0.3018668534	-0.2491491994	 2.6212674935	-0.294135
N	 0.2855767883	-1.60867667	 2.0432599392	-0.372217
H	 0.6546271993	 2.1027575206	 0.0871754417	 0.149864
H	-0.8038828388	 1.8376837863	-0.8905130658	 0.10243
H	-0.9073013476	 1.8017264054	 0.8738492566	 0.102698
H	-0.9401184691	-0.5037260353	-0.0772144038	 0.064098
H	 0.6208708562	-1.3491595467	-1.614168747	 0.099116
H	 0.8913934422	 0.3505932099	-2.0147796206	 0.101876
H	 3.0815834304	-1.0910102408	-1.1588262805	 0.083833
H	 3.7651877567	 0.6370313643	 0.2633441261	 0.230371
H	 2.8826690507	-1.1826353642	 1.4793618162	 0.0891
H	 1.0136192771	-0.1033019809	 3.4298388536	 0.113886
H	-0.6444808226	 0.2672267668	 2.7614124962	 0.108929
H	-0.6627278074	-1.8448530709	 1.7594947717	 0.224931
105.6267	205.0848	223.5799	250.1745	302.4687	338.5394	378.0137	430.0462	489.8422	564.3474	692.5635	744.5747	799.3467	854.7657	864.6661	886.0279	888.021	913.5268	937.9507	955.8661	968.5558	992.9895	1020.2227	1054.8408	1081.8391	1103.2934	1121.2954	1131.1971	1135.7316	1168.8403	1227.7299	1252.8873	1257.6423	1268.9051	1299.1959	1330.7246	1347.9047	1350.7884	1398.5445	1408.6772	1452.1135	1484.7126	1495.5316	1508.0417	1517.0177	3019.5636	3033.2408	3042.8632	3082.3136	3093.9231	3102.4135	3137.7677	3158.8473	3177.6773	3184.0078	3488.4426	3498.7546
CC1CC2NC2C11CN1	C[C@H]1C[C@H]2N[C@H]2[C@]21CN2	
InChI=1S/C7H12N2/c1-4-2-5-6(9-5)7(4)3-8-7/h4-6,8-9H,2-3H2,1H3	InChI=1S/C7H12N2/c1-4-2-5-6(9-5)7(4)3-8-7/h4-6,8-9H,2-3H2,1H3/t4-,5+,6+,7+/m0/s1
