16
gdb 93469	3.02963	1.40749	1.00114	3.0062	67.09	-0.2616	-0.0057	0.2558	1126.2585	0.126592	-471.255281	-471.246933	-471.245989	-471.288731	30.511	
N	-0.0738710539	 1.4884946835	 0.1218992534	-0.501461
C	-0.0345169475	 0.04955153	-0.0652952559	-0.077155
C	-1.4510640895	-0.528036075	-0.0925452845	-0.1578
N	-1.3684742361	-1.9560009155	-0.3383588783	-0.368374
C	-0.4409980723	-2.575093419	-1.1172247898	 0.468316
O	-0.4242625078	-3.7455863914	-1.3809829788	-0.365705
O	 0.5480115896	-1.7533862406	-1.641123463	-0.249977
C	 0.6956778092	-0.4211370191	-1.3120271078	 0.381951
N	 1.4221425225	 0.344687645	-2.0004095764	-0.503296
H	 0.8775563099	 1.8250435744	 0.2404119398	 0.248047
H	-0.3838192738	 1.9209604154	-0.7458213277	 0.238212
H	 0.4799110456	-0.3985685654	 0.7956274081	 0.123947
H	-1.9328131474	-0.3527060552	 0.8714649934	 0.138253
H	-2.0479808219	-0.0146627446	-0.8615210091	 0.11868
H	-2.1138506948	-2.5624910592	-0.0369486392	 0.269197
H	 1.830286578	-0.1568869132	-2.7914655343	 0.237164
66.087	101.7004	153.4464	196.9221	299.6336	342.6242	382.4976	440.3325	481.0191	510.2002	592.0787	667.561	746.8105	761.836	774.566	909.4621	928.3591	936.874	1003.2696	1041.6091	1100.3772	1112.6884	1178.2159	1214.5336	1235.5551	1257.936	1344.1466	1362.5542	1391.4878	1420.1643	1474.9228	1521.644	1675.8456	1761.874	1875.1674	2992.3679	3028.1434	3106.8734	3476.1456	3490.1443	3558.5792	3651.3998
NC1CNC(=O)OC1=N	N[C@H]1CNC(=O)O[C]1[NH]	
InChI=1S/C4H7N3O2/c5-2-1-7-4(8)9-3(2)6/h2,6H,1,5H2,(H,7,8)	InChI=1S/C4H7N3O2/c5-2-1-7-4(8)9-3(2)6/h2,6H,1,5H2,(H,7,8)/t2-/m0/s1
