22
gdb 100548	3.70459	0.86262	0.77424	2.4899	83.78	-0.2531	-0.023	0.23	1567.5597	0.19294	-404.350765	-404.3404	-404.339455	-404.386982	37.088	
C	-0.2272512795	 1.4478535516	 0.2418280459	-0.398716
C	 0.1217189388	-0.0379791767	 0.1156015227	-0.166924
C	 0.71104924	-0.4272677478	-1.2478422448	-0.080731
C	 2.0917157232	 0.20943252	-1.5194545897	-0.40222
C	 0.8204193505	-1.9410486038	-1.3970981877	 0.374982
O	 0.6636532092	-2.708872231	-0.4680294204	-0.342353
C	 1.1396803871	-2.4743955594	-2.7639373675	-0.096334
C	 2.2385535796	-3.4919181093	-2.8438740778	-0.219932
N	 0.8502338782	-3.8949073284	-3.0099775906	-0.306279
H	 0.6568315064	 2.0885412262	 0.1659647387	 0.116984
H	-0.9315510452	 1.7598521298	-0.53809969	 0.11279
H	-0.6952116976	 1.6528533992	 1.2094443895	 0.117725
H	 0.8272151791	-0.3285295842	 0.9023292249	 0.108351
H	-0.77513966	-0.6414820193	 0.2894343785	 0.109318
H	 0.0302779397	-0.0880178074	-2.043982932	 0.09053
H	 2.807629477	-0.0809376833	-0.7430884817	 0.128957
H	 2.4992335502	-0.1006379748	-2.4858248709	 0.125344
H	 2.0219672657	 1.2999580207	-1.5249953271	 0.128059
H	 0.9743878697	-1.8109451938	-3.6074643818	 0.097806
H	 2.8505061438	-3.5320308762	-3.74047719	 0.124959
H	 2.7444974161	-3.7377623792	-1.9142358986	 0.130092
H	 0.5194057481	-4.2754362032	-2.1216222197	 0.247592
48.4374	63.0509	83.1608	152.5783	205.0624	210.1329	256.9103	274.2189	313.0769	319.4434	362.3112	444.9767	660.9343	746.5566	768.6656	802.4365	834.6197	853.5493	898.8831	962.9622	972.576	985.7903	1007.9686	1030.7469	1068.9681	1101.4775	1121.5628	1135.6102	1148.4563	1181.7205	1201.4427	1287.2029	1289.8575	1310.9122	1323.2117	1337.7511	1385.2948	1400.9099	1407.9287	1415.0242	1479.6949	1494.6492	1497.4322	1502.2573	1505.6697	1509.79	1775.9752	2990.5485	3031.5272	3041.1475	3045.6086	3075.1689	3100.0393	3106.8632	3110.6567	3111.3476	3121.3712	3155.422	3204.4147	3454.8334
CCC(C)C(=O)C1CN1	CC[C@@H](C)C(=O)[C@H]1CN1	
InChI=1S/C7H13NO/c1-3-5(2)7(9)6-4-8-6/h5-6,8H,3-4H2,1-2H3	InChI=1S/C7H13NO/c1-3-5(2)7(9)6-4-8-6/h5-6,8H,3-4H2,1-2H3/t5-,6-/m1/s1
