23
gdb 60639	2.74	1.03166	0.88937	2.423	86.02	-0.2374	-0.0084	0.229	1444.0171	0.203954	-388.3091	-388.298739	-388.297795	-388.345559	37.504	
C	-0.0183339841	 1.5624796293	-0.1332398631	-0.401517
C	-0.0150683701	 0.0228943701	-0.0264294624	-0.121683
C	-1.429989993	-0.5335112198	 0.1038702625	 0.089886
C	-1.6278813604	-2.0329630794	 0.4669508338	-0.241651
C	-2.8308018185	-1.6159640317	 1.3547748781	-0.213387
C	-2.2792226901	-0.1643347103	 1.3535765069	-0.245981
C	 0.6855082196	-0.5427435317	-1.2673119028	 0.402768
C	 2.1700610036	-0.8326488492	-1.1411937951	-0.482396
O	 0.0839765772	-0.7301056214	-2.3009137356	-0.316952
H	 0.9958528239	 1.9691595694	-0.2030378388	 0.114323
H	-0.5728317159	 1.8800409353	-1.0216718715	 0.13494
H	-0.4952816673	 2.0039097411	 0.746625343	 0.125179
H	 0.5680112994	-0.2579322021	 0.8615687361	 0.065724
H	-1.9793965613	-0.3037990855	-0.8138821708	 0.090114
H	-1.8082775639	-2.7331271773	-0.3514266411	 0.105946
H	-0.7961538866	-2.4104230013	 1.0728343274	 0.089559
H	-3.7774484447	-1.688188674	 0.8118948884	 0.104482
H	-2.9475555737	-2.1131496008	 2.3204844251	 0.09439
H	-1.6444722149	 0.0221110881	 2.2273218864	 0.093397
H	-2.9943501387	 0.6572487245	 1.2645707134	 0.095766
H	 2.7003759711	 0.0181224217	-0.6995647456	 0.135192
H	 2.3169872272	-1.6812951798	-0.4619319778	 0.142143
H	 2.5927611211	-1.0738903252	-2.1173185866	 0.139761
28.0719	70.4485	119.8305	142.5418	148.7153	224.4697	230.9742	246.0129	330.5149	406.6362	407.7979	570.977	604.162	654.5578	763.9222	784.4193	801.2642	894.215	933.7857	938.9053	946.2249	963.9831	987.554	996.7181	1017.4127	1082.0136	1093.8872	1126.9931	1166.0219	1199.286	1204.0464	1243.3895	1256.9927	1261.6181	1275.5594	1292.6228	1317.1743	1332.8456	1378.9519	1396.465	1402.8902	1461.7644	1474.8391	1479.5335	1486.3601	1496.2691	1500.3564	1511.2778	1806.5753	3009.9217	3032.6738	3035.2364	3038.1976	3041.6389	3058.6563	3068.9933	3092.4935	3095.8797	3103.1969	3103.9445	3115.121	3117.8799	3149.8282
CC(C1CCC1)C(C)=O	C[C@@H](C1CCC1)C(=O)C	
InChI=1S/C8H14O/c1-6(7(2)9)8-4-3-5-8/h6,8H,3-5H2,1-2H3	InChI=1S/C8H14O/c1-6(7(2)9)8-4-3-5-8/h6,8H,3-5H2,1-2H3/t6-/m1/s1
