23
gdb 112910	2.38269	1.25724	1.03118	2.5475	82.11	-0.2372	0.0658	0.303	1314.8996	0.204961	-425.444002	-425.434007	-425.433063	-425.478924	37.505	
C	 0.040639801	 1.5186120201	-0.072632064	-0.385327
C	 0.0600089867	-0.0083704549	-0.1816955995	-0.18176
C	-1.3216945097	-0.6252274178	-0.0019837282	 0.152775
O	-2.1970321348	-0.1438190227	-1.0212524227	-0.293184
C	-3.1950283622	-1.1215751576	-1.3433550858	 0.160196
C	-3.14866667	-1.3974016659	-2.843206054	-0.393107
C	-2.8775309608	-2.3522798091	-0.4615965392	-0.289586
C	-1.3996966427	-2.1545930453	-0.095746563	 0.08765
O	-0.520000204	-2.5955992984	-1.1237784454	-0.429343
H	 1.0422642471	 1.9350733374	-0.216830527	 0.106117
H	-0.622023104	 1.9487072108	-0.8279712233	 0.134545
H	-0.3173714376	 1.8436754284	 0.9111562	 0.105691
H	 0.4496306129	-0.3193714395	-1.1545183843	 0.119465
H	 0.7261611911	-0.4338259725	 0.5794926864	 0.088259
H	-1.7188369278	-0.336282542	 0.9884900963	 0.055025
H	-4.1785677413	-0.7083308866	-1.0794691664	 0.067956
H	-2.1911044673	-1.8534437188	-3.1078886712	 0.128516
H	-3.9606079805	-2.0705923123	-3.1398515579	 0.10157
H	-3.2563585843	-0.463171663	-3.4016583582	 0.120962
H	-3.4861732373	-2.3479452467	 0.4484510258	 0.103093
H	-3.0575343294	-3.300835243	-0.9764192921	 0.092922
H	-1.1384547456	-2.6241814466	 0.8629979439	 0.063705
H	-0.6487673696	-3.542155784	-1.2368425402	 0.283861
61.3597	92.9534	128.8965	173.0991	228.5806	259.5959	288.5011	311.0586	327.8263	383.7258	415.9441	433.8954	505.318	710.8768	755.0682	790.4442	818.3589	845.2222	884.003	907.1591	955.7299	984.1303	1004.3603	1030.0023	1070.4069	1073.1207	1114.3333	1133.9423	1162.0925	1168.5374	1208.4229	1222.3978	1275.8207	1300.8104	1317.0657	1334.8458	1355.045	1376.2865	1391.1763	1400.8124	1408.2844	1415.5488	1425.4	1476.5729	1480.089	1490.5038	1498.1789	1501.7505	1509.7498	2928.8312	2995.8666	3002.9143	3032.7517	3034.9134	3036.2636	3051.8901	3088.9032	3094.0529	3107.577	3108.0492	3123.9186	3128.4388	3825.8073
CCC1OC(C)CC1O	CC[C@H]1O[C@@H](C)C[C@H]1O	
InChI=1S/C7H14O2/c1-3-7-6(8)4-5(2)9-7/h5-8H,3-4H2,1-2H3	InChI=1S/C7H14O2/c1-3-7-6(8)4-5(2)9-7/h5-8H,3-4H2,1-2H3/t5-,6+,7+/m0/s1
