18
gdb 72596	2.24546	1.64187	1.45453	4.4504	72.51	-0.2334	0.0153	0.2486	1023.9079	0.146156	-439.092735	-439.083979	-439.083034	-439.125678	32.944	
C	-0.1238633078	 1.5807030401	-0.0976062482	-0.477672
C	-0.0130725337	 0.0819354923	 0.0311805858	 0.262096
C	 0.9239432971	-0.7215728577	-0.9004478368	-0.116244
O	 1.4745649647	-1.4651678383	 0.2074419519	-0.322121
C	 0.6932134659	-0.7219546424	 1.180119721	 0.219693
C	 1.4826269159	-0.2128971921	 2.3476606632	-0.48943
C	-0.6800142846	-1.4299000102	 1.3735839076	 0.418448
O	-1.11219898	-2.3272577431	 2.0425840395	-0.360882
N	-1.24265483	-0.6388140513	 0.3842229796	-0.387596
H	 0.8668227829	 2.0407079591	-0.161715401	 0.129835
H	-0.6761542526	 1.8566764811	-1.0037521017	 0.126497
H	-0.652863303	 2.0058579565	 0.7599809073	 0.132622
H	 0.4347040553	-1.3634374212	-1.6418228296	 0.104345
H	 1.6981297402	-0.1181695873	-1.3903116398	 0.106182
H	 2.347473595	 0.3681185142	 2.0145722834	 0.12599
H	 0.8591443121	 0.4099555193	 2.9963584381	 0.131049
H	 1.843077505	-1.0604357832	 2.9395220356	 0.153306
H	-2.0629905225	-0.8225989256	-0.1792387357	 0.24388
124.4153	173.5146	180.488	194.0389	202.1344	275.1046	318.6124	342.6013	417.685	496.2571	548.1916	618.0393	687.518	702.8166	764.1844	824.2449	859.9025	897.1056	944.0655	974.0737	1008.2181	1109.1198	1120.3063	1148.5748	1153.4632	1172.3031	1243.2231	1269.8302	1315.052	1334.3221	1378.5084	1408.9486	1416.9879	1476.2436	1483.7144	1490.8729	1493.6983	1512.1116	1893.3202	3018.0646	3032.7907	3039.8152	3070.3949	3096.2962	3112.9555	3117.1849	3119.3429	3574.3651
CC12COC1(C)C(=O)N2	C[C@@]12CO[C@]1(C)C(=O)N2	
InChI=1S/C6H9NO2/c1-5-3-9-6(5,2)4(8)7-5/h3H2,1-2H3,(H,7,8)	InChI=1S/C6H9NO2/c1-5-3-9-6(5,2)4(8)7-5/h3H2,1-2H3,(H,7,8)/t5-,6-/m1/s1
