24
gdb 59961	2.68674	0.97973	0.8493	3.4287	87.13	-0.2318	0.0349	0.2667	1524.4067	0.214783	-405.591668	-405.580057	-405.579112	-405.629335	41.014	
C	-0.5343560056	 1.6660929721	 0.0078065549	-0.371457
C	-0.2297700272	 0.1676113512	-0.1040910391	 0.029596
C	 0.4533021925	-0.1654431182	-1.4371279404	-0.385742
C	 0.6512604292	-0.3280674002	 1.0590133732	-0.164235
N	 0.0531073686	-0.1767339772	 2.3843427331	-0.078169
C	-0.8984531765	-1.1990888673	 2.777371297	-0.344658
C	 0.5389506578	 0.7993120402	 3.221985706	 0.404835
C	-0.0291605637	 0.8640358526	 4.6346126169	-0.501955
O	 1.3893997807	 1.5960206775	 2.8573367679	-0.381294
H	 0.3880901661	 2.2554465169	-0.0159060957	 0.129735
H	-1.1723610997	 1.9953264288	-0.819071261	 0.102455
H	-1.0483752676	 1.9003649639	 0.9439855247	 0.114095
H	-1.1833066558	-0.3795064064	-0.071720221	 0.066056
H	 1.4163906074	 0.3515968845	-1.521656141	 0.119482
H	 0.6420173415	-1.2399653637	-1.5375452022	 0.1075
H	-0.1655586825	 0.1465092247	-2.2842138401	 0.112536
H	 0.8841218902	-1.3914898193	 0.910481083	 0.088557
H	 1.5903633389	 0.2287916478	 1.069107839	 0.140868
H	-1.4226870876	-0.9216534815	 3.6899085431	 0.137465
H	-1.6513572369	-1.3367819749	 1.9938722592	 0.132408
H	-0.4064236138	-2.1689485204	 2.9419983069	 0.122657
H	 0.1239334026	-0.069684923	 5.1845295409	 0.134216
H	 0.4887271776	 1.6714606562	 5.1507843325	 0.147706
H	-1.1028279661	 1.0780616356	 4.6321596819	 0.137342
45.4533	60.1299	72.2609	96.7893	147.979	208.0793	210.962	235.1564	277.6365	301.3477	338.5756	395.1684	407.7808	434.3089	535.1835	590.501	601.4882	761.1146	820.8695	888.0944	927.759	948.4923	967.7147	987.6241	1032.1994	1049.213	1118.9487	1139.0362	1156.7642	1191.8773	1199.1852	1247.6218	1312.7681	1334.0668	1370.9627	1385.1231	1400.0641	1402.4144	1424.0061	1437.2485	1462.7064	1472.1057	1478.9374	1485.8462	1491.0969	1494.0797	1501.4792	1503.2289	1510.0151	1527.0503	1752.5777	2997.0324	2998.8078	3010.6129	3025.9297	3036.3746	3043.6739	3067.0854	3090.6777	3099.7085	3104.1944	3106.6996	3113.6205	3118.819	3159.9631	3164.6873
CC(C)CN(C)C(C)=O	CC(C)CN(C)C(=O)C	
InChI=1S/C7H15NO/c1-6(2)5-8(4)7(3)9/h6H,5H2,1-4H3	InChI=1S/C7H15NO/c1-6(2)5-8(4)7(3)9/h6H,5H2,1-4H3
