21
gdb 94864	2.85736	1.67027	1.34177	1.3278	82.86	-0.2416	0.0874	0.329	1038.9253	0.184852	-387.01919	-387.011733	-387.010789	-387.050697	30.84	
C	-0.1600484993	 1.6053756801	-0.2178369934	-0.404203
C	-0.0298836295	 0.1078135338	 0.0291797659	 0.105312
O	 0.6134862352	-0.5106882993	-1.124150201	-0.292982
C	 1.4765641362	-1.5944500454	-0.7341324724	-0.21142
C	 1.9647419728	-1.1106115729	 0.6057618415	 0.324332
C	 2.440085885	-1.4677342861	 2.0459522932	-0.312118
C	 1.9736977448	 0.0400060626	 2.0854507464	-0.090167
C	 2.7529497591	 0.2282902134	 0.7639362569	-0.243335
C	 0.731672264	-0.4395829452	 1.2534562029	-0.030103
H	 0.8048822655	 2.1121879471	-0.2763881399	 0.124131
H	-0.6901747777	 1.7790951742	-1.1589417084	 0.126353
H	-0.7398501014	 2.0639093178	 0.5898920339	 0.114742
H	-1.0492733864	-0.3016753741	 0.0917525827	 0.069417
H	 0.923555151	-2.5437882628	-0.6567944826	 0.090096
H	 2.2389580976	-1.6877085206	-1.5126296363	 0.108159
H	 1.8340523815	-2.1855840923	 2.6047336531	 0.096007
H	 3.5098992581	-1.6424982399	 2.186964187	 0.094186
H	 1.9802491889	 0.6899962318	 2.9621188084	 0.072159
H	 3.8409560803	 0.1333527403	 0.8254695834	 0.085801
H	 2.469250833	 1.0538479803	 0.1162979565	 0.107271
H	 0.0918289615	-1.1250447927	 1.8181546323	 0.066363
136.4831	203.909	212.6711	290.6201	336.2367	425.1635	467.7617	526.6885	568.359	666.1031	744.4027	769.4111	802.2776	825.6749	876.5446	883.6053	930.1145	961.3922	980.063	996.4524	1015.6842	1027.8599	1046.9949	1073.8704	1096.6789	1117.307	1139.3999	1142.6153	1166.1885	1188.8284	1202.803	1215.6381	1228.0644	1251.355	1291.5348	1339.625	1361.5224	1388.2192	1400.2002	1423.4097	1484.5918	1494.8391	1503.9991	1506.9801	1546.7171	2974.3817	2980.6942	3044.8408	3046.9472	3052.7605	3062.3958	3085.5227	3095.5964	3110.5547	3121.2059	3134.2693	3172.4207
CC1OCC23CC(C2)C13	C[C@H]1OC[C@@]23C[C@@H](C2)[C@@H]13	
InChI=1S/C8H12O/c1-5-7-6-2-8(7,3-6)4-9-5/h5-7H,2-4H2,1H3	InChI=1S/C8H12O/c1-5-7-6-2-8(7,3-6)4-9-5/h5-7H,2-4H2,1H3/t5-,6-,7-,8+/m1/s1
