15
gdb 30904	2.02183	1.21566	0.76223	3.4097	69.76	-0.2651	-0.075	0.1901	1425.9945	0.109318	-491.13231	-491.122044	-491.1211	-491.168925	34.718	
N	 1.0946821912	 0.3715896146	 0.2439335439	-0.719068
H	 1.2211924191	 1.2415796658	 0.7566385087	 0.260884
H	 1.8320912546	 0.3454412764	-0.4552962137	 0.239459
H	 1.3045138726	-0.3765597786	 0.8993767389	 0.239471
C	-1.7814620127	 2.0396568623	 0.0084734317	-0.420848
C	-1.3551014428	 3.0745899296	 0.7253158513	 0.328933
C	-2.0391838342	 4.3085654968	 1.1146901035	 0.347615
O	-3.2875457408	 4.5513852003	 0.7560715973	-0.382566
N	-1.3005489732	 5.0946411744	 1.8217971399	-0.414124
C	-0.0643048691	 4.4373276446	 1.9549785172	 0.453702
O	 0.9157648305	 4.7926903958	 2.5270407667	-0.32742
O	-0.1062190913	 3.1987435047	 1.27925616	-0.259746
H	-2.7917411471	 2.0522627841	-0.3796574206	 0.142337
H	-1.1265321916	 1.1948290261	-0.1847720355	 0.186497
H	-3.5364981651	 5.415011723	 1.1185706007	 0.324874
40.1484	65.3001	117.8497	118.9317	153.8837	188.5089	207.5282	278.7843	305.046	385.6795	414.883	590.1603	618.7411	639.325	678.7372	744.41	780.7026	816.4599	820.474	904.9725	979.5978	994.7959	1093.6412	1116.9152	1224.5707	1304.0377	1420.3549	1520.0378	1658.6504	1676.3255	1691.084	1733.797	1917.8646	3142.8318	3262.4377	3462.2761	3579.0843	3583.0443	3753.1832
[NH3+]CC1=C(O)N=C([O-])O1	N.C=C1C(=NC(=O)O1)O	
InChI=1S/C4H6N2O3/c5-1-2-3(7)6-4(8)9-2/h7H,1,5H2,(H,6,8)	InChI=1S/C4H3NO3.H3N/c1-2-3(6)5-4(7)8-2;/h1H2,(H,5,6,7);1H3
