22
gdb 120158	3.03394	0.96274	0.84817	2.903	83.17	-0.2241	0.0743	0.2985	1451.1399	0.193898	-404.265336	-404.255866	-404.254922	-404.300334	35.433	
C	 0.3069305825	 1.3538978096	 0.1694170999	-0.520909
C	 0.1494421299	-0.1454499239	 0.0956638634	 0.295842
C	 0.4922771641	-1.1098330989	-1.0657929722	-0.20158
N	-0.045744173	-2.0848126473	-0.0051868579	-0.163936
C	 0.8014724533	-1.246540923	 0.968864016	-0.214924
C	-1.1426909977	-1.0150258594	 0.2042981809	 0.03657
C	-2.0117595246	-1.1094606427	 1.4478448431	-0.235248
C	-3.1459527233	-0.0882606195	 1.4255755648	-0.074914
O	-3.900036059	-0.2556611613	 2.6156470956	-0.419173
H	 1.3541990597	 1.6465294381	 0.0355713735	 0.120536
H	-0.2818596439	 1.8505007784	-0.6098852644	 0.118353
H	-0.025216684	 1.7394840381	 1.1396263973	 0.122409
H	-0.1193820882	-1.0671385896	-1.9724333762	 0.093806
H	 1.5474809284	-1.2709778504	-1.3043321108	 0.094942
H	 1.8768677036	-1.4115293552	 0.8531649999	 0.095096
H	 0.5118171854	-1.3424595486	 2.0159518206	 0.102152
H	-1.790468086	-0.9667022273	-0.6815021517	 0.061073
H	-2.4481404502	-2.1144392007	 1.4959688644	 0.122159
H	-1.4470330398	-0.966883572	 2.3732788471	 0.108114
H	-2.732909771	 0.9318064632	 1.3563411448	 0.08704
H	-3.7709569406	-0.2454150654	 0.5311994212	 0.087016
H	-4.6256744257	 0.3751549479	 2.6039986806	 0.285576
45.507	73.9201	129.3621	197.6755	228.4085	267.9508	296.0654	333.7866	371.9374	397.3009	607.6881	612.0126	634.5425	747.5413	779.3338	813.3441	885.8901	903.7296	908.1634	928.2922	999.5055	1019.5886	1032.8115	1066.2101	1072.9358	1092.106	1140.7432	1170.6453	1178.5064	1194.2889	1203.5835	1209.3586	1234.2678	1240.4061	1266.2246	1309.427	1328.5677	1336.6881	1406.625	1444.9032	1462.2086	1487.5776	1489.4906	1491.7836	1516.1089	1527.8986	1556.0171	2957.6871	2983.2132	3009.6207	3025.2006	3042.1005	3043.3063	3059.3109	3093.3787	3093.7854	3094.7323	3108.1905	3129.6683	3830.2422
CC12CN(C1)C2CCO	C[C@@]12CN(C1)[C@H]2CCO	
InChI=1S/C7H13NO/c1-7-4-8(5-7)6(7)2-3-9/h6,9H,2-5H2,1H3	InChI=1S/C7H13NO/c1-7-4-8(5-7)6(7)2-3-9/h6,9H,2-5H2,1H3/t6-/m0/s1
