23
gdb 106408	2.39967	1.376	1.28484	0.9009	86.33	-0.2456	0.0944	0.34	1186.9284	0.204325	-388.235441	-388.225655	-388.224711	-388.270006	37.111	
C	-1.4230641786	 1.7208234517	 0.1652113653	-0.261982
O	-0.970129869	 0.3839036256	 0.0771272728	-0.295953
C	-1.9715710743	-0.5618041081	 0.1098176592	 0.424443
C	-3.0126422838	-0.8478699642	 1.2459470897	-0.309952
C	-3.2388877268	-1.925413964	 0.144258974	-0.095152
C	-3.16550077	-0.7597342758	-0.8861304153	-0.30995
C	-1.6738532772	-2.0962499806	 0.0250429402	 0.30516
C	-1.0858598228	-2.6532539471	-1.2774225359	-0.471161
C	-0.9098153611	-2.754975501	 1.1802963294	-0.47117
H	-0.5392597735	 2.3614919205	 0.1286659853	 0.127166
H	-2.0867691535	 1.980171266	-0.6716757329	 0.112345
H	-1.9595605916	 1.9061058989	 1.1064759725	 0.112351
H	-2.6475984336	-1.1653614272	 2.2201554285	 0.094867
H	-3.818871988	-0.1182666684	 1.3522780875	 0.086982
H	-3.9820649562	-2.7205031909	 0.164694938	 0.074468
H	-3.9743194234	-0.0286008319	-0.8162725553	 0.086983
H	-2.944769283	-0.9940161493	-1.9251291547	 0.094866
H	-1.5534593079	-2.2786994296	-2.187661854	 0.113839
H	-0.0186577753	-2.4127862373	-1.3349280551	 0.122825
H	-1.1717532166	-3.7456927351	-1.2896304056	 0.11118
H	-0.9988042518	-3.8452423626	 1.1142221236	 0.111178
H	 0.1559940281	-2.5130895544	 1.105525505	 0.122836
H	-1.2415571101	-2.4600392351	 2.1755091579	 0.113833
72.13	85.0844	149.6306	153.5585	194.1906	207.1894	294.3412	364.5718	410.1359	417.5891	521.1024	543.6901	581.9276	621.8057	691.4416	775.9179	800.8513	898.6741	932.1054	948.2243	952.4923	969.9269	998.0443	1008.8333	1054.3105	1066.5202	1088.9372	1117.3767	1144.2639	1150.6958	1179.6742	1192.0411	1194.1311	1203.084	1229.7049	1230.0341	1283.3595	1326.6326	1404.8124	1423.9941	1475.6075	1481.3647	1483.5677	1486.2088	1505.4643	1509.5663	1512.8215	1517.6739	1555.8851	2991.558	3034.1207	3040.2705	3043.8091	3071.4124	3078.6841	3087.1085	3093.3169	3120.2138	3131.363	3131.8611	3134.8021	3158.6743	3160.0544
COC12CC(C1)C2(C)C	CO[C@@]12C[C@@H](C1)C2(C)C	
InChI=1S/C8H14O/c1-7(2)6-4-8(7,5-6)9-3/h6H,4-5H2,1-3H3	InChI=1S/C8H14O/c1-7(2)6-4-8(7,5-6)9-3/h6H,4-5H2,1-3H3/t6-,8-
