15
gdb 132540	3.07992	1.35008	0.94412	2.0014	72.56	-0.2281	-0.0234	0.2047	1168.5094	0.112799	-461.983114	-461.975326	-461.974382	-462.015611	29.244	
C	-0.0512399568	 1.5137422733	-0.0100102827	-0.496459
C	-8.0306*^-6	 0.008221532	 0.0089857762	 0.267957
C	 0.003736679	-0.7413232091	-1.160444026	-0.081737
N	 0.0482760065	-2.0812030902	-1.1963589496	-0.358613
C	 0.091634256	-2.7446382646	-0.0566709153	 0.309723
O	 0.1368234043	-4.091419272	-0.0799919326	-0.410066
C	 0.092279345	-2.0855988176	 1.1822798264	 0.19101
F	 0.1372201327	-2.7992132938	 2.3078096876	-0.062109
C	 0.0464796668	-0.7111141187	 1.213936116	-0.282126
H	 0.8245200296	 1.9526316602	 0.4811113969	 0.134505
H	-0.0817224614	 1.8910071156	-1.0355571689	 0.12956
H	-0.9371999723	 1.893056414	 0.5115129449	 0.134529
H	-0.0308115128	-0.2445664114	-2.1267888782	 0.106948
H	 0.1277945875	-4.3373870432	-1.0156630778	 0.3005
H	 0.0472971065	-0.2084299843	 2.1756722231	 0.116377
86.3764	142.4417	221.5241	281.8246	299.3023	379.5903	455.4305	473.3003	505.1285	537.421	589.1336	608.9881	721.5876	775.7922	814.7583	912.9198	946.171	992.5958	1019.0644	1067.4212	1153.1902	1178.9948	1275.8724	1323.4627	1330.6286	1376.34	1418.5222	1459.3688	1484.523	1502.7681	1531.7378	1641.6708	1659.6262	3030.7534	3083.3357	3115.6156	3158.8539	3189.2395	3767.7886
CC1=CN=C(O)C(F)=C1	Cc1cnc(O)c(F)c1	
InChI=1S/C6H6FNO/c1-4-2-5(7)6(9)8-3-4/h2-3H,1H3,(H,8,9)	InChI=1S/C6H6FNO/c1-4-2-5(7)6(9)8-3-4/h2-3H,1H3,(H,8,9)
