19
gdb 112086	3.25286	1.29856	1.02354	2.7348	77.72	-0.2485	0.017	0.2655	1199.1036	0.159366	-423.004969	-422.996648	-422.995704	-423.038236	31.26	
C	-0.0018509346	 1.2324117654	 0.303612251	-0.234939
O	 0.0171353017	-0.1456585884	 0.0141649333	-0.24798
C	 0.6215750549	-0.4767526779	-1.2317828113	 0.07401
C	 2.1252749138	-0.5200259892	-1.14508021	-0.073069
C	 2.8826821153	-1.4407784415	-1.7365440062	-0.05699
C	 2.3393688665	-2.5775122671	-2.5565566129	-0.300295
C	 0.8574773931	-2.8001990819	-2.3528780697	 0.049708
O	 0.4286295692	-2.9691319271	-1.0017021256	-0.246313
C	 0.0216781154	-1.7875105432	-1.6906146928	 0.021552
H	 1.006268157	 1.65829688	 0.4178250908	 0.10619
H	-0.5278090323	 1.8048417483	-0.4774227036	 0.102217
H	-0.5353580831	 1.3542475076	 1.2494894508	 0.13094
H	 0.3246437975	 0.2846317983	-1.9783620316	 0.071472
H	 2.5903410107	 0.27174087	-0.5646985373	 0.092718
H	 3.9638539262	-1.3914585611	-1.6338619806	 0.091834
H	 2.5271433556	-2.4013248459	-3.6261487147	 0.115824
H	 2.8763336798	-3.504310738	-2.3132051905	 0.122048
H	 0.3803255173	-3.4781777463	-3.0614036889	 0.088282
H	-1.0448104839	-1.7434887819	-1.9100411104	 0.09279
77.4398	91.3894	173.9578	205.7552	309.0546	318.1617	371.763	410.9878	489.6582	534.441	658.2781	714.6808	784.672	844.1543	904.128	906.661	936.2587	947.4987	997.1256	1014.4683	1029.7181	1065.37	1116.7588	1142.6873	1148.1082	1180.6944	1202.2666	1220.8047	1237.6693	1288.3884	1343.1272	1355.3279	1372.4541	1379.3816	1430.7756	1463.4374	1475.5053	1479.3717	1490.4594	1509.0343	1728.429	2915.546	2971.1643	3003.5429	3018.6832	3034.8722	3100.5329	3113.422	3118.1224	3150.9956	3176.2747
COC1C=CCC2OC12	CO[C@H]1C=CC[C@H]2O[C@@H]12	
InChI=1S/C7H10O2/c1-8-5-3-2-4-6-7(5)9-6/h2-3,5-7H,4H2,1H3	InChI=1S/C7H10O2/c1-8-5-3-2-4-6-7(5)9-6/h2-3,5-7H,4H2,1H3/t5-,6+,7-/m0/s1
