18
gdb 34249	4.18426	1.31374	1.18332	1.9256	82.83	-0.2299	0.0251	0.255	1076.7124	0.149209	-364.754154	-364.74681	-364.745866	-364.785648	29.783	
C	 0.0412534842	-1.1765153901	-0.079588946	-0.373412
C	 0.0254342534	 0.0250085524	-0.0134079141	 0.152093
C	-0.013231197	 1.4455886638	 0.1045806992	 0.190118
C	-1.221940847	 2.2523199051	 0.5784627051	-0.314124
C	-0.7413500368	 3.3652320033	-0.3857121985	 0.014337
C	 0.1146038106	 4.4175977353	 0.3113137944	-0.210184
C	 1.2905374887	 3.576613693	 0.8728702948	-0.249584
C	 1.2148924691	 2.300528654	 0.0422815939	-0.059106
N	 0.2427181154	 2.4074362788	-1.0640927546	-0.18302
H	 0.059484145	-2.2358348541	-0.1483921091	 0.186042
H	-2.1521007852	 1.7886738374	 0.2463054297	 0.122042
H	-1.2963009948	 2.4845115303	 1.6458941135	 0.09933
H	-1.4817160614	 3.755410519	-1.0828373348	 0.084176
H	 0.4767273896	 5.1500487678	-0.4172465254	 0.111477
H	-0.4376657529	 4.9571477505	 1.0862567449	 0.104481
H	 2.2547582839	 4.0727300096	 0.7357779259	 0.11093
H	 1.1815710344	 3.3709586704	 1.9422096092	 0.112839
H	 2.1301775308	 1.7828377836	-0.2253537781	 0.101566
133.442	147.7999	212.7015	354.657	362.9325	476.7068	511.6182	564.4454	594.6662	655.6692	672.3551	698.157	755.3935	814.0316	832.3232	851.081	870.6414	926.0841	951.0816	989.3904	1011.4987	1044.1097	1062.329	1104.828	1130.6297	1167.2244	1219.3692	1228.5543	1245.7519	1258.7291	1280.5149	1307.5053	1331.2759	1340.352	1407.3482	1483.2702	1491.7381	1507.694	2231.5919	3046.4869	3049.6795	3057.0724	3089.6879	3105.504	3115.2647	3126.3847	3172.0288	3503.456
C#CC12CC3CCC1N23	C#C[C@@]12C[C@H]3CC[C@@H]1N23	
InChI=1S/C8H9N/c1-2-8-5-6-3-4-7(8)9(6)8/h1,6-7H,3-5H2	InChI=1S/C8H9N/c1-2-8-5-6-3-4-7(8)9(6)8/h1,6-7H,3-5H2/t6-,7+,8-,9?/m1/s1
