13
gdb 23944	9.04169	0.66766	0.62175	8.1173	91.85	-0.2311	-0.0434	0.1877	1642.8205	0.09174	-378.503696	-378.496199	-378.495255	-378.536339	27.434	
N	 0.047309994	-3.7160404224	-0.0185173425	-0.346364
C	 0.0357364092	-2.5526302458	-0.0118663521	 0.151255
C	 0.0210070837	-1.1915370668	-0.004069133	 0.226105
C	 2.3396*^-6	 0.0214627987	 0.0029896423	-0.070885
C	-0.0034075795	 1.425456223	 0.0108429689	 0.114791
C	-1.1289918848	 2.2396828642	 0.0301939287	-0.190116
N	-0.7029209718	 3.5304741139	 0.0317843748	-0.228327
C	 0.6732170075	 3.5801018762	 0.0139193132	-0.058647
C	 1.1403819081	 2.2940155731	 0.0006260036	-0.275161
H	-2.1748275132	 1.9816947733	 0.0425287714	 0.14476
H	-1.3087173736	 4.3329879838	 0.0441946382	 0.276472
H	 1.1942662927	 4.523280213	 0.0123144485	 0.137245
H	 2.1715077982	 1.9807031358	-0.0146855919	 0.118872
77.3631	84.2056	218.6572	228.3101	425.6523	467.8759	508.4465	532.9052	577.3322	590.5805	633.1431	666.3388	706.0262	793.718	849.5856	896.6938	905.1437	1022.8607	1099.7889	1107.8334	1164.1999	1259.4911	1364.4849	1377.877	1457.6503	1534.5898	1585.5048	2253.7133	2373.7863	3264.4454	3277.6364	3283.7419	3679.6214
N#CC#CC1=CNC=C1	N#CC#Cc1c[nH]cc1	
InChI=1S/C7H4N2/c8-4-1-2-7-3-5-9-6-7/h3,5-6,9H	InChI=1S/C7H4N2/c8-4-1-2-7-3-5-9-6-7/h3,5-6,9H
