19
gdb 38603	3.5168	1.65728	1.40657	2.2154	77.29	-0.2289	0.0803	0.3092	958.0689	0.162476	-385.820496	-385.814142	-385.813198	-385.850879	27.425	
C	 0.0033417513	 1.5506651301	-0.1152676713	-0.295449
C	 1.3097934106	 0.7998059753	-0.0348951382	-0.028438
C	 2.1281355601	 0.7701922936	 1.2490371241	-0.279824
C	 1.437299427	 0.0103633733	 2.3779197833	 0.014179
C	-0.0931252731	 0.1450649465	 2.6223454965	 0.007434
O	-0.0716208771	-1.1529482368	 3.324787692	-0.31467
C	 0.7346442713	-1.3521455071	 2.1033990648	 0.027171
C	-0.3639986586	-0.6059052376	 1.2877275768	-0.002175
C	 0.0038282479	 0.0414318978	-0.0213121148	-0.05908
H	-0.3264561176	 2.1122175423	 0.7535991627	 0.112003
H	-0.2587249437	 2.0086695352	-1.0626335623	 0.110051
H	 1.8884075666	 0.7689910389	-0.9522963233	 0.084707
H	 3.0914483725	 0.2830332075	 1.0523667356	 0.105117
H	 2.3690105441	 1.7870930674	 1.5858735965	 0.104724
H	 2.0120219328	 0.0062000642	 3.3068845328	 0.078468
H	-0.6572046119	 0.9547087269	 3.0884987904	 0.088192
H	 1.1716630582	-2.339139117	 1.943232017	 0.086412
H	-1.3255347249	-1.1234605449	 1.2805440049	 0.078443
H	-0.2757148254	-0.5143293556	-0.9111486075	 0.082735
184.5242	249.4222	351.5331	427.4298	458.0746	503.325	592.0634	715.0514	738.0178	772.7833	805.1836	830.8086	853.5108	884.8697	888.6552	900.2352	952.3018	970.0384	1003.655	1028.5429	1053.8259	1061.4185	1062.5793	1098.74	1127.2767	1130.6544	1149.6529	1161.8517	1193.0737	1201.4104	1223.6586	1257.9444	1272.722	1275.7713	1295.4117	1356.5089	1381.9799	1404.8052	1415.507	1484.4829	1498.2031	3015.8248	3047.9558	3089.4729	3092.673	3099.5522	3110.2854	3127.0775	3147.9403	3158.2737	3212.1649
C1C2CC3C4OC3C4C12	C1[C@H]2C[C@H]3[C@@H]4O[C@H]3[C@@H]4[C@@H]12	
InChI=1S/C8H10O/c1-3-2-5-7-6(4(1)3)8(5)9-7/h3-8H,1-2H2	InChI=1S/C8H10O/c1-3-2-5-7-6(4(1)3)8(5)9-7/h3-8H,1-2H2/t3-,4-,5-,6+,7-,8+/m0/s1
