15
gdb 130162	3.2919	1.39145	0.97937	3.5796	75.71	-0.1907	-0.0102	0.1805	1123.0132	0.114445	-450.142746	-450.134624	-450.133679	-450.174917	31.558	
N	 0.0095465753	 1.2978290522	 0.1049833165	-0.547148
C	-0.0141513493	-0.0585555065	 0.0436929325	 0.399562
N	-1.1551332	-0.6845744491	 0.0270811752	-0.335271
N	-1.0927814762	-2.0573572189	-0.0078127086	-0.336442
C	 0.0607716724	-2.7679018009	 0.0200694217	 0.483314
O	-0.0430951771	-4.1196666224	 0.0539770333	-0.424409
C	 1.2709594091	-2.1452448454	 0.0101404804	-0.334902
C	 1.3252398257	-0.7120628226	 0.0212748452	 0.280944
N	 2.3503749599	 0.0752527385	-0.0104271403	-0.588407
H	 0.9154072959	 1.7031078706	-0.0855209923	 0.275032
H	-0.8276520488	 1.805219332	-0.1236226249	 0.25405
H	-1.9653249757	-2.4962231186	 0.2387089031	 0.262365
H	-0.8693451635	-4.3974171656	-0.3582025383	 0.302115
H	 2.172345871	-2.7419792466	-0.0365033593	 0.103985
H	 3.2196828013	-0.4585850267	-0.032055094	 0.205211
119.5957	190.4869	240.2576	324.8914	335.7145	355.497	369.7308	398.7179	470.9088	480.9006	517.8645	552.1188	600.9322	658.7222	725.2872	772.0461	813.2388	819.0753	859.6141	1007.1555	1074.0374	1129.6253	1200.5097	1227.3683	1278.0125	1325.0254	1406.7831	1448.3144	1546.2269	1584.9351	1635.01	1676.241	1688.5782	3217.8294	3464.961	3563.6671	3636.0538	3717.2583	3802.1549
NC1=NNC(O)=CC1=N	NC1=NN[C@@H](O)C=C1[NH]	
InChI=1S/C4H6N4O/c5-2-1-3(9)7-8-4(2)6/h1H,(H2,6,8)(H3,5,7,9)	InChI=1S/C4H7N4O/c5-2-1-3(9)7-8-4(2)6/h1,3,5,7,9H,(H2,6,8)/t3-/m0/s1
