17
gdb 98900	4.09119	1.01484	0.92878	2.3998	64.84	-0.2618	0.0045	0.2663	1281.1423	0.135572	-496.120432	-496.111439	-496.110495	-496.156516	30.312	
C	-0.1517527008	 1.3769812497	-0.0182933431	-0.242417
O	-0.1028224157	-0.0493136094	-0.1713807927	-0.234488
C	-1.2678321321	-0.6926636399	 0.033932819	 0.422453
O	-2.3064438153	-0.1542891282	 0.3124758617	-0.353854
C	-1.0591166997	-2.1985757298	-0.081980298	-0.028935
C	-0.6765477467	-2.8105933396	 1.3080881879	-0.125636
O	-1.6376994594	-3.8322826782	 1.5014179968	-0.233658
C	-2.7621321941	-3.4304423614	 0.7576775575	 0.01746
O	-2.2572335578	-2.8580802717	-0.4320590537	-0.231494
H	 0.862527909	 1.7304556567	-0.2021663444	 0.137052
H	-0.8471099814	 1.8148967659	-0.7383722397	 0.146891
H	-0.4754192178	 1.6446381338	 0.9906050064	 0.1428
H	-0.3044378105	-2.4050883793	-0.8445877428	 0.114091
H	 0.3188484942	-3.2585330923	 1.3141190315	 0.128156
H	-0.7359380314	-2.0547525304	 2.1036679049	 0.111472
H	-3.3592193309	-4.3103572793	 0.5066707237	 0.123912
H	-3.3621667796	-2.6904674966	 1.3114698949	 0.106196
18.3264	55.8524	103.5359	131.6077	200.1416	264.4637	273.0189	335.5522	394.3224	683.2175	737.0339	745.9677	762.2648	862.4736	944.6615	960.753	994.4206	1030.577	1071.4828	1104.7057	1125.1956	1178.3588	1187.3105	1204.369	1215.276	1226.8018	1254.5092	1298.6718	1361.8058	1376.4362	1427.4837	1473.1274	1481.4662	1496.4858	1513.7904	1542.6517	1835.3722	2978.7003	3007.3452	3054.3745	3083.9355	3105.8978	3112.3845	3130.2798	3162.9422
COC(=O)C1COCO1	COC(=O)[C@H]1COCO1	
InChI=1S/C5H8O4/c1-7-5(6)4-2-8-3-9-4/h4H,2-3H2,1H3	InChI=1S/C5H8O4/c1-7-5(6)4-2-8-3-9-4/h4H,2-3H2,1H3/t4-/m1/s1
