19
gdb 35935	2.28314	1.49838	1.26741	3.2101	80.21	-0.2439	0.0072	0.251	1097.0406	0.162187	-382.083043	-382.074763	-382.073819	-382.116028	31.59	
N	 0.0542044922	-1.1865269484	-0.4256966248	-0.33438
C	 0.001589093	-0.0493982252	-0.2223351988	 0.26924
C	-0.0135448641	 1.4189829907	 0.0028438702	-0.1331
C	-0.8921761495	 1.7831728186	 1.2191332544	-0.245541
C	-0.4905355973	 1.1787620189	 2.5437886946	-0.053367
C	 0.7247931158	 1.2113573141	 3.0896229238	-0.047951
C	 1.9606281029	 1.8351533318	 2.4859954087	-0.228245
C	 2.259780328	 1.4243912322	 1.0387827626	-0.169474
N	 1.3224768694	 2.00710962	 0.0709410064	-0.283381
H	-0.4966968327	 1.85913	-0.8774198262	 0.125373
H	-0.8781278251	 2.8791613677	 1.2806198163	 0.126714
H	-1.9202114983	 1.4911590603	 0.9845739579	 0.11742
H	-1.2907596427	 0.7006121281	 3.1023025343	 0.094421
H	 0.8499897372	 0.7564339431	 4.0693024886	 0.092373
H	 1.8833421585	 2.9310630038	 2.5208592223	 0.117791
H	 2.8293507177	 1.5661808121	 3.0958545261	 0.104044
H	 3.2508246465	 1.8036238812	 0.7694243959	 0.102506
H	 2.3011072705	 0.3249631876	 0.9740220758	 0.11401
H	 1.7387266283	 1.9658687335	-0.8524933879	 0.231547
90.3234	94.6453	170.4392	241.0294	324.5128	335.8664	362.3502	438.0242	483.4687	577.6081	619.9132	704.0949	725.0088	775.1118	789.2382	844.1891	901.8089	916.2228	968.6715	999.4078	1020.5934	1063.7393	1071.383	1089.6276	1169.5497	1225.9168	1247.141	1264.8728	1276.4291	1315.4842	1354.1632	1367.0793	1376.606	1412.1997	1427.6086	1467.4169	1472.5027	1494.6755	1505.4668	1727.4472	2341.7139	2976.3766	3013.6084	3026.3466	3044.0724	3068.816	3074.2308	3084.5878	3146.0406	3170.2636	3533.9647
N#CC1CC=CCCN1	N#C[C@H]1CC=CCCN1	
InChI=1S/C7H10N2/c8-6-7-4-2-1-3-5-9-7/h1-2,7,9H,3-5H2	InChI=1S/C7H10N2/c8-6-7-4-2-1-3-5-9-7/h1-2,7,9H,3-5H2/t7-/m1/s1
