19
gdb 70033	3.14658	1.51089	1.31044	1.341	73.47	-0.2298	0.0811	0.3108	1024.7019	0.160775	-422.991496	-422.983859	-422.982915	-423.023468	30.417	
O	-0.0014940881	 1.3952229262	-0.0191204459	-0.465198
C	 0.0449437968	 0.0134997959	 0.0432421878	 0.376826
C	-0.1384228136	-0.8508852972	-1.1712972864	-0.35964
C	-1.1353297611	-0.9534353554	-0.0389755161	-0.125745
C	-0.5735144175	-1.7746310196	 1.1382421928	-0.038609
C	 0.1095710839	-3.1339722028	 0.9117531694	-0.26119
C	 1.6106180823	-2.7891781218	 0.7111459496	-0.080237
O	 1.8271505046	-1.4530294088	 1.1705124565	-0.267839
C	 0.5997954895	-0.7623933247	 1.2554510963	 0.03041
H	 0.7922892055	 1.7035641628	-0.4702870923	 0.287647
H	-0.5122383743	-0.2962737416	-2.0268481095	 0.115256
H	 0.5333877232	-1.6623688515	-1.429336367	 0.110972
H	-2.1835905461	-0.7301104276	-0.1926777817	 0.094346
H	-1.2451743873	-1.7817677539	 1.9973285488	 0.079715
H	-0.0194261937	-3.7701150369	 1.7914293709	 0.107974
H	-0.294380131	-3.6752314732	 0.0521924714	 0.10867
H	 2.2704388514	-3.4473879184	 1.2869088838	 0.10157
H	 1.9024998259	-2.8770304802	-0.3441046471	 0.099277
H	 0.6062347696	-0.1332725713	 2.1500881389	 0.085795
101.6191	160.25	248.4587	262.0332	268.3754	380.1368	477.9413	508.1087	600.0448	691.3777	707.4097	768.2987	778.6793	835.5105	878.532	909.0769	926.6127	954.2392	962.05	993.8202	1010.7341	1041.2174	1071.3389	1091.2452	1110.1243	1118.0717	1169.8608	1212.4449	1222.7879	1232.9665	1245.9046	1281.1385	1294.2786	1316.0545	1333.5623	1345.3812	1396.5873	1412.2616	1488.2242	1501.923	1538.827	3006.1346	3051.7853	3063.0038	3072.8328	3097.7228	3109.5972	3128.4301	3192.2442	3210.6414	3791.9705
OC12CC1C1CCOC21	O[C@]12C[C@H]1[C@H]1CCO[C@@H]21	
InChI=1S/C7H10O2/c8-7-3-5(7)4-1-2-9-6(4)7/h4-6,8H,1-3H2	InChI=1S/C7H10O2/c8-7-3-5(7)4-1-2-9-6(4)7/h4-6,8H,1-3H2/t4-,5+,6-,7-/m1/s1
