18
gdb 26027	3.17546	1.19923	0.96721	1.3664	84.48	-0.1984	0.0411	0.2395	1241.9417	0.147763	-364.819049	-364.810237	-364.809293	-364.853223	33.278	
C	-0.1669246497	 1.5489602852	 1.0695721785	-0.37598
C	-0.1324403497	 0.3084455663	 0.1396125748	-0.281356
C	 0.862918755	-0.6568758865	 0.6122482995	 0.310346
C	 1.6590618085	-1.4482915876	 1.0443383199	-0.461469
C	-1.4937780572	-0.3280278683	-0.0072086624	 0.329774
C	-2.5724960779	 0.0301306597	-0.787620827	-0.241796
C	-3.6344803989	-0.8698353478	-0.4931383149	-0.144779
C	-3.172587829	-1.7518449583	 0.4558747767	-0.096653
N	-1.8772896853	-1.4079285318	 0.7470535993	-0.285797
H	 0.8200297591	 2.0168079952	 1.1268510548	 0.121385
H	-0.8853563104	 2.2770704836	 0.6851329209	 0.125435
H	-0.4740916321	 1.2605535745	 2.0782733279	 0.126631
H	 0.1765124684	 0.6509049224	-0.8564870541	 0.12229
H	 2.3830061843	-2.1399051944	 1.3986868738	 0.199016
H	-2.5949156007	 0.8500117168	-1.4900918789	 0.087004
H	-4.6208038057	-0.8705122469	-0.9311379413	 0.09124
H	-3.6455964932	-2.5926951651	 0.9368499866	 0.113546
H	-1.2520321855	-1.9080746673	 1.3569824858	 0.261163
29.3994	119.6967	154.7635	197.965	234.8957	327.3303	361.5624	468.7432	528.3653	545.5328	627.542	632.7822	645.7086	684.9942	699.087	718.3583	792.2512	846.9638	860.7946	897.499	963.5682	1005.7574	1054.3786	1070.5675	1099.6336	1120.562	1147.2768	1245.0523	1280.7082	1310.5115	1324.0661	1401.1906	1438.5633	1470.6656	1487.1815	1489.5755	1499.3583	1604.9494	2230.2842	3022.8367	3044.156	3122.8272	3129.7979	3236.6924	3250.8464	3271.4977	3501.7574	3661.8289
CC(C#C)C1=CC=CN1	C[C@@H](C#C)c1ccc[nH]1	
InChI=1S/C8H9N/c1-3-7(2)8-5-4-6-9-8/h1,4-7,9H,2H3	InChI=1S/C8H9N/c1-3-7(2)8-5-4-6-9-8/h1,4-7,9H,2H3/t7-/m0/s1
