20
gdb 77604	1.84022	1.78702	1.66437	1.6356	78.71	-0.235	0.0203	0.2553	1042.4545	0.169777	-403.163758	-403.154573	-403.153629	-403.19705	34.546	
C	-0.0336681318	 1.5432575139	 0.0102384207	-0.418012
C	 0.0738047871	 0.0374509414	 0.0733690587	-0.121612
C	 1.3324009433	-0.741419067	-0.2178228688	 0.347298
C	 1.4410949352	-1.857437872	-1.2139232538	-0.476882
O	 2.5471471305	 0.0099348452	-0.0921364653	-0.24152
C	 2.6161654612	 0.3709039374	 1.2128350586	 0.067997
N	 1.6964173883	-0.0027831283	 2.0067832415	-0.294302
C	 0.7483621586	-0.7485080904	 1.1989032532	 0.255537
C	 0.0577962336	-1.8962196137	 1.8867626402	-0.471923
H	 0.8252264033	 2.0388982226	 0.4670898439	 0.132579
H	-0.1026677918	 1.8842810694	-1.0282258594	 0.118983
H	-0.9296802541	 1.8859077973	 0.5377713396	 0.121693
H	-0.8076049421	-0.4819503808	-0.298752062	 0.086493
H	 1.588160626	-1.468770465	-2.2273458156	 0.131985
H	 2.2814785054	-2.5169798738	-0.9754845307	 0.129281
H	 0.5241456203	-2.4528356984	-1.2126327308	 0.125486
H	 3.4829308539	 0.9661435259	 1.4747842645	 0.138684
H	-0.5757784795	-1.5269834272	 2.6996882769	 0.132447
H	-0.5761497623	-2.4512674438	 1.188966159	 0.111606
H	 0.7857122749	-2.5905213428	 2.3186025894	 0.124182
128.647	167.5745	174.0177	187.6976	204.7597	222.8485	243.1317	310.3611	372.1398	474.871	551.0452	598.188	630.3949	705.3839	725.7813	761.0732	905.5579	913.3534	928.1721	943.8546	971.9517	1042.1523	1080.2363	1090.4693	1121.7354	1136.0376	1149.1156	1189.1032	1220.2311	1285.2463	1312.9743	1337.4656	1411.669	1416.1797	1418.3572	1461.4223	1474.7347	1482.366	1490.8788	1494.9781	1499.1546	1507.1967	1666.9414	3034.465	3036.5769	3039.0444	3096.4383	3099.6982	3102.0935	3110.0261	3117.6466	3121.3041	3134.2832	3222.5747
CC1C2(C)OC=NC12C	C[C@H]1[C@@]2(C)OC=N[C@@]12C	
InChI=1S/C7H11NO/c1-5-6(2)7(5,3)9-4-8-6/h4-5H,1-3H3	InChI=1S/C7H11NO/c1-5-6(2)7(5,3)9-4-8-6/h4-5H,1-3H3/t5-,6+,7-/m1/s1
