19
gdb 38117	2.49498	2.20697	1.59778	1.6233	79.31	-0.2334	0.0041	0.2375	904.0414	0.162881	-385.861199	-385.854695	-385.853751	-385.891538	28.14	
C	-0.0255660939	 1.4793206537	 0.0061789428	-0.42149
C	 1.3420667424	 0.8117267724	 0.0149181369	-0.036266
C	 2.3174731437	 0.4237880904	 1.0734975631	-0.135106
C	 2.2809245805	-0.8564844869	 1.4646122407	-0.038287
C	 1.0844846068	-1.7274301562	 1.0641733651	 0.076606
C	-0.1420855348	-0.8302596391	 1.2702929938	-0.280671
C	 0.0776541941	-0.0190363493	-0.0046051795	 0.293075
C	 0.136231669	-1.1297229036	-1.0241326587	-0.142611
O	 1.0118089956	-2.0702800984	-0.349799943	-0.295232
H	-0.4296977479	 1.9185886723	 0.9130209098	 0.118538
H	-0.2840655244	 2.0217643453	-0.8981287309	 0.118038
H	 1.8158941294	 0.8814761918	-0.9648082735	 0.102017
H	 3.0884350759	 1.1115207758	 1.411097144	 0.090274
H	 3.0086811208	-1.2631582093	 2.1609593	 0.089604
H	 1.0830285069	-2.6723092616	 1.6116994123	 0.070491
H	-1.0863893733	-1.3846096986	 1.2211291628	 0.097146
H	-0.1060161574	-0.2578356636	 2.1959464832	 0.10435
H	-0.8332002235	-1.6085639964	-1.2256703125	 0.087731
H	 0.5964714099	-0.8423669287	-1.9744898865	 0.101794
216.2587	285.2644	338.75	373.9425	461.526	479.2623	511.1644	616.8053	642.4546	735.8065	766.6958	812.779	844.9901	867.3366	891.8437	913.4557	926.1624	971.8103	976.6874	983.0168	1002.6143	1038.3839	1072.2624	1088.83	1104.0172	1124.1753	1154.5929	1175.5114	1191.0459	1249.4664	1266.3933	1304.2832	1322.3834	1353.5568	1367.0333	1384.2257	1431.6555	1488.6645	1494.7469	1527.4221	1659.9457	2991.3526	3040.6133	3072.9689	3086.776	3091.5157	3121.4272	3138.8991	3151.6177	3178.2071	3205.9942
C1C2C=CC3CC12CO3	C1[C@H]2C=C[C@H]3C[C@@]12CO3	
InChI=1S/C8H10O/c1-2-7-4-8(5-9-7)3-6(1)8/h1-2,6-7H,3-5H2	InChI=1S/C8H10O/c1-2-7-4-8(5-9-7)3-6(1)8/h1-2,6-7H,3-5H2/t6-,7+,8-/m1/s1
