17
gdb 52917	2.59836	1.02954	0.8392	3.6799	78.88	-0.25	-0.035	0.215	1412.8089	0.132936	-421.783926	-421.774088	-421.773143	-421.822114	32.913	
C	 0.1002141332	 1.6308545202	 0.1146576729	-0.501932
C	 0.0694165006	 0.1762332988	 0.0815679812	 0.123328
C	 0.029298822	-1.0281392573	 0.0631959442	-0.040001
C	 0.0168909159	-2.4744990641	 0.0072380248	 0.000531
C	 0.1089729695	-3.2520338964	 1.3693744863	-0.107225
O	-1.0742622776	-3.9975530067	 1.070776707	-0.263291
C	-1.3377022826	-3.2207017141	-0.1151764354	-0.113064
C	 1.0803318277	-2.9680463336	-0.9729703518	 0.109959
O	 0.8995877965	-3.8155734942	-1.8048362172	-0.240107
H	 1.1196012575	 2.0012289789	 0.2678204323	 0.154186
H	-0.2706764713	 2.0563312245	-0.824069122	 0.155628
H	-0.5216454592	 2.0219195523	 0.9271483999	 0.154953
H	 0.9897998575	-3.8927618109	 1.5005413769	 0.115603
H	-0.005602087	-2.598630883	 2.2423480254	 0.113738
H	-2.2139296136	-2.5738558963	-0.0024593361	 0.108792
H	-1.4259541632	-3.8449651251	-1.0083205883	 0.135408
H	 2.0678241641	-2.4754786229	-0.8408496699	 0.093495
5.7091	58.7949	84.2456	108.159	126.9299	261.954	284.9027	303.7671	325.0393	443.3267	496.1248	517.608	660.7903	831.462	850.751	899.3414	977.8504	997.4584	1046.2576	1049.1449	1051.9054	1052.32	1073.3606	1157.1093	1167.9803	1208.941	1288.1923	1305.436	1359.7137	1413.2256	1418.1292	1476.0844	1476.5117	1502.2655	1528.3069	1831.8395	2363.5888	2902.5441	3012.9323	3030.4002	3042.5305	3065.0678	3093.2325	3093.3664	3107.4464
CC#CC1(COC1)C=O	CC#CC1(COC1)C=O	
InChI=1S/C7H8O2/c1-2-3-7(4-8)5-9-6-7/h4H,5-6H2,1H3	InChI=1S/C7H8O2/c1-2-3-7(4-8)5-9-6-7/h4H,5-6H2,1H3
