15
gdb 68967	2.67201	1.68105	1.27673	4.5451	69.8	-0.2717	-0.0114	0.2603	984.7791	0.112756	-416.821448	-416.813772	-416.812828	-416.853516	28.941	
C	-0.0492090263	 1.5283705205	-0.1140179572	-0.471967
C	 0.0299870893	 0.0380243027	 0.0086434927	 0.35876
C	-0.7920685829	-0.7886240417	 0.9433507408	-0.365464
C	 0.7279512826	-0.7964776491	 1.1076755243	 0.148498
N	 1.4261008725	-1.8588330986	 0.4180180354	-0.29712
C	 1.1687843301	-1.6857758786	-0.8163039094	 0.087304
O	 0.4130670824	-0.624273598	-1.1930556285	-0.237702
C	 1.3265818323	-0.2357772365	 2.285248251	 0.238723
N	 1.7783295071	 0.2568756163	 3.2289236075	-0.346577
H	 0.8781302581	 1.9303717744	-0.5307369619	 0.145898
H	-0.879892602	 1.8192124916	-0.7645031011	 0.143094
H	-0.209760731	 1.975719267	 0.8699042663	 0.148529
H	-1.3486479945	-0.2425616954	 1.6961481107	 0.148445
H	-1.2459518634	-1.7099793576	 0.5949128949	 0.140764
H	 1.5093143356	-2.316490587	-1.6276558957	 0.158815
125.0651	147.9743	179.6797	239.1313	317.6262	397.3468	421.625	509.4557	554.2782	572.0713	614.9026	689.2954	768.4333	796.1147	913.1802	926.3906	946.8203	964.0548	976.2402	1054.4978	1097.6355	1113.0554	1147.8017	1224.2033	1288.797	1335.2612	1372.6723	1426.1479	1467.9303	1476.289	1496.9681	1662.9209	2357.7715	3047.1489	3117.5307	3133.5716	3138.5955	3237.1243	3238.6523
CC12CC1(N=CO2)C#N	C[C@]12C[C@]1(N=CO2)C#N	
InChI=1S/C6H6N2O/c1-5-2-6(5,3-7)8-4-9-5/h4H,2H2,1H3	InChI=1S/C6H6N2O/c1-5-2-6(5,3-7)8-4-9-5/h4H,2H2,1H3/t5-,6-/m0/s1
