19
gdb 39519	2.94621	1.92422	1.54408	0.8977	79.96	-0.219	0.0111	0.2301	923.48	0.162743	-385.865769	-385.859126	-385.858182	-385.896427	27.948	
C	-0.0956098509	 1.4966287952	 0.0021004713	-0.26691
C	 1.3485123018	 1.9518058281	-0.0215736783	-0.122692
C	 2.1832591787	 0.962508655	-0.359517767	 0.217504
C	 3.5135241403	 0.7144684199	 0.2742641142	-0.315716
C	 3.1641720417	-0.3107390776	 1.4364935889	-0.056566
O	 1.763941924	-0.3828261798	 1.7241909144	-0.249586
C	 1.0332759938	-0.8557814491	 0.6197252891	 0.097178
C	 0.0356582242	-0.0120626489	-0.1856568911	-0.089052
C	 1.4274652812	-0.2889339068	-0.7107686006	-0.182559
H	-0.5487346459	 1.7627735821	 0.9654753709	 0.1175
H	-0.7321527296	 1.9411857849	-0.7762443252	 0.103068
H	 1.6644123866	 2.8870907844	 0.4294921285	 0.086909
H	 4.2554134639	 0.2623467707	-0.3931167554	 0.100114
H	 3.9401799827	 1.6330354957	 0.6862490654	 0.105189
H	 3.5355858708	-1.3086514872	 1.1670596626	 0.095551
H	 3.6402609344	-0.0088127066	 2.3719297931	 0.112079
H	 0.7839228152	-1.9141592036	 0.6919086887	 0.083988
H	-0.8159664118	-0.5676024639	-0.564352312	 0.081347
H	 1.685176959	-0.8999328424	-1.5697917677	 0.082655
154.813	252.3988	269.9095	347.1604	461.4146	512.6299	545.0884	650.9557	739.3638	768.1257	778.4345	798.1807	832.7133	848.9679	861.0255	902.8721	934.9658	962.1858	997.7515	1009.9823	1035.034	1055.6727	1069.649	1076.0047	1111.0614	1158.975	1184.7759	1204.0695	1214.9266	1269.1481	1274.9407	1300.9035	1309.941	1348.7597	1351.4424	1383.8651	1402.6153	1474.4465	1489.1345	1502.8991	1687.8416	3002.6801	3007.0425	3040.3044	3044.8016	3088.2576	3102.7126	3110.3664	3152.8363	3169.0761	3182.6758
C1C=C2CCOC3C1C23	C1[CH][C]2CCO[C@H]3[C@@H]1[C@@H]23	
InChI=1S/C8H10O/c1-2-6-7-5(1)3-4-9-8(6)7/h1,6-8H,2-4H2	InChI=1S/C8H10O/c1-2-6-7-5(1)3-4-9-8(6)7/h1,6-8H,2-4H2/t6-,7+,8-/m0/s1
