18
gdb 77601	2.28471	1.75087	1.39815	2.4013	71.52	-0.2326	0.0173	0.2498	1009.8843	0.146334	-439.084072	-439.075287	-439.074343	-439.116897	33.247	
C	-0.1010828338	 1.5388765799	-0.0857740546	-0.490418
C	 0.0375359704	 0.0523134928	 0.0372519529	 0.306094
O	 0.4004184375	-0.6016714547	-1.1839636158	-0.247124
C	 1.1557587394	-1.6649694228	-0.8054104208	 0.079845
N	 1.4057613633	-1.8419941498	 0.4279326747	-0.300183
C	 0.7215189528	-0.7718213148	 1.1358971195	 0.245943
C	 1.3779097408	-0.2532379081	 2.3862831506	-0.477132
C	-0.7876318516	-0.8085799073	 0.9718083811	-0.021687
O	-1.5175996373	-0.1662260676	 1.9738183001	-0.415738
H	 0.8508877947	 2.0036512753	-0.3591947105	 0.133767
H	-0.8384304608	 1.8000440663	-0.8529572553	 0.12931
H	-0.4316784402	 1.9591990977	 0.8664077361	 0.137712
H	 1.5054894424	-2.2856622264	-1.6214435801	 0.141836
H	 2.3485460475	 0.1985875097	 2.1598257128	 0.119806
H	 0.7447100488	 0.4867892778	 2.8786103711	 0.13418
H	 1.545350355	-1.079304279	 3.0840678392	 0.135835
H	-1.2224432426	-1.7287714417	 0.5785177469	 0.094525
H	-2.2911550262	 0.2413327928	 1.5689332121	 0.293432
144.1252	158.2829	177.9506	203.2895	259.378	280.7504	297.9232	331.2138	400.3141	460.1824	509.6684	593.4292	641.2347	684.9906	766.5443	830.1847	910.8337	923.7461	950.4517	972.0859	1029.3165	1091.442	1098.5052	1128.3565	1147.6455	1181.1503	1209.5994	1260.4	1311.8646	1334.6316	1354.6767	1408.5034	1419.1568	1442.9223	1482.1491	1490.1336	1493.0365	1504.8866	1669.6709	3038.109	3045.4938	3088.8172	3099.8186	3107.5534	3133.83	3141.349	3227.8024	3795.8346
CC12OC=NC1(C)C2O	C[C@@]12OC=N[C@]1(C)[C@H]2O	
InChI=1S/C6H9NO2/c1-5-4(8)6(5,2)9-3-7-5/h3-4,8H,1-2H3	InChI=1S/C6H9NO2/c1-5-4(8)6(5,2)9-3-7-5/h3-4,8H,1-2H3/t4-,5-,6+/m1/s1
