19
gdb 85675	2.45558	1.28388	1.10296	3.5746	76.56	-0.254	0.0158	0.2698	1189.6652	0.157791	-419.205217	-419.195648	-419.194704	-419.239145	35.808	
C	-1.0102190061	 1.1167615962	-0.0073552253	-0.413858
C	 0.0080704615	-0.0064313747	-0.0400778378	 0.03901
N	 1.3109313895	 0.3142378369	-0.6808590889	-0.328994
C	 2.0228279611	-0.5700789834	 0.2628741009	-0.175549
C	 3.33873834	-0.1140728356	 0.700504826	 0.288339
N	 4.3723217723	 0.2332830063	 1.0855730371	-0.333999
C	 0.7846768235	-0.4346684492	 1.2396982116	 0.353894
C	 0.9554414176	 0.6340834324	 2.3058315598	-0.45944
O	 0.2952944667	-1.6408613845	 1.7609220596	-0.464182
H	-0.5785567409	 2.0356870105	 0.3967439268	 0.126877
H	-1.3715415737	 1.3322338897	-1.0185455487	 0.121258
H	-1.8759347731	 0.832012094	 0.5997997429	 0.12487
H	-0.4514580989	-0.9179266944	-0.4507488861	 0.082383
H	 1.4021198202	 0.0566753372	-1.6578076187	 0.229022
H	 2.0957596901	-1.6196660346	-0.0526407113	 0.115126
H	 1.3263971176	 1.5662700343	 1.8741011896	 0.153077
H	 0.0008032655	 0.8280087127	 2.8034069578	 0.128164
H	 1.6839404245	 0.3096279062	 3.0582643771	 0.127806
H	 0.6652015227	-1.77195965	 2.6407381075	 0.286197
82.1911	132.0604	190.4723	202.3544	235.689	270.7172	281.5109	303.2983	349.1942	392.0598	425.9661	488.3107	555.1237	578.1565	620.178	723.6538	824.9342	871.2218	922.5001	962.6082	978.3441	1023.5946	1057.7331	1098.4513	1107.6564	1157.8406	1172.0702	1173.7543	1220.3785	1315.3557	1341.7187	1373.5484	1387.5364	1404.3264	1413.4615	1426.4643	1480.3397	1488.2127	1495.9984	1503.833	2349.8147	2992.2882	3015.1943	3034.7266	3038.5658	3100.9597	3104.1663	3125.1526	3134.36	3528.4492	3805.8581
CC1NC(C#N)C1(C)O	C[C@H]1N[C@@H](C#N)[C@]1(C)O	
InChI=1S/C6H10N2O/c1-4-6(2,9)5(3-7)8-4/h4-5,8-9H,1-2H3	InChI=1S/C6H10N2O/c1-4-6(2,9)5(3-7)8-4/h4-5,8-9H,1-2H3/t4-,5+,6-/m1/s1
