16
gdb 30430	3.33422	1.19523	0.89027	3.7172	71.76	-0.1888	0.0474	0.2362	1271.921	0.123986	-471.210012	-471.200802	-471.199858	-471.244868	32.96	
C	-0.0235008564	 1.3899504684	-0.1163633233	-0.329662
N	-0.0508221538	-0.059139357	-0.1715762586	-0.365548
C	-1.1440954691	-0.6631802771	-0.0967404131	 0.525356
O	-2.4078728296	-0.1010348629	 0.0495048233	-0.244825
C	-3.3023846953	-1.1459234101	 0.1044335929	 0.312403
N	-4.6411979441	-0.8103994984	 0.1538429739	-0.596993
C	-2.650506067	-2.3056174225	 0.0061195165	 0.167325
N	-3.1109530681	-3.6111952924	 0.0049130174	-0.606716
O	-1.2702107492	-2.0100385555	-0.1508099592	-0.250748
H	 0.4588490777	 1.7158458768	 0.8135760128	 0.121901
H	 0.5904009124	 1.7690284306	-0.9407454281	 0.12422
H	-1.0109129448	 1.8643763045	-0.1741723248	 0.11749
H	-4.8482322453	-0.1172738848	 0.8646140532	 0.258688
H	-5.2140306135	-1.6358471309	 0.28018929	 0.264624
H	-2.9580260544	-4.0878165682	-0.879343695	 0.251643
H	-2.7010472695	-4.1755249405	 0.7433223421	 0.250843
24.5379	109.7278	188.3205	205.7305	241.5363	251.451	294.8617	305.4529	374.7758	393.938	580.59	619.7292	657.7586	667.7928	722.9367	777.8078	795.7556	823.9503	906.267	969.8612	1099.8574	1135.6581	1138.0988	1176.87	1220.3026	1230.2061	1349.8848	1410.3642	1447.6959	1494.8128	1503.5184	1629.5266	1663.5459	1811.0872	1877.4477	3008.9914	3065.7705	3078.9053	3483.2082	3519.1333	3543.5865	3622.1844
CN=C1OC(N)=C(N)O1	CN=c1oc(N)c(N)o1	
InChI=1S/C4H7N3O2/c1-7-4-8-2(5)3(6)9-4/h5-6H2,1H3	InChI=1S/C4H7N3O2/c1-7-4-8-2(5)3(6)9-4/h5-6H2,1H3
