18
gdb 75888	2.44523	1.55291	1.19808	2.6159	67.54	-0.254	0.0204	0.2744	1068.7485	0.147245	-476.267467	-476.258532	-476.257588	-476.300545	34.277	
C	-0.0427187595	 1.5475973064	-0.0157026319	-0.435826
C	-0.0255824472	 0.0180736037	-0.0384745028	 0.342198
O	-1.3245713646	-0.5069465835	-0.2586532473	-0.477199
C	 0.8803633527	-0.5346083403	-1.1729464509	-0.201778
N	 2.1886437602	-0.6371152043	-0.5382929326	-0.3185
C	 2.1469642703	-0.5838493081	 0.8170404312	 0.38726
O	 3.0715294567	-0.5258359651	 1.6035979602	-0.401331
C	 0.670054291	-0.5653033859	 1.214757612	-0.015782
O	 0.4744336321	 0.1435666131	 2.4077886369	-0.444975
H	 0.9712642533	 1.9572909763	 0.024310188	 0.126937
H	-0.5400658647	 1.9215328179	-0.9147007574	 0.119919
H	-0.5726544151	 1.9079695597	 0.8696873263	 0.134645
H	-1.9093184905	-0.1337393103	 0.4098360724	 0.286522
H	 0.4981104149	-1.5088903593	-1.4997357491	 0.126167
H	 0.9098672658	 0.1345629131	-2.0374745387	 0.119043
H	 3.0590499584	-0.6843284036	-1.0436219118	 0.258678
H	 0.3292999751	-1.6101057113	 1.3147102532	 0.098617
H	 1.3433197512	 0.1602225815	 2.8387733223	 0.295405
88.7333	164.2608	232.0369	250.1275	264.1877	290.4121	335.3062	349.3168	401.4897	429.8375	475.5287	539.7194	555.2184	575.5433	678.464	713.4849	797.5054	910.962	942.9833	958.3674	983.9231	1054.862	1102.1864	1146.4577	1165.6918	1205.3692	1224.8337	1260.0055	1299.5169	1347.2251	1349.7228	1384.6588	1408.4099	1424.7269	1451.3681	1488.7427	1494.7169	1527.855	1827.8223	2962.9772	3034.8806	3044.1598	3088.2579	3116.7114	3128.6924	3642.0241	3702.8183	3811.1149
CC1(O)CNC(=O)C1O	C[C@@]1(O)CNC(=O)[C@H]1O	
InChI=1S/C5H9NO3/c1-5(9)2-6-4(8)3(5)7/h3,7,9H,2H2,1H3,(H,6,8)	InChI=1S/C5H9NO3/c1-5(9)2-6-4(8)3(5)7/h3,7,9H,2H2,1H3,(H,6,8)/t3-,5-/m1/s1
