18
gdb 85205	2.44561	1.18871	0.96392	2.6266	74.69	-0.2515	-0.0306	0.2208	1267.9356	0.146224	-439.121818	-439.112545	-439.1116	-439.157104	33.072	
C	-0.3014843335	 1.4119978471	 0.1227590294	-0.395662
C	 0.0520659845	-0.069424799	 0.0888843903	-0.035438
C	 1.1481350004	-0.4366545677	-0.964946007	-0.34655
C	 2.1599456393	-0.3908494585	 0.1878737103	 0.362795
O	 3.3184072858	-0.1012565769	 0.2789262131	-0.30133
C	 1.0439337782	-0.5253172863	 1.2317693964	-0.045769
N	 1.1969541827	 0.19541062	 2.4596564828	-0.289673
C	 0.7050085952	-0.269632145	 3.6448799631	 0.151187
O	 0.0091640192	-1.2539911946	 3.7620176851	-0.314689
H	 0.5966725693	 2.0412519194	 0.1392356496	 0.114929
H	-0.8827867709	 1.6917359247	-0.7611341349	 0.125295
H	-0.8928575163	 1.6540449185	 1.0106342821	 0.130549
H	-0.8499295587	-0.6813919496	 0.0398181835	 0.092616
H	 1.0361374997	-1.446191336	-1.3713265084	 0.134907
H	 1.3265132234	 0.2620527296	-1.785227577	 0.130901
H	 0.853384889	-1.576462971	 1.4715289032	 0.142609
H	 1.8567655812	 0.9583577024	 2.4806015797	 0.259156
H	 1.0093229314	 0.3671010728	 4.4978876987	 0.084167
29.2988	82.896	127.5634	167.2545	220.8214	225.8664	304.67	357.8501	415.5895	507.6278	525.5096	573.5511	703.3749	725.3478	801.3468	831.104	868.6979	915.153	999.2397	1028.7298	1033.1121	1079.8523	1097.7304	1129.512	1132.8376	1195.8036	1225.3473	1242.4137	1272.5733	1341.9387	1369.1406	1415.7434	1427.2824	1446.3782	1493.1561	1497.6799	1518.2975	1805.9317	1882.3347	2950.2571	3029.2546	3064.3282	3071.2344	3086.8249	3105.3223	3113.1417	3125.6316	3620.3624
CC1CC(=O)C1NC=O	C[C@H]1CC(=O)[C@H]1NC=O	
InChI=1S/C6H9NO2/c1-4-2-5(9)6(4)7-3-8/h3-4,6H,2H2,1H3,(H,7,8)	InChI=1S/C6H9NO2/c1-4-2-5(9)6(4)7-3-8/h3-4,6H,2H2,1H3,(H,7,8)/t4-,6-/m0/s1
