17
gdb 126878	5.17718	0.88111	0.80727	1.7872	73.49	-0.1916	0.0429	0.2345	1420.944	0.136684	-451.337202	-451.328265	-451.327321	-451.371364	32.778	
C	-0.0766262766	 1.422045934	-0.2990215452	-0.363649
C	-0.1019795203	-0.0315212995	 0.1943115997	-0.145807
N	-1.4357799927	-0.6101292589	 0.1529724447	-0.372645
C	-1.7889582599	-1.2054691395	-0.9121465165	 0.485218
N	-1.1367239239	-1.485503128	-2.1169202182	-0.330946
N	-2.0045597974	-2.0846276006	-3.0588657794	-0.340812
C	-3.0813401846	-2.2885772256	-2.3816579291	 0.494261
O	-4.1868260132	-2.8998873433	-2.8150071428	-0.41443
N	-3.0298628254	-1.8259243346	-1.0988351984	-0.404916
H	 0.9250231407	 1.8532618239	-0.197174936	 0.107934
H	-0.3705889319	 1.4945608152	-1.3525066621	 0.100539
H	-0.7770154284	 2.0307550561	 0.2801071622	 0.126893
H	 0.6297001381	-0.6290526541	-0.3764184656	 0.082103
H	 0.2371201706	-0.052017949	 1.2364906445	 0.100571
H	-0.4647493325	-0.8466036281	-2.5072200932	 0.271481
H	-4.0240944443	-3.1654921973	-3.7299429055	 0.320852
H	-3.758248778	-1.8503727407	-0.4075758489	 0.283355
47.8449	82.4186	179.4838	192.2421	268.075	344.7025	360.5181	393.1958	430.4955	436.7933	451.8388	552.5837	668.1338	688.2411	734.1719	750.6663	813.8442	898.9352	986.0049	1030.1827	1063.9618	1075.9164	1119.3736	1170.7848	1219.1354	1282.7761	1297.6562	1343.0749	1369.5494	1388.3824	1400.9851	1487.7705	1496.8999	1522.1166	1582.14	1707.085	1775.2312	2952.3884	3027.1164	3042.6626	3093.3505	3112.9821	3665.9441	3697.5303	3792.0988
CCN=C1NN=C(O)N1	CCN=c1[nH]nc(O)[nH]1	
InChI=1S/C4H8N4O/c1-2-5-3-6-4(9)8-7-3/h2H2,1H3,(H3,5,6,7,8,9)	InChI=1S/C4H8N4O/c1-2-5-3-6-4(9)8-7-3/h2H2,1H3,(H3,5,6,7,8,9)
