17
gdb 37161	4.07694	1.85309	1.62642	2.9431	74.69	-0.2207	0.0735	0.2942	844.0742	0.139159	-380.711512	-380.705875	-380.704931	-380.741085	25.041	
C	-0.0571217128	 1.5442229264	 0.0085890443	-0.277412
N	 1.4619939787	 1.3045856836	-0.043511243	-0.198084
C	 1.2819611066	 0.1673666222	 0.9952065861	 0.003002
C	 1.8532345919	-0.9912112649	 0.1707034156	-0.096435
C	 0.7940186203	-2.1132164963	 0.3242039433	-0.044492
N	-0.0246495536	-2.0207097069	 1.5617089976	-0.331787
C	-0.5264572523	-1.4036434422	 0.3099475959	-0.231011
C	-0.0015803896	 0.0116915111	 0.1435883288	 0.316976
C	 1.2098556153	 0.0001309274	-0.8318888616	-0.010897
H	-0.3738836817	 2.1253860205	 0.8798660979	 0.108654
H	-0.4649430382	 1.9687221211	-0.9142743466	 0.102973
H	 1.338110056	 0.3670339501	 2.0629614448	 0.091521
H	 2.9083993122	-1.2657620869	 0.1588259697	 0.072042
H	 0.9323314022	-3.0786159456	-0.1500486498	 0.093502
H	-0.4995883145	-2.9092988227	 1.7118485191	 0.230312
H	-1.3973891035	-1.8034871877	-0.1961189875	 0.093942
H	 1.1941054031	-0.0047368892	-1.9235524546	 0.077194
287.1551	336.5844	418.2234	479.4924	550.2978	679.0916	719.7892	776.2596	807.8594	813.6179	856.0324	858.2198	862.7457	880.8965	893.8979	910.7602	931.2277	939.0094	997.8257	1030.4952	1063.1108	1089.0223	1103.0601	1113.9955	1130.7445	1136.5994	1180.996	1193.4859	1198.2699	1203.376	1205.4438	1253.6949	1293.8401	1308.0681	1345.7542	1387.231	1513.9651	3042.0832	3093.4168	3106.2971	3111.6519	3142.4448	3171.3847	3182.4549	3483.9409
C1N2C3C4C5NC5C13C24	C1N2[C@@H]3[C@H]4[C@H]5N[C@H]5[C@@]13[C@@H]24	
InChI=1S/C7H8N2/c1-7-4-3(8-4)2-5(7)9(1)6(2)7/h2-6,8H,1H2	InChI=1S/C7H8N2/c1-7-4-3(8-4)2-5(7)9(1)6(2)7/h2-6,8H,1H2/t2-,3-,4-,5-,6+,7+/m1/s1
