21
gdb 122909	4.71937	0.55012	0.50894	3.5697	81.62	-0.2567	0.0263	0.283	2154.2644	0.181183	-420.409437	-420.398446	-420.397502	-420.446933	37.815	
C	-0.1170332562	 1.5329016219	-0.0393411749	-0.384968
C	-0.0287626743	 0.0177670776	 0.0256699106	-0.030096
O	-1.3391839616	-0.5121537793	-0.0091453286	-0.245935
C	-1.3724520461	-1.9194366167	 0.0518057868	-0.056325
C	-2.8367934384	-2.3459313172	 0.0543039937	-0.194009
C	-3.0043538588	-3.8750546342	 0.0429303422	-0.136977
N	-2.3957629042	-4.4778827886	 1.2325403907	-0.493385
C	-4.4325219177	-4.2306502232	-0.1169276261	 0.257384
N	-5.5453581209	-4.5336573067	-0.2004228421	-0.320714
H	 0.8836474771	 1.974426361	-0.0149068797	 0.115537
H	-0.6141588477	 1.8491082279	-0.9607433015	 0.127475
H	-0.6889568637	 1.920621294	 0.8084236395	 0.127178
H	 0.5610412856	-0.3725918121	-0.8213190216	 0.085608
H	 0.48508797	-0.3024430587	 0.9478736642	 0.086741
H	-0.8505625371	-2.3585240929	-0.8176197471	 0.082145
H	-0.8616020389	-2.2892302296	 0.9525604298	 0.108728
H	-3.3376930138	-1.9288607047	 0.9354807315	 0.119924
H	-3.3356030627	-1.9219116438	-0.8224059663	 0.130419
H	-2.4765231922	-4.2769098922	-0.8312177984	 0.133079
H	-2.9026334208	-4.1811021104	 2.0625023731	 0.242254
H	-2.4763915777	-5.4895112823	 1.1928512342	 0.245938
45.6019	57.9228	83.0445	125.8086	130.7833	174.7066	222.3667	246.8746	271.1113	296.292	379.9611	392.4579	494.5494	585.3755	588.4403	802.3136	821.3293	845.6578	892.6117	953.2668	957.8672	1038.3132	1046.7313	1077.215	1137.0838	1154.8133	1169.3848	1180.7427	1211.7387	1274.2927	1285.5121	1295.351	1316.9649	1355.8721	1392.135	1395.1122	1410.0825	1453.5745	1483.5433	1488.501	1499.6149	1518.8528	1539.3139	1662.6852	2345.0742	2942.1272	2956.4481	2978.544	3015.7247	3034.5839	3045.5748	3051.7154	3099.6344	3120.1812	3122.0843	3491.0566	3571.5252
CCOCCC(N)C#N	CCOCC[C@@H](N)C#N	
InChI=1S/C6H12N2O/c1-2-9-4-3-6(8)5-7/h6H,2-4,8H2,1H3	InChI=1S/C6H12N2O/c1-2-9-4-3-6(8)5-7/h6H,2-4,8H2,1H3/t6-/m1/s1
