15
gdb 49055	2.09596	1.80763	1.33737	3.9736	66.63	-0.2424	-0.0527	0.1897	992.9508	0.1103	-457.741861	-457.733774	-457.73283	-457.775484	28.741	
O	-0.4743476119	 0.4598827478	-0.3792322739	-0.252138
C	 0.0968206082	 1.196181676	 0.3849627726	 0.067516
C	 1.3712415703	 1.9030559103	 0.034122325	 0.244791
O	 1.7203440209	 2.9872394081	 0.917455604	-0.323071
C	 1.8871541424	 3.9025608785	-0.1997106545	-0.085768
C	 1.641307164	 2.7873761489	-1.2297290364	-0.137762
C	 2.8964624051	 1.9495423995	-1.5920829495	-0.361874
C	 2.6625584726	 1.0847530575	-0.340757375	 0.380014
O	 3.228894518	 0.1701684534	 0.1682873791	-0.271988
H	-0.2748904853	 1.4068722267	 1.4115251796	 0.09934
H	 1.1219812135	 4.6863486582	-0.1757917972	 0.120507
H	 2.8811866314	 4.3631270054	-0.2093876654	 0.117145
H	 0.8971657637	 2.9445683954	-2.0060926299	 0.111032
H	 2.768324283	 1.3497995787	-2.4993166146	 0.153711
H	 3.855849824	 2.4711656656	-1.6523714239	 0.138545
51.8571	81.7972	153.1427	187.7409	238.132	346.7245	438.5254	482.1962	553.2804	609.0082	692.8219	774.6829	820.7155	848.8193	908.3695	991.4915	1007.314	1034.1415	1041.9976	1074.1606	1092.7712	1121.547	1150.9243	1183.0865	1222.0518	1257.3866	1312.2734	1343.2087	1395.4764	1430.3012	1519.7441	1811.6735	1905.0159	2900.847	3031.3645	3056.0781	3081.0035	3110.2875	3154.2435
O=CC12OCC1CC2=O	O=C[C@]12OC[C@H]1CC2=O	
InChI=1S/C6H6O3/c7-3-6-4(2-9-6)1-5(6)8/h3-4H,1-2H2	InChI=1S/C6H6O3/c7-3-6-4(2-9-6)1-5(6)8/h3-4H,1-2H2/t4-,6+/m1/s1
