15
gdb 131556	3.10966	1.6257	1.15384	4.0141	67.58	-0.2091	0.0079	0.217	1007.12	0.115356	-453.935834	-453.928586	-453.927642	-453.967772	27.436	
O	-0.0846184525	 1.4452244588	-0.1374314774	-0.424762
C	 0.0058456212	 0.0308693675	 0.0057760568	-0.090621
C	 0.5064293158	-0.4420398608	 1.4247364632	-0.108242
O	-0.6186221987	-0.9259592206	 2.2024325453	-0.288867
C	-1.6333597709	-1.0488499435	 1.3035076066	 0.292689
C	-1.353165988	-0.5710677165	 0.0539790917	 0.312622
N	-2.4752946006	-0.757061082	-0.6847888814	-0.327637
N	-3.4569992874	-1.3343849434	 0.0344139254	-0.215277
C	-2.95481373	-1.5231395031	 1.2641672809	-0.150992
H	 0.8050698835	 1.788426289	-0.2741261235	 0.284478
H	 0.6586242458	-0.3809749778	-0.7767144418	 0.08497
H	 1.2235143771	-1.2644181405	 1.3254892295	 0.115873
H	 0.9688191332	 0.3864833002	 1.9675280347	 0.120155
H	-2.6599981438	-0.5025110945	-1.6394142656	 0.276784
H	-3.5616920248	-1.9782364527	 2.0303070956	 0.118828
85.2479	143.7449	276.9967	286.6602	336.9825	423.2514	456.5943	497.3947	638.9986	685.4141	705.3521	750.231	784.7441	852.7919	876.6651	975.4552	978.6666	1006.3879	1086.9875	1111.5782	1143.7077	1209.8595	1236.8461	1244.4997	1277.1532	1337.2798	1354.4989	1399.0864	1423.6491	1457.1919	1492.1508	1570.6418	1628.5393	2996.405	3043.2613	3108.4246	3265.3052	3682.3296	3804.629
OC1COC2=C1NN=C2	O[C@H]1COc2c1[nH]nc2	
InChI=1S/C5H6N2O2/c8-3-2-9-4-1-6-7-5(3)4/h1,3,8H,2H2,(H,6,7)	InChI=1S/C5H6N2O2/c8-3-2-9-4-1-6-7-5(3)4/h1,3,8H,2H2,(H,6,7)/t3-/m0/s1
