19
gdb 87938	3.89123	1.03377	0.93725	3.3704	75.61	-0.2341	-0.0133	0.2208	1271.4033	0.158659	-423.041542	-423.033023	-423.032078	-423.074911	32.805	
O	-0.1332656727	 1.4102516071	-0.0858512102	-0.421029
C	-0.0494628869	 0.020071822	 0.0451205674	 0.035157
C	-0.5260666058	-0.6451714807	 1.3173840301	-0.378865
C	-1.3425395082	-0.7247729914	 0.0379894964	 0.340154
C	-2.6834172812	 0.008075115	-0.0561089458	-0.280653
C	-3.722034363	-1.1210116563	 0.039318685	-0.320787
C	-3.0289618194	-2.3572638524	-0.5460285199	 0.405897
O	-3.5625379524	-3.3919829785	-0.8488600465	-0.31231
C	-1.5290759214	-2.0498475904	-0.6835251713	-0.410639
H	 0.5575308412	 1.8033461334	 0.4576743092	 0.289376
H	 0.7963953833	-0.4364465428	-0.47132996	 0.085045
H	-0.0047806274	-1.5319532024	 1.664543924	 0.111298
H	-0.8947021358	 0.0076680371	 2.1024029357	 0.113843
H	-2.7991862477	 0.7733904458	 0.7124561628	 0.110329
H	-2.7590622586	 0.5139108506	-1.0260699507	 0.114197
H	-3.9571940287	-1.3535878977	 1.086427653	 0.132032
H	-4.6704158202	-0.9272053926	-0.4668687683	 0.126568
H	-1.3096682173	-1.959963572	-1.7569898147	 0.132998
H	-0.9261841275	-2.8776857236	-0.3016977563	 0.127389
58.2098	125.9612	164.8365	234.5203	292.6025	349.7144	374.7265	454.9473	470.3637	493.2106	572.347	596.2616	719.858	740.4112	809.1203	844.4262	880.3458	930.7441	940.4447	978.3678	1005.0884	1025.9564	1042.381	1086.6867	1131.5381	1152.0425	1171.6685	1192.6233	1210.5301	1248.22	1260.3213	1288.8277	1309.6479	1316.2438	1358.0415	1428.7919	1447.7696	1449.8603	1493.6741	1499.8105	1848.8026	3018.8725	3032.9195	3043.2256	3085.6926	3097.9789	3108.8573	3117.3894	3120.7997	3211.4399	3806.1569
OC1CC11CCC(=O)C1	O[C@H]1C[C@]21CCC(=O)C2	
InChI=1S/C7H10O2/c8-5-1-2-7(3-5)4-6(7)9/h6,9H,1-4H2	InChI=1S/C7H10O2/c8-5-1-2-7(3-5)4-6(7)9/h6,9H,1-4H2/t6-,7-/m0/s1
