25
gdb 91913	2.28653	1.43071	0.99354	0.2476	92.08	-0.2588	0.0785	0.3374	1320.0637	0.230906	-352.373002	-352.363897	-352.362953	-352.406192	36.706	
C	 0.0148504797	 1.5786519768	-0.0117628965	-0.404458
C	 0.0172868968	 0.0475577277	 0.0129756242	 0.040056
C	 0.6755255129	-0.5272367864	-1.2560590772	-0.214594
C	 0.9212355596	-2.0353564925	-1.2029002325	-0.051838
C	 2.1865975473	-2.5698501854	-0.5705345426	-0.289797
C	 0.8614653619	-2.7687771877	 0.1213236714	 0.004571
C	 0.5078119077	-2.0288450574	 1.4047244966	 0.006128
C	 1.2629325967	-2.598773544	 2.6122559106	-0.396055
C	 0.7000918121	-0.5089102839	 1.2702338227	-0.198112
H	 1.0381878582	 1.9726783423	 0.0010548959	 0.110346
H	-0.4753985228	 1.9623858656	-0.913249353	 0.107931
H	-0.5104586583	 1.9906532746	 0.8565281936	 0.107435
H	-1.0280749309	-0.2953245806	 0.032521199	 0.06647
H	 0.0447292274	-0.29329508	-2.1210481332	 0.092701
H	 1.624845741	-0.0008844565	-1.4277785546	 0.092176
H	 0.5607965798	-2.586476605	-2.0661609869	 0.077679
H	 2.6700435545	-3.4328735143	-1.0157931834	 0.102563
H	 2.8807595912	-1.842209933	-0.1598618305	 0.105402
H	 0.470401987	-3.782792439	 0.0846013688	 0.074432
H	-0.5668341504	-2.1934534259	 1.5757130395	 0.067407
H	 2.3440609408	-2.4659318158	 2.4952184219	 0.113228
H	 0.9603776915	-2.100140778	 3.5397512188	 0.105055
H	 1.0719910254	-3.6708820179	 2.7300887103	 0.106953
H	 1.7712107648	-0.2595915672	 1.2477761463	 0.087597
H	 0.2959734362	-0.0198798766	 2.1653207308	 0.086723
100.4845	159.6402	213.2622	237.3682	247.4669	257.5664	349.8109	370.4957	412.7694	427.8516	437.1002	541.4399	624.0065	738.1662	805.3202	837.765	859.2318	870.4474	897.1675	915.9839	958.5316	972.8109	983.8077	1028.4992	1045.1961	1059.6048	1071.1823	1112.5938	1119.5348	1133.3866	1149.1634	1163.0726	1194.203	1216.4484	1245.0435	1290.3384	1299.8621	1318.826	1350.6964	1368.9408	1373.4449	1385.115	1393.7898	1406.0599	1410.8059	1420.5398	1485.1792	1487.5534	1495.0992	1497.2502	1500.5468	1501.0224	1507.4988	2982.4864	2987.755	3003.9182	3010.1416	3023.0051	3026.1212	3047.0607	3056.2639	3088.4877	3093.2432	3094.0864	3096.9881	3121.6229	3126.3424	3145.6338	3203.9994
CC1CC2CC2C(C)C1	C[C@H]1C[C@H]2C[C@H]2[C@@H](C)C1	
InChI=1S/C9H16/c1-6-3-7(2)9-5-8(9)4-6/h6-9H,3-5H2,1-2H3	InChI=1S/C9H16/c1-6-3-7(2)9-5-8(9)4-6/h6-9H,3-5H2,1-2H3/t6-,7+,8+,9+/m1/s1
