22
gdb 101402	2.95429	1.0083	0.80342	2.4855	83.6	-0.2613	0.0284	0.2897	1481.0606	0.193696	-404.358653	-404.348827	-404.347883	-404.393646	36.229	
C	 0.0032416947	 1.5928229321	 0.1516563941	-0.392407
C	 0.0435101204	 0.0661400685	 0.0312618662	-0.171303
C	 0.7393433665	-0.4567964633	-1.2400251698	 0.019567
C	 2.2294709504	-0.0905668749	-1.2973881852	-0.409398
C	 0.5647929511	-1.9773344293	-1.3470825114	-0.126177
C	-0.8473244981	-2.5484488026	-1.6141730341	-0.113093
O	-0.3772538143	-3.1504684245	-2.8607812682	-0.252849
C	 0.8888274009	-2.6350069743	-2.6782411335	 0.429624
N	 1.9065575227	-2.7073658887	-3.4085594387	-0.545947
H	 1.0060512481	 2.0223059019	 0.2304321649	 0.123634
H	-0.4852322253	 2.0451763662	-0.7187900715	 0.115525
H	-0.5558835632	 1.8981663062	 1.0414464426	 0.11417
H	 0.5477230914	-0.3589473806	 0.9103194229	 0.095163
H	-0.9856742782	-0.315580231	 0.0587027323	 0.091623
H	 0.2404671227	-0.0054121383	-2.110709258	 0.074547
H	 2.3721414622	 0.9925108965	-1.3414998548	 0.112585
H	 2.7534839346	-0.4614744255	-0.4078234732	 0.108336
H	 2.7024910337	-0.5364822258	-2.1756738714	 0.157548
H	 1.0735162282	-2.4719314573	-0.5127249533	 0.10323
H	-1.2136941315	-3.3124488752	-0.9247667184	 0.120217
H	-1.6291384419	-1.8102087157	-1.8139789924	 0.118436
H	 1.7165709048	-3.2395738943	-4.2596999391	 0.22697
75.9936	84.7283	132.0993	139.5791	225.4707	239.8193	254.5888	298.7438	351.9814	381.9334	447.4005	508.8717	642.2172	740.2516	779.288	829.0421	858.9286	870.1915	942.1564	965.7479	972.489	991.245	999.4613	1018.0299	1051.0155	1080.4918	1147.2056	1157.6964	1179.7808	1193.835	1226.2743	1243.8007	1273.3909	1306.2218	1347.9451	1363.3432	1375.738	1393.1753	1413.3444	1418.2515	1483.6748	1496.8749	1501.2894	1508.3734	1516.0493	1517.1217	1816.0312	2993.3584	3009.4988	3031.2929	3035.0279	3042.3546	3057.3154	3059.6896	3100.1052	3100.8958	3112.7633	3117.3393	3129.3235	3472.3715
CCC(C)C1COC1=N	CC[C@@H](C)[C@H]1CO[C]1[NH]	
InChI=1S/C7H13NO/c1-3-5(2)6-4-9-7(6)8/h5-6,8H,3-4H2,1-2H3	InChI=1S/C7H13NO/c1-3-5(2)6-4-9-7(6)8/h5-6,8H,3-4H2,1-2H3/t5-,6-/m1/s1
