18
gdb 67017	2.18606	1.73719	1.57649	2.7528	76.18	-0.2162	0.0055	0.2217	992.5634	0.14688	-401.914551	-401.906159	-401.905215	-401.947261	31.876	
C	-0.1205360668	 1.5456101279	-0.0548093526	-0.52362
C	 0.0310971268	 0.0624456154	-0.0236890042	 0.292556
C	 0.0783885725	-1.0347830841	-1.0148537616	-0.07499
N	 1.2933679162	-1.6286209763	-0.4455636228	-0.346368
C	 0.9457305495	-0.9229079385	 0.8310446801	 0.134483
C	 2.038801246	-0.5980759213	 1.8027699964	-0.505034
C	-0.4113855834	-1.5264362638	 1.2832404252	 0.412193
O	-0.8079087694	-1.940861216	 2.3391346895	-0.349358
C	-1.0615542016	-1.0624898763	 0.0238646077	-0.275144
H	 0.8252319123	 2.031056305	-0.3184320763	 0.138007
H	-0.8689553156	 1.8435163142	-0.7958050019	 0.13349
H	-0.4408374555	 1.9343685408	 0.9176211803	 0.137313
H	-0.1366698905	-1.0219517176	-2.0771519196	 0.107667
H	 1.2528479736	-2.6474329093	-0.3545942225	 0.2117
H	 2.8314774776	-0.0165276944	 1.3242277796	 0.129152
H	 1.6446348534	-0.0375022197	 2.6556538906	 0.132778
H	 2.4815051491	-1.5212355625	 2.1920200652	 0.135637
H	-2.1094380041	-0.9766003733	-0.228645853	 0.109539
112.0917	150.8008	174.5969	186.0903	219.2938	287.616	366.0078	455.5672	508.774	593.8154	642.6612	670.9022	722.8349	755.0534	787.8459	842.8759	880.2513	896.7796	947.0145	981.3768	1008.6656	1067.1087	1079.64	1109.5627	1143.2015	1145.2513	1171.3449	1199.2892	1286.7338	1338.544	1348.875	1412.7993	1413.7772	1455.7155	1479.9272	1485.3524	1486.3332	1494.2682	1864.3408	3031.4008	3039.6327	3095.3658	3103.8943	3106.4265	3120.6133	3181.5158	3220.8899	3400.2195
CC12C3NC1(C)C(=O)C23	C[C@@]12[C@H]3N[C@]1(C)C(=O)[C@@H]23	
InChI=1S/C7H9NO/c1-6-3-4(6)8-7(6,2)5(3)9/h3-4,8H,1-2H3	InChI=1S/C7H9NO/c1-6-3-4(6)8-7(6,2)5(3)9/h3-4,8H,1-2H3/t3-,4-,6+,7+/m0/s1
