22
gdb 63050	2.77999	1.57761	1.57287	1.6998	84.16	-0.2177	0.08	0.2978	1024.4447	0.195611	-367.167091	-367.159118	-367.158174	-367.198797	32.839	
C	-0.1383703469	 1.6050681491	 0.0038699533	-0.463532
C	 0.0145775798	 0.088861839	 0.0113091884	 0.326535
C	-1.3388126195	-0.593376255	-0.2273229097	-0.442646
C	 1.0859825172	-0.5782673777	-0.8933149812	-0.020482
C	 2.4953630325	 0.0457514801	-0.881960209	-0.26796
C	 2.7225770774	-0.6676611073	 0.4629548026	 0.020437
C	 2.0604057714	 0.014652074	 1.6734911644	-0.267964
C	 0.7291527279	-0.6038489206	 1.2032657557	-0.02047
N	 1.4754343616	-1.5404792739	 0.2400689667	-0.166089
H	 0.8085125375	 2.1254212373	 0.171127015	 0.11348
H	-0.5402815563	 1.9492090994	-0.9562600088	 0.114827
H	-0.8361569662	 1.9278421369	 0.7853653645	 0.114832
H	-1.7595216535	-0.2956090674	-1.1944191115	 0.108932
H	-1.2364159946	-1.6829121058	-0.2231835569	 0.133701
H	-2.056858085	-0.3169254056	 0.5530148482	 0.108933
H	 0.7325238602	-1.0024825234	-1.8374638685	 0.063017
H	 3.1184422324	-0.3836910954	-1.6709264682	 0.108541
H	 2.5929792569	 1.1347467346	-0.9174552116	 0.09715
H	 3.6823041026	-1.1643079006	 0.6202579592	 0.07006
H	 2.3892047334	-0.4357923935	 2.6137570418	 0.108537
H	 2.1363445399	 1.1021078863	 1.7649668842	 0.09715
H	 0.0850359812	-1.0488747707	 1.9670577216	 0.06301
177.8842	181.1201	224.0602	266.4238	317.718	330.7974	371.1308	402.2341	471.5483	598.2418	668.0703	705.5576	800.6103	815.9771	871.2287	899.9449	919.6422	937.5686	950.5288	959.5895	969.679	971.5237	1032.7421	1040.7771	1044.2554	1060.7726	1092.8341	1140.4855	1187.7529	1198.9241	1212.8182	1231.4064	1248.2861	1256.354	1279.9376	1287.8374	1299.505	1354.7756	1368.032	1399.6107	1421.4234	1473.2638	1480.331	1489.245	1494.0285	1503.5595	1511.1744	3022.0907	3027.094	3048.9602	3049.0079	3059.0203	3063.2402	3079.3499	3084.1105	3091.3043	3101.359	3101.9795	3106.0316	3108.5189
CC1(C)C2CC3CC1N23	CC1(C)[C@H]2C[C@H]3C[C@@H]1N23	
InChI=1S/C8H13N/c1-8(2)6-3-5-4-7(8)9(5)6/h5-7H,3-4H2,1-2H3	InChI=1S/C8H13N/c1-8(2)6-3-5-4-7(8)9(5)6/h5-7H,3-4H2,1-2H3/t5-,6+,7-
