18
gdb 108439	2.30203	1.73557	1.22347	2.8043	73.11	-0.2583	0.0083	0.2666	1070.9521	0.14724	-439.061417	-439.053079	-439.052134	-439.09447	31.189	
C	-0.0131748797	 1.568312988	-0.0905921055	-0.389796
C	-0.0482073342	 0.0332294689	-0.0837204275	-0.285171
C	 0.764176657	-0.5444963904	-1.2103033395	 0.326721
O	 0.2707633018	-0.2022630036	-2.5361054726	-0.322154
C	 0.3537770149	-1.5777305566	-2.9839413219	-0.105142
C	 0.9688866201	-2.0150541399	-1.6551057118	-0.011055
O	 2.413478874	-1.8300905179	-1.625253498	-0.277145
C	 2.2902629517	-0.5177783605	-1.1840453025	 0.416069
N	 3.1629715861	 0.3266070507	-0.8803723619	-0.549432
H	 1.010795444	 1.9313518321	 0.0284351411	 0.155172
H	-0.4048599717	 1.9546246803	-1.0354043566	 0.137492
H	-0.6234159288	 1.9690008748	 0.7235156833	 0.111156
H	 0.3457337337	-0.3529248041	 0.8639286221	 0.111336
H	-1.0798932431	-0.3250186165	-0.1790846448	 0.104524
H	-0.6431024381	-1.9899281739	-3.1809896707	 0.114449
H	 0.9944112689	-1.7043468556	-3.8623352635	 0.122978
H	 0.6577227146	-2.9212106113	-1.1396837592	 0.108101
H	 4.1080130288	-0.0388922046	-1.0124930105	 0.231898
87.8174	128.7897	162.2675	204.423	249.7269	301.5595	330.1166	416.37	484.4131	643.3211	674.8339	723.6371	780.2577	841.6043	869.7403	887.3281	932.7395	947.863	980.3742	1000.4616	1007.8424	1024.9602	1073.0561	1132.6225	1147.2944	1166.0295	1182.0572	1222.969	1280.7628	1310.713	1335.4811	1350.3321	1389.0974	1409.6479	1475.5552	1497.2858	1502.7246	1513.0635	1823.0868	3028.7239	3032.1844	3048.9878	3071.6073	3089.4884	3121.2724	3132.8101	3142.3969	3471.3442
CCC12OCC1OC2=N	CC[C@]12OC[C@H]1O[C]2[NH]	
InChI=1S/C6H9NO2/c1-2-6-4(3-8-6)9-5(6)7/h4,7H,2-3H2,1H3	InChI=1S/C6H9NO2/c1-2-6-4(3-8-6)9-5(6)7/h4,7H,2-3H2,1H3/t4-,6+/m1/s1
