17
gdb 75994	2.07538	1.67449	1.0851	3.1314	75.63	-0.2429	0.0063	0.2492	1129.0426	0.136078	-414.182391	-414.172864	-414.17192	-414.217258	33.323	
C	 0.0551206969	 1.2736682777	-0.4330179171	-0.354003
N	 0.0558679284	-0.0262826386	 0.1913395279	-0.058597
C	-1.0230112298	-1.0169109346	 0.2359242964	-0.17014
C	-1.6304260853	-1.2929724772	-1.0685539116	 0.305441
N	-2.0823288703	-1.4727677569	-2.1173162569	-0.330436
C	 0.069440583	-2.0703560085	 0.6887230323	-0.06328
N	 0.0984064129	-3.3285290955	-0.0035262797	-0.505812
C	 1.0805013991	-0.9496936186	 0.3806240742	 0.349177
N	 2.3415169162	-0.9554212216	 0.3140065309	-0.560041
H	 1.061851514	 1.6935470463	-0.359943515	 0.14253
H	-0.225734127	 1.22197534	-1.4933114445	 0.147196
H	-0.6342455927	 1.9522601164	 0.0803302149	 0.139198
H	-1.8120744224	-0.8009086463	 0.9640968394	 0.125592
H	-0.0129026619	-2.2538383471	 1.7629016671	 0.120367
H	 0.3544219048	-3.2019472536	-0.9783246607	 0.247697
H	 0.8014838331	-3.9317420843	 0.4097066129	 0.25045
H	 2.727397871	-0.0543819077	 0.0273588096	 0.214663
63.7616	99.6794	106.5199	137.1657	192.132	237.9092	248.1798	283.5131	368.3358	458.1008	533.8374	600.9608	646.3493	745.6203	789.889	803.4859	830.1836	872.6791	935.8191	996.0804	1034.7102	1132.491	1148.6988	1165.394	1214.4956	1228.1186	1259.6758	1267.5698	1350.6207	1385.6171	1425.5276	1454.5773	1478.2452	1515.3373	1667.868	1793.3922	2351.3047	3013.4583	3052.4217	3077.8094	3088.981	3118.323	3463.1782	3506.292	3587.1645
CN1C(C#N)C(N)C1=N	CN1[C@@H](C#N)[C@@H](N)[C]1[NH]	
InChI=1S/C5H8N4/c1-9-3(2-6)4(7)5(9)8/h3-4,8H,7H2,1H3	InChI=1S/C5H8N4/c1-9-3(2-6)4(7)5(9)8/h3-4,8H,7H2,1H3/t3-,4+/m0/s1
