19
gdb 79068	2.19366	2.06504	1.69867	1.8615	77.68	-0.2404	-0.0047	0.2357	940.8524	0.159803	-382.037938	-382.03021	-382.029266	-382.069543	30.986	
C	 0.0209940465	 1.6192354662	-0.0369783225	-0.419882
C	 0.1011494277	 0.1000601217	-0.0089335822	-0.006632
C	 0.672729415	-0.6969889613	-1.1820000179	-0.062091
C	 1.3180592792	-1.6720784904	-0.2744922021	-0.092905
N	 2.1869687513	-0.8595228606	-1.1393457869	-0.160418
C	 2.830649578	 0.0392574125	-0.2279638146	 0.026005
N	 2.3590367345	 0.1292066754	 0.9490728329	-0.220466
C	 1.1270532277	-0.6828919991	 0.9251208162	 0.28283
C	 0.6769488219	-1.1551000809	 2.2852211176	-0.493409
H	 0.9894250396	 2.0789467111	-0.244677142	 0.128851
H	-0.6810103775	 1.9425031694	-0.8138971002	 0.113213
H	-0.3377025953	 2.0126302135	 0.9198976292	 0.120815
H	-0.8878928949	-0.32453266	 0.1990992452	 0.085933
H	 0.2335764383	-0.8297960825	-2.1635012668	 0.103273
H	 1.3828862443	-2.7546756674	-0.2927258231	 0.097539
H	 3.6926294917	 0.5960206262	-0.5825033318	 0.126071
H	 0.4736107494	-0.3036115513	 2.9413807567	 0.131654
H	-0.2327851669	-1.7593331617	 2.2105516968	 0.113438
H	 1.4561183296	-1.7616916409	 2.7583144256	 0.126183
175.2476	184.4024	204.7078	253.0395	282.9618	304.9296	460.9736	500.1534	579.1123	611.7933	691.3489	726.4068	760.2981	834.1871	845.571	856.6706	883.8709	916.5229	964.437	968.53	995.7762	1029.215	1054.8305	1087.8008	1121.6218	1130.6688	1163.4371	1193.3479	1217.9106	1250.1432	1300.0103	1317.7776	1339.1556	1377.9899	1411.0834	1417.3328	1483.9439	1491.6189	1493.3151	1497.3529	1662.1549	3034.6242	3035.6161	3042.5916	3095.1593	3104.9798	3112.029	3129.094	3168.5283	3188.7652	3192.4451
CC1C2C3N2C=NC13C	C[C@H]1[C@@H]2[C@H]3N2[CH][N][C@@]13C	
InChI=1S/C7H10N2/c1-4-5-6-7(4,2)8-3-9(5)6/h3-6H,1-2H3	InChI=1S/C7H10N2/c1-4-5-6-7(4,2)8-3-9(5)6/h3-6H,1-2H3/t4-,5+,6+,7-,9?/m0/s1
