23
gdb 78598	2.9088	1.35875	1.1079	0.2055	90.66	-0.2722	0.094	0.3661	1231.5812	0.204872	-351.096881	-351.087866	-351.086922	-351.129789	35.719	
C	-0.1809814878	 1.6170412793	-0.0981366752	-0.423688
C	-0.0525667342	 0.1016556518	-0.0454115528	-0.00735
C	 1.1908566388	-0.5840671855	-0.6543143965	-0.092282
C	 2.0889454051	-0.260661709	 0.5885282925	-0.05614
C	 2.5510920651	-1.7266329101	 0.7192748509	-0.053898
C	 2.9901518597	-2.2609241667	 2.0750191182	-0.423246
C	 1.0623483227	-1.8286543231	 0.3012955587	 0.361138
C	 0.2430238261	-3.07052229	 0.0709645147	-0.52827
C	 0.6570362373	-0.5643790657	 1.1558957456	-0.097944
H	 0.7552538841	 2.1140700325	 0.1756696402	 0.112828
H	-0.4552098519	 1.9542517704	-1.1042475741	 0.111778
H	-0.9584804056	 1.9699777456	 0.5889595526	 0.11156
H	-1.0038145688	-0.3718624144	-0.3207355968	 0.057231
H	 1.5265995294	-0.6133312968	-1.6941051642	 0.057583
H	 2.6683826137	 0.649653286	 0.7485595073	 0.063459
H	 3.250939276	-2.0430297229	-0.0668686385	 0.053267
H	 2.3039717285	-1.9559343873	 2.8722589237	 0.111723
H	 3.0341672697	-3.3560353638	 2.0743772375	 0.112062
H	 3.9886834366	-1.8943331708	 2.3385703668	 0.112575
H	 0.2024547073	-3.6890001362	 0.974827325	 0.118874
H	-0.787016107	-2.8270968433	-0.2116288945	 0.12023
H	 0.6736488022	-3.6815796915	-0.7305749459	 0.117216
H	 0.3588145529	-0.5601640884	 2.2063501049	 0.061294
168.5583	187.9516	196.6182	205.3637	211.9336	217.7879	261.6086	328.9727	375.3094	503.393	559.1563	634.6312	722.3715	737.4349	805.6284	836.4878	850.2427	858.4288	870.7359	915.4684	981.3437	1020.5909	1024.5935	1045.2392	1071.2795	1080.6698	1087.2606	1106.132	1132.4457	1150.238	1155.3933	1172.0119	1185.1502	1219.5052	1240.9796	1265.949	1292.1265	1330.8736	1394.5463	1402.3579	1407.9106	1412.6721	1418.8347	1486.7792	1491.9318	1495.1229	1495.8731	1499.185	1500.8401	3005.6162	3017.0896	3023.3223	3025.6872	3026.8658	3077.4247	3084.9909	3085.6082	3085.9277	3086.7977	3091.8473	3097.2758	3098.9359	3105.2501
CC1C2C3C(C)C2(C)C13	C[C@H]1[C@H]2[C@@H]3[C@@H](C)[C@@]2(C)[C@H]13	
InChI=1S/C9H14/c1-4-7-6-5(2)9(7,3)8(4)6/h4-8H,1-3H3	InChI=1S/C9H14/c1-4-7-6-5(2)9(7,3)8(4)6/h4-8H,1-3H3/t4-,5-,6-,7-,8+,9+/m1/s1
