25
gdb 122524	3.71434	0.63204	0.5872	0.8696	91.19	-0.2398	0.0926	0.3324	2064.0767	0.226861	-389.479477	-389.468338	-389.467394	-389.516969	39.897	
C	 0.3785511014	 1.2361600734	 0.4866538153	-0.382234
C	-0.1975501528	 0.0560501093	-0.2994904446	-0.182232
C	 0.8382234297	-0.6054772407	-1.1974793959	-0.032441
O	 0.2194189518	-1.6781258143	-1.8877937848	-0.250395
C	 1.0814047369	-2.3603422419	-2.7415698483	 0.110824
C	 1.9893007039	-3.4302536135	-2.1789379572	-0.324351
C	 0.7774307762	-3.8013522046	-3.0177119174	-0.026522
C	-0.4119276395	-4.4902011366	-2.3794867348	-0.186282
C	-0.2106729966	-6.0020659421	-2.2304480904	-0.371966
H	 1.2078632787	 0.921184093	 1.1297903468	 0.115863
H	 0.7577673817	 2.0160078121	-0.1831073224	 0.116079
H	-0.3825437851	 1.6913988969	 1.1268561362	 0.116847
H	-0.5958221262	-0.699935816	 0.3872076334	 0.10465
H	-1.0379929948	 0.3859032035	-0.9208401127	 0.106628
H	 1.2436012316	 0.1245865997	-1.9188471328	 0.082682
H	 1.6887203383	-0.9762235836	-0.6028430827	 0.087296
H	 1.4664758191	-1.7502152047	-3.5610131418	 0.079014
H	 2.9855847335	-3.5532104182	-2.5898625481	 0.106326
H	 1.9123596898	-3.6125369103	-1.1114622397	 0.113486
H	 0.9924421478	-4.1292390962	-4.0325635902	 0.080235
H	-0.6051799329	-4.0355740092	-1.4031245487	 0.106967
H	-1.3069143924	-4.2962574112	-2.9847294992	 0.096205
H	 0.6605119612	-6.2232452275	-1.6047552879	 0.114939
H	-1.0847436132	-6.4747135026	-1.7712357577	 0.108437
H	-0.0471831682	-6.4795770249	-3.2031799743	 0.109944
45.7127	62.4384	89.1801	91.4368	151.6904	179.2373	219.2549	236.0624	264.2736	314.5512	377.35	422.1199	486.7304	611.3087	750.9519	764.6335	789.2899	830.1197	862.2514	900.4354	911.6951	958.7787	978.9421	1012.1901	1034.2403	1047.5635	1061.3126	1093.4652	1115.3755	1142.733	1150.0457	1187.4696	1192.8963	1202.9684	1251.8274	1268.229	1287.9963	1313.6358	1332.4535	1341.7097	1382.3573	1408.7368	1413.2762	1417.1776	1440.8703	1483.1848	1491.5678	1491.911	1497.5321	1501.4458	1507.3931	1508.8164	1527.4592	2956.6433	2989.7919	3027.1839	3029.1322	3031.6097	3038.0569	3070.8948	3076.1047	3076.6753	3099.2807	3099.5196	3102.608	3107.5755	3125.6468	3129.6288	3213.9766
CCCOC1CC1CC	CCCO[C@H]1C[C@H]1CC	
InChI=1S/C8H16O/c1-3-5-9-8-6-7(8)4-2/h7-8H,3-6H2,1-2H3	InChI=1S/C8H16O/c1-3-5-9-8-6-7(8)4-2/h7-8H,3-6H2,1-2H3/t7-,8+/m1/s1
