21
gdb 80649	2.55518	1.64959	1.24824	1.4201	83.67	-0.2317	0.0149	0.2465	1089.5876	0.18418	-387.091961	-387.08379	-387.082846	-387.124116	33.088	
C	-0.0354628545	 1.5270849977	 0.059246576	-0.480014
C	-0.0167710768	 0.0286353907	-0.0221482697	 0.269183
C	-0.011585444	-0.6781554774	-1.157188382	-0.168103
C	-0.0027081037	-2.1895579158	-1.0861886301	-0.046493
C	-1.0629549347	-2.6295875924	-0.0267680692	-0.228153
C	 0.0145644089	-2.2621232285	 1.0334406625	-0.04004
C	 1.0750469133	-2.6245329624	-0.04738689	-0.229442
C	 0.0055127703	-0.7453704831	 1.2905303451	 0.06152
O	 1.0942294272	-0.3408829083	 2.1241924137	-0.439988
H	 0.7992944198	 1.8949222973	 0.6653195577	 0.131809
H	 0.0201454929	 1.9845634233	-0.9323126998	 0.114633
H	-0.9515719773	 1.8838508172	 0.5485380508	 0.121456
H	-0.0277627211	-0.1891797291	-2.1278719918	 0.081338
H	-0.0093118941	-2.6623993589	-2.0693438511	 0.057796
H	-2.0113259284	-2.0861779149	-0.0122218745	 0.09428
H	-1.2527819562	-3.7066245936	-0.0487955237	 0.095132
H	 0.0310992098	-2.8030025735	 1.9820938089	 0.066513
H	 1.2633434764	-3.7012177497	-0.0713391046	 0.096969
H	 2.0294870631	-2.0890066799	-0.0603379245	 0.078256
H	-0.8846037351	-0.4887524676	 1.8813881722	 0.086755
H	 1.907278684	-0.5267172811	 1.6407894142	 0.276592
122.9836	176.7357	219.827	254.647	309.2841	360.7635	392.9182	409.2066	456.9796	521.0673	587.2628	629.5604	781.2611	817.4371	838.9855	850.5698	878.1824	912.1547	941.1437	956.5208	1000.5002	1034.788	1049.3411	1065.7635	1075.5612	1085.7784	1101.7516	1132.4207	1137.8235	1204.1845	1240.5553	1244.8722	1256.1686	1272.2015	1323.9601	1328.867	1347.2378	1376.6755	1407.7822	1417.4509	1473.5881	1477.0915	1492.9276	1506.2481	1718.2296	3014.4239	3019.7788	3042.0942	3050.0456	3075.0332	3084.4141	3092.9107	3101.0903	3108.5216	3113.7226	3157.8471	3796.4305
CC1=CC2CC(C2)C1O	CC1=C[C@@H]2C[C@@H](C2)[C@H]1O	
InChI=1S/C8H12O/c1-5-2-6-3-7(4-6)8(5)9/h2,6-9H,3-4H2,1H3	InChI=1S/C8H12O/c1-5-2-6-3-7(4-6)8(5)9/h2,6-9H,3-4H2,1H3/t6-,7+,8-/m0/s1
