19
gdb 42344	3.09045	1.07561	0.95995	2.1762	76.53	-0.2468	-0.0332	0.2136	1299.5119	0.158835	-423.005633	-422.996899	-422.995954	-423.040784	31.58	
O	-0.1403466672	 0.3139938266	 1.7445835706	-0.325757
C	-0.0518221817	 1.244759539	 0.9716092877	 0.356474
C	 1.1443057482	 2.1555613608	 1.064736151	-0.011919
C	 1.8812115415	 2.5692215276	-0.1482273311	-0.181778
O	 1.0333277605	 3.4795892259	 0.5324280024	-0.215388
C	-1.0823284274	 1.5046868715	-0.1019369837	-0.090892
C	-1.2283818777	 0.3960211261	-1.2014347149	-0.221567
C	-2.7678633488	 0.5406484188	-1.0966766072	-0.211497
C	-2.5689767313	 1.2343409663	 0.2754207777	-0.22646
H	 1.6912570022	 2.067844437	 2.0016340883	 0.116623
H	 2.9493826321	 2.7624221303	-0.0669767165	 0.132907
H	 1.5342450522	 2.2443305118	-1.1277633675	 0.128036
H	-0.9430255612	 2.4936041743	-0.5411703392	 0.093489
H	-0.7557157372	 0.5877738338	-2.167603162	 0.098708
H	-0.8851988584	-0.567437529	-0.8158109779	 0.121887
H	-3.1616629781	 1.229833897	-1.8489861889	 0.104205
H	-3.3619435623	-0.3755445811	-1.1195814223	 0.102773
H	-2.6160244243	 0.5228203731	 1.1032028276	 0.127176
H	-3.1857207311	 2.1050332102	 0.5072695758	 0.10298
21.3347	85.7643	112.1619	179.6786	207.1308	285.3139	299.7818	473.637	536.461	620.7112	720.8166	753.072	797.5932	861.1403	868.7245	896.8428	920.5042	936.5612	943.9023	969.0626	1027.3062	1046.5425	1090.7394	1128.7963	1149.6502	1166.8017	1194.8668	1210.0532	1247.2711	1260.0472	1260.4513	1268.0331	1285.0632	1289.6242	1379.0707	1389.7093	1474.0279	1485.6757	1505.9276	1520.4854	1789.1237	3058.1784	3061.7444	3069.9075	3089.4147	3097.3766	3107.8876	3121.4135	3134.3352	3140.2721	3180.5867
O=C(C1CO1)C1CCC1	O=C([C@H]1CO1)C1CCC1	
InChI=1S/C7H10O2/c8-7(6-4-9-6)5-2-1-3-5/h5-6H,1-4H2	InChI=1S/C7H10O2/c8-7(6-4-9-6)5-2-1-3-5/h5-6H,1-4H2/t6-/m1/s1
