17
gdb 10512	2.75684	1.91435	1.3809	3.4742	64.66	-0.2493	-0.0379	0.2113	930.416	0.141407	-400.977205	-400.969042	-400.968098	-401.009977	29.807	
O	 0.4508703114	 1.0409178994	 0.4414134084	-0.418663
C	 0.0992224878	-0.0751236983	-0.3484354568	-0.159675
C	-1.3577873381	-0.5060465662	-0.1550955625	 0.317452
C	-2.389487675	 0.0337765516	-1.1285727328	-0.370027
C	-2.5102393226	 1.5361135673	-1.2188614563	 0.174632
O	-1.7644940323	 2.3465993758	-0.7206082272	-0.248943
C	-1.61076096	-1.8275865092	 0.4858085959	-0.283615
N	-1.8368841054	-0.5842160543	 1.2330786729	-0.336875
H	-0.1714979227	 1.7450099185	 0.2009126841	 0.301359
H	 0.2895419698	 0.1046233185	-1.4194091639	 0.083868
H	 0.7667227911	-0.884826873	-0.0358876086	 0.104797
H	-2.1967539509	-0.3211477974	-2.1539763381	 0.132144
H	-3.3858188941	-0.3492913008	-0.8727171569	 0.136991
H	-3.3763161996	 1.8846512568	-1.8228218356	 0.095684
H	-2.5112850858	-2.3897494963	 0.249243773	 0.111331
H	-0.7488851491	-2.44382712	 0.7285240824	 0.115984
H	-1.0568261245	-0.3767171925	 1.8535626219	 0.243558
77.4763	110.5048	165.8275	221.9744	262.8587	318.3139	353.1482	391.8716	533.5856	619.6329	674.2375	711.8473	793.3198	869.5733	897.6558	917.7514	962.152	992.6883	1012.2187	1060.0371	1083.504	1092.6935	1148.5344	1219.4743	1227.6491	1268.1317	1325.8174	1336.878	1388.5328	1406.001	1419.019	1444.2516	1467.6763	1500.7697	1520.5939	1814.228	2898.5755	2968.0064	2999.7054	3054.3487	3068.5678	3100.4268	3183.8966	3494.7674	3691.7818
OCC1(CC=O)CN1	OC[C@@]1(CC=O)CN1	
InChI=1S/C5H9NO2/c7-2-1-5(4-8)3-6-5/h2,6,8H,1,3-4H2	InChI=1S/C5H9NO2/c7-2-1-5(4-8)3-6-5/h2,6,8H,1,3-4H2/t5-/m1/s1
