20
gdb 6018	2.63218	1.72298	1.37302	1.1489	76.45	-0.2622	0.0366	0.2988	1022.1972	0.173054	-348.977724	-348.967724	-348.96678	-349.011409	37.659	
C	-0.0128791367	 1.5647108885	-0.0469718803	-0.421468
C	 0.0206280558	 0.0296216402	-0.0256161218	 0.042512
C	 0.6530094692	-0.5074607761	-1.3170821553	-0.413221
C	 0.7535653648	-0.5058955001	 1.2482838651	 0.169078
C	 0.8486714982	-2.0390135746	 1.2669122272	-0.411999
O	 2.1108103839	-0.0436838684	 1.2830515823	-0.455218
C	 0.0396755784	-0.0551097341	 2.4558466071	 0.321306
C	-0.5318875595	 0.3200032634	 3.4454228525	-0.479638
H	 0.9948503551	 1.9771792902	-0.1733884797	 0.110862
H	-0.6141044702	 1.9211547803	-0.8885833227	 0.115198
H	-0.4423290369	 1.9733708081	 0.8718955885	 0.12592
H	-1.0135779733	-0.3321407736	 0.0418264097	 0.079917
H	 1.7261082614	-0.2939570144	-1.3329764082	 0.130583
H	 0.5174213832	-1.5859984828	-1.4303516627	 0.114527
H	 0.1973798377	-0.0261315501	-2.1880027208	 0.10763
H	 1.5060077421	-2.3793651141	 0.4645611068	 0.12975
H	 1.2676571501	-2.3696012868	 2.2193110273	 0.130806
H	-0.1387040189	-2.4903735026	 1.1401618461	 0.120448
H	 2.0995274	 0.8849534777	 1.5369730999	 0.286007
H	-1.0348054445	 0.6457886295	 4.3225052589	 0.196998
82.1622	150.9646	180.532	204.4252	237.9516	245.8452	274.6627	314.0265	320.523	363.5705	396.5052	427.6021	499.804	559.9959	594.6109	626.1837	661.0815	694.893	860.508	926.0728	928.6854	942.1938	969.1967	1039.4545	1071.7734	1128.3159	1177.0004	1193.6541	1208.8166	1337.2121	1346.5345	1364.3132	1397.2407	1403.3791	1417.2273	1478.4668	1487.5763	1497.4555	1500.6689	1509.4095	1519.8309	2225.0575	3023.3003	3032.9906	3042.3514	3056.3096	3097.9548	3107.8496	3117.039	3119.9244	3135.5535	3141.8677	3499.274	3822.2503
CC(C)C(C)(O)C#C	CC(C)[C@@](C)(O)C#C	
InChI=1S/C7H12O/c1-5-7(4,8)6(2)3/h1,6,8H,2-4H3	InChI=1S/C7H12O/c1-5-7(4,8)6(2)3/h1,6,8H,2-4H3/t7-/m0/s1
