22
gdb 59165	2.42434	1.33581	1.12149	1.9003	81.79	-0.2293	0.0569	0.2861	1224.4232	0.193511	-404.301054	-404.291505	-404.290561	-404.33526	36.356	
C	-1.4237306489	 0.2192175747	 0.2741139659	-0.393472
C	 0.0637331328	 0.1248454177	-0.0971225129	 0.002318
C	 0.6613138266	 1.5052291847	-0.4064498508	-0.388733
C	 0.8270417024	-0.5271370503	 1.0439602334	 0.032979
C	 0.9803749876	-1.9723622257	 1.320681288	-0.07836
C	 1.1672781981	-2.8184991412	 0.0742627063	 0.097461
O	 0.0094579339	-2.9545067521	-0.7252071481	-0.424504
C	 2.3031577492	-1.8368364228	-0.3315717981	-0.211611
N	 2.1912740979	-1.0906221516	 0.9729700485	-0.168181
H	-1.568678612	 0.8033773119	 1.1909145661	 0.107244
H	-1.9923211872	 0.708789567	-0.5232192403	 0.107526
H	-1.8467898228	-0.7767777803	 0.4319966326	 0.128198
H	 0.1314383141	-0.5021774445	-0.988598397	 0.090303
H	 0.5929369213	 2.1660725974	 0.4658733875	 0.111979
H	 1.7185469891	 1.4311914186	-0.680587625	 0.119815
H	 0.1272024391	 1.987230368	-1.2317850707	 0.107892
H	 0.7465347723	 0.0551303895	 1.9638192701	 0.088916
H	 0.8448852315	-2.3823048405	 2.3169213629	 0.089929
H	 1.578734442	-3.8030679776	 0.3291864657	 0.082368
H	 0.201780672	-3.575716898	-1.4349343089	 0.284948
H	 3.2871593688	-2.3055914995	-0.4001849093	 0.105352
H	 2.1309938223	-1.2308181455	-1.2251655559	 0.107634
56.9319	128.1708	163.0038	223.4839	233.7775	249.9676	274.4944	316.7913	347.4965	428.8402	444.7875	508.808	593.8301	739.5313	764.8241	784.4545	848.3122	886.9485	921.2842	931.2286	968.0919	977.0387	1001.7995	1019.3895	1060.9537	1097.9784	1137.438	1140.4665	1171.5097	1186.8668	1200.2633	1210.4094	1264.7879	1282.1701	1313.6404	1331.8041	1354.3242	1373.1366	1394.4834	1415.1101	1436.0407	1459.4631	1487.1768	1490.0689	1499.1305	1503.8385	1511.2055	3022.0389	3024.4135	3028.3715	3059.4874	3079.0353	3088.9268	3090.3602	3102.8236	3108.0206	3114.1382	3116.8069	3156.282	3815.079
CC(C)C1C2C(O)CN12	CC(C)[C@H]1[C@H]2[C@@H](O)CN12	
InChI=1S/C7H13NO/c1-4(2)6-7-5(9)3-8(6)7/h4-7,9H,3H2,1-2H3	InChI=1S/C7H13NO/c1-4(2)6-7-5(9)3-8(6)7/h4-7,9H,3H2,1-2H3/t5-,6-,7+,8?/m0/s1
