17
gdb 16679	4.28891	1.73594	1.6223	3.2046	69.56	-0.2519	0.0336	0.2855	862.0266	0.144186	-363.856813	-363.850128	-363.849184	-363.887383	26.662	
C	-0.176753485	 1.5236527499	 0.0124358222	-0.440752
C	 0.0202934513	 0.0151370425	 0.0303606871	 0.034458
C	 1.1610953443	-0.6149811261	-0.8155258533	 0.0838
C	 2.1555796874	-0.2355028196	 0.3013722143	-0.250291
C	 0.9102866304	-0.6047404763	 1.1838427062	-0.136137
C	 0.7809883875	-2.0578899083	 0.8067620004	 0.446433
N	 0.5604183633	-3.0656556676	 1.527979893	-0.579754
O	 0.9573409692	-2.0394471457	-0.5660822899	-0.26483
H	 0.7475193542	 2.0851060048	 0.1690074365	 0.122425
H	-0.6003946293	 1.8413073745	-0.9465261735	 0.125209
H	-0.8806341835	 1.8206299743	 0.7965841295	 0.129819
H	-0.9415579198	-0.4868087489	-0.113678613	 0.09131
H	 1.3164828821	-0.4523606491	-1.880460235	 0.089534
H	 3.0495680892	-0.8547724688	 0.3969281457	 0.117613
H	 2.4144328756	 0.8214974151	 0.3347473645	 0.114027
H	 0.8081618659	-0.3502829938	 2.2351913105	 0.095192
H	 0.5237888071	-3.913047647	 0.957597755	 0.22194
160.7779	191.182	253.8473	313.455	436.0224	479.9796	510.4427	633.4406	696.1988	801.1479	804.1207	851.0336	867.9161	889.4338	896.575	937.7747	977.388	1013.8555	1050.0268	1054.4709	1088.1686	1104.9462	1119.2026	1137.5882	1212.9383	1231.1969	1247.3974	1262.8973	1278.7548	1342.3986	1390.6098	1415.7285	1490.6617	1496.2863	1510.5926	1808.8415	3038.3762	3060.6894	3087.3219	3098.59	3118.6941	3142.5841	3157.9604	3164.8182	3464.2037
CC1C2CC1C(=N)O2	C[C@H]1[C@H]2C[C@@H]1[C]([NH])O2	
InChI=1S/C6H9NO/c1-3-4-2-5(3)8-6(4)7/h3-5,7H,2H2,1H3	InChI=1S/C6H9NO/c1-3-4-2-5(3)8-6(4)7/h3-5,7H,2H2,1H3/t3-,4+,5-/m1/s1
