19
gdb 64192	2.04504	1.61741	1.40762	2.0674	71.12	-0.2479	-0.0375	0.2104	1061.2012	0.155155	-460.157522	-460.14772	-460.146776	-460.192132	36.042	
C	-0.4162884767	 1.4392363989	 0.239010506	-0.458112
C	 0.0198045063	 0.0047791925	-0.0185230039	 0.293264
O	-1.073077517	-0.7889996101	-0.4287710249	-0.469536
C	 1.2127078922	-0.2198630398	-0.9697094035	-0.094784
O	 1.9834489681	-0.8943388466	 0.0508057084	-0.325902
C	 0.9523527262	-0.6986388852	 1.042662348	 0.259803
C	 1.4539738482	 0.0947110468	 2.2454237121	-0.447375
C	 0.4112514273	-2.0325902657	 1.520178328	 0.128235
O	-0.6770560573	-2.1620699973	 2.028023338	-0.281302
H	 0.4253615501	 2.0983742758	 0.4671944311	 0.119199
H	-0.9220411918	 1.8211317165	-0.6528437808	 0.133623
H	-1.1249241657	 1.4850348308	 1.0728705937	 0.123307
H	-1.5756679689	-1.0324645879	 0.3600229125	 0.294137
H	 0.9793270799	-0.8733211922	-1.8157516094	 0.118473
H	 1.7168944378	 0.687404735	-1.3211520084	 0.102258
H	 1.8829754027	 1.0475544299	 1.9277121734	 0.129962
H	 0.6384851522	 0.2796678778	 2.950612084	 0.13824
H	 2.2372053778	-0.4686595232	 2.7635017182	 0.133463
H	 1.1045458985	-2.8886063963	 1.3689915175	 0.103048
54.1813	75.076	190.838	218.2693	229.2471	269.2148	286.5373	299.1281	361.0834	378.4815	421.6476	434.5973	481.7693	555.5293	665.1742	713.5068	888.17	895.3565	939.8765	947.8727	974.9733	985.4732	1020.8466	1111.8586	1137.9033	1154.3867	1171.2092	1191.0901	1239.4612	1269.0063	1339.4403	1380.9267	1391.4975	1396.6167	1411.2122	1475.2373	1486.671	1491.9904	1503.5173	1512.4088	1806.4123	2903.6016	3031.7463	3038.1505	3042.3864	3091.9345	3108.4576	3111.4822	3121.3315	3134.3101	3763.8927
CC1(O)COC1(C)C=O	C[C@@]1(O)CO[C@]1(C)C=O	
InChI=1S/C6H10O3/c1-5(8)4-9-6(5,2)3-7/h3,8H,4H2,1-2H3	InChI=1S/C6H10O3/c1-5(8)4-9-6(5,2)3-7/h3,8H,4H2,1-2H3/t5-,6-/m1/s1
