20
gdb 6907	4.67267	1.05582	0.98581	0.8686	81.7	-0.2528	0.0579	0.3106	1261.9315	0.174418	-311.831488	-311.822121	-311.821176	-311.865297	35.053	
C	 0.0487498657	 1.5357108274	-0.143486987	-0.452696
C	 0.0013249042	 0.025943031	 0.0056265336	 0.327089
C	-1.2132283896	-0.6071444444	-0.6497550558	-0.447339
C	 1.3008510667	-0.7501273965	-0.0311515172	-0.318042
C	 0.5243309564	-0.6449866279	 1.2599285338	-0.015669
C	 1.078650181	 0.1237662699	 2.4534039208	-0.388304
C	 1.9369389626	-0.7023200807	 3.2984846819	 0.309251
C	 2.633034886	-1.4005644363	 3.9860213879	-0.448671
H	 0.9533978411	 1.973635328	 0.2859416761	 0.11341
H	 0.0262985802	 1.8139042139	-1.203672671	 0.114991
H	-0.8150317578	 2.0107281845	 0.3373434758	 0.11388
H	-1.2345797333	-0.3942113481	-1.7253417435	 0.113627
H	-1.2148490598	-1.694499109	-0.525807504	 0.113038
H	-2.1439429847	-0.2200893043	-0.2176395925	 0.113029
H	 1.3277086934	-1.7047959572	-0.5461898062	 0.107267
H	 2.2246930615	-0.183806569	-0.1039884035	 0.107479
H	-0.0124113801	-1.5421276214	 1.5572530645	 0.089099
H	 1.6469359508	 0.9972722506	 2.1142596251	 0.126962
H	 0.251415819	 0.5186629982	 3.0589336217	 0.129173
H	 3.2530260267	-2.0095364884	 4.5956730495	 0.192428
53.3118	109.846	192.9413	200.2893	228.838	262.5788	336.6178	346.1441	367.3521	411.1135	449.7832	522.6093	613.7822	633.5442	695.6106	835.4628	864.7579	893.3854	915.1584	956.4063	970.5662	997.3876	1020.5114	1057.8222	1077.7404	1130.7767	1151.9583	1168.4754	1238.4934	1285.4919	1323.4513	1338.5332	1411.8197	1422.9508	1426.6159	1466.036	1483.1582	1493.534	1493.7439	1502.431	1515.2799	2238.0253	3015.1289	3018.2933	3024.808	3058.3548	3076.3717	3079.5564	3098.7269	3110.4929	3122.3641	3138.9691	3205.5228	3507.5923
CC1(C)CC1CC#C	CC1(C)C[C@H]1CC#C	
InChI=1S/C8H12/c1-4-5-7-6-8(7,2)3/h1,7H,5-6H2,2-3H3	InChI=1S/C8H12/c1-4-5-7-6-8(7,2)3/h1,7H,5-6H2,2-3H3/t7-/m1/s1
