20
gdb 32082	2.71079	1.26922	0.92527	1.3444	90.03	-0.2414	-0.0175	0.2239	1328.2618	0.17182	-366.093711	-366.084651	-366.083706	-366.128796	33.14	
C	 0.0883345249	 1.4704036839	 0.1708262626	-0.367162
C	-0.0939356117	-0.038167861	-0.0604582578	-0.265026
C	 0.6929883694	-0.5324429069	-1.2520423056	 0.319735
C	 1.8207771576	-1.344039552	-1.1026675637	-0.185219
C	 2.5104426821	-1.7466279061	-2.2393720466	-0.066441
C	 2.0561350141	-1.330235359	-3.4848188191	-0.176261
C	 0.9201896165	-0.5195000391	-3.5506774355	 0.321944
C	 0.3695835041	-0.036402299	-4.8681364516	-0.46716
N	 0.2579869333	-0.1325253037	-2.4534059209	-0.361612
H	 1.1326901831	 1.7117577492	 0.3949407602	 0.112988
H	-0.2024513138	 2.0253415305	-0.725127706	 0.135769
H	-0.5267787119	 1.8148961686	 1.007733192	 0.10964
H	 0.2029565066	-0.5948262531	 0.834978161	 0.094444
H	-1.1548301863	-0.2471280796	-0.2375235485	 0.11514
H	 2.1446044287	-1.6511643208	-0.1141608027	 0.092863
H	 3.3893950891	-2.3782874122	-2.1566223019	 0.102525
H	 2.5682025121	-1.6267946886	-4.3935822744	 0.092921
H	-0.6533771828	-0.4000632294	-5.0099241314	 0.138146
H	 0.3229309792	 1.0570652417	-4.8834137415	 0.137732
H	 0.9787376758	-0.3730536933	-5.7106331287	 0.115034
35.0119	47.7673	134.2179	202.1583	210.3563	285.4506	323.9611	419.1341	448.5631	540.076	555.8171	629.3776	718.5416	772.5777	788.1307	817.4195	900.9566	914.2714	983.0892	998.8106	1003.6656	1028.7868	1059.3202	1083.5884	1089.0981	1124.0195	1183.1728	1238.9355	1273.3713	1285.5415	1307.4069	1361.2218	1401.0424	1408.6744	1452.8727	1476.052	1479.3368	1483.047	1495.374	1498.4405	1510.3973	1620.1587	1627.9296	3036.744	3038.2412	3040.6216	3077.4487	3101.0093	3105.8363	3123.0542	3123.9489	3171.5038	3187.7765	3197.0005
CCC1=CC=CC(C)=N1	CCc1cccc(C)n1	
InChI=1S/C8H11N/c1-3-8-6-4-5-7(2)9-8/h4-6H,3H2,1-2H3	InChI=1S/C8H11N/c1-3-8-6-4-5-7(2)9-8/h4-6H,3H2,1-2H3
