16
gdb 97537	2.74849	0.78651	0.72076	4.8168	75.11	-0.2729	-0.008	0.265	1611.3508	0.120455	-437.847812	-437.837244	-437.836299	-437.885044	36.112	
C	 0.0333081736	 1.5289592052	 0.0769088599	-0.389739
C	 0.0082221381	-0.0069286546	-0.008178035	 0.017724
O	 0.6753529095	-0.478375684	 1.155123579	-0.414256
C	-1.4057804555	-0.4782842399	 0.0047638184	 0.275894
N	-2.500405215	-0.8462923251	 0.0373344402	-0.337069
C	 0.6570176599	-0.4859065787	-1.2362319043	 0.113208
C	 1.2151792398	-0.9013285036	-2.2174343717	 0.069276
C	 1.888062773	-1.3861751264	-3.4173831953	-0.215146
O	 2.0885703377	-2.7872763177	-3.3090567099	-0.406053
H	 1.0735079727	 1.8592972588	 0.0651330121	 0.144029
H	-0.5007453081	 1.9690503577	-0.7667772859	 0.143943
H	-0.4370552611	 1.8424718167	 1.0111311901	 0.148558
H	 0.7896997892	-1.4324786096	 1.0695909299	 0.300213
H	 1.2696403067	-1.1307422287	-4.2929869839	 0.128765
H	 2.8431643343	-0.8484640353	-3.5323120709	 0.125114
H	 2.5092122053	-3.0828196547	-4.1230107127	 0.295539
17.6725	74.4608	91.7949	182.665	197.8698	207.5607	218.1209	243.4381	312.6242	350.2542	377.7158	455.3191	474.2954	534.1031	596.5094	625.362	670.0237	860.1244	939.374	1015.3017	1025.7294	1054.5115	1092.223	1163.0863	1217.5513	1246.445	1261.3253	1366.3035	1402.3297	1459.8421	1479.3874	1485.8679	1500.2637	2354.8394	2372.565	2968.6604	2989.443	3062.7427	3150.412	3154.9484	3799.5862	3821.03
CC(O)(C#N)C#CCO	C[C@@](O)(C#N)C#CCO	
InChI=1S/C6H7NO2/c1-6(9,5-7)3-2-4-8/h8-9H,4H2,1H3	InChI=1S/C6H7NO2/c1-6(9,5-7)3-2-4-8/h8-9H,4H2,1H3/t6-/m0/s1
