21
gdb 72490	2.54602	1.81246	1.49486	1.2712	76.8	-0.2453	0.0832	0.3285	1000.5347	0.184888	-424.260676	-424.252979	-424.252035	-424.292232	31.621	
C	-0.0378508458	 1.4899329963	 0.0810339218	-0.444612
C	 0.0279459223	-0.0199744234	-0.02070768	 0.456304
C	 0.7330663396	-0.5419637451	-1.2868732527	-0.219988
C	 0.8144146812	-2.0788221517	-1.2537911096	-0.218099
C	-0.5095782385	-2.702735219	-0.7712077576	-0.210362
C	-1.0645023486	-1.9141673449	 0.4216518434	 0.062748
C	-0.0401690296	-1.7115073661	 1.5521647436	-0.099835
O	 0.6818680624	-0.5510081269	 1.1442280401	-0.30793
O	-1.2852400301	-0.5592237668	 0.0181393059	-0.282117
H	 0.9715542358	 1.9023344794	 0.1540658366	 0.125733
H	-0.5278981384	 1.9113508128	-0.8005611952	 0.12217
H	-0.6023613832	 1.771760613	 0.972391299	 0.126915
H	 0.1563845414	-0.1988408845	-2.1536317812	 0.100231
H	 1.7351186474	-0.1075477403	-1.3631286864	 0.09869
H	 1.0834165669	-2.4696786112	-2.2402210203	 0.094335
H	 1.6220690364	-2.369796788	-0.5735792174	 0.112748
H	-1.2615232795	-2.6703001258	-1.5679901597	 0.105368
H	-0.3670499977	-3.755760362	-0.5017418129	 0.094098
H	-2.0158157448	-2.3198224725	 0.7738064042	 0.080853
H	-0.5358558439	-1.5226408486	 2.5127901865	 0.101211
H	 0.6457288966	-2.5583808445	 1.6692488821	 0.101542
169.0181	197.5989	247.4542	273.452	305.8925	377.7658	399.1652	466.7322	496.2334	609.753	632.4682	759.1495	802.4769	817.4622	851.1005	876.8958	882.5854	914.1344	934.4245	975.2696	1015.976	1040.6127	1051.473	1064.7701	1089.4821	1144.8711	1190.7952	1200.5452	1204.3053	1219.1953	1264.403	1281.5333	1330.709	1355.3319	1362.1323	1374.4518	1377.8134	1393.2641	1411.7849	1470.2376	1479.0474	1484.1278	1487.5334	1499.1617	1526.486	3016.7021	3031.9473	3037.2534	3044.1012	3054.4665	3060.3912	3070.454	3080.2176	3089.1889	3092.2753	3131.4302	3139.1596
CC12CCCC(CO1)O2	C[C@@]12CCC[C@@H](CO1)O2	
InChI=1S/C7H12O2/c1-7-4-2-3-6(9-7)5-8-7/h6H,2-5H2,1H3	InChI=1S/C7H12O2/c1-7-4-2-3-6(9-7)5-8-7/h6H,2-5H2,1H3/t6-,7+/m0/s1
