18
gdb 122043	2.40469	0.7887	0.61812	2.9595	73.49	-0.2746	-0.052	0.2226	1732.0403	0.144788	-439.099949	-439.089534	-439.088589	-439.137034	35.006	
O	-0.0007633603	 1.3952755898	-0.0685961982	-0.418562
C	 0.0190181128	-0.0212669336	-0.1127991588	-0.074919
C	-1.4177257059	-0.5066994865	 0.0386632744	-0.190477
C	-1.5258150277	-2.0309575397	-0.0295980844	-0.19487
C	-2.9695056866	-2.5439043998	 0.1251877715	-0.24709
C	-3.1088902536	-4.0466240374	-0.1891644938	 0.157204
O	-2.2577238487	-4.682772889	-0.7440200212	-0.223187
C	-3.5413349156	-2.2741658513	 1.445401561	 0.26868
N	-3.9878123483	-2.0937219507	 2.4961138809	-0.312237
H	 0.9040787611	 1.7131620821	-0.1373195036	 0.288812
H	 0.437414641	-0.38760672	-1.0650145176	 0.087783
H	 0.6387253796	-0.4403396759	 0.6967357223	 0.091275
H	-1.812519028	-0.1352533613	 0.9910948594	 0.131791
H	-2.0225196372	-0.0480190406	-0.7536436511	 0.109365
H	-1.1550737889	-2.4068300825	-0.9878683568	 0.129787
H	-0.9062016039	-2.4966934587	 0.7447892648	 0.124985
H	-3.6171688313	-2.0389035677	-0.6104565287	 0.155132
H	-4.0770261483	-4.4934678071	 0.1181919902	 0.116529
47.8644	73.6714	82.3626	111.6433	129.6254	171.6665	233.332	260.1317	265.4327	339.9579	450.9593	513.1713	566.4096	641.708	756.134	793.4944	855.0127	954.9017	993.8673	1044.9098	1057.447	1081.1455	1103.9234	1141.5562	1206.2596	1225.707	1260.4142	1280.158	1315.6999	1319.7253	1334.3879	1388.8663	1418.1003	1466.764	1486.0734	1501.6644	1529.1664	1842.7982	2356.2172	2923.738	2959.0307	2985.2837	2989.3592	3032.2261	3052.7474	3074.5746	3102.4762	3832.8589
OCCCC(C=O)C#N	OCCC[C@@H](C=O)C#N	
InChI=1S/C6H9NO2/c7-4-6(5-9)2-1-3-8/h5-6,8H,1-3H2	InChI=1S/C6H9NO2/c7-4-6(5-9)2-1-3-8/h5-6,8H,1-3H2/t6-/m1/s1
