20
gdb 101395	2.65172	1.1	0.82594	2.1762	76.19	-0.2625	0.0235	0.286	1388.6985	0.170262	-440.280987	-440.271353	-440.270408	-440.315843	35.039	
C	 0.0401828149	 1.5940216195	 0.0881180286	-0.397824
C	 0.027913979	 0.0611826739	 0.0707462788	-0.015603
C	 0.7138443676	-0.5130007043	 1.3234321056	-0.08321
O	 2.068325035	-0.0982654426	 1.4385284491	-0.420718
C	-1.3961427993	-0.4899233131	-0.0495092996	-0.132184
C	-2.1850032124	-0.2443850142	-1.3571166253	-0.110862
O	-2.2951509391	-1.6868529689	-1.5706212	-0.2516
C	-1.5596032602	-1.9506796745	-0.4353883312	 0.432659
N	-1.1695069553	-3.0417365834	 0.0462087288	-0.546784
H	 1.0595934858	 1.9545463658	 0.2429271197	 0.136695
H	-0.3393643109	 2.0176445006	-0.8473619352	 0.107885
H	-0.5798124243	 1.9776966556	 0.907367786	 0.113329
H	 0.5979658845	-0.2865494983	-0.8045401853	 0.068203
H	 0.2091325345	-0.1318039642	 2.2200165909	 0.104472
H	 0.6214624595	-1.6060572168	 1.3313163543	 0.132326
H	 2.5817352183	-0.5961749534	 0.794819761	 0.283786
H	-1.9747969922	-0.2368716267	 0.8454618275	 0.106976
H	-3.1716751748	 0.2144282075	-1.2634770701	 0.122698
H	-1.6228400342	 0.2232491825	-2.1699215689	 0.121098
H	-1.4710643564	-3.832446415	-0.5260922846	 0.228656
69.5467	99.4691	122.2552	161.5381	228.9109	236.5028	275.0685	291.5582	343.6594	388.8314	463.1977	510.2405	658.1257	745.3103	828.4973	865.4468	893.5687	913.7636	936.2835	967.4946	987.8847	1018.9207	1048.5767	1083.3424	1110.0489	1128.1557	1155.8134	1178.0217	1219.0177	1234.2922	1247.8043	1288.8405	1351.0786	1362.2262	1382.0733	1399.9341	1409.5754	1424.5772	1492.6865	1504.8999	1510.4941	1515.8449	1816.1769	2987.7324	3022.9521	3030.5668	3057.6668	3060.7695	3071.5348	3093.3254	3120.9371	3127.835	3473.2831	3820.4118
CC(CO)C1COC1=N	C[C@@H](CO)[C@H]1CO[C]1[NH]	
InChI=1S/C6H11NO2/c1-4(2-8)5-3-9-6(5)7/h4-5,7-8H,2-3H2,1H3	InChI=1S/C6H11NO2/c1-4(2-8)5-3-9-6(5)7/h4-5,7-8H,2-3H2,1H3/t4-,5+/m0/s1
