16
gdb 102006	2.44766	1.37678	0.94786	1.9976	74.9	-0.2668	-0.0612	0.2057	1220.9052	0.121528	-437.895533	-437.885958	-437.885014	-437.930521	33.443	
C	-0.0815134604	 1.5469517837	-0.0131404485	-0.379785
C	 0.0537700409	 0.0243068729	-0.0141815587	-0.164615
N	 0.7765440409	-0.4886757185	-1.1903405566	-0.14297
C	 2.1330142873	-0.7858012785	-1.0619028046	 0.167773
O	 2.8720778556	-1.1684719311	-1.9292373531	-0.285821
C	 0.028666383	-0.619977296	-2.3720561416	 0.316409
O	-1.1461834744	-0.307836413	-2.3897797881	-0.34482
C	 0.6777945408	-1.1394234465	-3.5507822591	 0.234321
C	 1.0431535006	-1.555879283	-4.6176446048	-0.374805
H	 0.8997500642	 2.0316830235	-0.0170103407	 0.122624
H	-0.6423574165	 1.8804967133	-0.888500572	 0.153737
H	-0.6186579467	 1.8710142062	 0.8833103548	 0.125908
H	 0.5975910813	-0.3166056603	 0.8711498455	 0.115581
H	-0.9315695897	-0.443722655	-0.0063919196	 0.147735
H	 2.4662287739	-0.6216585151	-0.0193805096	 0.093371
H	 1.4128213693	-1.9287979625	-5.5416328732	 0.215356
48.7402	86.6441	143.6255	164.2932	218.8355	228.6949	249.6169	278.904	379.8052	427.0094	465.8995	579.0542	641.1424	648.8344	716.2855	771.6401	777.8381	808.3302	950.1751	1033.2638	1065.9524	1111.1166	1124.3233	1264.0279	1278.3167	1388.9633	1397.0481	1414.6282	1451.6009	1487.8315	1493.9864	1507.4585	1737.8685	1829.348	2226.6779	2949.4036	3046.1071	3069.492	3110.5511	3129.0664	3144.0803	3497.9439
CCN(C=O)C(=O)C#C	CCN(C=O)C(=O)C#C	
InChI=1S/C6H7NO2/c1-3-6(9)7(4-2)5-8/h1,5H,4H2,2H3	InChI=1S/C6H7NO2/c1-3-6(9)7(4-2)5-8/h1,5H,4H2,2H3
