27
gdb 58259	2.67269	1.03072	0.79076	0.0759	96.24	-0.2785	0.0829	0.3614	1577.8581	0.251446	-353.557105	-353.546339	-353.545395	-353.593204	40.968	
C	-0.086827342	 1.5900659784	-0.0151733515	-0.397929
C	 0.0179172466	 0.0550916688	-0.0362878206	 0.049666
C	 0.6808361546	-0.380543081	-1.3527585841	-0.390627
C	 0.7307770254	-0.5023226701	 1.2252704519	 0.013087
C	 0.0257368371	-0.0368107141	 2.5132415079	-0.404354
C	 0.8475882847	-2.034894398	 1.2457978608	 0.065664
C	 1.8985237417	-2.7940254701	 0.3749876078	-0.22863
C	 2.1413833118	-3.7593255521	 1.5619089904	-0.233627
C	 1.4991368318	-2.7030862199	 2.4956336511	-0.227165
H	 0.906981808	 2.0490596801	 0.0586092876	 0.108915
H	-0.5479909751	 1.9545413065	-0.9390619975	 0.106731
H	-0.6887941421	 1.9602387396	 0.817816737	 0.113403
H	-1.0064800227	-0.3480964176	-0.0298113898	 0.065625
H	 1.730937936	-0.066365625	-1.3885254338	 0.107707
H	 0.6498673519	-1.4613759621	-1.4986600064	 0.116634
H	 0.1723160854	 0.0812098899	-2.2058102388	 0.103194
H	 1.7547444705	-0.0947197356	 1.2354464347	 0.057786
H	 0.4963975103	-0.4704248647	 3.3996880117	 0.114784
H	 0.0551351602	 1.0488020192	 2.6299606381	 0.113081
H	-1.0273111567	-0.3447298302	 2.514250343	 0.108166
H	-0.1461951175	-2.4733172743	 1.081473435	 0.062524
H	 1.5688708523	-3.2319309423	-0.5697958378	 0.095541
H	 2.7747030551	-2.1677575532	 0.1774297119	 0.0975
H	 1.5246507793	-4.659570097	 1.4835512165	 0.098987
H	 3.170060117	-4.0632783092	 1.7699505052	 0.093067
H	 2.2601640371	-2.0490074289	 2.9357579208	 0.097112
H	 0.8416200994	-3.0533662871	 3.2953286689	 0.093157
33.1066	79.7069	144.5789	172.4903	204.5974	216.2029	248.885	297.6349	305.8067	337.8483	378.4772	437.8738	456.8723	491.724	641.4884	767.5382	783.3027	807.1636	891.9646	915.828	923.8307	939.1718	946.8941	960.5424	966.1588	986.3012	1013.9734	1020.4271	1063.398	1093.1699	1140.871	1182.3406	1191.102	1198.0084	1206.5873	1241.7657	1256.9554	1263.8071	1275.6292	1290.6992	1298.3147	1321.7643	1347.3095	1371.7586	1382.8624	1397.9545	1409.5465	1421.2884	1475.5268	1485.893	1487.8623	1492.3195	1497.625	1504.5417	1507.78	1511.1084	1522.638	2969.1036	2986.5832	3013.8142	3026.0852	3031.6025	3032.498	3040.3945	3049.7866	3055.5304	3084.8545	3091.7952	3092.8993	3099.9886	3100.8426	3112.641	3114.5598	3124.1529	3134.2596
CC(C)C(C)C1CCC1	CC(C)[C@@H](C)C1CCC1	
InChI=1S/C9H18/c1-7(2)8(3)9-5-4-6-9/h7-9H,4-6H2,1-3H3	InChI=1S/C9H18/c1-7(2)8(3)9-5-4-6-9/h7-9H,4-6H2,1-3H3/t8-/m1/s1
