14
gdb 8254	6.95812	1.07411	0.96306	3.1372	63.21	-0.259	-0.041	0.2181	1117.6154	0.106062	-378.714292	-378.706751	-378.705807	-378.746865	26.574	
O	-0.0404678753	-0.0250382388	-0.0783321705	-0.267576
C	-0.030701341	 1.1573161602	 0.0653263182	 0.398099
C	-1.1056948384	 2.2508716161	 0.1894698312	-0.290506
N	-0.0248115151	 3.1811101426	 0.5985619852	-0.087745
C	-0.0270500152	 4.4942540043	-0.0142050532	-0.292969
C	 1.1049403717	 5.302999806	 0.4518174058	 0.281471
N	 2.0073867249	 5.9337557493	 0.7999350659	-0.296139
C	 1.0546473761	 2.2342634605	 0.2173098445	-0.291129
H	-1.5598909509	 2.4759565856	-0.7897392211	 0.123475
H	-1.8995040055	 2.1039313991	 0.9281504763	 0.145395
H	 0.012820982	 4.4608804916	-1.1210194583	 0.130662
H	-0.9546268422	 5.0118390665	 0.2555274401	 0.163494
H	 1.8261756173	 2.0782354298	 0.9763096757	 0.153912
H	 1.5394647215	 2.4560633369	-0.7473471997	 0.129557
65.0179	87.0854	154.2156	301.252	326.6977	389.1241	427.9333	473.6748	503.8263	683.5293	760.566	775.7109	934.7725	948.5791	987.0682	1045.7611	1062.8034	1097.1907	1109.2222	1163.3509	1212.393	1242.6427	1279.8938	1305.2649	1387.1092	1456.8548	1469.7092	1487.6098	1929.3207	2369.7049	2913.7116	2977.1627	2987.2083	3064.396	3082.3638	3092.9209
O=C1CN(CC#N)C1	O=C1CN(CC#N)C1	
InChI=1S/C5H6N2O/c6-1-2-7-3-5(8)4-7/h2-4H2	InChI=1S/C5H6N2O/c6-1-2-7-3-5(8)4-7/h2-4H2
