16
gdb 12489	2.95359	2.14768	1.43455	3.2376	60.94	-0.2452	-0.0317	0.2135	866.7544	0.131437	-420.878535	-420.871171	-420.870227	-420.910925	26.546	
O	 0.0510564211	-0.0642170093	 0.0974533959	-0.288139
C	-0.0210617004	 1.1382928169	 0.0262123366	 0.386313
C	-1.351916895	 1.8842047359	 0.0583410383	-0.345618
C	-1.802348546	 2.4162365666	-1.3162951608	-0.066775
O	-0.7719024876	 2.942369654	-2.1426616711	-0.23506
C	 0.2872054572	 3.6269975782	-1.5358615681	 0.016848
O	 1.36402308	 2.7856404119	-1.2155866671	-0.226971
C	 1.2422677435	 2.0152928321	-0.0330671621	-0.169565
H	-2.1176875017	 1.2004420903	 0.4332374513	 0.132497
H	-1.2640200068	 2.7140528881	 0.7686381375	 0.118424
H	-2.2370234416	 1.596386647	-1.8948909695	 0.132912
H	-2.5869219308	 3.171604014	-1.1648377689	 0.104401
H	 0.6752312452	 4.3169504671	-2.2885055136	 0.124869
H	-0.0471758197	 4.1932384813	-0.6494920719	 0.079554
H	 1.2476981247	 2.6699251883	 0.8564049514	 0.100066
H	 2.1138092478	 1.3601945773	 0.0036724521	 0.136243
51.6909	123.9409	143.728	305.9725	345.1029	435.2138	466.0865	492.2242	608.5086	655.1003	783.2432	858.947	908.8026	936.5409	962.8995	1007.7305	1085.2997	1099.6745	1121.1354	1190.1491	1215.2893	1250.5033	1256.6534	1285.9643	1332.016	1349.4169	1380.0623	1411.9191	1440.0128	1475.8593	1482.6525	1505.2956	1516.0815	1821.7038	2952.0284	2957.1894	3000.7899	3046.5358	3085.7018	3106.4693	3112.8601	3127.003
O=C1CCOCOC1	O=C1CCOCOC1	
InChI=1S/C5H8O3/c6-5-1-2-7-4-8-3-5/h1-4H2	InChI=1S/C5H8O3/c6-5-1-2-7-4-8-3-5/h1-4H2
