22
gdb 23038	3.44686	0.94397	0.80357	0.5981	85.29	-0.2375	0.0193	0.2568	1486.4854	0.194131	-404.333128	-404.323232	-404.322288	-404.369243	36.002	
C	-0.0910154203	 1.4893041982	-0.0473889896	-0.469939
C	 0.0005529759	-0.0096195979	 0.0820693625	 0.341435
N	-0.0021088561	-0.6194763919	 1.2055121118	-0.173136
O	-0.0774872304	 0.2811954813	 2.2847020116	-0.405393
C	 0.1070275803	-0.844363301	-1.1676979606	-0.04611
C	 1.4236009862	-0.6287128079	-1.9540273427	-0.205008
C	 1.4259582652	-1.7754851174	-2.9843475432	-0.205369
C	 0.6219080101	-2.9353814668	-2.3236559032	-0.215881
C	 0.0760487488	-2.3710470711	-0.9896078243	-0.20416
H	 0.8131234077	 1.9659005423	 0.3470128246	 0.144581
H	-0.218332404	 1.7915879235	-1.0887260099	 0.115779
H	-0.9266675308	 1.8711139764	 0.5462563455	 0.146501
H	-0.0992544941	-0.3149833744	 3.0402775439	 0.303158
H	-0.7215722774	-0.5451406091	-1.8294326944	 0.076534
H	 1.4996429388	 0.3600386093	-2.4154004817	 0.093575
H	 2.2667858384	-0.7320011515	-1.2599832368	 0.103555
H	 0.9322103314	-1.4494888713	-3.9058327127	 0.097585
H	 2.4409777844	-2.0723076416	-3.2618556146	 0.097171
H	-0.1956225093	-3.2528528616	-2.9781280514	 0.096825
H	 1.2435273256	-3.8189044331	-2.1545094248	 0.098147
H	 0.7299694194	-2.6404388361	-0.1554093449	 0.114222
H	-0.9205513199	-2.7440268183	-0.7405085749	 0.095928
36.9551	60.9177	82.5607	131.1094	158.3249	250.4567	302.9149	369.58	389.9324	427.723	493.8277	563.9145	627.1507	689.0709	763.379	820.5817	851.2804	892.4309	914.5344	957.174	970.7509	979.0406	999.4302	1027.3442	1040.2486	1059.9123	1103.5741	1184.7099	1202.1897	1215.6171	1250.106	1261.2693	1296.3977	1310.268	1331.1225	1334.9119	1340.5844	1383.9325	1399.7243	1405.0251	1474.7677	1483.7614	1486.6342	1495.2154	1498.4995	1519.8033	1725.0427	2977.3631	3033.5879	3041.8601	3042.7054	3054.653	3065.9509	3076.7063	3088.4103	3098.4741	3101.4681	3112.1497	3133.5615	3823.1244
CC(=NO)C1CCCC1	CC(=NO)C1CCCC1	
InChI=1S/C7H13NO/c1-6(8-9)7-4-2-3-5-7/h7,9H,2-5H2,1H3	InChI=1S/C7H13NO/c1-6(8-9)7-4-2-3-5-7/h7,9H,2-5H2,1H3
