18
gdb 29266	5.51168	0.9261	0.84076	1.0526	81.82	-0.1967	0.032	0.2287	1387.1504	0.148348	-401.968443	-401.959983	-401.959038	-402.001944	31.42	
C	 0.1614972163	 1.5483184163	-0.1050619467	-0.498767
C	 0.0240755174	 0.0605196075	 0.0181843523	 0.293353
C	-0.2582684711	-0.824567336	-0.9995028298	-0.177693
N	-0.3189231723	-2.0891825406	-0.4692941033	-0.30878
C	-0.0540923734	-2.0381488653	 0.8754439422	 0.350918
C	 0.1587065877	-0.7178361168	 1.207546021	-0.357929
C	-0.0700115598	-3.2667803857	 1.6862832518	-0.040239
C	-1.1939687234	-4.2239590157	 1.6629536974	-0.180241
O	 0.014262551	-4.4994050186	 0.9496019667	-0.248784
H	 1.1441150718	 1.8949420844	 0.2358991113	 0.123208
H	 0.0408178508	 1.8705557096	-1.1435990082	 0.117083
H	-0.5888660392	 2.0788996908	 0.4931917556	 0.122572
H	-0.4113870984	-0.653574229	-2.0535542667	 0.112844
H	-0.3866446419	-2.9546326244	-0.9780045799	 0.265894
H	 0.3733834098	-0.3440003952	 2.1981980286	 0.087035
H	 0.5398979424	-3.2353797472	 2.5883594702	 0.104933
H	-1.3807992098	-4.8623295248	 2.5256650574	 0.119065
H	-2.0624826177	-4.0023246091	 1.0450687101	 0.115526
73.0249	102.4939	141.1158	161.6729	264.6546	299.3024	406.5393	444.7657	555.8329	626.6625	641.5141	687.5717	706.5053	727.9481	807.4928	835.7924	891.0306	979.5961	985.8872	1002.3628	1020.1994	1064.2252	1094.4182	1127.9369	1145.3518	1169.7365	1170.2638	1255.352	1280.7362	1323.1984	1389.9667	1417.223	1419.5702	1469.12	1483.5215	1503.3473	1518.5815	1552.9037	1634.2585	3022.7295	3070.1699	3082.6436	3102.2796	3119.9297	3175.3725	3235.4917	3256.0604	3670.9985
CC1=CNC(=C1)C1CO1	Cc1c[nH]c(c1)[C@H]1CO1	
InChI=1S/C7H9NO/c1-5-2-6(8-3-5)7-4-9-7/h2-3,7-8H,4H2,1H3	InChI=1S/C7H9NO/c1-5-2-6(8-3-5)7-4-9-7/h2-3,7-8H,4H2,1H3/t7-/m1/s1
