21
gdb 61392	2.94746	0.92869	0.84911	3.8624	81.17	-0.2457	0.0443	0.29	1461.4827	0.178177	-424.194173	-424.183374	-424.18243	-424.230164	40.688	
C	 0.0385155818	 1.5366419787	-0.0148736703	-0.412598
C	-0.1109993973	 0.0101104898	-0.0412776743	 0.321072
C	 0.4250337327	-0.606086593	 1.2575661844	-0.425408
O	-1.512072395	-0.3170999768	-0.1868266988	-0.458188
C	 0.5787050214	-0.5551536262	-1.2985736382	-0.214074
C	 0.4612608957	-2.0839364356	-1.4995971018	-0.0799
O	-0.8751379455	-2.5019790249	-1.7175769343	-0.439004
C	 1.2793042396	-2.4994713518	-2.6425617527	 0.34764
C	 1.9755733305	-2.8180323679	-3.5683125379	-0.448082
H	 1.0895431532	 1.8308427169	 0.0677500742	 0.119804
H	-0.3761240262	 1.9752726117	-0.9263760272	 0.128681
H	-0.495918129	 1.9606169013	 0.8430621576	 0.104764
H	-0.0628533026	-0.1461971431	 2.1252322945	 0.107298
H	 0.2364864002	-1.6816666129	 1.2971586526	 0.134917
H	 1.5015935894	-0.43889406	 1.360477638	 0.125273
H	-1.9629549842	-0.0980748568	 0.6354474853	 0.283904
H	 0.1502460668	-0.0687679141	-2.1812035021	 0.120971
H	 1.6396085052	-0.2883799288	-1.260175212	 0.11017
H	 0.8755722241	-2.584867856	-0.6070666036	 0.086729
H	-1.4250866713	-1.9375443946	-1.1538072288	 0.293061
H	 2.5817052806	-3.114130986	-4.3883203648	 0.19297
23.4658	115.4767	130.8289	223.7573	233.654	255.6984	272.1112	292.0652	317.6958	350.4859	386.6471	400.0398	443.9087	516.1761	537.1606	544.586	582.9067	620.8862	664.7573	769.3689	859.8623	916.0459	924.9958	933.6003	974.0461	1007.5259	1036.9448	1092.7212	1157.4651	1170.5545	1195.5581	1280.6137	1301.6713	1345.1162	1367.5185	1377.8129	1400.1214	1417.9332	1459.9965	1477.3045	1483.9009	1486.0035	1500.1933	1508.8624	2240.9288	2938.6862	3028.1411	3033.5483	3051.1596	3094.0298	3097.9685	3102.3701	3121.5273	3125.3824	3504.8115	3700.7402	3813.1683
CC(C)(O)CC(O)C#C	CC(C)(O)C[C@@H](O)C#C	
InChI=1S/C7H12O2/c1-4-6(8)5-7(2,3)9/h1,6,8-9H,5H2,2-3H3	InChI=1S/C7H12O2/c1-4-6(8)5-7(2,3)9/h1,6,8-9H,5H2,2-3H3/t6-/m0/s1
