18
gdb 30758	3.08305	1.16987	0.89248	1.4766	77.53	-0.1761	0.0396	0.2157	1286.3223	0.14885	-435.282002	-435.272223	-435.271279	-435.317157	35.634	
N	 0.1240494127	 1.3804001713	-0.1834820913	-0.618682
C	 0.042402403	-0.0288178079	-0.0417657368	 0.183758
C	-1.0511440477	-0.8327134893	 0.1948252807	-0.16845
N	-0.5973641828	-2.1134712338	 0.3843086028	-0.304731
C	 0.7768428785	-2.1610303413	 0.2115248961	 0.201475
C	 1.5123596508	-3.4495331856	 0.3085744602	-0.179634
O	 1.0161199248	-4.4461709923	-0.5932276704	-0.421448
C	 1.1985285418	-0.8671071028	-0.031873766	 0.133194
N	 2.496281496	-0.3756260876	-0.2748637336	-0.624168
H	 0.4282260458	 1.6425379529	-1.1169363367	 0.241587
H	-0.77116569	 1.8245463736	-0.017235065	 0.235351
H	-2.099490497	-0.5886633766	 0.263486914	 0.104832
H	-1.1742069956	-2.9359572398	 0.4026400945	 0.259678
H	 2.5866067004	-3.2683337323	 0.1515047632	 0.087873
H	 1.4071268089	-3.9086493264	 1.2998348737	 0.110932
H	 1.0098451039	-4.0446214835	-1.4693966017	 0.277951
H	 3.2172508565	-0.9412755958	 0.1550039313	 0.235574
H	 2.5761221399	 0.5738030171	 0.0764073349	 0.244907
39.4931	80.8	112.1934	217.06	243.0912	275.8912	284.0498	313.0905	361.492	390.6413	429.5115	525.8768	583.6027	649.1795	681.6289	703.743	756.3998	760.4101	827.5869	856.1312	957.3904	971.278	1028.7103	1110.8836	1132.0266	1190.9381	1241.8062	1249.6308	1284.3521	1344.6921	1371.3746	1419.7575	1458.6379	1499.3066	1502.507	1584.3965	1630.1531	1649.0739	1675.0189	2987.2959	3036.8134	3255.2268	3488.3158	3503.8108	3588.187	3602.5964	3684.5057	3797.0384
NC1=CNC(CO)=C1N	Nc1c[nH]c(CO)c1N	
InChI=1S/C5H9N3O/c6-3-1-8-4(2-9)5(3)7/h1,8-9H,2,6-7H2	InChI=1S/C5H9N3O/c6-3-1-8-4(2-9)5(3)7/h1,8-9H,2,6-7H2
