18
gdb 36722	5.07856	0.75	0.70365	4.9989	78.95	-0.2482	0.0008	0.249	1573.5946	0.147916	-401.969651	-401.960981	-401.960036	-402.004156	31.091	
N	-0.0265643784	-1.1345993101	 0.1727583728	-0.308174
C	-0.0208252622	 0.0187013895	 0.0978873328	 0.254821
C	 0.0099907422	 1.4750951265	-0.0001672426	-0.338531
C	 1.4423277163	 2.0305922906	-0.1186299489	-0.192732
C	 1.4376583422	 3.5631243154	-0.1935818513	 0.080828
O	 0.7836880077	 4.1064266158	 0.9581916114	-0.279623
C	 1.6485444538	 5.0084054535	 1.6476547031	-0.117231
C	 2.9321861167	 4.9891735982	 0.8678701389	-0.092013
C	 2.8105736204	 4.1813040446	-0.1782298	-0.099919
H	-0.5889372327	 1.7789449594	-0.8671969517	 0.147606
H	-0.4702425676	 1.9063705604	 0.8836077643	 0.171536
H	 2.0326473503	 1.7152063519	 0.7474350679	 0.123548
H	 1.9269221689	 1.6240893504	-1.0133135081	 0.115951
H	 0.87285162	 3.8658981922	-1.0932199373	 0.083869
H	 1.1928356258	 6.0104289988	 1.6800996447	 0.111524
H	 1.7796284782	 4.6786799533	 2.689487565	 0.1127
H	 3.8030993046	 5.5682493498	 1.1469338776	 0.113665
H	 3.5598033937	 3.9654921397	-0.9290183186	 0.112175
53.2075	92.971	107.2821	126.615	223.4228	303.1429	393.1891	413.9539	470.8777	575.2856	712.5594	743.8424	778.898	816.1428	868.0846	923.362	951.4205	960.7764	1006.8862	1018.9836	1041.6633	1049.7675	1090.0784	1112.6261	1134.5824	1189.1889	1208.1839	1255.9393	1306.5451	1316.4807	1358.8171	1360.7745	1389.6067	1392.5103	1468.6398	1485.0644	1521.6207	1692.0518	2361.6474	2941.8484	2980.8649	3000.5707	3041.6391	3049.4801	3087.2836	3105.1774	3210.0941	3234.1806
N#CCCC1OCC=C1	N#CCC[C@H]1OCC=C1	
InChI=1S/C7H9NO/c8-5-1-3-7-4-2-6-9-7/h2,4,7H,1,3,6H2	InChI=1S/C7H9NO/c8-5-1-3-7-4-2-6-9-7/h2,4,7H,1,3,6H2/t7-/m1/s1
