19
gdb 113469	2.85259	1.31603	1.12619	1.1251	75.9	-0.2353	0.0833	0.3186	1151.3554	0.15789	-422.949217	-422.940795	-422.939851	-422.982401	31.935	
C	-0.4859033743	 0.9982283784	-0.336696267	-0.240962
O	 0.4590338586	 0.0053257834	 0.0247704643	-0.236885
C	 0.9640333715	-0.6606557814	-1.0872880565	 0.064177
C	 1.5961339694	-2.0000409788	-0.8530695156	-0.41068
C	 0.2679057985	-1.9041629662	-1.5608099698	 0.335204
C	-1.0679157159	-2.5067035907	-1.055150306	-0.334801
C	-1.3774483184	-2.857488404	-2.5233098339	 0.040099
O	-1.3375679854	-1.6419918098	-3.2797131371	-0.247053
C	-0.0935671721	-2.3009294997	-2.9799861232	-0.083551
H	-0.0070952255	 1.8226908966	-0.8866574321	 0.107609
H	-1.2850775599	 0.5851778298	-0.9665752571	 0.123452
H	-0.9119010199	 1.3909607719	 0.5893868571	 0.124227
H	 1.4098851367	-0.0094616185	-1.8423152477	 0.082928
H	 2.4842673171	-2.2546371792	-1.4227117361	 0.115576
H	 1.5836576677	-2.376673047	 0.1646555211	 0.126178
H	-0.916017149	-3.3904063459	-0.4292409026	 0.110492
H	-1.7762881393	-1.8308799475	-0.5712508484	 0.115786
H	-1.9773467663	-3.6694290048	-2.9171614901	 0.105011
H	 0.5462580565	-2.5643555968	-3.8143678191	 0.103192
82.139	135.89	163.4624	186.9696	220.7983	321.0723	379.6242	448.4699	476.7338	546.3375	614.0298	783.2854	812.0832	844.4605	859.123	883.8118	889.4219	948.6271	968.6286	1006.8469	1034.0874	1054.0547	1071.0619	1073.2402	1123.9063	1152.1553	1171.5132	1183.6805	1187.8628	1224.2685	1233.7075	1249.3366	1269.2739	1334.3711	1379.9918	1416.1476	1468.7058	1474.9082	1484.9441	1497.8106	1516.985	2986.9829	3045.6834	3064.5755	3077.0053	3120.6778	3122.5023	3125.6053	3179.5984	3194.9115	3214.1476
COC1CC11CC2OC12	CO[C@H]1C[C@]21C[C@H]1O[C@@H]21	
InChI=1S/C7H10O2/c1-8-5-3-7(5)2-4-6(7)9-4/h4-6H,2-3H2,1H3	InChI=1S/C7H10O2/c1-8-5-3-7(5)2-4-6(7)9-4/h4-6H,2-3H2,1H3/t4-,5+,6-,7+/m1/s1
