23
gdb 103083	2.01928	1.41446	1.18667	1.5705	82.73	-0.23	0.0762	0.3062	1237.3705	0.20127	-425.407805	-425.396495	-425.395551	-425.443073	41.729	
C	-0.5869334753	 0.1917384639	-2.7626186011	-0.247591
O	-0.3557003916	-0.5681200922	-1.5910180862	-0.283391
C	-1.5117297035	-0.9069250208	-0.8688504164	 0.376959
C	-2.311101706	 0.2648821876	-0.3419751357	-0.462197
C	-2.2250620247	-2.2010603644	-1.2740017627	-0.143248
C	-1.8485685744	-2.9932337834	-2.507624927	-0.422465
C	-1.3453108928	-2.1471936328	-0.0301126537	 0.301846
C	-0.0174924816	-2.8673088418	 0.0380200096	-0.446162
O	-2.016016085	-2.0995304091	 1.2093265594	-0.46585
H	 0.3675346941	 0.2519247606	-3.2915987395	 0.124464
H	-1.3294947811	-0.2819670226	-3.4191298798	 0.108926
H	-0.9243559349	 1.2114836061	-2.5339523357	 0.113228
H	-2.8307028009	 0.7955242241	-1.1466159825	 0.10943
H	-3.0527211132	-0.0810320178	 0.378138584	 0.13936
H	-1.6478913845	 0.9737981011	 0.1653448925	 0.121406
H	-3.2874918244	-2.2015745235	-1.0389914836	 0.07947
H	-0.8134971306	-2.8071013366	-2.8025734143	 0.130698
H	-1.9612475606	-4.0706982975	-2.3407443823	 0.111652
H	-2.4891992535	-2.7264271363	-3.3553727466	 0.114219
H	 0.5536288795	-2.754457877	-0.8831370198	 0.135606
H	 0.5762046171	-2.4583970815	 0.8612071212	 0.12589
H	-0.1670361469	-3.9376561867	 0.2274446187	 0.099746
H	-2.3337601252	-2.9888298793	 1.4006006416	 0.278001
119.6892	142.6101	161.2779	176.4509	183.3329	203.3496	207.8092	228.9165	263.2923	274.7807	301.4711	334.8332	401.5451	421.515	462.5782	520.1996	608.2802	684.0537	737.3823	799.0504	924.6097	964.2878	973.04	1029.8162	1064.4885	1083.1715	1108.6838	1118.0876	1139.4647	1177.3732	1182.737	1196.9017	1223.3057	1273.1686	1300.4137	1336.2967	1402.419	1405.72	1417.155	1454.3146	1472.5635	1481.6331	1485.3964	1492.2594	1493.7967	1501.4939	1503.2034	1513.0124	1518.994	2997.9092	3026.8616	3030.1131	3037.0571	3052.1811	3080.9815	3094.2895	3095.8542	3112.8997	3116.493	3132.8722	3150.9511	3153.1039	3795.4076
COC1(C)C(C)C1(C)O	CO[C@@]1(C)[C@@H](C)[C@]1(C)O	
InChI=1S/C7H14O2/c1-5-6(2,8)7(5,3)9-4/h5,8H,1-4H3	InChI=1S/C7H14O2/c1-5-6(2,8)7(5,3)9-4/h5,8H,1-4H3/t5-,6-,7-/m0/s1
