18
gdb 70650	2.24121	1.61882	1.30155	5.141	74.39	-0.237	0.0269	0.2639	1052.4264	0.149808	-398.112396	-398.103958	-398.103014	-398.145673	31.892	
N	 0.1202327034	 1.4005818266	 0.0160168641	-0.59344
C	-0.0057968291	-0.0351038715	-0.0187490995	 0.314357
C	-0.4789898153	-0.8180316393	-1.2236300982	-0.334798
C	-1.3306548899	-0.744594238	 0.0262811923	-0.08208
C	-1.2018272297	-1.9000233962	 1.0256861877	-0.198263
N	 0.0367978368	-1.6704942106	 1.8037911459	-0.284242
C	 0.9025913037	-0.7972111849	 0.9849246329	-0.202694
C	 1.9516950589	-1.5874053253	 0.3151081284	 0.31369
N	 2.7757508371	-2.1884971944	-0.2283154029	-0.341238
H	 0.8266075303	 1.7143006976	-0.6445176724	 0.238418
H	-0.7501326148	 1.8413269268	-0.262571289	 0.233602
H	-0.8008402451	-0.2407203387	-2.0848381732	 0.109309
H	 0.0044348172	-1.7594625145	-1.4691906703	 0.13648
H	-2.2565385545	-0.1791460152	-0.0075711648	 0.091153
H	-2.0563800636	-1.9588896551	 1.7044209145	 0.112093
H	-1.1328271111	-2.8626758681	 0.5057013616	 0.124119
H	-0.2014271163	-1.1506799098	 2.640730149	 0.229719
H	 1.400027872	-0.0601786392	 1.6203965539	 0.133814
60.1396	138.3076	151.568	199.4482	239.3227	357.0326	387.076	425.3891	521.32	548.9405	627.1209	695.9295	734.8577	769.9718	846.7983	859.036	891.45	902.1661	939.5897	963.5415	998.8486	1040.3683	1050.7296	1068.6739	1080.9408	1134.7585	1188.7065	1200.5571	1252.8951	1293.5452	1314.2918	1341.4998	1363.434	1398.8901	1470.3988	1483.5303	1509.808	1656.1662	2355.7237	3037.0812	3086.6344	3096.3935	3116.839	3158.3643	3205.4545	3487.9352	3536.4401	3570.2612
NC12CC1CNC2C#N	N[C@]12C[C@H]1CN[C@H]2C#N	
InChI=1S/C6H9N3/c7-2-5-6(8)1-4(6)3-9-5/h4-5,9H,1,3,8H2	InChI=1S/C6H9N3/c7-2-5-6(8)1-4(6)3-9-5/h4-5,9H,1,3,8H2/t4-,5-,6+/m0/s1
