13
gdb 128013	2.85854	1.39303	0.94207	2.9748	66.07	-0.2666	-0.0801	0.1865	1153.6433	0.087304	-486.021745	-486.013459	-486.012515	-486.055739	27.893	
C	 0.0124191201	 1.4261698409	 0.1141963582	-0.33682
N	 0.1073537616	-0.0236293933	 0.0384219392	-0.361799
C	 0.518248812	-0.5778500877	-1.0044625058	 0.589126
O	 0.934127884	-0.0378190181	-2.1974678305	-0.253032
N	 1.30133253	-1.1194155334	-3.0559868156	 0.039325
N	 1.1324625485	-2.1951326752	-2.464180268	-0.006831
N	 0.6580025651	-1.9636334142	-1.2089819906	-0.173004
C	 0.3662793575	-2.9899310712	-0.2897441902	 0.185107
O	 0.5073238918	-4.1536028612	-0.525069418	-0.25123
H	 0.6281618811	 1.7800910256	 0.9474995473	 0.141118
H	 0.3258228985	 1.9436043104	-0.7991476718	 0.13553
H	-1.0227976468	 1.703833954	 0.3378231955	 0.141118
H	-0.0007729634	-2.5468017867	 0.6483646504	 0.151392
49.9331	109.5198	159.5099	161.5152	223.2502	246.8681	296.2991	405.9949	585.0208	653.9844	668.72	710.318	772.0159	844.8715	987.1756	1038.1278	1054.1093	1108.4211	1136.2784	1166.8019	1231.3874	1344.0818	1416.3717	1448.9608	1491.8985	1502.5441	1567.1592	1833.1699	1848.0216	3025.2171	3043.4737	3093.3235	3097.8059
CN=C1ON=NN1C=O	CN=c1onnn1C=O	
InChI=1S/C3H4N4O2/c1-4-3-7(2-8)5-6-9-3/h2H,1H3	InChI=1S/C3H4N4O2/c1-4-3-7(2-8)5-6-9-3/h2H,1H3
