21
gdb 69329	2.90779	1.34931	1.2759	2.2804	78.1	-0.2482	0.0864	0.3345	1137.2972	0.180261	-424.231234	-424.221923	-424.220979	-424.264529	35.817	
C	 0.0604182385	 1.4851755702	-0.1624952823	-0.492084
C	-0.0356342733	 0.0011821821	 0.0498148883	 0.400678
C	-1.2629028725	-0.7801813067	-0.3836754285	-0.147094
O	-1.1668497751	-2.0508024306	 0.2413125439	-0.302482
C	-0.3212969766	-1.9850561542	 1.4092257814	 0.362148
C	-1.1739492314	-1.7793540489	 2.6675906208	-0.425333
C	 0.4716775896	-3.288939068	 1.4543152175	-0.421353
C	 0.5491364474	-0.7618322996	 1.1554897929	-0.083436
O	 1.1659539384	-0.7700739982	-0.1363040988	-0.298342
H	 0.9916734934	 1.8718081007	 0.2579577311	 0.13489
H	 0.0455847391	 1.725885226	-1.2311579876	 0.132173
H	-0.7809292289	 2.0029326474	 0.309795244	 0.125029
H	-2.1729066037	-0.2388064326	-0.076005705	 0.089159
H	-1.308098026	-0.9373216124	-1.4675087219	 0.112644
H	-1.8793436943	-2.607681507	 2.7761215591	 0.127765
H	-0.5499938812	-1.7378961014	 3.5666975559	 0.113525
H	-1.7469940702	-0.8485586986	 2.6077703111	 0.11325
H	 1.1029528763	-3.3662577619	 0.566696651	 0.13799
H	 1.1039682306	-3.3315253182	 2.3469133741	 0.107989
H	-0.2114352418	-4.142789086	 1.4747816024	 0.121977
H	 1.1228016116	-0.313361072	 1.9634283806	 0.090906
114.3953	166.3323	182.1908	202.6847	225.768	255.1541	313.4234	328.833	380.3224	396.6911	415.0666	539.5427	564.7598	637.9021	753.0051	819.5861	867.0259	882.9413	921.9895	930.732	949.2292	994.6973	1003.6964	1032.0243	1069.1199	1089.4806	1133.3173	1182.4772	1209.9808	1235.0292	1253.3199	1264.2929	1314.5642	1375.2417	1393.4953	1410.4717	1412.4119	1465.7661	1476.6143	1483.3634	1488.9837	1495.5949	1499.8647	1505.0925	1510.4611	2967.8703	3034.531	3037.1592	3043.9462	3056.9734	3098.6612	3102.8711	3112.7708	3119.1284	3126.4655	3136.0748	3141.9495
CC12COC(C)(C)C1O2	C[C@]12COC(C)(C)[C@H]1O2	
InChI=1S/C7H12O2/c1-6(2)5-7(3,9-5)4-8-6/h5H,4H2,1-3H3	InChI=1S/C7H12O2/c1-6(2)5-7(3,9-5)4-8-6/h5H,4H2,1-3H3/t5-,7+/m1/s1
