18
gdb 56507	2.56753	1.24665	1.04982	1.3809	76.28	-0.2833	0.0059	0.2892	1192.3168	0.14625	-398.156552	-398.146434	-398.14549	-398.191153	36.672	
C	 0.0448450482	 1.5765813868	 0.0453116753	-0.430347
C	-0.0090217166	 0.0369693922	 0.0223517835	-0.127557
C	 0.7628408787	-0.5162300761	 1.1396833499	 0.291712
N	 1.4006840937	-0.942307257	 2.0036293476	-0.328131
C	-1.467084038	-0.5396973743	 0.0328154575	 0.06975
C	-1.448604759	-2.0780025442	 0.0404744648	-0.423105
N	-2.1662051711	-0.0692670097	 1.2276993906	-0.504311
C	-2.1301238498	-0.0812226631	-1.2159063733	 0.261665
N	-2.6753205419	 0.2966750722	-2.1632102526	-0.340169
H	 1.0783527675	 1.9169916035	-0.0475479379	 0.148493
H	-0.5302133348	 1.9853089636	-0.7895711559	 0.152465
H	-0.3512636899	 1.9680449138	 0.9853223328	 0.146708
H	 0.4630515805	-0.3143290249	-0.9032390354	 0.141919
H	-0.9955352864	-2.4272776317	 0.9703920728	 0.167341
H	-2.4675963476	-2.468684356	-0.0286028505	 0.13602
H	-0.879483103	-2.4663180262	-0.8074658297	 0.141692
H	-2.3917695547	 0.9177572305	 1.1580546888	 0.248421
H	-3.0450184859	-0.5656832695	 1.3362836216	 0.247433
67.3219	129.1337	170.0644	191.6455	219.9075	237.549	249.9073	270.8222	305.6018	359.6541	387.0751	413.3925	504.1422	567.1715	585.1601	612.1986	740.7745	823.4828	869.5313	910.1004	969.371	1024.0362	1047.0258	1083.434	1111.6357	1162.5433	1228.0846	1307.1868	1333.6467	1343.0829	1408.5016	1412.3435	1487.2268	1494.0791	1495.9605	1506.736	1666.3046	2340.9472	2361.7027	3044.2512	3053.417	3055.3717	3127.7012	3135.6844	3136.4866	3147.5177	3509.2512	3588.2473
CC(C#N)C(C)(N)C#N	C[C@@H](C#N)[C@@](C)(N)C#N	
InChI=1S/C6H9N3/c1-5(3-7)6(2,9)4-8/h5H,9H2,1-2H3	InChI=1S/C6H9N3/c1-5(3-7)6(2,9)4-8/h5H,9H2,1-2H3/t5-,6-/m0/s1
