15
gdb 21263	3.51712	1.96853	1.28267	4.8582	63.83	-0.2296	0.0153	0.2449	917.6442	0.11937	-395.967062	-395.95923	-395.958285	-395.999743	27.005	
C	-0.3267638779	 0.6301265019	 0.7680930934	-0.252956
O	 0.1541993382	 0.9350259152	-0.5376442346	-0.258139
C	 0.6199326685	-0.1173953594	-1.2251382685	 0.425296
C	 0.7579966824	-1.4679121939	-0.9849359249	-0.202935
N	 1.311508379	-2.0308013674	-2.0969253783	-0.186453
N	 1.5191614797	-1.1173989895	-2.9947396835	-0.156285
N	 1.0989051967	 0.0701464411	-2.4751804182	-0.038553
C	 1.1926147524	 1.2990192738	-3.2313753886	-0.334785
H	 0.4726863781	 0.2083024837	 1.3882839532	 0.137926
H	-0.6681868837	 1.5722659382	 1.1971100715	 0.145939
H	-1.1611906596	-0.0791336337	 0.7193401759	 0.137934
H	 0.5032686384	-2.047170313	-0.114144401	 0.119548
H	 0.2024008337	 1.7385073124	-3.3799005216	 0.147848
H	 1.8281262593	 2.0237414439	-2.7150092598	 0.147844
H	 1.631621405	 1.0460239266	-4.1962381749	 0.167771
79.5311	98.123	189.2521	191.1262	209.7765	308.2331	337.1351	525.0348	639.8029	689.1971	715.8683	769.4443	785.9816	970.6631	1021.3736	1071.7239	1132.041	1155.048	1182.6889	1218.3093	1241.4074	1270.7603	1313.4014	1365.0814	1442.2043	1472.0974	1481.8246	1486.9889	1504.4409	1507.3223	1526.0387	1623.7818	3021.0599	3051.025	3086.8396	3114.957	3152.1562	3165.2746	3280.1996
COC1=CN=NN1C	COc1cnnn1C	
InChI=1S/C4H7N3O/c1-7-4(8-2)3-5-6-7/h3H,1-2H3	InChI=1S/C4H7N3O/c1-7-4(8-2)3-5-6-7/h3H,1-2H3
