21
gdb 87786	4.14582	0.95638	0.9043	1.7708	83.9	-0.2572	0.0716	0.3289	1381.241	0.181209	-387.047348	-387.038507	-387.037563	-387.081045	34.206	
C	 0.2090843536	 1.4872307161	-0.3861332705	-0.405076
C	 0.1608777215	-0.0017157648	-0.1245326755	-0.059296
C	 1.4325210243	-0.779397955	 0.1443043799	-0.349101
C	 0.4317706784	-0.5551322111	 1.2430631138	 0.364861
C	 0.6889302506	 0.2186302136	 2.5517033887	-0.392594
C	 0.1602232177	-1.0152876374	 3.2944573697	 0.46319
C	 0.6858783097	-1.660330723	 4.4972653321	-0.262845
O	-0.5736337054	-0.9699255496	 4.5023371636	-0.271749
C	-0.3409968864	-1.6563216857	 1.9939145777	-0.394543
H	 0.9867401455	 1.9692476373	 0.2153896348	 0.116289
H	 0.4272490324	 1.6976122525	-1.4389446085	 0.117532
H	-0.7445377	 1.9686615539	-0.1411698453	 0.117364
H	-0.5974041186	-0.5342410481	-0.6955631006	 0.08165
H	 1.5284608723	-1.7782579731	-0.270479602	 0.107827
H	 2.3649318938	-0.2227107876	 0.1856159203	 0.107003
H	 1.7186441355	 0.5186616468	 2.7652764019	 0.103434
H	 0.0317103737	 1.0849716688	 2.6829671922	 0.113499
H	 0.6241988261	-2.7429670986	 4.6043717277	 0.113247
H	 1.4818803366	-1.1814253993	 5.0668779723	 0.113107
H	-1.4282648384	-1.5737084749	 1.8903922373	 0.112314
H	-0.0432577828	-2.6922407909	 1.8075020903	 0.103886
46.4769	143.788	187.819	193.0392	287.7201	315.4327	347.3121	398.8182	415.7629	422.306	496.4366	658.8715	767.324	831.1492	843.0115	864.8655	876.7131	882.8215	911.6585	942.9013	965.2835	999.3358	1042.6885	1075.3305	1091.0055	1125.311	1127.108	1129.0928	1157.0273	1164.4399	1184.2171	1197.3392	1220.0349	1241.7583	1247.0141	1334.4619	1407.0565	1424.2705	1436.3081	1466.0115	1486.8443	1491.2056	1492.7233	1505.4984	1538.927	3025.7334	3040.2816	3045.3331	3076.0318	3086.8705	3094.2264	3094.5395	3095.1878	3113.5403	3125.0059	3162.2776	3198.1249
CC1CC11CC2(CO2)C1	C[C@H]1C[C@]21C[C@]1(CO1)C2	
InChI=1S/C8H12O/c1-6-2-7(6)3-8(4-7)5-9-8/h6H,2-5H2,1H3	InChI=1S/C8H12O/c1-6-2-7(6)3-8(4-7)5-9-8/h6H,2-5H2,1H3/t6-,7-,8+/m0/s1
