21
gdb 22693	4.40724	0.65253	0.60954	0.8449	83.72	-0.2347	0.0147	0.2495	1853.1717	0.180312	-420.337804	-420.327484	-420.32654	-420.374559	36.748	
C	-0.3783383648	 1.445017091	-0.0290619157	-0.469915
C	 0.0031277	-0.0123133264	-0.0220532567	 0.353385
C	 0.1656689004	-0.7441074805	 1.2834063396	-0.270636
C	 1.3907711998	-0.2726550222	 2.0822658541	-0.142781
N	 1.4331299956	-0.9336154081	 3.3812230092	-0.058772
C	 2.1320770763	-2.2146912734	 3.428692873	-0.21989
C	 2.7362404623	-0.9951990778	 4.0323126839	-0.222814
N	 0.2073039425	-0.6966509034	-1.0831990215	-0.165648
O	 0.0433489452	 0.0845373298	-2.24153972	-0.401539
H	 0.4303133032	 2.0560158236	-0.4446483441	 0.145331
H	-1.2468644884	 1.6031935306	-0.6755608903	 0.148485
H	-0.6083347993	 1.8026361367	 0.9764908824	 0.120155
H	-0.7251210029	-0.5943152863	 1.9061341524	 0.114771
H	 0.2541794058	-1.8144041519	 1.0782587814	 0.115928
H	 2.3048945983	-0.4565149323	 1.4888165872	 0.088953
H	 1.334931529	 0.8080113926	 2.2607476176	 0.104493
H	 1.681848841	-2.9788038482	 4.0556702848	 0.117329
H	 2.5802800319	-2.585504125	 2.5077351387	 0.112509
H	 3.5877569175	-0.5559646714	 3.5144094164	 0.109173
H	 2.7343941321	-0.8500657709	 5.1088863665	 0.116818
H	 0.1985668346	-0.5592418067	-2.9403396789	 0.304666
47.7636	54.6554	77.3116	99.5314	143.8546	235.589	289.3801	327.7894	374.2551	384.8737	415.9259	447.912	553.7986	649.0625	770.757	795.2043	826.9625	845.2969	906.543	976.3208	998.3579	1007.2938	1029.3927	1042.6458	1068.7676	1098.4827	1113.8513	1118.2282	1167.4747	1178.2827	1238.1247	1272.2033	1305.5571	1313.7036	1326.1171	1391.0867	1399.8373	1402.5732	1474.0857	1477.4695	1484.3552	1489.7872	1501.9981	1523.7937	1727.4048	2939.166	3034.9021	3041.9951	3046.8416	3091.7383	3096.281	3099.7693	3102.1934	3133.2654	3175.484	3189.8149	3822.5759
CC(CCN1CC1)=NO	CC(=NO)CCN1CC1	
InChI=1S/C6H12N2O/c1-6(7-9)2-3-8-4-5-8/h9H,2-5H2,1H3	InChI=1S/C6H12N2O/c1-6(7-9)2-3-8-4-5-8/h9H,2-5H2,1H3
