13
gdb 20312	6.62243	1.29929	1.09344	2.7015	64.47	-0.258	-0.0134	0.2446	1001.9968	0.095094	-361.423173	-361.416144	-361.4152	-361.455201	25.373	
C	-0.2137420278	-1.0362292259	-0.6663812422	-0.432937
C	-0.0512437624	 0.0391203342	-0.1577694034	 0.308257
C	 0.1417773168	 1.3437519381	 0.4621809913	-0.481472
C	 1.425630927	 2.0047067245	 0.0576220988	 0.440712
C	 2.4522519709	 1.6566293818	-0.7617247029	-0.318474
C	 3.3332735226	 2.7672094963	-0.6676604323	 0.031436
N	 2.8808482898	 3.6987308856	 0.133582243	-0.140246
O	 1.6582908191	 3.2124835743	 0.5997595746	-0.210846
H	-0.3633578807	-1.9880961098	-1.1130294468	 0.205828
H	-0.6956949061	 2.0076276355	 0.2087478991	 0.165261
H	 0.1206253169	 1.246610445	 1.5560114694	 0.165273
H	 2.5574533191	 0.7531601568	-1.3366064789	 0.132595
H	 4.2843824247	 2.9186527537	-1.1586563198	 0.134612
43.0606	122.5464	234.2052	314.6805	326.8418	455.1633	627.0897	641.0682	650.6104	662.0335	726.7969	817.8968	914.0172	919.9614	938.1741	956.7098	982.2883	1020.319	1050.3228	1199.0836	1221.49	1231.2194	1329.8629	1390.2405	1458.3942	1515.0636	1638.6443	2250.2728	3017.5674	3042.6745	3243.7384	3294.3294	3505.1691
C#CCC1=CC=NO1	C#CCc1ccno1	
InChI=1S/C6H5NO/c1-2-3-6-4-5-7-8-6/h1,4-5H,3H2	InChI=1S/C6H5NO/c1-2-3-6-4-5-7-8-6/h1,4-5H,3H2
