16
gdb 28878	2.45023	1.83174	1.05614	2.6525	75.67	-0.2121	-0.0136	0.1985	1080.626	0.126259	-434.143203	-434.135139	-434.134195	-434.175465	30.947	
C	-0.0621358776	 1.5039625026	 0.0656335545	-0.501828
C	-0.0104661982	 0.0029993146	-0.0010891928	 0.279156
C	 0.0754733437	-0.6509615488	-1.2328683627	 0.148762
N	 0.1727455904	 0.0085102303	-2.456617627	-0.602681
C	 0.121180182	-2.0530984754	-1.1643854408	 0.394615
O	 0.1996017495	-2.7360609566	-2.3293143271	-0.429843
N	 0.0889780748	-2.7301413398	-0.0325058099	-0.351247
C	 0.0075208319	-1.9995549376	 1.0864465225	 0.038284
N	-0.044818094	-0.6783538321	 1.1584875367	-0.312797
H	 0.7907454785	 1.9526830389	-0.4574380079	 0.138133
H	-0.9728199634	 1.8974274404	-0.4064112503	 0.124655
H	-0.0526476213	 1.8225670724	 1.1081471616	 0.148037
H	-0.3119487202	 0.8930546277	-2.5036152823	 0.250307
H	-0.0383805504	-0.5811238088	-3.2492465239	 0.262775
H	 0.2102980104	-3.6737680722	-2.0921079379	 0.302031
H	-0.018934506	-2.5501532656	 2.0225319772	 0.111641
122.1649	151.057	242.7796	286.3946	313.628	317.3849	329.0927	510.2987	514.9938	530.4594	558.8893	571.2142	629.6949	651.602	720.9348	810.8905	890.7813	947.9378	953.4313	1012.0088	1057.2351	1146.2814	1216.4707	1268.0056	1325.4499	1333.942	1355.8117	1404.7928	1468.1749	1484.228	1486.7197	1505.7342	1601.8917	1642.1879	1659.5638	3015.1287	3068.3295	3150.3016	3173.1518	3560.9416	3662.1713	3769.3247
CC1=C(N)C(O)=NC=N1	Cc1c(N)c(O)ncn1	
InChI=1S/C5H7N3O/c1-3-4(6)5(9)8-2-7-3/h2H,6H2,1H3,(H,7,8,9)	InChI=1S/C5H7N3O/c1-3-4(6)5(9)8-2-7-3/h2H,6H2,1H3,(H,7,8,9)
