23
gdb 81379	2.28697	1.53264	1.21169	1.5549	84.13	-0.243	0.0727	0.3157	1162.988	0.207964	-388.291076	-388.282523	-388.281579	-388.32356	34.675	
C	-0.725433381	 1.2848015227	 0.1962298502	-0.409247
C	 0.096081382	 0.012270947	-0.0360839104	 0.040523
C	 0.9802440113	 0.1502510103	-1.3039735453	-0.206719
C	 2.2509468683	-0.7364672674	-1.2847816754	-0.225414
C	 2.7414119738	-0.9602327525	 0.1555248976	-0.03716
C	 1.644616114	-1.7302164234	 0.9450079848	-0.268958
C	 0.9773727734	-0.3449878483	 1.1797036028	-0.040023
C	 2.4036169485	 0.2781202749	 1.0443583747	 0.171851
O	 3.1357759212	 0.3791241129	 2.2490224649	-0.459913
H	-0.0737270457	 2.1379161365	 0.4192686443	 0.117692
H	-1.3153927058	 1.5422416099	-0.6902241723	 0.1101
H	-1.4170060747	 1.1647713249	 1.0367115768	 0.110351
H	-0.6058125376	-0.8209999947	-0.1794235549	 0.068615
H	 0.3865083693	-0.0424125759	-2.2033521987	 0.09264
H	 1.2949216304	 1.1977288612	-1.3777095219	 0.103496
H	 2.0553086255	-1.7125099703	-1.7457915761	 0.096332
H	 3.0318992202	-0.2597490616	-1.8879627675	 0.095625
H	 3.7690601306	-1.3315252518	 0.1933323063	 0.059593
H	 1.0660085336	-2.4833979903	 0.40078652	 0.089229
H	 2.0182671355	-2.188856549	 1.8659381622	 0.082899
H	 0.4552023557	-0.1721576165	 2.1257263531	 0.055947
H	 2.4867574975	 1.2661564071	 0.5846827484	 0.074977
H	 3.0925730141	-0.4648301057	 2.7098813165	 0.277567
133.9803	194.1556	224.1254	243.427	252.9522	309.0151	349.9493	383.4889	440.2434	441.1159	510.1556	598.2475	762.1684	788.1574	835.3741	875.8536	895.5905	908.5494	931.0168	939.5946	980.1881	1000.5918	1023.3028	1047.1951	1061.7374	1088.6434	1108.0515	1118.8124	1147.0165	1184.549	1197.4771	1229.9727	1247.6212	1254.0102	1269.6505	1295.7793	1318.723	1326.7548	1342.2892	1357.9876	1367.7026	1387.4845	1413.7071	1445.7997	1489.7226	1496.9046	1498.152	1504.0224	1511.0897	2998.265	3023.2266	3024.0318	3033.3699	3037.0328	3058.6394	3060.3821	3071.279	3075.3397	3082.0671	3085.4524	3091.6594	3097.4121	3815.2606
CC1CCC2CC1C2O	C[C@H]1CC[C@@H]2C[C@H]1[C@H]2O	
InChI=1S/C8H14O/c1-5-2-3-6-4-7(5)8(6)9/h5-9H,2-4H2,1H3	InChI=1S/C8H14O/c1-5-2-3-6-4-7(5)8(6)9/h5-9H,2-4H2,1H3/t5-,6+,7+,8-/m0/s1
