21
gdb 104636	2.50341	1.19922	0.96535	1.0426	85.32	-0.252	0.0372	0.2892	1334.2139	0.179567	-387.0404	-387.030386	-387.029442	-387.075087	37.48	
C	 0.0363379104	 1.3776930499	 0.1058777757	-0.256065
O	-0.0917157146	-0.0192168781	-0.0809248199	-0.271792
C	 0.6135170589	-0.5353093416	-1.1888102231	 0.242614
C	 2.1786001313	-0.5765600162	-1.0833713621	-0.293432
C	 2.1359754834	-2.0567028622	-1.5554971443	 0.054512
C	 3.0685889594	-3.0603603647	-0.89656181	-0.407299
C	 0.6268376197	-2.0894734049	-1.188985709	-0.291854
C	 0.1490408042	 0.0322297416	-2.4561576418	 0.328388
C	-0.2290951946	 0.497525595	-3.4989428851	-0.511114
H	 1.0848651657	 1.6733608409	 0.2572782265	 0.106556
H	-0.3663988642	 1.9414430731	-0.7456742036	 0.120794
H	-0.5334117445	 1.6267421361	 1.0037893624	 0.126354
H	 2.7505858574	 0.1406606889	-1.6742267964	 0.104091
H	 2.4655234922	-0.5021392527	-0.0296900719	 0.105221
H	 2.2517492638	-2.0975002008	-2.6432790195	 0.081787
H	 2.9680103389	-3.0325145215	 0.1943696409	 0.112771
H	 2.8489046516	-4.0821485506	-1.225840145	 0.116266
H	 4.1160511244	-2.8509625076	-1.1409791542	 0.115217
H	 0.4652716304	-2.4358053136	-0.1641581962	 0.11117
H	-0.0661378341	-2.5956740376	-1.8623407164	 0.108384
H	-0.5679644397	 0.9048756268	-4.4194619273	 0.197432
70.6641	109.747	161.6295	162.7425	191.7353	227.5168	262.3135	311.1615	364.7753	416.7207	427.0649	482.3005	570.5618	612.1412	639.039	667.8269	710.4821	833.4588	841.516	896.5211	929.3052	953.0377	1021.5034	1045.2333	1052.2393	1106.9865	1147.6194	1179.0159	1185.0332	1201.3208	1224.6382	1231.7153	1274.6483	1282.0956	1293.4453	1376.2986	1411.5128	1462.4815	1475.732	1485.8697	1488.9669	1496.6368	1496.9805	1510.2542	2224.197	2992.5778	3023.4238	3050.4322	3051.5769	3055.819	3066.6848	3091.0466	3093.7034	3121.4776	3124.8252	3132.456	3500.1239
COC1(CC(C)C1)C#C	CO[C@]1(C[C@@H](C)C1)C#C	
InChI=1S/C8H12O/c1-4-8(9-3)5-7(2)6-8/h1,7H,5-6H2,2-3H3	InChI=1S/C8H12O/c1-4-8(9-3)5-7(2)6-8/h1,7H,5-6H2,2-3H3/t7-,8+
