19
gdb 127011	3.18958	1.06215	0.80888	2.9535	79.24	-0.2041	0.033	0.2371	1427.0405	0.159152	-419.227857	-419.218356	-419.217412	-419.262843	33.915	
C	-0.0176508301	 1.5493406899	-0.061049192	-0.391682
C	-0.0120772028	 0.0324423354	-0.0149176564	-0.047289
O	 0.6585837994	-0.4453523357	-1.1727683678	-0.27052
C	 0.7519543613	-1.7929038083	-1.2853562273	 0.222374
C	 0.2999390847	-2.8017508322	-0.4567838307	-0.162514
N	 0.6744743575	-3.9602702292	-1.0700710136	-0.197935
N	 1.3309771799	-3.7635861087	-2.2250908156	-0.279718
C	 1.3882945883	-2.4413879386	-2.374730358	 0.249881
C	 2.0482016579	-1.8047537185	-3.5534927851	-0.493508
H	 1.0045926496	 1.9371716913	-0.0778320717	 0.131608
H	-0.5353341654	 1.9048389849	-0.9562028141	 0.131609
H	-0.5279871411	 1.951893949	 0.8188225054	 0.1182
H	 0.5035158838	-0.3328624174	 0.8864411156	 0.09895
H	-1.0382928259	-0.3652418487	 0.0067637499	 0.098943
H	-0.2347890861	-2.7935086774	 0.47755462	 0.127502
H	 0.5159699562	-4.8998149615	-0.7523892722	 0.270922
H	 1.3445316191	-1.1833890032	-4.1184014084	 0.128635
H	 2.8733161381	-1.1527851629	-3.2460630131	 0.128624
H	 2.4426379856	-2.5766351184	-4.217575865	 0.13592
65.0856	91.8742	96.7852	130.4897	242.7322	253.3651	268.2344	338.1219	350.8077	415.3378	504.1098	645.234	652.9743	701.6102	741.0647	781.3149	828.9127	922.3034	942.9618	1003.4046	1066.5044	1069.6924	1087.4926	1139.5836	1187.9858	1195.1867	1233.5163	1295.2812	1330.164	1397.0592	1402.6234	1415.8819	1426.3501	1479.124	1479.4173	1483.5114	1493.1417	1500.7391	1524.9049	1545.9211	1626.9678	2978.8997	3010.6898	3034.3728	3047.4756	3083.7129	3122.3622	3125.4792	3132.4833	3276.805	3689.4988
CCOC1=CNN=C1C	CCOc1c[nH]nc1C	
InChI=1S/C6H10N2O/c1-3-9-6-4-7-8-5(6)2/h4H,3H2,1-2H3,(H,7,8)	InChI=1S/C6H10N2O/c1-3-9-6-4-7-8-5(6)2/h4H,3H2,1-2H3,(H,7,8)
