18
gdb 22851	3.04277	1.24833	0.95187	1.7812	72.64	-0.2479	-0.0045	0.2434	1217.3205	0.148116	-476.157605	-476.149229	-476.148284	-476.190878	31.473	
O	 0.0117119137	 1.3952067795	 0.1698221591	-0.392185
N	 0.0824622849	 0.0039228237	 0.0340316264	-0.169392
C	-1.0619129048	-0.5577617558	-0.0499720014	 0.36548
C	-2.39773916	 0.1585371896	-0.1030830876	-0.196361
O	-3.0154267976	-0.0503189843	-1.3631195617	-0.237444
C	-3.810284631	-1.2104930293	-1.5073496142	-0.06083
C	-3.2229751307	-2.4912654136	-0.8936635176	-0.105516
O	-1.8379231838	-2.6328869042	-1.1291135633	-0.227101
C	-1.0291604515	-2.0690410317	-0.1119983135	-0.169642
H	 0.9417327412	 1.6447412485	 0.1682586681	 0.309872
H	-3.0436803919	-0.1664837468	 0.7272080127	 0.09865
H	-2.2400020502	 1.2320404502	-0.0079561927	 0.145974
H	-4.8159403806	-1.0579060296	-1.0781070298	 0.086855
H	-3.9234071529	-1.3362625594	-2.5885035103	 0.119594
H	-3.4271191668	-2.5338442126	 0.1873514158	 0.0917
H	-3.7284123556	-3.3505623501	-1.3502469009	 0.111755
H	-0.0036750496	-2.39323366	-0.2981994316	 0.130334
H	-1.342565333	-2.4713330639	 0.8682597824	 0.098257
58.4905	143.4822	199.4239	267.3442	290.1015	310.9618	364.1065	380.8347	423.8102	492.1466	556.7595	617.3893	693.4895	835.9205	849.8352	861.5764	942.9876	957.611	978.481	1020.4087	1072.5192	1121.5029	1164.3808	1184.1471	1253.0575	1268.9323	1281.7544	1309.5958	1328.8253	1366.4199	1382.7184	1413.7197	1415.038	1425.8933	1476.1757	1486.8479	1493.6607	1505.4994	1726.8041	2942.4613	2956.9172	2980.1432	2992.6613	3055.1778	3083.5051	3116.9314	3143.4296	3821.6956
ON=C1COCCOC1	ON=C1COCCOC1	
InChI=1S/C5H9NO3/c7-6-5-3-8-1-2-9-4-5/h7H,1-4H2	InChI=1S/C5H9NO3/c7-6-5-3-8-1-2-9-4-5/h7H,1-4H2
