18
gdb 84487	3.13529	1.5273	1.12472	3.2231	80.89	-0.2129	-0.0033	0.2096	1098.0659	0.148845	-398.145456	-398.1371	-398.136155	-398.178531	31.223	
C	 0.0240384886	 1.4409562925	 0.0239962587	-0.355356
N	 0.0223580943	-0.0008539386	 0.0112532395	-0.095967
C	-0.0285427186	-0.8341155666	-1.1019613123	 0.028948
N	-0.0189910491	-2.0907373634	-0.8622197699	-0.319355
C	 0.0454241972	-2.1936574872	 0.5735651109	 0.305571
C	-0.6702639162	-3.3206563384	 1.2936468266	-0.293734
C	 0.8212491203	-3.3218678727	 1.2265171106	-0.29371
C	 0.0725533171	-0.813438777	 1.1480281252	 0.297161
N	 0.1281283024	-0.4998013173	 2.3817709514	-0.577066
H	 0.9350452496	 1.8317912408	 0.4929438559	 0.142422
H	-0.0208690905	 1.8101025764	-1.0026109206	 0.142875
H	-0.8415426134	 1.8333139121	 0.571209449	 0.142412
H	-0.0726357354	-0.3943705665	-2.092989197	 0.129094
H	-1.1404955641	-3.0476602527	 2.2317388949	 0.139845
H	-1.2159529907	-4.0123516904	 0.6631394963	 0.129144
H	 1.306913409	-4.0143114644	 0.5494642168	 0.129148
H	 1.3742683612	-3.0496491408	 2.11854455	 0.139841
H	 0.1356059685	 0.5094782043	 2.5266056541	 0.208728
91.2002	99.2205	156.9333	236.3981	247.8402	283.9046	313.2466	489.6371	516.1038	606.0563	705.3907	732.6872	736.6626	789.2549	812.7026	888.6937	912.4882	930.5392	947.909	966.4485	1009.8178	1056.3647	1061.6812	1087.5349	1153.7502	1205.7613	1213.6598	1233.1184	1302.654	1323.316	1365.8475	1419.0391	1444.6814	1462.3647	1476.9638	1481.7816	1521.7454	1661.1417	1737.2161	3018.4847	3069.8758	3129.4407	3141.104	3141.5474	3193.2072	3233.2222	3247.3973	3479.372
CN1C=NC2(CC2)C1=N	CN1C=NC2(CC2)[C]1[NH]	
InChI=1S/C6H9N3/c1-9-4-8-6(2-3-6)5(9)7/h4,7H,2-3H2,1H3	InChI=1S/C6H9N3/c1-9-4-8-6(2-3-6)5(9)7/h4,7H,2-3H2,1H3
