19
gdb 30058	2.97961	1.46309	1.04713	1.7976	84.07	-0.1799	0.0508	0.2307	1159.8972	0.160536	-382.07005	-382.061558	-382.060614	-382.103663	31.752	
C	 0.5549487068	 1.3039871305	 0.1749958854	-0.340229
N	 0.0706784404	-0.0459761925	-0.0153141541	-0.042066
C	 0.2775777429	-0.8322191883	-1.1281524824	-0.111045
C	-0.3272611731	-2.0461089835	-0.9176228051	-0.157849
C	-0.9188091224	-2.0111807734	 0.3771852281	-0.244467
C	-0.6506912086	-0.7666544737	 0.9099160843	 0.327577
N	-1.0265960633	-0.1393980738	 2.1103178805	-0.17211
C	-1.4686133492	-0.9807333971	 3.2110248189	-0.221094
C	-0.1534505589	-0.2914861434	 3.2905076238	-0.229496
H	 1.5152898356	 1.3263472609	 0.7048830105	 0.12797
H	 0.6841290486	 1.7807040168	-0.7991613481	 0.134372
H	-0.1743590893	 1.8709587879	 0.7572810126	 0.154557
H	 0.8360449296	-0.4497865488	-1.9676697157	 0.107426
H	-0.3532606521	-2.8690543494	-1.6152338873	 0.089451
H	-1.498590002	-2.7909951591	 0.8449597872	 0.087198
H	-2.3220237395	-0.6054125398	 3.7678156001	 0.12076
H	-1.4503809481	-2.0578460405	 3.0679825069	 0.126742
H	 0.7351824573	-0.906996022	 3.1760958474	 0.123674
H	-0.0332855445	 0.6017606894	 3.895792897	 0.11863
54.8066	111.0811	155.4737	180.5617	196.2285	318.7433	389.0129	509.7984	563.2623	617.075	667.1999	704.9607	716.2476	751.237	817.0902	822.88	869.656	896.0302	940.0331	1026.2287	1042.1236	1075.3219	1107.4686	1113.0008	1133.5619	1152.5349	1160.9128	1174.4206	1195.8533	1255.0916	1302.9915	1350.3459	1396.0628	1442.9898	1477.5472	1485.4559	1490.8554	1512.6317	1517.449	1534.9466	1591.9618	3023.6512	3098.3076	3108.6851	3113.8311	3139.0199	3192.9586	3207.6414	3240.4841	3254.4922	3266.8447
CN1C=CC=C1N1CC1	Cn1cccc1N1CC1	
InChI=1S/C7H10N2/c1-8-4-2-3-7(8)9-5-6-9/h2-4H,5-6H2,1H3	InChI=1S/C7H10N2/c1-8-4-2-3-7(8)9-5-6-9/h2-4H,5-6H2,1H3
