18
gdb 95992	2.20484	1.73402	1.13599	3.8744	67.23	-0.2457	0.0142	0.2599	1083.3901	0.148569	-476.262403	-476.25381	-476.252866	-476.296363	32.354	
N	 0.6945094806	-0.248909759	-0.4708804779	-0.508145
C	-0.1373582444	 0.2105445845	 0.4842101433	 0.386798
O	 0.219913696	 0.9055680067	 1.4304294701	-0.395038
C	-1.6093512402	-0.1864850806	 0.3019052132	-0.036648
O	-1.7672038349	-1.1671791165	-0.7164894447	-0.287301
C	-2.0889671095	-2.4488334166	-0.1262964534	-0.081288
C	-1.8778537722	-2.2930154759	 1.3768993479	-0.258952
C	-2.2225559775	-0.8062494705	 1.5895194702	 0.134159
O	-1.8114994935	-0.2552051648	 2.8044048927	-0.451044
H	 1.6689096631	 0.0010829463	-0.4444702834	 0.267192
H	 0.3136514618	-0.7965490719	-1.2249759896	 0.277557
H	-2.144759083	 0.723145335	 0.0060891929	 0.118957
H	-3.1327095609	-2.6876907473	-0.3671337883	 0.11032
H	-1.4512757437	-3.209530219	-0.5868778344	 0.108468
H	-2.5072436516	-2.9607920518	 1.9681178529	 0.113211
H	-0.8330077155	-2.4643289535	 1.6576504656	 0.113666
H	-3.3134883035	-0.6925683841	 1.5121746849	 0.082829
H	-1.0165629311	 0.2810228691	 2.6305631281	 0.30526
36.6895	89.1587	162.205	254.7159	304.6114	352.2538	373.8441	437.4888	483.8907	520.6673	548.988	581.608	664.0689	701.408	723.4966	827.3087	887.7584	912.28	940.03	993.9692	1064.2524	1085.3788	1099.7692	1121.4289	1164.7395	1181.7191	1226.9017	1262.2951	1300.2147	1304.8051	1341.7975	1379.6978	1388.6553	1403.9896	1488.3623	1494.1738	1527.3706	1585.7111	1761.3535	2996.7916	3022.4565	3048.3019	3053.5505	3077.6419	3122.4812	3583.2884	3595.293	3735.5248
NC(=O)C1OCCC1O	NC(=O)[C@H]1OCC[C@H]1O	
InChI=1S/C5H9NO3/c6-5(8)4-3(7)1-2-9-4/h3-4,7H,1-2H2,(H2,6,8)	InChI=1S/C5H9NO3/c6-5(8)4-3(7)1-2-9-4/h3-4,7H,1-2H2,(H2,6,8)/t3-,4+/m1/s1
