19
gdb 124760	3.9371	1.00144	0.82548	2.2452	78.81	-0.2325	0.024	0.2565	1408.0136	0.159604	-419.240251	-419.230913	-419.229969	-419.274757	34.275	
C	 0.2798137123	 1.3189740423	-0.5107860911	-0.401871
C	 0.03890404	-0.0117497421	 0.1996652383	 0.010877
O	 0.3266150864	 0.0653025652	 1.5986333828	-0.42969
C	-1.3522649334	-0.5456255235	-0.0155361683	 0.37707
C	-2.2834717417	-0.4212470954	-1.0284684614	-0.412211
C	-3.3869941718	-1.2123053906	-0.6209668393	 0.354634
C	-4.6810154491	-1.4426723529	-1.3365697652	-0.489787
N	-3.1567339647	-1.7810242568	 0.5621271022	-0.288253
N	-1.9199294063	-1.3675527552	 0.9017402285	-0.24839
H	 1.2960131775	 1.6666063074	-0.3086617398	 0.12743
H	 0.1565442195	 1.2130774201	-1.5926064898	 0.129323
H	-0.4302758293	 2.0782833922	-0.1649304661	 0.118082
H	 0.7668434257	-0.7445842018	-0.1722599618	 0.113659
H	-0.2283288371	 0.7625470145	 1.9681827078	 0.281822
H	-2.18634434	 0.153565231	-1.9356198909	 0.09583
H	-4.5220380098	-1.9184439614	-2.3106893418	 0.126089
H	-5.3245881704	-2.0913777961	-0.7385996349	 0.138818
H	-5.2125595726	-0.5021018881	-1.5187986983	 0.124803
H	-1.5102214752	-1.6412106188	 1.7791189091	 0.271767
52.9835	98.3579	134.4651	162.435	245.2437	287.4337	324.9758	343.6789	362.7292	469.3715	485.0275	563.4856	622.3253	695.9779	710.3579	748.3162	807.9084	895.0314	988.269	1008.3823	1015.4083	1044.4349	1066.216	1089.987	1112.6245	1176.8677	1186.176	1273.5532	1285.5289	1354.2329	1402.0691	1407.2979	1414.536	1424.9521	1464.3245	1482.5884	1484.8242	1491.0321	1494.5185	1509.5246	1602.3006	3024.1405	3033.8117	3038.0641	3083.9887	3109.8586	3127.1695	3131.5558	3259.3264	3673.0255	3787.2468
CC(O)C1=CC(C)=NN1	C[C@@H](O)c1cc(C)n[nH]1	
InChI=1S/C6H10N2O/c1-4-3-6(5(2)9)8-7-4/h3,5,9H,1-2H3,(H,7,8)	InChI=1S/C6H10N2O/c1-4-3-6(5(2)9)8-7-4/h3,5,9H,1-2H3,(H,7,8)/t5-/m1/s1
