15
gdb 130443	3.12202	1.32388	0.96051	2.5083	64.94	-0.1991	0.0053	0.2045	1158.258	0.113223	-491.062321	-491.054019	-491.053075	-491.095156	30.889	
N	 0.1291171284	 1.5313592662	 0.1566068639	-0.524682
H	 0.581603229	 0.6932217895	-0.1969028752	 0.248887
H	 1.4714879864	 2.4529125881	 1.3580737876	 0.298576
H	-0.3527442953	 1.9593404301	-0.6268530793	 0.246261
C	-0.8341918967	 1.1753577246	 1.2187895067	-0.277944
C	-0.0765670905	 0.8222034774	 2.4622118632	 0.305051
N	-0.480556069	-0.1223569597	 3.2838334129	-0.242769
O	 0.4704760486	-0.1198784792	 4.3214434835	-0.227332
C	 1.4075829371	 0.8063834043	 4.0570185029	 0.423788
O	 2.4092696951	 0.9542707824	 4.930940633	-0.417921
C	 1.1257046444	 1.4506330736	 2.8882444309	 0.038748
O	 1.8105451672	 2.4473639897	 2.2747396775	-0.449103
H	-1.4462167196	 2.0650254911	 1.4107109237	 0.136406
H	-1.5207190267	 0.3592728772	 0.9578455541	 0.12745
H	 2.270473132	 0.3361551946	 5.6592293344	 0.314584
94.7725	154.5769	223.3889	232.3889	278.8585	296.0154	354.4244	373.239	429.6293	541.1006	594.523	637.2081	689.7353	707.5453	732.4163	802.4795	892.1136	931.4779	998.0393	1038.2855	1068.171	1142.2557	1174.1718	1297.0247	1318.3092	1363.7658	1409.84	1426.7263	1493.1737	1522.3192	1543.6882	1654.7323	1768.3299	3017.1678	3058.3863	3499.4595	3552.2485	3582.1176	3805.1919
[NH3+]CC1=NOC(O)=C1[O-]	NCc1noc(O)c1O	
InChI=1S/C4H6N2O3/c5-1-2-3(7)4(8)9-6-2/h7-8H,1,5H2	InChI=1S/C4H6N2O3/c5-1-2-3(7)4(8)9-6-2/h7-8H,1,5H2
