15
gdb 132362	1.94289	1.75634	0.92775	2.0178	71.62	-0.2337	-0.0188	0.215	1176.1616	0.112805	-461.998485	-461.990682	-461.989738	-462.031668	29.145	
C	-0.0643328853	 1.5320163556	-0.0132831553	-0.49124
C	 0.0002260541	 0.0270477726	 0.0077482228	 0.357531
C	 0.068379601	-0.696183533	-1.1900472868	-0.376107
C	 0.1252594537	-2.0753666307	-1.0970005286	 0.351045
F	 0.1907068293	-2.7923181333	-2.2156009888	-0.072775
N	 0.1209570348	-2.7712194042	 0.0235678632	-0.427126
C	 0.0559499875	-2.072750718	 1.1541022706	 0.456265
O	 0.0506441103	-2.7689789387	 2.3072881567	-0.416308
C	-0.0060543974	-0.6784613567	 1.2062278686	-0.312997
H	 0.8144491492	 1.9532112063	-0.5132572541	 0.141972
H	-0.9441228179	 1.8770214084	-0.5669802982	 0.141977
H	-0.1131057522	 1.9456498369	 0.9963714115	 0.131703
H	 0.0772008777	-0.2126862027	-2.1585140233	 0.106694
H	 0.0986839457	-3.7028941351	 2.0604761398	 0.302054
H	-0.0571814205	-0.1789193374	 2.165281722	 0.107311
35.6235	192.6558	213.6231	256.7687	289.9216	344.182	515.1855	521.1664	525.9261	585.3061	586.0309	610.3415	689.9434	764.5343	842.619	871.4106	985.8125	1006.2873	1009.2999	1059.7658	1076.7105	1164.1096	1201.2306	1271.7934	1342.8324	1408.0064	1421.7638	1469.534	1484.0427	1500.3756	1520.1417	1619.7654	1670.3666	3038.8162	3094.7808	3127.2415	3211.9201	3213.3924	3772.5665
CC1=CC(F)=NC(O)=C1	Cc1cc(F)nc(O)c1	
InChI=1S/C6H6FNO/c1-4-2-5(7)8-6(9)3-4/h2-3H,1H3,(H,8,9)	InChI=1S/C6H6FNO/c1-4-2-5(7)8-6(9)3-4/h2-3H,1H3,(H,8,9)
