19
gdb 41895	2.2446	2.04177	1.77965	2.2566	74.4	-0.2372	0.0109	0.2481	910.2239	0.162934	-423.03079	-423.023806	-423.022862	-423.061946	28.439	
C	 0.028845044	 1.5521377048	-0.0339550821	-0.057136
O	 1.3370962325	 2.0798414065	 0.1676506378	-0.263775
C	 2.2177977826	 1.1730046863	 0.8099673662	 0.139735
O	 1.5561120705	 0.4578393885	 1.828468469	-0.255578
C	 0.5644024642	-0.444907666	 1.3310838805	-0.074975
C	 0.0110064553	 0.0206586812	-0.0317964146	-0.084138
C	 0.7909064066	-0.5946509494	-1.2122803241	-0.260767
C	 2.2873009859	-0.4905196668	-1.0835267614	-0.062734
C	 2.9208397553	 0.2673994668	-0.1918331979	-0.056877
H	-0.6388396217	 1.9190033671	 0.760164337	 0.09723
H	-0.3354575776	 1.9500367299	-0.9879125494	 0.102206
H	 2.9537234791	 1.7948939754	 1.3258431103	 0.08948
H	 0.9788729491	-1.4602075195	 1.2595217798	 0.098121
H	-0.2277465698	-0.453875201	 2.0867241316	 0.109256
H	-1.0342215323	-0.2983192252	-0.1145942092	 0.077652
H	 0.524265179	-1.657106981	-1.2988338547	 0.106762
H	 0.4610453315	-0.1364117777	-2.1565950076	 0.111305
H	 2.8695902371	-1.0998914358	-1.7715852032	 0.091928
H	 4.0061715086	 0.2657389458	-0.1489440478	 0.092305
110.3856	249.3515	273.8786	320.408	365.4838	455.5099	502.3847	560.0507	574.5286	721.6951	762.6098	807.9983	867.0688	884.0245	897.5379	926.5827	969.2516	988.1335	995.134	997.964	1024.1716	1039.2782	1103.1736	1122.4572	1176.2503	1221.8404	1224.9098	1250.7885	1259.2525	1340.3001	1344.5229	1366.2508	1372.7234	1390.1436	1406.5274	1418.3657	1422.0541	1473.1932	1505.8824	1518.6741	1725.4761	2989.1911	2998.0992	3004.8688	3024.3715	3043.0125	3054.2617	3070.8454	3080.4533	3143.6943	3174.6035
C1OC2OCC1CC=C2	C1O[C@H]2OC[C@@H]1CC=C2	
InChI=1S/C7H10O2/c1-2-6-4-8-7(3-1)9-5-6/h1,3,6-7H,2,4-5H2	InChI=1S/C7H10O2/c1-2-6-4-8-7(3-1)9-5-6/h1,3,6-7H,2,4-5H2/t6-,7+
