13
gdb 27611	3.40012	1.28635	0.93327	4.3403	75.46	-0.2583	-0.0673	0.1909	1142.4131	0.091928	-415.693467	-415.686543	-415.685599	-415.724985	26.313	
O	 0.1043549158	 1.3225730865	 0.074544578	-0.413524
C	 0.0688323988	-0.0206969918	 0.0473899449	 0.437658
N	 0.0744770782	-0.611015282	-1.138045561	-0.412334
C	 0.0388997224	-1.9546406617	-1.1611298386	 0.219896
C	-0.0029824666	-2.7455141145	-0.0174842201	-0.179515
C	-0.0079469862	-2.0954938546	 1.2193048331	-0.062562
C	 0.0281641696	-0.7149445212	 1.2671689194	-0.197077
C	 0.0458333068	-2.5742691362	-2.4607428337	 0.242365
N	 0.0503749504	-3.1007776354	-3.4905858578	-0.32522
H	 0.1289187186	 1.6167255761	-0.8471937354	 0.307153
H	-0.030422477	-3.8241382416	-0.0974540401	 0.129551
H	-0.040014958	-2.6724566542	 2.1369489464	 0.125969
H	 0.0260656371	-0.1639469294	 2.199032055	 0.127642
142.3084	154.3118	218.077	406.0843	407.9282	476.2128	480.4307	550.327	562.9303	596.7138	699.3997	725.0069	760.2978	836.7602	915.2462	974.4694	1001.1308	1005.6219	1097.671	1171.0503	1201.0969	1260.3585	1345.9892	1365.9363	1476.8201	1502.2041	1622.018	1638.4887	2352.3885	3194.1491	3218.8904	3226.2356	3764.9923
OC1=NC(=CC=C1)C#N	Oc1nc(ccc1)C#N	
InChI=1S/C6H4N2O/c7-4-5-2-1-3-6(9)8-5/h1-3H,(H,8,9)	InChI=1S/C6H4N2O/c7-4-5-2-1-3-6(9)8-5/h1-3H,(H,8,9)
