20
gdb 101792	3.22637	0.75347	0.65497	2.3162	72.44	-0.268	0.0543	0.3223	1728.7227	0.168819	-477.469394	-477.458588	-477.457644	-477.507144	38.041	
C	-0.3180681733	 1.3014109199	-0.6685228886	-0.381393
C	-0.0692995821	-0.2000002352	-0.8283426083	-0.184869
C	 1.4160035779	-0.5508255109	-0.9462872039	 0.105917
O	 2.1596667276	-0.1545097821	 0.201554276	-0.43017
C	 1.6579082964	-2.0393176649	-1.1993855776	-0.085915
O	 1.0840898461	-2.3778307678	-2.4692841995	-0.262347
C	 0.934520303	-3.7061859539	-2.7084019311	 0.501052
N	 0.353224885	-3.8918968467	-3.9318225291	-0.563728
O	 1.2393711057	-4.5845261545	-1.9373638028	-0.394225
H	 0.2287639039	 1.6955593198	 0.1923615538	 0.126367
H	 0.018971146	 1.851253855	-1.5541837478	 0.115568
H	-1.3818347006	 1.5145122241	-0.5282766682	 0.110956
H	-0.4863487362	-0.7455554434	 0.0319333927	 0.084604
H	-0.5872319446	-0.5848407352	-1.7133615744	 0.11184
H	 1.8560983038	 0.016758732	-1.7756193726	 0.094751
H	 1.7575771761	-0.5737849999	 0.9711713981	 0.28078
H	 2.7328760463	-2.2448134735	-1.2105791384	 0.121271
H	 1.203102697	-2.6564370896	-0.4166040483	 0.116306
H	 0.3497482395	-3.1281604386	-4.586330303	 0.26392
H	 0.3892705825	-4.8268331244	-4.2998236267	 0.269315
14.3937	67.1297	85.4042	146.4848	178.5953	224.9555	242.6225	273.3385	297.4828	353.3945	356.9128	446.291	499.6677	508.7578	549.4523	674.0827	777.0164	783.2249	825.1831	931.0767	971.1216	990.4235	1047.2047	1080.816	1102.6729	1121.1637	1141.4688	1159.6223	1241.7262	1258.7636	1320.0368	1329.1766	1349.3497	1393.9678	1405.4563	1413.0363	1424.1651	1485.3922	1497.2892	1510.0262	1512.0529	1612.1493	1837.3445	2997.9682	3037.1783	3040.0109	3046.2118	3073.5182	3095.6228	3103.5065	3120.4297	3614.22	3743.1855	3791.4192
CCC(O)COC(N)=O	CC[C@@H](O)COC(=O)N	
InChI=1S/C5H11NO3/c1-2-4(7)3-9-5(6)8/h4,7H,2-3H2,1H3,(H2,6,8)	InChI=1S/C5H11NO3/c1-2-4(7)3-9-5(6)8/h4,7H,2-3H2,1H3,(H2,6,8)/t4-/m1/s1
