19
gdb 115397	2.8154	1.22834	1.1834	3.0268	67.36	-0.2549	0.0692	0.3241	1147.3929	0.159766	-497.292303	-497.283666	-497.282722	-497.325722	32.721	
O	-0.0309351762	 1.4581327793	 0.0378390235	-0.417852
C	-0.0399652321	 0.057372183	-0.1151957674	-0.08224
C	-1.4532178455	-0.5117878105	-0.0541059438	 0.198999
O	-2.0343999396	-0.0035768486	 1.1302495288	-0.283424
C	-3.4024016092	-0.3765408454	 1.2858906349	-0.105237
C	-4.2003195156	 0.0538473743	 0.050135108	 0.127984
O	-4.2632976059	 1.4639132627	-0.0510407062	-0.439169
C	-3.5144320372	-0.5438127283	-1.1805268052	-0.113921
O	-2.1577161014	-0.1069083593	-1.2028703778	-0.264176
H	-0.5383103478	 1.6412876369	 0.8374036418	 0.29108
H	 0.3889773112	-0.1703528078	-1.0946665924	 0.122974
H	 0.5636243368	-0.44701777	 0.6554062043	 0.094139
H	-1.4375558651	-1.6181154143	-0.008035557	 0.061234
H	-3.4841194002	-1.4646261651	 1.4408977156	 0.090876
H	-3.7640524348	 0.1386104907	 2.1782499697	 0.12324
H	-5.2315070778	-0.3075847305	 0.1289276564	 0.089221
H	-3.3669751605	 1.7587243989	-0.2568855464	 0.29124
H	-3.5658421102	-1.6447153206	-1.1655561476	 0.090988
H	-3.9756304989	-0.1772002153	-2.1000837494	 0.124044
70.6969	113.0508	202.2115	209.5516	288.2699	312.0863	373.3171	407.2842	415.1052	441.6901	534.2962	562.9037	699.254	817.8551	846.6219	861.2254	897.7945	906.2834	996.2035	1011.7943	1032.3137	1071.1216	1091.9471	1107.0792	1141.5798	1178.8716	1227.9611	1251.7304	1269.7778	1321.0898	1335.4231	1365.4364	1382.1942	1394.4436	1402.0782	1409.4265	1434.1491	1444.2862	1485.0129	1491.8014	1494.8432	2919.685	2974.7482	2985.2451	2990.1338	3061.9842	3101.8183	3109.2521	3111.1075	3779.7637	3795.487
OCC1OCC(O)CO1	OC[C@H]1OC[C@@H](O)CO1	
InChI=1S/C5H10O4/c6-1-5-8-2-4(7)3-9-5/h4-7H,1-3H2	InChI=1S/C5H10O4/c6-1-5-8-2-4(7)3-9-5/h4-7H,1-3H2/t4-,5+
