18
gdb 32700	5.74897	0.82647	0.74256	3.415	78.74	-0.2088	0.0239	0.2327	1564.9228	0.146183	-439.110869	-439.101674	-439.10073	-439.145956	32.79	
C	 0.0046923807	 1.6316639709	-0.0820016533	-0.361679
C	-0.1721003075	 0.1450641535	 0.2218278387	-0.131673
N	 0.3872263891	-0.1718430999	 1.5295882381	-0.37236
C	-0.1256534072	-1.0867222527	 2.2094122206	 0.521605
O	-1.1980370545	-1.8916100092	 1.8924050454	-0.227874
C	-1.3912966034	-2.7341146455	 2.9751869616	-0.151164
C	-0.4807646043	-2.4734094619	 3.9089126258	 0.315199
C	-0.1853156723	-3.0305237056	 5.2476912158	-0.490543
O	 0.3290967735	-1.4450600751	 3.4507551486	-0.248884
H	 1.061343967	 1.9095338129	-0.0318167525	 0.12376
H	-0.3728951791	 1.8699210655	-1.0816855303	 0.10337
H	-0.5375118928	 2.2429214545	 0.6459328643	 0.116397
H	-1.2337541305	-0.1300965846	 0.1493249988	 0.101184
H	 0.3559062179	-0.4452575054	-0.5407004291	 0.103804
H	-2.1994100188	-3.4407726762	 2.9120015914	 0.156016
H	 0.8303472767	-3.4390214489	 5.2869077434	 0.150761
H	-0.2592531307	-2.2569684623	 6.0197496153	 0.150751
H	-0.8914564039	-3.8289940298	 5.4855787474	 0.141331
25.0611	102.1007	138.884	175.3143	207.2336	274.9263	291.4876	297.3727	377.0644	517.8247	586.783	659.1583	716.5795	742.8297	752.64	804.2832	863.1813	930.3774	987.4823	1019.8741	1069.4752	1075.4527	1096.8427	1126.3715	1147.1904	1175.3257	1266.5096	1306.2738	1328.8543	1390.6807	1411.5365	1422.9747	1467.257	1487.6343	1489.9207	1490.3463	1508.7896	1749.7822	1835.5868	2993.6612	3024.7488	3037.1881	3038.5209	3091.8788	3109.2982	3117.8724	3133.4661	3302.9321
CCN=C1OC=C(C)O1	CCN=c1occ(C)o1	
InChI=1S/C6H9NO2/c1-3-7-6-8-4-5(2)9-6/h4H,3H2,1-2H3	InChI=1S/C6H9NO2/c1-3-7-6-8-4-5(2)9-6/h4H,3H2,1-2H3
