19
gdb 100483	3.34673	0.62703	0.54798	0.8836	86.07	-0.2487	0.0388	0.2876	1988.6749	0.155492	-385.823193	-385.812159	-385.811215	-385.861526	38.306	
C	-0.3612139767	 1.6469787005	-0.3056564287	-0.383241
C	 0.0071599784	 0.1817590619	-0.0032057175	-0.139231
C	-1.2463593079	-0.6814604078	 0.2203657459	-0.067906
O	-1.9338859945	-0.1542622097	 1.3437973105	-0.420363
C	 0.8306930076	-0.4022807198	-1.0602302878	 0.062181
C	 1.4860066474	-0.8858986173	-1.9462121181	 0.083122
C	 2.2973524733	-1.4691886798	-3.01714701	-0.493387
C	 1.7838429468	-2.748585912	-3.5119178892	 0.318731
C	 1.3734021572	-3.7980704503	-3.9260319938	-0.446612
H	 0.5374119498	 2.2632685911	-0.3904329541	 0.11848
H	-0.9107467037	 1.7165961638	-1.2498756626	 0.118068
H	-0.9904140073	 2.040903588	 0.4948774239	 0.135083
H	 0.5723043289	 0.1570487759	 0.9386930646	 0.112303
H	-1.8690982503	-0.6544024275	-0.687120853	 0.095428
H	-0.9424926618	-1.7249196775	 0.3868466171	 0.099164
H	-2.7473335964	-0.6527251674	 1.4610119652	 0.289778
H	 2.3663263626	-0.7614044427	-3.8549997518	 0.159541
H	 3.3288210021	-1.6080906137	-2.66430642	 0.15979
H	 1.0072092446	-4.7260635457	-4.2893319706	 0.19907
11.5268	54.0768	95.4037	138.0672	160.7547	221.867	226.3549	264.7704	308.0203	322.5121	345.2432	386.5823	471.6256	530.4409	589.4672	619.9936	646.6631	771.5888	872.0026	932.125	935.4159	943.571	1018.3644	1078.7344	1102.0865	1135.1456	1186.8692	1230.9762	1237.5149	1263.1747	1329.2236	1335.3171	1349.9186	1397.7966	1451.3863	1454.5367	1492.6111	1500.0649	1521.2322	2246.708	2373.5424	2981.0369	3006.4207	3009.7428	3026.4972	3029.9919	3045.8278	3115.9959	3139.3813	3507.142	3837.8974
CC(CO)C#CCC#C	C[C@@H](CO)C#CCC#C	
InChI=1S/C8H10O/c1-3-4-5-6-8(2)7-9/h1,8-9H,4,7H2,2H3	InChI=1S/C8H10O/c1-3-4-5-6-8(2)7-9/h1,8-9H,4,7H2,2H3/t8-/m1/s1
