19
gdb 126581	5.53571	0.66794	0.63666	4.2616	78.99	-0.2672	-0.0334	0.2337	1780.6171	0.15865	-419.201152	-419.19204	-419.191096	-419.23641	32.33	
C	 0.0475205785	 1.5832581802	-0.122441519	-0.384167
C	 0.0092990183	 0.0568799472	-0.0117706854	-0.168143
C	 0.7285832163	-0.4667937936	 1.2349445582	-0.161583
C	 0.6850727289	-2.0038654976	 1.340418954	-0.322921
C	 1.393634488	-2.529241658	 2.5408620419	 0.417017
C	 0.9876493333	-3.2103092695	 3.6487656364	-0.213023
N	 2.0986927913	-3.4155382604	 4.4301866064	-0.10757
N	 3.1197660607	-2.9220194654	 3.8933437204	-0.013243
O	 2.7075956702	-2.3265011238	 2.6462219798	-0.218534
H	 1.0782766234	 1.9506028395	-0.1716775709	 0.119936
H	-0.4728989068	 1.9291228186	-1.0205849367	 0.116522
H	-0.4305877101	 2.0554303344	 0.7427378679	 0.117851
H	-1.0340705415	-0.2853108888	 0.0000588568	 0.09773
H	 0.4650476055	-0.3884765425	-0.9059586464	 0.100405
H	 1.7748983752	-0.1402871735	 1.2269505542	 0.121009
H	 0.2757950114	-0.0323833061	 2.1350607373	 0.106484
H	-0.3527109996	-2.3511193324	 1.3754747951	 0.122372
H	 1.1375582779	-2.442579904	 0.4423091372	 0.133144
H	 0.0114776091	-3.561211234	 3.9359065127	 0.136716
45.0749	81.4835	89.2816	125.1889	238.8195	249.7624	308.9612	323.1909	429.8692	626.6691	676.6591	702.8183	738.2687	759.0596	797.5792	821.3361	910.7553	936.0708	989.0933	1007.1142	1051.7225	1061.9717	1099.1742	1122.8814	1133.6873	1233.9475	1247.4707	1281.4747	1308.0258	1333.5295	1358.9205	1384.6865	1397.6594	1415.1757	1458.566	1476.8116	1486.0492	1498.592	1500.7176	1512.3332	1605.8402	3013.9194	3026.5024	3032.9713	3037.8433	3042.6051	3068.934	3091.2354	3101.4698	3106.642	3291.0376
CCCCC1=CN=NO1	CCCCc1cnno1	
InChI=1S/C6H10N2O/c1-2-3-4-6-5-7-8-9-6/h5H,2-4H2,1H3	InChI=1S/C6H10N2O/c1-2-3-4-6-5-7-8-9-6/h5H,2-4H2,1H3
