19
gdb 73503	2.78356	1.79863	1.43812	0.5766	73.13	-0.2234	0.0763	0.2997	960.33	0.161692	-423.020709	-423.013533	-423.012588	-423.051907	29.607	
O	-0.0535428185	 1.3626814767	 0.0177529741	-0.478128
C	 0.0627297822	-0.0272772446	-0.0397453438	 0.36317
C	 1.0990759731	-0.6633843479	-0.9695202256	-0.292046
C	 0.3453131315	-1.8243993562	-1.6633876381	-0.202592
C	-0.8304363823	-2.1821723074	-0.7210035616	-0.063008
C	-0.3764762119	-3.0118497082	 0.4934648395	-0.075357
O	 0.2479776112	-2.0811943597	 1.3881772718	-0.260401
C	-0.35727708	-0.8286069416	 1.1781024112	 0.01802
C	-1.2119734641	-0.8430200013	-0.0599023524	-0.162175
H	 0.6660423572	 1.6993121917	 0.5632316278	 0.282921
H	 1.4477755468	 0.086111914	-1.6845359987	 0.103266
H	 1.965257474	-1.0270327471	-0.407167979	 0.108574
H	-0.0623379948	-1.4742907686	-2.6174018199	 0.102213
H	 0.9858608597	-2.6858387465	-1.8783601597	 0.093588
H	-1.6582928117	-2.6615312339	-1.2479902459	 0.075145
H	-1.2379058209	-3.4871555222	 0.9864663797	 0.091642
H	 0.3579893561	-3.7853460877	 0.2490550711	 0.105104
H	-0.6508518552	-0.3022705158	 2.0813767462	 0.094224
H	-2.2000270624	-0.4048764336	-0.1129802666	 0.095841
148.5336	213.6385	266.1381	318.4499	359.4969	389.5275	491.8736	542.9845	572.6988	720.0217	753.5355	780.0034	801.2879	847.5735	882.1231	903.6566	947.5962	949.1232	971.8394	992.4552	1017.9035	1038.2256	1063.2416	1092.7932	1111.8027	1163.2351	1181.6856	1212.5605	1228.5322	1263.2265	1271.6599	1282.5118	1292.2013	1316.1177	1332.2981	1351.4735	1381.9097	1431.0136	1482.6836	1499.9551	1515.6548	2989.4549	3042.1169	3051.1041	3080.1491	3085.5614	3090.3023	3105.0127	3155.4413	3198.7749	3793.3899
OC12CCC3COC1C23	O[C@@]12CC[C@H]3CO[C@@H]1[C@@H]23	
InChI=1S/C7H10O2/c8-7-2-1-4-3-9-6(7)5(4)7/h4-6,8H,1-3H2	InChI=1S/C7H10O2/c8-7-2-1-4-3-9-6(7)5(4)7/h4-6,8H,1-3H2/t4-,5-,6+,7+/m0/s1
