17
gdb 55643	2.85829	1.13796	0.99151	2.9464	69.4	-0.2828	0.0171	0.3	1231.4455	0.133338	-455.207016	-455.196976	-455.196032	-455.241739	36.09	
C	 0.0637208966	 1.5905794934	 0.0008403557	-0.423311
C	 0.0200079663	 0.0563755768	 0.0830627587	 0.220071
C	 0.83433713	-0.5002213336	 1.2620543845	-0.42255
O	-1.344102971	-0.4376778532	 0.096490282	-0.308097
C	-2.1657205053	-0.1042163631	 1.1320344978	 0.510839
N	-3.3984233091	-0.630925308	 0.9018750378	-0.553757
O	-1.8628765975	 0.5678241735	 2.0908998755	-0.400438
C	 0.5573123684	-0.5056247122	-1.1756455296	 0.281126
N	 1.0179016575	-0.9244558788	-2.1481088942	-0.332911
H	 1.0940819028	 1.9189149407	-0.1576336803	 0.136603
H	-0.5441208749	 1.9400703435	-0.837024704	 0.139366
H	-0.3160376674	 2.0147849398	 0.9294318221	 0.165357
H	 0.4564677594	-0.0816709282	 2.1938609421	 0.165319
H	 0.7571593051	-1.5896829617	 1.2918618721	 0.137381
H	 1.886452818	-0.2310286681	 1.1388594462	 0.136519
H	-3.5297171951	-1.3013188603	 0.1647890764	 0.273719
H	-4.0603879036	-0.5938988703	 1.6566232373	 0.274763
78.5189	104.5531	135.524	196.0241	240.6021	242.5614	245.5432	255.9001	322.1836	381.6862	400.3205	434.3109	529.6153	586.9416	587.5915	641.586	757.4065	780.2581	837.789	939.7192	956.0882	1028.5704	1045.6658	1109.5455	1186.5074	1194.7109	1260.8127	1366.4922	1391.4885	1412.3162	1472.048	1491.4718	1493.1843	1513.1422	1608.1531	1825.6822	2366.6476	3058.37	3061.8465	3131.0658	3134.1614	3168.9596	3171.6614	3623.5559	3757.8796
CC(C)(OC(N)=O)C#N	CC(C)(OC(=O)N)C#N	
InChI=1S/C5H8N2O2/c1-5(2,3-6)9-4(7)8/h1-2H3,(H2,7,8)	InChI=1S/C5H8N2O2/c1-5(2,3-6)9-4(7)8/h1-2H3,(H2,7,8)
