21
gdb 53528	3.25599	0.78461	0.7272	1.4142	87.74	-0.2369	0.0653	0.3022	1667.795	0.179275	-387.054718	-387.043825	-387.042881	-387.091944	38.791	
C	 0.1247980331	 1.4168781023	-0.4354725458	-0.496722
C	 0.0454439637	 0.0038061892	-0.0914404338	 0.063012
C	-0.0083702524	-1.1650195735	 0.1944169438	 0.075814
C	-0.0942042609	-2.5837711014	 0.5336080678	-0.428613
C	-1.4585730685	-3.1961399033	 0.2158439966	 0.342128
C	-2.6059615887	-2.6640352393	 1.0498845225	-0.458485
C	-1.7354965972	-3.5752922025	-1.2277573225	-0.357606
C	-1.4915346165	-4.6452558539	-0.1894728555	 0.042847
O	-0.2824254278	-5.351168026	-0.1897190853	-0.418653
H	 1.1075290852	 1.6730513707	-0.8472878024	 0.144618
H	-0.6266442588	 1.6879999474	-1.1856536872	 0.143926
H	-0.0408754895	 2.0532304178	 0.441204346	 0.143899
H	 0.6822825262	-3.1477399669	 0.0078132476	 0.136451
H	 0.1134535481	-2.7180765544	 1.6044883878	 0.121123
H	-2.7180956502	-1.584311838	 0.9065005181	 0.130357
H	-3.5525457761	-3.1409695437	 0.777360109	 0.10881
H	-2.4338037106	-2.8455465328	 2.117512745	 0.114856
H	-2.738008829	-3.4440468903	-1.6219505455	 0.106261
H	-0.9399422461	-3.4012842506	-1.9453311123	 0.113712
H	-2.3498540616	-5.2277029621	 0.1479865766	 0.083534
H	-0.2643701425	-5.9089996888	-0.9740332504	 0.28873
28.0488	45.8861	81.9172	187.9144	200.4431	214.8279	246.3396	254.0761	292.895	350.3735	378.4152	386.0859	459.7678	474.3558	539.151	718.3883	783.8294	812.2213	886.5185	911.543	964.1814	967.0416	1038.4839	1043.6974	1053.5966	1054.3326	1102.9443	1124.7012	1159.7789	1169.5526	1210.4774	1275.1965	1316.6677	1324.6178	1356.3136	1414.8322	1416.0622	1424.3386	1472.0044	1480.0052	1480.2582	1488.3714	1492.1066	1506.5203	2370.9936	3011.4306	3023.8328	3025.5037	3077.9665	3082.7911	3082.9432	3087.6724	3090.5459	3104.0523	3124.7432	3212.3837	3808.8916
CC#CCC1(C)CC1O	CC#CC[C@@]1(C)C[C@H]1O	
InChI=1S/C8H12O/c1-3-4-5-8(2)6-7(8)9/h7,9H,5-6H2,1-2H3	InChI=1S/C8H12O/c1-3-4-5-8(2)6-7(8)9/h7,9H,5-6H2,1-2H3/t7-,8+/m1/s1
