17
gdb 42281	3.45649	1.12794	0.92234	2.7247	80.3	-0.2432	-0.0563	0.187	1251.2047	0.135074	-384.680111	-384.671507	-384.670562	-384.714739	31.339	
O	 0.3709817465	 0.0080293806	 0.6907961922	-0.289358
C	 0.1042308393	 1.1167174245	 0.2800519636	 0.215974
C	 1.1588450283	 2.057654424	-0.0733577842	 0.266537
C	 2.0173085892	 2.8507436716	-0.3621649047	-0.407141
C	-1.3101786099	 1.6342049618	 0.0735098225	-0.093575
C	-1.627753619	 1.8558554277	-1.4482211815	-0.270762
C	-3.0202274771	 1.2938869649	-1.5911249409	-0.059381
C	-3.4392417547	 0.6729893807	-0.4915670891	-0.058724
C	-2.412381345	 0.6882951981	 0.612163705	-0.288404
H	 2.7893427136	 3.5372617397	-0.6127300296	 0.214004
H	-1.3664510445	 2.6078600877	 0.5718629548	 0.102409
H	-1.5582721238	 2.9121967685	-1.7278568236	 0.115428
H	-0.9200793037	 1.3219414587	-2.0973102723	 0.118944
H	-3.5764175041	 1.3745090653	-2.5185956486	 0.095153
H	-4.3953781167	 0.1728933286	-0.3832903228	 0.095492
H	-2.0020551415	-0.3110989223	 0.7997715418	 0.137299
H	-2.819588797	 1.0415685	 1.5662009274	 0.106106
36.6853	50.1427	126.0816	198.3892	268.7117	315.0442	385.4263	445.4426	545.7177	641.6309	652.408	696.4352	708.4703	739.2195	789.4089	806.2897	924.4039	928.6551	959.7899	977.7322	983.3815	1035.3312	1059.0999	1125.9252	1133.4448	1157.7305	1198.601	1282.882	1298.8683	1318.3068	1354.4725	1372.5355	1488.8595	1495.1955	1696.2712	1766.0949	2209.6016	3014.4103	3035.7714	3045.3023	3064.7146	3071.8812	3182.8778	3208.1793	3494.7236
O=C(C#C)C1CC=CC1	O=C(C#C)[C@H]1CC=CC1	
InChI=1S/C8H8O/c1-2-8(9)7-5-3-4-6-7/h1,3-4,7H,5-6H2	InChI=1S/C8H8O/c1-2-8(9)7-5-3-4-6-7/h1,3-4,7H,5-6H2
