15
gdb 123545	2.84373	1.55897	1.18927	4.1036	79.42	-0.2249	-0.06	0.1648	1019.1788	0.114113	-416.781964	-416.774963	-416.774018	-416.813752	26.852	
C	-0.0215757002	 1.5700977072	-0.0908910385	-0.22772
C	 1.5241037229	 1.452106945	 0.130272821	-0.131716
C	 1.1936319297	 0.152313757	 0.9385114964	-0.228192
C	 0.0717582883	 0.0103209899	-0.1409799534	-0.13092
C	 0.9235196783	-0.1647131134	-1.3914898043	 0.293384
C	 1.9791907722	 0.8591612086	-1.222446396	 0.355676
O	 2.9185923584	 1.1572500795	-1.9151017501	-0.347925
N	 0.6931723295	-1.7191729118	-3.2375524858	-0.249805
N	 0.7891240253	-1.0012372353	-2.3587752582	 0.031762
H	-0.5349669423	 1.9309583787	 0.8039459057	 0.113275
H	-0.3815902964	 2.0909023206	-0.9807072729	 0.114097
H	 2.1389395369	 2.2607626344	 0.518065051	 0.092412
H	 1.9519190661	-0.6315425984	 0.9959469737	 0.113976
H	 0.7951219744	 0.3793208239	 1.9306073883	 0.113227
H	-0.7911546431	-0.6414497058	-0.020532917	 0.088468
89.9042	145.7588	189.118	393.4266	468.338	468.7365	517.1059	543.1015	607.1589	688.5985	737.4546	826.6103	833.2595	851.2039	879.2311	950.191	992.4842	1010.0399	1041.7143	1058.1599	1093.0955	1120.3414	1187.3546	1220.9197	1234.3905	1235.3759	1266.958	1276.4422	1457.2381	1481.1966	1517.5461	1832.4099	2200.4468	3059.9352	3064.9036	3126.0068	3128.8916	3140.4928	3154.3883
C1C2CC1C1=C2ON=N1	C1[C@H]2C[C@@H]1[C](C2=O)[N][N]	
InChI=1S/C6H6N2O/c1-3-2-4(1)6-5(3)7-8-9-6/h3-4H,1-2H2	InChI=1S/C6H6N2O/c7-8-5-3-1-4(2-3)6(5)9/h3-4H,1-2H2/t3-,4+
