17
gdb 15158	4.82275	1.00363	0.87362	3.3779	69.33	-0.2459	0.0277	0.2735	1318.875	0.14024	-400.962754	-400.954031	-400.953087	-400.997132	29.928	
C	-0.6810383588	 0.6122969406	 0.1505734443	-0.314182
N	 0.6243431617	-0.0102829629	 0.2241329446	-0.204836
C	 0.7895426099	-0.8980723686	 1.0972590035	 0.129076
O	 1.9963812241	-1.5008045952	 1.2341704648	-0.208351
C	 2.0663746058	-2.5541995426	 2.1901031374	-0.120068
C	 1.4735580507	-3.8370856126	 1.6666147855	 0.082727
C	 0.8741262196	-4.8216594984	 2.574907579	-0.17737
O	 0.0525024855	-3.9659806391	 1.7804151056	-0.227914
H	-1.099554725	 0.4701781138	-0.8523236173	 0.127588
H	-1.4060248267	 0.2247957575	 0.8849227468	 0.09784
H	-0.5819066683	 1.6933155835	 0.3025861035	 0.12577
H	 0.0222779119	-1.2527808406	 1.799953851	 0.092971
H	 3.1325027736	-2.6873853852	 2.3965461302	 0.126719
H	 1.5632276812	-2.2705243502	 3.1240220096	 0.112848
H	 1.8792866625	-4.1791329513	 0.7144692009	 0.113366
H	 0.8658439949	-5.873640732	 2.2957449541	 0.125203
H	 0.8543788073	-4.6261824468	 3.6465087965	 0.118613
60.6233	71.0228	88.0456	204.2673	218.788	249.6514	312.0672	383.5898	412.8427	485.8118	611.3013	796.3659	864.9997	942.8702	978.9433	986.5147	1031.5934	1071.6053	1095.3672	1140.4812	1143.038	1156.4317	1161.8085	1169.8914	1220.7057	1287.7535	1312.9419	1378.9047	1410.3968	1449.0008	1451.85	1481.5719	1483.3786	1505.1328	1530.8497	1779.9852	2969.1631	3018.6133	3028.1446	3058.0858	3076.7711	3086.8392	3093.8182	3121.7413	3174.5518
CN=COCC1CO1	CN=COC[C@H]1CO1	
InChI=1S/C5H9NO2/c1-6-4-7-2-5-3-8-5/h4-5H,2-3H2,1H3	InChI=1S/C5H9NO2/c1-6-4-7-2-5-3-8-5/h4-5H,2-3H2,1H3/t5-/m0/s1
