20
gdb 111066	3.26943	1.0907	0.9606	3.2157	76.47	-0.2446	0.0758	0.3204	1296.8808	0.170628	-440.197648	-440.188599	-440.187655	-440.23189	33.499	
C	-0.0188669073	 1.3891608739	-0.3688728467	-0.241921
O	-0.0383020514	 0.1757000065	 0.3562841363	-0.254107
C	-1.2401662768	-0.5212034553	 0.2410102473	 0.110355
C	-1.5183050713	-1.4924233302	-0.9592598376	-0.08349
C	-0.4117573473	-2.4210894184	-0.4085950934	-0.232129
C	-1.2717269001	-1.963577957	 0.8048447353	 0.255701
C	-1.2502272567	-2.4753326727	 2.2176308922	-0.18774
O	-1.4611596428	-3.8747701885	 2.246677103	-0.417242
N	-2.4923561026	-2.2442680602	-0.0714338521	-0.364064
H	 0.9425692199	 1.868272834	-0.1721389386	 0.133111
H	-0.1194705738	 1.2221881089	-1.4509847632	 0.112218
H	-0.8259174721	 2.0642876432	-0.046015491	 0.109417
H	-2.0999933716	 0.1101096855	 0.5210680184	 0.058584
H	-1.7618309118	-1.2617095409	-1.9968263406	 0.081747
H	-0.5079794169	-3.4729986867	-0.6759123779	 0.106976
H	 0.6104221504	-2.0494644854	-0.4445853091	 0.113141
H	-0.2758158054	-2.2799216635	 2.6779601543	 0.121012
H	-2.009561151	-1.937397886	 2.8120063743	 0.082562
H	-2.1495090056	-4.0577232776	 1.5947669827	 0.292502
H	-3.2586931658	-1.6174510596	 0.2038250762	 0.203366
69.7264	82.5837	145.676	177.2828	208.5139	282.5929	314.312	355.5601	415.3924	524.4504	572.2836	616.6478	680.3845	764.1766	846.2523	884.3518	919.8727	966.9616	982.2825	1028.98	1037.7398	1068.2408	1073.5369	1097.0969	1144.745	1149.8227	1182.1937	1190.8719	1202.2388	1208.876	1229.0793	1241.3938	1269.901	1297.7589	1332.4404	1366.1485	1400.0229	1443.7391	1478.9972	1488.0302	1497.1251	1503.3058	1508.75	2951.771	2968.697	2984.257	3033.8253	3071.2649	3097.5466	3111.7332	3122.5862	3180.5143	3349.9594	3774.4614
COC1C2CC1(CO)N2	CO[C@H]1[C@H]2C[C@]1(CO)N2	
InChI=1S/C6H11NO2/c1-9-5-4-2-6(5,3-8)7-4/h4-5,7-8H,2-3H2,1H3	InChI=1S/C6H11NO2/c1-9-5-4-2-6(5,3-8)7-4/h4-5,7-8H,2-3H2,1H3/t4-,5+,6-/m1/s1
