20
gdb 60026	2.02687	1.01384	0.80967	2.8859	80.83	-0.276	-0.0505	0.2254	1507.0637	0.16787	-403.180003	-403.169335	-403.168391	-403.217062	36.97	
C	-1.4857085761	-0.4324806846	-0.1800244994	-0.394006
C	 0.0027896438	-0.1628951325	 0.0813534713	 0.018978
C	 0.4610074165	-0.8375892645	 1.3813514616	-0.390383
C	 0.8273081416	-0.6151119334	-1.1377431085	-0.191524
C	 2.3447713707	-0.2763673171	-1.0699286527	-0.236754
C	 3.0092143805	-0.7911938822	-2.3547951936	 0.159484
O	 3.4944127196	-1.8847493609	-2.4382271785	-0.233772
C	 2.5759453259	 1.1592003234	-0.9185365708	 0.270388
N	 2.7640347522	 2.29635532	-0.8304797724	-0.319698
H	-1.832076934	 0.0747471937	-1.0863526205	 0.117059
H	-1.6769032154	-1.5052209857	-0.301985752	 0.117157
H	-2.0971486201	-0.0798679049	 0.6561394222	 0.1202
H	 0.1363836711	 0.9213354009	 0.1911210929	 0.10419
H	 0.389996	-1.9292479437	 1.3048092111	 0.117667
H	 1.4933526895	-0.5843073674	 1.6413512088	 0.119746
H	-0.1684267768	-0.5223138255	 2.2189995275	 0.122765
H	 0.7512347505	-1.7020840418	-1.2589071257	 0.124745
H	 0.4117145254	-0.1603466881	-2.0448478535	 0.114833
H	 2.8060264794	-0.8098961742	-0.2339281707	 0.149547
H	 2.9651782457	-0.0921032415	-3.2167160271	 0.109377
39.351	49.5128	89.9174	122.6103	195.5839	210.4358	224.9615	255.3873	280.3395	351.1724	410.3209	425.2378	486.6146	538.5932	597.5357	806.552	829.0949	920.9735	932.1529	957.1939	973.0223	985.7447	1030.5213	1073.3928	1133.6897	1156.6492	1192.4644	1224.94	1259.6713	1326.1433	1337.4142	1372.9906	1382.3441	1403.2537	1419.1343	1425.5623	1478.3587	1487.9971	1495.0405	1505.0658	1510.7051	1840.9318	2355.3687	2912.5677	3022.4841	3026.602	3028.331	3034.6599	3073.5684	3087.5004	3093.7036	3099.6037	3105.1078	3108.2601
CC(C)CC(C=O)C#N	CC(C)C[C@@H](C=O)C#N	
InChI=1S/C7H11NO/c1-6(2)3-7(4-8)5-9/h5-7H,3H2,1-2H3	InChI=1S/C7H11NO/c1-6(2)3-7(4-8)5-9/h5-7H,3H2,1-2H3/t7-/m1/s1
