13
gdb 131947	2.80192	1.60291	1.02604	2.1401	64.6	-0.2912	-0.0891	0.2021	1053.3433	0.088281	-489.801414	-489.793703	-489.792759	-489.834711	26.787	
C	 0.0642210245	 1.5283679009	 0.0088540067	-0.492755
C	-0.0637043568	 0.050979595	 0.0014574721	 0.415577
C	-1.1263993357	-0.8164722766	 0.0024576597	 0.129299
C	-0.5542893147	-2.1136666076	-0.0076908716	-0.010585
N	 0.7485281189	-2.0516068317	-0.0140878218	-0.121256
O	 1.0536547512	-0.6754649985	-0.0084683555	-0.19959
N	-2.5155294761	-0.4843106053	 0.0116755979	 0.345468
O	-3.3128296174	-1.4152871048	 0.0104887091	-0.358507
O	-2.8124900185	 0.7085270707	 0.0199079743	-0.386004
H	 1.1185379385	 1.809019886	 0.0009777147	 0.156079
H	-0.4411587204	 1.9557395629	-0.8612388578	 0.173921
H	-0.4249171259	 1.945604109	 0.8931092429	 0.173843
H	-1.0606123477	-3.0667324299	-0.0101497007	 0.174509
57.3011	82.0932	191.9315	206.7664	261.5934	328.3869	439.8598	544.5998	639.8225	655.2737	691.5832	793.6318	841.8892	881.7328	934.5699	946.2396	995.3375	1057.5994	1169.6984	1180.7072	1293.6931	1373.5515	1411.3074	1443.6954	1464.2683	1474.7793	1531.2357	1608.0963	1641.5714	3058.7654	3122.5457	3154.7335	3271.875
CC1=C(C=NO1)N(=O)=O	Cc1c(cno1)N(=O)=O	
InChI=1S/C4H4N2O3/c1-3-4(6(7)8)2-5-9-3/h2H,1H3	InChI=1S/C4H4N2O3/c1-3-4(6(7)8)2-5-9-3/h2H,1H3
