15
gdb 45445	2.68117	1.78418	1.74835	3.3372	59.92	-0.2614	-0.0048	0.2566	858.466	0.115062	-494.930385	-494.923833	-494.922889	-494.961401	25.464	
O	-0.0283694364	-0.0120799657	-0.0403544656	-0.33489
C	 0.0027332364	 1.1813051185	 0.0103741188	 0.464217
O	-1.1316290973	 1.9383074221	 0.0800905155	-0.236426
C	-0.8296367615	 3.3492952169	 0.0500607834	 0.169749
C	 0.0307049526	 3.6673882977	 1.2696781794	-0.098152
O	 1.2174149554	 2.8712271799	 1.199905776	-0.273789
C	 1.2333577519	 2.0886048937	 0.0042901489	-0.087032
C	 1.1191391772	 3.0259320302	-1.2010580571	-0.090634
O	-0.1621923137	 3.6764257982	-1.134249256	-0.258967
H	-1.786717905	 3.8694266912	 0.0471189816	 0.118164
H	 0.2960993277	 4.7311748121	 1.2686049309	 0.122573
H	-0.5115446549	 3.4318921543	 2.1924784569	 0.127079
H	 2.1491382372	 1.5000140463	 0.0040191682	 0.121275
H	 1.916608213	 3.7769639383	-1.1592790852	 0.123281
H	 1.1832371173	 2.4819136763	-2.1495625257	 0.133553
122.239	185.9864	308.3981	388.335	398.4546	448.1644	543.5929	606.4124	659.5842	780.9857	832.058	868.4451	884.8275	892.8155	936.0614	993.6036	1018.8066	1063.148	1079.7745	1125.2051	1133.2583	1205.7898	1230.9703	1240.6131	1295.8672	1325.7265	1346.4569	1382.9709	1397.1064	1405.2156	1505.1974	1511.1692	1886.9714	3029.5756	3032.3093	3075.7362	3082.5144	3137.0949	3144.9809
O=C1OC2COC1CO2	O=C1O[C@H]2CO[C@@H]1CO2	
InChI=1S/C5H6O4/c6-5-3-1-8-4(9-5)2-7-3/h3-4H,1-2H2	InChI=1S/C5H6O4/c6-5-3-1-8-4(9-5)2-7-3/h3-4H,1-2H2/t3-,4+/m1/s1
