21
gdb 58962	2.62148	1.40358	1.19879	1.5541	77.6	-0.2435	0.0572	0.3008	1153.5059	0.18142	-424.189247	-424.180211	-424.179267	-424.222977	34.149	
C	-0.0460152043	 1.5350833233	 0.0117946381	-0.399005
C	 0.0502905414	 0.002990927	 0.0916062249	-0.069414
C	 0.8268172368	-0.4588554257	 1.3320029861	-0.403884
C	-1.333901916	-0.6059449471	 0.0108532401	 0.426243
C	-2.3564311726	-0.5123735221	 1.1656595097	-0.127241
O	-2.7055860783	-1.9135030074	 1.0131451775	-0.293416
C	-1.7518872855	-2.0967792106	-0.0444530498	-0.006075
C	-2.3133707719	-1.7596877673	-1.4307384159	-0.104584
O	-1.9738058447	-0.3585930544	-1.2676635372	-0.339846
H	 0.9510802014	 1.9845815753	-0.0255327527	 0.112095
H	-0.5968867516	 1.8425176697	-0.8806772882	 0.139646
H	-0.561059361	 1.9438574753	 0.889181505	 0.113842
H	 0.5867059864	-0.347948427	-0.8002056558	 0.081579
H	 0.3704117126	-0.0876922861	 2.2556426477	 0.119868
H	 0.8772515236	-1.5505552184	 1.3970976186	 0.117817
H	 1.8522921729	-0.0782847573	 1.299033516	 0.118274
H	-1.9455931157	-0.317363863	 2.1634007677	 0.101975
H	-3.1994767245	 0.158381879	 0.9701993001	 0.111977
H	-1.121758861	-2.977867631	 0.0921026058	 0.085425
H	-1.7694223274	-2.2038968837	-2.2744399787	 0.102222
H	-3.3892336807	-1.9262410582	-1.5483085788	 0.1125
65.8322	122.6501	163.873	218.2768	248.8808	268.3671	285.9002	356.333	403.7011	448.3837	469.3145	621.2838	715.4384	833.526	877.321	894.2919	914.2676	932.5659	968.1482	971.944	995.272	1003.8642	1053.7953	1063.7976	1083.0139	1118.1603	1150.6886	1165.8185	1174.2546	1191.0434	1204.3509	1272.5319	1312.8166	1335.7535	1345.7682	1365.4524	1385.836	1398.2854	1421.1399	1488.5378	1491.8654	1499.9589	1502.1948	1509.1805	1514.2798	3014.0698	3015.8027	3025.7266	3030.9468	3036.3912	3079.0349	3082.6186	3092.3237	3095.6783	3104.5195	3106.0044	3122.9338
CC(C)C12COC1CO2	CC(C)[C@]12CO[C@H]1CO2	
InChI=1S/C7H12O2/c1-5(2)7-4-8-6(7)3-9-7/h5-6H,3-4H2,1-2H3	InChI=1S/C7H12O2/c1-5(2)7-4-8-6(7)3-9-7/h5-6H,3-4H2,1-2H3/t6-,7+/m0/s1
