17
gdb 72371	2.71823	1.64975	1.37994	2.7085	74.63	-0.2323	0.0094	0.2417	983.9248	0.136665	-418.006166	-417.998106	-417.997162	-418.038789	30.981	
O	 0.1550285926	 1.2661602443	-0.1888352579	-0.480289
C	 0.1033815825	-0.1259372325	-0.0338819649	 0.340001
C	 0.827014794	-0.8989000156	-1.1610315133	-0.337985
C	-0.1883140919	-1.909911158	-1.6372055734	-0.056013
C	-1.3472283045	-1.8541046991	-0.9782289494	-0.086217
C	-1.3139068989	-0.8043518355	 0.0940506837	-0.065358
N	-0.8676093274	-1.2676944727	 1.4342771479	-0.341163
C	 0.3194192807	-0.5724853438	 1.4165410888	 0.312443
N	 1.2455021853	-0.2471255162	 2.2185917163	-0.570649
H	 0.6833710607	 1.6026038504	 0.5462473918	 0.296122
H	 1.1046100604	-0.1908779894	-1.9509021665	 0.124068
H	 1.7550818028	-1.3686706057	-0.8153045249	 0.125976
H	 0.0305258716	-2.6018287836	-2.4441009909	 0.100677
H	-2.208586899	-2.4843487159	-1.1685678726	 0.096651
H	-2.1665856491	-0.1207755896	 0.1292972388	 0.092482
H	-1.4061956965	-1.6027201015	 2.2188045587	 0.239584
H	 1.0854606967	-0.5934732757	 3.1654624778	 0.209671
57.9451	178.6962	212.317	258.7269	272.7984	320.9387	379.0765	441.1321	531.6353	613.4414	685.286	717.4255	734.9291	784.3236	821.3593	830.7615	913.6963	942.8948	957.3566	973.6831	1011.4967	1018.5012	1067.4942	1110.4689	1139.2918	1145.0234	1185.3207	1249.5426	1285.4981	1323.1257	1328.2134	1363.8586	1384.3363	1392.9191	1471.7827	1675.241	1792.765	3036.2663	3070.6004	3074.9499	3179.0949	3204.9684	3466.3434	3610.2942	3773.32
OC12CC=CC1NC2=N	O[C@]12CC=C[C@H]1N[C]2[NH]	
InChI=1S/C6H8N2O/c7-5-6(9)3-1-2-4(6)8-5/h1-2,4,9H,3H2,(H2,7,8)	InChI=1S/C6H8N2O/c7-5-6(9)3-1-2-4(6)8-5/h1-2,4,9H,3H2,(H2,7,8)/t4-,6-/m1/s1
