19
gdb 76648	3.11036	1.0515	0.91439	3.5156	71.44	-0.2378	0.0457	0.2836	1305.5781	0.158468	-460.103184	-460.094103	-460.093159	-460.138471	33.01	
O	 0.0526109017	 1.2744194276	-0.2313395247	-0.428031
C	-0.0527917103	-0.1057478358	-0.0663642327	 0.074914
C	-0.3493666166	-0.6123550772	 1.3243282934	 0.012069
O	-0.5679041805	 0.3857807938	 2.2942412128	-0.424658
C	-1.4070311957	-0.7306171284	 0.2498681915	-0.119527
C	-2.6602884064	 0.0983917177	 0.281693488	-0.013058
C	-3.6078956593	 0.0145641016	-0.938906781	-0.090294
O	-4.72718068	-0.3392921632	-0.101694768	-0.27372
C	-3.881267975	-0.4454306081	 1.0614561853	-0.085085
H	-0.0954174122	 1.6605835941	 0.6434174372	 0.285022
H	 0.6361389908	-0.6470201259	-0.707770248	 0.102122
H	 0.1197413728	-1.5191035292	 1.6998778059	 0.095094
H	 0.2618804522	 0.526589778	 2.7635079884	 0.298793
H	-1.549206089	-1.743446001	-0.1219059989	 0.090837
H	-2.4308965559	 1.1296168291	 0.546894852	 0.083898
H	-3.7824651738	 0.9440012217	-1.4925968211	 0.104842
H	-3.3608256849	-0.7835464976	-1.6534494855	 0.092106
H	-3.7784490965	-1.4858779078	 1.400677535	 0.091352
H	-4.2451677913	 0.1653243506	 1.8955371603	 0.103324
29.6907	66.3331	112.6105	164.4662	253.9848	280.473	297.5673	346.884	497.1115	550.7246	568.4202	666.0852	742.4628	781.3693	818.7327	883.0188	892.2818	963.7448	1011.1939	1021.0643	1037.6202	1039.5513	1067.3636	1099.8303	1120.8458	1153.6488	1157.583	1158.2414	1191.2374	1239.4935	1249.018	1265.5992	1298.1138	1306.1887	1328.829	1374.5737	1409.0233	1419.5274	1474.6696	1511.3359	1537.7884	2993.5571	3004.7147	3055.2315	3055.9955	3115.4422	3121.0343	3130.5531	3155.3434	3735.3717	3803.8445
OC1C(O)C1C1COC1	O[C@H]1[C@@H](O)[C@H]1C1COC1	
InChI=1S/C6H10O3/c7-5-4(6(5)8)3-1-9-2-3/h3-8H,1-2H2	InChI=1S/C6H10O3/c7-5-4(6(5)8)3-1-9-2-3/h3-8H,1-2H2/t4-,5+,6-
