17
gdb 24136	4.96424	0.99007	0.91064	3.2866	75.44	-0.1929	0.0249	0.2177	1287.0479	0.137196	-418.009255	-418.001145	-418.000201	-418.043463	29.78	
C	-0.4371757713	 0.9596701094	-0.1924576665	-0.252151
C	 1.0058139766	 1.0828707442	 0.2315034923	-0.285411
C	 0.42865376	-0.2715392159	-0.0686116203	 0.037829
N	 0.2431843567	-1.1955436933	 1.0167758198	-0.414327
C	-0.9447668662	-1.8577676497	 1.2058862148	 0.409908
C	-1.6009006895	-2.3733232156	 2.2839834788	-0.222601
N	-2.7447704129	-3.0309200358	 1.8362569642	-0.245944
C	-2.7331928958	-2.876106405	 0.5595413081	 0.057398
O	-1.6577426758	-2.169895009	 0.0885061477	-0.172596
H	-1.1974592523	 1.10660479	 0.5660930344	 0.124631
H	-0.7187905809	 1.2869431385	-1.1867559743	 0.120659
H	 1.7264026517	 1.495280841	-0.4653440667	 0.123176
H	 1.2032725309	 1.3268231628	 1.2706438937	 0.114575
H	 0.7402220383	-0.7405836021	-0.9978857283	 0.105598
H	 0.7470199778	-0.9968218095	 1.8654727588	 0.250214
H	-1.3384120206	-2.3225852387	 3.3276486615	 0.106288
H	-3.4474027267	-3.2051463813	-0.177041228	 0.142754
39.3688	45.6881	119.9922	272.5478	320.6587	347.2326	412.0177	490.7727	660.455	694.83	747.1992	767.7392	768.2473	771.1171	838.9067	850.6448	937.9722	969.6673	975.0411	1018.3582	1058.7745	1079.9543	1094.4859	1123.9046	1133.7577	1193.3982	1199.9658	1247.029	1257.179	1305.725	1368.0137	1390.1977	1461.3454	1468.7709	1500.5927	1573.3549	1659.1484	3132.8214	3136.3831	3142.8341	3215.3362	3233.4548	3268.5771	3286.5883	3642.2172
C1CC1NC1=CN=CO1	C1CC1Nc1cnco1	
InChI=1S/C6H8N2O/c1-2-5(1)8-6-3-7-4-9-6/h3-5,8H,1-2H2	InChI=1S/C6H8N2O/c1-2-5(1)8-6-3-7-4-9-6/h3-5,8H,1-2H2
