23
gdb 104721	2.49797	1.13554	0.93198	2.0399	82.09	-0.2477	0.0801	0.3278	1387.8786	0.203914	-425.409031	-425.398711	-425.397767	-425.444234	38.429	
C	-1.7807123772	 0.160709173	-0.5805950111	-0.261263
O	-0.4053126574	 0.412173421	-0.3571929706	-0.302571
C	 0.4964055267	-0.535981069	-0.9212895881	 0.385761
C	 0.5342817861	-0.3683043961	-2.4403072436	-0.097918
O	 0.8354995287	 0.9664953365	-2.7944676713	-0.429905
C	 1.8918389744	-0.4442131869	-0.2641283633	-0.291492
C	 1.9335811064	-1.9986782187	-0.2034613126	 0.05156
C	 2.4706187497	-2.660579254	 1.0560740706	-0.406564
C	 0.3947156261	-2.0124080588	-0.4468899124	-0.307218
H	-2.0670691851	 0.2727776225	-1.6352582333	 0.114636
H	-2.0693864658	-0.8458423869	-0.2484299542	 0.113927
H	-2.3339320009	 0.896092556	 0.0086463531	 0.129585
H	 1.3138281971	-1.0077137262	-2.8683546812	 0.105308
H	-0.4248569738	-0.6948249928	-2.8767218445	 0.08061
H	 0.3630134465	 1.5168941517	-2.1569457777	 0.286469
H	 2.666286225	 0.0795295692	-0.8279903172	 0.110341
H	 1.807397884	-0.0037731512	 0.733167551	 0.103577
H	 2.4550470974	-2.3982075305	-1.0795147135	 0.074122
H	 1.9627495332	-2.2751951438	 1.9475033256	 0.112664
H	 2.3235393438	-3.7462277519	 1.0304945796	 0.113614
H	 3.5433534873	-2.472497429	 1.1765252896	 0.116554
H	-0.1544578108	-2.0795433493	 0.4974553335	 0.103842
H	-0.0102517213	-2.7484043547	-1.1476924183	 0.094362
77.8205	84.5257	123.4795	171.9697	194.9292	232.0916	266.7394	312.8828	316.9244	366.4493	414.5841	437.7527	451.8512	546.5535	634.7511	742.5062	831.2332	849.1891	891.3243	903.2185	944.1214	956.5774	1034.9303	1060.6762	1082.5016	1097.6555	1111.1735	1149.6272	1171.4007	1181.5367	1206.1562	1225.9673	1228.1616	1243.9351	1285.9765	1291.0416	1303.0638	1360.6632	1375.827	1411.0563	1437.7048	1466.659	1475.595	1488.0243	1491.1031	1496.6349	1496.954	1508.5225	1520.435	2964.2101	2998.7689	3022.7348	3044.2717	3045.5134	3051.4534	3064.0252	3067.7347	3090.7032	3091.9722	3102.9906	3114.6719	3124.3483	3770.0362
COC1(CO)CC(C)C1	CO[C@@]1(CO)C[C@@H](C)C1	
InChI=1S/C7H14O2/c1-6-3-7(4-6,5-8)9-2/h6,8H,3-5H2,1-2H3	InChI=1S/C7H14O2/c1-6-3-7(4-6,5-8)9-2/h6,8H,3-5H2,1-2H3/t6-,7+
