18
gdb 65283	2.61242	1.39167	1.13513	5.6276	77.48	-0.2455	0.034	0.2794	1138.1474	0.146556	-401.931594	-401.922745	-401.921801	-401.965254	32.558	
C	-0.1325175394	 1.5100500344	 0.0751764752	-0.458716
C	 0.0144687179	-0.0025037356	 0.0292174554	 0.056213
C	 1.3791029857	-0.6072782631	-0.3472425825	-0.391333
C	 0.9004022364	-0.7034397105	 1.0539302276	 0.437972
C	 1.4416764291	-0.1435289873	 2.3648215598	-0.361682
C	 0.9508592665	-1.4891305737	 2.9439133412	-0.074221
O	 0.5354940132	-1.9438466466	 1.6302551949	-0.289291
C	-1.1548959766	-0.7163366786	-0.4126376253	 0.259437
N	-2.1124491253	-1.2609078591	-0.7665138184	-0.346291
H	 0.7798596807	 1.9691165855	 0.4661763916	 0.123509
H	-0.3119071783	 1.9142661774	-0.9255736506	 0.142071
H	-0.9674535011	 1.8065295301	 0.7169205946	 0.139762
H	 1.3695329424	-1.5219426417	-0.9294870516	 0.150027
H	 2.1705667458	 0.0934353082	-0.5939134245	 0.126559
H	 2.5230758654	 0.0028710262	 2.3883409728	 0.124
H	 0.9442531822	 0.7503165606	 2.7441878718	 0.124502
H	 1.7205923198	-2.1411990892	 3.3673512462	 0.117877
H	 0.1027716255	-1.4253101669	 3.6334745217	 0.119604
80.0814	120.0809	141.3853	190.3437	209.3556	240.742	365.2435	373.1706	426.8526	526.4696	574.1406	631.7602	678.6164	788.2976	841.1229	877.2261	887.8158	931.6841	955.9346	987.0537	1016.0465	1057.5702	1097.5313	1104.1168	1160.2828	1174.5874	1186.9634	1212.613	1251.0693	1276.298	1355.7799	1393.4923	1415.1271	1470.3523	1485.5497	1489.1248	1501.7702	1531.5199	2349.2264	3040.4651	3042.0214	3079.451	3090.5982	3111.9342	3116.4631	3130.8517	3135.0859	3227.5779
CC1(CC11CCO1)C#N	C[C@]1(C[C@]21CCO2)C#N	
InChI=1S/C7H9NO/c1-6(5-8)4-7(6)2-3-9-7/h2-4H2,1H3	InChI=1S/C7H9NO/c1-6(5-8)4-7(6)2-3-9-7/h2-4H2,1H3/t6-,7-/m0/s1
