23
gdb 116174	2.97102	1.04211	0.82045	0.6206	82.74	-0.2356	0.0837	0.3193	1474.9115	0.205958	-425.429698	-425.420058	-425.419114	-425.464201	36.069	
C	 0.0560326929	 1.3894968901	 0.1083796021	-0.239234
O	-0.0727300579	-0.0052125142	-0.0559786917	-0.244262
C	 0.612867033	-0.5367986298	-1.1770525886	 0.104877
C	 2.111991033	-0.726365583	-0.8905809628	-0.096769
O	 2.7686901971	-1.344073735	-1.9817684978	-0.246954
C	 2.2552184071	-2.6371010367	-2.2536095882	-0.067987
C	 0.7674408023	-2.6055777246	-2.625474106	 0.009441
C	 0.2284584723	-4.0127021347	-2.8948398619	-0.405741
C	-0.015610596	-1.8877912823	-1.513897822	-0.220601
H	 1.0876179192	 1.7007589455	 0.3277768497	 0.108054
H	-0.2843852438	 1.9357882246	-0.785059419	 0.10552
H	-0.575547786	 1.6722777198	 0.9543972195	 0.127242
H	 0.5081146315	 0.1423369667	-2.0397500526	 0.066873
H	 2.6163284193	 0.2307729483	-0.7318661284	 0.101191
H	 2.218323116	-1.3275960635	 0.0286403642	 0.089793
H	 2.8563191858	-3.0352917773	-3.0770328289	 0.103285
H	 2.402975426	-3.2950037428	-1.3779443468	 0.08123
H	 0.6805947031	-2.0125670741	-3.5465526335	 0.078949
H	 0.3121031429	-4.6450230484	-2.0032399118	 0.116152
H	-0.8281856173	-3.980270282	-3.1789844556	 0.116722
H	 0.7779015757	-4.5032452317	-3.7054902811	 0.113076
H	-0.0113607151	-2.5010866906	-0.6020194594	 0.10137
H	-1.0645625109	-1.7488040743	-1.7973207293	 0.097774
69.9262	120.3415	152.8974	170.5337	224.0078	247.0346	297.959	321.1069	368.7274	416.6984	445.2155	451.3564	508.5011	584.6329	851.0524	872.9327	899.4185	927.4766	963.0906	980.8406	995.9657	1014.1462	1091.199	1125.0432	1136.3496	1143.3061	1179.2948	1180.3005	1194.3808	1204.862	1232.4088	1291.9601	1294.9564	1317.8478	1334.5002	1346.2882	1379.0161	1385.2778	1404.48	1414.6117	1419.3216	1478.6646	1487.1236	1490.4711	1492.3763	1497.9637	1501.6819	1504.5766	1510.541	2943.8176	2958.8578	2970.8976	2979.2872	3009.4057	3021.0066	3026.8569	3028.4836	3070.6789	3077.2606	3089.4519	3094.6241	3100.7918	3110.913
COC1COCC(C)C1	CO[C@H]1COC[C@@H](C)C1	
InChI=1S/C7H14O2/c1-6-3-7(8-2)5-9-4-6/h6-7H,3-5H2,1-2H3	InChI=1S/C7H14O2/c1-6-3-7(8-2)5-9-4-6/h6-7H,3-5H2,1-2H3/t6-,7+/m0/s1
