19
gdb 68193	3.52669	1.23482	1.13761	4.9978	79.66	-0.2448	0.029	0.2738	1138.1136	0.161297	-382.067308	-382.059451	-382.058507	-382.099423	31.266	
C	-0.0539241898	 1.5253075386	 0.0369789913	-0.497786
C	 0.0627558542	 0.0235879372	 0.0349413227	 0.340706
C	 1.0125330949	-0.7708887771	-0.9055725399	-0.249427
C	 0.7081916901	-1.9135417072	 0.1052956071	-0.038004
C	 0.6894676773	-0.8084650989	 1.1999393101	-0.275671
C	-0.8129715013	-2.1016680097	-0.1217887425	-0.155893
N	-1.2272322596	-0.6706713731	-0.2402121502	-0.321533
C	-1.1404786088	-2.8742340435	-1.3273996977	 0.310859
N	-1.3839833232	-3.505783238	-2.264029511	-0.332986
H	 0.9223918858	 1.9909969086	 0.1983185498	 0.121477
H	-0.4573345004	 1.879620696	-0.9164038355	 0.13708
H	-0.7235319083	 1.8686258056	 0.8345787335	 0.116055
H	 0.7019031085	-0.8980823249	-1.9446089469	 0.123116
H	 2.0466408364	-0.4288628255	-0.843911322	 0.104892
H	 1.308258846	-2.8185746513	 0.1797673942	 0.088415
H	 1.6952816276	-0.4835951809	 1.474522794	 0.10519
H	 0.0830369444	-0.9712648078	 2.0972524899	 0.08699
H	-1.2819242358	-2.6048214482	 0.7313907027	 0.11581
H	-1.9061507279	-0.4502317799	 0.4827649803	 0.220709
112.1196	149.4889	217.1126	280.7409	308.5994	359.3345	455.8112	476.1512	522.2845	569.0721	640.7389	681.2603	805.7381	815.8498	858.6738	866.9869	884.5149	937.5905	953.9111	985.1846	995.1609	1032.5932	1033.5012	1065.0703	1111.7995	1123.2243	1173.0942	1189.2508	1231.0842	1233.704	1281.9281	1295.6561	1314.9994	1356.877	1413.0697	1423.4492	1477.4039	1489.7182	1492.8588	1514.8393	2358.1812	3031.3964	3041.0715	3045.5232	3076.4163	3096.1355	3116.4564	3118.7985	3137.59	3143.1588	3505.9893
CC12CC(C1)C(N2)C#N	C[C@@]12C[C@@H](C1)[C@@H](N2)C#N	
InChI=1S/C7H10N2/c1-7-2-5(3-7)6(4-8)9-7/h5-6,9H,2-3H2,1H3	InChI=1S/C7H10N2/c1-7-2-5(3-7)6(4-8)9-7/h5-6,9H,2-3H2,1H3/t5-,6-,7+/m0/s1
