19
gdb 106728	2.54311	1.53642	1.11791	1.9071	75.79	-0.2432	0.0025	0.2457	1128.5652	0.158138	-423.019223	-423.01047	-423.009526	-423.052588	33.502	
C	 0.1087922141	 1.50131497	-0.1211958268	-0.496421
C	-0.0348226369	 0.0330917551	 0.1669534431	 0.315648
O	 1.1807830535	-0.7641187793	 0.0903325258	-0.346767
C	 0.4692183068	-0.7128607035	 1.3446675219	 0.303862
C	 1.278108502	-0.1558429403	 2.485272678	-0.1526
O	 2.3082886776	-1.0579612644	 2.8630040109	-0.418612
C	-0.4368505986	-1.9254694471	 1.5607365844	-0.324521
C	-1.433182727	-1.8195878857	 0.4274958706	-0.085654
C	-1.2280184849	-0.7352751395	-0.3218023233	-0.122355
H	 1.0116085483	 1.9113988149	 0.3351728554	 0.132219
H	 0.173035119	 1.6691124986	-1.2020135041	 0.130858
H	-0.7590716446	 2.0551169183	 0.2519404071	 0.127542
H	 1.6891289652	 0.8260302894	 2.2122866408	 0.090114
H	 0.6478962131	-0.0239705464	 3.3711974151	 0.10816
H	 2.8348044585	-1.2154935201	 2.070598672	 0.293487
H	 0.1327411157	-2.8611093772	 1.5320619113	 0.129794
H	-0.9261692495	-1.8844877824	 2.5427779456	 0.112256
H	-2.1950278252	-2.5705542369	 0.2512901871	 0.102501
H	-1.8045314971	-0.4353686834	-1.188825165	 0.100489
61.7295	144.9839	176.2045	218.2753	273.8984	293.0947	339.4879	424.9035	436.1447	476.6634	528.7927	604.7007	698.374	723.5905	751.7648	812.5834	886.5651	901.1546	944.2758	952.789	953.9797	1007.2971	1041.6294	1068.4481	1096.8646	1149.1508	1158.5105	1200.0796	1227.3782	1257.631	1323.5326	1368.5178	1372.3739	1409.8175	1425.7661	1448.2738	1460.7093	1485.6421	1490.7214	1499.7616	1668.8849	3007.1305	3028.0905	3037.7992	3070.7402	3076.553	3097.4601	3132.3039	3188.8482	3214.0134	3796.6965
CC12OC1(CO)CC=C2	C[C@@]12O[C@]1(CO)CC=C2	
InChI=1S/C7H10O2/c1-6-3-2-4-7(6,5-8)9-6/h2-3,8H,4-5H2,1H3	InChI=1S/C7H10O2/c1-6-3-2-4-7(6,5-8)9-6/h2-3,8H,4-5H2,1H3/t6-,7-/m0/s1
