21
gdb 116212	2.43585	1.44181	1.02978	1.2767	78.4	-0.2465	0.0876	0.3341	1230.8167	0.182211	-424.215167	-424.206196	-424.205252	-424.249215	33.777	
C	 0.171005119	 1.6137890348	 0.0714522563	-0.388111
C	 0.0561045877	 0.0891100451	-0.0090553996	-0.189432
C	 0.5864352011	-0.467134439	-1.3255707533	 0.062209
O	 1.9853532516	-0.1689415476	-1.4738295597	-0.281943
C	 2.660795261	-1.3785874951	-1.7546675566	 0.014827
O	 1.7027868501	-2.2859393032	-2.241487563	-0.273093
C	 0.5425223122	-1.9840162462	-1.5012371407	 0.405833
C	 0.0856513926	-2.9722113387	-0.4584802614	-0.335554
C	-0.6685611431	-2.8017556752	-1.7689285944	-0.338503
H	 1.2130843065	 1.9243260831	-0.0400662893	 0.137533
H	-0.4101244475	 2.0967565962	-0.721964443	 0.113808
H	-0.1988151988	 1.9862066465	 1.0312783533	 0.110182
H	 0.6083634056	-0.374581131	 0.8161570111	 0.103433
H	-0.994735367	-0.211588598	 0.0989108791	 0.094989
H	 0.0563949359	 0.0119905424	-2.1629814841	 0.08014
H	 3.4154393895	-1.2138135516	-2.5304230109	 0.114014
H	 3.1371827328	-1.7671587405	-0.8371273816	 0.083528
H	 0.6865887238	-3.8676343195	-0.3466726953	 0.122753
H	-0.3771738135	-2.6135507703	 0.4537448937	 0.11689
H	-1.6342440871	-2.306937226	-1.7462921834	 0.117613
H	-0.5772228324	-3.5866723164	-2.5111327971	 0.128883
55.5563	110.2651	169.1959	175.0561	228.3934	259.311	295.0034	423.6661	433.8851	480.6254	552.4458	741.4089	749.9828	768.2948	799.9035	870.7148	907.7732	928.967	956.4874	970.7701	995.8393	1028.9407	1052.2887	1080.0805	1088.7585	1101.1086	1129.0713	1149.636	1175.0289	1190.1591	1224.7102	1255.5139	1294.1704	1312.7192	1352.4027	1369.9365	1407.2912	1411.2457	1433.2266	1449.3578	1477.6405	1498.0956	1499.3241	1509.3792	1546.041	2943.1644	2981.6075	3019.6211	3037.7615	3067.9124	3073.2518	3104.1675	3124.4598	3132.2911	3137.9873	3217.5738	3231.9982
CCC1OCOC11CC1	CC[C@H]1OCOC21CC2	
InChI=1S/C7H12O2/c1-2-6-7(3-4-7)9-5-8-6/h6H,2-5H2,1H3	InChI=1S/C7H12O2/c1-2-6-7(3-4-7)9-5-8-6/h6H,2-5H2,1H3/t6-/m1/s1
