15
gdb 46867	2.54483	1.79985	1.15883	4.2681	66.79	-0.2403	-0.0879	0.1524	1007.6067	0.112377	-457.763801	-457.756334	-457.75539	-457.796419	27.996	
O	-0.0741876023	 0.0722123926	-0.6213855612	-0.264173
C	-0.0608811468	 1.1817550327	-0.1612851751	 0.300686
C	-1.3175551547	 2.0085972134	 0.1060770392	-0.195729
O	-1.1913629949	 2.661436712	 1.3606441555	-0.25305
C	-0.187401191	 3.6336874875	 1.4034884487	 0.088731
C	 0.9241076143	 3.3266306244	 2.3435189982	-0.300286
C	 1.1581884798	 3.2428735055	 0.8306145314	-0.17378
C	 1.2782094234	 1.9214067049	 0.1459693003	 0.295984
O	 2.3161417883	 1.4819833251	-0.2828337676	-0.283711
H	-1.4742946344	 2.7257671188	-0.7153123905	 0.121662
H	-2.1853394319	 1.3486252897	 0.1636672526	 0.14707
H	-0.5380793521	 4.6557380922	 1.2729494904	 0.108668
H	 1.4302106057	 4.1339601988	 2.8590521342	 0.13585
H	 0.8387752131	 2.399401408	 2.8976971892	 0.144977
H	 1.8044673235	 4.0102706345	 0.4176283546	 0.127101
42.3597	162.0377	204.4755	326.6462	357.9836	399.192	446.8186	497.7026	530.7257	628.8521	707.8558	769.6783	791.4118	827.1331	933.0078	942.1726	997.9712	1048.1197	1050.9027	1063.6084	1113.846	1132.4778	1167.9698	1220.2302	1221.5208	1268.1418	1345.776	1357.0135	1386.3985	1470.366	1478.4678	1801.1836	1840.0863	2985.5356	3121.1405	3125.1358	3148.8823	3171.4723	3243.5926
O=C1COC2CC2C1=O	O=C1CO[C@H]2C[C@H]2C1=O	
InChI=1S/C6H6O3/c7-4-2-9-5-1-3(5)6(4)8/h3,5H,1-2H2	InChI=1S/C6H6O3/c7-4-2-9-5-1-3(5)6(4)8/h3,5H,1-2H2/t3-,5+/m1/s1
