14
gdb 20734	3.40496	2.00546	1.27584	2.1757	59.85	-0.205	0.0416	0.2466	896.375	0.107026	-415.873046	-415.864994	-415.86405	-415.905176	29.059	
C	-0.0608109257	 1.4892367238	-0.0427602615	-0.498031
C	-0.0125353539	-0.0025547929	 0.0236317422	 0.275978
N	-0.053695147	-0.7456018859	-1.0802371859	-0.303338
N	 0.0043320883	-2.0335819071	-0.6390418241	-0.267358
C	 0.0926615627	-2.1136309806	 0.704412812	 0.3969
O	 0.1521173039	-3.3005053018	 1.3407012853	-0.43583
C	 0.0880119042	-0.8186232314	 1.1774186656	 0.003641
O	 0.0906891385	-0.4928122783	 2.5172044611	-0.455588
H	 0.8707240243	 1.9447587064	 0.3152761787	 0.117334
H	-0.2169728097	 1.8063271039	-1.0758633093	 0.143969
H	-0.8734333713	 1.8882633158	 0.5740295228	 0.132276
H	-0.0305679429	-2.7930048299	-1.2960948415	 0.276967
H	 0.173165191	-3.1073264114	 2.2865935771	 0.313373
H	 0.8732178577	 0.0344206394	 2.7106747875	 0.299708
103.7286	168.7142	213.0686	230.0383	265.4595	308.7695	348.1057	377.0805	437.2373	537.1116	583.0578	679.5429	701.6953	740.4649	796.1756	992.1285	1064.0863	1067.4245	1140.2343	1184.695	1228.1252	1299.3011	1389.9559	1407.3234	1431.4837	1481.7636	1490.9119	1524.3525	1597.0475	1676.0796	3026.6609	3078.2888	3133.0056	3687.6496	3793.2556	3794.8714
CC1=NNC(O)=C1O	Cc1n[nH]c(O)c1O	
InChI=1S/C4H6N2O2/c1-2-3(7)4(8)6-5-2/h7H,1H3,(H2,5,6,8)	InChI=1S/C4H6N2O2/c1-2-3(7)4(8)6-5-2/h7H,1H3,(H2,5,6,8)
