17
gdb 19661	4.5535	2.0818	1.87745	1.159	66.87	-0.2146	0.0754	0.2899	765.7186	0.14409	-363.79162	-363.785572	-363.784628	-363.821392	25.046	
C	 0.0012805692	 1.4779689081	-0.1555372266	-0.327505
N	 0.000565111	 0.0238796456	-0.0311738658	-0.099802
C	-1.2301717381	-0.5324896139	 0.6351110893	-0.063174
C	-0.9413257647	-2.0353257726	 0.4851761645	-0.202164
C	 0.2887846847	-1.958617692	 1.4124476885	 0.052734
O	-0.3405976575	-1.6109059832	 2.6835074433	-0.29395
C	-0.5545794277	-0.3307648865	 2.08920286	 0.092647
C	 0.692608976	-0.4393323522	 1.191665678	-0.042749
H	 0.9980468421	 1.8128855796	-0.4611211204	 0.121084
H	-0.7045559796	 1.7707266166	-0.9392386906	 0.121218
H	-0.2692285201	 2.0226845306	 0.7663727804	 0.095926
H	-2.1948183812	-0.1240168143	 0.3387954311	 0.072733
H	-1.6956521233	-2.6998241061	 0.9099287662	 0.106018
H	-0.7240166235	-2.2905603552	-0.5525290689	 0.109984
H	 0.9963883899	-2.7824508714	 1.4793256328	 0.085383
H	-0.8576825468	 0.4594603383	 2.77296891	 0.091059
H	 1.7007333396	-0.0964561215	 1.4207288283	 0.080557
211.9299	239.9014	301.5599	428.1538	503.1707	530.1094	686.35	725.7586	776.9078	802.2657	840.3642	854.9971	924.6819	937.1033	938.4063	956.4734	988.0566	1007.9685	1031.4004	1096.2656	1117.0863	1147.1819	1158.097	1173.861	1183.3178	1192.8416	1220.9981	1235.3793	1274.3556	1296.7761	1313.1549	1341.7657	1455.1767	1462.9928	1494.8054	1501.765	2948.9466	3060.7188	3083.4074	3100.6159	3127.8709	3134.2249	3142.4483	3148.1784	3150.2876
CN1C2CC3OC2C13	CN1[C@H]2C[C@@H]3O[C@H]2[C@H]13	
InChI=1S/C6H9NO/c1-7-3-2-4-5(7)6(3)8-4/h3-6H,2H2,1H3	InChI=1S/C6H9NO/c1-7-3-2-4-5(7)6(3)8-4/h3-6H,2H2,1H3/t3-,4-,5+,6+/m0/s1
