21
gdb 91428	2.89421	1.49573	1.19517	1.8218	82.94	-0.2325	0.0047	0.2372	1119.2787	0.184747	-387.082923	-387.075117	-387.074173	-387.114905	31.754	
C	 0.3183442146	 1.6063452596	 0.0260573857	-0.404674
C	 0.0231353469	 0.096582276	 0.0038224932	-0.036369
C	 0.4990690294	-0.5019796496	-1.3436834694	-0.199178
C	 0.5725769937	-2.0243646781	-1.4510707697	 0.09133
C	-0.3864467909	-2.8352320865	-0.5534550432	-0.281262
C	 0.8322891852	-2.8923862257	 0.39953173	 0.061092
O	 1.7108165221	-2.5288983286	-0.7064643278	-0.289652
C	 0.8448930801	-1.8405244134	 1.4766885624	-0.081377
C	 0.5320217566	-0.5589243076	 1.274763137	-0.029581
H	 1.3981933012	 1.7913018981	 0.0338188747	 0.123715
H	-0.100659548	 2.1014364419	-0.8556175546	 0.111608
H	-0.1104216643	 2.0816311119	 0.9141933254	 0.111957
H	-1.073488127	-0.0087482563	 0.0310978837	 0.092473
H	-0.1577224923	-0.1141151429	-2.1334371443	 0.090952
H	 1.5076566112	-0.1315167532	-1.5663533022	 0.112014
H	 0.6302354303	-2.324675705	-2.5034376121	 0.072433
H	-1.296306424	-2.3555570202	-0.190872527	 0.105548
H	-0.6255464018	-3.8117178163	-0.9782076589	 0.106319
H	 1.0955219636	-3.8755081631	 0.8003019023	 0.071405
H	 1.1513307035	-2.1548994409	 2.4711355672	 0.084905
H	 0.5916721199	 0.1150373297	 2.1283925976	 0.086343
93.2591	219.9816	263.0759	298.2021	316.7401	327.0731	386.7361	422.9993	567.1662	570.5593	678.7507	732.7468	787.5948	825.8931	847.5104	880.8316	909.5626	934.9242	951.223	981.7553	994.0959	1020.8112	1043.7365	1054.4512	1089.0829	1111.0986	1134.5333	1173.1385	1212.9311	1243.4517	1260.5079	1266.1405	1309.6257	1326.3177	1347.4076	1352.8965	1370.8577	1392.7131	1406.4054	1427.8164	1468.6476	1492.5961	1498.9891	1500.9324	1709.9734	2967.3455	3014.683	3030.3505	3041.3324	3060.7988	3061.6292	3081.4855	3100.1708	3103.6046	3128.148	3137.4766	3161.9374
CC1CC2CC(O2)C=C1	C[C@H]1C[C@@H]2C[C@@H](O2)C=C1	
InChI=1S/C8H12O/c1-6-2-3-7-5-8(4-6)9-7/h2-3,6-8H,4-5H2,1H3	InChI=1S/C8H12O/c1-6-2-3-7-5-8(4-6)9-7/h2-3,6-8H,4-5H2,1H3/t6-,7+,8-/m1/s1
