17
gdb 93190	2.88274	1.41509	0.98814	6.2776	72.34	-0.2548	-0.0349	0.2199	1169.9929	0.137083	-455.187425	-455.179081	-455.178137	-455.2207	31.108	
C	-0.2601355819	 1.4728418493	 0.035118441	-0.413307
C	 0.0204302986	-0.0267340643	-0.0370306924	 0.035462
C	 0.8538707224	-0.390350505	-1.2561243949	-0.082736
O	 1.1630089214	-1.7844694157	-1.272139198	-0.258717
C	 1.6913784495	-2.3402743107	-0.1391965267	 0.281573
N	 2.2067943981	-3.4922409082	-0.1369687372	-0.464241
C	 1.5854403188	-1.565302282	 1.1751482054	 0.356693
O	 2.1655349954	-1.9155267859	 2.1774094269	-0.337172
N	 0.7758439892	-0.4630633302	 1.1284653581	-0.344948
H	 0.6729877224	 2.0438548684	 0.0660569717	 0.135679
H	-0.8417036792	 1.7965773549	-0.8327270295	 0.133281
H	-0.8397875271	 1.7146020002	 0.9315146275	 0.131198
H	-0.9361912205	-0.5681722541	-0.1008325225	 0.101184
H	 0.3050736556	-0.1987484032	-2.1806097534	 0.127207
H	 1.7808842789	 0.1992569577	-1.2644795352	 0.118192
H	 2.1870391061	-3.8822566662	-1.0825519649	 0.228825
H	 0.6238191723	-0.0123474349	 2.0197940643	 0.251828
65.9149	97.1774	220.9411	237.1009	274.3987	353.9917	398.9938	419.5529	446.8303	520.7339	560.9059	591.2107	648.5104	752.5544	804.9696	889.9015	927.6559	948.5976	991.0269	1012.7736	1088.3108	1138.4315	1150.1938	1207.9474	1258.6221	1275.1522	1343.6965	1366.0287	1391.6023	1409.5755	1413.0568	1461.636	1495.7114	1500.3813	1501.52	1743.3899	1810.8858	2981.7908	3019.2371	3040.468	3111.3629	3112.6478	3122.1852	3460.8966	3604.106
CC1COC(=N)C(=O)N1	C[C@H]1CO[C]([NH])C(=O)N1	
InChI=1S/C5H8N2O2/c1-3-2-9-4(6)5(8)7-3/h3,6H,2H2,1H3,(H,7,8)	InChI=1S/C5H8N2O2/c1-3-2-9-4(6)5(8)7-3/h3,6H,2H2,1H3,(H,7,8)/t3-/m0/s1
