18
gdb 107452	2.83441	1.44244	1.26557	2.6333	70.98	-0.2353	0.0573	0.2927	1059.7035	0.148221	-439.033451	-439.025573	-439.024629	-439.065917	30.59	
O	 0.1562667231	 1.3239629241	 0.4537215968	-0.422193
C	-0.0369179888	 0.0896146177	-0.2249815669	-0.198719
C	-1.4736920752	-0.3161963734	-0.0423499143	 0.458439
O	-1.9434170064	-1.3353949261	-0.9260289571	-0.288494
C	-2.5639741307	-0.045487515	-0.9998653892	-0.029577
C	-3.8890211049	 0.0754859267	-0.2537743048	-0.24756
C	-3.5419380158	-0.1396016632	 1.2218500234	-0.036607
N	-3.0269013125	-1.4807103539	 1.5557160492	-0.320982
C	-2.0774817522	-0.3657918718	 1.3517840894	-0.133205
H	 1.0988534299	 1.5126605719	 0.4689736831	 0.292837
H	 0.1768867189	 0.1690407919	-1.3007954082	 0.100046
H	 0.6147765301	-0.698064596	 0.1853192657	 0.09866
H	-2.4140305156	 0.4832828192	-1.9394915935	 0.091056
H	-4.2940406821	 1.0835701243	-0.3969021013	 0.105008
H	-4.6293790609	-0.6432506381	-0.6182682989	 0.123356
H	-4.1062433155	 0.4015740283	 1.9751651565	 0.08724
H	-3.1382241044	-1.6317919277	 2.5564831923	 0.228387
H	-1.493514907	 0.018443761	 2.1792407278	 0.092308
77.985	150.0244	229.8673	257.5836	275.0443	343.0053	409.8091	465.5821	580.2922	592.1717	707.702	743.291	807.4623	851.8543	860.3623	894.7833	908.7754	941.1776	980.1717	998.137	1036.7621	1063.2745	1079.4464	1105.5398	1145.6863	1167.3681	1188.3031	1212.0289	1227.4338	1235.6247	1274.379	1304.7542	1324.5359	1371.8216	1422.3019	1435.6595	1462.107	1484.7731	1519.0031	2976.105	3015.4189	3047.5389	3094.3878	3128.3382	3153.1372	3191.1556	3484.5528	3834.977
OCC12OC1CC1NC21	OC[C@]12O[C@H]1C[C@H]1N[C@@H]21	
InChI=1S/C6H9NO2/c8-2-6-4(9-6)1-3-5(6)7-3/h3-5,7-8H,1-2H2	InChI=1S/C6H9NO2/c8-2-6-4(9-6)1-3-5(6)7-3/h3-5,7-8H,1-2H2/t3-,4+,5-,6+/m1/s1
