15
gdb 85510	2.2877	1.67241	1.18383	6.3664	61.71	-0.2767	-0.0545	0.2222	1042.5787	0.111395	-494.955564	-494.94742	-494.946476	-494.989087	28.83	
C	-0.1738294637	 1.57472021	-0.0195059436	-0.427641
C	 0.0881904214	 0.0797941676	-0.0310917092	 0.093098
O	 1.0848791732	-0.2337945805	-1.0131825367	-0.25174
C	 1.8714262134	-1.2521124848	-0.5765501229	 0.50655
O	 2.6828176634	-1.8183884813	-1.2294897785	-0.360722
O	 1.5785232025	-1.5403456552	 0.7238641887	-0.229025
C	 0.7012018303	-0.5579583539	 1.2484708092	-0.020503
C	 1.4663707658	 0.4393926722	 2.1171715757	 0.14153
O	 2.6580643925	 0.5701968614	 2.091729024	-0.216619
H	 0.7405163121	 2.1342504641	 0.1950038747	 0.154242
H	-0.5462838996	 1.8890789292	-0.9971900518	 0.151358
H	-0.931157872	 1.8263485845	 0.7294847235	 0.131872
H	-0.8276373802	-0.4626118667	-0.2960713472	 0.112149
H	-0.0637939954	-1.0479681795	 1.8593344418	 0.123265
H	 0.8161634963	 1.052786603	 2.7803997222	 0.092185
67.5198	89.8319	130.0685	246.0427	264.9645	289.8994	322.3759	475.4978	543.6866	631.5868	687.861	765.3333	774.9294	830.0419	901.7569	926.3343	976.0796	1000.8541	1082.6891	1122.1212	1129.4072	1152.4249	1176.7125	1280.3508	1351.8416	1374.9149	1396.0882	1416.8313	1419.4973	1484.725	1503.4448	1848.8271	1942.6927	2883.5817	3030.2187	3048.7025	3068.6238	3123.6439	3134.6482
CC1OC(=O)OC1C=O	C[C@H]1OC(=O)O[C@H]1C=O	
InChI=1S/C5H6O4/c1-3-4(2-6)9-5(7)8-3/h2-4H,1H3	InChI=1S/C5H6O4/c1-3-4(2-6)9-5(7)8-3/h2-4H,1H3/t3-,4+/m1/s1
