16
gdb 29966	3.79458	1.02593	0.81578	4.6286	75.28	-0.2336	0.018	0.2516	1345.3118	0.125655	-396.98568	-396.977151	-396.976207	-397.020154	29.837	
C	-0.4840107881	 1.3213190046	 0.1158386875	-0.340991
N	-0.0778354201	-0.0655509469	-0.0012991543	 0.009543
C	 0.8453387548	-0.5774877798	-0.8626048759	 0.000851
N	 0.9904902624	-1.8763105993	-0.7257376254	-0.328778
C	 0.1175669746	-2.2278719421	 0.2753339221	 0.271153
C	 0.0087093324	-3.6632729697	 0.7113668699	-0.449091
C	-0.9652657199	-3.858151732	 1.7836404913	 0.273372
N	-1.7384743122	-3.9954254602	 2.6310063441	-0.319861
C	-0.553729093	-1.1262100021	 0.7385484443	-0.187022
H	-0.2817736669	 1.7025237086	 1.1210758711	 0.150869
H	 0.0807574694	 1.9169807376	-0.6035575746	 0.148631
H	-1.5511005889	 1.4342962738	-0.0972114277	 0.150821
H	 1.3765437678	 0.0495068844	-1.5640427096	 0.131565
H	-0.2724422669	-4.2962811231	-0.1392234866	 0.168452
H	 0.9849669256	-4.0300453962	 1.0514363972	 0.168445
H	-1.3029290709	-1.0031732976	 1.5028570766	 0.15204
41.3801	83.169	104.9023	162.1675	275.9909	284.6554	383.5539	400.639	481.3087	632.8193	653.0718	679.0855	747.4052	769.0973	825.5353	951.9847	957.9528	1005.1246	1062.7703	1082.6017	1152.1664	1184.9326	1211.8739	1233.3421	1277.228	1359.3728	1392.3872	1418.883	1457.8398	1460.5895	1482.9018	1518.3803	1541.7026	1599.1344	2366.4947	3035.2036	3044.3704	3063.6549	3107.6658	3140.5284	3245.1531	3277.229
CN1C=NC(CC#N)=C1	Cn1cnc(CC#N)c1	
InChI=1S/C6H7N3/c1-9-4-6(2-3-7)8-5-9/h4-5H,2H2,1H3	InChI=1S/C6H7N3/c1-9-4-6(2-3-7)8-5-9/h4-5H,2H2,1H3
