18
gdb 10560	2.84342	1.45961	1.09283	2.0923	69.07	-0.2576	-0.037	0.2206	1129.77	0.151271	-384.93536	-384.926488	-384.925544	-384.969281	31.411	
C	-0.0111951025	 1.5221483232	-0.0389622169	-0.383472
C	 0.214832843	 0.009750036	 0.0168172703	-0.170462
C	 0.4268703062	-0.6036877275	-1.3756548195	-0.272931
C	 0.6886493778	-2.0904855723	-1.3289239974	 0.30664
C	 1.7542068645	-2.7269061216	-2.139450011	-0.223177
O	 1.9355739644	-2.5250350948	-0.7495778344	-0.263094
C	-0.44827423	-2.9970550069	-0.9598383461	 0.127194
O	-1.6051227514	-2.6630187572	-0.9341577214	-0.256489
H	 0.8453841003	 2.0365240884	-0.4891501846	 0.112974
H	-0.896737491	 1.7691045827	-0.6348854046	 0.117989
H	-0.1585101965	 1.9366999037	 0.9628587854	 0.115229
H	 1.090508284	-0.2145333163	 0.637055163	 0.111059
H	-0.6443038887	-0.4739490763	 0.4942260063	 0.118072
H	-0.4625823387	-0.436338829	-1.9940846212	 0.120522
H	 1.2691850914	-0.1103894079	-1.8735851758	 0.100173
H	 1.6622635076	-3.76547016	-2.4568063643	 0.122631
H	 2.3390296227	-2.0861349511	-2.797606805	 0.128898
H	-0.1190847931	-4.0299264131	-0.707207793	 0.088244
75.5149	84.5551	134.4039	160.9149	234.6662	248.4698	318.1814	357.7945	395.3894	479.8767	548.4689	739.7596	788.958	849.8722	877.2636	889.2354	903.4315	972.69	1035.7249	1053.3719	1106.1377	1121.5155	1139.1783	1163.4609	1250.458	1300.0539	1312.7665	1343.1584	1353.0283	1394.9124	1413.1276	1430.454	1467.2664	1494.3074	1500.2035	1508.9388	1520.6192	1825.1738	2889.7116	3029.5401	3033.6281	3043.2623	3067.1959	3080.227	3085.1131	3102.9502	3105.2285	3170.2433
CCCC1(CO1)C=O	CCC[C@]1(CO1)C=O	
InChI=1S/C6H10O2/c1-2-3-6(4-7)5-8-6/h4H,2-3,5H2,1H3	InChI=1S/C6H10O2/c1-2-3-6(4-7)5-8-6/h4H,2-3,5H2,1H3/t6-/m1/s1
