19
gdb 38990	2.99118	1.68604	1.23728	1.3033	74.83	-0.2308	0.0741	0.3049	1023.3521	0.161404	-422.98602	-422.978913	-422.977969	-423.017332	28.989	
C	 0.0439887771	 1.4819196349	 0.0844970314	-0.372255
C	 1.3299080001	 0.7130243275	 0.0048319401	 0.054446
O	 1.6612049022	 0.1401188322	 1.2722350985	-0.304126
C	 0.4626907857	-0.6911523235	 1.2165331038	 0.068883
C	 0.7888338293	-2.1676159932	 0.9816277166	-0.224998
C	-0.2445441738	-2.7879111936	 0.0323935363	-0.086311
O	-0.2427693101	-2.1323354184	-1.2259293177	-0.237982
C	-0.7150147999	-0.7963787428	-1.1389090772	-0.199187
C	 0.0091446925	-0.0192336294	-0.0803423147	 0.269347
H	-0.2462817387	 1.9501885451	 1.0216653788	 0.113764
H	-0.2181961353	 2.0404371347	-0.8104136517	 0.114113
H	 2.13194552	 0.891510149	-0.7023371369	 0.106597
H	-0.1671553914	-0.5416233289	 2.1024995817	 0.077551
H	 1.7738317239	-2.2292249277	 0.5094474107	 0.12129
H	 0.8315715813	-2.7222235799	 1.9248183992	 0.099152
H	-0.0044868663	-3.835466725	-0.1689372552	 0.112755
H	-1.254209807	-2.755285694	 0.4784359197	 0.086333
H	-0.5820884605	-0.3505284739	-2.12986706	 0.110466
H	-1.7981189891	-0.800518093	-0.9189289535	 0.090163
144.3161	167.4861	294.5913	359.3228	367.4135	450.8694	455.9591	479.5393	561.1346	687.6479	780.8813	797.9351	875.4055	882.9418	898.8563	936.4907	981.4898	994.4094	1004.8515	1026.8315	1039.7705	1050.2552	1085.83	1102.1008	1111.0939	1134.1914	1205.7403	1230.1746	1240.9732	1293.5721	1300.8405	1309.8917	1346.4205	1364.9912	1383.2381	1404.3022	1425.4726	1477.957	1484.7397	1491.0332	1500.3011	2939.6738	2955.4531	3025.6049	3050.0268	3072.0548	3089.4791	3103.3349	3106.0923	3178.5074	3196.6983
C1C2OC3CCOCC123	C1[C@H]2O[C@@H]3CCOC[C@]123	
InChI=1S/C7H10O2/c1-2-8-4-7-3-6(7)9-5(1)7/h5-6H,1-4H2	InChI=1S/C7H10O2/c1-2-8-4-7-3-6(7)9-5(1)7/h5-6H,1-4H2/t5-,6-,7+/m1/s1
