18
gdb 103587	2.90136	1.31255	1.17032	3.1606	76.67	-0.255	-0.0379	0.2171	1138.155	0.146502	-439.103493	-439.094696	-439.093752	-439.136918	32.938	
C	-0.1388683898	 1.3788240252	 0.0558557642	-0.255915
O	 0.0167277359	-0.03490321	 0.0588894738	-0.263863
C	 0.7275925605	-0.5806832574	 1.135492585	 0.40229
C	 2.1665913848	-0.0736320984	 1.2365999537	-0.44427
O	 0.0644831855	-0.2814260644	 2.3799055672	-0.243445
C	-0.4479387385	-1.4203125975	 2.9347060469	 0.373158
N	-1.0954718016	-1.3589510488	 4.0210021424	-0.521639
C	-0.0753200655	-2.5520503351	 2.059794856	-0.193345
C	 0.6069669244	-2.0847313847	 1.0198820322	-0.113861
H	 0.804238555	 1.8986708514	-0.1562388018	 0.111845
H	-0.8475281569	 1.6023404142	-0.744038008	 0.132162
H	-0.5446452226	 1.7351990633	 1.0081508073	 0.141634
H	 2.184518362	 0.9884678418	 1.4901446097	 0.138878
H	 2.6977758449	-0.6177600875	 2.0206552268	 0.13421
H	 2.6828321345	-0.222579956	 0.2842486151	 0.127306
H	-1.3878882831	-2.2930055687	 4.3031282295	 0.222342
H	-0.3486418021	-3.5758344704	 2.2753007554	 0.123542
H	 1.0135903926	-2.6284864271	 0.1783005346	 0.128972
85.4316	110.2237	180.7142	191.5664	239.0857	299.1157	336.1843	367.5674	431.0043	498.6882	551.3435	629.259	699.9039	719.5824	797.866	837.2509	858.5671	911.9195	926.5636	959.9092	963.3565	1056.386	1071.5498	1083.1362	1155.9516	1164.371	1176.7173	1215.1496	1244.6174	1356.2969	1370.298	1403.1805	1470.798	1484.7557	1486.2335	1503.7676	1511.0795	1670.0531	1749.5293	3015.1357	3054.7419	3088.0069	3130.7914	3133.7815	3139.0122	3223.4061	3246.9426	3505.9784
COC1(C)OC(=N)C=C1	CO[C@@]1(C)OC(=C[CH]1)[NH]	
InChI=1S/C6H9NO2/c1-6(8-2)4-3-5(7)9-6/h3-4,7H,1-2H3	InChI=1S/C6H9NO2/c1-6(8-2)4-3-5(7)9-6/h3-4,7H,1-2H3/t6-/m0/s1
