17
gdb 34910	2.95135	1.6056	1.30314	2.0832	76.13	-0.2518	0.0544	0.3062	998.9177	0.136375	-384.625864	-384.61855	-384.617606	-384.657517	29.463	
C	-0.1478419202	-1.2601659053	-0.3893544845	-0.464946
C	-0.0676054066	-0.0800427835	-0.1770761437	 0.343522
C	 0.0310050642	 1.3522961064	 0.0790910108	-0.226367
C	-0.6194582705	 1.8245058072	 1.3978674019	-0.053949
C	-0.0630072679	 1.3659496877	 2.7162090475	-0.284941
C	 0.3738140741	 2.6954334401	 2.1448258277	-0.071352
C	 1.6553407298	 2.6846076178	 1.3422126618	 0.026097
O	 2.2640583623	 1.3890700708	 1.2111528525	-0.243987
C	 1.475789727	 1.8766417724	 0.1268086868	 0.028123
H	-0.2166480665	-2.3036557904	-0.5727685097	 0.194963
H	-0.4632730438	 1.8886315573	-0.7431874821	 0.107935
H	-1.6702846115	 2.0856619074	 1.3509850534	 0.095275
H	-0.7392369419	 1.3876409849	 3.5637346751	 0.109763
H	 0.6658456852	 0.5657687389	 2.7238908007	 0.147268
H	 0.0806112758	 3.6216573089	 2.6239993501	 0.088193
H	 2.3485726524	 3.5184254643	 1.4058140311	 0.099725
H	 2.0111444582	 2.031201425	-0.8071893794	 0.104676
105.033	132.1693	282.6339	306.1953	375.5077	501.4031	518.8086	551.8915	625.1408	631.0983	689.4943	738.0664	753.8263	798.1713	838.6528	865.6246	884.3615	933.1061	967.1122	1009.138	1037.2796	1055.0667	1075.348	1090.2095	1098.8478	1108.7327	1111.4899	1199.1732	1257.5525	1266.8229	1307.7387	1315.435	1350.4234	1383.5552	1421.6154	1479.5104	2238.1779	3010.2746	3138.5035	3144.4339	3157.5619	3172.7221	3187.2713	3241.4116	3505.1343
C#CC1C2CC2C2OC12	C#C[C@H]1[C@H]2C[C@H]2[C@H]2O[C@@H]12	
InChI=1S/C8H8O/c1-2-4-5-3-6(5)8-7(4)9-8/h1,4-8H,3H2	InChI=1S/C8H8O/c1-2-4-5-3-6(5)8-7(4)9-8/h1,4-8H,3H2/t4-,5+,6+,7-,8+/m0/s1
