17
gdb 87267	4.44719	0.81177	0.76742	1.7583	66.48	-0.253	0.0018	0.2547	1457.1994	0.13301	-496.091616	-496.08217	-496.081225	-496.126727	33.875	
O	-0.1894643096	 1.3154765506	-0.0403599434	-0.429753
C	-0.0297298552	-0.0561361584	 0.0915099137	 0.108079
C	-0.6369722823	-0.7934303702	 1.2683038113	-0.382561
C	-1.2370599177	-0.9354983818	-0.1149524394	 0.329773
O	-2.4055208004	-0.2050566832	-0.4000821522	-0.47254
C	-1.1408403391	-2.2225794372	-0.886168617	-0.155373
O	-2.1772932017	-3.1278373802	-0.4765439369	-0.180839
C	-3.2777503658	-3.206465711	-1.2526561744	 0.164322
O	-4.2392357039	-3.8418864931	-0.9411508577	-0.27358
H	-1.1237360597	 1.460738143	-0.2468351099	 0.294915
H	 0.9321268989	-0.395836081	-0.2826582969	 0.106742
H	-0.1124233012	-1.6426260075	 1.6930958436	 0.125789
H	-1.1888535125	-0.1884676215	 1.9802111389	 0.123458
H	-3.0858383563	-0.4521837672	 0.2357594232	 0.305049
H	-1.2248097147	-2.0236345272	-1.9620920197	 0.123445
H	-0.1897842289	-2.7257990487	-0.6953763028	 0.126242
H	-3.1808886601	-2.6338709954	-2.1945925005	 0.086831
51.8284	56.0474	135.6437	185.5272	250.406	270.6237	315.811	325.9661	374.9979	417.3882	455.3199	480.3088	630.028	688.5625	728.4133	847.8231	914.9677	921.851	976.7516	1015.9067	1029.0512	1042.2125	1064.476	1098.2761	1140.1911	1179.6512	1232.8822	1265.7865	1326.5502	1344.878	1369.8175	1401.2092	1429.2909	1432.7954	1480.4162	1487.9788	1865.1823	2959.5357	3030.2946	3106.7739	3130.2071	3149.8994	3223.6949	3740.4923	3808.8003
OC1CC1(O)COC=O	O[C@H]1C[C@]1(O)COC=O	
InChI=1S/C5H8O4/c6-3-9-2-5(8)1-4(5)7/h3-4,7-8H,1-2H2	InChI=1S/C5H8O4/c6-3-9-2-5(8)1-4(5)7/h3-4,7-8H,1-2H2/t4-,5-/m0/s1
