14
gdb 123694	4.06815	1.58427	1.23677	3.753	66.38	-0.2613	-0.0188	0.2425	938.7596	0.103388	-436.656087	-436.65008	-436.649136	-436.686452	24.081	
C	-0.0523311471	 1.5469919018	-0.0040369904	-0.399191
C	 1.4463019437	 1.9002977925	-0.0327734276	 0.061352
O	 2.1661364914	 1.4669752554	 1.1185233113	-0.240622
C	 2.2837488751	 0.6746834933	-0.0799748034	-0.129546
C	 1.3183449912	-0.4497155476	-0.0584070715	 0.418925
N	 1.399169817	-1.74966966	-0.0874065661	-0.256025
O	 0.0643184909	-2.1693278667	-0.0030713603	-0.175868
C	-0.7504788459	-1.0897454774	 0.0741197816	-0.074133
C	-0.013770381	 0.0427644903	 0.0340949727	 0.146091
H	-0.537961229	 1.9982830725	 0.8672243443	 0.139768
H	-0.5543211115	 1.9319288733	-0.8987963235	 0.127389
H	 1.7726351126	 2.846112168	-0.4572542226	 0.108118
H	 3.2704183107	 0.6139455794	-0.5245846796	 0.11879
H	-1.803229048	-1.3159986047	 0.1389482452	 0.154951
165.7083	245.6795	363.67	435.8634	449.8501	595.0994	618.3648	708.9325	756.963	783.042	831.1198	850.9163	856.7144	890.4547	912.2812	960.0316	987.1854	1035.3214	1093.4074	1106.6498	1160.2212	1195.6408	1238.3499	1263.4826	1298.4151	1315.3499	1389.0815	1418.8523	1472.104	1566.7093	1675.5943	3045.4663	3085.4378	3152.4346	3190.5216	3267.3623
C1C2OC2C2=NOC=C12	C1[C@H]2O[C@H]2c2nocc12	
InChI=1S/C6H5NO2/c1-3-2-8-7-5(3)6-4(1)9-6/h2,4,6H,1H2	InChI=1S/C6H5NO2/c1-3-2-8-7-5(3)6-4(1)9-6/h2,4,6H,1H2/t4-,6-/m1/s1
