23
gdb 101795	3.14151	0.71072	0.60774	2.9946	83.71	-0.2393	-0.0043	0.235	1898.8204	0.201193	-425.448911	-425.437193	-425.436248	-425.487946	40.226	
C	-0.0461516463	 1.4329814667	-0.0747338395	-0.233267
O	-0.0456808631	 0.0444150299	 0.1541614669	-0.245767
C	-1.3124397504	-0.5919151653	 0.0053783152	 0.129796
C	-1.7081124368	-0.7399901551	-1.4662449772	-0.40319
C	-1.2073462235	-1.948571302	 0.7018415486	-0.180328
C	-0.8707431985	-1.8329951363	 2.1867879375	-0.305156
C	-0.7368497313	-3.1743817078	 2.8926242388	 0.375643
C	-0.3662616361	-3.1215668465	 4.36588938	-0.472276
O	-0.9132394508	-4.2252340102	 2.3185110589	-0.293512
H	 0.9524640595	 1.8010619975	 0.1752048887	 0.125204
H	-0.2570374603	 1.6925987432	-1.1222522929	 0.107257
H	-0.7824152496	 1.9502752059	 0.5611407684	 0.100502
H	-2.0755415571	 0.0191350266	 0.5211745883	 0.056655
H	-1.7945977117	 0.2300905623	-1.9637325049	 0.113778
H	-0.9609701584	-1.3351435211	-2.0007235252	 0.125246
H	-2.6765534328	-1.2427343971	-1.5517717983	 0.117067
H	-2.1491042915	-2.4919022942	 0.5754090419	 0.107153
H	-0.4390908598	-2.5464447055	 0.1997786271	 0.116969
H	 0.0607644945	-1.2696158376	 2.3201335489	 0.135394
H	-1.6354423688	-1.2487053535	 2.72023995	 0.110186
H	-1.094051516	-2.5230189183	 4.9250958095	 0.134019
H	-0.3278186618	-4.1316626634	 4.7753887695	 0.140231
H	 0.6077871907	-2.6359416682	 4.4941951497	 0.138398
20.9384	61.5292	71.2039	95.9283	122.5463	130.1129	198.0912	219.7332	251.4761	297.6749	312.2232	420.7396	476.2435	490.6815	507.5321	598.9945	733.7866	810.2917	844.1369	899.5529	918.0245	960.2045	996.2985	1046.4203	1108.6835	1118.3833	1131.3895	1166.5294	1175.4727	1181.9999	1195.9833	1244.2735	1292.5235	1313.738	1363.9535	1381.7626	1384.1662	1400.1434	1406.039	1451.7845	1465.8141	1473.2712	1477.0497	1478.0308	1484.3466	1493.6804	1504.8843	1513.1201	1809.1016	2935.5488	2974.446	3008.8829	3024.9393	3036.3734	3039.9642	3053.6245	3061.3344	3094.9651	3097.4545	3106.7544	3111.9486	3115.6064	3151.2303
COC(C)CCC(C)=O	CO[C@@H](C)CCC(=O)C	
InChI=1S/C7H14O2/c1-6(8)4-5-7(2)9-3/h7H,4-5H2,1-3H3	InChI=1S/C7H14O2/c1-6(8)4-5-7(2)9-3/h7H,4-5H2,1-3H3/t7-/m0/s1
