16
gdb 77110	3.35219	1.11936	0.93353	2.9415	70.68	-0.2747	0.0228	0.2975	1218.9563	0.123323	-437.861096	-437.852695	-437.85175	-437.894346	31.016	
O	 0.3067313583	 0.9394926146	-0.5587873013	-0.419722
C	-0.0725190891	-0.3379663627	-0.1492210181	 0.03528
C	-0.0420018341	-0.6781713393	 1.3947912374	-0.18457
C	-1.4437816856	-1.3561325994	 1.2311946477	-0.342636
C	-1.5751460374	-0.5923841095	-0.0881175729	 0.428376
C	-2.6289009936	 0.3187889871	-0.5312872897	-0.258345
O	-2.3821089391	-0.9415186592	-1.1832432795	-0.271962
C	 1.0622972761	-1.4731884775	 1.8916893187	 0.259491
N	 1.952674475	-2.1155353493	 2.2559949305	-0.323505
H	 1.2358256282	 0.9308858165	-0.8091947995	 0.301264
H	 0.4299274981	-1.1313697839	-0.7171118072	 0.107387
H	-0.1212017172	 0.2543067672	 1.9589189744	 0.13514
H	-1.3591107257	-2.4338114769	 1.0738365141	 0.141116
H	-2.1754647542	-1.1579564736	 2.0145518911	 0.131161
H	-3.560437125	 0.3762955698	 0.0294290136	 0.122141
H	-2.3612093046	 1.1995517662	-1.1099730295	 0.139384
69.4629	136.6421	203.8378	213.4647	264.8626	283.264	342.9476	399.7073	471.2599	518.7147	571.6836	592.3378	736.7517	839.0819	874.5067	895.1729	929.1124	951.0617	1047.4268	1062.2119	1094.8799	1128.9688	1143.6613	1159.9226	1184.9032	1203.7958	1226.8614	1246.9181	1268.2457	1350.2583	1424.7625	1458.3947	1490.2705	1536.6755	2351.5972	3031.4586	3081.6072	3090.8095	3094.0502	3143.9772	3191.0987	3826.0849
OC1C(CC11CO1)C#N	O[C@H]1[C@@H](C[C@]21CO2)C#N	
InChI=1S/C6H7NO2/c7-2-4-1-6(3-9-6)5(4)8/h4-5,8H,1,3H2	InChI=1S/C6H7NO2/c7-2-4-1-6(3-9-6)5(4)8/h4-5,8H,1,3H2/t4-,5-,6+/m0/s1
