25
gdb 122422	4.9321	0.59768	0.57003	0.7516	91.51	-0.2478	0.0908	0.3385	2091.3956	0.227543	-389.483952	-389.473235	-389.47229	-389.520788	38.838	
C	-0.1454853374	 1.486463261	 0.1542090367	-0.383815
C	 0.0823766785	-0.0063884558	-0.0148459196	-0.022236
O	 0.6721178981	-0.5099567415	 1.1645437653	-0.246339
C	 0.9271409032	-1.8977794273	 1.1175790514	-0.071873
C	 1.5406416469	-2.3250135962	 2.4333641077	 0.028062
C	 0.6542898856	-2.3175869169	 3.7084195526	-0.230693
C	 1.3242949625	-3.6528974417	 4.1410039037	 0.059894
C	 0.4742737122	-4.733972939	 4.7894420838	-0.406198
C	 1.7910842073	-3.839760716	 2.6680086652	-0.259427
H	 0.8026298057	 2.0009661648	 0.3349675182	 0.125286
H	-0.6040112855	 1.9079021402	-0.7454526332	 0.112279
H	-0.8061070756	 1.6792401267	 1.0043304644	 0.125571
H	-0.8725816256	-0.5228159269	-0.2146309355	 0.082016
H	 0.7370902302	-0.2018408862	-0.8819034037	 0.081976
H	-0.0108531083	-2.4544684267	 0.9394289183	 0.074601
H	 1.606327962	-2.1374645381	 0.2793425105	 0.079643
H	 2.4566451365	-1.7491602486	 2.6011919469	 0.075912
H	 0.7300184488	-1.4603038169	 4.3808382681	 0.097229
H	-0.4014988112	-2.4672320192	 3.4537966655	 0.091226
H	 2.1941088128	-3.4376983408	 4.7725938555	 0.069401
H	-0.4026847424	-4.965478952	 4.1737316216	 0.108204
H	 1.041278419	-5.662351903	 4.9237405469	 0.111523
H	 0.1138299334	-4.4196597599	 5.7756215357	 0.112815
H	 1.0780082035	-4.4533229265	 2.1042148591	 0.091655
H	 2.7971973397	-4.2283610631	 2.4902412249	 0.093287
44.1387	64.008	86.5157	116.1886	157.1565	224.3162	247.7469	271.0446	307.7119	335.1321	387.6477	444.4566	486.6989	615.9033	786.7561	810.3215	821.3123	892.9572	896.1271	902.8073	941.7457	952.8459	984.7567	1028.6172	1072.5925	1088.5053	1137.5009	1139.8233	1153.1687	1162.7638	1183.3071	1200.8994	1232.6744	1234.7243	1257.5451	1270.1683	1283.8515	1297.3238	1303.4244	1356.954	1376.321	1393.8659	1407.1231	1412.2416	1452.9091	1475.9454	1483.4426	1494.2622	1496.394	1499.349	1501.8776	1513.0502	1535.6574	2930.8407	2950.7216	2957.8847	2970.4845	3020.0518	3030.7052	3033.4656	3042.0962	3044.1426	3056.2104	3087.5092	3087.8233	3096.4506	3107.947	3118.2329	3120.5925
CCOCC1CC(C)C1	CCOC[C@H]1C[C@@H](C)C1	
InChI=1S/C8H16O/c1-3-9-6-8-4-7(2)5-8/h7-8H,3-6H2,1-2H3	InChI=1S/C8H16O/c1-3-9-6-8-4-7(2)5-8/h7-8H,3-6H2,1-2H3/t7-,8+
