19
gdb 109454	2.29031	1.49311	1.01256	2.114	77.28	-0.2263	-0.027	0.1993	1211.1045	0.156973	-423.002525	-422.993394	-422.99245	-423.036849	33.475	
C	 0.2113861649	 1.4672572864	-0.1868909795	-0.24591
O	-0.2860029987	 0.1831315041	-0.5271852284	-0.244517
C	 0.630768376	-0.598833504	-1.2300984844	-0.025322
C	 1.7552737241	-1.3255535013	-0.4389724537	 0.375377
O	 2.4838171729	-0.9963018514	 0.4514982369	-0.296373
C	 1.4325225177	-2.6680619599	-1.1278068981	-0.437079
C	 0.1437989289	-1.999005108	-1.6379830663	 0.30536
C	-1.2543180239	-2.4841084091	-1.3966484	-0.300249
C	-0.7215404055	-2.3560567512	-2.8060054467	-0.334347
H	 1.0867898507	 1.3983473924	 0.4691923219	 0.140695
H	 0.4866092779	 2.0384916941	-1.0871592791	 0.105294
H	-0.5928517769	 1.9909791738	 0.3343865204	 0.129039
H	 1.0616830132	-0.0424045935	-2.0831690024	 0.081091
H	 2.1571689312	-2.9194584957	-1.9106791468	 0.130339
H	 1.3297617751	-3.5240703721	-0.4552944327	 0.134238
H	-1.3833071199	-3.4801480655	-0.9856900556	 0.114089
H	-1.9756387369	-1.7510083405	-1.0543440574	 0.135087
H	-1.1016630087	-1.548369432	-3.4237806192	 0.118264
H	-0.4901889921	-3.2654456065	-3.3513337789	 0.114926
58.0386	90.9721	153.9649	174.1483	232.1151	235.8996	305.0836	358.8281	415.1754	494.8341	514.4052	600.8217	727.5144	778.2135	798.2545	857.849	892.9576	946.3664	977.8061	1012.8649	1044.4312	1055.0033	1063.8023	1081.2856	1114.1053	1162.7438	1179.7752	1188.0319	1190.2277	1226.874	1239.2707	1256.2793	1365.2785	1384.7031	1444.9775	1463.3146	1478.9215	1485.8228	1504.4623	1512.8446	1888.7705	2930.5232	2985.7242	3044.6119	3065.6827	3102.2988	3123.937	3125.6926	3134.5278	3205.5211	3227.5086
COC1C(=O)CC11CC1	CO[C@H]1C(=O)CC21CC2	
InChI=1S/C7H10O2/c1-9-6-5(8)4-7(6)2-3-7/h6H,2-4H2,1H3	InChI=1S/C7H10O2/c1-9-6-5(8)4-7(6)2-3-7/h6H,2-4H2,1H3/t6-/m0/s1
