20
gdb 56215	3.58067	0.88024	0.82459	5.2852	75.4	-0.2452	0.0216	0.2668	1454.5932	0.171836	-440.302628	-440.293683	-440.292739	-440.337646	32.933	
O	-0.659575341	 0.1997941135	-0.705669739	-0.361702
C	-0.3405904506	 1.4495720603	-0.3365963463	 0.42797
O	 0.6040088515	 2.0497300025	-0.7704981127	-0.333409
C	-1.2862504088	 2.0193419909	 0.7347739735	-0.317845
N	-2.5131607213	 1.2258110062	 0.8499319454	-0.330208
H	-1.4792836374	-0.0015210271	-0.2001480827	 0.297631
H	-2.7529546012	 1.0801743879	 1.8240258174	 0.234255
C	-3.6698528986	 1.774482868	 0.1459511511	 0.074482
C	-3.7157090302	 1.6606231535	-1.4029681438	-0.226855
C	-5.2251180095	 1.313917331	-1.2791229369	-0.213847
C	-4.9774449805	 0.950932691	 0.2113352875	-0.249467
H	-0.7345318792	 1.9898366722	 1.6802298955	 0.139866
H	-1.4670776513	 3.0764790087	 0.5041300253	 0.133547
H	-3.8597922491	 2.8181724094	 0.4445504504	 0.072062
H	-3.4340736987	 2.5398812203	-1.985893559	 0.108382
H	-3.1305747618	 0.8058934823	-1.751166673	 0.118603
H	-5.8586442258	 2.1985441412	-1.3836490445	 0.109372
H	-5.6153522751	 0.5288511719	-1.9287253911	 0.10834
H	-4.7505660211	-0.1129616132	 0.3303727716	 0.108339
H	-5.7279093103	 1.2409485495	 0.9504820913	 0.100485
52.1479	53.0284	104.4952	151.0497	217.6723	307.6843	360.8968	450.3388	545.2585	548.8949	612.1609	660.1608	754.7098	763.0949	797.3895	865.1736	885.3833	900.534	931.2687	953.7039	957.3397	1002.5679	1043.8729	1108.6205	1141.1062	1164.0075	1199.7554	1212.4099	1246.531	1256.1438	1261.5971	1269.4205	1282.4907	1305.3982	1333.8822	1388.8173	1425.7249	1460.1063	1468.5488	1478.2188	1487.8289	1511.3702	1879.3698	2964.7872	3032.4636	3055.7578	3067.6363	3072.0541	3085.7354	3108.1105	3118.8977	3132.716	3454.7086	3534.313
[O-]C(=O)C[NH2+]C1CCC1	OC(=O)CNC1CCC1	
InChI=1S/C6H11NO2/c8-6(9)4-7-5-2-1-3-5/h5,7H,1-4H2,(H,8,9)	InChI=1S/C6H11NO2/c8-6(9)4-7-5-2-1-3-5/h5,7H,1-4H2,(H,8,9)
