21
gdb 83644	2.31337	1.69559	1.24123	1.8002	81.43	-0.2511	0.0689	0.32	1100.6984	0.182537	-387.045104	-387.036748	-387.035804	-387.07809	32.755	
C	-0.5467583775	 1.4278006204	-0.0908815407	-0.423262
C	-0.0363765264	-0.0040856281	-0.0261955594	-0.057302
C	 1.1050450729	-0.506845627	-0.9619430441	-0.043584
C	 2.3497332301	 0.4144656278	-1.1326863515	-0.23154
C	 3.1055439935	-0.3795420165	-0.0241516308	-0.222252
C	 1.8192728709	-1.1912824828	 0.2648517223	-0.12857
C	 0.8024760981	-0.4824805384	 1.1702811494	 0.445888
C	 1.009367916	 0.1286028199	 2.4865190556	-0.26865
O	 0.2304392474	-1.0655349555	 2.3289974391	-0.280764
H	 0.2599108685	 2.1570562366	 0.0324704304	 0.115907
H	-1.0353944215	 1.6281823497	-1.05053971	 0.117086
H	-1.2832365856	 1.6126192459	 0.6987182494	 0.122486
H	-0.8821597862	-0.6960647583	-0.1248234746	 0.088469
H	 0.7947211261	-1.0586244321	-1.8494707015	 0.065393
H	 2.8130295064	 0.3563342355	-2.1200537547	 0.103062
H	 2.1762196309	 1.4704707861	-0.9101431291	 0.099661
H	 3.9078215129	-1.0009271581	-0.4301390684	 0.102345
H	 3.511095276	 0.1978384345	 0.8117192636	 0.094913
H	 1.8917402741	-2.2707162321	 0.4047428852	 0.077492
H	 1.9610777992	 0.0003477162	 3.0016814165	 0.111857
H	 0.4467380342	 1.0173444064	 2.7705302336	 0.111365
57.3549	188.0109	199.5865	207.2811	247.0925	280.4079	397.9369	436.8898	533.3327	551.5134	657.6969	744.2455	775.038	806.614	841.1752	869.4801	883.433	939.5859	946.8351	959.3276	985.0044	1013.1314	1065.887	1105.1066	1114.0454	1121.1274	1138.9933	1148.0404	1159.1631	1179.0274	1213.6242	1232.0832	1244.9203	1268.9988	1279.2358	1297.0275	1319.9539	1363.7971	1405.901	1425.6838	1474.5878	1489.4626	1495.2314	1504.4074	1530.4727	3028.7379	3031.3891	3051.6222	3064.3626	3075.597	3091.3667	3094.81	3100.8704	3103.1244	3105.193	3119.2933	3160.1891
CC1C2CCC2C11CO1	C[C@H]1[C@H]2CC[C@H]2[C@]21CO2	
InChI=1S/C8H12O/c1-5-6-2-3-7(6)8(5)4-9-8/h5-7H,2-4H2,1H3	InChI=1S/C8H12O/c1-5-6-2-3-7(6)8(5)4-9-8/h5-7H,2-4H2,1H3/t5-,6+,7+,8+/m0/s1
