17
gdb 106587	2.7848	1.45657	1.28909	2.7957	67.94	-0.2405	-0.0007	0.2398	1033.1688	0.134949	-458.901372	-458.893152	-458.892208	-458.934127	31.54	
O	 0.0268191263	 1.3708611317	 0.1002215657	-0.416963
C	 0.0329707788	-0.0405127279	-0.0271460978	-0.186735
C	-1.3674060166	-0.5848328582	-0.0956934389	 0.312215
O	-2.1407102909	-0.3897744454	 1.1462464153	-0.330885
C	-3.0674278778	-1.3417280804	 0.5302942136	-0.050111
C	-3.5149114569	-0.5859340658	-0.7273146798	-0.074095
C	-2.3625546125	-0.0683295255	-1.1534493634	-0.102353
C	-1.7761335807	-2.0871708624	 0.0187100802	 0.072933
O	-1.7672849991	-2.8551490548	-1.1439052655	-0.422845
H	-0.5641623589	 1.5788725032	 0.8332629039	 0.295754
H	 0.5665089116	-0.2749276347	-0.9544380412	 0.120319
H	 0.571748762	-0.5215128036	 0.8036887464	 0.094214
H	-3.7972247408	-1.7704058125	 1.2158942579	 0.078198
H	-4.5109902471	-0.5348254843	-1.1406230749	 0.111847
H	-2.1257532001	 0.5455445221	-2.0088001383	 0.119753
H	-1.2553219344	-2.5738673183	 0.8517503637	 0.086453
H	-1.7929060029	-3.7844444833	-0.8989407669	 0.292302
81.1936	144.9091	185.6561	240.0863	275.5554	307.2723	394.2031	424.7951	575.4599	588.2675	607.1129	678.6927	726.951	784.1184	823.3794	831.6431	879.2815	904.6353	921.8664	955.7416	1005.294	1043.6782	1072.9077	1096.6161	1158.8778	1173.7377	1197.5826	1231.8017	1253.8536	1270.7619	1305.1505	1338.9503	1379.179	1431.1181	1445.6523	1496.5369	1620.1092	2989.0788	3045.516	3077.2076	3133.3075	3237.4344	3265.5107	3798.7628	3836.5227
OCC12OC(C=C1)C2O	OC[C@@]12O[C@@H](C=C1)[C@H]2O	
InChI=1S/C6H8O3/c7-3-6-2-1-4(9-6)5(6)8/h1-2,4-5,7-8H,3H2	InChI=1S/C6H8O3/c7-3-6-2-1-4(9-6)5(6)8/h1-2,4-5,7-8H,3H2/t4-,5+,6-/m0/s1
