14
gdb 64584	4.22494	1.25059	1.22829	2.3404	64.79	-0.2431	-0.0448	0.1983	1004.4606	0.100396	-473.813386	-473.806023	-473.805078	-473.845386	27.47	
O	-0.0867054376	 1.3881064774	 0.0503633735	-0.462315
C	-0.0488203723	 0.0134659951	 0.0374714683	 0.326295
C	 1.0210146004	-0.5654555658	-0.7930700636	 0.094755
O	 1.7567923786	 0.1398480099	-1.4492173259	-0.28935
C	-0.4699488877	-0.7390341482	 1.2875194351	-0.028503
O	-1.1864674338	 0.0494703833	 2.2137256138	-0.199037
C	-2.3325780355	 0.405093237	 1.5726226549	 0.129087
N	-2.5432682066	-0.0526048631	 0.4040342027	-0.24796
C	-1.3714100461	-0.8112228086	 0.0702469573	-0.126787
H	 0.5487760709	 1.6602585167	-0.6312474805	 0.303339
H	 1.1025714501	-1.671108992	-0.803175622	 0.094695
H	 0.1234528899	-1.518343337	 1.7491464487	 0.128369
H	-2.9846840851	 1.059784049	 2.1350066761	 0.159108
H	-1.4904998851	-1.6638277036	-0.5867193883	 0.118304
83.6386	175.2703	215.2789	278.5626	317.2596	384.2764	398.4509	510.9358	616.7836	684.6155	747.425	811.3912	826.6774	881.0575	902.0037	943.4449	1000.7501	1023.7901	1043.0768	1078.3163	1094.493	1107.6007	1141.0461	1270.0339	1307.092	1341.7976	1347.0314	1386.2461	1455.5564	1658.9415	1781.6396	2930.0722	3185.8384	3192.1763	3249.7138	3696.4854
OC1(C=O)C2OC=NC12	O[C@@]1(C=O)[C@H]2OC=N[C@@H]12	
InChI=1S/C5H5NO3/c7-1-5(8)3-4(5)9-2-6-3/h1-4,8H	InChI=1S/C5H5NO3/c7-1-5(8)3-4(5)9-2-6-3/h1-4,8H/t3-,4+,5-/m1/s1
