17
gdb 27158	3.04106	1.40221	1.04411	2.3777	76.91	-0.222	0.0073	0.2293	1149.9093	0.136584	-418.011839	-418.003747	-418.002802	-418.045147	29.697	
C	-0.2683188333	 1.5127144901	 0.1303942842	-0.495054
C	-0.0426946139	 0.0431184371	 0.0385165075	 0.180788
C	 0.1984957349	-0.7129834772	-1.0627810932	 0.313118
O	 0.3420031812	-2.0291814386	-0.6511189237	-0.18746
C	 0.1743987708	-1.9712367126	 0.6898706688	 0.062337
N	-0.0536474937	-0.7917198127	 1.1588243984	-0.305947
N	 0.3085496049	-0.3781056665	-2.4043212567	-0.190706
C	 1.2675029855	-1.1086318764	-3.2475668057	-0.226802
C	-0.1937553173	-1.3173275369	-3.4193775241	-0.226839
H	 0.4824185956	 1.9853227854	 0.7727702588	 0.134582
H	-0.2149516456	 1.9644574732	-0.8624336087	 0.137552
H	-1.2495565345	 1.7325594315	 0.5645406597	 0.13455
H	 0.2470800429	-2.9039844076	 1.2278785682	 0.144745
H	 1.8194636805	-0.4897542579	-3.9484453107	 0.127161
H	 1.834315059	-1.9092288222	-2.7819750841	 0.135438
H	-0.6078080441	-2.2579734397	-3.0689756083	 0.135352
H	-0.720844133	-0.8525289491	-4.2470381105	 0.127184
51.4776	142.469	168.3211	174.4596	259.9399	273.5345	438.9496	496.1262	585.4901	669.8539	692.5499	724.9859	821.5567	825.6693	846.379	908.3518	955.2118	975.7659	1038.953	1060.3023	1070.9016	1111.1134	1132.9622	1146.1911	1164.5436	1182.0815	1211.9422	1285.1254	1321.608	1381.2439	1422.4593	1481.0052	1484.9212	1488.6442	1510.4191	1561.825	1697.2186	3037.205	3090.2268	3117.5211	3120.9196	3133.2286	3204.2247	3219.0747	3266.3546
CC1=C(OC=N1)N1CC1	Cc1c(ocn1)N1CC1	
InChI=1S/C6H8N2O/c1-5-6(8-2-3-8)9-4-7-5/h4H,2-3H2,1H3	InChI=1S/C6H8N2O/c1-5-6(8-2-3-8)9-4-7-5/h4H,2-3H2,1H3
