17
gdb 58401	2.1775	1.18872	0.80038	4.3048	72.	-0.2869	-0.0029	0.284	1386.6443	0.133034	-455.14269	-455.132495	-455.131551	-455.178824	35.021	
C	 0.0836884943	 1.561275386	 0.0172103418	-0.42739
C	 0.0042419942	 0.0394047362	 0.0016420839	 0.115323
O	 0.7231866279	-0.562691828	 1.0588807615	-0.41678
C	-1.4659014939	-0.4493692052	 0.0389655789	-0.059719
O	-2.1177110081	 0.0742381702	-1.1116217178	-0.190432
C	-3.4693255693	-0.0617299605	-1.1753946751	 0.132241
N	-4.0913395338	 0.4684907046	-2.1309508492	-0.428598
C	-1.5397478804	-1.9217382651	 0.0723430405	 0.294472
N	-1.6391717805	-3.0723554085	 0.082677575	-0.312324
H	 1.13000473	 1.8732242796	-0.0279963902	 0.138007
H	-0.4535250523	 1.9906298159	-0.8306872028	 0.15851
H	-0.3567264019	 1.9639858224	 0.938880073	 0.109901
H	 0.448291722	-0.3484663362	-0.9208488539	 0.127838
H	 0.5424493767	-0.0747061822	 1.8701312921	 0.287808
H	-1.9402039989	-0.0654361803	 0.9547737281	 0.120133
H	-3.8919005383	-0.6515675424	-0.3528942169	 0.110727
H	-5.0880943076	 0.2776307836	-2.0525552991	 0.240284
58.1831	72.5881	80.5801	141.1868	154.9131	227.3325	265.6337	297.7147	318.2148	358.7435	412.8807	455.1816	522.6658	548.886	708.2916	823.6758	869.5051	912.5926	975.1722	1021.4739	1040.1786	1068.7778	1124.5187	1133.7456	1153.859	1247.6237	1284.0378	1319.3336	1346.8625	1379.725	1402.1725	1416.5791	1426.093	1490.2951	1496.4675	1753.2527	2361.8256	2998.0045	3026.1354	3050.0518	3072.2149	3109.8848	3144.7661	3523.0859	3800.3553
CC(O)C(OC=N)C#N	C[C@@H](O)[C@@H](O[CH][NH])C#N	
InChI=1S/C5H8N2O2/c1-4(8)5(2-6)9-3-7/h3-5,7-8H,1H3	InChI=1S/C5H8N2O2/c1-4(8)5(2-6)9-3-7/h3-5,7-8H,1H3/t4-,5+/m1/s1
