18
gdb 47231	2.38765	1.76742	1.21664	3.6491	77.6	-0.2342	-0.0021	0.232	1046.3127	0.150645	-401.969711	-401.962035	-401.961091	-402.00193	30.102	
O	 0.0265375378	-0.0944489444	-0.0059133989	-0.380659
C	 0.008233757	 1.126078851	 0.019002627	 0.384467
N	-1.1874065841	 1.7899111618	 0.0773734597	-0.316327
C	-1.5043594581	 3.2153453669	 0.1023686293	-0.235047
C	-0.8587465001	 4.0362776417	-0.9894577445	-0.086982
C	 0.4358941754	 4.026420785	-1.3088804146	-0.030534
C	 1.5229527992	 3.2415802991	-0.6789700165	-0.072482
C	 1.6402694118	 3.0837987207	 0.8202403882	-0.310135
C	 1.3061265803	 1.8770459089	-0.0209557249	-0.104002
H	-1.9644861483	 1.146835885	 0.0980936565	 0.246027
H	-2.5898252664	 3.2813897687	-0.0058308527	 0.119365
H	-1.284201541	 3.6478370199	 1.090000577	 0.123694
H	-1.5234261089	 4.6916710277	-1.5442280576	 0.097029
H	 0.7586027929	 4.6662213598	-2.1267506229	 0.094403
H	 2.4685222351	 3.3133445675	-1.2057600807	 0.098866
H	 2.6292472523	 3.1208296401	 1.2626013532	 0.125618
H	 0.8655419639	 3.5218941279	 1.4362898466	 0.128926
H	 2.1108677512	 1.1668584328	-0.1669856343	 0.117774
73.7822	177.2705	209.1037	286.5824	330.354	373.9249	453.0429	523.7254	552.0432	640.0332	695.6863	707.2176	760.1119	791.4106	817.0913	855.0375	907.9274	942.9506	979.2233	997.3629	1027.8437	1041.023	1065.7019	1138.3689	1148.0186	1157.4345	1214.8317	1268.9978	1286.9569	1340.9453	1371.834	1406.289	1422.4123	1437.365	1471.9216	1491.8799	1515.9581	1727.403	1762.4321	2983.0998	3087.0728	3145.2748	3149.681	3163.6278	3176.8345	3190.4056	3238.5438	3619.5448
O=C1NCC=CC2CC12	O=C1NCC=C[C@H]2C[C@@H]12	
InChI=1S/C7H9NO/c9-7-6-4-5(6)2-1-3-8-7/h1-2,5-6H,3-4H2,(H,8,9)	InChI=1S/C7H9NO/c9-7-6-4-5(6)2-1-3-8-7/h1-2,5-6H,3-4H2,(H,8,9)/t5-,6+/m0/s1
