17
gdb 50345	3.08438	1.51134	1.3527	2.23	66.52	-0.2533	-0.0329	0.2204	979.0395	0.137512	-458.974565	-458.967378	-458.966434	-459.006639	27.443	
O	-0.5770914582	 0.6537122688	 0.5920400588	-0.248275
C	 0.1640012903	 0.9817506603	-0.3013965619	 0.138618
C	 1.278053628	 1.9893555239	-0.1828143895	-0.083377
C	 1.2268900085	 3.157970371	-1.228070972	-0.277339
C	 1.3944301457	 4.356462785	-0.2680541307	 0.195567
O	 0.1562034824	 4.5887017095	 0.3902767586	-0.276126
C	 0.1012926144	 3.5758567299	 1.4162934108	-0.095504
C	 1.3931121661	 2.7865352652	 1.1396751947	 0.017179
O	 2.2611236404	 3.8630397876	 0.7355145127	-0.251971
H	 0.0744269165	 0.5201662146	-1.3115938724	 0.087514
H	 2.2078541636	 1.4263722797	-0.3356664096	 0.113221
H	 2.0429484694	 3.0990918059	-1.9513514471	 0.114744
H	 0.2790280703	 3.220800764	-1.7670181952	 0.121972
H	 1.7707036293	 5.2863775446	-0.693191541	 0.097799
H	 0.1301338777	 4.0515511327	 2.4027403899	 0.110024
H	-0.806311584	 2.9789621397	 1.3209730601	 0.135222
H	 1.8146262295	 2.2504121874	 1.9868571537	 0.100733
81.817	122.5556	199.7745	303.5072	362.8411	408.2596	535.6276	634.8263	695.2529	743.9777	808.1612	824.8198	871.6503	891.3916	940.1128	956.0313	977.956	978.9507	1037.8753	1051.3251	1072.5031	1097.4874	1101.4426	1172.5757	1193.8592	1229.0455	1260.6424	1292.2014	1307.554	1313.5787	1340.1599	1355.6588	1376.0894	1428.8072	1487.0458	1525.7881	1818.508	2869.3231	3029.8054	3044.6583	3071.675	3124.4775	3129.9708	3136.249	3154.8693
O=CC1CC2OCC1O2	O=C[C@H]1C[C@H]2OC[C@@H]1O2	
InChI=1S/C6H8O3/c7-2-4-1-6-8-3-5(4)9-6/h2,4-6H,1,3H2	InChI=1S/C6H8O3/c7-2-4-1-6-8-3-5(4)9-6/h2,4-6H,1,3H2/t4-,5+,6+/m1/s1
