19
gdb 89682	2.68659	1.27476	1.05731	3.0734	79.27	-0.2327	-0.016	0.2167	1200.1939	0.157506	-423.015865	-423.006873	-423.005929	-423.049332	34.045	
C	-0.1485608376	 1.5939017681	 0.053826907	-0.411788
C	 0.0893640092	 0.0883698648	 0.0289694216	-0.039784
C	 1.1771472436	-0.5137759896	-0.9272334617	-0.319797
C	 1.8321701518	-1.2509670986	 0.236701225	 0.183363
C	 2.2278532551	-0.2534242394	 1.3182372662	-0.374527
C	 0.7902078469	-0.5597093746	 1.2279728675	 0.361017
O	 0.1524822913	-1.0589972321	 2.3356288096	-0.44183
C	 2.2617085193	-2.6434062931	 0.2380120934	 0.044959
O	 2.2165781003	-3.3785704058	-0.7254897639	-0.282496
H	 0.7850455889	 2.1435925027	 0.2114688112	 0.119646
H	-0.5792843773	 1.9350626733	-0.893331551	 0.122422
H	-0.8400635351	 1.8705031787	 0.8565572729	 0.123695
H	-0.8611728327	-0.4312091057	-0.1454811912	 0.074694
H	 0.7753168596	-1.1922565358	-1.6804322137	 0.128958
H	 1.8154464998	 0.2275725938	-1.4193317979	 0.101625
H	 2.7120216527	-0.6958951761	 2.1843086693	 0.13433
H	 2.6378076972	 0.7073700499	 1.0143706273	 0.119299
H	-0.6291964499	-1.545217703	 2.0480537773	 0.2929
H	 2.619227817	-3.0128857876	 1.2269206412	 0.063314
92.0748	134.9233	169.4348	209.659	220.8314	278.54	338.3557	384.7801	424.2008	445.8596	482.7605	547.9189	655.8982	679.7935	761.1244	793.0476	845.5737	895.934	948.4018	965.7283	1023.2493	1037.4691	1080.2102	1094.6934	1114.8202	1138.564	1176.422	1219.0296	1238.2617	1249.6023	1302.9718	1372.4711	1379.0665	1406.5693	1422.4483	1442.8979	1488.2597	1494.5565	1496.1698	1509.4852	1781.0711	2861.2161	3025.0593	3033.1306	3049.8215	3101.6876	3102.261	3105.349	3129.8792	3196.4591	3789.3175
CC1CC2(CC12O)C=O	C[C@H]1C[C@]2(C[C@@]12O)C=O	
InChI=1S/C7H10O2/c1-5-2-6(4-8)3-7(5,6)9/h4-5,9H,2-3H2,1H3	InChI=1S/C7H10O2/c1-5-2-6(4-8)3-7(5,6)9/h4-5,9H,2-3H2,1H3/t5-,6-,7+/m0/s1
