13
gdb 5732	4.14064	2.20237	1.46647	5.5337	60.25	-0.2101	0.021	0.2312	791.026	0.0973	-398.61075	-398.604489	-398.603545	-398.641918	22.955	
O	-0.2148422334	-0.0854115514	 0.0069166569	-0.404506
C	-0.0962209111	 1.1039832379	 0.0997248534	 0.48048
O	-1.140001095	 2.0226173932	-0.0825866567	-0.230932
C	-0.6963035959	 3.3218137826	 0.1588621141	-0.183099
C	 0.6099814384	 3.2496982555	 0.433010383	 0.293217
C	 1.9881608341	 3.6736314171	 0.913533055	-0.375306
C	 2.3339990738	 2.1313158366	 0.8993227299	-0.167147
N	 0.9774340968	 1.9166321824	 0.3602299803	-0.133777
H	-1.4309967129	 4.103791459	 0.0955370376	 0.150802
H	 2.5672191255	 4.2709174408	 0.2069038736	 0.141987
H	 2.0205007514	 4.1446491608	 1.8971154442	 0.142673
H	 3.1318182173	 1.824375804	 0.2203748473	 0.141705
H	 2.4872216009	 1.6839689314	 1.8840581016	 0.143903
45.4169	179.9412	317.4265	332.5538	582.1986	598.5357	684.4038	697.7638	713.9242	739.3618	791.2687	837.0834	904.5875	947.8271	1056.2645	1060.6127	1083.4017	1144.7411	1190.4912	1228.8293	1239.5626	1289.156	1335.9431	1391.4719	1478.8399	1515.2034	1703.448	1893.3565	3072.186	3085.1254	3124.6666	3140.9604	3303.0218
O=C1OC=C2CCN12	O=c1occ2CCn12	
InChI=1S/C5H5NO2/c7-5-6-2-1-4(6)3-8-5/h3H,1-2H2	InChI=1S/C5H5NO2/c7-5-6-2-1-4(6)3-8-5/h3H,1-2H2
