24
gdb 100042	2.45336	1.19874	1.00107	2.5738	85.57	-0.2459	0.066	0.3119	1349.4265	0.215819	-405.537613	-405.52708	-405.526136	-405.572475	40.395	
C	 1.5614048672	 1.9569495226	-1.0941835567	-0.393835
C	 1.0329604922	 0.5415000343	-0.8410219763	-0.176039
C	 1.7879571985	-0.5681849941	-1.5944452697	 0.359496
C	 1.6894369491	-0.4038273374	-3.1232887898	-0.418239
O	 3.1569484305	-0.5009213735	-1.2082028773	-0.473244
C	 1.2104281511	-1.9416871447	-1.2266873333	-0.060958
N	 2.1971214958	-3.0333091429	-1.1669180852	-0.367507
C	 1.4341134296	-2.6807805195	 0.0482013289	 0.010418
C	 2.1950775296	-2.1771795317	 1.2531068889	-0.412175
H	 2.6308749496	 2.0100987604	-0.8752162922	 0.138143
H	 1.4119933338	 2.2717674458	-2.1314821672	 0.112271
H	 1.0444068321	 2.6794471339	-0.4550610966	 0.105424
H	 1.0979217584	 0.3194740151	 0.2294183825	 0.100807
H	-0.0298739325	 0.4823958323	-1.1088642614	 0.084759
H	 2.1976916114	 0.509042871	-3.4409634439	 0.124387
H	 2.1752395585	-1.2492327421	-3.6216854715	 0.111169
H	 0.6477295397	-0.3600891025	-3.4606948803	 0.102259
H	 3.4982422011	-1.400857934	-1.3319673857	 0.284615
H	 0.2668490036	-2.1545435153	-1.7280174713	 0.076234
H	 1.8538276362	-3.8850699295	-1.5988888672	 0.234132
H	 0.6287346832	-3.3706373577	 0.3028332997	 0.082525
H	 2.9481657197	-1.4427179228	 0.9686674366	 0.148303
H	 1.5059535289	-1.7102976722	 1.9654771583	 0.114501
H	 2.6860723331	-3.0120773358	 1.7653712508	 0.112554
80.2535	99.6237	155.9596	205.0478	224.3708	233.888	265.6689	287.1937	304.9893	364.0175	393.8039	397.0811	430.1518	546.7133	563.1748	636.4119	730.3896	784.36	792.9947	834.0396	893.9026	943.1966	960.1319	991.8787	1010.0961	1014.9441	1024.4773	1068.6623	1078.7616	1128.8096	1156.9293	1171.9833	1198.3948	1236.0168	1262.012	1279.1156	1319.7321	1349.8172	1384.0984	1399.4093	1408.1726	1415.2472	1436.9426	1459.7953	1473.6599	1494.0099	1495.3752	1497.6177	1506.0386	1509.1901	1512.9246	3025.52	3033.0075	3034.8901	3043.4849	3069.3783	3091.068	3093.0776	3098.2878	3105.2079	3112.1731	3125.5371	3128.4694	3155.6251	3521.4173	3685.0248
CCC(C)(O)C1NC1C	CC[C@@](C)(O)[C@H]1N[C@H]1C	
InChI=1S/C7H15NO/c1-4-7(3,9)6-5(2)8-6/h5-6,8-9H,4H2,1-3H3	InChI=1S/C7H15NO/c1-4-7(3,9)6-5(2)8-6/h5-6,8-9H,4H2,1-3H3/t5-,6-,7+/m0/s1
