15
gdb 50441	2.56887	1.56729	1.01198	3.0669	67.24	-0.2563	-0.0349	0.2213	1094.2971	0.11354	-453.99908	-453.991217	-453.990273	-454.032289	28.321	
O	 0.1396358602	 0.0473109458	-0.5981369517	-0.24041
C	 0.7488262981	 0.6463191497	 0.2492111434	 0.159717
C	 1.2112782956	 2.0881545369	 0.0760398426	-0.267967
C	 0.6068051861	 2.7635402688	-1.1675030416	-0.172493
N	 0.7937369379	 4.2091021376	-1.2294023907	-0.235229
C	 0.8444814688	 4.8227481432	-0.1236331038	 0.089743
N	 0.7926458085	 4.2295533025	 1.1423285041	-0.347562
C	 0.9794726065	 2.8790014865	 1.3619163193	 0.433934
O	 0.9964404013	 2.3999372655	 2.4740087917	-0.3529
H	 1.0197043486	 0.1886516901	 1.2196957851	 0.1225
H	 2.3089783399	 2.0397531395	-0.0213987651	 0.143518
H	 1.0257386082	 2.3132773458	-2.069543649	 0.134892
H	-0.4707025272	 2.5531849175	-1.2037091789	 0.137308
H	 0.9302558934	 5.9081122503	-0.0979468724	 0.130715
H	 0.7455775141	 4.8073071603	 1.9702256371	 0.264234
65.3061	98.4949	145.7866	207.7301	303.7803	388.4153	483.6299	507.8174	549.991	604.3408	620.8452	700.4993	766.8337	866.4683	890.0727	944.9492	983.2831	1047.5345	1061.8993	1087.2042	1123.4844	1220.3888	1239.1982	1260.5916	1314.4789	1380.3316	1409.0661	1419.3105	1452.9522	1483.8732	1746.5341	1805.6486	1829.1316	2959.8545	2984.5832	3030.4704	3102.8187	3146.1235	3604.517
O=CC1CN=CNC1=O	O=C[C@H]1CN=CNC1=O	
InChI=1S/C5H6N2O2/c8-2-4-1-6-3-7-5(4)9/h2-4H,1H2,(H,6,7,9)	InChI=1S/C5H6N2O2/c8-2-4-1-6-3-7-5(4)9/h2-4H,1H2,(H,6,7,9)/t4-/m1/s1
