13
gdb 27392	2.0801	2.02424	1.0263	4.8591	65.36	-0.2352	-0.0056	0.2296	1057.5546	0.091379	-486.118979	-486.111549	-486.110605	-486.150988	28.113	
N	 0.0976808745	 1.2910962935	 0.1301165764	-0.568097
C	-0.0520193685	-0.0521016437	 0.0463893005	 0.489146
N	-1.1697617403	-0.6542785957	 0.020163365	-0.329794
C	-1.1741110958	-2.0554799419	-0.003105495	 0.364082
N	-2.2827374655	-2.6791250212	-0.0138136589	-0.51256
N	 0.0789781323	-2.7274842957	-0.0202706327	-0.425596
C	 1.1269905562	-2.0157357135	-0.0043338596	 0.488594
O	 2.3633158628	-2.5043774069	-0.0217913724	-0.382366
O	 1.1945632495	-0.6628149461	 0.0328767635	-0.224832
H	 0.9854168191	 1.6890818027	-0.1265298721	 0.275969
H	-0.7326272397	 1.8361188996	-0.0329678107	 0.285041
H	-2.0869207452	-3.6804987131	-0.0338121367	 0.217729
H	 2.2707716305	-3.467595148	-0.0468268672	 0.322683
103.3883	181.9109	204.581	329.232	354.879	379.3898	485.3978	547.9777	553.9008	558.6257	587.1207	674.0532	712.7143	725.4894	782.5632	903.806	917.916	951.4176	988.7472	1118.9173	1196.0397	1243.5535	1316.2164	1387.575	1462.394	1607.0724	1691.7842	1720.4517	1810.4845	3487.5549	3610.5715	3737.5958	3777.5327
NC1=NC(=N)N=C(O)O1	NC1=N[C@@H]([NH])N=C(O)O1	
InChI=1S/C3H4N4O2/c4-1-6-2(5)9-3(8)7-1/h(H4,4,5,6,7,8)	InChI=1S/C3H5N4O2/c4-1-6-2(5)9-3(8)7-1/h1,4H,(H2,5,6)(H,7,8)/t1-/m1/s1
