15
gdb 125272	5.31732	1.24701	1.01652	5.3169	76.02	-0.2106	-0.0097	0.2009	1112.8693	0.114751	-416.81776	-416.810499	-416.809555	-416.849501	27.575	
C	-0.0101704937	 1.4929710248	 0.0373340815	-0.503244
C	-0.0025620805	 0.0021425354	-0.0401563234	 0.343248
C	-0.0734105375	-0.8207401851	-1.1543344993	-0.422972
C	-0.0248667537	-2.1381171418	-0.6390841897	 0.430465
C	 0.071562638	-2.0947478854	 0.7363562108	 0.188461
N	 0.0844343251	-0.7693180821	 1.106690396	-0.460749
C	 0.1093862109	-3.4486598239	 1.1284574695	-0.102424
N	 0.0419765213	-4.2408287029	 0.0756211449	-0.151721
O	-0.0447198909	-3.4116550626	-1.0640230231	-0.243491
H	 0.9050871459	 1.883067885	 0.4991574274	 0.135246
H	-0.0840129481	 1.918023784	-0.9654866126	 0.145934
H	-0.8589161984	 1.8675776533	 0.622518316	 0.135331
H	-0.148377176	-0.4903783035	-2.1771840193	 0.114965
H	 0.1498779313	-0.4021191282	 2.039256077	 0.263873
H	 0.1817186664	-3.902328117	 2.1062269344	 0.127077
97.3149	147.1348	275.5551	277.9276	326.0126	393.0406	492.2932	552.5394	609.0133	637.7836	740.5951	768.1301	774.9747	816.4266	870.4711	878.4575	964.7279	992.297	1010.4824	1058.9484	1159.197	1184.6123	1221.0739	1278.2143	1397.5412	1408.3055	1424.3577	1475.7566	1478.6	1502.3937	1523.9176	1597.6407	1609.1707	3022.4215	3069.3316	3131.647	3246.5399	3267.8944	3687.3448
CC1=CC2=C(N1)C=NO2	Cc1cc2c([nH]1)cno2	
InChI=1S/C6H6N2O/c1-4-2-6-5(8-4)3-7-9-6/h2-3,8H,1H3	InChI=1S/C6H6N2O/c1-4-2-6-5(8-4)3-7-9-6/h2-3,8H,1H3
