16
gdb 25922	2.75743	1.65682	1.04168	3.2539	73.95	-0.1964	-0.0373	0.1591	1092.1811	0.124491	-437.956007	-437.94805	-437.947106	-437.988552	30.294	
C	 0.0139266252	 1.4598310489	 0.0066452296	-0.502254
C	 0.0419123017	-0.0488778662	-0.0319387491	 0.450228
O	 1.092299703	-0.676755362	-0.0812080734	-0.382509
N	-1.176197974	-0.701568317	-0.0095823674	-0.1592
C	-2.4667828077	-0.1354278899	 0.0455996776	-0.106924
C	-3.3616591989	-1.1558342467	 0.0484575663	-0.146954
C	-2.6495742237	-2.404316489	-0.0054473771	-0.293565
C	-1.3204218745	-2.1073158992	-0.0402023239	 0.420712
O	-0.2594777871	-2.9129522412	-0.0940519481	-0.425767
H	 1.0418339463	 1.8189999352	-0.0170807874	 0.157692
H	-0.5353282578	 1.8603721685	-0.8504564084	 0.158654
H	-0.4791470061	 1.8162402064	 0.9158119887	 0.158644
H	-2.5990260685	 0.9308811252	 0.0765036747	 0.127444
H	-4.4346986913	-1.0433090342	 0.0853595197	 0.109842
H	-3.066257175	-3.3978671363	-0.017102796	 0.112177
H	 0.5336164183	-2.3342285825	-0.1046813258	 0.32178
98.7534	134.1946	155.4029	254.3431	302.5786	368.0376	486.6053	517.5624	565.4913	589.8219	628.6951	663.5732	692.4086	703.9321	725.1322	777.3676	859.5093	877.432	961.1986	1034.685	1058.1924	1073.2876	1152.8006	1187.872	1269.0843	1287.4493	1362.7997	1384.5888	1415.8214	1470.3785	1478.2498	1489.6378	1568.5562	1664.0897	1762.134	3053.7082	3119.9815	3169.8379	3248.6802	3271.9638	3300.5038	3458.7313
CC(=O)N1C=CC=C1O	CC(=O)n1cccc1O	
InChI=1S/C6H7NO2/c1-5(8)7-4-2-3-6(7)9/h2-4,9H,1H3	InChI=1S/C6H7NO2/c1-5(8)7-4-2-3-6(7)9/h2-4,9H,1H3
