19
gdb 87509	3.51772	1.37728	1.28209	1.2795	79.87	-0.2163	0.0017	0.218	1066.9529	0.160858	-381.988652	-381.981067	-381.980123	-382.020424	30.655	
C	-0.037958614	 1.5193915671	-0.1056439969	-0.391713
C	 0.0088776536	 0.0194870618	 0.0476580535	-0.110048
N	 1.3497628336	-0.625973158	-0.0914747866	-0.415055
C	 0.6648192285	-0.6601617575	 1.171910149	 0.4738
C	 1.162096604	-0.1689425992	 2.5626614746	-0.146494
N	-0.134807039	-0.75395984	 3.0622272166	-0.301813
C	 0.1784498128	-1.8385437321	 2.0644665436	-0.164048
C	 1.539069077	-2.3867931607	 2.5454517875	-0.102809
C	 2.1956829929	-1.2690469588	 2.875776589	-0.074779
H	 0.8504534231	 1.9779539662	 0.3361740203	 0.123575
H	-0.0743327467	 1.8040727194	-1.1626621545	 0.117361
H	-0.924359837	 1.929811998	 0.3894788152	 0.123396
H	-0.8329842869	-0.5130754249	-0.395068683	 0.084319
H	 1.2880841185	-1.5182559626	-0.5754847568	 0.228714
H	 1.3844138681	 0.8712557488	 2.7961946414	 0.072481
H	-0.0255895224	-1.1036765429	 4.0163150482	 0.20166
H	-0.6185421068	-2.526017158	 1.7788804623	 0.067669
H	 1.8632103661	-3.4176355262	 2.5463364936	 0.105404
H	 3.2105360746	-1.1278943706	 3.2184803931	 0.108381
140.2128	148.6655	189.9595	246.9315	354.7906	442.2237	483.2963	564.0389	577.1363	612.6136	719.322	783.9739	823.8922	838.4906	857.2735	863.9176	875.6117	907.0339	914.5492	963.5716	993.0339	1011.9362	1056.5381	1071.2471	1088.7046	1119.4167	1133.0667	1155.9887	1214.1609	1220.5351	1229.0716	1245.9274	1269.1675	1297.6303	1329.2316	1352.751	1409.7042	1478.8684	1491.3325	1518.0566	1607.455	3035.0142	3098.3947	3101.4231	3113.3039	3124.4955	3132.7587	3223.9177	3251.147	3427.9113	3498.756
CC1NC11C2NC1C=C2	C[C@H]1N[C@]21[C@H]1N[C@@H]2C=C1	
InChI=1S/C7H10N2/c1-4-7(9-4)5-2-3-6(7)8-5/h2-6,8-9H,1H3	InChI=1S/C7H10N2/c1-4-7(9-4)5-2-3-6(7)8-5/h2-6,8-9H,1H3/t4-,5-,6+,7+/m1/s1
