13
gdb 19637	6.02015	1.73684	1.66957	4.5729	66.39	-0.2487	0.009	0.2577	766.8972	0.09628	-324.227813	-324.222057	-324.221113	-324.257568	22.795	
N	 0.0928609006	-1.1171951662	-0.0716128693	-0.358049
C	 0.0410378918	 0.039990452	-0.0329936532	 0.123895
C	-0.0306241603	 1.4506412317	 0.0228496302	 0.30021
C	-0.9146382389	 2.441873735	 0.8417347475	-0.162928
C	-0.8298521646	 3.455607962	-0.2873951251	-0.085271
C	 0.2096082774	 3.4643868787	 0.8240574699	-0.085271
C	 1.0991273139	 2.494144185	-0.0083796059	-0.141981
C	 0.0677828897	 2.4853832772	-1.1110942269	-0.141986
H	-1.6927636531	 2.2680455152	 1.5708235783	 0.110528
H	-1.5379506121	 4.2156316786	-0.5846015162	 0.105228
H	 0.452781494	 4.2324431751	 1.5440076273	 0.105232
H	 2.1634786383	 2.3086987432	-0.0459431826	 0.115198
H	 0.1778645733	 2.2918297824	-2.168952834	 0.115196
159.0584	168.2542	510.1871	511.5287	526.2028	652.9258	747.8453	765.6364	783.5958	790.4669	849.0532	869.5087	892.3992	902.953	944.9301	972.5706	987.6002	1010.4438	1021.3542	1053.5679	1111.7951	1172.4181	1199.7145	1249.5522	1261.5325	1324.3253	1383.855	2335.7395	3208.6455	3216.178	3220.3259	3225.0163	3232.7998
N#CC12C3C4C3C1C24	N#C[C@@]12[C@@H]3[C@H]4[C@@H]3[C@@H]1[C@@H]24	
InChI=1S/C7H5N/c8-1-7-4-2-3(4)6(7)5(2)7/h2-6H	InChI=1S/C7H5N/c8-1-7-4-2-3(4)6(7)5(2)7/h2-6H/t2-,3+,4-,5+,6-,7+
