14
gdb 131945	2.84647	1.66457	1.05727	4.0547	69.63	-0.2647	-0.0849	0.1798	1041.0872	0.102277	-469.957651	-469.950142	-469.949198	-469.99017	26.891	
C	-0.0325552844	 1.4843666915	 0.0338850022	-0.329744
N	-0.0116080798	 0.02621949	 0.0661333204	-0.0812
C	-0.0276823344	-0.7844243453	-1.01966314	 0.032298
N	-0.0023023599	-2.0726730415	-0.7155523266	-0.264871
C	 0.0324345874	-2.1161852759	 0.6409538098	-0.097098
C	 0.0273614041	-0.834369525	 1.1492018645	 0.373971
N	 0.0556675417	-0.4162550031	 2.5073086114	 0.339883
O	 0.0889910572	-1.3003781876	 3.3562679889	-0.362667
O	 0.0451605346	 0.7938872002	 2.7441339566	-0.393195
H	 0.8584812855	 1.8909933186	 0.5124987008	 0.168556
H	-0.0634389879	 1.7897087468	-1.0134599589	 0.140162
H	-0.9089712548	 1.8665758327	 0.5574905762	 0.168573
H	-0.0584347757	-0.3783919412	-2.0205621707	 0.149217
H	 0.0592347164	-3.0361745901	 1.2021659654	 0.156115
71.3916	169.3893	202.1983	230.4692	230.9476	348.9741	444.4653	549.639	609.4494	667.8926	708.7502	775.1856	841.4618	850.6272	906.0843	924.9719	1083.4002	1153.6787	1154.2946	1188.7245	1263.0025	1305.5051	1376.1366	1389.1949	1414.0791	1455.7721	1474.494	1505.2925	1525.9749	1552.8077	1611.2106	3071.0757	3156.4742	3156.7828	3247.9929	3276.5654
CN1C=NC=C1N(=O)=O	Cn1cncc1N(=O)=O	
InChI=1S/C4H5N3O2/c1-6-3-5-2-4(6)7(8)9/h2-3H,1H3	InChI=1S/C4H5N3O2/c1-6-3-5-2-4(6)7(8)9/h2-3H,1H3
