21
gdb 35681	2.4007	1.42084	1.07763	0.658	88.66	-0.2505	0.0471	0.2976	1208.7577	0.182309	-349.9036	-349.894854	-349.89391	-349.936948	34.248	
C	-0.4157475647	-0.8735002532	-0.8416246772	-0.45411
C	-0.2628042432	 0.2077439066	-0.3352340821	 0.312959
C	-0.0425689208	 1.5009132669	 0.2746404303	-0.239032
C	 0.1640230914	 1.6029276845	 1.8191322286	-0.230305
C	 1.2181283353	 2.7088405835	 1.5611934254	-0.290547
C	 1.3430248097	 2.2081544573	 0.0971044511	 0.373207
C	 2.6160104051	 1.3874789383	-0.2441615513	-0.275149
C	 3.1410262642	 2.6099513632	-1.0452564342	-0.2094
C	 1.6932968549	 3.172663858	-1.0577304125	-0.295595
H	-0.5647135982	-1.8266417314	-1.284953992	 0.191651
H	-0.8328391814	 2.1966251116	-0.0338535128	 0.097915
H	-0.7121888101	 1.8539711493	 2.4200827261	 0.102856
H	 0.6145353783	 0.6889039054	 2.2122901104	 0.115015
H	 0.7760292213	 3.7095780421	 1.6083983955	 0.098927
H	 2.1238118968	 2.6978942575	 2.1728639447	 0.099527
H	 3.2196686152	 1.0270532976	 0.5935740434	 0.092429
H	 2.3797318795	 0.5404432197	-0.8945725565	 0.113497
H	 3.8162961797	 3.2323449731	-0.4518999828	 0.101867
H	 3.6123250461	 2.4114455325	-2.0103617042	 0.097472
H	 1.1606414194	 2.9058121418	-1.9764278257	 0.104766
H	 1.5552380315	 4.241905136	-0.871803784	 0.092051
93.6387	103.4924	146.9207	181.1195	264.5928	348.2228	361.9278	436.7441	517.8112	561.1758	613.7149	622.8738	663.9434	709.4828	768.1427	806.0588	867.298	883.8216	901.003	936.2669	950.425	954.5425	964.5966	1033.8075	1066.677	1097.3706	1139.145	1160.8193	1185.4576	1198.8415	1227.9473	1244.6543	1251.5885	1256.4016	1267.0909	1279.8448	1292.1361	1303.3376	1347.881	1472.3334	1480.2312	1487.2757	1499.323	1507.0587	2226.8038	3026.5513	3042.2975	3045.4897	3051.9656	3061.8372	3071.0138	3090.5124	3097.8379	3101.3346	3118.607	3128.5688	3504.3997
C#CC1CCC11CCC1	C#C[C@H]1CCC21CCC2	
InChI=1S/C9H12/c1-2-8-4-7-9(8)5-3-6-9/h1,8H,3-7H2	InChI=1S/C9H12/c1-2-8-4-7-9(8)5-3-6-9/h1,8H,3-7H2/t8-/m0/s1
