18
gdb 54359	2.15496	1.68289	1.15304	1.894	72.96	-0.2478	-0.043	0.2048	1097.6791	0.147236	-439.12139	-439.112534	-439.111589	-439.155507	32.829	
N	 0.0665966277	 1.3210661212	 0.1677511478	-0.538011
C	 0.1178895455	-0.0068625012	-0.1065484348	 0.349527
O	 1.1128060602	-0.5660800705	-0.5342326986	-0.372902
C	-1.203573555	-0.7751355699	 0.0585203224	 0.10427
C	-1.9340497329	-0.8946369342	-1.3497734146	-0.248625
C	-1.3146815024	-2.3023873781	-1.5240504489	-0.204025
C	-0.9866830227	-2.3180755125	-0.0107414036	-0.257536
C	-2.1587335314	-0.2963776513	 1.1208178518	 0.108965
O	-2.2149758532	 0.8068688355	 1.6149210351	-0.277321
H	 0.937812732	 1.8258095031	 0.1219418171	 0.255759
H	-0.6974906906	 1.6783843405	 0.7260757181	 0.277679
H	-3.0213837189	-0.9232756879	-1.2302774558	 0.111057
H	-1.6816835992	-0.1147401477	-2.0702372341	 0.130067
H	-1.9751597542	-3.084219842	-1.9041436548	 0.099601
H	-0.4057938789	-2.2713739331	-2.1255246364	 0.135975
H	 0.0106825734	-2.6493722522	 0.2744488592	 0.13447
H	-1.7397560217	-2.850870175	 0.5781279491	 0.096167
H	-2.9021483277	-1.0699197348	 1.4165570309	 0.094883
43.7293	97.1222	130.6499	222.0053	269.0591	302.3546	324.5011	407.0204	462.7847	492.5549	565.82	657.0173	695.3634	696.8342	767.6379	777.6659	859.92	903.5974	933.7608	956.8205	972.0126	1068.6764	1083.6935	1100.8618	1156.7805	1209.9801	1224.6146	1261.44	1278.9854	1287.8983	1294.2112	1363.3135	1437.5507	1460.3092	1477.9816	1494.8528	1610.971	1779.3429	1799.6285	2884.498	3054.4278	3058.2668	3079.2643	3118.5449	3139.8454	3151.0875	3527.9982	3685.84
NC(=O)C1(CCC1)C=O	NC(=O)C1(CCC1)C=O	
InChI=1S/C6H9NO2/c7-5(9)6(4-8)2-1-3-6/h4H,1-3H2,(H2,7,9)	InChI=1S/C6H9NO2/c7-5(9)6(4-8)2-1-3-6/h4H,1-3H2,(H2,7,9)
