15
gdb 27077	3.38691	1.13212	0.88227	2.0061	71.25	-0.1953	0.0135	0.2087	1253.1957	0.112704	-453.954597	-453.946158	-453.945214	-453.988718	30.336	
N	-0.201939774	 1.2952625561	 0.3477196769	-0.600327
C	-0.1406349642	-0.0648378424	 0.0983604965	 0.304496
C	-1.0839618686	-0.9852840696	-0.2557694577	 0.193082
O	-2.3816347434	-0.6727145763	-0.6005904758	-0.226929
C	-3.3589010118	-1.0816682007	 0.2535293376	 0.105102
N	-4.5644502144	-0.8656947744	-0.0380809272	-0.433738
C	-0.429751313	-2.2624509357	-0.2909717111	-0.268383
C	 0.8604333111	-2.02155254	 0.0427301787	-0.024043
O	 1.0474079491	-0.6800161926	 0.2859464565	-0.170449
H	 0.6081944534	 1.7977264027	 0.0048261751	 0.259695
H	-1.0538262412	 1.6979433378	-0.0222975228	 0.267533
H	-2.9594016451	-1.5761810803	 1.1471982222	 0.100036
H	-5.1691051139	-1.2222601837	 0.6989786339	 0.233783
H	-0.8709764221	-3.2122529947	-0.5482918779	 0.121653
H	 1.7365207182	-2.6363671161	 0.1507576451	 0.13849
36.1195	108.6261	139.8196	199.8801	263.0363	266.9078	407.3376	449.7077	506.1614	615.8571	660.0526	688.4777	694.8799	775.7204	816.6631	822.6008	827.6714	905.8148	1017.759	1041.0422	1049.9727	1078.8314	1171.3883	1204.6484	1270.6814	1296.2337	1344.2174	1403.8623	1474.8894	1561.2928	1627.8305	1699.8418	1748.1053	3051.369	3260.6283	3300.7313	3521.377	3531.3528	3630.1323
NC1=C(OC=N)C=CO1	Nc1c(O[CH][NH])cco1	
InChI=1S/C5H6N2O2/c6-3-9-4-1-2-8-5(4)7/h1-3,6H,7H2	InChI=1S/C5H6N2O2/c6-3-9-4-1-2-8-5(4)7/h1-3,6H,7H2
