13
gdb 128925	7.27267	0.76715	0.73395	0.9648	64.15	-0.3343	-0.0657	0.2686	1423.4014	0.090036	-445.064522	-445.056782	-445.055838	-445.098766	25.855	
N	-0.0020158232	-1.1542323329	-0.0040780541	-0.280757
C	-0.0243068502	 0.0003846221	 0.0025288816	 0.26135
C	-0.0192141831	 1.4598925972	 0.0105387155	-0.34127
C	 1.4242346695	 2.0050075721	-0.00120656	-0.149625
N	 1.4258890182	 3.4589221605	 0.006691124	 0.159714
N	 1.3826622855	 4.2075970154	-1.0862953064	-0.116374
N	 1.3462436901	 5.43015248	-0.6562741773	-0.07479
N	 1.362347302	 5.4228157409	 0.6927559636	-0.074806
N	 1.4087217153	 4.1956678696	 1.1084823296	-0.11631
H	-0.5611246414	 1.8303390513	-0.8657034805	 0.184751
H	-0.543063976	 1.8205958647	 0.9017043337	 0.184701
H	 1.9734687819	 1.6755220432	 0.8811627956	 0.181722
H	 1.9553605815	 1.685006386	-0.8980417052	 0.181695
37.0985	63.8278	94.2418	182.2451	344.1454	365.4426	401.2302	502.3572	724.5967	764.3517	776.0635	782.5713	959.2976	973.6898	1011.9968	1028.5676	1096.1963	1138.3156	1142.2169	1254.821	1258.1115	1312.7395	1322.4364	1401.5596	1403.1862	1423.8785	1469.1538	1480.4557	2371.0926	3058.9658	3103.8067	3105.6252	3166.8134
N#CCCN1N=NN=N1	N#CCCn1nnnn1	
InChI=1S/C3H4N6/c4-2-1-3-9-7-5-6-8-9/h1,3H2	InChI=1S/C3H4N6/c4-2-1-3-9-7-5-6-8-9/h1,3H2
