14
gdb 127744	3.39267	1.50331	1.04853	2.9174	69.43	-0.2481	-0.073	0.1751	1064.5148	0.101718	-466.208297	-466.200157	-466.199212	-466.241122	29.257	
C	-0.0334787202	 1.4205467658	-0.0300734948	-0.314184
N	-0.0079513377	-0.03648394	 0.0039417256	-0.046904
N	-0.0497043272	-0.6562614868	-1.1620818239	-0.049202
N	-0.0304344697	-1.9320493399	-1.2010861476	-0.266995
C	 0.0351196477	-2.5997774882	 0.0222232087	 0.489786
N	 0.0511471644	-3.937022809	-0.1101876907	-0.533773
N	 0.0792821272	-2.0595009433	 1.2146729251	-0.389635
C	 0.059737762	-0.6983335907	 1.2798339219	 0.455141
O	 0.0929038081	-0.0172783069	 2.2783955943	-0.381216
H	 0.8661274782	 1.8160999863	 0.4462142885	 0.160725
H	-0.0845022631	 1.7235591913	-1.0750455908	 0.152311
H	-0.90027856	 1.7870259943	 0.5239795248	 0.160702
H	 0.0166956999	-4.343363114	-1.0281231391	 0.281666
H	 0.0969712602	-4.5142529891	 0.7110146579	 0.281577
98.5498	135.4184	170.4325	188.169	258.6538	317.2574	362.549	471.1333	511.8736	574.5897	582.591	603.4993	739.9646	770.923	814.2194	832.5528	925.3821	1047.0404	1087.117	1152.131	1231.9838	1245.415	1341.8259	1426.3546	1441.096	1469.5073	1495.5038	1504.852	1589.9566	1666.6843	1825.4818	3064.7027	3134.7263	3174.9707	3626.323	3765.8201
CN1N=NC(N)=NC1=O	Cn1nnc(N)nc1=O	
InChI=1S/C3H5N5O/c1-8-3(9)5-2(4)6-7-8/h1H3,(H2,4,5,9)	InChI=1S/C3H5N5O/c1-8-3(9)5-2(4)6-7-8/h1H3,(H2,4,5,9)
