18
gdb 11719	4.73724	1.39837	1.22077	3.2302	74.36	-0.2429	-0.0163	0.2266	1022.4836	0.153254	-347.796154	-347.78835	-347.787405	-347.828157	29.452	
C	-0.1380948828	 1.5694498151	 0.0720127169	-0.405158
C	 0.0828927539	 0.0626438152	 0.0246177037	 0.036634
C	 1.1671543046	-0.5188632278	-0.9478985407	-0.326749
C	 1.8273368081	-1.242611177	 0.2259204902	 0.286765
C	 2.2329640748	-0.256718394	 1.3010456784	-0.333716
C	 0.792492033	-0.6113059932	 1.2133084088	-0.105817
C	 2.2749565807	-2.6355550434	 0.23341384	 0.052232
O	 2.3041862611	-3.3558575198	-0.7380204781	-0.27363
H	 0.7950908065	 2.1111399451	 0.2582627074	 0.115457
H	-0.5457642363	 1.9306439427	-0.878309236	 0.120372
H	-0.8448703033	 1.8402777606	 0.8639157529	 0.117776
H	-0.8715197878	-0.4397721112	-0.1578395206	 0.085347
H	 0.7634408555	-1.2090951397	-1.6895589348	 0.128158
H	 1.8001335006	 0.2159487327	-1.4556001719	 0.099269
H	 2.7659026186	-0.6845511401	 2.1452125641	 0.124424
H	 2.5998387287	 0.7183293811	 0.9914949232	 0.120972
H	 0.2922662038	-1.1190481599	 2.0301120831	 0.09956
H	 2.5823897504	-3.0093809865	 1.2391652034	 0.058104
96.6934	166.077	178.9819	222.0137	292.5895	326.7552	394.3539	472.193	532.8297	641.8193	751.3412	764.1801	830.5081	863.6357	906.4252	948.8098	972.8377	985.4486	1021.8525	1049.6209	1084.3211	1089.5472	1101.8095	1133.8707	1184.0555	1230.854	1245.0351	1274.8486	1334.5089	1362.9834	1386.8192	1412.7599	1438.2506	1479.9217	1492.7099	1495.7073	1499.1505	1798.2403	2845.8185	3029.5307	3053.3305	3058.629	3097.182	3100.4491	3113.8686	3129.7195	3177.4991	3200.2283
CC1CC2(CC12)C=O	C[C@H]1C[C@]2(C[C@@H]12)C=O	
InChI=1S/C7H10O/c1-5-2-7(4-8)3-6(5)7/h4-6H,2-3H2,1H3	InChI=1S/C7H10O/c1-5-2-7(4-8)3-6(5)7/h4-6H,2-3H2,1H3/t5-,6-,7-/m0/s1
