18
gdb 113515	3.50412	1.03782	0.92892	3.2295	74.95	-0.2444	0.0321	0.2765	1304.2857	0.146524	-439.074897	-439.06576	-439.064816	-439.109338	32.596	
C	 0.2662098541	 1.2407722897	 0.2992518052	-0.23223
O	-0.3666715837	 0.1563243591	-0.3552008682	-0.243018
C	 0.4290767021	-0.4258151787	-1.3343315718	 0.067327
C	 1.4146362163	-1.4988178785	-0.9432697094	-0.384693
C	 0.1294875599	-1.8549250939	-1.6455152588	 0.136216
C	-1.0700102112	-2.6911266598	-1.1755573694	-0.227781
N	-1.1124670729	-3.2227024579	-2.5483305822	-0.350741
C	-0.0667788957	-2.4618008322	-3.0273174407	 0.390417
O	 0.4442950541	-2.3434882733	-4.1093230215	-0.373296
H	 1.1876964163	 0.9243959165	 0.8079402888	 0.112367
H	 0.5174107597	 2.0458049425	-0.4067764419	 0.112964
H	-0.440121	 1.6244865839	 1.0386541892	 0.130369
H	 0.6879102618	 0.2263287972	-2.1702403482	 0.106773
H	 2.3372252583	-1.5942152484	-1.5064380504	 0.13441
H	 1.4786850624	-1.7464094041	 0.1113369935	 0.124548
H	-0.8545825245	-3.4464300276	-0.4136155754	 0.114838
H	-1.9467112438	-2.1042603673	-0.8869848228	 0.129531
H	-1.8023766732	-3.7795472172	-3.0286051761	 0.251999
76.5181	95.5866	119.6553	152.7377	194.8013	224.994	284.2662	348.8002	436.4952	470.3299	585.4289	632.2071	729.4824	782.9048	848.3577	877.5111	925.4103	978.7822	1009.0539	1033.6765	1052.8351	1093.2548	1115.4448	1146.5967	1153.3502	1174.1766	1180.892	1186.6976	1243.1936	1291.5626	1328.6029	1382.9271	1417.8286	1468.7192	1486.2168	1495.4012	1509.2532	1525.9426	1890.5911	2989.2089	3042.0808	3046.575	3092.5322	3097.4514	3122.9752	3128.203	3221.859	3625.3656
COC1CC11CNC1=O	CO[C@H]1C[C@]21CNC2=O	
InChI=1S/C6H9NO2/c1-9-4-2-6(4)3-7-5(6)8/h4H,2-3H2,1H3,(H,7,8)	InChI=1S/C6H9NO2/c1-9-4-2-6(4)3-7-5(6)8/h4H,2-3H2,1H3,(H,7,8)/t4-,6+/m0/s1
