12
gdb 20642	2.30567	1.21129	0.80237	3.5553	57.7	-0.2545	-0.0522	0.2023	1303.5604	0.076604	-414.730841	-414.720129	-414.719185	-414.773482	30.84	
C	-0.0609474305	 1.6847403793	 0.0256077421	-0.481684
C	-0.2331880675	 0.1780061861	 0.1180783	 0.400979
C	-1.517362538	-0.3299946884	-0.4036007566	-0.524399
C	-1.779474822	-1.6279347711	-0.3710283714	 0.54439
O	-2.0029249955	-2.7591890556	-0.3402334459	-0.182399
N	 1.3398619501	-3.5690625828	 0.4215802371	-0.001877
N	 2.370533595	-3.4871855791	 0.7929865029	-0.004149
O	 0.6229503184	-0.5454047073	 0.5867817328	-0.333021
H	-0.1313665798	 2.0140757829	-1.0169006279	 0.141777
H	-0.8544534326	 2.1951650367	 0.582392489	 0.141729
H	 0.9113377355	 1.9607739917	 0.4339073588	 0.1476
H	-2.2735849831	 0.3230428876	-0.819532381	 0.151054
3.3112	20.6986	34.5565	49.6523	81.368	94.0862	111.3867	137.3823	355.235	474.6282	535.9428	579.6421	632.0001	645.7316	901.756	962.521	1038.8674	1126.4617	1175.3037	1372.1732	1406.5077	1466.5805	1475.2965	1760.928	2239.5352	2432.1269	3037.8851	3100.4221	3158.2423	3215.134
CC1=CC(=O)N=NO1	CC(=O)[CH][C][O].N#N	
InChI=1S/C4H4N2O2/c1-3-2-4(7)5-6-8-3/h2H,1H3	InChI=1S/C4H4O2.N2/c1-4(6)2-3-5;1-2/h2H,1H3;
