17
gdb 105826	2.55967	1.44377	1.23365	2.2245	67.4	-0.2399	0.0414	0.2813	1063.5589	0.134896	-458.865014	-458.857027	-458.856082	-458.897598	31.117	
O	 0.0932703158	 1.3913724609	 0.02603428	-0.412326
C	 0.0294321826	-0.0235339171	-0.0941680495	-0.169691
C	-1.3800653527	-0.5281062907	-0.0204540826	 0.19199
C	-2.0495276295	-1.0436240721	 1.2344489595	 0.094574
O	-3.2017796942	-0.5837608847	 1.8467074206	-0.426587
C	-1.9235984702	-1.9903624385	 0.0642018369	-0.242666
C	-2.8751332088	-1.6507501155	-1.112353245	 0.029185
O	-3.7383138731	-0.550112754	-0.7457974656	-0.272309
C	-2.3871025548	-0.2796909918	-1.1817413933	-0.032094
H	-0.3448163049	 1.6301932181	 0.8503822565	 0.288193
H	 0.4793679472	-0.2505162312	-1.0683938047	 0.109226
H	 0.641628255	-0.5290309577	 0.670111282	 0.091658
H	-1.3080594043	-1.275702146	 1.9988098868	 0.109225
H	-3.8273666894	-0.4097043134	 1.1296376916	 0.297369
H	-1.3556751036	-2.9120263638	 0.1063714816	 0.099384
H	-3.2405213116	-2.3282965697	-1.8734509523	 0.121193
H	-2.2598417536	 0.4111520772	-2.0055541526	 0.123676
80.2399	128.474	255.1865	267.3517	293.9769	347.5987	405.3301	449.8002	526.5929	590.0553	637.1698	723.5521	750.2174	787.9139	810.5617	865.9112	894.9875	906.6389	938.3778	964.3756	1001.5508	1041.7001	1052.1922	1084.8068	1124.899	1182.7023	1200.1585	1238.2233	1242.1715	1282.4105	1318.8161	1340.5731	1368.4296	1420.3962	1428.3688	1483.3364	1504.4579	2974.3015	3049.6587	3118.6251	3184.3588	3196.158	3210.2997	3734.5645	3804.9028
OCC12C(O)C1C1OC21	OC[C@]12[C@@H](O)[C@H]1[C@H]1O[C@@H]21	
InChI=1S/C6H8O3/c7-1-6-2(4(6)8)3-5(6)9-3/h2-5,7-8H,1H2	InChI=1S/C6H8O3/c7-1-6-2(4(6)8)3-5(6)9-3/h2-5,7-8H,1H2/t2-,3-,4+,5-,6-/m1/s1
