15
gdb 61379	2.94341	1.01985	0.8834	1.7746	68.99	-0.2571	-0.1031	0.154	1298.807	0.108296	-457.735414	-457.725755	-457.724811	-457.770768	33.577	
O	 0.2174844577	 1.4440179456	-0.5541003496	-0.416881
C	 0.0154626066	 0.1318672442	-0.0507598593	-0.066357
C	 0.1917853595	-0.9395206371	-1.1624474138	-0.334678
C	-0.5921007678	-0.5388002638	-2.3936407564	 0.318934
O	-1.7381004803	-0.8519230524	-2.6122323095	-0.276348
C	 0.125194218	 0.344412075	-3.4252281549	 0.082706
O	 1.2533667451	 0.7435582692	-3.2925598125	-0.22834
C	 0.8768666131	-0.1710696711	 1.0942303757	 0.312029
C	 1.6121120222	-0.4232432979	 2.0108125465	-0.430975
H	 1.1052273502	 1.4874937288	-0.9318771142	 0.297413
H	-1.0324050413	 0.1158116902	 0.2698200013	 0.139386
H	 1.2538483804	-1.0212884171	-1.4092281552	 0.136735
H	-0.1751013196	-1.9031349878	-0.8022296122	 0.143272
H	-0.5059843213	 0.5752868405	-4.3077447187	 0.117536
H	 2.2502888373	-0.635758566	 2.8331016226	 0.205567
58.3985	71.7799	116.5299	126.7953	182.8675	240.9089	246.1514	361.068	415.1448	457.6728	520.2849	563.6511	578.0835	601.4425	643.014	677.0312	816.9934	850.4463	965.6726	1015.98	1021.1837	1074.3473	1146.2164	1235.5056	1287.9551	1315.9579	1345.9865	1361.4714	1429.4088	1465.9157	1808.0809	1817.0254	2235.0441	2940.2749	3053.0264	3070.799	3132.9474	3501.6706	3783.5503
OC(CC(=O)C=O)C#C	O[C@@H](CC(=O)C=O)C#C	
InChI=1S/C6H6O3/c1-2-5(8)3-6(9)4-7/h1,4-5,8H,3H2	InChI=1S/C6H6O3/c1-2-5(8)3-6(9)4-7/h1,4-5,8H,3H2/t5-/m1/s1
