17
gdb 34487	3.02741	1.36666	1.00013	1.1151	86.04	-0.2267	-0.0323	0.1944	1163.2426	0.136001	-384.628723	-384.620906	-384.619961	-384.661099	30.21	
C	-0.0153668542	-1.162663749	 0.1284106623	-0.414493
C	-0.0496495265	 0.0369447277	 0.0107025659	 0.198991
C	-0.0424808086	 1.4404296716	-0.1309354796	 0.063372
C	-1.0815304955	 2.2763192412	-0.2450390304	 0.08105
C	-2.447712753	 2.5875460239	 0.3021597914	-0.15977
O	-1.9133377813	 3.8646529566	 0.77562168	-0.304062
C	-0.7186665983	 3.7103567863	-0.0722535258	 0.115576
C	 0.6993833633	 3.659441277	 0.517521156	-0.252881
C	 1.2372570688	 2.2939151579	-0.0226578454	-0.308807
H	-0.0010698806	-2.2192067371	 0.2329171919	 0.194234
H	-3.2452920588	 2.7444963248	-0.4353832558	 0.112508
H	-2.8133558718	 1.9487381213	 1.1127020722	 0.127015
H	-0.8065112623	 4.3747236779	-0.9423151687	 0.082782
H	 1.3308608304	 4.5093308039	 0.2454271331	 0.100736
H	 0.62357859	 3.6181592246	 1.6085354369	 0.123961
H	 1.9605098335	 1.8293629576	 0.65291398	 0.12208
H	 1.736615485	 2.4097245439	-0.9925366039	 0.117708
104.9133	135.7663	169.6185	250.4381	330.5952	381.485	492.1184	535.4965	569.0123	593.6513	614.81	637.7298	692.5071	773.1422	852.6381	900.8783	921.2219	930.3438	970.6843	1016.1815	1055.6716	1060.234	1121.2483	1141.7838	1149.2733	1177.8006	1236.9208	1264.8629	1284.8939	1320.3144	1329.5478	1352.1704	1478.829	1494.1673	1506.7904	1726.4045	2217.7654	3009.8091	3018.3246	3033.2644	3057.9217	3078.1206	3092.9546	3112.6619	3502.5431
C#CC1=C2COC2CC1	C#C[C]1[C]2CO[C@H]2CC1	
InChI=1S/C8H8O/c1-2-6-3-4-8-7(6)5-9-8/h1,8H,3-5H2	InChI=1S/C8H8O/c1-2-6-3-4-8-7(6)5-9-8/h1,8H,3-5H2/t8-/m0/s1
