20
gdb 114473	3.38036	1.21606	1.1021	1.0312	77.71	-0.2209	0.0703	0.2912	1165.4261	0.17205	-403.059369	-403.051328	-403.050383	-403.092086	31.613	
O	-0.1130837497	 1.5137970524	-0.0939086171	-0.422681
C	 0.0778932248	 0.1063695049	-0.0033788293	-0.110836
C	-1.2964748501	-0.5326551705	-0.0703869625	 0.046666
C	-2.1362093105	-0.5556788873	-1.3943203436	-0.282214
C	-2.4700190738	-2.0579293798	-1.1322933939	-0.028686
C	-1.5563603734	-3.1294838462	-1.7498928099	-0.028779
C	-0.1592158815	-2.6950797848	-1.887298895	-0.242741
N	-0.6116402294	-3.1180734328	-0.5450678102	-0.16047
C	-1.5163473808	-2.0653325198	 0.0827269707	-0.016999
H	 0.7515101509	 1.9348720361	-0.0910597444	 0.286603
H	 0.7365157127	-0.2485559826	-0.807893649	 0.089984
H	 0.5558909276	-0.1738094005	 0.9498050487	 0.091892
H	-1.8927201395	-0.0465693146	 0.710437945	 0.090717
H	-3.0026099102	 0.1079588163	-1.3790292653	 0.105725
H	-1.5776955088	-0.3578289361	-2.3130025244	 0.103299
H	-3.5198676948	-2.3324624442	-1.043400212	 0.073328
H	-1.912867498	-4.0664067131	-2.1681136394	 0.092803
H	 0.5416678391	-3.4100072574	-2.3097942139	 0.11999
H	 0.0878690615	-1.6628520475	-2.1022190349	 0.113117
H	-1.8126307061	-2.4229688526	 1.0695018305	 0.079283
73.0783	136.6525	187.8414	260.986	305.679	325.1546	417.9882	438.3763	569.3402	681.6638	704.8292	710.1276	756.4415	844.7804	871.1777	891.9177	911.9125	917.6264	972.9401	1014.7411	1040.7624	1056.9886	1072.9412	1089.1294	1103.8991	1107.9256	1132.1294	1157.5708	1175.5805	1215.2163	1231.5936	1237.7208	1261.3536	1269.8017	1286.9654	1300.7284	1324.0501	1365.7809	1369.2125	1460.0336	1483.7547	1510.4537	1523.8701	2969.197	3013.6029	3042.2617	3065.7803	3097.3641	3113.2239	3125.2981	3128.4316	3149.8667	3217.7508	3827.8337
OCC1CC2C3CN3C12	OC[C@H]1C[C@H]2[C@H]3CN3[C@@H]12	
InChI=1S/C7H11NO/c9-3-4-1-5-6-2-8(6)7(4)5/h4-7,9H,1-3H2	InChI=1S/C7H11NO/c9-3-4-1-5-6-2-8(6)7(4)5/h4-7,9H,1-3H2/t4-,5+,6-,7+,8?/m1/s1
