17
gdb 26504	3.67858	1.25624	1.04313	3.083	74.29	-0.2202	0.0275	0.2477	1147.7559	0.136944	-418.029325	-418.021317	-418.020373	-418.062226	30.213	
C	-0.3446148403	 1.2981687546	-0.8717839225	-0.467192
C	-0.0672062444	 0.0414759633	-0.0792877236	 0.306577
C	 1.1354705503	-0.7656010026	-0.370016992	-0.212289
O	 1.0828930445	 0.077557437	 0.7825374844	-0.276937
C	-1.2473712447	-0.6195526767	 0.5349775958	 0.238795
C	-1.3151035216	-1.2298871762	 1.7617585254	-0.186808
N	-2.6113112456	-1.6829498017	 1.8675867766	-0.235976
C	-3.2606944978	-1.3279282983	 0.7237813461	 0.008646
N	-2.4689788799	-0.6834890828	-0.1016273718	-0.322081
H	 0.5777614884	 1.6900166288	-1.3071725182	 0.115883
H	-1.0627314049	 1.0852646735	-1.6677686556	 0.14486
H	-0.7806235437	 2.0667267151	-0.2258699983	 0.126083
H	 1.1224273876	-1.8354028001	-0.1679103684	 0.107824
H	 1.8228905929	-0.4440442548	-1.1522910209	 0.109599
H	-0.5857837096	-1.3608987836	 2.5417793095	 0.144437
H	-3.0070702663	-2.1693899694	 2.6543251239	 0.268267
H	-4.3005423447	-1.563251176	 0.5525539497	 0.130313
57.5811	152.4887	180.5415	198.868	316.8379	358.1455	423.5495	489.3847	532.4939	563.142	665.3099	720.7066	767.1134	806.0913	821.2786	866.8338	925.7689	949.3961	968.7907	1023.0192	1083.1072	1101.136	1131.84	1137.3129	1161.0906	1178.6099	1241.2628	1311.1724	1355.5326	1383.1207	1409.7996	1457.6148	1477.2119	1495.0878	1517.6501	1530.6088	1598.8339	3046.052	3076.7433	3115.6559	3134.4181	3167.8023	3251.6435	3293.4198	3667.368
CC1(CO1)C1=CNC=N1	C[C@]1(CO1)c1c[nH]cn1	
InChI=1S/C6H8N2O/c1-6(3-9-6)5-2-7-4-8-5/h2,4H,3H2,1H3,(H,7,8)	InChI=1S/C6H8N2O/c1-6(3-9-6)5-2-7-4-8-5/h2,4H,3H2,1H3,(H,7,8)/t6-/m0/s1
