18
gdb 16178	4.28946	1.63946	1.42253	1.2631	67.59	-0.249	0.0876	0.3366	927.7868	0.154152	-384.915483	-384.907896	-384.906952	-384.947288	28.573	
C	-0.3137470955	 1.3127782952	-0.0915524944	-0.254999
O	 0.1986261568	 0.0037825155	 0.091244962	-0.286586
C	 0.7912825493	-0.5285271157	-1.0436572802	 0.421021
C	-0.0454531829	-1.0723152816	-2.1743229579	-0.346729
C	 0.7598471664	-2.009260019	-1.2936635121	-0.135982
C	 2.1470738577	-2.3703078126	-1.7839602482	-0.090593
O	 2.7333732683	-1.138285145	-2.2103029664	-0.256363
C	 2.2063434291	-0.0894262354	-1.4076744858	-0.145881
H	 0.4814870714	 2.040669789	-0.3058914175	 0.111957
H	-1.0473342153	 1.3469599035	-0.908836133	 0.112026
H	-0.8040368619	 1.5944872987	 0.8429781055	 0.128401
H	-1.1183600095	-1.0794757446	-2.017504916	 0.115993
H	 0.2758643975	-0.9070250263	-3.1982757917	 0.121247
H	 0.2385284872	-2.6687183524	-0.6108648642	 0.100962
H	 2.7305427792	-2.8278752586	-0.9688693992	 0.095317
H	 2.1649906408	-3.0471552628	-2.6444456579	 0.108982
H	 2.2694720671	 0.8299921772	-1.9989688812	 0.104749
H	 2.7785851043	 0.0492613449	-0.4754869418	 0.096478
93.4425	174.954	181.6571	238.9352	302.2779	364.0916	393.5409	451.8861	607.0071	677.6296	728.1619	842.0913	908.3636	920.9674	935.2202	956.7455	1026.1463	1031.1634	1065.2592	1099.4661	1105.719	1115.5346	1122.8739	1182.7386	1216.3798	1217.6994	1249.752	1268.0775	1280.5353	1348.367	1367.2167	1408.6848	1468.621	1488.7625	1493.6312	1507.5006	1510.7763	1522.2235	2971.7824	2978.8875	2993.0554	3046.4452	3067.2617	3070.1009	3121.2724	3127.0667	3193.1435	3221.5833
COC12CC1COC2	CO[C@]12C[C@H]1COC2	
InChI=1S/C6H10O2/c1-7-6-2-5(6)3-8-4-6/h5H,2-4H2,1H3	InChI=1S/C6H10O2/c1-7-6-2-5(6)3-8-4-6/h5H,2-4H2,1H3/t5-,6-/m0/s1
