20
gdb 89257	2.42811	1.77859	1.31448	1.5906	78.04	-0.2231	0.0659	0.289	1040.6348	0.17079	-403.075862	-403.067641	-403.066697	-403.107946	33.224	
C	-0.2714710014	 1.5700967032	-0.0404510805	-0.412577
C	 0.0429496503	 0.080777053	-0.0105045219	 0.041058
C	 1.1790523463	-0.4820996349	-0.936008447	-0.322431
C	 1.8043839032	-1.2135750012	 0.2934710914	 0.419362
O	 1.8868001859	-2.6091442271	 0.2839209013	-0.48581
C	 2.9339344065	-0.4796146671	 1.0773726688	-0.14129
N	 2.6908635229	 0.9712394588	 0.9444714563	-0.331762
C	 1.9168022702	 0.1840395722	 1.9423566778	-0.0588
C	 0.7569555635	-0.5508621855	 1.2283077945	-0.086005
H	 0.633910507	 2.1632856969	 0.0995822046	 0.140087
H	-0.7234519823	 1.8502179602	-0.9989443627	 0.105435
H	-0.9853466657	 1.8348305674	 0.7483978204	 0.102686
H	-0.8788058769	-0.4832852545	-0.1893160847	 0.072412
H	 0.8292957237	-1.1780441556	-1.7029756893	 0.088977
H	 1.8170886725	 0.2799008673	-1.3861031416	 0.108824
H	 2.5466566384	-2.8637698365	-0.3714671409	 0.276566
H	 3.917945898	-0.8700710332	 1.3129506612	 0.088395
H	 3.4298144647	 1.4519755706	 1.4567739961	 0.229837
H	 1.9632854901	 0.4546696594	 2.9904240329	 0.090358
H	 0.1677836831	-1.1770836434	 1.8991623033	 0.074678
144.8359	211.7723	217.1364	236.8604	276.1086	317.448	338.1599	406.0401	480.6193	533.665	644.3514	659.0224	763.8427	785.0108	825.5713	833.8781	879.989	889.5903	926.2097	952.8837	977.8905	1000.0339	1020.5922	1054.2038	1072.2133	1097.0911	1116.9116	1141.645	1158.1329	1184.2798	1227.0623	1244.3008	1264.7037	1277.1682	1318.3531	1333.6592	1343.423	1359.6149	1395.0271	1403.8436	1458.5481	1491.0988	1509.8408	3026.5125	3038.8104	3063.3228	3082.2794	3109.0884	3130.6944	3136.0036	3168.7949	3184.6979	3469.8045	3785.611
CC1CC2(O)C3NC3C12	C[C@H]1C[C@@]2(O)[C@H]3N[C@H]3[C@@H]12	
InChI=1S/C7H11NO/c1-3-2-7(9)4(3)5-6(7)8-5/h3-6,8-9H,2H2,1H3	InChI=1S/C7H11NO/c1-3-2-7(9)4(3)5-6(7)8-5/h3-6,8-9H,2H2,1H3/t3-,4+,5-,6-,7-/m0/s1
