27
gdb 101608	2.50253	0.86765	0.77996	1.299	92.29	-0.2618	0.0739	0.3357	1668.3891	0.248889	-390.700547	-390.688525	-390.687581	-390.737533	44.88	
C	-0.6748786722	 1.7109726259	 1.7401967614	-0.403859
C	-0.5618568419	 0.529505693	 0.7664584051	 0.049925
C	 0.2638377775	-0.5990297578	 1.3887122728	-0.07956
O	 1.5812424508	-0.1189425281	 1.6207401746	-0.424839
C	-1.9530606481	 0.013475543	 0.3198862158	-0.224062
C	-2.1687115285	-0.2486663052	-1.1945903455	 0.268542
C	-1.1492778391	-1.2623222108	-1.745328673	-0.401584
C	-3.5869782711	-0.8216947521	-1.377360517	-0.401752
C	-2.0630755234	 1.0679781394	-1.9872070664	-0.400573
H	 0.3134660802	 2.0295446432	 2.0797149414	 0.129714
H	-1.1720172825	 2.5635727908	 1.266293973	 0.106396
H	-1.2638767284	 1.4320772883	 2.6228867007	 0.10505
H	 0.001183701	 0.8737099222	-0.1094373161	 0.081644
H	-0.214660573	-0.9191983379	 2.3302751278	 0.079737
H	 0.277354833	-1.4702684045	 0.7167304907	 0.084359
H	 2.0806925135	-0.8095635871	 2.0652454995	 0.285055
H	-2.1860483361	-0.9115892719	 0.8666056176	 0.082444
H	-2.7153259482	 0.7360959192	 0.6368186322	 0.087694
H	-1.2122597582	-2.2180597378	-1.2127975103	 0.105238
H	-1.3398434483	-1.4621399772	-2.8057230695	 0.105583
H	-0.1212741521	-0.8958952993	-1.6617933554	 0.117484
H	-4.3458963903	-0.1303912784	-0.9941418613	 0.107121
H	-3.8053878695	-1.0030650331	-2.435613107	 0.105697
H	-3.7019202892	-1.772610818	-0.8452830531	 0.105875
H	-1.0698112361	 1.5197226155	-1.9025543251	 0.114724
H	-2.2540949093	 0.8947854381	-3.0519451515	 0.10702
H	-2.7958718305	 1.8012800606	-1.6323215714	 0.106925
46.5594	76.186	99.7128	197.0046	216.0948	239.6063	251.562	260.8091	270.3062	290.0309	302.9385	308.0961	355.8504	379.9803	404.5783	422.7837	486.2085	543.4424	743.8605	848.1718	876.1232	904.3078	929.6096	934.8773	939.5061	960.1108	977.1082	1030.779	1041.062	1073.3106	1096.8281	1129.402	1166.1081	1186.2272	1229.6763	1259.7105	1269.8203	1273.5851	1307.3697	1327.866	1366.827	1388.451	1399.6547	1401.7015	1402.9441	1433.7938	1454.6228	1479.4452	1482.9593	1486.842	1488.8238	1492.3015	1507.0872	1508.6204	1511.4805	1515.8565	1523.2685	2954.1864	2998.2845	3001.9368	3020.0512	3023.8485	3025.0779	3030.982	3038.6278	3042.5366	3086.342	3088.3034	3090.2752	3091.8894	3095.1904	3098.9548	3102.6459	3124.5529	3834.2186
CC(CO)CC(C)(C)C	C[C@@H](CO)CC(C)(C)C	
InChI=1S/C8H18O/c1-7(6-9)5-8(2,3)4/h7,9H,5-6H2,1-4H3	InChI=1S/C8H18O/c1-7(6-9)5-8(2,3)4/h7,9H,5-6H2,1-4H3/t7-/m1/s1
