24
gdb 117674	2.96193	0.90601	0.82734	2.8755	85.54	-0.234	0.0613	0.2953	1553.797	0.21564	-405.530232	-405.51932	-405.518375	-405.566169	40.414	
C	 0.2558099296	 1.6110561218	 0.0354012437	-0.379394
C	 0.1461454369	 0.0844683794	-0.0347289956	-0.201653
C	 0.6443587038	-0.5969777406	 1.2453803488	-0.170434
C	 0.6245465155	-2.1441471161	 1.2396632884	 0.299108
C	-0.7985493438	-2.7135107536	 1.157358776	-0.427515
O	 1.4189659507	-2.6451844629	 0.156905854	-0.474659
C	 1.2993932778	-2.6425769258	 2.5148187076	 0.023104
C	 1.9358352168	-3.9775843281	 2.5816804238	-0.251548
N	 2.761210284	-2.7510626608	 2.5892043828	-0.339464
H	 1.29258454	 1.9250047474	 0.1974901195	 0.119588
H	-0.0946531891	 2.0789081109	-0.8897931379	 0.11187
H	-0.3429572766	 2.012538033	 0.8602980331	 0.116511
H	-0.8969557785	-0.1909738962	-0.2332021449	 0.098064
H	 0.7334439508	-0.2739954585	-0.8904644182	 0.089391
H	 1.6773930634	-0.2817190677	 1.436257668	 0.107971
H	 0.0504363621	-0.2454651686	 2.0993318797	 0.091821
H	-1.312226117	-2.3821052062	 0.2483108709	 0.107074
H	-0.7629011929	-3.8058868433	 1.1521995627	 0.126411
H	-1.4010746339	-2.3913490095	 2.0128574876	 0.118945
H	 0.9535714056	-2.4667674549	-0.6650905888	 0.284161
H	 0.8438011144	-2.2408175631	 3.4183583706	 0.082019
H	 1.9321422622	-4.5358165582	 3.5137790577	 0.108707
H	 1.9330667328	-4.5786239813	 1.6780745732	 0.119342
H	 3.1287042553	-2.621279457	 1.6482092074	 0.240578
68.6273	80.4389	111.6407	143.7285	224.4252	230.1051	245.4615	253.852	291.0767	316.6485	330.474	396.8426	401.1248	523.8709	609.7692	739.1672	752.3881	828.8251	865.2506	874.1402	908.3186	931.1473	951.9449	981.9686	1020.5971	1027.5394	1050.6739	1072.6406	1114.6522	1135.9206	1161.772	1181.6719	1197.5477	1231.6307	1279.1602	1289.5694	1297.2236	1317.1734	1339.6735	1347.7992	1395.4586	1406.1883	1413.6759	1432.1245	1473.4318	1490.4298	1494.1258	1496.9076	1499.8275	1503.7862	1509.7643	3013.6568	3022.6616	3032.0287	3033.3432	3045.4666	3069.4182	3098.4392	3100.5691	3103.958	3113.5415	3119.1132	3122.7646	3206.1771	3491.8527	3839.9523
CCCC(C)(O)C1CN1	CCC[C@@](C)(O)[C@H]1CN1	
InChI=1S/C7H15NO/c1-3-4-7(2,9)6-5-8-6/h6,8-9H,3-5H2,1-2H3	InChI=1S/C7H15NO/c1-3-4-7(2,9)6-5-8-6/h6,8-9H,3-5H2,1-2H3/t6-,7-/m1/s1
