17
gdb 87312	2.73413	1.23876	0.99438	1.5147	81.39	-0.2297	0.0256	0.2553	1207.687	0.132159	-384.600329	-384.590829	-384.589885	-384.63423	35.985	
O	-0.8296934989	 1.16260642	 0.6467467591	-0.423689
C	-0.4425976693	-0.142137802	 0.3793672741	 0.119796
C	-0.9478740913	-1.3316522404	 1.1341509015	-0.369915
C	-1.3636818216	-1.1428574189	-0.3313794652	 0.041939
C	-2.8109424859	-0.740184379	-0.6740652514	-0.404453
C	-3.5436295768	-0.0424748104	 0.3775766618	 0.267877
C	-4.1516662838	 0.5213771043	 1.2503228766	-0.440278
C	-0.7699811542	-1.9993148865	-1.3180380247	 0.259089
C	-0.2805938458	-2.7092297604	-2.1579726765	-0.427344
H	-1.7193821673	 1.1587080002	 1.0223294961	 0.291912
H	 0.5925001976	-0.1604817054	 0.056511537	 0.12058
H	-0.2648635799	-2.1410765538	 1.3644464103	 0.127597
H	-1.7261544921	-1.1641480852	 1.871599244	 0.130365
H	-2.7933652978	-0.1178719904	-1.5770666039	 0.154505
H	-3.3650429925	-1.6488752429	-0.9377089489	 0.152607
H	-4.7109618858	 1.0139478579	 2.0075727051	 0.207859
H	 0.1591259553	-3.335452877	-2.8939243751	 0.191552
76.981	128.117	159.8868	170.328	212.4034	303.9507	342.2983	377.4697	423.5668	473.7045	493.6363	522.175	544.7937	575.7865	619.508	657.7674	659.0847	713.3277	797.0944	863.7373	914.5407	963.4952	988.4771	1019.6391	1059.5337	1115.6726	1156.7148	1212.16	1243.8544	1282.8277	1324.9091	1369.3289	1443.9244	1465.9182	1480.1788	2224.9264	2229.7223	3030.894	3063.9716	3134.872	3178.3587	3228.0838	3499.2723	3503.6992	3760.7174
OC1CC1(CC#C)C#C	O[C@H]1C[C@]1(CC#C)C#C	
InChI=1S/C8H8O/c1-3-5-8(4-2)6-7(8)9/h1-2,7,9H,5-6H2	InChI=1S/C8H8O/c1-3-5-8(4-2)6-7(8)9/h1-2,7,9H,5-6H2/t7-,8+/m0/s1
