19
gdb 62961	2.092	1.8754	1.42202	2.9273	75.16	-0.2496	0.0687	0.3183	1018.3563	0.157143	-422.966689	-422.958128	-422.957184	-422.999199	33.705	
C	-0.1143572295	 1.5979983815	-0.0939996754	-0.456974
C	 0.0398402543	 0.0860626901	-0.0076807858	 0.303343
O	-1.2201297453	-0.5577891407	-0.0773589002	-0.463781
C	 1.0805748222	-0.6104275436	-0.922236735	-0.102566
C	 2.4917303038	-0.2573651483	-0.5469067209	-0.308294
C	 1.7491656287	-1.2701305655	 0.285524928	-0.147153
C	 0.7953900148	-0.5343560493	 1.2033954775	 0.450875
C	 0.9799270599	-0.0481131127	 2.5729436333	-0.272867
O	 0.1094219309	-1.1501380776	 2.2639757733	-0.271823
H	 0.844719919	 2.1142680964	 0.0014847618	 0.118289
H	-0.5503326228	 1.88394083	-1.0595635402	 0.107089
H	-0.7824986507	 1.9531808557	 0.6965537652	 0.129811
H	-1.6339032625	-0.2924114571	-0.9062151026	 0.275926
H	 0.8267148515	-1.0551297373	-1.8773579017	 0.086355
H	 3.2585125847	-0.6632450061	-1.1993739479	 0.117677
H	 2.7387026149	 0.7176936544	-0.1342797438	 0.108862
H	 2.0832521137	-2.2904802217	 0.4223769792	 0.10061
H	 1.8866390921	-0.3060266809	 3.1190588514	 0.112432
H	 0.4753471803	 0.8579204728	 2.9059210039	 0.11219
113.4172	201.1643	220.958	240.4388	259.2231	281.2342	312.1222	373.2018	429.3941	497.085	563.0923	591.3346	655.6326	779.8606	791.4146	863.3855	899.591	932.4628	940.58	960.5043	970.2462	1010.1835	1030.9528	1060.6306	1086.1947	1098.9526	1123.5225	1149.0969	1160.289	1172.3395	1195.7993	1217.7012	1286.701	1310.8814	1374.2905	1403.9078	1443.5784	1484.53	1489.1188	1498.3474	1535.4484	3024.9623	3078.3084	3092.8835	3111.1593	3118.9983	3165.806	3179.2675	3194.0083	3204.0497	3799.754
CC1(O)C2CC2C11CO1	C[C@@]1(O)[C@H]2C[C@H]2[C@]21CO2	
InChI=1S/C7H10O2/c1-6(8)4-2-5(4)7(6)3-9-7/h4-5,8H,2-3H2,1H3	InChI=1S/C7H10O2/c1-6(8)4-2-5(4)7(6)3-9-7/h4-5,8H,2-3H2,1H3/t4-,5+,6+,7-/m0/s1
