19
gdb 106255	2.60999	1.30555	1.05684	3.776	77.06	-0.2397	-0.0104	0.2293	1204.0966	0.156896	-423.00611	-422.996895	-422.995951	-423.040228	33.947	
C	 0.1391512827	 1.3336764489	 0.1622774264	-0.259468
O	-0.1513938589	-0.0263065301	-0.1250187994	-0.276829
C	 0.5444499612	-0.5172750932	-1.2033092177	 0.425677
C	 0.1066208686	-0.3053226755	-2.6656749104	-0.440505
C	 0.3902099015	-1.8176542135	-2.8782143247	 0.432607
O	 0.1895416416	-2.5588843983	-3.7982877101	-0.31679
C	 0.823768144	-2.0176617711	-1.4570071526	-0.292689
C	 1.9440279255	-1.0200346416	-1.099649892	-0.073256
C	 3.1133605392	-0.6829585152	-2.0014301014	-0.42136
H	 1.2043173349	 1.4762849465	 0.3905085522	 0.114
H	-0.1326536599	 1.9905886705	-0.6755859195	 0.117482
H	-0.4561442046	 1.6064578841	 1.0357753542	 0.134543
H	-0.9708627578	-0.127983401	-2.7392469043	 0.137666
H	 0.6404168095	 0.419956709	-3.2853093848	 0.115789
H	 0.640984222	-2.8872701371	-0.8377642964	 0.1148
H	 2.2218428365	-1.164935958	-0.0563816416	 0.104838
H	 2.8121596181	-0.5501468884	-3.0435085612	 0.132236
H	 3.6030035972	 0.2406589383	-1.673978094	 0.121084
H	 3.859896819	-1.4834018543	-1.9759027627	 0.130176
74.3377	101.3657	160.0323	178.2894	181.669	255.8325	316.8928	368.9169	433.9361	467.9548	479.303	589.7491	611.1895	683.2858	764.68	817.5965	913.8729	931.1992	971.6605	1007.2086	1020.2215	1047.7697	1093.4159	1112.6086	1126.1995	1141.8604	1179.919	1188.8124	1222.3875	1232.3718	1270.712	1322.3964	1416.1983	1437.0668	1459.2222	1487.1765	1489.3413	1497.7429	1503.6913	1507.58	1882.1344	2995.6793	3036.5815	3051.1077	3057.5899	3097.3166	3111.7741	3114.0702	3129.2697	3131.0339	3196.995
COC12CC(=O)C1C2C	CO[C@]12CC(=O)[C@H]1[C@H]2C	
InChI=1S/C7H10O2/c1-4-6-5(8)3-7(4,6)9-2/h4,6H,3H2,1-2H3	InChI=1S/C7H10O2/c1-4-6-5(8)3-7(4,6)9-2/h4,6H,3H2,1-2H3/t4-,6-,7+/m1/s1
