17
gdb 20232	4.10635	2.61434	2.21556	1.9857	68.64	-0.2386	0.0742	0.3128	688.6682	0.146462	-326.678931	-326.673553	-326.672609	-326.708122	22.854	
C	-0.0506488365	 1.5974759723	-0.0010079792	-0.232106
C	 1.4358337097	 2.0836973535	-0.0130253293	-0.232104
C	 2.2560745593	 0.7845252219	 0.01282716	-0.024902
C	 2.110085812	-0.0565715441	 1.2810696305	-0.047768
C	 0.6890678046	-0.5213890258	 1.29250021	-0.047765
C	 0.0558509915	 0.0648345374	 0.0305296862	-0.024903
C	 1.4042534764	-0.3499263231	-0.6101983034	-0.014159
N	 1.7298912607	-1.316764323	 0.5565933394	-0.179393
H	-0.6074673376	 1.9779422341	 0.8608323299	 0.101686
H	-0.5816995815	 1.9346293095	-0.89732423	 0.098576
H	 1.6518656288	 2.665123676	-0.9154373152	 0.098577
H	 1.6727030085	 2.7238659969	 0.8423374368	 0.101686
H	 3.2829360421	 0.8594922176	-0.3466929141	 0.073256
H	 2.7441656389	-0.0766847004	 2.1602857992	 0.089925
H	 0.2022900418	-0.9081316658	 2.1807349448	 0.089925
H	-0.8219322061	-0.4831956595	-0.313676362	 0.073257
H	 1.5052270075	-0.6839718876	-1.6408006936	 0.076211
170.4059	347.1156	457.7231	647.0921	678.9025	755.9417	771.8427	793.0583	819.9119	820.0612	868.4379	887.7964	892.8284	930.1958	939.94	999.043	1008.4177	1032.9455	1044.8397	1060.672	1070.2505	1131.7494	1145.93	1153.1636	1195.9312	1233.7929	1243.0072	1265.718	1277.1051	1283.4041	1319.9156	1354.6042	1360.0193	1368.8509	1483.7686	1504.3162	3039.5735	3051.0077	3074.3796	3095.0778	3108.0212	3108.9273	3138.3697	3171.622	3183.6351
C1CC2C3C4C1C2N34	C1C[C@H]2[C@H]3[C@H]4[C@@H]1[C@@H]2N34	
InChI=1S/C7H9N/c1-2-4-5-3(1)6-7(4)8(5)6/h3-7H,1-2H2	InChI=1S/C7H9N/c1-2-4-5-3(1)6-7(4)8(5)6/h3-7H,1-2H2/t3-,4+,5-,6+,7-,8?
