17
gdb 48754	3.21615	1.3694	1.13675	2.4837	74.67	-0.2473	-0.0389	0.2084	1085.68	0.136157	-421.834403	-421.826728	-421.825784	-421.8666	29.464	
O	-0.4238673333	 0.593731826	 0.7437859082	-0.257339
C	 0.2006831823	 0.9896289787	-0.2075712127	 0.111765
C	 1.3992218186	 1.8779195709	-0.1171642973	 0.276788
C	 2.0222920011	 2.1014884113	 1.2411560332	-0.290001
C	 3.2450823462	 3.0375548831	 1.1814781012	-0.274094
C	 2.9942138486	 4.2551111168	 0.3317980157	-0.081181
C	 2.184843853	 4.2228160928	-0.7284428922	-0.037784
C	 1.4895387774	 2.9742494723	-1.1247102981	-0.046087
O	 2.2690810717	 1.7744536045	-1.2512784631	-0.283997
H	-0.0677504749	 0.7208025526	-1.2536153625	 0.085292
H	 1.245672999	 2.5269092903	 1.8866243306	 0.128723
H	 2.299893137	 1.1404135398	 1.684917624	 0.12186
H	 3.5282484661	 3.3325624863	 2.1967991427	 0.109463
H	 4.1012525255	 2.4867273226	 0.7720249586	 0.135684
H	 3.5099049401	 5.1750328911	 0.5921805178	 0.102823
H	 2.0075660959	 5.1046709144	-1.3354776677	 0.097961
H	 0.7074316455	 3.0587024966	-1.8777180086	 0.100125
96.5324	162.4178	205.4492	229.9835	349.4495	363.5794	432.737	485.9538	546.2294	640.6478	699.6812	714.4038	763.9036	826.7654	850.428	896.3706	965.8077	983.8078	993.8692	1027.9873	1056.4023	1068.2693	1103.826	1184.5263	1205.0337	1235.7826	1274.4494	1307.7203	1348.0612	1379.5742	1405.1411	1415.9552	1443.0909	1474.9585	1484.5579	1704.8263	1821.2094	2891.3036	3030.582	3049.892	3075.7049	3091.5249	3123.6752	3164.9533	3189.1507
O=CC12CCC=CC1O2	O=C[C@]12CCC=C[C@H]1O2	
InChI=1S/C7H8O2/c8-5-7-4-2-1-3-6(7)9-7/h1,3,5-6H,2,4H2	InChI=1S/C7H8O2/c8-5-7-4-2-1-3-6(7)9-7/h1,3,5-6H,2,4H2/t6-,7-/m1/s1
