17
gdb 22973	2.86425	0.99008	0.84265	4.8557	81.08	-0.2146	-0.104	0.1105	1385.1993	0.132555	-455.072	-455.062008	-455.061064	-455.107983	34.34	
O	-0.2401192187	 0.5374070001	 0.3510850257	-0.211742
N	-0.0350796136	 1.5224004175	-0.3258010381	-0.074849
C	 1.3288580516	 1.9889430307	-0.3539218706	 0.223468
C	 2.5071877421	 1.1608424601	 0.0243755818	 0.101176
O	 2.5029503534	 0.0034443034	 0.3512741485	-0.241561
C	 1.5296899521	 3.2413209492	-0.8241433323	-0.061912
C	 0.4789300008	 4.2030345375	-1.2399667044	-0.270881
C	-0.0264149766	 5.0870874034	-0.0424625181	-0.148231
N	-0.7393170439	 4.4019553026	 1.0139630783	-0.482876
H	-0.1356359389	 3.7694446727	 1.5279068431	 0.235948
H	-1.5018572882	 3.8439565788	 0.6429865588	 0.244492
H	 3.4611647049	 1.7364397262	-0.0553943923	 0.072435
H	 2.559960403	 3.5991565781	-0.8359557775	 0.123187
H	 0.8779388737	 4.8736314425	-2.0088727	 0.112976
H	-0.3840949465	 3.6704170148	-1.647071347	 0.139302
H	 0.8216931784	 5.6230651014	 0.3975685918	 0.115287
H	-0.6870998535	 5.8455391011	-0.4764868377	 0.123782
48.6165	63.7486	110.4307	140.1515	167.0361	221.5971	227.8441	293.8795	339.8896	409.9002	447.9334	495.0076	523.2008	682.9997	811.5917	823.1615	851.2693	870.1564	941.3513	981.0658	1028.3908	1053.7236	1091.7314	1139.9293	1213.1864	1264.1776	1315.1396	1340.7879	1383.061	1390.3646	1443.1231	1479.6929	1488.0848	1609.6707	1663.1861	1669.8302	1820.3953	2831.1049	3037.9775	3047.4558	3082.4724	3109.4094	3132.742	3509.2805	3589.1178
[O-]N=C(C=O)C1CC[NH2+]1	O=NC(=CCCN)C=O	
InChI=1S/C5H8N2O2/c8-3-5(7-9)4-1-2-6-4/h3-4,6,9H,1-2H2	InChI=1S/C5H8N2O2/c6-3-1-2-5(4-8)7-9/h2,4H,1,3,6H2
