12
gdb 23632	3.98517	1.84556	1.2614	3.169	61.77	-0.2207	-0.0486	0.1721	855.3169	0.084318	-422.655017	-422.64884	-422.647895	-422.685456	23.58	
F	 0.0308853785	 0.0283471134	 0.0029869009	-0.064647
C	-0.0322608369	 1.3557107333	 0.0107745502	 0.332686
C	-1.2175571632	 1.9938211042	 0.0303767987	-0.32199
C	-1.2651845033	 3.4399407475	 0.0385581736	 0.402126
N	-2.334098813	 4.121207282	 0.0568159209	-0.536015
O	-0.0154364306	 4.0940366461	 0.0248319863	-0.238055
C	 1.1411812251	 3.4090143901	 0.0053802956	 0.098064
C	 1.213394642	 2.0672432214	-0.0026174307	-0.314742
H	-2.159184904	 1.4635579127	 0.0405456971	 0.139236
H	-2.1303337718	 5.1201302036	 0.0592352599	 0.223652
H	 1.9984159986	 4.0710165102	-0.0029330994	 0.148565
H	 2.1599223387	 1.5471156556	-0.0183285732	 0.131121
139.3059	213.5721	351.489	402.7156	458.3257	501.2424	568.9544	666.8486	693.0626	751.9988	772.1941	829.6286	844.5677	880.6148	937.4671	992.8829	1061.2983	1097.9405	1224.0856	1230.444	1301.5404	1346.6538	1472.1599	1618.9548	1694.484	1750.6148	3216.1798	3242.5867	3248.2336	3501.1484
FC1=CC(=N)OC=C1	FC1=CCOC(=C1)[NH]	
InChI=1S/C5H4FNO/c6-4-1-2-8-5(7)3-4/h1-3,7H	InChI=1S/C5H5FNO/c6-4-1-2-8-5(7)3-4/h1,3,7H,2H2
