21
gdb 39212	2.41741	1.94311	1.46786	1.7412	80.22	-0.254	0.0746	0.3286	987.9703	0.186266	-387.070495	-387.063381	-387.062437	-387.101619	29.877	
C	 0.0163707408	 1.6083943679	 0.0051495198	-0.221317
C	 1.5614258757	 1.4625802459	 0.0899620084	 0.005405
C	 1.3267660444	 0.0212127287	 0.639791886	-0.241128
C	-0.0951985271	 0.0606718497	-0.0016166346	-0.038356
C	-0.1514412762	-0.5395707005	-1.4008288167	 0.040051
O	-0.2907068847	 0.3441096588	-2.5287475761	-0.257712
C	 0.9187376784	-0.4092630606	-2.4027754409	 0.075242
C	 2.2353779286	 0.308730364	-2.1863202062	-0.248066
C	 2.2626261267	 1.5543027025	-1.2803038725	-0.213098
H	-0.400936243	 2.0254976943	 0.9255432944	 0.089768
H	-0.3937369755	 2.135523557	-0.8572183742	 0.11456
H	 2.0522974202	 2.1534997834	 0.7811404826	 0.062358
H	 2.0034586173	-0.7787301195	 0.3287263653	 0.092648
H	 1.2684125122	 0.0196714903	 1.7316626999	 0.095874
H	-0.9031198638	-0.3664600058	 0.5977205587	 0.060912
H	-0.7795458427	-1.4279171908	-1.4826957058	 0.085072
H	 0.9984594687	-1.2169126319	-3.1355156184	 0.082181
H	 2.9378125623	-0.4436660403	-1.8029134327	 0.106798
H	 2.6294333818	 0.5965636369	-3.1695240932	 0.10439
H	 1.8331371005	 2.4037514992	-1.8241706482	 0.110143
H	 3.3197540254	 1.8001701807	-1.1254121156	 0.094274
141.5791	224.3167	302.1446	319.5925	350.9054	409.3646	493.1922	543.0449	654.8814	721.8895	755.9967	784.1079	802.6254	848.0942	871.9878	895.1464	920.978	926.503	966.9718	990.4516	1046.8571	1071.7046	1078.5006	1097.0939	1117.871	1134.2775	1152.1015	1174.917	1187.0274	1230.8644	1260.6577	1270.1347	1283.3227	1294.1955	1314.4603	1354.6376	1362.9945	1382.6869	1400.2239	1404.4951	1466.4953	1471.5599	1488.3532	1492.2204	1505.8035	3014.5541	3026.8271	3042.652	3051.8831	3057.1532	3060.027	3066.5736	3068.4813	3072.7324	3096.773	3106.6043	3129.7727
C1C2CC1C1OC1CC2	C1[C@H]2C[C@@H]1[C@H]1O[C@H]1CC2	
InChI=1S/C8H12O/c1-2-7-8(9-7)6-3-5(1)4-6/h5-8H,1-4H2	InChI=1S/C8H12O/c1-2-7-8(9-7)6-3-5(1)4-6/h5-8H,1-4H2/t5-,6+,7-,8+/m0/s1
