18
gdb 54509	3.15889	1.40993	1.13172	3.3758	77.82	-0.2336	0.0052	0.2388	1098.1776	0.149184	-401.98684	-401.978879	-401.977935	-402.019356	31.392	
N	 0.0213254237	 1.210919169	-0.3805671267	-0.544556
C	-0.0684554063	 0.0559595524	 0.3534871342	 0.316488
O	 0.8191095097	-0.3065442665	 1.1055937426	-0.374936
C	-1.3379603589	-0.7156399598	 0.1734616603	 0.241173
C	-1.6994514329	-1.724468553	 1.2550450101	-0.308445
C	-1.2647652479	-2.2342880829	-0.0795313926	-0.067102
C	-2.3238928569	-2.56928975	-1.1292664025	-0.285999
C	-3.0440016312	-1.2543803974	-1.3474976464	-0.078518
C	-2.4875033542	-0.2530320752	-0.6609853385	-0.203581
H	 0.9222006434	 1.6629220293	-0.392843004	 0.257414
H	-0.5819409562	 1.3559594689	-1.172839301	 0.255901
H	-0.9791400867	-1.8085966331	 2.0605652339	 0.141983
H	-2.7458437739	-1.7853356799	 1.5353039832	 0.111226
H	-0.2874762783	-2.6973195355	-0.1381550544	 0.108279
H	-1.8707423306	-2.9373852023	-2.0592700776	 0.112104
H	-3.0083750562	-3.3571388805	-0.7888498657	 0.116659
H	-3.9301327868	-1.1704002572	-1.9667154971	 0.099153
H	-2.8471177098	 0.7704403737	-0.6447586078	 0.102757
63.2675	160.9913	200.5841	283.5404	366.8425	391.6787	400.0818	479.6561	499.5342	559.8409	650.8809	708.2948	746.2625	756.7547	775.2822	840.8104	905.0099	922.1262	942.7592	954.5905	974.0496	1036.6105	1048.2107	1080.0903	1092.9327	1099.69	1137.5555	1191.9699	1213.121	1256.3256	1307.5289	1350.2177	1367.1875	1409.6074	1462.4696	1478.3582	1614.4103	1665.8645	1780.8196	3017.3345	3044.4416	3131.8146	3179.1101	3192.062	3205.4642	3232.645	3587.7699	3717.7625
NC(=O)C12CC1CC=C2	NC(=O)[C@]12C[C@H]1CC=C2	
InChI=1S/C7H9NO/c8-6(9)7-3-1-2-5(7)4-7/h1,3,5H,2,4H2,(H2,8,9)	InChI=1S/C7H9NO/c8-6(9)7-3-1-2-5(7)4-7/h1,3,5H,2,4H2,(H2,8,9)/t5-,7-/m1/s1
