18
gdb 85455	2.69013	1.51057	1.08091	2.7026	74.	-0.2456	0.0279	0.2735	1119.4638	0.147585	-439.088216	-439.079933	-439.078989	-439.12107	32.008	
O	 0.2648284171	 1.0486499731	-0.7150432817	-0.432935
C	 0.0552339234	-0.1263612413	 0.0383756852	 0.032704
C	 0.3246038591	-0.0124629432	 1.5484021443	-0.339073
C	-0.6610316053	-0.9951279488	 2.1392717174	 0.402504
N	-0.5990955216	-1.5186364715	 3.2846927678	-0.543302
O	-1.6470977566	-1.2519946668	 1.2194901274	-0.272062
C	-1.4212720203	-0.4965484822	 0.0355557599	 0.426482
C	-2.4999838903	 0.4385086468	-0.4203055396	-0.319631
C	-2.2158402996	-0.8544858848	-1.1701797286	-0.338277
H	 1.2104485295	 1.1556669761	-0.8522937035	 0.293076
H	 0.6336635493	-0.9639929429	-0.3806829667	 0.085414
H	 1.345300256	-0.2350735562	 1.8604844864	 0.12844
H	 0.0725313537	 1.0028072387	 1.8756217767	 0.140106
H	-1.3961956626	-2.1394939269	 3.4376530056	 0.221549
H	-3.3996889715	 0.4750126889	 0.1832523847	 0.123734
H	-2.1971075283	 1.3737312127	-0.8746000095	 0.139547
H	-1.7239275368	-0.7897686017	-2.1350594675	 0.124372
H	-2.9308050153	-1.6631519601	-1.0699867984	 0.127354
92.8425	108.2594	225.723	240.1702	257.6198	320.3958	401.7744	501.1569	502.6714	529.5024	545.4566	628.6749	736.6619	766.9852	852.6564	886.1244	895.5715	924.1203	959.2378	981.3079	1010.1971	1048.1163	1053.0844	1080.2108	1094.1068	1129.9861	1167.7619	1193.0209	1226.3083	1239.4532	1266.9257	1322.3258	1346.9699	1377.2563	1442.8175	1446.795	1472.6003	1497.9781	1785.0172	2982.9754	3055.2328	3133.5843	3134.3818	3146.111	3223.3309	3243.8018	3467.7193	3837.1504
OC1CC(=N)OC11CC1	O[C@H]1C[C]([NH])OC21CC2	
InChI=1S/C6H9NO2/c7-5-3-4(8)6(9-5)1-2-6/h4,7-8H,1-3H2	InChI=1S/C6H9NO2/c7-5-3-4(8)6(9-5)1-2-6/h4,7-8H,1-3H2/t4-/m0/s1
