16
gdb 47674	2.32313	1.68909	1.07193	4.771	67.17	-0.2698	-0.0106	0.2592	1082.1496	0.125463	-475.055986	-475.048211	-475.047267	-475.088892	28.841	
N	-0.1252904924	 1.3208641728	-0.4618708887	-0.465322
C	-0.0031780251	 0.1425503237	-0.0212929573	 0.353743
C	-1.2217952229	-0.7542914408	 0.0672762592	-0.3985
C	-1.6132175157	-1.2671975143	 1.4518371914	 0.398391
O	-2.6418415391	-0.97731608	 1.9906603713	-0.300894
O	-0.759104334	-2.1238689967	 2.0691003429	-0.217823
C	 0.4962386845	-2.4495944278	 1.4691496254	-0.100402
C	 1.434299359	-1.2587487272	 1.3612311454	-0.092749
O	 1.2281076744	-0.3950067846	 0.2431762286	-0.247037
H	 0.7893148464	 1.7771840949	-0.4914193559	 0.226762
H	-2.0686511412	-0.1794210872	-0.2992187943	 0.170371
H	-1.0673158853	-1.615274756	-0.5953017282	 0.143161
H	 0.9411543036	-3.1799363799	 2.1493951919	 0.139388
H	 0.3594042813	-2.9344771037	 0.4953076358	 0.126662
H	 1.3827531333	-0.681096274	 2.2938366433	 0.131752
H	 2.4580807335	-1.6227782095	 1.2389769791	 0.132496
68.8709	114.7753	145.5214	312.3549	327.11	381.4239	449.6262	499.7951	515.2508	589.759	610.5342	677.4881	832.7826	846.5863	905.4217	933.791	976.8513	984.025	1039.3804	1098.2364	1110.7686	1137.4545	1177.8958	1247.8684	1274.9653	1303.7427	1316.9466	1345.7209	1409.0467	1427.0375	1458.3938	1490.9906	1498.81	1743.6912	1861.1616	3024.8304	3039.1844	3045.6429	3100.5006	3111.2056	3172.7029	3463.6288
N=C1CC(=O)OCCO1	[NH][C]1CC(=O)OCCO1	
InChI=1S/C5H7NO3/c6-4-3-5(7)9-2-1-8-4/h6H,1-3H2	InChI=1S/C5H7NO3/c6-4-3-5(7)9-2-1-8-4/h6H,1-3H2
