17
gdb 20211	3.26885	2.79723	2.17541	0.2399	65.92	-0.2319	0.09	0.3219	706.0965	0.146012	-363.844715	-363.838919	-363.837975	-363.874474	23.731	
C	-0.0378549136	 1.5373182878	-0.2097368706	-0.102908
O	 1.2295253916	 2.0584196212	 0.1838457223	-0.276345
C	 2.0040222576	 1.0398695962	 0.8308606831	 0.084741
C	 1.7525890162	 1.0883930787	 2.3451137028	-0.213465
C	 0.3609845249	 0.4297908987	 2.4652316995	-0.168983
N	 0.2515230349	-0.5289580742	 1.3365876344	-0.112062
C	 0.016550014	 0.0369378102	-0.0100899209	-0.044947
C	 1.3885528196	-0.3028296798	 0.4258127783	-0.073713
H	-0.840173523	 2.0158681099	 0.3709906829	 0.102419
H	-0.2116773201	 1.7689348495	-1.2687122871	 0.10627
H	 3.0493516567	 1.177107844	 0.5448438319	 0.081372
H	 2.5044210451	 0.4855090397	 2.8673213986	 0.100628
H	 1.7959903314	 2.1083885077	 2.7337917191	 0.109595
H	 0.2437231359	-0.1298660722	 3.3967036879	 0.108724
H	-0.4447269206	 1.1708817769	 2.428288542	 0.109077
H	-0.5765248638	-0.593267201	-0.6663112144	 0.097495
H	 1.9789707633	-1.1469495033	 0.0868501299	 0.092101
128.3812	277.0719	383.787	450.0039	592.3457	672.6905	741.3492	761.4678	795.8704	814.4317	856.5195	880.5346	929.8648	939.2622	953.1502	996.3875	1007.5575	1020.5245	1068.9732	1077.0593	1106.0471	1138.5142	1192.4806	1211.1644	1223.2966	1253.3854	1291.1798	1296.5563	1320.1003	1334.7683	1349.8668	1364.3116	1408.7915	1478.4161	1505.8588	1531.5729	2996.2991	3033.5435	3044.1185	3047.2432	3088.6279	3091.9059	3113.9255	3151.8097	3170.6958
C1OC2CCN3C1C23	C1O[C@H]2CCN3[C@@H]1[C@@H]23	
InChI=1S/C6H9NO/c1-2-7-4-3-8-5(1)6(4)7/h4-6H,1-3H2	InChI=1S/C6H9NO/c1-2-7-4-3-8-5(1)6(4)7/h4-6H,1-3H2/t4-,5-,6-,7?/m0/s1
