14
gdb 132977	3.29069	1.4597	1.01765	6.5432	69.37	-0.2354	-0.0359	0.1995	1079.4013	0.102023	-474.18525	-474.177523	-474.176579	-474.218217	27.57	
C	-0.0263023645	 1.4770856405	 0.0409092128	-0.352859
N	-0.0060676316	 0.0195696894	 0.0137249071	-0.152081
C	-0.0422637911	-0.7191115424	-1.1645992698	 0.092204
N	-0.0260517841	-1.9886109795	-1.2305296243	-0.2587
C	 0.0330841249	-2.723558815	-0.0236270929	 0.372827
N	 0.0502858795	-3.9937154067	-0.0789377989	-0.503922
N	 0.0718000297	-2.0066094292	 1.2053621524	-0.38483
C	 0.0508840082	-0.7470947166	 1.1492677167	 0.410162
F	 0.0842684892	-0.0162080746	 2.2527922741	-0.062043
H	 0.8772539369	 1.8733423899	 0.5110222515	 0.161393
H	-0.0738349619	 1.8341689922	-0.9892717893	 0.150845
H	-0.899524092	 1.8472270461	 0.5839421081	 0.16142
H	-0.0874650978	-0.1155704067	-2.0693288116	 0.140889
H	 0.0940756546	-4.3597774574	 0.8729451741	 0.224694
68.875	97.2711	174.2435	216.9236	306.015	383.364	450.43	491.6051	568.6542	592.1391	712.0374	758.1953	786.533	814.7955	908.1486	936.0075	961.3998	1032.7583	1109.9449	1153.8232	1242.945	1296.68	1303.2771	1408.7045	1419.3404	1480.9669	1484.4224	1517.1875	1653.8649	1712.9019	1780.9966	3052.1752	3121.8215	3143.8829	3154.8793	3485.9128
CN1C=NC(=N)N=C1F	CN1C=N[C@@H]([NH])N=C1F	
InChI=1S/C4H5FN4/c1-9-2-7-4(6)8-3(9)5/h2,6H,1H3	InChI=1S/C4H6FN4/c1-9-2-7-4(6)8-3(9)5/h2,4,6H,1H3/t4-/m1/s1
