19
gdb 108074	2.66577	1.61495	1.25246	3.0824	74.75	-0.2362	0.0643	0.3005	1048.8362	0.159493	-422.965909	-422.957772	-422.956828	-422.998424	32.322	
O	 0.1045495611	 1.2006070856	-0.507677117	-0.42634
C	-0.0698360907	-0.035959647	 0.1714669526	-0.186151
C	-1.498172852	-0.4994342616	 0.1697689108	 0.290474
C	-2.6574761431	-0.1160889213	 1.0894531784	-0.280371
C	-3.4162043614	-1.308589211	 0.4435879985	-0.070424
C	-3.6374599693	-0.8557608714	-1.0322129915	-0.292783
C	-2.124195599	-0.9679084052	-1.1510003271	 0.34551
O	-1.3411605698	-0.8602039926	-2.2878027731	-0.473011
C	-2.0212063352	-1.9244346337	 0.0177948276	-0.228103
H	-0.1493477001	 1.0388435004	-1.4236922379	 0.293244
H	 0.5673371848	-0.8201940546	-0.2648052841	 0.088702
H	 0.2743912081	 0.129780663	 1.1981366619	 0.105186
H	-2.4068860566	-0.308436424	 2.1372120439	 0.096346
H	-3.1053774318	 0.8794720562	 0.9940909736	 0.094622
H	-4.2019048999	-1.8391607714	 0.9755815929	 0.075383
H	-4.1452695493	-1.6295099856	-1.6178776381	 0.089574
H	-4.1164257464	 0.1155234014	-1.2011158641	 0.094572
H	-1.5595424042	-1.5802291863	-2.8893637206	 0.290204
H	-1.545384115	-2.8844411708	 0.1575729932	 0.093367
75.0122	141.0215	236.5397	279.9766	323.9973	386.3187	431.8651	433.9226	448.4938	459.6805	643.8773	683.1169	716.298	801.97	807.0832	874.4141	879.5128	895.5408	936.4252	981.5007	1000.8114	1039.7468	1065.7954	1076.0611	1099.2751	1108.0226	1134.7162	1153.8446	1207.6735	1222.7035	1251.822	1264.6767	1278.1444	1292.364	1363.0853	1392.801	1426.4634	1437.7524	1491.5464	1495.5484	1513.2584	2987.5008	3028.4142	3035.3212	3067.1689	3084.3251	3090.7152	3144.9037	3220.7682	3797.9963	3799.6334
OCC12CC3CC1(O)C23	OC[C@@]12C[C@H]3C[C@]1(O)[C@@H]23	
InChI=1S/C7H10O2/c8-3-6-1-4-2-7(6,9)5(4)6/h4-5,8-9H,1-3H2	InChI=1S/C7H10O2/c8-3-6-1-4-2-7(6,9)5(4)6/h4-5,8-9H,1-3H2/t4-,5+,6+,7-/m0/s1
