14
gdb 19673	5.97282	1.65663	1.54488	3.0272	64.79	-0.2608	0.0245	0.2852	808.0802	0.109229	-341.523471	-341.517508	-341.516564	-341.553547	23.142	
N	-0.1114744894	-1.0960710525	-0.1473965638	-0.322577
C	-0.0371572584	 0.0550796174	-0.0686163786	 0.26742
C	 0.0536048976	 1.5037983664	 0.0270892978	-0.179719
C	-0.0457834182	 1.9976170609	 1.4824632386	-0.029556
C	 1.4235673237	 1.9632704645	 1.6611029411	-0.038124
C	 1.5271355645	 2.0313538401	 0.0886397831	-0.079872
C	 1.3004027205	 3.5395558523	 0.2697444842	-0.162874
N	 0.7218250903	 3.2769265877	 1.6300438845	-0.148484
H	-0.6002879483	 1.9647692063	-0.721180842	 0.120512
H	-0.8420468626	 1.8125684481	 2.1895032326	 0.123659
H	 2.069799495	 1.623404305	 2.4578438349	 0.115573
H	 2.2855026151	 1.6031483682	-0.5617466927	 0.103336
H	 2.2280879785	 4.1020335946	 0.3955876552	 0.123069
H	 0.6400363516	 4.0593241011	-0.433956915	 0.107638
142.6938	164.4072	386.0332	436.2461	501.8047	541.2725	749.474	771.7385	796.4639	829.6474	865.9509	919.363	931.7569	967.0766	972.5202	998.188	1042.0863	1056.3116	1079.3279	1143.9647	1162.1536	1171.4098	1200.8728	1221.2657	1249.3349	1296.8246	1326.4641	1346.6125	1508.8249	2355.8349	3039.3371	3054.8517	3114.0413	3154.959	3216.7666	3230.05
N#CC1C2C3C1CN23	N#C[C@H]1[C@H]2[C@H]3[C@@H]1CN23	
InChI=1S/C6H6N2/c7-1-3-4-2-8-5(3)6(4)8/h3-6H,2H2	InChI=1S/C6H6N2/c7-1-3-4-2-8-5(3)6(4)8/h3-6H,2H2/t3-,4-,5+,6-,8?/m1/s1
