21
gdb 107049	3.79891	1.07497	0.95601	1.9022	77.89	-0.2569	0.08	0.3369	1304.8028	0.182723	-424.228281	-424.219281	-424.218336	-424.261998	34.387	
C	 0.249219084	 1.5799121347	 0.0533313404	-0.402515
C	 0.0696109792	 0.0610672393	 0.0194180687	 0.004619
C	 0.7050386613	-0.6217693214	-1.2216228967	-0.230384
C	 1.0740838748	-2.056122793	-0.7787656378	-0.281937
C	 1.312114755	-1.9292761228	 0.7170153725	 0.385273
C	 1.5549402286	-3.1353449585	 1.5828542239	-0.154794
O	 2.7820303785	-3.7700732242	 1.256264355	-0.417042
O	 2.1490860728	-0.7920690879	 1.0468416743	-0.314381
C	 0.7223779591	-0.6685427309	 1.1823695771	-0.02351
H	 1.312949466	 1.8360788404	 0.0890966774	 0.129919
H	-0.182926334	 2.0472425643	-0.8374190115	 0.114699
H	-0.2358231737	 2.0220451684	 0.9300943171	 0.111032
H	-1.0037665326	-0.1750427345	 0.0576324657	 0.073129
H	 0.037532461	-0.6070053955	-2.0868649699	 0.096866
H	 1.6124722174	-0.0795471448	-1.500057455	 0.114585
H	 0.2421047409	-2.7529369433	-0.9411186936	 0.100757
H	 1.9427789048	-2.4596381786	-1.3059132349	 0.114843
H	 1.5255034737	-2.836210266	 2.6410549273	 0.091743
H	 0.7722255607	-3.8843698905	 1.4201655919	 0.109103
H	 3.4720220873	-3.1066815984	 1.371497441	 0.292383
H	 0.3663090552	-0.5232670367	 2.2007816369	 0.085612
66.1653	122.0315	160.7703	212.7003	236.6555	291.5335	337.6154	389.661	403.8252	429.2094	545.9599	622.2441	660.3727	709.0156	820.5008	850.7142	866.6814	927.6052	940.1821	966.7562	985.2256	996.6819	1029.9269	1062.9565	1076.8789	1130.4063	1145.0036	1179.103	1209.5694	1221.3105	1263.7727	1285.5553	1314.9424	1335.9713	1338.8405	1365.0579	1387.4963	1408.9772	1425.2906	1462.1867	1487.6501	1491.5703	1494.9431	1499.0602	1502.1469	2995.2355	3003.4934	3031.9955	3034.8824	3065.1425	3073.3053	3093.2758	3098.4479	3106.7553	3112.1919	3130.409	3800.2623
CC1CCC2(CO)OC12	C[C@H]1CC[C@@]2(CO)O[C@@H]12	
InChI=1S/C7H12O2/c1-5-2-3-7(4-8)6(5)9-7/h5-6,8H,2-4H2,1H3	InChI=1S/C7H12O2/c1-5-2-3-7(4-8)6(5)9-7/h5-6,8H,2-4H2,1H3/t5-,6-,7-/m0/s1
