14
gdb 11089	8.97331	1.06987	1.02409	1.8389	71.2	-0.2584	0.	0.2584	1104.3581	0.104705	-345.306827	-345.298922	-345.297978	-345.339795	28.672	
C	-0.4301432696	-1.1151689931	-0.5096796143	-0.457094
C	-0.1167122327	 0.0076305382	-0.2165081634	 0.331742
C	 0.2468371239	 1.3672578464	 0.1432339589	-0.025628
C	-0.1376704183	 1.8481630214	 1.5674217412	-0.310125
C	 1.3918375851	 1.9889264412	 1.7870114332	-0.025636
O	 1.6612572891	 1.528137789	 0.435378475	-0.287263
C	 1.9017405623	 3.3226836407	 2.0540014569	 0.33169
C	 2.3139379184	 4.4281127847	 2.2841876437	-0.45707
H	-0.7020292519	-2.1072770722	-0.7743494401	 0.205191
H	-0.0570077576	 2.0566122536	-0.6541355318	 0.114733
H	-0.6941519313	 2.7836300176	 1.5996533585	 0.129768
H	-0.6219130762	 1.0975424076	 2.1902304679	 0.129767
H	 1.8014116517	 1.2811632322	 2.5182030175	 0.114735
H	 2.6853433271	 5.4027523428	 2.4851498167	 0.20519
29.9692	115.2034	188.6667	216.0079	254.751	448.6811	480.0788	532.3602	599.6551	622.4841	624.2321	673.1863	673.4942	747.1524	782.754	904.5669	956.0843	996.0505	1006.1359	1060.4275	1097.2274	1147.2527	1247.4908	1254.7405	1284.4399	1350.5645	1377.8492	1487.0948	2234.6491	2236.045	3025.7689	3028.8295	3103.4461	3168.3527	3502.0765	3502.3546
C#CC1CC(O1)C#C	C#C[C@H]1C[C@@H](O1)C#C	
InChI=1S/C7H6O/c1-3-6-5-7(4-2)8-6/h1-2,6-7H,5H2	InChI=1S/C7H6O/c1-3-6-5-7(4-2)8-6/h1-2,6-7H,5H2/t6-,7-/m0/s1
