17
gdb 88404	2.19274	1.33107	0.96207	2.842	74.74	-0.2597	-0.0371	0.2226	1247.0568	0.131543	-421.773586	-421.763895	-421.762951	-421.809064	34.153	
C	-0.268225021	 1.4525251266	-0.1595998159	-0.433064
C	-0.1736960539	-0.0044805636	 0.214072781	 0.062341
O	 1.0655625373	-0.6854413144	-0.0325066997	-0.242964
C	 0.6390443653	-0.5380478154	 1.3170711256	 0.063102
C	 1.4918643291	 0.3164311387	 2.2613471955	-0.325231
C	 2.1114026144	-0.5445632989	 3.3856795114	 0.158203
O	 1.7090471978	-1.6299495299	 3.7008491901	-0.233087
C	 2.5433869646	 1.1039139234	 1.6316544289	 0.322879
C	 3.4633901243	 1.7343246618	 1.1847688543	-0.4412
H	 0.6164468542	 2.0096673762	 0.1520704832	 0.142344
H	-0.3729197637	 1.5556964	-1.2446071285	 0.132246
H	-1.1543175229	 1.9015660398	 0.3029893327	 0.120437
H	-1.0477814775	-0.5981187502	-0.0631046755	 0.093811
H	 0.3181336249	-1.4613173118	 1.7972220906	 0.121147
H	 0.8179803974	 1.0031013135	 2.8031013251	 0.144929
H	 2.9601835987	-0.054664692	 3.9062176288	 0.107569
H	 4.2619238411	 2.2909453962	 0.7595159222	 0.20654
41.0211	70.4326	132.0524	161.747	186.083	205.3666	234.1741	327.7295	396.4211	468.591	511.5157	619.8164	626.89	643.1056	667.0588	738.5528	791.771	891.6388	942.137	995.9274	1009.7725	1045.155	1087.7161	1118.4881	1173.7985	1185.6525	1237.5056	1263.5411	1322.6305	1386.2909	1412.9965	1417.4997	1465.3635	1492.9537	1508.5751	1837.811	2238.9017	2922.1599	2964.2397	3038.99	3081.8996	3098.565	3129.8649	3145.7692	3502.4403
CC1OC1C(C=O)C#C	C[C@H]1O[C@H]1[C@@H](C=O)C#C	
InChI=1S/C7H8O2/c1-3-6(4-8)7-5(2)9-7/h1,4-7H,2H3	InChI=1S/C7H8O2/c1-3-6(4-8)7-5(2)9-7/h1,4-7H,2H3/t5-,6-,7-/m1/s1
