23
gdb 60096	3.41872	1.04584	0.95919	1.0216	86.9	-0.2431	0.0872	0.3303	1371.5989	0.204964	-388.24708	-388.237828	-388.236884	-388.28174	35.766	
C	-0.0417389308	 1.5643463791	 0.0026390778	-0.384393
C	 0.0119719647	 0.0354809831	 0.0048069588	 0.120172
C	-1.3748301119	-0.5926495781	-0.0803730894	-0.387145
O	 0.7520205849	-0.4439868427	-1.1261280466	-0.310412
C	 2.1046586279	-0.6140568134	-0.9465119181	 0.443421
C	 2.841736476	-1.6002476126	 0.0237010894	-0.277343
C	 3.9429714052	-0.9097002306	-0.8289372455	-0.06051
C	 3.0319598132	-1.1231061236	-2.0734980121	-0.268249
C	 3.2107257598	 0.4412987776	-0.5979096945	-0.273384
H	 0.960688911	 1.99745736	 0.0449610122	 0.123013
H	-0.5312358673	 1.9220164902	-0.9088647719	 0.121654
H	-0.6077013917	 1.9310941572	 0.8654454159	 0.11057
H	 0.5064879935	-0.3106765907	 0.923732163	 0.072649
H	-1.8661509534	-0.2963763502	-1.0127001236	 0.123713
H	-1.3046948512	-1.683391937	-0.0631895054	 0.119488
H	-1.9999482756	-0.2683308759	 0.7572819682	 0.110414
H	 2.8311706912	-1.3597537139	 1.0904225105	 0.086952
H	 2.6794318594	-2.6668638238	-0.1533528138	 0.090533
H	 5.0139639365	-1.0847198602	-0.7661335431	 0.079933
H	 2.878761232	-2.154980067	-2.4004083635	 0.091103
H	 3.1864759667	-0.4469966687	-2.9184575925	 0.090861
H	 3.3850068953	 1.2278303488	-1.3372707676	 0.090344
H	 3.2228519446	 0.8324964523	 0.4232340818	 0.086617
35.2394	74.0228	154.4969	209.9781	246.0026	301.2397	316.9773	400.7956	440.0923	468.2964	551.7596	555.0783	673.0867	771.3817	801.2301	838.6834	886.2472	926.9328	938.4336	940.565	947.3953	956.7644	963.5334	986.7693	1007.4601	1091.6573	1097.8673	1131.3748	1136.0902	1143.6136	1147.7195	1158.928	1176.8891	1207.3371	1226.5894	1230.3252	1240.707	1312.0047	1363.2103	1389.0536	1399.093	1415.3826	1479.8934	1485.3014	1493.3504	1493.8524	1496.4783	1508.7715	1556.0427	3001.3388	3036.9085	3042.0263	3045.2926	3048.4723	3056.7892	3105.7999	3112.3313	3114.5863	3117.1765	3120.545	3120.9292	3123.9881	3148.6686
CC(C)OC12CC(C1)C2	CC(C)O[C@@]12C[C@@H](C1)C2	
InChI=1S/C8H14O/c1-6(2)9-8-3-7(4-8)5-8/h6-7H,3-5H2,1-2H3	InChI=1S/C8H14O/c1-6(2)9-8-3-7(4-8)5-8/h6-7H,3-5H2,1-2H3/t7-,8-
