16
gdb 85218	2.48279	1.23127	0.9422	3.0877	66.81	-0.2733	-0.0073	0.266	1231.101	0.123456	-475.074928	-475.066065	-475.065121	-475.109947	30.946	
C	-0.3689983641	 1.3686395983	 0.1660370938	-0.400838
C	 0.0915612368	-0.0674075623	 0.1050167093	 0.12916
O	 1.1787742462	-0.2620553337	-0.877043482	-0.254099
C	 2.0807176754	-0.6049355394	 0.0894508227	 0.432543
O	 3.249549396	-0.7908073235	-0.0204839858	-0.322701
C	 1.0429305055	-0.5891695268	 1.221259505	-0.170288
N	 1.3569777109	 0.2043707084	 2.3726054532	-0.288522
C	 0.8730038793	-0.1105504855	 3.6124476434	 0.155788
O	 0.0780943042	-0.9961990609	 3.8301671458	-0.308544
H	 0.4585877511	 2.0434936775	 0.4024070926	 0.11929
H	-0.7975357878	 1.6711665937	-0.7931971284	 0.143053
H	-1.1363442532	 1.4794888052	 0.9383378112	 0.141249
H	-0.7266220905	-0.7506402079	-0.1337107838	 0.109972
H	 0.7678648508	-1.5905793794	 1.5599887542	 0.155806
H	 2.0757535431	 0.9076029885	 2.3015054826	 0.265385
H	 1.2889339162	 0.5473795077	 4.3985720561	 0.092748
25.5443	99.7101	145.5868	178.473	211.7249	227.2954	304.7461	387.1566	487.0377	500.1737	567.4892	669.0523	751.5131	766.0878	836.8072	868.8775	968.3306	1030.7661	1034.5832	1046.5254	1125.2416	1139.3393	1156.6344	1201.7907	1240.3884	1317.8228	1357.5282	1382.7695	1416.3317	1426.1182	1481.7268	1492.2185	1520.1952	1810.1312	1936.2616	2960.982	3046.04	3087.7657	3104.0275	3122.3129	3126.293	3631.3041
CC1OC(=O)C1NC=O	C[C@H]1OC(=O)[C@H]1NC=O	
InChI=1S/C5H7NO3/c1-3-4(6-2-7)5(8)9-3/h2-4H,1H3,(H,6,7)	InChI=1S/C5H7NO3/c1-3-4(6-2-7)5(8)9-3/h2-4H,1H3,(H,6,7)/t3-,4+/m1/s1
