14
gdb 129332	5.70865	0.97036	0.82938	2.6577	78.13	-0.2412	-0.0691	0.1721	1286.9943	0.103788	-429.067267	-429.059957	-429.059013	-429.09956	26.554	
N	-0.5508679667	-2.978636119	 0.3790794926	-0.459363
C	-1.5966936311	-2.3177851945	 0.0931690908	 0.094287
N	-1.5864479972	-0.9373351257	 0.2290929929	-0.368477
C	-2.6317650729	-0.0949922587	-0.0386555702	 0.458633
C	-2.4997332738	 1.3015892857	 0.1394340642	-0.059314
N	-3.4931361057	 2.12766466	-0.1125909111	-0.163911
N	-4.6610827897	 1.6325535897	-0.5495747835	-0.206262
C	-4.7376033112	 0.3153693369	-0.7012978035	 0.109706
N	-3.7852173536	-0.5936370122	-0.4711200519	-0.32168
H	-0.7079018778	-3.9734790583	 0.2317954525	 0.238375
H	-2.5544182749	-2.6989577743	-0.2625200292	 0.148293
H	-0.715849283	-0.5420368953	 0.5573891845	 0.269084
H	-1.5722332809	 1.7466344152	 0.4914707864	 0.122748
H	-5.6931584015	-0.0610195096	-1.0565346144	 0.137882
85.6188	161.736	165.2798	205.9686	383.5894	402.4436	461.1945	562.7945	636.8801	658.5072	730.9894	814.5667	826.0708	918.3421	933.2533	1000.385	1018.3694	1059.0312	1084.3837	1097.6164	1189.6907	1264.9634	1298.4312	1335.8934	1366.4136	1394.7085	1461.1996	1527.4381	1577.4751	1609.4143	1731.1702	3137.3716	3158.1919	3178.2087	3515.7681	3604.2916
N=CNC1=CN=NC=N1	N=CNc1cnncn1	
InChI=1S/C4H5N5/c5-2-6-4-1-8-9-3-7-4/h1-3H,(H2,5,6,7,9)	InChI=1S/C4H5N5/c5-2-6-4-1-8-9-3-7-4/h1-3H,(H2,5,6,7,9)
