20
gdb 87573	2.53318	1.42946	1.22308	1.7843	78.89	-0.2391	0.0753	0.3144	1136.5385	0.169665	-403.085181	-403.076363	-403.075419	-403.118439	33.688	
C	 0.0434631705	 1.5967867392	-0.046109694	-0.392504
C	-0.0035575412	 0.0932124957	 0.0669397425	-0.066067
N	 1.2726076474	-0.6354151105	-0.1400724967	-0.400692
C	 0.6323444506	-0.6523521616	 1.1717481824	 0.34293
C	 1.3205752915	-0.14758455	 2.4278968728	-0.065908
O	 0.2932747587	-0.0394509874	 3.430221608	-0.24725
C	 0.8643976279	-1.3275664798	 3.1798186221	 0.022761
C	 0.1551457796	-1.9214940842	 1.9412727808	-0.118836
C	-1.3340021938	-2.2126220273	 2.0537894149	-0.40768
H	 0.9704927156	 1.985927882	 0.3826759548	 0.1241
H	-0.0006765323	 1.911506542	-1.0942276663	 0.118602
H	-0.8005092918	 2.0514549029	 0.4831532501	 0.123301
H	-0.8958480267	-0.3706202292	-0.3533176913	 0.082374
H	 1.1080151899	-1.5153307348	-0.6243605954	 0.227797
H	 2.2040003531	 0.4701076345	 2.5337495848	 0.110048
H	 1.3134459139	-1.846323894	 4.0190190955	 0.103274
H	 0.7085911268	-2.7959100426	 1.5765218228	 0.079554
H	-1.8529654524	-1.3547347178	 2.4889712071	 0.136809
H	-1.7748870849	-2.4192693373	 1.0724669968	 0.112207
H	-1.5182165723	-3.0868563997	 2.6876934182	 0.115179
100.8519	137.7875	176.8843	184.2262	224.517	256.5814	285.5627	426.9162	455.1505	494.246	567.4411	643.3753	746.8639	809.8751	845.6303	856.2864	860.9583	882.163	916.9258	972.7905	1024.677	1033.278	1043.7088	1059.995	1062.9149	1085.101	1125.2684	1141.7106	1204.0446	1217.8295	1228.6665	1236.3235	1284.838	1347.6822	1366.9216	1374.0477	1407.0083	1411.88	1474.2478	1490.6453	1491.9298	1499.7225	1507.7492	3030.0655	3034.9661	3036.0049	3091.4326	3099.4502	3102.6797	3122.1924	3125.2553	3180.8204	3200.4674	3485.6781
CC1NC11C2OC2C1C	C[C@H]1N[C@]21[C@H]1O[C@H]1[C@H]2C	
InChI=1S/C7H11NO/c1-3-5-6(9-5)7(3)4(2)8-7/h3-6,8H,1-2H3	InChI=1S/C7H11NO/c1-3-5-6(9-5)7(3)4(2)8-7/h3-6,8H,1-2H3/t3-,4-,5+,6+,7-/m1/s1
