21
gdb 53318	5.94567	0.6652	0.65982	0.1388	94.25	-0.2362	0.058	0.2943	1805.2104	0.181365	-349.910013	-349.900287	-349.899343	-349.946656	35.409	
C	 0.7110372719	 1.5523077928	-0.8562072727	-0.498126
C	 0.368076571	 0.208027198	-0.4141445474	 0.080681
C	 0.0884433534	-0.9071937084	-0.0525035465	 0.05651
C	-0.2672246355	-2.2354433921	 0.4023042495	-0.155381
C	-0.1851409038	-2.5553679536	 1.9360399324	-0.301423
C	-1.5178689824	-3.3003744498	 1.8005240435	 0.385129
C	-1.7349228409	-4.7531744997	 2.1138595935	-0.316506
C	-2.4946429559	-3.6816701959	 2.8674670368	-0.338585
C	-1.7828891002	-2.638551342	 0.4435735094	-0.301424
H	 1.4678383493	 1.5322161977	-1.6485267072	 0.145187
H	-0.1653403521	 2.0787902134	-1.2509738977	 0.145065
H	 1.1123298904	 2.15354731	-0.0324770398	 0.145051
H	 0.2951831567	-2.9897506057	-0.1577390172	 0.096969
H	 0.6859527827	-3.1250992061	 2.2698420267	 0.10099
H	-0.268817538	-1.6445999168	 2.536008262	 0.107398
H	-2.281967258	-5.3573976386	 1.3965519562	 0.109763
H	-0.9503726949	-5.2880814943	 2.6403847067	 0.109763
H	-2.2229005534	-3.4949344665	 3.9018779351	 0.110275
H	-3.5536114817	-3.564212363	 2.6588780903	 0.110275
H	-2.4255982125	-1.7568819072	 0.5213343651	 0.1074
H	-2.141745446	-3.2723194923	-0.3715228686	 0.100989
14.6893	47.1832	90.8671	145.8849	255.5064	278.518	287.6456	335.8303	371.8321	435.8785	520.203	542.0292	651.0187	774.2762	823.4497	832.9715	879.2635	903.4444	917.3509	929.4028	988.0253	1002.3893	1051.3092	1052.5936	1053.3662	1075.1846	1076.7982	1094.3679	1187.0329	1189.3333	1201.8295	1232.4184	1239.0262	1246.8968	1263.5237	1351.9319	1392.5359	1415.2115	1464.0651	1474.9993	1479.0509	1479.4047	1496.3509	1505.5681	2365.7711	3023.0002	3045.1551	3049.4794	3054.178	3082.0458	3082.5182	3105.5798	3108.1635	3117.3626	3121.7576	3194.8012	3209.8976
CC#CC1CC2(CC2)C1	CC#CC1CC2(CC2)C1	
InChI=1S/C9H12/c1-2-3-8-6-9(7-8)4-5-9/h8H,4-7H2,1H3	InChI=1S/C9H12/c1-2-3-8-6-9(7-8)4-5-9/h8H,4-7H2,1H3
