18
gdb 113572	4.1883	0.96747	0.89217	2.424	73.81	-0.2308	0.02	0.2508	1311.0653	0.147963	-439.073399	-439.064879	-439.063935	-439.107217	31.224	
O	-0.0770954124	 1.3254133235	-0.4188985798	-0.414353
C	-0.010707273	 0.0259152901	 0.1513811939	-0.104167
C	-1.3905792531	-0.5726664496	 0.1086245171	-0.042311
C	-1.8999343303	-1.2209999643	-1.1569268614	-0.329286
C	-1.5923638651	-2.067476812	 0.048990011	 0.300279
C	-0.4641970651	-3.1103178306	 0.0982380751	-0.178184
O	-1.0490091205	-4.1970545489	 0.8566009542	-0.226344
C	-2.2987429687	-3.7787823213	 1.1778811754	 0.104216
N	-2.6982283334	-2.6383005977	 0.7953643198	-0.295794
H	 0.7815159876	 1.7448250407	-0.3077702236	 0.285914
H	 0.6953420627	-0.6129010055	-0.4061559977	 0.077315
H	 0.3458146468	 0.0694432511	 1.1933439348	 0.090867
H	-2.1283759868	-0.040015436	 0.7002267239	 0.107653
H	-2.9433413788	-1.0909652356	-1.4182741456	 0.127038
H	-1.2171129642	-1.282121245	-1.9995747232	 0.112432
H	-0.1774604845	-3.4937703967	-0.8857411246	 0.122737
H	 0.434625833	-2.7767508792	 0.6263138716	 0.119919
H	-2.8738396444	-4.488718523	 1.7605257992	 0.142069
61.6526	96.4	136.8083	192.2196	263.0805	304.988	345.5359	415.8598	431.0791	558.998	626.7492	798.4594	852.9488	864.5044	894.7258	913.7381	937.7815	956.7304	966.5772	1029.0992	1058.5445	1066.8542	1087.7671	1097.1437	1123.5429	1165.448	1210.8052	1216.3197	1254.0223	1281.6006	1301.9506	1331.9337	1375.0096	1410.7705	1466.8935	1489.1046	1518.6333	1519.1105	1698.8539	2951.4031	2981.8997	3042.5681	3085.3707	3126.8317	3165.9015	3224.0515	3224.5062	3823.4307
OCC1CC11COC=N1	OC[C@H]1C[C@]21COC=N2	
InChI=1S/C6H9NO2/c8-2-5-1-6(5)3-9-4-7-6/h4-5,8H,1-3H2	InChI=1S/C6H9NO2/c8-2-5-1-6(5)3-9-4-7-6/h4-5,8H,1-3H2/t5-,6-/m1/s1
