17
gdb 72177	2.43428	2.23096	1.72353	1.8289	66.07	-0.2458	0.0655	0.3113	852.5629	0.137949	-458.941895	-458.935197	-458.934252	-458.972612	27.574	
O	-0.0811319161	 1.3973316138	 0.0238058047	-0.480382
C	-0.0094155704	 0.0163380665	-0.0541009038	 0.360629
C	 0.2583795015	-0.8048651363	-1.3455389228	-0.30984
C	-0.3457019202	-1.9158666176	-0.4640455758	 0.071712
O	 0.6761777148	-2.0951979178	 0.545735727	-0.27958
C	 0.725686638	-0.7672915994	 1.078775013	 0.128532
O	-0.1026482209	-0.676738863	 2.2038448664	-0.250235
C	-1.431013262	-0.9518649527	 1.7098763622	-0.113275
C	-1.281326457	-0.8426897961	 0.1930733781	-0.113398
H	 0.8095557547	 1.7556898681	 0.1037544901	 0.285749
H	-0.3908735143	-0.4871863394	-2.1643919704	 0.1087
H	 1.2862501914	-0.9533736177	-1.6839917624	 0.100449
H	-0.6898300111	-2.878295824	-0.8349081454	 0.08847
H	 1.7424156187	-0.4918063161	 1.3621195996	 0.085338
H	-1.7499533665	-1.9497437719	 2.0328061053	 0.109567
H	-2.1194506448	-0.2075501182	 2.1220483439	 0.115823
H	-2.165466206	-0.5744391481	-0.3825311997	 0.091743
183.525	231.4435	274.7923	311.5026	443.2243	457.6706	530.3302	599.4992	655.0952	699.5837	779.7486	820.8367	879.8942	910.9318	923.8695	938.975	947.031	989.2203	1005.5799	1016.5244	1033.1334	1084.638	1114.6191	1121.7601	1137.5779	1198.958	1215.462	1237.4985	1245.5801	1288.9092	1306.1616	1324.497	1337.9097	1368.9303	1404.4062	1489.0832	1514.5945	3033.3617	3066.1451	3080.2832	3118.3019	3132.4742	3140.3907	3154.3385	3804.2211
OC12CC3OC1OCC23	O[C@@]12C[C@H]3O[C@@H]1OC[C@@H]23	
InChI=1S/C6H8O3/c7-6-1-4-3(6)2-8-5(6)9-4/h3-5,7H,1-2H2	InChI=1S/C6H8O3/c7-6-1-4-3(6)2-8-5(6)9-4/h3-5,7H,1-2H2/t3-,4-,5+,6-/m1/s1
