19
gdb 72272	2.75269	1.84818	1.62573	1.5111	73.65	-0.2401	0.0747	0.3148	913.4679	0.161295	-422.994598	-422.987616	-422.986672	-423.025364	29.551	
O	-0.0334468307	 1.4129623984	-0.0061038313	-0.491783
C	 0.0086812093	 0.0201771975	-0.0600565955	 0.427357
C	 0.4229108308	-0.7400336272	-1.3331418174	-0.331979
C	-0.4868542205	-1.8817051354	-0.7941920632	 0.099586
O	 0.2264144493	-2.7794333906	 0.042628093	-0.266151
C	 1.0690969859	-2.0662208448	 0.949726159	-0.088435
C	 0.4140107842	-0.7284699336	 1.2848662821	-0.128005
C	-1.0974280589	-0.984050115	 1.5600043387	-0.236896
C	-1.2975286803	-0.8099018892	 0.0492261328	-0.0818
H	 0.8646321205	 1.7421042527	 0.112289446	 0.276234
H	-0.0237423049	-0.2585154834	-2.2081325401	 0.106212
H	 1.4717496282	-0.9747219392	-1.5386229113	 0.093929
H	-1.041317163	-2.4887289619	-1.5092482529	 0.084531
H	 1.1787627536	-2.6947985735	 1.8401362669	 0.106978
H	 2.0696821115	-1.921124702	 0.5147578732	 0.089525
H	 0.9929560331	-0.1492760395	 2.0086605137	 0.063154
H	-1.3618628251	-1.9433757457	 2.012918225	 0.101331
H	-1.5628242684	-0.168175681	 2.1173855761	 0.107606
H	-2.2441590846	-0.4881358668	-0.3869111348	 0.068607
220.2174	242.8615	292.5838	333.6314	383.8958	419.735	458.7708	511.6608	592.0681	657.1635	688.469	798.6772	836.7039	855.0548	864.8072	908.9714	944.6727	969.0608	984.3373	1004.4835	1039.0312	1052.1038	1057.9962	1100.6619	1130.2894	1155.4981	1180.3171	1185.2473	1206.2952	1241.4045	1250.2548	1261.6538	1280.2108	1302.0933	1313.4632	1346.2938	1377.0718	1400.0079	1478.0599	1481.6158	1517.9824	2986.0242	3048.7164	3059.1551	3062.5965	3079.3856	3102.4285	3105.1629	3117.8445	3119.7583	3793.7165
OC12CC3OCC1CC23	O[C@@]12C[C@H]3OC[C@@H]1C[C@@H]23	
InChI=1S/C7H10O2/c8-7-2-6-5(7)1-4(7)3-9-6/h4-6,8H,1-3H2	InChI=1S/C7H10O2/c8-7-2-6-5(7)1-4(7)3-9-6/h4-6,8H,1-3H2/t4-,5+,6+,7-/m0/s1
