17
gdb 64797	2.56336	1.23818	0.97437	4.7584	73.93	-0.2607	-0.0854	0.1753	1227.4587	0.134463	-418.001392	-417.99209	-417.991146	-418.036789	32.987	
C	 0.0733917344	 1.6392990453	-0.1186989449	-0.46613
C	-0.2639445833	 0.163461249	-0.0607395543	 0.317662
C	-1.6758995558	-0.171285023	 0.4346629674	-0.349429
C	-1.831779916	 0.220727863	 1.8880279759	 0.2924
O	-2.2273456182	 1.2957472911	 2.2674246519	-0.267799
C	-1.427324152	-0.7994674242	 2.8789115151	 0.251499
N	-1.1490081992	-1.5929211746	 3.6727532558	-0.306008
C	 0.3794255606	-0.7630787833	-1.0290426255	-0.285583
N	 0.7543049433	-0.7970033099	 0.3947048142	-0.330051
H	 1.0942127218	 1.7860298542	-0.4845711102	 0.11831
H	-0.606116344	 2.1712650678	-0.7931217203	 0.132462
H	-0.0094466125	 2.1097607408	 0.866036795	 0.144582
H	-2.4185376955	 0.3892787472	-0.1408319824	 0.134958
H	-1.852208688	-1.2435534218	 0.3196421787	 0.133816
H	-0.1504330669	-1.6425645232	-1.3852865373	 0.123584
H	 1.077279328	-0.3355392583	-1.7443600492	 0.118981
H	 1.6454386133	-0.3298195301	 0.5406391303	 0.236746
25.0281	66.034	140.8088	175.1451	222.222	281.489	319.5166	344.5455	389.6711	435.9734	451.7354	617.3276	649.7106	734.1729	793.7465	868.245	903.7306	928.7439	946.4124	987.5257	1017.8632	1049.6506	1113.2479	1122.3338	1159.8691	1236.9493	1262.9097	1300.6431	1336.7731	1384.413	1426.3231	1462.8422	1487.5439	1499.6173	1516.5502	1787.3247	2336.9232	3035.2267	3060.498	3101.9273	3107.1224	3111.8539	3123.0395	3192.2916	3506.9192
CC1(CC(=O)C#N)CN1	C[C@@]1(CC(=O)C#N)CN1	
InChI=1S/C6H8N2O/c1-6(4-8-6)2-5(9)3-7/h8H,2,4H2,1H3	InChI=1S/C6H8N2O/c1-6(4-8-6)2-5(9)3-7/h8H,2,4H2,1H3/t6-/m1/s1
