14
gdb 33480	2.22174	1.75393	1.19063	2.594	71.73	-0.2743	0.0024	0.2767	1021.3773	0.099044	-399.474768	-399.466831	-399.465887	-399.507285	29.666	
C	 0.0557381289	-1.222956322	-0.0585140941	-0.418036
C	 0.0199312015	-0.0234022784	-0.0282488224	 0.291818
C	-0.0105596303	 1.4276991831	 0.0260503104	-0.042677
C	-0.2508558752	 2.1097252841	 1.4518317295	-0.303492
C	 1.1178886275	 2.7796176208	 1.313712797	 0.049068
O	 2.084542218	 1.7303328287	 1.1604880852	-0.230284
C	 1.3807405272	 2.1562178399	 0.0117841187	-0.007054
C	-0.9051273811	 1.9907114556	-0.9856692532	 0.23918
N	-1.5890444036	 2.4700057602	-1.7843712849	-0.332036
H	 0.0881838783	-2.2843050046	-0.0905507157	 0.209104
H	-1.0954830865	 2.7988415381	 1.4290464599	 0.145613
H	-0.3481157795	 1.405379481	 2.2783090025	 0.140268
H	 1.4615256833	 3.7197269139	 1.7254458681	 0.125615
H	 1.9340593916	 2.4670342196	-0.8656801509	 0.132913
118.1308	126.2182	163.2781	178.1973	308.5249	415.0965	469.4637	500.6528	560.5965	575.8206	594.8175	646.2156	655.5628	786.4542	842.8488	861.8914	903.7058	934.9913	973.8968	1014.1732	1046.8406	1091.7429	1118.6894	1222.2435	1234.3765	1240.0526	1265.8881	1388.2237	1465.9697	2245.9073	2357.9725	3091.9933	3160.5118	3198.9254	3214.7401	3500.8532
C#CC1(CC2OC12)C#N	C#C[C@]1(C[C@H]2O[C@@H]12)C#N	
InChI=1S/C7H5NO/c1-2-7(4-8)3-5-6(7)9-5/h1,5-6H,3H2	InChI=1S/C7H5NO/c1-2-7(4-8)3-5-6(7)9-5/h1,5-6H,3H2/t5-,6-,7+/m1/s1
