19
gdb 26152	2.55353	1.27986	1.04625	2.5282	78.05	-0.1946	0.0451	0.2397	1229.866	0.159223	-419.251906	-419.242507	-419.241563	-419.286259	34.728	
C	 0.0123869577	 1.527757709	-0.0137473959	-0.371847
C	 0.0067879091	-0.0104007056	 0.0496521544	-0.098709
C	 0.7541509443	-0.5128143583	 1.2983094543	-0.371818
C	-1.3943396827	-0.5507119594	 0.0014245941	 0.173556
C	-1.9757031908	-1.3677086228	-0.9342137768	 0.280157
O	-1.5578906909	-1.9586586658	-2.0818770809	-0.436602
N	-3.2698911867	-1.5771940272	-0.5305331131	-0.294344
C	-3.4306183498	-0.8792476178	 0.6399365815	-0.007239
N	-2.3326745583	-0.258072405	 0.9808099485	-0.307993
H	 1.0343072681	 1.9195845516	 0.0289186308	 0.101204
H	-0.4569126348	 1.8877796574	-0.9344988613	 0.106028
H	-0.5507770364	 1.9367199004	 0.8301020418	 0.13761
H	 0.543790059	-0.3852211704	-0.8367738856	 0.03984
H	 0.8119490335	-1.6055619462	 1.3121294319	 0.106076
H	 1.7731060922	-0.1126904437	 1.3345368724	 0.101232
H	 0.2250927845	-0.1949419714	 2.2014101626	 0.137493
H	-0.6386855765	-1.7122987481	-2.2278662896	 0.30892
H	-3.9481367754	-2.1386625582	-1.0173522037	 0.270061
H	-4.3660659561	-0.8717933086	 1.1783102645	 0.126374
43.8435	136.6989	169.5365	215.0228	223.4061	252.3871	285.4408	286.2009	396.1107	429.4333	480.7989	535.8762	616.4452	667.8431	733.4021	736.6788	771.9194	887.7882	925.4561	952.9994	961.4841	1056.0002	1089.7097	1109.2024	1125.154	1176.2829	1209.5319	1286.9346	1313.0014	1323.8722	1363.093	1391.9577	1409.5772	1416.245	1483.0367	1492.3905	1496.9975	1507.1693	1513.2553	1548.6041	1651.815	2963.8114	3030.5495	3035.0464	3099.2712	3103.0994	3115.0317	3118.8961	3252.7762	3667.8512	3831.977
CC(C)C1=C(O)NC=N1	CC(C)c1c(O)[nH]cn1	
InChI=1S/C6H10N2O/c1-4(2)5-6(9)8-3-7-5/h3-4,9H,1-2H3,(H,7,8)	InChI=1S/C6H10N2O/c1-4(2)5-6(9)8-3-7-5/h3-4,9H,1-2H3,(H,7,8)
