19
gdb 99001	4.11386	0.81088	0.69627	4.3812	77.45	-0.2293	0.0155	0.2448	1624.4188	0.15946	-452.523456	-452.513088	-452.512144	-452.56031	36.241	
C	 0.8301349582	 1.6700708432	-1.8060799839	-0.219856
O	 0.9285732025	 0.267735348	-2.0528091444	-0.196695
C	 0.6382773258	-0.5261625159	-1.0233881433	 0.507105
N	 0.2153837452	-0.0726957383	 0.0908520362	-0.590463
N	 0.8001427884	-1.8786854432	-1.3384904741	-0.409586
C	 1.5364984763	-2.5055386489	-2.3454853322	 0.360488
N	 2.3395138828	-1.9005420433	-3.1171103178	-0.478018
C	 1.2386393749	-4.0095512261	-2.3926312612	-0.257216
N	 2.2255967326	-4.7062604334	-3.2028241722	-0.500986
H	-0.1981108062	 1.9509368414	-1.5626395012	 0.134765
H	 1.4765964782	 1.9635185784	-0.9750613493	 0.137727
H	 1.1516881592	 2.14793077	-2.731992644	 0.130568
H	 0.0753874898	-0.8134469988	 0.7731116591	 0.205707
H	 0.38450715	-2.4955244453	-0.6598694835	 0.240658
H	 2.7152033733	-2.59366641	-3.7687982896	 0.229954
H	 1.1511835064	-4.3894776501	-1.3585734563	 0.089514
H	 0.2520214351	-4.1462338704	-2.8523568867	 0.137008
H	 3.0867120755	-4.8417174961	-2.6838732944	 0.239994
H	 1.8873845721	-5.6221031612	-3.4728718013	 0.239331
24.5713	57.1685	113.0336	142.5377	167.867	186.975	242.9848	282.3411	337.4322	374.2045	429.4476	465.8084	552.4399	663.5826	707.445	737.7748	775.6729	834.3861	879.7353	922.183	937.3179	1000.3268	1053.3839	1118.9703	1124.4631	1161.3689	1177.5535	1182.1579	1222.6044	1311.7997	1351.0655	1397.8227	1416.6646	1477.8802	1483.1973	1486.9584	1500.1889	1520.8358	1657.5333	1730.0678	1746.2909	2934.5728	3048.4307	3051.3343	3121.6048	3153.9866	3447.6518	3516.7832	3519.4697	3600.9784	3643.814
COC(=N)NC(=N)CN	COC(=N)NC(=N)CN	
InChI=1S/C4H10N4O/c1-9-4(7)8-3(6)2-5/h2,5H2,1H3,(H3,6,7,8)	InChI=1S/C4H10N4O/c1-9-4(7)8-3(6)2-5/h2,5H2,1H3,(H3,6,7,8)
