18
gdb 53688	5.39339	0.53518	0.49744	3.8061	79.52	-0.2445	0.0221	0.2666	2173.9992	0.14383	-439.073303	-439.062128	-439.061184	-439.113071	36.641	
C	-0.0224933503	 1.4460340853	 0.0872422547	-0.499238
C	-0.0270192899	-0.0086874428	 0.0618644574	 0.142925
C	-0.0439309631	-1.2112348375	 0.0377299666	 0.000658
C	-0.035381249	-2.6657921679	 0.0095904641	-0.202945
O	-1.3624292492	-3.1605531542	-0.0687426557	-0.220346
C	-1.4046266837	-4.5573757067	-0.092440817	-0.142041
C	-2.8500687903	-5.0082533898	-0.3369618499	 0.373146
N	-3.1066064382	-6.2765545046	 0.1133930139	-0.524617
O	-3.6623436402	-4.339184246	-0.9318579403	-0.325911
H	 0.5807619284	 1.8578002692	-0.7291956732	 0.148965
H	-1.0391381869	 1.8392291001	-0.0212444817	 0.156937
H	 0.3831727754	 1.8295202136	 1.029806021	 0.147678
H	 0.5525348422	-3.0252655656	-0.8531711164	 0.114953
H	 0.4649422906	-3.0564037635	 0.9134404986	 0.110527
H	-0.7843184278	-4.9677401709	-0.9099009332	 0.114766
H	-1.0158457339	-4.9892773338	 0.8474604957	 0.085399
H	-2.5112549586	-6.7283924302	 0.7860600041	 0.25631
H	-4.0516285254	-6.6138240048	 0.0216644713	 0.262835
19.5177	22.2254	60.7541	80.7389	89.9636	173.7192	210.7566	260.3726	302.7838	319.7775	376.4218	416.8996	497.3021	531.6078	607.1174	683.6919	784.0867	876.094	1005.0753	1029.0324	1043.9426	1051.9476	1059.3206	1100.761	1162.2733	1188.3973	1249.9764	1262.3316	1299.2231	1394.3615	1414.1728	1445.4842	1476.2847	1478.5102	1488.8968	1512.1806	1618.4371	1828.4192	2382.0511	2933.2797	2945.4428	2956.7579	2962.47	3028.5231	3089.251	3092.1304	3594.6931	3726.6033
CC#CCOCC(N)=O	CC#CCOCC(=O)N	
InChI=1S/C6H9NO2/c1-2-3-4-9-5-6(7)8/h4-5H2,1H3,(H2,7,8)	InChI=1S/C6H9NO2/c1-2-3-4-9-5-6(7)8/h4-5H2,1H3,(H2,7,8)
