21
gdb 122432	3.96495	0.69032	0.66453	1.3132	75.94	-0.2579	0.0741	0.332	1744.6634	0.181187	-461.333958	-461.324112	-461.323167	-461.369944	36.019	
O	 0.0383369391	 1.26303639	-0.6693224669	-0.421201
C	-0.0861252991	 0.0272644757	 0.0062194613	-0.059789
C	-1.5411659509	-0.4035169326	 0.1068926494	-0.081607
O	-2.0243099162	-0.5130402513	-1.2229369078	-0.269633
C	-3.3955466328	-0.8053089476	-1.3149687428	 0.165488
C	-4.4246266065	 0.3213459719	-1.0067608412	-0.302302
C	-5.2136557657	-0.1512938853	-2.2597616936	 0.168038
O	-5.8594647523	 0.7863944849	-3.0794486735	-0.428919
C	-3.9293549141	-0.8689254039	-2.7592256128	-0.305615
H	-0.4737008382	 1.1650664688	-1.4806453822	 0.286427
H	 0.488117749	-0.7669790649	-0.4969625801	 0.09347
H	 0.3312070857	 0.1610960099	 1.0095510133	 0.108347
H	-1.630034328	-1.3666129297	 0.6356323764	 0.088534
H	-2.1176457162	 0.3510834958	 0.6629425342	 0.101079
H	-3.6237712939	-1.7207306098	-0.7495385972	 0.0711
H	-4.9358869564	 0.3354538861	-0.042288953	 0.103903
H	-3.9628937681	 1.2986260826	-1.188672513	 0.101101
H	-5.9857886982	-0.8756254032	-1.9852900499	 0.095779
H	-5.2115669387	 1.4478303898	-3.3444583405	 0.277221
H	-3.3358462928	-0.2004937588	-3.3927859602	 0.101767
H	-4.0199684056	-1.8411489483	-3.2467513899	 0.106812
39.0561	60.0306	103.0706	131.8927	215.2961	286.0575	299.3924	358.302	409.8677	436.7879	448.7952	460.4549	524.4123	625.601	782.8948	797.0365	877.4496	901.4682	913.7853	963.0994	1023.3727	1048.1525	1062.5675	1079.609	1090.5205	1116.7668	1137.9681	1171.5694	1198.5719	1207.4587	1239.6558	1258.3294	1262.4473	1265.7343	1304.8484	1336.1558	1371.0421	1385.1543	1423.5028	1440.1296	1447.1832	1461.589	1493.161	1499.4491	1508.7774	2970.2452	2980.0996	2994.4389	3018.6139	3045.8804	3053.9261	3074.0296	3080.3114	3117.5252	3123.8197	3797.1813	3807.1521
OCCOC1CC(O)C1	OCCO[C@H]1C[C@@H](O)C1	
InChI=1S/C6H12O3/c7-1-2-9-6-3-5(8)4-6/h5-8H,1-4H2	InChI=1S/C6H12O3/c7-1-2-9-6-3-5(8)4-6/h5-8H,1-4H2/t5-,6+
