21
gdb 121311	2.8584	0.98605	0.80702	1.7871	79.28	-0.2405	-0.0239	0.2166	1494.3936	0.181825	-424.258497	-424.249023	-424.248079	-424.293654	34.434	
C	-0.24787608	 1.4709286058	-0.0133626102	-0.384245
C	 0.0515881081	-0.0292112277	 0.0364347309	-0.171732
C	 0.6781516903	-0.5549752347	-1.258336478	-0.177322
C	 0.934868502	-2.0682961457	-1.2221138782	-0.00433
O	-0.2561935676	-2.8368248746	-1.0889839415	-0.26435
C	-0.6685383008	-3.2836546368	-2.3845035645	-0.092969
C	 0.6260153039	-3.556242793	-3.1529224356	-0.336161
C	 1.5937838788	-2.5563372797	-2.5190242272	 0.377279
O	 2.6571324888	-2.1930144036	-2.9470766834	-0.311442
H	 0.6634996223	 2.0532366639	-0.1891124981	 0.115513
H	-0.9510614848	 1.708580193	-0.8194910159	 0.113697
H	-0.689837894	 1.8188074736	 0.9254503388	 0.113654
H	 0.7286279711	-0.2432997865	 0.8741527198	 0.095468
H	-0.8682711103	-0.5903262405	 0.2349137377	 0.114027
H	 0.0253092847	-0.3187311967	-2.1097796183	 0.092886
H	 1.6379000952	-0.0619614076	-1.455778468	 0.117762
H	 1.5827971648	-2.307518034	-0.369013377	 0.106089
H	-1.2962988801	-4.1654101825	-2.239904366	 0.118482
H	-1.2699514584	-2.513569277	-2.8910128216	 0.101507
H	 1.0022102843	-4.5663779336	-2.952035526	 0.141489
H	 0.5673415217	-3.423523192	-4.2346352677	 0.134698
57.4728	92.4878	106.5862	129.474	188.9919	247.6743	269.3701	324.4096	423.4655	524.6014	530.3615	640.0563	654.0182	748.6159	822.1664	829.0924	855.7441	901.6458	934.6117	961.5949	998.5851	1039.875	1051.1808	1093.0343	1125.0162	1143.3266	1165.9038	1206.537	1238.2924	1249.4457	1262.6975	1282.3361	1321.9688	1327.9232	1357.852	1390.3422	1395.0825	1413.4954	1449.2478	1475.8427	1493.8221	1499.7401	1510.1009	1523.4721	1853.8598	2990.0133	3013.0322	3023.1588	3029.2829	3032.2624	3050.278	3057.2652	3075.1946	3098.3415	3102.8968	3103.4778	3125.4848
CCCC1OCCC1=O	CCC[C@H]1OCCC1=O	
InChI=1S/C7H12O2/c1-2-3-7-6(8)4-5-9-7/h7H,2-5H2,1H3	InChI=1S/C7H12O2/c1-2-3-7-6(8)4-5-9-7/h7H,2-5H2,1H3/t7-/m1/s1
