21
gdb 73271	2.45214	1.68676	1.33019	1.6718	77.76	-0.2436	0.084	0.3276	1064.0199	0.183591	-424.221407	-424.213206	-424.212261	-424.253849	32.427	
C	-0.0640891836	 1.5105092478	 0.0457249048	-0.438851
C	 0.0182890252	-0.0121306824	-0.003915734	 0.386035
C	-1.3079925787	-0.6470641898	-0.4096267147	-0.2536
C	-1.4024584993	-2.1194256905	 0.0011382038	-0.220027
C	-0.9800984508	-2.2609505678	 1.4602144364	-0.064932
O	 0.3905413804	-1.9288466608	 1.6206323673	-0.26857
C	 0.765079638	-0.6260671532	 1.2225242088	 0.042433
C	 1.9597694262	-0.6974308533	 0.2602366465	-0.095405
O	 1.1136601522	-0.4238398611	-0.876651306	-0.323995
H	 0.904300473	 1.9497779441	 0.3030643747	 0.118431
H	-0.3625254623	 1.900531128	-0.9326441054	 0.125228
H	-0.7987837365	 1.8403320637	 0.7880138084	 0.113733
H	-2.1225784946	-0.0886975191	 0.0693739449	 0.095599
H	-1.4271254453	-0.5206936546	-1.4918832918	 0.110588
H	-2.4234843174	-2.491006751	-0.1376339233	 0.093376
H	-0.7362735529	-2.7326387197	-0.6150925922	 0.117777
H	-1.6174265586	-1.632144561	 2.1063889175	 0.081114
H	-1.0697857255	-3.2933949828	 1.8095369824	 0.108374
H	 0.8524792459	 0.0282334032	 2.0997406086	 0.067718
H	 2.7226978135	 0.0787427625	 0.4037428606	 0.093466
H	 2.432928521	-1.6817951221	 0.2043372127	 0.111511
115.3938	120.8235	226.865	263.6773	317.2609	348.3419	365.6894	413.212	462.8741	484.6055	590.098	644.4638	807.8246	827.8329	875.6495	889.9691	911.4362	933.6964	959.7854	1001.9394	1023.3391	1045.7989	1051.8181	1085.5091	1128.0711	1153.1154	1164.4305	1181.7621	1233.2439	1250.4678	1255.6002	1293.2547	1309.5519	1338.128	1360.7353	1373.4256	1392.0298	1406.5273	1411.7331	1463.6943	1478.593	1487.234	1489.4791	1504.62	1508.4831	2954.1189	3008.1512	3020.8785	3022.661	3034.5645	3041.867	3068.0295	3085.821	3091.1396	3091.9635	3105.164	3110.8604
CC12CCCOC1CO2	C[C@]12CCCO[C@H]1CO2	
InChI=1S/C7H12O2/c1-7-3-2-4-8-6(7)5-9-7/h6H,2-5H2,1H3	InChI=1S/C7H12O2/c1-7-3-2-4-8-6(7)5-9-7/h6H,2-5H2,1H3/t6-,7-/m0/s1
