18
gdb 86702	2.3044	1.41698	1.01748	5.5813	74.73	-0.2427	-0.043	0.1997	1196.0424	0.14602	-439.102642	-439.093396	-439.092452	-439.137736	32.272	
C	-0.4819684107	 1.4640600185	-0.0375830267	-0.419268
C	 0.0397030992	 0.0344454176	-0.029768873	-0.017809
C	 1.3567011723	-0.2341888865	-0.8217184821	-0.1764
N	 1.9486520856	-0.7676528188	 0.4030188708	-0.030021
C	 3.2556149279	-1.0267278106	 0.6674961195	 0.139993
O	 4.125577269	-1.0087314463	-0.1769174074	-0.328658
C	 0.8064904028	-0.4825292263	 1.2550606124	-0.106649
C	 1.0208530231	 0.5392545954	 2.3521922423	 0.152995
O	 2.0697179647	 1.0737984034	 2.5984313678	-0.23777
H	 0.293743314	 2.1771863891	 0.2604338091	 0.141646
H	-0.8120091871	 1.7353207835	-1.0456109687	 0.131637
H	-1.3372118135	 1.5891908443	 0.6342896892	 0.12535
H	-0.7549661361	-0.6604848063	-0.3078364272	 0.096729
H	 1.2874885345	-0.9602362012	-1.6369737351	 0.125534
H	 1.8636444865	 0.6650746829	-1.1887532462	 0.128902
H	 3.4300828013	-1.2791064742	 1.7300535854	 0.079921
H	 0.3383628648	-1.365905543	 1.7143469233	 0.106289
H	 0.099919812	 0.7625779984	 2.9378181364	 0.087578
55.1482	63.8556	89.1143	177.5633	233.2206	258.9217	279.109	317.442	370.9128	411.5695	555.5668	676.8371	731.0174	830.3278	856.6253	896.7372	923.9019	969.1875	1013.6228	1028.6715	1077.2088	1118.1255	1143.5603	1171.7421	1213.5189	1227.9687	1272.4987	1309.4002	1340.4807	1369.1721	1396.9307	1414.9039	1418.1016	1446.1265	1498.2181	1499.2583	1519.8312	1789.7796	1833.2698	2874.5268	2962.0346	2995.2919	3034.1178	3041.5014	3080.1441	3092.7577	3104.011	3111.5021
CC1CN(C=O)C1C=O	C[C@H]1CN(C=O)[C@H]1C=O	
InChI=1S/C6H9NO2/c1-5-2-7(4-9)6(5)3-8/h3-6H,2H2,1H3	InChI=1S/C6H9NO2/c1-5-2-7(4-9)6(5)3-8/h3-6H,2H2,1H3/t5-,6-/m0/s1
