12
gdb 132325	2.04384	1.78211	0.95201	3.0866	61.84	-0.2275	-0.0452	0.1823	1073.4096	0.077935	-518.102798	-518.095906	-518.094961	-518.134471	26.084	
F	 0.0879603738	 0.0622640476	 0.0024482624	-0.038293
C	-0.0461399051	 1.3704307152	 0.0112141252	 0.456557
C	-1.2513493036	 1.9941090255	 0.0307959459	-0.497847
C	-1.1449201718	 3.4153344793	 0.0371071634	 0.365012
F	-2.2966853797	 4.0703501562	 0.0560610082	-0.058345
N	-0.0725863865	 4.121225278	 0.0263191627	-0.369762
C	 1.1544520449	 3.4752211905	 0.0058985409	 0.434536
N	 2.3106706459	 4.0069513424	-0.0061030284	-0.562961
N	 1.1077538759	 2.0545937741	-0.0007856966	-0.390046
H	-2.1898303168	 1.4652039949	 0.0406472239	 0.142466
H	 2.2096143822	 5.0197441945	 0.0012269519	 0.23235
H	 1.9933609806	 1.5687057619	-0.0153448694	 0.286335
124.7404	193.7004	238.7908	344.059	362.3404	508.2159	522.8374	562.7764	598.9653	641.1591	670.6729	705.8418	747.0043	766.5148	844.3696	943.1711	999.2773	1072.0155	1143.581	1173.7011	1284.1495	1317.5221	1431.4693	1522.0409	1616.6029	1707.6183	1746.1161	3272.7285	3525.1964	3622.3345
FC1=CC(F)=NC(=N)N1	F[C@@H]1C=C(F)N=C([NH])N1	
InChI=1S/C4H3F2N3/c5-2-1-3(6)9-4(7)8-2/h1H,(H2,7,8,9)	InChI=1S/C4H4F2N3/c5-2-1-3(6)9-4(7)8-2/h1-2,7H,(H,8,9)/t2-/m0/s1
