18
gdb 70388	2.48248	1.54945	1.30413	2.0231	77.71	-0.2387	0.0232	0.2619	1056.2187	0.145003	-401.866866	-401.857791	-401.856847	-401.90001	34.792	
C	 0.0365213384	 1.5333974424	 0.0885226784	-0.50513
C	-0.0223885143	 0.0401889711	-0.0273376813	 0.301879
C	-0.9301218336	-0.8198471716	 0.7578295914	-0.290056
N	 0.5170979314	-0.903608939	 1.0403208228	-0.164935
C	 1.0676098384	-1.777853529	-0.0469797775	-0.197444
C	 0.5959953255	-0.8109700757	-1.1714338218	 0.139043
O	-0.3070893935	-1.4291493037	-2.0726071255	-0.460688
C	 1.675970123	-0.1407507464	-1.8858070382	 0.279834
C	 2.5398485647	 0.4254780584	-2.5018128526	-0.460603
H	 1.0304924749	 1.9127562585	-0.1654039488	 0.13448
H	-0.6893864905	 2.0064221342	-0.5834995675	 0.119615
H	-0.1995442845	 1.8406464229	 1.1112447566	 0.130904
H	-1.4908766799	-0.3402209591	 1.5543841774	 0.117683
H	-1.4284976629	-1.6626722246	 0.2857074225	 0.126337
H	 2.1516249538	-1.8583173117	 0.0322807516	 0.126043
H	 0.6170705303	-2.7734764168	-0.0998367475	 0.11765
H	-0.4786737226	-0.8154812894	-2.7956513175	 0.283057
H	 3.3132490815	 0.9135719997	-3.0425570625	 0.202331
114.6608	137.6015	171.6773	194.5437	249.7749	267.5782	315.3607	373.1643	468.2686	475.0075	522.1886	531.0843	630.3668	650.8626	667.1893	676.4709	746.442	845.178	887.9419	923.5223	970.203	1004.7503	1036.058	1081.0768	1093.7961	1113.9704	1128.1384	1177.3986	1223.1527	1259.5504	1304.5364	1357.5814	1372.7146	1417.6207	1479.2342	1484.0917	1493.7249	1510.3843	2229.7884	3031.9488	3060.0827	3097.745	3111.3624	3119.2843	3138.5009	3202.0761	3497.7559	3803.6238
CC12CN1CC2(O)C#C	C[C@]12CN1C[C@]2(O)C#C	
InChI=1S/C7H9NO/c1-3-7(9)5-8-4-6(7,8)2/h1,9H,4-5H2,2H3	InChI=1S/C7H9NO/c1-3-7(9)5-8-4-6(7,8)2/h1,9H,4-5H2,2H3/t6-,7-,8?/m1/s1
