18
gdb 64500	3.55695	1.32527	1.17186	2.4434	72.05	-0.2378	0.0407	0.2785	1084.3312	0.147409	-438.972973	-438.965059	-438.964115	-439.005524	30.931	
O	-0.1809363142	 1.366135548	-0.3196255721	-0.480043
C	-0.0451464771	-0.0237571028	-0.1029895159	 0.375013
C	 0.9115693968	-0.6614483338	-1.0859322392	-0.046111
C	 0.8988640167	-0.2381326471	-2.5075528358	-0.243669
N	 2.0388832245	 0.1109822422	-1.6381933178	-0.333501
C	-0.0386467007	-0.5560903229	 1.3724716736	-0.027986
C	-1.4967355197	-0.069856107	 1.5538569405	-0.237025
C	-1.3736461149	-0.7868452518	 0.190317254	 0.023239
O	-0.5607093015	-1.8368114775	 0.8528653475	-0.308327
H	 0.4767175482	 1.8271007467	 0.2106303873	 0.292764
H	 1.1532560221	-1.691448909	-0.8545843583	 0.113018
H	 1.1167259493	-0.9622659929	-3.2870149749	 0.117619
H	 0.2160739118	 0.5580064326	-2.7894860912	 0.120264
H	 1.9270084317	 1.0878532431	-1.3734369445	 0.213627
H	 0.7825195254	-0.60391365	 2.0898011447	 0.097216
H	-2.0613641915	-0.6242430022	 2.3033120974	 0.111997
H	-1.6960392598	 1.001071902	 1.5545402071	 0.110761
H	-2.1465058071	-1.1128632477	-0.5056292023	 0.101144
64.8875	168.5874	199.7161	241.5338	313.413	355.6963	411.377	477.5455	543.2223	614.7564	697.3131	768.7226	816.0145	851.42	873.0352	888.8628	908.0368	919.2731	971.5207	1001.7772	1010.4932	1040.5976	1074.9832	1099.3676	1132.0783	1150.7038	1172.4837	1174.9606	1182.5158	1205.4808	1232.4336	1260.5353	1276.9028	1285.5446	1300.4464	1315.2471	1414.6681	1475.4571	1500.4735	3090.2892	3106.9782	3115.3232	3125.831	3171.9403	3189.756	3205.8319	3485.1922	3821.7455
OC1(C2CN2)C2CC1O2	O[C@@]1([C@H]2CN2)[C@H]2C[C@@H]1O2	
InChI=1S/C6H9NO2/c8-6(3-2-7-3)4-1-5(6)9-4/h3-5,7-8H,1-2H2	InChI=1S/C6H9NO2/c8-6(3-2-7-3)4-1-5(6)9-4/h3-5,7-8H,1-2H2/t3-,4-,5+,6+/m1/s1
