19
gdb 73793	2.18153	1.78454	1.0195	4.7183	83.7	-0.1996	-0.0015	0.1981	1164.238	0.160731	-419.244186	-419.235312	-419.234368	-419.277559	33.828	
C	 0.029197526	 1.5178422725	-0.1557516618	-0.523614
C	 0.0133570355	 0.011790424	-0.0773817757	 0.160278
C	-1.146290608	-0.6840396467	-0.0061197501	 0.246706
N	-2.3898781786	-0.0819061366	-0.035163175	-0.569964
C	-1.1404399699	-2.1869144913	 0.0650594227	-0.318467
C	 0.145063059	-2.7058549233	-0.5619186989	-0.086672
O	 1.2878725041	-2.0656279871	-0.0047965328	-0.260206
C	 1.2968673819	-0.6893950647	 0.0042965083	 0.321004
N	 2.402481328	-0.0678368206	 0.1350115899	-0.541011
H	 1.0550461948	 1.8695167851	-0.2601506997	 0.166734
H	-0.558085607	 1.8836648449	-1.0073401078	 0.115667
H	-0.3867233205	 1.9800222396	 0.7511859768	 0.110353
H	-2.4278305274	 0.8908061698	 0.2301086405	 0.256406
H	-3.1581826854	-0.6236378094	 0.329193514	 0.250647
H	-1.2199793313	-2.519384538	 1.1091483657	 0.124985
H	-2.0034710581	-2.5973565065	-0.473269412	 0.112477
H	 0.2836196416	-3.774142394	-0.3782342216	 0.113554
H	 0.1210134697	-2.5401717698	-1.6479120356	 0.109417
H	 3.1689370554	-0.7409693379	 0.1709610129	 0.211706
90.4299	110.1195	154.2486	225.2427	297.5436	317.177	348.6085	388.7314	463.0566	472.3312	520.1807	524.9751	596.567	669.2556	673.7727	732.7178	868.819	875.391	926.7885	937.4609	1026.7838	1058.2046	1060.7645	1083.9975	1126.2125	1192.6239	1221.1936	1236.179	1285.9511	1307.6251	1364.1113	1390.2283	1421.8469	1438.036	1468.3232	1491.8037	1501.	1506.7517	1649.8322	1696.181	1704.7596	3000.8569	3009.9011	3016.387	3049.7759	3060.3919	3099.003	3154.6726	3479.8207	3574.6697	3681.2356
CC1=C(N)CCOC1=N	CC1=C(OCC[C]1N)[NH]	
InChI=1S/C6H10N2O/c1-4-5(7)2-3-9-6(4)8/h8H,2-3,7H2,1H3	InChI=1S/C6H10N2O/c1-4-5(7)2-3-9-6(4)8/h8H,2-3,7H2,1H3
