14
gdb 25257	3.37391	1.66942	1.12469	1.3233	69.2	-0.2377	-0.0168	0.2209	987.5331	0.105172	-432.939651	-432.932792	-432.931848	-432.971331	25.736	
O	-0.0458137408	-0.0845715566	 0.0048569499	-0.397456
C	 0.018238835	 1.1266771787	 0.0102157025	 0.351735
N	-1.0536750954	 2.0116625279	 0.0284182874	-0.35687
C	-0.7127402068	 3.4366049492	 0.030227375	-0.286734
C	 0.7840813971	 3.3474114358	 0.0091918031	 0.280191
C	 1.1717121639	 2.0408630191	-0.002059986	 0.198694
N	 2.5405300424	 2.0595424849	-0.0215117195	-0.395258
C	 2.8939701219	 3.384299778	-0.0200410469	-0.00123
N	 1.8500126799	 4.1982655203	-0.0016337277	-0.344057
H	-1.997924317	 1.6656187977	 0.0391950031	 0.256294
H	-1.121040345	 3.9523075224	-0.8485773804	 0.135291
H	-1.0966779247	 3.9442245934	 0.9245765893	 0.135279
H	 3.1623489337	 1.2680186896	-0.0339934438	 0.283509
H	 3.927869176	 3.6959292096	-0.0330087859	 0.140611
73.1673	170.2627	257.2578	299.7774	391.9046	544.4801	545.1442	631.9332	652.2242	666.4222	677.9944	767.9072	787.67	825.7788	969.9368	1014.9969	1037.9186	1073.3842	1120.0944	1154.8889	1176.0584	1265.8928	1304.1762	1370.0773	1384.8913	1435.919	1452.0798	1501.1154	1537.7448	1593.2283	1821.7179	3018.0093	3047.1429	3255.2361	3665.4353	3673.2252
O=C1NCC2=C1NC=N2	O=C1NCc2c1[nH]cn2	
InChI=1S/C5H5N3O/c9-5-4-3(1-6-5)7-2-8-4/h2H,1H2,(H,6,9)(H,7,8)	InChI=1S/C5H5N3O/c9-5-4-3(1-6-5)7-2-8-4/h2H,1H2,(H,6,9)(H,7,8)
