18
gdb 28793	3.06061	1.63647	1.0949	2.5207	79.66	-0.1651	0.0622	0.2274	1083.3589	0.151708	-398.152032	-398.144187	-398.143242	-398.184306	30.272	
N	 0.2292437226	 1.3935112792	 0.1339421361	-0.610768
C	 0.0515828169	-0.0034317484	 0.0231966468	 0.203496
C	-1.0624200456	-0.8186615876	 0.0188141566	-0.196479
C	-0.6298004637	-2.1869076884	 0.0083246313	-0.296113
C	 0.7402151642	-2.1483426194	-0.0186069166	 0.342197
N	 1.8497454226	-3.0264430163	-0.0571887511	-0.411104
C	 3.0179102794	-2.1606686444	 0.2316790022	-0.174764
C	 2.5856022074	-0.6999176724	-0.0931880826	-0.194708
N	 1.1482810451	-0.8374246226	 0.0125176493	-0.009629
H	 0.3726547351	 1.8399468674	-0.7680247809	 0.237872
H	-0.586372855	 1.822291479	 0.5547313127	 0.243161
H	-2.0853454913	-0.472544586	 0.0489955325	 0.077312
H	-1.2531215589	-3.0665714523	 0.0195557397	 0.087424
H	 1.9410100913	-3.4760292816	-0.9630392686	 0.232401
H	 3.2559250905	-2.236982739	 1.2980985598	 0.125153
H	 3.893811666	-2.4811634578	-0.3355573046	 0.109902
H	 2.9807072727	 0.0240138074	 0.623490439	 0.130586
H	 2.8860208207	-0.3851978368	-1.1026251315	 0.10406
130.4598	142.0658	163.0638	217.9066	260.4425	329.4894	536.8807	610.9457	619.8507	630.2395	638.616	734.883	736.4252	763.4351	776.5998	815.6091	833.6548	916.4421	936.3275	1004.5655	1031.0376	1052.4303	1128.3562	1152.8209	1199.5631	1219.3695	1253.9825	1259.5288	1305.0944	1333.5917	1364.1694	1399.2235	1444.1097	1474.5963	1500.4116	1527.4368	1559.1718	1621.4701	1657.4493	3000.1891	3045.6429	3096.2311	3116.2744	3233.5632	3260.2481	3479.8918	3494.5906	3583.9833
NC1=CC=C2NCCN12	Nc1ccc2NCCn12	
InChI=1S/C6H9N3/c7-5-1-2-6-8-3-4-9(5)6/h1-2,8H,3-4,7H2	InChI=1S/C6H9N3/c7-5-1-2-6-8-3-4-9(5)6/h1-2,8H,3-4,7H2
