18
gdb 115696	2.30519	1.29121	0.97901	3.5833	67.51	-0.2403	0.0234	0.2637	1227.8	0.14709	-476.227192	-476.21772	-476.216776	-476.262391	33.787	
N	 0.8394237879	-0.1198651303	-0.3581934402	-0.51754
C	-0.2862632803	 0.6029832978	-0.1405108462	 0.361175
O	-0.3407324888	 1.8172887996	-0.0766830434	-0.373973
C	-1.5421539038	-0.2453535612	 0.0406636829	 0.024133
O	-1.3096591503	-1.6725348914	-0.0101159517	-0.300307
C	-1.8752738252	-1.8596721346	 1.3087218307	-0.091005
C	-2.1285593078	-0.3437932336	 1.4762479438	-0.063522
C	-1.3805021327	 0.3632665919	 2.6004741038	-0.097803
O	-1.958116059	 0.0911413953	 3.8681742629	-0.421693
H	 1.7051695758	 0.3572450571	-0.5456894243	 0.263507
H	 0.7717963351	-1.1216731677	-0.433496362	 0.273057
H	-2.2653699691	 0.0742567621	-0.7182201618	 0.113715
H	-2.7660484215	-2.4961961608	 1.2755606528	 0.114403
H	-1.1465862413	-2.3021432267	 2.0023607051	 0.095366
H	-3.185747476	-0.0789831955	 1.5329155247	 0.097854
H	-0.3140938658	 0.0894984013	 2.577087023	 0.094523
H	-1.4380868507	 1.4450869049	 2.4569065761	 0.145253
H	-1.7870681363	-0.8306921384	 4.0853514737	 0.282859
49.7732	79.2904	108.5645	124.9063	241.8525	273.2234	304.2297	322.1069	384.4101	432.6585	495.4843	526.4856	648.681	712.8685	812.7708	849.2214	883.4365	907.9587	989.5348	1029.2845	1033.5758	1062.0565	1088.5637	1095.8519	1134.8653	1169.994	1218.9803	1233.2115	1267.3809	1327.3338	1337.702	1365.2166	1376.8144	1395.1763	1416.7856	1502.1978	1524.7342	1590.6632	1798.0035	2986.122	3003.9908	3046.0999	3062.7156	3097.8224	3109.3659	3591.9433	3734.6152	3816.5629
NC(=O)C1OCC1CO	NC(=O)[C@H]1OC[C@H]1CO	
InChI=1S/C5H9NO3/c6-5(8)4-3(1-7)2-9-4/h3-4,7H,1-2H2,(H2,6,8)	InChI=1S/C5H9NO3/c6-5(8)4-3(1-7)2-9-4/h3-4,7H,1-2H2,(H2,6,8)/t3-,4+/m1/s1
