18
gdb 128839	5.72592	0.66309	0.6366	2.8733	74.58	-0.2576	-0.0117	0.2459	1742.5952	0.147366	-439.066373	-439.057459	-439.056515	-439.10164	30.989	
C	-0.1291401119	 1.3882900747	 0.0092707267	-0.230752
O	 0.0197716325	-0.0113360797	-0.0261930487	-0.227345
C	 0.6513418912	-0.5263957966	 1.1214927909	-0.0406
C	 0.7538886122	-2.0457174595	 0.96552472	-0.344961
C	 1.3914134184	-2.7030537235	 2.1503640985	 0.136916
C	 2.6390568641	-3.2303721685	 2.275200264	-0.008345
O	 2.8396918383	-3.7134547601	 3.510113774	-0.161895
N	 1.68840271	-3.5107228533	 4.2632521447	-0.1317
C	 0.8484845176	-2.9171169363	 3.4534516305	-0.037269
H	 0.8432639155	 1.9013462383	 0.0764576371	 0.105923
H	-0.6233299701	 1.6882293235	-0.9178035995	 0.129605
H	-0.7462468475	 1.7121051915	 0.8623833588	 0.105679
H	 1.6571402988	-0.0904198642	 1.2467188394	 0.091469
H	 0.0773968288	-0.2728565693	 2.0298101266	 0.088654
H	-0.2546901424	-2.4419473202	 0.8030372727	 0.123891
H	 1.3264610595	-2.263831865	 0.0587387257	 0.118656
H	 3.4656653881	-3.3354616596	 1.5890546085	 0.150726
H	-0.1359163929	-2.6589189322	 3.8199416201	 0.131347
41.9683	82.1291	93.2449	110.4114	234.0075	258.8608	317.3303	339.3662	456.8674	621.6478	666.1715	736.5774	799.8629	847.4869	902.662	912.664	938.0648	995.8921	1021.1479	1059.2653	1063.2123	1152.269	1163.9894	1180.0267	1205.3281	1226.3975	1231.8525	1279.1513	1305.2149	1329.6122	1398.0407	1421.2935	1476.8106	1481.7541	1486.6596	1492.0224	1505.1011	1530.5757	1653.0209	2949.0771	2972.4734	2978.9748	3015.5177	3045.9577	3091.6963	3116.4743	3236.3826	3261.7415
COCCC1=CON=C1	COCCc1conc1	
InChI=1S/C6H9NO2/c1-8-3-2-6-4-7-9-5-6/h4-5H,2-3H2,1H3	InChI=1S/C6H9NO2/c1-8-3-2-6-4-7-9-5-6/h4-5H,2-3H2,1H3
