20
gdb 110955	2.76848	1.21247	1.01935	2.0663	80.82	-0.2407	0.0068	0.2475	1264.6415	0.169992	-403.107458	-403.098257	-403.097313	-403.141462	34.209	
C	-0.1860930918	 1.5494514369	 0.0649646809	-0.381166
C	 0.1813058337	 0.0683898574	-0.0841460178	-0.223417
C	 0.8352809411	-0.4967630692	 1.1705157142	 0.018673
C	-0.0619113042	-0.8659544449	 2.3940893726	-0.168266
N	-0.5464975779	-2.0597761213	 1.5732752785	-0.343699
C	 0.9722959503	-2.052989166	 1.3198451089	 0.166626
C	 1.6566495591	-3.0417440786	 0.4281232554	-0.524782
C	 1.0749078659	-1.8053428727	 2.84385205	 0.409114
O	 1.5908448503	-2.2507810964	 3.823532354	-0.334438
H	 0.6924480995	 2.158421865	 0.3063185419	 0.113945
H	-0.6181255777	 1.9414771647	-0.8607342482	 0.115714
H	-0.9211092531	 1.6976478133	 0.8631742987	 0.118469
H	-0.7070948062	-0.5183828172	-0.3292750784	 0.124801
H	 0.8823871697	-0.0483540037	-0.9209658692	 0.095936
H	 1.7418649459	 0.0580697686	 1.4337559513	 0.07993
H	-0.7506157212	-0.2413734891	 2.9591062893	 0.097949
H	-0.8130067366	-2.8390341077	 2.1826744105	 0.226981
H	 1.2544922809	-3.0000403282	-0.58862011	 0.136813
H	 2.7295095745	-2.8295374235	 0.3847381767	 0.136562
H	 1.5329658677	-4.0614652272	 0.8067363304	 0.134256
79.9739	126.2081	151.6388	167.3458	205.1562	238.9121	274.2721	336.9426	384.4521	527.2677	556.3234	649.658	712.7627	744.0777	791.8437	800.9168	811.7392	860.7225	908.8189	961.1956	1013.5168	1056.0823	1062.0943	1069.5315	1116.7329	1129.0333	1163.6031	1185.321	1193.3608	1245.5098	1269.8425	1294.7807	1344.5698	1349.5757	1406.6131	1413.4911	1426.0036	1481.0786	1486.783	1490.0118	1500.8394	1506.0683	1896.8416	3024.1557	3031.3066	3037.9369	3058.2675	3087.9529	3105.7352	3107.786	3111.9286	3112.8887	3146.7847	3401.4321
CCC1C2NC1(C)C2=O	CC[C@H]1[C@H]2N[C@]1(C)C2=O	
InChI=1S/C7H11NO/c1-3-4-5-6(9)7(4,2)8-5/h4-5,8H,3H2,1-2H3	InChI=1S/C7H11NO/c1-3-4-5-6(9)7(4,2)8-5/h4-5,8H,3H2,1-2H3/t4-,5+,7-/m0/s1
