13
gdb 131129	3.95099	1.07111	0.94449	1.4685	60.28	-0.2736	-0.0574	0.2162	1170.8651	0.087708	-489.857366	-489.84966	-489.848716	-489.890626	27.241	
O	-0.0924039811	 1.4399587364	 0.0791540362	-0.425774
C	 0.0152567655	 0.0466693936	 0.0454134028	-0.050479
C	 0.7836193908	-0.3944735003	-1.2024123778	 0.131068
O	 1.1482466739	 0.4150611479	-2.0171797241	-0.248628
C	 0.7072181698	-0.4566730429	 1.2780171279	 0.219082
C	 1.3378125373	 0.2240889418	 2.2697290428	-0.031922
O	 1.8037556202	-0.6519277022	 3.1559718993	-0.156716
N	 1.4398721472	-1.9448953196	 2.6775372817	 0.001491
N	 0.8101777047	-1.7914135579	 1.5981054021	-0.187691
H	 0.3091049482	 1.7478826759	-0.7507799377	 0.301975
H	-0.978534599	-0.4323206625	-0.0194093911	 0.125967
H	 0.9775507238	-1.4781802151	-1.3042931493	 0.132552
H	 1.5003213688	 1.2714386949	 2.4561870172	 0.189076
55.5746	92.5753	162.4601	233.8461	310.0702	370.7445	434.7669	500.6621	636.4638	643.289	677.9592	724.9358	786.2048	863.7725	874.6359	988.6985	1028.8154	1051.5207	1141.2962	1151.9909	1241.8383	1256.0048	1308.2677	1353.7683	1387.8302	1430.9784	1454.3397	1618.8383	1818.5148	2947.8048	2977.4652	3304.8334	3668.5665
OC(C=O)C1=CON=N1	O[C@@H](C=O)c1conn1	
InChI=1S/C4H4N2O3/c7-1-4(8)3-2-9-6-5-3/h1-2,4,8H	InChI=1S/C4H4N2O3/c7-1-4(8)3-2-9-6-5-3/h1-2,4,8H/t4-/m0/s1
