19
gdb 106484	2.65343	1.61556	1.24876	3.4554	74.87	-0.2435	-0.0172	0.2263	1049.9835	0.160845	-423.035752	-423.028006	-423.027062	-423.067888	30.843	
O	 0.0631562822	 1.3939348663	-0.056978546	-0.426049
C	 0.0564719305	-0.0207162816	-0.0058516548	-0.189059
C	-1.3498979961	-0.5751089141	-0.0349677366	 0.209838
C	-2.3054332721	-0.5471222326	-1.2845691745	-0.264591
C	-3.0947827736	-1.6140407425	-0.4733762956	-0.029399
C	-1.7123578802	-2.0993962738	 0.0491960784	-0.286156
C	-3.6156478154	-0.7888295656	 0.7206802443	-0.327321
C	-2.3124262217	-0.0218010269	 1.0065002727	 0.422189
O	-2.0965615949	 0.8340753057	 1.830416582	-0.367889
H	-0.4209780998	 1.6880232501	 0.7263100978	 0.297443
H	 0.6264392582	-0.3723315767	-0.8730021278	 0.104606
H	 0.5707694444	-0.3970947424	 0.8944891514	 0.091764
H	-2.8010995459	 0.3940636735	-1.5358651564	 0.110714
H	-1.8095680039	-0.9609014069	-2.1657843484	 0.109819
H	-3.7939795903	-2.2971034731	-0.9530651326	 0.075686
H	-1.1592439642	-2.6805162041	-0.6927085711	 0.110681
H	-1.6647991836	-2.5906789134	 1.0257790639	 0.103359
H	-4.432104277	-0.1033558729	 0.473006536	 0.12794
H	-3.9229336566	-1.391186129	 1.5815136073	 0.126426
107.7257	140.3816	190.0433	265.0617	391.8966	412.8068	451.382	498.6229	543.8076	600.6402	628.179	681.4108	755.6448	827.3244	865.8029	899.461	904.0297	950.1898	982.6874	991.8061	1022.8931	1032.3244	1071.5362	1080.9149	1100.6322	1130.038	1154.763	1189.3385	1207.1556	1251.1551	1264.4156	1280.5102	1308.2202	1354.9457	1387.8463	1447.2858	1460.0813	1488.425	1498.8047	1526.2177	1838.1092	2964.8977	3051.5538	3054.9964	3061.3475	3062.6568	3100.9461	3114.9075	3122.9118	3126.9929	3757.211
OCC12CC(C1)CC2=O	OC[C@@]12C[C@@H](C1)CC2=O	
InChI=1S/C7H10O2/c8-4-7-2-5(3-7)1-6(7)9/h5,8H,1-4H2	InChI=1S/C7H10O2/c8-4-7-2-5(3-7)1-6(7)9/h5,8H,1-4H2/t5-,7+
