19
gdb 5939	4.27185	1.14145	1.1337	4.8653	71.43	-0.2818	0.0312	0.313	1122.5153	0.16317	-365.083186	-365.073499	-365.072555	-365.117166	34.891	
C	-0.0417206104	 1.5654203754	 0.0628662078	-0.414933
C	 0.0012663738	 0.0283673065	 0.0567908946	 0.240788
C	 0.7260940015	-0.4943447731	 1.3081306928	-0.414916
C	-1.430252967	-0.533987981	 0.0093904457	-0.086926
O	-2.127009937	-0.0977930306	 1.1631710979	-0.423501
C	 0.7123295446	-0.483051925	-1.227471955	-0.366629
C	 2.0985896532	-0.0366536566	-1.3433154409	 0.273317
N	 3.1945051792	 0.3210247957	-1.4267724985	-0.320064
H	 0.9676110344	 1.9854199564	 0.0953482138	 0.134883
H	-0.5398499673	 1.950681821	-0.8342388879	 0.106918
H	-0.5959052844	 1.9210935217	 0.9336530527	 0.13876
H	 0.1899970042	-0.1858500146	 2.2077616791	 0.138823
H	 0.7791711843	-1.5891173699	 1.3060354933	 0.106962
H	 1.7475474211	-0.1068083462	 1.3597108732	 0.134877
H	-1.9293284875	-0.1843584417	-0.9096867344	 0.084448
H	-1.3883697069	-1.6350872005	-0.0343828912	 0.084414
H	-3.0218324704	-0.4470330227	 1.1288973281	 0.292399
H	 0.705883138	-1.5796975041	-1.2501876609	 0.145203
H	 0.1706937066	-0.1430062707	-2.1186457902	 0.145175
77.197	120.7467	132.8413	224.1121	226.0791	241.5624	257.3498	323.3661	339.4431	390.4905	399.0319	407.6402	446.6683	617.81	753.8633	885.0337	894.9278	941.2598	963.7952	968.2855	997.2164	1064.0173	1092.2073	1181.2802	1193.479	1221.7708	1247.0572	1282.8775	1333.1016	1344.3166	1402.5442	1416.5422	1461.6096	1466.9535	1483.9438	1493.3895	1499.1977	1515.4988	1521.562	2359.4929	2953.3931	2984.6109	3030.4615	3034.7254	3039.7243	3070.0578	3103.2517	3106.3213	3134.3931	3138.1255	3838.9033
CC(C)(CO)CC#N	CC(C)(CO)CC#N	
InChI=1S/C6H11NO/c1-6(2,5-8)3-4-7/h8H,3,5H2,1-2H3	InChI=1S/C6H11NO/c1-6(2,5-8)3-4-7/h8H,3,5H2,1-2H3
