25
gdb 58301	2.86235	0.84864	0.76848	1.4815	89.35	-0.259	0.0698	0.3288	1644.5733	0.226999	-389.483124	-389.472105	-389.471161	-389.519633	40.929	
C	 0.1482017981	 1.4997464414	-0.1922270112	-0.418321
C	 0.0242759615	-0.0076752324	 0.0402040791	 0.133575
O	 0.6448011572	-0.3908836995	 1.2683419307	-0.437834
C	-1.4237912441	-0.5362742531	 0.0819284252	 0.033725
C	-1.4200036064	-2.0720385982	 0.0671471826	-0.396166
C	-2.2221468782	 0.0388690809	 1.2704091738	-0.201975
C	-3.6880487071	-0.3482421922	 1.285413585	 0.028564
C	-4.1820527327	-1.5352549798	 2.0762095945	-0.250125
C	-4.5106933459	-0.135043461	 2.5313248389	-0.283311
H	 1.2030109205	 1.7849990426	-0.2856210918	 0.101595
H	-0.3547707302	 1.7977593221	-1.1183244195	 0.114576
H	-0.2787567531	 2.069986171	 0.6369111671	 0.128539
H	 0.526462352	-0.5196386778	-0.7987949761	 0.056996
H	 1.5549614126	-0.0802223116	 1.2521949173	 0.280375
H	-1.9012765753	-0.1877822424	-0.8456276007	 0.062209
H	-0.9212975795	-2.4622140877	 0.9590543936	 0.127454
H	-2.4353973225	-2.4734713096	 0.0367475572	 0.117273
H	-0.8813409391	-2.4507821035	-0.8086238326	 0.099797
H	-1.7467540223	-0.2773613015	 2.2060128165	 0.107695
H	-2.1558811479	 1.1336415173	 1.2497356005	 0.089274
H	-4.2086193821	-0.1613212578	 0.3479023099	 0.074135
H	-4.9789418525	-2.1435291433	 1.6617854584	 0.105896
H	-3.4525368128	-2.094555523	 2.6526884586	 0.112134
H	-4.0013667573	 0.2427914649	 3.412258495	 0.108279
H	-5.531476593	 0.2159757941	 2.4260138581	 0.105641
44.3255	75.0254	97.8351	142.7958	219.5583	226.1569	240.3845	270.92	279.5841	316.4881	363.9155	374.0631	452.394	497.4847	605.785	772.7332	779.5798	807.1221	836.5625	877.6472	891.4837	933.4288	946.0513	979.0402	1013.2918	1028.2444	1052.4484	1067.3677	1077.502	1085.5801	1138.7042	1149.4664	1175.0244	1180.5246	1198.1488	1227.0802	1238.5897	1277.6489	1317.1089	1347.9174	1373.1785	1391.2347	1403.2554	1407.2444	1413.4465	1424.1215	1467.49	1484.7968	1493.2288	1498.0532	1500.9518	1504.351	1507.3317	2944.2923	2998.2697	3024.9523	3029.4594	3037.8283	3068.8501	3089.4902	3102.9806	3119.702	3120.1152	3125.7403	3127.2315	3131.4198	3203.1151	3218.578	3825.3497
CC(O)C(C)CC1CC1	C[C@@H](O)[C@@H](C)CC1CC1	
InChI=1S/C8H16O/c1-6(7(2)9)5-8-3-4-8/h6-9H,3-5H2,1-2H3	InChI=1S/C8H16O/c1-6(7(2)9)5-8-3-4-8/h6-9H,3-5H2,1-2H3/t6-,7+/m0/s1
