16
gdb 10927	3.33568	1.92276	1.53671	2.3235	59.89	-0.2387	0.0627	0.3015	845.0999	0.129586	-420.834089	-420.826356	-420.825411	-420.865692	29.852	
O	 0.1186658663	 1.4199465519	-0.0067721611	-0.441684
C	 0.0157083471	 0.0004514978	 7.1511*^-6	 0.085672
C	-1.3641599963	-0.6292659129	 0.0460571827	-0.199355
C	-2.1677411548	-0.2070911786	-1.1784201487	-0.337794
C	-1.1353891727	-1.2525927174	-1.3601191891	 0.407927
O	-1.4976460079	-2.4822608439	-1.8626091057	-0.455124
C	 0.2689082693	-0.6383640243	-1.4171813212	 0.02706
O	 0.5655530479	 0.2725551006	-2.4366515606	-0.441207
H	-0.7734608823	 1.7817177976	-0.0052635577	 0.295834
H	 0.6999709047	-0.3765358917	 0.7641329349	 0.088736
H	-1.8483626675	-1.0378164363	 0.9244511355	 0.093816
H	-3.1838246708	-0.5870864241	-1.1835068364	 0.127957
H	-2.0531491566	 0.7718615096	-1.6375148026	 0.109355
H	-0.8176240635	-3.1213301316	-1.6213675679	 0.286936
H	 1.0396685022	-1.4215274388	-1.374656713	 0.064833
H	 0.604818245	 1.1350340721	-1.9950674501	 0.287038
106.2208	210.691	250.4599	266.2371	272.8955	342.8483	388.299	484.6479	511.978	545.2083	602.1489	715.4266	737.0547	817.5876	845.196	906.643	947.1598	982.3601	1015.6364	1056.5054	1090.6407	1098.5727	1136.8593	1164.0478	1203.3134	1247.268	1276.9945	1299.8049	1322.1664	1370.5857	1395.8065	1415.3531	1438.6911	1509.8666	2998.6004	3076.8969	3113.4854	3190.1534	3209.4967	3699.1799	3795.5855	3823.1854
OC1C2CC2(O)C1O	O[C@H]1[C@H]2C[C@@]2(O)[C@H]1O	
InChI=1S/C5H8O3/c6-3-2-1-5(2,8)4(3)7/h2-4,6-8H,1H2	InChI=1S/C5H8O3/c6-3-2-1-5(2,8)4(3)7/h2-4,6-8H,1H2/t2-,3+,4+,5+/m1/s1
