21
gdb 92992	2.67353	1.10206	0.86662	2.9331	84.65	-0.2419	-0.0178	0.2241	1380.6882	0.181805	-387.114831	-387.105573	-387.104628	-387.149707	34.207	
C	-0.6892604726	 1.3032291987	-0.0225014363	-0.414988
C	 0.0987014494	-0.0037883136	-0.0759582636	 0.021464
C	 1.2740095314	-0.0109606482	-1.0877439196	-0.260865
C	 2.2314765129	-1.0115014826	-0.4888231304	-0.067584
C	 1.9273180337	-1.2955090162	 0.7761393657	-0.062596
C	 0.7265774265	-0.5104256041	 1.2653944311	-0.069391
C	 1.1474049828	 0.6032275234	 2.2584540935	-0.278603
C	 1.6383687967	 0.0220906764	 3.5631153012	 0.162095
O	 2.7151359718	 0.2295333953	 4.0601808791	-0.243278
H	-0.0554109645	 2.1529344067	 0.2523017073	 0.120021
H	-1.1258615952	 1.525746733	-1.0018511745	 0.115336
H	-1.5132126036	 1.2507336732	 0.6978198625	 0.112824
H	-0.5881026587	-0.798247518	-0.3930378394	 0.082483
H	 0.9435158741	-0.2778054519	-2.0981084446	 0.103446
H	 1.7464550467	 0.9793535317	-1.172295867	 0.104914
H	 3.0785840583	-1.4139831654	-1.0333444399	 0.095411
H	 2.4930308829	-1.9570453889	 1.4235289882	 0.101091
H	 0.0082098898	-1.1549222231	 1.790561264	 0.074616
H	 1.9273286411	 1.2467556179	 1.8425263716	 0.120626
H	 0.2704426503	 1.2220223958	 2.4954520465	 0.116259
H	 0.8998991061	-0.6510267701	 4.0628238246	 0.066718
53.3139	70.5948	104.3464	183.1948	250.3238	264.2188	281.6087	355.0206	465.2477	478.2842	522.61	636.3729	737.2329	757.0952	775.8353	839.4206	902.8632	924.0469	958.0672	976.182	981.8219	989.9829	1048.4016	1070.1458	1089.6504	1122.5259	1139.1355	1164.4707	1189.2556	1199.9317	1259.0612	1294.0541	1314.5277	1334.1048	1367.7696	1371.776	1376.3508	1411.4172	1429.4112	1459.6639	1488.3338	1498.3476	1502.3054	1686.8366	1834.2756	2837.4939	2996.0615	3001.8023	3016.0002	3024.9562	3029.0985	3056.1529	3092.9179	3099.5257	3104.4305	3180.1243	3205.3381
CC1CC=CC1CC=O	C[C@H]1CC=C[C@H]1CC=O	
InChI=1S/C8H12O/c1-7-3-2-4-8(7)5-6-9/h2,4,6-8H,3,5H2,1H3	InChI=1S/C8H12O/c1-7-3-2-4-8(7)5-6-9/h2,4,6-8H,3,5H2,1H3/t7-,8-/m0/s1
