18
gdb 97675	3.92815	0.70964	0.66367	3.2374	78.24	-0.2444	0.0202	0.2646	1702.7852	0.146087	-439.007857	-438.997765	-438.996821	-439.045206	34.728	
N	 0.5591288466	 1.3009284425	 0.323536007	-0.546665
C	 0.045874963	-0.0442167864	 0.0401060778	 0.05556
C	-0.3077185392	-0.8077670077	 1.3485793836	-0.081088
O	-1.7182443568	-0.6524179164	 1.1211674285	-0.26515
C	-1.497078652	-0.0364458367	-0.1583221218	-0.081086
C	 0.8276784373	-0.7751989539	-0.9511236423	 0.061142
C	 1.5065677886	-1.3360174871	-1.7740151308	 0.066248
C	 2.3116464346	-2.0352969811	-2.7673973838	-0.218256
O	 3.3847702227	-1.1993306739	-3.1851451307	-0.409948
H	 1.5264731361	 1.2249069489	 0.6317868531	 0.234939
H	 0.5963726064	 1.8281043715	-0.5466657104	 0.234935
H	-0.0032770711	-1.8606241283	 1.363427793	 0.102099
H	 0.0272515907	-0.3020236291	 2.2609121602	 0.108565
H	-1.9307535081	 0.9677813736	-0.2198563153	 0.108564
H	-1.8576151764	-0.6580530513	-0.98598858	 0.102097
H	 2.6854348166	-2.9755128803	-2.3298150004	 0.118666
H	 1.6691942472	-2.3149201776	-3.6184373177	 0.118664
H	 3.893282304	-1.6910344468	-3.8382206799	 0.290714
14.4763	60.6268	96.9166	106.0842	202.337	220.3744	231.2777	294.0319	351.9106	385.1596	490.5812	513.4901	540.7145	630.1	831.4559	872.3937	906.0379	960.5962	972.3848	1004.7359	1016.6933	1027.5587	1051.0637	1072.2126	1159.4666	1165.9884	1224.7348	1243.8271	1245.6508	1275.8419	1298.4687	1311.6126	1378.4339	1458.7467	1495.7749	1503.0928	1521.1206	1658.8773	2357.356	2962.3109	2980.4829	3017.2577	3027.9877	3077.2225	3078.9983	3468.6711	3542.6111	3817.0045	14.4736	60.6257	96.9165	106.0842	202.337	220.3761	231.2772	294.0325	351.9106	385.16	490.5812	513.4902	540.715	630.1002	831.4559	872.3938	906.0382	960.5961	972.3848	1004.7356	1016.6932	1027.5589	1051.0634	1072.2124	1159.4667	1165.9884	1224.7349	1243.8271	1245.6509	1275.842	1298.4682	1311.6125	1378.4339	1458.7467	1495.7748	1503.0928	1521.1205	1658.8765	2357.3562	2962.3108	2980.4829	3017.2577	3027.9876	3077.2224	3078.9982	3468.6715	3542.6113	3817.0042
NC1(COC1)C#CCO	NC1(COC1)C#CCO	
InChI=1S/C6H9NO2/c7-6(2-1-3-8)4-9-5-6/h8H,3-5,7H2	InChI=1S/C6H9NO2/c7-6(2-1-3-8)4-9-5-6/h8H,3-5,7H2
