18
gdb 13091	4.13121	1.18874	0.9964	3.7574	68.75	-0.2445	-0.021	0.2235	1173.875	0.151962	-384.931094	-384.922303	-384.921359	-384.966764	30.154	
C	-0.2058189403	 1.5761723893	-0.1436409219	-0.409624
C	-0.043260289	 0.0682941571	-0.0151988582	-0.050649
C	 1.1589816511	-0.5815003201	-0.7379019965	-0.076157
O	 1.6900415861	-1.1005725797	 0.499199067	-0.29444
C	 0.6027379145	-0.5351637827	 1.2670185821	 0.126239
C	 1.107053338	 0.3974051756	 2.3694995596	-0.293897
C	 1.945770143	-0.3550834966	 3.382527857	 0.154579
O	 1.7305769402	-0.3694828051	 4.5679691411	-0.242277
H	 0.7310421018	 2.10794026	 0.04982733	 0.122241
H	-0.5268135521	 1.8368507691	-1.1577627791	 0.122239
H	-0.9615615075	 1.9595152063	 0.5496881748	 0.124693
H	-0.9904026002	-0.4232748981	-0.2516787944	 0.086801
H	 0.9194928723	-1.3818611859	-1.4480496407	 0.105256
H	 1.8537009629	 0.1209471366	-1.2171552654	 0.101004
H	-0.00338999	-1.3324520545	 1.7189888542	 0.086498
H	 1.7403725765	 1.1732028909	 1.9206381994	 0.118681
H	 0.2729305167	 0.8762377296	 2.8913657869	 0.119618
H	 2.7992572862	-0.9143654416	 2.9429233139	 0.099193
15.6201	63.9171	75.735	162.3659	224.0509	252.9895	354.9412	421.35	448.2346	527.4648	731.5586	805.1493	845.4978	886.544	917.064	932.2563	1012.5299	1025.3835	1037.3172	1090.3007	1129.1629	1140.4525	1156.2428	1188.4009	1220.6093	1256.9879	1283.7779	1302.3859	1357.7636	1382.8438	1391.3467	1416.2628	1422.3783	1449.1733	1496.0221	1499.3067	1527.6218	1829.7085	2909.0626	3001.4762	3010.6879	3030.789	3035.9526	3051.5911	3073.61	3099.2047	3101.4172	3109.2215
CC1COC1CC=O	C[C@H]1CO[C@H]1CC=O	
InChI=1S/C6H10O2/c1-5-4-8-6(5)2-3-7/h3,5-6H,2,4H2,1H3	InChI=1S/C6H10O2/c1-5-4-8-6(5)2-3-7/h3,5-6H,2,4H2,1H3/t5-,6-/m0/s1
