23
gdb 119705	3.02519	0.9456	0.85721	1.2174	86.41	-0.2377	0.0776	0.3153	1500.4957	0.205191	-388.266509	-388.256713	-388.255769	-388.301377	36.937	
C	-0.0161971646	 1.5993966335	 0.074937863	-0.381
C	-0.0204069541	 0.069181267	 0.1116692134	-0.155738
C	-1.4160025148	-0.5333034131	-0.1161367543	-0.306111
C	-1.4165226062	-2.0382551399	-0.1028372771	 0.343497
C	-0.820477621	-2.9179959408	-1.2173427743	-0.273654
C	-1.9984259702	-3.9265903889	-1.0530375016	-0.219772
C	-2.5790635015	-3.0564535621	 0.0664204848	-0.193409
C	-1.5530526894	-2.8454208036	 1.1453268078	 0.061936
O	-0.5827737899	-3.8009020852	 1.4769573063	-0.425115
H	 0.9883304478	 2.0007479983	 0.2417909701	 0.110652
H	-0.36773141	 1.9739988284	-0.8931019959	 0.112081
H	-0.6734589703	 2.0161790017	 0.8466199331	 0.111635
H	 0.6680203976	-0.3189408777	-0.649874166	 0.100255
H	 0.366903998	-0.2817489651	 1.0762309476	 0.103851
H	-2.1041981791	-0.1584042544	 0.6536117385	 0.089632
H	-1.8115912932	-0.1753297492	-1.0775301959	 0.089891
H	-0.8364626279	-2.4170325565	-2.1887309417	 0.09463
H	 0.1833132141	-3.3061339703	-1.0303843491	 0.107955
H	-2.6409250535	-3.9659454264	-1.9349440986	 0.098842
H	-1.7263644423	-4.9481110542	-0.7708045788	 0.090393
H	-3.6340786018	-2.8744120001	 0.2437703308	 0.077288
H	-1.921940368	-2.271904896	 1.9979556658	 0.077485
H	-1.0283657797	-4.5410111155	 1.902607872	 0.284777
67.6349	90.3791	108.5028	212.8385	238.5088	241.7742	274.7086	306.033	323.1597	338.1139	479.7935	574.4504	696.3014	745.4139	765.3322	792.389	799.4355	872.5336	898.6415	906.9903	954.79	962.4488	1003.6694	1026.6008	1043.4676	1047.4866	1083.2039	1118.0351	1139.0785	1171.0666	1220.869	1227.3113	1244.9842	1254.2219	1274.3033	1295.7239	1311.8219	1315.6971	1336.0615	1353.4968	1391.0984	1412.0532	1466.589	1473.8035	1480.8096	1492.6024	1499.1105	1507.3308	1510.0061	3000.073	3023.5323	3027.5827	3032.222	3051.8079	3058.6302	3061.8338	3084.1535	3094.1573	3100.3019	3101.1	3119.2172	3160.8139	3802.4993
CCCC12CCC1C2O	CCC[C@]12CC[C@H]1[C@H]2O	
InChI=1S/C8H14O/c1-2-4-8-5-3-6(8)7(8)9/h6-7,9H,2-5H2,1H3	InChI=1S/C8H14O/c1-2-4-8-5-3-6(8)7(8)9/h6-7,9H,2-5H2,1H3/t6-,7+,8-/m0/s1
