15
gdb 45299	4.49009	1.34214	1.08506	5.4709	76.14	-0.2506	-0.0616	0.189	1050.1998	0.11517	-420.683388	-420.676891	-420.675947	-420.71433	25.728	
O	-0.0350608645	-0.0044116131	 0.1924106431	-0.342659
C	 0.0116280469	 1.1736485027	-0.0108485538	 0.447198
O	-1.1354428696	 1.9124350879	-0.3006833826	-0.255632
C	-0.7533993417	 3.245212351	-0.5804022719	 0.065011
C	-1.3752350164	 4.4366295327	 0.1818239601	-0.312693
C	-0.1790452062	 5.3742563256	 0.2505436618	-0.061269
C	 0.9910615668	 4.7427939474	 0.0282752007	-0.179906
C	 0.7022253992	 3.3390327987	-0.2068012319	 0.349726
C	 1.1645143663	 2.1095275276	 0.0474529837	-0.461737
H	-0.8837078318	 3.4191125852	-1.6577981504	 0.115971
H	-2.2488840903	 4.874716728	-0.3076833493	 0.121962
H	-1.6775197011	 4.1267639185	 1.190289428	 0.142623
H	-0.2780012022	 6.4240025922	 0.5024314268	 0.119096
H	 1.9768348204	 5.1827119782	 0.0990489386	 0.122329
H	 2.1409709243	 1.7849040276	 0.3733435269	 0.129979
130.2401	189.8938	308.2219	350.6704	456.484	533.0139	580.5672	687.8639	711.5668	734.2523	773.6081	790.2806	851.4219	864.9984	877.7906	935.8317	972.6199	993.9838	1031.9271	1095.9029	1123.9902	1138.4144	1164.8063	1183.4476	1243.5886	1278.1182	1324.8514	1364.2799	1372.936	1479.2073	1606.4186	1697.3494	1872.4892	3010.143	3037.7294	3098.0169	3201.1223	3230.8983	3254.8653
O=C1OC2CC=CC2=C1	O=C1O[C@H]2CC=C[C]2[CH]1	
InChI=1S/C7H6O2/c8-7-4-5-2-1-3-6(5)9-7/h1-2,4,6H,3H2	InChI=1S/C7H6O2/c8-7-4-5-2-1-3-6(5)9-7/h1-2,4,6H,3H2/t6-/m0/s1
