17
gdb 73245	2.2709	1.9388	1.42753	2.2085	68.93	-0.2401	0.0125	0.2526	959.4918	0.137923	-455.134612	-455.126985	-455.126041	-455.16669	29.684	
O	 0.0888010842	 1.3822438015	 0.0002343821	-0.476657
C	 0.030865177	-0.0098988918	-0.024374029	 0.319122
C	 0.2526821535	-0.7247456461	-1.3850728207	-0.228342
N	-0.8930689725	-1.6173693349	-1.0713476688	-0.323347
C	-1.3403629035	-0.7340205947	 0.0346826127	-0.069711
C	-1.3652145372	-1.4389244993	 1.3857448039	-0.086924
O	 0.0152627468	-1.5118624623	 1.8160885975	-0.241582
C	 0.7802645669	-0.6163857133	 1.148411717	 0.368244
N	 1.9513135605	-0.2537413756	 1.4551166414	-0.565113
H	 0.9265853813	 1.6062720619	 0.4306774522	 0.295404
H	 0.0737277909	-0.0127779327	-2.1999146517	 0.107045
H	 1.2044384222	-1.239664641	-1.5462840623	 0.11753
H	-1.5640049943	-1.7280676328	-1.821902079	 0.225438
H	-2.2191868282	-0.113910285	-0.1603959071	 0.088267
H	-1.9299122132	-0.8781977727	 2.1396591004	 0.11426
H	-1.7455449483	-2.4600561269	 1.3199129573	 0.127542
H	 2.2773874537	-0.7057366642	 2.3095960939	 0.228822
84.4107	172.9598	228.3238	280.9507	305.2024	395.85	416.0616	491.4244	575.9887	634.1999	680.3338	727.2122	740.2981	829.6754	884.5855	889.313	946.6008	967.7678	1015.6589	1038.9814	1057.9629	1061.6558	1091.1925	1123.3401	1155.6937	1178.6699	1237.7934	1244.6977	1278.4506	1330.9118	1350.8358	1379.7951	1411.8496	1422.2484	1500.4719	1514.6244	1770.5596	3025.8129	3039.7116	3079.1443	3087.257	3119.3256	3489.0897	3547.7815	3736.4177
OC12CNC1COC2=N	O[C@]12CN[C@H]1CO[C]2[NH]	
InChI=1S/C5H8N2O2/c6-4-5(8)2-7-3(5)1-9-4/h3,6-8H,1-2H2	InChI=1S/C5H8N2O2/c6-4-5(8)2-7-3(5)1-9-4/h3,6-8H,1-2H2/t3-,5+/m0/s1
