19
gdb 63307	2.58267	1.50966	1.2444	3.0463	74.65	-0.2418	-0.0293	0.2126	1082.1856	0.158012	-423.04423	-423.035734	-423.03479	-423.076973	32.986	
C	 0.0959106453	 1.5267147218	 0.0096619456	-0.436017
C	-0.0369673812	-0.000537515	-0.0108976624	 0.250496
C	-1.5146271418	-0.4237898442	 0.0298391854	-0.431431
C	 0.6842615332	-0.6483164454	-1.2284100705	-0.378324
C	 1.2641432083	-1.9730854804	-0.7199614439	 0.413632
O	 1.4610416809	-2.9738546399	-1.3596027688	-0.316212
C	 1.4607939628	-1.81999128	 0.7668606002	-0.092573
O	 2.1054822897	-0.5663665627	 1.0812912527	-0.258714
C	 0.6887854718	-0.6331948147	 1.1805646353	 0.041683
H	 1.1482294055	 1.8219418091	 0.054861441	 0.132726
H	-0.3465833075	 1.9689861071	-0.8890449178	 0.117925
H	-0.4159337405	 1.9557232768	 0.8783760754	 0.113213
H	-2.0591816549	-0.0040388334	-0.8217983427	 0.123714
H	-1.6238477468	-1.5132921517	-0.0072348008	 0.122559
H	-2.001110982	-0.0683472514	 0.9448338461	 0.117441
H	 0.0254469651	-0.8258800948	-2.0808501809	 0.125936
H	 1.513791837	-0.0220158352	-1.5733509419	 0.1376
H	 1.7008228855	-2.6664064009	 1.4016225047	 0.115142
H	 0.2808867994	-0.5395319052	 2.1854770534	 0.101203
85.7932	166.661	234.1723	243.3912	267.4094	317.7672	342.2359	359.7296	467.4161	492.363	550.3196	567.9354	656.8695	790.488	821.6989	857.7325	878.1648	918.2313	928.4127	956.35	965.1861	1011.8278	1039.1577	1092.0461	1122.1699	1180.2149	1211.5301	1235.6767	1244.0615	1262.8708	1289.7902	1326.5603	1399.8382	1402.0346	1424.6222	1454.2001	1486.127	1489.4264	1504.1133	1510.1433	1846.0381	3026.7421	3031.471	3058.8781	3093.9774	3096.8717	3103.387	3112.4912	3119.2528	3133.2402	3182.1148
CC1(C)CC(=O)C2OC12	CC1(C)CC(=O)[C@H]2O[C@@H]12	
InChI=1S/C7H10O2/c1-7(2)3-4(8)5-6(7)9-5/h5-6H,3H2,1-2H3	InChI=1S/C7H10O2/c1-7(2)3-4(8)5-6(7)9-5/h5-6H,3H2,1-2H3/t5-,6-/m1/s1
