20
gdb 76380	2.39231	1.18143	1.14443	14.5344	78.41	-0.1677	-0.031	0.1367	1225.0501	0.169	-440.234295	-440.223683	-440.222739	-440.270928	37.012	
C	 0.0111953657	 1.5440134642	 0.4340263092	-0.446069
C	 0.080845847	 0.0335070406	 0.3454136411	-0.025475
C	 1.2261799447	-0.7038937906	-0.2849024326	-0.134997
N	 2.434736557	 0.0955214385	-0.6946904624	-0.420603
H	 2.6768552251	 0.7531693227	 0.0522663906	 0.320992
H	 3.2366394063	-0.5256194664	-0.8223191909	 0.333399
H	 2.2937063014	 0.6220623289	-1.5614138252	 0.322688
C	 0.986340572	-0.8507742578	 1.1905031307	 0.150035
C	 1.9465567641	-0.2836890353	 2.2137101367	-0.508379
C	 0.3654470484	-2.2725304742	 1.5359908459	 0.339512
O	 0.5413094216	-2.6369324897	 2.7039295905	-0.462212
O	-0.2124575353	-2.7954581989	 0.5613363286	-0.486128
H	 0.9747665293	 2.0302181924	 0.6328921836	 0.08261
H	-0.3948948348	 1.9801089041	-0.4863808774	 0.122114
H	-0.6504026994	 1.8395603049	 1.2538987531	 0.15778
H	-0.8639676013	-0.4497361609	 0.1112183601	 0.137154
H	 1.0588555138	-1.5605362939	-0.9277222877	 0.156799
H	 2.0434398091	 0.8116861418	 2.2152175324	 0.076992
H	 1.5698029783	-0.605977492	 3.1883064679	 0.183733
H	 2.9491675271	-0.7226755684	 2.122272426	 0.100054
38.9327	68.4235	84.7911	139.9837	153.3962	189.074	220.9587	230.3183	302.4236	352.3707	434.0195	494.5227	521.3727	611.4998	715.1304	759.6501	781.4796	833.8259	857.9976	928.8267	975.6626	1001.8138	1021.5134	1070.4197	1083.3541	1109.1522	1129.3778	1173.3266	1200.7532	1277.6867	1320.4123	1326.355	1392.5794	1415.8542	1426.778	1462.4728	1472.3199	1485.3612	1499.2682	1508.364	1638.0452	1652.8666	1788.6638	2987.1161	3015.867	3046.3298	3068.4228	3101.6375	3113.979	3154.6887	3192.8096	3387.2528	3469.2013	3493.7901
CC1C([NH3+])C1(C)C([O-])=O	C[C@H]1[C@@H]([NH3])[C@]1(C)C(=O)[O]	
InChI=1S/C6H11NO2/c1-3-4(7)6(3,2)5(8)9/h3-4H,7H2,1-2H3,(H,8,9)	InChI=1S/C6H11NO2/c1-3-4(7)6(3,2)5(8)9/h3-4H,1-2,7H3/t3-,4+,6+/m0/s1
