17
gdb 36207	3.86344	1.11879	1.02531	1.5144	78.05	-0.2314	-0.0009	0.2305	1188.9225	0.135488	-384.603912	-384.596134	-384.59519	-384.636821	30.139	
C	-0.0017917077	-1.1356011915	 0.4432826854	-0.454038
C	 0.0146512386	 0.0213922994	 0.1191748969	 0.302533
C	 0.0625937458	 1.4338802278	-0.2602069622	-0.490632
C	 1.4413660889	 2.0114933313	-0.1582371907	 0.384077
C	 2.2176876684	 2.6530818493	-1.0340559572	-0.220177
C	 3.4661222153	 2.9426839779	-0.1789484598	 0.029394
C	 3.7121212236	 1.5591872248	 0.4962231946	-0.214131
C	 2.3473079849	 2.0094712236	 1.0956653825	-0.025162
O	 2.8641063097	 3.3813632932	 1.0867508753	-0.2868
H	-0.0267040738	-2.1593990923	 0.7237948701	 0.199709
H	-0.3167163454	 1.5583593733	-1.2815004556	 0.140954
H	-0.6225865625	 1.9967339849	 0.3911899026	 0.146562
H	 2.051605669	 2.9129178327	-2.069299133	 0.109464
H	 4.2548246898	 3.5905967887	-0.5583898876	 0.08165
H	 3.7426348693	 0.6644699708	-0.1284249	 0.103193
H	 4.5213803079	 1.5843733672	 1.2295863456	 0.107794
H	 1.9529133281	 1.6702243987	 2.0525802432	 0.085609
52.7917	87.3332	214.0838	287.6573	337.7759	440.5924	489.2354	545.5239	622.3992	640.0904	645.8589	694.2906	786.7797	796.724	835.4573	849.1641	889.4919	914.9812	931.3694	946.2107	958.3884	1022.8073	1056.9127	1091.2713	1152.6162	1174.0268	1201.1817	1232.12	1241.0158	1257.6366	1294.7725	1306.2836	1329.4077	1458.5579	1485.7825	1686.3844	2239.2223	2997.6534	3052.8046	3066.2851	3135.2765	3137.4789	3141.0086	3239.7934	3505.9614
C#CCC1=CC2CC1O2	C#CCC1=C[C@@H]2C[C@H]1O2	
InChI=1S/C8H8O/c1-2-3-6-4-7-5-8(6)9-7/h1,4,7-8H,3,5H2	InChI=1S/C8H8O/c1-2-3-6-4-7-5-8(6)9-7/h1,4,7-8H,3,5H2/t7-,8-/m1/s1
