16
gdb 31677	6.5786	0.84497	0.75241	5.7735	76.92	-0.2005	-0.0276	0.1729	1441.1938	0.124055	-437.920025	-437.911359	-437.910415	-437.956692	30.782	
C	-0.0126764427	 1.4022490363	 0.0091610054	-0.265729
O	 0.0049789604	-0.0117339844	 0.0027769486	-0.257319
C	-1.1820904766	-0.6553272302	 0.0114659278	 0.483739
C	-1.4038677417	-2.0060652247	 0.0102216457	-0.438339
C	-2.826664988	-2.1899385845	 0.021209616	 0.208309
C	-3.5481711129	-3.4567799631	 0.0238987497	 0.074505
O	-4.7563096661	-3.5717291817	 0.0345425418	-0.292425
C	-3.4130101686	-0.9391157251	 0.0293485299	-0.163702
N	-2.4057799606	-0.0111313329	 0.0230843997	-0.341033
H	 1.0297089702	 1.7230585434	 0.0015902526	 0.151791
H	-0.513180793	 1.8070059126	-0.8817926085	 0.124089
H	-0.4978504448	 1.7990761823	 0.9120640904	 0.12416
H	-0.6434390811	-2.7699660359	 0.0021535556	 0.113601
H	-2.8915634106	-4.3566129973	 0.017249252	 0.058844
H	-4.4515067208	-0.6552155672	 0.0387517997	 0.15055
H	-2.5424528632	 0.9842027523	 0.0265636934	 0.268957
2.0391	112.7415	156.3973	223.9807	243.2324	271.6112	339.2007	390.722	460.8602	556.5155	641.4863	654.6425	672.0871	730.1494	774.6579	784.9424	973.0023	1002.5736	1041.5408	1074.8811	1127.6566	1175.5029	1184.1039	1204.6313	1274.7486	1335.2345	1392.0968	1444.0621	1456.8695	1482.6388	1494.6051	1510.9695	1555.1907	1642.7474	1782.8601	2868.752	2990.5078	3046.5314	3140.792	3264.4369	3286.1762	3685.5139
COC1=CC(C=O)=CN1	COc1cc(C=O)c[nH]1	
InChI=1S/C6H7NO2/c1-9-6-2-5(4-8)3-7-6/h2-4,7H,1H3	InChI=1S/C6H7NO2/c1-9-6-2-5(4-8)3-7-6/h2-4,7H,1H3
