20
gdb 63709	3.48013	1.14812	1.02459	1.2966	88.02	-0.222	0.0325	0.2545	1246.1081	0.169005	-365.945606	-365.93645	-365.935506	-365.978751	36.043	
C	-0.045182588	 1.5601823259	 0.1104898302	-0.447076
C	 0.0081770956	 0.0385203246	 0.0159075259	 0.341948
C	-1.3726486081	-0.567302358	-0.23297404	-0.448284
C	 1.0927473423	-0.5643244997	-0.96238192	-0.340402
C	 1.7220056346	-1.3015153037	 0.230959082	 0.249364
N	 2.1295023139	-0.2263875633	 1.1887375183	-0.374831
C	 0.7308865076	-0.683504042	 1.1741653891	-0.151846
C	 2.3305647451	-2.5844574089	 0.2455436047	 0.13385
C	 2.847585492	-3.6719653809	 0.2350664715	-0.397665
H	 0.9411115092	 1.9656974832	 0.3473155771	 0.137127
H	-0.3818829187	 1.9964557585	-0.8368392158	 0.109845
H	-0.7465104284	 1.8803340128	 0.8898948833	 0.10707
H	-1.7874341246	-0.210754936	-1.1820698153	 0.11678
H	-1.3290186104	-1.6610307502	-0.2737549983	 0.116549
H	-2.0722744651	-0.2880943396	 0.5634329396	 0.112454
H	 0.6603998366	-1.2370707374	-1.7052888793	 0.111229
H	 1.7609249879	 0.1496272117	-1.4488415446	 0.106899
H	 2.5942427819	-0.6891758585	 1.9700921357	 0.235779
H	 0.2748714296	-1.1156897122	 2.0584411192	 0.09531
H	 3.3023869771	-4.6312535762	 0.2287846566	 0.185901
96.1405	139.0695	223.8448	234.2903	257.9248	272.9141	322.328	366.2917	423.1884	470.9565	521.9903	539.2255	560.5383	577.3131	661.6341	672.8292	770.856	841.4158	869.9726	918.7743	951.5972	958.6721	961.9241	994.2497	1039.8215	1047.899	1097.4485	1132.9693	1192.8043	1215.8836	1247.7365	1270.632	1278.6779	1353.3833	1389.7753	1398.5835	1419.5357	1475.5419	1485.2897	1488.2679	1501.2437	1510.9713	2230.587	3021.8622	3027.5998	3069.5977	3084.8746	3090.9483	3096.7549	3124.1073	3131.8473	3174.2787	3474.5784	3503.3634
CC1(C)CC2(NC12)C#C	CC1(C)C[C@]2(N[C@@H]12)C#C	
InChI=1S/C8H11N/c1-4-8-5-7(2,3)6(8)9-8/h1,6,9H,5H2,2-3H3	InChI=1S/C8H11N/c1-4-8-5-7(2,3)6(8)9-8/h1,6,9H,5H2,2-3H3/t6-,8+/m0/s1
