19
gdb 48812	3.0037	1.36695	1.11384	2.9686	81.59	-0.2414	-0.0145	0.2269	1130.7043	0.160407	-385.912032	-385.90413	-385.903186	-385.94446	30.826	
O	-0.4578305601	 0.2445663395	 0.3575941308	-0.27482
C	-0.1246520098	 1.3669535614	 0.0630863232	 0.105162
C	 1.2747275002	 1.8313838504	-0.0791112878	 0.234047
C	 1.5153128694	 3.2976429981	 0.2744444298	-0.326589
C	 1.504284075	 2.8941515795	-1.1599582486	-0.067422
C	 2.7822618156	 2.8514042962	-1.9802514291	-0.273745
C	 3.8785591725	 2.0239545217	-1.3662970596	-0.069914
C	 3.6863210124	 1.123363378	-0.4047900837	-0.052334
C	 2.3549844703	 0.8064156575	 0.2147281434	-0.339398
H	-0.8869305403	 2.1589459542	-0.1324136079	 0.063297
H	 0.6791792138	 3.8716020456	 0.6606877523	 0.119052
H	 2.4703287126	 3.514512727	 0.7410083967	 0.131031
H	 0.6204176231	 3.1832317014	-1.7227632915	 0.091804
H	 2.5505991057	 2.4532127288	-2.9787610957	 0.119118
H	 3.1378502399	 3.8766194747	-2.1531824204	 0.111842
H	 4.8762553105	 2.1723303092	-1.771198362	 0.088543
H	 4.5318333233	 0.5483591829	-0.0354960066	 0.090182
H	 2.4664907986	 0.6895106169	 1.3010646938	 0.114133
H	 2.0017639172	-0.1722908729	-0.136453657	 0.136012
94.7903	122.0701	218.7056	248.9987	348.6376	364.3957	402.1377	443.1251	539.6077	579.0932	683.5766	738.4626	752.2442	826.5204	867.7506	915.045	922.6243	956.1062	979.0052	996.8579	1019.9134	1044.1464	1058.8571	1077.2977	1116.7602	1131.7968	1200.8022	1215.02	1239.8612	1269.5427	1308.8303	1361.4876	1383.7489	1405.0689	1425.9837	1438.5293	1473.0811	1480.0575	1489.0248	1732.7541	1811.3002	2843.0378	3001.5702	3017.1223	3024.1186	3040.0152	3127.8225	3137.0036	3148.1738	3171.0891	3216.8494
O=CC12CC1CC=CC2	O=C[C@]12C[C@H]1CC=CC2	
InChI=1S/C8H10O/c9-6-8-4-2-1-3-7(8)5-8/h1-2,6-7H,3-5H2	InChI=1S/C8H10O/c9-6-8-4-2-1-3-7(8)5-8/h1-2,6-7H,3-5H2/t7-,8+/m1/s1
