15
gdb 98048	6.08768	0.51469	0.49059	2.6026	75.86	-0.2729	-0.0726	0.2003	2106.1272	0.108224	-457.750353	-457.740358	-457.739413	-457.788081	32.906	
O	 0.2188860603	 1.3400022987	 0.308312689	-0.418448
C	 0.0763741451	-0.0444716914	 0.2421727965	-0.136074
C	-1.3508396546	-0.4297504843	-0.1231826153	 0.197061
O	-2.1844507553	 0.4369753221	-0.3079540729	-0.311129
C	-1.6388448718	-1.8368481271	-0.2303617414	 0.001675
C	-1.8347451457	-3.0249716175	-0.318138781	 0.141878
C	-2.1512103965	-4.4380797644	-0.4071636329	-0.429628
C	-3.5949754073	-4.7497947742	 0.0173675339	 0.170431
O	-3.8972942683	-5.7457106324	 0.6113417599	-0.217687
H	-0.660134442	 1.6982347115	 0.1040086475	 0.29685
H	 0.7517031145	-0.4882492564	-0.507955928	 0.124452
H	 0.3226460501	-0.527118535	 1.2026243184	 0.12515
H	-2.0537319671	-4.7668452517	-1.4533487733	 0.174716
H	-1.4713984699	-5.0566420518	 0.1871429853	 0.169097
H	-4.3397844714	-3.9857400361	-0.2885473857	 0.111654
19.1118	49.9414	73.6159	89.2425	145.1411	179.6119	309.362	350.423	387.8774	402.7693	457.7598	521.5578	560.438	600.8859	734.5315	816.6968	978.2721	1010.0076	1023.1971	1038.4849	1134.4784	1204.758	1209.4663	1237.3673	1283.232	1312.5083	1411.9068	1431.5138	1447.2897	1487.3838	1749.1036	1845.8792	2333.0491	2921.3143	2974.6038	2991.9104	3008.9612	3088.0967	3682.9384
OCC(=O)C#CCC=O	OCC(=O)C#CCC=O	
InChI=1S/C6H6O3/c7-4-2-1-3-6(9)5-8/h4,8H,2,5H2	InChI=1S/C6H6O3/c7-4-2-1-3-6(9)5-8/h4,8H,2,5H2
