25
gdb 96233	2.13213	1.47328	1.06731	0.2039	93.85	-0.2341	0.0247	0.2589	1285.5262	0.230861	-352.37638	-352.366899	-352.365954	-352.410159	37.433	
C	-0.0287775436	 1.2356582699	-0.4725991839	-0.408709
C	 0.0980349795	-0.2592996679	-0.1347848866	 0.03387
C	 0.7916147802	-1.0008916029	-1.2923979204	-0.182175
C	 0.6444803337	-2.5267454913	-1.2924244129	-0.195331
C	 1.4000795095	-3.2665744484	-0.178057386	-0.247064
C	 0.9069994306	-3.0290991853	 1.2304525835	-0.048707
C	 0.6196997473	-1.8681964584	 1.8212953436	-0.080144
C	 0.7342573204	-0.4612536265	 1.2682408323	-0.00853
C	 2.1955237333	 0.0272154716	 1.379769669	-0.394215
H	 0.9467296242	 1.6926029522	-0.6705856656	 0.115339
H	-0.6405623478	 1.3774255826	-1.369543943	 0.109031
H	-0.4992819592	 1.7941697137	 0.3438223722	 0.106586
H	-0.9219689641	-0.6620107068	-0.0601617207	 0.069169
H	 0.3674626842	-0.6211989282	-2.2307926313	 0.0873
H	 1.8568020867	-0.7332690671	-1.3241276731	 0.089805
H	-0.4205317139	-2.787417591	-1.236294507	 0.093723
H	 1.0054597717	-2.9081764597	-2.2557669219	 0.087168
H	 1.3519186578	-4.3416900129	-0.3840143255	 0.095167
H	 2.4679336694	-3.0069678474	-0.242341103	 0.106076
H	 0.7979861706	-3.9270541908	 1.8362391053	 0.080082
H	 0.3074863613	-1.9156918366	 2.8636962083	 0.078469
H	 0.1460900016	 0.178060285	 1.9400841927	 0.068114
H	 2.8697377905	-0.5717033049	 0.7608343625	 0.120359
H	 2.2970457214	 1.0748279481	 1.0803661955	 0.111358
H	 2.5434261648	-0.0579503669	 2.4137917461	 0.113258
71.882	123.4266	221.9332	225.0968	244.4823	290.5527	307.2401	319.1712	342.2469	390.0472	479.1874	525.4261	564.6741	678.5071	740.8048	757.1773	811.0231	854.8399	874.9622	925.4742	963.6166	967.2022	994.7926	1005.8726	1021.803	1036.5444	1070.6553	1108.0751	1118.0195	1136.8784	1172.3621	1207.6952	1255.3978	1272.6032	1295.4699	1326.9406	1338.6369	1360.1966	1374.6796	1381.5674	1388.9054	1404.0761	1407.8526	1419.5106	1432.1548	1478.1418	1482.9283	1489.146	1496.6291	1500.1595	1504.5632	1513.3952	1727.2201	2993.4039	2996.4444	3007.3384	3011.433	3015.5974	3030.1433	3041.2443	3045.2616	3054.8645	3057.6291	3095.9094	3098.4522	3106.5802	3114.6019	3119.3437	3146.1455
CC1CCCC=CC1C	C[C@H]1CCCC=C[C@H]1C	
InChI=1S/C9H16/c1-8-6-4-3-5-7-9(8)2/h4,6,8-9H,3,5,7H2,1-2H3	InChI=1S/C9H16/c1-8-6-4-3-5-7-9(8)2/h4,6,8-9H,3,5,7H2,1-2H3/t8-,9+/m1/s1
