19
gdb 114753	2.34626	1.6683	1.249	1.3742	70.48	-0.2427	0.0787	0.3213	1070.5646	0.159439	-460.140845	-460.132383	-460.131439	-460.173873	32.265	
C	-0.5899419372	 1.0300706692	 0.3102521945	-0.24705
O	-0.3021983031	-0.3547620446	 0.4054500509	-0.252617
C	 0.8920461614	-0.6463188534	 1.0958430444	 0.141007
O	 0.8122979231	-0.3253945806	 2.4636547336	-0.256968
C	 0.4460313053	-1.4859696925	 3.1933611226	 0.103083
C	-0.7927573049	-2.2284433081	 2.7773387886	-0.328273
C	 0.5825419424	-2.6987870092	 2.3303186808	-0.106691
C	 1.1083903767	-2.1878423303	 0.9931065882	 0.101799
O	 0.5542021684	-2.7468533655	-0.1702400084	-0.437417
H	 0.2171572762	 1.5641849836	-0.2118193933	 0.114035
H	-1.5133923122	 1.127668226	-0.263941353	 0.129994
H	-0.725085146	 1.4736380448	 1.3026908249	 0.134167
H	 1.7094116037	-0.0474293724	 0.6724884568	 0.082023
H	 0.7602978565	-1.4210127639	 4.2274852645	 0.102268
H	-1.2885116262	-2.8288673475	 3.5330058863	 0.112514
H	-1.450991767	-1.7642636855	 2.0532481327	 0.130111
H	 0.9736024414	-3.636056444	 2.7061799416	 0.093825
H	 2.1857055906	-2.3852979167	 0.9545179271	 0.092298
H	-0.2236015792	-2.2144827594	-0.3802907828	 0.291891
94.5081	124.8906	174.6507	215.8476	237.8361	325.61	362.0271	403.5525	483.2549	522.8578	585.2338	665.7145	765.2974	774.2537	812.0465	873.0681	948.7059	979.286	999.1178	1036.2781	1045.2455	1064.4361	1089.281	1105.5394	1118.9041	1133.0583	1167.6455	1181.4683	1206.9358	1208.8162	1287.4508	1303.254	1336.6766	1363.3107	1388.5332	1400.9927	1449.0808	1470.6375	1483.2378	1483.8829	1513.0898	3000.4392	3018.9433	3048.2001	3076.1589	3130.6302	3137.7867	3183.9887	3195.0806	3232.6803	3776.4224
COC1OC2CC2C1O	CO[C@H]1O[C@H]2C[C@H]2[C@H]1O	
InChI=1S/C6H10O3/c1-8-6-5(7)3-2-4(3)9-6/h3-7H,2H2,1H3	InChI=1S/C6H10O3/c1-8-6-5(7)3-2-4(3)9-6/h3-7H,2H2,1H3/t3-,4+,5-,6+/m1/s1
