26
gdb 76616	2.34305	1.12776	0.96384	1.0913	93.44	-0.2187	0.0834	0.3021	1445.1636	0.237291	-369.600204	-369.588731	-369.587787	-369.636072	43.081	
C	-0.0409196708	 1.3577040813	 0.9036802449	-0.423599
C	 0.194602477	-0.0748754063	 0.4724556951	-0.008754
C	 0.2288964746	-0.4613928886	-0.9697642741	-0.004578
N	 1.4389989964	-0.5314588058	-0.1618062726	-0.103633
C	 2.5116298615	 0.4137747141	-0.4300664799	-0.3162
C	-0.343078527	-1.7401068312	-1.5854980939	 0.246791
C	-1.7807752596	-1.4522174556	-2.0546684326	-0.404562
C	 0.5355359155	-2.1128417313	-2.7958035587	-0.403709
C	-0.3443850457	-2.9046316666	-0.5816257935	-0.419489
H	 0.2623140997	 2.0817278982	 0.1438460672	 0.119269
H	-1.106733063	 1.514683945	 1.1010663331	 0.122351
H	 0.5011942562	 1.58785869	 1.8280156993	 0.120504
H	-0.1889745869	-0.8047611046	 1.1836407473	 0.084328
H	 0.1748952983	 0.3913970979	-1.6546238551	 0.061844
H	 2.1787549716	 1.3945028386	-0.8037751565	 0.098035
H	 3.0947631651	 0.5758084571	 0.482722957	 0.118951
H	 3.1797720749	-0.0185815854	-1.1819863116	 0.122628
H	-1.8066760735	-0.6399085999	-2.7900052857	 0.105142
H	-2.2219033124	-2.3384706311	-2.5236561739	 0.108431
H	-2.4205053385	-1.1636003088	-1.2136110327	 0.109316
H	 1.5606103297	-2.3273621279	-2.4773286414	 0.120871
H	 0.1456289805	-3.0001481878	-3.3063669311	 0.105287
H	 0.571366485	-1.2966140198	-3.5265649621	 0.101884
H	-1.0590925068	-2.7363915243	 0.2305733983	 0.105466
H	-0.6302037073	-3.8364462289	-1.0806802856	 0.101902
H	 0.6484858058	-3.0358829282	-0.1433193011	 0.131525
51.3443	132.7464	167.9556	180.4322	182.6773	219.7165	254.6534	261.2752	276.7364	281.4473	314.5414	329.8598	354.9478	419.6082	437.5947	519.3283	541.5218	753.464	776.4564	826.9823	880.7705	935.2681	939.6826	959.7982	1002.2723	1027.1015	1038.1946	1050.6644	1069.3324	1115.3083	1133.2835	1165.1959	1178.7773	1198.822	1236.3353	1242.5451	1282.0502	1318.5591	1369.8743	1392.8443	1394.9234	1409.13	1422.3112	1444.5298	1472.4886	1479.3765	1485.6403	1488.3862	1490.5463	1492.2428	1501.5068	1504.2935	1505.3925	1509.4646	1522.7558	2979.3404	3021.0462	3024.5363	3033.7153	3034.4009	3044.7306	3062.6266	3086.9783	3090.634	3091.6149	3092.5943	3096.0227	3097.6302	3102.7695	3108.6533	3119.7828	3128.8347
CC1C(N1C)C(C)(C)C	C[C@H]1[C@@H](N1C)C(C)(C)C	
InChI=1S/C8H17N/c1-6-7(9(6)5)8(2,3)4/h6-7H,1-5H3	InChI=1S/C8H17N/c1-6-7(9(6)5)8(2,3)4/h6-7H,1-5H3/t6-,7+,9?/m0/s1
