19
gdb 100744	2.89343	1.02332	0.79367	5.5378	68.09	-0.2435	0.026	0.2695	1398.0368	0.159447	-493.502848	-493.492807	-493.491862	-493.538057	36.255	
N	-0.0769563664	 1.4886728684	-0.102595749	-0.511948
C	 0.0495492152	 0.0357037007	-0.0442270641	-0.13127
C	 0.6725208249	-0.5131256951	-1.3432289225	 0.00484
N	 0.6060564207	-1.9891310692	-1.3209465991	-0.528597
H	 1.0664764949	-2.0924471452	 0.3416549342	 0.317937
H	-0.3608666554	-2.2858212469	-1.4419591078	 0.240758
H	 1.1133477351	-2.351412402	-2.1228752176	 0.260647
C	 0.0276109496	 0.0750532631	-2.5990934142	-0.07954
O	 0.6405241115	-0.5738876476	-3.7067291808	-0.431743
C	 0.7866575022	-0.4424509797	 1.2398654547	 0.39633
O	 1.2211181239	-1.7018377917	 1.2472513156	-0.375383
O	 0.9194273307	 0.2947417496	 2.1848649863	-0.345823
H	-0.4078375736	 1.7954875751	 0.8096770793	 0.247138
H	 0.8589662903	 1.8874683213	-0.1624938784	 0.230221
H	-0.9690206771	-0.3792792654	 0.0257254607	 0.103549
H	 1.7400850737	-0.2555216367	-1.3651648038	 0.1051
H	-1.0592914966	-0.1123435607	-2.5730542085	 0.085642
H	 0.1730279571	 1.1601837328	-2.6249896138	 0.117421
H	 0.3106294894	-0.1737482809	-4.5158284112	 0.294721
63.2458	100.2581	119.0719	185.0641	193.2122	234.5487	290.5387	317.7925	343.0777	356.6934	395.4888	425.8136	506.5734	544.72	637.1102	742.2865	864.397	878.5569	946.7175	978.6411	994.3264	1024.9408	1075.1082	1085.5391	1117.1757	1141.5497	1175.4532	1227.9672	1238.5279	1246.9602	1303.663	1322.5161	1354.0658	1403.1516	1421.4431	1447.3054	1513.714	1519.4373	1656.9661	1676.1157	1843.7975	2965.338	2981.9023	3028.3009	3068.0453	3139.0935	3470.0996	3477.2632	3537.4907	3564.9353	3842.9654
NC(C([NH3+])CO)C([O-])=O	N[C@@H]([C@@H](N)CO)C(=O)O	
InChI=1S/C4H10N2O3/c5-2(1-7)3(6)4(8)9/h2-3,7H,1,5-6H2,(H,8,9)	InChI=1S/C4H10N2O3/c5-2(1-7)3(6)4(8)9/h2-3,7H,1,5-6H2,(H,8,9)/t2-,3-/m0/s1
