19
gdb 52129	5.4544	0.65119	0.61672	1.6067	80.4	-0.2343	-0.0276	0.2067	1768.3963	0.157843	-423.036676	-423.027342	-423.026398	-423.072763	32.157	
O	-0.1629935633	-0.0153877023	 0.0404324137	-0.232335
C	-0.0580792473	 1.1772933568	-0.0784519118	 0.160376
C	 1.2457856431	 1.9418894342	-0.0555810049	-0.270664
C	 1.4149335639	 2.8144098065	-1.3226976417	-0.333055
C	 2.6477216823	 3.6644913762	-1.2933798805	 0.320149
C	 3.7227636134	 3.5903754123	-2.0740074375	-0.211469
C	 4.7142032682	 4.6526437641	-1.7002947269	-0.101803
O	 4.116685152	 5.3538210905	-0.6111952318	-0.263177
C	 2.8381995561	 4.8051908216	-0.3208031232	-0.149367
H	-0.9597268031	 1.8195796541	-0.2243253952	 0.070789
H	 1.2301252008	 2.5891602264	 0.8323937342	 0.125607
H	 2.0719584205	 1.2346687378	 0.0536274882	 0.130315
H	 1.4389920211	 2.1660932485	-2.2047797384	 0.122284
H	 0.5278798214	 3.4559567457	-1.4270683277	 0.113317
H	 3.8858054654	 2.8832786759	-2.8782414524	 0.102206
H	 5.6845520109	 4.2361009977	-1.3864426539	 0.107057
H	 4.916915437	 5.3499015043	-2.5292338369	 0.105893
H	 2.0576419406	 5.576165033	-0.4381966962	 0.101059
H	 2.806834847	 4.4784331968	 0.7312587833	 0.102818
49.2026	59.1328	72.8713	104.6654	130.4265	264.9353	286.5728	335.0172	460.1057	534.0302	653.0217	759.9681	777.9669	832.8718	846.3442	914.532	927.024	972.2751	987.1792	1022.4737	1058.0781	1068.1187	1095.257	1115.5968	1172.579	1188.7368	1211.7621	1227.2559	1264.4834	1283.9627	1328.3869	1362.9736	1373.6386	1397.9615	1429.5682	1462.8766	1487.7896	1516.5355	1529.1772	1729.3493	1838.2253	2845.1667	2956.2905	2970.9278	2975.0839	2985.8727	3005.4328	3022.0559	3071.9672	3109.8534	3209.4188
O=CCCC1=CCOC1	O=CCCC1=CCOC1	
InChI=1S/C7H10O2/c8-4-1-2-7-3-5-9-6-7/h3-4H,1-2,5-6H2	InChI=1S/C7H10O2/c8-4-1-2-7-3-5-9-6-7/h3-4H,1-2,5-6H2
