14
gdb 35593	3.48849	1.09772	0.94974	4.6817	74.95	-0.2577	-0.0541	0.2037	1202.8307	0.101558	-395.709794	-395.701776	-395.700832	-395.742811	29.297	
C	 0.2525583465	-1.1613933614	 0.0473771658	-0.465672
C	 0.0914563418	 0.0294647636	 0.0245332572	 0.334623
C	-0.0923902017	 1.4777605715	-0.003410436	-0.176269
C	-0.6449909345	 2.0727883841	 1.3417020452	-0.182492
N	 0.5063401517	 2.6632266367	 2.034125479	-0.280225
C	 1.4570917979	 2.676082148	 1.1808539415	 0.289155
N	 1.1922263217	 2.2079393229	-0.1032217692	-0.345026
C	 2.765824037	 3.1988951665	 1.4678280966	 0.262547
N	 3.8326331298	 3.597817421	 1.6620390805	-0.312101
H	 0.3902801667	-2.2147467735	 0.0699511908	 0.213705
H	-0.7367224844	 1.7476613798	-0.8449751378	 0.126007
H	-1.3790306188	 2.8611020394	 1.1389722295	 0.132962
H	-1.1243392525	 1.31512866	 1.9644039544	 0.140009
H	 1.9445046989	 1.7554343215	-0.6054295475	 0.262776
66.2995	138.2689	173.8314	195.455	244.5381	416.9391	448.4236	503.0419	555.6529	589.0393	620.3337	637.3367	675.6313	718.5507	801.5777	815.7112	948.0936	994.7583	1019.2158	1037.2948	1071.6731	1212.1255	1238.7867	1256.1714	1326.4287	1360.3954	1434.2188	1483.859	1679.5759	2234.8536	2367.3352	3043.0794	3065.4392	3113.64	3499.6488	3591.7217
C#CC1CN=C(N1)C#N	C#C[C@H]1C[N][C](N1)C#N	
InChI=1S/C6H5N3/c1-2-5-4-8-6(3-7)9-5/h1,5H,4H2,(H,8,9)	InChI=1S/C6H5N3/c1-2-5-4-8-6(3-7)9-5/h1,5H,4H2,(H,8,9)/t5-/m0/s1
