16
gdb 125790	3.30125	1.52122	1.06207	4.5125	70.94	-0.2163	0.0135	0.2298	1091.6911	0.125625	-437.879367	-437.871672	-437.870728	-437.912515	28.01	
C	 0.0596828992	 1.5320280166	-0.0625046375	-0.498646
C	 0.0156814552	 0.0415264342	 0.0416786961	 0.242618
N	 0.0274230424	-0.6706028189	-1.0742194614	-0.225127
O	-0.0220383087	-2.053197848	-0.666149949	-0.241293
C	-0.0583924385	-2.0298464625	 0.6475135203	 0.52085
C	-0.0395193287	-0.7913290884	 1.1874962786	 0.015891
C	-0.085598594	-0.9369672801	 2.6815138953	-0.397187
C	-0.132276123	-2.5078106125	 2.8039542071	-0.08764
O	-0.110187383	-3.0903139542	 1.4506199445	-0.274431
H	 0.9399598075	 1.9327512145	 0.4509094828	 0.136334
H	 0.0971844683	 1.83312243	-1.1110161325	 0.153418
H	-0.8243693717	 1.9813993906	 0.4017925678	 0.136323
H	 0.7930756173	-0.5327321922	 3.1958113622	 0.123898
H	-0.9682554496	-0.4842579825	 3.1462159798	 0.123898
H	 0.7318305716	-2.9128971712	 3.3339210541	 0.135547
H	-1.0457739242	-2.8639804755	 3.2838554718	 0.135547
36.9647	140.9363	177.8673	225.0556	244.0839	376.3771	506.1741	586.4577	635.0441	643.9962	728.609	751.6766	779.9303	833.7367	861.6657	925.0988	970.4188	1022.6549	1061.0139	1077.8313	1107.2727	1207.9703	1218.594	1242.3775	1291.8865	1363.4895	1402.3784	1412.0995	1475.9707	1481.4669	1499.9859	1513.2037	1519.4739	1557.5539	1680.1498	3033.7326	3041.3488	3061.1675	3078.2337	3097.4807	3131.2453	3140.3807
CC1=NOC2=C1CCO2	Cc1noc2c1CCO2	
InChI=1S/C6H7NO2/c1-4-5-2-3-8-6(5)9-7-4/h2-3H2,1H3	InChI=1S/C6H7NO2/c1-4-5-2-3-8-6(5)9-7-4/h2-3H2,1H3
