19
gdb 31791	3.34084	1.27009	0.93645	2.485	79.75	-0.1893	0.0535	0.2427	1268.718	0.159146	-419.249347	-419.239617	-419.238672	-419.28432	33.92	
C	-0.0716929205	 1.334708262	 0.0272329464	-0.233252
O	 0.0056161714	-0.0895339566	-0.0276834004	-0.276929
C	 0.6225762585	-0.5738297209	-1.1168376511	 0.47659
N	 1.1460740367	 0.1003844305	-2.1043951108	-0.383738
C	 1.6459015484	-0.8761348286	-2.9524027159	-0.187644
C	 1.4162116774	-2.1292183793	-2.4631126412	 0.27181
C	 1.7464698442	-3.4852642301	-2.9819042099	-0.501964
N	 0.7421848905	-1.9261035047	-1.2544139622	-0.141964
C	 0.2656029322	-2.9347258082	-0.3320160922	-0.351061
H	 0.9287791438	 1.7771525341	 0.0267956792	 0.139409
H	-0.625322332	 1.7258760745	-0.8313627625	 0.139392
H	-0.5925675937	 1.5685615695	 0.9565690817	 0.125827
H	 2.1454079769	-0.6120441642	-3.8724847113	 0.100191
H	 2.3985958709	-4.0492087337	-2.3023337	 0.125032
H	 0.8531205993	-4.0992164959	-3.1554122046	 0.125031
H	 2.2701302691	-3.3899771658	-3.9361739022	 0.138346
H	 1.0922673637	-3.5451584002	 0.0464846556	 0.13634
H	-0.2144962535	-2.4336712881	 0.5082773125	 0.162249
H	-0.4636607933	-3.5954921042	-0.8124638911	 0.136336
71.8416	86.8785	128.2427	153.3332	177.7157	206.2405	229.3203	256.4412	350.8541	355.6982	539.3555	613.9113	635.6672	720.9435	732.8099	777.8943	811.9652	963.3048	1008.9598	1064.5962	1073.1404	1153.83	1172.4629	1184.4343	1191.118	1219.1312	1253.6455	1297.3834	1378.9977	1420.3942	1445.2512	1459.06	1475.5009	1476.0307	1484.5482	1494.4878	1501.532	1512.0554	1542.0607	1601.4517	1625.2592	3010.3295	3034.4481	3041.2328	3051.4907	3088.0169	3111.8272	3119.3396	3148.6448	3158.6172	3245.2655
COC1=NC=C(C)N1C	COc1ncc(C)n1C	
InChI=1S/C6H10N2O/c1-5-4-7-6(9-3)8(5)2/h4H,1-3H3	InChI=1S/C6H10N2O/c1-5-4-7-6(9-3)8(5)2/h4H,1-3H3
