16
gdb 34222	3.79358	1.41894	1.4074	5.2088	72.67	-0.2562	0.0131	0.2693	959.9959	0.127366	-400.762197	-400.755786	-400.754842	-400.792917	26.223	
N	 0.0349263643	-1.0781662206	-0.0275100959	-0.345863
C	 0.0000477966	 0.0774175106	 0.0018611295	 0.191181
C	-0.0106704704	 1.5043894577	 0.0123606414	 0.375727
O	-0.9972329816	 2.1300539831	 0.8088194528	-0.296758
C	-0.662987143	 3.5064062789	 0.5410012206	 0.040852
C	 0.8432613815	 3.5615047033	 0.8779050932	-0.231188
C	 1.2331962497	 2.3872057311	-0.0119430373	-0.15217
C	 0.2775641809	 2.3887001946	-1.1968035454	-0.152168
C	-0.6731948735	 3.5639079735	-1.002340614	-0.231188
H	-1.3402536839	 4.1570210387	 1.088058696	 0.096423
H	 1.3092201644	 4.503724715	 0.5775460759	 0.113325
H	 1.0372335466	 3.3757311915	 1.9369102	 0.122006
H	 2.2262489482	 1.9638268713	-0.0609460808	 0.117248
H	 0.5352062551	 1.9664605967	-2.1576081494	 0.117247
H	-1.6673347777	 3.3800275828	-1.4164693077	 0.122003
H	-0.2797824472	 4.5062383718	-1.3926642389	 0.113325
144.0375	169.401	412.5727	429.3575	495.334	512.6535	538.1662	605.1298	696.7101	713.4839	804.1687	876.0669	885.6301	899.1359	914.1158	940.4681	952.5879	975.7585	994.8646	1006.5438	1036.2562	1088.6566	1139.795	1145.1466	1164.8543	1197.7799	1216.0101	1270.1479	1316.8743	1318.0602	1325.6081	1394.9471	1474.9007	1493.4868	2360.1145	3066.2038	3071.0151	3120.8726	3124.3435	3164.8235	3221.6265	3229.516
N#CC12OC3CC1C2C3	N#C[C@@]12O[C@H]3C[C@@H]1[C@@H]2C3	
InChI=1S/C7H7NO/c8-3-7-5-1-4(9-7)2-6(5)7/h4-6H,1-2H2	InChI=1S/C7H7NO/c8-3-7-5-1-4(9-7)2-6(5)7/h4-6H,1-2H2/t4-,5+,6-,7+
