13
gdb 127814	2.54779	1.89619	1.09455	2.8077	64.76	-0.267	-0.0648	0.2023	1004.193	0.089544	-486.060344	-486.052591	-486.051647	-486.093114	27.498	
C	-0.0211289237	 1.4144872477	-0.0410901798	-0.322281
N	-0.009363482	-0.0469275258	-0.0061625239	-0.07834
N	-0.0953709701	-0.6532431208	-1.2313456662	-0.08217
N	-0.0933873511	-1.9031951639	-1.310318361	-0.071834
N	-0.0048278789	-2.6324882307	-0.1630233135	-0.280982
C	 0.0886283234	-2.1845378858	 1.1465650292	 0.363103
O	 0.1626869757	-2.9300110076	 2.0892551116	-0.316748
C	 0.0854582828	-0.6747223027	 1.2330850924	 0.345861
O	 0.1572165998	-0.0532316046	 2.2647796503	-0.329137
H	 0.8968738585	 1.8046205072	 0.4040266782	 0.161577
H	-0.099107967	 1.7146308743	-1.0842099301	 0.161283
H	-0.8697923959	 1.793525158	 0.5326811834	 0.161555
H	-0.0097630814	-3.6329951652	-0.3170142305	 0.288112
84.9632	107.8079	159.4899	228.3625	315.8575	340.5272	486.2424	491.6455	532.0579	579.4	617.201	683.9568	712.3325	803.2826	912.4737	998.9589	1056.2439	1109.4541	1152.7007	1244.775	1272.133	1359.076	1431.5098	1449.467	1475.1039	1503.2294	1586.4065	1804.3621	1834.5949	3064.447	3132.2431	3183.0552	3591.8324
CN1N=NNC(=O)C1=O	Cn1nn[nH]c(=O)c1=O	
InChI=1S/C3H4N4O2/c1-7-3(9)2(8)4-5-6-7/h1H3,(H,4,6,8)	InChI=1S/C3H4N4O2/c1-7-3(9)2(8)4-5-6-7/h1H3,(H,4,6,8)
