22
gdb 105043	2.59292	1.23462	1.10262	1.8959	81.41	-0.2426	0.0711	0.3137	1234.3449	0.193487	-404.30516	-404.295437	-404.294493	-404.339616	37.182	
C	-0.0100546802	 1.3646530232	-0.6690370901	-0.472435
C	-0.028091246	-0.022196191	-0.0504203038	 0.247426
C	 1.1985659143	-0.8571979857	-0.1711088108	-0.276139
N	 0.8339698664	-0.2504893051	 1.1233778769	-0.349451
C	-1.3866128341	-0.6894848934	 0.0042119008	 0.288257
C	-1.9922814087	-0.9414621964	-1.3763322475	-0.152465
O	-3.2411259609	-1.6122844689	-1.3531310825	-0.41528
C	-1.6593346744	-1.6789218448	 1.1083604673	-0.321697
C	-2.3141362334	-0.3181283349	 1.1333449036	-0.295337
H	 1.0004947595	 1.7862146779	-0.6520438934	 0.108092
H	-0.3405274171	 1.3517026316	-1.7125084623	 0.128525
H	-0.6736325422	 2.0420021522	-0.1201836782	 0.12791
H	 1.1149418167	-1.9402718187	-0.1990324761	 0.114627
H	 2.048379372	-0.4525367048	-0.7150180287	 0.108234
H	 1.4069991616	 0.5725386184	 1.2926077468	 0.225836
H	-2.1920007297	 0.0130034986	-1.8755244756	 0.109697
H	-1.2623478281	-1.4842900408	-1.9988482907	 0.08777
H	-3.0793621583	-2.5304790186	-1.1173451499	 0.285955
H	-2.2948696707	-2.532072002	 0.895598647	 0.083837
H	-0.8578767415	-1.8629246614	 1.8127050564	 0.136839
H	-1.9558525212	 0.394076622	 1.8688089059	 0.109213
H	-3.3739217042	-0.2690558172	 0.9107779649	 0.120584
56.0631	90.2745	192.8989	196.9378	229.3826	262.4095	321.7407	323.6047	348.3223	375.67	444.9709	507.6388	513.0271	647.618	786.5303	800.4987	853.3718	862.0098	904.6697	928.5225	946.2241	972.1714	1004.4741	1010.3633	1036.1816	1059.7507	1062.7936	1087.7161	1094.8048	1115.4527	1147.8208	1197.3898	1222.0607	1236.1064	1269.7686	1306.3137	1346.7573	1379.1327	1402.072	1414.9842	1428.4669	1443.2126	1485.9902	1492.5873	1501.0441	1505.7734	1511.8576	2970.5344	3028.5009	3061.9028	3096.5493	3099.2715	3104.5635	3134.2029	3135.4834	3189.6595	3221.8522	3234.8051	3496.2421	3830.1243
CC1(CN1)C1(CO)CC1	C[C@]1(CN1)C1(CO)CC1	
InChI=1S/C7H13NO/c1-6(4-8-6)7(5-9)2-3-7/h8-9H,2-5H2,1H3	InChI=1S/C7H13NO/c1-6(4-8-6)7(5-9)2-3-7/h8-9H,2-5H2,1H3/t6-/m0/s1
