20
gdb 63267	2.06266	1.5384	1.39642	4.1653	74.71	-0.2547	0.0134	0.2681	1099.9559	0.168389	-440.321516	-440.311381	-440.310437	-440.356046	37.559	
C	-0.3194975073	 1.5724232457	 0.0623248557	-0.43971
C	-0.0227868503	 0.0825621411	 0.0444486117	 0.404918
C	-1.1496480856	-0.7261208398	-0.5699648242	-0.417326
O	 1.2367297456	-0.1619428483	-0.7231608851	-0.289648
C	 1.8290831601	-0.7858044733	 0.3245231275	 0.458532
O	 2.8945926472	-1.3201840769	 0.3676452423	-0.352317
C	 0.6747280093	-0.5616912493	 1.3098570179	 0.026877
C	 1.0335515832	 0.3792789833	 2.4630840259	-0.462257
N	 0.1132012212	-1.8291413074	 1.7612557552	-0.555452
H	 0.5501811936	 2.1589532118	 0.363537827	 0.128148
H	-0.61892253	 1.9050037764	-0.9361231394	 0.131899
H	-1.1428739439	 1.790735724	 0.7500962926	 0.123364
H	-1.3295337837	-0.3900654376	-1.5956646733	 0.122288
H	-0.9151818221	-1.7902217878	-0.5701762027	 0.143359
H	-2.0712163997	-0.5856891155	 0.0042178507	 0.116652
H	 1.5080682445	 1.3064616636	 2.1340324565	 0.130547
H	 0.1349393902	 0.6417049105	 3.0335636285	 0.119133
H	 1.7299152352	-0.1309568485	 3.1349982408	 0.134582
H	 0.8699815922	-2.4784509138	 1.9554383318	 0.24769
H	-0.3971161797	-1.7041957383	 2.6303439807	 0.228722
58.7553	150.6457	177.4809	180.9803	210.071	228.0766	268.6079	292.4122	326.9613	342.6929	366.7836	417.9156	492.022	605.9132	629.8174	688.1809	748.2373	789.3847	837.9926	875.6569	943.3592	968.9361	986.0065	1002.3193	1074.5351	1093.9624	1132.6099	1222.8143	1237.3862	1265.423	1288.1508	1343.4262	1403.8563	1407.549	1421.9398	1471.553	1473.1752	1485.2164	1492.4381	1499.5272	1511.0612	1653.9268	1920.6531	3033.0818	3042.6927	3048.7194	3104.2863	3106.8859	3113.9625	3122.4954	3137.0457	3156.1589	3491.0911	3569.2792
CC1(C)OC(=O)C1(C)N	CC1(C)OC(=O)[C@]1(C)N	
InChI=1S/C6H11NO2/c1-5(2)6(3,7)4(8)9-5/h7H2,1-3H3	InChI=1S/C6H11NO2/c1-5(2)6(3,7)4(8)9-5/h7H2,1-3H3/t6-/m0/s1
