21
gdb 88155	2.32522	1.44369	1.1152	1.2895	78.46	-0.2455	0.0614	0.3069	1188.9166	0.182356	-424.211925	-424.202712	-424.201767	-424.24651	34.684	
C	-0.138406236	 1.5119493294	 0.0243744495	-0.414885
C	-0.0364986832	 0.0039106258	 0.0787923669	-0.026954
C	 1.2702745813	-0.6946270832	-0.2057212336	-0.350061
C	 0.704964315	-0.6978053254	 1.1912134812	 0.302598
C	 1.3611317094	 0.0587969177	 2.3511820913	-0.155852
O	 1.3464936965	-0.8329795974	 3.4648967041	-0.248336
C	 0.200302559	-1.6483491261	 3.3143769756	-0.112192
C	 0.1471264058	-1.9830652898	 1.8129441372	 0.013177
O	-1.154897387	-2.2722949232	 1.3308377749	-0.426612
H	 0.7892276796	 1.9954558642	 0.3484776483	 0.113696
H	-0.3420673095	 1.8482706518	-0.9980675966	 0.117955
H	-0.9475022722	 1.8845196479	 0.66264985	 0.119568
H	-0.9234758217	-0.5220748	-0.2597654113	 0.105625
H	 1.2482686988	-1.6250414502	-0.7657654851	 0.107727
H	 2.1467739925	-0.0800600794	-0.3938070037	 0.102824
H	 2.4033081879	 0.3337522321	 2.1634510924	 0.107114
H	 0.8028528418	 0.9762279113	 2.596794178	 0.092664
H	 0.3161857274	-2.5184680772	 3.9668638204	 0.098892
H	-0.7273118163	-1.1168890419	 3.5869077201	 0.092045
H	 0.8256808369	-2.8215528215	 1.5976388517	 0.073383
H	-1.361450376	-3.1837632049	 1.5572927487	 0.287624
25.0437	152.8349	180.3895	205.5283	225.1306	242.8949	273.7689	374.0077	418.1756	453.695	505.9531	545.1095	617.15	744.0662	792.5316	879.3195	908.2213	930.4083	960.8072	979.8225	1024.935	1049.4368	1072.3558	1083.7381	1095.7203	1120.3771	1131.0576	1133.1499	1186.5167	1211.3936	1228.8944	1260.1794	1269.2423	1307.2297	1326.0833	1357.9053	1384.0562	1409.9267	1422.5937	1441.8514	1489.3208	1490.7596	1503.0955	1508.0958	1522.9989	2964.8298	2973.6943	2989.08	3026.6107	3072.9836	3087.9289	3088.5176	3093.9231	3109.7862	3164.7461	3195.4308	3831.5285
CC1CC11COCC1O	C[C@H]1C[C@]21COC[C@H]2O	
InChI=1S/C7H12O2/c1-5-2-7(5)4-9-3-6(7)8/h5-6,8H,2-4H2,1H3	InChI=1S/C7H12O2/c1-5-2-7(5)4-9-3-6(7)8/h5-6,8H,2-4H2,1H3/t5-,6+,7+/m0/s1
