19
gdb 37378	2.87842	2.03793	1.83368	1.9211	76.29	-0.2238	0.0699	0.2937	853.9903	0.165084	-382.039387	-382.033438	-382.032494	-382.069214	26.458	
C	-0.0057234988	 1.5652150493	-0.0029413292	-0.231917
C	 1.4807349379	 1.8914674497	-0.0047774614	-0.037221
C	 2.3483534104	 1.0577956159	 0.8743012255	-0.011132
C	 1.7343491744	 0.1075617693	 1.8595105016	-0.047967
N	 0.4760464192	 0.529513414	 2.5278624319	-0.343228
C	 0.4299628835	-0.4578952253	 1.4359690642	-0.031484
C	 0.0166101288	 0.0255154721	 0.0481346369	-0.071535
C	 1.224962434	-0.2815014053	-0.8743153183	-0.152221
N	 2.2374015193	 0.7592034669	-0.586823449	-0.131302
H	-0.5399801644	 2.0074092484	 0.8376715042	 0.12966
H	-0.46035514	 1.9102415729	-0.9383795192	 0.093455
H	 1.8040864108	 2.8890339323	-0.2880415632	 0.084463
H	 3.327623694	 1.4497783467	 1.1354569442	 0.084135
H	 2.4250583249	-0.5058645714	 2.4312537114	 0.084992
H	 0.3963369994	 0.0456997715	 3.4187337146	 0.229993
H	 0.1966981824	-1.4902061254	 1.6839365536	 0.083411
H	-0.9165475831	-0.4317184238	-0.2877633479	 0.066417
H	 1.6450017702	-1.2795502987	-0.7107934104	 0.098277
H	 0.9556040471	-0.1927402292	-1.9320466596	 0.103201
284.0121	310.545	379.5556	469.6985	481.0941	569.4555	647.2614	709.434	742.8778	754.5972	796.9903	851.9416	877.6365	893.0773	909.2324	915.3294	925.9813	964.1052	979.6147	997.7245	1067.4362	1082.1607	1085.6	1108.2993	1115.7402	1151.28	1171.4511	1192.6292	1218.8501	1232.737	1251.3843	1276.4188	1315.2649	1321.8674	1333.2214	1370.2779	1397.8676	1419.1181	1447.0011	1479.2016	1501.4954	3040.935	3046.9906	3083.4527	3087.2654	3131.2579	3136.3592	3137.2311	3146.384	3152.0318	3502.1415
C1C2C3C4NC4C1CN23	C1[C@H]2[C@H]3[C@H]4N[C@H]4[C@@H]1CN23	
InChI=1S/C7H10N2/c1-3-2-9-4(1)7(9)6-5(3)8-6/h3-8H,1-2H2	InChI=1S/C7H10N2/c1-3-2-9-4(1)7(9)6-5(3)8-6/h3-8H,1-2H2/t3-,4-,5-,6-,7-,9?/m0/s1
