19
gdb 50408	2.12372	1.73073	1.11108	2.7312	82.06	-0.2282	-0.0181	0.2101	1125.5881	0.159037	-385.89815	-385.889785	-385.88884	-385.932	31.608	
O	 0.0937728795	-0.0773870692	 0.1775614637	-0.264975
C	 0.0665902786	 1.1227474378	 0.0807978663	 0.169946
C	 1.2836264565	 2.016354589	-0.0255470606	-0.167419
C	 1.0997135452	 3.0459661205	-1.1839962233	-0.301062
C	 0.8543130337	 4.3574640304	-0.4765432887	-0.083514
C	 1.0202655656	 4.2558604566	 0.8409413421	-0.124479
C	 1.400065765	 2.8812780619	 1.2563270644	 0.32186
C	 1.0755288455	 2.3348673816	 2.6341088783	-0.322806
C	 2.4996878047	 2.6525490448	 2.2744157017	-0.30934
H	-0.9008838655	 1.6788074654	 0.0800157885	 0.076883
H	 2.155583997	 1.3740487174	-0.1656116654	 0.092384
H	 1.9910235496	 3.0895630992	-1.8220158419	 0.118998
H	 0.2689217946	 2.7686733683	-1.8468830043	 0.110385
H	 0.5996779275	 5.266143296	-1.0094986133	 0.098419
H	 0.9241430089	 5.0650794134	 1.5569616502	 0.097871
H	 0.5574234017	 2.9883789177	 3.3281745161	 0.115879
H	 0.7924435288	 1.2901727063	 2.7095643258	 0.13409
H	 3.1799020443	 1.8250358035	 2.1011409208	 0.122001
H	 2.9635103088	 3.5270946694	 2.7188458895	 0.114879
43.3696	62.8878	198.9486	241.6205	269.4458	338.2023	381.8507	435.9648	522.6586	534.2952	744.3861	766.5263	781.9941	824.0168	872.3037	900.407	929.8937	940.0593	946.036	969.671	983.3955	1003.0634	1062.8406	1070.0188	1084.1707	1096.442	1124.9341	1193.8494	1200.4468	1233.9184	1272.1799	1287.1788	1301.1591	1328.6138	1398.1876	1423.5109	1464.9835	1487.1976	1495.7856	1684.6302	1829.0125	2853.961	3015.1963	3042.8636	3090.1815	3125.7253	3129.7876	3183.7985	3205.9949	3210.2649	3221.1985
O=CC1CC=CC11CC1	O=C[C@H]1CC=CC21CC2	
InChI=1S/C8H10O/c9-6-7-2-1-3-8(7)4-5-8/h1,3,6-7H,2,4-5H2	InChI=1S/C8H10O/c9-6-7-2-1-3-8(7)4-5-8/h1,3,6-7H,2,4-5H2/t7-/m1/s1
