21
gdb 86189	2.12823	1.47217	0.94602	1.3673	81.85	-0.2379	0.0161	0.254	1282.1133	0.180753	-424.248407	-424.238203	-424.237259	-424.283537	37.605	
C	 0.0419046118	 1.5593334295	 0.1054882068	-0.49208
C	 0.0354395294	 0.0668451809	-0.0140117854	 0.15773
C	-0.0315230226	-0.6903291091	-1.1180931111	 0.157732
C	-0.1191521012	-0.2618391658	-2.5500704667	-0.492081
C	-0.0889540802	-2.1702400357	-0.7785422034	 0.065615
O	 0.7343290585	-2.9907467947	-1.6024427238	-0.430777
C	 0.2595143474	-2.2163971786	 0.7245306715	-0.283448
C	 0.0338767573	-0.781377899	 1.2466400661	 0.065616
O	 0.9671662464	-0.3580818898	 2.2364030519	-0.430777
H	 0.8260631466	 1.886047069	 0.7961968867	 0.130514
H	 0.1902857421	 2.057435535	-0.855364554	 0.120165
H	-0.9062319456	 1.9193218528	 0.5270487631	 0.129474
H	-1.1175661749	-0.4703346188	-2.9574608056	 0.129474
H	 0.0794580027	 0.8041217282	-2.6828939607	 0.120165
H	 0.5858090028	-0.8306049784	-3.165098771	 0.130515
H	-1.0999326195	-2.5592700359	-0.9594549376	 0.092783
H	 1.6431033693	-2.6892436235	-1.49062618	 0.271207
H	-0.2961567855	-2.9756785026	 1.2789453093	 0.10794
H	 1.3247778852	-2.4606956302	 0.827462363	 0.086244
H	-0.9352091672	-0.6967461458	 1.7564059235	 0.092783
H	 1.8451788573	-0.4042640776	 1.8411321573	 0.271207
68.5743	103.3626	106.267	135.1717	227.0771	261.0247	286.348	312.0275	318.554	371.4058	406.0763	482.5986	508.6652	545.0161	584.0056	679.6306	697.4428	850.5541	921.7688	962.7458	987.8084	1040.3158	1050.6429	1054.9791	1062.0418	1089.0947	1107.6493	1148.5729	1198.9776	1242.0606	1268.154	1272.4362	1311.5495	1316.7423	1337.4103	1405.087	1413.0658	1421.1843	1431.9658	1473.6719	1476.1632	1482.0018	1487.1528	1491.8021	1737.6296	3016.8783	3018.4799	3022.2937	3023.1566	3030.4088	3077.8985	3078.6337	3107.024	3120.8721	3124.78	3791.8977	3792.4616
CC1=C(C)C(O)CC1O	CC1=C(C)[C@@H](O)C[C@H]1O	
InChI=1S/C7H12O2/c1-4-5(2)7(9)3-6(4)8/h6-9H,3H2,1-2H3	InChI=1S/C7H12O2/c1-4-5(2)7(9)3-6(4)8/h6-9H,3H2,1-2H3/t6-,7+
