20
gdb 110700	2.50912	1.44595	1.24944	2.3456	79.89	-0.2208	-0.0027	0.2181	1121.7822	0.170852	-403.115491	-403.10675	-403.105806	-403.148869	33.475	
C	-0.2252007206	 1.5880061013	 0.2801780879	-0.375212
C	 0.2200272236	 0.1989199699	-0.1698601458	-0.107384
N	 0.7691270776	-0.5348226095	 0.9678187796	-0.089098
C	-0.0585950318	-1.3019133209	 1.9086984622	-0.082368
C	-1.4142925652	-1.7436545132	 1.4502035991	-0.078018
C	-1.3264177396	-2.566767931	 0.4048109851	-0.1336
C	 0.1204828342	-2.8849082271	 0.0561115939	 0.071432
O	 0.4726929726	-2.6461238341	-1.3035056492	-0.426751
C	 0.9243793911	-1.9773699682	 0.9947705437	-0.060413
H	 0.5960961654	 2.120798537	 0.7681273775	 0.122063
H	-0.5664722697	 2.1790325716	-0.5754711525	 0.108024
H	-1.0537804128	 1.5214417351	 0.9939142284	 0.110583
H	-0.6073702489	-0.3200192328	-0.6700306766	 0.094846
H	 1.0270453968	 0.2760499167	-0.9059101384	 0.108169
H	 0.1301555571	-1.1121778951	 2.9613894578	 0.089378
H	-2.334065264	-1.379880735	 1.894640341	 0.100955
H	-2.158465182	-2.964986927	-0.167694808	 0.093629
H	 0.3466551122	-3.9328067539	 0.3167317936	 0.078159
H	-0.0393181583	-3.247571115	-1.8536543441	 0.284345
H	 1.8938742623	-2.3353766487	 1.3284141746	 0.091261
66.5569	135.7979	183.7107	210.3977	247.0653	251.9173	328.7398	385.5549	463.5951	566.5823	577.4709	704.3397	730.9841	758.5879	808.6995	830.4595	847.4274	898.2704	937.0325	953.5295	989.0827	1004.3652	1046.2313	1067.7855	1094.9025	1110.7051	1126.9922	1141.3747	1168.8573	1218.1838	1299.3371	1305.9244	1309.439	1327.4296	1360.7208	1382.6562	1396.0998	1407.9635	1415.2552	1487.5909	1489.5355	1508.4097	1670.4916	2951.4377	3022.3646	3034.604	3068.227	3102.8802	3115.88	3142.9859	3151.4135	3172.1802	3201.7023	3815.4933
CCN1C2C=CC(O)C12	CCN1[C@H]2C=C[C@@H](O)[C@@H]12	
InChI=1S/C7H11NO/c1-2-8-5-3-4-6(9)7(5)8/h3-7,9H,2H2,1H3	InChI=1S/C7H11NO/c1-2-8-5-3-4-6(9)7(5)8/h3-7,9H,2H2,1H3/t5-,6+,7-,8?/m0/s1
