17
gdb 89668	2.92283	1.29155	1.07776	4.3141	75.9	-0.2278	0.0085	0.2363	1149.1219	0.134965	-417.972674	-417.963773	-417.962829	-418.006117	33.041	
C	-0.147864727	 1.532204162	-0.0167917244	-0.403509
C	 0.1036645251	 0.0359405367	 0.0019870991	 0.005344
N	 1.2536215696	-0.449869776	-0.852572184	-0.37863
C	 1.7586372493	-1.2633573492	 0.2758204417	 0.182619
C	 2.1795070372	-0.3028868771	 1.3749524449	-0.382959
C	 0.7250625844	-0.6161718017	 1.2391938235	 0.317834
O	-0.0720182508	-1.1214650035	 2.233109344	-0.443564
C	 2.2401660247	-2.5909782313	 0.1421326448	 0.176139
N	 2.6085798651	-3.6836916528	 0.0270172906	-0.354296
H	 0.7613142434	 2.0892056508	 0.2256290051	 0.123054
H	-0.4845238972	 1.8539632281	-1.0071575852	 0.127168
H	-0.9260993511	 1.7947110711	 0.7075206704	 0.125938
H	-0.8144953738	-0.5127376848	-0.2380298165	 0.100339
H	 0.9166632898	-1.0462635968	-1.6026739825	 0.23647
H	 2.6618725731	-0.784674786	 2.2214280661	 0.135185
H	 2.5992389249	 0.656739936	 1.0836293696	 0.13352
H	 0.3588751431	-1.0005127655	 3.0852318829	 0.299349
102.0253	124.6096	146.7759	205.4515	213.1017	251.0033	363.3452	370.7728	454.1148	471.4004	554.5647	574.0487	635.3715	710.2051	745.179	796.1609	825.5922	875.6301	949.4959	980.5938	1040.6089	1080.01	1090.9617	1116.3862	1134.4231	1193.1449	1248.9198	1267.217	1347.3538	1365.5323	1400.6405	1412.8012	1424.1998	1487.072	1491.1324	1497.2866	2334.327	3039.2625	3044.1401	3107.4955	3108.9719	3120.1404	3202.1486	3517.5739	3821.7626
CC1NC2(CC12O)C#N	C[C@H]1N[C@]2(C[C@@]12O)C#N	
InChI=1S/C6H8N2O/c1-4-6(9)2-5(6,3-7)8-4/h4,8-9H,2H2,1H3	InChI=1S/C6H8N2O/c1-4-6(9)2-5(6,3-7)8-4/h4,8-9H,2H2,1H3/t4-,5-,6-/m1/s1
