21
gdb 93401	2.63602	1.30849	0.92235	4.1385	87.57	-0.23	-0.0411	0.1888	1301.4145	0.182864	-387.145543	-387.13656	-387.135616	-387.179053	34.569	
C	-0.0922155922	 1.5766744766	-0.023947926	-0.409968
C	 0.0323738267	 0.043947582	 0.0190019371	-0.067613
C	 0.6649576765	-0.4766554901	-1.2822274479	-0.215726
C	 0.9383249915	-1.9809873143	-1.2358771458	-0.329514
C	 1.7902531131	-2.3573183497	-0.0319562819	 0.382922
O	 2.5605548322	-3.2984148729	-0.0493603516	-0.339891
C	 1.5854823741	-1.5421201707	 1.1784702742	-0.261514
C	 0.7785981011	-0.4670481127	 1.242722663	 0.333165
C	 0.5520271953	 0.2408045569	 2.5504419517	-0.482512
H	 0.8951344046	 2.0514761282	-0.0377245104	 0.122306
H	-0.6194961076	 1.881033684	-0.9333401738	 0.119151
H	-0.647801332	 1.9743472299	 0.8290376548	 0.118734
H	-0.9908314387	-0.3630823775	 0.0886424494	 0.092463
H	 0.01485342	-0.2309551084	-2.12910401	 0.099023
H	 1.6100505742	 0.0577279345	-1.4476614466	 0.105514
H	-0.0102927544	-2.5308549148	-1.1477019768	 0.118918
H	 1.4332766158	-2.3443676131	-2.1400800343	 0.119426
H	 2.1155708299	-1.8916172163	 2.0605229549	 0.093577
H	 1.0484946525	-0.278362672	 3.3730231015	 0.130552
H	 0.9230439793	 1.271598071	 2.5216218042	 0.138548
H	-0.5195566822	 0.3035756695	 2.7793748241	 0.132439
67.038	154.9674	198.5853	218.0618	243.9454	317.8583	328.1218	341.6105	412.3932	451.7329	504.4482	548.8476	606.4219	658.8851	738.8306	799.4084	871.1496	903.1793	938.9742	960.9365	1017.1804	1032.0926	1045.0617	1078.7052	1102.6157	1118.2233	1158.1756	1212.7812	1227.9566	1271.1027	1312.2824	1324.5003	1349.4467	1368.6415	1379.71	1407.0645	1414.049	1461.9166	1477.7114	1480.433	1491.3954	1502.925	1507.2368	1679.1436	1773.2723	2960.7917	3010.0578	3022.4479	3024.0624	3036.8333	3067.7817	3075.3622	3099.7802	3102.6655	3117.6091	3124.7864	3167.0341
CC1CCC(=O)C=C1C	C[C@H]1CCC(=O)C=C1C	
InChI=1S/C8H12O/c1-6-3-4-8(9)5-7(6)2/h5-6H,3-4H2,1-2H3	InChI=1S/C8H12O/c1-6-3-4-8(9)5-7(6)2/h5-6H,3-4H2,1-2H3/t6-/m0/s1
