12
gdb 9024	4.61834	0.93541	0.80227	5.3708	74.16	-0.2731	-0.0507	0.2225	1315.0369	0.082709	-340.31723	-340.308903	-340.307959	-340.350451	28.999	
N	-0.0594038426	 1.4948486438	 0.061781547	-0.485109
C	 0.0492474307	 0.027071217	-0.003376879	-0.367331
C	 0.705268812	-0.4945502663	-1.2150603789	 0.331507
C	 1.2313316415	-0.8721870521	-2.2269805348	-0.447359
C	 0.7311863529	-0.4698020487	 1.1975052981	 0.206833
C	 1.2937783238	-0.8852973052	 2.1806513221	 0.011044
C	 1.9322336206	-1.3509319054	 3.2945947788	 0.214162
N	 2.4756937199	-1.747100049	 4.2414740574	-0.331839
H	 0.8706417568	 1.8981299489	-0.0166639836	 0.247143
H	-0.5784272546	 1.8121580668	-0.7528001894	 0.246209
H	-0.9780706337	-0.3643752281	 0.0252798867	 0.161256
H	 1.6985119728	-1.2152658517	-3.1175003243	 0.213485
71.5041	103.8264	173.9101	218.4548	243.7992	271.2853	356.2041	453.1784	511.4904	564.581	577.4757	601.9396	656.3025	668.5519	745.5685	849.8078	977.8546	1064.1498	1170.3816	1190.7921	1308.0579	1389.1606	1658.6023	2233.9547	2271.0613	2408.6314	3008.6001	3487.1053	3499.5139	3569.3904
NC(C#C)C#CC#N	N[C@@H](C#C)C#CC#N	
InChI=1S/C6H4N2/c1-2-6(8)4-3-5-7/h1,6H,8H2	InChI=1S/C6H4N2/c1-2-6(8)4-3-5-7/h1,6H,8H2/t6-/m0/s1
