25
gdb 108674	1.84293	1.32452	0.85801	0.1493	96.95	-0.2147	0.0351	0.2498	1497.7322	0.229198	-352.390852	-352.380448	-352.379504	-352.426911	38.4	
C	-0.284853383	 1.7175679896	-0.2650198442	-0.369156
C	-0.0316672303	 0.2200225484	-0.0107153489	-0.295264
C	 0.6857464502	-0.4659109058	-1.139464022	 0.228993
C	 1.9428407392	-0.934897316	-1.1614701056	 0.229304
C	 2.9676877856	-0.8967136244	-0.0637444687	-0.294951
C	 3.3503334775	-2.2898399541	 0.4689279343	-0.370814
C	 2.2590486188	-1.6059731796	-2.4868699182	-0.290155
C	 1.1075849807	-1.1485545641	-3.4097806435	-0.20845
C	-0.0329156665	-0.7532793696	-2.4459806271	-0.292436
H	 0.6599097599	 2.2576303928	-0.3820173113	 0.117719
H	-0.8730175501	 1.8766494565	-1.1742431793	 0.117994
H	-0.8331801254	 2.1677396934	 0.5686738261	 0.109629
H	 0.52717001	 0.1058230584	 0.9239210404	 0.098959
H	-0.9990206525	-0.2768434269	 0.1504961756	 0.097877
H	 3.8770602861	-0.4075115906	-0.4420121627	 0.098524
H	 2.6137148259	-0.2780005066	 0.7672320977	 0.09813
H	 2.477319855	-2.8023349059	 0.8857355246	 0.117175
H	 3.7605224793	-2.9230136399	-0.3239652763	 0.11922
H	 4.1063197048	-2.2117169237	 1.2566243081	 0.11019
H	 3.2473966893	-1.328124722	-2.8744553602	 0.092319
H	 2.275215193	-2.69995428	-2.373901878	 0.10015
H	 1.425098789	-0.2667834496	-3.9761581842	 0.100648
H	 0.8111626572	-1.9097116275	-4.1364599075	 0.091087
H	-0.7529592007	-1.5742927736	-2.3061480649	 0.097091
H	-0.6164021729	 0.0984276507	-2.8146993341	 0.096216
49.7604	61.9227	125.9237	135.1359	189.6943	204.1023	222.4848	279.3319	316.2717	358.8834	468.1435	559.4337	574.2893	627.8539	704.4116	782.6897	784.9318	851.9956	896.1612	927.0973	927.4141	963.6614	966.6459	1022.8986	1028.7163	1052.1199	1084.4735	1086.374	1125.5706	1155.856	1193.2	1217.6448	1233.9858	1259.8011	1291.6125	1301.1061	1326.65	1327.5713	1350.1181	1353.051	1365.454	1406.8312	1408.9424	1473.655	1485.0163	1487.4575	1491.0128	1497.5651	1498.5211	1506.3884	1507.1981	1512.2549	1725.6027	2988.9541	2997.0209	3003.2512	3007.6119	3032.209	3035.2873	3035.4012	3042.8671	3056.2784	3060.6349	3068.8785	3095.3695	3104.8113	3104.9939	3108.1754	3109.444
CCC1=C(CC)CCC1	CCC1=C(CC)CCC1	
InChI=1S/C9H16/c1-3-8-6-5-7-9(8)4-2/h3-7H2,1-2H3	InChI=1S/C9H16/c1-3-8-6-5-7-9(8)4-2/h3-7H2,1-2H3
