13
gdb 35459	2.60817	1.41194	1.11126	3.4688	67.97	-0.291	-0.0297	0.2613	1060.7186	0.089159	-415.57812	-415.570601	-415.569657	-415.610526	27.364	
N	-0.0428954138	-1.1700266589	-0.0651881536	-0.307999
C	-0.0150839348	-0.0170637452	-0.0028958758	 0.302451
C	 0.0352139436	 1.4435990182	 0.0722656358	-0.071759
O	-0.1438365189	 1.9564215759	 1.4152521235	-0.270296
C	 1.0825432316	 2.6808233805	 1.3379039371	 0.070935
C	 2.2437728574	 1.7697524564	 1.181194732	-0.340919
C	 1.4134697202	 2.1215033067	-0.0489124701	 0.11769
C	 1.9247664633	 2.7337924821	-1.2244869622	 0.209261
N	 2.3309172154	 3.2340984479	-2.1857656233	-0.334043
H	-0.7038703615	 1.8831256743	-0.6042100122	 0.15698
H	 1.09976698	 3.695052315	 1.7155730057	 0.148795
H	 3.2188400659	 2.2447327286	 1.1916979142	 0.158781
H	 2.2026609616	 0.7602449584	 1.5785373589	 0.160124
97.0198	132.0979	167.2975	223.4758	335.4816	443.3994	476.7946	495.9505	556.5914	564.1027	658.6978	747.0362	836.7319	891.5363	956.0749	977.0392	1007.0532	1021.8532	1052.5101	1097.0141	1098.5631	1203.0271	1227.7727	1281.5436	1355.3076	1387.8857	1474.6413	2352.2844	2364.7252	3075.1445	3133.2168	3211.6318	3232.8729
N#CC1OC2CC12C#N	N#C[C@H]1O[C@H]2C[C@@]12C#N	
InChI=1S/C6H4N2O/c7-2-5-6(3-8)1-4(6)9-5/h4-5H,1H2	InChI=1S/C6H4N2O/c7-2-5-6(3-8)1-4(6)9-5/h4-5H,1H2/t4-,5+,6-/m0/s1
