25
gdb 121345	3.04213	0.85822	0.7462	1.3599	88.31	-0.2609	0.0746	0.3355	1630.1056	0.229845	-389.506751	-389.496457	-389.495513	-389.542399	38.263	
C	 0.5035544109	 1.5044064401	-0.5018978999	-0.393012
C	 0.0146934591	 0.1584066806	 0.0521815173	-0.000139
C	 0.1568808802	-0.978662657	-0.9796397709	-0.209515
C	 1.6290358143	-1.4468588424	-0.8645248222	-0.208825
C	 2.0910300443	-1.0295781518	 0.5606590857	-0.209646
C	 0.8544773401	-0.3842956679	 1.2378297986	 0.043938
C	 1.1720473699	 0.6218497615	 2.3463943711	-0.201318
C	 1.8381066023	-0.0102951868	 3.5629454135	-0.079061
O	 2.0321688219	 1.0094843242	 4.5331305414	-0.422086
H	 1.5525032042	 1.463481841	-0.8156695134	 0.113469
H	-0.0885030438	 1.7933139981	-1.3766262813	 0.108854
H	 0.4117067271	 2.3048732769	 0.2381055951	 0.117724
H	-1.0318187273	 0.2774634426	 0.3573494377	 0.060931
H	-0.5174972169	-1.799495266	-0.7095762035	 0.090869
H	-0.1098139938	-0.6667498475	-1.9942204219	 0.087744
H	 1.720313548	-2.5240253158	-1.0289340807	 0.094273
H	 2.2505357006	-0.9656408554	-1.6255293733	 0.099338
H	 2.4703285445	-1.878974767	 1.1357132164	 0.093644
H	 2.9105110137	-0.3038405623	 0.5048537832	 0.096037
H	 0.2603289405	-1.195764798	 1.6839354011	 0.062932
H	 1.8292838737	 1.4140707943	 1.9689553725	 0.103755
H	 0.2507129698	 1.1125299308	 2.6849367082	 0.099441
H	 1.1985536464	-0.8177070075	 3.9578873563	 0.080605
H	 2.7971688825	-0.4679377813	 3.2733929407	 0.08651
H	 2.4769568079	 0.6210274865	 5.2918965983	 0.283536
68.4589	97.2938	106.4719	124.8973	163.6471	232.4008	266.0725	285.3875	322.2985	340.9087	402.7478	523.5303	632.247	656.6139	780.8637	793.1084	815.298	844.3822	896.2818	907.4104	963.4011	990.9487	1009.8034	1036.1527	1042.7339	1045.7876	1073.0539	1093.6081	1112.9377	1169.6926	1200.7163	1212.638	1238.709	1248.0973	1249.4523	1292.7567	1302.2782	1311.6334	1321.4376	1324.4804	1343.7522	1358.9814	1383.0677	1393.358	1414.7543	1462.6708	1486.9644	1490.4285	1492.5277	1503.1048	1508.3097	1516.2135	1528.3198	2957.2176	2985.4429	2990.2169	3024.5895	3027.5558	3032.4153	3036.3378	3040.0567	3055.7933	3070.7615	3073.7185	3081.1016	3095.1743	3099.9777	3106.7107	3829.9297
CC1CCCC1CCO	C[C@H]1CCC[C@H]1CCO	
InChI=1S/C8H16O/c1-7-3-2-4-8(7)5-6-9/h7-9H,2-6H2,1H3	InChI=1S/C8H16O/c1-7-3-2-4-8(7)5-6-9/h7-9H,2-6H2,1H3/t7-,8-/m0/s1
