12
gdb 21641	6.05196	1.64379	1.2943	4.3305	60.81	-0.2284	-0.0673	0.1611	857.1968	0.085761	-410.860843	-410.854421	-410.853477	-410.891253	24.529	
N	 0.0060170501	 1.3757483786	-0.0828757635	-0.570109
C	 0.027638656	-0.0064265064	-0.0347684291	 0.375304
N	-1.1472772382	-0.6369788332	 0.0090258215	-0.243796
N	-1.1846987418	-1.9641321677	-0.0195778729	-0.234242
C	-0.0288803154	-2.6137283101	-0.0727921738	 0.480564
O	-0.1097141969	-3.9536700225	-0.095627532	-0.393051
N	 1.1953228495	-2.0656516312	-0.1000826731	-0.313247
C	 1.2229008208	-0.7485281281	-0.0871034129	-0.049478
H	 0.7809880727	 1.8488202399	 0.3570072063	 0.255893
H	-0.8928861467	 1.7624506504	 0.1710914476	 0.263018
H	 0.7976780215	-4.2828787584	-0.1324698029	 0.306651
H	 2.1956543486	-0.2609064113	-0.1160530951	 0.122494
115.0017	310.0896	342.6492	380.3011	426.2688	474.8657	494.7597	535.9903	555.448	639.5836	672.3184	820.2231	828.6467	890.8506	953.699	1055.8905	1083.0827	1166.5708	1213.7194	1340.2713	1382.6375	1442.4795	1500.745	1568.5582	1627.934	1650.1305	3143.845	3562.1553	3670.916	3795.0929
NC1=NN=C(O)N=C1	Nc1nnc(O)nc1	
InChI=1S/C3H4N4O/c4-2-1-5-3(8)7-6-2/h1H,(H2,4,6)(H,5,7,8)	InChI=1S/C3H4N4O/c4-2-1-5-3(8)7-6-2/h1H,(H2,4,6)(H,5,7,8)
