21
gdb 73582	2.36479	1.82104	1.42151	1.3886	80.42	-0.2347	0.0834	0.3181	1020.8717	0.184607	-387.070983	-387.063389	-387.062445	-387.102454	32.01	
O	-0.0982445949	 1.3410052974	-0.0361425092	-0.497389
C	-0.0013937759	-0.069379877	-0.0501143819	 0.451428
C	-1.3453042599	-0.6449091799	-0.5220725435	-0.259682
C	-2.0203513731	-1.1317776378	 0.7817248696	-0.198279
C	-0.8625822654	-1.6895524149	 1.6483273311	-0.246569
C	 0.3093995496	-0.7443612667	 1.3299384685	-0.05131
C	 1.6568397743	-1.2450759552	 0.7630091086	-0.07633
C	 1.4624152727	-2.085801287	-0.4645490932	-0.293649
C	 1.3506080979	-0.593070694	-0.5927687909	-0.142342
H	 0.7167807773	 1.6886869371	 0.3432627072	 0.272174
H	-1.9299088597	 0.1113725864	-1.0505298193	 0.107562
H	-1.1879762286	-1.4841964814	-1.2068269884	 0.098565
H	-2.4764398313	-0.2748506215	 1.2912560858	 0.106711
H	-2.8140874586	-1.8643393357	 0.6069121976	 0.09001
H	-1.1163373121	-1.7223637228	 2.7116940368	 0.093393
H	-0.6257357265	-2.715417892	 1.3452262838	 0.098444
H	 0.4525644694	 0.0150666404	 2.1038115619	 0.063924
H	 2.5904985786	-1.262858852	 1.3127052516	 0.081914
H	 2.3705447403	-2.5136288	-0.8780526431	 0.112457
H	 0.5925894184	-2.7266499947	-0.5797424643	 0.107254
H	 1.9957229776	-0.0216134488	-1.2512556787	 0.081714
152.9326	178.2032	287.1337	301.1528	350.5102	384.9827	461.1657	490.4186	547.8131	574.8542	654.0598	738.0248	795.0253	822.8189	844.3759	868.3112	907.1816	941.5528	948.4556	965.7422	976.2876	995.7281	1029.7193	1057.1618	1062.9622	1087.5664	1090.8259	1100.4871	1106.8484	1160.5497	1189.2407	1209.0502	1220.2079	1257.2507	1301.9803	1308.3832	1319.2322	1335.7324	1346.4208	1357.8791	1388.4314	1478.6936	1487.3984	1495.1801	1510.1082	3037.7437	3045.7799	3055.3954	3063.6382	3084.514	3094.9492	3112.4959	3116.5109	3166.052	3176.7585	3197.5678	3793.6547
OC12CCCC1C1CC21	O[C@]12CCC[C@H]1[C@H]1C[C@@H]21	
InChI=1S/C8H12O/c9-8-3-1-2-6(8)5-4-7(5)8/h5-7,9H,1-4H2	InChI=1S/C8H12O/c9-8-3-1-2-6(8)5-4-7(5)8/h5-7,9H,1-4H2/t5-,6+,7-,8-/m1/s1
