21
gdb 68237	2.77557	1.82874	1.63168	1.4342	80.72	-0.234	0.0829	0.3169	954.8854	0.185656	-387.042691	-387.035814	-387.03487	-387.073347	30.102	
C	-0.0197448477	 1.5218958876	 0.0733105921	-0.493591
C	 0.0243552838	 0.0221407277	-0.0662767379	 0.418179
C	 0.9640620245	-0.6819402119	-1.084261751	-0.265935
C	 0.9300369082	-1.7437303551	 0.0378656055	 0.07265
O	 0.8240659055	-0.6331988834	 0.9816097211	-0.314458
C	-0.4479719154	-2.5218630877	 0.0554204223	-0.045929
C	-1.3820825809	-1.9004874844	-1.024925857	-0.226773
C	-1.4025664045	-0.6827514893	-0.054439528	-0.084498
C	-1.3506605039	-1.7585027558	 1.0766882812	-0.192363
H	 0.9905014444	 1.9359495766	 0.1307516051	 0.123116
H	-0.5354726176	 1.9685953975	-0.7834341726	 0.120024
H	-0.5636980374	 1.8071661036	 0.980463357	 0.127526
H	 0.6437985825	-0.907131518	-2.0998737095	 0.09481
H	 1.9340397218	-0.1816807904	-1.1009630592	 0.100213
H	 1.7967707262	-2.3763947103	 0.2369988432	 0.07424
H	-0.3275800237	-3.6049551976	 0.118923945	 0.057061
H	-1.040644915	-1.7846215721	-2.0527612821	 0.09032
H	-2.3524197246	-2.4038892537	-1.0399681073	 0.092106
H	-2.2237266879	 0.0361229322	-0.0975729832	 0.054418
H	-2.3171165695	-2.2528916298	 1.198701172	 0.085564
H	-0.9322300786	-1.4840531959	 2.0408181031	 0.11332
206.2463	217.0279	294.7982	382.9572	484.5576	494.0536	509.8721	564.8849	596.3852	652.2621	750.5136	787.0341	831.0798	833.6018	862.1592	873.9596	885.808	908.9605	936.5736	973.0206	998.4509	1030.4946	1039.6028	1059.8472	1069.2127	1081.1931	1105.1462	1119.0763	1143.4904	1205.2979	1225.2534	1235.105	1238.9331	1249.4335	1268.0321	1280.1248	1315.2359	1323.3734	1359.2799	1409.3052	1478.5904	1479.0353	1492.1649	1501.306	1548.8129	3033.4767	3064.3703	3073.8984	3081.2549	3085.4021	3088.6841	3101.2141	3104.0922	3117.8623	3122.0924	3150.3331	3169.3205
CC12CC(O1)C1CC2C1	C[C@@]12C[C@@H](O1)[C@@H]1C[C@H]2C1	
InChI=1S/C8H12O/c1-8-4-7(9-8)5-2-6(8)3-5/h5-7H,2-4H2,1H3	InChI=1S/C8H12O/c1-8-4-7(9-8)5-2-6(8)3-5/h5-7H,2-4H2,1H3/t5-,6+,7-,8+/m1/s1
