19
gdb 41326	2.92527	1.89421	1.71282	1.577	78.62	-0.2299	0.0068	0.2367	893.0399	0.162678	-385.836974	-385.830643	-385.829698	-385.867117	27.82	
C	-0.0240753148	 1.5522005121	 0.2509636947	-0.297734
C	 1.522494929	 1.4934067879	-0.084726023	-0.333127
C	 1.2018499853	 0.2368115311	-0.9364977446	 0.262826
C	 0.5182635038	 0.6126389236	-2.2996112728	-0.093748
O	-0.716154394	-0.11160937	-2.3063855323	-0.269777
C	-0.6937805165	-0.903391004	-1.0950684356	-0.015817
C	 0.4919175344	-1.8921762481	-1.2379035594	-0.073016
C	 1.6432151811	-1.1973791473	-1.1416218187	-0.213106
C	-0.0489300623	 0.0266191973	-0.0629794838	 0.052693
H	-0.2948969694	 1.8384322903	 1.2687077317	 0.099381
H	-0.5848273827	 2.171124405	-0.4506345565	 0.122397
H	 1.9720386262	 2.3523404381	-0.5893201521	 0.099747
H	 2.1076405702	 1.2596929604	 0.8085381248	 0.110171
H	 0.3048202907	 1.6832057869	-2.3899318133	 0.096831
H	 1.143610756	 0.3099913446	-3.1477420865	 0.094541
H	-1.6852523574	-1.3320484519	-0.9554116515	 0.07086
H	 0.3823827897	-2.9325574711	-1.5183180668	 0.09956
H	 2.6458907631	-1.5704716288	-1.3123750867	 0.100872
H	 0.2130430776	-0.5261419361	 0.8407450425	 0.086444
239.8191	307.9956	355.8145	394.8718	419.0967	536.406	604.9221	656.5663	671.3496	731.9396	763.0986	812.6265	842.4143	858.3627	873.1863	898.423	925.4691	938.5769	952.6241	984.4713	1004.1385	1048.8641	1069.2524	1104.5443	1118.2198	1131.9254	1185.556	1198.4042	1208.0875	1228.7529	1234.8833	1250.3325	1277.6298	1295.1948	1337.495	1362.4658	1379.4804	1486.5895	1497.5215	1528.4146	1580.9294	3023.9596	3058.6847	3062.8816	3082.2929	3090.4975	3111.3471	3131.8622	3140.1829	3191.9891	3217.0733
C1CC23COC(C=C2)C13	C1C[C@@]23CO[C@@H](C=C2)[C@H]13	
InChI=1S/C8H10O/c1-3-8-4-2-7(6(1)8)9-5-8/h2,4,6-7H,1,3,5H2	InChI=1S/C8H10O/c1-3-8-4-2-7(6(1)8)9-5-8/h2,4,6-7H,1,3,5H2/t6-,7-,8-/m0/s1
