20
gdb 22113	2.90056	0.86934	0.7801	1.9159	74.77	-0.2554	-0.0024	0.253	1538.4221	0.167794	-477.374273	-477.363502	-477.362558	-477.410807	38.666	
C	 0.1205389219	 1.5822594912	 0.058041039	-0.39599
C	-0.0529326892	 0.0632015773	 0.0290519827	 0.14327
O	 0.3863798888	-0.4930637037	-1.2038226384	-0.427546
C	 0.6465497134	-0.6098784973	 1.2288403093	-0.32529
C	 0.6184285514	-2.1112936705	 1.1514857383	 0.367997
C	-0.7044387977	-2.8570048146	 1.2089530816	-0.14139
O	-0.756649987	-3.800874462	 2.2611523468	-0.421341
N	 1.753346643	-2.6877032027	 1.0345475725	-0.183655
O	 1.6146509277	-4.0946822589	 0.9376746841	-0.413174
H	 1.1830237151	 1.8513775702	 0.0245035805	 0.11086
H	-0.3732611849	 2.0324057815	-0.8068999411	 0.127359
H	-0.307479488	 2.0145462793	 0.9686629247	 0.115738
H	-1.1247443852	-0.1681778252	 0.0622688561	 0.095229
H	 1.3504150542	-0.4841447365	-1.2084744652	 0.282097
H	 1.6919097145	-0.2826846577	 1.2711040222	 0.110356
H	 0.1608739873	-0.278479985	 2.1560393682	 0.118588
H	-1.5200586068	-2.1506995499	 1.3863530075	 0.108379
H	-0.8800401028	-3.3221085574	 0.2261961242	 0.121325
H	-0.0188618784	-4.4038772742	 2.1074588702	 0.296497
H	 2.5300671027	-4.3895718239	 0.9014394669	 0.310691
41.3182	64.7957	98.3258	132.9535	233.3337	247.5203	256.1744	295.8812	307.7345	340.3138	363.844	423.2187	458.5851	481.7649	508.7954	574.2274	717.7905	818.6951	857.8779	901.5566	932.0862	959.7969	980.2801	1067.5441	1080.873	1098.7318	1145.2725	1170.4862	1215.6232	1271.9424	1308.4082	1333.4338	1366.8244	1373.1132	1394.8008	1403.4289	1423.8019	1462.217	1470.3065	1490.0151	1492.2299	1494.7612	1725.8215	2985.5241	3022.7314	3029.1485	3036.0588	3074.9853	3089.3186	3098.6923	3121.4529	3781.056	3796.4004	3831.1039
CC(O)CC(CO)=NO	C[C@@H](O)CC(=NO)CO	
InChI=1S/C5H11NO3/c1-4(8)2-5(3-7)6-9/h4,7-9H,2-3H2,1H3	InChI=1S/C5H11NO3/c1-4(8)2-5(3-7)6-9/h4,7-9H,2-3H2,1H3/t4-/m1/s1
