16
gdb 64540	3.72405	1.39828	1.18589	4.4028	68.8	-0.227	-0.0264	0.2006	1021.8532	0.123236	-437.798117	-437.790733	-437.789789	-437.829867	29.24	
O	 0.2231079315	 1.6011910089	 0.3628949415	-0.475297
C	 0.0303921315	 0.2623845842	 0.0816974419	 0.291405
C	 1.1545320995	-0.2311575395	-0.7860327688	 0.114788
O	 1.2675683479	-1.3585743225	-1.1989600599	-0.268063
C	-0.483129445	-0.8212749801	 1.022052403	-0.121299
C	-1.6922183523	-0.3879391457	 1.8894111765	-0.068989
N	-2.0097755097	 1.0461092198	 1.623217046	-0.370832
C	-2.4618317561	-0.0235000969	 0.6851941959	-0.069085
C	-1.2839285475	-0.4427499187	-0.2306520423	-0.121245
H	-0.5370745387	 1.849140667	 0.9235177901	 0.303215
H	 1.8904129002	 0.5679732659	-1.0150899932	 0.097939
H	 0.0808102393	-1.7289292181	 1.1946449647	 0.112179
H	-2.0025300781	-0.8573459901	 2.8131069736	 0.110774
H	-2.8038488697	 1.3010223572	 2.2079903247	 0.241538
H	-3.5113071626	-0.1428742132	 0.452377158	 0.110777
H	-1.4081998499	-1.0251489785	-1.1345436117	 0.112192
103.0304	186.0316	203.2843	303.7271	322.5468	406.7527	551.8975	569.1492	636.9242	689.4375	714.119	716.5358	739.2363	794.3836	859.805	865.584	906.1298	926.7698	959.5961	1005.404	1018.7958	1042.1926	1054.6659	1090.8454	1106.6982	1130.8216	1220.7106	1237.157	1285.8081	1301.8267	1308.2976	1372.6576	1418.8348	1460.4	1822.0074	2923.182	3192.8185	3200.4085	3204.0058	3215.9059	3487.7787	3538.289
OC1(C=O)C2C3NC3C12	O[C@@]1(C=O)[C@H]2[C@H]3N[C@H]3[C@@H]12	
InChI=1S/C6H7NO2/c8-1-6(9)2-3(6)5-4(2)7-5/h1-5,7,9H	InChI=1S/C6H7NO2/c8-1-6(9)2-3(6)5-4(2)7-5/h1-5,7,9H/t2-,3+,4-,5+,6+
