15
gdb 50477	4.51816	1.01339	0.86971	1.0083	62.57	-0.254	-0.0464	0.2077	1247.5994	0.110513	-494.905151	-494.896844	-494.8959	-494.939203	29.112	
O	-0.6044571445	 0.8000004853	 0.8278145038	-0.231312
C	 0.1012423573	 0.9467011941	-0.1302897921	 0.163145
C	 1.3922814628	 1.7670282305	-0.1071354733	 0.112076
O	 2.4278124768	 0.893306124	-0.4672814819	-0.247372
C	 3.6991436849	 1.5283432325	-0.4539967177	-0.189467
C	 3.699333413	 2.9095302858	-1.1069879018	 0.344684
O	 4.7109769921	 3.4189416256	-1.5183016656	-0.281032
C	 2.3629433821	 3.6498677425	-1.1129334923	-0.189466
O	 1.2348661793	 2.7873783287	-1.0555754514	-0.247376
H	-0.1167497753	 0.500986683	-1.1225025179	 0.107171
H	 1.5561407606	 2.1838442349	 0.9025550656	 0.080244
H	 4.0595298509	 1.6563403797	 0.5814776179	 0.134263
H	 4.4045823679	 0.8797874503	-0.9772499075	 0.155091
H	 2.3685012843	 4.3412316857	-0.2524373036	 0.134263
H	 2.2835245377	 4.2474558175	-2.0232319121	 0.155091
58.2932	58.6224	167.231	171.4621	242.2629	369.4401	414.1868	449.8249	465.0068	486.9004	604.4904	680.524	811.178	822.0534	923.3775	1012.5718	1054.9457	1058.2776	1076.0519	1130.6241	1165.6219	1216.4494	1243.9912	1264.8765	1344.9742	1353.7017	1371.0649	1384.7286	1417.405	1460.7803	1463.3143	1837.7572	1859.1126	2932.5647	2959.1997	2966.7611	2972.3712	3118.3707	3119.2396
O=CC1OCC(=O)CO1	O=CC1OCC(=O)CO1	
InChI=1S/C5H6O4/c6-1-5-8-2-4(7)3-9-5/h1,5H,2-3H2	InChI=1S/C5H6O4/c6-1-5-8-2-4(7)3-9-5/h1,5H,2-3H2
