23
gdb 38676	2.47875	1.78335	1.37539	0.1511	87.54	-0.2607	0.0775	0.3382	1056.8611	0.210135	-351.141077	-351.133602	-351.132658	-351.172505	31.673	
C	 0.098792778	 1.3568420354	 0.9325829153	-0.297946
C	 1.2287686732	 0.8653144538	 0.0595473184	-0.007504
C	 2.5760093079	 0.404837764	 0.6178052934	-0.239752
C	 2.6603426243	-0.9485370669	 1.3285911795	 0.013855
C	 2.052242727	-2.1241594035	 0.5123406524	-0.226632
C	 0.7644823755	-2.0183631351	 1.3775685346	 0.013855
C	 1.5957768597	-1.2275083268	 2.4288519168	-0.244692
C	-0.3777433568	-1.2619520339	 0.6941111461	-0.239753
C	-0.0981519981	 0.1165403273	 0.0938342736	-0.007501
H	 0.1985956593	 1.2290832797	 2.0047506752	 0.111343
H	-0.421814744	 2.2664951567	 0.6503973242	 0.099815
H	 1.3570870865	 1.4491491524	-0.8486988273	 0.080056
H	 3.2836733775	 0.3638169136	-0.2208795621	 0.094691
H	 2.958824051	 1.184892897	 1.290117272	 0.095798
H	 3.6965211225	-1.0938625416	 1.6500687438	 0.05812
H	 1.9381219041	-1.9712615872	-0.5653547614	 0.090932
H	 2.5867167548	-3.0637366218	 0.6778016398	 0.090655
H	 0.3665475291	-2.9729522971	 1.7360939626	 0.05812
H	 1.9922318641	-1.894776019	 3.1998694807	 0.093005
H	 1.1288583429	-0.3771070763	 2.9305188747	 0.092989
H	-0.7407803667	-1.9071637372	-0.1169187606	 0.094691
H	-1.2164167246	-1.1711792784	 1.3979747191	 0.095798
H	-0.6994864972	 0.2886450048	-0.7955571311	 0.080056
122.3682	237.2148	284.817	316.1686	337.512	350.0518	390.6299	524.8799	680.9405	696.9389	721.1228	795.5897	807.766	831.2048	847.5541	871.6566	873.0021	884.9248	954.4602	956.6785	992.8201	1017.8595	1058.7332	1061.0108	1094.4371	1108.7534	1126.3635	1131.1109	1148.4613	1169.4089	1174.918	1183.8336	1240.004	1257.9609	1274.1003	1282.9764	1294.324	1326.5444	1336.6822	1344.6113	1382.4643	1399.3113	1404.698	1424.1328	1471.3934	1484.17	1484.2504	1494.8798	1513.8303	3003.6839	3004.2238	3035.1659	3035.3907	3039.6305	3046.849	3047.9544	3063.9067	3099.0578	3106.8715	3117.7768	3125.8379	3132.7113	3209.944
C1C2CC3CC(C3)CC12	C1[C@H]2C[C@@H]3C[C@@H](C3)C[C@@H]12	
InChI=1S/C9H14/c1-6-2-7(1)4-9-5-8(9)3-6/h6-9H,1-5H2	InChI=1S/C9H14/c1-6-2-7(1)4-9-5-8(9)3-6/h6-9H,1-5H2/t6-,7+,8-,9+
