17
gdb 133833	3.16649	1.99782	1.82711	2.7397	74.89	-0.193	-0.0105	0.1825	821.9849	0.136563	-384.55892	-384.552355	-384.551411	-384.589195	28.046	
O	 1.6323426893	 0.3370275834	 1.2884631038	-0.468116
C	 2.6167248883	-0.0364969535	 0.4037282479	 0.414239
C	 4.0033012496	 0.4798407951	 0.5451515719	-0.092848
C	 3.1318854831	 0.7184179438	-0.8078832664	-0.174149
C	 4.846680764	-0.2278204956	-1.2665158784	-0.131611
C	 3.4367523843	-0.6178956445	-1.5165610783	-0.044573
C	 2.8772437408	-1.4158094886	-0.26351805	-0.166479
C	 4.1515511331	-1.9323380344	 0.4173608164	-0.24091
C	 4.9758838966	-0.6420011313	 0.2044226706	-0.047668
H	 0.7841409391	 0.2967127572	 0.8319786261	 0.290574
H	 4.2328593164	 1.3708788142	 1.109985802	 0.115972
H	 2.9428601977	 1.704464831	-1.2037029255	 0.116937
H	 3.066209632	-0.7670152596	-2.5246260051	 0.086812
H	 2.0297559456	-2.0845203257	-0.4021746025	 0.065497
H	 4.5913794438	-2.7986542616	-0.0876198376	 0.101612
H	 3.9987171483	-2.1724865758	 1.4754366183	 0.102858
H	 5.9678769579	-0.5773866138	 0.6432093069	 0.071854
205.149	265.1685	336.0223	374.7606	402.7732	447.2701	583.3529	648.3406	671.0253	694.0269	770.193	809.3715	854.2615	877.0615	906.3807	913.5703	920.154	945.4039	945.8966	964.1394	1001.028	1011.7582	1088.9883	1102.9328	1111.4537	1133.6384	1140.8399	1171.3189	1206.2518	1209.656	1243.9644	1254.2997	1275.5255	1306.327	1334.8117	1471.181	1482.7679	3042.1736	3094.3355	3137.3984	3148.6837	3176.4321	3234.119	3239.9344	3790.1986
OC12C3C1C1=CC2CC31	O[C@]12[C@@H]3[C@H]1[C@H]1[C][C@@H]3C[C@@H]21	
InChI=1S/C8H8O/c9-8-3-1-4-5(2-3)7(8)6(4)8/h1,3,5-7,9H,2H2	InChI=1S/C8H8O/c9-8-5-2-3-1-4(5)7(8)6(3)8/h3-7,9H,2H2/t3-,4+,5-,6+,7-,8-/m1/s1
