21
gdb 105445	2.1993	1.43778	1.13417	2.4814	82.92	-0.2438	-0.0219	0.2219	1198.7379	0.181736	-387.116682	-387.107425	-387.106481	-387.151267	34.501	
C	 0.1178695517	 1.6401149812	 0.2368513284	-0.401076
C	 0.0617809366	 0.1197484159	 0.0404778783	-0.23898
C	 0.748785445	-0.4287483277	-1.237008515	 0.217126
C	 2.2781279254	-0.1290143849	-1.2954305	-0.31428
C	 2.8669665441	-1.4002796816	-1.8581357698	-0.065213
C	 1.9819455068	-2.3943917166	-1.8811988384	-0.058231
C	 0.63624307	-1.9753732486	-1.3448789373	-0.311916
C	 0.0776962636	 0.2206895397	-2.4497637734	 0.14201
O	-0.7820821307	-0.2819119587	-3.125563315	-0.258914
H	 1.1479614174	 2.0111466561	 0.2303155821	 0.121961
H	-0.4354930143	 2.1777604801	-0.539279052	 0.124489
H	-0.324429151	 1.913280577	 1.1995545807	 0.12049
H	 0.5376685296	-0.3726619736	 0.8974933513	 0.103766
H	-0.9845067799	-0.2094147502	 0.037414496	 0.112785
H	 2.5063412464	 0.7552156111	-1.9056192904	 0.101645
H	 2.6817345848	 0.0858453845	-0.2958856242	 0.106494
H	 3.9033541446	-1.4709969849	-2.1689500202	 0.093352
H	 2.1842840321	-3.4054853918	-2.2168799666	 0.094752
H	 0.4439432474	-2.4304454125	-0.363591682	 0.09819
H	-0.1973736246	-2.2561737018	-1.9954710302	 0.13238
H	 0.4379370849	 1.2510832773	-2.6745335123	 0.079168
52.1269	75.0757	107.4558	204.5926	256.6981	276.4019	325.0325	371.1689	394.7576	408.7961	552.8388	626.1254	707.1284	768.6516	785.6069	809.7122	880.5954	936.3975	950.9278	963.1606	979.1156	982.5642	1002.8359	1032.5751	1057.6988	1121.2703	1131.9692	1154.0608	1171.2511	1188.3934	1257.6199	1296.8868	1318.6638	1342.705	1355.6474	1374.3158	1415.9922	1428.9148	1481.9578	1483.6007	1493.2953	1503.8208	1506.4587	1691.7012	1826.7522	2862.0621	3002.8412	3012.2314	3023.8361	3029.511	3039.1589	3059.4969	3083.2999	3107.0646	3108.1487	3183.4099	3208.6763
CCC1(CC=CC1)C=O	CC[C@]1(CC=CC1)C=O	
InChI=1S/C8H12O/c1-2-8(7-9)5-3-4-6-8/h3-4,7H,2,5-6H2,1H3	InChI=1S/C8H12O/c1-2-8(7-9)5-3-4-6-8/h3-4,7H,2,5-6H2,1H3
