21
gdb 62557	1.84051	1.62626	1.57791	1.2975	79.15	-0.2168	0.0614	0.2782	1087.3813	0.179383	-424.190379	-424.180457	-424.179513	-424.224072	37.765	
C	-0.0311388101	 1.5118648172	 0.0559933438	-0.468009
C	 0.0484343157	-0.0028627159	 0.0018461089	 0.2139
C	-1.166525418	-0.6595736477	-0.6354849415	-0.45237
C	 1.3461025424	-0.7470069171	-0.2647565493	 0.215199
O	 1.4541848955	-1.6316739121	-1.3204172207	-0.44837
C	 2.5128760528	-0.0501110209	 0.4204560906	-0.160302
O	 1.7961913268	-0.0350944275	 1.6807228953	-0.317384
C	 0.7070279338	-0.7996177447	 1.1222013848	 0.323169
C	 0.0946815757	-1.8230141826	 2.0222588527	-0.497518
H	 0.7611502337	 1.9343604442	 0.6768321276	 0.134205
H	 0.0361982489	 1.9478343968	-0.9472253373	 0.113174
H	-0.9887600088	 1.8247390554	 0.4873582079	 0.112516
H	-1.3160635701	-0.272468983	-1.649158445	 0.12202
H	-1.0593778167	-1.7426344432	-0.7198149596	 0.122929
H	-2.0708558756	-0.4403407253	-0.0570436224	 0.111497
H	 2.031737124	-2.3564146676	-1.0550453405	 0.287485
H	 3.4098937545	-0.6805681168	 0.4932677041	 0.094645
H	 2.7978092605	 0.9517264615	 0.079084768	 0.106893
H	-0.3479945041	-1.3361372261	 2.8993020451	 0.134424
H	-0.6953863804	-2.3793340934	 1.5130986086	 0.129418
H	 0.8476302495	-2.5323685512	 2.3812892789	 0.122479
146.5112	164.4327	178.8901	188.8256	200.494	252.5866	267.0938	300.017	321.3672	327.052	394.7939	432.7166	492.4307	583.7341	636.9775	664.6652	716.0427	750.0934	903.1246	950.7595	969.3682	983.1911	1007.2468	1039.7214	1093.3518	1103.4488	1143.8138	1146.2585	1160.1341	1225.237	1238.7062	1287.8195	1342.008	1344.2414	1400.2772	1407.1119	1422.7111	1461.8962	1477.9836	1484.2802	1487.3146	1495.5957	1503.8985	1516.8256	1527.9443	3004.8782	3029.3602	3030.8699	3034.792	3060.8041	3085.0006	3088.0524	3090.6332	3124.383	3129.1273	3130.9995	3788.0275
CC1(C)C2(O)COC12C	CC1(C)[C@@]2(O)CO[C@@]12C	
InChI=1S/C7H12O2/c1-5(2)6(3)7(5,8)4-9-6/h8H,4H2,1-3H3	InChI=1S/C7H12O2/c1-5(2)6(3)7(5,8)4-9-6/h8H,4H2,1-3H3/t6-,7-/m0/s1
