19
gdb 41268	3.35576	1.86651	1.48091	1.6476	77.72	-0.2283	0.0755	0.3038	920.9119	0.161897	-385.818624	-385.812252	-385.811308	-385.848932	27.403	
C	 0.0254275284	 1.4534695338	 0.1819037368	-0.138303
O	 1.4114318591	 1.5935425165	-0.2603861685	-0.345377
C	 1.3518846039	 0.2747855292	-0.771365886	 0.499937
C	 2.4358129346	-0.763384196	-1.0107867387	-0.336267
C	 1.4566135653	-1.4262458657	-2.0398391789	-0.039841
C	 0.194246439	-2.1225032029	-1.4484479271	-0.225143
C	-0.5210917275	-0.750088089	-1.2634760203	-0.071259
C	 0.0630498298	-0.087213839	-0.0052399176	-0.106385
C	 0.6304303529	-0.0965767275	-2.1192300238	-0.1268
H	-0.1009149998	 1.8125866613	 1.2069460539	 0.11165
H	-0.6628762885	 1.9903005223	-0.4828180596	 0.103842
H	 3.294529484	-0.3433937533	-1.5461890363	 0.110641
H	 2.7922458945	-1.3445452287	-0.1545276335	 0.095742
H	 1.9168153518	-1.9022880769	-2.9044053999	 0.073185
H	-0.299128153	-2.7156789561	-2.2237182133	 0.102507
H	 0.3182450264	-2.7491145544	-0.5581327656	 0.090739
H	-1.5898986547	-0.691559593	-1.4760739783	 0.06251
H	 0.0802326709	-0.6528738298	 0.9297552616	 0.070553
H	 0.5411677129	 0.5489990893	-2.9888714849	 0.06807
204.981	270.6528	333.7161	371.5986	399.6737	510.2549	626.6102	681.5205	772.0406	807.2487	814.599	854.6397	860.5913	877.1892	906.558	925.8096	960.4174	968.158	976.7798	1013.0903	1035.3786	1074.6329	1092.4434	1105.9412	1127.171	1142.4066	1162.8997	1177.1164	1199.034	1206.0752	1231.4021	1246.9311	1248.9647	1285.1092	1294.8712	1330.5009	1343.5724	1349.6009	1477.2128	1485.8769	1510.576	3022.9943	3035.656	3038.7492	3070.8286	3086.0966	3091.9597	3093.5264	3094.4218	3114.9381	3151.6956
C1OC23CC4CC(C12)C34	C1O[C@@]23C[C@H]4C[C@@H]([C@H]12)[C@@H]34	
InChI=1S/C8H10O/c1-4-2-8-6(3-9-8)5(1)7(4)8/h4-7H,1-3H2	InChI=1S/C8H10O/c1-4-2-8-6(3-9-8)5(1)7(4)8/h4-7H,1-3H2/t4-,5+,6+,7+,8+/m1/s1
