23
gdb 99763	1.75227	1.4297	1.02202	4.0584	77.49	-0.247	0.0503	0.2973	1314.7015	0.204311	-462.560227	-462.54947	-462.548526	-462.595324	40.647	
C	 0.7995735842	-0.4446478764	 1.1812875106	-0.409951
C	-0.0946743345	 0.0341230107	 0.037033992	 0.128579
O	 0.5877071617	-0.0591934874	-1.2186375468	-0.454976
C	-1.4877446047	-0.6414471758	-0.0334008909	-0.044472
C	-2.2283041505	-0.1965626508	-1.3249169897	-0.074548
O	-1.9572812898	 1.1409955541	-1.6966762533	-0.432247
C	-1.4143932478	-2.1737983945	 0.074544168	 0.108979
C	-2.7683468852	-2.8772227366	-0.022414635	-0.415436
O	-0.5293799777	-2.619691664	-0.9700089123	-0.439882
H	 1.7111048119	 0.1584575803	 1.2070028432	 0.122004
H	 0.2964020407	-0.3478745122	 2.1499351751	 0.108576
H	 1.0953563935	-1.4895932997	 1.0470867023	 0.11675
H	-0.278915051	 1.1045794702	 0.1690809354	 0.095906
H	 0.5918553461	-0.9993993048	-1.4468853148	 0.292063
H	-2.0522683071	-0.2900018204	 0.8402519288	 0.075507
H	-1.9695814327	-0.8885201739	-2.1376057286	 0.097974
H	-3.3102843682	-0.2588440598	-1.1737778977	 0.101542
H	-1.0297903851	 1.1424650966	-1.9696511267	 0.293342
H	-0.9679979793	-2.4259012176	 1.0471525725	 0.075314
H	-3.2399575511	-2.7051878266	-0.9930763234	 0.136757
H	-2.6482926741	-3.9591934781	 0.1083161804	 0.105801
H	-3.4451321342	-2.5246273085	 0.7625444603	 0.124094
H	-0.4442723951	-3.576401075	-0.9159063996	 0.288323
86.4476	125.4184	134.7944	198.899	211.1228	242.6238	256.0756	274.1651	282.509	312.0405	344.2801	401.6799	445.8092	515.7604	563.3095	575.8166	639.8953	681.7114	735.2736	859.0439	906.7469	954.1904	984.1634	993.2724	1024.6393	1058.5827	1083.4651	1098.9111	1132.0658	1139.0209	1161.6351	1213.334	1251.3128	1296.3674	1325.0946	1356.837	1371.5769	1388.4954	1400.646	1409.5871	1416.73	1417.3214	1443.8841	1462.618	1491.3104	1492.2805	1501.093	1506.9911	1510.3817	2993.0842	3011.4321	3023.1291	3031.7132	3035.2699	3063.6227	3078.4966	3095.2187	3105.7403	3117.1511	3126.6092	3741.4629	3753.8609	3826.0515
CC(O)C(CO)C(C)O	C[C@@H](O)[C@@H](CO)[C@@H](C)O	
InChI=1S/C6H14O3/c1-4(8)6(3-7)5(2)9/h4-9H,3H2,1-2H3	InChI=1S/C6H14O3/c1-4(8)6(3-7)5(2)9/h4-9H,3H2,1-2H3/t4-,5-/m1/s1
