23
gdb 64427	2.48418	1.44869	1.18607	0.9016	86.98	-0.2282	0.0173	0.2455	1184.0342	0.205693	-388.302874	-388.293618	-388.292674	-388.336098	36.703	
C	-0.2120588591	 1.6005462879	 0.1046178234	-0.425528
C	-0.0390220598	 0.079654828	-0.0271535532	 0.34755
C	-1.4063165315	-0.6078014094	 0.0716415997	-0.399541
C	 0.6209258283	-0.3058504213	-1.3746488209	-0.253468
C	 1.9700143681	 0.3021319123	-1.6804358264	-0.069031
C	 3.0433152184	 0.2534017242	-0.8914164871	-0.056498
C	 3.089116343	-0.3919218903	 0.4725014301	-0.254086
C	 1.9594815368	 0.0326549703	 1.4189915713	-0.069759
O	 0.6838779358	-0.4781464018	 1.0822218104	-0.287473
H	 0.7243158669	 2.1407332179	-0.0503232631	 0.122776
H	-0.9254608193	 1.9588328973	-0.6442131588	 0.111117
H	-0.60341773	 1.8509675463	 1.0952380195	 0.117667
H	-2.0660939272	-0.2902666787	-0.740989755	 0.106589
H	-1.2876095486	-1.6939247171	 0.0233346168	 0.116991
H	-1.8813559188	-0.3604935848	 1.0248709457	 0.116577
H	 0.7059313937	-1.4017024383	-1.3840630064	 0.111241
H	-0.0784752167	-0.0470720928	-2.1770003999	 0.094883
H	 2.0666618487	 0.7910077924	-2.6472150064	 0.083712
H	 3.9678596255	 0.7001890874	-1.2499354385	 0.084195
H	 3.056660701	-1.4870101391	 0.3754157698	 0.115203
H	 4.0414871069	-0.1548100602	 0.9607735512	 0.096448
H	 2.1629632354	-0.3725272902	 2.4166975841	 0.099579
H	 1.9441828323	 1.12776455	 1.5084495739	 0.090858
108.3738	125.4472	213.1575	248.3733	254.1607	297.4142	323.2129	368.8608	372.4603	400.2544	460.5253	488.391	549.7888	663.1742	710.1675	765.7891	817.742	861.2002	874.6675	931.7585	939.4032	985.9089	990.4476	999.5226	1020.9074	1055.5385	1082.4437	1119.212	1155.1138	1202.1323	1230.749	1237.6169	1262.6036	1293.6449	1321.2837	1358.3159	1365.6023	1392.4056	1403.821	1411.8783	1429.3068	1463.2777	1468.8102	1479.3524	1485.0072	1490.9719	1500.1317	1516.7473	1723.3569	3002.7201	3008.5961	3010.3938	3039.7682	3045.0514	3060.6717	3063.0376	3066.0236	3108.3758	3118.5473	3121.1094	3125.4149	3137.028	3161.5891
CC1(C)CC=CCCO1	CC1(C)CC=CCCO1	
InChI=1S/C8H14O/c1-8(2)6-4-3-5-7-9-8/h3-4H,5-7H2,1-2H3	InChI=1S/C8H14O/c1-8(2)6-4-3-5-7-9-8/h3-4H,5-7H2,1-2H3
