18
gdb 52807	1.98345	1.11112	0.80845	3.2928	83.42	-0.2393	-0.0258	0.2135	1473.9718	0.144221	-401.91136	-401.9011	-401.900156	-401.948466	35.463	
C	 0.0556278044	 1.4891863662	-0.133178399	-0.503047
C	 0.0318005925	 0.0361532178	-0.0562478654	 0.125645
C	 0.0020293264	-1.1650747876	 0.0233626705	 0.057229
C	 0.0076256352	-2.6097346436	 0.0609292598	 0.078921
C	 1.0637460248	-3.2606093404	-0.8182250533	-0.461554
N	-0.3129967194	-3.2180916315	 1.359976965	-0.348789
C	-1.286599491	-3.3725013394	 0.2621032767	-0.159427
C	-2.5809995262	-2.656848801	 0.445616311	 0.175039
O	-3.6048815717	-2.987449084	-0.0983545415	-0.26178
H	 0.874276758	 1.838462674	-0.7716813303	 0.151432
H	-0.8799816875	 1.8806257825	-0.5472421417	 0.154427
H	 0.1935985524	 1.9343703833	 0.8581117674	 0.154998
H	 2.0637676612	-2.956035479	-0.4938831504	 0.137986
H	 0.996036673	-4.3519369277	-0.7664028457	 0.116762
H	 0.9411316482	-2.9557798686	-1.8612311635	 0.142677
H	 0.2106807679	-4.0828722196	 1.4767911889	 0.241019
H	-1.3685436389	-4.324318424	-0.2572558614	 0.103784
H	-2.5227669793	-1.7855049375	 1.1301808228	 0.094681
17.1514	62.7018	107.9957	119.871	186.726	220.7597	247.1773	308.7779	337.2089	368.593	419.6174	478.7667	538.5193	587.4003	601.9031	802.6171	845.636	962.9399	989.2276	1012.5873	1050.6853	1052.2203	1053.9621	1061.647	1094.9369	1142.2423	1210.4265	1250.2648	1356.54	1377.248	1413.0047	1414.821	1436.5946	1476.1754	1477.1725	1480.4632	1499.3375	1822.4879	2371.184	2927.3146	3029.581	3036.3418	3091.6389	3092.7713	3109.2896	3117.035	3147.3076	3496.6967
CC#CC1(C)NC1C=O	CC#C[C@@]1(C)N[C@H]1C=O	
InChI=1S/C7H9NO/c1-3-4-7(2)6(5-9)8-7/h5-6,8H,1-2H3	InChI=1S/C7H9NO/c1-3-4-7(2)6(5-9)8-7/h5-6,8H,1-2H3/t6-,7+/m0/s1
