16
gdb 43699	5.38657	0.68531	0.65716	4.0057	70.12	-0.2898	-0.0033	0.2865	1627.5166	0.124058	-437.932215	-437.9237	-437.922756	-437.966611	30.091	
O	 0.1781442307	 0.1883152198	-0.8629045246	-0.303711
C	-0.0085144789	 1.1777771413	-0.2365521128	 0.454337
C	-1.1866430441	 2.0560132668	 0.1883144923	-0.443456
C	-0.0982712651	 2.9017422881	 0.8747115825	 0.126537
C	-0.1075255369	 2.9861523105	 2.387842568	-0.208205
C	 1.2360825746	 3.511238093	 2.9332689227	-0.340487
C	 1.2449061689	 3.600246935	 4.3909138626	 0.257993
N	 1.2303370998	 3.6667705298	 5.5442654624	-0.298058
O	 0.9309528904	 1.9655360176	 0.390971953	-0.253965
H	-1.7177801672	 2.5243267511	-0.641427315	 0.152476
H	-1.9006235653	 1.5625933064	 0.8505444451	 0.15027
H	 0.0711439188	 3.8813089879	 0.4171395609	 0.105454
H	-0.9229767536	 3.6470146358	 2.7019298609	 0.133901
H	-0.3104098301	 1.9959259247	 2.8092662689	 0.133603
H	 2.0457072656	 2.8487806258	 2.6096529731	 0.17871
H	 1.4536853424	 4.5041281661	 2.52215009	 0.154602
52.7029	94.2751	109.2127	144.7365	227.6249	350.8234	394.1109	436.4051	519.5284	529.4365	549.4504	721.0532	783.5793	843.1734	890.6748	928.8412	955.6636	1007.9689	1034.5536	1058.5633	1101.0568	1118.066	1151.4136	1220.8031	1227.88	1265.9508	1309.5526	1329.0534	1371.705	1413.3695	1457.1652	1469.1277	1483.9379	1949.5278	2365.689	3042.5893	3051.368	3065.6909	3084.7891	3090.8037	3104.1605	3149.2745
O=C1CC(CCC#N)O1	O=C1C[C@@H](CCC#N)O1	
InChI=1S/C6H7NO2/c7-3-1-2-5-4-6(8)9-5/h5H,1-2,4H2	InChI=1S/C6H7NO2/c7-3-1-2-5-4-6(8)9-5/h5H,1-2,4H2/t5-/m1/s1
