23
gdb 100120	3.70529	0.83428	0.81722	2.6795	82.26	-0.2587	0.0608	0.3195	1548.1977	0.202779	-425.41105	-425.400411	-425.399467	-425.446584	39.551	
C	-0.0381660535	 1.549365947	 0.1286929385	-0.392656
C	 0.0036383363	 0.0270172537	-0.0300190379	-0.201715
C	 0.7144057569	-0.4787365316	-1.3049521735	 0.343252
C	 0.0466544887	 0.0406478352	-2.580670596	-0.398489
O	 2.0587139917	 0.0263429177	-1.3492588995	-0.461363
C	 0.7528818979	-2.0254877684	-1.2778152111	-0.248641
C	 1.4994464563	-2.6439545592	-2.4344277816	 0.088918
C	 1.2429990846	-4.0192503689	-2.8777683132	-0.18492
O	 0.7490083098	-2.9093134093	-3.6274978611	-0.23559
H	 0.9619885707	 1.9766114951	 0.0149946174	 0.124874
H	-0.6883637842	 2.018681725	-0.6152317317	 0.120764
H	-0.418917058	 1.8236331232	 1.1171404158	 0.10877
H	 0.5211268108	-0.4113021887	 0.8362646957	 0.079191
H	-1.0138222141	-0.3828350503	-0.0070114523	 0.096927
H	 0.0897140707	 1.1313885021	-2.6145437878	 0.119827
H	 0.550551119	-0.3482477132	-3.4671658388	 0.143414
H	-1.0007091744	-0.27196742	-2.6220354064	 0.112367
H	 2.4946996344	-0.2264289753	-0.5275500072	 0.27327
H	 1.2373535322	-2.3394606265	-0.3410966294	 0.085875
H	-0.2668217352	-2.4266011653	-1.257657134	 0.103686
H	 2.4851348293	-2.219901983	-2.6227730824	 0.102003
H	 2.035072913	-4.5942251029	-3.3559660964	 0.111812
H	 0.4843058972	-4.6139029365	-2.369226457	 0.108421
74.913	85.3579	115.6594	141.6582	203.9571	243.121	257.9097	314.335	334.9651	339.238	355.0622	410.5205	433.8883	465.6514	597.5451	756.3852	784.987	791.69	853.4558	908.0056	917.547	936.9941	968.2787	1006.7447	1019.5404	1067.6324	1094.7215	1108.8558	1140.6941	1158.4265	1172.883	1184.3223	1206.7	1247.2502	1288.1143	1298.8845	1331.056	1368.9368	1390.5702	1408.9503	1426.2195	1444.3705	1459.9568	1480.5905	1487.7473	1495.5331	1507.7831	1514.7493	1531.6726	2994.4892	3003.7603	3044.2414	3047.7913	3056.3455	3069.2259	3078.1616	3108.7246	3120.2907	3123.4503	3128.9456	3143.3881	3163.3459	3793.5546
CCC(C)(O)CC1CO1	CC[C@@](C)(O)C[C@H]1CO1	
InChI=1S/C7H14O2/c1-3-7(2,8)4-6-5-9-6/h6,8H,3-5H2,1-2H3	InChI=1S/C7H14O2/c1-3-7(2,8)4-6-5-9-6/h6,8H,3-5H2,1-2H3/t6-,7+/m0/s1
