18
gdb 89569	4.69875	1.02586	0.97775	1.3045	71.55	-0.2457	0.0222	0.268	1222.3785	0.148385	-439.086685	-439.078741	-439.077796	-439.119716	30.394	
O	 0.6446715623	 0.5814044748	-0.9153209444	-0.43119
C	-0.0421918196	-0.2664504878	-0.0353062817	 0.177519
C	 0.227614467	-0.1802504947	 1.4933397952	-0.340023
C	-1.2809508366	-0.4336730923	 1.7223316758	 0.408327
C	-1.5503252756	-0.0253964162	 0.2548484039	-0.340027
C	-1.720948942	-1.851317628	 2.1762694663	-0.251202
N	-2.5444144003	-1.6426744703	 3.3781591448	-0.260496
C	-2.561439205	-0.3899598349	 3.5602745165	 0.102215
O	-1.8948758819	 0.4282981027	 2.7111466995	-0.254829
H	 0.5150792724	 1.489375359	-0.6208702745	 0.278684
H	 0.1314455422	-1.2787834235	-0.4110713149	 0.099111
H	 0.9412797329	-0.8746336424	 1.943281189	 0.108907
H	 0.4857599879	 0.842953668	 1.7856699606	 0.108342
H	-1.7914441882	 1.0413289038	 0.1996166666	 0.108265
H	-2.2938231432	-0.5927418612	-0.3101785306	 0.108952
H	-2.3089587019	-2.3684026694	 1.4098647342	 0.11924
H	-0.8665088675	-2.4924673531	 2.4201485207	 0.119215
H	-3.0785486527	 0.1228430455	 4.3638708231	 0.13899
63.6008	74.095	259.3438	291.5711	327.0587	345.8753	422.2631	458.7018	475.1292	534.6293	688.8601	791.5388	816.1023	845.3504	902.2972	917.3753	952.8634	960.2343	985.2452	1005.5317	1036.918	1053.9963	1100.7246	1134.4633	1139.1177	1186.3345	1206.474	1233.8911	1239.009	1277.5038	1288.117	1323.1517	1337.9042	1339.1446	1438.7204	1460.95	1485.7688	1498.7188	1710.4112	3033.3782	3048.049	3054.6465	3066.51	3073.03	3112.2344	3116.6769	3215.1537	3804.7203
OC1CC2(C1)CN=CO2	O[C@H]1C[C@@]2(C1)CN=CO2	
InChI=1S/C6H9NO2/c8-5-1-6(2-5)3-7-4-9-6/h4-5,8H,1-3H2	InChI=1S/C6H9NO2/c8-5-1-6(2-5)3-7-4-9-6/h4-5,8H,1-3H2/t5-,6+
