18
gdb 80529	2.20286	1.511	1.274	1.9529	74.26	-0.2406	-0.0308	0.2097	1086.4686	0.145877	-439.042968	-439.034038	-439.033094	-439.076451	33.038	
C	-0.1725944766	 1.4919859408	-0.0737627832	-0.330014
N	 0.0937322169	 0.0627834284	 0.090605347	-0.129744
C	 1.356439017	-0.5475016566	-0.1660707839	-0.091936
C	 2.5670630385	 0.2927188814	 0.2821493661	-0.273935
C	 2.0105448076	 0.288537687	 1.730927912	 0.045822
O	 1.8532775395	 1.5660067719	 2.3038181448	-0.425601
C	 0.7604392966	-0.4843082	 1.2581556215	 0.188803
C	 0.0908764864	-1.5510900665	 2.021124406	 0.07354
O	 0.3925996173	-1.8527107582	 3.1533407134	-0.276644
H	 0.6291561112	 2.1532689254	 0.2649807713	 0.141745
H	-0.3760096033	 1.6756521338	-1.1331365445	 0.124058
H	-1.0761896326	 1.7347091674	 0.4924507515	 0.128806
H	 1.3945595702	-1.4135243603	-0.8188448888	 0.110839
H	 3.5186659251	-0.2322852736	 0.1890808971	 0.117806
H	 2.6555963324	 1.2772626548	-0.1824492911	 0.11987
H	 2.6041844994	-0.3691832871	 2.3769676196	 0.101638
H	 1.4933379876	 1.4525738002	 3.1899976043	 0.292792
H	-0.7250821233	-2.0632682788	 1.4669778968	 0.082156
91.7026	134.9104	165.9	192.4617	251.0521	254.7968	293.551	329.4508	399.5291	485.8454	505.9344	617.3351	685.7439	707.5124	781.1265	842.509	927.067	958.7798	986.8564	1014.7076	1060.4872	1070.0408	1099.6532	1147.0636	1160.6972	1185.0617	1219.6394	1233.1532	1257.7879	1287.4008	1310.374	1380.4051	1423.0139	1428.6088	1459.1221	1478.2034	1491.9511	1509.9477	1795.7992	2904.5462	3036.4885	3040.6974	3077.1125	3113.5268	3119.5181	3133.1995	3169.7803	3812.7136
CN1C2CC(O)C12C=O	CN1[C@H]2C[C@@H](O)[C@@]12C=O	
InChI=1S/C6H9NO2/c1-7-4-2-5(9)6(4,7)3-8/h3-5,9H,2H2,1H3	InChI=1S/C6H9NO2/c1-7-4-2-5(9)6(4,7)3-8/h3-5,9H,2H2,1H3/t4-,5+,6-,7?/m0/s1
