19
gdb 107450	3.51065	1.31248	1.16676	1.9237	74.18	-0.2233	0.0524	0.2757	1100.18	0.161398	-419.149447	-419.141708	-419.140763	-419.181487	30.839	
O	 0.4968729001	 0.6356490144	-0.9312176828	-0.409819
C	-0.0434856189	 0.1927327731	 0.3045719495	-0.20489
C	-1.4769081855	-0.2779407234	 0.1799783685	 0.330698
N	-1.8821640024	-1.0402026056	-1.0171213737	-0.373036
C	-2.4685166845	 0.2955817466	-0.770280121	-0.096839
C	-3.8333070034	 0.2646927533	-0.0954278623	-0.172143
N	-3.6653664777	-0.2973941733	 1.2672194898	-0.109985
C	-3.2702408017	-1.712093999	 1.3418882583	-0.24579
C	-2.2366287615	-0.6500686302	 1.4365852281	-0.100301
H	 0.1229290865	 1.5011660309	-1.1244169031	 0.291131
H	 0.5914347805	-0.6425602793	 0.6227445309	 0.126314
H	 0.0287132263	 0.9691222145	 1.0807871207	 0.104109
H	-1.1373305603	-0.9336789966	-1.7062447293	 0.236909
H	-2.2276032081	 1.1018513906	-1.4587997613	 0.073438
H	-4.2166685927	 1.2860690552	 0.0087352652	 0.105375
H	-4.5681862561	-0.3151309761	-0.6630190064	 0.116459
H	-3.6084578666	-2.2202633771	 2.2414096334	 0.106717
H	-3.2741593484	-2.3051091038	 0.433231708	 0.14041
H	-1.7778321456	-0.3920636942	 2.3883820376	 0.081242
99.5129	191.1183	213.7598	277.4474	333.4633	362.3884	392.8334	450.6013	553.0235	650.4882	698.7737	706.551	785.0405	817.3366	857.4941	890.1297	925.1866	960.8775	1004.065	1026.9569	1045.102	1057.432	1075.5361	1090.1274	1104.2069	1124.1488	1156.5953	1185.4184	1207.7463	1233.8163	1264.958	1280.3323	1304.0974	1343.2082	1380.114	1397.2926	1421.4985	1441.9994	1485.0966	1499.4968	1502.0975	2994.9701	3038.2823	3059.7236	3083.0586	3109.0465	3131.5545	3136.0345	3207.9122	3466.2721	3821.5182
OCC12NC1CN1CC21	OC[C@]12N[C@H]1CN1C[C@@H]21	
InChI=1S/C6H10N2O/c9-3-6-4(7-6)1-8-2-5(6)8/h4-5,7,9H,1-3H2	InChI=1S/C6H10N2O/c9-3-6-4(7-6)1-8-2-5(6)8/h4-5,7,9H,1-3H2/t4-,5-,6-,8?/m0/s1
