20
gdb 107185	2.67052	1.41157	1.13137	0.622	78.68	-0.2374	0.0636	0.301	1145.7037	0.170808	-403.071376	-403.062717	-403.061772	-403.104748	33.234	
C	-0.1622874509	 1.464916687	-0.185596686	-0.31265
N	 0.1061038326	 0.0442459284	-0.0231365819	-0.082629
C	 1.43720389	-0.5078016775	-0.1501917036	-0.05404
C	 2.5369728589	 0.3366509918	 0.4683694827	-0.143597
C	 3.1124337591	-0.3903387668	 1.6548120514	-0.323254
C	 1.7908503666	 0.3202673827	 1.8166348945	 0.321831
C	 1.604104486	 1.4150221726	 2.8323903324	-0.180488
O	 1.5149731973	 0.9246226076	 4.1665447395	-0.413746
C	 0.6950306737	-0.525284343	 1.1744212241	-0.147878
H	 0.6344356259	 2.1283461289	 0.1759406104	 0.109229
H	-0.3175989944	 1.6677566215	-1.2502099959	 0.121709
H	-1.0880665936	 1.7142104718	 0.3428761697	 0.119876
H	 1.5913247965	-1.325649085	-0.8464813868	 0.096542
H	 3.0452467326	 1.1753428439	 0.0064012842	 0.093435
H	 3.1538594393	-1.4763012249	 1.654824881	 0.109262
H	 3.9584431795	 0.0853675112	 2.1437477926	 0.115955
H	 2.4750912689	 2.0797592449	 2.8247514024	 0.10884
H	 0.7245535152	 2.0269913231	 2.5841160036	 0.089889
H	 0.7397520348	 0.356376989	 4.2174917306	 0.282267
H	 0.181038372	-1.360132957	 1.6415092653	 0.089447
59.2814	144.198	189.6076	214.755	252.8949	280.9443	334.5597	394.5594	416.3355	509.4836	650.3778	687.9203	741.6584	805.3122	835.5127	890.882	903.0032	923.3303	952.1162	981.4963	1003.5447	1029.103	1044.7743	1057.8168	1066.8648	1091.2528	1098.5088	1158.8072	1167.8585	1182.9462	1231.5839	1260.2369	1287.1184	1306.4542	1354.1285	1365.451	1380.6803	1420.5773	1451.9544	1490.2534	1491.6239	1502.4999	1505.0893	2992.8156	3009.7746	3065.358	3075.2491	3100.446	3110.6471	3151.2533	3166.0612	3176.6172	3194.1948	3816.3942
CN1C2C3CC3(CO)C12	CN1[C@H]2[C@@H]3C[C@]3(CO)[C@@H]12	
InChI=1S/C7H11NO/c1-8-5-4-2-7(4,3-9)6(5)8/h4-6,9H,2-3H2,1H3	InChI=1S/C7H11NO/c1-8-5-4-2-7(4,3-9)6(5)8/h4-6,9H,2-3H2,1H3/t4-,5-,6-,7+,8?/m0/s1
