17
gdb 91992	2.72304	1.61056	1.28048	3.6621	71.53	-0.247	0.0164	0.2634	1005.5698	0.137653	-417.997212	-417.989508	-417.988564	-418.02928	29.897	
O	-1.0174528688	 1.1438310582	-0.7132649593	-0.415896
C	-0.1757233991	 0.1358988769	-0.1856561625	 0.071328
C	-1.0584835791	-0.996076082	 0.3658874932	-0.238169
C	-1.1684383412	-2.0021965855	-0.7703301734	-0.020903
C	-1.4871829524	-1.4938992666	-2.1276958111	-0.249106
N	-0.0847856004	-1.7856964688	-1.7582380097	-0.106482
C	 0.6689612496	-0.6109562533	-1.2797936057	-0.144938
C	 1.0636521473	 0.2937355179	-2.3588001824	 0.285086
N	 1.3519952481	 1.0690738272	-3.1662208441	-0.326667
H	-0.4732117227	 1.7886476406	-1.1818826891	 0.300893
H	 0.4898886811	 0.5535317136	 0.5810813441	 0.089952
H	-0.5769244102	-1.4633328079	 1.2306738527	 0.114008
H	-2.0215921238	-0.5949360536	 0.6906877419	 0.133884
H	-1.3742736781	-3.0377182611	-0.5166909401	 0.099923
H	-1.884068873	-2.1741919099	-2.8746544643	 0.123917
H	-1.7963705154	-0.4591953796	-2.223147208	 0.150071
H	 1.5828811081	-0.9940373959	-0.8092377121	 0.133101
109.7252	142.0112	204.2182	295.0207	369.9984	393.051	405.149	412.7874	525.9867	563.2008	678.6414	740.4131	808.8825	820.5798	856.1018	877.7581	929.8969	967.9887	1016.1046	1040.7131	1052.6799	1098.9203	1125.748	1130.1314	1175.9501	1213.4799	1220.641	1267.1713	1289.175	1329.4453	1342.5329	1344.8068	1387.3984	1424.3948	1478.9369	1504.5052	2355.9414	3012.4321	3038.9791	3060.9953	3112.3692	3129.1617	3156.0389	3227.4387	3785.1821
OC1CC2CN2C1C#N	O[C@H]1C[C@H]2CN2[C@H]1C#N	
InChI=1S/C6H8N2O/c7-2-5-6(9)1-4-3-8(4)5/h4-6,9H,1,3H2	InChI=1S/C6H8N2O/c7-2-5-6(9)1-4-3-8(4)5/h4-6,9H,1,3H2/t4-,5-,6-,8?/m0/s1
