18
gdb 62872	2.88523	1.88974	1.47185	3.0027	70.11	-0.2415	0.0621	0.3036	926.8501	0.148608	-439.016358	-439.00931	-439.008365	-439.047265	29.723	
C	-0.009574855	 1.5711109831	 0.0174956983	-0.425594
C	-0.1029349935	 0.0507642115	-0.0337704739	 0.402764
O	-1.4144180639	-0.2575424167	-0.3535258151	-0.482761
C	 1.1344857983	-0.6103842371	-0.7624450009	-0.01551
O	 1.909969818	-0.2891489624	 0.4415459686	-0.293048
C	 0.6763251277	-0.6467935891	 1.1517500283	-0.015508
C	 0.6377782676	-2.1652876889	 0.8624004718	-0.04213
N	-0.3631360427	-2.6052327936	-0.1466143152	-0.370082
C	 0.9822751709	-2.1379138333	-0.5766735628	-0.042121
H	 0.9950853025	 1.9110760072	 0.2644242137	 0.131451
H	-0.3062766581	 1.9801129726	-0.95306047	 0.119098
H	-0.7169322657	 1.9474783053	 0.7626718559	 0.119099
H	-1.4546483026	-1.2330212029	-0.3816864516	 0.300557
H	 1.5728917808	-0.2347347651	-1.6865891524	 0.077564
H	 0.6457258531	-0.3084068189	 2.1870821797	 0.077565
H	 1.0358862867	-2.8838640862	 1.5678935304	 0.108861
H	-0.3929617576	-3.6220553684	-0.1731180788	 0.240933
H	 1.6627946535	-2.8340418969	-1.0508697061	 0.108861
196.6821	200.7844	308.2276	321.3773	415.2484	419.6793	472.373	584.8746	608.1943	673.6606	723.8983	747.9625	774.135	839.6472	842.535	860.4648	889.6096	904.8716	920.4697	934.6379	982.8717	1045.1304	1049.6879	1077.2979	1091.841	1145.5226	1150.6776	1178.4181	1230.6769	1235.6304	1253.5798	1277.0184	1305.8631	1330.0729	1389.7073	1397.8157	1477.6659	1492.3988	1498.75	3048.9328	3109.7844	3126.5417	3129.7385	3162.8936	3188.9363	3199.0497	3493.2019	3522.3221
CC1(O)C2OC1C1NC21	C[C@@]1(O)[C@H]2O[C@@H]1[C@H]1N[C@@H]21	
InChI=1S/C6H9NO2/c1-6(8)4-2-3(7-2)5(6)9-4/h2-5,7-8H,1H3	InChI=1S/C6H9NO2/c1-6(8)4-2-3(7-2)5(6)9-4/h2-5,7-8H,1H3/t2-,3+,4+,5-,6-
