16
gdb 27411	2.37867	1.63557	0.98405	4.2929	84.93	-0.2363	-0.0838	0.1525	1156.8816	0.125063	-400.785518	-400.777564	-400.77662	-400.81857	29.375	
C	-0.0072006638	 1.5300252995	 0.0725141609	-0.482908
C	-0.0297193495	 0.0202054083	-0.0094184508	 0.273137
C	-1.223515432	-0.6187397988	-0.1462682587	-0.243647
C	-1.5150132878	-2.0444925918	-0.2676939232	 0.309859
O	-2.6262979365	-2.4375258016	-0.6012184863	-0.351246
C	-0.5034063699	-3.0726212563	 0.1178938989	-0.041495
N	 0.7766601348	-3.0371087246	 0.2290308902	-0.235648
C	 1.5759589628	-1.9338606767	 0.0796022108	-0.001126
C	 1.2616165589	-0.6126563627	 0.0221159836	-0.12105
H	 0.5864021614	 1.9527583869	-0.7463412527	 0.14264
H	-1.0112846276	 1.9543428729	 0.0236022282	 0.137684
H	 0.4627544703	 1.8583979598	 1.0066625956	 0.143184
H	-2.1259164114	-0.0144810361	-0.1990336132	 0.114566
H	-0.9811043201	-4.038786548	 0.299842078	 0.134853
H	 2.6342744858	-2.1860934912	 0.0697319955	 0.11875
H	 2.1117124646	 0.0660238004	 0.0077466432	 0.102446
52.0338	132.1215	183.3196	254.6502	304.6398	357.7817	432.5285	443.3582	486.4479	591.3933	617.8787	666.435	794.2312	847.714	868.5783	918.309	935.6013	980.5636	1006.5628	1048.7523	1067.0839	1079.5543	1159.4729	1298.2517	1314.3923	1360.0839	1405.3626	1411.6498	1478.1883	1480.8742	1493.0679	1564.2224	1653.3588	1667.1301	1713.4341	3032.5941	3085.8185	3104.6992	3135.49	3141.7157	3161.4286	3165.419
CC1=CC(=O)C=NC=C1	Cc1cc(=O)cncc1	
InChI=1S/C7H7NO/c1-6-2-3-8-5-7(9)4-6/h2-5H,1H3	InChI=1S/C7H7NO/c1-6-2-3-8-5-7(9)4-6/h2-5H,1H3
