21
gdb 93591	4.47991	0.92872	0.7978	0.9688	94.85	-0.2224	-0.0096	0.2128	1466.265	0.182588	-349.956161	-349.947079	-349.946134	-349.989619	35.325	
C	-0.0099503747	 1.5782271791	-0.0058529079	-0.406563
C	 0.0185095898	 0.0481082631	-0.00536147	 0.037638
C	 0.7007692364	-0.5216262637	-1.2570294601	-0.202998
C	 0.6093726357	-2.051394835	-1.3034747726	-0.310793
C	 0.953515569	-2.689783381	 0.0318707015	 0.14441
C	 1.0058659916	-1.9761917043	 1.1685996785	-0.142438
C	 0.7108739053	-0.5050448353	 1.2515022427	-0.244881
C	 1.2142403598	-4.0895784651	 0.0225125536	 0.221482
C	 1.4252596357	-5.274610785	-0.0426972202	-0.416608
H	 1.0059703595	 1.9891526838	-0.0449592515	 0.112824
H	-0.5585861845	 1.9647319543	-0.8711857221	 0.1112
H	-0.4910352495	 1.9690151643	 0.8974152074	 0.110677
H	-1.0191672078	-0.3160550871	 0.0013737204	 0.074907
H	 0.2535612347	-0.0959122405	-2.1625484758	 0.091324
H	 1.7565731065	-0.2174254959	-1.2559995742	 0.097377
H	-0.4024860667	-2.3647234596	-1.5961544638	 0.115111
H	 1.2763240233	-2.4529464514	-2.0744583508	 0.11301
H	 1.2762255019	-2.4813286619	 2.0919033613	 0.091233
H	 1.6510378351	 0.0428757898	 1.4274771086	 0.108449
H	 0.0954561898	-0.3059783539	 2.1391135061	 0.105466
H	 1.613476519	-6.318666645	-0.0806957112	 0.189172
74.0225	143.2921	196.8424	199.7407	237.0334	302.9723	356.333	374.3353	415.6408	486.3652	539.0503	560.4341	585.2301	632.5242	635.4317	755.9832	803.3442	842.3218	914.3513	920.6035	955.7683	968.1682	1024.8177	1039.7814	1093.9382	1114.2277	1155.6204	1162.3208	1175.264	1252.2398	1276.9757	1323.0118	1332.4088	1337.0504	1376.457	1381.3365	1400.2559	1412.3857	1469.1964	1478.5847	1493.3137	1497.4192	1499.7209	1693.8596	2217.0658	2977.4933	2997.3813	3011.9643	3016.5232	3024.3011	3030.449	3059.5188	3065.3312	3089.7363	3096.9215	3165.6356	3504.4096
CC1CCC(=CC1)C#C	C[C@H]1CCC(=CC1)C#C	
InChI=1S/C9H12/c1-3-9-6-4-8(2)5-7-9/h1,6,8H,4-5,7H2,2H3	InChI=1S/C9H12/c1-3-9-6-4-8(2)5-7-9/h1,6,8H,4-5,7H2,2H3/t8-/m1/s1
