20
gdb 20075	4.96228	1.24001	1.06576	1.8075	74.65	-0.2607	0.0825	0.3432	1141.3896	0.178706	-348.999669	-348.991782	-348.990838	-349.033102	29.17	
C	 0.354475361	 1.5221629564	 0.1121126076	-0.183717
O	 1.1813613494	 0.4152973355	-0.2510526594	-0.24415
C	-0.2027850893	 0.167143145	 0.0148357242	 0.075663
C	-0.5305865115	-0.6709649628	 1.2225825868	 0.029172
C	-2.0127954317	-0.5666512733	 1.6611135151	-0.222861
C	-2.358269437	-1.9258839898	 2.336827482	-0.20149
C	-1.0899740354	-2.8048516285	 2.1938159796	-0.204983
C	-0.3216132058	-2.1831570195	 1.0186449502	-0.209182
H	 0.553117621	 1.950098284	 1.0943582218	 0.108893
H	 0.1674768055	 2.2476799473	-0.678697485	 0.111458
H	-0.7834080764	-0.0734590994	-0.8799138575	 0.085337
H	 0.1180963433	-0.3417435596	 2.0444997598	 0.071651
H	-2.1806218086	 0.288134241	 2.3218691603	 0.099173
H	-2.6471141628	-0.4083034867	 0.7810065024	 0.096053
H	-2.6457117063	-1.8009630528	 3.3843374329	 0.098272
H	-3.2102282604	-2.3940197381	 1.8344928484	 0.100068
H	-0.4808116527	-2.738100755	 3.1029465295	 0.098357
H	-1.323061416	-3.8626198337	 2.0434738099	 0.093593
H	-0.7729823601	-2.4903820453	 0.0651019993	 0.091902
H	 0.7345964736	-2.4628527948	 0.9852108319	 0.10679
35.5881	79.8424	157.5589	180.4683	310.1617	378.831	461.8303	557.0663	622.4012	772.897	815.7399	854.5643	865.7715	893.0863	904.0102	933.6756	966.5576	976.5048	1003.7247	1039.9384	1078.0398	1109.068	1125.1718	1156.1869	1174.2771	1202.1753	1211.8399	1221.1857	1278.0165	1283.08	1292.4659	1304.0211	1321.013	1341.4334	1343.3695	1365.5969	1454.5437	1487.6235	1491.6717	1496.0612	1517.134	1531.0902	3013.9306	3024.096	3034.9628	3037.1051	3054.965	3072.6334	3077.2807	3079.3464	3089.2919	3095.9921	3104.309	3163.6061
C1OC1C1CCCC1	C1O[C@H]1C1CCCC1	
InChI=1S/C7H12O/c1-2-4-6(3-1)7-5-8-7/h6-7H,1-5H2	InChI=1S/C7H12O/c1-2-4-6(3-1)7-5-8-7/h6-7H,1-5H2/t7-/m1/s1
