16
gdb 16509	3.77255	2.44916	1.86489	1.3674	67.93	-0.2202	0.0164	0.2367	738.8739	0.131812	-346.565361	-346.559245	-346.558301	-346.594988	25.827	
O	-0.0621957436	 1.3525848673	-0.0309351393	-0.483487
C	 0.0112402102	-0.0378381556	-0.0582823355	 0.385175
C	 0.974148917	-0.7422572218	-0.9569193277	-0.160527
C	 0.5280198756	-1.9799509846	-1.1922019895	-0.084441
C	-0.7104019738	-2.2243290155	-0.3567416337	-0.112967
C	-0.2493035674	-2.272550506	 1.1605101375	-0.230795
C	-0.4736443417	-0.7700668027	 1.2286427609	-0.126978
C	-1.2789195576	-0.7974455813	-0.0562717853	-0.103505
H	 0.6195865574	 1.6793521248	 0.5653053581	 0.284725
H	 1.8957920669	-0.2942776055	-1.3073463782	 0.093799
H	 1.040991514	-2.7580946428	-1.7439296278	 0.096645
H	-1.3806928235	-3.0168071492	-0.6849150567	 0.071563
H	-0.9898703376	-2.7966638314	 1.770590396	 0.104179
H	 0.7484989641	-2.6768455735	 1.362856838	 0.089559
H	-0.64521997	-0.1751697932	 2.1186550957	 0.083451
H	-2.2444282	-0.374707269	-0.3048803723	 0.093604
261.8119	309.6063	336.3176	381.6491	399.5667	557.2192	596.4045	693.1812	718.7275	741.1335	808.4348	846.8151	856.0218	881.9235	906.2046	927.4777	940.3678	980.4088	995.1445	1021.0601	1069.5939	1084.996	1114.2224	1165.3672	1184.5884	1221.3217	1242.4437	1259.6873	1282.9809	1321.5349	1360.1982	1411.9696	1489.4091	1643.3654	3037.5623	3097.6677	3124.797	3173.7329	3192.958	3196.3271	3221.3848	3803.3913
OC12C=CC3CC1C23	O[C@@]12C=C[C@H]3C[C@@H]1[C@@H]23	
InChI=1S/C7H8O/c8-7-2-1-4-3-5(7)6(4)7/h1-2,4-6,8H,3H2	InChI=1S/C7H8O/c8-7-2-1-4-3-5(7)6(4)7/h1-2,4-6,8H,3H2/t4-,5+,6-,7-/m0/s1
