17
gdb 75773	2.67303	1.24721	1.09727	3.1634	75.61	-0.2417	-0.0217	0.22	1164.4807	0.131742	-421.798054	-421.788524	-421.787579	-421.832297	35.252	
C	-0.5809590071	 1.2555969347	 0.0685711028	-0.412814
C	 0.1293251704	-0.0765835751	-0.1006969119	-0.108787
C	 1.4640522661	-0.148421012	-0.8594177025	 0.38069
O	 1.8908225641	 0.4035917642	-1.8298023497	-0.291939
C	 2.0623596765	-1.1277507542	 0.1643194734	-0.382408
C	 0.873988024	-0.7422988576	 1.1179102616	 0.167396
O	 1.2411531341	 0.2922334008	 2.016855357	-0.457051
C	 0.1966730966	-1.8378429932	 1.7950389772	 0.276421
C	-0.3418544464	-2.745721493	 2.3714161943	-0.450838
H	 0.0616753902	 1.9770649768	 0.5757183467	 0.144273
H	-0.8459853142	 1.6566611552	-0.9140516182	 0.133002
H	-1.4985836547	 1.141357412	 0.6527197513	 0.126212
H	-0.5396139384	-0.8263197686	-0.5415344078	 0.115997
H	 2.0239457048	-2.163402987	-0.1856794043	 0.137395
H	 3.0617707305	-0.9002048459	 0.5409266265	 0.132768
H	 1.7123165603	-0.1104628284	 2.7544580593	 0.287546
H	-0.8260932568	-3.5451669686	 2.8762611944	 0.202137
59.8041	126.2349	159.8764	173.7074	203.3659	250.4501	291.1911	381.9253	406.0082	424.113	494.738	546.8008	595.2713	616.6896	625.571	672.5256	739.1578	747.3974	855.6506	908.4472	973.7283	1020.4019	1044.5792	1088.4438	1142.2335	1145.7264	1185.0605	1200.3175	1266.6621	1318.6597	1361.6807	1403.9404	1422.3396	1486.9368	1498.769	1900.8383	2230.7814	3040.7424	3050.334	3066.133	3116.4251	3131.8168	3142.6189	3499.302	3810.7447
CC1C(=O)CC1(O)C#C	C[C@H]1C(=O)C[C@]1(O)C#C	
InChI=1S/C7H8O2/c1-3-7(9)4-6(8)5(7)2/h1,5,9H,4H2,2H3	InChI=1S/C7H8O2/c1-3-7(9)4-6(8)5(7)2/h1,5,9H,4H2,2H3/t5-,7+/m0/s1
