18
gdb 13679	4.78336	0.98442	0.88833	2.7489	69.26	-0.2526	-0.0285	0.2241	1301.1347	0.150663	-384.921426	-384.912392	-384.911447	-384.956231	31.394	
C	-0.1273432254	 1.4327829753	 0.3838067633	-0.407411
C	 0.0467432237	-0.0552122987	 0.1754949588	-0.023121
C	 1.3792113252	-0.5953896894	-0.3137084905	-0.326541
C	 0.9378779936	-0.8711928376	 1.0872194085	 0.13215
O	 1.6638689152	-0.2401706178	 2.1008478531	-0.250478
C	 0.9707937541	-0.1695265814	 3.326124372	-0.151211
C	 1.8822592847	 0.4942157367	 4.3429757091	 0.138679
O	 1.5548523985	 0.7346785548	 5.4742251925	-0.237799
H	 0.7615580818	 1.8647288593	 0.851487903	 0.126959
H	-0.2904120563	 1.9468756624	-0.5693098554	 0.120187
H	-0.9867930851	 1.6499677454	 1.0278494562	 0.115988
H	-0.8362619685	-0.5731378776	-0.1904136491	 0.086398
H	 1.3998862473	-1.4129818925	-1.0252657797	 0.115051
H	 2.1844150846	 0.1235631582	-0.4243068941	 0.12498
H	 0.6199550386	-1.8825338244	 1.3446450949	 0.085815
H	 0.0379846894	 0.4090115807	 3.2465993483	 0.128726
H	 0.6997337153	-1.171780961	 3.6986165519	 0.124248
H	 2.8914963533	 0.7380165773	 3.9437119372	 0.097379
49.3618	62.1068	116.6902	134.8365	211.1706	230.8901	311.7018	360.8355	406.3687	559.2432	587.7157	740.1671	779.5996	801.6406	852.404	917.5109	988.8197	1035.8409	1055.1144	1079.3549	1112.7875	1117.7161	1133.5338	1140.7837	1186.0538	1192.7286	1234.8263	1248.8774	1340.5129	1378.8616	1401.1009	1418.484	1421.8502	1476.0737	1492.2037	1499.092	1503.9571	1845.4251	2898.8783	2971.7084	3014.3675	3032.0072	3088.7623	3089.4512	3112.9329	3135.0616	3140.6526	3223.2714
CC1CC1OCC=O	C[C@H]1C[C@H]1OCC=O	
InChI=1S/C6H10O2/c1-5-4-6(5)8-3-2-7/h2,5-6H,3-4H2,1H3	InChI=1S/C6H10O2/c1-5-4-6(5)8-3-2-7/h2,5-6H,3-4H2,1H3/t5-,6+/m0/s1
