15
gdb 123993	4.62987	1.16185	0.9949	4.5302	74.3	-0.2335	-0.0668	0.1667	1147.598	0.115298	-412.966909	-412.959857	-412.958913	-412.999043	26.121	
C	 1.0741147295	 0.8867191838	-0.1439961587	-0.229075
N	 0.0292576343	 0.1904054749	-0.8897592332	-0.308192
C	-0.278231566	 0.6760756245	 0.4646551327	-0.119941
C	-0.5046396335	-0.3474689806	 1.513215323	 0.357732
C	-0.1661736341	-1.6997391645	 1.3444083711	-0.031048
N	-0.3505224097	-2.595427525	 2.3053386857	-0.173387
N	-0.878690948	-2.1908211709	 3.4629195962	-0.186234
C	-1.2020362879	-0.9056900058	 3.5770859677	 0.097434
N	-1.047299198	 0.0543377203	 2.6588188411	-0.309026
H	 1.9042745463	 0.2627683688	 0.17492236	 0.13439
H	 1.3425797686	 1.9031332689	-0.418909463	 0.130746
H	-0.3922975198	 0.7990875777	-1.5850978701	 0.247114
H	-0.8963162802	 1.5611526392	 0.587148711	 0.108668
H	 0.2462773992	-2.061411137	 0.4091632082	 0.146423
H	-1.6418882108	-0.6144608344	 4.5270306385	 0.134396
69.7779	131.3387	194.8261	295.1517	375.2395	421.2278	570.6103	580.5754	687.2387	812.3921	815.0792	860.7655	904.8953	932.6613	960.4362	977.7902	1004.0416	1023.8078	1070.4374	1091.6642	1122.836	1157.029	1180.7234	1222.595	1245.2969	1285.6569	1327.2186	1334.1911	1430.6722	1480.1622	1511.7088	1564.855	1595.6881	3111.821	3154.5315	3178.7928	3201.7502	3203.1284	3521.2669
C1NC1C1=CN=NC=N1	C1N[C@H]1c1cnncn1	
InChI=1S/C5H6N4/c1-4(6-1)5-2-8-9-3-7-5/h2-4,6H,1H2	InChI=1S/C5H6N4/c1-4(6-1)5-2-8-9-3-7-5/h2-4,6H,1H2/t4-/m1/s1
