21
gdb 99896	2.284	1.30099	1.03161	4.0675	82.65	-0.2621	0.0293	0.2914	1273.4421	0.181807	-383.267436	-383.257314	-383.25637	-383.302266	37.582	
C	-0.0901619866	 1.5026485973	 0.121743802	-0.409585
C	-0.041568944	-0.0112939666	-0.0889120604	-0.19908
C	 0.731853324	-0.4740525564	-1.3578327514	 0.059104
N	 0.2000232274	 0.0829507236	-2.6145652653	-0.535509
C	 2.1376026518	-0.0292746622	-1.2404328251	 0.30559
N	 3.2308529498	 0.3248488681	-1.1179501003	-0.349154
C	 0.7314413956	-2.008311438	-1.4172718575	 0.033121
C	-0.3021468035	-2.7670770681	-2.2123687382	-0.290696
C	 1.1372372814	-2.7446543547	-2.6618570409	-0.263108
H	 0.9154119166	 1.9203658262	 0.2322332173	 0.14459
H	-0.5782949002	 2.0121144698	-0.7152625953	 0.108073
H	-0.6545096556	 1.7439410328	 1.0268241512	 0.123269
H	 0.4083335763	-0.4923693755	 0.7870063985	 0.113855
H	-1.0563426799	-0.4186326916	-0.1802968677	 0.103958
H	-0.815207146	 0.0729879367	-2.576531783	 0.236409
H	 0.4799808755	 1.0524882306	-2.7168946104	 0.247829
H	 1.0287967784	-2.4572413264	-0.4744766617	 0.094652
H	-0.7047589705	-3.6741152495	-1.7755418362	 0.11435
H	-1.0095090569	-2.2083265883	-2.8138469708	 0.112396
H	 1.3613042783	-2.1404941005	-3.5328585905	 0.135681
H	 1.7371166679	-3.6405435474	-2.5514231843	 0.114254
72.4582	109.0392	146.7559	156.0378	198.5797	231.8685	240.8035	290.4567	317.4302	381.6341	423.7682	477.5872	571.9578	606.2121	687.7097	783.3719	793.3721	832.8458	846.3582	892.9887	919.9516	969.3354	986.9155	1036.2367	1062.2647	1068.5276	1091.5922	1094.8059	1125.6844	1142.7078	1199.3333	1217.077	1239.5647	1280.4969	1331.8044	1362.283	1402.5888	1413.3576	1457.6544	1480.8537	1498.1507	1500.5468	1507.4238	1651.6114	2354.4284	3027.9612	3040.0155	3068.7299	3108.5511	3115.8439	3139.9329	3145.1715	3154.5784	3221.7266	3239.3391	3499.4863	3586.0994
CCC(N)(C#N)C1CC1	CC[C@@](N)(C#N)C1CC1	
InChI=1S/C7H12N2/c1-2-7(9,5-8)6-3-4-6/h6H,2-4,9H2,1H3	InChI=1S/C7H12N2/c1-2-7(9,5-8)6-3-4-6/h6H,2-4,9H2,1H3/t7-/m1/s1
