19
gdb 113017	2.31838	1.46309	1.07338	2.9747	78.14	-0.2335	-0.0306	0.2029	1187.0782	0.157587	-423.039909	-423.030894	-423.029949	-423.074367	32.721	
C	-0.1244279769	 1.479066692	-0.3709823136	-0.383339
C	-0.115590807	-0.0504089776	-0.3373081775	-0.173358
C	-1.4421674593	-0.6333698549	 0.1676143636	 0.071024
O	-2.5342197111	-0.2389401496	-0.6826494421	-0.256069
C	-3.0697051083	-1.3553892196	-1.3521904397	-0.021917
C	-2.7651394179	-1.3409548754	-2.8537016862	 0.15261
O	-1.965545782	-0.61980193	-3.3841952239	-0.232271
C	-2.4216052736	-2.5602537336	-0.7021282909	-0.126146
C	-1.4983634286	-2.1378527586	 0.1534921075	-0.081449
H	 0.8274358489	 1.8686306724	-0.7434924772	 0.110591
H	-0.9215550217	 1.8352685022	-1.0280558242	 0.143446
H	-0.2917034173	 1.8991650139	 0.6275777024	 0.10685
H	 0.0700240319	-0.4460744653	-1.3413956606	 0.116849
H	 0.6892009556	-0.4157545996	 0.3142595241	 0.087441
H	-1.6483904549	-0.2303680063	 1.1718488471	 0.083832
H	-4.1684693845	-1.3642749043	-1.2454793763	 0.099472
H	-3.3545267679	-2.0921628452	-3.4319706932	 0.071546
H	-2.6780517361	-3.5823427576	-0.9472374537	 0.116602
H	-0.8480112693	-2.7562098132	 0.7591162442	 0.114287
58.5549	77.5408	117.8742	195.3733	216.6118	259.646	273.3359	367.5805	443.725	506.567	672.4277	725.2572	764.6305	778.6286	806.3185	854.0467	878.909	947.7666	950.8459	967.6366	1001.5128	1037.3457	1045.7656	1093.1948	1132.3549	1138.5892	1160.3205	1252.6813	1290.0638	1295.7706	1336.671	1347.7802	1363.5644	1389.6063	1408.3099	1414.2344	1472.9277	1497.6006	1508.5894	1681.3827	1844.9496	2846.2003	2956.0278	2978.3971	3023.9501	3035.3468	3079.1403	3103.4547	3127.8363	3210.4247	3235.2307
CCC1OC(C=O)C=C1	CC[C@H]1O[C@@H](C=O)C=C1	
InChI=1S/C7H10O2/c1-2-6-3-4-7(5-8)9-6/h3-7H,2H2,1H3	InChI=1S/C7H10O2/c1-2-6-3-4-7(5-8)9-6/h3-7H,2H2,1H3/t6-,7-/m1/s1
