20
gdb 12791	3.4311	1.97428	1.55308	0.3614	79.87	-0.2193	0.0248	0.2441	908.334	0.179026	-311.881465	-311.874112	-311.873168	-311.912378	29.946	
C	 0.0196476032	 1.4948586906	-0.009603332	-0.462809
C	-0.0393340857	-0.0192374314	 0.0304934767	 0.347104
C	-0.8402727994	-0.6544917443	 1.1340981856	-0.327475
C	 0.6855927427	-0.7267569799	 1.1625230679	-0.095567
C	 1.3536795446	-2.0160828441	 0.8626843027	-0.042658
C	 1.1176922423	-2.7076503256	-0.2540305405	-0.078987
C	 0.1577199952	-2.2192296903	-1.308620495	-0.278775
C	 0.0504986268	-0.6816548696	-1.337455731	-0.257036
H	 0.9383440615	 1.8422074643	-0.4970303939	 0.114364
H	-0.8285085677	 1.9091306865	-0.5683967105	 0.113075
H	-0.0069528718	 1.9222960496	 0.9977790585	 0.110536
H	-1.328321981	 0.0023803274	 1.8471182322	 0.104489
H	-1.3719366596	-1.5812832425	 0.9485432052	 0.113296
H	 1.1758253652	-0.0996568966	 1.9012356409	 0.075702
H	 2.0495798657	-2.3981133503	 1.6050651998	 0.08172
H	 1.6101327018	-3.6617318276	-0.4193678287	 0.082068
H	 0.4675803199	-2.5753024712	-2.2979211667	 0.099438
H	-0.8351228623	-2.6611164496	-1.1426302769	 0.110001
H	-0.8061478731	-0.3827304212	-1.954318915	 0.093032
H	 0.9434582118	-0.2822248941	-1.8371601394	 0.098482
173.5085	201.8874	231.8851	299.5694	360.3976	367.3386	439.8649	485.8271	562.8394	658.5881	718.4281	747.1311	801.26	852.6459	886.5709	923.4291	926.8889	961.8914	986.974	1009.9625	1042.1197	1048.7227	1059.59	1094.5653	1108.6013	1118.8864	1189.5679	1216.4643	1242.5224	1276.4479	1319.8444	1353.7754	1376.7563	1411.1555	1413.7155	1427.5649	1479.3016	1483.6818	1489.9443	1496.9937	1508.4703	1710.8006	3003.2924	3009.8157	3018.6492	3046.3911	3053.8672	3077.1808	3095.3076	3127.3879	3142.7295	3153.8515	3174.7419	3213.5903
CC12CC1C=CCC2	C[C@]12C[C@H]1C=CCC2	
InChI=1S/C8H12/c1-8-5-3-2-4-7(8)6-8/h2,4,7H,3,5-6H2,1H3	InChI=1S/C8H12/c1-8-5-3-2-4-7(8)6-8/h2,4,7H,3,5-6H2,1H3/t7-,8+/m1/s1
