16
gdb 39699	3.90542	1.69607	1.5541	2.912	70.16	-0.2304	0.0604	0.2908	873.8063	0.125988	-400.656457	-400.65043	-400.649486	-400.686641	25.394	
C	-0.0669174349	 1.4876048418	 0.0091343745	-0.268137
O	 1.1516673164	 0.7290096503	-0.016612142	-0.284546
C	-0.085005971	 0.0239883384	 0.0097662045	 0.526559
C	-0.4178438787	-0.8750747425	 1.1601259754	-0.199062
C	-1.6172475268	-1.7412438373	 0.7973992437	-0.12391
C	-0.2276974697	-2.3000375708	 0.7021837625	-0.016349
N	-0.2495829527	-2.2931903732	-0.8178573432	-0.159424
C	-1.6241379157	-1.7088217055	-0.745869093	-0.049636
C	-0.4816067122	-0.8473426681	-1.1415978578	-0.17521
H	-0.2607882366	 2.0303533069	 0.9334097372	 0.116675
H	-0.2951905559	 2.0353509248	-0.9044472103	 0.116809
H	-0.2310255068	-0.5964051995	 2.1881520142	 0.103983
H	-2.4374615385	-1.9724413702	 1.461079415	 0.100034
H	 0.2932247241	-3.0819076281	 1.2366013461	 0.105558
H	-2.4227051478	-2.0399609918	-1.3990452267	 0.10036
H	-0.2909395031	-0.5597053754	-2.1681507501	 0.106298
155.754	273.7761	324.1441	483.0087	586.7776	596.6044	707.8136	739.8616	760.1916	776.4078	834.3608	849.9468	877.8141	890.3953	923.2764	929.3628	959.9999	972.6214	1005.5734	1011.7217	1035.6729	1042.6791	1057.0353	1078.6991	1122.9099	1156.2784	1168.9616	1209.0464	1237.6937	1281.9558	1294.8291	1312.7514	1366.0172	1459.4357	1540.9632	3080.0868	3165.5255	3179.5034	3199.7281	3209.8821	3215.3685	3227.924
C1OC11C2C3C2N2C3C12	C1O[C@]21[C@H]1[C@@H]3[C@H]1N1[C@@H]3[C@@H]21	
InChI=1S/C7H7NO/c1-7(9-1)3-2-4(3)8-5(2)6(7)8/h2-6H,1H2	InChI=1S/C7H7NO/c1-7(9-1)3-2-4(3)8-5(2)6(7)8/h2-6H,1H2/t2-,3+,4-,5+,6+,7-,8?/m1/s1
