21
gdb 113762	2.45593	1.09927	0.89656	3.0179	79.47	-0.2491	-0.02	0.2291	1410.4401	0.179409	-424.220846	-424.210489	-424.209545	-424.257093	36.688	
C	 0.15271009	 1.5769892835	 0.0191515249	-0.378361
C	-0.3935813404	 0.1916376192	-0.3493206086	-0.230062
C	 0.4793783947	-0.501948099	-1.3670818702	 0.078375
O	 1.7313971	-1.0362964448	-0.913487347	-0.254727
C	 0.7336443581	-1.9522879062	-1.3968637012	 0.030389
C	 0.1368197366	-2.9348973514	-0.3861803279	-0.10806
C	 0.2049818923	-4.3795158278	-0.9113121805	-0.424872
C	 0.8992368499	-2.8406563726	 0.9303460424	 0.181639
O	 0.4201549044	-2.4778066845	 1.9726440149	-0.255526
H	 1.1538150833	 1.4913991026	 0.4516455227	 0.136398
H	 0.2204539041	 2.2258129547	-0.8610568554	 0.113228
H	-0.4930424146	 2.070385568	 0.7509203988	 0.117654
H	-0.4823400732	-0.4231418687	 0.5507028145	 0.132915
H	-1.4016536535	 0.287875533	-0.7745171084	 0.099763
H	 0.5663194721	 0.0239013036	-2.3215755496	 0.088545
H	 0.9885785312	-2.3940716356	-2.3619958392	 0.0893
H	-0.9038097573	-2.6717069669	-0.1719291811	 0.103023
H	 1.2431283635	-4.6944299773	-1.0652643518	 0.130057
H	-0.2630714431	-5.0769620799	-0.2109112679	 0.132009
H	-0.3150832532	-4.4638099663	-1.8702823599	 0.129192
H	 1.9602474051	-3.1675227236	 0.8637773206	 0.08912
39.9672	75.834	94.9704	140.7314	193.9599	221.1513	231.8938	258.2246	293.9812	344.5187	447.0853	495.9033	543.8157	564.8831	760.2365	802.2962	840.0998	884.2928	934.7741	946.5878	978.5628	1017.8992	1044.6753	1085.8321	1102.0535	1139.1952	1148.8989	1174.122	1185.3304	1275.3144	1299.4583	1311.6095	1327.2155	1351.0742	1395.6834	1406.3462	1410.2734	1429.7202	1476.6674	1483.077	1497.3346	1498.9071	1499.8427	1509.2042	1832.1895	2892.3569	3025.4005	3034.8497	3037.1033	3060.1843	3070.5399	3088.5432	3094.0189	3105.366	3112.1401	3116.0118	3119.2047
CCC1OC1C(C)C=O	CC[C@H]1O[C@H]1[C@@H](C)C=O	
InChI=1S/C7H12O2/c1-3-6-7(9-6)5(2)4-8/h4-7H,3H2,1-2H3	InChI=1S/C7H12O2/c1-3-6-7(9-6)5(2)4-8/h4-7H,3H2,1-2H3/t5-,6+,7-/m0/s1
