15
gdb 31936	5.04797	0.95505	0.8078	4.0731	77.52	-0.2206	-0.0475	0.1731	1356.8685	0.112988	-453.992185	-453.983711	-453.982767	-454.025971	29.402	
C	 0.0708907395	 1.3821091855	 0.0932567556	-0.32664
N	-0.0680151642	-0.0549867229	-0.0654112359	-0.388932
C	-1.2720326757	-0.653289749	-0.0205975351	 0.527213
N	-2.4533907113	-0.071419784	-0.0199142843	-0.352661
C	-3.3234673259	-1.1314796386	-0.0117684765	-0.144427
C	-2.6462981308	-2.3181435966	-0.000096561	 0.217689
O	-1.2914255197	-1.9962635922	-0.0046345049	-0.215058
C	-3.0720267963	-3.6936491818	 0.0192716218	 0.053319
O	-2.3466004991	-4.6668199583	 0.0333365684	-0.297844
H	 1.0392936258	 1.69036051	-0.3056524426	 0.136907
H	-0.7208066692	 1.8785090081	-0.4698089975	 0.171537
H	-0.0019242371	 1.6974066627	 1.1416899273	 0.136455
H	 0.7283180013	-0.6474300734	 0.1041505105	 0.26943
H	-4.3935255961	-0.9845145885	-0.0109231967	 0.140121
H	-4.1810304513	-3.7851460708	 0.0204006909	 0.07289
85.3084	94.1642	140.3769	149.2229	231.2553	235.4288	382.1508	402.3075	492.7665	514.6859	625.9981	738.8099	769.8241	790.1134	898.4816	970.6876	990.5194	1011.4697	1109.291	1151.5522	1166.5736	1214.7331	1242.9032	1317.9124	1342.3595	1415.4095	1453.1492	1488.6264	1507.7006	1532.5024	1612.2526	1668.6027	1775.9532	2882.6975	3026.0366	3108.0156	3152.0151	3252.0612	3652.1203
CNC1=NC=C(O1)C=O	CNc1ncc(o1)C=O	
InChI=1S/C5H6N2O2/c1-6-5-7-2-4(3-8)9-5/h2-3H,1H3,(H,6,7)	InChI=1S/C5H6N2O2/c1-6-5-7-2-4(3-8)9-5/h2-3H,1H3,(H,6,7)
