21
gdb 117898	3.58195	0.75914	0.68069	2.7326	86.61	-0.2595	-0.0552	0.2042	1717.1874	0.17867	-387.080985	-387.06996	-387.069016	-387.118168	38.83	
C	 0.0198868755	 1.6138583264	 0.0558779279	-0.378789
C	 0.0129810207	 0.0829669952	 0.0116259538	-0.188494
C	-1.4033675615	-0.4992278985	 0.0872770122	-0.162845
C	-1.4615825325	-2.0289578457	-0.0263538669	-0.098566
C	-0.8157166729	-2.7617117726	 1.1690127824	-0.404424
C	-2.9020651021	-2.5077033537	-0.1941379958	 0.220412
O	-3.869473035	-1.7916681117	-0.0522753771	-0.29516
C	-3.0612918885	-3.9139424615	-0.5466272393	 0.262971
C	-3.1866120848	-5.0711646207	-0.8546460347	-0.399932
H	 1.0384053291	 2.0101581366	-0.0017368114	 0.110732
H	-0.5511492327	 2.0365878959	-0.7780628324	 0.116701
H	-0.4303218181	 1.9840657033	 0.9835069112	 0.116649
H	 0.4978141557	-0.2583870324	-0.9131891559	 0.093168
H	 0.6246628993	-0.3030561021	 0.835893805	 0.098099
H	-1.8840682081	-0.1923767653	 1.0242527181	 0.106224
H	-2.0160193592	-0.0655856685	-0.7113713336	 0.107093
H	-0.9289827562	-2.3490238469	-0.9346013004	 0.096745
H	-1.2922068268	-2.461207123	 2.1083266195	 0.127791
H	-0.9122322201	-3.8459938592	 1.0687061168	 0.131187
H	 0.2487293721	-2.5249829399	 1.2369823166	 0.128068
H	-3.3151584235	-6.0911822455	-1.1251196559	 0.212371
36.1266	60.6347	94.9508	110.5094	175.3832	192.0214	236.3208	247.857	284.9794	323.8392	351.707	376.0815	518.0447	608.3983	643.0076	699.3928	727.4455	740.6254	787.3452	853.3172	877.5654	934.0963	1001.1025	1030.4568	1048.038	1084.6978	1113.0589	1145.723	1200.3914	1266.9631	1290.2689	1317.5589	1333.0054	1363.9796	1398.8367	1405.4297	1414.3802	1477.4629	1492.4702	1498.8229	1500.3824	1503.404	1511.1683	1765.4646	2207.5414	2998.8746	3014.0459	3029.9027	3036.2802	3041.2978	3046.8166	3075.7767	3098.7873	3102.7705	3113.6977	3124.5996	3494.0547
CCCC(C)C(=O)C#C	CCC[C@@H](C)C(=O)C#C	
InChI=1S/C8H12O/c1-4-6-7(3)8(9)5-2/h2,7H,4,6H2,1,3H3	InChI=1S/C8H12O/c1-4-6-7(3)8(9)5-2/h2,7H,4,6H2,1,3H3/t7-/m1/s1
