19
gdb 65625	3.20692	1.27148	1.16171	3.0399	79.52	-0.2652	0.0256	0.2908	1128.9388	0.160833	-382.052959	-382.044595	-382.043651	-382.086003	32.244	
N	-0.0732500481	 1.3922881924	 0.1925235472	-0.540509
C	-0.0006668972	-0.0543511689	 0.0257273772	 0.139653
C	 0.3408568283	-0.8546672112	 1.3302145901	-0.273785
C	-0.9185781976	-1.7443100697	 1.1367440804	-0.001116
C	-2.1560498904	-1.3008491108	 1.9510923607	-0.222945
C	-2.4911419877	-0.2436141201	 0.8537948619	-0.245625
C	-1.3651099479	-0.8209357525	-0.0500720806	-0.046854
C	 0.8725408155	-0.4481451308	-1.0922129425	 0.228433
N	 1.5588391758	-0.7214603978	-1.9831089961	-0.34799
H	 0.8488369024	 1.7599333794	 0.4132161363	 0.24188
H	-0.3566726208	 1.8331431914	-0.6792799008	 0.241127
H	 1.299242686	-1.3744765145	 1.3041086232	 0.123507
H	 0.3041659534	-0.2124557672	 2.2140007082	 0.11325
H	-0.7304990381	-2.8113982445	 1.0212289094	 0.076147
H	-2.9136546176	-2.0857232653	 2.0205718802	 0.104008
H	-1.960252215	-0.9236073976	 2.9592289543	 0.099194
H	-3.4915355324	-0.3314078744	 0.4258214696	 0.102937
H	-2.3223543761	 0.7942662821	 1.1445506539	 0.12653
H	-1.6554884425	-1.19109648	-1.0328066326	 0.082159
61.6862	143.6714	174.1315	221.3885	270.7748	330.8764	387.4201	433.012	495.3685	572.943	637.9959	727.0008	738.1044	769.8306	837.3205	856.02	886.5888	905.2688	929.9652	951.7485	964.6597	1000.1797	1039.9275	1095.3191	1140.4852	1156.1406	1166.5801	1213.715	1236.774	1246.6052	1260.9903	1270.5301	1290.8262	1299.2799	1305.8399	1323.7194	1471.941	1476.7838	1494.9363	1651.8979	2334.3323	3051.8045	3067.7226	3077.1234	3097.4075	3107.4388	3115.3933	3133.8094	3137.2858	3479.0965	3558.0301
NC1(CC2CCC12)C#N	N[C@]1(C[C@H]2CC[C@@H]12)C#N	
InChI=1S/C7H10N2/c8-4-7(9)3-5-1-2-6(5)7/h5-6H,1-3,9H2	InChI=1S/C7H10N2/c8-4-7(9)3-5-1-2-6(5)7/h5-6H,1-3,9H2/t5-,6-,7-/m1/s1
