23
gdb 100775	2.93923	0.85043	0.80858	0.3732	81.96	-0.2569	0.0743	0.3312	1561.8767	0.20355	-425.405745	-425.394781	-425.393837	-425.442221	39.819	
C	-0.0143249822	 1.5560841616	 0.2099154596	-0.416649
C	 0.0027902053	 0.0419712203	-0.0414150516	 0.03796
C	-1.4163355342	-0.5301021697	-0.0059037378	-0.087473
O	-1.9677787713	-0.2869868564	 1.2826228112	-0.426897
C	 0.6918003008	-0.3543782571	-1.3659254285	 0.099924
O	 0.0055358744	 0.1867711268	-2.4987264311	-0.44383
C	 2.1699774187	-0.0288351326	-1.3961613435	-0.006903
C	 3.1745310706	-1.0211263189	-0.8639071051	-0.266272
C	 3.074210393	-0.7682163611	-2.3468626269	-0.273066
H	 0.9928413091	 1.9640857522	 0.3352169884	 0.110173
H	-0.5007533882	 2.0876547596	-0.6169210745	 0.101827
H	-0.5829440273	 1.7719358755	 1.1163953504	 0.139428
H	 0.5649069116	-0.4392125203	 0.7701847425	 0.083031
H	-2.0168895609	-0.0601977805	-0.7977779788	 0.098617
H	-1.3810788765	-1.6113772077	-0.2176313332	 0.078565
H	-2.8979013876	-0.5280617947	 1.25986555	 0.28538
H	 0.5868068572	-1.4413177003	-1.4859999727	 0.07395
H	 0.2485090456	 1.1151918223	-2.5727496292	 0.279316
H	 2.4070088291	 1.0198485226	-1.2313195545	 0.079214
H	 4.0386623967	-0.6428264704	-0.3293079284	 0.111734
H	 2.799247554	-1.9658363477	-0.4836126586	 0.113005
H	 2.6256493897	-1.5375677908	-2.9663134599	 0.118908
H	 3.8740219925	-0.2189672525	-2.831008468	 0.110057
52.4513	67.4778	105.6185	147.9021	201.4688	216.1693	242.3105	252.464	269.9846	302.3876	324.6913	388.6274	449.4263	504.3436	663.4285	769.0446	818.0792	838.3021	865.1079	924.9086	928.0718	946.3226	989.5031	996.0282	1056.9024	1069.3478	1076.9909	1096.0338	1105.4761	1135.8756	1147.3193	1173.816	1196.567	1227.5699	1247.561	1270.0672	1279.7319	1310.1197	1330.3022	1374.9937	1400.1006	1412.5169	1436.9718	1455.3275	1470.9141	1494.6074	1506.3461	1512.7584	1523.7088	2964.5055	3012.4195	3015.1667	3029.8613	3035.1558	3097.9019	3129.3527	3130.3427	3133.7956	3136.7353	3207.8802	3223.1245	3819.5542	3836.1141
CC(CO)C(O)C1CC1	C[C@@H](CO)[C@@H](O)C1CC1	
InChI=1S/C7H14O2/c1-5(4-8)7(9)6-2-3-6/h5-9H,2-4H2,1H3	InChI=1S/C7H14O2/c1-5(4-8)7(9)6-2-3-6/h5-9H,2-4H2,1H3/t5-,7+/m0/s1
