14
gdb 124023	3.79739	1.70041	1.18313	3.8179	69.63	-0.2085	-0.009	0.1994	948.657	0.106523	-429.064363	-429.057848	-429.056904	-429.095512	24.768	
C	-0.0099540354	 1.5021957634	 0.1860177985	-0.278586
N	 1.3101879132	 1.9697129586	-0.2554280203	-0.300854
C	 2.3328756734	 1.1737164465	-0.68560153	 0.088629
N	 2.3476446062	-0.1116989424	-0.790534817	-0.34906
C	 1.1474261628	-0.683487448	-0.4019059072	 0.319244
N	 0.8695692905	-1.9898905122	-0.4033689241	-0.291977
N	-0.3835068483	-2.0187500079	 0.0466004156	-0.092839
N	-0.9525344613	-0.8497265617	 0.3431089168	-0.295003
C	 0.0140466907	 0.0135923399	 0.0613623942	 0.271625
H	-0.2004689802	 1.8205539589	 1.2214031028	 0.130783
H	-0.7998471598	 1.9496100858	-0.4348768496	 0.130838
H	 1.4768570524	 2.961570657	-0.2371644255	 0.255427
H	 3.2258814371	 1.7312079841	-0.9645346117	 0.119617
H	-0.8805186413	-2.8863387221	 0.1583381676	 0.292157
82.2329	239.9792	268.6925	426.9007	452.9375	453.3335	510.399	583.2598	635.3223	705.5871	762.6131	785.0359	935.3879	944.5415	963.5911	994.1305	1049.924	1170.6297	1178.1707	1197.2942	1222.0494	1270.4218	1327.0574	1402.4547	1412.8147	1455.0269	1513.9411	1524.6384	1561.5792	1591.6532	1669.3513	2983.4245	3000.1515	3147.2886	3653.9518	3682.6108
C1NC=NC2=NNN=C12	C1NC=Nc2n[nH]nc12	
InChI=1S/C4H5N5/c1-3-4(6-2-5-1)8-9-7-3/h2H,1H2,(H2,5,6,7,8,9)	InChI=1S/C4H5N5/c1-3-4(6-2-5-1)8-9-7-3/h2H,1H2,(H2,5,6,7,8,9)
