22
gdb 53283	2.43486	0.91142	0.76315	1.154	92.58	-0.2316	0.0445	0.2761	1633.4921	0.191897	-367.173449	-367.162507	-367.161563	-367.210973	38.76	
C	 0.1821896474	 1.4359862568	-0.8972962569	-0.500161
C	 0.0983670323	 0.0272520572	-0.5408643146	 0.084792
C	 0.0328774039	-1.1355752242	-0.2318128098	 0.137711
C	-0.0329371421	-2.535045142	 0.090722996	-0.268916
N	-0.1991943192	-2.9152128677	 1.5195365876	-0.334229
C	-1.2829473507	-3.2038706591	 0.5768359426	 0.008301
C	-2.5879959828	-2.4611708015	 0.7755630284	 0.034656
C	-3.393107791	-2.4311430724	-0.530414391	-0.394215
C	-3.3858683208	-3.0847437351	 1.9285628513	-0.392378
H	 1.1460716146	 1.6718426118	-1.3619327038	 0.148065
H	-0.6050830214	 1.7189070641	-1.6050166189	 0.14679
H	 0.0771363387	 2.0735720711	-0.0124966302	 0.151334
H	 0.6320425886	-3.1607773266	-0.5022324766	 0.101527
H	 0.348403424	-3.7509528971	 1.7083033457	 0.231374
H	-1.4018256408	-4.2409114356	 0.2568410337	 0.077251
H	-2.3306523466	-1.4321477341	 1.0507875736	 0.090687
H	-4.3313707546	-1.8827245557	-0.3984643521	 0.110328
H	-2.8265275541	-1.9465569439	-1.3314036613	 0.122402
H	-3.648263395	-3.445206299	-0.8620512544	 0.106167
H	-2.7951606405	-3.0888489128	 2.8492621851	 0.125983
H	-4.3081766787	-2.5251316831	 2.1154329268	 0.108597
H	-3.6679580612	-4.1201340611	 1.7003094889	 0.103933
26.6761	52.6996	70.2517	132.5716	183.2205	226.6925	232.495	252.3642	323.6695	325.1592	341.5817	422.8362	469.4866	536.2041	597.6218	722.64	799.6529	867.1636	900.6972	925.4821	929.2773	966.6316	969.5064	1043.0532	1052.7346	1053.9898	1115.0514	1139.3044	1154.5194	1190.8371	1212.8903	1242.8896	1270.7732	1323.7644	1343.6424	1394.675	1407.3427	1414.4097	1418.3308	1461.1467	1477.3577	1478.8786	1489.6168	1491.7732	1503.9749	1513.4575	2368.8493	3022.624	3025.7836	3026.214	3046.6609	3084.4597	3085.4501	3086.7069	3087.9111	3095.5955	3107.2264	3111.0932	3115.739	3499.6488
CC#CC1NC1C(C)C	CC#C[C@H]1N[C@H]1C(C)C	
InChI=1S/C8H13N/c1-4-5-7-8(9-7)6(2)3/h6-9H,1-3H3	InChI=1S/C8H13N/c1-4-5-7-8(9-7)6(2)3/h6-9H,1-3H3/t7-,8+/m1/s1
