19
gdb 113262	4.62215	0.7491	0.70791	1.5469	72.93	-0.2525	-0.0294	0.2231	1587.9544	0.15533	-460.148485	-460.1382	-460.137256	-460.185066	35.835	
C	-0.1322438391	 1.6871139379	 0.1062937829	-0.464902
C	-0.1625828655	 0.1782478276	 0.2328694645	 0.358697
C	-1.324191929	-0.4954997882	-0.4916781996	-0.339859
C	-1.1999762781	-0.3574675739	-1.9980423978	 0.159627
O	-2.0667216468	 0.0625990669	-2.7203398241	-0.239925
O	 1.0947479799	-0.5008439445	 0.0495561891	-0.304788
C	 0.4745870869	-0.5476930453	 1.3485178735	-0.01873
C	 1.2701220394	 0.0697380808	 2.4723199948	-0.09506
O	 2.3754244573	-0.7513119337	 2.8107216663	-0.41375
H	 0.7762296715	 2.1106734505	 0.5346790243	 0.135191
H	-0.1765314851	 1.9811888513	-0.9477406218	 0.140369
H	-0.9989629829	 2.1310448485	 0.6072398004	 0.132601
H	-1.3118530724	-1.5679668755	-0.2605001554	 0.127524
H	-2.2859660254	-0.0798169314	-0.177168002	 0.123684
H	-0.2182293029	-0.6884375355	-2.4025745299	 0.097494
H	 0.068972268	-1.5302535515	 1.5991654317	 0.095837
H	 1.5916326071	 1.0865583163	 2.2123396786	 0.095323
H	 0.6486028842	 0.1331767954	 3.372320017	 0.116439
H	 2.9070699529	-0.8462208156	 2.0121498875	 0.294227
47.536	50.2756	72.1875	144.9032	164.271	193.9047	260.2254	304.7741	368.8564	395.825	409.1883	470.401	501.1122	610.6341	701.2239	802.2837	842.2092	891.9807	938.8294	977.8315	1029.8498	1059.3522	1069.8326	1112.4092	1117.4442	1129.8725	1189.7382	1221.6822	1263.3256	1300.141	1346.3123	1377.9402	1417.9607	1419.7127	1421.4939	1450.1924	1464.7994	1491.4352	1493.5525	1507.748	1832.0945	2896.7119	3018.8312	3035.425	3043.4629	3072.8761	3092.852	3100.7921	3104.7963	3149.2203	3801.6202
CC1(CC=O)OC1CO	C[C@@]1(CC=O)O[C@H]1CO	
InChI=1S/C6H10O3/c1-6(2-3-7)5(4-8)9-6/h3,5,8H,2,4H2,1H3	InChI=1S/C6H10O3/c1-6(2-3-7)5(4-8)9-6/h3,5,8H,2,4H2,1H3/t5-,6-/m0/s1
