16
gdb 27220	3.40147	1.56609	1.08087	1.6989	79.78	-0.1778	-0.0003	0.1775	1060.1403	0.126887	-400.78066	-400.773431	-400.772487	-400.812068	28.678	
N	 0.1011213794	 1.3789703422	 0.1583460829	-0.596115
C	-0.060505924	 0.002330513	 0.0508924322	 0.211552
C	-1.1252217701	-0.8367776378	 0.0262714284	 0.157926
C	-2.6268320746	-0.9053783423	 0.0245991641	-0.436036
C	-2.8507909227	-2.413273608	-0.0145776045	-0.077061
C	-1.6965458521	-3.106416101	-0.0296068842	-0.209005
C	-0.5808681884	-2.1711648643	-0.003313383	 0.27699
C	 0.7686599668	-2.0595129594	 0.004855655	-0.210352
O	 1.0993493507	-0.7144910819	 0.0386712236	-0.189256
H	 0.9745025481	 1.692942691	-0.2461842051	 0.254099
H	-0.675224538	 1.8924554127	-0.2363251656	 0.253203
H	-3.0900452799	-0.4580389546	 0.9155937385	 0.122336
H	-3.0944829896	-0.4119215845	-0.8399950616	 0.115098
H	-3.8430021236	-2.8482696142	-0.0277626384	 0.096252
H	-1.6091784327	-4.1850837879	-0.0559121658	 0.099708
H	 1.6041563007	-2.736915963	-0.0086316965	 0.130661
158.4027	170.3961	247.379	278.5953	326.7851	460.9745	531.2125	599.7328	621.5111	640.5737	658.3799	683.0562	740.6708	765.5738	803.5124	848.4206	929.0903	955.1026	964.0195	992.5339	1065.8365	1111.3422	1137.1133	1151.1016	1205.9306	1264.1148	1290.0633	1317.1174	1358.2978	1426.8773	1464.2528	1608.0339	1629.6719	1652.3748	1722.1649	3000.0103	3019.6766	3200.3602	3224.5775	3290.1042	3541.5179	3640.4253
NC1=C2CC=CC2=CO1	Nc1c2CC=Cc2co1	
InChI=1S/C7H7NO/c8-7-6-3-1-2-5(6)4-9-7/h1-2,4H,3,8H2	InChI=1S/C7H7NO/c8-7-6-3-1-2-5(6)4-9-7/h1-2,4H,3,8H2
