21
gdb 113981	3.25869	0.73529	0.6448	3.3223	84.66	-0.2375	0.0339	0.2715	1755.376	0.181713	-383.259589	-383.249603	-383.248659	-383.295509	35.813	
C	-0.2378019562	 1.6068646068	 0.3149256203	-0.372139
C	-0.1035097872	 0.1145715116	 0.6100867662	-0.12605
N	-1.3371071135	-0.578738081	 0.2496716886	-0.07477
C	-1.4636830735	-1.0630018453	-1.1201302354	-0.269262
C	-1.3484807368	-2.024934526	 0.012727973	 0.009667
C	-0.134288271	-2.9199693652	 0.1579996535	-0.2204
C	 0.0930480401	-3.3431199481	 1.6269069432	-0.337225
C	 1.218873795	-4.2619414535	 1.776317216	 0.256748
N	 2.1137732906	-4.9867333644	 1.8724806741	-0.303479
H	 0.6649257865	 2.1435253983	 0.621814267	 0.114616
H	-0.3873830599	 1.7795536133	-0.7558014101	 0.120492
H	-1.0948119864	 2.0273499954	 0.8479010746	 0.129456
H	 0.7832714401	-0.2800004575	 0.0864959324	 0.085681
H	 0.0636358133	-0.0345722257	 1.6841517334	 0.102562
H	-2.4171955809	-0.8884359677	-1.6116540199	 0.118336
H	-0.5946749395	-0.9710396718	-1.7728618935	 0.108194
H	-2.2676311001	-2.4928033142	 0.3682824375	 0.091998
H	-0.2854587191	-3.8192631473	-0.4495687537	 0.127476
H	 0.7679997374	-2.4363948196	-0.22479651	 0.124617
H	 0.2749521009	-2.4624712623	 2.2522086186	 0.158944
H	-0.8075774698	-3.8269956759	 2.0226801843	 0.154535
49.085	86.3779	90.8693	127.5122	201.4897	211.5437	243.7726	343.42	356.1075	399.6281	435.2287	531.141	552.3344	734.7629	765.0363	813.6883	821.8853	914.1502	938.1	971.7812	1013.8659	1028.1825	1051.1916	1090.3397	1103.097	1124.0543	1146.7674	1153.3554	1199.1879	1220.8206	1278.5394	1307.0933	1312.8839	1337.576	1364.743	1380.9117	1409.8732	1427.772	1466.4961	1487.3186	1488.9277	1490.9607	1505.5483	1516.906	2362.6809	2959.2107	3039.5546	3042.182	3043.8328	3053.053	3079.7944	3082.0652	3089.6173	3110.7667	3111.4807	3123.1735	3170.9569
CCN1CC1CCC#N	CCN1C[C@H]1CCC#N	
InChI=1S/C7H12N2/c1-2-9-6-7(9)4-3-5-8/h7H,2-4,6H2,1H3	InChI=1S/C7H12N2/c1-2-9-6-7(9)4-3-5-8/h7H,2-4,6H2,1H3/t7-,9?/m1/s1
