18
gdb 16706	2.95382	2.17202	1.75757	2.9171	70.98	-0.2315	-0.0017	0.2298	839.8189	0.155467	-347.815782	-347.80881	-347.807866	-347.846705	27.597	
C	-0.0836958147	 1.5252831127	 0.0178929993	-0.415705
C	 0.0552553196	 0.0044403022	 0.0463016082	 0.033167
C	 0.9966388608	-0.5826498486	-1.075427372	-0.238747
C	 2.0294203354	-1.3333232621	-0.2062054834	-0.132754
C	 1.1046086781	-2.0167463925	 0.8574036369	-0.254687
C	 0.7809983857	-0.5501535118	 1.2990655486	-0.136881
C	 2.2522824916	-0.300057593	 0.9159134554	 0.440093
O	 3.1818448143	 0.2939321907	 1.3756886616	-0.331626
H	 0.893097897	 2.0152916377	 0.0964862641	 0.131274
H	-0.5506207356	 1.8569896512	-0.9154496428	 0.116409
H	-0.7033015818	 1.8832966888	 0.8470181788	 0.116755
H	-0.9397428537	-0.4480815037	-0.022676123	 0.075885
H	 0.4681030611	-1.2588505167	-1.7528812379	 0.104111
H	 1.4574931938	 0.2058439724	-1.6779048961	 0.109737
H	 2.8517441653	-1.8490805754	-0.6975738353	 0.082103
H	 0.2657512233	-2.597605684	 0.4656506839	 0.104913
H	 1.6536482605	-2.5867200799	 1.6087945787	 0.116472
H	 0.3790647293	-0.2996526482	 2.2790586247	 0.079482
125.7176	176.4792	240.5709	305.3423	406.1544	443.0661	470.9741	610.3178	636.3141	775.3637	797.9275	817.0341	837.8965	895.0456	922.4734	961.8311	986.5682	1004.2246	1030.6678	1039.7304	1047.3548	1099.0124	1114.647	1157.65	1179.0011	1213.0002	1222.2265	1247.3962	1253.458	1318.4804	1322.8653	1369.1917	1415.8299	1491.7536	1496.7342	1500.1754	1510.2135	1898.3971	3028.6882	3037.5739	3054.0435	3065.9633	3095.5485	3099.3177	3101.7043	3132.8923	3139.7773	3145.4467
CC1CC2CC1C2=O	C[C@H]1C[C@@H]2C[C@H]1C2=O	
InChI=1S/C7H10O/c1-4-2-5-3-6(4)7(5)8/h4-6H,2-3H2,1H3	InChI=1S/C7H10O/c1-4-2-5-3-6(4)7(5)8/h4-6H,2-3H2,1H3/t4-,5+,6+/m0/s1
