20
gdb 7205	5.8872	0.71283	0.66221	1.3464	68.17	-0.2581	0.0685	0.3265	1664.1213	0.174576	-423.261808	-423.251415	-423.250471	-423.297746	36.02	
O	-0.1000004554	 1.4618271881	 0.0385302905	-0.423579
C	 0.0187751233	 0.0460064542	 0.0423794726	-0.076666
C	-1.3862307301	-0.5375228019	-0.0343096621	-0.187074
C	-1.4034835018	-2.0687415048	-0.0114857953	 0.107947
O	-0.7553804511	-2.5823566361	 1.1569021044	-0.431741
C	-2.8204157588	-2.6308668634	-0.1590050399	-0.18704
C	-2.8580595472	-4.1529393731	-0.2069978301	-0.076657
O	-4.2179691293	-4.5486801577	-0.3197538377	-0.423578
H	 0.7805210927	 1.8355372687	 0.1356320397	 0.285001
H	 0.6122017287	-0.3068254063	-0.8176564665	 0.082246
H	 0.5172027845	-0.3174263505	 0.9516945708	 0.096732
H	-1.976871214	-0.1497670519	 0.8072713164	 0.095635
H	-1.8733213765	-0.176940941	-0.9477889141	 0.107645
H	-0.7851302952	-2.4431029327	-0.8390535866	 0.086304
H	-1.2601837517	-2.281125223	 1.9215392764	 0.277589
H	-3.4421818239	-2.2877222232	 0.6795136385	 0.095628
H	-3.2816015037	-2.233403309	-1.0706310719	 0.10764
H	-2.2662410879	-4.5096446588	-1.0665525141	 0.082234
H	-2.3904246114	-4.5597461584	 0.700293081	 0.096735
H	-4.2518323513	-5.5093659191	-0.3012632318	 0.284998
67.3781	77.9708	93.2619	117.659	141.1311	241.4567	268.1778	270.9245	308.8859	310.7959	369.4735	402.0727	502.3024	592.7788	789.8619	805.8318	900.0077	972.5718	1002.1535	1040.748	1061.4637	1068.6907	1094.7918	1117.4833	1117.9282	1208.2122	1212.4164	1225.6723	1256.1616	1294.7047	1302.6875	1306.4591	1344.1824	1356.724	1392.3343	1419.4215	1457.1691	1463.2	1479.5179	1490.6665	1531.1702	1531.6312	2963.0604	2963.5137	3012.6719	3015.68	3020.1355	3020.2063	3030.0963	3067.1722	3079.1726	3788.2306	3830.899	3830.9296
OCCC(O)CCO	OCCC(O)CCO	
InChI=1S/C5H12O3/c6-3-1-5(8)2-4-7/h5-8H,1-4H2	InChI=1S/C5H12O3/c6-3-1-5(8)2-4-7/h5-8H,1-4H2
