19
gdb 75287	3.00683	1.62252	1.20437	2.0284	80.62	-0.2313	0.0156	0.2469	1061.1465	0.160611	-385.841832	-385.834628	-385.833684	-385.873148	29.493	
C	 0.0075275366	 1.5431437087	 0.0082209674	-0.492294
C	-0.0038041393	 0.0429996326	-0.0566434066	 0.326021
C	-0.01385771	-0.6595911812	-1.1912156399	-0.185872
C	-0.024589593	-2.1634686096	-1.1508332003	-0.308208
C	-0.0221836543	-2.6835620586	 0.2819862498	-0.008046
C	-0.9038209616	-1.9860570041	 1.3585163467	 0.035882
O	-0.0117410273	-2.5136874757	 2.4081484779	-0.315494
C	 0.8788263421	-1.9990659288	 1.350794772	 0.035878
C	-0.0036999864	-0.7206253754	 1.2421097864	-0.098211
H	 0.8919316736	 1.9100774077	 0.5450107071	 0.126263
H	 0.0050859448	 1.9895877473	-0.9898866282	 0.121142
H	-0.8651462729	 1.9229242027	 0.5551455659	 0.126235
H	-0.014557386	-0.1676361636	-2.1602814362	 0.082564
H	-0.9028222839	-2.5552769966	-1.6844696433	 0.11257
H	 0.8432477926	-2.5679317763	-1.6919844686	 0.112572
H	-0.0297929157	-3.7726951382	 0.3606475253	 0.078735
H	-1.9801256751	-2.0482340589	 1.5255780477	 0.089017
H	 1.9555138885	-2.0769577576	 1.5085443274	 0.089014
H	 0.0047079472	-0.1034242642	 2.1421637596	 0.072232
156.4745	186.0405	276.6352	288.5659	314.404	448.7791	523.2552	547.2921	550.2846	697.4923	729.2689	812.2174	814.4394	878.4952	887.2517	901.5972	930.6506	962.2183	986.4377	1002.2773	1029.4493	1043.941	1069.9052	1080.1733	1138.4671	1148.3258	1173.8958	1175.98	1194.0026	1253.8812	1258.183	1262.5947	1271.664	1353.7514	1380.428	1401.8579	1413.466	1473.2797	1477.4376	1489.9143	1737.4619	2999.0604	3014.2501	3018.5648	3060.3462	3094.6672	3101.2103	3103.7093	3109.6719	3115.4907	3160.8096
CC1=CCC2C3OC2C13	CC1=CC[C@@H]2[C@H]3O[C@@H]2[C@@H]13	
InChI=1S/C8H10O/c1-4-2-3-5-7-6(4)8(5)9-7/h2,5-8H,3H2,1H3	InChI=1S/C8H10O/c1-4-2-3-5-7-6(4)8(5)9-7/h2,5-8H,3H2,1H3/t5-,6+,7-,8+
