15
gdb 23508	4.55721	1.2875	1.14623	0.6022	81.1	-0.2132	-0.0707	0.1425	1038.4722	0.112859	-416.640913	-416.634054	-416.63311	-416.672016	27.452	
O	-0.2048502907	 1.3484354263	-0.146509703	-0.376741
N	-0.0634647096	-0.0393391971	-0.2261967209	-0.248144
C	-1.1314110297	-0.6338628217	 0.1621548768	 0.405979
C	-2.5084441009	-0.1498975585	 0.3194333639	-0.2063
C	-3.2669714472	-1.2411390793	 0.6218707013	 0.019774
C	-3.7510292508	-2.0789651532	-0.5609781262	-0.166419
N	-2.4864664162	-2.9221899399	-0.3237513084	-0.156552
C	-2.4145576945	-2.4267754223	 1.0680142968	-0.074606
C	-1.2402106303	-2.1258932141	 0.2333143915	-0.108046
H	 0.6284001392	 1.6621420812	-0.515091502	 0.311102
H	-2.8539806716	 0.6664006267	-0.3066977526	 0.120992
H	-4.586752019	-2.7628593599	-0.3906982988	 0.13018
H	-3.8402173795	-1.5816579444	-1.5298875361	 0.123953
H	-2.4963646996	-3.0598981325	 1.9443311781	 0.107258
H	-0.3640377896	-2.7600454011	 0.1784439496	 0.11757
123.2978	215.0149	268.0946	380.397	427.0657	439.5737	481.3377	593.2812	643.9901	678.3969	729.3137	744.527	794.1165	845.6208	885.3579	919.441	935.4846	1001.8464	1007.0973	1024.5265	1049.5748	1073.8843	1115.5549	1173.0602	1201.1234	1238.1288	1258.0704	1286.7024	1317.458	1407.9561	1503.1849	1529.1782	1691.2207	3056.7926	3123.8498	3172.3642	3183.2811	3207.8483	3812.33
ON=C1C=C2CN3C2C13	ON=C1[CH][C]2CN3[C@H]2[C@H]13	
InChI=1S/C6H6N2O/c9-7-4-1-3-2-8-5(3)6(4)8/h1,5-6,9H,2H2	InChI=1S/C6H6N2O/c9-7-4-1-3-2-8-5(3)6(4)8/h1,5-6,9H,2H2/t5-,6+,8?/m1/s1
