20
gdb 78047	2.68739	1.34088	1.21111	3.7929	80.69	-0.2291	0.0175	0.2466	1155.3913	0.16939	-403.150304	-403.140931	-403.139987	-403.183918	35.03	
C	-0.1010245959	 1.2970489571	 0.2711518312	-0.348245
N	-0.0292268044	-0.0671093201	-0.2022584957	-0.083018
C	-1.0579125611	-1.1043618203	-0.2166986831	-0.068005
C	 0.0301037878	-2.1597119217	-0.0867314634	-0.276841
C	 1.0062350771	-0.9853035082	-0.0323780376	 0.396645
O	 2.1871008731	-0.8294568732	 0.1301043111	-0.372587
C	-1.0357044912	-1.9836538735	 1.0110212762	 0.295965
C	-0.6782576639	-1.4683069041	 2.391221755	-0.462033
C	-2.0867008104	-3.081436759	 1.0188488997	-0.452002
H	 0.9237706073	 1.6573544668	 0.3930966591	 0.157003
H	-0.611540604	 1.9382269115	-0.4549968182	 0.127938
H	-0.6220745786	 1.3785658908	 1.2343494055	 0.120698
H	-1.8714684829	-1.0692633988	-0.9316788297	 0.106195
H	 0.1543454047	-3.0839502596	-0.6334477366	 0.1102
H	 0.0969772782	-0.7004659432	 2.3651783867	 0.138982
H	-1.5613042847	-1.0497259323	 2.8879662274	 0.115126
H	-0.3049353101	-2.2881286951	 3.014673692	 0.125387
H	-1.732082317	-3.9560810772	 1.5746151194	 0.127128
H	-3.0061872002	-2.7306381665	 1.5006550747	 0.122586
H	-2.3399505839	-3.4083055634	 0.0053992464	 0.118881
130.671	143.5138	149.7354	191.6767	208.5223	234.0678	255.474	302.4374	349.4228	413.3422	495.6094	529.6808	665.6758	730.0939	745.983	812.8171	839.1707	848.6437	956.961	969.7788	973.3377	1014.2299	1031.2035	1048.192	1091.248	1141.6006	1148.1205	1187.6592	1227.7889	1265.4847	1286.1466	1348.7635	1389.1933	1410.8108	1428.5271	1445.8404	1479.5979	1484.1166	1489.0455	1499.7393	1509.0766	1517.7155	1874.5068	3011.38	3027.7744	3032.7421	3073.9154	3088.7026	3093.9788	3102.9987	3124.8566	3130.7028	3181.9275	3219.2668
CN1C2C(C1=O)C2(C)C	CN1[C@H]2[C@@H](C1=O)C2(C)C	
InChI=1S/C7H11NO/c1-7(2)4-5(7)8(3)6(4)9/h4-5H,1-3H3	InChI=1S/C7H11NO/c1-7(2)4-5(7)8(3)6(4)9/h4-5H,1-3H3/t4-,5-/m0/s1
