18
gdb 102422	2.58027	0.76754	0.60954	4.5927	87.46	-0.279	-0.0437	0.2353	1776.6249	0.146017	-401.938164	-401.927874	-401.926929	-401.974482	35.715	
C	 0.0768358805	 1.5640294342	 0.0817382049	-0.397504
C	 0.0006924662	 0.0372699765	-0.0160774461	-0.184178
C	-1.448245859	-0.5137676459	-0.0388825304	-0.200998
C	-2.2285238494	-0.1150192505	-1.3197072789	-0.061092
O	-3.5663692527	-0.5546162005	-1.3041126571	-0.413916
C	-1.453375935	-1.9640670482	 0.0964179062	 0.062966
C	-1.45991538	-3.171639788	 0.1726813844	 0.063616
C	-1.4602689049	-4.5335320584	 0.2688059872	 0.202226
N	-1.4622783254	-5.6927136095	 0.3477321943	-0.334813
H	 1.1181204779	 1.8845191622	 0.1777909384	 0.125924
H	-0.3366167557	 2.059321758	-0.8013908653	 0.12914
H	-0.466572052	 1.9321964396	 0.9586104901	 0.124985
H	 0.5254569595	-0.3138264276	-0.91245356	 0.116492
H	 0.5211919207	-0.4084326326	 0.8375538798	 0.12133
H	-2.0007614885	-0.0979572609	 0.8153310378	 0.12892
H	-2.2693642502	 0.9750017928	-1.381935902	 0.122533
H	-1.679908878	-0.4839946756	-2.1999750897	 0.102208
H	-3.5651032939	-1.5183278957	-1.3147129436	 0.29216
56.7032	66.6582	112.3956	113.8226	196.1905	205.9738	225.2153	293.8366	321.0888	365.6678	433.4772	482.7236	537.3991	576.242	595.0751	700.1988	772.2626	899.5737	939.5613	982.2695	1051.01	1083.304	1108.1265	1130.2028	1179.8205	1206.2798	1258.654	1320.8525	1328.7786	1380.0759	1384.9334	1410.9601	1425.3394	1487.3733	1499.1408	1504.9568	1507.263	2258.4988	2394.8594	2988.2392	3018.8601	3038.7468	3042.4616	3077.7109	3102.7117	3109.2896	3117.8634	3801.5837
CCC(CO)C#CC#N	CC[C@@H](CO)C#CC#N	
InChI=1S/C7H9NO/c1-2-7(6-9)4-3-5-8/h7,9H,2,6H2,1H3	InChI=1S/C7H9NO/c1-2-7(6-9)4-3-5-8/h7,9H,2,6H2,1H3/t7-/m1/s1
