18
gdb 28466	3.04637	1.34363	0.94324	1.2349	83.76	-0.2196	-0.0132	0.2064	1238.6674	0.148361	-402.037415	-402.02873	-402.027786	-402.070927	32.287	
C	-0.0861451008	 1.515071723	-0.0229761769	-0.497179
C	-0.0163826109	 0.0098270427	-0.0036670686	 0.264442
C	 0.0313512749	-0.7354198777	-1.1738103585	-0.083422
N	 0.0939499441	-2.073930282	-1.2074030967	-0.372903
C	 0.1110321905	-2.7186509213	-0.0540981888	 0.360102
O	 0.174366371	-4.0711804921	-0.0952558907	-0.417065
C	 0.0680891435	-2.0986747589	 1.2091767434	 0.194065
C	 0.0920903184	-2.9180462208	 2.4695172853	-0.488979
C	 0.0038859499	-0.714923756	 1.1975023776	-0.227118
H	 0.7694281046	 1.9659291162	 0.4928998105	 0.12977
H	-0.0924953903	 1.8948964183	-1.0484279943	 0.125251
H	-0.9909952754	 1.8840891185	 0.4734882397	 0.129767
H	 0.0189941759	-0.237353567	-2.1409461089	 0.100808
H	 0.1956324313	-4.302905487	-1.0341454196	 0.294837
H	 0.9981989524	-3.5309494768	 2.5266843428	 0.138916
H	 0.0524719734	-2.2771493394	 3.3540941358	 0.117209
H	-0.7543761392	-3.6123303824	 2.5071590158	 0.138915
H	-0.0314775135	-0.1821381273	 2.1450707123	 0.092583
69.1153	124.3507	142.0571	200.4912	259.6504	305.935	362.7975	449.8651	474.4685	493.0753	548.8715	578.3845	590.3141	723.0763	791.8287	797.4483	920.0939	955.2602	980.2984	998.8767	1030.9649	1065.1726	1070.3511	1151.1504	1195.1874	1267.6391	1324.9727	1331.2555	1364.2806	1414.1	1417.1048	1444.0351	1476.5983	1479.8003	1483.9518	1503.3055	1518.9617	1639.8009	1653.405	3026.896	3033.8982	3078.4024	3087.7149	3109.4731	3116.6802	3149.2595	3155.1635	3767.3009
CC1=CN=C(O)C(C)=C1	Cc1cnc(O)c(C)c1	
InChI=1S/C7H9NO/c1-5-3-6(2)7(9)8-4-5/h3-4H,1-2H3,(H,8,9)	InChI=1S/C7H9NO/c1-5-3-6(2)7(9)8-4-5/h3-4H,1-2H3,(H,8,9)
