17
gdb 97345	5.1641	0.60077	0.56777	2.2692	79.	-0.2545	-0.0383	0.2163	1923.5408	0.133371	-455.187858	-455.17792	-455.176976	-455.224384	33.636	
C	-0.7792477738	 1.7917703438	 0.1846220527	-0.313287
N	-0.8338483639	 0.4212126479	 0.6515908421	-0.230901
C	-0.2885999491	-0.4633900822	-0.0674750273	 0.114192
N	-0.3071093731	-1.7979846255	 0.3283667884	-0.345313
C	 0.2565761478	-2.8181776826	-0.4036803219	 0.411935
O	 0.834133422	-2.639180471	-1.4572785378	-0.355629
C	 0.1245969599	-4.2053494523	 0.210623038	-0.401144
C	 1.4827166681	-4.8957565018	 0.2840459589	 0.167166
O	 1.829700578	-5.5775146936	 1.2103413194	-0.231642
H	-0.2537352978	 1.9149992721	-0.7748025138	 0.10676
H	-1.7980356396	 2.1809008529	 0.076431946	 0.132323
H	-0.2810887573	 2.4136386185	 0.9370359774	 0.132974
H	 0.2272067511	-0.3063212514	-1.018686542	 0.136215
H	-0.7727499251	-1.992994288	 1.2027084054	 0.265821
H	-0.3462463831	-4.2240423176	 1.195925677	 0.127222
H	-0.4917268414	-4.7958929542	-0.4807439124	 0.16662
H	 2.1239058273	-4.719986915	-0.60297732	 0.116687
28.7247	84.9517	99.9134	130.876	139.0966	214.2559	230.1284	324.4894	343.131	371.0286	463.7948	552.2976	602.0698	647.5094	736.891	802.085	956.9499	1005.5629	1026.0545	1048.1823	1066.1481	1129.5071	1142.9434	1157.7822	1215.69	1248.15	1304.468	1360.4744	1404.3497	1441.7768	1446.5044	1479.5218	1492.5395	1517.8562	1759.2417	1785.3129	1840.4353	2941.7326	2983.0609	3034.1009	3065.3761	3080.2518	3100.8464	3115.8959	3621.2889
CN=CNC(=O)CC=O	CN=CNC(=O)CC=O	
InChI=1S/C5H8N2O2/c1-6-4-7-5(9)2-3-8/h3-4H,2H2,1H3,(H,6,7,9)	InChI=1S/C5H8N2O2/c1-6-4-7-5(9)2-3-8/h3-4H,2H2,1H3,(H,6,7,9)
