13
gdb 14604	6.12521	0.74493	0.68136	2.2065	67.73	-0.2788	-0.0752	0.2035	1527.5019	0.092925	-398.559596	-398.550873	-398.549929	-398.595031	27.811	
N	-0.3186965461	 1.0979723059	-0.1057972856	-0.427014
C	-0.4208032985	-0.1378187418	 0.1097109493	 0.135769
O	-0.4519867061	-0.9975556571	-0.937834301	-0.167307
C	-0.6507161497	-2.3707986641	-0.6149797841	-0.247741
C	-2.0293325419	-2.6941543106	-0.2670892914	 0.142003
C	-3.1685216817	-2.9679766715	 0.0249441076	-0.003252
C	-4.5391393669	-3.2628804764	 0.3648166155	 0.026035
O	-4.9448939356	-4.3637222971	 0.6548233305	-0.221757
H	-0.2864964399	 1.6073319378	 0.7747837515	 0.236201
H	-0.4811190671	-0.6346891017	 1.0875091458	 0.095127
H	-0.3534783879	-2.9276914728	-1.5085453678	 0.170596
H	 0.0185726522	-2.681677101	 0.1997997184	 0.150802
H	-5.2094356807	-2.3806294297	 0.3392025112	 0.110538
44.5511	51.5559	79.2639	120.3703	174.3169	222.4467	337.5581	389.04	477.9653	592.0784	672.8387	818.6441	829.6795	947.1845	1017.7329	1022.2574	1039.6437	1118.8876	1146.9803	1236.5787	1315.4441	1386.3915	1419.8612	1423.6825	1468.822	1753.1334	1771.4643	2327.9791	2929.7408	3011.3535	3028.6455	3090.2641	3523.1175	44.5507	51.5542	79.2646	120.3702	174.3169	222.4468	337.5581	389.0377	477.9651	592.0784	672.8386	818.6443	829.6795	947.1847	1017.7327	1022.2573	1039.6435	1118.8879	1146.9802	1236.5786	1315.444	1386.3913	1419.8613	1423.6823	1468.8218	1753.1333	1771.4638	2327.9789	2929.7407	3011.3536	3028.6454	3090.2641	3523.1174
N=COCC#CC=O	[NH][CH]OCC#CC=O	
InChI=1S/C5H5NO2/c6-5-8-4-2-1-3-7/h3,5-6H,4H2	InChI=1S/C5H5NO2/c6-5-8-4-2-1-3-7/h3,5-6H,4H2
