15
gdb 62543	2.5257	1.40833	1.16982	3.1525	68.	-0.2652	-0.0051	0.2601	1084.8682	0.108885	-457.745657	-457.736422	-457.735478	-457.779704	33.033	
C	-0.1599074584	 1.500881865	-0.1153891672	-0.452805
C	-0.0342257437	-0.0071019561	 0.0448981198	 0.197086
O	-1.2728372062	-0.6390900398	 0.2393486265	-0.450281
C	 0.8486876074	-0.7392656225	-1.0178723631	-0.137596
O	 1.8341932616	-1.0604250188	 0.0402121019	-0.247519
C	 1.0716244298	-0.4752545434	 1.0130579509	 0.421428
O	 1.2829499252	-0.4184526868	 2.181684224	-0.33227
C	 0.3145955797	-1.9124556253	-1.6659352128	 0.378831
C	-0.1188026741	-2.8754292316	-2.237289271	-0.423675
H	 0.8073105791	 1.9673286312	-0.3260418253	 0.134224
H	-0.8523961229	 1.7277698406	-0.9308925705	 0.141137
H	-0.5511655309	 1.9413607733	 0.8072408217	 0.135896
H	-1.5811762143	-0.4181701825	 1.1260382206	 0.299179
H	 1.3150571976	-0.0626062306	-1.7387667687	 0.125721
H	-0.51023847	-3.7305047427	-2.7315928868	 0.210645
72.8429	125.7196	136.6694	193.6928	216.5054	221.5557	293.8534	329.3209	358.9988	468.3173	512.6154	637.1643	646.142	688.5467	694.4489	740.3237	804.9822	856.3621	898.6513	977.6365	1063.5158	1097.3087	1127.9676	1157.2999	1235.3005	1293.7085	1350.322	1373.5823	1406.1662	1485.8034	1487.5972	1936.7775	2247.8442	3038.7214	3079.1109	3112.066	3123.2345	3501.6564	3802.8271
CC1(O)C(OC1=O)C#C	C[C@@]1(O)[C@@H](OC1=O)C#C	
InChI=1S/C6H6O3/c1-3-4-6(2,8)5(7)9-4/h1,4,8H,2H3	InChI=1S/C6H6O3/c1-3-4-6(2,8)5(7)9-4/h1,4,8H,2H3/t4-,6+/m0/s1
