20
gdb 40350	3.76623	1.35788	1.24393	1.1097	83.29	-0.2193	0.016	0.2353	1079.0628	0.172494	-365.942763	-365.93541	-365.934466	-365.974587	30.425	
C	-0.1908774216	 1.2498200113	-0.3757935778	-0.231264
C	 1.2157237631	 1.0367693533	 0.0652264827	-0.236283
N	 0.2484977563	-0.0569862116	 0.0957220574	-0.176417
C	-0.2008574243	-0.5197638508	 1.3772755013	 0.35678
C	-0.5692190304	 0.3584042012	 2.6508192686	-0.268626
C	-1.2428430664	-0.9921769292	 3.0681157429	-0.078306
C	-1.6179187133	-1.1580143931	 1.5554780929	-0.249503
C	-0.0120279158	-1.907092952	 3.1526225307	-0.092082
C	 0.669943058	-1.5967205188	 2.0491213979	-0.116323
H	-0.8273004746	 1.8488228252	 0.2716299458	 0.11088
H	-0.4344409022	 1.3070011647	-1.4328780337	 0.115431
H	 2.0162602051	 0.9401281281	-0.6627031757	 0.115353
H	 1.5092899883	 1.4857213921	 1.0119530901	 0.115576
H	 0.2504680564	 0.7207962873	 3.2752375448	 0.092079
H	-1.2938613904	 1.1537497242	 2.4474065053	 0.091315
H	-1.9913405787	-1.0378222913	 3.8570240889	 0.064083
H	-2.4301394218	-0.4975267894	 1.2337651	 0.089141
H	-1.7591971223	-2.1718186282	 1.1754735747	 0.097042
H	 0.2100953441	-2.6191480151	 3.9346320498	 0.099136
H	 1.6010262306	-1.9755520579	 1.6530169333	 0.101986
66.0005	188.8838	216.0623	362.4395	427.5706	473.8677	532.9564	543.5725	556.734	697.8837	718.6061	807.0913	837.6466	842.1071	875.078	900.2538	906.9474	915.5619	927.101	952.0734	994.1631	1014.6549	1050.1281	1052.5096	1069.9487	1098.3671	1112.2494	1121.5496	1148.4531	1161.087	1179.8159	1197.094	1206.0602	1224.5377	1231.3462	1265.1811	1323.0041	1372.1571	1474.8976	1490.5332	1513.0178	1518.4959	1631.9402	3039.8401	3050.9045	3100.3184	3106.2749	3116.4118	3123.3698	3132.5823	3180.5684	3195.3125	3221.2266	3249.5483
C1CN1C12CC(C1)C=C2	C1CN1[C@@]12C[C@@H](C1)C=C2	
InChI=1S/C8H11N/c1-2-8(9-3-4-9)5-7(1)6-8/h1-2,7H,3-6H2	InChI=1S/C8H11N/c1-2-8(9-3-4-9)5-7(1)6-8/h1-2,7H,3-6H2/t7-,8-
