18
gdb 71789	3.05089	1.93438	1.75958	1.6795	73.76	-0.2121	0.0662	0.2783	855.1358	0.149651	-401.854987	-401.848564	-401.84762	-401.885265	27.653	
O	-0.0476443159	 1.4053410944	 0.0135856056	-0.487302
C	-0.0035382646	 0.0146479638	 0.0332488719	 0.413778
C	 0.4525347647	-0.7656828965	 1.2861463678	-0.313989
C	-0.5242707616	-1.8757976503	 0.8283977645	-0.008377
C	-1.3322166446	-0.8187763349	 0.0088303665	-0.099509
C	-0.8608651946	-1.5300959523	-1.2689099809	 0.010409
C	 0.4679306171	-0.7106076821	-1.3028567508	-0.140399
C	 1.1693071974	-2.0404564438	-0.9936416433	-0.184928
N	-0.1228756169	-2.5978398737	-0.4601394448	-0.162581
H	 0.84804538	 1.7367532828	-0.1201424667	 0.276517
H	 1.510390542	-0.9943201536	 1.4476765089	 0.092929
H	 0.0464770037	-0.2804597466	 2.1797685885	 0.107372
H	-0.9467559815	-2.5530470948	 1.5697547734	 0.080436
H	-2.3147274934	-0.4225408628	 0.2534120211	 0.075351
H	-1.4480714173	-1.8422722403	-2.1330707997	 0.070999
H	 0.7852488233	-0.0454141009	-2.1097100709	 0.061282
H	 1.4298739477	-2.5902975678	-1.9039695764	 0.107113
H	 2.0252608246	-2.0671161408	-0.3129046549	 0.100899
198.4122	268.1332	339.891	416.9188	437.1166	471.484	569.326	677.0649	715.6348	727.7606	776.6413	835.9229	842.517	884.9078	898.9128	906.4688	949.371	953.297	971.7345	998.2504	1002.2625	1060.654	1095.2145	1118.202	1141.7815	1157.7373	1176.7366	1186.3721	1210.02	1216.8897	1224.4848	1238.9964	1256.7253	1278.7715	1292.8094	1321.5572	1377.1373	1477.9843	1518.2312	3039.9743	3046.9775	3076.7869	3089.8187	3099.5755	3101.302	3109.5844	3146.4948	3786.1344
OC12CC3C1C1C2CN31	O[C@@]12C[C@H]3[C@@H]1[C@H]1[C@@H]2CN31	
InChI=1S/C7H9NO/c9-7-1-4-5(7)6-3(7)2-8(4)6/h3-6,9H,1-2H2	InChI=1S/C7H9NO/c9-7-1-4-5(7)6-3(7)2-8(4)6/h3-6,9H,1-2H2/t3-,4-,5+,6+,7+/m0/s1
