20
gdb 18956	5.88301	1.32193	1.31101	0.0976	79.39	-0.2811	0.0917	0.3728	1040.5366	0.178011	-311.79713	-311.78992	-311.788976	-311.828573	28.53	
C	 0.0675897524	 1.59196664	 0.1021878881	-0.375016
C	-0.1807218598	 0.089168219	-0.0728323804	-0.208012
C	 0.5879303193	-0.5046826137	-1.2464125186	 0.01531
C	 2.1022612312	-0.7957322694	-1.1119224795	-0.041223
C	 1.8677377334	-2.1414217101	-0.3348083926	-0.039535
C	 2.7735156692	-2.9373585019	-1.2945410178	-0.267095
C	 2.0492671968	-1.9232883193	-2.1999147612	-0.039971
C	 0.7102456328	-2.0380666583	-1.3926897325	-0.058265
H	 1.1266439034	 1.7993104398	 0.2901052124	 0.115614
H	-0.2221098	 2.1474523028	-0.7968972646	 0.112755
H	-0.5050678565	 1.9971586078	 0.9422855605	 0.109752
H	 0.0884584567	-0.4375036925	 0.851267824	 0.092109
H	-1.2543711663	-0.0875755072	-0.2225441913	 0.091663
H	 0.3192760077	 0.0102509245	-2.1798174308	 0.05431
H	 2.93197631	-0.1034238425	-0.953847788	 0.063491
H	 1.7521390928	-2.2567493814	 0.7434138932	 0.068715
H	 3.8542621917	-2.8077341238	-1.1737976334	 0.088686
H	 2.528486614	-3.9945795085	-1.4417199059	 0.088656
H	 2.1316337475	-1.7714700198	-3.2776917322	 0.065378
H	-0.074183476	-2.7802450553	-1.5571265995	 0.062677
85.9677	165.9721	188.4956	271.5488	350.5032	449.8242	511.0681	724.177	733.2076	802.0311	845.9402	847.5069	859.4225	890.1928	899.8468	912.3271	960.395	964.9247	1003.6828	1027.8416	1047.3416	1055.5677	1100.7186	1115.7815	1139.4775	1146.2943	1152.2341	1158.592	1190.9951	1191.4255	1235.3948	1243.0788	1282.1986	1293.4968	1318.0219	1349.7059	1408.1894	1418.6466	1485.7627	1499.8752	1507.03	1510.2955	3002.895	3015.4738	3029.718	3032.6715	3050.6604	3083.4443	3085.066	3088.5548	3095.8289	3097.6123	3101.5841	3109.2482
CCC1C2C3CC2C13	CC[C@H]1[C@H]2[C@@H]3C[C@H]2[C@H]13	
InChI=1S/C8H12/c1-2-4-7-5-3-6(7)8(4)5/h4-8H,2-3H2,1H3	InChI=1S/C8H12/c1-2-4-7-5-3-6(7)8(4)5/h4-8H,2-3H2,1H3/t4-,5-,6+,7-,8+
