20
gdb 81912	2.31971	1.73058	1.20708	2.4184	78.26	-0.2363	-0.0214	0.2149	1089.1351	0.171131	-403.15373	-403.145127	-403.144183	-403.186657	33.226	
C	-0.914991964	 1.1665642653	 0.1837215511	-0.396073
C	-0.012162093	-0.0562105175	 0.070681122	 0.029917
C	 0.7722393873	-0.2467927423	-1.2624791547	-0.141103
C	 0.8881974564	 0.9318969447	-2.2423677086	-0.408706
C	 2.1585781316	-0.749568849	-0.8082056683	 0.418286
O	 2.9924597218	-1.2485136033	-1.5214540783	-0.335344
C	 2.2597875042	-0.552102528	 0.6724770892	-0.145771
C	 2.0395100996	 0.8633391104	 1.1113106144	-0.24918
N	 0.9611125561	-0.1068792764	 1.2066349259	-0.097215
H	-0.3621554721	 2.1014102554	 0.0531583761	 0.11705
H	-1.7055216077	 1.136198318	-0.5720218635	 0.120451
H	-1.3859208772	 1.1877539809	 1.1705401718	 0.130736
H	-0.6339400161	-0.9465331729	 0.2153207507	 0.092353
H	 0.3263067876	-1.079863582	-1.8162274536	 0.111485
H	 1.3219348977	 1.8252840205	-1.7839551414	 0.121231
H	 1.5314621285	 0.641629155	-3.0779049036	 0.14187
H	-0.0909911763	 1.2066377796	-2.6447315274	 0.121198
H	 2.8723606498	-1.2298160134	 1.2568656185	 0.113887
H	 2.4645742286	 1.1783897924	 2.0596867971	 0.131305
H	 2.0042811973	 1.6401537624	 0.3527755926	 0.123624
78.4579	195.4936	207.2955	232.5182	245.2638	265.6996	278.5385	408.3596	472.9728	478.9103	592.5836	666.067	698.5515	729.2675	778.147	841.9491	870.1255	923.2148	932.6824	1004.7772	1031.548	1059.8632	1072.8057	1083.7368	1095.28	1134.2488	1157.1496	1182.3587	1210.1236	1241.273	1269.6814	1325.3622	1335.5997	1364.419	1373.5906	1403.355	1415.5727	1486.6455	1492.6744	1495.9017	1505.8032	1513.4853	1834.6236	3032.3664	3041.5561	3045.8003	3055.1524	3110.0772	3113.402	3117.2999	3117.619	3121.0419	3177.1909	3200.3559
CC1C(C)C(=O)C2CN12	C[C@H]1[C@@H](C)C(=O)[C@H]2CN12	
InChI=1S/C7H11NO/c1-4-5(2)8-3-6(8)7(4)9/h4-6H,3H2,1-2H3	InChI=1S/C7H11NO/c1-4-5(2)8-3-6(8)7(4)9/h4-6H,3H2,1-2H3/t4-,5+,6-,8?/m1/s1
