16
gdb 47214	2.75699	1.45489	1.03056	6.0484	74.75	-0.2617	-0.0365	0.2253	1125.0317	0.125113	-400.791826	-400.783869	-400.782925	-400.824944	29.41	
O	 0.1158058181	-0.165843732	 0.1557764924	-0.279339
C	 0.0246190678	 1.0330035478	 0.1498424605	 0.395064
C	-1.2797599726	 1.7890589277	 0.2901713394	-0.313494
C	-1.2249274023	 2.7743082541	 1.4752417665	-0.264461
C	 0.0530999228	 3.5667353195	 1.4839367494	-0.065321
C	 1.1519252633	 3.2187452254	 0.8200227639	-0.048703
C	 1.2586686594	 1.9533711731	-0.0196483385	-0.313328
C	 2.5068575875	 1.2376162854	 0.2531210089	 0.289911
N	 3.5127016268	 0.7158586198	 0.4753385037	-0.314635
H	-1.4377200595	 2.3610535804	-0.6339178343	 0.12857
H	-2.0918303173	 1.0667036054	 0.3915442358	 0.132746
H	-2.0872566667	 3.4488419171	 1.4318961538	 0.122944
H	-1.324302561	 2.2266835846	 2.4226055527	 0.138075
H	 0.0654225338	 4.4769459944	 2.0776342986	 0.109558
H	 2.0484560598	 3.8285920883	 0.8653445112	 0.122975
H	 1.2797298401	 2.233888569	-1.0857975041	 0.159438
50.8268	136.423	149.6946	214.9291	375.0976	384.6558	403.5235	453.7696	559.6066	583.5742	606.7391	692.6954	719.8999	847.2401	871.9128	884.9432	983.841	1006.7528	1023.9626	1044.1615	1064.9405	1121.247	1163.7747	1211.4836	1254.4797	1259.7401	1295.656	1323.8733	1374.0559	1408.8463	1465.9339	1484.5703	1727.6744	1837.8434	2367.9863	2979.663	3018.6632	3029.2235	3062.3925	3120.6976	3162.2857	3188.8414
O=C1CCC=CC1C#N	O=C1CCC=C[C@H]1C#N	
InChI=1S/C7H7NO/c8-5-6-3-1-2-4-7(6)9/h1,3,6H,2,4H2	InChI=1S/C7H7NO/c8-5-6-3-1-2-4-7(6)9/h1,3,6H,2,4H2/t6-/m0/s1
