21
gdb 89487	2.70129	1.63028	1.42022	2.121	77.44	-0.2407	0.0877	0.3284	1042.9283	0.183611	-424.252218	-424.244137	-424.243193	-424.284279	32.687	
C	-0.152509568	 1.5244069064	-0.100363732	-0.416244
C	 0.0483433698	 0.0224716687	 0.0260312302	 0.160587
O	 0.7081535262	-0.4927392036	-1.1567991446	-0.314865
C	 1.8107647662	-1.2706304036	-0.694156386	 0.498697
C	 2.3541373741	-2.1143719477	-1.8167235871	-0.466568
C	 1.2667939807	-1.9022149107	 0.5964723318	-0.283046
C	 0.9485464297	-0.5062305908	 1.1680219435	-0.108571
C	 2.34232392	 0.1291774435	 1.0392546072	-0.079274
O	 2.8297511872	-0.3912397348	-0.2124548694	-0.298205
H	 0.7937423442	 2.0455576228	-0.2628684824	 0.132525
H	-0.7994572048	 1.7386999495	-0.9557876303	 0.127823
H	-0.6325203266	 1.928188414	 0.7977407526	 0.109552
H	-0.9393517797	-0.4573353044	 0.1050451879	 0.070238
H	 2.6871440738	-1.4688684787	-2.6331436726	 0.137883
H	 3.2043244838	-2.7041096197	-1.4668751325	 0.124862
H	 1.5780390397	-2.7841953842	-2.1935128628	 0.124746
H	 0.3864334915	-2.526369108	 0.4296125471	 0.104029
H	 2.0254140151	-2.4526298407	 1.1571567967	 0.102912
H	 0.5036685567	-0.4489186795	 2.1617198519	 0.073743
H	 2.3330733479	 1.2228982958	 1.0067260214	 0.103951
H	 3.0073932523	-0.1834028742	 1.8556115997	 0.095224
121.6475	195.9504	216.4993	244.1902	310.3881	317.5066	397.3242	483.5475	510.2681	532.1409	576.3477	633.6562	777.1634	809.0229	840.292	858.8204	882.1568	907.0547	936.593	959.9439	977.9919	1004.786	1029.5618	1064.6834	1103.2637	1120.7098	1143.5111	1157.9194	1185.5149	1202.6862	1223.5111	1264.6462	1313.9357	1342.9218	1353.5073	1376.9061	1398.0162	1411.019	1425.9492	1480.1903	1482.7518	1490.3299	1494.2006	1499.7992	1541.5462	2977.5385	3012.0562	3040.9612	3058.1559	3071.7804	3073.3646	3109.781	3117.6071	3128.2372	3130.3172	3135.6052	3140.237
CC1OC2(C)CC1CO2	C[C@H]1O[C@]2(C)C[C@H]1CO2	
InChI=1S/C7H12O2/c1-5-6-3-7(2,9-5)8-4-6/h5-6H,3-4H2,1-2H3	InChI=1S/C7H12O2/c1-5-6-3-7(2,9-5)8-4-6/h5-6H,3-4H2,1-2H3/t5-,6+,7-/m1/s1
