21
gdb 115157	3.09763	1.10711	0.90264	4.4995	77.88	-0.2584	0.0153	0.2737	1346.7261	0.182897	-424.284677	-424.275343	-424.274399	-424.318957	34.507	
C	-0.1715694274	 1.7292347098	 0.1283711708	-0.39071
C	-0.0328768264	 0.210003146	 0.2839549701	-0.205683
C	-1.313834251	-0.5516916619	-0.0647015426	 0.004843
C	-1.7536735203	-0.4279030277	-1.5350389454	-0.090965
O	-2.5842451348	-1.5699474149	-1.7950266029	-0.221394
C	-2.3549143529	-2.5529890023	-0.8805317833	 0.437228
O	-2.9069870217	-3.6136428147	-0.9322166751	-0.347326
C	-1.3032749319	-2.0839877438	 0.1273911101	-0.171416
C	 0.0266025495	-2.8001859322	-0.1670513085	-0.40461
H	 0.7509628027	 2.2387892266	 0.4213597097	 0.120262
H	-0.3877631633	 2.0123378318	-0.9072739768	 0.121744
H	-0.9813948106	 2.119430994	 0.7546592243	 0.120111
H	 0.7922897762	-0.1466349637	-0.3439286919	 0.104057
H	 0.2469372129	-0.023061607	 1.3186904506	 0.104524
H	-2.1288019635	-0.151821263	 0.5531071394	 0.087172
H	-2.3439936331	 0.4659555164	-1.7456320098	 0.124495
H	-0.8970802144	-0.4492893534	-2.221941235	 0.111016
H	-1.6390974668	-2.3708562099	 1.127095546	 0.105718
H	 0.4116805885	-2.5573593604	-1.1630291671	 0.123912
H	 0.7898223412	-2.5275742283	 0.5665334838	 0.123098
H	-0.1242789629	-3.8817850213	-0.1225423665	 0.143925
73.7905	97.8976	170.6888	182.1094	234.1685	239.4473	266.122	296.2637	350.1996	447.2825	523.0579	640.931	685.7379	726.9821	778.9495	800.1451	830.06	940.8584	963.3799	983.2904	1032.1754	1046.4795	1057.1731	1084.888	1112.9648	1154.4283	1180.3731	1190.5707	1238.1554	1275.5072	1294.0718	1318.8608	1344.6681	1365.0365	1385.7098	1404.9828	1413.551	1415.301	1486.4654	1498.9003	1501.7336	1502.1165	1507.2888	1526.7477	1878.7387	3012.002	3023.2835	3027.869	3033.4818	3041.8453	3062.4854	3078.0679	3100.3057	3106.6147	3109.6909	3112.7912	3125.6194
CCC1COC(=O)C1C	CC[C@H]1COC(=O)[C@H]1C	
InChI=1S/C7H12O2/c1-3-6-4-9-7(8)5(6)2/h5-6H,3-4H2,1-2H3	InChI=1S/C7H12O2/c1-3-6-4-9-7(8)5(6)2/h5-6H,3-4H2,1-2H3/t5-,6-/m0/s1
