13
gdb 128389	2.85857	1.55803	1.01481	4.383	66.85	-0.2562	-0.1022	0.154	1079.0142	0.087481	-485.983915	-485.975708	-485.974763	-486.017761	28.495	
C	 0.0461761936	 1.4388240793	-0.0084344869	-0.322843
N	-0.0673232489	-0.0056953454	 0.0128286154	-0.323372
C	-1.2389461469	-0.6565366422	-0.0015693018	 0.3446
N	-2.3717846929	-0.0016663731	-0.0367153356	-0.193523
O	-3.5104370057	-0.7872295384	-0.048245663	-0.203635
N	-3.4933766745	-2.167778086	-0.0251765329	 0.091698
N	-2.4133351718	-2.795094599	 0.0084389697	-0.197852
C	-1.1740670052	-2.1259966662	 0.0241678467	 0.401688
O	-0.1255142843	-2.7307477245	 0.05687446	-0.325852
H	 1.1026636053	 1.707225647	 0.0107916047	 0.141678
H	-0.4138795498	 1.8547034329	-0.9113320945	 0.153607
H	-0.4534735464	 1.8837708807	 0.8588559793	 0.153646
H	 0.7460007474	-0.6010760852	 0.0403040691	 0.280159
47.2438	92.6804	124.9159	182.6538	272.7283	354.524	438.6588	469.0113	520.6055	571.4915	583.1566	611.2323	716.2943	761.6231	825.4901	951.3471	996.8415	1068.3811	1159.4588	1198.1942	1218.9723	1353.0591	1458.4023	1476.5535	1511.8312	1518.9597	1585.2259	1627.7909	1792.4066	3035.4723	3089.3875	3149.9952	3635.2945
CNC1=NON=NC1=O	CNc1nonnc1=O	
InChI=1S/C3H4N4O2/c1-4-2-3(8)5-7-9-6-2/h1H3,(H,4,6)	InChI=1S/C3H4N4O2/c1-4-2-3(8)5-7-9-6-2/h1H3,(H,4,6)
