15
gdb 27572	3.26933	1.27437	0.92216	5.6038	82.67	-0.2711	-0.0626	0.2085	1205.4898	0.114241	-379.75398	-379.746149	-379.745205	-379.78735	28.378	
C	-0.049600367	 1.5014188851	-0.0123036244	-0.473368
C	 0.0064516237	-0.0026301921	 0.0228684425	 0.322217
N	-0.1159358612	-0.6282417133	-1.1525629818	-0.360431
C	-0.0712343552	-1.9654219117	-1.1628884012	 0.209763
C	 0.0956919257	-2.7515192316	-0.0200680649	-0.167853
C	 0.2222175007	-2.0954406277	 1.1976751474	-0.072042
C	 0.1773736182	-0.7072963415	 1.2211472857	-0.156742
C	-0.2064355922	-2.6061187169	-2.4472661663	 0.238459
N	-0.3117143073	-3.1531414412	-3.4608973044	-0.326806
H	 0.0578750048	 1.9340665797	 0.9848414297	 0.122601
H	 0.7445208122	 1.8946300762	-0.654385705	 0.150505
H	-1.0000476507	 1.8346135315	-0.4402721693	 0.150503
H	 0.1233836684	-3.8312180802	-0.0970860861	 0.129419
H	 0.3538586257	-2.659885437	 2.1144423975	 0.121992
H	 0.2732591741	-0.1666971293	 2.1561294206	 0.111784
34.9531	142.057	151.6753	200.2275	349.7346	401.4392	457.9078	481.7964	550.3934	585.1082	642.8487	714.1813	764.8069	825.7604	917.1335	933.4046	999.1701	1010.7069	1032.3113	1061.7307	1117.1118	1185.1604	1232.8626	1284.1412	1302.9555	1409.6897	1438.3112	1475.108	1476.3946	1494.8665	1611.7307	1621.0945	2352.1737	3045.9538	3108.5058	3131.2374	3184.9531	3200.0134	3216.2433
CC1=NC(=CC=C1)C#N	Cc1nc(ccc1)C#N	
InChI=1S/C7H6N2/c1-6-3-2-4-7(5-8)9-6/h2-4H,1H3	InChI=1S/C7H6N2/c1-6-3-2-4-7(5-8)9-6/h2-4H,1H3
