17
gdb 89779	2.47261	1.48711	1.07688	4.5089	72.84	-0.2627	0.0204	0.2831	1120.9495	0.136215	-417.976613	-417.968264	-417.96732	-418.009724	31.479	
O	 0.5343106073	 0.6553554425	-0.8220164576	-0.423684
C	-0.0210328104	-0.2701664324	 0.0520991445	 0.169799
C	-0.0186009646	-0.0072805867	 1.5873821874	-0.367722
C	-1.4243469943	-0.6092612478	 1.6371446972	 0.376237
C	-1.8711126076	-1.7600062281	 2.4518300073	-0.30722
N	-2.4810616858	-0.4242019055	 2.607996122	-0.3511
C	-1.5974030201	-0.4446168189	 0.1101027662	-0.316441
C	-2.2653674649	 0.7889704307	-0.2676147192	 0.29587
N	-2.7123413034	 1.8111872099	-0.5743667883	-0.336127
H	 0.0462617612	 1.4859641694	-0.7514473106	 0.297368
H	 0.4342128117	-1.2346489424	-0.1830886894	 0.11223
H	 0.7689856308	-0.4762683146	 2.1808740581	 0.116054
H	-0.0326078212	 1.0694780332	 1.7919696366	 0.120061
H	-2.5304936879	-2.5133000042	 2.0287682771	 0.128158
H	-1.1951838605	-2.1250938742	 3.2214510442	 0.121022
H	-2.1292680552	 0.0444856277	 3.4392241753	 0.240217
H	-2.0192908353	-1.2887662187	-0.4393149508	 0.125276
77.883	123.588	143.2768	261.7572	301.9019	357.6666	382.9936	406.6216	443.418	489.8158	551.7842	672.7581	747.1733	812.555	844.0905	878.2881	927.6239	963.6269	977.4148	998.6515	1024.5296	1054.6104	1107.2008	1137.899	1146.7012	1180.5318	1225.9902	1248.8261	1258.3637	1280.698	1309.7845	1341.1275	1414.3354	1441.6811	1481.2763	1515.7161	2345.7829	3044.9637	3088.9421	3097.3686	3103.2547	3115.8407	3189.8405	3503.1143	3770.357
OC1CC2(CN2)C1C#N	O[C@H]1C[C@]2(CN2)[C@H]1C#N	
InChI=1S/C6H8N2O/c7-2-4-5(9)1-6(4)3-8-6/h4-5,8-9H,1,3H2	InChI=1S/C6H8N2O/c7-2-4-5(9)1-6(4)3-8-6/h4-5,8-9H,1,3H2/t4-,5-,6-/m0/s1
