20
gdb 76328	1.96122	1.64463	1.1404	2.7365	76.97	-0.2364	0.0299	0.2663	1177.	0.168102	-440.315421	-440.304938	-440.303993	-440.350555	37.426	
C	-0.0728285913	 1.6279370646	-0.0799754939	-0.41639
C	 0.075655526	 0.1178890145	 0.0115028732	 0.033451
N	 1.1580964402	-0.4693648486	-0.8026279638	-0.098498
C	 1.3355846166	-0.5750443568	-2.2286574915	-0.349317
C	 1.7634004849	-1.1348675271	 0.2259359779	 0.376604
O	 2.6781842137	-1.9213761464	 0.2747283089	-0.398098
C	 0.7674588265	-0.539933556	 1.257774023	 0.218962
C	 1.3625082675	 0.3612053773	 2.3269908433	-0.449186
O	-0.0754783932	-1.5319685296	 1.818011136	-0.475522
H	 0.880375449	 2.1386918287	 0.082541781	 0.122492
H	-0.4484462731	 1.9204601933	-1.0662343063	 0.12231
H	-0.7911474359	 1.9861124907	 0.6641054805	 0.130962
H	-0.8862852918	-0.3759710534	-0.1724815725	 0.093164
H	 1.4871795617	 0.40721225	-2.6901074439	 0.130096
H	 2.2212699449	-1.1890290072	-2.4086707135	 0.161655
H	 0.4712301418	-1.0542406521	-2.7063384149	 0.129068
H	 1.9830840449	 1.1526576352	 1.8976893358	 0.122472
H	 0.5687525466	 0.8166413528	 2.9268283077	 0.126136
H	 1.9977764513	-0.2330051915	 2.9920984192	 0.127782
H	 0.4966836596	-2.2132790285	 2.1907783839	 0.291857
79.061	113.8595	142.0829	163.269	202.0693	212.1147	229.0381	249.7819	270.6277	315.299	341.8588	372.0419	487.3285	588.5071	622.8678	735.6154	748.3364	799.289	884.6175	958.7465	1016.0695	1028.6267	1069.3436	1081.4582	1135.87	1151.8727	1177.6229	1228.4797	1266.0684	1288.2056	1362.487	1380.1258	1405.4023	1409.3483	1420.6819	1450.231	1479.1066	1483.1156	1487.5791	1495.4316	1503.0666	1516.9598	1868.4499	3014.6426	3033.472	3036.2965	3039.8337	3070.0862	3102.4399	3107.9911	3115.8461	3123.0093	3129.3067	3793.2867
CC1N(C)C(=O)C1(C)O	C[C@H]1N(C)C(=O)[C@]1(C)O	
InChI=1S/C6H11NO2/c1-4-6(2,9)5(8)7(4)3/h4,9H,1-3H3	InChI=1S/C6H11NO2/c1-4-6(2,9)5(8)7(4)3/h4,9H,1-3H3/t4-,6-/m1/s1
