17
gdb 9695	3.61836	1.59307	1.55888	4.0524	72.85	-0.258	0.0092	0.2672	907.2009	0.143083	-326.760627	-326.753077	-326.752132	-326.792225	28.775	
C	-0.0434939646	 1.5712647038	 0.0098663703	-0.427717
C	-0.0053561106	 0.0285487737	 0.0026200555	 0.137934
C	 0.8753806884	-0.4840618851	-1.1898825877	-0.289971
C	 2.2063295154	-0.7634190963	-0.5399371737	-0.061442
C	 2.1289710956	-0.7714681928	 0.7885205669	-0.061454
C	 0.7313597735	-0.4991825766	 1.2829416934	-0.289967
C	-1.3727544336	-0.4896043603	-0.0801530352	 0.24919
N	-2.4534867217	-0.895454094	-0.14590198	-0.352185
H	 0.9786615909	 1.9562523692	 0.0716836026	 0.130381
H	-0.506934506	 1.9562074371	-0.9024846211	 0.133556
H	-0.6098702236	 1.945376888	 0.8669597688	 0.133552
H	 0.4557824791	-1.3926924339	-1.6391113714	 0.130755
H	 0.927083193	 0.2636247982	-1.988934337	 0.115962
H	 3.1000310583	-0.9638432339	-1.1196496238	 0.102353
H	 2.9494881944	-0.9795206253	 1.4655724023	 0.102348
H	 0.6894052807	 0.2386830316	 2.091634311	 0.115956
H	 0.2630993306	-1.4129226135	 1.669334009	 0.130749
98.2948	173.6121	198.9992	272.0328	336.8296	363.9428	403.5857	506.3604	566.0821	589.7633	696.6675	771.6206	773.2454	918.4737	939.0249	942.1402	959.5412	979.9588	985.3858	994.3497	1094.9234	1130.5434	1139.9254	1178.7193	1205.6994	1275.8495	1301.5707	1338.8833	1362.5635	1409.9749	1482.9263	1488.4814	1495.2449	1501.4437	1691.8435	2351.9745	3030.4422	3031.2391	3043.0233	3065.7404	3066.7255	3121.6792	3122.6824	3189.7797	3214.2707
CC1(CC=CC1)C#N	C[C@]1(CC=CC1)C#N	
InChI=1S/C7H9N/c1-7(6-8)4-2-3-5-7/h2-3H,4-5H2,1H3	InChI=1S/C7H9N/c1-7(6-8)4-2-3-5-7/h2-3H,4-5H2,1H3
