18
gdb 15239	2.28309	2.03099	1.39279	1.033	74.94	-0.2276	0.0488	0.2765	983.2233	0.151047	-347.747002	-347.737876	-347.736932	-347.780465	32.983	
C	 0.1030577791	 1.0897746523	 0.4838765511	-0.238428
O	-0.1196772527	 0.0449900208	-0.448166058	-0.229915
C	-1.3249709595	-0.6042213214	-0.2591194968	 0.114605
C	-1.4271566021	-2.011734124	-0.7434792924	-0.074063
C	-0.2561164954	-2.6942099777	-1.4115188949	-0.40265
C	-1.4263516349	-1.7397098712	 0.7707916476	-0.277114
C	-0.2986420797	-2.0940378466	 1.5766020664	 0.356134
C	 0.6347656475	-2.3988897651	 2.2732055955	-0.472744
H	 1.0647014753	 1.5411869829	 0.2306146568	 0.128149
H	-0.6812727216	 1.8586561036	 0.4151013184	 0.104139
H	 0.1394721669	 0.7076532989	 1.5111847426	 0.127695
H	-2.2026006797	 0.0408400709	-0.3396298634	 0.08654
H	-2.4013510114	-2.2934885179	-1.133951479	 0.093262
H	 0.6908233206	-2.35283969	-0.9920075579	 0.145157
H	-0.3179518463	-3.7797263844	-1.2856103751	 0.118646
H	-0.25004604	-2.4759771046	-2.4844233051	 0.118428
H	-2.3872810587	-1.8366252309	 1.2688041026	 0.109174
H	 1.4602546827	-2.6670663358	 2.8843186815	 0.192985
106.2776	129.9804	136.3105	158.6962	181.218	212.5711	293.9569	359.9628	388.5698	532.7512	567.5797	618.605	647.1823	662.4724	728.8091	795.8456	870.6275	958.6497	981.3281	1028.945	1083.0949	1100.1566	1139.3402	1149.0665	1172.4435	1187.1594	1229.9602	1271.4045	1357.5051	1370.2641	1417.8208	1431.2765	1485.9749	1487.7129	1491.2547	1499.5982	1506.8463	2229.6789	2990.379	3042.7669	3061.5811	3074.5757	3101.1515	3125.8326	3133.4935	3142.1063	3153.7048	3505.3767
COC1C(C)C1C#C	CO[C@H]1[C@@H](C)[C@H]1C#C	
InChI=1S/C7H10O/c1-4-6-5(2)7(6)8-3/h1,5-7H,2-3H3	InChI=1S/C7H10O/c1-4-6-5(2)7(6)8-3/h1,5-7H,2-3H3/t5-,6+,7-/m0/s1
