19
gdb 41338	3.05873	1.89792	1.55202	1.6967	73.3	-0.2443	0.0795	0.3238	917.8802	0.162449	-423.020673	-423.01412	-423.013176	-423.05122	27.878	
C	-0.0592892424	 1.5231695093	 0.120969039	-0.260539
C	 1.489586066	 1.5311551811	-0.1343614489	-0.342643
C	 1.3435538448	 0.1225335653	-0.7221938098	 0.402653
C	 2.1582011581	-1.1629419931	-0.7437558389	-0.315835
C	 1.1608012652	-2.0408667553	-1.5834462784	-0.241642
C	 0.1086062158	-0.9832728606	-2.0196513561	 0.177809
O	-0.8291914462	-0.7298997672	-0.9634587911	-0.284973
C	-0.0199306327	-0.0306396598	-0.0188978897	 0.101648
O	 0.8736487129	 0.2006571336	-2.0928369313	-0.291657
H	-0.4053504886	 1.9212894484	 1.0763773674	 0.099024
H	-0.6150682105	 1.9836940622	-0.695457388	 0.127117
H	 1.8969749619	 2.2914753362	-0.8022505053	 0.116938
H	 2.059860702	 1.5256355042	 0.7979885723	 0.110575
H	 3.1179973467	-1.0406622713	-1.2521338525	 0.108013
H	 2.3392202452	-1.5650227693	 0.2562939179	 0.101823
H	 1.6458232365	-2.4800254155	-2.458228125	 0.109597
H	 0.6998352981	-2.8432174359	-1.0039992315	 0.113407
H	-0.4344165608	-1.1737854986	-2.9445293794	 0.091586
H	-0.0128685421	-0.5532168034	 0.9422822794	 0.077099
179.0228	241.1956	319.5404	373.4591	429.0671	464.4664	628.7332	672.2695	678.0542	762.2762	788.5109	817.2363	832.7987	864.7168	879.22	909.8428	923.8479	925.2304	974.0393	992.0121	1046.8214	1068.2018	1104.9788	1122.7427	1131.0874	1171.0068	1186.7308	1209.3029	1228.9935	1245.4242	1254.2458	1288.2993	1293.4712	1317.6197	1330.9328	1343.9408	1367.2719	1468.416	1475.6675	1483.9483	1497.9101	3059.8298	3062.488	3072.6117	3075.0377	3085.6601	3106.7616	3128.5783	3129.4471	3139.6495	3154.052
C1CC23CCC(OC12)O3	C1C[C@@]23CC[C@@H](O[C@H]12)O3	
InChI=1S/C7H10O2/c1-3-7-4-2-6(9-7)8-5(1)7/h5-6H,1-4H2	InChI=1S/C7H10O2/c1-3-7-4-2-6(9-7)8-5(1)7/h5-6H,1-4H2/t5-,6+,7-/m1/s1
