17
gdb 41421	3.373	1.92099	1.55492	1.422	69.83	-0.2348	0.0669	0.3016	867.3207	0.138354	-421.754369	-421.748237	-421.747293	-421.784543	25.942	
C	 0.0130416895	 1.4419841301	 0.0666548627	-0.121976
O	 1.4683990647	 1.5069323644	-0.0761521116	-0.354369
C	 1.4932717583	 0.1303717162	-0.3904351026	 0.437362
C	 2.4774439662	-0.9159707686	 0.0887869539	-0.153132
O	 1.8453304757	-2.1091816863	-0.4147332936	-0.278923
C	 1.017838484	-1.7373271457	-1.5138103115	 0.109657
C	-0.200380022	-0.8250146424	-1.2982823889	-0.128001
C	 1.1428767517	-0.3067876422	-1.8446369649	-0.21135
C	 0.0161335801	-0.1113567433	 0.0194316205	-0.115735
H	-0.3021605274	 1.887455835	 1.014224968	 0.115108
H	-0.493773876	 1.9414674917	-0.7665378885	 0.108646
H	 3.488691928	-0.7984542881	-0.3278423591	 0.100414
H	 2.5373933738	-0.9918460336	 1.1779811977	 0.115972
H	 0.9470656062	-2.512594595	-2.2663478391	 0.109273
H	-1.1303211754	-0.9911657363	-1.8328424223	 0.086291
H	 1.4339334106	 0.160500156	-2.7754839068	 0.097691
H	-0.2480575082	-0.609467752	 0.9543611261	 0.083074
205.2034	271.8136	344.6965	387.0431	486.4972	520.549	678.1879	725.0983	747.6997	752.0448	804.8788	857.6037	879.7384	898.143	927.1951	956.6816	969.6075	1008.6312	1026.304	1048.5793	1059.9993	1097.5625	1111.4812	1131.1215	1139.3646	1164.3367	1175.5546	1204.6333	1242.0681	1260.9123	1307.7635	1334.9226	1345.1237	1365.4582	1395.006	1508.7422	1514.3553	2996.0243	3036.4085	3084.4732	3092.7934	3100.6365	3159.3929	3195.9359	3210.2152
C1OC23COC4C(C24)C13	C1O[C@]23CO[C@H]4[C@H]([C@@H]24)[C@H]13	
InChI=1S/C7H8O2/c1-3-4-5-6(4)8-2-7(3,5)9-1/h3-6H,1-2H2	InChI=1S/C7H8O2/c1-3-4-5-6(4)8-2-7(3,5)9-1/h3-6H,1-2H2/t3-,4-,5+,6-,7-/m0/s1
