23
gdb 83700	2.57782	1.50217	1.11341	0.3516	91.43	-0.2229	0.0315	0.2544	1204.1942	0.20697	-351.169982	-351.161204	-351.16026	-351.202959	34.777	
C	-0.9229986328	 1.1694066038	 0.1145369106	-0.403823
C	-0.0985346149	-0.117884011	-0.0239395826	-0.083627
C	 0.7834583272	-0.2073060742	-1.2876864365	-0.011441
C	 1.6360639541	 1.0345598248	-1.7013432185	-0.223791
C	 2.9249501643	 0.1702704755	-1.6236057027	-0.223494
C	 2.1102894581	-0.9275589719	-0.8790321072	-0.056785
C	 2.0747107112	-0.8200883238	 0.6208167435	-0.192602
C	 0.9071866936	-0.3750395132	 1.0967366125	 0.332727
C	 0.5465687448	-0.1889069672	 2.53841047	-0.495932
H	-0.2876001336	 2.057305772	 0.1885944149	 0.116865
H	-1.5829226178	 1.3014237293	-0.7492713428	 0.112312
H	-1.5543156745	 1.1398996013	 1.0084745959	 0.112134
H	-0.8173417282	-0.9538272033	-0.0330338217	 0.071373
H	 0.2579051052	-0.6461223586	-2.138794252	 0.057566
H	 1.4045388089	 1.4799578395	-2.6716700633	 0.093468
H	 1.6230677798	 1.8281927299	-0.951350576	 0.100896
H	 3.2615627474	-0.1680026648	-2.6078480519	 0.094171
H	 3.7802258143	 0.5987658765	-1.0936277504	 0.091276
H	 2.2802006179	-1.9555171453	-1.2191457127	 0.063523
H	 2.9216612532	-1.094813461	 1.2437015745	 0.077696
H	 1.3698974475	-0.4763891285	 3.197972402	 0.120215
H	 0.2846785361	 0.8532120912	 2.7595256798	 0.125864
H	-0.3310617617	-0.7914708709	 2.8081297745	 0.12141
101.3131	152.8419	192.3288	213.3741	241.0175	258.7558	338.0152	377.9698	440.8085	539.7793	592.0442	652.7592	723.1955	747.6428	778.4712	846.1581	868.41	893.0037	925.0801	954.4108	971.2887	999.7312	1019.1998	1035.6188	1048.1939	1065.2225	1098.5842	1135.0176	1140.526	1163.8161	1214.9594	1231.9312	1250.2452	1266.8918	1274.9853	1285.8819	1311.8497	1333.796	1342.9291	1361.0602	1407.8756	1413.5876	1475.9218	1479.3009	1486.7706	1492.1599	1499.5685	1505.5091	1708.645	2958.767	3015.0851	3030.5283	3034.2669	3050.262	3061.2034	3066.7471	3078.8595	3095.4347	3097.8763	3105.7885	3108.4714	3121.9286	3165.6921
CC1C2CCC2C=C1C	C[C@H]1[C@H]2CC[C@H]2C=C1C	
InChI=1S/C9H14/c1-6-5-8-3-4-9(8)7(6)2/h5,7-9H,3-4H2,1-2H3	InChI=1S/C9H14/c1-6-5-8-3-4-9(8)7(6)2/h5,7-9H,3-4H2,1-2H3/t7-,8+,9-/m1/s1
