16
gdb 22127	3.78237	0.92145	0.87568	1.5464	70.56	-0.2541	-0.0436	0.2105	1321.0393	0.121171	-474.975499	-474.966677	-474.965733	-475.009355	32.717	
O	-0.3843216523	 1.227806515	 0.7805327388	-0.3909
N	-0.1682996727	-0.1476691099	 0.5904480794	-0.230935
C	-1.0746695726	-0.6517137541	-0.1349714256	 0.426832
C	-2.363376	-0.1657473279	-0.7583039692	-0.386082
C	-2.7814576763	-1.6773319532	-0.9179644723	 0.331459
O	-3.2368274789	-2.0680915719	-2.1686520908	-0.480823
C	-1.3011344682	-2.0861325165	-0.5470107438	-0.379619
C	-3.7551761955	-2.0993969845	 0.1540078855	 0.117726
O	-4.7716595799	-2.6957564537	-0.1100706699	-0.276795
H	 0.3512534175	 1.4730014345	 1.3522357503	 0.309707
H	-2.992701922	 0.493468024	-0.1548257388	 0.1329
H	-2.2249253414	 0.2802705384	-1.7478264778	 0.149397
H	-4.080651903	-2.5242616164	-2.0142357487	 0.29387
H	-0.774046123	-2.358943389	-1.4664872654	 0.146363
H	-1.1459351119	-2.866821235	 0.2020265886	 0.127713
H	-3.48556293	-1.8324938798	 1.1958530497	 0.109187
51.3699	111.5553	186.6082	245.054	287.5229	316.5337	349.1684	383.4865	400.3568	447.27	487.5945	512.2342	591.4523	730.7774	804.4467	831.0629	843.9178	904.0224	940.5405	979.4079	1037.1176	1065.3539	1080.3912	1142.1723	1185.0322	1217.4489	1234.0207	1309.6771	1387.6734	1406.6928	1440.1188	1441.8891	1463.7804	1791.5388	1809.2026	2936.2767	3056.0784	3061.0074	3112.8241	3114.8652	3673.2938	3816.8734
ON=C1CC(O)(C1)C=O	ON=C1C[C@@](O)(C1)C=O	
InChI=1S/C5H7NO3/c7-3-5(8)1-4(2-5)6-9/h3,8-9H,1-2H2	InChI=1S/C5H7NO3/c7-3-5(8)1-4(2-5)6-9/h3,8-9H,1-2H2/t5-
