20
gdb 52421	6.25475	0.59369	0.5674	3.9167	78.57	-0.2482	0.0349	0.2831	1936.87	0.170007	-440.285342	-440.275557	-440.274613	-440.322079	34.399	
O	 0.2178843741	 0.0849681078	-0.9503986024	-0.327183
C	 0.1136580443	 1.1688708274	-0.4142898023	 0.156376
N	 1.0332923576	 1.7287174585	 0.4124232882	-0.268589
C	 2.303531879	 1.1040001148	 0.731829639	-0.166618
C	 3.4584533689	 2.0630826478	 0.4907989528	-0.067874
O	 3.2345744444	 3.206589063	 1.3038416317	-0.261788
C	 4.1826409942	 4.2138465396	 1.1243982683	 0.148129
C	 4.4061235038	 5.1299419839	 2.281589911	-0.287303
C	 5.484332178	 4.1410530663	 1.8807096735	-0.286979
H	-0.7683775791	 1.8263771364	-0.548846091	 0.072176
H	 0.8710108927	 2.6515836102	 0.7834306139	 0.255921
H	 2.3173950438	 0.7802376806	 1.7804931182	 0.117023
H	 2.3972551807	 0.218496601	 0.0998818274	 0.148393
H	 4.4143265845	 1.5841571309	 0.749376123	 0.098813
H	 3.4978707634	 2.3529418833	-0.5706391323	 0.10039
H	 4.2009033954	 4.6327804048	 0.1174374219	 0.087306
H	 4.5590366826	 6.1848836013	 2.0849862373	 0.117632
H	 3.848443677	 4.9102032866	 3.1847211238	 0.126199
H	 5.6274516354	 3.2841841313	 2.5294827827	 0.121329
H	 6.3864372891	 4.5099318844	 1.4054317953	 0.116649
29.1862	54.6099	62.6348	127.6073	181.7656	233.2753	245.6177	339.399	407.9803	449.0658	528.3462	580.3646	749.6108	764.5517	819.0208	821.8428	866.0406	913.9384	980.8016	1003.1363	1032.1057	1051.0115	1073.1401	1076.4202	1104.9453	1127.7628	1129.9705	1193.7422	1202.8367	1217.7859	1243.6982	1253.2834	1285.4898	1369.1702	1393.8157	1428.673	1432.3494	1453.7625	1487.7063	1497.5767	1514.1324	1527.3719	1804.3322	2934.2754	2982.8241	3016.3359	3035.3332	3093.0059	3125.6075	3136.8333	3143.3541	3221.2609	3235.8761	3639.7763
O=CNCCOC1CC1	O=CNCCOC1CC1	
InChI=1S/C6H11NO2/c8-5-7-3-4-9-6-1-2-6/h5-6H,1-4H2,(H,7,8)	InChI=1S/C6H11NO2/c8-5-7-3-4-9-6-1-2-6/h5-6H,1-4H2,(H,7,8)
