18
gdb 27188	3.14833	1.63302	1.21163	1.5871	84.01	-0.1946	0.0241	0.2187	1050.3478	0.149231	-364.785965	-364.778492	-364.777548	-364.817983	29.332	
C	 0.0380552307	 1.4790987247	-0.0769083905	-0.499773
C	-0.0109423695	-0.017739566	-0.0447275627	 0.157132
C	-0.2493816462	-0.8924375401	-1.0811167708	 0.142578
C	 0.0547720122	-1.3358813923	-2.4981487507	-0.198077
C	 1.3894512337	-2.0712473036	-2.467210447	-0.274006
C	 0.1575516524	-2.7442134917	-1.9199695799	-0.019925
N	-0.2154119078	-2.1924178399	-0.6065812398	 0.006331
C	 0.127349677	-2.1900178066	 0.7241768322	-0.143195
C	 0.1660328006	-0.8633457736	 1.1079306044	-0.207463
H	 0.9421819886	 1.8606888163	 0.4109229294	 0.12252
H	 0.0318274365	 1.8514083217	-1.1055436525	 0.118243
H	-0.8176739895	 1.931792586	 0.4394225002	 0.125016
H	-0.4234634781	-1.0257072418	-3.4168611789	 0.104853
H	 1.746929003	-2.456296365	-3.4196636205	 0.116696
H	 2.1675344715	-1.7409833941	-1.7862542936	 0.132448
H	-0.2532238056	-3.6791545943	-2.2775499405	 0.113083
H	 0.1976392726	-3.0924798638	 1.3111501619	 0.114999
H	 0.2641626279	-0.5152196157	 2.1276188193	 0.08854
87.6186	133.69	197.792	259.4827	340.1206	485.4581	505.5659	614.4881	628.1935	703.0535	711.9809	733.2078	783.1726	822.2836	828.8669	868.5279	926.9801	975.6255	989.6073	996.5342	1047.7673	1059.6618	1069.6775	1083.3349	1099.1561	1136.5741	1186.67	1226.0477	1255.9674	1277.5013	1310.3265	1371.4246	1416.6462	1423.4923	1467.1143	1473.5444	1483.3286	1497.9579	1625.7496	3020.9768	3069.4166	3103.5139	3112.5782	3199.8768	3203.0633	3214.0657	3219.4115	3257.5325
CC1=C2C3CC3N2C=C1	Cc1c2[C@H]3C[C@H]3n2cc1	
InChI=1S/C8H9N/c1-5-2-3-9-7-4-6(7)8(5)9/h2-3,6-7H,4H2,1H3	InChI=1S/C8H9N/c1-5-2-3-9-7-4-6(7)8(5)9/h2-3,6-7H,4H2,1H3/t6-,7+/m0/s1
