21
gdb 105938	4.07724	1.27598	1.21439	0.2798	85.68	-0.229	0.093	0.3219	1135.6333	0.183933	-349.889637	-349.882096	-349.881151	-349.921608	30.816	
C	 0.1086369735	 1.505644623	 0.2604453802	-0.372506
C	-0.064699862	 0.0098661544	-0.0372427347	-0.33031
C	 0.6230073105	-0.426990974	-1.2921884793	 0.381799
C	 2.0815513719	-0.6871949416	-1.6152610662	-0.127973
C	 1.0298174761	-1.7906874318	-1.8071264054	-0.149554
C	 0.6047166567	-1.5121061206	-3.2674301704	-0.051222
C	 1.8865691113	-1.1472611724	-4.0567261408	-0.242067
C	 2.0289797752	-0.0170069637	-3.0069800694	-0.049114
C	 0.4665211582	-0.0136398201	-2.7952359491	-0.117445
H	 1.1664103042	 1.7617338721	 0.3787173944	 0.11759
H	-0.2917900198	 2.1176840532	-0.5548268578	 0.116117
H	-0.4149020976	 1.7896132162	 1.1785965837	 0.1089
H	 0.3251744208	-0.5812687179	 0.8021917235	 0.097579
H	-1.1355584046	-0.2280848635	-0.1027169403	 0.097436
H	 2.920897143	-0.7978712069	-0.9401401378	 0.07771
H	 1.073538697	-2.7324866107	-1.2745162834	 0.078148
H	-0.2103256486	-2.092830016	-3.6978630834	 0.060466
H	 2.6839938807	-1.8930031268	-4.1379825314	 0.088526
H	 1.6481113183	-0.747434685	-5.0481467804	 0.092776
H	 2.620727045	 0.8811305445	-3.1804520975	 0.060187
H	-0.2171416797	 0.7133063377	-3.2281420145	 0.062957
90.8903	134.7002	191.5014	287.9796	346.7183	430.1631	545.9149	592.2441	717.5216	753.6837	777.8979	786.588	820.5126	835.4798	857.1788	865.0257	893.2189	923.1056	933.4009	966.8104	986.7238	996.5699	1025.4016	1035.7731	1050.912	1056.4957	1090.3976	1103.6679	1158.7184	1167.0356	1184.6208	1192.455	1219.1904	1228.4391	1248.8874	1275.6362	1293.7615	1312.2484	1354.0791	1409.1946	1452.0256	1477.372	1487.2515	1498.8547	1507.8209	3006.1804	3033.9974	3037.7338	3038.6747	3093.6937	3102.0006	3106.896	3117.5951	3117.9081	3140.048	3184.1517	3194.4637
CCC12C3C1C1CC3C21	CC[C@@]12[C@H]3[C@@H]1[C@@H]1C[C@H]3[C@H]21	
InChI=1S/C9H12/c1-2-9-6-4-3-5(6)8(9)7(4)9/h4-8H,2-3H2,1H3	InChI=1S/C9H12/c1-2-9-6-4-3-5(6)8(9)7(4)9/h4-8H,2-3H2,1H3/t4-,5+,6-,7+,8-,9+
