19
gdb 103008	2.0505	1.40602	1.18213	4.1613	77.4	-0.2386	0.0157	0.2543	1178.8647	0.157612	-419.185848	-419.175601	-419.174657	-419.220804	36.516	
C	-0.3112230478	 1.3025933492	-0.1164866315	-0.273581
O	 0.1232367138	-0.0530675426	 0.0207437637	-0.29065
C	 0.7038035353	-0.5799579808	-1.130509752	 0.249931
C	 1.8773405788	 0.1213577013	-1.6074065909	 0.256794
N	 2.8112921157	 0.6848311542	-1.9936823275	-0.355008
C	 0.6687686232	-2.0992224739	-1.2553912774	-0.102901
C	 0.1321074509	-2.9451739121	-0.123682055	-0.413217
C	-0.2214907177	-1.246295033	-2.145251833	-0.062364
N	-1.6362815185	-1.0728265611	-1.9535831516	-0.521628
H	 0.5378079637	 1.9694208626	-0.3090542828	 0.142045
H	-1.0430883415	 1.4029609737	-0.9259102351	 0.140125
H	-0.7713930812	 1.5716672545	 0.8359573441	 0.134376
H	 1.5423891222	-2.5124820302	-1.7518217404	 0.110035
H	-0.7267795157	-2.4826516068	 0.3643955525	 0.126329
H	-0.1737070803	-3.926908733	-0.5004804103	 0.122577
H	 0.8987985221	-3.1021858709	 0.6407146781	 0.136034
H	 0.0774090301	-1.1649857043	-3.186185823	 0.117405
H	-2.1410154479	-1.8842901976	-2.2975615362	 0.238893
H	-1.8480808253	-0.9830856693	-0.9656206916	 0.244806
102.0478	122.9693	130.2825	158.1636	164.2547	183.6138	208.8223	255.8829	302.5751	331.3005	449.8907	456.4399	572.4812	582.1965	624.3854	690.8382	793.5483	854.684	897.9494	968.1979	1009.9885	1054.4236	1078.0476	1094.1728	1135.4224	1157.3131	1187.0164	1199.6589	1236.6024	1271.173	1283.2052	1382.9877	1417.6969	1442.0845	1479.1202	1487.9073	1490.5229	1502.4203	1511.1841	1646.9797	2341.8201	3020.2761	3044.4525	3089.4483	3104.867	3135.091	3137.0487	3149.2392	3157.9994	3500.1837	3584.8505
COC1(C#N)C(C)C1N	CO[C@@]1(C#N)[C@@H](C)[C@H]1N	
InChI=1S/C6H10N2O/c1-4-5(8)6(4,3-7)9-2/h4-5H,8H2,1-2H3	InChI=1S/C6H10N2O/c1-4-5(8)6(4,3-7)9-2/h4-5H,8H2,1-2H3/t4-,5+,6-/m0/s1
