19
gdb 71605	2.1868	1.94513	1.64666	1.5943	74.16	-0.2344	0.0774	0.3117	954.4303	0.159422	-422.98484	-422.977099	-422.976155	-423.016491	31.424	
C	 0.0326410141	 1.4587151546	-0.173978016	-0.525725
C	-0.0252381014	-0.0242118187	 0.0058871563	 0.348811
O	 0.5267794756	-0.8892947869	-1.0685986802	-0.379081
C	 0.032169277	-1.8288276609	-0.0454752052	-0.027169
C	 0.5726749572	-0.9473167179	 1.104478269	-0.082393
C	-0.3960248738	-1.0105587267	 2.2881401107	-0.253073
C	-1.7661640402	-1.0365130478	 1.5416516708	-0.291168
C	-1.2724837282	-0.9816606891	 0.1083155866	 0.429241
O	-2.2246927247	-0.9744022654	-0.8892397759	-0.497148
H	 1.0597215851	 1.7904906675	-0.3539308923	 0.135459
H	-0.5870692978	 1.766130444	-1.0226281788	 0.132486
H	-0.3421321498	 1.9642080152	 0.7220382041	 0.128515
H	 0.1628396738	-2.8952882876	-0.2328110447	 0.086611
H	 1.6485944388	-0.9206889127	 1.2701811639	 0.078806
H	-0.2370829383	-1.9034238318	 2.8996855069	 0.106658
H	-0.2948308212	-0.1427758362	 2.9468066905	 0.105292
H	-2.3444368932	-1.9440044016	 1.7372917561	 0.110169
H	-2.4036016833	-0.1808165806	 1.7827010826	 0.108962
H	-1.7248155597	-0.9507723175	-1.7188202445	 0.284748
177.7065	188.3227	208.3192	220.9834	300.8354	406.294	445.125	494.0062	545.7153	655.8136	680.6411	698.9657	710.1388	725.8693	791.0051	838.6655	891.0106	911.8005	934.9158	953.7168	1001.575	1029.3661	1074.6917	1090.2312	1113.8582	1147.6429	1164.4763	1213.6674	1222.881	1244.6984	1245.9273	1280.1959	1308.0835	1332.778	1380.89	1405.1362	1440.5889	1474.7866	1488.5232	1490.9581	1512.5098	3035.3632	3050.6487	3060.6531	3085.2286	3104.5908	3106.8462	3111.5327	3111.9273	3138.292	3729.7459
CC12OC3C1CCC23O	C[C@@]12O[C@H]3[C@@H]1CC[C@@]23O	
InChI=1S/C7H10O2/c1-6-4-2-3-7(6,8)5(4)9-6/h4-5,8H,2-3H2,1H3	InChI=1S/C7H10O2/c1-6-4-2-3-7(6,8)5(4)9-6/h4-5,8H,2-3H2,1H3/t4-,5-,6+,7-/m0/s1
