18
gdb 107029	2.9758	1.29325	1.07295	3.2077	67.36	-0.2501	0.0584	0.3085	1141.1179	0.147197	-476.161438	-476.152553	-476.151609	-476.195217	33.303	
O	 0.041814523	 1.3942823362	 0.3535617256	-0.409703
C	 0.0325694922	 0.0009033898	 0.0936628732	-0.175162
C	-1.3467772694	-0.5269634603	-0.1426757419	 0.276116
N	-2.224486984	-0.9321318047	 0.9962778404	-0.410095
C	-1.9020055291	-1.9118089685	-0.072325281	-0.154381
C	-2.9558642192	-1.6021994546	-1.1457806186	 0.083973
O	-4.2833155205	-1.5531030772	-0.6812343762	-0.442189
C	-2.2912718956	-0.1755598168	-1.307618861	 0.081192
O	-3.1533575298	 0.9125295867	-1.1881318092	-0.438958
H	-0.7207734572	 1.6002912692	 0.9042693189	 0.29498
H	 0.647970177	-0.1435620724	-0.8020033008	 0.116881
H	 0.5103976694	-0.56970257	 0.9103361939	 0.079189
H	-1.62428875	-1.1380887683	 1.7940506681	 0.235623
H	-1.4172382416	-2.8521377795	 0.160321811	 0.10267
H	-2.9263317404	-2.2233274874	-2.0415120875	 0.09297
H	-4.2040215641	-1.3192623031	 0.2580440223	 0.298641
H	-1.7168014391	-0.1022823305	-2.2391571714	 0.082179
H	-4.0164915715	 0.5332281715	-0.9655780857	 0.286076
65.5665	97.7765	169.091	224.4841	249.8696	281.6595	351.1936	364.8589	376.0835	496.8711	608.2308	628.8472	670.999	715.2508	757.2626	823.2884	876.5867	918.9573	953.1672	970.8399	1016.534	1063.4819	1074.4361	1091.444	1126.6949	1149.145	1183.3909	1202.3692	1234.44	1278.3635	1285.815	1319.4989	1340.964	1376.8074	1413.8825	1417.0511	1446.8975	1457.7748	1505.1289	2941.2334	3034.415	3054.9892	3111.6894	3191.0283	3478.5094	3682.1606	3716.9395	3815.9986
OCC12NC1C(O)C2O	OC[C@]12N[C@H]1[C@@H](O)[C@H]2O	
InChI=1S/C5H9NO3/c7-1-5-3(6-5)2(8)4(5)9/h2-4,6-9H,1H2	InChI=1S/C5H9NO3/c7-1-5-3(6-5)2(8)4(5)9/h2-4,6-9H,1H2/t2-,3+,4-,5+/m1/s1
