22
gdb 87453	2.73639	1.37281	1.25463	1.8275	87.4	-0.2275	0.088	0.3155	1163.32	0.193649	-367.126099	-367.117237	-367.116293	-367.159065	34.926	
C	-0.0396196145	 1.5310754253	 0.0543336588	-0.40637
C	 0.0107351575	 0.0178015773	 0.0192813987	-0.136914
C	 1.3534081777	-0.6948096036	-0.1951608119	-0.408166
C	 0.6539223022	-0.7539483475	 1.1145680164	 0.433087
N	 1.1741225508	-0.1947394738	 2.4289637834	-0.186866
C	-0.1722188459	-0.6899799217	 2.9940943407	-0.20404
C	 0.233161326	-1.8750181739	 2.0770684803	 0.206676
C	-0.4926710754	-3.1632775045	 1.7870030194	-0.5216
C	 1.6451214482	-1.6417132098	 2.6776754425	-0.201523
H	 0.8009564812	 1.930258275	 0.62868479	 0.135836
H	 0.0008981824	 1.9524180224	-0.9561669813	 0.113391
H	-0.9613439943	 1.8876381223	 0.527385086	 0.113836
H	-0.8414777141	-0.4584942836	-0.4628226229	 0.081542
H	 1.3747822114	-1.5772961155	-0.8277053467	 0.107874
H	 2.2376817885	-0.0678565785	-0.2665133594	 0.119173
H	-0.1515099319	-0.8509427496	 4.0763398457	 0.092842
H	-1.0244838811	-0.0755493866	 2.6937907307	 0.100438
H	-1.4781784375	-2.9692144811	 1.3494023583	 0.122042
H	 0.07297258	-3.7827007837	 1.0822543181	 0.122253
H	-0.6412480979	-3.7468440772	 2.7018037064	 0.122328
H	 2.5125466947	-1.9257900961	 2.076971702	 0.101438
H	 1.7939881119	-1.8682351755	 3.7378792147	 0.092722
128.5454	147.5563	176.6818	196.0308	213.7863	273.9606	315.8612	407.4347	437.3155	502.5455	612.1082	630.8885	645.7971	762.2851	788.5299	819.5073	883.7949	897.8588	903.6205	918.2963	972.4656	983.7051	1021.0247	1037.0828	1044.0102	1081.922	1104.9952	1130.0553	1152.7234	1170.0038	1174.9627	1185.3783	1195.9943	1203.1256	1252.7846	1300.4896	1342.6868	1405.7599	1410.0827	1431.1263	1487.5014	1489.5051	1491.3324	1495.6808	1502.3794	1510.3884	1548.7228	3027.0714	3029.2824	3043.7596	3050.4001	3087.3379	3094.8751	3097.5742	3106.6075	3115.5216	3116.8052	3119.3587	3124.1454	3201.1595
CC1CC11N2CC1(C)C2	C[C@H]1C[C@]21N1C[C@]2(C)C1	
InChI=1S/C8H13N/c1-6-3-8(6)7(2)4-9(8)5-7/h6H,3-5H2,1-2H3	InChI=1S/C8H13N/c1-6-3-8(6)7(2)4-9(8)5-7/h6H,3-5H2,1-2H3/t6-,8+/m0/s1
