13
gdb 18421	3.4078	1.9939	1.60385	3.4757	63.97	-0.2496	-0.0065	0.2431	801.3884	0.095131	-361.415296	-361.408523	-361.407579	-361.446263	25.781	
O	 0.0146694934	 0.0579728591	 0.1179707681	-0.326568
C	 0.0318822875	 1.2491167474	 0.0345700088	 0.424246
N	-1.0055825622	 2.212367284	 0.0489377053	-0.342734
C	-0.0553466338	 3.3180773862	-0.0434683392	-0.017474
C	 0.9591783382	 3.2978529441	 1.0770352437	-0.224823
C	 0.6411715262	 2.8606267269	 2.4058582644	 0.317695
C	 0.3597054277	 2.5035725681	 3.5189606253	-0.423159
C	 1.0913660548	 2.3353227119	-0.1269363991	-0.242036
H	-1.7480564591	 2.1853540053	 0.7395994957	 0.250545
H	-0.2601312905	 4.1840389282	-0.6587948916	 0.123783
H	 1.6859584047	 4.106649686	 1.0231024752	 0.129328
H	 0.1225522035	 2.1785386758	 4.501873945	 0.205448
H	 1.9719563195	 2.3306868769	-0.7529348716	 0.125749
102.757	151.4172	246.2304	358.0789	458.8663	506.3986	566.8609	612.073	650.3672	669.1843	734.7667	756.6686	805.8087	825.4333	903.6101	916.3758	983.8238	1039.5137	1052.0918	1074.533	1126.9773	1153.1339	1256.5183	1311.8755	1334.8954	1391.8483	1911.9215	2238.9004	3130.2443	3206.8719	3230.1035	3502.4907	3547.234
O=C1NC2C(C#C)C12	O=C1N[C@H]2[C@@H](C#C)[C@@H]12	
InChI=1S/C6H5NO/c1-2-3-4-5(3)7-6(4)8/h1,3-5H,(H,7,8)	InChI=1S/C6H5NO/c1-2-3-4-5(3)7-6(4)8/h1,3-5H,(H,7,8)/t3-,4+,5-/m0/s1
