20
gdb 12509	3.21349	1.79327	1.29009	0.1537	82.23	-0.2253	0.0261	0.2514	1014.9908	0.178316	-311.885869	-311.877899	-311.876955	-311.918138	30.731	
C	-0.5580163266	 1.4573269838	 0.223665077	-0.476943
C	 0.0661693968	 0.1166379948	-0.0565804988	 0.342693
C	-0.1519244229	-0.5436762265	-1.1946689087	-0.152791
C	 0.4461820628	-1.8878274277	-1.5228739745	-0.257241
C	-0.0762861179	-3.0207702169	-0.623432521	-0.232254
C	 0.2751878251	-2.8985656284	 0.8362429687	-0.033216
C	 0.7262175863	-1.8395127239	 1.5099539693	-0.051355
C	 0.982400503	-0.4260331044	 1.0289254705	-0.356712
H	 0.2090635649	 2.2188259839	 0.4186080424	 0.119979
H	-1.1724149262	 1.8018722719	-0.6125437241	 0.117207
H	-1.1903335212	 1.4201811745	 1.120620974	 0.122515
H	-0.8145434864	-0.101637778	-1.9358905896	 0.072818
H	 0.2374274767	-2.1407034107	-2.567385364	 0.093012
H	 1.5405362209	-1.8494652806	-1.4291086286	 0.10515
H	-1.1684182562	-3.0987876285	-0.7300952874	 0.107488
H	 0.3187060753	-3.9789883205	-0.9889698359	 0.096749
H	 0.1472866829	-3.8203373381	 1.4027821797	 0.07864
H	 0.9548821123	-1.9906572279	 2.5635985537	 0.081617
H	 2.0289676225	-0.3427791288	 0.6908973089	 0.122193
H	 0.9236186379	 0.2358701422	 1.9001623584	 0.100448
64.0525	144.9656	215.9822	262.2639	319.7823	352.4085	392.3413	427.39	488.2969	604.564	659.5251	707.4536	808.9958	840.8103	876.3465	881.888	929.9841	959.8676	1009.526	1016.0743	1042.6262	1057.3778	1066.8025	1109.2583	1160.6514	1206.0294	1222.3051	1259.0343	1286.5277	1346.2926	1353.3551	1384.4173	1394.6232	1411.6934	1429.643	1468.5058	1472.5757	1479.827	1488.6061	1491.0729	1734.4598	1746.2277	2969.2763	2996.6259	3006.2194	3009.4017	3026.5508	3050.9577	3053.711	3069.0434	3108.3418	3118.6633	3143.1254	3145.2735
CC1=CCCC=CC1	CC1=CCCC=CC1	
InChI=1S/C8H12/c1-8-6-4-2-3-5-7-8/h2,4,7H,3,5-6H2,1H3	InChI=1S/C8H12/c1-8-6-4-2-3-5-7-8/h2,4,7H,3,5-6H2,1H3
