19
gdb 68416	2.55778	1.85743	1.42396	2.6734	74.58	-0.2497	0.0718	0.3216	972.8849	0.160071	-422.994181	-422.986643	-422.985699	-423.025689	30.968	
O	-0.133656283	 1.3782416536	 0.1015186596	-0.48813
C	 0.0217435642	 0.0014570174	 0.0705964789	 0.333122
C	 0.8353505895	-0.7858827827	-1.0077102685	-0.295046
C	 0.7053402911	-1.9285114603	 0.0432139537	-0.031759
C	 0.8156468064	-0.8255447025	 1.1354041604	-0.291684
C	-0.8131241454	-2.2142840233	 0.0379742898	-0.311062
C	-1.3009150855	-0.7562980164	 0.0386900852	 0.480122
C	-2.5709933069	-0.2300108254	 0.5312724429	-0.287602
O	-2.3044164866	-0.3427452618	-0.8778810657	-0.297315
H	 0.7360578877	 1.7878463715	 0.0681393749	 0.282449
H	 0.383166074	-0.92255915	-1.9931706499	 0.110377
H	 1.8620782452	-0.4208366182	-1.0999778968	 0.088386
H	 1.3782263732	-2.7836981257	 0.0328474194	 0.070479
H	 1.8370814789	-0.4558203624	 1.26171884	 0.090325
H	 0.3502458635	-1.0036377168	 2.1091889895	 0.095418
H	-1.1526459304	-2.7367135508	-0.8607060094	 0.115372
H	-1.1393754586	-2.7790364246	 0.9163683844	 0.103054
H	-3.3272905871	-0.9126037533	 0.9179591294	 0.107562
H	-2.6170102802	 0.7894741417	 0.9090147625	 0.125932
122.0396	242.4972	249.3401	280.6202	373.9714	407.2705	425.214	449.6361	547.0523	558.0273	646.5291	734.4332	825.9022	842.7519	855.9522	896.8149	911.2022	929.7901	963.0879	988.606	993.2608	1019.0929	1065.2555	1094.0936	1120.1544	1120.5352	1142.7898	1164.9432	1176.6128	1189.1892	1210.6832	1252.9922	1278.7226	1289.3626	1319.8295	1378.6444	1452.7278	1482.9542	1486.7945	1521.6311	1538.0906	3048.9262	3054.0766	3058.1451	3082.7052	3103.4366	3110.8749	3119.7452	3132.9295	3174.7009	3828.3076
OC12CC(C1)CC21CO1	O[C@@]12C[C@@H](C1)C[C@]12CO1	
InChI=1S/C7H10O2/c8-6-1-5(2-6)3-7(6)4-9-7/h5,8H,1-4H2	InChI=1S/C7H10O2/c8-6-1-5(2-6)3-7(6)4-9-7/h5,8H,1-4H2/t5-,6-,7-/m1/s1
