19
gdb 107236	2.47277	1.60734	1.17336	1.4699	74.78	-0.2284	0.0622	0.2906	1092.3861	0.157424	-422.949334	-422.94061	-422.939666	-422.982567	33.533	
C	-0.1126406509	 1.5454009469	 0.1770332268	-0.502843
C	 0.1064479707	 0.0746798993	 0.0535749011	 0.364117
O	-0.8243386744	-0.8241068385	 0.6836147514	-0.283785
C	 0.5784462766	-0.9691954477	 0.9604911676	-0.061601
C	 1.2541091731	-1.7478765642	-0.2098205385	-0.166494
C	 0.2595800232	-2.0821798101	-1.2900696091	-0.345586
C	 0.7725563202	-0.6652256103	-1.1693980383	 0.260403
C	 1.5234364034	 0.053498812	-2.2464046538	-0.173288
O	 0.6633906118	 0.7781983142	-3.1197455328	-0.415588
H	 0.8066902625	 2.0967965298	-0.0427887221	 0.129436
H	-0.8762857706	 1.8830537873	-0.5312286917	 0.139124
H	-0.4378388475	 1.7933218795	 1.190741746	 0.130763
H	 0.8886858987	-0.9459281147	 1.9986573333	 0.1053
H	 2.2392660183	-2.1916545334	-0.1497102499	 0.096011
H	 0.6729095471	-2.6425483552	-2.124025082	 0.108622
H	-0.7627802429	-2.3220079121	-1.0281639815	 0.13793
H	 2.1970721829	 0.806003346	-1.8202703813	 0.107239
H	 2.1508138729	-0.664768668	-2.7989507734	 0.087825
H	 0.004719705	 0.1570028493	-3.4486808218	 0.282415
81.5148	115.3593	177.5784	222.8838	248.6458	331.6638	352.3864	410.04	442.3386	449.693	573.6686	603.7685	701.2199	770.273	805.5501	856.8033	863.2043	903.8425	936.3023	960.5796	983.8863	1016.5619	1023.5673	1047.5689	1073.671	1096.0628	1099.4526	1153.4555	1195.0652	1234.7997	1256.6561	1287.2727	1351.5052	1375.274	1404.5188	1425.8526	1457.5736	1472.3177	1480.098	1498.5345	1504.4161	2972.0362	3040.3597	3055.8578	3105.0891	3124.4479	3132.7689	3183.7357	3202.3074	3231.9855	3807.1606
CC12OC1C1CC21CO	C[C@]12O[C@H]1[C@H]1C[C@@]21CO	
InChI=1S/C7H10O2/c1-6-5(9-6)4-2-7(4,6)3-8/h4-5,8H,2-3H2,1H3	InChI=1S/C7H10O2/c1-6-5(9-6)4-2-7(4,6)3-8/h4-5,8H,2-3H2,1H3/t4-,5+,6+,7+/m1/s1
