21
gdb 91741	2.92191	1.47489	1.37823	1.1799	77.5	-0.2383	0.0912	0.3296	1070.9621	0.18377	-424.241748	-424.233675	-424.232731	-424.273893	32.375	
C	-0.1838259202	 1.5464751838	-0.0221116923	-0.406974
C	 0.0064158179	 0.0403079427	 0.0228252559	 0.141263
O	 0.7968133785	-0.4130332626	-1.1094999728	-0.305639
C	 1.8931248842	-1.1590681507	-0.5594422974	 0.070096
C	 1.261814131	-1.8624593292	 0.6505328844	-0.252449
C	 0.8218396499	-0.5031963175	 1.2123266088	 0.069481
O	 2.0537371485	 0.2252902576	 1.3003209802	-0.300509
C	 2.828572519	-0.1457780116	 0.127342243	 0.138787
C	 4.2057651745	-0.6439034162	 0.5385379373	-0.411835
H	 0.7646915245	 2.0617189866	 0.1430169171	 0.134194
H	-0.5872349736	 1.8442662211	-0.9937760785	 0.122863
H	-0.8900550674	 1.8633517176	 0.753127024	 0.109286
H	-0.9735807321	-0.4586879243	-0.0176467147	 0.070868
H	 2.3429364877	-1.7637148358	-1.3465728549	 0.080037
H	 0.4392733366	-2.521843185	 0.3681058976	 0.107936
H	 1.9655400674	-2.3839384016	 1.3005861503	 0.107913
H	 0.3227840436	-0.4711565597	 2.1807273671	 0.08
H	 2.9255089219	 0.7344218188	-0.5198366702	 0.081376
H	 4.1489685796	-1.5783656638	 1.1044300514	 0.116971
H	 4.8331439273	-0.8086148991	-0.3439652168	 0.115269
H	 4.6954302811	 0.102356359	 1.1707217606	 0.131067
124.9611	198.3749	207.287	232.5392	262.1063	312.4357	422.2985	476.2304	478.6134	535.3157	629.5448	772.9274	777.4943	825.6548	838.1799	857.7112	899.1733	936.3947	954.3924	967.931	1007.214	1012.3702	1043.219	1070.5632	1107.4256	1108.6688	1134.8986	1141.6985	1154.0737	1219.8441	1265.4367	1283.9851	1300.4812	1311.3128	1343.4673	1356.8585	1383.7651	1390.116	1406.6965	1408.0845	1481.9882	1486.2162	1490.1407	1495.0092	1497.4031	2985.5858	3030.8282	3038.409	3042.5016	3083.9105	3109.9723	3110.2716	3117.4818	3124.586	3129.549	3137.5686	3144.5806
CC1OC2CC1OC2C	C[C@H]1O[C@@H]2C[C@H]1O[C@H]2C	
InChI=1S/C7H12O2/c1-4-6-3-7(8-4)5(2)9-6/h4-7H,3H2,1-2H3	InChI=1S/C7H12O2/c1-4-6-3-7(8-4)5(2)9-6/h4-7H,3H2,1-2H3/t4-,5+,6-,7-/m1/s1
