15
gdb 18452	2.86938	2.44212	1.73017	2.2131	61.85	-0.2553	-0.0619	0.1934	776.9755	0.119255	-399.75072	-399.74389	-399.742946	-399.78158	26.052	
O	 0.288066905	 1.4281647804	 0.1220084961	-0.434498
C	 0.0530525739	 0.0601132642	 0.10775317	 0.136167
C	 0.206553602	-0.811252793	 1.3908283053	-0.222849
N	-1.1371362809	-1.4624891972	 1.1603089109	-0.144264
C	-2.1969954779	-0.3986502689	 1.2456379724	-0.088176
C	-2.1911426064	 0.7002029094	 2.2466745206	 0.142935
O	-1.3541920348	 1.5692952453	 2.3776052861	-0.27355
C	-1.3710773713	-0.5138714901	 0.0109970963	-0.092865
H	-0.1740731192	 1.7786378788	 0.899720672	 0.299353
H	 0.6538059314	-0.3541550354	-0.7068824472	 0.105089
H	 0.9826525171	-1.5763169154	 1.3337593212	 0.122383
H	 0.2985970793	-0.2701855531	 2.3343457986	 0.125844
H	-3.1729251219	-0.8735887342	 1.1746841399	 0.112631
H	-3.0604596999	 0.6727955109	 2.9356175806	 0.10717
H	-1.8564100766	-0.8425524817	-0.9042384629	 0.104629
134.3367	205.8908	235.5418	253.2139	373.4761	428.714	542.1164	643.6161	678.7708	695.2166	744.9951	841.6703	869.7394	900.3108	961.758	968.2232	1013.2252	1057.3384	1072.6707	1101.5127	1161.0837	1187.6108	1231.1558	1256.7669	1281.7907	1345.0287	1355.8872	1419.2001	1437.3792	1481.5405	1495.8019	1785.1938	2923.7191	3074.5375	3080.1596	3137.0942	3137.8487	3151.2401	3681.5382
OC1CN2C(C=O)C12	O[C@H]1CN2[C@@H](C=O)[C@@H]12	
InChI=1S/C5H7NO2/c7-2-3-5-4(8)1-6(3)5/h2-5,8H,1H2	InChI=1S/C5H7NO2/c7-2-3-5-4(8)1-6(3)5/h2-5,8H,1H2/t3-,4-,5-,6?/m0/s1
