19
gdb 52875	2.03427	1.1609	0.92554	2.1796	80.96	-0.2501	0.0241	0.2742	1388.963	0.155375	-422.980878	-422.970283	-422.969339	-423.01786	37.141	
C	 0.0974129126	 1.4757260131	 0.2414115234	-0.505645
C	 0.0790361071	 0.0226000145	 0.1612009926	 0.140821
C	 0.0319741916	-1.180721875	 0.1018417207	-0.01129
C	 0.0492582141	-2.623442964	 0.011765728	 0.209412
C	-0.7948144224	-3.4266945306	 0.9157205655	-0.222694
O	-1.15534032	-3.257880634	-0.4546959298	-0.271239
C	 1.3421762305	-3.2200192829	-0.5522654789	 0.041487
C	 1.5228897123	-2.8798611052	-2.0307754259	-0.409376
O	 2.4520576927	-2.8206462755	 0.235771045	-0.42767
H	 0.7162206285	 1.9120897605	-0.5499041012	 0.153397
H	-0.9138232051	 1.882889894	 0.1350066644	 0.159605
H	 0.4937788125	 1.8167220287	 1.2040088819	 0.154298
H	-0.4618095162	-4.4245206021	 1.1984101585	 0.120291
H	-1.438561582	-2.9215789589	 1.633074398	 0.121093
H	 1.2754590859	-4.3067041673	-0.4352103936	 0.094566
H	 1.5762437702	-1.7950559216	-2.1739553292	 0.116744
H	 2.448441324	-3.3257374654	-2.4037923907	 0.122259
H	 0.6816134415	-3.260419739	-2.6174474399	 0.133311
H	 2.483230222	-1.8561340394	 0.2132376712	 0.280631
24.0635	65.2862	82.0442	127.1883	208.2392	236.379	255.506	297.2313	314.4839	336.0959	369.6617	451.9173	473.7204	542.4451	588.4057	629.0704	836.6732	859.7781	914.7039	954.478	1015.6538	1050.1039	1054.5348	1061.7862	1098.2637	1118.4634	1136.7685	1163.9791	1273.8513	1284.0535	1333.4851	1395.1819	1402.7088	1413.6932	1422.0327	1475.1103	1477.189	1490.1875	1495.9042	1519.9633	2359.4972	3030.0406	3037.5717	3059.6386	3084.818	3092.0619	3094.6075	3111.2591	3126.0177	3178.2996	3777.713
CC#CC1(CO1)C(C)O	CC#C[C@]1(CO1)[C@@H](C)O	
InChI=1S/C7H10O2/c1-3-4-7(5-9-7)6(2)8/h6,8H,5H2,1-2H3	InChI=1S/C7H10O2/c1-3-4-7(5-9-7)6(2)8/h6,8H,5H2,1-2H3/t6-,7+/m1/s1
