15
gdb 75668	2.92672	1.36699	1.1274	2.7049	72.19	-0.2596	-0.0241	0.2355	1079.7607	0.112269	-416.810068	-416.801851	-416.800907	-416.843087	29.656	
C	 0.2284627109	 1.3668016412	 0.020099766	-0.358847
N	-0.2217542105	-0.0108442383	 0.0281250551	-0.145792
C	-0.0853429163	-0.9672106916	-0.9820768033	 0.431875
O	-0.0367982809	-0.8635380309	-2.1735962531	-0.346625
C	 0.0389607689	-2.102690605	 0.0403494513	-0.279916
C	 1.2163410156	-1.779148875	 0.9443940632	-0.315742
C	-0.0709769159	-1.0019159527	 1.0947216505	 0.233316
C	-0.8724269193	-0.9664725051	 2.2758705751	 0.231582
N	-1.502486387	-0.9211650153	 3.2449278194	-0.339498
H	 1.2562836213	 1.4688246154	 0.3925196666	 0.128232
H	 0.190720076	 1.7155328769	-1.0142874653	 0.166776
H	-0.4325663878	 1.991083653	 0.6272168671	 0.149697
H	-0.4528820847	-3.0642586209	 0.0321727169	 0.147195
H	 1.4285029663	-2.5175497552	 1.7116878936	 0.153835
H	 2.0856255835	-1.2652236163	 0.5459392269	 0.143912
108.1554	124.659	144.3525	172.8958	238.1372	277.2096	431.2703	455.1777	515.814	558.9008	625.0591	704.1761	734.7556	790.087	889.3867	920.6332	950.5977	966.0758	1018.627	1056.1088	1102.1988	1151.1654	1161.3825	1222.5815	1247.2033	1343.8927	1361.326	1444.9548	1479.4332	1482.898	1512.0154	1900.0998	2355.3397	3016.7067	3094.8029	3126.3016	3138.526	3219.1799	3238.4225
CN1C(=O)C2CC12C#N	CN1C(=O)[C@H]2C[C@@]12C#N	
InChI=1S/C6H6N2O/c1-8-5(9)4-2-6(4,8)3-7/h4H,2H2,1H3	InChI=1S/C6H6N2O/c1-8-5(9)4-2-6(4,8)3-7/h4H,2H2,1H3/t4-,6+/m1/s1
