18
gdb 108295	3.08664	1.30925	1.07671	3.8662	71.99	-0.2396	-0.0021	0.2374	1135.6142	0.147294	-439.069229	-439.060771	-439.059827	-439.102577	31.583	
O	-0.0616197295	 1.4497169229	 0.1062771445	-0.424542
C	 0.0056042034	 0.0321087037	 0.1034000347	-0.16654
C	-1.4142761719	-0.4761299412	 0.018063639	 0.385426
C	-2.2768239763	-0.3990751792	 1.3132431371	-0.300369
C	-2.2976124923	-1.9568223348	 1.3209628019	-0.185665
N	-1.5867944413	-1.9776858047	-0.004588327	-0.18408
C	-2.4342462375	-1.8718801181	-1.1468185385	 0.384823
O	-3.1731754566	-2.6740485848	-1.6370638255	-0.316531
C	-2.1366618379	-0.3690636154	-1.3457892822	-0.435376
H	 0.8332301403	 1.796536601	 0.1657127179	 0.293863
H	 0.5791090651	-0.3522732891	-0.7547231506	 0.094544
H	 0.4817043	-0.3552481023	 1.0183522313	 0.091092
H	-1.7849422674	 0.0779802152	 2.1624085031	 0.119231
H	-3.2568135175	 0.0625475468	 1.1736347897	 0.117082
H	-1.6929282004	-2.4192407056	 2.1042140305	 0.119862
H	-3.2739606918	-2.4458705392	 1.2881228972	 0.132789
H	-3.0329416023	 0.252209701	-1.394607807	 0.139015
H	-1.4877324761	-0.1234167561	-2.1903431758	 0.135376
74.7367	105.7026	161.8069	218.9596	247.3918	335.1178	354.465	382.0349	472.8276	539.0621	650.8112	686.3631	750.7469	829.2457	848.1818	892.7747	934.9911	959.11	970.6953	1009.5418	1039.8003	1070.6413	1083.4752	1135.7699	1177.1371	1188.2643	1200.4516	1213.0822	1237.0564	1252.7537	1286.0431	1312.8666	1323.9753	1441.3049	1463.0727	1482.6103	1508.6094	1521.4582	1890.3375	2969.2484	3002.0592	3066.2659	3073.0742	3075.519	3114.9781	3131.529	3135.4102	3833.3266
OCC12CCN1C(=O)C2	OC[C@]12CCN1C(=O)C2	
InChI=1S/C6H9NO2/c8-4-6-1-2-7(6)5(9)3-6/h8H,1-4H2	InChI=1S/C6H9NO2/c8-4-6-1-2-7(6)5(9)3-6/h8H,1-4H2/t6-/m1/s1
