16
gdb 66604	3.04627	2.19166	1.87369	2.0394	78.52	-0.1941	-0.0356	0.1585	787.6102	0.12447	-400.597062	-400.590637	-400.589693	-400.627159	27.514	
O	 0.2517130219	 1.3716159167	-0.0720515132	-0.431616
C	-0.2398163318	 0.134053357	 0.1088927782	 0.415544
C	 1.1937273153	-1.3263530974	-0.7578279337	-0.089425
C	-0.1817311092	-0.8827544569	-1.0583058434	-0.104873
N	-0.6970756228	-2.1410011393	-0.3925286996	-0.119079
C	-1.6073142419	-1.6512960325	 0.691377269	-0.18938
C	-0.7826014499	-0.5078594204	 1.2764688673	-0.252446
C	 0.5793470553	-1.0429118541	 1.2866830541	-0.120103
C	 0.6639476346	-2.2239252597	 0.2681869507	-0.059728
H	 0.0912731587	 1.8597714037	 0.7458792985	 0.308802
H	 2.1680489995	-0.9050564673	-0.9596889991	 0.128217
H	-0.5633679739	-0.5788661188	-2.0301680294	 0.098223
H	-2.5570483999	-1.3243217112	 0.2584190666	 0.099857
H	-1.7937599263	-2.4591600511	 1.4042604524	 0.104055
H	 1.466618423	-0.6194679357	 1.735076676	 0.117766
H	 1.0703876073	-3.1828154129	 0.5804463156	 0.094186
224.7577	288.5599	369.1302	411.7666	421.7374	473.4374	556.3014	597.4503	642.7833	706.7491	747.8554	758.5355	805.3286	835.8069	876.2001	906.6246	933.0971	941.1247	967.7174	995.4269	999.3021	1089.2947	1106.2491	1126.2454	1150.6807	1168.2417	1178.849	1223.703	1229.7761	1280.42	1293.9864	1322.2366	1362.63	1435.9322	1491.334	3061.1195	3114.1035	3137.3205	3144.5299	3235.4579	3240.474	3783.7022
OC12C3C1N1CC2=CC31	O[C@]12[C@H]3[CH][C@@H]4N3C[C]1[C@H]24	
InChI=1S/C7H7NO/c9-7-3-1-4-5(7)6(7)8(4)2-3/h1,4-6,9H,2H2	InChI=1S/C7H7NO/c9-7-3-2-8-4(6(3)7)1-5(7)8/h1,4-6,9H,2H2/t4-,5+,6-,7-/m0/s1
