23
gdb 118057	3.5892	0.6878	0.60555	1.3644	78.9	-0.251	0.0663	0.3174	1882.162	0.202394	-462.556036	-462.544329	-462.543384	-462.593394	41.662	
C	 0.0102704172	 1.5792178027	 0.0174208951	-0.384327
C	-0.0091195612	 0.0491535215	 0.029708829	-0.188362
C	-1.4242170379	-0.5347229407	-0.0084093075	 0.108846
O	-2.1266505366	-0.1428609686	-1.1859659348	-0.425599
C	-1.4313651196	-2.0714959427	 0.1505667241	 0.084791
O	-0.730038431	-2.4651026468	 1.330722629	-0.428451
C	-2.8451053323	-2.6526612369	 0.1110982557	-0.188865
C	-2.8634035262	-4.175494989	 0.1087536273	-0.079226
O	-4.221470771	-4.5923168453	 0.1226449482	-0.422593
H	 1.034666742	 1.9618120165	-0.0180384973	 0.109926
H	-0.5331929622	 1.9692243171	-0.8476532987	 0.124014
H	-0.4660330718	 1.9855937277	 0.9167219356	 0.113036
H	 0.546259119	-0.3405468985	-0.8376031816	 0.080343
H	 0.5025418098	-0.3413265228	 0.9142989175	 0.114699
H	-2.0134069401	-0.1069304186	 0.8167054563	 0.074899
H	-1.5865831859	-0.3965612063	-1.9434129722	 0.278857
H	-0.8382558162	-2.4976888568	-0.6727123446	 0.07419
H	-1.2675732971	-2.2014883731	 2.0866775843	 0.279939
H	-3.4096017247	-2.2937188948	 0.9840134435	 0.091121
H	-3.3671575513	-2.2741993933	-0.7718747714	 0.123829
H	-2.3409868106	-4.5490315625	-0.7880560706	 0.080643
H	-2.315693758	-4.5535438556	 0.9840009598	 0.093782
H	-4.2387823044	-5.5529340733	 0.1601149734	 0.284505
57.3142	81.5729	88.4905	116.2583	135.0965	211.566	239.3483	264.8921	267.4427	293.0355	306.4311	312.5747	372.1078	412.7513	474.3925	538.7984	585.6566	781.3876	800.0328	881.2164	925.1937	986.8321	1014.5443	1031.828	1064.5639	1077.4646	1089.3974	1098.5737	1132.0053	1147.9953	1202.5051	1214.7803	1246.7754	1265.6522	1298.1063	1310.1965	1327.6898	1351.6979	1381.2801	1395.9859	1404.406	1413.2352	1418.624	1460.4284	1486.8718	1491.5049	1497.013	1509.6577	1531.7153	2960.3101	2990.7952	2993.9014	3006.8181	3011.9933	3022.4289	3036.4179	3085.4428	3101.4335	3103.0191	3118.9103	3790.6789	3792.2052	3829.3073
CCC(O)C(O)CCO	CC[C@@H](O)[C@@H](O)CCO	
InChI=1S/C6H14O3/c1-2-5(8)6(9)3-4-7/h5-9H,2-4H2,1H3	InChI=1S/C6H14O3/c1-2-5(8)6(9)3-4-7/h5-9H,2-4H2,1H3/t5-,6+/m1/s1
