19
gdb 98832	3.15783	1.01954	0.93062	2.3991	72.15	-0.2567	-0.0385	0.2181	1319.5296	0.157279	-460.157395	-460.147906	-460.146962	-460.192844	33.837	
C	-0.8523343631	 1.2650068163	 0.3141973789	-0.414452
C	-0.1684409104	-0.0723900691	 0.1178456318	 0.15768
O	 0.8687541846	-0.0176560226	-0.8806495186	-0.282147
C	 1.8665458956	-0.495515333	 0.0405014674	-0.079819
C	 0.8515491915	-0.59888467	 1.1969149262	-0.18836
C	 1.0879708459	 0.2922474301	 2.3866805682	 0.352776
O	 1.7303759839	 1.3222154311	 2.325443546	-0.32863
C	 0.4689811849	-0.1138754831	 3.715211031	-0.134269
O	 0.6969451137	 0.8407710152	 4.7039748518	-0.418738
H	-0.1363606003	 2.0368218229	 0.6057233862	 0.147776
H	-1.3230957434	 1.566385191	-0.6265500472	 0.133533
H	-1.6350483705	 1.1958222879	 1.0780474766	 0.116856
H	-0.9086385896	-0.8437631647	-0.1343085596	 0.085752
H	 2.302835436	-1.4485572712	-0.2794113257	 0.104991
H	 2.6574015693	 0.2427047067	 0.2072677991	 0.127002
H	 0.6233282296	-1.6150802914	 1.5247904471	 0.090255
H	-0.6103625016	-0.2824692654	 3.5584819099	 0.117541
H	 0.8906107511	-1.0966963742	 3.9921269866	 0.11698
H	 1.2466926527	 1.5178677536	 4.2770212743	 0.295272
37.6827	65.9696	105.4202	173.9422	206.8998	253.8533	322.9962	342.2988	373.6462	415.3564	450.9506	566.4641	679.0638	745.1581	814.8969	869.4988	891.9132	953.4508	976.2132	1026.6825	1039.7555	1096.3622	1104.0207	1117.9363	1147.1658	1157.7926	1181.6903	1221.082	1243.8425	1285.4314	1307.3078	1359.928	1370.9659	1393.612	1412.221	1451.2907	1483.0702	1487.3777	1498.8596	1517.3345	1783.7991	2956.8919	2975.3261	3006.3768	3029.9375	3038.2193	3081.6368	3094.0329	3107.031	3134.5234	3680.3228
CC1OCC1C(=O)CO	C[C@H]1OC[C@H]1C(=O)CO	
InChI=1S/C6H10O3/c1-4-5(3-9-4)6(8)2-7/h4-5,7H,2-3H2,1H3	InChI=1S/C6H10O3/c1-4-5(3-9-4)6(8)2-7/h4-5,7H,2-3H2,1H3/t4-,5-/m1/s1
