19
gdb 106196	3.33707	1.42938	1.39086	1.3996	76.69	-0.2253	0.0841	0.3094	1034.5581	0.160179	-385.836935	-385.829623	-385.828678	-385.868833	29.481	
C	 0.0250021184	 1.5251879907	-0.1413946408	-0.373785
C	-0.0517111496	 0.005767369	 0.0643176739	-0.320576
C	 0.6977428527	-0.4579768289	 1.2788412	 0.339435
C	 2.1857524733	-0.7518643579	 1.3606081665	 0.018536
O	 2.7843144547	-0.199731792	 2.49939479	-0.229379
C	 1.7330995142	-0.2878089676	 3.4190455895	 0.077941
C	 0.8628554886	-1.5079751813	 3.1776995957	-0.128479
C	 0.3806017495	-0.1214086703	 2.7573750691	-0.201656
C	 1.1859747443	-1.8428287909	 1.7107654892	-0.209633
H	 1.0615461294	 1.8530618851	-0.2688424861	 0.122636
H	-0.5406535709	 1.8313840269	-1.0266625827	 0.110927
H	-0.3872666968	 2.061377023	 0.7198446669	 0.119176
H	-1.1030077484	-0.3032723035	 0.1369752992	 0.10051
H	 0.352216195	-0.5074749202	-0.8178209571	 0.097658
H	 2.8272163706	-0.7941481649	 0.4902399061	 0.104052
H	 1.96470958	 0.0906588984	 4.4053608945	 0.106906
H	 0.5042719688	-2.1796514908	 3.944675536	 0.090519
H	-0.4284448212	 0.4915239673	 3.1307584355	 0.087999
H	 1.1164821775	-2.8037574421	 1.2195450248	 0.087214
83.5124	134.198	196.8852	302.227	363.7637	533.6359	584.3906	638.1694	733.406	747.3029	759.3712	766.4586	788.3342	838.6361	854.1717	868.6011	916.2987	923.7277	969.8111	987.6357	992.9327	1014.3609	1026.4403	1035.6121	1052.51	1078.8567	1110.598	1122.5335	1177.0479	1204.0184	1229.8396	1252.3418	1287.2122	1307.9768	1356.0737	1377.2084	1409.363	1436.6473	1483.8136	1497.3009	1506.9402	3013.2279	3035.5846	3043.9646	3103.8801	3108.924	3200.9032	3203.8003	3211.9812	3213.5565	3224.3767
CCC12C3OC4C(C14)C23	CC[C@@]12[C@H]3O[C@@H]4[C@@H]([C@H]14)[C@@H]23	
InChI=1S/C8H10O/c1-2-8-4-3-5(8)7(8)9-6(3)4/h3-7H,2H2,1H3	InChI=1S/C8H10O/c1-2-8-4-3-5(8)7(8)9-6(3)4/h3-7H,2H2,1H3/t3-,4-,5+,6+,7-,8+/m0/s1
