15
gdb 44713	3.37946	1.35154	1.14597	3.9062	65.95	-0.2433	0.0125	0.2557	1042.3226	0.114958	-454.010085	-454.002817	-454.001873	-454.042293	27.582	
O	 0.0046885381	-0.0148935185	-0.0278400422	-0.351401
C	 0.0042050607	 1.1842075784	-0.0134330333	 0.429168
N	-0.9920907184	 2.1291276145	 0.0623854196	-0.329999
C	-0.1224922162	 3.3104708165	 0.0400928603	 0.021899
C	 0.038551643	 4.0723180023	 1.3559298824	-0.349438
C	 1.2078608334	 3.3900971488	 2.0861216028	 0.39556
O	 1.5695552459	 3.5884665322	 3.2210075291	-0.358104
N	 1.7952189522	 2.5186550598	 1.1958640604	-0.291407
C	 1.0859520262	 2.3147548745	-0.0388140283	-0.179389
H	-1.9915609091	 2.0382284719	 0.1770890669	 0.25645
H	-0.2785721924	 3.949517807	-0.8311466428	 0.100853
H	 0.2900566836	 5.1247686125	 1.1934698087	 0.139156
H	-0.8540316387	 4.0408966348	 1.9846827677	 0.139033
H	 2.5201330537	 1.8945136842	 1.515268044	 0.264948
H	 1.7268446779	 2.3405901212	-0.9223249254	 0.11267
79.3878	101.2816	234.7963	358.1537	408.8704	457.2881	481.1707	508.5978	592.928	642.6603	660.4326	746.2691	814.9603	838.8814	869.6679	890.7401	958.9794	1021.4713	1050.8102	1098.1724	1158.2826	1171.4423	1188.143	1238.7048	1273.115	1293.6529	1341.2519	1373.6673	1377.5261	1422.9919	1455.2455	1838.3443	1902.6107	3068.2002	3086.6401	3096.8987	3120.0984	3601.5403	3636.9595
O=C1NC2CC(=O)NC12	O=C1N[C@H]2CC(=O)N[C@@H]12	
InChI=1S/C5H6N2O2/c8-3-1-2-4(7-3)5(9)6-2/h2,4H,1H2,(H,6,9)(H,7,8)	InChI=1S/C5H6N2O2/c8-3-1-2-4(7-3)5(9)6-2/h2,4H,1H2,(H,6,9)(H,7,8)/t2-,4+/m0/s1
