16
gdb 106860	2.19468	1.62377	1.13001	4.6597	71.6	-0.2417	-0.0072	0.2345	1094.1662	0.122834	-437.83185	-437.8234	-437.822455	-437.865367	30.764	
C	-0.6388730449	 0.663857059	 0.1671054024	-0.269733
O	 0.7341557166	 0.5015333972	-0.1589078884	-0.263182
C	 1.0352493195	-0.3347939596	-1.190364791	 0.317093
C	 0.1591801546	-0.8058142959	-2.3139133576	-0.403808
C	 0.8724636695	-1.8501966109	-1.4650785604	 0.259412
O	 2.2328856184	-1.9714921427	-1.8754909369	-0.309651
C	 2.4961208308	-0.5811131411	-1.5331382991	-0.140442
C	 0.2304590193	-2.9208876932	-0.7843624977	 0.220583
N	-0.3138058777	-3.769728101	-0.2143821759	-0.358447
H	-1.1990921087	 1.115116783	-0.660993915	 0.12718
H	-1.1010951379	-0.2929562447	 0.4413031665	 0.140888
H	-0.6686992561	 1.3334226137	 1.0275472353	 0.146329
H	-0.9080729446	-0.7448418522	-2.1293610033	 0.143891
H	 0.4556019435	-0.6980033104	-3.3550827815	 0.133296
H	 2.9200826698	-0.0186709587	-2.3706792074	 0.121249
H	 3.1440780776	-0.5156995526	-0.65416578	 0.135341
58.9863	111.9845	165.9476	213.2212	257.8079	291.1864	400.1397	404.6406	448.6956	559.4389	581.6403	614.7249	682.6737	771.1138	828.2036	926.8741	956.8044	987.2085	1022.6861	1072.0687	1093.1984	1125.8799	1147.3125	1176.885	1201.9073	1267.5871	1295.6444	1337.9159	1383.5233	1468.8439	1493.0524	1497.2313	1504.7404	1517.728	2337.4334	3010.8266	3048.9596	3074.8659	3108.7609	3110.4566	3142.9249	3216.1594
COC12CC1(OC2)C#N	CO[C@]12C[C@]1(OC2)C#N	
InChI=1S/C6H7NO2/c1-8-6-2-5(6,3-7)9-4-6/h2,4H2,1H3	InChI=1S/C6H7NO2/c1-8-6-2-5(6,3-7)9-4-6/h2,4H2,1H3/t5-,6-/m0/s1
