21
gdb 109091	2.90176	1.26221	1.01916	0.6306	95.06	-0.2072	-0.0263	0.1809	1259.8773	0.184132	-349.984701	-349.976114	-349.975169	-350.017935	33.409	
C	 0.0254705762	 1.5658849893	 0.1804909214	-0.36802
C	-0.0057217006	 0.048736964	-0.0819102937	-0.27777
C	-1.3917416372	-0.5379897341	-0.024076791	 0.293101
C	-2.0110186713	-1.0350382397	-1.1176958383	-0.150771
C	-3.3816190809	-1.4788227369	-1.1979244815	-0.093338
C	-4.4322524613	-0.9991258357	-0.477495217	-0.111378
C	-4.3627641954	 0.0528183774	 0.5082236665	-0.052993
C	-3.2917025756	 0.3192398523	 1.2794153255	-0.082688
C	-2.0952590147	-0.5952885569	 1.3170801865	-0.352841
H	 1.0518064035	 1.944600719	 0.1443320713	 0.113021
H	-0.5660703665	 2.1010026267	-0.5683071577	 0.124193
H	-0.3847499041	 1.8100479962	 1.1656942798	 0.117312
H	 0.4356669779	-0.1554271546	-1.0634995383	 0.100343
H	 0.6317581655	-0.4482479736	 0.6635757703	 0.100586
H	-1.4392831022	-1.0986744737	-2.0423398818	 0.079571
H	-3.6097797266	-2.1759905439	-2.00169157	 0.08621
H	-5.426021345	-1.34598356	-0.7517591451	 0.085943
H	-5.2440516322	 0.6842308979	 0.6026384692	 0.087111
H	-3.2856753009	 1.2058683731	 1.9077741518	 0.089347
H	-2.4295155955	-1.6253865313	 1.5032293817	 0.117399
H	-1.4147672232	-0.3161102556	 2.1259452504	 0.095663
75.2571	97.9868	202.8276	245.6698	261.8623	345.6814	378.1517	390.5916	402.4684	558.2438	615.0756	636.3296	731.6894	792.6049	797.9206	820.3913	883.7924	908.6702	937.1207	961.8553	965.2584	984.3695	999.433	1012.8745	1058.4374	1080.8984	1118.4158	1168.0058	1220.474	1251.9858	1271.8514	1277.149	1325.7248	1346.3016	1373.0081	1404.3742	1411.611	1471.1413	1476.5041	1481.948	1497.201	1504.8932	1581.3996	1673.4546	1677.4478	3000.8371	3002.9889	3035.5498	3062.9219	3086.7252	3104.8944	3113.0244	3128.9897	3136.525	3144.2454	3159.8371	3169.855
CCC1=CC=CC=CC1	CCC1=CC=CC=CC1	
InChI=1S/C9H12/c1-2-9-7-5-3-4-6-8-9/h3-7H,2,8H2,1H3	InChI=1S/C9H12/c1-2-9-7-5-3-4-6-8-9/h3-7H,2,8H2,1H3
