15
gdb 21159	3.26872	1.92722	1.2371	3.6122	65.56	-0.1979	0.0191	0.217	946.4902	0.11997	-395.961716	-395.953772	-395.952828	-395.994185	28.376	
C	-0.0746619814	 1.4585081558	-0.1563627428	-0.330552
N	-0.0443063315	 0.0456895188	 0.18899174	-0.383953
C	-1.1635061132	-0.7237968923	 0.1153438138	 0.529104
C	-1.297821069	-2.0914405113	 0.0231726273	-0.050784
N	-0.2041106339	-2.9917802065	-0.088988224	-0.62312
C	-2.7054396196	-2.2654869178	 0.0550772311	-0.003735
N	-3.3706365725	-1.140089435	 0.1443793803	-0.177971
O	-2.3590200476	-0.1358557794	 0.1870049613	-0.230418
H	 0.8912272058	 1.9009171298	 0.0959670979	 0.130273
H	-0.2808193713	 1.6406612816	-1.2206511915	 0.125633
H	-0.8466370838	 1.9606230388	 0.430287122	 0.157916
H	 0.7834487741	-0.4735291658	-0.06846095	 0.256264
H	-0.098302668	-3.5737745785	 0.7361808459	 0.241942
H	-0.3040506279	-3.6139380398	-0.8840809448	 0.240795
H	-3.2653642402	-3.1909893083	 0.0067998935	 0.118606
87.6937	130.7651	174.5723	203.9408	264.3309	300.7537	321.4908	505.1008	596.7456	629.0156	655.1984	735.4615	761.7284	818.2907	888.0534	914.5919	936.6396	1068.4542	1137.9993	1154.4389	1187.7379	1216.8747	1235.8177	1339.8254	1428.0479	1450.1018	1473.6813	1489.4819	1513.9165	1571.6724	1648.6062	1701.9635	3004.053	3098.2514	3139.8197	3222.446	3493.816	3560.451	3598.759
CNC1=C(N)C=NO1	CNc1c(N)cno1	
InChI=1S/C4H7N3O/c1-6-4-3(5)2-7-8-4/h2,6H,5H2,1H3	InChI=1S/C4H7N3O/c1-6-4-3(5)2-7-8-4/h2,6H,5H2,1H3
