17
gdb 54214	2.62977	1.43851	1.33616	3.1438	67.9	-0.2451	0.0144	0.2595	1035.7291	0.136181	-455.200199	-455.191487	-455.190543	-455.23401	32.128	
C	 0.074755644	 1.4893725325	-0.0371767767	-0.433472
C	-0.0381087061	-0.031430404	-0.0204935338	 0.270311
C	 0.7973011744	-0.7421391004	-1.129025353	-0.221428
N	 1.7243312255	-1.6285658109	-0.4114124812	-0.251491
C	 1.5123326025	-1.4343832523	 0.8188179928	 0.103894
O	 0.5625731929	-0.540971468	 1.2120194908	-0.273061
C	-1.5207763971	-0.4357231694	-0.0942203703	 0.355245
N	-2.0397365345	-0.9660724272	 1.0389630196	-0.52458
O	-2.1501096056	-0.2485261684	-1.1185295311	-0.378198
H	 1.1266043025	 1.7883331282	-0.0355588263	 0.126261
H	-0.4071553173	 1.8725191186	-0.939834511	 0.153821
H	-0.4171687342	 1.9296471035	 0.8348098049	 0.129654
H	 0.1629961822	-1.3097931311	-1.81386303	 0.143989
H	 1.3658946786	-0.0230484828	-1.7285312777	 0.120116
H	 2.0327102526	-1.9203509851	 1.6368096018	 0.141537
H	-1.4565999009	-1.1248375301	 1.8419126393	 0.272151
H	-3.0055237094	-1.2489619531	 1.0431447619	 0.265252
49.3762	76.7315	221.7247	243.2218	256.65	299.8663	315.4974	365.7667	472.0305	484.0023	542.6548	615.9438	645.262	769.7034	789.8072	865.1032	881.5381	948.4514	956.4801	984.1087	999.3189	1083.2425	1105.8447	1152.2035	1158.6107	1197.7851	1243.4429	1317.157	1337.5356	1377.2166	1402.557	1485.0368	1495.0536	1506.4673	1595.817	1717.158	1796.0809	3045.5866	3049.4674	3103.2995	3121.1351	3136.9311	3215.2646	3604.9973	3745.5272
CC1(CN=CO1)C(N)=O	C[C@]1(CN=CO1)C(=O)N	
InChI=1S/C5H8N2O2/c1-5(4(6)8)2-7-3-9-5/h3H,2H2,1H3,(H2,6,8)	InChI=1S/C5H8N2O2/c1-5(4(6)8)2-7-3-9-5/h3H,2H2,1H3,(H2,6,8)/t5-/m0/s1
