17
gdb 99837	2.02137	1.57238	1.14042	5.648	70.54	-0.255	0.0111	0.2661	1121.6647	0.135217	-455.129829	-455.120408	-455.119464	-455.163936	35.13	
N	-0.1745981865	 1.4772220804	 0.1472753058	-0.544971
C	-0.0209840379	 0.0095378354	 0.0012027418	-0.118086
C	-1.4418354359	-0.6070222484	-0.0259866014	-0.189916
N	-2.1469743856	-0.2813355324	 1.2203103634	-0.531494
H	-3.0675955695	-0.7038798195	 1.2480188711	 0.24837
H	-0.8067029299	-0.744116891	 2.1420677606	 0.326781
H	-2.2401583715	 0.7277924495	 1.2951754401	 0.259854
C	 0.6704009691	-0.3742861789	-1.2338980898	 0.338383
C	 1.1670512389	-0.6648391968	-2.2891337345	-0.441161
C	 0.8419444672	-0.4334368367	 1.2375562496	 0.435499
O	 2.0391127508	-0.3266368951	 1.2077465822	-0.338924
O	 0.175719626	-0.8729820031	 2.2969400256	-0.383856
H	 0.7404309554	 1.8757498829	 0.3440315464	 0.255837
H	-0.4604958248	 1.8625966925	-0.7502232445	 0.236144
H	-1.9537924825	-0.2402471053	-0.9268613063	 0.111268
H	-1.3614285595	-1.6942871432	-0.1128653337	 0.135658
H	 1.6414747062	-0.9244786303	-3.2033941065	 0.200616
52.6177	140.3489	155.8542	205.3809	257.8362	308.1728	312.0064	330.6236	382.4792	416.7476	467.1172	508.6082	551.7003	625.0244	654.5154	656.5786	745.5323	776.6829	864.6757	907.2043	947.7403	1031.9782	1046.9795	1066.7634	1079.0029	1152.3846	1210.8594	1252.3922	1293.8749	1359.1498	1416.0163	1502.5456	1532.7075	1620.9679	1655.9221	1852.5467	2232.3449	3001.7418	3052.952	3093.9668	3476.35	3500.3969	3503.9915	3553.4413	3596.7529
NC(C[NH3+])(C#C)C([O-])=O	N[C@@](CN)(C#C)C(=O)O	
InChI=1S/C5H8N2O2/c1-2-5(7,3-6)4(8)9/h1H,3,6-7H2,(H,8,9)	InChI=1S/C5H8N2O2/c1-2-5(7,3-6)4(8)9/h1H,3,6-7H2,(H,8,9)/t5-/m1/s1
