17
gdb 74073	2.72721	1.55097	1.12573	5.691	77.73	-0.2162	-0.024	0.1922	1088.8407	0.136707	-418.02198	-418.013687	-418.012743	-418.05438	32.134	
C	-0.0510606098	 1.5180469196	 0.031417759	-0.488374
C	 0.1166770461	 0.0260560283	 0.0184125095	 0.196888
N	-0.7276711583	-0.8614328196	 0.869652781	-0.35836
C	 0.7513380166	-0.7959563693	 1.0658997391	-0.222139
C	 1.4461702489	-1.9253148673	 0.362248	 0.439482
N	 2.1650069537	-2.8338903795	 1.0732742536	-0.593267
C	 1.2546607639	-1.8467316176	-0.9820004378	-0.343854
C	 0.4606549267	-0.6669926558	-1.312552338	 0.402301
O	 0.1232402748	-0.2494005079	-2.401345418	-0.36771
H	 0.8607446978	 2.0155844219	-0.3137186131	 0.134434
H	-0.8579149725	 1.8065014726	-0.6487066517	 0.149886
H	-0.2851796033	 1.8875942443	 1.0353158994	 0.105129
H	-1.1666588727	-0.273653747	 1.5816657687	 0.225387
H	 1.1573556811	-0.383336281	 1.9838910317	 0.097416
H	 1.9716011914	-2.9310322806	 2.056821159	 0.263199
H	 2.4648509779	-3.6783050194	 0.6119599502	 0.265257
H	 1.5852128678	-2.5641052218	-1.7211576527	 0.094323
140.5422	158.9003	176.8931	249.4701	298.6834	311.8691	393.7138	405.45	489.8992	501.3754	560.8274	608.5606	672.4273	711.7288	755.9861	822.5682	839.203	879.6578	890.7659	965.2179	1009.4519	1050.1774	1085.8706	1107.513	1138.8682	1177.3418	1270.8708	1290.0322	1335.0389	1406.63	1417.3369	1446.7512	1477.5924	1498.392	1629.07	1677.6122	1797.3426	3034.7825	3103.8486	3113.165	3166.0279	3220.336	3432.6967	3587.672	3699.2635
CC12NC1C(N)=CC2=O	C[C@]12N[C@H]1C(=CC2=O)N	
InChI=1S/C6H8N2O/c1-6-4(9)2-3(7)5(6)8-6/h2,5,8H,7H2,1H3	InChI=1S/C6H8N2O/c1-6-4(9)2-3(7)5(6)8-6/h2,5,8H,7H2,1H3/t5-,6+/m0/s1
