19
gdb 17350	3.9956	1.40895	1.17932	3.0662	72.69	-0.223	0.0818	0.3048	1063.8162	0.164589	-365.009951	-365.001661	-365.000717	-365.042768	31.459	
C	-0.2634358608	 1.4044604623	-0.0478273635	-0.407703
C	 0.0412608035	-0.066580668	 0.1164300821	 0.031557
C	 1.3944609723	-0.6181383135	-0.1822376417	-0.25466
N	 0.9030380293	-0.5701293223	 1.1927362152	-0.104594
C	 1.5335562855	 0.3323408921	 2.1192120701	-0.010047
C	 0.7941740321	 0.6118185957	 3.4151105918	-0.341654
C	 1.9672695514	-0.3389811592	 3.402202316	 0.133306
O	 1.754859943	-1.7066288581	 3.5269409074	-0.432921
H	 0.625214995	 2.026098875	 0.0865088113	 0.120577
H	-0.6568624359	 1.5944484589	-1.0519661232	 0.123849
H	-1.0184966856	 1.7329873421	 0.6738293579	 0.130186
H	-0.8116180346	-0.7182888798	-0.0684834617	 0.093666
H	 1.5173075877	-1.6075480251	-0.6145182998	 0.117874
H	 2.1680107108	 0.0964997766	-0.4603424338	 0.112444
H	 2.1579973953	 1.1249992507	 1.7083920116	 0.080015
H	 0.9061125322	 1.5931384605	 3.8637694681	 0.10935
H	-0.1870468816	 0.162590191	 3.5247074634	 0.118811
H	 2.8963446959	-0.0232896086	 3.8669687377	 0.097077
H	 1.2723827046	-1.9569977303	 2.7221833712	 0.282867
60.5207	136.0747	180.3696	225.8631	232.0851	348.7165	404.9997	454.1663	489.8892	520.6796	611.2957	736.7296	785.4327	805.9675	834.7868	898.2109	915.0773	975.4465	1013.1352	1033.6254	1048.4987	1075.9984	1094.9069	1115.1219	1121.5941	1137.166	1154.9561	1192.1636	1196.6537	1223.8736	1322.383	1354.5034	1381.4743	1404.0706	1423.9026	1436.3902	1480.146	1489.3802	1497.6678	1511.9897	3039.2786	3091.7744	3094.9919	3099.862	3107.2345	3127.8495	3130.3252	3155.7553	3179.4546	3223.5534	3670.1704
CC1CN1C1CC1O	C[C@H]1CN1[C@H]1C[C@H]1O	
InChI=1S/C6H11NO/c1-4-3-7(4)5-2-6(5)8/h4-6,8H,2-3H2,1H3	InChI=1S/C6H11NO/c1-4-3-7(4)5-2-6(5)8/h4-6,8H,2-3H2,1H3/t4-,5-,6+,7?/m0/s1
