25
gdb 102645	1.74561	1.21544	0.83749	2.2268	85.77	-0.2463	0.0689	0.3152	1533.6178	0.225897	-426.631792	-426.620181	-426.619237	-426.669039	42.089	
C	-0.3031132633	 1.7333880165	-0.2853916481	-0.387851
C	 0.2049483579	 0.3178370333	-0.0083641181	-0.169701
C	 0.8861060265	-0.3378378356	-1.2112819377	 0.092265
C	 1.3809680545	-1.7574179164	-0.8994361796	-0.062138
O	 0.2990836551	-2.6231089961	-0.6166755282	-0.423815
O	-0.0793404624	-0.4270950451	-2.2662055021	-0.286124
C	 0.433517584	-0.3796338669	-3.6014590777	 0.144723
C	-0.5588814914	-1.1309457043	-4.482554468	-0.391371
C	 0.6277032022	 1.068757746	-4.0553161651	-0.384733
H	 0.5185550874	 2.4066917651	-0.5564903091	 0.105848
H	-1.0208959236	 1.7316477111	-1.1093505874	 0.128209
H	-0.7962497969	 2.1523331894	 0.5970010227	 0.110825
H	 0.9252549118	 0.3304810396	 0.818937533	 0.093654
H	-0.6186440581	-0.3301923254	 0.3089161961	 0.11267
H	 1.7391560917	 0.280357136	-1.5305737299	 0.06425
H	 1.9790745844	-2.1337992938	-1.7461841575	 0.079787
H	 2.0334383558	-1.7477021642	-0.0192984863	 0.102165
H	-0.3679994465	-2.4170759888	-1.2846133421	 0.285098
H	 1.4031120744	-0.8992302629	-3.636317697	 0.072322
H	-0.6507288631	-2.1727121811	-4.1624633292	 0.117122
H	-1.5471675619	-0.6643867859	-4.4198174953	 0.125644
H	-0.2366525363	-1.1175064258	-5.5279765486	 0.115704
H	 1.3135070102	 1.6066910693	-3.3944113126	 0.117977
H	 1.0425123369	 1.1027109087	-5.0679937181	 0.11368
H	-0.3309011594	 1.5971477475	-4.0552621844	 0.123786
51.0507	64.5171	95.7925	116.2589	177.9231	210.3288	227.0218	228.7957	263.2452	282.7662	342.1863	381.2551	436.6153	467.9095	475.7036	492.6831	671.9515	763.0624	832.8708	853.8962	894.8635	927.7909	941.8356	951.1195	993.2111	1024.8662	1065.7755	1089.6894	1130.6028	1144.6686	1153.8993	1181.269	1204.6441	1227.9089	1285.0614	1308.1222	1356.1275	1364.8903	1366.3102	1395.3627	1399.5185	1404.5926	1413.6767	1419.7674	1436.3519	1480.9857	1482.2891	1485.2288	1494.5711	1497.6429	1506.3215	1506.6771	1512.1021	2959.6185	2982.1905	2996.8529	3032.8339	3035.442	3036.1327	3041.3659	3066.3217	3079.9521	3100.1627	3107.4722	3112.2178	3116.3834	3118.2074	3123.728	3764.8069
CCC(CO)OC(C)C	CC[C@@H](CO)OC(C)C	
InChI=1S/C7H16O2/c1-4-7(5-8)9-6(2)3/h6-8H,4-5H2,1-3H3	InChI=1S/C7H16O2/c1-4-7(5-8)9-6(2)3/h6-8H,4-5H2,1-3H3/t7-/m0/s1
