27
gdb 109767	2.2453	1.05826	0.84148	0.0998	96.48	-0.2565	0.0753	0.3317	1573.1059	0.250193	-353.559995	-353.548423	-353.547479	-353.59661	42.813	
C	 4.3205753251	 0.8822254068	-0.619224428	-0.377546
C	 2.8123793429	 0.7331241759	-0.3793234325	-0.193357
C	 2.1574001449	-0.2093405472	-1.3723432707	-0.030177
C	 2.1072031506	-1.714478036	-1.1751563707	-0.038841
C	 2.6953459038	-2.4070832452	 0.037589566	-0.409379
C	 0.8286453276	-0.8989931476	-1.1296981659	-0.019877
C	-0.0116517018	-0.7067331137	 0.1241808357	 0.025592
C	-0.8412511989	 0.5837207032	 0.0286647363	-0.387131
C	-0.9233079261	-1.9223264802	 0.3554368019	-0.387772
H	 4.8366356511	-0.0766080523	-0.5055246531	 0.11864
H	 4.5232227864	 1.2467265866	-1.6324819864	 0.112541
H	 4.7674092467	 1.5913250909	 0.085076542	 0.107437
H	 2.6418752335	 0.3993884727	 0.6490581647	 0.094246
H	 2.3384633116	 1.7208398224	-0.4549154613	 0.095727
H	 2.3216407339	 0.1055941194	-2.4017582874	 0.072463
H	 2.2394835241	-2.2941948979	-2.0860866583	 0.075742
H	 2.5609765533	-1.8387305668	 0.9608094899	 0.116606
H	 2.2330968027	-3.3889348375	 0.1902729368	 0.115399
H	 3.7713897491	-2.5707147186	-0.090896164	 0.114354
H	 0.2035697299	-0.9934471275	-2.0176310407	 0.070254
H	 0.6484020516	-0.613813098	 0.9943642362	 0.066682
H	-1.449519459	 0.7303960098	 0.9278098571	 0.105167
H	-0.2022603967	 1.463006762	-0.0957171948	 0.115459
H	-1.5229748796	 0.5440452232	-0.8295003492	 0.109087
H	-0.3427581463	-2.8433023773	 0.4634779981	 0.11438
H	-1.5310201296	-1.7955464439	 1.2579307059	 0.105132
H	-1.6089623409	-2.0587124131	-0.4895304876	 0.109172
65.8044	75.1199	111.0927	147.2481	175.7894	207.7765	222.4009	242.4497	249.3883	274.8132	298.1603	344.1727	402.8777	486.3148	546.1353	583.146	750.6235	764.3869	786.667	819.0127	894.2061	927.7362	947.3206	959.8378	972.1247	980.902	1035.9048	1062.4373	1068.6063	1100.1825	1134.064	1139.9462	1159.146	1186.5413	1194.7436	1209.039	1274.1808	1290.463	1311.0142	1338.9806	1343.9707	1394.4586	1396.8917	1402.7459	1410.8712	1417.5832	1420.8248	1459.0784	1481.7829	1487.259	1490.9749	1497.4987	1497.9162	1501.2084	1504.1294	1507.7677	1513.1664	3019.7343	3022.9799	3026.9174	3029.1553	3031.0525	3034.9879	3065.6751	3080.6807	3085.3773	3091.0129	3097.1885	3098.2644	3103.9498	3104.9551	3107.2117	3108.5811	3113.6879	3131.603
CCC1C(C)C1C(C)C	CC[C@H]1[C@@H](C)[C@H]1C(C)C	
InChI=1S/C9H18/c1-5-8-7(4)9(8)6(2)3/h6-9H,5H2,1-4H3	InChI=1S/C9H18/c1-5-8-7(4)9(8)6(2)3/h6-9H,5H2,1-4H3/t7-,8+,9-/m1/s1
