14
gdb 43500	2.00199	1.89052	0.98635	1.7943	66.45	-0.2701	-0.0382	0.2319	1099.9776	0.103426	-470.10496	-470.097451	-470.096507	-470.137675	27.826	
N	-0.1011520518	 1.1633773598	-0.6879207845	-0.503398
C	-0.010941842	 0.068501432	-0.0511310553	 0.3783
C	-1.2588693482	-0.5962045522	 0.4810192435	-0.388698
C	-1.16632461	-2.0824085569	 0.7710631885	 0.418216
O	-2.129471832	-2.7966722001	 0.9055415186	-0.334249
N	 0.1240862073	-2.5674190093	 0.9302918276	-0.393923
C	 1.321114201	-1.8936997219	 0.7153325262	 0.480541
O	 2.3996813188	-2.4095608336	 0.8894578934	-0.368447
N	 1.1782139174	-0.590348576	 0.2660888556	-0.405324
H	 0.8128522354	 1.524222559	-0.9683480641	 0.215577
H	-1.5243346581	-0.113325239	 1.4309928618	 0.176138
H	-2.0906580029	-0.4152137354	-0.1992973914	 0.179325
H	 0.2194864239	-3.5390567244	 1.1944098726	 0.278631
H	 2.0570192112	-0.151618592	 0.0288615675	 0.267311
71.0247	116.1842	142.304	373.0753	384.6263	448.5335	484.2868	530.0227	578.0724	605.3103	616.4229	639.3309	697.2112	764.5997	882.6365	917.4981	931.7145	966.2671	1012.526	1137.9858	1196.876	1260.5481	1296.0197	1371.4074	1397.3275	1425.4626	1432.129	1444.9661	1742.8378	1826.8319	1839.308	3040.5364	3145.5698	3455.9968	3609.8601	3613.3663
N=C1CC(=O)NC(=O)N1	[NH][C]1CC(=O)NC(=O)N1	
InChI=1S/C4H5N3O2/c5-2-1-3(8)7-4(9)6-2/h1H2,(H3,5,6,7,8,9)	InChI=1S/C4H5N3O2/c5-2-1-3(8)7-4(9)6-2/h1H2,(H3,5,6,7,8,9)
