12
gdb 130489	4.0957	1.72606	1.21431	1.6681	71.3	-0.2362	-0.1088	0.1274	902.8312	0.079971	-431.643162	-431.637304	-431.63636	-431.67336	22.981	
O	-0.0427828718	 1.269510099	 0.0088786939	-0.208391
C	 1.1232695656	 1.9740703352	 0.0022104623	 0.130938
N	 2.3218910653	 1.5230012531	-0.0114049268	-0.330985
C	 2.3965138395	 0.153138849	-0.0198350388	 0.264681
C	 3.3968591234	-0.7603668916	-0.0348194277	-0.153389
N	 2.8766788925	-2.0771495579	-0.0370506767	-0.206597
C	 1.5762125656	-2.0234957419	-0.0232274002	-0.09012
C	 1.1475361347	-0.6312914513	-0.0128123167	 0.331511
N	-0.0343337991	-0.1281480963	 0.0009084089	-0.170424
H	 0.898399369	 3.0353354095	 0.0101477613	 0.161067
H	 4.4647978997	-0.6045799981	-0.0443456687	 0.130749
H	 0.9430061356	-2.9002315787	-0.0215886307	 0.140961
183.4506	245.8321	382.4207	437.9212	543.8231	548.4435	618.6712	624.762	742.7751	768.3488	845.9886	850.7772	877.7593	889.534	915.5933	934.8654	1022.548	1053.2112	1216.5419	1257.2475	1297.5553	1328.4281	1404.764	1498.4609	1593.3195	1639.5693	1686.3492	3207.2643	3231.2381	3255.6432
O1C=NC2=CN=CC2=N1	o1cnc2cncc2n1	
InChI=1S/C5H3N3O/c1-4-5(2-6-1)8-9-3-7-4/h1-3H	InChI=1S/C5H3N3O/c1-4-5(2-6-1)8-9-3-7-4/h1-3H
