14
gdb 28292	5.39579	1.35572	1.08499	5.0915	70.27	-0.2002	0.0276	0.2277	1031.8322	0.103977	-432.898142	-432.891263	-432.890319	-432.929248	26.791	
N	 0.1500404139	 1.3414155499	 0.1667820351	-0.591325
C	-0.0587702875	-0.018295847	 0.0498716644	 0.339371
C	-1.1677183743	-0.7957766064	-0.0006037601	-0.235985
N	-0.6881364602	-2.1176604001	 0.0103946566	-0.020029
C	-1.0179029077	-3.4612115346	-0.0362155437	-0.165534
C	 0.1988016414	-4.109034231	-0.0237686336	-0.094533
N	 1.2694767897	-3.2284535033	 0.0237114902	-0.39597
C	 0.6682514955	-2.0743874999	 0.0433778255	 0.483516
O	 1.0884509613	-0.7797205104	 0.0770009952	-0.233085
H	 0.9645370036	 1.6584960259	-0.3449531223	 0.26756
H	-0.6643961743	 1.8905821977	-0.0701070514	 0.26229
H	-2.2086258157	-0.5323272997	-0.0361604379	 0.145509
H	-2.0341896622	-3.8124517425	-0.0673963384	 0.128803
H	 0.3674736964	-5.1747606287	-0.0437761596	 0.109411
142.4095	170.4183	294.0866	323.4279	328.6309	537.3406	593.5324	609.6967	630.1496	639.27	680.1847	713.3137	740.1573	784.2545	825.5519	849.2192	961.7353	974.5388	1089.5553	1106.8247	1154.364	1188.1423	1213.8045	1307.5685	1377.4359	1435.3177	1461.58	1501.6663	1616.4522	1629.9105	1717.5865	3253.7903	3293.5717	3303.5812	3543.3941	3648.3407
NC1=CN2C=CN=C2O1	Nc1cn2ccnc2o1	
InChI=1S/C5H5N3O/c6-4-3-8-2-1-7-5(8)9-4/h1-3H,6H2	InChI=1S/C5H5N3O/c6-4-3-8-2-1-7-5(8)9-4/h1-3H,6H2
