23
gdb 113773	2.28759	1.30294	0.9809	1.4329	85.94	-0.2529	0.0728	0.3257	1314.8107	0.20511	-388.25716	-388.247398	-388.246454	-388.291774	37.662	
C	-1.6796222843	 1.9769994916	 2.5843568398	-0.44432
C	-1.2765210825	 1.1254245252	 1.3908562381	 0.336503
C	-0.2433972696	 1.7077773032	 0.4456199861	-0.314182
C	 0.1440163901	 0.6043900837	 1.3961062082	-0.299344
C	-2.353172876	 0.1771172104	 0.9087834802	-0.075685
C	-3.7781822869	 0.6164431788	 0.658413159	-0.320139
C	-2.9537972916	 0.0838722591	-0.4846707236	 0.005018
C	-2.628059268	 1.0109639738	-1.6233038872	-0.115783
O	-1.485859712	 0.5141729765	-2.318454223	-0.407389
H	-0.8352037599	 2.5738950438	 2.9440187339	 0.107019
H	-2.4919201209	 2.6681572749	 2.3333156206	 0.108512
H	-2.0254280957	 1.351671332	 3.4159766212	 0.111295
H	-0.294264823	 1.4475214132	-0.6038935223	 0.138456
H	 0.1127052529	 2.7119823237	 0.6550687202	 0.096254
H	 0.7707513837	 0.8420364109	 2.2496095833	 0.100105
H	 0.3241674534	-0.3765630946	 0.9681474459	 0.110125
H	-2.2882426885	-0.7947105166	 1.3952159661	 0.085372
H	-4.5930653769	 0.0204619976	 1.0542515787	 0.108289
H	-3.9760744046	 1.684303509	 0.6533196759	 0.109134
H	-3.1760773254	-0.9267600333	-0.8170618344	 0.087969
H	-3.4953191374	 1.0571594249	-2.3005701805	 0.092553
H	-2.4516527639	 2.0284800119	-1.2451918959	 0.094363
H	-1.3611454228	 1.0500236102	-3.1079119402	 0.285876
38.0024	139.5695	185.95	209.6974	232.6582	263.1175	293.1299	311.8888	339.3608	358.0482	442.3622	475.4089	557.5198	662.1682	793.462	806.822	840.0833	864.2837	867.2834	934.404	953.0029	965.5522	1000.2361	1019.2987	1049.6025	1060.3846	1069.8897	1074.3063	1097.3393	1110.1567	1136.9469	1149.1452	1180.7753	1205.3244	1222.7221	1254.4411	1281.2242	1302.8962	1336.4931	1385.7498	1410.2982	1418.4224	1466.3281	1472.5022	1488.6024	1494.512	1501.4148	1508.0951	1515.5869	2976.5609	3011.5013	3021.7502	3082.6487	3094.9142	3109.4255	3122.7781	3124.7158	3130.5292	3142.7262	3205.6781	3207.8007	3233.5575	3821.9382
CC1(CC1)C1CC1CO	CC1(CC1)[C@H]1C[C@H]1CO	
InChI=1S/C8H14O/c1-8(2-3-8)7-4-6(7)5-9/h6-7,9H,2-5H2,1H3	InChI=1S/C8H14O/c1-8(2-3-8)7-4-6(7)5-9/h6-7,9H,2-5H2,1H3/t6-,7-/m0/s1
