12
gdb 132208	2.05675	1.99513	1.01307	5.207	61.47	-0.2475	-0.0203	0.2272	1041.9522	0.078482	-510.132938	-510.125671	-510.124727	-510.164956	26.927	
N	 0.0951637221	 1.2951580135	 0.1210857029	-0.56789
C	-0.0584976521	-0.0442058954	 0.041675415	 0.496911
N	-1.1735032948	-0.6502967041	 0.0185182067	-0.325291
C	-1.1794717724	-2.049611123	-0.0040667923	 0.373297
N	-2.2811331277	-2.6804917846	-0.0106156617	-0.504501
N	 0.0806935981	-2.7260922133	-0.0255243499	-0.39747
C	 1.1077173596	-2.0098131318	-0.0114097887	 0.396653
F	 2.3185819855	-2.5014117353	-0.0319987226	-0.035749
O	 1.1913723007	-0.661998014	 0.0258862383	-0.233144
H	 0.9877454007	 1.6952123528	-0.113096036	 0.279864
H	-0.7327786557	 1.8485761579	-0.0231756096	 0.289139
H	-2.0823994741	-3.6810236726	-0.0310318021	 0.22818
100.4906	181.501	210.012	315.7341	342.7676	382.9246	485.3765	545.866	548.824	598.344	669.7211	705.9592	712.7792	778.5203	910.0074	911.7521	958.2877	983.7037	1134.5824	1194.2304	1269.3879	1361.123	1408.5023	1608.1327	1714.9535	1734.2716	1830.0175	3494.5051	3614.7381	3742.5639
NC1=NC(=N)N=C(F)O1	NC1=N[C@@H]([NH])N=C(F)O1	
InChI=1S/C3H3FN4O/c4-1-7-2(5)8-3(6)9-1/h(H3,5,6,8)	InChI=1S/C3H4FN4O/c4-1-7-2(5)8-3(6)9-1/h2,5H,(H2,6,8)/t2-/m0/s1
