17
gdb 66650	4.0951	1.54987	1.42757	1.0245	69.84	-0.2297	0.073	0.3027	924.6148	0.138002	-421.767599	-421.761115	-421.760171	-421.798088	27.164	
O	-0.1021074318	 1.4184023153	 0.0355123091	-0.45493
C	 0.0291800461	 0.0562135009	 0.0182381728	 0.371633
C	-1.0300315705	-0.9935519552	 0.1163084527	-0.129312
C	-0.0366076844	-0.976725223	-1.083473702	-0.204813
C	 1.1723163968	-1.7447309132	-0.5312710455	 0.141332
O	 0.9790835496	-3.1233644093	-0.2853389741	-0.28172
C	 0.0343703209	-3.2343362787	 0.7959091515	-0.085341
C	-0.2859075631	-1.7935273402	 1.1986869395	-0.056355
C	 0.967237415	-0.9543530962	 0.7923040985	-0.196986
H	 0.6063999524	 1.8031169407	-0.4927777199	 0.290763
H	-2.0944591354	-0.8981347036	-0.0534146295	 0.092451
H	-0.3953352485	-0.8820260491	-2.1000964861	 0.089302
H	 2.1110839878	-1.6072824287	-1.0696709092	 0.076694
H	-0.856616601	-3.7772994277	 0.4555792391	 0.10109
H	 0.4959303975	-3.8084556158	 1.610627286	 0.096744
H	-0.6598802395	-1.659189613	 2.2139124332	 0.076264
H	 1.7806953482	-0.7367780531	 1.4797943139	 0.073183
197.7814	255.9028	273.57	341.3236	437.759	548.6155	564.2022	661.9651	703.6938	749.8126	785.0304	840.1816	881.3337	908.6227	915.2478	918.7621	933.8678	972.9628	986.4325	1008.3323	1025.3163	1059.2253	1085.6946	1105.912	1134.3897	1153.6821	1188.9619	1204.8036	1226.6313	1255.4203	1277.3449	1293.1053	1311.31	1341.8649	1390.6593	1499.5843	1520.976	3006.0479	3042.7618	3108.081	3114.011	3150.3148	3198.3545	3207.3923	3788.4791
OC12C3C1C1OCC3C21	O[C@@]12[C@H]3[C@@H]1[C@@H]1OC[C@H]3[C@H]21	
InChI=1S/C7H8O2/c8-7-3-2-1-9-6(4(2)7)5(3)7/h2-6,8H,1H2	InChI=1S/C7H8O2/c8-7-3-2-1-9-6(4(2)7)5(3)7/h2-6,8H,1H2/t2-,3-,4+,5-,6-,7-/m1/s1
