23
gdb 100007	2.45179	1.15557	0.98119	2.428	82.46	-0.2489	-0.0268	0.2221	1341.9641	0.20079	-425.431843	-425.420337	-425.419393	-425.468851	41.195	
C	-0.1218706202	 1.3665195877	 0.0558936912	-0.246904
O	-0.0866080895	-0.0309050652	-0.1326993727	-0.283301
C	 0.7072835584	-0.5470234249	-1.2094245241	 0.362962
C	 0.15427747	-0.0874471043	-2.5692256318	-0.43994
C	 2.1779392249	-0.1317422615	-1.0511744095	-0.438011
C	 0.5802113466	-2.0988164186	-1.0262187903	-0.073005
C	-0.8661949795	-2.5846444511	-0.8614361829	-0.42748
C	 1.2401837959	-2.8394025919	-2.1798079295	 0.148944
O	 2.4107682538	-3.1183887882	-2.2470927598	-0.256587
H	 0.8647505087	 1.7876727225	 0.290948349	 0.11051
H	-0.5318476674	 1.9035848669	-0.8104141996	 0.106837
H	-0.7820653786	 1.541861504	 0.9092737201	 0.128763
H	 0.248321471	 0.9955696582	-2.6852296603	 0.120355
H	 0.7150477531	-0.5442431199	-3.3908331207	 0.126195
H	-0.9009385647	-0.3501092809	-2.679970367	 0.124306
H	 2.5047285852	-0.3065391527	-0.0217382596	 0.122852
H	 2.8216054791	-0.7156393155	-1.7122305206	 0.14598
H	 2.3224172098	 0.9265534589	-1.2867378283	 0.110372
H	 1.1542646111	-2.343617196	-0.1259977276	 0.101444
H	-0.8859514904	-3.6571971096	-0.6421281075	 0.116385
H	-1.3534313743	-2.0518954202	-0.0454568929	 0.146172
H	-1.4538352279	-2.4252916212	-1.7719331925	 0.116919
H	 0.543354745	-3.1306212765	-3.0008336831	 0.076234
41.2523	60.1572	82.6072	180.4057	194.1764	210.5044	239.7391	252.5138	278.9227	292.8642	326.8582	356.8755	390.0154	420.1796	466.6511	503.2242	589.7343	708.891	832.7425	906.3226	921.8068	930.0393	968.9453	1003.8388	1067.7197	1085.7941	1114.076	1149.667	1179.2415	1189.7653	1198.0996	1219.3433	1260.9865	1293.1921	1345.5666	1397.6941	1400.9576	1417.481	1430.931	1473.8515	1479.723	1483.1068	1493.4416	1500.1727	1504.0821	1504.2375	1511.1502	1518.6351	1823.0334	2851.0166	2997.5148	3040.1722	3041.9438	3047.7421	3051.8415	3055.9499	3098.9621	3108.5878	3110.6602	3114.7645	3123.7521	3136.7431	3155.6458
COC(C)(C)C(C)C=O	COC(C)(C)[C@@H](C)C=O	
InChI=1S/C7H14O2/c1-6(5-8)7(2,3)9-4/h5-6H,1-4H3	InChI=1S/C7H14O2/c1-6(5-8)7(2,3)9-4/h5-6H,1-4H3/t6-/m0/s1
