18
gdb 90554	3.25789	1.13292	1.06958	3.5531	73.64	-0.2436	0.0209	0.2645	1181.9718	0.147936	-439.071938	-439.063565	-439.062621	-439.106494	30.744	
O	 0.4519823868	 0.9152633072	-0.8796187529	-0.422084
C	 0.080134665	-0.2183685227	-0.1426145607	 0.136532
C	 0.2901589654	-0.2169885299	 1.4081764472	-0.284519
C	-1.2183955087	-0.5155318928	 1.607749756	-0.014377
C	-1.4409569559	-0.534246943	 0.0525194073	-0.080699
C	-2.3626839915	 0.6986347663	 0.2184832681	-0.198057
N	-2.0613708555	 0.6819221944	 1.6531489863	-0.030094
C	-2.4529541651	 1.5147591035	 2.6421626464	 0.123061
O	-3.1575435488	 2.4908865808	 2.4817520413	-0.330929
H	 0.1571946789	 1.7026248919	-0.4098323676	 0.289165
H	 0.592463202	-1.0556650771	-0.6230150029	 0.100952
H	 0.9560188127	-1.0094683539	 1.7591987654	 0.113874
H	 0.6253074416	 0.7330790063	 1.8335432859	 0.108912
H	-1.5093576101	-1.3195972352	 2.286219469	 0.090919
H	-1.8478278341	-1.3853583399	-0.4895024807	 0.084594
H	-2.0610564566	 1.6116626298	-0.3062307919	 0.117239
H	-3.4200214539	 0.5135896844	 0.0032742303	 0.128419
H	-2.0569555322	 1.1971106198	 3.6295501238	 0.067093
26.9136	49.6869	183.4438	242.3218	305.9486	324.8606	358.6695	408.327	524.5564	538.316	678.1805	758.5828	786.4084	815.1632	885.1578	912.528	977.9091	983.2542	1031.9328	1034.0016	1049.9981	1082.9854	1126.8431	1149.4435	1154.7691	1186.6355	1219.038	1249.5579	1268.0185	1288.1229	1301.7907	1318.9306	1334.5344	1398.9126	1433.4565	1445.9178	1466.3615	1524.4652	1789.2828	2914.8218	3038.2565	3058.1633	3077.6056	3078.3493	3091.1279	3116.4681	3136.1861	3810.2536
OC1CC2C1CN2C=O	O[C@H]1C[C@@H]2[C@H]1CN2C=O	
InChI=1S/C6H9NO2/c8-3-7-2-4-5(7)1-6(4)9/h3-6,9H,1-2H2	InChI=1S/C6H9NO2/c8-3-7-2-4-5(7)1-6(4)9/h3-6,9H,1-2H2/t4-,5-,6+/m1/s1
