18
gdb 37852	2.65517	2.6034	1.99547	1.0933	72.22	-0.2119	0.0559	0.2678	785.4109	0.152761	-401.90284	-401.897507	-401.896563	-401.932147	24.368	
C	-0.0305021105	 1.5577529401	 0.0726397609	-0.215793
C	 1.5024062754	 1.3855293853	 0.0022550431	-0.039154
C	 1.996246773	 0.8178791877	 1.3925419295	 0.073454
O	 0.842951598	 0.6163833821	 2.2542280655	-0.289248
C	 0.5368425771	-0.5192172491	 1.3998858005	 0.073454
C	 2.0541954843	-0.7119710807	 1.1045027309	-0.059409
C	 2.2032035362	-0.8828156816	-0.3898245105	-0.202483
N	 1.2569844126	 0.1474822587	-0.8402788012	-0.110976
C	 0.0068686029	 0.0153277883	 0.0097802164	-0.039154
H	-0.4511624505	 2.0217731786	 0.961281467	 0.118243
H	-0.4311380232	 1.9900019865	-0.84394013	 0.107647
H	 2.1512303318	 2.1453898747	-0.4379849201	 0.068074
H	 2.8018545318	 1.3673712607	 1.881056692	 0.077591
H	-0.0781930724	-1.2713088624	 1.8955485822	 0.077591
H	 2.6188485658	-1.3244301983	 1.8044412023	 0.07968
H	 3.2100595711	-0.6669131708	-0.7635123551	 0.106204
H	 1.8981968067	-1.868834251	-0.7569125288	 0.106204
H	-0.8091246699	-0.5668676489	-0.4230885145	 0.068074
388.8511	418.6863	443.9022	532.7556	633.7604	633.8036	743.457	760.0603	774.3775	802.7423	851.6941	871.7242	877.3244	883.2511	925.962	946.6675	947.5567	981.7496	1001.6757	1041.7763	1042.213	1070.4346	1099.0404	1117.4463	1131.77	1181.6552	1206.4049	1238.7367	1242.603	1252.0277	1270.3163	1281.3944	1283.7673	1289.1064	1301.8442	1339.9799	1346.6063	1467.0781	1488.6399	3041.7229	3083.2716	3085.8583	3088.9149	3103.0248	3107.8264	3110.9798	3144.4877	3175.403
C1C2C3OC4C3CN2C14	C1[C@H]2[C@H]3O[C@@H]4[C@H]3CN2[C@H]14	
InChI=1S/C7H9NO/c1-4-6-3-2-8(4)5(1)7(3)9-6/h3-7H,1-2H2	InChI=1S/C7H9NO/c1-4-6-3-2-8(4)5(1)7(3)9-6/h3-7H,1-2H2/t3-,4-,5+,6-,7+
