17
gdb 8074	3.72813	2.31891	1.85211	2.1972	67.35	-0.2459	0.0203	0.2662	769.1234	0.144132	-363.867396	-363.860916	-363.859972	-363.897469	26.421	
C	-0.1129879562	 1.5247474449	 0.0020640104	-0.474511
C	 0.0653219337	 0.0295293353	 0.015524024	 0.420446
C	 1.0923665103	-0.6971763251	-0.8954439605	-0.267684
C	 1.0304231261	-1.8367849329	 0.1655156266	 0.004299
C	 0.7149756637	-0.7232081032	 1.2088850682	-0.267683
N	-0.1795970348	-2.6343038715	-0.0613578972	-0.257904
C	-1.2102722704	-1.9178705341	-0.237364488	 0.102946
O	-1.242292416	-0.563217211	-0.2263231772	-0.267247
H	 0.8462115699	 2.018713567	 0.1799242931	 0.119089
H	-0.5040983286	 1.8576955249	-0.9643642547	 0.129906
H	-0.8165298329	 1.8361564712	 0.7804342844	 0.129903
H	 0.7912779243	-0.9368263086	-1.9173647996	 0.108632
H	 2.0525881483	-0.1767647595	-0.8883825687	 0.104154
H	 1.8929817264	-2.4853819709	 0.3121842072	 0.075967
H	 1.6155798158	-0.2069094174	 1.5483736084	 0.104156
H	 0.0786049418	-0.9859823246	 2.0564645412	 0.108631
H	-2.1951249114	-2.3405555643	-0.4191707678	 0.126901
212.0914	237.1214	302.6029	363.1229	422.5401	457.282	476.0625	614.6556	637.0484	764.1666	836.9816	858.6231	863.7398	878.5924	935.2383	948.5821	977.419	993.4126	1007.5305	1065.3309	1133.5141	1147.8963	1155.2754	1199.9815	1226.4438	1240.5669	1260.7836	1316.0577	1341.4115	1379.2671	1416.4532	1463.9608	1479.8904	1491.6842	1495.1248	1702.3479	3040.1729	3064.3268	3070.7498	3111.4721	3115.6245	3120.6844	3130.3166	3133.8073	3176.5027
CC12CC(C1)N=CO2	C[C@@]12C[C@@H](C1)[N][CH]O2	
InChI=1S/C6H9NO/c1-6-2-5(3-6)7-4-8-6/h4-5H,2-3H2,1H3	InChI=1S/C6H9NO/c1-6-2-5(3-6)7-4-8-6/h4-5H,2-3H2,1H3/t5-,6+
