22
gdb 93497	2.71637	1.33745	1.04146	3.3481	83.42	-0.2503	0.0262	0.2765	1236.6616	0.195099	-404.383292	-404.374113	-404.373169	-404.416998	35.377	
C	-0.1253498398	 1.5423987269	-0.0257652892	-0.41781
C	 0.0588240496	 0.0216700026	-0.0264537944	 0.022805
C	 0.706923593	-0.4995768453	-1.3140769661	-0.223934
C	 0.7883502558	-2.0289940265	-1.2681017634	-0.272422
C	 1.3627584012	-2.5585846026	 0.0249382277	 0.375184
N	 2.0606905563	-3.6155875269	 0.0501709903	-0.504418
O	 0.9941293227	-1.9195934033	 1.1774483617	-0.269049
C	 0.8443980383	-0.4797778697	 1.1978108049	 0.115901
C	 2.2201761055	 0.1543415827	 1.4104377323	-0.402503
H	 0.8212577469	 2.066662125	-0.1910759674	 0.122226
H	-0.8102874498	 1.8423108647	-0.8250695376	 0.118953
H	-0.5454139607	 1.8971265833	 0.9218121987	 0.115526
H	-0.9367444139	-0.4385523119	 0.0473243723	 0.080553
H	 0.1250495117	-0.1818407033	-2.1859855538	 0.099636
H	 1.70750304	-0.0670085604	-1.4364634006	 0.105937
H	-0.2278748873	-2.4379540984	-1.3540732438	 0.123867
H	 1.3705119921	-2.4448936558	-2.0917798153	 0.128489
H	 2.3179398153	-3.8330845074	 1.0159187654	 0.213451
H	 0.2402465888	-0.3011854062	 2.0938513868	 0.089067
H	 2.8726200231	 0.0165784408	 0.5428605464	 0.126498
H	 2.1324668459	 1.2261308365	 1.6082256943	 0.121646
H	 2.7040678054	-0.3138996847	 2.2713641508	 0.130396
78.4904	99.6634	199.4279	218.9467	255.9735	274.7338	302.3462	382.5138	400.4321	438.9334	493.1419	541.9875	584.5274	696.6261	735.7173	803.4569	861.9395	892.342	930.6257	958.456	963.4285	1006.4597	1033.8347	1040.9185	1074.9702	1116.6782	1129.6182	1139.3765	1190.6215	1213.1071	1249.0291	1308.444	1330.7698	1348.5073	1359.3016	1373.8447	1399.26	1407.2099	1412.1713	1415.8945	1470.9883	1485.6808	1490.5734	1497.5702	1505.8542	1506.672	1742.7295	3001.7797	3020.0736	3030.4889	3033.4529	3046.4984	3048.2174	3071.8747	3098.5114	3104.7038	3118.7536	3121.3233	3125.005	3454.1269
CC1CCC(=N)OC1C	C[C@H]1CC[C]([NH])O[C@H]1C	
InChI=1S/C7H13NO/c1-5-3-4-7(8)9-6(5)2/h5-6,8H,3-4H2,1-2H3	InChI=1S/C7H13NO/c1-5-3-4-7(8)9-6(5)2/h5-6,8H,3-4H2,1-2H3/t5-,6-/m0/s1
