20
gdb 9849	3.45933	1.45376	1.17033	1.7344	70.88	-0.2606	0.0851	0.3458	1096.7741	0.175207	-386.128895	-386.119787	-386.118842	-386.162302	34.071	
C	 0.1424065851	 1.5457074936	 0.1551766434	-0.383136
C	 0.082144554	 0.0199280371	 0.0536625179	-0.191971
C	 0.6040163456	-0.5011376565	-1.296598689	 0.061445
O	 1.9141632882	-0.0236043633	-1.5545467554	-0.434857
C	 0.581435821	-2.0334484691	-1.3895095357	 0.393383
C	-0.697865264	-2.7471955481	-1.0168224834	-0.473731
C	 1.5372417682	-2.6888009168	-2.2925714713	-0.229303
O	 1.7888527953	-2.6321467164	-0.8758367188	-0.291719
H	 1.162425587	 1.9013890654	-0.0066871699	 0.13331
H	-0.4976958022	 2.0163174627	-0.5998749833	 0.110789
H	-0.1945703356	 1.8879389116	 1.138189617	 0.107825
H	 0.6782697877	-0.4355951885	 0.8560207825	 0.100401
H	-0.9498367015	-0.3190201491	 0.2000488476	 0.095789
H	-0.0272918069	-0.0986390018	-2.1009832014	 0.087207
H	 2.4990862493	-0.5964032681	-1.037662131	 0.287794
H	-1.537312792	-2.3673296327	-1.6095864662	 0.124207
H	-0.6036963613	-3.820031114	-1.2005469514	 0.126885
H	-0.9391995359	-2.6046724632	 0.0400344583	 0.135137
H	 1.3112338324	-3.6824397844	-2.6758716416	 0.112252
H	 2.2037343356	-2.0830091884	-2.9000148084	 0.128294
77.0997	109.4215	184.8416	213.9843	225.12	290.0224	312.1991	365.1966	373.7839	439.8203	479.7457	531.2073	574.0502	733.0277	786.8596	850.3857	864.0598	931.1016	947.2264	995.1663	1017.432	1062.0252	1093.9082	1120.2023	1139.1131	1142.5719	1177.7385	1244.2001	1273.0632	1303.7628	1345.1668	1378.8282	1390.9347	1407.3824	1418.8214	1437.6687	1481.4978	1486.9981	1495.4756	1499.9355	1510.0452	1519.7937	3013.1753	3023.8658	3036.4812	3041.2801	3066.3187	3096.9827	3100.3241	3109.4218	3125.8411	3130.3043	3195.7718	3736.4085
CCC(O)C1(C)CO1	CC[C@@H](O)[C@@]1(C)CO1	
InChI=1S/C6H12O2/c1-3-5(7)6(2)4-8-6/h5,7H,3-4H2,1-2H3	InChI=1S/C6H12O2/c1-3-5(7)6(2)4-8-6/h5,7H,3-4H2,1-2H3/t5-,6-/m1/s1
