17
gdb 130270	5.9301	0.74822	0.69966	2.2362	72.42	-0.2279	0.0059	0.2338	1577.9649	0.136235	-455.138008	-455.129012	-455.128067	-455.172578	32.459	
N	-0.0647283131	 1.4384215906	 0.0120839621	-0.589276
C	 0.0527288254	 0.0592778649	 0.0655561455	 0.421038
N	-0.9673525907	-0.6953581462	 0.4138929393	-0.230161
O	-0.4601908695	-2.0044858623	 0.4410375838	-0.226144
C	 0.8383916483	-1.9876080139	 0.0929167344	 0.454669
C	 1.5459238377	-3.2982919686	 0.0713928915	-0.299333
C	 1.6113264371	-3.9579599757	 1.4525954143	-0.070661
O	 2.3078485049	-5.1819567253	 1.2928902291	-0.418201
C	 1.2336027096	-0.7120303444	-0.1576549523	-0.424516
H	 0.4666033466	 1.8695670642	-0.7306421875	 0.253629
H	-1.0279832653	 1.7473000155	 0.0082732571	 0.259391
H	 1.0398541811	-3.9874116844	-0.6144379536	 0.135532
H	 2.5621712652	-3.1518189117	-0.3044996063	 0.125393
H	 2.1270496147	-3.2858819039	 2.1560206455	 0.095329
H	 0.5909599216	-4.1144206134	 1.8301437809	 0.112123
H	 2.3281641996	-5.629795761	 2.1435028665	 0.289754
H	 2.2130226868	-0.3660593643	-0.4438431101	 0.111433
45.7988	90.4231	103.3529	244.8204	247.0045	273.5401	323.1038	345.6314	395.9184	445.356	624.9595	659.8079	693.5206	749.7716	788.4057	791.7696	806.3454	943.1124	995.4519	1015.0769	1036.6758	1066.2567	1083.7466	1141.9991	1172.5105	1211.7215	1241.466	1299.117	1330.1057	1335.6544	1456.0899	1479.9914	1502.1489	1530.4684	1546.8531	1640.5215	1669.3488	2980.9533	3022.5839	3048.3061	3105.6465	3271.4007	3555.0656	3655.059	3833.2712
NC1=NOC(CCO)=C1	Nc1noc(CCO)c1	
InChI=1S/C5H8N2O2/c6-5-3-4(1-2-8)9-7-5/h3,8H,1-2H2,(H2,6,7)	InChI=1S/C5H8N2O2/c6-5-3-4(1-2-8)9-7-5/h3,8H,1-2H2,(H2,6,7)
