19
gdb 12241	3.40868	1.43996	1.11489	3.7791	72.5	-0.2414	0.0383	0.2797	1110.1995	0.164876	-365.097748	-365.088859	-365.087915	-365.131361	32.18	
C	 0.1345850659	 1.6172174856	 0.0702143629	-0.387716
C	-0.0992855151	 0.1059135368	-0.0269083731	-0.178398
C	 0.6218890626	-0.5254075294	-1.2123951974	 0.060461
N	 2.0890107578	-0.5849228147	-1.1028469979	-0.337382
C	 2.1944226839	-1.9484628393	-1.2367930092	 0.43221
O	 3.1347482225	-2.6977265373	-1.2596925277	-0.368586
C	 0.6552426508	-2.091171875	-1.3477676904	-0.178494
C	-0.0283993709	-2.9736928856	-0.3120146349	-0.40739
H	 1.1969267131	 1.8454988997	 0.2100298888	 0.114714
H	-0.2011155888	 2.1313920568	-0.8372700315	 0.117236
H	-0.407255141	 2.0475184177	 0.9174335217	 0.120573
H	 0.2292429761	-0.3772077767	 0.8995307261	 0.103857
H	-1.1731681114	-0.0953661939	-0.1285812589	 0.102358
H	 0.2948551962	-0.036881682	-2.1403398226	 0.077756
H	 2.7967452532	 0.1349429779	-1.1176260239	 0.246217
H	 0.3751141077	-2.4082657541	-2.357250358	 0.101
H	 0.2512954774	-2.7008746363	 0.7093105948	 0.12566
H	-1.1185869457	-2.918190567	-0.3944068567	 0.118131
H	 0.2690464057	-4.0149479732	-0.4671100522	 0.137792
71.2676	97.5589	160.002	194.7554	222.1679	238.4641	292.3899	369.0303	428.2686	496.0744	533.1011	690.2379	733.2098	776.3138	812.1847	848.1716	922.1394	967.5892	1029.7662	1060.9397	1068.9234	1098.4218	1152.8858	1161.961	1188.968	1206.9037	1273.9754	1300.5794	1343.8849	1352.3058	1382.5983	1408.7724	1412.0464	1415.8303	1476.4829	1495.8186	1500.5114	1502.5827	1506.3535	1889.4132	3007.3144	3029.6815	3031.9708	3041.652	3064.8861	3072.89	3100.2266	3107.8379	3108.8298	3119.5094	3604.666
CCC1NC(=O)C1C	CC[C@H]1NC(=O)[C@H]1C	
InChI=1S/C6H11NO/c1-3-5-4(2)6(8)7-5/h4-5H,3H2,1-2H3,(H,7,8)	InChI=1S/C6H11NO/c1-3-5-4(2)6(8)7-5/h4-5H,3H2,1-2H3,(H,7,8)/t4-,5+/m0/s1
