21
gdb 91626	2.82258	1.67045	1.47299	1.9663	79.47	-0.2522	0.0832	0.3355	1000.1052	0.186004	-387.090734	-387.083645	-387.082701	-387.121774	30.133	
C	-0.2111469024	 1.5496162442	-0.0107097423	-0.418328
C	 0.0425432984	 0.0411585758	 0.0117650592	 0.058242
C	 0.891357417	-0.4967485698	-1.1964864215	-0.2316
C	 2.0013776852	-1.3449268652	-0.5148967777	-0.063139
C	 1.2517975938	-1.8945333931	 0.7188033754	-0.226663
C	 0.8315853559	-0.5048472688	 1.244894763	-0.080146
C	 2.1735749185	 0.2331640236	 1.2636649799	 0.05862
O	 3.3349543972	-0.585660512	 1.474160428	-0.268246
C	 2.9296525627	-0.3106287488	 0.1279024947	 0.052465
H	 0.7224089153	 2.1194698316	-0.0582192762	 0.115707
H	-0.8075129176	 1.8293379203	-0.8856518467	 0.114458
H	-0.7595428827	 1.874971621	 0.8803683022	 0.111662
H	-0.9317508482	-0.4610706557	 0.0068752865	 0.071574
H	 0.2847226105	-1.1082311049	-1.8704900161	 0.096632
H	 1.3120865447	 0.3202214952	-1.7932708566	 0.093682
H	 2.4837227194	-2.0775902624	-1.1637580777	 0.062057
H	 0.3919795164	-2.5114047175	 0.4445676581	 0.087595
H	 1.894878309	-2.442886134	 1.4050241731	 0.116716
H	 0.2667118648	-0.4847317174	 2.1790136852	 0.059058
H	 2.2619252492	 1.2572740504	 1.6105264263	 0.096722
H	 3.6244573931	 0.2735280474	-0.4692318265	 0.092933
149.2794	243.4679	269.3202	345.3605	384.3111	438.5461	476.4562	550.219	570.0798	736.1652	784.286	808.8278	826.5002	866.9547	881.291	904.6446	920.2043	935.1765	942.4148	978.7436	995.7292	1001.5736	1029.2853	1047.086	1083.9969	1117.1394	1133.9381	1151.9413	1188.4482	1190.6942	1232.7233	1258.9458	1279.4195	1297.3411	1300.4756	1312.7471	1338.0447	1352.7415	1374.8615	1414.887	1418.2432	1485.6593	1499.3209	1502.3298	1506.2351	3026.4148	3029.5707	3041.9348	3073.0244	3085.0533	3092.7365	3093.72	3101.0265	3103.6955	3149.5232	3151.5838	3171.9244
CC1CC2CC1C1OC21	C[C@H]1C[C@@H]2C[C@H]1[C@H]1O[C@@H]21	
InChI=1S/C8H12O/c1-4-2-5-3-6(4)8-7(5)9-8/h4-8H,2-3H2,1H3	InChI=1S/C8H12O/c1-4-2-5-3-6(4)8-7(5)9-8/h4-8H,2-3H2,1H3/t4-,5+,6+,7-,8+/m0/s1
