23
gdb 78024	2.24155	1.42157	1.22442	1.2502	84.95	-0.2419	0.0778	0.3196	1193.5833	0.205915	-388.29504	-388.285547	-388.284603	-388.328541	37.079	
C	-0.2230743334	 1.5226597208	 0.3050254548	-0.426878
C	 0.0604944968	 0.0513556964	 0.0750858569	-0.070718
C	 0.5771653064	-0.6307625193	-1.1933756089	-0.11593
C	 1.3081129094	 0.1311293869	-2.2945903516	 0.037299
C	 0.4244320217	 0.9773892362	-3.2156361916	-0.400701
C	 2.4144280671	 0.9384370459	-1.5618378724	-0.240262
C	 2.6668642384	 0.2097123129	-0.2207808996	-0.287546
C	 1.4136552343	-0.6182133427	 0.0578748922	 0.372859
O	 1.5906204276	-1.8076621133	 0.778044117	-0.471644
H	 0.5583146129	 2.180276663	-0.0775565986	 0.121398
H	-1.1657861561	 1.8200786323	-0.167905596	 0.119732
H	-0.321109565	 1.7259106042	 1.37799078	 0.111222
H	-0.6720425202	-0.5890191939	 0.5637106581	 0.085654
H	 0.0588046812	-1.5415248928	-1.4759530255	 0.084342
H	 1.8002478751	-0.6316333901	-2.914289418	 0.074225
H	-0.1069196738	 1.7539739401	-2.6558415785	 0.115302
H	 1.022606368	 1.4724452321	-3.9888649216	 0.108455
H	-0.3256984256	 0.3602810053	-3.7214271458	 0.110944
H	 3.3249531828	 1.0095352867	-2.1641888425	 0.097086
H	 2.0811639479	 1.9668231785	-1.3943548225	 0.10214
H	 3.4975896743	-0.4984287483	-0.310887676	 0.108481
H	 2.921796595	 0.9035353497	 0.5893937185	 0.087246
H	 1.6528153653	-1.5818071406	 1.7123668916	 0.277296
117.8748	153.1999	184.2545	217.5151	219.891	240.5532	283.1249	293.8191	389.5148	397.7758	464.7026	542.6197	571.1945	632.1753	698.4552	740.7357	820.9932	878.4625	902.3469	933.181	973.4377	983.5833	998.7729	1011.8363	1052.5634	1079.1081	1107.7786	1119.3643	1135.1763	1170.9251	1192.6422	1227.4192	1243.6278	1269.9971	1309.554	1328.2064	1334.0495	1341.7397	1354.3406	1378.6515	1410.8341	1415.3617	1463.9416	1485.8077	1493.3295	1498.8008	1502.135	1507.1891	1518.1789	2997.7304	3028.7814	3029.5062	3030.6931	3056.7283	3068.3414	3079.0489	3092.6337	3093.6906	3104.1908	3116.0942	3140.6668	3160.1233	3797.3577
CC1C2C(C)CCC12O	C[C@H]1[C@H]2[C@@H](C)CC[C@@]12O	
InChI=1S/C8H14O/c1-5-3-4-8(9)6(2)7(5)8/h5-7,9H,3-4H2,1-2H3	InChI=1S/C8H14O/c1-5-3-4-8(9)6(2)7(5)8/h5-7,9H,3-4H2,1-2H3/t5-,6-,7+,8+/m0/s1
