14
gdb 14816	2.6259	1.9506	1.2324	5.4291	62.6	-0.2617	-0.0401	0.2216	937.3074	0.107236	-378.708051	-378.700484	-378.69954	-378.740691	26.367	
O	-0.0558242297	-0.0813256083	-0.27068753	-0.245068
C	-0.0020550365	 1.0733737224	 0.0608961609	 0.172859
C	 1.2679297618	 1.892726663	 0.0289571709	-0.120786
C	 1.1026318563	 3.206852533	-0.7964378126	-0.184822
N	 0.8369767906	 3.934692179	 0.4626262586	-0.294704
C	 1.4575675354	 2.8548734011	 1.251789913	-0.138658
C	 0.7953940449	 2.5381274864	 2.5201969266	 0.300303
N	 0.2873244969	 2.2832949581	 3.5262612896	-0.314841
H	-0.9049483122	 1.6318273455	 0.390499137	 0.10963
H	 2.1132915259	 1.2509708011	-0.2131014727	 0.112314
H	 2.0360518998	 3.4793485913	-1.3058109879	 0.114794
H	 0.2800357591	 3.2419104646	-1.5175578352	 0.12826
H	 1.2547065949	 4.8528354545	 0.5638866362	 0.236862
H	 2.529587023	 2.9894712585	 1.4543533256	 0.123858
66.3893	110.2313	144.1594	216.744	315.6324	335.0828	446.4318	536.9764	561.4321	666.5942	808.5251	870.2513	925.0551	957.0412	1001.8935	1035.0163	1058.5985	1089.451	1140.1937	1144.6308	1200.8655	1244.2803	1295.6562	1328.1087	1358.6254	1394.4113	1424.9723	1524.1445	1834.597	2357.6343	2905.7765	3001.6028	3016.7821	3076.2987	3137.7979	3539.4229
O=CC1CNC1C#N	O=C[C@H]1CN[C@H]1C#N	
InChI=1S/C5H6N2O/c6-1-5-4(3-8)2-7-5/h3-5,7H,2H2	InChI=1S/C5H6N2O/c6-1-5-4(3-8)2-7-5/h3-5,7H,2H2/t4-,5+/m1/s1
