16
gdb 130244	5.68782	0.99615	0.90884	1.8618	72.97	-0.2312	-0.0047	0.2265	1273.4874	0.126106	-434.067392	-434.059612	-434.058668	-434.100099	29.358	
N	-0.0180039347	 1.3100831818	 0.334830756	-0.585851
C	-0.0216230317	-0.0346445551	 0.0693164305	 0.400531
N	-1.1065186569	-0.7079318985	-0.2398682102	-0.2176
O	-0.6173375732	-2.0356602948	-0.3402997988	-0.222334
C	 0.6945364786	-1.9820465811	-0.0905981677	 0.460633
N	 1.1309329262	-0.7829607762	 0.1685477887	-0.379243
C	 1.4727829145	-3.2199658526	-0.1310612179	-0.120531
C	 0.8464004319	-4.5263408799	 0.3294593536	-0.260637
C	 1.1142837751	-4.3122321556	-1.1258442578	-0.261474
H	 0.8719278557	 1.756254346	 0.1742507429	 0.266416
H	-0.8080921839	 1.8191063534	-0.0316428343	 0.26568
H	 2.5206623394	-3.0585480345	 0.0862465708	 0.118276
H	 1.4838205161	-5.2035242962	 0.8859709388	 0.12632
H	-0.1817379849	-4.4820316942	 0.668279947	 0.142398
H	 0.2678097082	-4.1229547986	-1.7751042608	 0.141535
H	 1.9394590397	-4.8395863037	-1.5902157009	 0.125881
56.8289	151.3985	166.2812	286.5529	317.8184	368.5819	411.7186	492.4103	566.9316	628.6736	721.1058	762.5534	790.8313	795.5398	830.4974	909.9575	914.1836	929.1779	1023.8574	1053.2173	1062.9909	1078.3924	1093.298	1130.287	1130.601	1206.4756	1218.094	1339.6377	1362.9641	1454.572	1466.4839	1498.0088	1587.3873	1638.728	1658.2506	3145.1816	3148.1222	3201.7723	3230.3321	3245.308	3584.6215	3694.3558
NC1=NOC(=N1)C1CC1	Nc1noc(n1)C1CC1	
InChI=1S/C5H7N3O/c6-5-7-4(9-8-5)3-1-2-3/h3H,1-2H2,(H2,6,8)	InChI=1S/C5H7N3O/c6-5-7-4(9-8-5)3-1-2-3/h3H,1-2H2,(H2,6,8)
