22
gdb 103682	3.60013	0.87129	0.83103	4.4619	85.13	-0.2377	0.0295	0.2672	1501.053	0.193051	-404.369783	-404.359663	-404.358718	-404.405859	36.457	
C	-0.0912382376	 1.7093191252	 0.0015481674	-0.393749
C	-0.231213195	 0.1859170666	-0.0866205878	-0.235287
C	 0.6654581219	-0.489205964	-1.1314664878	 0.333793
C	 0.3926252416	-0.0162454124	-2.5571440079	-0.458414
C	 2.189987968	-0.4999371121	-0.752567111	-0.231321
N	 2.1141598064	-1.9568657814	-0.6627968453	-0.031896
C	 0.6956952918	-2.0504941111	-0.9919199738	-0.22537
C	 3.0065348916	-2.9232766061	-0.3640107687	 0.131337
O	 2.7512645725	-4.1106333092	-0.328032953	-0.334588
H	 0.9461726887	 2.0068884288	 0.1916809836	 0.118082
H	-0.4157877961	 2.2045295982	-0.9182924977	 0.122536
H	-0.7006013417	 2.1050632003	 0.8194110271	 0.12043
H	-0.0078577548	-0.2529540752	 0.8942056612	 0.101964
H	-1.2755516762	-0.0748279807	-0.3041357576	 0.101021
H	 0.60297199	 1.0510149225	-2.6772129858	 0.122003
H	 1.015872327	-0.5593545456	-3.2749473418	 0.121871
H	-0.6552568089	-0.1850159877	-2.8300855163	 0.12
H	 2.8660384042	-0.1301713011	-1.5323040323	 0.110671
H	 2.4361554127	-0.0047862923	 0.1943380304	 0.110095
H	 0.083149942	-2.4626533381	-0.1823179415	 0.116281
H	 0.4920789172	-2.6134116746	-1.9092357821	 0.116633
H	 4.0133864446	-2.5051195702	-0.1531357492	 0.063909
27.4595	77.5315	104.3544	167.2089	207.6523	243.7618	261.2973	300.536	332.1336	355.955	406.1516	457.7305	531.2533	678.652	789.8615	804.7838	886.271	893.1366	943.1315	955.5607	965.783	1019.7622	1034.3519	1045.7184	1081.1563	1144.4605	1166.5191	1172.161	1193.5972	1227.5808	1278.708	1293.4419	1321.7249	1350.7792	1370.2941	1402.7591	1412.2919	1416.9957	1453.2208	1481.7669	1494.529	1496.8476	1504.0218	1509.9766	1513.7422	1526.9378	1790.5451	2912.28	3014.7994	3016.7428	3028.62	3034.5699	3036.7383	3049.1449	3060.7394	3076.6567	3096.8433	3101.1665	3103.5537	3113.5606
CCC1(C)CN(C1)C=O	CCC1(C)CN(C1)C=O	
InChI=1S/C7H13NO/c1-3-7(2)4-8(5-7)6-9/h6H,3-5H2,1-2H3	InChI=1S/C7H13NO/c1-3-7(2)4-8(5-7)6-9/h6H,3-5H2,1-2H3
