18
gdb 90017	3.4841	1.15413	1.01013	1.7082	74.34	-0.2249	-0.0346	0.1903	1224.1403	0.145908	-439.050291	-439.041728	-439.040784	-439.083871	31.404	
C	 0.0355584503	 1.5825455688	 0.1316435467	-0.321244
N	 0.0292865843	 0.1370810257	 0.1408643602	-0.064842
C	-1.2480580535	-0.5603363239	 0.3744785499	-0.233182
C	-0.4824105638	-1.6008278488	 1.2228373962	 0.301088
C	 0.6615651992	-0.5628969266	 1.2734843141	-0.233185
O	-1.0559642649	-2.1005209913	 2.4397220431	-0.317187
C	-0.8878151985	-3.4902037904	 2.0784322241	-0.197521
C	-0.2620476807	-3.0391354996	 0.750671325	 0.284296
O	 0.1920926628	-3.5685660935	-0.2156252552	-0.271384
H	 1.0627323802	 1.9473746719	 0.0278866143	 0.125579
H	-0.5382229723	 1.9495053753	-0.7257169482	 0.125579
H	-0.3961209517	 2.0247199153	 1.0499529178	 0.09271
H	-1.9529232654	-0.0094058036	 1.0192332816	 0.102568
H	-1.7652422253	-0.9048526894	-0.5270328188	 0.116492
H	 1.6851605893	-0.9094789635	 1.0973380746	 0.116491
H	 0.6149477107	-0.0128485952	 2.2281267372	 0.102567
H	-0.2177021808	-4.0309596293	 2.7574885864	 0.135586
H	-1.8393926698	-4.0286782317	 1.9939802709	 0.135589
71.8969	105.0532	147.4784	217.6091	232.4821	297.2942	344.3052	396.701	450.5286	531.0331	547.5546	706.1571	730.983	846.8762	899.8309	954.5443	963.3409	996.5463	1007.3978	1036.6163	1089.2937	1104.3928	1116.5113	1132.1718	1138.7531	1193.2422	1227.3812	1232.0677	1290.1154	1292.3295	1301.6581	1339.9272	1450.9485	1483.0286	1484.5168	1487.0574	1497.2694	1515.5349	1924.5678	2924.032	2964.7883	2975.5081	3025.5644	3059.6872	3066.76	3067.5635	3075.4991	3101.9285
CN1CC2(C1)OCC2=O	CN1CC2(C1)OCC2=O	
InChI=1S/C6H9NO2/c1-7-3-6(4-7)5(8)2-9-6/h2-4H2,1H3	InChI=1S/C6H9NO2/c1-7-3-6(4-7)5(8)2-9-6/h2-4H2,1H3
