17
gdb 43227	2.30559	1.86349	1.82538	3.3799	71.98	-0.2263	-0.0195	0.2068	894.2584	0.138642	-421.841399	-421.834594	-421.83365	-421.872331	27.578	
O	 0.0043331951	 0.0663005745	-0.0451988194	-0.325845
C	-0.0159489567	 1.2630175138	-0.0092289636	 0.427254
C	-1.2261915301	 2.2144582718	 0.0348167521	-0.162828
C	-1.2428965919	 2.7612163645	 1.4913815382	-0.236857
C	 0.0902000433	 3.464273213	 1.8071867278	-0.063008
O	 1.2327842888	 2.7262594226	 1.3741804594	-0.280707
C	 1.1563906558	 2.2626800444	 0.0078685393	-0.023276
C	 0.6174670976	 3.2902849256	-0.9629765296	-0.105353
C	-0.7227843117	 3.254790638	-0.9507664578	-0.082453
H	-2.1691965097	 1.732837305	-0.2299956601	 0.088592
H	-2.0697302284	 3.4660390721	 1.6390129421	 0.105702
H	-1.4011076524	 1.9197323796	 2.175040208	 0.123489
H	 0.0934185502	 4.4637860345	 1.3536462352	 0.100506
H	 0.2185230718	 3.5886225019	 2.8856242626	 0.11531
H	 2.131769652	 1.8343123314	-0.2210189319	 0.096772
H	 1.2369864471	 3.9492732606	-1.5576158346	 0.111172
H	-1.3812053607	 3.8768522468	-1.5458072077	 0.111529
140.2022	227.0285	297.0165	351.5065	365.0662	443.136	517.4533	592.1709	652.2602	749.9946	758.5711	778.3279	808.9656	845.4424	882.4798	943.2806	961.0049	970.7662	991.854	1027.4851	1076.156	1085.6319	1129.247	1143.3197	1195.8246	1233.3605	1254.932	1285.4856	1300.8776	1330.007	1353.5065	1377.7391	1409.5699	1485.5402	1503.5701	1634.9717	1881.2607	3021.0654	3033.0345	3077.5853	3097.1326	3099.6166	3127.2701	3195.0134	3221.0919
O=C1C2CCOC1C=C2	O=C1[C@H]2CCO[C@@H]1C=C2	
InChI=1S/C7H8O2/c8-7-5-1-2-6(7)9-4-3-5/h1-2,5-6H,3-4H2	InChI=1S/C7H8O2/c8-7-5-1-2-6(7)9-4-3-5/h1-2,5-6H,3-4H2/t5-,6-/m1/s1
