15
gdb 19519	3.86467	1.95517	1.82277	1.3761	60.41	-0.2373	0.0158	0.2531	783.0043	0.119651	-399.770707	-399.763892	-399.762948	-399.80184	25.135	
C	 0.1854002513	 0.9615913191	-0.3076727675	-0.240301
O	-0.4643557554	 0.0469374979	 0.5633342858	-0.233407
C	 0.4069878441	-0.5984237814	 1.4162806204	 0.077482
C	 0.1030694306	-2.0106432908	 1.8045678536	-0.001677
O	-0.7843758928	-2.7074359639	 0.9486536048	-0.200794
C	-0.1699058885	-2.7392419144	-0.2617625347	 0.119323
N	 1.0069620432	-2.267234415	-0.3683921589	-0.259219
C	 1.3279604102	-1.7116692525	 0.9221740388	-0.097915
H	 0.9118668296	 0.4471456517	-0.9483714699	 0.135914
H	-0.5924769625	 1.4136145035	-0.9266993559	 0.12985
H	 0.6991207373	 1.7541630267	 0.2554630274	 0.106681
H	 0.8343774452	 0.0164834459	 2.2108266836	 0.097632
H	 0.0708371191	-2.3606397511	 2.828056805	 0.116822
H	-0.7499102523	-3.1968611569	-1.0527996426	 0.146885
H	 2.3639787309	-1.7507628587	 1.2365220203	 0.102724
105.9695	171.7948	186.9485	245.5505	343.1822	492.3183	618.3325	678.8518	738.9759	768.9049	818.77	879.3528	938.8153	948.9137	993.7446	1026.5268	1073.2902	1083.5394	1092.967	1110.6677	1143.1209	1181.1366	1212.4576	1256.8695	1283.7505	1325.4454	1352.8836	1411.2996	1484.607	1488.4179	1504.6648	1664.9226	2996.1652	3064.4152	3085.0402	3126.7775	3182.0177	3199.7881	3239.4724
COC1C2OC=NC12	CO[C@H]1[C@H]2OC=N[C@@H]12	
InChI=1S/C5H7NO2/c1-7-4-3-5(4)8-2-6-3/h2-5H,1H3	InChI=1S/C5H7NO2/c1-7-4-3-5(4)8-2-6-3/h2-5H,1H3/t3-,4+,5-/m0/s1
