16
gdb 43859	3.58245	1.03863	0.89891	2.3632	76.81	-0.2472	-0.03	0.2172	1269.6199	0.12175	-400.689237	-400.680849	-400.679904	-400.722766	31.756	
O	 0.0933416498	 0.0656281087	-0.5725271627	-0.283537
C	 0.0353455331	 1.173259604	-0.12870268	 0.407982
C	-1.1189586271	 2.1097543906	 0.2728760411	-0.410072
C	-0.052713781	 3.0897622741	 0.7833098228	 0.346529
C	 1.1078097763	 2.2083994567	 0.285601083	-0.438219
N	-0.1809854459	 4.5321778149	 0.7024652145	-0.36378
C	-0.0891993303	 3.8865761947	 2.043748322	-0.331055
C	-1.2556738657	 3.9190602604	 2.8796285632	 0.384545
C	-2.2245733006	 3.9061585379	 3.5915446498	-0.436425
H	-1.6981789657	 2.4788233271	-0.5796297981	 0.145003
H	-1.8095476921	 1.7114275661	 1.0219759732	 0.147364
H	 1.8344499573	 1.8625322969	 1.0264693569	 0.138242
H	 1.6495358603	 2.614848677	-0.5765520026	 0.137452
H	 0.7153226492	 4.9606356251	 0.4790483979	 0.238153
H	 0.857117961	 3.9839365791	 2.5726292873	 0.114493
H	-3.0830465786	 3.9109623266	 4.2167287217	 0.203326
45.8433	112.5844	149.4165	285.2254	318.1316	339.6908	418.0103	460.9503	498.2706	544.8622	588.3397	618.5563	661.3403	664.9161	721.2898	807.5243	864.3418	926.3331	935.7133	974.8548	1003.215	1057.6084	1068.8069	1095.4269	1181.9798	1184.4235	1199.5385	1211.5413	1267.8132	1350.079	1419.5333	1432.8908	1462.3378	1903.4089	2240.0552	3043.4771	3058.0324	3101.9272	3110.9876	3123.4496	3486.7658	3502.729
O=C1CC2(C1)NC2C#C	O=C1CC2(C1)N[C@H]2C#C	
InChI=1S/C7H7NO/c1-2-6-7(8-6)3-5(9)4-7/h1,6,8H,3-4H2	InChI=1S/C7H7NO/c1-2-6-7(8-6)3-5(9)4-7/h1,6,8H,3-4H2/t6-/m0/s1
