20
gdb 126244	2.0761	1.44875	0.91901	3.6564	83.02	-0.1879	0.0471	0.2351	1322.5527	0.172251	-399.347226	-399.337582	-399.336638	-399.382388	34.821	
C	 0.1218826524	 1.610393168	 0.0283369907	-0.362601
C	 0.0356402073	 0.0729359124	 0.0584205744	-0.322207
C	-1.3653555157	-0.4612976221	 0.0096669442	 0.10464
C	-2.1439300998	-0.6868240447	-1.1202204533	 0.36811
N	-1.8290313762	-0.5536737729	-2.465497128	-0.386315
C	-2.8982285089	-0.5645508616	-3.4486761568	-0.34085
N	-3.3397258604	-1.1572057416	-0.6802506746	-0.267133
N	-3.4023959385	-1.2710937616	 0.6755980145	-0.258224
C	-2.2123450846	-0.8432301851	 1.0757355278	-0.071387
H	 1.1622132132	 1.9510184668	 0.0646993039	 0.108019
H	-0.3330736794	 2.0184064835	-0.8814526405	 0.102172
H	-0.4110993823	 2.0456887838	 0.8791079324	 0.123227
H	 0.6198251715	-0.3375835464	-0.7764533594	 0.095596
H	 0.52572927	-0.2923245584	 0.9683192659	 0.107211
H	-1.1401041792	 0.1653878381	-2.62731023	 0.24758
H	-3.3699895754	-1.5536951362	-3.4809203403	 0.133303
H	-3.6832783923	 0.185668179	-3.261205057	 0.118809
H	-2.4727175042	-0.3794975948	-4.4369958114	 0.13533
H	-4.1313070334	-1.4425092204	-1.228390509	 0.264776
H	-1.9810827841	-0.825879186	 2.1324113365	 0.099945
45.2723	74.3673	150.1182	167.7442	194.6654	232.9475	279.4891	303.724	406.064	424.191	467.4816	558.5487	630.5967	676.7304	728.4014	753.3647	783.8963	890.3292	946.1249	968.8437	1046.613	1076.7969	1083.4436	1109.0672	1144.9928	1161.2055	1224.0223	1236.9345	1294.2049	1328.6713	1353.0546	1392.3659	1406.9908	1425.8247	1465.0983	1481.5624	1487.537	1492.7344	1497.0699	1505.7761	1525.4346	1571.5134	1640.8369	2974.4343	3012.1622	3027.4273	3054.7504	3055.024	3093.2029	3107.9837	3124.4531	3225.9135	3607.0255	3692.4391
CCC1=C(NC)NN=C1	CCc1c(NC)[nH]nc1	
InChI=1S/C6H11N3/c1-3-5-4-8-9-6(5)7-2/h4H,3H2,1-2H3,(H2,7,8,9)	InChI=1S/C6H11N3/c1-3-5-4-8-9-6(5)7-2/h4H,3H2,1-2H3,(H2,7,8,9)
