19
gdb 98681	3.33558	0.91121	0.8654	3.4678	74.2	-0.2618	-0.0275	0.2343	1407.8212	0.155977	-460.167481	-460.157613	-460.156669	-460.202327	36.367	
C	-0.190107065	 1.5611918182	 0.0467822964	-0.465676
C	 0.0114506918	 0.065159743	 0.0562875444	 0.408884
O	-1.1315597548	-0.678181629	-0.2794065079	-0.460765
C	 1.3305232236	-0.5487795127	-0.2755127138	-0.342236
C	 0.8051366347	-0.6419755781	 1.1572936213	-0.162095
C	 1.4830173035	 0.1160720655	 2.2299387129	 0.355835
O	 2.1622466398	 1.1109916674	 2.0388719722	-0.357779
C	 1.3133058016	-0.3899628811	 3.656445107	-0.135763
O	 1.9869397905	 0.4219036272	 4.5679903822	-0.422148
H	 0.697202641	 2.0834162237	 0.4062218784	 0.15918
H	-0.3994347963	 1.9009286403	-0.9750320247	 0.110429
H	-1.0441764736	 1.832901901	 0.6745691002	 0.128593
H	-1.3657752155	-0.4598155727	-1.188848136	 0.286262
H	 1.3328624341	-1.4681609871	-0.8490080159	 0.122842
H	 2.1822061741	 0.1093136133	-0.4106361566	 0.138811
H	 0.3678960242	-1.5887713821	 1.4549812484	 0.106943
H	 0.2328976916	-0.4369591501	 3.8756252915	 0.119549
H	 1.6780681908	-1.4309179992	 3.6940924158	 0.116075
H	 2.4041461139	 1.1098508125	 4.0234735741	 0.29306
56.2579	105.4989	142.0873	179.5708	238.9291	255.4185	281.9773	330.0279	367.1432	377.7921	429.5529	436.5873	478.224	577.6127	699.5047	703.0308	813.2021	855.2912	924.7179	961.1548	970.6609	1021.0456	1029.3212	1068.7718	1092.0644	1108.7473	1118.2186	1158.2537	1238.4521	1247.1864	1295.8277	1307.4005	1363.1299	1405.1624	1418.0752	1452.3993	1464.4358	1491.6388	1497.0193	1503.6205	1764.8827	2964.4747	2979.9096	3030.8217	3095.6934	3136.6306	3151.5622	3176.4547	3237.2043	3671.4497	3792.0563
CC1(O)CC1C(=O)CO	C[C@@]1(O)C[C@H]1C(=O)CO	
InChI=1S/C6H10O3/c1-6(9)2-4(6)5(8)3-7/h4,7,9H,2-3H2,1H3	InChI=1S/C6H10O3/c1-6(9)2-4(6)5(8)3-7/h4,7,9H,2-3H2,1H3/t4-,6+/m0/s1
