19
gdb 108538	2.7858	1.76035	1.31118	1.4621	74.45	-0.239	0.0798	0.3188	1009.0186	0.160205	-422.966659	-422.959102	-422.958158	-422.99879	29.706	
C	 0.0240490251	 1.335083285	 0.1508483354	-0.262885
O	-0.0563503801	-0.0432646977	-0.1670190841	-0.303815
C	-1.3253786356	-0.58798535	-0.0765350644	 0.424851
C	-2.412123069	-0.1575819482	-1.0732775454	-0.156068
O	-3.4869962561	-1.0130800707	-0.6716668947	-0.280493
C	-2.9071741278	-1.7506595925	 0.3928865176	 0.143274
C	-1.4391999595	-2.138447754	 0.0626465593	-0.148907
C	-1.0934412638	-2.0171297988	 1.5655945288	-0.263648
C	-2.0522291477	-0.8309813959	 1.3071185598	-0.163197
H	 1.0817623901	 1.6050458947	 0.1205879179	 0.132096
H	-0.5189837649	 1.9585592326	-0.572547843	 0.115244
H	-0.3685545143	 1.5411075895	 1.1560562152	 0.115161
H	-2.7114252762	 0.893215517	-0.9786241142	 0.099632
H	-2.1257067448	-0.3534130912	-2.1140890379	 0.106629
H	-3.6117212804	-2.4704902159	 0.8040120565	 0.091753
H	-1.093819992	-2.8759320997	-0.6623167782	 0.076313
H	-1.4604068	-2.8119302705	 2.2205653594	 0.091536
H	-0.0593588994	-1.7574619579	 1.7939257437	 0.111193
H	-2.4184975033	-0.0807650354	 2.0087256482	 0.07133
73.3695	169.3393	201.9517	293.2628	324.9073	399.5969	438.9238	484.4569	625.2593	686.1822	718.6262	761.5362	849.1306	895.1809	909.6667	935.7804	959.7054	1001.5855	1027.8476	1041.2033	1082.8135	1084.746	1091.9722	1102.2616	1151.3083	1172.5673	1177.5561	1180.4749	1196.462	1212.698	1234.1005	1251.132	1259.5337	1286.1302	1317.5809	1384.8896	1482.8226	1491.5629	1505.5557	1515.2193	1522.5694	2995.7164	3018.7659	3049.8672	3059.1507	3063.4939	3107.7354	3114.1193	3123.0799	3135.8805	3152.381
COC12COC3C1CC23	CO[C@@]12CO[C@H]3[C@@H]1C[C@@H]23	
InChI=1S/C7H10O2/c1-8-7-3-9-6-4(7)2-5(6)7/h4-6H,2-3H2,1H3	InChI=1S/C7H10O2/c1-8-7-3-9-6-4(7)2-5(6)7/h4-6H,2-3H2,1H3/t4-,5+,6-,7-
