20
gdb 32431	3.13794	1.18434	0.87465	1.4744	84.89	-0.1672	0.0599	0.2271	1352.5886	0.171451	-399.35295	-399.342839	-399.341894	-399.387627	37.116	
C	 0.0385091959	 1.3943080966	 0.0679533749	-0.317024
N	-0.1392761792	-0.0404835515	-0.0537168017	-0.388267
C	 0.5609257323	-0.682486194	-1.0842470642	 0.254456
C	 1.2123368132	-0.1240390439	-2.1615382822	-0.189678
N	 1.6911221369	-1.1681042964	-2.936748507	-0.330055
C	 1.3597456747	-2.3739342155	-2.3784413626	 0.324695
C	 1.7290165246	-3.6858812924	-2.9813961037	-0.507881
C	 0.6573533762	-2.1074750256	-1.2200249936	 0.018515
N	 0.1154040265	-3.0991332381	-0.349891081	-0.623414
H	 1.0938327043	 1.705204879	 0.1546298324	 0.101661
H	-0.3806021561	 1.8900156374	-0.8151112637	 0.127412
H	-0.5062179513	 1.7566793288	 0.9436498522	 0.114635
H	-0.0129566432	-0.5190689279	 0.8292023339	 0.215358
H	 1.368327335	 0.9013295285	-2.4498293071	 0.103442
H	 2.2012099101	-1.0555806769	-3.7937991138	 0.250384
H	 2.8094791933	-3.87859014	-2.9482382826	 0.117831
H	 1.2290198275	-4.4787511277	-2.4204227144	 0.150946
H	 1.416956941	-3.7593654408	-4.0306412268	 0.116662
H	 0.6644247186	-3.2087982225	 0.4984748183	 0.227293
H	-0.8256485804	-2.8482622972	-0.0611811674	 0.233028
71.2954	121.7376	161.0243	179.6212	210.4822	224.761	254.4798	284.2555	293.2909	326.6767	409.702	520.796	562.6882	618.5492	635.7138	658.7531	717.183	741.2424	783.5123	832.5572	971.9844	1014.469	1064.0421	1104.1964	1115.2387	1157.8068	1162.732	1215.6441	1229.6285	1281.2757	1343.6788	1390.1428	1415.521	1456.0286	1475.9577	1479.8332	1488.7209	1496.9631	1512.9907	1522.5302	1591.0585	1635.2772	1680.0849	2955.9892	3011.1629	3054.6597	3055.0628	3109.567	3126.3923	3273.0956	3474.0659	3542.117	3548.0759	3694.0616
CNC1=CNC(C)=C1N	CNc1c[nH]c(C)c1N	
InChI=1S/C6H11N3/c1-4-6(7)5(8-2)3-9-4/h3,8-9H,7H2,1-2H3	InChI=1S/C6H11N3/c1-4-6(7)5(8-2)3-9-4/h3,8-9H,7H2,1-2H3
