15
gdb 50189	2.43369	1.58513	1.17763	6.3677	71.14	-0.2529	0.0025	0.2554	1039.3173	0.113078	-416.799803	-416.792032	-416.791088	-416.832751	28.192	
O	 0.0457268807	 0.1146993113	-0.4213032587	-0.307468
C	 0.0841511401	 1.3012306237	-0.1938880824	 0.141613
N	 1.2130370236	 1.9685746555	 0.1854457135	-0.04615
C	 2.6209269236	 1.548254462	 0.0478481893	-0.1973
C	 3.0067412171	 3.0378261723	 0.0166099231	-0.105745
C	 2.2777199907	 3.7730350715	-1.0985592368	-0.201319
C	 1.9942188653	 3.173720164	-2.3733783851	 0.309159
N	 1.7618067147	 2.6819726245	-3.3941333307	-0.334957
C	 1.5368361236	 3.3766696149	 0.1735137264	-0.03715
H	-0.8003151715	 1.9694424221	-0.2208520836	 0.080043
H	 2.9861300185	 1.0264019011	 0.9358648774	 0.138724
H	 2.8281544212	 0.956680598	-0.8475684309	 0.15695
H	 3.8654816222	 3.4775619359	 0.5026901684	 0.12501
H	 2.5203969065	 4.8307995239	-1.1453783091	 0.145772
H	 1.0255091337	 4.1003742993	 0.7962730292	 0.132819
58.0724	135.4579	159.1401	208.8771	293.1396	370.2273	394.7153	533.4065	586.2821	639.4957	761.0936	770.0619	809.8201	870.0122	920.2259	956.0141	996.8397	1026.2863	1031.8546	1057.0552	1088.0805	1156.1041	1159.2796	1184.9839	1257.4759	1297.6922	1325.2307	1387.1892	1400.2981	1436.1325	1503.0917	1804.9232	2355.3116	2933.4321	3065.4514	3120.8641	3162.05	3193.2607	3226.5215
O=CN1CC2C(C#N)C12	O=CN1C[C@H]2[C@@H](C#N)[C@@H]12	
InChI=1S/C6H6N2O/c7-1-4-5-2-8(3-9)6(4)5/h3-6H,2H2	InChI=1S/C6H6N2O/c7-1-4-5-2-8(3-9)6(4)5/h3-6H,2H2/t4-,5+,6-/m1/s1
