19
gdb 108215	3.15697	1.37989	1.27291	3.7775	69.64	-0.2448	0.0614	0.3062	1052.4574	0.161185	-460.161269	-460.15353	-460.152586	-460.193451	30.357	
O	-0.1279791432	 1.4184423982	 0.0137729484	-0.426939
C	-0.0379665226	-0.0021075771	 0.0054783088	-0.189652
C	-1.4452820507	-0.5492775094	 0.0100689282	 0.247727
C	-2.3123936104	-0.1860834129	-1.2168424148	-0.093375
O	-3.410429009	-1.1214276356	-1.1453404068	-0.27161
C	-3.1588505764	-1.8994918645	 0.0120150149	 0.205841
C	-1.6394857549	-2.0820359886	 0.0028534587	-0.310026
O	-3.3979150393	-1.1339709567	 1.1803287973	-0.271608
C	-2.2991307303	-0.199370705	 1.250077532	-0.093369
H	 0.7632399448	 1.7794863146	 0.0112341657	 0.292458
H	 0.4968651883	-0.3616987944	-0.8880295921	 0.091438
H	 0.5064549576	-0.3714808925	 0.889146581	 0.091439
H	-2.6921942262	 0.8388607939	-1.1768074425	 0.117938
H	-1.7704797648	-0.3262737956	-2.1616781965	 0.093712
H	-3.8197180759	-2.7644778544	 0.0109027863	 0.090291
H	-1.2694735492	-2.5725398726	-0.9002619194	 0.107042
H	-1.2597982944	-2.5822186412	 0.8965955945	 0.107041
H	-1.7470982348	-0.3496775337	 2.1874699843	 0.093711
H	-2.6792895986	 0.8259178275	 1.2251550821	 0.117939
98.5941	175.1522	192.0948	260.619	326.2607	358.9358	445.8201	478.1993	509.0566	593.2044	643.9666	811.9796	820.5039	904.7153	928.4534	932.1184	945.9786	954.0593	965.412	1024.2249	1044.6109	1058.3423	1073.1481	1112.245	1144.7821	1179.2703	1208.6879	1213.3267	1217.0234	1264.6081	1277.7236	1314.0555	1320.3422	1321.8871	1372.0356	1401.1112	1463.133	1485.3023	1516.4934	1518.964	1539.0287	2966.1851	2996.1569	3012.0345	3015.1794	3069.0429	3080.9843	3086.0025	3129.0993	3149.6729	3832.3554
OCC12COC(C1)OC2	OC[C@@]12CO[C@@H](C1)OC2	
InChI=1S/C6H10O3/c7-2-6-1-5(8-3-6)9-4-6/h5,7H,1-4H2	InChI=1S/C6H10O3/c7-2-6-1-5(8-3-6)9-4-6/h5,7H,1-4H2/t5-,6-
