16
gdb 48289	2.56365	0.88075	0.68415	3.9804	76.37	-0.2714	-0.0522	0.2192	1552.5791	0.121032	-400.736332	-400.726469	-400.725525	-400.772524	33.724	
O	-0.077482046	 0.0731752382	-0.3866811355	-0.240239
C	 0.0200577124	 1.1530267233	 0.1322289033	 0.159718
C	 1.3032648604	 1.9942270068	 0.0867991346	-0.269325
C	 1.3073120979	 2.8364022111	-1.2230140451	-0.202628
C	 1.4854670049	 1.9607985925	-2.4791931472	-0.352908
C	 1.432794505	 2.7561616955	-3.7031809752	 0.256321
N	 1.3884096391	 3.4021227032	-4.6601199398	-0.299583
C	 1.3998567603	 2.8446516128	 1.2648681651	 0.277677
C	 1.4342912181	 3.5469422715	 2.2392511919	-0.401229
H	-0.8329401166	 1.6379538936	 0.6530412662	 0.10814
H	 2.1441338105	 1.290581533	 0.0523280574	 0.13396
H	 0.3769619489	 3.4096187487	-1.2926210409	 0.139443
H	 2.1200720098	 3.5642807244	-1.1604142185	 0.145538
H	 2.4490587993	 1.4396159606	-2.4417696945	 0.157866
H	 0.7155719484	 1.184019559	-2.5251517722	 0.178411
H	 1.4844561974	 4.1645589057	 3.1023255904	 0.208838
48.8359	66.9339	95.1107	105.5714	168.7064	199.1971	258.3359	347.0191	397.5502	448.9255	469.8942	516.1278	586.8383	650.2982	661.6569	762.0951	914.8503	927.693	951.8218	1009.311	1037.0178	1068.4144	1102.2982	1183.4892	1263.7302	1276.0735	1322.9204	1330.1571	1378.7716	1413.4289	1469.257	1493.9788	1828.6957	2240.1773	2364.945	2911.8118	3039.3678	3048.3267	3062.9384	3090.2014	3113.5042	3500.6594
O=CC(CCC#N)C#C	O=C[C@@H](CCC#N)C#C	
InChI=1S/C7H7NO/c1-2-7(6-9)4-3-5-8/h1,6-7H,3-4H2	InChI=1S/C7H7NO/c1-2-7(6-9)4-3-5-8/h1,6-7H,3-4H2/t7-/m1/s1
