19
gdb 57064	2.71345	1.21025	0.90356	2.2055	77.28	-0.2441	0.0236	0.2677	1289.965	0.15666	-422.965275	-422.955469	-422.954525	-423.00045	35.585	
C	-0.3637400008	 1.4943026035	-0.0943274002	-0.394325
C	 0.1369944644	 0.0648193911	-0.0666882786	 0.138815
O	 1.4309350412	-0.0877520579	-0.7037895187	-0.291384
C	 1.9432624763	-0.852183212	 0.4034740005	-0.085795
C	 0.6756939693	-0.584510011	 1.2403877897	-0.068351
C	 0.8645104109	 0.3265962091	 2.4589896052	-0.072748
O	-0.3848756207	 0.7685138294	 2.9847409521	-0.421326
C	 1.6781180463	-0.343692007	 3.4786980044	 0.281517
C	 2.3092221469	-0.9349360077	 4.3141783926	-0.425067
H	 0.363868311	 2.1844631706	 0.3408684524	 0.120021
H	-0.5373850214	 1.7998372898	-1.1308435403	 0.119645
H	-1.3003030729	 1.5829832452	 0.4624818053	 0.130604
H	-0.6006302654	-0.5896021978	-0.5543105899	 0.071687
H	 2.1083592171	-1.9048612125	 0.1412664892	 0.100358
H	 2.8789154528	-0.4362220997	 0.7970126548	 0.10732
H	 0.1334624025	-1.4800776136	 1.5556083631	 0.075105
H	 1.3776757184	 1.2433274571	 2.1461274317	 0.126017
H	-0.7828521629	 0.024012691	 3.4498909584	 0.285415
H	 2.8782781971	-1.4374033775	 5.0572865383	 0.20249
49.0582	79.9243	115.6556	188.4628	209.7858	246.8474	259.3065	306.1203	354.0265	401.3774	496.9379	534.6522	585.2247	632.9282	676.8871	748.2562	852.1593	880.3892	898.5231	941.7469	1015.4623	1029.3194	1039.3684	1086.2535	1096.8737	1147.3258	1156.7719	1178.7731	1240.3769	1254.4677	1285.5989	1304.0168	1360.622	1385.0031	1392.3329	1409.458	1419.5741	1475.74	1499.6075	1529.3285	2230.6141	2986.5564	3012.9263	3043.1769	3048.4746	3052.8822	3075.4485	3114.9113	3129.8004	3501.6225	3804.6263
CC1OCC1C(O)C#C	C[C@H]1OC[C@H]1[C@@H](O)C#C	
InChI=1S/C7H10O2/c1-3-7(8)6-4-9-5(6)2/h1,5-8H,4H2,2H3	InChI=1S/C7H10O2/c1-3-7(8)6-4-9-5(6)2/h1,5-8H,4H2,2H3/t5-,6-,7+/m1/s1
