21
gdb 96371	2.26941	1.81255	1.17663	0.0985	78.77	-0.2336	0.0893	0.3228	1109.9462	0.183039	-424.213367	-424.205015	-424.20407	-424.245827	33.382	
C	-0.1459797121	 1.5228958974	-0.1228293756	-0.424427
C	 0.0331583201	 0.0192739447	 0.0108661475	 0.055904
O	 0.7535804795	-0.4096142356	-1.1486525785	-0.263357
C	 0.932553997	-1.8144087584	-1.1740684945	-0.075677
C	 1.6525507912	-2.2796709734	 0.0849932827	-0.092191
O	 0.9257113554	-1.867901619	 1.2362429882	-0.296834
C	 0.7534228739	-0.4687603972	 1.2597675341	 0.44231
C	 1.840892888	 0.3181832248	 1.9487787113	-0.323093
C	 0.5037283381	 0.0780784741	 2.6263164781	-0.337995
H	 0.8221389354	 2.0292676597	-0.1609668892	 0.129543
H	-0.6740959642	 1.7387777602	-1.0549157289	 0.12878
H	-0.7310039705	 1.9313174409	 0.7051910157	 0.119442
H	-0.95672698	-0.4707485763	 0.0063406229	 0.070457
H	-0.0428912252	-2.3237401042	-1.2470814384	 0.090897
H	 1.515759767	-2.0454000045	-2.0712066515	 0.104553
H	 1.7163746061	-3.3713096722	 0.1256977102	 0.103669
H	 2.6703212651	-1.8609900514	 0.1070899374	 0.095108
H	 2.6895150848	-0.249168137	 2.3134731096	 0.118379
H	 2.0743256813	 1.3196659899	 1.6071326625	 0.115692
H	-0.1758192977	 0.9143520293	 2.7434161475	 0.114277
H	 0.4736545567	-0.6502466417	 3.4287814489	 0.124565
102.3412	190.4669	221.0365	260.9429	276.9103	329.6219	358.9574	419.2803	452.9874	474.5867	551.1513	609.6853	705.8126	770.8723	845.3664	866.7315	902.0726	921.9783	932.6507	953.3948	1002.9413	1044.8464	1070.4168	1079.8178	1100.8693	1106.6951	1130.1435	1136.897	1159.6327	1188.4405	1241.6682	1279.8927	1300.1626	1348.9537	1365.8954	1378.7379	1398.1702	1412.1736	1416.6151	1450.4446	1482.5683	1486.2992	1487.7428	1500.7829	1503.6762	2946.2713	2969.9797	2993.9336	3051.4406	3080.6977	3087.3443	3125.7242	3128.0797	3139.9858	3142.4022	3222.1818	3235.5188
CC1OCCOC11CC1	C[C@H]1OCCOC21CC2	
InChI=1S/C7H12O2/c1-6-7(2-3-7)9-5-4-8-6/h6H,2-5H2,1H3	InChI=1S/C7H12O2/c1-6-7(2-3-7)9-5-4-8-6/h6H,2-5H2,1H3/t6-/m1/s1
