24
gdb 101629	2.54815	0.81339	0.74054	3.8246	89.83	-0.309	0.0368	0.3458	1713.3574	0.215427	-368.44862	-368.437239	-368.436295	-368.486126	40.645	
C	-0.058946593	 1.5720184523	 0.1551435757	-0.394434
C	-0.0084515197	 0.0497963841	-0.0101686031	-0.169219
C	 0.8989555802	-0.4483816156	-1.1527653934	 0.027053
C	 2.374386861	-0.0973202844	-0.9101980012	-0.397782
C	 0.6929170428	-1.9623076859	-1.3448976117	-0.185142
C	 1.3902782016	-2.5958003946	-2.5716054826	-0.147313
C	 1.1414446769	-4.1151622828	-2.64752753	-0.394715
C	 0.9542884822	-1.9475233224	-3.8142905522	 0.280716
N	 0.5999059721	-1.440878424	-4.7913226891	-0.336483
H	 0.9103948561	 1.9884340548	 0.4447635974	 0.1188
H	-0.3662076312	 2.0597549923	-0.7766480025	 0.119834
H	-0.7788207412	 1.8537768524	 0.9298315318	 0.113973
H	 0.3164689774	-0.4120665562	 0.932906669	 0.091108
H	-1.0265848186	-0.3175727076	-0.1915130352	 0.094841
H	 0.5750005535	 0.0525434407	-2.0758909037	 0.097892
H	 3.0116851843	-0.4017453399	-1.7459951766	 0.116615
H	 2.5132250583	 0.9795670553	-0.7850099385	 0.122727
H	 2.7497799901	-0.5894331693	-0.0042068142	 0.109969
H	 1.0542631874	-2.4961904758	-0.4560050234	 0.099097
H	-0.3806039546	-2.1737244178	-1.420457667	 0.107397
H	 2.4711250235	-2.4294972076	-2.492676002	 0.127326
H	 1.5165238206	-4.5949867481	-1.7391039432	 0.124734
H	 0.0725400926	-4.3297553936	-2.734334127	 0.136986
H	 1.6494604477	-4.5571026365	-3.5081347976	 0.136016
30.7189	61.5421	96.7892	127.8201	186.1693	211.8825	215.132	248.7948	273.9113	293.1392	313.1718	361.2318	423.6095	488.3559	560.8827	594.669	772.75	776.0677	824.2892	885.0325	907.2889	955.1138	973.0302	1002.5724	1029.4744	1052.9698	1072.7354	1127.0465	1149.9344	1173.7234	1182.4765	1241.6992	1285.465	1306.8452	1323.3477	1356.7434	1371.6698	1382.7478	1388.6237	1410.7668	1414.4958	1416.9317	1474.5363	1485.6461	1493.5023	1495.9516	1498.392	1499.6243	1507.912	1515.6789	2352.3292	3004.6027	3010.6217	3019.732	3030.2187	3035.1546	3040.3353	3044.7673	3046.351	3066.4227	3096.2007	3101.1896	3106.1273	3116.0063	3121.53	3127.2332
CCC(C)CC(C)C#N	CC[C@@H](C)C[C@@H](C)C#N	
InChI=1S/C8H15N/c1-4-7(2)5-8(3)6-9/h7-8H,4-5H2,1-3H3	InChI=1S/C8H15N/c1-4-7(2)5-8(3)6-9/h7-8H,4-5H2,1-3H3/t7-,8-/m1/s1
