15
gdb 25476	4.15582	1.21649	1.07383	3.0996	72.89	-0.2269	-0.039	0.1879	1093.0636	0.11433	-416.810541	-416.803268	-416.802324	-416.843127	26.337	
O	-0.5265398987	 0.654348551	-0.6002666517	-0.232018
C	 0.2133885297	 0.9349971301	 0.3060668202	 0.159429
C	 1.3967618945	 1.8726316845	 0.1883726657	-0.274376
C	 1.5003773723	 2.6698910823	-1.1590098645	-0.188161
N	 1.2372819327	 3.8907146207	-0.3563776745	-0.004635
C	 1.0951068782	 5.2227129882	-0.1283190053	-0.022562
N	 0.9266478294	 5.4300791398	 1.1673120846	-0.25932
C	 0.9733321504	 4.204433797	 1.8004217439	-0.227668
C	 1.1709281402	 3.2419425449	 0.8423058846	 0.286378
H	 0.0595759574	 0.5264539045	 1.329018128	 0.093417
H	 2.3101976988	 1.3553621111	 0.5021178751	 0.119706
H	 2.4838973741	 2.665856519	-1.632103089	 0.136918
H	 0.7164503685	 2.4338954148	-1.8792017732	 0.159726
H	 1.1119165254	 5.9809494502	-0.894827336	 0.138716
H	 0.8631250772	 4.120197342	 2.8694092922	 0.114451
60.8915	122.7156	149.627	229.2998	325.9689	451.8406	631.5584	659.7917	677.1184	742.5135	744.3495	794.4046	828.486	860.9015	936.4873	982.1144	1050.8227	1062.5262	1087.9844	1118.101	1150.7882	1175.3423	1223.2991	1245.4212	1289.0069	1317.4618	1369.5698	1413.2829	1416.7638	1458.9407	1510.1846	1551.0538	1829.6146	2895.0442	3054.5402	3084.167	3151.4581	3263.6575	3267.8892
O=CC1CN2C=NC=C12	O=C[C@H]1Cn2cncc12	
InChI=1S/C6H6N2O/c9-3-5-2-8-4-7-1-6(5)8/h1,3-5H,2H2	InChI=1S/C6H6N2O/c9-3-5-2-8-4-7-1-6(5)8/h1,3-5H,2H2/t5-/m1/s1
