19
gdb 103474	2.43198	1.48654	1.12535	1.9459	71.2	-0.219	0.0492	0.2682	1142.4754	0.156774	-460.10646	-460.097211	-460.096267	-460.140056	35.219	
C	 0.1650328673	 1.5005961558	 0.1249899761	-0.396552
C	-0.1335045403	 0.0067938307	-0.0566529355	-0.247318
C	 0.6268620322	-0.6031041227	-1.2134455793	 0.279874
O	 0.3951096219	-0.0024776467	-2.473152046	-0.485558
C	 2.0292215866	-1.1855182525	-1.0988549837	-0.077752
O	 2.1821943596	-1.8580667922	 0.1560578057	-0.284837
C	 1.1582825785	-2.8308447347	-0.2043362441	-0.147242
C	 0.8505693219	-2.076752694	-1.4814783211	 0.309181
O	 0.4423465909	-2.7087490851	-2.6279772705	-0.458478
H	 1.2331927024	 1.6717140563	 0.2985176138	 0.121536
H	-0.1368274193	 2.0770535866	-0.7561315412	 0.111098
H	-0.3796847359	 1.9070233259	 0.9817792201	 0.119922
H	 0.139932285	-0.5307592713	 0.8558570169	 0.121624
H	-1.2086151439	-0.1412028757	-0.2157718083	 0.102395
H	 0.8916467376	 0.8208541991	-2.5230599298	 0.295513
H	 2.9137995743	-0.80849705	-1.601663362	 0.104286
H	 1.60852188	-3.8110807874	-0.395431545	 0.122909
H	 0.3724867644	-2.9185479512	 0.5540153908	 0.108951
H	 0.1744002365	-2.009223331	-3.2397786269	 0.300448
74.1092	147.4846	195.0508	240.2404	266.63	275.1045	294.5989	305.1705	386.3137	425.357	438.0137	482.1352	578.2888	687.2227	708.6516	768.5497	804.0059	899.6892	952.4792	966.5277	999.2224	1008.8756	1038.2407	1063.454	1078.1043	1109.3145	1148.3913	1187.1973	1210.5671	1246.3008	1302.2722	1308.8617	1324.354	1367.9769	1404.8301	1428.1121	1467.311	1472.4384	1501.5825	1510.3202	1517.8356	3031.3313	3032.472	3035.7497	3084.2123	3085.9417	3106.1902	3109.6243	3166.4395	3760.5765	3812.1326
CCC1(O)C2OCC12O	CC[C@@]1(O)[C@H]2OC[C@@]12O	
InChI=1S/C6H10O3/c1-2-5(7)4-6(5,8)3-9-4/h4,7-8H,2-3H2,1H3	InChI=1S/C6H10O3/c1-2-5(7)4-6(5,8)3-9-4/h4,7-8H,2-3H2,1H3/t4-,5-,6+/m1/s1
