21
gdb 75046	2.62672	1.40378	1.01284	0.3732	96.74	-0.2055	-0.0232	0.1823	1246.8233	0.184205	-349.972618	-349.96408	-349.963135	-350.005437	33.477	
C	-0.0477735619	 1.6048616105	 0.0537152003	-0.47496
C	 0.035151491	 0.0995919226	-0.0547740319	 0.261025
C	 0.0113736785	-0.4946265378	-1.2664418717	-0.175472
C	-0.1020913799	-1.8975415688	-1.6734075039	-0.069717
C	 0.4150338224	-3.058896651	-1.2415467001	-0.051642
C	 1.4192030481	-3.3882972041	-0.1742011278	-0.247633
C	 1.9418103906	-2.2030976589	 0.6521574465	-0.269537
C	 0.8906380072	-1.6148942488	 1.5487986921	-0.048874
C	 0.0724170279	-0.6083760618	 1.2277803996	-0.126992
H	 0.8352814863	 2.0169209713	 0.5576344233	 0.12703
H	-0.1354219141	 2.0795173815	-0.9268527703	 0.119281
H	-0.9152724068	 1.9040991317	 0.6564358395	 0.123455
H	-0.0656220464	 0.1849356214	-2.1159515966	 0.07881
H	-0.7317576184	-1.9943988115	-2.5592914401	 0.083955
H	 0.1106781584	-3.9368756195	-1.8112594731	 0.083763
H	 0.9877601171	-4.1404589253	 0.5010783782	 0.107537
H	 2.2649604739	-3.8996655344	-0.6599729756	 0.102227
H	 2.7857976751	-2.5491432903	 1.2599795781	 0.094266
H	 2.3253555827	-1.4378320165	-0.0303466069	 0.114958
H	 0.8046288452	-2.0515545743	 2.5423414707	 0.085617
H	-0.5986981569	-0.2211309461	 1.9947016393	 0.082903
99.2312	162.2772	200.9103	213.5262	255.5166	299.6458	365.5845	400.3456	435.1661	551.3086	584.4155	646.8582	717.193	751.575	783.8766	833.304	857.2557	886.1361	918.6831	973.5686	997.4545	1006.3295	1019.8015	1047.817	1057.396	1077.2258	1111.333	1182.0401	1197.5981	1244.4701	1273.7673	1317.2324	1348.8149	1379.9579	1399.8896	1409.8685	1445.7509	1453.5872	1476.2236	1477.0814	1490.6326	1494.4298	1675.4947	1705.6894	1715.4516	2986.5381	3015.5543	3016.7579	3035.2854	3062.5713	3082.2357	3094.7194	3110.4252	3116.0755	3116.8871	3130.9123	3146.946
CC1=CC=CCCC=C1	CC1=CC=CCCC=C1	
InChI=1S/C9H12/c1-9-7-5-3-2-4-6-8-9/h3,5-8H,2,4H2,1H3/b5-3-,8-6-,9-7-	InChI=1S/C9H12/c1-9-7-5-3-2-4-6-8-9/h3,5-8H,2,4H2,1H3/b5-3-,8-6-,9-7-
