17
gdb 79651	2.80205	1.49411	1.20344	1.3066	79.89	-0.2217	0.0213	0.243	1068.7174	0.133355	-384.572387	-384.563973	-384.563029	-384.605551	32.186	
C	-0.0404403395	 1.6108372271	-0.0250737462	-0.403906
C	 0.1429920756	 0.0966978029	 0.047414687	-0.062216
C	 1.3807895558	-0.7194994191	-0.2008456325	-0.173691
C	 2.6650017331	-0.1560466703	 0.4682927739	 0.02051
O	 2.3600083287	 1.0803583703	 1.1338816456	-0.236942
C	 2.0397839927	-0.1509625079	 1.7821651808	-0.055046
C	 0.7019241084	-0.7316902623	 1.1994688343	 0.116632
C	-0.0010414726	-1.7860894115	 1.8360182772	 0.197358
C	-0.5815659544	-2.6750020617	 2.405821769	-0.406704
H	 0.7455340862	 2.0875577191	-0.6126017987	 0.130925
H	-1.0027910513	 1.838227345	-0.4945822094	 0.104791
H	-0.0308761734	 2.0704693457	 0.9643060512	 0.133073
H	-0.7113144678	-0.4441533818	-0.3557657452	 0.109458
H	 1.4061802774	-1.5468654237	-0.8983942455	 0.108409
H	 3.688052851	-0.3243304475	 0.1575026535	 0.116825
H	 2.4237069309	-0.3311764352	 2.7784532832	 0.114679
H	-1.0977169909	-3.4593114089	 2.9009629318	 0.185845
56.7946	129.5091	152.036	220.2264	258.632	415.4467	425.94	478.3339	498.2345	546.4039	572.3304	652.714	678.6969	739.5425	759.8878	813.9029	849.1826	866.639	923.1834	963.6373	984.3416	995.0914	1052.5888	1059.6196	1100.2859	1106.0383	1177.4136	1216.7479	1253.1893	1268.9774	1318.3195	1382.1544	1422.0296	1447.3682	1489.9262	1494.5016	2224.1453	3048.4599	3114.4557	3132.7398	3140.6933	3192.0447	3199.9189	3209.9105	3503.9213
CC1C2C3OC3C12C#C	C[C@H]1[C@H]2[C@H]3O[C@H]3[C@@]12C#C	
InChI=1S/C8H8O/c1-3-8-4(2)5(8)6-7(8)9-6/h1,4-7H,2H3	InChI=1S/C8H8O/c1-3-8-4(2)5(8)6-7(8)9-6/h1,4-7H,2H3/t4-,5-,6+,7+,8-/m0/s1
