16
gdb 98379	3.14797	1.05033	0.79609	4.6927	68.53	-0.261	-0.0491	0.2119	1377.4777	0.121073	-475.0856	-475.075812	-475.074867	-475.121989	32.79	
C	 0.007983894	 1.5838580373	 0.0372524886	-0.383985
C	-0.0129521305	 0.0555589498	 0.0001034639	-0.328077
C	-1.4356196529	-0.485856935	-0.0497309443	 0.460035
O	-2.3921428945	 0.2474105102	-0.1109372021	-0.316823
N	-1.6239027213	-1.9044266858	-0.0087525289	-0.228304
C	-2.9816222107	-2.3691458564	 0.0438405477	 0.168323
O	-3.3090924547	-3.5177875765	 0.0144828969	-0.248045
C	-0.5335060392	-2.8101303169	-0.0150481959	 0.170376
O	-0.6174804519	-3.9963071063	 0.1146486712	-0.244431
H	 1.0409367074	 1.9399082144	 0.0650595733	 0.120357
H	-0.4832388685	 2.0041742699	-0.8425768107	 0.142905
H	-0.5147837019	 1.9620588408	 0.9184433434	 0.140586
H	 0.5377889309	-0.3106469647	-0.8753497144	 0.145723
H	 0.5009497643	-0.360633148	 0.874635935	 0.142722
H	-3.6692228593	-1.5167285297	 0.1084476391	 0.150077
H	 0.4277143386	-2.295082813	-0.1605446126	 0.108561
29.3444	51.3433	104.0758	146.0454	199.2594	220.7684	253.9239	271.4681	331.2581	388.6451	484.3025	530.9973	567.8562	709.5744	829.7226	895.2985	933.6129	1015.0319	1022.5216	1049.1471	1094.7933	1099.9585	1208.4089	1253.6391	1293.7188	1370.2782	1417.7078	1426.2757	1453.992	1479.7942	1492.7561	1498.1244	1793.6359	1815.9935	1884.3385	3019.0935	3036.3595	3059.2466	3067.984	3071.385	3132.5819	3140.6663
CCC(=O)N(C=O)C=O	CCC(=O)N(C=O)C=O	
InChI=1S/C5H7NO3/c1-2-5(9)6(3-7)4-8/h3-4H,2H2,1H3	InChI=1S/C5H7NO3/c1-2-5(9)6(3-7)4-8/h3-4H,2H2,1H3
