16
gdb 8668	2.54432	1.80214	1.39248	3.4559	62.18	-0.2528	-0.0659	0.1869	950.1977	0.125202	-420.876262	-420.866789	-420.865845	-420.910823	32.038	
C	-0.2258892402	 1.2777736903	-0.2105137384	-0.253985
O	 0.0118618713	-0.1133797558	-0.0807616992	-0.279747
C	 0.7784602972	-0.5097950878	 1.0451225277	 0.164166
C	 2.1412661409	 0.1655467223	 1.2050734096	-0.436401
C	-0.0800263186	-0.3462168561	 2.3149154113	 0.124196
O	 0.3554730751	-0.1087502179	 3.4077406819	-0.225785
C	 0.9735961775	-2.026204336	 0.8272408358	 0.132444
O	 1.7515030923	-2.6989231807	 1.4438709778	-0.234099
H	 0.6930536796	 1.832486895	-0.436776224	 0.125175
H	-0.9231546563	 1.3955481752	-1.0425629604	 0.139652
H	-0.6794264677	 1.7090266499	 0.6934779186	 0.118746
H	 2.040036851	 1.2066448246	 1.5181593486	 0.128745
H	 2.6981450505	-0.3708986678	 1.9747303835	 0.165127
H	 2.698273306	 0.1199406339	 0.2655841853	 0.128042
H	-1.1677571969	-0.4753707167	 2.1178812134	 0.096751
H	 0.3154729383	-2.4312768723	 0.0302528086	 0.106974
62.5369	74.4914	132.4377	173.841	192.0009	234.0141	261.184	284.7078	303.3203	403.7071	440.3746	562.9099	595.7942	775.2294	875.9114	889.516	975.3991	1026.4343	1091.318	1158.7934	1177.2153	1183.1221	1204.2239	1248.6879	1372.9704	1385.6457	1406.9025	1475.3292	1483.8572	1486.52	1497.9388	1510.5487	1813.369	1858.6847	2886.1391	2921.4993	2997.7152	3055.8924	3061.6124	3126.2866	3135.4454	3153.8888
COC(C)(C=O)C=O	COC(C)(C=O)C=O	
InChI=1S/C5H8O3/c1-5(3-6,4-7)8-2/h3-4H,1-2H3	InChI=1S/C5H8O3/c1-5(3-6,4-7)8-2/h3-4H,1-2H3
