24
gdb 113854	3.64824	0.85207	0.75347	1.1863	91.29	-0.2193	0.0828	0.3022	1628.7119	0.217619	-368.373781	-368.364136	-368.363192	-368.408862	36.286	
C	 0.5144794193	 1.6810586839	 0.1199918347	-0.373347
C	-0.115468085	 0.3001836272	-0.0491722212	-0.113561
N	 0.4817910121	-0.3853277313	-1.1912463424	-0.085667
C	 1.6373176971	-1.2396838685	-0.9435245799	-0.267619
C	 0.3292178747	-1.8339696493	-1.3510212061	-0.006123
C	-0.4668002881	-2.707970515	-0.4180708407	 0.045832
C	-1.9910256412	-2.899755551	-0.6813356723	-0.230081
C	-1.8297707144	-4.3985566212	-0.3132410475	-0.210392
C	-0.3040220946	-4.2513929017	-0.5581832203	-0.238198
H	 1.5858396911	 1.5970431282	 0.3303537773	 0.116745
H	 0.396343853	 2.2710127909	-0.7931279851	 0.125566
H	 0.0478718773	 2.2209876239	 0.9499400212	 0.107769
H	-0.0138997099	-0.2627513615	 0.8938676778	 0.080913
H	-1.1897051518	 0.4020321439	-0.2457807635	 0.102612
H	 2.461892005	-1.1566821326	-1.6472859707	 0.109684
H	 1.9415252599	-1.3933499496	 0.0926914083	 0.099948
H	 0.2163104307	-2.1216074365	-2.3980909035	 0.079144
H	-0.3022044585	-2.4179238619	 0.6235052789	 0.067407
H	-2.6892623121	-2.2955380707	-0.0967447539	 0.095413
H	-2.2239272537	-2.7685681564	-1.7432600798	 0.100959
H	-2.0541017991	-4.5837707608	 0.7413692725	 0.101003
H	-2.3725455332	-5.1313141934	-0.9147541982	 0.096276
H	-0.0337124381	-4.5258821727	-1.5834582237	 0.099972
H	 0.3829015595	-4.7543613339	 0.126797938	 0.095744
57.7875	91.8592	106.9367	144.0361	194.5949	238.8686	302.7501	324.4364	369.0538	445.4333	559.4264	641.1034	731.2192	765.9891	786.5368	813.9711	882.6029	906.4353	923.6155	933.842	953.3771	969.1058	993.5657	1040.0424	1044.1704	1081.1983	1104.613	1114.0456	1128.9394	1146.9766	1198.5611	1203.7586	1208.6075	1242.6807	1255.7682	1259.0337	1273.0984	1286.4761	1311.5155	1320.7604	1339.9611	1388.3414	1409.5079	1436.4525	1477.7053	1487.1459	1488.1157	1489.5531	1505.2339	1510.5462	1517.2408	2954.6889	3037.819	3044.544	3045.8042	3048.8396	3057.2509	3061.7702	3077.5771	3082.1599	3097.4197	3101.1824	3106.3741	3117.2224	3118.9982	3165.255
CCN1CC1C1CCC1	CCN1C[C@H]1C1CCC1	
InChI=1S/C8H15N/c1-2-9-6-8(9)7-4-3-5-7/h7-8H,2-6H2,1H3	InChI=1S/C8H15N/c1-2-9-6-8(9)7-4-3-5-7/h7-8H,2-6H2,1H3/t8-,9?/m0/s1
