12
gdb 35598	3.99902	1.05976	0.91306	4.038	66.56	-0.3052	-0.0793	0.2259	1188.1387	0.078409	-431.686754	-431.679182	-431.678238	-431.71985	26.247	
N	-0.3540382846	-1.1651062329	-0.2649560963	-0.294545
C	-0.1374807291	-0.0387591221	-0.1305999087	 0.284863
C	 0.0849585216	 1.39651738	 0.0537660566	-0.063654
C	-0.4898345852	 1.9587183611	 1.3994327466	-0.209574
N	 0.6851914691	 2.4317716264	 2.1337276109	-0.283532
C	 1.6820058928	 2.2237438743	 1.3804770935	 0.332816
O	 1.5058785822	 1.6607884799	 0.1511863827	-0.242225
C	 3.0403258419	 2.5489135616	 1.7075315025	 0.297034
N	 4.1342484373	 2.8135506242	 1.9654392246	-0.29744
H	-0.291384536	 1.9318209538	-0.8213871599	 0.158654
H	-1.180578682	 2.7888164849	 1.2290250818	 0.153099
H	-1.0133538279	 1.1945313887	 1.9787302258	 0.164505
48.3725	132.0456	169.0904	208.4628	256.2461	415.6841	487.0744	516.0497	572.5483	613.2706	706.7565	760.1306	826.6689	939.5818	984.3231	1018.4418	1036.0752	1058.3652	1203.5075	1233.2502	1297.563	1334.8148	1375.1729	1489.7305	1716.3923	2367.3606	2377.9096	3069.5312	3087.0606	3116.0414
N#CC1CN=C(O1)C#N	N#C[C@H]1CN=C(O1)C#N	
InChI=1S/C5H3N3O/c6-1-4-3-8-5(2-7)9-4/h4H,3H2	InChI=1S/C5H3N3O/c6-1-4-3-8-5(2-7)9-4/h4H,3H2/t4-/m0/s1
