19
gdb 105929	3.72328	1.4182	1.31567	1.3744	78.28	-0.2307	0.0701	0.3008	1027.8272	0.160322	-385.80774	-385.800398	-385.799454	-385.839565	29.573	
O	 0.5842683283	 0.0413675066	 0.8180023585	-0.419301
C	-0.2401163222	 0.4041433905	-0.2823584995	-0.227676
C	-1.5615271388	-0.2767727354	-0.1198111646	 0.391387
C	-2.2508600589	-0.4924193845	 1.2291775054	-0.102559
C	-1.8756093614	-1.6766954682	 0.3583532188	-0.156457
C	-3.2680481615	-1.5049880672	-0.3193852163	-0.047606
C	-3.7341412235	-0.4829910227	 0.7893231595	-0.058796
C	-3.8831293947	 0.6218029005	-0.286070741	-0.248438
C	-2.8009057656	-0.185737336	-1.0456077248	-0.136632
H	 1.4443389055	 0.4530551117	 0.6960288043	 0.289619
H	-0.3883519074	 1.4974260707	-0.3265594013	 0.08582
H	 0.2229865023	 0.1028229338	-1.2370905466	 0.086036
H	-1.8011731785	-0.1711349454	 2.1582230154	 0.093089
H	-1.2315543869	-2.5231202208	 0.5537768735	 0.08706
H	-3.9009573962	-2.2655983628	-0.7697150081	 0.064297
H	-4.5041951982	-0.6979823667	 1.5295448839	 0.060916
H	-4.8528774773	 0.5669662385	-0.7921396735	 0.093247
H	-3.6684541716	 1.6586208764	-0.006771143	 0.088196
H	-2.6454381035	-0.106851619	-2.1218873909	 0.0578
81.1056	170.5087	205.9443	262.3531	357.8127	448.5194	552.347	621.9837	732.2208	744.4495	791.6932	809.8163	835.9879	851.8197	884.2403	889.8506	896.5188	929.5504	978.848	987.764	995.5892	1047.7198	1056.8467	1070.54	1081.9017	1104.217	1124.2581	1160.3993	1168.3196	1184.0205	1203.6359	1235.1551	1242.7215	1249.1594	1264.753	1279.4953	1294.9312	1424.0378	1477.0706	1485.0678	1521.5888	2943.6672	2966.8809	3036.5625	3092.306	3109.1475	3117.2236	3145.3604	3203.7421	3217.3401	3836.1774
OCC12C3C1C1C3CC21	OC[C@]12[C@@H]3[C@H]1[C@H]1[C@@H]3C[C@@H]21	
InChI=1S/C8H10O/c9-2-8-4-1-3-5(4)7(8)6(3)8/h3-7,9H,1-2H2	InChI=1S/C8H10O/c9-2-8-4-1-3-5(4)7(8)6(3)8/h3-7,9H,1-2H2/t3-,4+,5-,6-,7+,8-/m0/s1
