15
gdb 131540	3.1162	1.57867	1.11036	3.0886	67.69	-0.2163	0.0031	0.2193	1027.1832	0.114918	-453.922251	-453.915022	-453.914078	-453.954476	27.514	
O	 0.0919979587	 1.4202494802	 0.2274936783	-0.419568
C	 0.0710406678	 0.0104240859	 0.061108962	-0.036122
C	-1.4013976876	-0.5642451501	-0.1102265931	-0.194138
N	-1.402426822	-1.4425612474	-1.3155241897	-0.415386
C	-0.1795230264	-1.2398786992	-1.8961905036	 0.47623
C	 0.7221188908	-0.5090569846	-1.1836243339	 0.088791
C	 1.8780008114	-0.5833312749	-1.9941044315	-0.121234
N	 1.6799324495	-1.2739400379	-3.0975600919	-0.163483
O	 0.3081633927	-1.7179496078	-3.0256892257	-0.239181
H	-0.05060384	 1.8134227281	-0.6412551697	 0.275125
H	 0.5140945281	-0.3745596443	 0.9846143686	 0.107052
H	-1.7181577845	-1.1377076378	 0.7640575581	 0.128612
H	-2.0857676082	 0.2818533059	-0.2335968347	 0.120318
H	-2.2228757754	-1.4328102304	-1.9058258464	 0.256116
H	 2.8595931452	-0.1536149454	-1.8451503369	 0.136869
51.0746	164.6254	268.2313	315.0772	356.2696	447.7208	501.6221	513.6089	616.1965	636.1929	703.1935	757.8555	788.2955	807.969	914.4348	927.0414	967.3676	969.3456	1025.7387	1070.3596	1170.9909	1195.738	1205.3997	1253.5686	1298.1431	1314.4383	1343.097	1412.8882	1437.7515	1448.4319	1504.7378	1576.781	1649.789	3049.3183	3060.2592	3104.7794	3234.572	3586.9756	3793.2329
OC1CNC2=C1C=NO2	O[C@H]1CNc2c1cno2	
InChI=1S/C5H6N2O2/c8-4-2-6-5-3(4)1-7-9-5/h1,4,6,8H,2H2	InChI=1S/C5H6N2O2/c8-4-2-6-5-3(4)1-7-9-5/h1,4,6,8H,2H2/t4-/m0/s1
