17
gdb 128210	6.37707	0.87481	0.77884	2.6876	74.34	-0.2045	0.0318	0.2363	1453.2836	0.135606	-455.129885	-455.120771	-455.119827	-455.164094	32.241	
C	-0.1028947703	 1.4401886523	 0.0948560053	-0.330407
N	-0.0234135902	 0.0063511807	-0.1487000472	-0.391677
C	-1.1363762427	-0.7792234007	-0.0607264499	 0.56778
C	-1.3112238758	-2.1333999204	 0.0313199483	-0.531262
C	-2.7244552415	-2.2608028954	 0.0145552983	 0.519583
O	-3.361858267	-3.4337673772	 0.0817033972	-0.266251
C	-4.7890698883	-3.3664281623	 0.051489359	-0.240233
N	-3.3621733309	-1.1134483257	-0.0728773067	-0.276219
O	-2.3196266191	-0.1488516566	-0.1173351578	-0.240912
H	 0.865794996	 1.8854438469	-0.1407081619	 0.129418
H	-0.8542919918	 1.8807907266	-0.5629737451	 0.160525
H	-0.3672619214	 1.6893089347	 1.131745647	 0.128528
H	 0.8223281686	-0.4457758437	 0.1598946156	 0.253637
H	-0.5727037123	-2.9129317293	 0.0908049668	 0.108912
H	-5.1681142382	-2.7829519398	 0.8961416531	 0.139795
H	-5.1361721897	-2.9038310554	-0.8775113124	 0.140347
H	-5.1372239456	-4.3978887748	 0.1154360303	 0.128438
73.8716	101.8173	140.4577	171.9145	172.8245	242.9315	266.8151	377.0823	407.2506	452.9861	590.1279	654.9837	676.9	702.7202	753.2411	760.1659	938.246	981.8597	1025.6697	1056.9448	1080.1933	1147.0643	1158.951	1179.2853	1209.4593	1235.5218	1354.4085	1438.625	1453.0382	1468.2497	1478.274	1488.487	1500.265	1516.8532	1534.6501	1581.6745	1676.7139	3010.4686	3038.4177	3101.7478	3108.1368	3142.7531	3149.1329	3288.3674	3634.6458
CNC1=CC(OC)=NO1	CNc1cc(OC)no1	
InChI=1S/C5H8N2O2/c1-6-4-3-5(8-2)7-9-4/h3,6H,1-2H3	InChI=1S/C5H8N2O2/c1-6-4-3-5(8-2)7-9-4/h3,6H,1-2H3
