18
gdb 10330	2.50201	1.57742	1.04199	3.4201	64.54	-0.2476	-0.0174	0.2302	1121.8239	0.150107	-422.075441	-422.065505	-422.064561	-422.110794	34.319	
C	 0.0341938789	 1.5420985534	-0.1734856449	-0.4082
C	-0.0162602505	 0.0285342039	 0.0328698337	 0.124145
O	 0.4955637423	-0.6660683075	-1.1006208355	-0.425022
C	 0.6989783745	-0.4417002019	 1.3186836111	-0.144372
C	-0.0147253882	 0.0125181324	 2.6050126144	-0.078978
O	 0.5072144369	-0.6086044906	 3.7659073354	-0.409718
C	 0.7937106689	-1.9602372618	 1.3120663234	 0.186009
O	 1.8254046295	-2.5767879183	 1.3476255452	-0.259821
H	 1.0717013969	 1.8964034004	-0.2025577209	 0.113012
H	-0.4407925459	 1.797266433	-1.1243660423	 0.133317
H	-0.4834018609	 2.0814781993	 0.6255679096	 0.123739
H	-1.0653977457	-0.2897764026	 0.0860845434	 0.097041
H	 1.4399014104	-0.4825500298	-1.1663231735	 0.284837
H	 1.7303541935	-0.0599594867	 1.3189723124	 0.076074
H	 0.0158656858	 1.1086813354	 2.6845456655	 0.102017
H	-1.0704310066	-0.2807559683	 2.5666348363	 0.11883
H	 1.4534443423	-0.4332841454	 3.8053457551	 0.290257
H	-0.1921142421	-2.4780692151	 1.2788807117	 0.076835
49.7291	71.1446	98.5722	168.0105	210.3374	234.862	266.2347	288.521	331.7348	342.0535	411.2477	482.9202	524.3076	531.6841	852.7222	882.0431	936.0512	964.0193	1039.2095	1052.3049	1078.4891	1111.2159	1127.8122	1165.2211	1189.8643	1238.8534	1310.0865	1342.3765	1358.6897	1385.5219	1406.9593	1411.536	1419.3783	1433.1068	1490.1283	1495.0152	1508.5945	1838.6592	2871.76	2998.4635	3008.8837	3028.7412	3034.8264	3065.0184	3102.5802	3123.1443	3794.7488	3811.9781
CC(O)C(CO)C=O	C[C@@H](O)[C@@H](CO)C=O	
InChI=1S/C5H10O3/c1-4(8)5(2-6)3-7/h2,4-5,7-8H,3H2,1H3	InChI=1S/C5H10O3/c1-4(8)5(2-6)3-7/h2,4-5,7-8H,3H2,1H3/t4-,5-/m1/s1
