14
gdb 130135	3.21368	1.41306	0.98244	4.4218	69.27	-0.2071	-0.0416	0.1656	1102.3207	0.103027	-470.04972	-470.042116	-470.041172	-470.081527	29.66	
N	 0.0020819574	 1.3726091089	 0.1542261656	-0.563094
C	-0.000930158	-0.0079783454	 0.0409572672	 0.335669
N	-1.1314353856	-0.6478605803	 0.0136122398	-0.28837
N	-1.075677287	-1.99834795	-0.0056596235	-0.289188
C	 0.0454339594	-2.8213626469	-0.0240960684	 0.439045
O	-0.0602319777	-4.0381673001	-0.047218295	-0.409582
C	 1.285749546	-2.0622817733	-0.0186094873	-0.386988
C	 1.2669940984	-0.7084579918	 0.014213446	 0.381983
O	 2.3581971041	 0.0950632529	 0.0108584429	-0.437462
H	 0.8014740059	 1.8283180854	-0.25958408	 0.26405
H	-0.8820913978	 1.7975200156	-0.0857688163	 0.259198
H	-1.9741087969	-2.4591453567	-0.017335272	 0.269871
H	 2.209458348	-2.6299018206	-0.0434029885	 0.114368
H	 3.156883744	-0.4443112878	-0.0226401906	 0.310499
119.7507	199.5166	298.2494	335.0281	368.9562	389.8133	400.5569	461.6666	473.5285	529.4074	582.6106	620.6017	635.8698	722.3334	737.6981	763.8296	821.5353	873.4724	959.6479	1086.6013	1174.1303	1236.6738	1259.9693	1305.9517	1339.8822	1439.968	1516.7834	1609.7387	1623.5769	1689.1179	1776.586	3195.0654	3569.8749	3617.6999	3682.0693	3805.7508
NC1=NNC(=O)C=C1O	Nc1n[nH]c(=O)cc1O	
InChI=1S/C4H5N3O2/c5-4-2(8)1-3(9)6-7-4/h1H,(H2,5,7)(H2,6,8,9)	InChI=1S/C4H5N3O2/c5-4-2(8)1-3(9)6-7-4/h1H,(H2,5,7)(H2,6,8,9)
