17
gdb 30318	3.14525	1.58818	1.12416	3.8201	74.65	-0.2146	0.0249	0.2396	1061.0515	0.138675	-418.036519	-418.028977	-418.028033	-418.068733	28.655	
C	 0.0955302039	 1.5759849891	-0.1199146337	-0.387569
C	-0.0565654179	 0.0704177887	 0.0901462321	 0.029836
O	 0.512956012	-0.6324974698	-1.0380181699	-0.298918
C	 1.4802186221	-1.6362386764	-0.6598318893	-0.181457
C	 1.5770118352	-1.4763958732	 0.8223426999	 0.239857
C	 0.7077246088	-0.5174604755	 1.2280859004	 0.26858
N	 0.8406154029	-0.4475284214	 2.5912011313	-0.387788
C	 1.798820119	-1.3792002368	 2.9240972703	-0.014608
N	 2.2657175911	-2.0229111847	 1.8733139068	-0.338095
H	 1.1528060542	 1.8514272132	-0.1606513401	 0.124737
H	-0.3804560479	 1.8700758399	-1.0592621189	 0.130629
H	-0.3838677778	 2.1304171037	 0.694903625	 0.103219
H	-1.1304271839	-0.1748861951	 0.1421338417	 0.085194
H	 1.1182420463	-2.6270710045	-0.9695271267	 0.112254
H	 2.4201497414	-1.4415430206	-1.1929993269	 0.115449
H	 0.3556636845	 0.1580100476	 3.2316432556	 0.268028
H	 2.1075187963	-1.5328618443	 3.9475388325	 0.130653
82.104	144.1776	231.6876	234.5933	296.2563	445.6893	459.9538	499.2369	602.2122	660.1089	679.02	722.6567	787.5522	795.0355	853.4441	962.7669	994.948	1032.0631	1045.9009	1077.6293	1095.1361	1109.9693	1143.6625	1181.686	1252.7875	1307.3976	1317.7756	1367.0596	1383.0744	1400.4026	1416.9653	1463.2427	1485.8738	1494.2616	1522.7663	1527.8681	1623.9718	2955.2486	2997.8755	3027.6972	3035.1006	3107.7711	3127.7439	3251.0348	3667.6878
CC1OCC2=C1NC=N2	C[C@H]1OCc2c1[nH]cn2	
InChI=1S/C6H8N2O/c1-4-6-5(2-9-4)7-3-8-6/h3-4H,2H2,1H3,(H,7,8)	InChI=1S/C6H8N2O/c1-4-6-5(2-9-4)7-3-8-6/h3-4H,2H2,1H3,(H,7,8)/t4-/m1/s1
