18
gdb 57223	2.58949	1.23491	1.16431	5.0172	68.11	-0.2453	0.0153	0.2606	1151.2405	0.147245	-476.234914	-476.225873	-476.224929	-476.268989	33.955	
N	 0.0268912561	 0.8559861846	 0.1441485971	-0.58407
H	 0.1696479482	-0.1417186712	 0.2541602774	 0.243232
H	 0.9345910983	 1.2990909074	 0.0291555996	 0.259333
H	-1.1537971803	 1.5554059942	-0.9551105233	 0.322347
C	-0.6532078117	 1.4319609651	 1.2971489297	 0.325071
C	-1.5920066621	 0.5590072385	 2.0767379749	-0.309695
C	-0.2944974071	 1.025174301	 2.7051685657	-0.307465
C	-1.0447381592	 2.8689589748	 1.0357975834	-0.042455
O	 0.1680885478	 3.5958215095	 0.8298835049	-0.452546
C	-1.9594332018	 3.0937248447	-0.1931168878	 0.379994
O	-1.8518408796	 2.2237419976	-1.1952735731	-0.372449
O	-2.6803739464	 4.0599738834	-0.240461093	-0.348628
H	-2.5238227921	 0.9886709873	 2.4278812416	 0.13439
H	-1.6729555705	-0.4821602675	 1.7812351702	 0.119148
H	 0.4983920142	 0.2947146139	 2.8267549341	 0.113735
H	-0.3376108148	 1.7744129205	 3.4878213999	 0.128317
H	-1.5940679918	 3.2617574573	 1.9009546673	 0.091353
H	-0.0749856373	 4.4905592487	 0.5644654113	 0.300388
47.801	94.3835	191.0263	242.0086	248.2857	310.0214	346.7908	378.6449	397.9811	408.6739	477.2068	524.0292	665.0023	767.7207	780.4725	808.7151	881.5548	890.9878	931.0927	956.2907	978.5804	993.1104	1003.1085	1052.1577	1066.6884	1084.7943	1176.5392	1186.1088	1203.6393	1299.8574	1325.173	1345.6981	1361.9536	1447.938	1465.6028	1501.6185	1512.6421	1631.7345	1842.754	3027.169	3131.0609	3135.0474	3188.3124	3211.0414	3225.5571	3497.9084	3588.3273	3800.1564
[NH3+]C1(CC1)C(O)C([O-])=O	NC1(CC1)[C@@H](O)C(=O)O	
InChI=1S/C5H9NO3/c6-5(1-2-5)3(7)4(8)9/h3,7H,1-2,6H2,(H,8,9)	InChI=1S/C5H9NO3/c6-5(1-2-5)3(7)4(8)9/h3,7H,1-2,6H2,(H,8,9)/t3-/m0/s1
