20
gdb 13775	3.33287	1.29299	1.03723	3.2868	76.83	-0.2444	-0.0165	0.2278	1183.6717	0.175114	-349.012949	-349.003801	-349.002857	-349.046894	33.391	
C	 0.2032401336	 1.4844940984	 0.1525617299	-0.386941
C	-0.1516047514	-0.0018111742	-0.0072488748	 0.00772
C	-1.6701955875	-0.2053192049	-0.0995808428	-0.389041
C	 0.5555543749	-0.5728866551	-1.2272079246	 0.027635
C	 1.9491543551	-1.0961749409	-1.1698991624	-0.317881
C	 0.8037247745	-2.0700142703	-1.437931408	-0.117852
C	 0.4620237544	-3.0648457446	-0.3991773942	 0.164073
O	 0.0155207961	-4.1633380361	-0.6276031576	-0.275642
H	 1.2842005746	 1.6283256251	 0.2457799594	 0.115971
H	-0.1371920531	 2.06253652	-0.7147438623	 0.114111
H	-0.274483041	 1.9080525953	 1.0417088472	 0.113981
H	 0.210981814	-0.5268400704	 0.8855344362	 0.075278
H	-2.0781317096	 0.302947077	-0.9812800681	 0.114152
H	-1.9293297125	-1.2656728628	-0.1777284533	 0.126441
H	-2.1751275976	 0.2032042205	 0.7816475523	 0.113827
H	 0.2838043692	-0.0659619075	-2.1516082525	 0.095073
H	 2.6367187124	-0.903738041	-1.9853941966	 0.126411
H	 2.4209865651	-1.1640360561	-0.1934427837	 0.121867
H	 0.6846869656	-2.446241495	-2.4482385768	 0.105096
H	 0.6627108331	-2.7391924773	 0.6477367328	 0.065721
57.9801	93.4425	170.7187	214.7249	225.9176	251.5112	296.8316	329.9416	359.9355	438.3529	469.8423	562.3371	755.2266	840.1174	863.373	882.015	931.3304	940.5275	966.4459	987.4409	1030.4176	1049.0119	1075.1171	1131.9743	1143.8207	1186.3234	1191.4443	1199.2231	1241.3294	1318.886	1343.8608	1345.7334	1400.666	1414.59	1427.8179	1451.7562	1486.005	1488.3495	1491.4555	1503.5204	1510.6285	1812.4508	2859.8324	3022.3784	3026.4479	3031.1054	3092.0545	3097.9497	3105.4227	3107.7158	3122.7375	3126.4101	3175.6557	3216.1206
CC(C)C1CC1C=O	CC(C)[C@H]1C[C@H]1C=O	
InChI=1S/C7H12O/c1-5(2)7-3-6(7)4-8/h4-7H,3H2,1-2H3	InChI=1S/C7H12O/c1-5(2)7-3-6(7)4-8/h4-7H,3H2,1-2H3/t6-,7+/m0/s1
