16
gdb 35069	3.74543	1.41974	1.36549	1.0808	81.05	-0.2179	-0.0535	0.1643	979.5783	0.123615	-363.441513	-363.434436	-363.433492	-363.472864	28.67	
C	-0.0753206712	-1.2011244843	 0.1841336974	-0.446826
C	-0.0495846622	-0.0046064008	 0.0758467977	 0.333642
C	-0.0231265159	 1.4482162988	-0.0225312116	-0.155173
C	-0.6333040832	 2.0777905236	 1.2470123008	-0.119452
C	 0.1896145995	 3.0662216697	 1.6401898514	 0.020261
C	 1.298103091	 2.6333239598	 2.6107575382	-0.268687
C	 2.0888163151	 2.3937915019	 1.2535043206	-0.037859
C	 1.2235035816	 3.3430462424	 0.5246646525	-0.09224
N	 1.3690187142	 2.018729783	-0.0417883328	-0.117356
H	-0.0936362337	-2.2602857971	 0.2601889521	 0.201568
H	-0.4710603517	 1.7581010566	-0.9765879189	 0.12216
H	-1.181620811	 1.4448120889	 1.9370991469	 0.117857
H	 1.8214009157	 3.4240878148	 3.1600444647	 0.115195
H	 1.0771491909	 1.7912233226	 3.2700994357	 0.115881
H	 3.165599012	 2.2778326112	 1.1928893052	 0.113353
H	 1.4347198389	 4.2580972389	-0.0154953301	 0.097676
92.8484	159.8965	288.3914	397.4614	403.1243	511.4377	520.2344	603.2947	628.4934	654.6408	682.0822	754.126	756.3246	795.8398	824.6192	887.9635	897.8628	925.8727	964.2311	993.9819	999.0659	1032.6495	1057.1048	1069.1188	1100.9962	1187.3612	1197.8008	1212.8945	1226.1711	1268.7177	1311.4369	1328.7654	1499.8042	1583.5562	2237.6266	3008.5944	3036.4634	3112.5054	3173.2174	3182.1454	3188.6555	3503.4072
C#CC1C=C2CC3C2N13	C#C[C@H]1[CH][C]2C[C@@H]3[C@H]2N13	
InChI=1S/C8H7N/c1-2-6-3-5-4-7-8(5)9(6)7/h1,3,6-8H,4H2	InChI=1S/C8H7N/c1-2-6-3-5-4-7-8(5)9(6)7/h1,3,6-8H,4H2/t6-,7+,8-,9?/m0/s1
