17
gdb 17211	4.4384	1.77692	1.5552	1.8637	67.75	-0.244	0.0657	0.3097	851.5801	0.143464	-363.79257	-363.785893	-363.784949	-363.823491	26.132	
C	 0.2619042741	 1.5626788153	-0.0817212204	-0.305362
N	 1.3459653283	 0.5778754211	 0.1220254022	-0.368693
C	-0.0318287103	 0.1147770485	-0.0181804344	 0.364722
C	-0.7335671126	-0.7218636121	 1.066862466	-0.307686
C	-1.3455377685	-1.5921565149	-0.0562674432	 0.123064
O	-2.6103300786	-1.0888225315	-0.5355519539	-0.292118
C	-1.9784128384	-0.4024855008	-1.6407070196	-0.076723
C	-0.5731806328	-0.7824662465	-1.1422269006	-0.182176
H	 0.0575311709	 2.1982194809	 0.775902583	 0.121937
H	 0.1817726802	 2.0630765007	-1.0443129692	 0.109776
H	 1.8538191076	 0.4387443899	-0.7491745753	 0.228148
H	-0.0182477045	-1.2561141583	 1.69903784	 0.11284
H	-1.4699180794	-0.2119746981	 1.6923325611	 0.113479
H	-1.3406633342	-2.6792122601	 0.051948077	 0.079312
H	-2.2571146811	-0.8572233673	-2.6001908866	 0.099342
H	-2.2201811948	 0.6671581766	-1.6651124453	 0.102778
H	 0.1401886141	-1.2026708034	-1.8523008606	 0.077358
81.5381	209.3254	288.2941	321.912	371.9977	457.3871	553.4427	718.1941	796.3194	822.7195	830.898	873.171	922.4725	939.6256	964.0139	972.8944	1001.779	1015.3995	1039.0111	1056.6585	1076.0629	1121.6024	1142.6662	1156.1953	1176.4592	1213.7284	1252.6262	1265.3827	1279.4406	1283.5686	1316.554	1358.3127	1408.18	1457.6881	1512.3702	1520.6052	3007.371	3054.0267	3057.705	3081.0654	3100.012	3104.5913	3120.3681	3184.4896	3485.3968
C1NC11CC2OCC12	C1N[C@]21C[C@H]1OC[C@@H]21	
InChI=1S/C6H9NO/c1-5-4(2-8-5)6(1)3-7-6/h4-5,7H,1-3H2	InChI=1S/C6H9NO/c1-5-4(2-8-5)6(1)3-7-6/h4-5,7H,1-3H2/t4-,5-,6+/m1/s1
