17
gdb 77535	3.15372	1.33636	1.11307	1.6744	77.11	-0.2491	0.0123	0.2613	1121.1536	0.133123	-421.733071	-421.724492	-421.723547	-421.765795	33.376	
C	 0.0180469672	 1.4318288023	 0.1650836314	-0.515653
C	-0.0498368911	-0.0421811231	-0.0614606211	 0.332954
C	 0.6250004184	-0.9361912547	-1.1236281432	-0.297112
C	 0.0064945728	-1.8696699107	-0.057535326	 0.275988
O	 0.5224519323	-0.939757319	 1.0002802202	-0.398171
C	 0.1473578529	-3.2790990477	 0.1238537353	 0.073862
C	 0.2344550661	-4.4708138956	 0.257641513	-0.356473
C	-1.2922811109	-0.9866552046	-0.082124197	 0.120374
O	-2.1136210322	-1.0026154409	 1.0280448187	-0.440345
H	 1.0493931171	 1.7526585756	 0.338255767	 0.138351
H	-0.3707036007	 1.9655734304	-0.7078356061	 0.132304
H	-0.5868277293	 1.709731021	 1.033780211	 0.137789
H	 0.1977542463	-0.9603139844	-2.1294069753	 0.103371
H	 1.7144185964	-0.9140928183	-1.1176879526	 0.12118
H	 0.314225196	-5.5230619846	 0.379870873	 0.188857
H	-1.9054138146	-1.0177478444	-0.9854790306	 0.093372
H	-1.5089977967	-1.0048538915	 1.7859821523	 0.289355
121.0031	138.2536	183.3394	204.2608	282.8339	324.0092	366.5551	490.1592	517.7964	519.8254	547.511	600.8055	617.2462	641.7156	683.7375	709.2006	747.6932	792.811	882.2057	921.8295	969.4084	1013.2593	1097.3603	1107.3295	1139.2039	1158.6814	1168.8774	1193.3185	1244.7104	1303.4554	1362.694	1415.0984	1445.3937	1476.6069	1486.4438	1503.9111	2237.5502	3040.2016	3067.9176	3101.0752	3113.3695	3117.2713	3157.8219	3498.5984	3721.6907
CC12CC(O1)(C#C)C2O	C[C@@]12C[C@](O1)(C#C)[C@H]2O	
InChI=1S/C7H8O2/c1-3-7-4-6(2,9-7)5(7)8/h1,5,8H,4H2,2H3	InChI=1S/C7H8O2/c1-3-7-4-6(2,9-7)5(7)8/h1,5,8H,4H2,2H3/t5-,6-,7+/m0/s1
