21
gdb 73670	2.37134	1.75951	1.34247	1.4733	82.22	-0.2424	0.0229	0.2653	1052.5861	0.184907	-387.112064	-387.10414	-387.103196	-387.144514	31.609	
C	-0.1941089936	 1.477265887	 0.1038755722	-0.456245
C	 0.0105645856	-0.0368972052	-0.0467151134	 0.286057
C	-1.349116151	-0.7972182495	 0.0150269455	-0.131582
O	-1.4309682793	-1.3609039017	 1.3147275276	-0.242468
C	-0.1182756468	-1.7985909398	 1.6243291252	-0.09808
C	 0.8198722482	-0.6792869589	 1.1373524289	-0.05442
C	 2.1698610123	-1.1607365761	 0.5508923601	-0.295315
C	 1.9902258215	-1.0007933076	-0.9395436294	-0.068762
C	 0.8480497317	-0.3934473736	-1.2537369958	-0.127701
H	 0.7637966704	 1.9981626846	 0.2023404637	 0.114621
H	-0.7124304938	 1.8955057912	-0.766545604	 0.11099
H	-0.7968532274	 1.6967912851	 0.9918851064	 0.121569
H	-2.2185112692	-0.1477808302	-0.121603804	 0.101458
H	-1.3806966319	-1.5898249994	-0.7498193965	 0.084092
H	-0.0701729466	-1.9843815288	 2.7005118269	 0.106262
H	 0.109866863	-2.7420886977	 1.0980862038	 0.083818
H	 0.9665933336	 0.0474648287	 1.940103983	 0.072763
H	 3.0142550877	-0.5609244262	 0.9135807437	 0.107561
H	 2.395668649	-2.1979675851	 0.8330781881	 0.103216
H	 2.7318418885	-1.3425081697	-1.6542837592	 0.09234
H	 0.5236114181	-0.1594834571	-2.2632803327	 0.089828
56.565	213.7565	245.9492	258.2204	269.0209	351.2534	400.7567	460.1196	567.1654	599.6572	640.7488	757.084	779.242	793.2176	889.0622	926.8047	939.1017	956.7302	963.9198	974.0855	979.776	1009.476	1051.6001	1078.548	1097.8228	1120.0727	1159.8838	1191.6779	1205.7035	1214.725	1242.4551	1274.8131	1298.246	1320.8184	1329.3622	1364.8398	1380.0163	1394.6641	1414.1139	1485.8759	1493.2907	1497.4686	1505.0306	1519.5648	1687.6878	2951.1756	2972.1651	3015.496	3023.2803	3038.7157	3071.0534	3082.3604	3091.3348	3094.9508	3100.4834	3168.5171	3195.4819
CC12COCC1CC=C2	C[C@]12COC[C@H]1CC=C2	
InChI=1S/C8H12O/c1-8-4-2-3-7(8)5-9-6-8/h2,4,7H,3,5-6H2,1H3	InChI=1S/C8H12O/c1-8-4-2-3-7(8)5-9-6-8/h2,4,7H,3,5-6H2,1H3/t7-,8+/m1/s1
