17
gdb 32288	2.85882	1.43838	1.03052	0.7102	79.26	-0.2331	-0.0525	0.1805	1153.9328	0.137391	-418.05032	-418.042226	-418.041282	-418.08323	30.19	
C	 0.0434110837	 1.5593528848	 0.1068770986	-0.377446
C	-0.0085829565	 0.0323806087	-0.0800433307	-0.278241
C	-1.4048877439	-0.5257998563	-0.0423790851	 0.208943
C	-2.0595006112	-0.97077122	-1.1380132441	-0.094746
N	-3.3559471932	-1.4755268675	-1.1291009175	-0.278443
C	-3.9244461296	-1.5118264832	 0.0102025136	 0.134434
O	-3.3969406191	-1.1187405999	 1.1859553956	-0.214794
C	-2.0939084917	-0.5977750426	 1.2406083077	 0.338621
N	-1.5983940112	-0.2401130785	 2.3507298811	-0.533573
H	 1.0789822565	 1.9103102419	 0.0678430169	 0.11482
H	-0.5182719011	 2.070497648	-0.6815333126	 0.113021
H	-0.3783687145	 1.8409264092	 1.0738841061	 0.148434
H	 0.4503764482	-0.2395998053	-1.0369308794	 0.10046
H	 0.5785590626	-0.441704429	 0.713767942	 0.129017
H	-1.5826274772	-0.9525934335	-2.1134075124	 0.117118
H	-4.9364621787	-1.8827834215	 0.1405773993	 0.145479
H	-2.2572634632	-0.3900358955	 3.1144995708	 0.226898
89.2783	108.8653	178.3642	213.7259	289.3894	314.8435	430.5736	468.1195	521.0726	574.3297	607.9277	722.272	774.4504	796.918	855.5643	886.1653	934.1266	961.7689	971.488	988.9228	1072.2954	1079.4982	1102.5362	1176.7059	1226.1937	1284.873	1294.796	1356.4127	1399.2533	1409.0553	1418.6002	1475.0196	1495.3306	1512.1627	1623.0096	1674.0193	1739.6453	3038.7531	3042.363	3081.4729	3109.6195	3138.126	3177.6652	3194.8239	3497.1251
CCC1=CN=COC1=N	CCC1=C(OC=NC1)[NH]	
InChI=1S/C6H8N2O/c1-2-5-3-8-4-9-6(5)7/h3-4,7H,2H2,1H3	InChI=1S/C6H9N2O/c1-2-5-3-8-4-9-6(5)7/h4,7H,2-3H2,1H3
