21
gdb 91371	3.2101	1.22301	1.04578	1.4846	86.04	-0.2255	0.0111	0.2366	1249.3593	0.182271	-387.073955	-387.065291	-387.064347	-387.107124	33.623	
C	 0.0162703645	 1.5446603685	 0.2043734305	-0.403893
C	 0.027922523	 0.0382619862	-0.0005444076	-0.0549
C	 1.1766437104	-0.6288120754	-0.8610718455	-0.275747
C	 1.1956454474	-1.8153333236	 0.1708378729	 0.090242
O	 2.3643189212	-2.2749395058	 0.8159116179	-0.294503
C	 2.2777486692	-1.9036409465	 2.2149389444	 0.109423
C	 3.6409389451	-1.4062194163	 2.6830620349	-0.386946
C	 1.187388883	-0.8352495105	 2.2669453632	-0.257506
C	 0.5369679037	-0.8602585989	 1.1101817436	 0.21255
H	 0.9840777869	 1.8917408431	 0.5801160987	 0.118445
H	-0.1923746707	 2.0661848477	-0.7357268345	 0.118056
H	-0.7523023941	 1.8396174162	 0.9267742703	 0.120374
H	-0.9428476089	-0.3022227054	-0.3800180704	 0.086129
H	 0.9461769453	-0.8659581682	-1.9026632786	 0.098535
H	 2.1000151928	-0.0487142391	-0.7957659647	 0.112881
H	 0.5903285257	-2.660068874	-0.1873505855	 0.075096
H	 2.0084967806	-2.8021672383	 2.7955552307	 0.078732
H	 3.9202227096	-0.4927552005	 2.1495188198	 0.116859
H	 3.6268605876	-1.1970074344	 3.7578439381	 0.110695
H	 4.4026637296	-2.1670288594	 2.4905590617	 0.126529
H	 1.116987118	-0.1154412555	 3.0730961001	 0.098951
84.2689	121.9945	203.159	213.8506	238.1614	307.4681	340.5576	386.2878	467.9153	490.6715	625.8523	671.1995	701.0474	791.2748	815.6068	845.3742	869.5168	904.4897	918.7578	923.8209	1000.0059	1046.4375	1054.7634	1079.2845	1097.0961	1116.1279	1134.6987	1138.9567	1158.386	1205.2989	1235.1147	1254.1176	1291.0487	1310.6813	1354.4716	1369.5336	1384.0559	1399.7374	1408.0561	1470.0607	1483.9307	1492.1594	1494.9437	1496.541	1723.5221	2952.3834	2998.6419	3030.9	3033.5051	3037.1026	3060.5523	3098.3467	3105.6662	3111.3704	3119.3229	3131.2785	3208.3258
CC1CC2OC(C)C=C12	C[C@H]1C[C@H]2O[C@@H](C)[CH][C]12	
InChI=1S/C8H12O/c1-5-3-8-7(5)4-6(2)9-8/h4-6,8H,3H2,1-2H3	InChI=1S/C8H12O/c1-5-3-8-7(5)4-6(2)9-8/h4-6,8H,3H2,1-2H3/t5-,6-,8+/m0/s1
