13
gdb 43131	2.58086	1.94867	1.45464	3.4302	57.81	-0.2386	-0.1004	0.1382	874.9776	0.089868	-493.707261	-493.70058	-493.699636	-493.73861	25.03	
O	 0.005895286	-0.0123160957	 0.0178338751	-0.279339
C	-0.0143995045	 1.1835317192	 0.0065089875	 0.335676
C	-1.2001103896	 2.1562604612	 0.0613371361	-0.092328
C	-1.2064537121	 2.8482872907	 1.4364238868	-0.099682
O	-0.0352986829	 3.6812255238	 1.3528085135	-0.266893
C	 0.4544463579	 3.5220206385	 0.0263015522	 0.045512
O	-0.6786537447	 3.2206503048	-0.7712367657	-0.243345
C	 1.196256745	 2.1763996875	-0.0482277388	 0.348793
O	 2.3623539069	 1.9217949674	-0.1148335044	-0.280337
H	-2.1469185519	 1.7817055182	-0.3192727817	 0.131112
H	-2.0946301626	 3.4737580281	 1.5671673517	 0.132581
H	-1.1152571783	 2.1512042749	 2.2742890928	 0.138086
H	 0.9768432408	 4.4126460414	-0.3168077651	 0.130164
102.4526	187.7648	238.5784	291.4934	446.2419	467.5679	558.1669	605.435	691.6361	738.5219	774.894	842.2521	894.8142	924.2686	951.7358	974.5481	1022.131	1078.4937	1080.6126	1176.3723	1184.5937	1233.2164	1257.5805	1283.0379	1312.2902	1362.8307	1517.9968	1872.0633	1891.5015	3052.3819	3105.385	3158.4654	3168.0192
O=C1C2COC(O2)C1=O	O=C1[C@H]2CO[C@H](O2)C1=O	
InChI=1S/C5H4O4/c6-3-2-1-8-5(9-2)4(3)7/h2,5H,1H2	InChI=1S/C5H4O4/c6-3-2-1-8-5(9-2)4(3)7/h2,5H,1H2/t2-,5-/m1/s1
