20
gdb 84096	2.53856	1.54152	1.11828	3.0076	80.44	-0.2276	0.0124	0.24	1149.4377	0.170912	-403.139367	-403.130523	-403.129579	-403.172293	34.452	
C	-0.0738476654	 1.5024820535	 0.021004514	-0.503204
C	-0.0908894887	 0.0081786788	-0.0462436103	 0.306535
C	-0.0828177518	-0.7634697877	-1.1365362987	-0.228677
C	-0.0136860898	-2.2496076891	-0.8196282997	 0.104462
O	 1.1393314919	-2.8752394506	-1.361784581	-0.440315
C	-0.0215026314	-2.2543061114	 0.7126659827	-0.127122
N	 1.2203125012	-1.6390364191	 1.2480549321	-0.385947
C	-0.0586309423	-0.8571794807	 1.1943497413	 0.243755
C	-0.7180342637	-0.4124791481	 2.4733662394	-0.503192
H	 0.8253213353	 1.8623781239	 0.537239814	 0.133301
H	-0.0921408597	 1.944985484	-0.9781512137	 0.127984
H	-0.9333775657	 1.8928129994	 0.5800608637	 0.124745
H	-0.0314794667	-0.4046484396	-2.1589699112	 0.093749
H	-0.8676765549	-2.8030037527	-1.2271322693	 0.082939
H	 1.8767023599	-2.5103784374	-0.8522181564	 0.285817
H	-0.4752897681	-3.073454191	 1.2598499762	 0.085735
H	 1.3602945915	-1.9773850968	 2.19970196	 0.224619
H	-0.2230660049	 0.4704736492	 2.8931183095	 0.12808
H	-1.7692708126	-0.1549417835	 2.3042468958	 0.130104
H	-0.6853598341	-1.205641141	 3.2272727116	 0.11663
134.9829	147.924	188.3789	214.1575	240.0662	258.053	300.1444	416.5992	461.3877	493.06	544.0513	561.5205	600.0711	662.5037	758.3601	812.8605	855.9267	872.9324	904.4098	979.2472	997.0124	1015.1472	1045.7885	1057.3337	1070.0075	1075.2848	1109.8785	1129.1293	1188.1153	1253.8569	1274.8254	1313.9324	1326.2875	1369.387	1408.5768	1414.1877	1426.6825	1445.3755	1478.2942	1481.6369	1489.777	1502.2491	1710.7181	3018.8852	3027.6982	3043.276	3065.4372	3090.7352	3100.423	3115.2761	3169.4621	3191.413	3465.3033	3743.7066
CC1=CC(O)C2NC12C	CC1=C[C@@H](O)[C@H]2N[C@@]12C	
InChI=1S/C7H11NO/c1-4-3-5(9)6-7(4,2)8-6/h3,5-6,8-9H,1-2H3	InChI=1S/C7H11NO/c1-4-3-5(9)6-7(4,2)8-6/h3,5-6,8-9H,1-2H3/t5-,6-,7+/m1/s1
