17
gdb 87324	2.07482	1.33667	0.95216	2.4048	75.06	-0.2528	-0.0281	0.2246	1246.5862	0.132015	-421.783019	-421.773315	-421.772371	-421.818102	34.897	
O	-0.1382797608	 1.2775143791	 0.0683305988	-0.417457
C	-0.1386785231	-0.1103461663	 0.1978373004	 0.064697
C	-0.8773903091	-0.7662782935	 1.3116659274	-0.346755
C	-1.4632609617	-0.8171217631	-0.0981081491	 0.218946
C	-2.6881679175	 0.0238719753	-0.4353501631	-0.465282
C	-3.9237066474	-0.5268859844	 0.1135293529	 0.307761
C	-4.9282746286	-1.0022474698	 0.5712501952	-0.445746
C	-1.3289900876	-2.1184644811	-0.8074179213	 0.098746
O	-0.4415048159	-2.9129313135	-0.6013466373	-0.272739
H	 0.3297775943	 1.6494440046	 0.8231532619	 0.297555
H	 0.7433696203	-0.6183645234	-0.1886668094	 0.119553
H	-0.4897326542	-1.7008992924	 1.7012048236	 0.142453
H	-1.4009442006	-0.1292790689	 2.0167715929	 0.127239
H	-2.5277085643	 1.0426923614	-0.0707208808	 0.15191
H	-2.7788814901	 0.1087758667	-1.5267742256	 0.135797
H	-5.821336227	-1.4132813089	 0.9722575296	 0.198964
H	-2.1101276866	-2.3167685919	-1.573696786	 0.084357
41.995	101.3338	126.2085	193.0715	212.2886	233.5666	260.218	328.01	343.4736	411.0213	455.0638	556.7001	624.3388	637.5788	660.8286	740.0734	799.9121	880.9507	915.286	953.7003	966.876	1017.711	1056.7757	1076.4853	1113.7366	1166.6681	1206.1721	1267.9015	1303.7948	1322.8641	1345.3157	1405.3795	1431.1334	1460.8028	1476.2156	1804.6994	2238.8632	2892.4373	3021.9273	3086.4632	3124.1299	3134.7322	3233.6684	3506.5918	3810.8947
OC1CC1(CC#C)C=O	O[C@H]1C[C@]1(CC#C)C=O	
InChI=1S/C7H8O2/c1-2-3-7(5-8)4-6(7)9/h1,5-6,9H,3-4H2	InChI=1S/C7H8O2/c1-2-3-7(5-8)4-6(7)9/h1,5-6,9H,3-4H2/t6-,7+/m0/s1
