17
gdb 45047	2.52559	1.81577	1.26667	3.3269	72.14	-0.2428	-0.0373	0.2055	1003.039	0.136096	-421.819503	-421.812075	-421.81113	-421.851556	29.088	
O	 0.0409679027	 0.0708524183	-0.4434722242	-0.303876
C	-0.0176567061	 1.2084772963	-0.0585832429	 0.328038
C	-1.2852012774	 1.9878808916	 0.3142901497	-0.345312
C	-0.8043451636	 3.2848188303	 0.9427845292	-0.049546
C	 0.0701897877	 3.1733058176	 2.161722003	-0.299518
C	 0.7116510241	 3.3735525426	 0.8069527983	-0.143424
C	 1.184280484	 2.1369405527	 0.1140185603	 0.35271
C	 2.5492735071	 1.5959003453	 0.1008643278	-0.239003
O	 2.0212290425	 2.2642834956	-1.0439773474	-0.273843
H	-1.8397640713	 2.1770290976	-0.6133630498	 0.142354
H	-1.932486772	 1.3808062009	 0.9547542796	 0.134516
H	-1.4121695803	 4.1734692275	 0.8241465615	 0.097661
H	 0.0932184484	 4.014418574	 2.8453666033	 0.122243
H	 0.1702666155	 2.2062392854	 2.64796025	 0.118825
H	 1.2157269367	 4.3052500296	 0.5824530948	 0.105761
H	 3.3303793543	 2.1314419955	 0.6386446373	 0.118186
H	 2.6842111779	 0.5219399692	-0.0130640207	 0.134227
68.3419	177.0923	261.1601	262.157	331.4105	427.4415	467.9347	560.1519	573.4806	656.4267	688.1826	800.4734	822.5831	838.8288	860.5091	898.3267	931.7709	995.3214	1011.8283	1025.3633	1058.5556	1073.6561	1102.216	1113.0392	1131.9799	1167.763	1180.3644	1201.6328	1253.3662	1277.3892	1311.8216	1372.1147	1434.3639	1448.4432	1490.1943	1511.8298	1848.3067	3041.0616	3086.0316	3087.4139	3120.0281	3181.4272	3183.6245	3191.8271	3212.2124
O=C1CC2CC2C11CO1	O=C1C[C@H]2C[C@H]2[C@]21CO2	
InChI=1S/C7H8O2/c8-6-2-4-1-5(4)7(6)3-9-7/h4-5H,1-3H2	InChI=1S/C7H8O2/c8-6-2-4-1-5(4)7(6)3-9-7/h4-5H,1-3H2/t4-,5-,7+/m1/s1
