21
gdb 62685	2.39382	1.68821	1.28301	1.1594	82.6	-0.2019	0.0734	0.2753	1086.4416	0.180547	-387.010699	-387.001599	-387.000655	-387.04368	36.099	
C	-0.2305697177	 1.6165238858	 0.0167392735	-0.493803
C	 0.0608920852	 0.1185762181	 0.0286519291	 0.321668
O	-1.0628476121	-0.6138710999	-0.4380230917	-0.459199
C	 1.3300176441	-0.6557615327	-0.3328660599	-0.187176
C	 2.6897279353	-0.1556416607	 0.2057647231	-0.05196
C	 2.6497188916	 1.1523126161	 0.9316767312	-0.318174
C	 2.1018189947	-0.0861661573	 1.6090700259	-0.121921
C	 0.7578251709	-0.6878328505	 1.0906108424	 0.307386
C	 0.1194132702	-1.8115758082	 1.8546084044	-0.494342
H	 0.1974451802	 2.1202924486	-0.8568896735	 0.117722
H	-1.3170651351	 1.7367441148	-0.0184532916	 0.121335
H	 0.122531977	 2.1227239823	 0.915619768	 0.137347
H	-1.1263522535	-0.465454232	-1.3879506976	 0.280356
H	 1.2504208326	-1.4326602478	-1.084616429	 0.081225
H	 3.6199230441	-0.6153385218	-0.1046319352	 0.087274
H	 3.613235085	 1.448821715	 1.3394388659	 0.109073
H	 2.0544199671	 1.9917664036	 0.6042162346	 0.11171
H	 2.5395276306	-0.4457029008	 2.5324705488	 0.087732
H	-0.2617848706	-1.458620151	 2.8217372342	 0.111866
H	-0.7137758972	-2.2357078521	 1.2924703824	 0.14117
H	 0.8446206977	-2.6080562396	 2.060063815	 0.11071
101.8023	179.048	191.1733	207.4336	270.3029	289.0962	307.1588	350.1284	386.4125	449.9423	488.605	593.581	626.6399	683.2814	693.2795	764.7042	852.5819	866.6381	891.8632	908.6776	924.1821	966.2148	992.7449	1012.911	1027.1146	1062.4964	1073.2593	1094.9861	1113.1938	1145.8551	1175.8747	1193.1571	1207.8015	1259.7901	1288.5762	1296.4806	1348.085	1396.9635	1405.8075	1457.5991	1488.4715	1492.5352	1495.7899	1500.9461	1518.1913	3016.9501	3037.1067	3066.7905	3104.2047	3130.916	3136.6932	3139.5793	3171.4346	3178.5742	3188.8212	3241.9088	3796.7153
CC1(O)C2C3CC3C12C	C[C@@]1(O)[C@H]2[C@H]3C[C@H]3[C@@]12C	
InChI=1S/C8H12O/c1-7-5-3-4(5)6(7)8(7,2)9/h4-6,9H,3H2,1-2H3	InChI=1S/C8H12O/c1-7-5-3-4(5)6(7)8(7,2)9/h4-6,9H,3H2,1-2H3/t4-,5+,6-,7+,8+/m0/s1
