19
gdb 116607	3.29434	0.98043	0.81514	3.5178	81.41	-0.2291	0.0116	0.2408	1457.8088	0.158201	-419.169243	-419.160044	-419.159099	-419.204029	33.412	
C	-0.4068762782	 1.4511597723	-0.2607333877	-0.363764
C	 0.3927883841	 0.1981553426	 0.0908356055	-0.14309
N	 0.9965698412	-0.3758046935	-1.1064790023	-0.332599
C	 2.0472318932	-1.0565948614	-0.9763962465	 0.349445
N	 2.878234997	-1.4412752858	 0.0945316053	-0.370526
C	 3.73770758	-2.3124483608	-0.7381608191	-0.24403
C	 2.9214739483	-1.8162631733	-1.9481003572	 0.336147
C	 2.5828582397	-2.4463967887	-3.2230457812	-0.25785
O	 3.4585622463	-1.3128660751	-3.1474394058	-0.254553
H	 0.2467042164	 2.215724502	-0.6909564655	 0.122376
H	-1.1778343925	 1.2152020491	-0.9997350952	 0.123184
H	-0.8897758903	 1.8693008696	 0.6284030181	 0.102519
H	 1.1521436845	 0.4417270858	 0.8521648988	 0.089112
H	-0.2802685409	-0.5446531631	 0.5460404283	 0.097659
H	 2.5449719389	-1.6943133663	 1.0129794615	 0.247057
H	 4.7920237144	-2.0222636246	-0.7365681995	 0.127044
H	 3.6440922512	-3.3842454552	-0.5317338333	 0.114138
H	 3.056873632	-3.3865016571	-3.5020169625	 0.119172
H	 1.6066911545	-2.2506155765	-3.6622318317	 0.138561
39.1519	112.7062	133.2617	151.2096	235.9843	265.8357	305.7735	337.0274	411.5213	442.8398	509.1941	646.7269	698.8824	780.8419	817.8564	860.2429	884.0086	916.1555	957.4615	996.4034	1070.0202	1082.2334	1102.6048	1125.9718	1128.8889	1139.1871	1150.3745	1167.816	1202.0603	1289.1866	1301.6553	1349.154	1385.9873	1410.635	1449.0616	1482.8907	1488.5737	1505.6323	1512.1636	1534.443	1813.9463	2962.1561	2998.3133	3038.9485	3039.8891	3086.9122	3095.0627	3111.5074	3119.068	3182.5048	3612.3328
CCN=C1NCC11CO1	CCN=C1NC[C@]21CO2	
InChI=1S/C6H10N2O/c1-2-7-5-6(3-8-5)4-9-6/h2-4H2,1H3,(H,7,8)	InChI=1S/C6H10N2O/c1-2-7-5-6(3-8-5)4-9-6/h2-4H2,1H3,(H,7,8)/t6-/m1/s1
