19
gdb 98693	3.35935	0.9561	0.90391	0.6587	74.21	-0.2614	0.0105	0.2719	1382.6264	0.156362	-460.186278	-460.176244	-460.1753	-460.221462	36.069	
C	 0.244379544	 1.3207788692	 0.2008877645	-0.239977
O	 0.3961439309	-0.0943889055	 0.040800693	-0.236148
C	 0.3246505599	-0.5411236942	-1.2305551092	 0.456645
O	 0.140513979	 0.1869405542	-2.1796167469	-0.384704
C	 0.4966275965	-2.0136501265	-1.2790234703	-0.184791
C	-0.0911334954	-2.7773215367	-2.461938936	-0.343944
C	 1.3944119335	-2.6671294579	-2.3207630975	 0.405927
C	 2.2210409763	-1.8615404438	-3.2941273047	-0.465709
O	 2.0591825973	-3.7802237964	-1.7777398346	-0.461595
H	 1.0307100206	 1.8573853123	-0.336223901	 0.139232
H	-0.725790702	 1.6512507816	-0.178847758	 0.140088
H	 0.3189541568	 1.5073188171	 1.272306154	 0.132581
H	 0.4996834711	-2.5096800061	-0.3173984475	 0.11597
H	-0.5525547548	-3.7323347263	-2.2398143668	 0.118297
H	-0.5794908403	-2.1684460907	-3.214989121	 0.135618
H	 1.6939363034	-0.959915082	-3.6080511128	 0.158651
H	 3.1730617375	-1.5768490363	-2.8352508828	 0.125195
H	 2.4414968507	-2.4630214686	-4.1847459014	 0.105531
H	 2.2386076749	-4.3921252734	-2.5007957411	 0.283133
55.8815	104.9977	128.1184	152.405	206.1326	244.6242	264.761	287.6321	335.0448	368.9039	390.6359	437.7301	487.252	674.8524	702.5311	782.9286	857.0128	874.3773	928.1351	967.3784	985.854	1017.2125	1068.7177	1078.6832	1100.4456	1114.9035	1178.9521	1194.4105	1215.9979	1254.8628	1296.9933	1363.9194	1405.9391	1416.661	1465.3138	1475.2869	1480.8431	1495.0346	1497.6246	1505.0272	1795.5879	3028.3443	3050.8344	3092.6201	3124.4847	3137.0691	3150.8665	3157.772	3204.9526	3236.7385	3791.8484
COC(=O)C1CC1(C)O	COC(=O)[C@H]1C[C@]1(C)O	
InChI=1S/C6H10O3/c1-6(8)3-4(6)5(7)9-2/h4,8H,3H2,1-2H3	InChI=1S/C6H10O3/c1-6(8)3-4(6)5(7)9-2/h4,8H,3H2,1-2H3/t4-,6+/m1/s1
