17
gdb 72257	2.42528	1.75515	1.50147	1.1765	67.22	-0.2162	0.0667	0.2829	950.6683	0.135728	-458.914815	-458.907052	-458.906108	-458.946539	30.68	
O	-0.1461107681	 1.3813353828	-0.0487317126	-0.460275
C	 0.0027515321	 0.0105411239	-0.061922012	 0.298793
C	 0.8711096367	-0.7949071103	-1.024196513	-0.295402
C	-0.089407298	-2.0120855637	-0.7896879475	-0.137796
C	 0.4167751443	-2.8756449866	 0.3648540246	-0.084635
O	 0.5232732602	-1.9637275438	 1.4715344139	-0.269168
C	-0.3086152329	-0.863608822	 1.1656655305	-0.065321
C	-1.0961980962	-1.0451702297	-0.0884593837	 0.297039
O	-2.4525726592	-0.9437232563	-0.2922901907	-0.458675
H	 0.5590576507	 1.7603903537	 0.488187495	 0.288222
H	 0.7950440741	-0.406268177	-2.0424923603	 0.112581
H	 1.9231608342	-0.9455974649	-0.7585652818	 0.095996
H	-0.4298224665	-2.5499550884	-1.673197297	 0.085109
H	-0.2909629512	-3.6854967401	 0.6031260877	 0.088007
H	 1.4045023761	-3.3141652529	 0.1907869453	 0.109634
H	-0.7350303808	-0.3612596834	 2.026832906	 0.10611
H	-2.9066873755	-1.4840821312	 0.3634267455	 0.289782
173.1954	210.0642	230.3076	264.3541	274.2929	325.4507	364.4783	433.811	537.5187	554.4291	670.8584	709.9229	752.4387	777.7547	845.8323	899.3495	933.6837	948.577	982.5247	1016.1136	1050.743	1068.572	1115.5976	1131.5249	1156.9594	1195.3351	1224.7602	1230.4701	1245.4809	1282.7167	1303.082	1315.9165	1351.8717	1371.5889	1472.7208	1518.0328	1526.5592	2978.4225	3042.1398	3074.4276	3108.7561	3132.198	3187.8081	3790.5006	3796.5574
OC12CC3COC1C23O	O[C@@]12C[C@H]3CO[C@@H]1[C@@]23O	
InChI=1S/C6H8O3/c7-5-1-3-2-9-4(5)6(3,5)8/h3-4,7-8H,1-2H2	InChI=1S/C6H8O3/c7-5-1-3-2-9-4(5)6(3,5)8/h3-4,7-8H,1-2H2/t3-,4-,5-,6+/m0/s1
