19
gdb 78973	3.10817	2.03045	1.77451	1.4753	76.14	-0.2124	0.0844	0.2967	860.647	0.163306	-382.022619	-382.016399	-382.015455	-382.05276	26.937	
C	-0.1930594201	 1.4696045294	 0.0345980507	-0.332096
N	-0.0001826206	 0.0276268616	 0.0034144707	-0.046345
C	 0.9116777193	-0.4344558667	-1.0459710142	-0.058884
C	 2.3364877596	 0.0283744421	-0.6460569362	-0.051556
C	 2.2609142157	-0.2597886519	 0.807267088	-0.055675
C	 0.7578116538	-0.5356375888	 1.1451910345	-0.043299
C	 0.6453651608	-2.0353138887	 0.8024906987	-0.209696
C	 1.3611550597	-1.8579850246	-0.5337476943	-0.007617
N	 2.7278722158	-1.323066007	-0.1459847856	-0.152247
H	 0.7462363995	 2.0424324732	 0.1238719456	 0.102669
H	-0.6981439111	 1.7866496466	-0.8835147954	 0.119452
H	-0.8356392364	 1.7341070759	 0.8801274372	 0.11913
H	 0.5489658316	-0.2930101533	-2.0624166864	 0.072398
H	 3.0327142047	 0.6972280549	-1.140213011	 0.089995
H	 2.9924641901	 0.0932496638	 1.5223940126	 0.09405
H	 0.4041042306	-0.1931298924	 2.1162250684	 0.067478
H	 1.2158918954	-2.6867011914	 1.4697283541	 0.10616
H	-0.3927899908	-2.3625245368	 0.7309925699	 0.106863
H	 1.4095736724	-2.685577626	-1.2377241973	 0.079218
208.1351	245.5947	310.3836	437.1362	524.5327	560.7425	673.0522	722.0043	761.2594	788.8154	799.6883	825.6077	863.3821	876.5631	897.1774	903.2791	931.3781	957.3228	978.3421	1005.6271	1029.1903	1041.3794	1058.4229	1127.4448	1144.3524	1159.5066	1169.6669	1188.622	1201.115	1219.0132	1252.6005	1256.4881	1259.6695	1286.712	1305.9609	1320.8442	1356.4187	1453.0092	1470.1866	1488.3628	1507.7769	2959.7096	3063.191	3071.3622	3102.5507	3132.3361	3135.5035	3137.0736	3147.1627	3166.5149	3200.9985
CN1C2C3C4C1CC2N34	CN1[C@H]2[C@H]3[C@H]4[C@@H]1C[C@@H]2N34	
InChI=1S/C7H10N2/c1-8-3-2-4-5(8)7-6(3)9(4)7/h3-7H,2H2,1H3	InChI=1S/C7H10N2/c1-8-3-2-4-5(8)7-6(3)9(4)7/h3-7H,2H2,1H3/t3-,4-,5+,6+,7-,9?/m0/s1
