17
gdb 82354	3.34812	1.36112	1.13329	2.388	71.96	-0.2482	0.0139	0.2621	1070.4977	0.13777	-417.993528	-417.985767	-417.984823	-418.025874	29.83	
O	-0.0191723628	 1.4528056106	-0.0206092061	-0.422301
C	-0.0051858529	 0.0411303501	 0.0118841686	 0.081167
C	-1.42065632	-0.5062791401	-0.1467484709	-0.045921
C	-2.3560048121	 0.2393826642	-1.020503462	-0.232304
N	-1.6488746685	-0.9351284782	-1.5502676885	-0.10241
C	-0.4213515455	-0.61283951	-2.3071956624	-0.183878
C	 0.7028135658	-0.5774390498	-1.2386466751	-0.160653
C	 1.9025604015	 0.1526689911	-1.6219503625	 0.251841
N	 2.8399287014	 0.7764334811	-1.8864995384	-0.32513
H	 0.892779405	 1.7685005221	-0.0220944713	 0.300702
H	 0.4589531913	-0.325007569	 0.9364799806	 0.088196
H	-1.790955999	-1.1744190249	 0.6244384077	 0.100399
H	-3.4268124097	 0.1073129132	-0.8954142257	 0.12034
H	-2.0444262346	 1.2252950156	-1.3512996193	 0.139781
H	-0.2370337463	-1.3881883524	-3.0539747946	 0.127608
H	-0.4943882805	 0.3491154548	-2.8251639195	 0.128181
H	 0.9811913772	-1.6086008484	-0.9938902405	 0.134381
84.6684	137.7952	205.9402	256.0935	368.0046	382.8895	420.3563	460.7062	532.9529	580.4981	650.9753	723.0076	774.9131	812.648	856.3862	903.858	971.5743	1004.1203	1026.7354	1040.3226	1062.4155	1099.9534	1118.2637	1127.1304	1167.0808	1213.4919	1232.8534	1278.3446	1291.3796	1308.2206	1322.8134	1359.6772	1388.6453	1429.549	1499.0565	1522.0273	2350.7158	3022.0272	3050.652	3057.487	3107.0727	3118.4897	3156.1106	3210.5639	3785.6775
OC1C2CN2CC1C#N	O[C@H]1[C@H]2CN2C[C@H]1C#N	
InChI=1S/C6H8N2O/c7-1-4-2-8-3-5(8)6(4)9/h4-6,9H,2-3H2	InChI=1S/C6H8N2O/c7-1-4-2-8-3-5(8)6(4)9/h4-6,9H,2-3H2/t4-,5-,6-,8?/m1/s1
