17
gdb 47009	2.72681	1.80097	1.45442	5.1363	67.22	-0.2469	0.0049	0.2519	933.8427	0.138941	-459.003023	-458.996038	-458.995094	-459.034642	27.049	
O	 0.0318156668	-0.0408043076	-0.2432146736	-0.323423
C	-0.0006678148	 1.1213460399	 0.0465472502	 0.429386
O	-1.1880187031	 1.7082057221	 0.3585658512	-0.242056
C	-1.2636721634	 3.0227258327	 0.9474481044	-0.070589
C	 0.0214232162	 3.8415164211	 0.8240026737	-0.070819
C	 0.3909136409	 4.1028529857	-0.6446267537	-0.072935
O	 1.1143096497	 2.9401975378	-1.0719578583	-0.268327
C	 1.222288853	 2.0472965869	 0.0394773886	-0.016445
C	 1.1970172556	 2.9542639029	 1.2693757036	-0.260795
H	-2.1013060598	 3.5242147581	 0.4530600778	 0.12431
H	-1.5253437753	 2.8858576161	 2.0039305448	 0.118336
H	-0.0891679614	 4.7644746469	 1.3985829539	 0.08868
H	-0.4881558965	 4.2424551394	-1.2842768164	 0.11248
H	 1.0372650707	 4.9832399339	-0.7484460123	 0.107614
H	 2.1137759196	 1.4348835484	-0.0939735348	 0.108752
H	 2.1316369354	 3.514258379	 1.3597151634	 0.116645
H	 1.0095610364	 2.4197989267	 2.2048201073	 0.119185
106.238	128.6696	236.7049	355.0282	390.9827	424.8881	490.7642	601.2877	714.6448	726.9722	812.0442	830.1078	868.6851	906.8529	939.488	951.1852	984.8341	992.9142	1031.757	1069.9785	1088.4765	1122.6119	1146.8779	1190.7635	1226.9539	1249.3368	1275.2996	1316.14	1329.1762	1334.4097	1355.7213	1384.0647	1426.5743	1490.9462	1511.5824	1530.3304	1858.7985	3021.2041	3029.6399	3060.2494	3061.7995	3082.7362	3089.8366	3112.3432	3128.3603
O=C1OCC2COC1C2	O=C1OC[C@@H]2CO[C@H]1C2	
InChI=1S/C6H8O3/c7-6-5-1-4(2-8-5)3-9-6/h4-5H,1-3H2	InChI=1S/C6H8O3/c7-6-5-1-4(2-8-5)3-9-6/h4-5H,1-3H2/t4-,5-/m0/s1
