15
gdb 27482	2.01817	1.83116	0.96584	4.7724	71.07	-0.2453	-0.035	0.2102	1146.7051	0.11464	-454.060709	-454.05289	-454.051946	-454.093173	29.296	
C	-0.0197703306	 1.5114214983	 0.0637354951	-0.492251
C	-0.0007615064	 0.0171224557	-0.052043974	 0.409624
C	-0.0237624099	-0.6581201296	-1.2219212099	-0.342928
C	-0.0026032454	-2.1130360553	-1.2491971696	 0.452082
O	-0.0201340442	-2.814082764	-2.2398810263	-0.372813
N	 0.0425793531	-2.697117801	 0.0334429367	-0.432573
C	 0.0677244709	-2.0595410775	 1.2565000224	 0.485025
O	 0.106456099	-2.6255802331	 2.3260910745	-0.388796
N	 0.0434586532	-0.6725805198	 1.1409940602	-0.43309
H	 0.8747080181	 1.8723963547	 0.5843947938	 0.149647
H	-0.0562269854	 1.9741995153	-0.9226853145	 0.153987
H	-0.8918939143	 1.8459059754	 0.6373054883	 0.149561
H	-0.0584522726	-0.142133219	-2.1702625169	 0.120842
H	 0.0586300199	-3.7075170022	 0.0638925973	 0.272453
H	 0.0609635746	-0.1807773777	 2.021092393	 0.269231
137.1117	143.3275	167.7804	203.796	297.1637	382.5066	498.154	523.6573	531.6211	581.0374	581.9603	632.362	687.1137	746.9574	774.6772	840.4157	945.7705	971.5338	1040.9658	1056.3826	1066.0338	1176.4764	1220.4273	1336.3566	1389.0532	1407.1808	1416.6199	1476.1998	1479.3791	1513.0397	1688.4848	1797.4094	1835.5621	3034.6743	3088.7364	3150.3488	3244.8052	3614.8393	3641.0597
CC1=CC(=O)NC(=O)N1	Cc1cc(=O)[nH]c(=O)[nH]1	
InChI=1S/C5H6N2O2/c1-3-2-4(8)7-5(9)6-3/h2H,1H3,(H2,6,7,8,9)	InChI=1S/C5H6N2O2/c1-3-2-4(8)7-5(9)6-3/h2H,1H3,(H2,6,7,8,9)
