18
gdb 39573	2.51496	2.09017	1.62514	2.3447	75.33	-0.2371	0.0095	0.2465	897.0535	0.152103	-401.978687	-401.972111	-401.971167	-402.009395	27.216	
C	-0.0257186283	 1.5366383192	 0.004573559	-0.263771
C	 1.3552035433	 2.1408996323	-0.0068733043	-0.046244
C	 2.4662495159	 1.4169905036	-0.129315379	-0.053942
C	 2.422076392	-0.0940694521	-0.268454708	-0.026528
C	 1.0985971414	-0.5199012249	-0.9192655765	-0.262257
C	-0.0013864776	 0.0025677116	-0.0019286572	 0.111941
O	 0.2080909917	-0.4984666379	 1.3434691867	-0.2467
C	 1.4665543874	-0.8490474732	 1.7015304935	 0.129636
N	 2.5508842585	-0.7218909006	 1.0607735119	-0.268331
H	-0.5874737976	 1.8773008388	 0.8824064604	 0.12222
H	-0.5956135429	 1.8844438955	-0.869880804	 0.110473
H	 1.4146759106	 3.221763966	 0.0925799285	 0.091587
H	 3.4435593897	 1.8885091568	-0.0985391203	 0.095101
H	 3.2722520645	-0.4312793457	-0.8682034418	 0.077922
H	 0.9858797869	-0.0904488959	-1.9193723549	 0.107105
H	 1.0502568895	-1.6097443915	-1.0030914978	 0.11024
H	-0.9862376316	-0.3819921951	-0.279426615	 0.08908
H	 1.4520309066	-1.298070597	 2.6931222287	 0.122467
127.5781	255.1625	352.8583	382.1203	424.2444	474.5488	556.8883	591.5697	636.902	730.976	790.4119	804.9731	838.6338	879.6908	926.1905	933.0622	956.0621	965.9875	1000.1203	1031.104	1048.9524	1067.7697	1108.8135	1148.7333	1166.0291	1204.8477	1239.6608	1288.9463	1329.2406	1348.5324	1357.4237	1379.8329	1393.5395	1403.9974	1413.694	1458.5368	1483.1577	1707.7184	1719.7777	3004.1511	3048.0603	3055.8552	3060.2178	3075.0664	3099.0613	3154.3714	3157.6153	3182.9343
C1C=CC2CC1OC=N2	C1C=C[C@@H]2C[C@H]1OC=N2	
InChI=1S/C7H9NO/c1-2-6-4-7(3-1)9-5-8-6/h1-2,5-7H,3-4H2	InChI=1S/C7H9NO/c1-2-6-4-7(3-1)9-5-8-6/h1-2,5-7H,3-4H2/t6-,7+/m1/s1
