23
gdb 107413	3.07346	1.1681	1.04228	0.9517	85.16	-0.2418	0.0834	0.3252	1291.6286	0.205862	-388.284721	-388.275376	-388.274432	-388.318556	35.933	
C	-0.4328212063	 1.3225896266	-0.2727592814	-0.252467
O	-0.0431891859	-0.0154563871	-0.0307204225	-0.287986
C	 0.8469526356	-0.5221409219	-0.9757496548	 0.459002
C	 0.3021544093	-0.9819831866	-2.3059148381	-0.357537
C	 0.8155536961	-1.989949117	-1.2897856963	-0.100577
C	 2.2415192243	-2.4970736013	-1.4249245241	-0.239237
C	 3.1626383445	-1.2363477268	-1.4711413051	 0.020882
C	 3.7414741584	-0.9535957016	-2.8638759261	-0.397235
C	 2.3010981999	-0.0686876879	-0.905118961	-0.299799
H	 0.4144266458	 2.0194790205	-0.1988995245	 0.107556
H	-0.8901597593	 1.437421377	-1.2661117126	 0.106061
H	-1.1685671744	 1.5845683095	 0.4914704883	 0.12307
H	-0.7764488983	-0.9368985364	-2.4141043852	 0.112685
H	 0.8520560726	-0.7991641487	-3.2228844423	 0.108467
H	 0.0742854823	-2.6216607558	-0.8132904423	 0.089524
H	 2.4850667326	-3.1140215806	-0.5528227456	 0.099022
H	 2.3856212391	-3.129367983	-2.3088468935	 0.094547
H	 4.015128608	-1.3981302874	-0.8036756306	 0.076117
H	 2.9619464992	-0.7740847375	-3.6112973235	 0.118773
H	 4.3898032037	-0.0708390797	-2.8456645741	 0.111303
H	 4.3413485099	-1.8006055239	-3.2139621124	 0.11232
H	 2.4922390983	 0.867695489	-1.441613477	 0.092141
H	 2.5337687345	 0.1101654107	 0.1506944948	 0.103368
100.6226	112.0623	142.8751	177.5803	214.5566	285.7529	322.599	364.0813	380.8726	403.8779	453.6446	604.0252	660.485	707.4001	792.7138	836.3211	889.9484	902.2704	919.3261	942.6728	961.0534	995.8471	1021.5235	1049.361	1052.9183	1074.3659	1115.2466	1138.9259	1144.1111	1181.8417	1206.3144	1209.3938	1231.7586	1265.1176	1272.398	1297.7495	1321.6815	1351.5597	1370.5396	1394.7095	1417.1123	1469.6483	1482.7107	1486.9522	1491.1886	1497.8791	1502.0956	1505.1511	1509.3645	2987.2834	3027.5735	3029.759	3030.5328	3038.1636	3045.0917	3066.7815	3072.9576	3095.137	3103.3204	3114.5886	3129.6555	3174.1217	3215.6896
COC12CC1CC(C)C2	CO[C@]12C[C@H]1C[C@@H](C)C2	
InChI=1S/C8H14O/c1-6-3-7-5-8(7,4-6)9-2/h6-7H,3-5H2,1-2H3	InChI=1S/C8H14O/c1-6-3-7-5-8(7,4-6)9-2/h6-7H,3-5H2,1-2H3/t6-,7-,8-/m1/s1
