18
gdb 77352	2.5876	1.21824	1.05645	2.1519	73.82	-0.26	-0.0343	0.2257	1201.246	0.147234	-439.116491	-439.107568	-439.106624	-439.1512	31.823	
C	-0.0112664199	 1.5701641642	 0.0164935908	-0.406155
C	-0.001258721	 0.0343227381	-0.0103323265	-0.098837
C	 0.7876391535	-0.5560736214	-1.2081703921	-0.112956
C	 2.1529444537	-0.8932730518	-0.5677851785	-0.118123
O	 1.9054354864	-1.1001915498	 0.8265873482	-0.234947
C	 0.7181326591	-0.5350566589	 1.2008722188	 0.410732
N	 0.2858498717	-0.4871269378	 2.3844890699	-0.537926
C	 0.1184360474	-1.8060015515	-1.7407422984	 0.154037
O	-0.2788718784	-1.9386832877	-2.8685096196	-0.248958
H	 1.0050841206	 1.9769898043	-0.0109402873	 0.1215
H	-0.5598469077	 1.9658846969	-0.8430780342	 0.126801
H	-0.4912796654	 1.9188698289	 0.9336537298	 0.151195
H	-1.0358813015	-0.3206516346	 0.0054842669	 0.118839
H	 0.8864155464	 0.1502377358	-2.0345921669	 0.103712
H	 2.6098972088	-1.8044380811	-0.9648898711	 0.129805
H	 2.8628709798	-0.0679558395	-0.6943927176	 0.125444
H	 0.9524371769	-0.9069397737	 3.0343033825	 0.225914
H	 0.0117789796	-2.6260279704	-0.9919581948	 0.089921
47.2887	63.4725	129.6051	199.6024	227.4803	248.8271	296.924	400.4272	432.0608	467.263	658.182	676.0621	746.6594	802.7848	888.4892	895.1342	932.5598	955.1717	1000.8876	1014.9808	1037.0874	1093.0741	1118.0529	1128.484	1162.2511	1227.2097	1247.2099	1269.6877	1294.9994	1322.2395	1351.0788	1398.6746	1414.2828	1434.7123	1493.2183	1499.608	1523.2333	1777.093	1836.1464	2860.319	3037.5144	3040.245	3066.9846	3088.8618	3102.2249	3110.3297	3132.4563	3477.1421
CC1C(COC1=N)C=O	C[C@H]1[C@@H](CO[C]1[NH])C=O	
InChI=1S/C6H9NO2/c1-4-5(2-8)3-9-6(4)7/h2,4-5,7H,3H2,1H3	InChI=1S/C6H9NO2/c1-4-5(2-8)3-9-6(4)7/h2,4-5,7H,3H2,1H3/t4-,5+/m0/s1
