20
gdb 57634	3.3283	0.96655	0.92309	1.6013	79.89	-0.2449	0.0287	0.2737	1348.9181	0.171129	-399.309871	-399.300133	-399.299189	-399.34447	36.184	
C	 0.1711407862	 1.4269353789	 0.3437415614	-0.413409
C	-0.0830723018	-0.0434450914	-0.02977195	 0.092838
N	 0.443508914	-0.9037393627	 1.0460042545	-0.513604
C	-1.5974743548	-0.3562330762	-0.2043099248	-0.234372
C	-2.4872507781	 0.2282241412	 0.8761476395	 0.007064
C	-3.471655866	-0.6295352499	 1.5856492734	-0.250237
N	-2.2945932229	-0.1115771694	 2.2945108302	-0.305971
C	 0.6002592834	-0.336206272	-1.3151504596	 0.252882
N	 1.1467121992	-0.6028621168	-2.299103427	-0.340886
H	 1.2447929639	 1.6325752173	 0.3837682328	 0.128401
H	-0.2723277427	 2.098034727	-0.3959042573	 0.136206
H	-0.2656267047	 1.6290712657	 1.3237298034	 0.162516
H	 0.4833605989	-1.8688027082	 0.7288853058	 0.24278
H	 1.3972630678	-0.6353048386	 1.2726807299	 0.242469
H	-1.9262679887	 0.0210375146	-1.1787026083	 0.124123
H	-1.7050003482	-1.4467329224	-0.241774533	 0.106461
H	-2.7503489696	 1.2730774115	 0.7229687848	 0.094562
H	-4.4230798297	-0.2157282215	 1.9081210223	 0.118369
H	-3.5067285436	-1.6839240873	 1.3201742867	 0.108794
H	-1.5652604427	-0.8172398199	 2.3663517553	 0.241014
63.6682	98.0055	137.7555	194.7202	214.9205	262.1972	313.1473	335.1227	353.1021	385.0301	398.2792	489.0111	583.7125	592.8362	739.9115	799.4905	834.0369	875.4102	889.1161	932.5315	950.337	980.9035	1000.7304	1041.5177	1066.5354	1115.655	1128.4195	1161.3197	1180.5738	1236.1807	1257.5434	1278.5194	1320.2844	1345.8129	1354.7321	1406.3696	1426.8422	1472.4702	1489.8651	1498.4603	1513.568	1659.1262	2340.0052	3035.4128	3049.9701	3078.7733	3101.5275	3120.0856	3124.0926	3145.5469	3186.2747	3486.7455	3504.451	3566.2407
CC(N)(CC1CN1)C#N	C[C@@](N)(C[C@H]1CN1)C#N	
InChI=1S/C6H11N3/c1-6(8,4-7)2-5-3-9-5/h5,9H,2-3,8H2,1H3	InChI=1S/C6H11N3/c1-6(8,4-7)2-5-3-9-5/h5,9H,2-3,8H2,1H3/t5-,6+/m0/s1
