19
gdb 66560	2.34594	2.2115	1.58666	1.6383	77.52	-0.237	0.0882	0.3252	933.5961	0.158707	-385.821587	-385.813999	-385.813055	-385.853053	30.824	
C	-0.0071912436	 1.4537827386	 0.0535992336	-0.524858
C	 0.0192761623	-0.0425796965	-0.0142616869	 0.314622
C	-0.9512421653	-0.9642205319	 0.7229987853	-0.148865
C	 0.5410423366	-1.0712616328	 0.9673689065	-0.176854
C	 0.5889019668	-2.0911497286	-0.2085842683	-0.154732
C	-0.968556545	-2.1355862139	-0.29572686	 0.07438
O	-0.9806587138	-1.5635162778	-1.6213096641	-0.330039
C	 0.2910081217	-0.962562488	-1.2544851987	 0.390398
C	 1.1423949821	-0.5126843813	-2.4021447205	-0.52182
H	 0.9522323264	 1.8889720238	-0.248941274	 0.118437
H	-0.7839439033	 1.866421631	-0.6006552884	 0.127086
H	-0.2161661021	 1.7972136914	 1.0723439016	 0.121753
H	-1.7340313947	-0.5917783983	 1.3704601081	 0.086753
H	 1.1203899977	-0.9627949025	 1.8729381404	 0.089026
H	 1.2602923072	-2.9320414627	-0.3663232589	 0.073585
H	-1.6207723873	-2.9983144647	-0.1695114255	 0.076826
H	 0.6522481678	 0.2991059318	-2.9505772734	 0.131066
H	 2.1073280384	-0.1445491624	-2.0390146822	 0.123876
H	 1.322138558	-1.3367558252	-3.0981505648	 0.129359
188.0247	192.8143	197.7923	222.5774	285.3858	341.3139	527.6675	583.497	598.9351	635.9728	751.1056	795.9322	806.5838	826.957	840.3596	856.416	858.3895	892.5666	906.722	918.7237	964.6469	995.6676	1035.3234	1076.2689	1104.3999	1125.2786	1133.0183	1142.8314	1172.7172	1216.9021	1236.0205	1254.6243	1287.9814	1346.1659	1401.339	1415.2333	1426.2118	1477.747	1487.1644	1491.2661	1498.7611	3021.5457	3035.852	3081.0254	3092.761	3103.7109	3116.0324	3130.7993	3146.0415	3200.3477	3219.0248
CC12C3C1C1C3OC21C	C[C@]12[C@@H]3[C@H]1[C@H]1[C@@H]3O[C@@]21C	
InChI=1S/C8H10O/c1-7-3-4(7)6-5(3)8(7,2)9-6/h3-6H,1-2H3	InChI=1S/C8H10O/c1-7-3-4(7)6-5(3)8(7,2)9-6/h3-6H,1-2H3/t3-,4+,5-,6+,7+,8+/m0/s1
