19
gdb 26270	3.47249	1.15665	1.06934	1.637	84.	-0.2447	-0.0362	0.2084	1226.4433	0.160864	-382.138304	-382.129816	-382.128872	-382.172091	31.595	
C	-0.0112032812	 1.5411715524	-0.0118173866	-0.389797
C	-0.0130092577	 0.0030125052	 0.0253294503	-0.044357
C	 0.7607591653	-0.524040184	 1.2462042373	-0.389808
C	-1.4307992476	-0.5294753929	 0.0202774511	 0.35034
N	-2.2132109698	-0.1932872932	 1.0562869575	-0.264979
C	-3.4589587788	-0.6626461504	 1.0472458665	 0.006443
C	-3.9465576009	-1.465179749	 0.0216913442	-0.135205
C	-3.054685472	-1.7531379429	-1.0027632034	 0.007081
N	-1.8013791094	-1.2941976931	-1.0155056051	-0.288355
H	 1.0156747426	 1.9202654749	-0.0206408123	 0.110459
H	-0.5191433113	 1.9187575593	-0.9049230267	 0.114647
H	-0.5220924308	 1.9445693813	 0.86708528	 0.132829
H	 0.4569420537	-0.3767077214	-0.8866797458	 0.090853
H	 0.2785540331	-0.1994309623	 2.1726282662	 0.132894
H	 0.803562665	-1.6178319962	 1.2490374833	 0.114574
H	 1.7876963936	-0.1450798902	 1.2382550228	 0.110406
H	-4.0883884623	-0.3861988221	 1.8910622542	 0.116203
H	-4.9617255003	-1.8430255409	 0.0222022041	 0.109462
H	-3.350136871	-2.3738591046	-1.8464045375	 0.116311
32.4868	120.067	208.6355	230.2748	268.2578	286.3115	308.1559	410.7301	477.8101	553.501	604.0427	644.7139	784.1271	828.4177	846.7389	904.6901	933.9348	969.6014	1006.948	1007.1978	1010.0961	1070.0615	1095.4493	1118.7275	1128.3198	1188.1987	1237.2099	1264.1068	1311.1795	1350.054	1372.2464	1389.8233	1410.3302	1461.1261	1469.2771	1486.6027	1492.5776	1500.5808	1517.3704	1599.9104	1620.3181	3034.0528	3037.3689	3066.517	3102.4624	3105.2451	3116.2257	3122.818	3147.0815	3149.5346	3209.4629
CC(C)C1=NC=CC=N1	CC(C)c1ncccn1	
InChI=1S/C7H10N2/c1-6(2)7-8-4-3-5-9-7/h3-6H,1-2H3	InChI=1S/C7H10N2/c1-6(2)7-8-4-3-5-9-7/h3-6H,1-2H3
