12
gdb 127786	3.65306	1.71852	1.17745	4.2231	63.47	-0.2833	-0.0994	0.1839	937.5106	0.078658	-464.887183	-464.880569	-464.879625	-464.91859	23.991	
C	 0.046235691	 1.4400126215	-0.0256039943	-0.346041
N	 0.0052875671	-0.0050403082	 0.0611392643	-0.121188
N	-0.1233292567	-0.7772065097	-1.0802437458	-0.087253
N	-0.1410358906	-2.0334969697	-0.8115846395	-0.25649
C	-0.0208835017	-2.1387212956	 0.5611286525	 0.395242
N	 0.0354085879	-3.0364108268	 1.5136000008	-0.169469
O	 0.1629209229	-2.2860403064	 2.6492175312	-0.139146
N	 0.1884000734	-0.9038911618	 2.4221153667	-0.229812
C	 0.0731913714	-0.8465716027	 1.1223032225	 0.450261
H	 0.9909554742	 1.8200470908	 0.3722544579	 0.163042
H	-0.0396878188	 1.7016867581	-1.0802450205	 0.177813
H	-0.7849750401	 1.8800203705	 0.5317910943	 0.163041
100.5106	148.3136	262.2226	302.0954	367.9916	547.303	600.7863	622.2056	650.1923	726.4027	804.1844	816.3215	848.6618	911.597	965.3041	1067.3712	1155.2629	1174.6472	1229.7161	1335.1476	1399.3685	1447.9544	1478.7602	1480.6821	1508.8665	1554.9308	1679.4181	3053.1215	3121.8004	3165.6296
CN1N=NC2=NON=C12	Cn1nnc2nonc12	
InChI=1S/C3H3N5O/c1-8-3-2(4-7-8)5-9-6-3/h1H3	InChI=1S/C3H3N5O/c1-8-3-2(4-7-8)5-9-6-3/h1H3
