13
gdb 130751	3.38982	1.80972	1.1887	5.3933	65.48	-0.2699	-0.036	0.2339	935.619	0.092817	-452.800247	-452.794052	-452.793108	-452.831043	23.456	
O	 0.0280205383	-0.0360785211	 0.0021747435	-0.344128
C	 0.0277076403	 1.1510213493	 0.008628883	 0.540323
O	-1.0828499642	 1.9441788181	 0.0288863307	-0.255513
C	-0.7449104351	 3.3510120268	 0.0316065134	-0.203119
C	 0.7486947543	 3.3466172461	 0.0100244781	 0.386559
C	 1.9035350569	 4.08262861	-0.0028103224	-0.398307
C	 2.9286082535	 3.0886975666	-0.0230538899	 0.036083
N	 2.4564625943	 1.8471814425	-0.0227733823	-0.257693
N	 1.1216872828	 2.039805691	-0.0023532491	-0.07581
H	-1.1976954259	 3.816002565	-0.8495336752	 0.156502
H	-1.1720139958	 3.806373266	 0.9304223719	 0.156499
H	 2.0207437732	 5.1534659945	 0.0012281805	 0.125778
H	 3.9974455475	 3.2482910753	-0.0377417722	 0.132826
147.0494	196.9774	249.6271	325.0859	574.0821	637.0592	651.0944	658.6422	686.2504	758.4262	786.6419	807.243	912.3783	951.5189	1027.0228	1029.5118	1043.7716	1077.9637	1134.6464	1195.7578	1229.866	1328.0461	1334.7842	1364.8266	1437.9538	1471.9207	1505.1289	1613.7008	1933.2336	3053.4855	3093.8212	3245.3211	3278.9582
O=C1OCC2=CC=NN12	O=C1OCc2ccnn12	
InChI=1S/C5H4N2O2/c8-5-7-4(3-9-5)1-2-6-7/h1-2H,3H2	InChI=1S/C5H4N2O2/c8-5-7-4(3-9-5)1-2-6-7/h1-2H,3H2
