14
gdb 44195	5.76496	1.0424	0.96068	4.677	67.96	-0.25	-0.0099	0.24	1160.6043	0.100586	-436.632104	-436.624605	-436.623661	-436.664411	28.077	
O	 0.2077897327	 0.2750783194	-0.8810969755	-0.30855
C	 0.126806877	 1.2776961072	-0.2569452302	 0.481002
O	-0.9897873627	 1.7734634943	 0.4069923092	-0.259539
C	-0.2959400027	 2.9854397077	 0.8060667949	 0.098827
C	 0.40480635	 2.8627667546	 2.1923224751	-0.180031
N	 1.5768418921	 2.1931258823	 1.5238605062	-0.328645
C	 1.0086926145	 2.464071169	 0.1748297794	-0.203058
C	 0.7077757639	 4.1415497946	 2.8055678698	 0.320433
C	 0.9790235978	 5.2097961799	 3.2864551679	-0.44239
H	-0.8518718397	 3.8846957641	 0.554784715	 0.121402
H	-0.1128331167	 2.1997101724	 2.8931136972	 0.131207
H	 2.4460526875	 2.6855732453	 1.6929404575	 0.242269
H	 1.6337395545	 2.9612782132	-0.5647854422	 0.116025
H	 1.2119665319	 6.147443896	 3.7284074958	 0.21105
77.3623	129.3718	178.0349	265.7796	353.2938	441.5182	454.1167	530.5826	646.5872	665.6875	682.2428	723.0066	786.9054	817.9082	869.0484	925.2111	937.7616	967.746	1000.2709	1049.8574	1058.4947	1092.9116	1193.9144	1199.4631	1229.8145	1256.6524	1283.5883	1339.6986	1394.7664	1955.0828	2233.3841	3058.9621	3136.3712	3159.6843	3500.1314	3556.8839
O=C1OC2C(NC12)C#C	O=C1O[C@H]2[C@@H](N[C@@H]12)C#C	
InChI=1S/C6H5NO2/c1-2-3-5-4(7-3)6(8)9-5/h1,3-5,7H	InChI=1S/C6H5NO2/c1-2-3-5-4(7-3)6(8)9-5/h1,3-5,7H/t3-,4+,5-/m0/s1
