20
gdb 96670	2.96225	0.94219	0.89532	2.295	79.34	-0.2329	0.0238	0.2567	1441.9895	0.16733	-440.263263	-440.252649	-440.251705	-440.300689	37.041	
C	-0.501349468	 1.2276562276	 0.3016341927	-0.327755
N	-0.174200582	-0.1678950829	 0.105711555	-0.275819
C	 0.674627227	-0.7414946463	 0.841887577	 0.403338
C	 1.4829857435	-0.1889076473	 1.9937170011	-0.492438
O	 0.9940148806	-2.0581602967	 0.6432715114	-0.27867
C	 0.316590318	-2.7340099575	-0.3983844958	 0.094726
C	 0.6270484929	-4.2036252674	-0.4892026289	-0.370649
C	-0.7083596269	-3.7351059815	 0.0569946218	 0.122985
O	-0.9873002689	-3.8520777975	 1.4170414477	-0.431433
H	 0.0460824251	 1.7310236907	 1.1101779127	 0.10179
H	-0.3131843963	 1.7778045549	-0.6278565385	 0.128313
H	-1.5737346981	 1.3215487039	 0.5096494735	 0.130837
H	 0.8269814441	 0.1641300451	 2.7948081604	 0.147373
H	 2.1429996512	-0.9594696366	 2.3918396217	 0.142802
H	 2.0916117336	 0.6597394527	 1.668813039	 0.148735
H	 0.1546738547	-2.128674876	-1.2802378114	 0.122482
H	 0.6788018556	-4.6572853907	-1.4730666215	 0.11678
H	 1.3291655889	-4.5981497746	 0.2379747272	 0.122996
H	-1.6002300792	-3.8771230697	-0.5447401392	 0.106954
H	-0.3501603857	-3.2960238403	 1.8820177541	 0.286652
31.3619	41.404	75.6162	96.6728	156.5536	219.339	270.177	284.8197	309.3113	346.3631	416.079	454.7531	564.5499	617.7941	670.9429	774.0102	792.7207	810.7875	888.8467	974.5394	1022.5067	1037.3332	1052.8706	1078.0822	1108.0409	1117.3942	1129.2755	1134.1646	1147.5283	1171.2197	1221.7924	1276.9771	1337.036	1369.2631	1401.573	1425.1037	1448.2499	1478.2442	1478.3029	1481.0457	1499.174	1506.51	1768.2751	3002.2017	3053.2538	3066.0324	3072.5453	3114.2442	3131.0321	3154.4037	3163.875	3201.733	3224.2606	3779.0351
CN=C(C)OC1CC1O	CN=C(C)O[C@H]1C[C@H]1O	
InChI=1S/C6H11NO2/c1-4(7-2)9-6-3-5(6)8/h5-6,8H,3H2,1-2H3	InChI=1S/C6H11NO2/c1-4(7-2)9-6-3-5(6)8/h5-6,8H,3H2,1-2H3/t5-,6+/m1/s1
