20
gdb 15004	4.16157	1.46296	1.16356	1.5066	71.88	-0.2472	0.0906	0.3378	1074.7376	0.178305	-386.150793	-386.142769	-386.141825	-386.183133	30.246	
C	-0.0227819597	 1.3833449796	 0.068237994	-0.240654
O	-0.0188186014	-0.0337989539	 0.0500472365	-0.237481
C	-1.2809760185	-0.6054098907	 0.0504933228	 0.23509
C	-1.1405360013	-2.1126718026	-0.1328137897	-0.216812
C	-2.5136369626	-2.7919072331	-0.0199490336	-0.213089
C	-3.2239617677	-2.3544101844	 1.2689917992	-0.191842
C	-3.2303515935	-0.8275436287	 1.3680185455	-0.065771
O	-1.9153399281	-0.3003597413	 1.2856944433	-0.262014
H	 1.0192310065	 1.7029141692	-0.0003842649	 0.124581
H	-0.578643983	 1.7898358066	-0.790601565	 0.101668
H	-0.4653848426	 1.7732984794	 0.9907254141	 0.129626
H	-1.8994384523	-0.1751967219	-0.7672188023	 0.040972
H	-0.6720065	-2.3172344781	-1.100510942	 0.100632
H	-0.4636417532	-2.4752120924	 0.6489007871	 0.112146
H	-3.1305894817	-2.5126117568	-0.8852812422	 0.095836
H	-2.4039799583	-3.8804990676	-0.0551884885	 0.098721
H	-4.2520987882	-2.7328561275	 1.2996809301	 0.092821
H	-2.6980924832	-2.7611898934	 2.1412143378	 0.105593
H	-3.8599763363	-0.4027602179	 0.5660066679	 0.083546
H	-3.6357464548	-0.4867904845	 2.3249465897	 0.106431
104.1786	131.4897	175.7013	235.3499	255.3959	347.775	386.868	457.9469	492.0434	534.7929	581.7069	819.6316	851.0655	866.5955	914.5987	940.5762	979.5947	1045.3071	1052.1076	1081.2127	1101.9512	1153.6444	1169.1452	1179.746	1198.5717	1227.9811	1244.3782	1277.2822	1303.1995	1339.2871	1364.2451	1376.058	1388.8875	1412.9507	1420.3664	1473.6091	1479.4396	1482.988	1483.4645	1491.953	1503.0212	1513.0152	2864.1142	2951.2771	2990.4836	3015.1815	3030.6442	3045.0456	3071.4101	3074.5683	3077.6093	3085.3302	3095.3363	3126.6703
COC1CCCCO1	CO[C@H]1CCCCO1	
InChI=1S/C6H12O2/c1-7-6-4-2-3-5-8-6/h6H,2-5H2,1H3	InChI=1S/C6H12O2/c1-7-6-4-2-3-5-8-6/h6H,2-5H2,1H3/t6-/m1/s1
