21
gdb 52454	9.18849	0.3775	0.37419	2.6794	82.58	-0.2511	-0.0262	0.2249	2751.7307	0.178719	-424.251383	-424.240366	-424.239422	-424.290293	36.515	
O	-0.683823495	 0.7750807604	 0.7913538264	-0.234566
C	 0.0338668477	 0.9669336591	-0.1554642966	 0.159752
C	 1.2976818668	 1.7958896366	-0.1364944097	-0.273888
C	 1.2552044131	 2.9297342587	-1.1759463958	-0.196621
C	 2.5689995753	 3.7150404695	-1.2537200163	-0.173153
C	 2.5270942823	 4.8524420998	-2.2800601332	-0.196623
C	 3.8443527128	 5.6451149272	-2.3473018824	-0.273896
C	 3.8184254582	 6.6884353443	-3.4407066614	 0.159758
O	 4.0068326098	 7.8661596501	-3.2800212366	-0.234566
H	-0.2074793521	 0.5284784267	-1.153601394	 0.069185
H	 1.4476128933	 2.1820547141	 0.8760336867	 0.123393
H	 2.1361173611	 1.1239825696	-0.3730971562	 0.117688
H	 1.0212181929	 2.5104050328	-2.1639277189	 0.103343
H	 0.4329600706	 3.6135688746	-0.930138577	 0.115216
H	 2.8072294265	 4.1258399615	-0.2639539872	 0.107324
H	 3.3893084121	 3.0285648054	-1.5042075706	 0.098828
H	 2.2978805451	 4.4408374881	-3.2723947898	 0.103348
H	 1.7059837727	 5.5378442593	-2.0348459553	 0.115219
H	 4.0666431182	 6.1396186212	-1.3971150443	 0.12339
H	 4.6685627135	 4.9520166391	-2.5724168078	 0.117689
H	 3.5953970951	 6.2785981919	-4.4551369001	 0.069179
35.0381	54.5644	56.6439	65.5053	112.6569	134.2746	135.0716	232.3679	256.0852	375.2427	431.7483	512.0903	534.8822	733.2573	752.337	799.682	830.8089	907.4922	973.4572	978.6629	1015.0523	1037.7161	1062.7625	1063.6904	1121.7383	1157.6915	1177.1979	1231.6668	1250.0808	1278.9977	1298.1596	1332.192	1335.7269	1336.8098	1381.7274	1397.9639	1430.2643	1430.6882	1462.6788	1463.7695	1483.2918	1493.4141	1509.3928	1837.3625	1839.0258	2844.4122	2844.952	3007.2417	3007.7083	3009.6773	3014.5891	3021.801	3038.5918	3052.0778	3069.792	3097.8585	3098.952
O=CCCCCCC=O	O=CCCCCCC=O	
InChI=1S/C7H12O2/c8-6-4-2-1-3-5-7-9/h6-7H,1-5H2	InChI=1S/C7H12O2/c8-6-4-2-1-3-5-7-9/h6-7H,1-5H2
