20
gdb 42390	3.19772	0.98242	0.82339	2.7836	80.33	-0.2514	-0.0245	0.2269	1432.0164	0.171002	-403.125839	-403.116699	-403.115754	-403.161672	33.163	
O	-0.7851437229	 0.1182488353	 0.7945924428	-0.337506
C	-0.0909787433	 1.0109894792	 0.3498784154	 0.372833
C	 1.3587011127	 1.1926322501	 0.7748532969	-0.320369
C	 2.3380137981	 1.0553789415	-0.3795193683	 0.026189
C	 2.7769919006	 2.2524841392	-1.1882843217	-0.254541
C	 3.7433249623	 1.5845944474	-0.2429992336	-0.274976
C	-0.6520358033	 1.9743501517	-0.6522066249	-0.084327
C	-1.3862750508	 1.3700078003	-1.812351039	-0.219116
N	-2.1172071532	 2.0518098117	-0.7550535712	-0.305955
H	 1.4674035382	 2.1897931679	 1.2231274706	 0.113237
H	 1.5633148687	 0.4504648528	 1.5520943228	 0.124219
H	 2.2396954386	 0.1236021406	-0.9301531223	 0.095766
H	 2.9250450596	 2.128065814	-2.2550494876	 0.117848
H	 2.3931826012	 3.2276539743	-0.9068559511	 0.11443
H	 3.9993777914	 2.1077765976	 0.6725114812	 0.115586
H	 4.5545255158	 0.9986140618	-0.6601351075	 0.117508
H	-0.1204175742	 2.9084576274	-0.7978580006	 0.097239
H	-1.3581599048	 1.8806208161	-2.770633825	 0.124952
H	-1.4237827646	 0.2849353125	-1.8550790294	 0.129864
H	-2.4853188202	 1.3462143984	-0.1148006975	 0.247117
20.982	65.9076	84.6782	162.6676	249.2478	270.1633	316.568	332.4652	427.8197	595.1459	720.3176	765.0159	778.1289	819.8893	834.8263	856.0742	892.233	903.9404	934.9024	985.1803	993.7122	1013.9411	1060.3038	1080.6898	1095.8161	1119.4052	1131.1028	1143.514	1181.6621	1189.4095	1199.1109	1228.9096	1264.5319	1293.4802	1303.51	1326.1739	1401.6819	1403.6567	1461.6003	1470.9532	1496.9598	1505.2344	1780.0816	3019.7458	3091.184	3111.4606	3131.1358	3135.6672	3143.3842	3171.1759	3204.9982	3209.7528	3224.748	3456.2501
O=C(CC1CC1)C1CN1	O=C(CC1CC1)[C@H]1CN1	
InChI=1S/C7H11NO/c9-7(6-4-8-6)3-5-1-2-5/h5-6,8H,1-4H2	InChI=1S/C7H11NO/c9-7(6-4-8-6)3-5-1-2-5/h5-6,8H,1-4H2/t6-/m1/s1
