22
gdb 106314	2.30783	1.32999	1.05448	2.7863	82.96	-0.2427	0.0834	0.3261	1268.1424	0.193498	-404.303993	-404.294517	-404.293572	-404.337905	36.177	
C	-0.0389483805	 1.5474882021	 0.4705500307	-0.40905
C	 0.0122246859	 0.0577124837	 0.1524271312	 0.014688
C	 0.9112077074	-0.314304085	-1.0745663177	-0.332034
C	 1.855081636	-1.0737166534	-0.1250068128	 0.309196
C	 3.3549337958	-1.1905992782	-0.2294713006	-0.153993
O	 3.8999920124	-1.7973141067	 0.9197472767	-0.422104
C	 0.9819102343	-0.7315481895	 1.0597649874	-0.096546
N	 1.1745206558	-2.1070125608	 0.6354361844	-0.143308
C	 0.1077824705	-2.9455877454	 0.1077578261	-0.325026
H	 0.9689741117	 1.9737730874	 0.5295206415	 0.119081
H	-0.5921436909	 2.0970326583	-0.298257524	 0.117257
H	-0.5317964979	 1.7275112728	 1.4323188294	 0.117477
H	-1.005803983	-0.3456029592	 0.1169400105	 0.071349
H	 0.4578211078	-0.8964735183	-1.8825146004	 0.097661
H	 1.3863838248	 0.5691932582	-1.5093730985	 0.10796
H	 3.608877359	-1.7551223052	-1.1457632192	 0.081642
H	 3.8028376686	-0.1943943673	-0.3352310549	 0.101603
H	 3.2112801966	-2.4094625707	 1.2219227796	 0.284343
H	 1.2563372354	-0.4626863128	 2.0755952851	 0.095312
H	-0.5990931774	-2.4339647727	-0.5584438337	 0.111881
H	 0.5546081967	-3.7767802737	-0.4462542249	 0.125909
H	-0.4575963789	-3.3633094336	 0.946502044	 0.126703
90.8416	135.6188	166.1325	195.6568	229.7968	239.3032	265.7451	318.3724	389.2497	411.1227	504.5614	521.2415	576.1705	670.0333	719.7071	748.0433	855.0959	897.7322	918.9539	948.8714	985.7909	1016.2596	1067.1494	1078.4192	1100.1259	1105.8372	1120.7837	1159.4494	1180.6676	1191.9171	1210.521	1232.1733	1246.5207	1256.2787	1277.2679	1353.415	1362.4313	1410.5313	1419.0616	1455.5077	1464.4168	1483.2802	1494.9091	1498.8626	1499.3103	1506.2857	1517.738	2931.8666	3014.8298	3025.9463	3038.68	3039.2401	3052.773	3080.4525	3092.7943	3098.1744	3104.0946	3106.5601	3156.642	3696.3857
CC1CC2(CO)C1N2C	C[C@H]1C[C@@]2(CO)[C@@H]1N2C	
InChI=1S/C7H13NO/c1-5-3-7(4-9)6(5)8(7)2/h5-6,9H,3-4H2,1-2H3	InChI=1S/C7H13NO/c1-5-3-7(4-9)6(5)8(7)2/h5-6,9H,3-4H2,1-2H3/t5-,6+,7+,8?/m0/s1
