23
gdb 101429	2.36356	1.16186	0.86325	0.5088	81.42	-0.2511	0.0684	0.3195	1406.8014	0.204847	-425.409218	-425.398951	-425.398007	-425.444407	38.447	
C	-0.2769322439	 1.4204607282	 0.0810338693	-0.401939
C	 0.0270124441	-0.0838105164	 0.026826209	 0.022522
C	 0.6661801675	-0.4426433432	-1.3199367226	-0.091396
O	-0.2863762684	-0.1799825953	-2.3453368583	-0.428725
C	 0.9306541392	-0.5421792285	 1.1811857893	-0.037549
C	 0.3540809993	-0.337739753	 2.6179422788	-0.246189
C	-0.0436203076	-1.8362447113	 2.6645716551	-0.252431
C	 0.9300142921	-2.0853281194	 1.4898299244	 0.142372
O	 0.5974945393	-3.0350122469	 0.5044239955	-0.423132
H	 0.6532045991	 2.0017736766	 0.0935849305	 0.106709
H	-0.8496948767	 1.7178966343	-0.8001776242	 0.134539
H	-0.8512715622	 1.6928880453	 0.9705183116	 0.109239
H	-0.9318819584	-0.6224324167	 0.0749459211	 0.060227
H	 1.5742648503	 0.1690351766	-1.4570795373	 0.0783
H	 0.9689034308	-1.49700714	-1.3207467467	 0.106916
H	 0.1189933451	-0.3918979545	-3.1907424971	 0.285668
H	 1.9297377629	-0.1176101483	 1.0280683136	 0.061716
H	 1.136156553	-0.093351646	 3.3409362117	 0.1028
H	-0.4536229882	 0.3873365107	 2.7309380938	 0.102543
H	 0.1192079601	-2.3941544718	 3.5895114328	 0.100154
H	-1.0826947522	-1.9859891572	 2.3502850401	 0.094456
H	 1.9152052774	-2.3884632233	 1.8566124572	 0.08954
H	-0.3125618626	-2.8784779101	 0.2308705523	 0.283659
74.7026	90.2305	114.1585	185.3947	225.8921	233.7676	247.6896	298.2338	329.7163	362.2754	401.6641	440.536	471.8356	584.6211	656.0689	751.819	818.1698	883.1876	909.5816	932.7208	939.4697	969.2043	991.2527	1018.8786	1059.8609	1073.2786	1113.5071	1137.3048	1142.9292	1169.1909	1205.5186	1231.1271	1237.2252	1260.8634	1270.3371	1274.3362	1292.5256	1308.2735	1315.4748	1355.6027	1391.8273	1403.6389	1434.9921	1456.4231	1480.182	1494.5477	1496.3695	1509.1709	1531.8741	2957.2435	2989.0807	3028.8855	3034.1091	3044.2915	3047.0199	3065.4298	3071.5706	3100.8166	3105.016	3123.7244	3129.826	3808.4553	3834.3798
CC(CO)C1CCC1O	C[C@@H](CO)[C@H]1CC[C@H]1O	
InChI=1S/C7H14O2/c1-5(4-8)6-2-3-7(6)9/h5-9H,2-4H2,1H3	InChI=1S/C7H14O2/c1-5(4-8)6-2-3-7(6)9/h5-9H,2-4H2,1H3/t5-,6+,7+/m0/s1
