20
gdb 13386	5.7289	1.08275	0.96461	0.8869	77.02	-0.2371	0.0277	0.2647	1256.9452	0.177026	-349.013268	-349.004802	-349.003858	-349.047023	30.901	
C	 0.2430150747	 1.4219285315	-0.1834992817	-0.384368
C	 0.0180270118	-0.0406118735	 0.1629268223	-0.03588
O	-1.312791262	-0.3797761892	-0.1730817111	-0.253828
C	-1.6355734282	-1.7387904707	 0.0321219119	 0.150512
C	-1.7819613233	-2.1594404886	 1.5252407851	-0.27705
C	-2.989067405	-3.0650730244	 1.5083138863	-0.06251
C	-3.6478402685	-3.0032292808	 0.3520731139	-0.063935
C	-3.0044959434	-2.0451055758	-0.6181195724	-0.284327
H	 1.2673866406	 1.7197118232	 0.059802323	 0.112457
H	 0.0738443964	 1.5932644019	-1.2503772298	 0.12527
H	-0.4463898435	 2.0589759902	 0.3779598055	 0.125631
H	 0.7226456255	-0.6832432365	-0.3927256781	 0.083247
H	 0.2054668049	-0.2122172558	 1.2352461694	 0.087388
H	-0.861760207	-2.3690049671	-0.4355773508	 0.064951
H	-0.8842141463	-2.6474832621	 1.9209214031	 0.099019
H	-1.9605283141	-1.2696010809	 2.1457719181	 0.111817
H	-3.2825805556	-3.6620555488	 2.3650130744	 0.08971
H	-4.560219503	-3.5424365006	 0.1222785846	 0.09081
H	-3.5791937417	-1.1133907787	-0.7073826838	 0.119106
H	-2.9027611422	-2.4502601233	-1.6306105198	 0.10198
51.5558	84.3457	102.1493	186.0059	248.6111	344.6968	392.1287	403.9542	483.7166	625.3802	720.1729	775.3391	820.7443	841.4402	904.8313	914.1254	963.1137	978.1916	982.003	1035.2134	1060.8273	1085.4501	1129.1697	1139.9192	1148.8253	1163.5093	1188.4521	1224.8654	1284.8464	1297.3374	1308.8395	1326.9485	1375.1206	1382.7257	1403.0926	1439.3796	1479.562	1483.2752	1488.4088	1500.06	1529.512	1689.3903	2952.7629	2963.6598	2984.8217	3009.1629	3022.2298	3043.6429	3056.1509	3064.685	3117.8475	3120.2824	3178.7321	3204.3173
CCOC1CC=CC1	CCO[C@H]1CC=CC1	
InChI=1S/C7H12O/c1-2-8-7-5-3-4-6-7/h3-4,7H,2,5-6H2,1H3	InChI=1S/C7H12O/c1-2-8-7-5-3-4-6-7/h3-4,7H,2,5-6H2,1H3
