22
gdb 98260	2.87911	0.96841	0.84971	3.1871	79.89	-0.2231	-0.0265	0.1966	1467.3507	0.190802	-441.479377	-441.468464	-441.46752	-441.51579	39.177	
C	-0.1075866034	 1.5486410211	-0.1270934489	-0.419026
C	-0.0152385355	 0.0114447498	-0.0546587099	-0.020395
N	-1.3222959504	-0.6272283927	 0.0457780487	-0.047532
C	-1.2165972747	-2.0807941645	 0.0763689544	-0.330982
C	-2.1157606993	-0.1474818384	 1.1687749873	-0.321481
C	 0.7202802586	-0.4270666951	-1.3239204968	 0.354398
O	 0.1839103764	-0.5410364091	-2.4039411944	-0.329424
C	 2.2164394621	-0.6874138937	-1.2100722053	-0.136862
O	 2.7884317836	-0.9222919914	-2.4597224291	-0.420763
H	 0.8711698266	 1.9801188908	-0.3571141119	 0.125951
H	-0.8080170587	 1.8365052355	-0.9153619591	 0.149202
H	-0.4354456139	 1.9749718951	 0.822746398	 0.128863
H	 0.6313569349	-0.2536799498	 0.8091146935	 0.056064
H	-0.6586128875	-2.4570823254	 0.956058136	 0.089057
H	-2.2192439559	-2.5163741508	 0.1058710057	 0.123538
H	-0.7249570129	-2.4456904228	-0.828272387	 0.135337
H	-2.3434644909	 0.9149198794	 1.0633890654	 0.125124
H	-3.0668551846	-0.6872595946	 1.1844225246	 0.12378
H	-1.6255156232	-0.3017950396	 2.1500558173	 0.08984
H	 2.6962056879	 0.1666804376	-0.7052671052	 0.11597
H	 2.3442237415	-1.5499007213	-0.5308133654	 0.115683
H	 2.0376993391	-0.9377727302	-3.076288018	 0.293659
40.0457	67.3141	112.6913	184.1513	209.3448	223.1515	244.8352	255.8271	297.5644	313.5568	370.4623	384.6461	428.9869	457.6919	505.3705	572.1774	711.1934	803.7359	848.0189	958.3777	995.7358	1027.5224	1056.1323	1066.9367	1096.7098	1122.1242	1135.9244	1151.5269	1187.9446	1240.806	1251.0851	1303.2372	1308.875	1337.4851	1384.2874	1401.1813	1443.7115	1451.9756	1477.1979	1484.9588	1488.2564	1491.5445	1496.8898	1503.9586	1508.7028	1515.6941	1802.9238	2867.558	2913.4047	2924.008	2951.7353	2990.3285	3049.6675	3076.445	3079.6751	3117.5295	3123.3106	3125.9	3140.4381	3669.8724
CC(N(C)C)C(=O)CO	C[C@@H](N(C)C)C(=O)CO	
InChI=1S/C6H13NO2/c1-5(7(2)3)6(9)4-8/h5,8H,4H2,1-3H3	InChI=1S/C6H13NO2/c1-5(7(2)3)6(9)4-8/h5,8H,4H2,1-3H3/t5-/m1/s1
