20
gdb 53191	2.97545	1.10007	1.01924	1.8459	87.77	-0.2154	0.0406	0.2561	1302.8671	0.171783	-365.976087	-365.967041	-365.966097	-366.012457	32.843	
C	-0.0142639817	 1.5724285398	 0.007722158	-0.500952
C	-0.0328503338	 0.1173653308	 0.0473005833	 0.049343
C	-0.0482841758	-1.0880986546	 0.0862772824	 0.121787
C	-0.0003988626	-2.5228659345	 0.0643209797	-0.212957
C	-0.4463216054	-3.3906992571	 1.2031536013	-0.025348
C	-1.26575565	-2.7849626994	 2.3302396515	-0.230976
C	-2.4542550328	-2.0887547628	 1.623650543	-0.229755
C	-2.4930614329	-2.7228233058	 0.2084521693	-0.148655
N	-1.2041176481	-3.3928452673	-0.0551174458	-0.118911
H	 1.0130604627	 1.9534394049	 0.0176155798	 0.151099
H	-0.4993602881	 1.955091607	-0.897323033	 0.149637
H	-0.5339859143	 2.0035300883	 0.8706152648	 0.148162
H	 0.8195221306	-2.9124923446	-0.5365989771	 0.108736
H	 0.1378781319	-4.2824948934	 1.4174279932	 0.088931
H	-1.6091515632	-3.5908525592	 2.9873001374	 0.104698
H	-0.6841899122	-2.0903469454	 2.9436426214	 0.111521
H	-3.3943038671	-2.2416670352	 2.1604238304	 0.095867
H	-2.2825004563	-1.0143068139	 1.5586703792	 0.119528
H	-3.2620249632	-3.4995670466	 0.1447161112	 0.106007
H	-2.6985627178	-1.9867343909	-0.5740961598	 0.112239
6.6346	87.6195	91.4887	177.6632	221.6363	254.1966	357.2181	389.9515	506.1894	534.1111	653.5528	706.9554	727.8356	777.7681	824.0263	856.9164	893.0299	899.8445	946.7705	992.2835	1038.0338	1051.1029	1053.5333	1074.6771	1106.6655	1134.5406	1176.8304	1196.9559	1222.3084	1260.9843	1288.9886	1314.7066	1326.5978	1341.8636	1369.7598	1403.7899	1416.3901	1476.6746	1478.9419	1484.7151	1491.1342	1509.2628	2357.6014	3025.3249	3046.8309	3047.2547	3073.1047	3084.8273	3086.5723	3086.9737	3091.1226	3113.092	3131.9686	3135.0571
CC#CC1C2CCCN12	CC#C[C@H]1[C@H]2CCCN12	
InChI=1S/C8H11N/c1-2-4-7-8-5-3-6-9(7)8/h7-8H,3,5-6H2,1H3	InChI=1S/C8H11N/c1-2-4-7-8-5-3-6-9(7)8/h7-8H,3,5-6H2,1H3/t7-,8+,9?/m0/s1
