14
gdb 128153	2.42492	1.49293	0.93103	1.1706	74.73	-0.225	-0.0483	0.1767	1175.2779	0.10273	-429.054905	-429.04663	-429.045686	-429.088324	29.053	
C	 0.0670154942	 1.4808492434	 0.0358415447	-0.326227
N	-0.1162414524	 0.0387431676	 0.101981692	-0.402348
C	 0.548556197	-0.7021742578	 1.0285353924	 0.309927
C	 0.6897673363	-2.0887899879	 1.1189223759	 0.190876
N	 1.4093792004	-2.2512617467	 2.2783497446	-0.264145
N	 1.6893031488	-1.0893108576	 2.8455002986	-0.087202
N	 1.178665719	-0.1412079826	 2.0999988796	-0.258288
C	 0.2504283515	-3.1293353633	 0.2891681013	 0.207452
N	-0.1228410628	-3.9703794579	-0.4185977418	-0.352332
H	 1.0799837967	 1.7686717297	-0.2758420548	 0.130432
H	-0.654124894	 1.8892721447	-0.6746611974	 0.131073
H	-0.1209108682	 1.9179889308	 1.018239137	 0.16365
H	-0.3310250581	-0.4312652778	-0.7627515711	 0.260096
H	 1.7233030814	-3.1105685447	 2.7026336891	 0.297036
91.2266	115.2839	128.7468	174.0717	232.7267	322.7722	389.5643	467.7518	519.4376	538.0921	559.8183	631.4905	700.5623	758.1802	762.6196	1004.0295	1082.0551	1135.2585	1150.5191	1157.6326	1218.1819	1238.096	1335.9726	1379.5856	1451.0336	1477.0358	1485.0625	1517.0567	1542.8817	1651.7915	2325.3626	3015.8342	3103.6358	3145.3943	3634.8057	3649.8322
CNC1=C(NN=N1)C#N	CNc1c([nH]nn1)C#N	
InChI=1S/C4H5N5/c1-6-4-3(2-5)7-9-8-4/h1H3,(H2,6,7,8,9)	InChI=1S/C4H5N5/c1-6-4-3(2-5)7-9-8-4/h1H3,(H2,6,7,8,9)
