17
gdb 108737	2.97618	1.19113	0.91502	2.2484	78.34	-0.2456	-0.0874	0.1582	1267.9393	0.13514	-421.892926	-421.884252	-421.883307	-421.927012	31.39	
C	 0.0166359776	 1.5318538366	 0.2014779011	-0.383334
C	-0.0096569937	 0.0114962665	-0.0548231986	-0.293437
C	-1.4008816771	-0.5320567366	-0.091670474	 0.226489
C	-2.1273661888	-0.9604532848	-1.141527292	-0.288307
C	-3.4825777123	-1.4109454047	-0.7315083556	 0.38733
O	-4.3407763102	-1.8432733669	-1.4634214981	-0.313469
C	-3.5804865477	-1.2248710914	 0.7830416462	-0.449056
C	-2.214374954	-0.666784103	 1.1651910499	 0.337721
O	-1.8248114391	-0.3831100873	 2.2732126314	-0.313261
H	 1.0493502569	 1.8894723787	 0.2364443194	 0.124423
H	-0.5052793017	 2.0737571152	-0.5929694957	 0.122257
H	-0.4606679546	 1.7689580142	 1.1550608665	 0.1488
H	 0.504769619	-0.2219715877	-0.992159396	 0.112319
H	 0.5319579007	-0.4879186689	 0.7569224694	 0.13295
H	-1.8098271839	-0.9969134164	-2.1775716714	 0.128882
H	-4.3847310739	-0.5321123467	 1.0500446796	 0.159835
H	-3.7874160074	-2.170598597	 1.2930913979	 0.159858
57.1765	89.7687	124.8034	196.5335	231.2443	289.2123	374.1116	411.871	522.8548	550.5916	582.4972	619.8815	694.2956	736.7427	801.9869	845.4052	905.9997	939.5795	970.6144	1033.5824	1084.36	1095.7627	1136.3652	1180.3498	1231.6371	1242.0091	1268.7242	1344.6699	1347.539	1404.6695	1418.8136	1475.371	1497.397	1509.5119	1662.7803	1800.9863	1835.0184	3040.0061	3046.6158	3066.9303	3085.5159	3108.7686	3117.4573	3134.9591	3204.7146
CCC1=CC(=O)CC1=O	CCC1=CC(=O)CC1=O	
InChI=1S/C7H8O2/c1-2-5-3-6(8)4-7(5)9/h3H,2,4H2,1H3	InChI=1S/C7H8O2/c1-2-5-3-6(8)4-7(5)9/h3H,2,4H2,1H3
