17
gdb 96767	2.32969	1.41339	0.92246	2.0323	74.9	-0.2555	-0.0317	0.2237	1235.2938	0.134621	-455.149518	-455.140141	-455.139196	-455.184298	32.669	
C	 0.1986907401	 1.3749245014	-0.2305878527	-0.366305
N	 0.0477670692	-0.0673136848	-0.1403069036	-0.321314
C	-1.0490292752	-0.6656723272	-0.0999912686	 0.392589
C	-1.33034826	-2.1528883752	 0.099856773	 0.030845
O	-0.7755763908	-2.7228714622	 1.2542642594	-0.430396
C	-2.8308072423	-1.7740445306	 0.2248081302	-0.199442
N	-2.4550170418	-0.3764976124	-0.0883804418	-0.143899
C	-3.2788879069	 0.6943887965	-0.3111397464	 0.150888
O	-2.9397453526	 1.8196398714	-0.5970124649	-0.296429
H	 0.8877792329	 1.5991027115	-1.0520655432	 0.12965
H	-0.7399947951	 1.9150417197	-0.3807234454	 0.167586
H	 0.682564792	 1.7294235565	 0.6872711192	 0.12825
H	-1.1168047568	-2.7499879219	-0.7970568512	 0.099705
H	 0.1228545729	-2.377906813	 1.3267246645	 0.30043
H	-3.506373767	-2.2270748957	-0.50400433	 0.127036
H	-3.2112693407	-1.9029380244	 1.2408017061	 0.137889
H	-4.3403821679	 0.3971395904	-0.2017383646	 0.092917
48.3033	123.4984	150.3348	166.9499	205.3496	218.6544	255.3517	273.369	336.3956	418.1649	514.9115	553.6191	680.9529	705.487	805.4298	902.3285	999.6422	1027.501	1046.1455	1074.8505	1129.3514	1140.547	1149.3826	1175.8768	1197.6479	1215.418	1285.8385	1349.8246	1356.1976	1403.0192	1433.3054	1446.4602	1496.3422	1504.7026	1508.3243	1783.7235	1843.8307	2943.3706	3014.8706	3023.4337	3065.5441	3080.0447	3120.4023	3127.3768	3789.8201
CN=C1C(O)CN1C=O	CN=C1[C@@H](O)CN1C=O	
InChI=1S/C5H8N2O2/c1-6-5-4(9)2-7(5)3-8/h3-4,9H,2H2,1H3	InChI=1S/C5H8N2O2/c1-6-5-4(9)2-7(5)3-8/h3-4,9H,2H2,1H3/t4-/m0/s1
