21
gdb 112717	2.27211	1.41716	1.25837	1.5153	74.75	-0.2516	0.0808	0.3324	1155.0473	0.1822	-461.374217	-461.364902	-461.363958	-461.408225	35.102	
C	-0.6842569254	 0.8825041026	-0.2533177614	-0.247751
O	-0.2992675218	-0.4777191554	-0.3761208161	-0.254812
C	 0.893743669	-0.6655053289	-1.1247945893	 0.206679
C	 1.1518255894	-2.168198773	-1.1940208053	-0.286453
C	 0.2253715623	-2.5650702315	-2.3564597801	 0.103647
O	-1.1142985501	-2.7346689996	-1.9364047654	-0.442758
C	 0.4341501482	-1.3686799953	-3.315131472	 0.116521
C	-0.7374093349	-1.0306280138	-4.218451765	-0.389499
O	 0.7438922573	-0.240094277	-2.4577024158	-0.284582
H	 0.0943013207	 1.4636028079	 0.262161633	 0.11093
H	-0.8713527038	 1.3343546151	-1.2333746817	 0.131768
H	-1.5982325558	 0.9045871201	 0.3435539623	 0.128534
H	 1.6949610786	-0.0641130341	-0.6738413519	 0.074297
H	 2.1999335203	-2.3480879872	-1.4503686043	 0.109923
H	 0.910967934	-2.6846582037	-0.2642807378	 0.121019
H	 0.5193654112	-3.5025123136	-2.835833202	 0.081293
H	-1.3056271692	-2.0068837535	-1.3272097206	 0.288612
H	 1.3285261471	-1.5613216248	-3.9259633903	 0.072878
H	-1.6506185887	-0.9016696235	-3.6345907176	 0.124258
H	-0.532210565	-0.1112221002	-4.7734346647	 0.118775
H	-0.9050017733	-1.8388726606	-4.9374076742	 0.116721
70.2122	123.4805	159.2182	192.8746	211.5944	262.9474	286.5444	362.6901	409.5687	429.271	503.8573	529.8201	575.2015	746.5357	782.1637	814.3448	846.8037	870.6421	920.0878	989.8159	996.6074	1031.8906	1047.0772	1082.2841	1119.4388	1126.5978	1153.7019	1182.9605	1200.1066	1220.3002	1244.6154	1315.2307	1326.5118	1353.234	1373.5959	1385.4988	1392.1818	1411.4118	1459.8217	1472.6804	1478.7385	1484.7544	1487.7649	1489.5235	1515.7068	2991.5656	2999.7537	3016.8353	3048.2319	3068.3695	3075.9031	3085.3057	3116.4994	3130.0208	3138.3505	3139.8648	3726.0498
COC1CC(O)C(C)O1	CO[C@H]1C[C@@H](O)[C@@H](C)O1	
InChI=1S/C6H12O3/c1-4-5(7)3-6(8-2)9-4/h4-7H,3H2,1-2H3	InChI=1S/C6H12O3/c1-4-5(7)3-6(8-2)9-4/h4-7H,3H2,1-2H3/t4-,5-,6-/m1/s1
