17
gdb 127002	5.25333	0.83188	0.7247	2.6549	71.81	-0.2061	0.0491	0.2553	1524.2608	0.136157	-455.163336	-455.154364	-455.15342	-455.197574	32.461	
C	 0.0184072454	 1.4542043474	 0.0395477612	-0.393097
C	 0.7844539155	 0.2601680154	-0.4958544875	-0.051291
O	-0.1429739522	-0.8166399138	-0.667769491	-0.268457
C	 0.3754423965	-1.9595565452	-1.1390781445	 0.511705
C	 1.6488364474	-2.3521016877	-1.5115816264	-0.461084
C	 1.4603917364	-3.6965654677	-1.9124856313	 0.430207
O	 2.4397544969	-4.5078041513	-2.3645443172	-0.43019
N	 0.211808861	-4.1128126266	-1.8077230652	-0.340281
N	-0.4491169277	-3.0129295796	-1.323050228	-0.305271
H	-0.7659025973	 1.7558700427	-0.6600091042	 0.133901
H	-0.446959904	 1.2162131087	 0.9999206279	 0.133899
H	 0.6983984835	 2.2986926304	 0.1834443448	 0.125453
H	 1.2549087709	 0.4867729189	-1.4615952586	 0.116146
H	 1.5740846689	-0.0533264234	 0.1995142699	 0.116145
H	 2.5605666214	-1.7827006356	-1.5017580055	 0.109622
H	 2.0265528515	-5.3582071538	-2.561506292	 0.30059
H	-1.4365760442	-3.0508844289	-1.1453549125	 0.272001
61.5095	85.0816	135.8029	213.3267	245.4401	266.021	326.7232	393.0946	413.7163	458.1777	500.5424	655.199	676.6397	704.6873	745.9989	781.0749	823.9116	922.7865	1000.8527	1047.4547	1081.6556	1134.8452	1135.7736	1186.2226	1198.0367	1244.0076	1296.9422	1329.6256	1400.8045	1424.4457	1452.1409	1483.4759	1499.9478	1523.8261	1561.162	1585.3318	1625.8503	3011.3938	3049.0108	3050.3218	3124.8091	3127.5021	3291.3403	3699.2237	3790.3709
CCOC1=CC(O)=NN1	CCOc1cc(O)n[nH]1	
InChI=1S/C5H8N2O2/c1-2-9-5-3-4(8)6-7-5/h3H,2H2,1H3,(H2,6,7,8)	InChI=1S/C5H8N2O2/c1-2-9-5-3-4(8)6-7-5/h3H,2H2,1H3,(H2,6,7,8)
