12
gdb 20519	5.1004	1.66859	1.26708	1.7162	57.46	-0.2801	-0.0903	0.1898	879.2603	0.083338	-414.671243	-414.664303	-414.663359	-414.703198	23.766	
C	-0.0151027359	 1.4805532338	-0.0925142996	-0.487814
C	-0.0226834903	-0.0241190419	 0.0361918676	 0.30183
O	-0.047304689	-0.6162653972	 1.0856114357	-0.258131
C	 0.0007959009	-0.8040156885	-1.2495120089	 0.338211
N	 0.0000497167	-2.0950834471	-1.4115432445	-0.281233
C	 0.0269058801	-2.2049686789	-2.7751748526	 0.043512
N	 0.0445420337	-1.0701609727	-3.4273046665	-0.100273
O	 0.0262291488	-0.1239987848	-2.408376208	-0.188672
H	 0.8756944573	 1.8131432677	-0.6358923873	 0.159351
H	-0.880711048	 1.8189050111	-0.6718761665	 0.159418
H	-0.0340971623	 1.9229606233	 0.9032678929	 0.153793
H	 0.0347892081	-3.1502369946	-3.2978196524	 0.16001
59.202	132.2544	190.1515	192.043	378.4283	474.0442	547.8075	634.195	661.277	747.4803	929.6144	936.3982	956.1409	978.1938	1018.3735	1045.1379	1150.882	1198.6769	1258.0367	1305.6509	1388.2812	1457.7745	1468.1032	1474.0531	1599.9503	1816.2807	3045.1754	3106.9223	3164.4961	3266.2253
CC(=O)C1=NC=NO1	CC(=O)c1ncno1	
InChI=1S/C4H4N2O2/c1-3(7)4-5-2-6-8-4/h2H,1H3	InChI=1S/C4H4N2O2/c1-3(7)4-5-2-6-8-4/h2H,1H3
