16
gdb 34640	3.14311	1.3588	1.01042	5.4072	76.67	-0.2657	-0.0529	0.2128	1135.1636	0.125982	-400.75849	-400.750964	-400.75002	-400.790866	28.338	
N	 0.0958323386	-1.150606057	-0.2458303425	-0.332142
C	 0.0253427864	-0.001715672	-0.1159878701	 0.206337
C	-0.0237981985	 1.4183690795	 0.0306860575	 0.182576
C	-1.1932731687	 2.0772063088	 0.048426505	-0.124234
C	-1.2905727871	 3.5707954159	 0.1715037543	-0.26977
C	-0.0830256471	 4.2220466501	 0.8747975856	-0.24205
C	 1.2462267978	 3.5655259801	 0.5269727805	 0.037173
O	 1.7011774398	 2.5539598494	 1.4355799309	-0.241903
C	 1.2763710387	 2.1521384141	 0.1271734703	-0.062592
H	-2.1184257204	 1.5182179109	-0.0574476663	 0.125923
H	-1.4106860056	 3.9834525881	-0.8417843592	 0.134439
H	-2.2137197155	 3.8333356952	 0.6986984281	 0.126023
H	-0.0479082653	 5.2877829375	 0.6309666106	 0.110696
H	-0.2082703326	 4.1456183052	 1.9595247144	 0.134317
H	 2.039669787	 4.2181188019	 0.1658811491	 0.103446
H	 2.0764193325	 1.7786465025	-0.5096952782	 0.111762
78.2543	146.3019	175.7389	252.9871	375.4807	419.1788	451.7303	521.9211	568.5872	619.7869	666.385	778.6345	798.4614	865.0416	891.5815	912.8541	952.6216	981.8925	1052.8607	1087.1523	1091.8461	1130.1072	1172.3853	1213.7871	1262.8547	1286.9842	1328.0888	1350.294	1382.545	1395.5277	1461.0306	1470.7654	1482.0107	1687.0555	2337.3481	3000.7854	3052.1423	3069.6641	3096.4536	3119.5299	3132.1042	3178.7677
N#CC1=CCCC2OC12	N#CC1=CCC[C@H]2O[C@@H]12	
InChI=1S/C7H7NO/c8-4-5-2-1-3-6-7(5)9-6/h2,6-7H,1,3H2	InChI=1S/C7H7NO/c8-4-5-2-1-3-6-7(5)9-6/h2,6-7H,1,3H2/t6-,7+/m1/s1
