23
gdb 111247	3.07793	1.17256	1.07092	1.2358	84.67	-0.259	0.0783	0.3373	1255.0949	0.208776	-388.286592	-388.27813	-388.277186	-388.319529	33.653	
O	-0.1511230252	 1.4145916889	-0.2356829196	-0.424525
C	-0.0353076144	 0.0363028325	 0.0983507632	-0.128206
C	-1.4181173485	-0.5798478872	-0.001813701	 0.067396
C	-1.9832404875	-0.7275903341	-1.4449572999	 0.005569
C	-1.3218426033	-2.1381208189	-1.4892014898	-0.245617
C	-1.4622303288	-2.1343761666	 0.0627056178	-0.021701
C	-2.880027137	-2.5669455982	 0.4766826813	-0.211103
C	-3.9216564862	-2.1348948518	-0.5879300091	-0.195271
C	-3.513132377	-0.8529121305	-1.3586429657	-0.214933
H	 0.7233150685	 1.8110986793	-0.1836189248	 0.28497
H	 0.6707502754	-0.4728523884	-0.5760398344	 0.082093
H	 0.3474215342	-0.0923802956	 1.1246673087	 0.080779
H	-2.0752560221	-0.0575868343	 0.7042074862	 0.059329
H	-1.6724029995	 0.0191100422	-2.1788190785	 0.066239
H	-1.8219968311	-2.9306193485	-2.0526444069	 0.087117
H	-0.2787100094	-2.0946977159	-1.8085759631	 0.094251
H	-0.6939719059	-2.641825735	 0.6548926573	 0.050778
H	-2.927495899	-3.6542286161	 0.6086020932	 0.08843
H	-3.1114036939	-2.1245140774	 1.4536509105	 0.094005
H	-4.0277667769	-2.9494792437	-1.3116196055	 0.102827
H	-4.9096913843	-2.0145038604	-0.1330995917	 0.091436
H	-3.9101876308	 0.0435608327	-0.8668011778	 0.098151
H	-3.9561444373	-0.878745243	-2.3611327102	 0.087985
88.2004	142.9585	182.7542	239.2596	280.5542	290.9014	371.1166	423.0393	480.4963	503.1779	599.8555	764.7332	812.857	816.2335	840.3414	866.9111	888.9156	913.6196	938.3704	963.3249	999.1759	1042.6063	1052.3242	1072.1622	1089.3644	1099.0409	1110.548	1131.0227	1135.6635	1173.2303	1226.2679	1236.8168	1240.3557	1255.1138	1262.0643	1283.1789	1313.3914	1316.1686	1323.7062	1354.301	1366.9455	1373.5758	1396.6135	1458.9239	1488.0337	1492.6864	1499.2741	1515.2965	1526.7427	2959.1678	2988.989	3019.6249	3022.5354	3029.9558	3039.6485	3048.2904	3057.6948	3058.3626	3064.4046	3083.4177	3086.0761	3113.0096	3828.7598
OCC1C2CC1CCC2	OC[C@H]1[C@H]2C[C@@H]1CCC2	
InChI=1S/C8H14O/c9-5-8-6-2-1-3-7(8)4-6/h6-9H,1-5H2	InChI=1S/C8H14O/c9-5-8-6-2-1-3-7(8)4-6/h6-9H,1-5H2/t6-,7+,8+
