19
gdb 23385	3.01214	1.23112	1.08127	1.2977	77.82	-0.2313	0.0002	0.2315	1185.6071	0.158294	-419.116789	-419.107772	-419.106828	-419.151362	33.247	
C	-0.4764446552	 1.3363898947	 0.0128376624	-0.47811
C	 0.0308952271	-0.0739770396	 0.1629538831	 0.320288
N	 0.4284387573	-0.5832682728	 1.2671090828	-0.160702
O	 0.3259029716	 0.3353597456	 2.322257107	-0.392548
C	 0.1287284514	-0.9194607277	-1.0623205149	-0.071451
C	-0.0312381388	-2.3800876572	-1.1548029928	-0.037083
C	-1.0415377458	-2.9463255808	-0.1609109626	-0.242016
C	-2.0395568824	-1.9089291398	-0.7289747271	-0.15456
N	-1.0630480972	-1.4416631845	-1.785363649	-0.163981
H	 0.3310167303	 2.0550701542	 0.1924759608	 0.146253
H	-0.8810725301	 1.4987621034	-0.987565824	 0.136678
H	-1.2497865251	 1.5460511174	 0.7574059813	 0.148663
H	 0.647878933	-0.1784408404	 3.0705097434	 0.307395
H	 0.8193876552	-0.49792572	-1.793845306	 0.105641
H	 0.6378515086	-2.9761190163	-1.7686284486	 0.092239
H	-1.329057834	-3.9712033201	-0.4025427286	 0.105153
H	-0.7704217637	-2.8789268501	 0.8933714949	 0.121215
H	-2.9112258021	-2.3480550646	-1.2169199292	 0.110243
H	-2.3758228601	-1.1179268714	-0.0517938229	 0.106682
52.5517	56.2403	136.3171	155.2793	277.9279	298.2277	318.1061	407.6269	449.4965	491.5128	546.7665	696.6266	742.0126	774.5167	787.6127	797.8261	835.2356	951.3079	961.8787	984.4724	1009.0378	1023.3071	1046.4298	1062.6768	1071.2401	1119.9647	1175.1585	1191.7536	1222.6309	1261.7916	1270.0245	1295.5862	1362.4445	1391.2374	1398.1957	1448.7682	1477.0563	1481.2163	1487.2532	1506.2166	1719.8427	3042.015	3056.1891	3078.9812	3099.4023	3100.8901	3112.7599	3136.3516	3141.2889	3152.7885	3819.0314
CC(=NO)C1C2CCN12	CC(=NO)[C@H]1[C@H]2CCN12	
InChI=1S/C6H10N2O/c1-4(7-9)6-5-2-3-8(5)6/h5-6,9H,2-3H2,1H3	InChI=1S/C6H10N2O/c1-4(7-9)6-5-2-3-8(5)6/h5-6,9H,2-3H2,1H3/t5-,6+,8?/m1/s1
