16
gdb 27548	4.21823	1.08685	0.92194	2.8866	72.84	-0.206	0.0227	0.2287	1237.7592	0.12685	-434.075346	-434.067584	-434.06664	-434.107891	29.431	
N	 0.0172412897	 1.2994539248	 0.2268211546	-0.589818
C	-0.0550267959	-0.0615817039	 0.0912397341	 0.46536
N	-1.1011688894	-0.8202380747	 0.2076754857	-0.409635
C	-0.5948264413	-2.1172099839	 0.0583991007	 0.29883
C	 0.7375986218	-2.050671024	-0.1537487296	-0.161421
O	 1.1048647703	-0.7116771103	-0.1287313212	-0.184012
C	-1.4857941138	-3.2861719224	 0.1169986536	-0.115096
C	-2.6514610804	-3.2742535882	 1.0449697546	-0.236779
N	-2.8634572829	-3.1601167908	-0.4027171124	-0.324483
H	 0.7714271696	 1.7399222508	-0.2786107088	 0.26722
H	-0.8735205066	 1.759917658	 0.1171130904	 0.272468
H	 1.5267602767	-2.7589298241	-0.3295763495	 0.143342
H	-1.0099328279	-4.2360835053	-0.1108157292	 0.088123
H	-2.9896069158	-4.2063608163	 1.4893146605	 0.115381
H	-2.7814069895	-2.3873963324	 1.657905582	 0.127154
H	-3.0164808547	-2.1782149672	-0.6285318755	 0.243365
83.3417	147.9429	157.8592	286.2179	312.3676	381.7205	441.3738	466.066	574.5887	635.1013	665.9323	718.0275	754.946	780.0388	829.0852	882.7022	970.4025	973.9137	995.1123	1012.8281	1098.9562	1102.209	1133.3752	1147.7245	1181.3926	1218.6959	1275.6216	1310.1572	1329.2264	1397.6178	1448.5462	1499.2692	1605.2028	1648.9378	1688.644	3111.9936	3145.1248	3205.2197	3305.3833	3484.3506	3581.8267	3691.6607
NC1=NC(=CO1)C1CN1	Nc1nc(co1)[C@H]1CN1	
InChI=1S/C5H7N3O/c6-5-8-4(2-9-5)3-1-7-3/h2-3,7H,1H2,(H2,6,8)	InChI=1S/C5H7N3O/c6-5-8-4(2-9-5)3-1-7-3/h2-3,7H,1H2,(H2,6,8)/t3-/m1/s1
