19
gdb 107540	1.84277	1.79462	1.08386	2.4935	75.4	-0.2479	-0.0382	0.2097	1162.9307	0.157	-422.991253	-422.982224	-422.98128	-423.025524	33.055	
C	-0.1998809355	 1.6306787863	-0.0425663671	-0.383017
C	-0.1026957304	 0.1125069802	-0.2533713239	-0.299652
C	-1.4151092853	-0.5863138147	-0.0389464612	 0.277694
C	-1.9430219602	-1.0586353378	 1.3088724147	-0.354717
C	-1.8132097138	-2.0291031489	 0.1781372776	 0.040039
O	-2.9452343593	-1.9384610463	-0.6997117596	-0.304043
C	-2.5831108626	-0.5821624114	-1.045439627	-0.001294
C	-3.6929846261	 0.4276806408	-0.8446219779	 0.127761
O	-3.6024814615	 1.5780308295	-1.1922248873	-0.241649
H	 0.7583431685	 2.1161279661	-0.2497286465	 0.111539
H	-0.9576086023	 2.0668644427	-0.7003198101	 0.145479
H	-0.4830073671	 1.8642535891	 0.9888749748	 0.118654
H	 0.2542611972	-0.096587062	-1.2704602846	 0.103366
H	 0.6439341893	-0.3134690058	 0.428116847	 0.100709
H	-1.1724595998	-1.1314440063	 2.0710853362	 0.120618
H	-2.9260174123	-0.7872236324	 1.6816062957	 0.119384
H	-1.2519604443	-2.9560775389	 0.1845640099	 0.111876
H	-2.2237161204	-0.5231027138	-2.0811285903	 0.110372
H	-4.5981227439	 0.0308383835	-0.3349641103	 0.096882
65.4995	87.5634	116.1995	191.9815	231.8875	242.5919	335.7977	373.7809	449.9972	478.2687	498.8837	660.1079	754.3406	786.862	852.0391	875.0927	909.7153	978.1399	997.8909	1005.5344	1018.6229	1039.6382	1054.9236	1075.3615	1098.62	1102.1611	1140.7965	1206.9943	1230.0766	1263.2569	1314.21	1318.5618	1355.0026	1397.9667	1408.5844	1418.0708	1479.438	1488.558	1501.6226	1512.2671	1822.6573	2897.9678	3017.0757	3028.3084	3039.0077	3053.053	3109.0742	3118.9399	3119.5474	3184.786	3207.502
CCC12CC1OC2C=O	CC[C@]12C[C@H]1O[C@H]2C=O	
InChI=1S/C7H10O2/c1-2-7-3-5(7)9-6(7)4-8/h4-6H,2-3H2,1H3	InChI=1S/C7H10O2/c1-2-7-3-5(7)9-6(7)4-8/h4-6H,2-3H2,1H3/t5-,6+,7+/m1/s1
