19
gdb 91562	2.80519	1.25816	1.0299	4.5089	79.51	-0.241	0.0252	0.2662	1205.889	0.159474	-382.045872	-382.037113	-382.036169	-382.07968	32.82	
C	-0.1385775444	 1.5258744062	-0.0890933389	-0.41449
C	 0.0494896149	 0.0165133892	-0.127402771	-0.017072
C	 1.2720296143	-0.579976159	-0.9234616916	-0.234028
C	 1.7376772615	-1.2559851317	 0.3686617551	-0.122461
N	 1.9655902628	-0.1560026582	 1.3435375522	-0.359596
C	 0.5985127194	-0.6837861437	 1.1348939644	 0.353754
C	-0.2099806618	-1.2720656477	 2.2626311338	-0.475749
C	-0.7779906738	-0.2553416512	 3.1547420618	 0.275134
N	-1.227934796	 0.5503775113	 3.8497932574	-0.306563
H	 0.7730461523	 2.0127766696	 0.2662638446	 0.14129
H	-0.3716647036	 1.9133023831	-1.0866402537	 0.111673
H	-0.9587710732	 1.806292848	 0.5800364551	 0.127962
H	-0.8722782443	-0.4806169938	-0.4485664595	 0.073456
H	 0.9692514453	-1.2809454338	-1.703909421	 0.10351
H	 1.9760708632	 0.1480214657	-1.3339538406	 0.113041
H	 2.2454955262	-2.2062175982	 0.4856552078	 0.096495
H	 2.3321207077	-0.5759015853	 2.19819317	 0.227426
H	-1.0357734824	-1.8718237267	 1.8605098537	 0.157452
H	 0.4100762118	-1.9515530139	 2.8604471004	 0.148768
53.9061	93.9506	181.207	221.572	241.5097	294.9092	353.8825	390.8826	435.2177	482.0114	546.4794	669.3549	716.6094	786.7871	858.9693	883.4805	897.745	930.7856	942.9533	953.5968	1005.7301	1034.1919	1087.5649	1097.795	1112.7073	1143.8417	1184.6147	1196.4342	1231.6072	1260.4362	1288.9655	1328.5954	1339.8619	1375.7489	1404.9733	1432.4832	1451.9497	1481.7278	1491.5073	1504.496	2362.9299	3029.4834	3035.8773	3046.6496	3067.5706	3067.8806	3099.523	3123.6609	3127.2426	3183.2642	3465.8664
CC1CC2NC12CC#N	C[C@H]1C[C@H]2N[C@@]12CC#N	
InChI=1S/C7H10N2/c1-5-4-6-7(5,9-6)2-3-8/h5-6,9H,2,4H2,1H3	InChI=1S/C7H10N2/c1-5-4-6-7(5,9-6)2-3-8/h5-6,9H,2,4H2,1H3/t5-,6+,7-/m0/s1
