21
gdb 72718	2.52088	2.01512	1.58967	1.5913	82.89	-0.2176	0.0839	0.3015	955.9422	0.18377	-387.000119	-386.99279	-386.991846	-387.03105	31.605	
C	-0.1083734609	 1.5389966948	-0.1435464042	-0.464748
C	-0.0370084531	 0.0194536614	-0.0126018834	 0.337549
C	-1.3011536817	-0.4936512676	 0.7983988141	-0.308678
C	-0.3617026275	-0.456984897	 2.0888659467	-0.321185
C	 0.7926249391	-0.6269146535	 1.0788715096	 0.405756
C	 2.0878346304	-0.2336509215	 0.3289104511	-0.347112
C	 1.1221068459	-0.6053419809	-0.9133600864	-0.153537
C	 0.9577717743	-2.0903025763	-0.6663862865	-0.091484
O	 0.725247637	-2.0570823963	 0.7504068926	-0.312144
H	 0.830574145	 1.9947278191	-0.4666206366	 0.114403
H	-0.8629676787	 1.7914539097	-0.8986272182	 0.119203
H	-0.4178748482	 2.0252348743	 0.7882283685	 0.115531
H	-2.1540109597	 0.1894356196	 0.7967678599	 0.091196
H	-1.6368005188	-1.5035510646	 0.5743597536	 0.124098
H	-0.38306455	 0.5213454487	 2.572000089	 0.107956
H	-0.4820391842	-1.2441418087	 2.8348752092	 0.111245
H	 2.3464377256	 0.8220151345	 0.3696986351	 0.11089
H	 2.9747544047	-0.857060288	 0.4677493455	 0.101953
H	 1.3305394365	-0.2579935786	-1.9265906009	 0.069535
H	 0.0986652921	-2.5307141655	-1.1886150953	 0.093872
H	 1.8531928721	-2.6811309936	-0.8967207135	 0.0957
203.2293	243.5598	289.9153	314.1042	371.3256	414.0182	461.8571	494.3169	525.3597	617.8121	670.0208	727.5969	784.4467	815.272	826.2881	865.0213	893.162	916.4925	938.0548	951.2497	982.4508	999.8224	1007.8687	1039.5583	1072.0102	1125.6249	1138.2915	1151.1723	1164.7671	1177.6582	1187.153	1205.4378	1223.0971	1228.3359	1246.8593	1268.0317	1299.8209	1357.8781	1413.7143	1466.3298	1477.9138	1489.2633	1496.5958	1511.4655	1531.518	3010.4957	3026.3535	3046.639	3073.3898	3074.9857	3076.6184	3083.028	3106.1292	3114.5315	3137.1859	3163.8856	3166.8823
CC12CCC11CC2CO1	C[C@]12CC[C@@]31C[C@H]2CO3	
InChI=1S/C8H12O/c1-7-2-3-8(7)4-6(7)5-9-8/h6H,2-5H2,1H3	InChI=1S/C8H12O/c1-7-2-3-8(7)4-6(7)5-9-8/h6H,2-5H2,1H3/t6-,7+,8-/m0/s1
