16
gdb 79113	2.57227	1.9963	1.54173	3.3917	68.31	-0.2539	0.0146	0.2685	890.1559	0.126429	-437.864664	-437.857895	-437.856951	-437.895755	27.416	
O	 0.1760299747	 1.4101178598	 0.0979655781	-0.426191
C	-0.0047930193	 0.033719739	-0.0482252614	 0.157953
C	-1.4032552443	-0.5689433526	-0.013022984	-0.167641
C	-2.0272400591	-0.4974425937	-1.389118829	 0.076412
O	-1.5664308721	 0.4794658487	-2.3197998616	-0.259545
C	-0.2139534996	 0.2649063354	-2.5204653368	 0.422205
N	 0.486010209	 0.8365748224	-3.3977727245	-0.544241
C	 0.2435020766	-0.6812936769	-1.4471630462	-0.209107
C	-1.0063788876	-1.544124769	-1.1402058398	-0.107764
H	-0.4208412095	 1.8634976439	-0.5083337479	 0.293743
H	 0.6354391979	-0.4420383931	 0.6974643837	 0.109116
H	-2.0046538894	-0.7441995401	 0.8716403303	 0.097111
H	-3.0792044135	-0.7175701247	-1.5089954874	 0.120817
H	-0.0863936077	 1.460987668	-3.9691821682	 0.225316
H	 1.2174912868	-1.1265881914	-1.6218933144	 0.103145
H	-1.1237121029	-2.6143618656	-1.230518381	 0.108671
121.5632	158.8348	320.3906	398.4677	414.8054	470.5681	571.6391	590.718	715.5447	723.8109	765.6803	800.9029	827.9963	861.7279	887.8284	907.8972	914.8481	987.9225	993.7019	1017.5221	1032.5589	1060.2455	1072.182	1109.0993	1142.5289	1154.7552	1224.3421	1241.1161	1251.9514	1289.0542	1318.0458	1343.7806	1408.4952	1438.3004	1788.1582	3097.3762	3177.7784	3180.6268	3213.9487	3224.9788	3470.2236	3804.0259
OC1C2C3OC(=N)C1C23	O[C@H]1[C@H]2[C@H]3O[C]([NH])[C@@H]1[C@@H]23	
InChI=1S/C6H7NO2/c7-6-3-1-2(4(3)8)5(1)9-6/h1-5,7-8H	InChI=1S/C6H7NO2/c7-6-3-1-2(4(3)8)5(1)9-6/h1-5,7-8H/t1-,2+,3-,4+,5+/m1/s1
