18
gdb 121595	4.41805	0.72135	0.62734	1.7999	70.67	-0.2481	-0.0421	0.206	1763.8256	0.1457	-476.291744	-476.281458	-476.280514	-476.328567	35.34	
C	-0.0528342978	 1.4429897837	 0.0730764133	-0.386163
C	 0.0317988466	-0.0816648507	-0.0410046712	-0.190436
C	 0.749529314	-0.5120308896	-1.308262708	-0.049639
O	 0.7803760722	-1.9565527638	-1.3286500614	-0.215203
C	 1.3761100939	-2.510459519	-2.3743527707	 0.373532
O	 1.8856085812	-1.9120489342	-3.2943271553	-0.376206
C	 1.3488406116	-4.0550495311	-2.2889820543	 0.291626
N	 1.9631372106	-4.5953220527	-3.3674817076	-0.512708
O	 0.841829593	-4.6631290032	-1.3736120548	-0.335684
H	 0.9430256169	 1.8987397514	 0.0950222916	 0.121122
H	-0.598685838	 1.8779684128	-0.7711793046	 0.12112
H	-0.5718792448	 1.7351269602	 0.9898920505	 0.123996
H	 0.5593577619	-0.4994006042	 0.8235870832	 0.117277
H	-0.97226901	-0.5200379983	-0.0368519573	 0.117285
H	 0.2388509215	-0.1593504906	-2.2108325946	 0.12439
H	 1.7785923833	-0.1386523204	-1.3458397988	 0.124409
H	 2.3498970783	-3.9865702833	-4.0697199022	 0.281069
H	 2.0251373057	-5.5951535572	-3.4542214276	 0.270213
36.749	68.5077	72.4755	100.9469	179.5149	233.0956	239.4994	306.7564	316.4369	360.3507	442.2449	499.4623	545.1232	640.5321	657.0629	758.7547	839.2383	870.5949	890.7709	927.8547	1003.377	1053.1108	1095.927	1148.3963	1187.405	1265.7201	1269.7639	1314.9335	1332.7021	1374.4441	1415.2403	1427.7178	1490.7357	1501.8588	1503.1145	1517.7105	1590.1817	1794.7422	1828.2326	3034.8501	3040.1927	3048.4853	3070.4369	3090.754	3108.0925	3114.5178	3601.8678	3744.4027
CCCOC(=O)C(N)=O	CCCOC(=O)C(=O)N	
InChI=1S/C5H9NO3/c1-2-3-9-5(8)4(6)7/h2-3H2,1H3,(H2,6,7)	InChI=1S/C5H9NO3/c1-2-3-9-5(8)4(6)7/h2-3H2,1H3,(H2,6,7)
