18
gdb 13882	3.99628	1.53577	1.18801	0.8953	69.75	-0.2285	0.0171	0.2457	1022.281	0.152926	-384.941632	-384.933366	-384.932421	-384.974466	30.465	
C	-0.0214351887	 1.5203932419	-0.0679501925	-0.410626
C	-0.0297948195	-0.0020165191	 0.0128160121	 0.123947
O	 0.7773651801	-0.4898217983	 1.0813239877	-0.434112
C	-1.457465993	-0.5693115084	 0.1480412445	 0.072108
O	-2.2767143041	-0.1183418072	-0.9337526931	-0.278729
C	-2.8769000107	-1.2277942265	-1.6008936439	-0.114895
C	-2.3217841691	-2.4428805642	-0.9127770436	-0.099533
C	-1.5249700317	-2.0703167039	 0.0815149487	-0.087658
H	 1.0003879646	 1.8917467368	-0.1849088306	 0.119365
H	-0.6282128285	 1.8607723976	-0.9102517902	 0.140612
H	-0.4446515509	 1.9570764124	 0.8466319801	 0.101778
H	 0.4129075342	-0.423684814	-0.8969711548	 0.090787
H	 0.5291365109	-0.0069775548	 1.8775994107	 0.278334
H	-1.8744696504	-0.1906705801	 1.1010885477	 0.064516
H	-3.9744766934	-1.1652571719	-1.5223803202	 0.104022
H	-2.6279765935	-1.1939808648	-2.672621363	 0.107147
H	-2.5629125094	-3.4546779198	-1.2130806249	 0.105909
H	-0.9718902968	-2.7046463757	 0.7598602653	 0.11703
81.4081	92.6343	179.0039	232.4364	278.418	296.8136	342.2027	419.3603	459.9773	508.8426	716.4515	769.9793	816.1016	869.856	913.3634	942.0129	953.236	964.3978	1030.8972	1046.324	1061.742	1108.5735	1112.2203	1125.7648	1159.2956	1197.559	1256.1444	1293.3694	1328.1179	1352.9628	1382.3137	1386.9124	1397.2861	1414.6963	1489.5157	1495.0555	1521.9932	1690.2095	2913.3839	2971.2759	2994.7659	3020.9282	3050.4649	3098.9491	3134.4181	3212.7207	3245.3107	3797.0256
CC(O)C1OCC=C1	C[C@@H](O)[C@H]1OCC=C1	
InChI=1S/C6H10O2/c1-5(7)6-3-2-4-8-6/h2-3,5-7H,4H2,1H3	InChI=1S/C6H10O2/c1-5(7)6-3-2-4-8-6/h2-3,5-7H,4H2,1H3/t5-,6+/m1/s1
