17
gdb 44923	2.99272	1.43794	1.41319	2.5566	71.23	-0.2475	-0.0307	0.2168	985.7899	0.137721	-421.885504	-421.8785	-421.877556	-421.917023	28.029	
O	-0.0107227555	 0.014029999	 0.0513637427	-0.322655
C	-0.0220734481	 1.2149480638	 0.0239835504	 0.426641
C	-1.2678633446	 2.1248345783	 0.0086064117	-0.341263
C	-0.6465774462	 3.5476187475	 0.0160478009	-0.1262
C	 0.6200479755	 3.3293958679	-0.8489146997	-0.256583
C	 1.18007652	 2.1627698378	 0.0028328714	-0.126198
C	 1.2239691133	 2.8105687254	 1.4130799757	-0.341264
C	-0.0247649971	 3.7165040238	 1.4048620128	 0.42664
O	-0.4191714292	 4.4032799565	 2.3081146063	-0.322654
H	-1.830969027	 1.949220782	-0.9147411525	 0.139741
H	-1.9340066644	 1.9080154291	 0.8478068537	 0.144476
H	-1.3264364297	 4.3516141888	-0.2595803048	 0.092392
H	 0.3870387785	 3.0399354538	-1.8777359996	 0.115159
H	 1.2845804482	 4.1980539388	-0.8685015604	 0.11516
H	 2.1055452649	 1.6884344744	-0.3182609356	 0.092391
H	 1.2016978295	 2.1033954433	 2.2464016803	 0.144476
H	 2.1189850818	 3.4316680398	 1.5300453567	 0.13974
91.4009	158.9451	285.7045	392.2059	454.8779	456.8439	493.3728	565.3427	597.3061	666.8188	711.7486	779.2537	791.9785	902.0824	903.9663	916.0698	942.3726	956.3055	965.1057	1018.356	1062.2577	1095.5514	1130.6218	1143.9805	1181.8363	1185.5908	1230.0177	1249.0349	1295.6142	1300.9429	1312.2588	1318.4407	1450.5742	1452.2902	1508.3561	1859.9272	1863.3365	3053.2364	3053.4044	3056.6015	3106.1238	3107.1343	3108.5211	3137.8899	3139.0023
O=C1CC2CC1CC2=O	O=C1C[C@@H]2C[C@H]1CC2=O	
InChI=1S/C7H8O2/c8-6-2-4-1-5(6)3-7(4)9/h4-5H,1-3H2	InChI=1S/C7H8O2/c8-6-2-4-1-5(6)3-7(4)9/h4-5H,1-3H2/t4-,5-/m0/s1
