17
gdb 16710	4.01453	1.77955	1.70481	3.3056	68.38	-0.2115	-0.0078	0.2036	841.9541	0.14324	-363.840242	-363.833325	-363.832381	-363.871112	26.962	
C	 0.0445640676	 1.4495622056	-0.0750927897	-0.324118
N	-0.0008950885	 0.00872114	 0.0992676581	-0.068129
C	-1.3689416509	-0.5516555616	 0.3274305295	-0.177014
C	-1.1227023285	-1.4055182829	 1.5911526493	-0.161618
C	-0.2904746249	-0.3997594318	 2.4620186576	-0.260584
C	 0.7296418356	-0.5065543731	 1.2737190189	-0.121405
C	 0.2676299505	-1.9814614657	 1.2467407035	 0.463278
O	 0.7725396616	-3.059499246	 1.1817149023	-0.320614
H	 1.0782641072	 1.7656129343	-0.2477913416	 0.123905
H	-0.5389354294	 1.7213566713	-0.9606488424	 0.125413
H	-0.3526042514	 2.0274895201	 0.7797727643	 0.092247
H	-2.1077337357	 0.2382819775	 0.5166630842	 0.099508
H	-1.7067265096	-1.1431068717	-0.5301812855	 0.11693
H	-1.9414265977	-2.0082205245	 1.9776392882	 0.089579
H	-0.7431606767	 0.5789029613	 2.6328979832	 0.11212
H	 0.0737748079	-0.8297362779	 3.3967675594	 0.121042
H	 1.771273703	-0.1990884249	 1.3300511508	 0.089459
134.8248	183.6258	220.3399	299.7677	400.2885	432.6351	502.2804	583.6627	638.018	764.4665	790.679	816.4475	844.0344	920.6584	956.8074	977.5062	1011.2239	1023.6002	1063.8901	1082.1325	1105.4482	1131.8735	1162.4755	1177.5403	1210.7524	1219.9324	1242.8318	1262.2744	1300.7793	1353.7768	1455.7548	1480.6496	1492.0824	1502.3697	1523.2335	1914.0643	2933.5731	3010.6959	3061.1222	3062.8072	3074.9211	3103.3119	3140.0688	3151.3031	3154.738
CN1CC2CC1C2=O	CN1C[C@@H]2C[C@H]1C2=O	
InChI=1S/C6H9NO/c1-7-3-4-2-5(7)6(4)8/h4-5H,2-3H2,1H3	InChI=1S/C6H9NO/c1-7-3-4-2-5(7)6(4)8/h4-5H,2-3H2,1H3/t4-,5-/m0/s1
