17
gdb 70114	2.45722	1.62709	1.24051	0.8133	78.59	-0.2326	0.0099	0.2426	1045.7013	0.134924	-384.64364	-384.635528	-384.634584	-384.675959	32.191	
O	 0.0252195555	 1.3522030881	 0.0216868056	-0.472078
C	-0.0178205217	-0.0383733903	 0.0194436347	 0.401321
C	-0.4963477879	-0.7685953919	-1.2024944792	-0.339883
C	-1.3442844373	-0.7551392601	 0.0702828259	-0.138841
C	-1.13788505	-1.9179216548	 0.9794799134	-0.0765
C	 0.1081001632	-1.965214931	 1.4532999026	-0.091231
C	 0.9397040156	-0.7758076076	 0.9827636703	-0.272934
C	 2.2224780088	-1.1348022797	 0.3861717931	 0.318742
C	 3.2756437438	-1.42178342	-0.1185045236	-0.48222
H	 0.7570422967	 1.6258932649	-0.5431610979	 0.288201
H	-0.8418216654	-0.1357918838	-2.013345226	 0.114003
H	-0.0195100635	-1.6969954366	-1.498233754	 0.122721
H	-2.2790144426	-0.2068018501	 0.0596513682	 0.101214
H	-1.9145952653	-2.642965304	 1.1944009879	 0.103122
H	 0.5262969433	-2.7331278604	 2.0918614195	 0.108933
H	 1.1290354827	-0.0989233956	 1.8298190239	 0.120168
H	 4.2074871244	-1.6802129471	-0.5570147543	 0.195262
96.0007	130.1199	241.6897	308.0558	320.8053	357.4281	391.7922	481.6827	509.5762	539.224	616.8138	623.2034	632.4348	723.8224	747.9995	789.1496	864.8369	898.2651	945.7537	964.5997	964.8998	1000.3905	1035.4493	1051.1367	1064.5056	1067.7471	1144.0309	1190.7909	1248.4198	1264.6542	1308.9132	1319.639	1370.962	1403.2081	1474.5747	1668.0634	2232.2249	2992.1914	3127.5011	3181.7041	3193.9235	3221.3304	3223.7929	3503.2462	3788.2024
OC12CC1C=CC2C#C	O[C@]12C[C@H]1C=C[C@H]2C#C	
InChI=1S/C8H8O/c1-2-6-3-4-7-5-8(6,7)9/h1,3-4,6-7,9H,5H2	InChI=1S/C8H8O/c1-2-6-3-4-7-5-8(6,7)9/h1,3-4,6-7,9H,5H2/t6-,7-,8+/m1/s1
