12
gdb 21629	3.69078	2.06805	1.32788	4.5387	58.77	-0.2509	-0.052	0.199	832.6834	0.08591	-410.876808	-410.870104	-410.86916	-410.907804	24.081	
N	-0.001768838	 1.3646590032	 0.1270180296	-0.593838
C	-0.0419967226	-0.0029204222	 0.0323083254	 0.456162
N	-1.1262052233	-0.7380150202	 0.0639507938	-0.334343
C	-0.6230756947	-2.0167050919	 0.0061799334	 0.05853
N	 0.6772308078	-2.130827798	-0.0674213974	-0.222426
N	 1.0804715802	-0.8078988095	-0.0378786506	-0.084562
C	 2.425626903	-0.4278898364	-0.0052763803	 0.185942
O	 3.3531826571	-1.1798487736	-0.0755049578	-0.251023
H	 0.6764517474	 1.8446929369	-0.4455974242	 0.269072
H	-0.9247572347	 1.7711823642	 0.0612094931	 0.279834
H	-1.2641156578	-2.8863518353	 0.0115994626	 0.14054
H	 2.5236014157	 0.6676130528	 0.1046145124	 0.096112
125.9741	186.4345	229.938	301.0278	339.6766	377.4446	564.7762	612.2728	664.5661	699.2926	758.4637	847.8809	932.7358	964.7484	1020.1589	1077.2439	1145.6541	1214.0769	1294.067	1342.4398	1414.5963	1461.3762	1548.4846	1601.2324	1666.3888	1849.223	2970.4536	3257.5739	3570.5389	3671.1895
NC1=NC=NN1C=O	Nc1ncnn1C=O	
InChI=1S/C3H4N4O/c4-3-5-1-6-7(3)2-8/h1-2H,(H2,4,5,6)	InChI=1S/C3H4N4O/c4-3-5-1-6-7(3)2-8/h1-2H,(H2,4,5,6)
