18
gdb 61431	2.71799	1.21229	0.94094	4.0722	69.56	-0.227	0.0288	0.2557	1248.5775	0.148123	-472.476644	-472.4668	-472.465856	-472.511906	35.422	
C	-0.4234139324	 1.4422167673	-0.2295048401	-0.363675
N	-0.0483658754	 0.0517251924	-0.0138084945	-0.091984
C	 0.1135459791	-0.3957554291	 1.3676084149	-0.269258
C	-1.2384949744	-0.7550496035	 2.0093926516	 0.379153
N	-1.723442704	-1.9572433859	 1.6026513771	-0.508141
O	-1.8024587278	-0.0081291569	 2.7888832209	-0.369378
C	-0.0252211352	-0.8972218679	-1.0005178948	 0.452458
N	-0.0875370015	-0.4245281998	-2.301556441	-0.562617
O	 0.0135575763	-2.1024911837	-0.7598433494	-0.425996
H	 0.4516923773	 2.1015036662	-0.3159567136	 0.122599
H	-1.0314484242	 1.5356311621	-1.1314182683	 0.145978
H	-1.026042952	 1.7822941031	 0.6168683325	 0.166552
H	 0.7830715959	-1.2576645136	 1.3711295376	 0.142249
H	 0.5524385957	 0.4143357882	 1.9525890589	 0.124715
H	-1.2796816358	-2.4242900678	 0.8198232952	 0.282678
H	-2.665453086	-2.199002019	 1.865952499	 0.252994
H	 0.3574249307	 0.4543569827	-2.5161086762	 0.25711
H	 0.0891098938	-1.1549334947	-2.9743577	 0.264564
54.8565	91.6169	103.8314	130.4365	172.5537	276.7799	282.7263	363.4716	444.5141	456.741	468.9207	531.3962	544.1574	557.7346	599.0999	663.4504	744.4997	779.4153	819.2175	881.0518	963.6216	1054.2925	1108.4497	1131.2501	1151.297	1185.4853	1266.7071	1330.926	1344.602	1387.6952	1433.3315	1461.1903	1495.5001	1506.4962	1529.4131	1618.165	1627.1416	1743.6736	1798.8413	3004.3812	3078.5518	3092.0233	3132.7744	3140.7129	3505.8119	3582.0025	3682.3129	3695.2749
CN(CC(N)=O)C(N)=O	CN(CC(=O)N)C(=O)N	
InChI=1S/C4H9N3O2/c1-7(4(6)9)2-3(5)8/h2H2,1H3,(H2,5,8)(H2,6,9)	InChI=1S/C4H9N3O2/c1-7(4(6)9)2-3(5)8/h2H2,1H3,(H2,5,8)(H2,6,9)
