19
gdb 111957	3.26543	1.18482	0.92679	2.4595	78.25	-0.2433	-0.0143	0.229	1299.9087	0.159563	-419.26602	-419.256759	-419.255815	-419.300499	32.951	
C	-0.0618475637	 1.5641441432	 0.0293933563	-0.388491
C	-0.0592643841	 0.0368272926	-0.0440455864	-0.167241
C	 0.7633575344	-0.5016521102	-1.2238191195	-0.110602
N	 2.2008246116	-0.2141276275	-1.0968453892	-0.258974
C	 2.7879569424	-1.3458850863	-1.157080817	 0.061243
N	 1.9735428667	-2.4633461952	-1.3199232553	-0.103136
C	 2.3768923561	-3.8509700715	-1.3941707696	-0.353646
C	 0.6517070668	-2.0253060236	-1.3628561866	 0.405306
O	-0.3254736127	-2.7284568978	-1.4731340776	-0.383318
H	 0.9576640954	 1.9495712831	 0.111424864	 0.140748
H	-0.5153094712	 2.0012195335	-0.8671810815	 0.114005
H	-0.6332386076	 1.9109151451	 0.8956334058	 0.112163
H	 0.3465619955	-0.384284078	 0.8836179549	 0.102745
H	-1.0773995425	-0.3535388556	-0.1504971417	 0.121677
H	 0.3943443193	-0.0416725946	-2.150757027	 0.121787
H	 3.8635054938	-1.4821881967	-1.0888599677	 0.135659
H	 3.0214752093	-4.0328898715	-2.2601907514	 0.139142
H	 2.9041403258	-4.1624185483	-0.4864966204	 0.138604
H	 1.4644458146	-4.4417106208	-1.4976882802	 0.172331
73.5014	107.1263	110.2628	156.1838	202.2358	234.8121	282.7025	304.4818	342.1021	503.8899	586.2562	635.174	714.7112	747.1689	777.2795	876.4358	926.2602	946.7089	958.9093	1033.5589	1060.2695	1098.3388	1124.2029	1147.0417	1156.4401	1244.3765	1262.7339	1292.812	1313.6627	1328.5968	1369.3124	1399.7124	1411.3096	1456.6806	1484.4018	1495.7325	1496.3337	1508.9138	1509.0773	1678.1959	1829.6375	3021.7773	3033.8961	3035.9116	3038.5088	3077.3683	3094.1915	3103.574	3124.9626	3140.7497	3181.4344
CCC1N=CN(C)C1=O	CC[C@H]1N=CN(C)C1=O	
InChI=1S/C6H10N2O/c1-3-5-6(9)8(2)4-7-5/h4-5H,3H2,1-2H3	InChI=1S/C6H10N2O/c1-3-5-6(9)8(2)4-7-5/h4-5H,3H2,1-2H3/t5-/m1/s1
