16
gdb 79379	2.4867	1.85276	1.21817	1.6015	76.44	-0.2262	0.0057	0.2319	1010.8314	0.121825	-400.585946	-400.578244	-400.5773	-400.61784	30.282	
C	 0.0603157101	 1.4545061886	-0.4056632637	-0.336746
N	 0.0440391327	 0.020011601	-0.1252162928	-0.10939
C	-1.0407027961	-0.4636369759	 0.768415257	-0.134318
C	-0.1585272637	-1.6329421522	 1.2843080339	 0.054829
O	-0.4021912736	-1.3855900274	 2.6926119189	-0.351085
C	-0.3373292654	-0.0356967208	 2.1358618953	 0.44929
C	-0.5079701501	 1.0851340737	 3.0003822103	 0.075619
C	-0.65065301	 2.0378489044	 3.7212299071	-0.380421
C	 0.7940037768	-0.4237579255	 1.0788508859	-0.134318
H	 1.025976405	 1.7201403134	-0.8473348704	 0.124337
H	-0.7166653798	 1.6822584839	-1.1422533179	 0.124337
H	-0.1032781037	 2.0883622797	 0.4795842131	 0.117372
H	-2.1014958968	-0.4452427638	 0.5158464368	 0.10034
H	-0.0757324979	-2.6557755862	 0.926377418	 0.108991
H	-0.776750958	 2.8784849149	 4.3583348112	 0.190825
H	 1.8770773405	-0.3587634078	 1.1890275473	 0.10034
130.8379	157.9726	214.5087	240.3585	296.5677	431.8429	470.8319	536.4436	548.533	617.6303	625.8983	680.8381	740.8791	769.8741	814.4188	829.0381	831.1862	910.749	914.2836	997.14	1045.876	1094.8248	1117.0929	1134.6468	1147.2497	1147.9753	1181.4099	1209.649	1270.4146	1281.6729	1341.9101	1450.7246	1492.5283	1500.675	2230.4852	2988.9677	3072.9758	3104.3658	3116.8726	3119.8788	3166.2449	3498.6564
CN1C2C3OC2(C#C)C13	CN1[C@H]2[C@@H]3O[C@@]2(C#C)[C@H]13	
InChI=1S/C7H7NO/c1-3-7-5-4(9-7)6(7)8(5)2/h1,4-6H,2H3	InChI=1S/C7H7NO/c1-3-7-5-4(9-7)6(7)8(5)2/h1,4-6H,2H3/t4-,5-,6+,7+
