17
gdb 106091	3.05863	1.36102	1.20865	2.6389	73.22	-0.2195	0.0003	0.2199	1081.1587	0.136722	-417.939967	-417.932109	-417.931165	-417.97262	29.939	
C	 0.1425194679	 1.4349077718	 0.2110738175	-0.332185
N	-0.0415071331	 0.0046392026	-0.0365352928	-0.415213
C	-1.3675977412	-0.4275672732	-0.0594748558	 0.373014
C	-2.3324686513	-0.8242025923	 0.9968408896	-0.062082
N	-3.4252294101	-0.0172945873	 0.4447796443	-0.303057
C	-2.722715863	-0.0723804917	-0.8685517119	-0.22403
C	-2.6695787012	-1.5635247977	-1.2728051721	 0.434813
O	-2.9226042742	-2.1562912975	-2.2851509184	-0.340661
C	-1.8944834671	-1.8913004112	-0.0326049536	-0.281799
H	 1.2124414305	 1.6570910093	 0.2387907935	 0.124876
H	-0.3311556335	 2.0802197746	-0.5446395958	 0.113599
H	-0.2848072964	 1.6871746276	 1.1856486859	 0.140721
H	 0.4676784629	-0.2989170875	-0.8587125236	 0.235219
H	-2.1764820963	-0.9789768919	 2.0575512668	 0.111873
H	-4.3254789979	-0.5030136304	 0.4244632949	 0.216771
H	-2.9172970772	 0.7156603203	-1.5924647492	 0.093015
H	-1.3388101186	-2.7800358053	 0.2313683608	 0.115127
78.746	128.6964	169.4002	197.6063	359.2415	403.9297	428.4273	505.0329	589.4963	604.4655	698.7855	741.5848	761.6692	775.5014	858.2073	894.4683	938.6648	959.6939	996.9799	1028.2033	1050.6316	1067.848	1081.8904	1132.9256	1144.5194	1153.4725	1184.2132	1198.5724	1218.6162	1306.6285	1345.9049	1443.9307	1472.6041	1487.8632	1502.8004	1520.3365	1872.7277	2987.2042	3081.0534	3122.8747	3151.2622	3193.3968	3228.701	3409.9769	3535.4415
CNC12C3NC1C(=O)C23	CN[C@@]12[C@H]3N[C@@H]1C(=O)[C@@H]23	
InChI=1S/C6H8N2O/c1-7-6-2-3(9)5(6)8-4(2)6/h2,4-5,7-8H,1H3	InChI=1S/C6H8N2O/c1-7-6-2-3(9)5(6)8-4(2)6/h2,4-5,7-8H,1H3/t2-,4+,5-,6+/m1/s1
