18
gdb 7511	4.79992	1.17167	1.10444	1.4502	73.53	-0.2549	0.0522	0.3071	1114.0697	0.15088	-347.754549	-347.745491	-347.744547	-347.787827	33.808	
C	-0.077425558	 1.6808444074	 0.2930319493	-0.453828
C	-0.0706354099	 0.1776110555	 0.1081887263	 0.330246
C	-1.3890865045	-0.416380947	-0.390360947	-0.428644
C	-1.7458425585	 0.0176577817	-1.7387174019	 0.327242
C	-2.0236402556	 0.3839226641	-2.8494514826	-0.461447
C	 1.2102174909	-0.4905931715	-0.3567125501	-0.356829
C	 0.7261094842	-0.6692928164	 1.0638182716	 0.056317
O	 1.3808334631	-0.0167205445	 2.11286038	-0.422386
H	 0.8696068726	 2.0270083733	 0.7096162973	 0.127177
H	-0.2518343719	 2.1842242296	-0.6629486315	 0.126457
H	-0.8732646241	 1.98392656	 0.9835430084	 0.11405
H	-1.3308619135	-1.5120963572	-0.3717317394	 0.12351
H	-2.1947512134	-0.1423667726	 0.3046862918	 0.130537
H	-2.2762697672	 0.7024357299	-3.8301932211	 0.194274
H	 1.1488943491	-1.3297579937	-1.0420827277	 0.112208
H	 2.0732528958	 0.1511536604	-0.5011087278	 0.111846
H	 0.3074914074	-1.6407912434	 1.3316299817	 0.080557
H	 2.2443956135	-0.4275095458	 2.2237667827	 0.288713
65.1327	119.0177	197.1011	221.5801	256.6853	287.5152	325.5696	350.7535	375.6032	411.6597	470.9888	593.9474	616.7068	637.2618	715.317	825.1478	882.6499	907.3675	956.4272	963.9715	985.6141	1035.5008	1045.1332	1107.6542	1117.083	1179.1066	1215.3238	1268.3233	1302.1678	1332.843	1361.8786	1416.5359	1425.3997	1464.3058	1485.9331	1495.9905	1507.9288	2236.5622	3011.2567	3034.6839	3045.9994	3081.6496	3095.3874	3126.59	3139.5778	3215.0416	3506.5086	3808.2461
CC1(CC#C)CC1O	C[C@@]1(CC#C)C[C@H]1O	
InChI=1S/C7H10O/c1-3-4-7(2)5-6(7)8/h1,6,8H,4-5H2,2H3	InChI=1S/C7H10O/c1-3-4-7(2)5-6(7)8/h1,6,8H,4-5H2,2H3/t6-,7-/m1/s1
