18
gdb 52974	4.75986	0.89979	0.84295	1.8475	88.07	-0.1987	0.0333	0.232	1431.156	0.146793	-364.70371	-364.695146	-364.694201	-364.738667	32.051	
C	-0.0103847698	 1.4702280077	-0.0659161021	-0.510533
C	-0.0237991066	 0.0165481623	-0.013155824	 0.279425
C	-0.0378124056	-1.1895067951	 0.0266630435	-0.234257
C	-0.0249884661	-2.6047308871	 0.102789965	 0.212452
N	-0.3138732869	-3.4770857806	-1.0832887148	-0.379148
C	-1.1400710573	-3.5941934924	 0.1329587889	-0.125557
C	-0.3873532994	-4.4542832392	 1.1858150831	-0.056918
C	 0.9786740923	-4.8763430035	 0.7090937901	-0.292907
C	 0.7606830947	-3.4574176323	 1.155777355	-0.11402
H	 0.7700820133	 1.8786224668	 0.5857670648	 0.151835
H	 0.1870064191	 1.8315804302	-1.0815353558	 0.149795
H	-0.9672996835	 1.8948944531	 0.2584194547	 0.147814
H	-0.8277341193	-2.8943547216	-1.7437939776	 0.234287
H	-2.2073819151	-3.4160488604	 0.1115315718	 0.102638
H	-0.8765261772	-4.8886338119	 2.0470578242	 0.091396
H	 1.5292105316	-5.4849501403	 1.4201605897	 0.107659
H	 1.1524166616	-5.108206099	-0.3334385805	 0.144191
H	 1.2802544941	-2.9995922869	 1.9863866739	 0.091846
14.3239	91.5316	99.1322	252.8509	295.73	371.1792	413.9453	422.157	506.6314	538.0878	599.1015	716.159	756.1231	803.6677	827.9177	862.4984	890.557	922.2652	943.0655	980.0042	1015.7841	1033.6857	1052.2248	1053.1666	1057.7741	1088.1788	1101.938	1153.3831	1182.0692	1210.3992	1271.8795	1308.9923	1334.3335	1408.795	1431.5726	1462.2498	1475.1363	1478.4493	2355.9676	3023.2574	3081.6213	3086.2312	3137.8164	3194.9799	3202.6795	3210.2114	3234.7798	3480.207
CC#CC12NC1C1CC21	CC#C[C@]12N[C@H]1[C@H]1C[C@@H]21	
InChI=1S/C8H9N/c1-2-3-8-6-4-5(6)7(8)9-8/h5-7,9H,4H2,1H3	InChI=1S/C8H9N/c1-2-3-8-6-4-5(6)7(8)9-8/h5-7,9H,4H2,1H3/t5-,6+,7-,8+/m0/s1
