23
gdb 121859	4.30234	0.561	0.5127	1.0218	93.11	-0.2425	0.0633	0.3057	2234.694	0.202073	-388.270708	-388.258715	-388.257771	-388.310496	40.564	
C	-0.0191622577	 1.5000462981	 0.0632560725	-0.385206
C	-0.0425649797	-0.0190028869	 0.0433787405	-0.028047
O	 0.6908819869	-0.4961885281	 1.1526417949	-0.245023
C	 0.7362249495	-1.9028786494	 1.2318683622	-0.045674
C	 1.5305320369	-2.2922455431	 2.489599123	-0.16518
C	 0.853588013	-1.7651839745	 3.7696143157	-0.381642
C	 1.7204470766	-3.7414729286	 2.5307371939	 0.061584
C	 1.8517861507	-4.9383630046	 2.5616805927	 0.054939
C	 2.0237130164	-6.383926659	 2.6039348184	-0.497463
H	 1.0090619161	 1.8684755877	 0.0067003256	 0.126523
H	-0.57975376	 1.9015313265	-0.7862098165	 0.114344
H	-0.4680426128	 1.8785831976	 0.9860239985	 0.126022
H	-1.0803280152	-0.3913582173	 0.0856643189	 0.08585
H	 0.3961624723	-0.4008141419	-0.8942746141	 0.085629
H	-0.2811686689	-2.3256852359	 1.2885794106	 0.089769
H	 1.2196200888	-2.3281704952	 0.3380207033	 0.092603
H	 2.5130809448	-1.8089472241	 2.398785806	 0.108265
H	 0.7141678899	-0.6846356918	 3.6961791888	 0.129883
H	-0.1251265925	-2.236171954	 3.9066232176	 0.11668
H	 1.4625257554	-1.9887530487	 4.6492314597	 0.117978
H	 1.6482480065	-6.8031527007	 3.5441201941	 0.146361
H	 1.4837669209	-6.8737843267	 1.7858940632	 0.145577
H	 3.0795854821	-6.6634023592	 2.5160035608	 0.146224
16.0876	48.3115	65.5495	80.4214	122.4267	158.787	173.6948	239.959	247.4052	279.0798	290.6608	339.8317	395.4548	440.0601	519.2952	552.4137	745.3089	820.9691	888.1842	905.711	933.6728	1030.1967	1045.0293	1053.7144	1054.215	1116.187	1136.3863	1148.4842	1169.5494	1183.6744	1200.8311	1263.2664	1296.6195	1311.9195	1346.371	1384.265	1397.8539	1407.1303	1415.3316	1446.878	1479.1669	1479.5981	1483.6056	1493.0235	1499.3514	1500.3421	1512.7132	1536.4791	2370.5439	2949.755	2963.2774	2977.2659	2993.1834	3016.4095	3024.7953	3044.1988	3044.5601	3084.5708	3084.7219	3115.1908	3118.7014	3120.6538	3136.5508
CCOCC(C)C#CC	CCOC[C@@H](C)C#CC	
InChI=1S/C8H14O/c1-4-6-8(3)7-9-5-2/h8H,5,7H2,1-3H3	InChI=1S/C8H14O/c1-4-6-8(3)7-9-5-2/h8H,5,7H2,1-3H3/t8-/m0/s1
