22
gdb 101374	3.14772	1.06448	0.92504	1.4012	82.59	-0.226	0.0814	0.3074	1366.3448	0.193423	-404.291923	-404.282364	-404.281419	-404.326737	35.512	
C	 0.841643432	 1.2616845367	 0.8143852294	-0.233029
O	 0.7635468604	-0.1164453662	 0.5421808589	-0.251942
C	 0.3532953287	-0.4400204294	-0.7845250974	 0.131798
C	 1.4894583737	-0.257575563	-1.7948235119	-0.41148
C	-0.1339277849	-1.8805482879	-0.7271164934	 0.018278
C	-1.4231252179	-2.1968021772	 0.1152247674	-0.246754
C	-2.0623140443	-2.7685002116	-1.1544103954	-0.043421
N	-2.0959582591	-1.6568021462	-2.1371743403	-0.33199
C	-0.8524186376	-2.4519676811	-1.9602677933	-0.078712
H	 1.6358515041	 1.7652681665	 0.2430190092	 0.101983
H	-0.1097671669	 1.7741787017	 0.6007757362	 0.102899
H	 1.0659548675	 1.3684315374	 1.879248661	 0.122141
H	-0.4941017431	 0.2010703531	-1.0700735384	 0.082219
H	 1.1531878204	-0.5291726874	-2.8004711044	 0.119071
H	 1.8321115519	 0.7804757813	-1.8337406852	 0.113873
H	 2.3435678386	-0.889362127	-1.5287507934	 0.115935
H	 0.6921963681	-2.5280806676	-0.4175529886	 0.076199
H	-1.2412769962	-2.9438242269	 0.8898773459	 0.102207
H	-1.9376658666	-1.3368075364	 0.549718036	 0.106855
H	-2.7543459924	-3.5972967476	-1.2398630174	 0.090341
H	-2.554095802	-2.0138790765	-2.9755162844	 0.225697
H	-0.4133080543	-2.979245885	-2.7987662106	 0.08783
60.6723	82.8635	130.6805	160.258	201.9391	232.1369	282.7019	350.5175	384.6394	439.9892	484.4876	562.9039	695.7574	797.4927	820.3311	842.094	867.6711	905.3628	952.025	973.5124	976.0859	1005.7478	1034.6203	1076.8041	1087.9443	1109.9268	1124.3151	1137.7148	1150.9427	1182.9968	1191.3092	1206.9321	1239.7335	1251.0923	1287.1598	1314.4808	1327.3549	1379.1651	1383.5321	1399.6753	1405.7573	1477.3473	1478.9243	1483.5088	1493.424	1502.5578	1513.646	2973.157	2997.3551	3018.8851	3036.2378	3063.5246	3072.6277	3103.8925	3108.3706	3109.4939	3129.2399	3177.4411	3192.7283	3468.9927
COC(C)C1CC2NC12	CO[C@@H](C)[C@H]1C[C@H]2N[C@@H]12	
InChI=1S/C7H13NO/c1-4(9-2)5-3-6-7(5)8-6/h4-8H,3H2,1-2H3	InChI=1S/C7H13NO/c1-4(9-2)5-3-6-7(5)8-6/h4-8H,3H2,1-2H3/t4-,5+,6+,7-/m0/s1
