18
gdb 65364	3.23796	0.95415	0.92445	1.6244	78.6	-0.2453	0.024	0.2694	1337.0799	0.148543	-398.092068	-398.083162	-398.082218	-398.126102	33.106	
N	-0.083801651	 1.4619332675	-0.2788516827	-0.555716
C	-0.017291072	 0.0499102963	-0.0000421145	 0.138683
C	-0.1834820475	-0.3639868179	 1.4527841338	-0.318708
C	-1.2987968382	-0.6366113928	 0.4837561056	-0.050671
C	-2.5862176444	 0.1186792996	 0.5418292273	 0.010506
C	-3.7233097661	-0.2929621617	-0.3206764983	-0.248859
N	-3.7748070187	-0.5215099663	 1.1342498598	-0.321329
C	 0.8729487859	-0.7441278717	-0.8227937949	 0.233826
N	 1.5877656538	-1.3452922611	-1.5069487358	-0.345907
H	 0.8253789261	 1.8939502233	-0.1443122535	 0.246744
H	-0.3566040751	 1.6256133094	-1.2433609527	 0.246976
H	 0.4092553778	-1.1937992578	 1.8179810257	 0.137695
H	-0.3130426748	 0.4606142234	 2.1446719353	 0.139996
H	-1.3997805649	-1.6692709654	 0.1590950832	 0.106334
H	-2.4824247439	 1.1680435665	 0.7977853572	 0.11238
H	-4.4227809359	 0.4500821574	-0.692854429	 0.123559
H	-3.5782971896	-1.1459022409	-0.9795734583	 0.114229
H	-3.5772996215	-1.4993512177	 1.3365244619	 0.230262
59.7638	105.4235	134.0221	203.5621	262.0293	282.278	342.9447	364.8033	432.7296	470.303	581.5895	612.402	702.4848	782.1979	843.3382	849.9452	874.5463	890.5033	936.9995	952.7155	964.8751	1058.3926	1070.2092	1086.1055	1097.71	1139.8198	1163.6777	1209.7542	1247.1097	1260.0432	1275.8006	1295.364	1312.3331	1337.8329	1451.9009	1480.2796	1513.6658	1662.6323	2336.3217	3106.5514	3141.7882	3145.6033	3167.042	3192.8958	3240.8835	3489.7393	3496.2255	3573.5744
NC1(CC1C1CN1)C#N	N[C@]1(C[C@H]1[C@H]1CN1)C#N	
InChI=1S/C6H9N3/c7-3-6(8)1-4(6)5-2-9-5/h4-5,9H,1-2,8H2	InChI=1S/C6H9N3/c7-3-6(8)1-4(6)5-2-9-5/h4-5,9H,1-2,8H2/t4-,5+,6+/m0/s1
