25
gdb 101617	2.46579	1.02461	0.88543	2.9602	85.85	-0.2436	0.0674	0.311	1500.1009	0.225189	-426.633247	-426.62163	-426.620686	-426.669832	43.033	
C	-0.6639682824	 1.6640495628	-0.0824080126	-0.242809
O	-0.4217932727	 0.2959748403	 0.1710652768	-0.253568
C	-1.5705459891	-0.5570724092	 0.0701691257	 0.120865
C	-1.9792565578	-0.7749343958	-1.3886788092	-0.40475
C	-1.2258907286	-1.8811429464	 0.7595082816	-0.23037
C	-0.7328764648	-1.7956896803	 2.2248009326	 0.352038
C	-1.69224552	-0.9848613871	 3.1150061709	-0.408821
C	-0.5712542042	-3.2123886002	 2.7855361633	-0.392506
O	 0.5697777866	-1.2158596783	 2.2715559478	-0.47504
H	 0.2602503615	 2.2011906022	 0.1433672589	 0.133175
H	-0.9290041612	 1.8530689518	-1.1310702685	 0.11593
H	-1.469149483	 2.0566142107	 0.5568268345	 0.110263
H	-2.4037122907	-0.0723109705	 0.6033451399	 0.071849
H	-2.8429813656	-1.4447847008	-1.4426697002	 0.119743
H	-2.2588922561	 0.1618622631	-1.8786963806	 0.11542
H	-1.1557172452	-1.2263073745	-1.9507070178	 0.127024
H	-2.1193426713	-2.5152929615	 0.7136975189	 0.094139
H	-0.44410668	-2.3854125629	 0.1784612421	 0.105675
H	-2.7113756958	-1.3874532972	 3.0908173268	 0.100197
H	-1.3372813213	-1.0076658144	 4.1491659886	 0.117102
H	-1.7294142414	 0.063000204	 2.8027684777	 0.107978
H	 0.0830014437	-3.8065589898	 2.140780073	 0.113239
H	-0.1137625769	-3.1640467846	 3.7779275393	 0.118601
H	-1.5366014614	-3.7210956168	 2.8712652323	 0.10157
H	 0.5455768177	-0.4596041348	 1.669335228	 0.283055
46.6557	76.5065	133.936	161.9293	197.4722	220.614	235.5127	255.6403	272.7845	306.2103	331.2718	351.5365	396.0581	444.5776	450.7795	507.6382	542.1105	575.9982	767.4117	802.0627	886.151	906.3433	924.6089	954.0513	977.4268	1007.1939	1044.2263	1083.837	1110.6885	1150.9172	1169.9908	1179.103	1191.5832	1235.5077	1246.8527	1306.2928	1321.438	1385.0889	1388.6515	1393.3882	1404.4275	1412.4695	1436.5753	1459.4013	1475.4816	1479.9351	1482.3209	1489.2944	1492.4832	1499.3477	1504.8549	1509.7056	1512.9975	2977.6617	2988.8335	3027.4992	3030.2978	3038.837	3040.3483	3047.8398	3073.848	3100.0921	3111.5719	3112.0832	3112.8432	3116.0867	3116.9417	3118.0647	3734.3423
COC(C)CC(C)(C)O	CO[C@@H](C)CC(C)(C)O	
InChI=1S/C7H16O2/c1-6(9-4)5-7(2,3)8/h6,8H,5H2,1-4H3	InChI=1S/C7H16O2/c1-6(9-4)5-7(2,3)8/h6,8H,5H2,1-4H3/t6-/m0/s1
