17
gdb 85475	3.18665	1.22127	0.97799	2.2753	74.14	-0.2748	0.0054	0.2803	1187.902	0.136822	-418.05055	-418.042157	-418.041213	-418.083834	31.04	
C	 0.4519892634	 1.4020750514	-0.3715017203	-0.406743
C	-0.0719322369	 0.0693803286	 0.1452812036	 0.103153
O	-0.0703706724	-0.9138909714	-0.905579357	-0.240887
C	 0.9917345027	-1.7718133071	-0.7990840401	 0.407594
N	 1.256183721	-2.6987062546	-1.6098658195	-0.535061
C	 1.7879033022	-1.439046324	 0.4442794452	-0.312928
C	 0.7861446553	-0.5999848822	 1.2634160295	-0.187239
C	 1.3905701991	 0.3338705114	 2.2035517194	 0.280083
N	 1.8675681478	 1.0765677543	 2.9495318802	-0.322262
H	 1.4993926769	 1.329801851	-0.6799299599	 0.132889
H	-0.1388223234	 1.7135422746	-1.2363047444	 0.138691
H	 0.3740992631	 2.1708100352	 0.4017882222	 0.148346
H	-1.1099336393	 0.1748480612	 0.4711651697	 0.111507
H	 0.5833630752	-2.7122834871	-2.378197062	 0.228287
H	 2.1284989387	-2.339550563	 0.9536024134	 0.156983
H	 2.6706870743	-0.8514979511	 0.1751442538	 0.154624
H	 0.1371032224	-1.2758642772	 1.8305438163	 0.142964
92.1023	100.4898	144.177	218.1329	236.074	342.5625	404.2687	439.8522	485.8882	528.6176	570.484	643.5301	687.6664	790.1519	844.5338	896.4781	928.4556	969.6958	982.4971	1054.3616	1065.6836	1082.5612	1123.2866	1137.7395	1178.4801	1261.7085	1282.8646	1291.4717	1355.1505	1364.012	1391.065	1416.8462	1476.5246	1486.2798	1494.6791	1786.2014	2361.3237	3048.7358	3053.8788	3075.9907	3078.9217	3125.1645	3133.7892	3148.3203	3477.1855
CC1OC(=N)CC1C#N	C[C@H]1O[C]([NH])C[C@H]1C#N	
InChI=1S/C6H8N2O/c1-4-5(3-7)2-6(8)9-4/h4-5,8H,2H2,1H3	InChI=1S/C6H8N2O/c1-4-5(3-7)2-6(8)9-4/h4-5,8H,2H2,1H3/t4-,5+/m1/s1
