17
gdb 67160	2.81071	1.54348	1.4827	3.7311	71.38	-0.2364	-0.0244	0.212	978.9837	0.136208	-421.810359	-421.802981	-421.802037	-421.842108	28.932	
C	-0.0436914793	 1.5615605444	-0.0635636811	-0.517249
C	 0.0128426589	 0.0676352619	 0.0153139245	 0.257911
C	 0.6861452765	-0.9023736758	-0.9596679971	-0.146158
C	 1.6738538715	-1.8048322386	-0.2413958151	-0.349032
C	 1.3477878025	-1.5895641768	 1.2506822779	 0.440098
O	 2.0038990546	-1.9349159338	 2.1950486548	-0.31922
C	 0.0107160687	-0.8409807508	 1.2653657332	-0.077173
O	-0.9167866709	-1.7777394234	 0.6225889174	-0.305796
C	-0.779000006	-1.050101819	-0.6021460551	 0.055831
H	 0.8751921508	 2.0187299036	 0.3212869733	 0.129687
H	-0.1603242311	 1.8860206957	-1.1026753934	 0.127409
H	-0.8855867236	 1.9649906221	 0.5092755805	 0.130197
H	 0.9078141552	-0.532067253	-1.9547172975	 0.09596
H	 1.5840875515	-2.8666369184	-0.4913995965	 0.140651
H	 2.7101546243	-1.5077639569	-0.4297956102	 0.131713
H	-0.3463813036	-0.4856679462	 2.2311281395	 0.095763
H	-1.60199538	-1.0820749849	-1.3070519649	 0.109408
100.9915	187.8003	209.0221	280.21	320.818	437.7721	486.6003	554.9603	575.1328	649.8518	714.3191	753.4218	812.7782	838.9235	886.9424	900.9991	935.4418	987.1108	1000.6301	1031.0197	1055.0075	1069.8516	1115.4463	1148.6155	1177.2997	1185.5303	1214.8507	1246.7571	1258.4539	1296.1848	1313.8229	1417.8707	1452.482	1464.5746	1485.9843	1499.1634	1857.4834	3026.9051	3057.5604	3088.1166	3099.661	3100.808	3133.3025	3173.6996	3184.1594
CC12C3CC(=O)C1OC23	C[C@@]12[C@H]3CC(=O)[C@@H]1O[C@@H]23	
InChI=1S/C7H8O2/c1-7-3-2-4(8)6(7)9-5(3)7/h3,5-6H,2H2,1H3	InChI=1S/C7H8O2/c1-7-3-2-4(8)6(7)9-5(3)7/h3,5-6H,2H2,1H3/t3-,5+,6-,7-/m0/s1
