18
gdb 24654	4.31548	1.1121	0.94379	1.589	87.03	-0.2293	0.0025	0.2318	1248.1152	0.151255	-364.853058	-364.845748	-364.844803	-364.885259	28.724	
C	 0.1665341956	 1.5595241026	 0.0384825586	-0.230464
N	 1.2597975733	 0.5998571	-0.1448958687	-0.313311
C	-0.109640764	 0.0903875808	 0.0371413855	-0.124169
C	-0.4146639754	-0.6671511063	 1.2842192691	 0.352815
C	 0.4721513331	-0.6790188602	 2.3647471963	-0.206247
C	 0.1539184816	-1.370632925	 3.529476882	-0.09028
C	-1.0518494578	-2.0620280161	 3.631490737	-0.121956
C	-1.9371931717	-2.0608971046	 2.5563688251	-0.093165
C	-1.618312697	-1.3695242644	 1.3910055752	-0.205813
H	 0.1818664381	 2.0894297801	 0.9868846086	 0.123716
H	-0.1731657535	 2.147678083	-0.8104326109	 0.11367
H	 1.5282810882	 0.5449358412	-1.1229957026	 0.235167
H	-0.6239033995	-0.2824351811	-0.8470493404	 0.083431
H	 1.4173508128	-0.1567021374	 2.2684983026	 0.114892
H	 0.8534744165	-1.3750167622	 4.3593841647	 0.093443
H	-1.2970629286	-2.6023107669	 4.5398732669	 0.092384
H	-2.875589583	-2.602082607	 2.6223737815	 0.092193
H	-2.3113297586	-1.3731285663	 0.5541218495	 0.083694
63.929	144.7489	201.7354	326.8113	402.8968	416.4653	542.9046	571.979	629.4834	719.536	757.9778	774.1404	858.7228	871.6748	900.6639	915.1871	936.9657	960.9276	973.0054	993.5974	1013.6497	1050.441	1090.5625	1104.5816	1118.9914	1157.6784	1181.3225	1199.0768	1219.8287	1252.7608	1289.069	1336.6994	1349.2527	1431.7953	1483.7786	1511.7192	1529.4102	1623.9309	1646.6363	3104.9786	3118.756	3159.135	3170.0205	3180.5691	3193.8084	3194.7158	3202.1865	3514.451
C1NC1C1=CC=CC=C1	C1N[C@H]1c1ccccc1	
InChI=1S/C8H9N/c1-2-4-7(5-3-1)8-6-9-8/h1-5,8-9H,6H2	InChI=1S/C8H9N/c1-2-4-7(5-3-1)8-6-9-8/h1-5,8-9H,6H2/t8-/m1/s1
