18
gdb 81734	3.1544	1.27392	1.0866	2.1874	80.29	-0.2318	0.0216	0.2534	1159.9564	0.145483	-401.866656	-401.857532	-401.856588	-401.900093	34.511	
C	-0.289628693	 1.516542017	 0.064276546	-0.413092
C	 0.0639960133	 0.0416446673	 0.018567925	 0.030676
C	 1.1626456034	-0.4650140395	-0.9730100028	 0.001392
O	 1.929360001	 0.4784683564	-1.6859395669	-0.426808
C	 1.8972649565	-1.0253687159	 0.242813093	 0.202922
C	 2.1370866541	 0.067223147	 1.2189876204	-0.275544
N	 0.7975507574	-0.530826156	 1.2101107457	-0.179177
C	 2.5029670732	-2.3119971358	 0.3121747998	 0.149846
C	 3.0169289063	-3.3997850495	 0.3331214509	-0.379883
H	 0.5923518695	 2.1604861754	 0.043034142	 0.130509
H	-0.9113484376	 1.7821096287	-0.7977640028	 0.114148
H	-0.8622692604	 1.7375419519	 0.9706472823	 0.130704
H	-0.8470356578	-0.5531410004	-0.0938264105	 0.086083
H	 0.7932072104	-1.2600573601	-1.629522695	 0.08708
H	 1.4678934363	 0.693051837	-2.5027502344	 0.288733
H	 2.7047870544	-0.1989308307	 2.1044039137	 0.133008
H	 2.2999325857	 1.076080358	 0.8534529668	 0.13159
H	 3.4701493671	-4.3594647406	 0.362959957	 0.187813
100.3781	136.693	161.4937	192.4326	211.4843	251.9523	315.2403	370.7249	447.1257	513.6227	527.6173	588.5169	603.3888	658.5718	671.0352	719.1805	778.8623	802.7797	853.2752	953.1537	965.9344	1025.9138	1092.5229	1121.1075	1130.9373	1137.2291	1175.761	1192.7658	1231.1264	1276.81	1319.4914	1342.7636	1378.109	1405.8036	1438.4914	1484.2669	1493.0101	1506.9721	2234.0666	3038.9961	3043.6731	3065.6819	3101.7406	3124.185	3131.0955	3218.874	3503.3674	3821.2911
CC1C(O)C2(CN12)C#C	C[C@H]1[C@@H](O)[C@]2(CN12)C#C	
InChI=1S/C7H9NO/c1-3-7-4-8(7)5(2)6(7)9/h1,5-6,9H,4H2,2H3	InChI=1S/C7H9NO/c1-3-7-4-8(7)5(2)6(7)9/h1,5-6,9H,4H2,2H3/t5-,6+,7+,8?/m0/s1
