16
gdb 48930	4.19847	1.52121	1.32517	2.7425	72.31	-0.2415	-0.0298	0.2118	942.4282	0.125359	-400.699734	-400.693092	-400.692147	-400.730876	26.297	
O	-0.3275659035	 0.6170931315	-0.8433643638	-0.274375
C	 0.1493048741	 1.1042491882	 0.1573701801	 0.043782
C	 1.3509915184	 1.9549232687	 0.1753043783	 0.21832
C	 1.9132656716	 2.6334387202	 1.4067159136	-0.329308
C	 3.141070636	 3.2469897807	 0.7775176253	-0.044726
C	 2.898430563	 3.6017493071	-0.6445964198	-0.059138
C	 1.712270025	 2.7419917723	-1.1008181168	-0.12616
C	 2.5224051305	 1.5548132539	-0.7342948413	-0.031942
N	 3.7077469214	 2.3813523694	-0.3084100731	-0.162765
H	-0.3052598443	 0.9182868601	 1.1562408531	 0.073749
H	 1.2458772095	 3.3974202529	 1.8201818357	 0.118293
H	 2.1638898395	 1.919970721	 2.1990229253	 0.119021
H	 3.8834443558	 3.7759590976	 1.3641945209	 0.106132
H	 3.3279986895	 4.4436272048	-1.173470308	 0.107169
H	 1.006679635	 2.8998338163	-1.9029174551	 0.119895
H	 2.6336710187	 0.5708171353	-1.1675755145	 0.122055
98.2468	189.4965	206.4482	396.2822	454.9404	525.0355	683.9427	699.8678	738.0545	749.1027	799.8877	810.811	857.5339	896.997	910.7087	948.3288	967.0663	994.2937	1008.1929	1038.3923	1050.8357	1064.4437	1085.7749	1156.8271	1167.2297	1183.7868	1214.0472	1232.532	1286.9467	1315.3972	1357.2189	1379.8209	1437.7644	1489.1211	1791.7862	2878.5621	3044.3255	3088.6826	3183.1238	3193.4488	3216.9045	3234.1836
O=CC12CC3C4C1C2N34	O=C[C@]12C[C@@H]3[C@@H]4[C@H]1[C@H]2N34	
InChI=1S/C7H7NO/c9-2-7-1-3-5-4(7)6(7)8(3)5/h2-6H,1H2	InChI=1S/C7H7NO/c9-2-7-1-3-5-4(7)6(7)8(3)5/h2-6H,1H2/t3-,4+,5-,6-,7-,8?/m1/s1
