18
gdb 22779	2.31148	1.14689	0.90065	1.3467	72.12	-0.2488	-0.0034	0.2454	1315.0873	0.145227	-476.15284	-476.142985	-476.142041	-476.188026	35.292	
O	 0.0198727781	 1.1153036107	-0.7146468692	-0.424267
C	-0.064253398	-0.267144575	-0.3990811662	-0.072181
C	-1.3935882759	-0.4996102524	 0.2935673439	-0.049915
C	-2.6242629848	-0.3425982734	-0.6597453164	-0.323047
C	-2.6556075144	-1.853486593	-0.7434081832	 0.344974
N	-2.9849414529	-2.7366782906	-1.5891021631	-0.241635
O	-3.6697862037	-2.1815853013	-2.6816964978	-0.386132
C	-1.7502625666	-2.026868829	 0.4559866049	 0.058265
O	-0.735420625	-2.9964995297	 0.4067071991	-0.428903
H	 0.8606299018	 1.2714118264	-1.1544436912	 0.287332
H	-0.003529744	-0.8865488717	-1.3091690473	 0.079762
H	 0.7540048793	-0.5854890801	 0.2626084357	 0.102155
H	-1.4363442323	 0.0855503999	 1.2143670947	 0.081985
H	-3.5072178077	 0.0843723107	-0.1760540639	 0.124385
H	-2.4495394693	 0.185524927	-1.5989184055	 0.141192
H	-3.8448906896	-2.9551713413	-3.2286151848	 0.308333
H	-2.324120875	-2.1771598154	 1.3798588978	 0.103621
H	-0.7484203201	-3.3767290418	-0.4785285175	 0.294076
53.7665	109.9046	126.7508	170.3686	197.7442	216.9182	264.2015	289.3113	339.5846	385.9379	436.734	499.203	560.5477	628.5895	733.763	806.8721	837.4635	885.2125	919.6491	988.3448	1052.6032	1059.2595	1077.9759	1106.7102	1150.7905	1168.5012	1185.1475	1229.1826	1241.2652	1268.9923	1284.3377	1330.5478	1358.1043	1397.7333	1419.6014	1461.9242	1467.2844	1518.1253	1779.8115	2966.6701	3014.2943	3020.0005	3067.5649	3091.9374	3125.06	3807.862	3814.7999	3830.272
OCC1CC(=NO)C1O	OC[C@H]1CC(=NO)[C@H]1O	
InChI=1S/C5H9NO3/c7-2-3-1-4(6-9)5(3)8/h3,5,7-9H,1-2H2	InChI=1S/C5H9NO3/c7-2-3-1-4(6-9)5(3)8/h3,5,7-9H,1-2H2/t3-,5+/m1/s1
