16
gdb 78584	5.0976	1.06109	1.0106	5.2247	73.58	-0.2741	0.0252	0.2993	1159.051	0.124982	-400.68094	-400.673646	-400.672701	-400.712749	28.252	
O	 0.0626394106	 1.4938533849	-0.0497929704	-0.438832
C	 0.1006027794	 0.0900572609	-0.0118578432	 0.110135
C	 0.0168575951	-0.6125056352	 1.3614032177	-0.109334
C	-1.5094766992	-0.2775219014	 1.4986517556	-0.036832
C	-1.8577911453	-1.7570257871	 1.8081899462	-0.185508
C	-3.184132277	-2.2396200547	 1.4519807628	 0.265242
N	-4.2371998168	-2.6205065476	 1.1631126557	-0.331675
C	-0.7430112134	-1.8290299788	 0.7331023778	-0.056051
C	-1.2817754501	-0.5679939983	-0.0269365635	-0.065737
H	 0.9572698305	 1.8289755658	 0.0646941979	 0.287572
H	 0.8381743691	-0.3223931198	-0.715264249	 0.07041
H	 0.7421180195	-0.6602297208	 2.1751864787	 0.079134
H	-1.9499513124	 0.6157452219	 1.9345642856	 0.102336
H	-1.580538402	-2.1140942959	 2.8049076995	 0.115355
H	-0.3026286959	-2.7203227323	 0.2879029363	 0.09227
H	-2.0418888522	-0.5580352515	-0.8066741277	 0.101515
113.0036	144.7371	223.7282	272.4598	318.733	419.5664	491.8462	542.5033	612.3872	749.3642	802.2301	849.7146	855.2573	885.1165	890.7369	930.5942	937.6912	984.1262	996.6954	1026.1646	1091.3145	1104.3982	1124.1538	1141.6537	1148.1597	1164.4188	1176.9675	1204.5747	1214.2996	1267.4057	1293.8257	1318.7017	1362.7143	1441.5384	2351.3411	3002.6646	3066.1837	3103.8314	3124.6314	3134.9583	3153.1935	3823.2651
OC1C2C3C(C#N)C2C13	O[C@H]1[C@H]2[C@@H]3[C@@H](C#N)[C@H]2[C@H]13	
InChI=1S/C7H7NO/c8-1-2-3-5-4(2)6(3)7(5)9/h2-7,9H	InChI=1S/C7H7NO/c8-1-2-3-5-4(2)6(3)7(5)9/h2-7,9H/t2-,3-,4+,5-,6+,7-/m1/s1
