14
gdb 30548	6.52764	0.84369	0.75903	6.8945	73.76	-0.1966	-0.0172	0.1794	1413.8939	0.101336	-470.025037	-470.017058	-470.016113	-470.057871	29.417	
N	-0.0955357735	 1.3711198142	 0.0631134985	-0.48671
C	-0.1324004628	 0.0370615525	-0.1626154124	 0.103319
N	-1.0594451138	-0.7096901978	 0.3153276631	-0.319231
C	-0.9260953925	-2.0620575693	 0.1996141941	 0.335198
C	 0.0726876985	-2.9409744655	 0.3514018447	-0.153516
O	-0.426887942	-4.2266725282	 0.1690862694	-0.221806
C	-1.765504518	-4.0943476035	-0.0987049342	 0.500752
N	-2.6042385584	-5.0002868391	-0.3369682599	-0.583646
O	-2.0878087262	-2.7707787364	-0.0757991907	-0.214833
H	 0.4671803151	 1.9593064492	-0.5265111548	 0.27138
H	-0.8947203237	 1.7914086762	 0.512639097	 0.275096
H	 0.7040105957	-0.3497505615	-0.7564764787	 0.116527
H	 1.1017638213	-2.8446875997	 0.6438587685	 0.146388
H	-2.15476337	-5.911739101	-0.3072121545	 0.231082
83.788	124.9586	173.8458	211.9738	349.1009	362.3406	387.5418	438.3739	551.8171	601.4045	637.6143	683.872	732.7733	740.2886	773.0648	787.9055	922.4055	993.3422	1018.9851	1022.3434	1082.4512	1113.1583	1207.5083	1281.2768	1319.1119	1350.6298	1415.8231	1624.1428	1702.3291	1737.3685	1812.142	3060.3482	3311.6478	3543.7721	3594.7831	3727.337
NC=NC1=COC(=N)O1	NC=NC1=CO[C@H]([NH])O1	
InChI=1S/C4H5N3O2/c5-2-7-3-1-8-4(6)9-3/h1-2,6H,(H2,5,7)	InChI=1S/C4H6N3O2/c5-2-7-3-1-8-4(6)9-3/h1-2,4,6H,(H2,5,7)/t4-/m0/s1
