19
gdb 80028	3.20185	1.51069	1.30282	1.4817	79.75	-0.2334	0.0024	0.2358	1031.1578	0.160275	-385.83593	-385.828591	-385.827646	-385.867166	30.836	
O	 0.1431298527	 1.4568600064	-0.111800744	-0.442392
C	 0.0469537416	 0.075752164	-0.0256495623	 0.183647
C	 0.137774333	-0.6704212657	 1.3683651673	-0.213519
C	-1.0496962526	-0.0259090573	 2.093751458	-0.103653
C	-2.0196938949	-0.016168768	 1.1683142505	-0.103647
C	-1.3576183204	-0.6552897523	-0.0584088391	-0.213529
C	-0.5900471522	-1.8182605715	 0.6218861643	 0.464372
C	-0.0010695327	-3.0380537071	-0.0083410731	-0.359633
C	-1.0502520732	-3.1534898055	 1.0901053514	-0.363987
H	-0.4750545705	 1.8166640734	 0.5398948285	 0.272978
H	 0.7422603017	-0.3386054752	-0.7587802344	 0.09531
H	 1.078343551	-0.8120453413	 1.9000126358	 0.062186
H	-1.0687088518	 0.3194006931	 3.1177521631	 0.102419
H	-3.0379840242	 0.3391841766	 1.2389352356	 0.10242
H	-1.9342457281	-0.7815549806	-0.9743427792	 0.062186
H	-0.296220886	-3.2946239933	-1.0211974652	 0.114184
H	 1.0217542956	-3.3079408658	 0.2362208465	 0.114184
H	-0.726236776	-3.4998036527	 2.0662424957	 0.113237
H	-2.0441112429	-3.4865273072	 0.8088729304	 0.113236
165.149	222.4162	251.3211	273.8111	342.4868	464.0522	490.7979	569.052	580.8042	604.4912	763.2988	772.2558	784.6634	800.9605	810.3609	865.5309	914.8111	915.9732	919.7717	948.5512	952.9061	992.8434	1004.8832	1050.3066	1076.9846	1089.8104	1122.9061	1130.6588	1173.4314	1181.2502	1194.5247	1205.6856	1228.0467	1242.6204	1298.3067	1329.0506	1391.2166	1446.0699	1461.2519	1508.9814	1609.3803	3101.6865	3120.0388	3121.3664	3124.9196	3126.7151	3197.6204	3212.8604	3218.3615	3244.5375	3732.9639
OC1C2C=CC1C21CC1	O[C@H]1[C@H]2C=C[C@@H]1C12CC1	
InChI=1S/C8H10O/c9-7-5-1-2-6(7)8(5)3-4-8/h1-2,5-7,9H,3-4H2	InChI=1S/C8H10O/c9-7-5-1-2-6(7)8(5)3-4-8/h1-2,5-7,9H,3-4H2/t5-,6+,7+
