15
gdb 43891	2.79938	1.50173	1.15625	3.3558	71.96	-0.2854	-0.0131	0.2723	1048.2276	0.113314	-416.801394	-416.793916	-416.792972	-416.833597	28.23	
N	 0.0524203491	 1.1456381528	 0.5354749929	-0.537249
C	 0.0018863923	-0.0168982626	 0.081374361	 0.437534
O	 1.0136878397	-0.8377000973	-0.415910808	-0.286757
C	 0.0647940461	-1.905690665	-0.7127818784	 0.31153
C	-0.0674018552	-2.9174394023	 0.4541015843	-0.283733
C	-1.2043789964	-2.0467621186	 1.0718875853	-0.232541
C	-1.0919155361	-1.0383863179	-0.1132585002	-0.221404
C	 0.1544185725	-2.3713662087	-2.0791634478	 0.232656
N	 0.1967729512	-2.7720175323	-3.1624345219	-0.327773
H	 1.0010276667	 1.5231326485	 0.5241151999	 0.239763
H	-0.3988680138	-3.9042493414	 0.1269358155	 0.137649
H	 0.8526540068	-3.0184479086	 1.0312536845	 0.136965
H	-2.1674162725	-2.5580023811	 1.092401104	 0.12934
H	-1.0129109389	-1.6169377938	 2.0556044005	 0.135814
H	-1.9888271514	-0.7395276917	-0.6494139718	 0.128206
90.6108	149.2964	187.9111	226.4867	363.6992	417.7154	496.865	528.0681	577.0472	628.3282	720.252	743.4547	806.6149	865.0147	894.9516	912.3733	949.1083	988.15	997.9051	1067.4378	1078.5071	1100.9115	1139.068	1212.44	1228.5986	1240.6306	1262.7943	1293.6084	1305.3592	1465.4371	1490.7185	1839.3448	2358.9036	3085.1447	3090.7843	3136.7082	3152.2609	3160.324	3486.1237
N=C1OC2(CCC12)C#N	[NH][C]1O[C@]2(CC[C@@H]12)C#N	
InChI=1S/C6H6N2O/c7-3-6-2-1-4(6)5(8)9-6/h4,8H,1-2H2	InChI=1S/C6H6N2O/c7-3-6-2-1-4(6)5(8)9-6/h4,8H,1-2H2/t4-,6+/m0/s1
