19
gdb 29902	4.25804	0.99759	0.85708	3.8549	84.07	-0.2045	0.0368	0.2413	1372.8192	0.161214	-382.074619	-382.066003	-382.065059	-382.109091	31.66	
C	-0.372913737	 1.3342251678	 0.0607435822	-0.335726
N	-0.107569707	-0.0834310967	-0.0625611284	 0.022678
C	 0.545687595	-0.6832311821	-1.1110782158	-0.080549
C	 0.7080526393	-2.0146191018	-0.8144699198	-0.279613
C	 0.1311570981	-2.2438271732	 0.4717175502	 0.257084
C	-0.3526600929	-1.0247857873	 0.9049680969	-0.202182
C	 0.0621598869	-3.5465744237	 1.1713931033	-0.105798
C	-0.8818013424	-3.7822399872	 2.2911842629	-0.241642
N	-1.1125378572	-4.443846954	 0.9959822182	-0.315929
H	 0.4500250995	 1.8625453529	 0.5565124617	 0.139359
H	-0.5171279993	 1.7671138034	-0.9319258643	 0.141128
H	-1.2866016539	 1.4904952826	 0.6394903875	 0.140482
H	 0.834749695	-0.1073483713	-1.9763419933	 0.11553
H	 1.1656760591	-2.7570048045	-1.4508724381	 0.098976
H	-0.8314556514	-0.7455250545	 1.8302447517	 0.115102
H	 0.9942503053	-4.1082194118	 1.1802983101	 0.0899
H	-0.6034743576	-4.447345159	 3.1040615687	 0.112708
H	-1.5439832406	-2.9719933439	 2.584154316	 0.104009
H	-1.8278951391	-3.9264172056	 0.4887350703	 0.224482
33.5152	85.6188	126.7502	167.4646	200.3111	349.2372	390.2617	467.725	582.1673	615.5303	672.1579	690.3109	714.0176	776.3992	815.7098	826.7148	864.3739	957.1744	979.3281	1014.2481	1019.2377	1080.2961	1103.2817	1107.7039	1146.1729	1149.3443	1172.4485	1206.0073	1242.2312	1272.3337	1305.1479	1339.332	1400.93	1415.1987	1439.4761	1457.2255	1488.7679	1507.86	1514.3639	1546.017	1600.9087	3029.0934	3098.2877	3108.1335	3120.5945	3130.5281	3189.4098	3241.109	3254.5482	3262.8267	3486.9579
CN1C=CC(=C1)C1CN1	Cn1ccc(c1)[C@H]1CN1	
InChI=1S/C7H10N2/c1-9-3-2-6(5-9)7-4-8-7/h2-3,5,7-8H,4H2,1H3	InChI=1S/C7H10N2/c1-9-3-2-6(5-9)7-4-8-7/h2-3,5,7-8H,4H2,1H3/t7-/m1/s1
