22
gdb 60569	2.44239	1.31966	1.04838	1.6797	82.93	-0.2266	0.0822	0.3088	1263.281	0.192633	-404.292341	-404.282603	-404.281659	-404.327385	36.246	
C	 0.0293501545	 1.6518672831	-0.2004429748	-0.422718
C	-0.2422751228	 0.1428807318	-0.0271663007	 0.004396
C	 0.3789932072	-0.5967363127	-1.2113048199	 0.082373
O	 1.7211631999	-1.0715785926	-1.09119811	-0.26219
C	 0.6816417622	-2.0318078463	-1.3518193514	 0.070755
C	 0.4246976959	-3.1178649367	-0.3396274785	-0.429838
N	 0.1640240487	-0.4679415177	 1.2396702814	-0.061893
C	 1.3759832705	-0.0506985937	 1.9224975758	-0.203374
C	 0.0332583514	 0.2391197782	 2.5043226577	-0.236271
H	 1.100586675	 1.8674204661	-0.2537981014	 0.134719
H	-0.4217619682	 1.9980676883	-1.1351804392	 0.120876
H	-0.4082499765	 2.2445203989	 0.6068023333	 0.117661
H	-1.3296792555	-0.0058985744	-0.0932999659	 0.090452
H	 0.1908347721	-0.0652723074	-2.1493044731	 0.076279
H	 0.7061884634	-2.3928269206	-2.3842360949	 0.080579
H	 0.3382341749	-2.7068097929	 0.6645601378	 0.15505
H	-0.5055669508	-3.6399301176	-0.5921609799	 0.111361
H	 1.2344025019	-3.8553815198	-0.3719497552	 0.117083
H	 1.9923147861	-0.8558626704	 2.3123907169	 0.116516
H	 1.9380715346	 0.7939623745	 1.5334315032	 0.11523
H	-0.2916513412	 1.2770634558	 2.506547568	 0.108114
H	-0.3569082134	-0.3529373438	 3.3282426206	 0.114839
47.7282	63.9388	169.587	180.2145	204.5221	260.8447	284.2236	299.5184	358.6812	398.5438	442.747	556.6328	630.8555	713.9331	775.5271	798.5463	828.5776	899.1025	931.7162	942.2552	985.2043	1025.6966	1031.5284	1049.7669	1071.1895	1109.2964	1122.8395	1124.4994	1148.5611	1167.9357	1183.159	1186.2332	1195.6934	1306.5906	1332.8726	1342.9884	1370.3915	1392.5886	1401.6172	1424.0108	1469.0541	1486.2761	1497.2158	1501.5234	1511.2246	1516.1214	1529.8813	3004.3324	3033.0115	3044.4059	3051.866	3066.5812	3088.6178	3102.3469	3111.0827	3113.6722	3124.3709	3169.4582	3178.4611	3196.3904
CC(C1OC1C)N1CC1	C[C@@H]([C@H]1O[C@H]1C)N1CC1	
InChI=1S/C7H13NO/c1-5(8-3-4-8)7-6(2)9-7/h5-7H,3-4H2,1-2H3	InChI=1S/C7H13NO/c1-5(8-3-4-8)7-6(2)9-7/h5-7H,3-4H2,1-2H3/t5-,6-,7+/m0/s1
