16
gdb 53821	3.29309	1.19282	1.02302	12.7969	67.86	-0.1932	-0.0249	0.1683	1161.05	0.123989	-474.997087	-474.988638	-474.987693	-475.031709	29.446	
O	-0.1995869318	 1.071691698	-1.1768277104	-0.446763
C	 0.0140374242	 1.2620599603	 0.0488201047	 0.331974
O	 0.9240242075	 1.0066959629	 0.8200447392	-0.429638
C	-1.2390653528	 2.0325389107	 0.4896690851	 0.285878
O	-2.2478914204	 1.6149836685	 1.0545590297	-0.377821
C	-1.3320593062	 3.4990120871	-0.0171520093	-0.095218
C	-1.5615874705	 3.7060044144	-1.5355964068	-0.232539
C	-3.0504768122	 3.985947803	-1.2199807638	-0.179184
N	-2.7712039745	 3.8993814248	 0.2721753187	-0.272919
H	-3.1195707444	 3.0186363872	 0.7664850343	 0.311714
H	-2.9349663019	 4.7412833895	 0.8164496764	 0.296373
H	-0.5955209071	 4.1326046278	 0.4780765494	 0.149265
H	-1.0384362904	 4.5684582716	-1.9499779803	 0.130958
H	-1.337374209	 2.8104682108	-2.1110224122	 0.197472
H	-3.4385318089	 4.9668065713	-1.4917896388	 0.154067
H	-3.7583854817	 3.2101050522	-1.5113119158	 0.176381
35.6604	72.7786	116.8927	184.5081	198.5819	281.1492	355.3898	415.2434	647.3318	715.9257	734.3708	768.4418	803.4147	811.4588	856.9504	894.4917	936.8948	981.2165	1007.7537	1051.1043	1084.2408	1124.2116	1211.5826	1218.5765	1257.5063	1275.9672	1283.702	1322.6351	1335.2272	1336.9258	1491.7884	1506.6184	1598.8127	1695.9865	1813.0481	2785.1854	3099.4183	3103.7056	3123.7444	3165.1927	3179.4566	3541.6692
[O-]C(=O)C(=O)C1CC[NH2+]1	O=C([O])C(=O)[C@H]1CC[NH2]1	
InChI=1S/C5H7NO3/c7-4(5(8)9)3-1-2-6-3/h3,6H,1-2H2,(H,8,9)	InChI=1S/C5H7NO3/c7-4(5(8)9)3-1-2-6-3/h3H,1-2,6H2/t3-/m1/s1
