20
gdb 29708	2.38707	1.53111	0.94935	0.9269	84.23	-0.1684	0.0666	0.235	1257.2309	0.169141	-403.193701	-403.183221	-403.182276	-403.229428	37.045	
C	 0.0050766367	 1.4474196365	 0.0211149277	-0.34652
N	 0.0414252341	 0.0011049712	 0.0193903896	-0.093665
C	 0.1108412453	-0.786614488	-1.0959523785	 0.363649
O	 0.1492753559	-0.1676158333	-2.3080955298	-0.444711
C	 0.1274117558	-2.1056261597	-0.7250192786	-0.415088
C	 0.0642271302	-2.1304531801	 0.7082540692	 0.232168
C	 0.0581594786	-3.3735127852	 1.5462106428	-0.502928
C	 0.0120890088	-0.8263582644	 1.1447500753	 0.182866
C	-0.0635756072	-0.243486824	 2.5161201607	-0.505909
H	 0.8601333022	 1.8653574664	 0.563821134	 0.131413
H	 0.041810456	 1.7985382979	-1.0097596371	 0.15908
H	-0.9143275075	 1.8208185912	 0.4854243146	 0.131418
H	 0.1964036571	-0.8482565686	-2.985379654	 0.305892
H	 0.1782434284	-2.9570221724	-1.3872641916	 0.078932
H	 0.9625028375	-3.9739098163	 1.3870731918	 0.118997
H	 0.0039399652	-3.1455660521	 2.6143293998	 0.114287
H	-0.7962310435	-4.0189889123	 1.3074359	 0.11899
H	 0.7933087214	 0.4033120439	 2.748907252	 0.119861
H	-0.968917271	 0.3592978519	 2.6703814224	 0.119858
H	-0.0768446242	-1.0415557527	 3.2612614996	 0.131408
55.7283	78.2813	114.5088	153.0527	189.528	203.6206	229.551	278.4078	284.7305	316.8112	347.8265	537.5173	582.5268	597.9359	642.1889	649.6326	696.8291	733.6389	842.0605	987.2756	1002.0578	1054.3516	1062.9574	1111.2667	1137.384	1152.6536	1193.026	1206.9872	1278.4625	1356.965	1405.4679	1426.8759	1430.8167	1459.0589	1474.9261	1481.6944	1489.6068	1495.0714	1497.8156	1512.7987	1561.7281	1591.6835	1644.125	3001.7971	3017.1302	3028.9667	3037.8006	3059.3092	3078.6348	3103.2648	3123.1648	3157.0804	3233.7666	3854.0597
CN1C(O)=CC(C)=C1C	Cn1c(O)cc(C)c1C	
InChI=1S/C7H11NO/c1-5-4-7(9)8(3)6(5)2/h4,9H,1-3H3	InChI=1S/C7H11NO/c1-5-4-7(9)8(3)6(5)2/h4,9H,1-3H3
