22
gdb 8956	3.64006	1.20499	0.96668	0.	75.76	-0.2484	0.0901	0.3385	1282.2059	0.196408	-387.327093	-387.31628	-387.315336	-387.36351	37.373	
C	-0.0191674888	 1.4020631817	-0.0714287481	-0.233996
O	-0.0370518562	 0.0073050577	 0.1174879537	-0.249354
C	-1.322935962	-0.5924601615	 0.0257441131	 0.129784
C	-1.8001033861	-0.7093910133	-1.4221049212	-0.409468
C	-1.2003880334	-1.9653976758	 0.7100708922	 0.129785
C	-0.7232215823	-1.8484665537	 2.157920273	-0.409468
O	-2.4862716803	-2.5651630061	 0.6183234795	-0.249355
C	-2.504160369	-3.9599182883	 0.8072607349	-0.233996
H	 1.0020490088	 1.7396958426	 0.1238217249	 0.124816
H	-0.2909987493	 1.6954708944	-1.0956564014	 0.107737
H	-0.7007139498	 1.9153146314	 0.6252147793	 0.103105
H	-2.0488123506	 0.0053063485	 0.6036031088	 0.067857
H	-2.7540862005	-1.2382730835	-1.4568022351	 0.135388
H	-1.9353224381	 0.274901153	-1.8791389835	 0.109213
H	-1.0662523691	-1.2650010014	-2.0155256126	 0.114919
H	-0.4745103612	-2.5631638962	 0.1322128438	 0.067857
H	-1.4570750236	-1.2928606501	 2.7513418034	 0.114919
H	-0.5879972881	-2.8327584358	 2.6149532808	 0.109213
H	 0.2307587396	-1.3195799216	 2.1926177184	 0.135388
H	-3.5253717673	-4.2975543173	 0.6119893415	 0.124816
H	-1.8225961301	-4.4731800017	 0.1106420874	 0.103104
H	-2.2323550124	-4.2533105129	 1.831499627	 0.107737
50.0921	57.4195	73.2476	168.5206	189.7776	196.2577	215.1556	226.3555	297.3826	311.4794	360.0593	416.6633	421.6794	521.9157	533.0132	828.272	858.8029	908.3263	984.1537	1022.3571	1094.5252	1101.5672	1128.0714	1143.0989	1161.3163	1180.8689	1182.1526	1199.9591	1216.3343	1245.6789	1319.0893	1361.7247	1371.7895	1394.3752	1397.91	1401.7528	1475.2559	1477.7634	1483.8155	1484.1916	1490.545	1496.7889	1501.4242	1503.4939	1512.4444	1512.7459	2951.1863	2965.3056	2977.1142	2977.1788	3026.1316	3026.2915	3044.07	3044.6071	3107.6488	3107.8074	3110.8596	3111.6189	3141.6272	3141.8876
COC(C)C(C)OC	CO[C@@H](C)[C@@H](C)OC	
InChI=1S/C6H14O2/c1-5(7-3)6(2)8-4/h5-6H,1-4H3	InChI=1S/C6H14O2/c1-5(7-3)6(2)8-4/h5-6H,1-4H3/t5-,6+
