17
gdb 86919	3.76519	0.93635	0.81901	5.2175	71.11	-0.2552	-0.0454	0.2099	1396.8616	0.133183	-458.990334	-458.981003	-458.980059	-459.025749	32.181	
C	-1.0229354943	 1.1419928163	 0.1848776828	-0.405571
C	-0.0038826604	 0.0246306653	 0.0110906433	-0.099373
C	 0.8703000437	-0.058000042	-1.2860743523	-0.28642
C	 2.1203383715	-0.3856614031	-0.432559451	 0.021308
O	 3.3004636013	 0.3119854258	-0.7876579924	-0.193406
C	 4.3786643178	 0.1390670658	 0.0152932665	 0.176415
O	 5.4085003267	 0.7081907416	-0.1779524759	-0.267843
C	 1.3200482829	 0.1339706342	 0.7850842234	 0.367214
O	 1.6530059458	 0.6243106977	 1.8233407904	-0.290021
H	-0.5717320604	 2.1181160403	-0.0177826482	 0.131298
H	-1.8704278144	 1.0092512076	-0.4942455054	 0.12675
H	-1.4046895646	 1.156292491	 1.2096738613	 0.140596
H	-0.4616313935	-0.9505688538	 0.2202929135	 0.111499
H	 0.585647841	-0.7951463824	-2.0362610727	 0.121245
H	 0.9836355624	 0.9220050575	-1.7553989273	 0.13829
H	 2.3029929875	-1.4656693614	-0.3631008001	 0.11563
H	 4.1959482769	-0.5750828705	 0.838182924	 0.092388
43.8847	63.7912	114.3067	174.7367	189.5834	199.2967	256.8404	330.9847	384.9029	477.4027	562.7689	668.7836	693.9183	786.6079	847.0853	919.5768	948.6842	965.6399	1034.2199	1055.1711	1081.2133	1118.2632	1132.8114	1161.7298	1179.7012	1223.7769	1254.1145	1259.3087	1334.0999	1366.5032	1408.376	1436.3461	1484.6089	1493.4778	1494.3239	1869.0677	1894.1516	2981.0555	3028.1311	3035.7729	3041.4939	3083.7709	3112.9735	3118.3167	3149.2081
CC1CC(OC=O)C1=O	C[C@H]1C[C@@H](OC=O)C1=O	
InChI=1S/C6H8O3/c1-4-2-5(6(4)8)9-3-7/h3-5H,2H2,1H3	InChI=1S/C6H8O3/c1-4-2-5(6(4)8)9-3-7/h3-5H,2H2,1H3/t4-,5+/m0/s1
