20
gdb 84928	2.14071	1.70554	1.18009	2.5137	82.15	-0.2485	0.011	0.2595	1128.0224	0.172185	-403.159969	-403.151191	-403.150246	-403.194016	32.963	
C	-0.6549222135	 1.3126345119	 0.1631196202	-0.390943
C	 0.0004441139	-0.0784695942	-0.033969193	-0.064915
C	 0.6882251821	-0.1311310672	-1.3820760609	-0.07703
C	 1.938105223	 0.1781631775	-1.7273901225	-0.063365
C	 3.0693270062	 0.6283969938	-0.8380625834	-0.253035
C	 3.1088574589	-0.0035039476	 0.5477964581	-0.092183
O	 1.9858051199	 0.3301413756	 1.3722681715	-0.264985
C	 0.8401733862	-0.411855244	 1.1790557174	 0.343547
N	 0.4292510921	-1.2459656957	 2.0369865606	-0.47692
H	 0.1114990925	 2.0865284455	 0.2544554983	 0.130338
H	-1.2903282601	 1.5572239314	-0.693005498	 0.116803
H	-1.270803843	 1.3208593793	 1.0670404791	 0.129597
H	-0.797203297	-0.8260378492	-0.0330792686	 0.107963
H	 0.0090311287	-0.4011122728	-2.1888671633	 0.09419
H	 2.1807140934	 0.1313169051	-2.7870048467	 0.089771
H	 4.0249600628	 0.3996710556	-1.3265716927	 0.106946
H	 3.0456585463	 1.7220595196	-0.7273199062	 0.123598
H	 3.1909010089	-1.0955957427	 0.4687661529	 0.108867
H	 3.9805188096	 0.3640062883	 1.096973538	 0.114
H	 1.0969451692	-1.2948303102	 2.8107278593	 0.217755
46.2327	67.6028	219.3904	225.2292	243.8219	283.1563	324.0742	387.4295	444.2038	523.1387	610.074	690.0883	705.9604	749.5561	806.0144	842.5628	865.814	945.1864	965.8756	978.1345	1006.6314	1015.6867	1063.3129	1081.1044	1082.4408	1106.6321	1158.6641	1238.9698	1263.1379	1308.9691	1317.7733	1329.6417	1364.628	1385.0592	1392.0575	1420.281	1433.7735	1465.666	1490.2638	1496.8351	1501.5743	1731.3808	1739.0685	3007.9935	3019.2943	3041.7205	3051.5696	3074.5159	3089.4232	3115.7551	3127.1947	3130.9223	3154.9972	3450.1899
CC1C=CCCOC1=N	C[C@H]1C=CCCO[C]1[NH]	
InChI=1S/C7H11NO/c1-6-4-2-3-5-9-7(6)8/h2,4,6,8H,3,5H2,1H3	InChI=1S/C7H11NO/c1-6-4-2-3-5-9-7(6)8/h2,4,6,8H,3,5H2,1H3/t6-/m0/s1
