19
gdb 121214	2.36759	1.24987	0.89806	2.1899	72.42	-0.2475	-0.0357	0.2118	1322.2823	0.156406	-460.139004	-460.129354	-460.12841	-460.174572	33.533	
C	-0.1452671931	 1.4572096914	-0.2585017477	-0.38783
C	-0.3194337302	-0.0246204224	-0.5349099093	-0.060516
O	-1.1934659338	-0.5626884306	 0.4598158935	-0.248363
C	-1.4263256482	-1.9274227307	 0.3337055645	 0.08163
C	-2.2538317016	-2.523041062	 1.4833101914	-0.106899
O	-3.2452608899	-3.041154886	 0.566960894	-0.286808
C	-2.6256700363	-2.402634633	-0.5619841002	-0.007238
C	-3.4776109226	-1.2853956762	-1.1325154658	 0.141159
O	-3.1748349293	-0.6486548082	-2.1089457565	-0.242029
H	 0.5353349831	 1.8997184588	-0.9917022027	 0.119584
H	-1.1067452139	 1.9735823195	-0.3242724231	 0.134716
H	 0.2669151592	 1.6185334607	 0.7416992578	 0.125278
H	-0.7458676245	-0.1881173516	-1.5328193992	 0.124272
H	 0.6480157512	-0.549854799	-0.4870666684	 0.089892
H	-0.4997819808	-2.4731428348	 0.111749089	 0.085068
H	-1.7839619506	-3.3166419109	 2.0727992401	 0.112969
H	-2.6638817426	-1.7554197928	 2.1500202133	 0.119529
H	-2.3735589355	-3.1122962654	-1.3596393135	 0.108192
H	-4.4153186306	-1.1002793668	-0.5629809373	 0.097393
62.2509	69.9209	100.8894	135.1503	175.4542	194.3533	254.3846	303.6511	365.618	416.8228	493.792	584.3011	764.3334	819.4575	829.8761	892.9841	921.6941	968.7062	1009.8835	1046.5594	1060.0137	1075.8373	1102.7957	1152.4003	1159.6384	1185.5909	1190.1364	1232.1245	1268.2783	1305.4015	1309.901	1338.9989	1373.3392	1394.1292	1406.9419	1451.3339	1484.2147	1501.0384	1515.2995	1526.2215	1824.4702	2894.6267	2977.6391	3013.4827	3030.9425	3040.1729	3045.8844	3047.9203	3088.0413	3121.653	3125.7836
CCOC1COC1C=O	CCO[C@H]1CO[C@H]1C=O	
InChI=1S/C6H10O3/c1-2-8-6-4-9-5(6)3-7/h3,5-6H,2,4H2,1H3	InChI=1S/C6H10O3/c1-2-8-6-4-9-5(6)3-7/h3,5-6H,2,4H2,1H3/t5-,6-/m0/s1
