16
gdb 47831	2.57215	1.78177	1.17557	4.7539	65.48	-0.2575	-0.0084	0.2491	1011.9203	0.126364	-475.014635	-475.007272	-475.006328	-475.047043	27.641	
O	 0.0453861655	 0.0965197735	 0.8618700608	-0.321449
C	-0.0466236865	 1.0107889501	 0.0881411356	 0.432603
O	-1.2742637819	 1.4651123824	-0.2629854111	-0.221187
C	-1.5347393908	 2.0696340869	-1.5289679204	 0.013206
O	-1.0099603865	 3.3405917787	-1.6926882161	-0.207543
C	 0.2775465759	 3.3785086028	-2.2747808052	-0.108366
C	 1.3719841486	 2.7941329194	-1.4112058232	-0.049048
N	 1.3602592732	 3.1203589374	 0.0042662459	-0.309918
C	 1.1994021043	 1.7033310995	-0.4033302966	-0.156681
H	-1.1956457206	 1.3931357058	-2.3281243786	 0.099652
H	-2.6216445188	 2.1600003918	-1.5473015707	 0.136027
H	 0.2736761	 2.8594202349	-3.2469631532	 0.102069
H	 0.4896770365	 4.4362391807	-2.459635687	 0.127904
H	 2.3340814736	 2.771986445	-1.9259052663	 0.097225
H	 2.2967579058	 3.2706568709	 0.3681946699	 0.246837
H	 2.0529742017	 1.0477980302	-0.2555480239	 0.118668
55.0571	152.8771	237.5962	284.0621	328.1343	406.7082	458.8462	479.8427	654.366	699.8116	725.7951	778.7867	793.8622	896.3392	936.3326	955.6285	1016.2789	1033.9046	1054.5332	1084.816	1135.3855	1164.3909	1192.3937	1206.2492	1255.0272	1299.5063	1312.6084	1346.0679	1396.6033	1417.6389	1457.6241	1474.6545	1488.3	1510.0454	1830.2476	2980.1046	2991.5032	3082.3353	3096.1468	3125.5989	3154.7932	3516.6668
O=C1OCOCC2NC12	O=C1OCOC[C@H]2N[C@@H]12	
InChI=1S/C5H7NO3/c7-5-4-3(6-4)1-8-2-9-5/h3-4,6H,1-2H2	InChI=1S/C5H7NO3/c7-5-4-3(6-4)1-8-2-9-5/h3-4,6H,1-2H2/t3-,4-/m1/s1
