23
gdb 81453	2.82039	1.50999	1.37881	0.0942	87.85	-0.2507	0.0891	0.3398	1090.124	0.209135	-351.1446	-351.136945	-351.136	-351.176028	32.509	
C	-0.0305456305	 1.5647953152	 0.0052813441	-0.426756
C	 0.0133777617	 0.0390898038	-0.0392660804	 0.039489
C	 1.1698752104	-0.5747441182	-0.882064463	-0.000379
C	 2.0481918327	-0.5100329375	 0.4032891768	-0.230462
C	 0.7056334154	-0.6266055304	 1.1913071018	-0.03055
C	 0.3912749223	-2.1138686982	 1.3061235627	-0.017632
C	-0.8437282026	-2.7397380803	 0.7117667365	-0.314408
C	 0.4842475471	-2.869883839	-0.0040447217	-0.01393
C	 0.8483107392	-2.0387333317	-1.2411392431	-0.24236
H	 0.9411422094	 2.0056762117	 0.2484945259	 0.114976
H	-0.3442907445	 1.9719608711	-0.9624882951	 0.110868
H	-0.7467729666	 1.91106297	 0.7589557565	 0.112101
H	-0.9886153408	-0.3221599363	-0.2881143405	 0.05575
H	 1.5057709761	-0.0191035265	-1.7628474819	 0.049835
H	 2.7846516095	-1.3037167526	 0.558133746	 0.08603
H	 2.5353185625	 0.4593150097	 0.5237939871	 0.093932
H	 0.6116296663	-0.1127512788	 2.1523526316	 0.052488
H	 0.8045133737	-2.589856771	 2.1915848971	 0.077728
H	-1.2313711419	-3.6306522964	 1.1952767635	 0.10237
H	-1.61620159	-2.1097937064	 0.2864556019	 0.113843
H	 0.9271354668	-3.8603276146	 0.0234810732	 0.079476
H	 0.0470024562	-2.0699263616	-1.9915525952	 0.09338
H	 1.7308501276	-2.486568612	-1.7136656339	 0.09421
199.7977	203.7209	235.7149	275.9966	302.0225	399.5755	425.8864	462.8148	515.3546	638.2615	736.3578	791.004	807.4145	823.615	845.8257	865.1385	883.9544	900.0614	937.6635	962.9809	996.104	1014.2813	1043.0229	1056.8523	1068.4267	1091.1989	1108.8158	1115.9377	1124.8696	1136.3348	1151.9482	1158.165	1214.5693	1228.3933	1247.0206	1272.2268	1292.5163	1299.4175	1311.434	1351.081	1369.9786	1391.834	1406.294	1411.1678	1481.7643	1490.9118	1494.6017	1499.214	1505.3474	3011.7129	3027.3495	3048.6796	3052.1253	3052.6925	3057.079	3065.4043	3088.1458	3102.5932	3117.4608	3130.5157	3135.0298	3151.0639	3212.7161
CC1C2CC1C1CC1C2	C[C@H]1[C@H]2C[C@@H]1[C@H]1C[C@H]1C2	
InChI=1S/C9H14/c1-5-6-2-7-4-9(7)8(5)3-6/h5-9H,2-4H2,1H3	InChI=1S/C9H14/c1-5-6-2-7-4-9(7)8(5)3-6/h5-9H,2-4H2,1H3/t5-,6+,7+,8-,9-/m0/s1
