15
gdb 44099	3.96682	1.45371	1.2157	2.4139	64.71	-0.2709	-0.0077	0.2633	979.4269	0.113324	-457.735276	-457.7286	-457.727656	-457.766428	26.052	
O	-0.0286985893	 0.0569515708	-0.0668781854	-0.304757
C	 0.0392330269	 1.2391650882	-0.017310518	 0.419318
O	-1.0247377767	 2.1384411585	 0.0943215261	-0.285842
C	-0.114106712	 3.2395225168	 0.1895357667	 0.410662
C	-0.2174134671	 4.6781141797	-0.2550814068	-0.17633
O	 0.69571524	 5.0291669035	 0.826878025	-0.292822
C	 0.5223215022	 3.7503282377	 1.4993096454	 0.053985
C	 1.7198291587	 2.785367661	 1.329059649	-0.268989
C	 1.1104641825	 2.3374627191	-0.0436957166	-0.276364
H	 0.1749411899	 4.9477916176	-1.2406015582	 0.121188
H	-1.2070598104	 5.1298313349	-0.108610013	 0.123153
H	 0.0173173288	 3.8468278883	 2.4629191889	 0.094675
H	 2.6805291232	 3.2942410984	 1.2379831122	 0.134492
H	 1.7941127958	 1.9982542619	 2.0826821651	 0.129431
H	 1.7282787274	 2.3644715837	-0.9401719104	 0.118198
117.4202	194.1444	285.2827	328.8709	404.1022	461.3102	496.3874	661.9875	725.5357	754.6346	788.1665	823.4121	904.3935	924.4265	954.4086	967.7475	987.3945	1010.9767	1049.3693	1091.4872	1112.9258	1132.6825	1153.9798	1199.4445	1236.8681	1251.5947	1270.7166	1301.8058	1315.4708	1366.8198	1459.209	1518.3268	1946.7788	3021.156	3075.9698	3084.6372	3092.1327	3130.3357	3141.3768
O=C1OC23COC2CC13	O=C1O[C@@]23CO[C@@H]2C[C@@H]13	
InChI=1S/C6H6O3/c7-5-3-1-4-6(3,9-5)2-8-4/h3-4H,1-2H2	InChI=1S/C6H6O3/c7-5-3-1-4-6(3,9-5)2-8-4/h3-4H,1-2H2/t3-,4+,6+/m0/s1
