21
gdb 65530	2.7541	1.53023	1.29716	0.6965	87.65	-0.2525	0.0593	0.3118	1081.3237	0.183354	-349.916322	-349.908125	-349.90718	-349.948384	33.76	
C	-0.0828684011	 1.534502769	-0.0062262175	-0.453021
C	 0.0270990279	-0.0018406779	 0.0145189712	 0.136612
C	 0.9948043966	-0.5791689743	-1.1001184336	-0.260024
C	 2.0130461202	-1.3127932956	-0.206381626	-0.008712
C	 1.0922164871	-2.0217200683	 0.8289477377	-0.233479
C	 0.792172349	-0.5574108933	 1.2588309546	-0.028446
C	 2.2811350663	-0.2666871096	 0.9106216058	-0.239674
C	-1.3180982674	-0.5676361931	-0.0769245481	 0.298769
C	-2.4346157105	-1.0104446627	-0.1472016603	-0.473508
H	 0.9012303995	 2.0050553772	 0.0637977727	 0.114328
H	-0.55501262	 1.8716780893	-0.9336269111	 0.124505
H	-0.6948867755	 1.8887394238	 0.8288677253	 0.122417
H	 0.4725668293	-1.2488900385	-1.7866721576	 0.109303
H	 1.4509987209	 0.2250907642	-1.6854958428	 0.096499
H	 2.8247510336	-1.8367831046	-0.7121423548	 0.058294
H	 0.260795495	-2.6269602883	 0.4603547717	 0.104624
H	 1.6570305676	-2.5698660964	 1.5862503321	 0.094215
H	 0.3594642258	-0.3125031139	 2.2292189526	 0.064453
H	 2.9581147327	-0.6410652696	 1.681987893	 0.09679
H	 2.5761594749	 0.7448171796	 0.6205313716	 0.088699
H	-3.4180892218	-1.4052701072	-0.2116281765	 0.187357
140.8786	150.1115	214.0884	249.7727	288.2613	409.8637	440.0896	472.3569	509.2941	550.632	599.3695	615.9477	626.262	722.3537	814.5026	847.6748	852.345	863.6532	906.3878	925.601	945.8303	957.5539	1015.6888	1028.9787	1035.8435	1070.3685	1082.2722	1087.226	1151.455	1170.901	1177.1477	1228.3124	1237.2013	1244.2444	1270.9832	1289.0839	1299.5644	1329.7717	1407.263	1485.5251	1488.5791	1495.911	1499.4719	1527.9435	2226.5447	3041.0405	3054.521	3061.3647	3066.3147	3106.3723	3109.7531	3111.379	3112.9913	3115.4094	3122.7769	3125.9788	3502.0146
CC1(CC2CC1C2)C#C	C[C@]1(C[C@@H]2C[C@H]1C2)C#C	
InChI=1S/C9H12/c1-3-9(2)6-7-4-8(9)5-7/h1,7-8H,4-6H2,2H3	InChI=1S/C9H12/c1-3-9(2)6-7-4-8(9)5-7/h1,7-8H,4-6H2,2H3/t7-,8+,9-/m1/s1
