23
gdb 116505	2.75424	1.12777	0.88535	0.7442	82.24	-0.2366	0.0817	0.3183	1396.4261	0.206717	-425.417352	-425.407803	-425.406859	-425.452276	35.336	
C	-0.241572101	 1.3566721369	 0.0924920312	-0.239376
O	-0.0237510752	-0.0347476022	 0.0395734479	-0.243225
C	 0.7080557685	-0.4833864956	-1.0980255515	 0.107254
C	 1.3949908056	-1.790607084	-0.6916281794	-0.215385
C	 2.5925710434	-2.2257377327	-1.5576267787	-0.208814
C	 2.4473222699	-2.0760354422	-3.0906056777	-0.195811
C	 1.0248484218	-2.1387737147	-3.6579254535	-0.068359
O	 0.3296899049	-0.908493364	-3.5251867665	-0.244017
C	-0.2726426193	-0.6707527195	-2.2725954231	-0.088585
H	 0.7076178518	 1.9149230076	 0.1013706887	 0.105278
H	-0.8480728926	 1.7290293361	-0.7461619948	 0.107401
H	-0.7787658916	 1.5619323237	 1.0220730267	 0.126884
H	 1.4626516259	 0.2705518306	-1.3771101858	 0.06645
H	 1.7313953243	-1.6739853111	 0.3434149133	 0.104801
H	 0.6342534605	-2.5809859059	-0.6723571088	 0.099102
H	 3.4813802671	-1.6665047424	-1.24314647	 0.101041
H	 2.8046865642	-3.2734777197	-1.3156800089	 0.099463
H	 2.8592045112	-1.1139743178	-3.4161980853	 0.108929
H	 3.0536804893	-2.847470938	-3.5803747597	 0.093891
H	 1.0765685381	-2.3237214561	-4.7361009056	 0.103769
H	 0.4437848228	-2.9615699743	-3.2105506724	 0.086653
H	-0.9688332515	-1.4840990163	-2.0075676615	 0.090625
H	-0.863231748	 0.2406791315	-2.4046450547	 0.102031
55.1053	82.3805	128.4143	173.5997	190.7556	267.7424	316.7297	332.414	396.387	424.4838	475.358	530.673	543.1026	752.5032	801.0625	870.0118	906.8398	919.7455	969.1089	1003.4274	1015.9805	1043.5029	1089.7521	1118.1252	1134.7892	1141.7402	1169.5058	1183.2923	1212.2382	1227.3125	1250.7377	1275.052	1296.9237	1333.541	1344.3967	1347.4019	1377.2728	1385.4118	1393.406	1411.3975	1425.6501	1476.7181	1479.4302	1483.2168	1491.334	1494.0285	1499.5945	1509.6983	1510.4666	2962.7094	2973.1398	2977.1706	2979.45	3023.7604	3024.1262	3026.9624	3036.4429	3053.938	3067.9767	3074.9132	3081.6102	3084.2555	3110.0502
COC1CCCCOC1	CO[C@H]1CCCCOC1	
InChI=1S/C7H14O2/c1-8-7-4-2-3-5-9-6-7/h7H,2-6H2,1H3	InChI=1S/C7H14O2/c1-8-7-4-2-3-5-9-6-7/h7H,2-6H2,1H3/t7-/m0/s1
