16
gdb 49139	4.55382	0.88656	0.78115	2.2378	78.44	-0.2668	-0.0757	0.1912	1388.4579	0.124786	-400.791143	-400.782922	-400.781978	-400.824616	29.57	
O	-0.1331956127	-0.0585597989	 0.2068491595	-0.258854
C	-0.0281657321	 1.110269703	-0.0880806107	 0.07648
C	 1.2375015302	 1.8541462571	-0.02735412	 0.231894
C	 1.3596410827	 3.1570790808	-0.3074224808	-0.152276
C	 2.78268892	 3.639405626	-0.0906317044	-0.177728
C	 3.5905191237	 2.3049779022	-0.0023951199	-0.235928
C	 2.5475562598	 1.2362295078	 0.4033952176	-0.319699
C	 3.263464078	 4.5544505757	-1.1257220315	 0.266218
N	 3.6424148788	 5.2730739216	-1.9475918345	-0.316849
H	-0.9035780835	 1.7029028212	-0.4325174387	 0.078875
H	 0.5590087558	 3.8212228998	-0.6123312442	 0.134734
H	 2.8317017986	 4.1825324912	 0.8649718658	 0.143904
H	 3.9952606738	 2.074972281	-0.9910909743	 0.137962
H	 4.4300520874	 2.3828780726	 0.6901784518	 0.125007
H	 2.5411434099	 1.0559823291	 1.4855262333	 0.128781
H	 2.7240642098	 0.2666716696	-0.0689805789	 0.13748
69.2828	120.6951	133.9697	201.4477	218.8863	317.0736	432.2618	439.2276	527.9903	560.8462	619.7852	718.7365	831.9415	847.8614	881.2331	901.1913	971.0194	1019.0848	1027.1036	1037.3311	1075.864	1153.3815	1187.1792	1235.5172	1272.8639	1280.442	1296.9001	1343.0941	1370.7554	1419.1838	1483.5892	1499.2611	1685.422	1789.063	2359.947	2894.9391	2999.8552	3038.5692	3076.1625	3099.0025	3130.015	3206.9643
O=CC1=CC(CC1)C#N	O=CC1=C[C@@H](CC1)C#N	
InChI=1S/C7H7NO/c8-4-6-1-2-7(3-6)5-9/h3,5-6H,1-2H2	InChI=1S/C7H7NO/c8-4-6-1-2-7(3-6)5-9/h3,5-6H,1-2H2/t6-/m1/s1
