23
gdb 63574	2.97833	1.25557	1.06583	0.1964	93.06	-0.2141	0.0299	0.244	1260.5394	0.205777	-351.165924	-351.156685	-351.155741	-351.199442	36.289	
C	 0.0185662575	 1.5139703884	-0.1874035233	-0.450693
C	-0.0055849068	 0.0008168799	-0.0644553885	 0.289254
C	-1.1758754577	-0.6382599353	-0.7908516829	-0.452511
C	 1.3147333574	-0.7302279867	-0.0555275112	-0.383767
C	 0.5036866415	-0.6228160595	 1.229985205	 0.310683
C	 0.9789056957	 0.2305017615	 2.4227666748	-0.296958
C	 0.935900667	-0.7161033915	 3.6538560333	-0.268879
C	 0.1199187388	-1.888848474	 3.165891118	-0.087327
C	-0.0981788956	-1.8350019989	 1.8519109242	-0.127271
H	 0.8902391645	 1.9545685359	 0.3033448178	 0.114791
H	 0.0463670863	 1.8116494432	-1.2423577845	 0.111451
H	-0.8776142759	 1.9642903536	 0.2566758262	 0.112984
H	-1.1788427813	-0.3399593699	-1.8461870168	 0.111446
H	-1.1369126173	-1.7300022705	-0.7616147414	 0.113017
H	-2.1332126418	-0.3257725968	-0.356920052	 0.113967
H	 1.3710022391	-1.6987550468	-0.5437156047	 0.102492
H	 2.2288414512	-0.1467684861	-0.1202022551	 0.102817
H	 1.9723992591	 0.6581480871	 2.2648664465	 0.09739
H	 0.2907780324	 1.0681508198	 2.5792194287	 0.104186
H	 1.9412600382	-1.042823411	 3.9542504226	 0.104985
H	 0.49946269	-0.230540909	 4.5343601799	 0.100854
H	-0.2037876816	-2.6910111904	 3.8196568737	 0.087894
H	-0.6256853105	-2.588853973	 1.2795653996	 0.089195
77.4026	148.8757	174.3962	202.5105	226.7698	265.4525	347.4755	372.2365	392.9686	431.9983	490.745	544.4534	672.1263	736.0274	768.3337	810.2453	842.5696	892.3272	907.9306	925.9376	944.3431	964.1081	969.5813	976.8893	1002.8417	1039.1252	1051.981	1066.5805	1121.5364	1147.7611	1167.7306	1191.2544	1214.4367	1249.8501	1296.0539	1302.6985	1329.1674	1359.1077	1408.4623	1410.7777	1425.675	1480.9873	1483.2995	1486.2123	1491.7414	1500.0843	1504.8319	1513.289	1679.4075	3008.6256	3019.4085	3024.2662	3038.8921	3053.2783	3074.4828	3078.5105	3090.4554	3110.1606	3110.354	3114.3945	3184.6547	3197.6147	3210.0248
CC1(C)CC11CCC=C1	CC1(C)C[C@]21CCC=C2	
InChI=1S/C9H14/c1-8(2)7-9(8)5-3-4-6-9/h3,5H,4,6-7H2,1-2H3	InChI=1S/C9H14/c1-8(2)7-9(8)5-3-4-6-9/h3,5H,4,6-7H2,1-2H3/t9-/m1/s1
