18
gdb 98451	3.08925	1.16728	1.03674	3.3493	68.52	-0.246	0.0044	0.2504	1216.0482	0.146356	-476.217031	-476.207423	-476.206479	-476.252832	33.501	
C	-0.2164890277	 1.330720228	-0.113480894	-0.243006
O	-0.1154897389	-0.1000300531	-0.1491859506	-0.24838
C	 0.7317381782	-0.5986248074	-1.0726359873	 0.457565
O	 1.3590139587	 0.0841142848	-1.840136255	-0.362735
C	 0.7203865282	-2.11994563	-1.0458058498	 0.104701
N	 0.7563462519	-2.5998564525	 0.3189656753	-0.570455
C	-0.3236698026	-2.6948503701	-2.0700294738	-0.107341
O	 0.720551268	-3.1712139033	-2.9275254597	-0.269296
C	 1.748931811	-2.7610425746	-2.0016849068	-0.091681
H	 0.7537965853	 1.7769241289	 0.1169362153	 0.147233
H	-0.5613042836	 1.7142915264	-1.0766863199	 0.145093
H	-0.9381431974	 1.557696256	 0.6710110809	 0.135561
H	 0.0308393859	-2.1537041015	 0.8696783328	 0.24214
H	 0.5975926241	-3.6022092897	 0.3453104427	 0.232514
H	-0.9309385501	-3.5073849436	-1.6454963644	 0.09179
H	-0.9827850238	-1.9773422026	-2.5740061379	 0.107747
H	 2.4631799908	-2.0685249816	-2.4542032537	 0.132049
H	 2.2755213422	-3.6151774741	-1.5576169041	 0.096501
28.8519	68.8826	108.2301	130.027	204.6954	258.5921	299.5317	324.4926	353.5654	369.5104	466.8045	559.3839	738.7268	779.6001	842.0667	853.0365	893.5283	957.8845	998.5537	1007.8301	1045.5413	1046.7527	1084.1598	1154.2944	1161.3914	1179.149	1203.2597	1222.5264	1275.4453	1300.1567	1368.4595	1394.4553	1473.0378	1480.667	1496.3715	1500.2093	1525.6051	1647.6128	1826.8607	2990.7561	3024.2225	3050.4772	3055.1257	3103.0945	3132.214	3162.3717	3503.3473	3591.6954
COC(=O)C1(N)COC1	COC(=O)C1(N)COC1	
InChI=1S/C5H9NO3/c1-8-4(7)5(6)2-9-3-5/h2-3,6H2,1H3	InChI=1S/C5H9NO3/c1-8-4(7)5(6)2-9-3-5/h2-3,6H2,1H3
