19
gdb 54788	3.04496	1.3629	1.22584	1.9465	74.33	-0.2399	-0.0234	0.2165	1096.4348	0.159534	-423.024103	-423.015929	-423.014985	-423.057841	30.891	
C	-1.3796202022	 0.7224029546	 0.516017879	-0.480957
C	-0.0541868854	 0.0390695103	 0.2272931398	 0.356693
O	 0.8886216498	 0.1337502825	 0.9827648123	-0.302834
C	-0.0002557243	-0.7546252612	-1.0606096352	-0.087448
C	 1.2492371699	-1.5199145742	-1.5615461911	 0.050182
C	 1.6636964623	-2.442215809	-0.3989837729	-0.213749
C	 0.2388421957	-2.9842479199	-0.0582956583	-0.224456
C	-0.5300534006	-2.2224832291	-1.1581425931	 0.057637
O	 0.3369479712	-2.3895431212	-2.3159609172	-0.298783
H	-1.5710494159	 1.4966413192	-0.2362241383	 0.144418
H	-2.2080573911	 0.0079804903	 0.4503733421	 0.138997
H	-1.3561565637	 1.1772583251	 1.506921675	 0.143805
H	-0.4450446979	-0.1840060265	-1.8804407409	 0.098578
H	 2.0186924401	-1.0483379789	-2.1713219574	 0.084755
H	 2.3332277349	-3.2265056741	-0.7573105737	 0.103596
H	 2.1313091608	-1.9005032773	 0.4217833012	 0.132395
H	 0.1466813269	-4.0632507259	-0.1955519727	 0.109574
H	-0.0916105966	-2.7299611743	 0.9523610923	 0.106181
H	-1.5782254441	-2.4570118405	-1.3444248109	 0.081416
29.0438	122.5126	154.6486	186.4718	310.7081	363.34	391.5084	525.3137	560.593	612.0915	733.1362	786.5155	833.2335	841.9977	861.8818	870.1266	922.7744	939.4355	948.5755	990.7521	1007.784	1016.8626	1046.303	1071.2981	1132.5159	1145.9356	1190.6014	1199.7092	1226.4274	1252.9737	1271.8081	1306.4886	1310.804	1340.5171	1373.0243	1388.1741	1461.8041	1474.9019	1477.0017	1498.4987	1799.9701	3033.9816	3068.7993	3080.0112	3086.3234	3094.414	3118.612	3122.9413	3135.0899	3152.1219	3157.0076
CC(=O)C1C2CCC1O2	CC(=O)[C@H]1[C@H]2CC[C@@H]1O2	
InChI=1S/C7H10O2/c1-4(8)7-5-2-3-6(7)9-5/h5-7H,2-3H2,1H3	InChI=1S/C7H10O2/c1-4(8)7-5-2-3-6(7)9-5/h5-7H,2-3H2,1H3/t5-,6+,7+
