17
gdb 28218	4.84232	1.19239	0.97432	3.9522	76.54	-0.2063	0.0272	0.2334	1189.3078	0.138144	-418.03952	-418.031544	-418.0306	-418.072505	29.043	
C	 0.0171011222	 1.4664078551	 0.028614367	-0.502899
C	 0.0057821804	-0.0243775671	-0.0316918442	 0.311174
N	-0.0446497842	-0.7523547984	-1.132993536	-0.37741
C	-0.03358466	-2.0488599913	-0.6864696251	 0.235196
C	 0.0225940891	-2.1166209556	 0.6648859702	 0.252734
C	 0.0345243583	-3.5238559125	 1.1473089319	-0.170381
O	-0.0211658112	-4.2738556862	-0.0786682306	-0.284551
C	-0.0654074762	-3.4305178426	-1.2524516937	-0.175935
N	 0.0485083231	-0.8154123626	 1.1018143903	-0.414194
H	 0.9245744747	 1.8511387533	 0.5087516491	 0.131266
H	-0.0228623976	 1.8530065128	-0.9902707521	 0.160847
H	-0.8429147944	 1.8615919431	 0.58202591	 0.131283
H	 0.9444312614	-3.8003454861	 1.7023446653	 0.107485
H	-0.8290288607	-3.7899276952	 1.7765353335	 0.107482
H	-0.9790102919	-3.6559505112	-1.8201353074	 0.11226
H	 0.7947993464	-3.6663668111	-1.8944570233	 0.112263
H	 0.0901659406	-0.4829477946	 2.0504085252	 0.263381
77.135	108.4815	132.6483	251.6924	267.9723	270.7489	480.3802	493.0769	531.0887	662.6538	691.1816	728.7198	747.7035	880.2214	882.5144	977.5518	1021.3094	1024.7964	1054.3407	1059.5981	1070.8796	1151.325	1154.7451	1209.3284	1216.2236	1314.9091	1335.594	1399.2046	1405.2127	1426.375	1482.0161	1486.8744	1494.3808	1522.9758	1532.5488	1559.7291	1633.7326	2972.0353	2988.085	2997.7195	3021.2776	3027.9404	3076.0442	3150.3341	3664.8596
CC1=NC2=C(COC2)N1	Cc1nc2c(COC2)[nH]1	
InChI=1S/C6H8N2O/c1-4-7-5-2-9-3-6(5)8-4/h2-3H2,1H3,(H,7,8)	InChI=1S/C6H8N2O/c1-4-7-5-2-9-3-6(5)8-4/h2-3H2,1H3,(H,7,8)
