19
gdb 107292	3.32382	1.29181	1.14115	2.5614	74.51	-0.2432	0.0611	0.3042	1125.0274	0.159869	-422.954789	-422.946875	-422.94593	-422.987395	30.89	
O	 0.1295725865	 1.3891465642	 0.1898356727	-0.412504
C	 0.0526869558	-0.0055374426	-0.0731587123	-0.181245
C	-1.357552433	-0.5134565921	-0.0636655893	 0.333419
C	-2.0728578234	-0.9542943522	 1.1850129309	-0.353705
C	-1.9151681225	-1.9455140682	 0.0636666991	-0.14258
C	-2.8994905039	-1.6933826603	-1.1024781298	-0.066333
C	-4.2684789975	-1.0560283826	-0.7923112793	-0.109287
O	-3.6845795813	 0.2751877871	-0.7792748057	-0.29832
C	-2.3933056694	-0.2429636244	-1.1839725555	 0.048439
H	-0.375787224	 1.5574008283	 0.9924320756	 0.28399
H	 0.5075908495	-0.137047598	-1.0620133416	 0.106959
H	 0.6573627578	-0.5894749853	 0.6411111243	 0.083008
H	-1.4266837997	-1.1419495388	 2.0378826915	 0.111251
H	-3.036467164	-0.5269535828	 1.4384069538	 0.133638
H	-1.3665358134	-2.868719936	 0.2083896283	 0.092342
H	-2.8250024749	-2.3871715567	-1.9378376445	 0.081646
H	-5.0026651377	-1.1541382573	-1.6014025507	 0.103712
H	-4.7453302331	-1.3133115241	 0.1606527324	 0.103509
H	-2.0060853918	 0.2327689419	-2.0881793297	 0.082062
78.0436	115.7046	227.286	260.4359	327.8186	342.8365	385.7667	449.655	527.7897	668.1405	721.5378	805.1215	831.6831	857.6134	898.0477	916.504	920.2695	969.9861	973.883	988.4037	1003.8315	1022.9154	1052.6275	1067.6132	1083.138	1114.9866	1157.9163	1179.16	1195.2382	1212.8411	1243.8077	1274.3017	1297.9974	1308.1099	1353.5569	1362.0377	1397.4717	1429.5402	1490.0187	1505.1092	1519.8831	2962.4231	3017.1018	3053.7921	3063.121	3083.0222	3127.427	3128.8682	3179.5648	3212.5479	3808.0241
OCC12CC1C1COC21	OC[C@]12C[C@H]1[C@H]1CO[C@@H]21	
InChI=1S/C7H10O2/c8-3-7-1-5(7)4-2-9-6(4)7/h4-6,8H,1-3H2	InChI=1S/C7H10O2/c8-3-7-1-5(7)4-2-9-6(4)7/h4-6,8H,1-3H2/t4-,5+,6-,7-/m1/s1
