15
gdb 131518	3.06594	1.60398	1.15844	3.2442	67.58	-0.256	-0.045	0.2111	1009.9672	0.113241	-453.91986	-453.912285	-453.911341	-453.952172	27.992	
O	-0.3591960158	 1.4447440946	-0.3235568016	-0.420693
C	 0.0556331104	 0.1250957674	 0.0050262995	-0.029548
C	-1.2115919702	-0.7733340088	 0.1611986332	-0.217895
C	-1.4075191754	-1.6157796759	-1.1498955024	-0.348424
C	-0.0579923999	-1.4660371134	-1.772028321	 0.236609
C	 0.7342671701	-0.5570926639	-1.1513710648	 0.364096
O	 1.8866042977	-0.4221388892	-1.7512976698	-0.268533
N	 1.772913451	-1.4166322363	-2.9294722406	-0.036403
N	 0.6487828076	-1.9373992528	-2.8447025403	-0.181646
H	 0.4268097385	 1.9801496137	-0.4783437004	 0.295027
H	 0.6642628748	 0.1278301545	 0.9185678787	 0.093825
H	-1.0627635923	-1.449428137	 1.0067116648	 0.120864
H	-2.0715302941	-0.1401892097	 0.386464626	 0.131875
H	-1.6786064012	-2.650418535	-0.9227030207	 0.126977
H	-2.1993264113	-1.2044672184	-1.7850025207	 0.133868
81.1056	145.6937	226.8516	243.3414	300.5304	337.721	427.4226	475.5489	606.0735	667.2494	704.841	728.9692	789.0663	838.573	907.9508	970.2924	984.1884	999.4945	1083.7415	1135.1625	1180.8743	1223.5892	1240.1049	1274.7767	1315.2013	1333.7798	1369.0601	1400.8421	1452.6252	1475.8291	1490.3631	1504.9522	1614.6601	3017.6063	3050.4279	3075.5509	3090.9579	3132.0294	3809.8704
OC1CCC2=C1ON=N2	O[C@H]1CCc2c1onn2	
InChI=1S/C5H6N2O2/c8-4-2-1-3-5(4)9-7-6-3/h4,8H,1-2H2	InChI=1S/C5H6N2O2/c8-4-2-1-3-5(4)9-7-6-3/h4,8H,1-2H2/t4-/m0/s1
