19
gdb 114862	4.38135	0.98741	0.8744	1.6857	78.59	-0.2354	0.0075	0.2429	1329.7944	0.159789	-422.982385	-422.974145	-422.973201	-423.015426	31.358	
O	-0.0837270985	 1.4859821545	-0.0259692958	-0.421899
C	 0.0267741751	 0.0705344767	-0.0376099287	-0.089761
C	-1.3795299377	-0.5105993053	 0.0622354362	-0.005523
C	-1.3954297419	-2.0785959119	-0.007802495	-0.288043
C	-2.6236863332	-2.4380167235	 0.840676348	 0.108278
O	-2.5422479479	-3.3238955922	 2.014498501	-0.309266
C	-3.0577630191	-2.2622851679	 2.8783342434	-0.155497
C	-2.7558679273	-1.2812738931	 1.7738881617	 0.183708
C	-2.0333668339	-0.227062763	 1.4186579679	-0.203157
H	 0.8022943672	 1.8595244895	-0.0325106968	 0.288111
H	 0.5061080293	-0.2865314467	-0.9635997947	 0.088609
H	 0.6323054359	-0.2909303811	 0.8096855548	 0.086463
H	-1.9602442727	-0.0823600825	-0.7666210528	 0.091546
H	-1.4233037982	-2.4641874765	-1.0307596789	 0.097636
H	-0.4993602224	-2.4713504688	 0.4867655689	 0.114807
H	-3.4986845386	-2.719711855	 0.2395576192	 0.07863
H	-4.1193346028	-2.4247637745	 3.1076698523	 0.106627
H	-2.4918338996	-2.160360794	 3.8102158907	 0.118788
H	-1.8019833737	 0.6607710853	 1.9934424687	 0.109943
79.6751	121.8402	196.1804	226.1352	267.1481	313.7733	344.877	449.748	464.24	597.4198	644.2063	763.2126	835.0132	855.3711	868.5122	906.8202	925.1227	959.3497	992.5544	1009.223	1051.2732	1059.0496	1081.8883	1092.9828	1136.1841	1141.2321	1171.8204	1219.2339	1238.1753	1243.5073	1269.9953	1297.3186	1304.7713	1337.6989	1355.5036	1363.5362	1453.9482	1477.5109	1510.0161	1519.305	1745.7061	2960.1599	2988.1254	3006.5496	3013.2142	3014.1117	3044.04	3073.5456	3100.9226	3216.8375	3830.5392
OCC1CC2OCC2=C1	OC[C@H]1C[C@H]2OC[C]2[CH]1	
InChI=1S/C7H10O2/c8-3-5-1-6-4-9-7(6)2-5/h1,5,7-8H,2-4H2	InChI=1S/C7H10O2/c8-3-5-1-6-4-9-7(6)2-5/h1,5,7-8H,2-4H2/t5-,7-/m1/s1
