17
gdb 34176	4.38606	1.44503	1.29614	1.0165	81.86	-0.2272	0.0469	0.2741	987.5324	0.136904	-347.47773	-347.470979	-347.470035	-347.508498	28.562	
C	 0.0921720181	-1.1215120443	-0.0191347483	-0.371186
C	 0.033562871	 0.0806765952	-0.0207042763	 0.114479
C	-0.0468752458	 1.5066192321	-0.0311335834	 0.225935
C	-1.113968467	 2.2436990293	-0.8312171498	-0.304025
C	-0.7320783577	 3.6660928557	-0.4835001744	-0.0885
C	-0.1629442569	 3.7456346682	 0.920771622	-0.094317
C	 0.7661953392	 3.7894412021	-0.2780916976	-0.094253
C	 1.2345988812	 2.3495190558	 0.0391282121	-0.125229
C	 0.3124564821	 2.306164328	 1.2295156	-0.125179
H	 0.1443609113	-2.1816748116	-0.0172179378	 0.178052
H	-1.0340179159	 2.0334319666	-1.902846398	 0.109256
H	-2.123393573	 1.9822230828	-0.4970265238	 0.109254
H	-1.2796179786	 4.514314651	-0.8769205845	 0.088362
H	-0.4054273783	 4.513782617	 1.6416405594	 0.090564
H	 1.3758928806	 4.5977673392	-0.6567444288	 0.09057
H	 2.2210785308	 1.9286025279	-0.092995866	 0.098106
H	 0.4466447888	 1.8451791951	 2.1976349953	 0.098112
149.6701	150.0649	377.5768	485.4162	488.2229	506.7345	554.7482	578.2138	648.2074	705.5271	723.6711	744.9146	765.287	806.7414	830.5422	858.0297	905.5634	940.3088	946.9415	973.6619	981.0205	1019.0689	1019.1557	1038.2983	1073.7631	1087.3595	1138.3533	1182.4164	1207.0419	1208.9064	1262.816	1278.3607	1307.5358	1342.0409	1392.0054	1492.9045	2234.6063	3046.3736	3090.6778	3188.2607	3202.6856	3214.7019	3214.9354	3225.4408	3505.0508
C#CC12CC3C4C3C1C24	C#C[C@]12C[C@H]3[C@@H]4[C@H]3[C@H]1[C@H]24	
InChI=1S/C9H8/c1-2-9-3-4-5-6(4)8(9)7(5)9/h1,4-8H,3H2	InChI=1S/C9H8/c1-2-9-3-4-5-6(4)8(9)7(5)9/h1,4-8H,3H2/t4-,5+,6-,7+,8-,9+
