17
gdb 97989	2.94945	0.61194	0.53283	4.7327	78.34	-0.2574	0.0106	0.2679	1988.4491	0.134844	-417.963959	-417.953692	-417.952747	-418.001709	34.478	
O	-0.3066862305	 0.2325760472	-1.4875689417	-0.398409
C	-0.2842465684	-0.1980498358	-0.1349724026	-0.195371
C	-1.5933664215	-0.6153613913	 0.3691131745	 0.044853
C	-2.6924822343	-0.9104453919	 0.7688717165	 0.058369
C	-4.0115553226	-1.3478464098	 1.2425733398	-0.319484
N	-4.3532793565	-2.7468951253	 0.9626018032	-0.275887
C	-4.3600370646	-3.0543828467	-0.4669023833	-0.265908
C	-4.6771520757	-4.4662538414	-0.6914568465	 0.260094
N	-4.9050482288	-5.5840656537	-0.8714771348	-0.297242
H	-0.9629676609	 0.9336973415	-1.5580333508	 0.28865
H	 0.4151064079	-1.0407397583	-0.1031576757	 0.145178
H	 0.1271638677	 0.5781637816	 0.5298227102	 0.123084
H	-4.0820965348	-1.2026593443	 2.326226155	 0.146195
H	-4.790336632	-0.7139620888	 0.79884069	 0.141807
H	-3.6868786214	-3.3545030882	 1.4294372959	 0.238937
H	-5.1333746458	-2.444838008	-0.9512726955	 0.155124
H	-3.4099291877	-2.8267718967	-0.9788424642	 0.15001
23.5001	45.6866	76.5198	125.5705	155.1381	185.4981	249.1983	319.7941	342.6554	378.3904	393.7624	494.558	548.8484	607.3276	742.0478	808.4513	903.139	968.8754	982.9652	996.9329	1045.5588	1101.2667	1122.4469	1143.4076	1214.9968	1230.0335	1301.1023	1355.6246	1363.0106	1386.6206	1417.1523	1461.0468	1488.4241	1492.2272	1502.3664	2347.1651	2369.2241	2971.3808	2979.8195	3027.3212	3048.6142	3065.6319	3069.0593	3520.9781	3816.3494
OCC#CCNCC#N	OCC#CCNCC#N	
InChI=1S/C6H8N2O/c7-3-5-8-4-1-2-6-9/h8-9H,4-6H2	InChI=1S/C6H8N2O/c7-3-5-8-4-1-2-6-9/h8-9H,4-6H2
