17
gdb 123869	5.09317	1.09504	0.92725	4.2797	77.57	-0.2032	0.0158	0.219	1233.0432	0.137846	-417.982314	-417.974708	-417.973764	-418.015184	27.998	
C	-0.1364147157	 1.5671144843	 0.0121754694	-0.23598
C	 1.3902428487	 1.5151092636	-0.2694603309	-0.170654
N	 1.4032134427	 0.1469879231	 0.2810107962	-0.166193
C	-0.0634100384	 0.0477251824	 0.3257200598	-0.170536
C	 2.2448054028	-0.8509800747	-0.0912857156	 0.524141
C	 2.1439955646	-2.2199720697	-0.0668119472	-0.391239
C	 3.404566991	-2.6318902005	-0.5617008686	 0.049316
N	 4.200422159	-1.6372713994	-0.8662724705	-0.164785
O	 3.4452755503	-0.4777601845	-0.5609849261	-0.228455
H	-0.4002076349	 2.1773496188	 0.8767349648	 0.122718
H	-0.7658647905	 1.8476281431	-0.8316456323	 0.120566
H	 1.6554639829	 1.5521336504	-1.3326182877	 0.122602
H	 2.0216419817	 2.2207454158	 0.2770549522	 0.125666
H	-0.4616348305	-0.2796212752	 1.2911447647	 0.119284
H	-0.4730138334	-0.5946248157	-0.4652428297	 0.112333
H	 1.3152071839	-2.822921911	 0.2602724808	 0.106713
H	 3.7636671857	-3.6414852507	-0.7111771892	 0.124503
82.8065	89.2802	156.3174	165.5352	311.2428	443.463	489.197	625.2029	716.1813	731.5488	756.3847	847.3874	863.13	886.3118	919.1749	930.0409	938.7379	943.1473	995.3958	1056.3973	1100.6497	1133.1187	1142.154	1149.411	1204.0076	1224.1704	1238.1327	1270.4317	1296.0957	1340.9344	1362.4858	1387.2092	1491.3866	1510.7198	1532.838	1556.5608	1647.0484	3012.6323	3034.5295	3071.3432	3087.5707	3096.4128	3151.7778	3232.343	3286.5539
C1CN(C1)C1=CC=NO1	C1CN(C1)c1ccno1	
InChI=1S/C6H8N2O/c1-4-8(5-1)6-2-3-7-9-6/h2-3H,1,4-5H2	InChI=1S/C6H8N2O/c1-4-8(5-1)6-2-3-7-9-6/h2-3H,1,4-5H2
