24
gdb 8949	3.68315	1.05967	0.87925	1.3573	81.97	-0.2603	0.0736	0.3339	1420.1394	0.221044	-351.419173	-351.408367	-351.407423	-351.45485	39.25	
C	-0.2076044393	 1.5442847383	 0.0319380894	-0.39184
C	 0.0565613193	 0.0354470154	 0.0152969605	-0.170224
C	 0.8040878828	-0.4723712079	-1.2348910093	 0.026092
C	 2.2706307352	-0.0139974904	-1.238521621	-0.406449
C	 0.668847871	-2.0084870575	-1.3530917062	 0.134778
O	-0.7069429971	-2.3998321808	-1.3471843259	-0.429116
C	 1.3901102341	-2.614438168	-2.5656601748	-0.200663
C	 1.2302551915	-4.1345662176	-2.6598757516	-0.377022
H	 0.7166381491	 2.1310429198	 0.0295956645	 0.114128
H	-0.7956586728	 1.8516265212	-0.840680847	 0.109198
H	-0.771079418	 1.8303362543	 0.9257841516	 0.112035
H	 0.6318679523	-0.247123152	 0.9082416686	 0.087063
H	-0.8953538853	-0.4986364472	 0.0826474254	 0.111803
H	 0.3092098679	-0.042140827	-2.1220975146	 0.052418
H	 2.8383332899	-0.5205260581	-0.4483065576	 0.11349
H	 2.7680536431	-0.2158037784	-2.1905362476	 0.115802
H	 2.3460036521	 1.0617102146	-1.0570323895	 0.115467
H	 1.0781281046	-2.4620972594	-0.438963379	 0.081606
H	-1.1138836362	-2.0284972625	-2.1386455824	 0.273681
H	 1.0009022784	-2.139139334	-3.4792025216	 0.081503
H	 2.454434969	-2.3620894238	-2.5211646156	 0.101707
H	 1.6760462698	-4.6292994689	-1.789689484	 0.113247
H	 0.1746533784	-4.414487516	-2.6911967661	 0.125132
H	 1.7215830699	-4.5277694342	-3.5550673363	 0.106164
64.5614	75.6037	100.5276	163.4878	205.2886	217.8329	231.7292	283.7237	304.4855	315.6184	338.5987	384.3933	433.1857	509.471	535.0801	773.7477	783.7147	841.3767	855.1439	942.1442	976.5823	984.0508	998.0339	1039.5932	1053.8799	1091.2555	1099.7432	1139.7746	1167.7198	1185.8025	1247.29	1268.8062	1295.7192	1330.4713	1345.0538	1364.9937	1382.0182	1387.3139	1404.6161	1408.8294	1415.0327	1419.3274	1481.9768	1489.1541	1494.7256	1495.4958	1501.0299	1509.4721	1509.6231	1513.2149	2960.5757	2993.356	3010.8999	3017.8947	3029.7205	3032.2589	3037.5367	3072.9551	3079.8691	3095.7356	3099.2526	3100.0259	3105.6188	3115.5088	3126.2678	3789.308
CCC(C)C(O)CC	CC[C@@H](C)[C@@H](O)CC	
InChI=1S/C7H16O/c1-4-6(3)7(8)5-2/h6-8H,4-5H2,1-3H3	InChI=1S/C7H16O/c1-4-6(3)7(8)5-2/h6-8H,4-5H2,1-3H3/t6-,7+/m1/s1
