14
gdb 69626	3.96952	1.17687	1.14936	4.5082	67.61	-0.2763	-0.0218	0.2545	1083.3763	0.098468	-436.601402	-436.593756	-436.592812	-436.633487	28.801	
C	-0.2050688021	 1.5383315614	 0.04198933	-0.512125
C	 0.1029567286	 0.080724967	 0.0224984119	 0.407011
O	-0.7481884902	-0.8542956101	 0.6903825673	-0.239606
C	 0.6353801189	-0.8667453513	 1.0028988938	-0.17289
C	 1.3768476272	-1.6649985221	-0.1549291525	 0.336337
O	 0.4033116486	-2.0718586813	-1.1163566807	-0.236659
C	 0.8306199796	-0.7188621987	-1.1433567795	-0.152192
C	 2.6360333478	-2.3246083364	-0.0725352149	 0.195832
N	 3.665918797	-2.837109383	 0.0505344162	-0.33281
H	 0.6719890499	 2.1222864139	-0.2549903998	 0.137815
H	-1.0184914546	 1.770321458	-0.6539446476	 0.145866
H	-0.5092677935	 1.8486077202	 1.044597286	 0.148514
H	 0.958679471	-0.7695310827	 2.0315117314	 0.133197
H	 1.2732568718	-0.3289290751	-2.0520493417	 0.14171
115.2769	151.7842	193.2115	260.8758	289.9631	416.9849	453.7419	479.998	543.7283	577.1039	600.9844	721.873	774.3519	799.7236	867.2581	874.5986	939.1454	986.2736	999.4787	1039.9893	1098.4224	1106.6605	1165.1667	1205.3307	1257.5881	1405.0094	1415.7185	1468.5888	1485.1282	1496.0565	2353.4342	3039.2388	3103.6008	3128.3635	3200.5353	3207.458
CC12OC1C1(OC21)C#N	C[C@]12O[C@H]1[C@]1(O[C@@H]21)C#N	
InChI=1S/C6H5NO2/c1-5-3(8-5)6(2-7)4(5)9-6/h3-4H,1H3	InChI=1S/C6H5NO2/c1-5-3(8-5)6(2-7)4(5)9-6/h3-4H,1H3/t3-,4+,5+,6-/m1/s1
