23
gdb 116454	2.57258	1.2746	1.00345	1.7325	81.56	-0.2446	0.0771	0.3217	1300.2201	0.206887	-425.445543	-425.436262	-425.435318	-425.479309	35.989	
C	-0.0242421196	 1.5412324989	-0.0515236665	-0.387561
C	-0.0072657614	 0.0140245098	 0.0468037409	-0.185885
C	-1.3999820633	-0.6069257398	 0.0080705024	 0.099104
O	-2.007737641	-0.253998435	-1.2390375642	-0.272554
C	-3.3853836043	-0.6102300005	-1.2891439819	-0.068416
C	-3.5821799503	-2.122070484	-1.1591091904	-0.212654
C	-2.8565986452	-2.6508925583	 0.0877577184	-0.223456
C	-1.4046345132	-2.141472514	 0.1212014278	 0.134712
O	-0.6293950558	-2.7165186408	-0.9244568691	-0.44791
H	 0.9920628639	 1.9461667101	-0.0361904821	 0.109981
H	-0.5080296548	 1.8632394573	-0.976939793	 0.13207
H	-0.5730952854	 1.9874491147	 0.7858190309	 0.107519
H	 0.5890335941	-0.4156285371	-0.764590019	 0.107273
H	 0.4724349434	-0.3010583837	 0.9817532312	 0.095749
H	-2.0064014151	-0.190936414	 0.8324725717	 0.05968
H	-3.9286908326	-0.0868047476	-0.4842310424	 0.0884
H	-3.7620392556	-0.2369229919	-2.2460633175	 0.106262
H	-4.6517647851	-2.3558177063	-1.120014465	 0.097336
H	-3.1817035911	-2.6143072964	-2.0531725647	 0.105919
H	-3.3728832452	-2.3089731406	 0.9948875615	 0.090565
H	-2.8582883312	-3.7449200088	 0.1041104474	 0.104192
H	-0.9245746428	-2.4441015262	 1.0589541312	 0.075754
H	-0.8289924184	-2.2036482357	-1.7176368576	 0.28392
89.0689	125.0369	159.4095	203.3262	228.255	300.8104	323.4007	355.8682	393.4204	430.9388	461.4429	534.601	583.8472	724.1722	760.4015	833.0297	848.5185	877.9012	894.0985	924.0472	983.326	995.9551	1014.7494	1053.5442	1078.1233	1098.1521	1112.3062	1144.3118	1172.9268	1216.292	1226.5618	1264.9567	1280.9278	1311.2274	1320.9399	1341.985	1358.8705	1372.688	1388.2099	1405.4507	1406.6218	1412.1756	1433.7005	1478.2938	1479.7631	1487.903	1496.6613	1501.1037	1510.2347	2944.62	2966.2022	3020.3731	3034.7914	3035.8095	3036.1451	3047.8073	3076.5234	3078.816	3082.2105	3086.8424	3101.8712	3125.0545	3776.3574
CCC1OCCCC1O	CC[C@H]1OCCC[C@H]1O	
InChI=1S/C7H14O2/c1-2-7-6(8)4-3-5-9-7/h6-8H,2-5H2,1H3	InChI=1S/C7H14O2/c1-2-7-6(8)4-3-5-9-7/h6-8H,2-5H2,1H3/t6-,7-/m1/s1
