17
gdb 85453	2.59987	1.57926	1.15452	5.21	68.53	-0.276	0.0446	0.3206	1078.7712	0.135641	-459.006753	-458.99878	-458.997836	-459.039586	30.163	
C	 0.0814922252	 1.5735126258	-0.184441174	-0.398871
C	-0.0400364431	 0.0760694903	 0.0619530001	 0.016229
O	 0.5945026677	-0.6449307153	-1.0135564905	-0.252308
C	 1.7662122018	-1.1828321064	-0.5934596997	 0.480203
O	 2.5537377751	-1.7342516215	-1.2926720068	-0.37322
O	 1.9165544505	-0.9953860983	 0.7452190433	-0.270826
C	 0.719041195	-0.4503825329	 1.2761680657	 0.419064
C	 0.7899312173	 0.1834013398	 2.6220572748	-0.336541
C	 0.0988794119	-1.1598125654	 2.438894984	-0.329106
H	 1.1299634881	 1.885024338	-0.1706751629	 0.137843
H	-0.3476259223	 1.8282036527	-1.156737508	 0.139952
H	-0.4564782383	 2.1319724821	 0.5873869258	 0.124663
H	-1.089440899	-0.2311204696	 0.0802901441	 0.109458
H	 1.757483605	 0.1856380179	 3.1107000061	 0.142653
H	 0.1818361936	 1.0606706554	 2.8140165309	 0.126385
H	-0.9840367862	-1.1978463796	 2.4979270851	 0.124271
H	 0.6117603674	-2.040214193	 2.8084829919	 0.14015
65.4905	130.2176	216.6313	245.0388	275.7813	316.1802	406.0629	517.866	539.6501	550.2168	712.2474	759.0534	770.8233	781.3798	895.4825	904.9439	915.467	976.8675	978.9159	1015.3584	1058.5307	1067.7702	1083.7069	1103.3914	1138.7132	1160.7459	1188.9383	1278.3134	1333.2274	1377.5815	1396.7911	1411.2141	1452.7191	1486.8367	1491.0879	1505.3582	1927.5871	3046.1583	3071.415	3121.3434	3130.9774	3135.2704	3140.3058	3222.45	3235.4962
CC1OC(=O)OC11CC1	C[C@H]1OC(=O)OC21CC2	
InChI=1S/C6H8O3/c1-4-6(2-3-6)9-5(7)8-4/h4H,2-3H2,1H3	InChI=1S/C6H8O3/c1-4-6(2-3-6)9-5(7)8-4/h4H,2-3H2,1H3/t4-/m1/s1
