13
gdb 125563	3.53664	1.76637	1.18672	2.2209	65.5	-0.2465	-0.0527	0.1937	946.4918	0.091376	-445.067675	-445.060839	-445.059895	-445.099	25.224	
C	-0.027488059	 1.4962814155	 0.052816148	-0.492191
C	-0.0091404496	 0.0127941346	 0.0025692004	 0.347384
N	-0.042211671	-0.7505501474	-1.0685531557	-0.254435
N	-0.0093440529	-2.1018408135	-0.7214558418	-0.345803
C	 0.0436216855	-2.085939179	 0.583265796	 0.547734
N	 0.1000618068	-2.8658096546	 1.7010498362	-0.364185
N	 0.1348281802	-2.0774549743	 2.810090494	-0.048106
N	 0.1037686292	-0.8456889825	 2.4692939568	-0.131931
N	 0.047340667	-0.8240167257	 1.1011197234	-0.029983
H	 0.8745869198	 1.8922786604	 0.5310535426	 0.149017
H	-0.0808045148	 1.8741743015	-0.9688869913	 0.166077
H	-0.891207621	 1.8674762264	 0.6143946385	 0.148963
H	 0.1188478999	-3.8660039014	 1.7998924729	 0.30746
129.4081	189.0505	235.6667	243.192	371.4789	423.5291	524.3158	640.6647	658.6696	685.6774	703.5579	749.2247	842.3334	1005.7417	1021.062	1026.2099	1059.2086	1068.0125	1169.4869	1245.7782	1310.3823	1370.6598	1405.0485	1419.2463	1452.0537	1477.0275	1486.763	1565.2229	1642.7107	3041.8767	3096.2316	3153.3525	3696.7998
CC1=NN=C2NN=NN12	Cc1nnc2[nH]nnn12	
InChI=1S/C3H4N6/c1-2-4-5-3-6-7-8-9(2)3/h1H3,(H,5,6,8)	InChI=1S/C3H4N6/c1-2-4-5-3-6-7-8-9(2)3/h1H3,(H,5,6,8)
