22
gdb 96137	2.55087	1.66872	1.26238	0.7446	81.34	-0.2057	0.0796	0.2853	1088.2737	0.196483	-404.317139	-404.309213	-404.308269	-404.348963	32.626	
C	 0.027370023	 1.5741051709	 0.0028027714	-0.386127
C	 0.0004975183	 0.0437925386	 0.0151501529	 0.04704
C	 0.5153327632	-0.5176168247	-1.338315037	-0.223635
C	 0.7552169093	-2.031312041	-1.3935492809	-0.083623
O	 1.8548141893	-2.5137692547	-0.6317346195	-0.265253
C	 1.9086480623	-2.1721077132	 0.7396458832	 0.127743
C	 0.5493562239	-1.917517721	 1.4328800503	-0.216664
N	 0.6961691644	-0.443323704	 1.2209033587	-0.106927
C	 2.1670426871	-0.668349951	 1.014678066	-0.205306
H	 1.0570456817	 1.9435156229	-0.0668995511	 0.113423
H	-0.5265116857	 1.9729051853	-0.8535724991	 0.106911
H	-0.4095719907	 1.9691876691	 0.9229190359	 0.121247
H	-1.0427655368	-0.2791374397	 0.1355395772	 0.076049
H	-0.2250511971	-0.2726130137	-2.1107334525	 0.097299
H	 1.4390177794	-0.0040819901	-1.6328426278	 0.103982
H	-0.1682359843	-2.5652352996	-1.1207430462	 0.090029
H	 0.9937959107	-2.3214445231	-2.4215701388	 0.108001
H	 2.5917186386	-2.8939345322	 1.1972183433	 0.078676
H	-0.3502565682	-2.3755946518	 1.0146990401	 0.105377
H	 0.59074623	-2.149944416	 2.5028608714	 0.103378
H	 2.7122723915	-0.4941123006	 1.9487857172	 0.101405
H	 2.6402184702	-0.0943522704	 0.2151371452	 0.106975
139.4548	223.556	267.3631	273.4321	299.4305	353.1519	375.375	430.6557	468.0369	523.4001	571.3512	728.0119	781.7406	807.1203	830.2108	884.1431	903.3033	924.8345	962.4596	980.0566	1002.4801	1013.4015	1039.9762	1079.9233	1102.2226	1107.942	1154.9436	1169.6886	1192.8925	1241.7591	1250.9291	1266.9181	1271.9164	1299.2586	1311.5096	1329.8777	1377.2516	1382.1375	1383.8708	1406.917	1417.7013	1466.571	1480.869	1488.7851	1497.1566	1503.3122	1519.3011	2984.2881	3006.683	3021.7808	3032.4646	3036.9569	3041.9199	3062.4802	3067.6752	3075.3354	3095.3779	3100.0933	3110.9103	3123.4579
CC1CCOC2CN1C2	C[C@H]1CCO[C@@H]2CN1C2	
InChI=1S/C7H13NO/c1-6-2-3-9-7-4-8(6)5-7/h6-7H,2-5H2,1H3	InChI=1S/C7H13NO/c1-6-2-3-9-7-4-8(6)5-7/h6-7H,2-5H2,1H3/t6-/m0/s1
