19
gdb 52864	2.59277	1.0834	0.82031	2.8857	86.55	-0.2359	-0.0114	0.2246	1440.1366	0.15594	-385.884238	-385.873873	-385.872929	-385.921696	36.274	
C	 0.048987874	 1.4715527109	 0.1014561128	-0.505499
C	 0.0473691912	 0.016276839	 0.0591907557	 0.198406
C	 0.0474447717	-1.1889077501	 0.0236244362	-0.143868
C	 0.0424768355	-2.6249218839	-0.0164391679	 0.074221
C	-0.664161148	-3.3852175659	 1.1203086599	-0.279144
C	-1.302840401	-3.345697196	-0.2166321617	-0.27915
C	 1.2307023318	-3.3525502719	-0.6055455441	 0.333376
C	 2.374579578	-2.5123286982	-1.1267218763	-0.504108
O	 1.2471567133	-4.5643673234	-0.6494851491	-0.318241
H	 0.9902832082	 1.8762115474	-0.2870843914	 0.149315
H	-0.7637894363	 1.8915528832	-0.5016375268	 0.148725
H	-0.0709127384	 1.8428342249	 1.1254190766	 0.148889
H	-0.1806980151	-4.30778495	 1.4189532808	 0.14353
H	-1.071522305	-2.7737505669	 1.9159069734	 0.129485
H	-2.163346869	-2.7062036312	-0.3695648255	 0.129494
H	-1.2522609421	-4.2414994967	-0.8241156968	 0.143534
H	 2.7744130166	-1.8799519676	-0.3270825208	 0.147384
H	 3.1553748794	-3.1639855419	-1.519509119	 0.136242
H	 2.0191623049	-1.8319593118	-1.907701786	 0.147409
13.9855	50.	85.9453	130.0221	166.205	244.6833	269.1752	299.4785	306.1029	379.6634	452.3043	515.5131	532.4411	616.6086	618.4929	787.2321	813.3512	830.2732	919.5681	972.1384	986.5408	1052.324	1052.4304	1054.7967	1064.9623	1071.9396	1102.2422	1169.0668	1210.3254	1293.5354	1342.4052	1384.5217	1415.4625	1445.3621	1456.3324	1469.3957	1475.8245	1476.5656	1479.6058	1788.0705	2362.8235	3025.0453	3043.7527	3084.8187	3086.1322	3104.8983	3147.5464	3148.3139	3157.3507	3240.0084	3254.1256
CC#CC1(CC1)C(C)=O	CC#CC1(CC1)C(=O)C	
InChI=1S/C8H10O/c1-3-4-8(5-6-8)7(2)9/h5-6H2,1-2H3	InChI=1S/C8H10O/c1-3-4-8(5-6-8)7(2)9/h5-6H2,1-2H3
