21
gdb 82374	2.23419	1.95563	1.29374	1.354	80.65	-0.2177	0.0732	0.2909	1053.6016	0.18411	-387.058219	-387.050238	-387.049293	-387.090466	32.325	
C	-0.8588178539	 1.2783104397	 0.004333726	-0.378234
C	-0.0004579387	 0.0060232124	 0.0027853267	-0.030978
C	 0.8325519752	-0.1401772017	-1.2672359876	-0.063584
C	 1.9172480283	 0.8424834473	-1.6804756317	-0.330392
C	 2.2784755528	-0.5399537347	-1.1962381026	 0.111999
O	 2.9463776577	-0.7294538243	 0.0182899612	-0.264129
C	 2.2622672095	-0.5538300685	 1.2258607754	 0.112
C	 1.8944773792	 0.8229916746	 1.7210349026	-0.330392
C	 0.8154893704	-0.1547920112	 1.2820836359	-0.063586
H	-0.2317798669	 2.1748978096	 0.0136698784	 0.115614
H	-1.4945614932	 1.3220309522	-0.8863412595	 0.109238
H	-1.5064291178	 1.3118659887	 0.8868624914	 0.109238
H	-0.6882559212	-0.8500820947	-0.0067264984	 0.078534
H	 0.2729764663	-0.5701958314	-2.0932405975	 0.088075
H	 2.0284577101	 1.0666529706	-2.7361632933	 0.10905
H	 2.1413258452	 1.6766789417	-1.0266524629	 0.118102
H	 2.6551782594	-1.250032993	-1.9260198276	 0.09711
H	 2.6292270374	-1.2722489116	 1.9524376497	 0.09711
H	 1.991537613	 1.0350380408	 2.7806158304	 0.10905
H	 2.1272062945	 1.6646130444	 1.0798730402	 0.118101
H	 0.2449429826	-0.5942133609	 2.095539113	 0.088075
79.9512	201.1032	205.5153	250.7573	312.2457	386.4583	419.7625	425.2589	535.2818	624.9965	671.2052	736.7503	768.7391	770.5931	816.4883	834.8828	889.083	941.9814	978.3208	992.7093	1000.5181	1027.7101	1044.9898	1054.1772	1055.1675	1089.0128	1130.2459	1131.8378	1145.792	1164.2427	1169.0937	1235.9263	1237.082	1284.1591	1344.9796	1345.01	1361.0094	1396.1862	1400.6005	1412.5077	1433.3822	1473.4536	1492.455	1498.5156	1500.4328	3005.3476	3031.8955	3099.1676	3108.7539	3133.3223	3135.4115	3135.8669	3139.0494	3150.7185	3154.8964	3220.359	3229.6355
CC1C2CC2OC2CC12	C[C@H]1[C@H]2C[C@H]2O[C@H]2C[C@@H]12	
InChI=1S/C8H12O/c1-4-5-2-7(5)9-8-3-6(4)8/h4-8H,2-3H2,1H3	InChI=1S/C8H12O/c1-4-5-2-7(5)9-8-3-6(4)8/h4-8H,2-3H2,1H3/t4-,5+,6-,7+,8-
