18
gdb 12801	3.56623	2.03974	1.53175	1.7629	72.43	-0.2412	0.0289	0.2701	877.9099	0.154464	-347.813145	-347.805886	-347.804942	-347.844242	28.508	
C	-0.1114467542	 1.4911795884	 0.0676012498	-0.46769
C	-0.0224347533	-0.0174434247	 0.0346328735	 0.400547
C	-1.0792909613	-0.7233630422	-0.7962270431	-0.323848
C	-1.1978070253	-2.1987936801	-0.5337804477	-0.040433
C	-0.5913900235	-2.8397605179	 0.4614647116	-0.057692
C	 0.3086977009	-2.1780773621	 1.4671565535	-0.288578
C	 0.6517118712	-0.7469436655	 1.1229264644	 0.001087
O	 1.3085600533	-0.5350189473	-0.1326701572	-0.297269
H	 0.727556648	 1.9125657749	 0.6268890947	 0.126847
H	-0.0831436204	 1.9007049471	-0.9486091212	 0.123739
H	-1.0456992002	 1.8203986619	 0.5351056459	 0.118511
H	-2.0507497304	-0.2395368546	-0.6159880605	 0.109732
H	-0.862293078	-0.5465587577	-1.8597381409	 0.115676
H	-1.8376510615	-2.753134663	-1.2160051863	 0.085578
H	-0.7412863761	-3.9098500087	 0.5804239541	 0.086011
H	-0.1615042962	-2.1965857738	 2.4617697767	 0.110667
H	 1.2404894335	-2.7512155002	 1.5757972861	 0.118535
H	 1.0731903034	-0.1621081744	 1.9428787765	 0.078581
119.9988	190.3025	234.8994	316.406	377.1957	393.0322	407.2645	496.651	579.8008	676.0915	683.3225	774.3842	880.7505	889.3447	908.3971	932.2207	958.551	999.0602	1006.0241	1027.656	1067.8461	1094.5608	1125.3052	1200.0188	1215.5327	1242.7953	1258.3706	1329.4907	1375.5971	1384.261	1410.9724	1420.2896	1459.2943	1464.3717	1472.9216	1489.7258	1507.6871	1739.7295	2998.1943	2999.3914	3020.7069	3023.9244	3031.9496	3087.3208	3093.9476	3121.5788	3145.6933	3169.0713
CC12CC=CCC1O2	C[C@]12CC=CC[C@H]1O2	
InChI=1S/C7H10O/c1-7-5-3-2-4-6(7)8-7/h2-3,6H,4-5H2,1H3	InChI=1S/C7H10O/c1-7-5-3-2-4-6(7)8-7/h2-3,6H,4-5H2,1H3/t6-,7+/m1/s1
