14
gdb 27394	2.04521	1.95433	1.0022	9.3406	68.	-0.2307	-0.0017	0.229	1092.733	0.103856	-466.262628	-466.254819	-466.253875	-466.294918	29.827	
N	 0.0570530085	 1.3561937985	 0.1202827358	-0.575178
C	-0.0157274939	-0.0142885653	 0.020153485	 0.452414
N	-1.1411179466	-0.6266575376	-0.0245349991	-0.352193
C	-1.1464214496	-2.0424395036	-0.0029574006	 0.366349
O	-2.1873359573	-2.6513178104	 0.0254750039	-0.34814
N	 0.0897790186	-2.7317807685	-0.0423156119	-0.352193
C	 1.1757056112	-2.0519194097	 0.0029445714	 0.452414
N	 2.4064214449	-2.6617783379	 0.0863432823	-0.575178
N	 1.2086855027	-0.6655341046	 0.0160875389	-0.394981
H	 0.8077279544	 1.8123260213	-0.3781488371	 0.254935
H	-0.8448385562	 1.7922216963	-0.0124293895	 0.276342
H	 2.3430710518	-3.6598530904	-0.0584832329	 0.276342
H	 3.1684166665	-2.2250070941	-0.4122524161	 0.254935
H	 2.0294168151	-0.1885224841	 0.3573240699	 0.264131
90.3019	181.6627	212.9864	322.7336	367.354	378.8239	387.0752	460.875	530.3315	557.8201	594.3771	617.3211	623.8335	667.7352	723.3823	766.5453	820.5788	920.2955	1002.8655	1017.5132	1124.0684	1202.1628	1205.91	1304.3448	1445.1539	1492.8745	1611.6029	1628.79	1673.6339	1745.9232	1821.235	3561.7558	3562.3848	3618.8557	3671.9916	3672.2509
NC1=NC(=O)N=C(N)N1	Nc1nc(=O)nc(N)[nH]1	
InChI=1S/C3H5N5O/c4-1-6-2(5)8-3(9)7-1/h(H5,4,5,6,7,8,9)	InChI=1S/C3H5N5O/c4-1-6-2(5)8-3(9)7-1/h(H5,4,5,6,7,8,9)
