16
gdb 109500	2.32511	1.58978	0.98304	4.1571	65.71	-0.2578	-0.0455	0.2123	1135.8744	0.124802	-475.080329	-475.072056	-475.071112	-475.113833	30.304	
O	 0.016371758	 1.4727229353	-0.1303990962	-0.423635
C	 0.0869044042	 0.0704569121	-0.0932872004	-0.057272
C	-1.3211019041	-0.5499468656	 0.0262498411	-0.283765
C	-1.3821953062	-2.0700080216	 0.0015258071	 0.390685
O	-0.8303024405	-2.8071789022	-0.7691423557	-0.296084
C	-2.2730257816	-2.5324118724	 1.1704741095	-0.275829
N	-2.5443733158	-1.2977283667	 1.879498411	-0.325259
C	-1.9907980102	-0.1719253504	 1.3426303346	 0.434546
O	-2.0050923611	 0.9371121212	 1.8461030051	-0.393914
H	-0.5263211659	 1.7399003744	 0.6274111079	 0.300343
H	 0.5490520529	-0.2711401253	-1.0234686065	 0.129842
H	 0.7119196778	-0.29206761	 0.7395778043	 0.092343
H	-1.9254466276	-0.1582087827	-0.8026713776	 0.14912
H	-3.1793169939	-3.0140153023	 0.7812132358	 0.147081
H	-1.7357648338	-3.2684691727	 1.7801424632	 0.149096
H	-2.9976094822	-1.2587767709	 2.7794862969	 0.262702
53.1499	143.9635	160.701	171.5324	255.5139	340.073	426.8988	512.7435	529.9637	558.8948	574.5446	600.4036	694.9544	715.8827	807.894	853.5394	957.1349	1022.0706	1066.0377	1084.7971	1092.4856	1144.2708	1190.5855	1193.3095	1228.7309	1266.3695	1297.9905	1352.4386	1384.6149	1435.7334	1462.772	1501.4958	1514.8937	1797.0363	1865.7644	2967.504	3024.0708	3038.4957	3063.4596	3092.9585	3632.7006	3703.3193
OCC1C(=O)CNC1=O	OC[C@H]1C(=O)CNC1=O	
InChI=1S/C5H7NO3/c7-2-3-4(8)1-6-5(3)9/h3,7H,1-2H2,(H,6,9)	InChI=1S/C5H7NO3/c7-2-3-4(8)1-6-5(3)9/h3,7H,1-2H2,(H,6,9)/t3-/m0/s1
