18
gdb 84508	3.01508	1.77198	1.42219	3.112	77.43	-0.2196	-0.0095	0.2101	947.4708	0.149608	-401.827781	-401.820739	-401.819795	-401.858836	28.979	
O	 0.0921400049	 1.4612806317	-0.0705215835	-0.414651
C	 0.0698884842	 0.0361246825	-0.0552970811	-0.00643
C	 0.6696616622	-0.5499726309	 1.2482025942	-0.097574
C	-0.2407055806	-1.0075706827	 2.1247458034	-0.245784
C	-1.5904976389	-0.7586564685	 1.5204910691	 0.268815
C	-2.9869550257	-1.2831287948	 1.0827196406	-0.250447
N	-2.8050933601	-0.0272068071	 0.1806117183	-0.183261
C	-2.2912851076	 0.6353625871	 1.4673593467	-0.197855
C	-1.3415942483	-0.584373784	 0.0377439554	 0.057964
H	 1.001053481	 1.7444189429	 0.075083718	 0.282825
H	 0.5984532999	-0.341899453	-0.9417241289	 0.074623
H	 1.739719743	-0.5112274911	 1.4339224034	 0.09533
H	-0.0178843027	-1.3778086667	 3.1189793279	 0.10698
H	-3.0345889234	-2.2240469729	 0.5282486378	 0.105004
H	-3.8259259304	-1.1761653955	 1.7749446186	 0.102588
H	-3.0855570011	 0.8287258706	 2.1940569253	 0.089519
H	-1.6681733335	 1.5089650291	 1.2928660775	 0.13655
H	-1.3486146428	-1.5024604768	-0.5571582827	 0.075803
165.8029	202.2599	231.8016	345.0564	360.6197	447.5442	536.3189	568.5403	613.4377	714.0259	745.8	765.003	827.7267	848.4846	878.7755	904.3702	908.2316	954.6991	966.0791	988.9856	1041.8549	1052.8635	1068.2141	1104.8989	1125.9232	1158.5116	1172.3935	1188.8066	1203.3348	1218.2207	1246.7451	1292.6136	1322.2045	1356.9506	1407.5065	1416.7127	1511.5499	1549.6986	1612.0057	2993.3502	3052.0439	3057.9023	3064.3589	3124.7193	3165.8049	3179.853	3199.7127	3807.9909
OC1C=CC23CN(C2)C13	O[C@H]1C=C[C@@]23CN(C2)[C@@H]13	
InChI=1S/C7H9NO/c9-5-1-2-7-3-8(4-7)6(5)7/h1-2,5-6,9H,3-4H2	InChI=1S/C7H9NO/c9-5-1-2-7-3-8(4-7)6(5)7/h1-2,5-6,9H,3-4H2/t5-,6-/m0/s1
