16
gdb 29191	3.14318	1.35334	0.95156	3.493	76.53	-0.2079	-0.0226	0.1853	1173.8138	0.125814	-437.970298	-437.962343	-437.961399	-438.002591	30.62	
C	-0.0306107645	 1.5458436183	 0.0509917204	-0.487116
C	-0.0068314012	 0.0435468749	 0.0080901259	 0.156207
C	-0.0317559221	-0.664415928	-1.1528207492	-0.029706
N	-0.0091996736	-2.0249660956	-1.171737653	-0.377969
C	 0.0413849348	-2.8534300416	-0.0305107539	 0.438748
O	 0.0570139913	-4.0680473685	-0.1582771504	-0.411771
C	 0.0671981815	-2.1008788985	 1.1998019668	-0.432779
C	 0.044509858	-0.733254397	 1.2145983224	 0.382963
O	 0.0684153939	-0.0073529552	 2.3593851979	-0.423523
H	 0.8601175202	 1.9478716063	 0.5457596626	 0.137253
H	-0.0750543476	 1.9602165249	-0.9597328044	 0.117953
H	-0.8953174453	 1.9179374519	 0.6108852487	 0.137367
H	-0.070965388	-0.1770449491	-2.1203188433	 0.129837
H	-0.0288449446	-2.5254396878	-2.048563468	 0.258963
H	 0.1057550311	-2.6773154903	 2.1177625732	 0.098499
H	 0.1021783761	-0.6072505146	 3.1133836444	 0.305074
119.8855	158.6656	203.9764	280.7322	300.2759	367.7765	429.3344	451.9187	475.1489	532.6057	574.6154	642.0585	720.072	743.7635	751.1458	777.9196	840.4191	890.5534	929.759	1018.4368	1069.1663	1162.4903	1203.3142	1227.6491	1254.6712	1268.0423	1360.9862	1421.9438	1451.8375	1474.6895	1487.8351	1515.3566	1593.9214	1695.4788	1781.1237	3033.8703	3086.4238	3115.205	3188.796	3197.8125	3618.056	3808.1582
CC1=CNC(=O)C=C1O	Cc1c[nH]c(=O)cc1O	
InChI=1S/C6H7NO2/c1-4-3-7-6(9)2-5(4)8/h2-3H,1H3,(H2,7,8,9)	InChI=1S/C6H7NO2/c1-4-3-7-6(9)2-5(4)8/h2-3H,1H3,(H2,7,8,9)
