19
gdb 87745	4.21313	0.93759	0.916	3.7418	81.18	-0.24	0.0295	0.2695	1338.3107	0.159085	-382.044097	-382.035321	-382.034377	-382.078146	32.749	
C	 0.1677338934	 1.3713820662	-0.3692804677	-0.319727
N	 0.2216298615	-0.0495577443	-0.0544379637	-0.125138
C	 1.5398466236	-0.6177726726	 0.2339636281	-0.311054
C	 0.5284797111	-0.4325780235	 1.3053702932	 0.388816
C	 0.6720482125	 0.4590305805	 2.5506289175	-0.321778
C	 0.1538036414	-0.7452633128	 3.4155127195	-0.160933
C	-0.2297697204	-1.5035208001	 2.0942125093	-0.313821
C	 1.1832894223	-1.3977897947	 4.2075820503	 0.273716
N	 2.0078798234	-1.9170257774	 4.8305347041	-0.326489
H	 0.910408366	 1.9780952749	 0.1742486249	 0.103858
H	 0.3398778419	 1.5045648553	-1.441489928	 0.130395
H	-0.8295124017	 1.7588470549	-0.1365334482	 0.123553
H	 1.7346699407	-1.6031806867	-0.1818304275	 0.121443
H	 2.3976333162	 0.0549083575	 0.2403813602	 0.111144
H	 1.6675958302	 0.8299365278	 2.7980491872	 0.130939
H	-0.0342428259	 1.2936599501	 2.5697723119	 0.118313
H	-0.6906211216	-0.5068769562	 4.0652052315	 0.125822
H	-1.3065805256	-1.4801095177	 1.9098623977	 0.120757
H	 0.1280757307	-2.530814971	 2.0114048398	 0.130185
34.2294	123.1802	188.2727	220.2542	232.8018	253.5273	358.5325	419.9198	428.6524	483.9408	567.5865	599.8281	743.3558	774.0268	834.8296	868.9755	902.3292	916.0957	960.7991	1008.818	1045.8137	1083.8212	1100.3865	1113.9204	1139.9282	1149.7866	1181.4054	1191.4312	1213.875	1237.1861	1262.0919	1267.7676	1343.6219	1418.7937	1450.9238	1469.6009	1488.3228	1493.2681	1497.9088	1513.1615	2352.9366	2970.9085	3065.0535	3069.3086	3072.0715	3083.6735	3091.8988	3105.6031	3128.1285	3133.7514	3173.8092
CN1CC11CC(C1)C#N	CN1C[C@]21C[C@@H](C2)C#N	
InChI=1S/C7H10N2/c1-9-5-7(9)2-6(3-7)4-8/h6H,2-3,5H2,1H3	InChI=1S/C7H10N2/c1-9-5-7(9)2-6(3-7)4-8/h6H,2-3,5H2,1H3/t6-,7-,9?
