16
gdb 44015	4.48279	1.58246	1.37539	3.3746	72.97	-0.2436	-0.0254	0.2182	916.101	0.12594	-400.663279	-400.657152	-400.656208	-400.693584	25.605	
O	-0.0477933885	 0.010325926	 0.0097179547	-0.309314
C	-0.0011751031	 1.2072718871	-0.0027372159	 0.436013
C	-1.2069218135	 2.2104039863	-0.0743396922	-0.465579
C	-0.3566447583	 3.4463837218	 0.0312195361	 0.334411
C	-0.1952697901	 4.9680153782	-0.0342802761	-0.338523
C	 1.239453564	 4.3819594944	 0.048554343	-0.020274
C	 0.8438371561	 3.2570369927	 1.026032614	-0.078278
C	 1.2305819721	 2.1251265123	 0.0641385127	-0.136378
N	 0.8572918812	 3.2425265043	-0.9248620909	-0.178788
H	-1.7379571875	 2.1047515028	-1.024131913	 0.141217
H	-1.9029368944	 2.0462816573	 0.7521464857	 0.13178
H	-0.4654399341	 5.4447441189	-0.9800505024	 0.119384
H	-0.5478355224	 5.5400940686	 0.8270194598	 0.109555
H	 2.190945381	 4.9061164315	-0.0450053695	 0.091328
H	 0.8153229874	 3.2684829181	 2.1202219088	 0.076929
H	 2.2097123802	 1.6530886597	-0.004317155	 0.086517
130.5286	340.6654	357.6277	413.2377	499.0045	574.3824	609.9284	693.6119	711.3122	767.4126	797.812	830.0912	851.952	880.0373	929.4182	941.4781	975.1757	991.9349	1018.6599	1066.8157	1076.5176	1116.8465	1143.8641	1162.6333	1167.8254	1188.9638	1198.7015	1217.9681	1223.0679	1272.2659	1288.3533	1334.75	1458.8901	1492.0527	1872.3476	3052.8174	3062.5441	3068.6981	3113.8526	3121.2309	3130.7432	3135.2618
O=C1CC23CC4C2C1N34	O=C1C[C@@]23C[C@H]4[C@@H]2[C@@H]1N34	
InChI=1S/C7H7NO/c9-4-2-7-1-3-5(7)6(4)8(3)7/h3,5-6H,1-2H2	InChI=1S/C7H7NO/c9-4-2-7-1-3-5(7)6(4)8(3)7/h3,5-6H,1-2H2/t3-,5+,6+,7-/m0/s1
