20
gdb 112675	3.44612	1.02003	0.82723	2.506	76.42	-0.2276	-0.031	0.1966	1404.7943	0.170008	-440.299053	-440.289808	-440.288864	-440.33324	34.322	
C	-0.0611760041	 1.5286480728	-0.055764063	-0.389715
C	-0.0187536217	 0.0013972997	-0.0310466465	-0.111603
N	-1.3324778759	-0.5946505084	 0.1482838221	-0.081051
C	-1.3850958353	-2.0413922421	-0.0915954301	-0.198361
C	-2.8110000465	-2.3863990731	 0.3491013376	 0.053725
O	-3.0539068704	-3.7344302188	 0.6303312783	-0.439955
C	-2.9483502982	-1.5012378054	 1.5853911312	 0.362281
O	-3.6424849383	-1.7743280819	 2.5319556251	-0.32662
C	-1.9644887817	-0.3493275371	 1.4428007364	-0.277764
H	 0.9352539359	 1.9315422819	-0.2596814618	 0.118158
H	-0.7452970001	 1.8813462303	-0.8331079164	 0.12651
H	-0.3924375977	 1.9407637428	 0.9025399917	 0.121257
H	 0.3783442242	-0.3662078731	-0.9845204696	 0.104572
H	 0.6852809959	-0.3383179321	 0.7552032425	 0.078955
H	-1.1869081784	-2.2591165849	-1.1442642167	 0.115813
H	-0.668593052	-2.6185190905	 0.5228873778	 0.093584
H	-3.5103649501	-1.9959214835	-0.4113948598	 0.1038
H	-3.5827165086	-3.7447147299	 1.4417581312	 0.293711
H	-1.2613994725	-0.4054010358	 2.2975425957	 0.114584
H	-2.4629170046	 0.6240999691	 1.4974481444	 0.138119
78.1534	98.6381	129.9854	208.4573	248.0957	259.0721	330.3036	355.676	384.7726	411.785	498.7866	548.6597	601.0044	648.6501	764.9624	808.0176	850.2973	943.1302	971.3864	1012.4956	1062.2426	1087.8704	1116.5458	1120.741	1165.7463	1177.1554	1194.2878	1208.32	1245.423	1263.3652	1292.9687	1326.4496	1351.9148	1376.3877	1402.4393	1412.3303	1423.9886	1475.4555	1489.4782	1493.4612	1510.5588	1523.9968	1850.4301	2901.144	2914.2366	2932.2586	2954.5766	3041.3056	3049.4647	3063.798	3088.8966	3110.8239	3118.8095	3725.6338
CCN1CC(O)C(=O)C1	CCN1C[C@@H](O)C(=O)C1	
InChI=1S/C6H11NO2/c1-2-7-3-5(8)6(9)4-7/h5,8H,2-4H2,1H3	InChI=1S/C6H11NO2/c1-2-7-3-5(8)6(9)4-7/h5,8H,2-4H2,1H3/t5-/m1/s1
