19
gdb 66817	2.67432	2.16638	1.79295	1.315	84.31	-0.1922	-0.0161	0.1762	875.9636	0.160377	-348.659883	-348.653144	-348.6522	-348.690311	29.119	
C	-0.0022415934	 1.6126302275	-0.229584248	-0.51784
C	 0.1049036249	 0.1194223995	-0.0687912426	 0.353955
C	 0.7745979582	-0.7929274861	-1.1118865982	-0.154263
C	 1.2019741987	-1.9590919996	-0.2652002552	-0.072747
C	 1.163183403	-1.6267714988	 1.1676701508	-0.110303
C	 0.4070663781	-0.5112793456	 1.3151575327	-0.037643
C	-1.0736242368	-0.8011491088	 1.6110860753	-0.27967
C	-1.1242943789	-0.8381017981	 0.0245233625	-0.067185
C	-0.2776082312	-1.8445970894	-0.8204019436	-0.106359
H	 0.9884910685	 2.0798662278	-0.1890822395	 0.12238
H	-0.4603800834	 1.8797996222	-1.1887055896	 0.112059
H	-0.6073046051	 2.055016864	 0.5690388905	 0.119203
H	 1.2465657667	-0.5081267356	-2.0432493288	 0.086155
H	 1.804829767	-2.7480459373	-0.7023426351	 0.086289
H	 1.1949130586	-2.4143084294	 1.9158886124	 0.091426
H	-1.2931955749	-1.706032555	 2.1806296798	 0.103417
H	-1.6890653685	 0.0292556467	 1.9749539269	 0.100109
H	-2.0638493414	-0.5592395502	-0.460787333	 0.080313
H	-0.6631061002	-2.6250048838	-1.4626619872	 0.090705
216.2223	235.8149	250.1789	362.8308	478.4069	505.8178	572.008	649.0025	692.7154	712.1069	727.43	768.0748	790.5597	802.8644	851.6027	879.5891	900.883	915.7506	940.0118	974.1022	997.7707	1003.101	1028.8426	1038.2562	1072.6977	1090.3052	1102.1901	1153.8076	1184.9073	1189.5904	1211.4119	1242.7466	1264.6769	1291.8159	1342.5703	1354.286	1411.4531	1486.6893	1491.8294	1496.8975	1562.3555	3021.882	3035.6626	3074.9193	3085.5529	3093.4404	3114.8731	3155.3222	3171.3401	3192.619	3207.4416
CC12C3C4C=C1CC2C34	C[C@@]12[C@H]3[C@H]4[CH][C]1C[C@@H]2[C@@H]34	
InChI=1S/C9H10/c1-9-4-2-5-7(8(5)9)6(9)3-4/h2,5-8H,3H2,1H3	InChI=1S/C9H10/c1-9-4-2-5-7(8(5)9)6(9)3-4/h2,5-8H,3H2,1H3/t5-,6+,7-,8-,9+/m0/s1
