18
gdb 62501	1.88824	1.5619	1.11689	4.2211	83.8	-0.2599	0.0111	0.271	1178.0641	0.144917	-364.792137	-364.782433	-364.781489	-364.826251	35.858	
C	-0.0874916368	 1.5483469252	 0.0291086388	-0.4551
C	 0.0047294919	 0.037475611	-0.0144372301	 0.280489
C	-1.1911012046	-0.6904717755	 0.56798186	-0.448924
C	 0.7016166452	-0.6234616586	-1.192965154	-0.272808
C	 1.2612600224	 0.1326098504	-2.2717086565	 0.343316
C	 1.7240299666	 0.7565485554	-3.1892900952	-0.425479
C	 1.3612427994	-0.6228634171	 0.2017694471	-0.239985
C	 2.5387579632	 0.1583294473	 0.4466488908	 0.311545
N	 3.4878087058	 0.7834364072	 0.6635679042	-0.343176
H	 0.7938053315	 2.0260783027	-0.4015916719	 0.153975
H	-0.9644900329	 1.886989126	-0.5323973013	 0.125563
H	-0.1931872122	 1.8931857647	 1.0628975833	 0.127561
H	-2.1044443201	-0.42259261	 0.0260432611	 0.130985
H	-1.0731724628	-1.7770139889	 0.5117660997	 0.119727
H	-1.3337850953	-0.4202931873	 1.6197917003	 0.13078
H	 0.3102309404	-1.5959503623	-1.4798965736	 0.123571
H	 2.1429027853	 1.3090446929	-3.9937702956	 0.204476
H	 1.3609180028	-1.5803375931	 0.712887413	 0.133482
93.8431	128.5551	154.2164	166.2916	188.1456	237.6177	305.4229	348.0226	357.3652	376.3309	449.81	540.8272	562.797	611.7228	653.7527	666.4503	705.3888	806.2515	814.4144	953.5151	976.7511	994.1522	1003.8352	1067.4089	1090.3725	1139.7832	1149.9174	1235.738	1323.0846	1351.9037	1410.0157	1417.3104	1434.4803	1478.7854	1488.9575	1498.4168	1508.9567	2241.1748	2353.4745	3030.8263	3041.2507	3098.0534	3102.8222	3105.1311	3140.5278	3142.63	3161.9701	3502.9157
CC1(C)C(C#C)C1C#N	CC1(C)[C@@H](C#C)[C@H]1C#N	
InChI=1S/C8H9N/c1-4-6-7(5-9)8(6,2)3/h1,6-7H,2-3H3	InChI=1S/C8H9N/c1-4-6-7(5-9)8(6,2)3/h1,6-7H,2-3H3/t6-,7+/m0/s1
