21
gdb 119953	2.64961	0.84599	0.74885	2.8965	81.46	-0.2407	-0.0181	0.2225	1616.3728	0.180297	-424.222775	-424.212486	-424.211542	-424.258873	36.873	
C	-0.2026052061	 1.5406833484	 0.0674477999	-0.384381
C	-0.1867613944	 0.0211356655	-0.114801889	-0.161711
C	 0.874233339	-0.445265897	-1.1224134939	-0.19861
C	 0.8911215853	-1.9559767125	-1.2610455114	-0.05681
C	 0.0517256063	-2.6587788756	-2.2635378082	 0.074535
O	-0.721919564	-1.8544240023	-3.0994704179	-0.410089
C	 1.5799672145	-2.6884749974	-2.4306460651	-0.192766
C	 2.2231031002	-1.9476193224	-3.5355157727	 0.155083
O	 3.2323974816	-2.3181647442	-4.0904179541	-0.278286
H	 0.7653229731	 1.9075588523	 0.4269347876	 0.114499
H	-0.4180633344	 2.0497176277	-0.8784402961	 0.117846
H	-0.9642613594	 1.8470847686	 0.7910025575	 0.112886
H	-0.0064325463	-0.4641410425	 0.8537476659	 0.092439
H	-1.1712245495	-0.323104948	-0.4535888973	 0.111561
H	 0.6731150595	 0.0232619377	-2.0894910703	 0.117473
H	 1.8649894213	-0.0992765648	-0.8008529283	 0.101388
H	 1.0093909804	-2.478701184	-0.3148465634	 0.101069
H	-0.4080566836	-3.6060705017	-1.9834135519	 0.100613
H	-0.841205798	-2.3109462509	-3.9389857125	 0.297561
H	 2.082615383	-3.6203366052	-2.1930737338	 0.1045
H	 1.7116348914	-1.0151187717	-3.8512057751	 0.081201
56.5062	79.0553	88.2669	128.541	191.6866	240.3606	244.4173	257.6204	352.5925	359.5734	421.7771	449.9277	570.1164	600.7338	749.1609	764.6398	844.8582	880.7163	895.3999	930.5029	998.5282	1003.5614	1047.9217	1054.8276	1067.082	1118.8191	1144.6755	1182.412	1187.5533	1237.3024	1264.6577	1292.7828	1305.2608	1331.7704	1335.8773	1378.5818	1402.8659	1413.668	1442.8306	1470.5663	1483.2501	1492.4514	1500.8299	1509.1898	1800.5472	2916.3309	3017.7616	3027.1433	3030.9646	3057.0198	3092.5693	3101.4037	3103.1438	3103.6379	3137.4376	3170.3311	3809.0612
CCCC1C(O)C1C=O	CCC[C@H]1[C@@H](O)[C@H]1C=O	
InChI=1S/C7H12O2/c1-2-3-5-6(4-8)7(5)9/h4-7,9H,2-3H2,1H3	InChI=1S/C7H12O2/c1-2-3-5-6(4-8)7(5)9/h4-7,9H,2-3H2,1H3/t5-,6+,7-/m1/s1
