13
gdb 15447	3.31963	1.97832	1.34043	5.9396	64.73	-0.2646	-0.0701	0.1945	864.2393	0.096537	-361.509758	-361.502961	-361.502017	-361.541352	24.549	
O	-0.010114091	-0.0111476612	 0.1664579549	-0.30391
C	-0.0627926568	 1.1865745339	 0.0859781621	 0.385154
C	-1.2510603369	 2.053192892	-0.0360425095	-0.169694
C	-0.9016518443	 3.3439687676	-0.0479366739	-0.045498
C	 0.5826447501	 3.5734955616	 0.0723044348	-0.286976
C	 1.1820055504	 2.1442838396	 0.0580044388	-0.261366
C	 2.1167752852	 1.8734721731	 1.1390091496	 0.284736
N	 2.8522788827	 1.6787326086	 2.0088635118	-0.318864
H	-2.2514821757	 1.6454475145	-0.0926613556	 0.133029
H	-1.5935836584	 4.175619295	-0.1242347371	 0.131852
H	 0.9666060641	 4.1909220439	-0.7464821103	 0.13854
H	 0.8209749465	 4.1052331971	 0.9999436671	 0.154478
H	 1.6921281041	 1.9492896544	-0.8923947927	 0.15852
59.1262	146.925	224.7466	314.8868	409.902	499.9158	526.3389	602.9845	663.5614	753.9379	774.5976	826.932	919.2555	957.7681	994.4411	1031.5397	1066.6273	1114.0363	1158.3511	1172.9004	1210.6066	1299.9202	1332.4097	1364.0188	1474.4367	1653.4285	1836.7657	2361.6527	3049.5395	3053.7883	3084.297	3198.6041	3236.4572
O=C1C=CCC1C#N	O=C1C=CC[C@H]1C#N	
InChI=1S/C6H5NO/c7-4-5-2-1-3-6(5)8/h1,3,5H,2H2	InChI=1S/C6H5NO/c7-4-5-2-1-3-6(5)8/h1,3,5H,2H2/t5-/m0/s1
