20
gdb 78672	2.65326	1.56656	1.2019	1.5247	78.8	-0.2406	0.0653	0.3059	1113.3739	0.170455	-403.099692	-403.090998	-403.090054	-403.132397	33.658	
C	-0.0892026206	 1.4478215955	 0.0135280008	-0.417798
C	 0.0251725034	-0.0725352482	 0.0532122437	 0.013877
C	 0.8499742941	-0.6546231565	-1.0874281298	-0.085343
N	 2.144770118	-0.5688116381	-0.3173522087	-0.208523
C	 1.1905402608	-0.5924234661	 0.9195003864	-0.074082
C	 1.1539059541	-2.1319128614	 0.8104216875	 0.066579
O	-0.0381652269	-2.8424051791	 1.0570779407	-0.43824
C	 1.5216197515	-1.9124479602	-0.6407550959	 0.316108
C	 2.1541834831	-2.8946577706	-1.5765733508	-0.511103
H	 0.8861791365	 1.9109599034	-0.1656326691	 0.131843
H	-0.7685517019	 1.7698020768	-0.7831278398	 0.113518
H	-0.4821769511	 1.8335186999	 0.9604341862	 0.111407
H	-0.9467577953	-0.5386823066	 0.245696293	 0.081352
H	 0.8119145634	-0.3845610813	-2.1384377243	 0.086909
H	 1.4913430277	-0.0859482841	 1.8364342126	 0.070754
H	 2.0076039642	-2.5744792662	 1.3420901858	 0.075801
H	-0.0892210079	-3.0412367139	 1.9972177007	 0.284901
H	 1.4271906203	-3.651844333	-1.8894598586	 0.131235
H	 2.5294158772	-2.3909118146	-2.4724598055	 0.128454
H	 2.9964746994	-3.4063173955	-1.098973035	 0.122351
164.6651	167.6965	197.5128	228.1035	230.8035	249.7204	262.1998	328.0047	397.3695	524.692	592.688	661.8873	732.96	764.7151	797.2903	826.3464	866.4652	933.6135	960.3976	989.3613	1003.0913	1021.7246	1066.8861	1080.4611	1093.1054	1122.789	1130.8951	1174.0485	1201.3718	1226.1936	1261.051	1263.1693	1283.8047	1337.8735	1371.9771	1402.7098	1408.9246	1415.7726	1465.1426	1482.7216	1493.351	1496.5383	1502.0467	3012.0061	3030.0214	3032.5282	3052.5722	3093.4172	3098.044	3109.0851	3109.5892	3118.7562	3162.4485	3820.6451
CC1C2N3C1C(O)C23C	C[C@H]1[C@H]2N3[C@@H]1[C@@H](O)[C@@]23C	
InChI=1S/C7H11NO/c1-3-4-6(9)7(2)5(3)8(4)7/h3-6,9H,1-2H3	InChI=1S/C7H11NO/c1-3-4-6(9)7(2)5(3)8(4)7/h3-6,9H,1-2H3/t3-,4+,5-,6-,7-,8?/m1/s1
