19
gdb 44960	2.51443	1.79773	1.55492	1.6002	73.9	-0.2005	-0.0214	0.1791	948.9021	0.163481	-419.211644	-419.204596	-419.203652	-419.242874	28.931	
O	-0.0113772205	-0.0046765416	-0.0142565035	-0.32602
C	-0.0219455685	 1.1986195922	-0.0338937458	 0.398357
C	-1.2598480186	 2.1207129042	-0.0595861059	-0.292916
N	-0.7454577673	 3.4942971139	 0.0836373636	-0.086816
C	 0.5756828167	 3.4176228944	-0.5890171876	-0.179882
C	 1.191394102	 2.1562548423	 0.0188981827	-0.101731
N	 1.5440466475	 2.4607127092	 1.4208777136	-0.29516
C	 0.3809457413	 2.8302810554	 2.2479654521	-0.180111
C	-0.510057552	 3.8416435207	 1.4983365346	-0.15935
H	-1.7642850685	 2.0082988015	-1.0283992729	 0.1315
H	-1.9781150883	 1.8557038444	 0.7210195349	 0.130031
H	 0.4274369951	 3.3162981266	-1.6702237288	 0.103746
H	 1.1654230048	 4.3144990016	-0.3901631843	 0.115001
H	 2.0645806009	 1.7490456315	-0.4929697467	 0.090393
H	 2.0020580956	 1.6528960089	 1.8305157321	 0.230702
H	-0.2268910264	 1.9554145259	 2.5362548643	 0.096775
H	 0.7432164301	 3.2793096579	 3.1790934016	 0.107459
H	-0.0426852092	 4.8316265696	 1.5108490733	 0.112223
H	-1.4741663248	 3.9266691615	 2.0102765627	 0.1058
112.3164	230.4987	264.8107	374.7048	422.5696	448.4836	464.5628	530.8386	593.5031	646.957	711.0569	781.0616	795.7056	839.9422	870.7928	894.5693	910.9818	954.5806	1008.142	1044.6253	1054.4772	1080.1537	1113.4997	1135.4505	1158.1127	1192.2615	1222.4325	1249.7008	1277.6232	1295.5924	1322.681	1327.3214	1336.1293	1378.475	1398.5155	1454.2391	1474.8523	1481.4886	1494.3685	1515.5888	1849.4916	2949.5048	3024.322	3039.3783	3043.2892	3060.2506	3088.4238	3100.0108	3106.5527	3116.9933	3518.1835
O=C1CN2CC1NCC2	O=C1CN2C[C@H]1NCC2	
InChI=1S/C6H10N2O/c9-6-4-8-2-1-7-5(6)3-8/h5,7H,1-4H2	InChI=1S/C6H10N2O/c9-6-4-8-2-1-7-5(6)3-8/h5,7H,1-4H2/t5-/m1/s1
