22
gdb 83874	2.02707	1.84853	1.28776	1.0266	82.35	-0.1938	0.0783	0.2721	1107.0989	0.195056	-404.31848	-404.309555	-404.308611	-404.351725	34.282	
C	-0.3767273157	 1.456888646	-0.2482057488	-0.411831
C	-0.0585437267	-0.00908321	-0.0551607548	-0.05854
C	 1.3325461921	-0.5495524566	-0.3205697609	 0.042255
O	 2.3423884857	 0.3747875032	-0.6092471181	-0.253075
C	 3.2544682037	 0.5240309991	 0.4723160453	-0.086874
C	 2.5356324035	 1.0733059559	 1.6955837258	-0.148944
N	 1.4725348182	 0.1708899513	 2.1081846545	-0.066665
C	 0.616369398	 0.7015027263	 3.1501733863	-0.317384
C	 0.7967899139	-0.5752788578	 1.085303887	-0.031661
H	 0.5033900011	 2.0841811143	-0.0999395207	 0.129511
H	-0.7337987333	 1.6373587545	-1.2684727119	 0.117017
H	-1.1597459911	 1.7907507832	 0.4402308345	 0.113177
H	-0.8594683433	-0.6801073438	-0.35887583	 0.078223
H	 1.4492300413	-1.4880255346	-0.8607920693	 0.086563
H	 3.730395821	-0.439092289	 0.7103956405	 0.097193
H	 4.0250099063	 1.2220571761	 0.1345801444	 0.108663
H	 3.2482155001	 1.1848466205	 2.5250552734	 0.096961
H	 2.1641745539	 2.0875979223	 1.4571693025	 0.085846
H	 0.0150523589	 1.5718929957	 2.8326114011	 0.100161
H	-0.0727810456	-0.0767896813	 3.4935984879	 0.116929
H	 1.2279707809	 1.0112734325	 4.0056982463	 0.113416
H	 0.4648140067	-1.5475495279	 1.4470689952	 0.08906
99.4217	145.427	167.9223	205.9367	221.199	270.2725	318.8917	343.8848	427.4856	498.052	524.6617	615.116	678.9303	736.966	770.3331	815.1859	894.6558	912.671	975.5972	987.8929	1064.4353	1071.4758	1095.1729	1108.3673	1118.9804	1137.0174	1142.2163	1157.9883	1180.5442	1202.2283	1252.1201	1261.8887	1287.7831	1344.54	1353.7738	1380.0496	1403.8869	1410.5114	1415.9174	1437.0658	1463.0457	1483.8732	1492.588	1494.3808	1499.1965	1510.9714	1524.1769	2924.4405	2950.0438	2995.0292	3017.0059	3035.0611	3047.1769	3088.3577	3094.0227	3095.541	3098.0003	3104.475	3123.8044	3141.9092
CC1C2OCCN(C)C12	C[C@H]1[C@H]2OCCN(C)[C@@H]12	
InChI=1S/C7H13NO/c1-5-6-7(5)9-4-3-8(6)2/h5-7H,3-4H2,1-2H3	InChI=1S/C7H13NO/c1-5-6-7(5)9-4-3-8(6)2/h5-7H,3-4H2,1-2H3/t5-,6+,7-/m1/s1
