18
gdb 6030	2.56019	1.8085	1.46728	2.6798	63.82	-0.251	-0.0284	0.2227	948.0715	0.149291	-422.087375	-422.077542	-422.076598	-422.122064	35.218	
C	 0.0043947871	 1.4833231609	-0.246914926	-0.436546
C	-0.0548974995	-0.0280070398	-0.0368652151	 0.118548
O	 0.5678489582	-0.3995929873	 1.1975095902	-0.458167
C	-1.499544271	-0.5750215447	 0.0941918346	 0.284025
C	-1.4983104531	-2.113568766	 0.1581376256	-0.433489
O	-2.1200848357	-0.0128560297	 1.2401134095	-0.483189
C	-2.3465642976	-0.1423706149	-1.0979104755	 0.13784
O	-2.0453304837	-0.3493469744	-2.2453758484	-0.269857
H	 1.0433299414	 1.8318936047	-0.2182584184	 0.106315
H	-0.4040451746	 1.7592029788	-1.2228091128	 0.14262
H	-0.5613350416	 1.998865877	 0.5335691321	 0.133811
H	 0.4294812819	-0.5407634749	-0.878730085	 0.08978
H	 1.3872003137	 0.0964673287	 1.2841027961	 0.289855
H	-0.8486927116	-2.4478197783	 0.97025546	 0.135241
H	-2.5118955742	-2.4790877814	 0.3438081557	 0.123808
H	-1.1377811755	-2.5346998929	-0.7843864815	 0.13222
H	-1.4718419288	-0.0963118812	 1.9514667951	 0.288962
H	-3.2882036954	 0.3750375057	-0.8113457161	 0.098223
32.6607	89.0034	188.1843	233.7262	239.2577	246.0371	269.252	281.1372	319.9061	348.8007	418.6412	449.0454	477.2722	555.6323	659.5553	730.2466	885.808	925.8359	947.0071	990.6959	1023.1414	1074.5506	1114.9509	1145.3419	1167.0279	1191.7476	1259.8323	1362.9135	1377.0092	1384.0653	1400.7425	1408.8342	1412.6537	1491.5715	1492.3817	1495.5454	1505.4136	1830.9978	2901.4623	3017.7627	3035.3088	3047.2352	3103.8474	3125.7696	3132.6021	3135.1498	3774.247	3831.416
CC(O)C(C)(O)C=O	C[C@@H](O)[C@@](C)(O)C=O	
InChI=1S/C5H10O3/c1-4(7)5(2,8)3-6/h3-4,7-8H,1-2H3	InChI=1S/C5H10O3/c1-4(7)5(2,8)3-6/h3-4,7-8H,1-2H3/t4-,5+/m1/s1
