19
gdb 55936	4.21711	0.92031	0.84193	3.4588	76.79	-0.2385	0.0591	0.2976	1397.6666	0.160587	-419.218279	-419.20954	-419.208596	-419.253181	33.051	
N	-0.0347964361	 1.3913924775	 0.0565115021	-0.568911
C	 0.0760797722	 0.0028696297	 0.007095556	 0.449816
O	 1.1493969261	-0.5700306834	 0.0461330886	-0.393102
N	-1.1340747785	-0.6493546691	-0.0636781253	-0.349298
C	-1.2166074678	-2.0869741255	 0.0331013982	 0.067016
C	-1.5525327868	-2.7889519294	 1.4028896706	-0.260768
C	-2.716566914	-3.5071765601	 0.7112112543	-0.033628
C	-3.6898664147	-2.4920384915	 0.1919864068	-0.286587
C	-2.4332980396	-2.7606957701	-0.597730289	-0.076239
H	 0.8497193627	 1.844492378	-0.1190353939	 0.258356
H	-0.8067661719	 1.8115701362	-0.4403655212	 0.244225
H	-1.9691694155	-0.1237779831	 0.1414242406	 0.234698
H	-0.2776806688	-2.4752722076	-0.3596269587	 0.120447
H	-0.7459748829	-3.4436996508	 1.7376074491	 0.113997
H	-1.8329155307	-2.1250686642	 2.2275299096	 0.092576
H	-2.9833835982	-4.5477747194	 0.8424611729	 0.090404
H	-4.5965053722	-2.8863678118	-0.2554022611	 0.114815
H	-3.8403631193	-1.5561084183	 0.7280526126	 0.094676
H	-2.4822006439	-3.1209710271	-1.6186088423	 0.087508
18.8691	85.7892	111.6975	228.1689	330.544	355.67	384.076	440.1719	455.8721	551.9006	567.7422	622.5498	708.4673	778.5281	783.6646	805.9081	862.6875	923.454	957.5556	968.8197	988.1281	1018.5684	1030.9918	1066.7404	1082.5398	1091.4596	1102.436	1133.8992	1176.5246	1223.0564	1233.0511	1259.7841	1294.6122	1316.6273	1361.8203	1394.7429	1480.0521	1497.1503	1536.4338	1627.758	1800.9613	3047.0524	3094.6062	3113.5153	3132.131	3176.4795	3189.7546	3202.3631	3567.6324	3625.8234	3680.6036
NC(=O)NC1CC2CC12	NC(=O)N[C@H]1C[C@H]2C[C@@H]12	
InChI=1S/C6H10N2O/c7-6(9)8-5-2-3-1-4(3)5/h3-5H,1-2H2,(H3,7,8,9)	InChI=1S/C6H10N2O/c7-6(9)8-5-2-3-1-4(3)5/h3-5H,1-2H2,(H3,7,8,9)/t3-,4-,5+/m1/s1
