20
gdb 97683	2.61554	0.83046	0.70802	2.3329	86.08	-0.2333	0.0382	0.2715	1690.6921	0.169699	-403.094625	-403.084253	-403.083309	-403.132652	36.588	
C	-0.7240793296	 1.0667125246	 0.0400465235	-0.36369
C	 0.6722944123	 0.4340989447	 0.1858916444	-0.320199
C	 1.1679622623	-0.1552441702	-1.0533941899	 0.117995
C	 1.5566035268	-0.6318544367	-2.0906485979	 0.010706
C	 2.0217162455	-1.1772180991	-3.3394449782	 0.092029
C	 2.3776857855	-0.1805152924	-4.4346802723	-0.107504
O	 1.2264618177	 0.443693112	-4.9601638888	-0.414937
C	 2.6614256158	-2.5272149166	-3.3383881994	-0.267406
N	 1.3128121879	-2.3661607288	-3.8974530838	-0.358934
H	-0.7141054165	 1.8574080585	-0.714618508	 0.134894
H	-1.4597939613	 0.3182433826	-0.2664842236	 0.126314
H	-1.0474541286	 1.4992378776	 0.9915642496	 0.114408
H	 1.3844784051	 1.193934724	 0.5328625187	 0.132283
H	 0.6488347473	-0.3337640009	 0.9699742467	 0.128127
H	 3.013440763	 0.614140545	-4.0335176714	 0.113211
H	 2.9417005653	-0.712008684	-5.2164517577	 0.087034
H	 0.6444703807	-0.2726130865	-5.242015188	 0.290396
H	 3.4370642243	-2.7469543316	-4.0671972282	 0.12213
H	 2.7745719874	-3.026786884	-2.3812446732	 0.122653
H	 0.6242042791	-2.6864330381	-3.2212637925	 0.24049
8.5201	59.2707	96.8026	100.837	191.6798	219.5165	249.7894	323.8297	333.4463	396.165	454.983	502.0844	545.6682	560.1228	658.0212	783.872	794.0167	886.3573	911.6069	945.2597	988.182	998.1626	1051.0772	1079.341	1083.6802	1103.1389	1105.8656	1149.9281	1210.9266	1273.3571	1285.9934	1322.7618	1342.7121	1363.4698	1401.3098	1409.1408	1431.276	1472.8504	1493.8603	1494.371	1504.6509	1505.3711	2358.2622	2986.2947	3018.7123	3044.4803	3046.0191	3089.8455	3111.6504	3117.7581	3125.5951	3203.0117	3509.6369	3784.8246	8.5182	59.2708	96.8026	100.8369	191.6799	219.5166	249.7895	323.8298	333.4464	396.165	454.983	502.0845	545.6683	560.1227	658.0212	783.8721	794.0168	886.3575	911.607	945.2597	988.182	998.1627	1051.0772	1079.341	1083.6802	1103.1389	1105.8656	1149.9281	1210.9266	1273.357	1285.9936	1322.7618	1342.7122	1363.4697	1401.3098	1409.1408	1431.276	1472.8506	1493.8603	1494.371	1504.651	1505.3711	2358.2623	2986.2947	3018.7123	3044.4803	3046.0191	3089.8455	3111.6505	3117.7581	3125.5951	3203.0118	3509.6372	3784.8247
CCC#CC1(CO)CN1	CCC#C[C@@]1(CO)CN1	
InChI=1S/C7H11NO/c1-2-3-4-7(6-9)5-8-7/h8-9H,2,5-6H2,1H3	InChI=1S/C7H11NO/c1-2-3-4-7(6-9)5-8-7/h8-9H,2,5-6H2,1H3/t7-/m0/s1
