19
gdb 69906	2.62282	1.80558	1.42273	2.6411	78.52	-0.2324	0.004	0.2364	982.571	0.16058	-385.874076	-385.866637	-385.865693	-385.905602	30.401	
C	 0.0559506863	 1.4559324383	-0.0237336141	-0.478809
C	-0.0152515461	-0.0510951661	-0.0360418737	 0.347794
C	-0.8656441101	-0.8076144482	 0.9519321739	-0.370359
C	 0.6344089767	-0.9490966649	 1.039146374	-0.072961
C	 1.3725520895	-1.975786448	 0.1661288422	-0.157354
C	 0.3700294733	-2.2954694576	-0.9832117989	-0.266709
C	 0.4641652208	-0.7762368313	-1.3105174501	-0.201611
C	 1.9567471637	-0.9679378397	-0.8783001737	 0.437965
O	 3.0280071917	-0.5822895866	-1.2264013655	-0.322172
H	 1.0231846032	 1.808551945	-0.399790771	 0.132861
H	-0.7262790938	 1.8981798881	-0.6520048915	 0.119789
H	-0.0725319968	 1.8490411186	 0.9896771619	 0.116519
H	-1.300247532	-0.1878982095	 1.7302757386	 0.114253
H	-1.5060927602	-1.6324025122	 0.6639378202	 0.113294
H	 1.164079599	-0.5202891212	 1.8819157753	 0.098324
H	 1.9731011547	-2.7430417626	 0.6496138735	 0.08235
H	 0.8240797983	-2.9102722586	-1.762977829	 0.116784
H	-0.6024821234	-2.7043036169	-0.7148197131	 0.110869
H	 0.1785651951	-0.3649769864	-2.2768153491	 0.079173
118.5113	185.5118	225.6388	310.6701	366.7454	456.0305	469.7068	483.2805	587.4675	638.3436	689.7832	741.7784	804.6313	826.0513	858.7977	882.7949	928.7757	957.8147	968.1023	983.2674	1016.0409	1026.6471	1051.2039	1061.1456	1068.8007	1096.4065	1117.5171	1141.1843	1186.6096	1198.6631	1235.5252	1263.6356	1288.8199	1294.4855	1376.49	1421.7507	1479.5754	1489.641	1502.3624	1527.9339	1903.8268	3023.0383	3082.6378	3086.7536	3099.8488	3133.4386	3139.8567	3145.6294	3151.7822	3179.6145	3211.778
CC12CC1C1CC2C1=O	C[C@]12C[C@H]1[C@H]1C[C@@H]2C1=O	
InChI=1S/C8H10O/c1-8-3-6(8)4-2-5(8)7(4)9/h4-6H,2-3H2,1H3	InChI=1S/C8H10O/c1-8-3-6(8)4-2-5(8)7(4)9/h4-6H,2-3H2,1H3/t4-,5-,6+,8-/m1/s1
