21
gdb 86754	3.03053	1.0826	0.87121	1.1631	91.73	-0.2344	0.0228	0.2572	1394.2649	0.181229	-349.946226	-349.936585	-349.935641	-349.980541	36.509	
C	 0.6554776993	 1.6295981206	-0.1257249423	-0.395973
C	-0.0613629561	 0.2936700876	 0.1434663098	-0.073282
C	 0.0622720749	-0.7145647748	-1.0271275893	-0.236122
C	 1.2110652691	-1.6897347504	-0.6207318494	-0.189986
C	 1.2445294028	-1.5273460506	 0.8905151815	-0.179244
C	 0.555159034	-0.466102146	 1.3093553357	 0.325041
C	 0.4007974266	 0.0012540601	 2.7232082837	-0.495183
C	 1.0053626813	-3.0611588969	-1.0752349661	 0.314904
C	 0.8306476379	-4.1912789069	-1.4472875746	-0.470594
H	 1.7139817041	 1.4682826064	-0.3574108476	 0.117525
H	 0.1985008745	 2.1513907863	-0.9728613631	 0.114582
H	 0.6022877057	 2.2959382478	 0.7413217089	 0.114169
H	-1.117335537	 0.5173090025	 0.3458395728	 0.069993
H	-0.8613900306	-1.2910450822	-1.1223637958	 0.113918
H	 0.2512427796	-0.2322857701	-1.9899534499	 0.099921
H	 2.1662143133	-1.3415002495	-1.0438120422	 0.105934
H	 1.8029490412	-2.2073522208	 1.5240009628	 0.095381
H	 0.9198968753	-0.6575688119	 3.4243434115	 0.124845
H	 0.7960001819	 1.0157896803	 2.8571790239	 0.127188
H	-0.6578212338	 0.0397696411	 3.010583125	 0.125945
H	 0.678391886	-5.1892215728	-1.7757272353	 0.191037
66.1763	115.0766	149.5804	188.744	229.2149	248.974	275.844	318.5198	361.2687	486.0475	521.2706	550.4774	605.496	612.1639	629.0383	660.9075	787.3964	846.123	871.9857	903.4367	937.7953	999.8981	1013.1053	1042.7602	1050.2991	1057.1336	1107.6846	1116.3617	1181.5311	1217.6061	1269.648	1278.7011	1288.8286	1332.2955	1354.166	1360.7651	1405.4419	1414.0554	1479.2142	1487.8871	1489.3182	1498.3302	1501.5869	1722.1653	2233.4284	2975.7	3008.4368	3019.1294	3029.6703	3062.5593	3065.3218	3099.403	3100.7241	3108.5984	3111.9702	3195.593	3505.6763
CC1CC(C=C1C)C#C	C[C@H]1C[C@@H](C=C1C)C#C	
InChI=1S/C9H12/c1-4-9-5-7(2)8(3)6-9/h1,5,8-9H,6H2,2-3H3	InChI=1S/C9H12/c1-4-9-5-7(2)8(3)6-9/h1,5,8-9H,6H2,2-3H3/t8-,9+/m0/s1
