18
gdb 33664	3.14202	1.43086	1.37569	2.016	82.94	-0.2259	0.025	0.251	1027.3576	0.149239	-364.746384	-364.739089	-364.738145	-364.777822	29.756	
C	-0.0414724953	-1.1742560233	-0.1788649576	-0.350934
C	-0.032937185	 0.022512831	-0.0496344873	 0.065913
C	 0.0191567205	 1.430253586	 0.1168076732	 0.25613
C	-0.954884446	 2.3186808113	 0.8042671146	-0.064325
C	-0.2510516742	 3.3019650236	 1.7329634349	-0.24527
C	 1.2593613788	 3.0600661057	 1.4616032501	-0.215122
C	 1.2623065566	 2.3714491225	 0.0929685744	-0.11658
C	 0.4644016458	 3.2102551679	-0.9303827769	-0.160012
N	-0.8049705608	 2.4464340909	-0.6713697115	-0.188129
H	-0.0594652476	-2.2290980896	-0.2977501791	 0.181422
H	-1.9310237965	 1.9282324975	 1.0705005241	 0.107925
H	-0.5511541056	 4.3331434699	 1.5175642193	 0.11332
H	-0.5216542402	 3.1044741621	 2.773810059	 0.110051
H	 1.8429935536	 3.9863042341	 1.4592760731	 0.100378
H	 1.6865350418	 2.3967111411	 2.2214847052	 0.108279
H	 2.2169291002	 1.9570337006	-0.2275171609	 0.082156
H	 0.3944944047	 4.2902777715	-0.7569175918	 0.098509
H	 0.7586512291	 3.0327394373	-1.9667762826	 0.11629
130.3005	150.8218	243.8812	358.1181	388.2306	496.2805	510.0779	534.4964	584.5064	618.1093	659.8753	694.4851	739.8064	826.5462	839.0894	872.0518	892.6717	923.0954	934.2292	991.9321	1016.9542	1050.3423	1081.5814	1108.4487	1148.5728	1165.943	1178.6857	1219.527	1256.5948	1273.0867	1291.0572	1306.0355	1323.7032	1338.8214	1413.7291	1483.2352	1494.2157	1513.874	2231.966	3036.9626	3040.906	3050.4916	3081.6776	3097.5447	3107.0306	3128.4958	3177.6856	3502.647
C#CC12C3CCC1CN23	C#C[C@@]12[C@H]3CC[C@@H]1CN23	
InChI=1S/C8H9N/c1-2-8-6-3-4-7(8)9(8)5-6/h1,6-7H,3-5H2	InChI=1S/C8H9N/c1-2-8-6-3-4-7(8)9(8)5-6/h1,6-7H,3-5H2/t6-,7-,8+,9?/m1/s1
