15
gdb 28964	2.95682	1.50234	1.00234	1.832	81.15	-0.2734	-0.0722	0.2012	1110.646	0.114636	-379.752544	-379.744805	-379.743861	-379.785212	28.188	
C	-0.0346601891	 1.5220466734	 0.0027813376	-0.509736
C	-0.009830815	 0.019197357	 0.0101002083	 0.186324
C	-0.0273060489	-0.7194814025	-1.1757601481	-0.037787
N	-0.0063755837	-2.0505898804	-1.2494896141	-0.266613
C	 0.034227424	-2.7312343776	-0.1016408729	 0.00876
C	 0.0551140272	-2.1201746719	 1.145468256	-0.197417
C	 0.0327636944	-0.7236794055	 1.2027995615	 0.121625
C	 0.0531425795	-0.0570480596	 2.4699795684	 0.217712
N	 0.0695217975	 0.4916652307	 3.4890498319	-0.333145
H	 0.8570333309	 1.9367055881	 0.484889211	 0.154058
H	-0.0797976518	 1.9047573514	-1.0193333806	 0.134035
H	-0.899266482	 1.908437507	 0.5526379649	 0.154158
H	-0.0605958366	-0.1891317049	-2.1254205565	 0.116656
H	 0.0507423588	-3.8147894509	-0.1808536908	 0.123422
H	 0.0878351648	-2.7068397043	 2.0554990634	 0.127949
77.299	135.7368	145.7102	219.7475	332.7543	396.2743	453.834	461.4136	558.5179	615.452	622.4707	748.3565	777.7985	835.9976	863.9353	957.2316	996.5787	1018.4954	1067.0302	1080.242	1180.5784	1223.4212	1250.4983	1281.8264	1328.929	1419.5967	1439.1624	1480.3576	1486.7869	1516.5673	1586.1689	1623.8194	2344.6788	3039.6047	3095.7393	3126.5782	3150.0745	3168.5193	3211.5125
CC1=CN=CC=C1C#N	Cc1cnccc1C#N	
InChI=1S/C7H6N2/c1-6-5-9-3-2-7(6)4-8/h2-3,5H,1H3	InChI=1S/C7H6N2/c1-6-5-9-3-2-7(6)4-8/h2-3,5H,1H3
