20
gdb 92755	3.71811	0.97798	0.7978	3.6349	82.93	-0.2399	-0.0212	0.2187	1443.5618	0.171387	-403.208791	-403.199476	-403.198532	-403.243146	34.787	
C	-0.0121878168	 1.5597249664	 0.0176073377	-0.404861
C	 0.0729845516	 0.0349990376	 0.0006289249	 0.041426
C	 0.9084330749	-0.5542016058	-1.1695150813	-0.274192
C	 1.5143345194	-1.7961268992	-0.5782610234	-0.131662
C	 1.4064666597	-1.8286054887	 0.7541145081	 0.24086
C	 0.6990467551	-0.5922432435	 1.2776719633	-0.359354
C	 1.9715981715	-2.9353992282	 1.5742755215	 0.307324
N	 1.8442920372	-2.7782902529	 2.9313891053	-0.541567
O	 2.4922112831	-3.9245931833	 1.0873883688	-0.367206
H	 0.9844681877	 2.0075304766	 0.1072918548	 0.114363
H	-0.4667975815	 1.942159944	-0.9024450405	 0.116088
H	-0.6155701193	 1.9175154697	 0.8587683997	 0.113643
H	-0.9418391075	-0.3706373899	-0.0916865558	 0.083065
H	 0.3038165765	-0.7514738537	-2.0620359183	 0.109655
H	 1.700841135	 0.1412108576	-1.487231145	 0.10969
H	 2.0157709997	-2.5657721631	-1.1528304456	 0.122224
H	 1.4162749531	 0.1005326827	 1.7451550181	 0.10129
H	-0.0612658027	-0.8147812595	 2.0356971794	 0.104529
H	 1.5799593093	-1.8990687471	 3.3399583387	 0.256778
H	 2.314674514	-3.4508206598	 3.5151121396	 0.257907
58.5966	88.4458	168.6298	191.4502	240.968	250.7493	315.4035	369.1394	404.6349	428.1471	490.6521	571.8398	599.7257	662.5412	753.6692	829.9449	860.0633	875.7879	919.1391	951.0544	953.9586	997.1031	1063.5201	1086.519	1099.5511	1109.1432	1151.2963	1174.7258	1238.9543	1266.2134	1306.1207	1316.3607	1351.6655	1366.1491	1374.4206	1413.685	1480.149	1494.9175	1497.5047	1501.3235	1614.8333	1692.5202	1774.4341	2985.2621	2992.6581	3022.719	3026.4352	3047.8607	3058.1562	3093.131	3096.6904	3215.082	3601.0817	3735.4681
CC1CC=C(C1)C(N)=O	C[C@H]1CC=C(C1)C(=O)N	
InChI=1S/C7H11NO/c1-5-2-3-6(4-5)7(8)9/h3,5H,2,4H2,1H3,(H2,8,9)	InChI=1S/C7H11NO/c1-5-2-3-6(4-5)7(8)9/h3,5H,2,4H2,1H3,(H2,8,9)/t5-/m0/s1
