21
gdb 120387	2.86557	0.86621	0.76298	3.4601	79.46	-0.2369	-0.0159	0.221	1552.0144	0.180298	-424.233038	-424.222887	-424.221943	-424.268873	36.516	
C	-0.5518156486	 1.4082408922	 0.0969782229	-0.41406
C	 0.0234667854	-0.0006540093	 0.0526097599	-0.102831
C	 0.6060301705	-0.6418966069	-1.2636719245	-0.034354
C	 0.9828287671	 0.347930122	-2.3635227429	-0.178869
C	 1.5845252338	-0.3299437611	-3.5890169251	-0.076048
O	 1.8933078044	 0.6816192278	-4.5347852028	-0.420226
C	 1.8235712316	-1.1899092764	-0.4456255958	-0.356199
C	 1.3903766032	-0.2647380033	 0.7025322257	 0.39313
O	 1.9418157078	 0.1779873916	 1.6686428171	-0.298602
H	 0.131426094	 2.1389994038	-0.3442573376	 0.128351
H	-1.5054678643	 1.4683633659	-0.4368225146	 0.119338
H	-0.7257073936	 1.7045456956	 1.1356346218	 0.134244
H	-0.691064777	-0.7062546827	 0.4982974193	 0.102413
H	-0.0360567344	-1.4248648068	-1.6770404595	 0.070768
H	 0.099326313	 0.9114294994	-2.68512212	 0.11038
H	 1.7036823465	 1.0857997038	-1.9887022517	 0.109838
H	 2.485316384	-0.8970288255	-3.3034719706	 0.087912
H	 0.8627975058	-1.055533452	-4.0001301516	 0.084559
H	 2.2917813783	 0.2645154669	-5.3040279556	 0.286623
H	 1.7362910489	-2.2465044355	-0.1731807921	 0.127025
H	 2.8266679936	-1.0157350897	-0.8447296724	 0.126611
48.6699	96.8892	112.07	133.7053	180.1627	196.1041	263.5599	263.9904	333.0879	405.0415	449.8996	493.5862	539.7292	692.1177	732.6585	792.0926	831.4892	877.7377	892.0465	974.6818	997.9473	1034.3764	1043.2116	1077.0318	1094.9116	1116.1958	1152.9206	1165.5467	1203.1179	1222.5137	1234.1823	1254.2883	1276.4161	1313.8546	1327.3733	1338.0413	1389.4859	1407.1569	1439.3342	1463.3059	1489.2826	1494.2394	1500.1774	1526.724	1886.6638	2957.4608	2984.1681	3016.8999	3026.8996	3041.5474	3052.6544	3061.145	3075.9866	3108.9873	3109.7551	3117.8513	3830.8903
CC1C(CCO)CC1=O	C[C@H]1[C@@H](CCO)CC1=O	
InChI=1S/C7H12O2/c1-5-6(2-3-8)4-7(5)9/h5-6,8H,2-4H2,1H3	InChI=1S/C7H12O2/c1-5-6(2-3-8)4-7(5)9/h5-6,8H,2-4H2,1H3/t5-,6-/m0/s1
