22
gdb 93004	2.63039	1.50149	1.10281	1.3893	87.6	-0.2229	0.0201	0.2431	1194.6629	0.195362	-367.215108	-367.206384	-367.20544	-367.247814	34.813	
C	 0.1496242764	 1.5705697886	 0.0317672856	-0.397611
C	 0.0257285937	 0.0419043403	 0.0195925246	 0.016671
C	 0.5532635327	-0.549558776	-1.3069960228	-0.26624
C	 0.7413270185	-2.0430256258	-1.2624966849	-0.096084
C	 1.0560628559	-2.6886400268	-0.13988296	-0.063553
C	 1.2170348277	-1.9765408757	 1.1593226936	 0.289665
C	 1.1944169506	-2.8400537206	 2.4011762606	-0.488472
N	 2.1614246293	-0.8168919107	 1.1234614779	-0.37184
C	 0.7112296407	-0.5781740147	 1.2227732376	-0.070572
H	 1.2034975477	 1.8669451742	-0.0012029159	 0.126149
H	-0.3552915896	 2.0164806581	-0.8317085407	 0.109047
H	-0.2936079507	 2.0006097995	 0.9365786026	 0.105004
H	-1.0382756986	-0.2236533161	 0.1027928867	 0.072541
H	-0.1283387476	-0.2747162796	-2.1201355238	 0.094376
H	 1.5163527914	-0.0774817019	-1.5434011873	 0.126395
H	 0.6461961981	-2.5921835216	-2.1955432637	 0.086041
H	 1.2060787371	-3.7653095776	-0.1403050931	 0.078249
H	 2.0313987526	-3.548570394	 2.4020136441	 0.122508
H	 1.264834918	-2.2316559631	 3.3088277291	 0.109821
H	 0.2685144309	-3.4229459934	 2.4595945678	 0.125714
H	 2.5923070423	-0.7075313612	 2.0394548222	 0.221322
H	 0.324293163	-0.2456470219	 2.1862567401	 0.070869
117.6293	163.6985	217.1318	240.3809	246.2118	295.3422	354.0915	372.9369	421.183	473.4424	529.9807	607.1808	664.304	716.6989	749.3775	836.7528	864.1432	901.0043	924.2289	941.391	978.4008	987.0439	1007.9443	1021.9716	1044.1251	1085.0969	1111.5834	1126.1397	1153.3369	1190.0147	1196.6677	1256.2328	1292.7752	1320.2192	1325.9449	1364.1128	1373.8214	1405.507	1414.5124	1428.8854	1452.1279	1473.5644	1484.5383	1497.2966	1501.9202	1503.2238	1715.9157	2998.2099	3019.6639	3022.0088	3028.0458	3057.9583	3084.8604	3094.4117	3096.7901	3101.03	3103.2688	3147.1853	3170.936	3479.8136
CC1CC=CC2(C)NC12	C[C@H]1CC=C[C@@]2(C)N[C@@H]12	
InChI=1S/C8H13N/c1-6-4-3-5-8(2)7(6)9-8/h3,5-7,9H,4H2,1-2H3	InChI=1S/C8H13N/c1-6-4-3-5-8(2)7(6)9-8/h3,5-7,9H,4H2,1-2H3/t6-,7-,8+/m0/s1
