21
gdb 37703	2.58245	2.16765	1.96174	0.0854	83.14	-0.2382	0.0865	0.3248	871.2097	0.188505	-349.962407	-349.956453	-349.955509	-349.992142	27.304	
C	-0.0438167113	 1.5390115373	-0.0032894045	-0.220947
C	 1.4500020364	 1.8859162889	 0.0551732064	-0.026146
C	 2.143298085	 1.5204890998	 1.3822064597	-0.081605
C	 1.7948733834	 0.0971878114	 1.744078557	-0.021599
C	 0.4545880968	-0.5145636337	 1.3641361967	-0.226888
C	-0.0078559935	-0.0078884301	-0.0178487524	-0.017639
C	 1.0967636674	-0.3033269805	-1.0604127145	-0.220946
C	 2.1969969861	 0.6793221897	-0.6371626674	-0.026146
C	 2.8662871326	 0.3526628402	 0.712118394	-0.081606
H	-0.6111269006	 1.9431020376	 0.8423196953	 0.088374
H	-0.4976661525	 1.9200653287	-0.9257464874	 0.086101
H	 1.7100090475	 2.8751429358	-0.3231490784	 0.059731
H	 2.5171166576	 2.2274247575	 2.1138280942	 0.074329
H	 2.187847771	-0.2132686375	 2.7091431991	 0.076934
H	 0.5360560904	-1.6094324884	 1.3507844351	 0.088033
H	-0.2975629531	-0.262909365	 2.1234069587	 0.088033
H	-0.9714562248	-0.453818513	-0.2803607477	 0.053453
H	 1.4263713713	-1.3479982863	-1.0460939934	 0.088374
H	 0.7388824984	-0.0772820053	-2.0718141942	 0.086101
H	 2.8989010958	 0.9547695339	-1.4250461261	 0.059731
H	 3.8874312061	 0.0139902891	 0.8437784599	 0.074329
289.4946	361.6215	385.3831	470.8893	476.9654	612.3321	614.2903	738.8085	748.8647	782.0835	807.1586	830.2602	845.486	871.7668	901.3611	920.9146	929.5071	967.9854	996.1112	1010.3742	1018.9097	1031.6853	1047.3648	1060.4911	1082.8102	1090.3625	1124.1698	1145.324	1151.5042	1174.4416	1196.6372	1252.1872	1267.9171	1282.5666	1285.5577	1313.4077	1324.635	1339.4147	1351.212	1360.1113	1380.0908	1439.8172	1478.0721	1484.1345	1499.4675	3007.3305	3026.7258	3029.5992	3041.152	3064.4659	3073.0534	3075.9912	3093.1242	3104.4716	3137.9727	3166.6475	3179.4708
C1C2C3C4CC1CC2C34	C1[C@H]2[C@H]3[C@H]4C[C@@H]1C[C@@H]2[C@@H]34	
InChI=1S/C9H12/c1-4-2-6-5(1)8-7(3-4)9(6)8/h4-9H,1-3H2	InChI=1S/C9H12/c1-4-2-6-5(1)8-7(3-4)9(6)8/h4-9H,1-3H2/t4-,5+,6-,7+,8-,9+
