17
gdb 49555	3.78121	1.31132	1.22166	1.2748	68.66	-0.2469	-0.0354	0.2115	1037.086	0.136885	-458.939927	-458.932577	-458.931632	-458.972029	28.152	
O	-0.7650356351	 1.0657094825	 0.4490040988	-0.256719
C	 0.2055612571	 1.0237007513	-0.2718554323	 0.118154
C	 1.3823419534	 1.9467775661	-0.1908992242	-0.105498
C	 1.1306161609	 3.4065234507	-0.7615647397	 0.103136
C	 0.5933061973	 3.7868166697	 0.6396986231	-0.305579
C	 1.5887779735	 2.7164054001	 1.1548753416	 0.115725
O	 2.9275624641	 3.2074195288	 1.1605973574	-0.276962
C	 3.1144779381	 4.2233390256	 0.1966882991	 0.020634
O	 2.4047244142	 3.9830942404	-1.0066972988	-0.272885
H	 0.27015318	 0.2641901563	-1.0828104544	 0.087131
H	 2.2767974977	 1.4774597955	-0.6056513902	 0.092785
H	 0.5275769758	 3.5445494775	-1.6596760485	 0.094725
H	 0.6808884184	 4.8190392378	 0.9813276533	 0.111892
H	-0.4268922449	 3.4291219173	 0.7729762289	 0.14962
H	 1.4125255375	 2.2022971846	 2.0992552392	 0.099351
H	 2.8101500102	 5.1947658421	 0.6138809129	 0.098345
H	 4.1777130017	 4.2514306534	-0.0521685763	 0.126144
68.9695	183.538	217.0427	289.6705	329.3822	371.3216	478.4814	488.8225	614.4588	702.2617	803.1866	840.5187	864.5845	890.479	923.4791	960.895	988.8932	998.229	1020.9873	1050.3711	1086.201	1117.165	1162.3872	1174.2087	1188.2226	1217.5521	1247.2609	1266.3525	1268.8454	1306.655	1343.7637	1373.9398	1427.3415	1441.6184	1483.7332	1542.4837	1800.5806	2880.461	2984.849	3091.9707	3097.2474	3103.4805	3109.1858	3123.2383	3161.2837
O=CC1C2CC1OCO2	O=C[C@H]1[C@H]2C[C@@H]1OCO2	
InChI=1S/C6H8O3/c7-2-4-5-1-6(4)9-3-8-5/h2,4-6H,1,3H2	InChI=1S/C6H8O3/c7-2-4-5-1-6(4)9-3-8-5/h2,4-6H,1,3H2/t4-,5+,6-
