13
gdb 129554	3.26533	1.21032	1.01801	3.1981	64.92	-0.2675	-0.075	0.1925	1129.6795	0.088016	-448.817175	-448.809047	-448.808103	-448.850953	28.827	
N	-0.0453933492	 1.515829574	 0.0341124266	-0.494305
C	 0.0328102093	 0.052687062	 0.0158941022	-0.248575
C	 0.6558866044	-0.5246848936	-1.1877105153	 0.320843
C	 1.1634588266	-0.9518058406	-2.1897222904	-0.461308
C	 0.7605342474	-0.4329227451	 1.2409955365	 0.457397
N	 1.625913163	 0.2545013482	 1.9244120588	-0.147409
O	 2.0273920356	-0.5844322419	 2.9071265731	-0.136812
N	 1.3531327653	-1.7951072326	 2.7668863553	 0.047321
N	 0.5974355978	-1.7011341683	 1.7679577819	-0.198871
H	 0.893771671	 1.9043691148	 0.0173309726	 0.253582
H	-0.5017831571	 1.8259918795	-0.8184429818	 0.245408
H	-0.9898526764	-0.3381309558	 0.091682028	 0.150824
H	 1.6106599624	-1.3375070307	-3.0729853075	 0.211906
34.5628	101.6211	184.023	212.2272	254.8231	315.8285	411.0332	459.7949	571.1735	650.6072	667.1218	674.5027	693.9791	718.55	816.1379	868.2808	963.8175	989.4744	1062.9845	1085.4455	1123.3754	1178.9369	1275.564	1334.4767	1398.0147	1486.7159	1595.799	1662.0254	2231.135	3036.7154	3497.2675	3500.3978	3578.0107
NC(C#C)C1=NON=N1	N[C@@H](C#C)c1nonn1	
InChI=1S/C4H4N4O/c1-2-3(5)4-6-8-9-7-4/h1,3H,5H2	InChI=1S/C4H4N4O/c1-2-3(5)4-6-8-9-7-4/h1,3H,5H2/t3-/m0/s1
