19
gdb 79865	2.88215	1.60156	1.3664	1.6232	74.66	-0.2304	0.0786	0.309	1007.4485	0.159757	-422.983391	-422.975569	-422.974625	-423.015246	31.06	
C	 0.0324759438	 1.5009249453	-0.0370742806	-0.533198
C	 0.033589047	-0.0019756256	-0.0246685486	 0.290858
C	 0.5945846494	-0.9645239624	-1.0847644598	 0.072924
O	 1.9899123871	-0.8690093375	-1.2628781403	-0.441034
C	 0.0380358897	-1.915903238	-0.0005804713	-0.150704
C	 0.6046906071	-0.9556978997	 1.1001808315	-0.095411
C	-0.4166414279	-0.9421046754	 2.2278917208	-0.115017
O	-1.6458457046	-0.9428880588	 1.4800481377	-0.28377
C	-1.1828553531	-0.9658923689	 0.1413108299	 0.098547
H	 1.0542279784	 1.893001292	-0.0704919034	 0.131293
H	-0.5040151298	 1.886578635	-0.9111449951	 0.119253
H	-0.4586936113	 1.8998553414	 0.8568532582	 0.126564
H	 0.0711450645	-0.9758710136	-2.0519269787	 0.05909
H	 2.2746730439	-1.6038861213	-1.8146166796	 0.284363
H	 0.0326145549	-3.0064695911	 0.015633137	 0.068074
H	 1.667289202	-0.9497425298	 1.3290364199	 0.085992
H	-0.368021415	-1.8284158839	 2.8730931246	 0.100332
H	-0.360019115	-0.0457959629	 2.8585343193	 0.101254
H	-2.0205899411	-0.9748569648	-0.5554276216	 0.08059
163.9485	199.9936	211.2645	248.5198	255.9149	290.6306	358.7608	524.3268	534.9719	638.1431	720.1242	742.0853	750.1819	812.2537	879.3834	927.9702	948.6701	959.5078	967.4518	998.3808	1010.2557	1056.33	1068.6366	1114.3535	1125.9209	1142.8768	1157.0402	1192.5923	1196.8005	1207.3899	1250.1819	1270.7276	1277.1896	1316.4934	1351.5372	1383.8886	1407.8642	1457.8251	1487.2271	1490.924	1522.1664	2995.0855	3014.8309	3029.3898	3050.8833	3094.4687	3102.2942	3105.675	3131.563	3158.8081	3821.5566
CC12C(O)C3C1COC23	C[C@@]12[C@@H](O)[C@H]3[C@@H]1CO[C@@H]23	
InChI=1S/C7H10O2/c1-7-3-2-9-6(7)4(3)5(7)8/h3-6,8H,2H2,1H3	InChI=1S/C7H10O2/c1-7-3-2-9-6(7)4(3)5(7)8/h3-6,8H,2H2,1H3/t3-,4+,5-,6+,7-/m0/s1
