19
gdb 70325	3.0011	1.5368	1.27549	2.1212	73.99	-0.22	0.0775	0.2975	1036.5091	0.159842	-422.985274	-422.977453	-422.976509	-423.017304	31.633	
O	 0.0239814065	 1.337955018	-0.3914515273	-0.460929
C	 0.0447598188	-0.003135274	 0.0323758308	 0.346169
C	-0.3434913687	-1.0413560826	-1.003235375	-0.386203
C	-1.3055701957	-0.6386557278	 0.103087073	 0.084488
O	-1.6883041858	-1.5249783184	 1.1112394113	-0.259484
C	-0.7751121026	-1.8700686727	 2.1145855624	 0.12419
C	 0.3930741143	-2.7830678259	 1.8310133655	-0.329628
C	 0.6203132705	-1.3173999307	 2.1572950654	-0.059308
C	 1.0661892018	-0.2940531798	 1.1219216182	-0.319888
H	 0.7881227746	 1.4748438547	-0.9633876552	 0.279698
H	-0.5701438589	-0.6794582233	-2.0003567849	 0.112987
H	 0.1185056814	-2.0209735397	-0.9640160469	 0.116289
H	-2.1447483091	-0.0173019735	-0.1908954759	 0.113775
H	-1.3080795176	-2.0045921231	 3.0503557158	 0.099217
H	 0.6640594679	-3.5218682718	 2.5778184016	 0.111546
H	 0.5352141916	-3.1138494439	 0.8088267153	 0.118427
H	 1.0150742967	-1.122661539	 3.1498118165	 0.092773
H	 2.0363482617	-0.5722608	 0.6878622845	 0.097025
H	 1.2128856126	 0.6605956635	 1.6379860948	 0.118853
84.3145	188.4413	266.7554	296.0742	360.2721	375.7563	396.8895	432.9906	510.0271	540.5669	646.046	738.0364	759.7667	794.1046	824.9272	877.972	916.9793	919.0238	949.7581	994.7913	1000.2634	1013.4676	1047.2603	1058.0414	1077.2149	1123.7644	1133.2065	1149.57	1190.4075	1229.7931	1255.5151	1273.5856	1303.7159	1341.4632	1351.9711	1382.1808	1406.1099	1429.36	1476.1295	1484.0598	1506.2447	3007.6039	3068.2101	3133.1928	3137.7141	3143.5753	3157.7264	3170.4083	3221.368	3231.1483	3784.7676
OC12CC1OC1CC1C2	O[C@]12C[C@H]1O[C@H]1C[C@H]1C2	
InChI=1S/C7H10O2/c8-7-2-4-1-5(4)9-6(7)3-7/h4-6,8H,1-3H2	InChI=1S/C7H10O2/c8-7-2-4-1-5(4)9-6(7)3-7/h4-6,8H,1-3H2/t4-,5-,6+,7+/m0/s1
