18
gdb 46397	3.44009	1.09313	0.89265	4.4519	71.73	-0.2406	0.0019	0.2425	1289.2087	0.148731	-439.079104	-439.070838	-439.069894	-439.112774	30.234	
O	-0.1094045986	 0.2615594602	 0.883658934	-0.324453
C	-0.0113730566	 1.2805267513	 0.274177643	 0.461171
O	-0.9810216275	 1.9125043062	-0.4567429422	-0.233194
C	-0.1097635331	 3.064959132	-0.7058675786	-0.109355
C	 1.0434367059	 2.3691797926	 0.0459078819	-0.16929
C	 1.6268963436	 3.0100303544	 1.3115879441	-0.268134
C	 2.8134570748	 2.2407233098	 1.8618969345	 0.021363
C	 2.9097267125	 1.9269931201	 3.3102123036	-0.242708
N	 2.6744219945	 0.8568595521	 2.3330567249	-0.3117
H	 0.0235628549	 3.2262750787	-1.7768249234	 0.130244
H	-0.5172570226	 3.9590221163	-0.2279873764	 0.128234
H	 1.8398363594	 2.0263748092	-0.6207617019	 0.12453
H	 1.9437066434	 4.0343611291	 1.0787562896	 0.113618
H	 0.8398971776	 3.0911146907	 2.0713827083	 0.110068
H	 3.7388860789	 2.4086167458	 1.311390965	 0.090976
H	 3.8778047227	 1.897933269	 3.8030741207	 0.117214
H	 2.0897275495	 2.248239682	 3.9489824233	 0.109804
H	 1.6996058608	 0.5635351208	 2.3160643697	 0.251612
71.8023	93.9021	129.5392	198.4505	220.2164	321.7691	393.31	449.9911	510.0955	702.8982	763.3148	785.7893	820.239	844.4743	885.303	944.6401	951.6458	965.3099	1004.4206	1027.2064	1091.3449	1112.5536	1126.2866	1139.3233	1149.0245	1162.0514	1175.5183	1239.7306	1249.3311	1277.4583	1297.5937	1331.1911	1355.1747	1370.2087	1428.9552	1480.741	1515.2821	1518.2467	1918.2041	3023.0733	3059.9394	3071.8502	3081.9563	3100.5694	3107.4523	3135.4262	3184.007	3498.381
O=C1OCC1CC1CN1	O=C1OC[C@H]1C[C@H]1CN1	
InChI=1S/C6H9NO2/c8-6-4(3-9-6)1-5-2-7-5/h4-5,7H,1-3H2	InChI=1S/C6H9NO2/c8-6-4(3-9-6)1-5-2-7-5/h4-5,7H,1-3H2/t4-,5+/m1/s1
