19
gdb 82033	2.23947	1.46298	1.3867	0.8789	75.12	-0.2551	-0.0324	0.2227	1076.9369	0.156587	-422.999958	-422.990917	-422.989972	-423.033566	33.725	
C	-0.1228661491	 1.5847346653	 0.053972777	-0.418348
C	-0.0015481669	 0.0743599361	 0.190272814	-0.066058
C	 0.8641170149	-0.664948691	-0.8387309989	 0.028093
O	 2.2292608595	-0.2424308236	-0.6546688762	-0.250026
C	 1.7116373664	-1.2592590493	 0.1984581636	-0.011906
C	 0.9105032979	-0.5419715524	 1.3309289032	 0.169165
C	 1.7390748544	 0.3860711819	 2.2151495198	-0.473704
C	 0.1813196422	-1.5763876887	 2.1660547681	 0.10669
O	-0.9341406964	-1.9865770697	 1.9682901156	-0.247413
H	 0.8546448997	 2.0506967608	-0.0950530611	 0.131023
H	-0.7521467009	 1.8390266937	-0.805796944	 0.119076
H	-0.5855225968	 2.0288216971	 0.9412610015	 0.118981
H	-0.9849146098	-0.3985343915	 0.2611651344	 0.110495
H	 0.596739349	-1.0335689883	-1.8222152079	 0.107342
H	 2.2454891487	-2.2022972249	 0.2416047772	 0.108838
H	 2.4212338817	 0.9776991835	 1.6016319024	 0.146661
H	 1.1023656741	 1.0711941153	 2.7842774362	 0.126005
H	 2.337055152	-0.1875274203	 2.9329373594	 0.117178
H	 0.7894750793	-1.9764128339	 3.0108782658	 0.077909
70.3039	139.1626	199.1134	213.3449	227.9444	249.8834	260.5241	309.8264	393.7649	447.0368	571.1829	627.7502	674.9042	737.3099	831.1891	845.9096	863.808	883.2991	938.9449	983.4512	1003.53	1038.9974	1055.4954	1077.0437	1127.9015	1148.094	1188.877	1210.8859	1244.1375	1254.2227	1281.0438	1370.436	1383.8127	1401.3105	1411.0162	1430.7966	1483.965	1497.3566	1498.6701	1513.2192	1820.7976	2858.2847	3032.8629	3036.7498	3081.3657	3094.2844	3098.3232	3119.8638	3134.3469	3174.2573	3193.2734
CC1C2OC2C1(C)C=O	C[C@H]1[C@H]2O[C@H]2[C@]1(C)C=O	
InChI=1S/C7H10O2/c1-4-5-6(9-5)7(4,2)3-8/h3-6H,1-2H3	InChI=1S/C7H10O2/c1-4-5-6(9-5)7(4,2)3-8/h3-6H,1-2H3/t4-,5+,6+,7+/m0/s1
