18
gdb 71375	2.65427	1.79718	1.26453	3.2111	76.55	-0.2416	-0.0075	0.2341	1023.3693	0.146559	-401.92555	-401.917101	-401.916157	-401.958441	31.774	
C	-0.0733817078	 1.4571215249	 0.070114284	-0.497029
C	 0.0652970813	-0.0294598535	-0.0710817872	 0.2944
C	-0.6321565807	-0.895773897	-1.1199791602	-0.297745
C	-0.3894802443	-2.0371723107	-0.1178058987	-0.142778
N	-0.2448938626	-0.98267744	 1.0362260752	-0.221033
C	 1.209856922	-0.8051115997	 0.53699744	 0.137998
C	 2.328332264	-0.244893778	 1.3572449491	-0.514454
C	 1.1278942814	-2.1786040612	-0.0491937478	 0.428322
O	 1.9055822397	-3.0851365987	-0.1547734021	-0.338755
H	 0.495296631	 1.9746233795	-0.7100805643	 0.130492
H	-1.1245125472	 1.7482010333	-0.0248137152	 0.131811
H	 0.284660117	 1.8038845119	 1.0423949588	 0.13591
H	-1.6911796665	-0.6274830623	-1.1802852387	 0.115819
H	-0.2131949456	-0.9878764518	-2.1268177199	 0.111672
H	-1.0538663563	-2.8895466916	-0.0039326277	 0.106123
H	 1.9735307605	 0.5261355886	 2.0449782523	 0.137054
H	 2.7955748942	-1.0407275946	 1.9443204655	 0.147237
H	 3.09701549	 0.1961571808	 0.7140948868	 0.134956
93.4527	131.0938	155.6343	239.8894	248.7599	262.8005	337.867	446.5907	485.0025	541.6723	641.4629	685.9949	703.9509	770.3857	813.7619	836.3376	887.9535	943.5102	955.5125	1006.1005	1023.7312	1073.0231	1082.8688	1110.6542	1163.0351	1168.0378	1235.5044	1241.1025	1274.2073	1350.1342	1397.9679	1414.4158	1424.8703	1475.7765	1484.5816	1486.6884	1495.3504	1503.0673	1883.6012	3037.303	3043.6763	3046.167	3099.5417	3101.8359	3109.0055	3122.495	3130.3294	3165.0933
CC12CC3N1C2(C)C3=O	C[C@]12C[C@@H]3N1[C@@]2(C)C3=O	
InChI=1S/C7H9NO/c1-6-3-4-5(9)7(6,2)8(4)6/h4H,3H2,1-2H3	InChI=1S/C7H9NO/c1-6-3-4-5(9)7(6,2)8(4)6/h4H,3H2,1-2H3/t4-,6+,7-,8?/m0/s1
