22
gdb 60428	4.27833	0.63578	0.58854	3.6721	80.29	-0.2426	0.0383	0.2809	1933.7249	0.191421	-441.522444	-441.511135	-441.510191	-441.560366	39.57	
C	 0.6393183265	 0.9929449888	 0.6716338438	-0.380063
C	 0.3244309995	-0.3321328142	-0.0336625629	 0.015343
C	-1.1640203976	-0.6866967665	 0.0702521699	-0.393227
C	 0.7550228014	-0.2977930506	-1.4990780066	-0.039624
O	 2.1587844658	-0.1188561546	-1.5728044617	-0.262468
C	 2.6497956333	-0.0085527044	-2.8893277706	-0.150953
C	 4.1755281571	 0.0936199619	-2.9106315754	 0.35553
N	 4.7662783018	-0.0522906211	-1.6993980884	-0.507587
O	 4.769442894	 0.2783216809	-3.9547427941	-0.366145
H	 1.695982041	 1.2517071659	 0.5700074181	 0.122597
H	 0.0502811067	 1.8117977267	 0.2408334395	 0.111514
H	 0.3987106145	 0.9359894412	 1.7378559089	 0.111244
H	 0.906449431	-1.1293029025	 0.4485862936	 0.081128
H	-1.7851312981	 0.0707762777	-0.4224289165	 0.116371
H	-1.3833750364	-1.6538966706	-0.3939891893	 0.114215
H	-1.4779179652	-0.7388710389	 1.1171386886	 0.117626
H	 0.4723077766	-1.2350208319	-2.0064123248	 0.089294
H	 0.2433405834	 0.5261698896	-2.025723912	 0.089317
H	 2.3683450347	-0.8832570512	-3.4965481955	 0.120503
H	 2.2489027069	 0.8809705877	-3.3975972772	 0.123144
H	 4.2020110839	-0.1871282597	-0.8782819809	 0.271931
H	 5.7679064094	 0.0111750161	-1.6340144665	 0.260312
30.9207	47.664	95.768	107.131	137.1646	214.8544	229.892	257.5666	263.1512	278.2622	385.287	401.3078	438.4357	537.7133	543.9034	562.5273	684.6671	829.1792	880.9704	925.5213	929.1811	962.8761	976.7975	1034.3798	1042.6464	1098.1623	1153.8505	1158.4802	1192.4991	1200.0332	1246.9683	1278.4321	1327.6557	1356.9558	1373.1249	1380.131	1397.9097	1413.8769	1440.0265	1487.688	1488.6435	1492.5754	1502.8113	1512.4405	1522.837	1596.3965	1809.9995	2953.7183	2984.8265	2987.1648	3018.3564	3022.3332	3026.9059	3032.3216	3091.4755	3097.0473	3105.4762	3122.4227	3605.3599	3747.3224
CC(C)COCC(N)=O	CC(C)COCC(=O)N	
InChI=1S/C6H13NO2/c1-5(2)3-9-4-6(7)8/h5H,3-4H2,1-2H3,(H2,7,8)	InChI=1S/C6H13NO2/c1-5(2)3-9-4-6(7)8/h5H,3-4H2,1-2H3,(H2,7,8)
