23
gdb 79877	2.26785	1.65116	1.32586	0.2333	89.59	-0.2216	0.0821	0.3038	1126.9938	0.206508	-351.101323	-351.092655	-351.091711	-351.13392	34.917	
C	-0.3463796262	 1.5227933098	-0.0727989425	-0.434342
C	 0.0506467215	 0.0597094628	 0.0551388959	-0.040675
C	 1.3093517128	-0.6699067741	-0.3442678014	-0.148429
C	 2.653725671	-0.0761069177	 0.1316144972	 0.000662
C	 2.9146443169	 1.4602452106	 0.2165421924	-0.248479
C	 2.3951290624	 1.4562104298	 1.6964318491	-0.251724
C	 2.1400962146	-0.0790114887	 1.592644047	-0.062842
C	 0.7915136604	-0.6961428191	 1.1260381687	 0.315224
C	 0.1422158209	-1.8102079524	 1.9030762056	-0.492777
H	 0.4319238218	 2.2326710935	 0.1899416263	 0.125859
H	-0.6479120576	 1.7320240309	-1.1058338309	 0.112156
H	-1.2125578552	 1.7289496842	 0.5668574677	 0.111131
H	-0.7960905026	-0.5587411269	-0.2523516227	 0.08222
H	 1.2571537919	-1.4594828926	-1.088222183	 0.074016
H	 3.506710065	-0.6944381549	-0.1513332679	 0.063447
H	 3.9768366531	 1.7087918218	 0.1451681285	 0.094841
H	 2.379615092	 2.0864427009	-0.4992651287	 0.101463
H	 3.1814350376	 1.6973772709	 2.4166506427	 0.095136
H	 1.5330949121	 2.0842981801	 1.926927457	 0.100878
H	 2.6303212031	-0.6988700461	 2.3456425246	 0.060292
H	-0.3519022395	-1.4297227284	 2.806657719	 0.116225
H	-0.6185180541	-2.3225364454	 1.3043866719	 0.113329
H	 0.876558818	-2.5589971087	 2.2233122234	 0.112387
125.4602	187.5724	192.1749	224.819	245.0101	291.5841	307.3821	333.9113	481.7166	562.234	637.5912	666.8665	675.4599	736.6846	800.1448	842.7485	860.8715	878.3955	908.7047	933.125	952.8155	982.2384	1008.2952	1030.3777	1051.8513	1075.785	1103.6936	1113.0135	1125.7624	1156.7203	1170.1719	1201.1268	1232.6362	1235.1839	1254.2714	1262.1596	1289.4137	1309.9569	1329.1665	1365.354	1411.0717	1414.8437	1469.976	1476.1995	1484.682	1493.3253	1497.994	1511.8449	1513.3253	3011.3382	3031.3649	3059.6159	3066.2958	3067.4204	3072.5794	3079.4473	3082.6475	3089.9128	3096.0845	3110.7714	3123.5226	3145.9255	3194.0229
CC1C2C3CCC3C12C	C[C@H]1[C@H]2[C@H]3CC[C@H]3[C@@]12C	
InChI=1S/C9H14/c1-5-8-6-3-4-7(6)9(5,8)2/h5-8H,3-4H2,1-2H3	InChI=1S/C9H14/c1-5-8-6-3-4-7(6)9(5,8)2/h5-8H,3-4H2,1-2H3/t5-,6-,7+,8-,9+/m0/s1
