19
gdb 62061	4.53169	0.69204	0.62677	5.7269	77.67	-0.2471	0.0208	0.2679	1743.9712	0.158922	-419.183561	-419.174066	-419.173122	-419.219078	34.313	
O	 0.7865006777	 1.3555273767	 0.0422155158	-0.420776
C	 0.1048802811	 0.1250019365	 0.0181751994	-0.014114
C	 0.4000740918	-0.6314783946	-1.2963707913	-0.166624
N	 0.1509358517	 0.2896993764	-2.4028149034	-0.319081
C	 0.761940142	-0.0900202816	-3.6547647841	 0.064397
C	 0.2000026286	-1.1868716718	-4.5341977762	-0.275812
C	 0.0926465527	 0.2675361275	-4.9452071309	-0.291638
C	 0.5093909068	-0.6854402014	 1.1770612091	 0.284474
N	 0.8043413977	-1.3560674557	 2.0697688947	-0.316423
H	 0.7924836698	 1.6297341208	-0.8907892533	 0.292084
H	-0.9865553712	 0.2772134471	 0.0991580758	 0.107516
H	 1.4614416295	-0.897508557	-1.3106192305	 0.135745
H	-0.1799680475	-1.5648717923	-1.3398606267	 0.112853
H	-0.847297138	 0.4271445762	-2.5297558737	 0.224688
H	 1.8444065767	-0.0004055621	-3.6208661424	 0.107101
H	 0.8880343695	-1.8304311082	-5.0712766586	 0.12156
H	-0.7097437	-1.679274133	-4.206130196	 0.112502
H	-0.8873843709	 0.7326173348	-4.8964038511	 0.11566
H	 0.707114652	 0.6284726919	-5.7618847166	 0.125889
50.8684	66.3911	86.1952	154.5376	198.2072	246.8539	289.8347	393.0913	440.2809	474.1409	536.8064	585.4384	598.971	756.8838	769.1559	812.9689	851.931	880.6679	949.7846	961.573	989.4927	1049.0042	1050.1954	1077.1794	1108.8545	1127.4805	1130.6225	1182.0498	1192.884	1242.1024	1286.5584	1301.6343	1339.0612	1357.0212	1397.6669	1452.0219	1463.16	1488.0114	1498.0518	1513.3786	2366.9711	2942.4256	3000.5175	3089.8511	3128.8872	3133.5236	3144.4782	3209.5453	3224.389	3511.468	3655.6809
OC(CNC1CC1)C#N	O[C@@H](CNC1CC1)C#N	
InChI=1S/C6H10N2O/c7-3-6(9)4-8-5-1-2-5/h5-6,8-9H,1-2,4H2	InChI=1S/C6H10N2O/c7-3-6(9)4-8-5-1-2-5/h5-6,8-9H,1-2,4H2/t6-/m1/s1
