20
gdb 113801	3.4069	0.97398	0.92333	2.7987	75.9	-0.236	0.0603	0.2963	1352.0911	0.170502	-440.233546	-440.224306	-440.223361	-440.267862	35.24	
O	-0.0265608729	 1.4484829766	-0.2453095119	-0.422241
C	-0.0262498923	 0.1953676127	 0.4267641941	-0.092914
C	-1.3210091107	-0.5449908184	 0.1848824087	-0.022727
N	-1.4710970608	-1.1953275758	-1.1378527492	-0.375474
C	-1.4704859172	-2.0233829713	 0.0825344576	-0.117397
C	-0.3465671612	-3.0212921975	 0.1677404466	 0.45125
O	 0.7727215861	-2.6883947938	-0.601862676	-0.467247
C	-0.0583638371	-3.7303293321	 1.4530837905	-0.309998
C	-0.6893201404	-4.4892579719	 0.2997258259	-0.325239
H	-0.0884049639	 1.2528162462	-1.1867236901	 0.285007
H	 0.8250332308	-0.4282603501	 0.134242062	 0.118127
H	 0.0704395563	 0.4244854713	 1.4933734203	 0.108546
H	-2.1975812584	-0.0104017346	 0.5493229692	 0.091766
H	-2.4082659336	-1.0779225599	-1.509826291	 0.239425
H	-2.4279017623	-2.4184774299	 0.4176613785	 0.086822
H	 0.4131187439	-2.2817866823	-1.4046162347	 0.285993
H	 0.985630768	-3.9265354457	 1.6693032005	 0.127682
H	-0.667135757	-3.5015920372	 2.3215505006	 0.111925
H	-1.730108783	-4.7861501203	 0.382283571	 0.105674
H	-0.0558867344	-5.1790979158	-0.2454778226	 0.121018
55.7068	84.1654	156.7367	197.287	264.7089	299.4253	324.2361	382.1197	418.878	443.7246	520.8447	529.699	610.891	729.9057	770.0159	816.8374	872.1183	893.0699	917.7285	941.8772	973.7728	985.4676	997.2991	1013.8678	1050.6119	1061.9349	1076.5849	1106.0756	1169.4097	1190.698	1192.4158	1231.3777	1266.2519	1271.4755	1331.6904	1363.0209	1380.5675	1414.6019	1451.4347	1452.8172	1472.6842	1508.9988	1516.5572	3046.1979	3089.6496	3114.6674	3125.6131	3129.3767	3134.5257	3216.7585	3230.8466	3522.2355	3717.4747	3804.8597
OCC1NC1C1(O)CC1	OC[C@H]1N[C@H]1C1(O)CC1	
InChI=1S/C6H11NO2/c8-3-4-5(7-4)6(9)1-2-6/h4-5,7-9H,1-3H2	InChI=1S/C6H11NO2/c8-3-4-5(7-4)6(9)1-2-6/h4-5,7-9H,1-3H2/t4-,5-/m1/s1
