18
gdb 112308	2.86431	1.36111	1.09769	4.1515	72.1	-0.2467	-0.0061	0.2406	1140.4285	0.147632	-439.077793	-439.069525	-439.068581	-439.111289	30.685	
C	 0.0968021684	 1.2649145173	-0.2166180779	-0.240458
O	-0.0031231939	-0.1145542992	 0.0640723859	-0.242587
C	-1.3324560241	-0.5948829168	 0.1338115212	 0.090382
C	-1.9726233265	-0.83363997	-1.2519313598	-0.343766
C	-1.765821245	-2.3272968146	-1.5257712124	 0.371347
O	-1.7229690114	-2.8715095113	-2.5928210235	-0.308321
N	-1.6476801812	-3.0058391658	-0.2699016679	-0.122957
C	-0.2882435932	-2.9552702699	 0.3098981878	-0.234055
C	-1.330187136	-1.9983814355	 0.7546251899	-0.05863
H	 1.1589064716	 1.5190619813	-0.1982992772	 0.13489
H	-0.3088603693	 1.5241264877	-1.2053244845	 0.111861
H	-0.4281176958	 1.8682629501	 0.5400724647	 0.109343
H	-1.9370816219	 0.0899169124	 0.7437818845	 0.075611
H	-3.0518025742	-0.6446748157	-1.2120344771	 0.13776
H	-1.5567728389	-0.2263494751	-2.0569607575	 0.138236
H	-0.0292381977	-3.8066167656	 0.9315816108	 0.130705
H	 0.5144637412	-2.5724750751	-0.3119486478	 0.147277
H	-1.8118167023	-2.1332869341	 1.7175866607	 0.103364
48.5306	119.1859	175.0512	199.683	239.8139	334.6805	406.7328	462.1305	497.1569	567.458	670.8781	712.4546	766.4142	827.4819	879.702	882.1502	957.5205	985.7049	1018.857	1063.3167	1089.2403	1108.0857	1124.2451	1132.2992	1162.9349	1183.3926	1194.4421	1231.5515	1246.7964	1288.9198	1328.4394	1382.6939	1392.0185	1442.1472	1480.2935	1490.3422	1507.0358	1510.7517	1861.0342	2980.5904	3007.3373	3031.3658	3054.1057	3121.0044	3124.6857	3131.8781	3162.4402	3217.833
COC1CC(=O)N2CC12	CO[C@H]1CC(=O)N2C[C@@H]12	
InChI=1S/C6H9NO2/c1-9-5-2-6(8)7-3-4(5)7/h4-5H,2-3H2,1H3	InChI=1S/C6H9NO2/c1-9-5-2-6(8)7-3-4(5)7/h4-5H,2-3H2,1H3/t4-,5-,7?/m0/s1
