20
gdb 96981	2.6092	1.49354	1.07878	2.3448	81.36	-0.2383	0.0279	0.2662	1181.2005	0.170915	-403.154814	-403.145954	-403.14501	-403.188626	33.136	
C	 0.1804799064	 1.4399612019	-0.1262927446	-0.329469
N	 0.2467667687	-0.0122424122	-0.1016691845	-0.317848
C	 0.5086993207	-0.6056642902	 0.9760731171	 0.414467
O	 0.755761559	 0.0234182428	 2.1765048977	-0.249669
C	 0.7857291517	-0.9288931669	 3.22169026	 0.085296
C	-0.4876433565	-1.6853653458	 3.4645522052	-0.321727
C	 0.6333794333	-2.3058042536	 2.6475072796	-0.071884
C	 0.5968936908	-2.1225497826	 1.1382020215	-0.113331
C	-0.4998223967	-2.8656164702	 0.3730858607	-0.387303
H	 1.1284807252	 1.8488170304	-0.4982343721	 0.12415
H	-0.5989302117	 1.7483853654	-0.8300278401	 0.119137
H	-0.0206098065	 1.8896436252	 0.8531714785	 0.120785
H	 1.4670268552	-0.6496804446	 4.0150461649	 0.108959
H	-0.6552094923	-2.0854327276	 4.4584925792	 0.120291
H	-1.3822512003	-1.3371693632	 2.9577590474	 0.128287
H	 1.1711699322	-3.1506502991	 3.0597622414	 0.096797
H	 1.5711206888	-2.431798552	 0.7358937721	 0.1044
H	-1.4876102546	-2.6464642806	 0.789637995	 0.116023
H	-0.4969656237	-2.5496231873	-0.6725083554	 0.143418
H	-0.3423896196	-3.9473469797	 0.4197822263	 0.109223
70.7315	88.3072	173.1374	202.2111	214.6568	246.1239	303.9173	412.8711	478.8127	522.2841	598.7763	691.8845	707.5226	782.9973	786.9879	820.335	906.372	975.4308	989.0818	1021.5058	1042.6958	1048.1998	1070.2011	1093.8145	1105.4526	1121.8709	1138.1791	1143.4547	1166.8254	1196.9745	1207.3889	1298.5905	1332.9373	1361.0685	1387.4214	1407.7807	1438.2656	1476.2896	1490.5675	1493.068	1498.4113	1499.3235	1798.4819	3013.0944	3016.4393	3043.4328	3070.4704	3092.0682	3111.2668	3129.8492	3132.6625	3183.7775	3197.9778	3220.9133
CN=C1OC2CC2C1C	CN=C1O[C@H]2C[C@H]2[C@H]1C	
InChI=1S/C7H11NO/c1-4-5-3-6(5)9-7(4)8-2/h4-6H,3H2,1-2H3	InChI=1S/C7H11NO/c1-4-5-3-6(5)9-7(4)8-2/h4-6H,3H2,1-2H3/t4-,5+,6+/m1/s1
