15
gdb 7062	6.1969	0.96062	0.90874	4.0353	66.7	-0.2648	-0.0119	0.2529	1215.8214	0.117999	-358.845034	-358.836471	-358.835527	-358.878637	29.373	
C	-0.0049174436	 1.4922224777	-0.0096030607	-0.354092
N	 0.0017542537	 0.0300228816	 0.0017612468	-0.069317
C	 0.7039554592	-0.5193868347	 1.1560656167	-0.280382
C	 2.1277478342	-0.1671054388	 1.1457829943	 0.279715
N	 3.2483097129	 0.1111207564	 1.159133881	-0.296321
C	-1.3384246022	-0.5383870509	-0.0886976968	-0.280381
C	-1.9864939668	-0.205340949	-1.361676445	 0.279713
N	-2.5156108665	 0.0575637178	-2.353726511	-0.296321
H	 1.0238201584	 1.8584635745	-0.0026654312	 0.160211
H	-0.487396783	 1.8444153945	-0.9237445384	 0.160212
H	-0.537887591	 1.9210407315	 0.8583051457	 0.105995
H	 0.2796663087	-0.1862864365	 2.1233038452	 0.136372
H	 0.6278159819	-1.6124690138	 1.1344217381	 0.159112
H	-1.2694654006	-1.6301216268	-0.0219503322	 0.159113
H	-2.0081358353	-0.2075944935	 0.7289766374	 0.136371
55.4635	107.9061	121.1653	202.9943	251.814	331.6585	343.4288	388.1362	392.9033	394.5519	486.6678	636.0007	860.2992	910.621	984.3869	985.1549	1016.8761	1062.2835	1153.146	1180.8508	1215.5216	1296.5698	1309.6986	1371.1584	1417.0282	1465.1142	1468.5547	1484.4655	1499.4116	1502.9654	2370.1635	2370.8351	2919.5131	2923.7791	2949.8949	3061.7217	3064.4507	3096.8621	3141.4426
CN(CC#N)CC#N	CN(CC#N)CC#N	
InChI=1S/C5H7N3/c1-8(4-2-6)5-3-7/h4-5H2,1H3	InChI=1S/C5H7N3/c1-8(4-2-6)5-3-7/h4-5H2,1H3
