22
gdb 60604	2.74985	1.08172	0.85592	3.7126	82.6	-0.2343	0.0374	0.2717	1410.5287	0.192719	-404.379925	-404.369321	-404.368376	-404.416255	38.774	
C	-0.1334372996	-0.0467824901	 0.6050207545	-0.389428
C	-0.8949143027	-1.0379921393	-0.2874184132	-0.108493
C	-0.2327679545	-1.197053324	-1.646262063	-0.014006
C	-1.0139353592	-1.5742768182	-2.8934319867	-0.321846
C	-0.4087363768	-0.1972205643	-2.7684787528	-0.011834
C	-1.2904645507	 1.0287383916	-2.6642391426	-0.408
C	-1.1004980875	-2.363221515	 0.4781392896	 0.403264
N	-1.1585449431	-3.4911107589	-0.2840260918	-0.527785
O	-1.2334659176	-2.393626269	 1.6875013252	-0.373998
H	 0.9113525321	-0.3546755366	 0.7215754124	 0.114613
H	-0.1438327657	 0.9544921482	 0.1666281849	 0.108719
H	-0.583831133	-0.0139495518	 1.5977452272	 0.143211
H	-1.9128906611	-0.6517651027	-0.4352367342	 0.099047
H	 0.7666885735	-1.6230555615	-1.5810389688	 0.089694
H	-0.5826562587	-2.2780577258	-3.5984980709	 0.110807
H	-2.0946584844	-1.6445619371	-2.8031773735	 0.11539
H	 0.4867747009	-0.0350295621	-3.3630780774	 0.087042
H	-2.1957027357	 0.836585603	-2.0812866095	 0.119838
H	-0.7616983579	 1.8644540538	-2.1933233184	 0.123186
H	-1.6088749108	 1.3573279706	-3.6596146991	 0.118581
H	-1.0507868486	-3.4658287421	-1.2820048378	 0.265981
H	-1.3330137488	-4.3666237987	 0.1806148959	 0.256017
26.7	71.7597	140.6652	185.9012	197.301	204.8233	210.8663	274.0285	309.0066	359.0441	394.1013	457.4596	510.0927	559.4227	619.1332	708.8707	768.8905	817.3576	830.9551	861.6229	915.2289	943.4371	1000.6026	1021.4522	1066.8341	1076.5417	1094.4946	1113.6626	1127.5018	1155.5091	1194.9166	1202.2947	1250.1481	1280.2676	1304.7131	1351.2394	1390.7825	1404.2549	1417.784	1428.8515	1489.6591	1491.2795	1493.9823	1499.3944	1507.404	1600.4376	1787.1488	3017.7642	3033.1213	3044.3421	3090.7211	3105.3423	3110.0168	3115.6205	3120.9127	3139.2083	3148.3537	3199.6	3605.2616	3745.9844
CC(C1CC1C)C(N)=O	C[C@@H]([C@H]1C[C@H]1C)C(=O)N	
InChI=1S/C7H13NO/c1-4-3-6(4)5(2)7(8)9/h4-6H,3H2,1-2H3,(H2,8,9)	InChI=1S/C7H13NO/c1-4-3-6(4)5(2)7(8)9/h4-6H,3H2,1-2H3,(H2,8,9)/t4-,5+,6+/m1/s1
