21
gdb 98413	2.508	1.17588	0.96305	1.9615	80.27	-0.2356	-0.0124	0.2232	1344.1825	0.179091	-424.241191	-424.230785	-424.22984	-424.276595	38.287	
C	 0.0598861313	 1.5401326838	-0.1034398567	-0.37931
C	-0.0498248555	 0.0182124501	-0.1263148206	-0.275289
C	-1.4541415286	-0.4824242503	 0.1777882203	 0.313958
O	-2.3510390368	 0.2742561629	 0.4954188986	-0.330592
C	-1.6845496723	-1.9619291887	 0.0545919884	 0.25539
O	-0.5387665747	-2.7546257369	-0.1187078259	-0.456651
C	-2.8758023944	-2.5692810277	 0.7743365888	-0.337083
C	-2.899478965	-2.4668299631	-0.7225485822	-0.002699
C	-3.865429585	-1.5656371861	-1.4551187843	-0.427075
H	 1.0875556545	 1.8553513272	-0.3047853307	 0.107333
H	-0.5932292781	 1.9906211965	-0.8555685306	 0.128208
H	-0.2435021788	 1.939672416	 0.8674071279	 0.130244
H	 0.2611607681	-0.4041677526	-1.0897476322	 0.133655
H	 0.6355638339	-0.4384553747	 0.6012046102	 0.11052
H	-0.1360922439	-2.8963274979	 0.7451180488	 0.28527
H	-2.718322427	-3.5428697725	 1.2255950169	 0.112947
H	-3.4882485157	-1.8724713784	 1.3364074154	 0.137164
H	-2.6496446388	-3.3907134067	-1.2377057308	 0.104914
H	-4.0271597507	-0.6324952196	-0.9132823651	 0.155353
H	-3.4975275225	-1.3227017578	-2.45788227	 0.116273
H	-4.83118441	-2.0699808434	-1.5689035361	 0.11747
54.3276	78.7713	171.3052	173.3817	197.3564	213.6959	240.3166	305.8566	324.9325	346.7816	395.8315	439.2617	463.0532	556.1517	588.8938	723.8803	761.2223	823.9542	838.6781	894.9077	922.6368	982.1174	1010.7978	1031.3965	1065.0746	1087.4963	1101.1354	1125.8512	1129.2658	1196.9994	1238.9853	1271.6356	1307.802	1327.4127	1379.5567	1389.3961	1413.3622	1420.4053	1439.1376	1459.9882	1492.3543	1497.5675	1498.5676	1504.4898	1774.0984	3023.2321	3035.8348	3050.3757	3059.1024	3091.5865	3120.5818	3126.7288	3131.3965	3135.1126	3152.8796	3230.1716	3794.7202
CCC(=O)C1(O)CC1C	CCC(=O)[C@@]1(O)C[C@H]1C	
InChI=1S/C7H12O2/c1-3-6(8)7(9)4-5(7)2/h5,9H,3-4H2,1-2H3	InChI=1S/C7H12O2/c1-3-6(8)7(9)4-5(7)2/h5,9H,3-4H2,1-2H3/t5-,7-/m1/s1
