17
gdb 100610	2.36093	1.13638	0.79117	1.4994	69.85	-0.2633	-0.0258	0.2375	1386.4915	0.135554	-492.312105	-492.302673	-492.301729	-492.346746	33.833	
O	 0.6783309632	-0.1425423511	 0.8004523362	-0.406718
C	-0.0180065033	 0.0529423006	-0.4281349561	-0.115602
C	-1.4972135972	-0.364220684	-0.3329791772	 0.013515
O	-2.1757436884	 0.0650704178	-1.4771622217	-0.431799
C	-1.6921593123	-1.8811442643	-0.1786064534	 0.39585
O	-2.4976116761	-2.4625305302	-0.8869524823	-0.384385
N	-0.9382491146	-2.4879819792	 0.7866970961	-0.30935
C	-1.0174589107	-3.8408113849	 1.0911435896	 0.098613
N	-0.2547304094	-4.3385112704	 1.974759553	-0.453895
H	 0.4203114685	 0.5577130756	 1.4090166809	 0.297621
H	 0.0201107959	 1.0982678252	-0.7558534899	 0.125447
H	 0.4976695181	-0.5520950811	-1.1791606945	 0.133828
H	-1.918354271	 0.1062429141	 0.576042712	 0.086997
H	-2.6892613178	-0.7080638612	-1.7683262774	 0.299326
H	-0.2256649223	-1.9309602621	 1.251388165	 0.277292
H	-1.7775766638	-4.3553583768	 0.4999941265	 0.138419
H	-0.4395541589	-5.334668248	 2.079061803	 0.234842
71.362	118.089	135.3829	165.9727	194.0955	248.1486	329.8042	351.9467	366.4072	384.091	476.8881	505.1597	535.464	658.4261	764.5338	799.7173	839.4765	925.6738	1010.5222	1047.127	1071.74	1075.7955	1091.6763	1155.4357	1170.1545	1228.1821	1297.4608	1301.0113	1326.0191	1385.7223	1397.8895	1402.4292	1446.897	1501.7594	1539.9489	1728.2248	1778.1702	2922.7499	3041.3438	3104.5926	3120.8213	3505.7683	3509.1759	3653.4623	3816.5977
OCC(O)C(=O)NC=N	OC[C@@H](O)C(=O)NC=N	
InChI=1S/C4H8N2O3/c5-2-6-4(9)3(8)1-7/h2-3,7-8H,1H2,(H2,5,6,9)	InChI=1S/C4H8N2O3/c5-2-6-4(9)3(8)1-7/h2-3,7-8H,1H2,(H2,5,6,9)/t3-/m1/s1
