19
gdb 39898	2.69387	1.7924	1.57942	2.5426	73.87	-0.2431	0.0868	0.3299	943.745	0.16187	-423.012862	-423.005865	-423.004921	-423.043992	28.657	
C	-0.0157796806	 1.4796237067	 0.0069960028	-0.355711
C	 1.2984339602	 0.7159369412	-0.010235315	-0.355713
C	-0.0034079585	-0.0121757787	 0.0178907171	 0.418568
C	-0.5276297533	-0.9389834652	 1.1114312464	-0.192982
C	-2.0060355444	-1.009662639	 0.6786159285	-0.072763
O	-1.9319605968	-1.0013280616	-0.7658385048	-0.274472
C	-0.5468144657	-0.9228593411	-1.064979992	 0.136758
O	 0.0764346423	-2.1684201121	-0.7921870581	-0.274473
C	 0.1341907102	-2.2533586852	 0.6505374833	-0.072763
H	-0.2887502618	 2.0012910052	 0.9189990316	 0.113121
H	-0.3244317294	 1.9858318009	-0.9020663563	 0.120519
H	 1.8731483253	 0.7088414099	-0.9308649834	 0.12052
H	 1.904571586	 0.7267400938	 0.8902544173	 0.11312
H	-0.3528470201	-0.6616699744	 2.1507469749	 0.077654
H	-2.5068769999	-1.9252010794	 1.0141826455	 0.102506
H	-2.5830073438	-0.1417984338	 1.0204514783	 0.101131
H	-0.4163218341	-0.6745468206	-2.1170846403	 0.091344
H	 1.1803806303	-2.3287138278	 0.9710756556	 0.101131
H	-0.4066799657	-3.145635519	 0.9866295084	 0.102507
161.949	200.8018	247.0155	254.85	376.8001	458.0906	578.1057	584.8252	628.4686	770.1408	787.4808	853.4657	904.7203	909.8746	919.8436	924.927	957.7978	962.8513	967.5727	985.376	1001.0215	1054.0969	1060.992	1079.5121	1082.4484	1112.9997	1169.7504	1181.616	1191.9776	1248.8628	1253.9749	1281.1722	1282.3623	1309.4499	1368.1329	1376.9329	1429.5157	1467.6258	1514.9974	1516.6417	1533.3615	3019.7113	3021.4412	3060.7306	3065.7681	3123.3032	3123.4425	3126.5661	3145.2701	3200.1167	3213.8307
C1CC11C2COC1OC2	C1CC21[C@H]1CO[C@@H]2OC1	
InChI=1S/C7H10O2/c1-2-7(1)5-3-8-6(7)9-4-5/h5-6H,1-4H2	InChI=1S/C7H10O2/c1-2-7(1)5-3-8-6(7)9-4-5/h5-6H,1-4H2/t5-,6+
