19
gdb 70315	3.03838	1.56239	1.27415	3.3175	74.25	-0.2432	0.0869	0.3302	1044.0832	0.159722	-423.011333	-423.00359	-423.002646	-423.043162	30.786	
C	 0.3615088602	 1.4358401619	-0.3083552842	-0.464161
C	-0.1068611625	 0.0531789348	 0.0892467725	 0.390123
C	-1.582402176	-0.2201522486	-0.1579738166	-0.310766
C	-2.1500023626	-1.4490725649	 0.5191376113	 0.051547
O	-1.550334221	-2.7127209765	 0.226401473	-0.245707
C	-1.4055307084	-2.1878735956	 1.5480956118	 0.050356
C	-0.0202600749	-1.7645122521	 1.9835018557	-0.278325
C	 0.6286010681	-0.7104308345	 1.1125038637	 0.000206
O	 0.7906434322	-1.0059757351	-0.2779142423	-0.28284
H	 1.44002127	 1.5303482923	-0.1605612949	 0.128642
H	 0.1451214824	 1.6251174398	-1.3658770704	 0.125976
H	-0.1435991121	 2.2090561249	 0.2806306395	 0.117581
H	-2.1584211263	 0.648446504	 0.1876370229	 0.105811
H	-1.7533034475	-0.2900950581	-1.2405969749	 0.122895
H	-3.240618139	-1.4788880006	 0.5518829232	 0.087069
H	-1.9725102619	-2.7343802389	 2.3037099275	 0.087277
H	-0.0865498482	-1.3714600432	 3.0069225897	 0.107115
H	 0.632515665	-2.6458728677	 2.032933791	 0.125871
H	 1.5027995727	-0.2361334718	 1.5639517715	 0.081329
130.656	185.002	224.4815	306.7476	324.2775	339.3448	384.5435	434.7919	483.4752	592.7658	675.176	729.1557	792.2197	818.0752	865.4633	875.3594	928.8516	948.4909	967.2952	1007.6588	1036.6995	1063.1523	1066.6667	1123.1789	1143.5815	1161.0146	1225.0064	1252.962	1275.3752	1304.2509	1327.3977	1373.2399	1388.0266	1395.6893	1413.4724	1459.0557	1462.6657	1468.5697	1486.2201	1492.2874	1520.2413	3017.1647	3018.7636	3032.8806	3052.4286	3053.8631	3080.8568	3084.8839	3094.8477	3097.7779	3123.6029
CC12CC3OC3CC1O2	C[C@]12C[C@H]3O[C@H]3C[C@H]1O2	
InChI=1S/C7H10O2/c1-7-3-5-4(8-5)2-6(7)9-7/h4-6H,2-3H2,1H3	InChI=1S/C7H10O2/c1-7-3-5-4(8-5)2-6(7)9-7/h4-6H,2-3H2,1H3/t4-,5+,6+,7-/m0/s1
