14
gdb 20720	5.62064	1.57142	1.23749	3.5765	67.89	-0.234	-0.06	0.174	928.314	0.10904	-378.771056	-378.764241	-378.763296	-378.80206	25.471	
C	-0.0229083908	 1.5327199261	-0.0040940009	-0.476415
C	-0.0006129942	 0.0301966709	-0.008496663	 0.333712
N	-0.0485790985	-0.5717054347	-1.1656496187	-0.239905
N	-0.0278376061	-1.9127117935	-1.1567748169	-0.26473
C	 0.0390925905	-2.7881510523	-0.0672597208	 0.418018
O	 0.0492436138	-3.9953070738	-0.2324467269	-0.390985
C	 0.0906434117	-2.070183085	 1.1983349391	-0.195065
C	 0.0710857146	-0.7169757809	 1.2169977342	-0.122526
H	 0.8781944041	 1.9395929398	 0.4688205072	 0.135394
H	-0.081120124	 1.9072168841	-1.026990972	 0.14712
H	-0.8823775623	 1.9132148039	 0.5595257383	 0.135327
H	-0.0664360677	-2.3444007447	-2.0710062186	 0.273723
H	 0.1440697554	-2.6714602508	 2.0981586923	 0.131187
H	 0.1092103234	-0.1743765091	 2.1572138966	 0.115144
115.1912	144.3706	296.862	313.4039	394.6093	462.9648	490.9895	520.9004	630.8553	736.4408	756.6119	772.2004	827.2603	867.4256	981.1019	1018.3906	1026.4084	1064.0522	1144.8079	1223.2415	1260.1034	1290.6363	1413.165	1428.1485	1449.1537	1482.2796	1482.509	1576.758	1661.0861	1790.5595	3033.3179	3084.7653	3145.5802	3171.4589	3213.3881	3591.8642
CC1=NNC(=O)C=C1	Cc1n[nH]c(=O)cc1	
InChI=1S/C5H6N2O/c1-4-2-3-5(8)7-6-4/h2-3H,1H3,(H,7,8)	InChI=1S/C5H6N2O/c1-4-2-3-5(8)7-6-4/h2-3H,1H3,(H,7,8)
