17
gdb 126432	1.95416	1.7462	0.98654	1.8575	83.32	-0.2234	0.0027	0.2261	1192.0002	0.136374	-380.873723	-380.864983	-380.864038	-380.907571	32.427	
C	 0.1203152057	 1.5081326043	 0.129370312	-0.377777
C	-0.0699964231	-0.0009162324	-0.1026388709	-0.300512
C	 0.7090857138	-0.5139840116	-1.2738505124	 0.257673
N	 0.1166840515	-0.8032957112	-2.4261224592	-0.278274
N	 1.1164959414	-1.2079010562	-3.239997459	-0.18649
C	 2.3274624725	-1.1898830927	-2.6475263007	-0.14355
C	 2.1200581022	-0.7405646784	-1.3521803909	 0.040005
C	 3.0821077243	-0.5548435912	-0.3353160438	 0.247292
C	 3.8844780726	-0.3906515472	 0.5486727779	-0.464554
H	 1.1714523394	 1.7444876851	 0.3184232475	 0.131444
H	-0.2049322418	 2.0795910045	-0.745204429	 0.122575
H	-0.4636595377	 1.8421758345	 0.9925577273	 0.111426
H	 0.2374195869	-0.5453719857	 0.7976996163	 0.113635
H	-1.1273114535	-0.2236359586	-0.2736284443	 0.117965
H	 0.895335357	-1.4896040773	-4.1797198384	 0.27878
H	 3.2282778101	-1.4889805967	-3.1586730811	 0.144717
H	 4.5951578087	-0.2481205891	 1.3241555485	 0.185646
47.3573	123.7371	161.8236	174.8405	225.6561	333.6079	382.1494	481.0416	516.1986	528.3273	546.6546	584.4586	654.2539	665.1468	684.6284	755.7666	790.4461	804.0853	949.1425	973.1983	1058.6773	1079.2659	1092.5208	1152.3605	1215.3431	1279.9356	1321.2689	1350.2795	1392.6936	1405.7776	1472.4691	1480.123	1497.3466	1499.0076	1513.9855	1586.3367	2230.7801	3038.6106	3041.0799	3088.5557	3110.3426	3120.3148	3269.3746	3504.3154	3677.9963
CCC1=NNC=C1C#C	CCc1n[nH]cc1C#C	
InChI=1S/C7H8N2/c1-3-6-5-8-9-7(6)4-2/h1,5H,4H2,2H3,(H,8,9)	InChI=1S/C7H8N2/c1-3-6-5-8-9-7(6)4-2/h1,5H,4H2,2H3,(H,8,9)
