19
gdb 68579	4.5795	0.96526	0.92266	1.4654	81.69	-0.2342	0.0482	0.2823	1328.9185	0.15645	-385.802276	-385.793292	-385.792347	-385.836043	34.438	
C	 0.3748572358	 1.3921173134	-0.3646597074	-0.50901
C	 0.0981675505	-0.0407597783	-0.0364339781	 0.396032
C	 0.9275506059	-1.3137936606	-0.3556278178	-0.284999
C	-0.4647812085	-1.7356016415	 0.1706999727	 0.420559
C	-1.1289910181	-3.092066413	 0.1722665694	-0.491395
C	-0.4521139079	-4.0391057189	 1.0490343314	 0.299017
C	 0.1224383961	-4.8022209167	 1.7778214964	-0.444281
C	-0.3469623018	-0.6877662799	 1.3028230139	-0.285004
O	-1.0748560915	-0.6954713537	-0.6907558166	-0.377615
H	 1.2566142967	 1.7418991492	 0.1814285456	 0.127001
H	 0.5609623302	 1.5115628264	-1.4362458847	 0.133299
H	-0.4765472305	 2.020882214	-0.0872328959	 0.133308
H	 1.0952727995	-1.5005913781	-1.417795359	 0.100862
H	 1.8006834812	-1.5322495175	 0.2637690435	 0.097987
H	-2.1747378661	-2.9672994531	 0.4804895674	 0.143749
H	-1.1477841669	-3.4716317909	-0.8571643971	 0.143763
H	 0.6215887659	-5.4857251368	 2.418877751	 0.197883
H	 0.4072785426	-0.8478089751	 2.0769358439	 0.097984
H	-1.298081993	-0.3250153088	 1.6965336114	 0.10086
54.8909	95.4984	186.3876	222.6007	232.58	340.8352	357.5955	362.2793	439.6742	522.3164	595.5796	623.3121	631.0248	644.189	671.7379	729.8504	761.4587	896.5365	912.4803	959.3882	971.0603	972.7248	990.58	1065.8916	1093.2616	1098.4247	1139.7514	1150.1727	1167.9861	1188.8556	1270.5858	1278.1705	1325.2886	1370.3464	1414.3648	1465.155	1465.4552	1477.0067	1488.6913	1524.6811	2243.0083	3024.5152	3039.4906	3058.9372	3060.1923	3068.0275	3113.759	3115.1656	3139.6146	3145.2596	3507.128
CC12CC(CC#C)(C1)O2	C[C@@]12C[C@@](CC#C)(C1)O2	
InChI=1S/C8H10O/c1-3-4-8-5-7(2,6-8)9-8/h1H,4-6H2,2H3	InChI=1S/C8H10O/c1-3-4-8-5-7(2,6-8)9-8/h1H,4-6H2,2H3/t7-,8+
