16
gdb 133818	3.33847	2.42563	2.02591	1.179	70.06	-0.2326	0.0385	0.2711	736.3952	0.12678	-400.58001	-400.574775	-400.57383	-400.609175	23.674	
C	-1.4427716603	 1.06072368	 0.1626537671	-0.258298
N	-1.5455854545	-0.3697781789	-0.3920967506	-0.190778
C	-0.2055413153	-0.7125231457	-1.1410967727	-0.041408
C	 0.3783232145	-1.5532040616	 0.0749562042	-0.125181
C	 1.5626048303	-0.4495441598	 0.3300396061	 0.02699
O	 1.2107360492	 0.4538084384	 1.4452197641	-0.384387
C	-0.0536242297	 0.5592782908	 0.679482662	 0.338564
C	 0.7337651421	 0.3635030113	-0.6461349353	-0.050041
C	-0.7162154906	-0.8177866191	 0.7994369396	 0.018134
H	-2.2266552636	 1.1678130752	 0.914564335	 0.129559
H	-1.4624489877	 1.8830944342	-0.5567482648	 0.116218
H	-0.2997758213	-1.0530421874	-2.16816659	 0.082005
H	 0.5287233292	-2.6285857113	 0.0874856024	 0.08007
H	 2.619527056	-0.7043463074	 0.3043635603	 0.091276
H	 1.0655667748	 1.2690348235	-1.1500413663	 0.084148
H	-1.2152957231	-1.0835570922	 1.7297871889	 0.08313
370.0488	424.947	501.798	513.0796	687.1587	718.6267	728.2676	758.5619	782.6722	805.5195	822.941	856.4508	877.451	893.9841	924.3362	937.0569	948.0293	965.3063	971.2945	1041.6198	1091.1464	1096.2993	1104.2836	1125.0506	1151.2451	1157.0216	1176.2519	1182.2091	1199.622	1238.5925	1249.3593	1279.4477	1311.8022	1321.2536	1488.1992	3067.3425	3126.6279	3132.5759	3142.1953	3152.3906	3158.0658	3169.7655
C1N2C3C4C5OC1(C35)C24	C1N2[C@@H]3[C@H]4[C@@H]5O[C@@]1([C@H]35)[C@@H]24	
InChI=1S/C7H7NO/c1-7-3-4-2(5(3)9-7)6(7)8(1)4/h2-6H,1H2	InChI=1S/C7H7NO/c1-7-3-4-2(5(3)9-7)6(7)8(1)4/h2-6H,1H2/t2-,3+,4+,5-,6-,7-/m0/s1
