19
gdb 12109	4.19562	1.2751	1.18446	1.8452	71.66	-0.2391	0.0786	0.3178	1091.0039	0.164113	-365.009675	-365.001258	-365.000313	-365.042908	31.027	
C	 0.3146695315	 1.4830863526	 0.7030608132	-0.45486
C	-0.0087783041	 0.1083457428	 0.1677643361	 0.42716
C	-1.2601028493	-0.5501439995	 0.7243481044	-0.220159
N	-2.4459791189	 0.2505526909	 0.4412739593	-0.064163
C	-3.1820625831	-0.0757984423	-0.7761205025	-0.218803
C	-3.7298016682	-0.4277638467	 0.5630578097	-0.217009
C	 0.4992845238	-0.3189720009	-1.1450203121	-0.221763
O	 1.1046261487	-0.791209421	 0.0613161756	-0.280843
H	 1.2221151058	 1.8773829091	 0.2395320842	 0.119416
H	-0.5172691443	 2.166370827	 0.5137425855	 0.139444
H	 0.4733481829	 1.4401772502	 1.7863976324	 0.121975
H	-1.3290276966	-1.5767143802	 0.3251573661	 0.087568
H	-1.1626034594	-0.6305182844	 1.8145702776	 0.108491
H	-3.5788950932	 0.7682619568	-1.3327174306	 0.117875
H	-2.8144329257	-0.8955085544	-1.3916673252	 0.109521
H	-3.7261215209	-1.4814613341	 0.8383783227	 0.111274
H	-4.5335063288	 0.1549963532	 1.0040689413	 0.118469
H	-0.0383307057	-1.0708519327	-1.7221430883	 0.105404
H	 1.1068610056	 0.3658611435	-1.7353968896	 0.111003
66.5294	87.4444	162.8503	180.5667	303.8559	331.4713	369.6061	395.9032	420.6143	487.951	741.176	774.2633	829.9099	845.6164	902.2016	926.8388	935.453	981.2661	1032.6286	1038.8312	1052.1572	1112.4201	1118.3543	1123.3174	1135.8242	1161.756	1172.554	1182.3517	1252.6106	1292.5438	1324.2684	1377.5454	1399.557	1424.0276	1477.6707	1486.544	1493.6581	1501.1095	1521.3044	1533.6565	2955.6342	3039.5265	3044.3858	3077.5884	3093.6902	3097.9281	3107.8045	3133.0956	3161.8488	3176.6769	3190.824
CC1(CN2CC2)CO1	C[C@@]1(CN2CC2)CO1	
InChI=1S/C6H11NO/c1-6(5-8-6)4-7-2-3-7/h2-5H2,1H3	InChI=1S/C6H11NO/c1-6(5-8-6)4-7-2-3-7/h2-5H2,1H3/t6-/m1/s1
