19
gdb 99888	2.29599	1.34119	1.19076	2.1786	75.64	-0.26	0.0174	0.2774	1157.4616	0.157522	-419.184097	-419.174347	-419.173403	-419.218451	35.698	
C	 0.0610057603	 1.6219150889	 0.1032723202	-0.403634
C	-0.0432964507	 0.0933014207	-0.0008264811	 0.100217
C	 0.7121591596	-0.585100686	 1.1759331095	-0.077079
O	 0.1939948865	-0.2336225364	 2.4380521302	-0.415497
C	-1.4690910331	-0.3097792849	 0.102326109	 0.240129
N	-2.5658802073	-0.6697498136	 0.1823397947	-0.356051
N	 0.5993037295	-0.3490324078	-1.2388977026	-0.087914
C	 0.1930868127	-1.5972547741	-1.8811001814	-0.237509
C	-0.1282508929	-0.28197289	-2.5024560468	-0.233584
H	 1.1059263696	 1.9072790728	-0.0425386384	 0.134385
H	-0.5462793216	 2.1113504141	-0.6618994608	 0.129374
H	-0.2694631112	 1.9517690441	 1.0896777277	 0.147832
H	 0.7152118137	-1.6720635133	 1.0159228279	 0.106427
H	 1.7468206669	-0.2342500108	 1.1432485642	 0.130386
H	-0.6699842187	-0.6492847299	 2.5381903877	 0.299013
H	 1.0077177428	-2.2059451559	-2.2612352796	 0.125074
H	-0.6413531723	-2.1524009044	-1.4580867866	 0.137776
H	-1.1725379789	 0.0227091498	-2.4809059679	 0.135021
H	 0.4433786052	 0.0892773366	-3.3475314858	 0.125635
89.6787	111.4872	148.4629	165.3312	204.6354	227.6377	267.4324	306.4659	377.8504	394.7178	420.9966	454.8656	591.4623	598.7342	687.4911	791.3923	832.4875	910.6161	922.5402	954.937	999.1591	1037.2684	1087.0967	1116.5118	1130.6816	1139.8614	1147.3153	1169.4514	1189.3848	1204.7116	1269.7361	1318.8181	1379.2146	1401.0897	1410.014	1485.9054	1489.5791	1490.7976	1502.0129	1517.2712	2332.0502	3013.0376	3055.097	3105.4865	3106.3953	3109.7169	3132.3581	3148.8563	3190.4844	3203.8674	3801.5518
CC(CO)(C#N)N1CC1	C[C@@](CO)(C#N)N1CC1	
InChI=1S/C6H10N2O/c1-6(4-7,5-9)8-2-3-8/h9H,2-3,5H2,1H3	InChI=1S/C6H10N2O/c1-6(4-7,5-9)8-2-3-8/h9H,2-3,5H2,1H3/t6-/m0/s1
