21
gdb 54913	3.43136	0.96605	0.91746	3.7608	80.44	-0.2322	0.0558	0.2879	1390.8495	0.182141	-420.443712	-420.433885	-420.43294	-420.478514	36.72	
C	-0.3578846412	 1.6059980406	-0.1433244058	-0.448469
C	 0.0274191743	 0.1380936366	 0.0050286857	 0.323538
C	-1.1754340011	-0.7854894998	-0.1766508922	-0.444597
C	 1.2747470697	-0.306631455	-0.8295387584	-0.206553
N	 1.9090864286	-0.7592252592	 0.4110054002	-0.098815
C	 0.8673165352	-0.1972380516	 1.2819615593	-0.231647
C	 3.2692083167	-0.8009543448	 0.6004836652	 0.407324
N	 3.6548814578	-0.8463793091	 1.9352322122	-0.557457
O	 4.0632833693	-0.7733426696	-0.3224528378	-0.395389
H	 0.5073132938	 2.2628963002	-0.0089328962	 0.120344
H	-0.7748755156	 1.8012811017	-1.1377806446	 0.119488
H	-1.1155760532	 1.8908013391	 0.5957017144	 0.115517
H	-1.6158974381	-0.6619935466	-1.1722862588	 0.118412
H	-0.8881091267	-1.8361042043	-0.0651046128	 0.12155
H	-1.9545423349	-0.567504147	 0.5626165784	 0.114235
H	 1.1031590473	-1.1018692894	-1.5623262675	 0.108915
H	 1.8225145936	 0.5081478826	-1.3157166408	 0.115585
H	 1.1993159952	 0.6793491822	 1.8523169111	 0.110811
H	 0.4113529991	-0.9184750322	 1.9718828601	 0.097959
H	 3.0231106664	-1.2813008299	 2.590698152	 0.250382
H	 4.6205084136	-1.1143975846	 2.0503736761	 0.258866
48.0313	101.295	160.101	165.6604	227.7332	273.3736	308.8845	318.1631	392.461	411.2349	423.136	442.3029	550.0706	566.6492	638.3023	732.1786	778.2123	873.0033	912.154	934.8404	941.0097	965.9246	992.7186	1057.487	1078.8837	1141.1886	1147.9673	1179.0543	1185.7718	1221.4391	1270.0778	1294.9525	1296.1198	1347.6299	1404.6949	1424.1625	1436.32	1485.3182	1488.6062	1502.4916	1504.1561	1514.8048	1529.9528	1622.2811	1790.9266	3006.4573	3022.6204	3026.8106	3035.5381	3050.9177	3078.2805	3089.1354	3094.0505	3099.3248	3101.3102	3574.2435	3690.1843
CC1(C)CN(C1)C(N)=O	CC1(C)CN(C1)C(=O)N	
InChI=1S/C6H12N2O/c1-6(2)3-8(4-6)5(7)9/h3-4H2,1-2H3,(H2,7,9)	InChI=1S/C6H12N2O/c1-6(2)3-8(4-6)5(7)9/h3-4H2,1-2H3,(H2,7,9)
