15
gdb 5598	3.78279	1.87935	1.29366	3.6986	63.4	-0.184	0.042	0.226	902.0948	0.120982	-399.822662	-399.815644	-399.8147	-399.85384	26.812	
N	 0.3035613117	 0.959793909	 0.3889824333	-0.524225
H	 0.4050213557	-0.0416896268	 0.5175568357	 0.241005
H	 1.5013867476	 2.3628816904	 0.9616945596	 0.304579
H	 0.2599675706	 1.1274509858	-0.6124416241	 0.245379
C	-0.9441843813	 1.4428182609	 1.0291554194	-0.290284
C	-0.9059312859	 2.9378812516	 1.1242288385	 0.099317
C	 0.2437829621	 3.6750242762	 1.2017913417	 0.365015
O	 1.5296440674	 3.3246964277	 1.175552499	-0.415842
O	-0.0115957781	 4.9911605645	 1.3055947454	-0.167858
C	-1.3831141932	 5.1230161701	 1.3046979433	-0.024765
C	-1.9683341084	 3.9064674056	 1.1916674069	-0.288607
H	-1.8501189014	 1.1131411208	 0.4986640336	 0.103266
H	-0.9856527914	 0.9798235943	 2.0248858638	 0.119588
H	-1.7493269343	 6.130986173	 1.3893751171	 0.130803
H	-3.0297947211	 3.7103299567	 1.1620607269	 0.102629
102.2539	217.055	240.9209	299.9997	336.2641	434.7074	468.5223	607.2544	650.7688	677.9678	719.7451	748.3025	795.7899	813.6666	908.3213	913.545	995.9052	1022.8538	1060.0215	1113.1032	1166.5535	1185.6679	1249.715	1291.6983	1327.4932	1391.5021	1424.2177	1507.9135	1528.2509	1563.9931	1643.8846	1672.9734	2984.2673	3015.8104	3243.4753	3297.7666	3412.2072	3493.8748	3576.7659
[NH3+]CC1=C([O-])OC=C1	NCc1c(O)occ1	
InChI=1S/C5H7NO2/c6-3-4-1-2-8-5(4)7/h1-2,7H,3,6H2	InChI=1S/C5H7NO2/c6-3-4-1-2-8-5(4)7/h1-2,7H,3,6H2
