17
gdb 51417	3.90054	1.12161	1.03825	2.9109	74.56	-0.2413	-0.0096	0.2318	1167.5179	0.138213	-417.974002	-417.96663	-417.965686	-418.006567	28.541	
O	-0.1484129412	-0.0613903752	 0.382333786	-0.321299
C	-0.0954919683	 1.1151988262	 0.0951563335	 0.150871
N	 1.0431570678	 1.8116262351	-0.1823061506	-0.296897
C	 2.3525997758	 1.2299346608	-0.1697509567	 0.067442
C	 3.3697535773	 1.4505829498	-1.3505775186	-0.095423
C	 3.4644809637	 2.9811291019	-1.3865505258	-0.069806
C	 3.5896093352	 3.2908324173	-0.0929714781	-0.069807
C	 3.5566046737	 1.9127396373	 0.5797884041	-0.095404
N	 4.488029993	 1.1624074421	-0.3602822277	-0.303758
H	-0.994151979	 1.7601475108	 0.0276786172	 0.075463
H	 0.9704587444	 2.7917668171	-0.4100793966	 0.242293
H	 2.23672803	 0.1779538412	 0.0933496957	 0.121909
H	 3.3397173274	 0.8886471883	-2.2830609773	 0.076942
H	 3.4551831584	 3.6084318715	-2.2654822802	 0.112947
H	 3.7126496831	 4.2456758966	 0.3961613182	 0.112946
H	 3.7207449532	 1.8310827879	 1.6533749965	 0.076946
H	 4.4320798754	 0.1681312913	-0.1168289095	 0.214636
46.3475	156.1437	200.7217	251.8684	368.9451	533.8316	557.5268	567.5776	601.2719	720.4043	748.8049	782.6469	838.1673	843.4742	861.8252	897.0693	921.1019	944.928	953.8428	1002.4261	1032.2481	1093.8291	1106.9803	1117.2256	1150.2867	1174.2172	1210.4074	1215.9756	1241.3923	1279.1594	1296.0671	1367.9333	1373.4967	1433.2635	1523.6717	1617.2198	1805.5626	2934.9969	3125.0041	3132.2869	3136.5444	3231.3232	3257.6507	3395.1055	3617.5932
O=CNC1C2C=CC1N2	O=CN[C@H]1[C@H]2C=C[C@@H]1N2	
InChI=1S/C6H8N2O/c9-3-7-6-4-1-2-5(6)8-4/h1-6,8H,(H,7,9)	InChI=1S/C6H8N2O/c9-3-7-6-4-1-2-5(6)8-4/h1-6,8H,(H,7,9)/t4-,5+,6+
