16
gdb 29300	4.00441	1.09616	0.9169	2.2866	73.47	-0.1961	0.0204	0.2165	1236.0607	0.126882	-434.079997	-434.072194	-434.07125	-434.112815	29.522	
O	 0.1574385809	 1.321658037	-0.0108065891	-0.437548
C	 0.0907083556	-0.026574063	-0.0461874227	 0.349209
C	-0.0980581578	-0.8142999479	-1.1516285174	-0.214564
N	-0.0927523045	-2.1087493195	-0.6447618511	-0.303662
C	 0.0982759859	-2.0361260272	 0.6946774136	 0.394092
N	 0.2099516847	-0.7760049066	 1.0883909717	-0.412766
C	 0.1554920459	-3.2089899792	 1.5831207006	-0.114413
C	 1.1244887766	-3.215443962	 2.717818406	-0.22876
N	-0.3102860958	-3.0582502457	 2.9736859582	-0.313433
H	 0.2945663354	 1.5614885864	 0.9133474111	 0.300218
H	-0.232891311	-0.5938768514	-2.1948290302	 0.132182
H	-0.2088590481	-2.9519644865	-1.1809631993	 0.26641
H	-0.1148419392	-4.1541774973	 1.1174814234	 0.085768
H	 1.5530012186	-4.156617398	 3.0516564529	 0.11873
H	 1.7673628792	-2.3452268663	 2.8104338305	 0.130872
H	-0.5117532162	-2.0694666127	 3.1182954517	 0.247665
57.5907	148.6187	156.2014	312.777	363.3614	383.9775	414.6591	459.2685	518.3293	638.3253	639.6878	703.1168	742.5355	753.3517	825.5141	889.0112	973.8435	991.8648	1021.1282	1051.1977	1097.2242	1117.7568	1134.8316	1176.6522	1191.9627	1250.463	1285.3778	1308.0717	1317.5934	1400.2647	1432.4321	1487.3973	1510.0023	1572.9653	1662.5125	3110.6842	3130.2131	3205.6828	3298.8188	3482.4389	3667.7915	3809.1493
OC1=CNC(=N1)C1CN1	Oc1c[nH]c(n1)[C@H]1CN1	
InChI=1S/C5H7N3O/c9-4-2-7-5(8-4)3-1-6-3/h2-3,6,9H,1H2,(H,7,8)	InChI=1S/C5H7N3O/c9-4-2-7-5(8-4)3-1-6-3/h2-3,6,9H,1H2,(H,7,8)/t3-/m1/s1
