25
gdb 58123	2.72856	0.95887	0.87651	2.7448	89.25	-0.2453	-0.0222	0.2231	1487.6845	0.225249	-389.510368	-389.49891	-389.497965	-389.547222	42.364	
C	 0.1672999664	 1.6020580347	-0.1901596994	-0.408275
C	 0.0437813203	 0.0831641631	 0.0222136442	 0.036681
C	 0.3664075799	-0.6299711291	-1.303018638	-0.412885
C	 0.8604871278	-0.4603693002	 1.2461046831	 0.268092
C	 0.7855743814	-2.0003374444	 1.2902177448	-0.42743
C	 2.3396562061	-0.0286606755	 1.1794242809	-0.429896
C	 0.1921714097	 0.0865455911	 2.5499908534	-0.295664
C	 0.9392044558	-0.2634152378	 3.8161229634	 0.147414
O	 0.6220881672	-1.1427175269	 4.5784234418	-0.246661
H	 1.173896317	 1.8799358469	-0.5199590146	 0.117865
H	-0.5291986742	 1.9268986187	-0.9696772893	 0.115063
H	-0.0623171552	 2.1822314166	 0.7077319827	 0.1127
H	-1.010005507	-0.131702119	 0.2511532469	 0.071623
H	 1.417671487	-0.5080930536	-1.5865279889	 0.11531
H	 0.1489661684	-1.699521039	-1.2664860602	 0.118413
H	-0.2355171714	-0.2008335346	-2.1105540978	 0.112626
H	 1.3717307382	-2.4527461305	 0.4861127711	 0.114764
H	 1.1715418891	-2.3849322809	 2.2383186572	 0.130753
H	-0.248625527	-2.3490204665	 1.1935376833	 0.113369
H	 2.4621589314	 1.0500435795	 1.316586037	 0.113976
H	 2.9319511166	-0.5302736621	 1.9513035448	 0.1185
H	 2.7830980501	-0.2950293951	 0.2153106687	 0.118662
H	 0.1288931216	 1.1794593014	 2.5010720106	 0.103944
H	-0.8207520034	-0.320069485	 2.6341762078	 0.115681
H	 1.8402939642	 0.3591164484	 4.0205251564	 0.075375
31.7785	77.053	83.4805	197.8657	210.3146	234.3358	261.5608	270.0881	298.7596	303.759	347.2646	364.5719	372.3642	426.4447	458.7038	510.903	540.5951	686.0539	809.0832	886.7241	921.2337	923.4813	934.18	948.4528	966.9561	988.9779	1025.9991	1047.3555	1101.7014	1122.1785	1168.5058	1188.0947	1215.5921	1238.0212	1274.4304	1313.7318	1350.113	1365.9004	1402.8248	1405.7557	1420.005	1432.0576	1434.0974	1469.909	1485.4599	1488.2031	1489.0932	1498.6961	1509.7271	1512.3734	1513.6914	1519.8201	1822.97	2864.8545	2996.1878	3033.1542	3034.723	3036.8834	3037.4689	3043.7609	3093.2821	3094.7946	3098.6566	3103.2175	3104.6533	3109.0406	3110.2642	3116.1636	3124.5765
CC(C)C(C)(C)CC=O	CC(C)C(C)(C)CC=O	
InChI=1S/C8H16O/c1-7(2)8(3,4)5-6-9/h6-7H,5H2,1-4H3	InChI=1S/C8H16O/c1-7(2)8(3,4)5-6-9/h6-7H,5H2,1-4H3
