16
gdb 130324	3.07114	1.32387	0.99355	4.6395	71.53	-0.2428	-0.026	0.2168	1166.4607	0.125394	-434.016982	-434.009106	-434.008162	-434.050089	29.551	
N	 0.0164279443	 1.3771838866	 0.1093046283	-0.591974
C	 0.0452456877	 0.0005141723	-0.0107031237	 0.265437
N	-1.0234586294	-0.7484535911	-0.0731811753	-0.166553
O	-0.5543003636	-2.0458927757	-0.1010635403	-0.167606
N	 0.8082457981	-2.079297875	-0.0629680198	-0.162668
C	 1.2108573387	-0.8391191182	-0.0062465154	 0.326593
C	 2.6211411976	-0.4175942006	 0.0373329567	-0.135488
C	 3.7286698091	-1.4415236672	 0.0733761138	-0.260534
C	 3.5210845967	-0.634167669	-1.1739410706	-0.257409
H	 0.7338025065	 1.8515717075	-0.42133821	 0.261029
H	-0.8982906402	 1.7709656662	-0.0667461355	 0.266722
H	 2.7819051755	 0.5012198091	 0.593176218	 0.101167
H	 4.5883757497	-1.2203473854	 0.6951136553	 0.120408
H	 3.429238412	-2.4823608306	 0.0601957345	 0.149857
H	 3.0780727659	-1.1302993142	-2.0298908237	 0.13201
H	 4.2336612313	 0.1464310952	-1.4160013423	 0.119008
43.988	151.5437	166.873	273.1981	301.8834	313.8478	454.3296	501.084	606.6309	614.9643	681.6884	744.3531	781.1482	807.7392	831.876	913.0812	919.6499	926.1737	946.6543	1031.3862	1066.0717	1092.0408	1114.2338	1132.3053	1154.9324	1203.3404	1205.1754	1242.0733	1413.3016	1464.5061	1469.1085	1501.4151	1563.2991	1626.4057	1665.7756	3138.4796	3147.9662	3153.516	3225.7421	3243.0608	3554.5663	3652.0119
NC1=NON=C1C1CC1	Nc1nonc1C1CC1	
InChI=1S/C5H7N3O/c6-5-4(3-1-2-3)7-9-8-5/h3H,1-2H2,(H2,6,8)	InChI=1S/C5H7N3O/c6-5-4(3-1-2-3)7-9-8-5/h3H,1-2H2,(H2,6,8)
