13
gdb 20329	6.35594	1.35608	1.18177	4.3251	64.82	-0.261	-0.0044	0.2566	958.1682	0.096138	-357.599191	-357.592238	-357.591294	-357.631332	24.834	
C	-0.2030948538	-1.0183270236	-0.7205616635	-0.431929
C	-0.0402732655	 0.0360344259	-0.1702276562	 0.295116
C	 0.1324175969	 1.3266036173	 0.4836505924	-0.290052
N	 1.4150425874	 1.9518718415	 0.1786721977	 0.069863
C	 2.0529165458	 2.0882209375	-1.0076644644	-0.088647
C	 3.1742378447	 2.819051197	-0.698961694	-0.063366
N	 3.1655804616	 3.0905465687	 0.6353890286	-0.188204
N	 2.0993720318	 2.5666921196	 1.1668504322	-0.140422
H	-0.3426602921	-1.9582833556	-1.1957578821	 0.214508
H	-0.6809697486	 2.0043876551	 0.1961705924	 0.161856
H	 0.1044522707	 1.2275284376	 1.5725285927	 0.178459
H	 1.6742609343	 1.6583855727	-1.9189809329	 0.154641
H	 3.9726630969	 3.1528727165	-1.3413456029	 0.128176
36.2529	113.1583	235.4994	322.6893	332.0344	465.4277	633.5883	641.3692	686.9659	714.8016	767.5123	792.9895	863.5627	958.1751	969.0873	981.2601	1041.3229	1084.468	1139.1425	1173.5862	1286.1223	1302.0284	1334.0171	1378.2498	1467.7496	1504.5677	1522.0486	2249.8845	3033.3473	3097.355	3271.9421	3297.2416	3502.1566
C#CCN1C=CN=N1	C#CCn1ccnn1	
InChI=1S/C5H5N3/c1-2-4-8-5-3-6-7-8/h1,3,5H,4H2	InChI=1S/C5H5N3/c1-2-4-8-5-3-6-7-8/h1,3,5H,4H2
