19
gdb 87283	2.65348	1.28682	1.06441	2.7617	77.23	-0.2331	-0.0392	0.1939	1205.6559	0.158756	-419.162577	-419.153486	-419.152542	-419.196542	33.512	
C	-0.1510971395	 1.5569787571	-0.0681741115	-0.407279
C	-0.071309665	 0.0582718861	 0.1092096457	-0.02417
N	 1.1537417223	-0.6203433964	-0.2909798721	-0.368913
C	 0.7720590578	-0.6587764389	 1.1427500185	 0.201729
C	 1.6725000281	 0.1778123742	 1.9933255261	 0.114489
O	 1.688451119	 0.1727505648	 3.2028766428	-0.274827
C	 0.2173366864	-1.9446468976	 1.6932345611	-0.077289
C	 1.0014955021	-2.8320749796	 2.5920330012	-0.2559
N	-0.1775656861	-2.1113688657	 3.0977875025	-0.327351
H	 0.8228938514	 2.0322312776	 0.0614297871	 0.131347
H	-0.5045007155	 1.7924637639	-1.0776058416	 0.129472
H	-0.8548543689	 1.9962112164	 0.64594533	 0.132101
H	-1.0101532749	-0.4606493416	-0.0875566245	 0.101728
H	 0.9625280088	-1.5231045873	-0.7193821546	 0.242239
H	 2.3513017199	 0.8323441832	 1.4094538344	 0.105605
H	-0.4730004083	-2.4195532541	 0.9940900118	 0.082332
H	 0.8892039856	-3.9098646855	 2.5126355854	 0.117221
H	 1.9832413295	-2.4961354414	 2.9122804186	 0.123999
H	 0.1497950073	-1.302816385	 3.6226133689	 0.253467
77.906	94.7129	174.9283	183.8954	223.5199	250.4613	304.1302	354.6409	392.8625	461.1771	507.9907	544.0878	745.9065	775.5578	851.0638	862.6862	893.8477	966.1234	980.9508	999.4363	1018.205	1054.8041	1063.43	1096.644	1112.3647	1126.9436	1151.4685	1211.2047	1232.9038	1264.7461	1296.0898	1324.7146	1376.4477	1394.0512	1412.2224	1430.109	1457.3183	1487.7984	1501.895	1510.7307	1800.1042	2928.5454	3042.486	3083.5712	3098.9003	3104.3878	3113.9702	3139.0025	3201.215	3499.9328	3503.8567
CC1NC1(C=O)C1CN1	C[C@H]1N[C@]1(C=O)[C@H]1CN1	
InChI=1S/C6H10N2O/c1-4-6(3-9,8-4)5-2-7-5/h3-5,7-8H,2H2,1H3	InChI=1S/C6H10N2O/c1-4-6(3-9,8-4)5-2-7-5/h3-5,7-8H,2H2,1H3/t4-,5-,6+/m1/s1
