16
gdb 19456	4.06744	1.81452	1.68399	1.2861	69.1	-0.25	0.0351	0.2851	821.1841	0.131594	-346.549491	-346.542894	-346.54195	-346.580025	26.367	
C	-0.1048027413	-1.3058804606	-0.1333664675	-0.452181
C	-0.0600122022	-0.1056115356	-0.0641815516	 0.310156
C	 0.0026755405	 1.335812077	 0.027343102	-0.179623
C	-0.0416018898	 2.0839449546	 1.3973419611	 0.06671
C	 1.0598156215	 1.4094990368	 2.2368979386	-0.22218
C	 2.1802717455	 1.4299468152	 1.1472983888	-0.22218
C	 1.3590974059	 2.1095166772	 0.035223983	 0.0667
O	 0.6780818928	 3.1789607121	 0.7564831462	-0.297152
H	-0.1500047165	-2.364878704	-0.1995031062	 0.198171
H	-0.6838602712	 1.8209937536	-0.6695414256	 0.113865
H	-0.9780796763	 2.3772843668	 1.8703065629	 0.086249
H	 1.3073050466	 2.011362819	 3.1131289224	 0.108955
H	 0.7877960823	 0.4020539376	 2.5590756287	 0.11365
H	 3.0378597509	 2.0429388741	 1.4302381089	 0.108954
H	 2.5287060935	 0.4338242194	 0.866100192	 0.113657
H	 1.8522777577	 2.4289564967	-0.8820903336	 0.08625
145.0957	154.4401	301.4732	367.2902	487.7173	530.4777	545.0651	638.881	641.9897	741.2132	796.1381	836.7553	843.9156	863.9021	875.2269	924.6474	985.6434	991.3782	1002.731	1019.1937	1103.4321	1126.3261	1134.7537	1198.2295	1216.2331	1248.996	1267.7104	1303.5573	1306.7122	1335.3934	1353.6694	1473.6678	1495.7506	2230.7612	3074.2952	3081.0304	3094.7124	3120.9407	3130.0729	3134.3929	3136.663	3502.4296
C#CC1C2CCC1O2	C#C[C@H]1[C@H]2CC[C@@H]1O2	
InChI=1S/C7H8O/c1-2-5-6-3-4-7(5)8-6/h1,5-7H,3-4H2	InChI=1S/C7H8O/c1-2-5-6-3-4-7(5)8-6/h1,5-7H,3-4H2/t5-,6+,7-
