17
gdb 39024	3.0863	1.74277	1.29787	2.696	73.38	-0.243	0.0076	0.2507	972.7241	0.137578	-421.785993	-421.779148	-421.778204	-421.817127	27.277	
C	-0.0560037907	 1.4917583011	-0.0094423898	-0.158463
O	 1.383979811	 1.5020118907	 0.2202181956	-0.308841
C	 1.4921597104	 0.1150154349	-0.2089083186	 0.07629
C	 2.1871891763	-0.8988917518	 0.6623976803	-0.001907
O	 1.5727540938	-1.2369524289	 1.9047681736	-0.242185
C	 1.4628023853	-2.1762033079	 0.8367840596	 0.056498
C	 0.0618918457	-2.4011532379	 0.2667271635	-0.296561
C	-0.6934551101	-1.1025547921	 0.0830733528	-0.217878
C	 0.0005118698	-0.0062794979	-0.1725806337	 0.247796
H	-0.6191611584	 1.8740346484	 0.8491556666	 0.125619
H	-0.3197508682	 2.0701985549	-0.9056911231	 0.107567
H	 1.9480430806	 0.0689555708	-1.2115214545	 0.081614
H	 3.2764982206	-0.8899847586	 0.683451019	 0.096817
H	 2.0532008189	-3.0828377122	 0.972618909	 0.094452
H	 0.1556159813	-2.9685935069	-0.6702704884	 0.119395
H	-0.4897348373	-3.0526917394	 0.9552701591	 0.12145
H	-1.763305239	-1.0865292674	 0.266715649	 0.098337
140.016	187.5037	271.4482	323.5199	379.4322	429.6461	480.8823	633.0982	718.1877	769.8866	785.6994	816.5104	850.679	902.8706	925.7897	948.9955	972.2768	988.9102	1030.1401	1038.2422	1066.7587	1085.5132	1126.4593	1137.7975	1146.854	1229.1487	1256.4503	1284.7707	1302.7118	1327.0355	1348.9234	1364.7614	1391.3789	1453.5887	1472.368	1507.6826	1794.2018	2967.4429	3004.5174	3009.9831	3052.8992	3064.5157	3104.6933	3120.9482	3174.4658
C1OC2C3OC3CC=C12	C1O[C@H]2[C@H]3O[C@H]3C[CH][C]12	
InChI=1S/C7H8O2/c1-2-5-7(9-5)6-4(1)3-8-6/h1,5-7H,2-3H2	InChI=1S/C7H8O2/c1-2-5-7(9-5)6-4(1)3-8-6/h1,5-7H,2-3H2/t5-,6+,7-/m0/s1
