18
gdb 90677	3.30668	1.12803	0.98296	3.5282	73.93	-0.2424	0.0008	0.2432	1243.334	0.146174	-439.06523	-439.056376	-439.055431	-439.099409	32.519	
C	-0.0966346234	 1.4584633387	-0.020681159	-0.475046
C	-0.0254686461	-0.0564836935	-0.0514707236	 0.361005
O	 0.9359962296	-0.6878320572	 0.3246283711	-0.328177
N	-1.1422113474	-0.6707993086	-0.6324229235	-0.125539
C	-2.4910676155	-0.6456379657	-0.0570102483	-0.05538
C	-3.4404909814	-1.134885564	-1.1508409636	-0.289153
C	-2.5884567254	-2.4695319241	-1.2250396603	 0.131523
O	-1.9782050451	-2.818279819	-2.4307688725	-0.427789
C	-1.6826343122	-1.9158768649	-0.1083642709	-0.070623
H	 0.9154449714	 1.8632177539	 0.0086072446	 0.150615
H	-0.6423286754	 1.8533995146	-0.8805083408	 0.138874
H	-0.6192985672	 1.7828704101	 0.8866423888	 0.142947
H	-2.7056381643	-0.021702613	 0.8018033626	 0.111787
H	-4.4590034359	-1.311136004	-0.7983048516	 0.112767
H	-3.4623755497	-0.5350294406	-2.063445084	 0.110101
H	-3.1715225244	-3.3327323842	-0.8969951188	 0.10089
H	-1.3370456541	-2.1223048623	-2.6243480298	 0.289496
H	-1.1417426734	-2.4393814862	 0.6696535698	 0.121701
69.8406	91.9309	109.1795	153.4535	201.8238	313.1176	392.1121	427.9447	465.4603	545.7511	587.3204	632.4229	703.1596	746.8356	841.284	854.8488	879.0747	941.5157	976.1037	993.3333	1027.4386	1043.3558	1053.5043	1070.8369	1111.5353	1145.7472	1178.9907	1225.3759	1246.6578	1284.0059	1296.2214	1316.7685	1385.2432	1402.7111	1439.4838	1469.7406	1472.6568	1480.1317	1793.1014	3045.2605	3069.4131	3094.6314	3114.867	3130.6914	3159.2354	3196.0654	3210.8173	3772.0787
CC(=O)N1C2CC(O)C12	CC(=O)N1[C@H]2C[C@@H](O)[C@@H]12	
InChI=1S/C6H9NO2/c1-3(8)7-4-2-5(9)6(4)7/h4-6,9H,2H2,1H3	InChI=1S/C6H9NO2/c1-3(8)7-4-2-5(9)6(4)7/h4-6,9H,2H2,1H3/t4-,5+,6-,7?/m0/s1
