17
gdb 123561	3.91964	1.54637	1.21505	2.7277	77.67	-0.2146	0.0277	0.2423	1002.8941	0.140964	-380.882084	-380.875641	-380.874697	-380.912706	26.578	
C	-0.0325644454	 1.4687329197	 0.0923711254	-0.278903
C	 1.2913151669	 0.7560451444	 0.0176434092	-0.016883
C	 2.0552625815	 0.4459157279	 1.3235184513	-0.37723
C	 1.0955781944	-0.4575923223	 2.0570378951	 0.196002
C	-0.0031892454	-0.7450229594	 1.2777278238	 0.389478
N	-0.8010032603	-1.5600520612	 1.9991667456	-0.339773
N	-0.2755430006	-1.8359464012	 3.220903001	-0.232648
C	 0.8731365506	-1.1548166629	 3.2601624019	-0.158197
C	-0.0175104718	-0.0459869209	-0.0229767987	-0.198848
H	-0.3498525998	 1.8973098197	 1.0375609523	 0.120813
H	-0.3390084837	 2.0299666623	-0.7846433673	 0.112732
H	 1.8684505341	 0.8808599995	-0.8911293793	 0.089979
H	 3.008787028	-0.0498246168	 1.1027439066	 0.111345
H	 2.2986879923	 1.3632644878	 1.872613361	 0.114026
H	-1.6845216688	-1.9706844116	 1.7509991806	 0.268743
H	 1.4854168159	-1.2144125371	 4.1484439044	 0.10564
H	-0.377674158	-0.523297208	-0.926910913	 0.093722
150.3075	235.0438	333.4081	409.1854	423.8297	501.2374	585.1333	681.027	701.6823	716.4784	768.5851	788.8509	812.7839	874.7381	886.1021	964.3487	975.757	988.6064	1036.7613	1070.7784	1085.2405	1094.971	1099.2142	1157.0147	1182.0402	1200.83	1233.0003	1256.6222	1299.2265	1342.6894	1363.4367	1409.332	1441.4647	1475.9961	1494.0143	1553.0985	1597.7812	3024.086	3053.9993	3124.1334	3172.9785	3179.9564	3213.4903	3239.6586	3677.0975
C1C2CC3=C(NN=C3)C12	C1[C@H]2Cc3c([nH]nc3)[C@@H]12	
InChI=1S/C7H8N2/c1-4-2-6(4)7-5(1)3-8-9-7/h3-4,6H,1-2H2,(H,8,9)	InChI=1S/C7H8N2/c1-4-2-6(4)7-5(1)3-8-9-7/h3-4,6H,1-2H2,(H,8,9)/t4-,6+/m1/s1
