19
gdb 14062	3.3032	1.61427	1.44541	2.0851	71.91	-0.2268	0.0699	0.2967	972.7195	0.164186	-365.006267	-364.997741	-364.996797	-365.039113	31.063	
C	-0.0991460809	 1.5868216948	 0.2619431948	-0.419032
C	 0.0204124706	 0.0822607497	 0.148682535	-0.066336
N	 1.2659654933	-0.6068493567	-0.2262248811	-0.140424
C	 2.4756282464	 0.1503404562	-0.5145505212	-0.321639
C	 0.7988890993	-0.7091649614	 1.1360923474	 0.274716
C	 1.4649515194	-0.2422761018	 2.4344520006	-0.14603
O	 1.0923701969	-1.4756481877	 3.0828332048	-0.277103
C	 0.4949763182	-2.0069184032	 1.8767006486	-0.141584
H	 0.7329971296	 2.0381536525	 0.807537621	 0.122224
H	-0.1484911658	 2.0542800631	-0.7275279633	 0.126414
H	-1.0204492928	 1.844960565	 0.7947044494	 0.12762
H	-0.8576732959	-0.3921029569	-0.290977279	 0.090033
H	 2.6439615048	 1.0271500955	 0.1280159508	 0.103604
H	 3.3389319268	-0.5139637708	-0.4062532378	 0.128094
H	 2.4445181174	 0.4915534002	-1.5538622375	 0.125743
H	 2.5549633342	-0.1127335373	 2.3886916044	 0.10162
H	 1.0237151902	 0.632944893	 2.9288593326	 0.102633
H	-0.5641766946	-2.2564001725	 2.0180009272	 0.102349
H	 1.0307240529	-2.8864163617	 1.4973351732	 0.1071
98.4306	153.4984	164.8315	174.0337	210.6519	245.2517	271.8615	441.3531	452.4142	521.1319	581.8994	734.3005	785.5263	868.4266	942.8462	972.8454	989.6264	1028.064	1036.3294	1099.0397	1112.4344	1127.9279	1144.5683	1150.1374	1156.4961	1170.2263	1201.8058	1223.009	1304.9187	1341.2418	1379.7486	1408.8617	1445.3138	1477.7114	1487.367	1494.3141	1503.2699	1506.6375	1510.9354	1530.6988	2989.5436	2999.095	3013.1743	3037.4086	3039.891	3056.2249	3070.3667	3091.7154	3095.902	3103.4549	3122.6268
CC1N(C)C11COC1	C[C@H]1N(C)C21COC2	
InChI=1S/C6H11NO/c1-5-6(7(5)2)3-8-4-6/h5H,3-4H2,1-2H3	InChI=1S/C6H11NO/c1-5-6(7(5)2)3-8-4-6/h5H,3-4H2,1-2H3/t5-,7?/m1/s1
