18
gdb 94253	1.88126	1.62696	1.24431	2.8837	79.55	-0.225	-0.0297	0.1953	1120.1981	0.144389	-401.892279	-401.882679	-401.881735	-401.926872	34.528	
C	-0.4378301203	 1.46333758	-0.1804310069	-0.330948
N	-0.1566454054	 0.0617893041	 0.0531249554	-0.117123
C	-1.2499559553	-0.8213420364	 0.5110516729	-0.156668
C	-0.2638578961	-1.5491293672	 1.4521797027	-0.294373
C	 0.7193550038	-0.3730107917	 1.1867229331	 0.072404
C	 2.0808282831	-0.7652390332	 0.6024010328	 0.129003
O	 2.5286110423	-1.8791141215	 0.6078845558	-0.244723
C	 0.9017042683	 0.5696997087	 2.280881263	 0.291982
C	 1.0969864551	 1.3685139598	 3.1595846757	-0.472587
H	 0.4843845176	 1.99597876	-0.4311505094	 0.126758
H	-1.115351498	 1.545831424	-1.0365763876	 0.126308
H	-0.9023902599	 1.9683773822	 0.6828939396	 0.108407
H	-2.0338125287	-0.2815200711	 1.063212713	 0.097472
H	-1.7183023174	-1.4036839628	-0.2887964446	 0.109846
H	-0.5786481364	-1.6751292347	 2.4861479789	 0.120706
H	 0.1338533986	-2.4871325022	 1.0651648518	 0.139647
H	 2.6124925964	 0.0841747479	 0.1211534493	 0.088448
H	 1.2569908122	 2.0628140742	 3.9476794144	 0.205442
75.9624	86.1361	133.6785	161.5242	187.1563	218.2578	273.027	316.9776	376.0114	476.7213	493.2233	579.2808	625.5439	635.8167	655.3395	745.108	804.2753	921.3801	948.5337	967.4864	978.8447	1026.9215	1116.7368	1160.0843	1167.9248	1187.2247	1208.2045	1232.2452	1247.6719	1267.5972	1327.6756	1409.1496	1448.5043	1483.8201	1489.5084	1498.9258	1523.9458	1836.4007	2217.7765	2898.3278	2966.9527	2989.482	3066.5509	3067.9837	3106.2961	3107.508	3168.4593	3497.2599
CN1CCC1(C=O)C#C	CN1CC[C@]1(C=O)C#C	
InChI=1S/C7H9NO/c1-3-7(6-9)4-5-8(7)2/h1,6H,4-5H2,2H3	InChI=1S/C7H9NO/c1-3-7(6-9)4-5-8(7)2/h1,6H,4-5H2,2H3/t7-/m0/s1
