19
gdb 83901	2.54598	1.4396	1.20925	5.1915	80.06	-0.2471	0.0217	0.2688	1114.0752	0.160704	-382.072659	-382.064138	-382.063194	-382.105775	31.977	
C	-0.0326785701	 1.6224172028	 0.092527302	-0.434958
C	 0.043270715	 0.112404043	 0.1013060358	-0.023355
N	 1.2018065416	-0.6911205412	-0.3060917349	-0.135927
C	 2.5033537796	-0.002932631	-0.3912933544	-0.159137
C	 2.8641243411	 0.6055718037	 0.990581053	-0.239429
C	 1.8546874656	-0.0125119218	 1.990055106	-0.292493
C	 0.7948126968	-0.6950666873	 1.1215616092	 0.15749
C	 0.2047831107	-1.9051255204	 1.6445786812	 0.230246
N	-0.2784938552	-2.853889638	 2.0960105612	-0.344963
H	 0.8044823902	 2.114414487	 0.5875356442	 0.128164
H	-0.0802862084	 1.9891240625	-0.9387116415	 0.136905
H	-0.9520400015	 1.940219624	 0.5943618132	 0.137708
H	-0.8777725519	-0.3490348484	-0.2515574706	 0.113626
H	 3.2367502472	-0.7582447862	-0.6875966659	 0.123526
H	 2.4724599986	 0.7486998739	-1.1861122805	 0.115518
H	 3.8931517168	 0.366853605	 1.270174161	 0.115076
H	 2.7902253064	 1.6951114113	 0.9768599402	 0.117054
H	 2.3296978277	-0.7658814043	 2.6230243748	 0.132379
H	 1.41530779	 0.7353793955	 2.6560349458	 0.122574
114.5831	130.8012	160.951	173.5485	188.63	257.5565	394.5248	476.9052	534.694	557.8427	571.5879	694.2528	706.9046	762.9335	806.8634	835.2416	903.6788	916.1977	976.9289	1016.5314	1030.5897	1053.6506	1092.4292	1141.2648	1165.6408	1199.0885	1222.696	1242.7683	1264.3795	1305.7344	1325.2067	1341.4787	1364.7465	1413.453	1432.3266	1483.7905	1491.7563	1500.2498	1505.7748	1521.9995	2352.7553	3044.6456	3053.6249	3062.6766	3073.1082	3085.9717	3100.0967	3101.2076	3116.0266	3118.7019	3152.0405
CC1N2CCCC12C#N	C[C@H]1N2CCC[C@@]12C#N	
InChI=1S/C7H10N2/c1-6-7(5-8)3-2-4-9(6)7/h6H,2-4H2,1H3	InChI=1S/C7H10N2/c1-6-7(5-8)3-2-4-9(6)7/h6H,2-4H2,1H3/t6-,7-,9?/m1/s1
