12
gdb 21113	3.55628	2.54255	1.49642	2.1212	59.03	-0.2638	-0.1022	0.1616	764.1735	0.084876	-410.837589	-410.83106	-410.830116	-410.868519	23.202	
C	-0.0326945904	 1.439325943	-0.0160031109	-0.318451
N	-0.0087715686	-0.0198684277	 0.0004804596	-0.04151
N	-0.0537709302	-0.6241870955	-1.1781761775	-0.038076
N	-0.0355240085	-1.9062823267	-1.2237335368	-0.202309
C	 0.0307637801	-2.5739779347	-0.0201838559	 0.121161
N	 0.0778553894	-2.0662048172	 1.169637293	-0.294505
C	 0.0601472163	-0.6852758716	 1.2605520009	 0.48085
O	 0.0968046905	-0.0376167864	 2.2768693054	-0.359353
H	 0.8687611313	 1.823176718	 0.4663039667	 0.168349
H	-0.0853640502	 1.7547285082	-1.0567407744	 0.161415
H	-0.898039355	 1.7951699785	 0.5471638214	 0.168331
H	 0.0433875053	-3.6572005579	-0.1207214515	 0.154099
102.1246	153.2943	245.7598	322.3846	370.3703	526.8655	563.5046	590.4253	639.963	753.839	819.1651	947.936	962.0575	1016.9381	1090.3011	1150.2509	1154.0892	1239.5242	1321.7922	1417.4557	1428.1158	1469.3504	1472.728	1499.4152	1616.0946	1828.1032	3066.5389	3138.2964	3167.9499	3181.7864
CN1N=NC=NC1=O	Cn1nncnc1=O	
InChI=1S/C3H4N4O/c1-7-3(8)4-2-5-6-7/h2H,1H3	InChI=1S/C3H4N4O/c1-7-3(8)4-2-5-6-7/h2H,1H3
