17
gdb 105655	2.00478	1.44056	1.23263	6.2409	68.88	-0.2608	-0.0001	0.2607	1119.6079	0.135485	-455.116793	-455.107527	-455.106583	-455.151007	33.456	
N	 0.2436689009	 1.2599395577	-0.5094422132	-0.511692
C	 0.0444683618	-0.062247719	 0.0196955502	-0.087349
C	-0.1492775866	-0.3357656377	 1.5343356405	-0.098112
O	-1.3678792753	-1.0765525008	 1.2872329142	-0.317879
C	-1.3879458626	-0.6901888817	-0.1131363904	 0.221087
C	-2.5518363562	 0.2763049792	-0.353602049	-0.081874
O	-3.7659529393	-0.3222604583	 0.0298686191	-0.412472
C	-1.4783197342	-1.8657014047	-0.9847497883	 0.273987
N	-1.4972850299	-2.7783334308	-1.6933835222	-0.335878
H	-0.119969155	 1.9822638045	 0.1012077959	 0.238094
H	 1.2231598231	 1.4541151199	-0.6736326554	 0.246687
H	 0.7861092922	-0.730522907	-0.4196146513	 0.122215
H	 0.6043220672	-0.9507356117	 2.0360152107	 0.123589
H	-0.3349456905	 0.5685303144	 2.1297353676	 0.102565
H	-2.35720534	 1.2021643343	 0.2092503876	 0.080238
H	-2.6236253454	 0.5349359013	-1.4128351563	 0.139682
H	-3.6369366504	-0.6529904897	 0.9280771404	 0.297113
80.4729	101.5168	152.7902	171.1704	194.7281	216.2044	298.7068	370.3845	424.7296	471.7554	494.6341	551.4186	589.4111	670.9885	758.5343	778.2354	885.5507	932.4353	1000.3627	1012.4817	1041.7166	1076.0724	1101.0997	1140.6039	1158.051	1190.5362	1231.909	1264.135	1286.1979	1332.6071	1382.0154	1423.2342	1440.7984	1491.4992	1519.4471	1667.2068	2354.4011	2985.7087	3011.7349	3079.0784	3106.7328	3110.7753	3528.2644	3613.3839	3777.3996
NC1COC1(CO)C#N	N[C@H]1CO[C@]1(CO)C#N	
InChI=1S/C5H8N2O2/c6-2-5(3-8)4(7)1-9-5/h4,8H,1,3,7H2	InChI=1S/C5H8N2O2/c6-2-5(3-8)4(7)1-9-5/h4,8H,1,3,7H2/t4-,5-/m0/s1
