25
gdb 120636	4.30981	0.68574	0.64917	1.6017	90.58	-0.2532	0.089	0.3422	1900.7624	0.225922	-389.494706	-389.483239	-389.482295	-389.532208	41.108	
C	 0.2071958207	 1.4002918892	 0.4487567456	-0.383165
C	-0.0645516302	-0.1010219499	 0.3311881979	-0.152351
C	-1.3647030886	-0.4182579954	-0.4229696918	-0.222188
C	-1.603288935	-1.9051916227	-0.5332137082	 0.009783
O	-1.9958568583	-2.6026297218	 0.6596039983	-0.306185
C	-2.905353241	-2.5987817329	-0.4589990432	 0.394724
C	-4.20101652	-1.8446708509	-0.2437365071	-0.466031
C	-3.0387901422	-3.9551119476	-1.1391305858	-0.24225
C	-3.7639426287	-4.9990127916	-0.280047268	-0.380877
H	 1.1369840556	 1.5954113753	 0.9920625964	 0.112771
H	 0.2941767327	 1.8674859787	-0.5388366377	 0.111669
H	-0.6028732431	 1.9089740035	 0.9833367806	 0.114643
H	 0.7773173658	-0.589346476	-0.1771513805	 0.093784
H	-0.1225014437	-0.5510315165	 1.3291089049	 0.115526
H	-2.2039434326	 0.0693523066	 0.0825111083	 0.098934
H	-1.3156885799	 0.0033357889	-1.4368330848	 0.095217
H	-0.8194036808	-2.4259387925	-1.0917206846	 0.076236
H	-4.0416609165	-0.9178241631	 0.3080750064	 0.128092
H	-4.6701478955	-1.6039442	-1.2042021509	 0.117965
H	-4.9088346866	-2.4518460769	 0.3289366766	 0.127117
H	-3.5610511608	-3.8246906653	-2.0959065966	 0.09457
H	-2.0347197566	-4.3233185498	-1.3754194	 0.100906
H	-3.7560209491	-5.9765349985	-0.7712897013	 0.111634
H	-3.2685909057	-5.1011835713	 0.6900463141	 0.134252
H	-4.8096180799	-4.7308378197	-0.1004869789	 0.115223
45.2352	61.4393	83.7615	99.1586	152.747	183.2959	222.3033	244.9061	285.358	303.594	325.308	373.645	423.3249	508.8393	595.7077	690.7984	745.2654	781.7798	810.2269	874.9981	898.2333	902.6902	947.1919	999.2163	1026.0571	1049.5858	1055.3808	1083.211	1123.0214	1128.3386	1156.7396	1158.3092	1244.6861	1263.563	1293.8607	1305.6606	1329.3831	1348.1399	1379.8782	1393.3809	1406.3101	1413.0035	1415.018	1464.8628	1471.9098	1474.5692	1489.9908	1492.9998	1499.664	1503.4562	1508.3357	1509.3507	1513.0217	3014.9951	3022.0976	3024.5615	3028.3844	3039.2997	3042.828	3053.8342	3059.3203	3069.1254	3084.3584	3097.51	3100.6227	3101.8291	3108.6656	3117.2305	3142.7503
CCCC1OC1(C)CC	CCC[C@H]1O[C@]1(C)CC	
InChI=1S/C8H16O/c1-4-6-7-8(3,5-2)9-7/h7H,4-6H2,1-3H3	InChI=1S/C8H16O/c1-4-6-7-8(3,5-2)9-7/h7H,4-6H2,1-3H3/t7-,8-/m1/s1
