18
gdb 54385	3.95103	1.1355	1.03113	2.6262	73.41	-0.2449	0.0232	0.2681	1199.6693	0.14605	-439.063579	-439.054622	-439.053678	-439.09753	33.633	
C	-0.2123451387	 1.3610314205	 0.0868373485	-0.509632
C	 0.0683267898	-0.1064296487	 0.0229687569	 0.382408
C	 0.4949976307	-0.9908415694	-1.1804689657	-0.280656
C	 0.1072320553	-1.9050300083	 0.0064026393	 0.349906
C	 0.9285441084	-1.0009109418	 0.9569099383	-0.280614
O	-1.0776352878	-1.0452767869	 0.2509747495	-0.391374
C	-0.0560307667	-3.4007253725	 0.0328108326	 0.258202
N	-1.3272326216	-3.7959228831	 0.2969874253	-0.535514
O	 0.8829751058	-4.1469506879	-0.166917635	-0.3715
H	 0.7056026406	 1.9277997065	-0.097299711	 0.131091
H	-0.9520052401	 1.6436495465	-0.6681900774	 0.135322
H	-0.5977645308	 1.635662621	 1.0732790442	 0.135273
H	-0.2025268828	-1.0048973739	-2.0189758561	 0.107796
H	 1.5423346182	-0.9761015873	-1.4875103356	 0.109345
H	 2.0127828823	-0.9871170756	 0.8317241155	 0.109344
H	 0.612779332	-1.0239856684	 2.0007503635	 0.107748
H	-2.0510878802	-3.1140404082	 0.4499373358	 0.279954
H	-1.5375519941	-4.7793129826	 0.3353506915	 0.262902
39.9615	146.471	149.4154	191.9758	246.0803	306.5297	325.27	364.683	466.7133	541.7899	570.8163	617.7153	628.6427	649.5213	709.8172	731.716	808.4698	926.0155	948.7205	960.0223	986.0939	1060.9707	1075.6389	1090.3487	1093.7808	1128.5193	1157.4157	1169.5435	1202.1572	1233.5788	1327.685	1403.23	1420.8936	1467.2681	1476.5042	1488.5037	1521.6214	1607.7174	1800.9173	3040.4816	3070.3725	3077.9274	3115.7251	3116.6978	3151.258	3157.0231	3597.793	3738.3432
CC12CC(C1)(O2)C(N)=O	C[C@@]12C[C@@](C1)(O2)C(=O)N	
InChI=1S/C6H9NO2/c1-5-2-6(3-5,9-5)4(7)8/h2-3H2,1H3,(H2,7,8)	InChI=1S/C6H9NO2/c1-5-2-6(3-5,9-5)4(7)8/h2-3H2,1H3,(H2,7,8)/t5-,6+
