17
gdb 98531	3.80245	1.14849	1.0318	0.4402	70.2	-0.2448	0.	0.2447	1196.8896	0.134526	-458.916922	-458.908426	-458.907482	-458.951781	30.412	
C	-0.0055446711	 1.28360029	-0.2637557306	-0.244204
O	-0.1049291974	-0.1478383891	-0.3042865167	-0.218045
C	-1.2505418262	-0.6519973557	 0.1674035739	 0.279797
O	-2.167185612	-0.0031540602	 0.6072165421	-0.38125
C	-1.2828341831	-2.1486090222	 0.0943196609	 0.360236
C	-1.3825576325	-3.1574183795	 1.2713169503	-0.244046
C	-1.1742412699	-3.9236187533	-0.0560960923	 0.039479
C	-2.2496937293	-3.0408567526	-0.7317753985	-0.244137
O	-0.146247321	-2.9232403558	-0.4429313391	-0.333583
H	 0.9733968026	 1.5219788427	-0.6782084487	 0.139869
H	-0.7985113658	 1.7399735978	-0.8612958221	 0.143593
H	-0.0869528036	 1.6445437559	 0.7644562709	 0.14362
H	-0.5263312524	-3.1547471094	 1.9461242562	 0.116079
H	-2.3424495949	-3.2484240246	 1.7829931567	 0.111395
H	-0.9332335363	-4.9724116021	-0.2214903335	 0.103706
H	-3.2833605905	-3.1219464822	-0.3905125618	 0.111385
H	-2.1534037165	-2.9358897798	-1.8126101677	 0.116105
17.2716	108.1937	128.3903	144.8505	255.028	302.9648	372.797	438.3247	538.6735	590.6985	722.8415	747.4951	803.6678	821.0482	906.1233	939.0725	953.1165	953.2228	985.3393	1022.9292	1084.691	1092.533	1121.8194	1161.5569	1177.8249	1179.9877	1214.5728	1227.7806	1236.125	1238.2377	1363.8419	1465.6739	1474.2792	1482.3167	1495.1531	1510.0127	1813.5255	3054.1987	3073.026	3079.5867	3129.5683	3135.5694	3157.5342	3162.6635	3165.7547
COC(=O)C12CC(C1)O2	COC(=O)[C@@]12C[C@@H](C1)O2	
InChI=1S/C6H8O3/c1-8-5(7)6-2-4(3-6)9-6/h4H,2-3H2,1H3	InChI=1S/C6H8O3/c1-8-5(7)6-2-4(3-6)9-6/h4H,2-3H2,1H3/t4-,6+
