18
gdb 85448	2.58287	1.58227	1.16222	4.3318	73.68	-0.2467	0.0584	0.3051	1095.612	0.147547	-439.098317	-439.090159	-439.089215	-439.131175	31.343	
C	-0.100066221	 1.669973839	-0.0752358546	-0.398846
C	 0.0247126454	 0.1578978249	 0.0585961802	 0.012421
O	 0.8589370478	-0.3629238394	-0.9972933317	-0.262291
C	 2.0914430119	-0.6657447643	-0.4983834755	 0.475215
N	 3.1066589236	-1.0267986815	-1.1452303254	-0.580827
O	 2.10434877	-0.5208060086	 0.8496802965	-0.252547
C	 0.7730869815	-0.3236254955	 1.29321365	 0.424628
C	 0.5796221569	 0.146906977	 2.6917759686	-0.341403
C	 0.2303848401	-1.2835942877	 2.3074122153	-0.331296
H	 0.8736459572	 2.1515326832	 0.0529770632	 0.138501
H	-0.4919808235	 1.9276880427	-1.0625290881	 0.134156
H	-0.7844813734	 2.0652533237	 0.6815060497	 0.122884
H	-0.9526069501	-0.3237239605	-0.0355629279	 0.103939
H	 2.899834454	-1.0315448727	-2.1412096758	 0.22987
H	 1.4751184714	 0.3018982622	 3.2825728348	 0.141424
H	-0.2260371217	 0.8434414849	 2.8973390087	 0.123931
H	-0.8164336642	-1.5626348274	 2.2446354501	 0.121237
H	 0.8975011142	-2.0677076202	 2.6461720819	 0.139004
79.0842	111.1988	214.6009	241.2217	274.5059	312.2105	397.2447	501.5566	521.8657	542.9254	707.9516	719.3997	760.0916	781.4336	804.0715	892.1358	895.6469	913.8013	967.2437	979.6802	1004.8143	1048.5219	1065.1811	1080.2988	1084.3728	1097.9509	1137.1495	1189.506	1244.5296	1279.9597	1349.6667	1385.5944	1400.1055	1409.4747	1453.235	1487.4705	1490.8774	1506.1293	1801.4188	3044.8297	3071.0102	3119.625	3129.1058	3134.8327	3139.2746	3221.8496	3234.9613	3535.9475
CC1OC(=N)OC11CC1	C[C@H]1O[C]([NH])OC21CC2	
InChI=1S/C6H9NO2/c1-4-6(2-3-6)9-5(7)8-4/h4,7H,2-3H2,1H3	InChI=1S/C6H9NO2/c1-4-6(2-3-6)9-5(7)8-4/h4,7H,2-3H2,1H3/t4-/m1/s1
