19
gdb 40639	3.39939	1.16468	1.1374	2.024	80.29	-0.2302	0.0158	0.2459	1167.0162	0.160665	-385.858819	-385.85125	-385.850306	-385.89129	29.722	
C	-0.4652404511	 1.3364784285	-0.2110687107	-0.187742
O	 0.6300043687	 1.6876473367	 0.6337802571	-0.241229
C	 0.4368259398	 0.3010540615	 0.312341382	 0.077932
C	 0.032132903	-0.576537902	 1.4460321315	-0.037668
C	-0.2239269666	-2.062448306	 1.3208830159	-0.079051
C	 0.3228477456	-2.8316275298	 0.1142161856	-0.272164
C	 1.8250225737	-2.6795315277	 0.2430750237	-0.078844
C	 2.1667441984	-2.0110983384	 1.3479812955	-0.071653
C	 0.9721955	-1.5702828477	 2.1238045143	-0.103379
H	-1.4542387841	 1.4583080579	 0.2305359619	 0.107973
H	-0.3822772223	 1.6572879974	-1.249215124	 0.110162
H	 1.1912278138	-0.0995946544	-0.3616737873	 0.096913
H	-0.6398359375	-0.0684228366	 2.1333047609	 0.091348
H	-1.1052716999	-2.4506370629	 1.8178124063	 0.086747
H	 0.0223225145	-3.8870544428	 0.1518535593	 0.10907
H	-0.0513474409	-2.4438171931	-0.8425036319	 0.110869
H	 2.5152177303	-3.05626064	-0.5034842896	 0.094627
H	 3.1806749531	-1.7786911965	 1.652860788	 0.097792
H	 0.9962563916	-1.581941494	 3.2080933213	 0.088298
66.7967	145.2317	163.3202	294.3671	332.5393	385.9337	503.1519	577.7548	705.3975	754.0941	771.0864	778.7299	805.9329	848.2117	866.2469	933.8598	938.2084	954.1179	963.0152	986.2827	1015.8805	1024.572	1067.1222	1094.0696	1107.1405	1111.6993	1136.1759	1154.3986	1176.2248	1185.8799	1237.9524	1292.8096	1300.8885	1306.8695	1323.4825	1370.478	1387.165	1474.5904	1482.485	1531.755	1665.5319	3015.82	3039.9632	3074.721	3131.5542	3140.5769	3160.314	3164.0414	3177.4159	3186.5801	3211.2938
C1OC1C1C2CC=CC12	C1O[C@H]1[C@H]1[C@H]2CC=C[C@@H]12	
InChI=1S/C8H10O/c1-2-5-6(3-1)8(5)7-4-9-7/h1-2,5-8H,3-4H2	InChI=1S/C8H10O/c1-2-5-6(3-1)8(5)7-4-9-7/h1-2,5-8H,3-4H2/t5-,6+,7-,8-/m1/s1
