19
gdb 100175	1.77334	1.52585	1.21975	2.658	72.63	-0.2296	-0.037	0.1926	1162.9887	0.157236	-456.380262	-456.370026	-456.369082	-456.41538	37.172	
C	-0.8006231896	 0.8572178132	 0.2304811697	-0.330012
N	 0.5158604394	 0.2432280436	 0.1098506409	-0.337333
C	 0.8646470102	-0.3898532378	-1.1531114742	 0.053015
C	 0.2774980496	 0.2475658405	-2.4371674509	-0.432302
C	 2.3874805902	-0.3198257494	-1.3149487161	 0.165559
O	 3.0991632831	 0.3687551761	-0.6298624094	-0.269053
C	 0.5268979233	-1.91118294	-1.1648836665	 0.392052
N	 0.2245365207	-2.4098970893	 0.0542832463	-0.52555
O	 0.5801890585	-2.5612676156	-2.1930740309	-0.380148
H	-0.9958385983	 1.6751873333	-0.4791875875	 0.112162
H	-1.5808091293	 0.1007182879	 0.0926858073	 0.12746
H	-0.9058299746	 1.2575262675	 1.2429025443	 0.12515
H	 1.2606947485	 0.8854877157	 0.3619529532	 0.238581
H	 0.5975103479	 1.2894678488	-2.5305572978	 0.121893
H	 0.6067049865	-0.3156351266	-3.3110470632	 0.152617
H	-0.8144698899	 0.2159335272	-2.4165904789	 0.133582
H	 2.7805501456	-0.943249397	-2.1413845875	 0.119899
H	 0.2840715314	-1.7879305978	 0.8465285575	 0.270436
H	 0.0741253367	-3.3990103704	 0.1586325936	 0.261993
55.5983	97.4149	126.1127	211.6755	222.5037	226.2179	272.7375	295.3101	332.2814	349.9526	387.4137	395.1802	504.2352	539.375	633.5821	680.2572	728.8043	746.1159	792.1474	905.157	915.9136	1005.2627	1080.4074	1103.0646	1121.806	1134.3542	1164.2209	1224.2701	1249.0798	1344.3608	1387.3902	1402.4358	1458.9706	1481.1351	1485.5564	1502.2837	1504.6763	1524.9029	1563.1395	1789.3772	1822.865	2954.8324	2990.1796	3051.1162	3065.1451	3105.8672	3124.6977	3151.5405	3516.6784	3568.1475	3722.9146
CNC(C)(C=O)C(N)=O	CN[C@@](C)(C=O)C(=O)N	
InChI=1S/C5H10N2O2/c1-5(3-8,7-2)4(6)9/h3,7H,1-2H3,(H2,6,9)	InChI=1S/C5H10N2O2/c1-5(3-8,7-2)4(6)9/h3,7H,1-2H3,(H2,6,9)/t5-/m0/s1
