16
gdb 34646	3.67077	1.22975	0.96183	2.4708	81.71	-0.2372	-0.0384	0.1988	1182.6795	0.125745	-396.905856	-396.897823	-396.896879	-396.93853	30.285	
C	 0.0991635818	-1.2070583504	-0.2718685793	-0.368585
C	-0.0333527507	-0.0216246728	-0.1200409557	 0.261844
C	-0.1442872284	 1.3995395919	 0.0904746142	 0.200831
N	-1.2535058898	 1.9774633658	-0.1437296562	-0.27949
C	-1.4398915655	 3.3849351021	 0.1371908036	-0.181142
C	-0.3619741764	 4.3377046258	-0.4264830251	-0.172341
N	 0.9030726041	 4.3518823627	 0.2792585973	-0.230538
C	 1.4580291239	 3.2826390127	 0.6651002706	 0.087382
N	 1.0546330618	 1.952312179	 0.5665721732	-0.361729
H	 0.1877217756	-2.2557490223	-0.418184792	 0.207304
H	-2.4112265364	 3.6758824775	-0.2765038105	 0.109898
H	-1.5003792832	 3.5399040148	 1.2237508532	 0.122237
H	-0.193524822	 4.0852671579	-1.4817735004	 0.122517
H	-0.7617145864	 5.3579579536	-0.411014722	 0.10826
H	 2.4278949774	 3.3520373406	 1.1613094663	 0.114718
H	 1.7518636542	 1.2716944811	 0.8304984529	 0.258833
91.0005	132.029	156.41	224.8943	339.8247	372.4917	426.09	498.2658	542.0345	565.7374	616.6017	637.8586	671.264	719.5716	746.341	826.4049	906.6431	938.9549	948.0532	1027.2974	1068.8215	1085.7146	1155.0364	1209.768	1245.2284	1304.3424	1337.0512	1377.4377	1443.8475	1486.8125	1491.6104	1518.8293	1718.4702	1758.8036	2235.1342	3009.0672	3020.2884	3058.3432	3065.5948	3113.0854	3498.313	3606.3094
C#CC1=NCCN=CN1	C#CC1=NCCN=CN1	
InChI=1S/C6H7N3/c1-2-6-8-4-3-7-5-9-6/h1,5H,3-4H2,(H,7,8,9)	InChI=1S/C6H7N3/c1-2-6-8-4-3-7-5-9-6/h1,5H,3-4H2,(H,7,8,9)
