17
gdb 45621	4.56373	0.98799	0.86013	3.132	75.63	-0.219	-0.009	0.2099	1314.4947	0.137368	-418.025319	-418.017283	-418.016339	-418.058605	30.125	
O	-0.3541824236	 0.0430693991	-0.7111863296	-0.365259
C	-0.1809161085	 1.1822077471	-0.3485197512	 0.405177
C	-1.1145847097	 2.0853758151	 0.4773878288	-0.38259
C	-0.3322803008	 3.3621338891	 0.6288396734	-0.234226
C	 0.8443478943	 3.2327092846	-0.0026101683	 0.368497
N	 0.9401310871	 1.9566896321	-0.5953733803	-0.380441
C	 1.9696070721	 4.1760091346	-0.1576418681	-0.121
C	 2.1810143511	 5.2729353398	 0.8149300761	-0.231786
N	 3.1113736996	 4.1328375467	 0.7937875443	-0.312398
H	-2.0643534126	 2.2131015731	-0.055349738	 0.147698
H	-1.3546689667	 1.5895803601	 1.4253099368	 0.145559
H	-0.6807816343	 4.2529680525	 1.1279889879	 0.107233
H	 1.7525347418	 1.5987586364	-1.0709806891	 0.263367
H	 2.2958299244	 4.3304794727	-1.1849832394	 0.106836
H	 2.6007770034	 6.213915519	 0.4725941202	 0.126332
H	 1.4862979923	 5.3595696033	 1.6449317237	 0.120972
H	 2.8760672099	 3.5030394548	 1.5587562428	 0.23603
53.1633	112.1759	172.2793	180.4492	325.4453	390.2877	437.9985	514.4868	560.2691	588.1423	674.1231	699.7655	746.3662	836.8891	848.6705	870.1144	950.6859	959.8682	975.9585	985.1924	1030.1571	1105.5174	1135.9838	1144.8182	1169.8693	1191.369	1207.3488	1260.0985	1276.6151	1300.9774	1313.9434	1389.151	1433.4411	1448.8586	1508.7344	1701.2112	1841.7103	3043.1104	3073.6213	3117.1945	3121.0242	3205.5669	3251.5101	3487.4098	3655.9242
O=C1CC=C(N1)C1CN1	O=C1CC=C(N1)[C@H]1CN1	
InChI=1S/C6H8N2O/c9-6-2-1-4(8-6)5-3-7-5/h1,5,7H,2-3H2,(H,8,9)	InChI=1S/C6H8N2O/c9-6-2-1-4(8-6)5-3-7-5/h1,5,7H,2-3H2,(H,8,9)/t5-/m1/s1
