20
gdb 96847	3.25236	1.12689	0.88344	3.3857	88.95	-0.2249	-0.0176	0.2073	1371.5421	0.169509	-403.187408	-403.177654	-403.176709	-403.222486	35.012	
C	-0.0618809537	 1.4531454101	-0.0769513138	-0.331994
N	-0.1227172639	 0.0020965682	-0.0813515051	-0.341057
C	 0.4901351924	-0.6423456027	-0.9792992693	 0.445863
O	 1.2417723116	-0.0846884475	-1.9951620052	-0.27058
C	 1.7725936322	-1.1231699439	-2.8312913291	 0.023172
C	 3.2931529579	-0.9938546972	-2.9021585903	-0.396556
C	 1.2656403002	-2.4091686363	-2.2140896529	 0.316073
C	 1.5743813392	-3.7503745115	-2.7900257986	-0.499488
C	 0.5321993832	-2.0962494074	-1.1421955443	-0.31488
H	 0.318446721	 1.8932462135	-1.00602962	 0.119221
H	-1.0633914295	 1.8510866002	 0.1201372992	 0.119055
H	 0.5782942149	 1.7905740293	 0.7486766946	 0.121233
H	 1.3519687903	-0.9897896502	-3.8402337469	 0.096471
H	 3.7355115978	-1.1378664823	-1.9122137736	 0.129242
H	 3.7113491025	-1.7378862831	-3.5872233198	 0.119375
H	 3.5670953932	-0.0005012782	-3.2665058617	 0.134323
H	 2.6529722246	-3.949261792	-2.7838456188	 0.138469
H	 1.0793446746	-4.5473045174	-2.2303738558	 0.137405
H	 1.2503910104	-3.8145819491	-3.8364193635	 0.135169
H	 0.0188581912	-2.7660763926	-0.4674296052	 0.119484
48.4808	100.022	124.7148	165.0208	198.1444	221.6664	242.775	301.2451	340.7466	400.0737	495.3035	559.3751	619.5952	687.8469	714.9191	799.2322	885.5268	890.1042	952.2439	1003.7309	1030.7674	1038.5656	1083.6046	1105.2762	1119.9843	1126.9914	1145.0905	1192.1677	1217.3167	1326.2306	1351.1344	1358.0934	1401.7319	1413.3161	1437.0108	1477.6866	1483.2231	1489.9772	1491.4352	1495.1343	1498.439	1705.3138	1778.0526	2983.8836	3009.1406	3023.2294	3042.7207	3063.8607	3070.5154	3084.4018	3117.5246	3122.1073	3127.3599	3243.7709
CN=C1OC(C)C(C)=C1	CN=C1O[C@@H](C)C(=C1)C	
InChI=1S/C7H11NO/c1-5-4-7(8-3)9-6(5)2/h4,6H,1-3H3	InChI=1S/C7H11NO/c1-5-4-7(8-3)9-6(5)2/h4,6H,1-3H3/t6-/m0/s1
