18
gdb 41521	2.93678	1.64791	1.1362	3.3783	77.99	-0.2296	0.0006	0.2303	1065.8241	0.150231	-401.945125	-401.937855	-401.93691	-401.976685	28.785	
C	 0.0514986367	 1.5378556078	-0.1094665834	-0.119988
O	 1.4753465958	 1.4890867384	 0.2101369009	-0.257716
C	 1.3868355205	 0.1570839749	 0.5553544183	 0.447783
N	 2.2518466393	-0.4896995659	 1.1810376158	-0.304691
C	 1.9820169656	-1.8500450497	 1.62502775	-0.140755
C	 0.6699702804	-2.5414065693	 1.183693505	-0.272987
C	-0.6084686821	-1.8286510179	 1.5779722653	-0.055401
C	-0.9658671148	-0.658940546	 1.0478114139	-0.082245
C	-0.0501951715	 0.0079334254	 0.0626592161	-0.203573
H	-0.4905840347	 2.1287836965	 0.6352095551	 0.120689
H	-0.1188400247	 1.9375102477	-1.1113308158	 0.118976
H	 2.822082917	-2.4785257851	 1.3032895053	 0.110163
H	 2.0260240713	-1.8362119279	 2.7227368796	 0.113618
H	 0.6929848076	-2.6703987987	 0.0922046556	 0.111164
H	 0.6776643067	-3.5513115247	 1.6065583291	 0.101608
H	-1.2594433098	-2.3150274242	 2.2994458214	 0.096507
H	-1.8996675771	-0.1719631622	 1.3141952818	 0.097519
H	-0.0897712264	-0.4872583091	-0.9160298239	 0.119331
128.9975	182.4965	271.0278	290.0774	320.2235	354.9193	500.1534	530.4979	594.9845	688.3118	697.9603	764.7111	806.7814	851.4613	900.22	952.1548	979.4974	983.2937	1010.5019	1052.1056	1080.4315	1107.6443	1126.7054	1157.1206	1166.0356	1183.4428	1230.001	1245.0342	1282.4816	1305.7646	1352.3871	1364.2857	1377.6546	1413.211	1480.7004	1486.8679	1518.674	1704.5748	1840.0633	3003.9734	3012.8269	3022.7381	3042.9893	3053.9237	3072.3157	3117.1369	3155.5817	3178.6606
C1OC2=NCCC=CC12	C1OC2=NCCC=C[C@@H]12	
InChI=1S/C7H9NO/c1-2-4-8-7-6(3-1)5-9-7/h1,3,6H,2,4-5H2	InChI=1S/C7H9NO/c1-2-4-8-7-6(3-1)5-9-7/h1,3,6H,2,4-5H2/t6-/m0/s1
