22
gdb 108582	2.57296	1.35897	1.20107	0.7889	82.02	-0.2189	0.0832	0.3021	1185.6373	0.194346	-404.327171	-404.317952	-404.317008	-404.360938	34.845	
C	 0.5985225946	 1.470784047	 0.4517838334	-0.383531
C	 0.016429769	 0.1244760818	 0.0006238562	-0.260454
C	 0.6170017475	-0.3715764437	-1.2961470035	 0.311188
C	 0.3065382404	 0.3760063638	-2.5882133767	-0.144955
O	 0.556675949	-0.5230611907	-3.6646126295	-0.256188
C	 0.4739332698	-1.8647347442	-3.1901978348	-0.10725
C	 0.7387015075	-1.8078712568	-1.6995708346	-0.119619
N	 1.8966479542	-1.0713154903	-1.2109609671	-0.130695
C	 3.0391437339	-0.759092038	-2.0647186032	-0.336687
H	 1.6837713461	 1.3979487357	 0.574663064	 0.127707
H	 0.3942830988	 2.2648281194	-0.2746985437	 0.115549
H	 0.1710275064	 1.7825912854	 1.4094369866	 0.113684
H	 0.2023067252	-0.6289432067	 0.7724774531	 0.107475
H	-1.0724746068	 0.2077904279	-0.1129177798	 0.093393
H	-0.746561011	 0.7012301783	-2.5758194831	 0.094618
H	 0.9309116333	 1.2614523068	-2.7540917123	 0.108794
H	-0.5243501325	-2.2960882871	-3.3698863454	 0.096857
H	 1.2041259687	-2.4562720262	-3.7548597617	 0.109758
H	 0.3905391172	-2.6323051552	-1.0813248996	 0.088633
H	 2.7895007906	-0.4798589652	-3.0954902532	 0.132269
H	 3.5993805495	 0.061408979	-1.6050640458	 0.119636
H	 3.6989384686	-1.6325131712	-2.0894567991	 0.119817
71.1391	148.8345	177.6441	212.646	225.339	232.5794	261.9677	311.6459	355.6878	469.0998	509.824	602.4127	715.0819	742.3547	775.5373	806.5142	888.5016	934.452	953.703	991.8878	1003.9247	1021.1064	1052.6362	1100.0328	1113.4936	1130.909	1159.6033	1162.5623	1180.8245	1223.8672	1240.1582	1250.7554	1297.4064	1319.7295	1355.3023	1360.4566	1380.5418	1407.36	1431.1834	1471.6603	1475.4635	1492.6534	1500.9555	1505.6539	1507.4605	1521.3251	1522.1072	2969.7528	2976.7372	3017.8535	3023.8769	3034.6083	3051.0825	3054.4567	3075.1734	3084.0995	3097.0432	3104.3245	3110.5437	3132.6826
CCC12COCC1N2C	CC[C@]12COC[C@H]1N2C	
InChI=1S/C7H13NO/c1-3-7-5-9-4-6(7)8(7)2/h6H,3-5H2,1-2H3	InChI=1S/C7H13NO/c1-3-7-5-9-4-6(7)8(7)2/h6H,3-5H2,1-2H3/t6-,7+,8?/m1/s1
