17
gdb 43195	2.58099	1.73121	1.24337	1.85	73.73	-0.2433	-0.0283	0.215	1020.4067	0.135938	-421.792373	-421.784745	-421.783801	-421.824805	28.9	
O	-0.0019520609	 0.0744114445	-0.5818843119	-0.320113
C	-0.0678538577	 1.21853895	-0.228161566	 0.342262
C	-1.2291510636	 2.1735027195	 0.1151229933	-0.218112
C	-1.4789297598	 2.3224656325	 1.6377959424	-0.087111
O	-0.4625629732	 3.3407323032	 1.7672011579	-0.28224
C	-0.1647298966	 3.2933066806	 0.3570226129	-0.019701
C	 0.9481429768	 2.3062777339	-0.000564051	 0.240344
C	 2.334422601	 2.165629904	 0.5788481264	-0.302538
C	 2.1795637017	 2.5333302445	-0.8592282601	-0.317072
H	-2.0809696314	 2.2275237242	-0.5602725613	 0.104981
H	-2.4706088942	 2.7190522798	 1.8830170411	 0.115071
H	-1.279389254	 1.4404246157	 2.2567637287	 0.11869
H	-0.1621593136	 4.2797724533	-0.1110118694	 0.0856
H	 2.6393030035	 2.9305837919	 1.2845200876	 0.136145
H	 2.6549688696	 1.1582085989	 0.8220391839	 0.137281
H	 2.3827541821	 1.779646246	-1.6126131614	 0.138787
H	 2.3823755403	 3.5554971676	-1.1609239429	 0.127726
76.6828	163.5794	189.0192	212.2616	232.0028	379.4447	485.8312	595.8005	666.7333	732.6019	780.8943	799.3728	840.2847	857.9895	917.8923	921.901	963.6627	981.6805	1001.684	1020.0755	1037.7138	1055.5626	1073.3009	1088.1837	1145.2164	1164.1864	1187.4306	1196.3615	1245.4506	1258.3613	1281.9955	1350.5525	1373.2306	1458.6453	1489.9039	1523.6541	1876.2989	3026.0435	3072.5703	3093.1728	3131.917	3135.9611	3136.3205	3216.8389	3231.6791
O=C1C2COC2C11CC1	O=C1[C@H]2CO[C@H]2C21CC2	
InChI=1S/C7H8O2/c8-5-4-3-9-6(4)7(5)1-2-7/h4,6H,1-3H2	InChI=1S/C7H8O2/c8-5-4-3-9-6(4)7(5)1-2-7/h4,6H,1-3H2/t4-,6-/m1/s1
