19
gdb 89367	2.69836	1.71165	1.36963	1.8958	74.33	-0.2388	0.0048	0.2436	1003.1321	0.160258	-423.029662	-423.022029	-423.021085	-423.061244	31.453	
C	 0.1190600874	 1.4597428538	 0.0959294727	-0.48945
C	 0.0067109586	-0.0416555689	-0.0144952439	 0.360776
C	 0.6616583578	-0.7237742155	-1.262212661	-0.295149
C	 0.981490367	-2.1455944333	-0.7051811474	 0.173388
O	 2.3706038578	-2.3926550914	-0.5957675494	-0.448414
C	 0.3283646119	-2.044793281	 0.7110156732	-0.042009
O	 0.7182572564	-0.7045438874	 1.0568342995	-0.293906
C	-1.1783474126	-1.9175076482	 0.5561546642	-0.088149
C	-1.3821173473	-0.6791071848	 0.1129372389	-0.118251
H	 1.1681694146	 1.7686586009	 0.0705378825	 0.125005
H	-0.4001422398	 1.943502395	-0.737155045	 0.1209
H	-0.3236638967	 1.8127974179	 1.0315861099	 0.130665
H	 0.0057502105	-0.7267131466	-2.1349632214	 0.102292
H	 1.5985067012	-0.2310194416	-1.536193179	 0.102506
H	 0.5745373067	-2.9569463276	-1.3114304363	 0.085189
H	 2.7110127538	-1.7249179772	 0.0129482971	 0.279293
H	 0.7162857106	-2.7651408583	 1.430276257	 0.081805
H	-1.8930941406	-2.7172552964	 0.6935956918	 0.108663
H	-2.3053478675	-0.2119522094	-0.2037101935	 0.104846
127.6738	201.7188	274.4425	295.2753	360.9978	397.9469	406.4832	465.0345	539.4484	619.4731	625.6902	721.5378	738.0366	797.3426	833.0817	860.5928	878.8294	889.5939	926.9928	937.3317	970.3501	989.839	1004.1993	1064.171	1092.1365	1117.5042	1142.5767	1186.8545	1208.3227	1228.1581	1271.7569	1293.6645	1318.2998	1330.7749	1348.6749	1414.3398	1433.7764	1480.6843	1489.8642	1496.0388	1649.4254	3041.785	3064.6428	3098.2057	3114.1161	3117.9072	3119.7006	3131.539	3211.8637	3238.7184	3777.7123
CC12CC(O)C(O1)C=C2	C[C@@]12C[C@@H](O)[C@@H](O1)C=C2	
InChI=1S/C7H10O2/c1-7-3-2-6(9-7)5(8)4-7/h2-3,5-6,8H,4H2,1H3	InChI=1S/C7H10O2/c1-7-3-2-6(9-7)5(8)4-7/h2-3,5-6,8H,4H2,1H3/t5-,6+,7-/m1/s1
