16
gdb 64900	2.06301	1.72189	1.08061	4.0277	76.29	-0.2771	-0.005	0.2722	1125.5832	0.119849	-400.710577	-400.700861	-400.699917	-400.74483	34.998	
C	-0.022423549	 1.5293213796	-0.1118330733	-0.48018
C	-0.0420565881	 0.0234899335	 0.056095475	 0.124845
O	 1.218040453	-0.6554774692	-0.1122736722	-0.286828
C	 0.6512847964	-0.6591240074	 1.1983400552	 0.187696
C	 1.4070987335	 0.0676858209	 2.2912279754	-0.474885
C	 0.1307973791	-1.9512167597	 1.6288416958	 0.272543
N	-0.2618486059	-2.9617667521	 2.0282723133	-0.335867
C	-1.1796885516	-0.6268818858	-0.5524031052	 0.310345
C	-2.1443782898	-1.1236597046	-1.0674118775	-0.404819
H	 0.8778853259	 1.9713146991	 0.3146111514	 0.136354
H	-0.0523934953	 1.7708632283	-1.1779053172	 0.151411
H	-0.9031100058	 1.9735992844	 0.3603514528	 0.144501
H	 1.8032604572	 1.0167040118	 1.93173052	 0.141155
H	 0.7536928878	 0.2505752962	 3.1490320373	 0.148951
H	 2.2449031536	-0.5498161634	 2.6274949164	 0.155587
H	-2.9901433709	-1.5873301717	-1.513236467	 0.209192
110.3451	111.8241	135.1618	154.5953	187.5747	197.0673	291.5497	317.1485	379.8914	414.4915	473.5477	559.7365	593.1558	624.8115	645.3721	654.2832	679.6105	700.8179	861.4972	886.8322	981.2883	1070.1391	1100.1736	1116.1576	1195.2956	1238.6537	1387.2633	1403.6387	1418.402	1470.0094	1480.1723	1486.5503	1505.1187	2243.2313	2359.3368	3054.6171	3057.9123	3122.1381	3123.6185	3151.3456	3164.3399	3499.0833
CC1(OC1(C)C#N)C#C	C[C@]1(O[C@]1(C)C#N)C#C	
InChI=1S/C7H7NO/c1-4-6(2)7(3,5-8)9-6/h1H,2-3H3	InChI=1S/C7H7NO/c1-4-6(2)7(3,5-8)9-6/h1H,2-3H3/t6-,7+/m0/s1
