16
gdb 50716	3.46547	1.20839	0.94919	2.1071	68.02	-0.2589	-0.0421	0.2169	1185.7465	0.123857	-475.020308	-475.012132	-475.011188	-475.054045	29.123	
O	-0.600577235	 0.700736817	 0.7676638781	-0.232482
C	 0.0928116778	 0.9682797692	-0.1735714967	 0.159213
C	 1.373204928	 1.7987472407	-0.0685265321	 0.120398
O	 2.3963942424	 1.0195924779	-0.5804106898	-0.238875
C	 3.6962070184	 1.5042287168	-0.2553887996	-0.102901
C	 4.0981105853	 2.6905320257	-1.1266586112	-0.152678
N	 3.3057306729	 3.9021208472	-1.0453245897	-0.241067
C	 2.0533172501	 3.9578569644	-0.9514489431	 0.122676
O	 1.0996713309	 2.9808543466	-0.8133289413	-0.246497
H	-0.1273467367	 0.6302108158	-1.2074677737	 0.104191
H	 1.564594655	 2.0763476567	 0.9787192334	 0.09633
H	 3.7336992052	 1.775641647	 0.8098798933	 0.109222
H	 4.3860067622	 0.6725969515	-0.425104297	 0.122017
H	 5.1359895723	 2.9488445424	-0.8840905899	 0.117664
H	 4.0953999905	 2.3644739012	-2.1760978514	 0.132129
H	 1.5516067208	 4.9218605998	-1.0288254993	 0.130659
59.1003	83.3554	117.3928	239.0271	285.4247	334.5911	371.8583	458.4396	490.538	556.3911	608.8936	781.6873	839.5483	871.2623	944.7514	962.814	1004.059	1038.8208	1055.059	1080.1691	1098.8906	1136.2721	1184.3507	1270.6852	1303.9852	1332.0941	1379.1296	1382.414	1407.5533	1419.4355	1425.4676	1470.9784	1493.5854	1764.6982	1857.248	2927.014	3000.7437	3008.6755	3018.4083	3059.3746	3095.4509	3147.2893
O=CC1OCCN=CO1	O=C[C@H]1OCCN=CO1	
InChI=1S/C5H7NO3/c7-3-5-8-2-1-6-4-9-5/h3-5H,1-2H2	InChI=1S/C5H7NO3/c7-3-5-8-2-1-6-4-9-5/h3-5H,1-2H2/t5-/m0/s1
