21
gdb 69995	2.88518	1.67445	1.58782	1.7054	80.07	-0.2509	0.0903	0.3412	982.6369	0.185265	-387.093132	-387.085869	-387.084924	-387.124211	30.727	
C	-0.0475946846	 1.5181122703	 0.0250338916	-0.49724
C	 0.0813224552	 0.0221348763	 0.0031933386	 0.4299
O	-0.4991297884	-0.6880992428	 1.1149964605	-0.292536
C	 0.9170838209	-0.8047027086	 0.8882871599	-0.03019
C	 1.3593016052	-2.0127913703	 0.0350141719	-0.054268
C	 0.1370204797	-2.9284776367	-0.2198540457	-0.1977
C	-0.7583653253	-2.0646068371	-1.1670654585	-0.198615
C	 0.061525344	-0.7627880139	-1.3360668831	-0.092307
C	 1.511275328	-1.316148942	-1.3438169763	-0.215959
H	 0.6700737539	 1.9796618563	-0.6619608406	 0.121584
H	-1.0519768674	 1.8276155973	-0.2856909108	 0.126533
H	 0.1318571649	 1.9054788603	 1.03143835	 0.127623
H	 1.5456291281	-0.4105394699	 1.6830132499	 0.087218
H	 2.2400263433	-2.5267753609	 0.4230820446	 0.057582
H	 0.4600466666	-3.8542750073	-0.7049077413	 0.087279
H	-0.3784696826	-3.1897440491	 0.7052060665	 0.11046
H	-0.8947251119	-2.546374444	-2.1399773268	 0.086447
H	-1.7439870975	-1.8767912821	-0.7390161176	 0.109106
H	-0.2303561797	-0.1518993972	-2.1922513677	 0.054985
H	 2.2703889065	-0.527182763	-1.3417022112	 0.091048
H	 1.7179189913	-2.0060308054	-2.1695016441	 0.089051
185.3183	207.3259	267.5091	283.2193	364.5014	433.2309	460.0984	544.2572	583.3395	679.8566	747.1723	798.6129	806.8576	844.9074	855.3167	882.875	903.5837	919.1622	940.334	954.989	975.252	1001.7308	1030.3298	1060.7088	1074.7869	1107.0385	1141.2916	1147.1342	1178.1521	1214.1725	1223.3003	1253.2765	1274.0526	1290.1146	1301.4258	1323.6688	1337.794	1343.3018	1409.0521	1448.2693	1476.6664	1484.7963	1488.5951	1495.5177	1511.1547	3030.7469	3039.6437	3051.2339	3063.302	3089.9223	3092.0642	3096.6255	3102.37	3112.0694	3118.2364	3128.7711	3142.944
CC12OC1C1CCC2C1	C[C@]12O[C@H]1[C@H]1CC[C@@H]2C1	
InChI=1S/C8H12O/c1-8-6-3-2-5(4-6)7(8)9-8/h5-7H,2-4H2,1H3	InChI=1S/C8H12O/c1-8-6-3-2-5(4-6)7(8)9-8/h5-7H,2-4H2,1H3/t5-,6+,7-,8+/m0/s1
