14
gdb 132625	3.20913	1.41937	0.98578	1.2091	70.08	-0.1992	-0.0235	0.1757	1100.978	0.102746	-474.219879	-474.21219	-474.211246	-474.25179	29.573	
N	 0.0066730333	 1.3516916615	-0.1515941733	-0.559596
C	-0.0008177561	-0.0178573163	-0.0581212474	 0.41916
N	-1.1866424843	-0.631655268	-0.0256333751	-0.312568
C	-1.1617853175	-1.9654043592	 0.0129277305	-0.045187
C	 0.0089154554	-2.7202241674	 0.0211594685	 0.107029
N	 0.0583900796	-4.11618776	 0.1307691451	-0.604103
C	 1.1662702928	-1.9354982804	-0.0121760438	 0.298045
F	 2.3413952741	-2.5702688375	-0.0091767173	-0.077785
N	 1.197104295	-0.632172049	-0.0486641314	-0.359103
H	 0.8629601877	 1.8059470516	 0.1208259743	 0.261178
H	-0.849809261	 1.8069883746	 0.1189340902	 0.26039
H	-2.127421596	-2.4678872512	 0.0414210434	 0.107942
H	-0.7239828414	-4.5842285665	-0.306619046	 0.249595
H	 0.9325879682	-4.5019743123	-0.1991138977	 0.255003
127.0423	218.2171	238.877	284.6186	336.609	374.7892	444.7177	452.9845	482.2666	502.8308	563.693	582.1481	688.4885	720.4945	778.6158	808.8723	823.213	956.4506	997.1272	1086.1644	1135.3557	1249.9965	1299.011	1334.0636	1404.6022	1485.8856	1510.29	1599.4953	1628.0563	1644.5824	1684.1446	3141.1513	3548.1588	3599.7002	3644.7884	3722.9956
NC1=NC=C(N)C(F)=N1	Nc1ncc(N)c(F)n1	
InChI=1S/C4H5FN4/c5-3-2(6)1-8-4(7)9-3/h1H,6H2,(H2,7,8,9)	InChI=1S/C4H5FN4/c5-3-2(6)1-8-4(7)9-3/h1H,6H2,(H2,7,8,9)
