15
gdb 28945	2.91471	1.2887	1.01984	3.6654	71.8	-0.1979	0.0154	0.2133	1144.2069	0.11311	-416.842012	-416.833612	-416.832668	-416.876267	30.255	
O	 0.2410034847	 1.3471710255	 0.1695150182	-0.441554
C	 0.1284578351	 0.00816182	-0.0229003382	 0.379498
C	 0.089788265	-0.7899131266	-1.1373539066	-0.304914
C	-0.0398558989	-2.1345764441	-0.6649336139	-0.139845
C	-0.0726646541	-2.104875711	 0.7011115981	-0.113115
N	 0.0413843403	-0.7775257588	 1.098877655	-0.036643
C	-0.0101925123	-0.2815738968	 2.453752936	-0.309017
C	-1.3809861144	-0.1403866598	 2.9757269705	 0.274276
N	-2.4513040239	-0.0339448731	 3.3958920368	-0.297505
H	 0.2823750866	 1.7779899406	-0.6892362195	 0.31397
H	 0.1544686123	-0.4584598823	-2.1618996845	 0.095097
H	-0.0945607177	-3.0213918785	-1.2769621832	 0.103072
H	-0.1667263015	-2.8866219411	 1.4365748343	 0.124344
H	 0.5459087577	-0.9570963954	 3.1115899398	 0.167022
H	 0.4796300311	 0.6947042113	 2.4903301673	 0.185315
27.4915	75.419	182.8395	229.2887	276.505	304.1681	367.5563	435.4154	521.0608	611.5463	626.4926	677.809	689.4706	726.954	781.8998	824.2251	900.4771	921.3368	962.9606	1043.9085	1086.7119	1141.389	1208.5699	1256.2984	1315.6031	1327.966	1380.6908	1412.1871	1455.313	1534.2538	1549.2609	1617.0873	2365.6594	3062.1695	3115.8562	3245.287	3257.1213	3277.3442	3853.7938
OC1=CC=CN1CC#N	Oc1cccn1CC#N	
InChI=1S/C6H6N2O/c7-3-5-8-4-1-2-6(8)9/h1-2,4,9H,5H2	InChI=1S/C6H6N2O/c7-3-5-8-4-1-2-6(8)9/h1-2,4,9H,5H2
