19
gdb 39931	2.87757	1.57338	1.24123	0.1157	90.66	-0.2065	-0.033	0.1736	1067.7451	0.161139	-348.759604	-348.75208	-348.751136	-348.791358	30.696	
C	 0.1267385802	 1.5681894613	 0.0091353504	-0.277324
C	 1.383489982	 0.7385072692	-0.0070432479	-0.327693
C	 0.0460027659	 0.0468645957	 0.0019054301	 0.29035
C	-0.3995347455	-0.6559297495	 1.2402659876	-0.176766
C	-1.6932110975	-0.8678640422	 1.5495222815	-0.052499
C	-2.8312619115	-0.5918363634	 0.7047463173	-0.106874
C	-2.8440368339	-0.5847031116	-0.6533572494	-0.106873
C	-1.722105617	-0.8517301958	-1.5222440153	-0.052499
C	-0.4228198189	-0.642928213	-1.2351685519	-0.176766
H	-0.1417155041	 2.0763374697	 0.928907054	 0.113188
H	-0.1589192471	 2.0859420855	-0.9000366954	 0.113188
H	 1.9630823809	 0.706089783	-0.9243005928	 0.108672
H	 1.980229978	 0.6965165262	 0.898758868	 0.108672
H	 0.3709548866	-1.003745809	 1.9257184863	 0.092289
H	-1.918460854	-1.3080505839	 2.5191751804	 0.090349
H	-3.7886283966	-0.4921047451	 1.2114326156	 0.088973
H	-3.8107552094	-0.4797494982	-1.1408696564	 0.088973
H	-1.9655990777	-1.2817301024	-2.4920581401	 0.090349
H	 0.3346051495	-0.9834496664	-1.938608652	 0.092289
80.9512	222.2368	270.3629	292.0799	361.9305	382.415	441.2585	483.7083	621.4305	632.6316	718.6172	768.1219	786.8939	789.7005	843.7653	874.5343	922.5294	926.2251	961.3886	967.2229	973.7194	984.6526	997.3523	1002.7369	1040.0985	1053.8515	1084.9158	1191.1707	1218.5361	1227.8492	1249.2627	1292.9261	1308.9631	1398.0432	1436.6096	1462.8136	1477.0479	1495.3566	1592.0079	1663.8817	1678.4735	3120.9156	3129.0601	3131.3826	3132.6247	3140.3418	3151.4026	3155.5478	3165.5124	3202.3587	3224.5366
C1CC11C=CC=CC=C1	C1CC21C=CC=CC=C2	
InChI=1S/C9H10/c1-2-4-6-9(5-3-1)7-8-9/h1-6H,7-8H2	InChI=1S/C9H10/c1-2-4-6-9(5-3-1)7-8-9/h1-6H,7-8H2
