20
gdb 110523	2.74466	1.40933	1.1852	3.0346	78.7	-0.2416	0.0887	0.3303	1129.8506	0.171655	-403.084794	-403.076574	-403.07563	-403.11741	32.212	
C	-0.1644375122	 1.5092307881	-0.1119675478	-0.534814
C	 0.0079105489	 0.0365022308	 0.037702071	 0.357815
C	 0.522471615	-1.0298658929	-0.8563376566	-0.086967
C	 1.3533634477	-1.6594771182	 0.2596210556	-0.25273
C	 0.3793469793	-0.9413426942	 1.2329605793	-0.146923
C	-0.9552272685	-1.6371397844	 0.9156380769	 0.052315
C	-2.1959012112	-1.1436897497	 1.6416518373	-0.077335
O	-3.3657983381	-1.5174169675	 0.941048859	-0.424913
N	-0.9341807141	-1.013576515	-0.4544930124	-0.206102
H	 0.7840167452	 2.0352729452	 0.0437842315	 0.125626
H	-0.521637819	 1.7404563491	-1.1204598024	 0.136648
H	-0.8917412257	 1.9073991145	 0.6038088865	 0.130203
H	 0.7210211496	-0.9968258841	-1.9199926189	 0.098528
H	 1.4239401766	-2.750388539	 0.3277547027	 0.098117
H	 2.354757845	-1.2216090706	 0.2828759743	 0.106543
H	 0.683423636	-0.6784404087	 2.2451439952	 0.074762
H	-0.950193865	-2.7343923657	 0.8942122429	 0.072966
H	-2.2575389494	-1.5961408459	 2.6375383066	 0.103519
H	-2.1386797297	-0.0505249067	 1.7787100629	 0.080344
H	-3.1995499804	-1.2826123952	 0.0185978566	 0.292398
96.488	165.5284	196.3626	204.2895	269.0251	321.9999	395.6976	474.6973	483.4398	543.8505	616.5132	729.458	747.7462	819.1119	860.9779	883.3592	927.3734	936.052	972.2881	992.6174	1020.3693	1056.659	1066.14	1086.9929	1095.7925	1110.2939	1138.916	1161.2259	1170.196	1217.2265	1230.04	1257.3661	1269.9172	1297.1038	1343.8307	1394.0435	1403.0706	1445.6272	1447.0442	1479.2295	1491.4518	1501.2135	1507.188	2962.2446	3026.8077	3028.3405	3043.4853	3067.0881	3090.8295	3103.4079	3106.4788	3126.6921	3199.7939	3764.9165
CC12C3CC1C(CO)N23	C[C@@]12[C@H]3C[C@@H]1[C@@H](CO)N23	
InChI=1S/C7H11NO/c1-7-4-2-6(7)8(7)5(4)3-9/h4-6,9H,2-3H2,1H3	InChI=1S/C7H11NO/c1-7-4-2-6(7)8(7)5(4)3-9/h4-6,9H,2-3H2,1H3/t4-,5-,6-,7+,8?/m1/s1
