16
gdb 127563	3.20011	1.40866	0.9855	6.8361	77.79	-0.2136	-0.0275	0.1861	1142.5338	0.125886	-434.093629	-434.08551	-434.084566	-434.126118	30.733	
C	 0.0549816062	 1.4473519425	-0.0384778467	-0.341249
N	 0.0229298381	-0.0063669503	 0.017478444	-0.051683
N	-0.0603963151	-0.6240762783	-1.1847844526	-0.207486
C	-0.0548605857	-1.9168859927	-1.2077585319	-0.087067
C	 0.0294328626	-2.8094680768	-0.0336179488	 0.353071
O	 0.0299318067	-4.0319432711	-0.1458945951	-0.406268
C	 0.0887084159	-2.0690247607	 1.2006415747	-0.348017
C	 0.0877986678	-0.699932874	 1.1993188479	 0.460068
N	 0.221385126	 0.0664409637	 2.3506857001	-0.585241
H	 0.9097991581	 1.8355449747	 0.5223761847	 0.153377
H	 0.1464557442	 1.7195199942	-1.0880690894	 0.170032
H	-0.8673031719	 1.8900835871	 0.3592087755	 0.133193
H	-0.1180760716	-2.3735964701	-2.1913132788	 0.133724
H	 0.1282054919	-2.608339878	 2.1399930888	 0.099473
H	 0.132375078	-0.480009504	 3.1956338959	 0.265275
H	-0.3426773813	 0.9037767539	 2.3935844918	 0.258799
106.353	162.2614	195.7851	234.5489	312.7247	352.1802	361.101	453.5685	481.4952	504.3569	583.6379	616.4955	712.3836	728.1466	739.7565	787.4225	853.4301	942.7354	958.6896	1021.1959	1117.8926	1147.591	1231.1456	1251.7537	1283.0749	1296.2547	1356.8194	1435.9028	1489.9451	1498.269	1517.2162	1592.2505	1638.5361	1670.8685	1736.2137	3019.2707	3094.4445	3176.1836	3180.7389	3196.6342	3560.5094	3657.9013
CN1N=CC(=O)C=C1N	Cn1ncc(=O)cc1N	
InChI=1S/C5H7N3O/c1-8-5(6)2-4(9)3-7-8/h2-3H,6H2,1H3	InChI=1S/C5H7N3O/c1-8-5(6)2-4(9)3-7-8/h2-3H,6H2,1H3
