15
gdb 28363	3.23363	1.39899	0.98239	2.7146	71.71	-0.2285	-0.0294	0.1991	1132.6715	0.114472	-454.040519	-454.032751	-454.031807	-454.072816	29.189	
C	-0.0257099876	 1.5156600328	 0.0059100992	-0.477066
C	-0.0048819674	 0.0166110814	-0.0263257762	 0.118817
C	-0.0510790753	-0.7244105562	-1.168077808	-0.07272
N	-0.0339857271	-2.0966432396	-1.2365696327	-0.394858
C	 0.0324683225	-2.7078614644	-0.0974893303	 0.51946
O	 0.0557029714	-4.044721958	-0.024167184	-0.401047
N	 0.0832350643	-2.0870559062	 1.101937641	-0.395756
C	 0.0694561068	-0.67896589	 1.248797291	 0.37429
O	 0.1177276703	-0.1829073589	 2.3583614551	-0.377898
H	 0.8698954273	 1.9093367067	 0.4985023167	 0.141499
H	-0.0811273206	 1.9310526785	-1.0036033681	 0.117076
H	-0.880557064	 1.8832995943	 0.5837158627	 0.141453
H	-0.1069222935	-0.2268383903	-2.1330063966	 0.114656
H	 0.0143987291	-4.3625614028	-0.9373322383	 0.317539
H	 0.133957034	-2.6315664772	 1.9530794885	 0.274555
124.0501	139.6944	173.777	270.0466	336.4905	360.3903	432.3521	466.7375	532.3971	554.9609	593.0991	684.5233	750.7139	751.3915	787.8635	798.1116	966.8914	991.8573	1045.4828	1072.1417	1136.2532	1187.5018	1240.4838	1304.7489	1347.5899	1404.1572	1416.5212	1469.5555	1490.1119	1554.0262	1619.9886	1674.4973	1790.335	3035.3144	3088.8192	3119.4811	3161.7537	3598.9945	3774.3969
CC1=CN=C(O)NC1=O	Cc1cnc(O)[nH]c1=O	
InChI=1S/C5H6N2O2/c1-3-2-6-5(9)7-4(3)8/h2H,1H3,(H2,6,7,8,9)	InChI=1S/C5H6N2O2/c1-3-2-6-5(9)7-4(3)8/h2H,1H3,(H2,6,7,8,9)
