17
gdb 69861	2.7137	1.65513	1.1945	3.4019	77.96	-0.2297	0.0055	0.2352	1040.4914	0.135891	-380.804541	-380.796629	-380.795685	-380.836692	30.862	
C	-0.0355252518	 1.54657038	 0.0868934499	-0.5025
C	 0.0089886103	 0.0489724775	 0.0329521143	 0.301609
C	-0.8896643277	-0.8846863434	 0.7927397518	-0.340892
C	 0.6034600122	-0.9601614215	 1.0100732957	-0.1108
C	 1.3243388834	-1.6707060948	-0.1637505421	-0.107619
N	 0.3351954241	-2.1457086577	-1.1414122506	-0.366925
C	 0.7358464226	-0.7064583656	-1.139359062	 0.175619
C	 1.3367726358	-0.0944364977	-2.271001667	 0.175959
N	 1.8228150688	 0.4201347182	-3.188603323	-0.354031
H	 0.9423050886	 1.9869390431	-0.137006118	 0.133376
H	-0.7538695571	 1.9486921601	-0.6369567336	 0.134631
H	-0.3379233843	 1.8845908496	 1.0825915165	 0.124381
H	-1.4281041017	-0.4057136155	 1.6050456755	 0.115671
H	-1.4185830744	-1.690729165	 0.3011302285	 0.148108
H	 1.0781243566	-0.7734190881	 1.9640041201	 0.100661
H	 2.3325016886	-2.0626798194	-0.1410836598	 0.12258
H	 0.837545996	-2.5987709997	-1.9050600563	 0.250173
126.1319	132.2871	203.7737	245.53	299.4552	395.6119	431.3284	486.7699	528.1394	567.696	591.9821	639.4902	768.9392	828.3983	850.0819	865.8527	882.431	919.5762	963.8897	981.9101	994.3436	1039.4816	1050.7634	1097.7654	1115.4322	1151.8217	1202.4355	1241.5001	1268.5362	1325.7372	1358.6634	1395.9527	1423.6348	1473.1115	1482.7308	1498.4204	2334.6191	3027.3719	3087.3856	3107.2472	3138.3704	3201.7068	3212.0113	3232.9077	3478.1325
CC12CC1C1NC21C#N	C[C@]12C[C@H]1[C@H]1N[C@@]21C#N	
InChI=1S/C7H8N2/c1-6-2-4(6)5-7(6,3-8)9-5/h4-5,9H,2H2,1H3	InChI=1S/C7H8N2/c1-6-2-4(6)5-7(6,3-8)9-5/h4-5,9H,2H2,1H3/t4-,5+,6-,7+/m0/s1
