18
gdb 41645	3.14195	2.04816	1.6766	0.9818	72.75	-0.2338	0.0901	0.3239	853.0218	0.151655	-401.890108	-401.88409	-401.883146	-401.920125	25.892	
C	-0.035889751	 1.4231310834	-0.1473804173	-0.076978
C	 1.3747127348	 2.0076879264	-0.0124554949	-0.242372
C	 2.0950338849	 1.4210786847	 1.1943533562	 0.048066
C	 2.1210854466	-0.113469757	 1.3073854016	-0.139213
C	 1.85354908	 0.107470388	 2.8347079161	-0.056107
C	 0.4248594763	 0.3119797996	 2.4893117278	-0.116619
C	 0.6039086917	-0.428211584	 1.160285221	 0.152081
O	-0.0524446757	 0.006844053	-0.0013722094	-0.276301
N	 1.3737451158	 1.4820139519	 2.5262466134	-0.161083
H	-0.6962198869	 1.8817690036	 0.6028335704	 0.10743
H	-0.4564315106	 1.6291657793	-1.1351554951	 0.106987
H	 1.9650636958	 1.7788262561	-0.9085309643	 0.106145
H	 1.30919364	 3.098678354	 0.0690548344	 0.108173
H	 3.0786417457	 1.8734353039	 1.3460368133	 0.078672
H	 2.8715183905	-0.7372995399	 0.826709789	 0.071096
H	 2.3476211932	-0.1832728563	 3.7508042619	 0.10174
H	-0.441151333	 0.3751900577	 3.1346778271	 0.097751
H	 0.392707252	-1.4942522044	 1.2694279988	 0.090533
231.3255	253.7761	372.9411	423.5868	491.1945	591.1943	659.2151	740.6759	772.8504	800.3657	812.7024	843.4287	878.8079	896.5485	929.4447	951.6861	965.752	978.5614	1004.4706	1028.2294	1047.9652	1085.0571	1105.0931	1122.9168	1140.3149	1161.4681	1201.5412	1216.1851	1233.1354	1277.4412	1281.3682	1288.758	1333.7181	1354.5545	1368.6796	1395.2644	1422.17	1465.5096	1507.017	3002.9525	3029.3877	3071.9674	3076.5778	3092.8804	3095.7054	3140.0339	3203.0392	3221.4762
C1CC2C3C4C(C3O1)N24	C1C[C@@H]2[C@H]3[C@@H]4[C@H]([C@H]3O1)N24	
InChI=1S/C7H9NO/c1-2-9-7-4-3(1)8-5(4)6(7)8/h3-7H,1-2H2	InChI=1S/C7H9NO/c1-2-9-7-4-3(1)8-5(4)6(7)8/h3-7H,1-2H2/t3-,4+,5-,6-,7+,8?/m1/s1
