18
gdb 109451	2.31668	1.46281	0.99814	3.2008	73.1	-0.23	0.0042	0.2342	1211.2004	0.147069	-439.078962	-439.070191	-439.069247	-439.112749	32.258	
C	-0.1850479146	 1.4827031677	 0.1637032554	-0.325209
N	 0.3998419529	 0.1547028955	-0.0317263573	-0.288932
C	 0.822269806	-0.4865870779	 1.1848217923	-0.250025
C	-0.2059420846	-1.185699223	 2.1147383701	 0.426041
O	-1.2036687986	-0.9219178473	 2.7057046305	-0.327695
O	 0.4179305381	-2.4125411181	 2.02394896	-0.269119
C	 1.3907868118	-1.8987491535	 1.0792778575	 0.442761
C	 1.7926866012	-2.6697408056	-0.1264364856	-0.333166
C	 2.7774425631	-2.4204416193	 1.0134856969	-0.338353
H	 0.5759466176	 2.1513156411	 0.5811157079	 0.127061
H	-0.4865035891	 1.8848208934	-0.8072515169	 0.124721
H	-1.0553368317	 1.495182112	 0.8356966809	 0.132427
H	-0.2529230109	-0.4431319376	-0.528226142	 0.229438
H	 1.4606377116	 0.2002858988	 1.7513734956	 0.117844
H	 1.4004441311	-3.6749085685	-0.2337326021	 0.134395
H	 1.9215914486	-2.117616297	-1.0515233908	 0.133832
H	 3.5867251258	-1.7145374469	 0.8589363167	 0.128153
H	 3.0215321716	-3.2637111439	 1.6500806909	 0.135825
79.3018	111.0584	141.8269	183.6035	231.7019	254.617	322.6709	388.5009	471.1818	524.2782	556.6999	710.8797	767.9171	773.0868	821.0115	875.2457	894.6692	933.2805	970.7335	1021.2465	1031.1226	1052.7859	1077.1976	1080.4009	1151.3937	1159.3584	1187.7486	1208.2238	1232.535	1269.6686	1340.5203	1396.9933	1448.7928	1458.6364	1488.0483	1499.2188	1505.4609	1523.0875	1929.9698	2999.5835	3057.5054	3070.3628	3111.7757	3134.0043	3135.2626	3218.764	3231.8116	3522.0582
CNC1C(=O)OC11CC1	CN[C@H]1C(=O)OC21CC2	
InChI=1S/C6H9NO2/c1-7-4-5(8)9-6(4)2-3-6/h4,7H,2-3H2,1H3	InChI=1S/C6H9NO2/c1-7-4-5(8)9-6(4)2-3-6/h4,7H,2-3H2,1H3/t4-/m0/s1
