12
gdb 5363	5.60997	1.65911	1.28043	4.6347	63.96	-0.26	-0.0828	0.1772	865.363	0.085784	-377.577014	-377.570853	-377.569909	-377.607664	22.088	
O	-0.0900507208	-0.007701246	-0.0024524579	-0.23322
C	 0.0065056461	 1.19010217	 0.0061217672	 0.11907
C	 1.3108820607	 1.9430124821	-0.0020293553	 0.247607
N	 2.4500062236	 1.2456930974	-0.020061277	-0.250847
C	 3.5713419131	 1.9639495816	-0.0262473745	 0.011928
C	 3.5642867921	 3.356966291	-0.0146088196	-0.120644
C	 2.3188663011	 3.9742791978	 0.0039967028	 0.009979
N	 1.183369574	 3.2745291289	 0.0104610755	-0.264445
H	-0.8706989154	 1.8694383246	 0.0213110615	 0.097284
H	 4.5057637184	 1.4073020465	-0.0411171055	 0.130493
H	 4.4832639767	 3.9306253011	-0.01976105	 0.123633
H	 2.2259301303	 5.0577975149	 0.0139570928	 0.129162
96.0954	206.736	223.0522	413.0981	464.4949	467.0197	636.6999	701.8837	795.8817	834.0845	859.6651	1008.3964	1011.0041	1013.2471	1050.3984	1090.2922	1122.1573	1254.387	1272.4979	1313.2326	1400.8401	1447.5786	1471.1266	1600.3226	1607.4065	1831.8019	2930.4853	3158.2524	3160.7834	3211.7726
O=CC1=NC=CC=N1	O=Cc1ncccn1	
InChI=1S/C5H4N2O/c8-4-5-6-2-1-3-7-5/h1-4H	InChI=1S/C5H4N2O/c8-4-5-6-2-1-3-7-5/h1-4H
