21
gdb 94557	2.46246	1.45633	1.16697	1.1865	77.74	-0.2416	0.0663	0.3078	1154.0707	0.181183	-424.190958	-424.181581	-424.180636	-424.225224	35.395	
C	 0.1237845311	 1.6824966472	-0.1577914181	-0.409746
C	-0.0593103653	 0.1783868544	-0.0098651672	-0.038043
C	 1.048075488	-0.7408930024	-0.5722290974	-0.078322
O	 1.3124085222	-1.309761832	 0.7304021752	-0.293472
C	 0.2850408198	-0.5042601339	 1.3470191581	 0.058485
C	 0.8004087002	 0.3289740876	 2.4993334928	 0.394811
O	-0.1883105973	 1.1726629384	 3.0376052949	-0.468506
C	 1.8267248796	-0.2574625953	 3.4339453354	-0.340181
C	 2.1888238985	 0.8847045302	 2.5039726721	-0.291472
H	 1.1381942551	 1.9938910855	 0.1060662113	 0.125381
H	-0.0637344084	 1.9897697814	-1.1924180138	 0.107427
H	-0.567681385	 2.2243657113	 0.4928746926	 0.134956
H	-1.0548906893	-0.1075925539	-0.3593767922	 0.077099
H	 0.7249716168	-1.5054374818	-1.2889281365	 0.099954
H	 1.9286157786	-0.2241086123	-0.9755088993	 0.09894
H	-0.5329588432	-1.1409193136	 1.7227750503	 0.059351
H	-0.8132630928	 0.6218878407	 3.523071102	 0.28201
H	 1.7146710173	-0.0290702187	 4.4881193988	 0.109555
H	 2.2235579039	-1.2392561062	 3.2023463965	 0.130257
H	 2.8316487541	 0.6549212732	 1.6626532784	 0.122592
H	 2.3132417563	 1.8697822701	 2.9380948062	 0.118927
56.4587	92.4956	151.5024	221.0651	222.1852	272.2475	307.6797	345.3323	359.9958	427.7414	475.345	530.0954	721.2378	757.6602	778.0233	857.1478	893.1799	912.3661	926.8601	933.6413	967.299	1002.1316	1008.7939	1046.3903	1053.7094	1083.3918	1099.1324	1129.954	1158.2156	1190.4819	1195.7582	1254.9275	1270.8682	1276.9932	1284.1766	1346.3082	1374.6318	1384.8641	1400.5069	1415.69	1437.8331	1490.3765	1495.114	1502.3668	1526.2953	2957.2953	3010.1193	3039.1208	3050.2535	3070.0569	3106.9077	3124.156	3135.7951	3143.707	3226.201	3240.6705	3787.4133
CC1COC1C1(O)CC1	C[C@H]1CO[C@H]1C1(O)CC1	
InChI=1S/C7H12O2/c1-5-4-9-6(5)7(8)2-3-7/h5-6,8H,2-4H2,1H3	InChI=1S/C7H12O2/c1-5-4-9-6(5)7(8)2-3-7/h5-6,8H,2-4H2,1H3/t5-,6+/m0/s1
