18
gdb 71266	2.53454	2.0164	1.42754	2.3234	74.37	-0.2335	-0.0162	0.2173	947.2736	0.148423	-401.934721	-401.927309	-401.926365	-401.966273	29.593	
C	 0.046103481	 1.5408455708	 0.0038407785	-0.493467
C	 0.060664456	 0.0317006455	 0.0425678609	 0.182207
C	-1.2901300016	-0.7426134317	 0.318679953	-0.293034
C	-0.5232642659	-1.6649618981	 1.2706701621	-0.03678
C	 0.6739877208	-0.7729659587	 1.229529627	-0.109021
N	 0.7531032992	-2.1398269431	 0.7129198455	-0.101456
C	 0.9100534476	-2.1115206718	-0.7441195918	-0.282462
C	 0.6466302562	-0.6602890198	-1.1835245357	 0.381687
O	 0.8425326812	-0.1818510578	-2.2695201432	-0.327567
H	 1.0654930293	 1.9405570642	 0.0004106948	 0.127746
H	-0.4437311304	 1.891024193	-0.9098361109	 0.139074
H	-0.4814054917	 1.9601184412	 0.8660271232	 0.115103
H	-1.9811759649	-0.0966423434	 0.8659575595	 0.118923
H	-1.8167053915	-1.1860209458	-0.5335076479	 0.107812
H	-0.9427631343	-2.2369817537	 2.0903044206	 0.099265
H	 1.3556393652	-0.4228993033	 1.9959352922	 0.097433
H	 1.9334401755	-2.4009819359	-1.0038451229	 0.139288
H	 0.2317644683	-2.8063249417	-1.2498368752	 0.135251
119.8366	177.5655	236.1707	297.7508	318.2996	394.0739	485.4374	527.3984	621.6731	630.4653	716.3426	741.8383	773.8636	848.5854	854.87	859.5744	949.6355	963.8261	980.0509	1021.6555	1038.0219	1058.86	1081.0083	1114.4074	1148.6775	1176.0915	1202.8945	1218.966	1246.7006	1265.5594	1291.0387	1320.8379	1365.2024	1414.499	1461.1763	1485.8883	1490.1002	1495.8189	1848.6665	3036.4315	3041.3552	3053.6299	3095.05	3102.8346	3105.7649	3112.188	3173.2882	3186.1583
CC12CC3C1N3CC2=O	C[C@]12C[C@@H]3[C@H]1N3CC2=O	
InChI=1S/C7H9NO/c1-7-2-4-6(7)8(4)3-5(7)9/h4,6H,2-3H2,1H3	InChI=1S/C7H9NO/c1-7-2-4-6(7)8(4)3-5(7)9/h4,6H,2-3H2,1H3/t4-,6-,7-,8?/m1/s1
