16
gdb 48858	3.96582	1.4214	1.22443	2.6544	77.28	-0.2235	-0.0581	0.1654	1002.5434	0.123846	-400.630439	-400.62333	-400.622386	-400.661897	27.809	
O	-0.6941419468	 0.9309732259	 0.6699033318	-0.262912
C	 0.1601184501	 1.0118492281	-0.1796294027	 0.094798
C	 1.3994061534	 1.7995817411	-0.0081817056	 0.201333
C	 1.6975211623	 2.6963872084	 1.2656650764	-0.317325
C	 2.7069533553	 3.3588995454	 0.3135601342	 0.017634
C	 3.9295866145	 2.7918036292	 0.3025630952	-0.106267
C	 3.9212255497	 1.6956962225	-0.7548678103	-0.185003
N	 2.473680581	 1.5478845818	-1.0959778522	-0.155168
C	 1.9265524234	 2.8607757328	-0.9240916771	-0.11435
H	 0.0747248696	 0.5043771321	-1.1623491414	 0.093277
H	 0.7805689765	 3.2455717987	 1.4982026466	 0.134349
H	 2.100508924	 2.2290709683	 2.1658660085	 0.11931
H	 4.5324147263	 2.6811854026	 1.198848834	 0.112082
H	 4.4462558068	 1.8774009108	-1.7014144997	 0.128718
H	 4.3295438749	 0.777615519	-0.3184318725	 0.130203
H	 1.4172417988	 3.4169588532	-1.7028867653	 0.109321
106.7639	190.2773	235.1909	281.9855	383.5518	420.3147	479.6408	571.8702	665.3582	699.9531	769.6929	780.5308	848.0385	876.3369	902.4501	920.197	986.1201	994.3406	997.8147	1030.1928	1045.8099	1062.206	1090.1734	1169.7354	1188.5965	1211.2375	1213.173	1281.0703	1302.7175	1327.7009	1406.8509	1470.3114	1502.1742	1580.6815	1800.4662	2925.8838	3025.171	3058.4761	3077.371	3126.2838	3174.3433	3181.045
O=CC12CC3=CCN1C23	O=C[C@@]12C[C]3[CH]CN1[C@@H]23	
InChI=1S/C7H7NO/c9-4-7-3-5-1-2-8(7)6(5)7/h1,4,6H,2-3H2	InChI=1S/C7H7NO/c9-4-7-3-5-1-2-8(7)6(5)7/h1,4,6H,2-3H2/t6-,7-,8?/m1/s1
