16
gdb 127574	3.3309	1.29527	0.94366	5.3649	79.33	-0.2517	-0.0139	0.2378	1190.8781	0.125262	-396.981744	-396.972967	-396.972023	-397.015878	30.609	
C	 0.0101905504	 1.4149939204	-0.0232980006	-0.332292
N	 0.0061808211	-0.0336039867	 0.0309622049	-0.014174
N	-0.0274585231	-0.7436246117	-1.1255747697	-0.257084
C	-0.0209522813	-2.0104417103	-0.7492103006	-0.083363
C	 0.0165820808	-2.1290289002	 0.6629087624	 0.007198
C	 0.0339848912	-3.3020605802	 1.4507031896	 0.197788
N	 0.048635055	-4.2579180416	 2.1060902127	-0.356535
C	 0.0336377431	-0.8164426044	 1.1333725951	 0.287617
C	 0.073258201	-0.288444889	 2.5267434974	-0.514801
H	 0.917693592	 1.8201947888	 0.4344728884	 0.147184
H	-0.0225269107	 1.6962000628	-1.0746410185	 0.172819
H	-0.8628380586	 1.8269445924	 0.4917964726	 0.14714
H	-0.043295769	-2.8022429626	-1.4820949945	 0.137887
H	 0.9643917489	 0.3250204285	 2.7013377206	 0.146217
H	-0.8025509915	 0.3316091659	 2.7490820685	 0.1462
H	 0.0892685107	-1.119368242	 3.2342306718	 0.168199
56.8336	117.7396	124.2515	135.3148	241.4489	258.0907	264.4597	410.1123	521.585	533.0605	587.8985	655.7337	699.217	701.4503	767.1481	886.5844	959.178	1035.6093	1060.0773	1127.7971	1150.5316	1205.2927	1213.6349	1314.7469	1397.5428	1419.7538	1427.4761	1457.1934	1478.3839	1484.2821	1490.9441	1498.3011	1526.4095	1589.2214	2342.084	3033.1502	3045.1506	3085.444	3106.5351	3138.8104	3173.2927	3261.9133
CN1N=CC(C#N)=C1C	Cn1ncc(C#N)c1C	
InChI=1S/C6H7N3/c1-5-6(3-7)4-8-9(5)2/h4H,1-2H3	InChI=1S/C6H7N3/c1-5-6(3-7)4-8-9(5)2/h4H,1-2H3
