16
gdb 31108	3.22538	1.18979	0.8934	4.774	67.16	-0.2152	0.0211	0.2363	1246.4433	0.125542	-471.22439	-471.215567	-471.214623	-471.258093	32.445	
N	 0.2108811857	 1.1679426939	-0.6554953993	-0.502181
C	-0.2873273721	 0.1395529148	 0.2600752447	-0.268895
C	 0.6902783781	-0.4097207334	 1.2663964244	 0.240638
C	 2.0351297478	-0.5423655254	 1.1767204162	 0.170905
N	 2.9696504998	-0.2577451023	 0.1884901171	-0.597737
O	 2.4680136681	-1.1274176144	 2.3935250599	-0.229139
C	 1.3260351583	-1.2867659777	 3.083928905	 0.459568
O	 1.4154960029	-1.8211041817	 4.3026874338	-0.40191
N	 0.2450171794	-0.8974430689	 2.5021149939	-0.391179
H	 0.4944847728	 1.9793731676	-0.1123891101	 0.220003
H	 1.0658613753	 0.8318124323	-1.0912031467	 0.237446
H	-1.1427796934	 0.5383501252	 0.8150714267	 0.12876
H	-0.6851266057	-0.6897524377	-0.3404170617	 0.120984
H	 3.6922774055	 0.387383235	 0.4919914398	 0.248136
H	 3.417506159	-1.0864176015	-0.190523155	 0.2501
H	 2.3427088885	-2.0170282058	 4.4823191913	 0.314502
50.7146	171.5013	198.4995	213.0593	242.7166	318.0994	324.0772	340.9052	362.376	409.6247	536.2615	634.0123	655.734	708.021	745.802	776.9668	810.869	901.9731	933.2093	994.6235	1052.1581	1122.9318	1170.0145	1212.6598	1216.8241	1247.6293	1314.8044	1377.1635	1399.7643	1430.9996	1480.2687	1652.8749	1680.4083	1691.5039	1727.4008	3019.4487	3076.8908	3483.804	3490.0972	3554.4852	3555.5613	3819.9603
NCC1=C(N)OC(O)=N1	NCc1c(N)oc(O)n1	
InChI=1S/C4H7N3O2/c5-1-2-3(6)9-4(8)7-2/h1,5-6H2,(H,7,8)	InChI=1S/C4H7N3O2/c5-1-2-3(6)9-4(8)7-2/h1,5-6H2,(H,7,8)
