20
gdb 63443	4.24063	0.75527	0.74911	3.858	77.2	-0.23	-0.0242	0.2058	1575.2751	0.167713	-440.265125	-440.255303	-440.254359	-440.300432	35.743	
C	-0.066848719	 1.588168915	-0.096893547	-0.45229
C	-0.1014729243	 0.0671364245	-0.0719479535	 0.399774
O	-1.3909301056	-0.4406973429	-0.3289287725	-0.468819
C	 1.0800897489	-0.6051578512	-0.8398891601	-0.226323
N	 1.7874213521	-0.7391454948	 0.4495199921	-0.092442
C	 2.5873342194	-1.9152757484	 0.6941786449	-0.236061
C	 3.4095772777	-1.7681229089	 1.9651260778	 0.157939
O	 3.7141887926	-2.6778354284	 2.690502146	-0.236227
C	 0.5203808329	-0.5668189016	 1.1941649637	-0.213255
H	 0.933000075	 1.9541231188	 0.1522632449	 0.136289
H	-0.3234851723	 1.9668003169	-1.0945733526	 0.108282
H	-0.7823735623	 1.9990317365	 0.6223265641	 0.126242
H	-1.7771585266	 0.0627768423	-1.0534026641	 0.278281
H	 0.753637656	-1.565087018	-1.2673185015	 0.094663
H	 1.6155628377	-0.0237445468	-1.5994428068	 0.095564
H	 2.0140622278	-2.8579577262	 0.7454594461	 0.106974
H	 3.3105674523	-2.0183767705	-0.1290962843	 0.129697
H	 3.7277973186	-0.7194243041	 2.1640386894	 0.082318
H	 0.5890277888	 0.0452431262	 2.0997027022	 0.104049
H	 0.0176189502	-1.5170164485	 1.4292890212	 0.105343
54.4282	69.435	104.4789	185.7405	256.427	270.0286	292.802	312.8317	333.3171	400.1265	436.621	468.8293	478.6891	639.5868	736.0088	798.5291	890.0065	900.7746	961.9057	978.6748	991.8131	1015.568	1063.8204	1120.5247	1125.73	1137.5957	1165.2345	1176.0241	1237.1277	1249.5924	1285.199	1286.6768	1324.9047	1349.8896	1399.4398	1404.9459	1406.5668	1457.3144	1490.24	1492.6753	1500.1917	1524.608	1839.6907	2880.2097	2952.7353	2986.5147	2997.0756	3021.1238	3022.2708	3055.8104	3066.5367	3091.8702	3120.9622	3807.8817
CC1(O)CN(CC=O)C1	CC1(O)CN(CC=O)C1	
InChI=1S/C6H11NO2/c1-6(9)4-7(5-6)2-3-8/h3,9H,2,4-5H2,1H3	InChI=1S/C6H11NO2/c1-6(9)4-7(5-6)2-3-8/h3,9H,2,4-5H2,1H3
