19
gdb 32427	2.9251	1.23241	0.93255	1.0122	79.54	-0.1857	0.034	0.2197	1286.3281	0.160176	-419.23459	-419.225208	-419.224264	-419.268455	35.215	
C	 0.0908018161	 1.5476495576	 0.1534731813	-0.371105
C	-0.1142888997	 0.0404709874	-0.0816279305	-0.312038
C	 0.6616015354	-0.4847316934	-1.2523621902	 0.229298
C	 0.1759292102	-0.9336404526	-2.4414368008	-0.129175
O	 1.1707057318	-1.3033872777	-3.2853116055	-0.178207
C	 2.3572978208	-1.1022898674	-2.6048910165	 0.227542
N	 3.5804844962	-1.3917934547	-3.2124186765	-0.60251
C	 2.0957567228	-0.5984263785	-1.3659349952	 0.100514
N	 3.0420354907	-0.1892438197	-0.4128826585	-0.615068
H	 1.150259025	 1.7762011738	 0.2997404584	 0.137145
H	-0.2576926626	 2.1231546901	-0.709596676	 0.117572
H	-0.4616918219	 1.8853559927	 1.0362399455	 0.104869
H	 0.1697350748	-0.5048764381	 0.8297274399	 0.094156
H	-1.1793721048	-0.1687084512	-0.2339151805	 0.101486
H	-0.8295525512	-1.0497213622	-2.8144538571	 0.124406
H	 3.6312171634	-2.3485559559	-3.54888386	 0.242362
H	 3.7913616435	-0.7771910217	-3.9937085338	 0.243512
H	 3.9666769266	-0.5170484594	-0.6703394851	 0.246022
H	 2.819487773	-0.5130816292	 0.5212062211	 0.239219
85.5417	114.7427	188.8976	209.0407	249.5737	255.8616	297.2476	304.646	320.413	424.9662	504.9595	574.5593	614.918	698.4647	717.4007	743.3459	762.1225	790.0739	804.757	830.0876	950.6295	986.9524	1073.3527	1089.2854	1130.2112	1178.5001	1212.6444	1225.1286	1271.6314	1308.7575	1320.8509	1359.9419	1408.3076	1464.0082	1485.6898	1496.6373	1512.6264	1603.4772	1638.0341	1656.9878	1727.5855	3002.6177	3037.3702	3055.8798	3107.0303	3119.3645	3258.7896	3481.0934	3509.5536	3544.318	3600.373
CCC1=COC(N)=C1N	CCc1coc(N)c1N	
InChI=1S/C6H10N2O/c1-2-4-3-9-6(8)5(4)7/h3H,2,7-8H2,1H3	InChI=1S/C6H10N2O/c1-2-4-3-9-6(8)5(4)7/h3H,2,7-8H2,1H3
