23
gdb 119266	1.79708	1.10975	0.7682	1.4641	82.98	-0.2595	0.0749	0.3344	1603.6321	0.202972	-425.399854	-425.388939	-425.387995	-425.437501	38.341	
C	-0.2556947404	 1.4011562673	 0.5760766963	-0.382141
C	-0.1445871128	-0.0098001299	-0.0074179549	-0.167931
C	-1.3767387282	-0.871792616	 0.3033087513	-0.25598
C	-1.337783898	-2.2444832651	-0.3386999381	 0.397869
C	-0.2664168539	-3.2028612237	 0.14454519	-0.125937
O	-0.4295239149	-3.3950026377	 1.5333468098	-0.2362
C	 0.5547206518	-4.2343460231	 2.0889144805	-0.222564
C	-2.5460997866	-2.8095391626	-0.955097425	-0.22887
O	-1.497213269	-2.2685857966	-1.7655519612	-0.287517
H	 0.6304978216	 1.9998185145	 0.3436678936	 0.111116
H	-1.1283602579	 1.927920287	 0.1739756306	 0.114617
H	-0.3620878007	 1.3715523881	 1.6663133138	 0.114032
H	-0.0178662126	 0.0449920096	-1.095131714	 0.111731
H	 0.7568205996	-0.4936469254	 0.3878293477	 0.098133
H	-1.4786490501	-1.0034119609	 1.3868543199	 0.11635
H	-2.2760179758	-0.3512361516	-0.0458423881	 0.09488
H	-0.3531290046	-4.1536320821	-0.4045604627	 0.092806
H	 0.7340955381	-2.7932906973	-0.0736096909	 0.094122
H	 0.5306149978	-5.2417381795	 1.6442534355	 0.105876
H	 1.5674689456	-3.8237815207	 1.9498616626	 0.105622
H	 0.3497690057	-4.3158024515	 3.159040321	 0.128293
H	-2.6717964229	-3.8900824015	-1.0133939199	 0.109936
H	-3.4713778818	-2.2353133214	-0.9472847279	 0.111756
24.3549	71.152	86.5418	102.1076	168.0411	182.9535	228.4534	246.6618	313.5789	322.6236	378.235	416.718	445.1417	547.7997	740.949	774.6692	848.3059	889.	898.6451	942.0579	950.1588	997.5651	1042.4313	1062.6695	1102.9048	1122.0879	1136.2016	1159.5356	1167.7642	1184.6512	1227.1217	1236.002	1253.9703	1296.1286	1307.7143	1336.9724	1378.0497	1406.055	1413.2372	1441.7655	1470.2419	1482.3326	1485.9547	1492.2431	1500.2841	1503.9058	1508.7262	1521.912	1533.6459	2960.7603	2973.5727	2998.271	3015.3975	3026.7492	3028.1103	3037.3845	3057.4763	3081.1095	3081.6524	3098.7435	3101.9283	3115.1557	3167.9516
CCCC1(COC)CO1	CCC[C@@]1(COC)CO1	
InChI=1S/C7H14O2/c1-3-4-7(5-8-2)6-9-7/h3-6H2,1-2H3	InChI=1S/C7H14O2/c1-3-4-7(5-8-2)6-9-7/h3-6H2,1-2H3/t7-/m1/s1
