17
gdb 47859	2.63631	1.64987	1.11125	3.911	69.75	-0.2612	-0.008	0.2532	1067.6205	0.138052	-455.180402	-455.172467	-455.171523	-455.21321	29.784	
O	 0.1379889821	-0.0745792274	 0.1636414506	-0.363802
C	 0.0343068839	 1.1199630773	 0.102671975	 0.447287
N	-1.1141274539	 1.8359986166	 0.0556165985	-0.321986
C	-1.2181820024	 3.2930832174	 0.0410250635	-0.152098
C	-0.7322729438	 4.0083890527	-1.2361812784	-0.199539
C	 0.782967096	 4.282769856	-1.3665855682	-0.148992
N	 1.5875479017	 3.1723471113	-1.8818834127	-0.201029
C	 1.6981696464	 2.1332967592	-1.1894453216	 0.086889
O	 1.1317869649	 1.9893907655	 0.0704725704	-0.247035
H	-1.9568515119	 1.2866461979	 0.1088860996	 0.263556
H	-2.28239048	 3.51011022	 0.1706296326	 0.112768
H	-0.7004280405	 3.708847818	 0.9128532695	 0.128156
H	-1.0853973345	 3.4663517401	-2.1206036891	 0.116401
H	-1.2293681325	 4.9863129789	-1.250207344	 0.108513
H	 0.9146619476	 5.1120571427	-2.0671008683	 0.110095
H	 1.174278586	 4.6156530096	-0.3960514983	 0.115784
H	 2.2656633509	 1.2666312645	-1.523102129	 0.145032
61.5684	158.6149	188.2807	221.0678	298.464	343.6116	436.4056	507.2651	515.3127	575.5644	627.7446	697.3577	757.1371	796.1442	855.775	914.1666	923.0789	962.4984	1009.7727	1035.916	1070.6855	1092.8537	1138.7018	1228.6795	1279.8321	1306.5077	1326.2616	1374.186	1381.7787	1395.0054	1413.8427	1460.3994	1473.2408	1494.285	1500.6131	1755.8063	1864.7121	3021.2535	3029.6738	3040.6342	3080.7251	3081.0855	3092.099	3163.1206	3645.9936
O=C1NCCCN=CO1	O=C1NCCCN=CO1	
InChI=1S/C5H8N2O2/c8-5-7-3-1-2-6-4-9-5/h4H,1-3H2,(H,7,8)/b6-4-	InChI=1S/C5H8N2O2/c8-5-7-3-1-2-6-4-9-5/h4H,1-3H2,(H,7,8)/b6-4-
