12
gdb 25297	3.31922	1.36836	0.96892	0.896	65.11	-0.2626	-0.1117	0.1509	1092.3813	0.077214	-472.662481	-472.655021	-472.654077	-472.695821	25.409	
O	-1.00592945	 1.4482116611	-0.1076991261	-0.219741
C	 0.1094219627	 1.0603406232	-0.3198469345	 0.093229
C	 1.3804293273	 1.9236741155	-0.3259542551	 0.177671
O	 2.4333388283	 1.3600713925	-0.5615645914	-0.293695
C	 1.3259510778	 3.3553487854	-0.0608518335	 0.247136
C	 2.3207649587	 4.2948421351	-0.0179374138	-0.138633
N	 1.7806096809	 5.5253594697	 0.2726840858	-0.251278
C	 0.5070895152	 5.2860542524	 0.3914747773	 0.086184
O	 0.1472164393	 4.0084190856	 0.2068363877	-0.149169
H	 0.364479346	 0.0024822276	-0.5432825095	 0.114155
H	 3.3765731446	 4.1473114293	-0.1787902746	 0.163499
H	-0.2823333307	 5.9861106727	 0.6181172878	 0.170641
40.5132	113.986	152.9116	188.7778	261.8186	432.2457	547.5311	565.2793	658.3841	660.8173	686.8325	877.4211	920.824	937.805	967.3533	1030.3785	1089.1119	1150.0413	1172.2069	1247.6656	1312.145	1345.8765	1377.5064	1498.1158	1596.786	1745.7566	1835.894	2923.0364	3276.3399	3279.5476
O=CC(=O)C1=CN=CO1	O=CC(=O)c1cnco1	
InChI=1S/C5H3NO3/c7-2-4(8)5-1-6-3-9-5/h1-3H	InChI=1S/C5H3NO3/c7-2-4(8)5-1-6-3-9-5/h1-3H
