20
gdb 58293	2.95735	0.90557	0.73232	4.0967	72.05	-0.235	0.0345	0.2694	1537.2765	0.168595	-477.456848	-477.446202	-477.445257	-477.493107	38.833	
C	-0.1277780905	 1.5217450066	-0.4004834265	-0.407375
C	-0.0630128321	 0.0768514468	 0.0893267729	 0.119907
O	 0.34406062	-0.0010757267	 1.4492648761	-0.420428
C	-1.3936355405	-0.6756395006	-0.1334062484	 0.065388
O	-1.776227728	-0.6106791862	-1.5156877762	-0.424953
C	-1.3391956163	-2.1180175819	 0.3836114005	-0.306554
C	-2.681246547	-2.8519682786	 0.4832058395	 0.363464
N	-3.5390374554	-2.6346825359	-0.5532121392	-0.514074
O	-2.9356497988	-3.5965439063	 1.4106075756	-0.362229
H	 0.8411989306	 2.0094339326	-0.2670683984	 0.12633
H	-0.4126266393	 1.5677091257	-1.4537544794	 0.131488
H	-0.8778652441	 2.0854020273	 0.1695247046	 0.108999
H	 0.7213869018	-0.4601752359	-0.46423244	 0.080893
H	-0.2201732371	 0.588896355	 1.9619498788	 0.283479
H	-2.1883326799	-0.1286406285	 0.3916620678	 0.093361
H	-1.1140658848	-1.0963532404	-2.0226829344	 0.28634
H	-0.6731568353	-2.7042300727	-0.2670674251	 0.10754
H	-0.89588696	-2.1310098553	 1.3794946042	 0.14955
H	-3.3289656219	-1.942378923	-1.2565748606	 0.265256
H	-4.4504456615	-3.059607392	-0.5066103517	 0.253617
38.0154	80.9342	88.4844	162.2825	231.2676	258.2174	282.0234	305.3298	325.608	361.6747	389.689	432.3023	449.0467	498.3667	518.6371	571.333	631.972	743.4071	849.0341	872.3896	901.9819	941.3243	1014.7643	1050.8132	1079.6131	1113.3343	1128.0581	1158.2843	1179.5397	1231.6115	1293.9387	1314.4457	1346.621	1366.7377	1391.3936	1399.071	1413.0681	1418.5979	1467.3901	1490.478	1496.1466	1612.8613	1798.9502	3002.7234	3008.4691	3027.0247	3034.833	3104.1561	3137.9441	3139.6256	3558.7277	3710.3008	3784.7484	3796.9129
CC(O)C(O)CC(N)=O	C[C@@H](O)[C@@H](O)CC(=O)N	
InChI=1S/C5H11NO3/c1-3(7)4(8)2-5(6)9/h3-4,7-8H,2H2,1H3,(H2,6,9)	InChI=1S/C5H11NO3/c1-3(7)4(8)2-5(6)9/h3-4,7-8H,2H2,1H3,(H2,6,9)/t3-,4+/m1/s1
