21
gdb 111012	2.4725	1.47806	1.25022	1.5895	78.36	-0.2417	0.0813	0.323	1136.6959	0.182156	-424.208317	-424.199455	-424.19851	-424.241765	33.757	
C	-0.2788842827	 1.3923650787	 0.1029574413	-0.240418
O	 0.2473491398	 0.107205651	-0.156823788	-0.24986
C	 0.7688141395	-0.522146767	 0.9740971073	 0.111854
C	-0.1284510801	-1.3403155481	 1.94457524	 0.024285
C	-0.9613231077	-2.2309338204	 1.0050306173	-0.218778
C	 0.2090160296	-2.7067623078	 0.0913015848	-0.245515
C	 1.358118177	-1.9385703152	 0.7854482656	 0.362471
C	 2.7818336228	-2.2085332233	 0.3899724853	-0.503294
O	 1.0498110662	-2.1584525575	 2.20700864	-0.333233
H	 0.4853897488	 2.063066684	 0.5239153218	 0.110008
H	-0.6230956999	 1.8013434375	-0.8496464181	 0.129918
H	-1.1282047417	 1.3559246787	 0.8008490286	 0.110787
H	 1.4610106105	 0.1237965378	 1.5294913568	 0.074865
H	-0.587700069	-0.9288202676	 2.8432614877	 0.071903
H	-1.4382331315	-3.0472408568	 1.5511242592	 0.102157
H	-1.7252276463	-1.6689944348	 0.4623132398	 0.102719
H	 0.3797551071	-3.7846178811	 0.141683462	 0.09904
H	 0.0850708014	-2.409592345	-0.9520616133	 0.109868
H	 2.938537662	-1.9316318824	-0.6574469678	 0.129334
H	 3.4760422927	-1.6348433405	 1.0101731794	 0.124448
H	 3.0180121714	-3.2719860901	 0.4998357502	 0.127439
72.2189	161.2229	169.0686	197.712	232.2806	261.1059	287.9574	333.0885	469.6761	527.8769	571.5195	606.3164	772.272	815.031	843.5718	846.4993	866.294	912.7619	928.3881	973.7691	992.6172	999.9091	1050.9782	1097.1919	1140.2584	1151.9726	1173.0656	1183.3153	1201.3257	1233.8216	1242.4289	1251.5308	1277.6466	1285.9012	1315.6176	1344.1359	1394.2815	1418.1728	1468.3131	1481.0307	1481.8362	1488.6024	1492.2782	1495.634	1508.2995	2981.2125	3030.0178	3032.0149	3038.6652	3067.4247	3075.6146	3107.9893	3114.8985	3117.2831	3118.8914	3123.3917	3131.2127
COC1C2CCC1(C)O2	CO[C@H]1[C@H]2CC[C@]1(C)O2	
InChI=1S/C7H12O2/c1-7-4-3-5(9-7)6(7)8-2/h5-6H,3-4H2,1-2H3	InChI=1S/C7H12O2/c1-7-4-3-5(9-7)6(7)8-2/h5-6H,3-4H2,1-2H3/t5-,6+,7+/m1/s1
