16
gdb 75458	2.11355	1.6398	1.37599	3.3058	70.61	-0.2433	-0.0125	0.2308	1020.3209	0.125121	-434.094154	-434.085602	-434.084658	-434.127093	32.191	
N	-0.0944154172	 1.3329120951	 0.1467038916	-0.564559
C	-0.116837291	-0.0243674219	 0.0197403196	 0.36688
N	-1.1511824858	-0.7649286518	-0.0594495726	-0.280111
C	-0.7272740285	-2.1667716171	-0.0900252749	-0.166072
C	 0.7841675244	-2.1628697272	-0.4301539728	-0.288659
C	 1.234808526	-0.7620277177	 0.0394320171	 0.17281
O	 2.1308407207	-0.0752353449	-0.8228488009	-0.46639
C	 1.7883216983	-0.7909402326	 1.4086431508	 0.242247
N	 2.2586665564	-0.8358711681	 2.4637921982	-0.332914
H	 0.7353129493	 1.7893713268	-0.2006629013	 0.269984
H	-0.9653312077	 1.8059185098	-0.0413024651	 0.26485
H	-0.9165755851	-2.6343672247	 0.8850316021	 0.120761
H	-1.3136049093	-2.7229053737	-0.8277499978	 0.114963
H	 1.3468497675	-2.9781015126	 0.0280484451	 0.119357
H	 0.9354945664	-2.1916876652	-1.5130691492	 0.126439
H	 3.0186415757	-0.4280277841	-0.6961420597	 0.300414
84.372	139.6976	197.9406	250.323	274.5038	283.7541	361.5846	411.2062	462.6299	496.3158	540.9081	569.3702	641.2196	673.4014	705.8619	735.9184	835.298	935.7081	961.517	991.8109	1023.605	1117.0907	1129.7718	1172.7738	1222.5009	1236.596	1295.2189	1327.0444	1345.5295	1410.5584	1481.3	1509.9817	1621.8898	1751.1888	2346.9487	3023.8604	3064.4635	3077.3766	3127.9809	3579.0402	3693.8501	3809.9431	84.3702	139.6974	197.9399	250.3224	274.5038	283.7553	361.5846	411.206	462.6305	496.3159	540.9085	569.3701	641.2197	673.4013	705.8622	735.9183	835.2982	935.7081	961.5171	991.8107	1023.6051	1117.0909	1129.7721	1172.7738	1222.5018	1236.5966	1295.2198	1327.0448	1345.5298	1410.5583	1481.3016	1509.9825	1621.8892	1751.1888	2346.9487	3023.8603	3064.4635	3077.3766	3127.9808	3579.0403	3693.8502	3809.9435
NC1=NCCC1(O)C#N	N[C]1[N]CC[C@]1(O)C#N	
InChI=1S/C5H7N3O/c6-3-5(9)1-2-8-4(5)7/h9H,1-2H2,(H2,7,8)	InChI=1S/C5H7N3O/c6-3-5(9)1-2-8-4(5)7/h9H,1-2H2,(H2,7,8)/t5-/m0/s1
