19
gdb 54518	3.10844	1.33785	1.08709	1.4533	75.95	-0.246	-0.0166	0.2293	1146.6721	0.159274	-423.042402	-423.033992	-423.033048	-423.075755	31.775	
C	 0.397264811	 1.3648934686	 0.1046641455	-0.494669
C	-0.2886936764	 0.0202928828	-0.0547333977	 0.292029
O	-0.9866209771	-0.4410156222	 0.8252341448	-0.318935
C	-0.0738525605	-0.7209083744	-1.3339680456	 0.212433
C	-1.1469549726	-1.7134536677	-1.7590513756	-0.314166
C	 0.1645747878	-2.2346467796	-1.2853630382	-0.077676
C	 1.21272863	-2.4988709722	-2.3492058599	-0.098001
O	 1.1553803295	-1.3787889566	-3.228652003	-0.254902
C	 0.8207910841	-0.2256550551	-2.4628035135	-0.17025
H	 1.4864548117	 1.2417303378	 0.0987741348	 0.143706
H	 0.1482401354	 2.0319367188	-0.7282246554	 0.139332
H	 0.0900233569	 1.8173985939	 1.047866118	 0.143253
H	-1.9845135476	-1.7972433636	-1.0774223902	 0.140346
H	-1.3737279996	-1.7648744438	-2.8190034512	 0.126947
H	 0.2287811069	-2.7252568356	-0.3218729866	 0.112864
H	 2.2081978208	-2.5966810023	-1.8867529711	 0.095642
H	 1.0226758881	-3.3922551837	-2.9528685241	 0.11616
H	 0.3354893638	 0.4806301574	-3.1449280133	 0.113397
H	 1.7257752476	 0.2540528173	-2.057175888	 0.092489
49.9839	155.9758	168.219	206.8476	253.1516	327.6881	378.2865	397.0025	462.4353	593.1692	611.1442	678.1634	728.3591	820.2897	881.1328	921.3771	942.9107	950.2413	957.6065	1015.7745	1043.4744	1059.2029	1078.1055	1092.1904	1115.2118	1122.6257	1161.0232	1224.2434	1253.9558	1275.9585	1294.8718	1358.974	1371.6406	1381.5974	1412.9436	1462.4675	1463.5788	1477.1979	1511.373	1522.5636	1782.0591	2974.4492	2980.4305	3035.0985	3064.4933	3073.0074	3095.3031	3136.2025	3153.9192	3195.9278	3239.4908
CC(=O)C12CC1COC2	CC(=O)[C@]12C[C@H]1COC2	
InChI=1S/C7H10O2/c1-5(8)7-2-6(7)3-9-4-7/h6H,2-4H2,1H3	InChI=1S/C7H10O2/c1-5(8)7-2-6(7)3-9-4-7/h6H,2-4H2,1H3/t6-,7+/m0/s1
