17
gdb 37155	3.96514	1.86603	1.62448	1.823	74.38	-0.2505	0.0674	0.3178	845.3559	0.138246	-384.566781	-384.561152	-384.560208	-384.596362	24.976	
C	-0.0886006915	 1.5733868051	 0.0167403059	-0.358882
C	 1.4493572271	 1.2853811892	-0.0256093874	-0.104702
C	 1.3184640244	 0.1383267926	 1.0222158048	-0.022296
C	 1.8500360302	-1.0292648223	 0.1646019645	-0.133817
C	 0.7547154344	-2.1196555287	 0.297942202	 0.039796
O	-0.0676647733	-2.0239744026	 1.4792369539	-0.251181
C	-0.5165420967	-1.36993863	 0.2796790689	-0.13639
C	 0.0348787149	 0.0378147205	 0.1358158488	 0.323456
C	 1.2532786056	-0.0132371378	-0.8592728863	-0.047204
H	-0.4620891464	 2.1067596603	 0.8960367839	 0.10309
H	-0.5429935884	 1.9680453768	-0.8974658965	 0.097421
H	 2.257033274	 2.0123128138	-0.1101225171	 0.073831
H	 1.3050807544	 0.2354273745	 2.1063424872	 0.085039
H	 2.8934160967	-1.3480489759	 0.155890126	 0.062454
H	 0.8736705982	-3.1194208024	-0.1089404395	 0.098962
H	-1.4409667616	-1.7311907181	-0.1581506443	 0.099224
H	 1.1758545379	-0.0954635151	-1.9453496648	 0.0712
292.3547	334.5611	411.6672	472.404	546.3355	695.2005	737.5313	760.8576	799.2845	813.8348	856.6493	863.3038	865.339	890.1404	916.3215	929.3137	935.4537	970.8636	998.9604	1009.904	1049.6417	1076.7528	1105.5801	1111.1133	1130.1092	1144.5389	1179.9465	1185.207	1197.0743	1207.5472	1240.3506	1254.2508	1278.5144	1302.7913	1315.9198	1380.1819	1506.5938	3042.5935	3089.8021	3101.6948	3103.3448	3112.5077	3133.4273	3158.8242	3174.2449
C1C2C3C4C5OC5C13C24	C1[C@H]2[C@@H]3[C@H]4[C@H]5O[C@H]5[C@@]13[C@@H]24	
InChI=1S/C8H8O/c1-2-4-3-5(2)8(1,4)7-6(3)9-7/h2-7H,1H2	InChI=1S/C8H8O/c1-2-4-3-5(2)8(1,4)7-6(3)9-7/h2-7H,1H2/t2-,3+,4+,5-,6-,7-,8-/m1/s1
