18
gdb 110469	3.9058	1.38437	1.24423	3.0805	72.87	-0.2221	0.0732	0.2952	1029.2439	0.149464	-401.878762	-401.871674	-401.87073	-401.910358	28.404	
O	-0.01693751	 1.4061202813	 0.1322932364	-0.424005
C	 0.0297687823	-0.0121381282	 0.0526876759	-0.085888
C	-1.4056605583	-0.5216269132	 0.0174712021	-0.008881
C	-1.5356864206	-2.0325338315	 0.0435265979	-0.10142
C	-1.5619146136	-2.5500517736	 1.4803063106	-0.113838
C	-2.8373667859	-2.4040218221	 0.7004035038	-0.03063
N	-3.2862044819	-1.2048829377	 1.5123427314	-0.170614
C	-2.003109425	-1.3163869804	 2.2835161311	-0.047978
C	-2.17711704	-0.2265728641	 1.2882649949	-0.048502
H	 0.8848181422	 1.7360988479	 0.1812073983	 0.287698
H	 0.5622367845	-0.3412567307	-0.853988148	 0.084691
H	 0.5498484178	-0.4471363839	 0.9203931697	 0.090286
H	-1.9135083742	-0.0918527782	-0.8541268235	 0.089594
H	-1.134256425	-2.6666483195	-0.7374100534	 0.090507
H	-1.0429873179	-3.4276406792	 1.8375821487	 0.092082
H	-3.5635343681	-3.1172935981	 0.3351682431	 0.097376
H	-1.9734396788	-1.1964123508	 3.3598837275	 0.093132
H	-2.3914736076	 0.789304062	 1.5949989136	 0.106391
99.8736	163.498	210.4282	264.6962	396.0938	517.3213	587.4378	703.6488	726.451	755.0628	773.9827	785.8155	842.2032	850.461	899.8137	926.0313	950.9634	980.9583	988.325	1026.818	1035.7994	1045.9565	1059.6999	1062.11	1076.8651	1102.3668	1115.4393	1166.0516	1225.2635	1233.857	1245.378	1252.9262	1295.6667	1297.5234	1342.6079	1373.3243	1395.8341	1458.0383	1519.8074	2967.6981	2999.311	3049.3271	3179.5208	3193.909	3203.5572	3204.9215	3222.2917	3832.0486
OCC1C2C3C2N2C3C12	OC[C@H]1[C@H]2[C@@H]3[C@H]2N2[C@@H]3[C@@H]12	
InChI=1S/C7H9NO/c9-1-2-3-4-6(3)8-5(2)7(4)8/h2-7,9H,1H2	InChI=1S/C7H9NO/c9-1-2-3-4-6(3)8-5(2)7(4)8/h2-7,9H,1H2/t2-,3-,4+,5+,6-,7-,8?/m0/s1
