17
gdb 13199	4.86785	1.32624	1.18525	2.0661	64.76	-0.2289	0.0085	0.2374	1049.7891	0.142522	-401.005377	-400.997042	-400.996098	-401.039099	28.784	
C	-0.1526404049	 1.3715999167	 0.187610721	-0.240277
O	-0.0915235464	-0.0547487505	 0.0508188181	-0.231543
C	-1.2791503402	-0.6835910569	-0.0068341801	 0.435529
O	-2.3455143975	-0.1195832723	 0.0434041931	-0.368513
C	-1.0952774928	-2.1842312981	-0.141335094	-0.086883
C	-0.7922512262	-2.8933276139	 1.2137114532	-0.237804
C	-2.2819921882	-3.3163959046	 1.1958369376	-0.149815
N	-2.3585558189	-2.9341514248	-0.2399363774	-0.307534
H	 0.8823875551	 1.7115443231	 0.2206545637	 0.135161
H	-0.6750054956	 1.8170607895	-0.6627248814	 0.142794
H	-0.6764680327	 1.6493179673	 1.1057584276	 0.140927
H	-0.3807328716	-2.3720779674	-0.9506151133	 0.098101
H	-0.0994193481	-3.7273578295	 1.0957821731	 0.118859
H	-0.4570787002	-2.2607031633	 2.036174586	 0.11304
H	-2.501065925	-4.3713455251	 1.3878979518	 0.103951
H	-2.9034969438	-2.7004423316	 1.8575111048	 0.105329
H	-3.1435255329	-2.3286095186	-0.4625676137	 0.228677
53.1947	99.1907	116.6208	139.9811	203.7396	282.5205	332.803	425.6483	646.4949	697.662	752.279	775.2332	861.9174	908.1056	941.1134	992.9938	1009.6506	1035.8833	1096.6788	1106.5539	1169.5455	1178.0701	1206.3659	1208.5561	1228.0626	1237.9341	1265.5764	1326.6619	1344.4386	1424.4825	1473.3005	1482.402	1489.5842	1496.9458	1520.3474	1808.8489	3021.667	3041.9299	3052.3584	3071.4211	3088.1793	3127.013	3143.3847	3160.1522	3514.3723
COC(=O)C1CCN1	COC(=O)[C@H]1CCN1	
InChI=1S/C5H9NO2/c1-8-5(7)4-2-3-6-4/h4,6H,2-3H2,1H3	InChI=1S/C5H9NO2/c1-8-5(7)4-2-3-6-4/h4,6H,2-3H2,1H3/t4-/m1/s1
