19
gdb 83852	2.09792	1.81501	1.28896	2.5635	75.67	-0.2186	-0.0283	0.1903	1051.6654	0.161081	-419.18224	-419.174054	-419.17311	-419.215005	31.444	
C	-0.2975814201	 1.4167949672	 0.3134353235	-0.32941
N	 0.027922687	 0.0299015754	 0.0201568394	-0.086084
C	 0.48934881	-0.4238422013	-1.2788055481	-0.052925
C	 0.8355266189	 0.5334051672	-2.4264734843	-0.203588
N	 2.2378639562	 0.9535632987	-2.5040722396	-0.283
C	 2.7480271713	 1.4472740785	-1.226195064	-0.286278
C	 2.5980216086	 0.4612307531	-0.0605531252	 0.375377
O	 3.4358239443	 0.3746745448	 0.8104176243	-0.316981
C	 1.407751026	-0.4594995061	-0.0791666518	-0.129191
H	 0.2651413129	 2.1789301774	-0.2417376121	 0.108109
H	-1.3607228095	 1.5678551693	 0.0999598441	 0.131612
H	-0.1400249221	 1.5902158	 1.3817491028	 0.140391
H	 0.034698837	-1.3658106972	-1.5834881488	 0.100079
H	 0.5791578299	 0.049296644	-3.3729788171	 0.114534
H	 0.21404664	 1.4356687776	-2.3655722171	 0.120047
H	 2.801484475	 0.1595802867	-2.7933134799	 0.2225
H	 3.8110684249	 1.6880240055	-1.3125478545	 0.132494
H	 2.232432922	 2.3847774503	-0.9773426131	 0.133756
H	 1.5904612378	-1.3840563012	 0.4637900617	 0.108557
78.7153	136.3915	188.4413	227.8204	309.5858	352.284	411.2092	458.5418	465.6206	522.7356	591.9723	704.4715	724.2179	760.1502	791.3626	846.49	930.3238	950.8822	979.43	1033.0201	1085.6344	1093.2402	1131.9482	1146.755	1162.4945	1179.5322	1206.6136	1247.4133	1312.4871	1327.6236	1339.2623	1359.1852	1377.1808	1398.3423	1448.6927	1458.4823	1477.8551	1496.4624	1500.3307	1508.6412	1794.7257	3007.6671	3023.4283	3033.9679	3076.3035	3085.2245	3100.3687	3108.8594	3110.851	3137.0626	3506.1478
CN1C2CNCC(=O)C12	CN1[C@H]2CNCC(=O)[C@@H]12	
InChI=1S/C6H10N2O/c1-8-4-2-7-3-5(9)6(4)8/h4,6-7H,2-3H2,1H3	InChI=1S/C6H10N2O/c1-8-4-2-7-3-5(9)6(4)8/h4,6-7H,2-3H2,1H3/t4-,6-,8?/m0/s1
