23
gdb 113789	2.84905	1.03369	0.96398	1.5697	85.75	-0.2524	0.0868	0.3392	1402.1402	0.203946	-388.264376	-388.254343	-388.253399	-388.299778	37.594	
C	-0.1528238204	 1.5583113707	-0.4921586626	-0.379235
C	-0.0448408284	 0.2258649226	 0.260177985	-0.211241
C	-1.3547789787	-0.524050786	 0.2553412286	 0.081706
O	-1.7514079784	-1.1125106574	-0.987670425	-0.259772
C	-1.4888124274	-1.9890532143	 0.1148813104	-0.035761
C	-0.3343974601	-2.9610461628	-0.0216851045	 0.318486
C	 0.0306353915	-3.3161088928	-1.4519609279	-0.447129
C	 0.7650407097	-2.9419362352	 1.0203983798	-0.290039
C	-0.2546144372	-4.0519086587	 1.0199315172	-0.311315
H	 0.802054652	 2.0920979966	-0.4884346906	 0.112268
H	-0.445723523	 1.3875396397	-1.5322945814	 0.133961
H	-0.9039622863	 2.2125497802	-0.0360388188	 0.11403
H	 0.7336743338	-0.3978332687	-0.1880122454	 0.11347
H	 0.2521502324	 0.4078873522	 1.3013937415	 0.096143
H	-2.1719541302	-0.0042519734	 0.7641164975	 0.080895
H	-2.4008147076	-2.4327227883	 0.5222384177	 0.086693
H	 0.3200622998	-2.4270620215	-2.018615639	 0.12845
H	 0.8622083313	-4.027413872	-1.471833133	 0.106144
H	-0.8179762673	-3.7728108276	-1.9730926713	 0.120621
H	 1.7764121515	-3.1682112083	 0.698174066	 0.11019
H	 0.7062884278	-2.2059160049	 1.8145924384	 0.111874
H	-0.996822581	-4.0540179539	 1.812809402	 0.108718
H	 0.053673446	-5.0412214061	 0.6986472754	 0.110843
33.2959	100.3614	128.0033	190.5161	208.8311	236.75	261.3698	298.5883	342.5193	377.3015	443.1087	484.5391	585.5608	708.7508	766.9981	787.5579	830.4458	847.5626	870.1814	930.1384	947.86	955.328	970.6408	1026.2353	1043.5177	1067.3302	1073.8322	1084.2212	1106.5706	1132.5934	1157.712	1184.97	1193.9864	1279.9701	1291.4599	1320.762	1332.064	1345.8055	1401.3876	1409.3206	1418.8837	1466.1793	1472.4885	1480.2914	1485.4693	1498.4978	1499.3084	1508.5868	1509.9801	3027.1022	3033.8133	3035.9677	3058.4002	3072.1692	3088.6078	3097.5681	3108.3445	3115.5582	3116.8725	3121.0707	3129.5417	3201.0716	3218.1116
CCC1OC1C1(C)CC1	CC[C@H]1O[C@H]1C1(C)CC1	
InChI=1S/C8H14O/c1-3-6-7(9-6)8(2)4-5-8/h6-7H,3-5H2,1-2H3	InChI=1S/C8H14O/c1-3-6-7(9-6)8(2)4-5-8/h6-7H,3-5H2,1-2H3/t6-,7-/m1/s1
