19
gdb 99818	1.75481	1.54955	1.19917	2.6165	78.08	-0.2443	-0.0258	0.2185	1187.9989	0.153717	-423.011296	-423.000359	-422.999414	-423.047186	39.232	
C	-0.3935200411	 1.4271307083	-0.2827933704	-0.404197
C	-0.0116978004	-0.0406462334	-0.0798381343	-0.193854
C	 0.7683869611	-0.2955267782	 1.2283344024	 0.058598
O	 0.0951576649	 0.2430045322	 2.3683545022	-0.451784
C	 1.0084072777	-1.7321803976	 1.4114174069	 0.321015
C	 1.1867763913	-2.9102224714	 1.5757092447	-0.467311
C	 2.1758790664	 0.3837143781	 1.1846281317	 0.382374
C	 2.7794205038	 0.7651630386	 2.5157831009	-0.473358
O	 2.7313753782	 0.5568949704	 0.1288661463	-0.30316
H	 0.4947474999	 2.0521761412	-0.40824986	 0.133971
H	-1.0074702062	 1.5367580075	-1.1813263339	 0.112666
H	-0.9626017741	 1.8055313363	 0.5701682887	 0.122993
H	-0.9099181494	-0.6688726574	-0.0558609055	 0.09304
H	 0.608194129	-0.3949081019	-0.9073756804	 0.131292
H	-0.6389502602	-0.3441924255	 2.5783761595	 0.28887
H	 1.3499005266	-3.95080457	 1.7152918206	 0.205764
H	 2.1962760558	 1.5748488757	 2.9642585276	 0.159307
H	 2.7306633792	-0.0761954952	 3.2130874775	 0.148166
H	 3.8116169475	 1.0829245723	 2.3655622854	 0.135608
52.1827	109.3662	124.3936	143.1153	150.7375	202.0195	236.3306	259.1292	279.0769	334.2025	371.9415	461.1624	467.3003	534.347	581.4977	605.1582	634.8669	666.555	671.6013	775.8228	892.1309	967.5792	985.1096	990.4579	1052.6884	1120.9274	1124.7239	1155.3956	1194.1078	1285.3104	1352.6348	1377.6915	1381.2717	1405.777	1455.8148	1465.9405	1470.9809	1496.6208	1511.6642	1822.368	2223.156	3040.5872	3048.8653	3052.9593	3101.7974	3117.2473	3119.3762	3129.7541	3158.9185	3497.9601	3813.1785
CCC(O)(C#C)C(C)=O	CC[C@@](O)(C#C)C(=O)C	
InChI=1S/C7H10O2/c1-4-7(9,5-2)6(3)8/h1,9H,5H2,2-3H3	InChI=1S/C7H10O2/c1-4-7(9,5-2)6(3)8/h1,9H,5H2,2-3H3/t7-/m0/s1
