16
gdb 9808	3.36526	1.61084	1.35324	1.8476	61.13	-0.2597	-0.0416	0.2181	936.3545	0.127806	-420.861889	-420.853561	-420.852617	-420.89465	30.777	
O	-0.3742140453	 1.2847249206	 0.1109281092	-0.431619
C	-0.0181291643	-0.0667156824	 0.0378744631	-0.000832
C	 0.8855413412	-0.2993178685	-1.1564834701	 0.132638
O	 1.2014591401	 0.6018813419	-1.8968215678	-0.26342
C	 0.6684707252	-0.5521034554	 1.3230805573	 0.362424
O	 0.8309600033	-1.9476842818	 1.3396893955	-0.468037
C	 1.6815990925	 0.321154024	 2.0090458059	-0.326201
C	 0.311804583	 0.0994148451	 2.6227992316	-0.296204
H	 0.049657348	 1.7070375603	-0.6539704297	 0.297655
H	-0.9084122266	-0.705676976	-0.1020873105	 0.106327
H	 1.2442970746	-1.3353814007	-1.3113007089	 0.099138
H	 1.7251592699	-2.1559435046	 1.0513885638	 0.287664
H	 2.5304553901	-0.1687868249	 2.4743491701	 0.111546
H	 1.8854716063	 1.2934866068	 1.5754679802	 0.127293
H	-0.3883427023	 0.9249496463	 2.6021884835	 0.139351
H	 0.2481450245	-0.5617051209	 3.4790539567	 0.122278
67.5402	119.5717	207.9351	254.9805	269.3571	320.7621	352.281	392.623	462.1264	485.3611	522.21	677.7854	776.3202	784.6074	854.2409	894.0468	933.7601	953.0971	1005.3215	1050.1358	1062.2992	1085.5227	1159.0018	1194.6799	1229.7885	1264.5235	1326.698	1330.4123	1348.4412	1384.8164	1434.7339	1441.9005	1489.8599	1808.4335	2943.9307	2959.8726	3134.3261	3150.0703	3225.136	3248.5855	3677.9844	3815.486
OC(C=O)C1(O)CC1	O[C@@H](C=O)C1(O)CC1	
InChI=1S/C5H8O3/c6-3-4(7)5(8)1-2-5/h3-4,7-8H,1-2H2	InChI=1S/C5H8O3/c6-3-4(7)5(8)1-2-5/h3-4,7-8H,1-2H2/t4-/m0/s1
