17
gdb 42442	4.53293	0.79577	0.74952	2.956	77.	-0.247	0.0266	0.2736	1527.4982	0.134664	-417.974574	-417.965155	-417.964211	-418.010592	33.206	
O	 0.0661320734	 1.3089665793	-1.6196432128	-0.377189
C	 0.0279971708	 1.764926369	-0.494293999	 0.439157
N	 1.0170287682	 1.5984895761	 0.4391411885	-0.329629
C	 2.297936287	 1.0094603357	 0.0756927297	-0.289058
C	 3.4095422014	 1.9518265462	 0.18625118	 0.292649
C	 4.3174093689	 2.7291850687	 0.3090132185	-0.451044
N	-1.0337889878	 2.5589092063	 0.0022187442	-0.139595
C	-2.3610455376	 2.3214277725	-0.5333960306	-0.208335
C	-2.0439659515	 1.9492060207	 0.875208995	-0.235172
H	 0.9831327151	 2.1887466192	 1.2551945351	 0.255628
H	 2.501703791	 0.1295275155	 0.6998558574	 0.13508
H	 2.1877136624	 0.659093488	-0.95524911	 0.177855
H	 5.1230053091	 3.4154384005	 0.397921801	 0.20369
H	-2.9422937381	 3.2147238138	-0.7405081241	 0.124529
H	-2.4526381629	 1.5224584761	-1.2627812034	 0.144703
H	-1.9365988794	 0.8916279679	 1.1027125288	 0.132164
H	-2.38293131	 2.5662749249	 1.7024874518	 0.124566
31.1155	46.4973	71.6638	176.7677	217.1218	266.555	311.6245	328.8819	443.4956	503.0316	568.71	617.282	620.3855	668.0517	779.9383	815.3837	837.4205	928.4102	947.9108	958.4989	1042.5134	1053.4071	1104.0645	1124.6655	1135.4091	1176.8719	1180.8872	1222.1973	1270.4909	1339.4254	1383.2019	1477.7395	1494.1248	1513.9726	1529.0627	1787.3138	2240.5916	3018.3509	3090.6429	3109.1678	3123.2017	3195.1009	3216.0761	3505.2792	3638.2453
O=C(NCC#C)N1CC1	O=C(NCC#C)N1CC1	
InChI=1S/C6H8N2O/c1-2-3-7-6(9)8-4-5-8/h1H,3-5H2,(H,7,9)	InChI=1S/C6H8N2O/c1-2-3-7-6(9)8-4-5-8/h1H,3-5H2,(H,7,9)
