18
gdb 40703	3.40996	1.07211	0.949	1.1559	73.04	-0.2487	0.0715	0.3202	1278.4834	0.147376	-439.001863	-438.993514	-438.99257	-439.035742	30.603	
C	-0.3516147315	 1.3380607309	-0.1541247908	-0.2368
N	 1.0462404231	 0.8931217107	-0.0657333805	-0.321943
C	-0.0356412988	-0.1101405134	-0.0451770997	-0.060537
C	-0.1908650548	-0.8164077087	 1.2599575528	 0.078113
O	-1.3210480495	-1.6909615368	 1.4074561325	-0.26159
C	-0.0198088981	-2.2681020533	 1.4588347493	 0.016597
C	 0.3453110872	-3.2627000161	 0.3985297368	 0.045071
C	-0.6820543402	-4.0955398534	-0.2448529547	-0.174555
O	-0.0558933966	-3.0176294326	-0.9460451854	-0.227668
H	-0.7112205808	 1.8823938511	 0.7153308085	 0.119084
H	-0.7332479717	 1.7009039477	-1.104656458	 0.115647
H	 1.4811303995	 0.9091976449	-0.9838434279	 0.237468
H	-0.1933260922	-0.7264597414	-0.9220105116	 0.125023
H	-0.0056299305	-0.1780029088	 2.1259917576	 0.096642
H	 0.2888199305	-2.598933714	 2.4544229256	 0.093566
H	 1.3529808369	-3.6684741403	 0.501757044	 0.102093
H	-0.4281265003	-5.0923075403	-0.6005001769	 0.117678
H	-1.7239121622	-3.9261773561	 0.0163380483	 0.136111
59.7173	79.7538	147.3489	196.2783	237.952	291.7959	340.3954	477.6621	548.0486	672.3443	734.1394	829.0756	857.1552	869.3069	895.8077	897.6998	938.377	959.4411	977.2272	1003.3085	1044.9967	1096.2481	1118.4358	1122.1489	1138.484	1158.1388	1168.5747	1170.3057	1240.2005	1245.4791	1277.6957	1288.7352	1296.1877	1344.0487	1417.3807	1439.3612	1501.7739	1516.9942	1522.8985	3069.1337	3095.0286	3096.6766	3104.9217	3107.2969	3189.15	3193.6443	3200.7111	3513.1495
C1NC1C1OC1C1CO1	C1N[C@H]1[C@H]1O[C@H]1[C@H]1CO1	
InChI=1S/C6H9NO2/c1-3(7-1)5-6(9-5)4-2-8-4/h3-7H,1-2H2	InChI=1S/C6H9NO2/c1-3(7-1)5-6(9-5)4-2-8-4/h3-7H,1-2H2/t3-,4-,5-,6+/m1/s1
