19
gdb 73295	2.89161	1.84461	1.32697	1.2649	74.73	-0.2366	0.0653	0.3019	985.3131	0.15942	-422.986092	-422.978412	-422.977468	-423.017521	31.483	
C	 0.0318353158	 1.5012160838	-0.1105694777	-0.488382
C	 0.0245414565	 0.0071950198	 0.0506975855	 0.48803
O	 0.4266082353	-0.6177501296	-1.1737582441	-0.31849
C	 0.3483847013	-2.0082870072	-0.8715068069	-0.15768
C	-0.1063411425	-1.9508887105	 0.5849898264	 0.380894
O	-0.3737204773	-3.1384513431	 1.2565132158	-0.482292
C	 0.6626599798	-0.7495108805	 1.2572912314	-0.195455
C	-0.6050611766	-0.4682593708	 2.098011538	-0.271674
C	-1.1534285224	-0.801761368	 0.6892046092	-0.157757
H	 1.0348836129	 1.8460514005	-0.3795615968	 0.128771
H	-0.6514195017	 1.7965335683	-0.9126335859	 0.129744
H	-0.2733578549	 2.0062981427	 0.8086998916	 0.124312
H	-0.3787524133	-2.5127349423	-1.5201784665	 0.105168
H	 1.3287999656	-2.4889585568	-0.999060289	 0.088636
H	 0.4450412051	-3.6407935222	 1.3289745167	 0.285885
H	 1.7091201031	-0.7291832969	 1.5686236826	 0.064949
H	-0.8295509816	-1.2040358467	 2.8705743111	 0.111137
H	-0.7486704329	 0.5498629449	 2.4661742022	 0.091621
H	-2.189963632	-0.8408668253	 0.3510119264	 0.072584
189.8823	212.4038	270.1743	274.6057	302.1056	342.4127	421.7243	440.4979	479.0627	591.0921	681.7038	691.7033	719.9135	734.2981	846.0756	884.6791	892.737	922.2622	1004.1168	1014.9124	1046.1698	1059.3368	1074.8116	1108.4663	1119.9513	1138.147	1153.9084	1159.7237	1179.4242	1199.8759	1227.5945	1265.7568	1272.8252	1331.0892	1349.8205	1394.6362	1423.802	1477.9269	1495.5911	1514.4107	1521.8837	3000.6394	3045.5473	3046.4892	3071.0655	3092.9097	3107.0863	3110.1733	3127.946	3139.0296	3805.1047
CC12OCC3(O)C1CC23	C[C@@]12OC[C@@]3(O)[C@@H]1C[C@@H]23	
InChI=1S/C7H10O2/c1-6-4-2-5(6)7(4,8)3-9-6/h4-5,8H,2-3H2,1H3	InChI=1S/C7H10O2/c1-6-4-2-5(6)7(4,8)3-9-6/h4-5,8H,2-3H2,1H3/t4-,5+,6-,7-
