22
gdb 102620	1.90154	1.14077	0.85789	3.6667	80.17	-0.2371	0.0406	0.2776	1474.8317	0.191795	-441.525615	-441.514182	-441.513238	-441.56371	39.618	
C	-0.3906277572	 1.5875519572	-0.1040363012	-0.382703
C	-0.1283052043	 0.0808588271	-0.0797543663	-0.168992
C	-1.4082606079	-0.7664392848	 0.0451421783	 0.036881
C	-1.1059939055	-2.2648832786	 0.014011394	-0.100281
O	-0.3718871109	-2.5786770836	 1.194925719	-0.427337
N	-2.1547227881	-0.4645093086	 1.2593661889	-0.311015
C	-3.3616630975	 0.1714170106	 1.2558309023	 0.412765
C	-4.0198942203	 0.3146832547	 2.6208927601	-0.483358
O	-3.8839906282	 0.6023320123	 0.2416639473	-0.384289
H	 0.5436907514	 2.1432950996	-0.22950524	 0.106628
H	-1.0628377396	 1.8617520534	-0.9233126053	 0.127999
H	-0.8565333979	 1.9217188359	 0.8275277708	 0.118994
H	 0.3822158753	-0.2206605797	-1.0035947596	 0.092016
H	 0.5485334294	-0.1759921058	 0.7429704917	 0.10656
H	-2.0810670194	-0.5282972412	-0.7842694837	 0.115668
H	-2.0505725471	-2.826544161	-0.0214850883	 0.096352
H	-0.5274092554	-2.5067649509	-0.8900903637	 0.092528
H	-0.2469729607	-3.5307083248	 1.2343624426	 0.293454
H	-1.7999029811	-0.8682622352	 2.1114205271	 0.24868
H	-3.4202295484	-0.0825325955	 3.4440382579	 0.110086
H	-4.2205868117	 1.3733819019	 2.8037917082	 0.150712
H	-4.9845884449	-0.199892923	 2.6016988899	 0.148654
36.8891	53.0767	78.7256	98.1604	120.0598	158.895	220.622	243.1893	270.0273	284.4138	353.2671	427.1506	464.8826	514.4744	604.1481	637.2944	648.6203	788.4438	846.2212	923.3194	958.318	984.7585	1010.6281	1028.367	1050.8219	1065.5118	1114.4983	1145.3039	1171.5934	1220.0519	1256.8014	1268.5748	1300.7292	1326.8916	1369.3293	1394.2625	1397.0192	1414.2052	1447.7862	1471.3306	1482.4654	1487.377	1496.2052	1506.4862	1514.4744	1529.04	1772.305	2983.7978	3020.9268	3027.4151	3039.5905	3049.1811	3063.52	3085.3919	3107.9681	3113.4448	3125.5984	3130.0198	3642.8729	3841.6491
CCC(CO)NC(C)=O	CC[C@@H](CO)NC(=O)C	
InChI=1S/C6H13NO2/c1-3-6(4-8)7-5(2)9/h6,8H,3-4H2,1-2H3,(H,7,9)	InChI=1S/C6H13NO2/c1-3-6(4-8)7-5(2)9/h6,8H,3-4H2,1-2H3,(H,7,9)/t6-/m0/s1
