18
gdb 41551	3.27343	1.86973	1.66208	1.3159	72.31	-0.2368	0.0613	0.2981	869.5465	0.151625	-401.886842	-401.880727	-401.879783	-401.91713	25.796	
C	 0.0138079327	 1.5044153898	 0.3927618471	-0.099887
O	 1.3624012203	 1.6397782409	-0.1119199959	-0.292706
C	 1.384526845	 0.25907418	-0.5508809974	 0.126568
C	-0.0475659157	 0.0167317392	-0.0251655167	-0.07953
C	-0.8116258317	-0.455482984	-1.2408507864	-0.049174
C	-0.7574250426	 0.2266531866	-2.5635639506	-0.043116
C	 0.4382743689	 1.1486783649	-2.7540338208	-0.247802
C	 1.2687667381	 0.0394571448	-2.0691358302	-0.029133
N	 0.1253464958	-0.9741762625	-2.277113148	-0.160938
H	-0.0244349375	 1.6838718696	 1.4729441963	 0.10663
H	-0.6911103102	 2.1755440752	-0.1119283452	 0.104278
H	 2.21532092	-0.2904402831	-0.0974844885	 0.082542
H	-0.157634342	-0.6835671825	 0.8039403531	 0.087518
H	-1.6731263419	-1.0988185483	-1.0880181934	 0.093961
H	-1.5969333969	 0.1490930145	-3.2494922204	 0.090929
H	 0.6894198309	 1.2281149806	-3.8137606131	 0.110557
H	 0.4404767334	 2.1425333512	-2.3044373764	 0.119883
H	 2.1906778234	-0.2706892869	-2.5586592234	 0.079421
157.4197	239.7609	331.5404	468.7411	521.8909	615.1777	667.0624	721.2055	769.5619	781.0552	828.9553	855.6541	874.0289	915.784	921.7542	960.7623	991.6122	1012.4679	1044.6182	1047.6866	1053.0797	1074.3761	1092.9244	1099.3326	1148.9965	1169.2503	1188.6067	1211.4846	1228.6847	1255.2274	1274.9745	1309.6532	1326.9247	1348.9958	1357.1442	1376.7482	1414.2569	1500.5275	1520.9379	3023.2543	3057.1924	3068.9439	3075.5213	3100.3879	3122.3113	3129.2427	3140.894	3159.0741
C1OC2C1C1C3CC2N13	C1O[C@H]2[C@@H]1[C@H]1[C@H]3C[C@@H]2N13	
InChI=1S/C7H9NO/c1-4-6-3-2-9-7(3)5(1)8(4)6/h3-7H,1-2H2	InChI=1S/C7H9NO/c1-4-6-3-2-9-7(3)5(1)8(4)6/h3-7H,1-2H2/t3-,4+,5-,6-,7-,8?/m0/s1
