17
gdb 41128	2.93316	2.25268	1.71039	0.5897	76.47	-0.21	-0.0069	0.203	830.9858	0.137884	-380.701539	-380.695334	-380.69439	-380.731504	27.163	
C	 0.0116468963	 1.477637464	-0.2185384138	-0.284111
N	 1.4974473925	 1.5275949385	 0.1165028246	-0.392349
C	 1.3852253475	 0.2248108331	 0.8441397161	 0.192997
C	 1.1742186051	 0.2327892087	 2.335130895	-0.142185
C	 0.2319126614	-0.6965585772	 2.5333546509	-0.100336
C	-0.0722789119	-1.2412021305	 1.1483602658	-0.138179
C	 1.3091447396	-1.2963316052	 0.3483709186	-0.079895
N	 0.5950706047	-0.9449853733	-0.9105519812	-0.351432
C	 0.0323891688	-0.0197135821	 0.1449118249	 0.260879
H	-0.5426019136	 2.1166347805	 0.4736685904	 0.130645
H	-0.2617219804	 1.7248926833	-1.2489941922	 0.116797
H	 2.0989011546	 1.5300704616	-0.7008561452	 0.226212
H	 1.6788076386	 0.8717641506	 3.0461409588	 0.107658
H	-0.2166339045	-1.0371608311	 3.4555274161	 0.105447
H	-0.7911467067	-2.0464172919	 0.999363953	 0.083952
H	 2.0685487913	-2.0884261776	 0.391683921	 0.075347
H	 1.2327195668	-0.4151217214	-1.5147280628	 0.188552
229.042	314.4368	383.0074	428.7613	497.7458	518.1382	622.254	656.4063	685.9369	707.1782	738.5627	763.7182	842.4448	850.5178	864.9562	896.9846	911.7334	942.4916	951.6155	980.6713	1025.1106	1058.5357	1088.2723	1097.6482	1121.5047	1134.5786	1180.6129	1201.6325	1236.5956	1267.3789	1274.334	1296.7759	1304.7086	1326.2208	1349.6283	1486.3516	1615.2275	3021.1699	3049.0412	3109.0929	3128.9379	3222.1264	3247.7027	3365.5546	3528.6546
C1NC23C=CC4C2NC134	C1N[C@]23C=C[C@@H]4[C@H]2N[C@]134	
InChI=1S/C7H8N2/c1-2-6-5-4(1)7(6,9-5)3-8-6/h1-2,4-5,8-9H,3H2	InChI=1S/C7H8N2/c1-2-6-5-4(1)7(6,9-5)3-8-6/h1-2,4-5,8-9H,3H2/t4-,5-,6-,7+/m1/s1
