14
gdb 36021	3.25662	0.90259	0.76469	5.9491	70.46	-0.3447	-0.0199	0.3248	1402.6575	0.100355	-395.764445	-395.75534	-395.754395	-395.799494	30.742	
N	-0.106996098	-1.1758452168	-0.0282176492	-0.277671
C	-0.0657833144	-0.0225698816	 0.0099042003	 0.273249
C	-0.0072750823	 1.436053718	 0.035528693	-0.356738
C	 1.4472203064	 1.9794055879	 0.0497922044	-0.155496
C	 1.4315118644	 3.525183742	-0.0961094259	-0.356737
C	 2.7681375684	 4.0923020094	-0.2493463539	 0.273258
N	 3.8256855072	 4.5345881268	-0.3878264009	-0.277676
C	 2.1414519686	 1.5785632519	 1.2764772311	 0.303367
N	 2.6659580822	 1.2794050254	 2.2607552344	-0.291349
H	-0.5196376859	 1.8210643328	-0.8527926799	 0.167813
H	-0.5516693908	 1.8029457008	 0.9120369473	 0.17819
H	 1.9881303248	 1.5532525984	-0.801376346	 0.173786
H	 0.8370690457	 3.7909702078	-0.9769368348	 0.167813
H	 0.9460092037	 3.9776568572	 0.7749860101	 0.178193
53.2068	75.8003	101.1186	146.3311	228.061	234.5038	303.7315	384.1743	389.7651	468.1431	497.4474	552.3888	650.8363	790.2207	894.8032	916.307	986.9015	1031.8109	1052.4069	1071.703	1204.5527	1233.8256	1282.8004	1355.1474	1355.8739	1374.6944	1460.2692	1470.6595	2368.6959	2372.461	2373.0269	3050.4555	3052.2615	3070.0591	3095.0022	3101.2747
N#CCC(CC#N)C#N	N#CCC(CC#N)C#N	
InChI=1S/C6H5N3/c7-3-1-6(5-9)2-4-8/h6H,1-2H2	InChI=1S/C6H5N3/c7-3-1-6(5-9)2-4-8/h6H,1-2H2
