15
gdb 32037	2.84334	1.46972	0.97487	3.3883	74.64	-0.2144	-0.0428	0.1716	1144.7869	0.112518	-457.824272	-457.816351	-457.815407	-457.857067	29.009	
C	-0.0913524901	 1.4347220676	 0.0096186504	-0.246813
O	-0.0283218611	 0.0016679781	 0.0053267168	-0.249528
C	-1.1673119776	-0.6829736694	 0.0117022503	 0.525366
C	-1.1872867753	-2.0493128003	 0.0079055087	-0.336883
C	-2.458894645	-2.6634527833	 0.0156455914	-0.014758
C	-3.6212972669	-1.9452164179	 0.0263256779	-0.294799
C	-3.611619644	-0.5145292487	 0.0299706678	 0.424426
O	-4.505221981	 0.2822247426	 0.0395623423	-0.336136
O	-2.270098067	 0.0500757798	 0.0218703071	-0.27299
H	 0.947169686	 1.7642559701	 0.0031121279	 0.144381
H	-0.612407876	 1.806186974	-0.8761728728	 0.150511
H	-0.599749676	 1.80142805	 0.9046938622	 0.150533
H	-0.2607717094	-2.6027889071	-0.0004928727	 0.117146
H	-2.5098062961	-3.7481865039	 0.013072658	 0.119457
H	-4.5950665503	-2.4155248416	 0.0324702947	 0.120088
94.6344	146.1423	161.499	203.8739	213.9689	432.3069	434.4873	489.673	500.2391	585.4042	700.3617	724.1495	741.8488	783.269	830.3349	835.697	994.8855	1003.6961	1004.7213	1081.028	1094.26	1175.0262	1183.6755	1211.444	1333.4695	1399.4366	1444.9792	1486.9327	1488.6255	1497.1237	1576.3303	1663.0585	1868.0125	3053.0382	3129.7208	3164.0266	3179.5333	3229.6605	3249.0645
COC1=CC=CC(=O)O1	COc1cccc(=O)o1	
InChI=1S/C6H6O3/c1-8-6-4-2-3-5(7)9-6/h2-4H,1H3	InChI=1S/C6H6O3/c1-8-6-4-2-3-5(7)9-6/h2-4H,1H3
