20
gdb 95895	3.12112	1.11095	0.84587	6.0415	90.3	-0.2002	-0.0167	0.1835	1367.7276	0.172302	-403.18776	-403.178874	-403.17793	-403.221552	32.784	
C	-0.013447172	 1.4452749363	-0.126215072	-0.335713
N	 0.0181929595	 0.0420247778	 0.2241030156	-0.050733
C	-1.2588918378	-0.6640246722	 0.2853394623	-0.152868
C	-1.1244878165	-1.984313137	 1.0512532799	-0.229973
C	-0.0051752061	-2.8571848224	 0.4664613762	-0.3049
C	 1.2424158385	-2.0331458897	 0.2710159335	 0.089977
C	 2.5422901284	-2.6630710862	 0.2279155389	 0.086579
O	 2.7479592193	-3.85982041	 0.3311362876	-0.323576
C	 1.1656618646	-0.67915657	 0.1662447154	 0.005485
H	 0.9952249427	 1.8613020208	-0.075627965	 0.138633
H	-0.4031448433	 1.6090535944	-1.1422625451	 0.126688
H	-0.6506705584	 1.9998533103	 0.5722765944	 0.131846
H	-1.9858811597	-0.006583831	 0.7755751145	 0.109062
H	-1.6309760535	-0.8503944844	-0.7350768666	 0.108661
H	-0.9029559182	-1.7586686245	 2.1006633193	 0.113142
H	-2.0862691691	-2.50564091	 1.0287590186	 0.104842
H	 0.2194942374	-3.701071202	 1.1257771488	 0.127107
H	-0.3278895039	-3.3014693989	-0.4850151911	 0.108913
H	 3.3916564944	-1.9513746209	 0.0857860111	 0.034617
H	 2.0725181237	-0.0914150605	 0.0437276936	 0.11221
88.0831	108.2075	155.5535	187.4761	210.7158	280.8958	345.474	373.4583	440.109	457.4228	502.8254	544.7266	730.8351	786.5833	851.7177	893.8291	910.5798	924.5534	1013.2228	1027.5974	1046.6687	1097.9212	1111.5105	1146.9269	1179.0414	1205.7229	1224.6734	1269.3818	1319.6981	1344.2241	1370.5603	1372.1154	1407.0364	1424.266	1452.5145	1471.2378	1478.8487	1483.5558	1490.4349	1505.7005	1534.5615	1684.3767	1760.7688	2827.206	2974.7992	2991.1121	3013.8257	3039.9808	3057.0096	3057.8762	3081.8438	3091.1123	3123.3007	3158.3328
CN1CCCC(C=O)=C1	CN1CCCC(=C1)C=O	
InChI=1S/C7H11NO/c1-8-4-2-3-7(5-8)6-9/h5-6H,2-4H2,1H3	InChI=1S/C7H11NO/c1-8-4-2-3-7(5-8)6-9/h5-6H,2-4H2,1H3
