20
gdb 15435	3.02529	1.32875	1.02195	2.8068	72.08	-0.2509	0.0833	0.3343	1209.1008	0.175819	-386.114815	-386.105578	-386.104634	-386.149369	33.21	
C	-0.2509403449	 1.3601138606	 0.456409703	-0.388636
C	 0.168102217	-0.0836678536	 0.2422129035	-0.033797
O	 0.2038391795	-0.733304193	 1.506104272	-0.257884
C	 0.5649969137	-2.081036114	 1.4437102654	 0.124018
C	 2.0231016077	-2.4688886615	 1.4179715775	-0.335248
C	 1.1960384784	-2.641622489	 2.6805302968	-0.066547
C	 1.4099023882	-1.7002440409	 3.8518632865	-0.068107
O	 0.1862518135	-1.2883262137	 4.4361116607	-0.428348
H	 0.4607152098	 1.874652896	 1.1084113447	 0.128638
H	-0.2909932347	 1.8900542011	-0.4997516973	 0.119136
H	-1.2397933992	 1.4091163156	 0.9212919989	 0.127777
H	-0.5428569279	-0.6014261953	-0.4212060461	 0.091628
H	 1.1587275107	-0.1407265214	-0.233131764	 0.095844
H	-0.1379903139	-2.7018700361	 0.8868948552	 0.086301
H	 2.3210404699	-3.3451212632	 0.8527618011	 0.113241
H	 2.7483969544	-1.661402445	 1.4203520974	 0.118463
H	 0.8983653009	-3.6502567371	 2.950791119	 0.093193
H	 1.9756523042	-2.2042389121	 4.6424473692	 0.104782
H	 2.003636337	-0.8349609463	 3.5239509734	 0.085275
H	-0.2848554842	-0.8155805411	 3.7393028231	 0.290268
67.2011	80.8618	88.7819	160.5988	204.5928	247.9604	310.105	352.992	427.1669	481.975	504.7499	609.8669	772.9929	818.5881	839.3275	869.4303	905.2422	942.709	1011.9329	1025.6359	1054.214	1067.879	1088.3631	1135.0289	1147.1316	1152.7233	1176.5884	1188.3452	1241.7366	1249.8367	1293.0197	1355.1905	1381.204	1405.3269	1410.3899	1432.8935	1444.9065	1481.9252	1484.636	1499.7028	1503.1594	1528.1917	2976.6344	2999.4866	3010.8814	3045.4242	3071.6489	3091.8211	3120.831	3121.5105	3129.0237	3155.8	3217.4401	3790.123
CCOC1CC1CO	CCO[C@H]1C[C@H]1CO	
InChI=1S/C6H12O2/c1-2-8-6-3-5(6)4-7/h5-7H,2-4H2,1H3	InChI=1S/C6H12O2/c1-2-8-6-3-5(6)4-7/h5-7H,2-4H2,1H3/t5-,6-/m0/s1
