20
gdb 74147	2.42503	1.42753	1.12333	4.75	82.35	-0.2351	-0.0182	0.2169	1177.8627	0.169634	-403.217504	-403.207835	-403.206891	-403.252088	36.155	
C	-0.0276955217	 1.4763293342	 0.0353588573	-0.499234
C	-0.0056224332	-0.0162798199	-0.0279702061	 0.333103
C	-0.0165419141	-0.7942080177	-1.1150375035	-0.342911
C	 0.0138035656	-2.2319279668	-0.725940679	 0.416013
O	 0.0143273165	-3.2170158055	-1.4354853204	-0.395101
N	 0.0435645811	-2.2147547546	 0.6515548938	-0.358112
C	 0.0347931648	-0.8816622037	 1.2332586824	 0.166287
C	 1.3158264605	-0.6288889845	 2.0532253204	-0.410874
C	-1.2176937875	-0.6689148918	 2.1069277746	-0.410872
H	 0.8562280918	 1.8685473649	 0.5523646138	 0.136603
H	-0.0546294731	 1.910166554	-0.9668599343	 0.136001
H	-0.9020637669	 1.840975932	 0.5876215387	 0.136643
H	-0.0433428519	-0.4790429884	-2.1491294536	 0.113515
H	 0.0679610251	-3.0633025696	 1.1918635194	 0.244125
H	 2.2039463762	-0.7785821069	 1.4338937541	 0.13087
H	 1.3333356439	 0.3891669214	 2.4541220829	 0.119436
H	 1.365841362	-1.3198161474	 2.9012623363	 0.117108
H	-1.2098738077	-1.3604304839	 2.9559255192	 0.117106
H	-1.2503481244	 0.3483856614	 2.5087910395	 0.119438
H	-2.1260925272	-0.847041287	 1.5257012444	 0.130856
32.3508	135.735	193.9626	213.1919	241.7044	261.64	264.865	318.6561	358.9825	361.6521	443.1176	538.2233	570.2156	591.014	615.7414	724.6127	743.7394	882.11	930.1724	931.0788	948.2601	987.1291	1014.2879	1014.4485	1068.122	1132.3745	1180.5795	1202.0314	1214.7146	1304.2366	1325.1643	1392.4639	1394.0552	1413.4539	1420.1328	1473.8406	1479.6285	1483.1662	1491.1203	1503.6343	1504.5117	1693.5807	1818.7358	3026.5811	3034.2273	3039.5091	3075.2716	3101.4071	3107.6369	3121.5516	3122.4282	3125.0618	3232.9727	3661.6891
CC1=CC(=O)NC1(C)C	CC1=CC(=O)NC1(C)C	
InChI=1S/C7H11NO/c1-5-4-6(9)8-7(5,2)3/h4H,1-3H3,(H,8,9)	InChI=1S/C7H11NO/c1-5-4-6(9)8-7(5,2)3/h4H,1-3H3,(H,8,9)
