22
gdb 108924	3.63509	1.01261	0.91485	1.4376	89.12	-0.2201	0.023	0.2431	1405.7841	0.194405	-367.211348	-367.202181	-367.201237	-367.245197	35.374	
C	 0.1739170489	 1.4647823024	 0.375605414	-0.374436
C	-0.0262662298	 0.0271535162	-0.1353008838	-0.284091
C	-1.4564999177	-0.4250470759	-0.121932725	 0.331319
C	-2.1777366429	-0.8402213092	-1.1690767689	-0.234972
C	-3.5412493786	-1.3054939006	-0.7621729012	 0.322937
C	-4.7202610566	-1.158797855	-1.687544843	-0.493619
N	-3.4499520013	-2.4881570712	 0.1497963499	-0.371523
C	-3.5853864717	-1.1244910315	 0.7155339281	-0.097905
C	-2.2671654001	-0.5108089644	 1.1668559001	-0.311168
H	 1.2307088154	 1.7462969479	 0.3381306002	 0.112665
H	-0.3892619395	 2.1785885413	-0.2340813264	 0.118395
H	-0.1614529566	 1.5730566041	 1.411843483	 0.119063
H	 0.3696313132	-0.0590725974	-1.1534327554	 0.100721
H	 0.5722118843	-0.6533160957	 0.4871975782	 0.106146
H	-1.8210875833	-0.88613548	-2.1928033595	 0.083486
H	-4.6226444287	-1.8148147985	-2.5606700883	 0.123859
H	-5.6559218862	-1.4156810717	-1.1795306828	 0.111735
H	-4.8077755759	-0.1302876313	-2.0543097471	 0.124653
H	-4.3678522598	-2.9318258177	 0.1887879326	 0.216921
H	-4.5061036769	-0.8689770122	 1.2305190938	 0.079638
H	-1.763396468	-1.1310143486	 1.919099351	 0.113942
H	-2.4206940083	 0.4779485091	 1.6187433104	 0.102233
59.2287	124.6122	198.8647	205.2817	237.8934	241.2789	297.7312	378.2638	420.5426	498.0846	504.3218	585.4629	631.6957	733.9954	781.6513	811.9795	871.3342	872.7772	906.3413	932.6972	947.3733	965.7119	1001.7564	1051.8093	1062.4541	1071.9806	1096.5893	1121.5544	1152.0959	1169.8671	1196.8683	1255.9148	1289.3242	1317.4271	1342.5384	1350.4711	1366.93	1406.7773	1413.1189	1433.2722	1465.7897	1477.4166	1485.1084	1498.589	1501.0584	1506.9308	1701.6117	3006.6578	3018.8395	3023.1794	3036.2353	3052.5665	3059.8191	3084.8786	3096.667	3107.3538	3107.9012	3156.6229	3183.5499	3455.2963
CCC1=CC2(C)NC2C1	CCC1=C[C@@]2(C)N[C@H]2C1	
InChI=1S/C8H13N/c1-3-6-4-7-8(2,5-6)9-7/h5,7,9H,3-4H2,1-2H3	InChI=1S/C8H13N/c1-3-6-4-7-8(2,5-6)9-7/h5,7,9H,3-4H2,1-2H3/t7-,8+/m0/s1
