18
gdb 58551	2.15839	1.44305	1.42232	0.5532	68.25	-0.2605	0.0093	0.2698	1065.1256	0.145754	-476.214559	-476.205098	-476.204153	-476.248645	34.938	
C	-0.0966885842	 1.5635119176	-0.1445042258	-0.442599
C	-0.0205542775	 0.041560224	-0.0322679248	 0.067379
O	 0.7673457266	-0.3757110263	 1.0763884943	-0.432873
C	-1.4116408679	-0.6136496425	 0.0379324242	 0.264956
O	-2.2363483548	-0.250585246	-1.0486581661	-0.478666
C	-1.4346752872	-2.1345642044	 0.3023818489	-0.118413
O	-2.097093825	-1.9034953359	 1.595597535	-0.248203
C	-2.0941970278	-0.550747652	 1.4030193071	 0.363605
N	-2.5193012234	 0.3969196799	 2.1106798379	-0.559597
H	 0.9134276061	 1.9809260064	-0.1538453436	 0.128781
H	-0.5994117508	 1.8629897182	-1.0681709639	 0.123412
H	-0.645976771	 1.9873042053	 0.7037091561	 0.143941
H	 0.4853623592	-0.3649441263	-0.9163498126	 0.099583
H	 0.4459881353	 0.0951939956	 1.8548312266	 0.291377
H	-2.6453150932	 0.5955820223	-0.8342633439	 0.298035
H	-2.07884607	-2.6996732611	-0.3720775653	 0.129406
H	-0.46501418	-2.6091713032	 0.4514510791	 0.137717
H	-2.9561661243	 0.0632611282	 2.9722220269	 0.232159
70.9798	117.7587	141.7065	212.3939	232.4544	258.0019	292.7548	346.1003	383.0589	400.3673	448.8491	461.8256	548.352	677.0559	724.2155	765.0947	870.5541	892.1161	935.2952	938.0544	970.4337	1032.6972	1058.3533	1077.4638	1132.5314	1156.8244	1203.366	1228.7992	1251.1204	1301.4959	1327.1795	1375.7345	1384.5917	1401.3397	1417.3201	1488.7311	1496.2233	1505.8207	1811.4583	3038.126	3044.2629	3088.5926	3114.8386	3125.3434	3163.909	3468.6733	3788.3608	3808.1477
CC(O)C1(O)COC1=N	C[C@@H](O)[C@@]1(O)CO[C]1[NH]	
InChI=1S/C5H9NO3/c1-3(7)5(8)2-9-4(5)6/h3,6-8H,2H2,1H3	InChI=1S/C5H9NO3/c1-3(7)5(8)2-9-4(5)6/h3,6-8H,2H2,1H3/t3-,5+/m1/s1
