23
gdb 121564	6.31667	0.3804	0.37298	1.5033	93.	-0.2412	0.0624	0.3036	2967.6713	0.203305	-388.271159	-388.259371	-388.258427	-388.311576	40.17	
C	-0.0570433818	 1.469886486	-0.5290406191	-0.385216
C	-0.0468690911	 0.0464992452	 0.0346146812	-0.160581
C	-1.4342923891	-0.6017093548	 0.047004713	-0.148651
C	-1.4174913595	-2.0348161286	 0.6159018042	-0.358116
C	-2.7333058692	-2.6651094035	 0.6345777115	 0.036173
C	-3.8338289733	-3.1551603075	 0.6473928069	 0.084408
C	-5.1532646354	-3.7744106155	 0.6432492738	-0.3241
C	-5.3074313441	-4.8239789949	-0.4626473668	-0.062543
O	-6.6221624373	-5.345200752	-0.3606793336	-0.415881
H	 0.9458304952	 1.9081141417	-0.5257455101	 0.111959
H	-0.4235411676	 1.4839663352	-1.5614670295	 0.115037
H	-0.7086307861	 2.1241584748	 0.0606479799	 0.115587
H	 0.6396160061	-0.5766551062	-0.5542298295	 0.094657
H	 0.3568145419	 0.0590118801	 1.055942179	 0.095331
H	-2.1260714007	 0.0084253939	 0.6403036655	 0.10513
H	-1.8435286472	-0.627362626	-0.9702584453	 0.103504
H	-0.7240121974	-2.6496317352	 0.0258012445	 0.122226
H	-1.0051036241	-2.0148532791	 1.6340436726	 0.123607
H	-5.3560473071	-4.2574855515	 1.6071281866	 0.133626
H	-5.9345506876	-3.0160531919	 0.5089207885	 0.133578
H	-5.1306800938	-4.3519513823	-1.4407031136	 0.095899
H	-4.5467082961	-5.6078010142	-0.330367893	 0.09636
H	-6.737626825	-6.0089029636	-1.0464655066	 0.288006
6.6105	59.311	60.9609	107.024	109.3227	122.3902	225.0152	239.491	243.5355	280.6865	310.1801	366.7621	405.8298	497.8984	526.3205	734.2362	790.6974	794.5834	808.5942	907.1285	932.4288	998.8425	1008.7537	1061.316	1079.2269	1087.6989	1121.1723	1130.1187	1164.5083	1221.6064	1237.6693	1241.6439	1277.3799	1303.7932	1311.7899	1327.5081	1333.5695	1360.2623	1394.1531	1413.5829	1453.9767	1473.3368	1479.2436	1485.7129	1497.8807	1499.7249	1511.987	1527.6157	2368.6844	2981.9773	3005.6848	3010.8814	3012.2364	3026.8717	3028.2211	3031.0505	3032.833	3037.6899	3063.4655	3074.3837	3096.9363	3101.6404	3835.0721	6.6065	59.311	60.9608	107.0242	109.3228	122.3901	225.0153	239.4936	243.5356	280.6866	310.1804	366.7625	405.8301	497.8987	526.321	734.2362	790.6974	794.5833	808.5943	907.1285	932.4289	998.8426	1008.7538	1061.316	1079.2272	1087.6991	1121.1723	1130.1188	1164.5084	1221.6066	1237.6693	1241.6439	1277.38	1303.7934	1311.79	1327.5081	1333.5696	1360.2623	1394.1531	1413.5829	1453.9768	1473.3369	1479.2437	1485.713	1497.8807	1499.7249	1511.987	1527.616	2368.6846	2981.9774	3005.6848	3010.8814	3012.2364	3026.8717	3028.2211	3031.0505	3032.833	3037.6898	3063.4655	3074.3836	3096.9363	3101.6404	3835.0726
CCCCC#CCCO	CCCCC#CCCO	
InChI=1S/C8H14O/c1-2-3-4-5-6-7-8-9/h9H,2-4,7-8H2,1H3	InChI=1S/C8H14O/c1-2-3-4-5-6-7-8-9/h9H,2-4,7-8H2,1H3
