20
gdb 83406	2.58635	1.40473	1.12892	2.8311	80.8	-0.2342	-0.0158	0.2184	1172.2307	0.169313	-403.127435	-403.118159	-403.117215	-403.161632	34.355	
C	 0.0335877943	 1.7546170729	 0.3688757999	-0.324739
N	-0.0145506382	 0.3002598978	 0.4364340032	-0.122337
C	 0.9837726262	-0.5478224113	-0.1493918704	-0.089647
C	 2.4231069018	-0.0181215782	-0.0144491071	-0.244452
C	 2.2286720084	 0.083425479	 1.5287513487	-0.305775
C	 0.7947265954	-0.4566489816	 1.3738917184	 0.234539
C	 0.1698329979	-1.4458308579	 2.2949156367	 0.298215
C	-1.2559582493	-1.8694689055	 2.0050791522	-0.479426
O	 0.803051861	-1.8862302951	 3.23229882	-0.314482
H	 1.0374374714	 2.1912077683	 0.4511630194	 0.11446
H	-0.4000077834	 2.0703574598	-0.5846514497	 0.128506
H	-0.5832957086	 2.1621198896	 1.1751075134	 0.129312
H	 0.6573371821	-1.3349899668	-0.8221376228	 0.100873
H	 3.1621199549	-0.7722471091	-0.291040933	 0.115225
H	 2.6475405716	 0.9035004057	-0.5591139587	 0.10543
H	 2.8492698702	-0.6198203034	 2.0832855031	 0.135123
H	 2.3227760733	 1.072471108	 1.9850530781	 0.102478
H	-1.9337174936	-1.0265252405	 2.1744044937	 0.145184
H	-1.3794351192	-2.1557401507	 0.9565255962	 0.138025
H	-1.5247041763	-2.6984432412	 2.6608818986	 0.133489
64.3596	108.5041	145.2521	165.6697	190.8032	268.0928	284.8195	359.2295	407.5788	496.4318	552.4517	587.0934	631.7325	725.5138	769.235	795.9211	881.8276	925.3304	949.8358	962.5062	1003.7757	1015.7827	1055.2228	1092.6925	1102.2403	1123.6069	1167.8618	1184.5463	1214.0424	1226.2932	1250.7283	1279.6696	1311.3366	1382.1874	1415.9088	1452.2529	1457.5792	1468.8087	1475.2592	1488.0633	1506.0405	1508.4101	1783.037	3017.2451	3048.4456	3061.1238	3071.2251	3084.7649	3110.8823	3112.4312	3116.4308	3145.7299	3154.6283	3159.2335
CN1C2CCC12C(C)=O	CN1[C@H]2CC[C@@]12C(=O)C	
InChI=1S/C7H11NO/c1-5(9)7-4-3-6(7)8(7)2/h6H,3-4H2,1-2H3	InChI=1S/C7H11NO/c1-5(9)7-4-3-6(7)8(7)2/h6H,3-4H2,1-2H3/t6-,7-,8?/m0/s1
