17
gdb 36449	2.56579	1.36647	0.9861	1.5909	73.34	-0.2566	0.041	0.2976	1186.4394	0.13368	-421.74402	-421.7354	-421.734456	-421.77778	31.825	
C	 0.0104626759	-0.3729245276	 1.3557974676	-0.447707
C	 0.0601357609	 0.314101028	 0.3706308694	 0.296921
C	 0.15482214	 1.1659925983	-0.8077646155	-0.371163
C	 1.4089085483	 2.0453367304	-0.7922154394	 0.055727
O	 1.4776615774	 2.8839718145	-1.9699574714	-0.295405
C	 1.6070467128	 4.0967915789	-1.1908636998	-0.155014
C	 1.4287407312	 3.2934441237	 0.0925411047	 0.360711
C	 0.7679116062	 3.5991139733	 1.3590303171	-0.261458
O	 2.1969828541	 3.4517573802	 1.2580648383	-0.255998
H	-0.0397710989	-0.9903438256	 2.2183601593	 0.201616
H	 0.1809219872	 0.5535348389	-1.717659267	 0.145918
H	-0.7294555241	 1.8092644263	-0.8895699751	 0.132286
H	 2.3083934394	 1.4263880885	-0.6804179572	 0.104346
H	 2.5979413418	 4.555645348	-1.2948309667	 0.119364
H	 0.8321388398	 4.8316612344	-1.4374677524	 0.112806
H	 0.4188919731	 4.6124918029	 1.5530629783	 0.119448
H	 0.2585315248	 2.8077659266	 1.9047782397	 0.137603
72.3779	78.3606	148.7462	202.5566	283.8862	328.4423	356.1601	398.2058	440.6287	530.8078	586.6679	634.1557	651.5018	797.141	866.5728	881.139	923.517	965.7908	977.8736	1004.2687	1014.8105	1089.182	1094.0873	1128.0742	1150.0828	1166.1794	1193.943	1206.5927	1263.1664	1311.6369	1335.4359	1381.5514	1455.5434	1469.9158	1514.0518	1541.4368	2238.3684	3020.2033	3028.1651	3032.1047	3067.6823	3070.5356	3088.8543	3183.1123	3505.0319
C#CCC1OCC11CO1	C#CC[C@H]1OC[C@]21CO2	
InChI=1S/C7H8O2/c1-2-3-6-7(4-8-6)5-9-7/h1,6H,3-5H2	InChI=1S/C7H8O2/c1-2-3-6-7(4-8-6)5-9-7/h1,6H,3-5H2/t6-,7-/m1/s1
