18
gdb 48245	2.62296	1.17881	0.85359	4.3434	73.67	-0.2404	-0.0419	0.1985	1323.8213	0.144755	-439.061205	-439.051769	-439.050825	-439.097241	32.208	
O	 2.5270658156	 0.148972665	-0.9439105286	-0.233261
C	 2.5840841252	 1.2037413182	-0.3688393944	 0.156529
C	 1.3574181586	 2.0423832906	-0.0165783935	-0.150286
C	 0.1350457347	 1.1263317546	 0.0755309218	 0.176363
O	-0.8208662472	 1.2060222151	-0.6457921732	-0.237976
N	 1.5573658713	 2.7111536944	 1.2543657363	-0.100653
C	 0.548333393	 3.7100229465	 1.6836256353	-0.162432
C	 1.6929097917	 4.5597089329	 2.2820291591	-0.232851
C	 2.6391506916	 3.7202584468	 1.3920504547	-0.165491
H	 3.5565228071	 1.6439616642	-0.0586914079	 0.092934
H	 1.1840207442	 2.744692173	-0.858471684	 0.096418
H	 0.199479575	 0.383612811	 0.8984905926	 0.097294
H	 0.0574859307	 4.2102019415	 0.834128299	 0.103574
H	-0.2213633447	 3.3235642713	 2.3581701084	 0.11518
H	 1.6634778075	 5.6334956482	 2.0992452773	 0.114263
H	 1.8440553799	 4.373840575	 3.3464011617	 0.12172
H	 3.5671314073	 3.3472874765	 1.8352928402	 0.11361
H	 2.8757301482	 4.230435425	 0.4445221453	 0.095065
48.3159	56.2363	63.9958	140.1092	160.7503	223.2971	258.1405	358.1081	390.748	454.0507	591.9446	699.5941	778.8809	845.7477	852.0272	921.2217	945.3824	979.8015	1027.1604	1034.9253	1082.3493	1110.0661	1141.7277	1144.9187	1215.1789	1217.6624	1219.9253	1265.7038	1273.0765	1293.7842	1306.6257	1358.4167	1405.912	1427.3232	1488.1424	1503.0996	1529.9732	1820.5798	1849.7638	2890.2	2899.7825	2915.6793	2974.5252	2987.0762	3071.9307	3075.3806	3092.4399	3148.6012
O=CC(C=O)N1CCC1	O=CC(C=O)N1CCC1	
InChI=1S/C6H9NO2/c8-4-6(5-9)7-2-1-3-7/h4-6H,1-3H2	InChI=1S/C6H9NO2/c8-4-6(5-9)7-2-1-3-7/h4-6H,1-3H2
