14
gdb 23650	3.77901	1.78569	1.22185	2.3185	66.71	-0.2515	-0.0303	0.2211	921.6132	0.107942	-386.75135	-386.744562	-386.743618	-386.782744	25.073	
C	-0.0102225616	 1.5199812293	 0.0111123453	-0.49544
C	-0.0013809062	 0.0133459725	 0.0134257852	 0.278169
C	-0.0906461264	-0.7186732536	-1.1738222574	-0.062887
N	-0.0882542104	-2.0519185465	-1.2416954569	-0.255982
C	 0.005408727	-2.7350939764	-0.1026850699	-0.105724
C	 0.0985722425	-2.0946137455	 1.1277182211	 0.256561
F	 0.1906993673	-2.8226499056	 2.2437327675	-0.075583
C	 0.0964127705	-0.7134513702	 1.2019725131	-0.288687
H	 0.9066379644	 1.9243302244	 0.4537752288	 0.13843
H	-0.0928449154	 1.9115638658	-1.0058198725	 0.132758
H	-0.8506886078	 1.9142546827	 0.5926997298	 0.138421
H	-0.1684609109	-0.1930804985	-2.1231197811	 0.104495
H	 0.0078207676	-3.82048654	-0.1526063582	 0.121204
H	 0.1696286095	-0.2246765584	 2.1679733452	 0.114265
67.7644	208.1379	246.3939	286.6955	436.6283	468.6069	526.6459	545.6469	571.1793	727.9778	733.1252	901.471	931.6925	961.2172	970.0893	1021.4085	1044.8183	1066.614	1164.2529	1199.5901	1286.5952	1315.3561	1335.2792	1415.233	1461.7805	1483.0376	1484.8562	1505.5026	1616.269	1642.1806	3034.8245	3089.9241	3119.6665	3150.7615	3170.4124	3189.503
CC1=CN=CC(F)=C1	Cc1cncc(F)c1	
InChI=1S/C6H6FN/c1-5-2-6(7)4-8-3-5/h2-4H,1H3	InChI=1S/C6H6FN/c1-5-2-6(7)4-8-3-5/h2-4H,1H3
