17
gdb 8548	4.0942	2.29573	1.89533	0.8025	67.17	-0.2109	0.0643	0.2752	758.104	0.143114	-363.794148	-363.787746	-363.786802	-363.824214	25.95	
C	 0.0421581777	 1.5559236421	 0.1213252742	-0.490323
C	-0.0799571315	 0.0674856843	-0.0415686302	 0.433236
C	 0.3198090444	-0.6578938436	-1.3451411544	-0.211882
N	-0.7593923057	-1.6952232936	-1.1598422229	-0.16258
C	-0.3321266258	-2.6744790617	-0.0935757346	-0.185642
C	-0.6179070487	-1.6518052751	 1.0187901099	 0.09573
O	 0.4357800232	-0.6654568863	 1.1077778669	-0.340928
C	-1.3558813009	-0.8186887595	-0.0520910339	-0.106476
H	 1.0982636938	 1.8421449422	 0.1817426073	 0.132191
H	-0.4056568517	 2.0778998981	-0.7299626667	 0.121311
H	-0.4508815298	 1.8886049155	 1.0392933706	 0.127566
H	 0.1006959408	-0.0666609598	-2.2411074847	 0.104899
H	 1.3408873545	-1.0461962503	-1.4030090059	 0.106789
H	-1.0325142199	-3.5166872412	-0.0791991635	 0.108332
H	 0.6920088629	-3.0490732571	-0.1795428107	 0.109054
H	-0.9792895082	-1.964243815	 2.0011900817	 0.079452
H	-2.3995863652	-0.511997649	-0.0890417032	 0.079272
192.4326	229.26	268.0705	372.783	399.7068	468.1623	586.8827	690.5315	775.0017	800.3623	838.2323	846.3929	873.1448	901.6642	920.2479	970.6217	977.0904	994.4313	1011.7598	1059.2118	1153.9386	1155.1076	1178.4133	1188.8908	1199.9854	1211.2265	1239.1915	1259.7378	1302.837	1322.5659	1352.7745	1411.7919	1474.4627	1478.709	1486.8652	1490.6461	3032.2734	3035.9385	3039.0627	3080.9325	3096.0831	3100.7258	3103.5743	3116.4717	3131.3837
CC12CN3CC(O1)C23	C[C@@]12CN3C[C@@H](O1)[C@@H]23	
InChI=1S/C6H9NO/c1-6-3-7-2-4(8-6)5(6)7/h4-5H,2-3H2,1H3	InChI=1S/C6H9NO/c1-6-3-7-2-4(8-6)5(6)7/h4-5H,2-3H2,1H3/t4-,5+,6+/m1/s1
