25
gdb 119149	2.18435	1.08667	0.92421	0.8864	89.64	-0.2507	0.0806	0.3313	1480.771	0.226937	-389.472592	-389.461709	-389.460765	-389.508523	40.447	
C	-0.4185376597	 1.3222182367	-0.080375229	-0.222837
O	-0.3646803923	-0.0782440657	-0.1900712137	-0.233871
C	 0.6971609179	-0.5269001054	-1.0115088725	-0.133381
C	 0.7237814691	-2.0403879633	-1.0011125546	 0.372733
C	-0.2417522068	-2.699575587	-1.9589334347	-0.309218
C	 1.2339844158	-2.6930500134	-2.2658771749	-0.320462
C	 1.0540640149	-2.6430024811	 0.3742600447	-0.035221
C	 0.5838147119	-4.0904521272	 0.5684363109	-0.412552
C	 2.5581492485	-2.5309198039	 0.6793583362	-0.386189
H	 0.5063427708	 1.7366708163	 0.3527871472	 0.101086
H	-0.580753968	 1.8047868188	-1.0579398289	 0.100802
H	-1.2566362718	 1.5690429513	 0.5762528543	 0.125443
H	 0.5612088515	-0.1575531244	-2.0422704593	 0.077608
H	 1.6518242721	-0.1109229362	-0.6462163196	 0.083335
H	-0.6946622447	-3.6432992183	-1.6829155841	 0.110969
H	-0.8919199451	-2.0515321983	-2.5369520458	 0.108936
H	 1.5990081846	-2.0591936361	-3.06778593	 0.106002
H	 1.7723499438	-3.6301553193	-2.1705947167	 0.110496
H	 0.5149421626	-2.0274501502	 1.10447964	 0.090373
H	 0.8759505349	-4.4481498802	 1.5611408341	 0.109332
H	-0.5032561515	-4.1796475841	 0.4931413551	 0.118735
H	 1.033385062	-4.7716974212	-0.1638865358	 0.110697
H	 2.9241921726	-1.5045660663	 0.5795525266	 0.109769
H	 2.7719424985	-2.8583775523	 1.7021707362	 0.107136
H	 3.1441194185	-3.1590774992	-0.0011798759	 0.110278
61.0289	82.0028	106.8783	163.1892	220.1647	232.9595	246.5789	258.5399	283.3619	339.9767	360.7191	384.5738	420.4112	472.3851	575.3692	683.2773	786.0749	861.676	906.9108	920.5954	933.0799	947.8456	960.3761	970.1353	1006.2655	1045.9244	1063.3704	1081.3381	1115.5009	1142.1497	1152.5795	1182.1712	1186.976	1190.5405	1225.9067	1252.9357	1278.8085	1352.3637	1357.8567	1379.2144	1400.6761	1417.071	1426.5692	1469.4839	1480.2903	1486.3317	1488.591	1493.2823	1499.4637	1507.0876	1510.6079	1515.4109	1524.925	2945.9447	2966.2301	2974.7607	3005.9323	3027.3522	3030.5202	3035.9911	3089.1817	3098.1982	3102.276	3110.2114	3110.8126	3125.677	3143.6791	3204.1002	3231.2363
COCC1(CC1)C(C)C	COCC1(CC1)C(C)C	
InChI=1S/C8H16O/c1-7(2)8(4-5-8)6-9-3/h7H,4-6H2,1-3H3	InChI=1S/C8H16O/c1-7(2)8(4-5-8)6-9-3/h7H,4-6H2,1-3H3
