22
gdb 5857	4.06697	0.9551	0.94357	0.1924	86.93	-0.2408	0.0571	0.2979	1402.8308	0.196653	-313.065323	-313.054593	-313.053649	-313.101962	38.343	
C	 0.1083288876	 1.539223687	 0.0093080803	-0.499037
C	 0.0555056712	 0.0835364137	 0.0019493243	 0.095766
C	 0.0238902444	-1.1209249271	-0.0041785765	 0.039861
C	-0.0197939573	-2.5797958101	-0.0115748766	-0.363596
C	-1.4504543754	-3.1959437616	-0.0012851757	 0.267607
C	-2.223814402	-2.7426429338	-1.2505379698	-0.398222
C	-1.3059781477	-4.7272322284	-0.010864243	-0.404627
C	-2.1998977814	-2.7561392384	 1.2672191463	-0.398221
H	 1.1433642448	 1.8991801952	 0.0011335805	 0.146153
H	-0.394201691	 1.9630066306	-0.8674087631	 0.145022
H	-0.3769225335	 1.95348186	 0.9001994161	 0.145023
H	 0.5143031429	-2.9535369053	-0.8958405838	 0.116831
H	 0.5309732304	-2.9629288936	 0.8583299294	 0.116831
H	-1.715283222	-3.0622424909	-2.1673292166	 0.104812
H	-3.2311845134	-3.1724856405	-1.2607238593	 0.105707
H	-2.3171357336	-1.6532510475	-1.280874358	 0.123116
H	-0.7550385491	-5.0811114372	 0.8678421268	 0.107317
H	-2.2887957725	-5.2103572154	-0.0041233152	 0.108707
H	-0.7718547549	-5.0716187113	-0.9036127543	 0.107317
H	-2.2925231864	-1.6671455254	 1.3109972001	 0.123115
H	-3.2069320417	-3.1861788244	 1.2919294163	 0.105707
H	-1.6740730095	-3.0854908155	 2.1707066516	 0.104812
15.8119	67.1435	92.2259	204.6066	230.5895	251.812	267.9336	271.7471	308.1585	322.2276	388.0016	389.8066	402.086	404.9485	519.7035	744.6956	781.0378	892.1409	908.2053	940.2724	940.6816	962.2532	1048.5323	1053.4815	1054.582	1059.353	1166.7906	1181.825	1228.4749	1263.597	1307.1299	1340.1804	1396.8888	1398.2117	1415.6942	1428.5327	1465.2081	1479.26	1479.6967	1480.2366	1485.5033	1488.0183	1505.6067	1506.4833	1516.7404	2367.7299	3004.027	3020.882	3024.5128	3024.6385	3031.9184	3035.5792	3083.9712	3084.0086	3087.1103	3090.2084	3091.7813	3097.3605	3108.403	3112.5508
CC#CCC(C)(C)C	CC#CCC(C)(C)C	
InChI=1S/C8H14/c1-5-6-7-8(2,3)4/h7H2,1-4H3	InChI=1S/C8H14/c1-5-6-7-8(2,3)4/h7H2,1-4H3
