20
gdb 85929	2.56757	1.39922	1.16423	2.1434	76.69	-0.2633	0.0259	0.2893	1170.9241	0.169001	-440.32663	-440.317198	-440.316254	-440.360578	35.536	
C	 0.020343408	 1.5622548051	-0.0896114254	-0.399609
C	 0.0665390762	 0.0496700833	 0.0380673867	 0.029931
O	 0.7402445878	-0.5304482714	-1.0760339985	-0.295889
C	 1.4457916065	-1.6716015054	-0.6252110148	 0.429131
C	 0.6092200819	-2.9424249656	-0.7707904753	-0.413324
C	 2.7809186101	-1.7423571388	-1.3455068196	-0.415847
O	 1.6903069344	-1.4392653708	 0.7839899397	-0.26304
C	 0.8708638507	-0.449791292	 1.2241186997	 0.375912
N	 0.7860438356	-0.0133857806	 2.4043546981	-0.545543
H	 1.0307343455	 1.9653380475	-0.1960218755	 0.126333
H	-0.5704893359	 1.8545392865	-0.9614947026	 0.123676
H	-0.4324889796	 1.9844900252	 0.8104839802	 0.146974
H	-0.9580826408	-0.3477013802	 0.115057187	 0.100868
H	 0.4020601062	-3.1307843347	-1.8273794131	 0.129731
H	 1.1431489068	-3.8010490204	-0.355461002	 0.129178
H	-0.3420335621	-2.8386617732	-0.2420194837	 0.125469
H	 3.3408036754	-0.821046026	-1.1731279677	 0.131527
H	 3.3658487082	-2.5918628611	-0.9844564059	 0.128447
H	 2.6144792885	-1.859435563	-2.4193394959	 0.131812
H	 1.4182454768	-0.5168418945	 3.0281025486	 0.224263
83.7629	90.507	196.2298	217.6615	235.7252	248.9986	314.1215	323.489	337.3567	409.6132	500.5933	512.7734	601.6382	622.9792	694.5524	790.9634	853.6589	875.2378	889.1041	922.6688	941.1239	996.1621	1002.6758	1066.2206	1082.5911	1137.8381	1142.0355	1183.2212	1233.3859	1274.0837	1321.7034	1339.9933	1386.2593	1402.6085	1405.4077	1415.9802	1472.9193	1476.4929	1484.2321	1494.2754	1495.3255	1498.5726	1788.0646	2976.7821	3049.1166	3052.5234	3056.789	3127.0782	3128.7408	3129.9547	3136.7121	3140.1031	3142.717	3479.7117
CC1OC(C)(C)OC1=N	C[C@H]1OC(C)(C)O[C]1[NH]	
InChI=1S/C6H11NO2/c1-4-5(7)9-6(2,3)8-4/h4,7H,1-3H3	InChI=1S/C6H11NO2/c1-4-5(7)9-6(2,3)8-4/h4,7H,1-3H3/t4-/m1/s1
