16
gdb 55058	4.27971	0.85914	0.78228	7.5833	71.3	-0.2616	0.	0.2616	1414.857	0.124356	-434.085816	-434.076679	-434.075735	-434.120728	32.383	
N	 0.2608870765	 1.0893778889	-0.7855641677	-0.533174
C	 0.0345429177	 0.2609955723	 0.2755858944	 0.447437
O	 0.8483966991	 0.1024226274	 1.1651473778	-0.359661
C	-1.3256595992	-0.3946205737	 0.260618018	-0.158609
N	-1.3970735785	-1.766882027	 0.7911038831	-0.297831
C	-2.078402838	-0.707120883	 1.5178460557	-0.015314
C	-1.5407782964	-0.3761226318	 2.9023761333	-0.351106
C	-2.145463823	-1.2338622382	 3.9200027714	 0.259059
N	-2.6436663712	-1.9114860663	 4.7124712024	-0.31023
H	 1.1727401425	 1.5105799668	-0.8626217692	 0.268121
H	-0.3459331075	 1.1175344049	-1.5859897497	 0.262102
H	-1.9456771356	-0.1565979335	-0.6022580893	 0.085766
H	-2.0481195663	-2.325492982	 0.2466955792	 0.245957
H	-3.1622009554	-0.6465762526	 1.4326392476	 0.109044
H	-0.4549572611	-0.4955776637	 2.8978045468	 0.201088
H	-1.7582052036	 0.6689765214	 3.1515470864	 0.147351
44.5226	68.8514	114.6837	191.7373	228.7841	253.5471	335.83	392.7924	404.2962	438.0199	544.9399	580.7928	649.4572	765.7504	791.8483	847.9709	883.2101	933.012	961.5631	986.0605	1017.292	1080.4439	1111.3534	1185.4778	1207.3147	1256.9522	1269.3925	1301.6367	1319.6601	1435.3868	1461.1557	1482.042	1620.1561	1794.5958	2362.2785	3052.5048	3110.0942	3117.1324	3129.3577	3517.4293	3601.1851	3735.3592
NC(=O)C1NC1CC#N	NC(=O)[C@H]1N[C@H]1CC#N	
InChI=1S/C5H7N3O/c6-2-1-3-4(8-3)5(7)9/h3-4,8H,1H2,(H2,7,9)	InChI=1S/C5H7N3O/c6-2-1-3-4(8-3)5(7)9/h3-4,8H,1H2,(H2,7,9)/t3-,4-/m0/s1
