15
gdb 125095	2.71685	1.5141	0.99733	4.3722	69.9	-0.2602	-0.0461	0.2141	1120.6967	0.113877	-450.165446	-450.157076	-450.156132	-450.199084	30.066	
C	 0.1818474099	 1.5132656166	 0.1176700888	-0.502036
C	 0.0418498123	 0.0350546322	-0.0198082684	 0.237717
C	-0.0452010445	-0.7420365679	-1.1615306136	 0.197376
N	-0.1366273606	-2.0148794682	-0.6775375963	-0.270595
N	-0.128482188	-2.0326182815	 0.6603352069	-0.102773
N	-0.0036273382	-0.7976013839	 1.0609169224	-0.24372
C	-0.0362042042	-0.3813709089	-2.5940430409	 0.316089
N	 0.2794981474	-1.4179053432	-3.4525238879	-0.549362
O	-0.3259498317	 0.7305680932	-2.9899043313	-0.339841
H	 1.1766142671	 1.7776609794	 0.4922718855	 0.139898
H	 0.0226565675	 1.998748213	-0.8451329798	 0.16329
H	-0.5472310263	 1.8939955619	 0.8387196197	 0.14623
H	-0.3291719614	-2.8670649566	-1.180807981	 0.282332
H	 0.923640452	-2.1278454623	-3.1382469754	 0.257785
H	 0.3951398687	-1.1336547939	-4.4152388288	 0.267611
67.947	77.5383	168.4656	176.1674	281.5755	311.652	421.4751	443.459	503.4773	560.462	594.741	666.4914	693.6321	708.0836	730.3035	796.9499	993.8936	1035.503	1069.7657	1088.7729	1106.058	1152.64	1222.3431	1300.0386	1324.2066	1394.9328	1411.4216	1482.1437	1488.4225	1492.7555	1604.8654	1626.5411	1785.745	3045.9171	3103.3913	3159.4964	3564.388	3647.3162	3683.2062
CC1=C(NN=N1)C(N)=O	Cc1c([nH]nn1)C(=O)N	
InChI=1S/C4H6N4O/c1-2-3(4(5)9)7-8-6-2/h1H3,(H2,5,9)(H,6,7,8)	InChI=1S/C4H6N4O/c1-2-3(4(5)9)7-8-6-2/h1H3,(H2,5,9)(H,6,7,8)
