14
gdb 23488	3.79912	1.50962	1.30045	1.6104	68.96	-0.2432	-0.0278	0.2154	941.7523	0.102025	-432.764303	-432.757704	-432.75676	-432.795285	26.038	
O	-0.1785339455	 1.3092399584	-0.1004650463	-0.385555
N	-0.0183948593	-0.0856735361	-0.0877010728	-0.281672
C	-1.136642837	-0.6776897177	-0.053831905	 0.488876
C	-1.4489677854	-2.1150149646	 0.1476515922	-0.136521
C	-2.8001300344	-1.7275800973	 0.6779045436	-0.049579
C	-2.6151976426	-0.2850335161	 0.0846960243	-0.150924
N	-3.1775226657	-0.3473059285	-1.2849415779	-0.178295
C	-3.1436316107	-1.5813665132	-1.5822193019	 0.047047
N	-2.7407307911	-2.5104893484	-0.5538701109	-0.158341
H	 0.7340918684	 1.6177736375	-0.1125400905	 0.310149
H	-0.7757559711	-2.9213755012	 0.4025905323	 0.125366
H	-3.3471676313	-2.0732337448	 1.546487037	 0.119674
H	-2.8745956847	 0.6151196114	 0.6332293614	 0.109274
H	-3.4106885796	-1.9838082095	-2.5531951855	 0.140501
121.6339	192.5123	291.393	392.1402	410.8765	486.3323	555.4771	663.9877	686.7888	711.0967	794.0886	826.2792	833.2526	889.6382	941.1076	951.7076	957.3634	960.886	985.3409	1012.3474	1054.1222	1126.9121	1162.193	1199.4352	1237.3949	1257.2361	1277.9	1315.8485	1417.6724	1666.887	1784.2509	3176.1636	3192.7722	3209.1217	3225.149	3816.4149
ON=C1C2C3C1N=CN23	ON=C1[C@H]2[C@H]3[C@@H]1[N][CH]N23	
InChI=1S/C5H5N3O/c9-7-3-2-4-5(3)8(4)1-6-2/h1-2,4-5,9H	InChI=1S/C5H5N3O/c9-7-3-2-4-5(3)8(4)1-6-2/h1-2,4-5,9H/t2-,4-,5+,8?/m1/s1
