23
gdb 123002	4.7327	0.56968	0.55247	1.5127	83.73	-0.2529	0.0747	0.3276	2089.6126	0.203169	-425.400237	-425.389408	-425.388464	-425.437182	38.86	
C	-0.0028119739	 1.3980178781	 0.1008561264	-0.227501
O	-0.0077514403	-0.0056143086	 0.1853513906	-0.231464
C	-1.2788185978	-0.5666358437	-0.0601412308	-0.051543
C	-1.175111324	-2.0807382424	 0.0577361137	-0.210214
C	-2.5077584816	-2.7890631111	-0.2153028993	-0.248543
C	-2.4208083449	-4.2977407699	-0.0783877201	 0.428737
O	-1.5461251496	-4.9186686026	-0.9883659457	-0.472612
C	-2.57551976	-4.943380132	 1.2780941211	-0.319681
C	-3.6514667796	-5.0961165555	 0.2170809646	-0.306802
H	 1.0166869425	 1.7361275052	 0.3025036459	 0.125671
H	-0.3020477439	 1.7500792884	-0.8996159602	 0.10228
H	-0.6808953111	 1.8560818049	 0.83912794	 0.101495
H	-2.0170794407	-0.1748723218	 0.6623347717	 0.081794
H	-1.6363180877	-0.2831650882	-1.0659912482	 0.084697
H	-0.4142011523	-2.4252872513	-0.6528330165	 0.102272
H	-0.8130912195	-2.3306679192	 1.0623828237	 0.106389
H	-3.2737811982	-2.415002901	 0.4754128227	 0.093059
H	-2.851489556	-2.5508611325	-1.2303730194	 0.104264
H	-0.6441745354	-4.7319651038	-0.7066154619	 0.283509
H	-1.9605260688	-5.8119923056	 1.4854488225	 0.112665
H	-2.7810256651	-4.3139258532	 2.1376386986	 0.108827
H	-4.5908535134	-4.5708010696	 0.351279964	 0.110079
H	-3.7307392787	-6.0593466246	-0.2730281234	 0.122622
50.2249	58.739	96.9699	119.497	137.2015	217.6067	233.6596	278.41	307.0305	340.1319	389.9222	428.6807	452.0073	541.5346	732.2913	767.1305	777.745	866.5075	910.3379	923.2764	937.4288	980.0298	992.1217	1042.7418	1056.4214	1074.9344	1077.2924	1111.4506	1164.9962	1179.2552	1188.5148	1218.7322	1223.9201	1265.7091	1277.2249	1306.7959	1313.6796	1322.8811	1363.7397	1404.2033	1427.0529	1452.7879	1476.4381	1481.7429	1485.2389	1497.8494	1500.2353	1507.1544	1532.6038	2938.836	2964.3265	2966.9755	3007.5641	3017.423	3031.4969	3052.9792	3079.576	3111.7244	3129.2962	3138.1748	3215.5313	3231.9262	3803.1614
COCCCC1(O)CC1	COCCCC1(O)CC1	
InChI=1S/C7H14O2/c1-9-6-2-3-7(8)4-5-7/h8H,2-6H2,1H3	InChI=1S/C7H14O2/c1-9-6-2-3-7(8)4-5-7/h8H,2-6H2,1H3
