16
gdb 16743	3.81408	1.74631	1.65566	2.0913	63.34	-0.2388	-0.0308	0.2081	837.4172	0.130596	-383.733009	-383.726074	-383.72513	-383.76447	26.156	
O	-0.2910501486	 0.5894702948	 1.1704337611	-0.241107
C	 0.5545570317	 0.7357988199	 0.3267960423	 0.135353
C	 1.2473358503	 2.0622613809	 0.0166055208	 0.00038
C	 1.4975907438	 2.9380445814	 1.2660743541	-0.256341
C	 2.9767120652	 2.7241804973	 1.5504000527	-0.065693
C	 3.4678161374	 1.2898986265	 1.6496080825	-0.331243
C	 3.5252263884	 2.0301845696	 0.3388426053	 0.116649
O	 2.5050111551	 1.8161746385	-0.6092339493	-0.263417
H	 0.8946632572	-0.0977078541	-0.3273169787	 0.095101
H	 0.6068069167	 2.566992327	-0.7205288062	 0.116742
H	 1.3107884126	 3.9922819345	 1.0443265387	 0.111054
H	 0.8292612388	 2.634244774	 2.0760618918	 0.135276
H	 3.5243459068	 3.5068473682	 2.0611186201	 0.095541
H	 4.4086449769	 1.1253403801	 2.1642571699	 0.11922
H	 2.7494061377	 0.4871724321	 1.7818663953	 0.12714
H	 4.46960015	 2.2693240291	-0.1345963304	 0.105344
77.397	133.4865	211.8322	319.9751	390.1706	441.4328	569.8713	679.53	715.9977	760.0665	810.3152	818.4825	900.9187	911.1651	957.6447	994.1899	1027.7074	1047.092	1052.548	1077.8186	1103.5266	1114.1146	1159.8104	1197.9894	1208.0007	1266.4831	1308.2263	1330.1985	1341.3868	1390.9078	1395.3009	1482.4954	1500.4807	1830.6592	2894.6431	3011.8782	3064.0045	3109.813	3129.8333	3181.2694	3191.2926	3215.0486
O=CC1CC2CC2O1	O=C[C@H]1C[C@H]2C[C@H]2O1	
InChI=1S/C6H8O2/c7-3-5-1-4-2-6(4)8-5/h3-6H,1-2H2	InChI=1S/C6H8O2/c7-3-5-1-4-2-6(4)8-5/h3-6H,1-2H2/t4-,5+,6+/m0/s1
