19
gdb 76372	2.62365	1.21372	1.12465	13.7132	74.48	-0.1722	-0.0022	0.1701	1181.1329	0.159001	-456.297347	-456.287981	-456.287037	-456.331593	34.924	
C	-0.0975124595	 1.5787725582	-0.0431127672	-0.509488
C	-0.0027800085	 0.0696249241	-0.0217071869	 0.167478
C	 1.296792018	-0.6802121302	-0.1981797115	-0.071353
N	 2.547968171	 0.0627746888	-0.1552057337	-0.548416
C	 0.5743409568	-0.685001426	 1.1398357165	-0.11516
N	 1.3418236767	 0.1310247665	 2.1220509624	-0.421717
H	 2.1715626651	 0.4421225171	 1.5135638735	 0.305722
H	 0.8196879701	 0.9432464627	 2.4537900141	 0.312037
H	 1.6592763519	-0.412616137	 2.9239762106	 0.306214
C	-1.2346857307	-0.7254017996	-0.6619471813	 0.341059
O	-2.0356225128	-0.0130242771	-1.2734216863	-0.458787
O	-1.172727435	-1.9513645661	-0.4460102115	-0.482938
H	 0.8625912789	 2.1084967397	-0.0961670551	 0.074415
H	-0.7075922222	 1.8299859594	-0.9148391127	 0.1812
H	-0.6441850482	 1.9613861136	 0.8297631585	 0.106129
H	 1.2515870367	-1.5954245854	-0.7774860023	 0.137495
H	 3.3404129742	-0.5469845088	-0.3308167714	 0.255447
H	 2.5683152608	 0.7993082623	-0.8540237536	 0.266922
H	 0.0683632469	-1.5571357622	 1.530551318	 0.153739
67.9043	87.2718	159.5745	198.8024	234.4138	269.5133	325.502	343.6326	372.1107	451.0379	485.668	525.1904	629.2895	656.615	747.5018	764.3923	811.0611	863.0263	869.0129	917.9066	1005.2415	1015.68	1046.1182	1076.088	1091.9431	1113.0191	1137.8893	1172.0878	1221.7831	1258.2292	1291.0957	1315.2393	1393.9686	1411.3103	1427.0502	1476.4147	1504.949	1623.1817	1647.4891	1685.3634	1800.1625	2678.2631	3001.2038	3052.005	3117.551	3183.9777	3223.4954	3451.1608	3499.861	3519.4703	3572.5584
CC1(C(N)C1[NH3+])C([O-])=O	C[C@]1([C@@H](N)[C@H]1[NH3])C(=O)[O]	
InChI=1S/C5H10N2O2/c1-5(4(8)9)2(6)3(5)7/h2-3H,6-7H2,1H3,(H,8,9)	InChI=1S/C5H10N2O2/c1-5(4(8)9)2(6)3(5)7/h2-3H,6H2,1,7H3/t2-,3+,5+/m0/s1
