18
gdb 98780	3.9986	0.97425	0.96149	1.6957	71.76	-0.2442	-0.0349	0.2094	1281.1366	0.147168	-439.044475	-439.036014	-439.03507	-439.078521	31.259	
O	 0.0138276334	 1.3590099688	-0.4622979354	-0.418925
C	-0.1104646798	-0.0296185327	-0.458745844	-0.131393
C	-1.308766514	-0.4847546279	 0.3611386742	 0.344586
O	-1.9653470905	 0.3460145351	 0.9583035765	-0.331549
C	-1.6512452084	-1.9534333056	 0.360761095	-0.113021
C	-2.6626627839	-2.5017161836	 1.3988731951	-0.188855
N	-3.5931168692	-3.0150658605	 0.3275643051	-0.12099
C	-4.016284833	-1.8235581562	-0.4302153917	-0.236231
C	-2.6806869284	-2.3890230225	-0.7048568206	-0.052608
H	-0.6884890794	 1.6754600099	 0.1287602745	 0.294536
H	-0.2162975903	-0.4248567107	-1.4829264867	 0.119848
H	 0.7854198401	-0.5180091625	-0.0354443528	 0.115948
H	-0.7417540224	-2.5559117554	 0.2975697008	 0.096879
H	-2.272378979	-3.3322059547	 1.9884293314	 0.118729
H	-3.1139995952	-1.7556088705	 2.0572781936	 0.129887
H	-4.798746617	-2.0399826009	-1.1505136593	 0.126867
H	-4.1088486961	-0.8707151958	 0.084166998	 0.141179
H	-2.4261985968	-2.8919271842	-1.6320790437	 0.105112
38.5095	98.7218	139.7765	186.0381	290.8703	343.5928	380.2965	420.4694	468.2086	559.209	675.7074	738.0622	766.7655	778.1302	833.5263	931.0421	959.3357	971.008	988.9563	1017.7499	1064.987	1082.6711	1105.3768	1123.4153	1134.5925	1158.1321	1198.4859	1209.635	1237.1468	1246.3536	1295.9486	1309.6267	1351.2766	1380.519	1450.6248	1486.6331	1488.4731	1504.9372	1782.5605	2957.0453	2982.8177	3072.5183	3081.5575	3117.7011	3134.7837	3163.6217	3210.6716	3681.2918
OCC(=O)C1CN2CC12	OCC(=O)[C@H]1CN2C[C@@H]12	
InChI=1S/C6H9NO2/c8-3-6(9)4-1-7-2-5(4)7/h4-5,8H,1-3H2	InChI=1S/C6H9NO2/c8-3-6(9)4-1-7-2-5(4)7/h4-5,8H,1-3H2/t4-,5-,7?/m0/s1
