17
gdb 107838	3.41521	1.5066	1.31512	2.4644	66.17	-0.2225	0.0579	0.2803	983.0838	0.136459	-458.903252	-458.895983	-458.895038	-458.935025	28.724	
O	-0.0138060297	 1.3597739618	-0.2742926758	-0.416699
C	 0.0271929788	-0.0098003379	 0.0789696035	-0.167818
C	-1.3702841138	-0.5670212875	 0.1956376357	 0.369256
C	-2.3102150277	-0.0077723381	 1.2574065126	-0.092759
O	-3.4860210487	-0.8231193684	 1.1472826434	-0.268111
C	-3.1325063266	-1.9685279709	 0.4130556297	 0.084485
C	-2.5396310207	-1.7618611723	-0.9706434584	 0.055077
O	-2.089253278	-0.4128090194	-1.0873391681	-0.34694
C	-1.6513451623	-2.0904533814	 0.205811864	-0.277124
H	-0.5266490248	 1.4133405128	-1.0901270156	 0.299781
H	 0.5914991001	-0.604181088	-0.6549085422	 0.100328
H	 0.5468731185	-0.0781696722	 1.0409828363	 0.114645
H	-1.8782242449	-0.0879815861	 2.2666299042	 0.094167
H	-2.576378682	 1.0321657153	 1.056353657	 0.127499
H	-3.7582532379	-2.8304049121	 0.6106788478	 0.112688
H	-2.7978404918	-2.2998373545	-1.8757155027	 0.108141
H	-0.9814333085	-2.9028875112	 0.4527114187	 0.103385
88.0076	163.7745	241.7762	305.7801	383.3963	426.7423	442.8478	559.2815	660.7286	703.8426	738.575	780.3937	804.2202	861.6155	867.2998	924.4767	950.6805	974.7372	1027.6535	1036.0918	1056.4992	1081.1223	1082.9129	1093.582	1115.2385	1171.6626	1186.4581	1219.8478	1245.3616	1271.8321	1306.6978	1371.0365	1385.3535	1404.0273	1432.4806	1494.9056	1501.6677	2990.7376	2995.9502	3073.7748	3109.2768	3177.7619	3193.8854	3205.2052	3789.3951
OCC12COC3C(O1)C23	OC[C@@]12CO[C@H]3[C@@H](O1)[C@@H]23	
InChI=1S/C6H8O3/c7-1-6-2-8-4-3(6)5(4)9-6/h3-5,7H,1-2H2	InChI=1S/C6H8O3/c7-1-6-2-8-4-3(6)5(4)9-6/h3-5,7H,1-2H2/t3-,4+,5-,6-/m0/s1
