18
gdb 98632	4.58037	0.93994	0.82614	4.349	74.83	-0.2471	-0.0024	0.2447	1383.9481	0.146952	-439.059246	-439.050663	-439.049719	-439.093248	31.525	
O	 0.094232351	 1.3120398935	-0.2493444937	-0.420818
C	 0.0559489701	-0.0250867013	 0.1544631959	-0.129484
C	-1.3864353853	-0.5292358208	 0.1823129454	 0.34197
O	-2.2991591461	 0.2181373155	-0.1198997423	-0.364706
N	-1.5730493692	-1.8055372134	 0.6668569872	-0.095831
C	-1.0870424612	-3.0338604911	 0.0388295118	-0.054315
C	-1.221265211	-4.1530044087	 1.0799307516	-0.237767
C	-2.758475257	-3.8333186085	 1.1727966532	-0.241817
C	-2.5605976565	-2.7251223469	 0.1288875827	-0.028416
H	-0.8368582822	 1.5544165914	-0.3837800904	 0.294021
H	 0.6439837796	-0.6589227283	-0.5286545515	 0.106041
H	 0.489521028	-0.1582796233	 1.1574447596	 0.120768
H	-0.4240990209	-2.9807320093	-0.816534029	 0.115891
H	-1.0294755685	-5.1418121843	 0.6589877915	 0.115518
H	-0.6297774647	-4.0217930387	 1.988262987	 0.117508
H	-3.3726724405	-4.655699267	 0.8015555408	 0.115702
H	-3.1391569345	-3.5002979965	 2.1402670834	 0.120134
H	-3.2436855611	-2.3738916324	-0.6337371831	 0.125602
60.7787	89.9208	127.3869	154.3211	282.0467	322.0901	340.551	430.558	489.941	569.5103	623.6485	749.2958	771.2225	801.9617	854.4323	884.3673	927.8734	952.086	982.0373	1002.0631	1035.9532	1052.8757	1085.5268	1124.7331	1144.6944	1183.1384	1220.8421	1238.8161	1246.2354	1252.1743	1286.5946	1300.7525	1326.8038	1416.0804	1469.319	1473.0817	1489.985	1501.9068	1761.1164	2979.7464	3003.6626	3073.3825	3080.0549	3125.4232	3141.3176	3190.712	3211.6051	3671.8014
OCC(=O)N1C2CCC12	OCC(=O)N1[C@H]2CC[C@@H]12	
InChI=1S/C6H9NO2/c8-3-6(9)7-4-1-2-5(4)7/h4-5,8H,1-3H2	InChI=1S/C6H9NO2/c8-3-6(9)7-4-1-2-5(4)7/h4-5,8H,1-3H2/t4-,5+,7?
