14
gdb 62357	3.8777	1.12594	1.11536	1.6344	68.06	-0.2644	-0.04	0.2244	1093.0339	0.099608	-436.676211	-436.668359	-436.667415	-436.708639	29.385	
O	-0.133074236	 1.3517690259	 0.0349719376	-0.445986
C	-0.0793575032	-0.0380562761	-0.0241948075	 0.268347
C	 1.0426323872	-0.6215576445	 0.69137899	 0.244137
N	 1.9532900564	-1.0624389732	 1.2506543516	-0.326495
C	-1.3541726919	-0.810619963	 0.0092381233	-0.105204
C	-2.4579178655	-0.0074531113	-0.6995344946	-0.366926
C	-1.585070782	-0.0604443417	-1.9757333431	 0.417309
O	-1.7697304133	 0.2407956169	-3.1165799885	-0.295671
C	-0.4824793686	-0.8269446268	-1.2785188082	-0.260627
H	 0.6042480904	 1.7138209962	-0.4710856838	 0.305521
H	-1.5102645284	-1.6202469226	 0.7085668589	 0.135426
H	-3.3729727921	-0.5877263348	-0.8468583143	 0.143633
H	-2.6988814753	 0.975030197	-0.2928165743	 0.150294
H	 0.1719421724	-1.5814729519	-1.6964611372	 0.136243
103.8688	129.1233	166.36	271.6312	326.488	375.5758	426.1766	451.8367	531.0378	573.3078	599.6325	661.2575	689.5729	830.3904	851.591	881.9243	966.8701	982.3771	993.0023	1028.7833	1066.3949	1101.1864	1156.661	1218.5929	1247.4888	1259.3883	1290.1404	1398.2182	1449.5446	1898.4736	2354.2195	3077.9967	3143.7595	3204.5088	3221.0588	3794.6362
OC1(C#N)C2CC(=O)C12	O[C@@]1(C#N)[C@H]2CC(=O)[C@@H]12	
InChI=1S/C6H5NO2/c7-2-6(9)3-1-4(8)5(3)6/h3,5,9H,1H2	InChI=1S/C6H5NO2/c7-2-6(9)3-1-4(8)5(3)6/h3,5,9H,1H2/t3-,5-,6-/m0/s1
