17
gdb 35562	3.51564	1.23926	1.03179	4.548	79.52	-0.2439	-0.0107	0.2331	1157.9916	0.138145	-380.846579	-380.839086	-380.838141	-380.878797	28.868	
N	 0.1755218421	-1.118406402	-0.146087854	-0.324587
C	 0.0761387361	 0.0311329145	-0.0869344796	 0.317182
C	-0.0469093909	 1.4879751798	-0.0384529777	-0.22755
N	-0.2717672988	 2.0797423257	 1.3294597531	-0.332138
C	 0.6902999273	 3.1976104494	 1.008033639	-0.002242
C	 1.936781332	 3.4954658295	 1.8607528095	-0.235225
C	 3.1109502893	 3.2924671231	 0.8406424567	-0.244844
C	 2.5444870802	 2.2713530393	-0.146680702	-0.200949
C	 1.2221652406	 2.3196668236	-0.0822026814	 0.254306
H	-0.7988603847	 1.801150274	-0.776697559	 0.122934
H	-1.2321686139	 2.3798046294	 1.4732670195	 0.226362
H	 0.1718528737	 4.107481577	 0.6732555032	 0.076351
H	 1.9393299146	 4.4859551981	 2.323783582	 0.097235
H	 2.0090890291	 2.7427411777	 2.6514579759	 0.125011
H	 3.3858842303	 4.2356317034	 0.349596708	 0.114231
H	 4.0192370622	 2.9195865665	 1.3244194489	 0.116327
H	 3.1559737108	 1.576391431	-0.7086330821	 0.117596
93.4169	120.4191	200.2763	293.9802	332.0919	391.7233	508.9876	545.4929	595.0186	659.9279	696.061	818.8443	836.7179	853.5006	866.2135	894.4085	913.935	959.21	999.0314	1010.9107	1045.4896	1085.8672	1097.0223	1147.8535	1176.2866	1206.8398	1244.2817	1273.3683	1306.251	1312.7204	1334.11	1372.6937	1383.1871	1478.6581	1493.7302	1746.444	2361.5633	2995.175	3001.9723	3019.7341	3057.997	3076.8383	3112.1376	3213.8079	3504.3762
N#CC1NC2CCC=C12	N#C[C@H]1N[C@H]2CC[CH][C]12	
InChI=1S/C7H8N2/c8-4-7-5-2-1-3-6(5)9-7/h2,6-7,9H,1,3H2	InChI=1S/C7H8N2/c8-4-7-5-2-1-3-6(5)9-7/h2,6-7,9H,1,3H2/t6-,7+/m0/s1
