17
gdb 68066	2.01963	1.65604	1.09144	5.4368	69.91	-0.2427	-0.0227	0.2199	1115.6055	0.133679	-458.912416	-458.903747	-458.902803	-458.945708	32.8	
O	-0.0740085953	 1.3221946981	 0.0013584569	-0.466042
C	 0.0523490306	-0.0477456725	 0.0045376834	 0.394979
C	 0.641879703	-0.9757488783	-1.1049901489	-0.360284
C	 0.0739268612	-1.9012010063	 0.0178299723	 0.395009
O	-0.0204136213	-3.2736659498	 0.0342829082	-0.466061
C	 0.7521014483	-0.9589491593	 1.0641028994	-0.382055
C	-1.1957929704	-0.9890975958	 0.0313595393	-0.132917
C	-2.1401593427	-0.991348734	 1.1987172426	 0.130981
O	-3.3389121005	-1.0064264946	 1.0628536368	-0.254175
H	 0.8048621537	 1.7143517025	-0.0457709178	 0.289727
H	 0.1195470226	-0.9887003829	-2.0636813949	 0.108683
H	 1.7302145268	-0.9639052178	-1.2212317719	 0.085559
H	 0.8675049459	-3.6457634835	-0.0051983595	 0.289714
H	 1.8465001925	-0.9462947366	 1.0544556426	 0.087762
H	 0.3664570367	-0.9561551452	 2.0826323984	 0.111063
H	-1.7800993931	-1.0025426384	-0.8921707252	 0.092425
H	-1.6915333381	-0.9783072256	 2.2139828082	 0.07563
65.2012	186.7531	215.0367	219.461	231.0442	257.6869	327.2031	443.8852	450.0981	473.772	553.6999	600.2396	616.5551	658.5299	724.3304	766.9012	945.9581	983.812	991.903	1037.9881	1049.7751	1090.3721	1104.8071	1124.646	1125.5929	1128.5821	1146.8738	1160.4963	1273.0268	1322.6791	1334.3028	1338.3585	1409.5689	1454.5898	1500.4448	1554.105	1816.813	2906.6119	3046.4595	3058.0925	3088.4042	3128.8261	3148.3967	3807.9106	3808.6123
OC12CC(O)(C1)C2C=O	O[C@@]12C[C@@](O)(C1)[C@H]2C=O	
InChI=1S/C6H8O3/c7-1-4-5(8)2-6(4,9)3-5/h1,4,8-9H,2-3H2	InChI=1S/C6H8O3/c7-1-4-5(8)2-6(4,9)3-5/h1,4,8-9H,2-3H2/t4-,5-,6+
