18
gdb 13799	3.57766	1.36108	1.25459	2.8099	69.81	-0.2397	-0.0071	0.2326	1072.2205	0.150964	-384.935122	-384.926015	-384.925071	-384.969537	31.835	
C	 0.1460018663	 1.3500308419	 0.0660985601	-0.230804
O	-0.4480643874	 0.2419945393	-0.5826023526	-0.226604
C	 0.4465256523	-0.4870419164	-1.3486272888	 0.138017
C	 1.3958841809	-1.4535155451	-0.7133728103	-0.326436
C	 0.1959882696	-1.9786293707	-1.4805188873	-0.17774
C	-0.9310266395	-2.5830494806	-0.6904769197	 0.403868
C	-2.0337547815	-3.2232733075	-1.5126761861	-0.483489
O	-0.9636130955	-2.5530279205	 0.5185754282	-0.310404
H	 0.9444901292	 1.0362544942	 0.7521200199	 0.115721
H	 0.567454133	 2.0644936002	-0.6573685334	 0.103999
H	-0.6432482718	 1.8451410823	 0.6355567509	 0.132348
H	 0.7797298448	 0.0242082926	-2.2545169703	 0.088338
H	 2.3846877024	-1.5840808168	-1.1377700867	 0.114263
H	 1.3104767832	-1.5813885553	 0.3606164049	 0.147691
H	 0.3419677082	-2.3888626762	-2.4744731546	 0.092783
H	-1.629244612	-4.0416056139	-2.119761186	 0.135047
H	-2.814713644	-3.6057640788	-0.8548381254	 0.140263
H	-2.4581765581	-2.4900392885	-2.2078752428	 0.14314
50.9362	82.2341	130.126	141.3034	188.8347	221.7899	288.2308	367.0956	432.6543	487.266	590.6227	647.2117	750.7078	795.6761	847.6025	942.8319	960.7351	990.7635	1046.3735	1066.1356	1094.0243	1100.6593	1133.1752	1171.0506	1182.4712	1184.4237	1214.2712	1264.0501	1373.6603	1388.5048	1399.303	1458.7352	1464.0722	1475.7057	1485.9807	1488.7481	1507.7178	1806.7177	2985.4567	3033.7876	3042.8425	3075.8248	3094.259	3125.83	3136.1151	3153.3065	3161.8804	3233.7376
COC1CC1C(C)=O	CO[C@H]1C[C@H]1C(=O)C	
InChI=1S/C6H10O2/c1-4(7)5-3-6(5)8-2/h5-6H,3H2,1-2H3	InChI=1S/C6H10O2/c1-4(7)5-3-6(5)8-2/h5-6H,3H2,1-2H3/t5-,6-/m0/s1
