18
gdb 64984	3.34839	1.08211	0.8997	4.7584	76.76	-0.2342	-0.0122	0.222	1315.2297	0.147621	-435.273478	-435.2642	-435.263256	-435.308002	33.453	
C	-0.0471380763	 1.4680830204	-0.7498452585	-0.466442
C	-0.0657190104	 0.1262170098	-0.0542575966	 0.196687
C	 0.8848899399	-0.941444027	-0.4873237462	-0.251981
N	 1.0561781913	-0.281436448	 0.8149073528	-0.366765
C	-1.4470231864	-0.3060769351	 0.4233517945	 0.391164
O	-2.4472575001	 0.0181077505	-0.1714561487	-0.333742
N	-1.3933575034	-1.0875565225	 1.5654826087	-0.334834
C	-2.4268989125	-1.7104089942	 2.2539713939	 0.081288
N	-3.6374594035	-1.7254930417	 1.8775334948	-0.400579
H	 0.9319864051	 1.6625570834	-1.1983357499	 0.107459
H	-0.8082796956	 1.4888750309	-1.5321943743	 0.161077
H	-0.2741184248	 2.2758821309	-0.0461208077	 0.13147
H	 0.5936062732	-1.9864514306	-0.4360166774	 0.132325
H	 1.574312193	-0.6976746929	-1.2910952421	 0.125778
H	 1.8006472709	 0.4094775666	 0.7796363292	 0.240087
H	-0.4612631618	-1.154121206	 1.9579347781	 0.268511
H	-2.040207591	-2.1892025514	 3.1633886545	 0.092129
H	-4.1954239174	-2.2472711332	 2.5520345947	 0.226369
60.4513	86.8722	159.9821	171.5857	194.3047	257.7606	292.0045	314.7104	367.6057	470.9241	502.0954	619.9996	740.0168	746.0154	821.8526	831.2512	856.4152	926.494	947.6791	975.1904	997.8565	1042.1428	1064.5648	1067.0643	1124.6243	1144.3949	1172.8266	1253.0055	1276.9462	1345.9776	1360.7823	1411.1256	1431.3577	1479.3386	1501.2402	1508.4872	1550.1468	1730.4888	1820.942	3025.9449	3039.6704	3104.181	3112.8542	3138.1279	3201.6599	3493.6586	3510.1668	3545.2452
CC1(CN1)C(=O)NC=N	C[C@]1(CN1)C(=O)NC=N	
InChI=1S/C5H9N3O/c1-5(2-8-5)4(9)7-3-6/h3,8H,2H2,1H3,(H2,6,7,9)	InChI=1S/C5H9N3O/c1-5(2-8-5)4(9)7-3-6/h3,8H,2H2,1H3,(H2,6,7,9)/t5-/m0/s1
