23
gdb 63943	2.62544	1.59319	1.44805	1.5731	83.65	-0.235	0.0787	0.3137	1060.5944	0.208067	-388.310165	-388.302074	-388.30113	-388.342031	33.794	
C	-0.0961775761	 1.5528749621	-0.0382117667	-0.454483
C	-0.0076510673	 0.0194470052	-0.0132290887	 0.350443
C	-1.4362616842	-0.5387573397	 0.1083700962	-0.44346
C	 0.7325003883	-0.5497329751	-1.2822581922	-0.263792
C	 1.9220796497	-1.3092289596	-0.6702163953	 0.116066
C	 1.3074548178	-1.9303232443	 0.5897863518	-0.243124
C	 0.8960151947	-0.5434130254	 1.1377936949	-0.064645
C	 2.2778826801	 0.123924001	 1.0954080324	-0.088652
O	 2.8490597557	-0.3421113526	-0.1421059914	-0.28529
H	 0.8652956141	 2.0215893206	-0.2621813934	 0.124686
H	-0.8014541334	 1.8774125651	-0.8111602358	 0.110877
H	-0.4545680698	 1.9482823348	 0.9196020689	 0.106718
H	-2.0371911186	-0.2483237895	-0.7604714135	 0.112186
H	-1.4547172002	-1.6306412741	 0.1698859403	 0.110814
H	-1.9347391053	-0.1462759642	 1.0022433001	 0.10898
H	 0.0868101355	-1.2196541351	-1.8613462126	 0.087936
H	 1.0825858464	 0.2413543454	-1.9502571079	 0.101406
H	 2.4674889357	-1.9639970551	-1.3512447329	 0.068838
H	 0.4730281416	-2.6034064384	 0.3863149562	 0.097783
H	 2.0432315412	-2.4437426958	 1.2141766291	 0.100368
H	 0.4251709682	-0.5185733956	 2.1228187973	 0.058845
H	 2.2523429374	 1.2170909236	 1.0976748376	 0.098656
H	 2.9031523388	-0.201444813	 1.9391153657	 0.088845
124.2642	225.8046	249.4543	271.8563	322.5978	379.9629	387.4704	422.2139	454.4054	480.7261	559.759	678.4701	775.4807	796.9524	841.7383	875.3682	918.4192	925.663	941.0496	951.1079	961.1106	972.0647	975.6382	998.6865	1018.8153	1050.3165	1076.5139	1107.3032	1158.689	1172.0989	1203.4341	1224.1871	1236.1179	1262.074	1269.9195	1292.5206	1314.8939	1329.0134	1343.0835	1384.1034	1400.7417	1422.9099	1476.272	1485.6476	1488.6836	1500.3143	1508.4168	1509.3468	1542.7794	2998.1976	3023.3621	3028.1244	3038.0916	3071.4118	3079.9008	3084.701	3090.6537	3095.2526	3096.9222	3103.2544	3110.5851	3112.069	3129.9879
CC1(C)CC2CC1CO2	CC1(C)C[C@@H]2C[C@H]1CO2	
InChI=1S/C8H14O/c1-8(2)4-7-3-6(8)5-9-7/h6-7H,3-5H2,1-2H3	InChI=1S/C8H14O/c1-8(2)4-7-3-6(8)5-9-7/h6-7H,3-5H2,1-2H3/t6-,7-/m0/s1
