15
gdb 123349	7.17932	0.73769	0.69782	2.1634	72.74	-0.2661	-0.0302	0.2359	1530.0803	0.113269	-412.944316	-412.936076	-412.935132	-412.97875	29.022	
C	 0.0174084013	-1.2130581306	 0.0506083841	-0.435903
C	-0.0068805162	-0.0123959702	 0.0962395981	 0.29366
C	-0.0013894292	 1.4434513649	 0.1418413871	-0.351242
C	 1.3949218779	 2.0355677272	-0.174960137	-0.288884
C	 1.399850979	 3.5252037169	-0.0973864746	 0.381243
N	 1.5972195651	 4.3311854132	-1.1369713464	-0.260314
N	 1.4961535334	 5.5216511766	-0.5602925157	-0.068497
N	 1.2524190599	 5.4904370001	 0.7407256631	-0.096787
N	 1.1872641308	 4.2232783674	 1.0521545578	-0.249663
H	 0.0236173929	-2.2742349641	 0.0161492409	 0.197393
H	-0.7328618538	 1.8401460409	-0.5728202354	 0.138819
H	-0.3166363405	 1.7902964713	 1.1325614043	 0.156888
H	 2.1183966948	 1.6332220593	 0.5406119227	 0.141779
H	 1.7121157836	 1.7314907354	-1.1746146595	 0.138748
H	 1.6018605609	 6.3872660916	-1.0681517996	 0.302759
35.898	64.3577	99.4123	188.2883	320.0545	363.9937	385.3296	479.2538	582.4453	621.1844	647.9429	731.5944	741.1504	767.5705	807.5249	969.9229	1015.7594	1019.5017	1044.4979	1068.8932	1125.2408	1176.3418	1194.6736	1267.8562	1289.4194	1303.9368	1366.0566	1368.5113	1470.2961	1477.8282	1487.6159	1546.252	2241.2365	3032.6213	3066.0422	3070.323	3124.6073	3507.079	3648.8994
C#CCCC1=NNN=N1	C#CCCc1n[nH]nn1	
InChI=1S/C5H6N4/c1-2-3-4-5-6-8-9-7-5/h1H,3-4H2,(H,6,7,8,9)	InChI=1S/C5H6N4/c1-2-3-4-5-6-8-9-7-5/h1H,3-4H2,(H,6,7,8,9)
