14
gdb 21302	3.33322	2.00001	1.26189	2.8182	60.35	-0.21	0.0097	0.2198	910.981	0.107651	-415.834928	-415.827312	-415.826368	-415.866907	27.311	
C	 0.0145378472	 1.3459140591	 0.006294014	-0.243176
O	-0.0083519551	-0.0835834259	 0.0352817523	-0.272897
C	-1.2244955528	-0.6432555945	 0.0317192345	 0.45446
N	-2.3501323151	 0.0269029561	 0.0022743629	-0.249058
O	-3.3460937239	-0.943445025	-0.0014071586	-0.194169
C	-2.7681731228	-2.169651026	 0.0299959955	 0.018791
C	-1.414990294	-2.0612683268	 0.0506391658	 0.034987
N	-0.3953579748	-3.0118022235	 0.1506340471	-0.615998
H	 1.0673955253	 1.6289110377	 0.0125791585	 0.132598
H	-0.4774171595	 1.721404456	-0.896262432	 0.143321
H	-0.4965653689	 1.7564002773	 0.8823924895	 0.145394
H	-3.4442775309	-3.0094262903	 0.0324101436	 0.139017
H	-0.6028148587	-3.8807806952	-0.3228779332	 0.250084
H	 0.489207594	-2.644085309	-0.1754096599	 0.256647
107.7486	172.7583	176.8406	196.0597	275.2815	310.4339	404.4621	553.833	573.1691	626.1916	712.8156	742.3797	775.6046	792.7383	915.1262	976.8733	1049.3105	1121.4922	1141.1315	1181.0294	1220.7714	1288.9125	1327.2294	1460.7405	1479.076	1482.4827	1502.22	1584.9129	1647.6828	1701.9284	3039.6172	3110.3747	3153.2497	3270.2993	3543.1735	3635.5263
COC1=NOC=C1N	COc1nocc1N	
InChI=1S/C4H6N2O2/c1-7-4-3(5)2-8-6-4/h2H,5H2,1H3	InChI=1S/C4H6N2O2/c1-7-4-3(5)2-8-6-4/h2H,5H2,1H3
