15
gdb 130337	3.36591	1.58956	1.08874	12.1977	78.76	-0.1586	-0.0192	0.1394	1032.6139	0.115566	-412.908261	-412.900643	-412.899699	-412.940472	28.352	
N	-0.0120048401	 1.0048918654	-0.0737275166	-0.478366
H	 0.686857445	 0.2601765415	 0.0052976044	 0.316647
H	 0.4607944831	 1.8100015071	-0.5198213405	 0.306432
H	-0.7202815108	 0.6765626248	-0.7343978295	 0.323317
C	-0.6726380094	 1.2861064102	 1.2100384597	-0.145881
C	-2.0362800232	 1.7251178047	 1.2825592508	-0.161456
C	-2.2822411371	 2.2470983902	 2.5454687164	-0.275461
C	-1.042635874	 2.1975218163	 3.2478928926	 0.29589
C	-0.0409253612	 1.6565824117	 2.4088550342	 0.295065
N	 1.0668327458	 1.6494293978	 3.1986685734	-0.397805
N	 0.7690577125	 2.1778737668	 4.4450914108	-0.149795
N	-0.4888669168	 2.4830573823	 4.4638548786	-0.302347
H	-2.7632125524	 1.6158425254	 0.4843281361	 0.054526
H	-3.2348250315	 2.5826341792	 2.9259878432	 0.076744
H	 2.0260968401	 1.4226485068	 3.0068829164	 0.24249
95.3366	141.8988	206.6247	245.0436	267.3334	342.4105	511.5341	558.4849	568.0536	636.0948	686.5621	694.6874	765.0951	792.4638	797.828	939.9504	957.4475	1006.1565	1033.3878	1059.8772	1083.1372	1197.4593	1234.5123	1285.853	1325.1443	1374.5136	1413.4678	1460.7582	1483.6563	1492.3931	1617.527	1629.3353	1660.0534	3174.4861	3187.2275	3245.8286	3390.1775	3481.1394	3684.7334
[NH3+][C-]1C=CC2=C1NN=N2	[NH3][C@@H]1C=Cc2c1[nH]nn2	
InChI=1S/C5H6N4/c6-3-1-2-4-5(3)8-9-7-4/h1-2H,6H3,(H,7,8,9)	InChI=1S/C5H7N4/c6-3-1-2-4-5(3)8-9-7-4/h1-3H,6H3,(H,7,8,9)/t3-/m1/s1
