17
gdb 75017	3.40506	1.46812	1.26087	1.15	68.31	-0.2282	0.0544	0.2826	1017.8869	0.139587	-455.18673	-455.179518	-455.178574	-455.218447	28.364	
N	 0.0529318569	 1.3053501256	-0.0459846315	-0.578759
C	-0.0650570997	-0.0549800553	-0.0840804267	 0.462001
N	-1.1397906329	-0.7320023456	 0.0518487974	-0.355158
C	-0.7380116122	-2.1377653643	 0.0286919173	-0.051924
C	-1.3060714763	-2.9094626252	-1.1771547163	-0.220768
C	-0.2430197955	-2.6632849362	-2.2499557489	-0.096589
O	 1.001753527	-2.6559108863	-1.5318908695	-0.246645
C	 0.7947733222	-2.1145116723	-0.2685079577	 0.191429
O	 1.1221384313	-0.7053004628	-0.2255774548	-0.260875
H	 0.8474415319	 1.6877164446	-0.5341650213	 0.26507
H	-0.8143290515	 1.8019564985	-0.1750629146	 0.267866
H	-0.9846304698	-2.6237713948	 0.977475734	 0.082978
H	-1.3727830849	-3.9781668212	-0.9505892116	 0.104677
H	-2.2957731371	-2.543126639	-1.4537378261	 0.119074
H	-0.1760160578	-3.4494254809	-3.0049212069	 0.113326
H	-0.3964380093	-1.7016483504	-2.7575039897	 0.106831
H	 1.4671580078	-2.6110287945	 0.4323320069	 0.097467
105.804	141.8428	234.6007	329.3955	404.3232	441.113	507.9715	534.5496	598.0547	656.5012	694.8381	752.3891	839.6071	857.9724	895.6841	923.095	945.4802	957.8424	979.8599	995.0318	1048.1617	1105.3329	1119.9478	1170.1263	1211.7702	1230.5318	1285.9428	1291.3788	1317.7529	1343.5235	1363.3557	1398.3326	1438.048	1478.811	1519.9677	1616.4216	1748.4895	3018.5633	3051.4024	3064.6197	3106.8933	3111.8198	3131.4996	3593.7303	3709.2545
NC1=NC2CCOC2O1	NC1=N[C@H]2CCO[C@H]2O1	
InChI=1S/C5H8N2O2/c6-5-7-3-1-2-8-4(3)9-5/h3-4H,1-2H2,(H2,6,7)	InChI=1S/C5H8N2O2/c6-5-7-3-1-2-8-4(3)9-5/h3-4H,1-2H2,(H2,6,7)/t3-,4-/m0/s1
