22
gdb 96128	2.10871	1.8503	1.24698	0.4949	82.05	-0.2173	0.0855	0.3028	1114.2537	0.1947	-404.332251	-404.323428	-404.322484	-404.36517	34.697	
C	-0.1167902285	 1.5200225564	-0.06691611	-0.406037
C	 0.063263615	 0.0094496994	 0.0194500525	 0.057911
O	 0.755762743	-0.3997112197	-1.151696069	-0.25328
C	 0.9357615977	-1.8044347727	-1.1686243495	-0.085069
C	 1.9460797848	-2.2315468149	-0.1053690927	-0.15695
N	 1.7254149174	-1.5843996162	 1.198784982	-0.143977
C	 2.2588141047	-0.2285966868	 1.3593972784	-0.282597
C	 0.7894680455	-0.4447238615	 1.2881383849	 0.320149
C	-0.046582085	-0.4210732983	 2.5509013593	-0.461776
H	 0.8537542096	 2.0236486334	-0.0533222207	 0.124886
H	-0.6279626919	 1.7791630141	-0.9981535414	 0.123414
H	-0.7137994252	 1.8913783638	 0.7702474537	 0.118937
H	-0.9331495685	-0.4701983855	 0.0184791385	 0.061327
H	-0.0328037147	-2.3046330623	-1.002512576	 0.089882
H	 1.2859809492	-2.0742534695	-2.1694946233	 0.106831
H	 1.8891505067	-3.3182269101	 0.0353167872	 0.102235
H	 2.962085068	-2.0036321549	-0.4474994749	 0.106278
H	 2.7413071954	-0.0220189374	 2.3123710632	 0.103553
H	 2.7372593383	 0.2267139979	 0.4942163104	 0.113913
H	-0.3496738605	 0.5983237106	 2.8136319347	 0.116123
H	-0.9552514302	-1.0225191706	 2.431240753	 0.115332
H	 0.524196479	-0.8371416451	 3.3841175998	 0.128916
92.3843	180.0031	216.8948	221.403	251.0566	276.2977	339.5948	374.6516	412.6869	479.7971	495.0192	554.4734	636.4362	711.9669	744.08	847.6573	891.9845	909.3583	920.0591	942.323	994.4692	1037.5087	1063.023	1096.5247	1113.8125	1119.6812	1135.2641	1147.7751	1166.155	1185.8684	1262.2404	1272.6029	1298.4732	1354.6722	1372.2703	1378.5661	1396.8138	1405.4338	1412.6055	1421.398	1484.2923	1486.3412	1492.7563	1493.2279	1497.5081	1502.245	1512.6204	2927.3303	2967.9121	3020.7608	3029.8588	3047.8719	3059.4848	3083.4839	3087.4629	3090.929	3122.8201	3123.7286	3127.27	3172.2636
CC1OCCN2CC12C	C[C@H]1OCCN2C[C@@]12C	
InChI=1S/C7H13NO/c1-6-7(2)5-8(7)3-4-9-6/h6H,3-5H2,1-2H3	InChI=1S/C7H13NO/c1-6-7(2)5-8(7)3-4-9-6/h6H,3-5H2,1-2H3/t6-,7+,8?/m1/s1
