18
gdb 90189	4.15328	1.56931	1.418	1.2008	75.03	-0.2377	0.0775	0.3152	955.1337	0.148535	-401.823628	-401.816915	-401.815971	-401.854383	27.96	
C	-0.0614225799	 1.5153754901	-0.0844029075	-0.396163
C	 0.0094938773	 0.0066168444	 0.0683978272	 0.096701
O	 0.8050993903	-0.5702116646	-1.0379591531	-0.35936
C	 1.7535931156	-1.2487242324	-0.2642363554	 0.398243
C	 2.9906605187	-2.146548345	-0.1785291668	-0.252534
N	 2.6551642368	-1.8841808965	 1.3120521525	-0.19028
C	 2.2372445365	-0.4386488977	 0.949274885	-0.044432
C	 0.7573030349	-0.5049991136	 1.3561897305	-0.139204
C	 1.1480869158	-1.9380840227	 0.9683237784	-0.050047
H	 0.9351588248	 1.9631430665	-0.0269623128	 0.123713
H	-0.5005337236	 1.7821317932	-1.0494139238	 0.131857
H	-0.6824721273	 1.9487468971	 0.7069146353	 0.117278
H	-0.9932307005	-0.4339037355	 0.0085273888	 0.088652
H	 2.8919682653	-3.1963195403	-0.4681727861	 0.114038
H	 3.9556124292	-1.7344393447	-0.4861287338	 0.113915
H	 2.9558742153	 0.3790594866	 0.9737007761	 0.085299
H	 0.3482535567	-0.1974274677	 2.3197150615	 0.077638
H	 0.5865227542	-2.8705160572	 1.0122921139	 0.084685
142.0857	226.6224	265.7582	404.1489	438.582	477.7417	494.4816	662.0327	716.3916	777.9954	799.443	808.1631	829.0416	866.9028	872.2022	884.4371	926.274	934.7062	1002.1008	1008.2525	1044.23	1073.8844	1088.3831	1107.6212	1121.9094	1130.7887	1171.6032	1180.1939	1207.0886	1234.3624	1260.5694	1272.894	1310.5518	1338.3081	1376.5608	1408.2238	1484.0936	1496.56	1515.089	3032.8436	3039.4186	3054.1812	3103.1544	3110.7968	3121.1234	3122.4696	3123.8943	3131.3543
CC1OC23CN4C2C1C34	C[C@H]1O[C@@]23CN4[C@@H]2[C@@H]1[C@@H]34	
InChI=1S/C7H9NO/c1-3-4-5-7(9-3)2-8(5)6(4)7/h3-6H,2H2,1H3	InChI=1S/C7H9NO/c1-3-4-5-7(9-3)2-8(5)6(4)7/h3-6H,2H2,1H3/t3-,4-,5-,6+,7+/m1/s1
