21
gdb 84271	2.93821	1.40834	1.1099	1.9319	84.63	-0.2297	0.014	0.2436	1156.6537	0.183612	-387.072943	-387.064595	-387.063651	-387.105541	33.528	
C	-0.1389759834	 1.5643659547	 0.1643848712	-0.409902
C	-0.0230514953	 0.0421643001	 0.0513218439	-0.057234
C	 0.7927155054	-0.4383317555	-1.1787766044	-0.044005
C	 1.5096565839	 0.4231549051	-2.2843007599	-0.248888
C	 2.8583216728	-0.3084698446	-1.9168011569	-0.325481
C	 2.1669400805	-0.6953852165	-0.6315553557	 0.341096
C	 2.2224239893	-0.7052314067	 0.6941778716	-0.325846
C	 0.8047336976	-0.5772506642	 1.2543030422	 0.11299
O	 0.7360835389	 0.157779589	 2.4657992335	-0.429932
H	 0.8452641252	 2.047933067	 0.1809117132	 0.10609
H	-0.6909713544	 1.9746996307	-0.6864692311	 0.114936
H	-0.6666184143	 1.843443025	 1.0799778727	 0.126168
H	-1.0341062667	-0.377617209	 0.0450568214	 0.067127
H	 0.3348247432	-1.3207134225	-1.6416727047	 0.076719
H	 1.1535685684	 0.3125631654	-3.3112529755	 0.099133
H	 1.5521372775	 1.4838839148	-2.0298773986	 0.110315
H	 3.0417155811	-1.1585296972	-2.582654836	 0.114358
H	 3.7725700181	 0.2863255647	-1.8486793336	 0.110584
H	 3.0924253892	-0.7360630739	 1.340163659	 0.093628
H	 0.3862361564	-1.5563705641	 1.5209444059	 0.091269
H	 1.2056890266	 0.9878318976	 2.3296542619	 0.276875
77.3789	172.7475	235.0173	282.9623	291.8456	332.2912	356.6248	398.3403	447.457	522.9516	641.7052	674.1181	689.3808	757.4661	789.1115	818.5931	844.6221	892.5679	938.3407	963.4709	989.5081	1013.5275	1043.8832	1055.362	1070.8343	1110.2227	1135.9113	1144.7807	1186.2072	1205.2428	1227.9821	1240.5309	1254.5413	1258.0076	1287.4844	1315.6244	1334.3139	1365.7605	1401.6322	1430.938	1473.734	1487.193	1497.6483	1512.8101	1739.3684	3017.8823	3024.7924	3029.2666	3046.7691	3054.4179	3067.7349	3095.3249	3100.2983	3118.4076	3130.4953	3196.6657	3804.2283
CC1C2CCC2=CC1O	C[C@H]1[C@H]2CC[C]2[CH][C@H]1O	
InChI=1S/C8H12O/c1-5-7-3-2-6(7)4-8(5)9/h4-5,7-9H,2-3H2,1H3	InChI=1S/C8H12O/c1-5-7-3-2-6(7)4-8(5)9/h4-5,7-9H,2-3H2,1H3/t5-,7+,8+/m0/s1
