16
gdb 67351	2.98322	1.9543	1.36691	2.8394	70.18	-0.2362	0.0133	0.2495	913.0298	0.126864	-434.003538	-433.996708	-433.995764	-434.034422	27.967	
N	 0.1501164097	 1.4456374499	-0.0073284513	-0.620282
C	 0.0455286355	 0.0384400347	-0.0353650194	 0.287689
C	 0.048762195	-0.8092656519	 1.2849815522	-0.089948
N	-1.4091861647	-0.4714577013	 1.4887541877	-0.352877
C	-1.3078075477	-0.8165239998	 0.0261268484	-0.126416
C	-0.3047034419	-1.9596993814	 0.3057110681	 0.085678
O	 0.6665677821	-2.0382041129	-0.7459460497	-0.256341
C	 0.9071235122	-0.708472119	-1.0125772982	 0.399259
N	 1.6540119416	-0.2266527524	-1.9032888269	-0.556167
H	 0.2290788946	 1.8247297926	-0.9438816424	 0.248878
H	-0.6334732536	 1.8609240613	 0.4829233401	 0.246833
H	 0.7824420038	-0.7806771429	 2.0911772266	 0.097146
H	-1.8779672949	-1.229790319	 1.9949999093	 0.213281
H	-2.1625558261	-0.792725463	-0.6513846248	 0.091664
H	-0.612250495	-2.9455699629	 0.6471819961	 0.102908
H	 2.1030937796	-0.9634807421	-2.4494780259	 0.228696
159.2888	204.7981	322.1275	359.3649	382.1572	416.8247	535.7834	619.913	638.2922	695.7319	712.7225	777.665	839.6787	849.617	891.2248	898.3031	908.8228	923.7778	954.8934	1010.2563	1034.6212	1060.9577	1102.6079	1135.8601	1141.1153	1151.4394	1226.0756	1235.836	1278.08	1283.0757	1332.2536	1360.29	1425.1079	1622.9395	1808.3616	3110.0503	3118.5233	3160.2873	3381.7865	3478.6991	3521.2289	3616.6112
NC12C3NC1C3OC2=N	N[C@@]12[C@H]3N[C@@H]1[C@H]3O[C]2[NH]	
InChI=1S/C5H7N3O/c6-4-5(7)2-1(9-4)3(5)8-2/h1-3,6,8H,7H2	InChI=1S/C5H7N3O/c6-4-5(7)2-1(9-4)3(5)8-2/h1-3,6,8H,7H2/t1-,2-,3+,5-
