14
gdb 10387	2.64601	2.10074	1.46402	2.8029	58.97	-0.248	-0.0605	0.1876	862.8233	0.10427	-419.66279	-419.654842	-419.653898	-419.696012	26.909	
O	-0.2316975655	-0.0196107579	 0.3227182159	-0.232497
C	-0.0752091584	 1.0866942667	-0.112039414	 0.104955
C	 1.2424049876	 1.8581299014	-0.0087653502	 0.25443
C	 1.2756743667	 2.7790913555	 1.254403318	-0.329329
C	 2.3764670006	 1.803907961	 1.7220735609	-0.068002
O	 2.3347438211	 1.0765875449	 0.4721482036	-0.302085
C	 1.5488689349	 2.5463565614	-1.325437826	 0.081476
O	 0.8000853181	 3.3348190588	-1.8430136538	-0.249622
H	-0.8839993295	 1.6682864197	-0.6038854952	 0.110742
H	 1.597534369	 3.8010628403	 1.0521535172	 0.137462
H	 0.3595115514	 2.796743054	 1.8459018579	 0.13569
H	 3.3630543881	 2.2426576031	 1.9025263194	 0.118616
H	 2.0992196266	 1.1645741727	 2.5662033587	 0.127214
H	 2.5259279093	 2.2513456882	-1.7654487224	 0.110948
59.9777	96.4439	113.7133	203.4014	238.5664	297.4026	332.6812	463.122	663.8418	714.7158	786.7684	869.087	885.1438	958.4965	969.0293	991.988	1028.2059	1112.1717	1158.6317	1186.7139	1191.0601	1216.2013	1247.5995	1346.0154	1382.2386	1394.4354	1491.4538	1527.0105	1809.4003	1846.5549	2908.5822	2913.0433	3041.3265	3087.9902	3089.3279	3146.8383
O=CC1(CCO1)C=O	O=CC1(CCO1)C=O	
InChI=1S/C5H6O3/c6-3-5(4-7)1-2-8-5/h3-4H,1-2H2	InChI=1S/C5H6O3/c6-3-5(4-7)1-2-8-5/h3-4H,1-2H2
