17
gdb 23906	4.55482	0.85904	0.84528	2.2105	57.81	-0.3339	0.0832	0.417	1382.3428	0.137765	-495.391977	-495.383147	-495.382203	-495.426375	31.009	
C	-0.0521721139	 1.5767943822	-0.0478635937	-0.382357
C	-0.0069095429	 0.047264063	-0.0114823776	-0.172197
C	 0.7286706658	-0.4943039739	 1.2184940834	-0.170781
C	 0.7735536121	-2.0250744907	 1.2536896245	-0.33261
C	 1.4982097812	-2.5670634088	 2.4665250152	 0.282678
F	 0.9127442168	-2.1791743232	 3.6130868061	-0.086468
F	 1.5189592408	-3.9103552315	 2.4650201817	-0.081351
F	 2.7753071198	-2.1491753837	 2.5137092912	-0.086476
H	 0.9573470976	 2.0018258487	-0.0659842284	 0.117817
H	-0.5821949802	 1.9384814625	-0.9341182556	 0.115346
H	-0.5635002461	 1.9782165646	 0.8339078815	 0.117815
H	-1.0295195902	-0.3522119106	-0.0280517613	 0.098773
H	 0.4803925894	-0.3287430936	-0.9207380201	 0.098769
H	 1.7537344659	-0.1058197242	 1.2375576183	 0.113044
H	 0.2423370226	-0.1296100539	 2.1309232995	 0.113047
H	-0.2367718559	-2.4472062517	 1.2664879957	 0.127476
H	 1.2822011472	-2.4233254952	 0.3695069796	 0.127474
68.4707	74.629	120.4451	148.6883	245.2903	272.8196	312.6502	362.1163	444.3155	538.6372	563.5063	652.8473	740.2648	799.2697	846.1823	908.7851	931.6539	1027.9121	1061.0449	1070.2899	1112.3928	1185.2666	1212.2672	1267.3674	1270.2812	1306.7126	1326.9156	1343.0576	1383.7227	1409.452	1419.1086	1477.3105	1488.1671	1500.4248	1500.5627	1514.246	3015.0469	3031.4735	3036.8659	3042.1199	3055.4844	3073.982	3098.7349	3105.3605	3105.8566
CCCCC(F)(F)F	CCCCC(F)(F)F	
InChI=1S/C5H9F3/c1-2-3-4-5(6,7)8/h2-4H2,1H3	InChI=1S/C5H9F3/c1-2-3-4-5(6,7)8/h2-4H2,1H3
