23
gdb 98408	2.40716	1.17883	0.9619	2.4825	87.15	-0.2376	-0.0079	0.2298	1384.3634	0.203177	-388.315228	-388.304638	-388.303694	-388.350722	39.269	
C	 0.1458142561	 1.5741149947	-0.0487183274	-0.376947
C	-0.0125954374	 0.0912143306	 0.2767038183	-0.289673
C	 1.2513778867	-0.5363260485	 0.8552144304	 0.321172
O	 2.264848135	 0.1242394956	 0.9827459674	-0.329334
C	 1.1866397097	-1.9785331431	 1.2777159031	 0.22797
C	 0.0490079241	-2.8323433923	 0.7436396978	-0.484906
C	 2.5270595868	-2.6539061995	 1.5237839194	-0.312252
C	 1.6787390629	-2.3069425168	 2.7039109992	-0.007993
C	 2.097121458	-1.263072207	 3.7145608844	-0.425816
H	 0.9510847096	 1.7304534041	-0.7706114354	 0.131387
H	-0.7806459027	 1.978038024	-0.4668513664	 0.105357
H	 0.4011789476	 2.1458581151	 0.8470320784	 0.128886
H	-0.8323092376	-0.0731493676	 0.9895926817	 0.121022
H	-0.3005445712	-0.4775066698	-0.6175736231	 0.122846
H	 0.0589236086	-2.885673511	-0.3509871725	 0.12122
H	 0.139220728	-3.8563487835	 1.118022355	 0.116564
H	-0.9329417859	-2.4584288877	 1.0517009656	 0.119957
H	 2.6197715554	-3.6916957787	 1.2212534487	 0.107434
H	 3.3977355802	-2.0333713999	 1.3432502137	 0.135534
H	 1.12336539	-3.1364302617	 3.137109156	 0.086314
H	 2.6213564915	-0.4333093647	 3.2384431475	 0.155286
H	 1.2317979058	-0.8615651029	 4.2538945318	 0.110238
H	 2.768350099	-1.7115258596	 4.4555281064	 0.115735
51.3919	86.6644	177.9551	184.2476	196.8626	203.3281	240.6003	255.2758	315.5454	333.8301	389.2071	424.1013	441.9012	554.3118	586.5228	710.9821	747.137	821.3264	834.8765	882.8893	930.2549	968.2088	991.3154	1021.2567	1031.9592	1078.3406	1089.0616	1109.2396	1119.7739	1129.5965	1146.7405	1203.7953	1270.8793	1284.3265	1317.7569	1379.6837	1396.7049	1412.2563	1419.9636	1424.1989	1449.383	1476.2024	1490.5492	1496.6444	1496.8545	1499.5364	1503.4106	1506.7218	1766.8753	3020.2916	3029.3893	3032.349	3047.5058	3050.7116	3085.8703	3089.8974	3102.8139	3120.9001	3121.1243	3128.3621	3132.237	3145.7727	3226.8068
CCC(=O)C1(C)CC1C	CCC(=O)[C@@]1(C)C[C@H]1C	
InChI=1S/C8H14O/c1-4-7(9)8(3)5-6(8)2/h6H,4-5H2,1-3H3	InChI=1S/C8H14O/c1-4-7(9)8(3)5-6(8)2/h6H,4-5H2,1-3H3/t6-,8+/m1/s1
