20
gdb 94090	3.59649	1.00864	0.86743	4.4985	77.45	-0.2417	0.0293	0.271	1342.7638	0.172818	-440.327466	-440.31887	-440.317926	-440.360881	32.784	
O	-0.1473218064	 1.4552408447	 0.1079345344	-0.436882
C	 0.0030703335	 0.0469228337	 0.0253922163	 0.136596
C	 0.7634335794	-0.5275799127	 1.2295864836	-0.223395
C	 0.7902262848	-2.0617897595	 1.1759788317	-0.187375
N	-0.552137976	-2.5961851674	 1.0344650809	-0.03156
C	-1.3410971388	-2.0880715139	-0.0818310264	-0.19223
C	-1.3990204439	-0.5561050273	-0.0534921723	-0.194724
C	-1.0792871116	-3.4940711425	 1.9130421895	 0.148412
O	-2.1947537518	-3.9679821577	 1.8561899565	-0.342338
H	 0.7294177353	 1.8503471592	 0.1530444376	 0.280483
H	 0.5515820754	-0.2249462873	-0.8947271937	 0.061853
H	 1.7911743683	-0.1435445925	 1.2507698977	 0.088954
H	 0.2648583451	-0.1951173982	 2.1474397291	 0.11482
H	 1.4103760516	-2.3900489323	 0.3276038515	 0.107035
H	 1.2387064369	-2.4775836399	 2.0831061734	 0.118215
H	-0.8913700799	-2.429992326	-1.0258213733	 0.104637
H	-2.3334038586	-2.5331942309	-0.0008737526	 0.150689
H	-1.9721453763	-0.2219378957	 0.8189021806	 0.117991
H	-1.9113794629	-0.183086549	-0.9456172795	 0.109463
H	-0.3560792641	-3.7532834047	 2.7124154648	 0.069356
55.1458	173.7675	182.8322	280.0452	285.365	312.957	341.7927	351.8194	392.2979	479.0687	488.056	589.0234	671.7228	806.1934	820.1163	844.6154	946.7118	984.9545	991.6443	1013.5189	1029.6952	1082.9903	1110.8765	1127.7265	1171.2129	1186.8259	1221.3367	1255.4909	1290.3071	1302.3393	1334.2779	1345.2997	1371.6307	1395.6157	1405.5336	1434.3891	1440.5739	1460.6931	1479.6988	1490.6058	1492.2485	1502.0839	1793.3028	2927.3796	2934.6508	2986.6723	2998.3058	3025.6204	3046.7858	3075.5217	3085.016	3096.0999	3132.4068	3813.3793
OC1CCN(CC1)C=O	OC1CCN(CC1)C=O	
InChI=1S/C6H11NO2/c8-5-7-3-1-6(9)2-4-7/h5-6,9H,1-4H2	InChI=1S/C6H11NO2/c8-5-7-3-1-6(9)2-4-7/h5-6,9H,1-4H2
