18
gdb 108161	3.25967	1.4898	1.27197	1.0026	78.33	-0.2134	-0.0413	0.1722	1024.1684	0.147899	-401.817784	-401.810183	-401.809239	-401.849867	30.145	
O	-0.1423117462	 1.2986941994	-0.4439529594	-0.421603
C	 0.0055621737	 0.0377332953	 0.1885999149	-0.136619
C	-1.3225682438	-0.6601358636	 0.3393878197	 0.311587
C	-2.3527061784	-0.1683792203	 1.3775879338	-0.314858
C	-3.4968946713	-1.1210257274	 1.0832852502	-0.114305
C	-3.0473595931	-2.1272426471	 0.2993816512	 0.014025
C	-3.1346895481	-1.8421684768	-1.2010597056	-0.173012
N	-1.7077168698	-1.287004562	-1.0560597508	-0.200844
C	-1.519431432	-2.10258519	 0.1761528272	-0.135485
H	-0.5336808867	 1.1155860957	-1.3061012669	 0.291195
H	 0.7097063453	-0.6074352004	-0.3544292732	 0.099101
H	 0.4290877553	 0.2396348779	 1.1789851173	 0.109074
H	-1.8847519808	-0.1927744487	 2.3729541404	 0.117819
H	-2.6941681707	 0.859866434	 1.2163686223	 0.129233
H	-4.5026053652	-0.7267095524	 0.9643098433	 0.098887
H	-3.052692771	-2.6883282628	-1.8904562119	 0.118433
H	-3.9027129347	-1.1410214904	-1.5391594665	 0.111988
H	-0.8088289426	-2.9198887203	 0.243471634	 0.095386
71.8886	149.2769	263.6091	309.4806	344.9127	411.783	438.7327	484.3493	538.2534	645.0583	682.9622	732.8089	801.65	812.7689	860.6625	896.9308	919.9586	945.8374	985.5698	1007.4204	1035.4455	1055.0938	1061.6391	1080.7744	1115.5463	1151.3401	1174.3183	1197.9054	1236.9854	1261.912	1286.8143	1307.321	1357.8354	1403.4105	1430.1132	1466.1007	1494.6056	1509.8598	1576.0331	2997.698	3008.9595	3041.7452	3069.5412	3071.6963	3106.3111	3158.3808	3161.7688	3797.2855
OCC12CC=C3CN1C23	OC[C@@]12C[CH][C]3CN1[C@@H]23	
InChI=1S/C7H9NO/c9-4-7-2-1-5-3-8(7)6(5)7/h1,6,9H,2-4H2	InChI=1S/C7H9NO/c9-4-7-2-1-5-3-8(7)6(5)7/h1,6,9H,2-4H2/t6-,7-,8?/m1/s1
