15
gdb 43054	2.50874	2.24899	1.64772	2.6308	63.01	-0.2376	-0.0302	0.2074	832.8193	0.114706	-457.742912	-457.736796	-457.735852	-457.773383	24.751	
O	-0.000310038	 0.0457258167	 0.0818654972	-0.331691
C	-0.0394739818	 1.2410729355	 0.0356411788	 0.489203
C	-1.2263182344	 2.2103653407	 0.010122575	-0.098046
O	-0.8455948934	 3.0470263749	 1.14896442	-0.299625
C	 0.234243823	 3.5147652969	 0.2970685504	 0.060985
C	-0.6515266994	 3.335991357	-0.9470398702	 0.102924
O	 0.1092515393	 2.9499848043	-2.0569181921	-0.275879
C	 1.3658313855	 2.4479369947	-1.5471479896	-0.091709
C	 1.1136900938	 2.2742720885	-0.0384999182	-0.229111
H	-2.2461664755	 1.8334078621	 0.02959685	 0.102431
H	 0.7032180471	 4.4420426961	 0.6204664802	 0.101043
H	-1.3643646691	 4.1186558989	-1.2007181574	 0.112767
H	 1.6033035024	 1.5070905948	-2.0513159558	 0.137923
H	 2.164124636	 3.1730032364	-1.7530766036	 0.112657
H	 1.9906088246	 2.0653800426	 0.5700294154	 0.106129
136.7332	243.0928	351.9072	423.7983	470.5394	576.534	670.9591	672.5659	764.7099	810.3039	816.9013	844.0617	892.9442	916.8256	928.7654	953.0905	975.9455	1011.2995	1052.1237	1079.3091	1129.0286	1152.7265	1180.4245	1190.9943	1220.2788	1224.6316	1243.9255	1277.1517	1302.0375	1325.5074	1390.2878	1521.5651	1890.4789	3018.7088	3092.6791	3136.965	3144.8981	3153.9295	3161.5828
O=C1C2OC3C2OCC13	O=C1[C@H]2O[C@@H]3[C@H]2OC[C@H]13	
InChI=1S/C6H6O3/c7-3-2-1-8-6-4(2)9-5(3)6/h2,4-6H,1H2	InChI=1S/C6H6O3/c7-3-2-1-8-6-4(2)9-5(3)6/h2,4-6H,1H2/t2-,4+,5-,6-/m1/s1
