14
gdb 15294	6.32191	0.99791	0.91093	2.0255	65.06	-0.2662	-0.0527	0.2135	1183.297	0.105832	-378.698675	-378.690817	-378.689873	-378.731741	27.191	
O	-0.0652891972	 0.0263461709	-0.6770223331	-0.251871
C	-0.0076304773	 1.0745045362	-0.0856802289	 0.158819
C	 1.2644621222	 1.8166490977	 0.1311762545	-0.090688
C	 1.221014131	 3.3224315039	 0.0838210238	-0.246554
N	 1.5144127138	 2.6456153288	 1.322476235	-0.072476
C	 0.5251173493	 2.6993861118	 2.3990123793	-0.300869
C	 0.8627461239	 3.7887491595	 3.3224781681	 0.288779
N	 1.1051230167	 4.653050576	 4.0485887494	-0.28962
H	-0.9253245811	 1.5580904766	 0.3175310811	 0.077119
H	 2.1424419971	 1.2946530233	-0.2386802913	 0.129613
H	 2.0419378146	 3.8583326201	-0.382479127	 0.149542
H	 0.2406248358	 3.7849455401	-0.0329840483	 0.130582
H	-0.5112323945	 2.8579669011	 2.0652487194	 0.146579
H	 0.5519137458	 1.752256954	 2.948872888	 0.171044
54.4701	97.8346	143.0087	238.3525	270.7326	381.995	390.2673	425.8908	476.1081	570.7294	780.6425	867.6388	905.8741	945.5596	998.1023	1014.4409	1039.8642	1089.9712	1120.0342	1145.19	1181.5202	1274.0672	1305.7533	1344.5168	1377.4292	1448.6478	1471.357	1506.1082	1819.8203	2371.179	2877.9365	2995.7806	3075.1326	3092.4866	3161.2659	3194.9895
O=CC1CN1CC#N	O=C[C@H]1CN1CC#N	
InChI=1S/C5H6N2O/c6-1-2-7-3-5(7)4-8/h4-5H,2-3H2	InChI=1S/C5H6N2O/c6-1-2-7-3-5(7)4-8/h4-5H,2-3H2/t5-,7?/m1/s1
