16
gdb 32616	4.53316	1.05222	0.93442	8.7651	74.09	-0.2435	-0.0433	0.2002	1249.7162	0.125772	-434.120617	-434.112521	-434.111576	-434.154682	28.89	
C	-0.0122740975	 1.5900424876	 0.0086419175	-0.375947
C	 0.0037445485	 0.06121482	 0.0034379063	-0.178051
N	-1.3378732507	-0.52513601	 0.0128443172	-0.055417
C	-2.0040016199	-0.8156563096	 1.1808609455	 0.100971
N	-3.1999776764	-1.2636688591	 1.2463465219	-0.305347
C	-3.9202986611	-1.4380018326	 0.0316832277	 0.387565
O	-5.0853016887	-1.7396077202	 0.0405761636	-0.329112
N	-3.2208738915	-1.2549154712	-1.1938597371	-0.305347
C	-2.0239269974	-0.8073040901	-1.145650536	 0.100973
H	 1.0116943369	 1.9746628092	 0.0012705553	 0.13665
H	-0.5314136978	 1.9806765467	-0.8714885006	 0.14056
H	-0.5164641661	 1.9747895229	 0.8999835245	 0.140563
H	 0.5242242308	-0.3179932434	-0.8813020336	 0.136563
H	 0.5390563671	-0.3238081871	 0.8767407429	 0.136561
H	-1.426735973	-0.6508866096	 2.0913687418	 0.134407
H	-1.4623223132	-0.6359846635	-2.0647037768	 0.134407
40.1442	56.8155	130.2209	217.3805	347.4303	373.3175	425.4509	493.9705	520.9081	537.6839	674.8437	742.0618	792.1269	829.0089	833.1014	971.4984	971.7562	982.5451	1010.1957	1064.3679	1102.3573	1148.1393	1241.5912	1289.5476	1390.466	1408.1991	1418.0299	1433.7651	1434.99	1489.0233	1491.4644	1506.9056	1596.5372	1724.5907	1821.4002	3044.8524	3055.7753	3094.2416	3121.5002	3123.2301	3126.9596	3129.1537
CCN1C=NC(=O)N=C1	CCn1cnc(=O)nc1	
InChI=1S/C5H7N3O/c1-2-8-3-6-5(9)7-4-8/h3-4H,2H2,1H3	InChI=1S/C5H7N3O/c1-2-8-3-6-5(9)7-4-8/h3-4H,2H2,1H3
