23
gdb 89479	2.75523	1.49019	1.32446	1.5307	84.46	-0.233	0.0796	0.3126	1116.6819	0.207543	-388.318729	-388.310354	-388.30941	-388.350999	34.26	
C	-0.2039003174	 1.5577725094	-0.0042795541	-0.423911
C	 0.0386508419	 0.0489814794	 0.00755046	 0.050425
C	 0.7512694041	-0.5128816204	-1.2684388907	-0.256091
C	 1.889890501	-1.3788217431	-0.6774940116	 0.420797
C	 2.5643581734	-2.3484726098	-1.6214367395	-0.471806
C	 1.2521741803	-1.916083	 0.6180036315	-0.262653
C	 0.9445584881	-0.5002497983	 1.1455450047	-0.055545
C	 2.3485633436	 0.1115682147	 1.0347247405	-0.07821
O	 2.8873145924	-0.4626245257	-0.1676102338	-0.312591
H	 0.7191593339	 2.1204657485	-0.1769104125	 0.122527
H	-0.9014924469	 1.8291327649	-0.8037570864	 0.114726
H	-0.636164083	 1.9018743212	 0.9421853453	 0.108925
H	-0.9359455502	-0.4429252189	 0.1125616713	 0.067285
H	 0.072057438	-1.1011195664	-1.8939894807	 0.088889
H	 1.1783457391	 0.280998059	-1.888257531	 0.100333
H	 3.0091180683	-1.8152860638	-2.4674392958	 0.123361
H	 3.3615658607	-2.8934587977	-1.1077544155	 0.119912
H	 1.8418114247	-3.0707851313	-2.0134842905	 0.111483
H	 0.3564534087	-2.5195536262	 0.4460116389	 0.091532
H	 1.9625824975	-2.47777352	 1.2310511165	 0.095218
H	 0.5073639522	-0.4240688433	 2.1431199845	 0.059348
H	 2.3489707123	 1.2044231745	 0.9572634155	 0.095765
H	 2.9799124473	-0.1655973265	 1.8906370433	 0.09028
113.8769	213.3147	224.7596	236.5934	290.9752	309.0377	380.2901	414.6084	464.2443	491.2641	554.1884	616.428	734.0033	795.0038	812.5586	869.5061	879.1212	897.0921	926.5371	951.8692	953.3903	984.5002	1007.5446	1030.9572	1052.6602	1079.1368	1092.5796	1138.2371	1166.8932	1187.2157	1213.9391	1215.3438	1244.6808	1253.6861	1275.1607	1294.905	1346.4234	1355.7111	1373.7765	1384.6876	1411.748	1414.9844	1477.3593	1483.4584	1492.3686	1496.4382	1497.3314	1499.8627	1540.0547	3001.6406	3019.4778	3027.1951	3038.6179	3045.3819	3055.6071	3057.0425	3090.6789	3094.1548	3095.8701	3099.8002	3108.7528	3110.1198	3116.2572
CC1CC2(C)CC1CO2	C[C@H]1C[C@]2(C)C[C@H]1CO2	
InChI=1S/C8H14O/c1-6-3-8(2)4-7(6)5-9-8/h6-7H,3-5H2,1-2H3	InChI=1S/C8H14O/c1-6-3-8(2)4-7(6)5-9-8/h6-7H,3-5H2,1-2H3/t6-,7-,8+/m0/s1
