18
gdb 102858	3.49176	0.83311	0.70948	3.3961	73.61	-0.2667	-0.0377	0.229	1520.6985	0.145324	-439.103882	-439.09381	-439.092866	-439.13999	34.718	
O	 0.1231444668	 1.4385951386	 0.0903030853	-0.416841
C	 0.0824193006	 0.0229452993	 0.0815971129	-0.080507
C	-1.3620011136	-0.5060317787	 0.0284693311	-0.01182
C	-2.0727468907	-0.089168517	-1.2745162319	-0.29209
C	-2.265272659	 1.4089499364	-1.399915606	 0.15204
O	-1.8158482865	 2.0780521536	-2.2970297213	-0.254304
C	-1.4015322063	-2.0459830752	 0.171126904	-0.358418
C	-0.8569560934	-2.5227524665	 1.4414130311	 0.267096
N	-0.428661233	-2.8873821415	 2.4508569804	-0.304536
H	 0.1513128836	 1.7602685972	-0.8160618877	 0.302982
H	 0.6627172055	-0.3963784793	-0.7543355706	 0.099333
H	 0.5567337402	-0.314090956	 1.0090173643	 0.139856
H	-1.8985589543	-0.0682160113	 0.879307562	 0.112397
H	-1.5234842854	-0.4414072405	-2.154862301	 0.121483
H	-3.0754687601	-0.539569287	-1.295350653	 0.122242
H	-2.8879731687	 1.8638698372	-0.5983298992	 0.089902
H	-2.4337334001	-2.4031863156	 0.0865228961	 0.155855
H	-0.8403903855	-2.5155816537	-0.6464594064	 0.155332
53.9069	75.5808	92.2048	120.0418	145.4383	193.9537	282.6086	322.181	389.0256	400.5676	407.7115	441.0699	510.7581	607.4072	791.7459	844.0571	899.3739	937.5338	973.7958	1008.0262	1076.2246	1082.468	1103.3244	1118.3759	1180.7309	1203.4017	1265.7351	1283.4829	1331.0968	1346.3733	1382.6283	1405.1132	1418.3597	1426.752	1460.0371	1470.7147	1503.5551	1820.5717	2361.899	2892.7579	2992.8933	3012.8076	3034.4881	3043.8012	3077.655	3080.348	3085.3348	3831.765
OCC(CC=O)CC#N	OC[C@@H](CC=O)CC#N	
InChI=1S/C6H9NO2/c7-3-1-6(5-9)2-4-8/h4,6,9H,1-2,5H2	InChI=1S/C6H9NO2/c7-3-1-6(5-9)2-4-8/h4,6,9H,1-2,5H2/t6-/m1/s1
