19
gdb 116403	2.24992	1.56322	1.21618	2.4545	73.06	-0.2378	0.0203	0.2581	1109.3174	0.161148	-456.33526	-456.326548	-456.325604	-456.36903	31.964	
C	 0.5253889687	 0.7033670791	 0.5398256061	-0.320083
N	-0.1275778929	-0.5104758695	 0.0533392392	-0.28972
C	-1.5795271522	-0.3847893969	-0.1187361401	-0.107827
C	-2.1263533957	-1.6005194671	-0.8924927335	-0.087877
O	-2.4738634136	-2.6978681739	-0.0504599313	-0.243002
C	-1.8651781539	-2.6531987866	 1.1992184704	 0.018925
O	-2.2864541146	-1.4970076813	 1.9345916121	-0.24996
C	-2.2370587546	-0.3225776265	 1.2504233144	 0.434851
N	-2.6967209846	 0.7621862706	 1.7141642223	-0.522579
H	 1.6038755529	 0.5309026432	 0.5914909374	 0.118259
H	 0.3395591618	 1.5877967909	-0.0924543453	 0.103977
H	 0.1678054332	 0.9397516154	 1.5448857723	 0.147345
H	 0.2779160884	-0.7769016941	-0.8378625847	 0.219315
H	-1.8625184689	 0.5382986506	-0.6466899861	 0.091117
H	-3.0407722282	-1.3202896549	-1.4229334962	 0.127598
H	-1.3861635234	-1.9230754111	-1.6405559005	 0.095573
H	-2.22193265	-3.5133198446	 1.7671423603	 0.12575
H	-0.7718288776	-2.6405168046	 1.1251458923	 0.118392
H	-3.0945612849	 0.6042052414	 2.643356361	 0.219946
81.4383	92.5545	126.5972	187.414	253.3341	291.9252	342.0484	386.35	431.7221	508.1867	590.3379	686.5958	757.7584	787.5601	838.7087	905.2034	920.7193	945.9363	1004.3854	1019.7371	1060.2976	1092.6583	1136.3871	1152.8021	1158.1329	1202.7415	1205.0732	1253.5992	1303.6338	1327.0257	1349.319	1357.9043	1407.2945	1458.429	1461.2971	1480.4186	1490.4031	1507.0133	1514.9193	1524.1608	1754.3552	2966.8205	2986.1328	2990.2136	3041.6711	3081.7972	3084.9634	3126.301	3132.2516	3454.0694	3515.2199
CNC1COCOC1=N	CN[C@H]1COCO[C]1[NH]	
InChI=1S/C5H10N2O2/c1-7-4-2-8-3-9-5(4)6/h4,6-7H,2-3H2,1H3	InChI=1S/C5H10N2O2/c1-7-4-2-8-3-9-5(4)6/h4,6-7H,2-3H2,1H3/t4-/m0/s1
