16
gdb 70719	2.34765	2.00234	1.29285	1.3329	66.09	-0.2507	0.001	0.2516	964.5424	0.124875	-475.008663	-475.001085	-475.00014	-475.040617	29.537	
O	-0.0567246254	 1.3635695357	 0.0763760118	-0.469452
C	-0.0180595001	-0.0227680986	 0.0254644628	 0.322953
C	-0.4715476919	-0.7068640336	-1.2632597312	-0.348491
C	-1.3211625445	-0.7710117858	-0.0255292505	 0.014018
O	-1.3702753884	-2.0247826623	 0.6176283882	-0.229473
C	-0.502800525	-2.0995517167	 1.6971171468	-0.003755
O	 0.8660468996	-1.8765804704	 1.3162932044	-0.244887
C	 1.0981514412	-0.6368773626	 0.8016461724	 0.345985
N	 2.1844497441	-0.0025364035	 0.9324469716	-0.553372
H	 0.8664269806	 1.636263182	 0.1890618538	 0.299699
H	-0.7767169771	-0.030231648	-2.0527797829	 0.132356
H	 0.0145468096	-1.6253358234	-1.5711757879	 0.135097
H	-2.246029793	-0.2041707522	 0.027218496	 0.121057
H	-0.762682695	-1.3709057909	 2.4790328593	 0.110991
H	-0.5412997433	-3.1172760653	 2.0855479334	 0.135303
H	 2.8528940887	-0.5182131145	 1.5050754923	 0.231972
89.8051	176.5908	264.2936	296.092	367.531	389.4404	422.0494	455.1051	491.2516	558.6426	644.7819	693.2223	793.348	823.1331	889.3714	895.9986	926.3746	963.7887	1014.6637	1029.8738	1051.9432	1065.9841	1098.3907	1164.3877	1180.2959	1236.5862	1247.0013	1303.9835	1332.1734	1403.8865	1424.7131	1457.8235	1485.8983	1519.1618	1754.2833	2998.3957	3140.1055	3142.5139	3157.5051	3244.8261	3493.3041	3725.1244
OC12CC1OCOC2=N	O[C@]12C[C@H]1OCO[C]2[NH]	
InChI=1S/C5H7NO3/c6-4-5(7)1-3(5)8-2-9-4/h3,6-7H,1-2H2	InChI=1S/C5H7NO3/c6-4-5(7)1-3(5)8-2-9-4/h3,6-7H,1-2H2/t3-,5-/m1/s1
