23
gdb 100970	2.33919	1.05956	0.99011	1.1411	81.92	-0.2446	0.0725	0.3171	1394.8573	0.202527	-425.4117	-425.400778	-425.399834	-425.44738	40.806	
C	-0.1575395277	 1.5179133713	-0.1008144902	-0.395178
C	-0.1585708188	-0.0072454262	-0.2413610898	-0.167096
C	 0.8967598436	-0.5632995159	-1.2162286603	-0.00283
C	 2.3389715393	-0.2406789632	-0.790406133	-0.427326
C	 0.7211015193	-2.0671577883	-1.385128433	 0.395091
O	 0.8930254836	-2.8324913629	-0.2163028731	-0.475818
C	-0.350325573	-2.6080431104	-2.2957431782	-0.371613
C	 1.1136157827	-2.7393524125	-2.6734053169	 0.01472
O	 1.6517842985	-1.9451950212	-3.6913764481	-0.422008
H	 0.7720158875	 1.8909027991	 0.340234827	 0.115527
H	-0.2817425763	 2.0073690958	-1.0739316163	 0.109774
H	-0.978629443	 1.8493656231	 0.5428971428	 0.110219
H	-0.0127087061	-0.4750059017	 0.7395238367	 0.102152
H	-1.1479206927	-0.3337892186	-0.585036556	 0.092711
H	 0.7361537553	-0.1145230571	-2.2032764154	 0.081435
H	 3.0544006693	-0.6655312181	-1.501124581	 0.12835
H	 2.5133482978	 0.8375785151	-0.7503474521	 0.117642
H	 2.5594316529	-0.6393403662	 0.2077408083	 0.102726
H	 1.8278108447	-2.8070246115	 0.0164486791	 0.281712
H	-0.8759999402	-3.5011881393	-1.978110066	 0.120022
H	-0.9416255225	-1.8856264249	-2.849063889	 0.112852
H	 1.5540073465	-3.731752013	-2.5740292522	 0.087674
H	 1.2782957395	-2.2390492035	-4.5288798632	 0.289262
63.8824	78.8386	134.3441	202.0454	222.6433	230.6299	243.4124	278.9384	299.5568	313.3485	324.3154	383.6121	449.3209	471.638	502.7251	578.6509	725.9371	783.0394	829.017	848.4664	913.6665	943.1568	966.8515	976.5331	993.0047	1033.281	1039.9797	1069.083	1099.2203	1143.8215	1170.602	1186.2289	1238.0155	1265.258	1286.1438	1308.7382	1318.8411	1347.3556	1364.7168	1386.7972	1401.4917	1412.138	1421.4225	1486.2751	1486.8939	1496.8667	1505.719	1508.2227	1512.9219	3024.2938	3027.0866	3029.3921	3042.7	3063.298	3094.2009	3095.6115	3098.376	3102.6972	3116.3288	3131.8662	3227.1494	3797.1556	3801.3781
CCC(C)C1(O)CC1O	CC[C@@H](C)[C@@]1(O)C[C@H]1O	
InChI=1S/C7H14O2/c1-3-5(2)7(9)4-6(7)8/h5-6,8-9H,3-4H2,1-2H3	InChI=1S/C7H14O2/c1-3-5(2)7(9)4-6(7)8/h5-6,8-9H,3-4H2,1-2H3/t5-,6-,7+/m1/s1
