15
gdb 54652	4.32118	1.01803	0.82834	1.0183	71.28	-0.2289	-0.0372	0.1917	1284.7159	0.113372	-454.031053	-454.02274	-454.021796	-454.06427	30.653	
N	 0.0044878234	 1.355550265	-0.0625653775	-0.547458
C	 0.0642354364	-0.0163996184	-0.0331597631	 0.32274
O	 1.1267685015	-0.6175989795	-0.060986874	-0.378074
C	-1.2370798324	-0.7065276341	-0.001486948	 0.148627
C	-1.3420298471	-2.0480649481	 0.0186811269	-0.047902
N	-2.6658347333	-2.4596124749	 0.0359310877	-0.334879
C	-3.5418829739	-1.3765013407	 0.0247008075	 0.444027
O	-4.7450052561	-1.4409703704	 0.0362259411	-0.353266
C	-2.6349923021	-0.1313431262	-0.0025234959	-0.50852
H	 0.8779305377	 1.8458098348	 0.0444628779	 0.260298
H	-0.8392543993	 1.850404509	 0.1705125258	 0.256195
H	-0.5334063079	-2.764092343	 0.0193272891	 0.164585
H	-2.9859584991	-3.4141622805	 0.0529538045	 0.269739
H	-2.8677987059	 0.4908495248	 0.8701932737	 0.147982
H	-2.870907592	 0.4636495123	-0.8923917356	 0.155904
78.864	110.0919	164.6708	221.2338	266.2128	372.6864	412.1328	429.9744	533.1896	538.8922	547.9053	594.3927	636.4876	734.8615	752.7041	837.1075	903.5033	937.8167	956.2465	1071.1077	1091.9375	1140.7863	1154.6871	1182.7045	1266.6611	1326.4068	1392.9663	1415.2272	1439.5925	1617.2636	1665.2609	1765.4282	1850.4467	3038.3036	3074.35	3255.8845	3597.4473	3660.4219	3728.6015
NC(=O)C1=CNC(=O)C1	NC(=O)C1=CNC(=O)C1	
InChI=1S/C5H6N2O2/c6-5(9)3-1-4(8)7-2-3/h2H,1H2,(H2,6,9)(H,7,8)	InChI=1S/C5H6N2O2/c6-5(9)3-1-4(8)7-2-3/h2H,1H2,(H2,6,9)(H,7,8)
