16
gdb 126477	2.04627	1.54203	0.93779	1.774	72.8	-0.2641	-0.0637	0.2004	1218.8773	0.123669	-437.899129	-437.890681	-437.889736	-437.932974	29.892	
C	 0.0006005611	 1.5164450988	-0.1964211673	-0.381214
C	-0.0391324697	 0.0026207628	 0.0761896179	-0.298641
C	-1.4278394154	-0.5614117523	 0.0214912301	 0.320492
N	-2.0482596685	-0.8709244406	 1.1323134906	-0.199194
O	-3.3186487333	-1.3389144778	 0.7475359745	-0.15744
C	-3.4122606868	-1.2950016617	-0.5729224838	 0.03984
C	-2.2576697142	-0.8134921329	-1.1248876726	-0.022492
C	-1.9769560394	-0.637340724	-2.5491016668	 0.062836
O	-2.7688818153	-0.8788086517	-3.433046349	-0.272444
H	 1.0282198085	 1.8855552256	-0.1367355599	 0.127053
H	-0.3866301946	 1.7583933584	-1.1909355034	 0.125144
H	-0.6011221388	 2.0572888531	 0.5392816916	 0.138234
H	 0.5919493585	-0.5228927093	-0.6493897899	 0.119885
H	 0.3687944217	-0.2074650071	 1.0686945043	 0.137748
H	-4.3385264569	-1.6344283575	-1.0105894236	 0.184195
H	-0.9581250369	-0.259758524	-2.7826207225	 0.076
60.2736	126.9775	150.0624	174.8114	218.1588	254.759	324.7213	401.1295	520.1651	615.6148	619.8357	742.0144	791.0705	807.2243	873.6372	896.353	937.8405	979.0542	1037.554	1076.9823	1094.7994	1169.5868	1193.8122	1278.1183	1319.0957	1350.2296	1404.9135	1414.9269	1461.2372	1482.1779	1496.023	1500.6286	1515.3398	1613.5052	1789.4893	2894.9604	3043.4391	3046.8463	3094.6305	3117.9596	3124.0832	3270.1833
CCC1=NOC=C1C=O	CCc1nocc1C=O	
InChI=1S/C6H7NO2/c1-2-6-5(3-8)4-9-7-6/h3-4H,2H2,1H3	InChI=1S/C6H7NO2/c1-2-6-5(3-8)4-9-7-6/h3-4H,2H2,1H3
