18
gdb 55402	2.69541	1.53134	1.00164	4.7501	75.15	-0.2439	0.0112	0.2551	1160.1753	0.149992	-435.32832	-435.319788	-435.318844	-435.361814	31.497	
C	 0.0213260369	 1.4709374494	 0.1191345693	-0.433702
C	 0.0345536711	-0.0300499862	 0.003050455	 0.381251
N	 1.1570456656	-0.6351608032	-0.0734241984	-0.516285
N	-1.2039562005	-0.6922001006	 0.0108783554	-0.171964
C	-1.2870384064	-2.1478260599	-0.0674127112	-0.180537
C	-2.7868322744	-2.4251091254	 0.1533598946	-0.187704
N	-3.3741008623	-1.1601911295	-0.2483241017	-0.35325
C	-2.4797824978	-0.1124653351	-0.1315922223	 0.467297
O	-2.7580805035	 1.063416719	-0.1651067036	-0.4034
H	 1.0584013575	 1.8023991554	 0.1616976775	 0.133769
H	-0.4888960068	 1.9292337062	-0.7302292897	 0.15266
H	-0.5184709192	 1.7964478429	 1.0114647793	 0.14051
H	 1.0556427161	-1.6455838957	-0.1618771345	 0.206127
H	-0.952643694	-2.5047270976	-1.0502759186	 0.128337
H	-0.6670596078	-2.6208333436	 0.6986695462	 0.133292
H	-3.1421193269	-3.2561945061	-0.4612263689	 0.126169
H	-2.9919939792	-2.6625470396	 1.2064262484	 0.118078
H	-4.3405364983	-0.9432964403	-0.0637824069	 0.25935
64.1104	118.0909	188.9942	206.6306	221.0583	249.9311	389.0752	409.147	513.3547	561.0559	584.5449	635.841	727.3014	743.6016	768.0768	867.9251	912.2458	963.129	988.2734	1052.0268	1077.3777	1089.2021	1132.6899	1165.287	1212.2769	1235.7741	1251.9128	1282.3468	1344.2323	1371.7133	1414.0277	1422.6529	1442.16	1456.8154	1476.7673	1525.9162	1537.2151	1698.5173	1841.0312	3005.0386	3018.873	3067.2986	3082.0473	3091.234	3132.9024	3166.7191	3485.7432	3646.5656
CC(=N)N1CCNC1=O	C[C]([NH])N1CCNC1=O	
InChI=1S/C5H9N3O/c1-4(6)8-3-2-7-5(8)9/h6H,2-3H2,1H3,(H,7,9)	InChI=1S/C5H9N3O/c1-4(6)8-3-2-7-5(8)9/h6H,2-3H2,1H3,(H,7,9)
