16
gdb 9318	6.55012	0.82821	0.74546	1.7145	69.39	-0.2579	-0.059	0.1989	1465.2561	0.126715	-383.70585	-383.696493	-383.695548	-383.740883	31.556	
C	 0.0785973099	 1.3432562697	 0.0080441601	-0.230671
O	 0.0096698229	-0.0629299815	 0.0015650384	-0.237595
C	-1.3164401523	-0.5430220094	 0.0112651016	-0.06134
C	-1.2529836156	-2.0634971736	 0.0030004055	-0.316237
C	-2.6215871682	-2.7120364301	 0.0123368293	 0.227533
O	-3.6570204485	-2.0804441684	 0.0257104691	-0.291325
C	-2.6204135217	-4.1670755801	 0.0042686128	 0.24337
C	-2.6000244663	-5.3705219484	-0.0024237312	-0.381704
H	 1.1359010603	 1.6187350759	-0.0002197388	 0.127206
H	-0.4103871751	 1.78062063	-0.8767812615	 0.106147
H	-0.3941038445	 1.7716114306	 0.9060275528	 0.106149
H	-1.85905624	-0.1885817948	 0.901592028	 0.103341
H	-1.8752050688	-0.1796406277	-0.8653739953	 0.103314
H	-0.7012890928	-2.4195602378	-0.8764441425	 0.143308
H	-0.6853789053	-2.4283083662	 0.8686460191	 0.143336
H	-2.6007015639	-6.4336582983	-0.0073553174	 0.215169
52.8728	80.9053	98.8916	122.6241	184.535	235.0162	245.3516	309.366	383.0534	514.9404	571.3002	612.948	647.6591	705.6082	808.7568	838.837	994.3332	1051.604	1072.4003	1116.3701	1166.3192	1179.9835	1219.1198	1233.9108	1295.716	1334.5584	1424.3085	1453.2276	1484.1352	1486.0202	1504.8376	1526.31	1764.404	2212.3798	2968.1856	2982.2386	3006.589	3016.1509	3035.9646	3069.6944	3115.3081	3494.6346
COCCC(=O)C#C	COCCC(=O)C#C	
InChI=1S/C6H8O2/c1-3-6(7)4-5-8-2/h1H,4-5H2,2H3	InChI=1S/C6H8O2/c1-3-6(7)4-5-8-2/h1H,4-5H2,2H3
