19
gdb 104535	2.58184	1.23035	1.03741	2.5915	76.49	-0.25	0.0305	0.2804	1213.7297	0.157345	-422.961423	-422.95194	-422.950996	-422.996236	34.729	
O	 0.3440251589	 1.2450310508	-0.4146198536	-0.421632
C	 0.1203552965	-0.0483291194	 0.1081493681	-0.124478
C	-1.345971279	-0.4968105895	 0.0379526229	 0.245775
C	-2.2361859525	 0.1683108628	 1.1033841607	-0.437463
C	-2.2940661663	 1.6271026459	 1.0369727417	 0.286649
C	-2.3459439146	 2.8285471154	 0.9872379633	-0.431943
C	-1.8876186809	-0.5249948045	-1.4105554828	-0.106476
O	-1.8205367288	-1.9683315858	-1.449409038	-0.272087
C	-1.4979930065	-2.0359851727	-0.0495210005	-0.123234
H	-0.1915867688	 1.8687440276	 0.0906088997	 0.287708
H	 0.7247987287	-0.7248220331	-0.505679836	 0.115469
H	 0.4824913265	-0.1396386841	 1.1467874365	 0.084687
H	-3.2558946493	-0.2269518647	 1.0146942227	 0.138507
H	-1.8786858151	-0.1301790909	 2.0987515268	 0.136465
H	-2.4094490523	 3.8881303099	 0.9433675454	 0.207973
H	-2.9167688686	-0.1595465539	-1.5261086917	 0.096767
H	-1.2495448129	-0.0537219412	-2.1638504196	 0.123079
H	-0.594008052	-2.6276379863	 0.1428860805	 0.102445
H	-2.3244581829	-2.4496534563	 0.546002314	 0.091788
54.6284	71.8632	131.9447	148.5453	235.6883	299.7114	324.8191	355.9081	374.4209	432.8407	472.1764	502.5737	631.2051	645.9632	731.8053	845.2684	895.9748	915.4375	927.4007	974.2958	994.6505	1002.8816	1036.7854	1077.8594	1105.4207	1153.444	1157.9116	1161.9107	1192.9718	1295.7389	1307.6956	1313.2857	1334.6769	1380.1949	1394.351	1443.3874	1466.1349	1502.9268	1514.8287	1539.1845	2226.4159	2956.5692	2992.0092	3010.6601	3014.6521	3041.4039	3050.0153	3068.0281	3086.3389	3499.5021	3772.2498
OCC1(CC#C)COC1	OCC1(CC#C)COC1	
InChI=1S/C7H10O2/c1-2-3-7(4-8)5-9-6-7/h1,8H,3-6H2	InChI=1S/C7H10O2/c1-2-3-7(4-8)5-9-6-7/h1,8H,3-6H2
