21
gdb 100549	2.57351	1.00822	0.9248	1.871	79.19	-0.2447	-0.0258	0.2189	1415.416	0.17983	-424.225956	-424.215639	-424.214694	-424.26209	36.613	
C	 0.3877628445	 0.916200243	 0.6169218661	-0.398491
C	 0.0094673388	-0.2834723957	-0.256062205	-0.167449
C	-1.4622352184	-0.711044408	-0.1311923469	-0.073033
C	-2.4562349324	 0.355224718	-0.645493979	-0.40461
C	-1.7187543078	-1.9897056143	-0.9192655725	 0.352582
O	-1.096809344	-2.2925721821	-1.913640936	-0.323498
C	-2.8242492946	-2.9048594191	-0.4540487852	-0.010293
C	-2.8356800342	-3.4389383701	 0.9237959319	-0.175106
O	-3.7481572474	-2.4266663552	 0.5263334546	-0.218029
H	 1.4581779783	 1.1289231812	 0.5360080446	 0.116392
H	-0.14739661	 1.8245385453	 0.3240812404	 0.119807
H	 0.167326198	 0.7271956251	 1.6739951912	 0.111205
H	 0.2263924265	-0.0728371337	-1.3084351819	 0.11598
H	 0.6438601043	-1.1372569433	 0.0105979574	 0.097445
H	-1.7059279112	-0.8975709103	 0.9221011466	 0.087058
H	-2.3573529864	 1.28079902	-0.072935102	 0.124462
H	-2.2649911933	 0.5802293568	-1.6998072161	 0.128296
H	-3.4881610666	 0.009699736	-0.5436826764	 0.139424
H	-3.2488426447	-3.5197886337	-1.2458922477	 0.119395
H	-3.265423416	-4.4239469759	 1.0965711863	 0.132422
H	-2.0661344532	-3.1309307738	 1.6297664197	 0.126043
51.1397	65.9002	92.0884	148.394	193.991	217.0798	228.1161	268.6374	299.8865	342.974	399.4811	492.7015	560.9232	740.2765	753.8374	789.8634	847.9651	876.1313	907.3084	950.299	969.5424	981.8076	1037.9813	1080.9274	1101.9642	1130.9159	1149.8264	1162.6194	1175.4234	1211.1039	1262.6249	1287.6549	1328.1735	1339.4166	1384.3426	1394.7781	1400.4812	1412.6835	1482.4995	1495.9696	1498.7054	1507.741	1514.43	1523.3675	1796.0318	3031.1716	3034.6893	3036.3256	3043.4816	3075.5946	3090.1575	3099.7746	3107.8556	3117.9311	3125.1472	3135.0334	3181.0535
CCC(C)C(=O)C1CO1	CC[C@@H](C)C(=O)[C@H]1CO1	
InChI=1S/C7H12O2/c1-3-5(2)7(8)6-4-9-6/h5-6H,3-4H2,1-2H3	InChI=1S/C7H12O2/c1-3-5(2)7(8)6-4-9-6/h5-6H,3-4H2,1-2H3/t5-,6-/m1/s1
