17
gdb 79692	2.74712	1.76011	1.39363	1.0547	71.41	-0.2489	-0.0074	0.2415	957.2837	0.136419	-421.790284	-421.783029	-421.782084	-421.821823	28.741	
C	-0.3068840654	 1.6442505678	 0.0049486513	-0.446642
C	 0.0447610685	 0.1593069064	 0.0646772593	 0.041313
C	 1.0519086385	-0.5518174203	-0.9087180641	-0.215339
C	 2.4385177635	-0.0351854477	-0.497911177	 0.035187
O	 2.4825883135	 1.2024883226	 0.2186916134	-0.24406
C	 2.3308663829	-0.0013614746	 0.9769937549	 0.035187
C	 0.8976061818	-0.503332085	 1.2053395814	-0.215338
C	 0.9716843566	-1.686850446	 0.174673726	 0.420579
O	 0.9100718951	-2.8731869304	 0.197384862	-0.306768
H	 0.5623458193	 2.2927774996	 0.0534380053	 0.157073
H	-0.8515881311	 1.8504455534	-0.923175626	 0.116817
H	-0.9796982156	 1.8907879133	 0.8339082432	 0.116819
H	-0.8959360276	-0.4012423472	 0.0088772634	 0.099385
H	 0.8333266715	-0.7216670066	-1.9601110364	 0.08604
H	 3.3329938307	-0.311574846	-1.0443988483	 0.116853
H	 3.1356366231	-0.249566525	 1.6595379543	 0.116852
H	 0.5281843348	-0.6257853943	 2.2205179172	 0.08604
142.1807	143.9407	232.5821	292.0617	322.6839	421.5761	547.9361	548.6901	661.4824	697.374	746.7629	758.5862	761.1076	848.3671	856.4779	931.0547	936.888	981.5664	986.0762	1023.344	1059.1174	1075.2098	1086.6934	1101.7096	1108.6872	1172.418	1174.4061	1248.8903	1263.9755	1277.4039	1314.2227	1374.8742	1404.2597	1433.4358	1489.9213	1514.3917	1912.04	3029.6113	3040.3315	3089.129	3152.0155	3153.1839	3178.8315	3188.8152	3196.5399	142.1797	143.9408	232.5821	292.0618	322.6839	421.576	547.9361	548.6901	661.4825	697.3739	746.7628	758.5863	761.1076	848.367	856.4778	931.0546	936.8879	981.5664	986.0761	1023.3439	1059.1174	1075.2097	1086.6932	1101.7095	1108.6871	1172.418	1174.4061	1248.8902	1263.9754	1277.4038	1314.2226	1374.8742	1404.2598	1433.4358	1489.9215	1514.3919	1912.0398	3029.6113	3040.3315	3089.129	3152.0155	3153.1839	3178.8315	3188.8151	3196.5399
CC1C2C3OC3C1C2=O	C[C@H]1[C@H]2[C@H]3O[C@H]3[C@@H]1C2=O	
InChI=1S/C7H8O2/c1-2-3-5(8)4(2)7-6(3)9-7/h2-4,6-7H,1H3	InChI=1S/C7H8O2/c1-2-3-5(8)4(2)7-6(3)9-7/h2-4,6-7H,1H3/t2-,3+,4-,6+,7-
