15
gdb 31089	2.34999	1.49407	0.92331	2.469	65.56	-0.1944	0.0303	0.2247	1200.522	0.112148	-491.098179	-491.089378	-491.088434	-491.131921	31.667	
C	 0.0699091088	 1.4752964984	-0.0312386418	-0.234512
O	 0.0420465533	 0.0502631055	 0.0066430301	-0.266147
C	 0.6030071459	-0.5840625493	-1.0313473791	 0.360013
C	 0.6826563678	-1.9314822104	-1.1906180796	 0.130361
N	 0.2759003929	-3.0186660987	-0.4525205388	-0.595445
O	 1.36269511	-2.1067112494	-2.4433038305	-0.232686
C	 1.5953338045	-0.8628158096	-2.8595194341	 0.470592
O	 2.2283938018	-0.7022037112	-4.0226690006	-0.401048
N	 1.1841747672	 0.0942337336	-2.0940735416	-0.429341
H	 1.096784325	 1.8528664545	-0.056320415	 0.133541
H	-0.4645958169	 1.860834723	-0.9049252755	 0.133536
H	-0.4259664744	 1.8016643798	 0.884200919	 0.127528
H	-0.4322795517	-3.5952000391	-0.8920753696	 0.24448
H	 1.0253434328	-3.6025199124	-0.0995741563	 0.24448
H	 2.4199990429	-1.5765618746	-4.3832707466	 0.31465
60.7178	153.0747	197.4655	199.0105	231.2558	278.8806	290.6453	361.8977	408.9888	412.8286	592.0593	621.344	644.3894	686.279	700.8086	753.4716	844.9918	962.3786	1053.7073	1099.6073	1179.4944	1202.437	1205.7965	1226.2835	1264.6355	1397.3078	1439.348	1482.6903	1494.8985	1504.0974	1656.9286	1690.1724	1759.1739	3036.066	3104.3951	3142.4377	3503.2471	3570.7097	3813.3878
COC1=C(N)OC(O)=N1	COc1c(N)oc(O)n1	
InChI=1S/C4H6N2O3/c1-8-3-2(5)9-4(7)6-3/h5H2,1H3,(H,6,7)	InChI=1S/C4H6N2O3/c1-8-3-2(5)9-4(7)6-3/h5H2,1H3,(H,6,7)
