21
gdb 113537	3.05183	1.03177	0.93046	2.1389	78.83	-0.2578	0.0648	0.3226	1362.3372	0.18108	-424.196541	-424.186968	-424.186024	-424.231508	35.445	
C	-0.2983880897	 1.3907436791	 0.3394174198	-0.388904
C	 0.0396567547	-0.0453091608	-0.0535158868	-0.087813
C	 1.3605762228	-0.21463309	-0.8730347353	-0.230937
C	 2.0826779139	-0.7582286607	 0.3973372208	-0.320774
C	 0.7117792637	-0.8602747035	 1.0678858228	 0.453395
O	 0.4896495684	-0.6514595414	 2.4558106625	-0.303723
C	 0.174872009	-1.9456918726	 1.8941762185	-0.079367
C	-1.2879190473	-2.3041764269	 1.9474534709	-0.079693
O	-1.7044188822	-2.5593604735	 3.2786428259	-0.41829
H	 0.5700350399	 1.8996333175	 0.7712716197	 0.119458
H	-0.6255336644	 1.9633294358	-0.5344710936	 0.113819
H	-1.0974279363	 1.4155822954	 1.0863273716	 0.124176
H	-0.8362933392	-0.5229917549	-0.5034971563	 0.074326
H	 1.2769710201	-0.9607338487	-1.666088036	 0.105267
H	 1.7688260979	 0.7041020789	-1.299752437	 0.103295
H	 2.6539461231	-1.6836346621	 0.2933724988	 0.107143
H	 2.7149399416	-0.0107155407	 0.884325871	 0.118555
H	 0.8555892266	-2.7357851504	 2.2167661266	 0.096156
H	-1.8821361742	-1.5008903278	 1.487114917	 0.091193
H	-1.4722590147	-3.2255878301	 1.383856619	 0.109885
H	-1.4671165638	-1.7786062826	 3.79231766	 0.292834
49.6681	80.0725	129.4197	174.9271	215.1779	226.6331	287.5097	360.6061	414.9413	432.8791	502.6789	535.8193	594.5357	732.9855	784.348	806.2325	878.3779	886.9625	934.3646	948.5762	975.9532	1030.8563	1045.1268	1078.473	1085.7873	1110.5155	1139.6172	1174.0791	1178.146	1221.5881	1224.236	1242.0036	1260.2737	1278.9059	1327.9899	1347.8864	1379.4386	1407.0714	1424.9287	1472.3415	1482.5651	1491.5801	1493.2161	1497.3597	1514.9528	2995.311	3033.4897	3049.162	3061.441	3068.9911	3071.0605	3099.2528	3102.4118	3107.6129	3109.34	3126.5989	3798.4979
CC1CCC11OC1CO	C[C@H]1CC[C@]21O[C@H]2CO	
InChI=1S/C7H12O2/c1-5-2-3-7(5)6(4-8)9-7/h5-6,8H,2-4H2,1H3	InChI=1S/C7H12O2/c1-5-2-3-7(5)6(4-8)9-7/h5-6,8H,2-4H2,1H3/t5-,6-,7+/m0/s1
