14
gdb 45935	2.86892	1.43412	1.01021	3.6681	63.78	-0.252	-0.1002	0.1518	1089.945	0.100732	-473.882034	-473.874145	-473.873201	-473.915274	28.513	
O	-0.0493805123	-0.0823460518	 0.4545090843	-0.344753
C	-0.0112538241	 1.1056837159	 0.2257408475	 0.390801
C	-1.2573250025	 1.9189236244	-0.1454946233	-0.441405
C	-1.2476272229	 3.3051530666	 0.4644248659	 0.311187
O	-2.1645373452	 3.8005101004	 1.0631710561	-0.262875
C	 0.0818235727	 4.0790330358	 0.2571599073	 0.313924
O	 0.1426277455	 5.2737105751	 0.363704284	-0.261232
C	 1.2860584638	 3.2240103428	-0.1357551188	-0.281675
N	 1.1408374469	 1.8430968241	 0.2957496952	-0.314767
H	-1.2648249667	 2.0257500819	-1.2409267716	 0.155276
H	-2.1501998077	 1.3691144284	 0.1494847591	 0.167025
H	 1.4228905409	 3.3130292684	-1.2264519097	 0.145264
H	 2.1695003845	 3.664486527	 0.3316873575	 0.16111
H	 1.975713197	 1.306016261	 0.4807425665	 0.26212
53.9381	96.5231	151.0699	291.8483	350.6648	406.8664	417.9714	448.0746	526.5589	566.9672	606.2427	646.5305	672.1535	784.6041	867.6752	898.2813	1000.7794	1064.1334	1082.6002	1149.0353	1212.0805	1247.7559	1259.4005	1314.4028	1365.8623	1436.6316	1456.8135	1493.0909	1813.4416	1829.1061	1844.7983	2971.1491	3014.9295	3108.4224	3152.488	3613.1529
O=C1CC(=O)C(=O)CN1	O=C1CC(=O)C(=O)CN1	
InChI=1S/C5H5NO3/c7-3-1-5(9)6-2-4(3)8/h1-2H2,(H,6,9)	InChI=1S/C5H5NO3/c7-3-1-5(9)6-2-4(3)8/h1-2H2,(H,6,9)
