20
gdb 40136	2.99562	1.41045	1.08889	1.4153	87.22	-0.2225	0.0133	0.2357	1156.1858	0.173111	-365.993229	-365.985238	-365.984293	-366.02592	31.698	
C	 0.0113685425	 1.5572656296	-0.0657003399	-0.272548
N	 1.261860359	 0.796870215	 0.0443785275	-0.360398
C	-0.0282665451	 0.0653216385	 0.0073584159	 0.317069
C	-0.3676396088	-0.6123856709	 1.326637875	-0.334881
C	-1.8389274061	-0.8983797874	 1.5014237313	-0.063126
C	-2.5359886318	-1.7212460861	 0.7225393545	-0.044123
C	-1.976882113	-2.4931853849	-0.4514949807	-0.323595
C	-1.1197530805	-1.7314249884	-1.4374033387	-0.079302
C	-0.3465923697	-0.6598939462	-1.2478603117	-0.085523
H	-0.250298291	 2.1432195138	 0.8119948785	 0.116785
H	-0.2373923356	 2.0288974557	-1.0131487236	 0.109803
H	 1.7204201162	 0.7428216331	-0.8627818997	 0.226701
H	 0.2056645221	-1.5487206058	 1.3794884338	 0.112398
H	 0.0041051519	 0.0184054224	 2.1375398358	 0.109005
H	-2.3460773619	-0.3975741111	 2.3220686538	 0.086537
H	-3.5901597434	-1.8808617771	 0.9354856714	 0.087876
H	-1.4088928177	-3.3630162638	-0.0790728651	 0.127512
H	-2.8096413541	-2.9331596099	-1.011108359	 0.109272
H	-1.1627556332	-2.1235993901	-2.4516172234	 0.088401
H	 0.1494804701	-0.2473732166	-2.1274995056	 0.072138
59.1937	119.7234	252.9096	299.592	338.5451	345.1126	400.3999	445.2606	536.442	603.2776	677.0686	712.9731	761.6343	812.0424	855.2469	895.3871	906.0234	916.3396	960.3664	970.4463	984.3424	992.0889	1001.2083	1012.5499	1066.5177	1088.076	1134.7236	1186.1915	1215.1816	1252.955	1255.7151	1267.2789	1319.4684	1342.1792	1371.435	1389.246	1410.5951	1444.4845	1465.4571	1483.7473	1511.0485	1725.1565	1735.2757	2964.4104	3010.8511	3053.497	3095.9558	3100.7542	3107.2587	3144.4562	3146.5954	3169.2004	3185.2989	3485.9091
C1NC11CC=CCC=C1	C1N[C@]21CC=CCC=C2	
InChI=1S/C8H11N/c1-2-4-6-8(5-3-1)7-9-8/h1,3-4,6,9H,2,5,7H2	InChI=1S/C8H11N/c1-2-4-6-8(5-3-1)7-9-8/h1,3-4,6,9H,2,5,7H2/t8-/m1/s1
