14
gdb 126832	4.8845	1.13203	0.99477	5.7142	68.68	-0.2478	-0.0988	0.149	1156.8681	0.099728	-466.11101	-466.103127	-466.102183	-466.144252	28.083	
C	 0.020920346	 1.5087683164	 0.0085428153	-0.385601
C	-0.0443209322	-0.016315012	 0.003344826	-0.133447
N	-1.4231004843	-0.5259476121	 0.0134066677	 0.055825
N	-2.0699860558	-0.5081717201	 1.2003746236	-0.031491
N	-3.2633293059	-0.9282434645	 1.2271662583	-0.192597
C	-3.7676099735	-1.5032281529	 0.0300914566	 0.454444
O	-4.5771165583	-2.387355405	 0.0337472248	-0.285257
N	-3.2842461761	-0.9190085073	-1.1711336156	-0.192596
N	-2.0905893366	-0.4990739716	-1.1619254562	-0.031492
H	 1.0657577036	 1.8310712196	 0.0006861126	 0.138123
H	-0.4744390872	 1.918838852	-0.8752842043	 0.150322
H	-0.4589828013	 1.9121102698	 0.9039189607	 0.150318
H	 0.4237910574	-0.4354311559	-0.8890889677	 0.151723
H	 0.4391973141	-0.4421326465	 0.8843181583	 0.151725
56.0229	84.9887	158.5034	218.9517	337.9002	400.5598	408.0964	457.0315	541.1309	593.201	669.5215	725.376	787.2974	809.7084	849.5874	909.218	971.9889	1025.5891	1105.15	1140.3423	1224.5069	1286.4649	1335.8934	1388.4096	1411.3942	1471.7147	1474.5934	1489.8645	1503.1938	1540.3815	1847.6597	3052.0604	3089.9187	3127.3213	3130.5239	3151.6164
CCN1N=NC(=O)N=N1	CCn1nnc(=O)nn1	
InChI=1S/C3H5N5O/c1-2-8-6-4-3(9)5-7-8/h2H2,1H3	InChI=1S/C3H5N5O/c1-2-8-6-4-3(9)5-7-8/h2H2,1H3
