20
gdb 86804	4.90014	0.69867	0.68049	2.7952	78.32	-0.2419	0.0353	0.2772	1699.2822	0.169578	-440.309342	-440.299295	-440.298351	-440.346408	35.787	
C	 0.5600535349	 1.4674899645	-0.1847463052	-0.484792
C	 0.2929173762	-0.0296809707	-0.23336884	 0.406638
O	 1.1171391718	-0.817513774	-0.6611952841	-0.373504
N	-0.9348819378	-0.4159215094	 0.232540405	-0.324327
C	-1.3743199248	-1.7866402479	 0.2565515613	 0.069631
C	-1.9523314618	-2.3643401349	 1.5771590277	-0.26707
C	-2.9816496269	-3.1423245852	 0.7323581482	 0.145616
O	-4.2693703535	-3.1728622368	 1.3014963229	-0.430722
C	-2.7071673196	-2.1659300404	-0.4476041526	-0.290767
H	 1.4872183905	 1.6393995343	 0.367567439	 0.15299
H	 0.7168148316	 1.8294928308	-1.2046641719	 0.15219
H	-0.2440648189	 2.0466398389	 0.2771159736	 0.108546
H	-1.5696700107	 0.2903673138	 0.5681275467	 0.238969
H	-0.5369211019	-2.3769497771	-0.1163300493	 0.12514
H	-1.2857099963	-2.9190654892	 2.2400625419	 0.109176
H	-2.4738205805	-1.5916416476	 2.1520032811	 0.105155
H	-2.6229875589	-4.1546068616	 0.4998647166	 0.073017
H	-4.8436021273	-3.6877104243	 0.7256851523	 0.28312
H	-3.4242267233	-1.33911653	-0.4072399454	 0.098171
H	-2.659047643	-2.5583659934	-1.4660521678	 0.102823
25.3707	41.4088	73.2203	94.2418	199.216	271.3664	320.7136	325.8159	428.1554	437.6893	469.2217	472.6413	561.0532	634.5305	662.8641	803.7016	813.633	911.8556	940.2296	960.7686	1004.0584	1020.3728	1037.6686	1053.0067	1082.6612	1120.6167	1187.9854	1206.5473	1209.2222	1250.3448	1264.6432	1270.935	1285.561	1327.9802	1374.3163	1396.9063	1430.6848	1466.6829	1470.3781	1486.2446	1499.2259	1537.8531	1779.661	3003.8964	3048.2066	3048.7589	3056.7335	3109.6597	3117.2101	3124.4616	3130.4901	3131.4716	3637.1116	3816.9881
CC(=O)NC1CC(O)C1	CC(=O)N[C@H]1C[C@@H](O)C1	
InChI=1S/C6H11NO2/c1-4(8)7-5-2-6(9)3-5/h5-6,9H,2-3H2,1H3,(H,7,8)	InChI=1S/C6H11NO2/c1-4(8)7-5-2-6(9)3-5/h5-6,9H,2-3H2,1H3,(H,7,8)/t5-,6+
