20
gdb 59316	2.70345	1.22649	1.0405	5.1908	77.08	-0.2347	0.0458	0.2805	1237.785	0.169187	-440.30939	-440.299346	-440.298401	-440.344849	35.934	
C	 0.0873740673	 1.5910318279	-0.0639534355	-0.416019
C	 0.0543179663	 0.0613960255	-0.0071209888	 0.109143
O	 0.7580423492	-0.4417799927	 1.1196094845	-0.431353
C	-1.3624177543	-0.5145082669	 0.0570827723	 0.032114
C	-1.4753875981	-2.0647218188	 0.1683950879	-0.408702
C	-2.1972981384	-1.7999539248	 1.5055280781	 0.42104
O	-2.7141842598	-2.4582493525	 2.3710437565	-0.380648
N	-2.0557917406	-0.4429898762	 1.3513114906	-0.051693
C	-2.4594603139	 0.6369840868	 2.2131602695	-0.347197
H	 1.1194991884	 1.9488931549	-0.1510257715	 0.110501
H	-0.4637659654	 1.9627280205	-0.9340542474	 0.119792
H	-0.3465796305	 2.0306582545	 0.8378817188	 0.131811
H	 0.4971430428	-0.3271834429	-0.940872649	 0.074743
H	 1.6692680026	-0.1383374566	 1.0663232345	 0.28714
H	-1.9521881295	-0.0859121666	-0.7642357849	 0.074712
H	-2.0847729752	-2.5539824764	-0.5932502566	 0.122426
H	-0.5194942989	-2.5771156482	 0.2808157412	 0.139279
H	-3.0963566982	 0.2092365408	 2.9918732538	 0.158491
H	-1.6014174666	 1.1219405395	 2.6932614991	 0.133418
H	-3.0323017973	 1.3936718521	 1.6639303169	 0.121003
42.2385	81.3136	125.667	183.6454	212.2867	229.3083	258.0845	276.2758	285.0845	336.2282	447.5951	517.9054	561.4906	630.9182	715.0533	745.9924	822.8574	903.2322	969.6086	986.5202	1019.8001	1061.7035	1079.8988	1089.5147	1129.5454	1146.1724	1171.9791	1197.6751	1217.3203	1254.3567	1300.8988	1353.2267	1394.5841	1402.9404	1410.8498	1422.1593	1442.1357	1459.8201	1484.0436	1494.3693	1499.6438	1517.5936	1878.6679	2949.7311	3014.1474	3017.8382	3034.2585	3070.6028	3090.1991	3097.0198	3122.1586	3125.4366	3153.9721	3828.8418
CC(O)C1CC(=O)N1C	C[C@@H](O)[C@H]1CC(=O)N1C	
InChI=1S/C6H11NO2/c1-4(8)5-3-6(9)7(5)2/h4-5,8H,3H2,1-2H3	InChI=1S/C6H11NO2/c1-4(8)5-3-6(9)7(5)2/h4-5,8H,3H2,1-2H3/t4-,5-/m1/s1
