19
gdb 78860	2.81096	1.79666	1.37918	2.602	78.53	-0.2313	0.0741	0.3054	987.1219	0.160556	-381.971678	-381.964308	-381.963364	-382.003048	30.109	
C	 0.0726202412	 1.5970554204	-0.1147672006	-0.431822
C	 0.1065924702	 0.0795504271	-0.1136450258	 0.088974
C	 0.7362324143	-0.7411989516	-1.2673876763	-0.226316
C	 1.2411739766	-1.6965534943	-0.1132956199	-0.036587
C	 2.3564550874	-0.7355753769	 0.0839503549	-0.141591
N	 1.0619881452	-0.5829752452	 0.8490177805	-0.164681
C	 2.1766061309	-0.2163238833	-1.3210553288	 0.426977
C	 3.1195904944	-0.3472116512	-2.446532406	-0.334261
N	 2.7351028811	 0.9873952073	-1.9169617303	-0.382177
H	 1.0604657196	 2.026627354	-0.2964489943	 0.146222
H	-0.6168003277	 1.9672192527	-0.8823162479	 0.109419
H	-0.2821096208	 1.9596436174	 0.8553376969	 0.127773
H	-0.8832779327	-0.3216415958	 0.1292530654	 0.079603
H	 0.1955659074	-1.0020278046	-2.176567147	 0.069752
H	 1.120595185	-2.7471789495	 0.112243296	 0.100806
H	 3.259503251	-0.829278591	 0.6714025006	 0.102353
H	 4.1564488827	-0.6211684914	-2.2699899805	 0.121832
H	 2.7294081026	-0.656880586	-3.4131933851	 0.112777
H	 2.0593427617	 1.427644032	-2.5373073619	 0.230946
158.4828	200.0495	223.7248	286.7487	308.1671	351.5102	487.0813	577.0631	636.3848	710.0482	754.0873	786.3149	827.1837	872.8258	883.1607	890.2423	916.0785	921.7387	961.5022	978.849	986.2011	1022.6714	1041.9946	1070.628	1098.5085	1123.2753	1129.2487	1153.5493	1171.9961	1196.3359	1219.1587	1257.3532	1271.2893	1277.4773	1319.0423	1390.8054	1412.8417	1440.5028	1490.0795	1506.8412	1522.4396	3034.8782	3048.4728	3099.4426	3101.8044	3121.6464	3130.3072	3185.9372	3205.9118	3220.0941	3493.8438
CC1C2C3C(N13)C21CN1	C[C@H]1[C@@H]2[C@H]3[C@H](N13)[C@]12CN1	
InChI=1S/C7H10N2/c1-3-4-5-6(9(3)5)7(4)2-8-7/h3-6,8H,2H2,1H3	InChI=1S/C7H10N2/c1-3-4-5-6(9(3)5)7(4)2-8-7/h3-6,8H,2H2,1H3/t3-,4+,5-,6-,7+,9?/m0/s1
