19
gdb 118930	2.4991	1.16397	1.06122	3.3385	71.96	-0.2501	0.003	0.2531	1265.3796	0.156932	-460.18337	-460.173676	-460.172732	-460.218577	34.393	
C	 0.1058543483	 1.5079986396	 0.0044003741	-0.383526
C	-0.0382405206	-0.0035712182	 0.0282200422	-0.069132
O	 0.48344575	-0.5049098359	-1.2060396887	-0.297283
C	 0.6465964265	-1.8983935125	-1.2898128952	 0.222383
C	-0.6527044589	-2.6903008203	-1.1994162041	-0.464814
C	 1.5947310261	-2.2588439652	-2.4524647224	-0.119189
O	 2.5762831522	-2.8003719319	-1.5077983929	-0.240396
C	 1.8106565227	-2.4567851855	-0.4257866664	 0.417774
O	 2.0759731723	-2.5813857676	 0.7275658355	-0.332681
H	 1.158196702	 1.7932985863	-0.0774829402	 0.130576
H	-0.4331465498	 1.9327621957	-0.8473610101	 0.126355
H	-0.3017548481	 1.939768508	 0.9231875436	 0.120051
H	 0.5134710742	-0.4380158603	 0.8711550586	 0.128061
H	-1.09549778	-0.2848166975	 0.1357037016	 0.095581
H	-1.3684923039	-2.3142395922	-1.9369487422	 0.132662
H	-0.472161598	-3.7516416454	-1.3932550968	 0.132456
H	-1.096596794	-2.6061772551	-0.2044234203	 0.142971
H	 1.2567537156	-3.0313223668	-3.1451647319	 0.122531
H	 1.9962249435	-1.3924024551	-2.9787548647	 0.13562
50.7265	86.6708	117.3509	166.132	205.961	233.2053	246.5499	304.9334	337.8444	395.2203	424.3818	567.7258	710.4521	746.9667	776.405	824.8702	870.0416	904.8065	949.4113	963.2233	987.2029	1085.3227	1105.2228	1131.789	1156.0494	1180.3776	1191.642	1227.7328	1252.0535	1304.3128	1353.9197	1401.4949	1405.1031	1429.1536	1483.0683	1483.8665	1495.4713	1500.8038	1506.6368	1529.2435	1924.7513	3000.3773	3043.6986	3046.0607	3053.4598	3081.2187	3118.0077	3121.0345	3124.7145	3126.6727	3151.9571
CCOC1(C)COC1=O	CCO[C@@]1(C)COC1=O	
InChI=1S/C6H10O3/c1-3-9-6(2)4-8-5(6)7/h3-4H2,1-2H3	InChI=1S/C6H10O3/c1-3-9-6(2)4-8-5(6)7/h3-4H2,1-2H3/t6-/m0/s1
