27
gdb 102643	2.18882	0.88419	0.74895	1.6017	93.03	-0.262	0.0745	0.3365	1737.777	0.24955	-390.700942	-390.688799	-390.687855	-390.738501	44.052	
C	-0.4266640362	 1.7075349903	-0.2142761087	-0.391316
C	-0.1872505628	 0.1977232309	-0.1036335691	-0.182041
C	 0.8154479657	-0.380491529	-1.1266210032	 0.024384
C	 2.2466530317	 0.0268890433	-0.7603197189	-0.079894
O	 3.0854654309	-0.111635668	-1.9025989753	-0.414194
C	 0.6334729518	-1.9095726987	-1.2247595631	-0.178643
C	 1.4830274551	-2.6862104247	-2.2503468797	 0.043124
C	 1.2041227414	-4.1901803191	-2.1160881298	-0.388085
C	 1.2356347885	-2.2141517823	-3.6895718283	-0.384823
H	 0.485247085	 2.2885172892	-0.0439746857	 0.116267
H	-0.8047066952	 1.9724527326	-1.2078596634	 0.117054
H	-1.1657880712	 2.0400463198	 0.5216117107	 0.111735
H	 0.1492297722	-0.0513811318	 0.9128676361	 0.090819
H	-1.1464706484	-0.3177263424	-0.2314970224	 0.095161
H	 0.5987737493	 0.0715100544	-2.1034449829	 0.082445
H	 2.2623515977	 1.0685203623	-0.4075102207	 0.084538
H	 2.6021592652	-0.6039322982	 0.0719756159	 0.082165
H	 3.9824919275	 0.1228423318	-1.6476425532	 0.284954
H	 0.8146174504	-2.3360604223	-0.2267362668	 0.080752
H	-0.4258712352	-2.1088257939	-1.4431318666	 0.083252
H	 2.5406013763	-2.5122431875	-2.024531774	 0.08067
H	 0.155355584	-4.4191487339	-2.3432253254	 0.105815
H	 1.8251886229	-4.7710600708	-2.8062860044	 0.104628
H	 1.407473064	-4.5477983057	-1.1005276935	 0.102407
H	 0.1726870199	-2.2890556927	-3.9527337791	 0.098481
H	 1.5544339475	-1.1786971594	-3.8284844906	 0.129243
H	 1.7945834218	-2.8310645943	-4.4017181478	 0.1011
63.2703	72.9411	90.8545	120.4365	144.9804	213.9849	223.6868	233.6445	254.0216	266.6824	281.7087	312.1684	374.459	410.6778	416.1436	480.36	519.7079	769.2909	813.6854	843.9568	895.8347	912.6346	928.858	961.8235	967.6634	995.7951	1042.0677	1061.2081	1066.8219	1095.1913	1128.178	1169.7306	1177.2366	1194.0438	1243.7475	1253.895	1278.7587	1301.645	1312.1957	1338.2784	1362.0877	1373.7969	1392.0235	1394.517	1396.681	1415.2743	1419.0824	1458.4201	1475.8627	1487.0609	1491.4213	1494.5116	1500.5267	1503.808	1506.8872	1515.0591	1519.8018	2958.7838	2987.4629	3000.6707	3008.6303	3015.7282	3017.4595	3022.5353	3032.1899	3034.9123	3051.3653	3054.4075	3079.764	3088.7031	3093.7346	3099.1027	3103.4167	3122.7042	3829.0572
CCC(CO)CC(C)C	CC[C@@H](CO)CC(C)C	
InChI=1S/C8H18O/c1-4-8(6-9)5-7(2)3/h7-9H,4-6H2,1-3H3	InChI=1S/C8H18O/c1-4-8(6-9)5-7(2)3/h7-9H,4-6H2,1-3H3/t8-/m1/s1
