15
gdb 35377	3.89423	1.48752	1.31941	5.9476	67.87	-0.2336	0.0191	0.2527	946.5787	0.114805	-416.751505	-416.744939	-416.743995	-416.782561	25.989	
N	-0.0030059222	-1.1554540362	-0.1296974341	-0.323484
C	 0.0041229405	-0.0057021818	-0.0240697743	 0.300805
C	 0.0017626072	 1.4597972525	 0.0201103575	 0.006439
O	-0.5839644467	 1.9152696134	 1.2454205984	-0.264414
C	 0.1836503882	 3.020547554	 1.6764210919	 0.116825
C	 1.6605820059	 2.8260130859	 1.9461281767	-0.057349
N	 2.0755292367	 1.5695321676	 1.2870656028	-0.315058
C	 1.4106441138	 2.0749634371	 0.0302691815	-0.078826
C	 1.1728054168	 3.478816793	 0.6540704548	-0.166482
H	-0.5814266551	 1.8319997077	-0.836270121	 0.118874
H	-0.3798576013	 3.7195909958	 2.2810414382	 0.119461
H	 2.1754658993	 3.2307472284	 2.8095625312	 0.105708
H	 3.0820404354	 1.5975767881	 1.1451936165	 0.230957
H	 1.9750686039	 1.963338001	-0.8932325569	 0.102527
H	 1.2658777576	 4.4564377937	 0.198896627	 0.104017
113.1073	157.3248	300.7169	377.0324	486.5122	523.4358	552.8299	688.3768	716.8833	756.0864	794.8365	822.7717	851.9452	912.3174	927.2614	940.0324	999.7042	1015.2687	1026.1729	1036.6855	1060.4049	1066.3295	1113.8128	1125.1863	1186.8646	1235.0334	1241.99	1288.3173	1342.4145	1352.216	1369.8058	1426.3526	2370.0089	2991.9615	3143.5914	3181.6856	3191.0935	3209.34	3497.8022
N#CC1OC2C3NC1C23	N#C[C@H]1O[C@H]2[C@H]3N[C@@H]1[C@@H]23	
InChI=1S/C6H6N2O/c7-1-2-4-3-5(8-4)6(3)9-2/h2-6,8H	InChI=1S/C6H6N2O/c7-1-2-4-3-5(8-4)6(3)9-2/h2-6,8H/t2-,3-,4+,5+,6-/m1/s1
