21
gdb 110105	1.98501	1.2876	0.9922	0.9614	76.08	-0.2359	0.0689	0.3048	1309.8792	0.179201	-461.325426	-461.314728	-461.313784	-461.36061	38.999	
C	 0.0057310533	 1.0670197437	-0.6148295812	-0.24956
O	-0.142922156	 0.0354422879	 0.3530626706	-0.246735
C	-1.3302717587	-0.6714968267	 0.2128740728	 0.045199
C	-1.39768264	-1.8678483296	-0.7343267618	-0.127396
C	-0.2383539619	-2.2456206269	-1.6248006549	-0.091218
O	-0.2061589108	-1.496328148	-2.8383970231	-0.40936
C	-1.3791974814	-2.0707613473	 0.7651235469	 0.310808
C	-0.1889023975	-2.652199336	 1.4932506239	-0.451528
O	-2.6254891958	-2.5017925495	 1.2572823595	-0.464042
H	 0.9666511068	 1.5486485047	-0.4191117343	 0.122431
H	-0.0067977117	 0.6600023228	-1.6325646323	 0.139806
H	-0.7931255334	 1.8173769332	-0.5162052855	 0.10184
H	-2.2382107797	-0.0738076874	 0.3123767944	 0.083488
H	-2.3788490328	-2.0454541986	-1.1710960099	 0.088208
H	 0.7132596983	-2.0345190669	-1.1328009185	 0.120875
H	-0.2680710176	-3.3249097425	-1.8392374912	 0.097131
H	-1.044759429	-1.6344785815	-3.2906127965	 0.280685
H	 0.7497403404	-2.224810697	 1.1384100895	 0.140168
H	-0.2627938561	-2.4242472962	 2.5637994979	 0.1084
H	-0.159209711	-3.7405395055	 1.3826889369	 0.122739
H	-2.7041817154	-2.1896569428	 2.1664583068	 0.278062
107.9884	129.1875	142.7809	152.9521	186.8976	208.2492	236.1783	268.1604	288.2994	320.4445	337.2771	356.6302	430.2904	489.811	518.0667	636.9308	717.8136	852.8285	887.5589	961.1337	991.8303	1010.8739	1018.1908	1060.2984	1078.4117	1098.7457	1128.0297	1162.4684	1186.4844	1200.5147	1242.4204	1261.8676	1286.8408	1337.801	1346.2025	1381.3802	1410.5377	1431.7422	1447.7575	1484.8247	1488.9304	1490.1429	1503.7087	1509.4098	1519.1626	2987.4296	2989.9032	3029.6959	3068.0116	3084.6915	3091.1025	3107.6698	3122.9419	3129.4316	3144.2575	3782.8948	3814.2021
COC1C(CO)C1(C)O	CO[C@H]1[C@@H](CO)[C@]1(C)O	
InChI=1S/C6H12O3/c1-6(8)4(3-7)5(6)9-2/h4-5,7-8H,3H2,1-2H3	InChI=1S/C6H12O3/c1-6(8)4(3-7)5(6)9-2/h4-5,7-8H,3H2,1-2H3/t4-,5+,6+/m1/s1
