18
gdb 30799	2.26515	1.31583	0.87031	2.3424	77.87	-0.1827	0.0353	0.218	1324.1153	0.1469	-439.118923	-439.109122	-439.108177	-439.154131	35.127	
C	-0.0741958422	 1.4739921734	 0.0686307659	-0.503199
C	-0.0328212986	-0.0160164428	-0.0193924588	 0.328736
C	 0.2298389366	-0.8442190331	-1.09428439	-0.370722
C	 0.1634452629	-2.18401008	-0.6204031009	 0.253206
O	 0.3471567643	-3.3387652382	-1.3298114613	-0.453073
C	-0.1435850357	-2.1570951065	 0.7230235608	 0.170622
C	-0.3307801435	-3.2440087373	 1.7193157979	-0.189831
O	 0.4885532938	-3.0786511478	 2.8834886827	-0.423488
N	-0.2705190733	-0.8175014096	 1.061610602	-0.345165
H	 0.6621630274	 1.8666821901	 0.7812402421	 0.127124
H	 0.1466042357	 1.9119421504	-0.9073557641	 0.135921
H	-1.0589154161	 1.8418942848	 0.3825131913	 0.129581
H	 0.4385329264	-0.5212408075	-2.1040616712	 0.084346
H	 0.5797619579	-3.1057521817	-2.2326224135	 0.295629
H	-1.3546554012	-3.2672397335	 2.1137220959	 0.109415
H	-0.1513310549	-4.2069560607	 1.2226769315	 0.114281
H	 1.399007466	-3.018584335	 2.5735995627	 0.277279
H	-0.3962651155	-0.5003546649	 2.007797647	 0.259338
51.2509	83.0657	122.9718	176.5077	200.8348	238.1068	270.2151	308.7977	371.8721	398.0556	461.0626	526.6041	597.9942	633.7693	664.0253	694.7652	746.1547	822.0459	959.6126	1001.842	1015.8727	1032.1684	1059.2152	1107.4644	1179.8202	1190.3841	1241.637	1291.1474	1338.1489	1371.3922	1414.7961	1420.8012	1449.2671	1479.7704	1499.4997	1500.8829	1509.168	1560.8734	1676.305	3012.4519	3017.3025	3047.2078	3061.4627	3123.2123	3230.8511	3671.6484	3800.0252	3849.1429
CC1=CC(O)=C(CO)N1	Cc1cc(O)c(CO)[nH]1	
InChI=1S/C6H9NO2/c1-4-2-6(9)5(3-8)7-4/h2,7-9H,3H2,1H3	InChI=1S/C6H9NO2/c1-4-2-6(9)5(3-8)7-4/h2,7-9H,3H2,1H3
