21
gdb 105390	1.91551	1.26441	0.9323	4.1477	80.	-0.2689	0.0063	0.2753	1371.1147	0.17973	-424.244424	-424.234225	-424.233281	-424.279651	36.931	
C	-0.2716186952	 1.5070229303	-0.9865227348	-0.378406
C	-0.0432591267	 0.2491842191	-0.1396683308	-0.246511
C	-1.3322260134	-0.4661540372	 0.2098621715	 0.405068
C	-2.0250620929	-1.3570107863	-0.7793199732	-0.336531
C	-1.4329621453	-1.9506264847	 0.4837839093	-0.064796
C	-0.2486183328	-2.8914288045	 0.448986475	-0.414283
O	-2.2375878146	 0.3667974659	 0.9403799901	-0.228538
C	-2.0378958523	 0.4657091034	 2.270584674	 0.156215
O	-2.6973318657	 1.1759364889	 2.9692788701	-0.277577
H	 0.6773496263	 2.0067392953	-1.2009523156	 0.114165
H	-0.7461212137	 1.2556928588	-1.9405327916	 0.120646
H	-0.9220197022	 2.2159469487	-0.4678151549	 0.13997
H	 0.6117498237	-0.4443605598	-0.6759201094	 0.105774
H	 0.4844694581	 0.5148990166	 0.7860292854	 0.101309
H	-3.1031129351	-1.2760469125	-0.8530715396	 0.131696
H	-1.5147444942	-1.5446174853	-1.7188914052	 0.115641
H	-2.173088855	-2.2003072689	 1.2398701352	 0.102071
H	 0.4482463614	-2.6438795994	-0.3563791151	 0.121564
H	 0.3091473537	-2.8727576339	 1.3916676421	 0.122846
H	-0.5860732028	-3.9198762532	 0.2823271231	 0.127222
H	-1.2172591314	-0.1820313212	 2.6315829744	 0.082455
77.9135	112.1138	135.5658	158.8842	174.9717	203.1711	221.486	264.9001	298.9722	382.1602	417.4996	458.7681	549.0866	569.4513	756.387	793.7691	817.1582	881.4455	926.7867	953.8412	990.4101	1031.2655	1043.9562	1054.3911	1066.0859	1103.98	1127.9391	1144.069	1176.4293	1190.9435	1226.7481	1290.5083	1327.0923	1376.3172	1405.533	1413.8072	1420.6405	1427.7051	1475.4499	1489.1443	1492.8901	1496.8769	1504.6679	1510.7512	1862.6412	2964.4939	3022.4567	3033.8867	3044.0593	3079.8387	3093.8666	3108.8275	3111.6847	3126.0398	3133.7744	3142.9144	3225.9256
CCC1(CC1C)OC=O	CC[C@]1(C[C@H]1C)OC=O	
InChI=1S/C7H12O2/c1-3-7(9-5-8)4-6(7)2/h5-6H,3-4H2,1-2H3	InChI=1S/C7H12O2/c1-3-7(9-5-8)4-6(7)2/h5-6H,3-4H2,1-2H3/t6-,7-/m1/s1
