20
gdb 98673	4.06982	0.89425	0.79506	2.7105	78.02	-0.2361	0.0554	0.2915	1505.0887	0.170165	-440.314895	-440.304959	-440.304015	-440.350795	34.364	
C	 0.0383066309	 1.4190866666	-0.2686048709	-0.228683
O	-0.0140491969	-0.0015346771	-0.1292461304	-0.258044
C	-1.2706199267	-0.5195815208	-0.1197196839	 0.497082
O	-2.2878252207	 0.1345113913	-0.2031381296	-0.426057
N	-1.2214720399	-1.8712422561	-0.0206956943	-0.135745
C	-0.1635754719	-2.7689353716	 0.451800024	-0.184783
C	-1.2616108828	-3.8429349576	 0.7281838865	 0.011738
C	-1.3339589007	-4.4138548457	 2.1352822028	-0.402755
C	-2.3214897199	-2.7626697242	 0.3441308451	-0.180241
H	 1.097026808	 1.6802147745	-0.2452388601	 0.126436
H	-0.4091813581	 1.7352347352	-1.2147988448	 0.136911
H	-0.493122036	 1.9123640358	 0.5495705794	 0.13641
H	 0.5858125607	-3.0184290501	-0.305664	 0.114678
H	 0.3503067402	-2.4056428049	 1.3499607105	 0.11133
H	-1.2264205977	-4.6497837809	-0.0079380777	 0.085421
H	-1.3686101373	-3.6149980091	 2.8843583147	 0.121204
H	-2.2289996398	-5.0317663999	 2.2642041883	 0.12238
H	-0.4622925074	-5.040217504	 2.3535221001	 0.120723
H	-2.9196634817	-2.3902474134	 1.1845735492	 0.115043
H	-2.9938901922	-3.008330208	-0.4834633689	 0.11695
45.2085	97.2236	107.0414	115.4564	150.909	173.4232	235.6014	305.6521	336.2447	376.6027	450.1436	557.7937	735.2584	778.8631	808.0564	891.9475	897.8838	920.4346	932.8728	1011.9565	1090.6077	1124.4073	1145.9632	1152.5109	1179.3313	1183.4054	1200.8487	1212.3984	1218.3951	1278.3584	1296.9066	1330.2699	1373.8831	1412.8287	1421.9692	1480.8206	1484.8169	1495.7882	1496.9336	1506.7529	1512.6333	1531.8315	1805.3608	3024.7865	3027.1016	3032.9719	3047.2854	3065.1517	3076.743	3083.3487	3098.2895	3103.1726	3119.4833	3150.0069
COC(=O)N1CC(C)C1	COC(=O)N1CC(C)C1	
InChI=1S/C6H11NO2/c1-5-3-7(4-5)6(8)9-2/h5H,3-4H2,1-2H3	InChI=1S/C6H11NO2/c1-5-3-7(4-5)6(8)9-2/h5H,3-4H2,1-2H3
