21
gdb 76410	2.65625	1.11505	1.09106	0.8722	78.65	-0.2499	0.0711	0.321	1267.8284	0.179988	-424.185754	-424.175655	-424.174711	-424.220862	37.037	
C	-0.1643957092	 1.2484250577	-0.4716522879	-0.413047
C	 0.1340234018	-0.1545592287	 0.0115876179	-0.070657
C	 1.5443271759	-0.653715847	 0.1737888486	 0.043062
O	 2.5668065158	 0.2613236554	-0.0963620668	-0.421017
C	 0.6769019585	-0.4584117587	 1.4062452894	 0.228073
C	 1.0099731254	 0.6746958806	 2.3617072744	-0.478019
C	 0.0933547257	-1.6462469065	 2.1111705448	 0.029812
C	 0.4228846506	-3.0512825355	 1.8351071237	-0.186235
O	 0.9607708873	-2.3916799539	 2.9796742262	-0.244991
H	 0.6390747684	 1.9423642758	-0.2215962732	 0.136671
H	-0.2757643582	 1.2574316023	-1.561045708	 0.119828
H	-1.096949215	 1.6267222338	-0.0393187636	 0.113534
H	-0.557991478	-0.9049502072	-0.3649374208	 0.081166
H	 1.7612455437	-1.6685871719	-0.1557401546	 0.080139
H	 3.2975524139	 0.076507421	 0.5031488119	 0.291574
H	 1.5562298358	 1.4768362804	 1.8640880932	 0.12905
H	 0.1012743438	 1.1009259177	 2.8018839427	 0.116071
H	 1.6290588013	 0.2968912441	 3.182368623	 0.130202
H	-0.8865500271	-1.4557577816	 2.5573837707	 0.089106
H	-0.3180152097	-3.8235101315	 2.0417166804	 0.111036
H	 1.1456243992	-3.3085311862	 1.0636643681	 0.114643
47.6056	129.6058	141.154	165.6435	198.9082	220.4037	230.3684	292.6196	317.4044	339.3627	457.6597	484.3883	548.0752	583.9377	687.3264	807.0084	833.1605	866.0555	893.7305	961.437	978.7264	1009.6223	1034.0101	1064.3427	1094.438	1108.7319	1139.6087	1159.8262	1169.8403	1173.3392	1193.1397	1248.4298	1289.2973	1304.6261	1318.9444	1369.3368	1402.7656	1418.199	1434.0372	1465.9847	1486.7983	1495.9592	1502.69	1517.664	1530.3417	3033.1301	3038.215	3067.9477	3083.3743	3090.0076	3092.2707	3104.2263	3123.0418	3136.901	3146.0276	3168.5886	3805.2755
CC1C(O)C1(C)C1CO1	C[C@H]1[C@@H](O)[C@]1(C)[C@H]1CO1	
InChI=1S/C7H12O2/c1-4-6(8)7(4,2)5-3-9-5/h4-6,8H,3H2,1-2H3	InChI=1S/C7H12O2/c1-4-6(8)7(4,2)5-3-9-5/h4-6,8H,3H2,1-2H3/t4-,5+,6+,7-/m0/s1
