20
gdb 73147	2.61755	1.58277	1.38277	2.2932	78.21	-0.2166	0.0686	0.2852	1044.2361	0.17028	-403.085392	-403.077039	-403.076095	-403.11842	32.385	
C	 0.2481837714	 1.5918514197	 0.1186411273	-0.460056
C	 0.0007216868	 0.1041815815	 0.0423244189	 0.25334
C	-1.4526083458	-0.4169166118	-0.076224893	-0.300731
C	-1.1230843974	-1.36803425	 1.1027014683	-0.162972
N	 0.23092548	-0.7511716244	 1.2942327656	-0.159946
C	 1.3139719305	-1.5152112413	 0.5961370642	-0.274839
C	 1.0570509431	-0.7354070251	-0.6943739372	 0.399781
C	 1.1615080471	-1.1102629543	-2.1053384817	-0.270896
O	 2.0778638587	-0.1836251219	-1.5037034196	-0.26595
H	 1.2873641289	 1.8054313649	 0.3843009374	 0.130565
H	 0.0476604197	 2.0616833359	-0.850992754	 0.120614
H	-0.4043141256	 2.0511563812	 0.8673897958	 0.118004
H	-2.2018449068	 0.3421925722	 0.1614907026	 0.107432
H	-1.7204052514	-0.8846409776	-1.0267962511	 0.101743
H	-1.7546733972	-1.2537695066	 1.9881218495	 0.108293
H	-1.0871594958	-2.4327939198	 0.8442311902	 0.097917
H	 2.2978558589	-1.3099473196	 1.0303352702	 0.120209
H	 1.1617984189	-2.5998407071	 0.5635562959	 0.105098
H	 1.5865737894	-2.0749889892	-2.3803921733	 0.116538
H	 0.4765057366	-0.6797404268	-2.835414196	 0.115855
50.3136	172.5255	189.7371	228.1833	254.4243	322.0731	384.277	433.987	471.532	541.6633	637.3145	724.9651	781.3722	795.6299	838.6611	879.6416	907.065	910.5632	950.2368	960.7928	975.5509	1026.0288	1087.2031	1123.7647	1125.6688	1147.2791	1157.1016	1167.7954	1194.8425	1215.5854	1222.2642	1264.477	1279.6943	1297.893	1311.9248	1408.5996	1432.5777	1477.9502	1481.7262	1486.1605	1488.8357	1512.0736	1533.233	3027.7144	3033.1699	3034.6511	3060.8817	3076.0213	3079.0538	3083.0869	3102.5766	3114.0345	3117.9066	3162.2049
CC12CCN1CC21CO1	C[C@]12CCN1C[C@]12CO1	
InChI=1S/C7H11NO/c1-6-2-3-8(6)4-7(6)5-9-7/h2-5H2,1H3	InChI=1S/C7H11NO/c1-6-2-3-8(6)4-7(6)5-9-7/h2-5H2,1H3/t6-,7-/m1/s1
