16
gdb 65740	3.07723	1.20774	1.0996	3.6327	65.66	-0.2732	-0.0032	0.27	1133.6005	0.123053	-475.064859	-475.056486	-475.055541	-475.09828	30.162	
C	 0.0694399479	 1.5427412195	 0.0528094513	-0.441765
C	-0.0016586099	 0.028052426	-0.008126255	 0.430261
C	 0.768093788	-0.6526396409	-1.1670501206	-0.223331
N	 1.5915621118	-1.6882553864	-0.5308654527	-0.24899
C	 1.4304631529	-1.5347490154	 0.7123194814	 0.110252
O	 0.6100565913	-0.5381354366	 1.1645324578	-0.245606
O	-1.358824582	-0.4265882678	-0.0933761764	-0.228324
C	-2.1625251574	-0.2972923063	 0.9913317569	 0.160069
O	-3.3143318758	-0.6085539106	 0.9580828656	-0.268355
H	 1.1125432523	 1.8663830496	 0.0785537651	 0.140644
H	-0.4134675617	 1.9677654362	-0.8309901647	 0.147562
H	-0.4341273423	 1.9271896066	 0.9435580878	 0.13713
H	 0.0678390815	-1.0930925523	-1.8801463952	 0.148102
H	 1.4097505714	 0.0533148304	-1.7038906631	 0.125415
H	 1.8984480887	-2.1170588359	 1.4971270512	 0.15185
H	-1.6446369064	 0.0949505539	 1.8806603506	 0.105087
73.7124	126.1821	153.9293	187.684	230.9063	313.0664	364.0999	397.0873	463.0162	520.6715	594.9246	724.9879	808.2177	875.9157	928.7711	941.6604	963.3546	980.4135	994.8025	1042.1219	1073.2477	1136.9495	1153.2225	1180.8988	1235.2171	1259.0268	1331.1203	1341.1275	1413.4461	1432.747	1478.9235	1484.4346	1488.4668	1716.1504	1863.6879	3017.5395	3053.158	3058.78	3114.1257	3132.009	3136.4538	3227.8793
CC1(CN=CO1)OC=O	C[C@]1(CN=CO1)OC=O	
InChI=1S/C5H7NO3/c1-5(9-4-7)2-6-3-8-5/h3-4H,2H2,1H3	InChI=1S/C5H7NO3/c1-5(9-4-7)2-6-3-8-5/h3-4H,2H2,1H3/t5-/m1/s1
