19
gdb 120096	3.45911	1.18444	1.05431	2.2817	75.23	-0.22	0.0532	0.2732	1215.0395	0.157182	-422.923569	-422.915057	-422.914113	-422.957745	31.843	
C	-0.0035684282	 1.4832954169	 0.2415409467	-0.386845
C	 0.4936931882	 0.0492713846	 0.199679117	-0.032376
O	 0.1162976463	-0.5843201648	 1.4110131949	-0.234182
C	 0.5130744849	-1.9055104491	 1.490919415	 0.141286
C	 1.9160673894	-2.465771578	 1.6209461827	-0.177645
C	 2.8426043991	-1.716803581	 2.6224977699	 0.028088
O	 2.1877542874	-0.545761133	 3.1178648125	-0.231998
C	 1.8530435251	-1.8172585317	 3.6854051776	 0.027799
C	 0.8673232234	-2.5994622426	 2.7603937759	-0.173582
H	 0.4341380298	 2.0089937132	 1.094402385	 0.136076
H	 0.2742068054	 2.0105700363	-0.6761993445	 0.11041
H	-1.0923919247	 1.5116394405	 0.3425417417	 0.123259
H	 0.0626602755	-0.4890767853	-0.6618189538	 0.079806
H	 1.5879791681	 0.0184082866	 0.0898039832	 0.094869
H	-0.0720514578	-2.5609896213	 0.8344218428	 0.088248
H	 2.2815221381	-3.2429715202	 0.9609399643	 0.092886
H	 3.9255875886	-1.7422363919	 2.6359617064	 0.107571
H	 1.9503917782	-1.9365254598	 4.75731457	 0.109659
H	 0.3583387833	-3.4938168295	 3.0985553925	 0.096672
45.6748	59.7984	131.9398	232.0679	274.0452	283.202	359.5055	459.2912	586.2529	671.7436	705.4517	731.1615	773.3153	818.7886	835.1866	862.4971	890.7542	904.0625	952.3439	970.7658	999.3278	1010.5043	1037.7914	1052.9478	1081.7739	1101.0908	1153.5065	1184.8631	1219.1732	1240.4187	1264.8379	1280.135	1293.5434	1321.0074	1380.321	1400.5002	1416.4262	1466.8993	1482.813	1499.9055	1524.8962	2957.8897	3005.566	3026.6521	3044.7296	3117.2219	3125.2526	3178.1394	3186.7685	3189.8534	3202.1442
CCOC1C2C3OC3C12	CCO[C@H]1[C@H]2[C@H]3O[C@H]3[C@@H]12	
InChI=1S/C7H10O2/c1-2-8-5-3-4(5)7-6(3)9-7/h3-7H,2H2,1H3	InChI=1S/C7H10O2/c1-2-8-5-3-4(5)7-6(3)9-7/h3-7H,2H2,1H3/t3-,4+,5-,6+,7-
