16
gdb 6071	5.22198	1.00615	0.85247	3.0559	62.96	-0.2382	0.0153	0.2535	1291.2691	0.128635	-417.133225	-417.123498	-417.122553	-417.170644	32.174	
C	-0.0748194917	 1.4875509887	 0.018748379	-0.482304
C	 0.0576220103	-0.0236381775	 0.1188441874	 0.409935
O	 1.128648992	-0.5797379979	 0.2995569016	-0.384025
N	-1.1026309915	-0.7206659777	-0.0068969458	-0.318134
C	-1.1304068694	-2.1562144344	 0.0664610269	-0.239747
C	-2.5752167994	-2.6236283314	-0.1120100816	 0.401896
N	-2.7469716564	-3.9693379747	-0.0637925077	-0.522266
O	-3.4932123288	-1.8416290148	-0.283464462	-0.361925
H	 0.5535620324	 1.8421256416	-0.8025955723	 0.150066
H	-1.1007351993	 1.8268542003	-0.1437692491	 0.116828
H	 0.3087386008	 1.9360366722	 0.9390364748	 0.150066
H	-2.0005046172	-0.2832061389	-0.1569396028	 0.260793
H	-0.4940140329	-2.6070082736	-0.7070560851	 0.140596
H	-0.7386222018	-2.5136113174	 1.0283942483	 0.14059
H	-1.9815787073	-4.6050098103	 0.0782295842	 0.268719
H	-3.6755893898	-4.3412688543	-0.1746781558	 0.268914
13.8954	35.0444	58.0068	131.6656	161.1509	175.9483	278.1097	343.2195	481.5009	489.6716	520.8181	618.7085	626.8961	641.5745	650.6381	841.8991	978.4286	999.7328	1014.4457	1054.1591	1095.2173	1173.125	1235.1854	1245.9675	1308.114	1393.6795	1412.4043	1471.8971	1481.5275	1502.1925	1527.1214	1622.5928	1768.2121	1797.8983	3015.3086	3036.881	3050.689	3126.5656	3131.7462	3604.8802	3606.8266	3740.631
CC(=O)NCC(N)=O	CC(=O)NCC(=O)N	
InChI=1S/C4H8N2O2/c1-3(7)6-2-4(5)8/h2H2,1H3,(H2,5,8)(H,6,7)	InChI=1S/C4H8N2O2/c1-3(7)6-2-4(5)8/h2H2,1H3,(H2,5,8)(H,6,7)
