23
gdb 95211	2.08347	1.78532	1.26364	1.4126	84.4	-0.2396	0.0759	0.3155	1126.3526	0.207046	-388.284211	-388.27542	-388.274476	-388.31702	35.115	
C	-0.8466365148	 1.2304885902	-0.0453609563	-0.397965
C	-0.2595716907	-0.1837006609	 0.0862145148	-0.009045
C	 0.3091868838	-0.6649221697	-1.253852092	-0.079314
O	 1.4082672774	 0.1393918808	-1.6655056099	-0.25778
C	 2.50534056	 0.0746363456	-0.7989504451	 0.087433
C	 2.7211215116	 1.2399810458	 0.1312727746	-0.315418
C	 2.2490413211	-0.0944529264	 0.6757519874	-0.043781
C	 0.835802024	-0.3813929464	 1.1771814694	 0.002028
C	 0.5399959437	 0.329642451	 2.5030358701	-0.403057
H	-0.1102227618	 1.9487884044	-0.4119236818	 0.13197
H	-1.6738443728	 1.222892603	-0.763595659	 0.109659
H	-1.2418518762	 1.5974001691	 0.905261476	 0.112993
H	-1.0876451167	-0.8558449845	 0.3500997197	 0.069198
H	 0.6117010515	-1.7220653042	-1.1818523607	 0.082329
H	-0.4343649722	-0.5781524422	-2.0521743585	 0.100305
H	 3.3712038844	-0.4096657809	-1.247210093	 0.085237
H	 3.7378536892	 1.545360924	 0.3549229082	 0.107062
H	 2.0142567709	 2.0569629257	 0.0535409277	 0.121631
H	 3.0109255814	-0.648621796	 1.2181857381	 0.084726
H	 0.82634987	-1.4612937375	 1.384602347	 0.07315
H	 0.5959314923	 1.417271774	 2.3985583381	 0.121228
H	-0.4578493409	 0.0750785568	 2.8775746534	 0.108064
H	 1.2679600047	 0.0356117583	 3.2665992417	 0.109349
109.0692	168.5952	207.1051	222.4068	253.8058	291.7323	352.8841	381.4619	402.2936	437.2652	553.1878	609.4985	681.9399	747.415	766.7063	822.034	849.6923	893.9554	944.8008	963.5955	985.2781	1023.1987	1027.9307	1043.8887	1053.2784	1074.8767	1099.2367	1117.9019	1141.8509	1154.4904	1186.2039	1226.6574	1247.0608	1290.4802	1311.4034	1337.3455	1352.2234	1366.5824	1387.5621	1395.9215	1407.1612	1415.094	1423.8877	1479.294	1489.9681	1494.1655	1499.5536	1505.0501	1511.4386	2974.9206	2986.7662	3012.8018	3029.2733	3043.4057	3078.7782	3092.8805	3102.7277	3108.9688	3110.5329	3130.0031	3132.6468	3140.884	3229.8332
CC1COC2CC2C1C	C[C@H]1CO[C@H]2C[C@H]2[C@H]1C	
InChI=1S/C8H14O/c1-5-4-9-8-3-7(8)6(5)2/h5-8H,3-4H2,1-2H3	InChI=1S/C8H14O/c1-5-4-9-8-3-7(8)6(5)2/h5-8H,3-4H2,1-2H3/t5-,6-,7-,8-/m0/s1
