15
gdb 45075	2.51704	1.70117	1.1595	3.9548	68.95	-0.2545	-0.0527	0.2018	1020.53	0.113277	-416.811816	-416.804333	-416.803388	-416.844352	27.927	
O	 0.0394419351	 0.0286885803	-0.3958252735	-0.271015
C	-0.0151385408	 1.1727775192	-0.0564801315	 0.372666
C	-1.2635189496	 1.9803053006	 0.3174831229	-0.275507
N	-0.8411310094	 3.2464850221	 0.9143593688	-0.097752
C	-0.006683692	 3.0765382739	 2.1116275885	-0.246418
C	 0.6359434911	 3.347725619	 0.8031331156	-0.02969
C	 1.2035522499	 2.1530067815	 0.0508951777	-0.292262
C	 2.3710722778	 1.5362950978	 0.6624960599	 0.302763
N	 3.294334997	 1.0569454152	 1.1654695374	-0.318039
H	-1.8355363879	 2.1774317676	-0.5980813361	 0.149784
H	-1.9056877545	 1.4013769433	 0.9874218698	 0.154014
H	-0.0927558428	 3.8712921038	 2.8451903179	 0.137981
H	 0.1023562186	 2.0786898426	 2.5352420811	 0.13369
H	 1.0350620699	 4.3294977362	 0.5734553052	 0.120234
H	 1.4594906373	 2.4387960069	-0.9783677137	 0.159551
59.4099	136.2781	156.099	330.4361	390.0852	408.2226	457.8245	510.881	576.8249	632.3533	658.774	740.5256	784.6846	851.7655	933.1563	959.5567	980.5357	1027.1288	1068.9765	1093.4495	1121.2523	1134.1293	1158.325	1200.3751	1236.8269	1280.179	1300.713	1315.5853	1383.4848	1456.5212	1509.0939	1872.9556	2362.4929	3030.0269	3037.2159	3097.4388	3100.055	3169.9232	3199.2956
O=C1CN2CC2C1C#N	O=C1CN2C[C@H]2[C@H]1C#N	
InChI=1S/C6H6N2O/c7-1-4-5-2-8(5)3-6(4)9/h4-5H,2-3H2	InChI=1S/C6H6N2O/c7-1-4-5-2-8(5)3-6(4)9/h4-5H,2-3H2/t4-,5+,8?/m1/s1
