21
gdb 94852	3.79181	1.06295	0.97835	2.8122	78.23	-0.2435	0.0696	0.3131	1297.0713	0.182907	-424.216033	-424.207344	-424.2064	-424.249919	32.684	
C	-0.360997114	 1.4587713578	 0.0462222142	-0.414843
C	 0.0925803178	 0.0021107341	 0.0753017998	 0.00908
C	 0.8590467036	-0.4521786059	-1.1739462051	-0.080357
O	 1.63325513	-1.5833139862	-0.7785672005	-0.302197
C	 1.7472022649	-1.6402818631	 0.6343965635	 0.363472
C	 1.2955177436	-2.9790603755	 1.2728384654	-0.120717
O	 2.5718354538	-3.1362807079	 1.9241439959	-0.273669
C	 3.1376741911	-2.0427658219	 1.1730693806	-0.131895
C	 1.1166236106	-0.3505544388	 1.1655222161	-0.295583
H	 0.4954682516	 2.1336192232	-0.0644646195	 0.117924
H	-1.0448335377	 1.6463436727	-0.7884208577	 0.118953
H	-0.8836553497	 1.7299023148	 0.9687881741	 0.120802
H	-0.7843537549	-0.6478012702	 0.1953757848	 0.081477
H	 0.2073301563	-0.7492464634	-2.002119502	 0.106222
H	 1.5212721867	 0.3517923023	-1.5334812932	 0.089192
H	 0.4648955153	-2.9484704281	 1.9888420257	 0.094399
H	 1.1112129741	-3.7586619318	 0.5224972321	 0.102599
H	 3.8161055327	-2.3851096863	 0.3810836314	 0.105187
H	 3.6535143571	-1.3206155271	 1.8175660256	 0.096471
H	 1.8785957036	 0.4374353352	 1.2274340992	 0.10148
H	 0.6826758335	-0.4716365039	 2.1608815594	 0.112003
56.3545	91.2599	137.8798	225.0406	263.0335	287.0554	374.9217	411.9271	440.402	452.7447	589.3672	751.1691	834.2153	863.044	882.1012	909.8429	942.2167	952.5651	970.2435	981.0832	1007.1212	1029.3886	1068.2473	1086.6784	1149.0283	1151.1178	1161.2599	1175.5832	1180.0176	1217.7249	1253.3908	1271.2254	1297.9978	1312.012	1339.927	1359.1932	1381.085	1406.8167	1416.2095	1487.6734	1497.0632	1500.833	1501.7322	1526.5348	1528.0748	2974.4405	3003.8489	3014.1072	3016.7444	3028.1323	3032.312	3060.5432	3062.4431	3068.4703	3095.9674	3102.4649	3105.1111
CC1COC2(COC2)C1	C[C@H]1COC2(COC2)C1	
InChI=1S/C7H12O2/c1-6-2-7(9-3-6)4-8-5-7/h6H,2-5H2,1H3	InChI=1S/C7H12O2/c1-6-2-7(9-3-6)4-8-5-7/h6H,2-5H2,1H3/t6-/m1/s1
