19
gdb 41172	3.14055	1.90555	1.58295	1.5228	78.52	-0.2359	0.0113	0.2472	908.3767	0.162384	-385.870674	-385.864253	-385.863309	-385.900943	28.04	
C	-0.0346282884	 1.5235335369	-0.1575733881	-0.246579
C	 1.5043030132	 1.5472545769	 0.1377961445	-0.335655
C	 1.3381261666	 0.178924992	 0.7980631157	 0.407698
O	 0.843999866	 0.320576837	 2.139857635	-0.283596
C	 0.2321861543	-0.9706605938	 2.2068405076	 0.00776
C	-0.8525066574	-0.8114113705	 1.0658369605	-0.25657
C	-0.0230320119	-0.0280014661	 0.0338564057	-0.004752
C	 1.3694608261	-1.8687081327	 1.7205180902	-0.093079
C	 2.0952521818	-1.1245781728	 0.8767975419	-0.178634
H	-0.6033111746	 2.0335983006	 0.6215772506	 0.115318
H	-0.3529340961	 1.8913968056	-1.1352689354	 0.094768
H	 2.0942846411	 1.4858743287	-0.7807202056	 0.105006
H	 1.9004421713	 2.3441540447	 0.7704562671	 0.110551
H	-0.1637491322	-1.1679676794	 3.2027469177	 0.077161
H	-1.2293513208	-1.7666662137	 0.6924699794	 0.096495
H	-1.6955181685	-0.2360758586	 1.4573421773	 0.106481
H	 0.0902620295	-0.544575602	-0.9207915355	 0.069543
H	 1.4810464483	-2.9186725441	 1.955296396	 0.102326
H	 2.9261824418	-1.4264145787	 0.2537760754	 0.105758
196.5084	294.9715	356.9751	360.5674	485.6029	507.4025	612.1951	678.722	697.3739	716.7892	783.3173	804.346	827.1437	851.3581	877.9005	886.1679	898.0087	916.2142	926.8628	972.2131	998.5125	1032.0563	1067.6758	1076.4925	1093.5056	1125.0488	1186.5133	1194.7004	1212.1628	1227.5672	1241.4873	1261.525	1275.9688	1306.0837	1331.5911	1346.42	1360.248	1469.6135	1482.4553	1489.2588	1614.6327	3062.6744	3064.6236	3073.2652	3089.2945	3112.7821	3118.9421	3124.5213	3136.5974	3213.4451	3238.1082
C1CC23OC(CC12)C=C3	C1C[C@@]23O[C@@H](C[C@@H]12)C=C3	
InChI=1S/C8H10O/c1-3-8-4-2-7(9-8)5-6(1)8/h2,4,6-7H,1,3,5H2	InChI=1S/C8H10O/c1-3-8-4-2-7(9-8)5-6(1)8/h2,4,6-7H,1,3,5H2/t6-,7-,8+/m1/s1
