14
gdb 24534	4.04655	1.71711	1.20555	1.87	79.34	-0.214	-0.0586	0.1555	937.5581	0.106616	-395.799067	-395.793221	-395.792277	-395.82914	23.719	
N	 0.0002942661	 1.3101888755	 0.0095484419	-0.358191
C	 1.1475494077	 2.0324431395	 0.0021740728	 0.076031
N	 2.3454716263	 1.506107842	-0.0123805018	-0.275969
C	 2.455719938	 0.1512348284	-0.0207117535	-0.10718
C	 1.3586437675	-0.680310686	-0.014413627	 0.256729
C	 1.0491929949	-2.0700813909	-0.0188220221	-0.317617
C	-0.3307476291	-2.1274978221	-0.0056011507	-0.03043
N	-0.9625814551	-0.8892766345	 0.0071996839	-0.379347
C	 0.0457361817	-0.0511745172	 0.0018158918	 0.385587
H	-0.902255388	 1.7695004188	 0.0208446832	 0.281116
H	 1.0297781009	 3.1106679274	 0.0090965662	 0.140493
H	 3.4724439408	-0.2329145431	-0.0327272804	 0.122946
H	 1.7421569734	-2.8967310025	-0.0300365122	 0.099908
H	-0.940447565	-3.0223370654	-0.0044158215	 0.105924
218.8723	253.3885	386.7151	429.5257	565.8593	591.434	626.3527	629.351	750.0688	754.4098	777.2714	796.7063	894.435	895.839	921.9465	922.2429	980.3724	1077.4068	1091.5049	1141.5419	1191.6795	1233.7322	1314.9823	1356.237	1385.088	1440.0111	1456.8057	1488.8035	1541.9938	1624.9865	1644.8259	3164.6583	3195.9969	3216.4672	3257.6178	3579.7079
N1C=NC=C2C=CN=C12	[nH]1cncc2ccnc12	
InChI=1S/C6H5N3/c1-2-8-6-5(1)3-7-4-9-6/h1-4H,(H,7,8,9)	InChI=1S/C6H5N3/c1-2-8-6-5(1)3-7-4-9-6/h1-4H,(H,7,8,9)
