17
gdb 43795	2.46822	1.64342	1.16578	3.3206	73.86	-0.2438	-0.0408	0.203	1069.0098	0.134249	-421.790123	-421.782061	-421.781117	-421.82295	30.627	
O	-0.008583734	 0.3151211568	-0.9534426582	-0.295788
C	-0.007288187	 1.3042426738	-0.2834359716	 0.348378
C	-1.089642285	 2.104191117	 0.485533171	-0.475238
C	-0.0215948778	 3.1821725921	 0.7556346098	 0.268223
C	-0.1502008298	 4.6586765933	 0.5146539474	-0.30781
C	 0.1009268863	 4.1326626612	 1.9078582243	-0.333629
C	 1.0615551363	 2.3112241405	 0.1400239279	 0.287361
C	 2.4463234572	 2.0334682291	 0.5535374665	-0.255369
O	 2.1504798195	 2.7557945914	-0.6429372451	-0.261641
H	-1.943479761	 2.4039038971	-0.1286759647	 0.138161
H	-1.4578546525	 1.5744649427	 1.3700769234	 0.135244
H	 0.6705583607	 5.1438636303	-0.0029582297	 0.133171
H	-1.1337365656	 5.0534073731	 0.2824613658	 0.119455
H	-0.7137992936	 4.1662126528	 2.6238384251	 0.120928
H	 1.0830358783	 4.2870584571	 2.3438955714	 0.117811
H	 2.881825784	 2.6193163083	 1.361634795	 0.124224
H	 2.8571233241	 1.0357839334	 0.4083853817	 0.13652
63.2616	169.7072	195.3155	209.7537	257.3481	303.5826	462.2889	507.9221	528.5485	545.1623	626.1668	764.9077	785.5177	822.3061	861.8436	892.072	920.9682	946.4634	990.7775	1009.2541	1043.0491	1057.8805	1082.3421	1118.5554	1126.2295	1137.7864	1161.394	1187.4998	1190.6966	1231.7451	1367.4242	1419.418	1450.8599	1461.4203	1500.3639	1521.2319	1898.7807	3053.1546	3085.2444	3105.9963	3124.8495	3131.0902	3180.2784	3205.1427	3222.8808
O=C1CC2(CC2)C11CO1	O=C1CC2(CC2)[C@]21CO2	
InChI=1S/C7H8O2/c8-5-3-6(1-2-6)7(5)4-9-7/h1-4H2	InChI=1S/C7H8O2/c8-5-3-6(1-2-6)7(5)4-9-7/h1-4H2/t7-/m1/s1
