15
gdb 55888	3.54769	0.89427	0.77865	2.0143	66.63	-0.2643	-0.0066	0.2577	1401.6108	0.111173	-453.964927	-453.955761	-453.954816	-454.000423	31.774	
N	-0.0781168419	 1.2231692843	 0.435162943	-0.523527
C	 0.0943614712	-0.0373122268	-0.0456204088	 0.425359
O	 1.1877498951	-0.5294296406	-0.2444168357	-0.357506
C	-1.2005906882	-0.7889841348	-0.3730526505	-0.36832
C	-1.0368130618	-2.262794204	-0.1008188073	 0.095745
O	-1.4197256967	-2.7326389381	 1.19240932	-0.230346
C	-2.1891513755	-3.1723702565	 0.0719691391	-0.115352
C	-3.5477971457	-2.6784266748	-0.0147090647	 0.303088
N	-4.6336270754	-2.2921153353	-0.1035498798	-0.328735
H	 0.7415106009	 1.7564289449	 0.6769280809	 0.267503
H	-0.9816492118	 1.5877932972	 0.6801745169	 0.266353
H	-2.0625809468	-0.3975693003	 0.173383378	 0.131114
H	-1.3949021867	-0.6413345634	-1.4431693153	 0.152532
H	-0.1121075486	-2.6938291068	-0.4790041147	 0.138188
H	-2.0794877381	-4.2243174751	-0.1847366213	 0.143906
40.6589	52.272	94.5276	175.4608	217.5445	230.9077	344.7819	372.0572	448.866	514.2761	571.3578	592.008	626.2458	676.7976	804.922	838.4165	868.1753	936.4986	992.9548	1038.2041	1084.3473	1131.9296	1143.3507	1222.4841	1268.1444	1293.7932	1364.1476	1393.7193	1444.1597	1463.6567	1621.4043	1800.0075	2359.5795	3040.4594	3104.2156	3134.0932	3152.0477	3602.0607	3738.5536
NC(=O)CC1OC1C#N	NC(=O)C[C@H]1O[C@H]1C#N	
InChI=1S/C5H6N2O2/c6-2-4-3(9-4)1-5(7)8/h3-4H,1H2,(H2,7,8)	InChI=1S/C5H6N2O2/c6-2-4-3(9-4)1-5(7)8/h3-4H,1H2,(H2,7,8)/t3-,4+/m1/s1
