21
gdb 98447	3.04257	1.10323	1.03437	1.7018	79.21	-0.2611	0.0176	0.2787	1297.9244	0.181142	-424.256026	-424.246081	-424.245137	-424.291708	35.728	
C	 0.2199797696	 1.3481743711	-0.0926659656	-0.238567
O	 0.0146841206	-0.0631570773	 0.0364194903	-0.239832
C	-1.2657110117	-0.4774635501	-0.0930164637	 0.396621
O	-2.1827173309	 0.2775409889	-0.3042979979	-0.372593
C	-1.3711643357	-1.9768880044	 0.0939897621	 0.226728
C	-0.4965708395	-2.7215575496	-0.9201873742	-0.457507
C	-1.1349148405	-2.4595907776	 1.5685942922	-0.251312
C	-2.4254658411	-3.3158274153	 1.4637799809	-0.21423
C	-2.824144113	-2.5228443523	 0.1898619338	-0.261955
H	 1.2899792993	 1.5072814691	 0.0430201159	 0.130705
H	-0.0961644402	 1.6965906597	-1.0792950265	 0.139321
H	-0.3469928593	 1.8924798549	 0.6670396593	 0.138707
H	 0.5528671525	-2.4344826363	-0.8175740077	 0.131999
H	-0.5753600558	-3.8025673846	-0.7658512147	 0.116669
H	-0.8144343766	-2.5074167925	-1.946496936	 0.121483
H	-0.1921675198	-2.9799149293	 1.7545915509	 0.101978
H	-1.2301525166	-1.6460371624	 2.2923262574	 0.107415
H	-2.211586074	-4.3674358906	 1.2566749235	 0.103477
H	-3.114841952	-3.2686243141	 2.3091829775	 0.101762
H	-3.5328476726	-1.7177893056	 0.3905043072	 0.123372
H	-3.1802032528	-3.0976505919	-0.6687437945	 0.09576
30.3917	98.5223	119.4422	137.1098	179.2233	247.8771	272.1056	305.4158	323.0223	342.8441	440.5599	518.397	694.9266	765.9062	783.8592	804.1238	860.471	903.7797	930.3084	936.8857	945.8529	995.696	1017.235	1061.0611	1160.4869	1171.0712	1179.599	1191.5203	1212.1165	1217.2773	1247.0119	1262.2891	1275.2209	1285.5151	1327.8201	1408.1822	1471.7426	1476.287	1481.3684	1484.1138	1493.6029	1498.658	1502.6515	1507.6825	1810.1761	3033.3272	3049.968	3058.9417	3063.8826	3071.2806	3097.8578	3103.2839	3118.5143	3122.0611	3123.7018	3134.3061	3155.6302
COC(=O)C1(C)CCC1	COC(=O)C1(C)CCC1	
InChI=1S/C7H12O2/c1-7(4-3-5-7)6(8)9-2/h3-5H2,1-2H3	InChI=1S/C7H12O2/c1-7(4-3-5-7)6(8)9-2/h3-5H2,1-2H3
