15
gdb 9052	4.52212	1.00161	0.86439	4.4833	68.84	-0.2747	-0.0013	0.2735	1279.3377	0.115511	-362.621614	-362.612549	-362.611604	-362.656396	31.067	
C	-0.0633020044	 1.5440960714	 0.0279183943	-0.399772
C	 0.0210940972	 0.0115342703	-0.0109157353	 0.00349
O	 0.6949418182	-0.4696355522	-1.1621617537	-0.249856
C	-0.1487638631	-0.5980163707	-2.3007223812	-0.218652
C	 0.616951207	-1.1457270418	-3.4094253937	 0.285811
C	 1.2239216799	-1.5948561134	-4.342459596	-0.406098
C	 0.7519591487	-0.4979846502	 1.1624901125	 0.285785
N	 1.3023427818	-0.8726295381	 2.1058194261	-0.31205
H	 0.9401963257	 1.9725504355	-0.0174233978	 0.153343
H	-0.6452097983	 1.9116482662	-0.8210817491	 0.130364
H	-0.5509625802	 1.8767244744	 0.9481794616	 0.142884
H	-0.9947806591	-0.4133670625	 0.0354308292	 0.118414
H	-0.9983025736	-1.2611657043	-2.0680465329	 0.129866
H	-0.5706079935	 0.3762310479	-2.5924042578	 0.12811
H	 1.7676956138	-1.9950135924	-5.162502976	 0.208363
34.2945	75.169	113.1126	198.9832	214.0421	240.7416	322.3438	354.6806	394.0168	466.2687	568.4097	611.7608	618.4945	687.0482	829.7968	911.9729	981.1804	1030.2862	1047.8044	1094.013	1113.373	1144.872	1253.7427	1337.3011	1353.2004	1403.8634	1428.2879	1485.789	1490.7462	1501.7932	2251.5764	2368.5124	2967.8775	2978.8249	2997.669	3054.2035	3129.3741	3143.3338	3504.7419
CC(OCC#C)C#N	C[C@@H](OCC#C)C#N	
InChI=1S/C6H7NO/c1-3-4-8-6(2)5-7/h1,6H,4H2,2H3	InChI=1S/C6H7NO/c1-3-4-8-6(2)5-7/h1,6H,4H2,2H3/t6-/m1/s1
