22
gdb 68301	2.92561	1.31219	1.09488	0.9964	88.01	-0.232	0.0974	0.3294	1215.824	0.194703	-367.135973	-367.127575	-367.12663	-367.168943	33.303	
C	-0.1829362349	 1.4472009694	 0.0030255839	-0.518497
C	-0.0161123326	-0.0489293288	 0.0120656048	 0.31357
C	 0.6688272535	-0.9412529914	-1.0695778357	-0.260813
C	 0.1819846671	-1.930848547	 0.0250680409	-0.081786
C	 0.7264863699	-0.9224075957	 1.0760075063	-0.255965
C	-1.1488841644	-1.1284836878	 0.0266554637	 0.067062
N	-1.9939164087	-1.2067363846	 1.1982253242	-0.079438
C	-3.3324024065	-0.6392232807	 1.0620696017	-0.226947
C	-3.1353071947	-2.1127207277	 1.1044397899	-0.226102
H	 0.7898624004	 1.9511982498	-0.0060338021	 0.117501
H	-0.73945255	 1.779295057	-0.8809021951	 0.112904
H	-0.7270042987	 1.7857942244	 0.8913172765	 0.124502
H	 0.1795709314	-0.9978805198	-2.0474886152	 0.081821
H	 1.7512623318	-0.8285995272	-1.1705344202	 0.088814
H	 0.2905069051	-3.0159442437	 0.0276116309	 0.066023
H	 1.8136243274	-0.8067031921	 1.1139302464	 0.078689
H	 0.2799382503	-0.9616025094	 2.0688267995	 0.109666
H	-1.7289083254	-1.1959779415	-0.9115480486	 0.039752
H	-3.7114759955	-0.1048812699	 1.9285268892	 0.115509
H	-3.6038518103	-0.2023917424	 0.1018135658	 0.108839
H	-3.2743953566	-2.6592683579	 0.1725483707	 0.109014
H	-3.3658926685	-2.6780567631	 2.0028482424	 0.115882
71.0394	149.9189	186.9421	218.2494	268.4224	304.149	361.2814	475.1655	502.6662	570.4947	640.4001	767.78	788.9202	812.114	888.4299	891.4001	904.5627	909.9626	912.9021	965.8085	1014.1289	1021.4158	1033.6011	1038.8048	1063.6916	1099.965	1107.8862	1118.2406	1119.5404	1147.4374	1174.9056	1183.9398	1196.9884	1204.1199	1230.3313	1234.2342	1252.2285	1319.6269	1331.2202	1405.9393	1411.5008	1488.1036	1489.7819	1491.4694	1491.8649	1518.4103	1533.9583	2930.4998	3024.1795	3041.3384	3057.7911	3089.2022	3091.0909	3095.1537	3095.6887	3106.2509	3109.2449	3147.2055	3174.4761	3188.8604
CC12CC(C1)C2N1CC1	C[C@@]12C[C@@H](C1)[C@H]2N1CC1	
InChI=1S/C8H13N/c1-8-4-6(5-8)7(8)9-2-3-9/h6-7H,2-5H2,1H3	InChI=1S/C8H13N/c1-8-4-6(5-8)7(8)9-2-3-9/h6-7H,2-5H2,1H3/t6-,7-,8+/m1/s1
