14
gdb 45875	2.08449	1.86339	1.28196	3.9636	67.37	-0.2784	-0.0488	0.2296	984.6432	0.103293	-432.923069	-432.915551	-432.914607	-432.955539	27.393	
O	 0.0240603554	-0.0517618734	-0.03999413	-0.329107
C	 0.0121584132	 1.1524954919	-0.0107542691	 0.419916
N	-1.1470690648	 1.9008622789	 0.0377850568	-0.327295
C	-1.1765017531	 3.2968842269	-0.0267153879	 0.099416
N	-0.2065490681	 4.0412689936	-0.3581406617	-0.217057
C	 1.0272278495	 3.367344204	-0.7324929062	-0.182074
C	 1.2773901909	 2.0339571379	 0.0188265445	-0.28543
C	 1.6568621956	 2.262444385	 1.4149049121	 0.281346
N	 1.9522084696	 2.4534780144	 2.5156484579	-0.309911
H	-2.0069315427	 1.382682648	 0.1536084303	 0.271808
H	-2.1423916792	 3.7309421454	 0.2243801281	 0.140248
H	 0.9942481526	 3.1538770741	-1.8101479678	 0.133462
H	 1.8687203582	 4.0437930094	-0.5658656429	 0.144215
H	 2.074349983	 1.4619415039	-0.464065344	 0.160462
80.7196	139.4854	146.8989	231.0639	388.3411	437.9525	470.5556	497.6774	545.8539	616.2042	645.1328	738.2029	806.3831	856.5879	912.9818	947.8051	990.5192	1019.9668	1074.4122	1094.6997	1214.8411	1251.701	1274.1739	1317.6173	1380.2604	1417.3425	1454.7991	1480.1298	1743.1711	1837.0724	2357.9887	3018.6008	3087.6875	3098.5382	3157.1794	3607.9009
O=C1NC=NCC1C#N	O=C1NC=NC[C@H]1C#N	
InChI=1S/C5H5N3O/c6-1-4-2-7-3-8-5(4)9/h3-4H,2H2,(H,7,8,9)	InChI=1S/C5H5N3O/c6-1-4-2-7-3-8-5(4)9/h3-4H,2H2,(H,7,8,9)/t4-/m1/s1
