19
gdb 80151	2.28411	1.6584	1.45101	0.8521	76.06	-0.2306	0.0098	0.2405	1015.4249	0.159821	-423.018953	-423.010697	-423.009753	-423.051044	33.057	
O	 0.1048240008	 1.3409193325	-0.1072710124	-0.424982
C	-0.002181661	-0.0469737154	-0.0550713615	 0.034566
C	-0.4573425005	-0.7617041114	 1.2312644115	-0.17793
C	-0.8962872069	 0.0740763228	 2.370211901	-0.061166
C	-1.8842747872	 0.9721159798	 2.2731203592	-0.096829
C	-2.6845406934	 1.1792640806	 1.0123641147	-0.27076
C	-2.660078308	-0.0452759268	 0.0756154906	-0.269883
C	-1.3242799245	-0.7637155965	-0.0081900081	 0.341826
O	-1.3756869824	-2.0109988844	-0.6530733738	-0.468291
H	 0.0456658311	 1.6739216663	 0.7982154025	 0.289746
H	 0.7799491394	-0.5520767208	-0.617731021	 0.101202
H	 0.06495559	-1.6833843555	 1.4621149648	 0.099432
H	-0.351426469	-0.0353842035	 3.3040136088	 0.092335
H	-2.1371883589	 1.5885208595	 3.1317591795	 0.092234
H	-3.72391589	 1.4139808945	 1.2691306681	 0.104629
H	-2.3015691921	 2.0575227626	 0.478110798	 0.12516
H	-3.3802202506	-0.7908289801	 0.4328071102	 0.113937
H	-2.9865087106	 0.2531063155	-0.9284542129	 0.094315
H	-1.4803694763	-1.8479976397	-1.5977225292	 0.280461
154.9905	193.7288	211.1051	257.9489	302.8928	326.8622	360.8067	413.0314	454.9107	486.5613	536.6764	619.007	668.8921	744.2089	771.471	815.6885	886.1099	892.4081	933.0028	972.0608	993.6021	1020.5002	1054.5958	1082.3607	1090.8767	1131.4921	1184.7133	1192.274	1214.3344	1255.9755	1288.2128	1333.4174	1338.869	1348.2578	1373.7917	1382.6514	1419.5962	1450.292	1474.2887	1497.3121	1695.15	3021.6854	3029.1399	3052.7024	3069.4562	3131.4297	3150.902	3170.2495	3179.5782	3738.1215	3784.9921
OC1C2C=CCCC12O	O[C@H]1[C@H]2C=CCC[C@@]12O	
InChI=1S/C7H10O2/c8-6-5-3-1-2-4-7(5,6)9/h1,3,5-6,8-9H,2,4H2	InChI=1S/C7H10O2/c8-6-5-3-1-2-4-7(5,6)9/h1,3,5-6,8-9H,2,4H2/t5-,6+,7+/m1/s1
