16
gdb 5783	5.87243	1.49256	1.25614	2.1751	71.75	-0.183	0.05	0.2331	951.7924	0.13269	-342.781207	-342.774261	-342.773317	-342.812699	26.648	
C	-0.1998189504	 1.2654387405	-0.3541263688	-0.222456
C	 1.2213267406	 1.0527598971	 0.039705059	-0.224978
N	 0.2663079957	-0.0457016664	 0.0913709829	-0.146394
C	-0.1521103971	-0.5182511353	 1.3523060537	 0.279274
C	 0.6449009828	-0.778742819	 2.4481974841	-0.176148
N	-0.1632660614	-1.3134048666	 3.4275117627	-0.235105
C	-1.4531229048	-1.3875694026	 2.9781343479	-0.06583
C	-1.4828078816	-0.9050795782	 1.6904017159	-0.241158
H	-0.8234545467	 1.8368819086	 0.3297748019	 0.11616
H	-0.4778994017	 1.3329445974	-1.4019502917	 0.114405
H	 1.9979070568	 0.9684480116	-0.7151205829	 0.114219
H	 1.5398934321	 1.4875415863	 0.9850965389	 0.11108
H	 1.7044422168	-0.6533742806	 2.5965549464	 0.110648
H	 0.1491698589	-1.593834623	 4.3393896325	 0.259768
H	-2.2405854543	-1.7729722821	 3.605617314	 0.115468
H	-2.3489879256	-0.8362196077	 1.0509243134	 0.091048
55.0408	170.658	205.2121	378.4886	422.7244	484.6297	559.7491	629.8317	645.2341	688.4666	757.8159	815.5708	824.6171	886.4249	898.6614	914.8891	984.2205	1035.404	1077.4752	1086.0917	1113.8051	1126.7612	1165.7176	1172.2242	1175.6642	1233.8555	1274.0304	1368.9602	1407.8963	1474.9973	1488.1468	1515.3027	1526.2281	1613.403	3099.2332	3103.9632	3181.9559	3196.4841	3249.0525	3268.8851	3271.631	3694.6048
C1CN1C1=CNC=C1	C1CN1c1c[nH]cc1	
InChI=1S/C6H8N2/c1-2-7-5-6(1)8-3-4-8/h1-2,5,7H,3-4H2	InChI=1S/C6H8N2/c1-2-7-5-6(1)8-3-4-8/h1-2,5,7H,3-4H2
