18
gdb 124950	2.94296	1.3568	1.0076	1.4268	79.75	-0.2197	0.0256	0.2452	1190.8197	0.149136	-398.118261	-398.109847	-398.108903	-398.152297	30.947	
C	 0.1447023574	 1.4949928603	 0.0363198561	-0.51033
C	 0.0436975507	 0.0088193787	-0.0105026139	 0.294054
C	-0.1471675118	-0.8422754619	-1.0864767102	 0.135335
C	-0.1592080262	-2.1454066332	-0.524405663	-0.074924
N	 0.0096067746	-2.1132804449	 0.7928835228	-0.228281
N	 0.1297320999	-0.8001681903	 1.0774337465	-0.253154
N	-0.2873491882	-0.3888262951	-2.4213696986	-0.183658
C	 0.2734549896	-1.217916956	-3.4949126556	-0.224487
C	-1.1967612288	-1.1238113692	-3.3085853451	-0.224481
H	 1.1096693569	 1.8295338917	 0.4345677689	 0.130716
H	 0.0415185687	 1.8805132468	-0.9798956662	 0.159371
H	-0.642376741	 1.9416641578	 0.6549336469	 0.130749
H	-0.2828428379	-3.0980377638	-1.0193976591	 0.102634
H	 0.2686995774	-0.5234066077	 2.0344852453	 0.268061
H	 0.762291124	-0.6699715473	-4.2958191867	 0.118218
H	 0.7610597673	-2.1476406915	-3.2124080981	 0.12098
H	-1.7115715423	-1.989374248	-2.8990424414	 0.120979
H	-1.7965138702	-0.5061949265	-3.9715363486	 0.118219
30.4186	116.7613	165.1371	181.6508	245.4556	270.8307	453.5837	477.7318	498.0092	566.7526	685.6701	698.3266	723.0227	816.1655	853.663	879.7759	910.391	953.618	1000.8004	1035.7398	1066.5015	1108.1332	1122.8256	1127.7754	1155.6572	1170.7742	1178.9258	1221.9202	1292.6208	1321.2162	1391.4194	1413.9357	1448.3276	1484.7358	1489.5357	1491.3706	1516.6054	1524.1619	1634.1256	3027.1845	3076.6363	3103.4521	3106.9853	3135.7209	3184.0588	3199.4745	3235.7213	3669.9899
CC1=C(C=NN1)N1CC1	Cc1c(cn[nH]1)N1CC1	
InChI=1S/C6H9N3/c1-5-6(4-7-8-5)9-2-3-9/h4H,2-3H2,1H3,(H,7,8)	InChI=1S/C6H9N3/c1-5-6(4-7-8-5)9-2-3-9/h4H,2-3H2,1H3,(H,7,8)
