18
gdb 44470	3.98288	1.39381	1.26141	2.7634	76.52	-0.2262	-0.0209	0.2053	1020.303	0.148906	-401.888881	-401.882096	-401.881151	-401.91998	28.377	
O	 0.0424514823	 0.0369913521	 0.1884766498	-0.292518
C	-0.0174554751	 1.2238960942	 0.0337065331	 0.402887
C	-1.325776908	 2.0450087474	-0.1633926356	-0.308577
N	-0.8286299912	 3.3372229372	-0.6291561724	-0.130749
C	-0.92989095	 4.6650665669	 0.1135161179	-0.017266
C	-0.2414074862	 4.0744439552	 1.3636991895	-0.26874
C	 0.4978215776	 3.5197260836	 0.0968077513	 0.329031
C	 0.4947576265	 4.9613739734	-0.4699797574	-0.277141
C	 1.2036758861	 2.1976091786	 0.0125874078	-0.458597
H	-1.9580732223	 1.5667985928	-0.9163564669	 0.131677
H	-1.8793297182	 2.0260182656	 0.7879865179	 0.119494
H	-1.8152395445	 5.2988542474	 0.0527550934	 0.088308
H	 0.3145021001	 4.7643779438	 2.0041451881	 0.096266
H	-0.81285358	 3.3682436987	 1.9668449034	 0.102684
H	 0.5477376248	 5.0369102447	-1.5560894711	 0.110671
H	 1.0905388011	 5.7127044291	 0.0507378347	 0.098118
H	 1.8888220059	 1.9630966288	 0.8292221346	 0.132812
H	 1.7317122611	 2.0642751305	-0.9384543781	 0.141638
84.6243	284.2226	346.9967	378.5656	470.0264	477.1382	507.8558	567.8629	634.8581	704.4301	720.1933	765.7176	796.6873	815.8559	854.1252	901.3887	942.8583	953.206	994.6325	999.6428	1061.6847	1083.4019	1090.9897	1121.5003	1143.1489	1153.4123	1187.4096	1193.5707	1211.9999	1220.5282	1226.2744	1252.8373	1278.4295	1336.5467	1446.0167	1466.3011	1486.3894	1535.5915	1861.363	2988.4425	3054.7697	3064.712	3080.1733	3086.2526	3110.6473	3123.6026	3133.8461	3161.4654
O=C1CN2C3CC2(C3)C1	O=C1CN2[C@H]3C[C@@]2(C3)C1	
InChI=1S/C7H9NO/c9-6-3-7-1-5(2-7)8(7)4-6/h5H,1-4H2	InChI=1S/C7H9NO/c9-6-3-7-1-5(2-7)8(7)4-6/h5H,1-4H2/t5-,7+
