25
gdb 60273	3.59023	0.8648	0.74335	0.9593	89.74	-0.2376	0.0778	0.3153	1647.7986	0.228574	-389.51151	-389.501089	-389.500145	-389.54882	38.252	
C	-0.1553946448	 1.5621423556	 0.1929439298	-0.387738
C	-0.0019410849	 0.0639522764	-0.049659525	 0.145108
C	 0.9557153359	-0.584408135	 0.9548843101	-0.387736
O	-1.3128453563	-0.4840539846	 0.0156132566	-0.273703
C	-1.4933677895	-1.7921880496	-0.4956584766	 0.152328
C	-1.6582198035	-2.8834012863	 0.5776444978	-0.222223
C	-2.3212297434	-4.0343116138	-0.1909027027	-0.202921
C	-3.3005862772	-3.3389680034	-1.1772461311	-0.205107
C	-2.8122331826	-1.8709676334	-1.2927738828	-0.218754
H	 0.8099030087	 2.0699489135	 0.1072780321	 0.109128
H	-0.8467972947	 1.9963423588	-0.533821944	 0.119249
H	-0.5546882143	 1.7451295144	 1.1957593567	 0.120903
H	 0.3976233489	-0.0927080714	-1.0664906234	 0.062707
H	 0.5638347382	-0.4807026227	 1.971967406	 0.11968
H	 1.0947069003	-1.6490461493	 0.7472163717	 0.114923
H	 1.9393273281	-0.1049992699	 0.9108010252	 0.109575
H	-0.6465090609	-2.0525309474	-1.1501119069	 0.06202
H	-0.7189982073	-3.1675842204	 1.0597159239	 0.090144
H	-2.3264596843	-2.4941540752	 1.3556498293	 0.102277
H	-1.5592901976	-4.5915053287	-0.7489726418	 0.095812
H	-2.8202652732	-4.7535755192	 0.4639966944	 0.095061
H	-3.3154253755	-3.8467855014	-2.1454968475	 0.095835
H	-4.3246051412	-3.3725987475	-0.7940644061	 0.10085
H	-3.5177978789	-1.1804501281	-0.8203069611	 0.109687
H	-2.6853313401	-1.5393331612	-2.3266749147	 0.092892
21.1926	42.1999	67.8804	131.9501	213.094	238.0279	261.1251	297.5518	318.7943	422.9949	449.0321	487.2304	584.3977	627.922	775.2635	813.3156	834.4913	882.2253	896.9706	923.6887	939.5606	947.6482	950.4311	979.835	991.7607	1048.419	1100.9028	1111.8463	1149.6399	1168.5349	1193.8425	1200.3299	1202.9053	1234.47	1278.5423	1286.2412	1312.0154	1322.7297	1338.4967	1350.3439	1360.5203	1371.843	1396.3553	1410.3692	1424.2161	1478.8783	1485.0229	1486.3739	1491.4747	1494.965	1495.4208	1509.0248	1518.8494	2950.0613	2973.4088	3032.0501	3034.2067	3038.8754	3041.831	3049.8057	3060.8054	3078.8408	3091.2869	3095.5905	3104.7983	3107.9459	3113.2304	3116.0509	3122.5979
CC(C)OC1CCCC1	CC(C)OC1CCCC1	
InChI=1S/C8H16O/c1-7(2)9-8-5-3-4-6-8/h7-8H,3-6H2,1-2H3	InChI=1S/C8H16O/c1-7(2)9-8-5-3-4-6-8/h7-8H,3-6H2,1-2H3
