18
gdb 31784	3.08982	1.29218	0.97709	2.1585	75.17	-0.1887	0.0523	0.241	1213.1196	0.148581	-435.296487	-435.287162	-435.286218	-435.331	33.4	
C	 0.4249083594	 0.8714703567	-0.5952888569	-0.327076
N	-0.3750577374	 0.1012154209	 0.3653851868	-0.389955
C	 0.3445499834	-0.5736449949	 1.3634662822	 0.232468
C	 0.7960890028	-0.2435623761	 2.6106556631	-0.158458
N	 1.4215870311	-1.3236364293	 3.2149455645	-0.377815
C	 1.349430701	-2.2755387821	 2.3245430669	 0.434113
O	 1.8351661768	-3.5268457885	 2.4461898423	-0.431981
N	 0.7122076192	-1.9181139141	 1.1826901723	-0.081821
C	 0.4286412426	-2.7532502186	 0.0351251107	-0.340265
H	 1.0841036246	 0.1938344322	-1.1459606849	 0.128187
H	-0.2441181688	 1.3492466358	-1.3172311632	 0.117983
H	 1.0516468695	 1.6434944848	-0.1247468852	 0.113436
H	-1.0918607125	 0.6836791521	 0.7786733806	 0.236808
H	 0.697643199	 0.703515066	 3.119420112	 0.098776
H	 2.2299764729	-3.571485648	 3.326197244	 0.310455
H	 0.1370948135	-3.7521124934	 0.3666689417	 0.14788
H	-0.3917411055	-2.2929887679	-0.5182786192	 0.153459
H	 1.2990023585	-2.8457370557	-0.6240883878	 0.133804
54.381	110.4454	123.5955	178.7221	182.9132	270.0648	281.992	330.4626	409.292	432.5728	542.0924	595.4053	654.6307	707.3513	724.0566	755.1908	791.7434	816.1654	971.9934	1046.6817	1125.7336	1142.0924	1157.6927	1161.4536	1211.915	1239.0419	1287.0061	1292.944	1371.4388	1437.9533	1454.4851	1464.7458	1489.1989	1493.7703	1511.9688	1513.7889	1583.3649	1601.1528	1620.5708	2992.5044	3036.5212	3075.8022	3107.403	3111.9791	3147.9156	3245.0959	3560.1384	3802.0349
CNC1=CN=C(O)N1C	CNc1cnc(O)n1C	
InChI=1S/C5H9N3O/c1-6-4-3-7-5(9)8(4)2/h3,6H,1-2H3,(H,7,9)	InChI=1S/C5H9N3O/c1-6-4-3-7-5(9)8(4)2/h3,6H,1-2H3,(H,7,9)
