18
gdb 108727	3.00011	1.27721	0.96061	6.2322	82.63	-0.2093	-0.0139	0.1954	1229.653	0.148733	-401.976226	-401.967832	-401.966888	-402.009268	31.676	
C	 0.0986153349	 1.4129715289	-0.0430222515	-0.325312
N	-0.0382813043	-0.0245095463	 0.0636915259	-0.374504
C	-1.2354198218	-0.6508705972	 0.0372611559	 0.431871
C	-2.4842050794	-0.1009386183	 0.0002094674	-0.377537
C	-3.5011604472	-1.1500810225	 0.0539779408	 0.413627
O	-4.7087625739	-1.0310375216	 0.1056857249	-0.373028
C	-2.7586812898	-2.4858675767	 0.039234372	-0.152114
C	-1.924921304	-2.7650889737	-1.1913005429	-0.28079
C	-1.2928925889	-2.1481243526	 0.0412309716	-0.162702
H	 1.1451238329	 1.6872748142	 0.1021054183	 0.131612
H	-0.232646072	 1.7898660782	-1.020132881	 0.134241
H	-0.4980962397	 1.9063833414	 0.7316322087	 0.148059
H	 0.785606554	-0.5879167232	-0.0609121553	 0.250246
H	-2.7284977834	 0.9479800705	-0.0842833427	 0.091329
H	-3.1699155468	-3.3161457732	 0.598592177	 0.105246
H	-1.6905710818	-3.8036494578	-1.4038036068	 0.118018
H	-2.0599032062	-2.1361044834	-2.0648214171	 0.126273
H	-0.5614682825	-2.7089548667	 0.612588385	 0.095467
100.4635	131.1977	176.5715	188.0512	237.4019	315.6426	360.5613	435.0441	463.5578	598.3734	630.6176	686.8267	741.7383	800.7267	819.2728	822.0842	862.9495	927.8661	959.7595	1003.8832	1055.6041	1075.7338	1077.0637	1094.5872	1152.7386	1167.5932	1188.0381	1194.0771	1285.6328	1299.5993	1319.937	1370.0801	1458.7791	1477.4121	1480.5704	1513.8942	1551.6406	1646.9001	1792.3131	3011.2621	3074.1869	3124.6182	3132.0011	3171.3025	3202.2201	3217.4497	3236.842	3651.4695
CNC1=CC(=O)C2CC12	CNC1=CC(=O)[C@H]2C[C@@H]12	
InChI=1S/C7H9NO/c1-8-6-3-7(9)5-2-4(5)6/h3-5,8H,2H2,1H3	InChI=1S/C7H9NO/c1-8-6-3-7(9)5-2-4(5)6/h3-5,8H,2H2,1H3/t4-,5+/m1/s1
