19
gdb 56289	4.21016	0.6033	0.58212	5.1764	77.39	-0.2391	-0.0254	0.2137	1912.1901	0.157282	-419.233937	-419.223466	-419.222521	-419.271285	35.593	
C	 0.3979955231	 1.2834768036	-0.312385974	-0.476676
C	 0.2963365672	-0.2253154805	-0.2286622614	 0.381037
O	 1.1477128949	-0.9109743449	 0.290805567	-0.299475
C	-0.9706890564	-0.8676419089	-0.8125222118	-0.273603
N	-0.9334192387	-2.3159548348	-0.8925429942	-0.281126
C	-0.1389836515	-2.8155999301	-2.0122791438	-0.134166
C	-0.2175934615	-4.3521199251	-2.0399136317	-0.344185
C	 0.4904494475	-4.9233976596	-3.1817731676	 0.255859
N	 1.0508460419	-5.3579183661	-4.094087301	-0.304854
H	 1.2267492817	 1.6391494952	 0.3008004619	 0.149571
H	 0.5683008265	 1.5803496585	-1.3542661482	 0.148932
H	-0.5366068138	 1.7588281938	 0.0040895656	 0.139347
H	-1.807884549	-0.5515340128	-0.1714851894	 0.130026
H	-1.1810782437	-0.4414503325	-1.8012130242	 0.124388
H	-0.51031257	-2.6514680198	-0.0296173263	 0.22736
H	-0.5671405615	-2.4217974439	-2.9409890829	 0.12249
H	 0.9169474372	-2.5067488736	-1.9804377318	 0.120054
H	 0.2119576051	-4.7666530353	-1.1199573396	 0.153635
H	-1.267488069	-4.6613930633	-2.0703687268	 0.161384
49.9922	54.4334	65.3104	106.649	118.2472	147.8443	259.7257	292.319	320.6313	400.9436	461.0585	467.614	544.9326	622.2874	757.5325	789.0434	826.1997	855.518	941.6905	965.8498	1027.8265	1034.4636	1074.6869	1134.1433	1162.3471	1185.1709	1219.766	1270.4502	1317.4895	1322.4364	1356.1228	1383.7399	1406.6097	1450.7764	1462.9727	1470.1632	1475.9461	1514.9105	1522.4658	1810.4856	2364.4336	2991.2158	3000.451	3036.4972	3042.7476	3058.8575	3062.388	3092.5196	3097.4195	3153.0558	3488.5273
CC(=O)CNCCC#N	CC(=O)CNCCC#N	
InChI=1S/C6H10N2O/c1-6(9)5-8-4-2-3-7/h8H,2,4-5H2,1H3	InChI=1S/C6H10N2O/c1-6(9)5-8-4-2-3-7/h8H,2,4-5H2,1H3
