21
gdb 60481	5.91057	0.48909	0.46774	4.0185	81.24	-0.2444	0.0239	0.2683	2288.5609	0.180885	-420.40816	-420.397278	-420.396334	-420.445401	37.979	
C	-0.0081170232	 1.5659056776	 0.0592517798	-0.405583
C	 0.0017423091	 0.0380996766	 0.0354619534	 0.135763
O	 0.752543992	-0.4921596177	 1.1277743476	-0.427976
C	-1.4143151078	-0.5511943717	-0.0140011072	-0.212543
C	-1.4231294437	-2.0756900574	-0.1050602474	-0.123907
N	-2.7936288009	-2.5837018549	-0.1709067532	-0.303166
C	-2.8438941475	-4.0395726474	-0.2162051364	-0.259632
C	-4.2279951879	-4.5216309542	-0.2239980296	 0.255153
N	-5.317989162	-4.903133381	-0.2059516339	-0.298751
H	 1.0140226651	 1.9502629405	 0.110088691	 0.127046
H	-0.4909110255	 1.9746900939	-0.8339635967	 0.12093
H	-0.5583392333	 1.937392548	 0.9332720168	 0.107652
H	 0.5510755835	-0.2994903966	-0.8529690161	 0.091759
H	 0.3795242942	-0.1312877499	 1.9401640524	 0.276489
H	-1.9601720184	-0.2321585227	 0.8876076837	 0.082641
H	-1.9582997741	-0.135154175	-0.8696928114	 0.113488
H	-0.9075322489	-2.3893201246	-1.0231675368	 0.106119
H	-0.8463777826	-2.4952747902	 0.7361886786	 0.099543
H	-3.3198715985	-2.2571880937	 0.6340934241	 0.227563
H	-2.3550586668	-4.3807484254	-1.137637117	 0.15655
H	-2.3149970328	-4.5388630044	 0.6172429581	 0.130861
40.9462	71.2036	79.7121	117.4405	149.716	174.0213	240.6884	277.9261	302.933	323.3817	394.6517	420.0272	474.1247	494.5218	580.888	776.6036	796.019	852.7828	929.6603	948.03	970.3242	1002.6734	1050.5523	1051.3784	1103.2702	1120.968	1146.0153	1174.1725	1197.7805	1263.2192	1289.2093	1302.96	1338.5164	1353.045	1386.1936	1403.3472	1417.3052	1424.8263	1478.3994	1490.6396	1493.0902	1494.7368	1497.843	1523.7951	2368.2598	2931.6096	2966.1538	2991.803	3022.7013	3026.9854	3034.3074	3045.4252	3069.7812	3095.6044	3121.0478	3512.0841	3793.8681
CC(O)CCNCC#N	C[C@@H](O)CCNCC#N	
InChI=1S/C6H12N2O/c1-6(9)2-4-8-5-3-7/h6,8-9H,2,4-5H2,1H3	InChI=1S/C6H12N2O/c1-6(9)2-4-8-5-3-7/h6,8-9H,2,4-5H2,1H3/t6-/m1/s1
