18
gdb 62979	2.26142	1.60394	1.28421	5.0364	76.04	-0.2472	0.0291	0.2763	1058.8335	0.14803	-398.0918	-398.083184	-398.08224	-398.124625	33.132	
C	-0.0881750238	 1.5706289472	-0.1590862216	-0.454301
C	-0.0050821261	 0.0533483841	-0.0574884187	 0.270951
N	-1.2622125574	-0.6236837862	 0.2566214304	-0.558145
C	 0.6889104381	-0.6842525003	-1.2218280589	-0.058502
N	 2.068814854	-0.1612458638	-1.2953409885	-0.331826
C	 1.739879148	-1.234409516	-0.3341328294	-0.053731
C	 1.1274165625	-0.552311631	 0.8987438787	-0.18819
C	 1.9689775161	 0.3509431537	 1.6657182255	 0.301635
N	 2.6219232894	 1.0721165821	 2.2906301826	-0.346466
H	 0.8760472807	 2.0003159714	-0.4382220311	 0.156028
H	-0.8289118093	 1.8534264157	-0.9160223393	 0.104578
H	-0.3963479211	 2.0069936404	 0.7973883852	 0.120909
H	-1.651226129	-0.233581738	 1.1125551452	 0.231665
H	-1.9423637784	-0.4185664318	-0.4724645048	 0.228242
H	 0.1988864442	-1.1328707917	-2.0771840461	 0.09959
H	 2.5268319769	-0.5969833722	-2.0943940354	 0.23869
H	 2.2521917705	-2.1872209018	-0.3492322834	 0.109185
H	 0.6577272448	-1.2808721719	 1.5623094596	 0.129686
105.6748	137.8201	225.456	227.1444	243.9384	291.0213	357.6969	384.6881	405.2674	510.2671	549.6491	571.8842	661.2968	770.7737	829.2101	844.4778	873.3263	901.7188	928.1928	968.6169	976.8715	1016.9635	1042.4214	1083.5691	1088.7404	1108.8423	1158.3818	1193.5048	1242.2192	1270.3338	1288.1558	1333.8749	1351.3186	1384.2006	1408.2954	1481.3491	1500.5171	1654.0334	2354.085	3029.3679	3093.2468	3100.9393	3133.8411	3190.4988	3207.1508	3465.95	3489.3965	3541.559
CC1(N)C2NC2C1C#N	C[C@@]1(N)[C@H]2N[C@H]2[C@H]1C#N	
InChI=1S/C6H9N3/c1-6(8)3(2-7)4-5(6)9-4/h3-5,9H,8H2,1H3	InChI=1S/C6H9N3/c1-6(8)3(2-7)4-5(6)9-4/h3-5,9H,8H2,1H3/t3-,4+,5+,6+/m1/s1
