18
gdb 55238	3.74417	0.95818	0.88798	4.9081	72.83	-0.2375	-0.0145	0.223	1326.3719	0.147682	-439.159501	-439.150495	-439.14955	-439.194408	32.734	
N	 0.0728982697	 1.1127535795	-0.7159929736	-0.527907
C	-0.0484248548	 0.2047448712	 0.2923469265	 0.409145
O	 0.8327445591	 0.0130387866	 1.1099137696	-0.370431
C	-1.3531641951	-0.5869538665	 0.3167021259	-0.104075
C	-1.1058447819	-2.0888555337	-0.0054530441	-0.222498
C	-2.3123693245	-2.8180805833	 0.5986833279	-0.323929
C	-2.7565502363	-1.9446110061	 1.7797146873	 0.396385
O	-3.579691693	-2.240939766	 2.6053741001	-0.310823
C	-1.9815159163	-0.6272748656	 1.7189266158	-0.322764
H	 0.915563066	 1.6619861417	-0.7670590445	 0.263526
H	-0.6706238951	 1.3035153337	-1.3634518111	 0.260241
H	-2.0704038758	-0.1748713344	-0.4036566848	 0.06494
H	-0.9794764659	-2.2676662081	-1.0759428426	 0.105061
H	-0.1818669558	-2.3936293087	 0.4961042522	 0.13464
H	-3.152134924	-2.863135525	-0.107156152	 0.129304
H	-2.1153764405	-3.8424057805	 0.9237850125	 0.13297
H	-1.1732202412	-0.673518542	 2.46084935	 0.160279
H	-2.6180929247	 0.2231369372	 1.9719710849	 0.125936
31.6716	80.5151	137.2958	169.0577	188.8797	289.0895	350.9716	453.125	481.944	569.9225	576.1031	590.1828	625.9726	719.8176	780.1563	811.0169	853.7554	920.2475	946.2419	965.0923	997.6411	1069.8494	1082.8237	1143.7094	1165.3103	1185.3983	1239.0086	1256.7584	1277.1186	1301.2874	1319.5022	1337.1062	1415.6453	1446.5573	1451.4185	1501.0286	1616.8634	1791.3856	1848.9542	3026.4979	3034.9433	3040.2023	3059.2181	3103.247	3112.7801	3115.4959	3602.7501	3741.4206
NC(=O)C1CCC(=O)C1	NC(=O)[C@H]1CCC(=O)C1	
InChI=1S/C6H9NO2/c7-6(9)4-1-2-5(8)3-4/h4H,1-3H2,(H2,7,9)	InChI=1S/C6H9NO2/c7-6(9)4-1-2-5(8)3-4/h4H,1-3H2,(H2,7,9)/t4-/m0/s1
