19
gdb 113916	2.49206	1.28533	0.99411	6.0722	71.98	-0.2415	0.0334	0.2749	1218.7735	0.161543	-456.351161	-456.342494	-456.34155	-456.384708	32.634	
N	-0.2876248676	 1.7055510441	 1.9590647173	-0.526535
H	-1.056737912	 2.3858188441	 3.4151265092	 0.323491
H	 0.6018645404	 2.1547310369	 1.7663954561	 0.24829
H	-0.1520123294	 0.7009657069	 1.8735644186	 0.257302
C	-1.2947467775	 2.1233339298	 0.9736224693	-0.190461
C	-2.5523323533	 1.279613377	 1.0455282516	 0.007125
N	-2.3973536428	-0.164654937	 1.2557155307	-0.353691
C	-3.1568275211	 0.623365791	 2.2441615736	-0.012343
C	-2.6475646208	 0.6456253226	 3.6799517262	-0.341129
C	-2.7233861991	 2.0388157572	 4.312543894	 0.391006
O	-3.6422167366	 2.3973061247	 5.0028165809	-0.333902
O	-1.6926317827	 2.8454474818	 4.0278963598	-0.385274
H	-1.55829485	 3.1688982354	 1.1700333059	 0.133375
H	-0.916452085	 2.0705609616	-0.059087507	 0.104389
H	-3.2798547522	 1.5946621978	 0.297585456	 0.092532
H	-3.0055673928	-0.7047509553	 0.6479263111	 0.238483
H	-4.2419124339	 0.5507310217	 2.1884883139	 0.105354
H	-3.2734946469	-0.0164789214	 4.2826489215	 0.124651
H	-1.6230528869	 0.270672981	 3.7101905415	 0.117337
79.2295	134.1337	145.6145	217.5574	225.8423	282.3084	367.9895	414.709	447.2653	479.5759	613.5601	637.7564	725.1141	752.7357	812.5183	892.3605	908.4705	946.1552	951.0265	979.2071	1012.8325	1037.559	1060.3637	1082.0733	1124.1549	1151.7909	1183.4092	1218.4468	1243.8301	1285.4279	1303.1862	1316.8212	1324.5257	1412.4325	1439.2897	1474.4815	1479.9277	1501.166	1511.0211	1634.1563	1857.5306	2982.0316	3063.3377	3074.9445	3105.0806	3115.9193	3133.389	3187.8522	3489.2819	3515.5412	3574.0548
[NH3+]CC1NC1CC([O-])=O	NC[C@H]1N[C@H]1CC(=O)O	
InChI=1S/C5H10N2O2/c6-2-4-3(7-4)1-5(8)9/h3-4,7H,1-2,6H2,(H,8,9)	InChI=1S/C5H10N2O2/c6-2-4-3(7-4)1-5(8)9/h3-4,7H,1-2,6H2,(H,8,9)/t3-,4+/m0/s1
