21
gdb 115449	3.12564	0.9535	0.94948	3.1906	78.89	-0.2382	-0.0225	0.2156	1389.4701	0.181747	-424.244357	-424.234856	-424.233912	-424.279717	34.092	
C	-0.3088327454	 1.5491687714	 0.1620465082	-0.387022
C	-0.1222338448	 0.0308174951	 0.0715643356	-0.201815
C	-1.4349339128	-0.7393011327	-0.0899188947	 0.018713
C	-2.1951480767	-0.4524738201	-1.3994342377	-0.067573
O	-2.8675423083	-1.657961662	-1.7769853937	-0.253616
C	-2.5736360688	-2.6898225675	-0.8638064057	 0.019359
C	-1.2727587525	-2.2698360683	-0.1492408866	-0.279881
C	-3.6857337149	-2.8882708181	 0.160421152	 0.153329
O	-4.5612949116	-2.0959761558	 0.3843731716	-0.240782
H	 0.6505492306	 2.0558205657	 0.3036235045	 0.116031
H	-0.7645881763	 1.9538206407	-0.7477643604	 0.123243
H	-0.9556594427	 1.8184268445	 1.0042646951	 0.119912
H	 0.5390484063	-0.2108659408	-0.7717519758	 0.096978
H	 0.390319432	-0.3254458016	 0.9739153228	 0.098585
H	-2.0948617163	-0.4954662625	 0.7518705674	 0.092797
H	-2.934980938	 0.3466106152	-1.2898814816	 0.115352
H	-1.5026209297	-0.1725397142	-2.2069229302	 0.092968
H	-2.4556021685	-3.6327574763	-1.4155663672	 0.093933
H	-0.4100384248	-2.547027511	-0.7643991897	 0.111273
H	-1.1465403965	-2.7289282692	 0.8355313451	 0.110347
H	-3.6035449003	-3.8466176024	 0.7290459609	 0.067868
52.4428	66.3754	105.4608	140.0526	194.9941	246.0888	266.5308	315.6013	404.8475	423.9009	576.8776	651.6266	780.8137	782.1627	812.3398	855.7798	899.1583	947.7731	956.8558	986.8694	995.8863	1003.4464	1048.9863	1082.5961	1139.223	1151.0177	1168.2417	1198.8483	1244.9452	1248.7336	1291.8329	1299.3934	1338.5407	1354.8373	1368.0412	1383.8105	1402.6086	1418.5009	1418.8258	1484.7223	1491.3748	1502.5512	1506.037	1525.8886	1841.4585	2836.8452	2993.8748	3012.2707	3017.2418	3028.322	3034.2554	3048.8732	3051.3642	3071.697	3097.9377	3101.5163	3106.5999
CCC1COC(C1)C=O	CC[C@H]1CO[C@@H](C1)C=O	
InChI=1S/C7H12O2/c1-2-6-3-7(4-8)9-5-6/h4,6-7H,2-3,5H2,1H3	InChI=1S/C7H12O2/c1-2-6-3-7(4-8)9-5-6/h4,6-7H,2-3,5H2,1H3/t6-,7+/m1/s1
