19
gdb 36288	3.59803	1.08019	1.07002	1.4412	79.59	-0.2454	0.0516	0.297	1211.0459	0.160046	-385.834619	-385.826693	-385.825748	-385.867464	31.248	
C	 0.0254077462	-1.2145756067	-0.2490908477	-0.44808
C	-0.0334303597	-0.040786383	 0.0029602319	 0.305221
C	-0.0657279395	 1.3886540366	 0.2945976209	-0.407271
C	 1.3023363939	 2.0468196347	 0.0918383538	 0.03646
C	 1.9481391114	 2.2512097225	-1.3016452473	 0.070361
C	 0.8965198156	 3.0287995727	-2.120176708	-0.222645
C	 0.5478607288	 4.0961243291	-1.0336043905	-0.221907
C	 1.508716252	 3.5833891328	 0.0603477236	 0.042437
O	 2.7270591888	 3.3404025803	-0.7091406215	-0.299766
H	 0.0641920787	-2.2530171218	-0.4667815963	 0.197042
H	-0.829305137	 1.8673728412	-0.3285841535	 0.131667
H	-0.3844587466	 1.5431043849	 1.3340974467	 0.133147
H	 2.0433994399	 1.6014038462	 0.7581258011	 0.098695
H	 2.5482430523	 1.4881760956	-1.7956719924	 0.083629
H	 1.3444192689	 3.4683746675	-3.0131259733	 0.110123
H	 0.0466427013	 2.4134074407	-2.4274175661	 0.104321
H	 0.8150889797	 5.1096419085	-1.3383155408	 0.110206
H	-0.5028508951	 4.0945609063	-0.7301879511	 0.098169
H	 1.6588161404	 4.183843142	 0.9579080206	 0.078192
53.4792	115.3511	238.5408	266.2577	342.0929	350.8007	452.8406	504.1108	598.334	622.7892	638.7392	718.358	770.7793	834.7158	847.6182	864.027	872.9167	916.2101	927.8275	958.2158	1002.9698	1006.7737	1021.4912	1029.0117	1122.314	1135.9145	1163.8239	1197.2132	1207.5695	1245.9297	1251.5504	1276.4927	1298.5268	1310.2162	1328.7385	1344.8818	1398.8947	1467.0191	1487.3385	1504.7277	2238.5099	3022.4917	3060.198	3063.1891	3072.1151	3101.9848	3109.9384	3120.7067	3126.1344	3134.9	3506.571
C#CCC1C2CCC1O2	C#CC[C@H]1[C@H]2CC[C@@H]1O2	
InChI=1S/C8H10O/c1-2-3-6-7-4-5-8(6)9-7/h1,6-8H,3-5H2	InChI=1S/C8H10O/c1-2-3-6-7-4-5-8(6)9-7/h1,6-8H,3-5H2/t6-,7+,8-
