19
gdb 42126	2.6006	1.57351	1.07281	0.9976	78.13	-0.2346	0.0243	0.259	1133.729	0.160688	-422.980358	-422.972061	-422.971117	-423.012992	31.661	
C	-0.0158020205	 1.2124611525	-0.4741757786	-0.187374
C	 1.2962468289	 2.0104291491	-0.4140159935	-0.075352
O	 2.3434316629	 1.2035238806	-0.9577500652	-0.230315
C	 3.6356793139	 1.4308950357	-0.4746487925	 0.018582
O	 3.8498769719	 1.1230519926	 0.8846408804	-0.229738
C	 3.6124642927	-0.2389082882	 1.256449304	-0.215539
C	 2.1720909978	-0.4827852584	 1.3359786255	 0.048889
C	 0.9917659797	-0.3046194525	 1.179079465	 0.085414
C	-0.2741667593	 0.2671224664	 0.7396779269	-0.344442
H	-0.8588439144	 1.9071634243	-0.55496038	 0.099656
H	 0.0086616822	 0.625900482	-1.3977491855	 0.123928
H	 1.2044179938	 2.9260978536	-1.0166431101	 0.093019
H	 1.5334137741	 2.3004907841	 0.6156754484	 0.116676
H	 4.2801871722	 0.8128865197	-1.1162122844	 0.096359
H	 3.925549477	 2.4884479824	-0.5554298322	 0.096749
H	 4.0889499164	-0.9222701389	 0.5365174469	 0.117784
H	 4.1134445232	-0.3722185084	 2.2202768605	 0.13237
H	-0.7253457372	 0.83813821	 1.5614060498	 0.127513
H	-1.0073412652	-0.4986212164	 0.4623808144	 0.125821
106.92	168.1903	208.3063	238.3679	259.702	321.3445	347.0357	375.4584	414.0085	530.2819	543.5826	648.277	744.4657	818.0476	864.9441	886.9173	909.4502	1003.7812	1012.7268	1033.6328	1063.9636	1095.8937	1132.5331	1156.5866	1169.292	1222.5452	1245.135	1277.4907	1282.3825	1331.7	1345.221	1369.1984	1383.2505	1415.7326	1445.5105	1468.2774	1478.3301	1483.5082	1498.6439	1505.7463	2353.4047	2986.6238	2989.0433	2994.6632	3023.1393	3038.155	3046.1334	3059.1182	3066.112	3073.6684	3097.551
C1COCOCC#CC1	C1COCOCC#CC1	
InChI=1S/C7H10O2/c1-2-4-6-9-7-8-5-3-1/h1,3,5-7H2	InChI=1S/C7H10O2/c1-2-4-6-9-7-8-5-3-1/h1,3,5-7H2
