18
gdb 61797	3.34911	0.85506	0.83755	1.5356	70.78	-0.2567	-0.0498	0.2069	1422.1122	0.145114	-476.25768	-476.247705	-476.246761	-476.293934	34.884	
C	-0.1232431539	 1.8203133158	 0.007039571	-0.402662
C	 0.0579803614	 0.2986623652	 0.0338625072	 0.010884
N	 0.7990001452	-0.1237286364	 1.2117965266	-0.277839
C	 2.0366741232	-0.6830434934	 1.1526790801	 0.153497
O	 2.6747150747	-0.8647679723	 0.1365269136	-0.326475
C	-1.2958723386	-0.4540725428	 0.0226133938	 0.040096
O	-2.0209566113	-0.1757069021	 1.1926836677	-0.444709
C	-2.119429768	-0.1172276068	-1.2020739282	 0.132647
O	-3.2377862281	 0.3287492505	-1.1081159105	-0.261369
H	 0.8485544047	 2.3146255849	 0.0723108297	 0.135638
H	-0.6100856678	 2.1452569219	-0.9186518621	 0.124183
H	-0.7413664448	 2.1471067401	 0.8478413357	 0.132129
H	 0.6547280954	-0.0271181376	-0.8232519639	 0.124875
H	 0.3272431704	-0.0551643349	 2.1009252713	 0.261288
H	 2.4110058945	-0.9568663049	 2.1584554935	 0.079439
H	-1.0681577842	-1.5328933003	-0.0368554859	 0.108646
H	-2.8788599845	 0.1682178256	 0.8958922513	 0.2995
H	-1.6450498186	-0.3095282524	-2.1852692809	 0.110232
26.2347	63.303	109.9449	189.7969	198.6937	232.665	258.9662	285.9673	310.2326	399.8759	453.9395	462.2164	581.3602	628.0851	720.2455	787.5768	842.9833	886.8046	950.5404	987.5262	1025.7713	1033.5165	1119.2679	1142.5371	1176.4706	1215.5123	1260.232	1317.4019	1332.0065	1369.5447	1399.6453	1413.9983	1428.1249	1429.8863	1489.5593	1499.9824	1525.5185	1799.3155	1810.6325	2937.3519	2943.756	2963.4967	3042.8801	3083.9085	3113.5887	3133.5071	3627.1984	3686.0616
CC(NC=O)C(O)C=O	C[C@@H](NC=O)[C@@H](O)C=O	
InChI=1S/C5H9NO3/c1-4(6-3-8)5(9)2-7/h2-5,9H,1H3,(H,6,8)	InChI=1S/C5H9NO3/c1-4(6-3-8)5(9)2-7/h2-5,9H,1H3,(H,6,8)/t4-,5+/m1/s1
