16
gdb 126346	2.8533	1.41561	1.01664	2.0568	77.05	-0.2453	-0.0803	0.165	1148.5333	0.123142	-434.02695	-434.018549	-434.017605	-434.060364	30.817	
C	-0.195239652	 1.5145642409	 0.024427392	-0.378389
C	 0.0871588848	 0.002073463	 0.0285113268	-0.283449
C	 0.7498930199	-0.4845438397	-1.2301648787	 0.155606
C	 2.0355058388	-0.8871106104	-1.264962573	 0.036105
O	 2.6843837862	-1.3213621152	-2.3531944215	-0.251457
N	 1.9270717232	-1.3629481704	-3.6305559515	 0.045656
N	 0.7632315239	-1.0143027684	-3.6196647178	-0.138055
C	 0.0151250548	-0.5478207429	-2.4736952408	 0.326429
N	-1.2125151275	-0.2344401451	-2.6167260864	-0.503673
H	 0.7326972741	 2.0870931746	-0.0721212773	 0.113664
H	-0.8547208654	 1.7789765968	-0.8047570329	 0.15159
H	-0.6819339264	 1.8108472461	 0.9582955436	 0.117573
H	 0.7211366334	-0.2571758252	 0.8844970042	 0.099884
H	-0.8598702892	-0.5357934831	 0.1499460738	 0.130947
H	 2.6796555243	-0.8977811817	-0.389141862	 0.143538
H	-1.4957943727	-0.3755601293	-3.5881872984	 0.234033
70.7344	87.2785	175.5999	208.2869	298.2035	349.3726	392.8791	410.3066	459.7623	508.617	556.2608	600.0613	746.2851	782.203	799.0719	868.3696	897.7795	931.1735	974.3421	1019.8436	1083.6488	1090.265	1163.7181	1226.9673	1286.0433	1316.3024	1359.0771	1401.6251	1422.5045	1472.4011	1495.2684	1511.7929	1633.9209	1702.5144	1712.8706	3032.0269	3043.4151	3074.5138	3111.0729	3138.0068	3168.7992	3469.9278
CCC1=CON=NC1=N	CCC1=CO[N]N=C1[NH]	
InChI=1S/C5H7N3O/c1-2-4-3-9-8-7-5(4)6/h3,6H,2H2,1H3	InChI=1S/C5H7N3O/c1-2-4-3-9-8-7-5(4)6/h3,6H,2H2,1H3
