16
gdb 26769	3.59094	1.11871	0.85855	2.2158	87.63	-0.1888	-0.0127	0.1761	1302.8364	0.12293	-400.750089	-400.740999	-400.740055	-400.783881	33.39	
C	 0.1446320397	 1.4413904923	 0.0537112678	-0.509029
C	-0.0592363953	-0.0295377022	 0.0202825037	 0.28361
C	-1.1763681562	-0.8239011449	-0.0151746849	 0.171242
N	-2.5228445418	-0.4291064238	 0.0280774936	-0.613866
C	-0.7083310601	-2.1733095835	-0.0130752684	-0.367344
C	 0.6586351467	-2.1144241508	 0.0236358134	 0.231389
O	 1.0633007776	-0.8104655803	 0.0511582819	-0.215447
C	 1.6439910225	-3.1153911076	 0.0368981942	 0.242826
C	 2.4801803828	-3.983278447	 0.0477484866	-0.419055
H	 0.926083841	 1.7456556102	-0.650732063	 0.143007
H	-0.7773154272	 1.9616734817	-0.2230943216	 0.121714
H	 0.4394248312	 1.8006345852	 1.0479114152	 0.141633
H	-2.6572858189	 0.5413923585	-0.2253394515	 0.240249
H	-3.1139114321	-1.006427333	-0.5567472857	 0.246026
H	-1.3040569675	-3.0724646004	-0.0310219079	 0.112199
H	 3.2170520575	-4.7474080442	 0.0584214367	 0.190846
81.7716	121.6514	140.9982	177.5022	227.3015	260.8602	323.0825	388.0262	459.4675	519.5661	533.1881	570.249	635.8247	650.1132	677.7976	685.4742	748.684	792.7132	814.8093	968.0534	1018.0081	1055.966	1064.7691	1173.2884	1229.8574	1269.3729	1288.7253	1413.521	1466.6134	1473.9854	1491.9703	1561.4078	1648.607	1681.1906	2226.9118	3019.9445	3074.4787	3107.0849	3258.3383	3504.2586	3532.7789	3621.7744
CC1=C(N)C=C(O1)C#C	Cc1c(N)cc(o1)C#C	
InChI=1S/C7H7NO/c1-3-6-4-7(8)5(2)9-6/h1,4H,8H2,2H3	InChI=1S/C7H7NO/c1-3-6-4-7(8)5(2)9-6/h1,4H,8H2,2H3
