21
gdb 47426	2.89159	1.23255	0.91741	2.6084	82.42	-0.2292	-0.0125	0.2167	1311.5962	0.183307	-387.115421	-387.106797	-387.105853	-387.149449	32.901	
O	 0.1475896673	 0.0962569416	 0.3742450972	-0.316262
C	 0.0233393774	 1.272616274	 0.1503051476	 0.394942
C	-1.2853682568	 1.98115208	-0.2194413412	-0.313124
C	-0.8715531731	 3.4109542097	-0.6025309636	-0.22163
C	 0.4017243002	 3.6658539183	 0.2316065952	-0.230937
C	 1.1535136585	 2.3220717285	 0.2007767306	-0.096627
C	 2.1616846278	 2.084644941	 1.2977248215	 0.03469
C	 3.2732904951	 1.0869526874	 1.114718779	-0.255854
C	 3.5878255709	 2.5612980692	 1.1512874404	-0.28694
H	-1.8277707308	 1.4270503741	-0.9893489925	 0.126429
H	-1.9180958236	 1.9775730427	 0.6781364561	 0.130936
H	-0.6297498484	 3.4581208103	-1.6708746855	 0.104793
H	-1.6548393322	 4.1495439238	-0.41593106	 0.103059
H	 1.0018329728	 4.4970499929	-0.1463378594	 0.103887
H	 0.1287226974	 3.907279612	 1.2671382579	 0.101127
H	 1.6640490856	 2.2332499979	-0.7722010486	 0.09361
H	 1.741203587	 2.1463406006	 2.2987364599	 0.080736
H	 3.5564633384	 0.4754438876	 1.9636222252	 0.113669
H	 3.3370715094	 0.5730897748	 0.162155609	 0.116388
H	 3.867998247	 3.0457433831	 0.2211791214	 0.106571
H	 4.08813927	 2.9629090804	 2.0254808799	 0.110535
56.0213	73.098	147.5131	175.1292	273.7525	315.8383	389.9416	471.6131	540.8542	561.9841	613.0186	711.2677	778.29	820.5777	839.7407	871.9887	900.2649	911.5139	939.3915	954.1798	990.426	1014.8471	1053.3359	1062.8281	1076.0285	1113.5384	1132.6587	1156.4612	1174.1419	1195.4235	1218.7567	1226.6471	1231.8945	1277.6876	1298.344	1300.4159	1338.5764	1345.6368	1420.4633	1448.0418	1472.1387	1493.4048	1505.0292	1508.1416	1841.9369	2979.0083	3028.2594	3032.5671	3041.8697	3095.6029	3099.6237	3106.4442	3128.4112	3132.097	3141.3807	3208.0382	3226.3955
O=C1CCCC1C1CC1	O=C1CCC[C@H]1C1CC1	
InChI=1S/C8H12O/c9-8-3-1-2-7(8)6-4-5-6/h6-7H,1-5H2	InChI=1S/C8H12O/c9-8-3-1-2-7(8)6-4-5-6/h6-7H,1-5H2/t7-/m0/s1
