21
gdb 120342	3.83955	0.9992	0.88743	0.7789	84.8	-0.2294	0.0124	0.2418	1397.7509	0.182723	-387.077696	-387.068911	-387.067967	-387.111855	33.233	
C	 0.0602995561	 1.524905492	 0.0191582865	-0.383161
C	-0.1054374554	 0.0188805064	-0.1027762304	-0.032786
O	 0.7833511307	-0.4454720248	-1.09883818	-0.256687
C	 0.8059137611	-1.8594171435	-1.2577576902	 0.090858
C	-0.3826116201	-2.4144911372	-2.0364692834	-0.111835
C	 0.0046185493	-3.0985616307	-3.113615024	-0.076097
C	 1.490027623	-3.0874619496	-3.272360577	-0.081291
C	 2.0892674499	-1.7135115284	-3.5055467895	-0.266624
C	 2.0058660168	-2.2708967742	-2.1071495059	-0.069146
H	 1.089522815	 1.7760053151	 0.2908097619	 0.12534
H	-0.1703871452	 2.0133034229	-0.9318890295	 0.126035
H	-0.6108671295	 1.9230403828	 0.7862259091	 0.111666
H	 0.1139079762	-0.4735455992	 0.8603871636	 0.082233
H	-1.1490878207	-0.227668288	-0.3573226012	 0.085151
H	 0.8657640416	-2.3196136726	-0.2559969975	 0.063715
H	-1.4090059204	-2.2264635605	-1.7444517536	 0.094541
H	-0.6578983707	-3.575532155	-3.8280861821	 0.096159
H	 2.0119884387	-3.9642891516	-3.6378946633	 0.086131
H	 3.077615556	-1.6646100354	-3.9507520381	 0.107223
H	 1.4208147375	-0.9055887659	-3.7794563716	 0.123861
H	 2.9280251099	-2.5302823228	-1.6026630938	 0.084712
56.2963	81.84	114.0893	205.4449	247.4337	290.8175	352.7323	412.6501	467.7542	597.532	693.9111	744.5014	783.1124	805.2	820.7273	833.1105	898.5189	922.7552	948.031	950.064	987.2881	1012.7703	1045.406	1054.7123	1063.2021	1094.0299	1102.6053	1122.2959	1141.7633	1160.4884	1187.6682	1201.3503	1297.126	1304.1973	1320.6679	1348.783	1374.9761	1388.105	1400.9231	1435.7094	1478.1525	1482.0747	1499.9125	1529.022	1671.8765	2941.7522	2955.2167	2981.9182	3043.939	3117.9245	3120.9829	3132.3956	3172.4987	3182.9802	3188.4011	3210.4862	3225.846
CCOC1C=CC2CC12	CCO[C@H]1C=C[C@H]2C[C@@H]12	
InChI=1S/C8H12O/c1-2-9-8-4-3-6-5-7(6)8/h3-4,6-8H,2,5H2,1H3	InChI=1S/C8H12O/c1-2-9-8-4-3-6-5-7(6)8/h3-4,6-8H,2,5H2,1H3/t6-,7+,8-/m0/s1
