15
gdb 13645	5.39709	0.92927	0.84348	5.789	82.1	-0.2635	-0.0375	0.226	1318.8429	0.118533	-325.510648	-325.502548	-325.501604	-325.543618	28.93	
C	-0.1106649784	 1.515357188	-0.1061526488	-0.411762
C	 0.0162354164	 0.0143527706	-0.0002210998	 0.014657
C	 1.3281117485	-0.6712362778	-0.2138008253	-0.28345
C	 0.7249032745	-0.6412542521	 1.1907934419	-0.214921
C	 1.3283172529	 0.1479342956	 2.2107513993	 0.141541
C	 1.8328806126	 0.8096094883	 3.0906206089	 0.001353
C	 2.4066503782	 1.5569557212	 4.0758705645	 0.201227
N	 2.8960600735	 2.1958902075	 4.9149249914	-0.342879
H	 0.7875757303	 2.0191787306	 0.261441859	 0.133835
H	-0.2616366972	 1.8125580615	-1.1490311282	 0.127477
H	-0.9612298251	 1.8830107577	 0.4765314914	 0.13167
H	-0.8607530397	-0.5394560254	-0.3239484762	 0.10463
H	 1.354669399	-1.6339994545	-0.7110132844	 0.130262
H	 2.2017217274	-0.050159408	-0.3774648349	 0.136683
H	 0.2946759871	-1.5732357331	 1.5453497611	 0.129677
76.4419	95.84	181.7031	201.9067	243.4856	337.9364	370.3429	477.9865	539.2848	579.9104	595.305	689.0554	757.2013	846.8179	869.3331	926.4334	973.9099	1062.6105	1073.8033	1093.4413	1140.6572	1188.5692	1198.616	1245.23	1379.8352	1402.4964	1425.9949	1482.7753	1492.2497	1501.421	2258.694	2387.1124	3039.3456	3103.7495	3114.8282	3141.4188	3146.4939	3155.2274	3232.5848
CC1CC1C#CC#N	C[C@H]1C[C@H]1C#CC#N	
InChI=1S/C7H7N/c1-6-5-7(6)3-2-4-8/h6-7H,5H2,1H3	InChI=1S/C7H7N/c1-6-5-7(6)3-2-4-8/h6-7H,5H2,1H3/t6-,7+/m0/s1
