17
gdb 62266	5.02303	0.56801	0.55598	3.2315	68.18	-0.2809	-0.0517	0.2293	1906.5045	0.132677	-496.124986	-496.115154	-496.114209	-496.161696	33.203	
O	-0.0430751138	 1.4199577974	-0.1326928701	-0.434602
C	 0.0044050559	 0.0233065436	-0.0236623412	 0.043023
C	 0.4697225515	-0.6218744368	-1.3401376115	-0.215756
C	-0.4551627029	-0.237215678	-2.4906509224	-0.089082
O	-0.0387723508	-0.8923726975	-3.6929012204	-0.177794
C	 0.4553881918	-0.1348242157	-4.6919211755	 0.168177
O	 0.8489799524	-0.5983649419	-5.7185285604	-0.271097
C	 0.9142983313	-0.386231294	 1.1179537348	 0.138277
O	 1.4825673917	 0.4343771177	 1.7957297046	-0.25421
H	 0.5191628074	 1.7588174657	 0.5827084003	 0.298767
H	-0.9987657703	-0.3760304252	 0.2207914296	 0.099196
H	 1.4889556355	-0.2880432247	-1.5656728622	 0.122611
H	 0.4889382294	-1.7130144231	-1.2381688528	 0.119829
H	-1.4815258518	-0.5622194048	-2.2904855869	 0.124947
H	-0.4595298861	 0.8498753301	-2.6237216672	 0.13909
H	 0.4473621797	 0.946822045	-4.4523724473	 0.082316
H	 1.0288541192	-1.4748469479	 1.2937907388	 0.106306
33.4867	61.8833	89.2646	109.4167	157.3433	217.5013	283.4711	327.2938	345.2605	411.6574	433.7305	509.0252	665.5338	759.6796	793.4885	847.1705	958.4748	969.2244	1043.6216	1049.6681	1076.9808	1117.8155	1144.1813	1189.211	1251.7743	1274.904	1306.84	1334.8456	1358.4686	1396.2975	1408.4498	1433.711	1439.4334	1477.9077	1511.9666	1816.2915	1869.3237	2924.7412	2942.2373	2947.1412	3037.006	3046.3199	3079.8829	3103.4947	3682.8668
OC(CCOC=O)C=O	O[C@@H](CCOC=O)C=O	
InChI=1S/C5H8O4/c6-3-5(8)1-2-9-4-7/h3-5,8H,1-2H2	InChI=1S/C5H8O4/c6-3-5(8)1-2-9-4-7/h3-5,8H,1-2H2/t5-/m0/s1
