21
gdb 124515	2.46753	1.31935	0.9874	1.8741	84.63	-0.2269	0.0318	0.2587	1286.875	0.182899	-383.310707	-383.301037	-383.300093	-383.345554	35.756	
C	 0.3401293197	 1.7000048197	-0.1673621976	-0.390285
C	-0.0167781782	 0.2299963004	 0.0966636332	-0.086954
C	 0.2380891609	-0.6247122104	-1.1613765556	-0.378222
C	 0.701017048	-0.3304725372	 1.2973346778	 0.161702
C	 1.9129439049	 0.0566973094	 1.8348485889	-0.129086
N	 2.1499436398	-0.758035352	 2.8913684804	-0.193901
N	 1.1686614497	-1.6579198454	 3.0922676172	-0.286739
C	 0.2837486829	-1.409654835	 2.1280960761	 0.267147
C	-0.9705850554	-2.2205834956	 2.030571297	-0.502948
H	 1.3983491247	 1.807980929	-0.4325595701	 0.111227
H	-0.2460620377	 2.0969494734	-1.0022908132	 0.109426
H	 0.1477209614	 2.3215465831	 0.7121985383	 0.115824
H	-1.0942605457	 0.1836183774	 0.3077320481	 0.076556
H	 1.2991559887	-0.6016598588	-1.4330185153	 0.113585
H	-0.0391776659	-1.6702037435	-0.9978861502	 0.117657
H	-0.3398512393	-0.2495457342	-2.0131946121	 0.106643
H	 2.6049381358	 0.8364306979	 1.5584349713	 0.127582
H	 2.9362466645	-0.745388185	 3.5173057122	 0.269782
H	-1.8631597429	-1.5845255364	 2.0411641564	 0.125017
H	-1.0065693968	-2.8091199765	 1.1065959024	 0.126946
H	-1.029787859	-2.9100573104	 2.8753419847	 0.139041
37.1996	114.467	151.6442	174.6837	238.0259	262.2231	267.9832	290.3896	359.7734	430.4301	479.4933	493.4164	605.6668	674.9327	713.842	725.107	796.1932	888.0313	927.3274	946.8745	964.673	1006.2469	1064.0277	1076.9303	1102.1897	1107.2254	1135.5616	1195.5612	1222.0371	1321.5227	1339.2783	1356.2626	1395.114	1397.5964	1411.328	1418.2888	1475.1384	1482.4929	1485.3011	1489.8498	1492.3943	1502.6968	1504.5353	1516.9045	1605.0905	3002.1028	3025.962	3029.1985	3030.376	3076.9325	3090.87	3097.9345	3106.2497	3108.3268	3129.6064	3258.4118	3681.6167
CC(C)C1=CNN=C1C	CC(C)c1c[nH]nc1C	
InChI=1S/C7H12N2/c1-5(2)7-4-8-9-6(7)3/h4-5H,1-3H3,(H,8,9)	InChI=1S/C7H12N2/c1-5(2)7-4-8-9-6(7)3/h4-5H,1-3H3,(H,8,9)
