18
gdb 18076	4.53195	1.21745	1.13473	0.1964	80.78	-0.2267	0.0575	0.2842	1136.1298	0.153725	-310.617901	-310.609696	-310.608752	-310.652364	29.664	
C	-0.0093457626	 1.4834871046	 0.0018830707	-0.498992
C	-0.0286619747	 0.0275289034	 0.0217511644	 0.062902
C	-0.0363942715	-1.1781196162	 0.0335297314	 0.092245
C	-0.0447313055	-2.6149523459	 0.0454358768	-0.202344
C	-0.4411585028	-3.4464597077	 1.2530132925	-0.060559
C	-1.5513079088	-2.7509013135	 2.0487050936	-0.229742
C	-2.4457050494	-2.7549627085	 0.7635861807	-0.22972
C	-1.3120442602	-3.4510506663	 0.0022313201	-0.06049
H	 1.0170940369	 1.8670295477	-0.015864052	 0.146452
H	-0.5258839486	 1.8816460844	-0.8789345671	 0.145019
H	-0.500000095	 1.900251081	 0.8886149115	 0.145953
H	 0.7664114141	-3.0718893699	-0.5175537201	 0.104634
H	 0.2274305116	-4.2114844854	 1.6303322761	 0.08516
H	-1.9620978391	-3.3820398726	 2.8394199518	 0.100426
H	-1.2954606675	-1.7737794117	 2.4675067642	 0.106732
H	-3.3284126642	-3.3876369118	 0.8768788262	 0.100351
H	-2.7514816297	-1.7801534514	 0.3739001973	 0.106788
H	-1.4314020531	-4.2201709404	-0.7519831281	 0.085184
13.1218	92.8039	113.9236	237.4633	253.5272	336.1325	395.4408	520.7763	527.2148	737.9163	740.156	784.5168	785.9898	833.9079	938.7698	944.851	959.5797	994.5754	1022.8208	1052.5316	1053.0864	1070.9792	1082.007	1103.0165	1147.6986	1218.0014	1226.4648	1244.1786	1258.2566	1304.4734	1338.2075	1411.8653	1418.9813	1473.2088	1477.9046	1480.3514	1496.2883	2362.8299	3023.6277	3058.2628	3064.4001	3081.7447	3084.3997	3105.4444	3122.8904	3129.5583	3170.2322	3182.9192
CC#CC1C2CCC12	CC#C[C@H]1[C@H]2CC[C@@H]12	
InChI=1S/C8H10/c1-2-3-6-7-4-5-8(6)7/h6-8H,4-5H2,1H3	InChI=1S/C8H10/c1-2-3-6-7-4-5-8(6)7/h6-8H,4-5H2,1H3/t6-,7+,8-
