15
gdb 98053	3.98016	0.81188	0.68007	2.0103	74.5	-0.2565	-0.0853	0.1711	1619.3092	0.108734	-457.773961	-457.763614	-457.762669	-457.812445	33.147	
C	 0.2431419652	 1.4358021745	 0.0757683109	-0.241893
O	 0.299069842	 0.0025685847	 0.0266555943	-0.212595
C	 0.8911134397	-0.50481514	-1.0531489204	 0.385887
O	 1.3658129883	 0.131810478	-1.9587905541	-0.354522
C	 0.8974340157	-2.0495760986	-1.0058738714	 0.061818
O	 0.4125297983	-2.6603826858	-0.0823509143	-0.260498
C	 1.5230860482	-2.6676985649	-2.1436628305	 0.091781
C	 2.037360903	-3.2347076491	-3.0769700644	 0.100957
C	 2.6592396455	-3.9003163444	-4.2059476548	-0.5051
H	 1.2512359088	 1.857668764	 0.0626185568	 0.145697
H	-0.3135819364	 1.8254829135	-0.7801572663	 0.145696
H	-0.2641911807	 1.6791595055	 1.008453211	 0.143328
H	 2.6166741514	-4.9892557692	-4.1037877122	 0.163449
H	 2.158247941	-3.6228287142	-5.1397509629	 0.167983
H	 3.71021886	-3.6045247439	-4.2952491616	 0.168015
15.365	30.5077	73.7584	111.11	133.1519	164.9205	204.3986	301.7658	336.9646	390.0179	413.7887	466.4354	527.953	648.5876	812.581	839.8189	912.7608	1034.6621	1042.3336	1053.7578	1177.9429	1190.8497	1218.7952	1322.3463	1408.1018	1466.9086	1470.8876	1473.269	1481.9986	1493.3475	1769.3226	1814.2928	2340.8219	3033.5254	3053.5955	3097.3478	3103.9395	3128.9665	3167.8451
COC(=O)C(=O)C#CC	COC(=O)C(=O)C#CC	
InChI=1S/C6H6O3/c1-3-4-5(7)6(8)9-2/h1-2H3	InChI=1S/C6H6O3/c1-3-4-5(7)6(8)9-2/h1-2H3
