16
gdb 44238	4.08971	1.2429	1.14737	3.1618	68.9	-0.2606	0.0034	0.264	1068.3482	0.125334	-437.861601	-437.854435	-437.85349	-437.893527	27.656	
O	-0.4568290387	 0.3769224387	-0.5637533612	-0.318277
C	-0.1277074023	 1.412685426	-0.0858562233	 0.452581
O	-0.9359796476	 2.3396475173	 0.5450467111	-0.252337
C	 0.2042461719	 3.2195452901	 0.8182391	 0.00225
C	 1.1502040046	 2.2287190273	 0.093693965	-0.227509
C	 1.3749193173	 3.2839118121	-1.0409265079	-0.320251
C	 0.429069106	 4.2414730934	-0.2940473794	 0.346613
C	-0.5356331761	 5.2457252831	-0.7839082004	-0.29242
N	 0.7141864082	 5.6617543521	-0.1164342555	-0.360767
H	 0.2454173205	 3.505394211	 1.8693781147	 0.099546
H	 2.0112807182	 1.7326641778	 0.5342729769	 0.116017
H	 2.4001300799	 3.6582181255	-1.0653517419	 0.132967
H	 1.0817263661	 2.9710404891	-2.0449043399	 0.128815
H	-0.5794028822	 5.4724769984	-1.8454783654	 0.129919
H	-1.4798832424	 5.346609057	-0.2553144526	 0.127722
H	 0.5228956368	 5.9458831511	 0.8422732099	 0.235132
72.297	175.9543	221.4557	313.3954	336.4068	448.7053	465.552	566.1801	689.7236	768.9964	789.7806	836.1958	875.5902	890.448	910.3471	923.2292	945.087	977.9087	992.5535	1044.7998	1050.4656	1094.1977	1125.6389	1134.7232	1165.7184	1214.4605	1237.0979	1259.7623	1271.0638	1291.353	1299.2958	1416.2444	1479.5533	1513.3576	1939.3968	3076.2477	3110.9254	3119.1518	3132.2692	3154.9715	3198.057	3486.5227
O=C1OC2C1CC21CN1	O=C1O[C@H]2[C@@H]1C[C@]12CN1	
InChI=1S/C6H7NO2/c8-5-3-1-6(2-7-6)4(3)9-5/h3-4,7H,1-2H2	InChI=1S/C6H7NO2/c8-5-3-1-6(2-7-6)4(3)9-5/h3-4,7H,1-2H2/t3-,4-,6+/m0/s1
