22
gdb 90068	2.53921	1.64635	1.41829	1.9117	87.51	-0.1996	0.0573	0.2568	1065.1367	0.194134	-367.057201	-367.048808	-367.047864	-367.089376	34.309	
C	-0.1366490963	 1.3524950385	-0.4779577355	-0.417162
C	 0.1746161199	-0.1215987511	-0.2321116676	-0.057855
C	 1.3801999666	-0.7936401057	-1.0500698278	-0.365518
C	 2.0941490891	-0.902951382	 0.3156837719	 0.230817
C	 2.7203636349	-1.5637579264	 1.5838699302	-0.266009
N	 1.9265450023	-0.343021001	 2.1793534558	-0.222635
C	 2.5389786316	 0.4120324511	 1.0050565658	-0.186598
C	 0.8151680923	-0.7749316475	 1.1026102442	 0.346357
C	-0.0682980918	-1.8996385726	 1.616433276	-0.482864
H	 0.7523210129	 1.9823984469	-0.55181426	 0.123688
H	-0.6841535569	 1.4620531499	-1.4213771282	 0.115684
H	-0.7709948634	 1.7554111578	 0.3185591587	 0.1256
H	-0.7558240808	-0.6713435951	-0.4037356149	 0.08578
H	 1.0818129675	-1.74577295	-1.4966249723	 0.106591
H	 1.8661133016	-0.1774719938	-1.8123029196	 0.100956
H	 2.3531365818	-2.542581281	 1.8918821941	 0.106852
H	 3.7953977296	-1.4696805156	 1.7641758437	 0.100944
H	 3.6163859143	 0.5771816994	 1.1032689683	 0.089147
H	 2.0298031398	 1.347050079	 0.7847386473	 0.102465
H	 0.3519461607	-2.3999567466	 2.4911886283	 0.127194
H	-1.0386395355	-1.4860772612	 1.9158595281	 0.120652
H	-0.2646224401	-2.6570648831	 0.8478669636	 0.115913
142.8151	176.4097	193.4134	243.8114	291.6089	336.144	376.0462	426.64	458.058	529.9873	579.5376	619.7263	709.0056	740.642	782.7098	797.13	859.6947	873.856	898.0842	937.2	971.316	1002.4787	1026.749	1052.0905	1066.2078	1087.5252	1116.3056	1138.964	1153.5069	1169.7917	1186.8332	1191.3804	1208.7361	1221.0008	1248.5883	1267.1942	1307.508	1371.7394	1405.6019	1412.424	1479.9877	1486.5639	1491.8933	1492.0276	1504.3792	1521.3081	1554.7953	3022.5491	3031.6637	3048.8223	3053.6226	3054.7802	3062.3728	3076.3327	3090.7445	3110.9501	3119.0961	3121.535	3143.7037	3169.3698
CC1CC23CN(C2)C13C	C[C@H]1C[C@@]23CN(C2)[C@@]13C	
InChI=1S/C8H13N/c1-6-3-8-4-9(5-8)7(6,8)2/h6H,3-5H2,1-2H3	InChI=1S/C8H13N/c1-6-3-8-4-9(5-8)7(6,8)2/h6H,3-5H2,1-2H3/t6-,7-/m0/s1
