19
gdb 59572	3.65473	1.15924	0.97828	2.094	71.4	-0.2448	0.0748	0.3196	1237.4732	0.157644	-460.135483	-460.126706	-460.125762	-460.169204	33.07	
C	 0.1425211139	 1.3510615659	-0.3611816009	-0.414111
C	 0.0185277265	-0.1390731512	-0.0519685065	 0.10893
O	 0.6916518177	-0.4991321572	 1.1439888662	-0.42509
C	-1.4426794005	-0.581275272	 0.014975739	 0.206636
O	-2.123180581	-0.2212715059	-1.1816672535	-0.274612
C	-3.1154485283	-1.2020502172	-1.3813349948	 0.060656
C	-2.6493948799	-2.4869700291	-2.0287984793	-0.325019
C	-2.7303677592	-2.3609762778	-0.5230909563	 0.061032
O	-1.5356075586	-1.9925458575	 0.1239972856	-0.263089
H	 1.1975616047	 1.6356692322	-0.3841325851	 0.125512
H	-0.317107546	 1.5902739591	-1.3227515939	 0.141019
H	-0.3573567391	 1.9520362735	 0.4095530759	 0.105453
H	 0.4937606164	-0.7306763213	-0.8413912946	 0.100567
H	 0.3676121975	 0.0712634677	 1.8501555176	 0.278608
H	-1.9458193395	-0.110669799	 0.8832405313	 0.055488
H	-4.1231008008	-0.8205014553	-1.5020461366	 0.106121
H	-3.3964719927	-3.0995029072	-2.5238979778	 0.11582
H	-1.6611233277	-2.4900841002	-2.4735222317	 0.129706
H	-3.4178516333	-2.9509594375	 0.0727571952	 0.106373
70.0604	83.5089	176.917	223.5046	258.7846	302.1377	324.339	394.0866	430.7328	477.9531	506.0399	726.8922	738.8044	785.2303	804.6257	873.7082	920.8947	945.5108	998.5749	1008.8333	1014.3142	1064.0732	1067.8218	1072.9703	1099.734	1110.9012	1122.2692	1151.1068	1179.8588	1202.4553	1277.3729	1300.916	1320.7313	1360.8143	1370.8797	1399.1627	1414.2341	1428.9106	1457.3009	1491.0326	1497.0363	2903.6932	3026.8369	3067.6725	3104.6751	3131.4248	3137.6413	3166.1347	3175.6129	3232.3774	3796.6674
CC(O)C1OC2CC2O1	C[C@@H](O)[C@H]1O[C@H]2C[C@H]2O1	
InChI=1S/C6H10O3/c1-3(7)6-8-4-2-5(4)9-6/h3-7H,2H2,1H3	InChI=1S/C6H10O3/c1-3(7)6-8-4-2-5(4)9-6/h3-7H,2H2,1H3/t3-,4-,5+,6-/m1/s1
