21
gdb 99282	3.40694	0.76841	0.65514	1.6896	77.16	-0.2583	0.0162	0.2745	1764.2088	0.178562	-461.389953	-461.378765	-461.37782	-461.428507	38.012	
C	 1.1264762904	 1.1714540645	-0.2525437076	-0.238823
O	 1.1192322488	-0.1504932164	-0.807938864	-0.202284
C	-0.0952913514	-0.644328302	-1.074421816	 0.411351
O	-1.1312773376	-0.0614403557	-0.8698762071	-0.368974
C	-0.0587526701	-2.0543078881	-1.645807649	-0.184275
O	 1.2301014946	-2.4398215982	-2.0268857817	-0.24395
C	 1.3892106534	-3.8315057912	-2.2988883853	 0.163183
C	 0.7227062906	-4.2394497223	-3.6157812533	-0.395192
C	 2.8907100563	-4.0924429857	-2.3085546678	-0.389021
H	 0.6499572807	 1.8788205737	-0.9357728711	 0.141608
H	 0.5923829911	 1.1919342958	 0.7008121321	 0.140177
H	 2.176618428	 1.4250718607	-0.1091533163	 0.134489
H	-0.4675414853	-2.7197550824	-0.8653942719	 0.118424
H	-0.7785350626	-2.0676142916	-2.4769538994	 0.125605
H	 0.9284853044	-4.4031543606	-1.4744390789	 0.065372
H	 0.8884541049	-5.303563394	-3.8110581232	 0.117154
H	-0.3582373845	-4.0728102538	-3.596729414	 0.118336
H	 1.1450613008	-3.6653307426	-4.4468042172	 0.124843
H	 3.3370933329	-3.7837078903	-1.3600020602	 0.124205
H	 3.096373419	-5.1552713059	-2.4655818852	 0.112713
H	 3.3685336556	-3.524275074	-3.1128601228	 0.125057
16.8441	49.3103	86.8233	116.5249	128.6697	177.2649	211.4458	238.2415	263.3115	297.0646	347.4452	429.8174	444.5128	525.4463	617.8558	691.9085	840.4334	869.3963	927.0786	939.3252	952.4103	1034.3195	1052.6387	1131.7149	1161.4073	1168.7215	1178.6873	1202.0164	1210.4617	1255.9695	1307.1872	1357.0762	1369.6076	1397.0511	1411.7827	1418.6592	1472.2523	1480.0649	1481.4214	1484.4888	1492.3221	1496.2422	1498.16	1512.5455	1817.7689	2949.8612	2961.302	3016.4395	3037.7342	3044.3443	3052.4412	3109.3054	3111.8825	3118.4835	3125.8705	3126.8894	3161.2682
COC(=O)COC(C)C	COC(=O)COC(C)C	
InChI=1S/C6H12O3/c1-5(2)9-4-6(7)8-3/h5H,4H2,1-3H3	InChI=1S/C6H12O3/c1-5(2)9-4-6(7)8-3/h5H,4H2,1-3H3
