23
gdb 120955	4.23657	0.84078	0.81684	1.3303	85.47	-0.2612	0.0816	0.3429	1509.0425	0.208093	-388.277319	-388.268701	-388.267756	-388.310892	33.79	
O	 0.0025590987	 1.4305595459	-0.1009148816	-0.421252
C	 0.0431253713	 0.0131577776	-0.0150934292	-0.075552
C	-1.3916672782	-0.500183556	-0.0292480087	-0.202158
C	-1.4830164451	-2.0247829058	 0.0568960076	 0.043472
C	-1.0863700188	-2.6553803007	 1.4405168072	-0.227382
C	-2.3709970475	-3.455587956	 1.7341086011	-0.008247
C	-2.6811519325	-4.0910191369	 0.3473079178	-0.228157
C	-2.9136564758	-2.6050607864	-0.0531840692	-0.027094
C	-3.4806352334	-2.423206112	 1.3860050443	-0.222017
H	 0.9062372504	 1.7583878328	-0.0822809844	 0.283764
H	 0.5989741724	-0.4210886444	-0.8630104181	 0.081187
H	 0.5519370092	-0.313690532	 0.9061323907	 0.08631
H	-1.9335375468	-0.0292388157	 0.7993336772	 0.103716
H	-1.868327063	-0.1501332349	-0.9535465867	 0.099844
H	-0.8622181215	-2.4495421683	-0.7425575027	 0.061571
H	-0.2001183929	-3.2938035491	 1.3779359489	 0.090871
H	-0.8957162748	-1.8931617378	 2.203767302	 0.093735
H	-2.3960230341	-4.0391334546	 2.6553186362	 0.054668
H	-1.8828593962	-4.6424009765	-0.1602549909	 0.082686
H	-3.6030296466	-4.6775095762	 0.3488877687	 0.092758
H	-3.4879999351	-2.3291623961	-0.9390225815	 0.054387
H	-4.4859939866	-2.838260712	 1.4894650256	 0.093451
H	-3.4370012329	-1.4343742448	 1.8510199555	 0.089439
85.8762	101.2191	125.7736	223.4287	267.5959	325.1964	342.3722	422.337	517.5356	533.8358	645.551	789.6815	831.2086	833.3908	844.9535	858.2623	868.217	932.3138	947.8233	972.4536	990.675	1011.346	1031.7761	1052.815	1062.8975	1076.7333	1082.9678	1099.8534	1126.0865	1153.7823	1188.7863	1218.1287	1231.7674	1242.9257	1244.4319	1251.7383	1278.1245	1293.1475	1310.4245	1316.8096	1322.5438	1353.505	1394.8668	1462.0488	1486.7755	1490.639	1497.299	1525.83	1527.7564	2957.651	2984.7025	3012.1237	3029.5662	3040.8797	3044.6391	3056.9369	3073.6109	3085.5275	3100.2568	3104.3401	3109.8441	3116.4322	3830.2828
OCCC1CC2CC1C2	OCC[C@H]1C[C@@H]2C[C@H]1C2	
InChI=1S/C8H14O/c9-2-1-7-3-6-4-8(7)5-6/h6-9H,1-5H2	InChI=1S/C8H14O/c9-2-1-7-3-6-4-8(7)5-6/h6-9H,1-5H2/t6-,7-,8+/m0/s1
