17
gdb 52750	2.39211	0.82601	0.63241	2.9212	84.31	-0.2467	-0.0277	0.219	1728.397	0.131028	-384.635375	-384.624593	-384.623649	-384.674061	35.998	
C	-0.0520794195	 1.5075014315	-0.0023384084	-0.499753
C	 0.0125538052	 0.0535360097	-0.0239490423	 0.117287
C	 0.0766310496	-1.1475644247	-0.0469558945	 0.060109
C	 0.1232953025	-2.612417652	-0.0590301468	-0.370778
C	-1.2956205042	-3.2050812824	 0.2029761263	-0.272912
C	-1.2960770248	-4.7131169776	 0.3470873367	 0.147202
O	-1.898076791	-5.30469758	 1.2061850687	-0.240075
C	 0.6961046917	-3.1219831736	-1.3114982599	 0.34222
C	 1.1508415992	-3.5514016268	-2.3370382088	-0.462266
H	 0.5861551943	 1.9215053768	 0.7857073944	 0.152264
H	 0.2797628121	 1.930956722	-0.9564535275	 0.154111
H	-1.0742250702	 1.8569079261	 0.179217482	 0.151751
H	 0.7735686388	-2.940594719	 0.7656762687	 0.143628
H	-1.7249154452	-2.7626030737	 1.1042651451	 0.135284
H	-1.9362124038	-2.9417813728	-0.6480838727	 0.142114
H	-0.6980386647	-5.255852546	-0.4169246766	 0.094862
H	 1.56261691	-3.9222784775	-3.2431589743	 0.204953
15.0179	52.6397	66.5861	87.8734	112.1926	171.5989	255.6629	260.0043	307.0472	376.3334	437.9923	476.4663	534.2607	569.0375	638.8342	650.7106	787.8405	803.1739	870.2056	1014.3563	1052.2203	1052.841	1071.8821	1078.5848	1173.7112	1204.4888	1266.1085	1315.479	1338.0648	1414.4182	1426.5252	1454.8669	1477.2036	1477.5188	1830.9797	2239.1521	2377.8846	2902.6242	2991.8685	3029.7566	3041.9235	3091.8994	3092.6802	3121.5692	3502.5125
CC#CC(CC=O)C#C	CC#C[C@@H](CC=O)C#C	
InChI=1S/C8H8O/c1-3-5-8(4-2)6-7-9/h2,7-8H,6H2,1H3	InChI=1S/C8H8O/c1-3-5-8(4-2)6-7-9/h2,7-8H,6H2,1H3/t8-/m0/s1
