23
gdb 94847	3.56326	1.13928	1.05838	1.2715	85.55	-0.2342	0.0778	0.312	1277.0162	0.206818	-388.30259	-388.293859	-388.292914	-388.336144	34.43	
C	 0.3776430745	 1.5430627933	-0.2173045642	-0.387494
C	 0.0384956686	 0.0828459351	 0.0673889621	 0.138996
C	 0.3185724669	-0.8741787683	-1.1130250976	-0.253522
C	 1.6860660208	-1.4665478548	-0.7467405434	-0.275804
C	 1.5981938295	-1.5350189094	 0.7803300244	 0.464365
C	 1.1123986227	-2.9041573422	 1.3543506612	-0.279266
C	 2.5919168948	-3.2382924647	 1.6856499051	-0.214266
C	 2.9234873477	-1.7264334783	 1.5523483824	-0.285535
O	 0.8565970723	-0.3854793501	 1.1518594837	-0.323246
H	 1.3970524606	 1.6393164918	-0.6057106417	 0.113164
H	-0.3154141081	 1.9654174573	-0.9528544197	 0.107852
H	 0.3075482421	 2.1329375131	 0.7009149872	 0.123816
H	-1.0119304106	 0.0150536567	 0.3804710181	 0.07082
H	-0.439358199	-1.6630275431	-1.1539576472	 0.103576
H	 0.3129420645	-0.3585680318	-2.0765968804	 0.100432
H	 1.8791602358	-2.4362864472	-1.2120907158	 0.100466
H	 2.4947980328	-0.7863644689	-1.0377319523	 0.101355
H	 0.521713095	-2.7377117585	 2.2589209286	 0.106155
H	 0.5649911885	-3.5766868192	 0.6873108514	 0.086966
H	 2.7933639539	-3.710001197	 2.6491529176	 0.099498
H	 3.0668250741	-3.835462417	 0.9025303766	 0.10053
H	 3.8480670922	-1.4370972319	 1.044941231	 0.090176
H	 2.8700897104	-1.213031195	 2.5158744629	 0.110966
48.8025	129.5599	158.4596	244.2247	273.1931	310.9539	378.5594	393.3867	438.9805	491.9688	655.8995	695.3788	739.6745	791.7653	797.6222	861.3733	901.9969	909.029	918.1135	929.551	942.2339	981.2368	988.5748	1023.505	1034.8987	1066.3265	1118.6123	1140.167	1162.2307	1192.2415	1199.8436	1216.4371	1228.0197	1246.8509	1268.8688	1275.1997	1301.0548	1328.0615	1340.1372	1356.0944	1387.785	1407.6947	1468.5045	1483.3102	1485.5288	1491.5949	1496.6139	1504.9927	1507.3699	3005.5718	3033.054	3041.1287	3050.2084	3054.2139	3055.5748	3066.5432	3097.7041	3102.5619	3104.4633	3106.1491	3111.2778	3116.1262	3125.5877
CC1CCC2(CCC2)O1	C[C@H]1CCC2(CCC2)O1	
InChI=1S/C8H14O/c1-7-3-6-8(9-7)4-2-5-8/h7H,2-6H2,1H3	InChI=1S/C8H14O/c1-7-3-6-8(9-7)4-2-5-8/h7H,2-6H2,1H3/t7-/m0/s1
