18
gdb 17554	3.266	2.09384	1.64592	2.3153	71.76	-0.2214	0.0691	0.2905	854.614	0.154285	-343.911827	-343.904411	-343.903467	-343.943069	28.974	
C	 0.039685068	 1.5363546883	 0.0539529186	-0.505967
C	-0.0372037936	 0.0422712384	-0.0453693881	 0.26913
C	-0.9051263842	-0.8145246235	 0.7941760238	-0.282943
N	 0.5561400845	-0.9002180515	 0.9947162997	-0.166216
C	 1.0607597112	-1.7754592216	-0.1277699351	-0.235125
C	 0.5247819723	-0.7995073529	-1.1768885201	 0.303092
C	 0.0292327846	-0.9608195435	-2.5604092741	-0.315845
N	 1.3369536004	-0.3217762554	-2.2870644973	-0.367657
H	 1.0341787952	 1.9042465738	-0.221714595	 0.126921
H	-0.6968272027	 2.0157875326	-0.602244054	 0.121364
H	-0.1641136858	 1.8602061012	 1.0783102655	 0.136878
H	-1.4215932283	-0.3475446495	 1.6281548373	 0.117148
H	-1.4286586015	-1.6610082086	 0.3532283265	 0.109011
H	 2.1517667197	-1.8178071517	-0.1159728459	 0.124476
H	 0.6499358242	-2.7906897175	-0.1122831406	 0.10374
H	 0.0910597524	-1.9255032592	-3.0571523268	 0.120225
H	-0.8023343265	-0.3378473022	-2.8823452453	 0.110361
H	 1.2582987402	 0.688982483	-2.3795407791	 0.231406
138.9482	165.1655	224.2382	238.3294	336.5146	397.9494	461.4863	489.8766	563.5549	640.929	741.8166	814.9745	846.2824	867.1361	906.0117	933.8981	959.1838	988.2152	1018.1048	1045.8963	1077.6334	1096.9129	1110.4008	1125.3503	1131.1927	1194.7256	1210.2769	1258.5799	1280.7075	1316.1654	1366.1487	1416.3807	1427.6083	1482.3989	1489.6728	1493.0558	1508.1987	1517.8152	3025.4708	3044.9881	3085.7007	3095.7989	3100.2686	3113.6485	3116.6322	3185.1721	3187.4273	3486.3702
CC12CN1CC21CN1	C[C@]12CN1C[C@]12CN1	
InChI=1S/C6H10N2/c1-5-3-8(5)4-6(5)2-7-6/h7H,2-4H2,1H3	InChI=1S/C6H10N2/c1-5-3-8(5)4-6(5)2-7-6/h7H,2-4H2,1H3/t5-,6+,8?/m1/s1
