13
gdb 128941	7.641	0.7825	0.7192	3.9407	65.13	-0.2495	-0.0355	0.214	1428.0265	0.09151	-445.092252	-445.084481	-445.083537	-445.126078	26.761	
N	-0.0672949743	-1.0638388132	 0.2971007072	-0.289278
C	-0.0064772301	 0.0678891541	 0.0769420407	 0.25832
C	 0.0712198977	 1.4969503419	-0.2345681517	-0.271602
N	 1.4199623996	 1.9945472717	-0.0130796133	-0.392962
C	 1.6163363241	 3.3508054309	 0.0094208983	 0.52076
N	 2.8101117275	 3.9294684656	-0.1069761205	-0.316472
N	 2.4628949625	 5.2110049229	 0.0346285026	-0.062052
N	 1.1798263175	 5.4288442459	 0.2160117397	-0.097296
N	 0.6100969957	 4.2463529528	 0.2000794325	-0.279893
H	-0.286422447	 1.6504505479	-1.2644615082	 0.157354
H	-0.6118709948	 2.047621659	 0.4185989304	 0.197149
H	 2.1657517472	 1.4663666502	-0.4409103	 0.270108
H	 3.1367239546	 5.9611265504	 0.0022153122	 0.305863
31.8644	90.0854	127.1257	225.3544	334.3492	379.3434	435.1537	483.2695	553.0094	590.6604	719.686	779.5948	806.3326	954.3449	996.1458	1025.6487	1068.2558	1132.8913	1167.9615	1187.7558	1236.9545	1271.5527	1345.154	1389.21	1463.6009	1490.0653	1515.6202	1630.1617	2373.5344	2992.8051	3095.6426	3621.3711	3653.7057
N#CCNC1=NNN=N1	N#CCNc1n[nH]nn1	
InChI=1S/C3H4N6/c4-1-2-5-3-6-8-9-7-3/h2H2,(H2,5,6,7,8,9)	InChI=1S/C3H4N6/c4-1-2-5-3-6-8-9-7-3/h2H2,(H2,5,6,7,8,9)
