18
gdb 11412	3.48988	1.55988	1.21798	4.2683	67.64	-0.2623	0.0168	0.2791	1030.014	0.154489	-385.002006	-384.994092	-384.993148	-385.034676	29.062	
C	-0.3034556568	 1.4108676222	-0.0873443852	-0.385205
C	-0.0461888652	-0.0969728163	-0.1401177774	-0.182761
C	 0.9660060106	-0.5002004569	-1.2120433078	 0.122744
C	 1.1634007307	-2.0258739684	-1.3582371247	-0.249964
C	 0.2042800479	-2.3891118673	-2.4946956817	-0.356836
C	 0.0414618957	-1.0839160394	-3.2673224824	 0.428557
O	-0.4207514031	-0.9175516057	-4.357980088	-0.335858
O	 0.5124878895	-0.0547725227	-2.5112497615	-0.224514
H	 0.6175951003	 1.9594859345	 0.1389375635	 0.116141
H	-0.680694032	 1.7733368874	-1.04683051	 0.143061
H	-1.0372400799	 1.6566041901	 0.6855744678	 0.115329
H	 0.3361471066	-0.4501936588	 0.8260380175	 0.102007
H	-0.9873186941	-0.633871431	-0.318046806	 0.101094
H	 1.9140920305	 0.0165898627	-1.0320661385	 0.093151
H	 2.1954956023	-2.2458498188	-1.6448257506	 0.117727
H	 0.9567511286	-2.5528334054	-0.4243540596	 0.113642
H	 0.5584280709	-3.176384353	-3.1612679191	 0.140598
H	-0.7842862725	-2.6909293732	-2.1320277065	 0.141086
85.7142	117.4842	126.6954	222.58	238.4481	381.0724	442.233	500.2529	547.0353	659.3099	707.1158	782.3347	799.1427	845.0888	895.4304	964.7697	987.4182	1007.2965	1041.1692	1064.2915	1108.22	1127.9904	1171.028	1200.931	1231.3259	1285.7124	1302.6757	1319.2684	1338.0979	1383.4745	1404.2079	1414.4055	1466.6027	1478.0299	1497.3103	1500.054	1508.3716	1882.324	3019.6171	3039.2483	3047.9314	3060.9876	3061.9309	3072.0615	3105.5006	3112.7989	3127.0211	3130.7549
CCC1CCC(=O)O1	CC[C@H]1CCC(=O)O1	
InChI=1S/C6H10O2/c1-2-5-3-4-6(7)8-5/h5H,2-4H2,1H3	InChI=1S/C6H10O2/c1-2-5-3-4-6(7)8-5/h5H,2-4H2,1H3/t5-/m0/s1
