19
gdb 86329	2.03821	1.70492	1.01556	5.9706	72.61	-0.2253	0.0214	0.2467	1178.9297	0.159947	-456.34851	-456.339602	-456.338657	-456.382345	33.128	
C	 0.0368816596	 1.4093785304	-0.1821890298	-0.332353
N	-0.0607017789	-0.01128128	 0.0769692596	-0.074758
C	-1.3214457965	-0.5825327595	 0.583489023	-0.18533
C	-0.482162873	-1.5981041301	 1.4042989281	-0.029812
N	-0.2018497715	-2.8927470134	 0.7753612012	-0.534086
H	-0.2285278522	-2.8042100358	-0.2371836524	 0.257319
H	 1.5681323503	-2.7830200963	 1.006113163	 0.316337
H	-0.8923844555	-3.5862376394	 1.0401439652	 0.248297
C	 0.6760546496	-0.5737692238	 1.2287659748	-0.095202
C	 2.1233263546	-0.9647468438	 0.9200260397	 0.413372
O	 2.9483466475	-0.119834466	 0.6837139129	-0.343412
O	 2.4122455481	-2.2694463538	 0.9308770785	-0.379243
H	 1.0799910254	 1.660243406	-0.3884590684	 0.156557
H	-0.5668666685	 1.6704977613	-1.0575046589	 0.118267
H	-0.3068711873	 2.0218209641	 0.6727683751	 0.09088
H	-1.8838421362	 0.105953049	 1.2372899417	 0.091233
H	-1.9981198657	-0.9798467771	-0.182624899	 0.097679
H	-0.7968361997	-1.7760559866	 2.4327214618	 0.09447
H	 0.7086458801	 0.1193587446	 2.0868370339	 0.089785
63.5725	108.9851	165.25	227.7435	260.8795	310.4541	312.6389	357.9359	384.9446	414.7004	488.137	629.5816	733.2399	745.3758	841.8332	844.0994	903.9981	930.2044	976.9157	988.4196	998.5655	1032.3023	1114.0687	1134.5588	1177.5247	1185.233	1213.1479	1238.5081	1258.8895	1284.1429	1289.0647	1324.5947	1355.1872	1427.2612	1446.9334	1482.5575	1489.4778	1499.2726	1512.3651	1644.796	1848.7031	2931.7943	2953.0115	2962.0199	3045.4262	3068.8339	3113.9468	3128.0465	3277.0563	3497.2031	3585.0421
CN1CC([NH3+])C1C([O-])=O	CN1C[C@@H](N)[C@H]1C(=O)O	
InChI=1S/C5H10N2O2/c1-7-2-3(6)4(7)5(8)9/h3-4H,2,6H2,1H3,(H,8,9)	InChI=1S/C5H10N2O2/c1-7-2-3(6)4(7)5(8)9/h3-4H,2,6H2,1H3,(H,8,9)/t3-,4+/m1/s1
