18
gdb 7503	3.84728	1.18814	1.0866	1.94	63.79	-0.2528	0.0584	0.3112	1130.3011	0.152082	-422.04162	-422.032775	-422.031831	-422.075428	31.707	
O	-0.1650404827	 1.445842077	 0.0987169461	-0.421915
C	 0.0067751485	 0.0372050346	 0.0341145737	-0.084232
C	-1.3805397901	-0.5819842456	-0.0944490069	-0.198658
C	-1.3710151382	-2.1039203677	-0.0822484332	 0.326677
O	-0.5443407923	-2.5316871977	-1.139268754	-0.474319
C	-1.1521466613	-2.7531412817	 1.3141536681	-0.12732
O	-2.5501159057	-3.0823912063	 1.4149275304	-0.269135
C	-2.7793785904	-2.7442349451	 0.0335429932	-0.129645
H	 0.7055490785	 1.8537226573	 0.0960831442	 0.285768
H	 0.6218497739	-0.2579461146	-0.8260204224	 0.108366
H	 0.5065363457	-0.3424281853	 0.9411287216	 0.08125
H	-2.0092364329	-0.2238970844	 0.7279481002	 0.117563
H	-1.8378609711	-0.2354994621	-1.0281713839	 0.112957
H	-0.5287670797	-3.494674024	-1.1467089532	 0.280915
H	-0.5142545755	-3.6497827755	 1.2794304673	 0.086596
H	-0.8178588636	-2.1080046948	 2.1341967919	 0.109114
H	-3.6476517628	-2.0887485238	-0.09758898	 0.109647
H	-2.9018266302	-3.6363266203	-0.5997459033	 0.086371
73.1107	93.2406	122.4765	171.3274	261.2075	308.0551	330.4884	350.8174	373.2738	449.4245	485.0439	704.468	808.9801	844.1618	918.2726	945.3262	991.3543	1008.8991	1025.2773	1032.3313	1065.2042	1117.8672	1140.5863	1148.0755	1162.9366	1194.5526	1256.4257	1265.9016	1296.0396	1322.6019	1332.6691	1373.661	1417.2822	1461.98	1482.0121	1503.7373	1527.2482	1530.501	2961.5596	2978.4769	2990.4353	3030.4897	3043.6119	3061.8086	3063.8184	3091.4729	3806.2502	3831.6358
OCCC1(O)COC1	OCCC1(O)COC1	
InChI=1S/C5H10O3/c6-2-1-5(7)3-8-4-5/h6-7H,1-4H2	InChI=1S/C5H10O3/c6-2-1-5(7)3-8-4-5/h6-7H,1-4H2
