16
gdb 66298	2.54127	1.52394	1.25375	3.654	66.35	-0.2626	-0.0403	0.2223	1035.229	0.122556	-475.04183	-475.033115	-475.032171	-475.075714	30.86	
C	 0.0173337431	 1.6009312995	-0.019675829	-0.424959
C	 0.006688681	 0.0762898724	-0.004940963	 0.165233
O	 0.7486227891	-0.5094789045	-1.08001281	-0.287538
C	 2.0054320826	-0.8792800079	-0.5763676272	 0.009025
O	 1.8384004802	-1.1228647491	 0.8178074996	-0.237193
C	 0.6968964189	-0.5027648712	 1.2287514541	 0.355873
N	 0.2631885467	-0.4229528567	 2.4071656284	-0.513852
C	-1.4137481624	-0.4976549884	-0.1100497147	 0.163171
O	-2.413177482	 0.152001186	 0.0103237928	-0.233095
H	 1.0394299425	 1.9832058486	 0.0479097196	 0.119678
H	-0.4423208668	 1.9679892791	-0.9397189066	 0.139305
H	-0.5553482461	 1.9713584437	 0.8324193845	 0.164116
H	 2.3374396685	-1.7995925426	-1.0640924163	 0.136818
H	 2.751244579	-0.0814315746	-0.7104479115	 0.114335
H	 0.8982159193	-0.8667188159	 3.0716328939	 0.234767
H	-1.4229236038	-1.5864066286	-0.3293247147	 0.094316
75.382	78.6072	170.8997	185.1146	210.9026	253.8503	284.3442	390.6461	450.8063	496.3217	677.4934	684.1832	743.3317	755.368	877.0164	891.164	947.2646	993.1658	1004.7128	1030.6092	1122.4338	1148.0691	1177.724	1181.0642	1212.9682	1224.968	1301.8314	1394.0219	1409.3485	1440.9738	1479.4141	1483.4419	1548.5744	1783.5278	1852.3397	2914.647	2993.418	3056.5247	3096.8335	3133.3882	3151.7156	3487.6605
CC1(OCOC1=N)C=O	C[C@]1(OCO[C]1[NH])C=O	
InChI=1S/C5H7NO3/c1-5(2-7)4(6)8-3-9-5/h2,6H,3H2,1H3	InChI=1S/C5H7NO3/c1-5(2-7)4(6)8-3-9-5/h2,6H,3H2,1H3/t5-/m0/s1
