21
gdb 86214	2.41081	1.43903	1.09648	1.8398	80.81	-0.2414	0.0086	0.25	1204.194	0.181998	-424.240727	-424.231497	-424.230553	-424.274263	35.558	
C	 0.0942532258	 1.5205444109	-0.0433495784	-0.399426
C	 0.0709336874	-0.0055962134	-0.0045768478	 0.087286
O	 0.7401862643	-0.4652690144	-1.1713108862	-0.28765
C	 0.968930039	-1.8760082583	-1.1627051498	 0.095484
C	 1.3972721958	-2.2841549738	-2.562239949	-0.400521
C	 2.0126730563	-2.1881794446	-0.0777713679	 0.091615
O	 3.3203444281	-1.755183264	-0.4518208827	-0.433957
C	 1.587844352	-1.5490679931	 1.2231430086	-0.121885
C	 0.6980780406	-0.5588867252	 1.2500986699	-0.053149
H	 1.123161807	 1.8876067262	 0.0145336935	 0.122297
H	-0.3505398329	 1.8770628434	-0.9759286275	 0.12762
H	-0.4719203821	 1.9353097568	 0.795860333	 0.115967
H	-0.9844085071	-0.339519007	-0.0453516056	 0.076061
H	 0.0315127249	-2.3932792211	-0.8954528631	 0.064532
H	 2.3419320342	-1.8046598545	-2.8265567073	 0.129877
H	 1.5391036623	-3.3679508235	-2.6149573929	 0.114222
H	 0.6337304965	-1.9944394952	-3.2885603587	 0.117333
H	 2.0960689052	-3.2747807002	 0.0419693745	 0.084746
H	 3.2540470128	-0.7996998042	-0.5710917944	 0.278518
H	 2.0628202044	-1.9032325821	 2.1335752208	 0.096741
H	 0.3894200555	-0.1030712529	 2.1880947211	 0.09429
81.2451	157.6564	198.4401	217.8533	237.0992	252.8553	287.8839	352.4178	403.3935	427.4728	479.6839	516.7741	588.1628	650.7134	753.5519	780.3398	833.1514	860.9069	899.2572	970.3821	996.2341	1004.565	1017.7392	1065.4513	1081.8717	1111.9786	1129.7479	1147.3252	1199.9621	1211.3629	1262.3966	1318.1653	1337.6186	1340.1696	1373.8877	1387.4512	1401.0283	1407.3741	1419.4166	1428.0692	1483.5396	1484.5421	1493.6552	1498.4966	1714.2713	2908.956	2957.5126	3043.5685	3045.6708	3051.0108	3118.5437	3120.585	3125.7201	3138.6169	3149.6634	3175.7335	3786.6906
CC1OC(C)C(O)C=C1	C[C@H]1O[C@@H](C)[C@@H](O)C=C1	
InChI=1S/C7H12O2/c1-5-3-4-7(8)6(2)9-5/h3-8H,1-2H3	InChI=1S/C7H12O2/c1-5-3-4-7(8)6(2)9-5/h3-8H,1-2H3/t5-,6+,7+/m1/s1
