18
gdb 95740	2.8916	1.17903	0.87892	4.2582	81.67	-0.2673	-0.0437	0.2236	1301.2116	0.148644	-401.976169	-401.967726	-401.966781	-402.009325	31.504	
C	-0.073090671	 1.5574148966	-0.0258928573	-0.406258
C	 0.0103255483	 0.0239895528	-0.0087539186	-0.041678
C	 0.7438732695	-0.5180630354	-1.2424673205	-0.094839
O	 0.9919245763	-1.9081541097	-1.1230850883	-0.243159
C	 1.9041277309	-2.2127220979	-0.0959530418	-0.163181
C	 1.5814084461	-1.4855644721	 1.1985678382	 0.114004
C	 0.6950049326	-0.4814016477	 1.2320699402	-0.120353
C	 2.2721482503	-1.9202076477	 2.3682818831	 0.216986
N	 2.8569191227	-2.3028202122	 3.2924734691	-0.330406
H	 0.925154966	 2.007418965	-0.0081716378	 0.127511
H	-0.5877880415	 1.9086348465	-0.9257981634	 0.124654
H	-0.6247880263	 1.9299685988	 0.842543022	 0.126157
H	-1.0146540993	-0.3754844898	-0.0175077244	 0.107579
H	 0.1421371179	-0.3895838039	-2.1460303976	 0.116547
H	 1.6895450126	 0.0325234691	-1.3811721942	 0.094599
H	 1.8519322137	-3.2949039466	 0.0604399631	 0.1397
H	 2.9393093558	-1.9759676637	-0.3984089614	 0.117121
H	 0.4656200053	 0.005811908	 2.1759830195	 0.115015
107.9864	119.3703	152.14	231.8888	287.6126	302.1149	337.4759	425.4386	459.1098	531.5901	550.432	567.446	594.6793	858.7209	879.3431	909.4568	952.8623	969.1026	984.8773	1036.5256	1058.5744	1118.3482	1144.5174	1168.956	1190.7249	1251.0301	1303.5359	1312.897	1338.5757	1354.3276	1387.7125	1408.3578	1422.6037	1486.8191	1495.8362	1499.8472	1502.0232	1695.5107	2334.5774	2956.0676	2968.6681	2999.6572	3035.0993	3076.5765	3093.6463	3106.8719	3109.2032	3168.6516
CC1COCC(=C1)C#N	C[C@H]1COCC(=C1)C#N	
InChI=1S/C7H9NO/c1-6-2-7(3-8)5-9-4-6/h2,6H,4-5H2,1H3	InChI=1S/C7H9NO/c1-6-2-7(3-8)5-9-4-6/h2,6H,4-5H2,1H3/t6-/m1/s1
