17
gdb 31159	2.01726	1.80271	1.00943	1.9093	71.94	-0.1732	0.0526	0.2257	1153.2366	0.135548	-455.148104	-455.138449	-455.137505	-455.182529	34.755	
C	-0.0694035563	 1.4474590823	-0.1083249126	-0.255001
O	-0.0105518037	 0.0295610679	 0.0492448266	-0.296501
C	-1.2446408303	-0.5773040259	 0.0627648648	 0.112287
C	-1.9322640524	-1.0293931385	 1.1694072614	 0.222049
N	-1.6623111528	-0.9195237592	 2.5460183452	-0.611156
N	-3.0725684227	-1.6344956283	 0.7163966767	-0.295159
C	-3.1391185157	-1.5719857812	-0.6719397375	-0.194202
C	-2.008625424	-0.9229272552	-1.0937218508	 0.250342
O	-1.6487803091	-0.6606996767	-2.385031138	-0.461088
H	 0.962367311	 1.8077780708	-0.1237013594	 0.123653
H	-0.5673185996	 1.7259280608	-1.0455800394	 0.122011
H	-0.6091414985	 1.9176178408	 0.7237284261	 0.114727
H	-0.8545142634	-0.3216931055	 2.6809548573	 0.249905
H	-1.4374999871	-1.8209082915	 2.9601712704	 0.244163
H	-3.8301981155	-1.9036381833	 1.3181450355	 0.258791
H	-3.9533116898	-2.0091129069	-1.2225011746	 0.117859
H	-0.6987412502	-0.4970379905	-2.3821924916	 0.29732
66.6821	140.5287	150.2135	162.0817	196.0471	236.8389	279.0253	285.8965	360.9278	400.133	459.7551	562.9602	571.3073	610.0472	651.4107	708.4405	747.712	776.1072	859.855	1026.6153	1046.5368	1093.0663	1166.0494	1178.9171	1188.6489	1211.0914	1257.1885	1325.6927	1359.4232	1450.1965	1471.7384	1484.681	1508.414	1533.12	1611.1686	1648.9935	1684.3478	3004.4346	3065.9662	3117.9126	3286.1098	3477.8548	3581.9757	3690.7637	3802.0245
COC1=C(N)NC=C1O	COc1c(N)[nH]cc1O	
InChI=1S/C5H8N2O2/c1-9-4-3(8)2-7-5(4)6/h2,7-8H,6H2,1H3	InChI=1S/C5H8N2O2/c1-9-4-3(8)2-7-5(4)6/h2,7-8H,6H2,1H3
