14
gdb 27081	3.38905	1.13381	0.88628	3.2631	66.15	-0.2024	-0.0025	0.1999	1223.1768	0.100406	-473.857668	-473.849405	-473.848461	-473.891583	29.383	
N	-0.2313968399	 1.2558193602	 0.3517588483	-0.600206
C	-0.1505612779	-0.0988196329	 0.0885384863	 0.31487
C	-1.0784819997	-1.0321690632	-0.274174783	 0.18843
O	-2.3913567037	-0.7486089514	-0.6093539705	-0.22952
C	-3.3384176235	-1.013353973	 0.3352941669	 0.150706
O	-4.4967315218	-0.8182792087	 0.1411533404	-0.258916
C	-0.4038781455	-2.2969881368	-0.328140257	-0.264757
C	 0.8818871466	-2.0394435331	 0.0077189467	-0.023871
O	 1.046076035	-0.6964856109	 0.267476852	-0.170112
H	 0.6087509913	 1.7600703392	 0.0970130319	 0.262985
H	-1.0486799505	 1.6762022352	-0.0715145904	 0.268246
H	-2.8938894402	-1.4145259062	 1.2641292115	 0.094327
H	-0.8315815463	-3.2503540976	-0.5945501487	 0.125853
H	 1.767772866	-2.6405273607	 0.1116470956	 0.141965
36.2931	132.0562	145.5433	200.4216	267.6879	270.2722	411.1982	456.9486	510.4507	616.4925	660.6098	682.0548	703.1387	764.4119	820.4809	847.1514	906.9284	1027.2042	1048.8721	1060.149	1129.5455	1169.6124	1205.7223	1288.9137	1339.8539	1404.3662	1475.1607	1563.5288	1628.4375	1699.1544	1875.5793	2980.8891	3262.4629	3302.876	3539.8114	3638.7707
NC1=C(OC=O)C=CO1	Nc1c(OC=O)cco1	
InChI=1S/C5H5NO3/c6-5-4(9-3-7)1-2-8-5/h1-3H,6H2	InChI=1S/C5H5NO3/c6-5-4(9-3-7)1-2-8-5/h1-3H,6H2
