20
gdb 79091	2.8625	1.65927	1.38758	1.8364	82.96	-0.2103	-0.0033	0.207	1028.1885	0.171254	-365.941264	-365.933342	-365.932398	-365.973059	32.027	
C	-0.143254725	 1.5579638194	-0.041793761	-0.436124
C	 0.0360303909	 0.0532597491	 0.0471624356	 0.033784
N	 1.2449404071	-0.561788978	-0.6741582799	-0.163489
C	 2.1145833042	-0.1728089327	 0.5629337578	-0.08495
C	 3.1281189028	-1.2871553454	 0.7010479358	-0.093786
C	 2.4011575696	-2.3818936096	 0.4691403273	-0.100797
C	 1.0212085698	-1.8189342012	 0.2171624638	-0.065408
C	 0.7629123327	-0.6376651416	 1.2191543355	 0.302011
C	 0.403248638	-0.7071913849	 2.6808121348	-0.529886
H	 0.725014418	 2.1190843119	 0.3131238641	 0.116172
H	-0.3303268418	 1.8521404787	-1.079817243	 0.129411
H	-1.0078116652	 1.8712927717	 0.5536262914	 0.116423
H	-0.890686933	-0.4442888635	-0.267428727	 0.061453
H	 2.4488635182	 0.8624278954	 0.6082398508	 0.067778
H	 4.1825125462	-1.1781228588	 0.9106806652	 0.10786
H	 2.6904632241	-3.4223530618	 0.436188613	 0.109026
H	 0.2035096067	-2.470848685	-0.0958875684	 0.06522
H	 1.1460066519	-1.2948759828	 3.2315586813	 0.124807
H	 0.362897225	 0.2927297554	 3.1266615488	 0.120828
H	-0.5762937201	-1.1768768163	 2.8234616941	 0.119668
170.3267	191.984	209.868	229.7189	254.0909	290.7751	474.341	519.5286	530.1637	598.2614	683.7485	735.4987	765.6298	773.407	794.5971	821.1532	897.5149	916.228	918.232	939.2859	954.2443	1007.3297	1033.373	1072.463	1097.42	1122.5296	1133.4204	1155.2753	1166.1027	1213.5905	1239.2734	1266.1704	1292.2749	1331.7566	1336.1246	1400.0842	1407.917	1431.9791	1486.5053	1487.2796	1494.759	1497.2215	1633.7548	3015.6619	3025.434	3037.5175	3093.9281	3096.4895	3098.3477	3103.1854	3114.5533	3133.7549	3225.4111	3252.3373
CC1N2C3C=CC2C13C	C[C@H]1N2[C@@H]3C=C[C@H]2[C@]13C	
InChI=1S/C8H11N/c1-5-8(2)6-3-4-7(8)9(5)6/h3-7H,1-2H3	InChI=1S/C8H11N/c1-5-8(2)6-3-4-7(8)9(5)6/h3-7H,1-2H3/t5-,6-,7+,8-/m1/s1
