21
gdb 68324	2.89588	1.16783	0.99464	2.4475	83.89	-0.2477	-0.0205	0.2272	1269.0461	0.181563	-387.055442	-387.046505	-387.045561	-387.089905	33.668	
C	 0.003972777	 1.3458322503	 0.2761707495	-0.520072
C	 0.0460453023	-0.1512237457	 0.1154175614	 0.336269
C	 0.7366622768	-0.9703445331	-1.0213120771	-0.255525
C	 0.0953637572	-2.0319461876	-0.0844542053	-0.069577
C	 0.6573704404	-1.1998400891	 1.1022487518	-0.263065
C	-1.1737424997	-1.126562507	-0.0719621947	 0.008682
C	-2.255940346	-1.2721201772	 1.0025969336	-0.335773
C	-3.2510516515	-0.1362386066	 0.9148662353	 0.168069
O	-3.459849984	 0.6687718018	 1.7862293741	-0.241876
H	 1.012361188	 1.7549016269	 0.4023591794	 0.118332
H	-0.4432077684	 1.8239805529	-0.6026007056	 0.117383
H	-0.5890008732	 1.6328474846	 1.1508987063	 0.13757
H	 0.312067513	-0.8737969486	-2.0253027964	 0.08612
H	 1.8294166655	-0.9402394577	-1.0434807506	 0.089196
H	 0.1219813302	-3.1160139461	-0.2030292487	 0.069668
H	 1.7464647774	-1.1795192486	 1.2010798001	 0.089795
H	 0.1875008332	-1.3165791823	 2.0801461112	 0.094502
H	-1.6510318859	-1.0363504001	-1.0567523896	 0.061838
H	-2.8034827084	-2.2085356456	 0.8204017826	 0.115733
H	-1.8578555337	-1.2999545225	 2.0183032412	 0.121824
H	-3.7944891503	-0.0756116188	-0.0581493584	 0.070907
48.8098	58.0104	149.8552	201.133	251.3596	299.6889	337.7253	374.9543	468.2535	562.1585	590.8445	628.941	742.1552	774.4583	807.3223	884.7283	902.5443	905.7144	954.1783	996.7391	1010.1073	1022.241	1027.9727	1052.3092	1100.0788	1111.7993	1134.9918	1144.7652	1176.6962	1201.1753	1208.1679	1224.8208	1230.2959	1257.1726	1285.3338	1326.1329	1411.6813	1423.6334	1430.9103	1461.31	1489.2095	1491.5203	1503.4701	1547.1874	1831.7377	2848.3592	3009.7077	3015.0809	3027.2165	3043.5172	3059.7465	3092.5099	3101.2434	3103.1461	3108.8764	3115.3349	3127.7029
CC12CC(C1)C2CC=O	C[C@@]12C[C@@H](C1)[C@H]2CC=O	
InChI=1S/C8H12O/c1-8-4-6(5-8)7(8)2-3-9/h3,6-7H,2,4-5H2,1H3	InChI=1S/C8H12O/c1-8-4-6(5-8)7(8)2-3-9/h3,6-7H,2,4-5H2,1H3/t6-,7-,8+/m1/s1
