24
gdb 10357	1.86458	1.60896	1.09698	1.332	81.68	-0.2598	0.0698	0.3296	1266.9755	0.22104	-351.416642	-351.405754	-351.40481	-351.452582	39.298	
C	-1.6553203912	-0.1352473189	-0.4656314582	-0.390584
C	-0.1752676181	-0.1962751147	-0.0729173383	-0.183491
C	 0.7718434713	-0.6621586915	-1.2008377499	 0.062687
C	 2.2277870166	-0.2264394038	-0.9271590508	-0.176563
C	 2.4807229386	 1.2674849413	-1.1569275493	-0.391792
C	 0.6521023342	-2.1851039188	-1.4137621468	 0.118129
C	 1.2744170359	-2.6889706072	-2.7182038716	-0.414636
O	 1.2524107167	-2.8106310173	-0.2783871222	-0.434987
H	-1.8152213122	 0.5633173349	-1.2950896448	 0.110404
H	-2.0424592984	-1.1107074014	-0.7781211287	 0.11424
H	-2.2702062639	 0.2025083316	 0.3748265527	 0.110336
H	 0.1318368167	 0.7987610895	 0.2669360344	 0.08882
H	-0.0398360083	-0.8681396283	 0.7824467033	 0.112462
H	 0.4453597626	-0.1901127079	-2.1395761521	 0.057447
H	 2.490966982	-0.5000383553	 0.1002650835	 0.109294
H	 2.9107277693	-0.793126088	-1.5688777363	 0.090054
H	 2.2707899079	 1.5486652108	-2.1954512371	 0.109039
H	 1.858518274	 1.8981597963	-0.513850881	 0.116378
H	 3.5249498278	 1.5227971544	-0.9497808708	 0.109515
H	-0.4206646706	-2.4360243505	-1.4433478575	 0.06024
H	 0.8034847377	-2.2129205992	-3.5847183517	 0.114751
H	 2.3497408124	-2.4952879017	-2.7552535879	 0.127028
H	 1.1270172533	-3.7710465193	-2.8178202586	 0.101091
H	 1.1534032258	-3.762394505	-0.3761198801	 0.280138
57.0163	75.5818	87.6897	188.3307	206.637	209.5557	225.1625	271.8993	273.6563	287.9658	320.855	400.2467	444.1403	497.3771	612.1488	737.2675	769.867	834.3865	879.7554	919.7421	951.1168	1015.5171	1033.2452	1038.3514	1051.5016	1056.6383	1087.0467	1154.5718	1173.1054	1183.6212	1238.5798	1271.7346	1300.9972	1331.4575	1338.7303	1372.5646	1386.6686	1399.3641	1406.9731	1410.5316	1413.9795	1421.0086	1481.9391	1488.9084	1492.6464	1498.8529	1500.2373	1504.0785	1507.3352	1509.7909	2963.6058	2993.3642	3028.369	3028.8782	3029.9106	3039.1148	3045.5408	3069.7528	3073.9056	3090.0481	3096.205	3097.5846	3099.6938	3104.8203	3119.7473	3824.3858
CCC(CC)C(C)O	CCC(CC)[C@@H](C)O	
InChI=1S/C7H16O/c1-4-7(5-2)6(3)8/h6-8H,4-5H2,1-3H3	InChI=1S/C7H16O/c1-4-7(5-2)6(3)8/h6-8H,4-5H2,1-3H3/t6-/m1/s1
