16
gdb 125817	2.99916	1.19755	0.93395	2.6957	71.38	-0.2543	-0.0399	0.2143	1215.5701	0.122864	-437.896258	-437.887603	-437.886659	-437.930978	30.191	
C	-0.1277646943	 1.4894890437	 0.2533002262	-0.504479
C	-0.0326604795	 0.0067718052	 0.0894159162	 0.329443
N	-0.0013406582	-0.5326819496	-1.1053284441	-0.194106
O	 0.0969484324	-1.9092265073	-0.9041312032	-0.165734
C	 0.1210004485	-2.1500638166	 0.4117859884	-0.00536
C	 0.0470671931	-0.9917865765	 1.1178534424	 0.054876
C	 0.003700895	-0.7785152691	 2.6021081982	-0.396436
C	-1.4174081516	-0.4387587265	 3.036663251	 0.163819
O	-1.7566924677	 0.6240440961	 3.4853319785	-0.231177
H	 0.773577007	 1.885905416	 0.7338231837	 0.141072
H	-0.2403577566	 1.967336899	-0.7212470154	 0.153193
H	-0.9769900096	 1.7615581948	 0.8874334109	 0.155594
H	 0.2013228017	-3.1869224041	 0.702228323	 0.152365
H	 0.312340356	-1.6946868055	 3.1195335357	 0.127624
H	 0.6612909324	 0.0374602058	 2.9152866898	 0.133185
H	-2.1494658085	-1.2615774055	 2.8721649788	 0.086122
44.1946	55.9761	134.8122	165.0214	223.1836	264.7327	380.1198	398.2774	475.6134	615.8851	639.1275	696.0638	709.686	847.0571	854.778	905.361	937.8885	1009.9595	1034.92	1054.8423	1071.5359	1159.1907	1168.9516	1225.0072	1285.7666	1311.2863	1407.5414	1419.0994	1436.0759	1461.056	1478.2222	1483.2454	1527.3373	1647.6977	1833.2613	2880.2384	3039.7234	3043.0037	3100.6866	3102.3135	3145.2601	3256.8491
CC1=NOC=C1CC=O	Cc1nocc1CC=O	
InChI=1S/C6H7NO2/c1-5-6(2-3-8)4-9-7-5/h3-4H,2H2,1H3	InChI=1S/C6H7NO2/c1-5-6(2-3-8)4-9-7-5/h3-4H,2H2,1H3
