17
gdb 77757	2.32104	1.81298	1.18038	3.5231	69.14	-0.2358	0.0062	0.242	1036.4969	0.133548	-458.914396	-458.905823	-458.904879	-458.946832	33.404	
C	-0.2642204922	 1.5627399053	-0.1067820639	-0.493605
C	 0.0101205828	 0.0684033853	-0.0685661409	 0.459754
O	-1.1828996541	-0.6407673217	-0.351520647	-0.470855
C	 1.3099609697	-0.5467319783	-0.7460554829	-0.28569
C	 2.1219777842	-0.1187858972	 0.5147092403	 0.126494
O	 2.5104574828	 1.2276039442	 0.5890435045	-0.429504
C	 0.7517645023	-0.6146985133	 1.1316538854	-0.289969
C	 0.9613487838	-1.7680532303	 0.1297614103	 0.458735
O	 0.9471344012	-2.9558338409	 0.0807450061	-0.319087
H	-0.600619011	 1.8443258749	-1.1132550441	 0.108022
H	-1.076345509	 1.7936438164	 0.5898904918	 0.126001
H	 0.6106296084	 2.1575576306	 0.138141213	 0.155674
H	-1.5964917803	-0.2444374193	-1.1257327529	 0.28157
H	 1.6261229119	-0.5012240499	-1.7862396294	 0.090337
H	 2.9708184706	-0.7717608808	 0.7463641971	 0.099775
H	 2.878683973	 1.380371254	 1.4652228339	 0.292127
H	 0.4462833661	-0.648968549	 2.1755278188	 0.090222
167.9796	175.0215	214.8056	259.3033	274.483	288.8442	305.7936	378.1905	413.3777	431.8395	518.6866	577.3653	645.8247	703.7666	730.7277	762.6686	776.2777	884.1418	970.3487	987.3245	1032.9384	1055.2276	1089.7386	1112.3273	1125.9598	1143.0231	1179.0722	1192.7538	1212.2252	1244.5236	1318.4768	1374.0849	1407.0119	1465.1514	1491.0727	1508.7995	1933.5755	3025.1952	3038.2048	3090.3308	3142.9684	3147.2012	3195.6745	3810.5226	3818.0863
CC1(O)C2C(O)C1C2=O	C[C@@]1(O)[C@H]2[C@@H](O)[C@@H]1C2=O	
InChI=1S/C6H8O3/c1-6(9)2-4(7)3(6)5(2)8/h2-4,7,9H,1H3	InChI=1S/C6H8O3/c1-6(9)2-4(7)3(6)5(2)8/h2-4,7,9H,1H3/t2-,3+,4+,6+
