23
gdb 58896	3.0099	1.23353	1.03648	1.328	84.81	-0.2547	0.0715	0.3262	1263.7682	0.206808	-388.299489	-388.290437	-388.289492	-388.332825	35.966	
C	 0.0044206074	 1.555137382	 0.3649163969	-0.411315
C	 0.0028028475	 0.0515442265	 0.0809659364	 0.02331
O	 0.7310291775	-0.6559214478	 1.0825530481	-0.42864
C	-1.4002970808	-0.5072594987	-0.1111406036	 0.380064
C	-2.2026453778	-0.9857559153	 1.0772318171	-0.350925
C	-1.7081380073	-1.9795734025	 0.0487208335	-0.067297
C	-2.6710994163	-2.4022422126	-1.0502027453	-0.216733
C	-3.2921280148	-1.0789075204	-1.5541301371	-0.230158
C	-2.2077173847	-0.0042272632	-1.30698774	-0.277808
H	 1.0284851666	 1.9137075899	 0.5024323791	 0.119711
H	-0.4521891701	 2.1168014275	-0.455412103	 0.122476
H	-0.5682663058	 1.7745290321	 1.2748568978	 0.109371
H	 0.5652394474	-0.1319807321	-0.8450794766	 0.083056
H	 0.4492749095	-0.320058386	 1.9399127344	 0.279031
H	-1.7034011222	-1.0116518259	 2.0401177651	 0.090608
H	-3.2609358065	-0.7522781163	 1.140328136	 0.103066
H	-0.9238648425	-2.6595478175	 0.3601012627	 0.091571
H	-2.1075853101	-2.8925304759	-1.8535630542	 0.097634
H	-3.4320924647	-3.114477209	-0.712201012	 0.094527
H	-3.5972301378	-1.1294461551	-2.6027006555	 0.095939
H	-4.19293464	-0.8413514074	-0.9796642419	 0.103795
H	-2.6420826561	 0.9900167	-1.1545345704	 0.094006
H	-1.5386016484	 0.0693241578	-2.1753115975	 0.094709
73.4891	156.614	199.8547	247.0648	254.7857	297.6182	309.132	333.0923	414.126	457.5497	483.0063	620.6116	629.7022	681.43	815.4858	823.3501	888.8049	889.1212	894.6832	921.5582	941.1975	972.3886	999.1325	1024.2185	1052.4561	1061.0218	1076.0027	1095.5669	1119.6626	1127.241	1169.9608	1200.2667	1237.6181	1259.8341	1287.633	1302.2288	1321.1229	1337.5984	1344.0034	1363.2172	1398.9582	1403.6733	1418.484	1484.3156	1492.6793	1493.0846	1495.3002	1495.7077	1517.7207	3009.6857	3015.1035	3027.1462	3028.4125	3048.0865	3062.0064	3068.1896	3097.2252	3097.827	3118.0427	3124.4703	3182.5183	3204.7713	3811.5052
CC(O)C12CC1CCC2	C[C@@H](O)[C@]12C[C@H]1CCC2	
InChI=1S/C8H14O/c1-6(9)8-4-2-3-7(8)5-8/h6-7,9H,2-5H2,1H3	InChI=1S/C8H14O/c1-6(9)8-4-2-3-7(8)5-8/h6-7,9H,2-5H2,1H3/t6-,7-,8+/m1/s1
