14
gdb 128726	2.74103	1.33007	0.90062	2.3281	66.69	-0.261	-0.0619	0.1991	1206.1011	0.100301	-473.817919	-473.809852	-473.808908	-473.85112	28.131	
C	-0.0277079741	 1.3422878692	 0.0361898873	-0.248866
O	 0.0124041516	-0.0907938652	-0.0149880996	-0.257453
C	 0.6165826309	-0.6201006079	-1.0738394077	 0.434827
N	 1.1554538396	 0.0940794863	-2.0342928987	-0.250663
O	 1.6732861028	-0.8572353381	-2.9350498771	-0.169769
C	 1.423815412	-2.07801171	-2.4784730973	 0.049164
C	 0.7506718924	-2.0330498503	-1.2914526787	-0.068062
C	 0.2904827945	-3.1472860047	-0.4645567952	 0.066947
O	 0.4595138024	-4.3130962678	-0.7466323722	-0.277625
H	 0.9857919057	 1.7530043433	 0.0486979258	 0.150215
H	-0.5636527126	 1.7410027143	-0.829728154	 0.150219
H	-0.5525227716	 1.589345092	 0.9585409992	 0.142683
H	 1.7713661998	-2.9035898476	-3.0805658944	 0.187155
H	-0.2371968834	-2.8451543736	 0.4629944126	 0.091228
100.1357	138.0218	158.5617	172.8776	236.5547	252.792	366.0984	389.4663	574.3984	596.0436	696.3625	743.2383	812.2439	896.7268	922.8361	933.3515	1039.1526	1042.5952	1173.8738	1179.2687	1205.9372	1247.9799	1321.4212	1420.0633	1453.7087	1465.3482	1481.237	1497.9413	1556.6922	1637.8803	1788.8402	2925.1714	3046.3627	3120.8749	3163.0558	3269.8751
COC1=NOC=C1C=O	COc1nocc1C=O	
InChI=1S/C5H5NO3/c1-8-5-4(2-7)3-9-6-5/h2-3H,1H3	InChI=1S/C5H5NO3/c1-8-5-4(2-7)3-9-6-5/h2-3H,1H3
