16
gdb 51525	5.54258	0.72434	0.68279	3.7722	70.74	-0.261	-0.0382	0.2228	1566.3118	0.122653	-437.881558	-437.872651	-437.871707	-437.917081	30.446	
O	-0.3727163141	 0.4291023575	 0.8261868348	-0.230841
C	 0.2006657345	 0.8394748123	-0.1491785209	 0.153794
C	 1.4053678864	 1.7626684291	-0.1026250844	-0.297961
C	 1.2024866968	 3.0152539981	-0.9461672693	 0.140663
C	 2.4329410962	 3.9005370766	-1.2415823474	-0.320301
C	 2.1153703694	 3.5952843027	-2.7292475278	 0.00195
O	 1.0468186161	 2.7043517165	-2.3609593074	-0.291348
C	 1.6517001197	 4.7350216214	-3.5279120376	 0.276349
N	 1.2994549847	 5.6421825946	-4.1509028224	-0.309817
H	-0.1238540255	 0.5587141409	-1.1739945586	 0.1036
H	 1.6016680999	 2.0316677583	 0.9400370404	 0.130372
H	 2.2710949256	 1.2118846371	-0.4955691858	 0.123581
H	 0.3336420079	 3.580662557	-0.5874360376	 0.1102
H	 2.3600520981	 4.9458615652	-0.9454392697	 0.144605
H	 3.3834213748	 3.4844198766	-0.9055876558	 0.130213
H	 2.9017914996	 3.074595636	-3.2866203906	 0.134942
36.089	64.3058	75.7339	137.1324	218.4196	232.257	347.3942	414.6844	500.1847	528.7959	575.642	756.1233	779.4264	828.9601	899.7111	942.2514	976.0673	998.5027	1023.816	1083.1583	1090.7457	1120.9872	1161.9555	1229.3219	1253.9533	1261.1668	1284.248	1328.774	1361.0944	1399.4681	1424.704	1449.3281	1490.5748	1833.6376	2357.5448	2909.4763	3020.0886	3035.7168	3050.535	3095.9345	3099.6374	3161.0212
O=CCC1CC(O1)C#N	O=CC[C@H]1C[C@@H](O1)C#N	
InChI=1S/C6H7NO2/c7-4-6-3-5(9-6)1-2-8/h2,5-6H,1,3H2	InChI=1S/C6H7NO2/c7-4-6-3-5(9-6)1-2-8/h2,5-6H,1,3H2/t5-,6+/m0/s1
