22
gdb 119486	3.70012	1.01315	0.9229	1.4559	85.64	-0.2151	0.0769	0.292	1390.5093	0.193948	-367.131486	-367.122656	-367.121711	-367.165252	34.43	
C	-0.1088468767	 1.498179333	 0.0474759444	-0.380005
C	 0.0969510269	-0.0184735811	 0.0405130865	-0.162641
C	 0.7122154485	-0.5254619747	-1.2723600671	-0.289279
C	 0.8621054873	-2.0214873982	-1.3476991823	 0.334962
C	 0.5488012584	-2.8204731622	-2.551694001	-0.301288
N	-0.3393669446	-2.9372030113	-1.3708308401	-0.183024
C	 0.3368911562	-3.7600512921	-0.2904985205	 0.012705
C	 1.7158726035	-4.2926452295	-0.5569411928	-0.312055
C	 1.5302652213	-2.8386058959	-0.2131425761	-0.120036
H	 0.8402066803	 2.0297784445	-0.0866732373	 0.111257
H	-0.7781123649	 1.8104991161	-0.7620130877	 0.114884
H	-0.5484556019	 1.836411808	 0.9909605928	 0.110988
H	 0.7364407259	-0.3016928869	 0.8854652884	 0.094362
H	-0.8610389345	-0.528437855	 0.1936629792	 0.116194
H	 0.0862180408	-0.1969136368	-2.1111699881	 0.100363
H	 1.6990708749	-0.0632714396	-1.4233395578	 0.096377
H	 0.0579020362	-2.296413137	-3.3673150188	 0.117277
H	 1.1540190187	-3.6576601766	-2.8785682623	 0.11552
H	-0.3055436802	-4.1544843494	 0.4863743784	 0.100853
H	 2.0994332263	-4.8826517821	 0.2708732021	 0.116206
H	 2.0657030858	-4.6413545301	-1.5218342309	 0.114268
H	 1.9903047919	-2.378350143	 0.6509078412	 0.092113
73.1487	89.4586	120.7883	246.2755	254.3161	298.7332	329.0734	451.96	477.7401	558.1991	621.9677	696.9509	718.6358	750.4129	781.7989	846.8103	879.7276	898.8711	907.4763	936.2896	952.79	975.3699	1022.4882	1045.5781	1054.9024	1061.7749	1067.774	1102.3098	1111.9391	1121.7306	1136.9816	1183.9944	1225.5032	1255.3744	1291.2702	1308.5258	1328.6981	1346.1503	1371.1147	1407.5403	1414.1935	1468.8576	1476.4648	1492.8268	1500.5867	1509.1947	1527.1124	3001.9348	3027.7092	3030.4094	3048.3964	3069.3253	3096.8963	3101.2962	3121.1925	3133.8149	3187.9452	3197.1057	3205.4682	3212.1745
CCCC12CN1C1CC21	CCC[C@]12CN1[C@H]1C[C@@H]21	
InChI=1S/C8H13N/c1-2-3-8-5-9(8)7-4-6(7)8/h6-7H,2-5H2,1H3	InChI=1S/C8H13N/c1-2-3-8-5-9(8)7-4-6(7)8/h6-7H,2-5H2,1H3/t6-,7+,8-,9?/m1/s1
