19
gdb 12075	3.70964	1.6001	1.45603	2.5326	70.39	-0.2279	0.062	0.2899	956.185	0.164746	-365.012927	-365.004787	-365.003843	-365.045059	31.352	
C	 0.0156137683	 1.5615531831	 0.1263458632	-0.404853
C	-0.1024484854	 0.0401665367	-0.0236913116	-0.226505
C	 0.6867183048	-0.5172951638	-1.2089043798	 0.406881
O	 0.1894749028	-0.0132938734	-2.4406087912	-0.484811
C	 2.2483965926	-0.5157874003	-1.1651654573	-0.22524
N	 2.3185741139	-1.9923782569	-1.4612295291	-0.125937
C	 1.6468796913	-2.6472683797	-0.3259255396	-0.250941
C	 0.8020632851	-2.0330348146	-1.3671722165	-0.061899
H	 1.0598590884	 1.8744188058	 0.2397098325	 0.120448
H	-0.4037155955	 2.0877283076	-0.7384531105	 0.113158
H	-0.5307789467	 1.9113894477	 1.0066635648	 0.122945
H	 0.2417741949	-0.4418782667	 0.8978268847	 0.095116
H	-1.1544899791	-0.239964924	-0.155690581	 0.106217
H	 0.3409979591	 0.9373602642	-2.4587085417	 0.279526
H	 2.6827048606	 0.0538646823	-1.9890397966	 0.109426
H	 2.7338825125	-0.235421664	-0.2231759832	 0.093323
H	 1.7462676263	-3.7285202774	-0.3415122042	 0.123163
H	 1.7220669269	-2.204073934	 0.6651046311	 0.108572
H	 0.1992357893	-2.6045628725	-2.065173894	 0.10141
94.0434	168.0191	191.4877	248.8889	268.7636	311.7816	386.1479	446.506	462.5366	503.9243	639.0587	750.3303	781.9487	785.2195	851.7769	904.1508	943.8209	970.1122	992.3217	1028.7286	1032.4907	1057.3491	1102.0428	1110.6352	1116.212	1178.8551	1197.525	1216.4099	1246.8331	1286.4672	1309.4473	1316.014	1365.4999	1400.6769	1412.7963	1475.4408	1479.8224	1500.5879	1506.1756	1511.0294	3029.148	3033.6517	3036.1601	3070.1893	3096.3367	3100.3345	3108.1107	3113.8757	3169.3921	3192.5577	3813.6739
CCC1(O)CN2CC12	CC[C@@]1(O)CN2C[C@@H]12	
InChI=1S/C6H11NO/c1-2-6(8)4-7-3-5(6)7/h5,8H,2-4H2,1H3	InChI=1S/C6H11NO/c1-2-6(8)4-7-3-5(6)7/h5,8H,2-4H2,1H3/t5-,6+,7?/m0/s1
