21
gdb 57924	2.77198	1.0427	0.85699	1.7967	80.44	-0.2467	-0.0361	0.2106	1432.7003	0.178602	-424.27773	-424.2669	-424.265956	-424.3143	38.326	
C	 0.3075209505	 1.5029873042	-0.4740747339	-0.38817
C	 0.0793716567	 0.1306881815	 0.1606210844	-0.066319
C	 1.045089337	-0.9365932556	-0.4032095277	-0.406506
C	 0.2238577978	 0.1798654558	 1.677854575	 0.371685
O	 0.7438686153	 1.1056374228	 2.2580726638	-0.308949
C	-0.3016001834	-1.0378140185	 2.460358832	-0.385942
C	 0.8665045812	-1.8150886466	 3.0842020968	 0.388305
C	 1.4388249933	-1.2369612675	 4.3574362704	-0.479339
O	 1.2953621381	-2.8132155558	 2.5543716285	-0.294116
H	 1.3144485466	 1.8670770915	-0.2536941477	 0.133347
H	 0.1897312722	 1.4434942773	-1.5602325291	 0.110187
H	-0.4000042667	 2.2431445811	-0.0904047054	 0.120704
H	-0.9457257882	-0.2074544	-0.0468790022	 0.091363
H	 2.0836618175	-0.618529667	-0.2647588959	 0.129674
H	 0.9257198395	-1.9073375155	 0.0852119994	 0.149834
H	 0.8713758801	-1.0649187136	-1.4754515207	 0.122104
H	-0.9520367249	-0.648122183	 3.2496379355	 0.134957
H	-0.8626152191	-1.715944144	 1.8165669999	 0.126488
H	 0.7050080737	-1.3404091556	 5.1660514208	 0.140132
H	 2.3567881056	-1.7581262567	 4.6309710088	 0.139451
H	 1.6162962373	-0.1647190748	 4.2257028673	 0.171111
50.6844	61.0964	84.9672	157.2619	180.8716	200.6943	225.7539	242.218	300.6776	312.8562	375.0059	434.2946	497.2321	533.1574	619.3856	663.4239	769.3338	817.699	886.0597	901.3619	934.1781	973.1214	994.1308	1037.9206	1076.1729	1110.7259	1133.037	1159.8605	1201.1518	1231.9152	1279.1517	1307.7045	1369.7407	1383.4169	1402.3721	1422.6707	1460.8912	1472.5695	1473.6982	1486.4116	1487.0285	1504.1558	1511.0973	1787.8389	1816.519	3009.6944	3035.8252	3039.5771	3045.7872	3062.6692	3101.7971	3109.7247	3115.5664	3124.2801	3124.6139	3139.2885	3156.9198
CC(C)C(=O)CC(C)=O	CC(C)C(=O)CC(=O)C	
InChI=1S/C7H12O2/c1-5(2)7(9)4-6(3)8/h5H,4H2,1-3H3	InChI=1S/C7H12O2/c1-5(2)7(9)4-6(3)8/h5H,4H2,1-3H3
