15
gdb 127745	7.35383	0.84548	0.76203	1.8085	77.3	-0.22	-0.0072	0.2128	1438.2656	0.113688	-446.305995	-446.297211	-446.296267	-446.340458	29.918	
C	-0.0056762917	 1.3735660956	 0.0822141092	-0.314819
N	 0.0049387685	-0.0726905998	 0.0558343977	 0.157808
N	-0.0669274061	-0.7666073035	-1.0719232682	-0.137193
N	-0.0299015053	-2.0261936419	-0.7264228985	-0.288299
C	 0.0650915932	-2.0521949198	 0.6366439085	 0.472884
N	 0.1312160653	-3.1704870674	 1.4334905331	-0.346264
C	 0.0744093507	-4.3155662739	 0.8537108996	 0.135283
N	 0.1698900286	-5.4662225043	 1.5555455001	-0.498
N	 0.0893224613	-0.8198863892	 1.1515470044	-0.342382
H	 0.9162540767	 1.7441975249	 0.5361591114	 0.157684
H	-0.0819689283	 1.7163595577	-0.9490634516	 0.166583
H	-0.8603392968	 1.7287458633	 0.6625334404	 0.157437
H	-0.0321006711	-4.4437784918	-0.2269269526	 0.140111
H	-0.0169351584	-6.3500571145	 1.1185928746	 0.269167
H	 0.1871036734	-5.4188710654	 2.561841182	 0.27
42.5192	108.9919	126.4605	149.1126	186.5767	223.3233	330.1523	408.7039	428.0412	523.5995	614.8262	689.4367	726.7772	797.1455	818.8643	1029.1809	1039.2088	1047.1159	1071.3087	1141.377	1151.8857	1247.7373	1308.3759	1316.9388	1375.686	1407.724	1429.8684	1449.4272	1475.1446	1509.374	1553.3265	1628.6109	1725.3466	3060.8465	3100.1406	3130.9896	3173.0103	3607.4328	3748.5933
CN1N=NC(N=CN)=N1	Cn1nnc(N=CN)n1	
InChI=1S/C3H6N6/c1-9-7-3(5-2-4)6-8-9/h2H,1H3,(H2,4,5,7)	InChI=1S/C3H6N6/c1-9-7-3(5-2-4)6-8-9/h2H,1H3,(H2,4,5,7)
