19
gdb 120463	3.87504	0.87341	0.77422	2.1011	73.61	-0.2348	-0.0337	0.2011	1507.8174	0.156314	-460.153391	-460.143459	-460.142515	-460.18903	34.961	
C	 0.0977414167	 1.5197676803	-0.1289897323	-0.386936
C	 0.3607275778	 0.0302918136	-0.0012810226	-0.050539
O	 0.3975900078	-0.5278144092	-1.3130265891	-0.24989
C	 0.6170763656	-1.9001051761	-1.3303558769	 0.044142
C	 0.7008969266	-2.5519979923	-2.7411277134	-0.315143
C	 1.8968826773	-3.4502618545	-2.2612551009	 0.06645
O	 2.9964344375	-3.691744381	-3.082955369	-0.432873
C	 2.0693236391	-2.4052668892	-1.1531157871	 0.30739
O	 3.066018383	-1.9170154847	-0.6945840645	-0.312823
H	 0.8941254234	 2.0007674669	-0.7034795886	 0.132092
H	-0.8526694278	 1.7013914603	-0.6387894481	 0.126486
H	 0.0560975383	 1.9827452349	 0.8612795158	 0.118343
H	 1.3140618594	-0.1577762248	 0.5095562632	 0.120312
H	-0.4360063139	-0.4581421671	 0.5842246698	 0.087161
H	-0.0830332444	-2.4418469799	-0.6733274947	 0.087072
H	-0.1879007695	-3.0679319351	-3.1022196955	 0.118858
H	 1.0393892922	-1.8132352933	-3.4707107541	 0.134182
H	 1.5137308747	-4.4029553669	-1.8747368437	 0.109241
H	 3.6816849663	-3.0583710319	-2.8335090783	 0.296475
58.8781	76.9363	92.1847	159.3934	184.0409	207.4845	250.8324	278.8273	360.1052	364.9497	422.0535	583.6469	598.2288	705.1466	802.7991	825.2117	850.1051	891.9052	961.4508	994.1583	1027.3139	1063.6771	1065.4997	1138.8747	1148.7191	1170.5454	1186.8041	1217.3392	1243.7345	1255.3273	1299.7639	1336.8779	1367.0493	1403.783	1414.4933	1441.0721	1476.325	1483.4645	1500.6741	1526.0772	1862.3169	2965.8023	2971.0632	3034.11	3039.5088	3046.5874	3086.7476	3121.4894	3124.5964	3157.1657	3768.8215
CCOC1CC(O)C1=O	CCO[C@H]1C[C@@H](O)C1=O	
InChI=1S/C6H10O3/c1-2-9-5-3-4(7)6(5)8/h4-5,7H,2-3H2,1H3	InChI=1S/C6H10O3/c1-2-9-5-3-4(7)6(5)8/h4-5,7H,2-3H2,1H3/t4-,5+/m1/s1
