18
gdb 36096	3.58051	1.15464	1.04065	1.8263	80.84	-0.2091	0.0499	0.259	1190.7179	0.146653	-364.686722	-364.67865	-364.677706	-364.719593	31.929	
C	-0.1022385799	-1.2002370143	 0.200671365	-0.456831
C	-0.0721091282	-0.0052930758	 0.0751552977	 0.314822
C	-0.0034727573	 1.4456210204	-0.0928078493	-0.470932
C	 1.4113919728	 1.9724809175	-0.0773225392	 0.373628
C	 2.1501301922	 2.4135884514	 1.1546581966	-0.328884
C	 1.9001719349	 3.4098260709	 0.0454764251	-0.139693
C	 2.8329900211	 3.1747620598	-1.1788714163	-0.050702
N	 3.768395404	 2.0640458284	-0.8646466374	-0.336486
C	 2.3756781287	 1.7774388428	-1.2912109702	-0.114007
H	-0.1354117509	-2.2546020475	 0.3202977197	 0.194918
H	-0.4941737765	 1.7205380713	-1.0374978184	 0.127344
H	-0.5798045982	 1.9371103311	 0.7012756735	 0.130499
H	 1.5184236199	 2.5548389937	 2.0269440177	 0.10523
H	 3.1514065206	 2.0584839697	 1.3602298791	 0.143531
H	 1.3139855305	 4.3094548778	 0.1837145966	 0.088403
H	 3.0626975867	 3.9033283702	-1.9452220973	 0.093609
H	 4.3616585159	 1.9327388255	-1.6835313871	 0.229669
H	 2.1640431336	 1.1665374074	-2.159388376	 0.095884
57.3297	100.4447	235.0974	276.3508	345.8891	405.856	422.0785	431.3827	571.7014	618.4416	636.9204	685.7034	734.8057	791.5833	824.9444	841.9435	863.098	893.5624	913.1274	930.0743	949.8973	980.2109	987.5305	1020.0969	1053.4756	1099.1851	1101.9906	1119.8438	1170.0351	1220.9685	1255.465	1276.8184	1317.5618	1332.9743	1353.9813	1395.762	1459.7452	1475.7462	2237.3071	3003.4166	3043.6462	3135.3377	3188.1816	3194.3161	3205.3299	3232.7416	3474.3009	3507.2148
C#CCC12CC1C1NC21	C#CC[C@]12C[C@H]1[C@H]1N[C@@H]21	
InChI=1S/C8H9N/c1-2-3-8-4-5(8)6-7(8)9-6/h1,5-7,9H,3-4H2	InChI=1S/C8H9N/c1-2-3-8-4-5(8)6-7(8)9-6/h1,5-7,9H,3-4H2/t5-,6+,7+,8-/m0/s1
