19
gdb 69932	3.32485	1.5038	1.31291	1.124	79.18	-0.2304	0.0247	0.255	1019.9421	0.160778	-385.864457	-385.857089	-385.856145	-385.895808	30.415	
O	-0.1152429397	 1.4552866442	 0.061736011	-0.465954
C	-0.018715101	 0.0747553642	 0.0330539781	 0.391213
C	-0.2844718553	-0.735419408	-1.2000045618	-0.357678
C	-1.1598432817	-0.9321328507	 0.0226726467	-0.125009
C	-0.4581162243	-1.7844697862	 1.0970280266	-0.012703
C	 0.1573002591	-3.1551767436	 0.7247364072	-0.285286
C	 1.6287242534	-2.8418786974	 0.5346665833	-0.06276
C	 1.9344178226	-1.5603118691	 0.757621058	-0.087911
C	 0.7233349743	-0.7536538566	 1.1218865256	-0.125662
H	 0.5601981037	 1.8186636667	-0.5211895354	 0.284362
H	-0.771155698	-0.1728814668	-1.9909241637	 0.109763
H	 0.4023764842	-1.5034852838	-1.5441158076	 0.111992
H	-2.2267039189	-0.7501335719	-0.0273861723	 0.088793
H	-1.0301353752	-1.8178895091	 2.0253033279	 0.074078
H	 0.0073376184	-3.9055263096	 1.51118744	 0.102371
H	-0.2883397935	-3.575999983	-0.1866655441	 0.106568
H	 2.3433115165	-3.6048591332	 0.2406921914	 0.089118
H	 2.9310679676	-1.1401377461	 0.669152137	 0.087221
H	 0.8169570679	-0.1735051301	 2.044244592	 0.077484
145.4564	209.5871	239.8711	274.8694	379.973	385.8996	494.448	512.066	588.7256	691.6427	715.2965	761.1593	791.4434	824.2163	859.4956	888.6634	925.5814	958.9315	967.6398	983.8114	989.2126	1020.9546	1022.0172	1062.8426	1082.1269	1089.9174	1124.9389	1159.8164	1178.6934	1194.8962	1231.1525	1260.5229	1293.2945	1311.435	1314.3459	1331.6636	1376.4796	1404.6288	1484.6698	1494.433	1667.5522	3015.9645	3040.9995	3068.5838	3096.2176	3115.5822	3167.4708	3181.6081	3193.6555	3203.9237	3794.8704
OC12CC1C1CC=CC21	O[C@]12C[C@H]1[C@H]1CC=C[C@@H]21	
InChI=1S/C8H10O/c9-8-4-7(8)5-2-1-3-6(5)8/h1,3,5-7,9H,2,4H2	InChI=1S/C8H10O/c9-8-4-7(8)5-2-1-3-6(5)8/h1,3,5-7,9H,2,4H2/t5-,6+,7-,8-/m0/s1
