19
gdb 56304	5.77497	0.52117	0.50645	3.4047	79.79	-0.2456	0.0508	0.2964	2123.8719	0.157916	-419.217369	-419.206841	-419.205897	-419.254633	37.307	
N	-0.0275083188	 1.3248870249	-0.0613448292	-0.565238
C	-0.0536760201	-0.0524701689	-0.2662848229	 0.448996
O	 0.7335588939	-0.6195059583	-1.0010598692	-0.387872
N	-1.0287704965	-0.7005714041	 0.4587233203	-0.344315
C	-1.1131660915	-2.1494205073	 0.4858788659	-0.158733
C	-2.5089335755	-2.658777058	 0.1144383508	-0.176539
C	-2.5859532587	-4.1977754332	 0.1561046358	-0.351335
C	-3.9128312137	-4.7083454666	-0.1644313562	 0.28938
C	-5.016529677	-5.1034102537	-0.4299970449	-0.432782
H	 0.5320274034	 1.7973259021	-0.7555495713	 0.26044
H	-0.9073813897	 1.7829239878	 0.1261167238	 0.244862
H	-1.4758298647	-0.1930075398	 1.2051585086	 0.238033
H	-0.36557973	-2.507732506	-0.2262324387	 0.152979
H	-0.8285904369	-2.5311625231	 1.4773938301	 0.099609
H	-3.2570440076	-2.2453125431	 0.801659277	 0.101027
H	-2.7712834358	-2.3032601123	-0.8871034472	 0.120955
H	-1.8522778037	-4.6184871339	-0.5440692927	 0.13754
H	-2.2899689115	-4.5531150555	 1.1524461795	 0.129316
H	-5.9865371256	-5.465065621	-0.6652102796	 0.193677
25.0015	66.7989	77.3354	98.0106	141.8879	252.6392	310.4148	327.9612	346.9448	359.7197	440.5892	523.9984	539.5256	569.385	616.5883	635.1605	661.2801	747.5329	777.4555	844.0149	934.5021	968.1826	1037.2257	1057.5731	1089.7875	1119.3466	1156.2284	1209.939	1270.3192	1300.2864	1322.1855	1332.5556	1370.0644	1410.6445	1474.028	1489.4612	1506.3538	1549.0254	1628.4979	1803.7271	2239.8615	2996.8545	3014.331	3035.4363	3045.1913	3087.1835	3113.9036	3507.7157	3569.6742	3632.101	3682.6661
NC(=O)NCCCC#C	NC(=O)NCCCC#C	
InChI=1S/C6H10N2O/c1-2-3-4-5-8-6(7)9/h1H,3-5H2,(H3,7,8,9)	InChI=1S/C6H10N2O/c1-2-3-4-5-8-6(7)9/h1H,3-5H2,(H3,7,8,9)
