16
gdb 33396	2.40264	1.39511	1.06009	3.8345	74.21	-0.2634	0.0103	0.2737	1154.4436	0.122918	-400.698129	-400.689279	-400.688334	-400.732423	31.413	
C	 0.076422295	-1.2171903744	-0.0529047503	-0.418397
C	 0.0609449613	-0.0181204691	-0.0166198661	 0.336536
C	-0.0013779502	 1.4421054073	 0.019374092	-0.353559
C	 1.3432357005	 2.0403625528	-0.0057450924	 0.309015
N	 2.3792390684	 2.5503505314	-0.0206548396	-0.332638
C	-0.8766971734	 2.0004298476	-1.1351150039	 0.151821
C	-0.8936151573	 3.5284581424	-1.3513915859	-0.317412
C	-0.3116233064	 3.1851999606	-2.7384943154	-0.058422
O	-0.2917921809	 1.7708227727	-2.4206086899	-0.27782
H	 0.1021368758	-2.2786139162	-0.0889114038	 0.21113
H	-0.4785303998	 1.7571836605	 0.9592082298	 0.156407
H	-1.8622266235	 1.5265858636	-1.0446617737	 0.098561
H	-1.8831859725	 3.9858374699	-1.3463347405	 0.119495
H	-0.2254809033	 4.0946295779	-0.7008148128	 0.13472
H	-0.9673309586	 3.3955264662	-3.5905133106	 0.111321
H	 0.6933339549	 3.5645494267	-2.9463583271	 0.12924
69.1768	81.2089	125.4852	148.4857	166.8354	308.1472	359.6209	372.2075	468.6191	576.752	642.5272	664.8093	671.9823	749.8077	801.4777	855.7795	925.1098	956.8597	990.0685	1009.0639	1035.9129	1101.8221	1120.4051	1168.036	1218.4107	1230.5815	1264.7991	1292.8236	1298.8663	1365.678	1382.0196	1486.2899	1528.5357	2250.6128	2365.798	3008.3208	3027.0879	3038.2976	3087.9794	3089.2258	3146.1853	3502.9059
C#CC(C#N)C1CCO1	C#C[C@@H](C#N)[C@H]1CCO1	
InChI=1S/C7H7NO/c1-2-6(5-8)7-3-4-9-7/h1,6-7H,3-4H2	InChI=1S/C7H7NO/c1-2-6(5-8)7-3-4-9-7/h1,6-7H,3-4H2/t6-,7+/m0/s1
