21
gdb 74882	2.68481	1.49051	1.11073	0.2022	90.19	-0.2108	0.0178	0.2286	1174.474	0.184287	-349.953095	-349.944759	-349.943815	-349.986038	33.093	
C	 0.0434858478	 1.5657916796	 0.0977048001	-0.46857
C	-0.0372116637	 0.0631437591	 0.0200171179	 0.286065
C	-1.2150288362	-0.5616340541	 0.138012932	-0.118766
C	-1.5343548916	-2.0077933185	 0.0786779876	-0.060338
C	-0.9316546682	-2.9670523092	-0.9204258254	-0.302283
C	-0.5655874557	-3.1059083005	 0.5406715934	-0.065883
C	 0.7857694349	-2.800166806	 1.0606847892	-0.030504
C	 1.5841072744	-1.7743663924	 0.7554843958	-0.082255
C	 1.2981782238	-0.6363500314	-0.201802696	-0.374667
H	 0.6871014061	 1.8854587514	 0.9281433423	 0.121406
H	 0.4878074986	 1.9858387285	-0.8150300315	 0.119067
H	-0.9410878307	 2.0211201001	 0.2349526556	 0.116117
H	-2.0862667522	 0.0687227024	 0.3083231882	 0.072058
H	-2.5699379564	-2.2178290846	 0.3270331992	 0.084521
H	-1.5791302711	-3.7207554134	-1.3549552584	 0.111679
H	-0.1739093855	-2.5890944264	-1.5949848872	 0.121487
H	-1.0492754029	-3.931309013	 1.0530545082	 0.084653
H	 1.1557708453	-3.5155728175	 1.7922360803	 0.081305
H	 2.5520214954	-1.7339708576	 1.2487814677	 0.085441
H	 1.3799174081	-0.9742093786	-1.2458303817	 0.119511
H	 2.0941064596	 0.1072237721	-0.0921536571	 0.099957
52.0751	148.5596	225.2731	257.7597	316.2442	327.0551	367.0288	406.0743	516.7207	569.6464	629.1151	678.7895	742.3789	754.752	802.2926	849.6097	878.2792	883.1958	908.2402	952.7011	981.8335	996.2135	1027.8281	1041.8607	1056.2572	1066.6827	1106.2909	1134.6014	1148.2721	1180.2869	1227.2436	1238.3481	1283.1805	1359.4226	1387.241	1403.0619	1411.9716	1420.6417	1438.1846	1471.0492	1479.5035	1492.9769	1496.5044	1724.9571	1735.9005	2985.558	3006.7302	3050.2177	3061.0131	3107.0175	3127.646	3131.9116	3141.3599	3149.469	3156.8134	3164.7741	3234.1841
CC1=CC2CC2C=CC1	CC1=C[C@H]2C[C@H]2C=CC1	
InChI=1S/C9H12/c1-7-3-2-4-8-6-9(8)5-7/h2,4-5,8-9H,3,6H2,1H3	InChI=1S/C9H12/c1-7-3-2-4-8-6-9(8)5-7/h2,4-5,8-9H,3,6H2,1H3/t8-,9+/m1/s1
