17
gdb 18455	4.13992	1.4209	1.36678	2.5308	68.9	-0.2421	-0.0236	0.2185	979.3584	0.141798	-363.834475	-363.826885	-363.825941	-363.866586	28.432	
C	 0.8000898757	 1.1942465587	-0.7088935846	-0.376178
C	 0.0539008629	-0.0154253208	-0.1326597576	-0.227643
C	 0.7686037382	-0.6053165832	 1.0681298982	 0.027968
C	 0.6729606884	-2.02113675	 1.543730156	-0.197708
N	 1.9936230209	-1.4092871027	 1.0318430742	-0.136254
C	 1.9192098664	-2.2894493755	-0.1899393062	-0.295304
C	 0.6610361051	-2.970356732	 0.3815511486	 0.408954
O	 0.0652393946	-3.9785843482	 0.1336900662	-0.305744
H	 1.7926705873	 0.9117041561	-1.0740688802	 0.128032
H	 0.2452948557	 1.6353732036	-1.5417788037	 0.12052
H	 0.9393311383	 1.9705824478	 0.0510154821	 0.122655
H	-0.9452084398	 0.2899336576	 0.2010853937	 0.113657
H	-0.1107790594	-0.7647029023	-0.9118666074	 0.115214
H	 0.8270975305	 0.0978126776	 1.8996412956	 0.107858
H	 0.4927743631	-2.2768567238	 2.582351291	 0.119922
H	 1.8660739828	-1.7685832023	-1.1483105336	 0.129925
H	 2.7639498893	-2.9837517806	-0.2001468522	 0.144127
88.4101	101.0109	201.1439	238.6318	327.156	409.9781	454.0476	515.7309	585.6748	656.5936	696.4178	789.1139	809.047	874.8429	891.0964	963.536	996.5341	1007.0469	1024.4948	1060.2166	1092.6978	1126.4213	1135.9787	1188.1612	1240.9222	1250.5666	1290.2915	1317.0421	1345.6397	1413.9763	1438.37	1459.6572	1492.1197	1498.2255	1507.299	1890.124	3036.9589	3041.9785	3068.0537	3082.0544	3103.3875	3112.5918	3114.2919	3124.8752	3179.8752
CCC1C2N1CC2=O	CC[C@H]1[C@@H]2N1CC2=O	
InChI=1S/C6H9NO/c1-2-4-6-5(8)3-7(4)6/h4,6H,2-3H2,1H3	InChI=1S/C6H9NO/c1-2-4-6-5(8)3-7(4)6/h4,6H,2-3H2,1H3/t4-,6-,7?/m0/s1
