20
gdb 12263	3.78359	1.35815	1.10603	2.5489	75.79	-0.2327	-0.015	0.2177	1149.84	0.175632	-349.027697	-349.018641	-349.017697	-349.061576	32.8	
C	 0.1228884506	 1.5284508375	 0.1749809416	-0.384562
C	 0.064921286	 0.0178930652	-0.0786550475	-0.195718
C	-1.353731491	-0.5399132958	 0.0048163848	-0.07439
C	-1.6107819688	-2.0763869427	-0.1246534404	-0.282487
C	-2.5921059443	-2.0326119675	 1.0910720514	-0.07592
C	-2.5266844392	-3.0868170437	 2.1868903234	-0.405851
C	-2.0170633292	-0.6376601068	 1.3910791282	 0.38054
O	-1.9569696283	 0.0286541249	 2.3869424444	-0.309637
H	 1.1526635146	 1.8957857861	 0.1295519086	 0.110173
H	-0.4597333646	 2.0761606665	-0.5744405721	 0.109945
H	-0.2858962289	 1.7685662338	 1.1598989787	 0.147695
H	 0.4817255369	-0.2162423833	-1.0665532583	 0.098072
H	 0.6955058654	-0.5033740177	 0.6529231838	 0.098729
H	-2.0178076787	 0.0145843638	-0.6721011479	 0.096323
H	-2.0201714162	-2.4258650147	-1.073450744	 0.104649
H	-0.710710029	-2.6535388944	 0.1084552857	 0.108416
H	-3.6237139234	-1.9151037471	 0.7340742838	 0.100949
H	-1.5003136169	-3.2170732274	 2.5452596836	 0.120144
H	-3.1414077265	-2.790366112	 3.0420234378	 0.134586
H	-2.8857983384	-4.0563605248	 1.8274875145	 0.118343
57.0601	103.4072	159.7935	181.2983	204.4977	241.7573	276.8604	333.9914	378.4407	526.6738	566.7747	680.8723	734.5867	801.9668	825.0536	899.9056	922.0687	960.6121	981.8607	995.33	1022.2066	1095.3723	1121.5652	1138.9408	1144.7826	1182.7916	1229.6934	1246.0899	1255.2605	1287.0046	1334.7753	1339.259	1375.4516	1406.9467	1411.0281	1487.3201	1489.6387	1494.7729	1495.6022	1499.5292	1513.0313	1872.0244	3016.982	3021.4617	3027.6177	3034.6999	3035.8434	3053.411	3061.0855	3099.4876	3104.0959	3111.8068	3125.1188	3125.9435
CCC1CC(C)C1=O	CC[C@H]1C[C@@H](C)C1=O	
InChI=1S/C7H12O/c1-3-6-4-5(2)7(6)8/h5-6H,3-4H2,1-2H3	InChI=1S/C7H12O/c1-3-6-4-5(2)7(6)8/h5-6H,3-4H2,1-2H3/t5-,6+/m1/s1
