14
gdb 49334	2.37804	1.8218	1.03832	3.096	66.94	-0.2731	-0.0451	0.228	1057.4125	0.101451	-470.044133	-470.036267	-470.035323	-470.077409	27.923	
N	-0.1004505551	 1.2568630038	 0.0069195191	-0.529156
C	 0.0120566304	-0.0003013652	 0.0001496056	 0.373227
C	-1.1794396896	-0.9320430276	 0.0025192755	-0.158845
O	-0.6314518919	-2.2485031732	-0.0066598265	-0.250322
C	 0.7314306354	-2.2152332711	-0.0144397868	 0.487032
N	 1.5015160905	-3.2048000431	-0.0234842372	-0.530324
N	 1.1370835992	-0.8550432508	-0.0104743243	-0.205975
C	 2.4615190996	-0.3942091578	-0.0163978657	 0.173408
O	 3.4455117039	-1.0741879521	-0.0252904087	-0.244931
H	 0.7835486635	 1.7613468345	 0.0043115459	 0.235657
H	-1.7924728903	-0.7897582263	 0.8972134773	 0.157872
H	-1.8024538461	-0.781493916	-0.8838984962	 0.157861
H	 0.95969952	-4.0679383638	-0.0243687479	 0.240475
H	 2.4868316403	 0.7097729187	-0.0117225402	 0.094021
54.8436	117.5565	149.3381	209.9972	231.7197	365.6805	462.0834	540.2176	563.609	640.534	715.385	716.7744	779.9669	841.7747	857.3712	990.5465	996.5065	1013.607	1036.2187	1110.9011	1172.082	1201.4895	1204.0602	1249.7638	1360.9084	1409.3698	1455.4432	1501.2762	1763.3027	1794.029	1862.2258	2973.339	3060.4178	3105.0545	3509.2907	3514.9795
N=C1COC(=N)N1C=O	[NH][C]1CO[C]([NH])N1C=O	
InChI=1S/C4H5N3O2/c5-3-1-9-4(6)7(3)2-8/h2,5-6H,1H2	InChI=1S/C4H5N3O2/c5-3-1-9-4(6)7(3)2-8/h2,5-6H,1H2
