16
gdb 31689	6.57192	0.8687	0.77105	2.7882	77.38	-0.2082	-0.0343	0.1739	1412.0821	0.124362	-437.925985	-437.91768	-437.916735	-437.959327	30.096	
C	 0.0362522802	 1.4000062018	 0.007736432	-0.247203
O	 0.0135373378	-0.0160083246	 0.0041357162	-0.264284
C	-1.2073871347	-0.5998031469	 0.0126614123	 0.335007
C	-1.3941157826	-1.9545588636	 0.0104682813	-0.207893
N	-2.7715440383	-2.1810879581	 0.0212879196	-0.037847
C	-3.3801861752	-3.428691889	 0.0228829717	 0.181443
O	-4.5713017449	-3.601891097	 0.0324208975	-0.296402
C	-3.4367161287	-0.967543831	 0.0301768711	-0.05015
C	-2.5043825979	 0.0291997476	 0.0251884098	-0.307558
H	 1.088064811	 1.6900821982	-0.0002588506	 0.137132
H	-0.4581991546	 1.8137552076	-0.880743538	 0.124158
H	-0.4432932095	 1.8089708755	 0.9065425365	 0.124158
H	-0.6883305461	-2.7670524215	 0.0023577681	 0.138484
H	-2.6351318967	-4.2444351042	 0.0145473879	 0.097951
H	-4.5129549356	-0.9509125608	 0.0391629672	 0.156662
H	-2.714813474	 1.086364806	 0.0298693974	 0.116342
61.6525	118.2179	175.1599	205.0976	270.47	283.0968	340.4579	403.4263	579.8283	610.3608	621.0871	663.1745	690.8154	772.6864	806.5995	841.9953	970.3357	999.0888	1030.1288	1080.0282	1092.2215	1179.1212	1203.1073	1219.2774	1273.1997	1332.1719	1382.9785	1430.6645	1450.2579	1480.0468	1489.6347	1506.6966	1531.5066	1650.1198	1821.8358	2979.4278	3003.8965	3062.8821	3135.7993	3261.451	3282.2916	3296.2237
COC1=CN(C=O)C=C1	COc1cn(C=O)cc1	
InChI=1S/C6H7NO2/c1-9-6-2-3-7(4-6)5-8/h2-5H,1H3	InChI=1S/C6H7NO2/c1-9-6-2-3-7(4-6)5-8/h2-5H,1H3
