23
gdb 112564	2.46723	1.26227	1.09179	2.3121	82.62	-0.2439	0.0728	0.3167	1276.4299	0.203269	-425.415884	-425.405521	-425.404577	-425.450512	39.082	
C	-0.3584489676	 1.3033339445	 0.171819124	-0.239323
O	 0.161463086	 0.0112746142	-0.0624540953	-0.252134
C	 0.8229563191	-0.5471523386	 1.0659541691	 0.086829
C	-0.1715688179	-1.2059352099	 2.0625868161	-0.301838
C	-0.023420194	-2.5339825624	 1.2527795337	 0.413753
C	-0.0083284634	-3.8509014836	 2.0015611826	-0.438906
O	-1.0101349987	-2.6431572756	 0.2393340693	-0.485035
C	 1.3352758852	-1.9655817182	 0.7039797711	-0.038828
C	 1.7830085747	-2.282500198	-0.7126536088	-0.407049
H	 0.4415128549	 2.0093378999	 0.4403141573	 0.111344
H	-0.8300508657	 1.6367816478	-0.7555562347	 0.130006
H	-1.1087874489	 1.3100631375	 0.9753248426	 0.112534
H	 1.5493785816	 0.174972107	 1.4634293668	 0.059235
H	 0.2456833947	-1.2777772115	 3.0710648685	 0.097273
H	-1.1799308206	-0.7873881713	 2.1164575175	 0.10036
H	-0.9950898497	-4.0561577227	 2.42855693	 0.121767
H	 0.2401888309	-4.672565555	 1.3221374174	 0.122792
H	 0.7264644044	-3.8329564235	 2.8116586359	 0.104762
H	-1.0275512143	-1.7963930772	-0.2261793487	 0.281487
H	 2.1264358572	-2.2213024282	 1.4184254797	 0.071296
H	 1.0029598432	-2.0512308659	-1.4400268552	 0.124975
H	 2.6754907641	-1.7070009882	-0.9803056629	 0.109798
H	 2.0278856746	-3.3453909411	-0.808742416	 0.114901
101.4754	132.8634	154.5955	175.176	193.8709	211.0701	242.6886	244.9583	329.6985	354.3469	400.2286	445.0175	501.5482	530.9141	599.4345	675.405	728.9065	821.1048	866.4519	894.5198	933.2632	960.6918	973.0848	1017.76	1059.3283	1105.8434	1113.2473	1146.6239	1163.9487	1171.3474	1187.6298	1200.3021	1232.0259	1252.0796	1271.8884	1287.1189	1359.5775	1377.5614	1397.1898	1412.1116	1446.1441	1466.3716	1480.3521	1482.2262	1487.2478	1492.104	1493.4646	1496.8466	1510.4127	2985.153	3004.5526	3035.3001	3036.6633	3037.0712	3043.1998	3058.349	3098.0265	3107.1715	3112.1036	3116.9199	3117.7658	3133.7768	3756.8577
COC1CC(C)(O)C1C	CO[C@H]1C[C@@](C)(O)[C@H]1C	
InChI=1S/C7H14O2/c1-5-6(9-3)4-7(5,2)8/h5-6,8H,4H2,1-3H3	InChI=1S/C7H14O2/c1-5-6(9-3)4-7(5,2)8/h5-6,8H,4H2,1-3H3/t5-,6-,7+/m0/s1
