20
gdb 45556	3.09889	1.37108	1.1822	3.9355	78.02	-0.2354	0.0407	0.2761	1110.8388	0.175126	-403.221487	-403.213871	-403.212926	-403.254408	30.029	
O	 0.1075041407	-0.0840106395	-0.0638271379	-0.380924
C	 0.0201450153	 1.1205943043	 0.034564124	 0.396733
C	-1.2445348362	 1.9407404917	 0.2951461046	-0.347211
C	-0.7871426634	 3.4022117741	 0.4738076396	-0.011522
C	-0.7863257597	 3.9199730931	 1.9386975725	-0.214408
C	 0.6652786113	 3.7785340948	 2.4303626728	-0.203129
C	 1.484796787	 4.1199934985	 1.1777130632	-0.208904
C	 0.7243035631	 3.4210230364	 0.0346828989	 0.004583
N	 1.0512864226	 2.0116352949	-0.0801328472	-0.296145
H	-1.9126730434	 1.8113896206	-0.5621134572	 0.129255
H	-1.7683767447	 1.5379715002	 1.1660315215	 0.128151
H	-1.3764834559	 4.0671652084	-0.1597107264	 0.079136
H	-1.0729408075	 4.9776188891	 1.9529836793	 0.099151
H	-1.5066375589	 3.3865159158	 2.5652572611	 0.100302
H	 0.8930036752	 4.4236484587	 3.2829581402	 0.098384
H	 0.8665393601	 2.7461368837	 2.7372264314	 0.111868
H	 1.4742455481	 5.2029595511	 1.0042490469	 0.098809
H	 2.5320825675	 3.8073742305	 1.2326409541	 0.094621
H	 0.8775097854	 3.9317030632	-0.9237669183	 0.074671
H	 1.9753300931	 1.6810755804	-0.311410383	 0.246579
43.3946	84.4965	226.5684	338.4507	394.0989	471.4037	496.1566	554.7299	585.3304	599.7148	642.5312	775.6342	816.2452	832.0807	857.6212	892.4893	909.8009	919.5974	971.179	999.9701	1010.8848	1051.2442	1071.8797	1123.658	1164.8895	1180.1707	1200.8838	1207.5043	1271.1314	1274.5258	1289.4713	1319.3023	1331.9312	1339.2399	1346.5534	1362.1274	1391.3288	1438.8187	1466.9792	1484.6732	1492.3398	1506.6354	1827.2476	3017.0958	3038.1711	3039.6183	3048.1701	3060.0607	3085.2817	3087.4509	3089.514	3101.9808	3106.3375	3632.9646
O=C1CC2CCCC2N1	O=C1C[C@H]2CCC[C@H]2N1	
InChI=1S/C7H11NO/c9-7-4-5-2-1-3-6(5)8-7/h5-6H,1-4H2,(H,8,9)	InChI=1S/C7H11NO/c9-7-4-5-2-1-3-6(5)8-7/h5-6H,1-4H2,(H,8,9)/t5-,6-/m1/s1
