19
gdb 93646	1.9304	1.65752	1.37287	2.8555	75.64	-0.2436	0.0466	0.2902	1072.2614	0.158248	-422.999043	-422.989608	-422.988664	-423.033373	35.214	
O	-0.6371904856	 1.2744569491	 0.8880866245	-0.437712
C	-0.1013862911	 0.1398080403	 0.2111972112	 0.076117
C	 0.7774505525	-0.7488926336	 1.1293566814	-0.232118
C	 0.0501116091	-2.1105615902	 1.2435768167	-0.223295
C	-1.4385755389	-1.7835692149	 0.981326002	-0.221237
C	-2.118770942	-1.2496907056	 2.15544845	 0.360095
C	-2.6785929969	-0.8242759702	 3.1309261273	-0.495331
C	-1.3189431978	-0.7431812932	-0.1770514355	 0.144563
O	-2.4724505544	-0.0171416526	-0.4798192341	-0.437148
H	 0.0669746589	 1.912164382	 1.0318879182	 0.290032
H	 0.4349408891	 0.4670854591	-0.6885300784	 0.070059
H	 1.7994265848	-0.8599086014	 0.7571012354	 0.097215
H	 0.8301292897	-0.2655959153	 2.1090623913	 0.116524
H	 0.3988714676	-2.7962967552	 0.4635426045	 0.101386
H	 0.2112533456	-2.5987530166	 2.2063159866	 0.113455
H	-1.9860347198	-2.6648787774	 0.6309349022	 0.101466
H	-3.177299049	-0.4445335217	 3.9877859081	 0.19312
H	-1.0549129357	-1.3126451041	-1.0763069787	 0.086178
H	-2.4933663561	 0.7209502514	 0.1437197872	 0.29663
72.6774	100.6559	105.8905	135.5021	240.2867	279.5872	341.6927	392.8996	416.4427	449.2728	544.0318	565.5625	616.8761	628.6621	645.6582	739.6495	809.0486	824.0177	861.3223	901.1176	982.5414	1008.1346	1021.7406	1074.5113	1113.4593	1140.2479	1184.9332	1197.4708	1202.7693	1246.2541	1288.7992	1309.8322	1326.9995	1333.2838	1344.7913	1386.8428	1421.29	1455.4988	1478.1743	1496.1174	2231.5662	3012.4105	3037.5616	3042.7291	3056.3063	3060.3592	3102.2555	3117.0395	3505.1601	3768.9177	3844.1207
OC1CCC(C#C)C1O	O[C@H]1CC[C@@H](C#C)[C@H]1O	
InChI=1S/C7H10O2/c1-2-5-3-4-6(8)7(5)9/h1,5-9H,3-4H2	InChI=1S/C7H10O2/c1-2-5-3-4-6(8)7(5)9/h1,5-9H,3-4H2/t5-,6+,7-/m1/s1
