21
gdb 53535	3.61435	0.81128	0.78932	1.3585	87.58	-0.233	0.0544	0.2875	1595.1048	0.179867	-387.058245	-387.047754	-387.04681	-387.095599	36.848	
C	 0.0440478658	 1.5318162165	 0.10150627	-0.498427
C	 0.0411582627	 0.0822056787	-0.0356101934	 0.093758
C	 0.0434999861	-1.117195257	-0.1416389613	 0.053603
C	 0.0334060975	-2.5700376997	-0.2646504316	-0.398648
C	-1.350982639	-3.2121808063	-0.0409808861	 0.437176
C	-2.406488638	-2.6778710197	-0.9956833693	-0.432421
C	-1.298255035	-4.7543567314	 0.1232650818	-0.336422
C	-1.7253354408	-4.476404305	 1.5763351677	-0.063389
O	-1.7718185181	-3.0555883288	 1.3437016651	-0.315091
H	 1.038125731	 1.9035981674	 0.3741998681	 0.145834
H	-0.2475429764	 2.0243062536	-0.8329111462	 0.143862
H	-0.6547311782	 1.857998363	 0.8798372124	 0.149408
H	 0.3906896158	-2.867673832	-1.2606888581	 0.120398
H	 0.7316564093	-3.0075953318	 0.4596073278	 0.122209
H	-2.1281260239	-2.88471183	-2.0352636551	 0.110825
H	-3.3728751848	-3.1482348894	-0.7945781264	 0.113852
H	-2.511901901	-1.5965575577	-0.8756395958	 0.13875
H	-2.0221168236	-5.3028315069	-0.481962633	 0.107221
H	-0.3110716847	-5.2036663819	-0.0033660487	 0.105624
H	-2.7032183234	-4.8755487581	 1.8719532681	 0.101388
H	-0.9914195312	-4.7432149633	 2.347056694	 0.10049
23.169	50.1471	75.4182	91.0119	204.4982	233.226	248.8796	303.0946	336.9706	383.2414	391.1972	403.6222	494.2649	700.4117	770.7605	788.2351	856.6593	872.4527	908.1017	952.1563	977.4123	999.2667	1030.8114	1052.6762	1054.4801	1122.8652	1161.6377	1168.9598	1188.6404	1208.3612	1239.1984	1265.3119	1295.8785	1339.0007	1360.373	1407.3669	1415.5207	1457.5579	1478.7865	1479.9269	1483.0682	1489.2316	1494.8987	1533.1546	2373.0325	3007.7089	3013.7279	3025.4622	3036.5371	3047.5653	3050.5842	3072.8446	3084.5697	3086.3909	3107.774	3125.5016	3128.6722
CC#CCC1(C)CCO1	CC#CC[C@@]1(C)CCO1	
InChI=1S/C8H12O/c1-3-4-5-8(2)6-7-9-8/h5-7H2,1-2H3	InChI=1S/C8H12O/c1-3-4-5-8(2)6-7-9-8/h5-7H2,1-2H3/t8-/m0/s1
