21
gdb 59947	2.68703	0.94547	0.934	3.0268	81.27	-0.2527	0.05	0.3027	1423.7716	0.178094	-424.193703	-424.18281	-424.181866	-424.229344	40.924	
C	-0.1246614638	 1.5201398827	-0.0877446991	-0.402276
C	 0.1846738082	 0.0258811608	-0.1384402274	 0.106524
O	 1.3224497526	-0.2220899659	-0.9874935366	-0.432587
C	 0.5664613662	-0.5420944304	 1.2302025131	-0.231385
C	 0.5038685132	-2.0953795696	 1.3231239323	 0.148615
C	-0.9379447274	-2.5872244011	 1.5385743346	-0.398918
O	 0.9674939833	-2.7134019396	 0.1247252075	-0.460824
C	 1.3360965631	-2.522364338	 2.4652261693	 0.34428
C	 2.0112138278	-2.8560016414	 3.4024487864	-0.484093
H	 0.7190299566	 2.0736313596	 0.3359085447	 0.129734
H	-0.3175082034	 1.9107852559	-1.0931127266	 0.107986
H	-1.0125508283	 1.7140990389	 0.5224383621	 0.120519
H	-0.686647184	-0.5138351696	-0.5356193239	 0.084786
H	 1.0625558365	-0.0613530433	-1.9003625508	 0.289524
H	 1.5860522551	-0.2060252656	 1.4464622838	 0.122307
H	-0.0803398739	-0.1219425047	 2.006006195	 0.110323
H	-1.5850200123	-2.2195742174	 0.7367191746	 0.111082
H	-0.9537935314	-3.6790842345	 1.5175180524	 0.135838
H	-1.3295613366	-2.2477251392	 2.5013022788	 0.116842
H	 1.4683900968	-2.0516388461	-0.3741223218	 0.290623
H	 2.6136348217	-3.1635953113	 4.2211100817	 0.1911
44.2165	98.7298	147.9106	190.0603	220.9236	239.1922	259.4851	299.7998	322.9285	351.7888	382.8795	392.6357	454.8955	488.9123	500.1198	568.5779	587.1338	622.8907	651.9907	755.2589	847.7836	892.0777	910.7263	949.5386	975.777	1020.2783	1087.6317	1096.7287	1133.1835	1166.7355	1196.5431	1240.6659	1295.9856	1333.7609	1378.3028	1400.4056	1406.0056	1418.6707	1449.6283	1470.4755	1481.3135	1489.1931	1492.9912	1498.7671	2228.3749	3002.7518	3031.0937	3044.5489	3052.9455	3097.4778	3101.0851	3115.8626	3119.5991	3134.4169	3501.9778	3709.434	3821.2648
CC(O)CC(C)(O)C#C	C[C@@H](O)C[C@@](C)(O)C#C	
InChI=1S/C7H12O2/c1-4-7(3,9)5-6(2)8/h1,6,8-9H,5H2,2-3H3	InChI=1S/C7H12O2/c1-4-7(3,9)5-6(2)8/h1,6,8-9H,5H2,2-3H3/t6-,7+/m1/s1
