21
gdb 105025	2.15632	1.3098	1.0462	3.7572	78.73	-0.2469	-0.024	0.2229	1252.9558	0.179733	-424.214221	-424.203943	-424.202999	-424.25	37.328	
C	 0.2040611844	-0.7524031438	 1.8258308979	-0.427942
C	 0.024300155	-0.3968433918	 0.3414431159	-0.106697
C	 1.0592750508	-1.1477107842	-0.4820642421	 0.134644
O	 1.5394496057	-0.755070366	-1.5149930014	-0.254138
C	-1.4042198388	-0.6599326216	-0.1729436339	 0.353707
C	-2.4945083923	-0.0642259457	 0.6912933897	-0.159763
O	-2.2427109133	 1.3271303003	 0.8410096498	-0.420502
C	-1.6558609258	-0.6757508799	-1.6598817984	-0.300565
C	-1.7543223015	-1.9575265585	-0.8695836114	-0.326612
H	 1.2479801515	-0.6260637631	 2.1315800908	 0.119184
H	-0.4033375094	-0.0995604875	 2.4556454906	 0.134135
H	-0.0799560061	-1.7915702148	 2.0265159214	 0.119069
H	 0.2219037513	 0.6701212555	 0.1949237082	 0.119786
H	 1.3696890485	-2.1303106401	-0.0529168846	 0.073049
H	-3.4677479833	-0.2440046316	 0.2083464852	 0.08547
H	-2.5216966455	-0.5652330439	 1.6711393074	 0.088841
H	-2.8884402353	 1.6862666442	 1.4564802962	 0.289098
H	-2.5735487517	-0.2218005185	-2.0175519956	 0.11151
H	-0.8046691545	-0.5485059227	-2.3183381589	 0.142336
H	-0.9793401125	-2.7041474074	-1.0053145887	 0.116747
H	-2.7372681073	-2.3824397689	-0.6927433781	 0.108643
41.5849	69.954	103.5208	191.8156	214.0429	248.9767	263.5217	269.3587	329.4094	374.7871	383.2225	409.2651	527.6302	563.3138	690.6484	786.8983	864.4759	913.5976	918.8972	945.4802	950.1396	971.1056	1046.7165	1057.922	1073.0249	1085.5069	1090.8989	1118.9827	1150.3753	1186.4268	1219.6263	1245.586	1275.5553	1326.2526	1334.0741	1347.2886	1401.7481	1429.54	1460.7791	1473.6263	1492.6937	1503.4782	1508.9279	1529.9772	1824.8488	2843.7864	2971.753	2999.7978	3034.8061	3062.3915	3097.8528	3129.3302	3129.823	3140.6834	3207.3358	3229.7309	3830.8305
CC(C=O)C1(CO)CC1	C[C@@H](C=O)C1(CO)CC1	
InChI=1S/C7H12O2/c1-6(4-8)7(5-9)2-3-7/h4,6,9H,2-3,5H2,1H3	InChI=1S/C7H12O2/c1-6(4-8)7(5-9)2-3-7/h4,6,9H,2-3,5H2,1H3/t6-/m0/s1
