20
gdb 103211	3.3497	1.38761	1.20034	2.6099	78.9	-0.237	0.0735	0.3105	1097.3265	0.171	-403.04489	-403.036809	-403.035865	-403.077184	32.264	
C	-0.1632776143	 1.5951441961	-0.0799944502	-0.460629
C	-0.1078036302	 0.074868974	-0.1401766682	 0.317386
C	-1.50642885	-0.5192558472	 0.0278498489	-0.114311
O	-1.9888396257	-0.2822694453	 1.3414118317	-0.425499
C	 0.8927974033	-0.6013562271	-1.088808495	-0.127027
C	 2.0555313191	-0.2513379517	-0.1068089059	-0.004313
C	 2.5737845518	-1.6859612698	-0.0256079592	-0.267906
C	 1.0509312815	-1.7911215179	-0.0921970894	-0.009332
N	 0.8772451327	-0.5696868167	 0.8625616138	-0.210112
H	 0.8266287447	 2.0540052829	-0.0330172534	 0.113152
H	-0.6718704338	 1.9857048479	-0.9688421871	 0.116157
H	-0.734995956	 1.9086429495	 0.7974223968	 0.139559
H	-2.2119293564	-0.0368389865	-0.6578836494	 0.102495
H	-1.5098152564	-1.5937646159	-0.2066766391	 0.082998
H	-1.2691887855	-0.5266114178	 1.9376558989	 0.293194
H	 0.9272988677	-0.6312713781	-2.1838013597	 0.063334
H	 2.6084322155	 0.6835050183	-0.0224217784	 0.088929
H	 3.1330120795	-2.0583953603	-0.8873546196	 0.101444
H	 3.0380355931	-1.9791158043	 0.9196460183	 0.110244
H	 0.4228440294	-2.6754047702	 0.0102916662	 0.090235
96.9266	184.0915	189.2334	268.8435	276.6326	361.6237	379.891	458.4068	499.2767	547.8579	644.2199	722.021	817.8106	834.9618	848.6775	852.2838	899.0069	930.6699	939.8306	960.6998	1022.5578	1022.777	1032.3198	1062.0273	1108.7743	1112.9732	1134.5504	1152.6334	1161.0788	1177.1238	1222.6763	1227.441	1237.2443	1264.148	1305.0124	1326.7197	1377.3964	1407.4825	1436.8722	1486.1842	1492.9619	1498.3584	1514.9472	2995.9484	3037.8059	3040.5384	3058.2014	3062.8894	3106.1019	3115.9868	3120.7981	3123.7548	3132.6389	3768.5068
CC1(CO)C2C3CC2N13	C[C@@]1(CO)[C@H]2[C@@H]3C[C@H]2N13	
InChI=1S/C7H11NO/c1-7(3-9)6-4-2-5(6)8(4)7/h4-6,9H,2-3H2,1H3	InChI=1S/C7H11NO/c1-7(3-9)6-4-2-5(6)8(4)7/h4-6,9H,2-3H2,1H3/t4-,5+,6-,7-/m1/s1
