20
gdb 101619	2.15733	0.90678	0.85269	3.8403	75.38	-0.2677	0.0359	0.3035	1508.1525	0.168758	-440.297362	-440.286657	-440.285712	-440.333726	37.99	
C	-1.3674326603	-0.6880055151	 0.1474919196	-0.402666
C	-0.0075440886	 0.0327761922	 0.0977848424	-0.12558
C	 0.906278271	-0.3519605212	 1.281500843	-0.196792
C	 2.1587818685	 0.5206803999	 1.3878545674	 0.074314
O	 1.8385531573	 1.8916484937	 1.6021805098	-0.426619
C	 3.1234334878	 0.0184789614	 2.4718057509	-0.097529
O	 3.5422468803	-1.3188362059	 2.2653464391	-0.407435
C	 0.6701405049	-0.2385041454	-1.1754812279	 0.275308
N	 1.213605936	-0.4665644324	-2.1702176544	-0.336501
H	-1.8866348004	-0.4321624907	 1.0755186316	 0.123299
H	-1.999993536	-0.395722514	-0.6942091277	 0.137928
H	-1.2352095989	-1.7732531695	 0.1151245938	 0.137976
H	-0.1710722465	 1.1162312938	 0.1457201139	 0.137778
H	 0.3224367603	-0.2504447514	 2.2070148655	 0.089269
H	 1.2072997015	-1.4014718295	 1.2084273951	 0.130676
H	 2.6853916219	 0.5078000287	 0.4242375987	 0.107428
H	 1.4165547783	 1.9660369507	 2.4661288936	 0.281281
H	 3.9702658613	 0.716153325	 2.5368751787	 0.105383
H	 2.6159187973	 0.0264187566	 3.445899342	 0.099561
H	 4.1116802642	-1.3368264171	 1.489010395	 0.29292
46.202	74.8348	115.8241	147.3323	197.677	219.984	241.4812	269.7573	315.0494	317.8286	336.6359	441.4291	447.2577	514.5351	558.8126	603.6332	782.3775	839.6955	905.9092	943.3909	1003.6713	1033.5511	1068.8639	1087.1587	1115.1983	1125.4797	1142.9544	1187.8311	1196.5776	1282.4004	1317.7995	1335.5009	1365.161	1378.6689	1395.5906	1414.3741	1416.2426	1422.1003	1478.3838	1493.5292	1499.9001	1502.64	2352.7014	3002.4701	3013.9432	3029.526	3044.4075	3046.8691	3054.7453	3095.3924	3120.9332	3127.5489	3789.8271	3814.401
CC(CC(O)CO)C#N	C[C@@H](C[C@@H](O)CO)C#N	
InChI=1S/C6H11NO2/c1-5(3-7)2-6(9)4-8/h5-6,8-9H,2,4H2,1H3	InChI=1S/C6H11NO2/c1-5(3-7)2-6(9)4-8/h5-6,8-9H,2,4H2,1H3/t5-,6+/m0/s1
