21
gdb 71292	2.61794	1.82784	1.40415	1.4237	80.9	-0.2247	0.0852	0.3099	1010.5895	0.184816	-387.066259	-387.058757	-387.057813	-387.097615	31.324	
C	-0.0005899628	 1.4785656908	 0.035017514	-0.468115
C	 0.0065744049	-0.0418303275	-0.0079072302	 0.314964
C	 0.212360516	-0.6511656379	-1.4414728857	-0.288762
C	-1.0780264298	-1.4569807713	-1.2846483156	-0.113245
C	-1.2085042126	-2.1687526055	 0.0401361435	 0.130587
O	-0.2234223875	-2.8288704209	 0.7827151686	-0.267853
C	 1.0288767883	-2.1705682121	 0.919317195	-0.077442
C	 0.9161155107	-0.6503160908	 1.0700666748	-0.260017
C	-1.3982614489	-0.6956321232	 0.0308942546	-0.150027
H	 0.9939918141	 1.8829618827	-0.1864184804	 0.111859
H	-0.7039196124	 1.8908899904	-0.6964855189	 0.112842
H	-0.2969410186	 1.8434798732	 1.0256343539	 0.112725
H	 0.0938610553	 0.1281591834	-2.1995845518	 0.097868
H	 1.1382939108	-1.1940081107	-1.6535392258	 0.093769
H	-1.7473547571	-1.7024191561	-2.1023324503	 0.081166
H	-2.1227031001	-2.7505756917	 0.1133152244	 0.101054
H	 1.4994476057	-2.6108364476	 1.804032637	 0.102117
H	 1.6687248529	-2.4129016391	 0.0585799088	 0.095626
H	 1.9254879935	-0.222612399	 1.01647303	 0.092746
H	 0.5099958251	-0.4000818596	 2.0585099921	 0.100701
H	-2.3047137277	-0.1934592075	 0.351712072	 0.077438
147.0688	240.6269	258.4704	284.1535	351.5448	377.8571	412.9185	523.9321	536.2647	610.2009	684.0317	743.2776	770.8194	833.0331	843.5563	889.3253	911.8172	933.8376	972.8883	988.9584	1007.8731	1009.9154	1034.3211	1064.408	1077.2583	1089.6811	1151.4106	1158.2201	1192.6619	1222.3506	1246.5029	1254.4379	1274.3213	1279.1333	1313.291	1346.4235	1380.257	1400.0647	1410.5274	1449.1451	1474.9957	1492.0245	1494.4954	1498.7279	1522.2214	2996.1518	3015.3061	3020.3582	3047.4589	3058.7246	3072.7528	3084.3858	3090.2987	3094.8257	3155.3392	3157.6848	3172.4807
CC12CC3C(OCC1)C23	C[C@@]12C[C@H]3[C@@H](OCC1)[C@@H]23	
InChI=1S/C8H12O/c1-8-2-3-9-7-5(4-8)6(7)8/h5-7H,2-4H2,1H3	InChI=1S/C8H12O/c1-8-2-3-9-7-5(4-8)6(7)8/h5-7H,2-4H2,1H3/t5-,6+,7-,8+/m1/s1
