12
gdb 130724	3.21678	1.54606	1.0442	0.9141	75.37	-0.2525	-0.1006	0.1519	1031.6664	0.078533	-431.657842	-431.650679	-431.649734	-431.689704	26.522	
O	-0.03421941	-0.035084626	 0.0038878283	-0.36
C	 0.0157948558	 1.1760649675	 0.0090861884	 0.389232
N	-1.1271499875	 1.9685928931	 0.028242955	-0.261001
N	-1.1938649073	 3.3069545322	 0.0359316497	-0.165719
C	-0.0415965962	 3.914713979	 0.0238561894	 0.064158
N	 1.1890080484	 3.3256367897	 0.0047564814	-0.29656
C	 1.238941131	 2.0198003901	-0.002496477	 0.029301
C	 2.4916318453	 1.3504185081	-0.0222920113	 0.283454
C	 3.5433746369	 0.7658813199	-0.0390255859	-0.32475
H	-2.0175715865	 1.4859737199	 0.0375644374	 0.284423
H	-0.0689576491	 4.9972764899	 0.0297097424	 0.143665
H	 4.4728358793	 0.2509457666	-0.0538163579	 0.213798
97.5485	141.039	200.3865	354.0243	377.7916	475.179	482.6203	568.5142	607.4388	624.0929	657.3314	669.376	714.6273	747.6209	826.8679	909.098	930.8067	1120.8197	1163.424	1230.3315	1289.1843	1398.7552	1428.5249	1532.728	1597.1525	1798.9033	2229.144	3219.656	3498.677	3580.4561
O=C1NN=CN=C1C#C	O=c1[nH]ncnc1C#C	
InChI=1S/C5H3N3O/c1-2-4-5(9)8-7-3-6-4/h1,3H,(H,8,9)	InChI=1S/C5H3N3O/c1-2-4-5(9)8-7-3-6-4/h1,3H,(H,8,9)
