17
gdb 9649	3.43385	1.34435	1.30518	5.4577	70.22	-0.234	0.0316	0.2656	1032.4872	0.14257	-360.022831	-360.014251	-360.013307	-360.055743	31.539	
C	 0.0501033682	 1.1204153567	 0.4217629505	-0.326689
N	-0.1387861809	-0.0411096512	-0.4473778129	-0.290153
C	-1.4366958082	-0.6337253357	-0.3423597744	-0.013286
C	-1.6701721483	-1.9702678262	-0.980854465	-0.355994
C	-1.5429217619	-1.880179805	 0.5442150287	 0.164116
N	-0.3559689511	-2.3041661172	 1.2345465191	-0.570364
C	-2.7646483979	-2.0324563836	 1.3015938887	 0.281345
N	-3.756207015	-2.159839517	 1.8837706315	-0.348635
H	 1.0469384004	 1.5378118918	 0.2576657558	 0.124972
H	-0.6935921658	 1.9177221074	 0.2599831719	 0.110244
H	-0.0183103878	 0.8027931673	 1.4663460324	 0.149042
H	 0.0592063247	 0.1965034494	-1.4128796786	 0.231802
H	-2.2944696369	 0.0405229114	-0.2953960673	 0.102647
H	-2.6424377512	-2.1688476864	-1.4165795195	 0.137108
H	-0.8281994464	-2.4357980948	-1.4818982643	 0.122971
H	-0.2182142554	-3.3052171193	 1.1425872107	 0.23738
H	 0.4354096032	-1.8281950176	 0.8080913728	 0.243494
92.9903	111.4433	169.5215	213.7621	271.6454	290.9073	319.7779	372.8275	468.2494	492.2813	573.2494	588.7348	683.9964	760.6904	798.075	881.5269	896.3263	920.5742	1022.7281	1038.0517	1064.7179	1129.5943	1143.5781	1175.2152	1207.2004	1241.3699	1309.1755	1320.7898	1410.746	1456.5069	1461.1181	1480.151	1496.6762	1517.5963	1641.8245	2350.4466	2975.9179	3076.2048	3080.0504	3122.0362	3137.8921	3233.8913	3481.237	3530.5691	3569.0055
CNC1CC1(N)C#N	CN[C@H]1C[C@]1(N)C#N	
InChI=1S/C5H9N3/c1-8-4-2-5(4,7)3-6/h4,8H,2,7H2,1H3	InChI=1S/C5H9N3/c1-8-4-2-5(4,7)3-6/h4,8H,2,7H2,1H3/t4-,5-/m0/s1
