18
gdb 64873	3.45771	0.96343	0.89015	3.9243	81.15	-0.2449	0.0221	0.2671	1349.3259	0.145648	-401.925812	-401.916378	-401.915434	-401.960946	33.952	
C	 0.1625914944	 1.3615517054	 0.052183331	-0.448948
C	-0.1486271519	-0.1375816109	-0.0267740364	 0.115675
C	 0.85326674	-0.9340655869	-0.9465056534	-0.221744
N	 1.41105457	-1.5380148742	 0.2610032046	-0.03896
C	 0.4393802144	-0.9591601569	 1.1817098053	-0.208135
C	 2.3726545023	-2.4600703764	 0.4842217763	 0.13455
O	 2.6395837713	-2.9219501167	 1.5747406025	-0.329632
C	-1.5521199627	-0.3828869933	-0.3073525833	 0.289341
C	-2.7150258903	-0.5803537961	-0.5396840306	-0.462273
H	 1.2253560854	 1.5175889321	 0.2624166617	 0.125761
H	-0.0830172414	 1.8587669547	-0.8905317186	 0.132357
H	-0.4205682516	 1.8331495469	 0.8480927647	 0.1355
H	 0.3682404566	-1.6455436571	-1.6221627631	 0.126571
H	 1.5498405578	-0.3062108506	-1.5127009039	 0.119582
H	 0.8790889617	-0.356412363	 1.9822595124	 0.126961
H	-0.2463887866	-1.6932576296	 1.6141130092	 0.132337
H	 2.9018892214	-2.741167848	-0.449963965	 0.069107
H	-3.7424633807	-0.7570624894	-0.7427634035	 0.20195
30.2982	86.922	145.8826	175.7281	198.8635	267.6065	296.5986	352.05	372.8771	457.1989	532.595	566.7387	635.1306	639.9457	653.5472	807.5571	894.5976	905.9331	939.2913	968.8953	973.6871	1034.7893	1135.278	1146.6475	1154.3224	1180.1957	1213.8301	1275.0493	1288.8943	1328.3641	1402.1907	1411.3837	1452.3261	1488.8318	1496.4831	1508.2911	1524.8107	1792.5657	2236.87	2919.6319	3031.3651	3038.8718	3048.9191	3084.3514	3099.5995	3114.6486	3120.4633	3500.979
CC1(CN(C1)C=O)C#C	CC1(CN(C1)C=O)C#C	
InChI=1S/C7H9NO/c1-3-7(2)4-8(5-7)6-9/h1,6H,4-5H2,2H3	InChI=1S/C7H9NO/c1-3-7(2)4-8(5-7)6-9/h1,6H,4-5H2,2H3
