17
gdb 43179	2.26002	1.84359	1.79494	3.2686	66.81	-0.234	-0.0268	0.2071	901.1296	0.138635	-458.982055	-458.975124	-458.97418	-459.013269	27.408	
O	 0.0117364104	 0.0549269273	 0.0241298958	-0.32171
C	-0.0252234468	 1.2536499003	 0.0269068585	 0.416705
C	-1.2183330874	 2.2046390542	 0.0485905876	-0.159329
C	-0.7052224484	 3.223474222	 1.07480245	-0.095129
O	 0.7394739838	 3.2385313282	 0.9284608476	-0.269889
C	 1.1301371313	 2.2600151228	-0.0030255775	 0.094269
O	 1.2093022657	 2.7602748914	-1.3291686715	-0.264969
C	 0.0588773446	 3.5207677118	-1.7060610747	-0.072436
C	-1.2645815035	 2.8062243886	-1.3833582303	-0.245556
H	-2.1546226959	 1.7216494737	 0.3281693799	 0.099289
H	-1.0792508142	 4.239408531	 0.9090746733	 0.113867
H	-0.9536989986	 2.9207432293	 2.0981477189	 0.120127
H	 2.1150011606	 1.8692846789	 0.2511558032	 0.112049
H	 0.0911903637	 4.4976701411	-1.2070621565	 0.114681
H	 0.157976828	 3.6910168091	-2.7806495131	 0.119608
H	-1.4446968639	 1.9987568279	-2.1008491136	 0.127671
H	-2.0945201194	 3.5170697124	-1.4710917076	 0.110751
140.757	185.4927	269.1478	296.8649	385.4443	431.9506	504.551	518.708	685.911	730.812	777.3467	812.9048	827.454	882.6121	907.0717	956.3158	982.6428	999.5648	1046.586	1059.0972	1103.3947	1116.8217	1168.9999	1203.1275	1210.1789	1246.0746	1278.7225	1291.8264	1308.2904	1347.894	1367.9385	1389.9355	1404.6329	1486.2165	1506.2848	1527.0865	1881.0335	3025.232	3033.0569	3037.6437	3074.6955	3083.8275	3105.5491	3119.4067	3134.494
O=C1C2COC1OCC2	O=C1[C@H]2CO[C@@H]1OCC2	
InChI=1S/C6H8O3/c7-5-4-1-2-8-6(5)9-3-4/h4,6H,1-3H2	InChI=1S/C6H8O3/c7-5-4-1-2-8-6(5)9-3-4/h4,6H,1-3H2/t4-,6+/m1/s1
