22
gdb 73831	2.66059	1.36122	1.02976	1.4153	89.73	-0.212	0.0282	0.2402	1270.0874	0.193444	-367.218932	-367.209439	-367.208495	-367.252531	36.428	
C	 0.0443674598	 1.5166083685	 0.109060896	-0.493106
C	-0.0293670665	 0.0265258788	-0.0073357987	 0.205078
C	-0.0501486028	-0.7243586057	-1.1208903189	 0.271996
C	-0.0264317538	-0.2907988127	-2.5531661581	-0.507972
C	-0.0403756812	-2.1757159589	-0.7564085488	-0.19605
N	 1.2026436234	-2.5748166638	-0.0224647774	-0.373228
C	-0.0401116318	-2.268265313	 0.7259835533	 0.338343
C	-0.7270348873	-3.3569680185	 1.5083836374	-0.490465
C	-0.0537158468	-0.8315395729	 1.2480866491	-0.346316
H	 0.9700206527	 1.8277415062	 0.6106992172	 0.127081
H	 0.0099264461	 2.0153166454	-0.8625304364	 0.120913
H	-0.7830739559	 1.9057619053	 0.7171415721	 0.11949
H	-0.0733754165	 0.7952158478	-2.6634356827	 0.121282
H	 0.8862003614	-0.6404550283	-3.0528924719	 0.131775
H	-0.870458721	-0.7189787054	-3.109510448	 0.119326
H	-0.5227826247	-2.9150207502	-1.3902460918	 0.075655
H	 1.2897359336	-3.5903082493	-0.0734440033	 0.216043
H	-0.7452369693	-4.2968826636	 0.9459880309	 0.110636
H	-0.2138560311	-3.5459349237	 2.4590330279	 0.12302
H	-1.7627474804	-3.0855053527	 1.7409229166	 0.121649
H	 0.809658027	-0.6308461319	 1.8949885649	 0.111234
H	-0.952746095	-0.6325350213	 1.8498052608	 0.093618
139.3168	147.9876	153.0704	174.9154	208.3811	252.5693	283.155	316.1893	375.58	423.7616	440.7885	539.6554	582.08	609.6386	721.6215	766.065	844.3052	892.6047	912.9048	930.2818	976.6359	988.8212	1023.3139	1027.0345	1065.6632	1080.6083	1109.8946	1123.5234	1167.4886	1189.4038	1204.1165	1233.5638	1291.3425	1331.4205	1369.8545	1407.7486	1414.3963	1418.9095	1437.6062	1468.8709	1478.3231	1481.7479	1485.6856	1487.5006	1493.4872	1500.5386	1728.2266	3000.1875	3013.1855	3015.9509	3020.5457	3045.8483	3055.289	3058.2648	3081.8903	3093.1511	3111.3566	3117.7199	3144.7102	3453.5509
CC1=C(C)C2NC2(C)C1	CC1=C(C)[C@H]2N[C@@]2(C)C1	
InChI=1S/C8H13N/c1-5-4-8(3)7(9-8)6(5)2/h7,9H,4H2,1-3H3	InChI=1S/C8H13N/c1-5-4-8(3)7(9-8)6(5)2/h7,9H,4H2,1-3H3/t7-,8+/m1/s1
