19
gdb 81546	4.24055	1.17582	1.0416	1.9845	75.49	-0.2429	0.0733	0.3162	1185.0074	0.158552	-422.928434	-422.920435	-422.919491	-422.961074	30.719	
C	-0.1059455998	 1.6138524531	 0.0612428037	-0.438041
C	-0.0185127905	 0.1005760167	 0.0132362074	 0.029083
C	 1.2424783469	-0.5677769748	-0.6073158987	-0.047288
O	 2.0423267151	-0.1124674447	 0.5591357268	-0.318971
C	 0.7761490694	-0.6495739881	 1.1212459549	-0.0473
C	 0.9341116505	-1.857483875	 0.1775836475	 0.377239
C	-0.0870957005	-2.9570707352	-0.1499730601	-0.176835
O	 0.9086415286	-3.9757759853	 0.0703762022	-0.278859
C	 1.9291570374	-3.0000921985	 0.3919362931	-0.163098
H	 0.858663421	 2.0414229974	 0.3418854955	 0.140579
H	-0.3978323021	 2.0178727199	-0.9139604804	 0.117161
H	-0.8576309467	 1.9372860158	 0.7891213871	 0.117159
H	-0.9694120484	-0.3672722687	-0.2654344657	 0.075966
H	 1.6844457818	-0.4472646341	-1.5978464411	 0.09497
H	 0.6582520512	-0.6272667308	 2.2059632204	 0.094969
H	-0.9339236858	-3.048963085	 0.5430819462	 0.103496
H	-0.4692938162	-2.9673820878	-1.1793920784	 0.103498
H	 2.7723772947	-3.0394652173	-0.3080808002	 0.108137
H	 2.3077269135	-3.1210295476	 1.4140203297	 0.108134
78.2588	149.003	206.1392	230.7667	259.0808	320.1976	385.6093	416.5151	567.1284	709.95	744.3753	769.3523	801.0689	861.5263	862.854	889.5326	961.1544	973.0847	1027.6128	1028.4147	1049.3995	1073.1605	1103.2046	1115.3905	1136.8419	1149.8568	1153.4643	1181.0024	1188.103	1192.4658	1213.9144	1269.624	1303.7708	1327.149	1392.1641	1398.5315	1416.3358	1494.2259	1505.4551	1505.7262	1530.5319	2999.467	3020.8042	3037.061	3040.4438	3048.9595	3061.7487	3095.5582	3104.0306	3110.0912	3136.2794
CC1C2OC1C21COC1	C[C@H]1[C@H]2O[C@@H]1C12COC1	
InChI=1S/C7H10O2/c1-4-5-7(2-8-3-7)6(4)9-5/h4-6H,2-3H2,1H3	InChI=1S/C7H10O2/c1-4-5-7(2-8-3-7)6(4)9-5/h4-6H,2-3H2,1H3/t4-,5+,6-
