13
gdb 25430	2.19242	1.61163	0.92884	6.652	74.01	-0.2554	-0.0568	0.1986	1142.1458	0.091177	-415.676792	-415.669326	-415.668382	-415.709158	27.06	
O	-0.054541563	-0.0005073507	-0.0007969111	-0.275865
C	-0.0058184942	 1.2099930623	 0.0080686208	 0.05749
C	 1.2419627732	 1.9756024058	 8.1627*^-6	 0.071921
C	 2.5131814609	 1.4380491902	-0.0182044593	-0.113876
N	 3.4057281708	 2.4674966811	-0.0202755892	-0.242464
C	 2.7542854252	 3.670731433	-0.0039133089	-0.15169
C	 1.4001287848	 3.4070084894	 0.0090794563	 0.083606
C	 0.3665594879	 4.3760014432	 0.0278930798	 0.205172
N	-0.4849173878	 5.1611964304	 0.0432932311	-0.346612
H	-0.9290591954	 1.826289142	 0.0227879773	 0.093617
H	 2.8222729522	 0.4061224065	-0.0294684028	 0.171487
H	 4.4067542609	 2.3617477737	-0.0321851368	 0.284212
H	 3.2861019846	 4.6074787531	-0.0026908299	 0.163004
117.5755	141.8956	171.0426	222.8562	266.3535	445.5648	515.777	550.8681	577.5575	622.5165	654.7744	680.9452	781.3863	802.0389	825.8822	915.9822	1045.4368	1093.3416	1099.4869	1190.3315	1268.5109	1341.4378	1364.1332	1447.6053	1464.6712	1549.7319	1582.0009	1787.3335	2346.5586	2917.6247	3280.2701	3284.2536	3666.4674
O=CC1=CNC=C1C#N	O=Cc1c[nH]cc1C#N	
InChI=1S/C6H4N2O/c7-1-5-2-8-3-6(5)4-9/h2-4,8H	InChI=1S/C6H4N2O/c7-1-5-2-8-3-6(5)4-9/h2-4,8H
