15
gdb 131186	3.197	1.30865	1.00188	3.0306	70.69	-0.2281	-0.0362	0.1919	1146.0119	0.11239	-453.909617	-453.901838	-453.900894	-453.942533	28.751	
O	 0.3738556198	 1.3642359014	 0.0292699235	-0.429097
C	 0.1501668991	 0.0371606792	-0.0317885967	 0.218603
C	-0.0870196862	-0.7351594458	-1.1332897055	 0.352415
O	-0.2482264493	-1.9922247413	-0.6855558698	-0.224843
N	-0.1036072762	-1.9714922313	 0.7209678941	-0.027298
N	 0.1275056751	-0.7722806893	 1.0640121005	-0.202708
C	-0.1814798605	-0.4372647913	-2.5599688656	-0.116279
C	 0.3128645161	-1.4349227927	-3.5938794767	-0.262928
C	-1.1584756413	-1.1920809242	-3.4457131918	-0.262897
H	 0.5051998928	 1.595247713	 0.956580609	 0.313651
H	-0.0300523862	 0.6134997354	-2.7779531846	 0.114435
H	 0.8246903947	-1.0346343027	-4.4613898758	 0.125221
H	 0.7114857948	-2.3706683338	-3.2198167404	 0.13826
H	-1.7535091137	-1.9638157302	-2.9715760168	 0.138238
H	-1.6744714191	-0.6221240565	-4.2096948734	 0.125228
57.7028	148.243	155.5795	273.193	288.4695	319.0732	436.8426	512.8135	609.113	685.0421	716.399	736.244	770.6739	804.6741	822.7911	905.5941	914.5558	1009.3651	1066.5297	1076.4097	1089.3132	1127.7524	1134.9913	1204.1858	1213.7939	1235.9354	1300.705	1391.8825	1433.4689	1464.6668	1466.7951	1498.3898	1709.6864	3142.7323	3145.7487	3182.6026	3227.3267	3242.1787	3812.1811
OC1=C(ON=N1)C1CC1	Oc1c(onn1)C1CC1	
InChI=1S/C5H6N2O2/c8-5-4(3-1-2-3)9-7-6-5/h3,8H,1-2H2	InChI=1S/C5H6N2O2/c8-5-4(3-1-2-3)9-7-6-5/h3,8H,1-2H2
