20
gdb 14965	4.09856	1.3741	1.13712	1.2337	77.81	-0.2339	0.0263	0.2602	1116.9307	0.178093	-349.018141	-349.00995	-349.009006	-349.05101	30.648	
C	-0.2047403887	 1.5486280567	 0.0201789862	-0.371846
C	 0.0512569658	 0.0302403681	 0.0134615984	-0.275113
C	 0.8025427964	-0.4563602753	-1.2012049373	 0.29435
C	 2.0783937314	-0.8446576021	-1.1673347689	-0.161965
C	 2.7994142227	-1.3606655736	-2.3846552161	-0.249883
C	 1.7866546337	-1.7348092695	-3.4679422917	-0.07773
O	 0.833265598	-0.7017543163	-3.6474607801	-0.244857
C	 0.0308377727	-0.5041979312	-2.5013908653	-0.152861
H	 0.7397413861	 2.1005969317	-0.0079445705	 0.122348
H	-0.8013967263	 1.8659463599	-0.8407106951	 0.119747
H	-0.7463161049	 1.8454867027	 0.9237985403	 0.11343
H	 0.6125342578	-0.2437568532	 0.9134793723	 0.10218
H	-0.9139947317	-0.4919857382	 0.0801558101	 0.098996
H	 2.6317444845	-0.8000392289	-0.2312835654	 0.076138
H	 3.4982662328	-0.6036266259	-2.7670889846	 0.112624
H	 3.4073775364	-2.2380595293	-2.1285496562	 0.099643
H	 2.2684877449	-1.8788801405	-4.4390992488	 0.103751
H	 1.2814083215	-2.6767202914	-3.195286229	 0.086144
H	-0.7442245324	-1.2921353463	-2.4306206745	 0.091176
H	-0.5006283407	 0.4395446726	-2.6695951337	 0.113727
59.5486	112.7379	199.0488	213.6782	274.3687	334.0939	352.6772	451.9656	512.5853	532.7421	634.4352	779.01	810.048	866.6918	892.1276	932.4946	948.155	979.5953	1026.555	1047.4572	1072.0098	1097.0964	1104.6226	1145.5591	1182.9076	1228.3775	1263.3036	1279.7273	1316.2198	1348.9046	1356.6155	1364.6445	1401.732	1408.1135	1422.2804	1472.0124	1479.1722	1484.2732	1498.9251	1500.8251	1506.4592	1739.8306	2915.9879	2964.9013	3006.6152	3009.3223	3037.1923	3044.2427	3054.3725	3061.4131	3086.162	3106.6324	3111.959	3141.2107
CCC1=CCCOC1	CCC1=CCCOC1	
InChI=1S/C7H12O/c1-2-7-4-3-5-8-6-7/h4H,2-3,5-6H2,1H3	InChI=1S/C7H12O/c1-2-7-4-3-5-8-6-7/h4H,2-3,5-6H2,1H3
