18
gdb 114380	2.46847	1.39519	1.10704	1.7678	72.76	-0.2435	-0.0465	0.1971	1135.7668	0.146892	-439.027447	-439.01859	-439.017646	-439.061811	31.905	
O	-0.0797673643	 1.5949641786	-0.0817228669	-0.419283
C	 0.0670100692	 0.1867855939	 0.0557832029	-0.114725
C	-1.284965395	-0.5153694534	-0.0085606808	 0.007601
C	-2.0906354157	-0.6556078125	-1.3323897012	-0.203256
N	-2.3202933146	-2.1350274175	-1.0837384917	-0.143319
C	-1.0094137011	-2.8298717192	-1.1066942837	-0.085684
C	 0.1237764309	-2.5858359782	-2.0416280547	 0.143412
O	 0.3999884022	-1.5621425026	-2.6242698934	-0.267867
C	-1.4067517457	-2.0342022384	 0.1041032534	-0.091564
H	-0.2407487118	 1.7798856932	-1.0122267144	 0.28896
H	 0.7604545816	-0.2120734183	-0.6906768602	 0.118117
H	 0.509549351	 0.0237806198	 1.045739429	 0.106617
H	-1.9269364597	-0.0602132174	 0.7519807255	 0.100463
H	-3.0562408663	-0.1485554473	-1.3208064246	 0.117832
H	-1.5658570234	-0.4446166689	-2.262743724	 0.138309
H	-1.1623502728	-3.8973095588	-0.9561920322	 0.108668
H	 0.7440144775	-3.497948686	-2.1930801996	 0.08972
H	-1.605104882	-2.5764164669	 1.0249629966	 0.106
56.9876	68.6293	140.6118	177.6521	242.1758	272.8581	306.8015	362.3887	432.0648	488.7449	688.2452	733.6375	741.06	821.8727	855.7881	895.9228	905.3871	956.4973	1007.6131	1040.6322	1054.5412	1071.4911	1074.7437	1116.3289	1148.3769	1181.8456	1237.717	1243.9011	1258.8996	1291.3266	1344.7424	1366.7693	1404.3608	1412.3864	1424.6103	1442.2911	1489.4361	1504.453	1801.3304	2877.7268	3037.8511	3059.9012	3090.1043	3093.8056	3126.4874	3146.1857	3158.2649	3822.624
OCC1CN2C(C=O)C12	OC[C@H]1CN2[C@@H](C=O)[C@@H]12	
InChI=1S/C6H9NO2/c8-2-4-1-7-5(3-9)6(4)7/h3-6,8H,1-2H2	InChI=1S/C6H9NO2/c8-2-4-1-7-5(3-9)6(4)7/h3-6,8H,1-2H2/t4-,5+,6-,7?/m1/s1
