18
gdb 51598	3.88041	0.71567	0.65071	4.6927	76.3	-0.25	-0.0228	0.2272	1684.8656	0.145088	-439.069207	-439.059583	-439.058639	-439.105726	33.022	
N	-0.2547266212	 1.249524338	 0.1976630103	-0.432823
C	-0.2929513374	 0.0000980543	 0.3581592728	 0.128302
O	-0.9070874494	-0.7745243218	-0.5673146108	-0.1866
C	-0.8807200984	-2.1593995097	-0.3303867773	 0.090322
C	-1.8539653211	-2.7479447325	 0.656780834	-0.324821
C	-2.0578223862	-2.9384214791	-0.8371412587	-0.054196
C	-3.1948339118	-2.2417622988	-1.5613370436	-0.298227
C	-4.5195884476	-2.9386847959	-1.3292775199	 0.165173
O	-5.2757067851	-3.2854466139	-2.1989050326	-0.236405
H	 0.2386152399	 1.6853188057	 0.9740297749	 0.232841
H	 0.1270967057	-0.5731839459	 1.1944795201	 0.093624
H	 0.1084485768	-2.5998768164	-0.4281173117	 0.112121
H	-1.5420154179	-3.5922617671	 1.2609075049	 0.125839
H	-2.5114295249	-2.0463964561	 1.1596100625	 0.131122
H	-1.8183482767	-3.9250482978	-1.2234022286	 0.108187
H	-3.2824873869	-1.2134958116	-1.1881453952	 0.142752
H	-3.0121112826	-2.188977958	-2.638371783	 0.129688
H	-4.7593325051	-3.1182757834	-0.2552528781	 0.073101
42.8494	61.0156	83.5518	89.1118	128.7762	205.2257	273.3117	351.8172	450.7506	495.5795	561.6782	616.928	766.1464	805.8649	823.5193	837.2423	918.24	946.2816	996.0823	1038.7832	1047.5292	1060.5691	1078.1559	1097.2487	1132.7415	1159.2391	1184.1496	1241.7929	1248.1374	1284.3468	1293.4669	1374.2358	1410.0457	1418.6658	1426.1316	1459.3419	1482.3066	1748.3514	1836.9028	2861.2023	3039.7962	3040.2296	3101.9416	3132.2997	3136.7129	3152.3662	3225.677	3519.8613
N=COC1CC1CC=O	[NH][CH]O[C@H]1C[C@H]1CC=O	
InChI=1S/C6H9NO2/c7-4-9-6-3-5(6)1-2-8/h2,4-7H,1,3H2	InChI=1S/C6H9NO2/c7-4-9-6-3-5(6)1-2-8/h2,4-7H,1,3H2/t5-,6+/m1/s1
