19
gdb 100340	2.62238	1.09726	0.94619	6.8398	71.58	-0.2499	0.0309	0.2808	1285.3439	0.15809	-456.338439	-456.328066	-456.327122	-456.373893	37.559	
N	-0.1246605974	 1.4747821598	-0.0776072437	-0.528414
C	-0.0357729042	 0.0159435783	-0.0550050002	 0.225801
C	 0.7690560104	-0.5273014265	 1.1423859666	-0.131637
O	 0.0097515249	-0.2608824758	 2.3175456131	-0.435155
C	-1.4879154837	-0.516745689	 0.0036478872	-0.077196
O	-1.5478214143	-1.9061823998	 0.2774276677	-0.430292
C	 0.6606378767	-0.4947608568	-1.3372923081	-0.386535
C	 0.125929815	 0.0777826554	-2.5708139094	 0.284792
N	-0.2786543099	 0.5063488514	-3.5644398538	-0.315564
H	-0.4206469672	 1.7984229883	 0.8391913182	 0.239942
H	 0.7841675855	 1.8925064006	-0.2580067756	 0.226574
H	 0.9466593951	-1.6062678988	 1.0291049592	 0.099185
H	 1.7454779303	-0.0207734574	 1.1745305944	 0.088997
H	 0.5456874654	-0.4754061103	 3.0864151652	 0.297393
H	-2.043795578	 0.062777543	 0.7494948023	 0.105157
H	-1.9656692548	-0.3522981415	-0.9659301858	 0.137519
H	-1.4144161506	-2.0027873411	 1.2266055278	 0.291631
H	 1.7368812767	-0.2831070724	-1.2992522817	 0.137355
H	 0.54567949	-1.5831790774	-1.3800180632	 0.170449
63.5134	72.7732	128.5007	146.5977	216.7878	280.1704	295.9403	310.4497	331.9201	347.6821	396.564	406.0626	438.6139	474.5375	525.9437	637.0851	786.1055	855.9955	877.7264	930.9681	948.1929	981.1329	1035.485	1072.7255	1084.5339	1126.0065	1178.2299	1211.3299	1219.7099	1253.7913	1312.9203	1343.875	1366.7257	1407.6449	1409.1137	1450.3275	1465.5331	1496.1204	1515.9493	1658.1463	2365.2592	2982.8151	3023.9547	3032.3503	3040.3508	3085.0545	3103.9023	3484.6382	3567.0476	3809.6853	3837.1352
NC(CO)(CO)CC#N	NC(CO)(CO)CC#N	
InChI=1S/C5H10N2O2/c6-2-1-5(7,3-8)4-9/h8-9H,1,3-4,7H2	InChI=1S/C5H10N2O2/c6-2-1-5(7,3-8)4-9/h8-9H,1,3-4,7H2
