22
gdb 62654	2.4843	1.62208	1.45212	1.8249	86.13	-0.2216	0.0834	0.305	1071.391	0.192745	-367.131411	-367.122463	-367.121519	-367.164117	35.474	
C	-0.0975107709	 1.5363863162	-0.0121013162	-0.457823
C	-0.0483560305	 0.013788444	 0.0550799296	 0.300753
C	-1.3845335855	-0.5785535587	-0.3796475348	-0.457824
N	 1.163406935	-0.5970311415	-0.673175486	-0.19626
C	 2.0633890197	-0.2707411018	 0.5514922348	-0.047733
C	 2.6104416973	-1.6968536536	 0.5882649614	-0.280055
C	 1.1189320883	-1.8227624822	 0.2817338784	-0.047741
C	 0.7015686268	-0.6468256789	 1.2302717099	 0.296584
C	 0.3572563789	-0.6923463477	 2.6977342929	-0.533649
H	 0.8348957744	 2.0044008534	 0.3124600712	 0.113385
H	-0.2960371765	 1.8619968312	-1.0390249341	 0.123731
H	-0.9036059024	 1.9236289045	 0.6208140397	 0.112735
H	-1.6062623099	-0.2900665232	-1.4129029802	 0.123722
H	-1.400741071	-1.6697367695	-0.3265964153	 0.113394
H	-2.1963526553	-0.2013245954	 0.2520011118	 0.112737
H	 2.6086415817	 0.6719728932	 0.608383394	 0.07899
H	 3.2919494343	-1.9708544001	-0.2213751435	 0.105767
H	 2.9563447746	-2.0751094207	 1.5534599722	 0.095452
H	 0.5480319696	-2.7142333794	 0.0198199803	 0.078991
H	 1.1094440789	-1.2498978732	 3.267013645	 0.12074
H	 0.299722816	 0.3168936957	 3.1206485548	 0.122052
H	-0.6114442734	-1.1780101122	 2.860469624	 0.122051
154.3655	181.5701	192.1909	195.7025	227.9011	265.7343	310.694	328.7218	376.6947	513.8605	537.3204	607.6204	627.6419	728.5853	817.6437	836.6636	860.3303	874.1636	898.2675	928.6724	943.4852	959.1506	996.4826	1018.1185	1020.5443	1082.6975	1122.5964	1141.242	1141.9719	1162.5206	1178.1956	1210.7218	1232.6725	1254.5312	1260.2344	1292.4291	1365.8182	1402.9851	1405.7388	1417.6139	1479.4377	1481.4151	1487.6426	1488.1969	1494.5361	1503.8557	1508.2892	3023.8712	3031.6772	3037.3707	3056.6467	3090.3952	3091.8081	3092.1457	3098.249	3099.1155	3105.7586	3119.1924	3120.1067	3121.2723
CC1(C)N2C3CC2C13C	CC1(C)N2[C@@H]3C[C@H]2[C@]13C	
InChI=1S/C8H13N/c1-7(2)8(3)5-4-6(8)9(5)7/h5-6H,4H2,1-3H3	InChI=1S/C8H13N/c1-7(2)8(3)5-4-6(8)9(5)7/h5-6H,4H2,1-3H3/t5-,6+,8-
