22
gdb 112438	2.21831	1.27987	0.961	2.6256	82.55	-0.2098	-0.0166	0.1932	1334.5602	0.19309	-404.371313	-404.361591	-404.360647	-404.406644	36.097	
C	-0.3680849029	 1.4334926369	 0.1861922385	-0.376954
C	-0.550222025	 0.0135816495	-0.349781721	-0.132682
N	 0.6463079357	-0.4767855941	-1.035431494	-0.068292
C	 0.8510377537	 0.1038672199	-2.3629645897	-0.295234
C	 0.5360074607	-0.993949575	-3.3938271857	 0.394293
O	 0.5833604449	-0.8695448194	-4.5889661709	-0.30757
C	 0.170029177	-2.2501879818	-2.6062435515	-0.333527
C	 0.7123920024	-1.9534460732	-1.1934279142	 0.022312
C	 2.1501094438	-2.4504396684	-1.0117917559	-0.385262
H	 0.4945195619	 1.4777823026	 0.8571848532	 0.124331
H	-0.2042143396	 2.1561121848	-0.6196095368	 0.118233
H	-1.260132578	 1.7504747422	 0.7358553426	 0.112662
H	-0.74135097	-0.6575962391	 0.4941602518	 0.102427
H	-1.4532132259	-0.0231046555	-0.9906140193	 0.076122
H	 0.2061014176	 0.9697495902	-2.5429215963	 0.131001
H	 1.8835764163	 0.4438432335	-2.5202908431	 0.130842
H	-0.9240441908	-2.33607346	-2.6029956232	 0.129365
H	 0.5700353677	-3.1472975369	-3.0836773882	 0.127914
H	 0.0845586781	-2.4092414069	-0.4234554435	 0.077062
H	 2.8158936848	-2.0303176065	-1.7742680505	 0.118735
H	 2.5334513373	-2.153673218	-0.0322966353	 0.121857
H	 2.1975180103	-3.5415086051	-1.0940518371	 0.112366
39.2428	78.4502	96.3627	205.9739	233.8682	236.7792	310.3207	317.722	419.0855	441.4756	454.369	492.7442	598.2644	681.7138	753.9074	782.8954	812.238	829.3091	884.151	923.9843	979.473	1010.1365	1059.1577	1073.2083	1092.6389	1113.2518	1125.4843	1161.0244	1209.6574	1214.7905	1248.209	1273.3343	1292.7404	1328.6398	1343.1648	1372.1267	1400.561	1404.2602	1422.3478	1448.3155	1465.8677	1488.6545	1490.9358	1492.7833	1494.0986	1511.1474	1852.1324	2905.2654	3016.6203	3031.4781	3037.4689	3038.2873	3057.3557	3071.7017	3079.952	3099.3287	3106.4218	3112.4967	3118.2234	3121.2484
CCN1CC(=O)CC1C	CCN1CC(=O)C[C@H]1C	
InChI=1S/C7H13NO/c1-3-8-5-7(9)4-6(8)2/h6H,3-5H2,1-2H3	InChI=1S/C7H13NO/c1-3-8-5-7(9)4-6(8)2/h6H,3-5H2,1-2H3/t6-/m1/s1
