17
gdb 128603	2.17662	1.46193	0.93486	4.1063	71.74	-0.2139	0.0178	0.2316	1241.4076	0.136585	-455.140812	-455.131787	-455.130843	-455.175646	32.111	
C	-0.0033721636	 1.455628217	 0.032846906	-0.24843
O	-0.0411311657	 0.0418540966	 0.0187115037	-0.258552
C	 0.577159861	-0.5463247372	-1.0302319769	 0.23254
C	 1.2424946383	 0.0052288591	-2.1086790819	-0.167402
N	 1.659547699	-1.0595852051	-2.8529703709	-0.191799
N	 1.3035405542	-2.2427280977	-2.337148326	-0.282142
C	 0.6395988787	-1.9506470545	-1.2173544935	 0.205095
C	 0.1327060308	-3.0318387463	-0.3156501935	-0.156845
O	 1.0758367814	-3.4047220797	 0.6871376738	-0.417994
H	 1.0307788206	 1.8249762059	 0.0695901292	 0.120201
H	-0.4997573707	 1.8764400265	-0.8527538741	 0.118343
H	-0.5334362708	 1.776301091	 0.9308128049	 0.138566
H	 1.4444606554	 1.0217656588	-2.3998369092	 0.132648
H	 2.1619299645	-1.0360800941	-3.7231415425	 0.274598
H	-0.7497422831	-2.6815147078	 0.2263223944	 0.118765
H	-0.1594600607	-3.8964442331	-0.9280559141	 0.100669
H	 1.8832586308	-3.6556578895	 0.2258688406	 0.281738
33.1145	85.425	153.7145	182.5294	212.606	287.8585	319.5887	364.0407	423.8547	469.9806	520.4397	635.3177	660.3232	720.2843	744.6506	804.5691	936.2063	966.6036	1041.5488	1066.905	1083.1841	1171.5302	1181.3423	1217.7915	1227.5883	1245.7984	1330.9186	1369.6155	1410.6207	1432.4885	1471.9743	1477.2408	1486.0944	1494.2066	1506.0455	1535.8603	1625.538	2994.2513	3008.0543	3049.3063	3097.8029	3137.2463	3278.0274	3681.2445	3810.5721
COC1=CNN=C1CO	COc1c[nH]nc1CO	
InChI=1S/C5H8N2O2/c1-9-5-2-6-7-4(5)3-8/h2,8H,3H2,1H3,(H,6,7)	InChI=1S/C5H8N2O2/c1-9-5-2-6-7-4(5)3-8/h2,8H,3H2,1H3,(H,6,7)
