18
gdb 86272	1.84513	1.65354	1.15559	3.5636	72.69	-0.2736	0.0075	0.2811	1139.1158	0.145906	-439.087521	-439.077988	-439.077043	-439.121673	35.052	
C	 0.0845938262	 1.5724291362	-0.0580332552	-0.410419
C	 0.0763722488	 0.0539372489	 0.003941687	 0.000433
C	 1.0037305042	-0.7606837034	-0.9416205516	-0.302476
C	 1.2932334559	-1.7406921277	 0.2243978606	 0.116132
O	 2.5921049215	-2.1984902816	 0.4444715532	-0.428716
C	 0.7648848516	-0.6385909693	 1.2232072733	 0.206559
O	 1.8404294243	 0.1580337047	 1.6870032668	-0.466935
C	-0.0919538199	-1.0721531648	 2.3269711423	 0.215024
N	-0.7659720949	-1.4438245666	 3.1902751833	-0.335723
H	 1.0961675432	 1.9650759749	 0.0683223288	 0.134933
H	-0.2987871305	 1.9102404936	-1.026262727	 0.121192
H	-0.5469997876	 2.0054387881	 0.7239397675	 0.130754
H	-0.9480842404	-0.3235989121	-0.0639502111	 0.099994
H	 0.5665485479	-1.1773410835	-1.850351845	 0.114025
H	 1.9009576116	-0.1932720646	-1.2088768923	 0.108504
H	 0.6399660074	-2.6156920926	 0.2122215608	 0.115035
H	 3.1673942434	-1.4239496695	 0.432389043	 0.28362
H	 2.3042122775	-0.3460420207	 2.3667941256	 0.298064
88.9491	121.3647	141.6504	178.1372	214.916	241.0359	255.2125	326.5007	389.1348	467.5612	506.755	516.8151	545.8635	593.6677	612.2383	728.8452	846.5704	903.8935	922.3405	941.9374	1005.5554	1067.7869	1098.873	1100.1808	1158.8823	1170.0981	1183.6272	1236.7047	1254.3354	1306.4815	1322.8425	1340.5586	1383.8969	1409.1995	1438.6677	1482.6712	1491.1956	1499.3529	2343.9652	3041.5376	3057.0209	3068.2304	3098.367	3106.4496	3125.5175	3130.4521	3787.6048	3792.029
CC1CC(O)C1(O)C#N	C[C@H]1C[C@@H](O)[C@]1(O)C#N	
InChI=1S/C6H9NO2/c1-4-2-5(8)6(4,9)3-7/h4-5,8-9H,2H2,1H3	InChI=1S/C6H9NO2/c1-4-2-5(8)6(4,9)3-7/h4-5,8-9H,2H2,1H3/t4-,5+,6-/m0/s1
