20
gdb 108127	3.20106	1.55709	1.37648	2.5637	77.53	-0.2379	0.0826	0.3205	1008.4998	0.174023	-403.094232	-403.087071	-403.086127	-403.125652	29.775	
O	 0.0431661428	 1.368166223	 0.2355049974	-0.420396
C	 0.0370820236	 0.0009627555	-0.1314043931	-0.164981
C	-1.3724483182	-0.5376149927	-0.133006795	 0.329606
C	-2.5059780404	 0.1031569426	-0.9376973154	-0.278466
C	-3.3589676303	-0.5494678762	 0.1673768187	-0.001444
C	-3.2009730706	-2.0526770136	-0.168917948	-0.225173
C	-1.6911549042	-2.0693415974	 0.1474009261	-0.114451
C	-1.7438736928	-1.6520372061	 1.6292155223	-0.175185
N	-2.1907028639	-0.2986400511	 1.1543741434	-0.191724
H	-0.5840648191	 1.4386075491	 0.9686920274	 0.290273
H	 0.4688564284	-0.06957585	-1.1369438478	 0.108572
H	 0.677519894	-0.5969919749	 0.5378409531	 0.08436
H	-2.4515791349	 1.1896637509	-0.8553408124	 0.11813
H	-2.6797661821	-0.2017882757	-1.9722222909	 0.094229
H	-4.3353546976	-0.1703338295	 0.46501726	 0.075613
H	-3.7691153606	-2.7302597408	 0.4741448939	 0.098187
H	-3.4524508258	-2.2676479888	-1.2104170448	 0.099527
H	-1.0834039692	-2.8934418245	-0.2287064123	 0.064696
H	-2.4333225782	-2.1806934224	 2.2952964442	 0.098758
H	-0.771079911	-1.5532136276	 2.1161771435	 0.10987
101.0975	173.0612	290.4736	350.2453	438.4982	468.4263	485.8979	508.802	635.4274	688.2411	734.3498	790.6992	830.4711	852.6102	883.686	906.1092	935.6873	937.4481	976.5139	985.98	1015.7708	1028.2687	1054.1078	1080.7868	1086.4982	1129.642	1143.7159	1174.2733	1186.1194	1218.8109	1231.1898	1247.2547	1256.3649	1272.6283	1289.85	1303.9976	1333.2259	1369.2427	1444.2275	1483.8009	1495.5683	1508.4482	1524.3354	2966.1939	3050.1438	3053.6455	3060.0418	3070.4451	3103.5255	3106.6398	3114.5527	3127.6411	3139.4488	3743.2164
OCC12CC3CC1CN23	OC[C@@]12C[C@H]3C[C@@H]1CN23	
InChI=1S/C7H11NO/c9-4-7-2-6-1-5(7)3-8(6)7/h5-6,9H,1-4H2	InChI=1S/C7H11NO/c9-4-7-2-6-1-5(7)3-8(6)7/h5-6,9H,1-4H2/t5-,6-,7+/m1/s1
