17
gdb 16580	3.19334	1.89212	1.52366	2.3746	69.14	-0.2261	-0.0202	0.2059	898.1506	0.14096	-363.831179	-363.823219	-363.822275	-363.86338	29.283	
C	-0.0547791659	 1.5486027548	 0.0753729098	-0.40796
C	-0.0188898167	 0.0239418583	-0.0206116893	-0.146022
C	 0.7565356628	-0.5588938795	-1.2225696778	-0.03873
C	 1.8350346037	-1.17627917	-0.3232799949	-0.18184
N	 0.9373719615	-1.9776259264	-1.1476706203	-0.080071
C	-0.0444524813	-2.8987345788	-0.582143613	-0.321341
C	 1.1108656148	-0.5780348703	 0.8660038507	 0.408084
O	 1.4012935397	-0.4217329982	 2.0181562057	-0.317938
H	 0.9342290318	 1.9830392168	-0.1050436557	 0.123954
H	-0.748861533	 1.9699262777	-0.6585382808	 0.121073
H	-0.3783421029	 1.8574752107	 1.0730189873	 0.139728
H	-1.0213087885	-0.3897132751	 0.1254917426	 0.095411
H	 0.9166635636	-0.054532356	-2.1698780937	 0.108528
H	 2.9063658953	-1.288424149	-0.4520392814	 0.111074
H	-0.573894341	-2.5399264572	 0.3096201783	 0.120482
H	-0.7842017956	-3.1283428634	-1.354972987	 0.130077
H	 0.4722649118	-3.8260678145	-0.3203789803	 0.135491
101.6065	141.9352	186.5626	208.9828	216.8698	320.3931	377.9942	449.6047	540.7658	643.7546	708.4795	752.8826	809.8607	878.3915	902.4982	927.8974	966.877	1038.5636	1044.4711	1094.2371	1099.102	1118.4866	1159.7536	1178.9062	1216.5545	1235.6434	1259.987	1334.2075	1358.5589	1409.8262	1453.7176	1494.0561	1494.4823	1497.1694	1498.3491	1875.056	3013.3	3036.7072	3058.607	3086.134	3104.805	3116.3947	3118.6045	3166.5358	3176.636
CC1C2C(N2C)C1=O	C[C@H]1[C@H]2[C@H](N2C)C1=O	
InChI=1S/C6H9NO/c1-3-4-5(6(3)8)7(4)2/h3-5H,1-2H3	InChI=1S/C6H9NO/c1-3-4-5(6(3)8)7(4)2/h3-5H,1-2H3/t3-,4-,5-,7?/m0/s1
