20
gdb 63832	2.62104	1.58756	1.24261	3.5327	79.23	-0.2347	-0.0005	0.2342	1085.9715	0.170132	-403.152657	-403.144048	-403.143103	-403.18547	33.561	
C	-0.232496837	 1.5871155249	 0.013858177	-0.433338
C	-0.0281451058	 0.0802887682	-0.0216223443	 0.314954
C	-1.3504448874	-0.6612120513	-0.1907153541	-0.419445
C	 1.1088780963	-0.4641631452	-0.9570119199	-0.303542
C	 1.7028277584	-1.2026756852	 0.2691621729	 0.030596
C	 2.8784482912	-0.5722587964	 1.0482676412	-0.386416
C	 1.7774537592	 0.2447186129	 1.7661508141	 0.389372
O	 1.7541737002	 1.1960768811	 2.4932448849	-0.330787
N	 0.723752236	-0.5006804877	 1.1729131486	-0.171332
H	 0.7098952117	 2.1281899289	 0.1244206887	 0.128729
H	-0.7098242868	 1.9125840143	-0.9167079787	 0.11541
H	-0.8800976598	 1.8727030245	 0.8482121516	 0.137086
H	-1.8221926086	-0.387164434	-1.1409247221	 0.114288
H	-1.1996209062	-1.7446681952	-0.1825708925	 0.118116
H	-2.037176526	-0.4091711783	 0.622761696	 0.127826
H	 0.7783686649	-1.0973606856	-1.7832846527	 0.107838
H	 1.7582855163	 0.3223882421	-1.352297711	 0.10753
H	 1.6502143518	-2.2927630265	 0.2507599167	 0.085464
H	 3.4393544103	-1.2594183036	 1.6868842523	 0.134482
H	 3.5814826214	 0.0411352222	 0.4799083314	 0.133168
88.8729	155.4203	204.325	234.7745	264.5742	324.9812	353.2252	375.0914	419.9112	489.1702	532.7194	601.1127	692.5226	750.0728	805.2702	861.8089	871.9263	934.746	948.6457	977.7633	981.0391	997.6092	1030.9011	1048.5017	1085.9635	1126.8567	1166.1408	1171.0616	1215.459	1235.8716	1253.316	1266.8198	1294.1607	1345.7733	1404.9483	1421.0074	1443.6355	1475.1878	1479.5197	1484.3777	1496.0688	1503.6262	1876.6596	3032.2751	3040.7211	3057.1614	3070.1816	3088.8999	3103.3786	3109.7226	3113.3135	3117.6211	3126.3848	3128.3869
CC1(C)CC2CC(=O)N12	CC1(C)C[C@H]2CC(=O)N12	
InChI=1S/C7H11NO/c1-7(2)4-5-3-6(9)8(5)7/h5H,3-4H2,1-2H3	InChI=1S/C7H11NO/c1-7(2)4-5-3-6(9)8(5)7/h5H,3-4H2,1-2H3/t5-/m1/s1
