19
gdb 34296	3.21133	1.45355	1.28461	1.6922	80.21	-0.2541	0.0339	0.288	1051.6182	0.161058	-385.875097	-385.867491	-385.866546	-385.906917	30.897	
C	 0.0086857949	-1.1419460667	-0.03275526	-0.350158
C	-0.0102538861	 0.0592991918	-0.0235922079	 0.115007
C	-0.0054149231	 1.5070497303	 0.037659295	 0.295684
C	-0.8117120434	 2.1225461889	 1.2197109389	-0.259964
C	-1.1507500372	 3.5312276309	 0.6543215902	-0.221457
C	-0.4711445591	 3.4665227533	-0.7312990683	 0.071217
C	 1.0614629414	 3.575596349	-0.5725981386	-0.221443
C	 1.4047294723	 2.1670710474	-0.009396974	-0.259969
O	-0.6535585596	 2.0952533397	-1.1098117317	-0.289247
H	 0.0193315586	-2.2035922242	-0.0516834731	 0.186348
H	-1.7109753836	 1.5321173209	 1.4018816699	 0.117064
H	-0.2273681248	 2.14728346	 2.1421435276	 0.10467
H	-2.2296289842	 3.6632680172	 0.5473266713	 0.108377
H	-0.7686649899	 4.3485061944	 1.2714411173	 0.098757
H	-0.9071635892	 4.1113923651	-1.4941394343	 0.076247
H	 1.537439539	 3.7386707773	-1.541988748	 0.108376
H	 1.357618398	 4.391243459	 0.0920674534	 0.098756
H	 1.8768830046	 2.1896736496	 0.9752438192	 0.10467
H	 2.0532288913	 1.6076396362	-0.685365107	 0.117066
119.5405	153.963	172.3664	318.3503	385.6699	483.0997	518.9419	524.7175	569.2022	587.5323	620.1654	670.0078	758.4784	810.3323	826.2689	832.1132	869.1918	932.2716	945.4196	952.2959	978.0159	990.7017	1023.5121	1063.4073	1091.4344	1176.3202	1178.111	1193.8984	1219.4837	1246.6259	1251.5498	1300.6202	1314.0797	1329.9768	1332.1315	1349.0967	1478.0907	1491.2282	1495.3802	1513.5591	2245.7617	3062.7732	3065.8438	3075.7931	3080.1978	3104.7942	3107.9698	3122.5657	3127.0322	3133.2737	3503.237
C#CC12CCC(CC1)O2	C#C[C@@]12CC[C@@H](CC1)O2	
InChI=1S/C8H10O/c1-2-8-5-3-7(9-8)4-6-8/h1,7H,3-6H2	InChI=1S/C8H10O/c1-2-8-5-3-7(9-8)4-6-8/h1,7H,3-6H2/t7-,8+
