18
gdb 10539	2.94846	1.40305	1.06801	1.6257	74.28	-0.2602	0.026	0.2862	1156.5092	0.150988	-347.753387	-347.744404	-347.74346	-347.787172	32.665	
C	-0.0998461246	 1.5824605074	 0.1219906438	-0.383712
C	-0.1668786469	 0.0554515948	 0.1974210074	-0.164232
C	 0.9525786697	-0.5425515061	 1.0589876382	-0.267817
C	 0.8806373627	-2.056795169	 1.1581345874	 0.211269
C	 1.185043568	-2.7391244123	 2.4335798011	-0.215904
O	-0.1640220591	-2.5603779312	 2.0176703874	-0.263873
C	 1.0646803055	-2.7881736142	-0.0760471968	 0.318268
C	 1.2344575414	-3.3676199927	-1.1155397743	-0.448133
H	 0.8486712852	 1.9183237246	-0.3122044295	 0.113627
H	-0.9087336559	 1.9838395303	-0.4960123054	 0.114683
H	-0.1859341278	 2.034464484	 1.1165063381	 0.114562
H	-1.1324158305	-0.2569553223	 0.6119931273	 0.113872
H	-0.1097044979	-0.3702301065	-0.811130001	 0.11084
H	 1.9318992567	-0.2629054802	 0.6501633879	 0.106328
H	 0.8976006445	-0.1352872437	 2.0750963345	 0.103269
H	 1.5504926693	-3.7642109288	 2.4168818904	 0.122071
H	 1.5011206566	-2.1386682657	 3.286161901	 0.115052
H	 1.3768754433	-3.8895351585	-2.0294574276	 0.199831
76.0345	86.2146	137.6305	186.256	230.4252	247.5274	326.569	368.7278	416.1495	551.9476	574.4457	621.1334	660.7198	714.03	746.0504	822.9493	885.3464	894.7862	927.4966	972.8296	1051.1081	1096.0442	1119.6613	1139.0992	1168.5341	1236.9371	1275.7579	1303.4589	1329.4388	1372.085	1400.688	1414.0761	1468.6012	1493.0359	1500.6257	1509.4799	1520.7503	2236.818	3024.7046	3028.717	3038.3462	3060.2495	3078.2237	3081.9041	3099.3192	3103.8974	3174.9323	3502.2973
CCCC1(CO1)C#C	CCC[C@]1(CO1)C#C	
InChI=1S/C7H10O/c1-3-5-7(4-2)6-8-7/h2H,3,5-6H2,1H3	InChI=1S/C7H10O/c1-3-5-7(4-2)6-8-7/h2H,3,5-6H2,1H3/t7-/m0/s1
