14
gdb 129382	4.30845	1.14283	0.90478	4.6015	67.77	-0.2417	-0.0485	0.1932	1203.6873	0.102669	-466.196294	-466.18827	-466.187326	-466.229019	30.009	
N	 0.1975440563	 0.4110599568	-1.2434530208	-0.549772
C	-0.0988801809	 0.1611853193	 0.0761674476	 0.233603
N	 0.4265390511	 0.6543476976	 1.1304885556	-0.496684
C	-1.2200859925	-0.7984780567	 0.2213982181	 0.482245
N	-1.7999777397	-1.4439591803	-0.7513547045	-0.384014
C	-2.7385942792	-2.1876381242	-0.074802278	 0.411841
N	-3.5517550983	-3.0809616293	-0.7199032366	-0.588977
N	-2.7453357475	-2.0069733487	 1.228692486	-0.199185
O	-1.7116028658	-1.0725366341	 1.4222505075	-0.188143
H	 1.0899574671	 0.8269885598	-1.4537007595	 0.254858
H	-0.1763756409	-0.230261883	-1.9264285027	 0.273385
H	 1.1864279877	 1.2964694851	 0.8978545532	 0.212407
H	-3.7427447141	-2.8480985078	-1.6821763422	 0.267882
H	-4.3641586934	-3.3700701244	-0.1960421536	 0.270552
66.4729	160.1632	180.449	310.1269	353.4173	377.4979	385.6788	412.613	472.2207	544.2458	567.8178	588.4441	642.0616	748.9881	771.2985	806.8137	874.8602	944.4126	1034.6328	1052.2477	1103.7816	1128.6655	1134.924	1295.0589	1413.1015	1471.2734	1570.7782	1616.7226	1625.5493	1657.7106	1725.769	3461.1932	3581.5793	3585.1656	3694.1753	3706.4923
NC(=N)C1=NC(N)=NO1	NC(=N)c1nc(N)no1	
InChI=1S/C3H5N5O/c4-1(5)2-7-3(6)8-9-2/h(H3,4,5)(H2,6,8)	InChI=1S/C3H5N5O/c4-1(5)2-7-3(6)8-9-2/h(H3,4,5)(H2,6,8)
