15
gdb 123927	3.48454	1.62912	1.1531	5.2576	67.39	-0.2365	-0.0243	0.2123	995.7787	0.114574	-453.935119	-453.9283	-453.927356	-453.966326	26.288	
C	-0.0131841629	 1.5080908965	 0.0058276828	-0.233489
C	 1.4067722184	 2.0794142246	 0.0403637061	-0.082023
O	 2.1589451125	 1.6617240787	 1.2124346919	-0.247955
C	 1.9507333593	 0.3879782299	 1.5106198079	 0.469597
C	 1.0062687261	-0.4620017107	 0.9897490797	 0.121376
C	-0.0138252658	-0.0376156935	-0.0124575522	-0.332077
N	 1.1957091866	-1.6531004834	 1.626226689	-0.165699
N	 2.1267399922	-1.6212430816	 2.4537615089	-0.044918
O	 2.6910189975	-0.2030561875	 2.4091956145	-0.250991
H	-0.5581278876	 1.8673079541	 0.8856542203	 0.129348
H	-0.5193935285	 1.9095139742	-0.8772472547	 0.119319
H	 1.9759637205	 1.7692638083	-0.8444555766	 0.12774
H	 1.4017150025	 3.1688940506	 0.0903763194	 0.136039
H	-1.0077674012	-0.4198162785	 0.2396602385	 0.131775
H	 0.2221376805	-0.4098551418	-1.0176056253	 0.121959
125.7087	216.146	308.1767	317.3547	331.5425	433.0591	477.388	548.4528	663.9509	693.3947	722.2555	751.2969	870.9416	886.6432	927.5381	970.9108	998.0195	1055.7999	1099.7925	1203.3444	1220.0828	1244.0946	1295.3685	1296.6737	1360.3666	1370.4411	1395.5316	1473.475	1475.1456	1481.5727	1501.9116	1516.8954	1636.1007	3023.1111	3038.6422	3050.8386	3079.8453	3100.1936	3130.3592
C1COC2=C(C1)N=NO2	C1COc2c(C1)nno2	
InChI=1S/C5H6N2O2/c1-2-4-5(8-3-1)9-7-6-4/h1-3H2	InChI=1S/C5H6N2O2/c1-2-4-5(8-3-1)9-7-6-4/h1-3H2
