14
gdb 127708	3.27136	1.4423	1.00734	7.1421	69.77	-0.2313	-0.0578	0.1735	1090.6271	0.10053	-469.999202	-469.991286	-469.990342	-470.031831	29.068	
C	-0.033291655	 1.4681367137	 0.0399752719	-0.325044
N	-0.0082750689	 0.0120599601	 0.078043738	-0.083887
N	-0.0441214031	-0.6085723807	-1.148447327	-0.046962
N	-0.0267884118	-1.8583959595	-1.2371355889	-0.238433
C	 0.0312159406	-2.7297206716	-0.0764209271	 0.436327
O	 0.0444963512	-3.9284333389	-0.2514335516	-0.356143
C	 0.0683196821	-2.0577232863	 1.1999141921	-0.449979
C	 0.0473094576	-0.7021227038	 1.2360841595	 0.560106
O	 0.076192007	 0.0717638744	 2.3366067171	-0.408217
H	 0.8684490774	 1.8828543483	 0.4971999116	 0.153793
H	-0.0799841719	 1.7458010807	-1.0122969161	 0.168402
H	-0.9083749183	 1.8539861081	 0.5685918125	 0.153843
H	 0.112379688	-2.6462025077	 2.1083114189	 0.116653
H	 0.1149519151	-0.4951952967	 3.116768679	 0.319541
83.7958	149.1205	183.7886	219.7943	317.6719	376.8502	419.4357	468.372	472.4734	552.8386	578.5031	689.5489	726.2709	756.9172	784.4921	836.0688	928.1239	945.4776	1154.2566	1176.8524	1185.9769	1255.0647	1270.7209	1277.9605	1439.1651	1482.5972	1498.7397	1505.6208	1560.3396	1678.3461	1795.3069	3056.7928	3124.579	3171.5765	3203.7281	3800.4783
CN1N=NC(=O)C=C1O	Cn1nnc(=O)cc1O	
InChI=1S/C4H5N3O2/c1-7-4(9)2-3(8)5-6-7/h2,9H,1H3	InChI=1S/C4H5N3O2/c1-7-4(9)2-3(8)5-6-7/h2,9H,1H3
