17
gdb 130460	3.63294	1.12893	0.89356	7.6118	71.16	-0.2228	0.025	0.2478	1263.8502	0.138358	-451.302781	-451.294632	-451.293688	-451.33619	29.91	
N	-1.4511987309	 1.0829641935	-0.4156277722	-0.505799
H	-2.6640764406	-0.4793695829	-0.2799062022	 0.283876
H	-0.6872026531	 1.03570665	-1.0814029005	 0.24983
H	-2.0530513536	 1.8425863571	-0.7205609283	 0.245906
C	-0.9369569242	 1.3523204387	 0.9374920913	-0.162506
C	-1.9564391224	 1.0429675165	 2.0373476448	-0.07879
O	-2.0512089515	-0.3489252555	 2.3653412488	-0.272627
C	-2.9650333025	-1.0990412606	 1.7170266666	 0.357144
C	-3.8291901656	-2.0636497425	 2.1816819153	-0.160897
N	-4.5008502305	-2.5763319424	 1.113364966	-0.191106
N	-4.1062794761	-1.9799559626	 0.0216135449	-0.137577
N	-3.1613311905	-1.0835865132	 0.3786798482	-0.227092
H	-0.0589998021	 0.7210871262	 1.1060027387	 0.135688
H	-0.6157186874	 2.3973660627	 1.0665858604	 0.103988
H	-1.6296300633	 1.5281479929	 2.9617588737	 0.126174
H	-2.9483755468	 1.4338029891	 1.7759235722	 0.115509
H	-3.9934664089	-2.4043734672	 3.1899090223	 0.11828
65.8935	93.7949	168.0946	219.7416	298.8298	304.8075	376.7579	422.0411	518.3285	649.4436	698.0336	723.7112	822.8347	839.9626	870.1847	883.5409	977.0635	989.5755	1001.4309	1041.918	1071.913	1097.7516	1103.5114	1134.732	1210.6325	1250.8758	1323.1712	1340.8259	1347.418	1381.5075	1420.8838	1422.3185	1445.3402	1484.3587	1488.7093	1637.3911	1657.5258	2987.6103	3026.6941	3087.5432	3097.1338	3279.4002	3387.929	3501.1503	3580.0404
[NH3+]CCOC1=CN=N[N-]1	NCCOc1cnn[nH]1	
InChI=1S/C4H7N4O/c5-1-2-9-4-3-6-8-7-4/h3H,1-2,5H2/q-1/p+1	InChI=1S/C4H8N4O/c5-1-2-9-4-3-6-8-7-4/h3H,1-2,5H2,(H,6,7,8)
