17
gdb 51600	2.47693	1.25312	1.01168	2.6087	71.62	-0.2545	0.0212	0.2757	1213.8867	0.134743	-455.102537	-455.093468	-455.092524	-455.137768	31.859	
N	-0.3418161172	 0.9622470673	-0.9518331222	-0.439517
C	-0.6681251887	-0.0438312667	-0.2661175184	 0.136698
O	-0.8053442668	-1.2480439101	-0.8699505042	-0.182323
C	-1.0185789205	-2.3523664293	-0.0356482889	 0.065057
C	-2.3096062216	-2.4610215034	 0.7499806579	-0.366405
C	-2.0970806113	-3.3005668184	-0.4837362805	 0.106199
O	-2.7180190041	-3.1350885389	-1.7353506958	-0.209486
C	-3.5933309353	-2.1691010169	-2.0625732571	 0.160016
N	-4.0883572309	-1.3013961577	-1.2879027676	-0.467804
H	-0.2957676767	 1.7855126602	-0.3548525468	 0.229509
H	-0.8720495872	-0.074567023	 0.811082782	 0.094587
H	-0.1031169539	-2.7720470705	 0.3751404605	 0.107039
H	-2.2836824029	-2.9762368141	 1.704701866	 0.119924
H	-3.0064618652	-1.6405069913	 0.6666543006	 0.18229
H	-1.9035274506	-4.3586046077	-0.3495340569	 0.117339
H	-3.8114582966	-2.2838199408	-3.1288069154	 0.112706
H	-4.7252803003	-0.7020724986	-1.807530523	 0.234173
36.9944	75.9884	109.2184	132.2235	194.437	271.4669	278.9321	372.8891	454.8318	578.4627	642.3308	733.5167	745.2927	809.4363	818.534	825.3817	879.0357	997.8345	1013.9865	1044.7701	1049.0136	1059.0433	1086.6402	1095.287	1131.1617	1172.4087	1191.2702	1250.6415	1292.1909	1343.8792	1378.054	1406.7079	1415.9302	1428.7017	1473.4315	1719.3092	1747.0845	3048.6451	3086.2324	3126.9928	3144.6812	3176.8473	3267.4882	3517.6107	3520.6694
N=COC1CC1OC=N	[NH][CH]O[C@H]1C[C@H]1O[CH][NH]	
InChI=1S/C5H8N2O2/c6-2-8-4-1-5(4)9-3-7/h2-7H,1H2	InChI=1S/C5H8N2O2/c6-2-8-4-1-5(4)9-3-7/h2-7H,1H2/t4-,5+
