21
gdb 83987	2.27724	1.65714	1.37102	1.1009	84.86	-0.2294	0.0169	0.2463	1075.3136	0.184419	-387.077255	-387.068949	-387.068004	-387.109925	32.536	
C	-0.4688419451	 1.1687557836	-0.1922902717	-0.408688
C	-0.0521494269	-0.2633306398	 0.0613662023	-0.019185
C	 0.6248538155	-1.1414380227	-0.9623724726	-0.060839
C	 0.9265923287	-0.7315504363	-2.3924022115	-0.114364
O	 1.4288937871	 0.5741788468	-2.576864208	-0.226062
C	 2.8027303236	 0.7403969124	-2.2781396414	-0.137734
C	 3.1391202447	 0.8758658117	-0.8152340775	-0.080773
C	 2.5434214741	 0.2788372951	 0.218994187	-0.044963
C	 1.4159608993	-0.6809696304	 0.2425607166	-0.095684
H	 0.2516920695	 1.6985279684	-0.8137979079	 0.144622
H	-1.4371639502	 1.2002919796	-0.704865358	 0.110738
H	-0.5805445693	 1.7083287411	 0.7548823987	 0.107393
H	-0.7343827372	-0.7950769407	 0.7213593288	 0.081944
H	 0.3299833686	-2.1896851582	-0.9288370852	 0.081667
H	 1.6259134949	-1.4643170543	-2.8314383297	 0.088185
H	 0.0011667167	-0.7758628607	-2.9797534282	 0.107802
H	 3.3823135032	-0.0867874892	-2.7279935177	 0.098566
H	 3.1074656808	 1.654636455	-2.7998365573	 0.110884
H	 3.9760141908	 1.5400062618	-0.6067407926	 0.084928
H	 2.9363314854	 0.5079534715	 1.2090111126	 0.085824
H	 1.5527874458	-1.4383290547	 1.0116877333	 0.085738
96.2036	145.8828	166.8762	215.7581	307.768	350.7899	371.4611	414.1327	496.7558	520.7133	696.5653	710.6416	737.6811	764.1041	792.2331	838.131	890.9868	944.7474	966.1696	999.0872	1007.0095	1027.2026	1048.4689	1093.7471	1098.3508	1126.6958	1148.029	1157.361	1183.9127	1252.7992	1273.0367	1283.5148	1338.2517	1381.8294	1382.987	1393.7846	1413.7376	1424.2097	1434.4216	1462.4818	1480.1612	1491.117	1497.6285	1506.2644	1730.5865	2935.4455	2952.5195	3032.2111	3045.3302	3056.2592	3082.3364	3105.745	3111.1181	3121.8229	3130.6013	3149.7419	3163.2069
CC1C2COCC=CC12	C[C@H]1[C@H]2COCC=C[C@@H]12	
InChI=1S/C8H12O/c1-6-7-3-2-4-9-5-8(6)7/h2-3,6-8H,4-5H2,1H3	InChI=1S/C8H12O/c1-6-7-3-2-4-9-5-8(6)7/h2-3,6-8H,4-5H2,1H3/t6-,7+,8-/m1/s1
