20
gdb 97466	11.93481	0.40346	0.39902	2.98	83.1	-0.2534	-0.028	0.2254	2651.9673	0.167125	-440.287548	-440.276536	-440.275592	-440.326315	36.118	
C	-0.0269512231	 1.4163676273	-0.1605885995	-0.315158
N	 0.0508580145	-0.0290187807	-0.1548560946	-0.202134
C	-1.021214564	-0.6657824077	 0.0000888181	 0.131692
O	-1.0277806508	-2.0154122973	-0.0046012194	-0.206224
C	-2.2805454726	-2.6381501252	 0.2703415619	-0.071803
C	-2.1298435406	-4.1261339546	-0.0101063662	-0.20947
C	-3.4264516753	-4.8997950167	 0.275414619	-0.2798
C	-3.2394877112	-6.3917569624	 0.1034306661	 0.161047
O	-3.9263282078	-7.0967620018	-0.5878541041	-0.23191
H	 0.618094072	 1.8221526705	 0.6269904293	 0.128936
H	 0.3550782112	 1.8014143082	-1.1129662195	 0.129517
H	-1.0452035553	 1.812584674	-0.0119591167	 0.095148
H	-2.0130576288	-0.2056318332	 0.1389412469	 0.071724
H	-2.5614601273	-2.4710311528	 1.3203504654	 0.108442
H	-3.0677412685	-2.2034036054	-0.3616078752	 0.110735
H	-1.8308127248	-4.2599927339	-1.0553246495	 0.130375
H	-1.3116742237	-4.5169454872	 0.6059106091	 0.124074
H	-3.7287717202	-4.7291118337	 1.3198122727	 0.122867
H	-4.2484427872	-4.5770202621	-0.3703615911	 0.126213
H	-2.3858972564	-6.8136828954	 0.6849461274	 0.07573
23.4941	49.9355	69.5138	79.2591	99.9517	148.3915	205.6245	213.2566	282.5088	308.6952	347.5006	484.7094	515.6526	616.7819	755.6042	814.5337	923.7685	980.9957	998.187	1027.5232	1060.8445	1070.142	1123.9376	1141.1853	1153.1481	1157.0566	1213.846	1247.6822	1265.2099	1295.1979	1321.4104	1358.1145	1397.0921	1427.7715	1436.7137	1451.3714	1464.6996	1480.6037	1497.7562	1505.1822	1521.2893	1783.0223	1840.1062	2854.9732	2964.8326	2980.1601	2996.2888	3006.6281	3031.3534	3043.9566	3058.5428	3078.3264	3083.2626	3101.7392
CN=COCCCC=O	CN=COCCCC=O	
InChI=1S/C6H11NO2/c1-7-6-9-5-3-2-4-8/h4,6H,2-3,5H2,1H3	InChI=1S/C6H11NO2/c1-7-6-9-5-3-2-4-8/h4,6H,2-3,5H2,1H3
