19
gdb 76475	3.12716	1.08417	0.99198	4.3381	76.53	-0.2645	0.0129	0.2774	1279.256	0.157452	-423.045823	-423.036673	-423.035729	-423.079737	33.767	
C	 0.0709884722	 0.7904712051	-2.2526399708	-0.414048
C	 0.0412362457	-0.2761163341	-1.1787937967	-0.103429
C	 1.2510715815	-0.6210533733	-0.296479073	-0.103429
C	 2.5919067468	 0.0717301828	-0.4141722844	-0.414048
C	 0.0585925275	 0.068957352	 0.270362161	 0.425321
C	-0.0931468911	 1.3965036016	 0.9974271742	-0.50105
C	-1.0009829643	 0.5775756152	 1.9220985647	 0.435734
O	-1.6609092687	 0.7502856758	 2.8945156132	-0.315364
O	-0.8238469495	-0.5915676664	 1.2221397926	-0.260852
H	 0.6528234731	 1.6652672583	-1.9488204769	 0.119659
H	 0.5125836029	 0.4051970973	-3.1776888181	 0.126937
H	-0.9423293458	 1.1341453635	-2.4864146422	 0.127258
H	-0.5779606371	-1.137066282	-1.4186653013	 0.10647
H	 1.3121179888	-1.6759479445	-0.0402590638	 0.10647
H	 2.4868943914	 1.1423537091	-0.6112612364	 0.119659
H	 3.1677719281	-0.0376882256	 0.5110208959	 0.127258
H	 3.1862266299	-0.3570879392	-1.2278409311	 0.126937
H	 0.7991905293	 1.7938994588	 1.4849458229	 0.145258
H	-0.6074707009	 2.1949552757	 0.4590872901	 0.145258
88.1418	151.2706	153.0261	159.4092	171.1146	239.2157	275.5289	379.5645	468.3008	512.1764	514.9189	531.0829	578.4922	764.2555	805.2165	817.4295	879.4733	957.8261	988.71	993.4389	1013.3719	1052.1954	1066.1676	1114.5862	1123.0959	1145.7514	1166.1014	1174.427	1203.9662	1237.6783	1333.3274	1361.1125	1412.7303	1421.7287	1451.3178	1480.4459	1487.0265	1494.6569	1498.563	1518.7838	1943.4352	3033.1778	3037.2842	3083.1373	3094.9655	3096.4664	3102.5586	3111.8114	3137.8827	3138.7623	3148.5072
CC1C(C)C11CC(=O)O1	C[C@H]1[C@@H](C)[C@]21CC(=O)O2	
InChI=1S/C7H10O2/c1-4-5(2)7(4)3-6(8)9-7/h4-5H,3H2,1-2H3	InChI=1S/C7H10O2/c1-4-5(2)7(4)3-6(8)9-7/h4-5H,3H2,1-2H3/t4-,5+,7+
