21
gdb 77089	2.33212	1.35562	1.07141	3.6365	79.56	-0.2412	-0.0248	0.2164	1233.2551	0.178716	-424.231469	-424.221294	-424.220349	-424.266733	37.039	
C	-0.3322009521	 1.3529245905	-0.1185575053	-0.421813
C	-0.0011471446	-0.1233566664	 0.0404383252	-0.111641
C	 1.2887760612	-0.6446720057	-0.6634617749	 0.043347
O	 1.8719924437	-1.0560831435	 0.5669775933	-0.315435
C	 0.7021540786	-0.6429735719	 1.3411816643	 0.421373
C	 1.1014877935	 0.3883557002	 2.3858868402	-0.433322
C	 0.0289861146	-1.8592514932	 1.9647236617	-0.4287
C	 1.0369511594	-1.7599912743	-1.6523362738	 0.139908
O	 1.1176083751	-2.9352773711	-1.4108864663	-0.243301
H	 0.5386687196	 1.9905643076	 0.0582483684	 0.125639
H	-0.691268066	 1.5568580812	-1.1329865517	 0.121976
H	-1.1217205823	 1.6573914946	 0.5765100389	 0.124799
H	-0.8829152884	-0.7249765569	-0.1996642036	 0.087647
H	 1.8699454765	 0.1458012487	-1.1643393147	 0.084176
H	 1.6220485369	 1.2371339186	 1.9367229568	 0.118514
H	 0.225879195	 0.7610228426	 2.9277499091	 0.116056
H	 1.7780110598	-0.0740470876	 3.1114759523	 0.128802
H	 0.6680474596	-2.2932145314	 2.7402278536	 0.123769
H	-0.9263767275	-1.5801203261	 2.4232354155	 0.110247
H	-0.1496178074	-2.6245750435	 1.2054631271	 0.138939
H	 0.7195636747	-1.3891777022	-2.657389706	 0.069022
45.1859	85.3016	173.8941	191.2056	209.5081	223.9643	252.1916	282.4455	291.332	347.8282	380.2857	419.1815	510.9851	623.4639	741.7462	773.8757	820.4896	868.6052	925.5138	935.8419	968.6833	981.8702	995.4426	1047.1719	1103.3685	1112.4899	1132.9447	1175.965	1198.3417	1248.2015	1278.1041	1285.7875	1351.8377	1382.9971	1400.6665	1409.4075	1415.1396	1417.9813	1469.7126	1481.1183	1486.2068	1497.0314	1499.9493	1510.9456	1837.0865	2837.214	2981.5629	3032.2852	3033.8186	3041.4493	3057.7083	3097.586	3101.8344	3109.3685	3111.0043	3125.6061	3126.5903
CC1C(OC1(C)C)C=O	C[C@H]1[C@@H](OC1(C)C)C=O	
InChI=1S/C7H12O2/c1-5-6(4-8)9-7(5,2)3/h4-6H,1-3H3	InChI=1S/C7H12O2/c1-5-6(4-8)9-7(5,2)3/h4-6H,1-3H3/t5-,6-/m0/s1
