23
gdb 120637	4.38977	0.68906	0.65218	2.0088	83.08	-0.2554	0.084	0.3394	1827.4012	0.203112	-425.417726	-425.406802	-425.405858	-425.454325	39.391	
C	 0.2664516621	 1.4356122332	-0.3047147217	-0.383327
C	 0.3340986422	-0.0743948235	-0.0664352249	-0.154252
C	 0.33300977	-0.4461686361	 1.4238227369	-0.22135
C	 0.3839327884	-1.9400146258	 1.634247976	 0.012241
O	 1.6304864507	-2.6041575438	 1.3606644376	-0.311131
C	 1.1128672645	-2.6328758829	 2.7113953454	 0.345581
C	 1.9410563984	-1.9169029027	 3.7540783851	-0.466821
C	 0.6670718857	-4.0321847051	 3.1023759955	-0.115246
O	 1.7791854609	-4.9027629375	 3.2271434823	-0.417702
H	 1.1204793149	 1.9477064914	 0.1524354739	 0.115842
H	 0.2722103458	 1.6701235206	-1.3735877475	 0.1143
H	-0.644847321	 1.8658669084	 0.1258852678	 0.11293
H	-0.514094825	-0.5644217908	-0.5624784978	 0.09495
H	 1.2389579982	-0.4867366448	-0.5278584742	 0.115493
H	 1.1789584346	 0.0375643381	 1.9217656369	 0.101882
H	-0.5791779218	-0.0608502534	 1.9004478024	 0.098613
H	-0.4779467063	-2.468168734	 1.2160097987	 0.080396
H	 2.4319611454	-1.0338575462	 3.3435549979	 0.127726
H	 1.31616975	-1.6120154048	 4.6007575574	 0.119915
H	 2.7093816361	-2.5981803086	 4.130786984	 0.140223
H	 0.1726924475	-4.0210040243	 4.0799441151	 0.108089
H	-0.0529499952	-4.4085566039	 2.3608317199	 0.088839
H	 2.2388945537	-4.8713015734	 2.3795511834	 0.292809
55.9378	71.3851	85.1907	127.7826	181.9193	191.8455	244.465	274.8698	292.7224	332.7279	358.2393	423.8145	455.1434	510.0344	632.3589	711.1872	746.7983	822.2688	872.8912	899.6092	909.1001	938.0145	987.8901	1047.0115	1057.9186	1069.3902	1101.8124	1110.291	1155.2052	1159.1076	1205.2785	1261.0599	1274.0758	1305.7893	1329.6259	1340.1202	1383.6579	1396.3367	1413.0678	1414.594	1427.1396	1467.7245	1471.9703	1492.6298	1492.8664	1496.6916	1499.8422	1509.1516	1515.0463	2994.8261	3016.9162	3022.4792	3029.3138	3043.1155	3058.3737	3061.0613	3072.9737	3086.0529	3098.5018	3103.2469	3109.3972	3144.6372	3791.3114
CCCC1OC1(C)CO	CCC[C@H]1O[C@]1(C)CO	
InChI=1S/C7H14O2/c1-3-4-6-7(2,5-8)9-6/h6,8H,3-5H2,1-2H3	InChI=1S/C7H14O2/c1-3-4-6-7(2,5-8)9-6/h6,8H,3-5H2,1-2H3/t6-,7-/m1/s1
