21
gdb 82765	2.72933	1.8274	1.47781	1.7832	80.03	-0.2356	0.0861	0.3217	988.9098	0.186061	-387.086274	-387.079242	-387.078298	-387.117243	29.766	
C	 0.0432780877	 1.5696859124	-0.0025708763	-0.422087
C	 0.0330079437	 0.0437977406	-0.0130674358	 0.039335
C	 0.9622424526	-0.5707226344	-1.0862186475	 0.053129
O	 2.2765053421	-0.153043599	-0.6030364265	-0.300011
C	 2.0208417856	-1.1168372783	 0.4462701989	 0.085097
C	 1.2499736565	-2.013504933	-0.5504073637	-0.021395
C	 0.135959542	-2.7569900758	 0.191153305	-0.251679
C	 0.0116748554	-1.9564787836	 1.5266850346	-0.225928
C	 0.7379086958	-0.6403241459	 1.2068983727	-0.052543
H	 1.0680501814	 1.9430047342	 0.0629730352	 0.135664
H	-0.4097921133	 1.9744699605	-0.9149276899	 0.106487
H	-0.5226861889	 1.9589776521	 0.8502702147	 0.108029
H	-0.9958067902	-0.3180562562	-0.1210118227	 0.064344
H	 0.7845281004	-0.3406662223	-2.1381408174	 0.070189
H	 2.9020550762	-1.4154681886	 1.0143970036	 0.075506
H	 1.8739846021	-2.5923190488	-1.2305221973	 0.076109
H	-0.8011943744	-2.7650443091	-0.3749573645	 0.103368
H	 0.4048683587	-3.8020638477	 0.3686762715	 0.100503
H	-1.0254435469	-1.7989490454	 1.8370448589	 0.098645
H	 0.515336844	-2.4908074793	 2.3409396237	 0.095972
H	 0.9028734495	 0.0173130276	 2.0615733827	 0.061266
188.9388	227.627	246.9053	293.4173	351.0333	430.1982	552.7302	599.7045	691.74	722.1192	785.6128	797.8924	827.4986	867.013	874.8343	894.3594	920.7925	944.4841	957.7316	980.4029	1027.7072	1039.7393	1045.9854	1067.2009	1073.1531	1120.4419	1144.6555	1158.8209	1205.6501	1212.3771	1231.2613	1246.4938	1264.7453	1269.098	1304.8731	1305.2972	1320.6926	1336.414	1359.4419	1386.8805	1404.2227	1488.5229	1494.3324	1506.2609	1508.7677	3029.9876	3034.0115	3039.24	3049.4595	3077.8334	3090.546	3093.8874	3100.8021	3104.9943	3116.9908	3126.007	3129.4274
CC1C2OC3C2CCC13	C[C@H]1[C@H]2O[C@@H]3[C@H]2CC[C@H]13	
InChI=1S/C8H12O/c1-4-5-2-3-6-7(4)9-8(5)6/h4-8H,2-3H2,1H3	InChI=1S/C8H12O/c1-4-5-2-3-6-7(4)9-8(5)6/h4-8H,2-3H2,1H3/t4-,5-,6+,7-,8+/m1/s1
