19
gdb 110950	2.76263	1.26875	1.10557	4.1053	76.56	-0.2333	0.015	0.2483	1169.6257	0.158163	-422.988882	-422.979827	-422.978883	-423.022753	33.603	
C	-0.0135316717	 1.3880384023	-0.2302054596	-0.513034
C	 0.0131902777	-0.1102538998	-0.1468897018	 0.191494
C	 0.5481015218	-1.1513420245	-1.2014712284	-0.287667
C	 0.0630131713	-2.0641511877	-0.0235296698	-0.208702
C	 0.690141476	-1.0165792443	 0.9640622254	 0.016567
C	 2.1919696604	-0.9574776965	 1.1762620035	-0.144905
O	 2.4745822029	 0.3161244275	 1.7453896635	-0.415421
C	-1.1450567943	-1.1122543593	-0.0052319026	 0.421529
O	-2.3350467259	-1.1339896728	 0.0697083662	-0.33073
H	 0.999542166	 1.7988954676	-0.2315539954	 0.134578
H	-0.5292524297	 1.7189864027	-1.1375552134	 0.123407
H	-0.5430683195	 1.8096623334	 0.630050729	 0.133117
H	 0.0005200333	-1.2242582281	-2.1434724627	 0.112162
H	 1.6224203962	-1.1333856947	-1.3783047489	 0.109205
H	 0.0952284861	-3.149213895	 0.0426958017	 0.090592
H	 0.2012680575	-0.9549489048	 1.9413612037	 0.091532
H	 2.4799845329	-1.7705054522	 1.8614180172	 0.094164
H	 2.7556007812	-1.1063210098	 0.2459733852	 0.092084
H	 3.4084042679	 0.3443910359	 1.9741019172	 0.290029
73.6086	131.9046	147.9901	164.0324	214.0469	257.5694	299.2513	371.2027	405.6001	504.3512	544.6212	639.3904	720.3467	738.4288	782.509	805.0847	861.3055	897.6564	986.3456	1012.3639	1031.3717	1047.9549	1058.4246	1093.334	1103.4467	1139.1059	1180.685	1185.2343	1193.9675	1218.3332	1256.6181	1260.3565	1348.8641	1408.9873	1415.42	1463.4618	1483.2197	1489.2689	1508.5897	1538.3281	1912.1709	2977.5199	3020.5775	3038.7587	3063.3211	3080.366	3104.9153	3118.1182	3148.0099	3151.7211	3827.5927
CC12CC(C1CO)C2=O	C[C@@]12C[C@@H]([C@H]1CO)C2=O	
InChI=1S/C7H10O2/c1-7-2-4(6(7)9)5(7)3-8/h4-5,8H,2-3H2,1H3	InChI=1S/C7H10O2/c1-7-2-4(6(7)9)5(7)3-8/h4-5,8H,2-3H2,1H3/t4-,5+,7+/m0/s1
