15
gdb 48831	2.59923	1.65102	1.185	4.6653	66.53	-0.2482	-0.0472	0.201	1023.0683	0.111223	-457.777108	-457.769293	-457.768349	-457.809858	28.544	
O	-0.325131792	 0.1046381377	 0.2578603901	-0.234344
C	-0.0247627592	 1.2684500101	 0.2712758763	 0.07279
C	 1.3445694585	 1.7846210917	-0.0122561394	 0.176887
O	 1.5674604276	 3.1830135983	 0.2883019628	-0.277424
C	 1.6028025557	 2.7976223971	-1.0727369983	 0.003115
C	 3.007052979	 2.6301129819	-1.6292585882	-0.253416
C	 3.7353035575	 1.7446196762	-0.5970920093	-0.336537
C	 2.6337983633	 0.9926892759	 0.166123364	 0.370192
O	 2.7554475832	-0.0330951537	 0.7742743679	-0.284836
H	-0.7545629415	 2.0799354365	 0.4890209727	 0.093769
H	 0.7943439766	 3.181974575	-1.6906482629	 0.11868
H	 2.9469473088	 2.1357226623	-2.6043797638	 0.127164
H	 3.4881766883	 3.600662888	-1.7796070024	 0.129432
H	 4.4297675767	 1.029135336	-1.0402088111	 0.142261
H	 4.2982901477	 2.3445452969	 0.1248648215	 0.152268
82.7613	121.1534	160.2898	216.0989	269.6226	407.6175	447.6695	459.7852	567.7168	626.9499	669.2431	700.6054	812.1765	849.0592	880.7927	936.5509	990.11	1009.3398	1041.0078	1072.0763	1088.3618	1168.9513	1232.6216	1272.0423	1274.4115	1299.5534	1329.1331	1392.0577	1427.0713	1452.5759	1485.5371	1817.4664	1870.0466	2889.223	3056.297	3068.1878	3100.0671	3130.0663	3147.1548
O=CC12OC1CCC2=O	O=C[C@]12O[C@H]1CCC2=O	
InChI=1S/C6H6O3/c7-3-6-4(8)1-2-5(6)9-6/h3,5H,1-2H2	InChI=1S/C6H6O3/c7-3-6-4(8)1-2-5(6)9-6/h3,5H,1-2H2/t5-,6+/m0/s1
