21
gdb 70608	2.06365	1.88551	1.44441	2.2976	77.5	-0.2486	0.0793	0.3279	1046.7882	0.180447	-424.229762	-424.220575	-424.219631	-424.262788	35.697	
C	-0.4107531646	 1.3688809655	 0.173877581	-0.502532
C	 0.0364585303	-0.0595217381	 0.0276783626	 0.388958
O	-0.2543906515	-0.9328189671	 1.1346006707	-0.302341
C	 1.1157270696	-0.695491022	 0.7886970373	-0.045597
C	 1.6913141074	-1.7938507879	-0.0717936916	-0.120154
O	 0.7443462672	-1.9920012854	-1.1112844865	-0.301649
C	-0.0579900118	-0.809473442	-1.3092375411	 0.317894
C	-1.4746634097	-1.2868052186	-1.6210426671	-0.423986
C	 0.5348025804	 0.0194524179	-2.4570866611	-0.42919
H	 0.1532843486	 2.0355106136	-0.4848370146	 0.128521
H	-1.473270337	 1.471554767	-0.0724181241	 0.131371
H	-0.2718670966	 1.6981576654	 1.2062529274	 0.133577
H	 1.7218434532	-0.1789023822	 1.5289994705	 0.095106
H	 2.6767443272	-1.4857666155	-0.4592257387	 0.091116
H	 1.8121463562	-2.7443072117	 0.4595647395	 0.116161
H	-1.8674771801	-1.8526097788	-0.7738739229	 0.13864
H	-2.1387459881	-0.4406734525	-1.8250545818	 0.107952
H	-1.4661532465	-1.9344406187	-2.5021887195	 0.121708
H	 0.6080057604	-0.6043951306	-3.3519286699	 0.12712
H	-0.0885415302	 0.8872202729	-2.6936325648	 0.115073
H	 1.5397443756	 0.3776111688	-2.2101155752	 0.112253
115.8034	181.9617	213.7702	224.4358	230.9163	261.9332	277.5826	329.2865	389.4175	402.9739	453.7663	518.9895	586.5584	640.9102	737.5505	810.0339	846.6921	886.6526	929.8484	936.3387	952.5713	979.856	1007.9384	1044.3601	1085.0123	1109.9485	1118.902	1162.2375	1201.2973	1221.6925	1232.7805	1289.4705	1316.328	1372.6198	1392.7937	1406.9291	1412.7186	1458.9154	1475.9696	1484.1981	1489.9189	1494.2778	1501.5372	1505.2207	1510.2127	2968.868	3035.3623	3039.7709	3044.776	3063.0248	3103.0821	3105.2143	3112.0682	3119.484	3127.9337	3137.5677	3146.6483
CC12OC1COC2(C)C	C[C@]12O[C@H]1COC2(C)C	
InChI=1S/C7H12O2/c1-6(2)7(3)5(9-7)4-8-6/h5H,4H2,1-3H3	InChI=1S/C7H12O2/c1-6(2)7(3)5(9-7)4-8-6/h5H,4H2,1-3H3/t5-,7-/m0/s1
