18
gdb 116674	2.75381	0.90447	0.75458	3.88	74.2	-0.2477	-0.0278	0.2199	1536.2906	0.143957	-476.213073	-476.202627	-476.201683	-476.250214	34.915	
C	 0.264243642	 1.0779188683	-0.3496865011	-0.252699
O	-0.2676158959	-0.1008653402	 0.2502004798	-0.190945
C	 0.5848097064	-0.8021984028	 1.0105454681	 0.152822
N	 0.2142478799	-1.8864433936	 1.5391706161	-0.246748
C	 1.175268025	-2.6425556111	 2.3094987695	-0.094829
C	 0.4226070634	-3.7749065109	 3.0211620156	-0.071889
O	-0.2750883033	-4.5555452244	 2.0775231429	-0.422181
C	 2.2902602412	-3.2258594508	 1.4300189848	 0.177223
O	 2.6147644994	-2.7863318835	 0.36037171	-0.244711
H	 1.0507117686	 0.8330339031	-1.0721899689	 0.141263
H	-0.5659087481	 1.5574193351	-0.8688085577	 0.149892
H	 0.6623810032	 1.7662552103	 0.4051440263	 0.128911
H	 1.5750860338	-0.3450246222	 1.1320491983	 0.092688
H	 1.7002445603	-2.0326538322	 3.0686935456	 0.095514
H	 1.1256967662	-4.4368741676	 3.5397795917	 0.103828
H	-0.2489170422	-3.3383185307	 3.7756015625	 0.096473
H	-0.7517260106	-3.9167877226	 1.5278973979	 0.296113
H	 2.8181597808	-4.0916471244	 1.8880222986	 0.089276
35.4397	75.8627	87.2636	105.8917	146.5092	163.9966	198.618	245.5108	295.7455	357.3515	436.7564	510.1339	547.2341	658.1194	684.4848	837.6099	919.1526	943.4792	988.721	1048.0468	1075.8627	1096.9083	1129.7261	1175.9363	1181.9712	1215.166	1256.0085	1288.6819	1321.4691	1381.3518	1407.7803	1421.2506	1442.1311	1485.3999	1493.6188	1500.3619	1508.2737	1763.9276	1836.7944	2888.429	2934.3764	2994.0288	3019.6114	3041.3653	3065.3054	3089.518	3150.7157	3738.1347
COC=NC(CO)C=O	COC=N[C@@H](CO)C=O	
InChI=1S/C5H9NO3/c1-9-4-6-5(2-7)3-8/h2,4-5,8H,3H2,1H3	InChI=1S/C5H9NO3/c1-9-4-6-5(2-7)3-8/h2,4-5,8H,3H2,1H3/t5-/m1/s1
