14
gdb 23885	3.29525	1.41737	1.23503	3.1473	46.73	-0.2519	0.0585	0.3104	959.7904	0.10312	-547.355022	-547.346524	-547.34558	-547.388302	29.963	
N	-0.0787181419	 1.4550523934	 0.0011562774	-0.519427
C	 0.009062909	 0.0008124494	-0.0358552979	-0.107253
C	 0.6607794113	-0.5686729656	-1.3059623598	-0.098003
O	-0.1007127025	-0.0653994386	-2.3926872859	-0.425702
C	 0.7448236917	-0.4761834061	 1.2106045081	 0.292481
F	 0.1053296088	-0.146200395	 2.3319802527	-0.061185
F	 0.8936207752	-1.8126448691	 1.2050121256	-0.084335
F	 1.9805814138	 0.0607870772	 1.2740661934	-0.09363
H	 0.8595735578	 1.8475507068	-0.0083532001	 0.231706
H	-0.5260913014	 1.7596606211	-0.8580837695	 0.248916
H	-1.0075149946	-0.403780927	 0.0320961435	 0.119965
H	 1.7090611259	-0.2357736354	-1.3566142244	 0.09594
H	 0.6513452392	-1.6666483772	-1.2790216979	 0.106053
H	 0.3092370178	-0.355496314	-3.2121353751	 0.294474
76.2049	114.7733	183.5089	220.1178	255.9882	276.6933	314.7339	360.9185	405.9337	485.2947	562.8848	575.8138	688.3659	829.6585	882.9214	942.9349	1064.4105	1093.7587	1107.6657	1151.5181	1202.4265	1231.365	1253.331	1268.547	1291.1384	1357.4415	1440.0867	1454.7738	1523.3294	1662.7445	2984.6538	3031.8327	3060.8871	3491.3994	3574.0219	3842.3445
NC(CO)C(F)(F)F	N[C@@H](CO)C(F)(F)F	
InChI=1S/C3H6F3NO/c4-3(5,6)2(7)1-8/h2,8H,1,7H2	InChI=1S/C3H6F3NO/c4-3(5,6)2(7)1-8/h2,8H,1,7H2/t2-/m0/s1
