17
gdb 69792	2.66638	1.91192	1.34727	4.4053	71.93	-0.2366	-0.0142	0.2225	964.8954	0.137033	-417.983712	-417.976213	-417.975269	-418.015375	29.406	
C	-0.0023474353	 1.5587709309	 0.0274674015	-0.497253
C	 0.1268407248	 0.0637709611	 0.030619436	 0.216925
N	-0.7820405883	-0.8002033092	 0.8391351024	-0.366553
C	 0.6691102738	-0.8111268546	 1.1003516271	-0.117464
C	 1.3929011551	-1.9588935966	 0.4242886101	-0.0266
C	 0.6207494563	-2.9731878306	-0.3368816108	-0.253979
N	 1.2303418502	-1.8124901098	-1.0334719889	-0.142359
C	 0.3980089486	-0.6717593925	-1.2807882556	 0.377965
O	 0.0200447535	-0.3308974696	-2.3676280275	-0.320132
H	 0.9266412725	 2.0329297268	-0.3043969406	 0.138346
H	-0.7952970629	 1.8644455661	-0.661939228	 0.151877
H	-0.2401312067	 1.9360214272	 1.0273882988	 0.113925
H	-1.2469485125	-0.213695429	 1.5301556242	 0.236441
H	 1.0511543411	-0.4151793666	 2.0341950518	 0.098593
H	 2.4007997679	-2.1797899983	 0.7632307717	 0.102859
H	 1.0776620592	-3.9269702656	-0.5831540785	 0.127788
H	-0.4566116772	-2.9731948097	-0.2192330536	 0.159622
133.8114	185.5755	226.259	252.2305	284.1637	363.4349	473.6536	539.063	580.031	646.2694	695.8835	777.6763	792.2159	816.8923	855.4377	880.7982	933.8086	973.3774	1006.4089	1037.163	1040.8793	1076.6849	1094.6903	1125.4787	1125.7929	1151.4778	1161.6319	1277.5907	1306.1945	1348.9044	1386.7861	1411.5867	1435.4921	1478.6014	1489.6289	1499.181	1854.6567	3035.7701	3106.3638	3112.0748	3126.5894	3153.1169	3183.4747	3230.5303	3483.082
CC12NC1C1CN1C2=O	C[C@]12N[C@H]1[C@H]1CN1C2=O	
InChI=1S/C6H8N2O/c1-6-4(7-6)3-2-8(3)5(6)9/h3-4,7H,2H2,1H3	InChI=1S/C6H8N2O/c1-6-4(7-6)3-2-8(3)5(6)9/h3-4,7H,2H2,1H3/t3-,4+,6+,8?/m1/s1
