17
gdb 12528	3.5212	1.9573	1.35984	2.1958	70.34	-0.2354	-0.0032	0.2322	917.1716	0.142991	-363.864562	-363.857015	-363.856071	-363.896667	28.103	
C	-0.5821246103	 1.2924595324	 0.1179232113	-0.412093
C	 0.1223699137	-0.0548368466	 0.0972545106	 0.091667
O	 0.5282079668	-0.2659510309	-1.2760712192	-0.233676
C	 1.0706941898	-1.4548538265	-1.6394461527	 0.139187
N	 1.5411927549	-2.4329841971	-0.997430312	-0.265918
C	 1.7062381612	-2.5274439361	 0.4482210489	-0.212542
C	 1.9868594611	-1.2507909284	 1.2125387236	-0.079719
C	 1.2863771016	-0.1318671032	 1.0529601549	-0.055846
H	 0.1160875987	 2.0904871659	-0.1526972422	 0.131853
H	-1.4136865891	 1.3035908947	-0.5903025653	 0.128027
H	-0.9708966383	 1.4961362622	 1.1200993667	 0.122712
H	-0.5998702603	-0.8475731635	 0.3405755549	 0.096713
H	 1.0690722926	-1.5018442442	-2.7297946708	 0.116409
H	 0.8232646786	-3.0312904823	 0.8740875215	 0.122974
H	 2.5339235659	-3.2249982901	 0.614818438	 0.117366
H	 2.8145188873	-1.2746595086	 1.9176414303	 0.099055
H	 1.5369054359	 0.7668054023	 1.6103247415	 0.093831
58.9092	126.8903	237.1552	273.7948	330.0809	372.8649	400.4534	493.3662	539.8646	701.9943	729.5851	800.7259	834.9131	900.5306	927.6501	956.0376	987.9985	1002.4659	1027.0989	1048.1964	1138.2165	1150.8043	1165.8381	1237.0042	1264.5279	1338.0664	1357.7405	1384.0384	1410.259	1415.621	1439.7874	1480.9763	1485.5006	1497.3109	1727.8298	1759.7996	2974.8192	2996.9225	3045.4416	3053.9475	3118.3718	3122.9319	3130.9784	3146.8481	3171.786
CC1OC=NCC=C1	C[C@H]1OC=NCC=C1	
InChI=1S/C6H9NO/c1-6-3-2-4-7-5-8-6/h2-3,5-6H,4H2,1H3	InChI=1S/C6H9NO/c1-6-3-2-4-7-5-8-6/h2-3,5-6H,4H2,1H3/t6-/m1/s1
