16
gdb 83106	2.62183	1.79359	1.27887	2.1453	70.16	-0.2227	-0.0102	0.2125	978.2541	0.125474	-437.895657	-437.888072	-437.887127	-437.927985	28.553	
O	 0.2351856569	 1.3300104158	 0.3824692102	-0.423096
C	 0.0760369312	-0.048758043	 0.1602215438	-0.028848
C	-1.3949868403	-0.5171878244	-0.0462272511	 0.005627
C	-2.5330896159	 0.4944114068	-0.299534458	-0.294439
C	-2.912302802	 0.1955766425	-1.7436419511	-0.088815
C	-2.0227896587	-0.6052911101	-2.3315919164	-0.067142
N	-1.0113053417	-1.0078158545	-1.4089022369	-0.113982
C	 0.2770376454	-0.4513706262	-1.3248908097	 0.363546
O	 1.1330460053	-0.2525524073	-2.1399828072	-0.34053
H	 1.017447742	 1.6113618611	-0.1071984613	 0.303368
H	 0.6360108307	-0.6486984038	 0.8896767259	 0.095488
H	-1.7020026584	-1.3330723954	 0.6120835665	 0.091776
H	-3.3621337475	 0.3480814652	 0.3980997743	 0.116268
H	-2.1901369265	 1.530570106	-0.1881126509	 0.137652
H	-3.7765696382	 0.6236198709	-2.233799703	 0.109561
H	-1.9818134023	-0.9481012536	-3.355423095	 0.133567
81.2606	142.2449	181.3392	244.6461	286.543	387.5677	478.2651	564.0857	630.5029	662.4624	704.3248	770.9181	821.6221	842.7394	867.0876	920.2883	944.5652	960.4889	1023.9413	1035.7437	1098.618	1132.7725	1157.0461	1172.1099	1208.0349	1236.5698	1269.0546	1302.1242	1331.861	1337.4292	1378.0974	1389.7517	1486.191	1662.4874	1880.1773	3016.2403	3037.883	3073.1768	3092.1634	3221.315	3251.1277	3792.0264
OC1C2CC=CN2C1=O	O[C@H]1[C@H]2CC=CN2C1=O	
InChI=1S/C6H7NO2/c8-5-4-2-1-3-7(4)6(5)9/h1,3-5,8H,2H2	InChI=1S/C6H7NO2/c8-5-4-2-1-3-7(4)6(5)9/h1,3-5,8H,2H2/t4-,5+/m1/s1
