19
gdb 47792	2.34134	1.81681	1.22186	3.0864	78.18	-0.232	0.0032	0.2352	1055.1159	0.161732	-419.184204	-419.176464	-419.17552	-419.216539	30.37	
N	 0.0650717812	 1.1884729184	 0.6948742957	-0.486841
C	 0.0594666492	 0.0481199682	 0.1422865298	 0.340092
O	 1.2186440786	-0.6566482888	-0.0941027889	-0.262865
C	 1.6101030901	-0.8592028706	-1.4585516665	-0.089163
C	 0.8574704732	-1.9896561083	-2.1452864872	-0.217816
C	-0.6253202315	-1.6926687461	-2.4107704671	-0.145761
N	-1.532193378	-1.4750001193	-1.290089983	-0.09098
C	-1.3704662911	-2.1062150096	-0.0013279187	-0.259466
C	-1.2454317895	-0.6137757942	-0.1469809221	-0.036429
H	 1.0300515832	 1.4774777978	 0.870077621	 0.220977
H	 1.4953060919	 0.0813210534	-2.0162337242	 0.105859
H	 2.6774577452	-1.0900695935	-1.4071246188	 0.118221
H	 1.3358955197	-2.1754958232	-3.1159730696	 0.105273
H	 0.9762392277	-2.9094242816	-1.5611294478	 0.113765
H	-0.7018335714	-0.8034417754	-3.0498674242	 0.112275
H	-1.0484695467	-2.5248599873	-2.9859337375	 0.113053
H	-2.2704249661	-2.526403148	 0.4411855846	 0.120474
H	-0.4521812358	-2.6430518226	 0.2241388048	 0.123981
H	-2.0753729999	 0.0195614309	 0.1504703398	 0.115351
68.1782	169.755	229.895	300.5082	318.7443	371.6125	410.4802	469.093	528.7667	615.6394	673.1542	714.7017	783.4956	849.1388	898.7698	906.7399	935.2532	954.2288	967.0403	1007.628	1062.9779	1078.5693	1098.3007	1119.5253	1141.2948	1147.3525	1172.3274	1236.052	1284.6666	1325.0954	1330.4306	1336.879	1388.8813	1393.1112	1396.6718	1423.0867	1470.1258	1479.927	1501.4861	1508.2043	1723.8388	3006.7066	3020.3776	3028.836	3058.9123	3075.1695	3094.7335	3102.6777	3161.9804	3188.8842	3462.3673
N=C1OCCCN2CC12	[NH][C]1OCCCN2C[C@@H]12	
InChI=1S/C6H10N2O/c7-6-5-4-8(5)2-1-3-9-6/h5,7H,1-4H2	InChI=1S/C6H10N2O/c7-6-5-4-8(5)2-1-3-9-6/h5,7H,1-4H2/t5-,8?/m0/s1
