15
gdb 45190	2.99157	1.95402	1.65332	4.7275	63.49	-0.2513	-0.0099	0.2414	837.4201	0.114961	-457.751012	-457.745035	-457.744091	-457.781291	24.544	
O	 0.0144736898	 0.023184002	-0.211314605	-0.3378
C	 0.0291843316	 1.2013578667	-0.0065321314	 0.45708
O	-1.1210083986	 1.9272545637	 0.1205572497	-0.228012
C	-0.9160057302	 3.2287668804	 0.6850970971	 0.052633
C	-0.1524213654	 3.0804646388	 2.0242224525	-0.267577
C	 1.1432794368	 3.1811431937	 1.1994954559	-0.100297
C	 0.3858930891	 3.9095377577	 0.0657583985	 0.11666
O	 0.9704214058	 3.1234230514	-0.967099502	-0.280556
C	 1.249177483	 2.1103983113	 0.0506594476	-0.067167
H	-1.8739917821	 3.7437007545	 0.64666649	 0.102964
H	-0.270285129	 3.9628056597	 2.6594856556	 0.11986
H	-0.3628929487	 2.1783621111	 2.6037554238	 0.126926
H	 2.0894826146	 3.5086816056	 1.6276676818	 0.094119
H	 0.3548999094	 4.9810367302	-0.133955498	 0.097174
H	 2.1796568738	 1.5717220333	-0.1210311862	 0.113993
141.0753	318.8786	396.6733	431.2958	456.9603	555.9572	654.6045	709.2179	768.5057	786.6664	810.2806	835.238	856.0037	900.0126	951.7621	978.2202	1001.0539	1035.643	1053.7789	1072.1824	1133.5814	1134.8953	1188.2854	1196.2083	1216.0391	1239.4752	1264.6458	1294.987	1319.7389	1328.7769	1371.2173	1480.4416	1878.3479	3062.1179	3113.68	3120.3504	3126.2523	3137.352	3141.6627
O=C1OC2CC3C2OC13	O=C1O[C@H]2C[C@@H]3[C@H]2O[C@H]13	
InChI=1S/C6H6O3/c7-6-5-2-1-3(8-6)4(2)9-5/h2-5H,1H2	InChI=1S/C6H6O3/c7-6-5-2-1-3(8-6)4(2)9-5/h2-5H,1H2/t2-,3+,4-,5+/m1/s1
