15
gdb 82040	2.81527	1.42541	1.26716	2.7247	62.64	-0.2571	-0.0496	0.2075	1008.9223	0.109925	-494.85584	-494.847606	-494.846662	-494.88873	30.581	
O	 0.1045715722	 1.3451470182	 0.1797288524	-0.414843
C	 0.0134120798	-0.0289296698	 0.0613709583	 0.038943
C	-1.3751262455	-0.6834286289	 0.0392270673	-0.006162
O	-2.0638214524	-0.1095890812	-1.0743108625	-0.24
C	-1.1805760636	-1.2015046413	-1.330662474	-0.041231
C	 0.2310630962	-0.6009609053	-1.4464785042	 0.273429
O	 0.3868097672	 0.3707237967	-2.4222179948	-0.466751
C	 1.3553103108	-1.5940900267	-1.4760853738	 0.091278
O	 2.3049553162	-1.4523129527	-2.211281107	-0.276826
H	-0.3184831041	 1.7182091808	-0.6056288855	 0.305351
H	 0.6887712644	-0.4851999711	 0.7912592218	 0.098128
H	-1.9744688869	-1.068490115	 0.8554570386	 0.11752
H	-1.596065382	-2.0703435926	-1.8275788734	 0.120274
H	 1.2779128618	 0.240983588	-2.7871440026	 0.298775
H	 1.2856131058	-2.4450291692	-0.7690916906	 0.102116
89.7931	116.8643	194.4721	225.7186	300.8798	311.1758	354.5195	422.4818	463.5686	534.0999	585.607	681.833	761.4056	803.5521	847.3607	863.0925	903.3218	919.3182	1011.3027	1034.8408	1055.5712	1074.8063	1149.1943	1188.0989	1226.0292	1256.1421	1286.6692	1321.6531	1367.6992	1379.9446	1436.1174	1444.4315	1797.4718	2934.0322	3074.2558	3185.5178	3200.9574	3676.6897	3770.8576
OC1C2OC2C1(O)C=O	O[C@H]1[C@H]2O[C@H]2[C@]1(O)C=O	
InChI=1S/C5H6O4/c6-1-5(8)3(7)2-4(5)9-2/h1-4,7-8H	InChI=1S/C5H6O4/c6-1-5(8)3(7)2-4(5)9-2/h1-4,7-8H/t2-,3+,4-,5+/m1/s1
