20
gdb 82649	2.33543	1.73301	1.35648	1.9377	79.06	-0.2129	0.0716	0.2845	1058.6734	0.170008	-403.07686	-403.068059	-403.067114	-403.109633	34.185	
C	-0.0975432976	 1.5918218607	-0.0710974378	-0.44016
C	 0.0789393725	 0.0862201003	 0.0274768551	 0.012583
N	 1.1034752498	-0.604899154	-0.8764194375	-0.221598
C	 2.4228073578	 0.0335873401	-0.4736083682	-0.187807
C	 2.2825037139	-0.6150893567	 0.8848656018	-0.212015
C	 0.7580588763	-0.6000734233	 1.2016235606	 0.300843
O	 0.2733608684	-0.8450630739	 2.4709857103	-0.468507
C	 1.3298458029	-1.6221674622	 0.2785381323	 0.335735
C	 1.2642353563	-3.1037432038	 0.169332765	-0.530103
H	 0.7747439231	 2.1470568339	 0.2833518612	 0.115617
H	-0.2950503347	 1.8850257668	-1.1079332182	 0.129375
H	-0.9558379995	 1.9044845565	 0.5331051471	 0.119523
H	-0.8772042265	-0.4070378875	-0.1804577094	 0.082913
H	 3.2208509882	-0.4074793305	-1.0781391725	 0.106471
H	 2.4654078928	 1.1228591242	-0.5694373097	 0.093251
H	 3.0020020854	-0.776529056	 1.6797731218	 0.085298
H	 0.5093531898	-0.1038264202	 3.0395080941	 0.287963
H	 0.2931791507	-3.426073143	-0.2219798618	 0.13082
H	 2.0423942911	-3.4953226739	-0.494572385	 0.126257
H	 1.3970153492	-3.5558328374	 1.1574780408	 0.133541
143.9566	172.5145	178.1943	191.8845	229.1622	284.0069	321.6596	363.8057	373.2937	510.1447	576.5897	621.7423	675.3757	691.1611	772.2339	785.9366	850.9334	897.3575	921.9746	932.2777	987.482	1016.2672	1074.8538	1088.0592	1121.4656	1123.8266	1143.0006	1163.1489	1201.2607	1221.5217	1236.9421	1278.9765	1301.6555	1345.7233	1393.365	1404.7935	1414.3485	1476.5936	1486.5997	1491.0846	1494.5531	1516.6448	1525.0654	3028.9694	3034.0044	3041.9014	3047.1033	3089.3649	3091.5822	3100.158	3105.461	3115.1534	3176.2126	3793.6131
CC1N2CC3C1(O)C23C	C[C@H]1N2C[C@H]3[C@]1(O)[C@@]23C	
InChI=1S/C7H11NO/c1-4-7(9)5-3-8(4)6(5,7)2/h4-5,9H,3H2,1-2H3	InChI=1S/C7H11NO/c1-4-7(9)5-3-8(4)6(5,7)2/h4-5,9H,3H2,1-2H3/t4-,5-,6+,7+/m1/s1
