21
gdb 58385	2.08426	1.09559	0.86953	2.2092	85.14	-0.2519	-0.0279	0.224	1428.143	0.17822	-387.073376	-387.062497	-387.061553	-387.110081	38.909	
C	 1.1844003399	-0.4110319981	-1.2159022223	-0.398715
C	 0.1612941524	-0.1522730377	-0.1033616604	 0.033171
C	-1.20434893	-0.7563706838	-0.4536465899	-0.397707
C	 0.7101372934	-0.6413865598	 1.2722760218	-0.194863
C	-0.171799769	-0.2002357243	 2.4694227948	-0.290827
C	-0.248172839	 1.3043601256	 2.5987607931	 0.156746
O	-1.2637692262	 1.937039917	 2.727210256	-0.239852
C	 0.9182645483	-2.0876702568	 1.3071087594	 0.335151
C	 1.0704755532	-3.2798813459	 1.3469144339	-0.45665
H	 1.3578461319	-1.4843341459	-1.3438586358	 0.131448
H	 0.8276962562	-0.0100235767	-2.1695698962	 0.114775
H	 2.1477907387	 0.060380496	-0.9929106905	 0.109423
H	 0.0366453611	 0.9353628881	-0.0071844973	 0.085312
H	-1.1468718837	-1.8486942575	-0.4973848264	 0.129308
H	-1.9748285141	-0.4837529296	 0.2731115604	 0.124167
H	-1.5360314799	-0.3961029877	-1.4322142529	 0.115604
H	 1.6925008176	-0.1633687254	 1.4043498853	 0.105802
H	-1.1816660888	-0.6100981934	 2.4066737459	 0.135137
H	 0.2865269741	-0.5821705818	 3.3916622571	 0.132878
H	 0.7453081287	 1.8145688515	 2.580823615	 0.071996
H	 1.2171024851	-4.3311750139	 1.3809335391	 0.197698
38.3233	66.7235	96.9826	140.9203	165.045	220.2388	239.0627	256.6058	305.7277	354.0194	385.4638	436.3918	455.756	580.8392	608.8435	629.7265	645.3695	718.206	827.2096	912.8364	936.2776	960.0634	971.3118	1023.4586	1032.4209	1084.9822	1118.9863	1159.1408	1200.4885	1214.2906	1264.709	1307.925	1335.4009	1362.9613	1383.6729	1403.1225	1423.6267	1429.1744	1461.1427	1489.3436	1493.9458	1507.0201	1513.0622	1835.7842	2231.2624	2840.5264	2990.4668	3008.8119	3030.4652	3032.1344	3041.5361	3099.1514	3107.0702	3111.0067	3114.596	3123.3472	3502.672
CC(C)C(CC=O)C#C	CC(C)[C@@H](CC=O)C#C	
InChI=1S/C8H12O/c1-4-8(5-6-9)7(2)3/h1,6-8H,5H2,2-3H3	InChI=1S/C8H12O/c1-4-8(5-6-9)7(2)3/h1,6-8H,5H2,2-3H3/t8-/m1/s1
