19
gdb 121602	4.56027	0.67663	0.59606	2.0709	75.46	-0.2492	-0.0536	0.1956	1839.2425	0.156936	-456.358931	-456.348391	-456.347447	-456.395785	36.541	
C	-0.0490560324	 1.3464767952	 0.0500486084	-0.227355
O	 0.0198263463	-0.0579538791	 0.0102157164	-0.233682
C	 0.6563162173	-0.5401536707	-1.1527593183	-0.05813
C	 0.6671225072	-2.0591671774	-1.0753833336	-0.311418
C	 1.3315364501	-2.6972543083	-2.2676588393	 0.375322
O	 1.8207001524	-2.0586903769	-3.1778848578	-0.33104
C	 1.3735608584	-4.2214326178	-2.319934877	 0.264569
N	 2.1051074914	-4.6787897778	-3.3771926138	-0.534415
N	 0.7657846157	-4.8730086857	-1.4006488554	-0.506855
H	 0.9521286042	 1.8064022969	 0.0381764733	 0.10345
H	-0.6202931326	 1.7529156514	-0.7999881132	 0.103279
H	-0.5536154417	 1.6237079235	 0.9788791919	 0.126015
H	 0.1257194175	-0.2045460038	-2.058326467	 0.096242
H	 1.6842252842	-0.1509792167	-1.228002717	 0.097228
H	 1.1769558459	-2.3990461907	-0.1665036593	 0.150616
H	-0.3490295934	-2.4568112447	-0.982552907	 0.154877
H	 2.357974393	-3.9911375065	-4.0710498148	 0.270615
H	 2.0302389092	-5.6399307757	-3.6627302134	 0.253513
H	 0.8486692273	-5.8834549753	-1.533318873	 0.207171
46.2925	59.5502	96.2895	105.4204	122.6705	235.2221	246.6668	296.3852	314.0247	372.3217	408.6838	459.3241	543.3844	548.977	614.3682	666.5822	816.4487	820.359	877.7766	995.2516	1037.624	1075.2281	1090.9378	1115.4553	1142.1111	1167.9648	1179.2781	1216.1206	1233.6806	1290.1741	1331.463	1420.3503	1437.2321	1442.8422	1483.4491	1485.3352	1504.9338	1526.8835	1599.4114	1720.1646	1783.4066	2963.4949	2976.5965	2998.9266	3011.0102	3060.2544	3091.7874	3113.062	3443.6154	3581.825	3716.3198
COCCC(=O)C(N)=N	COCCC(=O)C(=N)N	
InChI=1S/C5H10N2O2/c1-9-3-2-4(8)5(6)7/h2-3H2,1H3,(H3,6,7)	InChI=1S/C5H10N2O2/c1-9-3-2-4(8)5(6)7/h2-3H2,1H3,(H3,6,7)
