23
gdb 60129	2.71904	0.85561	0.83951	1.8569	82.53	-0.2434	0.0688	0.3122	1565.7389	0.20324	-425.411543	-425.400574	-425.39963	-425.448056	40.166	
C	 0.0273491783	 1.5791843886	 0.0470655447	-0.404877
C	-0.0415292041	 0.0555455429	-0.0514220463	 0.143446
O	 0.927098293	-0.557558244	 0.8015837714	-0.43196
C	-1.4555586353	-0.4806612428	 0.2225392489	-0.225015
C	-1.5366151469	-1.9845808648	 0.06264356	-0.040298
C	-2.8565963747	-2.736572987	-0.0155751291	-0.080155
C	-4.1962054788	-2.0354131132	 0.0597165532	-0.41494
C	-1.9735978014	-2.5987456887	-1.2403095115	 0.073751
O	-2.336578816	-1.7031146023	-2.2562771022	-0.418921
H	 1.0495496666	 1.9257041038	-0.1278493038	 0.120936
H	-0.63264573	 2.0542094546	-0.6859394716	 0.117752
H	-0.2833121027	 1.9191862873	 1.0436669456	 0.101731
H	 0.2548934115	-0.2534887181	-1.0607074993	 0.100573
H	 0.7371704774	-0.2733133941	 1.7029979118	 0.272787
H	-1.7458786371	-0.1936516331	 1.2449989576	 0.076458
H	-2.1534482325	 0.0150439508	-0.4569850567	 0.112932
H	-0.7292717058	-2.5036244594	 0.5699562513	 0.094875
H	-2.848150995	-3.7205013597	 0.4480097749	 0.079074
H	-4.2139347672	-1.1338037842	-0.5564306569	 0.126148
H	-4.9990141019	-2.6934897604	-0.2926805098	 0.108851
H	-4.4397298303	-1.7462450382	 1.0878370179	 0.117079
H	-1.4413769276	-3.4815623356	-1.594051747	 0.081319
H	-3.0581727194	-2.0969122225	-2.7576058831	 0.288453
38.487	79.0344	111.3812	152.9228	184.0871	230.826	247.6102	258.6466	304.6085	308.7073	347.0159	418.9422	464.8062	501.1742	568.3985	600.3534	763.2377	793.1132	841.8101	878.5018	912.8535	944.8591	975.4566	1002.8692	1046.8227	1073.4294	1084.2872	1122.9445	1144.1897	1151.8078	1165.5311	1184.4889	1225.754	1251.2966	1288.968	1306.0431	1331.5486	1368.7841	1382.1634	1399.0047	1403.0866	1417.1222	1423.975	1459.6418	1472.4857	1491.9856	1494.967	1499.9886	1506.3791	2991.4429	3020.9303	3030.1296	3049.0704	3082.4965	3090.2082	3094.9312	3101.8044	3117.3535	3118.6127	3132.9326	3160.1508	3790.718	3804.9075
CC(O)CC1C(C)C1O	C[C@@H](O)C[C@H]1[C@@H](C)[C@H]1O	
InChI=1S/C7H14O2/c1-4(8)3-6-5(2)7(6)9/h4-9H,3H2,1-2H3	InChI=1S/C7H14O2/c1-4(8)3-6-5(2)7(6)9/h4-9H,3H2,1-2H3/t4-,5-,6+,7-/m1/s1
