19
gdb 121197	2.22957	1.26788	0.88638	1.012	77.48	-0.2528	0.0393	0.2921	1339.5562	0.156773	-422.954359	-422.944548	-422.943604	-422.990411	34.389	
C	-0.5999577081	 1.3616655009	-0.1792352476	-0.223329
O	-0.6542366113	-0.0201526939	-0.4413921821	-0.236958
C	-0.7693050676	-0.7985829338	 0.7268576381	-0.077792
C	-0.9272484509	-2.2433765341	 0.2982102019	 0.116726
O	-0.8863494251	-3.1397909296	 1.4257744876	-0.289275
C	-2.1784212101	-3.692799468	 1.1166717977	-0.074505
C	-2.3438944752	-2.7619460806	-0.1182003658	-0.255651
C	-3.4564217734	-1.8366987328	-0.098823632	 0.353104
C	-4.3950873693	-1.08590075	-0.060215081	-0.472773
H	-0.5096860421	 1.873357749	-1.1404865997	 0.126919
H	-1.510288441	 1.7155024582	 0.3289177047	 0.10843
H	 0.267676509	 1.6247096291	 0.4465613312	 0.103926
H	 0.1329154573	-0.7181202579	 1.3570855375	 0.096247
H	-1.6317384947	-0.4819784904	 1.3334167974	 0.098885
H	-0.1531996499	-2.4833525786	-0.4412496898	 0.090597
H	-2.1250805169	-4.762634081	 0.8836940839	 0.107224
H	-2.9028528128	-3.5285969503	 1.9211325625	 0.11498
H	-2.3223792135	-3.3032921035	-1.0669122346	 0.113858
H	-5.2220356845	-0.4201112426	-0.03947096	 0.199386
39.2412	56.9449	95.659	153.3156	179.2765	207.6581	229.4502	330.4415	394.0486	439.1481	509.3905	575.2881	621.2365	636.4565	766.7376	805.4893	896.9059	977.085	992.6486	1011.1551	1047.7708	1059.2637	1118.0396	1148.3554	1166.878	1173.3012	1182.4894	1211.8264	1228.2198	1247.7771	1279.8177	1337.5292	1356.173	1367.0954	1431.0808	1480.2494	1485.0545	1500.2187	1521.1246	1525.2369	2234.7284	2961.0287	2974.5102	3005.3497	3018.0963	3025.4225	3034.3233	3072.664	3086.1732	3114.3088	3503.85
COCC1OCC1C#C	COC[C@H]1OC[C@H]1C#C	
InChI=1S/C7H10O2/c1-3-6-4-9-7(6)5-8-2/h1,6-7H,4-5H2,2H3	InChI=1S/C7H10O2/c1-3-6-4-9-7(6)5-8-2/h1,6-7H,4-5H2,2H3/t6-,7-/m1/s1
