22
gdb 6630	5.66203	0.67233	0.62885	0.1364	88.15	-0.2388	0.0644	0.3032	1864.7697	0.197499	-313.062367	-313.051537	-313.050593	-313.100213	37.344	
C	-0.0253874106	 1.5328181823	-0.0538427726	-0.496896
C	 0.0037887451	 0.0768171057	-0.0424278662	 0.107312
C	 0.038757022	-1.126960041	-0.0339727889	 0.027053
C	 0.0446297794	-2.58616092	-0.0200678691	-0.369277
C	-1.3703699107	-3.1898601723	 0.1030970848	-0.155094
C	-1.4158568049	-4.7263546795	 0.0321848596	 0.046591
C	-0.6889134808	-5.3938489867	 1.2086530283	-0.383233
C	-2.8701262967	-5.2111709968	-0.0456945097	-0.394299
H	 0.5600973223	 1.9515064593	 0.7725001102	 0.144223
H	 0.387419844	 1.933997737	-0.9863624482	 0.144272
H	-1.048843516	 1.9124996871	 0.0427700022	 0.144399
H	 0.5166091909	-2.9611653737	-0.939000965	 0.120651
H	 0.6752915033	-2.9372318782	 0.8059705666	 0.125655
H	-1.82174554	-2.8514356154	 1.0447737491	 0.100359
H	-1.9901715985	-2.7741747002	-0.6998445435	 0.100866
H	-0.9098857411	-5.0324376038	-0.8957027053	 0.069891
H	 0.3722400976	-5.1302567155	 1.2451507482	 0.113919
H	-1.1398342131	-5.0969880081	 2.1634728952	 0.112259
H	-0.7525666955	-6.4847549043	 1.1380031484	 0.110145
H	-3.3904435657	-4.7777793385	-0.9062214866	 0.110207
H	-2.9206145912	-6.3013543081	-0.1356617555	 0.108714
H	-3.4257324798	-4.9272722093	 0.856214578	 0.112281
14.998	47.9128	77.6899	101.2869	209.4975	212.5047	227.2948	250.5922	278.87	357.4606	384.366	408.8565	430.0641	511.9774	753.5727	771.2838	838.4368	926.9112	936.8627	962.8608	978.6087	1028.5628	1053.55	1054.0882	1134.3027	1141.9296	1170.2884	1193.4896	1233.8094	1284.1312	1315.3388	1351.4919	1369.8575	1386.3698	1401.1426	1415.7007	1422.4133	1472.4544	1479.7408	1480.0274	1486.8564	1490.1973	1497.952	1505.37	1511.1947	2373.0039	2990.5501	3007.6939	3022.0872	3023.396	3024.4803	3029.6922	3041.0771	3070.2686	3082.4925	3082.5307	3087.2642	3093.5059	3098.3092	3103.3723
CC#CCCC(C)C	CC#CCCC(C)C	
InChI=1S/C8H14/c1-4-5-6-7-8(2)3/h8H,6-7H2,1-3H3	InChI=1S/C8H14/c1-4-5-6-7-8(2)3/h8H,6-7H2,1-3H3
