15
gdb 68088	2.63981	1.69088	1.37805	1.2737	66.03	-0.2401	-0.0113	0.2288	948.6913	0.110354	-457.739744	-457.731566	-457.730621	-457.772232	31.121	
O	 0.1723971072	 1.4037801554	-0.1257940112	-0.48111
C	 0.1170205571	 0.0266187012	-0.080258881	 0.262826
C	-1.205864257	-0.8239586607	-0.0308286692	-0.333872
C	-0.2326231889	-1.9937390651	 0.3695912739	 0.262823
O	-0.6251062108	-3.2045362326	 0.9003170766	-0.481111
C	 0.6879301931	-2.0289475416	-0.8341659152	-0.126775
C	 0.9118474271	-0.7350799206	-1.1222580759	-0.126768
C	 0.5166335735	-0.8526314015	 1.1791865742	 0.284121
O	 0.9594340895	-0.6866074462	 2.2690822213	-0.314437
H	-0.0182051819	 1.7482124268	 0.7536636	 0.295197
H	-1.8912144489	-0.5266545753	 0.7717569684	 0.099612
H	-1.7146402268	-0.9491139348	-0.9883679732	 0.120746
H	-0.8525104843	-3.0743104475	 1.8275326296	 0.295196
H	 1.1326019539	-2.9259001477	-1.2398131215	 0.121775
H	 1.5904718074	-0.2801844997	-1.8289016766	 0.121775
110.94	117.7557	197.9085	264.7835	288.8728	309.6327	408.4182	451.7844	461.2402	602.2743	619.3267	640.7022	669.5057	709.428	797.7715	818.8024	854.6617	889.9188	901.1417	1007.8027	1032.1041	1050.9684	1082.4341	1090.7885	1143.7914	1245.5132	1300.7403	1302.5761	1406.1289	1414.524	1475.6407	1598.4632	1897.8863	3038.7408	3134.4418	3231.9428	3255.5678	3806.8647	3807.9013
OC12CC(O)(C=C1)C2=O	O[C@@]12C[C@@](O)(C=C1)C2=O	
InChI=1S/C6H6O3/c7-4-5(8)1-2-6(4,9)3-5/h1-2,8-9H,3H2	InChI=1S/C6H6O3/c7-4-5(8)1-2-6(4,9)3-5/h1-2,8-9H,3H2/t5-,6+
