19
gdb 111659	2.88008	1.30536	1.20209	2.8665	77.55	-0.2404	0.0137	0.2541	1138.6157	0.16052	-419.195932	-419.187684	-419.18674	-419.229022	31.287	
C	 0.049261599	 1.1646246518	-1.0182869297	-0.375765
C	-0.0381378053	 0.2941370134	 0.2333255863	-0.135256
N	-1.2877373738	-0.4705508653	 0.2179241129	-0.092299
C	-1.3845991249	-1.7902766189	-0.3710333358	-0.059936
C	-0.1122549316	-2.5944768386	-0.5716312392	-0.12502
O	 0.5256648039	-2.6763987455	 0.7149385655	-0.244099
C	-0.3280761813	-2.2701303971	 1.7115439214	 0.412073
N	-0.1215736322	-2.4345984507	 2.9461747201	-0.543995
C	-1.5207966271	-1.6068749149	 1.109313406	-0.120605
H	 0.9520030059	 1.7823621148	-0.9915850275	 0.1171
H	 0.0885435805	 0.5520340048	-1.9254343622	 0.113943
H	-0.8219988328	 1.8208563528	-1.0942130026	 0.129564
H	 0.8607369658	-0.3322363262	 0.3200051795	 0.110462
H	-0.0707404111	 0.9256069792	 1.1275248644	 0.118177
H	-2.2255709488	-1.9762154364	-1.032303172	 0.106866
H	-0.3464734894	-3.6061012124	-0.9234071926	 0.122935
H	 0.5979627396	-2.1390852028	-1.2694594011	 0.124736
H	 0.7479851843	-2.9488664066	 3.0988725237	 0.223617
H	-2.4485370409	-1.6165425512	 1.668832933	 0.117502
75.0705	110.7852	192.5782	204.8686	272.6891	282.3364	425.2456	447.418	480.5988	646.3742	709.6525	737.1261	772.8774	813.2174	849.6709	866.4892	900.4575	923.2225	964.8833	990.1597	1032.0822	1048.7961	1084.3403	1098.0195	1124.9176	1134.2074	1180.4692	1229.8342	1274.7469	1293.3381	1307.6597	1323.389	1373.84	1386.0602	1409.8568	1423.5852	1488.8477	1496.1676	1511.7116	1521.2981	1774.6269	3009.7169	3036.0502	3038.259	3067.8534	3080.2925	3106.6904	3121.8349	3155.7932	3189.3158	3470.9983
CCN1C2COC(=N)C12	CCN1[C@H]2CO[C]([NH])[C@@H]12	
InChI=1S/C6H10N2O/c1-2-8-4-3-9-6(7)5(4)8/h4-5,7H,2-3H2,1H3	InChI=1S/C6H10N2O/c1-2-8-4-3-9-6(7)5(4)8/h4-5,7H,2-3H2,1H3/t4-,5-,8?/m0/s1
