19
gdb 69362	3.28119	1.19545	1.04528	2.6929	76.91	-0.2617	-0.035	0.2268	1200.2607	0.157359	-423.014695	-423.005891	-423.004947	-423.047958	33.829	
C	 0.0169914474	 1.5541675681	 0.0729537358	-0.500049
C	 0.0384642433	 0.0545055548	 0.0120582523	 0.375129
C	-0.8856387813	-0.8295790819	 0.7968219577	-0.335339
C	 0.5980547894	-0.9667527248	 1.0168056483	-0.15161
C	 1.217018102	-1.7959662948	-0.1213434839	 0.344465
O	 0.8216679666	-3.1262163018	-0.2388865906	-0.48553
C	 0.608033137	-0.7611585012	-1.1541091969	-0.371045
C	 2.7224107257	-1.6996266927	-0.1170290607	 0.110031
O	 3.4296477058	-2.6749714938	-0.2049774216	-0.282499
H	 0.9917532685	 1.9813326754	-0.1901585485	 0.115555
H	-0.7227930441	 1.9680151628	-0.6227759597	 0.125449
H	-0.243144002	 1.9055400948	 1.076651761	 0.121467
H	-1.4125729934	-0.3434162624	 1.6121087293	 0.112249
H	-1.4399299043	-1.6316733809	 0.3177380002	 0.126479
H	 1.0464818982	-0.8105277111	 1.9918050591	 0.086916
H	 1.6411871476	-3.6440533502	-0.2910413421	 0.28975
H	-0.1161647442	-1.2118818878	-1.8379396509	 0.116215
H	 1.3690553134	-0.2328944527	-1.7367111372	 0.104516
H	 3.1441606242	-0.6774183198	-0.0312812315	 0.097852
90.085	99.8041	211.3676	227.3235	306.4754	322.2745	333.8016	388.4826	411.7982	418.5866	487.0091	542.9403	651.2658	770.1615	805.5046	838.296	875.5529	913.5397	951.5024	968.1975	984.321	1010.691	1032.8773	1068.3388	1083.3246	1094.2509	1111.14	1156.0081	1221.8128	1247.4296	1280.9191	1300.4641	1378.805	1396.6151	1428.8433	1435.3398	1475.0102	1486.1456	1498.4311	1506.4627	1807.9149	2929.1816	3021.2061	3048.4166	3078.347	3097.5215	3104.8833	3118.1218	3168.5797	3204.54	3682.7104
CC12CC1C(O)(C2)C=O	C[C@]12C[C@H]1[C@@](O)(C2)C=O	
InChI=1S/C7H10O2/c1-6-2-5(6)7(9,3-6)4-8/h4-5,9H,2-3H2,1H3	InChI=1S/C7H10O2/c1-6-2-5(6)7(9,3-6)4-8/h4-5,9H,2-3H2,1H3/t5-,6-,7-/m1/s1
