17
gdb 93558	3.15117	1.27798	0.9993	4.0715	70.23	-0.2564	-0.0073	0.2491	1160.3034	0.13633	-458.990886	-458.982586	-458.981641	-459.024057	30.931	
O	 0.6891588214	 0.2973875457	 1.1276955788	-0.434112
C	 0.0915570568	-0.2940980322	-0.0249247671	 0.076506
C	-1.3491135492	 0.210309685	-0.0086131569	-0.097524
O	-2.1691174603	-0.4661794918	-0.9607621159	-0.219632
C	-2.0975595492	-0.1717579083	-2.2821985682	 0.418578
O	-2.8224928737	-0.7432360933	-3.0476016584	-0.31408
C	-1.0920270529	 0.8886674208	-2.7258424669	-0.405326
C	 0.3547763544	 0.5840326772	-2.4026403457	-0.070368
C	 0.8457952035	 0.0685491732	-1.2772918443	-0.076575
H	 1.6271731675	 0.0828809357	 1.1279042317	 0.288936
H	 0.0663090491	-1.3919121223	 0.0811854941	 0.092971
H	-1.7890308296	-0.011071057	 0.9647346019	 0.137127
H	-1.3709147017	 1.2954180194	-0.1517341528	 0.122635
H	-1.2214315291	 0.9719132082	-3.8053379579	 0.141596
H	-1.385641007	 1.8592608125	-2.3027513835	 0.144326
H	 1.0504969735	 0.8013687626	-3.2089029457	 0.108223
H	 1.9182092765	-0.1202620953	-1.2268764531	 0.086718
75.2895	111.8828	167.2104	263.1814	286.3929	330.2728	364.6349	386.7549	473.1608	559.1334	589.8955	647.7707	712.5712	761.7989	860.1468	884.6175	961.084	972.8912	1006.4357	1052.4259	1066.9548	1091.1469	1106.3871	1166.423	1226.8305	1244.4917	1258.8845	1297.7099	1337.4608	1348.2796	1395.1281	1422.3297	1447.0756	1467.7267	1514.2221	1731.2653	1850.7462	2958.4772	3019.8054	3060.6286	3120.5281	3124.139	3129.4302	3163.6456	3824.6338
OC1COC(=O)CC=C1	O[C@H]1COC(=O)CC=C1	
InChI=1S/C6H8O3/c7-5-2-1-3-6(8)9-4-5/h1-2,5,7H,3-4H2	InChI=1S/C6H8O3/c7-5-2-1-3-6(8)9-4-5/h1-2,5,7H,3-4H2/t5-/m1/s1
