16
gdb 53523	2.66622	0.8525	0.67133	2.7426	78.45	-0.2596	-0.0551	0.2046	1629.7505	0.120819	-400.746015	-400.735707	-400.734763	-400.783769	33.833	
C	 0.0633283965	 1.4766698205	-0.0262880449	-0.499077
C	-0.0034859526	 0.0242404592	-0.0937550621	 0.135443
C	-0.0458911862	-1.1774924925	-0.144775799	 0.013782
C	-0.1327872804	-2.6293510614	-0.1984571519	-0.369447
C	-1.5585251093	-3.1521609012	 0.1063438471	-0.236435
C	-1.6986105507	-4.6589966394	-0.1797299795	 0.153521
O	-0.8775776301	-5.289531639	-0.784675686	-0.220666
C	-1.9977105909	-2.8754840051	 1.4737028768	 0.273901
N	-2.349106149	-2.7053709402	 2.5612512469	-0.306399
H	 1.0731054359	 1.8133486206	 0.232114295	 0.153802
H	-0.2047940784	 1.9338275198	-0.9849036437	 0.149873
H	-0.6215384619	 1.8680459763	 0.7336006728	 0.156331
H	 0.1421515787	-3.0084057539	-1.1878837438	 0.156516
H	 0.5677413337	-3.0890617647	 0.5076449841	 0.152915
H	-2.2707842171	-2.6539757174	-0.5689355913	 0.164435
H	-2.6355073882	-5.1148932316	 0.2010363994	 0.121507
26.6934	41.0026	73.2384	94.5116	165.31	203.9085	220.4922	257.4461	298.4011	385.1873	459.265	512.2901	565.6924	615.551	762.2414	806.5698	869.441	1025.4903	1035.3388	1053.16	1055.2235	1092.5216	1174.0114	1204.8457	1243.2931	1316.4663	1350.4981	1413.3538	1415.7601	1470.6229	1477.2725	1477.9072	1840.9182	2359.6208	2378.6749	2929.0934	3010.2155	3030.5312	3048.2977	3086.6079	3092.3791	3093.9995
CC#CCC(C=O)C#N	CC#CC[C@@H](C=O)C#N	
InChI=1S/C7H7NO/c1-2-3-4-7(5-8)6-9/h6-7H,4H2,1H3	InChI=1S/C7H7NO/c1-2-3-4-7(5-8)6-9/h6-7H,4H2,1H3/t7-/m1/s1
