16
gdb 15149	12.5895	0.61947	0.61732	0.3397	96.22	-0.2162	-0.0013	0.2149	1828.4545	0.129238	-309.418301	-309.409421	-309.408476	-309.453456	30.542	
C	-0.003194447	 1.485015887	-0.0013993727	-0.517617
C	 0.0067236133	 0.0331280553	-0.0020682711	 0.228098
C	 0.0148673445	-1.1777575856	-0.0023586769	-0.189969
C	 0.0243127377	-2.5367311501	-0.0025537062	-0.227372
C	 0.0255012483	-3.7493732482	 0.0021990519	 0.327519
C	 0.0408718859	-5.1781327068	-0.0035788818	-0.199911
C	-0.4111801388	-5.9566355492	 1.2256690037	-0.250773
C	-1.2663277285	-5.9609304477	-0.0042278496	-0.250743
H	 1.0157618112	 1.8888035358	-0.0120605803	 0.154186
H	-0.5268500894	 1.8815537535	-0.8788864916	 0.153377
H	-0.5052265355	 1.877695768	 0.890361409	 0.153909
H	 0.8550754987	-5.6243667128	-0.5680673918	 0.115385
H	 0.1487090279	-6.8511016238	 1.4740814323	 0.121064
H	-0.7446856334	-5.3767131661	 2.0776524549	 0.130875
H	-2.1830046628	-5.3839259836	 0.008994718	 0.130887
H	-1.3013256219	-6.8583992958	-0.6113357779	 0.121085
23.4312	69.6142	75.568	173.687	186.0085	320.4095	322.9143	436.1148	486.4382	545.5171	580.4737	594.9207	783.8753	819.2133	838.0479	886.392	967.2224	1047.826	1048.3781	1061.1884	1079.7808	1108.5702	1113.9051	1201.0782	1207.2053	1288.2733	1399.3397	1417.0735	1466.5045	1472.3465	1473.5207	1495.4518	2275.1272	2378.4287	3021.4721	3082.1274	3082.7741	3139.9758	3141.8391	3147.0311	3227.3271	3242.4012
CC#CC#CC1CC1	CC#CC#CC1CC1	
InChI=1S/C8H8/c1-2-3-4-5-8-6-7-8/h8H,6-7H2,1H3	InChI=1S/C8H8/c1-2-3-4-5-8-6-7-8/h8H,6-7H2,1H3
