22
gdb 101386	3.3297	0.99542	0.82361	1.9107	82.21	-0.2446	0.0265	0.271	1454.0897	0.194566	-404.374997	-404.365405	-404.364461	-404.410049	35.125	
C	-0.0877365692	 1.5652519304	-0.0526756554	-0.391143
C	-0.0153477907	 0.0349264762	-0.0697531714	-0.177189
C	 0.7841912836	-0.5531159224	-1.249742778	 0.013805
C	 2.2652448231	-0.1521526598	-1.20848332	-0.403223
C	 0.6285206638	-2.0774110537	-1.2659908248	 0.102594
C	-0.796394263	-2.6117493076	-1.5877186619	-0.202832
N	-0.6374871019	-3.4725549037	-2.773159725	-0.266592
C	 0.5890367844	-3.4038095416	-3.0784428128	 0.115262
O	 1.4361715328	-2.6545570909	-2.3368577803	-0.235929
H	 0.8977808762	 2.0215373826	 0.0770498521	 0.122137
H	-0.5134631161	 1.9510920415	-0.9856882585	 0.11681
H	-0.7207075301	 1.9135205511	 0.76924368	 0.1152
H	 0.4282662965	-0.3217726739	 0.8703224592	 0.096155
H	-1.037733586	-0.3615659425	-0.0908614828	 0.10259
H	 0.3459986129	-0.1760206587	-2.185889853	 0.076637
H	 2.8136568242	-0.6127682136	-2.032661604	 0.133108
H	 2.3877671737	 0.9315287003	-1.2832504221	 0.115282
H	 2.7305754243	-0.4774982131	-0.2698986097	 0.110403
H	 1.0190675211	-2.4946545369	-0.3296730034	 0.086992
H	-1.2274066069	-3.1872956029	-0.7631896509	 0.117946
H	-1.498258091	-1.8018084943	-1.8200176097	 0.114012
H	 1.0571020082	-3.9086526863	-3.9167618475	 0.137974
59.9244	81.1406	99.2521	173.4248	212.9069	231.0657	290.3019	322.7142	385.1287	421.6641	470.4293	530.9462	730.9232	775.9556	830.4628	862.1026	889.2152	957.8821	968.9993	973.7189	983.9372	990.0642	995.5061	1047.2874	1058.0856	1132.9073	1147.159	1167.1953	1185.4677	1228.4821	1282.5112	1306.9621	1316.7901	1328.9728	1343.32	1361.1279	1378.3431	1406.4686	1409.6055	1416.8981	1485.1701	1494.9853	1499.9095	1500.5334	1507.978	1512.3081	1712.4946	2996.4719	3012.9064	3028.7931	3032.507	3035.5402	3036.6949	3053.587	3078.6445	3101.1709	3102.8818	3112.9181	3131.6876	3211.9801
CCC(C)C1CN=CO1	CC[C@@H](C)[C@H]1CN=CO1	
InChI=1S/C7H13NO/c1-3-6(2)7-4-8-5-9-7/h5-7H,3-4H2,1-2H3	InChI=1S/C7H13NO/c1-3-6(2)7-4-8-5-9-7/h5-7H,3-4H2,1-2H3/t6-,7-/m1/s1
