15
gdb 35940	2.52242	1.55372	1.3253	2.6105	65.96	-0.2675	-0.0083	0.2593	992.1592	0.114191	-453.946042	-453.938364	-453.93742	-453.978651	27.895	
N	 0.0285452215	-1.1616838682	-0.4316092642	-0.318626
C	 0.0200675148	-0.0260620479	-0.2193089027	 0.264953
C	-0.0013741421	 1.4305690393	 0.0366425339	-0.04964
C	-0.8390671612	 1.7861927406	 1.2784738718	-0.167492
N	-0.394661802	 1.3248071445	 2.5753830925	-0.238949
C	 0.7950151839	 1.3781048854	 2.9872834756	 0.125766
O	 1.9496318631	 1.7469725662	 2.3620451398	-0.218564
C	 2.1704729881	 1.3877058379	 1.0061294891	 0.002069
O	 1.3045480784	 1.9812254542	 0.0850315797	-0.222699
H	-0.4775742226	 1.9028639626	-0.8293577723	 0.147054
H	-0.8974795724	 2.8826426127	 1.303800049	 0.137644
H	-1.855425471	 1.4137748847	 1.1114113563	 0.133216
H	 1.0059302956	 1.1490450125	 4.0313495687	 0.133994
H	 3.1669455539	 1.7617633862	 0.7735046288	 0.139681
H	 2.1334190621	 0.2931608791	 0.9234118841	 0.131593
88.4709	107.592	176.3298	239.2092	327.674	384.7668	391.063	484.6975	530.6824	607.0223	702.6977	792.1261	814.71	893.4368	940.4132	968.8132	989.4129	1029.5705	1064.2198	1095.4942	1163.302	1207.1928	1270.8881	1310.6119	1334.2545	1368.5663	1388.3758	1423.9143	1456.605	1470.1791	1503.7423	1760.0605	2355.8072	3023.1384	3024.1894	3065.0487	3074.3738	3146.2366	3149.3316
N#CC1CN=COCO1	N#C[C@H]1CN=COCO1	
InChI=1S/C5H6N2O2/c6-1-5-2-7-3-8-4-9-5/h3,5H,2,4H2	InChI=1S/C5H6N2O2/c6-1-5-2-7-3-8-4-9-5/h3,5H,2,4H2/t5-/m0/s1
