19
gdb 92490	2.58921	1.63193	1.62365	2.1775	69.32	-0.2486	0.0719	0.3206	952.723	0.162219	-460.169896	-460.162447	-460.161503	-460.201848	29.619	
O	-0.0403050612	 1.4288000816	-0.0885341733	-0.445069
C	 0.0160244501	 0.0129827131	 0.0062882456	 0.137454
C	 0.7062520744	-0.4946126745	 1.3040943452	-0.283694
C	-0.2919643718	-1.3877617048	 2.0547731937	 0.205743
O	-1.4159075185	-0.6408126902	 2.4606838298	-0.26972
C	-2.0897825479	-0.0446383336	 1.3389370853	-0.067062
C	-1.424708118	-0.5128346014	 0.039811683	-0.087568
C	-1.3681794503	-2.043668303	 0.0670746761	-0.071949
O	-0.6683441408	-2.481728608	 1.2391838212	-0.271093
H	 0.8550627278	 1.7709765016	-0.0036837838	 0.283838
H	 0.5241238457	-0.4006571613	-0.8777744013	 0.067111
H	 1.6159741939	-1.061551885	 1.0876242952	 0.106459
H	 0.9693223746	 0.3567079464	 1.939994566	 0.1074
H	 0.1333150695	-1.8197793802	 2.962401806	 0.087119
H	-3.1414903229	-0.3553272015	 1.3712385611	 0.099048
H	-2.0424979428	 1.0460973876	 1.4247319922	 0.117584
H	-1.9829493624	-0.1573555457	-0.8303373624	 0.082279
H	-2.3822374553	-2.4638774218	 0.0853795513	 0.104552
H	-0.8531309341	-2.4400533192	-0.8189171409	 0.097568
66.1165	223.026	278.2153	294.9313	327.921	389.1493	415.018	496.0695	560.8265	620.5691	689.4741	812.733	851.7247	856.0966	876.9661	939.0322	962.5283	970.5496	993.829	1027.1895	1064.443	1083.5765	1102.1377	1131.1098	1162.3778	1216.9108	1224.806	1228.3985	1233.5841	1295.2991	1321.3974	1349.3263	1354.8235	1360.0258	1389.09	1405.7602	1408.6624	1436.7046	1470.1146	1517.0637	1529.5702	2977.7787	3001.6283	3021.9496	3037.2555	3050.0051	3070.7554	3081.6413	3102.1825	3104.7395	3820.931
OC1CC2OCC1CO2	O[C@H]1C[C@H]2OC[C@@H]1CO2	
InChI=1S/C6H10O3/c7-5-1-6-8-2-4(5)3-9-6/h4-7H,1-3H2	InChI=1S/C6H10O3/c7-5-1-6-8-2-4(5)3-9-6/h4-7H,1-3H2/t4-,5-,6+/m0/s1
