17
gdb 43385	2.33868	1.94959	1.25885	4.8312	74.23	-0.2307	-0.0567	0.1741	1000.4006	0.137823	-421.833629	-421.826286	-421.825341	-421.865917	27.921	
O	-0.0310040048	 0.0314557323	-0.361373891	-0.33072
C	 0.0038264955	 1.2359880587	-0.2134601225	 0.382858
C	-1.1666862427	 2.0101884991	 0.2428579532	-0.15296
C	-1.2559963041	 3.3381846196	 0.0922003038	-0.044467
C	-0.1882138113	 4.1888199398	-0.537224469	-0.299371
C	 1.2042680063	 3.5612582529	-0.4848103611	-0.080657
C	 1.8901089057	 3.4812054657	 0.8963254857	-0.076107
O	 2.0444739929	 2.0508657567	 0.7915607598	-0.285456
C	 1.2992600144	 2.0123760808	-0.4537659253	 0.017586
H	-1.9918613129	 1.4263734423	 0.6391095747	 0.112906
H	-2.1710093431	 3.8468311942	 0.3888181274	 0.111222
H	-0.4793514593	 4.3899193847	-1.5785074096	 0.129981
H	-0.1640204633	 5.1738538575	-0.0533971002	 0.119386
H	 1.8507089959	 4.002871876	-1.2453573355	 0.09041
H	 2.8558371723	 3.9897672729	 0.9945552894	 0.107969
H	 1.2490447167	 3.7622860651	 1.7424909664	 0.103281
H	 1.8692458817	 1.5224937418	-1.249620116	 0.094139
66.9085	116.3268	221.7066	310.441	340.1123	440.5614	474.7844	511.7981	654.5762	715.8369	725.9005	839.5617	856.0103	887.466	917.0083	926.1412	990.8875	1009.4979	1026.3214	1031.6529	1083.6528	1114.9468	1151.0312	1162.7415	1221.3116	1262.1853	1265.7863	1286.0261	1319.7523	1348.1941	1359.4123	1390.4804	1413.7707	1468.062	1520.8459	1684.3804	1779.1871	3005.5546	3010.2045	3040.1702	3058.2381	3059.6783	3092.1627	3149.1979	3186.8209
O=C1C=CCC2COC12	O=C1C=CC[C@H]2CO[C@@H]12	
InChI=1S/C7H8O2/c8-6-3-1-2-5-4-9-7(5)6/h1,3,5,7H,2,4H2	InChI=1S/C7H8O2/c8-6-3-1-2-5-4-9-7(5)6/h1,3,5,7H,2,4H2/t5-,7+/m0/s1
