18
gdb 117439	5.05842	0.6064	0.54699	1.5446	76.78	-0.2608	0.0211	0.2819	1939.6031	0.144401	-439.041319	-439.030916	-439.029971	-439.078071	36.02	
O	-0.3455370386	 1.4631238904	 0.0138723111	-0.424783
C	-0.0285416523	 0.0774156641	 0.0035231486	-0.074097
C	-1.3528097373	-0.6726776969	 0.0112323593	-0.265285
C	-1.2001727343	-2.1694581519	 0.0015888117	 0.436055
N	-0.0655113573	-2.7352282338	-0.0126480699	-0.534376
O	-2.4355641367	-2.7489073305	 0.0104968494	-0.240388
C	-2.4917017734	-4.174902483	 0.0030656079	-0.267679
C	-3.8832014663	-4.5959971373	 0.014406462	 0.279891
C	-5.0209137861	-4.9779324407	 0.0236184371	-0.386029
H	 0.4801480392	 1.9552392095	 0.0094929542	 0.286489
H	 0.5514445467	-0.2020952764	-0.8866694981	 0.102798
H	 0.5671708035	-0.2116812665	 0.8801759473	 0.102747
H	-1.9384735057	-0.3836324486	 0.8915994281	 0.134806
H	-1.9539994115	-0.3739956873	-0.8553603373	 0.134824
H	-0.1099685128	-3.7519554326	-0.0178139396	 0.224355
H	-1.9847377114	-4.5660796271	-0.8906262644	 0.141825
H	-1.9672640456	-4.576017806	 0.8821539363	 0.14183
H	-6.02982683	-5.3099707553	 0.0323450763	 0.207016
43.0092	76.1065	90.3446	91.0197	150.65	188.9513	263.5247	303.3905	339.3476	342.1503	407.854	535.7864	547.5554	621.3871	682.6699	686.0843	805.5696	853.8676	929.2118	979.8868	1002.4102	1040.1687	1047.8017	1075.8347	1098.5656	1122.7146	1212.4142	1231.6357	1257.1521	1279.6679	1300.8948	1368.9359	1416.3401	1463.7609	1472.3875	1502.0523	1522.6922	1730.527	2253.4727	2996.0271	3002.9005	3027.4702	3033.0376	3047.2746	3082.9032	3504.4848	3516.0629	3836.5364
OCCC(=N)OCC#C	OCC[C]([NH])OCC#C	
InChI=1S/C6H9NO2/c1-2-5-9-6(7)3-4-8/h1,7-8H,3-5H2	InChI=1S/C6H9NO2/c1-2-5-9-6(7)3-4-8/h1,7-8H,3-5H2
