16
gdb 124090	5.03069	1.07694	1.01908	1.4518	70.93	-0.2565	-0.0122	0.2443	1165.6135	0.127225	-434.041296	-434.034072	-434.033128	-434.074221	26.06	
C	-0.0081364211	 1.4814319806	-0.1482392788	-0.086145
O	 1.4031948279	 1.5555841719	 0.1328954741	-0.269975
C	 1.4448752109	 0.17602285	 0.5469622045	-0.086131
C	 0.0028477704	-0.0520219649	 0.041002816	 0.020983
N	-0.9550636092	-0.6340820396	 0.9501106117	 0.116589
N	-1.1372465644	-0.178409849	 2.1854495061	-0.224333
C	-2.0871478838	-0.97479572	 2.6774112235	-0.053821
C	-2.4480632369	-1.9020930929	 1.6904112537	-0.064387
N	-1.7164459822	-1.6686697003	 0.5999301306	-0.218638
H	-0.6116496999	 2.0045723084	 0.6021117174	 0.126413
H	-0.2526708071	 1.8483200736	-1.1506536043	 0.113552
H	 2.2354376547	-0.3870422105	 0.039805913	 0.113552
H	 1.5431873122	 0.0686138332	 1.6331173411	 0.126391
H	-0.071626337	-0.6254878019	-0.8801424423	 0.126544
H	-2.4531664165	-0.84652366	 3.6834994672	 0.129648
H	-3.174014708	-2.6988579187	 1.7121384366	 0.129757
49.7748	91.1503	139.5989	247.7134	392.7444	408.9382	625.2325	680.174	701.4974	849.718	850.5696	884.0848	899.1854	932.3125	981.3302	992.4882	1029.9397	1037.9835	1054.4806	1099.8636	1109.6997	1159.0356	1167.7518	1203.7951	1257.3326	1272.753	1301.5447	1308.5502	1367.4939	1394.6404	1433.1422	1445.4053	1502.4233	1509.2153	1530.3039	3027.3607	3037.4395	3084.8735	3085.2248	3152.3753	3264.4304	3281.876
C1OCC1N1N=CC=N1	C1OCC1n1nccn1	
InChI=1S/C5H7N3O/c1-2-7-8(6-1)5-3-9-4-5/h1-2,5H,3-4H2	InChI=1S/C5H7N3O/c1-2-7-8(6-1)5-3-9-4-5/h1-2,5H,3-4H2
