18
gdb 56435	3.33832	0.9847	0.88214	2.1789	79.62	-0.2549	-0.031	0.2239	1363.7428	0.1456	-401.90379	-401.894185	-401.893241	-401.939044	34.469	
C	-0.3151645276	 1.544015474	 0.1833523659	-0.393395
C	 0.0606259083	 0.0413456312	 0.0833024328	-0.29319
C	 0.8660021497	-0.3860142346	 1.2190023339	 0.346773
C	 1.5454151332	-0.718735338	 2.1517187485	-0.448173
C	-1.2402543334	-0.769148116	-0.048317833	 0.395376
O	-1.8224525448	-1.2369245618	 0.9042486257	-0.330217
C	-1.783170282	-0.9183209147	-1.435193283	-0.10165
C	-2.1831292454	-2.310000236	-1.8319071027	-0.22175
N	-3.1952381847	-1.2979221189	-1.5712646036	-0.304571
H	 0.5911654166	 2.1516199361	 0.229168989	 0.138376
H	-0.9022941353	 1.8577350092	-0.6847862893	 0.128508
H	-0.9017928919	 1.7223927869	 1.0874946585	 0.149644
H	 0.6360253262	-0.1025386687	-0.841047044	 0.117639
H	 2.1386857864	-1.0238986567	 2.9778826068	 0.199366
H	-1.3991491101	-0.2459032433	-2.1966079377	 0.101051
H	-2.0706999972	-2.6068379992	-2.8705554343	 0.128949
H	-2.0244117531	-3.092205077	-1.0949109891	 0.136988
H	-3.5513908649	-1.4339360925	-0.6237566345	 0.250277
35.2038	83.1528	130.5555	183.6811	223.0742	226.8748	273.8845	281.2369	361.1578	412.4398	522.8394	634.6423	645.6543	694.0606	749.0104	800.8045	846.1489	856.3096	901.9037	969.0915	1005.0056	1023.0668	1049.9041	1068.2858	1121.0801	1133.7586	1144.7856	1184.0308	1279.4672	1293.678	1321.6435	1350.0895	1398.845	1406.8006	1490.5289	1497.7886	1499.72	1794.8125	2244.6894	3018.9394	3048.5416	3113.979	3125.0725	3139.1332	3153.9983	3208.4768	3458.4284	3504.7293
CC(C#C)C(=O)C1CN1	C[C@@H](C#C)C(=O)[C@H]1CN1	
InChI=1S/C7H9NO/c1-3-5(2)7(9)6-4-8-6/h1,5-6,8H,4H2,2H3	InChI=1S/C7H9NO/c1-3-5(2)7(9)6-4-8-6/h1,5-6,8H,4H2,2H3/t5-,6+/m0/s1
