19
gdb 81458	2.274	1.98141	1.67177	0.5749	72.87	-0.2444	0.0593	0.3037	932.4017	0.161046	-422.992331	-422.98508	-422.984136	-423.023642	29.464	
C	-0.3831326252	 1.6225759119	-0.0134113927	-0.440591
C	 0.0073401018	 0.1534788706	 0.0435790733	 0.038898
C	 1.032445731	-0.5265838673	-0.8983431446	 0.058316
C	 2.346973743	 0.2535802126	-1.085009235	-0.258069
C	 2.9715867669	 0.5775435732	 0.2667905559	 0.056648
O	 2.3365028344	 1.5682040238	 1.0857240779	-0.251234
C	 2.1960813923	 0.1894953775	 1.453005357	 0.045348
C	 0.8929820617	-0.5334967621	 1.1200570867	 0.017214
O	 1.244379409	-1.5465810429	 0.1230212976	-0.299796
H	 0.4741397915	 2.2912037621	-0.0354318611	 0.146879
H	-1.0026257204	 1.8026472236	-0.8996968751	 0.108504
H	-0.9887347472	 1.8870514158	 0.8606261089	 0.116895
H	-0.9003694917	-0.4564692508	-0.0091088206	 0.090946
H	 0.6761568292	-0.9547755383	-1.8395901114	 0.075928
H	 3.0467880104	-0.3807473321	-1.6403394058	 0.113686
H	 2.1913177265	 1.1619905024	-1.6789728063	 0.113985
H	 4.0584726784	 0.6042372648	 0.3142854651	 0.098124
H	 2.6978434381	-0.0855157824	 2.3786909125	 0.096198
H	 0.4116983005	-0.9720283626	 1.9976547979	 0.072119
154.1454	177.4112	253.2069	291.574	360.9017	409.9247	454.2667	551.8065	623.2593	634.5794	750.3023	771.4194	840.3447	858.4808	872.7286	898.2812	916.9139	946.1457	975.6902	1029.7211	1054.2858	1059.5376	1090.6397	1114.1571	1137.4512	1177.1286	1181.924	1234.0585	1242.8099	1283.8368	1310.9569	1323.7003	1344.16	1360.6272	1384.0927	1403.5275	1415.7146	1456.5764	1463.3257	1491.865	1510.3469	3034.3274	3037.289	3050.812	3070.4879	3080.148	3081.5804	3086.8102	3124.5915	3136.4007	3176.8965
CC1C2CC3OC3C1O2	C[C@H]1[C@H]2C[C@H]3O[C@H]3[C@@H]1O2	
InChI=1S/C7H10O2/c1-3-4-2-5-7(9-5)6(3)8-4/h3-7H,2H2,1H3	InChI=1S/C7H10O2/c1-3-4-2-5-7(9-5)6(3)8-4/h3-7H,2H2,1H3/t3-,4+,5+,6+,7+/m0/s1
