20
gdb 15677	3.05585	1.75632	1.18722	1.086	78.14	-0.2304	0.0293	0.2597	1060.8232	0.17668	-349.014428	-349.005703	-349.004759	-349.047853	31.814	
C	 0.055480141	 1.4164845128	-0.1141165124	-0.23804
O	 0.0223992448	 0.0182068728	 0.0520032967	-0.248317
C	-1.2828466158	-0.5532189842	 0.0966234541	 0.049203
C	-1.2807466755	-1.9164313941	-0.6251465258	-0.23593
C	-2.2193372687	-2.8262698681	 0.2006534622	-0.256983
C	-2.2640488722	-2.1293221229	 1.5383603937	-0.169597
C	-1.7555610312	-0.896506291	 1.5025145355	 0.333454
C	-1.6525643901	 0.0825998583	 2.6285749442	-0.502548
H	 1.1068946026	 1.7059818396	-0.194442835	 0.124113
H	-0.4664347864	 1.7314703041	-1.0313588508	 0.103685
H	-0.3894618498	 1.9570299335	 0.73436499	 0.102663
H	-1.9881149396	 0.1514350959	-0.3764876812	 0.061616
H	-1.5602361574	-1.8394745332	-1.6786556913	 0.093294
H	-0.2544927075	-2.2930527522	-0.5801122817	 0.119191
H	-3.2221017103	-2.8833628343	-0.2459013717	 0.103561
H	-1.8577148747	-3.8588064971	 0.2685151845	 0.101919
H	-2.6976771431	-2.5889877077	 2.4213715375	 0.083374
H	-2.007721143	-0.3482325701	 3.5687963533	 0.119602
H	-0.6138262864	 0.4030531159	 2.768997912	 0.136549
H	-2.2399537468	 0.9887022918	 2.4291448062	 0.11919
70.1261	90.4904	166.0285	209.943	232.4015	252.0618	293.8993	378.0702	407.0393	560.0319	591.5164	666.3336	799.2085	851.4955	881.9813	929.0614	955.1955	977.7284	1034.1002	1036.8477	1063.0491	1080.4038	1146.1127	1165.1527	1182.0552	1195.2637	1225.1227	1246.4674	1279.8172	1302.5597	1327.6613	1349.9649	1386.2446	1409.0775	1477.2557	1478.8017	1483.0975	1487.3928	1497.097	1500.5891	1512.2756	1723.7585	2947.0615	2975.4818	3007.7194	3015.9048	3022.8407	3047.845	3063.8308	3069.7786	3105.3382	3109.2683	3109.7796	3175.8084
COC1CCC=C1C	CO[C@H]1CCC=C1C	
InChI=1S/C7H12O/c1-6-4-3-5-7(6)8-2/h4,7H,3,5H2,1-2H3	InChI=1S/C7H12O/c1-6-4-3-5-7(6)8-2/h4,7H,3,5H2,1-2H3/t7-/m0/s1
