21
gdb 63537	3.02431	1.30282	1.17562	2.4267	82.74	-0.2185	0.0691	0.2876	1164.5128	0.181953	-383.202929	-383.194061	-383.193117	-383.236015	34.528	
C	-0.0820250069	 1.5286552695	-0.012048855	-0.437827
C	-0.0752609183	 0.0154232375	 0.0585147759	 0.241472
C	-1.2619751963	-0.6650949697	-0.5922722415	-0.461592
N	 1.2705395547	-0.5922507969	-0.1133483246	-0.428552
C	 0.6069684224	-0.6663253431	 1.1867178599	 0.33214
C	 1.2739339699	-0.17274982	 2.4757915921	-0.246743
N	 0.9683160874	-1.4777063568	 3.1760443221	-0.125552
C	-0.4984726053	-1.6066616886	 3.1652155701	-0.237923
C	 0.237550691	-1.9338203132	 1.9241185936	-0.132099
H	 0.8146125823	 1.9443013088	 0.4533255107	 0.128091
H	-0.1060177133	 1.8663625585	-1.0544256322	 0.118436
H	-0.9616563751	 1.9411173108	 0.495064754	 0.111442
H	-1.2916117025	-0.4499244561	-1.6669926138	 0.122255
H	-1.2251773235	-1.7511355649	-0.4634438271	 0.114198
H	-2.2044329444	-0.3102209634	-0.1602121048	 0.122622
H	 1.1948790084	-1.4870692233	-0.5949847445	 0.22278
H	 2.3528500043	-0.0464889632	 2.3667688508	 0.125728
H	 0.846449097	 0.7030200838	 2.9761309502	 0.102279
H	-0.8560740748	-2.4308452006	 3.7754719383	 0.12175
H	-1.1117491267	-0.7082743755	 3.206626559	 0.111062
H	 0.3374709594	-2.9462155737	 1.5428315168	 0.096034
109.5726	157.0446	163.9578	185.6094	210.2383	304.5193	365.4197	413.9905	439.0023	469.0038	495.3076	567.5879	706.9702	751.7193	783.1967	813.3221	883.3444	942.3019	959.8141	969.1959	980.0977	996.411	1030.8036	1053.6439	1066.3094	1087.4262	1110.0301	1116.1049	1155.5825	1171.2715	1199.6372	1222.31	1261.9986	1277.1904	1317.1678	1342.6288	1410.2288	1421.08	1461.6203	1476.0189	1485.9255	1488.4367	1496.8609	1503.4183	1518.5813	3023.6317	3030.1958	3043.1501	3084.4241	3089.8654	3098.3507	3103.0509	3116.9564	3123.5502	3147.7481	3192.3402	3472.8451
CC1(C)NC11CN2CC12	CC1(C)N[C@]21CN1C[C@@H]21	
InChI=1S/C7H12N2/c1-6(2)7(8-6)4-9-3-5(7)9/h5,8H,3-4H2,1-2H3	InChI=1S/C7H12N2/c1-6(2)7(8-6)4-9-3-5(7)9/h5,8H,3-4H2,1-2H3/t5-,7+,9?/m0/s1
