23
gdb 100274	1.83446	1.334	1.11925	2.1935	81.67	-0.2318	-0.0132	0.2186	1309.5689	0.201274	-425.456666	-425.445095	-425.444151	-425.493332	41.767	
C	 0.2464363284	 1.5702864244	-0.0588651857	-0.402531
C	 0.0948820857	 0.049079596	 0.0481967253	-0.176401
C	-1.3653976388	-0.4396024077	 0.0139231228	 0.241407
O	-1.927671659	 0.042974141	-1.207346354	-0.462365
C	-1.4724381357	-1.9811591511	 0.0996235239	-0.213539
C	-0.7870360268	-2.7411166711	-1.0396491039	-0.399237
C	-2.1059574155	 0.134421895	 1.248509288	 0.36676
C	-3.3380125219	 0.9847701985	 1.009978222	-0.4876
O	-1.7010636471	-0.1124783924	 2.3623589611	-0.322985
H	 1.3045453312	 1.8480932133	-0.0694759678	 0.112405
H	-0.2130901065	 1.9454333363	-0.9767324193	 0.133246
H	-0.216429942	 2.0823596612	 0.7915471979	 0.120166
H	 0.6305711504	-0.4260859826	-0.7786123825	 0.101642
H	 0.5372763311	-0.3081405694	 0.9827923271	 0.118222
H	-2.7510107542	-0.4275590672	-1.3725786165	 0.279057
H	-1.0786439166	-2.2914809028	 1.0718043623	 0.127623
H	-2.5421169421	-2.2415824494	 0.11351442	 0.083138
H	-1.1042384036	-2.3598780116	-2.0147573078	 0.120862
H	 0.3019099128	-2.6586322805	-0.9872428485	 0.126421
H	-1.0383422985	-3.8048413212	-0.9915733504	 0.114229
H	-3.1049325594	 1.8174737119	 0.3406892528	 0.155134
H	-4.1200629778	 0.398001304	 0.5129225891	 0.125811
H	-3.715991504	 1.3485945254	 1.966034234	 0.138535
46.3946	92.5309	113.9713	149.983	174.4128	188.0187	210.3229	243.0981	278.936	281.8835	324.3169	350.6568	371.4739	466.1073	503.5325	575.935	602.4144	675.4982	778.379	791.8845	880.7641	916.2769	973.449	981.2667	1018.6962	1039.0931	1057.5807	1083.9166	1120.3834	1142.8899	1196.2491	1229.7692	1274.6889	1325.0808	1346.4275	1367.5639	1375.9816	1383.3513	1408.578	1410.6177	1455.4054	1469.1453	1471.3726	1488.0738	1497.4621	1502.3153	1508.1688	1510.7862	1800.2243	2991.1206	3036.585	3040.1373	3044.1114	3056.2396	3086.9515	3095.8793	3104.1993	3107.1748	3112.3328	3120.3475	3127.1481	3156.6287	3814.855
CCC(O)(CC)C(C)=O	CCC(O)(CC)C(=O)C	
InChI=1S/C7H14O2/c1-4-7(9,5-2)6(3)8/h9H,4-5H2,1-3H3	InChI=1S/C7H14O2/c1-4-7(9,5-2)6(3)8/h9H,4-5H2,1-3H3
