25
gdb 103075	2.05522	1.32844	1.11633	1.3367	89.4	-0.2359	0.0725	0.3084	1314.0362	0.225574	-389.486125	-389.474554	-389.47361	-389.52196	43.076	
C	 0.2711847369	 1.4470565795	 0.3243967825	-0.384828
C	-0.2185798752	 0.0807250532	-0.1783485813	-0.234017
C	 0.5937793688	-0.4815194064	-1.3447504484	 0.26793
C	 0.4131869873	 0.317290823	-2.6283270104	-0.462919
C	 1.9596633753	-1.0571112825	-1.061877458	 0.007306
O	 2.4219595778	-0.987895874	 0.2600290542	-0.41932
C	 0.8291875915	-2.0017317302	-1.4395907461	 0.216014
C	 0.2732950723	-2.9207094217	-0.3622891574	-0.462909
C	 0.8774587658	-2.6756371953	-2.8022280189	-0.453247
H	 1.3070905827	 1.3776389785	 0.666862416	 0.137107
H	 0.2180663434	 2.2194403935	-0.4490176051	 0.109513
H	-0.3430105953	 1.787180797	 1.1646186805	 0.104025
H	-0.2072534489	-0.6118626454	 0.6636489104	 0.103643
H	-1.267200072	 0.1601612895	-0.496632859	 0.085421
H	 0.5973425333	 1.3817774883	-2.4521032383	 0.119272
H	 1.0947485709	 0.0049160889	-3.4217829323	 0.11176
H	-0.6099004651	 0.2193074201	-3.0109602034	 0.112792
H	 2.7351461347	-0.8864712961	-1.8117334775	 0.070749
H	 2.9657128527	-1.7647078886	 0.4286275988	 0.286834
H	 0.4998349946	-2.5672441456	 0.6444813264	 0.128974
H	-0.8133807398	-3.0333938306	-0.4498940664	 0.115345
H	 0.7108527786	-3.92132083	-0.4635009781	 0.103842
H	 1.4056147803	-3.6341866567	-2.7319687448	 0.108684
H	-0.1310411838	-2.886946944	-3.1783621757	 0.114717
H	 1.3913705431	-2.0774941244	-3.5572964978	 0.11331
71.585	127.5296	144.8483	155.7392	165.0116	211.2221	225.1068	253.3005	283.2828	312.6282	317.1489	327.4536	380.2868	386.7212	447.6233	549.4639	573.197	682.8471	704.107	780.1264	840.6232	928.9411	968.3489	973.9905	1010.7526	1017.1422	1034.0898	1051.8885	1079.3966	1123.5447	1134.0923	1161.4764	1200.9682	1219.4059	1278.9575	1300.4459	1314.6574	1343.6385	1372.9262	1404.6853	1405.8	1414.3029	1424.6119	1456.4971	1479.543	1485.8836	1489.3976	1492.6131	1499.973	1507.2028	1512.312	1513.1918	1521.6699	3014.2969	3020.0811	3025.8563	3031.6464	3039.6405	3069.1944	3072.2566	3076.7822	3088.9755	3097.0368	3111.9494	3115.241	3125.4096	3129.1059	3135.711	3800.336
CCC1(C)C(O)C1(C)C	CC[C@@]1(C)[C@@H](O)C1(C)C	
InChI=1S/C8H16O/c1-5-8(4)6(9)7(8,2)3/h6,9H,5H2,1-4H3	InChI=1S/C8H16O/c1-5-8(4)6(9)7(8,2)3/h6,9H,5H2,1-4H3/t6-,8-/m0/s1
