19
gdb 94747	3.90455	1.14374	1.00284	1.8736	82.59	-0.2497	0.0276	0.2773	1232.2752	0.158482	-385.860367	-385.851814	-385.85087	-385.893194	33.302	
C	 0.0595609178	 1.5807658504	 0.0256414576	-0.404283
C	 0.0350516258	 0.0510879908	-0.0061350723	 0.003613
C	 0.8072432708	-0.5669845986	-1.2013581253	-0.239661
C	 1.2790327516	-1.9615365575	-0.7330736009	-0.307434
C	 1.4246754703	-1.8109632074	 0.7764991924	 0.259858
O	 2.1197517285	-0.5980347621	 1.1511146971	-0.299425
C	 0.6890559885	-0.6017913444	 1.1994589832	-0.021423
C	 1.635088749	-2.9615190132	 1.6072259208	 0.182407
C	 1.8107376218	-3.9532596292	 2.2636704734	-0.348328
H	 1.0879089948	 1.9436378054	 0.1218877487	 0.131744
H	-0.3635044776	 1.998832166	-0.8934181481	 0.115936
H	-0.5190124011	 1.9740613582	 0.868094268	 0.113912
H	-1.0091634918	-0.2921355391	-0.0272053304	 0.077062
H	 0.1951844102	-0.6167040105	-2.1052290224	 0.100052
H	 1.6753510989	 0.0575782897	-1.4263511812	 0.118007
H	 0.5266306436	-2.7331804581	-0.9318559308	 0.113506
H	 2.2113397017	-2.280314762	-1.20761411	 0.116431
H	 0.2581059933	-0.5092646239	 2.1939320558	 0.098292
H	 1.9682080036	-4.8207583044	 2.8556575743	 0.189732
107.2757	136.8273	161.9394	234.9396	257.5058	315.195	384.6133	437.9692	521.9051	536.0264	577.9286	615.8288	625.3174	668.2168	690.8184	822.9684	851.5063	872.684	929.0743	952.6035	973.6372	996.0361	1035.4811	1061.4594	1129.3053	1142.8533	1186.4052	1210.1822	1225.979	1284.5998	1315.3109	1324.6314	1336.8987	1368.7779	1405.9497	1430.8463	1482.4532	1493.8941	1498.72	1502.6461	2241.3787	3007.76	3032.8004	3047.1932	3067.4272	3093.8167	3100.0074	3107.6254	3115.0314	3143.0807	3502.1183
CC1CCC2(OC12)C#C	C[C@H]1CC[C@]2(O[C@@H]12)C#C	
InChI=1S/C8H10O/c1-3-8-5-4-6(2)7(8)9-8/h1,6-7H,4-5H2,2H3	InChI=1S/C8H10O/c1-3-8-5-4-6(2)7(8)9-8/h1,6-7H,4-5H2,2H3/t6-,7-,8+/m0/s1
