20
gdb 38361	2.29848	2.02624	1.38247	2.248	78.59	-0.244	0.0108	0.2548	993.9861	0.173881	-403.135327	-403.127907	-403.126963	-403.16692	30.076	
C	-0.0611519756	 1.4526896925	-0.0835406458	-0.259079
C	 1.4535615432	 1.7525056315	 0.1225855362	 0.00853
C	 1.6172317747	 0.2897753933	 0.6389864657	-0.253043
C	 0.2409415799	-0.0639506255	 0.018207302	 0.13447
O	 0.2657089642	-0.7904886686	-1.2236166948	-0.255889
C	 0.2859885336	-0.1525900113	-2.4328448193	 0.100229
N	 1.1317151	 0.6455832077	-2.9176451002	-0.21714
C	 2.3596036106	 0.9816205901	-2.2064146998	-0.158267
C	 2.2436008382	 2.0904224748	-1.1475785397	-0.214739
H	-0.6642137276	 1.7765792254	 0.7686748735	 0.10301
H	-0.5306536517	 1.814430219	-1.0003759749	 0.117941
H	 1.6555674432	 2.5263106736	 0.8683499928	 0.069304
H	 2.475645776	-0.291429019	 0.2958945128	 0.110418
H	 1.5731560012	 0.2297941003	 1.7300358464	 0.102039
H	-0.4247393031	-0.6533009419	 0.6521797538	 0.089323
H	-0.5630976802	-0.4600900761	-3.0464237769	 0.109665
H	 2.7923738729	 0.0812764755	-1.7485081303	 0.104756
H	 3.0728855198	 1.3239518451	-2.9632336246	 0.103186
H	 1.811856493	 2.986339986	-1.6114169721	 0.106961
H	 3.2690227978	 2.3533191276	-0.8573103149	 0.098324
110.3048	208.2015	258.4278	286.6569	334.1598	401.6017	425.2687	492.7439	577.356	709.3773	747.7015	765.5376	796.9126	832.1767	850.5804	921.0913	928.2141	957.1469	980.5472	1002.1543	1033.0989	1060.0931	1089.2933	1100.3722	1119.8635	1158.7789	1180.4792	1205.8292	1237.7107	1265.7717	1280.0295	1293.1379	1312.6388	1356.5733	1389.0101	1391.3937	1397.9822	1422.2474	1460.8604	1474.0815	1485.302	1510.2055	1735.5203	3007.7205	3017.7712	3055.3178	3059.3642	3062.8051	3063.7299	3069.4996	3084.9949	3114.6801	3118.8921	3123.5725
C1C2CC1OC=NCC2	C1[C@H]2C[C@@H]1OC=NCC2	
InChI=1S/C7H11NO/c1-2-8-5-9-7-3-6(1)4-7/h5-7H,1-4H2/b8-5-	InChI=1S/C7H11NO/c1-2-8-5-9-7-3-6(1)4-7/h5-7H,1-4H2/b8-5-/t6-,7+
