23
gdb 94626	3.73425	0.73788	0.66147	0.8964	92.09	-0.2555	0.0583	0.3138	1754.9045	0.20447	-351.118614	-351.108495	-351.107551	-351.154119	37.864	
C	-0.1195800375	 1.5571109997	-0.1659718221	-0.393044
C	-0.0043802636	 0.037798418	-0.0642555777	-0.012797
C	 1.1800361575	-0.5563425138	-0.8844379523	-0.224111
C	 2.0082616997	-0.6588516849	 0.423962274	-0.226895
C	 0.6849100713	-0.51714542	 1.2299588793	 0.051722
C	 0.6739771606	 0.2916445041	 2.5203013158	-0.209831
C	 1.4810622529	-0.3955665767	 3.6432405575	-0.3591
C	 1.496820365	 0.3666177254	 4.8856384976	 0.292569
C	 1.4936443501	 1.0161136248	 5.8973232791	-0.436394
H	 0.8434894238	 2.053593009	-0.0034845555	 0.113956
H	-0.4695294612	 1.8440803711	-1.1636244952	 0.11184
H	-0.829095577	 1.9609335324	 0.5639547769	 0.115289
H	-0.9819719475	-0.4076551422	-0.2745460101	 0.063041
H	 0.9445384896	-1.5399852789	-1.3000157223	 0.097766
H	 1.5838615128	 0.0688381056	-1.6856953109	 0.092962
H	 2.6029090258	-1.5628900713	 0.5768700652	 0.094075
H	 2.662714844	 0.2079958354	 0.5643735934	 0.0989
H	 0.2823685387	-1.5172964886	 1.4352776582	 0.066418
H	 1.0902841139	 1.2906565175	 2.3509051415	 0.106806
H	-0.356518678	 0.4386234455	 2.8661001385	 0.105982
H	 1.0643844737	-1.3938782062	 3.8324981227	 0.126821
H	 2.5121189822	-0.5591005309	 3.3035463156	 0.132961
H	 1.4978570532	 1.5802778351	 6.7965258209	 0.191065
60.9246	88.7245	97.0378	128.6304	203.5512	251.2504	263.5408	340.179	360.8088	391.7339	432.1728	544.8877	613.6485	632.1759	675.4341	755.0042	781.0542	807.7944	884.7908	909.4334	918.1366	956.84	963.5427	994.7972	1013.0827	1044.2221	1084.3059	1124.0191	1141.2101	1169.428	1210.9777	1221.9027	1257.0198	1264.8746	1269.7625	1284.8254	1302.8397	1318.968	1362.824	1369.1405	1394.7179	1410.872	1472.4512	1482.5174	1490.8117	1498.4749	1500.711	1504.1582	2237.8863	3014.4862	3017.256	3026.7019	3033.6883	3043.6434	3044.6326	3045.5086	3056.7715	3080.8348	3092.1631	3093.9545	3096.18	3110.2841	3507.9717
CC1CCC1CCC#C	C[C@H]1CC[C@H]1CCC#C	
InChI=1S/C9H14/c1-3-4-5-9-7-6-8(9)2/h1,8-9H,4-7H2,2H3	InChI=1S/C9H14/c1-3-4-5-9-7-6-8(9)2/h1,8-9H,4-7H2,2H3/t8-,9+/m0/s1
