20
gdb 107033	3.52695	1.18352	1.00344	1.2259	80.12	-0.2266	0.0136	0.2402	1238.1045	0.171226	-403.126492	-403.11753	-403.116586	-403.160104	33.945	
C	 0.1255615147	 1.6367119505	 0.1801017309	-0.391567
C	 0.0515595575	 0.1025580234	 0.1828256523	-0.033824
C	 0.36099237	-0.527464178	-1.1665043622	-0.078147
C	 1.3380563934	-1.4334331623	-1.1024193506	-0.139757
C	 1.870116719	-1.5403220553	 0.2933776222	 0.298059
C	 2.3882254937	-2.8623622443	 0.8188384355	-0.206951
O	 2.8535420556	-2.7642164358	 2.1608930638	-0.411177
N	 2.4961180558	-0.2655972233	 0.7473458213	-0.37768
C	 1.0826903023	-0.5700688674	 1.0933438717	-0.097759
H	 1.1403475077	 1.9607702674	-0.0633526358	 0.140485
H	-0.5647490669	 2.0642220453	-0.5545496989	 0.106571
H	-0.1396287177	 2.0413310363	 1.1624017033	 0.109349
H	-0.9576532131	-0.1953305491	 0.5037666992	 0.077343
H	-0.1474057454	-0.2178080292	-2.0739391611	 0.093481
H	 1.7351952946	-2.0017674783	-1.9363633081	 0.090472
H	 1.5778127054	-3.601718475	 0.8068637723	 0.119711
H	 3.1786079506	-3.2426399529	 0.1553944824	 0.098954
H	 3.8098273155	-2.6767725445	 2.1426412546	 0.294267
H	 3.0368043113	-0.4886429428	 1.5841633029	 0.21477
H	 0.8508550461	-0.7570834645	 2.1362585545	 0.0934
73.6662	139.5081	155.3344	194.3135	219.0891	248.7734	306.335	388.2504	438.7766	494.8626	563.4733	668.7962	696.9261	758.4131	801.7997	832.2977	852.4945	921.0186	944.2948	967.0317	999.3515	1004.4214	1041.6764	1050.8789	1092.8619	1103.4376	1116.7269	1138.7329	1178.1731	1212.4571	1266.7177	1306.7853	1321.3008	1345.9716	1358.0619	1385.6915	1397.8921	1422.5837	1434.8673	1493.2017	1500.5446	1504.8381	1668.5293	2993.6436	2996.4769	3035.2343	3049.2209	3097.7282	3126.6449	3169.8865	3175.7105	3201.0568	3452.505	3850.0829
CC1C=CC2(CO)NC12	C[C@H]1C=C[C@@]2(CO)N[C@@H]12	
InChI=1S/C7H11NO/c1-5-2-3-7(4-9)6(5)8-7/h2-3,5-6,8-9H,4H2,1H3	InChI=1S/C7H11NO/c1-5-2-3-7(4-9)6(5)8-7/h2-3,5-6,8-9H,4H2,1H3/t5-,6-,7-/m0/s1
