18
gdb 73058	2.75849	1.2331	1.00095	2.5843	74.01	-0.2373	0.0291	0.2664	1217.7858	0.14695	-439.065314	-439.056575	-439.05563	-439.099526	31.931	
C	 0.1660195941	 1.5405082014	-0.0404754261	-0.500773
C	 0.0911857595	 0.0452555784	 0.0348474369	 0.248351
C	-1.1652546481	-0.802261739	-0.1421389617	-0.138922
O	-0.7043500859	-1.7770842164	 0.8405398704	-0.302826
C	 0.4448458838	-0.966819924	 1.116906324	-0.009492
C	 1.2964584023	-0.8806177616	-0.1056074232	-0.019992
N	 1.352157771	-1.9936750016	-0.9989798807	-0.285282
C	 2.1186224598	-2.0040269984	-2.1208241242	 0.150301
O	 2.8153122914	-1.0836258222	-2.4932972699	-0.326888
H	 1.1249859663	 1.905619892	 0.339495967	 0.129988
H	 0.0728562155	 1.8863536404	-1.0762583845	 0.136304
H	-0.6295827838	 2.0121922515	 0.547172044	 0.12166
H	-2.0769891174	-0.3113572987	 0.2148331097	 0.115762
H	-1.3406811319	-1.2520505407	-1.1260245082	 0.108928
H	 0.776806721	-0.8956871066	 2.1471627283	 0.110334
H	 2.2463719391	-0.3667117276	 0.0012387105	 0.127438
H	 0.7995447775	-2.8019213873	-0.754259106	 0.26095
H	 2.042743416	-2.9686412495	-2.6614295663	 0.074161
35.0521	121.613	180.059	202.9157	246.0988	263.4489	298.6881	311.2412	508.0358	579.7293	583.934	628.3815	748.3993	805.2003	856.4422	901.006	940.1366	972.928	998.4923	1009.8099	1030.242	1051.5419	1066.4828	1116.2443	1141.5341	1168.6699	1223.6376	1246.1382	1278.053	1302.6395	1337.0918	1419.142	1427.8844	1451.7154	1486.2497	1496.0331	1509.1548	1529.1917	1802.8366	2934.335	3025.9513	3031.0125	3082.4083	3087.9084	3104.1272	3168.1877	3177.3642	3616.3408
CC12COC1C2NC=O	C[C@]12CO[C@H]1[C@H]2NC=O	
InChI=1S/C6H9NO2/c1-6-2-9-5(6)4(6)7-3-8/h3-5H,2H2,1H3,(H,7,8)	InChI=1S/C6H9NO2/c1-6-2-9-5(6)4(6)7-3-8/h3-5H,2H2,1H3,(H,7,8)/t4-,5+,6-/m1/s1
