17
gdb 13169	2.93251	1.81281	1.40463	3.8021	67.66	-0.2607	0.0347	0.2954	941.9132	0.14216	-363.862635	-363.854442	-363.853498	-363.895719	29.059	
C	 0.1064617155	 1.5586975981	-0.0281630304	-0.394228
C	-0.0031574786	 0.0216021264	-0.0185682876	-0.16068
C	 0.6577369371	-0.5570502776	-1.1935805084	 0.283089
N	 1.1736552909	-1.0256951431	-2.1156236118	-0.336871
C	 0.578795196	-0.560039985	 1.2816480523	 0.15875
C	 0.8530253938	-2.0767684513	 1.3757156163	-0.315172
C	 2.3211611531	-1.6498252633	 1.579477425	-0.057591
O	 1.9759058118	-0.2506551469	 1.4322218629	-0.28807
H	 1.1512642027	 1.856684697	 0.0814246356	 0.160368
H	-0.2846195762	 1.9758339999	-0.9586652343	 0.136022
H	-0.464960353	 1.9739469188	 0.8069769777	 0.124054
H	-1.0614136567	-0.2695343323	-0.0655921733	 0.125462
H	-0.009789215	-0.1516096127	 2.1155855172	 0.082226
H	 0.3823518497	-2.5839165192	 2.2184250453	 0.11491
H	 0.6610110364	-2.6356116074	 0.4588020384	 0.134341
H	 2.7404912173	-1.8578475525	 2.570420783	 0.107523
H	 3.0279083154	-1.973436969	 0.8091131321	 0.125865
71.1638	90.3848	156.6623	201.1534	227.4097	257.0993	382.239	404.2024	575.1744	665.1719	705.9349	795.1629	833.9602	889.003	937.5788	978.6348	1001.3398	1032.0829	1044.4831	1089.2189	1124.8083	1152.9674	1170.9452	1219.766	1263.5886	1273.1666	1303.577	1321.0582	1366.046	1386.5172	1409.8267	1488.7047	1493.1536	1504.3453	1528.602	2356.218	2999.0164	3026.7624	3033.0694	3052.2984	3083.6122	3088.1555	3127.1725	3144.2936	3145.2791
CC(C#N)C1CCO1	C[C@@H](C#N)[C@H]1CCO1	
InChI=1S/C6H9NO/c1-5(4-7)6-2-3-8-6/h5-6H,2-3H2,1H3	InChI=1S/C6H9NO/c1-5(4-7)6-2-3-8-6/h5-6H,2-3H2,1H3/t5-,6+/m0/s1
