21
gdb 80453	2.22822	1.51883	1.32989	2.9733	81.94	-0.2326	-0.0111	0.2215	1117.6445	0.182741	-387.118965	-387.110036	-387.109092	-387.1525	34.068	
C	 0.0876613004	 1.6712281477	-0.1250875289	-0.423877
C	 0.0829590532	 0.1585293403	-0.0732607255	 0.001284
C	 0.6388707202	-0.7413266935	-1.138600366	-0.070266
C	 1.5769940738	-0.1208674809	-2.1835151372	-0.270688
C	 2.9250541452	 0.1436790416	-1.468780383	-0.059365
C	 3.6647861796	 1.4362005701	-1.8073521314	-0.411404
C	 2.6572383432	-0.0422230275	 0.0368828562	 0.38521
O	 3.444042662	 0.2290198876	 0.9116906497	-0.337999
C	 1.3168500226	-0.6896001103	 0.2221733828	-0.176764
H	 0.9822043735	 2.0804469848	-0.5997978886	 0.129515
H	-0.7808311387	 2.0391824119	-0.6829580499	 0.11968
H	 0.0372181332	 2.0900564526	 0.8851230418	 0.130316
H	-0.802610752	-0.2418779084	 0.4153868815	 0.094442
H	 0.057466042	-1.6094789785	-1.4278853848	 0.08884
H	 1.706636901	-0.803202492	-3.0270797934	 0.105893
H	 1.1591882354	 0.8053712379	-2.5938549145	 0.106152
H	 3.5939332259	-0.6994756683	-1.6983451857	 0.110119
H	 3.0226489489	 2.3133290606	-1.6715545757	 0.121184
H	 4.5298559363	 1.5494488839	-1.1484909142	 0.14074
H	 4.0120410843	 1.4363441931	-2.844856778	 0.113074
H	 1.2368426299	-1.4600082629	 0.9799390948	 0.103914
78.578	123.767	142.9484	207.5081	227.5201	252.8622	343.8943	385.2109	482.9335	495.0253	571.1224	609.011	693.873	746.9612	777.5452	815.7661	894.7655	909.8817	934.0032	952.0774	990.6994	1023.1807	1041.2462	1074.051	1115.5821	1124.5233	1137.2171	1150.6654	1169.0064	1218.0655	1224.6061	1277.8005	1305.9358	1331.9992	1337.3407	1357.7976	1404.5719	1417.7537	1430.8937	1483.7996	1495.3691	1497.211	1501.1342	1509.0874	1821.9807	2996.4002	3036.0301	3036.8114	3044.1246	3091.3743	3095.2923	3101.9382	3115.9598	3122.1538	3134.0565	3168.0755	3184.9714
CC1C2CC(C)C(=O)C12	C[C@H]1[C@H]2C[C@@H](C)C(=O)[C@@H]12	
InChI=1S/C8H12O/c1-4-3-6-5(2)7(6)8(4)9/h4-7H,3H2,1-2H3	InChI=1S/C8H12O/c1-4-3-6-5(2)7(6)8(4)9/h4-7H,3H2,1-2H3/t4-,5+,6-,7+/m1/s1
