17
gdb 30531	6.95295	0.80023	0.72108	2.3189	89.32	-0.1799	-0.0049	0.1751	1546.6192	0.13608	-418.05341	-418.044537	-418.043593	-418.087122	32.572	
C	 0.2226146543	 1.5178877647	-0.097423411	-0.49923
C	 0.027988897	 0.0378988958	 0.0120226962	 0.272672
C	-0.2275860375	-0.8332440547	-0.9994314992	-0.122584
O	-0.3450354072	-2.1116030528	-0.5303103285	-0.198399
C	-0.1583004915	-2.0552232666	 0.8302831334	 0.461128
C	 0.0726850434	-0.7621710775	 1.2040615122	-0.396237
N	-0.2227923339	-3.191293819	 1.5863036096	-0.350908
C	-0.4664421178	-4.3244988455	 1.0398532004	 0.090584
N	-0.4652899043	-5.4812689757	 1.7643407706	-0.499487
H	 1.2108611856	 1.8212722129	 0.2670736959	 0.127774
H	 0.1329620398	 1.8531135904	-1.1347246085	 0.12009
H	-0.5187869184	 2.0657939167	 0.495600473	 0.127329
H	-0.3492044771	-0.7108736262	-2.0636602456	 0.122247
H	 0.2528553566	-0.4296021574	 2.2140989062	 0.101005
H	-0.6471889477	-4.4615635237	-0.029368531	 0.121148
H	-0.4673803276	-5.3838888337	 2.7686969666	 0.262605
H	-0.9481623635	-6.2812414177	 1.3920773497	 0.260263
73.8059	132.0863	139.7198	145.605	250.9993	290.9913	371.7485	391.3933	416.9969	486.2161	575.9424	619.1793	655.6074	690.9694	719.2882	784.5663	805.9554	947.8531	984.9586	997.1268	1015.5508	1064.0905	1075.9181	1147.0815	1188.3554	1230.8507	1296.8512	1310.3669	1387.5654	1396.0897	1420.4431	1482.0298	1498.6116	1585.9937	1626.1188	1664.8229	1726.8567	3026.3616	3076.1333	3098.0205	3106.3919	3258.852	3267.005	3585.6106	3715.0925
CC1=COC(=C1)N=CN	Cc1coc(c1)N=CN	
InChI=1S/C6H8N2O/c1-5-2-6(8-4-7)9-3-5/h2-4H,1H3,(H2,7,8)	InChI=1S/C6H8N2O/c1-5-2-6(8-4-7)9-3-5/h2-4H,1H3,(H2,7,8)
