19
gdb 40102	3.27136	1.42852	1.22748	1.0644	74.4	-0.2488	0.0635	0.3123	1059.9176	0.160607	-422.996464	-422.989045	-422.988101	-423.028681	29.28	
C	-0.4039450475	 1.389335832	 0.1940643489	-0.261009
O	 0.9433237497	 0.9643659375	-0.059391564	-0.273027
C	-0.0637142357	-0.0265956178	 0.0542699059	 0.470202
C	-0.0224076921	-1.1399194646	 1.1026774458	-0.331242
C	-0.4298596378	-2.1593298032	-0.0042768092	-0.035467
C	-1.8989782625	-2.595435154	-0.0135618708	-0.090709
O	-2.6318191446	-1.4988732658	-0.5508092878	-0.249135
C	-1.8339524559	-0.9646504568	-1.6012721174	-0.097627
C	-0.3972955077	-1.0081889744	-1.0782267931	-0.146256
H	-0.585702524	 1.804127996	 1.1850058925	 0.115121
H	-0.8866471341	 1.9212661031	-0.6252081441	 0.113343
H	 0.9823004993	-1.2991411559	 1.5022667224	 0.116085
H	-0.7258755022	-1.0397274077	 1.934340808	 0.107929
H	 0.2581258266	-2.9933419545	-0.1430912118	 0.078398
H	-2.0251860551	-3.4895706014	-0.6463602069	 0.087838
H	-2.3064505468	-2.8129372423	 0.9779659718	 0.109249
H	-1.9285374472	-1.5771948792	-2.5135354454	 0.088843
H	-2.2020038004	 0.0414701407	-1.8202986194	 0.11009
H	 0.3613258479	-1.0614025917	-1.8607431955	 0.087374
55.3372	178.81	257.6231	291.5775	339.2936	371.5375	448.222	521.2001	676.8243	707.8315	787.4275	825.0131	857.359	870.2854	882.3972	928.4328	937.3037	951.509	993.2519	1031.5776	1043.1329	1097.4146	1112.7715	1125.7106	1152.6706	1157.7702	1165.7299	1196.5078	1204.908	1248.6297	1257.8797	1278.1739	1297.6855	1329.152	1350.0159	1394.6323	1430.2508	1469.345	1498.3829	1510.8218	1534.5347	2962.3491	2969.5358	3055.2107	3077.8303	3084.8182	3090.6044	3100.7705	3108.1446	3117.1213	3162.9906
C1OC11CC2COCC12	C1O[C@]21C[C@H]1COC[C@@H]21	
InChI=1S/C7H10O2/c1-5-2-8-3-6(5)7(1)4-9-7/h5-6H,1-4H2	InChI=1S/C7H10O2/c1-5-2-8-3-6(5)7(1)4-9-7/h5-6H,1-4H2/t5-,6+,7-/m0/s1
