21
gdb 31506	3.10511	1.03563	0.8312	0.8749	88.39	-0.1832	0.0548	0.238	1467.4127	0.182682	-383.318659	-383.30835	-383.307406	-383.354499	37.253	
C	-0.4020016827	 1.4861660687	 0.1290596929	-0.364108
C	 0.1448645557	 0.0588053167	-0.0571786899	-0.298286
C	 0.890635718	-0.4663830223	 1.1289163742	 0.321872
C	 2.2326117812	-0.7219638569	 1.3134013287	-0.340107
C	 2.428011958	-1.193359668	 2.6469663243	 0.267456
C	 3.7209422024	-1.5963682441	 3.2877012997	-0.506864
C	 1.1826474605	-1.211756509	 3.2433465311	 0.138317
N	 0.7148054937	-1.57977377	 4.5297071465	-0.618168
N	 0.2660471039	-0.7688576603	 2.3139720879	-0.307166
H	 0.4116265658	 2.1890965307	 0.3314011761	 0.123411
H	-0.9336854825	 1.8228519148	-0.7668790157	 0.109442
H	-1.1006308582	 1.5394962271	 0.970841952	 0.108718
H	-0.6869961826	-0.6132522169	-0.3115529897	 0.098879
H	 0.8231833039	 0.0387845265	-0.9163404665	 0.11167
H	 2.9995586952	-0.5850836482	 0.5640013808	 0.079917
H	 4.4474221716	-0.7747791934	 3.2999115517	 0.121108
H	 3.562264913	-1.9082273647	 4.325242371	 0.099306
H	 4.197355581	-2.4334187624	 2.7628441821	 0.121185
H	 0.9365332392	-2.5448959913	 4.7510060375	 0.240969
H	 1.1214370375	-1.0046976368	 5.2604078302	 0.240765
H	-0.7186337246	-0.7030055302	 2.5083123349	 0.251686
44.9511	77.6208	116.4435	127.3706	194.0283	234.3441	252.226	258.1909	301.4922	393.4729	482.8063	500.8128	583.1715	645.8943	657.932	695.1917	769.2867	781.3802	797.7763	820.5593	951.4327	991.8406	1030.125	1061.0723	1064.7838	1083.0236	1168.2723	1184.8975	1206.5069	1232.9003	1283.1211	1324.2668	1355.8744	1406.6899	1412.9624	1448.0285	1478.3693	1483.4078	1486.9223	1496.7541	1498.5938	1503.6704	1544.9593	1636.0152	1666.0588	3005.3548	3017.326	3032.9288	3063.7522	3070.7079	3091.135	3101.5102	3112.0056	3227.1118	3497.8184	3560.816	3672.3366
CCC1=CC(C)=C(N)N1	CCc1cc(C)c(N)[nH]1	
InChI=1S/C7H12N2/c1-3-6-4-5(2)7(8)9-6/h4,9H,3,8H2,1-2H3	InChI=1S/C7H12N2/c1-3-6-4-5(2)7(8)9-6/h4,9H,3,8H2,1-2H3
