22
gdb 78536	2.26192	1.58194	1.24773	1.4562	86.87	-0.2097	0.0771	0.2868	1161.9905	0.192726	-367.13407	-367.124742	-367.123798	-367.167415	36.425	
C	-0.1347281657	 1.6532419459	 0.0923629149	-0.44501
C	 0.0923937426	 0.140480543	 0.0751944534	-0.051328
C	 1.2952827857	-0.6638737753	-0.3593786777	-0.214572
C	 2.6275779065	-0.2854053928	 0.3195242345	 0.339793
C	 3.9106595502	-0.9329076578	-0.1117974965	-0.475254
C	 2.5550438141	 0.8332444176	 1.2843856191	-0.306836
N	 2.0608696241	-0.4997815303	 1.7009581412	-0.216865
C	 0.7298600857	-0.8338388196	 1.0441211047	 0.331316
C	-0.0104386437	-1.9591884573	 1.7013521043	-0.467682
H	 0.6770857149	 2.2060740623	-0.3866026961	 0.131093
H	-1.0497013454	 1.8881103488	-0.4603691594	 0.11171
H	-0.2648396869	 2.045776294	 1.1060791054	 0.129301
H	-0.7912696249	-0.3686191364	-0.3105553886	 0.09143
H	 1.2679516252	-1.3508931569	-1.1975698511	 0.083349
H	 4.271532966	-0.4945123941	-1.0502008471	 0.118064
H	 4.6856558655	-0.802601119	 0.6486991584	 0.125593
H	 3.7718526697	-2.0075870493	-0.2748129857	 0.121608
H	 3.4833399775	 1.0815139701	 1.7942763811	 0.114045
H	 1.8799732448	 1.6673074518	 1.179921551	 0.119868
H	-0.4263034319	-1.6369484234	 2.6639431163	 0.122508
H	-0.8362532012	-2.3091210666	 1.074561131	 0.112068
H	 0.6606522173	-2.8010168146	 1.8989052769	 0.125802
95.7794	179.4014	189.2855	199.344	210.2367	275.7627	301.4677	319.04	359.7564	432.1618	508.4594	572.2325	584.6174	667.5905	705.3881	736.7461	819.6167	868.1347	907.2795	927.6772	940.0369	967.0884	1008.8837	1037.1726	1074.852	1094.9785	1100.1065	1103.9239	1114.8815	1127.6125	1155.0817	1202.7802	1226.8277	1305.7035	1353.9598	1377.4381	1411.5902	1413.3942	1418.9918	1468.3509	1474.3321	1480.6045	1494.2966	1499.0091	1501.0203	1505.8712	1522.6721	3024.2065	3025.1101	3036.0847	3084.0369	3086.5453	3088.7208	3103.4644	3110.3238	3112.7477	3115.6572	3126.6316	3171.6942	3270.2483
CC1C2C3(C)CN3C12C	C[C@H]1[C@H]2[C@@]3(C)CN3[C@@]12C	
InChI=1S/C8H13N/c1-5-6-7(2)4-9(7)8(5,6)3/h5-6H,4H2,1-3H3	InChI=1S/C8H13N/c1-5-6-7(2)4-9(7)8(5,6)3/h5-6H,4H2,1-3H3/t5-,6-,7+,8-,9?/m0/s1
