23
gdb 65034	2.4901	1.37907	1.23212	1.6617	84.46	-0.2584	0.0821	0.3405	1181.7091	0.204338	-388.269932	-388.260361	-388.259416	-388.303876	37.067	
C	 0.0363620304	 1.4685076786	-0.5603296767	-0.473088
C	-0.0088572656	 0.028375283	-0.0895763368	 0.351448
C	 1.2086526496	-0.7906303193	-0.1855067802	-0.234416
O	 0.8094872033	-0.2248740701	 1.0671100224	-0.282007
C	-1.3775013981	-0.6393434841	-0.0689281387	 0.296404
C	-1.9693418269	-0.7281976585	-1.4793364694	-0.457517
C	-1.4828551487	-1.9976177473	 0.696041604	-0.268216
C	-2.766100587	-1.4809267714	 1.3980328932	-0.222508
C	-2.3897090572	-0.0400015311	 0.9654610768	-0.257756
H	 1.0335944815	 1.8835288209	-0.3959981637	 0.126678
H	-0.202476108	 1.5518528629	-1.6247694519	 0.123505
H	-0.6823922942	 2.0803032915	-0.0049649055	 0.127574
H	 1.1314709011	-1.8754064349	-0.2493659938	 0.109728
H	 2.1134567028	-0.3673390003	-0.6206458449	 0.108734
H	-1.3104552946	-1.2943607187	-2.1476997889	 0.112721
H	-2.9389965656	-1.2359703757	-1.4603271011	 0.116241
H	-2.128011783	 0.2619659895	-1.9183974638	 0.115528
H	-1.5702034079	-2.8997909502	 0.0841745164	 0.086055
H	-0.6586105212	-2.1148663063	 1.4017328591	 0.120645
H	-3.681271773	-1.835386058	 0.9165868601	 0.099709
H	-2.8504709635	-1.6684352148	 2.4705028276	 0.099163
H	-1.8715941493	 0.5009445818	 1.7620722834	 0.111033
H	-3.1869903648	 0.5945891629	 0.5683729125	 0.090344
66.735	129.8626	175.1849	199.7721	236.4752	267.7871	296.6781	327.6289	366.782	391.4012	464.0605	518.0226	546.3827	696.6494	790.3632	798.8148	852.2383	873.1136	910.1283	918.4776	925.62	933.9188	947.9997	995.7943	1015.3736	1061.1735	1098.8481	1134.4442	1161.2979	1164.2859	1173.0807	1197.7844	1211.0667	1264.689	1270.9572	1277.3029	1285.4929	1329.3502	1388.9686	1407.0406	1414.1878	1470.8247	1480.9233	1482.9055	1494.1049	1497.6659	1503.2324	1505.2078	1529.0396	3027.0861	3040.1464	3050.8288	3055.8577	3064.9668	3078.5844	3093.5839	3098.0728	3099.0661	3106.344	3113.2843	3125.3093	3129.5653	3161.971
CC1(CO1)C1(C)CCC1	C[C@]1(CO1)C1(C)CCC1	
InChI=1S/C8H14O/c1-7(4-3-5-7)8(2)6-9-8/h3-6H2,1-2H3	InChI=1S/C8H14O/c1-7(4-3-5-7)8(2)6-9-8/h3-6H2,1-2H3/t8-/m0/s1
