23
gdb 105366	2.55308	1.06067	0.87413	1.6887	85.74	-0.2555	0.0822	0.3377	1445.7978	0.204646	-388.259314	-388.249503	-388.248558	-388.294672	36.751	
C	 0.7593035498	-0.2423654549	 1.5162713823	-0.379586
C	 0.1432994148	-0.1221639235	 0.1160862386	-0.259238
C	-1.3041499831	-0.5900007878	 0.0235349147	 0.404252
C	-1.7647755731	-1.1970751615	-1.2803283473	-0.307185
C	-1.5408179236	-2.0800864573	-0.0761954447	-0.321998
C	-2.3362195298	 0.2306569411	 0.7918051865	-0.324551
C	-2.5874380475	 1.5991203298	 0.1991814439	 0.114765
O	-3.4494642936	 1.656263387	-0.9430991805	-0.23336
C	-3.900096686	 2.2517097848	 0.2750266248	-0.185736
H	 1.811353562	 0.0592959732	 1.5064712411	 0.11143
H	 0.2455437741	 0.3912522122	 2.2466275601	 0.113932
H	 0.7082447491	-1.2739912342	 1.8799431377	 0.118354
H	 0.2214042946	 0.9168185093	-0.2305909869	 0.097054
H	 0.7423843583	-0.712936254	-0.5873800612	 0.094401
H	-2.7826252256	-0.9987603501	-1.5951994573	 0.125993
H	-1.0523295634	-1.2572622994	-2.0964674299	 0.105613
H	-0.6735034152	-2.7326457779	-0.0779921749	 0.10636
H	-2.4075033669	-2.50253825	 0.4216965957	 0.105613
H	-3.2902980557	-0.3081299862	 0.8118762101	 0.098615
H	-2.0231864454	 0.3523317292	 1.8373457881	 0.101254
H	-1.71545372	 2.2498820442	 0.1147431314	 0.091437
H	-4.7252792627	 1.7388269341	 0.768560006	 0.110454
H	-3.9706295411	 3.3387040619	 0.2678630615	 0.112128
47.3847	71.987	113.1423	163.049	223.0044	238.8618	304.8784	327.6117	365.4504	408.5063	444.4369	531.4111	708.8588	776.5427	787.0522	796.3628	861.5861	885.167	909.3265	924.6756	946.2449	963.0009	1002.3092	1020.0995	1050.4214	1065.9723	1077.2878	1096.2591	1112.0354	1121.9808	1157.9171	1171.4126	1186.4713	1235.4725	1269.2661	1294.493	1321.4537	1333.4753	1359.8725	1393.8427	1410.5673	1450.5171	1464.2017	1472.8182	1485.6063	1501.5846	1506.7177	1510.5146	1531.324	3017.5201	3022.207	3035.7189	3050.2062	3066.2554	3078.8912	3098.3562	3102.7933	3104.9612	3123.8524	3135.3941	3164.1482	3202.9586	3223.4919
CCC1(CC1)CC1OC1	CCC1(CC1)C[C@H]1OC1	
InChI=1S/C8H14O/c1-2-8(3-4-8)5-7-6-9-7/h7H,2-6H2,1H3	InChI=1S/C8H14O/c1-2-8(3-4-8)5-7-6-9-7/h7H,2-6H2,1H3/t7-/m1/s1
