23
gdb 68067	2.55501	1.66067	1.21717	0.1687	90.46	-0.2294	0.0256	0.2551	1135.8161	0.206575	-351.169697	-351.161262	-351.160318	-351.201639	35.242	
C	-0.0875895499	 1.5482929105	 0.0288735455	-0.476165
C	 0.0153836609	 0.0331676397	 0.0158178578	 0.315958
C	 1.1067007888	-0.6339479573	-0.8770003149	-0.275012
C	 1.1736058406	-1.766176498	 0.1987484292	 0.298701
C	 2.4832290757	-2.4962537589	 0.4338119761	-0.496157
C	 0.7050997111	-0.6792716184	 1.2199183435	-0.275008
C	-0.0085390459	-2.6872542195	-0.0475617526	-0.088211
C	-1.2071192165	-2.1475037433	-0.2654471778	-0.086886
C	-1.3443422519	-0.6431608958	-0.2592172989	-0.286892
H	 0.8863444148	 2.009282765	 0.2252003778	 0.106994
H	-0.4512943353	 1.9299931537	-0.9329884611	 0.110616
H	-0.7835864454	 1.8924220077	 0.8036764405	 0.11062
H	 0.8420802839	-0.9201744221	-1.8989056144	 0.087518
H	 2.0235685004	-0.034661267	-0.8856336059	 0.083686
H	 3.3028696361	-1.7909277412	 0.6057960953	 0.107744
H	 2.4184925601	-3.1549536367	 1.3081135117	 0.113637
H	 2.7510150808	-3.1178034621	-0.4290000274	 0.113634
H	 1.549142255	-0.0882017414	 1.5915292138	 0.083687
H	 0.0840716579	-1.0057237601	 2.0589616903	 0.087518
H	 0.1505310856	-3.7623220408	-0.040331626	 0.079229
H	-2.0900381332	-2.7534256099	-0.4476410915	 0.084911
H	-2.0769114873	-0.3300874875	 0.4997741723	 0.099939
H	-1.7472691464	-0.2928916367	-1.2213510134	 0.09994
213.7968	220.7774	227.5377	239.1238	271.607	338.8071	353.6879	412.9478	450.1172	464.0026	498.8048	560.8116	698.5519	702.8444	718.8894	847.8153	862.8701	891.9856	906.8317	929.2407	935.8647	973.7989	987.2833	1004.0888	1013.8379	1034.4259	1077.275	1101.025	1113.17	1165.4414	1181.5666	1217.935	1257.7517	1259.4954	1267.7883	1278.6741	1290.9309	1367.7288	1397.0645	1412.4201	1414.9498	1470.0431	1474.7631	1491.1271	1493.6393	1493.6523	1495.297	1511.692	1699.7632	2990.9807	3014.641	3016.5651	3019.1601	3032.9492	3041.429	3078.5701	3081.5433	3089.687	3093.8192	3095.4797	3099.6318	3151.2189	3176.7413
CC12CC(C)(C1)C=CC2	C[C@@]12C[C@@](C)(C1)C=CC2	
InChI=1S/C9H14/c1-8-4-3-5-9(2,6-8)7-8/h3-4H,5-7H2,1-2H3	InChI=1S/C9H14/c1-8-4-3-5-9(2,6-8)7-8/h3-4H,5-7H2,1-2H3/t8-,9+
