21
gdb 60185	2.92871	0.92931	0.77901	3.2132	84.38	-0.2553	0.0131	0.2685	1520.9855	0.181189	-383.259999	-383.249999	-383.249055	-383.2955	36.381	
C	 0.2115457661	 1.507143782	-0.0342070546	-0.393443
C	 0.0947476812	-0.0182910519	 0.0843603669	 0.032683
C	 0.5730754893	-0.5032285859	 1.4590316806	-0.387102
C	-1.3456052833	-0.4512631382	-0.2225430522	-0.136668
N	-1.4665358329	-1.9115300793	-0.2842325698	-0.082343
C	-2.0151081991	-2.6054612276	 0.8634675854	-0.237814
C	-2.8108757978	-2.490535142	-0.4027221337	-0.148989
C	-3.9829208025	-1.6479917402	-0.4172420831	 0.283194
N	-4.9229048301	-0.9749724586	-0.4624441966	-0.337018
H	 1.2425478269	 1.8328728866	 0.1347236736	 0.115205
H	-0.0934823535	 1.8584737111	-1.0254473357	 0.115187
H	-0.4201771448	 2.010357093	 0.7073215217	 0.116908
H	 0.7342947228	-0.4771904786	-0.6806216653	 0.086897
H	-0.0571222779	-0.0988931364	 2.2609353494	 0.109352
H	 0.5577590996	-1.5941677973	 1.5313339793	 0.122613
H	 1.5993360978	-0.1731801547	 1.6496595031	 0.114741
H	-2.0361838081	-0.0112887903	 0.5170749429	 0.102287
H	-1.6383781151	-0.0612559662	-1.2035456857	 0.116391
H	-1.5636906608	-3.5608412342	 1.1155558473	 0.133258
H	-2.359420058	-2.013691804	 1.709660016	 0.135534
H	-2.8800454797	-3.3443975074	-1.0710416195	 0.139127
47.6887	88.191	95.9662	194.2652	214.6773	228.1863	258.7841	316.895	330.9298	392.8545	430.3117	446.1774	556.4073	629.9544	764.4628	831.8465	833.5845	896.0562	922.3139	931.2776	967.9817	971.7169	1027.2597	1034.8111	1118.1073	1121.0875	1136.4697	1154.2682	1192.991	1198.5885	1295.8157	1313.3325	1327.835	1366.6274	1377.0704	1395.4259	1401.3336	1424.903	1481.3822	1489.843	1494.1856	1505.557	1506.1408	1514.6039	2349.4015	2962.5372	3023.7004	3026.1216	3031.5847	3066.2766	3090.5147	3096.5608	3100.3266	3104.7976	3111.7218	3148.2755	3192.757
CC(C)CN1CC1C#N	CC(C)CN1C[C@H]1C#N	
InChI=1S/C7H12N2/c1-6(2)4-9-5-7(9)3-8/h6-7H,4-5H2,1-2H3	InChI=1S/C7H12N2/c1-6(2)4-9-5-7(9)3-8/h6-7H,4-5H2,1-2H3/t7-,9?/m1/s1
