20
gdb 111460	2.45734	1.55179	1.05885	2.1635	81.72	-0.2207	0.0131	0.2338	1184.1469	0.170636	-403.114441	-403.105473	-403.104528	-403.148411	33.405	
C	-0.0276833241	 1.4445258116	-0.1747361777	-0.234859
O	 0.0091073117	 0.0623973407	 0.0968229346	-0.244171
C	-1.2578652234	-0.5802762125	 0.0867524407	 0.064612
C	-1.2055339008	-1.9403512912	-0.6009887437	-0.083912
N	-0.3114802698	-2.9214523251	 0.0534720151	-0.320229
C	-1.7782381878	-2.9422466691	 0.3281962049	-0.0871
C	-2.1056396799	-2.2058295585	 1.5862127103	-0.162377
C	-1.7798108599	-0.9137856475	 1.4895382633	 0.297788
C	-1.8270077447	 0.1256170141	 2.5613923794	-0.49731
H	 1.0071804581	 1.7969704519	-0.1772013016	 0.127276
H	-0.4738787066	 1.6586168821	-1.1588468216	 0.10196
H	-0.5866879275	 2.0117751581	 0.5844249067	 0.102847
H	-1.9830609341	 0.0624966387	-0.4404936998	 0.064248
H	-1.3429409922	-1.9959627471	-1.6750242701	 0.083665
H	-0.0976085665	-3.6435072426	-0.6339367167	 0.225227
H	-2.3690277255	-3.7853368179	-0.0125996383	 0.087316
H	-2.4905469765	-2.6889128536	 2.4775403738	 0.092142
H	-2.1999710738	-0.2854168444	 3.5033129249	 0.121924
H	-0.8258043607	 0.5351560637	 2.7398965431	 0.143003
H	-2.470197166	 0.9691391686	 2.2778025427	 0.117951
56.0783	110.3245	164.1732	199.4206	211.3711	235.1839	333.5242	363.8823	465.9817	476.0131	557.3317	662.91	704.0079	804.8783	836.9465	873.2107	879.9678	918.0353	966.3888	984.0617	1017.0455	1031.5822	1060.9982	1084.3579	1129.0774	1149.6231	1166.0003	1180.8215	1191.0534	1217.4816	1264.5409	1285.8307	1333.6946	1363.4209	1384.3731	1406.0047	1417.9143	1475.9275	1479.9751	1486.0275	1494.5656	1511.4483	1711.0394	2953.3118	2974.0418	3015.653	3020.8592	3069.639	3108.5482	3111.802	3166.1892	3175.4832	3191.962	3466.7149
COC1C2NC2C=C1C	CO[C@H]1[C@H]2N[C@H]2C=C1C	
InChI=1S/C7H11NO/c1-4-3-5-6(8-5)7(4)9-2/h3,5-8H,1-2H3	InChI=1S/C7H11NO/c1-4-3-5-6(8-5)7(4)9-2/h3,5-8H,1-2H3/t5-,6-,7+/m0/s1
