15
gdb 33901	4.11082	1.32758	1.19607	2.8209	72.8	-0.2448	0.0062	0.251	1029.241	0.111402	-420.510948	-420.503773	-420.502829	-420.542468	28.196	
C	-0.0377547789	-1.1851756292	-0.1276709527	-0.366404
C	 0.03259644	 0.0123075583	-0.0385767325	 0.151209
C	 0.0731421722	 1.4203839071	 0.1368041475	 0.333399
O	 0.2704427089	 2.2784802685	-0.9980617073	-0.2695
C	 1.1793139165	 2.4210060105	 0.0848055076	-0.086053
C	 0.5126252808	 3.305890683	 1.1647398149	-0.129008
C	-0.5919107185	 4.2701930886	 0.6719457716	-0.083035
O	-1.601080404	 3.2279616061	 0.7748192094	-0.276569
C	-0.6404604824	 2.2820070173	 1.2422396937	-0.004731
H	-0.0944878855	-2.241580478	-0.2212629688	 0.193777
H	 2.2335828979	 2.2812338759	-0.1256657687	 0.121727
H	 1.1201287473	 3.5756673279	 2.0254884725	 0.094877
H	-0.8118507274	 5.0944361404	 1.3590675195	 0.105847
H	-0.4905593278	 4.6428028211	-0.3506370888	 0.122771
H	-0.936900909	 1.7333042024	 2.1386745121	 0.091691
123.291	144.4547	240.6912	305.2642	384.0568	463.449	536.3237	578.5295	612.1362	648.7669	671.7462	731.031	810.9266	837.9405	857.2987	893.9901	918.4313	971.9176	994.6569	1014.7803	1028.4103	1072.4066	1125.745	1161.3079	1176.2664	1204.7248	1248.5443	1274.0019	1290.0886	1356.7163	1408.3692	1505.7359	2237.962	3038.7963	3095.2607	3102.1147	3145.2159	3187.3858	3501.2582
C#CC12OC1C1COC21	C#C[C@]12O[C@H]1[C@H]1CO[C@@H]21	
InChI=1S/C7H6O2/c1-2-7-5-4(3-8-5)6(7)9-7/h1,4-6H,3H2	InChI=1S/C7H6O2/c1-2-7-5-4(3-8-5)6(7)9-7/h1,4-6H,3H2/t4-,5+,6-,7+/m0/s1
