18
gdb 63606	2.86783	1.05456	0.94914	4.5564	80.65	-0.286	-0.0821	0.2039	1309.4098	0.145366	-401.970581	-401.961059	-401.960115	-402.005081	34.607	
C	-0.2413695541	 1.5241814908	 0.0885074279	-0.468093
C	-0.0089106167	 0.0284248721	 0.0245782938	 0.332612
C	-1.2250449816	-0.7801776775	-0.38673265	-0.446758
C	 1.3361910727	-0.4858777031	-0.3521109084	-0.322032
C	 0.8900244746	-0.6577557915	 1.0949029133	-0.172084
C	 1.5556560817	 0.1357406565	 2.1411923797	 0.305892
O	 2.194396928	 1.1521330518	 1.9749611875	-0.30606
C	 1.3873344213	-0.4004580227	 3.512424591	 0.217737
N	 1.2573089571	-0.8233867823	 4.5808725844	-0.306512
H	 0.6428419139	 2.0627501991	 0.431413467	 0.157111
H	-0.502715977	 1.8944697626	-0.9091178027	 0.123648
H	-1.0741312099	 1.763858483	 0.7586690389	 0.123217
H	-1.5610928419	-0.4728127218	-1.3835803578	 0.128829
H	-1.0087724605	-1.8519441691	-0.4221537673	 0.120732
H	-2.0571370753	-0.6229021475	 0.3076007935	 0.130099
H	 1.412714874	-1.3920591591	-0.9432675339	 0.125137
H	 2.132129714	 0.2362150804	-0.5002029201	 0.144256
H	 0.5569833696	-1.6386796718	 1.4142158932	 0.112268
52.294	114.1697	165.1384	198.5115	224.1379	244.9732	296.1852	314.1248	359.7061	383.8207	427.806	481.8732	607.0863	651.1531	752.5272	812.7895	820.5097	925.7504	938.5885	967.3153	978.6515	1051.879	1066.3861	1078.6353	1117.97	1140.7843	1145.442	1289.7192	1333.9148	1411.4761	1417.3856	1427.592	1475.9117	1483.9061	1488.8238	1508.3279	1510.5712	1761.2547	2336.0891	3029.3167	3036.0981	3091.0071	3095.5833	3108.7418	3133.662	3144.916	3178.8507	3227.0659
CC1(C)CC1C(=O)C#N	CC1(C)C[C@H]1C(=O)C#N	
InChI=1S/C7H9NO/c1-7(2)3-5(7)6(9)4-8/h5H,3H2,1-2H3	InChI=1S/C7H9NO/c1-7(2)3-5(7)6(9)4-8/h5H,3H2,1-2H3/t5-/m0/s1
