19
gdb 77350	2.80309	1.19573	0.88741	1.7621	76.72	-0.2457	-0.0302	0.2155	1285.5599	0.157775	-423.077238	-423.068112	-423.067168	-423.111914	33.069	
C	-0.5853779889	 1.3102384522	 0.0268314648	-0.410399
C	 0.0645626811	-0.0701968981	 0.0628923324	-0.10579
C	 0.8566653239	-0.5070981901	-1.189306128	-0.080655
C	 1.8006876534	-1.621106448	-0.6569902409	-0.251116
C	 2.2164628	-1.1394554774	 0.7402336062	-0.326249
C	 1.067223837	-0.2464306998	 1.2158595546	 0.400125
O	 0.9623859009	 0.257177997	 2.3032219598	-0.312802
C	-0.0457759513	-1.0076229915	-2.289755002	 0.157821
O	-0.1006038886	-0.5675025764	-3.4077576962	-0.247628
H	 0.1523088515	 2.0815893372	-0.2169541303	 0.125621
H	-1.383045789	 1.3582411417	-0.7196131884	 0.125697
H	-1.0051723021	 1.5468178427	 1.007647241	 0.143229
H	-0.7132204151	-0.8307217363	 0.2512230584	 0.105944
H	 1.4386457721	 0.3337587874	-1.581781523	 0.097073
H	 1.2458152771	-2.5649540555	-0.5837860948	 0.111282
H	 2.6449698934	-1.7931155504	-1.3275143224	 0.122333
H	 2.417062653	-1.9361671482	 1.4607001324	 0.135848
H	 3.1177747127	-0.51542763	 0.6978693969	 0.140699
H	-0.6955431211	-1.8612355163	-1.9737543106	 0.06897
56.9248	63.46	133.8576	190.1235	229.4739	258.9901	294.013	396.6166	418.1254	476.3434	558.1424	592.5661	632.693	721.268	828.3576	873.637	918.3885	970.8647	1000.9932	1004.455	1036.9132	1067.935	1093.6803	1140.5418	1163.0347	1191.0922	1218.3615	1249.0372	1284.7557	1303.3373	1304.1957	1339.3785	1359.5753	1409.2502	1425.1865	1450.0879	1492.5613	1496.6251	1498.2538	1835.279	1846.2138	2827.7614	2964.6542	3033.364	3043.3644	3044.6235	3060.3146	3104.1234	3111.4667	3112.0879	3128.794
CC1C(CCC1=O)C=O	C[C@H]1[C@@H](CCC1=O)C=O	
InChI=1S/C7H10O2/c1-5-6(4-8)2-3-7(5)9/h4-6H,2-3H2,1H3	InChI=1S/C7H10O2/c1-5-6(4-8)2-3-7(5)9/h4-6H,2-3H2,1H3/t5-,6-/m0/s1
