16
gdb 46162	4.79843	1.00058	0.85239	0.0565	70.02	-0.2565	0.0193	0.2758	1264.7947	0.12738	-434.130861	-434.122686	-434.121742	-434.163983	29.89	
O	 0.0011533627	-0.0705900311	-0.1349824013	-0.405405
C	-0.0134448221	 1.1377004489	 0.0040082071	 0.439667
N	-1.1864273891	 1.8535550153	 0.1422582888	-0.351109
C	-1.2958877501	 3.295142417	 0.0494559914	-0.160194
C	-0.0422498526	 3.9231705645	 0.688762989	-0.16042
C	 1.2105686648	 3.3292587319	 0.016112212	-0.160195
N	 1.1428919322	 1.885257482	 0.111265992	-0.35111
C	-0.0636248847	 5.378684418	 0.5721813028	 0.269455
N	-0.0806241515	 6.5294506591	 0.4707832671	-0.311109
H	-2.0086073434	 1.2951887797	-0.0222565051	 0.258353
H	-1.3824058134	 3.6494734024	-0.9888150776	 0.126127
H	-2.1920803299	 3.6252101424	 0.5826714046	 0.13624
H	-0.024482319	 3.6567117931	 1.7516567181	 0.148979
H	 1.2597707224	 3.6854391943	-1.0239630036	 0.126126
H	 2.1113105657	 3.6837842026	 0.5254279589	 0.13624
H	 1.975278158	 1.3494233499	-0.0753765839	 0.258352
81.8592	120.5077	146.8709	176.0138	315.2438	384.2165	417.1218	462.0279	517.4551	531.5463	539.5796	601.3927	708.9608	758.3865	834.1958	917.9984	956.7486	1023.3714	1040.1829	1131.6369	1135.0037	1166.8618	1225.9273	1281.1832	1290.0642	1301.6083	1346.0709	1407.983	1411.7495	1470.4403	1479.1712	1527.3655	1530.1234	1814.2612	2364.5293	2987.0863	2992.9445	3056.6738	3080.5903	3084.0258	3645.8215	3648.5423
O=C1NCC(CN1)C#N	O=C1NCC(CN1)C#N	
InChI=1S/C5H7N3O/c6-1-4-2-7-5(9)8-3-4/h4H,2-3H2,(H2,7,8,9)	InChI=1S/C5H7N3O/c6-1-4-2-7-5(9)8-3-4/h4H,2-3H2,(H2,7,8,9)
