15
gdb 68731	3.30505	1.18051	0.87558	5.3938	76.96	-0.2078	-0.0303	0.1775	1235.0163	0.114459	-416.83299	-416.825054	-416.82411	-416.865649	29.822	
N	 1.1607008978	 1.3725034201	 0.345725725	-0.56971
C	 0.4250111486	 0.3230009885	-0.2112997007	 0.237399
C	-0.8443744324	-0.0180655326	 0.5271458199	-0.390025
C	-1.6140980408	-1.0775327302	-0.2309864017	 0.025771
C	-2.8534655564	-1.5304187751	 0.293920734	 0.2072
N	-3.8591022533	-1.876350134	 0.7567267271	-0.339405
C	-1.1636368158	-1.5916718503	-1.3912259776	 0.042191
O	-0.0171253702	-1.2449893869	-1.9851303087	-0.195785
C	 0.7642334201	-0.288022054	-1.3502036655	-0.04174
H	 1.2086790281	 1.3383272721	 1.3569082834	 0.250158
H	 2.0858315593	 1.4906559121	-0.0468610468	 0.24852
H	-0.6057904019	-0.364048323	 1.5458975156	 0.125125
H	-1.4492450426	 0.8904723564	 0.6599810093	 0.141861
H	-1.7020878335	-2.3445007629	-1.9533928944	 0.146127
H	 1.6615537129	-0.0873233603	-1.918702849	 0.112312
77.0525	145.9783	201.4262	286.9118	322.1675	378.4981	424.1125	470.0874	497.5922	527.3353	574.3864	576.7356	680.3799	702.0929	804.2073	875.7894	927.19	952.7293	1014.7838	1036.8615	1153.7361	1180.7938	1213.5829	1255.1829	1301.3712	1352.5605	1393.7325	1421.4538	1499.8133	1652.1869	1683.7211	1751.061	2327.3691	2970.3733	3005.9199	3221.4452	3231.3536	3525.8484	3623.9498
NC12CC1(C#N)C1OC21	NC1=COC=C(C1)C#N	
InChI=1S/C6H6N2O/c7-2-5-1-6(5,8)4-3(5)9-4/h3-4H,1,8H2	InChI=1S/C6H6N2O/c7-2-5-1-6(8)4-9-3-5/h3-4H,1,8H2
