21
gdb 40076	3.18925	1.41153	1.3459	1.3172	81.18	-0.2269	0.0808	0.3076	1073.6819	0.184087	-387.074827	-387.067086	-387.066142	-387.107354	31.318	
C	-0.2396266999	 1.3045168583	-0.2738990271	-0.322768
C	 1.1940509273	 0.8630900253	-0.0199990229	-0.341492
C	 0.0899164278	-0.1332246772	 0.0534818826	 0.446761
C	-0.3841110692	-0.8272941036	 1.3221637023	-0.305159
C	-1.4206601095	-1.8252018016	 0.7895699514	-0.033823
C	-2.8171585585	-1.2537292232	 0.3986517843	-0.231167
C	-2.4720344857	-1.4208901584	-1.109531571	-0.237138
C	-1.0606225027	-1.9550092671	-0.7277918245	 0.107514
O	 0.0323187352	-1.0867857507	-0.9856121239	-0.295395
H	-0.7329275372	 1.9157328008	 0.4749726123	 0.107225
H	-0.5096222721	 1.5280636688	-1.2996917272	 0.117818
H	 1.8537287201	 0.7996571808	-0.8781010484	 0.123976
H	 1.6768079305	 1.1667188659	 0.9029772419	 0.112109
H	 0.4506454515	-1.3617289109	 1.7898799087	 0.10413
H	-0.795364207	-0.1293473484	 2.0566299685	 0.101887
H	-1.4504988767	-2.7506815058	 1.3664491759	 0.067636
H	-3.6600680517	-1.8576176812	 0.7422279663	 0.098882
H	-2.9859090131	-0.2224207136	 0.7198950533	 0.099422
H	-3.0903262247	-2.1525362434	-1.6358915967	 0.097806
H	-2.4470164527	-0.5010863869	-1.6970844644	 0.108221
H	-0.7969139219	-2.936807678	-1.1270961513	 0.073555
57.0645	103.2195	249.4368	312.9793	355.2273	375.6815	461.7035	547.0954	623.236	733.4789	744.3163	758.0566	774.2279	841.7313	847.823	889.9472	900.9058	913.218	932.0624	957.3628	977.116	990.3121	1037.7293	1052.7254	1058.4145	1075.4606	1111.5196	1127.7599	1183.2697	1189.8031	1205.9351	1223.0916	1242.2969	1259.2855	1268.0279	1282.2242	1302.8558	1331.5065	1373.9314	1377.0806	1450.5992	1466.0428	1482.4682	1489.6325	1499.1757	3037.1845	3058.107	3065.1078	3080.3492	3093.7689	3094.6499	3107.1877	3126.6741	3129.0724	3132.9864	3214.2174	3228.3228
C1CC11CC2CCC2O1	C1CC21C[C@H]1CC[C@H]1O2	
InChI=1S/C8H12O/c1-2-7-6(1)5-8(9-7)3-4-8/h6-7H,1-5H2	InChI=1S/C8H12O/c1-2-7-6(1)5-8(9-7)3-4-8/h6-7H,1-5H2/t6-,7-/m1/s1
