20
gdb 112270	2.36642	1.1814	0.86194	3.297	76.11	-0.229	0.0062	0.2352	1400.4792	0.170224	-440.305262	-440.295435	-440.294491	-440.340696	34.817	
C	 0.290268559	 1.5962196929	 0.0586641503	-0.389479
C	 0.1203718912	 0.0740478037	 0.0430329886	-0.189491
C	 0.4445414125	-0.5331019214	-1.3071482167	 0.112985
O	 1.8777194716	-0.4202051896	-1.6354119431	-0.258995
C	 2.0513383573	-1.7831252806	-1.6375424298	 0.421454
O	 3.0717433188	-2.3867039328	-1.7423096873	-0.328917
C	 0.5485919319	-2.078020312	-1.4195488487	-0.168513
N	 0.0978035031	-2.9002046671	-0.3284092887	-0.286579
C	 0.1735635988	-4.3374977163	-0.5981254625	-0.327576
H	 1.3161548952	 1.87333633	-0.199937476	 0.140388
H	-0.379661283	 2.0761487934	-0.663005787	 0.118302
H	 0.0651981715	 2.005238033	 1.0476241705	 0.118144
H	 0.7662557846	-0.3765270209	 0.8066392199	 0.098886
H	-0.9086833456	-0.2063806655	 0.2968435843	 0.119279
H	-0.1392390055	-0.0605488382	-2.1030244693	 0.093794
H	 0.0979551886	-2.4505728257	-2.3454351363	 0.115802
H	 0.6198457542	-2.6869367374	 0.5143479439	 0.228355
H	-0.4995228915	-4.583302574	-1.4269459598	 0.126621
H	 1.1812318102	-4.6919693935	-0.8598601983	 0.13148
H	-0.1704339828	-4.8837620979	 0.2843361259	 0.12406
73.2949	80.2083	107.1363	129.2085	169.0825	222.3309	250.6476	289.9592	320.6156	440.7888	461.2608	557.2775	708.265	740.3938	758.2506	812.4986	843.7232	899.1241	938.1344	981.0598	1039.8547	1064.1056	1086.6841	1124.0191	1130.7437	1157.1836	1183.3216	1213.1194	1242.8672	1276.1376	1306.1153	1347.8362	1361.1215	1408.286	1414.3434	1458.8309	1472.4067	1487.4035	1498.105	1503.6538	1507.877	1524.4768	1922.0904	2997.246	3029.8471	3038.7958	3056.4989	3066.2576	3069.298	3077.3859	3107.697	3110.9431	3121.1043	3530.6765
CCC1OC(=O)C1NC	CC[C@H]1OC(=O)[C@H]1NC	
InChI=1S/C6H11NO2/c1-3-4-5(7-2)6(8)9-4/h4-5,7H,3H2,1-2H3	InChI=1S/C6H11NO2/c1-3-4-5(7-2)6(8)9-4/h4-5,7H,3H2,1-2H3/t4-,5+/m1/s1
