17
gdb 98813	3.07249	1.25068	0.90415	2.9442	73.44	-0.2523	-0.0071	0.2451	1262.1632	0.135706	-455.173196	-455.164216	-455.163272	-455.207747	31.506	
C	 0.0299995049	 1.3450750139	 0.00999858	-0.223575
O	-0.0573321697	-0.0818359492	 0.0029481921	-0.21937
C	-1.2928400567	-0.5900800853	 0.0100938453	 0.500515
N	-2.3433087739	 0.1262602551	 0.0221851687	-0.593491
N	-1.2420476042	-1.9821097949	 0.002305368	-0.181296
C	-2.3517424575	-2.9441047918	 0.0049511756	-0.182096
C	-1.2941325492	-4.0811160235	-0.0099761918	-0.380518
C	-0.2325475495	-2.9626207872	-0.0115164131	 0.424689
O	 0.9597118344	-2.9040235643	-0.0204624949	-0.327086
H	 1.09707954	 1.567837819	 0.0028927205	 0.135981
H	-0.4591605429	 1.7667151982	-0.8718586084	 0.140353
H	-0.4453387149	 1.757091111	 0.9038798324	 0.14036
H	-3.1875893708	-0.4394680558	 0.025972825	 0.223065
H	-2.9715143789	-2.8913553361	 0.9049259044	 0.127529
H	-2.9851151445	-2.8805433651	-0.8848003402	 0.127537
H	-1.2699083886	-4.714980613	 0.8777027144	 0.143699
H	-1.283657118	-4.7042875511	-0.9054616979	 0.143703
59.6344	86.129	141.67	161.6373	177.8389	200.7865	316.8688	377.4064	430.1646	538.9902	589.3906	735.5806	776.4016	777.0258	800.9494	823.4769	935.0442	982.8049	1037.4724	1046.8678	1104.8676	1156.9798	1157.5968	1181.3412	1194.6013	1212.7205	1228.6056	1253.9626	1347.7387	1404.0581	1460.0025	1478.7018	1482.7674	1500.8874	1526.3133	1717.266	1904.41	3048.9206	3050.6676	3093.3168	3097.2867	3124.8282	3150.6949	3158.498	3534.848
COC(=N)N1CCC1=O	CO[C]([NH])N1CCC1=O	
InChI=1S/C5H8N2O2/c1-9-5(6)7-3-2-4(7)8/h6H,2-3H2,1H3	InChI=1S/C5H8N2O2/c1-9-5(6)7-3-2-4(7)8/h6H,2-3H2,1H3
