22
gdb 57411	3.15869	1.07445	1.00938	2.8488	83.54	-0.2585	0.0295	0.2879	1314.157	0.192353	-404.365099	-404.355227	-404.354283	-404.399499	37.572	
C	 0.0394506813	 1.5627339677	-0.1306817785	-0.42449
C	-0.0160964474	 0.0282654212	-0.0293198411	 0.230147
C	 0.8261788231	-0.4325705562	 1.1764211744	-0.410718
C	-1.4729958352	-0.4401418096	 0.1403449796	-0.411537
C	 0.5497464468	-0.6486757617	-1.2823407111	 0.140391
C	 0.0971376932	-0.2257971641	-2.6992907778	-0.396447
C	 1.5525951936	 0.141935399	-2.8863204859	 0.439979
N	 2.2370579509	 0.5962352233	-3.8332846324	-0.543764
O	 1.9211287299	-0.2152733765	-1.604971285	-0.27133
H	 1.0615465582	 1.9088345413	-0.3050617789	 0.132517
H	-0.5944585732	 1.9478346505	-0.935587506	 0.113025
H	-0.3143910732	 2.0114029732	 0.8028995713	 0.114462
H	 0.458413547	 0.0232487918	 2.1013339121	 0.11165
H	 0.7816337423	-1.5205159912	 1.2986025724	 0.109236
H	 1.8750479115	-0.1496236728	 1.04965146	 0.133083
H	-2.0980156589	-0.1270320191	-0.7027908566	 0.115515
H	-1.5365644587	-1.5311078111	 0.2211258502	 0.113264
H	-1.9066564616	-0.014641559	 1.0509449184	 0.118823
H	 0.5527075678	-1.7350802657	-1.140233562	 0.087505
H	-0.2599113752	-1.0277175019	-3.3469407942	 0.13576
H	-0.5927098419	 0.6170477173	-2.7551876561	 0.136883
H	 3.2165763798	 0.7014252436	-3.5629159027	 0.226047
73.7028	84.5394	190.0774	213.7184	246.8241	253.6065	282.8526	307.7435	336.9357	384.7298	417.4796	493.5114	497.9625	525.0665	694.4449	757.8266	840.5869	867.284	931.7347	938.4265	941.0359	957.7557	960.6647	986.1044	1019.7106	1042.3138	1054.5943	1063.8897	1125.8418	1225.8655	1229.7649	1233.8475	1247.4059	1294.8681	1334.3303	1380.7576	1398.8386	1399.3457	1434.0513	1461.4431	1480.9622	1486.8191	1489.5317	1504.8705	1507.2462	1521.2765	1824.3987	3026.4379	3030.904	3039.2185	3046.485	3092.7549	3093.3845	3097.8817	3098.7747	3103.9691	3114.4462	3121.8071	3146.018	3474.4449
CC(C)(C)C1CC(=N)O1	CC(C)(C)[C@H]1C[C]([NH])O1	
InChI=1S/C7H13NO/c1-7(2,3)5-4-6(8)9-5/h5,8H,4H2,1-3H3	InChI=1S/C7H13NO/c1-7(2,3)5-4-6(8)9-5/h5,8H,4H2,1-3H3/t5-/m1/s1
