21
gdb 58258	2.58233	1.10446	0.92105	0.9378	74.79	-0.2542	0.0607	0.3149	1361.151	0.179701	-461.341909	-461.331493	-461.330548	-461.377557	38.199	
C	-0.260955312	 0.7966540969	 1.3128047993	-0.417169
C	-0.2447033921	 0.3337243996	-0.1382516428	 0.098756
O	 0.9463137666	-0.4009049361	-0.4581671627	-0.449571
C	-1.4720746415	-0.4941833957	-0.5738262916	 0.092318
O	-1.3074637472	-0.8842152867	-1.9280472668	-0.439426
C	-1.6895694165	-1.7334524641	 0.2752489083	 0.02537
O	-2.2864761299	-1.5741345273	 1.5693688186	-0.268526
C	-3.0055902887	-2.3179346154	 0.5728796223	 0.082223
C	-4.327804558	-1.7683511678	 0.1057021893	-0.41828
H	 0.6217685693	 1.4083825693	 1.5188641567	 0.122694
H	-1.1540314865	 1.393467565	 1.5206748272	 0.128534
H	-0.2729443373	-0.0520451965	 2.0040231194	 0.135961
H	-0.2081764419	 1.203222445	-0.8046667147	 0.09629
H	 1.1236454177	-1.0092035495	 0.2676795005	 0.287527
H	-2.3577630649	 0.1465555145	-0.5209910511	 0.085078
H	-0.3660723565	-1.0892239927	-2.0184295738	 0.287402
H	-0.8430788879	-2.4262014796	 0.2594580479	 0.073042
H	-3.014871055	-3.3922400179	 0.7696082614	 0.088501
H	-4.2888577452	-0.690084868	-0.058255276	 0.129719
H	-4.6277770922	-2.2525036221	-0.8294484983	 0.13208
H	-5.1024043303	-1.968518231	 0.8532989569	 0.127477
44.6593	89.9277	126.489	171.154	196.5365	240.3395	275.7528	287.3779	324.8735	356.3154	400.404	428.9665	503.6314	523.8731	564.5414	641.7149	779.5608	832.8657	866.1135	918.9014	971.0124	995.003	1016.5477	1068.7493	1087.4766	1100.3713	1107.7067	1152.8381	1174.3003	1196.1074	1255.846	1278.917	1302.4455	1315.422	1352.1394	1405.873	1413.7001	1419.1666	1425.0561	1432.3141	1470.6869	1488.0663	1490.8112	1495.9524	1514.0663	3041.6695	3042.67	3046.2676	3058.6922	3072.4131	3085.835	3104.4347	3114.8073	3120.3102	3138.3324	3742.8902	3806.8613
CC(O)C(O)C1OC1C	C[C@@H](O)[C@@H](O)[C@H]1O[C@H]1C	
InChI=1S/C6H12O3/c1-3(7)5(8)6-4(2)9-6/h3-8H,1-2H3	InChI=1S/C6H12O3/c1-3(7)5(8)6-4(2)9-6/h3-8H,1-2H3/t3-,4+,5-,6+/m1/s1
