15
gdb 129555	3.27385	1.22121	0.98157	3.5861	71.3	-0.2523	-0.0089	0.2434	1163.0915	0.115397	-413.006724	-412.998581	-412.997637	-413.04038	29.29	
N	 0.3383989576	 1.182461047	 0.4872079737	-0.488485
C	-0.0808385233	-0.1508336534	 0.0210837347	-0.264554
C	-1.543389391	-0.1460128481	-0.1621465648	 0.309467
N	-2.6799138021	-0.1328594564	-0.368249605	-0.320632
C	 0.5938171229	-0.6560502868	-1.2333016046	 0.394192
C	 1.8448146468	-1.2146900938	-1.4177208369	-0.323463
C	 1.9533165488	-1.3932604632	-2.8124148163	 0.002012
N	 0.8598312755	-0.9861508116	-3.4517248041	-0.21915
N	 0.0544881465	-0.5351923698	-2.4742761333	-0.24994
H	 1.3372938176	 1.1550584869	 0.6721356557	 0.244521
H	 0.2071236938	 1.8574519039	-0.2619362248	 0.243399
H	 0.1420654549	-0.8538800331	 0.8319834863	 0.154131
H	 2.5672302937	-1.4585460664	-0.6550314263	 0.109105
H	 2.7787881221	-1.8052894133	-3.3738154415	 0.12078
H	-0.8771921138	-0.2252641119	-2.7037649028	 0.288615
38.7886	117.9031	160.8786	205.3309	241.0426	344.0544	387.0422	492.5268	561.6408	591.8233	680.6	707.1864	743.74	807.0612	880.2422	897.9161	910.926	937.9602	1040.1936	1062.9049	1107.6551	1137.4609	1191.9421	1239.1847	1266.0875	1310.961	1370.207	1397.3314	1445.8514	1491.4261	1590.1925	1660.7206	2364.0013	3053.6893	3246.9451	3265.5915	3488.1797	3570.4852	3645.9025
NC(C#N)C1=CC=NN1	N[C@@H](C#N)c1ccn[nH]1	
InChI=1S/C5H6N4/c6-3-4(7)5-1-2-8-9-5/h1-2,4H,7H2,(H,8,9)	InChI=1S/C5H6N4/c6-3-4(7)5-1-2-8-9-5/h1-2,4H,7H2,(H,8,9)/t4-/m0/s1
