16
gdb 36649	3.47018	1.14801	1.01205	3.0046	68.7	-0.2512	0.001	0.2522	1168.8444	0.123612	-437.804592	-437.796736	-437.795792	-437.838189	28.775	
N	 0.5649292532	-0.1066927525	 1.3927526306	-0.305289
C	 0.26081142	 0.5812294755	 0.515799363	 0.26508
C	-0.1125432289	 1.4719207947	-0.6009306706	-0.205009
O	 0.9426623049	 2.3019933352	-1.0195388101	-0.242512
C	 1.2650379511	 3.3282777092	-0.1136171424	 0.146631
C	 2.3127825334	 3.1191947117	 1.0270891422	 0.01481
C	 3.4254816343	 2.970980961	-0.0364755975	-0.223877
C	 2.5213413595	 4.1648498356	-0.4277725869	 0.00259
O	 2.5001107054	 4.587106279	 0.9909158706	-0.307823
H	-0.3968979015	 0.8577057528	-1.4600966506	 0.165204
H	-0.993289454	 2.0572128097	-0.2963000432	 0.147259
H	 0.3864613732	 3.9111542314	 0.1858872974	 0.09186
H	 2.2032135297	 2.6465962347	 2.0012944919	 0.117504
H	 4.423619589	 3.2456384107	 0.3049113101	 0.11341
H	 3.4077894004	 2.0875376875	-0.6752067466	 0.118318
H	 2.6614866803	 4.9358681639	-1.1848311178	 0.101844
43.2426	68.1977	195.9941	217.9499	332.4817	376.7502	392.2698	553.7911	572.9308	620.8198	742.8007	829.2788	876.1099	898.3578	902.1405	929.2304	939.9449	1012.9746	1021.3116	1043.5057	1077.5737	1109.8838	1121.1072	1169.4027	1176.4	1203.2956	1228.9885	1258.4642	1291.4131	1293.8453	1366.9452	1399.9904	1469.7273	1481.6635	2358.2131	3002.5127	3054.7692	3087.565	3095.2852	3128.4343	3146.0534	3167.6043
N#CCOC1C2CC1O2	N#CCO[C@H]1[C@H]2C[C@@H]1O2	
InChI=1S/C6H7NO2/c7-1-2-8-6-4-3-5(6)9-4/h4-6H,2-3H2	InChI=1S/C6H7NO2/c7-1-2-8-6-4-3-5(6)9-4/h4-6H,2-3H2/t4-,5+,6+
