20
gdb 100863	2.36882	1.07752	0.89528	2.1871	76.97	-0.2162	-0.0421	0.1741	1389.7471	0.166518	-440.280855	-440.270184	-440.269239	-440.317183	36.944	
C	-0.0520194249	 1.6643587396	 0.09187854	-0.389736
C	-0.003766967	 0.145784286	-0.0802572893	-0.12304
N	-1.3383264062	-0.4591966007	-0.1449944659	-0.063359
C	-2.0831341806	-0.1160258646	-1.3563950523	-0.343759
C	-1.3843138297	-1.8626446041	 0.1953614681	-0.184209
C	-2.7710039429	-2.2584525494	 0.7191538556	 0.13851
O	-3.1365678347	-3.3936977807	 0.8733294932	-0.244868
C	-0.8944207667	-2.8716418312	-0.8531919707	 0.157691
O	-0.25492831	-2.5617725778	-1.82465447	-0.246861
H	 0.9591275565	 2.0523002409	 0.2486213468	 0.117899
H	-0.4590568883	 2.1669001943	-0.7901970297	 0.122626
H	-0.6670892173	 1.9357541514	 0.9551108155	 0.121038
H	 0.6001522614	-0.1131055066	-0.9642302407	 0.111419
H	 0.5063723248	-0.2878820098	 0.7878940399	 0.095808
H	-1.5604027506	-0.3932555928	-2.2828605932	 0.131516
H	-3.0539601777	-0.6227666002	-1.3495508088	 0.116918
H	-2.2839023613	 0.9580492385	-1.3750444948	 0.126414
H	-0.7271525622	-2.0317730329	 1.0662091157	 0.13793
H	-3.4048558764	-1.3818239303	 0.9752293155	 0.104496
H	-1.1785623264	-3.9235841997	-0.641974105	 0.113566
63.8184	71.0699	104.3854	125.9048	188.0787	200.8995	207.8014	244.826	270.0114	315.5194	359.3906	399.669	491.9115	573.505	691.2728	752.4643	807.6393	864.2187	885.8546	982.0694	1047.0694	1074.6201	1078.5836	1111.1213	1126.2838	1163.4493	1198.6627	1227.6553	1266.5413	1333.765	1343.5602	1388.1832	1395.8568	1400.8234	1419.1505	1462.3354	1482.6206	1491.2764	1501.2637	1515.497	1519.6104	1814.8906	1836.9964	2902.463	2922.4893	2972.8558	2983.9188	3004.8726	3042.438	3049.056	3074.8417	3107.0243	3114.013	3119.0717
CCN(C)C(C=O)C=O	CCN(C)C(C=O)C=O	
InChI=1S/C6H11NO2/c1-3-7(2)6(4-8)5-9/h4-6H,3H2,1-2H3	InChI=1S/C6H11NO2/c1-3-7(2)6(4-8)5-9/h4-6H,3H2,1-2H3
