25
gdb 102646	2.18475	0.94852	0.78025	2.0797	85.74	-0.25	0.0667	0.3168	1634.137	0.226201	-426.62272	-426.611028	-426.610084	-426.660411	41.845	
C	-0.1984067764	 1.4837209253	-0.1034810254	-0.24155
O	-0.1195837259	 0.0803629896	 0.0370869794	-0.254068
C	-1.3769607564	-0.6035276224	-0.032068034	 0.068443
C	-1.7347676688	-0.8238971091	-1.5096923701	-0.065389
O	-0.6855341697	-1.4778630071	-2.1963675576	-0.421576
C	-1.22399079	-1.926280137	 0.7220866351	-0.178457
C	-0.7711520614	-1.8080273621	 2.187460421	 0.041239
C	-1.8012112211	-1.0838195305	 3.0660127019	-0.387031
C	-0.4610680067	-3.1987344206	 2.7576239066	-0.390227
H	 0.816594027	 1.8744772278	 0.0042644111	 0.13001
H	-0.588611271	 1.7910860881	-1.0840272316	 0.112284
H	-0.8345048979	 1.9296015217	 0.6753968408	 0.111679
H	-2.1563838835	 0.0174853307	 0.4358416843	 0.065588
H	-2.6259509748	-1.4557467078	-1.5899756293	 0.105503
H	-1.9769035979	 0.1419243802	-1.9829648341	 0.081272
H	 0.1243708397	-1.047336369	-1.8930802902	 0.285923
H	-2.1876653261	-2.4522261227	 0.6758839539	 0.089147
H	-0.5098440204	-2.5428533683	 0.1655035439	 0.107517
H	 0.1546632786	-1.2207139265	 2.193883838	 0.086802
H	-2.7597505775	-1.6177619291	 3.0702044795	 0.107875
H	-1.4545427053	-1.0216922072	 4.1029001991	 0.109962
H	-1.9906309253	-0.0615391817	 2.7241327743	 0.10862
H	 0.3019863796	-3.7127647408	 2.1638315169	 0.111077
H	-0.0965335548	-3.1320969063	 3.7881865178	 0.106787
H	-1.3576423737	-3.8308083851	 2.7643051085	 0.108569
34.9014	73.3194	96.3279	112.7123	145.3575	205.3772	222.8723	238.4497	259.8369	307.1103	328.5093	339.9616	413.5116	430.4482	476.5826	537.4622	661.3453	798.9342	836.9729	898.112	913.7732	932.0912	966.2651	980.3544	994.3593	1080.692	1092.097	1122.4142	1158.4005	1159.7949	1183.851	1194.2067	1219.7207	1229.1612	1272.166	1289.7959	1339.6095	1370.9701	1373.7666	1382.3985	1401.6321	1410.3171	1422.2674	1432.1404	1473.9803	1479.8522	1487.301	1488.7188	1495.6758	1505.3021	1509.1242	1510.6366	1514.6734	2962.3415	2983.5297	2994.8377	3016.7889	3021.1185	3025.1417	3037.6221	3041.1126	3069.5601	3076.1484	3084.6747	3093.5033	3098.0055	3100.2416	3112.9104	3767.7619
COC(CO)CC(C)C	CO[C@@H](CO)CC(C)C	
InChI=1S/C7H16O2/c1-6(2)4-7(5-8)9-3/h6-8H,4-5H2,1-3H3	InChI=1S/C7H16O2/c1-6(2)4-7(5-8)9-3/h6-8H,4-5H2,1-3H3/t7-/m1/s1
