21
gdb 105223	2.00425	1.42652	1.09926	3.2029	74.77	-0.2507	0.0607	0.3114	1214.2267	0.180495	-461.335454	-461.325257	-461.324313	-461.370236	38.502	
C	 0.2473713342	-0.9389734056	 1.8246747416	-0.41225
C	 0.0334630622	-0.416286682	 0.3983046549	 0.067322
O	 1.0244352976	-0.9338082502	-0.477150771	-0.444753
C	-1.3970938693	-0.6720386516	-0.1120774179	 0.312867
C	-2.4836070768	 0.0793100276	 0.6257094481	-0.155639
O	-2.2466020153	 1.4725463465	 0.468458371	-0.418045
C	-1.5925263141	-0.8883435856	-1.600464837	-0.364234
C	-1.7661525162	-2.0328900969	-0.6359731587	 0.022579
O	-0.7910197573	-3.0497367129	-0.5509632367	-0.427638
H	 1.2834162912	-0.7560043684	 2.1222155374	 0.119522
H	-0.4050306212	-0.439734319	 2.5477283697	 0.10905
H	 0.0568606687	-2.0161998657	 1.8760345946	 0.1232
H	 0.1804103594	 0.6683955575	 0.390945562	 0.104401
H	 0.8605650801	-1.8857787122	-0.5258790715	 0.280088
H	-3.4664127394	-0.2020639786	 0.214254447	 0.080029
H	-2.4856512006	-0.2023031814	 1.6896813444	 0.092152
H	-2.8667859185	 1.9482630028	 1.0286039274	 0.288258
H	-2.4728821361	-0.4745219315	-2.080545342	 0.110123
H	-0.6851525739	-0.8835719688	-2.1925676579	 0.130603
H	-2.777185679	-2.393403281	-0.4465889631	 0.088044
H	-0.8573777358	-3.5891343632	-1.3465886524	 0.294321
60.0114	103.0134	172.1898	205.1767	244.1475	248.7409	264.3209	303.7967	333.6567	377.318	395.3673	457.2321	460.5892	495.0112	582.9113	637.7257	701.755	809.7467	890.7624	914.0729	929.4821	964.1706	1026.0434	1058.5134	1062.978	1074.6044	1093.3939	1110.5409	1132.9527	1170.1471	1218.5455	1243.6837	1266.9937	1292.8081	1328.9337	1344.633	1362.0399	1400.249	1419.4783	1457.0176	1463.1381	1488.4183	1497.7502	1498.7758	1525.4231	2965.0203	3000.361	3038.2721	3064.281	3097.632	3110.3416	3118.5935	3137.3609	3233.4496	3743.0976	3800.3518	3830.9687
CC(O)C1(CO)CC1O	C[C@@H](O)[C@@]1(CO)C[C@H]1O	
InChI=1S/C6H12O3/c1-4(8)6(3-7)2-5(6)9/h4-5,7-9H,2-3H2,1H3	InChI=1S/C6H12O3/c1-4(8)6(3-7)2-5(6)9/h4-5,7-9H,2-3H2,1H3/t4-,5-,6+/m1/s1
