16
gdb 55514	3.46195	1.00442	0.78238	4.5812	70.02	-0.248	-0.0491	0.1989	1399.2918	0.122869	-471.279717	-471.269795	-471.268851	-471.315821	34.074	
C	-0.2383176053	 1.4783563531	 0.0121801133	-0.49932
C	 0.1360073785	 0.0059420903	 0.0011651085	 0.410961
O	 1.2688761688	-0.4008044029	-0.0152050272	-0.297119
N	-0.9882024514	-0.8324942759	 0.0126183897	-0.388686
C	-1.0189508972	-2.2073961923	 0.0041592397	 0.436712
O	-0.0753594889	-2.9644744234	-0.0148606647	-0.342752
C	-2.4582196835	-2.7384456207	 0.0185472779	 0.282203
N	-2.4787642724	-4.0901709211	 0.042296736	-0.530924
N	-3.4173762317	-1.887827045	 0.0149679408	-0.549246
H	 0.674716095	 2.072140569	 0.0025905862	 0.154773
H	-0.8477424771	 1.7297667024	-0.8623762087	 0.14673
H	-0.8243863836	 1.7224479784	 0.9045835074	 0.146751
H	-1.9208293516	-0.4287311827	 0.0238383067	 0.274918
H	-1.5889819109	-4.5622608023	-0.0110186042	 0.281818
H	-3.334383046	-4.611303114	-0.0212587392	 0.260326
H	-4.3381799726	-2.3262501828	 0.0247116878	 0.212855
53.1045	63.5557	96.0969	102.3368	140.3362	186.7782	288.6837	340.0539	390.424	463.5802	535.4038	550.3569	587.6688	593.9728	649.8291	777.345	825.8306	855.3773	873.0207	931.4323	1029.4878	1053.5879	1076.8851	1137.0321	1194.9021	1231.2758	1387.5543	1428.8283	1468.518	1481.0814	1529.7947	1595.8436	1728.0939	1793.7772	1856.4957	3042.443	3105.0862	3166.6039	3476.5198	3515.9359	3590.3634	3737.9138
CC(=O)NC(=O)C(N)=N	CC(=O)NC(=O)C(=N)N	
InChI=1S/C4H7N3O2/c1-2(8)7-4(9)3(5)6/h1H3,(H3,5,6)(H,7,8,9)	InChI=1S/C4H7N3O2/c1-2(8)7-4(9)3(5)6/h1H3,(H3,5,6)(H,7,8,9)
