16
gdb 81063	2.53709	1.63062	1.18736	6.73	65.42	-0.2569	0.0008	0.2577	1030.7887	0.124419	-474.972094	-474.96424	-474.963295	-475.004624	30.065	
N	 0.0253941846	 1.2683352876	-0.0133790946	-0.550851
H	-0.0135302345	 0.3172019788	-0.3623799816	 0.247629
H	 1.6859641181	 1.4172506348	 1.3315413554	 0.313553
H	-0.280032749	 1.882635392	-0.7589060237	 0.252447
C	-0.7522387542	 1.463623565	 1.1924858048	-0.015007
C	-1.8193155309	 0.4909961164	 1.8010604714	 0.004825
C	-0.7143445895	-0.5572212338	 2.0681438453	-0.276916
C	-0.2002434902	 0.8485305967	 2.5041227186	 0.28334
O	-1.5111450236	 1.0951697905	 3.1217526693	-0.320338
C	 1.1038347241	 1.2182798441	 3.1547422994	 0.310346
O	 2.0683974536	 1.4350327307	 2.2314376446	-0.381006
O	 1.3036404414	 1.3005129036	 4.331301259	-0.317136
H	-1.0200153807	 2.5147861975	 1.3100961858	 0.111614
H	-2.8725763186	 0.3460397376	 1.5603288636	 0.104016
H	-0.9143633715	-1.2341802705	 2.8983151922	 0.134857
H	-0.230784029	-1.0619779507	 1.2274830504	 0.098627
78.1973	149.7147	195.4353	269.7763	315.0808	331.5554	407.6471	487.3748	579.7837	624.6004	697.5575	726.0271	749.0793	755.2886	826.1657	880.8971	885.0741	916.2585	972.2506	978.74	1027.678	1100.8346	1123.1978	1149.4677	1171.8689	1202.3726	1207.0783	1228.7758	1251.3518	1319.3881	1404.6681	1424.1842	1497.0529	1656.0529	1885.5919	3064.591	3113.7604	3123.0916	3155.6562	3521.747	3554.946	3603.8449
[NH3+]C1C2CC1(O2)C([O-])=O	N[C@H]1[C@H]2C[C@@]1(O2)C(=O)O	
InChI=1S/C5H7NO3/c6-3-2-1-5(3,9-2)4(7)8/h2-3H,1,6H2,(H,7,8)	InChI=1S/C5H7NO3/c6-3-2-1-5(3,9-2)4(7)8/h2-3H,1,6H2,(H,7,8)/t2-,3+,5+/m1/s1
