18
gdb 80415	2.60748	1.76965	1.27216	3.5303	72.65	-0.2394	0.0233	0.2627	1018.1034	0.148371	-439.097746	-439.089585	-439.088641	-439.130605	31.173	
C	-0.0190312068	 1.3630385595	-0.115216121	-0.350542
N	-0.0195886747	-0.0605807876	 0.1135683513	-0.060495
C	-1.1822978272	-0.9833977666	 0.0215399843	-0.027852
C	-0.752371285	-2.1021129627	 1.0116454237	-0.274859
C	 0.3592196951	-2.2801045421	-0.0760751877	 0.307198
O	 1.2202032162	-3.3463978736	-0.1532174981	-0.480472
C	-0.7577355819	-1.9389340085	-1.1336497897	-0.285755
C	 1.0462566421	-0.9044605857	-0.0025697647	 0.357966
O	 2.2389746798	-0.6878801562	-0.0697707826	-0.427907
H	 1.020959064	 1.697393367	-0.1068019402	 0.163283
H	-0.4628883495	 1.625781241	-1.0849279586	 0.125341
H	-0.5662668815	 1.8931973452	 0.6719819954	 0.129567
H	-2.1445003722	-0.4805895961	 0.06870417	 0.089797
H	-0.4515250527	-1.7958900074	 2.0157839055	 0.108671
H	-1.4472153714	-2.9440669779	 1.0392357397	 0.112263
H	 2.1120404159	-2.9636652195	-0.1846804981	 0.294032
H	-1.4488424184	-2.768910699	-1.2967552764	 0.112659
H	-0.4546900718	-1.4846728796	-2.0803771428	 0.107104
58.5148	150.4466	180.0383	245.8464	267.0987	366.7655	448.9702	478.1182	481.7547	514.3379	578.9377	706.0863	740.4774	745.1165	840.5474	916.5038	929.5747	938.7245	971.9387	998.3527	1045.4451	1056.5404	1095.5932	1151.7147	1154.3038	1161.1579	1214.4497	1220.5032	1246.9304	1261.5848	1355.2707	1413.1039	1431.4485	1463.363	1476.8659	1486.6558	1516.9829	1523.8238	1836.674	3008.5419	3061.8623	3067.1804	3070.3741	3130.6797	3130.9898	3139.5201	3159.5332	3687.9062
CN1C2CC(O)(C2)C1=O	CN1[C@@H]2C[C@@](O)(C2)C1=O	
InChI=1S/C6H9NO2/c1-7-4-2-6(9,3-4)5(7)8/h4,9H,2-3H2,1H3	InChI=1S/C6H9NO2/c1-7-4-2-6(9,3-4)5(7)8/h4,9H,2-3H2,1H3/t4-,6-
