27
gdb 118223	3.68206	0.59593	0.58388	1.2401	93.52	-0.2603	0.0705	0.3308	2135.944	0.249269	-390.710302	-390.698155	-390.697211	-390.748403	44.047	
C	 0.104230758	 1.6471545142	-0.0682335352	-0.381886
C	 0.0224305028	 0.1193558268	-0.0258950133	-0.163696
C	 0.6861834324	-0.485123975	 1.2156410562	-0.18056
C	 0.6742750678	-2.0191692706	 1.233220855	 0.108917
O	 1.3272940827	-2.5577893934	 0.0808950129	-0.427111
C	 1.2697574862	-2.5850975252	 2.5299657082	-0.196978
C	 1.2955320127	-4.1213571125	 2.6254406669	 0.050368
C	 2.1340222717	-4.5708501206	 3.8294310776	-0.391642
C	-0.1147172755	-4.7240020145	 2.6949517708	-0.38712
H	 1.1455993828	 1.9891734369	-0.0723476496	 0.110289
H	-0.3793563999	 2.0478777476	-0.9646936493	 0.111274
H	-0.3850126432	 2.0978149264	 0.8028635606	 0.110909
H	-1.0297796	-0.1934357229	-0.0568053929	 0.092599
H	 0.4910962162	-0.309055635	-0.9182512309	 0.108023
H	 1.7301587183	-0.1404815601	 1.2820343858	 0.078974
H	 0.189148751	-0.115330887	 2.1225393126	 0.091887
H	-0.3639796871	-2.3583803907	 1.1303528102	 0.086876
H	 2.2534718426	-2.2928988905	 0.1250588339	 0.274376
H	 2.2978089229	-2.2032882778	 2.6265114249	 0.075988
H	 0.7145550683	-2.1728127069	 3.3842203299	 0.08971
H	 1.7755639579	-4.4933750879	 1.7118935713	 0.081817
H	 1.6971506541	-4.2132021788	 4.7700301502	 0.108732
H	 2.190774715	-5.6630070923	 3.8867310152	 0.10858
H	 3.1576142743	-4.1847208716	 3.7726732263	 0.104765
H	-0.7076984251	-4.4855441434	 1.8073279197	 0.119669
H	-0.0681225835	-5.8152231106	 2.7735753663	 0.109172
H	-0.6577757236	-4.3522996247	 3.5729614368	 0.106068
40.216	67.3176	82.466	110.8784	137.6701	212.7835	231.2108	244.5245	245.2235	284.0975	302.2663	345.6492	357.737	410.2115	427.6711	487.6612	578.5282	746.7252	815.7529	845.4825	855.3809	902.7446	928.385	945.8317	961.497	969.5178	1024.0545	1042.0876	1081.0164	1092.6603	1113.8654	1143.5953	1172.5327	1192.6765	1235.1977	1246.8482	1276.6723	1304.7972	1320.0164	1351.4092	1355.5406	1381.0819	1390.3942	1395.5325	1401.5109	1413.1545	1418.486	1422.0413	1469.801	1480.9959	1488.7674	1493.7956	1495.6631	1499.4694	1504.9703	1511.0329	1512.0375	2985.3293	2991.7036	3020.045	3020.8825	3023.1645	3025.9679	3026.6961	3032.2548	3037.7173	3051.8933	3070.5944	3084.2167	3091.2771	3094.9391	3095.8895	3099.9082	3106.2099	3788.7608
CCCC(O)CC(C)C	CCC[C@@H](O)CC(C)C	
InChI=1S/C8H18O/c1-4-5-8(9)6-7(2)3/h7-9H,4-6H2,1-3H3	InChI=1S/C8H18O/c1-4-5-8(9)6-7(2)3/h7-9H,4-6H2,1-3H3/t8-/m1/s1
