21
gdb 106518	3.11819	1.36593	1.20851	1.2347	77.71	-0.2308	0.0848	0.3156	1132.0409	0.183666	-424.215265	-424.207046	-424.206102	-424.247858	32.432	
C	-0.2349606506	 1.5366520593	 0.0836709728	-0.389959
C	 0.0946177438	 0.043866982	-0.0461147062	-0.268974
C	 0.8330726195	-0.5314808402	 1.1457890645	 0.389275
C	 0.9518297015	-2.0641930033	 1.3289760437	-0.298876
C	 0.7352810527	-1.6822496299	 2.8048700391	 0.071497
C	 2.0553947849	-1.2540723911	 3.434902835	-0.069746
O	 2.8893981673	-0.6513828076	 2.4505340265	-0.27004
C	 2.1844061678	 0.1148667209	 1.47609272	-0.102453
O	 0.0518791737	-0.4642804072	 2.3903526708	-0.337681
H	 0.6662801766	 2.1573839679	 0.0874641415	 0.118986
H	-0.8582846745	 1.8668175425	-0.7523649963	 0.113577
H	-0.7811024438	 1.7282245091	 1.0117225564	 0.140318
H	-0.8351919451	-0.5244704156	-0.1628291884	 0.103793
H	 0.6928522353	-0.1396427074	-0.9480705369	 0.099441
H	 0.0920999745	-2.586850008	 0.906994859	 0.103916
H	 1.8874115298	-2.5509874562	 1.0504790536	 0.111081
H	 0.1228581163	-2.3084880631	 3.4590950298	 0.077759
H	 1.843357121	-0.5567115873	 4.2598813245	 0.09955
H	 2.6163367465	-2.108667107	 3.8298359436	 0.104482
H	 2.8378860854	 0.1576896671	 0.5974357754	 0.103125
H	 2.0090497672	 1.1378442152	 1.8384516714	 0.100928
83.3412	166.4332	209.0304	242.7293	282.1805	326.5342	404.9824	426.8602	454.6446	528.4915	637.4132	678.3687	770.3148	843.2409	869.4152	889.8703	912.1608	920.7693	940.4723	977.7685	1021.9537	1026.2022	1050.3799	1065.4407	1088.1097	1140.2576	1149.9619	1207.479	1230.5749	1243.2465	1261.8822	1268.7398	1310.8134	1325.9316	1343.2967	1374.6224	1378.9983	1410.1696	1415.8788	1473.4537	1483.2219	1485.1839	1494.3244	1503.2039	1508.6268	2989.9823	3002.784	3025.1123	3043.2988	3062.7581	3064.8634	3068.628	3074.9599	3084.6786	3110.1117	3120.6731	3145.0488
CCC12CC(COC1)O2	CC[C@@]12C[C@@H](COC1)O2	
InChI=1S/C7H12O2/c1-2-7-3-6(9-7)4-8-5-7/h6H,2-5H2,1H3	InChI=1S/C7H12O2/c1-2-7-3-6(9-7)4-8-5-7/h6H,2-5H2,1H3/t6-,7+/m0/s1
