21
gdb 85056	2.19308	1.67315	1.07497	3.9958	79.4	-0.2306	0.0595	0.2902	1182.6265	0.183423	-420.470543	-420.461103	-420.460159	-420.504317	35.507	
C	 0.2622171615	 1.5511372058	-0.2234387201	-0.399057
C	-0.0166875487	 0.0710747187	 0.0621219477	 0.009915
N	 0.4628491012	-0.8043580661	-1.004622604	-0.358034
C	 1.7289918368	-1.2975823321	-0.7118229234	 0.444781
O	 2.4769309086	-1.8677442159	-1.477952371	-0.427673
N	 1.9682678172	-1.0227481385	 0.6280845824	-0.108325
C	 2.9633085932	-1.7846783642	 1.3481184468	-0.345239
C	 0.7550772404	-0.5308445264	 1.2727025678	 0.050236
C	 1.0196050595	 0.416736793	 2.4374373489	-0.414774
H	 1.3345306618	 1.7374462542	-0.3342807284	 0.134484
H	-0.2321030615	 1.8496611644	-1.1539235171	 0.114898
H	-0.1237439496	 2.1923761485	 0.5745553563	 0.12053
H	-1.092716517	-0.0686645261	 0.2120842628	 0.086059
H	 0.2955949358	-0.5638896313	-1.9701256026	 0.245441
H	 3.6444324558	-2.2112698463	 0.6097210821	 0.163531
H	 3.5314969344	-1.1481787246	 2.0336397391	 0.121138
H	 2.5117529867	-2.6037909719	 1.9286985993	 0.110355
H	 0.1693617622	-1.3869829271	 1.6520201792	 0.076901
H	 1.644626873	 1.2612756947	 2.1361646029	 0.128719
H	 0.0758554972	 0.8037512643	 2.8347749306	 0.121758
H	 1.5268824414	-0.1077146532	 3.2523784808	 0.124356
91.9126	147.4118	166.5933	190.4005	246.7718	256.9729	276.9621	288.8679	338.685	425.8226	486.7027	532.884	556.7585	657.0223	716.3934	745.2224	769.8394	822.8797	938.3075	979.7285	1012.6882	1031.1402	1090.8076	1125.2736	1139.661	1160.131	1161.959	1197.2955	1281.4309	1304.9391	1322.5926	1384.2097	1385.638	1405.8023	1409.7871	1417.4396	1421.1955	1451.2511	1484.3985	1491.909	1495.5466	1501.9165	1509.0154	1521.596	1830.3151	2936.2767	2988.4237	3036.5893	3041.0595	3043.8908	3071.3212	3103.5631	3109.38	3119.4544	3123.9896	3141.6569	3623.9157
CC1NC(=O)N(C)C1C	C[C@H]1NC(=O)N(C)[C@H]1C	
InChI=1S/C6H12N2O/c1-4-5(2)8(3)6(9)7-4/h4-5H,1-3H3,(H,7,9)	InChI=1S/C6H12N2O/c1-4-5(2)8(3)6(9)7-4/h4-5H,1-3H3,(H,7,9)/t4-,5+/m1/s1
