23
gdb 63959	3.35451	1.16911	1.1201	0.417	92.89	-0.2215	0.024	0.2455	1253.271	0.206196	-351.149752	-351.140987	-351.140043	-351.182525	35.428	
C	-0.0868043071	 1.5663339764	 0.01250669	-0.428912
C	-0.0150034271	 0.0322475245	 0.0011127065	 0.294574
C	-1.4410943497	-0.5514419174	 0.0626555338	-0.413841
C	 0.7650635891	-0.4989763855	-1.2624040812	-0.286914
C	 1.5063123488	-1.7472757529	-0.7517823718	-0.033403
C	 3.0644212898	-1.9539121561	-0.6951782523	-0.240776
C	 2.9401890171	-2.1953561937	 0.8575298037	-0.31879
C	 1.597374634	-1.5130082149	 0.7322273546	 0.299982
C	 0.8556345972	-0.49634658	 1.153732798	-0.277515
H	 0.9145827074	 2.0091672677	 0.0224707921	 0.108757
H	-0.6121169927	 1.9387157339	-0.8745707605	 0.109324
H	-0.6259003366	 1.9328950193	 0.8935739081	 0.107653
H	-2.0604976385	-0.1722602163	-0.7587015407	 0.104954
H	-1.4229319607	-1.6440496819	 0.0004637747	 0.112006
H	-1.9333969349	-0.2818193112	 1.0035505928	 0.108152
H	 0.0974678678	-0.6881244427	-2.1092910897	 0.08788
H	 1.4884288724	 0.2620343048	-1.5784412714	 0.091328
H	 1.0125863311	-2.6861676387	-1.0302086944	 0.072066
H	 3.4862969687	-2.7682774471	-1.2893896352	 0.097026
H	 3.6028177198	-1.0273177484	-0.910935534	 0.105905
H	 2.8667577608	-3.2643093076	 1.0856048911	 0.109649
H	 3.6858517256	-1.7452621346	 1.5172184061	 0.108002
H	 0.8734844379	-0.0211626277	 2.1291279396	 0.082896
91.9512	167.49	234.1234	262.9395	280.8861	304.4798	314.0757	338.0416	424.4178	476.8151	556.0719	608.659	686.4547	762.2813	793.3098	814.5054	855.9336	885.0059	895.9451	910.5752	940.2161	942.8836	961.3521	1008.8344	1029.9233	1059.148	1077.002	1098.6925	1159.5055	1183.2039	1198.953	1219.03	1227.9266	1244.7869	1255.0597	1261.7137	1272.113	1334.2175	1341.9098	1395.2197	1416.6144	1472.9474	1479.6832	1484.2778	1486.3103	1492.3569	1501.2785	1506.8312	1736.9794	3019.0782	3022.7147	3025.5887	3032.8335	3044.2769	3057.5345	3079.867	3085.3806	3089.9614	3095.985	3100.2874	3100.6907	3120.7942	3181.8107
CC1(C)CC2CCC2=C1	CC1(C)C[C@H]2CC[C]2[CH]1	
InChI=1S/C9H14/c1-9(2)5-7-3-4-8(7)6-9/h5,8H,3-4,6H2,1-2H3	InChI=1S/C9H14/c1-9(2)5-7-3-4-8(7)6-9/h5,8H,3-4,6H2,1-2H3/t8-/m1/s1
