17
gdb 127852	5.07353	1.05172	0.88069	4.0789	86.44	-0.2129	-0.0396	0.1733	1311.5616	0.136704	-414.191339	-414.182559	-414.181615	-414.225737	30.719	
C	 0.0730151051	 1.4116711088	 0.0258539054	-0.331633
N	-0.0308225379	-0.0149385263	-0.2091061149	-0.319675
C	-1.1703898728	-0.5866703698	-0.1065945315	 0.333629
C	-1.2490949568	-2.0300426179	-0.3490231341	 0.004615
N	-2.3253660417	-2.7336476111	-0.2813224131	-0.211154
N	-3.4655970005	-2.0458014635	 0.0451771302	-0.010697
C	-4.671552806	-2.8495957523	 0.1180425078	-0.316371
C	-3.4317728765	-0.7065684378	 0.2771387883	 0.120729
N	-2.3865452789	 0.0416433884	 0.222921171	-0.353217
H	 0.7959385298	 1.5871616539	 0.8326060988	 0.119532
H	 0.4902045326	 1.8897605724	-0.8695020472	 0.119538
H	-0.8731263557	 1.8998105201	 0.282535122	 0.126998
H	-0.3364180375	-2.5586571135	-0.6064379302	 0.141331
H	-4.5624721181	-3.6301005958	 0.8764134091	 0.152128
H	-5.5121520722	-2.2060720945	 0.3830808323	 0.142065
H	-4.8711412297	-3.3233645703	-0.8473253869	 0.152122
H	-4.3973362232	-0.267295991	 0.5281694032	 0.13006
56.9684	70.1186	98.6917	193.0717	223.3567	236.4379	366.433	427.4247	444.5153	500.0549	589.0468	671.9634	767.1707	779.9444	821.9137	959.7976	963.6768	972.9727	1054.101	1079.3849	1125.0851	1148.212	1155.4419	1228.2456	1277.4156	1333.6901	1377.8395	1426.3403	1440.808	1467.9138	1471.5927	1486.5242	1494.732	1519.1471	1626.6768	1675.2589	1703.7005	3008.7628	3044.6707	3057.769	3089.5226	3109.8972	3127.0085	3145.257	3187.6451
CN=C1C=NN(C)C=N1	C[N]C1=NCN(N=C1)C	
InChI=1S/C5H8N4/c1-6-5-3-8-9(2)4-7-5/h3-4H,1-2H3	InChI=1S/C5H9N4/c1-6-5-3-8-9(2)4-7-5/h3H,4H2,1-2H3
