16
gdb 55893	2.50959	1.22222	1.00681	2.1635	71.51	-0.2436	0.0421	0.2857	1216.07	0.122342	-437.877597	-437.868442	-437.867498	-437.912486	33.502	
N	-0.2737142013	 1.2081708838	 0.1278369732	-0.564897
C	-0.1263377344	-0.1216339948	-0.1403360979	 0.501133
O	 0.7088568919	-0.6121042575	-0.8584828921	-0.39095
O	-1.0432535491	-0.832478622	 0.5845276017	-0.258396
C	-1.0290354039	-2.2163449114	 0.3606141426	 0.154113
C	-2.1773822924	-2.9670281203	 0.9309092139	-0.339347
C	-2.0640111114	-2.8027735062	-0.5876856242	-0.227574
C	-2.9730308531	-1.9440913218	-1.2838018879	 0.335683
C	-3.7295484514	-1.2252059143	-1.8819477545	-0.463597
H	 0.2111207639	 1.836373143	-0.4897441185	 0.270661
H	-1.1388655366	 1.5227696945	 0.5337136123	 0.267619
H	-0.0355176346	-2.6472044095	 0.3438018272	 0.130182
H	-2.0019171971	-3.9497344467	 1.3526697732	 0.127281
H	-2.9484527881	-2.3820892846	 1.4175270044	 0.139797
H	-1.7356678451	-3.67637615	-1.1430774773	 0.123075
H	-4.4007303273	-0.5965491122	-2.4121581862	 0.195215
34.2681	66.391	152.9805	164.7208	227.1465	345.5338	375.9175	381.0243	456.8139	510.1796	523.0421	579.9177	629.063	648.5535	684.6648	772.7296	781.9371	797.9641	834.4749	928.5211	1017.2109	1058.128	1067.8162	1110.0962	1118.6311	1122.8271	1173.7486	1238.7549	1336.9505	1376.1903	1413.6382	1479.7757	1613.0734	1848.2875	2238.7398	3146.4914	3151.1021	3191.5754	3242.2199	3506.099	3613.3148	3741.6065
NC(=O)OC1CC1C#C	NC(=O)O[C@H]1C[C@H]1C#C	
InChI=1S/C6H7NO2/c1-2-4-3-5(4)9-6(7)8/h1,4-5H,3H2,(H2,7,8)	InChI=1S/C6H7NO2/c1-2-4-3-5(4)9-6(7)8/h1,4-5H,3H2,(H2,7,8)/t4-,5+/m1/s1
