23
gdb 58311	3.16048	0.75879	0.64455	4.2932	87.57	-0.242	0.0246	0.2667	1773.0234	0.203934	-384.482025	-384.470904	-384.469959	-384.518955	40.003	
C	 0.1058088874	 1.5153911128	-0.098470571	-0.401033
C	 0.0054387964	-0.0110096824	 0.0385796754	 0.034423
C	 0.7530795225	-0.4839560313	 1.2929552392	-0.388232
C	-1.4588409451	-0.5133134579	 0.0380392791	 0.069645
C	-2.2906658641	 0.0471166483	-1.1286074409	-0.416561
N	-1.4455614896	-1.9853611072	 0.0744464777	-0.290093
C	-2.705601469	-2.60713646	 0.4543353063	-0.270637
C	-2.5656592154	-4.065840716	 0.5200043006	 0.257881
N	-2.4651904604	-5.216107059	 0.5482618312	-0.29957
H	 1.1502140131	 1.8334901598	-0.0219107529	 0.115478
H	-0.2786244883	 1.8789414071	-1.054726835	 0.115068
H	-0.4489119284	 2.0196908821	 0.7023906242	 0.112412
H	 0.4940795272	-0.4601151901	-0.8403600233	 0.067614
H	 0.6664290155	-1.5644728521	 1.4169934649	 0.133377
H	 1.8138128183	-0.2202843646	 1.234780045	 0.107772
H	 0.3434495223	-0.0042794478	 2.19075324	 0.105253
H	-1.9212124326	-0.1893742565	 0.9823513373	 0.078226
H	-2.4182607945	 1.1299672202	-1.056029339	 0.127038
H	-1.8077447654	-0.1719276964	-2.0887909604	 0.114952
H	-3.2924655462	-0.3930842961	-1.1501774937	 0.113961
H	-1.1369088998	-2.3521905604	-0.8210628951	 0.225422
H	-2.9878136106	-2.2457999025	 1.4511494754	 0.155956
H	-3.5617543435	-2.38881568	-0.2085954149	 0.131648
42.2952	67.889	92.4184	121.737	211.9328	217.4585	229.1791	266.8633	288.4621	359.9463	364.4534	394.6349	414.2693	449.9251	490.1937	581.6205	740.4878	802.1699	893.7517	927.9602	941.4632	947.5067	965.9555	988.7557	1007.3091	1050.7164	1124.5508	1138.446	1170.5236	1190.9017	1201.0307	1249.1313	1305.8251	1337.4034	1348.924	1372.0328	1394.8755	1401.3196	1409.349	1421.9589	1485.4514	1486.3368	1491.1124	1493.9735	1498.6798	1504.8285	1510.6215	1520.7177	2367.4715	2944.8018	2980.8946	3002.6113	3026.5888	3031.3655	3032.435	3047.9241	3089.2999	3096.0936	3097.7505	3111.3352	3120.828	3138.5834	3511.4114
CC(C)C(C)NCC#N	CC(C)[C@@H](C)NCC#N	
InChI=1S/C7H14N2/c1-6(2)7(3)9-5-4-8/h6-7,9H,5H2,1-3H3	InChI=1S/C7H14N2/c1-6(2)7(3)9-5-4-8/h6-7,9H,5H2,1-3H3/t7-/m1/s1
