18
gdb 86758	2.97235	1.18161	0.94255	4.9311	79.16	-0.2598	-0.0057	0.2542	1270.6046	0.146606	-401.974887	-401.965829	-401.964885	-402.008927	32.982	
C	 0.1575321197	 1.6146706676	-0.0733436233	-0.398357
C	-0.045747453	 0.1145955796	 0.1180010377	 0.044271
O	 0.4354440025	-0.5716507671	-1.0502463473	-0.27136
C	 1.261741325	-1.6604727535	-0.6722161085	-0.05917
C	 1.4658604666	-1.5033913821	 0.816624025	-0.217842
C	 0.7181582453	-0.5020279603	 1.2700310949	 0.313934
C	 0.5706535282	-0.0168212819	 2.675197342	-0.498334
C	 0.6204120053	-2.9557338022	-1.0070143975	 0.264652
N	 0.1345458873	-3.9732778115	-1.2593128581	-0.3231
H	 1.2227521523	 1.8530593864	-0.1460853989	 0.123573
H	-0.3355909008	 1.9412657474	-0.9925214612	 0.136611
H	-0.274922739	 2.1730065891	 0.762839556	 0.119276
H	-1.1240297065	-0.0880464051	 0.2321237534	 0.095539
H	 2.2009169947	-1.6095791841	-1.2418407158	 0.132923
H	 2.1081577431	-2.1586105768	 1.3897156015	 0.122563
H	 1.1652424122	-0.6147292322	 3.3695288351	 0.135983
H	 0.8827126394	 1.029754451	 2.7699052976	 0.139243
H	-0.4776259124	-0.0632040842	 2.9951360273	 0.139595
63.3595	106.6671	168.4401	198.5613	228.547	246.5201	286.8334	346.3766	383.1882	502.0498	543.735	588.542	611.3075	784.6692	799.6366	837.9577	875.8927	925.8473	983.0423	1018.4281	1035.2745	1060.6524	1095.6715	1107.9934	1126.4215	1212.9933	1269.2405	1305.377	1338.9707	1364.3251	1377.7751	1402.713	1416.1732	1478.8453	1484.0225	1491.4423	1496.527	1729.6139	2353.4249	2961.9561	3002.7591	3027.8499	3041.8151	3077.9142	3116.4704	3123.9655	3125.9295	3227.025
CC1OC(C=C1C)C#N	C[C@H]1O[C@@H](C=C1C)C#N	
InChI=1S/C7H9NO/c1-5-3-7(4-8)9-6(5)2/h3,6-7H,1-2H3	InChI=1S/C7H9NO/c1-5-3-7(4-8)9-6(5)2/h3,6-7H,1-2H3/t6-,7+/m1/s1
