16
gdb 112147	3.22897	1.11264	0.8629	6.5826	67.	-0.2332	-0.0608	0.1724	1272.3669	0.124268	-475.070223	-475.061637	-475.060692	-475.10435	30.98	
O	-0.1270007445	 1.4608918158	 0.0618958664	-0.425489
C	 0.0345700666	 0.0594722635	-0.0812674857	-0.082553
C	-1.3561180912	-0.5543162718	 0.0229226318	 0.035725
C	-1.3702150181	-2.0945513199	-0.0418009837	-0.375535
C	-2.234449615	-2.5391333125	 1.1348178158	 0.313728
O	-2.631405183	-3.644786396	 1.3717225906	-0.277885
C	-2.5137037276	-1.2900337409	 2.0042160425	 0.309226
O	-3.0913508764	-1.2594337057	 3.0649930297	-0.352544
N	-1.9615496678	-0.2523220518	 1.3146028245	-0.310442
H	 0.7409516825	 1.8723189806	 0.1024821095	 0.298296
H	 0.4761305463	-0.204583661	-1.0548872065	 0.099889
H	 0.6739422138	-0.3582891328	 0.7118255353	 0.098629
H	-1.9672916254	-0.1260588238	-0.7823895197	 0.106142
H	-1.7557159255	-2.4890802003	-0.9837799173	 0.148557
H	-0.3651639394	-2.5104737317	 0.0983443656	 0.145055
H	-2.0002152655	 0.6973984482	 1.6519229813	 0.269203
44.3402	104.3678	128.4771	221.2889	258.9359	317.4932	373.8693	382.9452	454.4879	574.5017	604.0095	626.1595	649.8146	710.8495	736.3673	883.9113	930.3843	1021.5493	1060.9512	1086.534	1093.3373	1142.7863	1165.9144	1242.6901	1253.6735	1271.0345	1283.2845	1323.3878	1389.7923	1429.6145	1451.3563	1459.4974	1512.0926	1839.6589	1868.4115	2974.3511	3005.8838	3026.4361	3049.1591	3118.7544	3636.219	3838.7279
OCC1CC(=O)C(=O)N1	OC[C@H]1CC(=O)C(=O)N1	
InChI=1S/C5H7NO3/c7-2-3-1-4(8)5(9)6-3/h3,7H,1-2H2,(H,6,9)	InChI=1S/C5H7NO3/c7-2-3-1-4(8)5(9)6-3/h3,7H,1-2H2,(H,6,9)/t3-/m1/s1
