17
gdb 50925	2.15994	1.17153	0.80125	4.0847	76.34	-0.2759	-0.0005	0.2754	1397.0832	0.132941	-421.792039	-421.782585	-421.781641	-421.827823	33.269	
O	-0.1276706289	 0.1754063346	-0.2046773637	-0.27069
C	-0.0473233751	 1.3549639908	-0.0415004059	 0.174197
O	 1.1238176417	 2.0186929378	-0.1080123864	-0.178695
C	 1.0897102561	 3.4453852063	 0.147498441	-0.121485
C	 1.1230586106	 3.6994624687	 1.5874569364	 0.362839
C	 1.1525420825	 3.9085918664	 2.7698417647	-0.452579
C	 2.2585176637	 4.0640634021	-0.5812275551	 0.027229
C	 2.1389170021	 4.3638073815	-2.0513159952	-0.276003
C	 2.1599069302	 5.4920526706	-1.0521953797	-0.265265
H	-0.9106733659	 2.0170433997	 0.1652311329	 0.08258
H	 0.1562618736	 3.8508579879	-0.2688369932	 0.10925
H	 1.1766220474	 4.0915088779	 3.8161416887	 0.209946
H	 3.2220250119	 3.7261151219	-0.215447114	 0.110778
H	 3.0124555399	 4.2011115718	-2.6715908449	 0.125111
H	 1.1989119611	 4.1342463838	-2.542191308	 0.11906
H	 1.23389634	 6.0266986267	-0.8675911909	 0.119749
H	 3.0473467692	 6.1097491914	-0.9801052468	 0.123978
32.2148	69.3022	125.491	135.6977	158.0086	233.5036	313.7681	340.2144	427.3396	506.502	513.3967	644.6382	676.134	705.2452	772.313	836.7641	882.7919	926.631	952.5227	1005.3779	1038.05	1044.694	1064.024	1083.2636	1132.1247	1160.326	1194.8939	1212.8513	1227.2139	1297.9459	1342.0426	1417.4318	1442.647	1473.7233	1508.5507	1868.2873	2240.7043	2949.1481	3002.5703	3136.3366	3140.4503	3172.7017	3215.6028	3230.0664	3500.7815
O=COC(C#C)C1CC1	O=CO[C@@H](C#C)C1CC1	
InChI=1S/C7H8O2/c1-2-7(9-5-8)6-3-4-6/h1,5-7H,3-4H2	InChI=1S/C7H8O2/c1-2-7(9-5-8)6-3-4-6/h1,5-7H,3-4H2/t7-/m0/s1
