17
gdb 31269	2.07493	1.64177	0.95495	1.1744	71.82	-0.2081	0.0029	0.211	1210.8789	0.136779	-455.155769	-455.146702	-455.145758	-455.191208	31.493	
C	-0.2458685441	 1.3225050175	-0.1785364124	-0.240001
O	-0.1676292682	-0.1010973965	-0.1500971994	-0.278258
C	 0.5870015834	-0.6734753651	-1.1080822147	 0.285154
C	 0.7654194304	-2.0140146673	-1.2861241371	 0.19227
C	 0.2517129029	-3.2409293631	-0.5997413163	-0.280184
N	-1.1759286982	-3.2161504084	-0.2579585326	-0.499245
O	 1.6101340742	-2.1391298952	-2.3713401914	-0.171235
C	 1.8751598525	-0.8813123267	-2.7606619559	 0.061751
N	 1.2959248729	 0.03883642	-2.0527203837	-0.341643
H	 0.7425618908	 1.7752445144	-0.0538932139	 0.136871
H	-0.6765481965	 1.6770175949	-1.120464049	 0.133809
H	-0.89204462	 1.5997900552	 0.6554937779	 0.129827
H	 0.4503018685	-4.1030153839	-1.2456043616	 0.127617
H	 0.8067814154	-3.4207514731	 0.330053499	 0.12574
H	-1.3554321268	-2.410758175	 0.3359554173	 0.241104
H	-1.7161834826	-3.0524358284	-1.1036884109	 0.225693
H	 2.5286851655	-0.7545911792	-3.6090013952	 0.15073
28.1186	57.3957	136.1154	160.8523	194.4641	271.4205	311.5103	337.4715	410.1385	514.3267	633.9151	665.3537	729.0595	751.6816	807.4468	880.9134	925.5462	959.2869	1037.2395	1100.2579	1119.6329	1171.0318	1176.2637	1179.9378	1211.6216	1239.6419	1323.6862	1360.5556	1393.2546	1409.8599	1477.6765	1481.5573	1482.8157	1502.6895	1543.2672	1673.0373	1680.4689	3022.3062	3035.3664	3073.7519	3103.6454	3144.6854	3276.9833	3484.4498	3558.2913
COC1=C(CN)OC=N1	COc1c(CN)ocn1	
InChI=1S/C5H8N2O2/c1-8-5-4(2-6)9-3-7-5/h3H,2,6H2,1H3	InChI=1S/C5H8N2O2/c1-8-5-4(2-6)9-3-7-5/h3H,2,6H2,1H3
