16
gdb 49022	2.75627	1.69208	1.30763	1.115	68.75	-0.2427	-0.0371	0.2056	969.9114	0.124251	-437.80444	-437.797236	-437.796292	-437.836208	27.782	
O	-0.4598870211	 0.4613490406	 0.7385618331	-0.258229
C	 0.0931936002	 1.0112927021	-0.1837882291	 0.066488
C	 1.28372362	 1.8892210763	-0.0440032347	 0.181271
C	 1.5701998286	 2.9756194764	-1.1146094931	-0.131338
O	 2.8650274504	 2.4121693997	-1.4408331515	-0.278458
C	 2.7035805117	 1.3736211921	-0.4757118105	 0.079812
C	 3.2022849297	 1.6359049205	 0.9664080283	-0.065208
N	 2.9566178467	 3.0628542892	 1.2729368911	-0.335101
C	 1.8442288896	 2.1027046321	 1.3791861645	-0.128595
H	-0.2564788417	 0.8681780956	-1.2317489274	 0.07993
H	 0.8953965842	 2.9278435512	-1.9782016508	 0.103521
H	 1.6477919671	 3.9976819303	-0.7388962309	 0.132035
H	 2.8816163059	 0.3673776885	-0.864277493	 0.09483
H	 3.9496526532	 1.0707058963	 1.5092714375	 0.102013
H	 3.3099583465	 3.2279044967	 2.2145035384	 0.239886
H	 1.294956179	 1.9405547722	 2.2963418582	 0.117141
99.3685	173.5552	226.9604	255.6228	316.9743	448.4622	464.2133	610.3006	667.2842	730.5015	808.5165	817.2096	856.014	872.3026	905.4703	947.6222	962.8478	970.3819	1006.1341	1037.4281	1077.5886	1086.7127	1117.806	1150.6299	1168.9632	1178.9744	1244.2447	1258.5914	1315.275	1332.0397	1350.2949	1375.3354	1426.4504	1494.2085	1804.2935	2871.7241	3023.2879	3079.9607	3113.0456	3190.226	3217.9925	3485.2662
O=CC12COC1C1NC21	O=C[C@]12CO[C@H]1[C@H]1N[C@@H]21	
InChI=1S/C6H7NO2/c8-1-6-2-9-5(6)3-4(6)7-3/h1,3-5,7H,2H2	InChI=1S/C6H7NO2/c8-1-6-2-9-5(6)3-4(6)7-3/h1,3-5,7H,2H2/t3-,4+,5-,6+/m0/s1
