19
gdb 89858	2.74614	1.18955	0.97652	5.0189	80.79	-0.2677	0.0141	0.2819	1261.7653	0.1593	-382.051631	-382.042884	-382.04194	-382.085544	32.9	
C	-0.4812313541	 1.4091957455	-0.0033271297	-0.394143
C	-0.0546306182	-0.0536589954	 0.0396762987	 0.03415
C	 1.1468188237	-0.4086496788	-0.8973678761	-0.311119
C	 2.0354770937	-0.4774408907	 0.3441096328	 0.379
C	 0.8219413593	-0.4383064646	 1.2782449748	-0.332429
N	 3.2574105069	-1.2483053903	 0.4591120773	-0.362163
C	 3.3342973231	 0.227844312	 0.577453289	-0.278145
C	 4.0042425931	 0.929045868	-0.4894756678	 0.336496
N	 4.5069348204	 1.5225386103	-1.3453097114	-0.338731
H	 0.3777551351	 2.0771413728	 0.1283365134	 0.120825
H	-0.9454851732	 1.6542906587	-0.9642768256	 0.122735
H	-1.2046151015	 1.63434516	 0.7877704045	 0.116338
H	-0.9247111704	-0.7004952373	-0.0953223015	 0.077327
H	 1.0509228012	-1.3832748734	-1.3826442451	 0.116045
H	 1.4187024806	 0.3361690162	-1.6498124931	 0.125641
H	 0.8500097584	 0.2792502779	 2.1034804245	 0.106676
H	 0.5806527016	-1.4277249596	 1.6797660112	 0.11039
H	 3.3462388115	-1.6622099402	 1.3852438452	 0.241898
H	 3.4938881788	 0.6615182487	 1.5613580791	 0.129208
44.6569	121.1175	136.0292	246.8136	287.3904	314.622	335.5967	380.6958	387.1355	518.3762	566.773	610.7997	781.2443	798.416	821.6515	862.3211	890.9385	913.8767	930.1968	946.9836	1009.6231	1016.8719	1063.8009	1074.3739	1136.7178	1149.1348	1195.8028	1210.9193	1224.8629	1254.356	1268.4651	1292.843	1349.1541	1364.7684	1413.6531	1450.819	1466.4098	1489.0145	1497.0995	1498.457	2356.9628	3026.4421	3044.2381	3060.9967	3069.9316	3094.6236	3097.7438	3101.377	3116.8202	3143.2603	3489.6141
CC1CC2(C1)NC2C#N	C[C@H]1C[C@@]2(C1)N[C@H]2C#N	
InChI=1S/C7H10N2/c1-5-2-7(3-5)6(4-8)9-7/h5-6,9H,2-3H2,1H3	InChI=1S/C7H10N2/c1-5-2-7(3-5)6(4-8)9-7/h5-6,9H,2-3H2,1H3/t5-,6-,7-/m0/s1
