22
gdb 97460	6.31598	0.48417	0.46188	2.0845	85.06	-0.2441	0.0288	0.2729	2407.6505	0.190768	-441.48138	-441.469981	-441.469037	-441.519737	39.23	
C	-0.0968214109	 1.3775538452	-0.0332677097	-0.313846
N	 0.0807137009	-0.0538902775	 0.0860220588	-0.206639
C	 0.5312609723	-0.6644830604	-0.9171778763	 0.131793
O	 0.7102317653	-1.9989811095	-0.889697126	-0.207891
C	 1.2943923665	-2.5764038563	-2.060223229	-0.075521
C	 1.2469137248	-4.0888686695	-1.9071081462	-0.208969
C	 1.8188102744	-4.8179087936	-3.1292923163	 0.132637
C	 1.8122555881	-6.3353152031	-2.9509771694	-0.405089
O	 1.1450296935	-4.4321073562	-4.3279190176	-0.429858
H	 0.4884232597	 1.8876211351	 0.740657378	 0.126022
H	 0.1975395629	 1.7872377685	-1.014006994	 0.093896
H	-1.1475484562	 1.6354419251	 0.1435172235	 0.12595
H	 0.8029989296	-0.1864872478	-1.8726124404	 0.071287
H	 0.7436399097	-2.2699523608	-2.9568624715	 0.118642
H	 2.333140896	-2.2324295783	-2.1663982104	 0.104612
H	 1.8025688911	-4.3791624731	-1.008255624	 0.113276
H	 0.2053108532	-4.397732696	-1.7465100945	 0.102058
H	 2.8526592798	-4.4842916053	-3.2878367011	 0.091563
H	 2.4170645466	-6.6367887933	-2.0899761362	 0.121162
H	 0.7914682845	-6.7019115015	-2.7844076926	 0.109941
H	 2.2100414552	-6.8228052551	-3.8449195054	 0.126766
H	 0.2511149932	-4.7910351867	-4.2877175998	 0.278206
23.4053	53.822	83.185	116.6842	127.9416	206.3945	212.2276	248.6113	265.234	308.433	311.2616	356.4552	448.4953	470.707	513.8561	617.1243	798.8369	856.4729	941.6763	975.3062	985.2315	1019.6958	1063.4192	1070.9025	1094.1255	1132.3438	1141.5336	1156.0456	1167.4581	1216.0863	1256.3658	1295.9258	1300.245	1336.4839	1378.6066	1397.4939	1406.2925	1421.2071	1436.0914	1450.2526	1480.3294	1482.2237	1493.7676	1497.0467	1504.7338	1522.9692	1780.4581	2962.6602	2981.8621	3003.9605	3021.5452	3025.022	3035.6692	3055.0962	3058.814	3074.1142	3082.3535	3098.0035	3121.5284	3793.1979
CN=COCCC(C)O	CN=COCC[C@@H](C)O	
InChI=1S/C6H13NO2/c1-6(8)3-4-9-5-7-2/h5-6,8H,3-4H2,1-2H3	InChI=1S/C6H13NO2/c1-6(8)3-4-9-5-7-2/h5-6,8H,3-4H2,1-2H3/t6-/m1/s1
