21
gdb 58762	3.08758	1.42545	1.21436	1.5783	81.87	-0.232	0.0034	0.2354	1122.0712	0.181929	-387.051531	-387.04301	-387.042065	-387.084376	33.93	
C	-0.0796570773	 1.5713164061	 0.2284658558	-0.388633
C	-0.0015473188	 0.0474388241	 0.0347374512	-0.106547
C	 0.8606304654	-0.6027645619	 1.1251988778	-0.398329
C	-1.3965319894	-0.5410651894	-0.0170801821	 0.415675
C	-1.7672579771	-2.0597737989	 0.12331996	-0.276646
C	-3.0682133135	-1.3461232478	 0.5880690422	 0.013818
O	-2.2230159409	-0.3133000291	 1.1875703434	-0.325071
C	-3.5264376671	-0.6622645125	-0.714878945	-0.090233
C	-2.3856596337	-0.1135233066	-1.1315323305	-0.125522
H	 0.9221125176	 2.0115176608	 0.23450325	 0.107666
H	-0.655942949	 2.0518566854	-0.5679381252	 0.112784
H	-0.5662628508	 1.8086500126	 1.1790969154	 0.138247
H	 0.4585236722	-0.1569894627	-0.942886175	 0.075467
H	 0.3797908064	-0.4998410822	 2.1027235793	 0.133518
H	 1.0169470688	-1.6689898528	 0.9355990601	 0.111142
H	 1.8437672143	-0.1246257712	 1.1745114053	 0.107382
H	-1.7984097489	-2.6775869764	-0.7765538863	 0.094427
H	-1.240610793	-2.5518032747	 0.9439822018	 0.105167
H	-3.797190008	-1.7865168604	 1.2667477485	 0.078255
H	-4.5155291867	-0.6667010567	-1.1486632999	 0.109267
H	-2.1565991305	 0.4694521244	-2.0118384568	 0.108166
68.8632	180.5879	187.3364	214.8856	259.4845	328.585	388.9739	436.8707	491.2002	536.2902	617.768	620.5811	706.4075	756.0629	832.7712	853.8908	871.7938	893.2761	901.8998	911.5291	930.8465	962.289	976.0658	987.777	1048.4369	1049.6317	1097.4173	1125.4815	1156.5848	1186.3132	1204.4457	1236.7912	1262.7003	1274.9679	1312.011	1337.3196	1385.6427	1397.6713	1419.4902	1485.7859	1488.0891	1492.799	1502.7609	1514.7959	1621.1813	3004.5735	3036.4927	3040.9597	3063.3819	3104.3743	3108.3315	3113.5311	3118.6122	3133.8068	3136.8481	3225.8872	3254.3933
CC(C)C12CC(O1)C=C2	CC(C)[C@@]12C[C@@H](O1)C=C2	
InChI=1S/C8H12O/c1-6(2)8-4-3-7(5-8)9-8/h3-4,6-7H,5H2,1-2H3	InChI=1S/C8H12O/c1-6(2)8-4-3-7(5-8)9-8/h3-4,6-7H,5H2,1-2H3/t7-,8+/m0/s1
