15
gdb 75706	2.32787	1.75006	1.31988	2.4123	65.96	-0.2427	-0.0509	0.1917	975.9016	0.112373	-457.782745	-457.775009	-457.774065	-457.815203	29.071	
O	 0.0611222517	 1.3414701425	-0.1599641608	-0.420767
C	 0.0168879521	-0.0756092848	-0.040013058	-0.129554
C	 0.6250382143	-0.5336542956	 1.3029172923	 0.398708
O	 1.8066789708	-0.6618277168	 1.5087589688	-0.329225
C	-0.4833517098	-0.7995123733	 2.2699641029	-0.161099
C	-1.4655955844	 0.340531812	 2.4189881828	-0.288295
C	-1.7986339093	-0.7901803661	 1.476539925	-0.15716
C	-1.456917588	-0.5327882655	 0.0419975205	 0.43201
O	-2.1718582041	-0.7327655516	-0.9045544979	-0.314407
H	 0.9899379386	 1.6001929623	-0.1160372791	 0.303236
H	 0.5150463766	-0.5749252882	-0.8810417157	 0.11775
H	-0.3070234921	-1.4672307177	 3.1036413916	 0.123765
H	-2.0234783282	 0.3670831851	 3.3477979161	 0.141075
H	-1.2108716134	 1.3068613715	 2.0023606413	 0.16122
H	-2.6205989947	-1.4569718236	 1.7034921903	 0.122743
67.9754	166.7801	219.5317	231.4918	333.3191	361.1808	381.5083	505.569	538.2834	571.2129	712.3665	714.2864	804.044	810.2007	858.4647	901.0086	950.6292	954.3889	1043.7173	1074.1857	1099.0722	1104.1536	1159.9635	1183.4306	1192.2456	1243.547	1291.6743	1330.0017	1331.9612	1398.9029	1484.9654	1824.6091	1861.0015	3031.9274	3149.8109	3200.4692	3207.2968	3245.4639	3785.3114
OC1C(=O)C2CC2C1=O	O[C@H]1C(=O)[C@H]2C[C@H]2C1=O	
InChI=1S/C6H6O3/c7-4-2-1-3(2)5(8)6(4)9/h2-3,6,9H,1H2	InChI=1S/C6H6O3/c7-4-2-1-3(2)5(8)6(4)9/h2-3,6,9H,1H2/t2-,3+,6-
