21
gdb 61450	2.89063	1.02435	0.83403	4.7962	80.15	-0.2279	0.0466	0.2745	1420.79	0.182023	-420.413977	-420.404143	-420.403199	-420.449586	36.442	
C	-0.4923101967	 1.4359005343	 0.1127543395	-0.419016
C	-0.1533895334	-0.0621721283	 0.0881704512	 0.045121
C	 0.3853904635	-0.4574618624	-1.3022489426	-0.285161
C	 0.3813450986	-1.9522549087	-1.6462309084	 0.360026
N	 0.8537473733	-2.7675805346	-0.6664090882	-0.505605
O	 0.0084676235	-2.353496716	-2.7339696753	-0.368022
N	 0.7916974575	-0.543793983	 1.1182386121	-0.072801
C	 1.8048448305	 0.3355957045	 1.6917526967	-0.225161
C	 0.6539405984	-0.1438678475	 2.5095578256	-0.231923
H	 0.3569293178	 2.0503243782	-0.2032648295	 0.124043
H	-1.3127658186	 1.6304431986	-0.5836301702	 0.131296
H	-0.8178438644	 1.7774782249	 1.0998979377	 0.117982
H	-1.07923811	-0.6216364243	 0.2736061992	 0.097632
H	-0.208880119	 0.0246373773	-2.0810976752	 0.123386
H	 1.4117927771	-0.0794929217	-1.3996238315	 0.118992
H	 1.0510375264	-2.377747432	 0.2479102164	 0.258877
H	 0.8212900098	-3.7615887113	-0.822031187	 0.248408
H	 2.7915575116	-0.1016826899	 1.8142995816	 0.122434
H	 1.8064739378	 1.3856526922	 1.4130967651	 0.119966
H	-0.1061988862	 0.588262067	 2.7714070618	 0.118075
H	 0.7854220526	-0.9370688971	 3.2404167009	 0.121454
34.3373	69.3776	105.0949	176.0797	244.7462	271.7252	294.7675	337.7486	362.2839	405.2449	494.7866	510.3366	565.2876	642.0386	701.8299	758.1569	814.0182	863.1813	894.1706	902.0078	935.5217	970.1235	1029.2355	1053.099	1102.7302	1111.7101	1123.3227	1138.2054	1155.1976	1169.0583	1188.6529	1231.8879	1301.1408	1324.8117	1361.9676	1369.5049	1380.4653	1406.9947	1461.6497	1483.9987	1494.8464	1508.0664	1522.3218	1605.3458	1795.0093	3022.5442	3035.6453	3040.7926	3104.2066	3109.6104	3111.3188	3115.4076	3118.3976	3184.538	3201.2949	3492.1111	3691.0351
CC(CC(N)=O)N1CC1	C[C@@H](CC(=O)N)N1CC1	
InChI=1S/C6H12N2O/c1-5(4-6(7)9)8-2-3-8/h5H,2-4H2,1H3,(H2,7,9)	InChI=1S/C6H12N2O/c1-5(4-6(7)9)8-2-3-8/h5H,2-4H2,1H3,(H2,7,9)/t5-/m0/s1
