23
gdb 108821	3.12076	0.99554	0.86009	1.6719	88.77	-0.2342	0.0228	0.257	1473.6694	0.205358	-388.314726	-388.304833	-388.303888	-388.349413	37.525	
C	 0.1912282604	 1.5394884855	-0.16281921	-0.372973
C	-0.0540375434	 0.0333602991	 0.039215794	-0.294113
C	 0.6520841314	-0.5283569659	 1.2375816203	 0.32106
C	 0.0971824713	-1.0508663375	 2.3363706932	-0.19579
C	 1.1252569389	-1.471151813	 3.3673115115	-0.0378
C	 0.7965481988	-2.7411407141	 4.155365775	-0.390272
C	 2.4194696735	-1.5489179224	 2.5018037134	 0.113978
O	 2.6408795886	-2.8505110328	 1.9745561897	-0.431836
C	 2.1661723379	-0.5249145832	 1.3715042948	-0.326564
H	 1.2556177427	 1.7557501465	-0.2978793594	 0.121335
H	-0.3379263401	 1.9035916404	-1.0486538349	 0.113988
H	-0.1594130665	 2.1115568132	 0.7020195157	 0.120143
H	-1.13010081	-0.1535269933	 0.1294958195	 0.10045
H	 0.2820291935	-0.4979014251	-0.8629400825	 0.100809
H	-0.9718289715	-1.1411611617	 2.5056357058	 0.081959
H	 1.2556318675	-0.6498317242	 4.0904839849	 0.078286
H	 0.6724736312	-3.6030604639	 3.4947772084	 0.111798
H	 1.595363647	-2.9822264839	 4.8636706389	 0.115914
H	-0.1302909058	-2.6115538364	 4.7239739032	 0.106834
H	 3.3181849245	-1.3265969219	 3.0832895458	 0.07728
H	 1.8766321605	-3.0694338322	 1.428337519	 0.277783
H	 2.6961104681	-0.8141294324	 0.4564443904	 0.10208
H	 2.5319326315	 0.4735148594	 1.6497363532	 0.10565
71.698	101.7346	127.4644	197.0269	214.4834	236.1603	265.5105	322.0022	381.6724	401.1137	441.81	492.0495	539.4463	620.4649	719.3989	788.9427	825.1812	859.627	882.0715	888.8407	924.4616	964.4493	992.5426	1012.8447	1053.989	1068.6817	1094.0809	1114.3589	1126.0632	1173.7019	1196.7822	1255.3012	1260.8309	1268.3459	1297.9436	1325.8947	1344.8337	1353.1268	1373.1736	1407.9292	1411.2918	1434.2011	1473.1144	1479.7622	1494.0649	1496.5401	1498.435	1507.5354	1703.5546	2969.5553	3003.8484	3009.386	3037.0979	3038.7808	3058.4619	3059.5907	3080.0826	3102.3329	3108.7314	3109.6955	3119.0907	3173.4363	3787.1684
CCC1=CC(C)C(O)C1	CCC1=C[C@@H](C)[C@@H](O)C1	
InChI=1S/C8H14O/c1-3-7-4-6(2)8(9)5-7/h4,6,8-9H,3,5H2,1-2H3	InChI=1S/C8H14O/c1-3-7-4-6(2)8(9)5-7/h4,6,8-9H,3,5H2,1-2H3/t6-,8+/m1/s1
