23
gdb 116156	3.13775	1.00691	0.8071	1.6578	82.69	-0.248	0.0791	0.3271	1481.9386	0.206299	-425.445148	-425.435655	-425.43471	-425.479204	36.447	
C	 0.0022855299	 1.5530986177	-0.0208295626	-0.386808
C	 0.0087652365	 0.0232644506	 0.0257795641	-0.184587
C	 0.7336257802	-0.5410452183	 1.2447040389	 0.129381
C	 0.6590544113	-2.0715648046	 1.3288686763	-0.198277
C	 1.4840800914	-2.5951887476	 2.5021172188	 0.113038
O	 1.4547730094	-4.0146202313	 2.4462767844	-0.438282
C	 2.9067523452	-2.0295711494	 2.4270765391	-0.232289
C	 2.8578995124	-0.5049154047	 2.2900231249	-0.078473
O	 2.0900885973	-0.1094863027	 1.170270725	-0.256239
H	 1.023631214	 1.9411709109	-0.0173677755	 0.133998
H	-0.5022267341	 1.9174586913	-0.9207938941	 0.108202
H	-0.5195483479	 1.9726912584	 0.8468412783	 0.107957
H	-1.0184794012	-0.3607310702	 0.0307401022	 0.094255
H	 0.4919173304	-0.377644847	-0.8737258446	 0.103545
H	 0.2806889435	-0.1143504089	 2.1600520814	 0.056502
H	-0.3817063121	-2.3966849053	 1.4317253216	 0.099752
H	 1.0523417672	-2.5061051802	 0.4019592386	 0.107323
H	 1.0182946538	-2.2439213114	 3.4402489492	 0.059228
H	 1.996488539	-4.3516094069	 3.1673814865	 0.277719
H	 3.4832683842	-2.3056397625	 3.319905538	 0.081971
H	 3.4113209146	-2.4613911118	 1.5551147521	 0.111153
H	 2.4447208631	-0.0575140295	 3.2113696152	 0.083788
H	 3.859131142	-0.0906391266	 2.1404429623	 0.107144
89.6494	122.8929	168.9908	187.1467	239.5158	284.6834	302.2574	313.8259	378.723	415.1232	468.467	481.6323	519.2618	614.622	765.1671	819.6822	863.092	885.6435	928.9838	955.1081	988.5065	1021.2745	1039.4154	1072.6589	1084.7647	1117.2935	1128.6728	1151.8534	1176.6317	1192.5389	1239.1333	1270.998	1280.2633	1300.8537	1316.0553	1340.4483	1352.8473	1375.0509	1395.9436	1406.1508	1408.9224	1420.6556	1439.4695	1470.1259	1476.9475	1490.0866	1496.5358	1501.0241	1509.817	2919.4661	2938.1456	2953.5157	3020.6878	3028.5103	3036.0616	3038.8621	3066.313	3073.9479	3084.4	3087.6644	3100.3306	3127.0656	3810.4428
CCC1CC(O)CCO1	CC[C@H]1C[C@@H](O)CCO1	
InChI=1S/C7H14O2/c1-2-7-5-6(8)3-4-9-7/h6-8H,2-5H2,1H3	InChI=1S/C7H14O2/c1-2-7-5-6(8)3-4-9-7/h6-8H,2-5H2,1H3/t6-,7-/m0/s1
