19
gdb 124865	3.53987	1.22891	1.19097	2.1572	81.24	-0.2368	0.0244	0.2611	1139.5477	0.160704	-382.081464	-382.073326	-382.072382	-382.114581	31.255	
C	-0.3009074095	 1.376564232	 0.5623994337	-0.441188
C	-0.019634835	-0.0143201252	 0.0314081986	 0.348152
C	 1.3159940093	-0.3392161442	-0.5900515017	-0.312286
C	 0.9417057677	-0.9146018664	 0.755830382	-0.279321
N	-1.1688576735	-0.658299444	-0.55499985	 0.008621
C	-1.5455783172	-0.6559319306	-1.8605103846	-0.031762
C	-2.7668595481	-1.2914265273	-1.9292015514	-0.24175
C	-3.0538687731	-1.6361132735	-0.5922927163	-0.005281
N	-2.0906276248	-1.2477005197	 0.2384675943	-0.263866
H	 0.5975596939	 1.8042671639	 1.016324582	 0.116606
H	-0.6302143792	 2.0450944464	-0.2401903213	 0.121591
H	-1.0877877314	 1.3377006309	 1.3213231745	 0.14375
H	 1.3340206886	-1.0153045392	-1.4367071735	 0.12395
H	 2.051718398	 0.4562826175	-0.6316323555	 0.118641
H	 1.4238170239	-0.5194017891	 1.6427977084	 0.11868
H	 0.6896590577	-1.966360808	 0.8051863766	 0.134904
H	-0.9205380435	-0.2141516877	-2.620047894	 0.129013
H	-3.3546670289	-1.4830778585	-2.81210587	 0.102349
H	-3.9169742249	-2.1557842073	-0.2018322319	 0.109197
46.8977	120.7118	195.82	226.4458	299.6493	318.5237	395.1292	515.3525	544.7033	639.3913	687.8404	768.6753	779.5995	828.2056	836.7179	882.1985	890.3672	931.7708	943.3512	956.7843	978.3925	1043.0648	1066.2531	1071.9043	1083.4169	1099.1937	1133.2461	1188.5488	1208.5318	1231.6816	1309.4571	1335.6791	1376.3569	1412.7048	1427.3107	1462.5256	1467.3744	1482.8172	1496.697	1508.7281	1557.3337	3036.1912	3105.1527	3118.6947	3139.7879	3148.3618	3224.5016	3240.2247	3241.6255	3259.1437	3278.0346
CC1(CC1)N1C=CC=N1	CC1(CC1)n1cccn1	
InChI=1S/C7H10N2/c1-7(3-4-7)9-6-2-5-8-9/h2,5-6H,3-4H2,1H3	InChI=1S/C7H10N2/c1-7(3-4-7)9-6-2-5-8-9/h2,5-6H,3-4H2,1H3
