14
gdb 69032	2.80606	1.40394	1.17361	1.6607	73.41	-0.2379	-0.0111	0.2269	1055.8941	0.098511	-436.612031	-436.603889	-436.602945	-436.644627	30.955	
O	 0.1051345828	 1.4101842284	-0.1898565991	-0.426004
C	 0.0438060016	 0.0592661552	-0.0469271744	 0.220575
C	-0.2383808187	-0.8338536967	-1.2278822672	-0.363409
C	-1.1145338468	-0.984605506	-0.0146278344	 0.193776
O	-0.3652327057	-1.7577608665	 0.980168299	-0.29354
C	 0.5957598805	-0.7553648543	 1.0781810962	 0.363478
N	 1.5168913349	-0.5756231524	 1.9062887634	-0.554989
C	-2.5170469312	-0.8901300215	 0.0885332716	 0.23225
C	-3.7135156858	-0.7926357842	 0.1739411871	-0.409442
H	 0.065118462	 1.8114919028	 0.6871040427	 0.308428
H	-0.7008212596	-0.2974014071	-2.0510277684	 0.151105
H	 0.4330603558	-1.6413902145	-1.5050810625	 0.136796
H	 1.5579628168	-1.328090731	 2.5954800079	 0.23886
H	-4.7700772168	-0.7134239122	 0.2484792182	 0.202117
100.8616	117.1298	183.2288	264.3647	336.94	366.3264	409.7016	464.4915	513.2728	556.7636	565.1536	634.4484	647.6833	700.2832	720.9819	762.8441	828.8633	872.253	919.0402	969.8989	983.1748	1065.4148	1101.1202	1123.4049	1237.088	1321.5723	1380.8014	1422.1461	1492.8764	1834.396	2233.3298	3120.0676	3219.4072	3483.6831	3499.5539	3788.9326
OC12CC1(OC2=N)C#C	O[C@]12C[C@]1(O[C]2[NH])C#C	
InChI=1S/C6H5NO2/c1-2-5-3-6(5,8)4(7)9-5/h1,7-8H,3H2	InChI=1S/C6H5NO2/c1-2-5-3-6(5,8)4(7)9-5/h1,7-8H,3H2/t5-,6+/m1/s1
