21
gdb 82942	2.11157	1.82775	1.45415	1.3959	81.37	-0.2298	0.0884	0.3182	1051.7567	0.182936	-387.054984	-387.046686	-387.045742	-387.087168	33.387	
C	-0.064337839	 1.5752799956	-0.009471996	-0.434894
C	 0.0518359942	 0.064449777	 0.0637173421	-0.084808
C	 1.3186164814	-0.692403314	-0.2614662512	 0.034131
O	 2.5400021013	 0.0066379345	-0.1596912704	-0.266342
C	 2.9528118012	 0.0758982368	 1.1897093812	 0.103603
C	 2.3102385662	 1.0923248472	 2.0945162952	-0.336578
C	 1.8022239082	-0.3394328432	 2.0662925532	-0.130475
C	 0.7170935293	-0.8268969159	 1.1203828329	 0.288136
C	-0.0249714378	-2.0673761523	 1.5706483554	-0.485103
H	 0.9071950472	 2.0452718435	-0.1741417533	 0.140616
H	-0.7000099282	 1.8458599538	-0.8588428316	 0.112905
H	-0.5179327728	 2.0089697378	 0.8875772353	 0.119477
H	-0.8306202117	-0.4362228746	-0.3320212415	 0.081283
H	 1.3384797342	-1.478543706	-1.0119800392	 0.088385
H	 3.9855373744	-0.2243035655	 1.3378855316	 0.095809
H	 2.8809486673	 1.3701309039	 2.9757531388	 0.109512
H	 1.723384161	 1.8951864544	 1.6775128901	 0.124013
H	 1.9589742777	-0.9484396695	 2.9493012057	 0.086678
H	-0.6989068195	-1.8463278276	 2.4065875558	 0.120675
H	-0.6310543061	-2.4845967591	 0.7608898293	 0.115569
H	 0.6708004814	-2.8478269169	 1.9005441067	 0.117408
155.7094	195.2248	205.3512	224.5038	259.2881	291.8599	324.2153	418.0689	530.0517	554.269	632.6699	678.2281	707.2374	780.7924	783.0328	821.8315	871.6297	931.4782	962.2073	981.2608	1000.5914	1022.6733	1035.8294	1069.4187	1076.6904	1094.0954	1109.4641	1118.2763	1123.5915	1160.9667	1167.8333	1211.9962	1222.3268	1294.0181	1336.2545	1359.2486	1379.1125	1411.2659	1419.3133	1447.4054	1472.3676	1492.3707	1500.3001	1502.8663	1517.1371	3021.985	3037.092	3080.8955	3090.8052	3099.2438	3110.0632	3128.3827	3136.7575	3142.1659	3154.0849	3172.6667	3271.1718
CC1C2OC3CC3C12C	C[C@H]1[C@H]2O[C@H]3C[C@H]3[C@@]12C	
InChI=1S/C8H12O/c1-4-7-8(4,2)5-3-6(5)9-7/h4-7H,3H2,1-2H3	InChI=1S/C8H12O/c1-4-7-8(4,2)5-3-6(5)9-7/h4-7H,3H2,1-2H3/t4-,5+,6-,7+,8+/m0/s1
