18
gdb 29860	4.80659	1.16626	0.9563	3.5517	80.63	-0.2058	0.0332	0.239	1219.2943	0.149787	-401.97297	-401.964901	-401.963957	-402.00619	29.639	
C	-0.0254253547	 1.4401158557	 0.0100162756	-0.331591
N	-0.0531925642	-0.0075391313	 0.0023269191	 0.020121
C	-0.0071707381	-0.7930757758	-1.1315131918	-0.273127
C	 0.0756193965	-2.098263555	-0.7157773239	 0.221261
C	 0.1210410452	-3.5085639063	-1.2097028955	-0.187278
O	 0.2806169022	-4.3021740057	-0.0228555503	-0.282697
C	 0.1350850847	-3.5214432017	 1.1742912725	-0.187284
C	 0.0839333566	-2.1058908093	 0.6962033467	 0.221337
C	 0.006137665	-0.8052799128	 1.1269855354	-0.273165
H	 0.9990413402	 1.8313585119	 0.0086908067	 0.137822
H	-0.5455813917	 1.8220581405	-0.8717831161	 0.140103
H	-0.5397683298	 1.8127775978	 0.8991959788	 0.140089
H	-0.0357870568	-0.3393343565	-2.1094322794	 0.118992
H	-0.7996759797	-3.8085363834	-1.7345796466	 0.100998
H	 0.9651231575	-3.7194299671	-1.8804200612	 0.107224
H	-0.7793995117	-3.8271243639	 1.706716152	 0.101001
H	 0.9870013373	-3.7394812988	 1.832697364	 0.107226
H	-0.0109429786	-0.3621576382	 2.1100315642	 0.118967
65.6742	92.0677	146.0051	231.7508	250.2291	285.5505	486.162	530.4611	601.1905	641.7646	679.3368	715.5341	743.2591	756.3759	873.5237	901.0441	1021.2552	1023.3737	1056.9481	1064.2177	1086.2702	1126.3006	1146.6318	1173.9803	1185.9439	1214.7824	1237.996	1340.6689	1354.6178	1392.9419	1397.7896	1456.7007	1474.0771	1489.1563	1513.6563	1519.0148	1529.7871	1572.4919	1631.7558	2970.1942	2976.0825	3012.4588	3016.0985	3027.0621	3096.7672	3129.5661	3253.3694	3257.0567
CN1C=C2COCC2=C1	Cn1cc2COCc2c1	
InChI=1S/C7H9NO/c1-8-2-6-4-9-5-7(6)3-8/h2-3H,4-5H2,1H3	InChI=1S/C7H9NO/c1-8-2-6-4-9-5-7(6)3-8/h2-3H,4-5H2,1H3
