19
gdb 84699	2.81447	1.66732	1.41283	2.7019	75.17	-0.2402	0.0046	0.2449	983.1758	0.162362	-423.038606	-423.03131	-423.030366	-423.069983	29.749	
O	 0.0989452048	 1.432070613	-0.1559960771	-0.437934
C	 0.0461240511	 0.0120959569	-0.0164865342	 0.091393
C	 0.8363819697	-0.4592291732	 1.1797416641	-0.104989
C	 0.2736570928	-1.1500300838	 2.1743437819	-0.068859
C	-1.1907239164	-1.5272733386	 2.123958528	-0.085476
C	-1.4216745014	-2.620322907	 1.0567567909	-0.061912
O	-1.3917237712	-1.9295635734	-0.1940251732	-0.272784
C	-1.4059604859	-0.5140467298	 0.0486691921	 0.071899
C	-1.9731916158	-0.3747762696	 1.4624645654	-0.247899
H	-0.0481710594	 1.8152971953	 0.7152539275	 0.278577
H	 0.4889243699	-0.3813374501	-0.9386960394	 0.101607
H	 1.8874889594	-0.183746816	 1.2065436519	 0.096189
H	 0.8645922773	-1.4832910593	 3.0231231496	 0.091854
H	-1.5716812432	-1.8211741029	 3.1037487016	 0.071297
H	-0.6468312721	-3.3936453727	 1.0582025391	 0.105048
H	-2.4001677013	-3.1024208113	 1.1957071089	 0.092913
H	-2.0030591274	-0.0339760148	-0.7302859789	 0.083213
H	-3.051385062	-0.5588005326	 1.4740154683	 0.103393
H	-1.7760654389	 0.5977519098	 1.9192084534	 0.09247
134.4154	216.676	258.3414	299.8628	358.7039	400.5797	430.187	504.4962	585.401	646.7115	739.5588	783.567	843.1036	853.3357	891.947	899.0598	936.6285	966.055	979.252	1000.685	1032.3204	1064.1362	1079.5	1083.1131	1111.6109	1139.1234	1172.7478	1213.5689	1233.0843	1245.5864	1294.6312	1309.092	1330.4561	1343.8129	1371.3445	1379.9616	1400.442	1421.9893	1488.3422	1522.4672	1698.3422	2997.0721	3048.5213	3058.1713	3070.621	3086.9381	3095.6059	3111.8495	3152.5914	3175.2928	3807.8477
OC1C=CC2COC1C2	O[C@H]1C=C[C@@H]2CO[C@H]1C2	
InChI=1S/C7H10O2/c8-6-2-1-5-3-7(6)9-4-5/h1-2,5-8H,3-4H2	InChI=1S/C7H10O2/c8-6-2-1-5-3-7(6)9-4-5/h1-2,5-8H,3-4H2/t5-,6-,7-/m0/s1
