23
gdb 103651	2.50485	1.1793	1.08068	1.769	86.88	-0.2486	0.0103	0.2589	1294.9304	0.205166	-388.307181	-388.297306	-388.296362	-388.341906	37.881	
C	 0.2294694886	 1.2842780488	-0.3484451022	-0.397155
C	 0.2068604155	-0.188378388	 0.0735603476	-0.198461
C	 0.7052481313	-0.500879879	 1.5119030046	 0.271405
C	-0.2369612636	 0.122739859	 2.5576460636	-0.440251
C	 0.8449701318	-2.0408031052	 1.7163317966	-0.292879
C	 2.3536648942	-2.3821563313	 1.5965208103	 0.10097
O	 2.7296990869	-2.982367821	 0.3536962995	-0.438483
C	 3.0148148199	-1.0388219176	 1.7949126314	-0.139469
C	 2.138743083	-0.0381026839	 1.7154823663	-0.082805
H	 1.2422764316	 1.6983813859	-0.3142563228	 0.116682
H	-0.1344862207	 1.3934404153	-1.3748905379	 0.114939
H	-0.4070389831	 1.904792444	 0.2897799566	 0.119268
H	-0.8157166606	-0.5771944598	-0.020856626	 0.096383
H	 0.8154031585	-0.7684951017	-0.6318412208	 0.082017
H	-1.2570368029	-0.2602542114	 2.4404530193	 0.112991
H	 0.098499079	-0.1150348147	 3.5720227947	 0.11496
H	-0.2777717439	 1.2130562585	 2.4712278967	 0.112877
H	 0.4931237271	-2.310222421	 2.7173874654	 0.094876
H	 0.2623115787	-2.6234979727	 0.9976910618	 0.1014
H	 2.6541114137	-3.1210384715	 2.3465288892	 0.08421
H	 2.7146394958	-2.2887707965	-0.3146489378	 0.275206
H	 4.0880592653	-0.9365218706	 1.9141496976	 0.09638
H	 2.3933458539	 1.0151896743	 1.7828603265	 0.09494
44.2768	96.012	160.198	235.2554	245.259	257.6219	309.3576	311.1775	345.2919	392.7017	401.2215	450.9039	563.4541	621.7397	760.5724	776.1663	785.9396	813.832	841.8829	892.4926	934.7511	945.0882	991.7413	1013.9747	1017.2478	1033.9327	1047.1965	1075.3876	1119.8708	1147.5347	1202.285	1209.5323	1243.5681	1271.0852	1286.7008	1319.0753	1332.1537	1360.9698	1380.4807	1407.1784	1415.0212	1429.9654	1477.5148	1481.3551	1495.5308	1496.6324	1506.4804	1510.6341	1678.1296	3012.2618	3028.1921	3038.5013	3045.3717	3045.9606	3060.8082	3096.05	3099.4835	3103.1372	3103.7573	3110.1967	3172.594	3201.1905	3803.4783
CCC1(C)CC(O)C=C1	CC[C@@]1(C)C[C@@H](O)C=C1	
InChI=1S/C8H14O/c1-3-8(2)5-4-7(9)6-8/h4-5,7,9H,3,6H2,1-2H3	InChI=1S/C8H14O/c1-3-8(2)5-4-7(9)6-8/h4-5,7,9H,3,6H2,1-2H3/t7-,8+/m0/s1
