23
gdb 100317	1.89113	1.5384	1.04619	1.8799	80.92	-0.258	0.0684	0.3264	1267.2749	0.204365	-425.413734	-425.403458	-425.402514	-425.448512	39.252	
C	 0.1356800294	 1.6007431675	 0.0614870478	-0.390709
C	-0.0050777101	 0.081112794	-0.0635054429	-0.186839
C	 0.6922147173	-0.5407369265	-1.2862161701	 0.306117
O	 2.076127767	-0.209156113	-1.2220814932	-0.473306
C	 0.5707419923	-2.0775822015	-1.2041342477	-0.110625
O	 1.4648697034	-2.7171782121	-2.1094415477	-0.432188
C	 0.0782175394	-0.0450374121	-2.6000841824	-0.005635
C	 0.5665586402	 1.206834516	-3.2747512315	-0.268434
C	 0.8331518727	-0.1312067349	-3.9138321542	-0.309244
H	 1.1900907231	 1.8885677078	 0.0651655465	 0.135373
H	-0.3566351962	 2.1236669517	-0.7625443818	 0.119942
H	-0.3156317054	 1.9488588105	 0.9958222247	 0.105905
H	 0.4198244744	-0.3918694745	 0.8300170321	 0.096556
H	-1.0673422355	-0.1955746173	-0.090489001	 0.087316
H	 2.5396723822	-0.9646501549	-1.6099399898	 0.287199
H	 0.8720938699	-2.4143771691	-0.2074451568	 0.111671
H	-0.468513283	-2.3926201424	-1.3738662441	 0.091952
H	 1.159704169	-2.5160764861	-3.0010238344	 0.294484
H	-0.9912472458	-0.2321514612	-2.6680948321	 0.078817
H	-0.163310605	 1.8650813549	-3.7324784122	 0.10748
H	 1.4175653944	 1.7023747235	-2.8239901041	 0.13278
H	 1.8616353492	-0.4750516231	-3.8971017306	 0.11197
H	 0.281456267	-0.4006657472	-4.8081029645	 0.10942
82.4384	104.7287	131.808	188.7423	204.8054	238.8924	262.3028	308.3327	364.3823	370.6518	382.1406	435.2129	522.306	555.1756	630.5041	699.0737	784.4758	800.4845	828.2787	883.6563	910.3183	954.4811	972.6687	1003.3645	1033.5399	1055.9637	1074.3896	1083.5261	1092.2548	1100.1252	1145.4768	1155.0426	1198.6494	1206.4161	1225.0244	1251.6127	1332.305	1339.1208	1371.0507	1394.153	1405.7443	1412.6799	1426.5125	1455.7507	1473.9205	1492.8651	1496.0974	1501.7883	1511.0616	3005.6835	3019.1629	3046.0079	3055.9899	3087.0841	3111.0153	3127.0253	3128.8359	3131.5392	3143.4783	3213.165	3236.9654	3736.5554	3809.062
CCC(O)(CO)C1CC1	CC[C@@](O)(CO)C1CC1	
InChI=1S/C7H14O2/c1-2-7(9,5-8)6-3-4-6/h6,8-9H,2-5H2,1H3	InChI=1S/C7H14O2/c1-2-7(9,5-8)6-3-4-6/h6,8-9H,2-5H2,1H3/t7-/m1/s1
