16
gdb 53153	6.61843	0.78012	0.76433	2.2269	80.62	-0.2408	-0.0029	0.2379	1494.6537	0.12336	-400.662711	-400.654116	-400.653172	-400.697802	30.422	
C	 0.0263445148	 1.5171153979	-0.0340028177	-0.50284
C	 0.013547138	 0.0620422103	-0.0102197887	 0.153303
C	-0.0101497715	-1.1412844936	 0.0222935496	 0.033951
C	 0.0176010411	-2.5881173116	 0.0050249931	-0.205641
C	-0.0135905001	-3.3448635818	 1.3775120637	-0.149448
N	-1.4714110923	-2.9050866431	 1.483616818	-0.301875
C	-1.3498867994	-3.3541413232	 0.0298345807	-0.149387
C	-0.5753150585	-4.5637394946	 0.6064930468	 0.421707
O	-0.585494148	-5.7543185066	 0.6247602936	-0.318042
H	 1.0503418092	 1.9066841749	-0.0394957827	 0.14881
H	-0.4802337708	 1.9047389358	-0.9248319395	 0.149344
H	-0.4823599662	 1.9308459547	 0.8435797871	 0.152639
H	 0.7440749846	-2.9784698743	-0.7125592234	 0.112811
H	 0.6805154602	-3.2595264572	 2.2104881802	 0.109918
H	-2.0196499211	-3.5743694775	 2.0318124477	 0.234857
H	-2.1774989498	-3.27934394	-0.6718619985	 0.109894
18.5942	84.9267	88.0972	183.7454	278.2599	283.6264	421.7715	428.2868	472.7565	536.0563	666.834	757.4119	789.1125	804.1154	852.0679	892.7784	934.355	983.6356	1051.977	1053.407	1056.9573	1103.6847	1124.6953	1151.9774	1172.8184	1183.0012	1205.7956	1255.6047	1280.121	1379.7316	1414.0427	1477.29	1477.8	1909.6107	2372.7141	3027.361	3077.602	3087.7596	3089.9596	3152.7845	3155.9989	3409.4623
CC#CC1C2NC1C2=O	CC#C[C@H]1[C@H]2N[C@@H]1C2=O	
InChI=1S/C7H7NO/c1-2-3-4-5-7(9)6(4)8-5/h4-6,8H,1H3	InChI=1S/C7H7NO/c1-2-3-4-5-7(9)6(4)8-5/h4-6,8H,1H3/t4-,5+,6-
