20
gdb 37631	2.724	2.15491	1.93663	1.8401	78.66	-0.2289	0.0828	0.3117	852.761	0.176838	-366.000147	-365.994205	-365.993261	-366.029978	26.536	
C	-0.0314968785	 1.5460200451	-0.0440946891	-0.216826
C	 1.4603838199	 1.8541742886	-0.0217690965	 0.00161
C	 2.193175166	 1.0448634552	 1.1076296749	-0.031763
C	 1.2851894728	 0.4472275814	 2.1907138204	-0.227377
C	 0.1875665405	-0.4232818465	 1.5208289717	-0.211108
C	 0.0298709272	 0.0019116844	 0.0434598931	-0.038149
C	 1.3320634111	-0.2892519068	-0.722939797	-0.03625
C	 2.5830774358	 0.0789017745	-0.007185769	-0.04518
N	 2.0489498453	 0.9582506038	-1.1048872521	-0.157829
H	-0.5917245141	 2.0011249041	 0.7791448833	 0.094938
H	-0.4678387749	 1.8839322288	-0.9896489948	 0.106151
H	 1.7445107238	 2.8997083817	-0.1398619198	 0.071203
H	 3.0415728503	 1.589437562	 1.5255133306	 0.070455
H	 1.8743544749	-0.1450221075	 2.8988692375	 0.097645
H	 0.8345936946	 1.2598892086	 2.7725206037	 0.0982
H	 0.4627066143	-1.4829448622	 1.5601783492	 0.097151
H	-0.7642488269	-0.3246649377	 2.0534945108	 0.092607
H	-0.8287005423	-0.4914846565	-0.4169090087	 0.06427
H	 1.3655859953	-1.076398675	-1.4679013205	 0.087166
H	 3.5172870749	-0.4658192159	-0.1076109775	 0.083087
226.5732	338.8391	371.2812	472.3458	531.8515	625.1569	641.1815	744.8857	768.4794	788.6599	809.2776	822.4188	835.975	871.5187	902.9687	932.9252	961.614	985.4544	1008.9663	1020.5633	1044.0495	1055.0359	1070.4724	1078.1574	1093.85	1113.6889	1155.7902	1186.8888	1206.381	1241.7099	1259.5592	1276.7582	1291.2406	1311.3074	1319.8311	1333.5294	1336.4755	1371.7185	1380.9095	1391.859	1484.0515	1489.3115	1507.9034	3029.4769	3038.3021	3045.4627	3062.4343	3080.043	3083.9119	3090.7408	3093.8269	3114.3493	3148.0079	3174.9445
C1C2C3CCC1C1C3N21	C1[C@H]2[C@H]3CC[C@@H]1[C@@H]1[C@H]3N21	
InChI=1S/C8H11N/c1-2-5-6-3-4(1)7-8(5)9(6)7/h4-8H,1-3H2	InChI=1S/C8H11N/c1-2-5-6-3-4(1)7-8(5)9(6)7/h4-8H,1-3H2/t4-,5+,6-,7+,8-,9?/m0/s1
