16
gdb 13368	4.45378	1.17044	1.14088	1.9363	68.21	-0.2484	0.0418	0.2901	1124.641	0.12994	-383.708654	-383.700163	-383.699218	-383.74464	28.144	
C	-0.198993161	 1.3565193571	 0.0813111489	-0.501025
C	-0.0294591075	-0.0885837145	 0.0694316354	 0.061117
C	 0.1145436	-1.2840410666	 0.0551460831	 0.11236
C	 0.2945622852	-2.7466678258	 0.0331133548	-0.036911
O	 0.7755050757	-3.2407831088	 1.2660017108	-0.229198
C	-0.3751329161	-3.4445364009	 2.0818992135	-0.103897
C	-1.5438653405	-3.5697850505	 1.0687801714	-0.104264
O	-0.9200927029	-3.4273550532	-0.2046265204	-0.228935
H	 0.4498983037	 1.8360021892	-0.6595364192	 0.153775
H	-1.2323874031	 1.6362060088	-0.1506371314	 0.152637
H	 0.0486731177	 1.7766603169	 1.0621602431	 0.152446
H	 1.0033912346	-3.0408082633	-0.7469060751	 0.117367
H	-0.2114290947	-4.3511336	 2.6697714426	 0.118279
H	-0.5263457353	-2.5988214768	 2.7638495051	 0.108929
H	-2.0362373051	-4.5450963499	 1.0923434108	 0.118354
H	-2.2950209808	-2.7861699118	 1.2266175368	 0.108966
14.7842	35.9932	83.6166	118.8922	207.5866	324.0269	356.8907	475.7924	557.6679	735.551	755.0934	828.5456	876.4757	934.0037	953.5468	984.4926	1052.752	1053.4758	1056.0718	1109.6545	1156.3864	1162.2921	1236.4432	1237.5551	1306.5818	1361.7522	1372.8562	1382.9859	1413.5757	1476.5859	1476.6627	1514.847	1528.1745	2365.9533	3021.3248	3029.2701	3033.3421	3071.1861	3085.3998	3091.6172	3092.2471	3104.9278
CC#CC1OCCO1	CC#CC1OCCO1	
InChI=1S/C6H8O2/c1-2-3-6-7-4-5-8-6/h6H,4-5H2,1H3	InChI=1S/C6H8O2/c1-2-3-6-7-4-5-8-6/h6H,4-5H2,1H3
