16
gdb 29297	5.62921	0.93148	0.84332	1.6626	73.74	-0.1869	0.0284	0.2152	1317.9361	0.124853	-437.889571	-437.881453	-437.880509	-437.922493	30.432	
O	 0.2654617144	 1.3755156612	-0.2321062278	-0.449112
C	 0.1121140552	 0.0309235579	-0.050612882	 0.336058
C	-0.1890263732	-0.8517917181	-1.0637910196	-0.175427
N	-0.2858061142	-2.1017972629	-0.4902659741	-0.307186
C	-0.0264546554	-2.0292468525	 0.8480874378	 0.363889
C	 0.2219622022	-0.7057538933	 1.1613142468	-0.414356
C	-0.07712666	-3.2386181357	 1.6863940006	-0.041114
C	-1.234947674	-4.1551997195	 1.6927586283	-0.178767
O	-0.0442475036	-4.4860601139	 0.9734125492	-0.247446
H	 0.4967972701	 1.7710170366	 0.6126659885	 0.295615
H	-0.3300914905	-0.690709495	-2.1185699094	 0.119902
H	-0.3676355517	-2.9775680184	-0.9784860442	 0.268159
H	 0.4358418969	-0.3122842464	 2.1444405644	 0.087727
H	 0.5433444805	-3.2108311106	 2.5814967975	 0.104905
H	-1.4349249362	-4.770834021	 2.5689386323	 0.119646
H	-2.1006155606	-3.9136472285	 1.0785577416	 0.117506
74.3181	142.3476	166.6201	192.6637	306.3498	338.4927	409.4548	470.8338	548.9558	630.9841	638.1247	687.0559	696.473	720.8316	767.6089	837.9185	888.8922	976.1358	995.8265	1021.5213	1093.6508	1123.4972	1145.4293	1165.1911	1169.9924	1187.2166	1264.7073	1315.7148	1335.5625	1388.2181	1466.725	1485.6742	1519.4598	1557.3425	1657.3331	3083.1717	3118.3241	3176.8486	3233.6962	3282.7258	3674.0095	3848.4032
OC1=CNC(=C1)C1CO1	Oc1c[nH]c(c1)[C@H]1CO1	
InChI=1S/C6H7NO2/c8-4-1-5(7-2-4)6-3-9-6/h1-2,6-8H,3H2	InChI=1S/C6H7NO2/c8-4-1-5(7-2-4)6-3-9-6/h1-2,6-8H,3H2/t6-/m1/s1
