21
gdb 102218	3.11029	0.74786	0.64003	2.3681	88.45	-0.2433	-0.0192	0.2241	1819.9244	0.178433	-387.085416	-387.073896	-387.072952	-387.124997	38.603	
C	-0.0939170981	 1.5727638589	 0.0434311182	-0.395226
C	-0.0200828665	 0.046012073	-0.0453439155	-0.193503
C	 0.7417704425	-0.4697473415	-1.2882410709	-0.045355
C	 1.0019861319	-1.9909947204	-1.1859003143	-0.387109
C	 1.7335706008	-2.524825745	-2.329763654	 0.009326
C	 2.3358309796	-2.9247780273	-3.2927477741	 0.126937
C	 3.0640007776	-3.4170027678	-4.4533529976	-0.498689
C	-0.0782740014	-0.1644686691	-2.5281953307	 0.177988
O	 0.1053021953	 0.7614940544	-3.274153646	-0.253169
H	 0.9073122823	 2.0097504005	 0.1172889371	 0.122293
H	-0.5751323567	 2.0054230948	-0.8384512138	 0.137649
H	-0.6615755375	 1.8826882794	 0.925886521	 0.115237
H	 0.4756502321	-0.3542201495	 0.8475347104	 0.103891
H	-1.0331215107	-0.3799709942	-0.0438175528	 0.10157
H	 1.6934543608	 0.0629964498	-1.3830745197	 0.102035
H	 1.5515900452	-2.1907426578	-0.2576670977	 0.130348
H	 0.0391612224	-2.5116871618	-1.0823973283	 0.126937
H	 2.5673731014	-4.2874073829	-4.8961016637	 0.147959
H	 3.1378421472	-2.6472758624	-5.2293208833	 0.153298
H	 4.083274481	-3.7170490897	-4.1861704849	 0.147834
H	-0.9328606891	-0.8672606214	-2.6852492493	 0.069747
14.6025	46.4649	57.2943	75.5052	99.713	206.0101	207.8632	227.8283	264.1748	316.1093	342.7455	382.9417	388.3151	475.5677	570.8879	765.8516	775.7824	840.3522	900.6018	963.5633	1004.2895	1025.7627	1052.9696	1053.4228	1092.6608	1118.3211	1156.2016	1170.3625	1218.1529	1263.403	1290.8883	1351.3669	1354.2918	1366.3023	1414.725	1419.4887	1428.3836	1470.0816	1478.2354	1478.4047	1489.7292	1499.1137	1506.223	1835.3766	2373.6461	2835.2296	3006.4667	3013.5763	3027.8024	3040.1122	3043.3308	3048.3677	3071.6161	3088.195	3090.1258	3107.5061	3116.872
CCC(CC#CC)C=O	CC[C@@H](CC#CC)C=O	
InChI=1S/C8H12O/c1-3-5-6-8(4-2)7-9/h7-8H,4,6H2,1-2H3	InChI=1S/C8H12O/c1-3-5-6-8(4-2)7-9/h7-8H,4,6H2,1-2H3/t8-/m0/s1
