20
gdb 86094	2.45569	1.29645	0.98309	4.276	85.38	-0.2526	0.0045	0.2571	1277.9877	0.171067	-366.056212	-366.047011	-366.046067	-366.090132	34.328	
C	-0.7732941269	 1.2754737289	 0.0425719954	-0.416686
C	 0.0986754983	 0.0274643329	-0.0605811139	 0.017379
C	 1.2543201863	 0.1113477953	-1.0851300933	-0.308352
C	 2.3116155761	-0.8157229481	-0.5241781393	 0.339551
C	 3.4831257186	-1.2604596592	-1.3394132275	-0.49341
C	 2.058612497	-1.1177445276	 0.7503970457	-0.17864
C	 0.8009125	-0.4365291566	 1.2647744428	-0.20715
C	 1.1384231638	 0.669102227	 2.171922443	 0.277169
N	 1.4119307438	 1.5392830377	 2.8829703832	-0.339173
H	-0.1878660669	 2.1457679598	 0.3540065826	 0.14181
H	-1.2296429604	 1.5019378425	-0.9263798104	 0.115946
H	-1.5820348245	 1.141083475	 0.7681371719	 0.121419
H	-0.5317756008	-0.8199576879	-0.3531901595	 0.090214
H	 0.9298009179	-0.173088257	-2.0929108524	 0.105337
H	 1.6498374761	 1.1347020045	-1.1652784911	 0.116799
H	 4.0587720713	-0.3973842451	-1.6968335514	 0.134521
H	 4.1556414736	-1.9046794936	-0.7672206699	 0.129039
H	 3.1576168873	-1.8083581553	-2.2324547118	 0.129127
H	 2.684868973	-1.7242634425	 1.3939864517	 0.104443
H	 0.1515115065	-1.1182593209	 1.8269629643	 0.120656
77.0816	118.6368	150.4158	184.4654	241.0709	257.939	294.2876	361.176	417.3184	446.7695	492.5894	536.2458	614.3516	698.4119	803.5105	841.1305	876.8906	909.726	933.1461	959.6435	998.2095	1028.7202	1044.9505	1077.9104	1130.6841	1142.0842	1177.877	1215.9502	1252.4603	1282.4308	1305.7307	1341.355	1359.2148	1367.8906	1414.6204	1419.1302	1478.417	1485.3767	1487.2845	1497.6094	1500.0597	1721.6229	2346.4543	3004.4388	3021.4775	3029.5737	3036.9719	3041.7733	3059.0982	3069.1425	3103.3213	3114.4734	3115.5532	3203.1276
CC1CC(C)=CC1C#N	C[C@H]1CC(=C[C@H]1C#N)C	
InChI=1S/C8H11N/c1-6-3-7(2)8(4-6)5-9/h4,7-8H,3H2,1-2H3	InChI=1S/C8H11N/c1-6-3-7(2)8(4-6)5-9/h4,7-8H,3H2,1-2H3/t7-,8-/m0/s1
