20
gdb 15911	2.55	1.91971	1.31772	2.1973	71.63	-0.2427	0.0757	0.3185	1020.8612	0.174966	-386.120797	-386.111542	-386.110597	-386.154893	33.079	
C	-0.1247889338	 1.5137386316	-0.1161825233	-0.241436
O	-0.0764154232	 0.1518113097	 0.2535109387	-0.233133
C	-1.2995905083	-0.520500616	 0.1179582018	 0.045298
C	-1.570832268	-1.2523678113	-1.2324943217	 0.131704
C	-0.5820239921	-1.0826534167	-2.3678783007	-0.404494
O	-1.4426933569	-2.5404927002	-0.5840742272	-0.314605
C	-1.2778245179	-1.9429334424	 0.7242976272	 0.123416
C	-0.0232868844	-2.4116734542	 1.432634011	-0.392911
H	 0.8627611817	 1.9366062101	 0.0827401701	 0.130482
H	-0.358277757	 1.6483999863	-1.1816433517	 0.11144
H	-0.874144068	 2.0624586469	 0.4747931015	 0.10892
H	-2.1241987346	 0.1175446998	 0.4635110265	 0.065446
H	-2.5999524518	-1.107367988	-1.5918188082	 0.065247
H	 0.4431966268	-1.0723495094	-1.9910053181	 0.130201
H	-0.6898797304	-1.9152927394	-3.0698910102	 0.126862
H	-0.7669665302	-0.1521209874	-2.915473084	 0.109727
H	-2.1616404947	-2.1418547732	 1.3471494411	 0.070255
H	 0.8695127733	-2.1590254033	 0.8579524531	 0.131202
H	 0.0564649081	-1.9463791012	 2.4203389467	 0.11536
H	-0.0651966185	-3.4972771518	 1.5648974674	 0.121015
52.3526	103.2938	163.633	191.9146	210.5442	213.3836	248.3573	323.5986	387.4869	410.5381	503.6246	562.0917	756.4673	809.6742	866.9544	887.0588	943.572	988.2206	1001.9789	1077.3017	1105.3796	1115.9821	1138.6494	1154.4653	1182.2211	1187.8662	1236.5376	1259.7654	1282.7309	1337.2352	1358.801	1386.2128	1399.9488	1404.2348	1415.2697	1477.8237	1481.1672	1484.9758	1487.7068	1492.322	1494.7783	1508.8208	2981.8356	2989.9306	2993.0479	3015.948	3034.7369	3039.8922	3044.6137	3105.3068	3111.1581	3117.6497	3131.1885	3140.9477
COC1C(C)OC1C	CO[C@H]1[C@@H](C)O[C@H]1C	
InChI=1S/C6H12O2/c1-4-6(7-3)5(2)8-4/h4-6H,1-3H3	InChI=1S/C6H12O2/c1-4-6(7-3)5(2)8-4/h4-6H,1-3H3/t4-,5+,6+
