16
gdb 93479	3.09087	1.39163	0.98771	0.8192	68.55	-0.2421	-0.0168	0.2253	1129.4573	0.127014	-471.259159	-471.251283	-471.250339	-471.291589	30.299	
O	 0.1658264972	 1.3106517908	 0.3215074505	-0.433809
C	 0.0286478143	-0.0509624416	 0.0386384725	 0.045071
C	-1.4400177596	-0.472582053	-0.0055053787	-0.201606
N	-1.4829406046	-1.8745935174	-0.3885229224	-0.320057
C	-0.837426326	-2.3305105042	-1.5138533727	 0.445846
N	-1.1942720093	-3.4107345103	-2.0893745493	-0.56129
N	 0.2349471638	-1.5087549968	-1.9242736665	-0.38303
C	 0.6796308043	-0.3679769667	-1.3058186194	 0.388011
O	 1.5305106585	 0.3568004512	-1.7839777803	-0.37605
H	 0.874999818	 1.6251663937	-0.2614338509	 0.298587
H	 0.5384168238	-0.6760081751	 0.7927998766	 0.109515
H	-1.889129221	-0.3627281729	 0.9838415188	 0.132277
H	-1.9839839672	 0.186799083	-0.6987951807	 0.119173
H	-2.3220241328	-2.3984913005	-0.1927679738	 0.262491
H	-0.5706454183	-3.663312258	-2.8519008955	 0.212305
H	 0.6824498488	-1.7385455923	-2.8006940381	 0.262565
92.4252	136.0009	220.7329	301.4739	373.3674	374.6456	420.0212	458.3339	491.569	544.4067	580.1904	634.2635	711.9527	722.0703	766.2799	773.7943	797.4836	946.1973	1035.6136	1074.1538	1101.0093	1163.564	1168.1235	1218.9911	1279.5869	1300.0495	1315.396	1389.0927	1417.0644	1438.694	1454.0999	1467.5756	1519.4751	1753.3441	1796.1331	2954.7427	2995.2108	3105.9106	3520.5052	3608.41	3633.1259	3697.6367
OC1CNC(=N)NC1=O	O[C@H]1CN[C]([NH])NC1=O	
InChI=1S/C4H7N3O2/c5-4-6-1-2(8)3(9)7-4/h2,8H,1H2,(H3,5,6,7,9)	InChI=1S/C4H7N3O2/c5-4-6-1-2(8)3(9)7-4/h2,8H,1H2,(H3,5,6,7,9)/t2-/m0/s1
