16
gdb 14327	4.31202	1.82542	1.54566	4.3348	63.75	-0.264	0.0157	0.2797	839.9841	0.132443	-383.781428	-383.774924	-383.773979	-383.812527	24.93	
O	 0.0466609192	-0.0320651682	-0.018176063	-0.329351
C	-0.0406040856	 1.1590007982	 0.0311369214	 0.418637
C	-1.305641625	 2.0093548642	 0.170645972	-0.376919
C	-0.7876796308	 3.4118173127	 0.4450743288	-0.026973
C	-0.3630058822	 3.7535519171	 1.9079364513	-0.239673
C	 1.1034927106	 3.958728985	 1.4266063096	-0.231364
C	 0.7217032976	 3.3585694378	 0.0567957999	 0.10471
O	 1.0546476477	 1.970419697	-0.0487554054	-0.226751
H	-1.863784334	 1.9376902563	-0.7692400625	 0.138998
H	-1.939596642	 1.5943083938	 0.9576709426	 0.140204
H	-1.3608185849	 4.2009789519	-0.0415490278	 0.083592
H	-0.8489590046	 4.6246350146	 2.3509280994	 0.109994
H	-0.4839331558	 2.9096564331	 2.5924887837	 0.112933
H	 1.3838333211	 5.0120385985	 1.3468545945	 0.110153
H	 1.8881248645	 3.4224994765	 1.9632650683	 0.121847
H	 1.0749962742	 3.8621599614	-0.8456896427	 0.089965
81.2634	111.3787	332.2985	370.2551	490.895	555.8067	636.9269	657.5622	728.8758	758.4953	824.4839	867.7936	874.3011	936.4921	955.9518	963.6639	1032.9809	1069.5486	1096.3004	1119.5416	1150.626	1204.3975	1208.3498	1224.7976	1261.3358	1276.253	1289.5573	1302.2153	1333.3945	1373.5355	1460.8488	1466.9059	1491.4196	1882.8842	3057.1093	3065.0609	3068.8562	3084.1843	3105.3199	3110.7775	3119.2829	3134.0015
O=C1CC2CCC2O1	O=C1C[C@H]2CC[C@H]2O1	
InChI=1S/C6H8O2/c7-6-3-4-1-2-5(4)8-6/h4-5H,1-3H2	InChI=1S/C6H8O2/c7-6-3-4-1-2-5(4)8-6/h4-5H,1-3H2/t4-,5-/m1/s1
