17
gdb 54700	4.1575	1.23823	1.19137	3.3141	71.85	-0.2383	0.0248	0.2631	1070.1117	0.137065	-417.967083	-417.959243	-417.958299	-418.000244	29.457	
N	 0.0592981602	 1.1466101114	-0.5478654535	-0.535633
C	-0.1030586462	 0.2541123702	 0.4718979641	 0.409973
O	 0.7224230256	 0.1162587538	 1.3552912039	-0.365758
C	-1.3890221565	-0.5577893123	 0.4052611104	-0.139766
C	-1.0911747245	-2.0384150692	 0.1236731374	-0.032688
C	-0.9895237533	-2.3518244746	 1.5649868065	-0.019001
C	-1.8423020058	-1.0516060647	 1.8101258737	-0.07438
C	-3.0493556732	-1.9363114893	 1.4666663767	-0.166244
N	-2.1308563728	-2.9064659227	 0.78304593	-0.164497
H	 0.9079523621	 1.6875018218	-0.5789532344	 0.261343
H	-0.6129392686	 1.2528482448	-1.2863439548	 0.259055
H	-2.1472558123	-0.0646866548	-0.2156095424	 0.063159
H	-0.5673298167	-2.468254534	-0.7195366552	 0.103904
H	-0.2938285172	-2.9327021106	 2.1525015798	 0.104737
H	-1.8006892743	-0.3780951093	 2.6619747302	 0.08968
H	-3.4842743252	-2.4330196257	 2.3376503733	 0.112222
H	-3.8469264212	-1.5191705048	 0.8395891842	 0.093894
41.7664	114.0696	156.926	188.2015	356.0402	392.5537	447.7147	576.5559	619.2088	726.7491	756.2974	789.0134	803.2015	828.6948	880.2396	910.7526	925.3688	962.0872	973.0439	998.193	1019.586	1052.9688	1071.7921	1092.8289	1145.9624	1163.788	1175.4944	1203.3	1214.3049	1252.4832	1284.7591	1296.621	1335.5604	1401.6279	1507.8385	1614.9774	1789.0071	3022.3922	3031.4783	3102.12	3155.7783	3205.9296	3230.2563	3604.2453	3742.8279
NC(=O)C1C2C3C1CN23	NC(=O)[C@H]1[C@H]2[C@H]3[C@@H]1CN23	
InChI=1S/C6H8N2O/c7-6(9)3-2-1-8-4(2)5(3)8/h2-5H,1H2,(H2,7,9)	InChI=1S/C6H8N2O/c7-6(9)3-2-1-8-4(2)5(3)8/h2-5H,1H2,(H2,7,9)/t2-,3-,4-,5+,8?/m1/s1
