20
gdb 10992	2.62946	2.29837	1.84558	1.6763	73.82	-0.2385	0.0857	0.3242	864.9729	0.177759	-349.001002	-348.99337	-348.992426	-349.032234	30.474	
C	-0.1827429795	 1.6388972976	-0.0583435521	-0.440337
C	 0.0222994331	 0.1346961438	 0.0156314043	 0.001231
C	 1.1719765356	-0.6104596952	-0.7062722475	 0.060487
C	 2.4613957117	 0.0874057202	-0.2262216178	-0.221814
C	 2.1107586485	 0.1137274935	 1.2931498473	-0.252024
C	 0.7290487594	-0.5817042315	 1.2060338063	 0.407248
C	 0.030290487	-0.9953440918	 2.4706497094	-0.498477
O	 1.0312314695	-1.6800854346	 0.2770777666	-0.333388
H	 0.7353577176	 2.2022909286	 0.1290090918	 0.119484
H	-0.5535240448	 1.9305114049	-1.0472211364	 0.119562
H	-0.9273724476	 1.9651176382	 0.6762840269	 0.119136
H	-0.9109182793	-0.3982670737	-0.1874726769	 0.079551
H	 1.1079647011	-0.9463154925	-1.7417934604	 0.070728
H	 3.3407297247	-0.5213260661	-0.4458699825	 0.105465
H	 2.6082811721	 1.0785124968	-0.6642067	 0.09489
H	 2.8019859525	-0.4792744215	 1.8965372393	 0.10242
H	 2.0600447997	 1.1203065205	 1.7175295264	 0.094044
H	-0.2046026683	-0.1171276881	 3.0813987073	 0.119729
H	-0.9012912363	-1.5233005058	 2.2484626671	 0.124934
H	 0.6684380535	-1.6583702131	 3.0644162009	 0.12713
177.438	193.5072	214.3538	260.6193	285.3939	307.4061	406.7859	507.35	579.904	606.528	734.4361	742.3066	802.0432	837.6637	864.4596	885.9371	910.0196	947.8865	968.9684	997.3161	1035.5763	1068.0621	1101.6863	1140.3283	1163.0923	1175.8965	1192.8026	1240.3926	1246.2126	1279.4358	1286.6658	1314.314	1341.1496	1394.3143	1410.0383	1420.157	1474.6797	1481.6609	1493.4705	1495.6998	1503.3082	1506.8073	3033.0787	3035.3124	3059.8447	3068.6746	3071.0423	3091.0703	3101.4631	3104.6823	3112.9445	3114.6397	3115.9943	3122.2923
CC1C2CCC1(C)O2	C[C@H]1[C@H]2CC[C@]1(C)O2	
InChI=1S/C7H12O/c1-5-6-3-4-7(5,2)8-6/h5-6H,3-4H2,1-2H3	InChI=1S/C7H12O/c1-5-6-3-4-7(5,2)8-6/h5-6H,3-4H2,1-2H3/t5-,6+,7-/m0/s1
