19
gdb 85543	2.50788	1.62656	1.09677	3.7834	76.56	-0.2121	0.0291	0.2412	1118.99	0.160967	-419.215806	-419.20764	-419.206696	-419.248424	31.747	
C	 0.1362895351	 1.5017868076	 0.0120307978	-0.315645
N	 0.0495840632	 0.0499905133	 0.0316313821	-0.081538
C	 0.3863935502	-0.5289302618	-1.2625678422	-0.272257
C	 0.4826180253	-2.0511344011	-1.3047026779	 0.383861
O	 0.3299395796	-2.6667886008	-2.3425832144	-0.373778
N	 0.8170346209	-2.657474758	-0.1299754606	-0.312731
C	 1.0740861286	-1.9791371756	 1.1044762141	-0.012624
C	 2.1816947727	-0.9385325807	 1.1993606581	-0.336467
C	 0.7068220059	-0.5360078067	 1.1629925458	 0.036167
H	 1.1625960419	 1.8728714731	-0.1642984366	 0.099191
H	-0.5086100604	 1.8959157987	-0.7797243323	 0.123886
H	-0.212706305	 1.9055870521	 0.9674543484	 0.120158
H	-0.3714963262	-0.2412725906	-1.9960786626	 0.138661
H	 1.3532563516	-0.1518044628	-1.653442471	 0.10732
H	 1.0103861504	-3.6459951589	-0.1994246184	 0.249514
H	 0.8689247757	-2.5972265113	 1.9717650907	 0.108014
H	 2.7245822559	-0.8364696108	 2.1329927751	 0.114536
H	 2.7793446456	-0.7895104156	 0.30679812	 0.12249
H	 0.2883850592	-0.1797298303	 2.1002194539	 0.101242
101.3513	120.0269	204.1009	251.9441	312.7343	361.0444	416.3341	466.0953	480.0675	513.3756	543.441	643.9259	704.9081	732.8982	826.0915	861.2422	889.9973	972.2131	1005.8059	1013.9764	1032.6137	1068.5656	1106.312	1126.4613	1144.21	1152.8004	1164.4665	1234.0708	1257.7972	1308.7233	1347.2165	1386.5419	1400.0144	1424.5038	1454.702	1465.1868	1483.1406	1494.5836	1502.0736	1512.5084	1796.8815	2902.1517	2940.6181	3062.3115	3089.327	3106.1654	3132.35	3140.7827	3163.7322	3224.6691	3609.3944
CN1CC(=O)NC2CC12	CN1CC(=O)N[C@H]2C[C@@H]12	
InChI=1S/C6H10N2O/c1-8-3-6(9)7-4-2-5(4)8/h4-5H,2-3H2,1H3,(H,7,9)	InChI=1S/C6H10N2O/c1-8-3-6(9)7-4-2-5(4)8/h4-5H,2-3H2,1H3,(H,7,9)/t4-,5+/m0/s1
