16
gdb 54244	1.92951	1.22203	1.08333	0.4099	67.98	-0.1843	0.0413	0.2256	1219.4137	0.122475	-471.222116	-471.211675	-471.210731	-471.259634	34.801	
N	 0.3490431884	 1.7115756327	-0.1631498381	-0.618103
C	-0.2145778007	 0.4727077674	-0.5306196564	 0.083141
C	-1.5395380635	-0.2697419266	-0.3400833211	-0.238313
N	-1.043253182	-1.2353488644	-1.3978137232	-0.359269
C	 0.1624843025	-0.4742058406	-1.4189194918	 0.348088
N	 1.2732246081	-0.7961362272	-2.16824221	-0.606659
H	 1.0451380826	-1.1920358111	-3.0716288201	 0.251917
H	 1.9218473092	-0.0237488488	-2.2533836421	 0.25955
C	 1.1328685164	-1.2819631396	 1.6581690797	 0.589226
O	 1.6267784828	-0.3106560691	 2.0670155228	-0.298948
O	 0.6544319812	-2.2790593531	 1.2958093737	-0.301014
H	 0.5797200682	 1.7527318518	 0.8253226164	 0.236403
H	-0.266617197	 2.4946619235	-0.3644563293	 0.227911
H	-1.7172594232	-0.7623384909	 0.6238423432	 0.095839
H	-2.456146407	 0.2437526861	-0.6538390976	 0.102618
H	-0.9186606359	-2.1802838902	-1.0346717763	 0.227612
33.3645	52.3751	72.6607	81.4069	112.6927	209.2145	242.5611	263.0667	306.7275	356.5261	449.5961	584.3849	653.3763	685.625	701.0842	735.8734	764.9904	817.8633	860.7111	941.5201	998.3141	1037.9691	1102.8228	1136.6509	1221.4464	1228.9102	1299.1181	1323.6161	1370.6887	1422.5453	1500.5913	1621.9239	1650.7004	1781.2458	2422.9264	3019.1291	3063.0742	3455.4692	3474.6566	3532.8343	3536.7574	3633.3963
NC1(CNC1=[NH2+])C([O-])=O	NC1=C(NC1)N.C(=O)=O	
InChI=1S/C4H7N3O2/c5-2-4(6,1-7-2)3(8)9/h1,6H2,(H2,5,7)(H,8,9)	InChI=1S/C3H7N3.CO2/c4-2-1-6-3(2)5;2-1-3/h6H,1,4-5H2;
