18
gdb 83436	3.18203	1.2943	1.15651	2.4187	71.86	-0.235	0.0458	0.2808	1112.9291	0.148116	-439.00115	-438.993094	-438.99215	-439.033933	30.869	
O	-0.2809390979	 1.4602337796	-0.0235359402	-0.435464
C	-0.0589956929	 0.0869751609	 0.0058399662	 0.075937
C	-0.2066712186	-0.7549003529	 1.2638051089	-0.233947
C	-1.4144554878	-0.2438880473	 2.0311520771	-0.107518
O	-2.2513165857	-0.2821146263	 0.8309397348	-0.344295
C	-1.180688733	-0.8956530809	 0.0854833339	 0.396546
C	-1.5549953873	-1.9713520637	-0.8612337552	-0.115519
C	-2.6826448872	-2.8838471572	-0.547248007	-0.241753
N	-2.8269858093	-1.8608083973	-1.5991452946	-0.325897
H	-1.2361842443	 1.5813369174	 0.0608462781	 0.296229
H	 0.7750468311	-0.2088398295	-0.6252622497	 0.111806
H	 0.5559717838	-1.4237076534	 1.6399385033	 0.105256
H	-1.8011368774	-0.9424047952	 2.7787632398	 0.119795
H	-1.3527568311	 0.7657015042	 2.4506565916	 0.118742
H	-0.7250922482	-2.3404505629	-1.4598770131	 0.095801
H	-2.6622335673	-3.9093181181	-0.9046456381	 0.118082
H	-3.2034917792	-2.7279409166	 0.3925884593	 0.120884
H	-3.3570683475	-1.0778155104	-1.220564175	 0.245314
75.7017	145.2846	178.099	224.6288	276.2534	360.0399	391.1651	421.04	544.0398	611.6431	716.3677	790.1132	808.5392	840.5102	869.701	919.9138	957.2082	965.3476	970.7269	986.2107	1008.9608	1026.3621	1096.4696	1101.6077	1108.0062	1135.6294	1165.5784	1169.4235	1207.7383	1255.0561	1271.5572	1301.3479	1302.6402	1328.9644	1358.4654	1414.1069	1486.876	1505.4178	1517.112	3042.87	3097.1087	3115.2335	3132.3385	3154.473	3202.6826	3205.7102	3490.8221	3760.4657
OC1C2COC12C1CN1	O[C@H]1[C@H]2CO[C@@]12[C@H]1CN1	
InChI=1S/C6H9NO2/c8-5-3-2-9-6(3,5)4-1-7-4/h3-5,7-8H,1-2H2	InChI=1S/C6H9NO2/c8-5-3-2-9-6(3,5)4-1-7-4/h3-5,7-8H,1-2H2/t3-,4-,5+,6+/m1/s1
