21
gdb 101199	2.86224	1.14875	1.00083	0.6582	78.66	-0.2355	0.0757	0.3112	1293.7129	0.181079	-424.165706	-424.15632	-424.155376	-424.20065	34.445	
C	 0.1080934822	 1.4101643512	-0.2904707695	-0.232534
O	 0.0627048173	 0.0453637104	 0.0517609196	-0.251271
C	-1.2487059014	-0.5106233755	 0.1070212441	 0.118346
C	-1.8702238987	-0.6814465926	-1.2830157076	-0.411311
C	-1.1313943399	-1.8430577509	 0.811819415	-0.041858
C	-0.7224239707	-2.0179017919	 2.2615457001	-0.147476
C	-1.3880526475	-0.954919827	 3.126501711	-0.097354
O	-2.6978827372	-1.2628135964	 2.5694660937	-0.284792
C	-2.1318864868	-2.3390521676	 1.8137808054	 0.069285
H	 1.1408695238	 1.7419811883	-0.1538802549	 0.12391
H	-0.1795750259	 1.6000811382	-1.3350711576	 0.104933
H	-0.5456199063	 2.0148686184	 0.3588404119	 0.099894
H	-1.8958891585	 0.1492340214	 0.7044703641	 0.081965
H	-2.8496823654	-1.1623584371	-1.1993087983	 0.123003
H	-2.0141365757	 0.2793731927	-1.7846907385	 0.11451
H	-1.2279674806	-1.3053701801	-1.9134053308	 0.118922
H	-0.7314046822	-2.6427091081	 0.1902762264	 0.089677
H	 0.0909288495	-2.6621524288	 2.5653961977	 0.098342
H	-1.3698719576	-1.1898694233	 4.1961816431	 0.109354
H	-1.0983909634	 0.0899261236	 2.9695944444	 0.112225
H	-2.7037750051	-3.2575381048	 1.7433463106	 0.102229
40.9172	81.5255	145.72	175.1528	199.3065	239.4505	288.3077	319.064	403.7472	462.7636	529.7455	599.2814	765.54	792.3464	814.6265	858.9383	905.3489	957.5072	966.082	995.3268	1015.7425	1047.4508	1059.068	1073.7483	1088.3334	1108.4655	1126.5533	1146.547	1163.9361	1181.1771	1209.9849	1236.9742	1262.4423	1314.4601	1322.6829	1375.1553	1385.1566	1401.5395	1454.638	1475.2434	1482.7595	1492.729	1504.9818	1513.7143	1518.9909	2970.2319	2996.7424	3019.4648	3032.0841	3038.4343	3081.1321	3104.8748	3111.1392	3114.7662	3128.8376	3174.8823	3208.6485
COC(C)C1C2COC12	CO[C@@H](C)[C@H]1[C@H]2CO[C@@H]12	
InChI=1S/C7H12O2/c1-4(8-2)6-5-3-9-7(5)6/h4-7H,3H2,1-2H3	InChI=1S/C7H12O2/c1-4(8-2)6-5-3-9-7(5)6/h4-7H,3H2,1-2H3/t4-,5+,6-,7+/m0/s1
