15
gdb 29385	4.77612	0.88033	0.83527	4.1355	73.28	-0.2067	0.0037	0.2104	1359.7689	0.11355	-416.842838	-416.834525	-416.833581	-416.876649	30.264	
N	-0.0630272872	 1.4383787279	-0.237049619	-0.604949
C	 0.0019360733	 0.0531939434	-0.0462879168	 0.240669
C	-1.0174288106	-0.8284404391	 0.1639559551	-0.095006
O	-0.5354714024	-2.1119236452	 0.2026250848	-0.180077
C	 0.8030303728	-2.0368939362	 0.027035182	 0.395134
C	 1.5583966725	-3.3277555245	 0.0376652984	-0.445196
C	 1.6289113767	-3.9498328476	 1.3660844433	 0.267756
N	 1.6868239032	-4.4388609769	 2.4108595852	-0.304268
C	 1.1945980106	-0.7450310903	-0.1341843913	-0.346492
H	 0.722681864	 1.9280001288	 0.1710700101	 0.248643
H	-0.9239183157	 1.845975947	 0.1035383725	 0.247045
H	-2.0814582283	-0.7202048624	 0.2863545141	 0.127733
H	 1.0992839578	-4.0456449448	-0.6528834903	 0.170381
H	 2.5775419722	-3.1476929292	-0.3174441362	 0.1672
H	 2.2012605111	-0.3921582508	-0.2989071017	 0.111428
37.0011	90.3288	207.1791	236.2177	261.6382	353.8591	376.1901	406.0472	471.9471	609.2154	629.4566	677.7994	697.3148	749.0582	775.4978	809.8542	904.1666	929.3307	980.9531	1004.2857	1107.7912	1148.6862	1176.8359	1212.7488	1281.9211	1328.4962	1352.9307	1444.0952	1451.4873	1583.1798	1653.4751	1683.0468	2365.5901	3041.4646	3097.3571	3251.0017	3284.8164	3540.8015	3629.8398
NC1=COC(CC#N)=C1	Nc1coc(CC#N)c1	
InChI=1S/C6H6N2O/c7-2-1-6-3-5(8)4-9-6/h3-4H,1,8H2	InChI=1S/C6H6N2O/c7-2-1-6-3-5(8)4-9-6/h3-4H,1,8H2
