21
gdb 112627	2.73785	1.08204	0.92546	2.4689	75.24	-0.2461	0.056	0.3021	1348.6994	0.180607	-461.336438	-461.326642	-461.325698	-461.370957	36.856	
C	 0.2982604452	 0.508273865	-0.8519521852	-0.238091
O	-0.1371973821	-0.490448121	 0.0425103067	-0.243446
C	-1.5264991172	-0.4448737237	 0.3002218319	 0.134302
C	-2.399964955	-1.1180198514	-0.800111175	-0.328603
C	-2.4089035836	-2.4249612546	 0.0655930661	 0.417125
O	-3.6611658435	-3.0300192736	 0.2741582888	-0.48656
C	-1.4076505172	-3.4790553052	-0.4041507333	-0.140134
O	-1.9352551393	-4.2062806237	-1.5145308229	-0.430603
C	-1.9094989154	-1.5866826718	 1.2665558432	-0.30134
H	 1.3788314728	 0.3933646051	-0.9663323945	 0.12803
H	-0.1734257065	 0.417663947	-1.8420846778	 0.1041
H	 0.0859595339	 1.5166959871	-0.4639109132	 0.107486
H	-1.8182150817	 0.5723318932	 0.5945795092	 0.066915
H	-3.4038336774	-0.6902672043	-0.8510848607	 0.110047
H	-1.9741310763	-1.1607533409	-1.8083913503	 0.080816
H	-3.7327568739	-3.7212642993	-0.3991816807	 0.279958
H	-0.4389588399	-3.0198894438	-0.6326621173	 0.112896
H	-1.265901881	-4.2189420345	 0.3906318247	 0.11553
H	-1.9202308858	-3.6237764249	-2.2816181769	 0.288045
H	-1.0918065532	-1.9926765802	 1.8677006646	 0.107692
H	-2.7462204829	-1.3173958144	 1.9143696025	 0.115834
72.8584	127.4945	139.9532	171.9403	213.7663	268.1683	315.8373	329.7834	347.8201	378.0432	435.7255	467.3303	513.4615	548.1874	710.6844	811.504	824.0655	835.1916	919.4385	942.3564	962.1383	989.7959	1050.5412	1057.1918	1078.0236	1109.1016	1146.791	1168.0018	1184.8285	1202.3928	1229.6033	1243.2261	1261.7505	1281.0188	1306.7711	1363.101	1384.8376	1400.4562	1426.1311	1449.3818	1475.4318	1481.7088	1487.539	1497.0265	1510.9	2976.3918	3006.3288	3022.9774	3036.583	3043.	3067.7201	3091.9165	3114.7397	3114.998	3130.4352	3740.648	3810.3802
COC1CC(O)(CO)C1	CO[C@H]1C[C@@](O)(CO)C1	
InChI=1S/C6H12O3/c1-9-5-2-6(8,3-5)4-7/h5,7-8H,2-4H2,1H3	InChI=1S/C6H12O3/c1-9-5-2-6(8,3-5)4-7/h5,7-8H,2-4H2,1H3/t5-,6-
