20
gdb 109902	2.50514	1.45638	1.15422	1.9676	73.79	-0.2141	0.0504	0.2644	1128.1185	0.171354	-440.21948	-440.210609	-440.209664	-440.253519	33.389	
O	 0.8156212059	-0.4871905252	-1.0567037354	-0.428657
C	 0.0748861561	 0.0815117714	 0.0118605688	-0.078193
C	-1.3413875582	-0.4569793087	 0.0480162298	-0.007378
C	-2.404901167	 0.1538309617	 1.0124191839	 0.046363
O	-2.1347292843	 1.4449573118	 1.5253805438	-0.421897
C	-3.3459931796	 0.2075125579	-0.2191826297	 0.020208
C	-3.4898168812	 1.5656084586	-0.9255243795	-0.23791
C	-2.2022091632	 1.1967193806	-1.7049167155	-0.183383
N	-2.2193702591	-0.2094107777	-1.1545593997	-0.172534
H	 0.233761035	-0.5151573825	-1.8243254542	 0.296003
H	 0.5940012092	-0.199150213	 0.9368709981	 0.099992
H	 0.0783105958	 1.1793981513	-0.0347451903	 0.098778
H	-1.2874424362	-1.5447165568	 0.1795711127	 0.086007
H	-2.7326577621	-0.5215020159	 1.8135676209	 0.068464
H	-1.540863587	 1.3540952296	 2.2768545116	 0.290474
H	-4.2206696783	-0.445917167	-0.1642972431	 0.075004
H	-4.3811743669	 1.6260056355	-1.5527708017	 0.104934
H	-3.4383245706	 2.4425640228	-0.2811314439	 0.126482
H	-2.290262668	 1.1966551202	-2.7952840686	 0.105078
H	-1.3256627803	 1.7909028952	-1.4326503779	 0.112166
50.7763	85.3436	151.6041	255.0517	259.5804	282.6646	310.3793	327.9295	486.3531	523.3213	530.0149	680.1764	740.8847	780.4128	832.8353	860.096	882.912	926.3581	939.6275	985.4274	1015.9831	1046.1107	1065.8265	1102.3154	1132.0563	1153.7155	1186.7408	1201.3124	1214.893	1225.7585	1237.5116	1271.3613	1275.224	1293.0115	1313.807	1328.3681	1348.2859	1385.3168	1418.0537	1436.5335	1477.4452	1502.1663	1529.9006	3004.0092	3007.2968	3028.4476	3048.3211	3050.5546	3067.7267	3084.5355	3093.9304	3146.797	3805.3135	3825.3454
OCC1C(O)C2CCN12	OC[C@H]1[C@@H](O)[C@H]2CCN12	
InChI=1S/C6H11NO2/c8-3-5-6(9)4-1-2-7(4)5/h4-6,8-9H,1-3H2	InChI=1S/C6H11NO2/c8-3-5-6(9)4-1-2-7(4)5/h4-6,8-9H,1-3H2/t4-,5+,6+/m1/s1
