21
gdb 74902	2.66727	1.5085	1.11102	1.2564	85.17	-0.2256	0.0229	0.2485	1166.0997	0.183653	-387.081756	-387.073483	-387.072539	-387.114154	32.954	
C	-0.0599419331	 1.5836073107	 0.0161322639	-0.480923
C	-0.026236477	 0.08093841	-0.0089232267	 0.341874
C	-1.13201167	-0.6663531336	-0.0873645616	-0.160988
C	-1.0993384309	-2.1536030097	-0.139772416	-0.104448
C	-1.5393444188	-2.8939958948	-1.3937438121	-0.317478
C	-0.0857364528	-2.8252350253	-1.0433804769	 0.107402
O	 0.6760263668	-2.0184887976	-1.8855261533	-0.2387
C	 1.7299031716	-1.3054986875	-1.2572547679	-0.058525
C	 1.3329299964	-0.5908751879	 0.0523487709	-0.336841
H	 0.506639739	 2.0059367267	-0.8244920992	 0.123121
H	-1.0821842702	 1.9676407633	-0.0385071128	 0.119929
H	 0.4053961692	 1.9761528159	 0.9298701888	 0.121052
H	-2.1084607146	-0.1847755509	-0.1128695561	 0.076464
H	-1.3229400399	-2.6664333283	 0.7955673472	 0.089824
H	-2.0605451184	-3.8382452653	-1.2828119146	 0.108479
H	-1.8454667753	-2.2927087513	-2.2423885688	 0.124158
H	 0.416966022	-3.7255247048	-0.6865331996	 0.077634
H	 2.5821272177	-1.973629744	-1.0544820374	 0.087275
H	 2.0534145664	-0.5756679927	-2.0063709099	 0.107987
H	 2.1191673832	 0.137237487	 0.2809335791	 0.096865
H	 1.3406059886	-1.3175765399	 0.872002413	 0.115838
132.2106	160.9966	204.0301	223.7329	296.9797	336.012	370.7325	400.1451	445.0553	514.612	634.072	702.0336	772.161	782.8424	816.5694	849.7721	863.1479	889.5986	965.8333	997.5604	1010.9687	1050.4265	1057.1628	1072.3146	1079.6615	1104.519	1122.3298	1138.7459	1172.7024	1194.7559	1221.2091	1272.4933	1277.4915	1326.4101	1365.53	1378.4405	1389.2484	1412.2903	1424.6847	1477.7723	1479.7648	1482.0881	1491.4531	1507.8992	1726.1256	2977.2887	3010.4457	3037.66	3054.8338	3063.8882	3083.0363	3083.8666	3100.8452	3109.4855	3131.8336	3137.4443	3229.0717
CC1=CC2CC2OCC1	CC1=C[C@H]2C[C@H]2OCC1	
InChI=1S/C8H12O/c1-6-2-3-9-8-5-7(8)4-6/h4,7-8H,2-3,5H2,1H3	InChI=1S/C8H12O/c1-6-2-3-9-8-5-7(8)4-6/h4,7-8H,2-3,5H2,1H3/t7-,8+/m0/s1
