19
gdb 30864	2.58412	1.27751	0.90587	2.2083	80.84	-0.1725	0.0578	0.2303	1313.1994	0.158672	-419.229203	-419.219159	-419.218215	-419.264385	35.866	
C	 0.2885990246	 0.9530710731	-0.5284410999	-0.245943
O	-0.2451092418	 0.268563417	 0.6048257166	-0.27169
C	-1.3107799905	-0.5314304316	 0.3367211289	 0.264187
C	-1.3768880021	-1.8682430246	 0.0368084168	 0.192554
C	-0.2132704574	-2.7975098504	-0.1208906594	-0.510197
C	-2.7727263682	-2.1778409014	-0.1020845241	-0.31243
C	-3.4918750722	-1.0297874999	 0.1257718907	 0.285331
N	-4.8747288011	-0.7589030591	 0.2094107165	-0.608029
N	-2.5951893946	-0.0163396751	 0.3782929276	-0.3334
H	 1.136158231	 1.5418416632	-0.1700911938	 0.126991
H	 0.6302116037	 0.2447299117	-1.2926953899	 0.121435
H	-0.4556615427	 1.6244617002	-0.9759692335	 0.111334
H	-0.3110455159	-3.6777751011	 0.5253688162	 0.120987
H	-0.1115948908	-3.1669026125	-1.1490379494	 0.116085
H	 0.7191522391	-2.2926092671	 0.1473877143	 0.123655
H	-3.190096145	-3.1408048037	-0.3585784008	 0.077057
H	-5.226162954	-0.2878258806	-0.6202669226	 0.240072
H	-5.3953665901	-1.6215516987	 0.3120736075	 0.244607
H	-2.843129242	 0.8753189608	 0.7721346384	 0.257395
57.082	129.7587	136.3379	144.8951	152.6171	204.3981	243.5262	276.807	308.9636	433.3042	449.8789	514.4118	594.0429	632.3749	650.2111	705.8071	766.6577	795.8285	837.0389	988.5862	1024.7281	1032.3295	1064.6539	1152.2954	1167.4552	1173.2809	1191.9319	1217.9175	1237.259	1322.0727	1410.2257	1441.9097	1458.0644	1483.7389	1487.9436	1490.4766	1500.7091	1504.3238	1581.5407	1646.7299	1668.2486	3006.8061	3018.0533	3063.6847	3070.9272	3106.6699	3123.7856	3232.4425	3480.3305	3591.7558	3674.2047
COC1=C(C)C=C(N)N1	COc1c(C)cc(N)[nH]1	
InChI=1S/C6H10N2O/c1-4-3-5(7)8-6(4)9-2/h3,8H,7H2,1-2H3	InChI=1S/C6H10N2O/c1-4-3-5(7)8-6(4)9-2/h3,8H,7H2,1-2H3
