19
gdb 59349	2.44152	1.21679	1.0973	1.8445	72.06	-0.2519	-0.0361	0.2158	1217.8915	0.156261	-460.164312	-460.154562	-460.153618	-460.199279	35.291	
C	 0.5237498483	 0.0582002642	-0.9030443848	-0.426934
C	 0.032502222	-0.1566038068	 0.5281728905	 0.125461
O	-0.2439739503	 1.0770284238	 1.1770807585	-0.430954
C	-1.2071500764	-1.0496337943	 0.6332163295	-0.010266
O	-2.3544005215	-0.498394333	-0.0674196802	-0.32939
C	-2.6237226498	-1.7210906917	-0.8077100932	 0.044417
C	-2.7181596599	-1.5428749812	-2.3105271356	-0.411291
C	-1.3423588246	-2.3245615755	-0.2100400313	 0.313435
O	-0.7102284229	-3.3239705366	-0.3703272041	-0.284393
H	 1.3824158267	 0.7335820388	-0.8958989941	 0.129521
H	 0.8280321733	-0.8870611364	-1.3643431488	 0.129451
H	-0.2640201619	 0.5082261573	-1.5154109983	 0.12386
H	 0.8242607626	-0.6305657724	 1.1200960905	 0.10429
H	-1.0141759219	 1.4552850988	 0.7352599813	 0.291093
H	-1.4371722823	-1.2141919325	 1.6951888918	 0.113067
H	-3.526091266	-2.2149221051	-0.4180669663	 0.110239
H	-1.808225171	-1.093829852	-2.7162075199	 0.132688
H	-2.8677875648	-2.5175442067	-2.7850697947	 0.139124
H	-3.5676113496	-0.9016924889	-2.5631285009	 0.136582
52.8393	89.2383	132.2942	194.211	198.0662	238.8925	263.7422	307.9552	375.3844	401.4291	423.3433	532.497	561.0951	615.528	727.5219	818.8773	847.2047	884.8593	920.2723	986.135	1025.1169	1042.9649	1062.6375	1090.9776	1122.0397	1132.6559	1159.8434	1236.2517	1275.411	1292.5663	1305.2156	1356.0822	1376.4491	1400.744	1403.6851	1419.6099	1481.0325	1491.4802	1495.3151	1501.898	1915.1253	3001.8183	3015.449	3039.5113	3046.312	3051.7	3111.9156	3119.8944	3127.5662	3130.5917	3787.3548
CC(O)C1OC(C)C1=O	C[C@@H](O)[C@H]1O[C@@H](C)C1=O	
InChI=1S/C6H10O3/c1-3(7)6-5(8)4(2)9-6/h3-4,6-7H,1-2H3	InChI=1S/C6H10O3/c1-3(7)6-5(8)4(2)9-6/h3-4,6-7H,1-2H3/t3-,4+,6-/m1/s1
