14
gdb 5414	5.18958	1.63332	1.25193	3.8485	65.51	-0.2551	-0.0505	0.2046	909.4625	0.109483	-378.772082	-378.765391	-378.764447	-378.80338	24.492	
O	 0.3920351252	 0.848613208	 0.8149417361	-0.427347
C	-0.0311733034	 0.1533826374	-0.3253217027	-0.116167
C	-1.4211411543	-0.4254939993	-0.1795945544	 0.33815
N	-2.0353992183	-0.2006812821	 0.9833975878	-0.301775
C	-3.2635388039	-0.7068724383	 1.1251143661	 0.014862
C	-3.8780964847	-1.4331636734	 0.1164091528	-0.139647
C	-3.144277539	-1.6065130226	-1.0551605101	 0.011873
N	-1.9193647776	-1.1098812315	-1.2150109695	-0.276941
H	-0.3409897884	 0.7860588056	 1.4460909672	 0.290876
H	-0.0304494637	 0.8098763468	-1.2095965843	 0.119087
H	 0.656260882	-0.6744002636	-0.559602888	 0.119144
H	-3.7599335908	-0.5211486687	 2.0746364748	 0.126766
H	-4.8735587863	-1.8431965119	 0.2328863801	 0.116928
H	-3.5543145069	-2.1643848966	-1.8943393058	 0.124192
65.1806	176.9731	235.9655	361.8852	414.184	451.8529	475.6623	639.9466	648.4544	764.2804	831.848	834.0343	998.2896	1012.2578	1012.6356	1046.1319	1090.9584	1115.7981	1128.5374	1242.6011	1244.0359	1280.309	1310.6649	1334.6306	1443.534	1464.057	1483.2939	1505.0063	1605.9581	1624.7732	2985.311	3001.0704	3155.7464	3160.8207	3214.1985	3696.409
OCC1=NC=CC=N1	OCc1ncccn1	
InChI=1S/C5H6N2O/c8-4-5-6-2-1-3-7-5/h1-3,8H,4H2	InChI=1S/C5H6N2O/c8-4-5-6-2-1-3-7-5/h1-3,8H,4H2
