23
gdb 57427	2.43955	1.22882	1.05207	0.7281	92.07	-0.2395	0.047	0.2865	1294.3231	0.202793	-351.118376	-351.107964	-351.10702	-351.152874	40.447	
C	-0.149394559	 1.5356442384	 0.2560140407	-0.431707
C	-0.0702180117	 0.0094231898	 0.0707622268	 0.238054
C	 0.5145652646	-0.6379731748	 1.3418285429	-0.401665
C	-1.4979994669	-0.5274887332	-0.1632096215	-0.40039
C	 0.7790421851	-0.4205883678	-1.132442177	 0.011819
C	 1.1054818738	 0.443020037	-2.3151257297	-0.318817
C	 2.2316625963	-0.0278686943	-1.4026321229	-0.211181
C	 2.9842649928	 0.8958133655	-0.6044461148	 0.340084
C	 3.6734668284	 1.6405155258	 0.0440625725	-0.468992
H	 0.8376480521	 1.9870141384	 0.3760821164	 0.134412
H	-0.6481751658	 2.0162466513	-0.5919386381	 0.107907
H	-0.7354053154	 1.766783149	 1.1520150424	 0.106174
H	-0.1185203519	-0.4291988883	 2.2113275866	 0.103995
H	 0.5826827198	-1.7262864334	 1.233008871	 0.102623
H	 1.5178145635	-0.255719471	 1.5498433144	 0.128889
H	-1.9267233513	-0.1222365542	-1.0860753861	 0.111618
H	-1.5052924255	-1.6204198003	-0.2403866679	 0.105947
H	-2.1572482817	-0.2475501649	 0.6654661361	 0.107878
H	 0.6049826626	-1.465694374	-1.3815090247	 0.085593
H	 1.0560632138	 0.020504186	-3.3127145114	 0.114374
H	 0.8591631811	 1.496457183	-2.2606149003	 0.128328
H	 2.840574421	-0.8361194807	-1.7994449293	 0.111283
H	 4.2682101543	 2.3044186528	 0.6206453736	 0.193772
65.3067	127.76	189.2391	217.1169	229.3262	258.3409	272.936	291.5097	322.5272	354.0187	387.9351	421.521	469.8761	533.4829	573.6001	630.078	644.4759	696.3887	767.4861	827.0773	865.19	929.9538	934.5336	948.1108	962.3582	1000.3996	1027.5546	1056.8275	1074.342	1090.1699	1130.376	1166.2361	1221.4692	1229.0956	1241.2129	1301.5587	1381.3292	1395.7732	1397.0998	1402.3932	1435.3428	1479.8512	1485.3766	1486.8862	1493.36	1506.0606	1506.6046	1522.4643	2227.837	3022.6688	3027.3618	3036.8323	3088.4233	3092.3899	3093.8247	3099.0337	3113.1289	3118.118	3132.1902	3135.5183	3141.4454	3230.9349	3504.2297
CC(C)(C)C1CC1C#C	CC(C)(C)[C@H]1C[C@H]1C#C	
InChI=1S/C9H14/c1-5-7-6-8(7)9(2,3)4/h1,7-8H,6H2,2-4H3	InChI=1S/C9H14/c1-5-7-6-8(7)9(2,3)4/h1,7-8H,6H2,2-4H3/t7-,8+/m1/s1
