14
gdb 24995	4.77972	1.27466	1.02428	4.2516	63.4	-0.2329	0.0178	0.2507	1078.1433	0.103623	-473.84793	-473.841101	-473.840157	-473.879507	25.48	
O	 0.0016542241	 0.0502421123	 0.0206211375	-0.350729
C	-0.0144800427	 1.2348984949	 0.0246239974	 0.45951
O	-1.151284493	 2.0244716328	 0.0508685517	-0.251293
C	-0.7024171506	 3.3251076461	 0.0832946062	 0.25663
C	 0.6174593282	 3.3431462348	 0.0648633893	 0.256629
C	 1.1705267702	 4.7137041577	-0.132693465	-0.288042
N	-0.0741769603	 5.5409928054	-0.0359624427	-0.30292
C	-1.2980268186	 4.6799659621	-0.0982210754	-0.288042
O	 1.1006156403	 2.0552473619	 0.0194222647	-0.251293
H	 1.9005708826	 5.032505887	 0.6188326124	 0.127482
H	 1.6449173072	 4.8267775952	-1.1172805034	 0.134166
H	-0.0679743022	 6.0054967998	 0.8628176794	 0.236254
H	-1.8026329963	 4.7796596824	-1.0691368298	 0.134166
H	-2.015243089	 4.9789877175	 0.6735154276	 0.127482
117.1896	137.19	248.9222	288.6777	320.8285	526.8067	591.8819	616.4009	730.3512	745.457	757.7043	770.0498	865.1491	892.4294	912.7549	938.9332	1024.8003	1048.9066	1060.9094	1179.622	1199.1857	1215.7118	1285.1795	1304.6941	1375.3613	1391.839	1467.4802	1513.3383	1518.9691	1786.4307	1947.9206	3008.8417	3009.4009	3061.0178	3062.0069	3563.0716
O=C1OC2=C(CNC2)O1	O=c1oc2c(CNC2)o1	
InChI=1S/C5H5NO3/c7-5-8-3-1-6-2-4(3)9-5/h6H,1-2H2	InChI=1S/C5H5NO3/c7-5-8-3-1-6-2-4(3)9-5/h6H,1-2H2
