20
gdb 90636	3.5802	1.09561	1.00169	2.0715	86.74	-0.2284	0.0439	0.2723	1280.3479	0.169008	-365.933818	-365.924636	-365.923692	-365.967099	35.557	
C	-0.0098157197	 1.5057951204	-0.0706652358	-0.416662
C	 0.0738321469	-0.0165281088	-0.0512191539	-0.009829
C	 1.221840823	-0.6173938791	-0.9074657074	-0.182459
N	 1.9774946582	-1.0907986454	 0.3084524044	-0.166487
C	 0.8224437846	-0.5914387135	 1.1540281846	-0.060003
C	 1.0951732614	-2.0543807758	 1.043524133	 0.104169
C	 0.1796082528	-3.0510198905	 0.3502291341	-0.483785
C	 1.7912207357	-2.6301857813	 2.1734785224	 0.272889
C	 2.3293337256	-3.1359438123	 3.1219337321	-0.399472
H	 0.9708606717	 1.9566040316	 0.1155997825	 0.126358
H	-0.3670607719	 1.8633186661	-1.0422208648	 0.118119
H	-0.6999316102	 1.8734277263	 0.6962744557	 0.119005
H	-0.9218405238	-0.4411444386	-0.2198284572	 0.075885
H	 0.9759399747	-1.4039122188	-1.6262022008	 0.104915
H	 1.819248579	 0.1443243652	-1.4144781801	 0.113588
H	 0.9901666159	-0.0644338824	 2.0894408985	 0.097433
H	-0.4481463481	-2.5953986194	-0.4158395312	 0.124706
H	 0.771523221	-3.8461225956	-0.1138090754	 0.136143
H	-0.4776519624	-3.5138370161	 1.0915297116	 0.135829
H	 2.8199951256	-3.576019072	 3.9543565076	 0.18966
119.0059	144.2654	158.2398	196.2843	249.8419	270.866	309.0547	346.2124	438.4188	455.2064	526.1923	548.5986	608.9994	646.4642	650.7934	723.3033	819.4977	842.6813	884.7098	925.6274	936.1314	970.6374	997.0618	1039.4247	1089.3511	1097.9888	1122.5323	1132.1623	1183.6989	1226.7321	1269.0056	1281.2094	1291.171	1344.9454	1390.4159	1411.1512	1415.9007	1483.9746	1494.9744	1496.7301	1500.9807	1511.818	2239.2717	3029.1616	3035.862	3050.8149	3057.1023	3097.9785	3101.6134	3108.1954	3113.3174	3147.2607	3148.8824	3504.0362
CC1CN2C1C2(C)C#C	C[C@H]1CN2[C@@H]1[C@]2(C)C#C	
InChI=1S/C8H11N/c1-4-8(3)7-6(2)5-9(7)8/h1,6-7H,5H2,2-3H3	InChI=1S/C8H11N/c1-4-8(3)7-6(2)5-9(7)8/h1,6-7H,5H2,2-3H3/t6-,7-,8-,9?/m0/s1
