14
gdb 25225	3.46453	1.63036	1.11646	2.8353	70.71	-0.234	-0.0127	0.2213	999.5671	0.103867	-436.717857	-436.71139	-436.710446	-436.748788	25.161	
N	 0.0066550689	 1.3274708611	 0.0111730588	-0.548894
C	-0.0592249415	 0.0666117031	 0.0039025255	 0.325787
O	 1.059708454	-0.7719517682	-0.0071130205	-0.272965
C	 0.696906206	-2.1665412797	-0.0135740791	-0.201305
C	-0.787863091	-2.0817348525	-0.0051605592	 0.300135
C	-1.2268530199	-0.8040633212	 0.0048778286	 0.181913
C	-2.6583603362	-0.8757418541	 0.0121352654	-0.372009
C	-2.9408983363	-2.2067431418	 0.0056565764	-0.007522
O	-1.7887068479	-2.9722816067	-0.005167417	-0.198092
H	 0.9801297325	 1.6359445124	 0.0078598431	 0.224844
H	 1.1153425411	-2.6438334656	-0.908403921	 0.14015
H	 1.1248031134	-2.6545503361	 0.8709430441	 0.140151
H	-3.3725592263	-0.0686231336	 0.0208218732	 0.139953
H	-3.8590486166	-2.7698860071	 0.0071963516	 0.147853
161.5082	197.3988	238.3263	305.4348	523.1553	598.0961	614.2532	625.4448	638.5024	740.5521	755.8362	777.2523	843.1821	871.3812	919.7536	954.2187	1017.5013	1031.1352	1041.3521	1086.2617	1152.2663	1176.9647	1214.6717	1294.1612	1324.3315	1422.9958	1491.8556	1505.9976	1525.7771	1639.0397	1782.5501	3022.2024	3055.2352	3269.1319	3293.5271	3480.8761
N=C1OCC2=C1C=CO2	[NH][C]1OCc2c1cco2	
InChI=1S/C6H5NO2/c7-6-4-1-2-8-5(4)3-9-6/h1-2,7H,3H2	InChI=1S/C6H5NO2/c7-6-4-1-2-8-5(4)3-9-6/h1-2,7H,3H2
