12
gdb 130504	4.11471	1.78096	1.24297	2.7471	68.58	-0.2724	-0.0876	0.1848	888.3171	0.081514	-431.6941	-431.688587	-431.687643	-431.723992	21.755	
O	-0.0335136764	 1.2929128376	 0.009239817	-0.228613
N	 1.2814336967	 1.8053690811	-0.0005485874	-0.099531
C	 2.1038018342	 0.793957459	-0.013814483	-0.055745
C	 1.3927458041	-0.4478201089	-0.013571466	 0.185535
C	 0.0498224747	-0.0467069608	 0.001336242	 0.487087
N	-0.9906736824	-0.859989012	 0.0069477234	-0.325168
C	-0.6249660885	-2.1444947437	-0.0033305912	-0.01878
C	 0.718037977	-2.5729247059	-0.0183860815	-0.040306
N	 1.7523024195	-1.7334544462	-0.0237939757	-0.323517
H	 3.1686996579	 0.9777695858	-0.0230008245	 0.15812
H	-1.4258846316	-2.8782596598	 0.000417084	 0.133943
H	 0.9438522148	-3.6349745962	-0.0261594572	 0.126975
238.3578	249.6287	459.1271	460.0844	558.8457	601.0998	634.2424	664.0874	774.9573	836.609	882.7959	885.1608	916.9148	922.6122	946.6716	988.6968	1069.7622	1195.6353	1231.4799	1274.8455	1342.5934	1365.6084	1395.6028	1503.8764	1545.3794	1602.1722	1625.2601	3170.6351	3187.7901	3249.9081
O1N=CC2=C1N=CC=N2	o1ncc2c1nccn2	
InChI=1S/C5H3N3O/c1-2-7-5-4(6-1)3-8-9-5/h1-3H	InChI=1S/C5H3N3O/c1-2-7-5-4(6-1)3-8-9-5/h1-3H
