15
gdb 74312	2.82609	1.36223	1.03235	4.686	68.33	-0.2494	-0.0358	0.2136	1139.386	0.111413	-454.006764	-453.998192	-453.997248	-454.04113	30.039	
C	-0.2190785273	 1.5330334515	-0.0264210892	-0.489185
C	-0.0919724485	 0.047313819	-0.0620455087	 0.3793
N	-0.2318501977	-0.6770352097	-1.1122458407	-0.297906
C	 0.0014577051	-2.0617221995	-0.6891822672	-0.22695
C	 1.1669123255	-2.6323198122	-1.5076156794	 0.159502
O	 2.1197393597	-3.1989333583	-1.0522167834	-0.216042
C	 0.2496722397	-2.0267204083	 0.8262639921	 0.434894
O	 0.437168791	-2.9176061157	 1.6100747208	-0.345673
N	 0.1915200662	-0.6616978847	 1.1036564648	-0.375291
H	 0.7078628921	 1.9934820012	 0.3326298851	 0.147689
H	-0.4370281217	 1.8990888001	-1.0294780313	 0.16444
H	-1.0235892402	 1.8383796524	 0.6515991903	 0.146488
H	-0.8773866506	-2.6837247147	-0.9105697237	 0.143381
H	 1.0451678958	-2.444989286	-2.5951180734	 0.10588
H	 0.333795531	-0.2736608751	 2.0224487538	 0.269474
31.4017	123.1726	152.2207	162.2715	173.0512	297.777	367.58	456.4462	498.6271	547.8807	616.8415	646.6053	701.6138	759.5206	800.9003	973.4322	985.5787	992.6626	1049.5829	1065.9217	1078.2068	1175.6121	1223.1412	1254.0596	1265.3161	1399.5347	1410.5779	1437.9482	1478.8569	1480.3726	1695.5234	1829.7146	1880.8486	2917.6876	3023.5592	3041.2562	3097.6518	3161.1372	3650.4235
CC1=NC(C=O)C(=O)N1	CC1=N[C@@H](C=O)C(=O)N1	
InChI=1S/C5H6N2O2/c1-3-6-4(2-8)5(9)7-3/h2,4H,1H3,(H,6,7,9)	InChI=1S/C5H6N2O2/c1-3-6-4(2-8)5(9)7-3/h2,4H,1H3,(H,6,7,9)/t4-/m0/s1
