16
gdb 49723	2.79184	1.3708	1.03979	11.8534	78.99	-0.1846	-0.0234	0.1612	1131.83	0.125017	-437.823164	-437.815332	-437.814387	-437.856098	28.844	
O	-0.1908460505	-0.0424056681	 0.0715460068	-0.312203
C	-0.0350131641	 1.1673051336	 0.0283996994	 0.015588
C	 1.2020581283	 1.8813584329	-0.0613019329	 0.050849
C	 1.4534903017	 3.3745187102	-0.0679158655	-0.1519
C	 1.6880149521	 4.0246830857	 1.3378587136	-0.192604
N	 3.1521546588	 3.5737584108	 1.322588729	-0.281379
H	 3.8212043178	 4.3286228883	 1.4620615257	 0.297515
H	 3.382006729	 2.8062649761	 1.9564084127	 0.315471
C	 2.964698962	 3.0472058585	-0.1395357889	-0.141561
C	 2.5817320193	 1.5213468974	-0.0699007449	 0.274889
O	 3.3225003657	 0.5624213257	 0.0363240117	-0.385818
H	-0.9271539168	 1.8487899945	 0.0539620871	 0.011456
H	 0.9656613555	 4.0303363622	-0.7909212969	 0.092179
H	 1.6726323008	 5.1166605058	 1.3719524433	 0.135997
H	 1.1469256439	 3.6017667164	 2.1837229409	 0.159585
H	 3.7030866465	 3.47339509	-0.8168371811	 0.111937
75.8049	133.7678	153.694	199.0826	245.4229	391.1283	441.2735	499.3151	668.1444	673.0874	727.9793	759.7423	809.9479	837.0983	886.8985	902.3519	916.4712	949.1959	1008.3787	1020.6356	1070.7512	1116.7567	1156.6976	1201.9313	1208.9177	1256.2572	1273.0125	1284.1606	1315.2952	1397.8444	1455.4992	1481.2574	1624.5442	1736.5695	1810.1667	2760.9686	3074.4404	3090.8227	3138.0354	3158.3816	3439.6662	3524.7867
O=C[C-]1C2C[NH2+]C2C1=O	O=C[C]1[C@H]2C[NH2][C@H]2C1=O	
InChI=1S/C6H6NO2/c8-2-4-3-1-7-5(3)6(4)9/h2-3,5,7H,1H2/q-1/p+1	InChI=1S/C6H7NO2/c8-2-4-3-1-7-5(3)6(4)9/h2-3,5H,1,7H2/t3-,5-/m1/s1
