15
gdb 62345	3.86995	1.14207	1.09137	2.6809	71.37	-0.2678	-0.0303	0.2375	1108.8127	0.112378	-416.812591	-416.804572	-416.803628	-416.845114	29.883	
C	 0.0345434306	 1.5174920002	 0.0688521793	-0.468992
C	 0.0771209282	-0.0017965422	 0.047766873	 0.120024
C	-1.1126455517	-0.6122616046	-0.5043101828	 0.243767
N	-2.061107193	-1.092521055	-0.9601973765	-0.32695
C	 1.3381813282	-0.8246888379	-0.1963077174	-0.034107
N	 2.525812207	-0.1948311424	 0.3637435796	-0.34144
C	 1.9652979772	-0.1312948837	 1.6546286973	 0.410173
O	 2.3616619527	 0.3378058186	 2.6792859511	-0.324776
C	 0.7055146944	-0.8591318741	 1.1756308908	-0.256313
H	 0.9669877277	 1.9329910751	 0.4547076816	 0.14077
H	-0.1304491321	 1.9075513023	-0.9394573886	 0.143969
H	-0.7807099384	 1.8658962327	 0.7082231571	 0.153986
H	 1.4060344682	-1.6099762118	-0.9366161978	 0.141499
H	 3.0516411886	 0.5554906529	-0.0692573987	 0.253696
H	 0.1549969125	-1.64435854	 1.6722918922	 0.144695
126.1101	136.76	174.1449	180.3556	275.729	345.1493	433.3938	464.0474	550.9287	575.3904	590.5729	655.798	725.4691	770.5453	848.0444	869.5383	932.5042	958.2212	1019.0156	1034.607	1069.7745	1104.6896	1129.6815	1166.1059	1250.7742	1277.2427	1319.4711	1352.8773	1421.0327	1484.247	1497.0127	1908.1607	2349.813	3053.8158	3123.3419	3140.6501	3216.213	3238.4151	3558.6972
CC1(C#N)C2NC(=O)C12	C[C@@]1(C#N)[C@H]2NC(=O)[C@@H]12	
InChI=1S/C6H6N2O/c1-6(2-7)3-4(6)8-5(3)9/h3-4H,1H3,(H,8,9)	InChI=1S/C6H6N2O/c1-6(2-7)3-4(6)8-5(3)9/h3-4H,1H3,(H,8,9)/t3-,4-,6-/m0/s1
