20
gdb 116572	3.36385	1.01237	0.89364	2.0939	83.81	-0.2458	0.0255	0.2713	1410.4314	0.16946	-403.125272	-403.115879	-403.114935	-403.160236	34.377	
C	-0.5595624565	-0.056903609	 0.798039698	-0.359079
C	 0.3795618082	 0.5408819797	-0.2514369668	-0.151937
N	 0.8184070604	-0.4924042745	-1.1864448066	-0.351556
C	 2.0365704972	-0.7417095589	-1.3036467766	 0.444826
O	 3.153570536	-0.1422311571	-0.6947726387	-0.292862
C	 4.0254062438	-0.9271117865	-1.5467163715	 0.058228
C	 3.8490138234	-2.3703447022	-1.2336092956	-0.334049
C	 2.8514210088	-1.6593884574	-2.1617462992	 0.1445
C	 2.5096225251	-2.1063207558	-3.5511703948	-0.489617
H	-1.4031835627	-0.5597856583	 0.3167277735	 0.124423
H	-0.0348061001	-0.79287614	 1.4151676786	 0.116862
H	-0.9486850444	 0.7263421342	 1.456345699	 0.108737
H	-0.1651508179	 1.2964777601	-0.831305596	 0.105275
H	 1.2213182752	 1.0477074604	 0.2375317189	 0.111429
H	 4.8844292162	-0.4279815703	-1.9741400426	 0.121408
H	 4.5117136298	-3.0567130132	-1.753389956	 0.122291
H	 3.5665761436	-2.6687540112	-0.2286036665	 0.128204
H	 1.715006968	-2.8592232165	-3.5312946217	 0.139792
H	 2.1585494485	-1.2670993352	-4.1591761371	 0.133631
H	 3.3790778572	-2.5499876484	-4.0456006283	 0.119495
34.6631	103.3036	144.2913	163.9337	194.963	247.3553	284.9908	315.5489	432.4076	462.7	508.4206	644.7732	710.3708	744.1498	816.6473	832.6701	855.5584	888.1541	925.9453	954.0733	986.0045	1025.9354	1057.5344	1061.5943	1077.4114	1107.612	1108.6234	1126.6926	1175.5083	1259.6027	1285.7631	1305.5499	1378.1339	1395.3673	1405.3504	1426.9495	1481.0937	1486.6075	1488.9695	1495.011	1499.0754	1512.7896	1846.6328	3014.0676	3037.6643	3038.2045	3050.7179	3103.0879	3109.4467	3111.1733	3118.2424	3119.0085	3208.4319	3215.5774
CCN=C1OC2CC12C	CCN=C1O[C@H]2C[C@@]12C	
InChI=1S/C7H11NO/c1-3-8-6-7(2)4-5(7)9-6/h5H,3-4H2,1-2H3	InChI=1S/C7H11NO/c1-3-8-6-7(2)4-5(7)9-6/h5H,3-4H2,1-2H3/t5-,7+/m0/s1
