23
gdb 109944	2.39374	1.28739	0.95746	1.4369	86.29	-0.2491	0.0699	0.319	1331.8	0.204805	-388.267169	-388.257403	-388.256458	-388.301636	37.381	
C	-0.0353285661	 1.594668404	-0.0159501887	-0.388809
C	-0.0745005564	 0.0648912006	-0.1003931598	-0.164416
C	 0.7304780885	-0.4979720288	-1.2751770083	-0.108121
C	 2.2712651864	-0.61202567	-1.0482420482	 0.137677
O	 2.7689240247	 0.1807584332	 0.0075730545	-0.427422
C	 2.1217319243	-2.1421076777	-0.8087164104	-0.352058
C	 0.7150859921	-2.0354970534	-1.4080836333	 0.386129
C	-0.4377865707	-2.9792600886	-1.2472065188	-0.32879
C	 0.2205162426	-2.805944816	-2.5982162846	-0.326024
H	 0.9892839749	 1.9479956866	 0.1198120019	 0.138266
H	-0.4338303376	 2.0489953348	-0.9307758515	 0.103044
H	-0.6377612168	 1.957982549	 0.8230482025	 0.102964
H	 0.2920635112	-0.3663459902	 0.8377433113	 0.100844
H	-1.1145196073	-0.2694530664	-0.2071854796	 0.085766
H	 0.4578809937	 0.0400695326	-2.190487031	 0.061005
H	 2.8168389703	-0.4103784967	-1.9804348895	 0.066931
H	 3.7029530678	-0.0211382723	 0.1205826772	 0.28335
H	 2.837757183	-2.8027385035	-1.3064552206	 0.091212
H	 2.1087008887	-2.3660153888	 0.2631344662	 0.102476
H	-0.2676179619	-3.9060212452	-0.707979975	 0.108655
H	-1.430234024	-2.562338516	-1.1076722524	 0.111689
H	-0.328155092	-2.2682519267	-3.3657028358	 0.108839
H	 0.8350388246	-3.6175541605	-2.9760193861	 0.106791
60.6839	122.4586	153.6129	201.2134	229.8462	249.6524	264.2999	299.0518	335.2366	403.6037	459.891	485.7255	602.9671	744.2904	764.5768	776.1456	835.0644	866.4848	900.543	921.021	926.3983	970.3615	994.9315	1018.5082	1050.9638	1069.5351	1075.1915	1079.0077	1118.2546	1143.9404	1175.6161	1187.2466	1218.8865	1231.4476	1246.5422	1254.5669	1289.8019	1329.7077	1336.6472	1373.9135	1390.4757	1405.092	1421.2993	1464.0669	1478.1838	1485.8703	1497.3897	1503.8104	1514.4049	2996.0288	3022.0299	3030.4226	3032.9419	3040.7384	3067.6118	3093.3495	3095.2659	3116.3907	3122.5072	3130.6849	3194.1292	3209.5873	3818.678
CCC1C(O)CC11CC1	CC[C@H]1[C@@H](O)CC21CC2	
InChI=1S/C8H14O/c1-2-6-7(9)5-8(6)3-4-8/h6-7,9H,2-5H2,1H3	InChI=1S/C8H14O/c1-2-6-7(9)5-8(6)3-4-8/h6-7,9H,2-5H2,1H3/t6-,7-/m0/s1
