19
gdb 98588	2.99262	1.03431	0.99815	3.4416	73.96	-0.2384	-0.0318	0.2066	1311.3316	0.156718	-460.166603	-460.157011	-460.156067	-460.201587	35.386	
C	-0.0256867132	 1.5450511504	 0.0548787669	-0.379206
C	 0.0293444204	 0.0208324516	 0.1113135282	-0.286524
C	 0.8104736725	-0.5265810161	 1.2901890477	 0.441067
O	 1.3419663982	 0.2342346883	 2.1084003539	-0.415343
C	 0.9172317574	-1.9754598343	 1.4322896164	-0.294567
C	 2.238718176	-2.5147364208	 2.0858555051	 0.089855
O	 3.2959681449	-1.6677317298	 2.3327793118	-0.417553
C	 1.0022394015	-2.5263178453	 2.8998348311	 0.089869
O	 0.800009209	-1.6911431703	 3.9758143254	-0.417561
H	 0.9784370382	 1.9710670731	-0.0116515258	 0.134038
H	-0.6001306491	 1.8746948193	-0.8149910419	 0.114033
H	-0.4937385981	 1.9536999602	 0.9538502996	 0.133934
H	-0.9791326221	-0.4135098807	 0.1544659934	 0.131308
H	 0.47696688	-0.3960956478	-0.801609413	 0.131418
H	 0.4291456889	-2.5874880327	 0.6823807094	 0.098105
H	 2.5824589801	-3.4574839129	 1.6712663113	 0.121535
H	 2.9351657347	-0.7799558633	 2.4927079432	 0.30202
H	 0.4979653184	-3.4770374771	 3.0435586888	 0.121542
H	 1.0776042623	-0.7972975817	 3.7152331386	 0.302031
43.0239	77.0051	164.6831	182.3112	207.1706	217.0594	315.1083	359.9517	387.7826	435.903	487.9719	611.2399	626.086	650.8591	687.8734	690.8833	770.9216	820.8411	873.1699	947.9866	973.6439	1010.9379	1047.8425	1076.4661	1092.626	1100.8888	1145.9345	1147.8775	1245.3771	1276.7273	1340.5663	1344.9373	1368.1774	1414.3143	1415.4205	1424.1681	1448.4379	1493.3017	1497.8762	1498.9169	1683.5868	3018.2837	3044.6167	3053.6639	3125.352	3129.4649	3157.3903	3163.938	3176.9515	3646.8016	3669.0979
CCC(=O)C1C(O)C1O	CCC(=O)[C@H]1[C@@H](O)[C@H]1O	
InChI=1S/C6H10O3/c1-2-3(7)4-5(8)6(4)9/h4-6,8-9H,2H2,1H3	InChI=1S/C6H10O3/c1-2-3(7)4-5(8)6(4)9/h4-6,8-9H,2H2,1H3/t4-,5+,6-
