19
gdb 64814	3.62135	1.02976	0.98407	3.8783	76.32	-0.2465	0.0335	0.28	1265.8544	0.158965	-419.202501	-419.19358	-419.192636	-419.236911	33.518	
C	 0.0278294578	 1.5899066644	 0.1637508392	-0.468667
C	-0.0040192223	 0.066026167	 0.0670780995	 0.311903
C	 0.8500176527	-0.5319406924	-1.1070232009	-0.444462
C	 1.7420648331	-1.1534860157	-0.0071537255	 0.43603
O	 2.7191271724	-1.8507877746	 0.0273035042	-0.359546
N	 0.9641479564	-0.5877259874	 0.9745164996	-0.346236
C	-1.3808576086	-0.569415058	 0.1784528566	-0.009301
C	-2.5028640786	 0.0261785431	 0.9486861691	-0.256737
N	-2.5615798234	-0.0464143181	-0.5226617916	-0.322849
H	 1.0509655147	 1.9471400299	 0.0223652639	 0.133064
H	-0.596833663	 2.0608975967	-0.6023242803	 0.123329
H	-0.3135384563	 1.9381071343	 1.1432950422	 0.125692
H	 0.3326600235	-1.263330558	-1.7302262435	 0.138365
H	 1.3545459761	 0.2012544105	-1.7387149764	 0.128093
H	 0.9922564313	-0.6667127765	 1.9812911408	 0.246772
H	-1.3230412131	-1.6566364563	 0.1476458766	 0.097222
H	-3.2035594468	-0.622098994	 1.4671636402	 0.124269
H	-2.3610079775	 0.9971358143	 1.4139868895	 0.112811
H	-2.3638281982	 0.8693670707	-0.9181028932	 0.230247
39.0246	58.2969	197.8878	233.7372	267.9447	334.221	363.5805	367.4402	427.7392	436.1414	542.8745	561.5429	648.4967	765.9641	823.826	871.3859	888.6818	925.1851	944.152	957.9642	974.1332	1005.0834	1068.1046	1097.1075	1110.2262	1148.2664	1164.7904	1181.2493	1193.3216	1252.0921	1257.27	1285.8079	1312.2091	1364.0436	1405.2423	1425.2042	1459.3902	1488.187	1494.0451	1513.8469	1896.905	3037.9071	3085.6443	3103.4504	3113.4194	3117.7346	3119.3843	3145.5296	3198.6964	3504.1802	3598.8059
CC1(CC(=O)N1)C1CN1	C[C@]1(CC(=O)N1)[C@H]1CN1	
InChI=1S/C6H10N2O/c1-6(4-3-7-4)2-5(9)8-6/h4,7H,2-3H2,1H3,(H,8,9)	InChI=1S/C6H10N2O/c1-6(4-3-7-4)2-5(9)8-6/h4,7H,2-3H2,1H3,(H,8,9)/t4-,6+/m1/s1
