18
gdb 39524	3.01234	1.95531	1.54395	3.3513	74.52	-0.2398	0.0012	0.241	899.7046	0.151308	-401.925369	-401.918897	-401.917953	-401.955904	27.049	
C	-0.158925408	 1.4221726796	 0.0035397841	-0.18541
N	 1.1898539217	 1.9679850999	 0.237264585	-0.234853
C	 2.0179921795	 1.0603075561	-0.092406739	 0.325551
O	 3.2741921954	 1.0032221535	 0.4144990042	-0.268945
C	 3.2736143786	-0.0949334314	 1.3869007534	-0.060424
C	 1.8435201457	-0.5000044898	 1.8324964912	-0.263093
C	 1.0203248704	-0.9205045137	 0.5987543918	-0.045106
C	 0.0343505714	-0.0759272673	-0.2429867971	-0.077615
C	 1.4619406385	-0.219062725	-0.6610157492	-0.172941
H	-0.7603460111	 1.6451642114	 0.8926288171	 0.115941
H	-0.6599370705	 1.8999852641	-0.8493317491	 0.111716
H	 3.7747210045	-0.9573147733	 0.9298239097	 0.109402
H	 3.8746425049	 0.255244538	 2.2298445387	 0.122603
H	 1.9384921597	-1.3386781648	 2.5296993557	 0.104633
H	 1.3806321211	 0.3215602408	 2.3848157553	 0.134521
H	 0.8230437048	-1.9857517366	 0.5170882747	 0.093705
H	-0.7534742777	-0.6381860726	-0.731162219	 0.090949
H	 1.872807691	-0.7013956289	-1.5390084674	 0.099366
155.1867	257.1977	295.5194	419.2016	462.1099	489.3088	541.6869	637.478	731.069	756.6504	775.4751	804.485	841.5755	854.2187	931.708	957.8834	970.7831	982.586	1011.5685	1024.0941	1048.5575	1061.5469	1087.5728	1103.3551	1157.488	1192.4123	1220.6326	1232.6791	1249.5476	1309.3709	1322.7449	1341.2957	1352.4601	1390.1579	1410.0282	1480.8773	1489.1656	1503.7685	1688.9289	3017.0321	3026.811	3056.6756	3058.3072	3096.6881	3106.6102	3144.4869	3177.6538	3189.7114
C1N=C2OCCC3C1C23	C1[N][C]2OCC[C@H]3[C@@H]1[C@@H]23	
InChI=1S/C7H9NO/c1-2-9-7-6-4(1)5(6)3-8-7/h4-6H,1-3H2	InChI=1S/C7H9NO/c1-2-9-7-6-4(1)5(6)3-8-7/h4-6H,1-3H2/t4-,5+,6-/m0/s1
