18
gdb 66141	3.08803	1.33654	1.23831	1.4937	71.38	-0.2399	-0.0418	0.1981	1068.6704	0.147732	-439.071804	-439.063794	-439.06285	-439.10429	31.077	
O	 0.1083700451	 1.5368979973	-0.4356006706	-0.481468
C	-0.0394549217	 0.2101185952	-0.0077581916	 0.32465
C	 0.4160334955	-0.0008220947	 1.4709376535	-0.319267
C	-0.5449174618	-1.0654804127	 2.0341766669	-0.161231
N	-1.7877657098	-1.0425220482	 1.2319743032	-0.093828
C	-2.3580033169	 0.3033755283	 1.0859050945	-0.256007
C	-1.4987843076	-0.2618192254	 0.0170225829	-0.067349
C	 0.7625911061	-0.7021577258	-0.9212241411	 0.109568
O	 1.4115224803	-0.275194501	-1.8451129585	-0.275019
H	 0.69835266	 1.5027893441	-1.2056111268	 0.292562
H	 1.465523194	-0.2975073674	 1.5516828861	 0.114176
H	 0.319385874	 0.9668027486	 1.9681247799	 0.134298
H	-0.1180259414	-2.0696412365	 1.9367045595	 0.111371
H	-0.7777265738	-0.9115879386	 3.092392105	 0.115578
H	-3.4340995911	 0.3244769457	 0.9447437339	 0.122954
H	-1.9647437313	 1.117106602	 1.6891820323	 0.123283
H	-1.9417769238	-0.6102506497	-0.9120768279	 0.097433
H	 0.7255132341	-1.7854848311	-0.6867131709	 0.108294
97.8818	115.1744	220.4945	296.7537	314.699	362.2305	377.9762	432.5671	489.5725	515.7155	654.4292	691.0004	779.5213	817.7839	833.0594	874.5994	923.3104	958.1056	976.7827	1002.3985	1010.9399	1089.0153	1094.3302	1106.5	1148.3303	1157.2097	1195.0354	1233.7107	1249.0973	1272.0121	1309.4465	1340.5475	1365.9006	1391.3994	1444.7463	1485.5939	1500.739	1517.4995	1812.8578	2932.1644	3042.497	3067.2762	3084.4122	3113.271	3118.1904	3143.4863	3201.4931	3684.9557
OC1(CCN2CC12)C=O	O[C@]1(CCN2C[C@@H]12)C=O	
InChI=1S/C6H9NO2/c8-4-6(9)1-2-7-3-5(6)7/h4-5,9H,1-3H2	InChI=1S/C6H9NO2/c8-4-6(9)1-2-7-3-5(6)7/h4-5,9H,1-3H2/t5-,6+,7?/m0/s1
