15
gdb 26785	3.66106	1.1158	0.85975	1.5448	83.44	-0.1969	-0.0184	0.1786	1279.6588	0.11026	-420.627445	-420.618474	-420.61753	-420.661141	32.507	
C	 0.165918995	 1.463342347	 0.0959778112	-0.510078
C	-0.0256988278	-0.0043679316	 0.0064204137	 0.241124
C	-1.1356530187	-0.7848800917	-0.1682446144	 0.270502
O	-2.3986877109	-0.2931297233	-0.3044043016	-0.447805
C	-0.7027612604	-2.1418204086	-0.175723634	-0.45908
C	 0.6568192888	-2.1053836222	-0.0035655095	 0.247151
O	 1.0726996526	-0.8088073359	 0.1076101936	-0.210558
C	 1.6224378942	-3.1217230805	 0.0715198189	 0.247585
C	 2.4424388663	-4.00274843	 0.1341752779	-0.416516
H	 0.8248848317	 1.8358537885	-0.6970008445	 0.139064
H	-0.8033825795	 1.9569768537	-0.0024865698	 0.148663
H	 0.6069036843	 1.7577754242	 1.0554921678	 0.139042
H	-3.0095498715	-1.0272516476	-0.4125540308	 0.302135
H	-1.3042319077	-3.0302390947	-0.2915788673	 0.115548
H	 3.1654268836	-4.7782033474	 0.1903756787	 0.193224
95.9998	122.4606	141.091	165.356	222.3587	246.5764	333.4072	400.5328	460.8532	522.6671	530.9178	575.3342	644.2122	661.831	677.5415	688.1072	788.127	794.6489	968.5899	1017.8382	1061.8276	1104.6431	1170.9734	1246.486	1284.4644	1307.9069	1411.2358	1466.313	1473.9813	1491.2299	1558.8963	1696.0478	2226.8636	3026.3662	3074.8858	3132.3218	3252.0832	3503.5339	3849.8733
CC1=C(O)C=C(O1)C#C	Cc1c(O)cc(o1)C#C	
InChI=1S/C7H6O2/c1-3-6-4-7(8)5(2)9-6/h1,4,8H,2H3	InChI=1S/C7H6O2/c1-3-6-4-7(8)5(2)9-6/h1,4,8H,2H3
