19
gdb 98528	3.77188	1.07105	0.9599	3.4144	77.35	-0.2229	0.0199	0.2428	1285.0185	0.160222	-419.153743	-419.144934	-419.14399	-419.188772	31.939	
C	-0.1777875285	 1.4554113206	-0.130570235	-0.336485
N	-0.1753614117	 0.0156466679	-0.3008698938	-0.324348
C	 0.9125715811	-0.6709877207	-0.7525141124	 0.251761
O	 1.9736806014	-0.1465681961	-1.0464706004	-0.386545
C	 0.7184031902	-2.1635959374	-0.8761589762	 0.241017
C	-0.4463735105	-3.1125143335	-0.4930217241	-0.244067
N	 0.5824620082	-4.0929429206	-1.082507634	-0.149601
C	 0.7865501408	-3.0173471607	-2.1659004004	-0.189952
C	 1.6180170213	-3.2740161071	-0.2864440946	-0.189222
H	-0.3836886164	 1.7336908064	 0.9088850865	 0.126786
H	 0.8148956585	 1.8134834499	-0.4066142742	 0.173582
H	-0.9232103426	 1.9338155523	-0.7757161194	 0.126805
H	-1.010563509	-0.5028363252	-0.0853276373	 0.250078
H	-0.6473235063	-3.2819785958	 0.5688570439	 0.105019
H	-1.3729961723	-3.0595099338	-1.0727398684	 0.102315
H	-0.0450848006	-2.9444317338	-2.8720678762	 0.102483
H	 1.7478404953	-3.0846194672	-2.6789406049	 0.118445
H	 2.6365256461	-3.3590768519	-0.6695711953	 0.118624
H	 1.5753932249	-3.4464997034	 0.7923272362	 0.103307
23.1751	86.006	116.7695	138.7848	238.9183	302.036	363.8331	449.1332	470.2813	581.3469	604.799	719.4525	786.0748	800.3031	806.7615	881.6382	932.1736	979.2557	995.1643	1004.5443	1023.8068	1041.2435	1140.6924	1151.8576	1156.1073	1165.9295	1169.4435	1175.3361	1195.5958	1201.4514	1204.8842	1289.8427	1333.3465	1437.5865	1492.1102	1500.0249	1512.2204	1512.6473	1560.2505	1565.3896	1772.4946	3027.9959	3041.6967	3056.7571	3063.2583	3080.5462	3108.8783	3130.875	3135.6939	3151.8637	3649.165
CNC(=O)C12CN(C1)C2	CNC(=O)[C@@]12CN(C1)C2	
InChI=1S/C6H10N2O/c1-7-5(9)6-2-8(3-6)4-6/h2-4H2,1H3,(H,7,9)	InChI=1S/C6H10N2O/c1-7-5(9)6-2-8(3-6)4-6/h2-4H2,1H3,(H,7,9)
