21
gdb 112694	2.91657	1.00985	0.80963	2.0266	81.77	-0.2352	0.0229	0.258	1451.6966	0.181664	-424.237611	-424.227736	-424.226792	-424.27261	36.476	
C	-0.1274062258	 1.5458442897	 0.0806476652	-0.485166
C	-0.0288950054	 0.0554310911	-0.002976657	 0.264317
C	 0.0001145569	-0.7118873071	-1.0941768503	-0.173399
C	 0.0447780952	-2.1896264449	-0.7810459396	-0.016011
C	 1.0598847496	-2.9707624681	-1.6121385085	-0.083348
O	 0.6488064651	-2.9155750311	-2.9703103783	-0.422421
C	 0.3444075349	-2.2097162612	 0.7371895252	-0.278317
C	 0.0037078978	-0.791292512	 1.2584496777	 0.059151
O	 0.8926909095	-0.3086857602	 2.2612446574	-0.431985
H	 0.6628636777	 1.9557096215	 0.7190376669	 0.126652
H	-0.0611895226	 2.0127842603	-0.9054810372	 0.119832
H	-1.0776722927	 1.8495327876	 0.5393396941	 0.126704
H	-0.0417126936	-0.3518829029	-2.1163824357	 0.099745
H	-0.9376308201	-2.6392437854	-0.9855950659	 0.088069
H	 2.0595075742	-2.5251658176	-1.4779643846	 0.078936
H	 1.1097418366	-4.0115154846	-1.2521199657	 0.085064
H	 1.3059524531	-3.3704804636	-3.5046603628	 0.287107
H	-0.1866894959	-2.9992852431	 1.2739604719	 0.103702
H	 1.4172066297	-2.3782820836	 0.9013260994	 0.089335
H	-0.9763546903	-0.7735874053	 1.7541685077	 0.090028
H	 1.7742695461	-0.2817174694	 1.87179942	 0.272004
53.6287	109.77	139.7202	166.7418	210.4239	248.1203	260.3231	325.0573	348.7319	370.9514	440.3436	489.1394	568.5665	620.4879	644.5491	803.5364	872.8354	878.0828	925.4921	987.6703	1002.7425	1019.005	1063.9134	1074.3833	1078.2901	1088.9461	1118.3155	1150.5425	1209.6929	1239.217	1249.1711	1269.063	1273.3306	1311.3871	1325.8865	1338.2485	1371.0781	1410.9636	1425.5093	1452.2594	1475.0828	1486.18	1489.1057	1518.9752	1721.9602	2956.1001	2983.0967	3005.536	3015.0321	3021.9481	3025.3598	3074.1077	3100.0028	3116.0989	3194.4363	3789.981	3832.3137
CC1=CC(CO)CC1O	CC1=C[C@@H](CO)C[C@H]1O	
InChI=1S/C7H12O2/c1-5-2-6(4-8)3-7(5)9/h2,6-9H,3-4H2,1H3	InChI=1S/C7H12O2/c1-5-2-6(4-8)3-7(5)9/h2,6-9H,3-4H2,1H3/t6-,7-/m1/s1
