16
gdb 17296	3.29054	2.47427	1.93742	2.8488	63.28	-0.2413	0.0588	0.3002	749.5683	0.129989	-383.669161	-383.662558	-383.661614	-383.699486	26.171	
C	-0.0734598559	 1.5217967741	 0.0041692759	-0.485328
C	 0.036746846	 0.0228690589	 0.0640323186	 0.438639
O	-1.2131151046	-0.6608502811	 0.275170087	-0.32064
C	-0.6491938638	-1.4679028642	 1.3418184185	-0.08887
C	 0.7335458826	-0.8007137582	 1.1823999963	-0.188811
C	 1.66336563	-1.4072273732	 0.1030523755	 0.014043
O	 0.8443326215	-2.0714762017	-0.8590573762	-0.223885
C	 0.9895466991	-0.657221198	-0.9773653521	-0.038103
H	 0.9149150037	 1.9811846986	-0.1041795352	 0.120918
H	-0.6823109962	 1.817935389	-0.8576614717	 0.134328
H	-0.5468015262	 1.914636994	 0.9081299568	 0.128352
H	-1.1452862991	-1.258463278	 2.2964651685	 0.09867
H	-0.6987204711	-2.5364487034	 1.1163100354	 0.117176
H	 1.2096016384	-0.331296984	 2.0415427691	 0.085751
H	 2.6886635026	-1.7445658953	 0.201881859	 0.107023
H	 1.350106473	-0.2744328275	-1.9270866654	 0.100738
205.759	211.5602	254.162	296.428	337.3001	472.4105	564.3125	651.8526	726.9254	808.1543	821.9315	846.7988	865.2061	887.4686	922.3333	971.4402	991.8087	1013.1118	1037.7104	1068.884	1088.0254	1157.5251	1163.0535	1172.3713	1213.9939	1245.6193	1289.5753	1312.6088	1341.8818	1379.557	1407.6608	1479.075	1489.4412	1505.6797	3030.5652	3032.2865	3095.4684	3099.3121	3116.0242	3132.1529	3162.9948	3187.9742
CC12OCC1C1OC21	C[C@]12OC[C@H]1[C@H]1O[C@@H]21	
InChI=1S/C6H8O2/c1-6-3(2-7-6)4-5(6)8-4/h3-5H,2H2,1H3	InChI=1S/C6H8O2/c1-6-3(2-7-6)4-5(6)8-4/h3-5H,2H2,1H3/t3-,4+,5+,6-/m0/s1
