19
gdb 39660	4.16388	1.0036	0.95884	2.2736	74.72	-0.2394	0.0725	0.3118	1273.3739	0.159996	-422.946832	-422.938912	-422.937968	-422.980651	29.363	
C	 0.2477880914	 1.5857575438	 0.112455182	-0.095702
O	 1.6587082346	 1.3239959899	-0.1229620647	-0.282571
C	 1.4275689823	-0.0829478665	 0.0018859526	 0.071388
C	-0.0699085668	 0.0946093292	 0.1325777685	-0.157806
C	 0.5313862367	-0.5898460817	-1.0891882882	-0.05306
C	 0.5187705988	-0.0304799204	-2.4845575071	-0.050938
C	 1.2330426058	-0.8511209992	-3.5865316296	-0.087238
O	 0.0255207072	-0.942456804	-4.3684233472	-0.272148
C	-0.7417788372	-0.268853088	-3.3511481715	-0.082749
H	 0.110307201	 2.0685284412	 1.0861640178	 0.113844
H	-0.2011188957	 2.2052269884	-0.6727713993	 0.107427
H	 2.1570521834	-0.6662190919	 0.5524730169	 0.105676
H	-0.783693922	-0.3899036601	 0.7847893798	 0.100865
H	 0.3891511926	-1.669030101	-1.0354086422	 0.093799
H	 0.8415324588	 1.0111777174	-2.4706628454	 0.099279
H	 2.0379281002	-0.3414567572	-4.1289997911	 0.103652
H	 1.5922380027	-1.839534121	-3.2667639764	 0.093323
H	-1.4936692273	-0.9293945567	-2.8971028383	 0.094027
H	-1.2453889065	 0.6247416079	-3.7398678966	 0.098933
51.6015	57.1477	154.4525	176.3891	313.717	339.8311	484.4955	558.8287	747.1506	785.5668	803.9252	814.657	879.3807	895.6728	949.931	959.2277	975.5209	990.9186	1008.6405	1040.6837	1044.5607	1054.4788	1068.7557	1085.5963	1102.4475	1126.8654	1157.9043	1161.835	1164.8307	1231.6711	1259.5771	1267.6592	1304.3297	1308.8295	1317.7466	1367.7964	1383.8101	1458.6387	1513.6521	1517.1618	1539.1504	2994.5538	3005.8094	3026.8923	3045.1898	3051.2166	3074.6926	3105.2675	3120.283	3176.1086	3205.0094
C1OC2C1C2C1COC1	C1O[C@H]2[C@@H]1[C@H]2C1COC1	
InChI=1S/C7H10O2/c1-4(2-8-1)6-5-3-9-7(5)6/h4-7H,1-3H2	InChI=1S/C7H10O2/c1-4(2-8-1)6-5-3-9-7(5)6/h4-7H,1-3H2/t5-,6+,7-/m0/s1
