21
gdb 119791	5.19988	0.7841	0.7353	2.1429	84.89	-0.2339	0.0071	0.241	1608.1403	0.182527	-387.088534	-387.079682	-387.078737	-387.122714	33.416	
C	-0.0780683674	 1.5944620973	-0.110316771	-0.379682
C	-0.0209810668	 0.0662566494	-0.1710323818	-0.161507
C	-1.3703043263	-0.5910489594	 0.1785115093	-0.292851
C	-1.3459520834	-2.0894474577	 0.1416551712	 0.32859
C	-1.6088999049	-2.9228257557	 1.1573226552	-0.211855
C	-1.5952586021	-4.3415495537	 0.7010075418	 0.013814
O	-2.5941293823	-4.6250653136	-0.31212991	-0.261312
C	-1.2648729912	-4.3187737662	-0.7338445259	 0.039069
C	-1.0496778875	-2.8657709452	-1.137893342	-0.336413
H	 0.8905711332	 2.0393129349	-0.3582040172	 0.113058
H	-0.8175310939	 1.9914969686	-0.8147518913	 0.115382
H	-0.3577243076	 1.9409127157	 0.8908144097	 0.115848
H	 0.2916595781	-0.2481308184	-1.1742542773	 0.100553
H	 0.7455480667	-0.3060009023	 0.5198196897	 0.101184
H	-1.6881492836	-0.2584122286	 1.1739155922	 0.10084
H	-2.1299995368	-0.2224201824	-0.5269372175	 0.105039
H	-1.8545905876	-2.6202487792	 2.1684339023	 0.09243
H	-1.3705903875	-5.1708496228	 1.3646630356	 0.093361
H	-0.7383773303	-5.1217457103	-1.243012668	 0.092394
H	-1.7139812171	-2.5678143174	-1.9587022158	 0.12127
H	-0.0216587117	-2.7033677631	-1.4861538991	 0.110788
59.1053	88.6985	110.0147	216.2763	244.6287	304.0757	338.6397	364.7787	486.9361	527.6853	671.0445	720.3806	744.8745	808.1512	846.8904	855.2277	864.7668	888.9615	909.4868	928.0236	966.3109	1015.8168	1021.8948	1043.3278	1091.1172	1105.2747	1119.899	1183.8645	1197.4642	1245.6283	1261.8958	1284.454	1308.7509	1311.3107	1324.5956	1359.4265	1383.973	1412.6115	1413.7545	1458.2224	1475.501	1492.8059	1499.0656	1509.7073	1689.0859	2997.2487	3024.3189	3027.885	3030.2648	3046.0061	3060.7124	3066.2607	3097.8953	3103.4054	3145.2457	3164.6209	3201.7795
CCCC1=CC2OC2C1	CCCC1=C[C@H]2O[C@H]2C1	
InChI=1S/C8H12O/c1-2-3-6-4-7-8(5-6)9-7/h4,7-8H,2-3,5H2,1H3	InChI=1S/C8H12O/c1-2-3-6-4-7-8(5-6)9-7/h4,7-8H,2-3,5H2,1H3/t7-,8+/m1/s1
