20
gdb 17974	2.47791	2.25733	1.37741	1.0802	70.62	-0.2371	0.0793	0.3164	949.2051	0.179278	-386.121208	-386.113508	-386.112564	-386.153178	29.591	
C	 0.0003910894	 1.4769822964	 0.2253034947	-0.208668
C	 1.4014790846	 2.0933935373	 0.0288771049	-0.209447
C	 2.2805606145	 1.5114239394	-1.0808793498	-0.057717
O	 1.8435910708	 1.7029860219	-2.410849565	-0.259874
C	 0.6692447035	 1.0443148736	-2.8637367427	-0.065215
C	 0.3785682479	-0.370085283	-2.3321580201	-0.101473
O	-0.5474091063	-0.4388840342	-1.2652232738	-0.246081
C	-0.1226557129	-0.0466158697	 0.0293304997	-0.069589
H	-0.3297969678	 1.7190522088	 1.2422630032	 0.096408
H	-0.7301505915	 1.9446157152	-0.4423172943	 0.115634
H	 1.3032547011	 3.1746129497	-0.1224029158	 0.106021
H	 1.9749470288	 1.9644883878	 0.9572350725	 0.09707
H	 3.2561213644	 2.007806702	-1.0432608418	 0.10593
H	 2.4707820003	 0.4464766826	-0.881385404	 0.084393
H	-0.2257383102	 1.6570205964	-2.67870041	 0.100166
H	 0.7987523297	 0.9827294011	-3.9502490634	 0.105106
H	-0.101857088	-0.9304827426	-3.141049934	 0.111246
H	 1.3148471956	-0.8967087955	-2.0908739106	 0.100504
H	 0.8117651673	-0.5618901928	 0.3052847084	 0.087694
H	-0.9042683112	-0.4301809143	 0.6923874019	 0.107895
82.3582	173.4304	217.46	263.6592	317.4621	356.7301	380.8352	482.2888	516.6764	548.1971	720.0703	805.3047	819.3282	833.2128	946.2194	980.6062	987.2326	994.4534	1062.8794	1072.4436	1101.4279	1136.4318	1151.9352	1172.462	1217.7329	1260.9447	1279.9487	1317.3337	1337.3147	1347.7275	1373.4612	1385.4279	1397.413	1414.5939	1420.1719	1430.8879	1473.0603	1480.9545	1486.1202	1494.175	1509.2054	1518.5579	2972.2357	2983.9945	2997.3376	3003.3859	3013.7882	3036.7183	3054.2031	3059.0763	3068.2429	3073.4047	3076.675	3086.6433
C1CCOCCOC1	C1CCOCCOC1	
InChI=1S/C6H12O2/c1-2-4-8-6-5-7-3-1/h1-6H2	InChI=1S/C6H12O2/c1-2-4-8-6-5-7-3-1/h1-6H2
