15
gdb 51139	3.16654	1.2613	0.98766	4.9172	68.58	-0.2521	-0.0049	0.2472	1150.7105	0.111405	-453.912895	-453.904773	-453.903829	-453.946365	29.617	
N	 0.0212635028	 1.2474369289	-0.1479542843	-0.535678
C	 0.0368612852	 0.0038006035	 0.0369206132	 0.323103
N	 1.030747146	-0.9922429686	 0.3026150435	-0.365419
C	 0.0403437261	-2.0613375029	-0.0272325575	-0.105081
C	-0.998159518	-2.0419745841	 1.05024425	-0.324007
C	-1.0613207168	-1.0240904	-0.0812967878	 0.340513
O	-2.1387004758	-0.929489361	-0.9484721625	-0.222978
C	-3.0816962803	 0.0059163359	-0.6314128748	 0.160238
O	-4.0499284601	 0.1659559425	-1.3052971212	-0.26462
H	 0.9518669763	 1.6625949743	-0.0775950405	 0.22708
H	 1.8716691559	-0.9453182281	-0.261448167	 0.247665
H	 0.2653301154	-2.8814155447	-0.6936944028	 0.134277
H	-1.7710515835	-2.7999072382	 0.9633342098	 0.140301
H	-0.7238942334	-1.749176114	 2.0590303619	 0.134908
H	-2.8323906797	 0.5685515765	 0.2833114599	 0.109698
49.2055	124.3978	143.1249	196.4624	295.9119	354.8258	432.3688	460.227	494.6689	552.1292	660.9484	754.9966	791.8659	867.8603	878.6353	932.4493	941.3016	976.2158	1001.9287	1023.2905	1034.334	1069.5564	1085.136	1129.2169	1196.1686	1231.9528	1285.4526	1333.7329	1397.1379	1426.5285	1480.9467	1810.4862	1876.8287	3011.7628	3121.8601	3219.7774	3229.7296	3468.9268	3558.7299
N=C1NC2CC12OC=O	[NH][C]1N[C@H]2C[C@@]12OC=O	
InChI=1S/C5H6N2O2/c6-4-5(9-2-8)1-3(5)7-4/h2-3H,1H2,(H2,6,7)	InChI=1S/C5H6N2O2/c6-4-5(9-2-8)1-3(5)7-4/h2-3H,1H2,(H2,6,7)/t3-,5-/m0/s1
