20
gdb 79042	3.62944	1.60038	1.36391	1.6803	82.3	-0.2145	0.0811	0.2957	1008.8701	0.173098	-365.910181	-365.903212	-365.902268	-365.94111	29.215	
C	-0.1941130102	 1.6264492071	-0.1229450607	-0.413848
C	-0.0407730087	 0.1195151507	 0.0122376827	-0.116552
C	 1.1676171661	-0.5964722302	-0.6952383858	-0.107355
C	 2.1481756234	-0.2081422181	 0.4409641213	-0.023676
N	 2.5908455438	-1.6010305516	 0.8193640249	-0.168569
C	 2.4401675304	-1.5929685433	 2.3146979794	-0.155466
C	 1.114104317	-0.7639274637	 2.6286576848	-0.380428
C	 0.8015854773	-0.4720902985	 1.1794784376	 0.327647
C	 1.1634746201	-1.7364149503	 0.3493090147	-0.019163
H	 0.7571766516	 2.145966032	 0.0324949854	 0.114953
H	-0.5610410592	 1.8933471583	-1.1200243045	 0.117662
H	-0.9111766506	 2.0162022414	 0.6076639143	 0.118451
H	-1.0020017947	-0.3855905898	-0.1434247043	 0.069307
H	 1.3765776939	-0.6697989946	-1.7627428927	 0.075935
H	 2.8044267479	 0.6593626745	 0.5277724484	 0.074173
H	 2.3721357908	-2.6230085381	 2.6756806547	 0.105406
H	 3.3249506852	-1.1329819376	 2.7636440223	 0.105257
H	 0.3580915946	-1.3686011911	 3.1370802701	 0.102286
H	 1.313872572	 0.1247637702	 3.2335650506	 0.102415
H	 0.6272238592	-2.6875248973	 0.3260627669	 0.071565
189.4514	211.0519	221.2082	287.2738	384.3166	480.7715	513.5049	671.4109	733.7349	765.6504	777.3092	812.9561	832.9255	858.3779	861.0639	887.2501	905.094	927.6661	967.7454	988.785	1015.2011	1051.5674	1066.0306	1101.5402	1114.345	1119.9822	1142.5423	1154.4092	1180.7295	1196.552	1215.4228	1221.2019	1243.9782	1260.3546	1285.7247	1318.9491	1331.1072	1396.8275	1413.9672	1491.571	1493.8636	1498.148	1510.5674	3028.6969	3030.873	3053.6073	3062.2113	3089.1067	3093.7654	3094.6388	3094.8046	3102.3062	3113.8449	3115.4361
CC1C2C3N4CCC13C24	C[C@H]1[C@H]2[C@@H]3N4CC[C@@]13[C@@H]24	
InChI=1S/C8H11N/c1-4-5-6-8(4)2-3-9(6)7(5)8/h4-7H,2-3H2,1H3	InChI=1S/C8H11N/c1-4-5-6-8(4)2-3-9(6)7(5)8/h4-7H,2-3H2,1H3/t4-,5-,6-,7+,8+/m0/s1
