19
gdb 79717	2.43673	1.74594	1.41073	2.8625	78.07	-0.2263	-0.0188	0.2075	1008.1927	0.159249	-385.854516	-385.846647	-385.845703	-385.886713	30.969	
C	-0.4091227814	 1.5699696047	 0.1634456241	-0.420827
C	 0.0157167373	 0.1160367118	 0.0140662605	-0.099508
C	 0.5969262859	-0.4918181255	-1.3008992962	-0.064751
C	 1.6792184878	 0.2605690963	-2.1151475886	-0.054054
C	 2.6933358662	 0.9917847619	-1.2718836109	-0.302756
C	 2.794137798	-0.4994936673	-1.3847433912	-0.046681
C	 1.7325100663	-1.2106083003	-0.5057392542	-0.155103
C	 1.2610080989	-0.4387436787	 0.754150909	 0.365352
O	 1.6892072214	-0.2956732103	 1.8625271511	-0.304882
H	 0.3320154151	 2.2537365979	-0.2575933938	 0.129594
H	-1.3595993029	 1.7549536914	-0.3469737601	 0.118778
H	-0.5393715281	 1.8193309166	 1.2213600409	 0.134664
H	-0.8110081022	-0.5381118282	 0.3315692244	 0.107527
H	-0.0890373605	-1.0697717753	-1.9185181803	 0.074219
H	 1.5903912141	 0.4717003883	-3.1739982339	 0.089187
H	 3.430672461	 1.5403737503	-1.8500461072	 0.115894
H	 2.4434480138	 1.4717014764	-0.3310579058	 0.12797
H	 3.6711464729	-0.9906353621	-1.7870138609	 0.093731
H	 1.8066122063	-2.295366448	-0.4341769571	 0.091645
114.6406	156.8299	180.7719	211.4841	254.4004	364.1059	479.9859	543.1319	596.0369	642.3424	739.885	748.9798	755.7023	807.339	870.9125	884.9131	911.042	943.2884	963.6035	983.6592	1020.9529	1038.0576	1061.5158	1083.2286	1089.2924	1095.0117	1109.4041	1154.118	1180.3702	1207.3049	1215.4147	1231.3387	1284.1896	1310.6469	1328.1736	1362.2113	1403.1785	1490.2237	1495.4426	1504.6302	1880.442	2996.7223	3040.9876	3105.049	3116.1412	3120.6082	3124.4914	3127.2865	3177.7413	3188.854	3205.9619
CC1C2C3CC3C2C1=O	C[C@H]1[C@H]2[C@H]3C[C@H]3[C@H]2C1=O	
InChI=1S/C8H10O/c1-3-6-4-2-5(4)7(6)8(3)9/h3-7H,2H2,1H3	InChI=1S/C8H10O/c1-3-6-4-2-5(4)7(6)8(3)9/h3-7H,2H2,1H3/t3-,4-,5+,6-,7+/m0/s1
