19
gdb 49068	2.43806	1.60266	1.29606	2.6488	74.85	-0.2438	-0.0319	0.2119	1053.9562	0.159935	-423.036926	-423.028954	-423.02801	-423.069676	30.393	
O	-0.8104536061	 1.2331840518	 0.6128749114	-0.260288
C	 0.1693009142	 0.9427916073	-0.0259258056	 0.093394
C	 1.4254046788	 1.7814148186	-0.084796959	 0.347933
C	 1.8085767867	 2.4812084953	 1.2183905205	-0.254697
C	 2.6320575364	 3.7026528492	 0.769313894	-0.225091
C	 1.9313098619	 4.165730328	-0.524335891	-0.223966
C	 1.4859032532	 2.871135745	-1.2166896249	-0.10665
C	 2.5960764478	 1.9750412893	-1.8012054375	-0.089159
O	 2.515146292	 1.0509315388	-0.6937258861	-0.337069
H	 0.2196633677	 0.0251665625	-0.6541932046	 0.088448
H	 0.8826555561	 2.7860758477	 1.7181189324	 0.12579
H	 2.3521614036	 1.8077428317	 1.8864696459	 0.112713
H	 2.6785738194	 4.4868974846	 1.5291493061	 0.102411
H	 3.6613697081	 3.395643321	 0.5551352668	 0.113339
H	 1.0481723246	 4.7662788368	-0.2790620295	 0.111369
H	 2.5731854941	 4.7783777547	-1.1658972914	 0.102837
H	 0.6044298143	 2.9913204929	-1.8473369861	 0.08861
H	 2.3509661623	 1.4877286488	-2.7526595289	 0.106116
H	 3.5895444147	 2.4337673358	-1.8813278525	 0.10396
80.0588	114.2397	210.7431	226.1419	254.178	362.8603	378.1343	491.1204	579.2435	600.8099	709.667	803.0105	824.9313	855.756	891.1992	906.3533	943.6198	974.7027	985.2985	1019.0725	1028.3222	1077.4832	1087.6265	1141.3675	1165.9831	1170.1068	1183.9502	1221.158	1237.1952	1273.9053	1313.6395	1329.4342	1339.734	1347.7258	1369.0509	1393.6823	1471.3886	1485.9299	1500.6849	1527.3209	1821.0613	2886.8845	3014.2021	3040.627	3050.5615	3054.7638	3057.1691	3083.3967	3099.6933	3106.5458	3111.7778
O=CC12CCCC1CO2	O=C[C@]12CCC[C@H]1CO2	
InChI=1S/C7H10O2/c8-5-7-3-1-2-6(7)4-9-7/h5-6H,1-4H2	InChI=1S/C7H10O2/c8-5-7-3-1-2-6(7)4-9-7/h5-6H,1-4H2/t6-,7+/m0/s1
