21
gdb 26362	3.87922	0.93361	0.90163	1.9574	86.79	-0.1695	0.0558	0.2253	1421.8359	0.182966	-383.305716	-383.295987	-383.295043	-383.340876	36.628	
C	 0.0114291175	 1.547441586	-0.0101848956	-0.37869
C	-0.0279129065	 0.0147288103	 0.0471797842	 0.039123
C	 0.7641313147	-0.538225295	 1.2392309835	-0.378527
N	-1.4016413543	-0.4835837043	 0.0417071578	 0.027933
C	-2.3523560367	-0.2569746039	 0.9976793766	-0.087536
C	-3.515124129	-0.8968217824	 0.6247527836	-0.241235
C	-3.2619341533	-1.5475073053	-0.6153551963	 0.223658
N	-4.2119490481	-2.2544025821	-1.3837844443	-0.604905
C	-1.9508393926	-1.277741258	-0.9496404614	-0.179422
H	 1.0448347108	 1.8993419024	-0.0895558956	 0.114372
H	-0.5496614523	 1.9167518035	-0.8726186888	 0.129259
H	-0.4246494615	 1.9861075371	 0.892809381	 0.121327
H	 0.4222846188	-0.3735482642	-0.8724673285	 0.090268
H	 0.3545792841	-0.1739523318	 2.1866345237	 0.121313
H	 0.7315894944	-1.6309127611	 1.252461877	 0.126757
H	 1.8102073818	-0.2214135557	 1.1814524478	 0.114779
H	-2.1363335813	 0.3383031202	 1.8702536369	 0.110601
H	-4.4461792863	-0.8943698759	 1.1718218702	 0.081785
H	-4.8519523965	-2.7779501893	-0.7990600038	 0.236311
H	-3.77556446	-2.8993102935	-2.0309925557	 0.233166
H	-1.3649245936	-1.573909757	-1.8054091524	 0.099663
22.9087	108.7372	162.6801	198.3285	230.7336	265.0962	284.1471	301.6486	385.7622	407.2876	492.8623	605.6505	620.1345	633.348	659.4424	700.0937	729.0683	774.2366	803.3428	880.1868	929.8963	946.1429	997.9773	1001.5025	1079.4797	1104.7321	1117.8688	1142.9258	1176.1808	1219.7487	1283.0958	1330.077	1345.771	1375.2059	1399.0902	1418.672	1442.3012	1461.8242	1483.9687	1487.0151	1499.0057	1508.1827	1537.0829	1621.6932	1656.3744	3037.4541	3041.9137	3051.8506	3106.1093	3114.379	3120.2937	3122.9587	3236.0749	3251.8017	3263.4716	3524.2252	3610.9397
CC(C)N1C=CC(N)=C1	CC(C)n1ccc(N)c1	
InChI=1S/C7H12N2/c1-6(2)9-4-3-7(8)5-9/h3-6H,8H2,1-2H3	InChI=1S/C7H12N2/c1-6(2)9-4-3-7(8)5-9/h3-6H,8H2,1-2H3
