23
gdb 103285	2.44466	1.24579	1.09916	1.2971	85.69	-0.2398	0.0709	0.3107	1278.7117	0.204533	-388.261398	-388.25164	-388.250696	-388.295442	37.852	
C	-0.632510939	 1.7053046572	 0.2786792208	-0.401261
C	-0.234316411	 0.2462933839	 0.0158549458	-0.240734
C	 0.4436405893	-0.3984393155	 1.2114575363	 0.420374
O	 1.6137292992	 0.2916433637	 1.6096085314	-0.481741
C	-0.2732799641	-1.0330373008	 2.3759916316	-0.126442
C	-1.4776375708	-1.8743539044	 1.9307740042	-0.284632
C	-0.5110847518	-2.7928546564	 1.0999955851	 0.031686
C	-0.8111189288	-3.162285291	-0.3495807747	-0.416468
C	 0.6568122338	-1.8659818529	 1.4650997498	-0.122056
H	 0.245932557	 2.3287320327	 0.4740976459	 0.114378
H	-1.1473566893	 2.1325614276	-0.5867486678	 0.115446
H	-1.3062144606	 1.7839110647	 1.1396064401	 0.115958
H	-1.125570315	-0.319697098	-0.2629846705	 0.102681
H	 0.4501546703	 0.2003341505	-0.8398845542	 0.102297
H	 1.3410104254	 1.0988265718	 2.0580609486	 0.282209
H	-0.085787903	-0.692128798	 3.3879022722	 0.07905
H	-1.9637123003	-2.4074867911	 2.750695751	 0.10186
H	-2.2522058329	-1.3426287774	 1.3682102262	 0.094834
H	-0.3767301136	-3.7218038057	 1.6648805186	 0.079452
H	-0.9730684967	-2.2878192455	-0.9843674437	 0.118349
H	 0.0201639568	-3.7318557614	-0.7802862741	 0.115582
H	-1.7075249597	-3.789941368	-0.4113060123	 0.111098
H	 1.6683994747	-2.1963345662	 1.6718519898	 0.08808
78.3904	150.711	164.9948	196.879	222.5269	258.7696	272.5243	314.6977	357.9038	404.3838	414.4693	486.2997	566.9534	661.5016	666.9071	787.6887	830.5751	832.3455	862.2924	899.8675	937.51	964.371	994.8425	1006.6313	1019.3286	1046.2015	1077.6909	1097.014	1110.3009	1124.0192	1164.4248	1195.6143	1243.6113	1247.1396	1274.8902	1281.1885	1304.256	1321.9179	1360.5577	1376.8298	1403.518	1408.6941	1442.2429	1473.5614	1495.5834	1498.0241	1499.0363	1502.3778	1513.5676	3030.179	3030.9397	3037.6342	3038.656	3045.5694	3088.6721	3090.4692	3102.0611	3104.5159	3112.2661	3125.4789	3169.6756	3180.6625	3807.1982
CCC1(O)C2CC(C)C12	CC[C@@]1(O)[C@H]2C[C@@H](C)[C@@H]12	
InChI=1S/C8H14O/c1-3-8(9)6-4-5(2)7(6)8/h5-7,9H,3-4H2,1-2H3	InChI=1S/C8H14O/c1-3-8(9)6-4-5(2)7(6)8/h5-7,9H,3-4H2,1-2H3/t5-,6+,7-,8-/m1/s1
