17
gdb 15638	3.33782	1.72956	1.20674	3.0845	69.88	-0.2154	-0.0015	0.214	999.2022	0.142785	-363.91453	-363.906653	-363.905709	-363.946992	29.141	
C	 0.0592552243	 1.5813927394	 0.0813406975	-0.391472
C	 0.0117548332	 0.0532567554	 0.0281336745	-0.167354
C	-1.4188039315	-0.5127255239	-0.0580868324	-0.160857
C	-2.1523617767	-0.3064557672	-1.3622016517	-0.144765
C	-2.515525613	-1.4984563353	-1.8454826091	-0.026898
N	-2.1071475921	-2.537583735	-0.9952193414	-0.324747
C	-1.4147565114	-2.0482348603	 0.0977473218	 0.411068
O	-0.9042598633	-2.7082523358	 0.9738803012	-0.378452
H	 1.0910237795	 1.9368899213	 0.1621565833	 0.117211
H	-0.3750822635	 2.0314487859	-0.8175858511	 0.115981
H	-0.4939524228	 1.9648685823	 0.9459865783	 0.116525
H	 0.5893115388	-0.3089534032	-0.8307810969	 0.101117
H	 0.4778979447	-0.3741653392	 0.9226068317	 0.123445
H	-1.99682575	-0.1066338174	 0.7852579938	 0.113393
H	-2.3611015381	 0.649132299	-1.8180950747	 0.107378
H	-3.0586427154	-1.7384038392	-2.7485998706	 0.127941
H	-2.2211278128	-3.5219357467	-1.1703002342	 0.260486
82.5834	109.0663	173.1912	224.0939	287.8862	322.0859	454.8228	512.0634	561.198	642.5015	692.4081	726.1413	773.6664	816.8107	869.2936	909.9225	942.1267	976.821	1057.1617	1075.7222	1107.4303	1115.4244	1149.907	1199.3428	1246.1255	1259.3794	1329.4986	1363.5455	1374.8993	1410.6928	1412.4624	1489.0174	1498.7768	1506.4677	1664.9486	1831.6199	3003.8798	3031.1385	3035.8252	3073.7188	3101.3224	3105.017	3232.3198	3258.3771	3664.7756
CCC1C=CNC1=O	CC[C@H]1C=CNC1=O	
InChI=1S/C6H9NO/c1-2-5-3-4-7-6(5)8/h3-5H,2H2,1H3,(H,7,8)	InChI=1S/C6H9NO/c1-2-5-3-4-7-6(5)8/h3-5H,2H2,1H3,(H,7,8)/t5-/m0/s1
