18
gdb 115985	2.06394	1.6139	0.99638	3.6882	81.23	-0.2589	-0.0456	0.2134	1199.7345	0.14793	-401.970801	-401.961947	-401.961003	-402.00497	31.807	
C	-0.3823340124	 1.0739799942	 0.2340301005	-0.251529
O	 0.1616986932	-0.21815184	 0.0429849968	-0.24649
C	 0.781403398	-0.4241341102	-1.2140113664	 0.009605
C	 1.5940215841	-1.7336624557	-1.1489565603	-0.24103
C	 0.6983991621	-2.8282376209	-1.7741876455	-0.25715
C	-0.2882863641	-2.0410508353	-2.5891509416	-0.143553
C	-0.2343606131	-0.7283404463	-2.322983385	 0.20418
C	-1.0348935367	 0.2688764585	-2.9407908327	 0.20162
N	-1.6633666234	 1.1068157111	-3.4376996436	-0.346943
H	 0.3733470552	 1.8559014878	 0.0634170522	 0.108848
H	-1.2387398152	 1.2712020862	-0.4230768904	 0.136343
H	-0.7162492679	 1.1252690892	 1.273003689	 0.129729
H	 1.404916068	 0.4478464937	-1.4596245885	 0.078628
H	 2.5062560578	-1.621725208	-1.7412599886	 0.114957
H	 1.8817191185	-1.9405569062	-0.1171020136	 0.123511
H	 1.263565821	-3.5391951205	-2.3863018419	 0.120226
H	 0.172153316	-3.424362471	-1.0168376808	 0.134345
H	-0.9730674811	-2.4950284766	-3.2965889495	 0.124703
59.3277	99.8225	145.8105	167.6666	197.294	282.5532	292.696	389.8765	445.9905	547.2698	567.5956	669.2896	699.2227	800.6003	869.3395	888.3309	937.4053	938.0474	978.9537	1049.5139	1066.4316	1131.1525	1147.7998	1175.1395	1183.9053	1222.5757	1240.8475	1282.5804	1301.0765	1326.4424	1345.3284	1380.5509	1467.5993	1478.3371	1485.4658	1494.6062	1510.2042	1673.2294	2330.2637	2988.0882	2998.459	3027.4124	3055.4237	3063.5383	3076.7019	3119.1963	3130.76	3204.2385
COC1CCC=C1C#N	CO[C@H]1CCC=C1C#N	
InChI=1S/C7H9NO/c1-9-7-4-2-3-6(7)5-8/h3,7H,2,4H2,1H3	InChI=1S/C7H9NO/c1-9-7-4-2-3-6(7)5-8/h3,7H,2,4H2,1H3/t7-/m0/s1
