21
gdb 41610	3.78571	1.25064	1.13968	1.2283	82.1	-0.2227	0.0848	0.3075	1164.5539	0.18456	-387.064165	-387.056376	-387.055432	-387.096959	30.989	
C	-0.1139709125	 1.3893986476	-0.0911683647	-0.241066
C	 1.4412070445	 1.5367980602	 0.0254772135	-0.23938
C	 1.5749587359	 0.0115441797	 0.0697603245	-0.138499
C	 0.038413661	-0.1337132227	-0.0473413201	-0.128781
C	 0.9609757794	-0.6227913374	-1.1348382199	 0.470982
C	 0.9798441491	-0.1340384535	-2.5890532801	-0.317695
C	 1.1446352013	-1.4405636649	-3.3977208307	-0.216107
C	 0.6704036472	-2.5000588046	-2.3970571938	-0.08632
O	 1.1288110015	-2.0299067239	-1.1379662699	-0.296779
H	-0.6305118527	 1.7904189612	 0.7835770549	 0.105171
H	-0.5857185988	 1.8073568164	-0.9873244536	 0.092628
H	 1.9553654801	 2.0488799583	-0.7948719038	 0.094084
H	 1.7376671533	 2.0113176847	 0.9632525603	 0.10598
H	 2.2687255547	-0.5537871894	 0.6807319722	 0.088844
H	-0.6156871153	-0.8344437821	 0.4576792776	 0.086523
H	 0.0422327801	 0.3708087384	-2.8407809106	 0.108527
H	 1.7922600076	 0.5712128557	-2.7818332317	 0.110105
H	 0.5752281352	-1.4450995091	-4.3304466135	 0.099464
H	 2.1975589364	-1.6101629177	-3.6414183296	 0.109763
H	-0.4288094929	-2.5855754761	-2.4072957805	 0.087006
H	 1.0969769948	-3.4931379309	-2.5592624403	 0.105549
39.9662	176.975	196.8941	225.5607	321.5913	431.2934	444.2731	526.402	611.1801	702.3186	749.3179	779.7354	833.8163	856.22	879.1171	910.3415	919.056	931.01	974.1891	974.5072	993.8516	1012.2465	1029.0033	1036.5394	1094.236	1117.7297	1130.7878	1162.9581	1207.2834	1214.333	1221.7854	1242.6137	1246.7099	1257.2797	1268.6979	1288.3576	1310.7105	1339.7695	1386.2548	1434.9845	1482.4929	1486.1825	1500.6494	1505.0806	1518.8691	2968.011	3039.5355	3047.5958	3053.354	3058.7795	3091.575	3093.4228	3095.2689	3111.9075	3113.3102	3178.2723	3188.3287
C1CC2C1C21CCCO1	C1C[C@H]2[C@@H]1[C@]12CCCO1	
InChI=1S/C8H12O/c1-4-8(9-5-1)6-2-3-7(6)8/h6-7H,1-5H2	InChI=1S/C8H12O/c1-4-8(9-5-1)6-2-3-7(6)8/h6-7H,1-5H2/t6-,7+,8+
