21
gdb 112721	2.42509	1.1364	0.96524	1.2291	74.8	-0.2505	0.0739	0.3244	1313.5367	0.179678	-461.343052	-461.33263	-461.331686	-461.377969	38.838	
C	-0.0748669167	 1.5660299768	-0.133285036	-0.444854
C	-0.0120928087	 0.0442661895	-0.0268318628	 0.335859
O	-1.2995595619	-0.5265278468	-0.1760784767	-0.48096
C	 1.1274005788	-0.5822600397	-0.882409353	 0.084133
O	 1.5313327079	 0.1903831749	-1.9902916622	-0.44018
C	 2.0139935195	-0.639404688	 0.3890745307	-0.294081
C	 0.7140974338	-0.5172253804	 1.2294381911	 0.028422
C	 0.7340110261	 0.2711759764	 2.5217390102	-0.113009
O	 1.5163016883	-0.4639650959	 3.4552458097	-0.423766
H	 0.9028286189	 2.0318096574	 0.0111826195	 0.125533
H	-0.4170289028	 1.8549667938	-1.1329569248	 0.118649
H	-0.7739604397	 1.9674062142	 0.6060300868	 0.117234
H	-1.7161760699	-0.1262418678	-0.9473253655	 0.275229
H	 0.8153336594	-1.591343278	-1.1857199431	 0.072257
H	 2.2567384121	-0.264525396	-2.429197451	 0.284585
H	 2.6377994164	-1.5211131893	 0.5431376757	 0.101498
H	 2.6346065983	 0.2584609835	 0.4697481245	 0.10142
H	 0.3041755079	-1.5106755703	 1.4344917388	 0.093969
H	 1.1624791198	 1.271588402	 2.3530477344	 0.080081
H	-0.2965749945	 0.4097960489	 2.8869936126	 0.092754
H	 1.5468868573	 0.0337298547	 4.2774839211	 0.285227
78.6132	106.7014	162.2617	213.6761	232.347	244.3268	261.9554	269.6448	292.0259	313.0232	356.2817	403.1546	455.5302	492.9943	576.2406	607.5283	754.7844	826.1786	900.238	907.7666	937.0288	974.2863	1041.1359	1067.5022	1088.515	1105.2809	1140.8825	1146.308	1157.0947	1193.2508	1205.7063	1238.461	1256.607	1275.8475	1295.6676	1319.1974	1368.1722	1378.4963	1402.182	1427.6883	1462.909	1489.3841	1492.1576	1493.0013	1521.4348	2964.0493	2993.4664	3006.3018	3038.7339	3059.141	3072.571	3104.8245	3122.9952	3127.3353	3799.0941	3820.3521	3827.3131
CC1(O)C(O)CC1CO	C[C@@]1(O)[C@@H](O)C[C@H]1CO	
InChI=1S/C6H12O3/c1-6(9)4(3-7)2-5(6)8/h4-5,7-9H,2-3H2,1H3	InChI=1S/C6H12O3/c1-6(9)4(3-7)2-5(6)8/h4-5,7-9H,2-3H2,1H3/t4-,5-,6-/m0/s1
