21
gdb 106381	3.29174	1.36759	1.20495	1.8552	80.75	-0.2495	0.0872	0.3367	1122.3362	0.183801	-387.049736	-387.041994	-387.04105	-387.081808	31.705	
C	 0.131767891	 1.5427463792	-0.0554422139	-0.390105
C	-0.0370293287	 0.0212584601	 0.0092838182	-0.298027
C	-1.472767214	-0.4687969829	-0.0126562898	 0.312773
C	-2.5859537178	 0.0067077014	 1.0022930195	-0.260398
C	-3.5360858936	-0.6092324369	-0.0826180578	-0.082385
C	-2.5040245945	-0.0969550681	-1.1220096772	-0.258913
C	-3.1510323587	-2.0979269685	 0.0619388944	 0.036438
O	-2.3447102279	-2.6415078227	-0.9972028218	-0.259267
C	-1.6954519128	-2.0004663369	 0.1137289971	-0.000284
H	 1.1910459298	 1.8164126446	-0.0361290531	 0.113082
H	-0.2995508457	 1.9551180913	-0.9731971931	 0.119951
H	-0.3533901464	 2.0373731684	 0.7923768344	 0.116812
H	 0.4995497196	-0.4398034304	-0.8308817673	 0.10534
H	 0.4493844328	-0.3580061051	 0.9190465029	 0.094257
H	-2.5903976306	-0.4454903898	 1.9997890063	 0.088265
H	-2.6687642911	 1.0939912803	 1.0811739885	 0.097263
H	-4.5939754719	-0.3558674841	-0.1410210275	 0.063911
H	-2.579002108	 0.983242658	-1.2572237134	 0.093034
H	-2.4366420565	-0.6107972385	-2.0795822175	 0.115725
H	-3.7567402948	-2.8057637781	 0.6177500942	 0.098526
H	-1.0370587703	-2.6232622112	 0.7118575071	 0.093999
83.1564	183.3959	211.8681	286.2006	344.1786	406.4101	436.6874	515.581	588.5459	611.4229	684.2914	765.1103	794.6051	815.4046	857.4816	886.397	896.3351	900.6556	944.5336	961.0322	981.4132	991.9027	1008.049	1058.3223	1064.6511	1090.2425	1099.5316	1127.7419	1187.737	1205.3735	1211.4623	1229.8115	1248.4211	1261.5559	1288.989	1312.6814	1322.3245	1381.5053	1403.5651	1414.8635	1475.964	1480.4936	1501.2548	1506.2311	1513.8401	3006.201	3036.8209	3038.1984	3042.5395	3085.4019	3103.5173	3106.6334	3108.4053	3121.3276	3155.158	3157.9507	3175.976
CCC12CC(C1)C1OC21	CC[C@@]12C[C@@H](C1)[C@H]1O[C@@H]21	
InChI=1S/C8H12O/c1-2-8-3-5(4-8)6-7(8)9-6/h5-7H,2-4H2,1H3	InChI=1S/C8H12O/c1-2-8-3-5(4-8)6-7(8)9-6/h5-7H,2-4H2,1H3/t5-,6-,7-,8+/m1/s1
