22
gdb 109797	2.34723	1.29938	1.09162	1.6457	83.36	-0.209	0.0723	0.2813	1258.1489	0.192623	-404.277726	-404.267692	-404.266748	-404.313414	36.294	
C	 0.3437457833	 1.317625963	 0.0582494449	-0.237386
O	-0.3115357165	 0.2050742312	-0.5224413064	-0.233331
C	 0.5226879991	-0.5342628237	-1.359817623	 0.074351
C	 1.3851019967	-1.6560421933	-0.7900540983	-0.091486
C	 1.3401773763	-1.9857275231	 0.6878235838	-0.403532
C	 0.202111854	-1.9816399118	-1.6794706046	-0.022357
N	-0.8938243281	-2.7982688793	-1.2293273027	-0.088979
C	-1.9374282698	-2.3016022313	-0.3314544694	-0.223674
C	-2.220327457	-2.5169884209	-1.7761648781	-0.223034
H	 1.1903079338	 1.0094297637	 0.6862437262	 0.115461
H	 0.7157163715	 2.0072859033	-0.71419623	 0.108916
H	-0.391834543	 1.8393236675	 0.6749156387	 0.127238
H	 0.9463072216	 0.0624052699	-2.1715473286	 0.078416
H	 2.3644036378	-1.7830030287	-1.2454036867	 0.080493
H	 0.4143318739	-1.6376766907	 1.1500455887	 0.131284
H	 1.4066830607	-3.0666395907	 0.8474444004	 0.124983
H	 2.1766761517	-1.5163933696	 1.2165438442	 0.109669
H	 0.4602898285	-2.2590440868	-2.6991242903	 0.094826
H	-2.279773136	-3.0286578372	 0.400799994	 0.108071
H	-1.8810329149	-1.2775829175	 0.0138328223	 0.146233
H	-2.3378439241	-1.6262099898	-2.3900575143	 0.113396
H	-2.7838463396	-3.3839430241	-2.1109140108	 0.110441
33.0332	106.0647	125.7516	147.6456	171.3549	189.5763	254.7088	264.5183	324.7738	350.4796	522.8205	604.0315	645.803	721.0274	778.0682	797.0137	834.9886	893.3447	911.3342	982.215	1003.4734	1037.1722	1060.8442	1093.0935	1113.3796	1127.013	1133.5733	1150.948	1156.8683	1174.5172	1182.0915	1183.1722	1189.6366	1224.6251	1262.8278	1350.6285	1368.8843	1379.1229	1414.2357	1442.5766	1481.8479	1484.9418	1490.2708	1497.3348	1500.5333	1508.311	1516.8823	2988.5919	3037.4938	3046.1014	3060.9545	3094.4683	3097.2698	3117.7137	3118.2857	3119.5693	3126.8713	3137.9585	3182.3096	3236.6708
COC1C(C)C1N1CC1	CO[C@H]1[C@@H](C)[C@H]1N1CC1	
InChI=1S/C7H13NO/c1-5-6(7(5)9-2)8-3-4-8/h5-7H,3-4H2,1-2H3	InChI=1S/C7H13NO/c1-5-6(7(5)9-2)8-3-4-8/h5-7H,3-4H2,1-2H3/t5-,6+,7-/m0/s1
