16
gdb 49110	3.75518	1.4516	1.21765	3.095	80.85	-0.2284	-0.0848	0.1436	1002.4683	0.124545	-400.639892	-400.632947	-400.632003	-400.671246	27.284	
O	-0.0221427413	 0.2835455186	 0.5625083081	-0.284702
C	 0.096469032	 1.4210580097	 0.147075453	 0.077775
C	 1.321789792	 1.9725384015	-0.4112815393	 0.127093
C	 1.5311724712	 3.3161619185	-0.5658765087	-0.03057
C	 1.4863124776	 4.1447606494	 0.712684016	-0.1683
N	 3.0021158849	 3.8764927706	 0.7467298077	-0.142595
C	 3.5246910018	 2.5504466019	 0.1001294635	-0.013378
C	 2.6716093953	 1.3066539576	-0.18713887	-0.323233
C	 3.0151454719	 3.6546565396	-0.7209244578	-0.072787
H	-0.7698377455	 2.1195974024	 0.1366729474	 0.066685
H	 1.3826190184	 5.2281466777	 0.6156644635	 0.131756
H	 0.8992070455	 3.7621804997	 1.5499452897	 0.132852
H	 4.5774928051	 2.4607567309	 0.349245791	 0.1138
H	 2.5611059579	 0.6018717609	 0.6424979266	 0.149972
H	 3.1209540228	 0.7549576185	-1.0234533738	 0.126885
H	 3.5065776503	 4.3148366027	-1.425945607	 0.108746
108.3501	190.6642	229.9758	310.1929	414.9551	495.905	505.5405	558.4025	664.9195	720.3348	746.5686	782.8228	852.1333	865.3273	922.2302	948.0063	985.3924	1008.7757	1036.1503	1055.0198	1067.4966	1073.9516	1118.5179	1143.092	1195.3326	1240.1555	1251.9049	1274.3231	1308.8984	1353.8499	1408.3402	1469.7116	1507.1317	1557.9805	1750.3258	2877.674	3023.5965	3063.3406	3093.7631	3133.1398	3171.4551	3183.3833
O=CC1=C2CN3C(C1)C23	O=C[C]1[C]2CN3[C@@H](C1)[C@@H]23	
InChI=1S/C7H7NO/c9-3-4-1-6-7-5(4)2-8(6)7/h3,6-7H,1-2H2	InChI=1S/C7H7NO/c9-3-4-1-6-7-5(4)2-8(6)7/h3,6-7H,1-2H2/t6-,7+,8?/m0/s1
