13
gdb 25346	3.93211	1.15669	0.89377	1.6792	70.9	-0.2547	-0.1049	0.1498	1176.7785	0.089426	-456.630495	-456.62329	-456.622346	-456.662593	26.397	
O	-0.0667365673	-0.0277250737	-0.0013842694	-0.247734
C	-0.0139905678	 1.1768927254	 0.0081875375	 0.115141
C	 1.2627267325	 1.9444969384	 0.0009892463	 0.219183
C	 1.2326508298	 3.3031229089	 0.0129476081	-0.35486
C	 2.4518552171	 4.0933998846	 0.0065302869	 0.454515
O	 2.5470280641	 5.2889925326	 0.0157878512	-0.329842
O	 3.6389002912	 3.337116115	-0.0127618827	-0.218668
C	 3.638356502	 1.9930759293	-0.0242569333	 0.097278
C	 2.5157618886	 1.2504670741	-0.0184942565	-0.26531
H	-0.9302468212	 1.804176246	 0.0238009924	 0.093638
H	 0.3034664433	 3.8614872667	 0.0277727422	 0.137892
H	 4.6457744997	 1.5939098556	-0.0385567299	 0.15507
H	 2.546099368	 0.170450467	-0.0280771629	 0.143698
99.4692	152.8315	198.3564	242.5495	394.3831	397.6865	454.7771	575.2077	618.8917	665.9239	744.6462	784.067	825.9045	827.6207	893.6728	960.458	987.9648	1037.6493	1071.3068	1109.3124	1203.0221	1280.4239	1342.584	1415.4158	1472.9194	1593.3568	1676.3895	1807.231	1843.6975	2914.0163	3203.824	3210.3257	3247.3882
O=CC1=CC(=O)OC=C1	O=Cc1cc(=O)occ1	
InChI=1S/C6H4O3/c7-4-5-1-2-9-6(8)3-5/h1-4H	InChI=1S/C6H4O3/c7-4-5-1-2-9-6(8)3-5/h1-4H
