20
gdb 8314	3.74223	1.25674	1.14195	2.4254	72.08	-0.2477	0.079	0.3268	1148.8634	0.176153	-386.12145	-386.112784	-386.11184	-386.154922	32.318	
C	 0.5968701687	 1.4086608268	 0.563443447	-0.38713
C	 0.4456160881	-0.0564913	 0.191902606	-0.041253
O	 0.4983322346	-0.8316170143	 1.3793260087	-0.265608
C	 0.3746173941	-2.2298467826	 1.1610390668	 0.12083
C	 1.7239849297	-2.8875849296	 0.7464943447	-0.271051
C	 2.0249433842	-3.090874984	 2.2630466012	 0.154902
O	 2.80617978	-2.0646363312	 2.8328300635	-0.441671
C	 0.4968437833	-2.9394056688	 2.5277122933	-0.264534
H	 1.5626532941	 1.5886516019	 1.0448683053	 0.125591
H	 0.5363850837	 2.0352214802	-0.3313613824	 0.118344
H	-0.1931218311	 1.712939162	 1.2556801181	 0.129489
H	-0.5161506042	-0.2312634271	-0.3171190128	 0.091908
H	 1.2406163435	-0.362252441	-0.5056882313	 0.093891
H	-0.5088230039	-2.4374106359	 0.5423144353	 0.062432
H	 1.570653079	-3.8345396411	 0.2204995204	 0.09998
H	 2.4366245179	-2.2744147824	 0.1892596208	 0.103166
H	 2.4935201896	-4.0330280262	 2.5560887967	 0.078956
H	 2.3685497795	-1.2327783735	 2.6085062052	 0.280663
H	 0.2050568153	-2.3549693658	 3.4032196836	 0.109193
H	-0.0236515662	-3.9006942473	 2.5327360998	 0.101901
65.7755	95.1889	142.4798	193.8378	255.8121	343.5279	379.3475	400.0317	425.9642	474.9011	511.7727	754.8677	820.3267	826.7689	845.4743	872.4438	909.0324	924.0871	983.8376	997.6471	1052.2189	1080.211	1090.052	1144.9446	1152.3098	1169.8058	1189.2857	1210.5116	1247.9683	1268.3914	1292.3238	1298.0637	1333.9897	1360.5401	1403.6775	1435.1898	1446.0923	1453.068	1474.7606	1485.2569	1499.3604	1528.418	2970.8622	3002.1704	3008.7126	3044.7423	3055.7536	3065.2529	3088.2114	3116.7672	3118.0231	3122.716	3127.3429	3761.9024
CCOC1CC(O)C1	CCO[C@H]1C[C@@H](O)C1	
InChI=1S/C6H12O2/c1-2-8-6-3-5(7)4-6/h5-7H,2-4H2,1H3	InChI=1S/C6H12O2/c1-2-8-6-3-5(7)4-6/h5-7H,2-4H2,1H3/t5-,6+
