15
gdb 69130	2.81453	1.5647	1.18813	5.5982	66.89	-0.2541	-0.0799	0.1743	1031.5474	0.111706	-457.804218	-457.796542	-457.795598	-457.836373	29.088	
C	 0.0215789909	 1.4981733047	-0.0456710497	-0.46776
C	 0.041934473	 0.0026874309	 0.055860748	 0.414654
C	-0.8486528631	-0.8098116568	 0.9247014143	-0.343132
C	 0.6756685101	-0.798253728	 1.1716111926	-0.235211
C	 1.4489661576	-1.8664247248	 0.4961673093	 0.305067
O	 2.23167338	-2.6565053424	 0.9458230802	-0.283527
C	 1.1280787262	-1.7328848522	-1.0215729952	 0.314681
O	 1.4891512423	-2.4365288861	-1.9126611198	-0.300727
O	 0.3450900295	-0.6315407005	-1.1929089457	-0.248557
H	 0.9922415043	 1.8772095701	-0.3778497119	 0.142686
H	-0.7391798508	 1.8211122902	-0.7626746491	 0.147147
H	-0.211790543	 1.9389503497	 0.9270077168	 0.131664
H	-1.4353404299	-0.3029890783	 1.6822811144	 0.142958
H	-1.3035531126	-1.7030332271	 0.5102122248	 0.147814
H	 1.0544256454	-0.3591667295	 2.0849473808	 0.132242
109.2114	140.3076	213.3356	292.1175	319.3613	345.5165	428.3848	469.6101	540.4894	600.0414	617.4825	705.4812	741.3579	806.1217	868.7445	919.3392	956.7229	971.4071	1007.1704	1043.2376	1063.9169	1094.7706	1138.2263	1222.5807	1227.1162	1276.6184	1394.4867	1432.5952	1477.8035	1484.0379	1501.9453	1859.4696	1892.8242	3046.2036	3117.8284	3127.7045	3138.6425	3208.5008	3232.6889
CC12CC1C(=O)C(=O)O2	C[C@]12C[C@H]1C(=O)C(=O)O2	
InChI=1S/C6H6O3/c1-6-2-3(6)4(7)5(8)9-6/h3H,2H2,1H3	InChI=1S/C6H6O3/c1-6-2-3(6)4(7)5(8)9-6/h3H,2H2,1H3/t3-,6-/m0/s1
