25
gdb 116191	2.12294	1.33108	1.03561	1.6718	87.85	-0.2389	0.0726	0.3115	1334.0651	0.228524	-389.508786	-389.498482	-389.497538	-389.543633	38.995	
C	-0.0882517388	 1.7131658225	-0.3193454962	-0.388501
C	-0.2461730731	 0.1878061977	-0.3049449126	-0.209354
C	 0.8310252117	-0.5368003692	-1.1170409547	 0.005664
C	 2.2566619851	-0.4174285241	-0.5340803203	-0.089142
O	 2.9388286347	-1.637640332	-0.8252624275	-0.267031
C	 2.1157600904	-2.4311500674	-1.6677476238	-0.092136
C	 0.6636159924	-2.0748241554	-1.3041299904	 0.250055
C	 0.2672141426	-2.7890468199	-0.0000168625	-0.426356
C	-0.3197199042	-2.4260459624	-2.4236062145	-0.448411
H	 0.8644394195	 2.0238142073	 0.1227263111	 0.121481
H	-0.1209618815	 2.1044256902	-1.34238229	 0.115192
H	-0.888306275	 2.1980866122	 0.248447797	 0.113163
H	-0.2272434131	-0.1675733096	 0.7323223104	 0.100705
H	-1.2354222875	-0.0727190565	-0.7026265967	 0.096104
H	 0.8383473887	-0.0987674699	-2.1251556124	 0.066789
H	 2.8083209847	 0.42919822	-0.9634007231	 0.0948
H	 2.2384494902	-0.2825902515	 0.5565072296	 0.094341
H	 2.3115535979	-2.2086174058	-2.7307079041	 0.076022
H	 2.3642517756	-3.4825531233	-1.4889579437	 0.099261
H	 0.9833267987	-2.5862901276	 0.801707055	 0.126067
H	-0.7260819791	-2.4846135238	 0.3431717893	 0.111976
H	 0.2427417363	-3.8731047657	-0.1555048609	 0.109218
H	-0.356047479	-3.5081661827	-2.5926173611	 0.113092
H	-1.3363510956	-2.1022811044	-2.1753140267	 0.115656
H	-0.0367177317	-1.9483459987	-3.3678480311	 0.111345
81.537	98.9945	156.0762	181.9065	218.6176	226.5175	255.6657	278.5461	309.2697	343.4917	365.9019	459.9807	482.2426	571.6393	672.6789	749.9394	791.9729	857.376	940.4311	948.6978	955.6063	960.6889	972.5604	984.5322	1015.2507	1036.6323	1070.9048	1092.2184	1142.0831	1159.3029	1202.7087	1220.9189	1227.4505	1255.7822	1277.8684	1296.6548	1333.3254	1345.6358	1377.1147	1385.6558	1400.7047	1407.2554	1415.4776	1427.9303	1483.7093	1485.6866	1493.4119	1502.0991	1505.8814	1506.9008	1508.2458	1518.2228	1532.6295	2952.9566	2996.8273	2999.9002	3020.3614	3024.0244	3030.1531	3033.7788	3035.8146	3058.6843	3067.1378	3089.0265	3094.678	3098.233	3099.7839	3103.1297	3113.5346
CCC1COCC1(C)C	CC[C@H]1COCC1(C)C	
InChI=1S/C8H16O/c1-4-7-5-9-6-8(7,2)3/h7H,4-6H2,1-3H3	InChI=1S/C8H16O/c1-4-7-5-9-6-8(7,2)3/h7H,4-6H2,1-3H3/t7-/m0/s1
