12
gdb 132657	3.16978	1.41318	0.97776	2.2156	60.96	-0.2318	-0.0378	0.194	1060.6704	0.077909	-518.115786	-518.108701	-518.107757	-518.147354	26.764	
N	-0.0012074447	 1.3379504339	 0.1290683232	-0.554666
C	-0.0001841361	-0.0216023695	 0.0476273098	 0.446065
N	-1.1900200783	-0.638704101	 0.0304179903	-0.311915
C	-1.1564378299	-1.9714856098	-0.0007229875	-0.093071
C	 0.026813829	-2.685708073	-0.0188044388	 0.075531
F	 0.0556446736	-4.0178670831	-0.0514124169	-0.059093
C	 1.1987843521	-1.9299547244	-0.0101610115	 0.222063
F	 2.3656108715	-2.5492528803	-0.0392435729	-0.042487
N	 1.2054990061	-0.6241798913	 0.0210584271	-0.356216
H	 0.8573129332	 1.8164301766	-0.0827613528	 0.269414
H	-0.8694866334	 1.8062159628	-0.0657442691	 0.26855
H	-2.1055621832	-2.5013924909	-0.0150213509	 0.135824
128.9238	235.4966	279.0384	342.417	356.1866	376.5793	467.6919	484.3656	502.5613	561.4477	592.8629	720.0984	782.3743	802.2313	810.5072	974.3781	996.6888	1097.0773	1238.3016	1288.3513	1310.7977	1393.0386	1495.0541	1516.667	1600.2119	1632.1619	1680.1954	3168.2987	3617.2637	3747.0222
NC1=NC=C(F)C(F)=N1	Nc1ncc(F)c(F)n1	
InChI=1S/C4H3F2N3/c5-2-1-8-4(7)9-3(2)6/h1H,(H2,7,8,9)	InChI=1S/C4H3F2N3/c5-2-1-8-4(7)9-3(2)6/h1H,(H2,7,8,9)
