19
gdb 71822	3.33563	1.76681	1.42531	1.6551	78.84	-0.2306	0.0043	0.2349	958.6493	0.160871	-385.873854	-385.866811	-385.865867	-385.904779	29.354	
C	 0.049984066	 1.5355380092	 0.084061081	-0.476224
C	-0.0491125776	 0.0389587893	-0.0417054606	 0.463451
C	 0.4460574078	-0.6644585776	-1.3367914083	-0.278707
C	-0.7751717263	-1.6645311737	-1.2519436751	-0.077551
C	-0.4466707094	-2.9923763188	-0.6167312329	-0.074978
C	-0.4558153666	-2.9241856414	 0.7168318048	-0.079702
C	-0.7789873799	-1.5223604984	 1.1692593545	 0.073991
O	 0.4003223165	-0.6417806964	 1.1609239392	-0.359663
C	-1.3458586789	-0.8119048597	-0.0768526185	-0.162724
H	 1.098477627	 1.8380515597	 0.1863934905	 0.127432
H	-0.3621314256	 2.0318335634	-0.8008020401	 0.112369
H	-0.4903565677	 1.8867380344	 0.9684831609	 0.121292
H	 0.3765868801	-0.0059203118	-2.2080313291	 0.095509
H	 1.4442090218	-1.1039630656	-1.2896442324	 0.105062
H	-1.3644937759	-1.7349967754	-2.1677438947	 0.071046
H	-0.1676660672	-3.8650376649	-1.1982144537	 0.098215
H	-0.1911456299	-3.7247157556	 1.3974370776	 0.098118
H	-1.3011591951	-1.4401061567	 2.1265779393	 0.07244
H	-2.3648224292	-0.4299568399	-0.0993076423	 0.070625
200.1781	207.8978	219.4481	336.6779	351.2148	413.7553	546.1849	582.338	670.1012	727.2524	768.8712	793.5437	811.3834	846.4862	871.4587	907.7921	921.1232	936.1799	951.1661	957.6951	975.6683	997.5511	1002.563	1093.2013	1120.3515	1150.6972	1167.8534	1187.4229	1199.0268	1226.2698	1253.9824	1287.8091	1303.1249	1314.408	1348.6021	1369.2527	1409.8932	1464.8847	1479.5078	1489.9576	1661.8735	3029.268	3053.3938	3065.8304	3089.3509	3097.4346	3108.6112	3122.4951	3130.0632	3181.3879	3211.5644
CC12CC3C=CC(O1)C23	C[C@@]12C[C@H]3C=C[C@@H](O1)[C@@H]23	
InChI=1S/C8H10O/c1-8-4-5-2-3-6(9-8)7(5)8/h2-3,5-7H,4H2,1H3	InChI=1S/C8H10O/c1-8-4-5-2-3-6(9-8)7(5)8/h2-3,5-7H,4H2,1H3/t5-,6-,7+,8+/m1/s1
