16
gdb 48609	2.71484	1.36611	1.06442	1.623	76.83	-0.2322	-0.0437	0.1885	1125.7433	0.122906	-400.631854	-400.623758	-400.622814	-400.664987	30.243	
O	-0.7091860567	 0.8844868065	 0.705117186	-0.241349
C	 0.1491784114	 0.90881767	-0.1418714378	 0.027527
C	 1.3668742585	 1.7737723769	-0.0617120881	 0.213376
C	 1.7563553796	 2.8215782344	 0.993810652	-0.204523
N	 2.9481259901	 2.9047295761	 0.0146221397	-0.149754
C	 2.8644335938	 1.3659454328	-0.0015232785	-0.224996
C	 1.8560178561	 2.8473154404	-1.0957414025	-0.216073
C	 2.2712384433	 2.4748671167	-2.4288380803	 0.329373
C	 2.5832221369	 2.1843815602	-3.5533749181	-0.417189
H	 0.0835375487	 0.2744706131	-1.0549338707	 0.085258
H	 1.1683560241	 3.7402174995	 1.0511185516	 0.114481
H	 2.0409501693	 2.461650642	 1.9833493495	 0.117552
H	 3.2144467013	 0.9047760216	 0.9242470597	 0.116718
H	 3.3149307657	 0.9095796312	-0.883144211	 0.130381
H	 1.2617935051	 3.7655690002	-1.11727925	 0.114627
H	 2.8670399329	 1.9304867383	-4.5451559017	 0.204592
66.1703	103.3803	177.7278	207.9332	262.3022	397.8185	441.9085	510.1248	553.9972	605.8944	640.4284	659.7879	712.9443	770.309	804.7833	886.5703	895.5621	922.5232	1010.8618	1018.8888	1057.353	1091.2722	1104.1606	1147.525	1162.4569	1175.2396	1197.4232	1264.037	1308.5538	1379.7606	1418.895	1510.3008	1546.5692	1815.9084	2231.7659	2874.8957	3067.3107	3071.9114	3077.7016	3144.7607	3152.0535	3499.7192
O=CC12CN(C1)C2C#C	O=C[C@@]12CN(C1)[C@H]2C#C	
InChI=1S/C7H7NO/c1-2-6-7(5-9)3-8(6)4-7/h1,5-6H,3-4H2	InChI=1S/C7H7NO/c1-2-6-7(5-9)3-8(6)4-7/h1,5-6H,3-4H2/t6-/m0/s1
