21
gdb 107065	3.93704	1.11272	0.99475	1.1069	78.95	-0.2475	0.0869	0.3344	1277.1591	0.181783	-424.210712	-424.201637	-424.200693	-424.244285	34.369	
C	-0.2977625101	 1.3112758242	-0.1027532988	-0.255154
O	 0.2568012596	 0.0184996773	 0.0708515874	-0.288609
C	 0.7827712188	-0.5251500219	-1.0913219826	 0.423372
C	-0.1126694079	-1.1189440857	-2.1491457581	-0.353719
C	 0.7850425218	-2.0087919981	-1.3067807194	-0.150593
C	 2.1498558027	-2.3496467043	-1.8854200882	 0.13221
C	 2.1794702675	-3.3646966039	-3.0161416542	-0.398314
O	 2.6495287333	-1.1009436149	-2.3869888074	-0.271177
C	 2.1525906446	-0.0510748023	-1.5698128082	-0.150683
H	 0.4633321228	 2.0518689205	-0.3864088758	 0.111701
H	-1.0864003093	 1.3118937473	-0.8678926001	 0.111721
H	-0.7293589027	 1.6028059333	 0.8573876708	 0.127996
H	-1.1710298098	-1.1606884777	-1.9172634701	 0.114936
H	 0.1293099047	-0.9606070248	-3.195354935	 0.120656
H	 0.3319875818	-2.6695181351	-0.5777124094	 0.097615
H	 2.7956433557	-2.7003624071	-1.0617958819	 0.069094
H	 1.5018458668	-3.0673116711	-3.8213860256	 0.12111
H	 3.1901642314	-3.4457499249	-3.4261087471	 0.124984
H	 1.8755207959	-4.3503347878	-2.6504186416	 0.114188
H	 2.141584048	 0.8581458078	-2.1801202246	 0.102962
H	 2.7891731845	 0.1241504994	-0.6867246304	 0.095704
90.242	128.2834	167.4693	193.1524	228.7778	244.4442	312.3966	367.8472	402.2839	410.4234	541.9165	612.8075	649.5889	727.2208	811.6475	874.2353	917.6091	923.9183	965.6216	987.6161	1023.16	1051.7019	1067.2639	1088.1017	1111.5207	1114.9848	1126.5134	1158.3986	1181.3266	1217.0697	1232.5038	1267.7416	1280.478	1343.2337	1349.1015	1383.4467	1403.8299	1411.2124	1466.3113	1485.9484	1486.6732	1493.223	1497.2181	1507.267	1516.6347	2950.3039	2972.5754	2992.6816	3042.8237	3045.6823	3066.4957	3116.2798	3120.5809	3121.3059	3129.9508	3189.783	3222.8719
COC12CC1C(C)OC2	CO[C@]12C[C@H]1[C@@H](C)OC2	
InChI=1S/C7H12O2/c1-5-6-3-7(6,8-2)4-9-5/h5-6H,3-4H2,1-2H3	InChI=1S/C7H12O2/c1-5-6-3-7(6,8-2)4-9-5/h5-6H,3-4H2,1-2H3/t5-,6+,7+/m1/s1
