16
gdb 50454	4.86375	0.98063	0.8454	1.0526	75.95	-0.2589	-0.0556	0.2033	1291.5106	0.124769	-437.908538	-437.900506	-437.899562	-437.942228	29.173	
N	-0.0553741382	 1.2907122796	-0.2362095397	-0.514644
C	-0.0112011969	 0.0503956626	 0.0337065537	 0.380337
O	 1.1753914938	-0.6163419279	 0.1658741455	-0.259861
C	 1.1605892243	-1.8546473996	 0.8787288107	-0.107634
C	 0.0828789789	-2.8240747901	 0.3678225165	-0.14655
C	-0.0435006126	-3.9770049289	 1.3553174307	 0.148332
O	 0.2868633693	-5.1094882328	 1.1265355523	-0.233396
C	-1.220654836	-2.0737507541	 0.2431901458	-0.100792
C	-1.2409695753	-0.7441893313	 0.1291644401	-0.107796
H	 0.892074496	 1.6717238028	-0.286265308	 0.225416
H	 2.1599228197	-2.2757037414	 0.7550766486	 0.138169
H	 0.9979051513	-1.653504092	 1.9473507574	 0.115243
H	 0.3794630137	-3.2565386749	-0.5953607137	 0.123233
H	-0.4708578401	-3.6847957805	 2.3425105266	 0.088395
H	-2.1448755095	-2.6446074549	 0.2343826629	 0.1203
H	-2.1603241885	-0.1801014067	 0.0309516807	 0.131247
43.2676	68.3243	192.1611	247.1126	297.4652	362.0403	401.5094	424.96	561.3721	573.1472	671.9579	764.9336	816.7214	827.8358	913.5612	926.3489	938.5747	1012.3903	1034.0006	1058.3633	1082.0234	1112.5652	1144.3391	1196.0268	1246.0211	1273.2064	1310.785	1350.2476	1411.1017	1424.1079	1435.1886	1504.4662	1682.0939	1733.2641	1837.3112	2866.0725	3006.6742	3044.9486	3116.0613	3169.7713	3218.8416	3466.1787
N=C1OCC(C=O)C=C1	[NH]C1=C[CH][C@@H](CO1)C=O	
InChI=1S/C6H7NO2/c7-6-2-1-5(3-8)4-9-6/h1-3,5,7H,4H2	InChI=1S/C6H7NO2/c7-6-2-1-5(3-8)4-9-6/h1-3,5,7H,4H2/t5-/m1/s1
