21
gdb 62593	2.93782	1.7074	1.65518	0.0839	83.37	-0.2154	0.0893	0.3047	964.0374	0.183334	-349.918409	-349.910849	-349.909905	-349.949659	31.967	
C	 0.0812898281	 1.5050932273	 0.0171111589	-0.424245
C	-0.0238510944	-0.0262510484	 0.0019241054	 0.288746
C	-1.4892199497	-0.4754356425	-0.0830884151	-0.424245
C	 0.8285380099	-0.6463393435	-1.1024884346	-0.089608
C	 2.2625692986	-0.8380226275	-0.6513320882	-0.099273
C	 1.3217991995	-2.0249663068	-0.7115386106	-0.099194
C	 1.2343183975	-2.0344496765	 0.8371433432	-0.099273
C	 2.1756179063	-0.8479275706	 0.8973775845	-0.099194
C	 0.6999892852	-0.6601686418	 1.1872525821	-0.089606
H	 1.1259439183	 1.824921098	 0.0776631643	 0.116083
H	-0.3547598767	 1.9393878185	-0.8895674705	 0.105687
H	-0.4537404662	 1.9287099711	 0.8744977743	 0.105692
H	-1.9667332933	-0.0934776034	-0.9924338986	 0.105692
H	-1.5637931329	-1.5670312602	-0.093878409	 0.116082
H	-2.0657818512	-0.1041484876	 0.7716276613	 0.105687
H	 0.6270647223	-0.433781657	-2.1469446088	 0.076381
H	 3.1335255053	-0.6152624289	-1.2518856445	 0.082046
H	 1.3348726183	-2.8846652309	-1.3669748427	 0.082057
H	 1.173978075	-2.9021074367	 1.4793117794	 0.082046
H	 2.9737324968	-0.6335850121	 1.5944571792	 0.082057
H	 0.3827488633	-0.4600553906	 2.20508075	 0.076381
176.5266	213.6429	232.4994	244.2061	322.4856	345.5229	538.7746	581.8771	601.1493	674.5524	724.4069	750.0347	781.7748	800.276	859.2873	876.815	914.6034	926.4953	931.6899	932.372	949.9456	963.1574	967.5592	1000.8183	1022.2987	1032.011	1039.3725	1051.0171	1080.1762	1094.9066	1206.08	1209.8204	1217.3074	1227.9579	1260.0263	1276.0912	1284.0218	1377.4108	1379.9211	1396.8925	1419.08	1482.5718	1488.6487	1503.8212	1505.4481	3023.2411	3028.0137	3084.9613	3089.8131	3103.9717	3105.0941	3170.9904	3174.5108	3196.1344	3206.2475	3208.0836	3217.87
CC1(C)C2C3C2C2C3C12	CC1(C)[C@H]2[C@@H]3[C@H]2[C@H]2[C@@H]3[C@@H]12	
InChI=1S/C9H12/c1-9(2)7-3-4(7)6-5(3)8(6)9/h3-8H,1-2H3	InChI=1S/C9H12/c1-9(2)7-3-4(7)6-5(3)8(6)9/h3-8H,1-2H3/t3-,4+,5-,6+,7+,8-
