21
gdb 63643	3.57283	1.10605	0.97813	1.6058	79.37	-0.2462	0.0743	0.3205	1302.0267	0.180708	-424.19606	-424.186553	-424.185608	-424.230756	34.91	
C	 0.2003829738	 1.5387003889	-0.1429906766	-0.469816
C	 0.0448604728	 0.0562839564	 0.1145571513	 0.39437
C	-1.0567284951	-0.6149433815	-0.6817842268	-0.447257
O	 1.2710009499	-0.7097524063	 0.1659340914	-0.298282
C	 0.4955395197	-0.5989018316	 1.3589862453	-0.016418
C	 1.1533590275	 0.0165788369	 2.5704705798	 0.099174
C	 2.4376953552	-0.7148433047	 3.0428013824	-0.28861
C	 3.1446582288	 0.6072541812	 2.6905250749	-0.060063
O	 1.891487018	 1.2350887367	 2.3422801696	-0.278752
H	 1.0320093842	 1.9498190202	 0.4248356097	 0.161967
H	 0.3666298238	 1.7100231133	-1.2127011013	 0.114059
H	-0.716923033	 2.0690978393	 0.1362956445	 0.112812
H	-0.891338572	-0.4675462914	-1.7546603513	 0.124232
H	-1.0870375494	-1.6894364187	-0.4848788802	 0.122117
H	-2.0329413355	-0.18486461	-0.4330254008	 0.119026
H	-0.0284627108	-1.5207991531	 1.6372617871	 0.077684
H	 0.3896987712	 0.1589158823	 3.3481314636	 0.080226
H	 2.4527377927	-0.9851406924	 4.099227518	 0.111132
H	 2.7226376757	-1.5755033835	 2.4366150426	 0.125252
H	 3.6394682735	 1.1279418963	 3.5182369767	 0.102298
H	 3.824320339	 0.5601124117	 1.8325877801	 0.114852
61.8158	75.0916	156.3224	166.5024	203.7417	219.0833	280.2127	313.775	373.3896	416.1195	511.3484	664.755	705.4251	748.7157	795.75	826.0356	896.5569	922.7586	946.4518	956.4826	977.6017	1009.9372	1034.6491	1046.2675	1092.2167	1126.2855	1145.0581	1165.4717	1172.2679	1220.4474	1255.5193	1262.4328	1274.8329	1340.8454	1358.9989	1379.7392	1405.6769	1417.5985	1464.0444	1478.0133	1484.2422	1485.6893	1506.7102	1519.8605	1527.0496	3003.3664	3027.8025	3031.4323	3035.9143	3040.9965	3072.0441	3086.3317	3088.1763	3098.0745	3121.4557	3144.7014	3179.5353
CC1(C)OC1C1CCO1	CC1(C)O[C@H]1[C@H]1CCO1	
InChI=1S/C7H12O2/c1-7(2)6(9-7)5-3-4-8-5/h5-6H,3-4H2,1-2H3	InChI=1S/C7H12O2/c1-7(2)6(9-7)5-3-4-8-5/h5-6H,3-4H2,1-2H3/t5-,6+/m1/s1
