19
gdb 90268	3.3063	1.52476	1.26712	1.4196	74.69	-0.2267	0.0639	0.2906	1026.7969	0.159896	-422.968296	-422.96066	-422.959716	-423.000323	30.483	
O	-0.1510160747	 1.4387776861	 0.1074422304	-0.427467
C	-0.0124384866	 0.0344978515	 0.0493968435	 0.10956
C	 0.3070943542	-0.6680225408	 1.4176179153	-0.370239
C	-1.1564710595	-1.0622285544	 1.4836490846	 0.500325
O	-1.6956754293	-2.1980429702	 2.1366501017	-0.333649
C	-2.9179028242	-1.4671910025	 2.4387921066	-0.105763
C	-2.3422273351	-0.1451168136	 1.8770394544	-0.134844
C	-2.6327830501	 0.1691434688	 0.3821040405	-0.24735
C	-1.4025199902	-0.6854675047	-0.0182748707	-0.119815
H	 0.7118056131	 1.8147323678	 0.3075239445	 0.286155
H	 0.6649038107	-0.2584183102	-0.7620936742	 0.072531
H	 0.9526657799	-1.5405560779	 1.2723777246	 0.110638
H	 0.7140987413	-0.0470983974	 2.2223640252	 0.093457
H	-3.7820289312	-1.8753597273	 1.8997338986	 0.100397
H	-3.1239473526	-1.4788994164	 3.514562843	 0.106216
H	-2.254427251	 0.6824356644	 2.5809193317	 0.075561
H	-3.5867411378	-0.223600533	 0.0184420198	 0.093256
H	-2.5558173969	 1.2236148152	 0.1149693549	 0.123041
H	-1.4940078799	-1.4189256052	-0.8196914343	 0.067991
77.3602	182.564	252.3204	279.3168	338.2405	375.5362	402.819	475.285	559.5035	649.7749	742.1712	789.2854	806.9837	827.7905	879.6871	904.4607	919.584	978.4352	997.9672	1008.1989	1022.601	1036.0656	1069.6045	1100.8118	1139.4734	1157.3083	1168.216	1196.1909	1205.0345	1217.0477	1253.4755	1260.907	1278.767	1299.3629	1313.6153	1339.4426	1352.8336	1407.4049	1465.6846	1476.1549	1516.4415	3015.0294	3016.9614	3040.4904	3058.3301	3067.8583	3095.1905	3106.3585	3110.1889	3130.859	3821.1295
OC1CC23OCC2CC13	O[C@H]1C[C@@]23OC[C@@H]2C[C@@H]13	
InChI=1S/C7H10O2/c8-6-2-7-4(3-9-7)1-5(6)7/h4-6,8H,1-3H2	InChI=1S/C7H10O2/c8-6-2-7-4(3-9-7)1-5(6)7/h4-6,8H,1-3H2/t4-,5-,6-,7+/m0/s1
