25
gdb 59758	2.09663	1.37873	1.132	1.6621	87.56	-0.2384	0.0699	0.3083	1279.2006	0.229042	-389.503471	-389.493281	-389.492337	-389.53816	38.496	
C	 0.9605841383	-0.077329887	 1.2831844693	-0.388837
C	 0.0282452837	 0.0790465982	 0.070458302	 0.029434
C	-0.4250532776	 1.5420027926	-0.0664919146	-0.395961
C	 0.6064002228	-0.4331169697	-1.273008211	-0.010985
C	 2.0057796581	 0.1023418427	-1.6121484694	-0.092733
O	 2.9339283911	-0.8021955564	-1.0227391261	-0.258367
C	 2.3492762326	-2.1007009923	-0.963792229	-0.07471
C	 0.8728429904	-1.9606365534	-1.3982699615	-0.004708
C	-0.0875326854	-2.9111022034	-0.6845740108	-0.425833
H	 1.2006874055	-1.1236470457	 1.4899776523	 0.112253
H	 1.9072399311	 0.450161976	 1.1358418975	 0.129209
H	 0.48301922	 0.3329005103	 2.1794219375	 0.103905
H	-0.8751481032	-0.5132560739	 0.2690298244	 0.071975
H	 0.422983912	 2.2113883023	-0.2510097527	 0.114672
H	-1.1332366113	 1.6671211991	-0.8926791267	 0.107746
H	-0.9156865558	 1.8847665618	 0.8503326943	 0.110192
H	-0.1029653421	-0.1348080226	-2.0539239868	 0.065515
H	 2.1473594685	 0.143678525	-2.7046626447	 0.08426
H	 2.214009535	 1.0991424933	-1.2118449999	 0.103626
H	 2.8994936937	-2.7902485614	-1.6191487499	 0.090686
H	 2.4411973502	-2.476255913	 0.0639812568	 0.096021
H	 0.823864938	-2.1873471851	-2.4708440043	 0.077192
H	-0.0704188689	-2.7761510856	 0.4009345544	 0.123943
H	-1.1180154906	-2.7666997695	-1.0256021424	 0.116757
H	 0.1809875638	-3.9531928823	-0.8893451985	 0.114747
89.2948	105.303	146.2681	193.0859	214.2383	228.6179	231.7862	277.6138	288.6448	359.115	377.927	479.8017	504.0022	635.5869	731.4524	770.9245	856.6612	897.682	921.4022	932.8424	940.398	952.6283	972.0165	990.4787	1027.6081	1079.7644	1084.3272	1122.1517	1142.2029	1166.8119	1180.3169	1204.5541	1220.7573	1249.8282	1272.0674	1316.9328	1344.0972	1353.0959	1370.1429	1379.8246	1389.8208	1403.699	1408.3413	1415.3397	1430.5542	1484.3241	1490.5739	1497.7546	1499.725	1501.7856	1507.8966	1518.3432	1532.5651	2964.1594	2997.0412	3008.1585	3010.1115	3025.926	3031.549	3034.2052	3039.5261	3042.1224	3075.0505	3092.551	3094.338	3097.2423	3103.7858	3110.1009	3118.9046
CC(C)C1COCC1C	CC(C)[C@H]1COC[C@H]1C	
InChI=1S/C8H16O/c1-6(2)8-5-9-4-7(8)3/h6-8H,4-5H2,1-3H3	InChI=1S/C8H16O/c1-6(2)8-5-9-4-7(8)3/h6-8H,4-5H2,1-3H3/t7-,8-/m1/s1
