19
gdb 69824	3.12587	1.58072	1.27965	1.1072	74.04	-0.2299	0.0691	0.299	1029.8217	0.159865	-422.994523	-422.986908	-422.985964	-423.02613	30.851	
C	 0.0123089869	 1.4810243047	-0.0485599177	-0.446999
C	-0.0293888258	-0.0220749676	 0.0490718378	 0.43441
C	-0.8692529445	-0.6905946411	 1.0998339389	-0.370017
C	 0.6511949902	-0.7309443235	 1.2060738756	-0.122835
C	 1.3721571886	-2.004655051	 0.8799250422	 0.048257
O	 0.6181529049	-3.2162674833	 0.7742645627	-0.253174
C	 1.1429967872	-2.6378449612	-0.4298497274	 0.012226
C	 0.1421977065	-1.9788636121	-1.3630873572	-0.121882
O	 0.1027765601	-0.5617636899	-1.2398175659	-0.297624
H	 0.9410997516	 1.8063234691	-0.5274761146	 0.124977
H	-0.8265150014	 1.8505328238	-0.647078132	 0.1264
H	-0.045494622	 1.9343511945	 0.9445922998	 0.115097
H	-1.4075871027	-0.0585078082	 1.7970403575	 0.113329
H	-1.3530012531	-1.635093089	 0.884193257	 0.135497
H	 1.1226091842	-0.1175139213	 1.9663765368	 0.083972
H	 2.3453768025	-2.127564197	 1.3523493504	 0.094
H	 1.9383506961	-3.2188968928	-0.8929626807	 0.097993
H	 0.4199135278	-2.158776472	-2.4048642466	 0.114406
H	-0.8530806071	-2.4170811522	-1.1993328765	 0.111968
157.8453	189.4786	215.6293	278.5816	349.5785	389.5407	411.3284	483.9706	519.9929	573.8623	679.3159	762.2696	771.4769	800.1597	840.2663	890.4541	901.9489	928.6529	959.5377	1011.9758	1045.6807	1047.652	1057.6558	1092.5807	1114.408	1118.4899	1123.3817	1162.7928	1261.4507	1278.9783	1289.2721	1298.2548	1373.1744	1395.6456	1408.4033	1428.3854	1451.5526	1477.8749	1481.2314	1497.3816	1506.7762	3000.3947	3038.6642	3091.6537	3105.6463	3116.9898	3120.128	3130.3167	3143.9688	3163.8286	3234.2932
CC12CC1C1OC1CO2	C[C@]12C[C@H]1[C@H]1O[C@H]1CO2	
InChI=1S/C7H10O2/c1-7-2-4(7)6-5(9-6)3-8-7/h4-6H,2-3H2,1H3	InChI=1S/C7H10O2/c1-7-2-4(7)6-5(9-6)3-8-7/h4-6H,2-3H2,1H3/t4-,5-,6+,7-/m0/s1
