22
gdb 9838	3.16949	1.37958	1.16846	1.2793	77.71	-0.2596	0.0782	0.3378	1136.6374	0.19874	-350.191268	-350.181637	-350.180693	-350.225183	36.206	
C	 0.3135676722	 1.3057330251	 0.5381080732	-0.420366
C	-0.0423713397	-0.0879755133	 0.0044860084	-0.027669
C	-1.5559736054	-0.1895532559	-0.2286847595	-0.071744
O	-2.2108060022	-0.0433248192	 1.0257439886	-0.423237
C	 0.7242321638	-0.5312853104	-1.2511019921	 0.368287
C	 0.7627631958	-2.0385583669	-1.4518338133	-0.461636
C	 0.6628602162	 0.3185423759	-2.502492355	-0.299479
C	 1.949481051	 0.2199150671	-1.7202863062	-0.316051
H	 1.3465950115	 1.3495198677	 0.8930151914	 0.112513
H	 0.1839716554	 2.0806308798	-0.226952116	 0.108143
H	-0.3455610624	 1.551563502	 1.3734277004	 0.134015
H	 0.1910930125	-0.8111875752	 0.7982924182	 0.078146
H	-1.8696377575	 0.596863938	-0.9337713509	 0.082698
H	-1.8077230958	-1.1576142103	-0.6857069033	 0.083041
H	-3.1592074125	-0.0314798636	 0.8698984479	 0.284996
H	-0.2404444592	-2.4723828121	-1.5253591561	 0.114659
H	 1.298623647	-2.2996754681	-2.3697667077	 0.109796
H	 1.2745547092	-2.5309489404	-0.6164374041	 0.11557
H	 0.596168381	-0.1847772507	-3.4615342479	 0.105336
H	 0.1269302457	 1.261201933	-2.4638568339	 0.108087
H	 2.2759681087	 1.0976167315	-1.1762367041	 0.111173
H	 2.7619659547	-0.3635966341	-2.1408961381	 0.103722
68.8937	98.2899	200.2932	213.5378	234.9678	254.5569	291.3373	316.1214	335.9618	347.0774	439.651	459.2625	503.257	713.1846	789.2985	852.6991	869.4367	912.6049	927.524	948.0985	951.3328	1031.5506	1050.8558	1063.4034	1074.8995	1082.4362	1118.2188	1125.6996	1165.1772	1190.3005	1241.7262	1264.4997	1276.3408	1339.619	1345.4951	1383.0604	1402.6435	1417.3499	1453.1738	1467.5314	1493.192	1493.7211	1502.2432	1508.4434	1515.0714	1518.9785	2970.4321	3001.338	3014.7068	3024.8709	3034.8573	3083.6715	3097.5211	3102.1941	3125.8944	3130.0653	3136.6096	3204.0691	3223.5475	3834.1879
CC(CO)C1(C)CC1	C[C@@H](CO)C1(C)CC1	
InChI=1S/C7H14O/c1-6(5-8)7(2)3-4-7/h6,8H,3-5H2,1-2H3	InChI=1S/C7H14O/c1-6(5-8)7(2)3-4-7/h6,8H,3-5H2,1-2H3/t6-/m0/s1
