21
gdb 133863	2.74553	2.00151	1.36002	0.4506	91.34	-0.2008	-0.0152	0.1856	995.0389	0.183006	-349.790689	-349.783068	-349.782124	-349.822503	31.336	
C	-1.2558237648	 1.4892287778	-0.5036279716	-0.29417
C	-1.3214751846	 0.0125406497	-0.0050776575	 0.08508
C	-1.2801578945	-1.4731054024	-0.4789795467	-0.294158
C	-0.0161792437	-1.7428457963	 0.3852170447	-0.105269
C	 1.2642302958	-1.4934302381	-0.4606853384	-0.294168
C	 1.3227362897	-0.0087669463	 0.0145265004	 0.085076
C	 1.2885564521	 1.4689136357	-0.4842022833	-0.294156
C	 0.0120492669	 1.7526185947	 0.356797188	-0.105269
C	-0.0042033087	 0.0072760403	 0.6626611271	 0.091463
H	-2.1354685104	 2.0814605116	-0.2398130852	 0.095128
H	-1.0619984563	 1.6243618121	-1.5709456192	 0.102635
H	-2.0526842654	 0.0253149288	 0.812384924	 0.096458
H	-1.0891645937	-1.6290268151	-1.5439644644	 0.10262
H	-2.1691713448	-2.0464993341	-0.205135203	 0.095124
H	-0.0279063014	-2.5798615927	 1.0834853868	 0.070822
H	 1.0860925956	-1.6460459331	-1.5283798042	 0.102635
H	 2.1398299652	-2.0811598683	-0.1743101169	 0.095128
H	 2.0418613336	-0.0080634674	 0.8427371496	 0.096457
H	 1.1132506054	 1.6073463106	-1.554289626	 0.10262
H	 2.1735167716	 2.0468266917	-0.2067530397	 0.095124
H	 0.0136194421	 2.6009594908	 1.0413605154	 0.070822
91.5385	135.5972	247.981	305.1141	380.9909	426.0755	451.6293	472.7898	586.8716	681.5018	741.6635	785.2956	796.2825	859.615	863.8205	872.944	913.5978	954.9977	956.0893	956.0977	978.4117	986.9458	1030.0623	1038.921	1106.2992	1107.8657	1108.4881	1113.6942	1177.7972	1186.6276	1201.3893	1207.0516	1229.6734	1240.5237	1251.4922	1281.6297	1282.8327	1290.0913	1374.9063	1375.5795	1375.7288	1485.1558	1490.5753	1503.9	1513.2268	3013.062	3013.91	3053.5757	3055.1408	3056.8825	3060.6046	3101.0719	3103.6143	3104.7757	3107.3454	3119.9721	3120.9259
C1C2CC3CC4CC1C234	C1[C@H]2C[C@H]3C[C@H]4C[C@@H]1[C@]234	
InChI=1S/C9H12/c1-5-2-7-4-8-3-6(1)9(5,7)8/h5-8H,1-4H2	InChI=1S/C9H12/c1-5-2-7-4-8-3-6(1)9(5,7)8/h5-8H,1-4H2/t5-,6+,7-,8+,9-
