16
gdb 123782	4.51411	1.13765	0.97949	3.3343	73.53	-0.2085	-0.0001	0.2083	1184.8903	0.125155	-434.030538	-434.02274	-434.021796	-434.06335	29.147	
C	 0.8838772583	 0.7655773085	 0.5348984516	-0.275812
C	 0.597718938	 0.2151564961	-0.8412890211	-0.275809
C	-0.5330389157	 0.3896572106	 0.1519626073	 0.057572
N	-1.274201658	-0.680802298	 0.7342333927	-0.405969
C	-0.7932636578	-1.7883167785	 1.0772876548	 0.545599
N	-1.503322769	-2.8436425543	 1.6470782784	-0.360997
C	-0.6298407866	-3.8610169779	 1.8723816183	 0.084508
N	 0.5774884519	-3.5906764162	 1.5135710949	-0.126741
O	 0.5031946008	-2.2596877875	 0.9964438179	-0.261098
H	 1.4081641677	 0.1160640331	 1.2247676039	 0.129297
H	 1.110469586	 1.8206557234	 0.6438172775	 0.107726
H	 0.6245464805	 0.8859409549	-1.6931846826	 0.10773
H	 0.9356594517	-0.7927748396	-1.047524202	 0.129286
H	-1.1864778089	 1.2323189354	-0.0491985996	 0.088565
H	-2.4884362319	-2.8100916173	 1.8385183913	 0.287769
H	-0.9099976471	-4.8078102127	 2.3093512465	 0.168375
71.7289	121.7181	145.5244	214.0008	325.4806	388.2959	443.5212	540.9617	607.0333	678.2331	708.8523	770.6763	821.6347	837.7522	874.9597	889.4242	922.2538	929.2158	936.7699	1009.0701	1052.7877	1074.6769	1129.2735	1144.4172	1165.2516	1201.4188	1206.1526	1244.9132	1315.9289	1408.5634	1446.8628	1464.0844	1496.0625	1650.7617	1825.5063	3140.0061	3142.9234	3153.8679	3228.3593	3241.303	3263.8832	3702.7446
C1CC1N=C1NC=NO1	C1CC1N=c1[nH]cno1	
InChI=1S/C5H7N3O/c1-2-4(1)8-5-6-3-7-9-5/h3-4H,1-2H2,(H,6,7,8)	InChI=1S/C5H7N3O/c1-2-4(1)8-5-6-3-7-9-5/h3-4H,1-2H2,(H,6,7,8)
