19
gdb 122466	2.71736	0.87929	0.725	4.2613	77.58	-0.2612	0.0155	0.2768	1594.9735	0.158156	-419.182778	-419.172953	-419.172009	-419.219157	34.152	
C	-0.0130383769	 1.1145845896	 0.7665744281	-0.386351
C	-0.0937531699	-0.0425694282	-0.2135778974	-0.027546
O	-1.3516282301	-0.6751600337	-0.0603362854	-0.251569
C	-1.5282278593	-1.7747151035	-0.9200236855	-0.058026
C	-2.8942365047	-2.3506518859	-0.6499933234	-0.036561
N	-3.1225695014	-3.7183492056	-1.1059009015	-0.321378
C	-3.1134822455	-3.445993584	 0.3471629526	-0.179961
C	-2.0240749636	-4.0141625206	 1.1046331349	 0.336527
N	-1.1597734003	-4.4563063681	 1.7321870788	-0.33655
H	 0.9486989081	 1.6270655794	 0.6706955963	 0.117378
H	-0.8120771928	 1.8366789672	 0.5757054195	 0.124667
H	-0.1136943621	 0.7536484896	 1.7938297307	 0.132428
H	 0.0238741864	 0.3161890326	-1.2502437632	 0.086256
H	 0.7163170896	-0.7665073427	-0.0280127242	 0.098035
H	-1.4658450855	-1.4663023893	-1.9780922372	 0.094188
H	-0.7598251967	-2.5459639734	-0.7586405963	 0.117548
H	-3.708062152	-1.6321404957	-0.7276438295	 0.108384
H	-4.0795643695	-3.8502779709	-1.4214794938	 0.24919
H	-4.0604490639	-3.4437414065	 0.8796584265	 0.133342
31.3507	64.0369	110.0521	123.0719	169.146	228.5301	247.0971	308.1627	340.3565	429.7917	495.5739	580.3837	607.5216	798.0453	821.9899	831.0236	893.9394	930.8808	977.8504	1011.3127	1022.9772	1051.158	1121.3986	1149.9199	1169.3396	1182.5067	1200.0322	1214.7179	1244.0806	1279.3375	1298.0667	1361.6507	1398.8301	1409.369	1438.4594	1480.0243	1484.1497	1499.2444	1511.3458	1533.9495	2361.3494	2953.8053	2963.5633	2989.9999	3010.0302	3046.1813	3120.5115	3123.9161	3132.9574	3153.2664	3516.2255
CCOCC1NC1C#N	CCOC[C@H]1N[C@H]1C#N	
InChI=1S/C6H10N2O/c1-2-9-4-6-5(3-7)8-6/h5-6,8H,2,4H2,1H3	InChI=1S/C6H10N2O/c1-2-9-4-6-5(3-7)8-6/h5-6,8H,2,4H2,1H3/t5-,6+/m0/s1
