25
gdb 101865	5.12161	0.51104	0.48664	0.8756	96.28	-0.2573	0.0585	0.3158	2325.3894	0.225906	-352.338334	-352.326593	-352.325649	-352.376352	42.154	
C	-0.1814036747	 1.5353783095	 0.1109405856	-0.392406
C	 0.0037094072	 0.0194221408	-0.0126131409	-0.164944
C	 0.8142925234	-0.4408023559	-1.2404932352	 0.037313
C	 2.2650309921	 0.0608546387	-1.1881170701	-0.391162
C	 0.7402434818	-1.9743107431	-1.3736580078	-0.177576
C	 1.32131505	-2.5439365897	-2.6720835649	-0.188328
C	 1.1182256039	-4.0697056768	-2.7801757385	-0.355231
C	 1.6684728249	-4.635141396	-4.0060958351	 0.292812
C	 2.131179715	-5.0749968395	-5.0247717253	-0.437755
H	 0.7684696063	 2.0566310362	 0.2626663996	 0.118201
H	-0.647926484	 1.95087138	-0.789658362	 0.112678
H	-0.8266020118	 1.7807488091	 0.9604644463	 0.111603
H	 0.4848009904	-0.3668270309	 0.8971033384	 0.090943
H	-0.986032433	-0.4532850392	-0.0536252451	 0.089849
H	 0.3366617408	-0.007148215	-2.1327165704	 0.067622
H	 2.8282101509	-0.2278480454	-2.0799830369	 0.116238
H	 2.3120920577	 1.15107245	-1.1175344871	 0.114742
H	 2.7866986531	-0.3524234756	-0.3158355265	 0.109557
H	 1.2491947209	-2.4339619826	-0.5135909692	 0.090489
H	-0.3125105437	-2.2799335453	-1.2987031641	 0.08851
H	 0.8486514701	-2.0619276417	-3.5364251979	 0.106988
H	 2.3925781906	-2.3315895952	-2.7467072638	 0.112717
H	 1.580238899	-4.5606745402	-1.9132405893	 0.128069
H	 0.0463299779	-4.30093165	-2.7206767703	 0.127606
H	 2.5361129312	-5.475034342	-5.9208383697	 0.191466
41.148	59.9472	81.6849	97.8728	121.4176	184.2624	207.9099	256.6431	280.5375	299.4233	350.6605	368.4123	421.8848	491.2787	539.1093	614.2089	633.0424	739.6303	771.516	812.0573	848.3232	906.9891	958.4558	969.61	987.5666	1023.4673	1032.706	1039.7556	1067.1817	1138.2058	1150.7134	1178.567	1214.9722	1257.192	1291.7781	1304.5084	1320.2788	1327.5156	1360.8925	1381.1077	1384.0226	1393.1999	1410.0115	1413.6019	1473.2145	1476.5582	1487.2205	1495.2541	1499.6774	1503.4388	1508.0855	1513.7555	2238.089	2984.1176	2996.9898	3009.0387	3013.806	3029.3853	3029.7801	3032.8295	3037.9189	3043.2888	3044.6022	3087.768	3096.7117	3098.1227	3105.8548	3114.3997	3508.0626
CCC(C)CCCC#C	CC[C@@H](C)CCCC#C	
InChI=1S/C9H16/c1-4-6-7-8-9(3)5-2/h1,9H,5-8H2,2-3H3	InChI=1S/C9H16/c1-4-6-7-8-9(3)5-2/h1,9H,5-8H2,2-3H3/t9-/m1/s1
