16
gdb 85649	2.03205	1.70532	1.20862	5.2895	68.58	-0.2864	-0.0177	0.2687	1065.458	0.124905	-437.949037	-437.940828	-437.939884	-437.982288	29.885	
C	 0.7188263571	 1.3694511371	-0.1645740523	-0.406296
C	 0.025934488	 0.0190093002	-0.0451957476	 0.114057
C	 0.304656531	-0.959624676	-1.2070635632	-0.260378
C	 1.4912216278	-1.7951524742	-0.6875321136	-0.291621
C	 2.7944719114	-1.3021180077	-1.1242826295	 0.292223
N	 3.813547166	-0.8925092774	-1.4843226128	-0.320369
C	 1.352836483	-1.671410218	 0.8558073182	 0.440124
O	 1.8858228874	-2.348221245	 1.6795431495	-0.321193
O	 0.4977271453	-0.668261265	 1.1403764295	-0.216443
H	 1.7921132744	 1.2528622343	-0.3421681637	 0.153314
H	 0.2912104408	 1.9344183424	-0.998668854	 0.12911
H	 0.5798139191	 1.9475756181	 0.7523310371	 0.143042
H	-1.0476557001	 0.1586486202	 0.1031593217	 0.11
H	-0.5527896067	-1.6181463757	-1.3636405432	 0.131345
H	 0.5173801393	-0.4426190491	-2.1431088393	 0.141878
H	 1.4182092862	-2.8533693143	-0.948897877	 0.161208
73.1905	107.8432	148.4246	225.7727	251.8006	337.2907	420.2403	433.325	472.1354	543.8329	665.7933	695.6275	737.8113	791.6477	865.556	894.5261	945.2211	995.8116	1042.4589	1061.8993	1127.3824	1132.1861	1169.3164	1200.2118	1240.879	1308.0167	1338.0021	1367.6296	1390.7873	1418.6116	1486.3507	1494.999	1498.2569	1893.4983	2358.27	3045.6408	3073.8897	3084.4877	3096.2828	3121.3796	3130.8863	3139.673
CC1CC(C#N)C(=O)O1	C[C@H]1C[C@@H](C#N)C(=O)O1	
InChI=1S/C6H7NO2/c1-4-2-5(3-7)6(8)9-4/h4-5H,2H2,1H3	InChI=1S/C6H7NO2/c1-4-2-5(3-7)6(8)9-4/h4-5H,2H2,1H3/t4-,5-/m0/s1
