22
gdb 62513	1.96206	1.44684	1.19796	3.7383	84.63	-0.2429	0.0113	0.2542	1218.845	0.190212	-404.36401	-404.35307	-404.352125	-404.39935	39.678	
C	 0.1396526902	 1.388523309	-0.2161939178	-0.454566
C	-0.0480415674	-0.1093536276	-0.030033998	 0.240783
C	-1.3912660434	-0.5848056416	-0.5603719564	-0.445007
N	 1.0849973812	-0.9986445442	-0.2570015216	-0.114643
C	 2.3178123876	-0.7332977541	-0.7997501744	 0.138228
O	 3.3788593979	-1.0330549042	-0.3001946757	-0.31332
C	 0.6472790769	-0.84356002	 1.1203986038	 0.247466
C	 1.5402089135	-0.0952028874	 2.0966933962	-0.447747
C	 0.007874402	-2.0676270775	 1.7565690953	-0.447814
H	 1.1295573551	 1.7372526345	 0.0798781437	 0.130949
H	-0.0079522856	 1.6598439902	-1.2672215015	 0.125773
H	-0.6061507235	 1.9378483045	 0.3683027069	 0.127777
H	-1.507951781	-0.2820569504	-1.6068468935	 0.122057
H	-1.4968472807	-1.668289922	-0.5157318713	 0.130062
H	-2.2101387151	-0.130118217	 0.0078251467	 0.121474
H	 2.2361064714	-0.2718118839	-1.8044868285	 0.074327
H	 2.0120548765	 0.7868165476	 1.6653942855	 0.126391
H	 0.9563610202	 0.2156983522	 2.9696869113	 0.115673
H	 2.343050775	-0.7538281217	 2.4392295756	 0.145131
H	 0.7828171497	-2.689752775	 2.2162755003	 0.131801
H	-0.6922059286	-1.7703899514	 2.5449768874	 0.118628
H	-0.523019992	-2.6845664401	 1.031868926	 0.126578
108.6044	117.274	141.5277	148.2654	174.2052	181.523	190.9745	248.065	286.733	314.5544	366.151	389.3821	447.2499	459.9147	518.1782	627.0653	655.6049	727.7613	865.2821	945.3001	958.631	976.7226	1002.0028	1013.3278	1020.8129	1036.3737	1135.3071	1151.5123	1205.7387	1218.6198	1257.8158	1276.4205	1402.1753	1411.3584	1413.1681	1419.685	1431.2875	1441.1704	1467.7461	1476.6777	1481.1261	1487.7867	1493.9434	1500.5579	1510.896	1524.2918	1783.8614	2928.4165	3035.147	3039.2764	3041.0131	3048.9227	3091.5179	3096.6989	3099.0702	3112.7883	3134.8364	3141.2294	3155.6595	3156.297
CC1(C)N(C=O)C1(C)C	CC1(C)N(C=O)C1(C)C	
InChI=1S/C7H13NO/c1-6(2)7(3,4)8(6)5-9/h5H,1-4H3	InChI=1S/C7H13NO/c1-6(2)7(3,4)8(6)5-9/h5H,1-4H3
