19
gdb 79498	2.30974	1.78891	1.22567	2.7208	80.72	-0.243	-0.03	0.2131	1068.5342	0.158434	-385.826284	-385.818178	-385.817233	-385.85908	30.959	
C	-0.196250699	 1.6131732493	-0.1584930914	-0.424739
C	-0.0546496892	 0.1055570881	-0.0095911555	-0.066717
C	 1.1559798884	-0.6156971396	-0.6429668812	-0.053402
C	 2.1364057712	-0.2275784737	 0.5254829075	-0.083579
C	 2.5836721849	-1.6889040994	 0.7308732943	-0.272625
C	 1.0887378078	-1.793264878	 0.3841567104	-0.080573
C	 0.7371273949	-0.4685163401	 1.1939033828	 0.273773
C	 0.4227317077	-0.4401251966	 2.6454759762	 0.019317
O	 1.2507573421	-0.3902308833	 3.5241810208	-0.253904
H	 0.7511665878	 2.1286337716	 0.0290927645	 0.120212
H	-0.5231986026	 1.8745593526	-1.1708846684	 0.119453
H	-0.9388737803	 2.0143186192	 0.5397830041	 0.118961
H	-1.0120722167	-0.3997436047	-0.1918806139	 0.066934
H	 1.4259862199	-0.7065469675	-1.6967090901	 0.072955
H	 2.7287533313	 0.6828857744	 0.6102651172	 0.082598
H	 3.2778790162	-2.0955385422	-0.0113428127	 0.093924
H	 2.8809608624	-1.9707458831	 1.7432387094	 0.118839
H	 0.4403353086	-2.6686296926	 0.3170779118	 0.079217
H	-0.6651163052	-0.4912234143	 2.8875325039	 0.069355
71.7179	161.5184	194.7812	205.3455	220.4773	288.2445	434.553	487.3956	517.6174	684.8659	722.1376	729.7341	838.6625	849.7266	879.227	907.0526	916.9523	957.1035	1003.1265	1023.4889	1032.1394	1060.2623	1081.502	1103.2351	1116.6849	1125.7742	1153.8767	1165.9402	1184.1723	1219.0811	1236.6309	1258.7644	1272.2997	1313.2356	1399.3474	1415.4696	1424.2449	1493.9858	1497.5767	1507.6627	1802.5729	2851.1815	3021.3994	3030.806	3049.3657	3092.9676	3093.515	3101.7965	3104.5916	3118.2316	3122.6212
CC1C2C3CC2C13C=O	C[C@H]1[C@H]2[C@@H]3C[C@H]2[C@]13C=O	
InChI=1S/C8H10O/c1-4-7-5-2-6(7)8(4,5)3-9/h3-7H,2H2,1H3	InChI=1S/C8H10O/c1-4-7-5-2-6(7)8(4,5)3-9/h3-7H,2H2,1H3/t4-,5-,6+,7-,8+/m0/s1
