16
gdb 34245	3.31809	1.62049	1.40054	4.7757	72.68	-0.2665	-0.004	0.2625	937.3453	0.126661	-400.71849	-400.712011	-400.711067	-400.74929	26.388	
N	-0.0401037991	-1.1288928306	 0.0830597823	-0.337068
C	-0.0696339047	 0.0263509858	 0.0484456129	 0.190192
C	-0.0704118382	 1.464239925	-0.0265894325	 0.381243
O	-1.0066695096	 2.1694972001	 0.784622087	-0.325037
C	-0.6638987233	 3.3104145944	-0.0691353444	 0.047731
C	 0.7617557352	 3.6225867241	 0.4245072831	-0.212052
C	 1.3330692323	 2.2777684768	-0.0657285739	-0.129018
C	 1.1465179848	 2.3946708	-1.600275838	-0.251856
C	-0.3539940582	 2.3384834355	-1.2778358433	-0.119629
H	-1.4318279659	 4.0796463035	-0.0936355481	 0.098258
H	 1.23808191	 4.4763819853	-0.0641652598	 0.108271
H	 0.7711828861	 3.7582072502	 1.5069894443	 0.121338
H	 2.2379014093	 1.8802734564	 0.3866902403	 0.093878
H	 1.5550430005	 3.2818329456	-2.0900238714	 0.10728
H	 1.4601936426	 1.4956689283	-2.1370554593	 0.12477
H	-1.1492925618	 2.1172959898	-1.985676899	 0.101699
144.8208	156.4041	379.3555	430.1929	510.5194	522.1339	534.1457	551.3353	693.6321	732.1878	800.9666	833.2855	884.6813	901.6387	933.4475	947.4546	967.4604	982.4965	988.6272	1031.0008	1065.8818	1088.3092	1100.7847	1147.2033	1178.9027	1217.0213	1232.5567	1246.8349	1275.7856	1279.4443	1315.5156	1327.4027	1477.7222	1503.1479	2355.9135	3063.9146	3072.9011	3120.0798	3133.6675	3150.9719	3156.8991	3160.8985
N#CC12OC3CC1CC23	N#C[C@@]12O[C@H]3C[C@@H]1C[C@@H]23	
InChI=1S/C7H7NO/c8-3-7-4-1-5(7)6(2-4)9-7/h4-6H,1-2H2	InChI=1S/C7H7NO/c8-3-7-4-1-5(7)6(2-4)9-7/h4-6H,1-2H2/t4-,5+,6-,7+/m0/s1
