18
gdb 18170	3.61237	1.53213	1.34265	1.3874	67.48	-0.2466	0.0746	0.3212	970.7585	0.153756	-384.894454	-384.886389	-384.885445	-384.92679	30.375	
O	-0.1477672389	 1.5236260421	-0.0653370917	-0.428451
C	 0.0451812014	 0.1231126986	 0.1162258123	-0.106478
C	-1.3130461312	-0.5371955473	-0.0348470608	 0.049959
C	-1.9723208881	-0.6539174223	-1.4463038491	-0.244986
C	-2.1761408372	-2.158233786	-1.2167167273	-0.119884
C	-0.8635792968	-2.8387864628	-0.9873011142	 0.110505
O	 0.3298313517	-2.4448868763	-1.6110637462	-0.417426
C	-1.4359249921	-2.0571259296	 0.1478047125	-0.132283
H	 0.7172517516	 1.9422579721	-0.0863941931	 0.283936
H	 0.7462165923	-0.2877251008	-0.6192332349	 0.110001
H	 0.4451643609	-0.0954311111	 1.1211323209	 0.075845
H	-2.0082016603	-0.0302380378	 0.641682916	 0.082894
H	-2.9052941696	-0.0944359858	-1.5253559274	 0.104354
H	-1.3325270364	-0.3915311286	-2.2939089663	 0.092963
H	-3.0719655341	-2.7149298057	-1.4674328665	 0.083414
H	-0.947305046	-3.9173238737	-0.8438015239	 0.086741
H	 0.2506533406	-2.643629489	-2.5503433969	 0.285076
H	-1.667195168	-2.5415220758	 1.0901945265	 0.083822
91.1882	150.5219	184.0143	247.7543	255.655	281.811	372.3194	425.5643	488.4618	614.6889	727.0302	743.2521	813.2459	849.5659	891.0188	949.3813	986.9213	997.2003	1015.3401	1043.1651	1074.026	1077.3078	1101.1605	1126.1242	1168.4568	1212.4517	1228.7955	1253.7653	1267.3059	1277.9082	1298.9353	1305.633	1344.8483	1376.7721	1452.9295	1456.1313	1491.0126	1526.0613	2957.619	3048.9273	3061.0543	3067.4117	3090.48	3121.5876	3164.3267	3176.8377	3801.1437	3833.9318
OCC1CC2C(O)C12	OC[C@H]1C[C@H]2[C@@H](O)[C@@H]12	
InChI=1S/C6H10O2/c7-2-3-1-4-5(3)6(4)8/h3-8H,1-2H2	InChI=1S/C6H10O2/c7-2-3-1-4-5(3)6(4)8/h3-8H,1-2H2/t3-,4-,5+,6-/m1/s1
