20
gdb 58202	2.73487	0.99958	0.8819	4.0776	75.78	-0.2781	0.0089	0.2869	1398.6204	0.167978	-440.292909	-440.282082	-440.281138	-440.328973	38.835	
C	 0.9977662593	-0.3994234048	-0.9697315089	-0.424653
C	 0.0240706952	 0.0368993187	 0.1365053356	 0.029868
C	-0.0412950301	 1.5671557618	 0.2348347093	-0.403902
C	-1.3959849195	-0.5359299407	-0.0547109306	 0.101216
O	-1.9829283019	-0.1945935572	-1.296933322	-0.423968
C	-1.4523960023	-2.0740960969	 0.1553302534	-0.061089
O	-0.9239099989	-2.4826398752	 1.4035483896	-0.404893
C	-2.8321051461	-2.567405507	-0.0227839219	 0.269407
N	-3.9152515133	-2.96237908	-0.0983480578	-0.316414
H	 1.99711866	-0.0037006632	-0.7673011946	 0.12914
H	 1.0930388559	-1.4873733178	-1.0457343114	 0.122437
H	 0.6987422586	-0.0090615943	-1.9502130996	 0.114141
H	 0.390863029	-0.3653437756	 1.0875850933	 0.094923
H	 0.9583756329	 1.9936089237	 0.3616414911	 0.113339
H	-0.4832370902	 1.9934824033	-0.6710748135	 0.130086
H	-0.652769268	 1.8855045099	 1.0855730377	 0.113914
H	-2.0544580486	-0.0844137368	 0.6986170792	 0.09458
H	-1.4115177581	-0.5138878092	-2.0041007746	 0.289387
H	-0.8246471556	-2.5606675298	-0.6000043999	 0.133207
H	-1.5311432685	-2.1990705587	 2.0971129056	 0.299274
43.6513	76.1978	127.2732	204.8221	213.0857	237.4793	243.7542	264.1399	287.69	324.7527	326.9943	367.0132	426.5241	457.6189	534.2707	605.3925	631.7632	816.5438	908.0979	926.496	943.8351	967.3887	1030.0212	1067.2973	1088.1434	1108.4179	1159.489	1202.6539	1219.1162	1288.0176	1289.1772	1336.14	1370.8002	1383.4597	1401.5871	1413.7359	1422.7558	1426.0477	1487.5492	1494.8011	1510.1367	1513.5143	2357.2751	3026.9547	3029.2637	3036.4207	3050.2482	3060.0259	3094.082	3103.1364	3107.9087	3113.7407	3800.5012	3806.7922
CC(C)C(O)C(O)C#N	CC(C)[C@@H](O)[C@@H](O)C#N	
InChI=1S/C6H11NO2/c1-4(2)6(9)5(8)3-7/h4-6,8-9H,1-2H3	InChI=1S/C6H11NO2/c1-4(2)6(9)5(8)3-7/h4-6,8-9H,1-2H3/t5-,6+/m0/s1
