19
gdb 65270	3.38412	1.1771	1.15828	0.9883	70.72	-0.2575	0.0827	0.3402	1149.7861	0.158865	-460.139674	-460.131071	-460.130127	-460.173486	31.633	
C	-0.1248159621	 1.4463096546	-0.623662669	-0.472797
C	-0.0247688638	-0.0049890096	-0.2159154148	 0.407334
C	 1.2492975658	-0.725722547	-0.3406174248	-0.234716
O	 0.7806328236	-0.2886187946	 0.9400053845	-0.28232
C	-1.3156190485	-0.8109934816	-0.2114768747	 0.052339
C	-2.3656544829	-0.2930591495	 0.8008278368	-0.143364
O	-3.2524224991	 0.4724157461	-0.0039372313	-0.231391
C	-3.2888628791	-0.2171722694	-1.2238175648	 0.022589
O	-1.9760143737	-0.6844922412	-1.4736259243	-0.270113
H	 0.8373530549	 1.9437026572	-0.4814288141	 0.123198
H	-0.4145297463	 1.5205677714	-1.6750556657	 0.136324
H	-0.8803830866	 1.9728732165	-0.0330197334	 0.135786
H	 1.2525948676	-1.8041860535	-0.494634284	 0.11351
H	 2.1261026378	-0.2014206744	-0.7180296718	 0.114725
H	-1.0753200112	-1.862632797	-0.0156948376	 0.082421
H	-2.8939888827	-1.1319791323	 1.2762092666	 0.1024
H	-1.9452723706	 0.3499173579	 1.5754678481	 0.136261
H	-3.9885612955	-1.0715200659	-1.1724677529	 0.086555
H	-3.5903774577	 0.4719777122	-2.0177477428	 0.12126
60.9885	78.431	186.748	193.0024	253.0348	292.1836	330.0585	365.5168	440.0645	506.3044	707.6318	745.3975	778.4933	824.9124	892.3129	925.8062	960.1602	992.2065	996.7672	1020.8434	1052.6827	1077.6695	1114.0696	1115.5991	1135.693	1164.4811	1182.0409	1204.9509	1260.7731	1296.4544	1306.5741	1331.6018	1356.9949	1405.5084	1428.6093	1440.8849	1484.7224	1497.124	1514.7868	1532.038	1542.6299	2935.3379	3000.4899	3036.6379	3050.2283	3081.164	3088.4122	3119.5136	3123.8761	3133.2788	3167.8534
CC1(CO1)C1COCO1	C[C@]1(CO1)[C@H]1COCO1	
InChI=1S/C6H10O3/c1-6(3-9-6)5-2-7-4-8-5/h5H,2-4H2,1H3	InChI=1S/C6H10O3/c1-6(3-9-6)5-2-7-4-8-5/h5H,2-4H2,1H3/t5-,6+/m1/s1
