16
gdb 78123	2.86217	1.2986	1.08121	5.8135	74.73	-0.2644	-0.0387	0.2258	1137.9752	0.123741	-400.751231	-400.743013	-400.742069	-400.784272	30.32	
C	-0.0041769003	 1.570735928	-0.0538298318	-0.423687
C	 0.0870316701	 0.0585339897	-0.0810325081	-0.030331
C	 0.6795431473	-0.7754757701	-1.161375388	-0.0576
C	 1.3428499536	-0.7485989661	 0.2485747469	-0.189774
C	 2.554604794	-0.1252665604	-0.3573640084	 0.420808
O	 3.6677952923	 0.0851222323	 0.0128576956	-0.28899
C	 1.8949303873	-0.070740752	-1.803011827	-0.312867
C	 2.6247524007	-0.8704440657	-2.7682891314	 0.280582
N	 3.2001003817	-1.5188546355	-3.5333406151	-0.314247
H	 0.8891779677	 2.0598996385	-0.4490479625	 0.134953
H	-0.8638809491	 1.913754143	-0.6387861186	 0.132951
H	-0.137138696	 1.920533946	 0.974331586	 0.136674
H	-0.7811457718	-0.4242078206	 0.3639767959	 0.114637
H	 0.1743799397	-1.6151811212	-1.618554193	 0.13023
H	 1.3516239927	-1.4832334505	 1.043824219	 0.124934
H	 1.7129303804	 0.9263305047	-2.2129774896	 0.141726
90.3762	131.1711	145.1402	179.8656	257.9026	345.6728	400.0875	466.1142	498.9362	545.8879	651.9252	683.0186	739.2231	844.6011	874.7188	887.4376	914.7899	949.0873	995.9248	1049.1347	1067.6628	1089.3209	1107.2738	1133.2392	1145.6103	1204.2396	1271.5161	1306.7597	1333.685	1419.197	1433.4121	1491.705	1503.4179	1897.6712	2355.8728	3043.972	3078.7554	3107.164	3118.896	3137.2978	3201.08	3217.3552
CC1C2C1C(=O)C2C#N	C[C@H]1[C@@H]2[C@H]1C(=O)[C@H]2C#N	
InChI=1S/C7H7NO/c1-3-5-4(2-8)7(9)6(3)5/h3-6H,1H3	InChI=1S/C7H7NO/c1-3-5-4(2-8)7(9)6(3)5/h3-6H,1H3/t3-,4-,5-,6-/m0/s1
