15
gdb 129924	2.46186	1.83714	1.05317	4.0436	76.74	-0.1749	-0.0174	0.1575	1055.8843	0.115354	-450.141031	-450.133168	-450.132224	-450.172928	30.933	
N	 0.0462165183	 1.3757291606	-0.0374588761	-0.591967
C	 0.0002611535	-0.0063912959	 0.0041575383	 0.266814
C	-1.1407644398	-0.7537218845	 0.0118373757	-0.080558
N	-1.083189092	-2.116731838	 0.1077192826	-0.247293
N	 0.0572758873	-2.8158099372	 0.2117797556	-0.310961
C	 1.1612117058	-2.1307069192	 0.204141493	 0.364991
O	 2.329053643	-2.8096572745	 0.2957835642	-0.417406
C	 1.2852758361	-0.683458853	 0.0913778641	 0.182953
N	 2.3804828288	 0.0035701873	 0.0560303553	-0.592421
H	 0.9825730735	 1.6958899551	-0.2595986685	 0.268743
H	-0.683918034	 1.838987887	-0.5560729867	 0.241226
H	-2.13524955	-0.3298900274	-0.0519397572	 0.117117
H	-1.9178826256	-2.6752863981	 0.1218626705	 0.274545
H	 2.1082966716	-3.7487127664	 0.3506199357	 0.300999
H	 3.1895999335	-0.6124119657	 0.1187890036	 0.223218
110.7425	258.0671	297.0966	316.9534	322.9529	338.0523	363.9382	469.8915	485.4309	529.6948	552.2021	563.2144	578.3307	653.0092	721.4697	780.205	818.612	844.6659	900.3124	1005.3354	1053.3417	1141.8338	1199.5046	1279.1329	1323.9465	1371.8134	1422.7787	1470.257	1548.9226	1610.2675	1614.0877	1652.959	1682.9472	3207.926	3498.2795	3523.1287	3657.5519	3680.1851	3785.3417
NC1=CNN=C(O)C1=N	NC1=C(C(=NNC1)O)[NH]	
InChI=1S/C4H6N4O/c5-2-1-7-8-4(9)3(2)6/h1H,(H2,6,7)(H3,5,8,9)	InChI=1S/C4H7N4O/c5-2-1-7-8-4(9)3(2)6/h6-7H,1,5H2,(H,8,9)
