12
gdb 33525	2.23099	1.71115	1.24543	2.9176	63.86	-0.3065	-0.0525	0.2539	982.0997	0.077859	-431.680217	-431.672626	-431.671682	-431.712946	26.665	
N	-0.1581448687	-1.2417416357	-0.0964595197	-0.306388
C	-0.0794438991	-0.090699359	-0.0577755978	 0.289141
C	-0.0013341829	 1.3732180475	 0.048927881	 0.087213
C	-0.5132395586	 1.9051463923	 1.4565522937	-0.230188
N	 0.6594557197	 2.5395268694	 2.0453820398	-0.229566
C	 1.603187927	 2.4184220528	 1.2191412883	 0.130001
O	 1.3844992971	 1.7750243138	 0.0287637585	-0.229737
C	-0.7024118146	 2.0067656556	-1.076975605	 0.289135
N	-1.2786335342	 2.530510105	-1.929177751	-0.306383
H	-1.3254701233	 2.6242005223	 1.3305798479	 0.165893
H	-0.867317092	 1.0815149337	 2.0801601637	 0.16589
H	 2.6179218096	 2.7775361621	 1.3381259004	 0.174988
69.5198	129.1998	177.8943	186.3534	276.7244	468.1219	491.5099	505.4855	542.4537	583.879	589.9387	777.9544	868.3279	928.0429	967.1006	968.2446	1022.4432	1080.8236	1101.7866	1142.2254	1253.558	1311.6919	1329.8001	1490.2826	1727.3727	2367.7429	2370.9722	3078.2356	3127.9048	3240.5302
N#CC1(CN=CO1)C#N	N#CC1(CN=CO1)C#N	
InChI=1S/C5H3N3O/c6-1-5(2-7)3-8-4-9-5/h4H,3H2	InChI=1S/C5H3N3O/c6-1-5(2-7)3-8-4-9-5/h4H,3H2
