16
gdb 48779	3.57232	1.40091	1.24565	2.9743	68.73	-0.2383	-0.04	0.1983	1007.8832	0.124146	-437.843808	-437.836553	-437.835608	-437.875635	27.886	
O	 0.0551194701	-0.0998186945	-0.1795471761	-0.252017
C	 0.1117119987	 1.0227549601	 0.2533243972	 0.082968
C	 1.2959191704	 1.9162528227	 0.1036699844	 0.205203
C	 2.2313440208	 1.7350611733	-1.0566359228	-0.262478
N	 2.6600145766	 1.3028913253	 0.260148579	-0.126821
C	 3.4886863053	 2.25910594	 1.0341140495	-0.201197
C	 2.6451956802	 3.4858775687	 1.3451218676	 0.035058
O	 2.208896148	 4.2130566445	 0.1885485353	-0.250726
C	 1.3077165859	 3.2669513769	 0.7763185122	-0.054337
H	-0.7538904357	 1.4786071726	 0.7864960109	 0.071929
H	 2.0165610195	 0.9182514192	-1.7399674323	 0.140001
H	 2.6458435179	 2.6420114714	-1.484814426	 0.141926
H	 3.7811142307	 1.7707009699	 1.9699835048	 0.124042
H	 4.3998443514	 2.5074275775	 0.4806202062	 0.129873
H	 2.840164417	 4.0856037427	 2.2316257172	 0.109235
H	 0.3926718632	 3.6759324197	 1.1960980828	 0.107342
89.8972	187.1505	202.0995	276.9172	349.5489	422.2675	442.7042	558.6443	695.1191	725.2011	741.363	752.6631	815.2067	866.8143	914.2636	942.9036	949.8785	981.5548	1040.2183	1049.8878	1080.9193	1109.1568	1139.7036	1172.0077	1203.5693	1234.659	1262.3099	1313.6078	1339.7933	1347.1866	1425.5263	1442.5618	1472.8499	1487.675	1822.8354	2866.3464	3046.6709	3092.0599	3116.4673	3138.5277	3157.4013	3217.8758
O=CC12CN1CC1OC21	O=C[C@]12CN1C[C@H]1O[C@@H]21	
InChI=1S/C6H7NO2/c8-3-6-2-7(6)1-4-5(6)9-4/h3-5H,1-2H2	InChI=1S/C6H7NO2/c8-3-6-2-7(6)1-4-5(6)9-4/h3-5H,1-2H2/t4-,5-,6+,7?/m1/s1
