14
gdb 23705	5.69109	1.47698	1.18119	1.8387	66.87	-0.2474	-0.0298	0.2176	948.3802	0.107754	-386.753116	-386.746287	-386.745342	-386.784752	25.149	
C	-0.0438703454	 1.5039091368	-0.0017560647	-0.46583
C	-0.0154993522	-0.0024084105	 0.025896139	 0.323545
N	-0.2384986794	-0.6265363358	-1.1403204341	-0.300744
C	-0.2241576599	-1.9569436442	-1.1686311975	-0.11307
C	 0.0133787314	-2.7237537201	-0.0343390536	 0.245211
F	 0.0153647829	-4.0565528635	-0.1249463266	-0.077549
C	 0.2461852294	-2.1035169919	 1.18065256	-0.207961
C	 0.229957861	-0.7130756705	 1.2039913177	-0.149142
H	 0.1485371119	 1.9302910842	 0.9857160025	 0.117275
H	 0.7069900217	 1.8877231639	-0.6996417774	 0.141161
H	-1.0172107027	 1.8616508639	-0.3522444162	 0.141143
H	-0.4066843889	-2.4470576335	-2.1217307311	 0.120381
H	 0.4323314511	-2.6945629537	 2.0700519182	 0.120789
H	 0.4071015892	-0.1820125153	 2.1328182638	 0.104792
49.6258	142.4824	312.878	358.1662	423.099	434.3596	478.9137	524.7065	646.6109	748.6882	750.232	855.1726	866.4	947.4751	974.7993	1008.9766	1035.4012	1062.167	1139.7711	1250.2293	1277.1833	1301.7539	1313.8524	1410.6492	1412.7832	1476.3471	1491.1808	1520.1632	1621.3073	1640.3291	3041.7126	3101.881	3125.0398	3162.356	3186.0146	3205.6374	49.6166	142.4821	312.878	358.1659	423.099	434.3596	478.9137	524.7066	646.6108	748.6883	750.2321	855.1721	866.4	947.4753	974.7983	1008.9771	1035.401	1062.1678	1139.7705	1250.2293	1277.1835	1301.7538	1313.8525	1410.6492	1412.7835	1476.3483	1491.1819	1520.1632	1621.307	1640.3291	3041.7125	3101.881	3125.0398	3162.356	3186.0145	3205.6372
CC1=NC=C(F)C=C1	Cc1ncc(F)cc1	
InChI=1S/C6H6FN/c1-5-2-3-6(7)4-8-5/h2-4H,1H3	InChI=1S/C6H6FN/c1-5-2-3-6(7)4-8-5/h2-4H,1H3
