13
gdb 25513	4.68759	1.17751	0.94111	3.0314	68.96	-0.2623	-0.0548	0.2075	1136.6883	0.092278	-449.002805	-448.995721	-448.994777	-449.035209	24.983	
O	-0.4489392292	 0.092697607	 0.0029172458	-0.250846
C	-0.1198867226	 1.2456874226	 0.0076326182	 0.162375
N	 1.1771357463	 1.7491366284	-0.0010753279	-0.387926
C	 2.3937608635	 1.0932398132	-0.0159245416	 0.49717
N	 2.4430118997	-0.2383586413	-0.028467844	-0.267686
C	 3.679396362	-0.7299144128	-0.0426636469	 0.087362
N	 4.8154387229	-0.0304983244	-0.0453857197	-0.248521
C	 4.6262705144	 1.2915119805	-0.0323212998	 0.089188
N	 3.4560879363	 1.9167971396	-0.0173286598	-0.318158
H	-0.8395907241	 2.0883830496	 0.0200416796	 0.092264
H	 1.2752443253	 2.7551516969	 0.0062198626	 0.269139
H	 3.766964717	-1.814088151	-0.052828148	 0.139899
H	 5.5152303686	 1.9185824416	-0.0339426785	 0.135741
56.9005	154.6605	168.1307	269.7336	361.7935	365.952	552.1481	575.0194	682.0587	703.5832	821.3042	852.6527	894.8349	993.1438	1002.0899	1027.7933	1050.6757	1123.1114	1182.3742	1205.2727	1291.0895	1369.3527	1422.2429	1445.02	1457.8822	1525.05	1602.4139	1619.7741	1851.025	2937.27	3164.364	3169.166	3607.4191
O=CNC1=NC=NC=N1	O=CNc1ncncn1	
InChI=1S/C4H4N4O/c9-3-8-4-6-1-5-2-7-4/h1-3H,(H,5,6,7,8,9)	InChI=1S/C4H4N4O/c9-3-8-4-6-1-5-2-7-4/h1-3H,(H,5,6,7,8,9)
