18
gdb 15787	4.54179	1.04722	0.9115	2.9231	68.98	-0.2508	-0.0226	0.2283	1249.0722	0.151068	-384.928868	-384.919886	-384.918942	-384.963505	31.158	
C	-0.0972730813	 1.8014089852	 0.165988615	-0.401786
C	-0.0960055969	 0.2745764931	 0.0082453597	-0.021628
C	 0.681395373	-0.4275006886	 1.1445398922	-0.274583
C	 2.1639614633	-0.1474285225	 1.0781859378	 0.154631
O	 2.8235143735	 0.3293316534	 1.9654008859	-0.239585
C	-1.5118324702	-0.2599449489	-0.0495036616	 0.094636
C	-2.1912692764	-0.5525615946	-1.3170609181	-0.183087
O	-1.666367169	-1.6051541725	-0.502667026	-0.243117
H	 0.9214523828	 2.1983528657	 0.2027815161	 0.132561
H	-0.6192626138	 2.2827368685	-0.6666309769	 0.121049
H	-0.5975364371	 2.0983726021	 1.094650747	 0.125222
H	 0.3871020843	 0.0110742379	-0.9424538998	 0.082955
H	 0.3086689838	-0.129955571	 2.1298410376	 0.116526
H	 0.5437098842	-1.511576782	 1.0301821603	 0.137583
H	 2.6329880274	-0.4230673201	 0.1029282454	 0.071318
H	-2.1332796015	-0.0109665065	 0.8142750757	 0.09369
H	-3.2774614471	-0.5061706931	-1.3783872501	 0.11881
H	-1.6658963992	-0.384912366	-2.25664491	 0.114804
55.6641	69.5134	90.5283	170.5341	213.2087	232.5005	293.7644	386.2953	426.977	490.1775	538.2399	773.5175	825.5532	868.9753	905.9712	950.392	959.9472	980.2196	1030.1469	1086.509	1126.2572	1151.7801	1156.6047	1169.6621	1193.7065	1227.2795	1268.8206	1293.7964	1328.742	1362.845	1413.8033	1429.999	1449.357	1463.8028	1495.0527	1501.0427	1531.3463	1834.7254	2843.7227	3017.5437	3023.1578	3034.7546	3080.0773	3084.6079	3094.1133	3102.7984	3112.8608	3170.2848
CC(CC=O)C1CO1	C[C@@H](CC=O)[C@H]1CO1	
InChI=1S/C6H10O2/c1-5(2-3-7)6-4-8-6/h3,5-6H,2,4H2,1H3	InChI=1S/C6H10O2/c1-5(2-3-7)6-4-8-6/h3,5-6H,2,4H2,1H3/t5-,6+/m0/s1
