14
gdb 5274	4.85879	1.63199	1.23091	3.1333	67.58	-0.2407	-0.0498	0.1909	928.6493	0.107109	-382.595043	-382.58786	-382.586916	-382.626942	25.769	
C	-0.1138043922	 1.5011632713	 0.010780062	-0.486366
C	 0.0463988117	-0.0072520077	 0.0036560412	 0.292758
O	 1.1341913076	-0.5518248655	-0.0073895556	-0.313697
C	-1.1786110846	-0.816059239	 0.0108247755	 0.266893
C	-1.3678213755	-2.1712062659	 0.007550256	-0.239977
C	-2.7748984929	-2.3849064913	 0.0185357264	-0.172863
C	-3.3420198178	-1.1444705343	 0.027824058	-0.013022
O	-2.394298092	-0.1834266003	 0.0233812009	-0.171056
H	 0.874721813	 1.9600489397	 0.0048982182	 0.140402
H	-0.6869556164	 1.8303921476	-0.862010603	 0.144009
H	-0.6734666412	 1.823634337	 0.8947623119	 0.144
H	-0.5813847819	-2.9085908561	-0.0017406769	 0.140751
H	-3.2975834745	-3.328474806	 0.0194878916	 0.123248
H	-4.3634690231	-0.7984242094	 0.0375879438	 0.144919
84.5964	114.1676	183.9826	184.8831	376.5556	492.9961	552.1238	613.8936	629.2765	688.909	778.2765	840.5864	894.7466	898.9773	915.9033	972.6543	1031.6532	1042.5061	1094.0392	1137.9519	1195.2791	1248.0232	1303.0547	1381.976	1420.4726	1461.5821	1471.059	1501.7647	1611.9404	1767.1152	3045.4094	3107.3851	3161.4823	3255.3846	3273.294	3281.5567
CC(=O)C1=CC=CO1	CC(=O)c1ccco1	
InChI=1S/C6H6O2/c1-5(7)6-3-2-4-8-6/h2-4H,1H3	InChI=1S/C6H6O2/c1-5(7)6-3-2-4-8-6/h2-4H,1H3
