15
gdb 42452	4.21818	0.86238	0.82925	2.5352	67.55	-0.272	-0.0216	0.2504	1381.9395	0.112503	-453.95298	-453.944336	-453.943392	-453.988143	29.69	
O	 0.3488028802	 0.4275437761	-1.0271331232	-0.373758
C	 0.1093397542	 1.2655091039	-0.1935383327	 0.480921
O	 1.0061121438	 1.6785010233	 0.741366646	-0.239547
C	 2.2989441229	 1.0723618708	 0.6597571237	-0.201063
C	 3.1698802622	 1.7855156386	-0.2808362553	 0.269899
N	 3.8685252412	 2.3473157087	-1.0083660459	-0.289882
C	-1.187945355	 1.9708399073	-0.0359760672	-0.134707
C	-1.8249598568	 2.4609984744	-1.3007395087	-0.216472
N	-2.3762160616	 1.3117358792	-0.5976744328	-0.301022
H	 2.7222594979	 1.126938644	 1.6647219287	 0.16975
H	 2.2092713694	 0.028766823	 0.3477332358	 0.182784
H	-1.3289614666	 2.5129274171	 0.8916275989	 0.120101
H	-2.4208034061	 3.3674160643	-1.2565146095	 0.136673
H	-1.2768051216	 2.2980458829	-2.2238835368	 0.143037
H	-2.0659744141	 0.4585835464	-1.0621755311	 0.253286
30.2955	56.6908	100.0145	206.6119	235.7828	309.6937	335.3843	368.6228	392.1477	610.262	680.4572	769.2647	819.6851	865.3933	899.353	930.1838	978.7208	1013.8322	1031.8404	1055.8526	1119.758	1134.6484	1177.3836	1197.9177	1283.8219	1300.1396	1314.7016	1387.1938	1420.5942	1457.5848	1499.5849	1813.4669	2370.0967	3078.8756	3120.5066	3133.9151	3186.7375	3215.6282	3480.5818
O=C(OCC#N)C1CN1	O=C(OCC#N)[C@H]1CN1	
InChI=1S/C5H6N2O2/c6-1-2-9-5(8)4-3-7-4/h4,7H,2-3H2	InChI=1S/C5H6N2O2/c6-1-2-9-5(8)4-3-7-4/h4,7H,2-3H2/t4-/m1/s1
