22
gdb 63846	2.812	1.48232	1.46346	0.2142	81.15	-0.2094	0.076	0.2854	1060.002	0.195144	-404.315588	-404.307272	-404.306328	-404.348027	33.862	
C	 0.0093927473	 1.5367565138	 0.0461634292	-0.413069
C	-0.016554916	 0.0050313095	-0.0178211163	 0.376783
C	-1.4617248608	-0.4938452937	 0.0987211368	-0.413062
C	 0.6505329496	-0.512746869	-1.3513673365	-0.237436
N	 1.8339520956	-1.3660178456	-1.1731870348	-0.116589
C	 1.5062494117	-2.3819224213	-0.1040100749	-0.200004
C	 1.807125502	-1.2917344161	 0.9459423158	 0.119939
C	 2.7232802409	-0.7030173866	-0.1474515579	-0.199977
O	 0.6806518562	-0.4693777739	 1.1657941016	-0.315839
H	 1.0331294217	 1.9160129411	-0.0177534015	 0.114529
H	-0.5665397285	 1.9688153188	-0.7795465806	 0.11104
H	-0.4232895074	 1.8835572389	 0.9891406705	 0.120784
H	-2.0720423995	-0.1091178969	-0.7256988764	 0.11104
H	-1.5042722664	-1.5863072039	 0.0727794673	 0.11453
H	-1.9028367909	-0.1588327819	 1.0420535265	 0.120786
H	-0.0853457797	-1.0825329973	-1.9288544027	 0.105008
H	 0.9486340473	 0.3438023835	-1.965470338	 0.105009
H	 0.4992413524	-2.8041648377	-0.1395445802	 0.105899
H	 2.246540847	-3.1873567586	-0.1206156918	 0.105644
H	 2.1992308727	-1.5504303791	 1.9333856997	 0.073451
H	 3.7185382265	-1.1567005106	-0.173196297	 0.10564
H	 2.8098877283	 0.3835220463	-0.2219857288	 0.105893
66.2811	221.6051	239.4249	271.4606	328.4686	386.9733	389.7705	402.4574	433.1932	469.3647	493.7592	595.9454	722.9914	799.5955	822.0992	878.422	891.4781	913.9158	924.0577	938.7209	973.237	973.8844	1010.2654	1010.808	1034.9672	1095.5469	1102.1411	1171.021	1189.6237	1227.2786	1240.0722	1242.1793	1252.3111	1266.8964	1299.7814	1327.9607	1366.3288	1380.2663	1397.6591	1419.0163	1474.0264	1479.2431	1489.7696	1493.3017	1495.9559	1505.0575	1517.3385	3031.0434	3033.3301	3039.7418	3048.8939	3053.8619	3074.3038	3078.9408	3102.1218	3108.3736	3110.6826	3114.3837	3117.431	3119.4445
CC1(C)CN2CC(C2)O1	CC1(C)CN2C[C@@H](C2)O1	
InChI=1S/C7H13NO/c1-7(2)5-8-3-6(4-8)9-7/h6H,3-5H2,1-2H3	InChI=1S/C7H13NO/c1-7(2)5-8-3-6(4-8)9-7/h6H,3-5H2,1-2H3
