18
gdb 73887	2.2295	1.66453	1.03248	5.6367	83.53	-0.1999	-0.0258	0.1741	1156.3888	0.147782	-401.968289	-401.959828	-401.958884	-402.001333	31.89	
C	 0.0904465604	 1.5046996215	-0.0805247417	-0.504049
C	-0.0253059893	 0.0161699524	-0.0096308588	 0.266341
C	-1.1399059771	-0.7813470827	 0.0290973749	 0.105613
C	-2.5072366875	-0.3641589385	 0.1857215481	 0.046895
O	-3.4589854747	-1.1227703563	 0.2714158449	-0.315203
C	-0.7106200993	-2.2117463575	-0.0265408637	-0.132161
C	 0.0622773927	-2.6421019329	-1.25844052	-0.3014
C	 0.811700265	-2.1469546334	-0.0458354348	-0.013226
N	 1.1173672726	-0.7404488838	 0.0353671223	-0.321153
H	 0.7434705114	 1.8776993274	 0.7163703258	 0.141987
H	 0.5283006455	 1.8169943471	-1.0363030352	 0.1405
H	-0.8827676856	 1.9855065306	 0.0152523538	 0.154622
H	-2.6642972292	 0.737694028	 0.2340613055	 0.039153
H	-1.2645592892	-2.9519972618	 0.5363545707	 0.111993
H	 0.1200474011	-3.7076379909	-1.450038823	 0.118291
H	 0.0219883957	-2.0153297121	-2.1430708611	 0.110222
H	 1.4605196304	-2.8083397472	 0.516925307	 0.103477
H	 2.0089770471	-0.3736165699	-0.2571596546	 0.248097
106.4507	124.5988	175.6954	186.7342	252.1223	311.9754	359.5195	418.2881	463.7441	535.0875	612.6616	649.5622	710.5176	754.5911	784.0027	855.7342	950.8184	979.461	982.6177	1013.6645	1043.5341	1049.674	1058.4644	1088.2815	1124.8018	1142.6437	1198.0842	1261.1057	1304.0131	1358.4161	1392.5078	1411.8142	1431.7827	1461.4473	1471.073	1478.0102	1498.3048	1639.2646	1747.0355	2856.4661	3032.6937	3083.7973	3130.3645	3152.6272	3168.8346	3197.0102	3223.7436	3634.9746
CC1=C(C=O)C2CC2N1	CC1=C(C=O)[C@H]2C[C@H]2N1	
InChI=1S/C7H9NO/c1-4-6(3-9)5-2-7(5)8-4/h3,5,7-8H,2H2,1H3	InChI=1S/C7H9NO/c1-4-6(3-9)5-2-7(5)8-4/h3,5,7-8H,2H2,1H3/t5-,7-/m1/s1
