20
gdb 117044	4.45642	0.72332	0.63197	1.2427	78.49	-0.2376	-0.058	0.1796	1807.4299	0.168489	-440.345745	-440.334877	-440.333933	-440.383129	36.972	
C	 0.032941324	 1.5567520132	 0.04376931	-0.386227
C	-0.0510863551	 0.0302109742	-0.0265359736	-0.171848
C	 0.7414262932	-0.5448175207	-1.1990052328	-0.272951
C	 0.6818079812	-2.0472895959	-1.299695469	 0.28475
O	 0.0704571742	-2.7603191839	-0.5335755275	-0.317318
C	 1.4708245356	-2.6705964508	-2.4771269081	 0.324582
O	 2.0956904562	-1.9801298451	-3.2651874315	-0.374956
N	 1.3690321392	-4.0162996901	-2.4990986309	-0.301823
C	 2.0103723641	-4.8459053881	-3.4956261706	-0.334467
H	 1.0688524451	 1.89374648	 0.1615578562	 0.11607
H	-0.3617641336	 2.0198889124	-0.8674157618	 0.116082
H	-0.5416272631	 1.9448437524	 0.8901935022	 0.11524
H	 0.3169703856	-0.4112960083	 0.9063102505	 0.110238
H	-1.0966575644	-0.2866193937	-0.1103540378	 0.11018
H	 0.4042203793	-0.1387657427	-2.1626016758	 0.141629
H	 1.8022797907	-0.2619261373	-1.156819632	 0.141589
H	 0.8069405232	-4.4212968768	-1.7639769711	 0.265229
H	 1.2734716043	-5.419512697	-4.0685243941	 0.132617
H	 2.554642505	-4.1866269249	-4.1736442433	 0.168771
H	 2.7152797453	-5.5465731968	-3.0347289688	 0.13261
49.2133	54.9742	94.5603	103.3201	111.1759	143.4981	232.1975	242.6751	296.3715	336.1012	383.4142	430.8314	522.0888	626.9207	687.5051	742.6292	765.9553	852.733	884.4612	900.0295	987.9939	1050.5053	1097.1884	1116.0917	1152.5345	1154.0243	1182.4055	1237.9698	1248.0225	1315.2675	1330.2897	1400.4354	1415.8194	1430.8808	1442.659	1487.8428	1494.6291	1497.7165	1500.0665	1508.4316	1570.0621	1781.8095	1797.1809	3027.9668	3029.7219	3030.7172	3044.6822	3047.3244	3073.8987	3082.9068	3100.182	3105.1013	3147.7595	3607.4889
CCCC(=O)C(=O)NC	CCCC(=O)C(=O)NC	
InChI=1S/C6H11NO2/c1-3-4-5(8)6(9)7-2/h3-4H2,1-2H3,(H,7,9)	InChI=1S/C6H11NO2/c1-3-4-5(8)6(9)7-2/h3-4H2,1-2H3,(H,7,9)
