15
gdb 132354	1.76626	1.74744	0.88322	1.6861	71.69	-0.244	-0.0096	0.2344	1206.5053	0.111294	-469.952253	-469.944437	-469.943492	-469.985719	29.155	
C	-0.0121098201	 1.5194357246	 0.0102972029	-0.489247
C	-0.0108289724	 0.0105612733	 0.0021903545	 0.354242
C	-0.0041750221	-0.6907030165	-1.2064957796	-0.36
C	 0.0267320754	-2.0774670785	-1.1916891648	 0.349821
F	 0.0303790726	-2.7367876502	-2.3542406501	-0.07868
C	 0.0488680942	-2.8097647019	-0.0134410481	-0.429841
C	 0.0395665301	-2.0903249457	 1.1728296499	 0.349832
F	 0.055789438	-2.7621811702	 2.3280719118	-0.078677
C	 0.0089020236	-0.7037655362	 1.2030121824	-0.360089
H	 1.0119169015	 1.9119436462	 0.002718975	 0.141392
H	-0.5216976766	 1.9223799513	-0.8691167969	 0.131552
H	-0.5051011872	 1.9128885572	 0.9033315789	 0.131466
H	-0.0246328758	-0.1728753333	-2.1583750933	 0.106536
H	 0.0677787933	-3.8914267488	-0.0194258288	 0.125144
H	-0.0011813745	-0.1963029113	 2.160618246	 0.106549
27.5036	193.7729	242.7299	251.4894	282.9605	327.1459	505.0538	512.5972	525.7205	562.9581	582.3873	620.1801	693.2805	846.1243	858.4699	877.958	984.9908	992.1925	1015.6317	1048.9718	1059.3338	1160.0125	1161.0688	1248.6607	1348.5602	1371.0327	1412.9297	1464.7526	1488.5436	1501.7951	1509.5843	1641.7318	1657.7995	3033.349	3093.469	3121.7025	3199.2912	3200.7192	3226.1468
CC1=CC(F)=CC(F)=C1	Cc1cc(F)cc(F)c1	
InChI=1S/C7H6F2/c1-5-2-6(8)4-7(9)3-5/h2-4H,1H3	InChI=1S/C7H6F2/c1-5-2-6(8)4-7(9)3-5/h2-4H,1H3
