19
gdb 73978	2.8154	1.61358	1.08165	1.538	87.53	-0.2069	-0.0154	0.1916	1128.0772	0.160628	-385.907392	-385.899549	-385.898605	-385.93964	30.372	
C	-0.0066464437	 1.4936753096	 0.0123146792	-0.496701
C	-0.0258946032	 0.001047897	 0.0180605413	 0.100749
C	-1.0477777618	-0.8558970332	 0.0867811025	 0.23578
C	-2.4907857421	-0.9206206677	-0.0852646787	-0.195594
C	-2.810212772	-2.1258932585	-0.594669861	-0.071848
C	-1.5879320304	-3.0044339074	-0.8288198139	-0.30664
C	-0.5308553603	-2.2727795929	 0.0232489001	 0.084093
O	 0.7950290268	-2.1600091012	-0.4655598853	-0.278761
C	 1.2362446005	-0.8352920033	-0.1479646433	-0.157175
H	 0.5722799573	 1.8909703873	 0.8566213515	 0.128898
H	 0.4651083991	 1.8840041068	-0.8989068927	 0.127659
H	-1.015888729	 1.9085314638	 0.0769901951	 0.126068
H	-3.1868146337	-0.1110875323	 0.097134035	 0.100618
H	-3.8116402206	-2.4347673594	-0.8738013668	 0.099612
H	-1.7415414833	-4.0493438185	-0.5442319533	 0.105887
H	-1.2986600006	-2.9892612374	-1.8887323704	 0.122383
H	-0.5224170445	-2.7245603259	 1.0323063532	 0.073108
H	 1.8728523864	-0.4729243723	-0.9664014203	 0.108048
H	 1.8556672749	-0.8424412345	 0.7676266677	 0.093816
128.7212	158.8694	183.6971	198.3664	256.5891	396.6144	417.3601	490.2099	571.657	646.4703	673.7391	713.4271	763.4608	844.9178	909.5034	932.9214	948.9245	965.965	979.9271	1011.6244	1030.993	1084.3596	1096.3031	1117.8429	1140.1226	1162.7126	1187.1142	1207.4887	1257.5043	1267.0661	1328.3985	1343.7593	1381.4941	1390.9199	1415.6211	1478.1508	1478.5609	1489.0326	1511.5598	1613.835	1759.3694	2924.9385	2935.3564	3012.3381	3021.1142	3025.5924	3054.9944	3083.3324	3111.2222	3188.9235	3214.3944
CC1=C2C=CCC2OC1	C[C]1[C]2C=CC[C@H]2OC1	
InChI=1S/C8H10O/c1-6-5-9-8-4-2-3-7(6)8/h2-3,8H,4-5H2,1H3	InChI=1S/C8H10O/c1-6-5-9-8-4-2-3-7(6)8/h2-3,8H,4-5H2,1H3/t8-/m1/s1
