21
gdb 79783	3.58747	1.64911	1.51779	0.0941	84.79	-0.2565	0.0909	0.3473	972.7169	0.185878	-349.914147	-349.907492	-349.906548	-349.944745	28.842	
C	-0.1902678395	 1.6035986079	-0.0381727922	-0.423426
C	 0.0259529863	 0.0977897633	 0.0079994106	 0.028291
C	 1.187379729	-0.5705713254	-0.7845309839	-0.050885
C	 2.4868900186	 0.1007622912	-0.3053265995	-0.034523
C	 3.5530288443	-1.0247579968	-0.2729672014	-0.247845
C	 2.6835844366	-1.5975098849	 0.8578107338	-0.050669
C	 2.1970129705	-0.1560605048	 1.2329767234	-0.040142
C	 0.6930639637	-0.5748822677	 1.2243285585	-0.066342
C	 1.231719364	-1.7207853493	 0.3060805968	-0.042301
H	 0.7161208913	 2.149276316	 0.2427993769	 0.115828
H	-0.4812441928	 1.9341235684	-1.0419612543	 0.11159
H	-0.9854476527	 1.9065001779	 0.6521949046	 0.111221
H	-0.9103034252	-0.4274287531	-0.2194017768	 0.064624
H	 1.0982043478	-0.783028006	-1.8511338069	 0.054028
H	 2.7212854371	 1.090094141	-0.6979895583	 0.060201
H	 3.7047994382	-1.6179953319	-1.1817550226	 0.085349
H	 4.5189472347	-0.6665135074	 0.0968134932	 0.092632
H	 3.0344934872	-2.3346045024	 1.579670259	 0.058694
H	 2.6645717222	 0.4767327352	 1.9849657383	 0.059989
H	 0.1878682044	-0.734968233	 2.1772235973	 0.054294
H	 0.7137178442	-2.6596999381	 0.1197889633	 0.059392
179.6003	209.0237	246.17	383.7414	487.2583	523.2859	666.6837	682.0327	762.0593	787.6979	803.8838	822.499	849.7323	861.5605	872.3025	912.1834	919.7348	940.5153	951.2265	974.9039	999.8561	1030.345	1040.6106	1059.2482	1084.1653	1094.4849	1112.0976	1142.9106	1150.4796	1161.6826	1182.1531	1204.0355	1220.0237	1229.3965	1239.9625	1251.2744	1282.3865	1299.343	1302.5622	1323.2685	1386.5474	1409.2135	1494.3716	1495.0717	1499.0913	3025.7194	3029.5702	3033.9516	3087.579	3089.682	3095.6469	3100.8792	3106.426	3111.9697	3113.1605	3129.816	3136.1412
CC1C2C3CC4C3C1C24	C[C@H]1[C@H]2[C@@H]3C[C@H]4[C@@H]3[C@@H]1[C@@H]24	
InChI=1S/C9H12/c1-3-6-4-2-5-8(4)7(3)9(5)6/h3-9H,2H2,1H3	InChI=1S/C9H12/c1-3-6-4-2-5-8(4)7(3)9(5)6/h3-9H,2H2,1H3/t3-,4-,5-,6-,7+,8+,9+/m0/s1
