21
gdb 99623	2.29857	1.1249	0.82832	1.546	85.07	-0.2551	0.0454	0.3005	1436.795	0.180282	-387.040384	-387.03012	-387.029176	-387.07581	37.987	
C	-0.812571272	 1.1157822348	 0.3212105233	-0.409822
C	-0.1540300665	-0.2411357949	 0.1926004245	-0.008178
C	 1.2086456483	-0.3885162563	-0.4398733342	-0.302014
C	 1.0301911952	-0.682053912	 1.0290580829	 0.008949
C	 1.6634217059	 0.2032560806	 2.0946816422	-0.215001
C	 0.8999919085	 0.1008221728	 3.4383533747	-0.060146
O	 1.4619145601	 0.9084224677	 4.4482641894	-0.422733
C	 3.0697225688	-0.1430008826	 2.3115406594	 0.308762
C	 4.2099573523	-0.4443570802	 2.5512743612	-0.456264
H	-0.0866801885	 1.9113656707	 0.5132139187	 0.120155
H	-1.336703527	 1.3751531227	-0.6051506345	 0.118996
H	-1.5489992801	 1.1328312089	 1.1324303752	 0.120656
H	-0.856486101	-1.0403975276	-0.0311493801	 0.085714
H	 1.3958935007	-1.2136040951	-1.1180452577	 0.111786
H	 1.7347490633	 0.5254040167	-0.700031627	 0.112732
H	 1.0397422845	-1.7342842929	 1.3020374345	 0.090165
H	 1.6204541601	 1.2528007126	 1.7792574256	 0.108726
H	-0.1251565406	 0.4523405949	 3.2905483337	 0.114346
H	 0.8533419546	-0.9581917579	 3.7388469571	 0.09005
H	 2.3885388037	 0.6512846093	 4.5306228953	 0.284706
H	 5.2246993697	-0.7036082722	 2.7277328559	 0.198416
54.3772	104.2254	116.2468	157.9568	187.0309	206.1436	250.4963	329.3035	370.9803	398.916	417.1786	481.8768	532.3559	577.8259	626.5497	651.5464	773.37	822.0343	849.4627	880.5149	911.1501	973.4947	1017.1419	1057.6575	1069.4515	1079.2965	1087.3294	1112.9481	1150.8293	1164.7855	1198.4055	1207.568	1246.7312	1260.0109	1327.2136	1383.0928	1389.7992	1417.4575	1424.9396	1429.2056	1493.0993	1494.0598	1505.1462	1507.9752	2224.4659	2977.4072	3029.4013	3038.593	3087.1825	3090.758	3101.9872	3126.4145	3129.9823	3140.913	3211.1423	3502.0568	3777.2207
CC1CC1C(CO)C#C	C[C@H]1C[C@H]1[C@@H](CO)C#C	
InChI=1S/C8H12O/c1-3-7(5-9)8-4-6(8)2/h1,6-9H,4-5H2,2H3	InChI=1S/C8H12O/c1-3-7(5-9)8-4-6(8)2/h1,6-9H,4-5H2,2H3/t6-,7+,8+/m0/s1
