16
gdb 43812	2.08671	1.68928	1.04265	3.1108	76.08	-0.2397	-0.0336	0.2061	1131.054	0.121917	-400.683959	-400.675451	-400.674507	-400.718102	31.714	
O	 0.00560985	 0.0613728003	-0.3477979276	-0.275641
C	-0.0204856106	 1.2109040911	-0.0373560921	 0.408749
C	-1.1387050057	 2.1842047614	 0.3782099712	-0.443797
C	-0.0471588921	 3.2224055331	 0.6900205866	 0.340283
C	-0.1441768187	 4.6943953055	 0.6499480875	-0.304551
N	 0.0865112899	 3.9782364814	 1.9222622531	-0.339856
C	 1.0856949481	 2.3037535573	 0.1420397343	-0.405852
C	 2.2218271545	 1.9922733617	 0.9748390416	 0.357528
C	 3.1554928667	 1.7135533029	 1.6780127916	-0.433576
H	-1.8245718187	 2.4364977536	-0.437012192	 0.140732
H	-1.7264287884	 1.833675004	 1.2332046538	 0.142012
H	 0.6988465222	 5.2880680862	 0.3062111426	 0.129275
H	-1.1197567744	 5.1371070687	 0.4626502972	 0.117105
H	-0.7725940595	 3.929418133	 2.4649230853	 0.234472
H	 1.4105339734	 2.637089644	-0.853393562	 0.133789
H	 3.9806134833	 1.4737185059	 2.3017183189	 0.199328
24.8946	111.8561	140.4265	257.6844	308.513	349.4697	379.858	426.0826	506.7492	530.3863	587.563	621.976	642.2932	721.4236	781.1453	833.1122	869.7194	926.1033	966.8154	991.3966	1022.6746	1032.6938	1074.8526	1096.906	1141.6656	1179.2018	1202.7503	1257.2452	1270.9228	1302.4669	1403.2642	1434.8672	1513.5155	1910.3206	2239.8798	3017.6757	3047.8024	3099.001	3102.1647	3187.7394	3495.3687	3505.0496
O=C1CC2(CN2)C1C#C	O=C1C[C@]2(CN2)[C@H]1C#C	
InChI=1S/C7H7NO/c1-2-5-6(9)3-7(5)4-8-7/h1,5,8H,3-4H2	InChI=1S/C7H7NO/c1-2-5-6(9)3-7(5)4-8-7/h1,5,8H,3-4H2/t5-,7-/m0/s1
