20
gdb 69990	2.95633	1.6899	1.59003	1.7636	76.72	-0.2345	0.0735	0.308	962.0994	0.174144	-403.131055	-403.12396	-403.123016	-403.162031	29.877	
C	 0.0117918851	 1.516304334	 0.0090865299	-0.510423
C	 0.0306239789	 0.0127794653	 0.0302857483	 0.3584
N	-0.8360040306	-0.752985555	 0.957320218	-0.372365
C	 0.6413432555	-0.8245586855	 1.0885083901	-0.101606
C	 1.3107293676	-1.962143539	 0.2918882056	 0.065292
C	 0.25361311	-2.9491242387	-0.2528537793	-0.209856
C	-0.4019445935	-2.0852111828	-1.3739716727	-0.210123
C	 0.4122591936	-0.7784854131	-1.2506702863	 0.009222
O	 1.7235245441	-1.2700564376	-0.9071857721	-0.266257
H	 0.9187594529	 1.9079050006	-0.463590594	 0.135964
H	-0.8498058195	 1.8990668701	-0.5504713845	 0.124726
H	-0.0402144447	 1.9240535225	 1.0246364859	 0.113164
H	-1.1999593699	-0.1196776873	 1.6687022548	 0.222926
H	 1.1208405207	-0.4065446147	 1.9674831095	 0.086891
H	 2.1809984155	-2.4069056583	 0.7736728732	 0.070945
H	 0.7493499905	-3.8322841249	-0.6614382128	 0.094499
H	-0.4630572219	-3.2575460826	 0.5086070139	 0.113648
H	-0.2451033021	-2.5221637213	-2.3626876308	 0.093694
H	-1.4692098141	-1.9329468632	-1.2121478603	 0.112605
H	 0.4769184217	-0.1676282587	-2.1514097562	 0.068652
181.3645	221.447	271.7162	285.4298	371.9163	427.4311	519.0618	577.1374	603.8593	688.6638	760.6027	806.3471	823.3139	860.3431	872.1137	886.8733	922.0631	935.6788	937.8133	985.7401	1002.5191	1011.5577	1018.8945	1043.7717	1086.0861	1122.1508	1132.0525	1161.5383	1226.1833	1238.9035	1256.8711	1273.8219	1287.5509	1315.7239	1329.2066	1339.2139	1362.2251	1412.9493	1436.6038	1464.9386	1486.2534	1487.4876	1499.836	3023.455	3069.7889	3079.8017	3086.6503	3098.091	3118.2248	3125.5071	3128.6257	3143.2004	3165.7205	3465.9639
CC12NC1C1CCC2O1	C[C@]12N[C@H]1[C@H]1CC[C@@H]2O1	
InChI=1S/C7H11NO/c1-7-5-3-2-4(9-5)6(7)8-7/h4-6,8H,2-3H2,1H3	InChI=1S/C7H11NO/c1-7-5-3-2-4(9-5)6(7)8-7/h4-6,8H,2-3H2,1H3/t4-,5+,6+,7-/m1/s1
