19
gdb 101286	2.49974	1.11717	0.97034	4.6355	76.88	-0.2611	0.0151	0.2761	1310.2929	0.157939	-419.177709	-419.167889	-419.166944	-419.213455	34.811	
C	 1.0445138196	 1.9352498493	-1.1528313958	-0.233446
O	 0.1912962097	 0.8704205424	-1.5075544661	-0.249522
C	 0.6592443985	-0.4171141515	-1.1328796098	 0.128747
C	 0.6077654067	-0.6721178018	 0.373306982	-0.434033
C	-0.1452713373	-1.3751513152	-1.9975292923	-0.029945
N	-0.313689294	-2.7580062939	-1.5693267177	-0.323997
C	-1.5147677959	-1.9108640499	-1.7055971639	-0.175219
C	-2.2825509005	-1.6321915665	-0.5158525172	 0.343015
N	-2.9499316168	-1.4111651306	 0.4018987724	-0.342232
H	 1.1056586152	 2.0826050672	-0.0658593534	 0.115143
H	 2.0647231403	 1.7833257459	-1.5399679899	 0.102093
H	 0.6287686651	 2.8402272908	-1.6023978299	 0.130414
H	 1.7086114327	-0.5244806522	-1.4642900535	 0.06951
H	 0.8071627929	-1.7260860872	 0.5804053481	 0.1426
H	 1.3664752787	-0.0747465572	 0.8857116935	 0.113131
H	-0.3703371411	-0.4140222925	 0.7834729575	 0.157117
H	 0.0170271859	-1.1893514938	-3.0584551658	 0.103919
H	-0.2542645908	-3.4067793421	-2.3489095752	 0.248929
H	-2.1487898089	-2.0623178214	-2.5762114128	 0.133774
27.6009	80.0702	135.445	175.5347	196.4066	241.5718	253.695	273.9208	335.1173	413.5201	466.9887	503.612	576.5564	680.7521	755.012	822.2774	866.8283	907.5792	963.3929	988.409	1038.3358	1079.2812	1096.6655	1139.281	1164.4957	1182.6079	1201.5323	1217.9651	1227.1299	1271.2393	1362.6169	1388.7195	1405.5361	1412.6025	1462.7425	1477.7707	1485.1741	1499.6733	1505.3488	1514.4798	2359.9275	2930.7424	2977.7733	3035.5097	3059.4334	3114.8479	3118.3036	3127.8957	3138.4373	3150.1642	3516.8422
COC(C)C1NC1C#N	CO[C@@H](C)[C@H]1N[C@H]1C#N	
InChI=1S/C6H10N2O/c1-4(9-2)6-5(3-7)8-6/h4-6,8H,1-2H3	InChI=1S/C6H10N2O/c1-4(9-2)6-5(3-7)8-6/h4-6,8H,1-2H3/t4-,5-,6+/m0/s1
