18
gdb 116628	3.21028	1.04085	0.80647	4.0058	78.33	-0.2484	-0.0641	0.1843	1429.9976	0.146678	-439.11618	-439.107081	-439.106137	-439.151868	32.004	
C	 0.0467645816	 0.4431677462	-1.1073448266	-0.373797
C	-0.5828479067	 0.2033055653	 0.2614734068	-0.127405
N	-0.1428002866	-1.0735398885	 0.8121301639	-0.300403
C	-0.3191595221	-1.3005939094	 2.0385603147	 0.334249
O	-0.918185079	-0.4577247965	 2.9292631368	-0.257859
C	-0.7917070016	-0.9517295212	 4.2829479153	-0.098269
C	-0.441292175	-2.4388698464	 4.1776558565	-0.344371
C	 0.0813211521	-2.5754800199	 2.7500020124	 0.312331
O	 0.6776340504	-3.5004614524	 2.2727095499	-0.277885
H	-0.2100739177	-0.36696545	-1.7955752454	 0.126659
H	-0.3029901556	 1.3885408889	-1.5340001541	 0.106365
H	 1.1373047666	 0.4828728782	-1.029463346	 0.122266
H	-0.3492842853	 1.028145327	 0.9496492341	 0.1079
H	-1.6791393212	 0.187851148	 0.1732394848	 0.113674
H	-0.0022298854	-0.3811333781	 4.7841795848	 0.127093
H	-1.7384990858	-0.7536985942	 4.7885072513	 0.130345
H	 0.295485778	-2.7790367528	 4.9068970087	 0.14737
H	-1.3291022866	-3.0735124643	 4.2761229019	 0.151738
19.3714	88.4271	125.9932	139.2426	168.1959	260.7582	319.1685	359.7386	480.3354	570.0893	603.0913	658.6267	705.3276	774.789	796.681	838.1583	897.5466	974.1432	1022.7099	1049.7455	1053.8604	1086.4813	1119.9473	1136.3073	1199.9357	1237.0096	1241.8469	1277.983	1294.0786	1380.4564	1399.6743	1412.956	1451.2787	1468.399	1488.7844	1503.8421	1525.1029	1759.9602	1860.0936	2993.8477	3023.459	3040.9088	3046.3949	3056.974	3111.0838	3112.4924	3119.5617	3129.2317
CCN=C1OCCC1=O	CCN=C1OCCC1=O	
InChI=1S/C6H9NO2/c1-2-7-6-5(8)3-4-9-6/h2-4H2,1H3	InChI=1S/C6H9NO2/c1-2-7-6-5(8)3-4-9-6/h2-4H2,1H3
