23
gdb 118883	3.03794	1.05926	0.95417	0.8465	86.29	-0.2496	0.0872	0.3368	1376.6308	0.204711	-388.252562	-388.242963	-388.242019	-388.286953	36.441	
C	-0.0493042749	 1.3981053889	-0.0193888231	-0.221636
O	-0.0845933769	-0.0058639291	-0.078204729	-0.237746
C	 0.7623851408	-0.540286188	-1.0769577632	-0.108142
C	 0.6442736056	-2.0594599829	-1.0565185907	 0.321109
C	 1.1193231156	-2.6187216881	 0.2852924652	-0.449013
C	-0.7444545033	-2.6623596004	-1.4821008474	-0.278778
C	-0.0450284358	-3.4553835959	-2.593549996	-0.031125
C	 0.621598	-2.5154950515	-3.5541982804	-0.296878
C	 1.2952869019	-2.8056933202	-2.2396703828	-0.093597
H	 0.9596228463	 1.7732397463	 0.2165477565	 0.101689
H	-0.3682211429	 1.8566734405	-0.9694703888	 0.10107
H	-0.7358237193	 1.7125261329	 0.7709063696	 0.124591
H	 0.4798298815	-0.1362369592	-2.0622173264	 0.079333
H	 1.8101923624	-0.2404089262	-0.893647938	 0.078403
H	 0.5326878962	-2.1968578066	 1.1053896191	 0.130599
H	 1.0244567123	-3.7090232019	 0.3089980416	 0.108584
H	 2.1736559381	-2.3708238228	 0.4590665952	 0.104083
H	-1.1805304132	-3.2829657173	-0.6965538465	 0.100836
H	-1.5007329027	-1.9447300104	-1.8160506889	 0.094425
H	-0.247559813	-4.4872465835	-2.8532432774	 0.082109
H	 1.0917753484	-2.9819137895	-4.4145217516	 0.108778
H	 0.1824444354	-1.5442480254	-3.7685441541	 0.103946
H	 2.2801870875	-3.25825704	-2.1987298931	 0.077359
75.4325	94.7517	140.546	193.2426	233.018	252.9149	273.9851	345.8055	358.9264	402.3165	449.9436	483.9303	666.278	760.6998	790.5629	834.0402	887.232	918.5762	946.8707	976.3094	983.3099	986.836	996.3357	1007.3081	1036.421	1065.8452	1085.5322	1137.5838	1154.6479	1173.5884	1177.1023	1195.1531	1212.4265	1232.2446	1248.73	1282.3002	1285.388	1310.1522	1367.0202	1398.2947	1420.6427	1480.011	1481.6702	1485.3655	1491.3937	1494.5903	1499.7967	1504.9741	1524.1457	2939.9433	2966.2839	2985.5087	3007.8872	3025.5363	3049.481	3088.7716	3108.1372	3109.3171	3109.5296	3120.8511	3163.5932	3181.3177	3197.3847
COCC1(C)CC2CC12	COC[C@@]1(C)C[C@H]2C[C@@H]12	
InChI=1S/C8H14O/c1-8(5-9-2)4-6-3-7(6)8/h6-7H,3-5H2,1-2H3	InChI=1S/C8H14O/c1-8(5-9-2)4-6-3-7(6)8/h6-7H,3-5H2,1-2H3/t6-,7-,8-/m1/s1
