17
gdb 78581	5.19736	1.07234	1.02674	3.8592	77.73	-0.231	0.0245	0.2555	1177.2935	0.136376	-380.78131	-380.773877	-380.772933	-380.813183	28.859	
C	-0.0355219498	 1.5449223906	-0.2449601889	-0.33068
N	 0.0004932641	 0.0955700352	-0.0723217594	-0.11603
C	-1.0917340867	-0.4980597759	 0.7523715293	-0.026108
C	-0.1854343791	-1.6953041897	 1.1669094622	-0.053744
C	-0.5529680319	-1.539007832	 2.663524033	-0.202066
C	 0.4330811989	-1.947170319	 3.6527810109	 0.26829
N	 1.2228359431	-2.2631005964	 4.4363023449	-0.329987
C	-0.4925195936	-0.0780391888	 2.1472812574	-0.072741
C	 0.6883242623	-0.4049279819	 1.1546671548	-0.009854
H	 0.937943571	 1.8841187678	-0.6128505869	 0.127263
H	-0.7841119521	 1.796243152	-1.0030714199	 0.12491
H	-0.2716307028	 2.1094990373	 0.6723568161	 0.098847
H	-2.1387228508	-0.5216054884	 0.4462797294	 0.091623
H	-0.0067026508	-2.6042870535	 0.5964035751	 0.103894
H	-1.5453611503	-1.9007689835	 2.9481545568	 0.120179
H	-0.6694561953	 0.8253951146	 2.7276297096	 0.100449
H	 1.7607921738	-0.3153866284	 1.3272533556	 0.105754
111.2336	149.4152	224.8344	247.8463	295.3057	402.9798	495.0899	535.5525	601.9935	742.2253	765.5739	816.8348	822.8986	850.6721	872.5353	917.2772	928.9008	981.5581	1010.6824	1032.7999	1088.7435	1095.8069	1130.3536	1138.582	1158.0237	1165.2659	1173.9309	1185.5178	1209.5395	1220.0768	1283.7719	1319.6883	1364.1578	1449.8527	1493.1301	1497.0408	2352.0723	2967.969	3068.5909	3071.2999	3104.9675	3106.6107	3121.7565	3139.7031	3149.4847
CN1C2C3C(C#N)C2C13	CN1[C@H]2[C@@H]3[C@@H](C#N)[C@H]2[C@H]13	
InChI=1S/C7H8N2/c1-9-6-4-3(2-8)5(6)7(4)9/h3-7H,1H3	InChI=1S/C7H8N2/c1-9-6-4-3(2-8)5(6)7(4)9/h3-7H,1H3/t3-,4-,5+,6-,7+
