19
gdb 121460	3.4061	0.83125	0.70843	2.9632	76.19	-0.2474	0.011	0.2584	1595.8735	0.1596	-456.322639	-456.313089	-456.312145	-456.358289	34.003	
N	 0.108771548	 1.4921642949	 0.1103190631	-0.508012
C	 0.0480470622	 0.0552027099	-0.027286519	-0.123234
C	-1.3531264419	-0.5943894177	-0.1258667252	-0.081392
O	-0.9618720658	-1.2769968607	-1.3579098905	-0.265435
C	 0.2609371873	-0.6311672515	-1.37729192	 0.445919
N	 1.1532017571	-0.618533897	-2.2535996286	-0.369313
C	 0.971386572	-1.3662525341	-3.4972422072	-0.17041
C	 1.6944182885	-0.6101129244	-4.6129891154	-0.044623
O	 3.0483677011	-0.3860029064	-4.2822317871	-0.423391
H	 1.075238216	 1.7937849926	 0.1817669786	 0.245006
H	-0.2709204499	 1.9441095129	-0.7170459798	 0.235621
H	 0.6605716109	-0.4003618747	 0.7557562512	 0.117814
H	-1.6352625418	-1.3081820978	 0.6505307289	 0.12634
H	-2.1655080666	 0.1140284813	-0.3101751112	 0.122985
H	 1.4379450523	-2.3528686884	-3.3799749093	 0.117655
H	-0.0865444308	-1.5205663426	-3.7472685189	 0.107201
H	 1.6748902453	-1.1959356264	-5.5383929734	 0.101082
H	 1.1649328992	 0.3382004124	-4.8069343005	 0.078261
H	 3.0335234869	-0.0823964422	-3.3646736057	 0.287926
35.355	93.4143	113.1178	130.6007	196.3998	246.7737	262.2492	302.4083	418.0979	480.4345	509.5542	550.7481	674.3874	745.6555	808.2979	862.5852	894.9004	922.5703	964.0836	970.981	1002.5097	1055.5029	1094.161	1110.6086	1136.5607	1150.9393	1172.8021	1222.7677	1233.6992	1254.6545	1267.1606	1335.3655	1372.4866	1383.2536	1430.8612	1443.1953	1476.4147	1509.7176	1515.2452	1668.7817	1838.5965	2960.1336	3011.6439	3057.4007	3063.2117	3070.1739	3078.7	3128.4557	3495.9527	3575.9105	3756.954
NC1COC1=NCCO	N[C@H]1COC1=NCCO	
InChI=1S/C5H10N2O2/c6-4-3-9-5(4)7-1-2-8/h4,8H,1-3,6H2	InChI=1S/C5H10N2O2/c6-4-3-9-5(4)7-1-2-8/h4,8H,1-3,6H2/t4-/m0/s1
