23
gdb 113375	2.34287	1.01252	0.81654	1.8719	82.69	-0.2582	0.0708	0.329	1499.2695	0.203624	-425.398607	-425.38762	-425.386676	-425.435025	39.858	
C	-0.0897155922	-1.304204583	 1.9574564497	-0.387691
C	-1.6100698418	-1.4577933292	 1.841936121	-0.262361
C	-2.2577145622	-0.9944013099	 0.526431503	 0.350236
C	-3.5223631372	-0.1905202816	 0.7466927436	-0.156695
O	-3.1896812925	 0.9940240553	 1.4625230062	-0.421623
C	-1.432523478	-0.6138595377	-0.6828744652	-0.314754
C	-2.2737701574	-1.8636303966	-0.7163780793	-0.034693
C	-1.6409686567	-3.2286605036	-0.7478985249	-0.114124
O	-1.3494819536	-3.5431633854	-2.1051992582	-0.4188
H	 0.2445754925	-1.600498281	 2.9570714063	 0.107751
H	 0.4558345743	-1.9214176693	 1.2364092362	 0.115042
H	 0.2089569278	-0.2639106789	 1.7970991041	 0.128173
H	-1.8907554545	-2.4992541969	 2.0473437044	 0.090302
H	-2.0598063884	-0.8580438386	 2.6392624472	 0.113308
H	-3.9815272718	 0.0540319005	-0.223767051	 0.083059
H	-4.2499682959	-0.7958229725	 1.3128378135	 0.08206
H	-4.0079527037	 1.415712489	 1.7403617135	 0.285763
H	-1.74681679	 0.2422353775	-1.2702866262	 0.109608
H	-0.3572227793	-0.7400906538	-0.6289405241	 0.111649
H	-3.1789238026	-1.8166695672	-1.3178269792	 0.080858
H	-0.7276404567	-3.2449224026	-0.1351154976	 0.086873
H	-2.3337796721	-3.9699893347	-0.3158703345	 0.082783
H	-1.012408128	-4.4435819197	-2.1348459184	 0.283277
58.069	68.8786	101.2506	146.5964	189.3485	240.8398	249.7781	266.7485	274.7155	293.2037	343.2855	369.919	432.8978	469.1621	607.8229	680.7325	779.9313	839.6456	877.8334	926.4618	945.3982	968.3282	1022.1816	1034.5465	1065.7064	1067.2191	1068.0472	1091.3984	1118.9907	1127.1363	1171.1924	1228.2269	1239.3418	1252.6086	1257.8245	1286.5741	1317.6115	1346.0815	1379.9525	1407.0295	1418.3956	1456.4789	1470.8326	1485.5805	1496.3396	1501.2681	1509.9718	1515.6444	1521.7138	2957.4373	2960.2559	2993.6983	3004.0932	3016.7751	3035.8931	3071.5198	3100.8988	3111.6384	3128.5781	3136.2203	3219.8243	3824.2211	3830.6369
CCC1(CO)CC1CO	CC[C@@]1(CO)C[C@H]1CO	
InChI=1S/C7H14O2/c1-2-7(5-9)3-6(7)4-8/h6,8-9H,2-5H2,1H3	InChI=1S/C7H14O2/c1-2-7(5-9)3-6(7)4-8/h6,8-9H,2-5H2,1H3/t6-,7-/m0/s1
