16
gdb 83731	2.66475	1.77836	1.29694	3.3532	65.23	-0.2639	0.0099	0.2738	970.4006	0.125418	-475.00978	-475.00237	-475.001426	-475.041841	28.242	
O	 0.0665296902	 1.4256135294	 0.1275149373	-0.429837
C	 0.0014470229	 0.0364497109	 0.0230866723	 0.070041
C	-1.4009908229	-0.55180881	-0.090085142	 0.05933
O	-2.2442052896	 0.095874346	-1.0658054647	-0.280951
C	-2.3365698531	-1.1147542736	-1.8516342792	-0.089663
C	-1.2304335764	-1.7751767787	-1.0194626971	 0.037093
O	 0.0634570322	-1.6498496516	-1.6362120074	-0.24576
C	 0.6716197407	-0.5016345	-1.229704464	 0.369873
N	 1.647831588	 0.0732416117	-1.7801239382	-0.55328
H	 0.7567896418	 1.703525066	-0.4924268626	 0.301233
H	 0.4869744653	-0.4512621089	 0.8891750724	 0.095305
H	-1.9121962323	-0.6948380109	 0.865777196	 0.0915
H	-3.3191069894	-1.5934882792	-1.7518793785	 0.110523
H	-2.1028732631	-0.9526895838	-2.9083664186	 0.124006
H	-1.3534253014	-2.7972787737	-0.6644984538	 0.106475
H	 1.9519547272	-0.3995681836	-2.6307859321	 0.234113
98.1898	130.536	213.2935	279.1455	342.8693	395.3501	468.184	512.34	602.6299	633.9148	754.4049	818.558	856.4017	879.9783	886.4185	906.6199	971.4732	1001.6325	1036.0082	1054.858	1100.0899	1105.8168	1164.7587	1174.8741	1224.785	1237.3561	1260.66	1279.5458	1328.9199	1353.3646	1367.0743	1397.1725	1442.6136	1507.1084	1788.785	2932.6151	3021.3783	3075.8829	3089.1267	3129.4257	3498.4385	3729.3367
OC1C2OCC2OC1=N	O[C@H]1[C@H]2OC[C@H]2O[C]1[NH]	
InChI=1S/C5H7NO3/c6-5-3(7)4-2(9-5)1-8-4/h2-4,6-7H,1H2	InChI=1S/C5H7NO3/c6-5-3(7)4-2(9-5)1-8-4/h2-4,6-7H,1H2/t2-,3+,4+/m1/s1
