17
gdb 68867	2.49524	1.84238	1.4478	1.3293	66.62	-0.232	0.0572	0.2892	941.2294	0.135527	-458.929385	-458.921723	-458.920779	-458.960985	30.887	
O	-0.0035318252	 1.3623486338	-0.1194688706	-0.483851
C	 0.0277941026	-0.0257217982	-0.0450179014	 0.376073
C	-0.3188294051	-0.7099741817	 1.2709888236	-0.398114
C	-1.2638679435	-0.8008791574	 0.1026843569	 0.326322
O	-2.4738880809	-0.1081056273	 0.1955464763	-0.477169
C	-1.1521026667	-2.0151492612	-0.7640747077	-0.079665
O	-1.051115179	-1.6630912964	-2.1570853872	-0.26457
C	 0.1528581215	-1.9703708275	-1.4420793958	 0.059984
C	 0.9559678037	-0.7431832563	-1.0163858601	-0.310853
H	-0.922702018	 1.6252104824	 0.0282689967	 0.280619
H	 0.2123911505	-1.5999223612	 1.5954189835	 0.112158
H	-0.6234021323	-0.040794495	 2.0685301595	 0.126772
H	-2.790099819	 0.0214657501	-0.7082895407	 0.295951
H	-1.6894749877	-2.9356030172	-0.5475079105	 0.101944
H	 0.6582493736	-2.875761202	-1.7677287324	 0.100163
H	 1.1724604766	-0.0998430929	-1.8742445272	 0.12699
H	 1.9087670788	-1.0369018018	-0.5619546828	 0.107244
160.3737	186.8055	223.5427	278.006	381.425	391.7834	430.5323	483.315	495.2573	558.8301	569.3694	660.2743	746.6499	789.4238	816.6218	869.928	908.6397	920.6937	949.4278	957.7359	1017.0951	1027.7134	1059.517	1106.3837	1133.8483	1182.3362	1205.3449	1248.3247	1267.8137	1286.2426	1335.1513	1350.673	1401.1558	1415.7628	1426.1165	1474.1568	1486.81	3044.3042	3097.1907	3122.2621	3139.4528	3154.7728	3218.745	3741.4175	3768.4076
OC12CC1(O)C1OC1C2	O[C@@]12C[C@]1(O)[C@H]1O[C@H]1C2	
InChI=1S/C6H8O3/c7-5-1-3-4(9-3)6(5,8)2-5/h3-4,7-8H,1-2H2	InChI=1S/C6H8O3/c7-5-1-3-4(9-3)6(5,8)2-5/h3-4,7-8H,1-2H2/t3-,4-,5-,6-/m0/s1
