18
gdb 85500	2.49358	1.37867	1.04943	4.4377	72.63	-0.2462	-0.0404	0.2058	1163.3271	0.147324	-439.144705	-439.135961	-439.135017	-439.178502	32.132	
C	-0.0390703455	 1.5782810715	-0.0784080798	-0.40028
C	-0.0104698182	 0.0454317816	-0.016269384	-0.02452
C	 0.8337077588	-0.5497206627	-1.1615377077	-0.339057
C	 2.254112417	-0.6401304167	-0.5874404769	 0.410313
O	 3.2944949109	-0.7249438933	-1.1971288727	-0.371023
N	 2.1107267716	-0.6204231543	 0.7765413497	-0.29972
C	 0.7542852857	-0.4937680938	 1.2414063455	-0.069964
C	 0.6342584635	 0.3560623045	 2.4862627701	 0.154572
O	 1.5718854851	 0.835835834	 3.0695497976	-0.249289
H	 0.9720682255	 1.9946985862	-0.022042298	 0.143329
H	-0.4858718656	 1.9097269085	-1.0203915891	 0.125835
H	-0.6276815474	 2.0104825777	 0.7367009	 0.120849
H	-1.0332036602	-0.3398289237	-0.021912733	 0.084753
H	 0.5054210645	-1.5606769235	-1.4289952854	 0.128142
H	 0.8282259126	 0.0536342685	-2.0711710689	 0.131585
H	 2.8992542784	-0.5764878543	 1.4026228377	 0.263886
H	 0.3210709026	-1.4734259794	 1.5198812726	 0.102657
H	-0.4079210693	 0.4755201395	 2.8575015024	 0.087933
86.8706	94.8611	107.3483	229.8432	238.1954	286.7589	355.4387	403.3623	444.2617	497.8136	584.1081	646.8638	684.2934	703.3303	800.6134	868.1502	882.391	947.4151	970.9334	1013.5678	1044.7702	1092.0634	1108.8174	1150.7426	1221.3177	1244.7707	1256.8314	1284.8452	1327.4454	1365.7511	1371.6675	1414.6806	1421.5572	1423.8209	1465.7613	1497.1424	1502.3442	1829.1474	1840.676	2886.1704	2922.5602	3037.542	3049.6822	3073.7196	3107.2306	3112.6222	3120.3245	3647.1897
CC1CC(=O)NC1C=O	C[C@H]1CC(=O)N[C@H]1C=O	
InChI=1S/C6H9NO2/c1-4-2-6(9)7-5(4)3-8/h3-5H,2H2,1H3,(H,7,9)	InChI=1S/C6H9NO2/c1-4-2-6(9)7-5(4)3-8/h3-5H,2H2,1H3,(H,7,9)/t4-,5-/m0/s1
