21
gdb 115914	3.61984	1.12201	0.94455	2.3097	78.42	-0.2543	0.084	0.3382	1301.9728	0.183183	-424.220343	-424.211799	-424.210855	-424.253607	32.827	
C	-0.0181893409	 1.5574259503	-0.0566294201	-0.388596
C	 0.0395793162	 0.0291518992	-0.0013520956	-0.188929
C	 0.7263709583	-0.5063598456	 1.2512768733	 0.143153
C	 0.6691135369	-2.0387552407	 1.3540258236	-0.244516
C	 1.6428208641	-2.5723114321	 2.3903403239	 0.0313
O	 3.009623678	-2.6894122439	 1.9716509847	-0.246225
C	 2.6869430515	-1.6867639357	 2.9300463574	 0.043198
C	 2.7535231484	-0.2547565331	 2.445197545	-0.115453
O	 2.0780842662	-0.0577585628	 1.2233084178	-0.252424
H	 0.9878519569	 1.98041114	-0.0021344345	 0.135054
H	-0.4858840801	 1.9004318218	-0.9843015167	 0.110417
H	-0.5999184859	 1.9625684332	 0.7791326333	 0.108229
H	-0.9724967806	-0.3919438206	-0.0444267226	 0.094064
H	 0.5802399795	-0.358300848	-0.8735623105	 0.109066
H	 0.2347008947	-0.078653973	 2.1448940805	 0.057041
H	-0.3501959889	-2.3472671877	 1.6120089833	 0.098964
H	 0.9106823369	-2.4871467859	 0.3833552841	 0.119019
H	 1.3007159981	-3.4097363806	 2.9979818839	 0.091388
H	 3.0789170792	-1.8578799431	 3.9340323239	 0.08908
H	 2.3394540938	 0.3975019609	 3.23526531	 0.087653
H	 3.7940522178	 0.0416450473	 2.2748139353	 0.118516
81.5855	113.9104	178.9957	218.1096	264.6653	337.0641	340.9718	400.5237	472.2142	484.9755	554.1724	737.1802	765.7832	789.1557	815.2349	878.4827	907.0671	956.0933	964.9017	984.0519	1027.0332	1048.5428	1062.6423	1101.565	1132.2262	1140.298	1160.0935	1179.5559	1241.9169	1274.7676	1291.184	1305.7601	1315.2239	1358.264	1368.2033	1386.7599	1404.017	1408.6519	1415.9025	1463.6637	1475.246	1477.2107	1484.606	1497.7173	1510.6054	2927.8922	2949.3958	3027.2309	3036.3317	3036.6974	3065.4213	3070.6095	3080.231	3096.1696	3101.6474	3113.15	3126.5392
CCC1CC2OC2CO1	CC[C@H]1C[C@H]2O[C@H]2CO1	
InChI=1S/C7H12O2/c1-2-5-3-6-7(9-6)4-8-5/h5-7H,2-4H2,1H3	InChI=1S/C7H12O2/c1-2-5-3-6-7(9-6)4-8-5/h5-7H,2-4H2,1H3/t5-,6+,7-/m0/s1
