14
gdb 8650	2.12886	1.91628	1.59732	0.3039	65.26	-0.2636	0.0088	0.2724	910.1004	0.102033	-382.444846	-382.435432	-382.434488	-382.478495	33.442	
O	 0.0276072389	 1.4130104826	 0.0096917846	-0.409049
C	 0.0277831277	 0.0048144143	 0.0018752002	-0.086711
C	-1.4378562531	-0.483242094	 0.0131926729	-0.039702
O	-1.3183365565	-1.9078952431	 0.0043995165	-0.433317
C	-2.1351077146	-0.0248393781	 1.2262259041	 0.368056
C	-2.7135696062	 0.2995551154	 2.2274989333	-0.488579
C	-2.1579994239	-0.0118932317	-1.1813641433	 0.36804
C	-2.7553708248	 0.3231453008	-2.1679215051	-0.488581
H	 0.9402553465	 1.7141404524	 0.0009732887	 0.295661
H	 0.4986776404	-0.414084664	-0.8979363784	 0.108692
H	 0.5157793559	-0.4239713447	 0.8878225277	 0.108686
H	-2.2107526619	-2.2716108436	 0.0108922407	 0.290809
H	-3.2232050356	 0.5998058413	 3.1096920289	 0.202999
H	-3.2817339928	 0.6326753224	-3.0369878807	 0.202996
99.6835	122.3502	140.978	154.4092	198.614	243.5209	276.8074	280.6583	434.791	463.7557	513.6289	562.5396	643.2578	643.3958	655.334	663.5213	665.1008	683.6264	939.2984	1021.7948	1068.2178	1118.2367	1166.0628	1243.8294	1272.363	1363.6575	1449.5166	1515.8099	2236.6761	2238.7481	3000.5685	3046.6944	3501.5503	3502.0922	3813.0617	3843.3206
OCC(O)(C#C)C#C	OCC(O)(C#C)C#C	
InChI=1S/C6H6O2/c1-3-6(8,4-2)5-7/h1-2,7-8H,5H2	InChI=1S/C6H6O2/c1-3-6(8,4-2)5-7/h1-2,7-8H,5H2
