17
gdb 125639	3.3197	1.55899	1.07493	2.213	81.54	-0.2007	0.	0.2008	1094.4669	0.138745	-380.904065	-380.896596	-380.895652	-380.935898	29.004	
C	-0.0180470159	 1.5058484663	-0.0895925781	-0.49984
C	-0.0069062299	 0.0161956895	 0.0441534764	 0.18047
N	-0.0315808059	-0.7570918597	-1.0470703694	-0.288701
N	-0.0129111069	-2.0402408322	-0.5911606609	-0.338291
C	 0.0229695585	-2.0924422965	 0.7531614661	 0.350635
C	 0.028153744	-0.7888339911	 1.2087988709	 0.191657
C	 0.066961246	-0.8298845248	 2.6703501626	-0.211063
C	 0.0844012299	-2.1161497278	 3.0742871194	-0.089579
C	 0.0580068023	-3.0740163673	 1.8844101384	-0.418244
H	 0.875978824	 1.9550620848	 0.3574404456	 0.126072
H	-0.0521425853	 1.7836432641	-1.1451050096	 0.140177
H	-0.8866126761	 1.9467501008	 0.412436547	 0.125968
H	-0.0270198453	-2.7876667456	-1.263206151	 0.268454
H	 0.0796605347	 0.0334748784	 3.3231750155	 0.098024
H	 0.1132561297	-2.4676379867	 4.0970895782	 0.097188
H	-0.8182822222	-3.7346280607	 1.9128555602	 0.133534
H	 0.9414592084	-3.7253888515	 1.8663663687	 0.133539
109.7242	164.7173	226.266	246.3265	333.9089	432.4195	486.3242	492.6947	604.2863	654.3703	660.6836	693.9685	748.2769	798.8207	866.9187	927.7752	929.9978	948.0243	1000.4584	1055.7455	1065.1154	1120.456	1136.1236	1150.0806	1198.6736	1239.6364	1324.3089	1367.8891	1410.3311	1415.1089	1439.2435	1484.0906	1486.358	1514.1604	1545.0479	1556.6852	1618.3083	3028.0129	3032.1453	3056.5441	3081.6213	3131.5867	3208.6975	3231.8683	3678.2572
CC1=NNC2=C1C=CC2	Cc1n[nH]c2c1C=CC2	
InChI=1S/C7H8N2/c1-5-6-3-2-4-7(6)9-8-5/h2-3H,4H2,1H3,(H,8,9)	InChI=1S/C7H8N2/c1-5-6-3-2-4-7(6)9-8-5/h2-3H,4H2,1H3,(H,8,9)
