17
gdb 41483	3.23347	1.7141	1.36705	0.6328	67.03	-0.2435	0.0499	0.2933	944.9738	0.137504	-458.914053	-458.907263	-458.906319	-458.945197	26.887	
C	 0.1880836229	 1.5593992592	 0.3324975521	-0.115642
O	 1.5274247988	 1.4746520815	-0.2469988145	-0.343441
C	 1.3298569566	 0.1048119745	-0.5653186971	 0.396925
C	 1.8674957261	-0.5193305699	-1.829925009	-0.183984
O	 1.6812488334	-1.9134896998	-1.6141270177	-0.257794
C	 1.9603860777	-2.19297661	-0.2351814091	-0.103559
C	 1.5440768171	-0.9565985527	 0.5530028484	 0.035448
O	 0.1382486645	-0.8961380698	 0.9206413208	-0.306799
C	-0.1246961493	 0.100239056	-0.0782795811	 0.007495
H	 0.2097955042	 1.7330221132	 1.4129833842	 0.118917
H	-0.4015930586	 2.3350916184	-0.1674283976	 0.114238
H	 1.3207784756	-0.2440002222	-2.7350475244	 0.119925
H	 2.9301458608	-0.2537201098	-1.9636514006	 0.103602
H	 1.4049068892	-3.0910705212	 0.0444568317	 0.126675
H	 3.0373035098	-2.3743750681	-0.092753147	 0.096993
H	 2.1986160977	-0.7128670916	 1.3934053242	 0.092376
H	-1.0189441966	-0.1038499376	-0.6687545333	 0.098626
135.5076	190.9842	255.9003	343.8821	361.0644	441.6762	485.1514	635.4846	719.2306	783.189	833.0706	850.3832	883.2451	919.5666	928.2056	973.0274	1005.0439	1008.033	1062.6652	1083.0101	1101.3237	1138.92	1141.6224	1146.0235	1168.9529	1214.5266	1233.8722	1265.1829	1296.7424	1303.7911	1340.5717	1354.8289	1375.5859	1396.1747	1486.0231	1501.6371	1507.6194	2967.2499	2985.5034	3036.8137	3085.2995	3095.309	3099.2587	3107.8661	3108.0897
C1OC23COCC2OC13	C1O[C@@]23COC[C@@H]2O[C@@H]13	
InChI=1S/C6H8O3/c1-4-6(3-7-1)5(9-4)2-8-6/h4-5H,1-3H2	InChI=1S/C6H8O3/c1-4-6(3-7-1)5(9-4)2-8-6/h4-5H,1-3H2/t4-,5-,6-/m0/s1
