15
gdb 123779	4.63823	1.15116	0.99431	5.8016	74.86	-0.2515	-0.0832	0.1683	1154.3532	0.112792	-412.921339	-412.91401	-412.913066	-412.95379	27.051	
C	-0.2082881268	 1.3267494689	-0.3213607895	-0.268313
C	 1.1884404247	 1.1453407489	 0.1743122541	-0.268311
C	 0.2617196818	-0.0599786324	 0.0956153287	-0.081735
C	-0.2542963305	-0.6988901796	 1.3158699439	 0.394716
C	-0.5873019309	-0.0276273439	 2.4998121147	-0.034094
N	-1.0449475436	-0.6832217911	 3.5494550052	-0.165506
N	-1.1854776946	-2.0088629127	 3.4603884924	-0.062132
N	-0.8777467337	-2.6493365072	 2.3589334674	-0.061042
N	-0.4143675932	-2.0239741905	 1.2820638994	-0.248622
H	-0.9245099095	 1.8270519833	 0.3213665	 0.130742
H	-0.3722692303	 1.484520306	-1.3808307634	 0.138277
H	 2.0053063665	 1.1757176871	-0.5370699885	 0.138277
H	 1.4401929196	 1.5199159509	 1.1605620266	 0.130742
H	 0.4498703784	-0.775329219	-0.6963713562	 0.121313
H	-0.4880447379	 1.0487517716	 2.6139389354	 0.135688
68.0265	113.3206	181.0421	267.0682	328.0419	390.9168	562.7084	565.0479	680.1184	779.1971	817.879	825.8339	839.8458	879.8699	900.9925	945.1446	968.6941	1052.4877	1069.554	1082.2288	1085.6321	1094.7709	1137.2491	1189.9448	1202.565	1223.4437	1319.748	1353.417	1422.1491	1473.5079	1502.0229	1511.154	1588.1707	3140.0656	3142.3565	3161.4857	3186.3737	3221.4862	3236.2585
C1CC1C1=CN=NN=N1	C1CC1c1cnnnn1	
InChI=1S/C5H6N4/c1-2-4(1)5-3-6-8-9-7-5/h3-4H,1-2H2	InChI=1S/C5H6N4/c1-2-4(1)5-3-6-8-9-7-5/h3-4H,1-2H2
