17
gdb 45724	2.30578	1.52023	1.1433	2.7863	79.25	-0.2407	-0.0181	0.2226	1111.1614	0.135353	-384.686704	-384.67839	-384.677446	-384.720085	31.478	
O	-0.0456310144	-0.0853574762	 0.209349878	-0.307825
C	-0.0403097183	 1.1070459925	 0.0222945129	 0.399794
C	-1.3310655393	 1.9093959546	-0.1125112862	-0.35682
C	-1.1862365875	 3.1827042936	-0.9017612087	-0.044733
C	-0.0445962655	 3.6017417465	-1.4410499064	-0.070621
C	 1.2680481815	 2.8507710494	-1.2971085704	-0.229776
C	 1.2380026584	 1.9242221461	-0.0521835073	-0.317315
C	 1.5794266169	 2.1116029948	-2.5229238473	 0.34686
C	 1.8255848094	 1.4995641802	-3.527615075	-0.474993
H	-2.0932979125	 1.2527047156	-0.5470218266	 0.142368
H	-1.6870361922	 2.1327339823	 0.905471463	 0.137602
H	-2.0915158167	 3.7683846177	-1.0419928709	 0.099702
H	-0.0173413962	 4.5092714966	-2.036291147	 0.104018
H	 2.070328775	 3.5843973854	-1.1414969897	 0.116478
H	 1.2692507043	 2.5667846336	 0.8379340371	 0.122144
H	 2.0965967425	 1.2516178159	-0.0294642916	 0.131547
H	 2.0421545148	 0.9578140414	-4.4149053039	 0.201571
66.5423	72.917	160.4996	227.1044	355.1911	395.8243	433.0731	470.997	511.5485	569.1729	596.89	628.2172	643.8354	709.2092	736.7076	780.0712	877.9221	934.566	946.9897	964.2559	1003.534	1042.6926	1061.3913	1140.274	1176.4192	1228.8267	1235.2906	1266.9618	1319.8331	1337.9567	1356.0398	1406.7931	1437.9226	1458.6696	1728.1833	1825.8585	2233.8635	2999.6385	3009.9071	3030.3398	3065.3177	3127.7395	3152.3415	3181.5521	3504.0411
O=C1CC=CC(C1)C#C	O=C1CC=C[C@@H](C1)C#C	
InChI=1S/C8H8O/c1-2-7-4-3-5-8(9)6-7/h1,3-4,7H,5-6H2	InChI=1S/C8H8O/c1-2-7-4-3-5-8(9)6-7/h1,3-4,7H,5-6H2/t7-/m0/s1
