21
gdb 121501	3.50426	0.70722	0.64685	1.504	83.44	-0.2449	0.0255	0.2704	1815.0683	0.181712	-420.370676	-420.360613	-420.359669	-420.407162	35.521	
C	-0.1650547139	 1.0043007238	-0.937683555	-0.37444
C	-0.1879165812	-0.2693941938	-0.103186805	-0.07208
O	 0.9787715697	-1.0662111333	-0.3226656864	-0.202003
C	 0.9146565464	-1.9637080842	-1.3273320785	 0.121884
N	 1.9425514293	-2.6134261443	-1.6549603665	-0.245684
C	 1.8664136643	-3.6101548906	-2.7117212374	-0.156727
C	 0.5794208746	-3.7120518377	-3.5028848368	 0.004414
C	 0.1229119473	-5.0187454499	-4.0321727014	-0.251417
N	-0.6089769804	-4.3734160716	-2.9267875473	-0.318468
H	 0.7444411741	 1.5766389722	-0.7357430227	 0.137191
H	-0.1955166612	 0.7749729939	-2.0074671405	 0.124932
H	-1.0311246672	 1.6295616122	-0.6977114932	 0.120615
H	-0.1823698711	-0.0351660956	 0.9648719326	 0.121067
H	-1.089999137	-0.8604393673	-0.3107347258	 0.111057
H	-0.0835654218	-2.0668301069	-1.7730340774	 0.103516
H	 2.6946524111	-3.4119370316	-3.4060373843	 0.115818
H	 2.0901359366	-4.5903250492	-2.2642012955	 0.101546
H	 0.3264146176	-2.8223436411	-4.0780942987	 0.094233
H	-0.4180948731	-5.0677587436	-4.9726984917	 0.119747
H	 0.727337098	-5.8958222518	-3.8132206676	 0.113386
H	-0.3497724819	-4.8203548096	-2.0491912209	 0.231413
39.2874	64.3356	85.5859	129.3056	175.401	216.2465	263.0208	290.4593	357.0803	398.7862	407.3846	515.2095	626.2406	791.5198	803.2815	833.4483	902.3798	932.129	934.6538	980.5448	1018.4357	1039.9427	1054.0621	1075.5076	1114.192	1128.7695	1164.5165	1173.3593	1200.6423	1246.6507	1258.0154	1282.8854	1316.2174	1337.3578	1350.0184	1398.4255	1412.4592	1423.6161	1433.4467	1475.4143	1486.4403	1493.2044	1512.7336	1513.3979	1766.8959	2995.0907	3017.827	3026.1862	3034.9169	3040.7789	3088.7917	3106.958	3114.2665	3116.1715	3125.5837	3192.0961	3480.9854
CCOC=NCC1CN1	CCOC=NC[C@H]1CN1	
InChI=1S/C6H12N2O/c1-2-9-5-7-3-6-4-8-6/h5-6,8H,2-4H2,1H3	InChI=1S/C6H12N2O/c1-2-9-5-7-3-6-4-8-6/h5-6,8H,2-4H2,1H3/t6-/m0/s1
