21
gdb 92627	3.36629	1.25075	1.07669	1.7167	76.91	-0.2492	0.0722	0.3214	1194.4657	0.184883	-424.248838	-424.240838	-424.239894	-424.281573	31.265	
C	-0.0373724564	 1.5571586984	-0.0394693172	-0.401788
C	 0.1330642427	 0.0408802114	 0.0180804501	 0.037311
C	 0.814546245	-0.5775131385	-1.2183789465	-0.244939
C	 1.2426530983	-1.9876392803	-0.7661362025	 0.082035
O	 2.5335285227	-2.3980390161	-1.2073385807	-0.254791
C	 3.4202008976	-2.0785772984	-0.1616470466	 0.006934
O	 2.7257901392	-2.2906681159	 1.0443977614	-0.254808
C	 1.3755550648	-1.9135609885	 0.7911392044	 0.082043
C	 1.0185177934	-0.463758576	 1.1743623046	-0.244927
H	 0.9339461573	 2.0542112895	-0.145919259	 0.113883
H	-0.6601955238	 1.8560873074	-0.8891307972	 0.114255
H	-0.5100940809	 1.9397671186	 0.871210132	 0.114255
H	-0.861781308	-0.4166325952	 0.1246366186	 0.073933
H	 0.1749823011	-0.5916276764	-2.1049267936	 0.098798
H	 1.7128082159	-0.0009215961	-1.4735225343	 0.104311
H	 0.5341819388	-2.752370042	-1.0947299653	 0.087345
H	 4.2842949769	-2.7475061525	-0.2035373797	 0.119504
H	 3.755851091	-1.0271994825	-0.2404318188	 0.076194
H	 0.7391700309	-2.6383434755	 1.3053611403	 0.087343
H	 1.9422693478	 0.127120615	 1.2187555633	 0.104315
H	 0.5379420255	-0.3892442567	 2.1534965167	 0.098797
85.706	105.0116	231.2834	237.3714	268.497	403.3887	425.6893	452.8172	502.0435	568.156	727.2293	738.0314	814.5787	849.7401	905.5829	924.6458	924.7615	952.4642	978.5505	1000.5811	1053.7642	1069.7601	1077.4754	1098.9877	1133.6143	1149.7336	1185.8596	1192.8663	1233.3717	1234.4669	1270.0829	1275.5505	1304.1757	1323.0315	1345.8728	1367.0625	1377.1319	1385.4546	1413.6906	1430.8611	1483.4057	1492.6547	1497.377	1500.2367	1541.075	2920.4621	2992.6378	3025.4748	3029.9953	3037.2781	3063.5988	3075.0094	3088.8503	3092.0812	3094.5967	3098.4809	3101.8815
CC1CC2OCOC2C1	C[C@H]1C[C@H]2OCO[C@H]2C1	
InChI=1S/C7H12O2/c1-5-2-6-7(3-5)9-4-8-6/h5-7H,2-4H2,1H3	InChI=1S/C7H12O2/c1-5-2-6-7(3-5)9-4-8-6/h5-7H,2-4H2,1H3/t5-,6+,7-
