21
gdb 110801	2.27059	1.35014	1.03388	0.7473	88.17	-0.2499	0.0484	0.2982	1262.6604	0.181932	-349.893645	-349.884541	-349.883597	-349.92746	35.138	
C	-0.1639466685	 1.5669596963	-0.3099716628	-0.375068
C	-0.045643279	 0.1339125988	 0.2228238426	-0.21208
C	-1.3653431899	-0.6100868973	 0.1476633761	 0.0212
C	-1.9380553952	-1.2742782687	-1.0764996522	-0.074811
C	-0.8572006832	-1.9980705779	-1.8892908219	-0.259704
C	-0.5435663215	-2.9016197785	-0.6376074243	-0.169551
C	 0.8194429636	-3.0306772937	-0.1509574834	 0.331711
C	 1.9491407731	-3.161831582	 0.242145506	-0.469581
C	-1.5852922322	-2.0986040589	 0.1718245599	-0.109548
H	 0.7890714256	 2.0994292111	-0.2320750933	 0.10984
H	-0.4679130933	 1.5726395214	-1.36226127	 0.116413
H	-0.9118045623	 2.1391983587	 0.2507902343	 0.110087
H	 0.7356053402	-0.4008778871	-0.3231979562	 0.11311
H	 0.2882241566	 0.1545922876	 1.2679705566	 0.097983
H	-2.1507022825	-0.1086804649	 0.7147672616	 0.082422
H	-2.9198983451	-1.0229598271	-1.4591896033	 0.084367
H	-1.2536690047	-2.5853173698	-2.7193799373	 0.107885
H	-0.0307067771	-1.3858899096	-2.2592724859	 0.108117
H	-0.9406922247	-3.9040254727	-0.8272013036	 0.107627
H	 2.9444404323	-3.2685321115	 0.5960006167	 0.192787
H	-2.2459228521	-2.5589717642	 0.8973834503	 0.086795
81.1342	102.0695	139.9953	206.0786	216.3342	281.8023	304.1216	440.9191	481.6432	502.704	588.2385	615.1362	629.4115	698.4035	736.7293	795.7017	803.5919	825.2848	888.848	943.9602	971.0505	990.4933	1011.1747	1030.4916	1059.7616	1074.5895	1082.7277	1093.9217	1127.8112	1160.2185	1219.0398	1221.6098	1261.3598	1292.5159	1295.5052	1331.7746	1345.0313	1365.5849	1411.2654	1458.3032	1481.0215	1499.1181	1502.3221	1511.4612	2227.4487	3029.0775	3032.3258	3049.4869	3066.3534	3083.1556	3096.9383	3103.1967	3111.7351	3120.0388	3170.5908	3183.9633	3504.1382
CCC1C2CC(C#C)C12	CC[C@H]1[C@H]2C[C@@H](C#C)[C@@H]12	
InChI=1S/C9H12/c1-3-6-5-8-7(4-2)9(6)8/h1,6-9H,4-5H2,2H3	InChI=1S/C9H12/c1-3-6-5-8-7(4-2)9(6)8/h1,6-9H,4-5H2,2H3/t6-,7+,8-,9+/m1/s1
