18
gdb 48281	2.36372	1.04581	0.79544	2.6741	74.66	-0.2475	-0.0501	0.1974	1431.1154	0.14458	-439.062527	-439.05301	-439.052066	-439.098454	32.807	
O	 0.428607089	-0.2649443357	 0.609914523	-0.252692
C	 0.2153144222	 0.73684164	-0.0215674718	 0.154197
C	 1.2409068698	 1.8625303067	-0.1716099747	-0.175509
C	 0.8312032573	 2.9060474846	-1.2051960957	-0.172787
N	 0.6729562311	 2.2625727819	-2.5039942483	-0.074409
C	 0.7042059714	 3.1389200301	-3.6682849802	-0.220582
C	 1.8546262824	 2.2434339036	-3.3651041274	-0.224267
C	 1.5075620085	 2.4539820946	 1.2095782306	 0.137275
O	 1.4583409943	 3.6300457296	 1.4566749139	-0.234923
H	-0.7605688968	 0.9269328753	-0.5139532284	 0.108304
H	 2.1771095629	 1.3651349433	-0.4654307854	 0.133884
H	-0.1313013703	 3.3463516178	-0.9186827376	 0.119792
H	 1.5624677447	 3.7296380062	-1.2149246249	 0.107101
H	 0.0075471122	 2.8922910572	-4.4639458587	 0.123926
H	 0.8467161064	 4.2048872435	-3.498723825	 0.117187
H	 2.7635336815	 2.7145106004	-2.9934179676	 0.114535
H	 2.0115395079	 1.332721608	-3.9351594521	 0.12446
H	 1.7502904455	 1.6955526228	 1.9822899902	 0.114507
42.4816	85.4824	91.026	117.7373	139.6747	209.54	299.1321	334.9401	393.1369	412.0286	581.0147	654.5619	779.8445	829.1182	840.6907	877.6582	902.0129	922.8055	1025.859	1037.1192	1068.1715	1107.1651	1114.8403	1122.9793	1139.8251	1177.3216	1187.1736	1221.4507	1257.3981	1313.0122	1325.5907	1389.0597	1410.4849	1419.5544	1486.7519	1496.6977	1521.4218	1803.7507	1839.5488	2923.3996	2926.7074	2982.0463	3016.7747	3059.1091	3096.1972	3101.681	3182.5993	3196.6299
O=CC(CN1CC1)C=O	O=CC(CN1CC1)C=O	
InChI=1S/C6H9NO2/c8-4-6(5-9)3-7-1-2-7/h4-6H,1-3H2	InChI=1S/C6H9NO2/c8-4-6(5-9)3-7-1-2-7/h4-6H,1-3H2
