12
gdb 123304	7.01592	0.91132	0.80655	2.9855	82.42	-0.256	-0.0576	0.1984	1305.6024	0.075886	-398.275037	-398.267391	-398.266447	-398.307263	28.412	
C	 0.1131971728	-1.1905326066	-0.0051401077	-0.357222
C	 0.0146078668	 0.0083641269	 0.0026911288	 0.214362
C	-0.1086294926	 1.4102011153	 0.0119538905	 0.311974
C	-1.1867048218	 2.2445175811	 0.0310551059	-0.438976
C	-0.6101187904	 3.5466945205	 0.0303153358	 0.230731
N	 0.7130220034	 3.4868055532	 0.0120803436	-0.182107
O	 1.0302532091	 2.1490609968	 0.000543716	-0.201326
C	-1.2884530025	 4.791469318	 0.046233722	 0.222001
C	-1.8971622873	 5.8278879669	 0.0600804848	-0.353036
H	 0.2025221688	-2.2492916168	-0.012087134	 0.207185
H	-2.2295755442	 1.980428966	 0.0437312292	 0.144709
H	-2.4228200621	 6.7509466689	 0.0721884951	 0.201704
105.1367	115.9716	195.1862	210.5955	410.2223	470.9047	493.4448	507.2874	571.5305	613.5362	629.5053	675.5859	678.1396	692.1758	692.7753	723.5777	847.144	978.3444	1016.4484	1035.3136	1144.6819	1240.9509	1409.0788	1462.5465	1601.5591	2242.8504	2249.1614	3296.1858	3499.0754	3501.3729
C#CC1=CC(=NO1)C#C	C#Cc1cc(no1)C#C	
InChI=1S/C7H3NO/c1-3-6-5-7(4-2)9-8-6/h1-2,5H	InChI=1S/C7H3NO/c1-3-6-5-7(4-2)9-8-6/h1-2,5H
