21
gdb 13618	2.95086	1.45183	1.2395	2.8143	75.43	-0.2354	0.0811	0.3165	1100.9781	0.187476	-366.23373	-366.224428	-366.223484	-366.267522	34.492	
C	 2.2391980198	 1.4880600496	 0.2660739296	-0.379733
C	 1.4275140437	 0.2035524319	 0.445145806	 0.028886
C	 0.0255247486	 0.4925909656	 1.0068621445	-0.050876
O	-0.7346703377	 1.2844135057	 0.1172080406	-0.424014
N	 1.2209890458	-0.4267668856	-0.8646950424	-0.095856
C	 2.3293455242	-1.1068624547	-1.5217607099	-0.255589
C	 1.1616173923	-1.8857076774	-1.0172357518	 0.027423
C	 1.3106454093	-2.8611800463	 0.1305026696	-0.417083
H	 3.206411093	 1.2830678933	-0.2020765332	 0.109544
H	 1.6903289597	 2.1964749055	-0.3586518413	 0.13348
H	 2.4242071607	 1.9571962635	 1.2373106439	 0.112457
H	 1.9559357559	-0.4557626045	 1.1520076187	 0.056164
H	-0.480875422	-0.4635689634	 1.2213180012	 0.078852
H	 0.1040824789	 1.0423559325	 1.9513430496	 0.099518
H	-0.5580162713	 0.9089274859	-0.7570564142	 0.284287
H	 2.4618560832	-0.9026271791	-2.5814099596	 0.114551
H	 3.2597675149	-1.2137358261	-0.9640732502	 0.10793
H	 0.4131642892	-2.1904805527	-1.7477385818	 0.09208
H	 2.1401513033	-2.6068229478	 0.7944989256	 0.125066
H	 0.3962960404	-2.9162196631	 0.7312056637	 0.127597
H	 1.5044869981	-3.8629588629	-0.2672477387	 0.125318
64.9334	123.3787	158.2042	209.2844	215.4438	224.1593	288.9664	337.8905	384.6774	403.5282	513.435	544.2199	627.4573	739.5132	791.6471	861.3547	906.4529	933.8259	941.3933	1000.2881	1034.9667	1044.0813	1081.0122	1118.7324	1130.3054	1141.626	1150.6171	1170.1831	1195.2508	1242.1492	1325.8764	1330.5259	1359.3538	1383.0309	1402.8496	1411.0352	1421.0281	1442.2871	1488.1148	1494.3276	1497.3154	1498.6019	1509.8785	1511.8383	2958.1192	2976.6945	3037.3322	3044.0667	3064.6923	3083.9716	3095.9815	3103.2086	3110.2483	3125.1909	3132.5882	3169.7443	3735.7919
CC(CO)N1CC1C	C[C@@H](CO)N1C[C@H]1C	
InChI=1S/C6H13NO/c1-5-3-7(5)6(2)4-8/h5-6,8H,3-4H2,1-2H3	InChI=1S/C6H13NO/c1-5-3-7(5)6(2)4-8/h5-6,8H,3-4H2,1-2H3/t5-,6+,7?/m1/s1
