18
gdb 85751	3.07954	1.30756	1.0908	4.9005	75.93	-0.2785	0.0177	0.2961	1144.5026	0.148358	-401.957644	-401.949554	-401.94861	-401.990343	30.858	
C	 0.250152761	 1.5329699372	-0.2068249292	-0.402021
C	 0.1323763085	 0.0322545262	-0.0008963772	 0.123061
O	 0.7688280366	-0.6244010456	-1.1111977669	-0.274747
C	 1.1500289024	-1.9317834658	-0.7040927797	-0.03644
C	 2.2806898338	-2.3714237823	-1.5360415461	 0.28309
N	 3.1682392526	-2.7536538841	-2.1683032423	-0.320657
C	 1.4678745771	-1.8305491426	 0.7854630202	-0.061318
C	 2.3153229684	-0.6520687016	 1.1840030707	-0.294375
C	 0.8127026054	-0.5475701807	 1.2312145248	-0.06144
H	 1.2977134664	 1.8451561643	-0.1975594117	 0.129582
H	-0.1905526185	 1.821108033	-1.1648578102	 0.133258
H	-0.2802402374	 2.0636205146	 0.5896722969	 0.119615
H	-0.9327502005	-0.2521756505	 0.0246349003	 0.076525
H	 0.3260251024	-2.6483778041	-0.8542866864	 0.117841
H	 1.4570492043	-2.737751447	 1.3758959619	 0.10821
H	 2.8405287759	-0.7220831709	 2.1291758442	 0.122178
H	 2.8523054821	-0.1211107691	 0.4046438061	 0.138956
H	 0.3023931496	-0.4760892611	 2.1843148646	 0.098681
90.4887	137.4017	189.5727	214.3793	279.4945	338.3957	373.8369	484.0326	537.5588	556.3226	628.0727	720.5276	777.8316	837.044	844.212	908.6413	930.2186	969.873	1007.7459	1036.0794	1039.7721	1085.6892	1088.028	1102.1545	1115.5201	1127.5488	1166.919	1196.1555	1302.9445	1326.4041	1342.4414	1355.7755	1383.0796	1403.0084	1414.0457	1481.7386	1486.3299	1495.5394	2366.6162	2963.5649	2973.4005	3046.952	3120.357	3128.1947	3138.4983	3183.6492	3197.8952	3227.6994
CC1OC(C#N)C2CC12	C[C@H]1O[C@@H](C#N)[C@H]2C[C@@H]12	
InChI=1S/C7H9NO/c1-4-5-2-6(5)7(3-8)9-4/h4-7H,2H2,1H3	InChI=1S/C7H9NO/c1-4-5-2-6(5)7(3-8)9-4/h4-7H,2H2,1H3/t4-,5+,6+,7+/m1/s1
