18
gdb 62585	3.00799	1.62324	1.37644	2.4948	75.13	-0.2331	-0.0045	0.2287	990.9052	0.146464	-401.906872	-401.898954	-401.89801	-401.938762	31.322	
C	 0.0433704608	 1.5295970621	-0.0978548767	-0.452526
C	 0.018161217	 0.0085149093	-0.1029903326	 0.326663
C	-1.3652653569	-0.5317982306	 0.2325812962	-0.43093
C	 0.711251485	-0.7430222031	-1.2695350103	-0.241035
C	 1.2881877724	-1.6925345975	-0.1504807141	-0.049888
C	 2.3406270403	-0.6482195767	 0.1388703582	-0.183982
N	 1.0179459839	-0.6564086061	 0.8491380368	-0.152412
C	 2.1307851787	-0.139034116	-1.2587565783	 0.433057
O	 2.8500013231	 0.3253672601	-2.0968725115	-0.340841
H	 1.0448892012	 1.926939693	-0.2834977933	 0.135572
H	-0.622984844	 1.9246619263	-0.8719324113	 0.125749
H	-0.2997540922	 1.9089576495	 0.8698124827	 0.128698
H	-2.1032116736	-0.1667475406	-0.4887143325	 0.119119
H	-1.3831377205	-1.6252431957	 0.2171465992	 0.1201
H	-1.6670001977	-0.2011721534	 1.2316463892	 0.128727
H	 0.2208621519	-0.9999082909	-2.2052611261	 0.090954
H	 1.318994365	-2.7609867841	 0.0082978092	 0.121272
H	 3.2365882358	-0.7136691057	 0.7404072452	 0.121705
140.8605	192.9509	204.8468	244.964	269.3034	353.9271	367.9806	458.5047	522.808	611.9274	630.6871	749.6185	785.1991	825.5952	834.1778	855.3018	876.0963	899.1237	950.8423	955.1471	976.1985	1010.5926	1039.3388	1080.6747	1115.0889	1135.5321	1151.4035	1208.6499	1214.1804	1271.2451	1272.9122	1291.7894	1406.1054	1420.5377	1477.0752	1481.7852	1498.3894	1504.8534	1880.8846	3035.6987	3040.5102	3105.2013	3111.2158	3113.7051	3117.5219	3154.9858	3216.8308	3227.6455
CC1(C)C2C3C(N13)C2=O	CC1(C)[C@@H]2[C@H]3[C@H](N13)C2=O	
InChI=1S/C7H9NO/c1-7(2)3-4-5(6(3)9)8(4)7/h3-5H,1-2H3	InChI=1S/C7H9NO/c1-7(2)3-4-5(6(3)9)8(4)7/h3-5H,1-2H3/t3-,4+,5+,8?/m1/s1
