19
gdb 50556	3.00359	1.31623	1.14224	3.0819	76.04	-0.2285	-0.023	0.2055	1140.1568	0.158446	-423.024549	-423.016152	-423.015207	-423.058549	31.597	
O	 0.1878971948	 0.1048679933	 1.0362615891	-0.234713
C	 0.0890599667	 1.1647049151	 0.4799819157	 0.151735
C	 1.2513565044	 1.960504244	-0.1041738404	 0.016757
C	 1.5953710726	 3.1508013326	 0.8235124501	-0.260394
C	 2.6316094058	 2.5041851632	 1.7573003878	-0.305872
C	 3.3366988308	 1.5382743598	 0.822490655	 0.476108
C	 4.7798452404	 1.6673112859	 0.4219818427	-0.329052
C	 4.301068558	 0.4873024761	 1.2571307657	-0.327889
O	 2.4242281941	 1.1851907123	-0.2086433976	-0.287422
H	-0.8965756141	 1.6795657586	 0.3688654898	 0.067574
H	 0.9504549296	 2.2994564576	-1.1053293528	 0.095476
H	 2.0445564443	 3.9554724488	 0.2350870294	 0.119226
H	 0.7248469288	 3.5562708613	 1.3458015033	 0.111187
H	 3.3122012176	 3.229685539	 2.2073266286	 0.110201
H	 2.1301556351	 1.9581265071	 2.5637435971	 0.124198
H	 5.0181423353	 1.4716324332	-0.617545579	 0.121442
H	 5.3905618262	 2.4282372714	 0.8973386456	 0.108282
H	 4.5800567766	 0.4413637298	 2.3048388437	 0.113132
H	 4.227329973	-0.4745851391	 0.7629793962	 0.130025
32.2373	81.1472	172.7592	230.7838	280.3528	337.3084	348.7892	444.884	513.9607	612.3028	741.3483	760.3655	768.518	806.5381	865.8231	900.6489	913.3789	919.1158	934.7747	960.868	981.968	1023.3778	1049.1715	1072.02	1099.4084	1129.7904	1167.4565	1188.4481	1207.6053	1236.0076	1283.7089	1310.5441	1335.7187	1370.8268	1383.7172	1414.7672	1451.4774	1484.547	1496.021	1503.2698	1845.6367	2835.6933	3014.4452	3049.6523	3062.5897	3105.3467	3116.0454	3127.663	3132.9611	3214.5911	3229.2439
O=CC1CCC2(CC2)O1	O=C[C@H]1CCC2(CC2)O1	
InChI=1S/C7H10O2/c8-5-6-1-2-7(9-6)3-4-7/h5-6H,1-4H2	InChI=1S/C7H10O2/c8-5-6-1-2-7(9-6)3-4-7/h5-6H,1-4H2/t6-/m1/s1
