19
gdb 96031	2.90746	1.16251	0.90667	1.6207	77.34	-0.2496	0.0573	0.307	1301.3504	0.157919	-422.994168	-422.984946	-422.984002	-423.028675	33.763	
C	-0.4239555541	 1.5021762266	-0.1189747266	-0.419907
C	 0.1568190008	 0.1021995859	-0.0685427031	 0.092316
O	 1.3555724463	 0.0491398234	-0.8409415921	-0.249337
C	 1.965988863	-1.1525136726	-0.4569021621	 0.021966
O	 1.6763654758	-1.3566777987	 0.9172264317	-0.267715
C	 0.6358661132	-0.4555244662	 1.2926286089	 0.11075
C	 1.1867477777	 0.6051314726	 2.2659574811	-0.384874
C	 1.7180992078	 0.0200827042	 3.489563275	 0.300316
C	 2.1363165849	-0.4645218844	 4.5063162103	-0.422577
H	 0.2963682473	 2.2444782224	 0.2326812148	 0.134286
H	-0.6962448587	 1.7536242656	-1.1472036418	 0.131687
H	-1.3264161959	 1.5654050712	 0.4967107445	 0.124495
H	-0.572541011	-0.6132897111	-0.4846298566	 0.074876
H	 1.5714443183	-2.0025660968	-1.0415240215	 0.087009
H	 3.0473276829	-1.0651895333	-0.6067449375	 0.116619
H	-0.1566396037	-1.0253188774	 1.790443911	 0.091644
H	 1.9674002337	 1.1789385584	 1.7526908139	 0.138526
H	 0.3850105317	 1.3098835098	 2.5205557186	 0.127153
H	 2.51587842	-0.8935432393	 5.4001109417	 0.192767
55.0565	90.6211	127.7641	192.9391	224.8577	249.8499	340.3973	344.8379	371.8617	513.309	518.4911	616.4628	634.704	689.556	745.0523	828.9697	873.006	925.0986	957.6965	995.2306	1020.5865	1044.4181	1093.4218	1129.3946	1146.0696	1151.2472	1184.2959	1226.0907	1240.2828	1281.17	1338.8777	1353.1205	1386.7873	1397.3677	1421.6693	1434.5955	1465.3782	1485.1389	1508.974	1548.3912	2242.5634	2943.4865	2958.5168	3025.2082	3045.1584	3050.6871	3067.236	3070.3022	3120.4009	3133.8113	3508.0572
CC1OCOC1CC#C	C[C@H]1OCO[C@H]1CC#C	
InChI=1S/C7H10O2/c1-3-4-7-6(2)8-5-9-7/h1,6-7H,4-5H2,2H3	InChI=1S/C7H10O2/c1-3-4-7-6(2)8-5-9-7/h1,6-7H,4-5H2,2H3/t6-,7+/m1/s1
