16
gdb 49577	2.05951	1.64823	1.09893	4.7868	72.73	-0.2561	-0.0418	0.2143	1101.0756	0.124111	-400.734578	-400.726496	-400.725551	-400.768078	29.437	
O	 0.1080146518	-0.1677461691	 0.0491089285	-0.244349
C	 0.0180991139	 1.030317967	-0.03532382	 0.155156
C	 1.2139111006	 1.95476374	 0.0038976968	-0.107426
C	 1.4342953911	 2.8816655224	-1.2073110778	-0.063779
C	 0.3586969058	 3.9292321398	-1.3192789637	-0.293123
C	 1.4513003411	 4.119888175	-0.3123804583	-0.047765
C	 1.1922752559	 3.2442969232	 0.9293027344	-0.197037
C	-0.014182031	 3.5277484033	 1.6980896778	 0.286873
N	-0.9843150319	 3.7502172092	 2.2866628196	-0.328804
H	-0.9677679417	 1.5228698396	-0.1725138827	 0.096264
H	 2.0949954887	 1.3517600287	 0.2274518581	 0.11147
H	 2.0815579976	 2.6336735679	-2.0383023358	 0.111836
H	 0.43775143	 4.5593443497	-2.1986753856	 0.13165
H	-0.6627577753	 3.7460485252	-1.0008280794	 0.137846
H	 2.1184617915	 4.971348085	-0.3192609664	 0.112108
H	 2.0458061318	 3.217538573	 1.6092336145	 0.139079
51.2876	110.2024	130.8361	202.4923	285.3275	365.5564	425.8322	452.631	531.4235	597.7595	719.7491	788.7135	793.0153	833.9359	916.8167	953.4901	987.3515	1013.5792	1036.6684	1054.529	1062.8299	1076.8481	1094.3386	1115.3608	1164.213	1201.7294	1256.7485	1278.3497	1299.458	1328.9336	1364.4904	1438.4354	1498.212	1825.0812	2351.3192	2911.2364	3094.5693	3111.0925	3132.5319	3197.2393	3205.5575	3218.52
O=CC1C2CC2C1C#N	O=C[C@H]1[C@H]2C[C@H]2[C@H]1C#N	
InChI=1S/C7H7NO/c8-2-6-4-1-5(4)7(6)3-9/h3-7H,1H2	InChI=1S/C7H7NO/c8-2-6-4-1-5(4)7(6)3-9/h3-7H,1H2/t4-,5+,6-,7+/m1/s1
