19
gdb 113417	4.78495	0.83579	0.79448	4.2554	77.01	-0.2689	0.0117	0.2806	1486.2559	0.158021	-423.044093	-423.035258	-423.034314	-423.078006	32.94	
C	-0.0365719928	 1.5771340191	-0.5824096138	-0.370582
C	 0.0293257811	 0.2147828756	 0.1169738289	-0.204302
C	-1.3299266415	-0.4407279698	 0.2539655948	-0.074025
C	-1.9376878651	-1.2404823436	-0.9000914305	-0.360716
C	-1.4761600633	-1.9177100444	 0.3415153398	 0.433988
C	-0.4716367087	-3.0346063526	 0.5809934687	-0.499141
C	-1.5618952666	-3.5665463707	 1.5174842955	 0.437326
O	-1.7345524876	-4.4915859971	 2.2418818616	-0.314277
O	-2.4254908837	-2.5277606743	 1.2590546137	-0.261171
H	 0.9584394382	 2.0231328497	-0.6724033784	 0.115663
H	-0.4576842264	 1.4827708007	-1.588596317	 0.121125
H	-0.6673471759	 2.2765773965	-0.0235070461	 0.120007
H	 0.6984115226	-0.4522030774	-0.442067525	 0.096906
H	 0.4773657928	 0.332736656	 1.1120741855	 0.105973
H	-2.0535302061	 0.1170649029	 0.8444529916	 0.106224
H	-3.0072545244	-1.166760303	-1.0625165694	 0.133641
H	-1.3468907866	-1.373498212	-1.8018466429	 0.120392
H	-0.2527728839	-3.6868573831	-0.2664004295	 0.146276
H	 0.4556959478	-2.7587130724	 1.0868169526	 0.146693
71.066	98.288	136.5954	187.4901	254.4348	296.1772	317.899	408.7565	473.0977	519.9167	525.548	593.954	772.0893	793.9864	813.9185	867.5877	903.0858	919.6389	953.5691	979.236	1019.7589	1042.5935	1053.1616	1078.8458	1110.4357	1125.5676	1155.4001	1187.2938	1203.864	1242.6334	1298.8376	1331.5913	1369.7766	1412.4267	1425.9124	1456.3143	1485.7838	1498.622	1502.022	1507.5553	1945.3092	3017.3307	3035.5918	3048.8823	3084.5306	3104.0616	3109.3383	3126.1326	3138.6739	3140.3622	3218.2966
CCC1CC11CC(=O)O1	CC[C@H]1C[C@]21CC(=O)O2	
InChI=1S/C7H10O2/c1-2-5-3-7(5)4-6(8)9-7/h5H,2-4H2,1H3	InChI=1S/C7H10O2/c1-2-5-3-7(5)4-6(8)9-7/h5H,2-4H2,1H3/t5-,7+/m0/s1
