19
gdb 46326	2.96064	1.29522	1.18583	1.2771	75.78	-0.2515	-0.0277	0.2238	1133.6569	0.159599	-423.043957	-423.03578	-423.034836	-423.077752	30.802	
O	-0.3400977365	 0.0760827511	-0.273790662	-0.286903
C	-0.1811272727	 1.2381101245	-0.0515290342	 0.285113
C	-1.0476223829	 2.4141732527	 0.406914299	-0.197889
O	 0.1069563681	 3.2713129599	 0.3289743587	-0.327764
C	 1.0056558782	 2.2066604437	-0.1170368771	 0.330717
C	 2.1934451493	 1.9792019169	 0.852322309	-0.277564
C	 3.467430409	 2.0022543165	-0.0167255121	-0.201846
C	 3.0797512438	 2.8858153744	-1.2132244774	-0.211074
C	 1.6345664568	 2.4497733634	-1.5036915883	-0.263438
H	-1.8494305111	 2.7002732443	-0.2860929989	 0.130093
H	-1.457983381	 2.333183734	 1.4217369512	 0.130436
H	 2.1793409816	 2.8157599663	 1.5578926701	 0.125999
H	 2.0866325434	 1.0573734594	 1.430505372	 0.113836
H	 4.3393241932	 2.37047811	 0.5304822839	 0.101724
H	 3.7044458401	 0.9904991099	-0.365759263	 0.107275
H	 3.1007061455	 3.9434166796	-0.9244896985	 0.109601
H	 3.7428605615	 2.7649755789	-2.0740859587	 0.099766
H	 1.6351794659	 1.4994618883	-2.0521669104	 0.119505
H	 1.0473476178	 3.1713292962	-2.0758797135	 0.112412
30.8615	103.4303	148.7438	245.2264	263.1857	383.7939	406.9915	535.7416	544.0223	575.3808	693.9646	713.1508	831.543	835.6421	868.8606	912.0192	913.2761	960.4478	981.5805	1007.1911	1021.1876	1046.7838	1055.4837	1123.9161	1127.5246	1141.8247	1195.8177	1231.1491	1252.4192	1264.8789	1294.2569	1312.6581	1334.9435	1340.7795	1354.6751	1470.2854	1474.1572	1484.5721	1492.9465	1507.9653	1916.2092	3013.8857	3034.5625	3039.0038	3043.5169	3056.8571	3059.377	3091.5396	3096.7933	3108.1829	3112.5296
O=C1COC11CCCC1	O=C1COC21CCCC2	
InChI=1S/C7H10O2/c8-6-5-9-7(6)3-1-2-4-7/h1-5H2	InChI=1S/C7H10O2/c8-6-5-9-7(6)3-1-2-4-7/h1-5H2
