22
gdb 100878	2.34612	1.0033	0.74283	3.6006	82.86	-0.2806	0.0287	0.3093	1566.3884	0.192403	-404.369003	-404.358016	-404.357072	-404.40556	39.197	
C	-0.1132413197	 1.6115510934	 0.0019791463	-0.397892
C	 0.0072059672	 0.0832429996	 0.0049174375	-0.184783
C	 0.7542556247	-0.4930941676	 1.2246586555	 0.023322
C	 0.0793970673	-0.1071523937	 2.5490866685	-0.413604
C	 0.886487185	-2.0400513735	 1.1122517048	-0.153752
C	 1.6116284796	-2.5388708748	-0.167419914	-0.076489
O	 1.7609020404	-3.9391386108	-0.1937153674	-0.418464
C	 1.6114069119	-2.5924522944	 2.2619713446	 0.263632
N	 2.2298775532	-3.0513868508	 3.1251647531	-0.342199
H	 0.8703148186	 2.0857806761	 0.0937726047	 0.118989
H	-0.5608385314	 1.9572110935	-0.9345986157	 0.119189
H	-0.7392245828	 1.9793033839	 0.8192898559	 0.125338
H	-0.995134364	-0.3648886976	-0.0434782652	 0.099873
H	 0.5214696744	-0.2175932015	-0.9137158964	 0.106801
H	 1.7733107191	-0.081157611	 1.2258580542	 0.089575
H	 0.069044829	 0.9765404049	 2.6852575572	 0.124504
H	-0.9590270169	-0.4587407128	 2.5752867662	 0.117048
H	 0.6033489136	-0.5417756642	 3.4044855962	 0.143571
H	-0.11686013	-2.4862583887	 1.1191725488	 0.129344
H	 1.0087974529	-2.2870314963	-1.0416888889	 0.123536
H	 2.5765619582	-2.0161803454	-0.2576606309	 0.104133
H	 2.3322271695	-4.1962097983	 0.5397098753	 0.298327
50.0175	76.184	113.6062	140.1224	165.4867	206.3158	214.4767	263.0509	291.0438	340.1464	368.3994	402.0957	429.9144	458.5197	555.5034	614.3938	777.9945	817.0761	846.8314	934.2539	979.5608	984.8599	1024.6301	1043.5971	1053.7243	1088.111	1140.6093	1160.6465	1176.0762	1208.9365	1253.6423	1301.4355	1325.2029	1353.058	1367.2228	1383.7838	1387.8216	1412.233	1417.584	1430.4029	1483.4313	1496.2692	1499.2856	1504.888	1506.9658	1514.4932	2345.2328	2987.1728	3005.001	3017.4353	3033.4511	3037.8171	3038.5761	3067.0405	3102.9958	3107.4582	3113.2027	3117.6734	3127.3765	3791.0326
CCC(C)C(CO)C#N	CC[C@@H](C)[C@@H](CO)C#N	
InChI=1S/C7H13NO/c1-3-6(2)7(4-8)5-9/h6-7,9H,3,5H2,1-2H3	InChI=1S/C7H13NO/c1-3-6(2)7(4-8)5-9/h6-7,9H,3,5H2,1-2H3/t6-,7-/m1/s1
