17
gdb 74861	2.26625	1.86276	1.16581	3.9863	77.87	-0.239	-0.007	0.232	1056.3934	0.13667	-380.866153	-380.858181	-380.857236	-380.898635	30.208	
C	 0.0648194991	 1.4728724238	 0.0435430329	-0.499084
C	 0.0096350979	-0.0175479742	-0.0249340059	 0.31042
C	-0.0844683479	-0.817198998	-1.0884684688	-0.192224
C	-0.0371469682	-2.2510842856	-0.6966237179	-0.058928
C	 1.2183344727	-2.6975222209	-0.0292193828	-0.23959
N	 0.0578911219	-2.3036013005	 0.7851500696	-0.105103
C	 0.065902718	-0.8891261646	 1.2375124611	-0.215397
C	 1.2267183319	-0.5865029948	 2.0850662781	 0.297665
N	 2.1433606257	-0.3211512296	 2.7368957786	-0.334263
H	 0.999449482	 1.8113058661	 0.5060116752	 0.154848
H	-0.0076504039	 1.9180163159	-0.9514787663	 0.133489
H	-0.7518914162	 1.8711210343	 0.6589398364	 0.134294
H	-0.1737863652	-0.4850349221	-2.1157363927	 0.111095
H	-0.698090831	-2.9703028196	-1.1723182482	 0.105886
H	 1.457328979	-3.7546411648	 0.0410904117	 0.127801
H	 2.074253104	-2.0295898529	-0.078870595	 0.133356
H	-0.8303248498	-0.7248704425	 1.853620834	 0.135736
105.84	135.9064	179.4332	195.7019	311.5153	363.2809	408.5636	477.1187	509.6811	578.1014	635.5448	715.8206	781.2148	827.6139	845.2076	891.2329	932.8918	994.103	999.3049	1044.5926	1061.4521	1071.2088	1086.85	1115.2376	1156.2813	1206.9507	1252.0254	1272.6211	1303.0414	1324.8142	1363.6941	1417.908	1477.5816	1487.3053	1495.1817	1717.9686	2357.0934	2997.3934	3024.2643	3074.8065	3111.0998	3122.7538	3148.5044	3203.2556	3209.0469
CC1=CC2CN2C1C#N	CC1=C[C@H]2CN2[C@H]1C#N	
InChI=1S/C7H8N2/c1-5-2-6-4-9(6)7(5)3-8/h2,6-7H,4H2,1H3	InChI=1S/C7H8N2/c1-5-2-6-4-9(6)7(5)3-8/h2,6-7H,4H2,1H3/t6-,7-,9?/m0/s1
