14
gdb 48520	2.9855	1.66517	1.23585	5.558	67.39	-0.2519	-0.0437	0.2082	966.5221	0.10032	-436.634578	-436.627423	-436.626479	-436.666555	26.518	
O	-0.1524243315	 0.0331313493	-0.0362933825	-0.241862
C	 0.0435563672	 1.2111251469	-0.1945949982	 0.043717
C	 1.3509823962	 1.8688506291	-0.0278172418	 0.096869
C	 1.4622928972	 3.3451139457	 0.5199685182	-0.125873
C	 2.9101320416	 3.4678558872	 0.9884407988	-0.198164
N	 3.3244397067	 2.6996215337	-0.2652024117	-0.216779
C	 1.9434421935	 3.0432029157	-0.8337379129	-0.060438
C	 2.7560161967	 1.3573518341	 0.0822458852	 0.37652
O	 3.3111015751	 0.3263474642	 0.2595595054	-0.285356
H	-0.7771732927	 1.9035666204	-0.4953908274	 0.076388
H	 0.5656744313	 3.8666619639	 0.8349511595	 0.123082
H	 3.2795937951	 4.4938130021	 0.9324723542	 0.136158
H	 3.2189103822	 2.9991189075	 1.9274087649	 0.135829
H	 1.7282194314	 3.3470225001	-1.8467734117	 0.139909
94.8411	139.5294	170.9141	248.5796	400.2763	429.1437	483.4061	619.8436	721.6964	730.362	798.3334	821.6956	871.6296	883.3013	922.4905	938.6406	968.621	992.3958	1018.3741	1043.6422	1087.1498	1129.2646	1167.6267	1207.2636	1277.4317	1317.5118	1376.6394	1439.0324	1509.0887	1812.5482	1942.9825	2854.1179	3060.4528	3126.0045	3185.5276	3245.2115
O=CC12C3CN(C13)C2=O	O=C[C@]12[C@H]3CN([C@@H]13)C2=O	
InChI=1S/C6H5NO2/c8-2-6-3-1-7(4(3)6)5(6)9/h2-4H,1H2	InChI=1S/C6H5NO2/c8-2-6-3-1-7(4(3)6)5(6)9/h2-4H,1H2/t3-,4+,6-/m0/s1
