20
gdb 39819	2.89229	1.49387	1.47761	2.3675	77.44	-0.2433	0.0697	0.313	1019.4901	0.173829	-403.107276	-403.099905	-403.098961	-403.13883	30.031	
C	-0.047545521	 1.5398247541	-0.0085160431	-0.331013
N	 1.2083119387	 0.7471438698	 0.0541196233	-0.389933
C	-0.074618087	 0.0692280246	 0.0073082676	 0.408062
C	-0.5054513302	-0.9859227932	 1.0191061968	 0.010796
C	-2.0063702614	-0.8632782781	 1.3168937972	-0.223661
C	-2.8025444194	-1.1999893593	 0.0286037287	-0.183219
C	-2.0420655907	-0.8330511117	-1.2731683376	-0.223028
C	-0.5328652074	-0.964120155	-1.0163471612	-0.007342
O	-0.3123728481	-2.0050219703	-0.0165018749	-0.302373
H	-0.2687831364	 2.1102942141	 0.8899802816	 0.121102
H	-0.2975568355	 2.0492323104	-0.9368414738	 0.112228
H	 1.6553716136	 0.728098753	-0.8604247744	 0.230368
H	 0.1292568781	-1.152924647	 1.8923221057	 0.08897
H	-2.3009085901	-1.546646572	 2.1196863469	 0.102209
H	-2.216138976	 0.1530420886	 1.6713838849	 0.100527
H	-2.9698936859	-2.2791678246	 0.0174627327	 0.119145
H	-3.7892209855	-0.7285356476	 0.0469206891	 0.093249
H	-2.3573026289	-1.4996142392	-2.0826258857	 0.100697
H	-2.2619537529	 0.1903167332	-1.5999981242	 0.098255
H	 0.0681939158	-1.1171339101	-1.9188986899	 0.07496
126.3362	202.9563	210.725	272.7026	365.5317	411.9881	446.3657	570.4928	589.3939	668.7885	779.3007	830.4113	855.2912	873.4349	879.4622	895.2536	921.851	938.5341	958.3584	971.6335	1001.8958	1044.3494	1062.733	1071.6891	1109.7145	1118.699	1137.5734	1196.8103	1225.7768	1246.2786	1259.8099	1292.2624	1307.6163	1310.6251	1314.0735	1343.6717	1368.354	1375.4757	1453.0158	1480.3125	1487.4976	1500.5197	1525.8932	3032.3631	3034.6655	3055.3366	3061.9123	3073.2789	3075.1761	3093.0686	3099.1405	3109.1189	3181.4381	3483.0679
C1NC11C2CCCC1O2	C1N[C@]21[C@H]1CCC[C@@H]2O1	
InChI=1S/C7H11NO/c1-2-5-7(4-8-7)6(3-1)9-5/h5-6,8H,1-4H2	InChI=1S/C7H11NO/c1-2-5-7(4-8-7)6(3-1)9-5/h5-6,8H,1-4H2/t5-,6+,7-
