17
gdb 29637	2.39791	1.8972	1.07342	6.2065	78.78	-0.2271	-0.0494	0.1776	1086.0579	0.13691	-418.081226	-418.072853	-418.071909	-418.114991	30.603	
C	-0.0331442303	 1.4573103347	-0.0275866637	-0.360887
N	-0.0410178319	-0.0060933246	-0.010780889	-0.190893
C	-1.207947756	-0.7063185678	 0.0147107269	 0.394402
C	-2.5061324279	 0.0463300405	 0.025540424	-0.493549
C	-1.1573316808	-2.0760322098	 0.0295645036	-0.231696
C	 0.1172939058	-2.6797154759	 0.0172289501	 0.030601
N	 1.2530067875	-2.0360138349	-0.0070359202	-0.330956
C	 1.2491212675	-0.6575354647	-0.0223997092	 0.444413
O	 2.2547109788	 0.0216051505	-0.0447033757	-0.389431
H	 1.0109223715	 1.7612220085	-0.0487933304	 0.190793
H	-0.5466504696	 1.8405265597	-0.9139468835	 0.135795
H	-0.5160976739	 1.8608992519	 0.8669127393	 0.135875
H	-2.6088855233	 0.6798700017	-0.8618605519	 0.150968
H	-3.3416777349	-0.6541570365	 0.0473254197	 0.14312
H	-2.5814216931	 0.702051309	 0.8994573074	 0.150919
H	-2.0645464884	-2.6634289272	 0.0498854175	 0.102631
H	 0.1854769692	-3.7684512351	 0.028450355	 0.117894
35.3852	103.4658	169.7274	213.0754	257.6553	340.3077	400.709	471.26	499.6313	548.1979	575.3164	619.4955	716.4806	792.0419	809.5973	821.1235	939.7939	1009.0128	1023.3284	1041.5923	1060.2166	1127.8157	1147.7167	1184.2797	1208.3489	1293.4048	1402.933	1412.2861	1420.7838	1468.1425	1474.7371	1486.8043	1504.9208	1513.8704	1584.0831	1663.6062	1788.1104	3040.9126	3046.8456	3096.5734	3108.3961	3119.5675	3144.5447	3182.6055	3227.9187
CN1C(C)=CC=NC1=O	Cn1c(C)ccnc1=O	
InChI=1S/C6H8N2O/c1-5-3-4-7-6(9)8(5)2/h3-4H,1-2H3	InChI=1S/C6H8N2O/c1-5-3-4-7-6(9)8(5)2/h3-4H,1-2H3
