21
gdb 115908	3.2602	1.22908	1.0706	2.6183	77.64	-0.2329	0.0722	0.3051	1191.4275	0.184658	-424.204101	-424.195998	-424.195054	-424.236633	32.158	
O	-0.3305824523	 1.5893550877	 0.2164455998	-0.423915
C	-0.0976906803	 0.1982129578	 0.3896386372	-0.104502
C	-1.3204977127	-0.550974989	-0.1257546976	 0.005861
C	-1.5868483898	-0.2026407917	-1.6115590883	-0.06983
O	-2.2891705559	-1.2230627407	-2.3203225185	-0.280595
C	-1.9907878234	-2.5387846381	-1.8791284959	 0.141269
C	-2.5041717811	-2.7398662798	-0.4290481901	-0.241445
C	-1.1654207187	-2.0786898324	 0.0050496306	-0.035455
C	-0.5511668487	-2.661163033	-1.3054635373	-0.261095
H	 0.4633109377	 2.0652260765	 0.4762846772	 0.288181
H	 0.7977541726	-0.1267767893	-0.1663009297	 0.08579
H	 0.0655250147	-0.0501759803	 1.450651572	 0.086386
H	-2.1782596085	-0.2369239544	 0.4827738302	 0.083785
H	-2.1808510618	 0.7079671893	-1.7061279288	 0.119519
H	-0.6240508591	-0.0094162199	-2.1082436907	 0.091101
H	-2.3210073224	-3.214924429	-2.6702520737	 0.071689
H	-3.4381775179	-2.2366391468	-0.1658477437	 0.095502
H	-2.5528073136	-3.79641826	-0.1517039351	 0.092786
H	-0.7264356333	-2.3653305603	 0.9650159351	 0.056591
H	-0.2711987401	-3.7104639606	-1.1854659249	 0.100219
H	 0.2604245449	-2.1286236659	-1.8069416779	 0.098159
100.8354	147.521	194.8097	268.562	284.711	355.4907	419.8539	443.2882	473.8499	510.6548	593.4374	795.9995	809.0475	838.377	884.0345	890.425	920.0651	951.0985	969.2138	1002.8958	1029.6427	1045.6541	1059.0176	1085.4531	1108.0433	1131.8613	1140.5529	1160.434	1195.8506	1236.34	1244.8436	1247.3866	1260.611	1278.2555	1285.1321	1328.3141	1340.0424	1355.7624	1380.5833	1423.9506	1456.4301	1468.6346	1495.2376	1513.8176	1525.3494	2957.7436	2985.854	2987.1609	3027.5292	3051.4709	3058.8602	3068.7478	3091.7362	3108.5359	3115.0439	3118.3899	3833.0142
OCC1COC2CC1C2	OC[C@H]1CO[C@@H]2C[C@H]1C2	
InChI=1S/C7H12O2/c8-3-6-4-9-7-1-5(6)2-7/h5-8H,1-4H2	InChI=1S/C7H12O2/c8-3-6-4-9-7-1-5(6)2-7/h5-8H,1-4H2/t5-,6-,7+/m0/s1
