19
gdb 38716	2.59875	2.10318	1.6318	1.5227	73.66	-0.2428	0.0793	0.3222	895.3647	0.162621	-422.990293	-422.983774	-422.98283	-423.020668	28.154	
C	-0.0456775303	 1.4666904394	 0.0059819206	-0.391308
C	 1.3577388627	 0.8406785728	 0.0132718691	-0.080091
C	 2.2276954576	 0.239683289	 1.1265907749	-0.264338
C	 1.5491317552	-1.1505720105	 1.314846497	 0.12773
C	 0.075890054	-0.7427627961	 1.3182980119	-0.270441
C	 0.1096853142	-0.0133393285	-0.0253667755	 0.411942
O	-0.0123003968	-0.9356690029	-1.0754752399	-0.305605
C	 1.2180572543	-1.666739406	-1.0721483973	 0.028449
O	 1.7016885255	-2.0567211428	 0.2034180533	-0.29421
H	-0.4963228687	 1.8958148395	 0.8968170578	 0.116008
H	-0.2699590179	 2.0058058188	-0.9090672307	 0.125658
H	 1.8604194704	 1.0031520478	-0.9336041108	 0.100452
H	 3.2688696202	 0.1578091165	 0.8039369342	 0.108374
H	 2.2180842541	 0.7836061949	 2.0788008587	 0.103084
H	 1.9125815287	-1.7115774068	 2.1798615064	 0.073462
H	-0.6093786526	-1.5907051185	 1.2991986885	 0.111951
H	-0.168180713	-0.0871918161	 2.1593278868	 0.094158
H	 1.0366137004	-2.5916123708	-1.6248572371	 0.117232
H	 1.9826376921	-1.0660737496	-1.5863766878	 0.087494
212.8481	316.8076	349.7202	387.3678	418.4892	443.6227	497.9092	607.8967	615.9114	745.657	760.16	804.2182	845.5683	863.6604	895.1412	907.0921	946.7115	963.3393	986.2675	1010.285	1030.1863	1063.4331	1072.1865	1092.0087	1123.268	1156.6195	1168.577	1207.9365	1241.5278	1244.1016	1285.9681	1300.3575	1310.6404	1333.4772	1371.7769	1391.3434	1445.5466	1471.7402	1477.4771	1491.7047	1528.1182	2988.2248	3035.632	3060.4352	3084.1078	3099.4939	3102.493	3116.1739	3134.9802	3168.4084	3205.9646
C1C2CC3CC12OCO3	C1[C@H]2C[C@H]3C[C@@]12OCO3	
InChI=1S/C7H10O2/c1-5-2-7(5)3-6(1)8-4-9-7/h5-6H,1-4H2	InChI=1S/C7H10O2/c1-5-2-7(5)3-6(1)8-4-9-7/h5-6H,1-4H2/t5-,6+,7+/m1/s1
