23
gdb 123021	5.12648	0.54779	0.52474	1.0402	84.24	-0.2427	0.0799	0.3226	2184.9428	0.203445	-425.400426	-425.389537	-425.388593	-425.437986	38.504	
C	 0.0490144399	 1.4388915369	 0.1357752912	-0.381783
C	-0.0847160083	-0.0830371529	 0.2258505373	-0.180941
C	-1.4809890234	-0.5685791218	-0.1396916101	-0.02478
O	-1.51803771	-1.9742497064	-0.032193542	-0.251242
C	-2.7828753527	-2.521071085	-0.3535907973	-0.070738
C	-2.7000264419	-4.0203226227	-0.2495498048	-0.03622
C	-2.7888684717	-4.6827170244	 1.111831325	-0.315542
C	-3.9129746111	-4.8258107987	 0.1190922601	 0.092528
O	-5.1104299101	-4.1269465305	 0.3168721859	-0.417997
H	 1.0592401419	 1.7621380335	 0.4030847941	 0.115425
H	-0.1567512839	 1.7988778521	-0.8784768145	 0.115351
H	-0.6502418899	 1.9422226952	 0.8127990266	 0.115123
H	 0.6372490933	-0.5690092103	-0.440506324	 0.10473
H	 0.1478288356	-0.4263670313	 1.2404713301	 0.104634
H	-2.2324369484	-0.1113596869	 0.5290361644	 0.078662
H	-1.7387830178	-0.2532776823	-1.1668869809	 0.0791
H	-3.55992411	-2.135716253	 0.322628744	 0.096163
H	-3.0730611927	-2.2268850252	-1.3770108759	 0.084638
H	-2.0248952993	-4.4774670003	-0.9668858528	 0.091755
H	-2.1587425492	-5.5388943057	 1.3258760302	 0.110702
H	-2.9657828635	-4.0236569156	 1.955606801	 0.116094
H	-4.0324148948	-5.7907934152	-0.3736794677	 0.086001
H	-5.5651058921	-4.5276530295	 1.0647661801	 0.288337
33.8554	53.8167	86.8697	109.7053	149.5627	185.8647	236.836	239.0054	296.1708	332.5537	391.5401	441.6601	496.1839	590.9759	764.8782	773.3434	837.2267	892.7185	899.2338	920.6831	929.0704	985.751	1021.2783	1048.4553	1058.9715	1074.1489	1133.8165	1149.5959	1151.7612	1179.3169	1182.4987	1200.324	1239.4741	1263.4651	1271.2088	1304.7602	1312.7136	1330.1593	1363.5485	1408.5051	1413.9182	1426.1108	1458.0505	1490.2478	1492.2103	1501.2792	1506.4787	1516.3297	1534.8901	2934.7305	2957.556	2958.7749	3012.9211	3031.1667	3038.1695	3070.4231	3095.9511	3098.954	3106.8966	3131.7939	3153.4294	3220.7214	3809.5947
CCCOCC1CC1O	CCCOC[C@H]1C[C@H]1O	
InChI=1S/C7H14O2/c1-2-3-9-5-6-4-7(6)8/h6-8H,2-5H2,1H3	InChI=1S/C7H14O2/c1-2-3-9-5-6-4-7(6)8/h6-8H,2-5H2,1H3/t6-,7-/m1/s1
