16
gdb 24666	4.4473	1.13962	0.9652	3.1951	78.56	-0.2514	-0.0267	0.2247	1187.404	0.12685	-400.781178	-400.774085	-400.773141	-400.813311	26.857	
C	 0.1709574116	 1.5195018036	 0.0143289362	-0.177231
O	 1.1838000643	 0.5355783009	-0.1780634064	-0.225019
C	-0.156429511	 0.0798940051	 0.0150185068	-0.023183
C	-0.4534651832	-0.6669073156	 1.2670286639	 0.245969
C	 0.4258942517	-0.6492476525	 2.3548458367	-0.059748
N	 0.1997001024	-1.2810195085	 3.507620648	-0.264219
C	-0.9372761765	-1.9743372559	 3.6161723053	 0.001861
C	-1.8759352624	-2.073721553	 2.5928378814	-0.113497
C	-1.6254042201	-1.4109845233	 1.3976319597	-0.170985
H	 0.2077327529	 2.0503223715	 0.9642958686	 0.12303
H	-0.065695763	 2.1266061475	-0.8584937159	 0.123034
H	-0.6253792198	-0.3226926637	-0.8840656389	 0.099816
H	 1.3641508823	-0.1082682846	 2.2698273285	 0.124604
H	-1.1021834878	-2.4794063153	 4.5649411693	 0.109831
H	-2.7773901113	-2.6605400154	 2.7299103311	 0.103779
H	-2.3309398501	-1.4692846306	 0.5734667857	 0.101957
63.8507	149.0575	192.8193	329.9279	401.7423	416.5141	551.5342	587.8387	638.4003	740.0198	777.2463	831.8528	866.8052	909.5249	963.9458	978.4521	1002.5525	1009.3255	1038.769	1066.0358	1095.0881	1140.1368	1152.4305	1169.5171	1226.0616	1229.0496	1280.4918	1298.405	1358.3527	1417.5544	1461.9689	1509.9273	1523.2177	1613.386	1635.8287	3083.2069	3099.042	3156.0143	3166.7921	3173.38	3176.3563	3198.2753
C1OC1C1=CN=CC=C1	C1O[C@H]1c1cnccc1	
InChI=1S/C7H7NO/c1-2-6(4-8-3-1)7-5-9-7/h1-4,7H,5H2	InChI=1S/C7H7NO/c1-2-6(4-8-3-1)7-5-9-7/h1-4,7H,5H2/t7-/m1/s1
