20
gdb 40785	3.74455	1.16663	0.99755	1.1473	78.95	-0.2444	0.0814	0.3257	1232.8514	0.173171	-403.110067	-403.102238	-403.101294	-403.142879	30.553	
C	 0.1713265805	 1.5587257605	 0.0932736525	-0.237639
N	 1.20517126	 0.5367635641	-0.1493933054	-0.322826
C	-0.1972355669	 0.1248679434	 0.0301940929	-0.021996
C	-0.4705761762	-0.6755420871	 1.2772727337	 0.135699
O	-1.8558928754	-0.5401414328	 1.6090469275	-0.276984
C	-2.2453235048	-1.6658746651	 2.3912392612	-0.092564
C	-1.3901085302	-2.8212527957	 1.9008874578	-0.056825
C	-1.2800190301	-2.9591660672	 0.4048200425	-0.293837
C	-0.2392198727	-2.1764247746	 1.1683720117	-0.059412
H	 0.240326285	 2.0546758107	 1.0576274001	 0.12041
H	-0.1347840645	 2.20268545	-0.7265735233	 0.111272
H	 1.4495493884	 0.5153072527	-1.1353321735	 0.23249
H	-0.7486092585	-0.2074251843	-0.8468485661	 0.08356
H	 0.1650737254	-0.277197519	 2.0855480438	 0.068996
H	-2.0605006496	-1.4871040709	 3.4631174848	 0.0908
H	-3.3222552429	-1.8042306388	 2.2461612429	 0.105538
H	-1.2542597162	-3.6846573368	 2.5411842776	 0.088122
H	-0.9830887935	-3.9251645267	 0.0123663967	 0.10982
H	-1.9910505945	-2.4179704516	-0.2120251386	 0.11868
H	 0.7753779369	-2.5474504409	 1.2408734512	 0.096695
63.8427	125.0168	162.7748	281.7254	304.5749	362.0937	436.5987	484.6981	652.6675	723.1042	780.9454	832.0858	857.5764	874.0139	889.8069	916.8268	926.7015	952.3564	976.7739	991.5875	1019.5003	1051.7783	1077.1213	1080.731	1091.1287	1114.7139	1116.9714	1124.9615	1148.9615	1194.2596	1230.4912	1244.2438	1250.9528	1284.4115	1313.7652	1330.3365	1337.7136	1359.6713	1400.7526	1463.8215	1480.7898	1513.7188	1516.7257	2965.1211	2972.6016	3063.4525	3109.5653	3128.4088	3133.1773	3180.8008	3193.0915	3194.6139	3217.9598	3511.0548
C1NC1C1OCC2CC12	C1N[C@H]1[C@H]1OC[C@H]2C[C@@H]12	
InChI=1S/C7H11NO/c1-4-3-9-7(5(1)4)6-2-8-6/h4-8H,1-3H2	InChI=1S/C7H11NO/c1-4-3-9-7(5(1)4)6-2-8-6/h4-8H,1-3H2/t4-,5-,6-,7+/m1/s1
