19
gdb 47591	2.38713	1.78197	1.1648	3.2876	75.64	-0.218	-0.0184	0.1996	1071.6646	0.162405	-419.195284	-419.187584	-419.186639	-419.227772	30.032	
O	 0.0538217577	-0.0585720459	 0.0186044363	-0.3174
C	-0.0034865643	 1.1492724732	 0.0492432667	 0.390455
C	-1.306038984	 1.9223070559	 0.1149468452	-0.277911
C	-1.2403104358	 3.1655580094	-0.7868952723	-0.181801
N	-0.1599767782	 4.024732025	-0.3164254632	-0.28753
C	 1.1745669929	 3.4712476156	-0.4885965526	-0.019073
C	 2.1029611723	 3.8016505367	 0.7096197262	-0.166003
N	 1.7078137757	 2.5128918769	 1.329286872	-0.314278
C	 1.2631761709	 1.9978770561	 0.0075415679	-0.053186
H	-2.1277712672	 1.2533026215	-0.1520437854	 0.112984
H	-1.4434164747	 2.2612184732	 1.1487432886	 0.142762
H	-1.1320656665	 2.8511741379	-1.8425262949	 0.084265
H	-2.1794755919	 3.723011745	-0.7165986244	 0.107338
H	-0.2157635781	 4.9443203689	-0.7372169703	 0.22101
H	 1.5967144578	 3.6371447668	-1.4893435822	 0.063405
H	 3.1598853873	 3.8559791459	 0.4129699964	 0.087866
H	 1.8380673509	 4.6866530956	 1.2959277032	 0.104653
H	 2.4544657694	 1.9788153031	 1.7598878536	 0.225099
H	 2.0322336357	 1.4307871692	-0.5330289108	 0.077346
63.7474	140.6685	215.0226	282.6643	354.4037	396.4198	453.4164	462.4991	548.9613	647.832	653.3881	746.9942	788.4849	832.6607	874.5196	924.9206	942.728	988.1358	1010.9196	1014.9989	1068.6072	1072.0966	1094.4104	1143.3523	1169.8466	1186.5114	1216.0109	1243.6583	1263.5986	1274.0341	1314.9657	1336.5354	1343.9714	1355.4323	1383.04	1412.6355	1443.8536	1477.1317	1504.5275	1510.8696	1814.0205	2917.7432	2989.3326	3003.473	3020.603	3045.1284	3072.219	3078.521	3113.5426	3531.8016	3542.7842
O=C1CCNC2CNC12	O=C1CCN[C@H]2CN[C@@H]12	
InChI=1S/C6H10N2O/c9-5-1-2-7-4-3-8-6(4)5/h4,6-8H,1-3H2	InChI=1S/C6H10N2O/c9-5-1-2-7-4-3-8-6(4)5/h4,6-8H,1-3H2/t4-,6+/m0/s1
