14
gdb 132599	3.19135	1.34058	0.94477	2.3333	69.47	-0.2037	-0.0154	0.1884	1120.5167	0.102116	-478.036786	-478.02939	-478.028446	-478.068364	29.18	
N	-0.0460871722	 1.4330481355	-0.1226796435	-0.595355
C	-0.052388926	 0.047949395	-0.0552182402	 0.236025
C	-1.2087350593	-0.7207841374	 0.0037973296	-0.30478
C	-1.0904677572	-2.1082204109	 0.0067502059	 0.254388
F	-2.1994882847	-2.8558940296	 0.0629502113	-0.083009
C	 0.1487632567	-2.7123000985	-0.0438915817	-0.14818
N	 1.2702117674	-1.9730972128	-0.0950362498	-0.351014
C	 1.1693252624	-0.6646079191	-0.100636971	 0.389206
O	 2.3074484651	 0.0813994306	-0.1455392936	-0.439576
H	 0.8332359898	 1.8548035895	 0.1372197598	 0.26635
H	-0.8440033442	 1.8955305744	 0.2862262972	 0.251355
H	-2.1907425161	-0.2624970102	 0.0429844164	 0.107885
H	 0.2478049462	-3.7919472844	-0.0400327024	 0.117523
H	 3.0396192421	-0.549159842	-0.156633718	 0.299182
150.451	227.2541	299.7894	339.1676	349.3601	405.	455.5663	478.9433	504.5759	511.1877	569.9506	603.727	634.1263	734.9476	777.9894	803.7074	887.5002	889.786	1012.5587	1102.3273	1151.1874	1204.7873	1286.1748	1325.1604	1330.8859	1400.26	1494.0148	1526.3276	1634.992	1647.0928	1663.5087	3193.0882	3195.3296	3571.448	3678.1503	3783.2966
NC1=CC(F)=CN=C1O	Nc1cc(F)cnc1O	
InChI=1S/C5H5FN2O/c6-3-1-4(7)5(9)8-2-3/h1-2H,7H2,(H,8,9)	InChI=1S/C5H5FN2O/c6-3-1-4(7)5(9)8-2-3/h1-2H,7H2,(H,8,9)
