21
gdb 109802	2.88127	1.03875	0.91764	2.4756	79.41	-0.2379	0.0573	0.2952	1366.3622	0.182563	-424.18366	-424.174372	-424.173428	-424.218219	35.321	
O	 0.242576053	 1.0170098049	-0.7489486004	-0.419151
C	 0.0328827908	 0.0459495394	 0.2926451206	-0.106803
C	-1.3517500521	-0.5622450747	 0.2393680297	-0.128408
C	-1.8035231287	-1.162343687	-1.0749359442	 0.082104
O	-0.8858944857	-1.2020838081	-2.1264959837	-0.427676
C	-1.5694202794	-2.0714427457	 0.1042473848	-0.068417
C	-0.4375010213	-3.0499168904	 0.0938805008	 0.025413
C	 0.0576251711	-3.6728449105	 1.3788161707	-0.273064
C	-0.7069946831	-4.5068889778	 0.3822769666	-0.278831
H	-0.4240447191	 1.7041566886	-0.6434550896	 0.286852
H	 0.8055035897	-0.7070799279	 0.1318961834	 0.128262
H	 0.2185721456	 0.498628529	 1.2757912059	 0.101057
H	-2.1074256861	-0.0244481594	 0.8070911292	 0.079962
H	-2.833174524	-0.989711913	-1.3877792599	 0.082431
H	-0.4249880559	-0.3500463912	-2.1222700681	 0.295008
H	-2.4673433239	-2.4349553812	 0.5982044418	 0.081048
H	 0.3053900072	-2.8572279599	-0.6716863061	 0.102279
H	 1.1220919896	-3.8478908227	 1.4925856299	 0.10918
H	-0.4468247461	-3.3979719107	 2.2995763959	 0.107154
H	-1.7226374138	-4.7937722517	 0.6357254535	 0.108819
H	-0.1681236878	-5.2515240499	-0.1929499809	 0.112779
48.2492	97.3713	140.0773	181.6702	228.0403	284.6414	312.523	334.0483	407.6699	542.7677	567.0611	614.9122	653.3977	754.2349	786.2609	803.4094	831.6289	852.3674	923.122	936.9669	959.6629	1000.2274	1036.5846	1041.4345	1047.8945	1061.5109	1077.6273	1126.1038	1131.4042	1149.9764	1201.459	1205.2333	1222.6603	1232.4455	1258.1393	1307.4534	1352.0121	1375.2439	1401.0167	1410.7193	1423.0743	1455.9701	1470.4102	1506.0334	1509.4666	3016.5548	3094.8048	3117.3019	3126.313	3128.0921	3131.6173	3138.5666	3174.4376	3204.2543	3220.7067	3707.843	3811.3081
OCC1C(O)C1C1CC1	OC[C@H]1[C@@H](O)[C@H]1C1CC1	
InChI=1S/C7H12O2/c8-3-5-6(7(5)9)4-1-2-4/h4-9H,1-3H2	InChI=1S/C7H12O2/c8-3-5-6(7(5)9)4-1-2-4/h4-9H,1-3H2/t5-,6+,7-/m1/s1
