19
gdb 26399	4.34746	0.96647	0.82068	3.4311	78.04	-0.2088	0.039	0.2478	1401.4953	0.160673	-419.255947	-419.247253	-419.246309	-419.28953	32.875	
C	 0.2079493289	 1.4658182793	 0.1384623795	-0.405245
C	 0.033710209	-0.0415467957	 0.2966892559	 0.118033
O	 0.0457376909	-0.4122431196	 1.6867315277	-0.43246
C	-1.2333624082	-0.562566065	-0.4009097542	-0.315926
C	-1.368204264	-2.0535607084	-0.3909945297	 0.338282
N	-1.8317219654	-2.7936484274	-1.378279317	-0.310568
C	-1.7908777606	-4.0895897395	-0.9160441152	-0.095605
C	-1.2945066301	-4.132056392	 0.3598724023	-0.1164
N	-1.0339414697	-2.821399067	 0.687033653	-0.257596
H	 1.094569585	 1.8050267011	 0.6805907642	 0.12837
H	 0.3175126158	 1.7395988665	-0.9151972559	 0.128563
H	-0.6644211328	 2.0028468249	 0.532040344	 0.110843
H	 0.9060867143	-0.5556423568	-0.121623806	 0.105063
H	-0.6259267668	 0.117386992	 2.1324578696	 0.282075
H	-2.1058993098	-0.091692223	 0.0791896486	 0.10184
H	-1.247662903	-0.2412425388	-1.4461964427	 0.133502
H	-2.1183878282	-4.9153564864	-1.5293603593	 0.100044
H	-1.1034973269	-4.9415717104	 1.0444994042	 0.120342
H	-0.6110702686	-2.4464126537	 1.5232001611	 0.266843
75.2947	94.6592	158.0948	239.5738	292.8996	302.1496	324.1682	361.9984	458.0653	487.5259	623.4749	686.8726	724.3388	738.4901	762.4503	840.7285	852.7012	905.2259	934.5434	939.2218	995.2164	1049.8099	1075.8218	1102.6125	1134.2	1147.4762	1179.8364	1194.8414	1284.7763	1297.7817	1319.9556	1380.8737	1399.7373	1403.8643	1422.0927	1457.6809	1473.7134	1492.7213	1494.2143	1508.8053	1586.3669	2983.953	3026.1464	3056.8405	3093.6166	3101.9066	3123.101	3245.8509	3278.8535	3622.5253	3789.5833
CC(O)CC1=NC=CN1	C[C@@H](O)Cc1ncc[nH]1	
InChI=1S/C6H10N2O/c1-5(9)4-6-7-2-3-8-6/h2-3,5,9H,4H2,1H3,(H,7,8)	InChI=1S/C6H10N2O/c1-5(9)4-6-7-2-3-8-6/h2-3,5,9H,4H2,1H3,(H,7,8)/t5-/m1/s1
