21
gdb 120705	2.66336	0.98816	0.85749	2.6756	81.05	-0.239	-0.0065	0.2325	1482.9715	0.17919	-424.229216	-424.218771	-424.217826	-424.265944	36.803	
C	-0.2016100031	 1.5203900604	-0.1596934902	-0.386398
C	-0.2811441601	 0.067362139	 0.2733433134	-0.033005
O	-1.1914674846	-0.6014731373	-0.5902708417	-0.238621
C	-1.3649500419	-1.9411508067	-0.2904903726	 0.13775
C	-2.2320283345	-2.3725638676	 0.8501783527	-0.326697
C	-2.7296184838	-2.5471980145	-0.5730677669	-0.178643
C	-3.8253514185	-1.6356510441	-1.048386406	 0.404364
C	-4.3978085346	-1.960216538	-2.4154787942	-0.483557
O	-4.2190864898	-0.6983039028	-0.3920085055	-0.312374
H	 0.4875371843	 2.0722181938	 0.4865176823	 0.114122
H	 0.1532565533	 1.5960826862	-1.1914401425	 0.124996
H	-1.1879594447	 1.9884134248	-0.1005465978	 0.137771
H	 0.7098483055	-0.412448952	 0.2179400251	 0.085169
H	-0.6258813293	-0.013872449	 1.3147084161	 0.097379
H	-0.5057918087	-2.5703796076	-0.5330477468	 0.087737
H	-1.9607896969	-3.2544931865	 1.4190221438	 0.113899
H	-2.7457568519	-1.5868139899	 1.3937842098	 0.146791
H	-2.7169702295	-3.5359909971	-1.019862366	 0.091811
H	-4.8339968305	-2.9660102182	-2.4161377926	 0.135018
H	-5.1613871213	-1.2291267574	-2.6828152293	 0.13982
H	-3.6002867793	-1.9580184654	-3.1671666812	 0.142669
47.3475	60.108	74.2281	128.3521	135.4327	195.915	245.2072	248.5859	356.6079	377.0307	437.217	499.384	591.1352	642.6746	750.8325	807.2629	820.8048	848.5655	896.8154	950.8653	963.0938	1021.8008	1048.8098	1066.4193	1086.501	1098.5139	1132.528	1150.4142	1179.8377	1183.9097	1188.4726	1251.5578	1295.9888	1373.3124	1375.5234	1397.3644	1404.9932	1434.0617	1463.4856	1469.6086	1475.7503	1482.9169	1500.2526	1527.9482	1805.3815	2969.8681	3012.3857	3033.4294	3046.1884	3075.9785	3093.9368	3119.8621	3125.7796	3136.3311	3152.7836	3162.1338	3233.975
CCOC1CC1C(C)=O	CCO[C@H]1C[C@H]1C(=O)C	
InChI=1S/C7H12O2/c1-3-9-7-4-6(7)5(2)8/h6-7H,3-4H2,1-2H3	InChI=1S/C7H12O2/c1-3-9-7-4-6(7)5(2)8/h6-7H,3-4H2,1-2H3/t6-,7-/m0/s1
