18
gdb 85632	3.35578	1.0546	0.87482	3.1341	80.91	-0.2722	-0.0535	0.2188	1317.9163	0.148052	-401.981256	-401.972445	-401.9715	-402.014835	32.836	
C	 0.0168567637	 1.572126926	-0.0316422397	-0.395718
C	 0.0982056482	 0.048717793	 0.0143138769	-0.017214
C	 0.8563446692	-0.6006424051	-1.1714478564	-0.332868
C	 1.4946700229	-1.8241235853	-0.5373049156	 0.194892
C	 1.4127130893	-1.8038123523	 0.8010367775	-0.192909
C	 0.777945043	-0.5264308784	 1.2954654215	 0.083801
O	 1.7522086124	 0.3213125438	 1.9006264492	-0.421041
C	 2.1204129819	-2.84194883	-1.3100511086	 0.204587
N	 2.6212270714	-3.6528275731	-1.9685155675	-0.329794
H	 1.0120004356	 2.0239235796	 0.011392328	 0.1159
H	-0.4701290513	 1.9069059413	-0.9529541328	 0.116289
H	-0.5556705275	 1.9623107476	 0.8149930216	 0.125041
H	-0.9185599913	-0.3619078338	 0.0048633687	 0.09047
H	 0.1919249768	-0.8646102987	-1.9995986314	 0.130241
H	 1.6275645209	 0.0585967232	-1.5915792946	 0.121835
H	 1.8258570724	-2.5532590074	 1.4652028512	 0.12622
H	 0.04287737	-0.6949655496	 2.0881311717	 0.098118
H	 2.5185419124	 0.359843009	 1.3171313103	 0.282152
86.6413	109.6777	148.815	216.3115	260.5478	295.99	339.9519	358.5884	458.2996	486.6047	548.657	573.327	594.0729	700.442	799.4022	867.0216	899.1162	922.3608	940.8405	998.7742	1017.5733	1069.5736	1118.9021	1132.3168	1173.8868	1200.7143	1251.1849	1271.6842	1296.4567	1317.2664	1346.915	1365.8881	1415.2749	1429.5453	1488.3851	1492.5508	1497.2403	1668.5175	2338.0799	3023.546	3032.863	3041.5618	3070.0939	3083.9379	3109.3092	3115.9829	3214.6382	3798.1747
CC1CC(=CC1O)C#N	C[C@H]1CC(=C[C@H]1O)C#N	
InChI=1S/C7H9NO/c1-5-2-6(4-8)3-7(5)9/h3,5,7,9H,2H2,1H3	InChI=1S/C7H9NO/c1-5-2-6(4-8)3-7(5)9/h3,5,7,9H,2H2,1H3/t5-,7+/m0/s1
