25
gdb 115843	2.49944	1.20733	1.05308	0.1174	91.96	-0.2547	0.0778	0.3325	1335.8549	0.230529	-352.365698	-352.356158	-352.355214	-352.39982	36.945	
C	-0.7679962514	 1.2232531808	 0.5448244752	-0.382665
C	-0.3135972985	-0.2377348814	 0.4573283943	-0.184132
C	 0.3205561778	-0.6059879953	-0.8918621045	 0.050313
C	 1.6391154939	 0.1467139081	-1.2175022332	-0.239584
C	 2.4874383856	-0.8136943095	-2.0899483843	-0.223938
C	 1.9471743815	-2.2180603309	-1.8370227409	-0.06915
C	 1.8498316092	-2.7424939855	-0.4218699618	 0.005911
C	 2.6541444536	-2.2512719792	 0.7653020733	-0.421371
C	 0.644873735	-2.0876451306	-1.0713456978	-0.081508
H	 0.0738056833	 1.9137591909	 0.4273120997	 0.116188
H	-1.497765939	 1.4571764573	-0.2390128063	 0.110732
H	-1.2380125754	 1.4366982567	 1.5100464229	 0.108862
H	 0.3996034806	-0.4507075356	 1.2634106697	 0.095478
H	-1.1750941932	-0.8947066492	 0.6334823841	 0.089273
H	-0.4118022099	-0.3587638963	-1.6752436366	 0.064738
H	 1.4502889235	 1.0942415483	-1.7298314694	 0.095577
H	 2.1653402945	 0.4029628161	-0.2926588392	 0.10156
H	 2.3551760575	-0.5774907709	-3.1519394585	 0.097733
H	 3.5592094606	-0.7182201154	-1.8808956598	 0.094092
H	 2.0595316688	-2.9428751012	-2.6371971556	 0.073144
H	 1.7394867077	-3.8257126637	-0.3983121806	 0.079253
H	 2.8619783779	-1.1812623165	 0.7389042599	 0.119826
H	 2.1329537708	-2.4629155351	 1.7058900793	 0.11586
H	 3.6201772396	-2.7681361128	 0.804923028	 0.112143
H	-0.1957552338	-2.7388650192	-1.2929580378	 0.071663
93.7187	116.6907	145.6344	174.9936	186.1006	238.6996	263.4597	342.4538	398.2569	452.9375	510.5356	648.0117	686.7299	732.9517	759.4731	779.3876	825.6689	857.7772	914.6604	932.1492	965.5042	969.0113	993.8806	1003.7061	1048.4633	1063.9534	1082.9766	1092.5058	1109.0162	1141.8577	1151.0238	1160.1578	1209.1088	1231.9411	1249.506	1282.8378	1312.145	1314.7836	1327.7107	1344.3894	1359.6386	1377.8876	1389.0477	1411.8423	1418.1617	1447.474	1485.3719	1487.4466	1497.0325	1499.7751	1501.391	1508.6645	1520.2858	2982.2955	3020.9588	3028.6305	3029.6689	3031.0863	3050.9504	3054.4772	3061.9384	3079.4177	3090.7602	3095.1007	3101.1084	3106.7182	3140.2038	3143.2167	3155.3307
CCC1CCC2C(C)C12	CC[C@H]1CC[C@H]2[C@@H](C)[C@@H]12	
InChI=1S/C9H16/c1-3-7-4-5-8-6(2)9(7)8/h6-9H,3-5H2,1-2H3	InChI=1S/C9H16/c1-3-7-4-5-8-6(2)9(7)8/h6-9H,3-5H2,1-2H3/t6-,7+,8+,9+/m1/s1
