18
gdb 8268	4.86907	0.96196	0.9213	1.697	77.81	-0.241	0.0328	0.2738	1347.9478	0.151875	-347.768519	-347.759397	-347.758453	-347.804041	31.574	
C	-0.2237487134	 1.4228640047	 0.1170541068	-0.498437
C	-0.0631370117	-0.0228290724	 0.0777173966	 0.071713
C	 0.0626083499	-1.2202969652	 0.0419279976	 0.084122
C	 0.2258838044	-2.6619403275	 0.0064060916	-0.032188
C	 0.4536023817	-3.4096402101	 1.3472223592	-0.310495
C	-0.7722320563	-4.24886697	 0.9293057982	 0.176839
C	-1.9626865188	-4.3090568874	 1.8634742064	-0.396985
O	-1.0114088275	-3.3910790623	-0.2163400733	-0.302617
H	 0.3062070945	 1.9078687263	-0.709998334	 0.149518
H	-1.2807613806	 1.7012944372	 0.0429492438	 0.153611
H	 0.1633435405	 1.8414561414	 1.0526875962	 0.148478
H	 0.9661074755	-2.9337410463	-0.7593219377	 0.095387
H	 1.4047566876	-3.9336519843	 1.4471423549	 0.109448
H	 0.2816181476	-2.7839893691	 2.2243981599	 0.115704
H	-0.5023012104	-5.2606590488	 0.5936430384	 0.071302
H	-2.2301070411	-3.3068899465	 2.2117622209	 0.123407
H	-2.8296114119	-4.7374897701	 1.350532025	 0.127408
H	-1.7356517799	-4.9362085796	 2.7329229995	 0.113783
29.9251	36.1476	109.9386	146.0663	227.0273	302.8557	321.0011	332.7718	423.8417	469.4162	516.2742	668.7557	762.2218	880.5415	898.096	920.6797	957.4876	985.1669	1050.6998	1053.2571	1087.9332	1098.2304	1124.7236	1190.9116	1198.5631	1248.2096	1262.6798	1317.1247	1363.3953	1393.703	1411.4673	1414.001	1476.1989	1478.5989	1480.9432	1489.2367	1496.5724	2367.4771	2992.4627	2998.293	3027.5544	3032.6204	3082.2448	3088.2141	3090.1783	3104.3361	3114.7821	3142.6746
CC#CC1CC(C)O1	CC#C[C@H]1C[C@@H](C)O1	
InChI=1S/C7H10O/c1-3-4-7-5-6(2)8-7/h6-7H,5H2,1-2H3	InChI=1S/C7H10O/c1-3-4-7-5-6(2)8-7/h6-7H,5H2,1-2H3/t6-,7+/m1/s1
