13
gdb 11198	5.60167	1.33864	1.08765	4.321	65.74	-0.2413	-0.0598	0.1815	990.3572	0.095968	-398.66427	-398.657383	-398.656439	-398.695638	25.048	
O	-0.1126431479	-0.0359553456	 0.0014477695	-0.292321
C	-0.0343606926	 1.1761490873	 0.0106022697	 0.072984
C	 1.2069206781	 1.918792732	 0.0022603171	 0.155562
C	 1.3146818978	 3.2673460156	 0.0117138461	-0.063003
N	 2.633254264	 3.6692800504	-0.0004218636	-0.320986
C	 3.5078959566	 2.5702877248	-0.0186485822	 0.431178
O	 4.7084720046	 2.6457722281	-0.0328058475	-0.34122
C	 2.5972074203	 1.3360850849	-0.0185827428	-0.458015
H	-0.9484425809	 1.813229802	 0.0259604936	 0.058584
H	 0.5208435938	 4.0025801476	 0.0265803872	 0.152129
H	 2.962340728	 4.621458159	 0.0030085297	 0.272644
H	 2.8173465584	 0.7078703718	 0.8506677384	 0.166199
H	 2.7971532799	 0.722433862	-0.9029908952	 0.166266
108.5723	164.7765	164.9058	337.3595	418.4162	462.5129	484.4973	552.9378	583.3574	672.9073	777.365	840.7604	893.4203	910.0906	948.5759	1033.0098	1104.264	1144.2162	1155.4737	1221.7342	1312.475	1365.0013	1417.3586	1427.4786	1430.7371	1656.7684	1771.7953	1858.1356	2863.1056	3063.7962	3097.2752	3228.8064	3653.3981
O=CC1=CNC(=O)C1	O=CC1=CNC(=O)C1	
InChI=1S/C5H5NO2/c7-3-4-1-5(8)6-2-4/h2-3H,1H2,(H,6,8)	InChI=1S/C5H5NO2/c7-3-4-1-5(8)6-2-4/h2-3H,1H2,(H,6,8)
