19
gdb 106886	2.72747	1.24719	1.03906	3.0209	76.31	-0.2386	-0.0126	0.226	1204.0161	0.157964	-423.01585	-423.006706	-423.005761	-423.049841	33.95	
C	-0.1767071138	 1.5751809974	-0.0015658192	-0.423537
C	 0.0436441904	 0.0681184825	-0.0083414808	-0.162292
C	 1.1665273961	-0.5826501378	-0.8652173617	 0.418374
O	 1.36663558	-0.6294122579	-2.0459598198	-0.32148
C	 1.7730856622	-1.2739878141	 0.3226879444	-0.246451
C	 2.0810923016	-0.2249722675	 1.3864278248	-0.341709
C	 0.6619236487	-0.6541469783	 1.2110796584	 0.322191
C	-0.1426237038	-1.3190906237	 2.2886888438	-0.17888
O	-0.8410072932	-0.3769120868	 3.0931214729	-0.408377
H	 0.7239286959	 2.1210011953	 0.2958035017	 0.115257
H	-0.4580353055	 1.9203784256	-1.0010274145	 0.13559
H	-0.9790086835	 1.8422212416	 0.6928891786	 0.131375
H	-0.8877430865	-0.4389665448	-0.2947807737	 0.105745
H	 2.2329510352	-2.2544480005	 0.3498950359	 0.112237
H	 2.600496479	-0.6280598741	 2.2515183107	 0.123649
H	 2.4178432234	 0.7650718177	 1.0949737571	 0.127438
H	-0.9185668427	-1.9541582181	 1.8474756323	 0.116599
H	 0.5076795154	-1.9683034526	 2.8967354648	 0.089976
H	-0.185729609	 0.2047784861	 3.4929494442	 0.284296
78.2691	95.5805	163.7783	188.5806	232.4437	243.1259	302.8365	372.0888	387.7423	481.3394	485.6389	600.5217	692.8552	718.2122	772.7695	841.5337	882.2905	920.321	962.4775	996.5379	998.8497	1053.7406	1062.1847	1084.4386	1096.6172	1111.0418	1129.5707	1188.7871	1194.3224	1232.9102	1293.3373	1335.2226	1373.7509	1398.4475	1408.9245	1427.3573	1488.5259	1496.8731	1499.5494	1507.1843	1882.4253	2976.0496	3026.0413	3039.8499	3068.1834	3108.9324	3113.3215	3119.6738	3191.94	3201.2913	3809.7561
CC1C(=O)C2CC12CO	C[C@H]1C(=O)[C@H]2C[C@@]12CO	
InChI=1S/C7H10O2/c1-4-6(9)5-2-7(4,5)3-8/h4-5,8H,2-3H2,1H3	InChI=1S/C7H10O2/c1-4-6(9)5-2-7(4,5)3-8/h4-5,8H,2-3H2,1H3/t4-,5+,7+/m0/s1
