17
gdb 28473	3.14074	1.34842	0.94959	2.9167	80.16	-0.2153	0.0035	0.2188	1196.4508	0.13811	-418.091499	-418.083386	-418.082442	-418.123634	31.972	
C	-0.0620253673	 1.5028147788	-0.0297928442	-0.523716
C	-0.004813335	-0.0003852421	 0.0091998482	 0.220163
C	 0.0503196808	-0.7594299498	-1.1485920117	-0.070712
N	 0.093432221	-2.0973356344	-1.2003516312	-0.395027
C	 0.0812550801	-2.7327831022	-0.0342403146	 0.437966
O	 0.1252637108	-4.0842670187	-0.0691945464	-0.42627
C	 0.0308011533	-2.1014186463	 1.2051792442	-0.304691
C	-0.0150214601	-0.7078580725	 1.2359021082	 0.284552
N	-0.1222790575	-0.0281415803	 2.4353212353	-0.589234
H	 0.8065579962	 1.966311228	 0.4594523955	 0.118554
H	-0.0767724365	 1.8623309188	-1.0619363157	 0.130268
H	-0.9578543346	 1.8914471333	 0.4707740078	 0.13183
H	 0.0604030122	-0.2514494259	-2.1114802017	 0.097009
H	 0.1571581949	-4.3142833167	-1.0081812568	 0.293224
H	 0.0254580831	-2.6906206006	 2.114943018	 0.090374
H	 0.2006926137	 0.9262873395	 2.4438713023	 0.253017
H	 0.1400302751	-0.5425035489	 3.2619534931	 0.252691
139.8273	193.4456	216.5147	295.2717	322.7086	338.2495	397.3783	455.03	469.0942	516.2634	531.9677	539.2416	574.4819	701.7193	759.1674	766.8608	791.3267	858.2029	953.1305	982.3685	1026.2568	1065.3617	1094.7732	1181.4804	1220.1041	1257.8145	1335.192	1345.6975	1377.3612	1418.1505	1477.9245	1484.4749	1513.9824	1535.2819	1622.7674	1652.4452	1673.2087	3002.416	3051.2752	3111.0485	3139.8129	3193.1055	3584.3791	3689.0312	3767.6627
CC1=CN=C(O)C=C1N	Cc1cnc(O)cc1N	
InChI=1S/C6H8N2O/c1-4-3-8-6(9)2-5(4)7/h2-3H,1H3,(H3,7,8,9)	InChI=1S/C6H8N2O/c1-4-3-8-6(9)2-5(4)7/h2-3H,1H3,(H3,7,8,9)
