23
gdb 94317	2.45587	1.34678	1.06767	1.2068	86.34	-0.2401	0.0709	0.3111	1257.0516	0.203825	-388.272714	-388.262757	-388.261813	-388.307052	38.356	
C	 0.1199923245	 1.6246781746	-0.0832903848	-0.410718
C	 0.0383650419	 0.109968338	 0.0425933833	-0.037431
C	 0.9618173324	-0.7399294284	-0.8843733517	-0.232778
C	 1.3927365332	-1.6035603665	 0.3362655888	-0.290982
C	 0.7069178275	-0.5821116374	 1.2507494982	 0.337192
C	 1.3450084319	 0.086243305	 2.4491737608	-0.424067
C	 0.1621306407	-0.8446747659	 2.6168619433	 0.331784
C	-1.1844836119	-0.3011035596	 3.0365191169	-0.45142
O	 0.4266838002	-2.1457027143	 3.0829929333	-0.466671
H	 1.1539340326	 1.9722683188	 0.0184391608	 0.115038
H	-0.2500401	 1.9535239063	-1.0608232774	 0.1132
H	-0.4790193142	 2.1326997989	 0.6815239493	 0.111505
H	-1.006137204	-0.2111819536	-0.0521778431	 0.068535
H	 0.4762575443	-1.2626170616	-1.7117707497	 0.094401
H	 1.7871796441	-0.1462562044	-1.2884147952	 0.096725
H	 0.9108115232	-2.5843090512	 0.3697106944	 0.111355
H	 2.4670330858	-1.7449853667	 0.4783131425	 0.096381
H	 2.316708307	-0.2840506689	 2.7622195625	 0.106085
H	 1.1914008486	 1.1513929659	 2.5974997926	 0.104258
H	-1.370172386	 0.686582298	 2.6052755875	 0.119904
H	-1.9866458923	-0.9742993785	 2.7162966847	 0.123664
H	-1.2438068861	-0.2020826631	 4.127816056	 0.105618
H	 0.5605221465	-2.0968488156	 4.036094357	 0.278422
64.2068	140.8632	151.6999	206.4083	230.6843	249.9439	270.0982	292.2989	357.0524	409.2544	420.7609	445.4097	509.6502	591.7703	694.4801	723.3808	786.8582	882.8501	886.7709	902.2707	918.3367	936.7994	953.9487	977.702	1030.1415	1051.7323	1064.5493	1093.2906	1142.3988	1159.2194	1179.5006	1190.113	1224.2038	1253.1098	1262.8556	1279.9735	1288.6721	1311.7615	1363.3494	1407.3129	1409.1522	1421.3678	1477.4167	1481.2699	1482.9254	1496.3161	1497.6366	1500.6767	1512.2897	3021.6786	3021.957	3025.406	3053.2687	3060.2137	3083.9972	3085.5755	3095.1419	3098.2868	3112.4821	3115.3322	3115.4833	3203.4371	3791.6763
CC1CCC11CC1(C)O	C[C@H]1CC[C@]21C[C@]2(C)O	
InChI=1S/C8H14O/c1-6-3-4-8(6)5-7(8,2)9/h6,9H,3-5H2,1-2H3	InChI=1S/C8H14O/c1-6-3-4-8(6)5-7(8,2)9/h6,9H,3-5H2,1-2H3/t6-,7-,8+/m0/s1
