21
gdb 112177	2.51008	1.16215	0.97341	2.2842	79.3	-0.2444	-0.0258	0.2186	1324.2151	0.17918	-424.241813	-424.231405	-424.230461	-424.277303	37.872	
C	-0.2646959435	 1.7175113818	 0.1030020888	-0.383087
C	-0.1625466823	 0.2328593534	 0.4701166728	-0.209686
C	-1.3209473129	-0.5916965324	-0.0771293181	-0.005434
C	-1.4169884305	-0.8409432963	-1.621501503	-0.369389
C	-1.9335159438	-2.2328957912	-1.2608434686	 0.337346
O	-2.7278654279	-2.9924047881	-1.7445331239	-0.318338
C	-1.3800813414	-2.1510069162	 0.1703496771	 0.280048
C	-0.0218017184	-2.8294081749	 0.351853568	-0.427321
O	-2.2730568456	-2.5980890622	 1.1643886586	-0.482274
H	 0.5740041765	 2.2850140952	 0.5175998786	 0.11589
H	-0.2593316385	 1.86126562	-0.9829141837	 0.118749
H	-1.1899987887	 2.1574304685	 0.4905821678	 0.119079
H	 0.7880914583	-0.1693496362	 0.0992071387	 0.096035
H	-0.1364036687	 0.1281354243	 1.5621380714	 0.109548
H	-2.2721754536	-0.1823968756	 0.2794152924	 0.089784
H	-2.0810212236	-0.2198182737	-2.2249975364	 0.130788
H	-0.4297096603	-0.8756915824	-2.0954982725	 0.127691
H	 0.7055510702	-2.5195771823	-0.4042640226	 0.115085
H	 0.3814287843	-2.589167294	 1.3398549866	 0.133083
H	-0.1478009394	-3.9136332536	 0.2874944331	 0.129428
H	-2.9737060103	-3.0867692143	 0.7138280747	 0.292975
52.5217	94.636	152.5065	154.462	180.6906	228.6003	241.5611	272.4315	299.2933	323.721	408.5951	436.0823	498.615	616.3757	664.658	730.6963	779.0889	798.3115	856.4184	905.8309	955.5003	974.5937	1025.5117	1037.5103	1084.0425	1097.052	1124.0403	1157.6145	1188.2461	1210.8628	1225.1489	1278.6083	1298.1462	1337.0608	1363.1936	1396.7162	1400.2437	1414.5092	1447.7751	1481.7041	1486.1698	1493.6715	1500.7818	1506.8947	1871.1684	3022.376	3032.5057	3041.1532	3047.1852	3052.6022	3064.3907	3100.7421	3105.3774	3116.6806	3120.1788	3125.7464	3769.9795
CCC1CC(=O)C1(C)O	CC[C@H]1CC(=O)[C@]1(C)O	
InChI=1S/C7H12O2/c1-3-5-4-6(8)7(5,2)9/h5,9H,3-4H2,1-2H3	InChI=1S/C7H12O2/c1-3-5-4-6(8)7(5,2)9/h5,9H,3-4H2,1-2H3/t5-,7+/m0/s1
