19
gdb 111878	2.5995	1.49158	1.38962	1.8466	71.4	-0.2363	0.0754	0.3117	1049.7927	0.160061	-460.121882	-460.113664	-460.11272	-460.154842	30.746	
C	 0.3004623892	 1.087293841	-0.3029659943	-0.234935
O	-0.3683656293	 0.0853762791	 0.4468884603	-0.228501
C	 0.4619349869	-0.5733622394	 1.3344525025	 0.091586
C	 0.1593850742	-2.0225995202	 1.6006146864	-0.167324
C	-0.928401567	-2.7574546935	 0.8331260559	-0.091325
O	-0.726613199	-2.7529078823	-0.5765261946	-0.223816
C	 0.6065016487	-2.9784373203	-0.9119604123	 0.0142
O	 1.4401127547	-1.9003679418	-0.5433998817	-0.236794
C	 1.4142156102	-1.6444668261	 0.8310452922	 0.032495
H	 1.0980297355	 0.6543241826	-0.9169831269	 0.131291
H	-0.4482332913	 1.5504355753	-0.9495322814	 0.126408
H	 0.7290190205	 1.8590906028	 0.3541960687	 0.100228
H	 0.8117734234	 0.03157842	 2.1745224743	 0.080021
H	 0.2907401482	-2.368064815	 2.6212214004	 0.097932
H	-0.9651534659	-3.7983755467	 1.1926182047	 0.094135
H	-1.9083365199	-2.302065186	 0.9970916823	 0.126613
H	 0.9732361792	-3.90964241	-0.4420147677	 0.075762
H	 0.6619667999	-3.0523010301	-1.9994103664	 0.118014
H	 2.3879522119	-1.7483406095	 1.3051583476	 0.094009
98.8635	129.7266	142.9111	191.2264	254.2271	300.7279	379.2662	477.446	509.2256	587.0789	662.7199	747.8642	784.1119	802.2175	878.6645	943.5775	980.1952	1003.8274	1030.9217	1066.2941	1098.6364	1105.7538	1132.9286	1143.8772	1173.8758	1185.5731	1209.3577	1225.7382	1272.339	1280.2763	1328.6182	1349.552	1362.9031	1388.1013	1443.7616	1445.5697	1483.7123	1487.2544	1496.7783	1507.288	1511.4435	2933.6026	2976.0755	2990.3957	3067.4061	3071.0616	3093.2584	3118.0992	3121.6224	3125.4772	3157.3431
COC1C2COCOC12	CO[C@H]1[C@H]2COCO[C@@H]12	
InChI=1S/C6H10O3/c1-7-5-4-2-8-3-9-6(4)5/h4-6H,2-3H2,1H3	InChI=1S/C6H10O3/c1-7-5-4-2-8-3-9-6(4)5/h4-6H,2-3H2,1H3/t4-,5+,6-/m1/s1
