19
gdb 96185	2.34195	1.92372	1.21593	2.1603	71.32	-0.2523	0.0747	0.327	1045.7139	0.160412	-460.143091	-460.135264	-460.13432	-460.175495	30.018	
C	 0.0544320033	 1.5463588906	-0.0655978217	-0.406814
C	 0.0555697972	 0.0271708878	-0.0177809361	 0.089056
O	 0.6565252277	-0.450806797	-1.2207002404	-0.239197
C	 0.7925195694	-1.8400137574	-1.2039419878	 0.014492
O	 1.7613109409	-2.2725529553	-0.2805361333	-0.253906
C	 1.4816216168	-1.896178995	 1.0550782696	 0.047406
C	 2.6830440991	-1.1653955777	 1.672920444	-0.083898
O	 2.0327664902	 0.1155004714	 1.5198558468	-0.287823
C	 0.7757287025	-0.5219398446	 1.2094329237	 0.101013
H	 1.0810335468	 1.9172550258	-0.0418732336	 0.149874
H	-0.4299319392	 1.8883356217	-0.9835207254	 0.124833
H	-0.4863166834	 1.9571099832	 0.7921924211	 0.116796
H	-0.9812227891	-0.3534061086	 0.0240535182	 0.065541
H	-0.1843454685	-2.3146475434	-0.9887282484	 0.07267
H	 1.1493875839	-2.1483415728	-2.1883465939	 0.120269
H	 1.0549937382	-2.7398700654	 1.6094836813	 0.079431
H	 2.8721234612	-1.4030404399	 2.727774806	 0.097805
H	 3.6080829594	-1.2381573153	 1.0943192893	 0.121101
H	 0.1002812235	-0.4880720982	 2.0769034805	 0.071352
110.0003	118.0326	221.771	225.6075	312.8	349.0592	400.0837	450.7336	502.108	633.2007	701.8309	794.2818	832.6263	861.5248	893.6379	941.4594	977.4826	1002.2822	1038.922	1051.672	1078.1867	1089.2583	1120.518	1157.5454	1164.0395	1189.6294	1232.3688	1260.1119	1273.0733	1308.4561	1333.1626	1358.4741	1372.612	1375.763	1389.3058	1407.87	1447.2788	1483.0255	1498.7467	1507.1534	1511.1931	2915.8545	2939.5268	2994.3326	3016.371	3040.6746	3051.4718	3095.6192	3114.7038	3123.8016	3143.4636
CC1OCOC2COC12	C[C@H]1OCO[C@H]2CO[C@@H]12	
InChI=1S/C6H10O3/c1-4-6-5(2-7-6)9-3-8-4/h4-6H,2-3H2,1H3	InChI=1S/C6H10O3/c1-4-6-5(2-7-6)9-3-8-4/h4-6H,2-3H2,1H3/t4-,5+,6+/m1/s1
