22
gdb 103125	2.07719	1.25789	1.0896	3.8351	84.46	-0.2423	0.0124	0.2547	1296.5215	0.191306	-404.359341	-404.348659	-404.347715	-404.394826	38.495	
C	-0.3381871468	 1.561723178	-0.3183693623	-0.391553
C	-0.0076072196	 0.0704797361	-0.1597834084	-0.239993
C	 0.8797997517	-0.505526348	-1.2567459026	 0.280975
C	 2.2178674367	 0.188106424	-1.4433213494	-0.450227
C	 0.8131912165	-1.9886402392	-1.5901758834	-0.048621
C	-0.0753840503	-2.997705944	-0.8995532147	-0.415169
N	 0.2735064689	-0.9937403438	-2.4919337201	-0.092009
C	-1.0061177054	-0.8935641896	-2.9772618643	 0.136011
O	-1.6826760433	-1.8236198548	-3.3556588963	-0.313353
H	 0.559877357	 2.1849828194	-0.2850162792	 0.124352
H	-0.8487850585	 1.7618309677	-1.2659661139	 0.124778
H	-0.9979631207	 1.8910865972	 0.4896830132	 0.121145
H	 0.5029019262	-0.0826967611	 0.8000613327	 0.106681
H	-0.9409497697	-0.4967988237	-0.1073057451	 0.10998
H	 2.7802877325	 0.1960333593	-0.5031770983	 0.120024
H	 2.8146347634	-0.324981789	-2.2009588164	 0.128414
H	 2.0885296444	 1.2250773814	-1.7673040886	 0.127915
H	 1.7517043136	-2.4169477049	-1.945085854	 0.094073
H	-0.9962107562	-2.5585633096	-0.5138703457	 0.130495
H	-0.3628632383	-3.7822270515	-1.6043000116	 0.149715
H	 0.4653354567	-3.4607463654	-0.0674994097	 0.11816
H	-1.3334795388	 0.1611211317	-3.066336542	 0.078204
81.905	100.4375	136.5253	150.4638	181.2234	200.3459	226.2003	260.265	266.9557	294.0869	350.7233	440.3672	456.1681	524.8429	619.3545	701.545	788.0104	815.4046	858.8622	946.8721	1008.253	1012.6964	1032.1209	1038.8067	1057.5268	1083.6885	1129.8611	1150.4043	1170.2539	1222.6351	1275.4702	1312.8334	1362.3018	1386.6158	1408.5123	1412.7995	1414.7786	1424.9246	1456.6642	1470.83	1482.1821	1490.3893	1492.4706	1500.6198	1503.0604	1509.638	1781.3672	2935.1818	3025.5303	3037.6044	3042.0036	3048.1732	3084.7288	3092.7452	3103.2553	3109.568	3116.4319	3117.5929	3124.0736	3144.3637
CCC1(C)C(C)N1C=O	CC[C@@]1(C)[C@@H](C)N1C=O	
InChI=1S/C7H13NO/c1-4-7(3)6(2)8(7)5-9/h5-6H,4H2,1-3H3	InChI=1S/C7H13NO/c1-4-7(3)6(2)8(7)5-9/h5-6H,4H2,1-3H3/t6-,7+,8?/m1/s1
