16
gdb 46698	3.00017	1.83695	1.39952	3.4034	67.28	-0.2288	-0.0263	0.2025	913.7356	0.126154	-437.838189	-437.831456	-437.830512	-437.869405	26.832	
O	 0.0426259868	 0.1011274833	 0.6565518504	-0.31375
C	-0.0205868451	 1.2365891844	 0.25336807	 0.410283
C	-1.3496568808	 1.8796741302	-0.1472750149	-0.177065
O	-1.311664483	 3.2869695519	-0.3014984933	-0.25164
C	-0.2249472319	 3.793086844	-1.0192435369	 0.12455
C	 1.035452322	 4.1951737885	-0.3112278823	-0.050095
N	 1.1699993515	 3.349078517	 0.889778811	-0.327881
C	 1.1901812534	 2.1235132535	 0.0094153864	-0.131998
C	 1.0218323083	 2.9854879834	-1.2567105493	-0.187644
H	-1.6756690019	 1.3814987134	-1.0761083637	 0.121727
H	-2.0989233668	 1.6657427598	 0.6185674884	 0.146266
H	-0.5251824547	 4.4397488669	-1.8403306603	 0.103606
H	 1.4891392389	 5.1758721471	-0.3886999296	 0.101504
H	 2.0883503924	 3.4627201296	 1.3057201609	 0.233419
H	 2.1103752001	 1.5426708938	 0.0763988556	 0.096128
H	 1.4493569507	 2.7883966034	-2.2319942624	 0.102589
92.0178	186.8878	293.4013	411.1414	425.2517	465.4591	567.3948	608.7281	643.431	715.1511	781.1325	796.9972	829.7236	891.2067	935.0051	956.8126	990.5356	1006.6303	1027.7714	1036.3341	1050.7343	1092.4525	1103.2198	1184.572	1206.2247	1235.1851	1259.2737	1269.5321	1279.6699	1342.1331	1354.7948	1372.974	1436.5678	1464.5075	1830.8826	2968.4927	3108.4007	3112.4363	3139.5981	3178.9152	3192.3551	3531.1295
O=C1COC2C3NC1C23	O=C1CO[C@H]2[C@H]3N[C@@H]1[C@@H]23	
InChI=1S/C6H7NO2/c8-2-1-9-6-3-4(2)7-5(3)6/h3-7H,1H2	InChI=1S/C6H7NO2/c8-2-1-9-6-3-4(2)7-5(3)6/h3-7H,1H2/t3-,4+,5+,6-/m1/s1
