14
gdb 22873	3.17071	1.27668	0.94096	2.9264	61.55	-0.2699	-0.0341	0.2358	1148.8029	0.099724	-510.944233	-510.935977	-510.935032	-510.977733	29.729	
O	-0.1931772972	 1.3299522635	-0.1544429793	-0.388906
N	 0.0172830263	-0.0536317587	-0.1595590836	-0.188781
C	-1.0774989193	-0.6745740914	-0.0041213942	 0.346298
C	-2.4606586238	-0.0881117824	 0.1565249296	-0.165078
O	-3.3725006466	-1.1934979872	 0.0020922659	-0.220708
C	-2.7117896117	-2.3577076022	-0.1837781479	 0.425886
O	-3.2418555605	-3.384746571	-0.4955527538	-0.343897
C	-1.2057898593	-2.1710950081	 0.0412818856	-0.102523
O	-0.4446207963	-2.8673066922	-0.9049869002	-0.41647
H	 0.6906639568	 1.6771400945	-0.3187153875	 0.31827
H	-2.6127867041	 0.3673188268	 1.1407650651	 0.151408
H	-2.6786127807	 0.6619780718	-0.6083416884	 0.160739
H	-0.9911775237	-2.5217260826	 1.0683623326	 0.121996
H	-0.9402893999	-3.6743866907	-1.103330754	 0.301765
45.0246	162.4669	174.9587	213.8634	245.836	356.5162	362.9323	419.62	474.6681	530.6923	537.9146	655.0246	691.8704	749.2617	856.0022	894.2401	995.8592	1023.6452	1056.7672	1130.7745	1169.2181	1199.4905	1220.0172	1254.4737	1337.1881	1372.5908	1393.7585	1440.5471	1497.892	1773.0415	1882.7695	2929.6895	3054.9455	3103.1413	3751.7856	3815.4433
ON=C1COC(=O)C1O	ON=C1COC(=O)[C@H]1O	
InChI=1S/C4H5NO4/c6-3-2(5-8)1-9-4(3)7/h3,6,8H,1H2	InChI=1S/C4H5NO4/c6-3-2(5-8)1-9-4(3)7/h3,6,8H,1H2/t3-/m0/s1
