20
gdb 78609	2.94748	1.42053	1.14316	1.6115	79.89	-0.2379	0.0739	0.3118	1151.7631	0.169711	-403.060915	-403.05226	-403.051316	-403.093574	33.767	
C	-0.1399236019	 1.5983019297	-0.1034428542	-0.428604
C	-0.0608972994	 0.0800898106	-0.0799994505	-0.009442
C	 1.2007472167	-0.6182963417	-0.6117686869	-0.083461
N	 2.0151323228	-0.2505847729	 0.6502118375	-0.171078
C	 2.4660568096	-1.7062747513	 0.8005031739	-0.006591
C	 2.897190008	-2.1405727476	 2.1861443118	-0.418237
C	 1.0203237209	-1.8659046262	 0.3209477627	 0.334711
O	 0.2356847424	-2.9944238926	 0.1499007351	-0.470684
C	 0.5814093866	-0.6203324516	 1.1302383955	-0.058349
H	 0.7994884963	 2.0429670376	 0.2344107717	 0.138721
H	-0.3488789359	 1.9628956041	-1.1152571818	 0.11231
H	-0.9447293983	 1.9572070968	 0.5475451631	 0.113302
H	-0.9932124572	-0.3892863202	-0.4094219942	 0.080117
H	 1.6740061813	-0.5771290744	-1.5958845061	 0.07293
H	 3.2358856094	-1.949207199	 0.0552820547	 0.063347
H	 2.1385620959	-1.9132400972	 2.9407285261	 0.120765
H	 3.0776500805	-3.2204738519	 2.2086736427	 0.119046
H	 3.8255146175	-1.6369081449	 2.4741747708	 0.126681
H	 0.6255234243	-3.538470502	-0.5436059885	 0.282406
H	 0.3153186003	-0.5612880652	 2.1861606265	 0.08211
162.5829	182.4654	196.7473	208.0357	222.8809	258.0767	295.0139	352.9772	406.7681	523.832	579.7085	647.8201	733.8382	755.6383	822.6147	851.3768	868.2585	888.0494	938.4539	962.0865	1022.1333	1039.7774	1061.1366	1082.1053	1094.9848	1104.8609	1127.9907	1144.0481	1186.187	1198.4287	1226.595	1230.8736	1273.0927	1297.3462	1357.2232	1393.3559	1406.5742	1409.2036	1425.655	1491.1924	1493.7877	1495.6046	1502.8763	3014.015	3032.546	3037.4627	3060.7589	3085.0631	3090.7761	3103.2032	3107.4319	3115.6679	3124.2074	3800.9672
CC1C2N3C(C)C2(O)C13	C[C@H]1[C@H]2N3[C@@H](C)[C@@]2(O)[C@H]13	
InChI=1S/C7H11NO/c1-3-5-7(9)4(2)8(5)6(3)7/h3-6,9H,1-2H3	InChI=1S/C7H11NO/c1-3-5-7(9)4(2)8(5)6(3)7/h3-6,9H,1-2H3/t3-,4-,5+,6-,7-/m0/s1
