21
gdb 58758	2.42271	1.54673	1.14299	2.0381	78.51	-0.2426	0.075	0.3177	1151.706	0.180834	-424.164984	-424.155809	-424.154865	-424.198561	35.637	
C	 0.5590237824	 0.2922951494	-0.8103334405	-0.405267
C	-0.0540231386	 0.0051866615	 0.5618081492	-0.009284
O	-0.2268299553	 1.2009059015	 1.3137148805	-0.43185
C	-1.3820535851	-0.7078808865	 0.4801247581	 0.40411
C	-2.3475795251	-1.0446190523	 1.6449935294	-0.261346
C	-3.0992623172	-1.1959134776	 0.3094058132	 0.036096
O	-2.4916290524	 0.0784367986	-0.1508089082	-0.36472
C	-1.8935489214	-1.9764219017	-0.2836088748	-0.022561
C	-1.7610941993	-2.0823044075	-1.7906401466	-0.431809
H	 1.4660934057	 0.8885251089	-0.6841058686	 0.123092
H	 0.8180570697	-0.6326981497	-1.3344130329	 0.115374
H	-0.1445019279	 0.8531559771	-1.4332855593	 0.128852
H	 0.6316071492	-0.6181292894	 1.1496222111	 0.091958
H	-1.0032858003	 1.6415661019	 0.945506986	 0.289852
H	-2.1481836981	-1.944747894	 2.2317313908	 0.094111
H	-2.6434097868	-0.1914214915	 2.2540900046	 0.110127
H	-4.1651080346	-1.3288081582	 0.1212778656	 0.093671
H	-1.6731488958	-2.9225331153	 0.2219037575	 0.07087
H	-1.9826011518	-1.1241973285	-2.2646195065	 0.137108
H	-0.7529336416	-2.3936446926	-2.0826939325	 0.117359
H	-2.458346476	-2.8319758442	-2.1808566359	 0.114257
61.5391	159.4098	189.9428	230.4207	267.2648	270.5841	293.8412	343.7015	384.0493	452.439	489.7743	530.2054	644.0069	679.3944	739.9455	797.4697	814.8732	879.2878	916.5645	944.8885	963.4131	1011.9236	1032.1849	1055.387	1066.3822	1099.2505	1113.486	1126.9953	1148.6798	1164.9209	1207.8895	1225.7183	1239.7251	1270.9725	1309.134	1367.4215	1392.6412	1399.9312	1413.5187	1429.6664	1483.958	1492.6133	1496.7225	1502.9708	1508.1315	3036.6108	3037.1505	3042.3788	3053.3804	3070.7603	3093.6648	3114.1982	3116.2152	3126.2693	3137.0247	3159.1523	3776.9612
CC(O)C12CC(O1)C2C	C[C@@H](O)[C@@]12C[C@@H](O1)[C@H]2C	
InChI=1S/C7H12O2/c1-4-6-3-7(4,9-6)5(2)8/h4-6,8H,3H2,1-2H3	InChI=1S/C7H12O2/c1-4-6-3-7(4,9-6)5(2)8/h4-6,8H,3H2,1-2H3/t4-,5-,6-,7+/m1/s1
