19
gdb 79456	3.15892	1.51455	1.27551	2.335	73.68	-0.2438	0.0643	0.3081	1022.4646	0.161022	-422.978305	-422.970871	-422.969927	-423.009698	30.617	
O	 0.1914975755	 1.3820853669	 0.1075743075	-0.455265
C	 0.1165670976	-0.0233208741	 0.0164378306	 0.166919
C	-1.3168404563	-0.5790949118	-0.0670545734	-0.074591
C	-1.303388479	-0.3700144539	-1.6244831946	-0.065994
C	-2.0591953118	-1.6974999914	-1.7870566824	-0.259168
C	-1.2749094638	-2.1045973823	-0.5136933206	-0.083593
C	 0.1864666866	-2.1532029464	-1.0320314779	 0.181848
O	 0.4621266096	-3.0883411352	-2.0513181414	-0.456485
C	 0.2513298206	-0.6521587223	-1.4013619768	-0.145928
H	-0.4558871736	 1.7635620588	-0.4952425052	 0.280159
H	 0.794169096	-0.3994003196	 0.7886768935	 0.081662
H	-2.1283847976	-0.2513641978	 0.5833852992	 0.072987
H	-1.5994651848	 0.5481689853	-2.1313535434	 0.066859
H	-3.1245311964	-1.5600320323	-1.5811614324	 0.10539
H	-1.9589628414	-2.3007953292	-2.6965544634	 0.078864
H	-1.6116297435	-2.9131689395	 0.1339554788	 0.069255
H	 0.8939385098	-2.4003676866	-0.2355702623	 0.086465
H	-0.0565497877	-2.8615211465	-2.8287615804	 0.281125
H	 1.0236867703	-0.3324099821	-2.1003926454	 0.069491
183.1561	218.7526	248.604	261.7108	313.9583	366.8017	450.9693	482.3526	543.5536	681.4096	739.0155	819.6894	823.5703	845.2474	855.816	883.059	930.6986	961.0844	967.1642	994.5193	1004.8275	1039.0751	1062.6179	1076.1462	1090.6356	1134.6136	1142.8393	1169.5939	1183.0704	1197.5298	1234.926	1244.5391	1257.0067	1281.2725	1284.5592	1293.1675	1308.9444	1325.0069	1435.4691	1456.1753	1515.4646	3032.7266	3061.7807	3075.4445	3091.4747	3107.016	3114.2268	3124.1505	3128.1572	3806.8005	3830.0443
OC1C2C3CC2C(O)C13	O[C@H]1[C@H]2[C@@H]3C[C@H]2[C@@H](O)[C@H]13	
InChI=1S/C7H10O2/c8-6-3-1-2-4(3)7(9)5(2)6/h2-9H,1H2	InChI=1S/C7H10O2/c8-6-3-1-2-4(3)7(9)5(2)6/h2-9H,1H2/t2-,3+,4-,5+,6+,7-/m0/s1
