14
gdb 55618	2.28157	1.1434	0.89715	3.6693	69.91	-0.293	-0.0229	0.2701	1304.4299	0.096947	-436.684391	-436.674764	-436.67382	-436.720878	32.444	
C	-0.0297142748	 1.4461298935	-0.1238953976	-0.485163
C	-0.2062348808	-0.0404612681	 0.0237401013	 0.454272
O	-0.7114498661	-0.61309261	 0.950420158	-0.333416
O	 0.3023274485	-0.6795546049	-1.0757008787	-0.240481
C	 0.201010227	-2.1167713565	-1.0689276011	-0.197396
C	-0.5992069707	-2.5728356944	-2.1993570453	 0.331716
C	-1.2723017645	-2.9604891068	-3.1132913527	-0.416142
C	 1.564865711	-2.6736706309	-1.1038111524	 0.301088
N	 2.6284094161	-3.1221056837	-1.112336157	-0.313308
H	 1.0329223562	 1.6842091612	-0.2235144572	 0.165398
H	-0.5276143145	 1.791262721	-1.0340607979	 0.162521
H	-0.446972393	 1.9478383578	 0.7478151323	 0.15838
H	-0.2718129187	-2.4120833903	-0.123394239	 0.192101
H	-1.8644425957	-3.3047367379	-3.9259451726	 0.220431
23.9732	58.0188	90.9534	123.1748	148.0077	258.53	288.479	352.7322	375.9268	505.9788	577.5289	585.1811	604.2255	633.0904	651.0447	697.1932	894.6237	930.0394	1010.1972	1030.3537	1048.4829	1065.8434	1229.5673	1321.8601	1341.6138	1397.3002	1466.8956	1473.0109	1840.9901	2253.729	2371.718	3040.4267	3061.2862	3127.8182	3175.495	3499.5927
CC(=O)OC(C#C)C#N	CC(=O)O[C@@H](C#C)C#N	
InChI=1S/C6H5NO2/c1-3-6(4-7)9-5(2)8/h1,6H,2H3	InChI=1S/C6H5NO2/c1-3-6(4-7)9-5(2)8/h1,6H,2H3/t6-/m0/s1
