15
gdb 47969	2.89876	0.86638	0.70332	4.2732	80.97	-0.2661	-0.0633	0.2028	1536.4917	0.109664	-420.600484	-420.591326	-420.590382	-420.63574	31.331	
O	-0.7801153743	 0.97842895	-0.5635855247	-0.234782
C	 0.1945287411	 0.8544175671	 0.1440221821	 0.011858
C	 1.3487294367	 1.7104831425	 0.0967225358	 0.095293
C	 2.3327364703	 2.4123077387	 0.0812680043	 0.022568
C	 3.484632519	 3.2544882887	 0.044968409	 0.018809
C	 3.9110164284	 3.8573370816	-1.3111437892	-0.285437
C	 3.2928721445	 4.7462088923	-0.3047556671	-0.285433
C	 4.60274286	 2.9581189613	 0.9935680521	 0.12339
O	 4.6175449641	 2.0629079999	 1.7934849543	-0.245224
H	 0.2646363342	 0.0466444866	 0.9000808283	 0.105764
H	 4.9795305098	 3.9271615174	-1.4852614228	 0.141421
H	 3.3251273192	 3.5389912505	-2.1638779827	 0.158349
H	 2.2662230233	 5.0616325968	-0.4399022624	 0.158352
H	 3.9236344069	 5.4454753701	 0.2338320447	 0.141423
H	 5.4561795567	 3.6687607365	 0.8900385784	 0.073649
59.0915	66.7577	124.2027	129.5249	170.3012	262.6383	278.1389	349.4335	420.0752	492.9863	570.53	621.1105	750.6033	785.8887	786.7435	909.4148	955.6826	962.3636	1021.054	1042.9365	1066.944	1087.8028	1098.6896	1201.9259	1262.2543	1362.0216	1420.8568	1436.6515	1464.4684	1492.2753	1761.4003	1834.9911	2322.0991	2859.4196	2925.8691	3145.5652	3147.1149	3236.7491	3250.2272
O=CC#CC1(CC1)C=O	O=CC#CC1(CC1)C=O	
InChI=1S/C7H6O2/c8-5-1-2-7(6-9)3-4-7/h5-6H,3-4H2	InChI=1S/C7H6O2/c8-5-1-2-7(6-9)3-4-7/h5-6H,3-4H2
