17
gdb 49919	4.44237	0.83672	0.76082	1.038	76.74	-0.2553	-0.0422	0.2131	1441.1919	0.134599	-421.852286	-421.843652	-421.842708	-421.88731	30.463	
O	-0.1675288981	 0.0143295238	 0.0713079659	-0.241607
C	 0.0047473735	 1.1965306917	-0.0590155274	 0.15534
C	 1.3504395684	 1.8990896718	 0.0277048899	-0.100941
C	 1.5885783651	 2.8502398048	-1.1800090145	-0.288723
C	 2.1576145523	 4.1780015813	-0.6028875159	-0.10095
C	 1.4927180463	 5.3977379789	-1.2211072859	 0.155337
O	 2.0743787445	 6.3448201374	-1.6782342013	-0.241614
C	 1.8472644467	 4.0570738927	 0.8753216975	-0.090999
C	 1.4171768763	 2.8428195994	 1.2112953605	-0.091034
H	-0.8482370244	 1.8905854464	-0.2516984191	 0.07539
H	 2.1135602104	 1.1162112309	 0.1077926867	 0.106697
H	 2.2442931646	 2.4097732427	-1.9323768363	 0.13016
H	 0.628410072	 3.0538206549	-1.6733697127	 0.111881
H	 3.2358800693	 4.2849429469	-0.768948135	 0.106709
H	 0.3773452655	 5.350442219	-1.2099209327	 0.075395
H	 2.0153077742	 4.8751379883	 1.5668580894	 0.119489
H	 1.1808080834	 2.5191121191	 2.218786381	 0.119472
39.995	55.9881	77.8855	185.7137	304.1814	333.5414	337.8966	378.0201	485.0867	509.4149	672.4957	778.9561	796.1841	853.3702	914.9723	921.014	970.1893	982.8489	992.3962	1042.1882	1077.8073	1088.0495	1129.2218	1145.6393	1197.5981	1250.6368	1270.1393	1289.007	1297.7909	1332.4398	1374.2086	1418.0378	1419.4054	1484.1639	1675.3349	1834.8097	1839.4377	2846.662	2850.3986	3016.5647	3045.5061	3046.0479	3119.3082	3188.6444	3212.9494
O=CC1CC(C=O)C=C1	O=C[C@H]1C[C@@H](C=O)C=C1	
InChI=1S/C7H8O2/c8-4-6-1-2-7(3-6)5-9/h1-2,4-7H,3H2	InChI=1S/C7H8O2/c8-4-6-1-2-7(3-6)5-9/h1-2,4-7H,3H2/t6-,7+
