16
gdb 54434	3.57375	1.17265	1.00264	2.5047	71.04	-0.2523	-0.0498	0.2026	1171.8579	0.122409	-437.880533	-437.872042	-437.871098	-437.914381	30.78	
C	 0.9756973845	 0.4029880682	 0.6320562713	-0.48399
C	-0.3262791171	 0.3273847331	-0.1342455188	 0.304735
O	-1.3695696722	 0.7774865339	 0.2855223001	-0.300672
C	-0.3000846486	-0.3387843019	-1.4719631112	 0.229815
C	-1.4880081318	-0.4230620293	-2.4432257578	-0.428903
C	-1.0832219208	-1.902844378	-2.6824158905	 0.419005
O	-1.6066328904	-2.8226194128	-3.2380102667	-0.295283
C	 0.1207025295	-1.7930834318	-1.7658840409	-0.206877
N	 0.9461712989	-0.6454977561	-2.1442257858	-0.347554
H	 1.4490084361	-0.5807586314	 0.7078429296	 0.144261
H	 1.6828311091	 1.0437878831	 0.0955608893	 0.15532
H	 0.7840495247	 0.8082322748	 1.6258450608	 0.143381
H	-2.4629827005	-0.3695820767	-1.9529767042	 0.164461
H	-1.467535894	 0.2714091956	-3.2878525896	 0.126554
H	 0.5515890461	-2.5492921556	-1.1198324854	 0.12633
H	 0.9101716463	-0.4361337251	-3.1403023803	 0.249416
62.3098	90.7126	109.0275	180.4701	253.9434	339.8249	430.57	455.0139	500.8822	571.4472	591.3628	621.1697	669.7396	763.8379	845.5279	921.6426	951.2646	980.2714	999.3251	1043.8868	1070.7786	1081.3832	1087.9056	1135.9458	1173.8458	1203.8544	1251.8316	1292.016	1383.7899	1423.9924	1455.1858	1459.4262	1469.2464	1794.2922	1891.196	3049.3363	3065.4401	3110.916	3128.1273	3159.8489	3190.5108	3470.107
CC(=O)C12CC(=O)C1N2	CC(=O)[C@]12CC(=O)[C@H]1N2	
InChI=1S/C6H7NO2/c1-3(8)6-2-4(9)5(6)7-6/h5,7H,2H2,1H3	InChI=1S/C6H7NO2/c1-3(8)6-2-4(9)5(6)7-6/h5,7H,2H2,1H3/t5-,6-/m1/s1
