25
gdb 100875	2.21755	1.00959	0.73895	0.6398	95.62	-0.2577	0.0561	0.3138	1651.1067	0.225766	-352.337043	-352.325337	-352.324393	-352.374195	42.811	
C	 0.005186323	 1.6295487043	 0.0769385967	-0.397126
C	-0.0409776345	 0.1014662069	-0.0469904687	-0.179018
C	 0.7172836731	-0.4652460906	-1.2638088231	 0.038246
C	 2.1905726419	-0.0309462744	-1.2594398242	-0.406428
C	 0.6114813015	-2.0231740652	-1.345652734	-0.153947
C	-0.8412630097	-2.561867705	-1.3138910942	-0.186944
C	-0.9338184574	-4.089076501	-1.370170741	-0.391042
C	 1.2983484027	-2.5185135518	-2.5408578529	 0.33242
C	 1.8305121291	-2.9169110221	-3.5437629164	-0.467925
H	 1.0134857637	 1.9996092929	 0.2815680501	 0.120615
H	-0.3464925405	 2.1110803301	-0.8427488589	 0.114386
H	-0.6399063382	 1.9676513727	 0.8939828511	 0.111461
H	 0.3639693423	-0.351359173	 0.8695959897	 0.090709
H	-1.0917254511	-0.1993812156	-0.0981868144	 0.100416
H	 0.2455579478	-0.0666631678	-2.1734166824	 0.077654
H	 2.7329035291	-0.4740372574	-2.0974954918	 0.130697
H	 2.2872392596	 1.0548779569	-1.3352426386	 0.113698
H	 2.6861294321	-0.3460242882	-0.3324469643	 0.10707
H	 1.1336496795	-2.4305909193	-0.4655068575	 0.096063
H	-1.3232655292	-2.2137804066	-0.3963103049	 0.101867
H	-1.3968978658	-2.1227177141	-2.1517256252	 0.101781
H	-1.9775492261	-4.4150238693	-1.3254205594	 0.109659
H	-0.4927347293	-4.4806456882	-2.2904271738	 0.133032
H	-0.4062231701	-4.5471865387	-0.5257361821	 0.11161
H	 2.3140860463	-3.2738463156	-4.4191078999	 0.191048
44.3971	72.3069	98.0615	148.9676	177.1407	190.315	204.5561	241.3395	264.7054	293.3872	335.4797	373.9607	418.9965	435.4402	536.1771	571.2968	621.7209	629.0179	765.922	779.2777	840.0809	854.0408	940.2164	957.5477	974.3774	997.4347	1040.0168	1042.8807	1081.369	1117.053	1143.5301	1173.7214	1177.9423	1257.8747	1281.2786	1302.1309	1338.5742	1351.4434	1362.0701	1368.4336	1386.884	1407.2314	1410.8463	1412.5068	1483.5778	1487.6423	1494.3769	1497.3645	1499.8827	1505.4019	1508.4659	1515.0904	2225.0826	2980.3496	3001.1058	3013.6292	3031.0858	3033.5754	3033.8215	3035.9269	3071.3909	3089.2123	3097.032	3099.9374	3103.1513	3114.9607	3123.0864	3128.8468	3503.7275
CCC(C)C(CC)C#C	CC[C@@H](C)[C@@H](CC)C#C	
InChI=1S/C9H16/c1-5-8(4)9(6-2)7-3/h2,8-9H,5,7H2,1,3-4H3	InChI=1S/C9H16/c1-5-8(4)9(6-2)7-3/h2,8-9H,5,7H2,1,3-4H3/t8-,9-/m1/s1
