22
gdb 82514	3.15473	1.3714	1.26694	1.4442	85.24	-0.2155	0.0835	0.2991	1130.9621	0.195367	-367.173621	-367.165267	-367.164323	-367.205869	33.941	
C	-0.062375568	 1.6084076881	 0.0414047445	-0.431234
C	 0.0214728256	 0.0954963612	-0.0150426173	 0.027053
C	 0.4882061412	-0.7097926085	-1.1812461224	-0.046055
C	 1.417961338	-0.1173663537	-2.2458854334	-0.331522
C	 2.8083260572	-0.0129620851	-1.5827830191	 0.362532
C	 4.0031989788	-0.5096591249	-2.3630519459	-0.480344
C	 2.9855528237	 1.0712525463	-0.5454601331	-0.350569
C	 2.5738371121	-0.3270563915	-0.1211588834	-0.038908
N	 1.2102619857	-0.7788529677	 0.1067524022	-0.124491
H	 0.3693726018	 2.1101372306	-0.8267435146	 0.126605
H	-1.1202199385	 1.8884577266	 0.0799053976	 0.117962
H	 0.4134851127	 2.0092807235	 0.9422039817	 0.132105
H	-0.7975297342	-0.3578367697	 0.5439755842	 0.089568
H	-0.0770343757	-1.5951441714	-1.468273061	 0.082988
H	 1.4684990349	-0.7965060648	-3.1023179253	 0.104785
H	 1.0659847613	 0.845970629	-2.633294208	 0.105514
H	 4.192918072	 0.1137589935	-3.2452777372	 0.115936
H	 4.9092692652	-0.4905112012	-1.7490127431	 0.115078
H	 3.8548522579	-1.5393255205	-2.7096064659	 0.115263
H	 4.0106516192	 1.3397895812	-0.304198613	 0.104562
H	 2.3032843776	 1.9042946908	-0.4927174165	 0.111706
H	 3.2992701617	-0.8979013118	 0.4500288789	 0.091465
132.7914	168.9602	211.1547	240.2875	294.5281	312.0463	370.815	400.6287	473.4567	568.5505	613.223	651.0547	710.3037	744.7009	781.5665	832.5656	846.4868	898.4269	937.8791	952.6536	962.9523	1001.2098	1027.5225	1046.1031	1064.3267	1079.061	1107.7711	1125.8115	1138.6417	1156.1294	1169.2428	1193.0028	1257.9825	1292.477	1312.7202	1326.6665	1383.8332	1388.5244	1417.2876	1420.1746	1432.9707	1477.6068	1487.6479	1494.1816	1500.5104	1507.2557	1517.418	3018.2837	3037.1747	3039.961	3076.0886	3079.4846	3086.2282	3096.5739	3098.8458	3111.3762	3125.9035	3135.1626	3153.6826	3266.2721
CC1C2CC3(C)CC3N12	C[C@H]1[C@H]2C[C@@]3(C)C[C@H]3N12	
InChI=1S/C8H13N/c1-5-6-3-8(2)4-7(8)9(5)6/h5-7H,3-4H2,1-2H3	InChI=1S/C8H13N/c1-5-6-3-8(2)4-7(8)9(5)6/h5-7H,3-4H2,1-2H3/t5-,6+,7+,8-,9?/m0/s1
