17
gdb 45160	3.03096	1.85745	1.61254	3.5079	72.98	-0.237	0.0175	0.2545	883.5896	0.140404	-418.01719	-418.010988	-418.010044	-418.047584	26.038	
N	-0.071013209	 1.2666303883	-0.310882735	-0.549913
C	-0.013218127	 0.0399261043	 0.0007486759	 0.411497
O	 1.1646479314	-0.6254437661	 0.1971646633	-0.264683
C	 1.0084651761	-2.0210531796	 0.516508098	 0.067735
C	 0.1521140009	-2.154004404	 1.7844212106	-0.252102
C	-1.224621471	-1.8616362329	 1.2120212969	-0.047293
C	-1.2443559636	-0.7738730145	 0.1838818638	-0.090606
N	-1.2499625986	-2.2030053975	-0.2239399501	-0.125157
C	 0.1137150626	-2.6625866946	-0.5525471101	-0.176586
H	 0.8703655369	 1.6583952448	-0.3787111805	 0.219022
H	 2.0162946368	-2.4272812389	 0.5932688333	 0.096714
H	 0.2023613866	-3.171543403	 2.1859705906	 0.116318
H	 0.4652187023	-1.4546902867	 2.5637017672	 0.126208
H	-2.1196013495	-2.0750995414	 1.7862680293	 0.104545
H	-2.1607565535	-0.2359981823	-0.0253406735	 0.119925
H	 0.395153413	-2.3592617189	-1.5640992727	 0.127677
H	 0.1360880557	-3.7552491569	-0.4894949069	 0.116702
132.2689	357.6779	369.1332	419.2499	452.3165	496.0147	602.2939	641.8756	752.4231	781.6354	790.6046	853.6924	869.536	890.5923	893.2312	917.1559	942.3621	985.6915	1003.7955	1047.0223	1070.2804	1096.811	1103.9746	1142.9096	1182.739	1231.6876	1239.7451	1255.79	1294.2905	1315.3912	1321.9855	1352.2992	1392.3214	1411.7539	1476.9933	1492.8767	1749.7176	3053.1121	3058.2301	3109.9858	3113.1152	3127.4393	3172.2145	3196.9721	3469.1101
N=C1OC2CC3C1N3C2	[NH][C]1O[C@H]2C[C@H]3[C@@H]1N3C2	
InChI=1S/C6H8N2O/c7-6-5-4-1-3(9-6)2-8(4)5/h3-5,7H,1-2H2	InChI=1S/C6H8N2O/c7-6-5-4-1-3(9-6)2-8(4)5/h3-5,7H,1-2H2/t3-,4-,5-,8?/m0/s1
