16
gdb 30001	3.24732	1.75274	1.1468	1.6165	77.37	-0.1887	0.0321	0.2208	1019.1849	0.126601	-400.781259	-400.773844	-400.7729	-400.813482	28.099	
C	 0.0036672844	 1.4412586829	 0.0813480743	-0.346255
N	-0.050135522	-0.0028142921	 0.0261331537	-0.150379
C	-0.060126206	-0.8016164097	-1.1213615318	-0.087139
C	-0.0127005331	-2.1344556796	-0.7789084974	-0.357207
C	 0.0381527103	-2.1848669328	 0.6511081204	 0.242819
C	 0.0205774798	-0.8726287789	 1.0658536801	 0.409956
O	 0.0549646799	-0.7071363236	 2.3999038437	-0.229587
C	 0.0957965622	-2.0126544893	 2.8853650975	-0.0263
C	 0.0864321606	-2.932262611	 1.8829576724	-0.344397
H	 1.0298464332	 1.808543264	 0.2009855916	 0.140479
H	-0.4104670707	 1.8502665197	-0.8423353193	 0.14225
H	-0.5952705875	 1.8037864103	 0.9210167658	 0.149634
H	-0.1036393532	-0.3292117151	-2.0899946271	 0.116921
H	-0.0256428333	-2.9563946451	-1.4775254457	 0.099055
H	 0.1308139023	-2.0879513644	 3.9587519984	 0.129766
H	 0.1128130431	-4.0019735251	 2.0235073832	 0.110383
66.6621	131.719	204.116	245.2922	340.1868	522.0362	570.8609	587.4913	617.3684	658.5421	691.022	693.8962	750.1497	787.2113	803.6325	816.5772	907.1789	1017.9692	1028.1002	1087.5442	1115.2062	1148.7551	1151.6988	1230.7742	1263.5256	1311.9995	1355.4667	1451.132	1464.4736	1485.9871	1506.4609	1513.9267	1531.4826	1581.6308	1614.3639	3028.8998	3097.1126	3135.5098	3246.8077	3249.6488	3266.4135	3292.4675
CN1C=CC2=C1OC=C2	Cn1ccc2c1occ2	
InChI=1S/C7H7NO/c1-8-4-2-6-3-5-9-7(6)8/h2-5H,1H3	InChI=1S/C7H7NO/c1-8-4-2-6-3-5-9-7(6)8/h2-5H,1H3
