20
gdb 67641	3.20794	1.77356	1.57347	1.7808	81.28	-0.2149	0.0872	0.3021	947.7398	0.173638	-365.968497	-365.961594	-365.960649	-365.999273	29.157	
C	-0.1676686968	 1.5105873378	 0.0627204426	-0.513659
C	 0.1038359816	 0.0403448666	-0.0104910712	 0.359657
C	 0.2074302424	-0.8083147949	-1.2092429247	-0.072608
C	 1.4065126656	-1.732279554	-1.1343357051	-0.233402
C	 1.49760308	-2.0499811833	 0.3636196525	-0.053238
C	 0.3326580056	-3.0099340559	 0.7383049065	-0.235123
C	-0.5316925547	-1.7613936121	 0.9510936476	 0.043427
C	 0.717245363	-0.8626395031	 1.0815509396	-0.127452
N	-0.9685504143	-1.0027123671	-0.2941274624	-0.220167
H	 0.7633931227	 2.0858198812	-0.0071877434	 0.118206
H	-0.8221685361	 1.8193314587	-0.757819314	 0.129756
H	-0.6578820365	 1.7809096545	 1.00462554	 0.121614
H	-0.1104532491	-0.4227244112	-2.1737253458	 0.088781
H	 1.2983286145	-2.6422244084	-1.7348408428	 0.101569
H	 2.2907122334	-1.1965707729	-1.5030167794	 0.097218
H	 2.4993484483	-2.3053407785	 0.7105065443	 0.065656
H	 0.0213199339	-3.7431086623	-0.0125559628	 0.095467
H	 0.5025696185	-3.5204379968	 1.6915990759	 0.097625
H	-1.3557481332	-1.7703455183	 1.666128299	 0.072307
H	 1.0960595012	-0.45997144	 2.0186706434	 0.064365
186.6161	208.5935	249.4359	313.1294	410.1213	501.5463	542.2347	636.3192	651.6914	674.2882	765.0247	831.6253	835.3921	848.0907	880.9008	900.2622	931.5939	948.1506	956.6287	972.8715	1030.8305	1051.4925	1060.8175	1090.2271	1101.3418	1133.0409	1143.1787	1181.1562	1187.0518	1221.2863	1232.4882	1259.1734	1278.6876	1289.5393	1317.0877	1322.7781	1338.0249	1407.7484	1455.6806	1477.7711	1483.2229	1493.3121	1498.2583	3022.2018	3024.3408	3039.9196	3067.3259	3083.661	3090.2764	3093.9172	3101.5169	3108.0676	3134.3185	3154.2048
CC12C3CC4CC(C14)N23	C[C@@]12[C@H]3C[C@@H]4C[C@@H]([C@H]14)N23	
InChI=1S/C8H11N/c1-8-6-3-4-2-5(7(4)8)9(6)8/h4-7H,2-3H2,1H3	InChI=1S/C8H11N/c1-8-6-3-4-2-5(7(4)8)9(6)8/h4-7H,2-3H2,1H3/t4-,5-,6+,7+,8+,9?/m0/s1
