17
gdb 15921	3.3571	1.8887	1.52291	4.254	72.34	-0.2831	0.021	0.3041	880.8067	0.143793	-326.721559	-326.714341	-326.713397	-326.75407	27.133	
N	-0.0351308245	-1.1556431601	-0.3260749214	-0.351256
C	-0.0262313527	-0.0111332952	-0.1526535846	 0.188382
C	-0.0017117617	 1.4149266998	 0.0626197396	 0.220562
C	-0.5139544847	 2.3233322531	-1.0993702105	-0.280638
C	 0.8037297096	 3.1513086764	-1.0473297964	-0.219383
C	 1.335775454	 2.2710748435	 0.1115101951	-0.063177
C	 0.960382567	 2.759181072	 1.5333544451	-0.219388
C	-0.3564819488	 1.9292261602	 1.4935049839	-0.280637
H	-0.6523989247	 1.7805126237	-2.0356116899	 0.128089
H	-1.4384447897	 2.8588932617	-0.8699404915	 0.110517
H	 1.3941787051	 3.0698881601	-1.9622164759	 0.115137
H	 0.6943486175	 4.2118050696	-0.8052470749	 0.105182
H	 2.3172494298	 1.8161635447	-0.0171830291	 0.087686
H	 1.6533738361	 2.4213758108	 2.3066114867	 0.115137
H	 0.84208971	 3.8416598769	 1.6306554358	 0.105183
H	-1.2919070445	 2.4918757381	 1.544015361	 0.110516
H	-0.3927945778	 1.1311665946	 2.236573987	 0.128088
23.8166	158.1003	178.9191	317.144	350.0248	518.2094	554.7683	564.5873	628.2991	743.5589	754.2946	835.3449	867.0835	898.9144	925.3153	941.9873	966.6304	1027.2794	1040.3165	1056.76	1137.7019	1151.9258	1179.5039	1228.1341	1235.2331	1249.1498	1261.3277	1268.0665	1285.1501	1314.7459	1316.4719	1472.2217	1483.2382	1485.7297	1501.4422	2340.9849	3060.5189	3061.615	3068.1177	3070.1028	3105.2255	3107.4621	3119.7764	3128.9726	3133.5811
N#CC12CCC1CC2	N#C[C@]12CC[C@H]1CC2	
InChI=1S/C7H9N/c8-5-7-3-1-6(7)2-4-7/h6H,1-4H2	InChI=1S/C7H9N/c8-5-7-3-1-6(7)2-4-7/h6H,1-4H2/t6-,7+
