19
gdb 8499	3.92874	2.06013	1.6544	1.5892	76.24	-0.2226	0.0975	0.3202	859.8469	0.164943	-327.845992	-327.838522	-327.837578	-327.876951	29.782	
C	-0.0550591801	 1.4256644025	-0.0072084984	-0.517641
C	 0.0804950445	-0.0678875878	-0.0280076914	 0.375161
C	 0.5811569132	-0.9713588145	-1.1601583844	-0.345062
C	 0.079339144	-1.9264417734	-0.0717248315	 0.375149
C	-0.0580763634	-3.4191495526	-0.1211888671	-0.517641
C	 0.5949095042	-1.0244966296	 1.0985695788	-0.139449
C	-0.8013614441	-1.0377866485	 1.7046756859	-0.203719
N	-1.1485474809	-1.0027382246	 0.2194925311	-0.215209
H	 0.9241725822	 1.902058988	-0.1255483195	 0.12169
H	-0.6989887062	 1.7614698019	-0.8264805388	 0.130807
H	-0.4908660816	 1.7778477291	 0.9333160219	 0.12354
H	-0.0012590092	-0.9491893154	-2.0870722675	 0.098669
H	 1.6571355405	-0.9673577486	-1.3585522712	 0.090054
H	 0.9205559865	-3.8906695053	-0.2618935682	 0.121689
H	-0.4942969475	-3.814649012	 0.8017619838	 0.123541
H	-0.7024479466	-3.7152359505	-0.9552958203	 0.130807
H	 1.5841877595	-1.0362424279	 1.5716113844	 0.055836
H	-1.1411276786	-1.9457064682	 2.2131419988	 0.095883
H	-1.1399587763	-0.1542575125	 2.2551607338	 0.095894
201.5495	204.1867	207.1497	239.7656	299.3156	364.3449	421.2313	485.642	583.9557	653.2801	669.9247	763.3086	825.3073	842.8899	867.0362	903.2703	945.433	1008.7689	1008.8245	1012.9962	1075.3237	1093.9399	1105.0604	1145.085	1153.4401	1160.6448	1180.7611	1221.0098	1272.4026	1275.0266	1284.817	1361.45	1408.1956	1413.1887	1483.888	1484.6699	1485.9544	1486.4078	1496.6592	1521.0613	3025.4752	3031.4777	3031.9868	3039.6184	3047.1781	3092.9412	3100.214	3100.7611	3103.9106	3105.1924	3105.7316
CC12CC3(C)C1CN23	C[C@@]12C[C@@]3(C)[C@@H]1CN23	
InChI=1S/C7H11N/c1-6-4-7(2)5(6)3-8(6)7/h5H,3-4H2,1-2H3	InChI=1S/C7H11N/c1-6-4-7(2)5(6)3-8(6)7/h5H,3-4H2,1-2H3/t5-,6-,7+
