21
gdb 72128	2.14025	1.93015	1.74232	1.1292	81.56	-0.2476	0.0791	0.3267	970.2878	0.183778	-387.066538	-387.058679	-387.057735	-387.098085	32.674	
C	 0.0030403411	 1.5436008739	-0.0518214487	-0.510275
C	-0.0131622544	 0.0365181665	-0.0601210862	 0.327338
C	 0.3965468877	-0.8181351671	-1.2729224991	-0.292537
C	-0.3311917911	-1.9576033489	-0.5137217898	-0.114225
C	 0.6042967274	-2.1681412388	 0.6927071651	-0.210056
C	 0.3712985671	-0.7570286799	 1.2760987824	-0.084568
C	-1.1423328556	-0.8207752721	 1.6305789198	-0.315677
C	-1.297139312	-0.8417369877	 0.1039464785	 0.401054
O	-2.4621374381	-0.5107215535	-0.5795598596	-0.492129
H	 1.0303560266	 1.9234002371	-0.1047676693	 0.113499
H	-0.5468429705	 1.9454580503	-0.9092941244	 0.124444
H	-0.4517052962	 1.9532035926	 0.8566395111	 0.115801
H	-0.1485414146	-0.4946468468	-2.1637401297	 0.102581
H	 1.4561156426	-0.9580201842	-1.5128685853	 0.081028
H	-0.7298942706	-2.8314928852	-1.0310167081	 0.052235
H	 0.2867622194	-2.9581816109	 1.3800024273	 0.088095
H	 1.6364801763	-2.3672433655	 0.3888911577	 0.090986
H	 1.097549214	-0.3526252469	 1.9798270286	 0.061322
H	-1.4903744047	-1.6645431569	 2.2363041617	 0.08036
H	-1.5270191344	 0.1161501752	 2.0417552301	 0.101324
H	-3.0418509001	-1.2799767614	-0.589134782	 0.279399
180.4038	199.3522	237.2648	266.4548	284.7042	355.3922	446.987	475.4028	490.312	579.7365	623.0638	684.0031	695.8487	795.3618	856.8487	867.0182	906.9168	911.3885	937.7243	943.1034	984.5372	997.6754	1035.0606	1054.3038	1070.4966	1101.4241	1131.3018	1159.5937	1175.4633	1183.4987	1211.3505	1221.8056	1235.7817	1247.3255	1256.7215	1302.0506	1310.0845	1322.9494	1381.6458	1413.1117	1486.4655	1488.3086	1491.7158	1498.4453	1518.885	3023.6793	3039.016	3039.3026	3046.8179	3084.3458	3089.1225	3096.0795	3100.4074	3105.4166	3106.2852	3122.1986	3799.2884
CC12CC3CC1CC23O	C[C@@]12C[C@H]3C[C@@H]1C[C@@]23O	
InChI=1S/C8H12O/c1-7-3-6-2-5(7)4-8(6,7)9/h5-6,9H,2-4H2,1H3	InChI=1S/C8H12O/c1-7-3-6-2-5(7)4-8(6,7)9/h5-6,9H,2-4H2,1H3/t5-,6-,7-,8+/m1/s1
