19
gdb 41098	2.9765	1.89072	1.78882	1.7105	77.9	-0.2261	0.0643	0.2904	885.9979	0.161104	-385.797769	-385.791186	-385.790242	-385.828196	28.197	
C	 0.0138721508	 1.5640058207	-0.0275961241	-0.303432
C	 1.5861689031	 1.5840593823	 0.1329546592	-0.346984
C	 1.5869781598	 0.0430099171	 0.2702875923	 0.218169
C	 1.7066172748	-1.1975819675	-0.7045216961	-0.121363
C	 1.6757585239	-2.0883364235	 0.5718509695	-0.218805
C	 1.2018941293	-0.8983075151	 1.4421461378	 0.032265
O	-0.2257354647	-0.6431286721	 1.2582156527	-0.34842
C	 0.084331579	 0.0205744725	 0.012051236	 0.395554
C	 0.2555508032	-0.9113936501	-1.2157849092	-0.299735
H	-0.5294249179	 1.9767395084	 0.8247671801	 0.118155
H	-0.3755810216	 2.0070777023	-0.9480700495	 0.102079
H	 2.1153368285	 1.936027651	-0.75640228	 0.113545
H	 1.9722776955	 2.1356842285	 0.993639378	 0.112928
H	 2.5010338026	-1.3860949775	-1.4277440323	 0.065577
H	 1.0327598999	-2.9731653464	 0.5631209631	 0.099725
H	 2.6937561681	-2.371506512	 0.8586619922	 0.103358
H	 1.4961101074	-0.8529649497	 2.4934293744	 0.07221
H	 0.2503154216	-0.3432555324	-2.1516265783	 0.100672
H	-0.4301697331	-1.7579617765	-1.3081342459	 0.104499
179.6018	274.9802	302.2198	365.0016	432.8545	491.2348	556.3181	672.0228	696.5199	700.9123	789.3895	805.0102	833.777	866.6579	883.2322	897.8566	938.4776	945.911	976.6338	987.8241	1001.9263	1067.0427	1115.0539	1126.7485	1145.7302	1160.9185	1177.3222	1197.1287	1219.0971	1236.7366	1241.8933	1249.6615	1270.2408	1286.3181	1296.9758	1306.9468	1322.7825	1457.6267	1459.3941	1469.0018	1477.6589	3043.887	3046.0051	3058.0185	3062.87	3080.8007	3096.6732	3103.5961	3106.0324	3107.474	3128.4062
C1CC23C4CC2OC13C4	C1C[C@@]23[C@H]4C[C@@H]2O[C@@]13C4	
InChI=1S/C8H10O/c1-2-8-5-3-6(8)9-7(1,8)4-5/h5-6H,1-4H2	InChI=1S/C8H10O/c1-2-8-5-3-6(8)9-7(1,8)4-5/h5-6H,1-4H2/t5-,6-,7+,8+/m0/s1
