21
gdb 66215	4.29014	0.68702	0.6608	1.0727	85.59	-0.2501	0.0544	0.3046	1766.8903	0.179095	-387.038478	-387.028169	-387.027225	-387.074577	37.801	
C	 0.1227622278	 1.5851966635	 0.3935329177	-0.457299
C	-0.0156985079	 0.1168457582	 0.0544504539	 0.453416
C	 1.1492858024	-0.6420762086	-0.5357168604	-0.317431
C	 0.687566741	-0.9125668433	 0.8843645402	-0.31162
O	-1.2990549924	-0.2822462506	-0.3548867947	-0.288374
C	-1.6938135547	 0.1763417398	-1.6342131889	-0.069926
C	-3.0144273363	-0.52553086	-1.9725190755	-0.347856
C	-3.5432788078	-0.1134902687	-3.2653856578	 0.287789
C	-3.9554532156	 0.245218143	-4.3358412688	-0.450742
H	 1.1184798159	 1.7941782089	 0.7945318849	 0.118135
H	-0.0183697131	 2.2227827312	-0.4856599698	 0.120389
H	-0.6181271867	 1.8732385492	 1.1467395397	 0.124917
H	 0.924973772	-1.3992013457	-1.278635171	 0.116345
H	 2.0880604877	-0.1206131326	-0.6890106803	 0.111738
H	 1.3074322162	-0.5761863318	 1.7082821344	 0.110505
H	 0.1520140782	-1.8377084595	 1.0624154081	 0.122035
H	-1.842415966	 1.26517645	-1.6447962408	 0.103775
H	-0.931720637	-0.0639736323	-2.3890984451	 0.101829
H	-2.8510972512	-1.609544207	-1.9543034607	 0.136717
H	-3.7381251435	-0.3075933934	-1.1781106	 0.14017
H	-4.3320487988	 0.5530569294	-5.2795635349	 0.195486
47.0315	57.7708	93.4446	143.1897	213.7963	228.5397	280.1498	320.5815	355.2224	393.7143	406.6499	466.9872	558.3626	622.1702	647.5368	719.2557	776.2945	798.1968	857.4992	917.5156	931.9119	947.8732	990.435	1032.8432	1055.2276	1067.7559	1076.3806	1091.1759	1106.0336	1136.4779	1188.5507	1226.8466	1286.8898	1299.0007	1305.9185	1340.66	1412.8058	1422.0488	1451.9808	1477.3317	1485.6612	1490.8032	1506.8865	1527.2875	2241.536	2996.3108	3029.6879	3035.1157	3036.137	3073.7702	3097.8076	3114.096	3132.5508	3137.9837	3216.6097	3231.6649	3507.4796
CC1(CC1)OCCC#C	CC1(CC1)OCCC#C	
InChI=1S/C8H12O/c1-3-4-7-9-8(2)5-6-8/h1H,4-7H2,2H3	InChI=1S/C8H12O/c1-3-4-7-9-8(2)5-6-8/h1H,4-7H2,2H3
