14
gdb 5401	5.39096	1.66577	1.28282	1.6581	67.31	-0.2413	-0.0421	0.1992	902.5318	0.109364	-378.768081	-378.761409	-378.760465	-378.799085	24.305	
C	 0.0031060083	 1.4074618919	 0.0086898712	-0.235037
O	-0.024312929	-0.0207614873	 0.004871709	-0.259225
C	-1.230399656	-0.6089398991	 0.0121645362	 0.421756
C	-1.261393541	-2.0190794852	 0.0082237214	-0.077678
N	-2.404870707	-2.6806431442	 0.0148117729	-0.22633
C	-3.5308121456	-1.9471821209	 0.0253838499	-0.027675
C	-3.490498323	-0.5636210533	 0.0291584327	-0.021109
N	-2.3355203395	 0.1182600804	 0.0225583683	-0.336363
H	 1.0594784283	 1.6777887268	 0.0012788192	 0.133062
H	-0.5000063569	 1.812215781	-0.8740416273	 0.137833
H	-0.486243368	 1.8071985327	 0.9013942013	 0.137821
H	-0.3329331726	-2.5829922968	-0.0003901607	 0.123425
H	-4.4737897278	-2.4845846581	 0.0308486665	 0.113356
H	-4.4040198303	 0.0253004621	 0.0377264494	 0.116164
113.148	165.8353	230.3684	244.2141	440.6235	456.1033	556.1695	614.6122	649.5392	783.8576	853.6855	868.1458	951.4036	978.5118	1018.9759	1048.6106	1089.4242	1177.5113	1185.7966	1215.1682	1256.4464	1323.0679	1344.9013	1433.8856	1477.6833	1480.0859	1498.498	1515.1892	1585.2069	1622.5254	3043.5643	3114.6591	3152.2191	3159.5473	3170.395	3185.5836
COC1=CN=CC=N1	COc1cnccn1	
InChI=1S/C5H6N2O/c1-8-5-4-6-2-3-7-5/h2-4H,1H3	InChI=1S/C5H6N2O/c1-8-5-4-6-2-3-7-5/h2-4H,1H3
