18
gdb 15772	4.49386	1.10555	0.96083	1.7879	73.8	-0.2608	0.0535	0.3143	1215.0367	0.151227	-347.75176	-347.742825	-347.741881	-347.785538	32.363	
C	-0.0375325571	 1.7476549316	 0.2016260972	-0.401939
C	-0.0760409265	 0.2312802096	-0.0175592039	-0.002734
C	 0.71679654	-0.5412999553	 1.0677308177	-0.355104
C	 2.1372152944	-0.2172777554	 1.0908205495	 0.29743
C	 3.3069507496	 0.0608815292	 1.087642083	-0.444468
C	-1.5031197631	-0.2717738724	-0.0428730432	 0.089511
C	-2.2358890324	-0.5031333303	-1.2929479777	-0.184535
O	-1.7092816973	-1.5971741983	-0.5379355398	-0.244333
H	 0.9946061162	 2.1052433088	 0.2331633293	 0.137059
H	-0.5617333919	 2.2747731756	-0.6014545043	 0.116427
H	-0.5159171817	 2.020529438	 1.1498382216	 0.114663
H	 0.3782435656	-0.0052958273	-0.987006221	 0.090529
H	 0.2773024936	-0.3329290961	 2.0532236027	 0.124363
H	 0.5867008689	-1.6153998856	 0.8908682601	 0.149218
H	 4.3424049882	 0.2951799418	 1.0966477142	 0.193845
H	-2.0889564278	-0.0419111735	 0.8511492475	 0.089593
H	-3.3221423595	-0.4270452984	-1.3111184658	 0.115784
H	-1.7415635492	-0.313354452	-2.245072287	 0.114693
67.6864	87.8183	131.4149	202.271	222.1927	291.895	321.7196	356.2154	424.9608	481.7517	543.1892	614.9179	638.3957	808.3155	860.8296	875.276	891.2174	955.3953	960.03	992.0117	1084.0924	1109.6282	1122.0259	1155.83	1166.5735	1192.585	1243.2152	1279.2455	1296.2338	1342.9465	1360.2874	1409.0918	1448.3002	1472.722	1498.273	1501.4779	1530.3445	2236.5621	3012.9393	3031.3828	3040.7696	3063.3226	3076.0826	3082.6497	3098.5777	3123.4536	3168.2892	3506.7611
CC(CC#C)C1CO1	C[C@@H](CC#C)[C@H]1CO1	
InChI=1S/C7H10O/c1-3-4-6(2)7-5-8-7/h1,6-7H,4-5H2,2H3	InChI=1S/C7H10O/c1-3-4-6(2)7-5-8-7/h1,6-7H,4-5H2,2H3/t6-,7+/m0/s1
