17
gdb 10053	3.35353	1.23801	0.9708	5.1091	69.34	-0.2643	-0.0398	0.2245	1188.4571	0.139834	-363.891699	-363.882414	-363.88147	-363.926713	31.501	
C	 0.0182473209	 1.5639446992	 0.0438806186	-0.395064
C	-0.0155565897	 0.0381950881	-0.0742385671	-0.199567
C	 0.7456140237	-0.5052014042	-1.3079960727	-0.057189
C	 0.8920327267	-2.0401033947	-1.2113745751	-0.372834
C	 1.654240772	-2.6176066867	-2.3172663991	 0.260142
N	 2.2571833391	-3.0589908394	-3.1985203464	-0.294916
C	-0.0173054486	-0.1137512628	-2.5646186475	 0.173519
O	 0.2154471769	 0.8594025664	-3.2299778924	-0.238411
H	 1.0452896503	 1.9252254426	 0.1578929947	 0.126844
H	-0.4038780032	 2.0476233937	-0.8410869098	 0.143829
H	-0.5529647348	 1.892926038	 0.9166290408	 0.121597
H	 0.4251394425	-0.4127942015	 0.8232149289	 0.109364
H	-1.0553726254	-0.3150836298	-0.1111275415	 0.108093
H	 1.7340463353	-0.0384668613	-1.3612660379	 0.118769
H	 1.3863167729	-2.3037814891	-0.2704169924	 0.159741
H	-0.0984149004	-2.5117081188	-1.1872944173	 0.155939
H	-0.872375508	-0.7893264298	-2.8093759839	 0.080144
55.4143	64.4729	93.0951	124.9051	215.8265	244.6826	307.4591	342.1629	382.8654	392.501	484.6527	597.7601	776.7966	838.192	886.4353	945.8184	967.0245	1011.8036	1032.4131	1089.3748	1120.8336	1155.8218	1221.1701	1262.5693	1292.3109	1352.381	1352.9153	1369.6362	1421.9358	1427.1015	1463.9528	1488.5388	1498.7731	1505.9133	1838.6156	2363.8311	2843.5406	3014.625	3039.6001	3044.0751	3051.5065	3073.7405	3087.3934	3112.1022	3123.6142
CCC(CC#N)C=O	CC[C@@H](CC#N)C=O	
InChI=1S/C6H9NO/c1-2-6(5-8)3-4-7/h5-6H,2-3H2,1H3	InChI=1S/C6H9NO/c1-2-6(5-8)3-4-7/h5-6H,2-3H2,1H3/t6-/m0/s1
