17
gdb 61721	2.6001	0.87592	0.66571	6.4893	75.25	-0.2401	-0.0285	0.2116	1604.9434	0.131985	-455.172876	-455.16246	-455.161516	-455.211574	34.227	
C	-0.311915593	 1.4229793071	 0.1283361951	-0.501423
C	 0.115444696	-0.0207979455	-0.0633242532	 0.388585
N	 0.072122659	-0.7790111455	 1.1178710231	-0.351121
C	 0.3846917874	-2.1150176505	 1.3242707157	 0.162564
O	 0.7695597001	-2.9095118872	 0.5108750446	-0.258856
N	 0.4880558003	-0.5520511079	-1.1517790034	-0.240849
C	 0.5261237844	 0.2292600768	-2.3638551103	-0.241292
C	 0.5755262922	-0.6944943866	-3.5762284187	 0.154029
O	 0.3219892841	-0.3367210382	-4.6961444361	-0.246127
H	-0.549178404	 1.6623082566	 1.1675021867	 0.122398
H	 0.482517454	 2.0981712553	-0.2033293535	 0.157631
H	-1.1967695953	 1.6402574034	-0.4783849883	 0.161326
H	-0.2352858637	-0.2888008268	 1.942854477	 0.251924
H	 0.2257168916	-2.3684208429	 2.3937492728	 0.077851
H	-0.3121164899	 0.9279029909	-2.501729539	 0.120852
H	 1.4448238077	 0.8395248926	-2.4057703023	 0.136124
H	 0.8817290591	-1.7337585318	-3.3298398899	 0.106387
13.6341	44.8227	76.3721	81.9904	102.034	188.8624	218.9422	296.3544	331.8221	395.6839	470.7592	538.8549	587.1349	605.9375	697.8457	773.8495	892.2695	988.0816	1018.2779	1042.4355	1052.6464	1081.721	1107.3527	1157.4387	1232.4948	1257.3163	1333.8658	1396.5849	1406.7674	1431.0542	1452.6482	1477.9316	1492.2834	1527.219	1748.9674	1839.775	1850.0464	2909.0626	2916.5684	2964.7294	3015.566	3045.1611	3109.7005	3124.7153	3637.0564
CC(NC=O)=NCC=O	CC(=NCC=O)NC=O	
InChI=1S/C5H8N2O2/c1-5(7-4-9)6-2-3-8/h3-4H,2H2,1H3,(H,6,7,9)	InChI=1S/C5H8N2O2/c1-5(7-4-9)6-2-3-8/h3-4H,2H2,1H3,(H,6,7,9)
