16
gdb 108888	4.05486	0.9833	0.91026	5.0372	72.12	-0.2353	0.0235	0.2588	1298.8726	0.125555	-434.09506	-434.086236	-434.085292	-434.129739	30.436	
C	 0.022899583	 1.4863064457	-0.0092711246	-0.328704
N	-0.0279816766	 0.0356557152	-0.0634551593	-0.372102
C	 0.5456979338	-0.6989830971	-1.0428991252	 0.525331
N	 0.7213928358	-1.9710002461	-1.0191709521	-0.370366
C	 1.3670961737	-2.3090097818	-2.287418035	-0.137655
C	 1.3627549124	-0.9740166838	-3.1024920025	-0.122755
O	 0.925891951	 0.0039300797	-2.1444999829	-0.247034
C	 2.7320070636	-2.8260466633	-2.0773759745	 0.281468
N	 3.8086329713	-3.2206385896	-1.9345397108	-0.325056
H	 0.9879006074	 1.868085913	 0.3496315622	 0.132524
H	-0.1601844021	 1.89418419	-1.0038575327	 0.158669
H	-0.763604019	 1.8412748302	 0.6605213203	 0.135719
H	-0.1488258923	-0.4698703538	 0.7994541093	 0.266759
H	 0.8052357462	-3.0884316972	-2.8151254561	 0.129477
H	 2.3440842778	-0.6826014788	-3.4789735624	 0.145319
H	 0.6446360342	-1.0039332524	-3.9266036438	 0.128407
45.6136	92.1737	108.4571	147.9476	201.51	239.8374	286.1336	457.6618	492.3656	532.3558	607.0009	702.3267	723.2414	786.5823	816.7163	930.4437	999.8417	1030.9829	1036.9114	1085.6862	1093.8192	1153.6021	1196.8324	1228.5329	1254.5296	1344.4921	1356.4616	1427.2907	1460.0361	1481.2748	1497.6406	1519.0607	1527.6871	1739.5504	2356.8252	3016.9399	3035.6733	3065.543	3101.9219	3131.6152	3150.8497	3648.2074
CNC1=NC(CO1)C#N	CNC1=N[C@@H](CO1)C#N	
InChI=1S/C5H7N3O/c1-7-5-8-4(2-6)3-9-5/h4H,3H2,1H3,(H,7,8)	InChI=1S/C5H7N3O/c1-7-5-8-4(2-6)3-9-5/h4H,3H2,1H3,(H,7,8)/t4-/m1/s1
