23
gdb 92746	2.87213	1.20705	1.01067	1.579	87.86	-0.2353	0.0261	0.2614	1307.597	0.20602	-388.322077	-388.312543	-388.311599	-388.355738	37.164	
C	 0.023211103	 1.586857392	 0.0318757486	-0.410349
C	 0.0332890379	 0.0569941338	 0.0121651802	 0.027166
C	 0.7115151609	-0.495749941	-1.2547717612	-0.265805
C	 1.033208848	-1.9651648844	-1.163718964	-0.154656
C	 0.9742310991	-2.6876152756	-0.0399422251	 0.305176
C	 1.2821567717	-4.1600061894	-0.0092112013	-0.476828
C	 0.5813899441	-2.0560426174	 1.2807321475	-0.324073
C	 0.7202814587	-0.5291037696	 1.2601720223	 0.117813
O	 2.0911419705	-0.1380306576	 1.3377452594	-0.44621
H	 1.0435829102	 1.9689062206	 0.1308957779	 0.129792
H	-0.41138726	 1.994669327	-0.8869756166	 0.104342
H	-0.5609313439	 1.9682028175	 0.8763676478	 0.106915
H	-1.004059505	-0.3060555824	 0.0242237939	 0.068962
H	 0.0706488099	-0.3111427205	-2.1265496645	 0.104374
H	 1.632158609	 0.0737450827	-1.4565383246	 0.10514
H	 1.3339873909	-2.4537140189	-2.0891456976	 0.075733
H	 1.5314445008	-4.5440424132	-1.002139154	 0.118793
H	 2.1216635473	-4.3768312182	 0.6639714251	 0.122263
H	 0.4267931501	-4.7332121208	 0.3721911219	 0.122565
H	-0.4510117502	-2.3375286884	 1.5342629383	 0.106147
H	 1.2083246083	-2.4548659757	 2.0884062482	 0.104588
H	 0.2600949591	-0.1071548343	 2.1609304848	 0.075612
H	 2.5705250496	-0.6547594061	 0.680053563	 0.282541
90.7779	144.7263	189.2224	225.0787	252.4546	267.3644	284.5041	354.6782	363.5522	385.8598	401.1347	459.5575	581.2715	608.8364	697.6205	747.5598	809.7721	877.0582	900.4364	917.2201	949.1757	995.8835	1011.7177	1025.437	1059.4413	1070.6019	1088.9202	1118.269	1156.4581	1172.2533	1204.6714	1233.2378	1275.3631	1310.9146	1327.321	1339.1352	1367.627	1385.3466	1400.6962	1406.1945	1414.9633	1430.6041	1468.1586	1478.7594	1482.4667	1492.0203	1495.2279	1504.6611	1734.5426	2986.9244	3001.2953	3007.9274	3013.7127	3030.5517	3035.2508	3044.2677	3046.8095	3058.5329	3094.5298	3108.8446	3113.4895	3136.4016	3794.9205
CC1CC=C(C)CC1O	C[C@H]1CC=C(C)C[C@H]1O	
InChI=1S/C8H14O/c1-6-3-4-7(2)8(9)5-6/h3,7-9H,4-5H2,1-2H3	InChI=1S/C8H14O/c1-6-3-4-7(2)8(9)5-6/h3,7-9H,4-5H2,1-2H3/t7-,8+/m0/s1
