19
gdb 100416	3.48447	0.75361	0.7057	1.9235	82.69	-0.2294	0.0495	0.279	1691.5065	0.157328	-419.190209	-419.179389	-419.178445	-419.227383	37.178	
C	 0.3270034999	 0.92468295	 0.5797118469	-0.222756
O	-0.1455243148	-0.1620134316	-0.2137795304	-0.253181
C	 0.4616944825	-0.3331868317	-1.4082768919	 0.475305
N	-0.0079353231	-1.477063713	-2.0207419777	-0.565799
N	 1.3643937329	 0.4688903022	-1.8144197187	-0.34328
C	 2.0222366088	 0.1687585886	-3.0828188216	-0.312135
C	 1.1465664	 0.1916136784	-4.2637698091	 0.081879
C	 0.4051363514	 0.1990535864	-5.2148463997	 0.028126
C	-0.471595487	 0.2395703999	-6.3777865328	-0.498207
H	 1.3936851354	 0.8162868281	 0.7933388208	 0.134115
H	 0.1730420814	 1.8774937132	 0.0664738669	 0.135951
H	-0.2547468106	 0.8876190302	 1.5021613916	 0.121359
H	-0.8641425969	-1.8337701234	-1.622908791	 0.253848
H	-0.0072770424	-1.439493134	-3.0314650428	 0.262392
H	 2.8174163964	 0.9092532771	-3.2248602661	 0.131753
H	 2.5231600873	-0.8126416976	-3.0401450638	 0.125116
H	-0.474472911	-0.7160048476	-6.9138140969	 0.146062
H	-1.5051017774	 0.4611500689	-6.0892045168	 0.148053
H	-0.1544667027	 1.0142576058	-7.0846032067	 0.151398
41.328	53.0739	72.6892	149.5504	164.7248	205.9235	215.0279	234.2521	277.3476	351.4836	379.0258	450.0284	481.7108	541.2822	609.1225	680.4069	744.0399	773.7516	856.8744	1000.7353	1011.0508	1053.1954	1055.9205	1121.2561	1147.9707	1175.2089	1184.6291	1224.4278	1275.5023	1351.4572	1384.3123	1415.6548	1474.8443	1477.2613	1478.4895	1479.9812	1484.2579	1504.0694	1638.458	1742.827	2356.7222	2967.2973	3026.6769	3046.473	3047.9976	3086.5577	3088.1433	3120.0506	3145.506	3547.3577	3662.9801
COC(N)=NCC#CC	COC(=NCC#CC)N	
InChI=1S/C6H10N2O/c1-3-4-5-8-6(7)9-2/h5H2,1-2H3,(H2,7,8)	InChI=1S/C6H10N2O/c1-3-4-5-8-6(7)9-2/h5H2,1-2H3,(H2,7,8)
