16
gdb 29900	4.40821	1.06145	0.86011	4.5893	74.02	-0.2326	-0.0009	0.2317	1294.1168	0.125816	-434.147485	-434.138712	-434.137768	-434.181725	30.96	
C	-0.0046708433	 1.4466209391	-0.0221292611	-0.338751
N	-0.0037644319	-0.0036116735	 0.0177569945	 0.006022
C	-0.0897632922	-0.8501587727	-1.0539431053	-0.002948
N	-0.0630964148	-2.1097049883	-0.6922843655	-0.345922
C	 0.0456404452	-2.0877388458	 0.6827285921	 0.197122
C	 0.0833962254	-0.7924751133	 1.1360609336	-0.180741
C	 0.1095323969	-3.3108114747	 1.516450525	 0.318494
N	 0.0523097275	-4.4628319827	 0.7954131154	-0.54119
O	 0.2047733617	-3.2673872159	 2.7328876385	-0.382424
H	 0.9221182123	 1.846705522	 0.398864581	 0.152766
H	-0.0864673977	 1.7725557541	-1.0604902401	 0.148828
H	-0.8523469948	 1.8494339145	 0.5394949931	 0.152764
H	-0.1691150998	-0.476845098	-2.0647833451	 0.132722
H	 0.1626105163	-0.3885242874	 2.1308312213	 0.15599
H	-0.0291074244	-4.4234494773	-0.2069571888	 0.271117
H	 0.0860148335	-5.3435036402	 1.2782967414	 0.25615
59.4651	79.8224	136.0046	164.6577	200.417	264.8792	334.612	392.8918	526.0014	594.7649	633.1428	634.8284	686.1187	723.4716	765.5588	808.1266	847.9246	986.0423	1060.4471	1078.4182	1092.0023	1140.0718	1152.146	1250.6804	1290.5678	1356.8202	1385.7163	1435.0399	1459.966	1483.2045	1514.8747	1536.917	1580.8664	1611.1805	1780.4004	3046.6625	3111.5422	3141.6574	3243.3774	3288.0793	3601.011	3746.6478
CN1C=NC(=C1)C(N)=O	Cn1cnc(c1)C(=O)N	
InChI=1S/C5H7N3O/c1-8-2-4(5(6)9)7-3-8/h2-3H,1H3,(H2,6,9)	InChI=1S/C5H7N3O/c1-8-2-4(5(6)9)7-3-8/h2-3H,1H3,(H2,6,9)
