20
gdb 39123	3.40527	1.3041	1.15748	1.3813	78.23	-0.2324	0.0804	0.3128	1138.5606	0.172285	-403.081283	-403.073271	-403.072327	-403.1145	30.525	
C	 0.5820708371	 1.1831578444	-0.3180740779	-0.287691
N	 1.3273341803	-0.0266138172	 0.0872630953	-0.165171
C	 1.2822001675	-0.0348186233	 1.5939375769	-0.148617
C	-0.2663895924	-0.1051474331	 1.6188341423	-0.315301
C	-0.1955769173	-0.0007242643	 0.0938698735	 0.337962
C	-1.0301466201	-0.8177526722	-0.8419747941	 0.03611
C	-0.3773641498	-1.2775803211	-2.1657539889	-0.302037
C	-0.63834402	-2.6993434392	-1.6316630655	-0.058288
O	-1.1745158033	-2.1890803645	-0.3920005338	-0.295755
H	 0.6113288112	 2.0645100284	 0.3207689462	 0.108531
H	 0.6680725914	 1.3939838808	-1.3801512307	 0.117793
H	 1.7725094027	-0.9317193369	 1.9760624946	 0.114592
H	 1.7494638884	 0.8473635805	 2.044234475	 0.102135
H	-0.6350424927	-1.0795136429	 1.9404117363	 0.133923
H	-0.8151012714	 0.6831971238	 2.142009913	 0.097665
H	-2.0195461993	-0.3499301588	-0.957019563	 0.074598
H	-0.9043844064	-1.0015044422	-3.0793931348	 0.106169
H	 0.6781660095	-1.0149782781	-2.2429040443	 0.134896
H	-1.3858291721	-3.2793535739	-2.187279643	 0.098894
H	 0.2477178666	-3.3228684601	-1.4676362171	 0.109592
63.6106	84.7924	162.9339	189.7095	273.5993	410.5246	457.3399	501.8199	621.0631	742.1605	766.3637	786.3909	814.8678	828.7153	868.8994	931.6268	942.4497	957.1603	979.4705	999.6779	1028.0066	1048.9212	1089.8833	1099.4144	1109.3193	1130.1242	1166.5515	1196.3943	1211.7182	1224.1288	1227.9341	1263.4778	1271.7423	1287.0644	1309.8611	1354.1315	1363.6956	1408.8832	1478.9427	1485.2357	1494.8047	1518.9457	1528.47	2986.5444	3017.8875	3046.1731	3061.1685	3062.0164	3087.5177	3095.6266	3112.3332	3138.1864	3148.5594	3187.5664
C1N2CCC12C1CCO1	C1N2CC[C@@]12[C@H]1CCO1	
InChI=1S/C7H11NO/c1-4-9-6(1)7-2-3-8(7)5-7/h6H,1-5H2	InChI=1S/C7H11NO/c1-4-9-6(1)7-2-3-8(7)5-7/h6H,1-5H2/t6-,7+,8?/m1/s1
