20
gdb 72197	3.26729	1.80671	1.5701	1.5744	80.99	-0.2031	0.0765	0.2796	936.6194	0.173867	-365.961083	-365.954355	-365.953411	-365.991635	28.846	
C	 0.029831036	 1.4682853194	 0.0236273602	-0.487249
C	 0.0307204533	-0.040023914	-0.0211405259	 0.32601
C	-0.1567100738	-0.7499689642	-1.3568573576	-0.278983
C	-0.066844407	-2.2380233995	-0.9928123618	-0.065029
C	-1.3123819112	-2.6303278498	-0.1650734502	-0.169288
N	-0.6116437665	-2.2353666138	 1.1021544606	-0.139817
C	-0.4351479693	-0.76909177	 1.2420801145	-0.079587
C	 1.0208979646	-0.8142747354	 0.8150334995	-0.137592
C	 0.7219872063	-2.255413458	 0.37671843	-0.006668
H	 0.794179891	 1.8835157524	-0.6441348129	 0.116252
H	-0.9394051759	 1.874413648	-0.2873836628	 0.118412
H	 0.2357465896	 1.8388216325	 1.0332811086	 0.1182
H	-1.1094351602	-0.5126109999	-1.8454932654	 0.094076
H	 0.6481340785	-0.4482008219	-2.040636463	 0.091032
H	 0.2455023952	-2.8884247885	-1.8117370654	 0.062836
H	-2.2434077087	-2.0924527491	-0.3739418797	 0.096032
H	-1.5157029918	-3.70555197	-0.144483422	 0.09997
H	-0.912885183	-0.2326078282	 2.0557401784	 0.084532
H	 1.9139220481	-0.4194283415	 1.2812093973	 0.085926
H	 1.4036347246	-3.0747879482	 0.6061689472	 0.070935
207.48	216.5453	294.0718	352.0573	403.2882	489.2813	560.1965	600.9775	708.7321	713.1236	808.8022	830.7341	845.0784	860.988	887.6452	916.6093	923.7848	945.8179	961.3515	977.5864	999.4807	1041.4426	1050.0929	1073.1039	1091.7111	1116.1398	1135.7316	1179.2364	1206.8774	1208.4185	1225.8793	1252.6775	1261.3702	1277.2722	1291.7313	1315.0707	1348.8994	1399.7275	1418.6578	1489.2624	1490.5949	1501.517	1504.6708	3010.6256	3021.4737	3035.399	3055.5573	3080.3176	3084.8266	3091.9106	3094.7789	3106.9527	3155.0856	3198.157
CC12CC3CN4C1C2C34	C[C@]12C[C@@H]3CN4[C@H]1[C@H]2[C@H]34	
InChI=1S/C8H11N/c1-8-2-4-3-9-6(4)5(8)7(8)9/h4-7H,2-3H2,1H3	InChI=1S/C8H11N/c1-8-2-4-3-9-6(4)5(8)7(8)9/h4-7H,2-3H2,1H3/t4-,5-,6+,7+,8-/m1/s1
