13
gdb 24801	3.81659	1.21575	0.92204	7.4067	77.45	-0.2372	-0.0622	0.1749	1158.1156	0.090329	-415.629901	-415.622473	-415.621529	-415.662044	27.797	
O	 0.0702100132	-0.0654660077	 0.0015332525	-0.357081
C	 0.0223633919	 1.1473589338	 0.0087664038	 0.395505
C	-1.2467190725	 1.8878120985	 0.0302731222	-0.313595
C	-1.2681509141	 3.2433097404	 0.0379889867	 0.249252
N	-0.0559581914	 3.9172702328	 0.0250073799	-0.371871
C	 1.1112477989	 3.2079794054	 0.0050758656	 0.092742
N	 1.2081175305	 1.9282044237	-0.0032583767	-0.30224
C	-2.4439299452	 4.040028256	 0.0585295251	 0.231555
C	-3.4248045057	 4.7365229104	 0.0757861871	-0.384009
H	-2.1700153076	 1.3246848283	 0.0398892739	 0.130483
H	-0.0469525801	 4.9246971159	 0.0304100861	 0.275856
H	 2.0105449541	 3.8230880572	-0.0039199143	 0.13713
H	-4.3021338821	 5.3362260552	 0.0909830281	 0.216274
115.7621	129.3554	142.9817	355.6455	429.619	437.7079	457.7159	541.6615	543.761	598.7658	618.8782	679.2198	685.2881	766.8321	775.7637	876.5641	902.9287	970.0756	1012.6014	1121.2525	1181.3227	1215.021	1343.777	1423.8121	1492.769	1632.5319	1674.3101	1775.2096	2236.5911	3139.2528	3232.332	3495.8516	3644.7588
O=C1C=C(NC=N1)C#C	O=c1cc([nH]cn1)C#C	
InChI=1S/C6H4N2O/c1-2-5-3-6(9)8-4-7-5/h1,3-4H,(H,7,8,9)	InChI=1S/C6H4N2O/c1-2-5-3-6(9)8-4-7-5/h1,3-4H,(H,7,8,9)
