21
gdb 39262	2.30573	2.19356	1.50716	1.5621	80.65	-0.2216	0.0828	0.3044	962.4636	0.186441	-387.075992	-387.069089	-387.068145	-387.106736	29.878	
C	-0.0530335383	 1.4528619326	 0.0319151363	-0.425586
C	 1.3244691678	 0.7890431159	-0.0443685947	-0.040671
C	 2.2257447867	 0.490432957	-1.2266405945	-0.247629
C	 2.3664183916	-1.0654018393	-1.3203777074	-0.205576
C	 1.0310392222	-1.8105421771	-1.0002422528	-0.033225
C	 0.762011868	-2.0465801787	 0.5260059981	-0.087726
O	-0.0841578915	-0.9624807189	 0.9846257945	-0.308428
C	 0.0584097767	-0.0251645178	-0.0562961611	 0.450943
C	-0.1311387465	-0.8492592536	-1.3152177764	-0.281752
H	-0.2954490878	 1.9088283969	 0.9855210472	 0.124976
H	-0.4676205255	 1.9712928357	-0.8282649657	 0.113472
H	 1.8242312972	 0.7736209204	 0.9209983144	 0.092137
H	 1.80671183	 0.8866327354	-2.157135804	 0.101752
H	 3.2128887558	 0.9507009517	-1.1209434331	 0.095268
H	 2.7088819991	-1.3424967474	-2.3240802413	 0.09312
H	 3.1454877231	-1.40193464	-0.6258352282	 0.096647
H	 0.9967964192	-2.7605960401	-1.5390389949	 0.066163
H	 0.2246722942	-2.9833313081	 0.7045241255	 0.103608
H	 1.6942349185	-2.0626769623	 1.105721669	 0.093389
H	-0.0194861096	-0.3105049575	-2.2568305951	 0.098706
H	-1.107505151	-1.3420477947	-1.3032646858	 0.100413
173.2258	250.8852	339.2498	375.9284	393.4214	462.2282	495.2148	538.376	569.5522	715.2994	767.0211	778.6407	810.7051	871.6544	875.3629	888.6832	913.4134	934.1458	946.135	980.6658	997.9694	1014.3916	1041.8824	1075.547	1078.8011	1112.9976	1144.9175	1159.3181	1175.6475	1217.2735	1228.686	1237.8254	1261.2666	1291.5998	1323.5614	1343.5433	1350.323	1360.4672	1376.0834	1424.4291	1481.7399	1485.3979	1489.7069	1511.9483	1518.7343	3014.9728	3026.1162	3045.751	3061.459	3064.4711	3070.2921	3082.2113	3086.676	3122.343	3126.9592	3140.1319	3212.9522
C1C2CCC3COC12C3	C1[C@@H]2CC[C@H]3CO[C@@]12C3	
InChI=1S/C8H12O/c1-2-7-4-8(7)3-6(1)5-9-8/h6-7H,1-5H2	InChI=1S/C8H12O/c1-2-7-4-8(7)3-6(1)5-9-8/h6-7H,1-5H2/t6-,7+,8+/m1/s1
