17
gdb 42224	4.10968	1.09383	0.99596	2.6815	81.76	-0.2486	-0.0562	0.1924	1213.0681	0.135071	-384.635293	-384.627053	-384.626108	-384.668799	31.07	
O	 0.1892351591	-0.1327398859	-0.1100314913	-0.323253
C	 0.0453412036	 1.0740889245	-0.0490056977	 0.23792
C	 1.2054860602	 1.9557914135	 0.0149653155	 0.23778
C	 2.1567649321	 2.6920378837	 0.0681066436	-0.39667
C	-1.2640461014	 1.7829369937	-0.0319549485	-0.119279
C	-2.4972048555	 1.3764953507	-0.8303924244	-0.073916
C	-2.6620369655	-0.1459407106	-0.936349061	-0.221883
C	-2.6854888113	-0.2272854474	 0.6246707949	-0.221874
C	-2.5199855671	 1.2977060496	 0.6825097798	-0.073916
H	 3.0086130115	 3.3261946662	 0.1144229803	 0.212074
H	-1.1574338762	 2.8619603854	 0.0258134307	 0.100821
H	-2.947932815	 2.110861662	-1.488043461	 0.094044
H	-3.6252525752	-0.4129366754	-1.3770106698	 0.101309
H	-1.866888659	-0.6913967638	-1.4445016746	 0.125744
H	-3.6610282385	-0.5371650412	 1.0061727621	 0.101313
H	-1.9050251962	-0.8238021474	 1.0969557913	 0.125737
H	-2.9915351854	 1.9602696923	 1.39916842	 0.094048
33.3439	134.1367	195.4387	221.1276	244.0792	345.5458	352.7738	489.1411	619.2286	639.8574	676.5612	697.6439	773.2348	775.5284	783.044	816.8657	875.3372	938.6864	945.8661	964.7383	994.7788	1021.1266	1073.8654	1081.4241	1104.0529	1150.5252	1186.0429	1220.4179	1242.5065	1259.3874	1305.6838	1345.717	1434.6234	1470.7685	1492.3315	1743.8265	2208.042	3071.7329	3079.6814	3130.3814	3143.0424	3158.7162	3170.2577	3184.0936	3493.9496
O=C(C#C)C1C2CCC12	O=C(C#C)[C@H]1[C@H]2CC[C@@H]12	
InChI=1S/C8H8O/c1-2-7(9)8-5-3-4-6(5)8/h1,5-6,8H,3-4H2	InChI=1S/C8H8O/c1-2-7(9)8-5-3-4-6(5)8/h1,5-6,8H,3-4H2/t5-,6+,8-
