16
gdb 75685	3.08246	1.29682	1.08124	1.8499	71.69	-0.2516	-0.0493	0.2023	1117.7829	0.122691	-437.886569	-437.878029	-437.877085	-437.919994	30.541	
C	 0.2468432809	 1.4130398981	-0.1354213064	-0.358775
N	-0.223273944	 0.0498342216	 0.0277057878	-0.152503
C	-0.1366160495	-0.9745791476	-0.9214976837	 0.417306
O	-0.1830322406	-0.9541986415	-2.1186201171	-0.349632
C	 0.0880524324	-2.0337472537	 0.1582852095	-0.251482
C	 1.3005931214	-1.6345014226	 0.9718816949	-0.321982
C	 0.0283063369	-0.8522294794	 1.1519054561	 0.244029
C	-0.7898368865	-0.8452025414	 2.3802379742	 0.085325
O	-0.556951497	-1.5294352697	 3.3476540575	-0.262801
H	 1.2941004607	 1.5279715331	 0.174605141	 0.12647
H	 0.1632978903	 1.6644481707	-1.1952831572	 0.163628
H	-0.3690507033	 2.1108034278	 0.4388875791	 0.136491
H	-0.3988285447	-2.9930802351	 0.262312606	 0.140593
H	 1.5498201477	-2.3061821788	 1.7873900454	 0.158592
H	 2.143594094	-1.1525007418	 0.4867455436	 0.136257
H	-1.6664739387	-0.1635420497	 2.3349273093	 0.088485
100.9452	135.6107	145.3628	149.5646	216.8692	242.1101	309.4303	407.2986	474.992	550.5876	699.3497	710.5683	748.7589	775.2619	872.5009	919.1432	950.5295	962.3821	1014.4966	1054.8468	1072.5861	1098.2776	1148.9065	1157.9472	1228.6161	1259.5589	1334.5609	1358.6584	1422.4373	1445.52	1471.8023	1485.6255	1511.6743	1805.0804	1892.1253	2903.4389	3013.6228	3088.5353	3128.2553	3134.1421	3222.3372	3230.8199
CN1C(=O)C2CC12C=O	CN1C(=O)[C@H]2C[C@@]12C=O	
InChI=1S/C6H7NO2/c1-7-5(9)4-2-6(4,7)3-8/h3-4H,2H2,1H3	InChI=1S/C6H7NO2/c1-7-5(9)4-2-6(4,7)3-8/h3-4H,2H2,1H3/t4-,6+/m1/s1
