21
gdb 42022	3.11398	1.4607	1.06575	2.8173	78.1	-0.2355	0.0877	0.3231	1156.0255	0.186195	-424.242148	-424.234583	-424.233639	-424.274242	30.23	
C	-0.0283068643	 1.3835124934	 0.1132286111	-0.072719
C	 1.4109990695	 1.945014128	-0.0262107522	-0.302037
C	 2.2271612074	 0.7299858298	 0.4089571771	 0.040717
C	 3.6937074691	 0.5154865947	 0.0515959736	-0.260842
C	 4.0617795324	-0.9115507624	 0.5174635568	-0.206479
C	 3.0517905774	-1.9641462358	 0.0252624604	-0.072843
O	 1.6987235359	-1.6360524714	 0.3403888298	-0.249406
C	 1.3970513589	-0.3885119774	-0.2166668244	 0.250791
O	 0.0593475785	-0.0499388618	 0.0171415036	-0.276775
H	-0.4660139116	 1.6350919962	 1.0868638226	 0.107446
H	-0.700037619	 1.7563462399	-0.6678394256	 0.104468
H	 1.6266425207	 2.2123165324	-1.0670312519	 0.105284
H	 1.5687656284	 2.8347114958	 0.5879681432	 0.105565
H	 2.1107473469	 0.6048917661	 1.4944511721	 0.085373
H	 3.8342545199	 0.6089361462	-1.0339717168	 0.096635
H	 4.349946994	 1.2549360487	 0.5224587505	 0.097972
H	 5.0612349125	-1.1927456045	 0.1669805124	 0.09728
H	 4.0869670898	-0.9334810118	 1.6135686549	 0.10801
H	 3.1535084367	-2.0901301891	-1.0662457117	 0.090958
H	 3.2419735224	-2.9331384592	 0.4930159227	 0.11178
H	 1.5918408244	-0.438542988	-1.3112415383	 0.03882
90.3205	166.2944	213.4111	333.2742	352.7964	362.8302	436.231	499.672	556.1749	608.6681	674.6725	834.7287	838.0484	868.3875	891.3604	904.4315	936.0272	972.9197	1014.1075	1018.5311	1067.0127	1113.0656	1121.5358	1138.3799	1149.3005	1168.5554	1202.7026	1209.5178	1224.3057	1244.8648	1298.3728	1304.9777	1322.5915	1338.3046	1370.2192	1371.077	1393.3072	1394.7961	1423.8656	1436.2513	1479.0374	1492.263	1498.7794	1501.2239	1529.8772	2846.1414	2963.6752	3011.9024	3021.5851	3025.46	3032.5295	3043.2544	3064.5956	3069.3293	3079.6079	3098.9547	3105.8723
C1CC2CCCOC2O1	C1C[C@@H]2CCCO[C@H]2O1	
InChI=1S/C7H12O2/c1-2-6-3-5-9-7(6)8-4-1/h6-7H,1-5H2	InChI=1S/C7H12O2/c1-2-6-3-5-9-7(6)8-4-1/h6-7H,1-5H2/t6-,7-/m0/s1
