19
gdb 55218	3.69164	0.96744	0.85881	4.0311	76.33	-0.2397	-0.024	0.2157	1370.2416	0.157874	-423.086987	-423.077857	-423.076912	-423.122012	33.101	
C	 0.0043717335	 1.3345592605	-0.4934849675	-0.482365
C	-0.0472126088	 0.1868553203	 0.4949403047	 0.384173
O	 0.8750185742	-0.0662907631	 1.2362930155	-0.304602
C	-1.3140641731	-0.6653204339	 0.4860934626	-0.102471
C	-1.1548423822	-1.8792565187	-0.4848652897	-0.229185
C	-2.213273786	-2.8833462706	-0.0105636469	-0.319482
C	-2.3712158118	-2.6185397935	 1.4935714529	 0.396374
O	-2.9851161451	-3.305897766	 2.2665384228	-0.310009
C	-1.6289765678	-1.3259571042	 1.8332902246	-0.329016
H	 1.0012273016	 1.7762174987	-0.5083180089	 0.145301
H	-0.2731390005	 0.9957864411	-1.4978604695	 0.138663
H	-0.7282796492	 2.0982000191	-0.2054084522	 0.14573
H	-2.1603875254	-0.0572911422	 0.1448990559	 0.079752
H	-1.2655728188	-1.5937244498	-1.5336057114	 0.108941
H	-0.1516526222	-2.3012534251	-0.35833754	 0.126443
H	-3.1867868332	-2.6879825517	-0.4789972499	 0.132361
H	-1.9708151941	-3.9313149902	-0.2016265436	 0.133143
H	-0.6838245725	-1.586013646	 2.3277905901	 0.15754
H	-2.2025694186	-0.7101335748	 2.5292884606	 0.128707
35.6537	78.8176	135.3844	142.7134	178.9008	286.9976	317.8199	448.37	481.7225	555.228	571.1961	591.5158	602.5826	729.9792	806.6889	845.382	905.4131	930.8803	952.1476	958.7909	990.7311	1022.5432	1089.9149	1141.8723	1161.6706	1171.1075	1200.2777	1238.1216	1261.19	1294.6902	1310.0732	1334.1326	1372.0716	1387.7048	1450.3027	1451.3626	1461.5829	1474.8584	1497.8549	1809.5266	1849.2995	3031.632	3035.6858	3036.5063	3043.1017	3050.34	3093.0747	3101.9114	3111.1604	3114.3272	3153.8888
CC(=O)C1CCC(=O)C1	CC(=O)[C@H]1CCC(=O)C1	
InChI=1S/C7H10O2/c1-5(8)6-2-3-7(9)4-6/h6H,2-4H2,1H3	InChI=1S/C7H10O2/c1-5(8)6-2-3-7(9)4-6/h6H,2-4H2,1H3/t6-/m0/s1
