23
gdb 53694	5.98593	0.46276	0.44415	0.1844	96.12	-0.2387	0.0646	0.3034	2516.4321	0.204086	-351.126765	-351.115777	-351.114833	-351.165323	38.369	
C	-0.0260147353	 1.4704729185	-0.2036678691	-0.496907
C	-0.005121903	 0.0195763003	-0.0793472636	 0.107321
C	 0.0227994503	-1.1799120719	 0.0244573741	 0.02486
C	 0.0214072457	-2.633759846	 0.1481444654	-0.357851
C	-1.3900071043	-3.2507293949	 0.0787139596	-0.160232
C	-1.3742314414	-4.7772103368	 0.2227335137	-0.20349
C	-2.755656461	-5.3935070289	 0.1586024264	 0.030191
C	-3.3844307913	-5.7219252243	-1.1731114642	-0.253805
C	-2.9387957185	-6.8319525046	-0.2515111376	-0.277062
H	 0.9886394118	 1.8808590636	-0.258816702	 0.144901
H	-0.5584224649	 1.7872092991	-1.107605318	 0.144267
H	-0.5240767356	 1.938737179	 0.6528176968	 0.14412
H	 0.6458329521	-3.0717122421	-0.642865797	 0.121245
H	 0.4959085089	-2.9233845657	 1.0959640105	 0.121651
H	-2.0098806694	-2.8088820048	 0.8680744684	 0.103649
H	-1.8584166401	-2.9723677517	-0.872107109	 0.108627
H	-0.7487447727	-5.2131902303	-0.5687602195	 0.089486
H	-0.8932939859	-5.0483319135	 1.1732701541	 0.094153
H	-3.4392285479	-5.0317634194	 0.9235483631	 0.079847
H	-4.4479915174	-5.5549884064	-1.3032119914	 0.109476
H	-2.7962142611	-5.5418954017	-2.0675547297	 0.108124
H	-2.0535761457	-7.39542002	-0.5288931907	 0.10821
H	-3.6982492534	-7.4216124476	 0.2501662898	 0.109218
21.2756	45.379	66.3181	89.9076	128.4398	164.2011	221.5965	273.8426	294.1368	385.6971	387.6538	405.8936	523.4161	740.0116	755.342	782.0725	808.4998	832.7312	859.0837	921.131	968.309	1017.4634	1045.7896	1053.981	1054.1593	1060.0761	1071.4073	1080.1001	1136.3051	1142.6572	1168.4625	1198.8959	1222.5799	1232.2848	1263.3415	1301.9813	1323.364	1347.8332	1385.7919	1415.972	1419.2014	1470.3696	1475.4645	1479.7279	1480.3845	1483.5185	1504.0019	1509.0968	2373.4615	3001.3635	3005.7757	3024.15	3029.5561	3033.1017	3036.9402	3080.5723	3083.156	3083.3606	3126.9185	3128.7549	3133.2063	3204.4299	3219.7065
CC#CCCCC1CC1	CC#CCCCC1CC1	
InChI=1S/C9H14/c1-2-3-4-5-6-9-7-8-9/h9H,4-8H2,1H3	InChI=1S/C9H14/c1-2-3-4-5-6-9-7-8-9/h9H,4-8H2,1H3
