18
gdb 29480	3.14554	1.5783	1.06476	1.3147	87.37	-0.174	0.0046	0.1786	1115.586	0.149806	-364.862318	-364.854574	-364.85363	-364.894264	30.523	
C	-0.0186544822	 1.529262082	 0.0004822617	-0.505247
C	-0.0076174537	 0.0307111887	 0.0245229178	 0.091916
C	-0.029672506	-0.802538472	-1.0824249371	-0.163865
N	-0.0094404548	-2.1226571004	-0.667103104	-0.401895
C	 0.0248746298	-2.1357831887	 0.6980510266	 0.308369
C	 0.0268888682	-0.8319028437	 1.1523691637	 0.219342
C	 0.0648070487	-0.8627503319	 2.655283727	-0.420584
C	 0.0828179074	-2.3576565553	 2.9461474605	-0.086473
C	 0.0595258663	-3.0759836593	 1.8018307617	-0.193764
H	 0.8710778621	 1.9503107304	 0.4843549013	 0.120905
H	-0.046740841	 1.9091009515	-1.0251240021	 0.116473
H	-0.8890872889	 1.9380649547	 0.5279974189	 0.1209
H	-0.0578117463	-0.5566885829	-2.1326997774	 0.111096
H	-0.0205878284	-2.9198498319	-1.2779334795	 0.25631
H	 0.9493755501	-0.3678498534	 3.0799402483	 0.121596
H	-0.8043396394	-0.3803449636	 3.1238766549	 0.121592
H	 0.1108539804	-2.7633487	 3.9488194882	 0.092244
H	 0.0654318276	-4.1557361644	 1.7235949795	 0.091086
119.1453	164.1482	222.1129	231.8705	315.3794	413.4048	446.6062	490.7964	592.9857	619.5397	651.8538	666.4053	693.843	734.9014	778.1253	857.3033	921.8186	929.5209	933.5034	999.5758	1045.5116	1061.6357	1102.2977	1118.7036	1129.9242	1178.7666	1250.3411	1263.8738	1321.2462	1377.996	1417.8161	1423.0577	1443.9119	1482.4244	1492.9023	1511.8186	1539.6688	1590.4297	1608.5937	3016.1383	3019.3544	3039.6006	3064.6904	3101.4203	3205.3852	3229.7488	3251.5921	3685.4787
CC1=CNC2=C1CC=C2	Cc1c[nH]c2c1CC=C2	
InChI=1S/C8H9N/c1-6-5-9-8-4-2-3-7(6)8/h2,4-5,9H,3H2,1H3	InChI=1S/C8H9N/c1-6-5-9-8-4-2-3-7(6)8/h2,4-5,9H,3H2,1H3
