18
gdb 77019	2.31612	1.20025	0.94619	4.1667	82.03	-0.2675	0.0271	0.2947	1294.57	0.145885	-364.785215	-364.775627	-364.774682	-364.820141	34.733	
C	-0.0558201883	 1.5893442155	 0.185587698	-0.413754
C	 0.005283882	 0.0882643792	 0.0097358036	-0.050054
C	 0.5418018027	-0.5799569211	-1.2235010823	-0.017277
C	 1.0753498935	 0.1977281584	-2.419793877	-0.387324
C	 1.8629069676	-0.6442630868	-3.3147507042	 0.302086
C	 2.4980322575	-1.357393656	-4.0435953731	-0.433291
C	 1.331611039	-0.674535873	 0.080799205	-0.190047
C	 2.5568387456	 0.057520108	 0.2282979255	 0.292755
N	 3.5373462733	 0.661133189	 0.347772311	-0.347207
H	 0.8285967711	 2.0921524491	-0.2115498932	 0.143415
H	-0.9371250941	 1.9995755556	-0.318405149	 0.125877
H	-0.1268926502	 1.8465053561	 1.2468861065	 0.132517
H	-0.8131165223	-0.4421238991	 0.4891717625	 0.104772
H	 0.0588073028	-1.5107638644	-1.5043545013	 0.113696
H	 0.2288965802	 0.626220337	-2.9723450485	 0.136953
H	 1.6869150938	 1.0434615269	-2.0879305237	 0.153789
H	 3.0727148003	-1.974447382	-4.6889568908	 0.199769
H	 1.3320056654	-1.6320206224	 0.590117251	 0.133324
44.6833	114.004	132.8954	152.7438	174.6631	220.887	330.3427	336.3248	381.6817	459.3172	511.8955	596.8318	621.7609	628.258	650.4447	747.5901	795.7714	868.3823	913.9169	943.0164	975.829	1002.0113	1047.0013	1102.5261	1119.9629	1148.4471	1167.719	1240.1564	1260.6432	1318.1222	1364.0206	1390.5957	1426.7198	1438.2501	1466.195	1492.946	1504.1411	2243.311	2347.8756	3024.4094	3043.0956	3072.4592	3103.6609	3125.6834	3145.5232	3158.8612	3173.6661	3506.7706
CC1C(CC#C)C1C#N	C[C@H]1[C@@H](CC#C)[C@H]1C#N	
InChI=1S/C8H9N/c1-3-4-7-6(2)8(7)5-9/h1,6-8H,4H2,2H3	InChI=1S/C8H9N/c1-3-4-7-6(2)8(7)5-9/h1,6-8H,4H2,2H3/t6-,7+,8-/m0/s1
