16
gdb 133723	2.54171	1.40839	1.14021	1.5053	57.38	-0.2581	0.0739	0.332	1068.4348	0.120226	-569.381389	-569.372891	-569.371947	-569.415256	30.662	
C	-0.3848112987	 1.4843854516	-0.1213372953	-0.413796
C	 0.1136997368	 0.0544699872	-0.0699605563	 0.148883
O	 1.3745006372	-0.1302844819	-0.7577563274	-0.284557
C	 1.9501508337	-0.8293752445	 0.3594856993	-0.088087
C	 0.7061458314	-0.5609395354	 1.2311878415	-0.226612
C	 0.925602638	 0.3419404267	 2.4218970566	 0.285901
F	 1.697259248	 1.4040335812	 2.1344885755	-0.078495
F	-0.2381036094	 0.8094257489	 2.9034866804	-0.082837
F	 1.5338570024	-0.3265237891	 3.4166205247	-0.078589
H	 0.3481759559	 2.1790423064	 0.2914172355	 0.137495
H	-0.5745490594	 1.7577624423	-1.1636703796	 0.128158
H	-1.3208902587	 1.5840645089	 0.436555613	 0.12617
H	-0.6481902088	-0.6148004381	-0.4940909673	 0.083806
H	 2.1291827137	-1.8889272701	 0.1418860184	 0.107794
H	 2.8824852723	-0.3672812422	 0.6998016874	 0.123005
H	 0.1814549955	-1.4449378018	 1.5955424336	 0.111761
68.1796	76.8607	163.4055	224.7641	240.8785	285.5957	362.7866	404.0509	461.7073	526.3682	585.0866	659.0536	756.1761	791.0885	884.4699	911.6042	968.17	1026.6031	1059.4568	1070.824	1101.7963	1150.8752	1169.1919	1184.7456	1198.5484	1239.7238	1283.5252	1296.6393	1368.6267	1387.1181	1405.4761	1419.4295	1483.9461	1502.8066	1524.4032	2997.2591	3027.5869	3049.1297	3078.3266	3111.5244	3116.0838	3149.1154
CC1OCC1C(F)(F)F	C[C@H]1OC[C@H]1C(F)(F)F	
InChI=1S/C5H7F3O/c1-3-4(2-9-3)5(6,7)8/h3-4H,2H2,1H3	InChI=1S/C5H7F3O/c1-3-4(2-9-3)5(6,7)8/h3-4H,2H2,1H3/t3-,4-/m1/s1
