20
gdb 62163	6.35797	0.5604	0.53647	2.8526	79.87	-0.2576	-0.0284	0.2292	1994.868	0.167481	-440.292626	-440.281817	-440.280873	-440.330961	36.222	
C	-0.0008619457	 1.4812605396	 0.1243580462	-0.397542
C	 0.0781026243	-0.0436646321	-0.0202138771	-0.007175
C	 0.8563150712	-0.6781193561	 1.1314602429	-0.078146
O	 2.1894508361	-0.1700544846	 1.1091604501	-0.186135
C	 2.9121151662	-0.2949130304	 2.2393731869	 0.128764
N	 4.1302355494	 0.0327993671	 2.248450028	-0.436645
C	-1.3193610398	-0.6865625563	-0.1166783238	-0.285628
C	-2.0450880049	-0.291949383	-1.3849198575	 0.160614
O	-3.1645762102	 0.1453027333	-1.4343708102	-0.236409
H	 0.9996056005	 1.9126651603	 0.1969414554	 0.145987
H	-0.5094753548	 1.9351809648	-0.7315376553	 0.127293
H	-0.5611974588	 1.7580675915	 1.0253397193	 0.117972
H	 0.6291278131	-0.2803651227	-0.9408811496	 0.099664
H	 0.3771871536	-0.4420203302	 2.0928480722	 0.106739
H	 0.8801117112	-1.7711308899	 1.0222402827	 0.108
H	 2.3326304885	-0.6819069508	 3.0897023172	 0.084993
H	 4.5193862772	-0.1022035319	 3.1791749606	 0.23065
H	-1.2164396756	-1.7820897612	-0.1402996231	 0.119305
H	-1.9483808144	-0.4251285304	 0.7404229442	 0.122059
H	-1.4484321572	-0.4483035671	-2.3152228191	 0.07564
24.5355	56.3591	59.4061	84.7664	108.801	175.3899	226.7654	242.6179	290.6498	326.1474	403.1939	480.5316	541.5246	642.0339	777.6531	822.0308	868.8081	927.8944	944.3643	991.5385	999.1126	1029.0909	1044.1756	1134.7826	1142.1646	1155.9879	1172.9922	1224.4647	1266.7496	1287.0119	1302.7191	1355.7419	1380.0845	1400.9571	1413.5732	1428.1321	1433.666	1460.3625	1490.18	1505.7449	1509.5353	1748.6422	1838.8689	2850.0978	2989.8172	3005.1887	3015.5738	3017.5928	3034.5435	3041.3045	3088.3315	3100.395	3133.415	3519.8271
CC(COC=N)CC=O	C[C@@H](CO[CH][NH])CC=O	
InChI=1S/C6H11NO2/c1-6(2-3-8)4-9-5-7/h3,5-7H,2,4H2,1H3	InChI=1S/C6H11NO2/c1-6(2-3-8)4-9-5-7/h3,5-7H,2,4H2,1H3/t6-/m1/s1
