17
gdb 49648	4.0265	1.38303	1.28825	2.0876	71.19	-0.248	-0.0291	0.2188	990.1235	0.137267	-421.785087	-421.778353	-421.777409	-421.816552	26.763	
O	-0.7791709079	 0.7839192751	-0.5360462135	-0.244377
C	 0.1232407701	 0.8933156242	 0.2565256329	 0.130479
C	 1.2384474755	 1.900878179	 0.2020926309	-0.08656
C	 1.3084534108	 3.0574678012	-0.8289288588	-0.118523
C	-0.0168166536	 3.8125109716	-0.5860720198	-0.218609
C	 0.3672059483	 4.2201391203	 0.8478681192	 0.06897
O	 1.5210462594	 5.0820795541	 0.5918273764	-0.291015
C	 2.1802952296	 3.8611591623	 0.2610109032	 0.111428
C	 1.3384912419	 3.0363402663	 1.255692416	-0.110868
H	 0.1931184205	 0.2049253392	 1.1327118527	 0.076054
H	 2.1822268712	 1.338762858	 0.2472733983	 0.098197
H	 1.6431602999	 2.8885253856	-1.8494005518	 0.078584
H	-0.1318304078	 4.7034931658	-1.2059400986	 0.110291
H	-0.8922208209	 3.1722242933	-0.6802277883	 0.132179
H	-0.3669909211	 4.6574304703	 1.5218664854	 0.087232
H	 3.2661269578	 3.9005433171	 0.1923474679	 0.090426
H	 1.5904744064	 2.8953887066	 2.3045737977	 0.086113
75.9046	191.3615	205.5041	388.4371	445.2615	539.3372	650.7901	697.8605	727.2034	747.6644	805.3363	849.1902	852.9907	909.2295	924.1974	941.5527	963.7313	996.3731	1003.2115	1027.7056	1047.0248	1067.8568	1078.307	1142.5196	1152.8023	1164.7897	1193.007	1220.1664	1237.5337	1257.0307	1301.3428	1308.0783	1332.1187	1373.6164	1427.6062	1495.6535	1821.1284	2845.476	3016.2283	3091.774	3134.0811	3139.0816	3147.4135	3153.3739	3162.287
O=CC1C2CC3OC2C13	O=C[C@H]1[C@H]2C[C@@H]3O[C@H]2[C@H]13	
InChI=1S/C7H8O2/c8-2-4-3-1-5-6(4)7(3)9-5/h2-7H,1H2	InChI=1S/C7H8O2/c8-2-4-3-1-5-6(4)7(3)9-5/h2-7H,1H2/t3-,4+,5+,6-,7-/m1/s1
