19
gdb 39217	2.50591	2.02181	1.53133	0.3334	72.86	-0.2427	0.058	0.3007	931.4944	0.162291	-422.996939	-422.990084	-422.98914	-423.027895	28.326	
C	-0.0340758973	 1.6319711592	-0.0004877405	-0.26862
C	 1.4936802134	 1.4297876731	-0.0855700921	 0.107285
C	 2.2529391086	 1.5225631676	 1.2530210863	-0.235702
C	 2.2673759752	 0.2173088869	 2.0709652264	-0.231608
C	 0.9345210954	-0.4461447356	 2.362716513	 0.074923
O	-0.2260170509	 0.3710965426	 2.5337886103	-0.256174
C	-0.1800322825	-0.521787544	 1.404226785	 0.03412
C	-0.0676414459	 0.0926846028	 0.0122067139	 0.072068
O	 1.2933561446	 0.0466753588	-0.4966698861	-0.293465
H	-0.434710394	 2.1461073074	 0.8715904482	 0.125164
H	-0.4510358358	 2.0442842933	-0.9205007455	 0.104564
H	 2.0082393206	 1.9976756159	-0.866960474	 0.076741
H	 3.2966384661	 1.7975331266	 1.0664585524	 0.100899
H	 1.8200584954	 2.3343624738	 1.8479203727	 0.114535
H	 2.8828144422	-0.5260404302	 1.5525077456	 0.123398
H	 2.7634015993	 0.4195896371	 3.028381979	 0.100603
H	 1.0058748846	-1.2552777739	 3.0930217248	 0.088716
H	-0.8719229168	-1.3593307566	 1.4938793293	 0.087987
H	-0.7555615323	-0.4071537144	-0.6763241286	 0.074566
142.5204	233.0932	300.9363	334.7131	362.9832	430.9732	528.1055	601.7549	659.3932	734.5266	768.4133	800.2434	853.5501	881.4138	904.6917	914.951	931.5734	968.3539	994.379	1023.6515	1071.727	1074.7182	1091.1174	1124.0713	1142.5042	1154.3903	1206.7685	1247.0522	1265.2199	1277.5437	1304.5659	1324.1915	1353.7727	1364.9582	1375.8373	1396.969	1399.2773	1463.6171	1473.4168	1482.6816	1496.5382	3028.8557	3039.3697	3054.4636	3058.7182	3070.28	3082.2964	3085.1375	3089.7405	3109.7539	3157.8517
C1C2CCC3OC3C1O2	C1[C@H]2CC[C@H]3O[C@H]3[C@@H]1O2	
InChI=1S/C7H10O2/c1-2-5-7(9-5)6-3-4(1)8-6/h4-7H,1-3H2	InChI=1S/C7H10O2/c1-2-5-7(9-5)6-3-4(1)8-6/h4-7H,1-3H2/t4-,5-,6-,7-/m1/s1
