16
gdb 10970	2.67803	2.58906	1.8635	2.4595	64.69	-0.2243	-0.0169	0.2074	783.5581	0.130446	-383.734064	-383.72706	-383.726116	-383.764985	26.946	
C	 0.0196477322	 1.545495021	 0.082820716	-0.497025
C	-0.0225057305	 0.0555915146	-0.0581976191	 0.313291
C	 0.6717602026	-0.7865153181	-1.1753356936	-0.288208
C	-0.2429369132	-1.9358784646	-0.627606983	-0.195475
C	 0.2783301696	-2.0221668815	 0.8147431089	-0.081551
O	 0.4141994031	-0.6139331448	 1.14449533	-0.31247
C	-1.2675164332	-0.7902117026	-0.4374197003	 0.413616
O	-2.4257656816	-0.6076700593	-0.6565618709	-0.316784
H	 1.0403965947	 1.8888071191	 0.2756836718	 0.132194
H	-0.3467541556	 2.0236208859	-0.8295208807	 0.130665
H	-0.612289473	 1.8625351024	 0.9171444101	 0.14266
H	 0.4178106727	-0.4714892635	-2.189172604	 0.121046
H	 1.7484290377	-0.9221040044	-1.0518336921	 0.116513
H	-0.4590300238	-2.8543136695	-1.1669689948	 0.096161
H	-0.4269521183	-2.5039794453	 1.501321968	 0.11653
H	 1.2533354464	-2.5162872094	 0.8970908338	 0.108837
144.5796	183.153	214.0615	279.3598	329.6182	447.0191	491.0256	593.8318	661.0573	698.9406	779.1393	830.7685	859.1661	882.1911	921.3494	954.5962	983.096	1006.7474	1039.8831	1069.7707	1114.3356	1159.1531	1170.3542	1198.4002	1225.4871	1247.3911	1348.0103	1361.2987	1421.8308	1476.9115	1477.8846	1490.0876	1532.6535	1907.0648	3024.8743	3046.3761	3067.8264	3071.3574	3117.9698	3125.8877	3142.3726	3162.1832
CC12CC(CO1)C2=O	C[C@@]12C[C@@H](CO1)C2=O	
InChI=1S/C6H8O2/c1-6-2-4(3-8-6)5(6)7/h4H,2-3H2,1H3	InChI=1S/C6H8O2/c1-6-2-4(3-8-6)5(6)7/h4H,2-3H2,1H3/t4-,6-/m0/s1
