20
gdb 15229	2.26291	1.81664	1.28011	0.8017	81.32	-0.2373	0.0502	0.2875	1071.435	0.175032	-311.833893	-311.824488	-311.823544	-311.867752	34.666	
C	 0.2444431153	 1.5028043158	-0.143582071	-0.375454
C	-0.1977220536	 0.0580131488	 0.1176524025	-0.199849
C	 0.5855049325	-0.5861466529	 1.242604818	-0.00918
C	 0.7147975822	-2.0739396171	 1.4252060549	-0.044759
C	 0.0700014753	-3.082926874	 0.5016037306	-0.40971
C	 1.9380573722	-1.2605235036	 0.9931836859	-0.219584
C	 2.4652829831	-1.3751328395	-0.3339567413	 0.350305
C	 2.921725149	-1.4680681253	-1.4444565862	-0.487631
H	 1.2940898713	 1.537150963	-0.4511576497	 0.129662
H	-0.3553164806	 1.9622285848	-0.9353391782	 0.109088
H	 0.1375791602	 2.1192155561	 0.7561450531	 0.109358
H	-1.2656774225	 0.0377091276	 0.3714796433	 0.094585
H	-0.0855571164	-0.5238107882	-0.8018159321	 0.110416
H	 0.5565821563	-0.0125775685	 2.1670257256	 0.084638
H	 0.7617354471	-2.4012123316	 2.4609678678	 0.088209
H	 0.1567541672	-2.7928514903	-0.5473355552	 0.133284
H	 0.5496776771	-4.0614392838	 0.6093015015	 0.120155
H	-0.9930830823	-3.2045529069	 0.7366412375	 0.115762
H	 2.6949589901	-1.1029451321	 1.7562924726	 0.10751
H	 3.3286851564	-1.5510654923	-2.4213561195	 0.193195
73.5001	127.8858	136.1708	154.0086	195.2753	232.802	280.203	354.9014	374.5529	503.0683	568.1904	585.6881	610.0043	645.64	730.6147	778.1203	804.879	834.9746	945.5066	960.2568	987.5839	1031.4531	1056.5932	1093.2551	1123.9954	1143.3402	1150.3785	1196.4998	1256.3348	1298.2529	1335.9433	1366.2195	1396.9673	1410.7111	1421.3642	1441.1868	1481.271	1493.4505	1499.4828	1501.6545	1507.5536	2227.4877	3023.4048	3032.5566	3036.6387	3079.8336	3093.0335	3101.1639	3111.6637	3120.2081	3124.338	3137.2172	3147.5298	3505.5291
CCC1C(C)C1C#C	CC[C@H]1[C@@H](C)[C@H]1C#C	
InChI=1S/C8H12/c1-4-7-6(3)8(7)5-2/h1,6-8H,5H2,2-3H3	InChI=1S/C8H12/c1-4-7-6(3)8(7)5-2/h1,6-8H,5H2,2-3H3/t6-,7+,8-/m0/s1
