17
gdb 76247	2.09294	1.44967	1.01365	5.3314	75.33	-0.2566	-0.0481	0.2086	1208.7069	0.133586	-418.011046	-418.001708	-418.000763	-418.045492	33.029	
C	 0.1860299819	 1.5993985652	-0.1074963315	-0.402164
C	 0.114017302	 0.0881202102	 0.0332521415	-0.061004
N	 0.6732881012	-0.7165737038	-1.0839459911	-0.086722
C	-0.234675335	-1.2795911541	-2.0633279878	-0.342241
C	 1.3830345532	-1.6503221801	-0.1883072441	-0.243533
C	 2.7562971484	-1.975309001	-0.5464729351	 0.311063
N	 3.8511040618	-2.2255232711	-0.8191706338	-0.318912
C	 1.1100940081	-0.6207339914	 0.9578176753	 0.383568
O	 1.5312348124	-0.4587751539	 2.0558533268	-0.263698
H	 1.2007094063	 1.9129566257	-0.3641610255	 0.140215
H	-0.4930703262	 1.9461677211	-0.8923713712	 0.129581
H	-0.106209649	 2.077662373	 0.8319866127	 0.139872
H	-0.9100495974	-0.2272499347	 0.3078281623	 0.097884
H	-0.7370669901	-0.4709789146	-2.6017735983	 0.136784
H	 0.3280273647	-1.8678733273	-2.7937483731	 0.144876
H	-1.0074806778	-1.9293074902	-1.6123142317	 0.102898
H	 0.8303063254	-2.5829724033	 0.0233317147	 0.131533
60.6682	118.7753	159.2829	182.6426	193.8828	211.3233	272.4245	292.693	392.2442	427.7359	531.352	537.3324	608.8984	633.2078	816.1978	847.0676	898.6624	966.2063	1046.009	1061.5913	1070.4163	1129.306	1151.1129	1158.5277	1199.4316	1253.5688	1292.3328	1315.6609	1376.1071	1404.6433	1456.2296	1484.3206	1491.2925	1494.0149	1496.3042	1935.4468	2357.8998	2933.4953	2939.0224	2953.4507	3044.9548	3075.6518	3116.1658	3117.5989	3132.3551
CC1N(C)C(C#N)C1=O	C[C@H]1N(C)[C@@H](C#N)C1=O	
InChI=1S/C6H8N2O/c1-4-6(9)5(3-7)8(4)2/h4-5H,1-2H3	InChI=1S/C6H8N2O/c1-4-6(9)5(3-7)8(4)2/h4-5H,1-2H3/t4-,5+/m1/s1
