15
gdb 133007	3.6326	1.16048	0.88439	0.9792	76.87	-0.2059	-0.0545	0.1514	1230.5545	0.112872	-458.11307	-458.105163	-458.104219	-458.145831	29.098	
C	 0.1150388856	 1.3966498586	 0.0075143829	-0.324105
N	 0.0290681306	-0.0524623568	 0.0043655551	-0.327051
C	-1.1253909473	-0.597897125	 0.0114170355	 0.365534
N	-1.1798246374	-2.0054358444	 0.0084305803	-0.405251
C	-2.3408037124	-2.6923014839	 0.0150365467	 0.374404
F	-2.2002774194	-4.0063970407	 0.0106796275	-0.049644
C	-3.540466464	-2.0597836663	 0.0252803236	-0.213828
N	-3.5746722247	-0.6872861335	 0.0291068955	-0.213953
C	-2.4694447697	-0.0101242079	 0.0228399848	-0.084944
H	 1.1687981517	 1.6869572546	-0.0001640999	 0.122908
H	-0.3576913558	 1.8548344253	-0.8742290482	 0.114371
H	-0.3434312374	 1.8500568699	 0.8992031619	 0.114388
H	-0.2956470091	-2.4965258386	 0.000710599	 0.274258
H	-4.4712070729	-2.6085295432	 0.0305711751	 0.129036
H	-2.5433024376	 1.072745492	 0.0262949804	 0.123879
99.6474	118.086	204.2185	208.8141	265.2849	359.9883	437.1013	494.7997	542.43	580.6484	607.1862	678.0128	713.2771	739.1935	807.6566	913.8713	945.1185	1008.7421	1091.147	1112.0427	1130.2585	1164.7648	1260.46	1297.4189	1333.4546	1402.5805	1446.1461	1489.1083	1508.1481	1513.9757	1582.8506	1659.1496	1717.9295	2976.7797	3023.3873	3096.7228	3179.4063	3232.6657	3602.6442
CN=C1NC(F)=CN=C1	C[N]c1[nH]c(F)cnc1	
InChI=1S/C5H6FN3/c1-7-5-3-8-2-4(6)9-5/h2-3H,1H3,(H,7,9)	InChI=1S/C5H11FN3/c1-7-5-3-8-2-4(6)9-5/h4-5,8-9H,2-3H2,1H3
