17
gdb 81187	3.33014	1.05737	0.95229	3.9003	69.49	-0.2456	-0.0249	0.2208	1245.964	0.13326	-458.896622	-458.887976	-458.887032	-458.930976	31.543	
O	 0.135599637	 1.4689685224	-0.0715708294	-0.430394
C	 0.0290446299	 0.0763000076	-0.0295227866	 0.082622
C	-0.0967281921	-0.6943637613	 1.32388472	 0.000062
C	-1.4648174216	-0.0267174277	 1.5683108956	-0.268041
C	-1.4017951719	-0.5047324777	 0.0889606452	 0.377819
C	-2.4852237582	-0.6006812264	-0.9495604187	-0.41961
C	-3.6864562274	-1.3917461458	-0.4624964359	 0.156566
O	-4.8274254425	-1.0237023876	-0.5679457701	-0.238736
O	-0.7683274572	-1.7670627646	 0.5579014815	-0.343488
H	 1.067852309	 1.7065712771	-0.0824704428	 0.295137
H	 0.6505309323	-0.4406883466	-0.7691736292	 0.085453
H	 0.6704138301	-0.9957360067	 2.0365905415	 0.09591
H	-2.1456021621	-0.5889605775	 2.2089622459	 0.109908
H	-1.4822387725	 1.0485389017	 1.7470483632	 0.12045
H	-2.8102299658	 0.3965099797	-1.2591271782	 0.140792
H	-2.0743141103	-1.120041827	-1.8270696088	 0.134921
H	-3.4313167866	-2.3669472596	 0.0050640969	 0.100628
50.7181	57.2596	142.4012	241.3942	256.1621	283.4846	324.6844	450.4	459.1512	569.3242	606.8665	654.4758	727.0027	812.0358	849.9978	903.3304	910.8945	932.1954	981.3076	1035.7927	1049.1914	1070.64	1121.7597	1144.0939	1157.3328	1202.4471	1208.2019	1226.3095	1238.4577	1283.0178	1300.9001	1340.2155	1422.1516	1425.8396	1441.0269	1488.994	1834.3107	2908.0641	3020.9302	3055.5239	3083.3172	3106.7087	3126.2951	3163.1185	3826.6468
OC1C2CC1(CC=O)O2	O[C@H]1[C@H]2C[C@]1(CC=O)O2	
InChI=1S/C6H8O3/c7-2-1-6-3-4(9-6)5(6)8/h2,4-5,8H,1,3H2	InChI=1S/C6H8O3/c7-2-1-6-3-4(9-6)5(6)8/h2,4-5,8H,1,3H2/t4-,5+,6+/m1/s1
