21
gdb 69417	4.35157	0.89073	0.81066	1.0019	88.94	-0.2425	0.0598	0.3023	1472.9948	0.181197	-349.899797	-349.890543	-349.889599	-349.933771	35.685	
C	 0.0186868814	 1.5642988512	 0.0376273554	-0.497122
C	 0.0386394346	 0.0637207197	-0.0064116513	 0.375995
C	-0.9346988351	-0.8006167708	 0.7424168922	-0.32732
C	 0.5388962649	-0.9529464425	 1.0297451284	-0.127541
C	 1.2411355492	-1.7610425794	-0.0681526701	 0.035796
C	 0.9181977348	-3.2590899703	-0.1907001793	-0.370957
C	 1.5484121396	-3.8768588004	-1.3516137498	 0.303554
C	 2.0816232024	-4.3557338591	-2.3170878783	-0.45412
C	 0.6730491578	-0.7674286528	-1.1361873527	-0.305332
H	 1.0096288429	 1.9845011202	-0.1707090758	 0.115
H	-0.6757622251	 1.9744323285	-0.7062373713	 0.119377
H	-0.299751694	 1.9285993256	 1.020151484	 0.115738
H	-1.4962579291	-0.2960674175	 1.5231183508	 0.107366
H	-1.4977808738	-1.5812257267	 0.2350040961	 0.101297
H	 0.9373951983	-0.7746890718	 2.0226689997	 0.07924
H	 2.3260024401	-1.6453412012	 0.0033915519	 0.084278
H	 1.2456208237	-3.7735478989	 0.7227557657	 0.126874
H	-0.167831587	-3.4035072401	-0.2467968846	 0.126174
H	 2.5464704651	-4.7916608608	-3.1661047709	 0.192125
H	-0.0249110832	-1.1878112238	-1.8683205032	 0.096782
H	 1.4622299425	-0.2395069191	-1.6763910771	 0.102795
64.7973	101.5206	149.2396	214.0296	235.5588	311.2493	347.8102	357.1069	398.5332	484.0384	493.6618	614.2772	617.4373	631.7207	710.6336	802.7574	835.1187	876.372	897.665	945.4536	969.3341	974.3418	983.142	1007.8563	1053.0618	1069.0484	1076.2337	1102.2124	1131.1261	1145.409	1232.9554	1238.5934	1251.9538	1274.9962	1289.088	1328.993	1376.4269	1397.6971	1425.8282	1468.1231	1483.7023	1487.5934	1498.6693	1510.8399	2235.7811	3016.8853	3017.5362	3043.5787	3047.01	3069.5923	3074.3499	3093.1241	3103.3763	3105.6551	3165.5377	3190.0078	3507.4959
CC12CC1C(CC#C)C2	C[C@]12C[C@H]1[C@@H](CC#C)C2	
InChI=1S/C9H12/c1-3-4-7-5-9(2)6-8(7)9/h1,7-8H,4-6H2,2H3	InChI=1S/C9H12/c1-3-4-7-5-9(2)6-8(7)9/h1,7-8H,4-6H2,2H3/t7-,8-,9-/m0/s1
