23
gdb 86213	2.32646	1.42358	1.08848	0.9462	88.16	-0.2403	0.0233	0.2636	1254.9671	0.205291	-388.31368	-388.304152	-388.303207	-388.347421	36.963	
C	 0.0295400496	 1.5294577549	-0.05502869	-0.398104
C	 0.015311395	 0.002816039	-0.0032026745	 0.09775
O	 0.6473667794	-0.4588772684	-1.1883910202	-0.279711
C	 0.9571242823	-1.8497759071	-1.1639469505	 0.128385
C	 1.3134346819	-2.2539145856	-2.5871942376	-0.4137
C	 2.049621236	-2.1228810187	-0.1086500114	-0.028878
C	 3.4473732956	-1.6240069578	-0.5186550968	-0.392593
C	 1.6135266542	-1.4858013063	 1.1894367296	-0.091477
C	 0.6834487761	-0.5354185667	 1.2359320382	-0.064485
H	 1.0583432659	 1.8999962079	-0.0311503285	 0.124524
H	-0.4450940589	 1.8765884567	-0.9766943931	 0.123184
H	-0.5138543007	 1.9483550494	 0.7973459554	 0.11156
H	-1.0402986722	-0.3333495927	-0.0062865647	 0.06964
H	 0.0571790046	-2.4080065121	-0.8532580159	 0.0626
H	 2.1451226335	-1.6556714472	-2.9681404675	 0.127704
H	 1.5953472749	-3.3107674033	-2.630366593	 0.110737
H	 0.4552787832	-2.0966009804	-3.2460524115	 0.119637
H	 2.102551076	-3.2110248548	 0.040816791	 0.071205
H	 3.3995744625	-0.5692803893	-0.8044146345	 0.129104
H	 4.1497806693	-1.7153132569	 0.3159844933	 0.108723
H	 3.8539249105	-2.1952107335	-1.358583217	 0.111672
H	 2.0980480784	-1.8263523899	 2.1018361469	 0.086046
H	 0.365862793	-0.1039781773	 2.1821505122	 0.086479
79.0216	159.0922	206.7133	220.9916	236.7107	242.1389	274.4985	293.1767	354.424	414.5599	477.5041	490.5915	582.0865	605.5369	733.8636	764.5879	809.8273	839.148	871.6091	941.458	970.6227	997.7757	1003.7817	1015.0812	1071.7447	1096.4264	1103.7348	1125.4387	1140.1397	1156.7311	1203.9197	1215.7674	1314.1998	1335.0258	1337.9065	1345.9337	1372.8318	1394.9971	1397.3213	1403.7176	1409.8441	1423.8678	1480.43	1484.6029	1492.5278	1498.6036	1500.7366	1510.193	1721.3402	2903.5165	2949.6555	3000.7398	3036.6795	3042.6467	3045.0483	3101.9445	3115.7184	3118.1162	3118.6061	3123.8704	3126.0286	3140.9005	3166.0518
CC1OC(C)C(C)C=C1	C[C@H]1O[C@@H](C)[C@@H](C)C=C1	
InChI=1S/C8H14O/c1-6-4-5-7(2)9-8(6)3/h4-8H,1-3H3	InChI=1S/C8H14O/c1-6-4-5-7(2)9-8(6)3/h4-8H,1-3H3/t6-,7+,8-/m0/s1
