21
gdb 42334	4.13056	0.92001	0.84487	2.5709	84.66	-0.238	-0.0101	0.2279	1452.3906	0.182828	-387.090747	-387.081754	-387.08081	-387.125805	33.234	
O	 0.3245924044	-0.1287569042	 0.5419492592	-0.342702
C	 0.1078278965	 1.0239907019	 0.2209604102	 0.367839
C	 1.2192440769	 1.9623498492	-0.1153387987	-0.100165
C	 2.5152562287	 1.8152298222	 0.672667008	-0.248485
C	 2.4707958388	 1.3708466891	-0.7475349888	-0.249787
C	-1.2956369771	 1.5747587978	 0.1008592937	-0.075308
C	-1.8797892584	 1.6554326868	-1.3552530466	-0.223906
C	-3.2266866794	 1.1254797986	-0.7942020098	-0.209937
C	-2.4825220845	 0.6605609593	 0.4863171062	-0.234867
H	 0.9311068272	 2.9633416187	-0.4166506325	 0.085377
H	 3.0467036975	 2.7258267937	 0.9239996021	 0.116642
H	 2.5102389493	 1.0466040576	 1.4368772966	 0.13796
H	 2.4362803142	 0.3037876093	-0.9347319562	 0.137806
H	 2.9727060518	 1.9664481332	-1.5013204804	 0.116231
H	-1.345829915	 2.558257399	 0.5806345865	 0.081893
H	-1.8758250107	 2.6325883597	-1.8429693981	 0.100857
H	-1.3975489876	 0.9304396106	-2.0169733524	 0.114016
H	-3.9272477237	 1.9401012865	-0.5898115099	 0.101874
H	-3.7446126395	 0.3637677337	-1.3813277592	 0.101261
H	-2.1755856063	-0.3866920096	 0.441833733	 0.125973
H	-2.9639336729	 0.8467541968	 1.4486245071	 0.097426
38.4421	57.969	111.7169	156.1621	229.7958	272.9298	312.2155	354.1961	572.5192	675.0526	725.129	760.4646	788.7363	802.2398	830.1888	850.5196	886.3943	899.3816	937.3453	940.8025	962.3402	1013.4468	1025.6319	1063.3008	1091.4729	1102.3465	1114.9819	1129.8302	1147.0666	1207.8696	1211.1981	1222.0712	1227.7764	1249.4259	1257.9686	1277.9374	1278.2087	1351.7897	1409.1927	1453.0582	1480.2381	1484.3165	1487.515	1509.6147	1775.7806	3048.8348	3057.4919	3060.4865	3073.0962	3102.2895	3118.0525	3131.8551	3140.5033	3142.0377	3170.2234	3228.2749	3242.7002
O=C(C1CC1)C1CCC1	O=C(C1CC1)C1CCC1	
InChI=1S/C8H12O/c9-8(7-4-5-7)6-2-1-3-6/h6-7H,1-5H2	InChI=1S/C8H12O/c9-8(7-4-5-7)6-2-1-3-6/h6-7H,1-5H2
