17
gdb 47424	2.91308	1.41925	1.09008	3.1823	69.24	-0.2471	0.0138	0.261	1109.8858	0.13779	-455.122102	-455.114242	-455.113298	-455.155195	28.893	
N	 0.0541358049	 1.1998743751	 0.328665417	-0.530075
C	 0.030149951	-0.0329726561	 0.0823464424	 0.396173
O	 1.1053360718	-0.8370381541	-0.1715683728	-0.23329
C	 0.6149075752	-2.1268942402	-0.5278161588	 0.014163
O	-0.6868763604	-2.2268870974	-0.0152483288	-0.260443
C	-1.2170038312	-0.9024449155	 0.0139921969	-0.018907
C	-2.153502073	-0.7212914394	 1.1894978235	 0.000353
C	-3.0603862967	-1.8188993878	 1.5938416348	-0.246394
N	-1.911392805	-1.4398554424	 2.4422682123	-0.315099
H	 1.0055478604	 1.568265936	 0.306225412	 0.232234
H	 0.6250038637	-2.2195098145	-1.6251382553	 0.111383
H	 1.2469692304	-2.8928283675	-0.0715813705	 0.135461
H	-1.7532066398	-0.6822190317	-0.923314625	 0.113881
H	-2.4604265275	 0.3142209827	 1.308496413	 0.123259
H	-4.0365117609	-1.5899155161	 2.0112849972	 0.121189
H	-3.0014195626	-2.7518259328	 1.0406630981	 0.122404
H	-1.1648107003	-2.1146199584	 2.286618254	 0.23371
82.6764	90.2549	163.6806	186.1029	261.6829	344.1464	475.8637	545.2598	590.796	703.7387	752.8061	805.0712	853.8295	884.0245	896.5921	955.939	988.6628	992.4189	1003.3746	1055.5125	1081.6114	1121.611	1141.3319	1147.3175	1173.8606	1196.1555	1230.4101	1267.3428	1281.7236	1305.2079	1317.9726	1354.3146	1416.113	1444.657	1508.2808	1544.7198	1800.4389	2977.8258	2985.1948	3100.8751	3115.3728	3155.1705	3203.4059	3488.0105	3491.447
N=C1OCOC1C1CN1	[NH][C]1OCO[C@H]1[C@H]1CN1	
InChI=1S/C5H8N2O2/c6-5-4(3-1-7-3)8-2-9-5/h3-4,6-7H,1-2H2	InChI=1S/C5H8N2O2/c6-5-4(3-1-7-3)8-2-9-5/h3-4,6-7H,1-2H2/t3-,4+/m1/s1
