16
gdb 109495	2.21237	1.70089	0.99877	2.8471	66.65	-0.2389	-0.0433	0.1957	1138.5304	0.123357	-475.059237	-475.05054	-475.049595	-475.093258	30.85	
C	-0.0113347249	 1.501012552	-0.0771604344	-0.246331
O	 0.11214813	 0.0967921642	 0.1165341876	-0.231438
C	 0.5484469864	-0.594870496	-1.0057357321	-0.099815
C	 1.0344156769	-2.0053260344	-0.650512796	 0.365894
O	 1.6086772506	-2.3449577681	 0.3433989823	-0.275477
C	 0.6195869797	-2.9357980471	-1.8017736832	-0.273692
N	-0.3292799863	-2.1281706131	-2.5444256066	-0.321579
C	-0.5167687808	-0.8491822573	-2.0947158194	 0.392824
O	-1.3492661472	-0.0667038244	-2.4945670251	-0.367676
H	 0.9581716779	 1.9430033276	-0.3537150582	 0.105645
H	-0.7495983538	 1.7348215151	-0.8494709396	 0.150822
H	-0.3298685298	 1.9165328106	 0.8808377417	 0.132672
H	 1.3963760745	-0.0839472161	-1.5037230004	 0.115853
H	 1.5013488944	-3.215403171	-2.3944462481	 0.142389
H	 0.1806437658	-3.8540806998	-1.3959528222	 0.14945
H	-0.9251665034	-2.4986388021	-3.2690149063	 0.26046
55.2685	113.6356	150.6536	174.5717	200.8621	275.982	329.0611	423.3717	491.3383	517.4476	560.842	608.4731	676.1407	708.9515	817.4882	917.099	968.4519	1038.6019	1068.8996	1117.4631	1171.6536	1180.3848	1197.5974	1224.0117	1234.3921	1262.4872	1325.8179	1368.3442	1435.4402	1476.7956	1481.5721	1503.4779	1516.2297	1826.2917	1885.8422	2916.5391	2990.9479	3015.5091	3066.3824	3089.3292	3137.4801	3626.3448
COC1C(=O)CNC1=O	CO[C@H]1C(=O)CNC1=O	
InChI=1S/C5H7NO3/c1-9-4-3(7)2-6-5(4)8/h4H,2H2,1H3,(H,6,8)	InChI=1S/C5H7NO3/c1-9-4-3(7)2-6-5(4)8/h4H,2H2,1H3,(H,6,8)/t4-/m0/s1
