18
gdb 55753	3.90951	1.11553	1.02653	5.993	72.75	-0.2528	0.0257	0.2785	1184.2361	0.149098	-439.059398	-439.051822	-439.050878	-439.091897	29.487	
O	-0.0104984287	-0.1058152428	-0.5587374987	-0.376766
C	-0.0135373949	 1.1578345047	-0.1114026887	 0.411272
O	 0.9965247681	 1.7121520462	 0.2297404069	-0.3294
C	-1.3756494468	 1.8772898448	-0.0954014553	-0.490194
C	-2.5595670398	 0.9630306382	 0.0596216044	 0.330302
C	-2.8662104018	-0.0405178486	 1.2120660211	-0.226652
C	-3.8838657272	-0.3096264732	 0.0813474078	-0.021285
C	-4.0893823027	 1.2256973893	-0.048779749	-0.28355
N	-2.7160085911	-0.2327643478	-0.8914455213	-0.364254
H	-3.0451893279	 0.0966813083	-1.8041955335	 0.216347
H	-0.9269368485	-0.4151886962	-0.7666362969	 0.317664
H	-1.3404018796	 2.6177065715	 0.7072241857	 0.144874
H	-1.4583290466	 2.4364919196	-1.0369719866	 0.134879
H	-2.119526277	-0.8167591234	 1.3812278711	 0.122657
H	-3.2543912108	 0.3838004365	 2.1384039149	 0.108282
H	-4.6248926345	-1.1050640599	 0.0109561869	 0.098957
H	-4.5771475478	 1.7479170303	 0.7789336502	 0.107235
H	-4.4462824624	 1.5844486023	-1.0191704689	 0.099631
76.947	116.3399	182.5774	303.5983	338.0342	393.8309	543.8056	563.1571	602.6365	647.9239	729.7702	762.0989	800.2465	866.1002	874.8769	900.6103	918.0969	957.2496	978.9118	989.4925	1000.9462	1054.8891	1091.335	1119.9918	1148.3988	1186.5835	1203.0467	1217.9433	1228.6467	1253.9826	1263.3874	1301.1624	1317.3851	1357.4102	1452.877	1457.9894	1488.4291	1530.8592	1858.9482	3033.0591	3045.1113	3086.5974	3110.2307	3113.9873	3126.1541	3162.4123	3297.5023	3391.0662
[O-]C(=O)CC12CC(C1)[NH2+]2	OC(=O)C[C@@]12C[C@@H](C1)N2	
InChI=1S/C6H9NO2/c8-5(9)3-6-1-4(2-6)7-6/h4,7H,1-3H2,(H,8,9)	InChI=1S/C6H9NO2/c8-5(9)3-6-1-4(2-6)7-6/h4,7H,1-3H2,(H,8,9)/t4-,6+
