19
gdb 71107	2.50102	1.98233	1.55472	3.1109	77.54	-0.2299	-0.0039	0.226	940.307	0.161448	-385.92916	-385.921879	-385.920935	-385.960473	29.761	
C	-0.0258418665	 1.5015469414	 0.0337989919	-0.48096
C	 0.049317018	-0.0077091164	 0.0246957055	 0.147694
C	 0.7088656906	-0.7156962866	-1.191064416	-0.257927
C	 0.4701128859	-2.1590942252	-0.7433469936	-0.062498
C	 0.4923994293	-2.1670473015	 0.7570507134	-0.062492
C	 0.7445546949	-0.7284401357	 1.212761609	-0.257935
C	-0.8529573261	-2.1851596366	 0.0265592697	-0.178456
C	-1.3081284346	-0.7593124397	 0.0408267311	 0.435734
O	-2.416853033	-0.2938973764	 0.0597820022	-0.353275
H	 0.9728153169	 1.9502709632	 0.0208274059	 0.109982
H	-0.5773010543	 1.8689065673	-0.8370749933	 0.126357
H	-0.5502313432	 1.8596550104	 0.9250102155	 0.126339
H	 0.2085572194	-0.4691357049	-2.1337822869	 0.107169
H	 1.7735125204	-0.4749695286	-1.2871746122	 0.100044
H	 0.7756641176	-3.0155121648	-1.3297238605	 0.095094
H	 0.8151055071	-3.0295821615	 1.3249815343	 0.095095
H	 1.8116233866	-0.4885829167	 1.2797845474	 0.100046
H	 0.2724828096	-0.4919673252	 2.172473663	 0.107169
H	-1.5260117285	-3.0299806826	 0.0320836235	 0.10282
137.6783	178.4569	236.5087	302.0084	376.6353	419.3484	485.4548	598.4862	610.0142	642.0441	721.9753	790.8379	806.8561	836.4959	852.1781	886.8002	897.2344	943.7138	945.1993	989.7851	1019.804	1036.0031	1066.8366	1068.9931	1112.2063	1132.5515	1144.2711	1192.9932	1193.7249	1262.0511	1269.4286	1289.3257	1304.8095	1350.5034	1385.9036	1418.64	1487.1111	1491.9131	1492.5588	1508.1773	1861.4905	3033.9014	3035.1179	3039.8952	3080.9113	3082.7559	3104.4858	3109.0744	3198.412	3206.332	3229.4148
CC12CC3C(C1)C3C2=O	C[C@@]12C[C@H]3[C@@H](C1)[C@H]3C2=O	
InChI=1S/C8H10O/c1-8-2-4-5(3-8)6(4)7(8)9/h4-6H,2-3H2,1H3	InChI=1S/C8H10O/c1-8-2-4-5(3-8)6(4)7(8)9/h4-6H,2-3H2,1H3/t4-,5+,6-,8+
