21
gdb 100630	2.48013	1.0882	0.95743	2.3122	80.29	-0.2553	0.0515	0.3069	1341.8602	0.178689	-424.185649	-424.174762	-424.173818	-424.221012	40.74	
C	-0.1080999184	 1.5913176761	 0.0749827637	-0.430847
C	 0.0118271771	 0.0489073307	 0.0264469568	 0.01573
C	 0.6963375331	-0.4568080388	 1.319357781	-0.41512
C	-1.3371279789	-0.5263488006	-0.0434067525	 0.361196
C	-2.4421369963	-0.9984136626	-0.0706334981	-0.487579
C	 0.8093302192	-0.4410122202	-1.2223608024	 0.097161
O	 0.1940131971	-0.0494331768	-2.4504940153	-0.443338
C	 2.2903735534	-0.0385701287	-1.2755660381	-0.086918
O	 2.8791344665	-0.5330910866	-2.4594942358	-0.424327
H	 0.874763014	 2.0644354825	 0.1542713867	 0.122357
H	-0.6210659117	 1.9861169609	-0.8077608197	 0.117296
H	-0.6997529933	 1.8895236206	 0.9441386416	 0.134832
H	 0.0647923505	-0.2429615206	 2.1852636494	 0.12903
H	 0.8577449715	-1.5379578416	 1.2800102717	 0.129486
H	 1.661335643	 0.0345581475	 1.4731439693	 0.1208
H	-3.4167987049	-1.4181943377	-0.1093458417	 0.195153
H	 0.7620028221	-1.5349791708	-1.2365969367	 0.10764
H	 0.1267620483	 0.9123126935	-2.4594680201	 0.284091
H	 2.3856540374	 1.0599548443	-1.2137555153	 0.076595
H	 2.8461496301	-0.4646948428	-0.4353878978	 0.111322
H	 2.2085470603	-0.4138438481	-3.1453538467	 0.285441
61.8011	114.4566	131.8592	178.3992	226.7902	250.1744	261.2207	279.5975	310.4156	337.0498	349.4769	416.7389	417.5189	496.5403	528.535	566.6521	600.488	630.8867	638.7819	753.	855.0643	914.6864	940.8981	968.7978	1026.4428	1062.6709	1083.2485	1100.582	1145.1882	1207.5277	1224.5799	1236.5877	1292.5941	1319.5674	1380.6149	1397.1959	1415.9728	1426.2651	1448.1229	1480.5912	1492.0931	1500.2779	1508.7949	1513.3316	2233.5565	2950.144	3038.6351	3043.4569	3063.1869	3086.9666	3107.7849	3117.7247	3120.6705	3124.0609	3502.2139	3757.997	3796.9346
CC(C)(C#C)C(O)CO	CC(C)(C#C)[C@@H](O)CO	
InChI=1S/C7H12O2/c1-4-7(2,3)6(9)5-8/h1,6,8-9H,5H2,2-3H3	InChI=1S/C7H12O2/c1-4-7(2,3)6(9)5-8/h1,6,8-9H,5H2,2-3H3/t6-/m0/s1
