15
gdb 107382	3.30591	1.29557	1.04979	3.6355	60.96	-0.2828	0.0315	0.3143	1103.9033	0.112333	-494.921252	-494.913586	-494.912642	-494.953903	28.569	
O	 0.0818466969	 1.3938116072	 0.4114420959	-0.404706
C	 0.0143820685	 0.0845175689	-0.1169632513	-0.152645
C	-1.365243859	-0.5026830795	-0.0317857887	 0.371298
C	-1.9914210063	-1.0818705806	 1.2126489043	-0.371003
C	-1.7694204775	-1.9436766904	-0.0066602891	 0.011714
O	-2.8580263808	-2.0544767623	-0.8981791421	-0.241742
C	-3.1465922644	-0.8286819421	-1.4246523069	 0.486449
O	-4.0263950953	-0.6051184231	-2.1885334483	-0.360347
O	-2.2853091499	 0.1078596918	-0.9272734647	-0.28879
H	-0.4877479903	 1.9544059395	-0.1267830282	 0.298643
H	 0.3533481462	 0.0483595002	-1.1632512216	 0.110159
H	 0.6990974286	-0.5276785902	 0.4783682418	 0.119582
H	-1.3268654389	-1.2484975074	 2.0532440148	 0.141039
H	-3.0073685788	-0.7998646438	 1.4669261727	 0.146349
H	-1.1065599789	-2.7986308983	-0.0301983987	 0.134
74.1908	136.809	162.9336	273.6206	360.9056	369.4391	412.7091	475.8876	517.6948	683.9749	737.7798	771.9837	783.9233	856.148	901.5831	925.1746	980.9109	999.3952	1026.8596	1040.7321	1073.8353	1088.4859	1131.6005	1146.9855	1189.2265	1272.9959	1319.6129	1389.4933	1398.4425	1432.9525	1474.8024	1488.3279	1935.814	2997.4647	3085.8462	3138.8093	3204.7137	3234.4532	3811.985
OCC12CC1OC(=O)O2	OC[C@]12C[C@H]1OC(=O)O2	
InChI=1S/C5H6O4/c6-2-5-1-3(5)8-4(7)9-5/h3,6H,1-2H2	InChI=1S/C5H6O4/c6-2-5-1-3(5)8-4(7)9-5/h3,6H,1-2H2/t3-,5-/m1/s1
