21
gdb 80762	3.07483	0.98764	0.90247	2.9239	83.28	-0.2443	-0.0186	0.2257	1378.8636	0.181636	-387.069133	-387.05999	-387.059046	-387.103876	34.029	
C	 0.3215443947	 1.6466309681	-0.6864307887	-0.423441
C	 0.3821319826	 0.1639456616	-0.3769869124	 0.017915
C	 1.6005091039	-0.7096148712	-0.4732992692	-0.070428
C	 2.8523696231	-0.0056328738	 0.0726036068	-0.265698
C	 2.1614157465	 0.0922264591	 1.4762604364	 0.020826
C	 2.1049452354	 1.4222845202	 2.2419276495	-0.301991
C	 3.4615223328	 1.8016954088	 2.7884265848	 0.163611
O	 4.0418009561	 2.8309010859	 2.5557005293	-0.240732
C	 0.8842438682	-0.5124358504	 0.8763033025	-0.11176
H	 1.264117919	 2.1624022268	-0.4932425265	 0.126972
H	 0.0838360361	 1.7983845547	-1.745204648	 0.116096
H	-0.4577582317	 2.1435662486	-0.0982739298	 0.117571
H	-0.499443089	-0.3629036863	-0.741303183	 0.087123
H	 1.623894535	-1.5948569543	-1.0976093464	 0.085294
H	 3.7389069852	-0.6424533032	 0.0863189834	 0.10608
H	 3.1217667357	 0.9402125458	-0.4076502528	 0.107716
H	 2.6183409487	-0.6567854314	 2.1335891393	 0.080401
H	 1.7315397285	 2.2465734008	 1.6322751109	 0.121885
H	 1.4269450028	 1.2974096032	 3.0995289877	 0.115492
H	 3.9215022065	 1.0242476854	 3.4456741068	 0.066474
H	 0.2497348199	-1.2111328084	 1.4112769797	 0.080596
49.4015	65.8159	129.8448	193.6413	230.6408	255.5989	321.3767	367.8346	429.3237	499.4085	596.7004	687.5952	714.2016	785.1112	789.9361	860.1879	876.1801	914.3103	973.4585	985.8143	998.9298	1014.8886	1061.1532	1061.9647	1076.1132	1101.4454	1116.7631	1144.4595	1174.8817	1217.6469	1224.6262	1239.7155	1266.3606	1284.514	1308.555	1355.7617	1387.329	1415.34	1431.2906	1449.3408	1460.5938	1491.2106	1502.0437	1507.0778	1834.2264	2838.7347	3009.7703	3031.2543	3034.537	3054.0399	3088.8501	3108.0796	3110.6214	3124.8975	3133.9659	3160.3321	3181.1181
CC1C2CC(CC=O)C12	C[C@H]1[C@H]2C[C@@H](CC=O)[C@@H]12	
InChI=1S/C8H12O/c1-5-7-4-6(2-3-9)8(5)7/h3,5-8H,2,4H2,1H3	InChI=1S/C8H12O/c1-5-7-4-6(2-3-9)8(5)7/h3,5-8H,2,4H2,1H3/t5-,6+,7+,8+/m0/s1
