19
gdb 105099	2.82887	1.225	1.1062	2.2308	70.53	-0.2388	0.0691	0.3079	1174.2851	0.158028	-460.115005	-460.106046	-460.105102	-460.148771	34.25	
O	 0.0613512911	 1.5195474826	 0.419005325	-0.417156
C	 0.046765054	 0.1371219517	 0.6957213167	-0.130612
C	-1.1984235532	-0.5534231279	 0.153634632	 0.349488
C	-2.4356126055	 0.2182745757	-0.0181127756	-0.220858
O	-1.5795524599	-0.0507495778	-1.1495938493	-0.306312
C	-1.213553762	-2.0453079447	 0.3035950485	-0.149356
C	-2.097030545	-2.9024821809	-0.5890088695	-0.357345
C	-0.6087836051	-2.8978511224	-0.7938701369	 0.144668
O	-0.0205051701	-2.3234623924	-1.9190907152	-0.430562
H	-0.0960096289	 1.6004018902	-0.5302036862	 0.29157
H	 0.9264580561	-0.3742641226	 0.2743346559	 0.113494
H	 0.0858771869	 0.0243906106	 1.7848698662	 0.115899
H	-3.3887179037	-0.3049972165	-0.0339715065	 0.1212
H	-2.4576251263	 1.2618176706	 0.282459742	 0.134879
H	-1.0658467013	-2.3786365746	 1.3277813024	 0.092286
H	-2.57724989	-3.7754506983	-0.1607124194	 0.115258
H	-2.6877718121	-2.3791384606	-1.334648	 0.124254
H	-0.0493465933	-3.7784063262	-0.4958098305	 0.108395
H	-0.5652401715	-1.5724804466	-2.1857821297	 0.300809
56.7019	121.4273	164.1333	202.8895	270.6491	333.6854	365.9007	390.9113	430.8092	461.8487	475.6822	534.552	662.0423	700.7557	788.0168	794.8661	831.4712	875.9405	919.9129	989.2032	1024.3855	1039.5547	1066.5161	1068.9607	1108.4859	1121.6426	1131.999	1134.4446	1177.8916	1189.303	1222.7331	1237.9244	1343.3484	1362.8435	1382.0155	1421.2301	1434.0161	1447.0038	1483.1653	1499.3494	1510.9161	2988.767	3070.5042	3108.1871	3127.6123	3138.2652	3168.51	3206.9979	3217.2536	3779.6548	3781.497
OCC1(CO1)C1CC1O	OC[C@]1(CO1)[C@H]1C[C@H]1O	
InChI=1S/C6H10O3/c7-2-6(3-9-6)4-1-5(4)8/h4-5,7-8H,1-3H2	InChI=1S/C6H10O3/c7-2-6(3-9-6)4-1-5(4)8/h4-5,7-8H,1-3H2/t4-,5+,6-/m0/s1
