18
gdb 57861	2.25517	1.32415	0.97157	4.3955	75.76	-0.2549	0.0088	0.2637	1258.1258	0.144634	-439.069705	-439.05937	-439.058426	-439.105394	36.445	
C	 0.0849321784	 1.4565081785	-0.011602559	-0.347559
N	 0.0621343109	 0.0002751424	 0.0028746674	-0.087591
C	 0.0328759445	-0.6133251387	 1.3191459678	-0.342936
C	 0.0388189126	-0.6700419744	-1.1729470905	 0.40661
O	 0.0405582889	-0.1200696362	-2.2669995785	-0.402092
C	-0.0065699034	-2.231307848	-1.1697717662	-0.134423
O	-0.293896322	-2.6539256435	-2.473782792	-0.412694
C	 1.2653904657	-2.7824877371	-0.6787723536	 0.33335
C	 2.3061013708	-3.2381957111	-0.2858681763	-0.487086
H	 0.9840042068	 1.82788761	 0.4941995741	 0.130057
H	 0.0811849981	 1.794900122	-1.0457208932	 0.174248
H	-0.7936361097	 1.8562184316	 0.5089519078	 0.127987
H	 0.1570218828	-1.6917640121	 1.2600779891	 0.159768
H	 0.8557819171	-0.2202811576	 1.9275302339	 0.135631
H	-0.9096157325	-0.3853013893	 1.8336118874	 0.129523
H	-0.8179676725	-2.5633756453	-0.5063389866	 0.116074
H	-0.159078243	-1.8523892415	-3.0133454383	 0.297657
H	 3.2261933965	-3.6483468297	 0.0510752067	 0.203476
60.1129	83.6884	103.7583	142.0797	158.7532	230.5744	251.4766	262.0586	365.8221	387.0627	431.3206	470.0361	513.8577	587.5037	618.2961	632.3859	669.2129	707.7364	850.7069	944.858	988.2938	1084.5867	1112.9851	1130.0353	1172.708	1180.9268	1239.8911	1280.9337	1356.1659	1425.7631	1436.6726	1465.6395	1476.7226	1484.8664	1501.5891	1503.6251	1547.7498	1749.6994	2228.9283	3001.0225	3016.7081	3024.6783	3068.0912	3074.0908	3176.6123	3179.9354	3501.0957	3605.5328
CN(C)C(=O)C(O)C#C	CN(C)C(=O)[C@@H](O)C#C	
InChI=1S/C6H9NO2/c1-4-5(8)6(9)7(2)3/h1,5,8H,2-3H3	InChI=1S/C6H9NO2/c1-4-5(8)6(9)7(2)3/h1,5,8H,2-3H3/t5-/m0/s1
