18
gdb 69790	2.55775	1.90516	1.32058	2.1547	75.36	-0.2385	-0.0288	0.2097	993.1903	0.147971	-401.92945	-401.921717	-401.920773	-401.961387	30.51	
C	 0.192982545	 1.5212655088	 0.0244024793	-0.468204
C	-0.0218498086	 0.0287026778	 0.0353518215	 0.207068
C	-0.953165139	-0.6367442579	 0.9941835748	-0.291565
N	 0.4960257984	-0.79260914	 1.1456582934	-0.142549
C	 1.1046896959	-2.0121353047	 0.5753843092	-0.000952
C	 0.2837769868	-3.0532304355	-0.1197490972	-0.307519
C	 1.0039175142	-1.9869738931	-0.933094444	-0.1446
C	 0.284734238	-0.7027886202	-1.2670727988	 0.35385
O	 0.1276776314	-0.2403241135	-2.3693066283	-0.324213
H	 1.2305450869	 1.7666264536	-0.2233020818	 0.127546
H	-0.4497584907	 1.980235545	-0.732601281	 0.139974
H	-0.0399729864	 1.9527236966	 1.0008222013	 0.123684
H	-1.4203209137	-0.0242589726	 1.7616442433	 0.123826
H	-1.5645262238	-1.4701803768	 0.6675243653	 0.12093
H	 2.0109505404	-2.3124338695	 1.0877267936	 0.109099
H	 0.7171367336	-4.0460475	-0.1809121746	 0.128076
H	-0.7969985353	-3.0598841277	-0.0658348352	 0.129673
H	 1.7926602868	-2.2894489303	-1.6107854507	 0.115875
128.5777	158.2044	178.907	257.4152	295.3054	405.4374	458.6869	498.9868	591.32	603.504	669.8086	754.5195	757.1688	806.1479	814.158	851.8897	927.1189	955.6119	968.0078	987.8899	1027.3849	1045.7853	1096.1669	1106.1128	1111.1383	1117.1365	1139.4903	1164.4894	1198.2156	1294.5033	1314.161	1347.0812	1363.0306	1409.1806	1477.183	1480.5446	1492.4098	1524.0416	1829.16	3042.7684	3111.24	3114.9642	3128.4207	3144.8535	3178.3306	3193.0823	3202.9849	3229.0651
CC12CN1C1CC1C2=O	C[C@]12CN1[C@H]1C[C@H]1C2=O	
InChI=1S/C7H9NO/c1-7-3-8(7)5-2-4(5)6(7)9/h4-5H,2-3H2,1H3	InChI=1S/C7H9NO/c1-7-3-8(7)5-2-4(5)6(7)9/h4-5H,2-3H2,1H3/t4-,5+,7-,8?/m1/s1
