19
gdb 37825	2.88503	1.88525	1.67616	1.8007	78.1	-0.2232	0.0767	0.2999	907.6338	0.161002	-385.795314	-385.788583	-385.787638	-385.826145	28.324	
C	-0.2191350471	 1.5358096169	 0.0122120261	-0.326697
C	 1.319595351	 1.3780189557	-0.028414523	-0.169403
C	 1.2803658099	 0.0834177135	 0.8630227809	 0.022026
O	 2.0665048756	-0.7288376223	-0.0530694227	-0.361196
C	 1.206369876	 0.0973746387	-0.9151622538	 0.445315
C	 0.8297293854	-0.3977046854	-2.2945456148	-0.354275
C	-0.6106778072	-0.9988444291	-2.0889841591	-0.2013
C	-0.8488147666	-1.140779043	-0.545974806	-0.347442
C	-0.0268278028	 0.0002591464	 0.0114034916	 0.253527
H	-0.6480354755	 1.9823705357	 0.9136898958	 0.097112
H	-0.6777321146	 1.9751847074	-0.8791414752	 0.098977
H	 2.1023101993	 2.1378114157	-0.037454418	 0.08032
H	 1.452378097	-0.0251524417	 1.9347486556	 0.08958
H	 0.8328767881	 0.3911981074	-3.0509902921	 0.113336
H	 1.550433564	-1.1573523759	-2.609083534	 0.128485
H	-1.3511851307	-0.309188464	-2.5081006907	 0.106088
H	-0.7391861859	-1.951367617	-2.610486315	 0.103862
H	-1.9108126629	-1.1218494333	-0.2880748842	 0.101639
H	-0.4310151132	-2.0889325456	-0.1916865015	 0.120047
117.3501	227.9232	276.9344	398.0074	452.0279	503.5569	580.5816	656.4453	713.7093	741.9467	768.0704	804.0493	830.892	847.3569	873.3709	893.1592	927.4433	938.4146	960.7278	967.2053	995.9662	1030.7197	1086.1765	1101.3925	1124.2852	1152.7224	1172.7485	1187.51	1201.2038	1210.4014	1249.0651	1270.004	1292.0467	1304.8855	1313.8305	1343.8251	1357.874	1467.4112	1474.0904	1497.4834	1518.7169	3045.2802	3047.5344	3053.1529	3066.7253	3089.8204	3099.644	3102.1965	3104.4811	3115.3098	3115.8811
C1C2C3OC22CCCC132	C1[C@H]2[C@@H]3O[C@@]42CCC[C@@]134	
InChI=1S/C8H10O/c1-2-7-4-5-6(7)9-8(5,7)3-1/h5-6H,1-4H2	InChI=1S/C8H10O/c1-2-7-4-5-6(7)9-8(5,7)3-1/h5-6H,1-4H2/t5-,6-,7+,8+/m0/s1
