12
gdb 21565	4.06459	1.90994	1.30023	4.7636	61.4	-0.2377	-0.0537	0.1839	848.2871	0.084306	-414.658122	-414.651466	-414.650522	-414.688817	25.1	
N	 0.0338908084	 1.3716709368	 0.1505001736	-0.557036
C	-0.059919512	 0.014671171	 0.0549560795	 0.499152
C	-1.215093028	-0.7095986307	 0.0298386496	-0.379648
C	-1.1424297033	-2.1400126409	-0.0133272559	 0.374867
O	-2.0753656933	-2.9305424866	-0.0414695205	-0.380499
C	 0.2655103127	-2.6283270958	-0.0246209037	-0.051408
N	 1.3381710951	-1.9292619772	-0.0072648387	-0.052931
O	 1.1709416338	-0.5360798179	 0.0291005535	-0.271233
H	 0.919695592	 1.7800789453	-0.104983331	 0.27598
H	-0.7837691924	 1.9069637834	-0.0914988258	 0.275635
H	-2.1759937339	-0.2112977331	 0.0497005462	 0.111668
H	 0.4306938308	-3.7025389242	-0.0530180868	 0.155452
148.0075	183.2843	330.4944	356.7424	421.7686	429.0003	481.7453	514.9331	551.9382	691.5819	726.2167	734.2071	837.2987	891.5123	956.9511	972.8404	994.0161	1095.7298	1243.9661	1286.503	1323.395	1435.6078	1615.4096	1648.1539	1682.0955	1754.6918	3179.1387	3211.5221	3594.6001	3712.7918
NC1=CC(=O)C=NO1	Nc1cc(=O)cno1	
InChI=1S/C4H4N2O2/c5-4-1-3(7)2-6-8-4/h1-2H,5H2	InChI=1S/C4H4N2O2/c5-4-1-3(7)2-6-8-4/h1-2H,5H2
