19
gdb 84242	2.49555	2.00555	1.37652	2.3325	80.31	-0.2341	-0.0392	0.1948	992.1503	0.159008	-381.981485	-381.97359	-381.972646	-382.013344	31.376	
C	 0.0731491975	 1.5870536576	-0.0596925981	-0.388476
C	 0.0951491425	 0.0639552415	 0.0048681573	-0.01589
N	 0.9864612222	-0.4551349164	-1.071023268	-0.208047
C	 1.6194447103	-1.411163136	-0.5165940419	 0.141612
C	 3.0443954459	-1.2129774335	-0.0540159081	-0.265044
C	 2.2381723664	-1.0066196844	 1.2839538604	-0.11069
N	 1.143393706	-1.912196045	 0.8116641489	-0.166012
C	 0.7460090931	-0.5732065412	 1.2556692958	 0.290862
C	 0.0498736128	-0.4439800296	 2.5877199748	-0.488539
H	 1.0895725636	 1.9889364965	-0.0221699472	 0.121137
H	-0.3922652157	 1.9224580429	-0.9899295279	 0.130316
H	-0.4987740697	 1.997985251	 0.7790822055	 0.113205
H	-0.9364169731	-0.317832206	-0.0603048975	 0.088186
H	 3.6710404209	-2.100762401	 0.0672674771	 0.129276
H	 3.580212738	-0.3909884502	-0.526090325	 0.130306
H	 2.7047197014	-1.1963102636	 2.2501280447	 0.106249
H	 0.0867502015	 0.5893795482	 2.9471155867	 0.128676
H	-1.0023756792	-0.7328614422	 2.4921113212	 0.131647
H	 0.5067787455	-1.0859227087	 3.3448288211	 0.131225
137.2773	180.684	216.1769	235.7211	289.0405	333.1	430.6933	456.0652	550.4821	577.7117	638.7944	694.4994	755.7571	776.8707	836.5076	856.4438	882.2451	959.629	982.2129	1009.7769	1031.3956	1042.1033	1060.8813	1082.1387	1098.6159	1137.1721	1143.75	1189.4859	1230.1489	1255.1032	1284.9301	1333.3402	1365.0405	1403.29	1414.6463	1482.693	1484.3375	1488.8769	1489.3992	1495.3856	1634.3566	2975.1048	3037.1428	3040.4221	3067.529	3101.7355	3111.3615	3113.4317	3121.4022	3125.2556	3156.4896
CC1N=C2CC3N2C13C	C[C@H]1[N][C]2C[C@@H]3N2[C@]13C	
InChI=1S/C7H10N2/c1-4-7(2)5-3-6(8-4)9(5)7/h4-5H,3H2,1-2H3	InChI=1S/C7H10N2/c1-4-7(2)5-3-6(8-4)9(5)7/h4-5H,3H2,1-2H3/t4-,5+,7-,9?/m1/s1
