19
gdb 113712	2.67052	0.96464	0.79772	1.5237	77.54	-0.2643	0.0426	0.3069	1467.7272	0.156162	-422.965325	-422.955206	-422.954262	-423.001315	36.422	
C	 0.3342891683	 1.3024175272	 0.1370109536	-0.395869
C	-0.264348911	-0.1115000046	-0.017150609	-0.192782
C	-1.7258523008	-0.0853425926	-0.028498255	 0.328259
C	-2.9270259096	-0.056336199	-0.0633772501	-0.473346
C	 0.2530377884	-0.7595853173	-1.2967689093	 0.068608
O	 1.6038893866	-1.2222365933	-1.2823620874	-0.276352
C	 0.54762036	-2.1886929265	-1.4684512862	 0.034863
C	 0.4307819129	-3.2454414309	-0.3988615391	-0.089137
O	 1.4776751835	-4.1950234929	-0.5130898663	-0.417569
H	 1.4258145217	 1.2407713197	 0.1452896524	 0.134747
H	 0.0259357313	 1.9450163113	-0.6930130828	 0.128026
H	-0.0023795424	 1.7643447941	 1.0680933536	 0.128366
H	 0.0716714101	-0.7143377705	 0.8334162402	 0.111566
H	-3.9886283607	-0.0358780682	-0.0811723279	 0.200155
H	-0.0149580861	-0.201738383	-2.1966475302	 0.100751
H	 0.5062002182	-2.5888634163	-2.4828965976	 0.101254
H	 0.4131484731	-2.7886995384	 0.5996778218	 0.094511
H	-0.5042606468	-3.8004184218	-0.5301317234	 0.121003
H	 2.3061253732	-3.706718477	-0.4468611073	 0.292948
35.3173	68.6661	123.6517	147.548	203.8692	227.3306	248.3319	300.6421	390.9998	408.1027	463.4424	512.2016	521.9694	603.768	635.7015	648.0231	794.9997	816.2783	878.2237	943.1863	969.226	1037.1666	1063.9227	1069.2858	1096.7873	1118.2921	1163.3295	1183.3423	1229.5593	1280.4487	1300.3245	1320.2925	1360.7392	1393.9264	1404.7361	1429.9958	1488.4191	1492.0735	1495.3794	1499.298	2236.1574	3015.4493	3045.4631	3051.514	3077.7451	3087.2481	3106.6139	3122.3544	3130.3919	3503.4514	3802.0588
CC(C#C)C1OC1CO	C[C@@H](C#C)[C@H]1O[C@H]1CO	
InChI=1S/C7H10O2/c1-3-5(2)7-6(4-8)9-7/h1,5-8H,4H2,2H3	InChI=1S/C7H10O2/c1-3-5(2)7-6(4-8)9-7/h1,5-8H,4H2,2H3/t5-,6-,7+/m0/s1
