15
gdb 129340	5.60582	0.85274	0.74362	15.8592	72.82	-0.2162	-0.0684	0.1478	1423.4225	0.113241	-446.256138	-446.248027	-446.247083	-446.289921	28.509	
N	 0.0942405026	 1.1812153346	 0.1853981732	-0.485038
H	 0.215037724	 0.1839125071	 0.1767224875	 0.30055
H	 0.912577986	 1.7581225203	 0.3063887657	 0.305821
C	-1.1180981802	 1.719803876	 0.0365313296	 0.209506
N	-1.3550988186	 2.9819409123	 0.0340970495	-0.214939
C	-2.6675411175	 3.646878805	-0.1244315558	-0.289023
C	-2.2926656076	 5.0969235655	-0.0425882753	 0.384403
N	-0.9967453695	 5.3824592756	 0.1355943414	-0.326903
N	-0.9475865149	 6.7253862854	 0.1718913298	-0.165367
N	-2.1635501818	 7.1924516717	 0.0209944619	-0.148421
N	-3.0504326141	 6.1760333627	-0.1191417866	-0.336483
H	-1.9420271815	 1.0196724188	-0.0888502128	 0.172362
H	-0.6479689571	 3.7953976912	 0.1461569093	 0.296345
H	-3.1150278914	 3.3721570155	-1.0864015575	 0.148581
H	-3.3477118987	 3.3328385681	 0.6754894302	 0.148604
38.988	132.0597	143.0271	208.4756	260.8872	308.4597	335.8495	398.9328	600.2084	602.4277	715.1627	740.7507	758.6558	961.1845	974.7311	1022.9809	1026.7644	1066.0426	1090.1111	1099.4025	1123.9194	1167.2847	1197.7974	1232.9923	1289.5792	1325.1674	1348.2358	1431.985	1456.8772	1500.9521	1535.9882	1653.967	1786.557	2562.4861	3030.9265	3068.4172	3167.4245	3604.5836	3736.6233
[NH2+]=CNCC1=N[N-]N=N1	[NH2]=CNCc1nnnn1	
InChI=1S/C3H5N6/c4-2-5-1-3-6-8-9-7-3/h2H,1H2,(H2-,4,5,6,7,8,9)/q-1/p+1	InChI=1S/C3H7N6/c4-2-5-1-3-6-8-9-7-3/h2,5H,1,4H2,(H,6,7,8,9)
