20
gdb 106392	3.24609	1.44482	1.25312	0.7481	78.22	-0.2285	0.0754	0.3039	1063.1067	0.172787	-403.085305	-403.077673	-403.076729	-403.117221	31.118	
O	 0.0175291722	 1.4211569507	-0.0369635225	-0.426224
C	-0.0124569651	 0.0012157598	 0.0208632525	-0.198133
C	-1.4513430258	-0.4378488243	-0.0339163738	 0.36657
C	-2.5377596494	 0.0235055401	 0.9902231629	-0.238495
C	-3.481102023	-0.5482988092	-0.1282669115	-0.063685
C	-2.4503252126	 0.040533005	-1.1254232048	-0.283907
C	-3.0795384812	-2.0271455232	-0.0246435967	-0.015735
C	-2.1868831114	-2.6397461611	-1.040680224	-0.263932
N	-1.5970461786	-1.9285664142	 0.1100941713	-0.153542
H	 0.9345722522	 1.7029669319	 0.0221906048	 0.289788
H	 0.5370432276	-0.447615671	-0.8227672741	 0.088185
H	 0.440714807	-0.3806212343	 0.9480655147	 0.098921
H	-2.5344826776	-0.4821975784	 1.9591696324	 0.096059
H	-2.5919666126	 1.1067731495	 1.1049788623	 0.109273
H	-4.5432057867	-0.3107242465	-0.1776180935	 0.065208
H	-2.4892530857	 1.1289726215	-1.1531490821	 0.117505
H	-2.3879071289	-0.3424328375	-2.1447450267	 0.090019
H	-3.6005683409	-2.654388976	 0.6944857636	 0.091866
H	-2.0267294183	-3.7137887462	-0.9936606146	 0.113852
H	-2.1127682911	-2.2324826267	-2.0421716002	 0.116411
94.0475	175.7391	226.7153	274.6039	353.6498	415.3699	446.9302	554.3072	565.5959	641.4971	660.6395	750.7775	787.9221	827.7153	845.0528	870.3761	923.7966	954.9804	971.3013	983.3629	1019.8046	1053.4602	1058.0914	1079.2224	1093.4515	1111.4808	1116.7111	1136.7134	1158.2601	1174.2944	1209.638	1216.0365	1235.7991	1255.8832	1275.3412	1293.3173	1324.4305	1362.9036	1467.2705	1477.0462	1501.7898	1513.9503	1544.1918	2968.411	3007.5515	3067.1722	3086.6509	3119.9858	3122.6787	3137.7577	3140.1038	3146.679	3206.4178	3837.6665
OCC12CC(C1)C1CN21	OC[C@@]12C[C@@H](C1)[C@H]1CN21	
InChI=1S/C7H11NO/c9-4-7-1-5(2-7)6-3-8(6)7/h5-6,9H,1-4H2	InChI=1S/C7H11NO/c9-4-7-1-5(2-7)6-3-8(6)7/h5-6,9H,1-4H2/t5-,6-,7+,8?/m1/s1
