15
gdb 67678	2.71835	1.88662	1.37858	2.97	65.17	-0.2322	-0.0062	0.226	916.1329	0.113012	-457.7445	-457.737459	-457.736515	-457.775856	27.549	
O	 0.1323889684	 1.3734568498	-0.1735301987	-0.448999
C	 0.1355939077	 0.018444827	-0.0721357942	 0.301087
C	-0.2675972373	-0.8607168524	-1.223871674	-0.140361
C	 0.5615504306	-2.1181284705	-1.4783729762	-0.102523
O	 0.4890872216	-2.8691212603	-0.2634103805	-0.25976
C	-0.0808653952	-2.0264619413	 0.7298927836	-0.041024
C	-1.0547993779	-1.0688163024	 0.0290429264	-0.170237
C	 0.7675546818	-0.75721976	 1.0252993171	 0.327007
O	 1.3983404514	-0.3660411148	 1.9761314896	-0.358196
H	 0.3582771431	 1.7197863963	 0.7013411307	 0.30795
H	-0.7190259573	-0.3288251562	-2.0541361692	 0.121142
H	 0.1396904469	-2.7221113518	-2.2901675619	 0.113812
H	 1.6050806694	-1.8806125077	-1.7197891632	 0.114282
H	-0.397519897	-2.62148395	 1.5835883785	 0.10932
H	-2.1074792862	-0.9027834356	 0.2004861719	 0.126501
119.8908	215.672	244.4238	263.0933	409.5585	425.3843	456.159	594.8319	652.4933	668.6411	742.7857	773.7573	843.0308	864.4336	892.7628	919.1427	939.0721	954.8094	993.9191	1052.0226	1075.3539	1104.2648	1145.353	1188.9068	1218.4515	1224.974	1294.895	1308.8689	1375.3281	1393.1511	1468.8724	1522.2957	1835.7037	3021.8558	3063.3306	3155.7978	3188.3435	3242.3211	3752.6999
OC12C3COC(C13)C2=O	O[C@]12[C@H]3CO[C@H]([C@@H]13)C2=O	
InChI=1S/C6H6O3/c7-5-4-3-2(1-9-4)6(3,5)8/h2-4,8H,1H2	InChI=1S/C6H6O3/c7-5-4-3-2(1-9-4)6(3,5)8/h2-4,8H,1H2/t2-,3-,4+,6+/m0/s1
