13
gdb 5292	5.14325	1.63315	1.24084	1.8054	61.61	-0.2286	-0.0173	0.2113	897.3018	0.097902	-394.82056	-394.813821	-394.812877	-394.851659	25.104	
N	-0.1097541784	 1.323919302	 0.1319175011	-0.555245
C	 0.0631158505	-0.0352167677	 0.0181375426	 0.237814
N	 1.1612698084	-0.6926699828	-0.053278521	-0.532302
C	-1.2065724771	-0.7854681088	 0.0236186687	 0.289244
C	-1.3997869154	-2.1282306953	 0.0297297143	-0.092046
O	-2.7433591418	-2.3597743138	 0.0241967864	-0.136708
C	-3.3012651661	-1.1277815586	 0.0138909717	 0.068472
N	-2.4505824681	-0.1565178187	 0.013424663	-0.32925
H	 0.6600961703	 1.9242986648	-0.1122229556	 0.24784
H	-1.0387874001	 1.682576087	-0.0279618744	 0.268997
H	 1.9684778062	-0.0673558689	-0.0402253423	 0.199399
H	-0.746753368	-2.9816482226	 0.0374374264	 0.176244
H	-4.3785736203	-1.0799655367	 0.0070635791	 0.157541
85.996	203.5963	210.2951	362.9718	407.3167	492.4515	519.6441	601.4924	653.011	659.0219	755.8917	820.7577	843.7995	852.8485	936.4216	980.7844	1094.0797	1099.108	1127.8399	1146.339	1219.9933	1258.2158	1343.4694	1424.1639	1557.2425	1611.1637	1644.2214	1713.7176	3279.0459	3317.7641	3460.3594	3582.0709	3708.9272
NC(=N)C1=COC=N1	NC(=N)c1cocn1	
InChI=1S/C4H5N3O/c5-4(6)3-1-8-2-7-3/h1-2H,(H3,5,6)	InChI=1S/C4H5N3O/c5-4(6)3-1-8-2-7-3/h1-2H,(H3,5,6)
