14
gdb 50813	3.65102	0.99136	0.77966	3.5628	69.17	-0.2443	-0.1286	0.1156	1355.3687	0.099735	-470.011412	-470.002436	-470.001492	-470.046295	30.593	
N	 0.2895395163	 1.3300080021	 0.2774620937	-0.397163
C	 0.0131249242	 0.1168167457	 0.0342535173	 0.083762
N	-1.2711306468	-0.3947763618	-0.0769110225	-0.309087
C	-2.4973407831	 0.2342965493	 0.0383217944	 0.264664
N	-2.6679087204	 1.4741919169	 0.2818013275	-0.470952
C	-3.613991986	-0.7698881406	-0.1690684329	 0.258524
O	-3.3973775077	-1.9413922629	-0.3996622149	-0.29672
C	-5.0976486459	-0.3659967716	-0.100145477	 0.104896
O	-5.5335048687	 0.7330682071	 0.1145108741	-0.213865
H	 1.3011889723	 1.4477586082	 0.3080157154	 0.228502
H	 0.7469627059	-0.6848501962	-0.1202104112	 0.094086
H	-1.348000938	-1.3822343099	-0.2737401746	 0.267147
H	-3.6641122473	 1.6867982497	 0.3160697671	 0.256978
H	-5.7420382248	-1.251067806	-0.2803579163	 0.129227
50.8724	78.2858	115.8714	153.4777	191.8367	271.7774	283.5664	383.6514	421.1043	504.5884	628.0316	632.4727	669.7043	711.7927	822.801	902.7051	903.8352	978.7462	1027.6554	1061.2723	1154.7193	1217.7624	1273.956	1347.0875	1380.2495	1432.0017	1579.7992	1682.3378	1741.9576	1768.1686	1826.8355	2938.541	3030.7087	3496.5741	3505.0637	3608.8813
N=CNC(=N)C(=O)C=O	N=CNC(=N)C(=O)C=O	
InChI=1S/C4H5N3O2/c5-2-7-4(6)3(9)1-8/h1-2H,(H3,5,6,7)	InChI=1S/C4H5N3O2/c5-2-7-4(6)3(9)1-8/h1-2H,(H3,5,6,7)
