19
gdb 120970	3.19593	1.19354	1.10787	0.3952	71.81	-0.2306	0.0883	0.3188	1196.4845	0.158057	-460.121164	-460.112441	-460.111496	-460.155536	31.6	
C	-0.174234255	 1.1313471221	 0.2418562837	-0.224853
O	-0.0741160523	-0.2634101552	 0.0815019551	-0.221293
C	 0.6133391314	-0.6337995955	-1.0840269766	-0.084569
C	 0.6830294664	-2.1508996917	-1.1872762596	 0.21534
O	 1.3654402476	-2.6981398665	-0.0686791367	-0.274853
C	 0.5819368759	-3.7348690199	 0.4675375488	 0.065578
C	-0.6956950306	-3.324982906	 1.1712309254	-0.343252
C	-0.6991394371	-3.742516206	-0.2851925749	 0.065607
O	-0.6212393111	-2.7101316805	-1.236143712	-0.274812
H	 0.8169618263	 1.6061730447	 0.3133839535	 0.106598
H	-0.7207320341	 1.5998879619	-0.5917281342	 0.106578
H	-0.7211573876	 1.3142469285	 1.169702053	 0.129198
H	 0.1080747104	-0.2504777187	-1.9861626782	 0.095739
H	 1.6439624125	-0.2415245614	-1.0831340618	 0.095735
H	 1.2281592211	-2.4111930805	-2.1122323994	 0.076046
H	 1.1492219608	-4.6149619657	 0.7468742078	 0.104893
H	-1.1159109892	-4.0181171021	 1.8933236481	 0.108874
H	-0.822917974	-2.2689083649	 1.3771406065	 0.148546
H	-1.2114499113	-4.6290808125	-0.6400793884	 0.104899
58.235	70.6732	103.0462	187.1638	230.1689	298.0536	340.7646	345.9955	461.3003	682.5256	738.7506	744.8636	766.6111	801.354	846.2216	901.4444	947.1929	1009.6927	1011.0065	1034.7768	1064.6645	1069.299	1098.9673	1105.9049	1126.821	1161.6697	1185.9736	1186.2543	1217.6433	1235.2095	1270.5035	1306.8247	1376.5048	1377.8279	1411.1661	1422.5552	1458.8684	1478.3851	1486.4649	1496.7138	1520.1447	2938.8406	2964.7112	2976.2293	2998.7782	3017.9169	3116.8836	3131.6601	3173.4629	3183.0491	3239.4334
COCC1OC2CC2O1	COC[C@H]1O[C@H]2C[C@H]2O1	
InChI=1S/C6H10O3/c1-7-3-6-8-4-2-5(4)9-6/h4-6H,2-3H2,1H3	InChI=1S/C6H10O3/c1-7-3-6-8-4-2-5(4)9-6/h4-6H,2-3H2,1H3/t4-,5+,6-
