25
gdb 109678	2.10904	1.15128	0.92077	1.3138	89.66	-0.2419	0.063	0.3048	1473.2093	0.226401	-389.491383	-389.479988	-389.479044	-389.527817	41.952	
C	 0.1046530849	 2.2586708083	-0.6092849067	-0.375981
C	 1.2252018234	 1.259470098	-0.2954097926	-0.192063
C	 1.2894218436	 0.1355400309	-1.3107089875	-0.068123
C	 1.9696535542	-1.2007556395	-1.0343495776	-0.100406
C	 2.6317274574	-1.517402689	 0.2898751683	-0.42289
C	 0.4581040864	-1.1129645072	-1.1685424828	 0.388536
O	-0.3029644296	-1.1673822148	 0.0157388994	-0.470511
C	-0.238225468	-1.7105510286	-2.3767368604	-0.223837
C	-0.5312979992	-3.2090201536	-2.2337973743	-0.394805
H	 0.2276483191	 2.6959232941	-1.6066977834	 0.106501
H	-0.8717505704	 1.7653656831	-0.5775789584	 0.128164
H	 0.092405514	 3.0800963293	 0.1143659925	 0.105492
H	 2.1906867338	 1.7819182566	-0.2757798904	 0.088319
H	 1.0664935862	 0.8515063795	 0.705548789	 0.109996
H	 1.392317314	 0.4912082674	-2.3349673768	 0.073467
H	 2.4806427482	-1.6334014595	-1.8922024589	 0.074651
H	 2.0066870254	-1.2191330079	 1.13425995	 0.126947
H	 2.8214328603	-2.5932894227	 0.3808420702	 0.108619
H	 3.5963050373	-1.0072739791	 0.3872970528	 0.117435
H	-0.3083766412	-2.0790859788	 0.3260427564	 0.283979
H	-1.1772798946	-1.1674454081	-2.5434144159	 0.101337
H	 0.3858334789	-1.540290327	-3.2617886717	 0.093327
H	 0.3899533677	-3.7824171182	-2.0818324598	 0.115461
H	-1.1961715052	-3.403604446	-1.3849044736	 0.110313
H	-1.0260372967	-3.6015281972	-3.1270976379	 0.116072
54.4143	84.1763	121.3465	151.0262	188.337	205.8176	214.4828	244.5541	277.824	289.4452	310.1893	370.6592	393.2691	493.4023	553.4961	580.7553	700.4575	767.8781	781.9136	802.218	845.4029	937.5494	967.9482	989.8376	1011.9471	1027.9468	1061.1507	1072.8465	1090.0581	1117.7799	1143.0216	1157.8712	1186.77	1243.1841	1248.327	1300.3672	1309.1326	1332.6489	1356.2371	1368.4519	1391.5957	1404.2862	1406.9941	1417.1154	1467.1195	1476.2167	1483.7779	1497.9038	1500.435	1503.2671	1506.5517	1510.1098	1510.9706	3021.6918	3023.5589	3029.5312	3029.8744	3030.8083	3062.0615	3082.1429	3086.6144	3096.3745	3101.6409	3104.963	3107.8941	3114.7379	3119.518	3133.9869	3802.8268
CCC1C(C)C1(O)CC	CC[C@H]1[C@@H](C)[C@]1(O)CC	
InChI=1S/C8H16O/c1-4-7-6(3)8(7,9)5-2/h6-7,9H,4-5H2,1-3H3	InChI=1S/C8H16O/c1-4-7-6(3)8(7,9)5-2/h6-7,9H,4-5H2,1-3H3/t6-,7+,8-/m1/s1
