23
gdb 60141	3.23338	1.03812	0.97493	1.0187	86.11	-0.2321	0.0853	0.3174	1373.3744	0.204739	-388.259343	-388.24979	-388.248846	-388.294262	36.209	
C	 0.5605403617	 1.3573508104	 0.4960973324	-0.389135
C	 0.0661644931	-0.0277837566	 0.0712919954	 0.154113
C	 0.6368780025	-0.4569442954	-1.2753251895	-0.390652
O	 0.432268465	-1.0471110561	 1.0023769896	-0.266502
C	-0.2757648964	-1.0394240687	 2.2032790476	 0.148174
C	 0.135496255	-1.9499946959	 3.3062866382	-0.125495
C	 1.6644208848	-2.0578230486	 3.3756816474	-0.216924
C	 1.7594484671	-0.5092007791	 3.5500687183	-0.221833
C	 0.2308958239	-0.4096866442	 3.472064888	-0.105076
H	 1.6537015705	 1.3715925728	 0.5539489806	 0.120207
H	 0.2456443886	 2.1118477237	-0.2323623359	 0.109973
H	 0.1593321023	 1.6410614852	 1.4722067248	 0.123455
H	-1.0347910538	-0.0020604255	 0.0019460167	 0.063284
H	 1.7291393516	-0.5101209425	-1.2234845738	 0.121805
H	 0.2596422002	-1.4443396566	-1.553754536	 0.120785
H	 0.362655048	 0.2576285596	-2.0571051412	 0.11063
H	-1.3566774415	-0.9567174075	 2.0694910059	 0.078691
H	-0.5605065743	-2.6522476803	 3.7511772871	 0.082111
H	 2.0075319513	-2.5946767045	 4.2623802502	 0.097843
H	 2.1461342002	-2.4822103304	 2.4916236822	 0.108657
H	 2.1484599328	-0.2283751321	 4.5309376707	 0.098924
H	 2.31167848	 0.0378603155	 2.7812623839	 0.099719
H	-0.3852398826	 0.2591992069	 4.0635012473	 0.077245
36.6366	90.2203	139.0197	205.1384	214.524	235.8777	279.5469	339.211	380.1752	463.9872	507.4415	595.816	738.0154	753.4612	788.4695	805.7452	842.7571	916.2733	926.2177	942.4851	955.2613	960.262	972.1752	1015.6084	1024.4308	1046.4935	1079.9988	1124.8926	1148.3773	1150.3382	1172.5276	1196.7518	1218.9519	1229.8253	1248.9117	1265.6172	1301.5097	1342.8943	1365.0167	1378.6669	1396.5626	1412.66	1451.2605	1474.7197	1478.8517	1486.3465	1492.2142	1499.966	1509.903	2955.2986	3036.6977	3042.4067	3059.7689	3067.9936	3079.4796	3104.0673	3105.7669	3114.5108	3121.6157	3122.9647	3123.9068	3160.0725	3173.6419
CC(C)OC1C2CCC12	CC(C)O[C@H]1[C@H]2CC[C@@H]12	
InChI=1S/C8H14O/c1-5(2)9-8-6-3-4-7(6)8/h5-8H,3-4H2,1-2H3	InChI=1S/C8H14O/c1-5(2)9-8-6-3-4-7(6)8/h5-8H,3-4H2,1-2H3/t6-,7+,8-
