21
gdb 80422	2.45493	1.70854	1.26499	0.9505	77.29	-0.2346	0.0669	0.3015	1074.9869	0.182096	-424.213589	-424.204706	-424.203762	-424.246399	34.923	
C	-0.0922907543	 1.5761513389	-0.0129887825	-0.40892
C	 0.078682222	 0.0595266602	 0.0246036509	-0.028859
C	 1.0288798757	-0.5507921896	-1.0619800342	 0.08956
O	 1.6733616036	 0.4676333668	-1.8085700049	-0.428077
C	 1.9616992853	-1.3251151425	-0.098575587	 0.03662
C	 2.3026579287	-0.2895794855	 0.9831926045	-0.278093
C	 0.7973591456	-0.5355338933	 1.2667735871	 0.410536
C	 0.1644408204	-0.405166063	 2.6226600957	-0.502198
O	 0.9965610553	-1.9276669106	 0.8107175244	-0.335113
H	 0.8575136549	 2.1024563534	 0.1081023553	 0.125142
H	-0.5164913956	 1.8944162193	-0.9692055844	 0.124538
H	-0.77096304	 1.9041175395	 0.7813509401	 0.107193
H	-0.90477488	-0.4158145671	-0.0458182348	 0.077292
H	 0.4926828143	-1.2423481491	-1.72358925	 0.069005
H	 2.204045807	 0.0466737398	-2.4915784651	 0.285714
H	 2.6857014743	-2.0259092563	-0.5179290673	 0.067379
H	 2.9327346632	-0.7104658122	 1.7678905391	 0.10247
H	 2.6413601458	 0.7014077085	 0.6772918225	 0.10788
H	 0.1029782991	 0.6475909373	 2.9168663056	 0.125297
H	-0.8508028295	-0.8161571936	 2.614115456	 0.126793
H	 0.7466666043	-0.9416271209	 3.3768178792	 0.125842
125.5311	177.3863	193.6573	235.6545	256.7262	267.3231	293.2076	316.0989	428.4028	504.0208	525.6061	537.2438	652.7713	704.5434	787.6718	809.7215	838.2431	873.5092	920.6753	970.3105	982.1988	1010.6551	1023.4718	1049.4473	1077.5641	1108.0075	1147.6058	1150.9827	1178.6163	1222.1813	1233.7688	1261.6609	1266.2708	1288.0861	1331.9847	1352.2224	1363.4391	1405.6679	1415.1431	1421.4463	1479.4415	1485.8258	1491.838	1496.1046	1499.6247	3020.8401	3036.3256	3042.5368	3055.7681	3080.5096	3104.5662	3105.7971	3108.1263	3116.5412	3124.0184	3148.8397	3825.5729
CC1C(O)C2CC1(C)O2	C[C@H]1[C@@H](O)[C@H]2C[C@]1(C)O2	
InChI=1S/C7H12O2/c1-4-6(8)5-3-7(4,2)9-5/h4-6,8H,3H2,1-2H3	InChI=1S/C7H12O2/c1-4-6(8)5-3-7(4,2)9-5/h4-6,8H,3H2,1-2H3/t4-,5+,6+,7-/m0/s1
