20
gdb 96056	2.85578	1.18042	0.96051	2.6146	77.04	-0.2517	0.0233	0.275	1279.513	0.171781	-440.296116	-440.28708	-440.286136	-440.33091	33.377	
O	-0.1005273083	 0.9008377774	-0.9203622006	-0.442506
C	-0.1322560924	-0.2045455072	-0.0489785154	 0.139964
C	 0.2180917733	 0.071802229	 1.4204224836	-0.240701
C	-0.2175144024	-1.2210094535	 2.1286290906	-0.212348
C	-1.4849506775	-1.6945648044	 1.3581710003	-0.234384
C	-1.5173675159	-0.8948484679	 0.0424205743	 0.083489
O	-2.5249694098	 0.1233261261	 0.1524059324	-0.208966
C	-3.0860712239	 0.5668877484	-0.9911172175	 0.117801
N	-3.7650695214	 1.6315296692	-0.9854872716	-0.448725
H	-0.6782661401	 1.5795139562	-0.551262815	 0.296425
H	 0.5814380403	-0.9280898563	-0.4630268214	 0.089888
H	 1.2721543057	 0.3200638511	 1.5631756077	 0.103946
H	-0.3808155107	 0.9217989675	 1.7713750837	 0.109944
H	 0.5748555337	-1.9731127464	 2.0489354862	 0.103949
H	-0.4108695761	-1.0759828164	 3.1937125454	 0.107289
H	-1.4652639581	-2.7704405554	 1.1678632112	 0.106389
H	-2.4016774359	-1.4805324556	 1.9121498094	 0.12844
H	-1.7322730677	-1.5107508444	-0.8377921468	 0.078093
H	-2.9026401741	-0.0892059566	-1.8520721954	 0.092688
H	-4.1534611786	 1.7984084092	-1.9114755611	 0.229326
41.487	65.5389	128.0063	182.445	242.1885	269.0556	361.7596	392.0719	430.2454	548.4929	560.5307	631.8127	679.1056	799.616	822.3954	855.8604	886.6998	903.1824	962.1397	989.8613	1012.5834	1044.6423	1054.4478	1092.5689	1122.8669	1127.8757	1172.8347	1203.3301	1246.5558	1262.6204	1287.7186	1298.1496	1312.331	1334.4066	1350.1974	1361.4285	1383.7663	1428.3547	1431.7738	1479.3232	1488.5963	1507.9764	1738.5432	3027.7213	3032.5	3038.6638	3047.4814	3048.5204	3072.653	3098.611	3108.755	3120.8504	3516.9228	3795.1827
OC1CCCC1OC=N	O[C@H]1CCC[C@H]1O[CH][NH]	
InChI=1S/C6H11NO2/c7-4-9-6-3-1-2-5(6)8/h4-8H,1-3H2	InChI=1S/C6H11NO2/c7-4-9-6-3-1-2-5(6)8/h4-8H,1-3H2/t5-,6+/m0/s1
