13
gdb 133145	2.37771	1.87401	1.05484	1.5966	65.03	-0.2646	-0.0763	0.1883	1029.7442	0.088623	-494.036511	-494.028848	-494.027904	-494.069212	27.486	
C	 0.0244162199	 1.5027375728	 0.0354223845	-0.468206
C	-0.027134835	 0.0058347548	 0.0410296946	 0.229608
C	-1.1677022787	-0.7038156424	-0.1595460242	 0.090233
F	-2.3317576284	-0.1135092794	-0.3774115101	-0.039861
C	-1.1671661363	-2.1541374706	-0.1449254171	 0.391928
O	-2.0985401682	-2.9115558927	-0.3069231736	-0.368179
N	 0.139475352	-2.6101944687	 0.0975491588	-0.284166
N	 1.2602148753	-1.8981410193	 0.2944870625	-0.044139
N	 1.1855229745	-0.6299170653	 0.268196743	-0.257114
H	 0.7190019338	 1.8483365841	-0.7364322964	 0.157391
H	-0.9599285151	 1.9332558148	-0.1480010134	 0.146968
H	 0.403862319	 1.8656834493	 0.9955965118	 0.157391
H	 0.2743564672	-3.6137624773	 0.1321554494	 0.288146
75.4701	118.4344	188.3984	283.322	297.8491	307.7569	494.8042	517.4111	541.6619	575.6354	632.8515	677.919	758.4898	777.6429	908.0083	977.9382	1061.3858	1065.3452	1115.3531	1211.7563	1269.4792	1337.4944	1405.9053	1439.1658	1477.7278	1478.3121	1531.6705	1656.9302	1814.4761	3050.7186	3108.783	3158.2954	3584.7221
CC1=C(F)C(=O)NN=N1	Cc1c(F)c(=O)[nH]nn1	
InChI=1S/C4H4FN3O/c1-2-3(5)4(9)7-8-6-2/h1H3,(H,6,7,9)	InChI=1S/C4H4FN3O/c1-2-3(5)4(9)7-8-6-2/h1H3,(H,6,7,9)
