17
gdb 35546	2.62415	1.6017	1.45729	1.0278	72.31	-0.2512	0.0342	0.2854	977.657	0.136285	-421.772007	-421.764416	-421.763472	-421.80416	29.399	
C	 0.8347259963	-0.7887363359	 0.5466118977	-0.491055
C	 0.3534264232	 0.2872567093	 0.3116922348	 0.377134
C	-0.2683381769	 1.5749573599	-0.0113592301	-0.095421
C	-0.8955125717	 2.2865462028	 1.2156153615	-0.258017
C	 0.2222284913	 3.2042598826	 1.6950118654	 0.100314
O	 1.242265062	 2.5330552645	 2.4640544818	-0.292046
C	 2.2296819674	 2.7240877258	 1.4224741441	-0.104451
C	 1.1710992261	 3.3395811659	 0.4814975376	 0.061805
O	 0.6720104333	 2.5166681668	-0.5533933362	-0.254828
H	 1.2675243396	-1.7336494725	 0.7656058879	 0.201974
H	-1.0129525699	 1.4092571652	-0.7969172887	 0.1169
H	-1.7522510196	 2.885600119	 0.891997572	 0.110206
H	-1.2185535849	 1.5900265859	 1.9904077792	 0.133437
H	-0.135034806	 4.11087757	 2.1933567297	 0.079466
H	 3.0186509846	 3.4183770533	 1.7378329198	 0.099732
H	 2.6693014855	 1.781869217	 1.0834664241	 0.123376
H	 1.3906519596	 4.3197604003	 0.0564572594	 0.091476
97.2926	124.4362	192.2757	250.8391	364.7883	406.1729	467.5149	546.7127	621.4876	642.1938	671.783	762.2535	798.6387	807.356	860.0151	906.4024	924.7474	963.2429	987.1406	1014.7766	1034.2015	1046.6501	1084.3349	1126.7536	1172.2652	1196.6618	1230.5928	1237.2455	1283.3591	1320.6574	1334.6885	1353.1986	1363.5932	1378.4621	1466.1661	1509.3849	2232.7918	3022.014	3050.9227	3055.6126	3070.7195	3095.4711	3108.5085	3136.1985	3501.7055
C#CC1CC2OCC2O1	C#C[C@H]1C[C@H]2OC[C@H]2O1	
InChI=1S/C7H8O2/c1-2-5-3-6-7(9-5)4-8-6/h1,5-7H,3-4H2	InChI=1S/C7H8O2/c1-2-5-3-6-7(9-5)4-8-6/h1,5-7H,3-4H2/t5-,6+,7+/m0/s1
