19
gdb 35579	3.21192	1.28139	1.07247	4.6447	79.11	-0.2478	0.0178	0.2657	1157.2345	0.162581	-382.076442	-382.068708	-382.067764	-382.109053	29.983	
N	-0.1686087254	-1.1346906763	-0.2736211526	-0.332288
C	-0.0924075312	 0.0156517192	-0.188702515	 0.303255
C	 0.0158501045	 1.4738222863	-0.0983221235	-0.145081
N	-0.2792715052	 2.0500704344	 1.2305598611	-0.311306
C	 0.8547180984	 3.0096559869	 1.1091177263	 0.027166
C	 1.8623075407	 3.0003465711	 2.2758228743	-0.215787
C	 3.1152095508	 2.2981065913	 1.6999268228	-0.199609
C	 2.5686686825	 1.3286654107	 0.6318999538	-0.229207
C	 1.4334606671	 2.123711205	-0.0343567737	-0.034895
H	-0.5710278121	 1.9060416254	-0.9204217286	 0.109243
H	-1.2057947565	 2.4493585663	 1.3304144377	 0.226496
H	 0.5499575505	 4.0171451498	 0.8034560666	 0.06732
H	 2.0860048969	 4.0032003328	 2.6503071284	 0.095366
H	 1.435674177	 2.4218720856	 3.1003488492	 0.116033
H	 3.7698724735	 3.0390751789	 1.2249301262	 0.099305
H	 3.7090623406	 1.7908186761	 2.46508433	 0.104239
H	 3.3315549324	 1.0032352177	-0.0798357071	 0.104975
H	 2.1686134527	 0.4300658367	 1.1127913239	 0.130227
H	 1.7460048129	 2.622364062	-0.9518149199	 0.084549
71.6998	124.5654	177.6736	237.3816	351.6507	395.925	491.5965	559.8915	563.0215	658.4331	666.6762	792.7597	809.7156	824.524	863.7592	901.9101	940.8544	950.1676	991.4204	999.4964	1041.5063	1059.8583	1091.112	1114.2675	1157.6923	1162.9583	1193.2472	1227.7573	1254.7703	1282.7079	1306.5618	1316.8692	1334.2466	1345.9046	1358.4793	1384.7091	1397.0442	1482.1101	1491.3422	1505.6323	2353.4162	3005.5673	3029.7038	3033.2597	3055.6871	3057.5175	3090.6587	3098.0164	3106.7005	3116.2545	3536.1411
N#CC1NC2CCCC12	N#C[C@H]1N[C@H]2CCC[C@@H]12	
InChI=1S/C7H10N2/c8-4-7-5-2-1-3-6(5)9-7/h5-7,9H,1-3H2	InChI=1S/C7H10N2/c8-4-7-5-2-1-3-6(5)9-7/h5-7,9H,1-3H2/t5-,6+,7-/m1/s1
