19
gdb 95248	2.87388	1.51315	1.12672	3.1214	72.02	-0.2601	0.0795	0.3396	1111.0847	0.159417	-460.142366	-460.134273	-460.133329	-460.174964	31.063	
C	-0.3332225783	 1.4062676202	 0.0205380289	-0.402384
C	 0.0755463662	-0.0550214691	-0.0012379008	 0.21637
O	 0.7885071902	-0.2727428698	-1.194314271	-0.226545
C	 0.8429118269	-1.5958865065	-1.6667984361	-0.136348
C	 1.5832938721	-2.5958699902	-0.8011611484	 0.053005
O	 2.7569546124	-2.1777215131	-0.1044362133	-0.239724
C	 1.6335569529	-2.6037204026	 0.6664456103	 0.053006
C	 0.9544893425	-1.6133159758	 1.5913408129	-0.136349
O	 0.8683725856	-0.2852167203	 1.1378649532	-0.226539
H	 0.5644169679	 2.0289235481	-0.0073051881	 0.142304
H	-0.9520031006	 1.6375788868	-0.8491090727	 0.121457
H	-0.8903263636	 1.6282748702	 0.9332359444	 0.121464
H	-0.807145091	-0.7220954673	 0.0254157322	 0.050391
H	-0.1705540804	-1.9972977468	-1.8472054404	 0.093325
H	 1.3446575756	-1.5379241154	-2.6389970597	 0.123043
H	 1.6793910524	-3.5649038308	-1.3010905979	 0.088579
H	 1.7632774196	-3.5780037664	 1.1482483036	 0.08858
H	-0.0444114747	-2.0170064231	 1.8363399702	 0.093325
H	 1.5215755544	-1.5655722482	 2.5275095529	 0.123042
85.8824	167.096	210.8077	250.9145	288.8311	325.2086	354.3224	382.6931	486.604	550.7157	692.7483	702.0643	750.5818	807.9995	847.4025	905.8444	908.9345	997.7835	1020.2195	1024.5914	1074.2559	1119.3021	1120.7858	1141.1706	1168.3567	1184.8069	1204.6615	1278.8826	1298.7457	1330.118	1383.9314	1386.6982	1391.0804	1412.5822	1421.0135	1423.494	1480.8308	1480.8753	1485.7928	1492.3345	1511.1866	2921.4997	2950.3298	2953.6275	3052.6383	3058.4541	3062.6018	3069.0764	3073.7541	3140.3629	3141.3841
CC1OCC2OC2CO1	C[C@H]1OC[C@H]2O[C@H]2CO1	
InChI=1S/C6H10O3/c1-4-7-2-5-6(9-5)3-8-4/h4-6H,2-3H2,1H3	InChI=1S/C6H10O3/c1-4-7-2-5-6(9-5)3-8-4/h4-6H,2-3H2,1H3/t4-,5+,6-
