20
gdb 95885	2.67157	1.23363	0.88467	2.7349	76.82	-0.2238	-0.029	0.1948	1313.3732	0.170637	-440.283485	-440.274641	-440.273697	-440.317258	32.845	
C	 0.289556097	 1.3447170395	-0.1027402353	-0.316349
N	 0.0547302953	-0.0857311283	-0.0077639559	-0.077687
C	-1.3654147101	-0.4179084117	-0.0523699965	-0.145925
C	-1.5442857412	-1.9331512494	-0.0206845909	-0.083708
O	-0.9253376197	-2.5012152902	 1.1243852277	-0.265845
C	 0.4506279759	-2.1773225022	 1.1766323279	 0.016544
C	 0.6769482512	-0.6649999332	 1.1762708307	-0.153128
C	 1.020616594	-2.856358767	 2.4095549498	 0.139734
O	 2.0738769172	-2.5608341917	 2.9107621025	-0.250305
H	 1.3660343299	 1.5420504657	-0.1160659989	 0.12183
H	-0.1393700548	 1.7284344956	-1.0339917774	 0.118497
H	-0.1516221391	 1.9148126692	 0.7369379931	 0.095669
H	-1.9196254865	 0.0303778948	 0.7962217059	 0.083428
H	-1.7977129019	-0.018764163	-0.9770444062	 0.102518
H	-2.6031543844	-2.1993232248	 0.0339683745	 0.111185
H	-1.1138931691	-2.3723895621	-0.9346282215	 0.097488
H	 0.9690567734	-2.6023344664	 0.2959029353	 0.100605
H	 1.752117042	-0.4657410026	 1.1687196634	 0.12272
H	 0.2647306847	-0.2411655785	 2.1131998675	 0.085283
H	 0.3753675761	-3.6700932536	 2.8069252642	 0.097448
69.3854	144.5817	158.3634	176.6041	251.4569	287.1785	354.6034	384.6755	414.5452	435.2297	479.6125	570.4923	632.1462	805.6948	859.8449	905.0061	914.2573	983.9386	1058.6157	1076.9871	1083.1301	1104.4379	1120.9569	1150.6431	1169.9873	1175.9291	1226.4875	1268.3521	1282.4626	1319.7536	1322.8994	1354.799	1377.6531	1402.2308	1406.0088	1419.0006	1460.8286	1481.2263	1485.5585	1490.1831	1504.8281	1506.9436	1837.3507	2902.7209	2907.1202	2913.9371	2930.1786	2933.6239	2985.2181	3058.7447	3061.0314	3091.1052	3097.4022	3105.1479
CN1CCOC(C1)C=O	CN1CCO[C@@H](C1)C=O	
InChI=1S/C6H11NO2/c1-7-2-3-9-6(4-7)5-8/h5-6H,2-4H2,1H3	InChI=1S/C6H11NO2/c1-7-2-3-9-6(4-7)5-8/h5-6H,2-4H2,1H3/t6-/m0/s1
