14
gdb 131675	5.09354	1.04246	0.87005	3.5486	67.16	-0.2357	-0.0697	0.166	1235.2826	0.101517	-470.014761	-470.006897	-470.005953	-470.048192	28.266	
O	-0.0425345129	 1.4368996288	 0.0175882016	-0.419951
C	-0.014566765	 0.0218265787	 0.0409768448	-0.145504
C	-1.4341437873	-0.4847346314	 0.0124760281	 0.291905
C	-2.5481722684	 0.3578618949	-0.0275642089	-0.041536
N	-3.7744831007	-0.1457348325	-0.0510135419	-0.329678
C	-3.8332076584	-1.4806193539	-0.033286511	 0.48981
O	-5.042782218	-2.0494732467	-0.0553084958	-0.38285
N	-2.8037651665	-2.3316809719	 0.0046917722	-0.236492
N	-1.5891070525	-1.8083712859	 0.0275501202	-0.229853
H	 0.8626939855	 1.7584158926	 0.0370166931	 0.299108
H	 0.5263269337	-0.3931541195	-0.82297201	 0.121677
H	 0.4807616844	-0.3647373359	 0.9445455792	 0.121638
H	-2.4366406465	 1.4362251447	-0.0402297643	 0.152069
H	-5.6860297174	-1.3278826921	-0.0817877974	 0.309656
34.5126	109.5457	202.8043	216.8634	335.213	396.0302	411.2062	477.2223	531.6307	574.3643	580.911	670.9846	778.2638	832.0795	897.0369	973.0069	1050.514	1065.314	1096.2877	1132.2725	1198.562	1214.5372	1239.9395	1285.6614	1355.1151	1417.5785	1454.4699	1497.6248	1510.2868	1570.2388	1622.7181	2984.2525	3011.1069	3203.69	3780.471	3848.5683
OCC1=CN=C(O)N=N1	OCc1cnc(O)nn1	
InChI=1S/C4H5N3O2/c8-2-3-1-5-4(9)7-6-3/h1,8H,2H2,(H,5,7,9)	InChI=1S/C4H5N3O2/c8-2-3-1-5-4(9)7-6-3/h1,8H,2H2,(H,5,7,9)
