18
gdb 86598	2.64978	1.30178	1.10356	2.2124	72.55	-0.2453	-0.0368	0.2085	1168.8336	0.14653	-439.054663	-439.045878	-439.044933	-439.088846	31.779	
C	 0.4909976963	 1.4240992778	-0.2789048392	-0.412222
C	 0.1026081517	-0.0083837292	 0.0337089623	 0.032514
O	 0.8151465441	-1.0099151843	-0.7490554774	-0.316333
C	 1.3137818632	-1.722625	 0.4086413206	-0.029758
C	 2.8173565209	-1.8701669107	 0.4337989289	-0.010042
C	 3.544694037	-2.213509643	-0.8104359127	-0.240167
N	 3.6664437308	-0.8671895832	-0.2149630241	-0.320318
C	 0.6661504598	-0.65410941	 1.3090346014	 0.331381
O	 0.6370973914	-0.4157399002	 2.4763215779	-0.276775
H	 1.5599541313	 1.5925949473	-0.1194759646	 0.136592
H	 0.248133627	 1.6649468012	-1.3177911066	 0.138312
H	-0.0652048095	 2.1041073832	 0.3735092958	 0.141598
H	-0.9831398752	-0.1501523993	-0.0605703429	 0.113383
H	 0.8318113554	-2.7053960882	 0.5217441074	 0.113904
H	 3.1910491326	-2.2345044365	 1.3886375154	 0.111646
H	 4.4424014279	-2.8229439848	-0.7646530796	 0.122557
H	 2.9605849722	-2.315308678	-1.7207251314	 0.126738
H	 3.0641832329	-0.242324912	-0.748728681	 0.236989
64.1257	81.464	128.2931	197.8806	206.1186	241.3963	316.1271	395.611	516.006	551.4607	597.5999	721.9605	790.2817	841.7648	856.0451	873.4262	927.104	965.0549	992.8716	1027.9087	1055.7391	1070.6083	1096.4682	1125.5191	1135.9657	1143.4412	1183.8077	1227.6537	1274.2863	1286.0793	1300.3434	1317.6958	1366.9162	1400.9846	1405.5526	1483.9753	1491.8105	1504.1618	1923.6153	2997.1731	3014.3201	3042.7135	3113.9051	3120.4716	3121.5848	3134.2758	3203.1587	3484.3715
CC1OC(C2CN2)C1=O	C[C@H]1O[C@@H]([C@H]2CN2)C1=O	
InChI=1S/C6H9NO2/c1-3-5(8)6(9-3)4-2-7-4/h3-4,6-7H,2H2,1H3	InChI=1S/C6H9NO2/c1-3-5(8)6(9-3)4-2-7-4/h3-4,6-7H,2H2,1H3/t3-,4-,6+/m1/s1
