16
gdb 43582	3.58621	1.27126	1.04654	2.0567	74.94	-0.2459	-0.0298	0.2161	1114.9544	0.12392	-400.708635	-400.700875	-400.699931	-400.741014	29.945	
O	 0.059261951	 0.0327230445	 0.1057214753	-0.318244
C	 0.0093746698	 1.2264468994	-0.0373609675	 0.41847
C	-1.2591458431	 2.0669315516	-0.253221791	-0.371897
C	-0.7373474428	 3.3659810552	-0.917803927	-0.161932
C	-1.444801278	 4.5723014129	-0.5138099899	 0.345444
C	-2.0409173078	 5.5547110227	-0.1628626964	-0.448321
N	 0.7374665962	 3.4719079199	-0.6409792956	-0.092482
C	 1.0608577118	 3.3747611675	 0.7721161792	-0.239433
C	 1.1747984502	 2.1649706173	-0.1046396602	-0.142148
H	-1.9689773573	 1.526103645	-0.8802103027	 0.146526
H	-1.7479949122	 2.2521276977	 0.7080832902	 0.145739
H	-0.8119127262	 3.258360007	-2.0058076057	 0.126147
H	-2.5653091181	 6.4290684971	 0.1350044376	 0.204382
H	 1.9742791371	 3.8805367543	 1.0688389452	 0.136255
H	 0.2597547195	 3.4156144103	 1.5056436839	 0.131446
H	 2.1423345099	 1.7769207078	-0.4025124154	 0.120047
82.5678	135.5055	178.368	270.7	362.7115	423.5588	486.357	520.8254	547.7767	611.5789	631.3677	663.6835	666.3978	766.5902	796.3982	852.2051	895.9163	931.6429	1000.5443	1012.8285	1054.755	1077.7731	1104.6454	1152.9778	1160.5027	1197.7855	1233.1448	1256.5102	1311.153	1341.3571	1358.5419	1457.8755	1512.0885	1845.2611	2241.3317	3041.1801	3070.6121	3116.2596	3133.2702	3183.0342	3204.281	3502.6554
O=C1CC(C#C)N2CC12	O=C1C[C@@H](C#C)N2C[C@@H]12	
InChI=1S/C7H7NO/c1-2-5-3-7(9)6-4-8(5)6/h1,5-6H,3-4H2	InChI=1S/C7H7NO/c1-2-5-3-7(9)6-4-8(5)6/h1,5-6H,3-4H2/t5-,6+,8?/m1/s1
