21
gdb 79259	2.36074	1.97767	1.51914	1.2854	79.94	-0.2536	0.0713	0.3249	979.0059	0.18487	-387.105592	-387.097941	-387.096997	-387.136943	32.197	
C	-0.134519172	 1.557920594	 0.0185016306	-0.426684
C	 0.0312378061	 0.0398498013	 0.0081963546	 0.02372
C	 0.9168172187	-0.5313768677	-1.0957552209	-0.063707
C	 2.3304775275	-0.6301028566	-0.5420116766	-0.058053
C	 2.2882002346	-0.1255533775	 0.8929180984	-0.284924
C	 0.8304481874	-0.5647227507	 1.194354843	 0.371039
O	 0.2802779979	-0.2246221378	 2.4377692372	-0.506366
C	 0.8746953241	-2.0662815578	 0.8000605009	-0.278761
C	 1.443531597	-1.8657834705	-0.5983718011	-0.070462
H	 0.8239819574	 2.0786914561	-0.0637166524	 0.114021
H	-0.7542467895	 1.8823970214	-0.8241276644	 0.107665
H	-0.6214810286	 1.8829567632	 0.9426805571	 0.128562
H	-0.9641621301	-0.4222084962	-0.010051797	 0.069013
H	 0.7272816218	-0.3465211252	-2.1454710999	 0.076754
H	 3.2007971576	-0.5275886489	-1.1769159174	 0.079478
H	 3.0092520247	-0.6327834505	 1.5458642121	 0.082266
H	 2.4333712444	 0.9531887858	 0.9921754331	 0.100639
H	 0.8357197006	-0.6013082019	 3.1278691679	 0.276906
H	 1.5318079645	-2.6511218489	 1.4551616851	 0.08083
H	-0.1223658536	-2.5179106457	 0.8099195005	 0.097744
H	 1.6519585795	-2.6867949058	-1.2719958807	 0.080319
188.7225	214.433	248.8756	254.2635	353.6984	363.5938	450.5316	474.7607	532.6388	619.2462	639.1382	676.9619	754.9807	812.903	815.9008	868.9562	894.258	919.0038	964.4721	976.9237	993.4748	1003.5578	1041.7162	1057.4832	1073.7564	1090.9342	1095.5572	1131.5493	1134.6774	1160.4014	1187.8889	1195.4062	1263.5112	1272.2767	1285.1072	1311.6833	1331.9228	1370.3888	1386.7571	1405.3043	1412.9756	1485.3539	1498.7418	1500.6971	1516.083	3021.969	3027.6417	3034.7369	3038.3643	3082.5377	3095.1901	3102.8362	3116.4974	3188.5415	3191.06	3204.0774	3813.5299
CC1C2C3CC1(O)CC23	C[C@H]1[C@H]2[C@H]3C[C@]1(O)C[C@@H]23	
InChI=1S/C8H12O/c1-4-7-5-2-8(4,9)3-6(5)7/h4-7,9H,2-3H2,1H3	InChI=1S/C8H12O/c1-4-7-5-2-8(4,9)3-6(5)7/h4-7,9H,2-3H2,1H3/t4-,5-,6+,7-,8-/m0/s1
