21
gdb 121539	5.58516	0.49162	0.46878	0.761	92.48	-0.2374	0.0388	0.2762	2404.404	0.180347	-387.04085	-387.030305	-387.029361	-387.078891	36.528	
C	 0.4562365512	 1.400069119	 0.177983327	-0.38619
C	-0.0125783013	-0.0164391321	-0.1060782766	-0.014818
O	 0.7095685188	-0.5129431745	-1.2153386704	-0.240313
C	 0.336475927	-1.8365445393	-1.5525434979	-0.208385
C	 1.1032725364	-2.3085920261	-2.6956368742	-0.017117
C	 1.7272936978	-2.722338902	-3.6400827906	 0.166882
C	 2.4699792526	-3.2076392202	-4.7651946764	-0.160734
C	 3.9855773704	-3.0718124687	-4.7925856665	-0.249529
C	 3.369575159	-4.426587615	-4.6190434506	-0.251819
H	 1.5266146767	 1.4113803366	 0.4017761041	 0.128249
H	 0.2812865476	 2.0425560465	-0.6894896349	 0.128808
H	-0.0833252779	 1.8159135752	 1.0342175193	 0.113352
H	 0.1489205817	-0.6625599092	 0.7744760703	 0.083789
H	-1.0958921492	-0.0313963798	-0.3181581334	 0.084225
H	 0.4965805141	-2.5083838324	-0.6904451481	 0.110002
H	-0.7427430906	-1.8816765398	-1.7833314518	 0.111389
H	 1.9729073227	-3.1039514397	-5.7254242544	 0.109198
H	 4.441696669	-2.8254933828	-5.7447181561	 0.118626
H	 4.4512381295	-2.6078560385	-3.9316551087	 0.130031
H	 3.4166042986	-4.8872197052	-3.6396471568	 0.126335
H	 3.3982269761	-5.1220198822	-5.4503201734	 0.118021
18.366	60.5522	64.4212	111.815	134.6892	172.768	246.5038	268.8171	302.4589	379.7282	472.6753	508.1218	554.412	720.6595	797.0789	821.8776	822.8759	895.3075	900.166	916.0898	1025.4259	1027.156	1062.628	1065.4763	1081.082	1119.0006	1128.5853	1156.2969	1187.92	1189.2741	1201.8686	1233.4195	1255.2549	1295.4876	1377.4451	1392.9333	1405.3302	1448.0165	1467.1848	1483.3729	1495.4173	1497.0842	1501.0263	1531.8531	2364.3725	2937.7768	2950.5066	2955.7493	2969.8474	3045.3948	3119.3726	3123.1416	3141.0415	3142.7828	3147.7786	3226.1265	3241.3738
CCOCC#CC1CC1	CCOCC#CC1CC1	
InChI=1S/C8H12O/c1-2-9-7-3-4-8-5-6-8/h8H,2,5-7H2,1H3	InChI=1S/C8H12O/c1-2-9-7-3-4-8-5-6-8/h8H,2,5-7H2,1H3
