21
gdb 118355	2.202	1.05413	0.76187	1.8788	80.9	-0.2391	-0.0277	0.2114	1549.0337	0.179246	-424.212919	-424.202505	-424.201561	-424.249804	36.373	
C	 0.2896960883	 1.609548626	 0.0353529012	-0.384629
C	-0.0537670024	 0.143345466	-0.1588223843	-0.046942
O	 0.8847025465	-0.4186831127	-1.0654518016	-0.256716
C	 0.6728183357	-1.7894055155	-1.3332089972	 0.03059
C	-0.5585625946	-1.9792188112	-2.2202039692	 0.134433
O	-1.3141634991	-2.9127014889	-2.1526101248	-0.242122
C	 1.8852994877	-2.3241765911	-2.0623211749	-0.005197
C	 3.0438719674	-2.8869490466	-1.2789809923	-0.272593
C	 2.151893527	-3.807759072	-2.0707503088	-0.263169
H	 1.3049489631	 1.7153511401	 0.4277630808	 0.129688
H	 0.2320780214	 2.1470157724	-0.9153319284	 0.128169
H	-0.406947516	 2.0732644279	 0.7398992026	 0.118378
H	-0.0142184513	-0.3978625816	 0.8006271862	 0.094047
H	-1.080843427	 0.0358975582	-0.5442396754	 0.096744
H	 0.5127543582	-2.3631438392	-0.4063473361	 0.080333
H	-0.6824838076	-1.1678099636	-2.9761847877	 0.081794
H	 2.1259880275	-1.7705358937	-2.9652801116	 0.095586
H	 4.0453119785	-2.6933468688	-1.6463081255	 0.118173
H	 2.9608143491	-2.8998923297	-0.1975071879	 0.117232
H	 1.4618659743	-4.4450884246	-1.5285345661	 0.128537
H	 2.5387002734	-4.2491846016	-2.9819950887	 0.117663
49.5152	65.2903	71.0368	105.1944	131.3902	211.4782	242.1252	272.1574	316.5508	394.1179	417.6402	449.9248	584.459	771.6474	819.4165	827.3003	840.7389	900.1494	942.1487	951.7894	999.1072	1059.5935	1061.9539	1073.7107	1081.6995	1128.9475	1137.6543	1143.4194	1185.572	1195.3012	1203.91	1223.5305	1274.8488	1299.0996	1317.4419	1394.4161	1398.957	1410.9221	1440.507	1472.6943	1482.9981	1498.6834	1506.6378	1527.319	1835.2913	2857.7181	2963.9121	2984.0297	2991.7803	3046.2476	3121.4267	3123.2208	3135.7497	3140.9169	3152.0746	3215.0122	3229.5049
CCOC(C=O)C1CC1	CCO[C@@H](C=O)C1CC1	
InChI=1S/C7H12O2/c1-2-9-7(5-8)6-3-4-6/h5-7H,2-4H2,1H3	InChI=1S/C7H12O2/c1-2-9-7(5-8)6-3-4-6/h5-7H,2-4H2,1H3/t7-/m0/s1
