23
gdb 62787	2.84587	1.27475	1.14255	1.4201	86.38	-0.2462	0.0736	0.3197	1229.9012	0.203624	-388.272469	-388.262708	-388.261764	-388.305824	38.784	
C	-0.0379212411	 1.5612842769	-0.0373881286	-0.458673
C	 0.0653880168	 0.0479735999	 0.0452061423	 0.319584
C	-1.1727764038	-0.6515459033	-0.5008687677	-0.450947
C	 1.3404114137	-0.7162737106	-0.2020745185	-0.085552
C	 2.5748501027	 0.0156668032	 0.3335997679	-0.327944
C	 1.9553229525	-0.0597970571	 1.7793300671	 0.386068
C	 2.716155473	-1.0214280806	 2.689335827	-0.442704
O	 1.7054022616	 1.163875596	 2.4557637001	-0.472203
C	 0.6941098804	-0.7009627901	 1.1982841072	-0.106514
H	 0.8122989218	 2.070032943	 0.4136427169	 0.133995
H	-0.1290060004	 1.8792844756	-1.0833857603	 0.100259
H	-0.9341089766	 1.9062197684	 0.4910985422	 0.111245
H	-1.3449189617	-0.3748370734	-1.5473919747	 0.113007
H	-1.0772394723	-1.7410834253	-0.4538549341	 0.109565
H	-2.0652140608	-0.3674812591	 0.0682258171	 0.115182
H	 1.3752572127	-1.5400448134	-0.9058985273	 0.076723
H	 3.5007489731	-0.5582196376	 0.24354341	 0.094345
H	 2.7460037249	 1.0226812922	-0.0567623785	 0.095872
H	 3.7024815511	-0.6134276826	 2.9451285944	 0.102056
H	 2.1584679804	-1.1824229716	 3.6176012061	 0.121986
H	 2.8717919769	-1.9895532709	 2.2047385886	 0.121558
H	 2.5336107145	 1.4621747421	 2.8474688499	 0.273
H	 0.1489776405	-1.4913629215	 1.7050403529	 0.070093
140.7397	171.8377	202.2916	208.5917	258.0239	273.6765	282.8074	302.9067	342.5965	379.4005	402.5234	440.7523	467.0292	555.917	630.7954	674.9417	818.18	830.9728	857.4301	912.0447	931.3529	950.3552	972.8623	981.6688	1007.8344	1013.1435	1040.7697	1055.1915	1103.6057	1134.1882	1143.6727	1169.0502	1203.2858	1237.9747	1254.4324	1263.0659	1302.5415	1376.0479	1402.2987	1405.8602	1417.7319	1428.9238	1478.5971	1483.7525	1488.6696	1493.6388	1495.8141	1506.288	1514.6448	3019.6357	3021.6548	3026.6694	3052.5663	3078.2108	3085.4954	3088.8047	3097.8109	3102.1406	3114.844	3152.1314	3159.4107	3172.718	3797.9764
CC1(C)C2CC(C)(O)C12	CC1(C)[C@H]2C[C@@](C)(O)[C@@H]12	
InChI=1S/C8H14O/c1-7(2)5-4-8(3,9)6(5)7/h5-6,9H,4H2,1-3H3	InChI=1S/C8H14O/c1-7(2)5-4-8(3,9)6(5)7/h5-6,9H,4H2,1-3H3/t5-,6+,8+/m0/s1
