17
gdb 64581	3.99925	1.1912	1.15836	1.4883	73.93	-0.2508	-0.0433	0.2075	1093.034	0.135804	-418.000348	-417.992287	-417.991343	-418.033008	30.029	
C	-0.0581117692	 1.5986920978	 0.0522100919	-0.483779
C	-0.0006769798	 0.0917692541	-0.0122473885	 0.19555
C	-1.1766856576	-0.6148906235	 0.5952798703	 0.133752
O	-2.1839186061	-0.0601830794	 0.9522163401	-0.255801
C	 0.6878552809	-0.6597502549	-1.1136692684	-0.084837
C	 1.7129586297	 0.0720892572	-1.9814433145	-0.199533
N	 2.7751045573	 0.494388989	-1.0497281327	-0.190993
C	 2.4475100043	 0.0674751902	 0.1018754142	 0.035979
N	 1.25952423	-0.7144954166	 0.2449095765	-0.171365
H	 0.8345013878	 2.072240613	-0.3567835177	 0.143249
H	-0.9297288258	 1.9453007313	-0.5099237685	 0.14489
H	-0.1901235906	 1.929464139	 1.0861610595	 0.141563
H	-1.0387336734	-1.7139403596	 0.6887623763	 0.087585
H	 0.2428926643	-1.578633384	-1.4842193632	 0.107332
H	 2.1334920102	-0.6000770419	-2.7372714075	 0.131731
H	 1.3176356852	 0.9453581807	-2.5121972167	 0.128901
H	 3.0455215028	 0.2400814475	 0.991332629	 0.135775
86.6203	142.0669	190.9196	217.4591	275.9384	297.9525	370.3036	424.6122	504.6322	585.691	717.2071	747.9996	777.9497	868.2858	884.1195	944.8019	958.5196	972.1016	991.4095	1025.8185	1043.9367	1082.6514	1098.4462	1121.3967	1209.0248	1243.2386	1305.2292	1315.4152	1327.5084	1373.8098	1410.8303	1427.9114	1479.2801	1490.6802	1497.3825	1675.0432	1825.8927	2904.9582	3043.5487	3057.1612	3075.4038	3118.4036	3150.6539	3152.4771	3196.5187
CC1(C=O)C2CN=CN12	C[C@@]1(C=O)[C@H]2CN=CN12	
InChI=1S/C6H8N2O/c1-6(3-9)5-2-7-4-8(5)6/h3-5H,2H2,1H3	InChI=1S/C6H8N2O/c1-6(3-9)5-2-7-4-8(5)6/h3-5H,2H2,1H3/t5-,6-,8?/m1/s1
