17
gdb 110812	2.3662	1.59706	1.20343	1.6102	74.24	-0.2338	0.0186	0.2525	1079.6095	0.133481	-421.719675	-421.711006	-421.710062	-421.753293	31.908	
C	-0.4359237338	 1.024294292	 0.1951977816	-0.235389
O	 0.6303831452	 0.1291407141	-0.0719261111	-0.230152
C	 1.0260364449	-0.5933959503	 1.0376766531	 0.111812
C	 0.1670285887	-1.6412424703	 1.6795308244	 0.026945
O	-0.70042671	-2.249410994	 0.7245990015	-0.28787
C	 0.4487493253	-2.7840377956	-0.0051973888	-0.057957
C	 0.4363221001	-2.5580154025	-1.4388127353	 0.350047
C	 0.4349149569	-2.4560939432	-2.6360332001	-0.441156
C	 1.4285852825	-2.0341956253	 0.9094597988	-0.216186
H	-0.1563245802	 1.7734557772	 0.9510041681	 0.10138
H	-0.6607965389	 1.5356594758	-0.7431161493	 0.12977
H	-1.328023629	 0.4854750506	 0.5376060336	 0.128143
H	 1.6407379057	-0.0439003983	 1.756767109	 0.090865
H	-0.1111422164	-1.7021632874	 2.7256637075	 0.106314
H	 0.5030175318	-3.8620001957	 0.1926149666	 0.114697
H	 0.4374156458	-2.3308433108	-3.6906654655	 0.199279
H	 2.3863829514	-2.4231315864	 1.2268831858	 0.109459
74.427	104.7474	138.2707	184.1703	233.8356	256.3344	338.6225	451.3208	521.4354	568.907	615.8536	673.8496	682.6823	736.0802	803.4994	830.8768	920.5303	945.7302	988.0797	993.6222	1037.762	1055.1603	1078.6353	1093.5801	1128.4925	1174.0715	1202.0857	1247.3439	1252.4072	1271.5729	1332.2839	1362.1405	1425.0319	1487.5398	1488.2571	1502.7142	2237.9755	2990.0311	3023.8325	3058.545	3064.9822	3126.1292	3177.2512	3206.9973	3503.4823
COC1C2OC(C#C)C12	CO[C@H]1[C@H]2O[C@@H](C#C)[C@@H]12	
InChI=1S/C7H8O2/c1-3-4-5-6(8-2)7(5)9-4/h1,4-7H,2H3	InChI=1S/C7H8O2/c1-3-4-5-6(8-2)7(5)9-4/h1,4-7H,2H3/t4-,5-,6+,7-/m0/s1
