17
gdb 32943	2.56977	0.8147	0.63737	4.2906	77.36	-0.243	-0.0938	0.1492	1735.5191	0.133112	-455.168349	-455.157915	-455.15697	-455.206995	34.208	
C	 0.5578855308	 1.5910494487	 0.9240324697	-0.304798
N	-0.3119608093	 0.5722144785	 0.3288172651	-0.497267
H	 0.00669906	-0.3562418947	 0.5916136029	 0.249983
H	-1.2528450044	 0.6626856019	 0.699889505	 0.229345
C	 0.0681259389	-1.0848920667	-2.523647351	-0.417227
C	 0.43433658	-2.2392078099	-1.9671692691	 0.374665
C	 0.7910722207	-3.5134612302	-2.5748019037	-0.067855
N	 1.0913474463	-4.4092059219	-1.701349752	-0.281569
C	 0.9510261755	-3.7762077334	-0.4318701686	 0.453478
O	 1.1296290898	-4.2386338183	 0.6481349288	-0.317868
O	 0.5478524142	-2.4464876787	-0.6160026436	-0.246579
H	 1.5728991867	 1.4716089497	 0.5326056023	 0.126351
H	 0.2082786722	 2.5855452242	 0.6289399863	 0.122137
H	 0.6179351059	 1.5676362249	 2.0231433406	 0.104111
H	 0.0068927205	-1.0183476917	-3.6030828089	 0.135176
H	-0.1660813675	-0.2204856602	-1.9069029588	 0.182706
H	 0.8067069097	-3.7025774822	-3.642980235	 0.155213
27.14	37.6319	62.0813	76.9045	120.2893	138.7372	165.5033	305.7063	330.8596	379.3224	546.2143	628.8149	678.2799	753.1139	775.0599	810.5146	871.8167	893.9604	935.6253	976.6752	983.7652	989.6485	999.0133	1062.7749	1066.9597	1185.1427	1301.7422	1330.7325	1357.1023	1440.4575	1461.1948	1498.3948	1518.5606	1620.7661	1670.6336	1719.7818	1911.4627	2982.9095	3067.4894	3104.8879	3127.653	3203.013	3249.9445	3492.7058	3568.5573
C[NH2+]CC1=CN=C([O-])O1	CN.C=C1C=NC(=O)O1	
InChI=1S/C5H8N2O2/c1-6-2-4-3-7-5(8)9-4/h3,6H,2H2,1H3,(H,7,8)	InChI=1S/C4H3NO2.CH5N/c1-3-2-5-4(6)7-3;1-2/h2H,1H2;2H2,1H3
