20
gdb 6220	3.47754	1.62414	1.49977	1.8061	70.74	-0.2392	0.0638	0.3029	966.4654	0.175969	-386.155402	-386.146672	-386.145728	-386.188275	33.118	
C	 0.6440817823	 1.50550109	 0.0173750084	-0.393299
C	 0.0013633601	 0.1241510583	-0.002487551	 0.145326
C	 0.3949230277	-0.7489953877	-1.2184581432	-0.269466
C	 1.4154244723	-1.7447348136	-0.6469195201	 0.368069
C	 1.5188619729	-3.0695699181	-1.3990807232	-0.449326
O	 2.6723081785	-1.0595415525	-0.6648548785	-0.465947
C	 0.8917713614	-1.8797344103	 0.7915670505	-0.097799
O	 0.4351340344	-0.5974704523	 1.165371646	-0.272244
H	 1.7278844839	 1.4132444644	-0.0887689436	 0.136192
H	 0.2567914148	 2.1226475344	-0.8004612644	 0.104287
H	 0.4236341585	 2.0104448399	 0.9623933232	 0.118171
H	-1.0918545808	 0.2296970652	 0.0484178987	 0.0653
H	-0.4712750821	-1.2881640091	-1.6118450792	 0.097455
H	 0.8358548226	-0.1669300642	-2.0303249692	 0.116008
H	 1.8678233805	-2.8969201816	-2.4208703093	 0.128541
H	 2.2361184101	-3.7391866972	-0.9088299365	 0.106725
H	 0.5550214021	-3.5860952594	-1.4408077494	 0.116394
H	 3.3014239842	-1.5752538184	-0.1492036841	 0.275947
H	 0.0802724188	-2.6268333321	 0.8321021947	 0.078875
H	 1.6714760479	-2.1915431757	 1.4973461804	 0.09079
60.4653	151.5657	225.431	248.1185	258.2191	265.2332	355.9918	367.9084	408.0583	425.1468	443.8607	606.3218	702.4257	809.3807	820.0835	875.8163	908.8455	929.8237	942.9887	1000.6929	1034.3901	1056.6056	1102.9593	1128.4974	1139.0639	1187.1337	1195.1573	1221.4017	1288.4461	1311.2268	1334.5678	1363.4891	1385.8204	1403.9073	1406.759	1410.1732	1478.4863	1487.6643	1490.9376	1494.8879	1502.0333	1511.5418	2953.2641	2989.8226	3027.5467	3038.7207	3046.5752	3065.3829	3093.6064	3108.4347	3117.2144	3121.1481	3131.4615	3806.9316
CC1CC(C)(O)CO1	C[C@H]1C[C@@](C)(O)CO1	
InChI=1S/C6H12O2/c1-5-3-6(2,7)4-8-5/h5,7H,3-4H2,1-2H3	InChI=1S/C6H12O2/c1-5-3-6(2,7)4-8-5/h5,7H,3-4H2,1-2H3/t5-,6+/m0/s1
