19
gdb 95624	2.0938	1.78696	1.16975	2.7935	71.13	-0.2406	-0.0282	0.2124	1093.2765	0.159036	-460.183401	-460.174664	-460.17372	-460.216772	33.063	
C	-0.0123931112	 1.5874631774	-0.0009915452	-0.402747
C	 0.0964160291	 0.064517613	 0.0076618744	-0.116004
C	 0.7619943644	-0.5106337082	-1.2695030984	 0.116492
O	 2.0305343566	 0.076260929	-1.5089968592	-0.435083
C	 0.9102280659	-2.0258708418	-1.1430371533	-0.119069
O	 1.7793314024	-2.3136831682	-0.0534061142	-0.255455
C	 1.2122332474	-1.9453144635	 1.1963430392	-0.177293
C	 0.8020247004	-0.469091146	 1.2550307687	 0.362348
O	 1.0000308472	 0.1924400462	 2.2456235059	-0.297675
H	 0.9746566268	 2.0330686203	-0.1414345521	 0.141288
H	-0.6571631509	 1.9203269948	-0.8201662355	 0.108401
H	-0.4233030203	 1.9515480923	 0.9422837215	 0.131995
H	-0.9134853028	-0.3771853839	 0.0518010647	 0.097441
H	 0.1392662975	-0.2645482743	-2.1376215205	 0.088234
H	 2.6639025609	-0.4059444681	-0.9613309602	 0.289443
H	-0.0668715733	-2.5156728795	-1.0046034673	 0.094122
H	 1.390791915	-2.4382536843	-2.0337851208	 0.123095
H	 0.3205171556	-2.561847126	 1.4096775877	 0.111616
H	 1.9591396994	-2.1380754491	 1.9683508245	 0.138851
70.1275	127.0866	185.0626	227.969	268.5761	283.9146	381.8611	384.7157	436.0612	453.9193	516.7471	573.3253	624.5011	702.0614	792.5564	849.5321	916.6247	933.6695	954.4425	1006.272	1041.6539	1063.2604	1114.8754	1132.9381	1169.5956	1178.3464	1236.4638	1260.1742	1276.6188	1304.7957	1337.014	1356.5492	1380.2161	1396.1438	1406.3603	1428.9826	1468.7946	1487.7878	1489.1829	1500.7624	1819.5133	2952.4695	2973.7264	2985.5547	3045.7832	3052.4841	3102.3739	3123.0664	3124.6014	3144.8285	3764.603
CC1C(O)COCC1=O	C[C@H]1[C@@H](O)COCC1=O	
InChI=1S/C6H10O3/c1-4-5(7)2-9-3-6(4)8/h4-5,7H,2-3H2,1H3	InChI=1S/C6H10O3/c1-4-5(7)2-9-3-6(4)8/h4-5,7H,2-3H2,1H3/t4-,5-/m0/s1
