21
gdb 96045	2.5659	1.12464	0.8914	3.837	78.95	-0.2472	-0.0231	0.224	1356.1366	0.181861	-424.240679	-424.231127	-424.230183	-424.276394	34.052	
C	-0.5339342168	 1.4049677365	-0.0111736166	-0.425405
C	 0.0588447935	-0.0020875373	-0.0141514584	-0.006529
C	 1.1357057157	-0.2334691087	-1.0957764406	-0.069649
O	 2.0613122185	-1.1857254256	-0.5752694461	-0.260413
C	 1.6056616758	-1.6403247327	 0.6939292272	-0.083343
C	 0.7801595457	-0.4816088363	 1.2723964621	-0.039568
C	 1.6841294371	 0.5812346851	 1.9335673322	-0.28386
C	 2.2223271236	 0.0796438511	 3.253214679	 0.159771
O	 3.3844252851	-0.1057871232	 3.5070205792	-0.238265
H	 0.2377925098	 2.1722876847	 0.1068768037	 0.124275
H	-1.0510844424	 1.6060480942	-0.9552138793	 0.121979
H	-1.2643739415	 1.5302347324	 0.7950735562	 0.11796
H	-0.7569264627	-0.7146300343	-0.1902655289	 0.083382
H	 0.6989105393	-0.6058243122	-2.0317725584	 0.09881
H	 1.6802085133	 0.6926077753	-1.3268894494	 0.097924
H	 0.9817992633	-2.5423456942	 0.5869812925	 0.087572
H	 2.4842199285	-1.8999877812	 1.2923276188	 0.122852
H	 0.0510045001	-0.8403194612	 2.0080410061	 0.075142
H	 2.5238356616	 0.8462539522	 1.2852853257	 0.13343
H	 1.0989755288	 1.4861260867	 2.1432788799	 0.114281
H	 1.4319579738	-0.1337534411	 4.0130128649	 0.069654
41.6678	72.8935	79.5983	146.5477	188.3824	238.5431	275.9111	328.2661	390.8592	473.9306	512.2075	632.885	710.5874	785.8671	855.1075	904.482	920.022	938.0909	956.5575	980.1269	1015.1096	1049.84	1081.7225	1089.274	1134.3467	1170.1723	1179.6449	1206.7694	1213.0689	1245.9356	1267.0713	1302.4882	1332.7264	1353.3571	1377.0565	1388.08	1411.07	1420.6066	1431.6449	1466.2664	1498.5423	1505.8213	1517.7136	1532.4203	1834.938	2840.9787	2971.3638	3002.4074	3014.0401	3028.6252	3033.8248	3037.8425	3046.413	3082.3621	3097.7444	3105.2884	3108.6821
CC1COCC1CC=O	C[C@H]1COC[C@H]1CC=O	
InChI=1S/C7H12O2/c1-6-4-9-5-7(6)2-3-8/h3,6-7H,2,4-5H2,1H3	InChI=1S/C7H12O2/c1-6-4-9-5-7(6)2-3-8/h3,6-7H,2,4-5H2,1H3/t6-,7+/m0/s1
