21
gdb 116932	7.41104	0.49767	0.48887	1.037	91.69	-0.2387	0.0394	0.2781	2320.0306	0.181233	-387.037188	-387.027014	-387.026069	-387.074831	35.38	
C	 0.0667571679	 1.4886961143	-0.5427586865	-0.217204
O	 0.0668827182	 0.0825984185	-0.4750992229	-0.22692
C	-1.0516408758	-0.4135939859	 0.237521126	-0.204058
C	-1.0169257281	-1.8681417194	 0.286201587	 0.026484
C	-1.0056966542	-3.0719807222	 0.337232092	 0.125471
C	-1.0080224354	-4.5178373593	 0.4083265747	-0.149108
C	-1.1386200177	-5.2205019358	 1.8002042019	-0.214197
C	-2.0346842286	-6.2944248115	 1.1293188504	-0.217229
C	-2.2798018388	-5.3093131432	-0.0436255887	-0.214202
H	 0.9553398347	 1.7859002309	-1.1041718782	 0.129651
H	-0.8267353596	 1.8754240151	-1.0593569935	 0.102939
H	 0.1075341519	 1.9485213626	 0.4580710294	 0.102938
H	-1.0620705274	-0.0034715675	 1.263272617	 0.110892
H	-1.9883409432	-0.0759387413	-0.2410773641	 0.110897
H	-0.1299942492	-4.9116958376	-0.1161336742	 0.102928
H	-0.2137536716	-5.5421072307	 2.2836333467	 0.102846
H	-1.7036605243	-4.5954381519	 2.4961705827	 0.110478
H	-1.454560931	-7.1659328823	 0.8122412237	 0.104025
H	-2.9068684481	-6.6429431552	 1.6859191174	 0.100046
H	-3.1811218076	-4.7104211813	 0.1090074982	 0.110479
H	-2.2844924521	-5.7032603861	-1.0621025189	 0.102844
14.3174	65.4599	69.0841	120.9158	131.5537	223.4118	231.4903	295.0699	330.6239	461.3406	504.9068	521.176	602.1497	736.8908	786.8325	883.5047	914.5084	934.8108	940.3336	976.0097	1003.1262	1018.4016	1030.3769	1120.1851	1141.9517	1182.6496	1196.5075	1202.5579	1220.4198	1235.3041	1243.6065	1254.1805	1254.7813	1275.0557	1278.1881	1358.5908	1411.4025	1477.6809	1478.7182	1484.2415	1487.2964	1495.8113	1509.1988	1516.6765	2363.9441	2937.6788	2953.3836	2965.2892	3006.5606	3039.0128	3059.0239	3063.7206	3068.1787	3106.3146	3118.3382	3119.8327	3129.6741
COCC#CC1CCC1	COCC#CC1CCC1	
InChI=1S/C8H12O/c1-9-7-3-6-8-4-2-5-8/h8H,2,4-5,7H2,1H3	InChI=1S/C8H12O/c1-9-7-3-6-8-4-2-5-8/h8H,2,4-5,7H2,1H3
