17
gdb 106952	4.1877	1.11217	0.99779	1.6186	70.17	-0.2618	0.0066	0.2684	1183.2584	0.137695	-455.129952	-455.121917	-455.120973	-455.162946	30.173	
O	 0.0340888948	 1.3350808508	-0.4680316483	-0.416242
C	 0.0368492785	 0.0512155402	 0.1356580178	-0.149293
C	-1.3576408731	-0.5110037627	 0.2220053702	 0.291035
C	-2.3843457924	 0.1373018509	 1.1363698241	-0.155507
O	-3.3974295088	-0.8591958673	 1.363756878	-0.254976
C	-2.928079624	-2.1079592756	 1.0269253812	 0.424142
N	-3.4527436812	-3.1998597334	 1.3787122638	-0.542292
C	-1.7197960032	-1.9554024965	 0.1704389394	-0.181531
N	-1.8953734394	-1.0847620569	-1.0135141905	-0.376946
H	-0.2780264633	 1.214776355	-1.3722124564	 0.293298
H	 0.6767927086	-0.6553786225	-0.4104076694	 0.106688
H	 0.4571285803	 0.1859560757	 1.1378773428	 0.115808
H	-1.9332397499	 0.4216263183	 2.094911146	 0.12295
H	-2.8629724537	 1.0188060065	 0.7001489338	 0.129887
H	-4.2522158652	-3.033481348	 1.9926693296	 0.227352
H	-1.0281934219	-2.7824521732	 0.0761840719	 0.121027
H	-2.879489176	-0.8517900913	-1.1376512839	 0.244599
65.3972	118.0399	171.2917	241.2542	312.0656	386.7902	404.7525	416.7254	460.6866	631.7248	688.2351	729.219	773.8139	839.2925	887.8494	901.0345	931.6183	981.1944	1011.1572	1035.0297	1050.5701	1077.2089	1085.9972	1133.7952	1172.9948	1194.8844	1230.6331	1274.2364	1283.9152	1340.3878	1376.5023	1395.5069	1419.5859	1450.3437	1492.1694	1516.8787	1780.688	3012.3549	3033.9164	3080.4066	3091.7235	3207.4424	3473.7673	3477.0217	3801.1413
OCC12COC(=N)C1N2	OC[C@]12CO[C]([NH])[C@H]1N2	
InChI=1S/C5H8N2O2/c6-4-3-5(1-8,7-3)2-9-4/h3,6-8H,1-2H2	InChI=1S/C5H8N2O2/c6-4-3-5(1-8,7-3)2-9-4/h3,6-8H,1-2H2/t3-,5+/m1/s1
