15
gdb 132096	3.01274	1.42559	0.97353	1.2147	76.34	-0.2056	-0.052	0.1536	1137.5792	0.112995	-458.128493	-458.120589	-458.119645	-458.1611	29.537	
C	 0.011381488	 1.5489698039	 0.0420460497	-0.477529
C	-0.0146203542	 0.0498961774	 0.0180207535	 0.123416
C	-1.143104958	-0.6847342532	-0.1439240865	 0.340494
F	-2.3514435479	-0.1612843918	-0.2993812275	-0.052014
N	-1.1326713801	-2.041050388	-0.1611005385	-0.386128
C	 0.0372430062	-2.7941000807	-0.0139615146	 0.342989
N	-0.044580319	-4.0724341513	-0.0424900827	-0.556777
C	 1.2054589491	-1.9251742098	 0.155172521	-0.085701
N	 1.1754884866	-0.6336383208	 0.1688330133	-0.269148
H	 0.6525574123	 1.9385112079	-0.7558648717	 0.138402
H	-0.9906982801	 1.962875531	-0.0871738887	 0.129768
H	 0.4173846868	 1.9145867347	 0.9912535021	 0.138402
H	-1.9998009696	-2.5459795538	-0.2847265309	 0.276195
H	 0.8782329428	-4.4860568864	 0.076043864	 0.219122
H	 2.1683033271	-2.418313549	 0.2780044077	 0.118509
103.0369	109.9321	207.0923	277.094	288.1812	335.5898	447.2726	485.3807	505.041	579.4207	596.8514	675.8986	715.0724	746.7542	786.564	787.0604	917.3423	964.2734	984.6057	1065.5847	1120.0629	1218.0681	1252.5487	1279.1294	1364.6377	1403.6051	1416.9876	1479.7974	1493.5662	1505.887	1577.1262	1683.0793	1708.1127	3036.5513	3089.548	3133.7857	3142.4504	3507.2481	3608.9327
CC1=C(F)NC(=N)C=N1	Cc1c(F)[nH]c([NH])cn1	
InChI=1S/C5H6FN3/c1-3-5(6)9-4(7)2-8-3/h2H,1H3,(H2,7,9)	InChI=1S/C5H11FN3/c1-3-5(6)9-4(7)2-8-3/h3-5,7-9H,2H2,1H3
