21
gdb 38306	2.80491	1.88097	1.85288	1.5265	79.57	-0.2391	0.0848	0.3239	898.7552	0.188528	-387.069243	-387.063196	-387.062252	-387.099143	27.615	
C	-0.069270849	 1.5124957732	 0.0854404076	-0.208499
C	 1.4922921946	 1.4561510143	 0.0243015088	-0.028972
C	 1.3280289195	 0.1599455884	 0.8808419304	-0.230973
C	 0.0094770453	-0.0386695073	 0.0676167353	-0.034742
C	 0.3395128957	-0.4764675618	-1.413079502	 0.11284
C	 1.853701447	-0.4426432058	-1.6256437661	-0.223441
C	 1.9789649886	 1.0852941456	-1.4297794053	-0.034205
C	 0.9442960358	 1.4968901128	-2.4907389382	-0.092226
O	-0.1062504659	 0.5139757985	-2.3667616281	-0.279559
H	-0.4001963753	 1.8804009025	 1.0601370818	 0.086015
H	-0.6386022938	 2.0049818563	-0.6984682989	 0.113916
H	 2.0575686574	 2.2945507021	 0.4369022043	 0.058574
H	 2.1053769318	-0.6044589741	 0.8876305675	 0.089599
H	 1.0944197558	 0.4192063321	 1.9163188725	 0.094353
H	-0.8045478108	-0.6215412763	 0.5036361775	 0.056624
H	-0.1540429831	-1.4134927303	-1.677422192	 0.070651
H	 2.4395437828	-1.0536466074	-0.9440067486	 0.100375
H	 2.1052936367	-0.7360604528	-2.6493035781	 0.094951
H	 2.9737226533	 1.4866062194	-1.6345357491	 0.06401
H	 0.5270373897	 2.4984676542	-2.3419710195	 0.098049
H	 1.371047894	 1.4487973465	-3.5016676998	 0.09266
259.5246	374.2731	394.1749	475.304	498.2748	537.5607	552.7281	709.3602	746.0051	763.2247	821.9602	833.0887	873.1097	884.4965	890.7604	906.2467	934.085	941.307	972.993	988.5087	998.8973	1034.076	1061.9277	1073.2668	1098.1084	1107.6531	1115.9659	1123.9392	1151.158	1200.5286	1226.2704	1236.7652	1253.7396	1259.4206	1294.7493	1301.5742	1308.454	1327.36	1342.7398	1358.0902	1379.9561	1486.7281	1515.6686	1530.1729	1552.4108	3009.6966	3060.9217	3063.6278	3067.1281	3068.8898	3075.8985	3083.4546	3092.3648	3100.3079	3116.1487	3159.1319	3160.0432
C1C2CC1C1CC2CO1	C1[C@H]2C[C@@H]1[C@@H]1C[C@H]2CO1	
InChI=1S/C8H12O/c1-5-2-6(1)8-3-7(5)4-9-8/h5-8H,1-4H2	InChI=1S/C8H12O/c1-5-2-6(1)8-3-7(5)4-9-8/h5-8H,1-4H2/t5-,6+,7-,8-/m0/s1
