20
gdb 113352	2.73914	0.97615	0.83338	1.4041	77.98	-0.2605	-0.0339	0.2265	1438.282	0.169052	-440.269445	-440.259375	-440.258431	-440.304973	36.137	
C	 0.5046151371	 1.4492268642	 0.3767547538	-0.387992
C	-0.235591565	 0.1915845543	-0.0964517701	-0.25771
C	 0.4509833766	-0.4697758096	-1.2748147225	 0.219638
N	 1.7517962413	-1.1405195849	-1.0352786197	-0.370145
C	 0.6198581055	-1.9566360739	-1.4594824168	-0.087494
C	 0.1328239939	-2.9974627262	-0.4759974885	-0.077031
O	 0.9712688186	-4.1402465221	-0.5058648963	-0.414426
C	 0.3469812638	 0.2454845241	-2.583545073	 0.125395
O	-0.3327088189	 1.217035801	-2.7943242921	-0.261763
H	 1.5311222703	 1.2042291037	 0.6660117491	 0.125606
H	 0.536440328	 2.2053126713	-0.4119192444	 0.136442
H	 0.0022830583	 1.8882705492	 1.2435535988	 0.114113
H	-0.315954906	-0.5174560613	 0.7306570563	 0.104464
H	-1.2543919074	 0.4516864717	-0.4026137622	 0.119107
H	 2.3958871074	-0.970381593	-1.8068241678	 0.237076
H	 0.6264578342	-2.3141690978	-2.4897692354	 0.097973
H	 0.0734245197	-2.5730949806	 0.533662717	 0.101333
H	-0.8665506303	-3.3421584291	-0.7601031149	 0.119619
H	 1.8457666552	-3.8502369899	-0.2224755184	 0.291407
H	 0.9773745579	-0.208799681	-3.3886108928	 0.064389
59.7082	84.339	110.9639	149.8461	195.2797	217.763	262.235	305.2252	330.9712	385.9514	403.6027	487.7102	535.4696	616.7415	734.8368	793.2982	827.4074	867.8116	966.2639	991.5064	1002.4551	1008.2299	1060.4665	1068.2937	1098.956	1117.7409	1129.9864	1193.9556	1250.867	1263.6517	1315.1172	1340.5217	1370.9947	1383.4959	1404.5026	1413.5984	1434.0561	1464.5292	1473.9248	1495.394	1500.1614	1511.8265	1821.2	2819.8237	3027.5338	3044.7424	3057.6574	3084.6905	3100.6009	3107.9302	3114.037	3129.478	3465.564	3802.2321
CCC1(NC1CO)C=O	CC[C@]1(N[C@H]1CO)C=O	
InChI=1S/C6H11NO2/c1-2-6(4-9)5(3-8)7-6/h4-5,7-8H,2-3H2,1H3	InChI=1S/C6H11NO2/c1-2-6(4-9)5(3-8)7-6/h4-5,7-8H,2-3H2,1H3/t5-,6-/m0/s1
