25
gdb 64485	2.29873	1.42299	1.13047	1.2244	87.88	-0.2577	0.0593	0.317	1247.0131	0.230304	-389.514466	-389.504842	-389.503898	-389.548106	38.302	
C	 0.0933410355	 1.6056151776	-0.0017846025	-0.423307
C	-0.0458799554	 0.0749301679	-0.001347161	 0.360581
O	-1.4349858749	-0.2734866621	 0.081254671	-0.46156
C	 0.6067652127	-0.498322609	-1.2845973883	-0.237359
C	 0.1128944927	-1.8703481217	-1.7821620054	-0.189187
C	-0.0740371508	-2.9920053054	-0.7391312912	-0.170442
C	 0.8695443871	-2.9598721545	 0.4738740934	-0.191176
C	 0.4237174875	-1.9768051544	 1.5683133486	-0.195356
C	 0.613933203	-0.4835472564	 1.2739241724	-0.18377
H	 1.1443967904	 1.9105016029	-0.0442494128	 0.114014
H	-0.4096721769	 2.039015868	-0.8748547877	 0.098342
H	-0.3560323551	 2.0326724559	 0.8993121801	 0.118029
H	-1.8863885804	 0.1348674342	-0.6649239615	 0.274296
H	 0.461967637	 0.2175404106	-2.1049239084	 0.080412
H	 1.6903639517	-0.530579245	-1.1200268867	 0.097501
H	-0.8385285874	-1.7376077304	-2.3099974106	 0.086209
H	 0.8272318871	-2.2011843008	-2.5465356738	 0.090211
H	-1.1012007142	-2.9573557236	-0.3616888895	 0.106424
H	 0.0315303012	-3.9534921004	-1.2554712224	 0.08137
H	 0.8965084358	-3.9631142082	 0.9161863951	 0.088274
H	 1.9011922597	-2.7448472368	 0.1608659727	 0.083464
H	-0.6340999424	-2.1615512098	 1.7886663926	 0.109372
H	 0.972788033	-2.1985438069	 2.4920601276	 0.083258
H	 1.6855968	-0.2542574044	 1.2135438925	 0.08797
H	 0.2246164831	 0.0825148126	 2.1287028659	 0.09243
88.1944	160.9843	170.0981	227.2241	269.9589	276.1162	292.6745	342.0829	371.8464	404.6923	424.8398	448.2191	526.4581	590.1201	713.3382	737.0943	786.9429	835.5935	859.9286	896.353	922.1787	947.2831	977.3855	989.6007	1024.4875	1073.1902	1084.2166	1097.3288	1101.9783	1134.0987	1174.8325	1219.2833	1234.2531	1249.7321	1274.6668	1310.1068	1322.3404	1352.5792	1374.3098	1377.1871	1389.3804	1394.5945	1400.6817	1403.597	1418.6855	1470.1936	1476.5001	1485.4526	1489.4847	1493.1673	1495.6278	1499.154	1507.0678	3005.6089	3008.5898	3016.1046	3020.4088	3022.3542	3027.6615	3032.5201	3041.8659	3051.2914	3053.993	3061.5182	3070.7431	3080.8463	3089.2709	3112.8448	3808.6884
CC1(O)CCCCCC1	CC1(O)CCCCCC1	
InChI=1S/C8H16O/c1-8(9)6-4-2-3-5-7-8/h9H,2-7H2,1H3	InChI=1S/C8H16O/c1-8(9)6-4-2-3-5-7-8/h9H,2-7H2,1H3
