17
gdb 126630	3.43308	1.04095	0.84697	2.7368	70.3	-0.2413	-0.003	0.2383	1359.1887	0.136469	-455.189619	-455.181044	-455.1801	-455.224118	30.345	
C	 0.0522774044	 1.5115706633	-0.0693434929	-0.381342
C	 0.0497979646	-0.0186974791	-0.0665801746	-0.177501
C	-1.3655034455	-0.5856856525	 0.0784253777	-0.14983
N	-1.400767867	-2.0356778111	 0.056986111	-0.097106
N	-1.1434448281	-2.7530548081	-1.0949109788	-0.232502
C	-1.2460231163	-3.9740388056	-0.7155605382	 0.099933
O	-1.5473242527	-4.1433801963	 0.5918271358	-0.200916
C	-1.6513500114	-2.8504402674	 1.1273611439	 0.489561
O	-1.9078364665	-2.6006800643	 2.2711247233	-0.399313
H	 1.0686646926	 1.9008097385	-0.1747111891	 0.122579
H	-0.5436922069	 1.9092097282	-0.8981529092	 0.120398
H	-0.3631426795	 1.9127505357	 0.8615118413	 0.122999
H	 0.4872545955	-0.4007560952	-0.9954929437	 0.121685
H	 0.6681942144	-0.3973306145	 0.7555263236	 0.113583
H	-1.8089033923	-0.2944747461	 1.0348103796	 0.149423
H	-2.0123142769	-0.2155776487	-0.7245882627	 0.127081
H	-1.1187210983	-4.8495985068	-1.3310578269	 0.171268
47.0329	86.9177	88.9647	237.2615	246.6958	270.3468	306.8168	358.6361	553.0306	642.5649	709.1892	746.5241	754.4046	794.4105	837.9349	879.5193	899.4073	949.8809	991.2823	1045.4947	1061.4887	1126.9247	1181.5655	1232.3085	1296.3079	1308.6197	1334.787	1349.564	1406.0419	1410.55	1419.5875	1476.8774	1493.4674	1501.3734	1510.7308	1636.3974	1897.7259	3033.9172	3037.7927	3051.6508	3073.3209	3100.1584	3112.6689	3116.0437	3286.6473
CCCN1N=COC1=O	CCCn1ncoc1=O	
InChI=1S/C5H8N2O2/c1-2-3-7-5(8)9-4-6-7/h4H,2-3H2,1H3	InChI=1S/C5H8N2O2/c1-2-3-7-5(8)9-4-6-7/h4H,2-3H2,1H3
