18
gdb 118640	2.0953	1.07224	0.77609	4.1327	71.09	-0.2464	-0.0346	0.2118	1444.5999	0.144666	-476.240648	-476.230371	-476.229427	-476.277798	34.537	
O	 0.0716744189	 1.2508591044	-0.0252442686	-0.411575
C	-0.0196206687	-0.1551376985	-0.1627991367	-0.064951
C	-1.5029112733	-0.5163584316	-0.0996448881	-0.18978
N	-2.2739011771	-0.0000395458	-1.2207290495	-0.047633
C	-2.2871427803	-0.7341246084	-2.47184229	-0.263588
C	-3.1706369272	-1.9702883053	-2.3991541814	 0.156063
O	-2.9132895274	-3.0177553456	-2.9303813149	-0.233265
C	-2.8139156328	 1.2594470453	-1.1811667408	 0.159771
O	-3.3663864788	 1.8042347344	-2.1126351551	-0.339671
H	 0.9617337562	 1.5305435962	-0.2563845643	 0.296753
H	 0.4125649337	-0.4994661809	-1.1142432821	 0.100323
H	 0.5064025965	-0.6803610154	 0.6501060159	 0.097401
H	-1.6157157203	-1.6047142397	-0.0535101267	 0.122494
H	-1.916937318	-0.1049442782	 0.8267116138	 0.134367
H	-2.7115220451	-0.0560943658	-3.2233503371	 0.174031
H	-1.2831513785	-1.0300975025	-2.7942559939	 0.126503
H	-4.1020046405	-1.8208541715	-1.8060854027	 0.088348
H	-2.6999002272	 1.7245838187	-0.1868905678	 0.094408
39.6323	57.0354	73.9393	91.2484	157.8181	219.9378	238.0696	274.758	300.9456	401.9364	414.692	484.3678	540.2291	654.3821	738.7979	883.7025	906.1259	959.9061	1021.0957	1050.6613	1061.7975	1086.2705	1101.2797	1191.054	1198.7925	1260.3585	1290.1599	1311.4383	1332.5561	1396.2153	1410.5847	1429.6011	1438.0662	1445.0384	1454.9273	1478.5732	1514.5649	1791.3419	1838.2985	2876.6374	2977.1012	2989.1547	3011.0123	3033.1489	3049.0484	3087.9658	3096.1182	3840.8586
OCCN(CC=O)C=O	OCCN(CC=O)C=O	
InChI=1S/C5H9NO3/c7-3-1-6(5-9)2-4-8/h3,5,8H,1-2,4H2	InChI=1S/C5H9NO3/c7-3-1-6(5-9)2-4-8/h3,5,8H,1-2,4H2
