21
gdb 63266	2.02528	1.52501	1.38145	4.2603	77.87	-0.2601	0.0195	0.2796	1126.8351	0.179267	-424.276829	-424.266558	-424.265614	-424.311515	37.992	
C	-0.3057817177	 1.5507309673	 0.086891115	-0.432629
C	-0.010407972	 0.0587147957	 0.0348675102	 0.388712
C	-1.1720442124	-0.7128367657	-0.5745249572	-0.432634
O	 1.2154847669	-0.1745463579	-0.7723864416	-0.2964
C	 1.8785918418	-0.7359351498	 0.2807806115	 0.456782
O	 2.9899044096	-1.1655984331	 0.2962286719	-0.34753
C	 0.7225439627	-0.5842243097	 1.2754009565	 0.018735
C	 1.0529299427	 0.33625365	 2.4546788402	-0.446305
C	 0.188456236	-1.9230833347	 1.7944012527	-0.446297
H	 0.5700461015	 2.1294079581	 0.3842384897	 0.130469
H	-0.6191861075	 1.9010855354	-0.9009674274	 0.129931
H	-1.116561176	 1.7585332214	 0.7927270213	 0.123349
H	-1.4489794519	-0.268151984	-1.5349401842	 0.129941
H	-0.9181927829	-1.7590502577	-0.751581209	 0.130458
H	-2.0474263135	-0.6731451051	 0.0818910035	 0.123347
H	 1.5140722709	 1.2761121304	 2.1451395717	 0.12804
H	 0.1500092205	 0.5690010943	 3.0293388211	 0.119593
H	 1.7565452947	-0.1686994429	 3.1228075762	 0.1374
H	 0.9170015997	-2.3621116581	 2.4820944773	 0.137392
H	-0.7490088065	-1.780034867	 2.3424574844	 0.119595
H	 0.0127464635	-2.6489584969	 0.9981385862	 0.12805
60.6504	154.6709	165.72	174.5191	189.9761	210.1576	268.8845	294.9425	324.633	333.7799	377.2717	397.2703	478.814	592.6309	623.3056	672.2025	746.9299	784.402	843.0907	935.5493	961.9697	962.2125	995.161	1002.0139	1022.4451	1081.4973	1156.9946	1177.9255	1224.5183	1260.8558	1266.5478	1303.534	1397.9038	1405.1374	1413.0791	1427.7143	1466.6801	1474.6582	1482.5925	1485.7997	1498.3173	1498.8127	1506.6361	1521.3518	1921.5248	3038.1214	3041.7697	3043.2377	3049.3355	3105.6321	3108.0849	3110.7597	3114.7928	3124.3964	3126.7525	3139.9831	3141.0248
CC1(C)OC(=O)C1(C)C	CC1(C)OC(=O)C1(C)C	
InChI=1S/C7H12O2/c1-6(2)5(8)9-7(6,3)4/h1-4H3	InChI=1S/C7H12O2/c1-6(2)5(8)9-7(6,3)4/h1-4H3
