21
gdb 78557	2.49922	1.54988	1.16848	1.4305	83.77	-0.2211	0.0811	0.3022	1157.2785	0.180643	-387.043197	-387.034183	-387.033238	-387.076313	35.164	
C	-0.0025605374	 1.5909991817	 0.014801863	-0.42007
C	 0.0584173005	 0.0815924717	-0.0503542034	-0.070569
C	 0.5970589871	-0.7217849155	-1.2310722979	-0.297506
C	 1.8598972708	-0.0850364307	-1.7445933432	 0.472434
C	 2.6773158381	-0.4737361827	-2.930533976	-0.347826
C	 2.1265523782	 0.9422574266	-2.7925868165	-0.338534
O	 2.4462762524	-0.0120757776	-0.434384287	-0.345918
C	 1.3147122189	-0.7260155703	 0.1095998581	 0.437012
C	 1.6084538125	-1.7701884301	 1.1360629675	-0.487395
H	 0.942806914	 2.0327172286	-0.3060987716	 0.139198
H	-0.8024492378	 1.9851665201	-0.6210915483	 0.112006
H	-0.1964313785	 1.9242171685	 1.0402207506	 0.112672
H	-0.7976238994	-0.4250018317	 0.3942174669	 0.083012
H	 0.0363891014	-1.4997548398	-1.7335339474	 0.093832
H	 3.7412674954	-0.6125187858	-2.7725705616	 0.123789
H	 2.2346307178	-1.1341637897	-3.6695373761	 0.113015
H	 1.3131219132	 1.2531268064	-3.4395412419	 0.116166
H	 2.83656814	 1.7247344714	-2.5467880665	 0.123628
H	 2.0233471891	-1.3124599655	 2.0415588627	 0.130992
H	 0.6932879528	-2.3001543842	 1.4154913795	 0.121942
H	 2.335287741	-2.4972355211	 0.7606147791	 0.12812
115.7416	170.576	190.9615	197.5822	205.4465	243.9907	300.0339	353.6656	401.7205	500.2051	572.3718	590.1694	681.5897	754.7577	759.4235	848.214	868.5726	882.1502	916.6734	923.5213	957.6889	965.3816	980.5136	1031.5724	1048.8131	1066.8158	1071.6046	1116.428	1128.5089	1145.7731	1176.4807	1187.2055	1220.2294	1271.87	1322.8625	1399.8235	1408.5085	1410.8427	1448.3616	1472.2543	1475.0065	1493.4778	1496.4285	1503.5087	1513.753	3031.6267	3034.8045	3090.4741	3094.9741	3113.407	3117.7946	3127.1807	3130.967	3134.6925	3189.6095	3211.0843	3225.1993
CC1C2C3(CC3)OC12C	C[C@H]1[C@H]2C3(CC3)O[C@@]12C	
InChI=1S/C8H12O/c1-5-6-7(5,2)9-8(6)3-4-8/h5-6H,3-4H2,1-2H3	InChI=1S/C8H12O/c1-5-6-7(5,2)9-8(6)3-4-8/h5-6H,3-4H2,1-2H3/t5-,6+,7-/m0/s1
