19
gdb 86584	2.851	1.15729	0.91425	2.9063	72.45	-0.2385	-0.0197	0.2188	1307.1378	0.155756	-460.163082	-460.153047	-460.152103	-460.199145	35.508	
C	 0.0962883724	 1.6065341038	-0.1320119147	-0.409214
C	 0.7344056853	 0.2383745673	-0.2749258732	 0.11137
O	 2.165193834	 0.258295998	-0.0208410427	-0.306788
C	 2.0366218479	-0.5238250614	 1.1792734353	-0.000976
C	 0.5241791793	-0.7725207298	 0.8911699132	 0.064484
O	-0.4195038506	-0.5170078313	 1.8843768744	-0.409907
C	 2.9257051464	-1.7579635539	 1.2548057738	 0.339934
C	 3.6319031123	-2.1772425678	-0.0147685314	-0.474717
O	 3.0121371304	-2.362056955	 2.2991605207	-0.301011
H	 0.3066781797	 2.0544574225	 0.8453043037	 0.109289
H	 0.4912068272	 2.2831627651	-0.8951646119	 0.135391
H	-0.9889186217	 1.5381518791	-0.2565931759	 0.132303
H	 0.529314144	-0.1728631739	-1.27110958	 0.084075
H	 2.1967707407	 0.0700457948	 2.0902831865	 0.0948
H	 0.3194499034	-1.7863230538	 0.5396063481	 0.110037
H	-0.2306306584	 0.3384580462	 2.2844648996	 0.288672
H	 4.2880643443	-1.3717200271	-0.3600040663	 0.154921
H	 4.205062388	-3.0865940366	 0.1679669368	 0.137891
H	 2.9079674456	-2.3423245462	-0.820384656	 0.139445
33.2542	54.0969	137.9659	149.1244	197.0922	214.7119	254.3732	282.6735	352.891	373.6927	473.2514	518.2955	556.3084	603.6269	726.5679	809.1481	833.3494	889.9787	957.5982	991.9436	1018.5567	1051.3556	1056.5341	1078.8866	1128.9174	1170.5918	1188.4151	1245.0047	1250.5825	1294.8162	1302.5734	1343.7397	1381.4598	1384.4938	1408.0002	1442.7488	1451.836	1466.7323	1481.862	1499.2325	1809.261	3009.0813	3025.8654	3036.239	3043.3784	3091.0277	3103.6227	3105.9379	3119.4837	3157.8516	3810.8948
CC1OC(C1O)C(C)=O	C[C@H]1O[C@@H]([C@H]1O)C(=O)C	
InChI=1S/C6H10O3/c1-3(7)6-5(8)4(2)9-6/h4-6,8H,1-2H3	InChI=1S/C6H10O3/c1-3(7)6-5(8)4(2)9-6/h4-6,8H,1-2H3/t4-,5+,6-/m1/s1
