15
gdb 25614	4.60322	0.87331	0.77514	4.0744	67.82	-0.2367	0.0021	0.2388	1392.6031	0.11262	-457.804053	-457.79602	-457.795076	-457.838675	28.05	
O	 0.2723414373	 0.3213048006	 0.9265271909	-0.269919
C	 0.4862237398	 1.2505627301	 0.2097154291	 0.176339
O	 0.5005939772	 2.5241291057	 0.6543264251	-0.171262
C	 0.8477567271	 3.5441417013	-0.2897598019	-0.215843
C	 2.2965580484	 3.9036459803	-0.1934058201	 0.222593
C	 3.1963390208	 3.4479518733	 0.7194280111	-0.085625
O	 4.4186296686	 4.000717857	 0.500910162	-0.139483
C	 4.2949585081	 4.8267280784	-0.5685096469	 0.014815
C	 3.0220052717	 4.8123762007	-1.0390907425	-0.295899
H	 0.6794021127	 1.1745916977	-0.8784050333	 0.082626
H	 0.5898514225	 3.2172394347	-1.3070398247	 0.121774
H	 0.2051983386	 4.3983064357	-0.0529208682	 0.142591
H	 3.1228221152	 2.7653155835	 1.5483788514	 0.159753
H	 5.1913912021	 5.3431423733	-0.8693970511	 0.143127
H	 2.64118838	 5.3714988876	-1.8798612311	 0.114413
30.6305	51.1064	131.0283	215.7638	245.8803	357.5906	399.0822	621.7536	622.5	675.0579	715.7631	744.7779	796.3604	827.9703	895.2073	992.8408	1007.1616	1038.8362	1053.9566	1069.0421	1102.5707	1158.2552	1206.5354	1250.9705	1275.587	1307.6273	1375.1105	1419.5728	1439.7109	1499.5684	1536.9406	1640.5121	1870.6836	2946.7807	3009.0104	3071.6176	3251.3216	3285.4135	3294.3263
O=COCC1=COC=C1	O=COCc1cocc1	
InChI=1S/C6H6O3/c7-5-9-4-6-1-2-8-3-6/h1-3,5H,4H2	InChI=1S/C6H6O3/c7-5-9-4-6-1-2-8-3-6/h1-3,5H,4H2
