20
gdb 120723	1.75831	1.29895	0.93076	3.1454	78.57	-0.256	-0.0065	0.2495	1369.6753	0.166532	-440.287822	-440.276133	-440.275188	-440.325832	40.299	
N	-1.3661206139	 2.8872550125	-1.2772528836	-0.722445
H	-1.3731905299	 3.8999866589	-1.1697095205	 0.266209
H	-2.2451468459	 2.6400560945	-1.7239448364	 0.234502
H	-0.6395348772	 2.6844036376	-1.9586584227	 0.23733
C	-0.0843209209	 1.7016387274	 1.8076912026	-0.328266
C	-0.3074444458	 2.3366659113	 2.9603105994	-0.088916
C	-1.3199522581	 3.4116713814	 3.1855248613	-0.043916
C	-0.9379719014	 4.7635823954	 3.7076596026	-0.303832
C	-1.5108377006	 4.6377939688	 2.3004834616	-0.142832
C	-0.6819274147	 5.0143552394	 1.1135366683	 0.444076
O	-1.1203270957	 5.7079242813	 0.2283055854	-0.360784
O	 0.6026821663	 4.6022972903	 1.0759195391	-0.38142
H	-0.6070830089	 1.9532564544	 0.8850357502	 0.181924
H	 0.6464209979	 0.8996573515	 1.7566038696	 0.117611
H	 0.2407481736	 2.033739106	 3.8525333544	 0.101575
H	 0.733315423	 3.8470741768	 1.6725422536	 0.29732
H	-2.2630267263	 3.0303576492	 3.5734695894	 0.118189
H	-1.5542219715	 5.2401510442	 4.4611988344	 0.12835
H	 0.1197164048	 4.9967964038	 3.7772275476	 0.12957
H	-2.5328409646	 4.9689866455	 2.1649190537	 0.115755
30.4518	80.9923	94.405	108.5513	124.1013	152.2594	189.6953	211.5557	224.5486	262.4986	341.1105	360.9471	434.6406	552.5393	584.9887	642.1174	669.9054	765.5273	780.53	809.869	870.1424	953.9363	981.1391	1012.3756	1028.4581	1072.1352	1078.824	1114.5163	1130.0113	1134.4959	1151.0256	1212.4704	1264.8046	1331.5745	1343.696	1375.1112	1391.8993	1472.5666	1491.9643	1673.9281	1690.5082	1693.0254	1826.0012	3106.0478	3118.9446	3126.2393	3135.4927	3193.9029	3209.6745	3224.4621	3456.9227	3569.3544	3581.7969	3660.3547
[NH3+]CCC1CC1C([O-])=O	N.C=C[C@H]1C[C@H]1C(=O)O	
InChI=1S/C6H11NO2/c7-2-1-4-3-5(4)6(8)9/h4-5H,1-3,7H2,(H,8,9)	InChI=1S/C6H8O2.H3N/c1-2-4-3-5(4)6(7)8;/h2,4-5H,1,3H2,(H,7,8);1H3/t4-,5+;/m0./s1
