18
gdb 109987	1.88892	1.65073	1.13393	4.3645	72.57	-0.2745	0.0001	0.2746	1153.4528	0.145747	-439.06697	-439.05748	-439.056536	-439.102039	33.29	
C	-0.0242133358	 1.5693302765	-0.2246021332	-0.251174
O	 0.3154895968	 0.2131590792	 0.0151779615	-0.22547
C	 0.8033689758	-0.4567373283	-1.0957546657	 0.065981
C	 1.2339687372	-1.9163471009	-0.816664461	 0.101638
C	 0.9348712033	-2.4848585247	 0.5545411174	-0.393223
O	 0.3183255627	-2.4091192796	-1.8409773494	-0.289569
C	-0.2191682833	-1.1038888527	-2.0968461991	-0.068944
C	-1.6326882962	-0.9793563625	-1.7318319727	 0.303688
N	-2.7479949061	-0.8598067351	-1.4532356238	-0.32898
H	 0.8395988159	 2.1308607069	-0.6099551665	 0.112308
H	-0.8567586419	 1.6602850744	-0.9338158322	 0.130383
H	-0.3300958562	 1.9925330974	 0.7336180692	 0.142584
H	 1.5584047953	 0.1407382368	-1.6244977469	 0.086451
H	 2.2675831966	-2.1314711331	-1.1114345789	 0.089869
H	-0.0812947977	-2.2420981758	 0.8706034159	 0.145649
H	 1.0494577711	-3.5724824054	 0.528360787	 0.129446
H	 1.6336492267	-2.079734431	 1.2927841133	 0.126218
H	-0.0978752041	-0.812078022	-3.1468316449	 0.123144
37.5236	104.9949	143.4381	171.4456	195.1839	203.7139	236.5051	313.7383	380.0244	414.2324	494.5277	564.8562	617.6379	781.7482	816.3875	884.7404	897.3554	995.0781	1010.6882	1042.3523	1083.5774	1089.5197	1137.5903	1182.2534	1186.3014	1217.1455	1246.5397	1276.1378	1316.5306	1345.73	1388.5007	1394.7937	1411.7874	1481.4949	1483.5358	1487.2475	1494.8093	1505.1541	2353.7185	2993.0734	3008.4985	3036.7476	3043.5524	3049.5146	3058.7665	3118.5089	3135.4584	3142.7454
COC1C(C)OC1C#N	CO[C@H]1[C@@H](C)O[C@H]1C#N	
InChI=1S/C6H9NO2/c1-4-6(8-2)5(3-7)9-4/h4-6H,1-2H3	InChI=1S/C6H9NO2/c1-4-6(8-2)5(3-7)9-4/h4-6H,1-2H3/t4-,5+,6+/m1/s1
