19
gdb 70663	2.26065	1.63929	1.23303	2.7315	74.82	-0.2347	-0.0286	0.2061	1080.3523	0.158681	-423.024392	-423.015836	-423.014892	-423.057836	32.036	
C	-0.4401437473	 1.4177027645	 0.1386945343	-0.488996
C	-0.0051701064	-0.0257680323	 0.0731602284	 0.29633
C	-0.5842676252	-1.0709945931	 1.0199123551	-0.379929
C	 0.8727277119	-0.6884722575	 1.1008816508	 0.08085
O	 1.8350759797	-1.5064544404	 0.502094872	-0.257581
C	 1.4252569315	-1.7624886687	-0.840095867	-0.113136
C	 0.5028002055	-0.5977149731	-1.2667971535	-0.178092
C	-0.6526865812	-1.0248114832	-2.1480562829	 0.151504
O	-1.0494835904	-2.1576808764	-2.2626214005	-0.247651
H	 0.3308982789	 2.0837888806	-0.2661445621	 0.121009
H	-1.3635674389	 1.5926548725	-0.4254730786	 0.123184
H	-0.632016328	 1.7196469468	 1.1730935622	 0.123188
H	-1.2367524294	-0.7076402105	 1.8071489751	 0.114571
H	-0.8566030954	-2.0446523141	 0.6270876453	 0.136603
H	 1.261827002	-0.1667604598	 1.9682896154	 0.103548
H	 2.3246183013	-1.8400977124	-1.4563943851	 0.114955
H	 0.8751471057	-2.7074001324	-0.9107076627	 0.128454
H	 1.0550631006	 0.1989699605	-1.7809096051	 0.087113
H	-1.1657831451	-0.1901177909	-2.6766454312	 0.084076
62.2517	109.799	200.7234	210.6569	242.9777	276.4474	317.7898	411.0672	456.4515	557.4616	657.0641	679.8425	721.0881	818.7924	850.1693	901.7812	943.1119	964.8842	986.2679	1004.4039	1034.0111	1039.8881	1062.8664	1086.8161	1112.2474	1133.0604	1172.155	1223.9067	1251.7785	1270.6468	1306.6325	1333.7674	1382.3805	1408.9845	1421.321	1431.1687	1485.5164	1490.1501	1501.0666	1531.2761	1819.2989	2876.3788	3022.2221	3030.1299	3045.9144	3081.6404	3097.5047	3098.7896	3132.5652	3175.3954	3220.4654
CC12CC1OCC2C=O	C[C@]12C[C@H]1OC[C@H]2C=O	
InChI=1S/C7H10O2/c1-7-2-6(7)9-4-5(7)3-8/h3,5-6H,2,4H2,1H3	InChI=1S/C7H10O2/c1-7-2-6(7)9-4-5(7)3-8/h3,5-6H,2,4H2,1H3/t5-,6-,7-/m1/s1
