18
gdb 5879	4.13315	1.05176	1.04785	3.5806	65.49	-0.2796	0.006	0.2856	1191.08	0.150008	-422.103913	-422.094261	-422.093317	-422.138704	33.998	
C	 0.7556464679	 1.0953688397	 0.0773012483	-0.420868
C	-0.1935151223	-0.0906071345	-0.1248660921	 0.334424
C	-0.0374816021	-1.1299261082	 0.9912146372	-0.422269
O	-1.5500047269	 0.3549670076	-0.2085406813	-0.466052
C	 0.021493251	-0.7272102637	-1.5068777599	-0.090639
O	 1.3512626954	-1.2398646629	-1.622115581	-0.181547
C	 1.5155277366	-2.5368148973	-1.946789793	 0.17563
O	 2.5905910552	-3.0416133073	-2.0635441639	-0.274336
H	 1.7994328867	 0.7765026524	 0.0161865821	 0.142159
H	 0.5766711474	 1.8570457852	-0.6872120519	 0.123126
H	 0.5966077281	 1.5514062496	 1.0610746872	 0.106591
H	-0.2320809206	-0.6710365762	 1.9667568632	 0.110604
H	-0.7503153977	-1.9486159158	 0.8537115921	 0.119658
H	 0.9754028607	-1.5410628983	 1.0128688824	 0.137385
H	-1.7554937133	 0.831411632	 0.602396898	 0.281983
H	-0.7158900018	-1.524314258	-1.6593271101	 0.117364
H	-0.1198216129	 0.0290563422	-2.2843797889	 0.126457
H	 0.5532780287	-3.0661189564	-2.0903579284	 0.080329
45.3286	74.0634	148.5596	220.8501	225.2283	241.7485	266.2309	303.1698	336.1024	374.6212	416.8754	456.0925	500.0107	688.8957	762.8787	906.0527	932.7879	952.4793	998.4172	1030.8463	1047.3651	1062.4336	1135.6174	1153.1428	1219.3301	1248.0376	1314.4522	1367.6546	1392.8818	1397.359	1414.1907	1433.7898	1480.7788	1487.0466	1493.6111	1508.206	1514.2858	1867.631	2948.8394	3032.4173	3034.7761	3039.4105	3095.4391	3102.0174	3105.9161	3122.8905	3128.5338	3816.6514
CC(C)(O)COC=O	CC(C)(O)COC=O	
InChI=1S/C5H10O3/c1-5(2,7)3-8-4-6/h4,7H,3H2,1-2H3	InChI=1S/C5H10O3/c1-5(2,7)3-8-4-6/h4,7H,3H2,1-2H3
