16
gdb 24127	4.96035	0.92988	0.8946	2.4516	70.74	-0.2398	0.004	0.2438	1310.4062	0.125146	-437.891392	-437.883703	-437.882758	-437.925123	27.72	
C	-0.0546917553	 1.6157320666	 0.0157370808	-0.351448
C	-0.1631776721	 0.1448386663	 0.3701798172	 0.098647
C	-1.2875270371	-0.6735828686	-0.0958847814	-0.179076
O	 0.0038968892	-0.7846693759	-0.6976002552	-0.224647
C	 1.3547059964	 2.0849986493	-0.1210603044	 0.402107
N	 1.9189884824	 2.6643517027	-1.1323226554	-0.299785
C	 3.2277305564	 2.8912600848	-0.7205122995	-0.11206
C	 3.3828222722	 2.4258040703	 0.5386309597	-0.041271
O	 2.1840423744	 1.9044165056	 0.9424533004	-0.17769
H	-0.5578796757	 1.8098437734	-0.9335932948	 0.144849
H	-0.5608019961	 2.2011564877	 0.7953146847	 0.128295
H	 0.3364042479	-0.1443725894	 1.2951215941	 0.106757
H	-1.6109122535	-1.534487689	 0.4872641975	 0.118392
H	-2.0561597394	-0.2211695946	-0.7215431452	 0.116805
H	 3.9511843523	 3.3680389816	-1.3622439665	 0.125245
H	 4.192380608	 2.3781599893	 1.2459304779	 0.144878
45.6923	59.2468	124.6252	263.0596	334.525	365.2386	455.8138	630.13	685.6975	758.2701	770.6399	801.7189	864.1575	865.6284	932.6911	933.3461	951.0111	971.7453	1081.5557	1096.6739	1115.8949	1145.6084	1160.5545	1164.5455	1169.739	1219.4149	1269.6101	1294.6299	1323.9699	1386.7084	1443.1521	1452.1754	1531.9633	1557.8839	1623.4135	3024.6873	3083.4364	3108.2873	3126.4946	3170.5154	3265.8962	3302.523
C(C1CO1)C1=NC=CO1	C([C@H]1CO1)c1ncco1	
InChI=1S/C6H7NO2/c1-2-8-6(7-1)3-5-4-9-5/h1-2,5H,3-4H2	InChI=1S/C6H7NO2/c1-2-8-6(7-1)3-5-4-9-5/h1-2,5H,3-4H2/t5-/m0/s1
