23
gdb 96566	2.39391	1.36849	1.00637	1.3325	87.29	-0.2364	0.0104	0.2468	1279.5373	0.207474	-388.289724	-388.280836	-388.279892	-388.322757	35.168	
C	 0.1061917315	 1.6774623402	-0.016984918	-0.408774
C	 0.0220359056	 0.1447521473	-0.0049240598	-0.01379
C	 0.6577341995	-0.4486135207	-1.2861547753	-0.186534
C	 0.7790899633	-1.9823082172	-1.3515317912	-0.211464
C	-0.4802199504	-2.8104297778	-1.0116913895	-0.067419
O	-0.5220356957	-3.3426540146	 0.3029510056	-0.243824
C	-0.8820787474	-2.4442006925	 1.3465580352	-0.125056
C	 0.2528861299	-1.5670072418	 1.830128771	-0.089233
C	 0.6404997372	-0.4356534833	 1.2409128748	-0.020443
H	 1.1498432748	 2.0122555458	 0.0103184769	 0.114498
H	-0.3514861149	 2.0905835472	-0.9218222454	 0.111292
H	-0.4057670151	 2.1098168501	 0.8483733145	 0.115665
H	-1.0403486786	-0.12866837	-0.018022518	 0.076992
H	 0.0653883605	-0.0946422344	-2.140711808	 0.093366
H	 1.6607398932	-0.0205141066	-1.418740752	 0.09323
H	 1.0896481115	-2.2387933968	-2.3718325642	 0.09214
H	 1.5787255373	-2.333194055	-0.6921579526	 0.114519
H	-1.39777196	-2.2348351372	-1.2207906378	 0.081841
H	-0.5062910926	-3.6955027316	-1.6554604831	 0.104597
H	-1.7405136299	-1.8319950529	 1.0298944876	 0.094007
H	-1.2250464498	-3.0843064895	 2.1651450043	 0.103795
H	 0.8010352467	-1.9263785698	 2.6976977242	 0.088909
H	 1.4989814036	 0.1014762509	 1.6443490308	 0.081685
118.9093	168.7653	189.9023	238.9814	243.2456	279.0783	340.7269	363.8477	389.6522	462.095	496.2294	559.4834	623.8837	729.6976	775.3458	836.9238	863.7662	896.4775	948.807	969.1228	985.6505	1007.3432	1011.9155	1037.833	1070.9204	1094.7501	1120.7006	1157.5073	1172.9613	1203.1237	1265.2736	1277.9567	1282.4796	1332.0725	1340.7952	1344.7481	1368.7568	1382.594	1399.4743	1410.3074	1414.0567	1432.2298	1474.5572	1487.046	1490.9872	1498.3527	1500.123	1502.7549	1716.6224	2964.4064	2984.8499	3005.9806	3018.5575	3027.8288	3032.4465	3044.5798	3069.3913	3075.1346	3089.2931	3094.8708	3103.8615	3121.3524	3159.324
CC1CCCOCC=C1	C[C@H]1CCCOCC=C1	
InChI=1S/C8H14O/c1-8-4-2-6-9-7-3-5-8/h2,4,8H,3,5-7H2,1H3/b4-2-	InChI=1S/C8H14O/c1-8-4-2-6-9-7-3-5-8/h2,4,8H,3,5-7H2,1H3/b4-2-/t8-/m1/s1
