18
gdb 38044	3.62781	1.79093	1.53889	1.1804	80.41	-0.2021	0.0056	0.2077	901.9172	0.149969	-364.745409	-364.739159	-364.738215	-364.775431	27.571	
C	-0.0762115056	 1.5955094265	 0.2051707899	-0.251477
C	 1.4366008995	 1.2987486736	 0.0122740872	-0.078406
C	 1.7018804803	 0.4571488419	 1.2788296445	-0.058624
C	 0.670672943	-0.395616852	 1.2991728722	-0.161485
C	-0.0851692425	 0.0151228973	 0.034256504	 0.322836
C	-1.1454434364	-0.6381123702	-0.7841371742	-0.232685
C	-0.8430642453	-0.461361316	-2.0739081624	-0.056788
C	 0.4563298218	 0.3146663742	-2.2491820419	-0.248382
N	 1.0881411224	 0.1456112906	-0.9250812688	-0.110031
H	-0.4037096691	 2.0172447902	 1.1579609286	 0.093193
H	-0.546550045	 2.1185043689	-0.6317989693	 0.098117
H	 2.1732121825	 2.0389595143	-0.2990329178	 0.066637
H	 2.5386911263	 0.5581810493	 1.9543298815	 0.103653
H	 0.4249990404	-1.1894327737	 1.9887031458	 0.107103
H	-2.0313691885	-1.1209529516	-0.3921306937	 0.102497
H	-1.4415371348	-0.7914808312	-2.915375512	 0.100249
H	 1.097984237	-0.1029711219	-3.0343840964	 0.107562
H	 0.2385265539	 1.3577554099	-2.5395256372	 0.096032
242.2074	281.8199	396.1796	459.7393	470.6316	541.2501	575.4421	644.8197	687.5915	712.7639	765.7059	774.7708	820.9538	866.602	892.2368	894.0693	912.639	931.6562	949.0311	963.9524	985.1043	1021.617	1045.3176	1066.9832	1083.5141	1119.808	1154.05	1188.3623	1199.0146	1227.0552	1235.8368	1261.2052	1306.0768	1336.1027	1383.9671	1487.2529	1518.1131	1601.6659	1651.3466	2939.9833	3034.8087	3056.6607	3119.4774	3121.9844	3194.4438	3222.0931	3228.2585	3254.7219
C1C2C=CC11C=CCN21	C1[C@H]2C=C[C@]31C=CCN23	
InChI=1S/C8H9N/c1-3-8-4-2-7(6-8)9(8)5-1/h1-4,7H,5-6H2	InChI=1S/C8H9N/c1-3-8-4-2-7(6-8)9(8)5-1/h1-4,7H,5-6H2/t7-,8+/m1/s1
