25
gdb 122745	6.72577	0.38173	0.37605	0.1885	100.53	-0.2382	0.0638	0.302	3036.4116	0.226747	-352.3504	-352.338387	-352.337443	-352.390851	41.418	
C	 0.2101221841	 1.5398473563	-0.1775980143	-0.37915
C	 0.3255060307	 0.0141140384	-0.1228366804	-0.169702
C	 0.5949383393	-0.5202644511	 1.2879837553	-0.155603
C	 0.7107151216	-2.0458696938	 1.3472155676	-0.167387
C	 0.982179264	-2.5683479578	 2.7725955527	-0.358986
C	 1.0946799559	-4.0215252416	 2.8438554013	 0.005146
C	 1.1745434636	-5.2235301137	 2.8721706981	 0.126131
C	 1.3026176058	-6.6768241268	 2.9212131397	-0.312708
C	 2.760077376	-7.1513085625	 3.0666686165	-0.362319
H	 1.1315324303	 2.0194833809	 0.1712897861	 0.113064
H	 0.0181406574	 1.8904235472	-1.1965208304	 0.110905
H	-0.6079625879	 1.8981912154	 0.4572967388	 0.113107
H	-0.5972379373	-0.4379499009	-0.5099437308	 0.095307
H	 1.1287482195	-0.3176052264	-0.7939881879	 0.095213
H	 1.5187331144	-0.0683746078	 1.6764847449	 0.091338
H	-0.2085947275	-0.1884648807	 1.9608614631	 0.091445
H	-0.2107309522	-2.5057818479	 0.9701644617	 0.104239
H	 1.5163433821	-2.3858590592	 0.6852909901	 0.103801
H	 1.9035729462	-2.1085814989	 3.1557797938	 0.121805
H	 0.1793379552	-2.2276697064	 3.4408574808	 0.121913
H	 0.706746763	-7.0687586566	 3.7558957904	 0.124846
H	 0.8666141759	-7.1129851527	 2.0128990742	 0.12471
H	 2.8062398113	-8.2441873746	 3.0985186901	 0.111052
H	 3.3666928177	-6.8048114308	 2.2254600644	 0.125658
H	 3.2055333007	-6.7603718379	 3.985578204	 0.126175
8.4613	45.408	61.7744	99.401	121.6242	152.0015	158.0711	214.2757	247.5068	287.0601	330.0963	346.363	397.2792	508.1875	529.7122	732.2467	742.5101	755.9498	785.3505	843.2827	901.2101	962.8969	970.9054	1004.3957	1036.7605	1068.4494	1079.0101	1103.6279	1127.4255	1133.6384	1166.8479	1230.9589	1259.6139	1286.3952	1293.5528	1324.4241	1332.4158	1333.26	1351.7967	1380.6452	1399.3365	1407.7224	1413.1804	1473.6706	1476.6001	1483.9487	1489.5196	1494.4105	1499.9262	1502.6093	1505.8487	1513.6046	2366.2146	2999.191	3005.6581	3014.7527	3015.2162	3024.3589	3028.2141	3030.5736	3031.833	3041.0653	3041.9896	3049.3254	3075.85	3094.6374	3100.4204	3114.5634	3121.4435	8.4533	45.4069	61.7738	99.4005	121.6237	152.0011	158.0708	214.2753	247.5067	287.06	330.0965	346.363	397.2794	508.1876	529.7124	732.2466	742.51	755.9498	785.3504	843.2827	901.2101	962.8969	970.9055	1004.3956	1036.7606	1068.4494	1079.0102	1103.628	1127.4255	1133.6386	1166.848	1230.9592	1259.6142	1286.3955	1293.553	1324.4245	1332.4161	1333.2602	1351.7968	1380.6453	1399.3366	1407.7225	1413.1804	1473.6706	1476.6004	1483.949	1489.5198	1494.4108	1499.9262	1502.6096	1505.8491	1513.6048	2366.2147	2999.191	3005.658	3014.7527	3015.2161	3024.3588	3028.2141	3030.5736	3031.8329	3041.0653	3041.9896	3049.3254	3075.85	3094.6374	3100.4203	3114.5634	3121.4435
CCCCCC#CCC	CCCCCC#CCC	
InChI=1S/C9H16/c1-3-5-7-9-8-6-4-2/h3-5,7,9H2,1-2H3	InChI=1S/C9H16/c1-3-5-7-9-8-6-4-2/h3-5,7,9H2,1-2H3
