20
gdb 95263	2.63695	1.73999	1.35608	2.1477	77.32	-0.2253	0.0682	0.2934	1011.343	0.174182	-403.112531	-403.105134	-403.10419	-403.144089	30.326	
O	 0.0132365826	 1.4566363212	-0.023501449	-0.435149
C	 0.0294397401	 0.0329295966	 0.0298354245	 0.103153
C	 0.9496542077	-0.5005884389	 1.1334399024	-0.252051
C	 0.5992154089	-1.950517663	 1.490345207	-0.219829
C	-0.8920469063	-2.089985824	 1.768189163	 0.041283
C	-1.5751173708	-0.9811532533	 2.6168934506	-0.271109
C	-2.2785084702	-0.5573274888	 1.3371585205	-0.031506
C	-1.4138768589	-0.4164882393	 0.1435325972	 0.005545
N	-1.7801027368	-1.7820909544	 0.5680011816	-0.178361
H	 0.9044997117	 1.753867176	-0.2342430272	 0.280792
H	 0.3855088908	-0.3711155886	-0.9340126918	 0.070185
H	 1.9948669117	-0.4212990754	 0.8109800362	 0.084733
H	 0.8431866738	 0.1445144654	 2.0112521481	 0.112706
H	 0.8628749177	-2.6242915343	 0.6643306201	 0.107307
H	 1.1764416142	-2.2777680443	 2.3629158872	 0.100013
H	-1.1276185559	-3.0985160926	 2.1131172247	 0.080837
H	-2.2787895209	-1.4075957257	 3.3349385862	 0.108783
H	-0.9592695407	-0.2418032368	 3.1343501879	 0.104885
H	-3.321156832	-0.2565371725	 1.2866154346	 0.091218
H	-1.9797835666	-0.136493807	-0.7436432138	 0.096568
100.643	255.3479	269.9872	287.6595	347.2508	379.6547	438.8443	496.4828	589.394	640.5291	732.0464	757.6249	788.2679	811.5617	845.692	913.5822	932.2325	966.351	989.7103	1022.1155	1036.8721	1074.8342	1089.385	1100.3466	1106.998	1146.8759	1158.8457	1194.7616	1217.0035	1229.709	1265.4345	1270.3042	1296.1681	1333.5531	1356.8037	1366.1995	1386.9976	1395.2919	1439.6344	1457.7946	1477.4977	1492.5846	1515.1831	2941.7766	3020.5528	3033.5048	3060.8708	3063.3942	3082.5191	3086.1017	3113.0357	3120.469	3150.7109	3810.2775
OC1CCC2CC3C1N23	O[C@H]1CC[C@H]2C[C@H]3[C@@H]1N23	
InChI=1S/C7H11NO/c9-6-2-1-4-3-5-7(6)8(4)5/h4-7,9H,1-3H2	InChI=1S/C7H11NO/c9-6-2-1-4-3-5-7(6)8(4)5/h4-7,9H,1-3H2/t4-,5-,6-,7-,8?/m0/s1
