20
gdb 119889	4.33819	0.90234	0.77432	0.9102	78.42	-0.2324	0.0296	0.262	1507.7196	0.171493	-440.29812	-440.289127	-440.288183	-440.33239	32.901	
C	 0.0285672819	 1.5322087293	-0.1312680199	-0.390626
C	-0.0007410878	 0.0217785599	 0.0063654613	-0.031535
O	 0.6863627457	-0.5294446688	-1.1289564866	-0.264225
C	 0.7570378863	-1.8711738957	-1.2019219132	 0.391973
N	 0.2720433051	-2.6302128344	-0.3117250143	-0.326082
C	 0.3911579041	-4.0702307841	-0.5281298613	-0.150581
C	 0.6721932271	-4.4395054654	-1.981503688	-0.091736
O	 1.7632926376	-3.6754100247	-2.4760282935	-0.242227
C	 1.4672576148	-2.2986284786	-2.4697568551	-0.168636
H	 1.0574327651	 1.9028028294	-0.1523591829	 0.127531
H	-0.4698900501	 1.8511191438	-1.0511741892	 0.126559
H	-0.486141197	 1.9928115964	 0.7172609055	 0.120405
H	 0.4942014374	-0.3171982751	 0.9223982661	 0.118317
H	-1.023097016	-0.3704824623	 0.0297755619	 0.115495
H	 1.1922230809	-4.456285761	 0.1162641076	 0.113435
H	-0.5372746514	-4.5496483095	-0.1939904239	 0.104311
H	 0.9577643921	-5.4903685938	-2.0803350698	 0.111005
H	-0.22494412	-4.2657003355	-2.599262041	 0.090337
H	 0.8448216805	-2.0133005329	-3.3358714671	 0.111386
H	 2.4138757037	-1.756989737	-2.5563816266	 0.134893
57.6059	102.011	153.6626	161.4398	247.4477	262.3674	331.18	343.4913	414.8887	489.4328	545.348	563.3168	723.2144	808.8993	836.1188	890.012	906.7343	941.952	1007.1429	1030.2918	1058.6604	1102.3827	1120.2518	1150.7504	1167.8106	1183.3545	1233.9332	1261.9502	1285.6361	1292.3113	1309.4509	1364.4861	1380.3544	1397.4898	1415.1243	1434.9594	1479.1727	1485.2205	1486.0203	1496.3163	1497.0677	1520.8508	1749.2644	2958.4785	2968.254	3017.3545	3044.9684	3045.3118	3050.7706	3081.167	3085.9507	3092.5054	3119.362	3123.3548
CCOC1=NCCOC1	CCOC1=NCCOC1	
InChI=1S/C6H11NO2/c1-2-9-6-5-8-4-3-7-6/h2-5H2,1H3	InChI=1S/C6H11NO2/c1-2-9-6-5-8-4-3-7-6/h2-5H2,1H3
