17
gdb 31931	6.28726	0.83744	0.74322	6.33	87.02	-0.1918	-0.0285	0.1634	1479.4261	0.136737	-418.053808	-418.045048	-418.044103	-418.087384	31.948	
C	-0.0583246354	 1.4054866492	 0.0864406768	-0.326156
N	-0.0981924028	-0.041877615	-0.0536761273	-0.39499
C	 0.5958646674	-0.6085558524	-1.1072308254	 0.395799
C	 1.2288126404	-0.0178864743	-2.2020389756	-0.217971
C	 1.7146720278	-1.0613165545	-3.0123153475	-0.191277
C	 1.3872527495	-2.2690993011	-2.4155320957	 0.214539
N	 0.700294266	-1.958334234	-1.2396840389	-0.395415
C	 1.6509153752	-3.6280437117	-2.808489871	 0.061585
O	 2.2321255422	-3.9733631005	-3.820204749	-0.300099
H	 0.9586005121	 1.8062161721	 0.2128049357	 0.122848
H	-0.5000151292	 1.8692057717	-0.8004137463	 0.146125
H	-0.6595963502	 1.6925522424	 0.9515262112	 0.130952
H	 0.02028958	-0.5309013284	 0.8229505201	 0.239159
H	 1.3328166737	 1.0411974024	-2.3728476584	 0.099906
H	 2.2672677547	-0.9704912631	-3.9343886596	 0.124106
H	 0.2557483395	-2.6344180695	-0.6411990476	 0.25869
H	 1.2651185891	-4.3890932334	-2.0846020916	 0.0322
71.588	135.8379	150.017	198.0174	248.8873	259.5955	316.027	376.1689	424.7684	495.0008	594.7278	635.5057	683.0766	716.4224	768.7852	773.5664	880.364	976.8855	1011.8976	1016.7704	1062.7638	1095.2438	1150.5398	1165.8827	1229.1889	1267.3687	1317.8186	1396.3797	1430.0688	1457.9237	1460.6274	1486.8636	1497.6193	1520.2713	1572.1731	1632.1446	1767.0998	2808.8402	2992.5522	3082.924	3129.4503	3256.3803	3270.2871	3575.2161	3661.0384
CNC1=CC=C(N1)C=O	CNc1ccc([nH]1)C=O	
InChI=1S/C6H8N2O/c1-7-6-3-2-5(4-9)8-6/h2-4,7-8H,1H3	InChI=1S/C6H8N2O/c1-7-6-3-2-5(4-9)8-6/h2-4,7-8H,1H3
