19
gdb 55172	2.98802	1.31734	1.26923	3.5272	74.83	-0.2371	-0.0184	0.2188	1106.6217	0.158049	-423.008369	-422.999706	-422.998762	-423.042798	31.716	
C	 0.1364375045	 1.3880010581	-0.0374092401	-0.488984
C	 0.0287447144	-0.1128181845	 0.1683276302	 0.375204
O	 0.9845563666	-0.8116421177	 0.4065097153	-0.299744
C	-1.3836140848	-0.676396141	 0.0894878891	 0.032726
O	-1.4518439204	-2.1006923541	-0.0603458328	-0.288937
C	-2.2455742853	-2.2464335116	 1.1349548806	 0.126919
C	-1.3954386966	-2.5404487227	 2.3937089254	-0.229755
C	-1.358713965	-1.0116547979	 2.7115407246	-0.236479
C	-2.1830890725	-0.72044833	 1.4268073333	-0.113915
H	 1.124576378	 1.734555334	 0.267120273	 0.145887
H	-0.0165569741	 1.6248045458	-1.0971166614	 0.147508
H	-0.6393547475	 1.9213900131	 0.5233787468	 0.135949
H	-1.9364913574	-0.1671353475	-0.7138689998	 0.082652
H	-3.1572266333	-2.8222739587	 0.9574265442	 0.078268
H	-1.9008119433	-3.1442965104	 3.1515956638	 0.099381
H	-0.4325354107	-2.9915207568	 2.1497495095	 0.132578
H	-1.9119840309	-0.7491957361	 3.6161247847	 0.104147
H	-0.3679280806	-0.5569504727	 2.770820926	 0.118069
H	-3.0461758512	-0.0604629494	 1.5006260578	 0.078524
49.0814	55.1342	118.1535	162.5502	226.95	359.0677	369.5164	397.8971	578.8657	598.1606	670.8715	727.3131	762.2545	832.5131	846.5498	909.79	922.543	942.3971	958.2623	975.0535	1019.5074	1049.3868	1073.4548	1082.3578	1133.2404	1170.8016	1191.7676	1207.7999	1230.0359	1247.2065	1271.4133	1298.2361	1302.0645	1325.1531	1369.1834	1381.709	1458.2968	1462.4658	1474.6096	1487.2873	1817.5833	2990.7765	3033.5783	3064.538	3070.2404	3079.576	3093.5227	3114.0895	3121.6053	3138.92	3152.3348
CC(=O)C1OC2CCC12	CC(=O)[C@H]1O[C@H]2CC[C@@H]12	
InChI=1S/C7H10O2/c1-4(8)7-5-2-3-6(5)9-7/h5-7H,2-3H2,1H3	InChI=1S/C7H10O2/c1-4(8)7-5-2-3-6(5)9-7/h5-7H,2-3H2,1H3/t5-,6+,7-/m1/s1
