21
gdb 39985	3.90715	1.38354	1.28919	0.1013	86.81	-0.2534	0.1051	0.3585	1073.9457	0.18537	-349.907038	-349.900131	-349.899187	-349.938049	29.577	
C	-0.029269564	 1.5043647166	-0.0077254621	-0.329041
C	 1.2967461701	 0.7751991702	 0.0071473652	-0.329041
C	 0.0074800098	 0.0011220807	 0.0102513792	 0.391756
C	-0.4747130321	-0.8515511168	 1.1976325362	-0.338938
C	-1.1028570089	-2.0097212444	 0.4196094561	 0.000305
C	-0.2037049326	-2.3503968273	-0.816470306	-0.055228
C	-1.4726500624	-2.7237345747	-1.6169627618	-0.245392
C	-1.850722425	-1.4447145703	-0.8349393345	-0.055228
C	-0.4433150185	-0.8425559682	-1.1612250754	-0.069673
H	-0.3374244887	 2.0194684213	 0.8967661061	 0.107222
H	-0.3268851386	 2.0030988527	-0.925137153	 0.106554
H	 1.8930364346	 0.7823870811	-0.900233939	 0.106554
H	 1.8811116765	 0.7995071919	 0.9216541401	 0.107222
H	 0.3457707124	-1.183358765	 1.843816147	 0.096241
H	-1.2053739443	-0.3303975137	 1.8264224752	 0.096241
H	-1.5600844589	-2.8298328803	 0.9774160323	 0.058112
H	 0.7579674411	-2.8679600628	-0.7982089449	 0.063424
H	-1.4125657146	-2.6366751004	-2.7058581472	 0.085442
H	-1.9833615437	-3.6465449605	-1.3258080416	 0.086571
H	-2.8030211983	-0.9097980801	-0.8381393805	 0.063424
H	-0.2356996542	-0.4856283299	-2.1728470315	 0.053471
117.642	245.6092	258.4734	358.2532	439.0831	478.6262	494.2053	670.5697	757.381	777.045	808.2222	820.7756	862.3311	876.5211	887.2966	913.6613	932.9965	943.4521	968.3381	984.5917	998.9764	998.9772	1013.5766	1053.2976	1061.3791	1073.9291	1090.8298	1107.8484	1129.1717	1143.2024	1187.128	1189.3292	1210.2542	1227.1321	1236.5265	1246.9303	1254.538	1280.6558	1291.0088	1342.0939	1405.7567	1466.8522	1494.5532	1506.2418	1518.5846	3031.3005	3042.1507	3069.9596	3081.3181	3083.4573	3089.2275	3100.5771	3101.5912	3117.668	3121.9535	3194.8677	3210.1441
C1CC11CC2C3CC2C13	C1CC21C[C@@H]1[C@H]3C[C@@H]1[C@@H]23	
InChI=1S/C9H12/c1-2-9(1)4-7-5-3-6(7)8(5)9/h5-8H,1-4H2	InChI=1S/C9H12/c1-2-9(1)4-7-5-3-6(7)8(5)9/h5-8H,1-4H2/t5-,6+,7-,8+
