21
gdb 118305	5.31438	0.50532	0.47895	3.2891	77.45	-0.2482	-0.0183	0.2299	2217.5368	0.178923	-461.36486	-461.353701	-461.352757	-461.40272	38.337	
O	-0.0486891473	 1.4767302011	 0.151228144	-0.422456
C	 0.0526571921	 0.0611061428	 0.1107888517	-0.076134
C	-1.3573965517	-0.49696892	-0.0387174313	-0.194481
C	-1.4006632659	-2.0266693035	-0.067623824	 0.117621
O	-0.8316285571	-2.5930214352	 1.1135266473	-0.427147
C	-2.8217961235	-2.5575929183	-0.3092357634	-0.217757
C	-2.869799938	-4.0912102929	-0.3998090966	-0.273071
C	-4.2831339509	-4.6189163966	-0.385476116	 0.158514
O	-4.7655403053	-5.3424168367	-1.2181126042	-0.239041
H	 0.8330536844	 1.8368221343	 0.2829945568	 0.286884
H	 0.6723381185	-0.2719455134	-0.738211178	 0.085973
H	 0.5121819419	-0.339907392	 1.0251058883	 0.097044
H	-1.9745416095	-0.1257764976	 0.791702071	 0.096709
H	-1.8020146551	-0.097332305	-0.9575557825	 0.110768
H	-0.7509838547	-2.3892759683	-0.8753040703	 0.092893
H	-1.318504117	-2.2419238386	 1.8685690972	 0.279178
H	-3.4698885071	-2.2120909134	 0.5100651466	 0.092726
H	-3.2223982197	-2.1134305247	-1.2279685241	 0.114453
H	-2.365567287	-4.4584817078	-1.298511427	 0.119513
H	-2.3461215347	-4.4973881166	 0.4764633612	 0.133205
H	-4.8861537025	-4.2770864777	 0.4907325532	 0.064607
47.0704	64.2941	75.7507	93.5249	119.2503	149.8627	226.1041	266.2895	277.28	321.6618	353.1364	391.6432	472.2087	532.8266	577.4851	764.8789	800.4166	835.2021	912.6129	985.1902	1000.7742	1026.4916	1058.1934	1071.578	1096.6079	1114.2213	1125.9753	1185.9322	1209.7412	1231.5721	1257.3454	1288.0964	1302.8993	1316.3176	1357.1953	1368.3797	1391.8501	1420.1054	1431.6581	1461.0956	1464.1334	1481.396	1491.5275	1531.2822	1836.5115	2837.0079	2966.1709	3001.171	3012.8392	3018.2704	3026.2223	3033.0931	3060.6482	3075.78	3100.9065	3787.2443	3831.4032
OCCC(O)CCC=O	OCC[C@@H](O)CCC=O	
InChI=1S/C6H12O3/c7-4-1-2-6(9)3-5-8/h4,6,8-9H,1-3,5H2	InChI=1S/C6H12O3/c7-4-1-2-6(9)3-5-8/h4,6,8-9H,1-3,5H2/t6-/m0/s1
