18
gdb 38139	2.77269	1.9192	1.39457	2.2207	75.91	-0.2319	0.0058	0.2377	947.8011	0.151163	-401.9091	-401.902333	-401.901389	-401.940167	27.561	
C	 0.3506224428	 1.5865657353	 0.2108570642	-0.079843
O	 1.4079921731	 1.4097241014	-0.7568944331	-0.288444
C	 1.293406948	-0.0271989542	-0.680346305	 0.117028
C	 2.4499823683	-0.6864368163	 0.0411750355	-0.061914
N	 2.8490225497	-0.0855067205	 1.3179543836	-0.320378
C	 2.1952836323	-1.4189213324	 1.320546709	-0.085766
C	 0.8214570361	-1.4593453562	 1.8762237756	-0.031237
C	-0.1835895171	-0.7573592886	 1.3477080935	-0.092149
C	-0.0306370936	 0.0811760242	 0.1229820781	-0.113401
H	 0.7450540344	 1.8847025816	 1.1877854401	 0.11657
H	-0.4027022969	 2.3054298003	-0.1308664197	 0.0953
H	 1.1933066982	-0.469943012	-1.6786598136	 0.071481
H	 3.2394313191	-1.0740945441	-0.5989557552	 0.084157
H	 3.8532160087	-0.1856153107	 1.4455080762	 0.2331
H	 2.8249526082	-2.2786038311	 1.5357292692	 0.084748
H	 0.6583011682	-2.0753839311	 2.7559716008	 0.092065
H	-1.1710766984	-0.8031834386	 1.8001232968	 0.092186
H	-0.8982653712	-0.047396617	-0.531179326	 0.086496
123.0986	187.1386	266.4631	352.3694	452.9922	483.1052	550.8024	622.7892	728.0849	734.2848	784.1045	822.2792	844.8869	882.1091	919.0166	931.661	958.6587	989.4298	1005.5819	1031.0741	1032.3236	1060.2573	1087.1264	1134.754	1160.8979	1168.4776	1170.5465	1214.1398	1253.2914	1266.4969	1277.4984	1340.6291	1359.1603	1364.7055	1405.4321	1429.5898	1454.0996	1513.6814	1708.099	3024.89	3028.9939	3056.5391	3086.5434	3125.3814	3138.0494	3150.8444	3175.1437	3495.5577
C1OC2C3NC3C=CC12	C1O[C@H]2[C@H]3N[C@H]3C=C[C@@H]12	
InChI=1S/C7H9NO/c1-2-5-6(8-5)7-4(1)3-9-7/h1-2,4-8H,3H2	InChI=1S/C7H9NO/c1-2-5-6(8-5)7-4(1)3-9-7/h1-2,4-8H,3H2/t4-,5-,6-,7+/m0/s1
