15
gdb 43129	2.49641	1.89947	1.42545	4.0985	64.58	-0.2289	-0.0908	0.1381	921.3737	0.113943	-457.789817	-457.782872	-457.781928	-457.821392	26.612	
O	-0.0039672129	-0.0214664207	-0.0537484803	-0.286743
C	-0.03097016	 1.1751925626	-0.0235132381	 0.335001
C	-1.2111286564	 2.1454258722	 0.0675911826	-0.046991
C	-1.2790452385	 2.7434695183	 1.4938191345	-0.243866
C	-0.0678945512	 3.7228585486	 1.4823584199	-0.243867
C	 0.4863424982	 3.5180860869	 0.0515251519	-0.046994
O	-0.6890513602	 3.2264523155	-0.731491036	-0.26104
C	 1.1871281895	 2.1602080985	-0.0350553016	 0.335
O	 2.3512376086	 1.8830634013	-0.0760092923	-0.286743
H	-2.1414223356	 1.7708226946	-0.3551609841	 0.115918
H	-2.2228020777	 3.2746381515	 1.6302531825	 0.127353
H	-1.2058383333	 1.975209668	 2.2674320984	 0.12985
H	-0.3882819202	 4.7581076349	 1.6129019005	 0.127354
H	 0.6768573365	 3.4976293916	 2.2496109574	 0.129851
H	 1.0423959732	 4.3454238362	-0.3852925553	 0.115918
93.8345	184.5368	205.9246	294.8228	438.6036	458.5999	545.1323	572.0092	663.4483	724.8105	753.6719	825.648	832.9452	897.5939	916.1775	940.7784	974.1209	975.245	1024.5416	1073.4155	1096.9204	1177.6016	1216.2681	1221.188	1243.5179	1275.5603	1313.2987	1314.9038	1332.3207	1483.1116	1502.0495	1865.3428	1883.2835	3071.5119	3079.1698	3114.4036	3131.4967	3147.4155	3149.8531
O=C1C2CCC(O2)C1=O	O=C1[C@H]2CC[C@H](O2)C1=O	
InChI=1S/C6H6O3/c7-5-3-1-2-4(9-3)6(5)8/h3-4H,1-2H2	InChI=1S/C6H6O3/c7-5-3-1-2-4(9-3)6(5)8/h3-4H,1-2H2/t3-,4+
