21
gdb 73038	3.19311	1.03358	0.92044	1.0286	88.93	-0.2408	0.0613	0.3021	1366.1859	0.181385	-349.897291	-349.888025	-349.887081	-349.931458	35.611	
C	-0.1851381112	 1.5673690991	 0.112771487	-0.496033
C	-0.0425220768	 0.0729684076	 0.0406698978	 0.31971
C	-1.2329499576	-0.9031780696	 0.0587222829	-0.286332
C	-0.4117937123	-1.882553314	 0.9562624484	-0.229301
C	 0.7653469353	-0.9024854087	 0.9229918487	-0.099066
C	 1.1956727994	-0.6031160963	-0.4880158275	-0.040453
C	 1.2393279279	-1.6150561435	-1.629875396	-0.393952
C	 2.4436551793	-2.4396248589	-1.6010027838	 0.317338
C	 3.4462355177	-3.1015649024	-1.5581882339	-0.459601
H	 0.7784755844	 2.0492729581	 0.3084789504	 0.117574
H	-0.5733525937	 1.9777921268	-0.8280171467	 0.117967
H	-0.876370628	 1.8640474723	 0.9104526101	 0.114763
H	-2.092486763	-0.4865496961	 0.590175494	 0.100299
H	-1.5833685541	-1.2747921799	-0.910385258	 0.092302
H	-0.8461899522	-1.9859793995	 1.9526952849	 0.102574
H	-0.2216509914	-2.886260842	 0.5621459105	 0.101631
H	 1.415430924	-0.6832811812	 1.762741572	 0.080113
H	 2.0468775035	 0.0745564157	-0.5134281184	 0.090266
H	 0.35804265	-2.2648665206	-1.6059689771	 0.130777
H	 1.1894553361	-1.079693245	-2.5874526686	 0.127269
H	 4.3266269528	-3.6938581817	-1.5268489368	 0.192156
44.0843	113.1525	195.9535	212.7064	246.305	249.6714	315.8072	345.3647	405.0567	474.7853	559.3434	615.1836	615.6189	631.3708	726.6625	790.367	806.5048	888.0252	905.0328	946.8216	950.9869	962.5101	978.688	1011.4991	1019.8297	1075.1212	1112.2442	1141.5852	1155.8528	1208.2556	1224.1838	1239.1955	1248.7539	1275.325	1307.6997	1316.5198	1356.4992	1415.8242	1465.9714	1467.367	1485.2306	1491.7683	1498.9654	1513.947	2236.9959	3016.012	3020.8292	3039.8957	3050.6955	3068.9012	3072.2779	3088.5343	3093.741	3110.2398	3130.5654	3170.916	3507.4605
CC12CCC1C2CC#C	C[C@]12CC[C@H]1[C@H]2CC#C	
InChI=1S/C9H12/c1-3-4-7-8-5-6-9(7,8)2/h1,7-8H,4-6H2,2H3	InChI=1S/C9H12/c1-3-4-7-8-5-6-9(7,8)2/h1,7-8H,4-6H2,2H3/t7-,8+,9-/m1/s1
