19
gdb 31010	3.24328	1.1127	0.86543	1.9372	81.46	-0.1733	0.0475	0.2208	1349.5851	0.160205	-419.243051	-419.233538	-419.232594	-419.277184	35.378	
C	-0.2978755624	 1.5630628529	 0.2668095273	-0.501929
C	-0.1926244072	 0.1038288653	-0.0254525653	 0.315738
C	-0.4556698801	-0.6165939001	-1.1649052076	-0.348833
C	-0.2050578556	-1.9998766698	-0.8959948425	 0.196449
C	-0.3763404479	-3.1737878391	-1.8083050928	-0.190603
O	 0.7348844797	-4.0830438386	-1.7586944062	-0.41538
C	 0.2239274912	-2.0763310548	 0.4150546428	 0.205431
N	 0.6940161831	-3.1628706458	 1.1753331713	-0.618695
N	 0.2286614107	-0.8047991985	 0.9304607795	-0.331846
H	 0.6638779324	 2.0032778785	 0.5618826705	 0.120894
H	-0.6405211142	 2.0937386373	-0.6246949291	 0.135093
H	-1.0119628078	 1.776977856	 1.0728950735	 0.122569
H	-0.8153954254	-0.2030297429	-2.0964430717	 0.08448
H	-1.2385527333	-3.7919615756	-1.5284028105	 0.108171
H	-0.5532348317	-2.8276959184	-2.8374561343	 0.095216
H	 1.5257851325	-3.5545649084	-1.9150985821	 0.279441
H	 0.0458581618	-3.4400580315	 1.9071040504	 0.237644
H	 0.8383987837	-3.9531369403	 0.554138694	 0.254586
H	 0.6006982505	-0.5714887662	 1.8356650229	 0.251574
78.3122	119.1697	154.2768	198.4344	230.5106	263.5439	273.0441	314.2699	382.1391	435.587	460.707	491.4531	608.6851	640.0872	660.3889	719.7824	790.387	799.2023	879.1142	968.1519	996.5042	1016.6237	1021.3801	1062.5008	1135.5678	1165.2917	1200.0849	1224.3014	1259.3251	1336.123	1370.8446	1405.7607	1418.3815	1431.446	1479.2259	1497.8841	1506.5808	1512.5552	1566.8697	1632.6165	1667.0355	2993.1206	3007.9989	3038.389	3048.1501	3118.7626	3230.5223	3479.7339	3568.534	3665.7001	3796.659
CC1=CC(CO)=C(N)N1	Cc1cc(CO)c(N)[nH]1	
InChI=1S/C6H10N2O/c1-4-2-5(3-9)6(7)8-4/h2,8-9H,3,7H2,1H3	InChI=1S/C6H10N2O/c1-4-2-5(3-9)6(7)8-4/h2,8-9H,3,7H2,1H3
