16
gdb 127168	4.32781	1.10313	0.88398	1.2602	75.64	-0.2137	-0.012	0.2016	1244.9721	0.126996	-430.249715	-430.241443	-430.240499	-430.283286	29.517	
C	 0.0641977314	 1.4641902052	-0.0197237041	-0.355329
N	 0.0117955886	 0.0094323425	 0.0011305813	-0.164485
C	-0.0458167588	-0.6738447358	 1.2013727794	 0.084378
N	-0.0553268735	-0.0701056449	 2.3239001492	-0.491184
C	 0.0210914403	-0.6654017348	-1.208235797	 0.436591
N	-0.0236911293	-1.99752268	-1.3082029935	-0.321822
N	 0.0054699142	-2.1949286522	-2.6273287485	-0.069515
N	 0.0646918056	-1.1216632322	-3.3890126211	-0.19364
C	 0.0763371643	-0.1181329235	-2.5097282949	-0.15032
H	 0.9818879279	 1.8128393588	-0.5065593788	 0.130511
H	-0.7983139509	 1.8762706213	-0.5554478457	 0.130507
H	 0.0480259482	 1.8073284394	 1.0130346865	 0.180208
H	-0.0802789063	-1.7544494027	 1.052992735	 0.135284
H	-0.1004438114	-0.746974672	 3.0815100166	 0.226795
H	-0.0167985784	-3.1230671148	-3.0160349049	 0.295313
H	 0.1216865779	 0.9070302057	-2.8348237296	 0.126706
54.6209	111.1908	150.001	191.2887	253.6904	330.1915	368.491	461.1446	467.7564	491.7146	705.1825	736.7188	768.694	800.8919	841.5756	962.3123	994.5083	1042.3403	1059.4774	1127.2165	1160.2719	1174.124	1200.2607	1243.6729	1275.8269	1354.648	1380.181	1413.7283	1432.0729	1450.9455	1501.537	1502.4522	1534.0423	1602.7513	1713.4557	3026.2332	3080.7847	3120.5346	3172.4807	3287.2036	3521.2945	3677.2936
CN(C=N)C1=NNN=C1	CN(C=N)c1n[nH]nc1	
InChI=1S/C4H7N5/c1-9(3-5)4-2-6-8-7-4/h2-3,5H,1H3,(H,6,7,8)	InChI=1S/C4H7N5/c1-9(3-5)4-2-6-8-7-4/h2-3,5H,1H3,(H,6,7,8)
