22
gdb 59587	3.21224	1.0801	0.85959	1.4539	83.41	-0.2379	0.0331	0.271	1421.6662	0.193409	-404.390217	-404.380304	-404.37936	-404.425342	36.317	
C	-1.2948622303	-0.5776767911	-0.2615401875	-0.397825
C	 0.0830838699	 0.0215335346	 0.0543568075	 0.015184
C	 0.0247181356	 1.5543033659	 0.0749964345	-0.392747
C	 0.6126276648	-0.5370121403	 1.378101433	 0.111303
C	 0.9478702985	-2.0548535743	 1.3875743321	-0.2099
N	 2.3644048809	-2.1405798822	 1.7642812292	-0.308361
C	 2.7725978621	-0.9454277088	 1.9000852979	 0.400877
C	 4.1536348904	-0.5174152265	 2.2623267768	-0.472557
O	 1.8904382736	 0.0742672141	 1.7032668386	-0.268447
H	-2.0245192292	-0.3061097918	 0.510764389	 0.115569
H	-1.6691880905	-0.1970742124	-1.216635572	 0.118234
H	-1.2680109851	-1.6697606834	-0.3271118306	 0.120232
H	 0.7885260631	-0.2892829145	-0.7294921836	 0.078133
H	-0.678791827	 1.9077733611	 0.8386144934	 0.110543
H	 1.0047076277	 1.9824854055	 0.2964020243	 0.129934
H	-0.3131656268	 1.9422528949	-0.8913647238	 0.109461
H	-0.0784641695	-0.2669122145	 2.1870245468	 0.081551
H	 0.3330460034	-2.6169752981	 2.097703609	 0.112882
H	 0.8019310403	-2.5144099838	 0.402028488	 0.109355
H	 4.7857906819	-1.3943157106	 2.3972316589	 0.150978
H	 4.5716113134	 0.1203542304	 1.4769992503	 0.142463
H	 4.1388230928	 0.0715100657	 3.1848390181	 0.143139
52.4218	82.7993	137.9354	178.004	217.468	239.8566	246.7179	307.9849	331.1962	358.6918	445.8046	464.7706	606.5978	675.287	742.6356	818.8397	895.1639	930.2117	951.1926	957.6971	972.7684	985.7404	1009.344	1039.7723	1066.7853	1086.7723	1139.8675	1165.3834	1194.3038	1233.3724	1252.8256	1314.4884	1331.9113	1338.7166	1359.0985	1399.2919	1400.7294	1418.5056	1423.8516	1475.6505	1476.5062	1488.9542	1491.1206	1501.8581	1504.3645	1512.9724	1744.8328	3002.2705	3020.7991	3026.2382	3027.7794	3033.4512	3049.9727	3069.2117	3091.2342	3097.2214	3106.6816	3107.4434	3128.1386	3165.3376
CC(C)C1CN=C(C)O1	CC(C)[C@H]1CN=C(C)O1	
InChI=1S/C7H13NO/c1-5(2)7-4-8-6(3)9-7/h5,7H,4H2,1-3H3	InChI=1S/C7H13NO/c1-5(2)7-4-8-6(3)9-7/h5,7H,4H2,1-3H3/t7-/m1/s1
