16
gdb 9798	3.12124	1.75026	1.35694	2.1503	66.15	-0.2517	0.022	0.2737	933.0647	0.127497	-383.678912	-383.670317	-383.669373	-383.711622	32.422	
O	-0.3707892466	 1.315386161	 0.0431258942	-0.415592
C	-0.0180798097	-0.0602887183	 0.0086502784	-0.084194
C	 0.7753239693	-0.3934972068	-1.1818769883	 0.256834
C	 1.4753227914	-0.6475930115	-2.1267862711	-0.44614
C	 0.7214947217	-0.5231058153	 1.2718713609	 0.404485
O	 0.9975771208	-1.8938569079	 1.2573361538	-0.466722
C	 1.6811273191	 0.3986669128	 1.9782997325	-0.324114
C	 0.3408131048	 0.039428539	 2.5989035759	-0.308072
H	 0.4024609683	 1.8225942129	-0.2261974998	 0.291977
H	-0.9666860754	-0.6093716854	-0.0321979497	 0.129424
H	 2.0668430168	-0.8724253332	-2.980319851	 0.20621
H	 1.5998924912	-2.058310764	 0.5207246129	 0.284555
H	 2.5690628108	-0.0599301965	 2.3977717883	 0.117181
H	 1.8150299451	 1.4126063411	 1.6169489507	 0.100264
H	-0.4225406188	 0.8079171289	 2.6198881248	 0.12989
H	 0.3399616812	-0.6519832769	 3.4333554974	 0.124013
70.3191	132.0961	210.2836	247.6732	294.758	306.7212	358.2476	388.6696	431.7003	460.6444	536.3295	596.5622	633.0122	680.8627	735.0981	774.2747	882.2209	921.5994	953.3737	968.6429	1015.3964	1045.4531	1080.6989	1082.9836	1190.1918	1248.7422	1267.704	1288.5412	1325.2405	1392.1642	1408.4534	1439.776	1498.2365	2225.0549	3041.8566	3134.0925	3146.0462	3222.1705	3242.1407	3499.1551	3770.1168	3817.4734
OC(C#C)C1(O)CC1	O[C@@H](C#C)C1(O)CC1	
InChI=1S/C6H8O2/c1-2-5(7)6(8)3-4-6/h1,5,7-8H,3-4H2	InChI=1S/C6H8O2/c1-2-5(7)6(8)3-4-6/h1,5,7-8H,3-4H2/t5-/m0/s1
