18
gdb 127396	4.72081	1.23072	1.00096	2.1094	79.08	-0.2034	0.02	0.2234	1169.9086	0.150969	-398.136193	-398.12866	-398.127716	-398.168035	29.206	
C	 0.0061103376	 1.4189835115	 0.0401975108	-0.311061
N	-0.0807143754	-0.0180517821	 0.1568512862	-0.076545
C	-1.4585549662	-0.559573504	 0.1460782286	-0.307385
C	-1.2779792052	-1.8670616429	 0.8468556381	 0.237709
C	-1.847879509	-3.0793472141	 1.1495202452	-0.220124
N	-0.9318962228	-3.7218837672	 1.9336352185	-0.185902
N	 0.198724418	-3.0073291539	 2.1580795999	-0.334744
C	-0.0315096331	-1.8874207503	 1.493069533	 0.338973
C	 0.6984453991	-0.6017092583	 1.2680972119	-0.286621
H	 1.0537953473	 1.7239047466	-0.0530810372	 0.119382
H	-0.5182393662	 1.7523809383	-0.8618071171	 0.117411
H	-0.4284636466	 1.9598403649	 0.9043459107	 0.088585
H	-2.1686678035	 0.0938510096	 0.6897171039	 0.089097
H	-1.8218840941	-0.6371634055	-0.8864303937	 0.111655
H	-2.7870640897	-3.543516386	 0.8933221824	 0.1338
H	-1.0041840565	-4.6463264337	 2.3226401148	 0.272386
H	 1.7492261799	-0.7231334003	 0.9796408227	 0.11986
H	 0.6786687262	 0.0292478674	 2.1776274311	 0.093525
100.2172	219.1749	261.8199	263.9077	292.6957	304.0973	469.3536	477.8421	517.7322	645.5524	692.6493	724.207	775.9184	796.4613	852.0361	977.1014	1015.7365	1022.5494	1050.839	1060.6643	1121.6686	1139.2443	1182.2685	1186.003	1200.2168	1210.2416	1237.6621	1308.0786	1347.8856	1363.0384	1446.4042	1462.9665	1471.2731	1488.0139	1501.7373	1511.3034	1522.4144	1526.0084	1640.486	2900.7889	2907.0538	2916.9478	3026.1039	3041.1633	3052.4743	3095.7768	3260.2771	3679.6384
CN1CC2=CNN=C2C1	CN1Cc2c[nH]nc2C1	
InChI=1S/C6H9N3/c1-9-3-5-2-7-8-6(5)4-9/h2H,3-4H2,1H3,(H,7,8)	InChI=1S/C6H9N3/c1-9-3-5-2-7-8-6(5)4-9/h2H,3-4H2,1H3,(H,7,8)
