14
gdb 34729	3.89148	1.4868	1.46003	3.9565	63.18	-0.2674	0.023	0.2904	896.0682	0.103431	-436.678401	-436.672289	-436.671345	-436.709052	24.29	
N	-0.0280185767	-1.1717493917	-0.1056064989	-0.324775
C	-0.0223643622	-0.0186721998	-0.0301165271	 0.285943
C	-0.0247334101	 1.434301106	 0.0411598681	-0.187496
C	-0.4226735624	 2.0164396998	 1.3976931673	-0.167046
C	 0.8947283043	 2.1175507644	 2.1581113714	 0.048007
O	 1.9265398826	 1.6395474509	 1.3153095721	-0.23415
C	 1.4044622012	 2.0800507582	 0.0795784958	 0.144121
O	 1.1008870905	 3.4504971743	 0.2637556111	-0.236491
C	 0.3438288234	 3.3327887475	 1.4553520022	 0.016211
H	-0.608852426	 1.8531678318	-0.78167859	 0.14023
H	-1.3817362217	 1.8460402507	 1.8633144596	 0.124325
H	 1.0504538794	 1.9707594103	 3.2155713515	 0.13207
H	 2.0953159066	 1.9162219486	-0.7410224676	 0.128225
H	 0.009791591	 4.262854699	 1.8890397444	 0.130826
133.697	157.795	385.128	484.335	499.8587	593.5237	637.2775	727.2585	775.9277	801.4765	804.4135	838.6725	895.1063	924.0167	962.9295	1005.261	1013.2552	1031.7001	1042.9651	1048.3462	1059.7353	1089.8605	1098.9708	1202.0518	1222.1644	1234.5619	1286.1223	1332.2771	1352.86	1371.411	2362.842	3095.6745	3197.2373	3235.6379	3243.0718	3253.5553
N#CC1C2C3OC1OC23	N#C[C@H]1[C@H]2[C@H]3O[C@@H]1O[C@@H]23	
InChI=1S/C6H5NO2/c7-1-2-3-4-5(3)9-6(2)8-4/h2-6H	InChI=1S/C6H5NO2/c7-1-2-3-4-5(3)9-6(2)8-4/h2-6H/t2-,3-,4+,5-,6+/m0/s1
