14
gdb 129799	3.5396	1.60716	1.11191	5.1938	71.46	-0.1933	-0.0158	0.1775	999.5255	0.104725	-429.035925	-429.028864	-429.02792	-429.0671	27.501	
N	 0.1956674483	 1.4401901901	 0.0113110845	-0.617122
C	-0.0099975291	 0.0475776397	 0.0120761589	 0.10713
C	-1.0943931338	-0.8132555798	-0.0151509931	 0.333091
N	-2.4505728094	-0.965166744	-0.0531798888	-0.417812
N	-2.7759890585	-2.3022783134	-0.0564798599	-0.102621
N	-1.7032146163	-3.0111775919	-0.022063053	-0.298153
C	-0.6235427324	-2.1537262781	 0.0048343278	 0.270149
C	 0.7641806733	-2.1256139075	 0.0446981412	-0.203157
N	 1.0913880904	-0.7991437135	 0.0478507461	-0.231165
H	-0.1620981629	 1.8936682226	-0.8224286618	 0.244281
H	-0.2088223451	 1.9014745206	 0.8190087349	 0.244287
H	-3.1964223298	-0.2930723106	-0.0788767256	 0.267641
H	 1.5121680843	-2.8987518584	 0.0699917532	 0.136304
H	 2.0285441009	-0.4299383559	 0.0730117256	 0.267148
188.5084	208.9557	282.0139	283.5265	283.6911	395.8378	548.6362	574.6777	618.8601	625.044	680.9415	697.5327	703.2198	762.7638	774.7071	846.1017	978.3137	1014.1146	1082.1658	1126.2202	1206.5093	1221.1027	1285.7097	1316.6902	1333.6463	1402.0529	1450.7405	1490.9796	1544.8378	1659.2643	1683.4444	3285.6872	3499.8414	3563.3372	3655.6276	3693.7328
NC1=C2NN=NC2=CN1	Nc1c2[nH]nnc2c[nH]1	
InChI=1S/C4H5N5/c5-4-3-2(1-6-4)7-9-8-3/h1,6H,5H2,(H,7,8)	InChI=1S/C4H5N5/c5-4-3-2(1-6-4)7-9-8-3/h1,6H,5H2,(H,7,8)
