21
gdb 114628	2.30255	1.26574	0.95273	1.407	78.6	-0.2353	0.0663	0.3015	1319.7197	0.18119	-424.182501	-424.172972	-424.172028	-424.217183	35.407	
C	-0.0374968035	 1.5725205091	-0.2183893393	-0.381611
C	-0.0394757026	 0.1110835042	 0.2419044791	-0.203975
C	-1.3949773838	-0.5465159063	 0.071396552	 0.115272
O	-1.8600205146	-0.6205923699	-1.316121969	-0.312238
C	-2.1409496856	-2.010375122	-1.1582226506	 0.050446
C	-0.886960324	-2.7846333324	-0.905888908	-0.363662
C	-1.5783724204	-2.0588342287	 0.2435770079	 0.219715
C	-2.0224786388	-2.7331813738	 1.5033583134	-0.177152
O	-0.9904094586	-2.7787589096	 2.4840263573	-0.412952
H	 0.952464637	 2.022616066	-0.10010527	 0.111437
H	-0.321437421	 1.6422538241	-1.2723690593	 0.136659
H	-0.7489389822	 2.1715720179	 0.3606963432	 0.114401
H	 0.7150320517	-0.4554768381	-0.3150821226	 0.095725
H	 0.2275049348	 0.0390659436	 1.3040362854	 0.110115
H	-2.1515172679	-0.0075618204	 0.6603225718	 0.077923
H	-3.0522288095	-2.4013378017	-1.5965508765	 0.106776
H	-1.0055602	-3.8647634939	-0.8790472476	 0.112377
H	 0.0511985355	-2.4351812011	-1.3261709192	 0.118843
H	-2.8393835475	-2.1725134484	 1.971515062	 0.111621
H	-2.4061993765	-3.7406775953	 1.2753549484	 0.087421
H	-0.2345925024	-3.2199847331	 2.0815839717	 0.28286
68.0786	92.9499	117.0851	172.559	211.6274	264.0042	280.372	355.9182	373.6808	419.9462	484.0138	511.2492	701.9113	739.8717	781.2896	860.9513	892.6043	919.1468	923.4455	960.7434	995.2029	999.5983	1031.3395	1048.924	1055.3871	1082.3708	1101.5466	1126.1005	1153.9203	1188.8773	1246.851	1261.5643	1283.6932	1306.6103	1337.6048	1366.3669	1391.5433	1408.2509	1419.3108	1430.0804	1476.6322	1483.2807	1498.3344	1502.5845	1509.3205	2974.1247	2998.0568	3030.5436	3036.7355	3062.9982	3070.8501	3104.4054	3113.0459	3118.3046	3177.4699	3202.2748	3807.4535
CCC1OC2CC12CO	CC[C@H]1O[C@H]2C[C@@]12CO	
InChI=1S/C7H12O2/c1-2-5-7(4-8)3-6(7)9-5/h5-6,8H,2-4H2,1H3	InChI=1S/C7H12O2/c1-2-5-7(4-8)3-6(7)9-5/h5-6,8H,2-4H2,1H3/t5-,6+,7-/m1/s1
