15
gdb 28641	5.67003	1.00446	0.85781	4.4402	83.84	-0.27	-0.0608	0.2092	1281.9893	0.114456	-379.75624	-379.748428	-379.747484	-379.789287	28.3	
C	-0.0483448171	 1.5084510865	-0.0037753095	-0.467653
C	-0.0150902237	 0.0054412901	 0.0292168688	 0.328888
N	-0.2372219255	-0.6209400096	-1.1379791371	-0.310245
C	-0.2181856683	-1.9470645561	-1.1607051153	-0.053606
C	 0.0223626368	-2.7392339137	-0.0275465766	 0.12099
C	 0.2535761821	-2.0862766528	 1.1874898511	-0.153616
C	 0.2336140885	-0.7010198135	 1.2108545685	-0.152545
C	 0.0284154892	-4.1632196461	-0.1239130177	 0.209277
N	 0.0325098636	-5.3181719144	-0.2061566995	-0.328079
H	 0.1400789918	 1.9418556832	 0.9808051834	 0.124132
H	 0.7014625721	 1.8866402498	-0.7058571521	 0.15044
H	-1.0222992003	 1.8560423246	-0.3625661244	 0.150442
H	-0.4014255241	-2.4238957435	-2.1199759634	 0.135009
H	 0.4435517386	-2.6604421624	 2.0870439049	 0.133549
H	 0.4091787264	-0.1657632021	 2.1370040889	 0.113016
53.049	100.1309	151.6767	246.6063	352.7806	412.9851	429.7398	458.0006	563.1732	586.3425	658.9118	702.1091	757.8053	845.4294	861.8895	972.6296	998.3246	1009.2756	1040.9819	1061.1101	1162.1291	1227.2368	1257.6642	1291.8219	1333.0393	1404.6927	1410.3024	1473.6546	1483.8479	1515.0232	1588.4562	1636.4862	2344.2033	3044.2542	3105.0827	3132.2185	3167.9513	3191.4144	3208.0156	53.0486	100.1309	151.6767	246.6063	352.7806	412.9851	429.7398	458.0006	563.1731	586.3425	658.9118	702.1091	757.8053	845.4294	861.8893	972.6296	998.3242	1009.2756	1040.9819	1061.1101	1162.1289	1227.2368	1257.6642	1291.8219	1333.0393	1404.6925	1410.3024	1473.6546	1483.8479	1515.0231	1588.4561	1636.4861	2344.2031	3044.2542	3105.0827	3132.2185	3167.9513	3191.4144	3208.0155
CC1=NC=C(C=C1)C#N	Cc1ncc(cc1)C#N	
InChI=1S/C7H6N2/c1-6-2-3-7(4-8)5-9-6/h2-3,5H,1H3	InChI=1S/C7H6N2/c1-6-2-3-7(4-8)5-9-6/h2-3,5H,1H3
