20
gdb 113891	2.84122	0.9392	0.84819	2.26	76.03	-0.259	0.056	0.315	1470.2401	0.169825	-440.320253	-440.310314	-440.30937	-440.356284	36.04	
C	-0.108591694	 1.2405778461	 0.0862733089	-0.37616
C	-0.2944073151	-0.2315261395	-0.2976701026	-0.197953
C	 0.6830929681	-0.6878085761	-1.3604092985	-0.007153
C	 2.0767820989	-1.1586380682	-0.9758941135	-0.338924
C	 1.0718731873	-2.1315010382	-1.5041361236	 0.128002
O	 0.5906653912	-3.0712324232	-0.5616713962	-0.265569
C	-0.5264059792	-3.7509521228	-0.9449147655	 0.495988
N	-0.9227948313	-4.5814926844	 0.0664893286	-0.565441
O	-1.0861076843	-3.6197738855	-2.006043685	-0.394708
H	 0.8972124946	 1.4216672258	 0.4797449498	 0.115755
H	-0.2473630393	 1.8966663807	-0.7801159952	 0.113933
H	-0.8301639103	 1.5434422136	 0.8514864443	 0.110733
H	-0.184930469	-0.8634820138	 0.590391998	 0.101517
H	-1.3168316249	-0.3918323156	-0.6625848981	 0.109672
H	 0.6077449614	-0.1464773933	-2.3008091173	 0.0883
H	 2.9268306263	-0.9008889908	-1.5975807058	 0.114764
H	 2.2950420912	-1.2215124346	 0.0854122734	 0.120092
H	 1.1819869357	-2.5499163957	-2.4975105346	 0.114948
H	-0.269384958	-4.7904799661	 0.8021950493	 0.263937
H	-1.5926348693	-5.2889722285	-0.1820738866	 0.268268
32.143	69.8432	91.7333	164.9932	191.2188	231.2719	294.6988	342.2611	363.3153	431.7854	457.1794	513.3915	590.3392	675.2916	764.6799	784.5386	792.5599	822.1298	835.9701	925.4347	968.9649	1012.1166	1042.5608	1054.5756	1087.526	1113.2121	1116.7624	1136.0712	1176.8181	1197.3698	1244.6926	1296.2949	1332.6149	1351.6421	1406.4731	1411.7022	1424.9207	1484.6943	1494.9557	1498.452	1508.9628	1611.6569	1841.0347	3028.9626	3031.655	3067.0648	3100.2661	3104.335	3132.4568	3133.9847	3181.3092	3220.2867	3613.3323	3742.2503
CCC1CC1OC(N)=O	CC[C@H]1C[C@H]1OC(=O)N	
InChI=1S/C6H11NO2/c1-2-4-3-5(4)9-6(7)8/h4-5H,2-3H2,1H3,(H2,7,8)	InChI=1S/C6H11NO2/c1-2-4-3-5(4)9-6(7)8/h4-5H,2-3H2,1H3,(H2,7,8)/t4-,5+/m0/s1
