19
gdb 110909	3.03774	1.42404	1.1977	2.7549	69.77	-0.25	0.0663	0.3163	1072.1072	0.161358	-460.132053	-460.124431	-460.123487	-460.163994	30.74	
O	 0.0203894708	 1.4177973551	-0.0442367449	-0.429115
C	 0.0248275049	 0.0046867021	-0.086420134	-0.090328
C	-1.383640255	-0.5849788369	 0.0126538769	-0.051287
C	-1.4268006566	-2.1106791711	 0.2497149748	 0.056837
C	-2.9137986035	-2.3839519196	 0.5601146436	-0.243494
C	-2.4819515787	-1.6069870948	 1.8166449129	 0.038095
O	-1.1509810418	-2.2155627163	 1.6952541404	-0.317638
C	-2.164253882	-0.1825013962	 1.323608366	 0.133851
O	-1.3800683603	 0.5238384925	 2.2742170464	-0.445305
H	-0.3324209102	 1.644213281	 0.826711151	 0.290443
H	 0.4715985133	-0.2792988305	-1.0459189433	 0.104145
H	 0.6626670019	-0.4257557288	 0.7016807863	 0.085112
H	-1.9512656748	-0.3020182064	-0.8790680254	 0.083043
H	-0.8050392007	-2.7655101271	-0.3608454293	 0.087855
H	-3.6779393276	-1.9593493032	-0.0955236852	 0.103257
H	-3.1088860259	-3.4338375446	 0.7803014874	 0.118247
H	-2.9373514675	-1.7203184887	 2.8003968019	 0.089237
H	-3.0460807373	 0.4323490768	 1.1347971218	 0.094192
H	-0.7139867989	-0.1066185335	 2.5817682727	 0.292854
125.7138	157.1156	210.3252	285.9174	353.0396	390.6086	456.8872	508.7295	573.7198	622.5415	641.268	736.5282	805.3547	829.7679	856.6675	873.2465	901.5064	923.147	967.4163	999.0282	1019.9511	1065.1589	1069.4461	1088.2606	1107.9285	1135.6067	1182.0489	1197.4322	1225.996	1232.4039	1256.5395	1272.9528	1287.1912	1313.9895	1321.0198	1356.7301	1402.9893	1438.3551	1445.1846	1488.8751	1514.9208	2979.9351	3055.0294	3067.9186	3072.6133	3102.1303	3123.4392	3128.8177	3146.502	3751.6512	3758.5813
OCC1C2CC(O2)C1O	OC[C@H]1[C@@H]2C[C@@H](O2)[C@H]1O	
InChI=1S/C6H10O3/c7-2-3-4-1-5(9-4)6(3)8/h3-8H,1-2H2	InChI=1S/C6H10O3/c7-2-3-4-1-5(9-4)6(3)8/h3-8H,1-2H2/t3-,4-,5+,6-/m0/s1
