17
gdb 73378	2.49329	2.18775	1.6016	0.7108	65.51	-0.2387	0.0616	0.3003	867.6761	0.137874	-458.932831	-458.926265	-458.92532	-458.963342	27.586	
O	 0.1197443015	 1.3186829647	-0.1118342358	-0.500495
C	 0.056743471	-0.0732845363	-0.0261922962	 0.367153
C	 0.6428190352	-0.7445364201	-1.2699906482	-0.10697
O	 0.302259189	-2.1326458331	-1.0913991449	-0.276735
C	-0.7308641201	-2.1704569764	-0.1359698176	 0.106313
C	-0.3724746485	-1.8645735695	 1.366859027	 0.033253
C	 0.693945024	-0.7681058997	 1.2219183257	-0.280437
O	-1.5953199619	-1.0680607386	 1.4523996173	-0.304255
C	-1.3470543833	-0.7795725785	 0.0583379072	-0.031824
H	-0.2973076609	 1.6845251805	 0.6759704132	 0.285085
H	 0.1921734231	-0.3526453274	-2.1928641336	 0.104552
H	 1.7298040159	-0.6456400692	-1.3377760437	 0.117372
H	-1.3917640168	-3.0205672209	-0.2956587152	 0.099257
H	-0.2796272715	-2.6186351152	 2.147768266	 0.083125
H	 1.7042531651	-1.137724205	 1.0332668155	 0.112046
H	 0.6984148739	-0.1184137725	 2.1011798279	 0.10333
H	-2.1842961157	-0.352380223	-0.4921482246	 0.08923
221.7138	265.8364	313.1756	356.0213	423.6	439.3042	509.839	606.8581	639.3037	692.6832	765.1371	794.226	846.3088	884.4929	894.8936	954.4525	958.6126	983.4712	997.7383	1040.0844	1044.5906	1087.5992	1117.0193	1154.5151	1170.748	1193.2687	1200.5155	1213.0515	1248.0252	1268.3568	1295.7769	1316.6114	1331.8199	1388.4652	1410.2883	1473.4604	1526.0335	3007.6352	3065.1573	3088.241	3122.57	3126.8696	3132.1609	3144.7089	3804.4591
OC12COC3C(C1)OC23	O[C@@]12CO[C@H]3[C@@H](C1)O[C@@H]23	
InChI=1S/C6H8O3/c7-6-1-3-4(8-2-6)5(6)9-3/h3-5,7H,1-2H2	InChI=1S/C6H8O3/c7-6-1-3-4(8-2-6)5(6)9-3/h3-5,7H,1-2H2/t3-,4+,5-,6-/m1/s1
