17
gdb 70671	2.53479	1.66037	1.22198	1.7059	67.88	-0.2538	-0.0391	0.2146	1027.5705	0.134844	-458.9541	-458.945966	-458.945022	-458.986929	30.723	
O	 0.3944248202	 0.9830979105	-0.3694610094	-0.475976
C	-0.0163017329	-0.3050640024	-0.0750106273	 0.408087
C	-0.7312800274	-1.1700616677	-1.083574303	-0.35118
C	-1.4503705206	-0.6753228442	 0.1576447112	-0.124636
C	-1.440761288	-1.6243062558	 1.3439867648	-0.096898
O	-0.0869074544	-2.0879475568	 1.4599502708	-0.275258
C	 0.7634726878	-1.0532627325	 1.0047763165	-0.02937
C	 2.0655591841	-1.6272861576	 0.4893514569	 0.125909
O	 2.8285646709	-0.9686667457	-0.1755042877	-0.256197
H	 1.290241521	 0.9064298601	-0.7251719423	 0.294554
H	-0.9905174603	-0.678132364	-2.0138553874	 0.123716
H	-0.488826941	-2.2253317705	-1.1650974826	 0.119099
H	-2.2423385769	 0.0574365407	 0.0639348112	 0.107802
H	-1.7480631564	-1.0969603115	 2.2596404121	 0.104528
H	-2.0710203811	-2.5103636201	 1.2218689621	 0.116539
H	 1.0058136062	-0.3286447741	 1.8038023268	 0.105974
H	 2.2675074388	-2.6877166487	 0.7494306972	 0.103307
80.9589	129.8113	156.6612	244.1242	308.7564	362.8585	401.0024	437.4107	483.2037	514.8457	640.8647	672.9181	713.2516	840.3333	873.4852	922.4156	935.1694	973.3583	1017.1207	1053.6248	1055.8619	1080.8814	1086.2842	1114.2676	1131.078	1228.4855	1233.0612	1255.2242	1295.7358	1339.8018	1354.8088	1371.6325	1395.3911	1419.1402	1492.6985	1514.8171	1814.4057	2918.4692	2942.2117	2994.8602	3081.2325	3127.9776	3194.2192	3226.0972	3758.9501
OC12CC1COC2C=O	O[C@]12C[C@H]1CO[C@H]2C=O	
InChI=1S/C6H8O3/c7-2-5-6(8)1-4(6)3-9-5/h2,4-5,8H,1,3H2	InChI=1S/C6H8O3/c7-2-5-6(8)1-4(6)3-9-5/h2,4-5,8H,1,3H2/t4-,5-,6+/m0/s1
