16
gdb 53886	4.42816	0.68886	0.60801	3.772	67.71	-0.2511	-0.0742	0.1769	1714.519	0.121008	-475.081934	-475.072004	-475.07106	-475.11883	33.583	
N	-0.0090738688	 1.3279492607	-0.0386954442	-0.517815
C	 0.0640226027	-0.0108473362	-0.1937557452	 0.336005
O	 1.0450723648	-0.6454764899	-0.5304129811	-0.347604
C	-1.2824327683	-0.7103870146	 0.1148826607	 0.293305
O	-2.2484572903	-0.0614368193	 0.4457404641	-0.306035
C	-1.2727400993	-2.2154887301	-0.0152082632	-0.312223
C	-2.6637550578	-2.8375144085	 0.1327276114	-0.280937
C	-2.5916594038	-4.3359022902	 0.3180194429	 0.160091
O	-3.2013925647	-5.1431841409	-0.3325621963	-0.234562
H	 0.7997095474	 1.9001211176	-0.2124457296	 0.272688
H	-0.8845923896	 1.7396511116	 0.2413885633	 0.281325
H	-0.7954514303	-2.4740219428	-0.9667269032	 0.161479
H	-0.5761045811	-2.5954563325	 0.7466621665	 0.149438
H	-3.1464760904	-2.4100660849	 1.0222424936	 0.139704
H	-3.3014161236	-2.6141383934	-0.725940449	 0.133514
H	-1.9092218772	-4.6600746965	 1.1403101795	 0.071629
42.7369	49.7811	67.624	87.052	143.8335	260.2907	298.6128	320.5125	379.3491	413.8399	495.4157	541.6249	612.0565	626.0808	702.1631	775.8011	810.005	865.5108	1013.4908	1047.6466	1078.4793	1096.8193	1110.7182	1181.3311	1260.8736	1292.4779	1354.8406	1392.9182	1429.9399	1433.2727	1463.6643	1590.5033	1799.3075	1810.068	1840.902	2844.496	3022.7073	3031.6804	3079.7619	3114.1091	3596.8752	3737.1779
NC(=O)C(=O)CCC=O	NC(=O)C(=O)CCC=O	
InChI=1S/C5H7NO3/c6-5(9)4(8)2-1-3-7/h3H,1-2H2,(H2,6,9)	InChI=1S/C5H7NO3/c6-5(9)4(8)2-1-3-7/h3H,1-2H2,(H2,6,9)
