19
gdb 84716	2.45036	1.92753	1.39205	2.331	75.08	-0.2486	0.0103	0.259	975.0272	0.162763	-423.038875	-423.031673	-423.030729	-423.070457	29.192	
O	 0.2396859805	 1.3438968504	-0.3220836769	-0.431074
C	 0.0744693689	-0.0511757211	-0.0862291516	 0.082608
C	 0.6779042156	-0.4615454297	 1.2361886045	-0.095948
C	-0.2407627917	-0.8653768296	 2.110617186	-0.07979
C	-1.6353265039	-0.8611105356	 1.5390858787	-0.075908
C	-2.5327555781	 0.305104141	 2.0414700154	-0.093221
O	-2.4417186761	 1.3199819371	 1.0467394316	-0.257253
C	-2.4175882675	 0.6244069506	-0.2014563515	-0.104663
C	-1.4219934396	-0.5126297155	 0.0314846549	-0.082693
H	-0.2178039226	 1.8003478186	 0.3973166878	 0.283669
H	 0.5668755643	-0.5281718508	-0.9400325241	 0.086838
H	 1.7388118137	-0.3524770075	 1.4317051662	 0.100056
H	-0.0433655463	-1.1558719918	 3.1377576173	 0.097495
H	-2.1405181332	-1.8204827666	 1.6872563279	 0.079497
H	-3.5771113514	-0.0282846375	 2.1455233761	 0.090324
H	-2.2062198042	 0.7353454763	 2.991832137	 0.109086
H	-3.4187285385	 0.233722555	-0.4430427662	 0.08706
H	-2.1051491734	 1.3301689877	-0.9716891968	 0.127221
H	-1.6083181963	-1.3693283409	-0.6192289462	 0.076698
94.218	188.0387	229.7716	357.6981	372.9755	455.9999	516.3873	525.2556	608.1714	719.2993	752.4315	778.5045	794.9099	830.867	873.451	931.1283	944.0879	978.9711	984.8808	1000.5605	1035.4872	1043.3125	1073.3575	1101.938	1122.4821	1137.8862	1201.6863	1218.4016	1262.0496	1283.1512	1289.4203	1291.9883	1327.3886	1330.2743	1347.9121	1372.2135	1400.2071	1446.1663	1498.2487	1512.0827	1686.4729	2977.8806	2983.5752	3053.4739	3056.6498	3092.5071	3093.7782	3130.0974	3176.0962	3206.3227	3754.4242
OC1C=CC2COCC12	O[C@H]1C=C[C@H]2COC[C@@H]12	
InChI=1S/C7H10O2/c8-7-2-1-5-3-9-4-6(5)7/h1-2,5-8H,3-4H2	InChI=1S/C7H10O2/c8-7-2-1-5-3-9-4-6(5)7/h1-2,5-8H,3-4H2/t5-,6+,7-/m0/s1
