18
gdb 50991	2.13742	1.36553	1.01991	3.0619	77.76	-0.2489	0.0237	0.2726	1220.7621	0.14566	-401.926211	-401.916784	-401.91584	-401.961071	34.573	
O	 2.2915841316	 2.9408699515	 2.1895858595	-0.319937
C	 1.3826866941	 2.8742733861	 1.391041534	 0.147266
N	 1.4205016237	 2.1845446695	 0.2136262496	-0.326878
C	 2.5138529206	 1.3168550118	-0.1341566809	 0.360546
C	 2.5620972125	 0.0058937231	 0.6521729259	-0.414924
C	 1.3764493441	-0.8182997005	 0.438469022	 0.303167
C	 0.3835906514	-1.4683470064	 0.2459115725	-0.458018
C	 2.9421550501	 1.333553349	-1.5778695034	-0.31517
C	 3.8090566133	 1.9755800808	-0.5213177116	-0.284272
H	 0.4136072406	 3.3951521006	 1.5288466449	 0.076726
H	 0.5454961552	 2.0476426297	-0.2707673435	 0.252087
H	 3.4602346995	-0.5541189181	 0.3660292557	 0.127844
H	 2.667627327	 0.2478869139	 1.716309712	 0.160413
H	-0.4828732473	-2.0613023331	 0.0876676799	 0.197107
H	 3.2615595732	 0.3949790232	-2.0168048124	 0.123303
H	 2.4027878923	 1.9868071147	-2.2546717482	 0.116787
H	 3.845185721	 3.0565865668	-0.4772437735	 0.132892
H	 4.7298471769	 1.4811393073	-0.2335899426	 0.121061
46.783	73.694	123.0138	167.3488	237.185	299.8809	325.5133	356.4439	404.2324	428.1643	522.9691	555.0182	616.8628	646.7525	719.2484	771.5354	825.7843	897.2772	907.666	942.4376	981.9238	1003.9031	1028.3238	1036.8908	1062.9917	1085.5565	1171.0283	1184.6589	1223.5016	1291.4366	1323.3673	1369.7477	1431.3462	1459.4334	1469.8179	1496.7161	1504.9299	1806.6006	2236.2181	2931.0443	3034.0245	3072.3252	3137.3472	3149.9059	3221.3984	3241.3094	3506.0817	3607.5934
O=CNC1(CC#C)CC1	O=CNC1(CC#C)CC1	
InChI=1S/C7H9NO/c1-2-3-7(4-5-7)8-6-9/h1,6H,3-5H2,(H,8,9)	InChI=1S/C7H9NO/c1-2-3-7(4-5-7)8-6-9/h1,6H,3-5H2,(H,8,9)
