18
gdb 89172	2.11291	1.73067	1.21129	1.5071	75.6	-0.2097	-0.0267	0.1829	1076.4292	0.145341	-439.034472	-439.025396	-439.024451	-439.068068	33.412	
C	-0.2676790351	 1.4320012232	-0.2266334922	-0.338938
N	 0.2438766593	 0.0715846586	-0.2013025708	-0.058847
C	 1.4053659028	-0.3619315387	-1.0236206407	-0.248905
C	 1.9514113195	-1.0904422022	 0.2241971878	 0.329948
O	 2.4007699905	-2.391320847	 0.2419916244	-0.450833
C	 2.285114321	-0.1108439422	 1.3480570786	-0.206858
C	 2.9412459856	 1.1980990975	 1.203803323	 0.129205
O	 2.925363269	 1.9164760832	 0.2247641557	-0.28682
C	 0.7989025172	-0.5231023951	 0.9764246554	-0.074706
H	 0.4871800156	 2.1990072424	-0.0185284793	 0.136978
H	-0.7024554829	 1.6290701294	-1.2120562076	 0.122065
H	-1.0728329722	 1.5159148051	 0.5111834864	 0.118253
H	 1.1106901042	-1.0584999998	-1.8149884804	 0.112379
H	 2.0266756415	 0.4444381662	-1.4175511084	 0.135217
H	 3.3344535075	-2.3950184571	 0.0018449206	 0.292168
H	 2.5681948874	-0.6440639467	 2.253105409	 0.098809
H	 3.5082300509	 1.5101296763	 2.1108292765	 0.07564
H	 0.1854050982	-0.9241340633	 1.776230212	 0.115245
89.508	148.3735	167.7518	188.6001	207.1326	241.0559	283.9547	341.9359	413.0408	417.482	511.9982	607.9034	612.894	720.5781	778.8751	855.507	906.8958	954.8233	985.0038	1020.3207	1031.1353	1069.0383	1073.1882	1128.4901	1163.742	1195.2879	1202.3071	1236.4708	1275.2578	1288.555	1327.3958	1371.0414	1436.2662	1449.0539	1472.9549	1486.1078	1492.7633	1515.5571	1776.8506	2862.5148	3022.5488	3049.2737	3089.2676	3098.0232	3123.4028	3143.415	3172.0239	3791.5575
CN1CC2(O)C(C=O)C12	CN1C[C@@]2(O)[C@@H](C=O)[C@@H]12	
InChI=1S/C6H9NO2/c1-7-3-6(9)4(2-8)5(6)7/h2,4-5,9H,3H2,1H3	InChI=1S/C6H9NO2/c1-7-3-6(9)4(2-8)5(6)7/h2,4-5,9H,3H2,1H3/t4-,5+,6+/m0/s1
