23
gdb 100010	2.3805	1.20798	1.13793	1.428	80.54	-0.2579	0.0661	0.324	1255.3852	0.20265	-425.406644	-425.395932	-425.394988	-425.441903	40.473	
C	-0.3266222505	 1.5854807145	-0.1178781846	-0.424868
C	-0.0215541059	 0.0798503009	-0.0148665501	 0.18201
C	 0.8162888361	-0.1800277232	 1.2496893607	-0.45324
C	-1.3538294992	-0.7122834071	 0.1004130952	-0.088985
O	-2.1314488236	-0.3562055838	 1.2349896401	-0.428048
C	 0.6983727667	-0.4206436518	-1.2844959932	 0.409451
C	 0.0618797979	-0.1106841944	-2.6294536919	-0.474864
C	 2.1446610241	-0.7033702787	-1.2943309688	-0.236344
O	 1.1987350214	-1.7706333157	-1.1929895108	-0.286425
H	 0.5937934042	 2.1711938996	-0.2139971188	 0.1071
H	-0.9669911346	 1.8156403877	-0.974220528	 0.113702
H	-0.8537257038	 1.9143615868	 0.7811964451	 0.130233
H	 0.2238510252	 0.0461403716	 2.1409579322	 0.105381
H	 1.1447859272	-1.2220896056	 1.2990962678	 0.130423
H	 1.6976958222	 0.4663497565	 1.2884526666	 0.114574
H	-1.9909635355	-0.4956373467	-0.7620560206	 0.104432
H	-1.1328439554	-1.7881879162	 0.0883790776	 0.107892
H	-1.7709952019	-0.8130316685	 1.9996933117	 0.286696
H	 0.105671782	 0.9589415415	-2.8543733437	 0.12696
H	 0.597704645	-0.6493350819	-3.4145307938	 0.127398
H	-0.9862185283	-0.4195954124	-2.6707772911	 0.129071
H	 2.6837348914	-0.6501973822	-2.2402424405	 0.106229
H	 2.7576578253	-0.5383221112	-0.4126619112	 0.11122
46.5966	102.8688	173.7073	194.5443	223.3107	256.6515	284.8559	301.6002	325.4219	340.902	365.7522	384.4713	399.549	436.7071	506.9063	519.3378	684.4667	790.3133	824.8044	908.3357	909.7722	923.4154	953.7155	975.301	1012.0144	1040.2949	1066.0844	1103.753	1134.9251	1144.9447	1168.8026	1179.9795	1231.3328	1273.0325	1299.6642	1372.3937	1387.356	1392.9265	1408.7425	1415.5092	1429.4226	1483.1965	1487.0987	1495.2189	1497.9149	1503.57	1513.5502	1518.2399	1533.528	3014.6411	3036.1862	3042.1761	3048.0462	3084.771	3086.7659	3103.3884	3106.4464	3115.711	3119.7516	3121.8676	3126.9802	3178.2523	3841.3835
CC(C)(CO)C1(C)CO1	CC(C)(CO)[C@@]1(C)CO1	
InChI=1S/C7H14O2/c1-6(2,4-8)7(3)5-9-7/h8H,4-5H2,1-3H3	InChI=1S/C7H14O2/c1-6(2,4-8)7(3)5-9-7/h8H,4-5H2,1-3H3/t7-/m1/s1
