19
gdb 38872	2.759	2.14415	1.94629	2.1743	71.92	-0.2423	0.087	0.3293	832.9267	0.165081	-423.035349	-423.029651	-423.028707	-423.064999	25.71	
C	-0.0062347966	 1.5879430957	 0.0248514693	-0.205022
C	 1.5206986983	 1.7767507613	-0.0465281197	-0.090098
C	 1.7997808786	 1.0037338572	-1.3559130048	-0.21148
C	 1.3421339548	-0.3151094294	-0.7196998817	 0.082336
O	 2.3415361969	-0.4260036347	 0.3145020413	-0.265464
C	 2.1051105291	 0.7756820251	 1.0393764279	 0.201464
O	 1.1629633313	 0.4888049335	 2.0546685682	-0.264097
C	 0.1411282871	-0.356129175	 1.4957618293	-0.07679
C	-0.0173608775	 0.0332758653	 0.0156419153	-0.084256
H	-0.4611497766	 1.9948187393	 0.9293576623	 0.10851
H	-0.4989832935	 2.0325483998	-0.8436385612	 0.092339
H	 1.8950899707	 2.7969581606	 0.0358325505	 0.066728
H	 1.1957178935	 1.3629566379	-2.1930204934	 0.094267
H	 2.8487732573	 0.9468159829	-1.6508829055	 0.105418
H	 1.3480197753	-1.2279121813	-1.3142331836	 0.076446
H	 3.0215936433	 1.1064695443	 1.5290108285	 0.089495
H	 0.4146790771	-1.4105566865	 1.6168816377	 0.105182
H	-0.7749757393	-0.1599324122	 2.0610275608	 0.103148
H	-0.8945930397	-0.4271729437	-0.4416713212	 0.071874
327.0566	350.9416	424.9394	515.2988	535.0428	555.205	643.1071	663.962	778.3504	787.1148	848.3057	872.6479	896.3819	908.5522	927.126	936.7703	954.6372	962.163	992.8056	999.6839	1023.7624	1052.8652	1074.2012	1107.3401	1132.587	1175.2538	1198.8304	1205.7761	1236.3443	1265.4937	1280.3097	1298.365	1305.4896	1320.3413	1322.564	1346.8662	1363.034	1397.8008	1489.6921	1509.5957	1516.1913	3032.659	3063.0969	3070.5094	3083.5587	3098.4954	3109.2531	3119.486	3121.8775	3128.8138	3131.5001
C1C2CC3OC2OCC13	C1[C@@H]2C[C@H]3O[C@@H]2OC[C@@H]13	
InChI=1S/C7H10O2/c1-4-2-6-5(1)3-8-7(4)9-6/h4-7H,1-3H2	InChI=1S/C7H10O2/c1-4-2-6-5(1)3-8-7(4)9-6/h4-7H,1-3H2/t4-,5-,6-,7+/m1/s1
