21
gdb 63659	3.94544	0.76334	0.72649	2.8955	80.1	-0.2491	0.074	0.3231	1628.1457	0.18016	-424.187723	-424.177959	-424.177015	-424.222828	36.387	
C	 0.0638529716	 1.5313913271	-0.3307213348	-0.448384
C	-0.0231646166	 0.0699867858	 0.0479010548	 0.384189
O	-1.2610488486	-0.5186321539	-0.2728569958	-0.465821
C	 1.1952347271	-0.8232846675	-0.0262756208	-0.355619
C	 0.5651691745	-0.4766523062	 1.3152500873	-0.012849
C	 1.2961106252	 0.3643106426	 2.3425602156	-0.270614
C	 2.1994008251	-0.4796648471	 3.2126093842	 0.114573
C	 2.4169493679	-0.1901227279	 4.6343866065	-0.183058
O	 1.5578008625	-1.257176893	 4.2286193785	-0.23663
H	 1.0203143721	 1.9755047519	-0.0437896802	 0.116569
H	-0.037778182	 1.6505724351	-1.4167465855	 0.106927
H	-0.7411006639	 2.1003388865	 0.1457617728	 0.126909
H	-1.3367534018	-0.5364387736	-1.2337447393	 0.277579
H	 1.0563984331	-1.8297945002	-0.4046593691	 0.112732
H	 2.1498856604	-0.3682806587	-0.2754873656	 0.102372
H	-0.0320375909	-1.2728302895	 1.7501663269	 0.112843
H	 1.9052801089	 1.1330437126	 1.8512773109	 0.096301
H	 0.5774306581	 0.8850545457	 2.9868912592	 0.107445
H	 2.9831579377	-1.0211105901	 2.6792847914	 0.091498
H	 3.3453382746	-0.492808735	 5.1171668942	 0.112103
H	 1.9169680749	 0.6646539954	 5.0891450488	 0.110933
58.7518	71.0188	123.3807	194.6852	217.2761	259.8235	312.4573	326.37	383.2277	402.5668	441.5112	460.0812	530.9848	705.8947	790.4188	841.0306	856.3142	879.973	914.6996	925.8776	961.4019	975.1825	1007.2404	1043.9155	1083.3322	1091.795	1120.5668	1126.3014	1158.2691	1163.4484	1179.4915	1230.7477	1268.1498	1293.1069	1294.2635	1315.1269	1363.623	1414.3122	1422.8226	1447.1841	1465.3885	1482.2702	1488.4422	1511.8281	1531.7985	3023.7571	3027.5377	3065.7958	3079.2617	3086.5639	3096.2049	3118.3492	3122.0424	3158.8981	3164.5745	3214.3273	3787.2893
CC1(O)CC1CC1CO1	C[C@@]1(O)C[C@H]1C[C@H]1CO1	
InChI=1S/C7H12O2/c1-7(8)3-5(7)2-6-4-9-6/h5-6,8H,2-4H2,1H3	InChI=1S/C7H12O2/c1-7(8)3-5(7)2-6-4-9-6/h5-6,8H,2-4H2,1H3/t5-,6+,7-/m1/s1
