19
gdb 76348	1.97716	1.69315	1.31894	4.1061	71.09	-0.2501	-0.0378	0.2123	1066.591	0.157464	-460.155027	-460.14563	-460.144685	-460.18901	34.818	
C	 0.8838659053	 1.4980002348	-0.0293143038	-0.405452
C	 0.1465462123	 0.161228736	-0.0144924495	-0.068347
C	 0.73904577	-0.937068859	-0.9653747558	 0.144566
O	 1.5333244469	-0.5658892061	-2.0513721859	-0.432413
C	 1.3983947804	-1.6470482928	 0.2604245712	-0.234606
C	 2.8555516052	-1.3807315567	 0.4984008372	 0.180387
O	 3.5502845323	-0.6206309525	-0.1402149015	-0.267989
C	 0.4659570563	-0.7629260328	 1.1898793184	 0.108445
O	 1.0505542523	-0.1072135765	 2.2893654301	-0.412532
H	 1.9580549823	 1.384536946	 0.1301599334	 0.136871
H	 0.7358589871	 1.9860410507	-0.9966956762	 0.123455
H	 0.499681484	 2.1549325214	 0.7552496132	 0.120925
H	-0.9238713014	 0.3378503861	-0.1560502167	 0.071648
H	-0.0632097466	-1.5638157256	-1.3673822388	 0.087221
H	 2.3835808478	-0.2729372613	-1.6922698467	 0.299855
H	 1.2369785315	-2.726946927	 0.3540599024	 0.085881
H	 3.2973912396	-1.9457671753	 1.3476134229	 0.091126
H	-0.408966674	-1.3469835971	 1.4991531167	 0.080579
H	 1.0449396187	-0.7001449423	 3.0468454392	 0.290378
85.1489	103.2752	187.5503	194.1625	226.446	236.2488	257.1443	280.216	386.1297	475.6745	491.1529	566.4505	573.2057	673.9712	759.6437	784.822	812.7708	849.6543	898.7108	981.923	1028.3606	1049.1639	1058.5945	1119.6899	1148.2867	1151.6481	1186.4277	1221.8607	1247.6348	1276.4007	1287.3923	1325.9757	1350.5743	1376.1463	1408.1925	1428.2352	1440.1218	1474.6712	1497.3378	1503.8537	1791.8512	2893.554	3020.5717	3043.541	3049.0563	3052.9858	3065.6504	3120.8763	3136.6196	3714.9056	3824.2768
CC1C(O)C(C=O)C1O	C[C@H]1[C@@H](O)[C@@H](C=O)[C@H]1O	
InChI=1S/C6H10O3/c1-3-5(8)4(2-7)6(3)9/h2-6,8-9H,1H3	InChI=1S/C6H10O3/c1-3-5(8)4(2-7)6(3)9/h2-6,8-9H,1H3/t3-,4+,5+,6-
