18
gdb 8924	2.3883	1.77012	1.27308	4.2213	68.36	-0.2542	0.0238	0.278	1028.5329	0.152286	-381.116746	-381.107058	-381.106114	-381.151442	33.743	
C	-0.4599131081	 1.1510041576	-0.0055389616	-0.255565
O	 0.4032295159	 0.0311536052	 0.1200796414	-0.257935
C	 0.8052955056	-0.5749327999	-1.0981510493	 0.115883
C	 2.3062195349	-0.8397503448	-1.0243820379	-0.408944
C	 0.0008379939	-1.8994180525	-1.2986057089	-0.141463
N	 0.0063142109	-2.7992836065	-0.1470449174	-0.497099
C	-1.3945325081	-1.5860527216	-1.6590938857	 0.316273
N	-2.4763519882	-1.3084564785	-1.9558580386	-0.332299
H	 0.0133934348	 1.9544202888	-0.5881713554	 0.110704
H	-1.415662548	 0.8886590425	-0.4731780394	 0.145167
H	-0.6471344348	 1.5160214798	 1.0071026317	 0.131495
H	 0.5934445993	 0.0925830787	-1.9451607016	 0.089053
H	 2.5431443022	-1.4841906917	-0.1727920047	 0.122611
H	 2.6697824177	-1.3175189005	-1.9397419668	 0.117903
H	 2.8415574447	 0.102700489	-0.8878422506	 0.131719
H	 0.4305626694	-2.4344539549	-2.1544791522	 0.126276
H	 0.9269247842	-3.2133265528	-0.0446888884	 0.238495
H	-0.1656594463	-2.2432286679	 0.6872506852	 0.247727
48.0773	89.2936	146.5052	169.9363	209.2561	231.8817	251.1025	293.5507	331.2525	349.7706	415.9791	525.6885	585.0493	680.8724	780.7311	860.9611	873.1664	968.7448	1007.1749	1064.6094	1126.0188	1135.7739	1154.5521	1182.1251	1205.9978	1234.2539	1287.1498	1340.7976	1382.4114	1404.5077	1414.1881	1482.2728	1483.3516	1492.2667	1499.4799	1512.9528	1660.1801	2357.1572	2997.1382	3011.2138	3041.1224	3046.1119	3072.6822	3116.0524	3122.5061	3127.6126	3491.6543	3580.888
COC(C)C(N)C#N	CO[C@@H](C)[C@@H](N)C#N	
InChI=1S/C5H10N2O/c1-4(8-2)5(7)3-6/h4-5H,7H2,1-2H3	InChI=1S/C5H10N2O/c1-4(8-2)5(7)3-6/h4-5H,7H2,1-2H3/t4-,5-/m0/s1
