15
gdb 53767	3.7602	0.65188	0.56544	5.1212	74.54	-0.2652	-0.0355	0.2298	1846.1798	0.110555	-453.93182	-453.921725	-453.920781	-453.969839	33.251	
N	-0.0434920213	 0.8792210222	 0.1056734144	-0.52051
C	-0.2933506579	-0.4329003144	 0.3816651366	 0.273529
O	 0.5207787019	-1.1875245221	 0.8747447215	-0.327361
C	-1.6484309445	-0.85908284	 0.0484704188	 0.03333
C	-2.7512046596	-1.2768334742	-0.2007700427	 0.063506
C	-4.0831273946	-1.8056866086	-0.4825208803	-0.23795
O	-4.0841551428	-3.1736002669	-0.886473287	-0.17248
C	-3.7278320603	-4.0760307586	 0.0606460676	 0.137355
N	-3.7520032454	-5.3037087498	-0.2181540629	-0.431631
H	 0.8924242592	 1.2223932112	 0.249943245	 0.270329
H	-0.7037789805	 1.4450069487	-0.398480176	 0.268565
H	-4.7285225761	-1.6609791734	 0.3956215501	 0.145415
H	-4.5410925043	-1.2652889447	-1.315538413	 0.159986
H	-3.4381536508	-3.6216659537	 1.0164583846	 0.102803
H	-3.4591050729	-5.8506266157	 0.5888239034	 0.235113
15.3289	45.0687	79.2361	114.3399	131.2593	194.6324	222.4084	318.8613	351.0678	409.7307	507.1993	560.9424	600.5934	667.6171	732.5888	771.4619	821.206	946.2148	1022.4192	1040.2736	1065.6434	1091.8786	1126.8577	1240.1237	1310.0847	1349.1322	1392.2365	1427.153	1478.5139	1610.1143	1752.0629	1779.0514	2346.7207	3009.3663	3043.5276	3092.5861	3521.2602	3599.5017	3739.8955
NC(=O)C#CCOC=N	NC(=O)C#CCO[CH][NH]	
InChI=1S/C5H6N2O2/c6-4-9-3-1-2-5(7)8/h4,6H,3H2,(H2,7,8)	InChI=1S/C5H6N2O2/c6-4-9-3-1-2-5(7)8/h4,6H,3H2,(H2,7,8)
