17
gdb 69449	2.94149	1.28817	1.22349	1.6817	73.55	-0.2543	0.0354	0.2897	1090.5762	0.134935	-421.771406	-421.7632	-421.762256	-421.803943	32.02	
O	-0.4439941245	 1.3520898413	 0.1545859269	-0.467857
C	-0.1903087827	-0.0132699985	 0.0808708982	 0.381357
C	-0.1887572324	-0.7434330494	-1.2372122388	-0.370015
C	-1.2972282764	-0.9801431329	-0.2308293052	-0.096481
C	-1.0962146289	-2.1608362664	 0.7135347157	-0.096531
O	 0.2658310845	-2.0459512972	 1.1576119844	-0.255087
C	 0.6066188089	-0.6630446878	 1.203539138	-0.151451
C	-2.0473276339	-2.132113667	 1.8293920524	 0.340074
C	-2.826189265	-2.1047999649	 2.7442476698	-0.454412
H	 0.318699243	 1.8185823324	-0.2038426587	 0.287511
H	-0.4637119728	-0.1604986256	-2.1092518553	 0.116464
H	 0.5445819949	-1.5258721512	-1.4067909522	 0.123751
H	-2.2998337075	-0.6326443355	-0.4414558698	 0.115092
H	-1.1610559396	-3.1299374003	 0.2052467029	 0.113579
H	 1.6942055977	-0.5993769356	 1.0909565005	 0.103296
H	 0.3166647064	-0.1976012455	 2.1571420274	 0.111035
H	-3.5123161916	-2.0867158959	 3.5547588938	 0.199676
89.1144	139.9633	240.9564	273.0029	293.6148	349.5288	380.3368	435.0683	470.0711	541.1891	586.5478	626.7945	669.1752	733.7207	749.3904	832.966	912.3722	914.9534	935.8625	979.2336	1020.0912	1033.8877	1059.3273	1074.6576	1091.6567	1107.4673	1210.0505	1256.1829	1270.035	1294.2405	1327.4992	1347.9004	1361.302	1414.3304	1480.6241	1514.5705	2233.9245	3001.5522	3041.6259	3070.8038	3127.3328	3208.3014	3223.3466	3502.9524	3802.2695
OC12CC1C(OC2)C#C	O[C@]12C[C@H]1[C@@H](OC2)C#C	
InChI=1S/C7H8O2/c1-2-6-5-3-7(5,8)4-9-6/h1,5-6,8H,3-4H2	InChI=1S/C7H8O2/c1-2-6-5-3-7(5,8)4-9-6/h1,5-6,8H,3-4H2/t5-,6-,7-/m0/s1
