18
gdb 16063	3.11636	1.67021	1.37582	1.6161	67.62	-0.2356	0.0642	0.2998	965.9859	0.153146	-384.888667	-384.880477	-384.879533	-384.921322	30.282	
C	-0.0224530351	 1.554684433	 0.136138683	-0.42016
C	 0.0444712035	 0.0440335444	 0.171016676	-0.089594
C	 1.2828125257	-0.7322997953	-0.1656459863	 0.029712
O	 2.4634342139	-0.0312997334	 0.23203173	-0.285087
C	 2.0604917862	-0.1221288607	 1.6263511392	-0.13381
C	 0.7383879238	-0.7891125172	 1.2493693772	 0.2263
C	 0.0648353358	-1.8796879211	 2.0234456615	-0.178282
O	-0.6068135947	-1.3985790204	 3.1827171316	-0.412051
H	 0.9661955498	 1.9899242252	 0.2974935313	 0.14088
H	-0.3770041715	 1.8983122817	-0.8412563439	 0.120973
H	-0.7047585926	 1.950015667	 0.8963761132	 0.111336
H	-0.8537901233	-0.4632250946	-0.1811543655	 0.086513
H	 1.3786300855	-1.4775826011	-0.948058458	 0.103913
H	 2.7323804483	-0.7926917403	 2.1748489083	 0.110842
H	 2.031918959	 0.8554099981	 2.1199937282	 0.107693
H	-0.6212206387	-2.4335568804	 1.3620526504	 0.087137
H	 0.8039915019	-2.5978748502	 2.3965320669	 0.111503
H	-1.2411615673	-0.7353075247	 2.891026767	 0.282181
76.6404	134.6148	165.1089	256.0985	259.8523	300.3357	335.4661	389.8311	452.5801	592.0806	698.2602	760.1283	795.1489	918.0348	930.1282	943.3642	992.5033	1000.8404	1014.8263	1051.9853	1075.5503	1087.9691	1114.5547	1131.3736	1157.4324	1201.0945	1257.8716	1278.4842	1312.3928	1352.8534	1372.8436	1412.6741	1421.7897	1467.1992	1492.4746	1498.7278	1505.6996	1521.9166	2972.4224	3026.7435	3036.6368	3060.7275	3076.7291	3092.9054	3111.5972	3133.1205	3171.1578	3810.6174
CC1C2OCC12CO	C[C@H]1[C@H]2OC[C@@]12CO	
InChI=1S/C6H10O2/c1-4-5-6(4,2-7)3-8-5/h4-5,7H,2-3H2,1H3	InChI=1S/C6H10O2/c1-4-5-6(4,2-7)3-8-5/h4-5,7H,2-3H2,1H3/t4-,5+,6-/m0/s1
