16
gdb 71379	2.68054	1.80528	1.30565	4.6002	69.16	-0.236	-0.003	0.233	973.1731	0.12297	-437.831762	-437.823758	-437.822814	-437.863977	30.472	
C	-0.0095012173	 1.4791285068	 0.0189331514	-0.517277
C	-0.0490558146	-0.0182509762	 0.0017551935	 0.237787
C	-1.220221681	-0.9763648582	-0.2015139393	-0.242309
N	-0.3237744052	-2.0960767979	 0.3178607464	-0.220531
C	 0.5817319972	-1.0156816184	 0.9104126365	-0.118038
C	 1.2184514095	-0.8516622205	-0.4600473195	 0.195
O	 2.4157685096	-0.2569106369	-0.7531631901	-0.448531
C	 0.6561948735	-2.1898805659	-0.8110698238	 0.366326
O	 0.8636319827	-3.0775233253	-1.5737998992	-0.31668
H	 0.9991560337	 1.8380892527	 0.2436492449	 0.140178
H	-0.3096399952	 1.893843571	-0.9501011219	 0.127062
H	-0.6900432296	 1.8790334072	 0.7780129244	 0.135039
H	-2.0496098992	-0.801877623	 0.4904617914	 0.118542
H	-1.607769302	-1.1485816791	-1.2124003414	 0.116082
H	 1.0275840087	-1.0336959213	 1.8937415293	 0.125999
H	 2.3495714392	 0.181033895	-1.6097290525	 0.30135
113.51	174.1596	217.6877	246.1083	266.3579	288.6171	349.6771	459.6228	515.8408	559.6746	642.2691	712.3314	767.8997	796.8029	833.4711	893.6938	916.0085	929.6555	951.0518	987.0824	1013.2362	1074.3084	1120.911	1130.6196	1166.0975	1235.9646	1270.3083	1292.5131	1381.9824	1421.7762	1436.0533	1488.461	1498.2843	1514.1941	1923.5071	3030.3734	3034.352	3091.8729	3092.8697	3113.0081	3234.3634	3790.9979
CC12CN3C1C2(O)C3=O	C[C@]12CN3[C@H]1[C@@]2(O)C3=O	
InChI=1S/C6H7NO2/c1-5-2-7-3(5)6(5,9)4(7)8/h3,9H,2H2,1H3	InChI=1S/C6H7NO2/c1-5-2-7-3(5)6(5,9)4(7)8/h3,9H,2H2,1H3/t3-,5+,6-/m1/s1
