25
gdb 100118	2.33695	1.09748	0.97194	1.0234	89.35	-0.2349	0.0809	0.3158	1429.9797	0.225867	-389.479496	-389.468574	-389.46763	-389.515465	41.27	
C	 0.3367508761	 1.4841791873	 0.2177065664	-0.394387
C	 0.0426877393	 0.0093260703	-0.0699151853	-0.178557
C	 0.689481463	-0.5560982914	-1.3508947703	 0.366207
C	 0.3520936607	-2.0517375025	-1.4650698287	-0.418943
C	 0.2147181746	 0.1920272923	-2.6056368204	-0.41723
O	 2.1039249861	-0.3835816441	-1.1260438084	-0.292648
C	 2.9834263702	-0.737577303	-2.1460595017	 0.146691
C	 3.4926974168	 0.3115254487	-3.1045678317	-0.285769
C	 4.3801445524	-0.2226178371	-1.9985192528	-0.291941
H	 1.4142321248	 1.6642793835	 0.2318066291	 0.130062
H	-0.1098189197	 2.1465444024	-0.5304008704	 0.110614
H	-0.0709885879	 1.7713771398	 1.1918987291	 0.107285
H	 0.4019309274	-0.5978352274	 0.7691710179	 0.098911
H	-1.0400589008	-0.1523700283	-0.133911735	 0.088412
H	-0.7323513776	-2.1964951779	-1.4937186268	 0.112131
H	 0.7636161779	-2.4949127404	-2.3766986543	 0.11132
H	 0.751070228	-2.5968715875	-0.6046985657	 0.119145
H	 0.4965799605	 1.2467527707	-2.5713132974	 0.120123
H	 0.6429291756	-0.2423211771	-3.5127088895	 0.117207
H	-0.8753739613	 0.1304899202	-2.6866197717	 0.110295
H	 2.8655924809	-1.7493634138	-2.5299978151	 0.082765
H	 3.7009045259	 0.026102476	-4.130459814	 0.107715
H	 3.1083751021	 1.3170764454	-2.9805013599	 0.117226
H	 4.5610442966	 0.4316095204	-1.1531631174	 0.122564
H	 5.2060186582	-0.8772650765	-2.252883996	 0.110802
42.9746	92.444	112.4576	160.6896	213.5209	241.2291	248.9552	280.3832	327.9323	330.9815	345.8226	393.9122	462.9962	501.4064	526.301	719.17	758.0064	780.3746	812.2118	828.0976	886.7306	918.6247	929.51	972.193	997.2677	1011.2709	1026.3303	1058.849	1069.9616	1070.1352	1084.1263	1127.8977	1190.8435	1195.2492	1209.5267	1216.4668	1239.2003	1266.3602	1326.512	1373.8662	1392.7443	1398.5873	1406.985	1416.0737	1454.2179	1470.2836	1481.3219	1488.6428	1494.7058	1497.8091	1504.8628	1509.4501	1516.4777	3028.7902	3038.2326	3042.9555	3046.88	3066.5437	3103.6093	3104.3987	3112.226	3115.1468	3118.5639	3127.5495	3129.587	3133.9268	3140.1367	3219.2204	3233.5685
CCC(C)(C)OC1CC1	CCC(C)(C)OC1CC1	
InChI=1S/C8H16O/c1-4-8(2,3)9-7-5-6-7/h7H,4-6H2,1-3H3	InChI=1S/C8H16O/c1-4-8(2,3)9-7-5-6-7/h7H,4-6H2,1-3H3
