12
gdb 130776	3.46505	1.36801	0.98079	2.4326	67.37	-0.28	-0.1217	0.1583	1075.5505	0.076674	-472.606715	-472.599369	-472.598425	-472.640093	26.044	
O	-0.0835515574	 0.5022317405	-1.2707374901	-0.280802
C	-0.0329085863	 1.2294116614	-0.3195678463	 0.432847
O	-1.2713700335	 1.5407719279	 0.2427061078	-0.263441
N	-1.6379701004	 2.3231540593	 1.3175728007	-0.030847
C	-0.8314713614	 2.9693577517	 2.0682886097	-0.020625
C	 0.6434948005	 3.1695217528	 2.149428244	 0.323445
O	 1.06837088	 3.8850666199	 3.037237394	-0.303991
C	 1.567688365	 2.533302321	 1.1998534718	-0.146084
C	 1.2642519239	 1.728725365	 0.1785694213	-0.181509
H	-1.3545185773	 3.515794312	 2.8518088607	 0.164144
H	 2.6081217117	 2.7768986067	 1.3928888161	 0.149776
H	 2.0665512253	 1.335354212	-0.4371929998	 0.157088
28.7034	73.4517	246.8535	352.8989	368.2206	388.1194	419.3243	546.1533	608.7907	648.302	756.1995	778.0138	786.6112	881.1151	892.1178	957.9568	966.9743	1050.8372	1108.9851	1238.6791	1322.3797	1350.7351	1405.1187	1665.6405	1704.9471	1745.6129	1821.0761	3157.1249	3183.7237	3201.4682
O=C1ON=CC(=O)C=C1	O=c1oncc(=O)cc1	
InChI=1S/C5H3NO3/c7-4-1-2-5(8)9-6-3-4/h1-3H	InChI=1S/C5H3NO3/c7-4-1-2-5(8)9-6-3-4/h1-3H
