15
gdb 75858	3.46882	1.26368	0.95555	3.7742	81.27	-0.2079	-0.0294	0.1785	1165.201	0.11211	-416.788188	-416.779712	-416.778768	-416.821265	31.918	
O	 0.0802842842	 1.3795437213	-0.1448282467	-0.420638
C	-0.0025286377	-0.0216494659	-0.0395192847	-0.052053
C	 0.6077707538	-0.5198140374	 1.2777497472	 0.377643
N	 1.7365205098	-0.1108382874	 1.6909404491	-0.555629
N	-0.3250225587	-1.3763951389	 1.8450011516	-0.343358
C	-1.5280175644	-1.3180068291	 1.1334607475	-0.122754
C	-1.4309690496	-0.5450531609	 0.0343789817	 0.110205
C	-2.4165636475	-0.3075420421	-0.9394919237	 0.239232
C	-3.2374505368	-0.0831091887	-1.7935300978	-0.432338
H	 0.9318126905	 1.618175408	 0.2482574293	 0.295474
H	 0.5214633229	-0.5079362525	-0.8800220153	 0.104299
H	 1.9859630314	-0.4828050088	 2.6079160369	 0.214391
H	-0.2651269057	-1.6983494398	 2.7976199559	 0.257012
H	-2.3784171089	-1.8895384802	 1.4764970288	 0.139842
H	-3.9654149531	 0.1186664324	-2.5391992497	 0.188672
68.3445	130.0826	173.3729	252.9569	295.0499	368.3458	404.7226	428.228	475.4541	504.852	536.623	554.3372	630.5935	652.0961	687.1268	747.6365	850.2998	880.2701	886.4897	906.9483	1059.4568	1113.1959	1136.5114	1220.9407	1232.8598	1272.3623	1326.616	1365.8012	1408.1642	1424.1016	1667.2941	1761.0682	2223.0182	2957.7317	3243.7726	3470.5453	3505.1399	3641.7437	3746.3221
OC1C(=N)NC=C1C#C	O[C@H]1[C]([NH])NC=C1C#C	
InChI=1S/C6H6N2O/c1-2-4-3-8-6(7)5(4)9/h1,3,5,9H,(H2,7,8)	InChI=1S/C6H6N2O/c1-2-4-3-8-6(7)5(4)9/h1,3,5,9H,(H2,7,8)/t5-/m1/s1
