25
gdb 101838	2.70978	0.81763	0.66563	0.8516	90.49	-0.2454	0.0871	0.3325	1801.8277	0.2269	-389.480531	-389.469508	-389.468563	-389.517964	39.936	
C	 0.0102856919	 1.6479405415	-0.1398821857	-0.386343
C	 0.0106215409	 0.1182667127	-0.1021817896	-0.171055
C	 0.7317059877	-0.5172392774	-1.293208099	 0.162991
C	 0.8021164804	-2.0425153564	-1.1726612173	-0.403031
O	 0.0271239429	-0.1132442863	-2.4628590769	-0.260934
C	 0.7595778374	-0.19008091	-3.6696591878	-0.074132
C	-0.0892957272	 0.3460434286	-4.7905021084	 0.014486
C	-0.1560556097	 1.8294110684	-5.0402496339	-0.248035
C	 0.5768597378	 0.9343061643	-6.0086121494	-0.272923
H	 1.0310778179	 2.0448816665	-0.0937898437	 0.105534
H	-0.4480704381	 2.0047991411	-1.0652017664	 0.13379
H	-0.5462412532	 2.0647402624	 0.7050961337	 0.10678
H	 0.4844770813	-0.2389428018	 0.8200607682	 0.0899
H	-1.0209155089	-0.2558699609	-0.091871238	 0.101636
H	 1.7591454579	-0.1136062448	-1.3404921791	 0.056674
H	-0.206722819	-2.4647615088	-1.1222170217	 0.120865
H	 1.31889017	-2.4939458295	-2.0243026682	 0.114481
H	 1.343892057	-2.3311590946	-0.2660969868	 0.111947
H	 1.6899179533	 0.3997207364	-3.5899448664	 0.076536
H	 1.055596654	-1.2289609415	-3.8871905075	 0.086236
H	-1.0037109799	-0.2154077796	-4.9583874295	 0.0884
H	-1.1032674673	 2.2572707402	-5.3486121943	 0.111498
H	 0.4348142035	 2.4742404599	-4.3981544521	 0.113143
H	 1.6610871338	 0.9815787451	-6.0226272641	 0.109765
H	 0.1315068156	 0.7441190745	-6.9786584359	 0.11179
31.7948	52.1889	110.7749	128.6238	132.1263	208.3608	225.8054	245.8397	284.9982	341.4536	378.3697	447.9087	486.8248	507.0221	771.4453	775.0946	815.4726	828.4869	849.6348	902.7347	928.7307	959.5314	979.1712	1000.9281	1031.8999	1042.5954	1059.9356	1078.4257	1110.913	1130.5779	1136.8165	1162.6841	1189.185	1196.8229	1209.2876	1227.2162	1281.4848	1301.1231	1330.7759	1362.8848	1390.7	1396.7434	1404.7742	1406.0813	1450.8108	1470.4512	1474.5279	1491.825	1495.7731	1497.8914	1506.1516	1511.6228	1520.1352	2939.6019	2948.92	2984.5387	3026.5086	3034.0394	3038.5285	3064.5071	3097.8009	3108.2732	3113.0684	3127.451	3130.4164	3135.6174	3152.4129	3208.4613	3223.8227
CCC(C)OCC1CC1	CC[C@@H](C)OCC1CC1	
InChI=1S/C8H16O/c1-3-7(2)9-6-8-4-5-8/h7-8H,3-6H2,1-2H3	InChI=1S/C8H16O/c1-3-7(2)9-6-8-4-5-8/h7-8H,3-6H2,1-2H3/t7-/m1/s1
