19
gdb 79539	2.42726	1.71311	1.20632	0.7857	86.7	-0.2349	0.0406	0.2755	1080.6475	0.158682	-348.680625	-348.672372	-348.671427	-348.712991	32.938	
C	-0.0692617677	 1.5229930744	-0.0051349665	-0.422559
C	 0.1053468304	 0.0206391086	 0.0517598873	-0.001812
C	 1.3959478041	-0.7162726036	-0.2068406193	-0.087488
C	 2.5978049035	-0.0127482858	 0.371503461	-0.115274
C	 3.202731165	-0.8182136225	 1.4822190899	-0.328796
C	 1.9355100082	-0.0363332354	 1.7803678623	 0.204436
C	 1.8978554645	 0.9934474081	 2.765899593	 0.215214
C	 1.8529352179	 1.8555251249	 3.6054619718	-0.434274
C	 0.7345037293	-0.7483853419	 1.1878643596	-0.173667
H	 0.7738963596	 2.0522044339	 0.4428941722	 0.135114
H	-0.1706628918	 1.8597625891	-1.0429748008	 0.112053
H	-0.9728815619	 1.8269277271	 0.5340227508	 0.118258
H	-0.7449015758	-0.5232001222	-0.3598225337	 0.084538
H	 1.4542959583	-1.5340187402	-0.9170007936	 0.08864
H	 3.1228812557	 0.8269739891	-0.0690566229	 0.100187
H	 3.1604909465	-1.9038758868	 1.4554089839	 0.110779
H	 4.104503815	-0.4090219766	 1.9267899454	 0.122814
H	 1.8129846953	 2.6156518937	 4.3453653375	 0.184002
H	 0.2305710239	-1.5826060141	 1.6638191221	 0.087836
114.192	147.1597	193.2777	222.1858	265.3509	382.9962	437.9092	492.8738	538.1241	569.2201	581.3781	642.3186	651.9643	727.4635	756.5296	815.8866	831.5014	891.8833	914.9632	968.6193	981.6147	1014.361	1023.6785	1051.8731	1063.966	1080.0927	1096.9526	1111.8348	1141.1988	1199.3837	1210.0948	1276.3455	1284.5272	1336.0795	1358.5613	1413.7913	1440.8891	1486.5952	1494.4122	1500.7117	2228.9114	3034.3131	3090.9027	3109.6727	3114.8336	3133.9149	3162.3346	3173.403	3180.4506	3208.2411	3503.6407
CC1C2C3CC3(C#C)C12	C[C@H]1[C@H]2[C@@H]3C[C@]3(C#C)[C@@H]12	
InChI=1S/C9H10/c1-3-9-4-6(9)7-5(2)8(7)9/h1,5-8H,4H2,2H3	InChI=1S/C9H10/c1-3-9-4-6(9)7-5(2)8(7)9/h1,5-8H,4H2,2H3/t5-,6-,7-,8-,9-/m0/s1
