16
gdb 123767	4.87109	1.04315	0.96875	2.8574	70.35	-0.2573	-0.0146	0.2427	1210.3466	0.125525	-437.855694	-437.848242	-437.847298	-437.889177	26.959	
C	-0.2285595842	 0.9863343776	 0.3631514705	-0.063874
C	 0.9687353964	 1.1182860695	-0.5959375594	-0.289383
C	 1.7770312325	 0.4765036511	 0.5635046807	 0.042782
O	 0.5605537963	 0.2246768143	 1.3055500057	-0.291303
C	 2.5409393367	-0.7747854895	 0.2832833647	 0.380717
N	 3.851783392	-0.7510361939	 0.2139969996	-0.208105
O	 4.2367174436	-2.0499812306	-0.097214731	-0.162655
C	 3.1389942779	-2.8156519313	-0.1914323829	 0.080442
C	 2.0236044994	-2.0801098247	 0.0355896412	-0.328879
H	-0.5764733938	 1.9316326834	 0.7982696497	 0.106897
H	-1.0945040267	 0.4197124348	 0.0043330492	 0.10894
H	 0.9050408474	 0.487702162	-1.483961447	 0.119318
H	 1.2672390902	 2.1261242587	-0.8850796475	 0.121158
H	 2.429448505	 1.1885058378	 1.0826871389	 0.100147
H	 3.3123680471	-3.8563529177	-0.4178427024	 0.15264
H	 0.9962533802	-2.4001407515	 0.05177865	 0.131158
33.7975	85.2563	142.3696	207.3335	380.0997	410.2338	615.6978	653.6401	721.9933	781.2739	804.9231	849.6485	872.5968	910.3898	922.7149	948.0596	958.9541	996.941	1029.4873	1037.2571	1083.6841	1098.7596	1155.7733	1167.3838	1212.8283	1255.2638	1267.4764	1299.1923	1353.4061	1359.553	1453.5878	1485.2566	1487.5854	1531.3327	1605.6401	3020.0313	3038.6349	3066.8428	3087.1637	3146.0715	3264.2125	3296.5645
C1CC(O1)C1=NOC=C1	C1C[C@@H](O1)c1nocc1	
InChI=1S/C6H7NO2/c1-4-9-7-5(1)6-2-3-8-6/h1,4,6H,2-3H2	InChI=1S/C6H7NO2/c1-4-9-7-5(1)6-2-3-8-6/h1,4,6H,2-3H2/t6-/m1/s1
