14
gdb 132192	2.00896	1.85388	0.96995	3.3919	69.15	-0.2383	-0.0334	0.2049	1121.9182	0.100538	-478.010775	-478.003099	-478.002155	-478.043294	28.257	
C	 0.0654917884	 1.4662190342	-0.041548629	-0.470773
C	-0.0580367586	-0.0190744707	 0.0306703809	 0.404685
N	-1.1269114892	-0.6601552138	-0.1986339329	-0.338056
C	-1.1507975544	-2.0779977071	-0.1055978113	 0.342583
N	-2.2055125989	-2.7608656097	-0.3285528732	-0.524379
C	 0.1096248694	-2.7155259801	 0.2624241672	-0.364201
C	 1.1662012931	-1.9354238861	 0.4788244195	 0.384033
F	 2.364029417	-2.3488822533	 0.8150835074	-0.036354
O	 1.1551774488	-0.5906774164	 0.3818284427	-0.234223
H	 0.8237695624	 1.7470791623	-0.7793845729	 0.156202
H	-0.8963240419	 1.8951221957	-0.3172664667	 0.16203
H	 0.3884913623	 1.8661984649	 0.9248419595	 0.156183
H	-2.9666877534	-2.1227153814	-0.5685216323	 0.220655
H	 0.1765225951	-3.7893280486	 0.3547639109	 0.141614
117.2681	133.2071	177.8171	219.7381	291.0624	363.2546	493.811	536.4695	563.489	576.1874	622.9499	656.0724	737.4905	861.5508	911.0808	919.0593	924.474	983.9639	1063.3973	1067.7444	1133.2496	1199.6514	1242.356	1340.7473	1403.4832	1411.0607	1470.5786	1473.1403	1687.4686	1721.4754	1773.8569	3051.1353	3109.5246	3175.8346	3250.5449	3466.67
CC1=NC(=N)C=C(F)O1	CC1=NC(=C[C@H](F)O1)[NH]	
InChI=1S/C5H5FN2O/c1-3-8-5(7)2-4(6)9-3/h2,7H,1H3	InChI=1S/C5H6FN2O/c1-3-8-5(7)2-4(6)9-3/h2,4,7H,1H3/t4-/m1/s1
