20
gdb 106195	3.32378	1.40823	1.38025	1.7235	80.75	-0.2192	0.076	0.2952	1056.6712	0.172654	-365.961259	-365.953815	-365.952871	-365.993196	30.082	
C	 0.1230604432	 1.5013612398	-0.1550846194	-0.374125
C	-0.0207007607	-0.0004509722	 0.1303110028	-0.32034
C	-1.4422961801	-0.4764501876	 0.0606755453	 0.381151
C	-2.2170624232	-0.8423719813	-1.187732507	-0.142061
C	-3.6218170878	-0.2812017221	-1.0813729728	-0.172069
N	-3.8633558991	-0.3400920869	 0.3677510248	-0.120615
C	-3.1459900589	-1.5017489217	 0.9254262495	-0.0593
C	-2.0283579197	-1.8690649164	-0.0893322552	-0.176989
C	-2.5855770635	-0.1324984483	 1.071044935	-0.128232
H	 1.1671602518	 1.8195838665	-0.0767793849	 0.111485
H	-0.2315382318	 1.7451326833	-1.161748059	 0.118047
H	-0.4610018041	 2.0968688069	 0.5545564009	 0.119489
H	 0.5831211605	-0.5715901865	-0.5857981601	 0.098835
H	 0.3938491663	-0.2255552074	 1.1220741264	 0.100393
H	-1.6978014941	-0.9580405179	-2.1318474864	 0.086775
H	-3.6989629051	 0.7556653033	-1.4248886938	 0.105327
H	-4.3698957043	-0.8855523464	-1.6048853994	 0.105295
H	-3.6466470996	-2.1583356683	 1.6251367884	 0.091852
H	-1.5302670136	-2.8217037261	-0.2024665968	 0.086694
H	-2.535579966	 0.5464022196	 1.9136536116	 0.088388
86.2315	136.7866	199.5215	307.0564	358.2555	412.657	541.7317	608.7814	737.7532	750.2716	766.6756	779.1792	795.541	835.2727	852.0238	882.6925	907.6387	936.9379	948.4873	976.6224	981.2833	998.8712	1034.241	1041.8709	1056.6068	1094.58	1105.7645	1168.3397	1178.545	1207.9366	1221.2328	1238.9001	1268.1416	1301.4854	1309.2017	1325.6512	1362.6763	1409.0551	1445.1252	1483.9847	1497.682	1498.3483	1507.7047	3015.0874	3034.6149	3046.1214	3048.8109	3091.5564	3103.3191	3107.0981	3181.5122	3188.9492	3196.8648	3215.2363
CCC12C3CN4C(C13)C24	CC[C@@]12[C@@H]3CN4[C@@H]([C@H]13)[C@@H]24	
InChI=1S/C8H11N/c1-2-8-4-3-9-6(5(4)8)7(8)9/h4-7H,2-3H2,1H3	InChI=1S/C8H11N/c1-2-8-4-3-9-6(5(4)8)7(8)9/h4-7H,2-3H2,1H3/t4-,5-,6+,7+,8-,9?/m1/s1
