21
gdb 57431	2.56979	1.21819	1.05831	1.6535	84.79	-0.257	0.019	0.2761	1258.7512	0.178509	-387.040962	-387.030666	-387.029722	-387.07591	38.819	
C	-0.0734590492	 1.5082112404	 0.2417612086	-0.423351
C	-0.0566271566	-0.022639135	 0.1010933178	 0.19779
C	 0.4468275146	-0.6831792427	 1.3988315129	-0.406501
C	-1.4878250505	-0.5112568412	-0.2089577306	-0.407265
C	 0.8347951783	-0.501560052	-1.0447906362	 0.083592
O	 1.0664480219	 0.3423324076	-2.1692646108	-0.251033
C	 2.2065268024	-0.0542055729	-1.3842969451	-0.165634
C	 2.9654539142	 0.9515295492	-0.6903466686	 0.32527
C	 3.6915745441	 1.7374651285	-0.141059351	-0.411258
H	 0.9029260737	 1.9033571225	 0.5257899747	 0.130188
H	-0.3675400514	 1.9824868381	-0.6977636339	 0.127207
H	-0.7943296172	 1.7958739396	 1.0142866643	 0.10304
H	-0.2213128107	-0.4472910604	 2.2337765901	 0.113574
H	 0.4836334541	-1.7745089846	 1.3032704991	 0.10821
H	 1.4503154966	-0.3307937433	 1.6555768009	 0.125095
H	-1.8538197075	-0.0843270965	-1.1484688399	 0.124612
H	-1.5286364077	-1.6028149382	-0.2943636813	 0.10822
H	-2.1760770727	-0.2122879289	 0.5881256407	 0.112135
H	 0.6311670347	-1.539835642	-1.3244826952	 0.087883
H	 2.8371184318	-0.7884967411	-1.8885367685	 0.11564
H	 4.311661477	 2.446023063	 0.350659382	 0.202587
38.5195	127.521	181.1294	206.217	238.5173	248.8265	261.5711	284.1887	319.4604	352.6131	388.1124	420.9202	503.3116	556.9258	611.2466	631.9081	670.1313	721.5791	821.0145	844.5489	933.1978	940.9938	956.9232	965.4939	993.4909	1046.8628	1053.2943	1104.9719	1160.1517	1229.0658	1243.2238	1266.6508	1322.1343	1391.9987	1398.6342	1400.2748	1425.3367	1455.8459	1479.3727	1487.6761	1488.6293	1503.5316	1508.2886	1523.6529	2234.1682	3025.6633	3029.2887	3045.3402	3057.5499	3091.4505	3092.7849	3098.0054	3104.4551	3108.6463	3115.7608	3144.1697	3501.1917
CC(C)(C)C1OC1C#C	CC(C)(C)[C@H]1O[C@H]1C#C	
InChI=1S/C8H12O/c1-5-6-7(9-6)8(2,3)4/h1,6-7H,2-4H3	InChI=1S/C8H12O/c1-5-6-7(9-6)8(2,3)4/h1,6-7H,2-4H3/t6-,7-/m0/s1
