22
gdb 113218	3.85085	0.85927	0.85537	2.3421	83.53	-0.2334	0.0617	0.295	1504.3601	0.193362	-404.308116	-404.298296	-404.297351	-404.342997	36.969	
C	-0.3470578829	 1.4485643742	 0.1357677286	-0.372964
C	 0.2715855567	 0.0678673509	-0.1104990252	-0.198055
C	 0.9060890974	-0.5183374545	 1.1338453896	-0.022863
C	 0.0549264027	-1.2141762095	 2.1819399181	-0.359955
C	 1.0268783633	-2.0066217712	 1.3402616945	 0.333437
O	 0.5085951313	-2.8066874642	 0.3052365263	-0.462896
C	 2.2783097848	-2.5530883384	 1.9669831035	-0.012841
C	 2.5107498782	-4.014899447	 2.0681163304	-0.257371
N	 3.2931040859	-3.1968489203	 1.1218935674	-0.324598
H	 0.4054518951	 2.1659741197	 0.4815003627	 0.112798
H	-0.7933403452	 1.8498473302	-0.779541767	 0.110702
H	-1.1305093122	 1.3989998879	 0.8994012479	 0.114783
H	-0.4870643185	-0.6252506735	-0.4863824047	 0.106407
H	 1.0313849637	 0.1417123	-0.8989026976	 0.100297
H	 1.740688914	 0.0599835166	 1.5252952228	 0.088528
H	 0.2720391718	-1.0644362737	 3.2344238355	 0.112333
H	-0.9984206179	-1.3403232957	 1.949872745	 0.10984
H	-0.0392375792	-3.4909461431	 0.7040220886	 0.288531
H	 2.6939769819	-1.9119829579	 2.7423974377	 0.085719
H	 3.0728202311	-4.4216246728	 2.9040811372	 0.115908
H	 1.7570336963	-4.6842003178	 1.6618942709	 0.094189
H	 2.8920555415	-3.31672414	 0.1928449777	 0.238072
58.3785	88.7455	141.2901	150.3805	235.204	266.2217	280.6623	334.2842	346.9949	365.1185	454.7983	514.9004	599.8599	723.78	774.8072	801.0934	843.2295	859.329	905.3491	925.3448	952.6328	970.7592	979.9088	1015.1441	1042.2495	1054.3815	1090.4098	1106.3892	1126.0196	1149.0125	1180.592	1196.2376	1242.2471	1267.5708	1279.1763	1296.2745	1305.7149	1342.1945	1352.3255	1404.7421	1410.0241	1437.9671	1483.2179	1492.1879	1498.2427	1508.3762	1509.472	3029.1865	3030.6887	3076.7994	3101.2133	3103.3813	3108.0474	3118.9352	3122.3071	3129.7242	3191.152	3210.2902	3485.1805	3805.8534
CCC1CC1(O)C1CN1	CC[C@H]1C[C@]1(O)[C@H]1CN1	
InChI=1S/C7H13NO/c1-2-5-3-7(5,9)6-4-8-6/h5-6,8-9H,2-4H2,1H3	InChI=1S/C7H13NO/c1-2-5-3-7(5,9)6-4-8-6/h5-6,8-9H,2-4H2,1H3/t5-,6+,7+/m0/s1
