17
gdb 49707	3.26779	1.50168	1.49176	2.7266	71.33	-0.2448	-0.0291	0.2157	947.0341	0.137142	-421.825055	-421.817946	-421.817002	-421.856749	27.823	
O	-0.7098216679	 0.8920162993	-0.5451515818	-0.246108
C	 0.1191901884	 1.0533478431	 0.3143779849	 0.148133
C	 1.3163522763	 1.9653244398	 0.2038329216	-0.101482
C	 1.328161651	 3.0152784448	-0.9412281737	-0.108129
C	 0.1172939903	 3.8869757356	-0.479501152	-0.079713
O	 0.1905556707	 3.8475942599	 0.9560629737	-0.280732
C	 1.3834058583	 3.0784854329	 1.2736720816	 0.04308
C	 2.5920649671	 3.8647163783	 0.7910612791	-0.082214
C	 2.5537675232	 3.8222581123	-0.5461899388	-0.085961
H	 0.0607906357	 0.4926893881	 1.2764905632	 0.07904
H	 2.2218917774	 1.3485362027	 0.2124816441	 0.104722
H	 1.2625526361	 2.6497524755	-1.9636854257	 0.0861
H	 0.1991050601	 4.9203182989	-0.8332818182	 0.09985
H	-0.8351648702	 3.4583081795	-0.8016670926	 0.129468
H	 1.3339600363	 2.8014657222	 2.3257081405	 0.081018
H	 3.2542972612	 4.4393248465	 1.4250886179	 0.107371
H	 3.1875662259	 4.3549098807	-1.2440556641	 0.105558
81.3073	182.5091	194.3672	312.1574	383.3749	438.3045	521.837	670.8746	700.0035	715.8035	766.9393	839.8863	856.1315	872.613	900.2175	929.0409	939.8405	954.2491	996.471	1003.0687	1022.9214	1064.5856	1071.6975	1125.109	1172.19	1206.5024	1231.2793	1260.8291	1263.6121	1291.6202	1340.2424	1349.2158	1366.1085	1422.285	1516.4053	1633.0342	1825.3519	2861.5264	3040.8791	3058.5629	3100.5156	3135.7429	3146.7612	3203.3176	3229.2901
O=CC1C2COC1C=C2	O=C[C@H]1[C@H]2CO[C@@H]1C=C2	
InChI=1S/C7H8O2/c8-3-6-5-1-2-7(6)9-4-5/h1-3,5-7H,4H2	InChI=1S/C7H8O2/c8-3-6-5-1-2-7(6)9-4-5/h1-3,5-7H,4H2/t5-,6+,7-/m1/s1
