17
gdb 34993	2.73854	1.64137	1.4364	3.4314	75.28	-0.2434	0.016	0.2595	962.5613	0.138575	-380.840094	-380.833035	-380.832091	-380.871539	28.057	
N	-0.4383333706	-1.1681109471	-0.121069316	-0.360891
C	-0.2044702697	-0.0352815818	-0.0640647177	 0.304838
C	 0.0076951969	 1.3807394872	 0.0092104108	-0.189557
C	 0.482290657	 2.0850878714	 1.274954375	-0.069107
C	 1.2770455981	 1.2742041724	 2.3058045278	-0.277123
C	 2.655870041	 1.0589027393	 1.6693155024	-0.009933
C	 2.8166364262	 0.158940043	 0.5003840529	-0.27167
N	 2.6612739478	 1.6107680316	 0.2945134029	-0.106699
C	 1.3402216294	 2.1541172966	 0.0431429649	-0.02065
H	-0.7588158036	 1.9215612526	-0.5403444608	 0.138731
H	-0.1164436948	 2.9196695476	 1.6217107461	 0.107499
H	 1.3755547059	 1.8568243489	 3.2251955617	 0.119553
H	 0.7830736692	 0.3334926059	 2.5697418224	 0.136456
H	 3.5264101936	 1.2947620051	 2.275855847	 0.098255
H	 3.8071571752	-0.210403159	 0.2486879643	 0.121277
H	 2.0110099019	-0.5114675689	 0.23229552	 0.163187
H	 1.3529194763	 3.0279364153	-0.5984988336	 0.115834
109.9549	162.8804	242.4489	307.578	389.6405	438.6747	587.6728	650.4373	659.4605	691.0251	729.4153	764.3801	800.5601	842.9712	868.0937	898.5448	938.0049	991.9309	1015.8858	1044.5901	1080.1532	1093.2484	1108.7917	1126.4077	1128.2895	1161.8846	1206.113	1219.1039	1296.373	1297.4699	1324.8386	1356.6781	1391.2003	1398.5458	1488.9072	1518.0578	2340.6814	3057.3712	3100.8551	3127.4764	3140.872	3141.4286	3169.9835	3179.2627	3239.3146
N#CC1C2CC3CN3C12	N#C[C@H]1[C@H]2C[C@H]3CN3[C@@H]12	
InChI=1S/C7H8N2/c8-2-6-5-1-4-3-9(4)7(5)6/h4-7H,1,3H2	InChI=1S/C7H8N2/c8-2-6-5-1-4-3-9(4)7(5)6/h4-7H,1,3H2/t4-,5+,6-,7+,9?/m0/s1
