22
gdb 101013	2.09452	1.22192	1.05489	3.3199	77.78	-0.2389	0.0643	0.3032	1294.2166	0.193433	-441.450944	-441.440737	-441.439793	-441.485973	38.065	
C	 0.8593035726	 1.8742234439	-0.100013494	-0.41777
C	 0.2554053532	 0.4625684359	-0.0341664075	-0.072192
C	 0.4388865373	-0.2768172811	-1.3655286239	-0.073908
O	-0.4753471633	-1.3698609556	-1.3914848114	-0.422231
C	 0.7836422009	-0.3319456638	 1.1604373449	 0.314032
C	 2.3002654348	-0.3573659497	 1.3696523219	-0.118872
O	 2.6747941575	-1.3175422668	 2.3283026393	-0.427556
C	-0.0917405672	-0.4814233151	 2.3529107768	-0.284098
N	 0.1703772324	-1.6348181349	 1.4741463309	-0.378193
H	 1.9296876681	 1.8498273444	-0.3298009972	 0.126325
H	 0.3684988029	 2.4683656314	-0.8769405887	 0.116688
H	 0.735012634	 2.3964592688	 0.8530312842	 0.125872
H	-0.8305278083	 0.5640624842	 0.0934739711	 0.083547
H	 0.2348560018	 0.4154684866	-2.1971242275	 0.087273
H	 1.4759093672	-0.6252792087	-1.4746071919	 0.097253
H	-0.2309965537	-1.9590976623	-2.1105840034	 0.291585
H	 2.7964149322	-0.5492007318	 0.4011499747	 0.076392
H	 2.6525907732	 0.618752722	 1.7224059964	 0.103586
H	 2.0488149753	-2.0488638398	 2.196591759	 0.291045
H	 0.3541718252	-0.5614817544	 3.3394921207	 0.12678
H	-1.0757957841	-0.0203145439	 2.3244007574	 0.108689
H	-0.5953572022	-1.8227565194	 0.8345827982	 0.245753
57.8926	115.9824	141.3274	201.6463	220.2666	237.5862	250.2945	267.0587	307.8485	360.7118	391.2892	472.3151	531.1422	553.4837	592.1872	692.3333	832.024	859.6392	922.3049	953.8166	964.6592	971.1421	1025.1461	1052.9157	1062.5562	1094.9593	1109.0144	1124.1859	1127.7123	1162.874	1233.2924	1243.3124	1265.6411	1267.9992	1294.559	1324.353	1342.297	1381.3508	1411.9418	1421.2715	1451.2513	1464.3761	1498.8455	1500.5309	1504.9112	1514.3204	1521.9306	2935.0913	2978.3545	3010.6457	3027.1476	3037.7372	3053.1887	3104.9175	3109.9013	3112.0368	3200.546	3536.0285	3664.9344	3838.23
CC(CO)C1(CO)CN1	C[C@@H](CO)[C@@]1(CO)CN1	
InChI=1S/C6H13NO2/c1-5(2-8)6(4-9)3-7-6/h5,7-9H,2-4H2,1H3	InChI=1S/C6H13NO2/c1-5(2-8)6(4-9)3-7-6/h5,7-9H,2-4H2,1H3/t5-,6-/m0/s1
