23
gdb 59461	2.7101	0.99186	0.90544	2.4946	82.49	-0.254	0.0764	0.3304	1453.4789	0.203434	-425.413359	-425.402611	-425.401667	-425.449144	40.173	
C	-0.0224312556	 1.5482003757	-0.1601583112	-0.401927
C	 0.0218034925	 0.0511940092	 0.1497659451	 0.119626
O	 0.673590684	-0.193462298	 1.4013062255	-0.437037
C	-1.3589064316	-0.5760558084	 0.1268849021	-0.026007
C	-1.9374359257	-1.1524213524	-1.1436133038	-0.319167
C	-1.5377226851	-2.0679170333	-0.0083368919	-0.03051
C	-0.3491889571	-3.0285596745	-0.1174214557	 0.111012
C	-0.8111472494	-4.4867605984	-0.0929840232	-0.413563
O	 0.4683720402	-2.7784118668	-1.2608736041	-0.422106
H	 0.9831183078	 1.9752461375	-0.1155924678	 0.120768
H	-0.439504865	 1.732468819	-1.1553398308	 0.116397
H	-0.6510828818	 2.0779581347	 0.5674066107	 0.098976
H	 0.6524304077	-0.4570640592	-0.5844173972	 0.113766
H	 0.1384056649	 0.2144769608	 2.091237766	 0.27068
H	-2.0699720816	-0.0764770464	 0.7852805689	 0.066912
H	-2.9909217822	-1.0078850923	-1.3565849988	 0.107142
H	-1.2971008836	-1.1332909605	-2.0194749516	 0.109095
H	-2.3617647873	-2.4821972325	 0.5669544509	 0.079802
H	 0.3197446767	-2.8451060264	 0.7300870923	 0.113573
H	-1.5089197915	-4.687400883	-0.9160903605	 0.107411
H	 0.0470633419	-5.1562309563	-0.1954515844	 0.122375
H	-1.3267805915	-4.7229816789	 0.8434195895	 0.116647
H	-0.0440029067	-3.0245862896	-2.0393208797	 0.276135
51.5747	74.3647	118.99	194.771	238.6492	249.9561	265.0858	278.2908	301.5998	335.0121	344.5336	384.8772	448.1551	486.4825	572.5128	616.0676	754.8383	783.7886	847.1245	898.4486	906.6433	962.9634	980.7453	998.6884	1051.179	1056.9845	1073.2217	1088.72	1094.343	1103.9188	1135.8475	1175.2123	1187.2475	1231.2265	1289.0465	1297.3669	1336.7778	1338.202	1391.435	1400.3483	1403.8862	1424.3278	1437.9005	1440.0801	1486.2335	1490.8401	1492.5441	1494.79	1495.3837	3021.4456	3022.7642	3059.6764	3079.7879	3092.7368	3094.3224	3107.14	3118.1085	3118.4334	3129.732	3138.0606	3214.1956	3794.7043	3794.9959
CC(O)C1CC1C(C)O	C[C@@H](O)[C@H]1C[C@H]1[C@@H](C)O	
InChI=1S/C7H14O2/c1-4(8)6-3-7(6)5(2)9/h4-9H,3H2,1-2H3	InChI=1S/C7H14O2/c1-4(8)6-3-7(6)5(2)9/h4-9H,3H2,1-2H3/t4-,5-,6-,7+/m1/s1
