20
gdb 96515	2.19567	1.62534	1.16516	4.1397	75.5	-0.2308	0.0234	0.2543	1128.3845	0.172784	-440.318867	-440.310193	-440.309249	-440.352129	33.143	
C	-0.1945994514	 1.4905322872	-0.0135415639	-0.432498
C	 0.0213269828	-0.0299503233	-0.026206414	 0.038061
O	 0.5875657085	-0.5428067828	-1.2231041486	-0.258624
C	 1.7921563091	 0.0135168196	-1.7128483569	-0.076752
C	 3.0253321472	-0.4288784154	-0.9280588387	-0.188484
C	 3.0559061057	 0.0951327885	 0.5081505824	-0.17087
N	 2.0545679713	-0.496569055	 1.3862034986	-0.303424
C	 0.6901593245	-0.4866742843	 1.2865761971	 0.35966
O	-0.0097946312	-0.8213930429	 2.2268552622	-0.369201
H	 0.7372978795	 2.0585161503	 0.0589457916	 0.12083
H	-0.7190665256	 1.7994156784	-0.9223778607	 0.128246
H	-0.8099544038	 1.7495428703	 0.8519638458	 0.14442
H	-0.959937393	-0.5077438164	 0.0194204877	 0.119667
H	 1.8672577461	-0.3376842323	-2.7469518736	 0.111135
H	 1.7424203403	 1.1121404292	-1.746959694	 0.091176
H	 3.0753281878	-1.5231777512	-0.9176309066	 0.116429
H	 3.9173337183	-0.0583151456	-1.4488073343	 0.099338
H	 4.0265551475	-0.1394303596	 0.9535327884	 0.11656
H	 2.9774539976	 1.1935476413	 0.4988384702	 0.109133
H	 2.3580810788	-0.7609415761	 2.3125149174	 0.245198
69.8857	131.9687	218.136	228.6867	266.3758	305.4259	336.9659	390.9044	411.0633	502.4122	545.8198	566.5775	663.3167	734.4778	760.1905	820.8754	856.6269	908.4628	961.4991	998.5529	1009.0256	1087.4025	1099.5902	1134.454	1155.7407	1180.3741	1240.366	1282.8538	1323.0754	1327.9129	1360.4226	1382.6734	1393.7448	1395.9516	1416.9626	1418.8907	1460.6587	1477.7105	1486.3511	1494.015	1507.2115	1515.6935	1772.0646	2982.8317	2998.0078	3030.7069	3045.1413	3074.3489	3083.9073	3087.8792	3089.0833	3118.5539	3127.7721	3603.8087
CC1OCCCNC1=O	C[C@H]1OCCCNC1=O	
InChI=1S/C6H11NO2/c1-5-6(8)7-3-2-4-9-5/h5H,2-4H2,1H3,(H,7,8)	InChI=1S/C6H11NO2/c1-5-6(8)7-3-2-4-9-5/h5H,2-4H2,1H3,(H,7,8)/t5-/m1/s1
