19
gdb 91047	2.13653	1.93814	1.5631	2.8196	74.11	-0.2441	0.0557	0.2999	982.2478	0.157752	-422.958931	-422.9508	-422.949856	-422.991025	31.934	
C	-0.1515300919	 1.5773819645	-0.0408830221	-0.424398
C	 0.0763008888	 0.0817241662	 0.0312576385	 0.123601
O	 1.1304703505	-0.4081467453	-0.8548347832	-0.310294
C	 1.740343862	-1.1579644642	 0.201619293	 0.044854
C	 2.9068513771	-0.4503350756	 0.9543482644	-0.007548
O	 2.6158972544	 0.9444415573	 0.9925994575	-0.219562
C	 1.9486427387	 0.1079823986	 1.934577587	-0.039355
C	 0.7444542338	-0.612173635	 1.2544579496	 0.219612
C	-0.082075586	-1.4877855329	 2.1673732392	-0.498277
H	 0.7600026366	 2.1287617258	 0.1851367927	 0.151639
H	-0.4910298639	 1.8519119466	-1.0449946847	 0.123788
H	-0.9377424764	 1.8667206805	 0.6660999869	 0.108648
H	-0.8587367084	-0.4437213017	-0.2162172869	 0.06978
H	 1.8727990484	-2.2222606822	-0.0135195386	 0.076665
H	 3.9474834788	-0.7404317273	 1.0488031259	 0.106289
H	 2.0656361297	 0.3514078355	 2.9856963246	 0.103239
H	-0.7256110251	-0.8821800978	 2.8169988947	 0.124238
H	-0.7243810349	-2.1637062672	 1.5940510789	 0.12604
H	 0.5552145378	-2.0999487858	 2.8157063527	 0.121038
169.8577	191.5517	207.8796	224.0293	236.0875	281.1502	325.1468	427.016	519.1879	566.8757	687.2402	688.6205	795.4441	824.2546	841.3548	862.1913	880.7409	898.0606	924.4209	994.8045	1017.9627	1036.484	1051.4092	1094.0289	1130.8533	1151.6149	1168.1754	1200.3939	1239.9967	1244.9205	1261.0332	1287.7653	1346.9237	1364.3764	1397.6404	1411.2989	1415.7399	1480.7212	1492.368	1493.8813	1506.6153	2979.366	3022.5107	3039.1918	3069.5125	3083.5858	3097.6261	3099.5445	3165.155	3166.1626	3182.4543
CC1OC2C3OC3C12C	C[C@H]1O[C@H]2[C@H]3O[C@H]3[C@@]12C	
InChI=1S/C7H10O2/c1-3-7(2)5(8-3)4-6(7)9-4/h3-6H,1-2H3	InChI=1S/C7H10O2/c1-3-7(2)5(8-3)4-6(7)9-4/h3-6H,1-2H3/t3-,4-,5+,6-,7+/m1/s1
