17
gdb 35085	3.39268	1.46587	1.28197	4.7555	76.5	-0.2351	-0.013	0.2221	1005.7138	0.13888	-380.84651	-380.839542	-380.838598	-380.877831	27.924	
N	-0.0979138816	-1.1778920964	-0.1370553183	-0.324236
C	-0.0429269463	-0.0256731191	-0.0734685881	 0.293009
C	-0.0034836718	 1.4421465732	 0.0364406223	-0.173075
C	-0.7544132683	 1.91169616	 1.2839155027	-0.072839
C	-0.0900425839	 2.6758677627	 2.1487665579	-0.069688
C	 1.3548871043	 3.0065609621	 1.8326205683	-0.074591
C	 1.4140209593	 3.3824278851	 0.3282303493	-0.175075
N	 1.4038611717	 1.908120856	-0.0078275247	-0.122885
C	 2.0314629353	 1.6957169146	 1.353485808	-0.180726
H	-0.5005041237	 1.8369170919	-0.8607874955	 0.1374
H	-1.7892694922	 1.6127376058	 1.4107249029	 0.115897
H	-0.5547928198	 3.0631010103	 3.0493851391	 0.105585
H	 1.8407657936	 3.6377077773	 2.5782491789	 0.072232
H	 0.5902600326	 3.9676064877	-0.0880744746	 0.110928
H	 2.3717499483	 3.8068628052	 0.0149472496	 0.115076
H	 3.1171370951	 1.7716032137	 1.252249118	 0.115518
H	 1.7652451675	 0.7622390799	 1.853360194	 0.127467
111.9286	154.232	310.7967	370.5377	435.6736	443.5862	474.2893	556.5138	592.0293	710.174	732.6476	806.8911	840.9418	877.3288	915.4471	928.7638	936.2752	972.683	983.0917	1005.8052	1047.5201	1080.642	1115.8917	1124.3685	1177.292	1207.9588	1248.8176	1264.1305	1279.3444	1301.2347	1326.7713	1333.2254	1383.951	1491.6537	1518.3925	1696.4652	2360.7878	3013.6085	3053.4417	3062.5459	3096.8104	3115.2769	3125.9853	3176.4513	3199.2556
N#CC1C=CC2CN1C2	N#C[C@H]1C=C[C@@H]2CN1C2	
InChI=1S/C7H8N2/c8-3-7-2-1-6-4-9(7)5-6/h1-2,6-7H,4-5H2	InChI=1S/C7H8N2/c8-3-7-2-1-6-4-9(7)5-6/h1-2,6-7H,4-5H2/t7-/m1/s1
