17
gdb 86258	3.16526	1.15374	0.90139	4.2432	73.52	-0.2568	-0.0713	0.1855	1250.0212	0.135167	-458.979504	-458.970844	-458.9699	-459.012979	32.074	
O	-0.0797011803	 1.4621423609	-0.0268851507	-0.421973
C	 0.0259614704	 0.0462612243	-0.0323332591	 0.081105
C	-1.3832953717	-0.5795078126	-0.0843158872	-0.244678
C	-1.2585413513	-1.833495474	-0.9708651769	 0.030944
O	-2.4210235595	-2.0034150529	-1.7548967474	-0.440047
C	-0.0064390389	-1.5390934787	-1.7835018792	 0.215322
C	 0.347712448	-2.3187718289	-2.9686658921	 0.07813
O	-0.3421874321	-3.2209860911	-3.4038111047	-0.287967
C	 0.6919780371	-0.5197855499	-1.269177335	-0.201963
H	 0.766713578	 1.8334931994	 0.2407502388	 0.286377
H	 0.5724703147	-0.2942712397	 0.8630523193	 0.08514
H	-1.8003292093	-0.7802554866	 0.9036185566	 0.108341
H	-2.0394648676	 0.1265318491	-0.6015640941	 0.140129
H	-1.0818627531	-2.7307187517	-0.353148461	 0.077433
H	-2.2170870574	-2.7035628143	-2.3897535225	 0.295775
H	 1.2985634392	-2.0374632801	-3.46936764	 0.08631
H	 1.6301169539	-0.1348314232	-1.6596582346	 0.111621
88.1824	104.7298	186.7696	219.1394	235.4806	296.0324	325.2188	422.9773	452.7592	488.292	508.8176	591.8482	638.7698	739.9055	819.3278	868.9098	904.0447	987.0355	1005.6961	1036.5003	1043.7649	1071.284	1126.7513	1157.9165	1201.6149	1263.3408	1279.9777	1287.3483	1299.0955	1342.3489	1371.4684	1405.4024	1423.0053	1429.655	1485.6034	1686.4242	1762.7703	2905.7124	2949.2474	2957.0749	3074.5814	3132.1424	3174.7171	3757.5185	3822.3319
OC1CC(O)C(C=O)=C1	O[C@H]1C[C@@H](O)C(=C1)C=O	
InChI=1S/C6H8O3/c7-3-4-1-5(8)2-6(4)9/h1,3,5-6,8-9H,2H2	InChI=1S/C6H8O3/c7-3-4-1-5(8)2-6(4)9/h1,3,5-6,8-9H,2H2/t5-,6-/m1/s1
