18
gdb 14127	3.70171	1.68693	1.39677	0.9675	67.67	-0.2332	0.0731	0.3063	941.4753	0.15262	-384.894489	-384.886388	-384.885444	-384.926878	30.59	
C	-0.0411613255	 1.4770519873	-0.0295917383	-0.412184
C	-0.0100372005	-0.0507165259	-0.0735012345	 0.010023
O	 0.8009633113	-0.609349723	 0.9526215215	-0.423013
C	-1.4043111895	-0.6242008944	-0.0204469029	 0.48722
C	-2.1626378934	-1.0668020778	 1.1945222643	-0.345338
C	-1.9665691481	-2.0244231526	 0.0301018107	-0.189684
C	-2.8409151308	-1.5746149435	-1.1322398052	-0.089127
O	-2.316149668	-0.2186387284	-1.0535693759	-0.333199
H	 0.9721956409	 1.8785895722	-0.114201135	 0.120978
H	-0.6517037314	 1.8704603117	-0.8467659141	 0.144278
H	-0.4798070929	 1.8255401635	 0.9137005515	 0.108842
H	 0.4557643621	-0.3713696983	-1.0132190441	 0.096593
H	 0.5663305985	-0.1690821605	 1.7769227747	 0.281571
H	-1.5599650509	-1.31206407	 2.0626538794	 0.111974
H	-3.1406254026	-0.6418969795	 1.4056651112	 0.110605
H	-1.4664969448	-2.9776167937	 0.1304422834	 0.106987
H	-2.5733396131	-2.0328628061	-2.0910079052	 0.109708
H	-3.928983771	-1.6052262009	-0.9983591015	 0.103765
65.9938	163.3727	193.6671	249.0211	295.1815	306.9695	369.4	412.4373	481.6087	491.19	677.7646	754.2738	841.304	863.7727	910.1464	951.7578	973.3239	982.7348	992.6686	1022.341	1060.1081	1068.5998	1075.1978	1121.7431	1135.6659	1152.8039	1180.1131	1269.6615	1303.433	1337.4408	1358.8428	1396.6232	1400.0478	1412.8392	1479.534	1490.0027	1497.8456	1519.3395	3022.2491	3027.9062	3040.292	3071.1547	3103.4515	3113.806	3129.2637	3207.6097	3215.22	3802.9309
CC(O)C12CC1CO2	C[C@@H](O)[C@]12C[C@H]1CO2	
InChI=1S/C6H10O2/c1-4(7)6-2-5(6)3-8-6/h4-5,7H,2-3H2,1H3	InChI=1S/C6H10O2/c1-4(7)6-2-5(6)3-8-6/h4-5,7H,2-3H2,1H3/t4-,5+,6-/m1/s1
