17
gdb 37936	2.59591	2.36654	1.82241	1.6802	68.84	-0.2159	0.0693	0.2853	818.1825	0.139445	-421.785221	-421.779157	-421.778212	-421.81556	25.425	
C	 0.0786040649	 1.5237665566	 0.2042409083	-0.081994
O	 1.0688060911	 2.2502731398	-0.5186464627	-0.267227
C	 2.2586158565	 1.5977134513	-0.8158980967	 0.092859
C	 2.9379044009	 0.5228012757	 0.0072924912	 0.02076
O	 2.2623467153	-0.1356135162	 1.0509688086	-0.247393
C	 1.1483238302	-0.8240657798	 0.5395239155	 0.075213
C	 0.0546160626	 0.027280532	-0.0481238015	-0.129681
C	 1.0830500533	-0.6416749882	-0.95613759	-0.103261
C	 2.2907145026	 0.179148285	-1.3332445143	-0.165564
H	 0.2083374979	 1.712782627	 1.2797541862	 0.108463
H	-0.8762471532	 1.96158646	-0.1012400045	 0.11025
H	 2.9361889295	 2.3053538268	-1.2838550693	 0.10601
H	 4.0083667252	 0.5724787711	 0.1781168052	 0.102261
H	 0.9423285667	-1.7481441723	 1.0672237593	 0.099156
H	-0.9376888325	-0.4126872254	-0.0585712771	 0.094552
H	 0.7648084058	-1.432079072	-1.6234136701	 0.095138
H	 2.8439969929	-0.0947791012	-2.2231953481	 0.090457
121.2278	234.8229	425.3306	487.2065	554.5589	649.8152	694.1936	709.5337	717.9448	742.9395	780.9949	810.2551	835.4328	893.8125	932.4385	970.2109	986.9124	1023.0937	1035.2309	1059.6525	1084.7856	1088.5849	1092.6426	1099.9638	1124.0703	1143.3028	1194.0662	1242.3178	1287.6157	1288.1756	1320.16	1335.7441	1367.6176	1387.5537	1430.2252	1446.6408	1507.797	2996.8734	3074.7041	3155.1171	3156.0749	3163.7163	3177.9757	3179.9662	3197.957
C1OC2C3OC4C1C4C23	C1O[C@H]2[C@H]3O[C@H]4[C@@H]1[C@H]4[C@@H]23	
InChI=1S/C7H8O2/c1-2-3-4-6(8-1)7(4)9-5(2)3/h2-7H,1H2	InChI=1S/C7H8O2/c1-2-3-4-6(8-1)7(4)9-5(2)3/h2-7H,1H2/t2-,3-,4-,5-,6+,7-/m0/s1
