19
gdb 86733	3.80134	1.06057	0.86468	3.1794	81.13	-0.2025	0.0112	0.2137	1344.3532	0.160445	-419.262546	-419.253535	-419.252591	-419.296785	33.575	
C	-0.2165386259	 1.5329169765	-0.0755813931	-0.393664
C	 0.0847535961	 0.0325405306	 0.0215218025	-0.041562
C	 0.9374215931	-0.4962815106	-1.1694326867	-0.170432
N	 1.9666660377	-1.3409585189	-0.5398946063	-0.116817
C	 1.9455332701	-1.1291269941	 0.8441362313	-0.005453
C	 0.9235623901	-0.3607754704	 1.2229361049	-0.170479
C	 2.9012637554	-1.9991639303	-1.3036784546	 0.438394
N	 3.8216103905	-2.7637312054	-0.5878369652	-0.568765
O	 2.9349030093	-1.8912165902	-2.5167080105	-0.398577
H	 0.7104626587	 2.1151427409	-0.0998107619	 0.120725
H	-0.7859853633	 1.7617981024	-0.9828196482	 0.118016
H	-0.8061649014	 1.8713466681	 0.78258395	 0.114845
H	-0.8756843979	-0.5023849021	 0.0541562579	 0.085248
H	 0.3650076968	-1.0771690135	-1.8945787556	 0.128102
H	 1.4205230408	 0.3243613159	-1.7129506568	 0.122471
H	 2.7254750387	-1.5586445662	 1.4564266469	 0.127876
H	 0.7031767767	-0.0689008894	 2.2398302771	 0.099896
H	 3.4797311928	-3.2540827029	 0.2256401421	 0.250167
H	 4.3591494718	-3.3523462605	-1.2076320339	 0.260009
49.1005	92.2355	141.2282	188.4602	239.1734	317.7956	341.2744	401.8751	420.7441	544.3673	553.5994	590.6463	636.4217	721.015	735.2655	776.9834	848.9333	874.5349	913.7296	932.9006	942.2791	1048.3206	1076.0357	1114.3907	1138.8234	1152.485	1187.7722	1233.0943	1257.9987	1308.1586	1325.8776	1347.9543	1403.7746	1423.1488	1453.922	1496.2187	1498.3461	1517.4456	1624.1356	1680.4989	1784.8048	2986.647	3029.6476	3038.5991	3099.728	3104.23	3110.4981	3227.1008	3250.7952	3567.7289	3676.6629
CC1CN(C=C1)C(N)=O	C[C@H]1CN(C=C1)C(=O)N	
InChI=1S/C6H10N2O/c1-5-2-3-8(4-5)6(7)9/h2-3,5H,4H2,1H3,(H2,7,9)	InChI=1S/C6H10N2O/c1-5-2-3-8(4-5)6(7)9/h2-3,5H,4H2,1H3,(H2,7,9)/t5-/m1/s1
