16
gdb 54775	4.03091	1.11969	1.01235	3.5026	69.84	-0.2439	0.006	0.2499	1157.711	0.124334	-437.878852	-437.870659	-437.869715	-437.912399	30.253	
N	-0.0950144377	 1.3634815011	 0.0330404426	-0.524612
C	 0.1010333484	 0.0133550116	-0.0225862485	 0.378589
O	 1.2115201854	-0.4828930319	-0.029167682	-0.355676
C	-1.1979456558	-0.7839031239	-0.0420237321	-0.103051
C	-1.8397442051	-1.1519266547	-1.4433827438	-0.194058
C	-0.6954745504	-2.2114816892	-1.5945405779	-0.240375
C	-1.1160420822	-2.3464946455	-0.0841123121	-0.175079
C	-2.5479096255	-2.2557995853	-0.6374162545	 0.443775
O	-3.6171588944	-2.7679433831	-0.5255935647	-0.321655
H	 0.7139200499	 1.9626608421	 0.0122174078	 0.2649
H	-1.0075955229	 1.7799575408	-0.0242193811	 0.262187
H	-1.9039589546	-0.3649738512	 0.682153597	 0.098583
H	-2.2341020297	-0.4676724646	-2.1917089229	 0.095431
H	-0.9021779438	-3.0645187614	-2.2425954445	 0.114313
H	 0.3029514915	-1.8092404083	-1.7423558538	 0.151532
H	-0.6927229529	-2.9996338166	 0.6738450405	 0.105198
41.5204	133.5537	154.5939	165.5458	258.7538	399.8423	418.9563	466.6469	559.8879	629.562	691.5062	704.0027	733.8287	774.5302	814.3495	884.0681	927.5137	967.695	992.573	1023.0274	1036.6475	1070.8441	1087.9591	1125.5862	1141.3969	1184.7984	1188.4954	1219.5014	1233.414	1298.3146	1412.28	1520.2109	1617.3039	1787.6757	1921.263	3057.3676	3090.9842	3144.8231	3165.7407	3187.7521	3602.6242	3739.2146
NC(=O)C1C2CC1C2=O	NC(=O)[C@H]1[C@H]2C[C@@H]1C2=O	
InChI=1S/C6H7NO2/c7-6(9)4-2-1-3(4)5(2)8/h2-4H,1H2,(H2,7,9)	InChI=1S/C6H7NO2/c7-6(9)4-2-1-3(4)5(2)8/h2-4H,1H2,(H2,7,9)/t2-,3+,4+
