21
gdb 118299	6.05767	0.56232	0.53574	4.7216	78.09	-0.2654	0.0083	0.2737	2037.0028	0.179206	-461.375149	-461.364128	-461.363183	-461.413111	37.095	
C	-0.1723462882	 1.2832662719	 0.0418176917	-0.230558
O	-0.0165828078	-0.1155989698	 0.0126595013	-0.232268
C	 0.6661593879	-0.5701892506	-1.1325189403	-0.05714
C	 0.7554943919	-2.0966066837	-1.0738783913	-0.003555
C	-0.632084316	-2.7462164193	-1.084864522	-0.401728
C	 1.6364328571	-2.5950282026	-2.2200140586	-0.08974
O	 1.8761695414	-4.0011648037	-2.0850479018	-0.180281
C	 1.5526319716	-4.8121666485	-3.1089108678	 0.172376
O	 1.7342860786	-5.991658864	-3.0826931017	-0.274507
H	 0.7992501219	 1.8022444533	 0.0444135794	 0.105813
H	-0.7531312149	 1.6479858565	-0.8201734923	 0.105653
H	-0.7083540366	 1.5330172517	 0.9603778275	 0.131296
H	 0.1340491936	-0.2526556895	-2.0482365354	 0.083133
H	 1.6763745722	-0.1258908519	-1.1760528259	 0.084586
H	 1.260419941	-2.3545971299	-0.1347062489	 0.105133
H	-0.5605365619	-3.8308239298	-0.9717232017	 0.1326
H	-1.237317632	-2.3509794087	-0.2669525233	 0.140513
H	-1.1566386287	-2.5341243101	-2.0251996561	 0.105706
H	 1.1644598783	-2.3907120882	-3.1916823844	 0.106843
H	 2.6135816821	-2.0997279797	-2.2064942978	 0.119852
H	 1.1059481285	-4.2658929033	-3.9633703606	 0.076275
32.102	49.4452	88.8512	98.1546	130.4063	180.0185	225.6836	240.0518	260.9156	305.8179	352.3535	386.5315	434.8528	548.1767	678.9064	852.6041	922.9358	937.0164	960.508	993.4203	1044.9765	1048.2752	1130.5744	1140.6279	1164.4575	1170.3069	1189.3736	1211.8847	1232.123	1272.5074	1302.8	1312.8926	1387.3267	1394.5581	1410.6999	1428.5648	1437.2523	1481.5439	1485.7342	1497.5049	1499.9651	1503.0633	1509.0395	1528.0634	1867.1734	2932.3264	2940.1829	2960.4323	2971.8568	3006.0646	3015.5934	3028.7893	3043.1406	3069.6642	3107.4764	3117.8392	3139.1404
COCC(C)COC=O	COC[C@@H](C)COC=O	
InChI=1S/C6H12O3/c1-6(3-8-2)4-9-5-7/h5-6H,3-4H2,1-2H3	InChI=1S/C6H12O3/c1-6(3-8-2)4-9-5-7/h5-6H,3-4H2,1-2H3/t6-/m1/s1
