14
gdb 24175	4.05599	1.796	1.2448	5.0595	79.05	-0.2237	-0.0525	0.1711	918.4927	0.105838	-395.804017	-395.798236	-395.797292	-395.834017	23.562	
C	 0.0013957513	 1.3008512914	 0.0094541571	-0.072239
C	 1.2823990937	 1.8100968619	-0.0002368631	-0.14931
N	 2.1032719571	 0.7105430342	-0.0141410974	-0.056959
C	 3.4557004488	 0.5604178509	-0.0280703629	 0.014158
C	 3.9641622498	-0.7050407623	-0.0398558278	-0.161382
C	 3.060847871	-1.8010435068	-0.0370289962	-0.019546
N	 1.753115965	-1.6741566743	-0.0236582109	-0.311986
C	 1.2496350652	-0.431198935	-0.0120484884	 0.466877
N	-0.0201193759	-0.0599070561	 0.0022998445	-0.343689
H	-0.9158408827	 1.8719310309	 0.0214541112	 0.121187
H	 1.6705541519	 2.8150081404	 0.0014281871	 0.135016
H	 4.0535193465	 1.4639243711	-0.028979093	 0.140727
H	 5.0341376037	-0.8643043383	-0.0510996398	 0.117687
H	 3.4509260745	-2.8160050881	-0.0463086204	 0.11946
215.9881	244.6524	433.6083	458.2586	582.9652	591.2906	640.8109	644.1324	699.7267	774.0025	791.3763	805.2026	883.0981	900.023	930.9638	944.4627	964.0456	1047.066	1098.0671	1148.1926	1166.9368	1246.8422	1253.3563	1329.0638	1405.8404	1409.16	1473.5432	1496.1793	1535.6492	1569.3011	1664.7663	3158.2387	3205.4529	3229.0667	3240.3818	3275.7648
C1=CN2C=CC=NC2=N1	c1cn2cccnc2n1	
InChI=1S/C6H5N3/c1-2-7-6-8-3-5-9(6)4-1/h1-5H	InChI=1S/C6H5N3/c1-2-7-6-8-3-5-9(6)4-1/h1-5H
