18
gdb 122776	3.28003	0.93427	0.79788	7.947	77.62	-0.2609	-0.0312	0.2297	1431.6915	0.148233	-435.278235	-435.269057	-435.268113	-435.312786	33.193	
N	-0.7626978563	 0.2221331187	 1.993941162	-0.509749
H	-1.3441258176	 0.3400101698	 3.578406885	 0.332779
H	-0.0002649376	-0.4442238327	 2.0946350428	 0.255738
H	-1.4395140276	-0.209666526	 1.3714807287	 0.255435
C	-0.2581812271	 1.4846734785	 1.4165675379	-0.166363
C	 0.5773610339	 2.2779270776	 2.423554164	-0.183914
C	-0.1942521922	 2.6854757901	 3.7073204038	-0.174864
N	 0.181145693	 1.9218166835	 4.8895902595	-0.27567
C	-0.4768616981	 0.8817572134	 5.2092325401	 0.244861
O	-1.4782882129	 0.2610105575	 4.5765687265	-0.41707
C	-0.1282822615	 0.2296087365	 6.4637485199	 0.293886
N	 0.1395740651	-0.2950601825	 7.4580021513	-0.331498
H	 0.3312302499	 1.3091384754	 0.5057821507	 0.105943
H	-1.1324041992	 2.0765381176	 1.1237463259	 0.122932
H	 1.4710859463	 1.7113397009	 2.7096959667	 0.117845
H	 0.9361470133	 3.1770945216	 1.9118430253	 0.113096
H	 0.0404884671	 3.7287592979	 3.9366100409	 0.116891
H	-1.2762617485	 2.6325742421	 3.5130709088	 0.099721
53.153	95.6055	143.8987	186.2179	232.9565	267.383	310.3183	350.8774	377.5767	464.3636	516.2012	571.6454	602.127	738.1731	775.9327	846.3364	867.2143	932.3613	954.1128	992.4799	1037.8893	1049.2075	1095.7376	1111.4539	1168.351	1263.6934	1281.2336	1297.9458	1331.2317	1367.776	1380.3884	1424.4185	1481.3668	1501.4906	1508.9128	1533.3758	1648.911	1710.9887	2358.4023	2919.0603	2988.9205	3007.6726	3042.1567	3064.4427	3074.6277	3088.6742	3485.8223	3563.7572
[NH3+]CCC[N-]C(=O)C#N	NCCCN=C(O)C#N	
InChI=1S/C5H9N3O/c6-2-1-3-8-5(9)4-7/h1-3,6H2,(H,8,9)	InChI=1S/C5H9N3O/c6-2-1-3-8-5(9)4-7/h1-3,6H2,(H,8,9)
