14
gdb 131915	3.98259	1.28876	0.97368	4.3882	74.75	-0.2785	-0.0859	0.1926	1116.0039	0.103127	-436.678761	-436.671998	-436.671053	-436.710543	25.615	
O	-0.0563768034	-0.006003755	 0.0037426637	-0.360127
N	-0.0217095489	 1.2178419806	 0.0068277636	 0.38448
O	 1.0030120529	 1.887865011	 0.0018948968	-0.360127
C	-1.3083326965	 1.9375610043	 0.0172680413	 0.335157
C	-1.2989150217	 3.3278010821	 0.0208284689	-0.170788
C	-2.5163764615	 3.9995496598	 0.0306834914	-0.095384
C	-3.7121477838	 3.2822209787	 0.0367866012	-0.10188
C	-3.6976065135	 1.887860055	 0.0330617358	-0.095385
C	-2.4880545053	 1.2019723056	 0.0232100779	-0.170788
H	-0.3525171242	 3.8510323407	 0.0158928988	 0.144756
H	-2.5307001157	 5.0837152287	 0.0335952679	 0.115714
H	-4.6588571643	 3.8117970643	 0.0444740588	 0.113902
H	-4.628940292	 1.3326815785	 0.0378290324	 0.115714
H	-2.438624399	 0.1216893717	 0.0200602416	 0.144756
64.0843	172.542	259.515	398.2761	420.0664	454.2725	527.906	621.7004	694.1976	698.5209	729.3218	829.8136	866.5565	866.8365	970.3654	978.555	1010.1283	1016.967	1042.8022	1097.9612	1123.3747	1184.1625	1195.5859	1329.3556	1358.1588	1395.772	1487.2936	1508.6891	1615.599	1627.7275	1663.864	3182.2555	3195.4513	3204.7492	3237.4825	3237.6606
O=N(=O)C1=CC=CC=C1	O=N(=O)c1ccccc1	
InChI=1S/C6H5NO2/c8-7(9)6-4-2-1-3-5-6/h1-5H	InChI=1S/C6H5NO2/c8-7(9)6-4-2-1-3-5-6/h1-5H
