15
gdb 132864	3.03503	1.39957	0.96347	3.5336	75.23	-0.2032	-0.0536	0.1496	1133.0707	0.112843	-458.128254	-458.120483	-458.119538	-458.160529	29.684	
C	 0.1336842211	 1.4496626489	 0.0193882229	-0.454154
C	 0.0435744476	-0.0425726549	-0.0000303846	 0.305903
N	 0.0028786427	-0.6724876121	-1.1350222013	-0.341672
C	-0.0786269402	-2.0246797998	-1.1443645854	 0.274173
F	-0.1157328896	-2.5924928351	-2.3488895249	-0.076287
C	-0.1212481904	-2.775794211	-0.02551252	-0.160122
N	-0.0786561081	-2.1168458462	 1.1833674795	-0.361311
C	 0.0052060037	-0.7319966406	 1.3091394817	 0.329977
N	 0.0482858072	-0.0626067874	 2.4053066279	-0.54949
H	 1.029195668	 1.7679742956	 0.5634307482	 0.149629
H	 0.1531791436	 1.8337571032	-1.0004956618	 0.133016
H	-0.7128889445	 1.8731293621	 0.5699968257	 0.149673
H	-0.1862603525	-3.8543417912	-0.0158256859	 0.144903
H	-0.1093533577	-2.6600452559	 2.0324168015	 0.259069
H	 0.0137501989	-0.6687311458	 3.2267770664	 0.196693
100.1673	157.9426	220.7026	297.4087	339.9156	364.3539	426.0594	481.0572	524.078	544.678	578.9431	617.3743	694.0911	763.691	796.7232	803.9463	821.6546	970.0956	1021.4845	1050.3553	1071.4376	1193.0167	1221.9885	1310.0976	1355.8049	1392.843	1406.7961	1458.4743	1462.2243	1473.0072	1608.4523	1680.6121	1705.6706	3045.1043	3097.25	3157.8813	3235.9122	3452.9533	3628.1752
CC1=NC(F)=CNC1=N	CC1=C(NCC(=N1)F)[NH]	
InChI=1S/C5H6FN3/c1-3-5(7)8-2-4(6)9-3/h2H,1H3,(H2,7,8)	InChI=1S/C5H7FN3/c1-3-5(7)8-2-4(6)9-3/h7-8H,2H2,1H3
