20
gdb 85516	2.4805	1.58798	1.08318	3.2037	80.43	-0.2415	0.0285	0.27	1151.9133	0.172592	-403.158009	-403.149878	-403.148933	-403.190593	32.163	
C	-0.1571798369	 1.5513903851	 0.0041555386	-0.396092
C	 0.0403333842	 0.0318556831	 0.0362986786	 0.001304
C	 0.7114441165	-0.4750283728	-1.2519100347	-0.302886
C	 1.0762439629	-1.9376429101	-1.2111666262	 0.382172
N	 0.8959029814	-2.6905832086	-2.2136516379	-0.511712
O	 1.6577044773	-2.4161340324	-0.069581146	-0.252031
C	 1.6301149816	-1.680344581	 1.1358835618	 0.10787
C	 2.3457335449	-0.3648980133	 1.2745212714	-0.325775
C	 0.8253248956	-0.424102638	 1.2546269026	-0.057559
H	 0.8071410622	 2.0687169529	-0.0471416145	 0.117877
H	-0.749641099	 1.8527101746	-0.8659300331	 0.117622
H	-0.6766306832	 1.9002836382	 0.9024395847	 0.114491
H	-0.9496222311	-0.4410930805	 0.0995230133	 0.087942
H	 0.0659266456	-0.3256193376	-2.1186007973	 0.134718
H	 1.6261332687	 0.1033671876	-1.4381490315	 0.122279
H	 1.2233563234	-3.6360873937	-2.0025377918	 0.215874
H	 1.6635806735	-2.3791295444	 1.9636736793	 0.10915
H	 2.8436397655	-0.1528803371	 2.2141743029	 0.11803
H	 2.8602224009	 0.0210810244	 0.4019929813	 0.1242
H	 0.324130316	-0.2599391064	 2.2046478686	 0.092526
87.2301	139.4452	226.9338	255.6455	283.8589	361.4174	414.7427	461.1608	486.4317	542.821	599.5318	681.4678	739.0586	811.9796	827.6441	885.367	903.943	917.5953	939.8156	993.2478	1009.1087	1035.8323	1054.669	1067.3585	1111.9856	1113.9034	1131.8613	1175.084	1188.2294	1229.503	1254.3195	1301.6654	1322.9136	1357.8987	1370.0942	1391.6342	1411.2025	1422.5249	1474.6365	1492.1181	1498.8014	1500.1532	1746.7707	3004.9119	3029.7449	3033.3967	3101.1721	3103.0943	3123.6597	3139.1065	3141.9931	3176.653	3226.4347	3457.5029
CC1CC(=N)OC2CC12	C[C@H]1C[C]([NH])O[C@H]2C[C@@H]12	
InChI=1S/C7H11NO/c1-4-2-7(8)9-6-3-5(4)6/h4-6,8H,2-3H2,1H3	InChI=1S/C7H11NO/c1-4-2-7(8)9-6-3-5(4)6/h4-6,8H,2-3H2,1H3/t4-,5-,6-/m0/s1
