20
gdb 87568	2.72725	1.40837	1.1892	2.787	79.16	-0.2217	0.074	0.2958	1125.5758	0.170111	-403.079367	-403.070675	-403.069731	-403.112285	33.899	
C	-0.2231204975	 1.5410452104	-0.0365966167	-0.411705
C	 0.0612614338	 0.0510353256	-0.0133844726	-0.006168
N	 1.0220442519	-0.4905245618	-1.0577656772	-0.143045
C	 2.3698463838	 0.0146774343	-0.7316675489	-0.245155
C	 1.8382365899	-1.1049757622	 0.0692937281	-0.126276
C	 0.887118298	-0.5877202828	 1.1164202172	 0.346299
C	 1.168103388	-0.0857312159	 2.5129908159	-0.399983
C	 0.3156939192	-1.3143220939	 2.2819064289	 0.011633
O	-1.0729976278	-1.2311925022	 2.4264508125	-0.419537
H	 0.6720951971	 2.1459068897	 0.1344390583	 0.113914
H	-0.6510495808	 1.8269761551	-1.0029746839	 0.126767
H	-0.9501433265	 1.7926192749	 0.7426394867	 0.123627
H	-0.8760055296	-0.4976811187	-0.1386900212	 0.103908
H	 3.0934666907	-0.2154692496	-1.5080169777	 0.118291
H	 2.4940966518	 0.9923188439	-0.2735762795	 0.111352
H	 2.2220164307	-2.1190052741	 0.0079031571	 0.094578
H	 2.1633758253	-0.2130364733	 2.9279633508	 0.111281
H	 0.6522949609	 0.8182336896	 2.8224732931	 0.114514
H	 0.7489790827	-2.2824097576	 2.5385290608	 0.086183
H	-1.2747803016	-1.1959363014	 3.3673574083	 0.289524
112.1177	143.7139	180.8712	205.7315	261.7886	303.2252	315.3746	392.0942	446.4313	525.0616	558.4832	587.554	729.3011	768.8709	770.8475	838.7158	868.8774	899.1138	933.3084	989.0059	1016.6533	1029.3973	1048.8176	1083.8962	1094.8825	1106.7189	1113.8475	1115.5258	1157.1362	1171.1177	1215.0296	1234.7893	1274.2015	1289.4197	1309.85	1368.1514	1388.8176	1403.9874	1430.4175	1486.0242	1489.6397	1499.4923	1504.1351	3036.4752	3070.2114	3086.3091	3104.6809	3108.9427	3115.1744	3118.8466	3153.0063	3198.3979	3209.1656	3806.4893
CC1N2CC2C11CC1O	C[C@H]1N2C[C@H]2[C@]21C[C@H]2O	
InChI=1S/C7H11NO/c1-4-7(2-6(7)9)5-3-8(4)5/h4-6,9H,2-3H2,1H3	InChI=1S/C7H11NO/c1-4-7(2-6(7)9)5-3-8(4)5/h4-6,9H,2-3H2,1H3/t4-,5+,6-,7-,8?/m1/s1
