13
gdb 130005	5.55034	1.33236	1.07529	3.2761	66.92	-0.2037	0.0089	0.2126	1018.1882	0.093571	-448.947879	-448.941314	-448.94037	-448.978597	25.685	
N	 0.0355445961	 1.3194048244	 0.1511943041	-0.587783
C	-0.0550628236	-0.0368094776	 0.0546800336	 0.440357
N	-1.149498701	-0.7528145867	 0.0300418532	-0.434402
C	-0.6309451582	-2.0327357922	 0.0070534171	 0.38407
C	 0.7396804219	-2.0317446471	 0.0100089622	 0.218406
O	 1.1405749166	-0.707407746	 0.0423922358	-0.243132
C	 1.1568935608	-3.3663025551	-0.0270006516	-0.154379
N	 0.0738407627	-4.1557531158	-0.0485074784	-0.227928
N	-1.0119533122	-3.3264129239	-0.0287102347	-0.343641
H	 0.8853220452	 1.7276653245	-0.2066991592	 0.272518
H	-0.8104345066	 1.8085032938	-0.0968852103	 0.277788
H	 2.1408674656	-3.806736103	-0.0371329453	 0.121058
H	-1.9323342873	-3.7291969352	-0.0381916865	 0.277068
153.4991	298.2218	321.6452	346.5668	358.077	451.9395	528.8967	549.9293	598.9464	660.3268	734.9772	760.5147	784.2131	849.3945	854.524	945.6382	981.301	1063.0551	1108.837	1180.3388	1239.3161	1325.4823	1386.824	1399.9052	1504.3615	1572.9264	1585.9986	1600.0495	1681.351	3264.6314	3589.4919	3688.4985	3703.3704
NC1=NC2=C(O1)C=NN2	Nc1nc2c(o1)cn[nH]2	
InChI=1S/C4H4N4O/c5-4-7-3-2(9-4)1-6-8-3/h1H,(H3,5,6,7,8)	InChI=1S/C4H4N4O/c5-4-7-3-2(9-4)1-6-8-3/h1H,(H3,5,6,7,8)
