19
gdb 87878	3.33499	1.20349	1.18419	0.7551	75.14	-0.2489	0.0617	0.3106	1146.1709	0.15838	-422.972969	-422.964831	-422.963886	-423.005848	31.154	
C	 0.0707814673	 1.5157385592	-0.2999432577	-0.416153
C	 0.0976030423	 0.0230738033	-0.1011372601	-0.024036
O	 1.394339595	-0.5947447152	 0.006707046	-0.299042
C	 0.5481256798	-0.6072547128	 1.1439762926	 0.439759
C	 0.970690061	-0.0003170705	 2.4934775553	-0.335218
C	 0.4005228554	-1.2607901259	 3.1872147657	 0.115916
O	-1.0048668719	-1.1490996863	 3.4959631671	-0.293081
C	-1.3790565092	-1.8688414449	 2.297520102	-0.079823
C	 0.0779251156	-1.9108544313	 1.8067660934	-0.191591
H	 0.7675100338	 2.0126138889	 0.3798002601	 0.129174
H	 0.351334442	 1.7730530795	-1.3266166088	 0.130549
H	-0.93566298	 1.9080298344	-0.1178935464	 0.12405
H	-0.5986582458	-0.5430698774	-0.7239102685	 0.087113
H	 2.0595211004	 0.0762285634	 2.5735919905	 0.117416
H	 0.5118829224	 0.9445998841	 2.793990087	 0.11556
H	 0.9729171104	-1.7236295462	 3.9940591932	 0.081534
H	-1.8013785301	-2.8517646666	 2.5420337344	 0.102999
H	-2.0958740044	-1.3133686688	 1.68032122	 0.102296
H	 0.4942494361	-2.8424746568	 1.4270815542	 0.092576
72.1088	146.8757	184.8853	198.8273	262.4929	357.5795	417.3838	441.6635	483.7997	560.2716	720.0761	782.2526	809.2873	834.4863	880.8688	931.2321	946.1161	966.8272	981.3673	1008.0365	1033.0988	1052.62	1077.3481	1111.1365	1134.0966	1144.7387	1162.6781	1176.745	1196.9653	1226.1282	1259.2198	1278.427	1307.7755	1345.6629	1361.8855	1409.8132	1448.9774	1474.4468	1489.6108	1516.309	1524.0707	3010.2733	3037.1344	3055.0959	3055.7727	3082.3194	3085.5368	3100.9999	3118.2207	3126.4609	3130.8459
CC1OC11CC2OCC12	C[C@H]1O[C@]21C[C@H]1OC[C@@H]21	
InChI=1S/C7H10O2/c1-4-7(9-4)2-6-5(7)3-8-6/h4-6H,2-3H2,1H3	InChI=1S/C7H10O2/c1-4-7(9-4)2-6-5(7)3-8-6/h4-6H,2-3H2,1H3/t4-,5-,6-,7+/m1/s1
