15
gdb 24290	4.0662	1.5385	1.20882	1.7725	70.31	-0.2251	0.0112	0.2362	969.4605	0.115424	-420.632443	-420.626289	-420.625345	-420.662895	25.064	
C	-0.044215719	 1.5373638998	-0.0089095762	-0.397089
C	 1.4455775705	 1.9150634855	-0.0305198343	 0.061984
O	 2.1724322109	 1.5027428275	 1.1253154114	-0.249114
C	 2.2921732209	 0.6981366612	-0.0712412649	-0.16635
C	 1.3607577535	-0.4492757657	-0.0553801075	 0.280765
C	 1.299138866	-1.8016261609	-0.0589165521	-0.168698
O	-0.005420637	-2.1954588649	 0.019321207	-0.155726
C	-0.7802188875	-1.0669544628	 0.0794335063	-0.150988
C	 0.0090988129	 0.0306562178	 0.0285028843	 0.21211
H	-0.544591094	 1.9798095134	 0.858977038	 0.132575
H	-0.5466705732	 1.9174886094	-0.9061861878	 0.119232
H	 1.7567209267	 2.8638996989	-0.4611051741	 0.098371
H	 3.2818048639	 0.6664359041	-0.5148530804	 0.100421
H	 2.0229367481	-2.5976380701	-0.1096230455	 0.142826
H	-1.8413206927	-1.2417159431	 0.1419893858	 0.139681
160.1736	239.6034	360.2768	433.8004	450.7189	603.732	616.37	687.5561	724.4257	745.7198	772.5736	777.6132	847.2563	855.9696	906.4759	927.7067	984.886	1031.4862	1055.88	1089.3174	1142.4985	1144.8699	1193.6813	1241.5393	1245.3389	1284.4575	1293.7699	1313.6614	1377.7554	1414.421	1470.2126	1608.0627	1673.6372	3039.0441	3078.7015	3142.5819	3173.6043	3275.6398	3280.4305
C1C2OC2C2=COC=C12	C1[C@H]2O[C@H]2c2cocc12	
InChI=1S/C7H6O2/c1-4-2-8-3-5(4)7-6(1)9-7/h2-3,6-7H,1H2	InChI=1S/C7H6O2/c1-4-2-8-3-5(4)7-6(1)9-7/h2-3,6-7H,1H2/t6-,7+/m1/s1
