12
gdb 132125	3.129	1.45706	0.99657	5.6024	62.25	-0.2337	-0.0778	0.1559	1056.9812	0.076648	-513.950215	-513.942579	-513.941635	-513.982723	27.577	
N	 0.0386935296	 1.4772123591	-0.1293384584	-0.603895
C	 0.0050502572	 0.0685767624	-0.0405340633	-0.021648
C	-1.1129954917	-0.6937306903	-0.1863038988	 0.393793
F	-2.3041040394	-0.1674959909	-0.3782974434	-0.038471
O	-1.1235411008	-1.9975432639	-0.1892783821	-0.233483
C	 0.1248180614	-2.7591253288	 0.0409736795	 0.459053
O	-0.0085162698	-3.9390387842	 0.0716102623	-0.310919
N	 1.2549479428	-2.0088189202	 0.1765079118	-0.330659
C	 1.1854646034	-0.706505038	 0.121629101	 0.03238
H	-0.8786817319	 1.8629933571	-0.3149843681	 0.255394
H	 0.4063801643	 1.90975967	 0.7108290776	 0.256915
H	 2.1290446349	-0.1676934122	 0.2151770619	 0.14154
83.4804	143.0975	192.7136	272.5961	319.1166	348.3938	441.4296	482.748	488.9563	611.4332	676.1295	695.1122	769.52	779.9476	801.8614	827.6006	993.9028	1009.26	1128.9687	1270.3507	1335.8144	1413.3884	1443.6154	1547.1222	1656.1672	1732.5635	1910.4314	3132.3617	3522.3288	3614.3904
NC1=C(F)OC(=O)N=C1	Nc1c(F)oc(=O)nc1	
InChI=1S/C4H3FN2O2/c5-3-2(6)1-7-4(8)9-3/h1H,6H2	InChI=1S/C4H3FN2O2/c5-3-2(6)1-7-4(8)9-3/h1H,6H2
