15
gdb 48865	3.9081	1.49445	1.45315	2.9961	62.61	-0.2556	-0.0481	0.2075	911.8011	0.11294	-457.748489	-457.741818	-457.740874	-457.780249	25.969	
O	-0.5883338033	 0.7589205729	 0.5926038029	-0.232368
C	 0.2487487228	 0.9591799406	-0.2443180249	 0.092012
C	 1.4240492296	 1.8907964128	-0.0353574311	 0.367066
C	 1.634107162	 2.6587769679	 1.2818639965	-0.258101
C	 2.9088988252	 3.3360574156	 0.7997604601	-0.183965
C	 3.5200433656	 2.3260137858	-0.1666291998	 0.042143
O	 2.6593724812	 1.199890586	-0.2237525306	-0.290528
C	 2.7062292905	 3.4738227983	-0.7060726112	 0.04213
O	 1.443197362	 2.9151354106	-1.0298844691	-0.290511
H	 0.2312664779	 0.4775935948	-1.2426353681	 0.10977
H	 0.8152526178	 3.350125599	 1.4846216181	 0.126994
H	 1.7833148398	 1.984774264	 2.126288171	 0.126998
H	 3.4945574364	 4.0276898873	 1.3878460108	 0.106728
H	 4.5659827382	 2.1171153028	-0.3328464829	 0.120815
H	 3.0343840144	 4.2771958517	-1.3480702117	 0.120816
43.3618	181.7948	248.4586	439.639	446.7182	557.3688	597.8977	703.1463	717.4911	757.1229	795.5932	801.2867	832.8048	832.9994	960.9212	971.4928	1006.9412	1018.7375	1019.7915	1035.9241	1059.6997	1062.6443	1097.0882	1097.2927	1167.3307	1206.405	1267.9103	1281.9816	1344.5787	1387.0134	1414.5845	1477.7351	1850.423	2940.69	3092.3431	3152.0724	3224.4752	3235.8462	3245.4977
O=CC12CC3C(O1)C3O2	O=C[C@@]12C[C@H]3[C@@H](O1)[C@H]3O2	
InChI=1S/C6H6O3/c7-2-6-1-3-4(8-6)5(3)9-6/h2-5H,1H2	InChI=1S/C6H6O3/c7-2-6-1-3-4(8-6)5(3)9-6/h2-5H,1H2/t3-,4+,5-,6-
