19
gdb 41084	3.39876	1.83104	1.58303	1.7866	78.63	-0.2348	0.0861	0.3209	905.575	0.16232	-385.804997	-385.798852	-385.797908	-385.835045	27.103	
C	-0.0452157396	 1.4369377491	-0.3166753307	-0.263498
C	 1.4414846485	 1.6622318934	 0.1490283965	-0.352999
C	 1.2668126684	 0.3545527556	 0.9171088351	 0.353484
C	 1.8351981116	-0.9008366743	 1.6761485744	-0.042022
C	 1.435377154	-0.2775984625	 3.0248678738	-0.247923
C	 0.3050502586	 0.3446789068	 2.1885626105	-0.096499
C	-0.3537899987	-0.792732735	 1.3365865181	 0.044282
O	 0.712334572	-1.7871112073	 1.4283581572	-0.28321
C	 0.0812747574	-0.0918542874	 0.0381544253	-0.03293
H	-0.7702931903	 1.9868942489	 0.2855989608	 0.110389
H	-0.2469920388	 1.6346338593	-1.370434313	 0.104659
H	 2.1371775667	 1.5762335248	-0.6918065765	 0.107703
H	 1.6766150755	 2.5660671503	 0.7176858645	 0.100172
H	 2.7742677336	-1.4116774441	 1.4740134087	 0.077993
H	 1.1974549661	-0.9679177238	 3.8374170643	 0.099845
H	 2.1356211598	 0.4942599423	 3.3575760022	 0.098726
H	-0.2849168671	 1.2009141879	 2.5059871827	 0.075328
H	-1.3120096894	-1.272613744	 1.5382855237	 0.070263
H	 0.2338999516	-0.7371932902	-0.8293446076	 0.076238
246.4436	276.4249	334.5017	446.7129	519.0748	536.1825	636.3442	693.4081	727.2753	812.5745	827.4529	845.7919	849.763	878.6875	888.3525	905.6607	928.2025	943.9616	995.2256	1010.3781	1021.1491	1048.1545	1083.6537	1092.747	1113.8255	1148.5055	1165.6312	1181.5911	1204.5896	1217.8313	1232.0134	1243.4578	1247.0572	1257.4769	1272.4563	1303.7366	1305.5562	1335.9311	1476.3054	1479.9279	1490.5438	3046.2885	3056.8748	3078.5377	3088.6065	3098.5859	3108.7208	3119.5563	3134.6811	3144.7996	3148.9831
C1CC23C4CC2C(O4)C13	C1C[C@@]23[C@H]4C[C@@H]2[C@H](O4)[C@@H]13	
InChI=1S/C8H10O/c1-2-8-4(1)7-5(8)3-6(8)9-7/h4-7H,1-3H2	InChI=1S/C8H10O/c1-2-8-4(1)7-5(8)3-6(8)9-7/h4-7H,1-3H2/t4-,5-,6-,7-,8+/m1/s1
