23
gdb 83640	2.16331	1.63261	1.33812	1.6719	84.63	-0.2381	0.0761	0.3142	1126.3912	0.20507	-388.265549	-388.256277	-388.255333	-388.299018	36.256	
C	-1.2376686907	 0.9741659282	 0.3217991794	-0.412578
C	-0.3341679306	-0.2325511204	 0.1111198537	-0.035851
C	 0.6777935885	-0.169669672	-1.0538004982	 0.108828
O	 1.2396275807	 1.1475247984	-1.2634389241	-0.293673
C	 2.4455059948	 0.793508112	-0.5449822444	-0.095301
C	 1.8509285316	-0.550878695	-0.1097528068	-0.118462
C	 0.8606241187	-0.5370770924	 1.1098079746	 0.31489
C	 1.1289338509	 0.4987439445	 2.2000728654	-0.454276
C	 0.7364231617	-1.929171025	 1.7342967359	-0.441874
H	-0.6679358964	 1.9056433717	 0.2918848759	 0.131469
H	-1.9951893202	 1.0280467928	-0.467937419	 0.113003
H	-1.7636309895	 0.9160975958	 1.2804915991	 0.10903
H	-0.9489733391	-1.1349633889	 0.0102856787	 0.063876
H	 0.4301321577	-0.6617803822	-1.9992444818	 0.067211
H	 3.2976544063	 0.6951868318	-1.2311694568	 0.096222
H	 2.7012826295	 1.5230212305	 0.2313001239	 0.100651
H	 2.4720168988	-1.440100136	-0.2189455738	 0.068031
H	 1.1662903408	 1.5202300105	 1.8140701633	 0.12453
H	 0.3425137868	 0.4671968756	 2.9624503837	 0.112938
H	 2.0813981175	 0.2949026262	 2.7034759874	 0.109548
H	 1.6368335928	-2.1892373188	 2.3035290508	 0.109579
H	-0.1183473046	-1.975152127	 2.4191924461	 0.111796
H	 0.5915662239	-2.7004104101	 0.9697558168	 0.110414
64.5938	198.5336	214.8197	220.7923	251.0547	256.622	273.1866	323.9759	343.4806	431.3626	448.6192	535.8873	628.0102	693.3943	779.4964	833.9404	862.95	884.9886	949.6962	955.2278	966.7158	1001.2353	1006.5302	1013.9351	1033.3363	1069.1776	1102.0798	1129.8891	1154.3894	1178.9661	1194.2637	1210.6583	1239.8089	1255.263	1282.3398	1307.9911	1322.2721	1361.2277	1366.3542	1401.6981	1406.9836	1424.5351	1481.8451	1482.815	1490.7985	1499.6788	1504.545	1512.8724	1530.5913	3006.1213	3016.1519	3026.6963	3028.5025	3036.5486	3058.0862	3063.2541	3082.5187	3087.5375	3088.3494	3093.6227	3105.436	3112.1109	3126.9453
CC1C2OCC2C1(C)C	C[C@H]1[C@H]2OC[C@H]2C1(C)C	
InChI=1S/C8H14O/c1-5-7-6(4-9-7)8(5,2)3/h5-7H,4H2,1-3H3	InChI=1S/C8H14O/c1-5-7-6(4-9-7)8(5,2)3/h5-7H,4H2,1-3H3/t5-,6+,7+/m0/s1
