19
gdb 39043	2.44428	2.20465	1.74199	1.5843	78.21	-0.2281	0.0192	0.2474	886.0061	0.162755	-385.862248	-385.855796	-385.854852	-385.892622	27.634	
C	 0.0253950915	 1.6202491356	-0.0732317143	-0.245613
C	 1.589686447	 1.4975449247	-0.0371787405	-0.123746
C	 2.1591788159	 1.7677925554	 1.3253004899	-0.03839
C	 1.7086547919	 1.2082785487	 2.4495683421	-0.050879
C	 0.6275801786	 0.1554158835	 2.544369921	-0.279336
C	 0.4118098744	-0.6400509108	 1.2551120455	 0.091111
O	 1.6947318029	-0.9631144569	 0.6411998451	-0.287713
C	 1.4183545663	-0.0443551788	-0.4118394011	 0.130253
C	-0.0705399268	 0.0881625374	-0.0448462182	-0.083779
H	-0.4337830169	 2.1888294904	 0.7392615754	 0.101887
H	-0.3357084906	 2.0161842621	-1.0272346448	 0.100431
H	 2.1082663929	 2.0797297606	-0.8009680976	 0.068058
H	 2.9682221988	 2.4903949491	 1.3892061689	 0.083189
H	 2.1602800564	 1.4979876652	 3.3954001523	 0.085946
H	 0.9128487592	-0.5559389621	 3.3301326969	 0.113894
H	-0.3279005421	 0.5888233936	 2.8774631676	 0.109322
H	-0.150195099	-1.5552725956	 1.4695285881	 0.080106
H	 1.8204474193	-0.3571664727	-1.3778810448	 0.075431
H	-0.8773420497	-0.4196629193	-0.5741994715	 0.069828
183.1902	286.4829	313.3706	368.9481	430.6425	532.6704	579.1626	673.1422	703.7355	739.9511	788.3661	818.1964	837.7927	869.7689	879.8443	915.7757	949.1575	974.2938	986.6461	1019.6633	1034.7668	1045.9548	1062.0036	1098.4238	1132.7714	1147.0563	1197.9853	1215.3551	1221.2127	1245.3537	1265.591	1278.9117	1316.6829	1329.4617	1347.9888	1354.3982	1387.7542	1419.29	1461.8604	1488.1943	1715.8493	2996.831	3034.4355	3048.0747	3050.9148	3079.209	3090.0388	3102.8582	3108.1078	3144.3437	3168.7697
C1C2C=CCC3OC2C13	C1[C@H]2C=CC[C@@H]3O[C@H]2[C@H]13	
InChI=1S/C8H10O/c1-2-5-4-6-7(3-1)9-8(5)6/h1-2,5-8H,3-4H2	InChI=1S/C8H10O/c1-2-5-4-6-7(3-1)9-8(5)6/h1-2,5-8H,3-4H2/t5-,6-,7+,8-/m1/s1
