19
gdb 115924	3.74736	1.18098	0.98902	2.8282	71.77	-0.2601	0.0875	0.3475	1217.1506	0.159419	-460.140852	-460.132557	-460.131613	-460.173988	31.083	
C	-0.1271069319	 1.36241475	-0.0087323478	-0.242725
O	-0.0651131572	-0.0533712433	-0.0690067916	-0.238636
C	 0.6322954063	-0.546677303	-1.1565430228	 0.232089
C	 0.7639383995	-2.0602927202	-1.0005820338	-0.26169
C	 1.1869726738	-2.7130560681	-2.30526763	 0.032019
O	 0.1514399478	-2.929042338	-3.2728563365	-0.242124
C	 1.1358477193	-1.9417256377	-3.5585222321	 0.042826
C	 0.665209362	-0.5027117574	-3.5117905762	-0.11808
O	-0.0756691238	-0.2186202273	-2.3443195145	-0.256012
H	 0.8812332451	 1.8026713536	 0.0162342884	 0.103542
H	-0.6737148593	 1.7764517512	-0.8620961513	 0.132307
H	-0.6481008776	 1.6151256975	 0.9167862602	 0.129031
H	 1.637763074	-0.0781977239	-1.2199800017	 0.044773
H	 1.4908669021	-2.2808081477	-0.212953614	 0.106692
H	-0.2045743345	-2.4606190567	-0.6857413661	 0.136076
H	 1.8913972227	-3.5404550078	-2.2285649983	 0.094582
H	 1.8187506324	-2.1838364971	-4.37443376	 0.091123
H	 1.548372933	 0.1561300582	-3.593275684	 0.090623
H	 0.0043490464	-0.2873937222	-4.357430598	 0.123585
84.2343	116.7326	166.1663	201.1781	280.7077	343.1227	352.9808	412.3212	509.6541	531.8838	559.8912	743.5483	794.4485	815.7869	886.8637	922.512	970.904	1017.7227	1039.6734	1046.3372	1077.3013	1105.6162	1139.083	1161.2766	1179.7015	1181.3205	1216.7334	1254.4152	1279.1363	1297.0923	1325.3212	1365.2466	1387.4516	1407.0563	1419.638	1464.7599	1475.0644	1480.4798	1482.7188	1485.9574	1512.1561	2871.536	2952.1668	2993.1965	3056.6021	3077.6055	3078.1864	3098.388	3104.6612	3118.8918	3131.514
COC1CC2OC2CO1	CO[C@H]1C[C@H]2O[C@H]2CO1	
InChI=1S/C6H10O3/c1-7-6-2-4-5(9-4)3-8-6/h4-6H,2-3H2,1H3	InChI=1S/C6H10O3/c1-7-6-2-4-5(9-4)3-8-6/h4-6H,2-3H2,1H3/t4-,5+,6-/m1/s1
