15
gdb 126137	4.6002	1.08996	0.89075	1.3183	68.76	-0.2924	-0.0793	0.2131	1251.1376	0.112508	-450.134133	-450.125961	-450.125016	-450.16801	28.267	
C	-0.0587809453	 1.5033430129	 0.0906646709	-0.388339
C	 0.0348449625	-0.0136904928	-0.0604521548	-0.298967
C	 0.759265248	-0.4074357214	-1.3258063673	 0.464587
O	 1.2171743252	 0.3312174406	-2.1452796956	-0.26208
N	 0.8830322355	-1.8412714975	-1.5195516279	 0.026887
N	 1.4865053541	-2.3961706694	-2.573882478	-0.205827
C	 1.3468478368	-3.6783066237	-2.3067380232	 0.0923
N	 0.6845275689	-3.9097132653	-1.1354281061	-0.200305
N	 0.3972615833	-2.7427169777	-0.6488703366	-0.102371
H	 0.9342963184	 1.957503539	 0.1281163959	 0.139253
H	-0.594032895	 1.9506029569	-0.7503086327	 0.139485
H	-0.589495604	 1.7541157171	 1.0123992354	 0.123095
H	 0.5517556399	-0.4779939156	 0.7870089854	 0.155526
H	-0.9548639158	-0.484434721	-0.0749656406	 0.155467
H	 1.7174771677	-4.4624999722	-2.9467590747	 0.161288
60.2299	70.1396	159.369	168.9568	202.8402	290.6468	379.0607	499.724	550.9146	697.7008	721.0252	724.2783	806.4679	914.0741	953.7799	998.5856	1022.5125	1050.2046	1103.878	1112.6554	1133.7659	1186.3926	1278.4309	1278.6543	1315.5759	1343.7554	1386.6831	1418.2397	1444.6819	1492.5782	1498.8373	1507.7064	1866.4963	3053.496	3056.9119	3081.763	3131.1739	3133.2949	3289.7073
CCC(=O)N1N=CN=N1	CCC(=O)n1ncnn1	
InChI=1S/C4H6N4O/c1-2-4(9)8-6-3-5-7-8/h3H,2H2,1H3	InChI=1S/C4H6N4O/c1-2-4(9)8-6-3-5-7-8/h3H,2H2,1H3
