21
gdb 105381	3.206	0.97284	0.8814	1.8791	79.12	-0.2333	0.0676	0.3009	1402.3028	0.182258	-420.33706	-420.327478	-420.326534	-420.372046	35.234	
O	-0.1750214548	 1.5765639621	-0.1335446923	-0.427983
C	-0.1141463868	 0.2533414695	-0.6502655593	-0.152935
C	-1.3339967434	-0.5136589056	-0.1710195726	 0.32703
C	-1.4796031318	-1.8930915612	-0.7824756328	-0.224712
N	-0.3049842563	-2.7191042333	-0.5135587904	-0.066558
C	-0.3541867316	-3.5538132356	 0.6825653798	-0.215875
C	-0.4767701862	-4.1572748583	-0.6731963243	-0.219333
C	-1.8706046468	-0.2316296316	 1.1835845737	-0.268687
N	-2.6014109062	 0.2144715568	-0.0224462222	-0.365535
H	 0.6042232879	 2.0532409701	-0.4306272448	 0.29418
H	-0.1109652873	 0.2628909888	-1.7529225181	 0.08949
H	 0.7936328769	-0.2704826429	-0.3237518707	 0.114127
H	-2.4151137665	-2.3457494419	-0.4128596849	 0.092192
H	-1.5765414707	-1.7979461323	-1.8720596982	 0.102226
H	 0.5721829639	-3.6370526385	 1.2436117279	 0.114996
H	-1.2552015137	-3.5183139692	 1.292536657	 0.112
H	-1.4600702091	-4.5232516121	-0.9656209348	 0.110533
H	 0.3581957353	-4.6883879097	-1.1215346888	 0.115461
H	-2.360365255	-1.0196319495	 1.7496900161	 0.104443
H	-1.3648900104	 0.5226509722	 1.7773691129	 0.123881
H	-2.4108778775	 1.2059137622	-0.1550808333	 0.241059
63.9686	78.8917	110.3443	151.6107	207.2462	260.5855	311.2324	340.0643	357.7667	390.6912	454.402	584.8495	721.3452	772.1249	835.7429	861.6811	900.5943	921.3036	951.6553	979.4951	1010.6379	1023.7258	1038.0395	1069.2086	1083.4134	1113.6415	1116.8672	1122.8602	1147.765	1169.8266	1178.4627	1210.1644	1252.9952	1255.3506	1292.3404	1322.4688	1341.3377	1379.1569	1416.1944	1456.2337	1486.4693	1494.3643	1504.1564	1518.575	1522.6874	2961.1819	2966.3381	3034.7238	3037.1602	3093.6418	3099.1735	3111.9468	3175.9346	3190.7025	3205.507	3493.9831	3849.3347
OCC1(CN2CC2)CN1	OC[C@@]1(CN2CC2)CN1	
InChI=1S/C6H12N2O/c9-5-6(3-7-6)4-8-1-2-8/h7,9H,1-5H2	InChI=1S/C6H12N2O/c9-5-6(3-7-6)4-8-1-2-8/h7,9H,1-5H2/t6-/m0/s1
