14
gdb 24997	4.74036	1.31057	1.04641	5.4862	63.87	-0.2055	0.0259	0.2313	1063.4289	0.10359	-473.851583	-473.844866	-473.843921	-473.882905	25.501	
O	 0.0206864452	 0.0542406737	 0.0187267942	-0.352646
C	-0.0222321391	 1.2386146815	-0.0050869162	 0.465385
O	-1.1457065102	 2.0087813536	-0.1393727317	-0.246137
C	-0.7056932599	 3.329529143	-0.2121342977	 0.182085
C	 0.6079958717	 3.3373938284	-0.0419816717	 0.341287
N	 1.1751084759	 4.5563816655	 0.2936862994	-0.395203
C	 0.0421002925	 5.5071673902	 0.0046041692	-0.169421
C	-1.2883424669	 4.6707788109	 0.0806993307	-0.330216
O	 1.0993189291	 2.0713343711	 0.0749055427	-0.251662
H	 2.0256085322	 4.7992088412	-0.2036703671	 0.248743
H	 0.0598887708	 6.3306071449	 0.7197893467	 0.130267
H	 0.1467907233	 5.9160219604	-1.0065567984	 0.123144
H	-2.0317288752	 5.0453932164	-0.6286110933	 0.126363
H	-1.7320737295	 4.7149318994	 1.0847751432	 0.12801
118.7959	177.8561	266.4081	300.6293	332.5706	532.2262	602.4063	636.1195	695.5758	727.2883	765.6668	804.7573	824.6473	872.1134	899.3874	944.5472	978.9294	1010.5803	1083.1561	1162.8503	1185.092	1257.1794	1268.5626	1323.1157	1350.0353	1356.9106	1466.8881	1503.0482	1518.389	1783.6258	1947.9992	3012.2352	3041.0631	3077.3073	3120.4326	3522.2984
O=C1OC2=C(NCC2)O1	O=c1oc2c(NCC2)o1	
InChI=1S/C5H5NO3/c7-5-8-3-1-2-6-4(3)9-5/h6H,1-2H2	InChI=1S/C5H5NO3/c7-5-8-3-1-2-6-4(3)9-5/h6H,1-2H2
