13
gdb 29063	2.73082	1.82753	1.22163	3.7285	70.5	-0.2474	-0.0752	0.1722	953.0958	0.091659	-448.972331	-448.965064	-448.96412	-449.004303	26.781	
N	 0.0740889923	 1.2271290876	 0.4557081995	-0.508974
C	-0.0326257601	-0.0301799285	 0.0211460068	 0.337533
N	-1.1961021984	-0.62042308	-0.0463925173	-0.308551
C	-1.3583609301	-1.9342243907	-0.3087163444	 0.093533
N	-0.5842540516	-2.9628359217	-0.086336806	-0.257175
C	 0.7066907457	-2.8128703226	 0.3073795011	 0.093875
N	 1.5683906884	-1.8732129662	 0.0712979833	-0.268071
C	 1.2787258268	-0.6453586019	-0.460073877	 0.321982
O	 2.0234890137	 0.0189744555	-1.1497420579	-0.34287
H	 0.9264916593	 1.7271008388	 0.2560201614	 0.293401
H	-0.7558679444	 1.735705183	 0.7171836495	 0.280317
H	-2.3520862501	-2.1737701297	-0.6885127853	 0.131602
H	 1.0960714785	-3.6747327636	 0.8515427866	 0.133397
74.6525	154.4115	291.6626	305.3598	328.019	382.1891	455.9907	492.975	592.118	600.9354	656.879	714.0765	766.2311	835.9794	900.5218	990.5263	1004.8183	1043.0442	1082.935	1170.2937	1320.5442	1424.5321	1444.4402	1460.8854	1496.3331	1596.9316	1639.2633	1676.6484	1775.2226	3125.394	3133.0014	3582.4985	3714.4492
NC1=NC=NC=NC1=O	Nc1ncncnc1=O	
InChI=1S/C4H4N4O/c5-3-4(9)8-2-6-1-7-3/h1-2H,(H2,5,6,7,8,9)	InChI=1S/C4H4N4O/c5-3-4(9)8-2-6-1-7-3/h1-2H,(H2,5,6,7,8,9)
