15
gdb 12954	2.72693	2.20641	1.70311	1.7762	62.83	-0.2282	0.016	0.2442	820.6823	0.119726	-395.930172	-395.922584	-395.92164	-395.961701	28.736	
N	-0.0414107541	 1.4599774758	-0.1816353634	-0.523385
C	-0.0693376406	 0.0323440369	-0.0226180413	-0.03688
C	-0.4812267434	-0.7274099014	 1.1980596935	 0.014486
O	-1.5207269225	 0.0195527083	 1.8888348533	-0.283687
C	-2.3795183068	-0.1389921178	 0.7971786319	 0.372454
N	-3.6034603672	 0.1045293448	 0.6847598994	-0.557906
C	-1.3494810967	-0.7969684365	-0.073695002	 0.166806
N	-1.5358118448	-1.8107446781	-1.0421655549	-0.598
H	-0.7294170914	 1.8875757972	 0.4320571653	 0.246575
H	 0.8638421443	 1.8150973242	 0.1143819047	 0.234452
H	 0.7127983924	-0.4719828772	-0.5860288377	 0.118598
H	 0.0415157166	-1.4875748404	 1.7629437584	 0.122123
H	-3.9873594488	 0.5035988116	 1.5429772445	 0.23125
H	-2.3384675839	-2.3880620586	-0.8114657063	 0.244618
H	-1.7049627431	-1.4069193888	-1.9580448053	 0.248495
123.6569	175.5207	229.5514	249.3266	272.0196	318.3502	422.6453	475.7174	636.0205	649.5361	709.7546	733.864	784.469	845.3389	866.903	891.4847	911.1152	919.2802	978.7807	995.6156	1019.7837	1131.6453	1166.6101	1226.7574	1247.5538	1274.596	1299.9636	1385.2095	1491.2326	1663.1532	1666.2732	1822.7393	3149.7533	3211.3069	3478.563	3488.2331	3500.323	3565.6479	3575.3749
NC1C2OC(=N)C12N	N[C@H]1[C@H]2O[C]([NH])[C@@]12N	
InChI=1S/C4H7N3O/c5-1-2-4(1,7)3(6)8-2/h1-2,6H,5,7H2	InChI=1S/C4H7N3O/c5-1-2-4(1,7)3(6)8-2/h1-2,6H,5,7H2/t1-,2+,4+/m0/s1
