21
gdb 93842	2.38133	1.48467	1.1088	1.8157	74.9	-0.2466	0.0832	0.3298	1185.6692	0.182053	-461.379718	-461.370525	-461.369581	-461.413066	35.337	
C	 0.0637763275	 1.4795934678	 0.0021381771	-0.407326
C	 0.0823177259	-0.0328429531	-0.0024961623	 0.218824
O	 0.7010194834	-0.4694905989	-1.1952663754	-0.261996
C	 0.7488982246	-1.891303606	-1.267697326	-0.119524
C	 1.5203822706	-2.4362642804	-0.0617957675	 0.124705
O	 2.8818463937	-2.0495301487	-0.1275391097	-0.436986
C	 0.8465018604	-1.9063685149	 1.219387273	 0.103871
C	 1.5879172042	-2.2644263308	 2.4946239466	-0.403303
O	 0.7890553043	-0.4764345734	 1.1337477297	-0.276566
H	 1.0879635747	 1.8593335236	-0.0328444583	 0.131654
H	-0.4822658871	 1.848885728	-0.868632643	 0.128257
H	-0.4184251442	 1.8428898504	 0.9122327495	 0.128279
H	-0.9431703626	-0.4508125754	 0.0326555409	 0.057146
H	-0.2705060353	-2.3097203758	-1.299269321	 0.088023
H	 1.2638944416	-2.1405594288	-2.1982656648	 0.118402
H	 1.5042893632	-3.5319085306	-0.0677629521	 0.08439
H	 2.8792566402	-1.0853028034	-0.176573879	 0.288073
H	-0.1838226913	-2.3014550027	 1.2589219836	 0.06229
H	 2.6270288731	-1.9359553431	 2.4286917008	 0.13691
H	 1.1130905085	-1.7857173087	 3.3548283795	 0.120662
H	 1.5774940844	-3.3481856053	 2.6462772287	 0.114218
122.0306	154.7034	199.5483	214.2869	229.631	249.1249	273.2689	358.3051	383.7439	421.5057	451.1367	516.7215	593.299	629.103	762.6029	826.4456	862.339	863.6061	915.6081	964.9444	995.0469	1032.1768	1074.6378	1086.1627	1110.7734	1125.2678	1161.3556	1184.6391	1201.8314	1257.6409	1281.2405	1322.5405	1354.2193	1374.3949	1388.3618	1397.8709	1405.2237	1414.5332	1428.2858	1440.5427	1481.517	1483.3094	1486.4489	1492.3198	1498.5131	2909.0751	2951.4558	2978.1867	3049.7977	3058.3642	3059.0244	3105.4409	3120.8546	3138.4993	3142.0288	3143.0376	3785.5186
CC1OCC(O)C(C)O1	C[C@H]1OC[C@@H](O)[C@@H](C)O1	
InChI=1S/C6H12O3/c1-4-6(7)3-8-5(2)9-4/h4-7H,3H2,1-2H3	InChI=1S/C6H12O3/c1-4-6(7)3-8-5(2)9-4/h4-7H,3H2,1-2H3/t4-,5+,6-/m1/s1
