20
gdb 77943	3.08837	1.35837	1.08442	0.206	80.44	-0.2373	0.0766	0.3139	1163.5491	0.171033	-403.055571	-403.047158	-403.046214	-403.087938	33.448	
C	-0.1493901688	 1.6082436172	-0.0012628825	-0.45121
C	-0.0316477871	 0.0904070488	 0.0147633441	 0.073205
C	 1.1112394164	-0.69822925	-0.7264828219	-0.207627
C	 2.086947663	-0.3712480738	 0.44069377	 0.156222
O	 2.6478633604	 0.9171552862	 0.4693847225	-0.440237
C	 0.7199582146	-0.7049068471	 1.1424758296	-0.210593
C	 0.6864228784	-1.8854417611	 0.1574879446	 0.456963
C	-0.1952069783	-3.0364256316	-0.0518475027	-0.356093
N	 1.2439309129	-3.2112438561	 0.3239220691	-0.414353
H	 0.794576001	 2.1091782941	 0.1984965157	 0.144337
H	-0.5212220765	 1.9419713761	-0.9771409639	 0.108414
H	-0.8838331516	 1.9288098974	 0.7472301146	 0.106592
H	-1.0161275679	-0.3442324848	-0.1954193154	 0.067045
H	 1.3365798026	-0.7098946025	-1.7945817636	 0.069658
H	 2.8619618717	-1.1297183199	 0.6082888997	 0.07822
H	 3.1561938668	 0.9988062799	 1.2822275609	 0.284833
H	 0.5004985668	-0.72957456	 2.2106658633	 0.070515
H	-0.8997739213	-3.3475561414	 0.7147617307	 0.121248
H	-0.4936584643	-3.2874532302	-1.0669474491	 0.113407
H	 1.7789310811	-3.4837485112	-0.4982126057	 0.229453
170.8806	178.4278	214.1446	234.4904	255.3306	277.7451	320.282	396.1339	440.7542	477.0263	572.403	706.3189	721.7123	785.8511	819.9646	874.5525	887.2971	906.3036	939.4651	971.4833	1016.0177	1038.3645	1062.8152	1069.7743	1094.7639	1113.2763	1118.5448	1135.248	1142.4904	1185.7503	1210.5394	1217.0435	1249.2065	1259.3137	1271.5948	1321.4	1401.1076	1421.0077	1443.6668	1472.8284	1495.4739	1513.2365	1533.4096	3021.4909	3023.778	3034.2351	3078.284	3096.6866	3102.6606	3108.1898	3180.332	3185.6742	3484.5042	3821.3659
CC1C2C(O)C1C21CN1	C[C@H]1[C@H]2[C@@H](O)[C@@H]1[C@]12CN1	
InChI=1S/C7H11NO/c1-3-4-6(9)5(3)7(4)2-8-7/h3-6,8-9H,2H2,1H3	InChI=1S/C7H11NO/c1-3-4-6(9)5(3)7(4)2-8-7/h3-6,8-9H,2H2,1H3/t3-,4-,5+,6+,7+
