19
gdb 115540	2.64328	1.09289	1.02865	3.3004	76.51	-0.263	0.0181	0.2812	1286.1631	0.158446	-419.195045	-419.185343	-419.184399	-419.230088	34.928	
C	 0.1677858151	 1.5611980494	 0.1101728414	-0.388817
C	-0.0384542542	 0.0431114846	 0.0496055622	-0.191729
C	 0.5529122656	-0.5458677762	-1.2138591124	 0.13417
O	 1.9924423987	-0.4201258397	-1.294816957	-0.289011
C	 2.1417675951	-1.7717351793	-1.7532490437	-0.107542
C	 0.6584085972	-2.1037002252	-1.3832378906	 0.05294
N	 0.4010594009	-2.8559154204	-0.1652598781	-0.550839
C	-0.1385010308	-2.665517569	-2.4720302994	 0.272975
N	-0.7458179353	-3.1044897403	-3.3517341697	-0.333363
H	 1.2321793449	 1.8085613081	 0.0672472275	 0.139192
H	-0.3283160891	 2.0623390097	-0.7278609461	 0.120563
H	-0.2416982432	 1.9724407827	 1.0370080333	 0.118129
H	 0.4153471803	-0.4278889306	 0.9276007884	 0.095742
H	-1.1059638605	-0.2046925027	 0.0748536551	 0.119555
H	 0.0827439815	-0.08994765	-2.0967762441	 0.090858
H	 2.3700945731	-1.8286422442	-2.824809012	 0.118301
H	 2.8939829566	-2.329455394	-1.1835683915	 0.108256
H	 0.5548286137	-3.8470693015	-0.324460858	 0.246168
H	 1.0469889705	-2.5633291513	 0.5613275847	 0.244451
54.4022	77.5009	146.3115	164.2593	202.0899	228.2207	264.2021	303.2983	369.723	405.0393	482.2735	552.5485	596.35	623.5231	761.6065	834.0719	865.8019	911.9494	932.1479	952.5323	990.6806	1027.3858	1052.5368	1086.048	1117.2709	1149.0682	1169.1863	1235.9579	1274.3985	1288.4296	1310.6796	1349.0858	1368.3523	1409.2272	1420.2285	1469.1942	1498.4612	1508.3872	1515.0551	1652.1695	2359.5678	3002.7578	3017.282	3040.074	3044.2356	3071.7746	3081.8174	3110.2773	3121.5944	3498.2045	3582.3957
CCC1OCC1(N)C#N	CC[C@H]1OC[C@]1(N)C#N	
InChI=1S/C6H10N2O/c1-2-5-6(8,3-7)4-9-5/h5H,2,4,8H2,1H3	InChI=1S/C6H10N2O/c1-2-5-6(8,3-7)4-9-5/h5H,2,4,8H2,1H3/t5-,6-/m1/s1
