19
gdb 91220	2.48521	1.57919	1.30861	3.0369	77.36	-0.2161	0.0271	0.2432	1069.9353	0.158479	-419.174137	-419.165419	-419.164475	-419.207173	32.876	
C	-0.0532148274	 1.5277891988	-0.0379116084	-0.33309
N	 0.0779202349	 0.1005156604	 0.1338208904	-0.097832
C	-1.1385310967	-0.7153299539	 0.3050304329	-0.203229
C	-0.4338422311	-1.5328840014	 1.3956213586	 0.053465
O	 0.4761958005	-2.5507415256	 0.8821106802	-0.283896
C	 1.5578713051	-1.6801771775	 0.9206849971	 0.449542
N	 2.7716592811	-1.8725728273	 0.6846142186	-0.56179
C	 0.7157226739	-0.4863563824	 1.354953202	 0.187957
C	 1.2019396085	 0.4086972408	 2.4646979234	-0.505817
H	 0.9346708547	 1.9975783423	-0.0488551159	 0.13197
H	-0.5214226302	 1.7272508574	-1.0079294368	 0.128181
H	-0.6663161992	 2.026428774	 0.7363454456	 0.090271
H	-1.9874348747	-0.1507909148	 0.7248784186	 0.093988
H	-1.4708478082	-1.2558749195	-0.5874870918	 0.115809
H	-0.9745893086	-1.8822708871	 2.2732475422	 0.099407
H	 2.9527557219	-2.8347872039	 0.3929160329	 0.227886
H	 2.0733828956	 0.9824834457	 2.1341872024	 0.148381
H	 0.4282619954	 1.1091765725	 2.7913939153	 0.123821
H	 1.5122304144	-0.1915956985	 3.3246931827	 0.134975
108.0521	139.086	189.0576	218.3358	238.9765	255.5355	302.4644	336.5991	405.06	501.0557	628.3731	657.6901	677.1006	780.8989	836.2386	863.588	872.0149	884.2016	965.2479	984.8578	1011.2243	1051.6003	1126.0373	1136.7009	1156.5143	1163.5963	1173.3115	1213.0504	1234.182	1269.8405	1321.9007	1328.8171	1364.0886	1410.8246	1452.8429	1480.551	1483.9687	1491.8939	1502.3976	1509.8482	1828.5066	2925.7433	2969.6936	3043.1713	3058.8708	3067.1093	3104.9107	3114.146	3118.7963	3133.3569	3472.0914
CN1CC2OC(=N)C12C	CN1C[C@H]2O[C]([NH])[C@@]12C	
InChI=1S/C6H10N2O/c1-6-4(3-8(6)2)9-5(6)7/h4,7H,3H2,1-2H3	InChI=1S/C6H10N2O/c1-6-4(3-8(6)2)9-5(6)7/h4,7H,3H2,1-2H3/t4-,6+/m1/s1
