22
gdb 101641	3.02788	0.78413	0.75964	4.8807	84.44	-0.2339	0.0261	0.26	1633.4577	0.193376	-400.520687	-400.509783	-400.508839	-400.557191	38.926	
C	-0.223728237	 1.6726286934	 0.0450716591	-0.392675
C	-0.1514719974	 0.153938079	-0.1092246849	-0.121198
N	-1.4510049988	-0.5125061175	 0.0292513869	-0.063449
C	-2.3311947606	-0.2558364447	-1.1052889695	-0.332249
C	-1.3136350155	-1.9371749263	 0.3129603245	-0.157301
C	-1.1109470049	-2.1678263919	 1.8368712571	-0.123787
N	-2.1716298156	-1.6077328027	 2.6780023784	-0.505154
C	-0.9583136343	-3.6038396294	 2.0990768365	 0.287931
N	-0.8499314006	-4.7422661189	 2.2636149626	-0.318882
H	 0.7847038779	 2.0967788797	 0.0267506784	 0.121101
H	-0.7903907678	 2.1455339855	-0.7617397568	 0.123432
H	-0.6946153697	 1.9409207394	 0.9953780048	 0.125014
H	 0.3186747692	-0.1043251399	-1.0774891394	 0.085968
H	 0.511605333	-0.2412263622	 0.6670198951	 0.105126
H	-1.9266136548	-0.6361528215	-2.0612570878	 0.100788
H	-3.3023982124	-0.7281691116	-0.9340466288	 0.122561
H	-2.501593361	 0.8175938343	-1.2159400256	 0.127313
H	-2.2366123386	-2.4474294063	 0.020174214	 0.109341
H	-0.4917665395	-2.4089237242	-0.2534592963	 0.10201
H	-0.1693708867	-1.6897249085	 2.13742987	 0.132966
H	-2.3593161685	-0.6778126408	 2.3065845692	 0.237045
H	-3.0247886767	-2.1460404749	 2.5473688725	 0.2341
57.6438	68.035	90.9635	134.3907	193.1702	220.1916	245.2244	260.3751	299.1462	313.6459	376.3247	410.0325	427.7469	498.8223	569.4155	578.1233	796.518	809.9508	857.4319	914.909	937.9372	983.6891	1039.8965	1073.6673	1082.2438	1116.7756	1128.8489	1172.2297	1188.0364	1222.6855	1261.6781	1311.7605	1318.7068	1340.8009	1384.7913	1401.7755	1418.0466	1420.2278	1458.9687	1485.1338	1489.44	1491.0565	1503.5598	1509.5568	1515.1248	1659.6467	2362.6674	2923.2332	2941.2859	2956.0855	3025.6918	3044.9391	3062.8597	3075.6076	3080.2439	3114.1922	3118.0811	3124.4231	3465.6269	3548.8306
CCN(C)CC(N)C#N	CCN(C)C[C@@H](N)C#N	
InChI=1S/C6H13N3/c1-3-9(2)5-6(8)4-7/h6H,3,5,8H2,1-2H3	InChI=1S/C6H13N3/c1-3-9(2)5-6(8)4-7/h6H,3,5,8H2,1-2H3/t6-/m0/s1
