17
gdb 41624	3.47259	1.62397	1.36995	2.8319	73.96	-0.2391	-0.0027	0.2364	956.0923	0.137907	-421.75789	-421.751206	-421.750262	-421.789015	26.469	
C	 0.0978633132	 1.5316423285	-0.1909908313	-0.067318
O	 1.4984968027	 1.4731821993	 0.150717122	-0.274532
C	 1.3807764885	 0.1254524284	 0.6328779431	 0.060687
C	-0.0508271558	 0.0015301361	-0.011003098	-0.121255
C	 0.2048073386	-0.7297135249	-1.319082974	-0.212074
C	 1.4343202882	-1.2327341889	-1.3182071236	 0.1762
C	 2.7305928403	-1.2936994341	-2.088030211	-0.148417
O	 3.3729688629	-0.6270458478	-0.9551262391	-0.298987
C	 2.2306547664	-0.9317367001	-0.0917470306	 0.111506
H	-0.4725558728	 2.1258064572	 0.5364359322	 0.098116
H	-0.0638628226	 1.9337689057	-1.1974037946	 0.106182
H	 1.4461210207	 0.0818931982	 1.7264061701	 0.069845
H	-0.8914730695	-0.3448313712	 0.5943532111	 0.085345
H	-0.4673561954	-0.6425937952	-2.1656865229	 0.104263
H	 3.1570835462	-2.2925016358	-2.2483960336	 0.109328
H	 2.7923057333	-0.7095925935	-3.0116579357	 0.125289
H	 2.4834632451	-1.7666108119	 0.5773008858	 0.075822
130.7919	165.3949	235.5474	335.4965	412.425	477.214	612.7949	733.6851	757.4135	821.2512	831.7242	856.5703	884.7928	897.221	900.3471	962.0199	976.6358	1005.654	1030.1137	1036.1007	1076.8975	1093.6869	1119.5257	1138.3596	1164.7157	1207.1836	1217.9863	1243.8154	1280.9537	1299.5958	1320.397	1336.4931	1354.698	1378.11	1508.1665	1517.8299	1738.0203	2996.1789	3002.5483	3015.3871	3038.2716	3063.2143	3080.8157	3085.3472	3192.7885
C1OC2C1C=C1COC21	C1O[C@H]2[C@@H]1[CH][C]1CO[C@@H]21	
InChI=1S/C7H8O2/c1-4-2-8-6(4)7-5(1)3-9-7/h1,4,6-7H,2-3H2	InChI=1S/C7H8O2/c1-4-2-8-6(4)7-5(1)3-9-7/h1,4,6-7H,2-3H2/t4-,6+,7-/m1/s1
