19
gdb 126576	3.05816	1.0107	0.81157	4.156	77.49	-0.2871	-0.0323	0.2548	1444.8937	0.158223	-419.19122	-419.181863	-419.180918	-419.226461	33.124	
C	-0.0171296706	 1.584393268	 0.0619636305	-0.38095
C	-0.0738176793	 0.0581876308	-0.029851088	-0.170104
C	 0.7942676711	-0.4931201433	-1.1780841465	-0.302037
C	 0.7483150352	-1.9847096287	-1.2857313815	 0.266795
N	 1.7031148582	-2.7473547317	-0.8247522528	-0.146954
O	 1.3172811732	-4.0344709479	-1.0760550152	-0.158546
N	 0.1053413817	-4.0712390776	-1.7071029202	-0.136503
C	-0.267794065	-2.8278077022	-1.8473647533	 0.26424
C	-1.5514723823	-2.4528780676	-2.510642511	-0.505929
H	 1.0079412478	 1.9321545559	 0.2297201366	 0.122418
H	-0.3791206731	 2.0526153082	-0.8601141637	 0.116414
H	-0.633517444	 1.9527912404	 0.8872196198	 0.119501
H	 0.2656940334	-0.3883109526	 0.9116514741	 0.119153
H	-1.112872962	-0.2661858351	-0.166417968	 0.102543
H	 0.4652232018	-0.0520284353	-2.1274382002	 0.111064
H	 1.834964578	-0.189842296	-1.0283049673	 0.132145
H	-2.2257382916	-1.9463708849	-1.8124083323	 0.145992
H	-1.3750976477	-1.7705937802	-3.348743015	 0.142553
H	-2.0518815048	-3.3460501503	-2.8882522063	 0.158204
46.0453	79.8279	113.8688	130.9831	231.5361	249.5723	266.5428	314.9024	398.115	413.6683	644.5547	660.0881	712.4552	743.477	782.9282	875.2421	901.3626	924.9039	939.8896	1003.6948	1044.2555	1067.8572	1070.8487	1108.3231	1115.5464	1232.1472	1260.4427	1313.077	1324.4693	1382.2334	1412.6525	1415.3353	1430.7303	1477.094	1482.2631	1484.9734	1492.0459	1500.5671	1508.7436	1523.0232	1626.7753	3026.7975	3031.7054	3035.0165	3043.4107	3063.4534	3090.6095	3098.2517	3103.3787	3109.0642	3143.2912
CCCC1=NON=C1C	CCCc1nonc1C	
InChI=1S/C6H10N2O/c1-3-4-6-5(2)7-9-8-6/h3-4H2,1-2H3	InChI=1S/C6H10N2O/c1-3-4-6-5(2)7-9-8-6/h3-4H2,1-2H3
