19
gdb 99486	2.44553	1.11378	0.80656	0.8344	78.09	-0.2641	0.0134	0.2774	1445.3215	0.15796	-419.264058	-419.25349	-419.252546	-419.300974	36.165	
C	 0.0584250644	 1.5044527031	 0.1963612858	-0.402505
C	 0.1061596448	-0.0127025474	 0.0175215818	-0.172613
C	 0.5852544042	-0.4497324765	-1.3894641936	-0.277655
C	 1.9637982984	-0.0396228058	-1.6487617821	 0.293315
N	 3.0673870767	 0.2422501273	-1.8521576221	-0.343098
C	 0.3419266094	-1.9711293322	-1.5877293919	 0.44344
O	-0.7685061594	-2.4200010568	-1.3723830564	-0.379227
N	 1.4006228891	-2.7051497459	-2.0023448542	-0.334316
C	 1.309305826	-4.1350292948	-2.235467365	-0.339665
H	 1.0466070125	 1.9578297566	 0.0686060178	 0.138336
H	-0.6205315587	 1.9674028747	-0.5280897524	 0.121709
H	-0.2990813191	 1.7592250903	 1.198043261	 0.125804
H	 0.7635187719	-0.4645785714	 0.7686187638	 0.115926
H	-0.8839175347	-0.4561263556	 0.1467655829	 0.142367
H	-0.0533726772	 0.0420906339	-2.1345560605	 0.153465
H	 2.285491112	-2.2437547497	-2.1456556137	 0.271704
H	 0.278689315	-4.4349501193	-2.0450856436	 0.173809
H	 1.5718531149	-4.3804314733	-3.2696605057	 0.13459
H	 1.9745611098	-4.6870244771	-1.5631095619	 0.134613
32.853	67.3394	95.3678	133.8541	140.2074	176.3499	233.2277	271.2442	297.7088	330.3884	406.7063	507.3281	519.0684	566.8272	652.8378	771.3916	776.3193	856.4724	911.2388	964.9325	1049.8876	1085.8889	1110.7162	1129.5124	1154.8757	1177.9579	1246.7914	1264.5576	1276.1568	1343.2813	1361.6644	1417.6903	1440.929	1491.3352	1495.1661	1498.7765	1499.3056	1506.8157	1576.1846	1784.1951	2343.8668	3035.6594	3036.1869	3036.5442	3053.5916	3091.6374	3096.7255	3112.4155	3121.6008	3159.6196	3625.2723
CCC(C#N)C(=O)NC	CC[C@@H](C#N)C(=O)NC	
InChI=1S/C6H10N2O/c1-3-5(4-7)6(9)8-2/h5H,3H2,1-2H3,(H,8,9)	InChI=1S/C6H10N2O/c1-3-5(4-7)6(9)8-2/h5H,3H2,1-2H3,(H,8,9)/t5-/m0/s1
