14
gdb 21668	3.51993	1.9182	1.31412	1.4749	59.61	-0.2135	0.0029	0.2165	879.4122	0.109938	-412.038009	-412.030658	-412.029714	-412.069579	27.158	
N	 0.0979966937	 1.3475346053	-0.0932028814	-0.597414
C	 0.0839393318	-0.0353274726	-0.0515434679	 0.280111
N	-1.0273179334	-0.7689060225	-0.0291345595	-0.286225
N	-0.552508188	-2.0195601939	 0.0664005124	-0.092719
N	 0.7606881832	-2.1543259852	 0.0911491543	-0.265796
C	 1.2060621697	-0.8982411919	 0.0269109875	 0.230494
C	 2.6487099862	-0.5155090964	 0.0160879068	-0.190127
O	 2.9372146141	 0.4194326765	-1.0295091312	-0.416217
H	 0.9165989635	 1.7063371883	-0.5673543359	 0.259788
H	-0.7620569292	 1.752096642	-0.4356749679	 0.253365
H	-1.1694746194	-2.812525919	 0.108499874	 0.289252
H	 2.9227484975	 0.0090013816	 0.9381263284	 0.129209
H	 3.2715410132	-1.4163622663	-0.053709001	 0.119093
H	 2.7423161269	-0.0193478159	-1.8649355686	 0.287185
96.2106	166.7467	235.396	314.4781	360.2112	382.4888	407.3137	442.9764	474.7652	659.3749	696.3755	729.4393	754.9213	795.5455	961.6221	995.1121	1036.1721	1102.9087	1187.2568	1190.6328	1236.9221	1285.8978	1352.1977	1415.8033	1421.6906	1463.6271	1496.5181	1558.1468	1595.1199	1649.5793	3025.9118	3072.5171	3547.8234	3654.091	3686.8284	3804.4702
NC1=NNN=C1CO	Nc1n[nH]nc1CO	
InChI=1S/C3H6N4O/c4-3-2(1-8)5-7-6-3/h8H,1H2,(H3,4,5,6,7)	InChI=1S/C3H6N4O/c4-3-2(1-8)5-7-6-3/h8H,1H2,(H3,4,5,6,7)
