19
gdb 65271	2.84892	1.51378	1.27689	0.2888	70.18	-0.2475	0.0894	0.3369	1060.2141	0.158823	-460.142761	-460.134107	-460.133163	-460.176693	31.687	
C	-0.0159711283	 1.5218617005	-0.1009606474	-0.470454
C	-0.1622413126	 0.020999502	-0.0183970522	 0.368136
C	 0.9983128146	-0.8691809133	-0.14872246	-0.22092
O	 0.4176349838	-0.6041586487	 1.1359581418	-0.278558
C	-1.5495078679	-0.5142574599	-0.3815220138	 0.140886
O	-1.6165751281	-1.9178159268	-0.2864448793	-0.266117
C	-2.232418423	-2.2564981687	 0.9576649579	-0.08828
C	-2.6202254736	-0.8999329638	 1.5779000539	-0.111308
O	-2.5403528134	 0.0056010729	 0.4784225316	-0.255397
H	 0.9794604872	 1.8275181095	 0.228989551	 0.12706
H	-0.1652923313	 1.8707506576	-1.1287727374	 0.121719
H	-0.7638435441	 2.008427115	 0.5312287481	 0.14199
H	 0.8561420159	-1.8821498435	-0.515008321	 0.126738
H	 1.983833024	-0.4334163996	-0.30732437	 0.109544
H	-1.8073691471	-0.2122029897	-1.4050773224	 0.093019
H	-3.1043705267	-2.8869034696	 0.7507763787	 0.107155
H	-1.5290571907	-2.8082327422	 1.5881805418	 0.117476
H	-3.6431789742	-0.8741097723	 1.9605935054	 0.114357
H	-1.9242956845	-0.6129289393	 2.3734144333	 0.122952
50.6319	86.7179	158.2384	188.3396	233.8048	279.5248	340.1164	369.0914	480.1139	536.1408	707.0509	734.822	801.6153	862.2361	883.5303	892.2571	937.393	953.6122	969.7914	997.8265	1024.87	1067.9489	1106.4232	1134.1206	1147.231	1167.5942	1177.1393	1228.0478	1245.8593	1257.9178	1319.554	1377.8202	1386.3312	1388.7554	1396.0475	1416.8138	1479.4857	1497.7369	1514.1697	1518.6121	1529.6312	3027.6875	3036.9346	3041.733	3044.498	3083.0401	3093.2374	3109.0783	3109.5945	3131.5063	3193.0532
CC1(CO1)C1OCCO1	C[C@]1(CO1)C1OCCO1	
InChI=1S/C6H10O3/c1-6(4-9-6)5-7-2-3-8-5/h5H,2-4H2,1H3	InChI=1S/C6H10O3/c1-6(4-9-6)5-7-2-3-8-5/h5H,2-4H2,1H3/t6-/m0/s1
