20
gdb 40186	3.3313	1.41118	1.19175	2.6406	77.88	-0.2238	0.0683	0.2921	1093.5376	0.173267	-403.103044	-403.095425	-403.094481	-403.135082	30.806	
C	-0.0215856148	 1.512377148	-0.0029588053	-0.29533
N	 1.2535873761	 0.7722138471	 0.0675027687	-0.338991
C	-0.0191128334	 0.0317537414	 0.0023539097	 0.323608
C	-0.3472761262	-0.7258223815	 1.269453378	-0.1294
O	 0.3389175216	-1.9676603763	 1.338670788	-0.251133
C	 0.2723627402	-2.7742113968	 0.2005959878	 0.139023
C	-1.0227683558	-3.1542314208	-0.4639805709	-0.32953
C	-0.0515076097	-2.2099922498	-1.1605397575	-0.071309
C	-0.4004192751	-0.7240134988	-1.262209117	-0.31425
H	-0.2783344343	 2.0690278573	 0.8951056756	 0.115008
H	-0.2888171591	 2.0126917865	-0.931412893	 0.106738
H	 1.7039703132	 0.7752874991	-0.8449932185	 0.224622
H	-0.0168009528	-0.1603651111	 2.1432304265	 0.116871
H	-1.4369970756	-0.8756082327	 1.3473327757	 0.086673
H	 1.0431196795	-3.5345405083	 0.2690376983	 0.100956
H	-1.1313191898	-4.1667506763	-0.8372596635	 0.110008
H	-1.9436973711	-2.7200682545	-0.0873266421	 0.113721
H	 0.5024581972	-2.6165644202	-2.0001647644	 0.089042
H	-1.474878489	-0.5999032508	-1.4507885692	 0.10852
H	 0.113297449	-0.2747714417	-2.1195420769	 0.095154
77.699	168.0279	278.4801	286.7668	358.3198	380.6547	425.5866	493.7405	527.154	642.1743	751.2367	784.2759	800.5255	842.3356	869.4811	885.187	928.2635	951.5363	973.7158	983.778	1010.8144	1022.7354	1045.8029	1086.8522	1093.6919	1120.3309	1126.6214	1145.9197	1189.6802	1227.269	1244.6974	1258.3426	1276.475	1320.7885	1349.0954	1366.5922	1372.4993	1410.7881	1437.8642	1474.9888	1485.8798	1496.1437	1514.323	2968.9764	3013.4298	3056.395	3096.6613	3106.5871	3127.2554	3152.2779	3166.6932	3178.4856	3212.6681	3488.9092
C1NC11COC2CC2C1	C1N[C@]21CO[C@H]1C[C@H]1C2	
InChI=1S/C7H11NO/c1-5-2-7(3-8-7)4-9-6(1)5/h5-6,8H,1-4H2	InChI=1S/C7H11NO/c1-5-2-7(3-8-7)4-9-6(1)5/h5-6,8H,1-4H2/t5-,6-,7+/m0/s1
