21
gdb 79930	2.41456	1.39767	1.16435	1.4704	84.69	-0.2162	0.0244	0.2406	1189.3272	0.181416	-387.095869	-387.086636	-387.085692	-387.129102	35.878	
C	-0.1443241334	 1.532912464	-0.0142930393	-0.418446
C	 0.0278241427	 0.0346567343	 0.0778516307	-0.071085
C	 1.3422469414	-0.7101113694	-0.2124639736	-0.147503
C	 2.6145156813	 0.0568481431	-0.1221764206	-0.175334
C	 2.8465291523	 0.5218482386	 1.1126201345	 0.321839
C	 4.0042693563	 1.350469892	 1.5717548803	-0.489924
C	 1.740738968	 0.0960849574	 2.0632107512	-0.390629
C	 0.7580793316	-0.6847367759	 1.1837008028	 0.372029
O	 0.2019787985	-1.8535251883	 1.7149161459	-0.468461
H	 0.7798796257	 2.0618895392	 0.2306316995	 0.123169
H	-0.4354862571	 1.8290666711	-1.0280627751	 0.115972
H	-0.9263506477	 1.8840323851	 0.6692129101	 0.109259
H	-0.8338251201	-0.5365278066	-0.2625214571	 0.084188
H	 1.2793771724	-1.6007407933	-0.8280504719	 0.090934
H	 3.2635896707	 0.2256793019	-0.9751420623	 0.08461
H	 4.7137833893	 1.5332119375	 0.7598592013	 0.122629
H	 3.6766678059	 2.3238542508	 1.9592053862	 0.122604
H	 4.5434468852	 0.8574566419	 2.3912668415	 0.12389
H	 2.120886369	-0.5600983949	 2.8578576502	 0.111764
H	 1.2763864955	 0.9577641404	 2.5623565312	 0.099813
H	-0.5773448975	-1.6072410291	 2.2247566744	 0.278682
124.2985	172.6203	180.7109	211.5062	222.0285	272.225	275.2519	324.9606	401.413	428.9044	484.6467	524.9769	567.3657	668.2505	733.5024	782.4239	857.8413	871.0169	896.2476	934.9668	969.4982	998.8985	1007.6706	1044.2339	1063.0709	1077.2253	1115.6908	1125.9607	1162.5489	1192.7323	1229.1822	1249.8975	1305.8321	1314.0127	1343.4973	1349.8568	1410.0339	1414.4503	1446.0867	1473.2285	1478.7916	1490.0995	1496.5629	1501.2879	1702.6122	3008.5444	3014.7418	3028.4792	3040.548	3057.3244	3083.1121	3107.3598	3112.8055	3131.5239	3170.1354	3185.2794	3794.3973
CC1C2C=C(C)CC12O	C[C@H]1[C@H]2C=C(C)C[C@@]12O	
InChI=1S/C8H12O/c1-5-3-7-6(2)8(7,9)4-5/h3,6-7,9H,4H2,1-2H3	InChI=1S/C8H12O/c1-5-3-7-6(2)8(7,9)4-5/h3,6-7,9H,4H2,1-2H3/t6-,7+,8+/m0/s1
