17
gdb 91287	2.98734	1.4588	1.20788	5.2281	67.62	-0.232	0.0483	0.2803	1040.4037	0.138155	-455.177244	-455.169364	-455.16842	-455.209952	30.233	
O	 0.4085090116	 1.0132852472	-0.7861669036	-0.43062
C	 0.1168125461	-0.1533771694	-0.0593505079	 0.132161
C	 0.1379813909	-0.1001648589	 1.5000534036	-0.293508
C	-1.3052902505	-0.7049763019	 1.5163074206	-0.002848
N	-2.3791333149	 0.1014656722	 2.0515734895	-0.336435
C	-2.7471651162	 1.0870872483	 1.1293979919	 0.417109
O	-3.3743083623	 2.0938715351	 1.3636471472	-0.398077
N	-2.2885995674	 0.6608284737	-0.1081552545	-0.323439
C	-1.4011723276	-0.4750026524	-0.0283103632	-0.027542
H	 1.3527370312	 1.1886050253	-0.7264305723	 0.290401
H	 0.6835623836	-1.015930369	-0.4381653304	 0.070747
H	 0.9212624737	-0.6773972016	 1.996749927	 0.101217
H	 0.1519003137	 0.9273635279	 1.8721307865	 0.115033
H	-1.3589905352	-1.7425624561	 1.8492135624	 0.089396
H	-2.3698499032	 0.3941674973	 3.0164722992	 0.248703
H	-2.2049148401	 1.3438822047	-0.8424996225	 0.262328
H	-1.7286943435	-1.3018928224	-0.6655314936	 0.085375
59.5698	126.988	229.0004	239.1967	361.8048	399.3597	424.7817	471.8731	518.5646	575.3059	623.629	706.4955	735.2825	777.3776	823.0939	889.7709	931.229	937.6221	970.9378	1053.1246	1059.6227	1107.718	1152.0536	1168.1384	1200.8775	1217.3236	1247.766	1255.1314	1293.8233	1325.5718	1359.1097	1375.5381	1405.6114	1412.8786	1427.8334	1472.576	1851.4443	2995.1076	3052.1794	3062.9397	3093.1268	3125.7516	3634.2286	3667.4327	3824.2376
OC1CC2NC(=O)NC12	O[C@H]1C[C@H]2NC(=O)N[C@@H]12	
InChI=1S/C5H8N2O2/c8-3-1-2-4(3)7-5(9)6-2/h2-4,8H,1H2,(H2,6,7,9)	InChI=1S/C5H8N2O2/c8-3-1-2-4(3)7-5(9)6-2/h2-4,8H,1H2,(H2,6,7,9)/t2-,3+,4-/m1/s1
