23
gdb 92334	2.01562	1.8511	1.2258	1.6305	84.51	-0.2377	0.0746	0.3123	1140.31	0.20738	-388.299723	-388.291099	-388.290155	-388.332484	34.365	
C	 0.0965543282	 1.4667520585	-0.0910391834	-0.412187
C	-0.1932851697	 0.0700316672	 0.4239737142	 0.166032
O	-0.0902515301	-0.9302603639	-0.6176686735	-0.320517
C	 0.6195141776	-1.8396809482	 0.2545111905	 0.138101
C	 2.025379167	-2.1537356501	-0.254444801	-0.228728
C	 2.8449144904	-0.8997378327	 0.1043109237	-0.226284
C	 2.2633691922	-0.4598095102	 1.4657301928	 0.044913
C	 2.6877448938	 0.9249242544	 1.9586841701	-0.41934
C	 0.7487629721	-0.7487397212	 1.3554699305	-0.11923
H	 1.0829467564	 1.5407396088	-0.5537611064	 0.125176
H	-0.6487080685	 1.7271618622	-0.8503539268	 0.124038
H	 0.026822093	 2.2031832222	 0.71597361	 0.115987
H	-1.2127818787	 0.0615669205	 0.8415361711	 0.067438
H	 0.0174176778	-2.7284201155	 0.4763245724	 0.064105
H	 2.4152653218	-3.0301109821	 0.2784556009	 0.093101
H	 2.0207497097	-2.3882264067	-1.3227578595	 0.106734
H	 3.9207783075	-1.0923280411	 0.1549320248	 0.091169
H	 2.6901473125	-0.1202385818	-0.6494491735	 0.108302
H	 2.6277980972	-1.1868896446	 2.2074728766	 0.07365
H	 2.4414267323	 1.7141419353	 1.2449358623	 0.119064
H	 2.2037061395	 1.1719244575	 2.9099753346	 0.110066
H	 3.770120836	 0.9575567662	 2.1238006783	 0.11201
H	 0.308528462	-0.9596273848	 2.3321432311	 0.0664
102.2879	174.2154	204.6584	228.7608	265.2454	284.6543	336.4042	378.2755	421.124	509.8071	578.6889	629.2434	712.0213	810.2676	840.9365	858.5905	871.61	912.5965	927.0973	953.8247	971.5103	984.361	1034.5082	1067.4847	1084.5423	1101.4984	1115.1331	1139.1244	1177.7951	1195.6967	1209.5307	1229.5994	1279.5608	1299.438	1309.6946	1330.9278	1340.7241	1355.243	1367.6826	1381.4648	1401.6883	1412.2511	1420.3053	1469.9594	1480.1529	1492.6105	1498.3348	1506.1754	1509.8359	2964.4679	2980.9384	3025.6925	3035.2728	3039.6735	3041.5437	3048.7148	3084.1761	3089.0533	3091.2888	3098.1177	3102.8841	3126.4307	3134.0593
CC1OC2CCC(C)C12	C[C@H]1O[C@H]2CC[C@@H](C)[C@@H]12	
InChI=1S/C8H14O/c1-5-3-4-7-8(5)6(2)9-7/h5-8H,3-4H2,1-2H3	InChI=1S/C8H14O/c1-5-3-4-7-8(5)6(2)9-7/h5-8H,3-4H2,1-2H3/t5-,6-,7+,8+/m1/s1
