18
gdb 94026	4.36793	0.96359	0.8356	3.568	78.1	-0.2703	-0.0069	0.2634	1338.1681	0.148913	-401.975429	-401.966997	-401.966053	-402.008642	31.865	
O	-0.0932699895	 1.4559075264	-0.0126549783	-0.434306
C	 0.0170070087	 0.035286123	-0.0151339635	 0.099047
C	-1.4036194506	-0.5217772565	 0.0601070943	-0.226629
C	-1.423500288	-2.0218402673	-0.2416458226	-0.226206
C	-0.9208816032	-2.2899072256	-1.6800026376	-0.178861
C	 0.3266241735	-1.4832003441	-1.9977469283	-0.050574
C	 0.7321042531	-0.460616271	-1.2505581084	-0.098276
C	-0.6852413217	-3.7216496159	-1.8980978692	 0.257916
N	-0.4986685581	-4.8499467169	-2.0650250359	-0.32276
H	 0.7934709015	 1.8289960482	 0.0223220998	 0.283519
H	 0.5802841185	-0.2947232629	 0.8754076236	 0.079967
H	-1.8278528021	-0.3210019149	 1.047844933	 0.1103
H	-2.01427432	 0.0228352542	-0.6698841428	 0.116515
H	-0.7765670666	-2.5564130079	 0.4630787069	 0.124211
H	-2.4304851155	-2.4310814287	-0.1227025557	 0.119929
H	-1.710341609	-1.9966621799	-2.3887662392	 0.138368
H	 0.8796838444	-1.7783855717	-2.8843719225	 0.115475
H	 1.6344163246	 0.0799530013	-1.5316822335	 0.092364
63.1922	142.1719	181.7114	253.529	265.7248	323.4413	361.9211	393.0942	464.4718	525.9601	569.7547	614.9238	675.0339	750.9349	801.8858	887.476	942.0415	958.4632	1001.4538	1023.1881	1053.9013	1070.158	1091.3008	1098.446	1162.3319	1210.4193	1245.1316	1276.3296	1299.9268	1317.0312	1348.5252	1352.4323	1373.7644	1408.5762	1436.5727	1491.8475	1495.3394	1722.8656	2357.4251	2941.1963	2993.5947	3042.0556	3048.8937	3094.7943	3098.3032	3139.2937	3179.0233	3815.5405
OC1CCC(C=C1)C#N	O[C@H]1CC[C@@H](C=C1)C#N	
InChI=1S/C7H9NO/c8-5-6-1-3-7(9)4-2-6/h1,3,6-7,9H,2,4H2	InChI=1S/C7H9NO/c8-5-6-1-3-7(9)4-2-6/h1,3,6-7,9H,2,4H2/t6-,7-/m1/s1
