18
gdb 94048	5.02267	0.86905	0.78437	5.2121	73.05	-0.2699	0.0341	0.3041	1441.5453	0.147177	-439.108522	-439.099479	-439.098535	-439.143686	31.875	
C	-0.2879040555	 1.5783591324	 0.1361507916	-0.414284
C	 0.1977724386	 0.1462884052	 0.0361063178	 0.116094
C	 1.0364337229	-0.1949526647	-1.2041885808	-0.096157
O	 1.9590795731	-1.1776893698	-0.7406826529	-0.268269
C	 1.8730349362	-1.2323328913	 0.6711806838	 0.224974
C	 3.264843816	-1.1379536937	 1.3086915775	-0.360897
C	 4.1029006092	-2.2899802237	 0.994171625	 0.263152
N	 4.7618031555	-3.2080459884	 0.7552911821	-0.302907
O	 1.1229130496	-0.1261821583	 1.0931427551	-0.270812
H	 0.5554892354	 2.2728659768	 0.0820751243	 0.130342
H	-0.9797319201	 1.8017178566	-0.6817715209	 0.127352
H	-0.8128216568	 1.7413932673	 1.0808284707	 0.136501
H	-0.6509257355	-0.5517537127	 0.1123935447	 0.083012
H	 0.4406020211	-0.6110713097	-2.0223599212	 0.116908
H	 1.5793411914	 0.6864235495	-1.5717376343	 0.103934
H	 1.3814862087	-2.1766483967	 0.9625543139	 0.089303
H	 3.74422922	-0.2205302256	 0.9546012205	 0.159389
H	 3.1470560601	-1.0619123733	 2.394572833	 0.162363
38.0231	61.2855	98.9355	165.5458	218.9009	274.7389	356.1638	392.3849	417.8581	460.4036	548.1583	624.3072	743.535	834.3996	873.0141	915.1459	956.495	969.5852	1020.795	1055.9366	1068.2256	1110.9553	1147.6709	1161.6442	1179.5074	1222.5696	1235.3771	1296.7803	1333.1832	1364.2375	1380.1421	1406.5797	1411.001	1435.7537	1450.4024	1485.1515	1498.488	1527.6799	2369.3679	2956.3149	2979.5634	3013.0151	3045.7321	3060.6651	3080.757	3110.4235	3119.8007	3126.7386
CC1COC(CC#N)O1	C[C@H]1CO[C@@H](CC#N)O1	
InChI=1S/C6H9NO2/c1-5-4-8-6(9-5)2-3-7/h5-6H,2,4H2,1H3	InChI=1S/C6H9NO2/c1-5-4-8-6(9-5)2-3-7/h5-6H,2,4H2,1H3/t5-,6+/m0/s1
