16
gdb 45204	3.53726	1.59152	1.35022	4.3228	68.38	-0.2586	-0.0082	0.2503	940.7217	0.127036	-437.830458	-437.824083	-437.823138	-437.861104	26.12	
O	-0.1596435914	 0.0512837895	 0.3640831483	-0.31192
C	-0.0381451992	 1.185642182	 0.0517616523	 0.361761
O	-1.0541937637	 2.089430981	-0.3201407358	-0.277919
C	-0.0470607424	 3.0031499997	-0.9077982735	 0.124645
C	 0.3322148117	 4.4780860016	-0.6422011286	-0.303553
C	 1.6776694526	 4.1540221519	 0.1286063116	-0.016992
C	 1.1040857945	 3.2154611952	 1.2010165783	-0.213777
C	 0.9997881122	 2.3163662089	-0.0627349118	 0.134428
N	 2.3149904393	 2.8911224061	-0.4627672469	-0.401198
H	 0.003452244	 2.761213048	-1.9722091648	 0.099693
H	 0.4657018649	 5.0211936272	-1.5807235034	 0.111259
H	-0.3505286701	 5.0478716325	-0.0086733111	 0.13253
H	 2.3583944053	 4.9756664729	 0.3502540865	 0.089832
H	 1.8587392723	 2.8239707354	 1.8813916667	 0.131963
H	 0.1853088048	 3.4979625537	 1.7138289176	 0.119234
H	 2.4270625653	 2.9175323446	-1.4771224254	 0.220013
152.7469	246.3343	277.8447	412.8992	460.4597	552.9361	627.0248	672.876	690.6455	721.0856	786.64	799.7239	818.3887	887.9698	906.9315	946.6132	965.4064	1015.9379	1035.2541	1055.9413	1085.9964	1096.1909	1121.6972	1155.2889	1189.9354	1221.433	1230.772	1267.1247	1284.9726	1298.3262	1336.5524	1401.309	1476.7995	1497.7952	1947.6523	3066.8247	3078.1766	3098.8466	3126.4261	3126.7402	3174.3111	3445.5972
O=C1OC2CC3CC12N3	O=C1O[C@H]2C[C@H]3C[C@@]12N3	
InChI=1S/C6H7NO2/c8-5-6-2-3(7-6)1-4(6)9-5/h3-4,7H,1-2H2	InChI=1S/C6H7NO2/c8-5-6-2-3(7-6)1-4(6)9-5/h3-4,7H,1-2H2/t3-,4-,6-/m0/s1
