15
gdb 130671	5.50149	0.98795	0.89395	5.8877	67.84	-0.2494	-0.004	0.2454	1259.2089	0.11369	-453.958248	-453.950691	-453.949746	-453.991221	27.964	
O	-0.0723100518	-0.0144112741	 0.2416635508	-0.392027
C	-0.0357697556	 1.1732985944	 0.0959201811	 0.506626
N	-1.065675724	 2.1041160418	 0.1195999566	-0.435485
C	-0.5336614569	 3.350703161	-0.0919734711	 0.449551
N	 0.7483418833	 3.2942003314	-0.263854402	-0.193101
O	 1.086808334	 1.9206713434	-0.1386795201	-0.232181
C	-1.3272053711	 4.5880802122	-0.0841636968	-0.139685
C	-1.1092062892	 5.6020664651	 1.0329455402	-0.251064
C	-0.6489278942	 5.9083949122	-0.3592419576	-0.254237
H	-2.0249296257	 1.8660558568	 0.3021622822	 0.285479
H	-2.3463027635	 4.4642495789	-0.43593049	 0.104156
H	-1.9865585053	 6.1074033953	 1.4203798725	 0.126615
H	-0.3556228794	 5.357480269	 1.7722771286	 0.140779
H	 0.414455	 5.8738581522	-0.5617951163	 0.158633
H	-1.2051169305	 6.6324765105	-0.9426120881	 0.125941
41.4453	127.5831	176.2834	240.7362	356.0804	422.0962	468.7044	536.7119	627.1972	707.5349	753.5956	774.5242	797.0833	830.133	899.1773	922.3931	926.9349	969.1248	1026.6295	1071.0163	1097.4335	1111.3654	1121.0807	1196.9392	1204.3507	1221.3635	1244.8838	1380.9149	1465.8297	1489.8328	1518.8564	1647.3469	1904.0259	3143.1987	3152.0415	3162.1506	3231.5465	3247.5604	3688.4143
O=C1NC(=NO1)C1CC1	O=c1[nH]c(no1)C1CC1	
InChI=1S/C5H6N2O2/c8-5-6-4(7-9-5)3-1-2-3/h3H,1-2H2,(H,6,7,8)	InChI=1S/C5H6N2O2/c8-5-6-4(7-9-5)3-1-2-3/h3H,1-2H2,(H,6,7,8)
