20
gdb 37362	2.82332	1.8319	1.59605	1.9322	76.35	-0.2276	0.0799	0.3075	930.4973	0.176142	-403.134954	-403.128429	-403.127485	-403.165372	28.273	
C	 0.0061110853	 1.5240665772	-0.0066393469	-0.239574
C	 1.5175731572	 1.8462747706	-0.0221228117	-0.0225
C	 2.0640915171	 1.4564603312	 1.3691521704	-0.227803
C	 1.7749310054	-0.0296184027	 1.6757547187	-0.058547
O	 0.4795335667	-0.4786564822	 1.2779486064	-0.278907
C	 0.0583531306	-0.0139288601	-0.0085208457	 0.123642
C	 1.133519864	-0.3155775222	-1.0488996404	-0.061739
N	 1.1346983224	 0.6200191019	-2.1987049937	-0.356614
C	 2.0477050902	 0.8560210888	-1.0587269166	-0.02379
H	-0.4986232461	 1.8991983707	 0.8861966727	 0.092298
H	-0.496808196	 1.901629235	-0.8965799629	 0.120737
H	 1.7388751545	 2.8909818324	-0.2591144942	 0.064577
H	 3.1468318725	 1.6186004253	 1.4403692682	 0.09181
H	 1.5936114408	 2.0988979183	 2.1217445982	 0.102689
H	 2.5466305867	-0.6526646084	 1.2021315952	 0.089803
H	 1.8283132487	-0.2153772111	 2.752708163	 0.104294
H	-0.9041503315	-0.4961815112	-0.1937540923	 0.075859
H	 1.4850856502	-1.3329615505	-1.1824598	 0.090014
H	 1.6653254399	 0.1940125114	-2.9550610161	 0.2311
H	 3.1173076115	 0.7439784656	-1.2083950123	 0.082651
243.9564	256.3863	329.6951	361.2745	446.2352	466.8619	482.6858	606.7489	745.8636	759.9907	815.2844	832.1121	858.7515	866.4229	880.2366	893.5613	921.1275	955.7731	982.2756	999.4399	1045.2671	1060.6097	1084.6305	1084.9511	1110.023	1117.6646	1157.3102	1194.3273	1212.2797	1237.3455	1255.753	1291.472	1306.1558	1326.2688	1339.2124	1344.4639	1366.7959	1385.2511	1414.6416	1418.9379	1475.6152	1492.731	1512.6309	2999.2696	3027.1341	3063.2593	3066.6166	3080.164	3081.9206	3091.4311	3142.1504	3154.7117	3173.3979	3498.1526
C1C2CCOC1C1NC21	C1[C@H]2CCO[C@@H]1[C@H]1N[C@@H]21	
InChI=1S/C7H11NO/c1-2-9-5-3-4(1)6-7(5)8-6/h4-8H,1-3H2	InChI=1S/C7H11NO/c1-2-9-5-3-4(1)6-7(5)8-6/h4-8H,1-3H2/t4-,5+,6+,7-/m1/s1
