19
gdb 116938	3.51181	0.47505	0.4319	1.5551	89.06	-0.2408	0.0475	0.2883	2505.1167	0.155817	-385.833407	-385.821894	-385.82095	-385.875081	37.77	
C	-0.1820280932	 1.2025854188	-0.7969108354	-0.495815
C	-0.0897750389	-0.1361743224	-0.2323018184	 0.061853
C	-0.0173895259	-1.2422860507	 0.2345621133	 0.086949
C	 0.0783654808	-2.5887528463	 0.8044723712	-0.498013
C	-1.194108176	-3.3153614074	 0.8235255124	 0.101121
C	-2.2369312575	-3.9149056585	 0.853549726	 0.037464
C	-3.500181609	-4.6411986457	 0.8561305535	-0.323177
C	-3.9406848602	-5.0592853705	-0.5510253071	-0.063528
O	-5.1694208171	-5.752271798	-0.4107613912	-0.415748
H	 0.1527747557	 1.9614627831	-0.081110901	 0.147241
H	 0.4357643229	 1.3002212863	-1.6964597192	 0.146599
H	-1.2136160465	 1.443787153	-1.0761471086	 0.149353
H	 0.8220524141	-3.1712890006	 0.242289956	 0.153004
H	 0.4737078452	-2.5247524454	 1.8282537312	 0.154903
H	-3.4238664855	-5.542729893	 1.4763243723	 0.135622
H	-4.2944335655	-4.0279840246	 1.2990544497	 0.136964
H	-4.0463212818	-4.1637793009	-1.1811499224	 0.099642
H	-3.1637962157	-5.6936890231	-1.0033098952	 0.096889
H	-5.468163616	-6.016991334	-1.2853167571	 0.288676
5.2458	16.7956	50.0644	92.0378	103.9459	195.5844	200.1471	239.0234	270.2395	301.0277	367.3445	373.8311	401.1581	461.4318	557.6358	766.9328	794.1714	807.3804	931.6288	1001.2037	1053.2094	1054.6935	1080.0987	1088.2508	1139.1932	1176.3805	1221.5911	1231.1059	1238.375	1304.0501	1331.5945	1340.6457	1415.1722	1454.481	1455.1085	1478.2614	1478.6616	1479.2018	1527.7981	2375.3288	2382.8225	2983.4108	3000.4292	3014.2708	3022.0207	3026.5914	3029.628	3066.8308	3086.8385	3087.7891	3835.2143
CC#CCC#CCCO	CC#CCC#CCCO	
InChI=1S/C8H10O/c1-2-3-4-5-6-7-8-9/h9H,4,7-8H2,1H3	InChI=1S/C8H10O/c1-2-3-4-5-6-7-8-9/h9H,4,7-8H2,1H3
