17
gdb 130225	5.72229	0.95461	0.8754	3.0111	77.89	-0.2221	0.0079	0.23	1327.2978	0.137445	-417.996354	-417.988368	-417.987424	-418.029255	30.502	
N	-0.0754492473	 1.3621852354	 0.3102232328	-0.589493
C	 0.0246594772	 0.0021683775	 0.0648960811	 0.423066
N	-1.0394568129	-0.7103437145	-0.2366353688	-0.23412
O	-0.5738972201	-2.036388581	-0.3245199222	-0.237762
C	 0.7492627969	-2.0615908604	-0.0897473548	 0.496391
C	 1.1988244379	-0.8028041131	 0.1653373175	-0.449552
C	 1.423469498	-3.3624274836	-0.1422808212	-0.116569
C	 0.7072246481	-4.6162995144	 0.3283774418	-0.261494
C	 0.9717540321	-4.4212336952	-1.1333525784	-0.262456
H	 0.7147121378	 1.8989400035	-0.0176702777	 0.252686
H	-0.9501888251	 1.7523851639	-0.015223697	 0.258429
H	 2.202135651	-0.4923832871	 0.4053766778	 0.107939
H	 2.4868438838	-3.3017008543	 0.0585064451	 0.097045
H	 1.293915195	-5.3472454267	 0.8730392135	 0.118862
H	-0.3107999917	-4.4928201127	 0.6781499302	 0.139726
H	 0.1318063716	-4.166652988	-1.7687027785	 0.138855
H	 1.7430200776	-5.0161818394	-1.609160751	 0.118448
55.4592	140.7398	161.8287	278.9439	307.0735	338.5607	422.8728	465.7316	604.6878	641.7021	698.1494	737.8798	751.0644	784.1804	794.2086	825.6647	901.2382	910.9311	942.9977	1005.5279	1026.9611	1065.2549	1076.6824	1089.7076	1125.6046	1139.5141	1169.163	1205.8089	1223.0069	1329.8745	1371.7778	1465.0605	1492.2232	1507.5703	1554.4303	1640.4776	1665.9447	3141.5231	3144.6003	3177.8435	3227.2265	3242.0965	3270.8701	3554.4577	3654.235
NC1=NOC(=C1)C1CC1	Nc1noc(c1)C1CC1	
InChI=1S/C6H8N2O/c7-6-3-5(9-8-6)4-1-2-4/h3-4H,1-2H2,(H2,7,8)	InChI=1S/C6H8N2O/c7-6-3-5(9-8-6)4-1-2-4/h3-4H,1-2H2,(H2,7,8)
