14
gdb 124919	2.02975	1.90119	0.98849	1.4481	71.63	-0.2502	-0.0369	0.2133	1114.97	0.101214	-432.892475	-432.884064	-432.88312	-432.925778	30.201	
C	 0.0501243463	 1.4943593416	-0.0493755348	-0.499924
C	-0.0401747403	 0.012709263	-0.0613978456	 0.375553
C	-1.0959840449	-0.8490463756	 0.0870583444	-0.082383
C	-2.4575939643	-0.5495938774	 0.2962398595	 0.186569
N	-3.5851966618	-0.3363596266	 0.4603071574	-0.352598
C	-0.4956357613	-2.1528173918	-0.02496513	 0.368692
N	-1.1392681418	-3.3523666633	 0.1224094256	-0.593152
N	 0.7983376287	-2.0669015328	-0.2322130428	-0.228306
O	 1.0781010372	-0.6818326013	-0.2448470743	-0.211011
H	 0.7158646111	 1.8317272216	 0.7512811369	 0.164463
H	 0.4572954611	 1.8626175928	-0.9962571897	 0.16327
H	-0.9383889155	 1.9297056631	 0.1051117737	 0.16357
H	-2.1177895488	-3.3607005182	-0.1217394546	 0.273842
H	-0.6254188158	-4.1558656051	-0.2077738158	 0.271416
81.7642	119.3201	140.9231	207.7927	260.148	330.9202	373.0529	412.289	525.3635	546.9535	564.3399	587.2372	622.9392	658.7357	761.0815	797.3857	915.4637	1015.9072	1060.9768	1076.0262	1133.1543	1258.6625	1339.2322	1412.9486	1471.6956	1477.3159	1491.291	1568.3353	1641.7611	1666.7268	2340.7036	3047.4083	3107.5913	3147.34	3578.74	3686.3751
CC1=C(C#N)C(N)=NO1	Cc1c(C#N)c(N)no1	
InChI=1S/C5H5N3O/c1-3-4(2-6)5(7)8-9-3/h1H3,(H2,7,8)	InChI=1S/C5H5N3O/c1-3-4(2-6)5(7)8-9-3/h1H3,(H2,7,8)
