18
gdb 35109	3.23547	1.42689	1.11791	1.6434	82.7	-0.2276	0.0127	0.2403	1102.1426	0.148152	-364.752997	-364.745083	-364.744139	-364.785471	31.115	
C	-0.6757288864	-0.960529663	-1.2191188399	-0.466768
C	-0.3596955884	 0.0257413971	-0.6104289263	 0.348155
C	 0.0076356978	 1.2199540351	 0.1565502829	-0.198354
C	-0.5335222698	 1.1385664526	 1.5735378582	-0.038575
C	 0.1251062862	 1.6194200606	 2.6232468102	-0.098399
C	 1.4673030141	 2.2838615503	 2.5098977187	-0.275825
C	 2.1846231384	 1.9614787355	 1.2098009654	-0.010695
C	 2.3433583943	 0.5494222855	 0.7677230175	-0.241245
N	 1.4606716052	 1.4579756426	 0.0346146979	-0.100396
H	-0.9504311081	-1.8270703183	-1.7680661453	 0.197014
H	-0.4702418716	 2.0834037748	-0.3326478808	 0.124819
H	-1.5107253591	 0.6789453805	 1.6850819905	 0.104262
H	-0.3172233642	 1.5563883795	 3.6138991785	 0.095701
H	 1.3376577184	 3.3731289234	 2.5885800922	 0.119624
H	 2.1040139954	 2.0053945208	 3.3601325157	 0.114943
H	 2.9702202501	 2.6675555404	 0.9468518734	 0.091133
H	 3.2309391308	 0.2313402178	 0.228077651	 0.113699
H	 1.8848670968	-0.2170532652	 1.3881314401	 0.120906
65.4169	141.9526	191.9692	299.9139	350.643	380.8826	462.197	488.224	547.1819	610.5644	622.2922	658.5578	691.8075	742.1965	812.4669	838.9474	909.4224	932.8603	951.1615	967.6178	1003.6378	1039.1338	1068.621	1097.7514	1116.9149	1119.427	1171.7016	1204.952	1234.507	1288.666	1304.4331	1332.2696	1361.0386	1386.0341	1423.2177	1476.294	1505.003	1726.9396	2240.174	2975.3468	3002.654	3031.347	3105.2688	3116.5281	3156.0389	3182.5272	3190.6857	3503.8958
C#CC1C=CCC2CN12	C#C[C@H]1C=CC[C@H]2CN12	
InChI=1S/C8H9N/c1-2-7-4-3-5-8-6-9(7)8/h1,3-4,7-8H,5-6H2	InChI=1S/C8H9N/c1-2-7-4-3-5-8-6-9(7)8/h1,3-4,7-8H,5-6H2/t7-,8-,9?/m0/s1
