18
gdb 62141	6.01812	0.6081	0.57733	3.6833	74.48	-0.2909	-0.0048	0.2861	1818.4416	0.145398	-439.12583	-439.115746	-439.114802	-439.162586	34.199	
C	-0.1657713124	 1.4257148151	 0.1721776041	-0.411374
C	-0.0407760308	-0.0927055173	 0.019466224	 0.010065
C	-1.4058411928	-0.7863949436	 0.0181784118	-0.090018
O	-2.0547442769	-0.579541425	 1.2738744434	-0.182658
C	-3.3148390289	-0.0966106395	 1.2793486746	 0.172728
O	-3.9317981543	 0.080010772	 2.2840168051	-0.265456
C	 0.7074417523	-0.4888995302	-1.2762058241	-0.352296
C	 2.0793360531	 0.0112956492	-1.3108581589	 0.268056
N	 3.1629763605	 0.4120560509	-1.3232787133	-0.303058
H	 0.8197726704	 1.8981975633	 0.1866261655	 0.151401
H	-0.7354885677	 1.8594861114	-0.6587843379	 0.115704
H	-0.6759589292	 1.6775457767	 1.1046048674	 0.145466
H	 0.5259745782	-0.4896985789	 0.8695735173	 0.119638
H	-2.033803173	-0.4022550696	-0.798719963	 0.11035
H	-1.291996728	-1.8677426314	-0.1200401305	 0.123411
H	-3.6968997114	 0.1127862976	 0.2607891125	 0.081122
H	 0.7380412674	-1.5797709349	-1.3825331496	 0.153912
H	 0.1763660835	-0.0996557557	-2.1541440584	 0.153006
32.767	53.4271	85.262	121.5456	165.2842	235.7978	244.8221	296.9096	370.9492	391.2392	397.2775	420.9563	582.1785	673.4951	840.2796	888.5454	924.1528	932.934	975.9338	1042.7066	1053.0794	1113.6264	1134.4516	1137.0678	1196.53	1252.9369	1292.85	1309.4785	1361.1265	1385.8162	1399.3222	1417.5062	1436.9194	1466.3671	1495.7967	1502.9867	1508.0315	1872.6187	2364.301	2944.851	3003.0936	3031.1325	3032.8974	3049.3391	3064.5021	3076.2695	3109.6642	3133.5191
CC(COC=O)CC#N	C[C@@H](COC=O)CC#N	
InChI=1S/C6H9NO2/c1-6(2-3-7)4-9-5-8/h5-6H,2,4H2,1H3	InChI=1S/C6H9NO2/c1-6(2-3-7)4-9-5-8/h5-6H,2,4H2,1H3/t6-/m1/s1
