17
gdb 67339	2.88072	1.94011	1.35535	4.2008	71.3	-0.2621	0.0035	0.2656	941.0208	0.137255	-421.826669	-421.819658	-421.818714	-421.857909	28.	
C	-0.0817394462	 1.5557577487	 0.0251979277	-0.504939
C	 0.0023903786	 0.0512756221	 0.0351981229	 0.149073
C	 1.107841906	-0.7886973106	-0.7292270163	-0.111181
C	 2.1078815325	-0.5199804329	 0.4193354521	-0.272413
C	 0.7656220497	-0.7954974656	 1.1362088075	-0.111226
C	 0.4917597742	-1.9321628576	 0.1176546305	 0.122023
O	-0.9147780178	-2.0326008863	-0.1409751296	-0.250475
C	-1.2882576047	-0.7139686177	-0.2038854355	 0.427246
O	-2.4022191549	-0.3331811356	-0.4085036312	-0.348625
H	 0.8895125243	 2.0245471452	 0.2035696058	 0.12113
H	-0.4619224589	 1.9092627013	-0.937947372	 0.139313
H	-0.7772240091	 1.9031951748	 0.7951016515	 0.13923
H	 1.2869637699	-0.788058683	-1.8050905898	 0.09048
H	 2.9003391052	-1.2604937118	 0.5620250458	 0.102243
H	 2.5069413233	 0.4920194726	 0.496235517	 0.112435
H	 0.5511882218	-0.8027033338	 2.205570706	 0.090457
H	 0.9438278961	-2.9176741196	 0.1969104276	 0.105229
135.7427	168.3856	269.0302	307.7688	367.4508	425.2998	533.8149	597.4485	682.0351	684.9467	735.3017	819.0564	836.1614	871.882	894.7032	912.7949	927.1881	1000.776	1010.6904	1054.5382	1081.3567	1087.3185	1093.6481	1120.7522	1161.7413	1180.1536	1203.2229	1210.6486	1236.598	1275.9846	1321.3273	1362.3319	1422.11	1485.2671	1490.1581	1525.3398	1900.3658	3045.5969	3060.1845	3110.9931	3111.631	3112.8778	3119.4707	3130.6067	3163.0791
CC12C3CC1C3OC2=O	C[C@@]12[C@H]3C[C@@H]1[C@H]3OC2=O	
InChI=1S/C7H8O2/c1-7-3-2-4(7)5(3)9-6(7)8/h3-5H,2H2,1H3	InChI=1S/C7H8O2/c1-7-3-2-4(7)5(3)9-6(7)8/h3-5H,2H2,1H3/t3-,4+,5-,7+
