16
gdb 43965	3.26138	1.61663	1.45412	3.8034	73.43	-0.238	0.0007	0.2387	932.2719	0.1264	-400.737195	-400.730492	-400.729548	-400.768008	27.374	
O	-0.0909581457	-0.0018901262	 0.1574159416	-0.342123
C	-0.034990417	 1.1887871352	 0.0557069095	 0.37231
N	-1.0356882837	 2.1791565622	 0.0467661153	-0.382352
C	-0.0674897069	 3.2749375942	-0.0531385335	 0.260483
C	 0.9400796054	 3.2440676885	 1.052410016	-0.343735
C	 1.066428766	 2.24858508	-0.106545817	 0.045745
C	 1.8840651455	 2.6174764745	-1.2908532845	-0.171818
C	 1.3606331726	 3.6843540252	-1.9111817246	-0.05745
C	 0.0682579777	 4.1838058865	-1.2671725112	-0.336779
H	-1.8554305717	 2.1717233857	 0.6440805273	 0.2412
H	 1.6962985324	 4.0226313044	 1.0679263337	 0.131048
H	 0.6356322753	 2.8827589008	 2.0296945867	 0.126669
H	 2.7847742776	 2.0971675253	-1.5929102787	 0.111133
H	 1.7980276989	 4.1734798109	-2.7762520809	 0.101285
H	-0.7886573555	 4.0627631252	-1.9403811221	 0.127581
H	 0.1188971193	 5.2475413977	-1.0075863374	 0.116805
146.0583	210.3387	315.1796	374.6951	410.5008	491.8991	537.4861	636.5499	670.6519	679.4778	711.1702	767.3355	822.8229	839.2225	874.8409	918.0473	924.8731	948.0251	962.3632	977.8133	1058.4981	1064.181	1120.0056	1147.2295	1154.5295	1246.4795	1258.3646	1317.914	1331.0348	1343.7664	1369.8275	1468.0892	1478.1433	1641.1377	1895.7567	3034.9721	3067.0804	3124.0368	3178.5854	3213.5156	3216.4674	3534.071
O=C1NC23CC12C=CC3	O=C1N[C@@]23C[C@@]12C=CC3	
InChI=1S/C7H7NO/c9-5-6-2-1-3-7(6,4-6)8-5/h1-2H,3-4H2,(H,8,9)	InChI=1S/C7H7NO/c9-5-6-2-1-3-7(6,4-6)8-5/h1-2H,3-4H2,(H,8,9)/t6-,7-/m0/s1
