14
gdb 125055	2.11087	0.97949	0.71383	4.7446	64.71	-0.2382	-0.0395	0.1987	1507.9254	0.094691	-470.087929	-470.075979	-470.075034	-470.130884	35.97	
C	-0.1624635774	 1.9000989269	 0.0445655225	-0.498889
C	-0.0324012983	 0.404148684	 0.2449300244	-0.220767
C	-1.1588723962	-0.5548625222	 0.287868165	 0.400563
N	-2.4032731321	 0.0010911017	 0.1229469802	-0.546046
O	-1.0032885632	-1.7499019868	 0.4892923811	-0.391599
N	 0.8590749122	-4.3908123337	-0.6950403101	-0.00905
N	 1.036795378	-3.4116617348	-1.1602847789	 0.00405
C	 1.1609903832	-0.1467398405	 0.4182327475	 0.521055
O	 2.2152509773	-0.5990478371	 0.5659364301	-0.20394
H	 0.8090151043	 2.3963690767	 0.1032492951	 0.14377
H	-0.5861826334	 2.1387200829	-0.9389751033	 0.135983
H	-0.804930134	 2.3446428193	 0.8129491631	 0.145149
H	-2.5216666483	 0.9179596677	-0.2722785079	 0.2563
H	-3.1613691521	-0.6528543641	 0.0098494412	 0.26342
10.0927	15.3248	35.3796	47.379	71.4425	91.76	144.9141	175.9372	225.805	247.4757	299.9521	450.3346	476.2643	528.9004	575.54	677.2	713.5549	761.8001	988.6742	1055.8964	1082.9264	1171.3576	1334.7722	1402.3367	1422.771	1483.5208	1510.8832	1615.6148	1744.9132	2232.4864	2432.8896	3017.842	3073.6921	3118.6095	3598.5705	3727.8577	10.0913	15.3226	35.3788	47.3785	71.4418	91.7592	144.9146	175.9357	225.8048	247.4757	299.9504	450.3346	476.2643	528.9001	575.5398	677.2	713.5549	761.7997	988.6742	1055.8967	1082.9269	1171.3575	1334.7723	1402.337	1422.7713	1483.5212	1510.8838	1615.6159	1744.9132	2232.4867	2432.8896	3017.842	3073.692	3118.6095	3598.5702	3727.8575
CC1=C(N)ON=NC1=O	C[C](C(=O)N)[C][O].N#N	
InChI=1S/C4H5N3O2/c1-2-3(5)9-7-6-4(2)8/h5H2,1H3	InChI=1S/C4H5NO2.N2/c1-3(2-6)4(5)7;1-2/h1H3,(H2,5,7);
