17
gdb 28576	4.81821	1.07848	0.92716	1.6609	77.74	-0.2079	0.0189	0.2268	1270.1256	0.136825	-418.018129	-418.010048	-418.009104	-418.051394	29.565	
C	-0.1907747387	 1.4252331587	 0.2478775948	-0.494553
C	-0.0289135975	-0.0111336211	-0.0817710627	 0.324388
C	 0.1462774809	-0.7266381924	-1.2160246926	-0.193798
N	 0.2306449652	-2.0856517656	-0.9171937946	-0.330402
C	 0.1113944303	-2.1239189449	 0.3729275412	 0.443561
O	-0.0498908177	-0.9146911981	 0.9633533507	-0.216603
N	 0.2007328657	-3.2097094944	 1.2241032818	-0.163996
C	-1.039128969	-3.8278875853	 1.722798443	-0.231257
C	-0.1999522851	-4.5077302066	 0.6975400279	-0.212386
H	 0.6031560593	 1.7796441524	 0.9151929753	 0.14097
H	-0.1544921459	 2.0168415477	-0.669902426	 0.139211
H	-1.1483347542	 1.6222046746	 0.743705977	 0.137862
H	 0.216254006	-0.3660655701	-2.2304063871	 0.116162
H	-1.00580274	-4.139814462	 2.7614492652	 0.130304
H	-1.9796859946	-3.3940752028	 1.3948726825	 0.132579
H	-0.5647553064	-4.5290057482	-0.3245547969	 0.15017
H	 0.4449657118	-5.3323050419	 0.9838512204	 0.127788
53.4979	133.2904	162.5494	185.9231	242.2732	312.07	393.3744	510.8957	590.4712	638.6807	686.283	761.987	819.2164	843.4348	895.0315	917.7937	973.8349	1000.5049	1038.5658	1044.0986	1068.0281	1117.3236	1138.3935	1154.8514	1173.4577	1187.6413	1221.5759	1250.2313	1299.282	1402.0675	1419.4614	1471.3061	1491.3617	1493.7651	1517.1231	1620.3204	1657.2312	3028.9575	3078.9245	3119.6977	3126.8812	3127.4691	3208.5793	3222.9501	3258.5661
CC1=CN=C(O1)N1CC1	Cc1cnc(o1)N1CC1	
InChI=1S/C6H8N2O/c1-5-4-7-6(9-5)8-2-3-8/h4H,2-3H2,1H3	InChI=1S/C6H8N2O/c1-5-4-7-6(9-5)8-2-3-8/h4H,2-3H2,1H3
