15
gdb 24935	4.69902	1.28248	1.02022	4.3043	71.59	-0.2218	-0.0223	0.1995	1082.7985	0.115528	-416.870627	-416.863799	-416.862854	-416.902116	26.474	
O	 0.0028389221	 0.0667181768	 0.0042589942	-0.293204
C	-0.0103840025	 1.2657705044	 0.010809034	 0.408437
C	-1.3197458669	 2.1243605793	 0.033372163	-0.471681
C	-0.7376033446	 3.490736644	 0.0321044318	 0.301535
C	 0.6264323116	 3.5400123407	 0.0134740281	 0.276141
C	 1.2452521155	 2.1807590903	-0.0018244389	-0.458238
N	 1.0857229117	 4.8326823919	 0.0134654857	-0.339278
C	-0.0100737663	 5.562507194	 0.0322357023	-0.010202
N	-1.1534455113	 4.7989636751	 0.0442871967	-0.376655
H	-1.9319803909	 1.869283539	-0.840936592	 0.139118
H	-1.9072983632	 1.8604725167	 0.9218962357	 0.139116
H	 1.8718663141	 1.9488929674	 0.8679463241	 0.14238
H	 1.8478624367	 1.957683369	-0.8906354584	 0.142388
H	-0.0497683096	 6.6415443678	 0.0380981897	 0.132131
H	-2.0977215863	 5.1456112836	 0.0590452243	 0.268013
75.6148	214.9715	248.6581	350.8013	486.6797	508.2637	509.3679	527.7889	655.7113	687.0071	719.6093	733.0987	798.0198	810.1966	861.8223	966.8507	994.7269	1043.0633	1097.1958	1129.5748	1168.5505	1171.4169	1209.8162	1225.8835	1282.2027	1374.7841	1383.1199	1452.6959	1455.9295	1470.8386	1523.8281	1616.7405	1859.2224	3023.07	3034.8036	3052.7895	3064.2551	3253.8235	3668.0694
O=C1CC2=C(C1)N=CN2	O=C1Cc2c(C1)nc[nH]2	
InChI=1S/C6H6N2O/c9-4-1-5-6(2-4)8-3-7-5/h3H,1-2H2,(H,7,8)	InChI=1S/C6H6N2O/c9-4-1-5-6(2-4)8-3-7-5/h3H,1-2H2,(H,7,8)
