16
gdb 47250	2.47945	1.71393	1.09513	3.7339	75.	-0.2505	-0.0609	0.1895	1065.6933	0.12633	-434.086944	-434.079086	-434.078142	-434.119943	29.255	
N	-0.2265730938	 1.329704884	-0.4542246699	-0.473552
C	-0.0447522633	 0.1609500963	 0.017285073	 0.288621
N	 1.1646367692	-0.3143519022	 0.52711367	-0.366406
C	 1.6034671989	-1.5792756528	 0.9466368218	 0.095902
N	 1.0171247575	-2.6730211669	 1.1826140632	-0.230729
C	-0.4059716169	-2.9017559912	 1.0859708257	-0.164217
C	-1.3423144211	-1.6870393083	 1.2711638576	-0.328979
C	-1.2586624199	-0.7626441342	 0.080228522	 0.359493
O	-2.0856609179	-0.737428755	-0.7948796869	-0.274737
H	 0.6257843854	 1.8957870066	-0.4234570208	 0.211961
H	 1.9147914825	 0.3605818071	 0.4672922545	 0.247572
H	 2.6862878147	-1.5539317447	 1.0877371449	 0.118407
H	-0.6202880528	-3.3799085465	 0.119811715	 0.134418
H	-0.663049765	-3.6453489342	 1.8485177692	 0.125617
H	-2.3748958834	-2.0364735394	 1.3448252819	 0.133337
H	-1.075388374	-1.1613254287	 2.1951284988	 0.12329
50.4992	111.015	188.2623	284.6186	346.018	368.3097	412.2665	493.936	533.7237	574.7799	630.5548	676.8185	779.5557	855.2424	861.8792	879.1582	928.6762	952.4765	972.2228	1035.696	1062.6362	1135.9485	1189.2566	1225.0798	1261.9782	1324.076	1357.5694	1386.0185	1468.3815	1474.5934	1484.3857	1495.8404	1703.1355	1775.5856	1822.2997	3015.6143	3042.9515	3059.2234	3102.9081	3116.3841	3429.7017	3583.3019
N=C1NC=NCCC1=O	[NH][C]1NC=NCCC1=O	
InChI=1S/C5H7N3O/c6-5-4(9)1-2-7-3-8-5/h3H,1-2H2,(H2,6,7,8)	InChI=1S/C5H7N3O/c6-5-4(9)1-2-7-3-8-5/h3H,1-2H2,(H2,6,7,8)
