21
gdb 77746	1.89032	1.50662	1.38458	3.3539	83.75	-0.2317	-0.0066	0.2252	1150.7141	0.180598	-387.094657	-387.085024	-387.08408	-387.128558	36.191	
C	 0.1999809702	 1.6377820207	-0.3806001907	-0.424133
C	 0.2472390535	 0.1359497631	-0.168287573	-0.049904
C	 1.4805107092	-0.7248440148	-0.4313620712	-0.254845
C	 2.6871999526	-0.0315288507	 0.130646793	 0.40503
O	 3.7654299489	 0.2588532319	-0.3088408465	-0.329287
C	 2.0918602106	 0.0067186547	 1.563074884	-0.153413
C	 2.0783734917	 1.2591951251	 2.4322114806	-0.429936
C	 0.8148223662	-0.6393708704	 0.9799015071	 0.310103
C	 0.0395565894	-1.7068126871	 1.6996861296	-0.495723
H	 1.1511158084	 2.1263703867	-0.1608280355	 0.137327
H	-0.0384892359	 1.8552387617	-1.427260379	 0.123067
H	-0.5754892042	 2.1014837329	 0.2392202782	 0.119205
H	-0.6414004719	-0.3592731053	-0.5602902774	 0.092023
H	 1.4776263492	-1.5149468795	-1.173278366	 0.102499
H	 2.6454224149	-0.7817229191	 2.095484665	 0.102555
H	 1.4815275293	 2.064885397	 2.0006628683	 0.123184
H	 1.6729202045	 1.0402398356	 3.4257474636	 0.117578
H	 3.1000991642	 1.6295607546	 2.5647629441	 0.13478
H	-0.5254196918	-1.2846563562	 2.5394998594	 0.126407
H	-0.6793865704	-2.1952971269	 1.0339865575	 0.121679
H	 0.7051040416	-2.4775806639	 2.1048112591	 0.121802
103.5416	149.8197	167.4143	182.2911	204.9531	212.1734	260.8155	289.4484	318.7683	409.362	498.2667	561.755	599.305	652.7936	688.1477	708.2665	801.0595	880.4862	900.5275	930.3732	989.0045	1027.1541	1059.0519	1070.3729	1086.5734	1108.0838	1129.3339	1134.9355	1156.822	1196.7939	1236.9446	1288.4079	1333.2472	1358.5299	1405.0404	1417.0277	1419.8826	1464.0964	1485.0472	1488.8141	1495.3914	1497.0719	1503.3532	1510.0088	1874.4977	2998.8088	3021.9146	3034.7155	3041.0111	3080.5853	3092.0852	3096.9183	3100.313	3103.9129	3127.1166	3136.385	3184.6016
CC1C2C(=O)C(C)C12C	C[C@H]1[C@H]2C(=O)[C@@H](C)[C@@]12C	
InChI=1S/C8H12O/c1-4-6-7(9)5(2)8(4,6)3/h4-6H,1-3H3	InChI=1S/C8H12O/c1-4-6-7(9)5(2)8(4,6)3/h4-6H,1-3H3/t4-,5+,6-,8+/m0/s1
