18
gdb 51575	3.6058	0.90145	0.80305	4.2712	73.23	-0.2426	-0.0207	0.2219	1423.6928	0.145328	-439.02632	-439.017294	-439.016349	-439.061492	31.804	
O	-0.3881919831	 0.8106254214	 1.0663776945	-0.2401
C	-0.0347742478	 1.3639651338	 0.0587265044	 0.158955
C	 1.4121055217	 1.7050582041	-0.263600061	-0.243242
N	 1.4530271037	 2.772398657	-1.2555554501	-0.11139
C	 1.6258549462	 4.1424258831	-0.7692110535	-0.26313
C	 2.7194000153	 3.4619390149	-1.5143884353	-0.022387
C	 3.9957472292	 3.0835568686	-0.8243177456	 0.043466
C	 4.8440134362	 4.0962625682	-0.1779796568	-0.17304
O	 4.0506526301	 3.1963641207	 0.5982855078	-0.222185
H	-0.7519698336	 1.6589786401	-0.7397303329	 0.087229
H	 1.9512512986	 1.9084595759	 0.6705874108	 0.148648
H	 1.8551610611	 0.8009770352	-0.7068936056	 0.131195
H	 1.0155818872	 4.8989063257	-1.2542786241	 0.119205
H	 1.7865745026	 4.2804621445	 0.2978170402	 0.135543
H	 2.8667029374	 3.7010996996	-2.5676160641	 0.100831
H	 4.4875146155	 2.1899933275	-1.2126646524	 0.104909
H	 5.9193290651	 3.941223141	-0.1138409685	 0.123536
H	 4.5142278347	 5.1334930188	-0.1673739978	 0.121956
54.4105	71.7093	93.9817	111.8191	216.9254	237.9153	315.9236	391.8739	502.4165	533.0102	619.6917	722.8151	747.9733	824.2701	870.0694	899.0671	939.0369	1010.3512	1020.6293	1050.8409	1061.0889	1100.7174	1109.1498	1126.6192	1151.3899	1167.0387	1168.8197	1173.8111	1258.6179	1286.5852	1325.3376	1334.8749	1402.5653	1406.1081	1429.3368	1459.9929	1505.0534	1521.8272	1840.1541	2889.0438	3005.1618	3055.2096	3090.8447	3095.6033	3104.4479	3109.0024	3183.2139	3195.158
O=CCN1CC1C1CO1	O=CCN1C[C@H]1[C@H]1CO1	
InChI=1S/C6H9NO2/c8-2-1-7-3-5(7)6-4-9-6/h2,5-6H,1,3-4H2	InChI=1S/C6H9NO2/c8-2-1-7-3-5(7)6-4-9-6/h2,5-6H,1,3-4H2/t5-,6+,7?/m0/s1
