16
gdb 99570	2.26229	1.22314	0.84415	5.2636	69.79	-0.2639	-0.0125	0.2514	1311.4385	0.123492	-434.070996	-434.061114	-434.06017	-434.106324	34.287	
N	-0.0354263532	 1.5164877598	 0.0723852933	-0.518951
C	 0.0068923067	 0.0617124602	 0.0121815686	-0.166827
C	-1.4321432427	-0.5032733564	 0.0025273518	-0.153409
C	-2.1317619203	-0.0845483261	-1.2135770048	 0.282563
N	-2.6397612523	 0.2531431626	-2.195192724	-0.316324
C	-1.4242043511	-2.0564152457	 0.1228421963	-0.017226
O	-0.699997286	-2.4899407449	 1.2532963474	-0.404937
C	-2.7966047104	-2.596343269	 0.134940505	 0.263478
N	-3.8697158784	-3.0178198035	 0.2065615883	-0.301482
H	 0.8927448015	 1.884588903	 0.2499679592	 0.240176
H	-0.3372414328	 1.9008519308	-0.8183292178	 0.247547
H	 0.54838347	-0.3547517704	-0.85396894	 0.103037
H	 0.4957706048	-0.317129039	 0.9126129096	 0.132325
H	-1.9671756997	-0.0835750914	 0.8627151326	 0.145932
H	-0.8988574829	-2.470169551	-0.7445744605	 0.160001
H	-1.2243613332	-2.3161937889	 2.0443012452	 0.304098
57.0185	93.3632	114.104	153.0573	209.2752	227.8009	271.1196	279.3945	335.8956	356.3134	433.8939	493.1811	541.5246	605.3688	621.8322	831.7523	849.8529	908.1717	1010.1922	1043.4133	1061.6449	1094.7099	1114.5363	1184.3611	1212.4893	1278.8178	1320.2849	1338.8752	1362.1722	1415.786	1422.3458	1510.8902	1663.2458	2357.6261	2360.6835	2959.4861	3051.0518	3072.2192	3105.8868	3501.9948	3583.1267	3798.1317
NCC(C#N)C(O)C#N	NC[C@@H](C#N)[C@@H](O)C#N	
InChI=1S/C5H7N3O/c6-1-4(2-7)5(9)3-8/h4-5,9H,1,6H2	InChI=1S/C5H7N3O/c6-1-4(2-7)5(9)3-8/h4-5,9H,1,6H2/t4-,5-/m0/s1
