13
gdb 131900	4.48588	1.14422	0.91686	5.2044	67.08	-0.2755	-0.0995	0.176	1186.9745	0.088529	-489.825243	-489.817622	-489.816677	-489.858239	26.696	
C	 0.0113110798	 1.4818892503	 0.0153913191	-0.491048
C	-0.0043782378	-0.0080110759	-0.0075568089	 0.25253
C	-0.1158155539	-0.8648165167	-1.0620628287	-0.096229
O	-0.0807887309	-2.1443739798	-0.5907399762	-0.134973
C	 0.050645744	-1.9816033357	 0.7318247994	 0.505578
N	 0.1028716704	-0.7643438286	 1.1524738671	-0.318474
N	 0.1191311526	-3.1898569888	 1.536639472	 0.347687
O	 0.0523444933	-4.2516784763	 0.9335123576	-0.345965
O	 0.2370752071	-3.0345223241	 2.739838527	-0.331826
H	 0.9438454022	 1.8513353571	 0.45286107	 0.154618
H	-0.0845703952	 1.8897513593	-0.9935276948	 0.134119
H	-0.8109808431	 1.8671145695	 0.6260578521	 0.154624
H	-0.2196816784	-0.7508380304	-2.1276151356	 0.16936
58.7973	127.8191	163.0062	192.3982	311.7251	345.7738	425.5931	545.6019	638.9952	666.4625	682.8154	777.1339	795.3106	845.7664	978.8924	1011.9869	1025.8786	1067.8	1135.5246	1217.598	1298.3555	1336.9901	1395.6629	1421.3375	1474.8678	1487.672	1574.2794	1618.9084	1654.9083	3047.1138	3108.3666	3131.6369	3294.6131
CC1=COC(=N1)N(=O)=O	Cc1coc(n1)N(=O)=O	
InChI=1S/C4H4N2O3/c1-3-2-9-4(5-3)6(7)8/h2H,1H3	InChI=1S/C4H4N2O3/c1-3-2-9-4(5-3)6(7)8/h2H,1H3
