18
gdb 94050	2.99501	1.1076	0.90408	4.3374	72.52	-0.2726	0.0324	0.305	1296.7248	0.147451	-439.108595	-439.09977	-439.098826	-439.14313	31.707	
C	 0.2723184776	 1.4342525908	 0.378380156	-0.40379
C	 0.201122134	-0.0040027705	-0.0770557214	 0.226237
O	 1.3030871349	-0.3283494466	-0.8948136371	-0.245379
C	 1.4134388332	-1.7371382282	-0.8014106341	-0.138394
C	 1.0706641686	-2.0077928265	 0.6782309261	 0.111466
C	 2.328171954	-2.049760971	 1.5687527158	-0.354953
C	 2.0101431493	-2.1345520844	 2.9915038621	 0.270849
N	 1.7617252769	-2.21890833	 4.1164870505	-0.303144
O	 0.2661016581	-0.8939229461	 1.0379350237	-0.274346
H	 1.2118700587	 1.6109985805	 0.9071048598	 0.131368
H	 0.2113273245	 2.1024454776	-0.4844418812	 0.131253
H	-0.5616035564	 1.649362544	 1.0505764805	 0.138677
H	-0.7373220491	-0.2042306373	-0.62591907	 0.070603
H	 0.6933134681	-2.238152435	-1.4649132578	 0.106059
H	 2.4264058984	-2.0293678466	-1.0869656261	 0.121692
H	 0.4974172639	-2.9326123632	 0.8070089898	 0.103032
H	 2.9445342496	-2.9148018116	 1.2967768248	 0.148314
H	 2.9209038455	-1.1472206958	 1.3849698685	 0.160454
41.9083	88.0442	126.6915	193.7455	217.1601	310.3662	356.0725	376.9326	402.8598	502.1146	545.0232	698.9073	753.7696	822.7947	860.3366	891.5925	933.8065	950.585	1014.7124	1057.06	1067.9	1109.7373	1127.5364	1140.4302	1171.6366	1234.2104	1258.3776	1285.8744	1337.5974	1351.0601	1386.7242	1398.2127	1400.099	1438.3589	1458.3091	1484.6144	1485.3293	1515.0153	2366.7883	2935.7736	2999.2	3042.2602	3048.364	3055.9824	3092.1766	3109.1535	3136.7611	3141.5392
CC1OCC(CC#N)O1	C[C@H]1OC[C@@H](CC#N)O1	
InChI=1S/C6H9NO2/c1-5-8-4-6(9-5)2-3-7/h5-6H,2,4H2,1H3	InChI=1S/C6H9NO2/c1-5-8-4-6(9-5)2-3-7/h5-6H,2,4H2,1H3/t5-,6+/m0/s1
