20
gdb 9964	2.53353	1.62469	1.45574	1.2055	71.22	-0.241	0.0697	0.3107	1024.0558	0.174239	-386.124543	-386.114781	-386.113837	-386.158515	35.919	
C	-0.2322544808	 1.5612944984	-0.0769445986	-0.400731
C	 0.0901304434	 0.0683713745	 0.0689352424	-0.223799
C	 0.7269951967	-0.5170068993	-1.1761466456	 0.365811
O	 1.9468914263	 0.0807737116	-1.5509183347	-0.473186
C	 0.6983235296	-1.9972013128	-1.4746708302	-0.095867
C	 0.0414436116	-3.0159378454	-0.5694162874	-0.426492
C	-0.1282898604	-1.0249270873	-2.3105909367	 0.002725
O	-1.5168585331	-0.9611801531	-2.1412428944	-0.421019
H	 0.6717530331	 2.1507616647	-0.2662823552	 0.106969
H	-0.9342688035	 1.7295509433	-0.9000235586	 0.130372
H	-0.6857479578	 1.9540051557	 0.8378333445	 0.113863
H	 0.7742913571	-0.0837877412	 0.9127749863	 0.09855
H	-0.8307707576	-0.4743624392	 0.2926326113	 0.112095
H	 1.7531908909	 0.967625704	-1.8742973239	 0.279766
H	 1.6039108491	-2.3388219206	-1.968482582	 0.094888
H	-0.9538575431	-2.6949817706	-0.2528385234	 0.125628
H	-0.0703102423	-3.9747868781	-1.0880248254	 0.11266
H	 0.6398678603	-3.1973921627	 0.3295022999	 0.123892
H	 0.2256941694	-0.8104472217	-3.3191633221	 0.083585
H	-1.9036126089	-1.7517792504	-2.5327336361	 0.290288
68.9939	127.3384	170.2053	183.3306	227.3601	260.7879	276.7093	284.6469	312.0554	358.6565	409.1794	487.0726	534.1828	594.6841	698.0449	779.4813	812.6582	873.7584	941.915	990.5719	1025.7706	1041.1262	1058.2848	1089.6769	1128.1465	1161.3552	1162.5875	1230.2218	1260.0279	1303.8055	1314.5033	1323.0019	1372.1482	1381.0767	1402.0452	1416.1769	1467.1398	1471.5566	1500.1157	1501.4638	1507.9046	1509.1768	3031.2673	3032.9077	3035.8825	3088.4968	3090.1778	3096.5652	3109.093	3113.4779	3119.9259	3150.9741	3796.6137	3797.5928
CCC1(O)C(C)C1O	CC[C@@]1(O)[C@@H](C)[C@H]1O	
InChI=1S/C6H12O2/c1-3-6(8)4(2)5(6)7/h4-5,7-8H,3H2,1-2H3	InChI=1S/C6H12O2/c1-3-6(8)4(2)5(6)7/h4-5,7-8H,3H2,1-2H3/t4-,5+,6+/m0/s1
