16
gdb 43693	6.69794	0.6622	0.6407	3.0122	71.24	-0.2573	-0.0356	0.2216	1651.8361	0.121806	-437.886594	-437.877754	-437.87681	-437.921607	31.074	
O	 0.1468881732	 0.1455713593	-0.3265284499	-0.277638
C	 0.0320098126	 1.2901745776	-0.0048536351	 0.399807
C	-1.1701343339	 2.2124621781	 0.2514397793	-0.372107
C	-0.1968232226	 3.1994398497	 0.9397741044	 0.136718
C	 1.0316883178	 2.3829653596	 0.4172216872	-0.3778
O	-0.3478930671	 4.5140875206	 0.4552685937	-0.244403
C	 0.5413524325	 5.425344035	 1.0575439038	-0.196658
C	 0.306324813	 6.7616156101	 0.5039975096	 0.266815
N	 0.1453260141	 7.8253671327	 0.0858990096	-0.287538
H	-1.5591599509	 2.6370084869	-0.6802154642	 0.155467
H	-1.9981582041	 1.8043909089	 0.8339333105	 0.139448
H	-0.2721524223	 3.1830886645	 2.0355988232	 0.087898
H	 1.8135738301	 2.0875571368	 1.1202178431	 0.134102
H	 1.4880197972	 2.8597002687	-0.4576427613	 0.145228
H	 0.3983761981	 5.4650824043	 2.1495711151	 0.144851
H	 1.5923170123	 5.150471407	 0.875878681	 0.145812
38.2212	69.0896	101.1576	137.0262	251.5536	349.7299	379.2251	399.9631	426.9761	495.0436	548.0993	658.2444	673.0395	774.3896	904.4835	934.5542	956.3563	1004.3771	1024.865	1035.9642	1084.3549	1111.6658	1150.4684	1179.5835	1213.6847	1239.9722	1254.605	1277.3877	1365.1067	1414.8569	1422.73	1444.011	1497.2638	1903.53	2375.9873	2977.8293	3005.6503	3013.5635	3053.3267	3064.5391	3123.5175	3130.8657
O=C1CC(C1)OCC#N	O=C1CC(C1)OCC#N	
InChI=1S/C6H7NO2/c7-1-2-9-6-3-5(8)4-6/h6H,2-4H2	InChI=1S/C6H7NO2/c7-1-2-9-6-3-5(8)4-6/h6H,2-4H2
