21
gdb 76888	2.27614	1.83343	1.49028	1.8253	75.84	-0.2495	0.0756	0.3251	1014.6871	0.184723	-424.239876	-424.231905	-424.230961	-424.271978	31.927	
C	-0.2137997574	 1.5881394873	-0.0448376628	-0.422784
C	 0.0461274481	 0.0824342902	-0.006706728	 0.011762
C	 0.8330773568	-0.5094797679	-1.2045264333	 0.019423
C	 2.2218488738	 0.1382326939	-1.3353272841	-0.089343
O	 2.9001391065	-0.3942188736	-0.1840986124	-0.274465
C	 1.9514408445	-1.2901806319	 0.3982113135	 0.181099
O	 1.2177093805	-1.8007173635	-0.6967182548	-0.251098
C	 0.9016095371	-0.4828523984	 1.1956003341	-0.024136
C	 1.5034208386	 0.5247610391	 2.1731729997	-0.405909
H	 0.7035420764	 2.1810212164	-0.0002616487	 0.124713
H	-0.7449017833	 1.8650573531	-0.962456496	 0.113161
H	-0.8408912639	 1.8952654554	 0.7977860034	 0.121433
H	-0.924050377	-0.4238150308	 0.0005511907	 0.08241
H	 0.2754267993	-0.617693187	-2.1344415618	 0.084306
H	 2.734198231	-0.1853950192	-2.2488768838	 0.106372
H	 2.2132184901	 1.2313008692	-1.2986009623	 0.104175
H	 2.4795070248	-2.0851757184	 0.9255351171	 0.087028
H	 0.2901654355	-1.1964011091	 1.7579946105	 0.077723
H	 2.1939413856	 1.2066807373	 1.6723502145	 0.129704
H	 0.7262638198	 1.1145756392	 2.6684875077	 0.111588
H	 2.0676702829	 0.0046809588	 2.9550434269	 0.112837
102.9219	205.9806	236.759	262.7423	270.2202	298.9762	384.6213	491.692	514.2891	567.1152	629.835	726.5233	788.3519	814.0446	827.9542	891.2774	938.8812	945.0206	982.3129	995.7123	1019.1651	1043.373	1054.4324	1072.0485	1097.4841	1115.6611	1165.0407	1169.7117	1195.9239	1244.8411	1260.0491	1311.7643	1320.2793	1328.6155	1353.4077	1361.8615	1371.9877	1380.7685	1408.14	1420.7448	1487.7759	1493.1682	1505.2961	1511.9948	1530.0526	3032.8431	3035.5831	3037.8869	3040.554	3057.0407	3086.7384	3094.6283	3099.3128	3116.4536	3123.2319	3128.9323	3131.9042
CC1C2COC(O2)C1C	C[C@H]1[C@H]2CO[C@H](O2)[C@H]1C	
InChI=1S/C7H12O2/c1-4-5(2)7-8-3-6(4)9-7/h4-7H,3H2,1-2H3	InChI=1S/C7H12O2/c1-4-5(2)7-8-3-6(4)9-7/h4-7H,3H2,1-2H3/t4-,5+,6-,7-/m1/s1
