20
gdb 12964	2.21394	2.17804	1.77174	1.3218	75.34	-0.2425	0.0735	0.316	920.1213	0.176312	-348.980497	-348.971909	-348.970965	-349.01278	32.892	
C	-0.0464550183	 1.5650588109	-0.0276117737	-0.416132
C	 0.091879744	 0.0583347914	 0.071712158	-0.042529
C	 1.3353265941	-0.7377852075	-0.2208717576	-0.118538
C	 2.5857990707	-0.0058179946	 0.275054638	-0.280509
C	 1.9929166357	-0.0645350398	 1.7244215411	 0.059363
O	 1.7884772785	 1.1283044874	 2.4574974438	-0.431883
C	 0.7206021788	-0.7266282277	 1.1988034459	 0.334293
C	-0.0209984591	-1.7937144038	 1.9556882551	-0.502773
H	 0.8023985442	 2.0895217087	 0.4103891658	 0.133725
H	-0.1513078903	 1.8748201698	-1.0740967137	 0.1042
H	-0.9408379716	 1.8999171721	 0.5091183868	 0.11346
H	-0.7937721013	-0.4636401561	-0.2907634848	 0.077538
H	 1.3398806661	-1.5527677626	-0.9357509861	 0.078941
H	 3.508261985	-0.5827360992	 0.1744551609	 0.09502
H	 2.7518440618	 0.9959508842	-0.1325964376	 0.096653
H	 2.5600404059	-0.7882559998	 2.3274520272	 0.067238
H	 2.6405163448	 1.4253906663	 2.7926218178	 0.281575
H	-0.5837742666	-1.3649868609	 2.7936763744	 0.125876
H	-0.7368960567	-2.3130814181	 1.3101763164	 0.114756
H	 0.6636335343	-2.5450993708	 2.3672787924	 0.109724
138.986	178.9067	189.04	217.3132	227.9208	280.3571	298.3221	341.7879	414.7956	497.9429	577.823	635.4792	716.6249	740.8366	834.5303	878.4382	933.1595	951.0936	973.7686	1006.4788	1058.2621	1068.4439	1093.3024	1110.8959	1127.0315	1155.1679	1172.4369	1212.95	1247.3371	1258.5234	1269.704	1327.6141	1351.4095	1413.496	1414.8569	1425.7627	1465.9818	1486.2569	1491.3393	1498.0735	1503.3798	1509.5497	2990.4574	3018.21	3031.301	3051.4638	3075.2877	3085.1353	3093.2707	3103.3873	3106.7562	3155.1261	3173.4724	3812.8593
CC1C2CC(O)C12C	C[C@H]1[C@H]2C[C@@H](O)[C@@]12C	
InChI=1S/C7H12O/c1-4-5-3-6(8)7(4,5)2/h4-6,8H,3H2,1-2H3	InChI=1S/C7H12O/c1-4-5-3-6(8)7(4,5)2/h4-6,8H,3H2,1-2H3/t4-,5+,6+,7-/m0/s1
