21
gdb 105108	3.22058	1.1837	1.0011	1.1477	78.37	-0.2317	0.0765	0.3082	1267.4093	0.181195	-424.174429	-424.165021	-424.164077	-424.209673	34.394	
C	-0.3408936348	 1.4238696297	 0.1253597983	-0.249125
O	-0.0188741313	 0.0563371182	 0.0337131407	-0.294976
C	 0.7497894211	-0.5205882519	 1.0572132039	 0.412764
C	 2.0977307361	 0.0132119012	 1.4537307416	-0.325374
C	 0.9257305137	 0.0820187389	 2.4227598572	-0.342498
C	 0.5490891869	-2.0167642417	 0.9513770388	 0.098638
C	 1.2162277265	-2.7481285084	-0.2355842351	-0.281331
C	 1.9310194294	-3.5638673557	 0.858367693	-0.064658
O	 1.3373129385	-2.7611056705	 1.9057014202	-0.296892
H	 0.5491783249	 2.0670180243	 0.18386817	 0.109643
H	-0.8831347093	 1.6738479209	-0.7898328938	 0.128944
H	-0.987964901	 1.6407496653	 0.9862549888	 0.11356
H	 2.8825098462	-0.7041621567	 1.6637008288	 0.123414
H	 2.4338251187	 0.9436487743	 1.0091207547	 0.109541
H	 0.5038403204	 1.058454135	 2.6286552578	 0.111826
H	 0.9294503369	-0.5981135409	 3.2669867181	 0.134029
H	-0.5217397864	-2.2339090199	 1.0634586163	 0.078486
H	 0.5471010462	-3.3043036512	-0.8923429328	 0.110399
H	 1.8679395205	-2.1107557712	-0.8344953596	 0.117341
H	 1.6246858459	-4.614358651	 0.9366310904	 0.102263
H	 3.0257443107	-3.5113933386	 0.8762526327	 0.104008
40.247	70.1163	86.8511	174.2664	215.212	255.913	292.0608	347.6288	399.5495	470.2684	558.0459	666.2525	764.2271	776.9827	819.9012	874.8296	883.2926	928.682	952.8798	964.3941	1005.4243	1033.1599	1048.895	1069.3123	1077.5635	1111.4034	1126.1408	1168.4992	1177.4113	1191.682	1214.0249	1216.9639	1252.488	1262.8554	1284.1045	1344.6751	1358.601	1395.8424	1443.4465	1485.0053	1488.1235	1492.7371	1497.4589	1510.8155	1530.9907	2989.8316	3010.4095	3019.4191	3042.5429	3059.4285	3088.4738	3113.4342	3137.3707	3143.9577	3145.0224	3221.5191	3234.6404
COC1(CC1)C1CCO1	COC1(CC1)[C@H]1CCO1	
InChI=1S/C7H12O2/c1-8-7(3-4-7)6-2-5-9-6/h6H,2-5H2,1H3	InChI=1S/C7H12O2/c1-8-7(3-4-7)6-2-5-9-6/h6H,2-5H2,1H3/t6-/m1/s1
