18
gdb 22565	2.16498	1.53173	1.06324	1.1585	70.96	-0.2597	-0.0154	0.2443	1153.2052	0.145132	-476.158515	-476.148788	-476.147844	-476.192879	35.785	
C	-0.1334138105	 1.4138017087	-0.0585365532	-0.389946
C	-0.0015026156	-0.1017660566	-0.0025565378	-0.088836
C	 1.1691717788	-0.667409902	-0.9010376035	 0.071708
O	 1.6408694813	 0.0518251555	-2.0024956844	-0.418957
C	 1.9935072938	-0.7221419305	 0.3694635849	 0.29171
N	 3.2345291481	-0.5207777353	 0.5242898444	-0.238863
O	 3.5556506449	-0.4323304329	 1.9038313716	-0.403847
C	 0.7673169699	-0.6267664216	 1.2637226538	 0.061142
O	 0.8314030287	 0.2457454567	 2.3605947803	-0.434972
H	 0.8156736254	 1.9120322618	 0.1645186845	 0.111939
H	-0.4609813735	 1.7286638469	-1.0531859137	 0.123144
H	-0.8575957698	 1.7654603589	 0.6800805631	 0.131732
H	-0.9665685954	-0.5831435702	-0.1747087877	 0.07772
H	 0.9224374553	-1.6703845774	-1.2657830682	 0.110721
H	 2.1604282977	 0.7931050993	-1.6730753582	 0.29077
H	 4.49170784	-0.2070297068	 1.8872373721	 0.314115
H	 0.4052053187	-1.6223849238	 1.5614607299	 0.089668
H	 1.7349933621	 0.2038721195	 2.697190442	 0.301052
61.6712	131.5104	188.2979	197.9512	224.7664	240.9046	263.3604	296.2051	361.425	375.6928	405.1829	493.3082	521.1481	574.7198	646.8195	751.9608	807.2818	823.8677	874.5766	961.4154	1006.2449	1051.4843	1070.1417	1122.9086	1151.0059	1168.4039	1184.0932	1248.2902	1273.6989	1297.0229	1354.4791	1364.4286	1385.9497	1396.1271	1418.0574	1434.7637	1490.976	1496.5693	1770.4571	2983.8957	3043.5903	3052.8583	3081.8108	3111.1737	3127.1031	3780.5806	3812.8847	3824.4154
CC1C(O)C(=NO)C1O	C[C@H]1[C@@H](O)C(=NO)[C@H]1O	
InChI=1S/C5H9NO3/c1-2-4(7)3(6-9)5(2)8/h2,4-5,7-9H,1H3	InChI=1S/C5H9NO3/c1-2-4(7)3(6-9)5(2)8/h2,4-5,7-9H,1H3/t2-,4+,5-
