21
gdb 61180	2.45519	1.01637	0.76123	0.8262	90.81	-0.255	0.0471	0.3021	1520.9312	0.178384	-349.896702	-349.885856	-349.884911	-349.932531	40.153	
C	-0.0759657721	 1.570657006	 0.0171264422	-0.415295
C	-0.0047222629	 0.0391829068	 0.0023657627	 0.038497
C	 0.6919632474	-0.4644877046	-1.2873883919	-0.371622
C	-0.0243531297	-0.1166810174	-2.5079544491	 0.301107
C	-0.6331228445	 0.1715656992	-3.5041122173	-0.444013
C	 0.7187061193	-0.5270229549	 1.2588436345	-0.151055
C	 0.0944794186	-0.0425839536	 2.5850602361	-0.407447
C	 0.7518419574	-1.9906519929	 1.2406185131	 0.320555
C	 0.7532122954	-3.1934617067	 1.2470781189	-0.463334
H	 0.9235791054	 2.0099548897	 0.1256748038	 0.110639
H	-0.5007508294	 1.935026002	-0.9218153322	 0.134808
H	-0.6994082545	 1.9448576204	 0.8323964608	 0.118869
H	-1.0258102942	-0.3619845288	 0.0021029461	 0.09407
H	 1.7089873336	-0.0494568251	-1.3304232463	 0.122452
H	 0.8055746688	-1.5526624831	-1.2321306562	 0.146136
H	-1.160737246	 0.419151497	-4.3914807817	 0.19234
H	 1.7583250763	-0.1667970398	 1.2263443928	 0.102162
H	-0.967206209	-0.3046852987	 2.630387407	 0.12662
H	 0.5942174973	-0.5170818601	 3.4330981628	 0.127913
H	 0.1909514064	 1.0398524116	 2.6941140394	 0.12103
H	 0.7651642364	-4.2553262569	 1.2498277646	 0.195569
65.0787	67.3288	125.7296	160.0283	204.3194	216.1769	251.7926	296.0216	348.4727	354.1467	367.7606	402.8827	478.2684	554.983	575.6926	610.8827	627.8924	637.0532	638.3637	806.1968	858.0055	892.0874	922.62	973.6395	979.512	1055.4349	1090.0298	1112.8068	1144.4629	1155.3153	1236.7009	1279.4479	1325.7613	1328.4698	1360.9687	1369.6877	1406.015	1413.872	1471.4747	1492.8795	1493.9541	1499.1296	1514.5006	2229.2409	2235.5418	2988.1756	3009.7926	3027.9192	3039.2127	3046.7332	3069.7379	3104.2524	3119.2659	3123.1749	3132.1649	3503.5526	3506.9023
CC(CC#C)C(C)C#C	C[C@@H](CC#C)[C@@H](C)C#C	
InChI=1S/C9H12/c1-5-7-9(4)8(3)6-2/h1-2,8-9H,7H2,3-4H3	InChI=1S/C9H12/c1-5-7-9(4)8(3)6-2/h1-2,8-9H,7H2,3-4H3/t8-,9-/m0/s1
