15
gdb 19112	4.60428	2.19752	2.1538	0.4408	61.47	-0.2359	0.0631	0.299	684.4927	0.121145	-362.568277	-362.562735	-362.56179	-362.597633	23.04	
O	 0.1272131339	 1.4516164551	-0.1002830466	-0.438708
C	 0.0293248788	 0.0584292038	-0.0187772611	 0.151713
C	 0.2848707508	-0.6811390738	 1.3220862268	-0.124552
C	-0.8567550316	-0.2624862988	 2.2709325725	-0.064281
C	-2.0243151027	-0.2353833956	 1.3330154805	-0.064267
C	-1.3554876158	-0.6429734473	 0.0043217941	-0.124561
C	-0.7425111662	-1.777907743	 0.8888114512	 0.012871
N	-1.685081597	-1.4971193177	 2.0703288995	-0.169228
H	-0.425200153	 1.8215546694	 0.5982028342	 0.285315
H	 0.6591680618	-0.3524341784	-0.8146904275	 0.094584
H	 1.2773757261	-0.8696831265	 1.723887404	 0.078101
H	-0.815714972	 0.244898918	 3.226996157	 0.099633
H	-2.9521205056	 0.2944776939	 1.5107959413	 0.099635
H	-1.9665675535	-0.7942067672	-0.8821137399	 0.078098
H	-0.5216493438	-2.797133572	 0.5843627541	 0.085648
184.6337	299.4115	384.4733	560.8023	622.5768	751.5599	752.2444	787.2008	800.4815	815.2711	845.4676	848.1171	893.4079	918.9606	958.7823	977.813	993.0782	1036.3118	1056.3018	1076.9318	1111.1472	1141.7482	1160.9073	1178.8429	1205.4762	1225.8325	1235.988	1261.0582	1297.2544	1319.0172	1350.8296	1432.427	3069.0305	3145.5357	3148.5102	3159.8687	3182.9841	3194.0169	3792.3422
OC1C2C3C4C1C2N34	O[C@H]1[C@H]2[C@H]3[C@H]4[C@@H]1[C@@H]2N34	
InChI=1S/C6H7NO/c8-6-1-3-2(6)5-4(1)7(3)5/h1-6,8H	InChI=1S/C6H7NO/c8-6-1-3-2(6)5-4(1)7(3)5/h1-6,8H/t1-,2+,3-,4+,5-,6+,7?
