19
gdb 97148	3.09288	1.29864	1.18149	2.358	79.39	-0.2343	0.0168	0.251	1145.2652	0.159611	-419.188123	-419.179438	-419.178493	-419.221707	31.954	
C	 0.3064467693	 1.472726654	 0.1547389126	-0.330948
N	 0.4211809349	 0.0235677718	 0.1263422132	-0.331394
C	 0.4777399484	-0.571517702	-0.9819933919	 0.443545
O	 0.3910546363	 0.0398428785	-2.2160612774	-0.256642
C	 0.7877005016	-0.8653832953	-3.2588105166	-0.121338
C	 0.8313951901	-2.2497518322	-2.6367751482	-0.057182
C	 0.6455227576	-2.0412770846	-1.1658172093	-0.14248
N	-0.3529753375	-2.7488928238	-1.9705311927	-0.093301
C	-1.6774908789	-2.1894857822	-2.2207208621	-0.330395
H	 0.9047555516	 1.8589179752	 0.9858574369	 0.122071
H	 0.6197716263	 1.9625753967	-0.7746870866	 0.120438
H	-0.7351450964	 1.7551773667	 0.3527055908	 0.126518
H	 0.0659599691	-0.7696078597	-4.0769443273	 0.12201
H	 1.7780098473	-0.5787026439	-3.6324350288	 0.121248
H	 1.5075531906	-2.9870513524	-3.0594700189	 0.105559
H	 1.13388839	-2.602353034	-0.3781345551	 0.11402
H	-1.7053357174	-1.1059613097	-2.3952267538	 0.127302
H	-2.1023684886	-2.6952834129	-3.0932808201	 0.124988
H	-2.3114371544	-2.4146104905	-1.3586631747	 0.135981
74.9951	96.1999	182.6067	200.4233	231.1758	254.4158	272.3756	428.8193	458.6586	491.6165	675.3396	703.3288	754.7163	770.1469	840.4431	854.1403	942.3824	984.217	1018.3657	1037.6015	1070.177	1094.8361	1117.9926	1125.5313	1155.9357	1170.8389	1180.2893	1211.4379	1235.067	1293.4939	1316.8894	1371.7659	1403.6486	1437.9043	1459.2699	1490.5729	1496.264	1498.0122	1504.8923	1516.669	1796.8439	3012.6638	3013.9264	3032.6681	3071.6243	3076.0942	3084.5008	3092.7848	3113.035	3153.7305	3189.6381
CN=C1OCC2C1N2C	CN=C1OC[C@H]2[C@@H]1N2C	
InChI=1S/C6H10N2O/c1-7-6-5-4(3-9-6)8(5)2/h4-5H,3H2,1-2H3	InChI=1S/C6H10N2O/c1-7-6-5-4(3-9-6)8(5)2/h4-5H,3H2,1-2H3/t4-,5-,8?/m0/s1
