23
gdb 112841	2.67327	1.27433	0.99379	1.3086	85.69	-0.2462	0.0883	0.3345	1313.6621	0.206153	-388.300766	-388.291615	-388.290671	-388.334461	35.493	
C	-0.1388198937	 1.5312773565	 0.0849281378	-0.380027
C	-0.0233048396	 0.0062704354	 0.0074382064	-0.187226
C	 0.7416574183	-0.5962077021	 1.1809253553	 0.131499
O	 0.053535225	-0.2832743607	 2.3951006472	-0.285026
C	 0.4373647984	-1.2254901385	 3.3994708475	 0.131496
C	-0.6402418775	-1.258705373	 4.471860582	-0.400602
C	 0.6841118303	-2.5214838997	 2.6359374161	-0.060793
C	-0.3494614439	-2.8896528207	 1.6015376344	-0.296535
C	 0.8798066882	-2.1134357448	 1.1984777681	-0.066974
H	 0.8505081084	 2.0028609222	 0.0904741871	 0.108964
H	-0.6924991494	 1.9291095248	-0.7709876652	 0.10666
H	-0.6566468466	 1.8316867845	 0.999324711	 0.13462
H	-1.0208203037	-0.4463801219	-0.0297545244	 0.099625
H	 0.4912656544	-0.2858023044	-0.9167569043	 0.091685
H	 1.7560854989	-0.1568315373	 1.20863417	 0.058199
H	 1.3923256231	-0.9092649259	 3.8558248144	 0.062406
H	-1.5884351465	-1.6132730722	 4.0581366593	 0.120761
H	-0.344576877	-1.9266927668	 5.2869216281	 0.112015
H	-0.7956650138	-0.2587321775	 4.8867433556	 0.123164
H	 1.2840733305	-3.2941778921	 3.1025294217	 0.083674
H	-0.4009089611	-3.9295600478	 1.299411443	 0.107829
H	-1.3051142846	-2.3759370772	 1.6176782732	 0.12088
H	 1.6287889319	-2.5749073306	 0.5654548559	 0.083706
91.2851	124.2808	155.6712	205.9984	223.2867	242.0251	302.5267	365.6044	417.2082	486.7878	528.6278	620.4141	700.393	773.5804	776.3743	837.0358	841.1987	905.6142	913.2413	950.5653	982.1182	1001.7578	1019.5275	1053.2527	1073.3918	1082.5971	1098.3887	1110.1608	1129.4648	1138.2463	1148.5534	1186.1353	1196.7117	1289.9143	1321.2645	1331.9155	1337.5799	1352.866	1381.9133	1398.9387	1405.3065	1408.8505	1422.4128	1475.1414	1480.7738	1486.933	1496.9487	1497.5665	1508.9238	2927.1488	2940.8508	3028.285	3035.1072	3042.4141	3067.6613	3099.6762	3114.3568	3121.3033	3123.5017	3134.4584	3173.7666	3182.4248	3220.612
CCC1OC(C)C2CC12	CC[C@H]1O[C@@H](C)[C@H]2C[C@@H]12	
InChI=1S/C8H14O/c1-3-8-7-4-6(7)5(2)9-8/h5-8H,3-4H2,1-2H3	InChI=1S/C8H14O/c1-3-8-7-4-6(7)5(2)9-8/h5-8H,3-4H2,1-2H3/t5-,6+,7+,8+/m0/s1
