18
gdb 75320	2.44206	1.63691	1.12209	2.4636	79.19	-0.2385	-0.0348	0.2037	1106.3623	0.147628	-401.951428	-401.943193	-401.942249	-401.984038	31.276	
C	-0.0322621993	 1.5512084306	-0.1414335644	-0.506522
C	-0.036855089	 0.0553007638	-0.0756427518	 0.265631
C	-0.0200629244	-0.8054670136	-1.0991576093	-0.169749
C	-0.0067630472	-2.2554185428	-0.6667096439	-0.268741
C	 0.065126779	-2.1697864158	 0.8535928523	-0.065851
N	 1.255007772	-1.5195114124	 1.3781746316	-0.360545
C	 0.0197350627	-0.6992023866	 1.2209943473	 0.154231
C	-0.6842348174	-0.3028264711	 2.4588309756	 0.064964
O	-0.4536268046	-0.7921548024	 3.5432225998	-0.283823
H	 0.8601061496	 1.9639864051	 0.3449919638	 0.138976
H	-0.0487446362	 1.9001243962	-1.1772301688	 0.129504
H	-0.8996546059	 1.986003483	 0.3704713684	 0.127717
H	 0.0208452992	-0.5143627135	-2.1434485353	 0.095358
H	-0.9075272143	-2.7910551315	-0.9925636318	 0.111881
H	 0.8550780463	-2.7993105577	-1.0721687963	 0.127504
H	-0.4475463965	-2.8969603387	 1.4749991213	 0.110239
H	 1.3190489077	-1.7397663617	 2.3748388084	 0.247786
H	-1.4649537519	 0.4774175692	 2.3378657529	 0.081439
122.7267	155.0847	192.2018	204.0411	259.5511	290.2068	317.246	439.383	501.5069	579.5779	602.2991	727.9484	746.313	810.9831	833.0394	871.4248	923.2256	968.6969	992.691	1015.3857	1033.3794	1065.1508	1074.1336	1085.7294	1164.4403	1185.3117	1208.9103	1263.2626	1280.5887	1329.6229	1362.227	1412.1132	1414.7677	1438.8046	1467.661	1481.5589	1489.6559	1705.5263	1786.3565	2908.7005	3021.6311	3025.2133	3060.2549	3069.1027	3113.9954	3168.37	3190.115	3441.1096
CC1=CCC2NC12C=O	CC1=CC[C@H]2N[C@@]12C=O	
InChI=1S/C7H9NO/c1-5-2-3-6-7(5,4-9)8-6/h2,4,6,8H,3H2,1H3	InChI=1S/C7H9NO/c1-5-2-3-6-7(5,4-9)8-6/h2,4,6,8H,3H2,1H3/t6-,7+/m1/s1
