15
gdb 34246	3.39366	1.62364	1.40316	5.46	69.4	-0.2588	-0.0053	0.2535	919.4103	0.115173	-416.758115	-416.751766	-416.750822	-416.788827	25.672	
N	-0.0434739361	-1.1255671324	 0.0996351167	-0.334733
C	-0.0642494366	 0.0284726845	 0.0442613816	 0.197498
C	-0.0739763519	 1.4656714266	-0.0304109039	 0.383393
O	-1.0146394981	 2.1655248046	 0.7731912727	-0.319833
C	-0.673035829	 3.3253808076	-0.0498770977	 0.03219
C	 0.7479529123	 3.6315058194	 0.4518131253	-0.222584
C	 1.315127308	 2.2979656502	-0.0816682606	-0.100659
N	 1.124049327	 2.3703168564	-1.5550689488	-0.29988
C	-0.308012303	 2.350095996	-1.2738366833	-0.102455
H	-1.4478066299	 4.0870269371	-0.0726763414	 0.099597
H	 1.232823313	 4.491603818	-0.0186228041	 0.105411
H	 0.7602707996	 3.7401796549	 1.5376360119	 0.127529
H	 2.2561876983	 1.9030787604	 0.2936323486	 0.102069
H	 1.4785438055	 3.2247010895	-1.9826398679	 0.221328
H	-1.0331116691	 2.1597780871	-2.0620007491	 0.111129
151.5523	157.148	404.6116	441.7685	509.7652	534.4113	541.3294	565.5635	720.8946	746.2931	796.7053	828.158	889.8571	915.9153	939.3687	949.2276	987.8325	996.4552	1002.6788	1036.2861	1084.4155	1096.7265	1131.645	1167.078	1219.9862	1230.9328	1255.406	1279.0944	1312.454	1336.2214	1346.7753	1472.5333	2363.0342	3067.7572	3132.7864	3151.3333	3155.7405	3166.9151	3468.3767
N#CC12OC3CC1NC23	N#C[C@@]12O[C@H]3C[C@@H]1N[C@@H]23	
InChI=1S/C6H6N2O/c7-2-6-4-1-3(9-6)5(6)8-4/h3-5,8H,1H2	InChI=1S/C6H6N2O/c7-2-6-4-1-3(9-6)5(6)8-4/h3-5,8H,1H2/t3-,4-,5+,6+/m0/s1
