17
gdb 24095	6.49766	0.7055	0.667	5.998	79.93	-0.217	0.0324	0.2495	1611.1128	0.137936	-380.927111	-380.918692	-380.917748	-380.961381	30.666	
N	-0.0101707484	-1.2038785781	 0.0218700472	-0.308756
C	-0.0209359088	-0.0490072566	 0.0686534045	 0.252182
C	-0.0052558275	 1.4112310557	 0.1202186872	-0.322964
C	 1.4103857146	 2.0040023876	-0.1049736495	-0.32421
C	 1.4087526983	 3.5020635696	-0.0389993072	 0.278182
C	 1.5035166256	 4.3666011162	-1.1083236396	-0.183173
N	 1.4381614864	 5.6489374471	-0.6274114865	-0.229312
C	 1.3032317094	 5.626439015	 0.7366855144	-0.069235
C	 1.2801890414	 4.3105575673	 1.1318501423	-0.244788
H	-0.693796258	 1.7998479759	-0.6377454069	 0.151869
H	-0.3952003223	 1.7335726813	 1.091589325	 0.153863
H	 2.0853948298	 1.5831218638	 0.648228632	 0.125524
H	 1.7801708471	 1.6676654337	-1.0785046819	 0.120259
H	 1.6184949669	 4.1701676848	-2.162697663	 0.11992
H	 1.4983935022	 6.4797138119	-1.1891102469	 0.264668
H	 1.2420844766	 6.5403451096	 1.3051608259	 0.122401
H	 1.1918259569	 3.9588912654	 2.1491634629	 0.09357
52.4824	62.7703	97.4726	191.0788	310.9442	359.0167	405.9155	483.3667	506.1068	641.1863	658.9901	691.9964	726.2333	763.2886	777.9167	831.8392	905.6086	949.5492	972.0606	1010.4079	1014.4181	1085.7466	1096.5532	1162.8153	1176.5257	1273.9464	1281.0019	1304.9627	1317.2881	1371.9424	1417.9425	1465.3215	1466.1498	1490.3467	1524.8098	1609.8151	2359.1848	3041.8084	3053.8844	3078.6548	3100.34	3239.2285	3257.8499	3270.8759	3687.3014
N#CCCC1=CNC=C1	N#CCCc1c[nH]cc1	
InChI=1S/C7H8N2/c8-4-1-2-7-3-5-9-6-7/h3,5-6,9H,1-2H2	InChI=1S/C7H8N2/c8-4-1-2-7-3-5-9-6-7/h3,5-6,9H,1-2H2
