24
gdb 9844	3.04187	1.28764	1.21723	0.1083	84.9	-0.2614	0.0829	0.3443	1199.1636	0.222096	-314.272063	-314.262151	-314.261207	-314.306211	37.526	
C	-0.1841944624	 1.5962505787	-0.1780950845	-0.390386
C	-0.0950638947	 0.066530815	-0.1472050424	-0.174777
C	 0.8745521099	-0.5359914808	-1.1838797862	-0.019116
C	 2.3379366177	-0.1549538971	-0.906815454	-0.404769
C	 0.6978519172	-2.0522615678	-1.3153873194	 0.405482
C	 0.995427924	-2.8901345402	-0.0832076844	-0.472676
C	-0.4104481816	-2.5358253193	-2.220945193	-0.313147
C	 1.0321032732	-2.6626608611	-2.6560514811	-0.316043
H	 0.7695549955	 2.0682753961	 0.0773054508	 0.116931
H	-0.4757107388	 1.9552004118	-1.1719451167	 0.111105
H	-0.9298681897	 1.9592892952	 0.5363694207	 0.110088
H	 0.1998228354	-0.2567379136	 0.8594911106	 0.093574
H	-1.0935081027	-0.3529150445	-0.3225406727	 0.094708
H	 0.6052654535	-0.1088631009	-2.16132292	 0.060734
H	 2.4897160367	 0.9263209835	-0.9707895788	 0.111842
H	 2.6524392616	-0.4706153485	 0.0941664419	 0.112804
H	 3.0078513225	-0.6273909945	-1.6322197103	 0.113238
H	 0.3395751615	-2.6288639878	 0.7544442499	 0.116072
H	 0.846277525	-3.9535404186	-0.2951941686	 0.110014
H	 2.0309330772	-2.7656957077	 0.2519685636	 0.115433
H	-0.9433903077	-3.4405358278	-1.9466875852	 0.10455
H	-1.0273309314	-1.7957381214	-2.7209824587	 0.104847
H	 1.3826723316	-2.006227677	-3.4461861093	 0.105018
H	 1.4754203267	-3.6529578719	-2.6765327021	 0.104473
81.5565	84.5245	182.1155	208.8835	221.8886	239.234	271.6983	297.9022	313.2459	345.767	429.9585	473.8178	493.8702	706.4763	779.084	789.1632	840.4761	871.2158	914.6874	935.9362	952.3442	972.4866	994.0054	1024.7671	1038.6312	1055.5322	1078.7845	1106.5303	1117.8203	1154.7148	1184.6123	1188.2198	1271.6494	1298.9902	1319.8613	1348.7341	1370.7569	1394.1626	1408.0274	1414.9916	1421.8418	1470.3027	1483.6499	1492.7583	1496.4307	1501.2478	1504.5565	1507.3125	1509.8132	1511.2598	2989.078	3019.8306	3028.2828	3030.6185	3036.004	3053.6268	3089.9216	3095.758	3097.2515	3101.2312	3102.2641	3110.1685	3121.6314	3126.392	3198.0898	3212.5908
CCC(C)C1(C)CC1	CC[C@@H](C)C1(C)CC1	
InChI=1S/C8H16/c1-4-7(2)8(3)5-6-8/h7H,4-6H2,1-3H3	InChI=1S/C8H16/c1-4-7(2)8(3)5-6-8/h7H,4-6H2,1-3H3/t7-/m1/s1
