20
gdb 64586	3.52107	1.15907	1.13354	3.5391	79.68	-0.236	-0.02	0.216	1174.048	0.171464	-403.147939	-403.139443	-403.138499	-403.180901	32.472	
C	-0.0247639234	 1.637154221	-0.0999231072	-0.511711
C	 0.0091951693	 0.1222550204	-0.0713054319	 0.217082
C	-1.145762386	-0.521082279	 0.6406427962	 0.139277
O	-2.1439986673	 0.0510939154	 0.9998086813	-0.271798
C	 0.5938879037	-0.7281025056	-1.1736550463	-0.067629
C	 1.4771544947	-0.0600009666	-2.2173914656	-0.236316
C	 2.5850847267	 0.652237136	-1.4021660634	-0.232241
C	 2.5201059796	-0.0077521707	-0.0003907715	-0.158602
N	 1.2329290335	-0.7126889036	 0.1370768421	-0.142076
H	 0.1745557792	 2.0526332447	-1.0897114206	 0.124608
H	-1.0254526291	 1.9500301228	 0.2076006922	 0.156021
H	 0.6896415796	 2.0736830717	 0.605388944	 0.127926
H	-0.9986386623	-1.6095312532	 0.8099472352	 0.086094
H	 0.0839095343	-1.6463862019	-1.4575244086	 0.091353
H	 1.8973581767	-0.8360942642	-2.8651343904	 0.113504
H	 0.9233696091	 0.6280709803	-2.8636752246	 0.115028
H	 3.5695402135	 0.5290613805	-1.8600564586	 0.106473
H	 2.3958423847	 1.7250795255	-1.3380081955	 0.113193
H	 3.2982786668	-0.7697137374	 0.1110797622	 0.115813
H	 2.651851987	 0.709015004	 0.8156572311	 0.114
96.2557	140.1311	194.1945	214.1909	219.6032	296.5495	324.6241	390.9113	457.7312	571.9042	672.0464	694.4598	752.0167	766.3869	823.5504	879.7919	897.5184	902.9451	951.5911	982.1527	1019.3804	1050.0803	1069.8809	1081.5059	1111.7849	1145.8867	1190.6948	1217.7819	1252.1665	1262.6423	1310.2174	1316.0313	1327.7715	1342.0734	1389.8403	1408.6174	1422.4745	1482.9722	1490.2601	1499.6323	1513.0596	1518.0024	1820.4508	2906.905	3046.22	3049.3153	3050.3287	3076.9901	3083.8435	3087.5645	3111.8395	3121.9947	3125.3694	3131.7426
CC1(C=O)C2CCCN12	C[C@@]1(C=O)[C@H]2CCCN12	
InChI=1S/C7H11NO/c1-7(5-9)6-3-2-4-8(6)7/h5-6H,2-4H2,1H3	InChI=1S/C7H11NO/c1-7(5-9)6-3-2-4-8(6)7/h5-6H,2-4H2,1H3/t6-,7-,8?/m1/s1
