23
gdb 88568	3.22297	1.06056	0.88951	0.1599	92.28	-0.2224	0.0297	0.2521	1415.222	0.206891	-351.163503	-351.154384	-351.153439	-351.197933	34.91	
C	-0.8499283835	 1.1953419334	 0.2542929327	-0.407052
C	-0.0859935322	-0.0957653189	 0.0582648147	 0.010317
C	 1.3290191831	-0.0672033041	-0.4673820045	-0.29269
C	 1.0563115059	-0.5345012527	 0.9504842317	-0.129439
C	 1.5645283713	 0.2238125288	 2.1225034256	 0.322411
C	 0.8646812723	 0.8365986115	 3.0822635029	-0.163889
C	 1.7386186021	 1.4122189047	 4.1697216492	-0.245381
C	 3.1601450896	 1.3289191738	 3.5559592544	-0.207018
C	 3.0533215367	 0.2782506516	 2.4249196952	-0.288791
H	-0.2002729499	 1.9906877754	 0.6273188916	 0.120936
H	-1.2835859824	 1.5305998373	-0.6947416228	 0.110934
H	-1.6721052445	 1.0745255014	 0.9687416682	 0.112905
H	-0.699867733	-0.9133626781	-0.3124321788	 0.079012
H	 1.6399758076	-0.7953103053	-1.2087707319	 0.105294
H	 1.7853820177	 0.9113534126	-0.5844494237	 0.108268
H	 1.1387058721	-1.613991607	 1.077406942	 0.088453
H	-0.2177347165	 0.8854595777	 3.1203725469	 0.084255
H	 1.4615188674	 2.4354809162	 4.4491639067	 0.097742
H	 1.6546590198	 0.8140418915	 5.089163427	 0.101106
H	 3.4251343867	 2.2997822806	 3.1248777419	 0.101639
H	 3.9281960469	 1.0849065044	 4.2943409732	 0.093689
H	 3.4086307172	-0.711556595	 2.7485070221	 0.098082
H	 3.6512323457	 0.5401121999	 1.5446565556	 0.099215
39.9667	113.5934	140.4745	167.6596	237.4708	258.3352	328.7698	363.1898	465.739	518.1775	603.4946	675.2501	775.8261	813.2268	826.3671	857.8084	866.7291	898.2477	904.9007	921.1492	934.9686	967.3195	1010.7289	1039.0745	1058.1252	1061.9021	1084.3381	1119.363	1146.6388	1148.7788	1161.4927	1198.5415	1225.2438	1227.842	1251.1646	1279.1149	1316.6755	1327.4426	1350.4897	1386.0833	1412.4973	1423.4711	1483.9057	1488.046	1489.4142	1494.7811	1505.2174	1506.9688	1710.2261	2996.7614	2997.4302	3028.9172	3040.0048	3050.0354	3061.0867	3083.5457	3095.6015	3098.7619	3114.3266	3123.3905	3135.1917	3194.8129	3208.4954
CC1CC1C1=CCCC1	C[C@H]1C[C@H]1C1=CCCC1	
InChI=1S/C9H14/c1-7-6-9(7)8-4-2-3-5-8/h4,7,9H,2-3,5-6H2,1H3	InChI=1S/C9H14/c1-7-6-9(7)8-4-2-3-5-8/h4,7,9H,2-3,5-6H2,1H3/t7-,9+/m0/s1
