23
gdb 76422	2.71323	1.02767	0.93493	0.725	91.77	-0.2538	0.0525	0.3063	1414.5768	0.202378	-351.120123	-351.109117	-351.108172	-351.155801	40.75	
C	-0.3073520315	 1.0318376003	-1.7081958436	-0.41913
C	-0.095995236	-0.1296402743	-0.7598733573	-0.037112
C	 1.2773876079	-0.6382215841	-0.3538263942	-0.075446
C	 2.5718898037	-0.0286559492	-0.8508451149	-0.415009
C	 0.3775583666	 0.0282192365	 0.6724156308	 0.323431
C	 0.7208274667	 1.3909077721	 1.2440697248	-0.464194
C	-0.2631064666	-0.9088314881	 1.702695724	-0.425982
C	-1.5596717871	-0.4442577557	 2.1901216253	 0.326163
C	-2.6266900657	-0.0486846185	 2.5785125228	-0.463323
H	 0.4519937151	 1.8102841809	-1.6063645653	 0.114418
H	-0.2840544353	 0.689439578	-2.7489033108	 0.115723
H	-1.2825745749	 1.5004241894	-1.5365052236	 0.122154
H	-0.841187658	-0.9113782912	-0.8945315589	 0.079526
H	 1.3438219673	-1.7203641159	-0.254088737	 0.074145
H	 2.5115103806	 1.05376464	-0.9827262336	 0.11595
H	 3.3919846674	-0.226807323	-0.1514135284	 0.116408
H	 2.8544312124	-0.4589403328	-1.8182532923	 0.117426
H	 1.1360003215	 2.0721477512	 0.4999251492	 0.113495
H	-0.1724318028	 1.8628493296	 1.6662539989	 0.131124
H	 1.4576618249	 1.2965901387	 2.0510738125	 0.111414
H	-0.3849388824	-1.9058327742	 1.2614522149	 0.12297
H	 0.4189429269	-1.0358043867	 2.5554394421	 0.12311
H	-3.5703240507	 0.2914170771	 2.9262225047	 0.192741
61.2041	108.3689	136.382	161.3748	168.0799	214.6341	221.9111	262.1799	277.5929	338.7981	361.7591	395.6714	459.2315	525.5605	558.1177	613.4138	635.0087	702.3708	778.6395	801.7826	922.8722	926.9984	939.2495	986.3872	1023.0872	1034.7299	1046.6631	1101.4998	1113.736	1147.3241	1155.6152	1184.5798	1227.2305	1254.4215	1325.5161	1358.2156	1379.6171	1412.1517	1412.6679	1426.1113	1455.6212	1468.6824	1481.0389	1493.2231	1494.4877	1500.8109	1502.6153	1523.9201	2233.9143	3006.9987	3029.4875	3031.11	3035.2863	3047.0754	3084.2948	3088.0107	3089.59	3102.7157	3112.5293	3120.9178	3126.8957	3137.233	3506.5242
CC1C(C)C1(C)CC#C	C[C@H]1[C@@H](C)[C@]1(C)CC#C	
InChI=1S/C9H14/c1-5-6-9(4)7(2)8(9)3/h1,7-8H,6H2,2-4H3	InChI=1S/C9H14/c1-5-6-9(4)7(2)8(9)3/h1,7-8H,6H2,2-4H3/t7-,8+,9+
