12
gdb 130518	4.08099	1.73852	1.21915	1.249	71.14	-0.2362	-0.1298	0.1064	901.1155	0.07953	-431.627283	-431.621361	-431.620416	-431.657545	23.156	
O	-0.0816219338	 1.3368881925	 0.0101381905	-0.252708
N	 1.093822601	 2.068494188	 0.002544837	-0.057265
C	 2.2113359052	 1.4084232666	-0.0117325125	 0.073791
N	 2.4316381404	 0.0384528826	-0.0209780043	-0.327831
C	 1.338672557	-0.6447690833	-0.0139432552	 0.296595
C	 1.0432292036	-2.062376232	-0.0183013642	-0.110649
N	-0.2491528054	-2.2433005552	-0.0068896899	-0.194694
C	-0.9159683683	-0.9921071286	 0.0060527608	-0.18454
C	 0.0025565201	-0.0048489667	 0.0023472226	 0.328158
H	 3.0900844514	 2.0435885633	-0.0168874163	 0.15845
H	 1.7559159425	-2.87511876	-0.0293396236	 0.137797
H	-1.9927283137	-0.9500069772	 0.0166504654	 0.132897
172.0713	249.4804	348.8095	441.0648	533.1358	556.8712	603.4656	643.5923	725.5118	756.0653	816.4163	820.1877	853.4445	926.459	934.6391	945.2463	1029.5006	1106.0249	1200.5887	1252.7534	1282.1455	1331.5724	1353.3178	1446.7623	1538.5622	1633.4198	1694.7135	3210.245	3235.2368	3268.1802
O1N=CN=C2C=NC=C12	o1ncnc2cncc12	
InChI=1S/C5H3N3O/c1-4-5(2-6-1)9-8-3-7-4/h1-3H	InChI=1S/C5H3N3O/c1-4-5(2-6-1)9-8-3-7-4/h1-3H
