14
gdb 17606	4.42534	1.42427	1.16644	2.5265	60.33	-0.2494	-0.0741	0.1753	988.0053	0.107518	-415.879475	-415.871643	-415.870699	-415.912205	27.864	
N	-0.1087998599	 1.3469682792	-0.0972738873	-0.520535
C	 0.1036141193	 0.0159093619	-0.1689821911	 0.334203
O	 1.1311969243	-0.5309421929	-0.5219193399	-0.346514
C	-1.1360943634	-0.7943630948	 0.2660527769	 0.293147
O	-2.1605547808	-0.2296744316	 0.6009095085	-0.34576
C	-0.9919426668	-2.2680189106	 0.245935686	-0.099634
C	-1.4566404678	-2.9885918675	 1.4831236591	-0.215156
N	-2.2319643039	-3.0634474503	 0.2585111609	-0.304252
H	 0.6196916418	 1.9881948442	-0.3610902803	 0.271512
H	-1.0115423944	 1.6802186136	 0.2003086925	 0.280853
H	-0.1581952899	-2.6629382118	-0.3191976783	 0.134681
H	-0.9330609767	-3.89629868	 1.7675955213	 0.136396
H	-1.8255642553	-2.3769209016	 2.3018399698	 0.132925
H	-3.0096237165	-2.4053072977	 0.324296852	 0.248133
68.0943	83.9839	189.6729	245.9764	311.4991	334.2917	367.4813	490.7385	518.0367	619.8954	663.5267	779.5519	822.3966	848.8706	884.2715	974.8124	1006.5105	1079.0961	1103.6354	1123.5481	1136.6287	1178.6609	1284.5149	1314.211	1355.42	1415.2147	1496.2697	1589.7114	1768.8531	1804.2751	3114.3756	3206.5396	3216.5002	3462.618	3597.1303	3738.3285
NC(=O)C(=O)C1CN1	NC(=O)C(=O)[C@H]1CN1	
InChI=1S/C4H6N2O2/c5-4(8)3(7)2-1-6-2/h2,6H,1H2,(H2,5,8)	InChI=1S/C4H6N2O2/c5-4(8)3(7)2-1-6-2/h2,6H,1H2,(H2,5,8)/t2-/m1/s1
