17
gdb 125869	3.77779	1.14262	1.04199	4.2886	76.83	-0.2519	-0.0335	0.2184	1182.0983	0.135962	-417.981913	-417.973924	-417.97298	-418.01492	29.845	
C	-0.0905446258	 1.559194359	-0.1770944275	-0.421927
C	 0.019198564	 0.0592440529	-0.0248026445	 0.007167
C	 1.3240839863	-0.6599965008	-0.177499594	-0.298857
C	 0.669664202	-0.6046739023	 1.1930514791	-0.137459
C	 1.2717746976	 0.1535162802	 2.2899646345	 0.439591
C	 1.1544972127	 0.0346249906	 3.647119226	-0.225544
N	 1.950290198	 0.9984866217	 4.2096031386	-0.104659
N	 2.5298846337	 1.6795672109	 3.3328404773	-0.01947
O	 2.1144339586	 1.1553164129	 2.0401772819	-0.234764
H	 0.8024045847	 2.0701957933	 0.1882780739	 0.148019
H	-0.221838567	 1.8207077471	-1.2324528928	 0.12344
H	-0.9527433606	 1.9500182646	 0.3733968843	 0.123868
H	-0.8535816136	-0.4864385656	-0.3744554995	 0.098625
H	 1.3504815732	-1.6209647852	-0.6786553827	 0.122742
H	 2.2152540128	-0.0553053404	-0.3051508989	 0.1398
H	 0.1853141866	-1.5108174599	 1.5399900376	 0.103644
H	 0.5763367168	-0.6519404289	 4.2408063269	 0.135782
62.0499	127.3916	170.8852	214.1373	275.309	347.2312	424.2187	472.3298	575.2389	676.7555	693.9475	742.9279	766.1579	807.0852	855.6558	882.2077	939.2552	984.1817	993.8012	1047.7855	1079.7048	1084.0099	1109.3925	1128.0728	1147.1675	1203.4402	1220.16	1270.5884	1349.6002	1387.2335	1409.9165	1427.6109	1469.3362	1489.477	1500.301	1503.4928	1600.0112	3039.3116	3096.8889	3128.4395	3139.5943	3145.9835	3170.91	3229.8442	3291.4596
CC1CC1C1=CN=NO1	C[C@H]1C[C@H]1c1cnno1	
InChI=1S/C6H8N2O/c1-4-2-5(4)6-3-7-8-9-6/h3-5H,2H2,1H3	InChI=1S/C6H8N2O/c1-4-2-5(4)6-3-7-8-9-6/h3-5H,2H2,1H3/t4-,5+/m0/s1
