19
gdb 120800	2.85017	0.93229	0.78321	6.0057	77.8	-0.2458	0.0321	0.2779	1484.6588	0.157962	-419.167832	-419.15811	-419.157166	-419.203446	33.955	
C	 1.1657596547	 1.2714025557	-2.7132729429	-0.23411
O	 1.3072378685	-0.1043018283	-2.4294129906	-0.2252
C	 0.493392278	-0.5313463741	-1.3584796362	-0.099412
C	 0.637484629	-2.0183324751	-1.1044155971	-0.019375
C	 1.2438119061	-2.932464687	-2.1107095963	-0.242046
N	 1.9054753929	-2.6977761819	-0.8253106625	-0.094503
C	 3.1413601126	-1.9166641673	-0.831433461	-0.300305
C	 4.2949982948	-2.7948216846	-1.0539137856	 0.282271
N	 5.2134826907	-3.4687535361	-1.24425759	-0.305821
H	 0.1303470337	 1.5187735063	-2.9915508161	 0.114442
H	 1.4517716278	 1.8961752741	-1.8535545487	 0.112107
H	 1.8245417546	 1.4989522597	-3.5538069993	 0.137195
H	 0.7375786626	 0.0361019102	-0.4427751161	 0.097957
H	-0.567687243	-0.3274454936	-1.581519859	 0.103993
H	-0.1752322081	-2.3952252927	-0.4849505227	 0.103954
H	 0.8534721149	-3.9347507865	-2.2599527758	 0.123463
H	 1.6676843434	-2.4595080022	-2.9924042825	 0.137278
H	 3.159144502	-1.1183177439	-1.585769282	 0.15961
H	 3.2580621847	-1.4438273429	 0.1512030745	 0.148501
54.5519	77.409	108.0291	125.2795	192.2633	227.7688	234.415	331.24	381.0925	391.8523	439.0178	529.5291	625.1721	759.7904	830.8905	921.1836	937.1946	959.5409	1004.8022	1024.7143	1068.2171	1079.9804	1120.5647	1145.1561	1165.7726	1168.5564	1187.162	1229.1241	1274.3771	1279.697	1329.8333	1373.8832	1410.9607	1421.7425	1478.8426	1485.2474	1485.9448	1500.1345	1509.314	1524.671	2366.9183	2946.9855	2974.7572	2982.0883	3018.8321	3030.4316	3061.8194	3113.4494	3117.5038	3125.665	3203.8207
COCC1CN1CC#N	COC[C@H]1CN1CC#N	
InChI=1S/C6H10N2O/c1-9-5-6-4-8(6)3-2-7/h6H,3-5H2,1H3	InChI=1S/C6H10N2O/c1-9-5-6-4-8(6)3-2-7/h6H,3-5H2,1H3/t6-,8?/m1/s1
