18
gdb 54686	3.42011	1.14859	0.88874	2.6878	75.92	-0.2448	-0.0259	0.219	1275.9659	0.14893	-439.126391	-439.117898	-439.116954	-439.15978	31.955	
N	-0.0439890959	 1.3494770602	 0.0446495037	-0.546709
C	 0.0535157324	-0.018870273	-0.0225853284	 0.351749
O	 1.1343233412	-0.5755732663	-0.0984884733	-0.364236
C	-1.2487525283	-0.762020511	-0.0276657436	 0.142707
C	-1.2194135307	-2.0975745858	 0.0030145814	-0.104738
C	-2.4680170272	-2.9264798204	 0.0506343776	-0.266041
C	-3.6658127889	-2.0485802292	 0.4179675739	-0.085053
O	-3.6710362521	-0.8594438025	-0.3549107291	-0.244404
C	-2.5689816602	-0.0221697968	-0.0767065099	-0.186963
H	 0.8214774428	 1.849885801	 0.171709149	 0.260126
H	-0.8891552407	 1.8094381316	 0.3369316494	 0.258082
H	-0.2504333185	-2.5879890595	-0.0006788189	 0.12464
H	-2.6323919818	-3.4071370314	-0.9237976259	 0.12664
H	-2.3573325841	-3.7412687995	 0.7773564647	 0.112614
H	-4.6142952656	-2.5508970219	 0.2111116978	 0.111678
H	-3.6357411312	-1.8055350883	 1.4929814071	 0.091999
H	-2.7359201063	 0.5217761318	 0.8743068756	 0.091438
H	-2.5561094049	 0.726361591	-0.877666311	 0.126472
60.4495	119.2755	206.5734	226.2732	296.1122	309.9266	363.0874	400.7075	468.0216	504.2788	559.4755	568.7943	656.2198	747.7742	807.6	890.573	912.6692	947.8175	975.6183	1032.0494	1050.6328	1073.9303	1095.6391	1115.5249	1144.1424	1227.3091	1263.7462	1318.9816	1333.5639	1351.4962	1367.5175	1393.0235	1419.2813	1461.6816	1494.8183	1504.996	1623.0805	1708.4296	1782.1927	2903.5452	2971.8282	3015.1624	3051.0104	3051.8017	3094.7154	3183.5495	3594.1474	3723.7693
NC(=O)C1=CCCOC1	NC(=O)C1=CCCOC1	
InChI=1S/C6H9NO2/c7-6(8)5-2-1-3-9-4-5/h2H,1,3-4H2,(H2,7,8)	InChI=1S/C6H9NO2/c7-6(8)5-2-1-3-9-4-5/h2H,1,3-4H2,(H2,7,8)
