14
gdb 24917	5.19872	1.3367	1.06636	2.1515	71.61	-0.1769	0.015	0.1919	1039.5412	0.104075	-432.885247	-432.87846	-432.877516	-432.916202	27.055	
N	-0.0556705283	 1.2912448637	 0.0190118397	-0.583743
C	 0.0093594302	 0.0206318611	-0.0486701471	 0.398419
N	 1.1439711159	-0.8425999573	-0.1207787823	-0.447297
C	 0.6599030667	-2.1254915152	 0.1039400345	 0.344079
C	-0.6944415343	-2.1413843436	 0.1092864257	 0.239341
N	-1.1133119749	-0.815556565	-0.0538607947	-0.418693
C	-1.0731435696	-3.5131247197	-0.006028093	-0.316322
C	 0.1089534494	-4.2009096591	-0.0553213242	-0.017038
O	 1.1991807014	-3.3490189634	-0.0267530884	-0.196657
H	 0.8649326338	 1.7204296078	-0.013349951	 0.209188
H	 2.0198938859	-0.505654737	 0.2478889674	 0.263198
H	-1.9993513845	-0.4282185813	 0.2233255277	 0.2672
H	-2.0582666228	-3.9510559124	-0.0193512765	 0.119108
H	 0.3509375112	-5.2493713384	-0.0350639479	 0.139217
123.9314	248.9434	321.0616	343.152	429.0931	441.8781	550.0965	585.7437	602.3239	659.3801	690.9073	713.0606	722.1548	766.0085	805.7434	862.8535	922.1261	952.6908	1031.853	1063.7212	1131.1857	1164.7125	1264.0244	1298.253	1325.6325	1351.2652	1470.3492	1506.8044	1538.7844	1653.302	1755.7422	3262.5119	3296.9679	3530.43	3628.7841	3668.2979
N=C1NC2=C(N1)C=CO2	[NH][C@H]1Nc2c(N1)cco2	
InChI=1S/C5H5N3O/c6-5-7-3-1-2-9-4(3)8-5/h1-2H,(H3,6,7,8)	InChI=1S/C5H6N3O/c6-5-7-3-1-2-9-4(3)8-5/h1-2,5-8H/t5-/m1/s1
