23
gdb 113563	3.93829	0.92955	0.85734	0.2053	93.52	-0.2148	0.0309	0.2457	1478.6728	0.20637	-351.163882	-351.154663	-351.153719	-351.198216	35.341	
C	-0.2504447316	 1.5157550619	 0.1135851427	-0.37385
C	 0.2199757293	 0.0718932421	-0.0995782873	-0.197999
C	 0.8867979331	-0.5129574535	 1.1285505605	-0.03912
C	 0.0693458505	-1.1640982315	 2.2152940843	-0.343752
C	 0.9868820793	-2.0094188741	 1.3469416052	 0.331521
C	 0.4559312835	-3.0430022189	 0.3363760484	-0.300558
C	 1.2479628244	-4.3497285983	 0.6301473946	-0.266464
C	 2.3679809668	-3.8919918945	 1.5355157758	-0.085797
C	 2.2086292697	-2.6279352795	 1.9258752553	-0.12345
H	 0.5909045978	 2.1720859778	 0.3620143141	 0.113086
H	-0.7298543531	 1.914875009	-0.7859056428	 0.108523
H	-0.970456664	 1.5764107769	 0.9363771	 0.117766
H	-0.6360269789	-0.551796146	-0.384046245	 0.095361
H	 0.9164883593	 0.0370044365	-0.9481384485	 0.096025
H	 1.7484284042	 0.0581392589	 1.4717302617	 0.074158
H	 0.3436779423	-1.0012181874	 3.2526815411	 0.10497
H	-0.9996894857	-1.2650152706	 2.0481810816	 0.105318
H	-0.6244841941	-3.1891820013	 0.4138935944	 0.097777
H	 0.6607758116	-2.7081767072	-0.6860945829	 0.104919
H	 0.624817043	-5.1018726455	 1.13346983	 0.104964
H	 1.6136091182	-4.8254575858	-0.2872827097	 0.101295
H	 3.175614462	-4.5460715973	 1.8444381791	 0.088339
H	 2.8635815126	-2.0861432616	 2.6005855075	 0.086968
58.5687	91.3539	131.3799	162.2106	239.0967	273.2953	330.2105	369.8511	421.4917	493.3517	586.6967	711.49	753.9167	775.9823	800.2746	823.8741	845.4759	892.8584	912.6398	940.7438	942.963	965.042	968.79	1000.2231	1043.389	1057.85	1060.8785	1091.1485	1119.7018	1135.817	1175.6398	1194.2076	1222.2572	1258.3639	1289.8365	1296.0409	1301.9984	1328.2686	1346.8653	1386.5479	1408.451	1432.3874	1481.1355	1483.1005	1491.6925	1497.3753	1502.0218	1507.458	1681.2334	3010.5064	3015.0063	3030.671	3038.5094	3051.1467	3054.1323	3091.3095	3098.0281	3103.4835	3113.2482	3114.0732	3176.4054	3200.1128	3203.8188
CCC1CC11CCC=C1	CC[C@H]1C[C@]21CCC=C2	
InChI=1S/C9H14/c1-2-8-7-9(8)5-3-4-6-9/h3,5,8H,2,4,6-7H2,1H3	InChI=1S/C9H14/c1-2-8-7-9(8)5-3-4-6-9/h3,5,8H,2,4,6-7H2,1H3/t8-,9+/m0/s1
