12
gdb 21008	7.49932	1.31924	1.12995	6.9384	64.34	-0.2779	-0.0359	0.242	973.7785	0.085311	-373.715586	-373.708666	-373.707722	-373.74731	23.817	
C	 0.0015510988	 1.4632977317	 0.040148842	-0.335909
N	 0.0007599369	 0.0150869646	-0.0678123742	 0.073723
C	 0.0602202124	-0.7597654497	-1.16709061	-0.179017
C	 0.0256907561	-2.0494031847	-0.6749732018	 0.220302
N	-0.0514420449	-1.9897573583	 0.6921648761	-0.242169
N	-0.0665256381	-0.7464649819	 1.0511716574	-0.121863
C	 0.0611835368	-3.2674683991	-1.4002004098	 0.240827
N	 0.0915298399	-4.2479580617	-2.0138294141	-0.330654
H	 0.923306759	 1.876585533	-0.3764521506	 0.160171
H	-0.8589811706	 1.885430843	-0.4844817455	 0.160116
H	-0.0615025625	 1.7041155038	 1.1008467035	 0.18238
H	 0.1192299162	-0.3672336707	-2.167833653	 0.172092
69.6654	135.0645	158.3013	258.6805	358.3169	523.22	542.3136	573.1755	668.9227	729.2106	732.9539	829.2969	1006.7932	1048.1965	1079.5633	1152.3686	1156.3322	1267.8164	1283.767	1375.5434	1440.1204	1485.5813	1485.7842	1513.2531	1562.2689	2359.9132	3058.7729	3129.8425	3171.2979	3290.7936
CN1C=C(N=N1)C#N	Cn1cc(nn1)C#N	
InChI=1S/C4H4N4/c1-8-3-4(2-5)6-7-8/h3H,1H3	InChI=1S/C4H4N4/c1-8-3-4(2-5)6-7-8/h3H,1H3
