20
gdb 83119	2.18214	1.72338	1.43436	2.0308	78.65	-0.2409	0.0306	0.2715	1047.7545	0.171843	-403.152306	-403.14377	-403.142825	-403.185019	32.818	
C	 0.1244519245	 1.5432302166	-0.0407080783	-0.426812
C	 0.0991673418	 0.0322817358	 0.0450010941	-0.086578
C	 1.3382961997	-0.8058786905	-0.1554166088	 0.054277
O	 2.5817144147	-0.1776458925	-0.3772972422	-0.219323
C	 3.1910430731	 0.4018998357	 0.6877646927	 0.119372
N	 2.7918197962	 0.5352824721	 1.876863237	-0.264082
C	 1.4984392627	-0.0091684795	 2.2737718117	-0.23132
C	 0.701708814	-0.7540529444	 1.2055427558	 0.245868
C	-0.044548705	-1.9764041302	 1.7008927861	-0.472894
H	 1.0201849754	 1.9736612354	 0.4118273556	 0.141106
H	 0.0899204961	 1.8713977709	-1.0849066991	 0.123531
H	-0.7437566605	 1.9720408938	 0.4707302855	 0.119865
H	-0.8001286645	-0.413938315	-0.3746147502	 0.084807
H	 1.2818469493	-1.7130424564	-0.7477551525	 0.102307
H	 4.1571566966	 0.7950200917	 0.3774985698	 0.12385
H	 1.6876507974	-0.6980545445	 3.1062406216	 0.115655
H	 0.9084631539	 0.8124718607	 2.7026810579	 0.113185
H	-0.7929431788	-1.7009115637	 2.4537228293	 0.121457
H	-0.570506454	-2.4824328049	 0.8849250299	 0.114295
H	 0.6390513575	-2.7002252012	 2.1595350741	 0.121435
115.9399	169.833	195.1977	208.927	221.4032	266.6384	332.8089	452.8091	472.2284	500.5198	523.9184	594.9844	699.6564	788.9659	808.9157	915.268	939.335	952.4363	967.169	983.8742	1008.1511	1024.0521	1062.8192	1109.6125	1129.529	1133.3472	1164.4293	1192.0192	1247.0483	1287.2713	1325.8662	1357.5001	1370.4503	1413.2145	1416.7445	1424.136	1457.3851	1483.9587	1493.0484	1498.9432	1502.5732	1508.825	1744.5054	3010.262	3020.1152	3038.9467	3040.6716	3081.7421	3094.623	3095.4286	3119.7615	3136.6923	3161.0227	3164.9226
CC1C2OC=NCC12C	C[C@H]1[C@H]2OC=NC[C@@]12C	
InChI=1S/C7H11NO/c1-5-6-7(5,2)3-8-4-9-6/h4-6H,3H2,1-2H3	InChI=1S/C7H11NO/c1-5-6-7(5,2)3-8-4-9-6/h4-6H,3H2,1-2H3/t5-,6+,7-/m0/s1
