16
gdb 13174	3.64564	1.46083	1.11837	2.5097	64.71	-0.2575	0.0183	0.2758	1028.0578	0.131374	-379.89915	-379.89101	-379.890066	-379.932461	28.543	
N	-0.1889737982	 1.3930861516	 0.0841536633	-0.500578
C	 0.0332004666	-0.0500153794	-0.0079201083	-0.147311
C	 0.7000903776	-0.4668558369	-1.2628943963	 0.256047
N	 1.2352794019	-0.7518045956	-2.2476485545	-0.31994
C	 0.8340300665	-0.5363662391	 1.2047220044	-0.008475
C	 0.0479923299	-0.4975287467	 2.5303111442	-0.087844
O	-0.0445612009	-1.9379238048	 2.5625767465	-0.271778
C	 0.8400376632	-2.0634728111	 1.4307370494	-0.089708
H	 0.692618295	 1.8871811734	-0.025374692	 0.243004
H	-0.7916366039	 1.7070359272	-0.670555825	 0.248117
H	-0.9488795841	-0.5387389461	 0.0153750916	 0.139665
H	 1.8143249974	-0.0539035993	 1.2163959672	 0.092024
H	 0.6100193129	-0.1031630987	 3.3859379198	 0.104001
H	-0.9329306028	-0.0120753121	 2.4910906945	 0.118658
H	 0.4099096745	-2.6776866724	 0.6302347961	 0.114757
H	 1.8145949946	-2.4807725001	 1.7123967591	 0.109361
66.0268	81.6045	132.4476	223.4357	254.9704	278.4091	355.4256	432.9544	528.6	596.584	818.6027	835.1968	870.2406	881.5426	942.5678	972.0116	1035.4977	1055.2116	1071.2439	1081.0563	1144.7728	1157.253	1160.2927	1242.2296	1251.5984	1305.3947	1309.4336	1368.2143	1389.5498	1398.6233	1514.1823	1539.1311	1663.4974	2343.5998	3014.2117	3024.3435	3039.8036	3059.2297	3072.6225	3087.3967	3493.8863	3573.8139
NC(C#N)C1COC1	N[C@@H](C#N)C1COC1	
InChI=1S/C5H8N2O/c6-1-5(7)4-2-8-3-4/h4-5H,2-3,7H2	InChI=1S/C5H8N2O/c6-1-5(7)4-2-8-3-4/h4-5H,2-3,7H2/t5-/m0/s1
