18
gdb 23123	2.48033	1.30419	0.90202	1.2881	78.16	-0.2441	-0.0041	0.24	1288.4081	0.146217	-439.037891	-439.028854	-439.02791	-439.072331	32.87	
C	-0.0969430746	 1.3904736636	 0.0059469661	-0.233582
O	 0.142020786	 0.0052086262	-0.0946617797	-0.240623
C	 0.7762116587	-0.5495580302	 1.0519590086	-0.001441
C	-0.1753522104	-0.8296427008	 2.1979039643	-0.082809
C	-0.2890144578	-2.1315546795	 2.4585715443	-0.078793
C	 0.5753021217	-2.9866748984	 1.5660621316	-0.348613
C	 1.2844891831	-1.9484560424	 0.7255326938	 0.38003
N	 2.2110281454	-2.1169641106	-0.1264213746	-0.206982
O	 2.5223843049	-3.4765753723	-0.2753341769	-0.390091
H	 0.8332070887	 1.9500149096	 0.1937201896	 0.105124
H	-0.5151133844	 1.7129337296	-0.9506919214	 0.129553
H	-0.8148589548	 1.6405063096	 0.8017195815	 0.102729
H	 1.6062904865	 0.1112520205	 1.3509994701	 0.081847
H	-0.7030087744	-0.0384738364	 2.7166832373	 0.101125
H	-0.9241110495	-2.5597234341	 3.2263751596	 0.102287
H	 1.2961704027	-3.6035892108	 2.1174488167	 0.134676
H	-0.0033587919	-3.6866702224	 0.9486207306	 0.137637
H	 3.2224714601	-3.4544309012	-0.9365674416	 0.307927
55.6205	80.598	143.6806	186.7201	228.0361	281.4481	326.1384	366.656	413.1815	477.5976	553.5746	563.5249	704.6952	732.2908	811.6705	858.1749	947.0502	958.1159	976.5577	987.554	1001.8069	1019.6586	1122.6817	1143.4046	1158.1115	1179.3461	1210.2015	1220.0187	1288.4439	1301.0186	1354.1878	1375.7688	1410.558	1460.0332	1476.0549	1489.2458	1508.5605	1682.3384	1762.9514	2965.713	2974.145	3019.0244	3025.0325	3048.1957	3113.8588	3187.051	3214.5173	3816.8804
COC1C=CCC1=NO	CO[C@H]1C=CCC1=NO	
InChI=1S/C6H9NO2/c1-9-6-4-2-3-5(6)7-8/h2,4,6,8H,3H2,1H3	InChI=1S/C6H9NO2/c1-9-6-4-2-3-5(6)7-8/h2,4,6,8H,3H2,1H3/t6-/m0/s1
