25
gdb 96547	2.19361	1.42051	1.01196	1.0988	88.38	-0.2414	0.0795	0.321	1310.3997	0.230788	-389.5025	-389.493102	-389.492158	-389.536104	37.178	
C	-0.1351580565	 1.5721362685	 0.014078676	-0.417294
C	 0.022684373	 0.044586573	-0.003010991	 0.061715
C	 0.5858002341	-0.4495911837	-1.3564507154	-0.208452
C	 0.0378509902	-1.8238412267	-1.7735415495	-0.200769
C	 0.4658173828	-2.9877532865	-0.8770406789	-0.070358
O	 0.2106792207	-2.7852179959	 0.5028349414	-0.24638
C	 1.1635525372	-1.9660393921	 1.1540415007	-0.082831
C	 0.8023817657	-0.4666353179	 1.2386365412	 0.00559
C	 2.0894686789	 0.3125107314	 1.5513223719	-0.403223
H	 0.8132045333	 2.0828053831	-0.1844171825	 0.11496
H	-0.8468119814	 1.8928734337	-0.7538477881	 0.108065
H	-0.5079059491	 1.9268113672	 0.9814957473	 0.108487
H	-0.9843087079	-0.3809304604	 0.0857338224	 0.079032
H	 0.3139518254	 0.2724473565	-2.1354064839	 0.090951
H	 1.6841192487	-0.4643829262	-1.3386915637	 0.089862
H	-1.0583908686	-1.7716518015	-1.7879916242	 0.101165
H	 0.3524342925	-2.0591593425	-2.7989758735	 0.088188
H	-0.0843779624	-3.8926586505	-1.1579802496	 0.100547
H	 1.538640425	-3.1966420568	-1.0249316489	 0.084327
H	 1.2762189526	-2.3603861596	 2.1713974333	 0.099757
H	 2.1422100624	-2.0789407231	 0.6604477792	 0.081161
H	 0.1252709431	-0.3366836048	 2.0936930931	 0.071775
H	 2.7727263296	 0.3218341823	 0.6939334915	 0.114878
H	 1.8857825548	 1.3494161646	 1.8293347919	 0.11742
H	 2.624834086	-0.1507750821	 2.3879618494	 0.111426
87.7742	130.9666	225.1483	250.4403	265.4442	275.0727	301.5105	310.5004	362.8295	403.4213	440.9326	527.0479	547.3124	563.9024	720.0487	823.1543	869.541	881.1801	897.6357	941.1319	951.7539	971.9985	1012.315	1015.3905	1063.2617	1085.75	1093.1347	1137.747	1160.5136	1183.0447	1189.0806	1233.7005	1262.6037	1292.3565	1326.9903	1337.7311	1340.4087	1361.5065	1367.2044	1391.3223	1399.7853	1407.3501	1410.6793	1419.1004	1428.2842	1479.6786	1484.7296	1488.0796	1495.6568	1497.5406	1504.4925	1506.8839	1514.4437	2962.0635	2971.7983	3002.4683	3013.8004	3016.6863	3026.5216	3026.9624	3029.881	3046.5947	3051.9102	3057.6292	3066.8682	3086.3066	3093.5017	3097.7568	3113.941
CC1CCCOCC1C	C[C@H]1CCCOC[C@H]1C	
InChI=1S/C8H16O/c1-7-4-3-5-9-6-8(7)2/h7-8H,3-6H2,1-2H3	InChI=1S/C8H16O/c1-7-4-3-5-9-6-8(7)2/h7-8H,3-6H2,1-2H3/t7-,8+/m0/s1
