17
gdb 95013	3.03997	1.69393	1.38216	1.1573	66.36	-0.2429	0.0533	0.2961	941.9608	0.137275	-458.884905	-458.877988	-458.877044	-458.916145	27.909	
O	 0.1115905299	 1.432140205	-0.1655957194	-0.436773
C	 0.0782206719	 0.01724276	-0.017762422	 0.085295
C	 0.7640807152	-0.4603119503	 1.2621566686	-0.115942
O	-0.0913897475	-0.3049156602	 2.3933166638	-0.275805
C	-1.3940198102	-0.753478414	 2.1436436308	 0.115
C	-1.7084103814	-1.6949417682	 0.9335825249	-0.022686
O	-3.1003103323	-1.2222575558	 1.0002376361	-0.304658
C	-2.2878147955	 0.0015982798	 1.1185828572	 0.005414
C	-1.3605830802	-0.5107072422	-0.0182438572	-0.04028
H	-0.2285728502	 1.8164936373	 0.6504621592	 0.288258
H	 0.6275901103	-0.3738888665	-0.8806991292	 0.094919
H	 1.0467532484	-1.519018892	 1.154985708	 0.099393
H	 1.6650778239	 0.1242801817	 1.4620269869	 0.121048
H	-1.8801712925	-1.0117728807	 3.0847068148	 0.102638
H	-1.5498936678	-2.7660765965	 0.8058566611	 0.09722
H	-2.8145038026	 0.9521601914	 1.2085396534	 0.09695
H	-1.8378595295	-0.5504231688	-0.9985539171	 0.090009
114.6061	189.2698	328.7347	352.1379	383.8012	432.9495	474.5493	555.5406	608.5964	754.9881	765.9524	839.5117	878.0068	881.6268	892.1819	901.5052	963.0782	984.8559	1022.7026	1030.2703	1084.1134	1116.574	1142.4884	1148.6322	1156.4072	1187.2662	1210.4495	1239.3518	1259.0844	1270.4227	1286.8788	1326.2937	1339.7988	1382.6815	1405.4187	1430.2776	1495.9552	2987.4878	3059.7828	3105.952	3107.6071	3113.5908	3117.0995	3129.7854	3798.6743
OC1COC2C3OC2C13	O[C@H]1CO[C@@H]2[C@H]3O[C@@H]2[C@@H]13	
InChI=1S/C6H8O3/c7-2-1-8-6-4-3(2)5(6)9-4/h2-7H,1H2	InChI=1S/C6H8O3/c7-2-1-8-6-4-3(2)5(6)9-4/h2-7H,1H2/t2-,3-,4-,5+,6+/m0/s1
