15
gdb 77343	3.12011	1.28859	0.95273	3.6952	67.28	-0.2922	-0.0072	0.285	1152.7574	0.113575	-453.970979	-453.962925	-453.961981	-454.003932	29.514	
O	 0.4445106948	 0.8107929048	 0.7331550541	-0.430552
C	 0.1605548837	-0.3314565597	-0.0118629159	 0.060129
C	-1.3487653269	-0.5829887199	-0.2339735812	-0.19225
C	-1.3191312949	-1.4079727967	-1.5425580021	-0.10616
O	-0.1916621771	-0.899719929	-2.279510417	-0.229579
C	 0.6462357337	-0.2312439756	-1.4475308256	 0.389184
N	 1.6665758646	 0.4350175938	-1.7638538771	-0.559802
C	-2.0362604812	-1.2603367692	 0.8551558743	 0.272123
N	-2.5868075593	-1.8178049084	 1.7042191096	-0.310436
H	 1.1852124978	 1.2426774583	 0.2802016447	 0.30486
H	 0.603580254	-1.23108093	 0.4470892685	 0.119509
H	-1.8231083261	 0.3883501138	-0.4110635681	 0.150006
H	-1.1729830906	-2.4738976581	-1.3401914411	 0.143568
H	-2.2117858501	-1.2768054172	-2.154942374	 0.149296
H	 1.8461332177	 0.435184653	-2.767296199	 0.240103
78.3444	135.4583	165.9632	231.6144	275.6125	369.9542	387.1564	451.593	491.9663	571.5778	573.3745	638.9662	692.583	874.2196	889.7823	898.1633	992.4339	1034.2738	1045.9443	1078.5194	1107.7415	1159.3007	1218.4997	1247.6673	1271.0929	1280.3971	1343.3761	1372.3884	1411.9875	1435.7806	1519.843	1792.5628	2366.069	2970.7498	3057.718	3068.0644	3134.3357	3504.4032	3714.3122
OC1C(COC1=N)C#N	O[C@H]1[C@@H](CO[C]1[NH])C#N	
InChI=1S/C5H6N2O2/c6-1-3-2-9-5(7)4(3)8/h3-4,7-8H,2H2	InChI=1S/C5H6N2O2/c6-1-3-2-9-5(7)4(3)8/h3-4,7-8H,2H2/t3-,4+/m1/s1
