13
gdb 27597	3.49241	1.31127	0.95351	7.538	75.32	-0.258	-0.0638	0.1942	1129.0908	0.091935	-411.863912	-411.85654	-411.855595	-411.895775	27.412	
N	-0.0492293734	 1.351771028	 0.0978611567	-0.571338
C	 0.0208170895	-0.0019770228	 0.035352178	 0.405212
N	-1.1456070349	-0.6645081789	 0.0287067043	-0.342537
C	-1.0671890696	-1.9941888262	 0.0002625053	 0.250734
N	 0.0229472445	-2.7580154891	-0.0273749948	-0.298876
C	 1.1788098558	-2.0752968197	-0.0237982	 0.007947
C	 1.2466746149	-0.6984456459	 0.0073882927	-0.181774
C	-2.336195203	-2.6949584183	-0.0050249481	 0.279812
N	-3.3492351282	-3.2508326787	-0.0097846337	-0.326917
H	 0.7627969532	 1.9132836235	-0.0880549152	 0.267523
H	-0.95548083	 1.7729624218	-0.0249921742	 0.274253
H	 2.0864978399	-2.6726972839	-0.0475233469	 0.127638
H	 2.1967324713	-0.1772109798	 0.0126165959	 0.108324
136.3252	159.1882	201.1299	260.9567	381.2427	386.0337	479.306	504.2637	520.6177	562.5431	593.9754	723.6767	758.3254	817.2762	854.1441	969.3862	991.7041	1008.7823	1085.8314	1123.3744	1277.9279	1309.5125	1391.8397	1420.6987	1495.6233	1589.9806	1615.8408	1654.1411	2363.1917	3166.9612	3200.1112	3610.6117	3740.3479
NC1=NC(=NC=C1)C#N	Nc1nc(ncc1)C#N	
InChI=1S/C5H4N4/c6-3-5-8-2-1-4(7)9-5/h1-2H,(H2,7,8,9)	InChI=1S/C5H4N4/c6-3-5-8-2-1-4(7)9-5/h1-2H,(H2,7,8,9)
