19
gdb 106874	2.39945	1.38753	1.04902	1.5451	78.4	-0.244	-0.0292	0.2148	1203.8936	0.157244	-423.004513	-422.995432	-422.994488	-423.038764	33.214	
C	-0.2953621992	 1.3398638503	-0.0514645295	-0.381259
C	 0.1033180174	-0.1435891767	-0.0205268286	-0.281833
C	 0.7892060544	-0.5636930871	-1.2810822957	 0.450613
C	 0.1506852718	-0.9955556122	-2.545382094	-0.376796
C	 1.1096023218	-1.9728018384	-1.8759014113	 0.089469
C	 2.5259497979	-1.4269183672	-1.9880348343	-0.149553
O	 2.1252235521	-0.1169311324	-1.5056034431	-0.315314
C	 0.6797926186	-3.2607610141	-1.333343264	 0.062679
O	-0.4767906955	-3.5901471286	-1.1795135221	-0.285174
H	 0.583095284	 1.9756286387	-0.1952702519	 0.137131
H	-0.9965811374	 1.5415621463	-0.8670373924	 0.123697
H	-0.7739477792	 1.6289658588	 0.8883576812	 0.118551
H	 0.7716507518	-0.3327383328	 0.8269874075	 0.112093
H	-0.7803833746	-0.7768970541	 0.113304102	 0.129345
H	-0.8844291321	-1.3116376642	-2.4691604516	 0.148352
H	 0.4470674291	-0.5391943713	-3.4857947734	 0.121127
H	 3.2292679343	-1.8931140924	-1.2877577687	 0.115595
H	 2.9727547427	-1.3792541588	-2.9875804255	 0.112622
H	 1.5128406621	-3.9340597739	-1.0269883046	 0.068654
58.1848	94.9448	152.3692	199.0486	217.0639	231.2023	299.016	379.4464	398.1601	469.186	533.8514	676.336	715.4123	776.3083	807.5858	809.4539	930.4542	968.2631	984.4735	992.4404	1019.4372	1029.9496	1051.046	1069.714	1096.7543	1155.2876	1177.333	1223.7136	1268.5498	1314.6687	1336.0815	1367.5651	1401.596	1411.297	1437.0181	1476.0655	1480.5482	1497.439	1509.1332	1517.741	1783.0966	2866.2421	3023.0629	3040.1962	3042.8517	3073.6339	3082.689	3115.579	3118.5103	3119.6091	3222.4326
CCC12CC1(CO2)C=O	CC[C@]12C[C@]1(CO2)C=O	
InChI=1S/C7H10O2/c1-2-7-3-6(7,4-8)5-9-7/h4H,2-3,5H2,1H3	InChI=1S/C7H10O2/c1-2-7-3-6(7,4-8)5-9-7/h4H,2-3,5H2,1H3/t6-,7+/m1/s1
