19
gdb 109227	4.67028	0.96958	0.87396	3.7689	77.55	-0.2196	0.0248	0.2444	1350.1633	0.159988	-419.201788	-419.1932	-419.192256	-419.235275	32.605	
O	 0.0591240124	 1.3833312411	-0.1673479794	-0.42014
C	 0.0150574094	 0.0023525739	 0.0632952731	-0.130788
C	-1.403917246	-0.4950585343	 0.1179507436	 0.33934
N	-2.3921073041	 0.3131824852	 0.0349141806	-0.322722
C	-3.6149147434	-0.4944524346	 0.1426732256	-0.238699
C	-3.1383653583	-1.9583849602	 0.1033092656	 0.363287
C	-3.9185330817	-3.1072784356	 0.6599082107	-0.321281
C	-3.6957193632	-2.9891679106	-0.8389575708	-0.32226
N	-1.7020744216	-1.832718179	 0.3240198085	-0.395486
H	-0.8681594287	 1.6713191743	-0.1628001025	 0.2957
H	 0.5567979781	-0.537284595	-0.7316432181	 0.100448
H	 0.5131675562	-0.2599210725	 1.0112253041	 0.114099
H	-4.1229120873	-0.2648057851	 1.0888448404	 0.115287
H	-4.3119829986	-0.2549153802	-0.6678363999	 0.113278
H	-3.3748282606	-3.8814994782	 1.1911037929	 0.117695
H	-4.9108686373	-2.9087128801	 1.0529424342	 0.120723
H	-4.533202853	-2.7045293964	-1.4684754495	 0.121204
H	-3.0094467391	-3.6916430933	-1.3031672805	 0.110339
H	-1.0943332233	-2.5239517595	-0.0941727987	 0.239978
62.1111	102.9847	188.7281	204.5149	286.1173	313.4469	382.7009	412.6554	435.6583	516.9205	571.7113	627.8807	719.7825	766.7674	827.0862	875.4892	913.0196	933.1375	983.3376	994.0387	1030.7369	1053.791	1058.7152	1064.8529	1077.6921	1118.8747	1185.6195	1209.471	1223.7617	1251.4472	1269.1779	1295.7761	1323.9412	1384.7552	1445.0695	1460.2697	1496.1601	1497.6079	1505.3216	1511.3673	1708.8964	2967.171	2981.5094	3014.3951	3057.6357	3116.809	3125.4978	3198.589	3216.068	3583.6744	3673.9109
OCC1=NCC2(CC2)N1	OC[C]1[N]CC2(CC2)N1	
InChI=1S/C6H10N2O/c9-3-5-7-4-6(8-5)1-2-6/h9H,1-4H2,(H,7,8)	InChI=1S/C6H10N2O/c9-3-5-7-4-6(8-5)1-2-6/h9H,1-4H2,(H,7,8)
