17
gdb 23567	3.10147	1.49838	1.33054	2.6176	75.64	-0.2328	0.0258	0.2586	1001.3072	0.137673	-417.898693	-417.891648	-417.890704	-417.929987	28.781	
O	-0.1132103029	 1.3581477431	-0.0957532983	-0.402057
N	 0.0456014388	-0.0471537297	-0.0347537456	-0.319475
C	-1.0637937946	-0.6224897228	 0.1288743875	 0.521885
C	-2.5483973593	-0.2903029494	 0.0837797146	-0.146039
C	-2.5933264679	-1.5240228354	-0.9065044644	-0.237466
C	-1.4632114791	-2.0813298346	 0.0510771933	-0.135561
C	-2.2823380484	-2.2450855552	 1.3497309251	-0.037599
N	-1.9893277555	-1.2193329171	 2.3779416011	-0.326122
C	-3.0498317909	-0.9744166193	 1.3722954602	-0.034315
H	 0.79797407	 1.6532852887	-0.1942332899	 0.303314
H	-2.9176625307	 0.696867068	-0.1785572643	 0.092473
H	-3.5292794166	-2.0890169634	-0.9383443041	 0.097795
H	-2.2357031517	-1.2900050885	-1.9106585594	 0.117941
H	-0.7671780526	-2.8625866006	-0.2445382928	 0.083409
H	-2.6960990623	-3.2059308387	 1.631111999	 0.096434
H	-2.4263348225	-1.4987402227	 3.2549540827	 0.229174
H	-4.0877198437	-0.9009294924	 1.6740534152	 0.096209
116.2055	199.1604	300.0362	346.9717	369.0224	424.2871	510.1727	552.017	669.1548	697.8342	784.0394	794.8805	816.1619	825.4424	855.4717	896.176	910.8974	937.7648	953.0684	1011.9985	1035.2816	1057.2724	1063.8759	1099.3846	1118.7732	1129.4525	1144.5951	1195.1168	1212.9159	1229.46	1253.5129	1291.2464	1336.1851	1390.0136	1409.5795	1490.0208	1815.6329	3058.359	3135.1594	3152.5886	3165.9813	3180.7531	3190.8083	3482.4493	3822.2949
ON=C1C2CC1C1NC21	ON=C1[C@H]2C[C@@H]1[C@H]1N[C@@H]21	
InChI=1S/C6H8N2O/c9-8-4-2-1-3(4)6-5(2)7-6/h2-3,5-7,9H,1H2	InChI=1S/C6H8N2O/c9-8-4-2-1-3(4)6-5(2)7-6/h2-3,5-7,9H,1H2/t2-,3+,5+,6-
