16
gdb 8706	3.03573	1.59704	1.32673	1.0435	56.86	-0.2508	-0.0435	0.2073	954.1745	0.128378	-458.00838	-457.999646	-457.998702	-458.041433	31.659	
O	 0.0128943067	 1.299437284	-0.3870735068	-0.433785
C	 0.0767777078	-0.0784083569	-0.0481237213	-0.129376
C	-1.3402357154	-0.6422290014	 0.092029313	 0.233572
O	-2.1150479868	-0.2840036867	-1.0572312257	-0.477109
C	-1.3852870695	-2.1701275668	 0.1747826677	-0.102024
O	-2.713383563	-2.6498153766	 0.152320663	-0.420595
C	-2.0749685682	 0.0036875549	 1.2725399548	 0.13586
O	-1.6675114013	 0.9738844466	 1.8708132475	-0.275277
H	-0.3163120773	 1.7427859007	 0.407894426	 0.302377
H	 0.5899091447	-0.5820173231	-0.8732467703	 0.118939
H	 0.6500042881	-0.246506045	 0.8729594955	 0.110764
H	-1.7910610524	 0.5937861482	-1.3127971219	 0.298627
H	-0.7914742078	-2.5777205668	-0.6586057251	 0.101842
H	-0.9353791258	-2.5163635534	 1.1117990696	 0.117881
H	-3.1229184627	-2.2705314217	-0.6349591814	 0.300356
H	-3.056126447	-0.4520490959	 1.5059152956	 0.117949
107.3882	118.249	166.5854	185.9904	241.446	318.3112	321.4815	368.7399	405.3359	467.9325	511.4681	522.9171	648.6467	681.0644	809.5284	881.3927	958.1016	1003.3823	1036.7653	1090.5895	1099.6267	1129.4872	1193.0653	1216.0516	1288.4744	1343.3059	1376.3014	1403.8886	1420.0225	1435.6825	1439.6003	1487.6426	1496.3258	1801.377	2962.4311	2980.7013	3022.7014	3073.1763	3089.3333	3709.7208	3745.2362	3792.0692
OCC(O)(CO)C=O	OCC(O)(CO)C=O	
InChI=1S/C4H8O4/c5-1-4(8,2-6)3-7/h1,6-8H,2-3H2	InChI=1S/C4H8O4/c5-1-4(8,2-6)3-7/h1,6-8H,2-3H2
