17
gdb 58413	2.38526	1.14098	0.80936	5.2678	67.1	-0.265	-0.0459	0.2191	1364.5208	0.13152	-496.121385	-496.111335	-496.110391	-496.156986	34.68	
C	 0.0738955093	 1.5925673063	 0.0695949879	-0.420971
C	 0.0594623177	 0.0737762588	-0.0516633907	 0.096699
O	 0.8202017479	-0.5627026823	 0.9666150268	-0.425452
C	-1.3742067271	-0.504930422	-0.0366564044	-0.011354
O	-2.1160184185	 0.1188042451	-1.0718464893	-0.186225
C	-3.4620718831	-0.0509074066	-1.0782826134	 0.187339
O	-4.1481992872	 0.3835775893	-1.9498939229	-0.270793
C	-1.3708257551	-2.024460199	-0.202142436	 0.148311
O	-2.1391754197	-2.6050293938	-0.9225973256	-0.23471
H	 1.105324009	 1.9542723544	 0.0543906122	 0.13491
H	-0.4781700561	 2.0546249577	-0.7509859282	 0.157552
H	-0.3921594013	 1.910585713	 1.0115429059	 0.109993
H	 0.5311728281	-0.22059785	-0.9962577959	 0.119413
H	 0.6428310964	-0.1122112509	 1.7999248579	 0.287227
H	-1.8159488717	-0.2857038171	 0.9515122075	 0.10017
H	-3.8343908872	-0.5888012421	-0.188713168	 0.087221
H	-0.6095712616	-2.5469502908	 0.408042916	 0.120671
64.6163	85.0931	108.7354	158.8132	187.5432	225.2613	243.836	298.5063	322.9455	337.1275	391.5315	429.2042	478.8613	623.189	724.7353	860.493	896.8152	961.9249	1000.7819	1030.565	1074.2875	1099.843	1136.4039	1154.4388	1188.3095	1243.7994	1310.6213	1335.2075	1376.723	1392.7084	1402.7273	1416.1743	1436.9837	1490.7515	1495.8414	1831.166	1875.6811	2953.9544	2965.8023	2986.3336	3025.1262	3054.6554	3107.1919	3144.4245	3800.9966
CC(O)C(OC=O)C=O	C[C@@H](O)[C@@H](OC=O)C=O	
InChI=1S/C5H8O4/c1-4(8)5(2-6)9-3-7/h2-5,8H,1H3	InChI=1S/C5H8O4/c1-4(8)5(2-6)9-3-7/h2-5,8H,1H3/t4-,5+/m1/s1
