18
gdb 97229	3.26223	1.36518	1.04812	1.5222	75.77	-0.2467	0.015	0.2618	1154.5668	0.148388	-439.074093	-439.065935	-439.064991	-439.10728	30.409	
C	 0.0884282455	 1.4350293294	 0.0886408899	-0.328264
N	 0.1463941595	-0.0160496098	 0.0461811656	-0.311806
C	 0.5399882788	-0.6018144344	-0.9996342074	 0.411687
O	 0.9701282768	 0.0709652405	-2.1237130508	-0.253322
C	 0.7818715353	-0.6305228171	-3.3483364104	-0.000339
O	 1.4929410283	-1.8283074213	-3.3826718056	-0.234166
C	 1.0736812762	-2.7131134584	-2.3734224043	 0.084465
C	 1.9510099865	-2.7954097568	-1.1674440729	-0.303211
C	 0.60056453	-2.0865408947	-1.0818093402	-0.148692
H	 0.9393158428	 1.8168029294	 0.6666411523	 0.127037
H	 0.102941631	 1.9144681932	-0.8963273643	 0.11842
H	-0.8183542347	 1.7351286685	 0.6235974769	 0.121027
H	-0.2947052764	-0.8022269987	-3.5006863957	 0.099283
H	 1.1836874846	 0.0116820734	-4.1330275354	 0.129335
H	 0.5774156551	-3.6023509113	-2.7529328243	 0.104746
H	 2.0434155185	-3.7408432574	-0.6459743514	 0.124071
H	 2.841964759	-2.1788134419	-1.1812764955	 0.138581
H	-0.1715444068	-2.5869563627	-0.5119312666	 0.121148
71.2074	98.3607	158.7862	229.0903	292.1114	310.329	404.0653	446.7685	548.2842	549.7789	712.7108	749.3066	787.6735	801.6106	828.7438	955.3351	975.8988	1009.3202	1029.3418	1050.8709	1071.7368	1081.451	1119.0285	1128.3053	1153.8135	1176.8464	1178.684	1224.3229	1264.6372	1305.2516	1370.9705	1383.1996	1436.7051	1449.0661	1473.0889	1491.4739	1497.4307	1517.3265	1776.0859	2986.9189	3016.914	3074.1026	3093.7091	3129.5861	3139.1885	3145.8399	3199.1898	3240.5469
CN=C1OCOC2CC12	CN=C1OCO[C@H]2C[C@@H]12	
InChI=1S/C6H9NO2/c1-7-6-4-2-5(4)8-3-9-6/h4-5H,2-3H2,1H3	InChI=1S/C6H9NO2/c1-7-6-4-2-5(4)8-3-9-6/h4-5H,2-3H2,1H3/t4-,5+/m1/s1
