18
gdb 67648	3.21357	1.80963	1.59337	2.7896	73.55	-0.2038	0.0725	0.2763	895.7555	0.150307	-401.881876	-401.875365	-401.874421	-401.912277	27.728	
O	-0.0852568486	 1.4126823835	-0.0808737815	-0.466601
C	 0.0273913512	 0.0407485394	-0.0280822657	 0.380365
C	-0.0522110225	-0.8515776087	 1.1795124623	-0.144854
C	 1.1638070695	-1.7626503012	 1.2506994255	-0.234816
C	 1.4407548445	-2.0729362827	-0.231868451	-0.060057
C	 0.301548609	-2.9627794845	-0.7777307641	-0.168237
N	-0.4917289501	-1.7445932428	-1.1589874623	-0.125709
C	-1.045049539	-1.0142301296	 0.0052495858	-0.097646
C	 0.7573420177	-0.8896132744	-1.0234321438	-0.086613
H	 0.6086645965	 1.7982187059	 0.4652309662	 0.286359
H	-0.4964005914	-0.4397366712	 2.0801427308	 0.087391
H	 2.0020537962	-1.231122731	 1.7205851169	 0.089683
H	 0.9966664804	-2.6823511962	 1.8226047084	 0.100123
H	 2.472926527	-2.3518216701	-0.4507368248	 0.064541
H	 0.5642677242	-3.5170151502	-1.6837597377	 0.102972
H	-0.1895004714	-3.6411049524	-0.0721363484	 0.098544
H	-2.1149024073	-0.9392692592	 0.1642024901	 0.096841
H	 1.2002035242	-0.4969289845	-1.9390643368	 0.077713
214.6281	269.7336	292.4685	360.3175	409.556	522.0563	554.4252	640.4785	676.8039	709.2159	829.0945	843.0054	850.1527	877.4909	887.9891	923.8953	940.0435	950.861	969.7958	1009.2112	1036.8444	1057.7149	1092.3596	1100.1018	1143.304	1159.6928	1175.9027	1188.172	1208.9363	1247.2945	1259.8853	1277.3083	1286.2494	1311.0635	1328.4532	1347.5402	1480.6724	1493.7625	1505.5212	3012.5734	3038.4036	3062.0697	3087.3522	3094.6884	3112.2698	3167.2724	3176.9348	3793.5005
OC12C3CC4CN(C13)C24	O[C@@]12[C@@H]3C[C@H]4CN([C@H]13)[C@@H]24	
InChI=1S/C7H9NO/c9-7-4-1-3-2-8(5(3)7)6(4)7/h3-6,9H,1-2H2	InChI=1S/C7H9NO/c9-7-4-1-3-2-8(5(3)7)6(4)7/h3-6,9H,1-2H2/t3-,4+,5+,6-,7+/m0/s1
