21
gdb 79967	1.83932	1.82181	1.56321	1.5327	82.89	-0.2205	0.0088	0.2292	1056.3284	0.182145	-387.089545	-387.080659	-387.079715	-387.122199	35.219	
C	-0.2381862646	 1.5522449072	 0.0374115835	-0.408398
C	 0.0500072873	 0.0421769162	-0.0185009884	-0.07646
C	 0.9285740128	-0.4083411895	-1.1711750041	-0.112502
C	 1.9080299403	-1.2283816654	-0.7737882663	-0.10275
C	 1.9325106208	-1.386340462	 0.7077296603	-0.193468
C	 2.1934467235	-0.0939515804	 1.4622231233	 0.083102
O	 2.8036349507	 1.0151108584	 0.8754970495	-0.425396
C	 0.7645396994	-0.5222701485	 1.2242081719	 0.273156
C	-0.0898997844	-0.9360871817	 2.398396184	-0.487644
H	 0.6817799856	 2.125424108	 0.1685722144	 0.138185
H	-0.7371088179	 1.8887468052	-0.8777342298	 0.10676
H	-0.9008196922	 1.7841863448	 0.8775890173	 0.11529
H	-0.9210564354	-0.4700648499	-0.1151289994	 0.081179
H	 0.7418917548	-0.0997305081	-2.1946367658	 0.096105
H	 2.6342895953	-1.7012981482	-1.4261063837	 0.100486
H	 2.2137380971	-2.3344740663	 1.1550273057	 0.082636
H	 2.5475344573	-0.2082272984	 2.4829751118	 0.100123
H	 2.7608639722	 0.8923318018	-0.082378932	 0.27966
H	-0.6456993235	-0.0821804673	 2.8046304459	 0.120438
H	-0.8204774574	-1.7015916576	 2.1102405092	 0.115
H	 0.5171472285	-1.3474010986	 3.2113795829	 0.114497
156.3305	185.2448	189.7997	222.5624	240.1148	274.1982	309.273	335.7714	386.9898	481.5755	560.9785	584.2477	613.1297	725.566	733.1231	787.5125	815.6168	866.1593	885.1008	950.5385	965.2202	995.5366	1023.2818	1039.5812	1060.007	1098.1026	1103.5936	1131.7254	1137.2668	1158.3511	1195.0577	1271.67	1296.3436	1315.0479	1332.7291	1370.8449	1384.4426	1409.0976	1415.5026	1455.6063	1487.5174	1496.1588	1498.0214	1508.8365	1656.0372	2965.5307	3016.8229	3036.9765	3074.9488	3092.6311	3096.3668	3134.6883	3146.9244	3158.6013	3176.9548	3201.4499	3741.2386
CC1C=CC2C(O)C12C	C[C@H]1C=C[C@H]2[C@@H](O)[C@@]12C	
InChI=1S/C8H12O/c1-5-3-4-6-7(9)8(5,6)2/h3-7,9H,1-2H3	InChI=1S/C8H12O/c1-5-3-4-6-7(9)8(5,6)2/h3-7,9H,1-2H3/t5-,6-,7+,8-/m0/s1
