16
gdb 10457	2.92102	1.53672	1.15604	2.5193	71.49	-0.241	-0.0222	0.2188	1040.9106	0.127552	-346.56537	-346.556871	-346.555927	-346.598998	30.651	
O	-0.2473036135	 0.8920164281	 1.1913222194	-0.242281
C	 0.0412125261	 1.1558561246	 0.0523833799	 0.16452
C	 1.3993049167	 1.6716182897	-0.3844843469	-0.358111
C	 1.2934254766	 2.882916626	-1.3120785643	 0.14983
C	 1.0520712968	 4.2463553069	-0.6749521391	-0.288094
C	 2.4002041096	 3.9264395975	-1.249942988	-0.301475
C	 0.6937935866	 2.6242446903	-2.5948189684	 0.277181
C	 0.197054619	 2.385411974	-3.6645201048	-0.465455
H	-0.6929032753	 1.0315425478	-0.7738482002	 0.092502
H	 1.9779463843	 1.9129571846	 0.5112856632	 0.12077
H	 1.9145882296	 0.8574920896	-0.912975785	 0.132121
H	 0.4166704342	 4.9412162238	-1.2101598399	 0.132658
H	 0.9424194598	 4.2680087497	 0.4039592339	 0.130862
H	 3.2217228688	 3.7314061435	-0.5694146554	 0.12397
H	 2.6851826007	 4.3986584616	-2.1823477306	 0.133137
H	-0.24408762	 2.1828749521	-4.6089370639	 0.197864
52.6651	77.1082	146.8272	200.5816	227.402	327.7279	373.9975	469.8102	536.3618	556.594	590.6495	653.8286	676.3637	784.0222	808.9909	872.2208	941.4988	948.7761	958.0858	1052.9894	1070.767	1076.9792	1092.7445	1193.7176	1200.8668	1272.9377	1302.7975	1341.9217	1426.1919	1453.433	1467.7922	1496.1358	1833.0676	2231.7444	2897.8853	3020.8026	3101.4535	3139.6715	3143.4731	3225.871	3239.7634	3502.1387
O=CCC1(CC1)C#C	O=CCC1(CC1)C#C	
InChI=1S/C7H8O/c1-2-7(3-4-7)5-6-8/h1,6H,3-5H2	InChI=1S/C7H8O/c1-2-7(3-4-7)5-6-8/h1,6H,3-5H2
