22
gdb 111061	1.91029	1.65868	1.086	2.9676	82.94	-0.2218	0.0619	0.2837	1218.5861	0.194476	-404.26515	-404.255913	-404.254968	-404.29914	35.2	
C	 0.470597834	 0.5069635622	-0.7598871662	-0.388782
C	-0.439489539	 0.0422406994	 0.3847139795	-0.228693
C	 0.3623151241	-0.5144619502	 1.5487556381	 0.059182
N	-0.3987063647	-1.0520886015	 2.7874246746	-0.16991
C	-0.587938428	-2.3473729019	 1.9724467733	-0.211878
C	 0.8803952284	-1.9825435338	 1.6538028904	 0.318625
C	 1.87836941	-2.7176357781	 0.798162904	-0.231885
O	 1.3587343261	-2.792825553	-0.5246929026	-0.41069
C	 0.9582835772	-1.6737858791	 3.1644589711	-0.221007
H	 1.031724514	-0.3400697846	-1.16430263	 0.134977
H	-0.1157718654	 0.9490290258	-1.5710993743	 0.108813
H	 1.1863894596	 1.2634847072	-0.4180856702	 0.106494
H	-1.027928424	 0.887150968	 0.7652031003	 0.10576
H	-1.1571972468	-0.6861820164	-0.0021476562	 0.103339
H	 1.0994118599	 0.2383743389	 1.858996709	 0.060551
H	-0.7642544819	-3.2255987562	 2.6006297874	 0.093559
H	-1.3363029086	-2.2821226547	 1.1841020442	 0.108982
H	 2.8438368965	-2.1865930398	 0.8214433309	 0.08923
H	 2.0459282531	-3.7238436815	 1.2159439699	 0.0906
H	 1.9978315262	-3.255745741	-1.0743336465	 0.291379
H	 1.6958232332	-0.9415914951	 3.5068701229	 0.095961
H	 0.8707102059	-2.5100716647	 3.8639295904	 0.095395
82.8967	103.3386	130.997	207.1689	247.5439	252.4779	302.7782	356.7467	398.7516	414.722	565.0646	612.9881	658.1241	750.6474	787.6392	819.6814	873.6048	901.0438	920.2572	973.4622	987.1499	1024.2711	1045.2096	1059.1364	1074.4045	1093.3676	1115.3059	1163.5863	1174.6527	1183.728	1197.2833	1201.1011	1246.5079	1259.5661	1277.8047	1296.1088	1329.7174	1348.2903	1408.2024	1444.6558	1460.7343	1484.2324	1501.7343	1510.0795	1515.5929	1519.586	1558.2002	2961.5052	2991.6861	3010.349	3030.7434	3032.4695	3043.1012	3062.9116	3081.6824	3101.4007	3109.086	3121.8216	3147.9168	3830.144
CCC1N2CC1(CO)C2	CC[C@H]1N2C[C@]1(CO)C2	
InChI=1S/C7H13NO/c1-2-6-7(5-9)3-8(6)4-7/h6,9H,2-5H2,1H3	InChI=1S/C7H13NO/c1-2-6-7(5-9)3-8(6)4-7/h6,9H,2-5H2,1H3/t6-/m1/s1
