23
gdb 57755	2.96097	0.71607	0.67363	1.3188	92.11	-0.2415	0.0487	0.2902	1856.5896	0.20138	-388.27646	-388.264672	-388.263728	-388.314756	42.614	
C	-0.0481264996	 1.5689106617	-0.0058251451	-0.372843
C	-2.101*^-6	 0.028255784	-0.025251098	-0.124627
C	-1.4140731442	-0.5784183085	 0.0712920932	-0.373553
C	 0.7025550875	-0.4626134315	-1.2119334235	 0.049131
C	 1.2820528629	-0.8492773978	-2.1943399137	 0.124896
C	 1.9456430826	-1.3476502609	-3.4051353885	 0.152726
C	 1.9309651825	-2.8884916476	-3.4154093856	-0.401483
C	 1.2474984437	-0.7820261021	-4.6569913709	-0.40199
O	 3.3002911761	-0.875560398	-3.3505195196	-0.454031
H	 0.9579226816	 1.9936376749	-0.0509274582	 0.127284
H	-0.6141033828	 1.9470177726	-0.862904409	 0.121537
H	-0.5337341996	 1.922140421	 0.9096876438	 0.109711
H	 0.5651168573	-0.3000448126	 0.8584349589	 0.105079
H	-2.0234426158	-0.2734704338	-0.7852761188	 0.121747
H	-1.3742585323	-1.6707891687	 0.0868520309	 0.121785
H	-1.9114094455	-0.2368735379	 0.9847711303	 0.111446
H	 0.9074954885	-3.2735024106	-3.4072505278	 0.122336
H	 2.4297173728	-3.262425885	-4.3176378742	 0.099953
H	 2.4584283685	-3.2713220566	-2.5390938724	 0.131897
H	 1.2995609676	 0.3088214699	-4.6509584712	 0.131644
H	 1.7428534634	-1.1536027447	-5.5621039619	 0.099947
H	 0.1974403983	-1.0849617944	-4.6941573209	 0.122374
H	 3.7404173076	-1.1971743832	-4.1455939476	 0.275034
11.2351	77.1056	87.3056	180.7731	199.3313	230.4217	237.8947	255.3161	266.0979	279.1936	304.7382	351.1859	390.3451	395.5169	497.0173	515.2822	560.617	584.9835	642.9273	808.6879	884.5037	915.8208	931.6675	955.7026	964.0047	1015.0591	1017.3932	1120.1005	1125.179	1163.1677	1183.1498	1190.4582	1205.01	1326.3744	1347.6514	1388.6942	1389.94	1394.9837	1409.6161	1417.1619	1476.5219	1479.4139	1485.7275	1489.1837	1492.5677	1498.3388	1507.902	1511.0341	2364.6535	3004.7358	3027.5043	3032.7669	3035.1921	3038.8596	3100.6915	3105.6947	3107.333	3111.0195	3117.8061	3121.3852	3132.9383	3135.1269	3797.6128
CC(C)C#CC(C)(C)O	CC(C)C#CC(C)(C)O	
InChI=1S/C8H14O/c1-7(2)5-6-8(3,4)9/h7,9H,1-4H3	InChI=1S/C8H14O/c1-7(2)5-6-8(3,4)9/h7,9H,1-4H3
