21
gdb 73454	2.16748	1.93475	1.54776	1.5854	81.85	-0.2182	0.0887	0.3069	1013.7657	0.182957	-387.075547	-387.067267	-387.066323	-387.107696	32.968	
C	 0.0441277685	 1.4322554933	-0.0137964208	-0.480058
C	-0.0348835967	-0.0671513137	-0.0054772092	 0.421529
O	 0.9680889043	-0.6722925363	-0.8116585208	-0.312979
C	 0.4249532357	-1.9001505277	-1.3092074991	-0.088577
C	-0.694524271	-2.2365660138	-0.3299952288	-0.119755
C	-0.1299606539	-2.2857940224	 1.1259411671	-0.238096
C	-0.4585821684	-0.8017118494	 1.2612774616	-0.178936
C	-1.3139459357	-0.8363896841	-0.0210780415	 0.261532
C	-2.6994012928	-0.3617464625	-0.3394410979	-0.521866
H	 1.0274668802	 1.7624618828	 0.3359164298	 0.130344
H	-0.1053616221	 1.8262467396	-1.0241075777	 0.122363
H	-0.7119306109	 1.8678189059	 0.6454898347	 0.117262
H	 0.042457174	-1.7645910581	-2.3337730207	 0.085183
H	 1.2258778848	-2.6471533749	-1.3303999496	 0.103033
H	-1.3558852323	-3.0455860696	-0.6405259671	 0.069975
H	-0.7533216095	-2.8997339935	 1.7810024073	 0.098466
H	 0.9175199193	-2.587734105	 1.2371692533	 0.095827
H	-0.6472276188	-0.265731695	 2.1865150655	 0.073827
H	-2.8610044385	 0.6613444805	 0.0154980502	 0.121777
H	-2.8835311864	-0.3666365403	-1.420791659	 0.120483
H	-3.46062251	-0.996991896	 0.1283155828	 0.118668
174.9464	187.1755	201.8943	204.973	231.5324	302.8184	341.7852	392.497	529.0135	560.5401	624.2394	666.1684	727.6551	784.8788	851.5913	864.6134	888.328	933.5837	943.656	982.1536	991.9307	1008.3975	1047.2173	1084.5201	1111.084	1125.0079	1132.7509	1137.496	1178.1144	1196.3289	1232.1303	1241.0551	1276.8284	1298.2912	1327.053	1376.8582	1413.2382	1418.1168	1456.3422	1478.6666	1486.8751	1491.8368	1494.9917	1512.5968	1515.7713	2972.9187	3018.6538	3036.2751	3037.7374	3065.9617	3074.9852	3093.1174	3095.3857	3102.4929	3114.4388	3115.3521	3153.8059
CC12OCC3CC1C23C	C[C@@]12OC[C@H]3C[C@@H]1[C@@]23C	
InChI=1S/C8H12O/c1-7-5-3-6(7)8(7,2)9-4-5/h5-6H,3-4H2,1-2H3	InChI=1S/C8H12O/c1-7-5-3-6(7)8(7,2)9-4-5/h5-6H,3-4H2,1-2H3/t5-,6-,7+,8-/m1/s1
