14
gdb 13652	5.81214	0.9349	0.85324	1.4683	82.45	-0.2302	-0.0147	0.2155	1296.3187	0.104872	-345.330384	-345.322117	-345.321172	-345.363332	30.07	
O	 0.0841840602	 1.3948723318	 0.2728603843	-0.411134
C	 0.0251687855	 0.0193182834	 0.1046680925	 0.126164
C	-0.419554537	-0.771168417	 1.2852201595	-0.296203
C	-1.342495609	-0.6738266289	 0.0668625766	-0.283336
C	-2.5277632361	 0.1160721767	 0.109364925	 0.404759
C	-3.5363015313	 0.7890834484	 0.106199807	-0.247933
C	-4.6666990205	 1.5439769585	 0.1136882811	 0.298299
C	-5.6710119636	 2.2156879853	 0.1170412847	-0.566568
H	-0.3420421376	 1.8156609703	-0.4823282267	 0.29633
H	 0.7882142127	-0.4083690686	-0.545574442	 0.098318
H	 0.0387854962	-1.7331163655	 1.4824097819	 0.125135
H	-0.7125629741	-0.1991708959	 2.1569460573	 0.144812
H	-1.4024546348	-1.5626705392	-0.5553912361	 0.121894
H	-6.5542298905	 2.8044039706	 0.124407245	 0.189463
71.7715	99.5046	172.2595	235.5564	256.1644	363.6816	404.5689	478.0702	510.6837	537.0965	562.2163	598.9485	612.6474	711.1047	771.7494	846.7352	908.9582	986.8191	1051.9267	1062.1076	1116.9385	1167.7066	1199.0187	1238.9391	1311.8507	1383.4904	1420.1728	1476.712	2179.5366	2350.8814	3102.233	3142.2637	3149.6259	3247.6944	3506.2851	3797.3991
OC1CC1C#CC#C	O[C@H]1C[C@H]1C#CC#C	
InChI=1S/C7H6O/c1-2-3-4-6-5-7(6)8/h1,6-8H,5H2	InChI=1S/C7H6O/c1-2-3-4-6-5-7(6)8/h1,6-8H,5H2/t6-,7+/m1/s1
