21
gdb 80886	2.47448	1.71306	1.44257	1.3435	81.08	-0.2417	0.0714	0.313	1028.8426	0.183945	-387.050339	-387.042474	-387.04153	-387.081931	32.979	
C	-0.0964847026	 1.6068855203	-0.0038183556	-0.462194
C	-0.023329727	 0.0821382596	-0.0117570278	-0.013915
C	 1.0751911391	-0.5899386781	-0.8911840402	-0.059413
C	 2.0856447076	-0.2707769914	 0.2626820078	-0.296318
C	 0.8061888576	-0.5892805888	 1.1297775263	 0.405404
O	 0.6691190955	-0.2510064385	 2.4738233522	-0.492417
C	 0.6790414041	-2.0997462414	 0.8589295313	-0.059302
C	-0.4013325087	-2.6378667252	-0.0451373044	-0.323514
C	 0.8759953447	-2.1038576125	-0.6471796505	-0.033056
H	 0.8755150625	 2.1023594154	 0.0655696542	 0.116682
H	-0.5794004465	 1.968870437	-0.9176009707	 0.121356
H	-0.7076094945	 1.9510328732	 0.8394369249	 0.116232
H	-1.0409255832	-0.2888753022	-0.1435251171	 0.062718
H	 1.2523626645	-0.259779055	-1.9145586797	 0.060508
H	 2.9414834323	-0.941231583	 0.3767623893	 0.090196
H	 2.4181237001	 0.7684164351	 0.3055052806	 0.08596
H	 0.8119430107	 0.6969641436	 2.5621268317	 0.280156
H	 1.2107505545	-2.7647639505	 1.5297901885	 0.089851
H	-0.4849605485	-3.7207801106	-0.0526130039	 0.107278
H	-1.3567594704	-2.1432050189	-0.1677349879	 0.117467
H	 1.5587634184	-2.7909348079	-1.1347310688	 0.086321
170.1369	202.1118	241.9351	292.4037	305.4698	375.1572	415.5221	440.4158	538.3321	556.1677	614.2176	640.4477	778.5476	800.5211	809.2349	832.7868	881.7417	913.1902	930.5559	946.9251	993.0279	1007.3906	1021.5469	1052.3128	1075.5914	1087.4935	1097.479	1107.6888	1121.8985	1136.5575	1166.189	1193.1118	1217.5647	1232.1997	1258.5465	1269.4565	1310.7943	1354.9567	1386.108	1411.6769	1417.1011	1494.5469	1501.0538	1507.5848	1518.4809	3028.8186	3061.8126	3082.9932	3086.262	3109.4521	3114.6307	3125.6328	3135.3189	3166.1311	3177.7349	3212.9637	3814.7838
CC1C2CC1(O)C1CC21	C[C@H]1[C@H]2C[C@]1(O)[C@H]1C[C@@H]21	
InChI=1S/C8H12O/c1-4-6-3-8(4,9)7-2-5(6)7/h4-7,9H,2-3H2,1H3	InChI=1S/C8H12O/c1-4-6-3-8(4,9)7-2-5(6)7/h4-7,9H,2-3H2,1H3/t4-,5-,6+,7-,8+/m0/s1
