14
gdb 42613	2.66773	1.91584	1.37638	3.727	66.25	-0.2591	-0.0567	0.2024	904.8504	0.101749	-436.683359	-436.676831	-436.675887	-436.714462	25.519	
O	 0.0655601573	 0.0427850982	-0.1899078022	-0.300413
C	-0.0025559035	 1.2147089704	 0.0256297899	 0.442946
C	-1.1113887433	 2.2050270996	 0.1059929585	-0.188773
C	-0.7597499174	 3.3507201575	 1.016117921	-0.015801
C	 0.2461651644	 3.2246590436	 2.1385178109	-0.380247
C	 1.4838456845	 2.6618145346	 1.4229656627	 0.433122
O	 2.5655503684	 2.451207626	 1.8970765417	-0.300967
C	 1.0352151658	 2.3792038231	-0.0005252886	-0.252057
N	-0.1256887885	 3.3148185628	-0.3106389918	-0.127478
H	-2.1027220632	 2.1005659087	-0.3211688589	 0.131777
H	-1.549095032	 4.091351882	 1.1012385202	 0.12363
H	 0.4803597172	 4.2057845052	 2.5635903248	 0.150849
H	-0.0547134166	 2.5692212036	 2.9609469724	 0.15268
H	 1.8184966969	 2.3231490845	-0.7519783804	 0.130731
113.799	145.6305	346.2479	409.6134	467.7763	498.6617	569.4518	624.5625	694.2884	705.1012	772.5731	793.201	822.3557	866.9669	940.494	972.3633	988.8891	1026.3886	1047.5459	1111.9479	1120.6553	1158.53	1171.2113	1200.9949	1217.4345	1279.369	1312.6416	1389.593	1456.0995	1850.4511	1901.0071	3061.777	3104.9559	3164.3949	3168.1702	3187.5816
O=C1C2C3CC(=O)C1N23	O=C1[C@H]2[C@H]3CC(=O)[C@@H]1N23	
InChI=1S/C6H5NO2/c8-3-1-2-4-6(9)5(3)7(2)4/h2,4-5H,1H2	InChI=1S/C6H5NO2/c8-3-1-2-4-6(9)5(3)7(2)4/h2,4-5H,1H2/t2-,4-,5+,7?/m1/s1
