16
gdb 125421	4.16547	1.11692	0.88733	4.3506	74.52	-0.2247	-0.011	0.2137	1269.539	0.126309	-430.291316	-430.282678	-430.281734	-430.326437	31.098	
C	-0.8139859452	 1.0993813719	 0.5509299052	-0.502498
C	-0.1549319032	-0.160416137	 0.1023572501	 0.353115
N	-0.7165185571	-1.1612164686	-0.549897063	-0.36597
C	 0.310972323	-2.0494736069	-0.7332585584	 0.360502
N	 1.4706400697	-1.6566746115	-0.2302049607	-0.250778
N	 1.1519873002	-0.4536385727	 0.2953331473	-0.225406
C	 0.106028244	-3.3345945323	-1.447158458	 0.245703
N	-1.2275718705	-3.5790576162	-1.704857959	-0.551455
N	 1.1091055821	-4.0794139782	-1.7193256825	-0.504258
H	-0.5763282433	 1.3287757636	 1.5943968919	 0.141173
H	-0.5017673069	 1.9539094753	-0.0594798609	 0.149143
H	-1.8944053799	 0.9875049843	 0.4547466714	 0.163527
H	 1.8641490893	 0.0868158017	 0.7597306845	 0.28151
H	-1.8489160026	-2.7871100833	-1.6321111715	 0.264797
H	-1.4437924851	-4.2555265362	-2.4186426222	 0.243788
H	 0.8069307556	-4.926996324	-2.204650604	 0.197107
14.1587	66.6413	163.0295	184.0401	302.9488	344.6388	393.3915	418.9748	491.9859	533.4019	570.1492	636.436	643.142	702.0115	729.3859	814.5889	864.926	991.8386	1010.9307	1064.3371	1078.8157	1105.6001	1133.2212	1180.9751	1283.9394	1338.6285	1399.459	1415.0227	1435.8069	1482.9494	1500.8495	1540.3751	1590.9444	1626.7332	1722.7674	3041.8113	3097.9579	3151.8072	3446.1702	3573.7037	3655.3905	3699.5013	14.165	66.6411	163.0295	184.0402	302.9486	344.6388	393.3912	418.9742	491.9855	533.4018	570.1486	636.436	643.1421	702.0113	729.3859	814.5887	864.926	991.8385	1010.9306	1064.337	1078.8156	1105.6003	1133.2214	1180.9752	1283.939	1338.6284	1399.4587	1415.0226	1435.8066	1482.9492	1500.8493	1540.3754	1590.9441	1626.7338	1722.7676	3041.8113	3097.958	3151.8072	3446.1703	3573.7035	3655.3908	3699.5011
CC1=NC(=NN1)C(N)=N	Cc1nc(n[nH]1)C(=N)N	
InChI=1S/C4H7N5/c1-2-7-4(3(5)6)9-8-2/h1H3,(H3,5,6)(H,7,8,9)	InChI=1S/C4H7N5/c1-2-7-4(3(5)6)9-8-2/h1H3,(H3,5,6)(H,7,8,9)
