17
gdb 28018	3.88634	0.92066	0.80512	5.5902	80.62	-0.211	0.0282	0.2392	1418.8872	0.136882	-380.932503	-380.923684	-380.922739	-380.967148	31.796	
C	 0.0242838064	 1.5135739943	 0.0467434861	-0.502104
C	 0.0164344877	 0.0223539774	-0.0254843292	 0.334336
C	 0.1042658274	-0.8320231386	-1.1008764068	-0.323821
C	 0.0508119657	-2.1692929174	-0.606995944	 0.290906
C	 0.097393782	-3.4396029881	-1.4147180802	-0.457842
C	 1.3634203434	-3.6262307116	-2.1333881077	 0.265934
N	 2.3575422642	-3.7681003288	-2.7051737966	-0.316678
C	-0.0679149287	-2.0904967577	 0.7602112996	-0.184131
N	-0.0894417066	-0.7611776614	 1.1005215859	-0.296622
H	 0.8571978708	 1.8927561992	 0.6515982188	 0.130756
H	 0.1282759445	 1.9325115085	-0.9563546044	 0.142934
H	-0.9022106731	 1.9124873739	 0.4783103095	 0.128253
H	 0.2068939359	-0.5323535362	-2.1332424512	 0.101836
H	-0.0539348748	-4.3069280438	-0.7629606647	 0.150538
H	-0.710955126	-3.4663628013	-2.1566945301	 0.155031
H	-0.1367351492	-2.8639417598	 1.5085738722	 0.120764
H	-0.1692925796	-0.4088567485	 2.0386994427	 0.259913
34.4557	88.4485	102.5712	203.3565	251.7147	319.7125	375.2873	386.0318	465.7681	484.2947	614.8252	647.3718	670.4359	716.6108	766.1945	812.2587	924.3795	932.0768	975.032	996.3937	1014.5855	1063.5445	1139.1866	1172.9257	1205.1372	1278.8907	1309.9631	1344.3716	1417.8153	1433.1145	1447.1874	1458.016	1481.1078	1502.4406	1555.4536	1637.123	2360.3742	3019.4777	3028.7054	3064.8105	3076.0635	3127.0358	3244.2355	3259.1771	3676.4518
CC1=CC(CC#N)=CN1	Cc1cc(CC#N)c[nH]1	
InChI=1S/C7H8N2/c1-6-4-7(2-3-8)5-9-6/h4-5,9H,2H2,1H3	InChI=1S/C7H8N2/c1-6-4-7(2-3-8)5-9-6/h4-5,9H,2H2,1H3
