20
gdb 86282	2.03489	1.5163	1.2676	1.342	81.6	-0.2236	0.0405	0.2641	1139.4801	0.167918	-403.087806	-403.077812	-403.076867	-403.122023	37.561	
C	-0.011914074	 1.4583407435	-0.1744242258	-0.33122
N	-0.0485953954	 0.0335179078	 0.0800120585	-0.102081
C	-1.3064542319	-0.5924443798	 0.5242057817	-0.217164
C	-0.4692472022	-1.6318156825	 1.3039123146	 0.126753
O	-0.2296634325	-2.8351524001	 0.6255920715	-0.434035
C	 0.704173717	-0.5674995816	 1.2250121644	 0.046967
C	 2.10289536	-1.0650691418	 0.8746308697	-0.437168
C	 0.7223587557	 0.2703545574	 2.4256579378	 0.343788
C	 0.7157059263	 0.9714799988	 3.403965344	-0.493367
H	 1.0093558542	 1.766907496	-0.4200715091	 0.122264
H	-0.6454907644	 1.6822116273	-1.0392918383	 0.119611
H	-0.3595811353	 2.06346098	 0.6793508328	 0.108857
H	-1.9089596112	 0.0431960818	 1.1921701849	 0.098693
H	-1.9439258786	-0.9765512707	-0.2804005981	 0.097526
H	-0.7958663263	-1.8921694204	 2.3097886967	 0.1002
H	-0.0529835366	-2.6186500124	-0.2973270525	 0.289694
H	 2.0589109512	-1.7626438596	 0.0361032215	 0.109378
H	 2.7468156053	-0.2248165076	 0.5978456772	 0.124222
H	 2.5553389621	-1.5729186763	 1.7308776662	 0.130254
H	 0.7196293265	 1.5838591403	 4.2717939422	 0.196827
95.6584	130.7052	149.3789	167.7786	208.3888	235.8304	271.0072	304.9547	374.3429	399.7683	431.9459	466.5669	525.2137	592.4276	623.4634	642.8147	648.3673	709.8206	861.0514	874.3782	920.8972	965.109	1015.5822	1095.4449	1113.2937	1138.7171	1164.8589	1173.0626	1189.997	1217.6971	1238.9243	1271.0236	1306.8596	1318.5324	1404.866	1436.539	1448.4881	1476.4152	1484.0546	1486.5951	1502.1433	1512.885	2216.295	2969.4775	2980.0642	3047.3289	3055.4219	3063.0841	3100.4766	3117.9294	3129.6328	3135.6205	3499.4622	3796.7579
CN1CC(O)C1(C)C#C	CN1C[C@@H](O)[C@]1(C)C#C	
InChI=1S/C7H11NO/c1-4-7(2)6(9)5-8(7)3/h1,6,9H,5H2,2-3H3	InChI=1S/C7H11NO/c1-4-7(2)6(9)5-8(7)3/h1,6,9H,5H2,2-3H3/t6-,7+/m1/s1
