16
gdb 50420	2.14521	1.75169	1.0894	3.8029	74.49	-0.2287	-0.0434	0.1853	1092.3636	0.124915	-434.083618	-434.075316	-434.074372	-434.11746	29.199	
N	-0.0430085947	 1.3063124676	 0.0513426737	-0.467366
C	-0.0329487926	 0.0356192972	-0.0016339223	 0.095066
N	-1.2025999184	-0.6992819659	 0.0296693096	-0.043722
C	-2.4915388349	-0.1738506674	 0.0104720145	 0.094852
N	-3.4521145977	-1.0103200208	-0.0021587295	-0.258052
C	-2.8589759593	-2.3520043115	 0.0280203087	-0.192218
C	-1.3032240182	-2.1466531795	-0.0792840353	-0.126589
C	-0.743951572	-2.6948237935	-1.3845806269	 0.156118
O	-0.181702016	-2.0411045572	-2.2213370092	-0.232807
H	 0.9062969597	 1.6693851411	 0.020566017	 0.231342
H	 0.8551883952	-0.5994329817	-0.0646027634	 0.104743
H	-2.5994620291	 0.9029451047	 0.007848524	 0.173223
H	-3.1343849625	-2.8584472081	 0.9585413942	 0.12993
H	-3.2491131054	-2.958974789	-0.7964963834	 0.126022
H	-0.7823510694	-2.6617380762	 0.7390460809	 0.117349
H	-0.9053565047	-3.7905422298	-1.5060475324	 0.09211
64.1352	87.0799	117.0412	202.8313	218.109	279.7171	337.6884	490.5453	516.6473	680.6678	707.3135	782.2122	793.2497	849.6693	913.7808	958.5966	975.9334	981.2428	1030.8214	1042.236	1095.7308	1158.2466	1204.6676	1240.2323	1254.3235	1313.069	1322.3802	1344.5807	1405.3404	1417.7164	1437.1387	1499.0598	1695.4471	1719.2493	1837.5531	2874.468	3014.738	3042.2985	3076.1171	3081.8708	3242.9738	3524.5806
N=CN1C=NCC1C=O	[NH][CH]N1C=NC[C@H]1C=O	
InChI=1S/C5H7N3O/c6-3-8-4-7-1-5(8)2-9/h2-6H,1H2	InChI=1S/C5H7N3O/c6-3-8-4-7-1-5(8)2-9/h2-6H,1H2/t5-/m0/s1
