19
gdb 70415	2.27013	1.49677	1.39769	1.1438	75.68	-0.2516	-0.031	0.2206	1066.3689	0.156206	-423.008303	-422.999165	-422.998221	-423.041885	34.176	
C	-0.0989396867	 1.5229596979	 0.0973263476	-0.518916
C	 0.1378768627	 0.0489367453	 0.037680511	 0.389195
O	-0.7592694904	-0.8156657803	 0.7338464807	-0.292272
C	 0.6532519057	-0.9362144061	 0.9996184526	-0.028582
C	 1.2532337866	-1.8144072713	-0.0973954514	-0.312105
C	 0.7046721772	-0.8048144427	-1.16478403	 0.160003
C	-0.3455008586	-1.3003579	-2.1547882786	-0.476688
C	 1.8040183794	-0.0387731581	-1.8687164466	 0.106096
O	 2.9766783763	-0.0744068206	-1.5916450776	-0.253719
H	 0.7926016248	 2.0771686911	-0.2129351754	 0.137422
H	-0.9266105707	 1.8142935713	-0.559173721	 0.133552
H	-0.3564978125	 1.8179430177	 1.1179159347	 0.1411
H	 0.9665256303	-0.8136957273	 2.0300878577	 0.106818
H	 2.344658111	-1.8226433311	-0.0940083664	 0.136866
H	 0.8591266756	-2.8316688477	-0.1518099396	 0.108283
H	-1.2007033747	-1.7039715404	-1.6083038792	 0.145739
H	-0.70011454	-0.4908566656	-2.8036056217	 0.116574
H	 0.058638722	-2.0901621982	-2.7969279429	 0.124971
H	 1.4373650523	 0.618340716	-2.691803204	 0.075662
75.9622	135.2272	196.6925	209.0391	226.0661	239.4697	295.5874	331.4667	383.6815	440.7197	479.5971	596.4472	626.7812	711.5665	763.5343	832.3569	874.8569	907.0214	934.4589	967.1821	991.869	1010.6785	1054.5176	1101.4925	1127.8532	1135.8881	1183.6871	1214.8976	1260.8375	1263.9495	1277.5991	1400.0035	1405.7147	1426.5996	1453.3531	1472.4164	1485.567	1491.0319	1494.902	1505.925	1818.2366	2857.3168	3029.8113	3034.8371	3072.1558	3092.3632	3098.4439	3122.2985	3128.1859	3139.1453	3187.0718
CC12OC1CC2(C)C=O	C[C@]12O[C@H]1C[C@]2(C)C=O	
InChI=1S/C7H10O2/c1-6(4-8)3-5-7(6,2)9-5/h4-5H,3H2,1-2H3	InChI=1S/C7H10O2/c1-6(4-8)3-5-7(6,2)9-5/h4-5H,3H2,1-2H3/t5-,6+,7-/m0/s1
