18
gdb 119505	5.11279	0.95899	0.90922	4.0339	72.23	-0.2155	0.0578	0.2733	1315.1395	0.145986	-438.96053	-438.952154	-438.95121	-438.993967	31.173	
C	 0.4785616308	 1.5300623385	-0.733166525	-0.224161
O	 0.5367724788	 0.2039836349	-1.2075801299	-0.240208
C	 0.2619022369	-0.755342847	-0.2090844652	-0.20602
C	 0.4125261224	-2.1160171128	-0.8091663211	 0.307037
N	 1.5079049794	-2.4700412993	-1.7322666498	-0.358213
C	 0.0908481609	-2.622050469	-2.1597266466	-0.157345
C	-0.4635601247	-3.9496274255	-1.526813747	 0.025001
O	 0.561582597	-4.5613544347	-0.7442345002	-0.210394
C	-0.1459165725	-3.4574553486	-0.1871129589	-0.043654
H	-0.5238437763	 1.7819579614	-0.3540676706	 0.10903
H	 1.2067885095	 1.7060350833	 0.0732851031	 0.111266
H	 0.7143177398	 2.1866027137	-1.5736971074	 0.132506
H	 0.9547428438	-0.6330701515	 0.6429538171	 0.099364
H	-0.7608170599	-0.6248449413	 0.186832785	 0.095195
H	 1.8128368293	-1.5777850774	-2.1265036803	 0.240874
H	-0.3122950661	-2.0995045845	-3.0161393844	 0.105776
H	-1.2694526422	-4.5725431099	-1.8947502211	 0.108904
H	-0.6344007869	-3.5870968904	 0.7715887221	 0.105042
73.7974	95.883	135.7917	223.2284	254.5957	327.5343	354.0593	420.7488	467.4119	647.5694	708.2582	758.0204	803.2316	832.9845	847.4341	890.9436	905.0837	944.5388	986.1631	991.559	1021.3978	1035.1025	1083.9132	1126.0002	1157.0899	1182.8475	1199.1945	1216.8437	1225.9676	1255.5693	1275.8368	1323.9967	1363.2126	1415.8011	1454.0651	1481.7897	1486.3137	1502.307	1525.5332	2938.8555	2962.471	2978.378	3025.1384	3120.346	3180.5094	3197.8769	3216.3013	3459.1081
COCC12NC1C1OC21	COC[C@]12N[C@H]1[C@H]1O[C@@H]21	
InChI=1S/C6H9NO2/c1-8-2-6-4(7-6)3-5(6)9-3/h3-5,7H,2H2,1H3	InChI=1S/C6H9NO2/c1-8-2-6-4(7-6)3-5(6)9-3/h3-5,7H,2H2,1H3/t3-,4+,5-,6+/m1/s1
