15
gdb 45398	2.17129	1.79174	1.29745	4.8781	70.48	-0.2615	-0.0575	0.204	1001.1218	0.112445	-416.784478	-416.776734	-416.775789	-416.817268	28.47	
O	 0.040439979	-0.0452232918	-0.4173835423	-0.254702
C	-0.0346032041	 1.1041711168	-0.1271915725	 0.350106
C	-1.1342553422	 2.0812494709	 0.3145653962	-0.301373
N	-0.1239296444	 3.1682860784	 0.496006081	-0.150072
C	 0.496202353	 3.1621049533	 1.8663647761	-0.16784
C	 1.7226158032	 2.3508576299	 1.3755757991	-0.302731
C	 1.0040548415	 2.2706671976	-0.0009259203	 0.074137
C	 1.7369744004	 2.6285664646	-1.1959638711	 0.243561
N	 2.3267727129	 2.8953167338	-2.1542076205	-0.326056
H	-1.838958936	 2.3098192649	-0.4928600988	 0.15865
H	-1.7025773526	 1.8030028258	 1.2082347935	 0.142063
H	 0.7194946861	 4.1734257624	 2.2119453918	 0.132006
H	-0.1208431503	 2.6635652733	 2.6208443034	 0.116059
H	 2.6525402595	 2.9179158531	 1.3314574133	 0.146858
H	 1.913494184	 1.3889119869	 1.8533487411	 0.139334
65.9888	117.209	166.4946	202.0498	360.0188	382.8235	476.1138	536.779	546.7939	598.4254	659.9304	741.5516	793.7995	824.4554	893.5583	940.871	965.0916	1015.9757	1040.8331	1041.6065	1116.0572	1166.6858	1183.5089	1207.7925	1229.4271	1257.1362	1268.635	1311.1146	1450.2056	1484.3453	1512.3132	1918.0026	2348.8192	3041.5022	3052.2494	3089.452	3093.2565	3107.7849	3148.9502
O=C1CN2CCC12C#N	O=C1CN2CC[C@@]12C#N	
InChI=1S/C6H6N2O/c7-4-6-1-2-8(6)3-5(6)9/h1-3H2	InChI=1S/C6H6N2O/c7-4-6-1-2-8(6)3-5(6)9/h1-3H2/t6-/m1/s1
