13
gdb 101970	1.61818	1.47615	1.35778	2.303	63.76	-0.3017	-0.088	0.2137	1077.9531	0.086276	-452.749938	-452.740505	-452.739561	-452.784921	31.608	
O	 0.1899385995	 1.2714174262	 0.042725108	-0.40363
C	-0.0247684406	-0.1066100073	 0.1372400492	-0.078774
C	-1.54466407	-0.4749288495	 0.0415079299	-0.198798
C	-1.7461483556	-2.028543508	 0.1471578726	 0.161449
O	-0.8270630617	-2.7773602674	 0.2857264808	-0.205818
C	-2.2712762527	 0.1485883483	 1.1543778774	 0.279448
N	-2.7912970934	 0.6186263078	 2.0728758081	-0.306222
C	-2.1162573403	-0.0491479824	-1.241337258	 0.304568
N	-2.5592958631	 0.2171959748	-2.274018155	-0.302238
H	-0.0686892513	 1.6903149282	 0.8714578011	 0.307755
H	 0.4830600244	-0.5792395294	-0.7055325224	 0.156606
H	 0.3611018203	-0.5479237346	 1.0631372242	 0.138303
H	-2.8009592754	-2.3538949767	 0.0771286841	 0.147352
60.9987	88.6371	124.1602	142.6152	186.6526	199.4774	244.3544	359.2082	367.6852	465.7588	501.3134	504.2622	581.64	650.845	700.1827	894.5126	991.9755	1015.5256	1071.7667	1106.4651	1136.6981	1265.6543	1389.659	1401.7857	1410.6587	1489.1112	1850.1675	2355.9606	2364.1019	2967.5935	3047.1458	3128.5809	3805.577
OCC(C=O)(C#N)C#N	OCC(C=O)(C#N)C#N	
InChI=1S/C5H4N2O2/c6-1-5(2-7,3-8)4-9/h3,9H,4H2	InChI=1S/C5H4N2O2/c6-1-5(2-7,3-8)4-9/h3,9H,4H2
