17
gdb 66490	2.99057	1.75465	1.39978	2.4799	71.02	-0.2233	0.074	0.2973	940.2567	0.135948	-421.742545	-421.735504	-421.734559	-421.773376	29.683	
O	-0.1356428474	 1.4178209183	 0.0090288722	-0.456085
C	 0.0400031668	 0.0600948349	-0.0426865107	 0.381922
C	 0.0774399701	-1.0136160898	 1.0245441768	-0.168088
C	-1.0104804726	-1.0077515984	-0.0784933706	-0.157921
C	-0.2999191256	-1.8512600414	-1.1541602825	 0.41575
O	-1.0072061107	-2.0055915928	-2.3348678404	-0.482636
C	 0.4514366587	-3.0007378773	-0.430614576	-0.307403
C	 1.1682036227	-1.8487164634	 0.3152581339	-0.055817
C	 0.9415202002	-0.8852084741	-0.9132404904	-0.236078
H	 0.6215178057	 1.8064225437	 0.4622113747	 0.286866
H	-0.1809059621	-0.9610186827	 2.0745440534	 0.08786
H	-2.06749084	-0.9498235471	 0.1434725829	 0.094297
H	-0.4458586179	-2.4666406173	-2.9670674346	 0.280055
H	-0.1259929711	-3.729832952	 0.1457852206	 0.096405
H	 1.1343425247	-3.5197156432	-1.1138268839	 0.085993
H	 2.1326489165	-1.985477095	 0.8011734242	 0.066255
H	 1.691198172	-0.6329095126	-1.6596982296	 0.068625
202.2423	289.1762	291.686	316.9892	359.3896	396.9733	458.6724	577.9062	584.3898	594.6739	723.4875	771.1799	796.9221	827.8155	855.2084	882.8843	903.2573	921.7326	954.1548	993.9038	1008.5674	1025.4774	1050.1488	1059.2507	1093.5425	1111.3847	1136.4552	1172.48	1200.8668	1221.4125	1240.6128	1266.6626	1303.0507	1311.1194	1398.7086	1482.4737	1490.8587	3032.7152	3092.8473	3126.5369	3147.2685	3194.411	3212.1464	3783.95	3808.7965
OC12C3C1C1(O)CC3C21	O[C@@]12[C@H]3[C@@H]1[C@]1(O)C[C@H]3[C@H]21	
InChI=1S/C7H8O2/c8-6-1-2-3-5(6)7(3,9)4(2)6/h2-5,8-9H,1H2	InChI=1S/C7H8O2/c8-6-1-2-3-5(6)7(3,9)4(2)6/h2-5,8-9H,1H2/t2-,3-,4+,5-,6+,7-/m1/s1
