21
gdb 70744	2.50535	1.59356	1.20018	2.0019	78.11	-0.2382	0.0861	0.3242	1110.2529	0.183777	-424.215278	-424.207051	-424.206107	-424.247547	32.872	
C	-0.0941323185	 1.5055652481	 0.0657740437	-0.463156
C	-0.0047353189	-0.0069921901	-0.0089638744	 0.308326
C	-0.7958633359	-0.816621179	 1.0048556847	-0.366284
C	 0.6959837127	-0.7206884672	 1.1244671423	 0.0675
O	 1.4310217982	-1.8838062015	 0.865915429	-0.240494
C	 2.5879479138	-1.6711756	 0.0862761903	 0.019672
O	 2.3616284826	-1.7309148761	-1.2905539081	-0.226997
C	 1.6548256444	-0.632202191	-1.8510176412	-0.072892
C	 0.1852986661	-0.5758921746	-1.4130972629	-0.278638
H	 0.7697634383	 1.9834138259	-0.4114850496	 0.115491
H	-0.9959493256	 1.8709303011	-0.4397130122	 0.118298
H	-0.1321698653	 1.8539004212	 1.1028058524	 0.115025
H	-1.406942926	-0.294076857	 1.7335099336	 0.108974
H	-1.188811592	-1.7747568705	 0.6832341117	 0.123621
H	 1.1100600224	-0.1100129561	 1.9281324419	 0.081658
H	 3.0523479914	-0.7078056772	 0.36183764	 0.073426
H	 3.2663751799	-2.4973887463	 0.3118615595	 0.112774
H	 2.1691224903	 0.3116956774	-1.6049544235	 0.087272
H	 1.7207010986	-0.7742038354	-2.9341071875	 0.106303
H	-0.2165242995	-1.5907908573	-1.4843214988	 0.115187
H	-0.3761714367	 0.0398810655	-2.1275607607	 0.094933
146.0276	160.7796	219.791	239.9831	331.1264	348.0662	378.9901	390.8898	428.317	465.8726	569.9407	613.8024	722.2423	799.8218	833.061	873.9899	926.6592	948.3851	974.0179	1015.621	1024.2701	1039.5098	1054.4075	1068.5886	1112.6599	1127.394	1140.6461	1159.9894	1206.7818	1226.0057	1291.8819	1298.8723	1328.0381	1343.2526	1379.7891	1399.6364	1417.2046	1418.4971	1450.1587	1465.2152	1485.1523	1491.037	1491.9447	1501.8213	1504.047	2946.7093	2972.5356	3019.3624	3027.3568	3078.6412	3079.8145	3087.2275	3090.2703	3097.1958	3103.6384	3130.7864	3220.9577
CC12CC1OCOCC2	C[C@]12C[C@H]1OCOCC2	
InChI=1S/C7H12O2/c1-7-2-3-8-5-9-6(7)4-7/h6H,2-5H2,1H3	InChI=1S/C7H12O2/c1-7-2-3-8-5-9-6(7)4-7/h6H,2-5H2,1H3/t6-,7+/m1/s1
