19
gdb 73238	2.21125	1.87735	1.35813	2.5626	74.31	-0.2466	-0.0284	0.2182	1015.7715	0.159942	-423.050922	-423.042938	-423.041994	-423.083397	31.508	
O	 0.1029971548	 1.385294644	-0.1845078351	-0.486316
C	 0.0126077132	-0.0018086933	-0.0559230211	 0.344391
C	 0.3162629586	-0.8473554001	-1.3351296736	-0.29088
C	-1.0183627604	-1.6166851828	-1.1408955707	-0.231736
C	-1.3917277779	-0.6848478158	 0.0516759659	-0.058446
C	-1.4538546703	-1.3661095712	 1.4351159258	-0.239114
C	 0.0187057061	-1.6521175023	 1.8078803334	-0.32511
C	 0.7560518352	-0.4696147366	 1.1975378255	 0.339928
O	 1.7008302231	 0.1288583589	 1.6537692606	-0.337783
H	 0.8852196088	 1.6485036096	 0.3244935619	 0.286981
H	 0.3126883429	-0.1871733891	-2.2050087275	 0.12266
H	 1.2404894114	-1.4322661455	-1.3422818698	 0.101512
H	-1.7015187793	-1.5763267664	-1.9911165263	 0.108767
H	-0.8989524061	-2.6658292517	-0.8560072206	 0.097951
H	-2.2378027873	-0.0244921136	-0.1411243437	 0.084225
H	-1.8869520733	-0.6790658824	 2.1707758496	 0.114118
H	-2.071373307	-2.2689575371	 1.4268332922	 0.106858
H	 0.2201552371	-1.7372262176	 2.8768994444	 0.129859
H	 0.3746744905	-2.5735423972	 1.3282473091	 0.132135
70.7117	148.3899	211.6298	276.3225	313.4101	385.0903	439.8783	477.7503	488.1012	577.6218	646.1606	688.8475	718.8618	798.2559	814.0681	827.1999	912.2754	940.6162	947.1171	976.3198	1026.0972	1050.0723	1059.4765	1105.2775	1126.861	1161.3238	1189.6526	1217.0221	1231.7986	1238.1761	1266.7915	1282.5895	1315.0817	1326.0773	1350.7963	1402.1476	1458.2302	1472.5999	1489.9682	1496.472	1829.2334	3031.5508	3042.8162	3055.4759	3063.0938	3090.1208	3101.6092	3112.067	3123.1332	3126.4207	3705.684
OC12CCC1CCC2=O	O[C@]12CC[C@H]1CCC2=O	
InChI=1S/C7H10O2/c8-6-2-1-5-3-4-7(5,6)9/h5,9H,1-4H2	InChI=1S/C7H10O2/c8-6-2-1-5-3-4-7(5,6)9/h5,9H,1-4H2/t5-,7-/m1/s1
