18
gdb 74319	2.92787	1.31833	0.97054	3.915	83.23	-0.2056	-0.004	0.2016	1216.7525	0.148232	-401.976047	-401.967925	-401.96698	-402.00876	30.919	
C	-0.0373267174	 1.505973407	 0.0972912561	-0.493642
C	 0.0113514123	 0.0163768475	 0.0101168645	 0.245178
C	 0.0578476878	-0.7357246262	-1.1004104889	-0.125329
N	 0.0490332499	-2.1110160716	-0.803432819	-0.039131
C	-0.0231380351	-3.114968281	-1.7265899392	 0.141696
O	-0.0447701371	-2.9500277103	-2.9276926546	-0.331017
C	 0.0727914379	-2.2867879363	 0.6292992303	-0.002766
C	 1.2630232043	-1.7478520691	 1.379156389	-0.31153
C	 0.0251899606	-0.880327558	 1.2083553341	-0.152155
H	 0.8345311365	 1.9082130463	 0.6288966461	 0.129501
H	-0.0697854789	 1.962861179	-0.8952975927	 0.130198
H	-0.923417237	 1.8414265089	 0.651636224	 0.127563
H	 0.1087161816	-0.4429718707	-2.1379175863	 0.151251
H	-0.0583637776	-4.1107512522	-1.2439897242	 0.074153
H	-0.4931257453	-3.124350937	 1.0182097016	 0.114451
H	 1.4362683752	-2.1748181759	 2.3608177423	 0.120415
H	 2.1557699924	-1.483444107	 0.8234201608	 0.125206
H	-0.5656603802	-0.6277570435	 2.082883006	 0.095957
94.3552	180.131	185.1726	191.1151	264.9002	326.8846	384.2938	425.7531	508.7081	592.2898	616.4173	731.8472	771.7379	810.7623	871.9526	901.1554	935.3516	955.2956	1014.0431	1018.4611	1051.3977	1055.7247	1069.6403	1083.4864	1093.2015	1175.6845	1198.4006	1260.5936	1270.9847	1332.5398	1363.9456	1415.6412	1435.418	1450.61	1470.6689	1476.4257	1493.066	1696.985	1789.9106	2946.5393	3014.9848	3058.2795	3112.843	3133.7783	3158.1419	3185.1773	3227.6083	3264.1987
CC1=CN(C=O)C2CC12	CC1=CN(C=O)[C@H]2C[C@@H]12	
InChI=1S/C7H9NO/c1-5-3-8(4-9)7-2-6(5)7/h3-4,6-7H,2H2,1H3	InChI=1S/C7H9NO/c1-5-3-8(4-9)7-2-6(5)7/h3-4,6-7H,2H2,1H3/t6-,7-/m0/s1
