19
gdb 52946	3.04952	0.98373	0.87584	2.0194	88.27	-0.2152	0.0251	0.2403	1435.224	0.15673	-385.831113	-385.821439	-385.820494	-385.867134	34.665	
C	 0.014864377	 1.4456699418	 0.0065085497	-0.507492
C	-0.0090052872	-0.0083543282	 0.0155535904	 0.181528
C	-0.0224876612	-1.2142117629	 0.0189103932	-0.083444
C	-0.0356685191	-2.6331169889	 0.0200111314	 0.271895
C	-0.310316908	-3.5219275397	 1.2081882635	-0.38277
C	-1.1639530289	-3.6698295644	-0.0306090877	 0.189049
C	-2.6536091834	-3.5107082544	-0.0562104656	-0.488941
C	-0.313183882	-4.3263384826	-1.11306477	-0.130007
O	 0.7556234877	-3.3600332394	-0.9383525255	-0.324673
H	 0.8318896938	 1.8143996294	-0.6235627379	 0.156192
H	-0.9192035638	 1.8617331557	-0.3876527738	 0.148716
H	 0.1646915297	 1.8515750508	 1.0131588523	 0.149505
H	 0.4325651671	-4.2704766904	 1.4722934718	 0.114885
H	-0.8033832034	-3.0379038691	 2.0451415388	 0.121516
H	-2.9731173324	-2.7243162055	 0.6346538802	 0.128655
H	-3.0078311448	-3.2408002739	-1.0569754321	 0.12371
H	-3.1588830471	-4.4375532594	 0.241406765	 0.123575
H	 0.0242359468	-5.3559490301	-0.9429534589	 0.101597
H	-0.7488866911	-4.2401255188	-2.1160795549	 0.106503
18.8311	77.2767	98.7954	175.8714	205.9955	246.8	318.4236	337.5445	382.5068	412.9614	495.8789	527.402	567.3538	651.6722	779.2387	827.79	904.3833	950.4824	958.358	992.3651	1022.8733	1036.3007	1049.0908	1054.2126	1064.4128	1108.9386	1123.5038	1158.5325	1260.1823	1285.2855	1359.5247	1400.1056	1414.2448	1426.5173	1473.8345	1478.4334	1482.8844	1486.5967	1497.2644	1520.2837	2358.8802	3014.4301	3023.6051	3024.974	3063.3701	3083.0854	3084.0966	3088.8881	3102.6451	3110.3189	3209.203
CC#CC12CC1(C)CO2	CC#C[C@@]12C[C@]1(C)CO2	
InChI=1S/C8H10O/c1-3-4-8-5-7(8,2)6-9-8/h5-6H2,1-2H3	InChI=1S/C8H10O/c1-3-4-8-5-7(8,2)6-9-8/h5-6H2,1-2H3/t7-,8-/m1/s1
