17
gdb 30676	4.11869	0.99626	0.87335	3.7994	70.62	-0.2312	0.0176	0.2489	1304.315	0.137687	-455.176084	-455.167692	-455.166747	-455.20982	31.179	
O	 0.0060679373	 1.4356045797	 0.0944573691	-0.421482
C	-0.0611305931	 0.052871367	 0.3489955158	-0.053762
C	-1.4194478008	-0.5080677339	-0.1159809468	-0.004924
O	-1.6160619709	-0.133411105	-1.4681936312	-0.442285
C	-1.4874636667	-2.0016458984	 0.0043511319	 0.352441
N	-1.3561780938	-2.805043634	-1.0283539865	-0.319904
C	-1.4314787725	-4.0842170346	-0.5237620189	-0.086337
C	-1.6067236577	-4.0485795514	 0.8318533945	-0.110838
N	-1.6393189273	-2.7068273371	 1.1588123782	-0.303193
H	-0.2898252352	 1.5371839413	-0.8200435748	 0.291931
H	 0.7377751677	-0.5039480874	-0.1677299732	 0.092254
H	 0.0694832533	-0.090037829	 1.4283135348	 0.091849
H	-2.209422671	-0.0321531546	 0.4826952017	 0.090088
H	-1.4602391457	-0.9367976967	-1.990229992	 0.30037
H	-1.3585899729	-4.948961625	-1.164694528	 0.116666
H	-1.7131024995	-4.8195378003	 1.5762776782	 0.135843
H	-1.7725249412	-2.3239772807	 2.0799976075	 0.27128
48.8956	111.345	121.087	242.328	286.5698	362.6805	418.4126	431.2626	520.8798	536.2092	546.3452	642.6637	719.5097	738.2836	808.3872	855.7637	887.4582	931.2911	1005.6965	1073.4896	1085.2621	1097.7683	1113.0526	1141.3517	1191.5602	1218.806	1231.2243	1304.483	1330.7513	1380.9242	1386.812	1434.8516	1442.8261	1489.8043	1499.4531	1513.917	1590.1305	2972.4552	3006.9797	3059.8991	3255.7074	3285.1068	3662.8999	3686.4536	3766.5532
OCC(O)C1=NC=CN1	OC[C@@H](O)c1ncc[nH]1	
InChI=1S/C5H8N2O2/c8-3-4(9)5-6-1-2-7-5/h1-2,4,8-9H,3H2,(H,6,7)	InChI=1S/C5H8N2O2/c8-3-4(9)5-6-1-2-7-5/h1-2,4,8-9H,3H2,(H,6,7)/t4-/m1/s1
