15
gdb 109501	2.31818	1.60685	0.9866	2.4414	61.64	-0.2695	-0.0579	0.2115	1118.4433	0.112115	-494.952166	-494.94407	-494.943126	-494.985618	29.198	
O	 0.0152120157	 1.4787122521	-0.1697526416	-0.418662
C	 0.0948800798	 0.0789006448	-0.0996936079	-0.060348
C	-1.3071937786	-0.5559319371	 0.0286539713	-0.328631
C	-1.3675875733	-2.0717497874	 0.0176093945	 0.375128
O	-0.8043522244	-2.8297994731	-0.7232828688	-0.291817
C	-2.291011506	-2.4755250685	 1.1710976499	-0.194763
O	-2.5601290202	-1.2770614264	 1.9076838605	-0.214349
C	-1.9823082346	-0.1870705645	 1.3366411934	 0.455704
O	-2.0089296827	 0.8931002271	 1.8601325526	-0.342671
H	-0.4826320886	 1.7729081524	 0.6061666569	 0.302807
H	 0.5560952539	-0.2781222848	-1.0241106474	 0.13662
H	 0.7226448161	-0.2616855284	 0.7389232783	 0.100996
H	-1.9212828855	-0.1720572518	-0.7971432281	 0.160988
H	-3.2285051271	-2.8981164887	 0.7935988133	 0.157888
H	-1.8131469946	-3.2085892257	 1.8275273733	 0.161109
52.6272	138.1294	163.9556	175.5162	259.0113	338.197	431.4851	514.5375	530.9433	570.8849	595.5473	668.7732	714.7293	801.2503	856.8375	962.0783	1008.3745	1075.1758	1079.8203	1092.1895	1119.0838	1180.8982	1192.7259	1220.2189	1242.5454	1300.8154	1359.0584	1386.4869	1447.4111	1480.3743	1513.0538	1843.5776	1879.9851	2980.4067	3037.8933	3052.3823	3099.6574	3104.1081	3741.8788
OCC1C(=O)COC1=O	OC[C@H]1C(=O)COC1=O	
InChI=1S/C5H6O4/c6-1-3-4(7)2-9-5(3)8/h3,6H,1-2H2	InChI=1S/C5H6O4/c6-1-3-4(7)2-9-5(3)8/h3,6H,1-2H2/t3-/m0/s1
