20
gdb 60890	2.74008	1.26864	1.03604	2.4783	79.73	-0.2328	-0.0278	0.205	1212.2051	0.170254	-403.077405	-403.068581	-403.067636	-403.112016	32.613	
C	 0.0041857882	 1.5623109935	-0.0027150841	-0.420184
C	-0.0043080456	 0.0261129793	 0.0138525971	-0.202979
C	 0.7456516927	-0.5034358093	 1.2220435704	 0.161039
O	 1.5404949164	-1.4070409458	 1.2012998564	-0.249609
C	-1.4270365001	-0.5296242338	 0.0377034683	 0.313801
C	-2.5822065901	-0.2715989096	-0.962673935	-0.220692
N	-3.2350295315	-1.2456700776	 0.0320844145	-0.140438
C	-1.8969458671	-2.0018067969	-0.0391786301	-0.212633
C	-2.5423596274	-0.3965232543	 1.1098784428	-0.213326
H	 1.0233330494	 1.9532458134	-0.0743543432	 0.129704
H	-0.5634758106	 1.9412178479	-0.8572769233	 0.130463
H	-0.4503312509	 1.969549341	 0.9071335629	 0.125608
H	 0.5006421881	-0.3714534024	-0.8740828733	 0.09811
H	 0.4841101799	 0.0081874613	 2.1795029004	 0.071215
H	-3.0495055154	 0.7168949897	-0.9725127088	 0.102523
H	-2.4858100746	-0.6785309494	-1.9732917767	 0.104001
H	-1.7483981155	-2.5391429312	-0.97980533	 0.104653
H	-1.7142574528	-2.6493079244	 0.8224207556	 0.10971
H	-2.4143156173	-0.9230597106	 2.0598704653	 0.106384
H	-3.0077580456	 0.5820600291	 1.2573948311	 0.10265
44.2047	50.9811	173.8706	184.3006	206.0063	282.3428	368.8463	405.6151	484.5136	584.7115	592.9546	660.2143	789.9832	796.8829	871.0432	902.9046	932.9143	961.3843	963.9948	978.2463	994.0982	1025.5372	1066.7704	1087.8747	1139.7127	1161.6839	1168.3431	1170.0755	1178.9436	1202.9343	1204.2577	1251.5855	1292.1604	1312.9318	1334.0514	1407.5296	1428.4616	1496.948	1499.5885	1511.565	1512.5427	1564.69	1831.4574	2843.3241	3036.6794	3045.4618	3047.9075	3050.2203	3057.7592	3105.8737	3111.8593	3114.8366	3117.9186	3121.3362
CC(C=O)C12CN(C1)C2	C[C@@H](C=O)[C@@]12CN(C1)C2	
InChI=1S/C7H11NO/c1-6(2-9)7-3-8(4-7)5-7/h2,6H,3-5H2,1H3	InChI=1S/C7H11NO/c1-6(2-9)7-3-8(4-7)5-7/h2,6H,3-5H2,1H3/t6-/m0/s1
