18
gdb 63830	3.06128	1.51666	1.33831	1.7468	70.67	-0.2454	0.0168	0.2622	1004.7155	0.147885	-439.089026	-439.081034	-439.08009	-439.121608	31.026	
C	 0.2999368503	 1.4938284874	 0.0065365005	-0.448487
C	 0.0387082324	-0.0044649026	-0.0024949597	 0.36273
O	-1.3503325349	-0.2897257413	-0.0410402935	-0.474103
C	 0.8857594387	-0.853206895	-1.0215980124	-0.289813
C	 1.5262052621	-1.6325994979	 0.157773774	-0.01525
N	 2.9030337304	-1.2285363555	 0.4865007288	-0.265805
C	 2.8061415097	-0.447742339	 1.4808536731	 0.109555
O	 1.5854443218	-0.1536146861	 2.007454367	-0.22078
C	 0.6423675827	-0.8413075127	 1.1643563887	 0.057453
H	 1.364927664	 1.7208295507	 0.0969658233	 0.12778
H	-0.0529329382	 1.9353931011	-0.9338673592	 0.107174
H	-0.2310808451	 1.9707249758	 0.8349526027	 0.131143
H	-1.7171828167	 0.1226548379	-0.8309033909	 0.277888
H	 0.2541981571	-1.467532694	-1.6673712016	 0.104549
H	 1.6036573844	-0.2955928408	-1.6273175232	 0.106669
H	 1.4496422073	-2.7204933006	 0.1163983794	 0.088897
H	 3.6352136443	 0.0327819911	 1.9885703277	 0.141483
H	-0.1001839201	-1.3414527985	 1.7853904054	 0.098915
51.734	212.9279	231.7387	263.4084	311.2505	329.3858	374.1882	386.593	511.8722	562.1373	621.0502	751.5784	795.5443	852.9482	876.0424	897.5786	901.7874	950.0058	960.5558	974.5718	1012.3645	1031.6013	1095.6048	1115.8773	1126.6664	1182.0547	1203.8887	1239.0291	1256.2131	1275.8802	1305.9569	1312.9901	1347.9966	1375.3973	1407.997	1461.1573	1487.6428	1489.7687	1687.3061	3028.6155	3064.4365	3089.628	3100.1092	3123.009	3126.8405	3130.9153	3216.4064	3801.7677
CC1(O)CC2N=COC12	C[C@@]1(O)C[C@H]2N=CO[C@@H]12	
InChI=1S/C6H9NO2/c1-6(8)2-4-5(6)9-3-7-4/h3-5,8H,2H2,1H3	InChI=1S/C6H9NO2/c1-6(8)2-4-5(6)9-3-7-4/h3-5,8H,2H2,1H3/t4-,5-,6-/m1/s1
