18
gdb 115201	3.48769	1.09129	0.98232	3.5699	75.94	-0.2391	-0.0548	0.1843	1232.4584	0.149041	-439.09965	-439.091421	-439.090476	-439.132801	31.198	
O	 0.0760221986	 1.3895161809	 0.1112768764	-0.416789
C	 0.0586032878	-0.0083352035	-0.0518426596	-0.066024
C	-1.3805671623	-0.5518838507	-0.0397816161	-0.054922
N	-1.9753036653	-0.1784276383	 1.2448849641	-0.325148
C	-3.4163060181	-0.4006680495	 1.3448084073	-0.282613
C	-4.1691726238	 0.3331484679	 0.2381944703	 0.3942
O	-5.315354116	 0.7021816831	 0.3873090156	-0.325737
C	-3.4382115307	 0.476898326	-1.0334356439	-0.185163
C	-2.1846631954	 0.030385165	-1.168680226	 0.004308
H	-0.5948461297	 1.5723336518	 0.7848510581	 0.286444
H	 0.540523481	-0.240961655	-1.0077730968	 0.10872
H	 0.6341568063	-0.5219734601	 0.7387418985	 0.081712
H	-1.3301191728	-1.6503363322	-0.1897037322	 0.078182
H	-1.4981880812	-0.6685071392	 1.994658574	 0.229462
H	-3.7009379297	-1.4680949418	 1.2680854157	 0.10808
H	-3.781294688	-0.0359932323	 2.307962528	 0.132803
H	-3.9886497978	 0.9173388527	-1.8585709591	 0.113307
H	-1.6820298331	 0.0823435251	-2.1312576342	 0.119177
66.2945	121.6086	166.3513	259.8381	291.7162	333.3059	424.554	447.6606	491.877	526.7058	606.2516	683.4061	719.9867	753.6936	784.3274	888.0518	922.1765	957.1671	997.506	1017.4955	1030.4771	1075.7544	1110.859	1143.1365	1179.1151	1207.3347	1248.3862	1262.0066	1286.7572	1314.2145	1369.4612	1392.5873	1413.9094	1442.6114	1479.0057	1488.1825	1516.2928	1686.015	1789.0335	2885.0581	2919.181	2948.8622	3066.8502	3099.6089	3162.7356	3192.3737	3518.1338	3733.4681
OCC1NCC(=O)C=C1	OC[C@H]1NCC(=O)C=C1	
InChI=1S/C6H9NO2/c8-4-5-1-2-6(9)3-7-5/h1-2,5,7-8H,3-4H2	InChI=1S/C6H9NO2/c8-4-5-1-2-6(9)3-7-5/h1-2,5,7-8H,3-4H2/t5-/m0/s1
