16
gdb 33915	4.04444	1.29616	1.17904	4.3678	73.86	-0.2761	-0.0078	0.2683	1051.5702	0.124938	-400.697621	-400.690495	-400.68955	-400.729193	27.888	
N	 0.0334263381	-1.151826668	-0.1543825572	-0.338361
C	 0.0567966745	-0.0002134744	-0.0481808499	 0.193633
C	 0.0601098569	 1.4154721942	 0.1480013705	 0.314097
O	 0.2373676637	 2.2608140926	-0.9964326959	-0.258256
C	 1.1563635665	 2.4174468277	 0.0836395915	-0.054001
C	 0.4880919358	 3.2794350247	 1.1795778943	-0.056296
C	-0.5261774336	 4.3588493218	 0.698361715	-0.227654
C	-1.679875069	 3.3063257655	 0.7649437167	-0.229568
C	-0.668826797	 2.2295968905	 1.2524088542	-0.113599
H	 2.2074058713	 2.2853158399	-0.1483251624	 0.128172
H	 1.1190643208	 3.4875682532	 2.0426712475	 0.087991
H	-0.640286972	 5.1794383132	 1.4093761203	 0.107765
H	-0.3266314034	 4.7714819795	-0.2916778312	 0.118632
H	-2.443377576	 3.5360843001	 1.5107591127	 0.108272
H	-2.1676545204	 3.0860677248	-0.185591219	 0.122215
H	-0.8758122461	 1.6683475846	 2.1620709528	 0.096959
121.2988	149.0793	205.0045	298.4394	382.337	475.8135	547.1223	589.1186	618.0237	702.5994	732.4851	801.3837	825.2079	859.6754	874.8478	911.3111	952.3971	959.9328	993.2644	1033.131	1059.1022	1102.566	1129.8759	1144.4341	1204.0773	1230.6324	1243.6546	1254.7734	1275.4883	1284.2694	1307.3495	1407.3522	1464.1231	1483.7663	2353.4046	3074.439	3079.7689	3119.8784	3127.406	3132.9669	3143.4912	3186.0915
N#CC12OC1C1CCC21	N#C[C@]12O[C@H]1[C@H]1CC[C@@H]21	
InChI=1S/C7H7NO/c8-3-7-5-2-1-4(5)6(7)9-7/h4-6H,1-2H2	InChI=1S/C7H7NO/c8-3-7-5-2-1-4(5)6(7)9-7/h4-6H,1-2H2/t4-,5+,6-,7+/m0/s1
