13
gdb 27402	2.06077	1.97518	1.00853	5.126	64.4	-0.2272	-0.0043	0.2229	1065.4131	0.091899	-486.128154	-486.120871	-486.119927	-486.160146	27.67	
O	-0.1202053257	 1.2850101042	 0.0104113664	-0.408224
C	 0.0387731052	-0.0437381521	 0.0023759307	 0.497152
N	 1.1791682794	-0.6059606201	-0.0070255045	-0.360823
C	 1.2283153601	-2.0156733612	-0.0149667587	 0.358868
N	 2.3652084892	-2.5886583797	-0.0241308878	-0.515538
N	 0.0064731433	-2.7426356547	-0.0120938314	-0.405471
C	-1.0844296374	-2.0849850128	-0.0024588527	 0.49519
O	-2.2898643254	-2.6667196939	 0.0010535108	-0.406201
N	-1.1643071563	-0.7135667642	 0.0054687136	-0.398493
H	 0.7738498434	 1.6577334724	 0.0074331612	 0.320811
H	 2.2140507071	-3.5979052798	-0.0286629991	 0.214768
H	-2.1261640355	-3.6209669606	-0.0050550192	 0.31926
H	-2.0476707774	-0.2293160076	 0.0128686407	 0.288704
89.0114	174.509	238.0104	346.4126	375.073	420.8813	537.1069	547.8471	549.3348	557.6742	598.3878	666.1185	709.0795	730.186	786.0037	897.9237	932.3099	1003.3955	1055.2016	1132.2688	1193.2374	1264.5323	1306.2405	1345.5415	1492.489	1540.5623	1673.0845	1714.4984	1788.4928	3485.1347	3652.6673	3764.8435	3770.7302
OC1=NC(=N)N=C(O)N1	OC1=NC(=N[C@@H](O)N1)[NH]	
InChI=1S/C3H4N4O2/c4-1-5-2(8)7-3(9)6-1/h(H4,4,5,6,7,8,9)	InChI=1S/C3H5N4O2/c4-1-5-2(8)7-3(9)6-1/h2,4,8H,(H2,5,6,7,9)/t2-/m1/s1
