12
gdb 131263	3.43303	1.82641	1.19217	8.1299	61.57	-0.2243	-0.0097	0.2147	912.293	0.079341	-464.957172	-464.950255	-464.949311	-464.988466	25.55	
O	-0.1558250161	 1.3445336323	 0.0101441291	-0.408349
C	 0.0303205975	 0.0158687806	 0.0023609987	 0.357538
C	 1.1264592333	-0.7954029425	-0.0069510491	-0.218913
N	 0.6859494114	-2.1319918635	-0.0118451259	-0.405602
C	-0.6697000656	-2.1188793292	-0.0056471338	 0.551664
N	-1.7211227015	-2.9199477881	-0.0050368313	-0.361441
N	-2.7772306058	-2.0612830986	 0.0041016921	-0.094556
N	-2.43931448	-0.8058876159	 0.0094673932	-0.167555
N	-1.071533758	-0.8246213027	 0.0030100055	-0.009907
H	 0.6983016351	 1.7896975295	 0.0096656625	 0.318403
H	 2.172607844	-0.5431661737	-0.0104307766	 0.148593
H	 1.2665747459	-2.9502404682	-0.0188754644	 0.290125
152.7523	203.377	224.8795	259.7244	283.2784	438.4814	555.1967	596.5203	649.3734	664.5524	697.5276	711.7141	768.7162	835.9442	1009.9569	1079.6639	1096.3422	1123.8883	1163.6189	1249.0661	1294.7744	1303.2874	1348.2247	1466.1076	1495.7267	1639.6346	1687.5115	3283.8822	3709.4712	3833.689
OC1=CNC2=NN=NN12	Oc1c[nH]c2nnnn12	
InChI=1S/C3H3N5O/c9-2-1-4-3-5-6-7-8(2)3/h1,9H,(H,4,5,7)	InChI=1S/C3H3N5O/c9-2-1-4-3-5-6-7-8(2)3/h1,9H,(H,4,5,7)
