17
gdb 69099	2.55433	1.60647	1.18718	3.8576	73.02	-0.2737	0.0126	0.2863	1054.452	0.136894	-418.005305	-417.997203	-417.996259	-418.037786	30.549	
C	-0.035213545	 1.5242463237	-0.0351657525	-0.471688
C	-0.0328261823	 0.0226762542	 0.0463259305	 0.23965
C	-1.2957480011	-0.7655667274	-0.2834457462	-0.145871
O	-1.0535053667	-2.0902377293	 0.1792325902	-0.254354
C	-0.2669616283	-1.999784695	 1.3585468201	-0.162075
C	 0.6357732127	-0.7896802134	 1.1205631159	 0.126122
N	 1.2234455053	-0.6776474597	-0.2269885073	-0.384121
C	 1.3667675744	-0.2305254577	 2.22422463	 0.244743
N	 1.9254447965	 0.2115139879	 3.1350229406	-0.34228
H	 0.9101056569	 1.9282568462	 0.3323044567	 0.15496
H	-0.1628698289	 1.8497370689	-1.0730822254	 0.132467
H	-0.8522708568	 1.947407325	 0.5577558438	 0.129605
H	-2.1617754238	-0.3105062785	 0.2224393211	 0.108811
H	-1.5086831066	-0.8243605844	-1.3557546616	 0.124208
H	-0.8816049709	-1.8338133295	 2.2562503429	 0.119526
H	 0.2775010072	-2.9417406926	 1.4714731012	 0.132716
H	 1.0511332274	-1.5480603685	-0.73045077	 0.247578
125.5968	148.4633	173.5664	229.55	269.6974	315.2788	394.0192	432.5248	501.8327	558.0353	581.5228	631.7634	716.9711	755.4462	867.9069	947.14	961.3647	995.1974	1042.2279	1064.5017	1092.2898	1116.2805	1121.035	1146.7292	1213.7857	1245.1557	1273.8563	1304.3684	1355.6772	1377.2895	1420.1104	1448.6735	1484.9874	1493.4122	1504.822	1518.2724	2358.007	2986.9246	2997.6046	3041.1498	3078.4048	3090.2852	3104.421	3136.7608	3466.7309
CC12COCC1(N2)C#N	C[C@]12COC[C@]1(N2)C#N	
InChI=1S/C6H8N2O/c1-5-3-9-4-6(5,2-7)8-5/h8H,3-4H2,1H3	InChI=1S/C6H8N2O/c1-5-3-9-4-6(5,2-7)8-5/h8H,3-4H2,1H3/t5-,6+/m0/s1
