14
gdb 20924	3.4446	1.95295	1.35845	0.6922	59.29	-0.2485	-0.0229	0.2255	882.4621	0.108269	-412.046902	-412.039517	-412.038572	-412.079497	25.921	
C	-0.1182941593	 1.5881287277	-0.0530837372	-0.381196
C	 0.0706932945	 0.0716690167	-0.0444962701	-0.149761
N	 0.7616638245	-0.4154584146	-1.2256427677	-0.067692
N	 0.1596965265	-0.4851856104	-2.4416286592	-0.115642
N	 0.999018274	-0.9298615294	-3.2867499982	-0.069962
N	 2.1669500536	-1.1535511403	-2.6291465743	-0.308556
C	 2.083133231	-0.8386068869	-1.283325036	 0.518411
O	 2.9103478293	-0.9096249536	-0.4015040642	-0.41887
H	 0.8473192064	 2.1007710996	-0.0784458862	 0.137953
H	-0.7021988682	 1.9003439666	-0.9229995675	 0.143465
H	-0.6502145377	 1.9008110324	 0.8501053501	 0.12806
H	 0.6882042244	-0.2453609178	 0.8000124895	 0.153667
H	-0.8919785171	-0.4435658516	 0.0189377053	 0.136181
H	 2.9671566283	-1.5141581383	-3.1201072942	 0.293943
38.3086	120.4414	203.5991	241.695	293.063	380.1732	487.6624	528.5699	674.2979	704.5858	750.4555	778.2959	799.7175	954.9324	985.6652	1036.7017	1099.8098	1107.0504	1194.2799	1235.9987	1346.8121	1363.9408	1394.861	1405.8265	1413.3984	1478.2654	1488.3509	1490.5451	1504.2653	1851.5185	3047.3614	3065.5323	3111.3916	3123.6941	3135.4637	3688.2602
CCN1N=NNC1=O	CCn1nn[nH]c1=O	
InChI=1S/C3H6N4O/c1-2-7-3(8)4-5-6-7/h2H2,1H3,(H,4,6,8)	InChI=1S/C3H6N4O/c1-2-7-3(8)4-5-6-7/h2H2,1H3,(H,4,6,8)
