14
gdb 16192	3.25503	2.38939	1.53045	4.1059	64.14	-0.2409	-0.0581	0.1828	799.0463	0.107463	-382.548905	-382.542331	-382.541386	-382.579776	24.777	
O	 0.0898031928	-0.0116542738	-0.0143865363	-0.330417
C	 0.0089089419	 1.1936986856	 0.0062974555	 0.32874
C	-1.2023702817	 2.042030156	-0.0150815941	-0.174177
C	-0.8623011759	 3.3383378831	 0.0088571792	-0.063231
C	 0.6294401692	 3.5713873461	 0.0440284758	-0.370553
C	 1.1903403199	 2.1577185573	 0.0758910478	 0.325567
C	 2.4512303273	 1.7340984574	 0.7032861641	-0.23055
O	 2.3339430346	 1.8272695557	-0.7117307396	-0.257106
H	-2.2032934299	 1.6321087437	-0.0477325704	 0.124795
H	-1.564374805	 4.1653043361	 0.0077845541	 0.122372
H	 0.9767937041	 4.1090959282	-0.8461617904	 0.143401
H	 0.9218579545	 4.1736554725	 0.9123254751	 0.127727
H	 3.0855513883	 2.4831982563	 1.1759451254	 0.116544
H	 2.5189647999	 0.7211858459	 1.0963563038	 0.136888
83.1596	246.1983	259.8295	304.6067	386.3975	462.0499	572.7881	682.7413	688.4519	757.5569	825.0462	850.7384	893.5412	942.1552	959.9267	997.46	1031.7216	1078.5956	1131.2676	1133.3182	1170.6376	1177.4136	1244.9458	1281.9581	1362.8988	1415.3449	1465.7744	1511.5373	1642.5058	1821.3509	3035.6626	3068.3819	3082.3994	3179.8321	3191.8805	3230.5412
O=C1C=CCC11CO1	O=C1C=CC[C@]21CO2	
InChI=1S/C6H6O2/c7-5-2-1-3-6(5)4-8-6/h1-2H,3-4H2	InChI=1S/C6H6O2/c7-5-2-1-3-6(5)4-8-6/h1-2H,3-4H2/t6-/m1/s1
