17
gdb 24659	4.39927	1.14839	0.97402	0.6364	82.82	-0.2403	-0.0176	0.2227	1203.922	0.13964	-380.903707	-380.896542	-380.895597	-380.935781	27.681	
C	 1.1195526884	 0.7868955015	-0.169470009	-0.230293
N	-0.0162818815	 0.2138953696	-0.896365109	-0.316434
C	-0.219941264	 0.6795588607	 0.4848933233	-0.098319
C	-0.5115244701	-0.3446162492	 1.527499211	 0.353272
N	-0.9316787266	 0.1377423731	 2.7048350149	-0.327636
C	-1.1820218738	-0.7375200976	 3.6812968041	-0.00581
C	-1.0348528083	-2.1140864255	 3.5428523032	-0.124597
C	-0.6090390543	-2.6069915989	 2.3123271698	-0.076463
C	-0.3438525679	-1.7111465919	 1.2852449115	-0.178871
H	 1.8968342696	 0.0752955385	 0.0951302848	 0.122779
H	 1.4768810087	 1.778383578	-0.4352065244	 0.118512
H	-0.3993577047	 0.8877329341	-1.5528307906	 0.237921
H	-0.7472077591	 1.6152526991	 0.649830369	 0.096385
H	-1.5228771088	-0.3140303592	 4.6236566401	 0.104037
H	-1.2555897205	-2.7763177276	 4.3724119912	 0.098755
H	-0.4917609912	-3.6744040901	 2.1542542468	 0.105447
H	-0.0299638661	-2.0403528547	 0.3020970933	 0.121314
69.9796	141.4389	202.6052	317.2783	417.6983	421.0257	551.0775	577.1247	637.4711	774.7441	776.7439	794.0841	867.4413	904.1114	926.4273	932.3304	973.2938	985.8356	1008.1995	1014.4194	1068.9888	1090.801	1111.5275	1121.3424	1161.0255	1174.5348	1229.6078	1256.3386	1285.9569	1307.9167	1323.8134	1427.7367	1465.9952	1507.0587	1516.6098	1611.9825	1632.951	3107.4243	3148.7134	3150.4126	3177.25	3196.3465	3199.1644	3211.7414	3516.1343
C1NC1C1=NC=CC=C1	C1N[C@H]1c1ncccc1	
InChI=1S/C7H8N2/c1-2-4-8-6(3-1)7-5-9-7/h1-4,7,9H,5H2	InChI=1S/C7H8N2/c1-2-4-8-6(3-1)7-5-9-7/h1-4,7,9H,5H2/t7-/m1/s1
