23
gdb 118706	3.12756	1.17651	1.00088	0.9573	86.59	-0.2462	0.091	0.3372	1313.8889	0.205054	-388.236119	-388.226775	-388.225831	-388.270621	35.808	
C	-0.6976929557	 1.6151738475	-0.5039219337	-0.383796
C	-0.3452525824	 0.1727902139	-0.1769587755	-0.05196
O	-1.4840328399	-0.6275704422	-0.4415936132	-0.311429
C	-1.369078844	-2.0052647474	-0.1246277639	 0.491272
C	-0.5219434546	-2.6904969987	-1.1943136058	-0.480574
C	-1.2104498697	-2.3721473662	 1.3982567566	-0.109113
C	-2.6328273453	-1.7670284973	 1.6128882558	-0.225363
C	-2.7352222815	-2.6232213351	 0.3132063814	-0.09851
C	-1.9355244001	-3.7132133556	 1.0845721049	-0.242955
H	 0.1601062181	 2.2692611815	-0.3199615531	 0.111853
H	-0.9874264505	 1.7088218166	-1.5544526835	 0.125502
H	-1.534483394	 1.9568598723	 0.1121019705	 0.12461
H	 0.5151794291	-0.1493890527	-0.7830903172	 0.088198
H	-0.0501911899	 0.0797895227	 0.8799575809	 0.088283
H	 0.5149933254	-2.3417138491	-1.1582925309	 0.118094
H	-0.5006143207	-3.7766810553	-1.1047678299	 0.120068
H	-0.9228244924	-2.4360226538	-2.1802661762	 0.124996
H	-0.3290038208	-2.2387769333	 2.0283004656	 0.064869
H	-3.1817484764	-2.1504426559	 2.4763640042	 0.084578
H	-2.7436721998	-0.6911271065	 1.5016687945	 0.108085
H	-3.6131359372	-2.7664965068	-0.3189717631	 0.068289
H	-1.4028689686	-4.4745423806	 0.5156532978	 0.091326
H	-2.4611124492	-4.162970078	 1.9299450336	 0.093677
49.4531	83.3269	146.6165	163.8857	241.9502	257.9489	329.6665	381.2604	433.1141	444.2638	575.0708	584.6195	681.1568	779.1103	804.1075	820.2455	873.5996	883.8904	900.4063	906.2613	971.7212	1000.9079	1014.9702	1024.0166	1066.902	1088.6122	1090.9017	1108.2382	1125.6881	1157.863	1182.656	1186.766	1189.4657	1196.7141	1204.0261	1245.9914	1248.5049	1293.5555	1298.9866	1399.5397	1409.5115	1425.4723	1482.8538	1486.0337	1492.0673	1500.0641	1505.053	1529.3179	1543.7993	2975.9512	3003.423	3043.2547	3047.8459	3070.9607	3072.473	3092.3508	3103.0218	3104.8405	3117.1536	3120.1305	3131.4557	3149.0647	3166.1979
CCOC1(C)C2CC1C2	CCO[C@@]1(C)[C@H]2C[C@@H]1C2	
InChI=1S/C8H14O/c1-3-9-8(2)6-4-7(8)5-6/h6-7H,3-5H2,1-2H3	InChI=1S/C8H14O/c1-3-9-8(2)6-4-7(8)5-6/h6-7H,3-5H2,1-2H3/t6-,7+,8-
