20
gdb 95123	2.31638	1.61875	1.19477	2.9119	79.12	-0.242	-0.025	0.217	1110.4873	0.171406	-403.151209	-403.142735	-403.141791	-403.184105	32.601	
C	 0.2122205846	 1.6615148992	 0.0926302901	-0.415159
C	 0.1336656445	 0.1343131413	 0.1371112332	-0.031395
C	 0.6669650121	-0.5803082954	-1.1257914722	-0.26138
C	 1.1591737768	-1.9493200379	-0.6093545275	-0.159604
N	 1.547405539	-1.7974714956	 0.8114159605	-0.13858
C	 2.4161224029	-0.6620659417	 1.0709756007	-0.29057
C	 0.9345290699	-0.5129552124	 1.2620498596	 0.242144
C	 0.3931099039	-0.5146728471	 2.6445381707	 0.094584
O	-0.5602104753	 0.1355382824	 2.9996797907	-0.266507
H	 1.2453670746	 2.0013042096	-0.0420787269	 0.108477
H	-0.3812372128	 2.0579239219	-0.7375788114	 0.114672
H	-0.1730614063	 2.0916134474	 1.0205334946	 0.141669
H	-0.9133436407	-0.1487657129	 0.3009630452	 0.093449
H	-0.0969686314	-0.682372175	-1.9005208258	 0.108437
H	 1.4878842731	-0.0054927668	-1.5678507834	 0.104819
H	 0.3534248815	-2.689947151	-0.6376484283	 0.116107
H	 2.0009754569	-2.3529274015	-1.1801415087	 0.112196
H	 3.0610916629	-0.7717706976	 1.9389889085	 0.123588
H	 2.8659124124	-0.1212036598	 0.2419323711	 0.121609
H	 0.9437469513	-1.1796216672	 3.3460821493	 0.081445
91.9542	151.9713	180.1677	240.3429	255.3391	269.0361	352.4357	427.4182	455.4257	514.9957	606.5905	651.3137	702.8037	786.5242	826.7423	863.2213	930.0426	939.2562	963.587	974.4467	1014.1578	1041.7718	1069.1995	1110.1137	1120.6261	1140.1174	1178.9415	1212.5049	1244.6884	1280.3209	1301.2059	1322.8078	1351.2866	1361.634	1387.3535	1407.1212	1427.1628	1490.6569	1493.3469	1498.3704	1507.1375	1518.4914	1811.4564	2892.7284	3031.0886	3034.5054	3048.3059	3049.2029	3089.7239	3097.1009	3104.1283	3106.6356	3122.5815	3188.5464
CC1CCN2CC12C=O	C[C@H]1CCN2C[C@@]12C=O	
InChI=1S/C7H11NO/c1-6-2-3-8-4-7(6,8)5-9/h5-6H,2-4H2,1H3	InChI=1S/C7H11NO/c1-6-2-3-8-4-7(6,8)5-9/h5-6H,2-4H2,1H3/t6-,7+,8?/m0/s1
