14
gdb 17220	5.5841	1.68318	1.54072	1.4033	68.63	-0.2284	0.0319	0.2602	818.8307	0.106645	-345.298267	-345.29195	-345.291006	-345.328461	25.268	
C	 0.0628120266	-1.1521619797	-0.0602418124	-0.393394
C	 0.0013552642	 0.0497588049	-0.0140754322	 0.129914
C	-0.0682092879	 1.4640941831	 0.046507795	 0.185476
C	-1.138489065	 2.3592233963	 0.6874870492	-0.291299
C	-0.4233290042	 3.5225410959	-0.039653526	 0.046799
O	 0.8664257569	 3.6065814485	 0.6379000874	-0.290734
C	 1.1917180167	 2.3881413037	-0.0107529317	 0.057591
C	 0.1675809438	 2.4962097299	-1.076469816	-0.189258
H	 0.1139934752	-2.211782288	-0.0992188155	 0.181607
H	-2.1235381126	 2.1539171544	 0.2624338116	 0.115528
H	-1.1873164444	 2.4221492392	 1.7782503539	 0.111792
H	-0.8831030832	 4.4891441665	-0.2276046778	 0.097681
H	 2.2063963099	 2.0150234812	 0.0107661656	 0.124295
H	 0.1743165739	 2.398815244	-2.152697091	 0.114003
152.9523	158.6655	412.67	474.6832	488.3099	526.9175	566.8264	580.1649	653.4217	719.6351	773.6039	800.6093	842.0982	901.3932	919.4047	952.8358	974.1664	1005.7475	1038.4931	1044.0617	1120.935	1147.6947	1164.7465	1195.7619	1238.1806	1275.3062	1295.6075	1382.1091	1486.1536	2229.6612	3059.0728	3125.1661	3159.7772	3213.73	3227.7089	3503.687
C#CC12CC3OC1C23	C#C[C@@]12C[C@H]3O[C@@H]1[C@@H]23	
InChI=1S/C7H6O/c1-2-7-3-4-5(7)6(7)8-4/h1,4-6H,3H2	InChI=1S/C7H6O/c1-2-7-3-4-5(7)6(7)8-4/h1,4-6H,3H2/t4-,5+,6-,7+/m1/s1
