17
gdb 67668	2.29613	2.1759	1.67015	1.2975	79.33	-0.196	-0.0232	0.1729	891.7821	0.136798	-384.620734	-384.613747	-384.612803	-384.651518	29.012	
O	-0.2164601823	 1.5034833651	 0.0071927303	-0.471352
C	-0.0551040027	 0.1264997332	 0.0204053227	 0.354427
C	-1.1474993039	-0.8463803436	-0.0756983934	-0.093968
C	-1.0005295163	-1.620206757	-1.3877326778	-0.269804
C	 0.4817465532	-1.4216255854	-1.6872845243	-0.088513
C	 1.0409841459	-0.5938174091	-0.786070718	-0.003549
C	 2.0466961095	-1.1014828851	 0.2010544662	-0.176413
C	 1.3056690413	-1.3711478723	 1.294116148	-0.071094
C	-0.0890750052	-0.8006717238	 1.1829748826	-0.174973
H	 0.5520188038	 1.8977489877	 0.4360812895	 0.283314
H	-2.1411893904	-0.5779662159	 0.2720543019	 0.09225
H	-1.177004712	-2.6995230208	-1.2843969017	 0.115643
H	-1.7178757094	-1.2628217526	-2.1425359705	 0.111003
H	 1.0389499731	-2.1733974252	-2.2388031862	 0.096133
H	 3.0650412128	-1.4085517771	 0.0066554067	 0.107866
H	 1.6581575681	-1.8862184068	 2.1805584212	 0.098926
H	-0.6188101956	-0.5342415712	 2.0925050129	 0.090101
209.027	220.0355	270.924	308.4999	368.5366	452.8934	504.327	573.2629	623.7732	669.8328	715.1162	739.5938	783.168	830.7435	852.1588	864.0847	907.5003	926.8738	954.0617	993.3659	1013.747	1040.7196	1053.7745	1077.6921	1111.249	1175.9759	1185.1448	1204.5501	1269.4327	1305.149	1308.0571	1334.5298	1344.3848	1462.1044	1478.1357	1579.0076	1618.3335	2985.4059	3030.1856	3153.628	3164.7525	3168.3624	3193.8516	3233.1392	3788.0885
OC12C3CC=C1C=CC23	O[C@@]12[C@H]3C[CH][C]1C=C[C@@H]23	
InChI=1S/C8H8O/c9-8-5-1-3-6(8)7(8)4-2-5/h1-3,6-7,9H,4H2	InChI=1S/C8H8O/c9-8-5-1-3-6(8)7(8)4-2-5/h1-3,6-7,9H,4H2/t6-,7+,8+/m1/s1
