16
gdb 22186	1.99097	0.89324	0.62138	1.2783	93.69	-0.2206	-0.0417	0.1789	1777.1474	0.119998	-400.661799	-400.650822	-400.649878	-400.702129	35.882	
C	 0.0354133565	 1.4207440552	 0.0083895339	-0.504201
C	 0.0052411681	-0.0323484161	 0.0014044842	 0.092062
C	-0.0309582063	-1.2373236115	-0.0042676346	 0.008337
C	-0.0175730624	-2.6637080126	-0.0115520919	 0.096459
N	-1.1667613067	-3.2661470828	-0.0029371357	-0.183888
O	-1.0237075644	-4.643577025	-0.0112878618	-0.377862
C	 1.2440661149	-3.3283148253	-0.0276458084	 0.119052
C	 2.3188510051	-3.8748330226	-0.0412529468	 0.007685
C	 3.6118677484	-4.5370185907	-0.0576074827	-0.502124
H	 1.0648826759	 1.7946348331	-0.0003117577	 0.153495
H	-0.4771200128	 1.8313351847	-0.8687178457	 0.154916
H	-0.4589441902	 1.8224568448	 0.8999222912	 0.154916
H	-1.9399470169	-4.9429348094	-0.0035037273	 0.312051
H	 3.4989439447	-5.6262463907	-0.0672223457	 0.157306
H	 4.189619175	-4.2506288889	-0.9434581006	 0.155889
H	 4.2032149912	-4.2676784824	 0.8246128998	 0.15591
10.5416	13.1922	57.8498	106.2776	116.9655	169.3356	267.4875	288.4011	295.9889	355.9253	404.8706	440.7976	482.5864	484.771	528.3613	674.1113	688.2592	921.8091	1026.2001	1046.6511	1048.3589	1051.956	1052.6488	1122.5304	1332.3148	1401.476	1411.1292	1415.6703	1472.737	1473.9878	1474.2743	1475.0491	1622.3522	2352.0911	2361.6634	3027.0227	3028.0182	3087.4733	3088.6507	3092.1473	3094.5483	3806.5965
CC#CC(=NO)C#CC	CC#CC(=NO)C#CC	
InChI=1S/C7H7NO/c1-3-5-7(8-9)6-4-2/h9H,1-2H3	InChI=1S/C7H7NO/c1-3-5-7(8-9)6-4-2/h9H,1-2H3
