20
gdb 107710	3.61382	1.37415	1.1456	1.4712	79.85	-0.2241	0.0829	0.307	1129.089	0.170182	-403.050084	-403.041545	-403.040601	-403.083026	32.933	
C	 0.3963024626	 0.6678401104	 0.5281836582	-0.248229
O	-0.5332812128	 0.544751184	-0.5400359344	-0.292663
C	-1.5918431817	-0.2847071891	-0.3074041975	 0.459785
C	-2.6950657688	-0.5449977008	-1.3339858749	-0.369392
C	-3.1144298117	-1.406919637	-0.1216554947	 0.3371
C	-4.3139917911	-2.2958274471	 0.0347513829	-0.517984
C	-1.6249930316	-1.7631541582	 0.240813618	-0.14687
N	-1.7101706863	-1.305286807	 1.6674752038	-0.352334
C	-2.5864568076	-0.3470718688	 0.9150113247	-0.146877
H	 1.1708825711	 1.3570179415	 0.1848409112	 0.119543
H	-0.0800877979	 1.0680483906	 1.4307991664	 0.124601
H	 0.8477986831	-0.298661305	 0.7808497957	 0.124634
H	-3.3404766012	 0.3039764744	-1.579862046	 0.096099
H	-2.3989781981	-1.0827065234	-2.2400589097	 0.096101
H	-4.3197073133	-3.0898008173	-0.7198269725	 0.1243
H	-4.3255091213	-2.7737715004	 1.0219127381	 0.113313
H	-5.2444889259	-1.7276918767	-0.0711375263	 0.124298
H	-1.0417471588	-2.6274897434	-0.0826096518	 0.075546
H	-2.2890693701	-1.9555556803	 2.2077471937	 0.203483
H	-3.1412112789	 0.4646538835	 1.389568375	 0.075545
73.2316	167.2698	185.7728	229.7373	240.8747	263.7068	383.4437	393.0123	442.1214	532.8511	594.2375	685.7724	689.6795	783.3066	854.7312	881.9146	901.6477	901.8729	988.1469	1006.0722	1027.5803	1052.9485	1082.9208	1114.0287	1116.7955	1151.0428	1160.9696	1175.3807	1176.0409	1179.7176	1200.5122	1253.1024	1281.2073	1291.4547	1317.4069	1389.1086	1413.2255	1483.4268	1485.1644	1487.4892	1493.6506	1495.4437	1524.6008	3018.1314	3021.4226	3042.9163	3079.4933	3083.6118	3093.5688	3094.9905	3101.0543	3101.5395	3124.9767	3386.7301
COC12CC3(C)C1NC23	CO[C@@]12C[C@@]3(C)[C@@H]1N[C@@H]23	
InChI=1S/C7H11NO/c1-6-3-7(9-2)4(6)8-5(6)7/h4-5,8H,3H2,1-2H3	InChI=1S/C7H11NO/c1-6-3-7(9-2)4(6)8-5(6)7/h4-5,8H,3H2,1-2H3/t4-,5+,6-,7-
