20
gdb 47656	2.24572	1.58967	1.10502	3.4189	80.5	-0.2351	-0.0021	0.2331	1148.8692	0.17405	-403.187684	-403.179528	-403.178583	-403.220343	32.051	
O	 0.1385555442	 0.039319687	-0.3424154781	-0.364618
C	 0.0415849338	 1.2181523387	-0.0538886848	 0.374841
C	-1.322785352	 1.8987916411	 0.0415323976	-0.292654
C	-1.8250275253	 2.5719001239	-1.2566727658	-0.18717
C	-1.2864997367	 3.9945750035	-1.5393347427	-0.255803
C	 0.1339774882	 4.0704990822	-2.0500160505	-0.037047
C	 1.2395210723	 3.8533113386	-1.3372212787	-0.050417
C	 1.2432539458	 3.4187603409	 0.1097654184	-0.23132
N	 1.1557920309	 1.9645300285	 0.259020426	-0.282199
H	-2.0091256152	 1.0868789108	 0.292554516	 0.128974
H	-1.3507742164	 2.6190083723	 0.8672747498	 0.102888
H	-1.6187146492	 1.9139148783	-2.1081167983	 0.117932
H	-2.9155472217	 2.6452923271	-1.1791732993	 0.102924
H	-1.9447671119	 4.4635494453	-2.2776578641	 0.104607
H	-1.3930858755	 4.5910276748	-0.6231653343	 0.108339
H	 0.246508012	 4.3083465517	-3.1057168387	 0.094089
H	 2.2085407972	 3.9150022385	-1.8273416663	 0.090394
H	 2.1586891875	 3.7438140625	 0.612342289	 0.11509
H	 0.4107142809	 3.8749371107	 0.6529465032	 0.12209
H	 2.0075830813	 1.4499887237	 0.0735849616	 0.239058
83.0013	149.2669	224.8833	247.1162	279.7701	338.0223	429.0857	465.6263	502.0436	542.1107	618.2458	652.8159	709.9443	764.0484	779.5558	837.0897	884.7971	913.3347	926.8545	1000.7998	1014.3358	1025.2621	1061.5448	1091.1272	1115.3994	1158.0963	1228.5103	1251.2159	1273.8736	1290.2732	1327.456	1352.5158	1357.0763	1378.9266	1401.3521	1423.7493	1459.0098	1479.4174	1483.8579	1489.2168	1501.1724	1720.3843	1781.2715	3016.5426	3035.0214	3040.7432	3057.831	3070.9907	3080.4282	3097.3701	3108.0981	3138.9857	3163.1507	3576.4921
O=C1CCCC=CCN1	O=C1CCCC=CCN1	
InChI=1S/C7H11NO/c9-7-5-3-1-2-4-6-8-7/h2,4H,1,3,5-6H2,(H,8,9)/b4-2-	InChI=1S/C7H11NO/c9-7-5-3-1-2-4-6-8-7/h2,4H,1,3,5-6H2,(H,8,9)/b4-2-
