22
gdb 61407	2.77372	1.00926	0.90597	4.8868	80.09	-0.2339	0.0368	0.2707	1409.1432	0.190922	-441.514983	-441.503891	-441.502947	-441.551036	40.112	
C	 0.2484077104	 1.4799036474	-0.0228327388	-0.351571
N	 0.0221892124	 0.0435975894	-0.0213174239	-0.034254
C	-0.0430083747	-0.6765540182	 1.2384784825	-0.190638
C	-1.4643086873	-1.0164796103	 1.7431911978	 0.343449
C	-1.3557862819	-1.6817807328	 3.1229960307	-0.407491
C	-2.3823137102	 0.2092664662	 1.7937272744	-0.427094
O	-1.9601993777	-1.9600844112	 0.7883072537	-0.456283
C	-0.0354595197	-0.6298780688	-1.2110946385	 0.151465
O	 0.0222734466	-0.1159538045	-2.309639914	-0.35063
H	 1.1800799925	 1.7271745983	 0.5011140979	 0.120054
H	 0.3235929789	 1.7976848196	-1.0630057661	 0.168491
H	-0.5720124365	 2.0220690554	 0.458812409	 0.120267
H	 0.4932359315	-1.626992931	 1.138099408	 0.12375
H	 0.480380706	-0.0874052734	 1.9978391203	 0.107253
H	-0.949159118	-0.9938324187	 3.871810406	 0.114724
H	-2.3444101761	-2.0033051629	 3.4678733259	 0.109119
H	-0.7126277202	-2.5652656389	 3.0738237309	 0.12447
H	-2.498269645	 0.6423882944	 0.7976326157	 0.140212
H	-3.3755134446	-0.0784512032	 2.1587781182	 0.107598
H	-1.9952335413	 0.9755556984	 2.4728595934	 0.116746
H	-2.8996953586	-2.0918691301	 0.952047317	 0.280247
H	-0.1437252465	-1.7173435453	-1.0580022901	 0.090115
58.9692	91.4234	109.0237	140.4686	222.4673	251.2392	252.2445	271.5	295.2556	312.3974	340.6688	363.9549	387.2801	409.889	451.2454	525.4376	719.2746	762.892	874.9883	896.7505	920.8262	929.8105	988.0872	1019.8012	1030.3684	1089.5774	1151.1416	1158.0062	1176.9517	1203.8238	1268.9562	1298.017	1367.702	1386.0664	1396.9107	1418.4464	1424.9669	1439.447	1447.9198	1473.9636	1481.6328	1486.062	1497.3975	1500.6386	1511.7516	1522.3366	1789.9596	2991.1156	3021.6278	3028.338	3032.2427	3040.3677	3076.575	3090.553	3092.2518	3101.4815	3113.6678	3129.7506	3154.435	3814.88
CN(CC(C)(C)O)C=O	CN(CC(C)(C)O)C=O	
InChI=1S/C6H13NO2/c1-6(2,9)4-7(3)5-8/h5,9H,4H2,1-3H3	InChI=1S/C6H13NO2/c1-6(2,9)4-7(3)5-8/h5,9H,4H2,1-3H3
