21
gdb 76140	2.15493	1.26217	1.10388	1.8801	80.86	-0.2378	-0.0129	0.225	1266.7223	0.178729	-424.242569	-424.231974	-424.23103	-424.27773	38.971	
C	-0.2801681621	 1.5217989258	 0.0313202958	-0.426485
C	 0.0118643664	 0.0393991259	 0.1051881927	-0.081583
C	 1.4119505549	-0.5519344199	-0.1817438956	-0.187766
C	 2.5967014924	 0.2959874969	-0.4905588297	 0.392922
C	 3.5761168869	-0.3026181601	-1.4863019132	-0.480928
O	 2.7938830914	 1.3919537535	 0.0001943302	-0.334967
C	 0.7791722256	-0.6229517774	 1.2055963711	 0.379303
C	 1.341697909	 0.1309217271	 2.3873588037	-0.46568
O	 0.4029138528	-1.9473731592	 1.5086516034	-0.462203
H	 0.5750874896	 2.1229712651	 0.3391545711	 0.15849
H	-0.5355107502	 1.8096463283	-0.9941384602	 0.117163
H	-1.1364489443	 1.772722773	 0.6674905963	 0.111923
H	-0.7728321081	-0.5953039045	-0.2991987425	 0.094065
H	 1.3933950363	-1.5050863155	-0.6985807265	 0.095901
H	 3.0728285389	-0.5073341032	-2.4382496941	 0.13938
H	 4.4074116451	 0.3842920997	-1.6478940321	 0.137704
H	 3.9531289392	-1.2625935685	-1.1151556386	 0.14234
H	 1.7552553703	 1.0956617111	 2.0964335104	 0.161182
H	 0.5564169736	 0.2948829796	 3.1360494965	 0.103501
H	 2.1342935338	-0.4604090305	 2.8558002117	 0.125105
H	-0.3293902917	-1.904274837	 2.1342824597	 0.280634
61.5725	142.546	157.2573	168.9267	199.5022	220.0706	233.9891	251.4091	278.7574	331.2227	385.2756	414.0952	456.1195	483.7654	609.3393	626.4246	696.1565	767.3273	838.9752	913.954	960.9324	982.6579	988.7926	1026.4538	1053.8698	1084.7178	1099.5219	1127.4644	1138.4295	1194.7362	1228.8667	1293.0331	1337.8714	1372.5178	1389.4602	1412.0109	1419.0772	1438.7597	1464.2086	1475.4891	1485.7958	1495.6995	1508.1171	1516.7077	1775.5903	3028.3389	3033.6563	3035.5035	3088.3105	3094.074	3094.6691	3134.3693	3152.5914	3156.8073	3164.1499	3172.2552	3790.7104
CC1C(C(C)=O)C1(C)O	C[C@H]1[C@@H](C(=O)C)[C@]1(C)O	
InChI=1S/C7H12O2/c1-4-6(5(2)8)7(4,3)9/h4,6,9H,1-3H3	InChI=1S/C7H12O2/c1-4-6(5(2)8)7(4,3)9/h4,6,9H,1-3H3/t4-,6-,7+/m0/s1
