14
gdb 125601	3.22707	1.47429	1.01829	2.0821	69.28	-0.2603	-0.0671	0.1932	1088.0916	0.101556	-470.049743	-470.041931	-470.040987	-470.082431	28.62	
C	 0.086945414	 1.4730462328	-0.0061065532	-0.457432
C	 0.0097518123	-0.0207121556	 0.0018360871	 0.291346
N	-0.1170395131	-0.6537626309	-1.1106603306	-0.222704
N	-0.1830800015	-2.0116227729	-1.0541600174	-0.324486
C	-0.1303561458	-2.8073480526	 0.0634340571	 0.496845
O	-0.1934315594	-4.0026439508	 0.0530845399	-0.353497
O	 0.0048843189	-2.1117919218	 1.2369858026	-0.257091
C	 0.0815988826	-0.7273433773	 1.2908403434	 0.344303
N	 0.2060340345	-0.1209256061	 2.3917918906	-0.496207
H	 1.0237589435	 1.8102764123	 0.4476901089	 0.152929
H	 0.0196162893	 1.838669627	-1.0314344009	 0.14083
H	-0.7211225872	 1.9012311187	 0.5946943738	 0.152927
H	-0.2821650151	-2.4783532758	-1.9414658687	 0.289896
H	 0.237590617	-0.7784176271	 3.1725920474	 0.24234
77.3038	128.1259	158.3366	296.278	316.1661	379.762	394.1702	495.9607	520.9204	582.366	583.0668	717.2978	749.7609	754.9681	804.7066	902.8768	956.2974	997.3633	1061.9412	1070.1103	1185.8822	1215.9886	1255.416	1401.1056	1417.0863	1458.8686	1467.0299	1474.0609	1687.805	1734.8284	1878.8	3050.9168	3108.6763	3153.6013	3485.6666	3654.6365
CC1=NNC(=O)OC1=N	Cc1n[nH]c(=O)oc1[NH]	
InChI=1S/C4H5N3O2/c1-2-3(5)9-4(8)7-6-2/h5H,1H3,(H,7,8)	InChI=1S/C4H8N3O2/c1-2-3(5)9-4(8)7-6-2/h2-3,5-6H,1H3,(H,7,8)
