17
gdb 130396	3.00264	1.30978	0.93977	3.2441	72.81	-0.199	0.0152	0.2142	1215.0331	0.138361	-451.309518	-451.300689	-451.299745	-451.342825	33.186	
N	-0.6400926324	 1.1287674259	 0.2273627171	-0.512009
C	 0.3216938502	 0.0648560132	-0.1032766377	-0.285026
C	 0.913060642	-0.4883908266	 1.1505824317	 0.39398
C	 0.4199802062	-0.638941882	 2.4104184862	 0.007171
N	-0.8492352638	-0.3636455683	 2.9431716779	-0.628736
C	 1.501007843	-1.2573408339	 3.1136154252	 0.37576
N	 1.4936712179	-1.5589074266	 4.4698620034	-0.598657
N	 2.5471755145	-1.4561434939	 2.3446421158	-0.241556
O	 2.1797929436	-0.9648844192	 1.0887716581	-0.241074
H	-0.1396816101	 1.9504230626	 0.5535601716	 0.23799
H	-1.1461715754	 1.4065548621	-0.6072391038	 0.237516
H	-0.2299173693	-0.7192878326	-0.6395158954	 0.129019
H	 1.142432651	 0.3780774497	-0.7667648234	 0.116588
H	-1.3770216328	 0.207045612	 2.2885075611	 0.254444
H	-0.7791258613	 0.1237899003	 3.8308341969	 0.241094
H	 0.6260769689	-1.9920354215	 4.7629712797	 0.255893
H	 2.2881859178	-2.1255051312	 4.7395350957	 0.257601
82.2087	144.5206	199.55	229.8633	254.4822	284.0585	337.4001	386.5076	402.7947	418.0654	503.6783	595.9797	633.788	701.0374	720.1301	785.0039	804.5475	872.1428	886.9486	966.2937	981.8195	1028.0705	1066.1461	1149.7407	1169.4169	1224.1762	1263.4929	1316.1468	1344.5196	1424.7602	1499.5785	1531.766	1569.1254	1634.9659	1648.7397	1654.9013	1720.5782	2985.7917	3026.5546	3483.0296	3495.43	3529.1862	3572.1389	3577.2585	3627.089
NCC1=C(N)C(N)=NO1	NCc1c(N)c(N)no1	
InChI=1S/C4H8N4O/c5-1-2-3(6)4(7)8-9-2/h1,5-6H2,(H2,7,8)	InChI=1S/C4H8N4O/c5-1-2-3(6)4(7)8-9-2/h1,5-6H2,(H2,7,8)
