17
gdb 69209	2.67321	1.61511	1.1688	1.1711	75.38	-0.254	-0.0152	0.2388	1058.9238	0.137469	-418.061269	-418.053358	-418.052414	-418.093495	30.643	
C	-0.040356371	 1.5334376505	-0.0066660818	-0.476587
C	 0.0614152885	 0.0296350071	 0.0018563608	 0.284257
C	-0.803524322	-0.8150491348	 0.9081334018	-0.318387
C	 0.699512095	-0.7967462131	 1.106516375	-0.219763
C	 1.4290989527	-1.9253549578	 0.4389862485	 0.424705
O	 2.1487483194	-2.7599302982	 0.9281540394	-0.359707
N	 1.1211819833	-1.8286761395	-0.920307172	-0.378331
C	 0.4343890706	-0.6652605152	-1.2792156709	 0.335693
N	 0.1663988356	-0.2116122836	-2.4338681684	-0.540658
H	 0.9081237497	 1.9912413298	-0.3030199039	 0.130435
H	-0.8016049467	 1.8547196028	-0.7223021445	 0.149855
H	-0.3110003604	 1.9100200937	 0.9839212031	 0.114835
H	-1.3896620075	-0.2798364834	 1.6472712104	 0.129879
H	-1.2704070666	-1.7153927285	 0.5239640718	 0.132848
H	 1.124473207	-0.3742929837	 2.007077292	 0.118926
H	 1.4802678036	-2.4979553289	-1.5844827417	 0.258944
H	 0.5116316888	-0.822389247	-3.1760235693	 0.213054
133.1553	139.5312	180.8111	259.1267	305.2674	342.0498	401.4369	517.2751	546.6165	566.0319	634.3784	697.7492	736.9377	760.9332	815.1613	864.4641	871.2293	894.8032	972.8386	988.4633	1039.3402	1056.2917	1084.6452	1097.5967	1119.5481	1196.2306	1237.9939	1302.3936	1356.3946	1369.5348	1405.8002	1421.7479	1481.464	1491.0496	1499.9356	1758.0354	1851.9174	3044.1591	3112.8995	3123.3567	3134.8114	3211.4503	3225.0521	3461.5342	3630.3135
CC12CC1C(=O)NC2=N	C[C@]12C[C@H]1C(=O)N[C]2[NH]	
InChI=1S/C6H8N2O/c1-6-2-3(6)4(9)8-5(6)7/h3H,2H2,1H3,(H2,7,8,9)	InChI=1S/C6H8N2O/c1-6-2-3(6)4(9)8-5(6)7/h3H,2H2,1H3,(H2,7,8,9)/t3-,6-/m0/s1
