17
gdb 14446	4.18325	2.08024	1.77859	2.2999	66.65	-0.2155	0.0756	0.2911	781.373	0.144401	-363.815459	-363.80909	-363.808146	-363.845466	26.215	
O	-0.1148989953	 1.3935291606	-0.0329112479	-0.462469
C	 0.047693774	 0.0217194593	-0.0213239008	 0.366942
C	 0.8532801478	-0.7964730057	-1.0202790608	-0.246638
N	-0.1340951222	-1.930936072	-0.8516003518	-0.114806
C	 0.3803198814	-2.8858290527	 0.1522809508	-0.159872
C	 0.5879672002	-2.0776656163	 1.4707926307	-0.256331
C	-0.2622108159	-0.8398156229	 1.207982802	-0.114767
C	-1.0314632455	-1.0182833173	-0.080898398	-0.095288
H	 0.5699299161	 1.7854917891	 0.5200933137	 0.286394
H	 0.7957139945	-0.3901659038	-2.0342319186	 0.113973
H	 1.8954500454	-1.0471360712	-0.7859970343	 0.089937
H	-0.3745108291	-3.6657381026	 0.2970314883	 0.105845
H	 1.2919215484	-3.3637985743	-0.2168114784	 0.103149
H	 0.2388190974	-2.62585391	 2.3514487786	 0.100504
H	 1.6424183291	-1.8339337086	 1.6396456158	 0.097962
H	-0.738951742	-0.3014779302	 2.0198426913	 0.089059
H	-2.1019557743	-0.9750291817	-0.2320280707	 0.096408
222.579	240.8955	307.7607	335.3351	434.4685	459.9807	575.3534	672.3862	708.9252	748.6985	828.342	856.545	870.8523	911.0642	918.4698	950.8847	989.1905	1004.664	1020.0566	1042.594	1090.7552	1117.153	1164.3767	1187.1735	1215.5073	1236.1863	1250.2725	1251.2038	1287.5317	1307.4577	1322.383	1343.3342	1449.9183	1490.4934	1499.872	1517.7045	3020.8757	3040.4999	3049.1036	3077.4794	3086.4016	3103.2208	3179.9316	3201.6216	3795.0676
OC12CN3CCC1C23	O[C@@]12CN3CC[C@@H]1[C@@H]23	
InChI=1S/C6H9NO/c8-6-3-7-2-1-4(6)5(6)7/h4-5,8H,1-3H2	InChI=1S/C6H9NO/c8-6-3-7-2-1-4(6)5(6)7/h4-5,8H,1-3H2/t4-,5+,6+/m1/s1
