17
gdb 73331	2.89268	2.0489	1.42675	3.6581	71.66	-0.249	-0.0234	0.2256	917.6079	0.137756	-417.945615	-417.938727	-417.937783	-417.97656	27.639	
C	 0.0080127746	 1.5217239269	-0.0370297589	-0.47262
C	 0.0157568715	 0.0120051054	 0.0296570049	 0.250029
C	-0.3719054818	-0.7163783714	-1.3028825907	-0.146565
O	-1.3697547858	-1.7194811776	-0.9071023546	-0.241696
C	-0.8413755049	-1.9281968767	 0.3302905064	 0.294362
N	 0.0161027694	-2.8202229073	 0.6044353787	-0.246595
C	 0.9988825963	-2.12007473	 1.4597119305	-0.189762
C	 0.6263914499	-0.640653459	 1.2842103658	-0.100041
N	-0.8258078944	-0.6553741543	 1.0442035857	-0.153282
H	 0.8214222846	 1.8834536818	-0.6759328884	 0.127386
H	-0.9387975106	 1.8838063762	-0.4515021997	 0.134997
H	 0.1339958959	 1.9629257334	 0.9545455257	 0.133528
H	-0.8616463936	-0.0200772062	-1.9863454249	 0.131082
H	 0.4597940241	-1.2223814877	-1.8004806851	 0.132942
H	 0.9307502259	-2.3893166409	 2.522755041	 0.123082
H	 2.0013767364	-2.389989203	 1.1125940579	 0.124837
H	 0.9849155825	 0.0618462105	 2.0334316856	 0.098316
184.3266	205.2744	239.8913	301.3313	348.0723	454.423	530.9642	557.4337	674.8989	709.2446	778.4674	797.4115	837.5265	889.287	903.0867	930.7058	956.3808	992.6528	997.5548	1025.396	1067.0768	1103.6891	1116.717	1154.5748	1194.9098	1215.9248	1233.3356	1276.7562	1316.3035	1338.6614	1398.6403	1415.735	1483.4686	1487.5968	1491.6177	1497.9961	1683.9361	3016.1051	3033.9499	3062.4053	3073.8418	3098.2619	3122.0148	3129.6305	3140.2084
CC12COC3=NCC1N23	C[C@@]12CO[C]3[N]C[C@@H]1N23	
InChI=1S/C6H8N2O/c1-6-3-9-5-7-2-4(6)8(5)6/h4H,2-3H2,1H3	InChI=1S/C6H8N2O/c1-6-3-9-5-7-2-4(6)8(5)6/h4H,2-3H2,1H3/t4-,6+,8?/m0/s1
