19
gdb 60600	3.77514	1.01005	0.88081	1.0491	71.44	-0.2436	0.069	0.3126	1339.0986	0.1588	-460.112815	-460.104046	-460.103102	-460.147192	31.969	
O	-0.1507234596	 1.451993349	-0.0606385479	-0.44023
C	-0.0306277985	 0.0475482091	 0.0484041881	 0.067039
C	 0.5574042129	-0.549405131	-1.2195350289	 0.054236
C	 0.2677928738	 0.0215680494	-2.5363485287	-0.187691
O	 1.5109699523	 0.3068712502	-1.8719417863	-0.255036
C	 0.8283762441	-0.3215922621	 1.259644264	 0.138572
C	 0.2141948596	-0.077882368	 2.6517688553	-0.298206
C	 0.3060202256	-1.6102352052	 2.8032549266	-0.061873
O	 0.8576835223	-1.7535974655	 1.4738176883	-0.299562
H	 0.6429752333	 1.740861304	-0.5349664753	 0.292919
H	-1.039120656	-0.3581379926	 0.2022325731	 0.092278
H	 0.8578971435	-1.5928182147	-1.1445803334	 0.12229
H	 0.3552133503	-0.6006287114	-3.424594509	 0.122691
H	-0.4154064186	 0.8643547445	-2.6092549186	 0.128482
H	 1.8415633345	 0.0818901491	 1.1224272254	 0.080748
H	 0.8269800235	 0.5018323464	 3.3424167705	 0.1137
H	-0.7948502866	 0.3373829929	 2.6339130383	 0.119296
H	 1.0025610839	-1.9695878555	 3.5700642279	 0.105345
H	-0.6444306505	-2.1462921884	 2.9100504008	 0.105003
68.8351	77.531	101.7547	149.0116	271.9707	274.6706	316.0294	427.0688	476.1973	527.0696	667.9721	771.6217	791.4405	826.2109	874.7705	895.6788	947.0199	956.2044	1000.79	1017.5571	1033.8977	1082.8997	1106.8824	1113.9772	1155.1801	1162.5407	1171.5527	1179.6103	1211.2865	1250.955	1257.576	1279.4061	1289.9731	1302.0093	1359.686	1397.5019	1411.8741	1448.1479	1492.1013	1517.9568	1531.2935	3004.142	3021.0657	3034.3173	3060.3173	3085.3972	3099.9573	3140.2539	3141.3645	3193.6518	3728.8787
OC(C1CO1)C1CCO1	O[C@@H]([C@H]1CO1)[C@H]1CCO1	
InChI=1S/C6H10O3/c7-6(5-3-9-5)4-1-2-8-4/h4-7H,1-3H2	InChI=1S/C6H10O3/c7-6(5-3-9-5)4-1-2-8-4/h4-7H,1-3H2/t4-,5-,6-/m1/s1
