21
gdb 105869	2.03132	1.4206	1.28606	1.5644	78.59	-0.2478	0.0582	0.306	1159.9987	0.181767	-424.191554	-424.181979	-424.181035	-424.225758	36.147	
C	-0.1094572783	 1.5208734147	 0.0645120002	-0.425065
C	 0.0694660537	 0.0151540241	 0.1245819533	-0.060395
C	 1.3195904212	-0.7389501586	-0.2367908396	-0.147304
C	 2.5754914276	 0.0156218929	 0.2249331499	-0.259009
C	 2.0657335429	-0.0931281388	 1.6886444648	 0.075839
O	 1.9849561746	 1.124642086	 2.4002775306	-0.431616
C	 0.776762348	-0.7734160137	 1.2072309921	 0.287167
C	 0.099503954	-1.8373744027	 2.0145837403	-0.198517
O	-0.4884719688	-1.2832954168	 3.195668678	-0.418772
H	 0.7293951414	 2.0559016552	 0.5085707211	 0.149479
H	-0.2330354586	 1.8531604866	-0.9726260519	 0.111642
H	-1.0099165821	 1.8200550794	 0.6134473999	 0.104547
H	-0.8160991835	-0.5253802404	-0.2130399427	 0.079815
H	 1.3129844327	-1.5383747432	-0.9688116342	 0.086464
H	 3.5071805986	-0.5283420001	 0.0601741564	 0.104462
H	 2.6901218466	 1.0328308194	-0.157363855	 0.108688
H	 2.6693140943	-0.8235419675	 2.2479374755	 0.071211
H	 1.4546939032	 0.9525259405	 3.1865936209	 0.282993
H	-0.645221435	-2.3793612368	 1.4111257553	 0.087672
H	 0.8246416152	-2.5739752146	 2.3796219902	 0.108069
H	-1.1558687276	-0.6514619356	 2.9068228349	 0.282632
76.7716	104.4018	147.3705	187.6291	219.1108	277.2539	312.2684	328.9981	377.6096	400.1342	419.6734	507.4119	582.1154	677.3988	727.5351	784.8118	843.9642	911.6127	939.7931	955.9957	974.3969	1000.3622	1030.5716	1057.353	1065.5006	1102.9449	1121.256	1130.2779	1167.9818	1197.5373	1228.2336	1251.5248	1264.087	1283.0634	1327.0837	1356.5571	1369.809	1410.4525	1415.083	1420.9234	1464.8053	1488.3091	1498.6183	1502.2682	1511.8028	2981.5412	2984.1376	3030.4359	3058.7999	3069.2141	3081.2118	3095.3264	3120.7285	3156.2586	3176.5239	3803.3995	3806.2562
CC1C2CC(O)C12CO	C[C@H]1[C@H]2C[C@@H](O)[C@@]12CO	
InChI=1S/C7H12O2/c1-4-5-2-6(9)7(4,5)3-8/h4-6,8-9H,2-3H2,1H3	InChI=1S/C7H12O2/c1-4-5-2-6(9)7(4,5)3-8/h4-6,8-9H,2-3H2,1H3/t4-,5+,6+,7-/m0/s1
