22
gdb 58313	2.32838	1.02439	0.84865	3.3198	82.65	-0.2811	0.013	0.2941	1474.896	0.19138	-404.362457	-404.351541	-404.350597	-404.399239	39.055	
C	 0.0433363482	 1.2748399275	 0.4910257959	-0.402407
C	-0.0512996906	-0.1423516348	-0.0926936978	 0.029223
C	 0.9039386696	-1.0930086155	 0.6421119683	-0.396315
C	-1.4935965484	-0.6767021089	-0.0641214821	 0.134871
C	-2.5061536573	 0.2179284267	-0.7796975597	-0.409993
O	-1.4562296309	-1.9710229073	-0.700276578	-0.245215
C	-2.4730597138	-2.8588957288	-0.3305345195	-0.19915
C	-2.3474760105	-3.3388540403	 1.0628229536	 0.253549
N	-2.2465558053	-3.7037131343	 2.154518238	-0.306724
H	 1.0865473699	 1.6043991558	 0.5109071006	 0.117696
H	-0.5217225959	 2.0073669143	-0.0912705245	 0.115735
H	-0.3281576497	 1.3021405749	 1.5225844803	 0.117113
H	 0.2453650147	-0.103557898	-1.1503472723	 0.080849
H	 0.6521384255	-1.1540470996	 1.7075733385	 0.11845
H	 0.8567735511	-2.1009250386	 0.2264935622	 0.128518
H	 1.9355416845	-0.7354899211	 0.564920708	 0.108575
H	-1.7934479376	-0.810477488	 0.987191187	 0.089077
H	-3.4881946714	-0.2616941185	-0.8376237791	 0.1138
H	-2.6419280054	 1.1633836804	-0.2491196029	 0.128502
H	-2.1732892153	 0.4328084188	-1.8000945461	 0.1264
H	-3.4796776739	-2.4312233273	-0.4497608288	 0.137993
H	-2.4038860975	-3.7211011972	-1.0013114614	 0.159453
36.7287	55.4676	91.1581	187.3529	209.1941	215.1244	226.5198	276.0826	298.4458	357.1029	370.5018	380.8697	426.5355	449.3261	504.9506	620.5221	798.8993	856.5301	897.6374	926.3359	931.6991	964.6906	987.6464	1033.095	1051.3916	1117.5481	1127.194	1154.384	1191.6381	1214.1023	1289.3443	1322.6511	1343.3556	1368.9135	1389.3694	1398.5654	1403.4173	1411.1232	1422.9674	1471.9602	1487.568	1489.7042	1493.5903	1500.5108	1506.8425	1518.8521	2355.8519	2984.4167	3004.1513	3012.5969	3030.6729	3035.836	3043.1297	3084.2995	3094.2593	3100.253	3107.1159	3113.2073	3127.6209	3135.393
CC(C)C(C)OCC#N	CC(C)[C@@H](C)OCC#N	
InChI=1S/C7H13NO/c1-6(2)7(3)9-5-4-8/h6-7H,5H2,1-3H3	InChI=1S/C7H13NO/c1-6(2)7(3)9-5-4-8/h6-7H,5H2,1-3H3/t7-/m1/s1
