20
gdb 118987	3.16407	1.04616	0.98119	1.3068	75.98	-0.2479	0.0223	0.2702	1311.8638	0.170227	-440.29168	-440.282201	-440.281257	-440.32669	33.888	
C	-0.26776905	 1.3504395	-0.8914475078	-0.22588
O	-0.2630894581	-0.0445959893	-1.0830926685	-0.24305
C	 0.6554722633	-0.7153936989	-0.246940337	-0.080115
C	 0.5720911525	-2.2175277775	-0.5431437163	 0.246887
C	-0.8136153106	-2.7657159997	-0.1913072853	-0.426723
C	 0.9879229991	-2.5303981257	-2.0119862361	-0.141497
O	 2.1961445056	-3.3231192389	-1.8843445608	-0.222208
C	 2.4049572362	-3.4394998086	-0.5547102037	 0.11207
N	 1.6105590069	-2.8956903389	 0.2688722389	-0.302894
H	-0.546285636	 1.6185669332	 0.1394980696	 0.108172
H	 0.7166264621	 1.7950340382	-1.1065865375	 0.106275
H	-1.0046782033	 1.7733312469	-1.5785570371	 0.128066
H	 1.6821181591	-0.3584014806	-0.4330379888	 0.087628
H	 0.4299758704	-0.5351438718	 0.8158259467	 0.100445
H	-1.5851969309	-2.2354132016	-0.7554355036	 0.131617
H	-0.8736169992	-3.8334842234	-0.4211329143	 0.114314
H	-1.0088955731	-2.6373715973	 0.8771446779	 0.124775
H	 0.2471939554	-3.1263355422	-2.5516773762	 0.117307
H	 1.2180804335	-1.6349796535	-2.593092657	 0.125613
H	 3.2823002771	-4.0206629404	-0.290893373	 0.139198
52.3192	85.3311	106.1843	164.8224	222.5434	234.4164	300.865	327.765	348.5147	404.1054	451.3276	590.7486	665.3195	812.4969	855.4149	930.5	960.5422	966.5548	969.8576	980.382	991.6439	1013.8064	1125.238	1148.9983	1166.0437	1177.1107	1192.9056	1213.9438	1230.4909	1271.9473	1294.513	1326.5685	1375.7752	1393.9876	1413.1223	1479.6745	1484.8325	1488.3808	1495.0896	1503.489	1519.4929	1527.7401	1700.6926	2961.163	2975.8793	3004.4528	3019.4188	3043.3102	3064.4593	3114.6662	3114.7179	3118.7347	3128.7389	3210.1222
COCC1(C)COC=N1	COC[C@@]1(C)COC=N1	
InChI=1S/C6H11NO2/c1-6(3-8-2)4-9-5-7-6/h5H,3-4H2,1-2H3	InChI=1S/C6H11NO2/c1-6(3-8-2)4-9-5-7-6/h5H,3-4H2,1-2H3/t6-/m0/s1
