18
gdb 95112	2.56521	1.45831	1.23606	2.703	78.61	-0.2409	0.0257	0.2667	1084.8764	0.148284	-401.900022	-401.891822	-401.890878	-401.932809	32.237	
O	-0.1284143878	 1.4057724819	 0.6806517192	-0.437514
C	-0.0019495529	 0.1664617681	 0.021972288	 0.077968
C	 0.89639718	-0.8494217431	 0.7748403855	-0.230633
C	-0.0357367578	-1.7533344816	 1.6229061592	-0.231879
C	-1.3918878963	-1.6633913869	 0.9331633508	-0.073362
N	-2.09988438	-0.4017137432	 1.2060050645	-0.382013
C	-1.367300809	-0.5620287051	-0.0828992367	 0.150925
C	-2.0929674333	-0.6123299371	-1.3128815458	 0.136745
C	-2.6931538402	-0.6405166261	-2.3555026582	-0.36813
H	-0.8145230393	 1.2698178304	 1.3514816449	 0.288293
H	 0.3940512678	 0.3801525262	-0.9739055245	 0.092119
H	 1.4153911344	-1.4695473869	 0.0353475509	 0.10239
H	 1.6547413922	-0.3255355497	 1.3608818638	 0.11154
H	 0.3227534143	-2.7855562336	 1.6560038841	 0.105467
H	-0.1222825948	-1.4022986425	 2.6557136892	 0.118053
H	-1.9859839966	-2.554955431	 0.761049186	 0.104115
H	-3.0973524094	-0.507320883	 1.0368511134	 0.244424
H	-3.2218227911	-0.6663041867	-3.2760558442	 0.191493
68.1411	140.9995	155.3728	268.2387	365.312	390.4924	448.44	511.8117	513.5215	549.2201	589.6475	606.73	657.8461	684.8582	719.593	805.6508	864.3273	891.2406	921.0162	930.7743	992.6739	1038.8405	1044.804	1053.6719	1113.6459	1141.623	1191.4046	1222.7831	1259.3944	1267.6929	1302.1996	1333.1893	1340.2364	1345.4701	1411.5769	1458.5398	1476.9404	1494.4715	2234.5353	3043.2595	3057.0672	3084.2696	3097.933	3115.4328	3168.0277	3501.8622	3506.4006	3708.023
OC1CCC2NC12C#C	O[C@H]1CC[C@H]2N[C@@]12C#C	
InChI=1S/C7H9NO/c1-2-7-5(8-7)3-4-6(7)9/h1,5-6,8-9H,3-4H2	InChI=1S/C7H9NO/c1-2-7-5(8-7)3-4-6(7)9/h1,5-6,8-9H,3-4H2/t5-,6+,7-/m1/s1
