18
gdb 81275	2.53724	1.58765	1.33448	4.3556	72.15	-0.2189	-0.021	0.1979	1031.0556	0.148123	-439.054511	-439.046624	-439.04568	-439.086665	30.944	
C	-0.2955504891	 1.3390598329	 0.0603841736	-0.331802
N	 0.0293782177	-0.0808135497	-0.0014414807	-0.13596
C	 0.8089030576	-0.5400853155	-1.2168645767	-0.03746
C	 2.1350130833	-0.1293844727	-0.5316977626	-0.264846
C	 1.2999572121	-0.4914586693	 0.7321848249	-0.117211
C	 1.1578776254	-2.0032759966	 0.5390688232	 0.416029
O	 1.3044349779	-2.8989315041	 1.3201433711	-0.32322
C	 0.7166501718	-2.0594517803	-0.9645000385	 0.063361
O	-0.5739039085	-2.5838145	-1.1375212067	-0.436806
H	 0.545132304	 2.0244510947	-0.1312061885	 0.103463
H	-1.0781378907	 1.5500640759	-0.6752435605	 0.129332
H	-0.6980227632	 1.5675544579	 1.0520526255	 0.131432
H	 0.4912825785	-0.1742085799	-2.1933192145	 0.084623
H	 3.0380544655	-0.7106941678	-0.7440264542	 0.114144
H	 2.3559982787	 0.9350211546	-0.6068348592	 0.123178
H	 1.482290569	-0.1070296385	 1.7338857639	 0.092563
H	 1.4026019203	-2.6535963008	-1.5739449781	 0.104476
H	-1.1530801604	-1.9988364509	-0.6276697521	 0.284702
107.4543	184.4997	215.9858	249.3712	289.6605	341.0307	444.9034	461.5954	524.828	534.0612	646.3568	688.0907	762.3131	792.4484	831.5202	888.6812	906.142	920.4593	959.4561	1003.4661	1053.4076	1112.6064	1123.6329	1141.6567	1152.1245	1180.5025	1186.7338	1223.7663	1238.4473	1265.1	1274.7173	1293.5774	1303.2876	1434.3642	1451.2654	1483.3792	1501.7136	1513.0052	1890.7235	2980.4463	3057.6386	3069.3316	3087.7831	3106.2495	3121.1882	3137.7989	3145.8825	3735.9603
CN1C2CC1C(=O)C2O	CN1[C@H]2C[C@@H]1C(=O)[C@H]2O	
InChI=1S/C6H9NO2/c1-7-3-2-4(7)6(9)5(3)8/h3-5,8H,2H2,1H3	InChI=1S/C6H9NO2/c1-7-3-2-4(7)6(9)5(3)8/h3-5,8H,2H2,1H3/t3-,4+,5-/m0/s1
