17
gdb 16684	4.03743	1.7907	1.64995	3.4602	68.43	-0.2172	-0.0079	0.2093	849.8103	0.143147	-363.841466	-363.834645	-363.833701	-363.87218	27.004	
C	-0.2066622135	 1.4414617043	 0.0766331877	-0.329876
N	 0.037822717	 0.0059157527	 0.0272035392	-0.111395
C	 0.7656454909	-0.5026073838	-1.1986888199	 0.002559
C	 2.1244659666	-0.1276801963	-0.5450015855	-0.252432
C	 1.2992366677	-0.4609006849	 0.7338183092	-0.111319
C	 1.0827961027	-1.9678252908	 0.5488416103	 0.466572
O	 1.214287351	-2.8629477869	 1.33471249	-0.331751
C	 0.6618812252	-2.0162766377	-0.939699612	-0.327944
H	 0.6586482051	 2.0860179537	-0.1500278897	 0.097308
H	-1.001392669	 1.6832397682	-0.6368271323	 0.124705
H	-0.567418342	 1.7030926535	 1.0763246236	 0.1281
H	 0.4503170045	-0.1199576829	-2.1695014323	 0.077445
H	 3.0065785693	-0.7326371986	-0.7773200245	 0.107313
H	 2.3723263886	 0.9304226412	-0.6218346407	 0.11835
H	 1.5203005173	-0.0921760138	 1.7335758846	 0.0863
H	-0.3548548701	-2.3994255885	-1.0492147029	 0.134641
H	 1.3465939886	-2.6279907896	-1.5338762648	 0.121425
132.8959	209.034	271.6139	288.1903	417.1151	444.453	522.1356	595.93	615.3995	760.3428	763.6114	808.1676	818.9393	893.3365	938.4427	968.2902	972.5911	1004.4601	1064.8635	1098.8234	1133.8436	1142.5438	1171.6368	1178.3956	1196.6168	1225.2246	1241.5828	1281.2883	1294.0931	1307.2301	1447.056	1450.0821	1483.1738	1501.2772	1516.4296	1885.519	2965.0943	3058.1946	3063.254	3070.3458	3101.4871	3116.319	3126.7086	3140.4223	3147.7443
CN1C2CC1C(=O)C2	CN1[C@H]2C[C@@H]1C(=O)C2	
InChI=1S/C6H9NO/c1-7-4-2-5(7)6(8)3-4/h4-5H,2-3H2,1H3	InChI=1S/C6H9NO/c1-7-4-2-5(7)6(8)3-4/h4-5H,2-3H2,1H3/t4-,5+/m0/s1
