21
gdb 80397	2.86666	1.43387	1.28043	1.918	77.12	-0.2339	0.0675	0.3014	1097.7272	0.181959	-424.220794	-424.212065	-424.211121	-424.253643	34.852	
C	 0.268342964	 1.4645971174	 0.0334003202	-0.434309
C	 0.0608005473	-0.0424177901	-0.0517383786	 0.381928
C	-1.4246311845	-0.4118791613	 0.0134281295	-0.409329
C	 0.7598310975	-0.6991996488	-1.27445677	-0.285599
C	 1.2975629594	-2.0167655904	-0.7306563405	-0.12469
C	 2.5377583937	-1.9272432593	 0.1517606591	 0.099082
O	 3.2886820978	-0.7579336697	 0.2041368326	-0.43012
C	 1.1675493095	-1.9259128307	 0.7723487066	 0.006883
O	 0.7301363326	-0.6311413623	 1.1045333326	-0.309238
H	 1.3344572826	 1.7089736746	 0.0132153219	 0.119066
H	-0.2114204893	 1.9633486455	-0.8142866609	 0.119271
H	-0.1631930233	 1.864934848	 0.9554205842	 0.123475
H	-1.9764686965	 0.0449805588	-0.8144594125	 0.11323
H	-1.5560136465	-1.4967621613	-0.0479126775	 0.119338
H	-1.8612260499	-0.0660286804	 0.9546658012	 0.121294
H	 0.0587800281	-0.8586443172	-2.0970837471	 0.101582
H	 1.5748369861	-0.0654628937	-1.6377223341	 0.115035
H	 1.1029644202	-2.942128905	-1.2596661045	 0.089851
H	 3.1443958553	-2.8245568432	 0.2393204234	 0.096371
H	 2.8059725315	-0.1659726735	 0.7994150749	 0.293863
H	 0.7995659243	-2.7182992472	 1.4163813994	 0.093017
78.7967	175.8218	220.5414	234.6026	267.7271	324.6856	340.1894	386.9537	446.148	481.2087	538.8067	585.6656	659.6345	727.9162	764.3698	786.2788	794.4851	875.1435	903.4378	938.4793	949.3655	975.9458	1015.6256	1036.5435	1053.4914	1069.3656	1095.2401	1124.197	1157.5705	1191.6354	1203.1075	1250.2402	1275.2281	1314.9166	1325.8496	1337.6374	1373.1134	1398.7784	1415.4642	1434.3311	1476.6023	1482.0293	1492.7101	1496.739	1505.81	3034.7706	3040.3552	3054.8566	3103.387	3106.522	3112.8507	3114.5874	3118.9896	3143.0345	3154.2522	3180.6675	3724.2851
CC1(C)CC2C(O)C2O1	CC1(C)C[C@H]2[C@@H](O)[C@H]2O1	
InChI=1S/C7H12O2/c1-7(2)3-4-5(8)6(4)9-7/h4-6,8H,3H2,1-2H3	InChI=1S/C7H12O2/c1-7(2)3-4-5(8)6(4)9-7/h4-6,8H,3H2,1-2H3/t4-,5+,6-/m0/s1
