19
gdb 116871	4.14311	0.54642	0.50438	1.9732	87.89	-0.2536	0.0133	0.2669	2203.0892	0.155551	-385.82227	-385.811292	-385.810348	-385.861223	38.116	
C	-0.1837024103	 1.6835349563	 0.2620668335	-0.382276
C	-0.1246982415	 0.1615677929	 0.4037966453	-0.155403
C	-1.1508848938	-0.5502638089	-0.5016893676	-0.338288
C	-1.1149672871	-2.0030136021	-0.3840992283	 0.009132
C	-1.0597004937	-3.2006113444	-0.2690235575	 0.150159
C	-1.0344060133	-4.661763073	-0.1199563125	-0.235264
O	-2.1125821324	-5.146965556	 0.6772595242	-0.390901
C	-0.9850473117	-5.3239427519	-1.4337566198	 0.332746
C	-0.9697642709	-5.8789318635	-2.4990499767	-0.459041
H	 0.5513653763	 2.168494978	 0.9111072939	 0.11687
H	 0.0238843848	 1.9956492045	-0.7675654974	 0.116864
H	-1.1727743603	 2.0701997546	 0.5320817969	 0.116701
H	 0.8783184733	-0.2024182812	 0.1550838217	 0.111095
H	-0.3095762866	-0.1291826692	 1.4437591162	 0.112117
H	-2.1603924826	-0.1919419104	-0.2585276706	 0.129023
H	-0.9751090096	-0.2645359247	-1.5476083414	 0.130192
H	-0.1362166415	-4.9458382915	 0.4437063761	 0.146268
H	-2.9295708767	-4.8953599774	 0.2310305489	 0.288132
H	-0.9491572222	-6.3687467319	-3.4412239648	 0.201873
6.6144	61.6041	75.9025	112.6326	160.2487	206.1295	240.5587	265.6129	305.2173	340.9418	351.1256	476.0201	526.6126	555.7834	604.2975	637.74	671.0007	742.4665	799.8057	871.6832	888.2443	941.1493	1036.2438	1042.3538	1108.3244	1121.8486	1160.4164	1257.7629	1259.0171	1304.0753	1311.7138	1322.1465	1381.2336	1412.9697	1413.5687	1470.4071	1491.7621	1499.0384	1508.6518	2236.9795	2363.9339	3010.8953	3027.45	3029.8946	3038.273	3042.5163	3074.4383	3100.7933	3106.7767	3503.4632	3800.4995
CCCC#CC(O)C#C	CCCC#C[C@@H](O)C#C	
InChI=1S/C8H10O/c1-3-5-6-7-8(9)4-2/h2,8-9H,3,5H2,1H3	InChI=1S/C8H10O/c1-3-5-6-7-8(9)4-2/h2,8-9H,3,5H2,1H3/t8-/m0/s1
