19
gdb 104228	2.72801	1.27815	1.19275	3.0587	71.58	-0.2271	0.0531	0.2802	1139.2074	0.157324	-460.116875	-460.107774	-460.10683	-460.15057	34.545	
O	-0.1525014861	 1.4886640197	-0.1678269376	-0.437345
C	 0.029001447	 0.0741199862	-0.166930674	-0.141945
C	-1.3502434453	-0.5296264628	 0.0580433827	 0.267442
O	-1.9250865912	-0.0078996913	 1.2254006149	-0.483522
C	-2.2369635692	-0.5905056948	-1.2169895014	-0.128778
O	-1.9884948219	-2.0124520252	-1.3475855686	-0.314362
C	-1.3942030539	-2.0500891282	-0.0506031978	 0.42878
C	-0.4302806037	-3.1088192739	 0.3681880158	-0.355079
C	-1.8132777624	-3.0192529524	 1.0016858034	-0.326291
H	 0.708682767	 1.9130333318	-0.123801986	 0.297401
H	 0.4506290146	-0.2843712875	-1.1157351419	 0.107619
H	 0.6956484168	-0.2369464	 0.6503464517	 0.096531
H	-1.6580512213	 0.9206564423	 1.2585200902	 0.288491
H	-3.2896704504	-0.3747608895	-1.0024714846	 0.10659
H	-1.9036633334	-0.0328395006	-2.0974879299	 0.105229
H	-0.2551980394	-3.9134992388	-0.3380652211	 0.124802
H	 0.4349964752	-2.8316941163	 0.9622013425	 0.112492
H	-1.8977418442	-2.650365247	 2.0179339247	 0.129797
H	-2.5419697082	-3.7696731315	 0.7153467868	 0.122147
78.6728	117.0401	149.2025	219.688	260.8062	266.2236	320.047	364.2147	422.1959	466.9743	485.8585	539.2351	600.6991	736.8226	760.8748	864.2064	867.5108	917.3625	942.0634	970.0677	986.3433	1007.4146	1045.7981	1048.3631	1064.6647	1075.3384	1147.4319	1162.6208	1186.4536	1210.6965	1221.452	1257.6305	1287.3858	1333.5597	1347.4264	1434.4277	1446.4551	1455.06	1493.566	1510.9133	1522.0145	2994.1047	3031.8029	3039.7375	3092.4025	3125.5752	3135.7081	3210.6716	3230.4973	3759.6589	3842.3063
OCC1(O)COC11CC1	OC[C@@]1(O)COC21CC2	
InChI=1S/C6H10O3/c7-3-5(8)4-9-6(5)1-2-6/h7-8H,1-4H2	InChI=1S/C6H10O3/c7-3-5(8)4-9-6(5)1-2-6/h7-8H,1-4H2/t5-/m1/s1
