20
gdb 95714	2.74228	1.21575	0.93368	3.331	74.79	-0.2139	-0.0146	0.1993	1264.1008	0.171908	-440.298931	-440.290046	-440.289102	-440.333038	33.872	
O	-0.6142397262	 1.491487033	-0.6386759585	-0.429576
C	-0.0427690092	 0.3043017322	-0.1049157421	 0.116374
C	-1.2052436747	-0.4965451352	 0.4780950534	-0.197966
C	-0.7997765604	-1.8005758927	 1.197420919	-0.308452
C	-0.5046719369	-2.9490590739	 0.2443294204	 0.366802
O	-1.215009975	-3.9261199237	 0.1844937591	-0.302353
C	 0.7326094201	-2.8588719338	-0.6708916642	-0.270886
N	 1.4873667736	-1.6245150241	-0.7533492809	-0.283222
C	 0.7678671407	-0.4362754833	-1.1854360047	-0.185784
H	 0.0909188303	 2.0137981537	-1.0352526163	 0.283249
H	 0.6498414413	 0.5518100127	 0.7218869083	 0.055945
H	-1.7225524262	 0.151962997	 1.191729755	 0.118098
H	-1.9253669545	-0.712806979	-0.3204032702	 0.116715
H	 0.0795427314	-1.6116449322	 1.8285887857	 0.101057
H	-1.6124865852	-2.1369593528	 1.8448843762	 0.125017
H	 1.4072920785	-3.6631692405	-0.3516712528	 0.133927
H	 0.3922113482	-3.1453921072	-1.6739450372	 0.139328
H	 2.024351859	-1.4494146441	 0.0874172493	 0.218651
H	 0.0962160617	-0.7154961945	-2.0066924251	 0.115831
H	 1.4925390634	 0.2771536583	-1.6066178247	 0.087245
32.6418	122.2856	202.2742	275.9128	278.3539	302.9627	325.7679	382.2206	420.8528	475.8017	490.009	552.2497	596.9311	664.4723	738.9845	833.8655	857.6754	919.0482	951.1868	1005.5389	1048.5287	1058.9325	1081.8707	1088.8036	1145.6466	1172.7631	1216.2212	1241.1442	1267.6102	1290.1848	1328.9502	1337.1278	1340.4578	1343.33	1359.0623	1396.6266	1433.715	1443.5868	1472.4506	1481.3803	1495.7941	1506.0778	1805.5922	2917.1273	2986.4053	3019.4039	3029.0219	3040.8267	3059.9695	3068.7899	3087.0957	3109.1918	3546.4745	3809.7705
OC1CCC(=O)CNC1	O[C@H]1CCC(=O)CNC1	
InChI=1S/C6H11NO2/c8-5-1-2-6(9)4-7-3-5/h5,7-8H,1-4H2	InChI=1S/C6H11NO2/c8-5-1-2-6(9)4-7-3-5/h5,7-8H,1-4H2/t5-/m0/s1
