13
gdb 21703	8.47921	1.12233	0.99135	13.7391	75.68	-0.2007	-0.0651	0.1356	1087.7551	0.097134	-390.917001	-390.909674	-390.908729	-390.948937	25.85	
N	-0.1397145265	 1.4815122238	-0.0629113397	-0.510495
C	 0.0216889814	 0.1433893571	-0.0059014178	 0.165378
N	-0.9550429457	-0.7148887475	-0.0077856546	-0.304247
H	-1.9188221988	-0.3842808615	-0.0126198419	 0.282878
C	-0.9236645658	-2.1116440484	-0.0055410321	 0.330317
C	 0.089338132	-3.0641484793	-0.0260498236	-0.157771
N	-0.5271743318	-4.2542461417	-0.0056276597	-0.20218
N	-1.8585652928	-4.0275509224	 0.0248699235	-0.151102
N	-2.1206754209	-2.7327781813	 0.0253231645	-0.304605
H	 0.6521113107	 2.074827	 0.1133252993	 0.296721
H	-1.0497720582	 1.9030524865	 0.0335447482	 0.287538
H	 1.0345957434	-0.239065989	 0.0068526347	 0.186547
H	 1.164643263	-2.9690061163	-0.0556813708	 0.081022
97.2439	125.3641	141.1445	246.5005	347.7478	404.6248	449.2776	453.759	672.9036	718.3908	787.3248	790.4171	816.4095	971.2536	976.4955	1025.3131	1069.2464	1089.3397	1151.5818	1233.7685	1265.3612	1317.2419	1383.8588	1397.3925	1464.7118	1521.5646	1651.7897	1759.7711	3231.2381	3234.8061	3500.9222	3608.6447	3731.389
NC=[NH+]C1=CN=N[N-]1	[NH2]=CNc1cnnn1	
InChI=1S/C3H4N5/c4-2-5-3-1-6-8-7-3/h1-2H,(H2-,4,5,6,7,8)/q-1/p+1	InChI=1S/C3H6N5/c4-2-5-3-1-6-8-7-3/h1-2H,4H2,(H2,5,6,7,8)
