22
gdb 52418	5.72235	0.51225	0.49716	3.642	84.94	-0.249	0.0344	0.2834	2218.8159	0.193989	-404.36595	-404.355719	-404.354775	-404.403549	36.146	
O	 0.1304500665	 0.7532341586	-1.195884486	-0.322925
C	 0.1175389432	 1.4229742195	-0.1846578338	 0.15355
N	 1.1515482543	 1.5541329248	 0.6886230636	-0.274423
C	 2.4504893271	 0.9299458915	 0.4881741316	-0.164161
C	 3.559402563	 1.9387212671	 0.1698012495	-0.177909
C	 4.9235152098	 1.2667641289	-0.0325938393	-0.203109
C	 6.0312598009	 2.253449414	-0.3353013819	 0.034861
C	 6.7634160563	 2.9463708573	 0.7879079239	-0.255673
C	 7.4688882583	 1.9062411092	-0.0489200666	-0.276319
H	-0.7674710903	 2.0058743953	 0.1413340185	 0.070674
H	 1.0262018421	 2.1694930405	 1.4768260116	 0.244252
H	 2.7153318202	 0.3492251115	 1.3814509418	 0.104892
H	 2.3220840495	 0.2264680399	-0.3380060159	 0.149932
H	 3.2801253705	 2.496673455	-0.7322517602	 0.110945
H	 3.6341441775	 2.6752765355	 0.9811304663	 0.091
H	 5.1883551196	 0.6959345539	 0.8683785408	 0.090039
H	 4.8486973006	 0.5329151021	-0.8466805567	 0.104028
H	 5.8604203982	 2.854183936	-1.2258305954	 0.08278
H	 7.0449572796	 3.9863703955	 0.6651835858	 0.110541
H	 6.4970900516	 2.6776310133	 1.8055792727	 0.10591
H	 7.6751024284	 0.9439048616	 0.4086208633	 0.109545
H	 8.2304673432	 2.235759729	-0.7469784738	 0.111572
19.4182	51.1421	83.7059	110.6719	129.8066	211.3077	260.4332	318.9648	334.7412	406.3502	485.6586	539.4266	731.5533	762.5784	774.4359	816.1302	835.8721	868.5089	927.616	968.5902	984.1396	1027.7468	1039.6101	1051.1845	1061.3707	1077.1856	1094.9049	1140.9311	1180.4967	1198.1701	1209.9489	1228.6295	1243.0993	1278.558	1317.0334	1333.4485	1365.7609	1405.1843	1419.0132	1432.0241	1468.6402	1480.7826	1483.859	1503.3848	1507.7512	1536.5031	1807.0872	2929.8623	3004.325	3016.8984	3021.9277	3036.712	3066.6539	3115.9685	3126.1538	3130.0343	3133.6467	3204.519	3219.9797	3631.1885
O=CNCCCC1CC1	O=CNCCCC1CC1	
InChI=1S/C7H13NO/c9-6-8-5-1-2-7-3-4-7/h6-7H,1-5H2,(H,8,9)	InChI=1S/C7H13NO/c9-6-8-5-1-2-7-3-4-7/h6-7H,1-5H2,(H,8,9)
