17
gdb 53797	2.93825	1.28492	1.00251	0.8095	71.02	-0.2398	-0.0867	0.1531	1198.3151	0.132462	-458.979843	-458.970478	-458.969534	-459.014632	34.031	
C	-0.5849148779	 0.8694583448	-2.1903966711	-0.477902
C	-0.7487343201	-0.5985094267	-1.9087416371	 0.321191
O	-0.3943123977	-1.4764386214	-2.6681670822	-0.303547
C	-1.4940890858	-0.9607021722	-0.598988722	 0.208804
O	-2.2710502458	-0.1498049351	-0.136418609	-0.312416
C	-1.3090142351	-2.3320611045	-0.0434501065	 0.30804
O	-0.2144887519	-3.0766005747	-0.4668317338	-0.468886
C	-1.731542778	-2.5534595723	 1.3869221951	-0.287206
C	-2.6150941022	-3.0701583606	 0.2961339632	-0.297547
H	-0.1994205237	 1.0151395284	-3.1995075345	 0.145488
H	-1.5380855628	 1.3843246562	-2.0476008751	 0.170348
H	 0.1120155668	 1.3008726669	-1.4615870792	 0.156751
H	-0.1996910288	-3.0287549987	-1.4336130243	 0.297867
H	-1.1229245673	-3.2659919899	 1.9309007782	 0.13509
H	-2.058389097	-1.6786150876	 1.9363175215	 0.139145
H	-3.5464117148	-2.5524140497	 0.0983531816	 0.133385
H	-2.5959615779	-4.1319654629	 0.0808127053	 0.131396
48.1532	64.6487	121.0089	213.6158	234.0636	291.9981	305.5871	363.5119	397.2964	436.2168	510.544	549.1905	593.8143	655.4658	728.0489	782.7035	818.9454	845.4744	935.8052	952.322	1001.7508	1031.0287	1047.8179	1069.0004	1092.2547	1205.3491	1219.8114	1279.5104	1332.0367	1382.8025	1418.2958	1439.4232	1454.4837	1458.447	1477.017	1766.7665	1787.2592	3044.3053	3114.8257	3142.9934	3146.417	3166.7211	3237.1835	3251.1046	3728.9264
CC(=O)C(=O)C1(O)CC1	CC(=O)C(=O)C1(O)CC1	
InChI=1S/C6H8O3/c1-4(7)5(8)6(9)2-3-6/h9H,2-3H2,1H3	InChI=1S/C6H8O3/c1-4(7)5(8)6(9)2-3-6/h9H,2-3H2,1H3
