21
gdb 99759	1.82944	1.46219	1.0125	2.8361	75.6	-0.2369	-0.0152	0.2217	1295.1115	0.178234	-461.371767	-461.360674	-461.35973	-461.408211	39.185	
C	-0.3049473899	 1.251196302	 0.108408656	-0.243011
O	 0.0553179161	-0.1191361917	 0.1032695939	-0.246218
C	 0.6502448429	-0.5913304379	-1.0792472054	-0.029317
C	 1.282598569	-1.9542244964	-0.7239172977	 0.130549
C	 2.3509283903	-1.8335351966	 0.3633200303	-0.402968
O	 0.2532311357	-2.8635556823	-0.3618809846	-0.441868
C	-0.37255608	-0.7472963687	-2.2236062478	 0.387022
C	 0.1460592471	-1.321569267	-3.5294956147	-0.488091
O	-1.5277444052	-0.4271415891	-2.0791593832	-0.300174
H	 0.5661758128	 1.8867727693	-0.1127529497	 0.101239
H	-1.1026925511	 1.4623778765	-0.6092549736	 0.140933
H	-0.6562339543	 1.47886964	 1.1175640334	 0.128367
H	 1.4428408564	 0.096843821	-1.4264018187	 0.077433
H	 1.7392646332	-2.3712222715	-1.6277640541	 0.089196
H	 2.7247959366	-2.8282251155	 0.6187676011	 0.124314
H	 3.1932396563	-1.2219541508	 0.0216992743	 0.10738
H	 1.9330664434	-1.3709236818	 1.2607665094	 0.131334
H	-0.2986817467	-2.4052419438	 0.2846153555	 0.29479
H	 1.1608044383	-0.9824256727	-3.7595213	 0.127771
H	 0.1720139159	-2.4141611343	-3.4459239879	 0.166799
H	-0.5342141769	-1.0522212287	-4.3386978765	 0.14452
59.1577	71.4474	113.4749	154.7742	165.2975	190.2292	201.409	237.0234	282.5641	316.1931	359.3135	411.2291	426.7242	468.1577	528.7134	610.5697	670.322	812.4519	875.3543	937.6533	952.0764	989.3359	1010.5743	1069.086	1110.3179	1128.3604	1157.9479	1177.0505	1196.8142	1221.7028	1274.3554	1311.05	1363.9758	1370.4849	1380.3724	1401.8787	1429.7496	1467.7096	1477.4942	1478.5642	1482.1861	1490.0027	1500.2513	1515.6827	1817.6249	2942.4965	2990.3403	3039.2384	3040.512	3059.5125	3086.5615	3105.7726	3112.7299	3127.4062	3134.6776	3148.433	3781.1887
COC(C(C)O)C(C)=O	CO[C@@H]([C@@H](C)O)C(=O)C	
InChI=1S/C6H12O3/c1-4(7)6(9-3)5(2)8/h4,6-7H,1-3H3	InChI=1S/C6H12O3/c1-4(7)6(9-3)5(2)8/h4,6-7H,1-3H3/t4-,6+/m1/s1
