19
gdb 82553	2.86276	1.54643	1.38832	3.3201	74.07	-0.2281	0.0682	0.2963	1010.4047	0.160156	-422.999339	-422.991583	-422.990639	-423.031205	31.165	
O	-0.5849526104	 1.707139113	 0.4269718459	-0.440308
C	-0.2245495502	 0.3896553902	 0.1601643167	 0.136979
C	-0.271624979	-0.7652941292	 1.1317574687	-0.112543
C	-1.1765363128	-0.6611596106	 2.3528357936	-0.293861
C	-2.5236157745	-0.2072845208	 1.7996690068	 0.375018
C	-3.6782120708	 0.1412980291	 2.6275073763	-0.249942
O	-2.8692048277	 1.1759024951	 2.0562237329	-0.284691
C	-2.6141091319	-0.6473794511	 0.3420259492	-0.293874
C	-1.166629446	-0.7566578321	-0.1201321638	-0.112542
H	-1.3693054276	 1.7498606946	 0.9877000717	 0.31423
H	 0.6590213978	 0.4008630046	-0.4714609985	 0.101093
H	 0.5941166333	-1.4153978509	 1.2025839571	 0.081887
H	-1.2724064295	-1.6470610993	 2.8237610966	 0.109338
H	-0.8231306261	 0.0400477998	 3.1154785156	 0.120271
H	-4.6838114603	 0.0615475842	 2.2161657741	 0.118725
H	-3.6148742071	 0.0512930265	 3.7113353687	 0.118726
H	-3.0970408693	-1.629604619	 0.271476534	 0.109343
H	-3.2168779464	 0.0629358997	-0.2327215379	 0.120264
H	-0.9577502415	-1.4004010938	-0.9681447879	 0.081888
140.9724	142.3754	243.4135	267.0168	324.2314	387.2388	404.8676	488.1292	499.9651	607.012	699.6656	743.3209	757.8406	772.4424	818.6778	874.2802	897.3412	938.5028	963.2188	1034.018	1037.8252	1047.5859	1057.9783	1092.8254	1113.4568	1123.8486	1169.1882	1185.7344	1220.8685	1229.7627	1236.8945	1280.5351	1300.8947	1342.0421	1350.8861	1386.0868	1431.2129	1467.5088	1472.2069	1486.726	1533.2181	3031.3796	3035.2892	3081.4762	3083.2018	3084.2725	3150.1186	3154.6487	3166.9653	3167.7739	3773.383
OC1C2CC3(CO3)CC12	O[C@H]1[C@H]2C[C@]3(CO3)C[C@@H]12	
InChI=1S/C7H10O2/c8-6-4-1-7(3-9-7)2-5(4)6/h4-6,8H,1-3H2	InChI=1S/C7H10O2/c8-6-4-1-7(3-9-7)2-5(4)6/h4-6,8H,1-3H2/t4-,5+,6-,7+
