23
gdb 95515	2.41353	1.53738	1.24057	0.2426	91.63	-0.221	0.0309	0.2519	1153.582	0.207663	-351.168447	-351.159912	-351.158968	-351.200967	34.761	
C	-0.1096719399	 1.5654052305	 0.047397485	-0.392079
C	 0.0189426272	 0.0336810562	 0.0174683958	-0.077682
C	 0.7576965597	-0.4608337819	-1.2423510036	-0.219643
C	 2.2209526526	 0.0101913352	-1.2782526007	-0.256594
C	 2.8933936651	-0.1433538582	 0.0607640472	-0.07367
C	 2.222774191	-0.3845948856	 1.1890889927	-0.112705
C	 0.7430409461	-0.5028015605	 1.2530051109	 0.388754
C	 0.0707145567	-0.3751254542	 2.6035310985	-0.328027
C	 0.1806157936	-1.7285255132	 1.9602470568	-0.318044
H	 0.8682012053	 2.0491492436	 0.1281698065	 0.124059
H	-0.5961850034	 1.9335229154	-0.8625137869	 0.104854
H	-0.7080292495	 1.8930719297	 0.902867142	 0.110287
H	-0.9949907177	-0.386193518	 0.0043577093	 0.060667
H	 0.7381024247	-1.5572962407	-1.2477301414	 0.098351
H	 0.2315816784	-0.1285757453	-2.144450281	 0.085899
H	 2.774073624	-0.5573598667	-2.0374684222	 0.100071
H	 2.2815021104	 1.0588332128	-1.6048737079	 0.106396
H	 3.9765606277	-0.0528286855	 0.0888347641	 0.079855
H	 2.7639291389	-0.511432951	 2.1250944705	 0.077289
H	 0.6931300017	-0.1619156697	 3.4666767499	 0.109992
H	-0.9065154811	 0.0954785681	 2.6361360875	 0.110334
H	-0.7180559055	-2.1763662327	 1.5481233216	 0.111024
H	 0.8835566741	-2.4417217982	 2.3770296156	 0.110614
102.4936	188.0948	225.8022	237.3587	270.247	292.9975	366.9872	420.9101	425.3109	541.0445	557.6681	652.3897	726.6742	773.5355	779.4219	825.2733	871.6531	899.6671	932.5494	944.2379	960.6388	964.904	989.034	997.8098	1024.2929	1051.3362	1063.6872	1077.9707	1114.9692	1123.9489	1170.8902	1191.5043	1219.8116	1238.824	1285.1423	1324.1773	1336.5508	1368.7306	1371.9018	1379.5527	1408.0796	1438.0157	1469.3403	1474.9329	1489.1461	1497.7744	1500.7799	1509.2551	1713.6443	2999.3792	3013.7232	3026.8141	3035.3804	3040.1118	3068.7954	3099.6976	3112.0192	3123.8941	3128.1925	3133.4726	3160.827	3202.1834	3218.2302
CC1CCC=CC11CC1	C[C@H]1CCC=CC21CC2	
InChI=1S/C9H14/c1-8-4-2-3-5-9(8)6-7-9/h3,5,8H,2,4,6-7H2,1H3	InChI=1S/C9H14/c1-8-4-2-3-5-9(8)6-7-9/h3,5,8H,2,4,6-7H2,1H3/t8-/m0/s1
