14
gdb 131727	4.54037	0.93707	0.78599	3.7962	73.	-0.2615	-0.0426	0.2189	1349.4375	0.102527	-432.893817	-432.885643	-432.884698	-432.927588	28.845	
O	 0.07283272	 1.3273430562	 0.371010835	-0.415632
C	-0.0009339801	-0.0233807081	-0.0550500977	-0.183057
C	-1.4357978574	-0.4475959451	 0.0166762136	 0.355516
N	-1.7659275195	-1.7305348634	 0.1791398444	-0.267696
N	-3.1014827003	-1.7494971864	 0.1638378164	-0.269413
C	-3.6443959989	-0.506759287	 0.0077474321	 0.29939
C	-2.5768611389	 0.3701870357	-0.0940408955	-0.368721
C	-5.0420657867	-0.2940123431	-0.023414255	 0.226365
N	-6.1894879002	-0.1383218842	-0.0484667877	-0.335811
H	 0.9633151638	 1.6465912123	 0.1995460104	 0.295238
H	 0.3625866472	-0.1324072832	-1.089534659	 0.110953
H	 0.6019760406	-0.6945765848	 0.5732887972	 0.117304
H	-3.5925541638	-2.6207218651	 0.2823957485	 0.291769
H	-2.6175010458	 1.4383335361	-0.2169331626	 0.143795
42.2941	118.3742	137.3	220.0798	243.127	304.3873	450.1854	490.3534	535.3164	550.6626	576.5391	683.4853	702.5099	740.9748	855.8278	1002.7314	1033.8286	1040.5232	1087.1226	1147.1603	1208.8504	1236.4513	1241.9814	1295.5661	1406.4119	1448.0713	1453.916	1508.3797	1517.609	1588.9025	2348.0487	2971.8475	3015.4494	3297.3229	3664.4217	3838.2042
OCC1=NNC(=C1)C#N	OCc1n[nH]c(c1)C#N	
InChI=1S/C5H5N3O/c6-2-4-1-5(3-9)8-7-4/h1,9H,3H2,(H,7,8)	InChI=1S/C5H5N3O/c6-2-4-1-5(3-9)8-7-4/h1,9H,3H2,(H,7,8)
