20
gdb 61931	4.72417	0.67217	0.63575	1.7069	81.4	-0.2441	0.0489	0.2929	1760.4038	0.1694	-403.083514	-403.073581	-403.072637	-403.11908	36.393	
O	-0.8310509436	 0.8275890466	 0.1283879329	-0.431806
C	-0.3058279218	-0.4906908137	-0.0152205123	 0.079986
C	 0.6258503028	-0.6095425855	-1.2247729311	-0.202746
C	-0.0786210549	-0.2644033993	-2.5524224488	-0.358185
C	 0.8203089908	-0.3103330772	-3.6980245918	 0.289472
C	 1.585404515	-0.3544729559	-4.6241164384	-0.43418
C	 0.3628013367	-0.9763541332	 1.2647630088	 0.012662
C	 1.1121201477	-0.0495801324	 2.1475170426	-0.247082
N	-0.1945451075	-0.5921784971	 2.5648316544	-0.326138
H	-0.0944516632	 1.4474336718	 0.0797511836	 0.285939
H	-1.1938983614	-1.1146067294	-0.1868954459	 0.097678
H	 1.4898247993	 0.0530746256	-1.082888068	 0.105925
H	 1.0264120262	-1.627888588	-1.2763056737	 0.117612
H	-0.9126592571	-0.9606848217	-2.7109361227	 0.132332
H	-0.5308802499	 0.7305136082	-2.46915476	 0.139093
H	 2.2493212567	-0.3905579062	-5.4518146032	 0.194615
H	 0.6902127917	-2.0137078278	 1.2149336912	 0.092881
H	 1.9667740921	-0.40881725	 2.713277044	 0.120679
H	 1.16652666	 1.0023296864	 1.877379899	 0.093211
H	-0.8997477696	 0.124153029	 2.3939252595	 0.238054
52.0873	73.3761	111.8612	121.5652	213.1253	276.6117	280.4206	342.2976	361.6712	379.2264	457.6638	567.0908	616.077	618.002	638.4712	769.4816	795.796	864.3935	896.8065	951.6187	970.2518	975.2165	1005.197	1044.1638	1068.9024	1088.7549	1122.0285	1157.5451	1162.5553	1199.6917	1262.2873	1278.4028	1291.2037	1309.6467	1338.445	1346.6638	1387.0775	1409.5575	1425.5175	1474.3234	1490.3387	1510.219	2239.569	3015.3304	3021.7	3033.5028	3059.9435	3083.1941	3106.5995	3120.1507	3188.8779	3477.6763	3507.1322	3798.573
OC(CCC#C)C1CN1	O[C@@H](CCC#C)[C@H]1CN1	
InChI=1S/C7H11NO/c1-2-3-4-7(9)6-5-8-6/h1,6-9H,3-5H2	InChI=1S/C7H11NO/c1-2-3-4-7(9)6-5-8-6/h1,6-9H,3-5H2/t6-,7+/m1/s1
