19
gdb 101516	6.25958	0.51687	0.49569	4.4444	84.68	-0.2616	-0.0564	0.2052	2181.2274	0.155449	-423.007638	-422.996704	-422.99576	-423.045927	36.953	
C	-0.1428669537	 1.5588207816	-0.0309339085	-0.387131
C	-0.0030426967	 0.0353816144	-0.0013717152	-0.188548
C	 0.7534352251	-0.4709230248	 1.2328122462	 0.145622
O	 0.1381720158	-0.063041248	 2.444169095	-0.418967
C	 0.9350374968	-2.0066178497	 1.1856437493	-0.400125
C	 1.6905989294	-2.5414360471	 2.306365767	 0.092829
C	 2.3255635529	-2.9929230021	 3.2294096179	 0.058584
C	 3.0861011588	-3.4865901142	 4.3465686039	 0.016968
O	 3.2420255744	-4.6574716518	 4.610351222	-0.231956
H	 0.8380976577	 2.0415706324	-0.0971798289	 0.119461
H	-0.734933175	 1.8839284746	-0.8911422181	 0.114649
H	-0.6277440913	 1.919073557	 0.8798846197	 0.130632
H	-0.9981663484	-0.4340605079	-0.0183848224	 0.089047
H	 0.5136196261	-0.3148942566	-0.9037458002	 0.101003
H	 1.7477806097	-0.0095931754	 1.2623639401	 0.102301
H	-0.7579879185	-0.4189454108	 2.4599310059	 0.280356
H	-0.0541311847	-2.4863161777	 1.1519986901	 0.132279
H	 1.4352653983	-2.287162939	 0.249383158	 0.144268
H	 3.5361733434	-2.6896667049	 4.9733623381	 0.098729
18.847	52.5639	62.1429	113.7856	163.5413	185.6191	217.8859	238.4003	297.2483	326.2706	394.6669	407.7846	458.1566	553.7916	607.1005	780.7914	833.1289	849.5011	906.4892	992.2071	1008.5711	1022.9695	1072.5721	1104.4107	1140.5362	1161.217	1192.8199	1264.3007	1286.3985	1349.4561	1360.9802	1385.0893	1408.0656	1421.5231	1424.6634	1450.3729	1482.4486	1495.5899	1508.8299	1766.3165	2332.4406	2916.3221	2998.8485	3006.4337	3040.3178	3042.5034	3045.5715	3062.1556	3106.8874	3125.5382	3789.9712
CCC(O)CC#CC=O	CC[C@@H](O)CC#CC=O	
InChI=1S/C7H10O2/c1-2-7(9)5-3-4-6-8/h6-7,9H,2,5H2,1H3	InChI=1S/C7H10O2/c1-2-7(9)5-3-4-6-8/h6-7,9H,2,5H2,1H3/t7-/m1/s1
