22
gdb 103543	2.24851	1.41239	1.21738	1.5848	81.96	-0.2436	0.0254	0.269	1192.0835	0.193555	-404.379327	-404.369633	-404.368689	-404.41379	36.487	
C	 0.1590175622	 1.6436173104	 0.0436719902	-0.395874
C	 0.2339408499	 0.1129720767	 0.0246572156	-0.191971
C	 0.7211102258	-0.4935405343	-1.3113892723	 0.261292
C	-0.2005092263	-0.1153328459	-2.4755646314	-0.430288
N	 2.0945308042	 0.0124688983	-1.574248432	-0.290357
C	 2.8709364156	-0.9796834958	-1.452749477	 0.105041
O	 2.3717007703	-2.2063103932	-1.1837443197	-0.236881
C	 0.9240677115	-2.0523379979	-1.2525385975	 0.080231
C	 0.2880263752	-2.8514582443	-0.1293321718	-0.41173
H	 1.1121214067	 2.0788841956	-0.2660841786	 0.142287
H	-0.6209980446	 2.0242275363	-0.6222947438	 0.113812
H	-0.071782517	 1.9992301766	 1.052616492	 0.107153
H	 0.9181440206	-0.2137843578	 0.8162290717	 0.09912
H	-0.7491955248	-0.3086359889	 0.2678194895	 0.090954
H	-0.2455352166	 0.9677750673	-2.6045408658	 0.13142
H	 0.1688572065	-0.5460195272	-3.4108117279	 0.116559
H	-1.2177687041	-0.4863321424	-2.3038177034	 0.108831
H	 3.9522833146	-0.9458752742	-1.5390777067	 0.135026
H	 0.6197314349	-2.4850217548	-2.2143804062	 0.084309
H	 0.6045306872	-2.4958397525	 0.8536365256	 0.129603
H	-0.8029837937	-2.7884866401	-0.188710201	 0.123643
H	 0.5697676321	-3.9043515417	-0.2182065995	 0.12782
46.2069	114.589	196.2085	210.5581	230.4449	237.4774	288.6094	315.3575	334.1554	344.3185	454.9616	504.1995	593.1659	634.2389	719.8483	789.6027	839.3037	848.4904	906.5955	933.2846	967.9402	1011.3106	1022.651	1034.4831	1076.6381	1087.7635	1122.0426	1146.4598	1192.4972	1214.6961	1226.0018	1315.7655	1327.7436	1365.7302	1369.0525	1391.8522	1405.6885	1410.7861	1413.3368	1475.0602	1483.5743	1488.6161	1493.8408	1501.6621	1508.5888	1514.6791	1704.9651	3014.7572	3023.6539	3034.5256	3044.9691	3046.8384	3062.4046	3102.4032	3106.2016	3114.8098	3128.6931	3130.1017	3133.3421	3202.9183
CCC1(C)N=COC1C	CC[C@@]1(C)[N][CH]O[C@H]1C	
InChI=1S/C7H13NO/c1-4-7(3)6(2)9-5-8-7/h5-6H,4H2,1-3H3	InChI=1S/C7H13NO/c1-4-7(3)6(2)9-5-8-7/h5-6H,4H2,1-3H3/t6-,7+/m0/s1
