22
gdb 104788	2.19237	1.47298	1.07252	1.4539	81.35	-0.2286	0.0617	0.2904	1217.7319	0.193881	-404.297825	-404.288324	-404.28738	-404.332113	36.194	
C	 0.6478444026	-0.5042321749	 1.5453441828	-0.394224
C	 0.0541284692	-0.1733939307	 0.1705598715	-0.254205
C	-1.3830475565	-0.6578618824	-0.0481281137	 0.32461
C	-2.3918354359	-0.054977064	 0.9335310863	-0.128429
O	-2.55393335	 1.3477580824	 0.7856919094	-0.425304
C	-1.9231500949	-0.5549939083	-1.5289178353	-0.287418
C	-2.1247669864	-2.0713881391	-1.5237751966	-0.035771
N	-0.784136213	-2.667469591	-1.2961446472	-0.341285
C	-1.5845242305	-2.1884244267	-0.1434496128	-0.100832
H	 1.6967246282	-0.196452048	 1.5969265353	 0.115125
H	 0.1209510056	-0.0019837301	 2.3638895458	 0.10897
H	 0.6118179068	-1.5814377689	 1.7412825551	 0.120989
H	 0.099497877	 0.910992156	-0.0061663004	 0.081733
H	 0.6739780194	-0.6300257775	-0.6065385911	 0.124491
H	-3.3818457887	-0.4864055049	 0.7479859293	 0.103395
H	-2.1185786008	-0.3169088186	 1.9676234915	 0.087761
H	-1.7180729174	 1.7678367087	 1.0099516963	 0.285575
H	-2.8454278717	 0.0254991272	-1.5866303678	 0.114589
H	-1.2142329799	-0.1901912761	-2.2764915016	 0.100407
H	-2.9026857279	-2.6437381528	-2.0142063672	 0.090225
H	-0.8959070394	-3.6806627075	-1.3318922352	 0.226349
H	-1.8583455158	-2.8652350526	 0.6584658155	 0.083249
59.1844	114.1584	165.0966	187.9747	207.3484	265.0244	295.821	331.4396	372.1655	414.844	458.5409	570.6774	670.7235	762.8128	779.2702	815.2111	839.2126	879.2848	914.758	944.3802	953.0964	977.651	1005.6616	1028.9011	1041.745	1073.5676	1091.8159	1102.9676	1135.3129	1150.4361	1152.4402	1219.522	1234.1901	1271.5674	1296.6781	1317.7252	1334.4356	1367.6504	1379.2551	1385.6918	1412.7149	1422.5429	1481.2649	1490.6045	1498.0318	1504.7932	1514.2228	2983.1363	3006.4968	3033.0847	3061.5446	3066.9322	3078.3777	3100.692	3102.9686	3128.4896	3168.0153	3188.9299	3468.0561	3824.7865
CCC1(CO)CC2NC12	CC[C@@]1(CO)C[C@H]2N[C@@H]12	
InChI=1S/C7H13NO/c1-2-7(4-9)3-5-6(7)8-5/h5-6,8-9H,2-4H2,1H3	InChI=1S/C7H13NO/c1-2-7(4-9)3-5-6(7)8-5/h5-6,8-9H,2-4H2,1H3/t5-,6-,7+/m1/s1
