21
gdb 111317	2.10956	1.58607	1.22529	1.1467	78.62	-0.2398	0.0781	0.318	1145.3342	0.180312	-424.185844	-424.176237	-424.175293	-424.21982	36.352	
C	-0.0656250798	 1.370274278	 0.0436410974	-0.242614
O	 0.2492849856	-0.0023702226	 0.1505034847	-0.245603
C	 0.6902683251	-0.5835248194	-1.0492014222	 0.104995
C	 1.3566674087	-1.9408458646	-0.8851259586	-0.085342
C	 0.3716609165	-2.9619647957	-0.3907468219	-0.296714
C	 0.3418135114	-2.5733506975	-1.8412889492	-0.10624
C	-0.3631809926	-1.2182407773	-2.0420256735	 0.357546
C	-1.8432898836	-1.1219894857	-1.7029781537	-0.450531
O	-0.0944255239	-0.6650384997	-3.3253377509	-0.483547
H	 0.8015427622	 1.9554753793	-0.2986311705	 0.108064
H	-0.8988060663	 1.5572608146	-0.6480761482	 0.11231
H	-0.3532405363	 1.7141080736	 1.0403904802	 0.124338
H	 1.310930483	 0.1164674269	-1.6236580402	 0.079827
H	 2.4259348728	-2.0984630311	-0.8211970678	 0.085198
H	 0.7953339901	-3.9399477854	-0.1852105177	 0.111342
H	-0.4239091234	-2.6740997619	 0.2887063693	 0.120161
H	 0.5247737872	-3.2822712891	-2.6406637005	 0.079762
H	-2.0409846832	-1.3829867852	-0.6611487164	 0.128832
H	-2.2043502303	-0.1041130936	-1.8764893858	 0.121997
H	-2.4257339814	-1.8015454217	-2.3379227582	 0.10319
H	-0.5992296517	-1.1684263519	-3.9738287064	 0.273031
98.0096	114.0522	157.9524	196.831	222.1432	247.0143	272.0719	296.2038	369.6566	408.3934	456.2886	505.3234	553.4716	642.5868	751.4582	803.1405	847.2597	905.3414	943.858	959.6034	991.2774	1005.8801	1032.3518	1053.843	1064.9086	1085.5692	1106.254	1152.8178	1160.8737	1177.0832	1186.3058	1214.2258	1235.6379	1255.7717	1317.3616	1331.5548	1374.0187	1389.6638	1407.5993	1479.821	1480.5642	1486.6857	1491.2499	1499.2608	1509.997	2983.4504	3023.4827	3027.0602	3036.8956	3097.2498	3112.7564	3125.707	3130.023	3175.1151	3189.0314	3209.5425	3796.4187
COC1C2CC2C1(C)O	CO[C@H]1[C@H]2C[C@H]2[C@]1(C)O	
InChI=1S/C7H12O2/c1-7(8)5-3-4(5)6(7)9-2/h4-6,8H,3H2,1-2H3	InChI=1S/C7H12O2/c1-7(8)5-3-4(5)6(7)9-2/h4-6,8H,3H2,1-2H3/t4-,5+,6-,7-/m0/s1
