16
gdb 51262	5.14301	0.93432	0.85587	3.6767	69.85	-0.2507	-0.0252	0.2255	1317.7673	0.123719	-437.890398	-437.882526	-437.881581	-437.9242	28.622	
O	-0.4504354423	 0.5805186446	 0.8010057448	-0.241015
C	 0.0996846308	 0.9649165216	-0.1960295728	 0.182259
C	 1.2611251182	 1.9486466823	-0.1820927268	-0.40299
C	 1.190027672	 2.9301013423	-1.3041863735	 0.401169
N	 0.1734312703	 3.1611657184	-2.0394595585	-0.305369
C	 0.5572220194	 4.2164675062	-2.9463700574	-0.019943
C	 0.9290409526	 5.5381716907	-2.3016048988	-0.317637
C	 2.0023745839	 4.5347997308	-2.6005242579	 0.056415
O	 2.3334779072	 3.6342587451	-1.5522827264	-0.246842
H	-0.1880872412	 0.6032234397	-1.2036070388	 0.103351
H	 1.2901905003	 2.4539303668	 0.7884862321	 0.155463
H	 2.1985916513	 1.3814063809	-0.2708389983	 0.152349
H	 0.1381538566	 4.1855905502	-3.9442326183	 0.108141
H	 0.9092190622	 6.4141165674	-2.9405263573	 0.126676
H	 0.636250905	 5.707494381	-1.270793272	 0.130255
H	 2.8268457438	 4.7195565622	-3.2760375099	 0.117716
41.9036	59.2322	169.0592	198.5585	364.1335	373.4774	456.0103	477.4161	647.1059	695.3274	748.1757	754.206	814.5162	815.269	924.5622	947.9891	982.0657	1014.6055	1044.0163	1055.9071	1064.4747	1082.7294	1124.1714	1131.1225	1182.0712	1202.3245	1210.21	1301.2688	1356.3536	1380.7986	1427.6631	1444.2941	1462.3476	1702.286	1840.217	2937.1275	3027.3448	3089.7148	3133.594	3189.6302	3204.9515	3228.0552
O=CCC1=NC2CC2O1	O=CCC1=N[C@H]2C[C@H]2O1	
InChI=1S/C6H7NO2/c8-2-1-6-7-4-3-5(4)9-6/h2,4-5H,1,3H2	InChI=1S/C6H7NO2/c8-2-1-6-7-4-3-5(4)9-6/h2,4-5H,1,3H2/t4-,5+/m0/s1
