25
gdb 120476	3.39764	0.76535	0.69047	1.35	89.36	-0.2607	0.0795	0.3402	1745.5271	0.227954	-389.483791	-389.473064	-389.47212	-389.519666	39.877	
C	-0.0437545249	 1.5904284483	-0.1263962604	-0.414037
C	 0.0958446221	 0.0802586231	-0.0014183115	 0.048604
C	 1.1304626864	-0.6638561946	-0.8872776455	-0.248683
C	 1.3993735588	-1.6295368978	 0.3005707274	 0.036533
C	 2.8087726463	-2.1533022925	 0.5457204089	-0.201872
C	 3.2656781635	-3.1342738109	-0.5273552986	-0.073723
O	 4.5858942429	-3.5511970429	-0.2083153351	-0.422314
C	 0.7699287175	-0.5625262619	 1.2601925484	-0.030881
C	 1.7672123877	 0.328447247	 1.9984856148	-0.395904
H	 0.9166319016	 2.0989876525	 0.005976667	 0.112861
H	-0.4265808724	 1.8625576584	-1.1166128796	 0.111228
H	-0.7400437313	 1.9937977396	 0.6178099939	 0.111276
H	-0.8882061697	-0.3825745936	-0.1399374523	 0.067402
H	 0.7815646898	-1.0894890549	-1.8322276452	 0.088582
H	 2.0041540335	-0.0354443422	-1.0964432082	 0.092928
H	 0.7098865677	-2.4805204631	 0.2314172026	 0.064364
H	 3.528722463	-1.327758929	 0.5821629536	 0.10162
H	 2.8625459693	-2.6589649678	 1.5184089859	 0.101054
H	 2.5753006086	-3.9934993564	-0.5635647277	 0.08083
H	 3.2310312135	-2.6491771561	-1.5164065259	 0.087287
H	 4.8838935265	-4.1554256778	-0.8943139274	 0.283461
H	 0.0639072587	-0.9740440425	 1.9893631257	 0.058179
H	 2.5038481529	 0.781955792	 1.3272055405	 0.114734
H	 1.2508647034	 1.1434839926	 2.5165709549	 0.110941
H	 2.3195427844	-0.2436745392	 2.751135184	 0.115529
66.2935	92.611	111.1986	129.4328	217.2957	244.5971	262.6723	265.9417	271.4318	332.949	344.0494	390.7657	493.7653	515.5141	643.0675	762.6028	797.0278	812.1527	884.0741	897.5861	930.1145	975.3233	1001.834	1012.6829	1043.1313	1047.4151	1071.5822	1093.3392	1148.9627	1163.7335	1172.6105	1186.2941	1226.1877	1238.7161	1255.5627	1267.8073	1282.1304	1296.6177	1315.5376	1332.9352	1367.4185	1372.2067	1398.7126	1413.1881	1415.1636	1460.3163	1487.2439	1490.9918	1492.4691	1495.4097	1505.1678	1507.2724	1526.9898	2957.1593	2983.395	3015.9708	3024.6719	3027.1931	3027.9156	3031.8947	3037.8866	3044.7381	3074.3415	3086.4243	3090.5233	3096.9242	3097.3035	3104.2816	3829.5412
CC1CC(CCO)C1C	C[C@H]1C[C@@H](CCO)[C@H]1C	
InChI=1S/C8H16O/c1-6-5-8(3-4-9)7(6)2/h6-9H,3-5H2,1-2H3	InChI=1S/C8H16O/c1-6-5-8(3-4-9)7(6)2/h6-9H,3-5H2,1-2H3/t6-,7-,8+/m0/s1
