17
gdb 43417	2.49968	1.75694	1.20021	5.4737	77.31	-0.2094	-0.024	0.1854	1030.1411	0.139174	-418.004681	-417.997109	-417.996165	-418.036681	29.334	
O	 0.0631956506	-0.1017643329	-0.0699942752	-0.36712
C	 0.0401063515	 1.1197045683	 0.006469084	 0.370869
C	-1.2101233219	 1.8395849957	 0.211517349	-0.205543
C	-1.4832431109	 3.1662705484	 0.1545629737	 0.031513
N	-0.7031963812	 4.2087599609	-0.2331257727	-0.280773
C	 0.4722101935	 4.1106230942	-1.077052796	-0.195363
C	 1.5853369763	 3.2317228316	-0.5346140789	-0.023358
N	 1.6167463368	 2.9589788467	 0.8925014921	-0.327028
C	 1.3650066968	 1.8396232762	-0.0516305081	-0.129719
H	-2.0367403383	 1.1875619546	 0.4702444531	 0.097419
H	-2.4807425374	 3.4826962245	 0.4524556975	 0.113205
H	-1.1462248683	 5.1105690404	-0.2251694734	 0.252444
H	 0.2036882126	 3.7377628785	-2.0795383581	 0.117971
H	 0.8552004338	 5.1285167125	-1.202522994	 0.114602
H	 2.5282924045	 3.3939753662	-1.0569903542	 0.091982
H	 2.5703874505	 2.9102134705	 1.2397091896	 0.24061
H	 2.1735691111	 1.1329259337	-0.2203453686	 0.09829
95.3658	178.1719	235.3295	277.6449	305.2543	383.351	449.1528	473.843	514.3316	640.6906	705.3295	752.497	767.1372	828.9274	868.7023	902.9497	924.4078	952.2076	983.4134	1015.4496	1045.9644	1070.589	1156.0453	1186.3484	1200.5507	1248.5011	1300.5368	1311.9247	1338.6664	1393.0095	1400.0727	1452.2546	1464.8621	1487.4755	1553.0711	1688.3163	1722.8053	2969.0366	3069.3751	3105.6976	3147.7712	3150.1422	3196.4314	3512.5564	3664.3708
O=C1C=CNCC2NC12	O=C1C=CNC[C@H]2N[C@@H]12	
InChI=1S/C6H8N2O/c9-5-1-2-7-3-4-6(5)8-4/h1-2,4,6-8H,3H2	InChI=1S/C6H8N2O/c9-5-1-2-7-3-4-6(5)8-4/h1-2,4,6-8H,3H2/t4-,6-/m1/s1
