15
gdb 123615	4.17031	1.57972	1.25089	3.865	70.23	-0.2302	-0.0069	0.2234	946.9486	0.116826	-412.947701	-412.941545	-412.940601	-412.97815	24.749	
C	 0.0774760877	 1.484545962	-0.0344864349	-0.234514
C	 1.334825907	 0.6842691653	 0.0021413722	-0.159565
N	-0.0114345497	 0.0204125069	-0.0184730167	-0.103371
C	-0.222386136	-0.6214784544	-1.3521912341	-0.288006
C	 1.0392110668	-0.2987687135	-2.0964382855	 0.312497
C	 1.9249794499	 0.4052115737	-1.3269557625	 0.321085
N	 3.0561050653	 0.6508630184	-2.0304041954	-0.298236
N	 2.9115448739	 0.1312722229	-3.2210764307	-0.122524
N	 1.6744791722	-0.4441289728	-3.2740093693	-0.327984
H	-0.294122418	 1.9631999779	 0.8676612056	 0.124505
H	-0.1412027511	 2.0150392498	-0.95945141	 0.116901
H	 1.9167814179	 0.589658969	 0.9126468996	 0.114517
H	-0.3643538756	-1.6986654176	-1.206117167	 0.133192
H	-1.1323119235	-0.2284463602	-1.818891036	 0.130606
H	 1.3965697232	-0.9095382975	-4.1229123052	 0.280895
158.8837	231.0976	353.5173	426.2583	451.5115	561.1022	594.9555	698.8041	705.2629	734.0064	750.5371	802.4672	836.8535	960.4788	999.3167	1016.1964	1029.8148	1037.974	1074.2444	1117.1947	1149.7898	1180.5751	1206.9167	1226.6771	1254.6417	1286.0578	1319.8225	1369.0431	1424.6241	1488.2737	1499.7207	1524.2617	1595.2169	3031.4761	3068.4363	3096.3985	3169.2901	3187.149	3661.8308
C1C2N1CC1=C2N=NN1	C1[C@H]2N1Cc1c2nn[nH]1	
InChI=1S/C5H6N4/c1-3-5(7-8-6-3)4-2-9(1)4/h4H,1-2H2,(H,6,7,8)	InChI=1S/C5H6N4/c1-3-5(7-8-6-3)4-2-9(1)4/h4H,1-2H2,(H,6,7,8)/t4-,9?/m1/s1
