19
gdb 17612	3.59708	1.34918	1.27312	2.8028	73.07	-0.2434	0.0056	0.249	1080.7125	0.164106	-365.069955	-365.060878	-365.059934	-365.10439	32.234	
C	-0.0100866027	 1.0814033406	-0.4644820009	-0.38543
C	 0.0750560872	-0.2168611717	 0.3635721193	-0.05794
C	 0.7195536981	 0.0285791521	 1.7319191544	-0.3843
C	-1.3369629753	-0.7739395367	 0.5273333032	 0.37091
O	-2.1022857033	-0.4058696643	 1.3914046131	-0.346813
N	-1.7279518119	-1.6577677625	-0.4853606123	-0.079319
C	-1.2395877486	-3.0223929704	-0.6089899231	-0.233666
C	-2.6633929076	-2.7287677696	-0.2389418028	-0.218474
H	 0.9887764244	 1.503201528	-0.6128577028	 0.114326
H	-0.4554949029	 0.8970500846	-1.4460943851	 0.126385
H	-0.6227026646	 1.8240764632	 0.0560496638	 0.133977
H	 0.6685361061	-0.9432522261	-0.203514078	 0.078181
H	 0.8435124899	-0.9041002451	 2.2912305448	 0.110307
H	 1.7060079698	 0.4873118803	 1.6137835443	 0.107808
H	 0.0916343195	 0.6935271034	 2.330099828	 0.140558
H	-0.9888566046	-3.3522861262	-1.6135334077	 0.127175
H	-0.587958528	-3.4013308969	 0.1750580047	 0.130046
H	-2.9665368439	-2.883361218	 0.7929102753	 0.139508
H	-3.4480357618	-2.8548347745	-0.979162248	 0.126761
29.957	90.4667	179.6824	182.9964	218.6786	245.9111	273.7	306.0142	348.3526	474.7385	592.0997	726.9141	772.4029	820.5466	867.0396	934.5678	938.3621	967.5628	972.4678	1043.3638	1110.7535	1114.1562	1121.1088	1129.3067	1136.3041	1173.2796	1177.6956	1201.9385	1331.1998	1347.6546	1388.8036	1401.438	1418.7207	1486.07	1491.1642	1495.9193	1499.9602	1513.8125	1523.2997	1785.4453	3036.7554	3039.442	3042.5346	3104.0017	3105.5193	3110.3926	3117.5171	3118.0491	3128.5229	3189.0684	3208.6857
CC(C)C(=O)N1CC1	CC(C)C(=O)N1CC1	
InChI=1S/C6H11NO/c1-5(2)6(8)7-3-4-7/h5H,3-4H2,1-2H3	InChI=1S/C6H11NO/c1-5(2)6(8)7-3-4-7/h5H,3-4H2,1-2H3
