18
gdb 55111	4.28393	0.97824	0.90698	5.27	72.62	-0.2419	0.0176	0.2596	1303.445	0.148189	-439.085924	-439.077733	-439.076789	-439.11955	31.057	
O	-0.2885098771	-0.0168013042	 0.4879826091	-0.368007
C	-0.0591787495	 1.2366544468	 0.0724486181	 0.421515
O	 1.0040704031	 1.6175781661	-0.3385811073	-0.345255
C	-1.2962469082	 2.1292896604	 0.1370903235	-0.107331
C	-2.1094402967	 2.2638656742	-1.1875005174	-0.332627
C	-3.3201657384	 1.8052111314	-0.3701320782	 0.392019
C	-4.6637782443	 2.4582847572	-0.2753236991	-0.328264
C	-4.5262342756	 1.0346998896	-0.7932953381	-0.315123
N	-2.4636627136	 1.462226372	 0.7826885968	-0.40059
H	-1.2309260904	-0.0238187807	 0.7677892814	 0.302907
H	-2.7513347023	 1.8713267461	 1.666312042	 0.231163
H	-1.0132087303	 3.0937348876	 0.5658220681	 0.109849
H	-2.1590613751	 3.2708471565	-1.6025429569	 0.124769
H	-1.797430597	 1.5668853508	-1.9682482318	 0.130237
H	-5.0978166738	 2.5934620445	 0.7110434212	 0.116438
H	-4.9054011133	 3.2475068141	-0.9802375275	 0.122914
H	-4.67603418	 0.8535716627	-1.8526893008	 0.122977
H	-4.8588564574	 0.2295564849	-0.1463547732	 0.122409
43.4834	86.818	174.6154	267.8813	285.7163	327.9905	415.113	446.5572	587.0247	613.1806	730.6966	750.7034	761.8045	797.3906	849.5493	871.378	904.2458	917.4726	949.2607	974.4699	1000.7912	1026.8125	1052.2283	1074.512	1082.2059	1132.5162	1185.7794	1215.2373	1233.9772	1244.2368	1283.5324	1311.7891	1336.4409	1405.5978	1430.1731	1456.4478	1490.0446	1504.055	1871.0881	3079.1819	3081.444	3120.6733	3129.463	3136.7487	3202.3424	3219.9192	3469.9241	3514.9693
[O-]C(=O)C1CC2(CC2)[NH2+]1	OC(=O)[C@H]1CC2(CC2)N1	
InChI=1S/C6H9NO2/c8-5(9)4-3-6(7-4)1-2-6/h4,7H,1-3H2,(H,8,9)	InChI=1S/C6H9NO2/c8-5(9)4-3-6(7-4)1-2-6/h4,7H,1-3H2,(H,8,9)/t4-/m1/s1
