13
gdb 21507	5.13792	1.76957	1.31624	1.7786	61.35	-0.2571	-0.0208	0.2363	854.7929	0.09793	-394.845381	-394.838574	-394.83763	-394.876643	24.847	
N	-0.1075651112	 1.3203501816	 0.0092349233	-0.566289
C	 0.0738572829	-0.0164965355	 0.0022950214	 0.515379
O	 1.1272362214	-0.6108119674	-0.0087956231	-0.376753
N	-1.1636426297	-0.7318505941	 0.0105487802	-0.038739
C	-1.2950344501	-2.0888414103	 0.0075007686	 0.012631
C	-2.6417210754	-2.3510547463	 0.0179005658	-0.253026
C	-3.256246973	-1.0738099331	 0.0269480626	 0.012378
N	-2.3642753264	-0.0959179528	 0.0225626241	-0.272958
H	 0.7047829873	 1.9099468445	 0.0024351345	 0.274543
H	-1.0410819023	 1.6981946041	 0.0169282243	 0.286006
H	-0.4205480284	-2.7169466666	-0.0017308459	 0.165864
H	-3.1183341351	-3.3175535012	 0.0188850692	 0.116366
H	-4.3102755498	-0.8359934029	 0.036430705	 0.124597
83.5294	161.2771	225.1755	240.3154	426.7458	529.0518	600.8836	616.9611	670.2981	678.1507	769.9046	790.9722	878.6841	909.0694	931.2342	970.7839	1055.1476	1082.2732	1105.6065	1218.7623	1253.4152	1325.0465	1399.3558	1425.8061	1460.6013	1568.9977	1588.6188	1844.2658	3243.1305	3273.1295	3298.4592	3603.981	3756.4759
NC(=O)N1C=CC=N1	NC(=O)n1cccn1	
InChI=1S/C4H5N3O/c5-4(8)7-3-1-2-6-7/h1-3H,(H2,5,8)	InChI=1S/C4H5N3O/c5-4(8)7-3-1-2-6-7/h1-3H,(H2,5,8)
