19
gdb 52944	4.5505	0.91444	0.8689	1.6538	85.69	-0.2389	0.0305	0.2694	1420.6224	0.159434	-385.851283	-385.842716	-385.841772	-385.886227	31.963	
C	-0.0152948747	 1.453366564	-0.0375902532	-0.514423
C	 0.0071833893	-0.0008681038	-0.0203846557	 0.365003
C	 0.0326719109	-1.2050687752	-0.0137671287	-0.343386
C	 0.0432363477	-2.6420710794	 0.0199709536	 0.350083
C	 1.0049977946	-3.4774590429	 0.9115663975	-0.26954
C	 0.7299597263	-4.4627235759	-0.2399563554	 0.058019
C	-0.7529043937	-4.8462215506	-0.0562696931	-0.220865
C	-1.3059174676	-3.4028627781	 0.1523700182	-0.268947
O	 0.6400957564	-3.321160666	-1.1482409695	-0.329256
H	 0.641536221	 1.8713712881	 0.733184158	 0.150741
H	 0.324700503	 1.8367137654	-1.0059288785	 0.156059
H	-1.025252787	 1.8402194339	 0.1368348931	 0.150317
H	 2.0183019919	-3.0782601412	 0.8827690166	 0.117138
H	 0.6933814423	-3.7300245538	 1.928429101	 0.093811
H	 1.4409193828	-5.2246197992	-0.5568282521	 0.079848
H	-1.15332688	-5.3237425411	-0.9526299512	 0.109183
H	-0.9205909786	-5.5069238938	 0.7987531127	 0.097829
H	-1.7771426257	-3.2440547075	 1.1252284526	 0.103315
H	-1.9992209188	-3.0915977529	-0.6302981861	 0.11507
15.4478	93.0717	96.5874	261.3105	291.4351	338.2394	421.8876	435.9965	488.5714	525.1437	576.7015	696.3664	819.3695	826.6523	843.3087	866.9104	923.3042	940.6426	959.0934	970.0794	1019.1114	1035.346	1051.9305	1055.1053	1090.9456	1134.2542	1153.4946	1205.6779	1226.5178	1232.4831	1281.0702	1295.797	1307.4323	1357.9638	1413.2676	1475.1367	1477.5335	1480.403	1480.9194	1505.6461	2370.6245	3027.6026	3063.1043	3066.4344	3076.6748	3089.0227	3090.6829	3112.7354	3131.1147	3132.6932	3152.3754
CC#CC12CC(CC1)O2	CC#C[C@@]12C[C@@H](CC1)O2	
InChI=1S/C8H10O/c1-2-4-8-5-3-7(6-8)9-8/h7H,3,5-6H2,1H3	InChI=1S/C8H10O/c1-2-4-8-5-3-7(6-8)9-8/h7H,3,5-6H2,1H3/t7-,8+/m1/s1
