20
gdb 65249	3.15046	1.30629	1.09263	1.4177	78.7	-0.248	0.0202	0.2682	1165.6583	0.17195	-403.153074	-403.144619	-403.143675	-403.186426	32.174	
C	-0.093242571	 1.5092315468	 0.3159473659	-0.466108
C	 0.007597556	 0.0306579538	-0.0094932427	 0.34624
C	 1.3390430777	-0.5117883313	-0.4702776363	-0.301663
C	 0.821088927	-0.8401577647	 0.9122681353	-0.304328
C	-1.2685295652	-0.5429708756	-0.6164266417	-0.052058
C	-1.6094712805	 0.0302568384	-2.0234142274	-0.118429
O	-1.844221227	-1.1449411105	-2.8409165925	-0.220867
C	-1.5435031196	-2.1934743785	-2.0435812033	 0.119338
N	-1.2124152073	-2.0033221967	-0.8359255373	-0.27797
H	 0.8356378052	 1.8744895723	 0.7638519645	 0.11808
H	-0.2842312219	 2.1148049376	-0.5786534217	 0.113601
H	-0.9049810183	 1.7037832421	 1.0277236416	 0.115789
H	 1.3399848779	-1.3159691835	-1.1975671401	 0.116716
H	 2.1673189081	 0.1829145116	-0.5635160276	 0.103524
H	 1.2953341726	-0.3665673488	 1.7656773244	 0.102118
H	 0.4757258869	-1.8527781117	 1.0797486581	 0.135531
H	-2.0896359288	-0.3455694974	 0.0865999786	 0.087036
H	-2.5111401026	 0.6453080073	-2.0506183106	 0.12129
H	-0.7764303956	 0.5863148216	-2.4646570998	 0.119641
H	-1.6216335135	-3.1605601529	-2.5288288575	 0.14252
66.5038	94.093	199.7272	220.5962	253.4456	317.992	341.0369	418.6331	464.4345	534.483	698.6465	749.4037	794.1552	871.3629	879.2835	885.9167	931.7514	951.9302	963.6053	965.7659	996.883	1034.5147	1050.8228	1066.7712	1071.4851	1090.4134	1132.4872	1138.3594	1194.3401	1224.1067	1272.8831	1306.4929	1321.8423	1352.8158	1365.2944	1380.5876	1417.276	1458.9197	1491.2951	1494.0088	1507.0913	1514.3093	1705.6769	3001.0937	3016.7401	3053.1964	3072.4776	3100.2239	3112.1963	3131.9133	3136.8772	3211.2691	3216.2074	3233.6504
CC1(CC1)C1COC=N1	CC1(CC1)[C@H]1COC=N1	
InChI=1S/C7H11NO/c1-7(2-3-7)6-4-9-5-8-6/h5-6H,2-4H2,1H3	InChI=1S/C7H11NO/c1-7(2-3-7)6-4-9-5-8-6/h5-6H,2-4H2,1H3/t6-/m1/s1
