21
gdb 118893	3.10464	0.99479	0.90342	1.9747	78.34	-0.2458	0.0673	0.313	1374.7913	0.181136	-424.184716	-424.175228	-424.174284	-424.219093	35.973	
O	-0.0862151504	 1.49701296	-0.0410103579	-0.417475
C	 0.021947045	 0.0843056814	 0.0421596235	-0.090664
C	-1.3769219392	-0.4990099497	-0.1246077068	-0.218366
C	-1.4360800603	-2.0205741041	 0.0063740771	 0.393901
O	-0.6863174823	-2.6572738881	-1.0240013926	-0.489572
C	-1.152830316	-2.6763266047	 1.4123930685	-0.299386
C	-2.517698419	-3.3720962735	 1.3376420709	-0.03777
C	-3.607212211	-2.3446297916	 1.2389590561	-0.293469
C	-2.8178739928	-2.6859490176	 0.0060032754	-0.066422
H	 0.7953467736	 1.8723744891	 0.0411850738	 0.284826
H	 0.6887277843	-0.3021286662	-0.746597995	 0.076405
H	 0.4459370644	-0.2244595764	 1.0124692485	 0.087166
H	-2.0256910837	-0.0344546996	 0.6251345938	 0.10456
H	-1.7633969922	-0.2144081966	-1.1097491459	 0.11039
H	 0.2464295181	-2.4653705643	-0.8824263331	 0.274615
H	-0.3082895573	-3.3655365568	 1.3451941558	 0.100056
H	-1.0058931404	-2.0036006648	 2.2648971318	 0.087639
H	-2.7169112861	-4.3942097652	 1.634295866	 0.084429
H	-4.6204365921	-2.7338349341	 1.2482410594	 0.112997
H	-3.5047646755	-1.3788789269	 1.7287569419	 0.106131
H	-3.2751199072	-3.0858449904	-0.8906576713	 0.090009
80.6373	86.665	133.3196	199.393	240.646	271.751	291.2091	343.8495	371.4787	434.0409	446.6421	497.2174	681.8698	764.3261	791.8063	800.6571	845.514	901.3554	937.1558	950.8193	981.3753	997.7963	1000.9858	1040.4514	1058.7233	1070.0721	1088.1392	1092.3515	1140.5768	1162.1081	1191.3324	1236.1034	1239.4928	1251.55	1256.8645	1278.7759	1316.4214	1325.2722	1362.7076	1387.8665	1460.6736	1468.4509	1478.2308	1497.8998	1529.1126	2951.6642	2976.6078	3035.1751	3044.6228	3091.1162	3107.5754	3109.0076	3182.7909	3188.419	3201.5509	3809.6626	3827.4475
OCCC1(O)CC2CC12	OCC[C@@]1(O)C[C@H]2C[C@@H]12	
InChI=1S/C7H12O2/c8-2-1-7(9)4-5-3-6(5)7/h5-6,8-9H,1-4H2	InChI=1S/C7H12O2/c8-2-1-7(9)4-5-3-6(5)7/h5-6,8-9H,1-4H2/t5-,6-,7-/m1/s1
