16
gdb 125688	2.97952	1.2274	0.9488	2.0309	71.38	-0.2488	-0.0342	0.2146	1202.1127	0.12441	-434.090081	-434.08136	-434.080416	-434.125024	30.066	
C	 0.0215997299	 1.4977907026	-0.0440508158	-0.50985
C	-0.0149519101	 0.0052003771	-0.0000728619	 0.253414
N	-0.0584561059	-0.7449624634	-1.103388254	-0.254207
N	-0.0865241412	-1.9862868828	-0.6334934686	-0.082228
N	-0.0663047209	-2.1232816059	 0.6836585855	-0.261412
C	-0.0244838963	-0.8613898122	 1.1191751764	 0.218907
C	 0.0489932629	-0.5187717984	 2.5760755934	-0.37884
C	 1.4691812718	-0.1052083218	 2.9395259108	 0.157036
O	 1.7860413448	 0.9982182017	 3.2994214143	-0.235651
H	 0.8132757811	 1.8944145229	 0.5988088768	 0.15183
H	 0.1925810598	 1.8390657175	-1.0666603885	 0.14688
H	-0.9236302215	 1.9290757092	 0.3054210028	 0.13817
H	-0.1249706463	-2.7832111587	-1.2478207198	 0.293763
H	-0.6249806547	 0.3028288334	 2.8334281389	 0.130104
H	-0.2194433737	-1.4054335573	 3.1605433103	 0.140939
H	 2.2220576203	-0.9153908039	 2.8154406693	 0.091144
46.9419	50.8307	98.0691	165.5182	231.9939	269.0593	382.4223	409.9136	474.8106	505.9298	656.0746	709.0141	720.0994	756.1099	864.8376	974.328	1017.0522	1026.5864	1054.4906	1073.5071	1161.8943	1195.0029	1218.4546	1249.6565	1296.1832	1373.8445	1417.1303	1418.9192	1449.5782	1457.0793	1483.942	1487.4356	1521.3473	1564.3431	1830.8084	2887.6474	3038.6065	3051.0022	3095.2833	3113.328	3139.7608	3670.7729
CC1=NNN=C1CC=O	Cc1n[nH]nc1CC=O	
InChI=1S/C5H7N3O/c1-4-5(2-3-9)7-8-6-4/h3H,2H2,1H3,(H,6,7,8)	InChI=1S/C5H7N3O/c1-4-5(2-3-9)7-8-6-4/h3H,2H2,1H3,(H,6,7,8)
