25
gdb 60276	3.67325	0.82163	0.70688	1.3224	89.02	-0.2587	0.0724	0.3311	1692.1753	0.229449	-389.514893	-389.504611	-389.503666	-389.551104	38.314	
C	 0.0247828455	 1.5908582773	-0.1304280284	-0.398465
C	 0.043657691	 0.0651339179	-0.0110845686	 0.130929
O	 0.880748921	-0.344732173	 1.0710282135	-0.421435
C	-1.3708681902	-0.5240686136	 0.0819537423	-0.223118
C	-1.4575417242	-2.0535927224	 0.0512139493	 0.060352
C	-0.9760541025	-2.7988959021	 1.3098870748	-0.201024
C	-1.5213246501	-4.2261575305	 1.123249964	-0.206741
C	-2.8635619228	-4.0582486838	 0.3532820109	-0.207125
C	-2.8997824272	-2.5789997967	-0.1114356795	-0.213639
H	 1.0461969218	 1.9790544218	-0.1674557038	 0.12214
H	-0.5048234761	 1.9153920502	-1.0320377349	 0.113687
H	-0.4807526654	 2.0420088299	 0.7329863297	 0.104418
H	 0.5367757775	-0.3521364304	-0.8986861517	 0.086259
H	 0.4807251927	-0.019899685	 1.8855149981	 0.274315
H	-1.8543617509	-0.1470703331	 0.9975350411	 0.078008
H	-1.9566299964	-0.1177398893	-0.753862679	 0.092238
H	-0.8620927839	-2.413132382	-0.8020296733	 0.06464
H	 0.1055683486	-2.7561295897	 1.4432915509	 0.111891
H	-1.432152562	-2.3336097954	 2.1957842554	 0.076536
H	-0.816493558	-4.8135817052	 0.5244557463	 0.096312
H	-1.6438367312	-4.7569993073	 2.0715549616	 0.090331
H	-2.9120242138	-4.7435625852	-0.4980907647	 0.095765
H	-3.7243442542	-4.29138574	 0.9865986879	 0.095203
H	-3.5648007752	-1.9950993186	 0.5379944722	 0.089828
H	-3.2763270942	-2.462016664	-1.1324512041	 0.088695
42.2306	53.7551	101.8935	134.5787	209.9157	239.0817	269.5948	300.0111	309.7512	425.0675	458.0461	480.2637	592.0495	629.5975	771.8328	807.3073	840.4399	868.0078	888.909	902.2735	945.0068	962.712	966.6843	986.4766	1030.0136	1046.57	1066.449	1095.5782	1128.0415	1135.9975	1175.7358	1205.5405	1218.5098	1244.7835	1268.5336	1289.0697	1305.7905	1320.6153	1333.3217	1337.8036	1340.7163	1358.8448	1383.0637	1395.9402	1402.8939	1421.814	1471.9448	1487.2622	1492.1638	1495.0403	1495.6546	1498.5704	1519.1723	2980.414	2987.5365	3007.419	3020.9523	3023.4491	3028.3418	3039.1596	3040.6132	3054.4103	3069.2951	3081.4544	3092.453	3099.1096	3117.8118	3125.1007	3797.8856
CC(O)CC1CCCC1	C[C@@H](O)CC1CCCC1	
InChI=1S/C8H16O/c1-7(9)6-8-4-2-3-5-8/h7-9H,2-6H2,1H3	InChI=1S/C8H16O/c1-7(9)6-8-4-2-3-5-8/h7-9H,2-6H2,1H3/t7-/m1/s1
