18
gdb 61909	3.57693	0.83768	0.71459	6.6478	74.27	-0.2498	0.0347	0.2844	1534.4953	0.147414	-435.318824	-435.308683	-435.307738	-435.355021	35.127	
C	-0.0641747268	 1.4982275014	 0.0517195017	-0.360053
N	-0.0272541351	 0.0469175947	-0.007580801	-0.086909
C	 0.0425815867	-0.7110854133	 1.2298867744	-0.172409
C	-1.3544959759	-1.1844918565	 1.7014739775	-0.333615
C	-1.2938247592	-1.8638166044	 2.9912292682	 0.256651
N	-1.2160769178	-2.3888178481	 4.0179262839	-0.306061
C	-0.1320713384	-0.6745907797	-1.1766477565	 0.443128
N	-0.1060397556	 0.0690265814	-2.3499215905	-0.571345
O	-0.2824614639	-1.8867079463	-1.1789808046	-0.40831
H	 0.9368980259	 1.9518246201	 0.0101078482	 0.126575
H	-0.6668588329	 1.8966356023	-0.767632831	 0.150393
H	-0.5330891989	 1.8159936684	 0.9872977452	 0.139118
H	 0.6729375638	-1.5883791444	 1.0748047354	 0.154896
H	 0.5072782077	-0.085432049	 1.9961732604	 0.121041
H	-2.0375692924	-0.331522006	 1.7832810381	 0.143925
H	-1.7547694544	-1.8642142066	 0.9439933134	 0.184236
H	 0.4847357206	 0.8854388855	-2.3893443544	 0.254154
H	-0.0326036734	-0.5274230596	-3.1606045684	 0.264585
57.174	80.3909	84.5894	99.9972	145.0517	172.0396	295.144	355.5553	383.5636	413.397	443.8303	490.8261	565.8602	576.1892	604.2931	763.367	782.9709	797.479	956.4124	1013.6995	1030.8307	1061.8578	1104.5392	1146.5459	1178.0535	1270.2885	1289.5113	1296.191	1360.1254	1405.4597	1430.0654	1463.5809	1475.0518	1495.8495	1503.1557	1526.8922	1624.9585	1773.725	2360.9298	2996.8144	3050.3072	3070.9331	3081.8953	3105.3393	3123.3761	3133.1732	3577.5056	3688.6696
CN(CCC#N)C(N)=O	CN(CCC#N)C(=O)N	
InChI=1S/C5H9N3O/c1-8(5(7)9)4-2-3-6/h2,4H2,1H3,(H2,7,9)	InChI=1S/C5H9N3O/c1-8(5(7)9)4-2-3-6/h2,4H2,1H3,(H2,7,9)
