17
gdb 56123	3.63212	0.72758	0.6378	2.4749	70.96	-0.2546	-0.0968	0.1577	1703.6149	0.130854	-459.006157	-458.995855	-458.99491	-459.043965	34.196	
C	 0.2015744202	 1.4394777465	 0.0473163402	-0.474776
C	 0.0154731283	-0.0654695994	 0.0410010022	 0.384476
O	-0.1578786636	-0.6961124121	 1.0587676142	-0.292379
C	 0.0399097568	-0.7359084201	-1.3285407035	-0.31806
C	 0.1515341053	-2.2543238258	-1.2502046587	-0.30947
C	-0.4364365563	-2.9642100729	-2.4419120954	 0.281006
O	-1.1493563244	-2.4567743774	-3.2783478492	-0.28101
C	-0.1116711955	-4.4584012027	-2.5958418437	 0.094732
O	 0.6548895089	-5.051040285	-1.8843142555	-0.214509
H	 1.2321473356	 1.6828941173	-0.2374798725	 0.144835
H	-0.4520959396	 1.9180833829	-0.6896139008	 0.139628
H	 0.0008980555	 1.8365882587	 1.0428333712	 0.146204
H	-0.8897956384	-0.4615983611	-1.8458628637	 0.152533
H	 0.8411228845	-0.2994436137	-1.9361426903	 0.123157
H	 1.1808600867	-2.5990638862	-1.1073066616	 0.145333
H	-0.377378144	-2.6106429833	-0.3543308406	 0.169012
H	-0.6500124198	-4.9268532359	-3.4466925323	 0.109289
26.447	45.6988	74.7346	115.5234	126.638	134.6383	219.2088	264.3621	390.9272	459.8695	474.5196	515.4015	589.8007	640.3799	737.275	790.8207	863.3252	890.647	959.5251	994.418	1080.5826	1081.3328	1151.6399	1169.2572	1191.6743	1263.1086	1341.4656	1364.0245	1383.2045	1391.1492	1442.8798	1456.4221	1464.6341	1476.6185	1799.2	1812.1612	1826.1245	2925.5335	3027.7506	3032.3452	3038.1168	3065.481	3087.1165	3097.7399	3154.4347
CC(=O)CCC(=O)C=O	CC(=O)CCC(=O)C=O	
InChI=1S/C6H8O3/c1-5(8)2-3-6(9)4-7/h4H,2-3H2,1H3	InChI=1S/C6H8O3/c1-5(8)2-3-6(9)4-7/h4H,2-3H2,1H3
