16
gdb 76244	2.67562	1.34573	1.06007	3.8576	69.83	-0.2717	-0.0527	0.2191	1126.595	0.122271	-437.9002	-437.890979	-437.890035	-437.934498	32.574	
C	-0.1930978116	 1.4438442316	-0.1052154114	-0.407523
C	-0.0277997323	-0.0677099652	-0.0328756623	-0.081325
C	 1.1535900185	-0.6143241597	-0.9313091147	 0.060028
O	 1.5667191322	 0.0539681793	-2.0757606036	-0.418173
C	 2.0186993173	-0.5427291123	 0.3288112147	 0.33476
O	 3.1548329941	-0.2345330982	 0.518461404	-0.277128
C	 0.7504352392	-0.5842807742	 1.2377845909	-0.290387
C	 0.7433988121	 0.2000264665	 2.4525501528	 0.304422
N	 0.7391836418	 0.8467351017	 3.4108362097	-0.322598
H	 0.7447093928	 1.9681687285	 0.1103343595	 0.13126
H	-0.5172363993	 1.7350171219	-1.107623253	 0.139368
H	-0.934324266	 1.7920352471	 0.6184873727	 0.144938
H	-0.9773761342	-0.5789190195	-0.1951635997	 0.101239
H	 0.9479434094	-1.6591866202	-1.1951417278	 0.125298
H	 2.2120809816	 0.724609651	-1.8229955606	 0.30297
H	 0.4871562143	-1.6234947282	 1.4592497989	 0.15285
69.709	112.1544	135.2219	155.6814	209.0785	226.397	266.146	354.4303	385.8604	486.5585	501.0187	581.6217	626.0859	746.7229	803.5892	819.7666	883.2458	922.5567	1009.4521	1054.5043	1070.8644	1112.4306	1126.3827	1167.6087	1217.0014	1264.4902	1291.9448	1330.8029	1365.4124	1417.3013	1424.7692	1493.6526	1495.6095	1891.7233	2357.3949	3040.6523	3041.03	3069.7868	3098.3324	3115.9118	3129.7966	3797.9601
CC1C(O)C(=O)C1C#N	C[C@H]1[C@@H](O)C(=O)[C@H]1C#N	
InChI=1S/C6H7NO2/c1-3-4(2-7)6(9)5(3)8/h3-5,8H,1H3	InChI=1S/C6H7NO2/c1-3-4(2-7)6(9)5(3)8/h3-5,8H,1H3/t3-,4+,5-/m1/s1
