14
gdb 127699	4.55161	1.11151	0.89844	2.7304	65.95	-0.2588	-0.0405	0.2184	1220.6681	0.101955	-466.207367	-466.199023	-466.198078	-466.24111	28.863	
C	-0.0048219703	 1.4183084604	-0.0167138142	-0.319224
N	-0.0160333443	-0.0321210669	 0.0276140081	 0.156359
N	-0.1691976349	-0.7798640512	-1.0633175573	-0.121057
N	-0.1293573393	-2.0186135767	-0.651393067	-0.27382
C	 0.0488966019	-1.9732876064	 0.6921938101	 0.315069
N	 0.1234069704	-0.7246118454	 1.1440669963	-0.284237
C	 0.149211833	-3.187280852	 1.5619306257	 0.350002
N	 0.0451839456	-4.3425838148	 0.8537565617	-0.536683
O	 0.3064976117	-3.1190698548	 2.7627248567	-0.349882
H	 0.948839464	 1.7882899529	 0.3641026483	 0.170088
H	-0.1385670967	 1.7122144143	-1.0566695255	 0.175553
H	-0.8183235115	 1.8091525479	 0.5971812351	 0.17008
H	-0.0894021318	-4.3277374078	-0.1436641138	 0.280541
H	 0.0960054722	-5.2163499395	 1.3491523159	 0.267211
63.4465	89.644	147.4176	171.7902	248.7078	287.7014	348.7247	402.392	525.029	581.0467	651.7287	689.7014	720.8813	754.9421	830.3725	1032.153	1053.4058	1086.6756	1103.1632	1152.7653	1258.9295	1291.9642	1311.8768	1402.6421	1419.8375	1452.2576	1476.4168	1501.2043	1532.131	1610.9268	1811.5335	3071.2761	3147.608	3182.4608	3599.2756	3741.0003
CN1N=NC(=N1)C(N)=O	Cn1nnc(n1)C(=O)N	
InChI=1S/C3H5N5O/c1-8-6-3(2(4)9)5-7-8/h1H3,(H2,4,9)	InChI=1S/C3H5N5O/c1-8-6-3(2(4)9)5-7-8/h1H3,(H2,4,9)
