17
gdb 86097	2.70302	1.36036	1.03317	4.3096	73.71	-0.2689	0.0005	0.2694	1176.902	0.135619	-418.051135	-418.042236	-418.041292	-418.085481	31.76	
C	-0.3892864645	 1.5475110682	 0.0141504812	-0.409103
C	 0.0808217956	 0.1090966329	-0.0818737536	 0.089944
O	 1.1416365887	 0.0010251737	-1.0625794528	-0.253418
C	 2.1373821519	-0.7224967651	-0.4934530556	 0.414392
C	 3.2944948934	-1.0190077999	-1.3826978388	-0.474802
N	 2.0196716214	-1.084660873	 0.7229159558	-0.300511
C	 0.7369629188	-0.5324359928	 1.193740471	-0.165086
C	 0.9594110818	 0.4156278739	 2.2957392697	 0.301429
N	 1.1138681954	 1.1679346877	 3.1588360695	-0.330473
H	 0.418354782	 2.2025252764	 0.3497565161	 0.149743
H	-0.7414476492	 1.8906505124	-0.9619357137	 0.133052
H	-1.214371992	 1.6291828122	 0.7275819918	 0.13816
H	-0.7341196012	-0.5364684982	-0.42618858	 0.105728
H	 3.7351046946	-0.0850058699	-1.7447138037	 0.154516
H	 4.0422234075	-1.5902818474	-0.8344848719	 0.160184
H	 2.9626777883	-1.5845954093	-2.2586465741	 0.150468
H	 0.1091949374	-1.3394386721	 1.5859622191	 0.135779
38.126	126.7983	139.9917	158.3197	236.1862	268.3153	304.3145	374.3179	440.5494	495.7186	563.0278	616.9959	678.9881	744.8293	828.3815	886.3422	962.1066	968.0622	991.6119	1064.6027	1066.9591	1078.5757	1123.7977	1157.4975	1243.4054	1288.1543	1324.2612	1368.5237	1386.5289	1417.0819	1420.4202	1473.0475	1474.5615	1482.3254	1495.1327	1725.7666	2359.6387	3042.7942	3051.4735	3054.6251	3059.946	3113.7511	3126.2861	3136.1794	3171.4554
CC1OC(C)=NC1C#N	C[C@H]1OC(=N[C@H]1C#N)C	
InChI=1S/C6H8N2O/c1-4-6(3-7)8-5(2)9-4/h4,6H,1-2H3	InChI=1S/C6H8N2O/c1-4-6(3-7)8-5(2)9-4/h4,6H,1-2H3/t4-,6+/m1/s1
