16
gdb 133041	4.89852	0.9832	0.82468	4.5182	76.71	-0.2048	-0.0234	0.1814	1316.5452	0.125496	-442.090162	-442.082308	-442.081364	-442.122651	29.65	
C	 0.0289602854	 1.4459945468	 0.0841280115	-0.325688
N	-0.0130363877	 0.0158317944	-0.1495382502	-0.377004
C	-1.2034573035	-0.6922034312	-0.0532330678	 0.310926
C	-2.4602729404	-0.0719352717	-0.0389113319	-0.075604
N	-3.6178492595	-0.7440374183	 0.0043633131	-0.311032
C	-3.5661084635	-2.0501664281	 0.0440242489	 0.31986
F	-4.7334936544	-2.698000438	 0.0904516998	-0.083562
C	-2.3882715363	-2.7950387367	 0.0454080322	-0.252661
C	-1.1957727344	-2.0982936854	-0.0056065768	-0.15011
H	 1.0683621888	 1.7780277816	 0.0417383374	 0.127808
H	-0.5199213282	 1.9797294373	-0.6994506243	 0.139991
H	-0.3939610535	 1.7438349135	 1.0564261275	 0.12018
H	 0.7910506604	-0.4857917994	 0.1935934942	 0.238061
H	-2.545348191	 1.0091442711	-0.066600491	 0.10607
H	-2.4211275633	-3.8767975056	 0.0841721646	 0.113782
H	-0.2503799088	-2.6331747804	-0.0132458071	 0.098982
93.2162	150.167	204.8344	232.5322	354.1213	384.4654	433.8493	449.2297	476.3897	548.3924	565.4922	650.1948	764.5073	769.7612	850.2194	873.7628	914.0687	958.9235	1026.1088	1083.2711	1140.9998	1153.5787	1174.2792	1288.2316	1305.4857	1334.2746	1348.135	1409.7993	1470.7898	1484.3291	1502.3505	1526.0663	1543.818	1620.841	1650.9399	2981.549	3063.3293	3123.615	3169.5684	3183.1969	3211.6544	3616.0468
CNC1=CN=C(F)C=C1	CNc1cnc(F)cc1	
InChI=1S/C6H7FN2/c1-8-5-2-3-6(7)9-4-5/h2-4,8H,1H3	InChI=1S/C6H7FN2/c1-8-5-2-3-6(7)9-4-5/h2-4,8H,1H3
