21
gdb 58754	2.49135	1.35807	1.1923	1.6536	78.3	-0.2482	0.0799	0.328	1173.7348	0.180932	-424.170363	-424.161223	-424.160278	-424.204173	35.316	
C	-0.0536832501	 1.4561051317	-0.1811495323	-0.39488
C	-0.0495399903	-0.0600690889	 0.0564206513	-0.11252
C	 0.7694537242	-0.4492699626	 1.2963497956	-0.39835
C	-1.446792554	-0.604793577	 0.1645072358	 0.387602
C	-2.606948061	-0.2742631764	 1.1361418572	-0.273187
C	-3.1707051825	-1.1476654061	 0.0018964539	-0.016184
O	-2.3926440724	-0.3446827506	-0.9796735679	-0.3847
C	-1.9429123133	-2.089266187	 0.1227897903	 0.150014
O	-1.5865968773	-2.8580347256	-0.9755659596	-0.449342
H	 0.9629074143	 1.8212677112	-0.3573281114	 0.111111
H	-0.6698581949	 1.7141241598	-1.0460189413	 0.135793
H	-0.4538091184	 1.9880135875	 0.6893219517	 0.113777
H	 0.4002362222	-0.5489003259	-0.8191440978	 0.087029
H	 0.7944911274	-1.5340622739	 1.4387371927	 0.123984
H	 1.8013391305	-0.0995874843	 1.19713194	 0.11827
H	 0.3505113856	 0.0025704125	 2.2026073898	 0.117718
H	-2.5702864809	-0.6957342814	 2.1442473697	 0.099055
H	-2.9419451727	 0.7624661979	 1.1177844389	 0.115046
H	-4.2057753822	-1.3729455464	-0.2552171529	 0.096413
H	-1.8419357192	-2.6925504382	 1.0277975236	 0.087547
H	-1.715285935	-2.2717195562	-1.7365589971	 0.285803
53.4848	139.808	177.0825	218.2244	242.7422	274.1253	291.6866	364.471	431.6986	491.3335	516.2511	588.9659	618.7078	708.2266	757.8893	780.571	878.2405	888.1265	904.6801	934.1027	943.6912	964.1374	976.5472	1021.0329	1085.	1119.9372	1135.693	1147.1144	1159.2558	1181.3833	1199.1322	1215.4431	1237.2529	1302.8498	1323.9498	1341.3402	1375.9142	1397.9427	1420.7789	1444.8497	1488.2606	1490.8018	1495.5013	1502.284	1514.4244	3011.0289	3031.7334	3035.942	3064.717	3096.699	3097.6939	3102.776	3110.0116	3122.0748	3123.5626	3153.386	3725.1917
CC(C)C12CC(O1)C2O	CC(C)[C@@]12C[C@@H](O1)[C@H]2O	
InChI=1S/C7H12O2/c1-4(2)7-3-5(9-7)6(7)8/h4-6,8H,3H2,1-2H3	InChI=1S/C7H12O2/c1-4(2)7-3-5(9-7)6(7)8/h4-6,8H,3H2,1-2H3/t5-,6-,7-/m1/s1
