17
gdb 45565	3.19879	1.468	1.26941	3.7388	67.32	-0.2578	0.011	0.2688	1014.6114	0.138317	-459.021237	-459.014094	-459.01315	-459.053448	27.318	
O	 0.0162925416	-0.0385322907	 0.1962889671	-0.330351
C	-0.0533345594	 1.1538662414	 0.1675764805	 0.420776
C	-1.291623423	 2.0392121055	 0.217890281	-0.377848
C	-0.7566715189	 3.4517055472	 0.4456462157	 0.090297
O	-0.7855966642	 3.8384058656	 1.8171478427	-0.272521
C	 0.5323153474	 3.8007121132	 2.3672209887	-0.08754
C	 1.467543384	 4.0610329907	 1.1831752029	-0.239513
C	 0.7386902943	 3.344839622	 0.0503354623	 0.076442
O	 1.0570988115	 1.9427083421	 0.0625355831	-0.235638
H	-1.8156564155	 1.947701495	-0.7393542528	 0.140307
H	-1.9717040245	 1.7145800581	 1.006267883	 0.154348
H	-1.2980223334	 4.2082120159	-0.1294049786	 0.092719
H	 0.5904154258	 4.5608574678	 3.1502652281	 0.116954
H	 0.7370934788	 2.8203578736	 2.8211628142	 0.111631
H	 1.5192033053	 5.1316450023	 0.9613879606	 0.115476
H	 2.4802590285	 3.6795849074	 1.3250029382	 0.127848
H	 0.9670272518	 3.7367779028	-0.9437475367	 0.096614
75.354	97.5886	208.2638	345.9898	378.5349	499.0535	551.7862	589.1413	652.7238	676.4799	808.7594	837.1441	846.2199	883.0914	897.3962	931.9505	986.1838	1006.0039	1034.6285	1046.7736	1100.1869	1125.2078	1153.6282	1193.3043	1218.9291	1231.2733	1260.1109	1306.3204	1316.0037	1338.5461	1364.1815	1376.1609	1400.5062	1443.5897	1474.2587	1525.264	1887.4064	3003.1984	3059.3543	3061.6002	3070.8809	3086.7471	3097.7425	3129.8925	3136.729
O=C1CC2OCCC2O1	O=C1C[C@H]2OCC[C@H]2O1	
InChI=1S/C6H8O3/c7-6-3-5-4(9-6)1-2-8-5/h4-5H,1-3H2	InChI=1S/C6H8O3/c7-6-3-5-4(9-6)1-2-8-5/h4-5H,1-3H2/t4-,5-/m1/s1
