19
gdb 69435	3.81845	1.15408	0.9976	2.122	81.42	-0.2488	0.0539	0.3027	1230.3207	0.158268	-385.862261	-385.853623	-385.852679	-385.895226	33.462	
C	 0.0358925898	 1.5078986282	-0.0542857682	-0.484472
C	-0.0698518749	 0.0146345748	 0.0843416084	 0.414289
C	-1.3351877828	-0.7208438349	-0.3353208271	-0.286215
C	-1.1228806546	-2.1677439627	 0.1592726084	-0.230071
C	-0.210132259	-2.0379078488	 1.4162214803	-0.192694
C	 0.5777664035	-3.2270756847	 1.7090348875	 0.319544
C	 1.2298024985	-4.2079988755	 1.9488420111	-0.452958
C	 0.6106272891	-0.7847716346	 1.111973892	-0.019977
O	 1.1208422753	-0.7414001204	-0.2229913205	-0.291814
H	 0.9951424676	 1.8644143907	 0.3286836028	 0.1316
H	-0.0415833495	 1.8042942082	-1.1061912078	 0.128775
H	-0.7698518572	 2.0080000788	 0.4937307027	 0.121251
H	-2.1971917563	-0.2514347205	 0.1553324416	 0.10171
H	-1.5075841693	-0.6710594245	-1.4153760385	 0.108705
H	-2.056012145	-2.6864188915	 0.3873286322	 0.10639
H	-0.5919064277	-2.7468454855	-0.5971450304	 0.132817
H	-0.8309086157	-1.8031540512	 2.293424977	 0.103105
H	 1.8100792728	-5.0723718177	 2.1570505594	 0.19379
H	 1.2525383454	-0.3580514381	 1.8788635492	 0.096226
95.2437	132.6912	184.7045	206.555	265.1859	307.8489	376.2018	415.8787	493.1816	516.9025	579.5394	619.0152	631.9699	666.4602	700.9521	846.1806	852.856	858.4844	923.4388	964.2406	996.5326	1008.2032	1032.3559	1066.797	1085.8023	1111.1977	1179.3668	1218.2396	1239.7259	1288.2609	1297.2518	1311.8352	1337.2817	1360.1823	1411.0621	1453.3136	1478.569	1487.3685	1493.6843	1502.1402	2237.7749	3000.61	3030.3692	3036.26	3077.1204	3086.7456	3096.1998	3123.8561	3135.9919	3145.1515	3505.0347
CC12CCC(C#C)C1O2	C[C@]12CC[C@@H](C#C)[C@H]1O2	
InChI=1S/C8H10O/c1-3-6-4-5-8(2)7(6)9-8/h1,6-7H,4-5H2,2H3	InChI=1S/C8H10O/c1-3-6-4-5-8(2)7(6)9-8/h1,6-7H,4-5H2,2H3/t6-,7-,8+/m1/s1
