23
gdb 76735	1.97618	1.78567	1.12909	1.7609	85.89	-0.2357	0.0819	0.3176	1211.4624	0.202623	-388.282869	-388.272464	-388.27152	-388.317322	39.059	
C	-0.6789981931	 1.4823607827	-0.5026466884	-0.410258
C	-0.3185313717	 0.0078628173	-0.3764621751	-0.060057
C	 0.9954872338	-0.5478347152	-1.0704068753	-0.060063
C	 1.8936852114	 0.3943787636	-1.8612804321	-0.410257
C	 1.4850492014	-0.9781480975	 0.3269762856	 0.343827
C	 2.4314071454	-2.0813329988	 0.6760830475	-0.506495
O	 1.5232325989	 0.2228150939	 1.1253079245	-0.334988
C	 0.2621809999	-0.4609766538	 0.9727991364	 0.343827
C	-0.4770008259	-0.851311224	 2.2120542355	-0.506495
H	 0.1329254036	 2.1142129075	-0.1338801478	 0.132276
H	-0.8827535253	 1.7568448216	-1.5430149368	 0.11155
H	-1.5783461002	 1.7142569508	 0.079024857	 0.109421
H	-1.1730852318	-0.6161198551	-0.6610929728	 0.066461
H	 0.7450928564	-1.4273087545	-1.6741116106	 0.066461
H	 2.2254063837	 1.229317927	-1.2389599655	 0.132277
H	 2.7842676712	-0.130661441	-2.2247921595	 0.109422
H	 1.3749741367	 0.8020247802	-2.7353437679	 0.11155
H	 3.4515548249	-1.8347363352	 0.3598397175	 0.130232
H	 2.4478878441	-2.2530052188	 1.7558512002	 0.129798
H	 2.1421300463	-3.0121052906	 0.1767576389	 0.120741
H	-0.9423363426	 0.0236396143	 2.680500678	 0.130235
H	-1.2713799602	-1.5683650268	 1.9793774404	 0.120741
H	 0.1995501131	-1.3023572875	 2.9431356204	 0.129795
107.0405	171.4856	179.9559	180.2583	195.3482	201.1214	217.782	232.0067	245.7703	321.7328	354.7438	480.2543	559.1349	563.5883	641.6235	696.516	698.0002	766.0513	821.8195	843.8256	936.3011	991.6505	1010.8077	1029.9795	1036.3176	1083.9879	1098.0883	1139.54	1160.0813	1161.9022	1211.1341	1219.1514	1234.0686	1311.1076	1355.0296	1360.0147	1400.3837	1407.2949	1408.5437	1408.6276	1474.0521	1475.9969	1483.4447	1488.2016	1490.9709	1498.4147	1498.757	1511.5611	1528.3852	3029.547	3029.9339	3031.2116	3033.8829	3035.9381	3052.5857	3088.5353	3091.2975	3091.4128	3092.6047	3114.0596	3116.4674	3117.6174	3124.3667
CC1C(C)C2(C)OC12C	C[C@H]1[C@@H](C)[C@@]2(C)O[C@@]12C	
InChI=1S/C8H14O/c1-5-6(2)8(4)7(5,3)9-8/h5-6H,1-4H3	InChI=1S/C8H14O/c1-5-6(2)8(4)7(5,3)9-8/h5-6H,1-4H3/t5-,6+,7-,8+
