19
gdb 38344	3.77814	1.40631	1.18966	3.3446	75.33	-0.2312	0.0797	0.311	1072.5248	0.160336	-422.956419	-422.94911	-422.948166	-422.988696	29.124	
C	-0.0833334682	 1.5948783802	 0.1068966556	-0.239898
C	 1.4240233536	 1.2464088947	 0.0461413335	-0.023915
O	 1.1653410779	 0.1569134503	 1.0151957741	-0.312254
C	 0.0723539796	 0.0579414063	 0.0206533152	-0.029598
C	 1.1340571454	 0.2417587841	-1.109812285	 0.510906
C	 0.7450170823	 0.688498794	-2.53412368	-0.333221
C	 1.8292217933	 0.0473946028	-3.4146229871	-0.227069
C	 2.1713013008	-1.2006119369	-2.6006881681	-0.077757
O	 2.0807886255	-0.7919536699	-1.2415333261	-0.300364
H	-0.4078293261	 1.9440328313	 1.0863688287	 0.11324
H	-0.5496782518	 2.1391111655	-0.7171598245	 0.096252
H	 2.2967736718	 1.8774648552	 0.2191134613	 0.091446
H	-0.6697463297	-0.729212544	 0.1618032558	 0.091086
H	-0.2433018653	 0.2923175759	-2.7928192413	 0.111891
H	 0.7001471719	 1.7739011973	-2.639205263	 0.113817
H	 1.4891690038	-0.1759349341	-4.4285892824	 0.103411
H	 2.7049630436	 0.7007144446	-3.482830371	 0.110941
H	 1.457946994	-2.0141971107	-2.8090078081	 0.090623
H	 3.1820305676	-1.5819178963	-2.7696087078	 0.110463
42.6959	190.2554	240.8906	269.7046	394.9776	422.6806	526.8417	605.5296	640.5137	736.2797	770.0241	779.5611	858.9543	874.6012	896.4875	911.3323	922.5995	943.7384	992.0266	1013.4895	1022.9733	1060.6444	1102.121	1121.5538	1138.4237	1156.5975	1168.8657	1182.884	1199.9818	1214.5803	1226.4898	1262.4442	1269.1552	1308.3643	1337.6255	1341.3138	1393.0495	1483.1612	1487.5427	1498.2638	1525.5433	2975.3637	3045.8131	3054.6146	3072.3694	3088.711	3106.9655	3108.4053	3115.6958	3117.0416	3159.5782
C1C2OC1C21CCCO1	C1[C@H]2O[C@@H]1[C@]12CCCO1	
InChI=1S/C7H10O2/c1-2-7(8-3-1)5-4-6(7)9-5/h5-6H,1-4H2	InChI=1S/C7H10O2/c1-2-7(8-3-1)5-4-6(7)9-5/h5-6H,1-4H2/t5-,6+,7-
