15
gdb 127364	3.42976	1.80436	1.1912	3.1883	73.04	-0.2083	0.0076	0.216	974.8168	0.116289	-413.013771	-413.006703	-413.005758	-413.045766	26.187	
C	 0.0172320943	 1.451658827	 0.0304469804	-0.341616
N	-0.0093015712	 0.0044417115	 0.0222945851	-0.164793
C	-0.105746231	-0.8430611351	-1.0558517482	 0.026371
N	-0.1049873743	-2.1154231356	-0.7422266866	-0.266077
N	-0.0014053228	-2.0839468785	 0.6254694435	 0.029524
C	 0.0639933632	-2.941399665	 1.7064986951	-0.148121
C	 0.1606083492	-2.0904853772	 2.7879912038	-0.088469
N	 0.1580422832	-0.7497261915	 2.4300923144	-0.416641
C	 0.0588481545	-0.8183104386	 1.1242201422	 0.505395
H	 0.9483700357	 1.8144049226	 0.475035627	 0.160576
H	-0.0541919312	 1.8131845322	-0.9966281657	 0.144572
H	-0.822751669	 1.8460799062	 0.6093480667	 0.160605
H	-0.1753363352	-0.4776349305	-2.0682334163	 0.152452
H	 0.03738233	-4.0114830157	 1.60707695	 0.137291
H	 0.2333639145	-2.3765354619	 3.8266023686	 0.10893
64.3438	138.9025	231.3221	245.3704	350.8015	541.2905	617.1023	625.8653	626.6283	689.2192	737.2391	745.6146	822.5273	839.0739	849.4605	949.6518	1071.0089	1077.1672	1129.4235	1158.227	1163.5615	1240.082	1287.2977	1301.621	1354.5917	1426.9839	1457.7829	1465.3533	1476.0976	1497.4372	1517.7367	1572.9016	1642.2527	3047.2725	3111.5725	3145.154	3248.1816	3273.5196	3305.1271
CN1C=NN2C=CN=C12	Cn1cnn2ccnc12	
InChI=1S/C5H6N4/c1-8-4-7-9-3-2-6-5(8)9/h2-4H,1H3	InChI=1S/C5H6N4/c1-8-4-7-9-3-2-6-5(8)9/h2-4H,1H3
