20
gdb 80414	2.58982	1.72292	1.2539	3.452	79.86	-0.227	0.0303	0.2573	1071.0649	0.171444	-403.168631	-403.159939	-403.158995	-403.201883	32.852	
C	-0.0247740203	 1.3566919072	-0.1592866614	-0.348549
N	-0.0372035124	-0.0448251414	 0.1824129042	-0.067061
C	-1.1919850091	-0.960171496	 0.0356739465	-0.010565
C	-0.7797898834	-2.0909341279	 1.0111665609	-0.255729
C	 0.3664845277	-2.2720277619	-0.0452275291	 0.174792
C	 1.2696100566	-3.4737336885	-0.1321201112	-0.492881
C	-0.7305406555	-1.8982263115	-1.1176466572	-0.265713
C	 1.0490763663	-0.8876011712	 0.0551816151	 0.402923
O	 2.2223055836	-0.5987180683	-0.0097794095	-0.408661
H	 1.0154452626	 1.6894372001	-0.1329073321	 0.1609
H	-0.4258190843	 1.5454717081	-1.1655705367	 0.116877
H	-0.6034844172	 1.9469239051	 0.5595339958	 0.123849
H	-2.1557436712	-0.4548610644	 0.0665708108	 0.080476
H	-0.5052035601	-1.7984680524	 2.0272290774	 0.105931
H	-1.4738066494	-2.9352383598	 1.0156387997	 0.101694
H	 0.6941511609	-4.3963693639	-0.2560267046	 0.109376
H	 1.9583578002	-3.3771897684	-0.9770603845	 0.133519
H	 1.8781760495	-3.5670596408	 0.7730465465	 0.130467
H	-1.4157985925	-2.7256292745	-1.3204964656	 0.102878
H	-0.4019973518	-1.4303115796	-2.0498543051	 0.105478
78.6985	143.181	153.7041	186.8911	227.7476	270.3133	318.3127	472.9701	480.0691	508.1681	557.1113	687.7299	724.355	751.2277	842.1052	848.4272	894.5853	923.935	952.9097	992.0422	1026.5221	1041.1744	1052.603	1099.275	1103.9739	1155.8021	1196.0412	1213.3604	1226.3906	1229.8957	1251.2073	1270.7076	1338.9278	1411.8774	1416.7334	1452.9508	1479.1318	1485.5034	1488.23	1488.909	1516.4984	1520.0613	1837.7318	2997.531	3037.2954	3052.3407	3061.6862	3063.4315	3106.2089	3109.946	3117.1082	3127.5501	3130.094	3134.0674
CN1C2CC(C)(C2)C1=O	CN1[C@@H]2C[C@@](C)(C2)C1=O	
InChI=1S/C7H11NO/c1-7-3-5(4-7)8(2)6(7)9/h5H,3-4H2,1-2H3	InChI=1S/C7H11NO/c1-7-3-5(4-7)8(2)6(7)9/h5H,3-4H2,1-2H3/t5-,7+
