17
gdb 49939	4.71956	0.76422	0.70715	3.758	74.83	-0.2525	-0.0335	0.219	1534.3055	0.134971	-417.99473	-417.985833	-417.984889	-418.02961	31.012	
O	-0.1878589285	-0.0484370223	-0.1372208517	-0.249972
C	-0.076690752	 1.1321763947	 0.0683422784	 0.170711
C	 1.2329291015	 1.878459305	 0.0623733442	-0.10901
C	 1.1799915879	 3.1893604568	-0.7778781356	-0.194112
N	 0.8910167614	 3.9360387687	 0.4596556251	-0.06957
C	 1.4652533398	 5.2561525652	 0.6102946103	-0.290259
C	 1.1097803554	 5.8472555921	 1.9052723147	 0.277982
N	 0.8476427965	 6.3024922807	 2.9336620865	-0.297138
C	 1.4006355404	 2.8256058738	 1.2881771516	-0.191253
H	-0.9630365597	 1.7722635115	 0.2824505915	 0.092571
H	 2.0496990099	 1.1896458836	-0.1473705291	 0.104394
H	 2.1639539758	 3.4180010461	-1.216962188	 0.103566
H	 0.4133982112	 3.2750915222	-1.5555338831	 0.12241
H	 2.56959844	 5.260888129	 0.524870085	 0.128933
H	 1.0800545222	 5.9046899824	-0.1855892926	 0.160879
H	 0.81326284	 2.6175947412	 2.1874773782	 0.132865
H	 2.4604012581	 2.9316357095	 1.5672551647	 0.107005
59.1924	68.0954	86.5159	148.1158	277.0621	282.9774	356.6569	359.8631	388.8485	433.9179	533.2119	740.3461	860.4992	876.9652	925.2496	932.2281	945.2945	989.4345	1010.9756	1083.8753	1113.1822	1139.3097	1150.6532	1195.6907	1220.5454	1231.9296	1271.4176	1296.9359	1310.6632	1339.6972	1390.6125	1424.5721	1472.0758	1501.8235	1527.0756	1834.0448	2369.008	2877.9377	2918.0177	2977.9625	2988.136	3058.7416	3063.4131	3079.7642	3133.0539
O=CC1CN(CC#N)C1	O=CC1CN(CC#N)C1	
InChI=1S/C6H8N2O/c7-1-2-8-3-6(4-8)5-9/h5-6H,2-4H2	InChI=1S/C6H8N2O/c7-1-2-8-3-6(4-8)5-9/h5-6H,2-4H2
