18
gdb 16341	3.15452	1.85565	1.4504	1.8903	67.35	-0.2459	0.0749	0.3208	930.3804	0.152812	-384.908599	-384.900511	-384.899567	-384.941117	30.329	
C	 0.1858140943	 1.5283329595	-0.0783506795	-0.382727
C	-0.0617788451	 0.0155382264	 0.0251081047	-0.315066
C	 0.4976984329	-0.5622634786	 1.286317445	 0.401379
O	 1.9322707684	-0.6965524272	 1.4011653868	-0.310023
C	 1.1094005195	-1.8555620251	 1.64175228	-0.049
C	 0.6485182487	-1.7677569039	 3.0960815437	-0.290161
C	 0.0304518397	-0.3571296959	 2.7474906057	 0.087442
O	 0.5332576065	 0.7753325557	 3.4011958941	-0.435125
H	 1.2587612872	 1.739626097	-0.1105098677	 0.130709
H	-0.269380996	 1.9370429665	-0.9849246963	 0.112684
H	-0.2325968201	 2.0554049646	 0.7842119528	 0.135046
H	-1.139174373	-0.1904888714	-0.0046434377	 0.104387
H	 0.3864000785	-0.5010126271	-0.8312233379	 0.110039
H	 1.3035643367	-2.7268937723	 1.0267727084	 0.105167
H	-0.1104720846	-2.5059252897	 3.3671962099	 0.107367
H	 1.4458394149	-1.7645051073	 3.8434361099	 0.108497
H	-1.0567047034	-0.3396752993	 2.8592652476	 0.091791
H	 1.4736954949	 0.806542738	 3.1809901005	 0.287593
76.7868	123.3586	179.2309	188.9749	309.1455	323.0294	402.2088	477.9356	510.8959	576.7209	700.2874	714.4401	777.6064	822.9382	885.3744	919.1497	922.5145	969.2637	991.0304	1040.8513	1062.6522	1103.4534	1117.4903	1146.3355	1191.9185	1199.344	1250.215	1263.0763	1306.9733	1317.1979	1350.1103	1409.992	1429.6814	1455.9341	1471.9986	1482.9674	1495.5217	1511.0359	3028.0456	3042.9083	3063.5853	3068.3946	3085.5363	3116.0171	3118.1947	3123.4991	3186.5822	3766.3751
CCC12OC1CC2O	CC[C@]12O[C@H]1C[C@H]2O	
InChI=1S/C6H10O2/c1-2-6-4(7)3-5(6)8-6/h4-5,7H,2-3H2,1H3	InChI=1S/C6H10O2/c1-2-6-4(7)3-5(6)8-6/h4-5,7H,2-3H2,1H3/t4-,5+,6-/m1/s1
