21
gdb 68862	2.40174	1.80221	1.36768	3.0331	81.71	-0.2208	0.0731	0.2939	1046.0869	0.18347	-383.236528	-383.228163	-383.227219	-383.268728	33.542	
C	 0.0041820801	 1.5337677826	-0.0464221173	-0.497024
C	 0.133375074	 0.0342227827	 0.0047350743	 0.26869
C	 0.3615869039	-0.7371886948	-1.2965140364	-0.207045
N	 1.107813746	-1.9735279526	-0.9633925144	-0.092566
C	 2.4684300856	-1.7185658448	-0.4695188075	-0.255083
C	 1.3629671736	-1.9697357821	 0.4892224613	-0.061779
C	 0.7517646238	-0.745541549	 1.1153067161	 0.27419
C	 1.365212807	-0.1742560465	 2.3670589915	-0.493161
N	-0.7212410063	-0.7582475305	 0.9307711428	-0.410234
H	 0.8665300608	 1.9898043812	-0.5452325478	 0.123012
H	-0.8920996059	 1.8261288654	-0.6062004976	 0.129885
H	-0.0763755785	 1.9711101394	 0.9538311322	 0.115207
H	-0.5940210739	-1.0215438816	-1.7489633875	 0.112553
H	 0.9230314619	-0.1425932131	-2.0268076984	 0.095943
H	 3.1898151293	-2.498837641	-0.6938780028	 0.115201
H	 2.8609060377	-0.7042227698	-0.5338973797	 0.101728
H	 1.2667073132	-2.9231470044	 1.0026996333	 0.09328
H	 2.4379762054	 0.0016810841	 2.234749459	 0.126108
H	 0.8974028541	 0.773260955	 2.6518446824	 0.115022
H	 1.2451245748	-0.8680929319	 3.2070958189	 0.129048
H	-1.1353306866	-0.1220770982	 1.6120163776	 0.217026
159.9123	187.4494	200.2286	214.0596	242.1622	337.5574	379.5075	424.5665	465.6726	493.5864	556.0962	638.8004	691.4983	746.531	785.6296	858.8443	878.0468	905.4142	947.0378	984.8733	1010.1617	1023.338	1048.9941	1071.0233	1079.5122	1108.8688	1115.9527	1141.6775	1155.9068	1168.3262	1245.443	1263.6608	1284.7975	1308.5807	1360.2871	1392.7622	1416.4092	1422.0431	1433.8017	1478.8844	1488.6529	1492.9472	1494.399	1504.8168	1511.67	3023.7608	3028.8601	3033.1987	3077.3388	3084.8567	3089.4996	3090.8621	3097.5954	3105.1259	3138.4683	3182.8031	3461.2557
CC12CN3CC3C1(C)N2	C[C@@]12CN3C[C@H]3[C@]1(C)N2	
InChI=1S/C7H12N2/c1-6-4-9-3-5(9)7(6,2)8-6/h5,8H,3-4H2,1-2H3	InChI=1S/C7H12N2/c1-6-4-9-3-5(9)7(6,2)8-6/h5,8H,3-4H2,1-2H3/t5-,6+,7-,9?/m0/s1
