21
gdb 103661	2.58246	1.17841	0.9627	0.9946	84.76	-0.2508	0.0508	0.3016	1304.6401	0.180218	-387.04566	-387.03568	-387.034736	-387.080294	37.705	
C	-0.5360597524	 1.6091620009	 0.0051410133	-0.461703
C	 0.1145575686	 0.231011192	 0.0617552946	 0.361708
C	-0.916800203	-0.8748295927	-0.1512130218	-0.1288
O	-1.4865891666	-0.7113021496	-1.4430586093	-0.427513
C	 1.3695829238	 0.0248559479	-0.8413738768	-0.26647
C	 2.1609065723	-0.5529795212	 0.3827020284	-0.166666
C	 0.9955874623	-0.0665502474	 1.3129850922	-0.293743
C	 2.3824746041	-1.9862300641	 0.3635101599	 0.348095
C	 2.5573099012	-3.1769288312	 0.3473454672	-0.496013
H	 0.2096436931	 2.401318205	 0.130742775	 0.102984
H	-1.0412126229	 1.758470832	-0.9530641629	 0.136515
H	-1.2827846204	 1.722912334	 0.8004220518	 0.107682
H	-0.4293858781	-1.8563208155	-0.0562834908	 0.099823
H	-1.6868709529	-0.8066503693	 0.6362173475	 0.080276
H	-2.0739941792	-1.4534998475	-1.6101736175	 0.288485
H	 1.2398961035	-0.6435016846	-1.693293113	 0.118769
H	 1.7987091824	 0.9666464137	-1.1919194427	 0.096552
H	 3.1115965679	-0.0459218443	 0.5712364291	 0.100677
H	 1.2639856184	 0.8390938939	 1.8626468691	 0.099611
H	 0.6106669253	-0.8052974474	 2.020396252	 0.106139
H	 2.7216644325	-4.2256218147	 0.3327220046	 0.193591
57.581	128.1543	139.5197	208.8122	230.5875	237.9837	242.5668	318.3356	354.6793	366.7126	445.7543	515.144	533.4617	612.0001	615.677	670.5528	777.5031	824.022	828.4367	909.7711	931.1211	963.6341	978.3709	996.171	1036.9719	1072.0313	1098.5584	1149.8424	1155.8925	1195.3277	1206.3208	1250.7983	1255.0088	1270.8834	1307.1286	1329.2128	1355.0017	1403.7207	1456.3927	1473.47	1489.1238	1491.7625	1502.3567	1519.7679	2227.8918	2955.949	3011.3655	3024.7143	3054.5075	3059.8894	3071.6476	3087.3067	3114.484	3117.1563	3134.1242	3504.4879	3836.7624
CC1(CO)CC(C1)C#C	C[C@@]1(CO)C[C@@H](C1)C#C	
InChI=1S/C8H12O/c1-3-7-4-8(2,5-7)6-9/h1,7,9H,4-6H2,2H3	InChI=1S/C8H12O/c1-3-7-4-8(2,5-7)6-9/h1,7,9H,4-6H2,2H3/t7-,8+
