15
gdb 132438	3.18349	1.36332	0.96013	2.7515	74.91	-0.2099	-0.043	0.1669	1138.0228	0.11279	-458.127722	-458.11992	-458.118976	-458.160031	29.659	
C	-0.0325980369	 1.4979614294	 0.0107530011	-0.453116
C	-0.0089380529	 0.0005805862	-0.0196224687	 0.305461
N	-0.0363883023	-0.6237928336	-1.1545897386	-0.292651
C	-0.0153366178	-2.0009422471	-1.204484117	-0.223263
C	 0.0344699518	-2.70932829	-0.0596040493	 0.352604
F	 0.058667583	-4.0317843537	 0.0122277236	-0.055298
N	 0.0645741329	-2.0884668007	 1.152239737	-0.427232
C	 0.0459289724	-0.6916972383	 1.2867605274	 0.325783
N	 0.0720724471	-0.0466165397	 2.3934557103	-0.540316
H	 0.8521664154	 1.8854773937	 0.5268269194	 0.14327
H	-0.071895505	 1.8843868645	-1.008028626	 0.130081
H	-0.8946146727	 1.8566985736	 0.5831062302	 0.143233
H	-0.0395027792	-2.485243452	-2.1704756221	 0.126829
H	 0.1016275972	-2.6646249909	 1.981117329	 0.263824
H	 0.109274547	-0.6662811214	 3.2041159937	 0.200791
112.7645	154.2825	174.6921	305.2639	340.1773	362.8102	437.2063	477.2697	520.6527	542.0178	569.0474	648.9925	718.6159	757.7375	761.6316	806.3158	825.1628	980.5538	1047.1794	1053.9743	1098.6697	1204.9217	1216.0153	1261.0194	1336.1455	1368.4901	1406.8434	1465.1508	1465.351	1506.5696	1609.0583	1678.0811	1705.4729	3043.0088	3095.2538	3153.4759	3226.7263	3459.6527	3612.7524
CC1=NC=C(F)NC1=N	Cc1ncc(F)[nH]c1[NH]	
InChI=1S/C5H6FN3/c1-3-5(7)9-4(6)2-8-3/h2H,1H3,(H2,7,9)	InChI=1S/C5H11FN3/c1-3-5(7)9-4(6)2-8-3/h3-5,7-9H,2H2,1H3
