20
gdb 66315	4.69063	0.64369	0.61929	3.5502	77.26	-0.2485	-0.027	0.2216	1815.6389	0.167654	-440.253625	-440.243356	-440.242412	-440.29052	35.562	
C	-0.0161799456	 1.5445418286	-0.1928606937	-0.464237
C	-0.0214602843	 0.0410793574	-0.0109508185	 0.313665
C	-1.3310413101	-0.5502183338	 0.4558306144	-0.091367
O	-1.7357797802	 0.10911034	 1.6422267606	-0.254326
C	-2.9440897184	-0.3700983964	 2.1673080684	-0.138116
C	-3.25561157	 0.410828899	 3.4322837909	 0.1402
O	-4.2542462546	 0.2563740173	 4.0829232063	-0.238031
C	 0.8558634462	-0.7977193272	-0.8672822407	-0.285396
N	 1.1659276121	-0.6177714005	 0.5629382549	-0.336988
H	 0.9557905685	 1.8896258973	-0.5594305054	 0.109968
H	-0.77782088	 1.8576188116	-0.9160238126	 0.121394
H	-0.2318034247	 2.0462637448	 0.7543993147	 0.1402
H	-2.1021420238	-0.4263306355	-0.3243720269	 0.087306
H	-1.2023191343	-1.6268642994	 0.6402450326	 0.100112
H	-3.7835628635	-0.2517491288	 1.4606664908	 0.119692
H	-2.888751578	-1.4428979689	 2.4211075405	 0.124278
H	-2.4659995845	 1.1450230517	 3.7060953764	 0.095908
H	 0.5587604854	-1.8056762991	-1.1463905107	 0.115527
H	 1.4671772414	-0.2894712808	-1.6087746162	 0.111533
H	 1.9179921885	 0.0583697528	 0.6727209643	 0.22868
40.9834	55.1799	92.8511	97.5572	134.1851	214.0427	243.2354	294.1168	366.2249	372.626	436.9177	463.194	579.8953	740.6239	747.0866	844.6644	909.9899	932.6689	957.3278	999.6924	1018.3042	1027.5649	1084.1456	1090.8633	1116.2175	1120.9738	1159.6334	1171.8394	1235.6898	1265.621	1266.4846	1338.2093	1352.8845	1374.0931	1403.7277	1414.7835	1443.1683	1478.1864	1481.8264	1504.2204	1512.3585	1518.4859	1845.5881	2898.2715	2952.8472	2961.2867	2985.0184	3015.7013	3032.6112	3096.3836	3102.4975	3117.409	3184.8834	3496.7967
CC1(COCC=O)CN1	C[C@@]1(COCC=O)CN1	
InChI=1S/C6H11NO2/c1-6(4-7-6)5-9-3-2-8/h2,7H,3-5H2,1H3	InChI=1S/C6H11NO2/c1-6(4-7-6)5-9-3-2-8/h2,7H,3-5H2,1H3/t6-/m0/s1
