21
gdb 120110	2.77139	1.00229	0.87049	3.2129	83.36	-0.2376	-0.0083	0.2293	1442.0695	0.181831	-387.088612	-387.07946	-387.078516	-387.12348	34.184	
C	-0.0519713281	 1.5042856943	-0.1266311714	-0.383146
C	-0.173042159	-0.0151758828	-0.2645988976	-0.15722
C	-1.4948533279	-0.5628691158	 0.2906944914	-0.212455
C	-1.5981106083	-2.071749433	 0.1639836818	-0.003088
C	-2.8478837994	-2.8799009409	 0.1279427866	-0.091854
C	-3.9791545903	-2.1479283588	-0.6102993638	-0.36378
C	-3.0531401334	-2.1272553642	-1.8571265967	 0.412541
O	-3.2430988124	-1.8440655148	-3.0065060849	-0.317561
C	-1.9330240114	-2.8124603604	-1.1334331298	-0.192909
H	 0.8998859945	 1.8659756812	-0.5273263783	 0.114108
H	-0.8558765997	 2.0155953678	-0.667746209	 0.118735
H	-0.1110631183	 1.8145413367	 0.9227639132	 0.112858
H	-0.08545785	-0.2999146244	-1.3202797777	 0.11061
H	 0.6653834593	-0.500124134	 0.2530024704	 0.092904
H	-1.5853799077	-0.2920202888	 1.3517101429	 0.097551
H	-2.3287062728	-0.0703472852	-0.2211728224	 0.107181
H	-0.7896897779	-2.5881728501	 0.681438023	 0.096862
H	-2.9954118203	-3.7480940216	 0.7572961901	 0.101381
H	-4.8428214487	-2.7873268119	-0.8167447515	 0.131058
H	-4.3319723464	-1.1975077259	-0.2021476918	 0.120676
H	-1.2530355119	-3.5416787775	-1.5568841344	 0.10555
44.992	76.533	120.1118	149.849	246.8005	267.4907	326.6831	426.6878	449.2174	499.7944	598.118	640.6694	740.5596	755.2726	797.6343	839.7479	881.9799	905.1927	917.2399	952.8089	965.4781	1002.7771	1023.028	1052.8169	1066.4033	1088.9231	1121.5646	1130.6453	1148.7638	1207.332	1216.1155	1267.3831	1291.7652	1303.4778	1323.9699	1333.8343	1385.0677	1415.005	1444.3948	1464.4169	1481.7295	1493.1166	1501.1987	1510.227	1877.7857	3012.9111	3019.1194	3030.0968	3048.9281	3061.0916	3069.9606	3096.7982	3103.8452	3112.367	3114.4895	3189.7441	3200.5356
CCCC1C2CC(=O)C12	CCC[C@H]1[C@H]2CC(=O)[C@@H]12	
InChI=1S/C8H12O/c1-2-3-5-6-4-7(9)8(5)6/h5-6,8H,2-4H2,1H3	InChI=1S/C8H12O/c1-2-3-5-6-4-7(9)8(5)6/h5-6,8H,2-4H2,1H3/t5-,6+,8-/m0/s1
