20
gdb 8281	5.26586	0.9446	0.87473	2.8304	76.52	-0.246	-0.0187	0.2273	1353.7639	0.175676	-349.011502	-349.002658	-349.001714	-349.045885	31.875	
C	 0.1574630143	 1.6476036409	 0.1851226703	-0.407372
C	 0.1039354077	 0.1312021185	 0.0911761288	 0.060085
C	 1.0241772789	-0.5961351041	-0.9309420874	-0.254965
C	 1.2497545142	-1.714374201	 0.1231841715	 0.033724
C	 2.6428814843	-2.3349647938	 0.2492021789	-0.298975
C	 2.7011676396	-3.3625076608	 1.3558538952	 0.165449
O	 3.4436492581	-3.323261172	 2.3029489403	-0.240267
C	 0.760455772	-0.7208178263	 1.2144323068	-0.240478
H	 1.1861569701	 1.9959270038	 0.3326685404	 0.111582
H	-0.2257469377	 2.1173054779	-0.7278371239	 0.114373
H	-0.4422217114	 2.0160899591	 1.0250061786	 0.115873
H	-0.9321683017	-0.1950831348	-0.0559586332	 0.072137
H	 0.6027060115	-0.8815336134	-1.8983966536	 0.096025
H	 1.9443535273	-0.0268598031	-1.1057252061	 0.097726
H	 0.5068938855	-2.509078938	-0.0161901129	 0.07495
H	 2.893196144	-2.8465342992	-0.6923884483	 0.115496
H	 3.4043541379	-1.5715940207	 0.437241392	 0.114796
H	 1.9671505765	-4.196235454	 1.2405138885	 0.067159
H	 1.6038259307	-0.1908080306	 1.6715804796	 0.103798
H	 0.120662758	-1.1056487183	 2.0126482743	 0.098884
45.6066	74.7125	97.8408	188.5115	228.1916	293.3811	369.9954	377.6414	418.8913	504.8992	592.5268	754.7623	809.4804	831.8862	894.0908	916.165	935.817	955.1794	988.3764	1015.8918	1062.2767	1099.1621	1136.0698	1144.1462	1169.3523	1213.3595	1235.0226	1253.9585	1266.8805	1272.9207	1291.4068	1312.5498	1368.0022	1392.8173	1411.9266	1429.6931	1460.8898	1477.785	1493.5357	1495.977	1505.3985	1834.3735	2842.218	3005.32	3022.3391	3030.5123	3033.4995	3038.9957	3046.7501	3088.1449	3090.2878	3090.5485	3097.861	3104.9494
CC1CC(CC=O)C1	C[C@H]1C[C@@H](CC=O)C1	
InChI=1S/C7H12O/c1-6-4-7(5-6)2-3-8/h3,6-7H,2,4-5H2,1H3	InChI=1S/C7H12O/c1-6-4-7(5-6)2-3-8/h3,6-7H,2,4-5H2,1H3/t6-,7+
