17
gdb 32272	2.58173	1.48382	0.9556	0.8317	78.98	-0.2143	-0.0109	0.2034	1181.1169	0.138655	-418.067858	-418.059787	-418.058843	-418.100457	31.083	
N	-0.0187434391	 1.3810855105	 0.1248037382	-0.569651
C	 0.0330612892	-0.004551207	 0.0327902195	 0.301644
N	-1.1364430693	-0.6407682283	 0.1362962712	-0.334974
C	-1.1298784154	-1.9762756709	 0.0975071906	-0.006093
C	 0.0195164985	-2.7357643069	-0.0637591334	-0.143121
C	 1.2357618572	-2.0598074009	-0.1649442982	-0.152631
C	 1.2693849847	-0.6750867763	-0.1037961442	 0.163441
C	 2.5687645784	 0.0990193849	-0.1631395045	-0.177648
O	 3.7233783617	-0.7023384011	 0.0094800899	-0.407386
H	 0.6402020085	 1.8983405757	-0.4371035353	 0.251657
H	-0.9640156579	 1.7301693492	 0.0461384057	 0.252917
H	-2.1014837541	-2.4555324373	 0.1935910346	 0.103069
H	-0.0309540621	-3.8172194264	-0.1056165016	 0.093007
H	 2.1690214006	-2.5991644645	-0.2861242551	 0.109582
H	 2.6922299707	 0.5704732458	-1.1484294587	 0.121306
H	 2.5352637877	 0.9189897539	 0.57269258	 0.1087
H	 3.6980318106	-1.0583760203	 0.9041189813	 0.286183
84.6735	162.6168	206.4959	261.2666	337.4482	347.2875	380.3232	454.3267	496.5627	553.9932	563.1545	609.4445	646.0791	782.7977	799.8682	810.1942	889.2381	967.885	978.2814	1009.0459	1043.2029	1072.6079	1102.1824	1156.7927	1202.664	1214.2158	1292.3431	1327.0142	1340.4783	1395.814	1416.6413	1478.5521	1493.2901	1506.5749	1618.2227	1627.863	1651.1663	2970.8519	3019.6672	3152.1405	3188.6487	3206.2432	3562.8154	3671.7154	3809.6901
NC1=NC=CC=C1CO	Nc1ncccc1CO	
InChI=1S/C6H8N2O/c7-6-5(4-9)2-1-3-8-6/h1-3,9H,4H2,(H2,7,8)	InChI=1S/C6H8N2O/c7-6-5(4-9)2-1-3-8-6/h1-3,9H,4H2,(H2,7,8)
