17
gdb 105338	2.35214	1.53206	1.16156	4.219	72.4	-0.2509	0.0335	0.2844	1087.1063	0.136035	-417.962557	-417.954012	-417.953068	-417.995801	31.664	
O	-0.0162369257	 1.3617151652	-0.1929403553	-0.418703
C	 0.0231619298	-0.0178658777	 0.1284795858	-0.137327
C	-1.4107603443	-0.5383864951	 0.0486462876	 0.164255
C	-2.108010247	-0.4824438257	-1.3756008279	-0.26501
C	-2.2481439781	-2.0058277332	-1.3263446533	-0.027521
N	-0.872465496	-2.5442176071	-1.2048755461	-0.339773
C	-1.5886984097	-2.0797446289	 0.0026383773	-0.114461
C	-2.2512613041	 0.0571197831	 1.0824193875	 0.252812
N	-2.9260410757	 0.4946885935	 1.912856189	-0.347078
H	 0.8772697193	 1.7124350496	-0.1370235338	 0.29485
H	 0.6251925067	-0.5922160092	-0.5857617615	 0.12112
H	 0.4199411653	-0.1894251604	 1.1407417169	 0.09846
H	-3.058083831	 0.050259504	-1.3446832976	 0.135199
H	-1.4799354056	-0.0857458607	-2.1745437438	 0.127371
H	-3.0480285867	-2.6099617378	-1.7340339757	 0.105908
H	-0.9366691722	-3.5616987654	-1.2119585809	 0.237537
H	-1.7631165152	-2.7281328544	 0.8515351318	 0.112362
94.5015	135.5245	165.8004	179.08	208.1565	260.6501	385.9331	398.7655	501.698	533.1501	573.4405	651.4722	765.7118	823.4211	842.4576	905.4349	925.6154	945.5288	971.3186	1016.3211	1028.1208	1082.2953	1089.0945	1117.5904	1139.8406	1160.9533	1211.5785	1237.0933	1255.3284	1289.2687	1300.2559	1326.4765	1378.4635	1450.6161	1474.2012	1524.0285	2354.4175	2986.9936	3054.8404	3090.197	3154.9878	3196.5335	3209.4465	3479.9795	3835.8377
OCC1(CC2NC12)C#N	OC[C@]1(C[C@H]2N[C@@H]12)C#N	
InChI=1S/C6H8N2O/c7-2-6(3-9)1-4-5(6)8-4/h4-5,8-9H,1,3H2	InChI=1S/C6H8N2O/c7-2-6(3-9)1-4-5(6)8-4/h4-5,8-9H,1,3H2/t4-,5-,6+/m1/s1
