16
gdb 34922	2.92018	1.64067	1.30768	6.1992	71.89	-0.2429	0.0436	0.2865	972.8652	0.127209	-396.88426	-396.87733	-396.876386	-396.9157	27.399	
N	-0.2289485344	-1.165437194	-0.396904537	-0.334758
C	-0.1097555638	-0.0373661932	-0.1773167094	 0.304446
C	 0.0158982617	 1.3995225472	 0.0599022582	-0.164083
C	-0.6115094306	 1.8770648627	 1.3854723753	-0.064189
N	-0.0088155184	 1.3161199247	 2.5963005651	-0.291476
C	 0.4059496433	 2.6557489558	 2.1438013107	-0.04526
C	 1.6911701326	 2.6762016334	 1.339114259	-0.045261
N	 2.3098430608	 1.3530200906	 1.1446159661	-0.291481
C	 1.4710665618	 1.91019055	 0.0815768909	-0.06417
H	-0.5037092673	 1.9156015258	-0.7569025274	 0.124566
H	-1.6665704896	 2.1305368438	 1.3798564281	 0.102992
H	-0.6656567142	 1.3990270721	 3.3684368886	 0.238494
H	 0.1393648203	 3.5295902472	 2.7279107548	 0.094346
H	 2.3129036331	 3.5641884064	 1.3670132695	 0.094346
H	 3.2891367078	 1.4619852585	 0.8923783196	 0.238494
H	 1.9207815468	 2.1875994188	-0.866175022	 0.102993
111.9375	134.7044	295.3705	312.901	397.8031	503.7696	547.3413	580.2343	693.2095	736.715	766.595	842.5048	849.0402	870.0459	871.1007	892.4894	922.3581	987.876	992.2519	1031.4106	1058.5244	1075.4824	1130.8224	1138.9437	1172.982	1186.3462	1224.0777	1240.0876	1290.5706	1320.2703	1328.5482	1391.3911	1425.5012	1427.9869	2361.7681	3041.8183	3159.8486	3162.442	3170.1125	3182.4274	3503.7853	3504.9424
N#CC1C2NC2C2NC12	N#C[C@H]1[C@H]2N[C@H]2[C@H]2N[C@@H]12	
InChI=1S/C6H7N3/c7-1-2-3-5(8-3)6-4(2)9-6/h2-6,8-9H	InChI=1S/C6H7N3/c7-1-2-3-5(8-3)6-4(2)9-6/h2-6,8-9H/t2-,3+,4-,5+,6-
