16
gdb 34834	3.60511	1.19004	0.99711	1.7175	83.71	-0.2375	0.0101	0.2477	1176.4264	0.122948	-363.45411	-363.446197	-363.445253	-363.486355	31.07	
C	-0.0092711551	-1.3220266922	-0.0522257962	-0.408362
C	-0.0009727858	-0.1209373912	 0.007835786	 0.321899
C	-0.0408781131	 1.3230796977	 0.0556898057	-0.174569
C	 0.0087091316	 2.0837047724	 1.4113262039	-0.075411
C	 1.4870841555	 1.6568777317	 1.4564046465	-0.186814
N	 1.3273373718	 2.0774583655	-0.0208140102	-0.155701
C	 0.5327312157	 3.2822413042	 0.5739519485	-0.173115
C	-0.3347483039	 4.0225216403	-0.3163507831	 0.340871
C	-1.0496245177	 4.6760851186	-1.029161	-0.431197
H	-0.0089443233	-2.382750646	-0.1067061365	 0.19805
H	-0.7480779461	 1.7128269764	-0.6799407571	 0.11951
H	-0.7439548819	 2.0934542186	 2.2057829514	 0.082532
H	 2.1876541353	 2.2865442713	 2.0101893709	 0.104991
H	 1.7098971302	 0.5974960004	 1.5781992822	 0.128139
H	 1.2050967477	 3.9612625772	 1.105374572	 0.107749
H	-1.6787334509	 5.2473694948	-1.666531644	 0.201429
116.2731	143.7711	186.9339	201.5607	385.2331	461.6011	476.7148	500.5084	534.2198	607.8432	631.3816	635.3968	654.8502	657.8375	754.5854	812.5981	832.2908	871.3113	913.8697	924.5222	1036.9413	1056.3858	1083.9892	1119.5937	1129.8023	1144.1163	1163.9453	1222.4456	1233.9499	1254.2392	1385.7119	1389.5481	1530.466	2231.2084	2233.3868	3056.1908	3069.5143	3077.0948	3089.2312	3153.4748	3501.3699	3501.817
C#CC1C2CN1C2C#C	C#C[C@H]1[C@H]2CN1[C@H]2C#C	
InChI=1S/C8H7N/c1-3-7-6-5-9(7)8(6)4-2/h1-2,6-8H,5H2	InChI=1S/C8H7N/c1-3-7-6-5-9(7)8(6)4-2/h1-2,6-8H,5H2/t7-,8-/m0/s1
