14
gdb 51297	4.97349	1.00139	0.87735	4.0154	64.12	-0.2643	-0.0404	0.2239	1241.5132	0.100583	-473.82635	-473.818858	-473.817913	-473.859477	26.695	
O	 0.0897186199	-0.0216980674	 0.0782736761	-0.245244
C	-0.0010411873	 1.1609141151	 0.0097875437	 0.168099
O	 1.1270965548	 1.954416509	 0.1011987153	-0.240064
C	 0.9786007543	 3.3055699376	 0.0928609806	 0.478685
N	-0.1164494076	 3.9352236138	 0.225040624	-0.313269
C	 0.1673515625	 5.3759006641	 0.087826549	-0.188772
C	 1.6800962586	 5.5112587984	-0.0506827968	 0.034026
O	 2.3845286625	 4.9940896823	 1.0800314045	-0.236272
C	 2.2126140594	 4.1391964931	-0.0627371164	-0.109652
H	-0.9147827448	 1.7512922028	-0.1329528794	 0.14581
H	-0.3546369305	 5.7646620141	-0.7939681813	 0.125792
H	-0.2143445743	 5.9118650299	 0.9628791044	 0.13966
H	 2.1493609444	 6.3428384107	-0.5674880083	 0.116072
H	 3.1103187781	 3.7877137066	-0.5586288355	 0.125129
45.2075	102.5012	175.8714	268.1183	302.0766	391.133	413.2082	514.8525	713.5229	742.6446	799.2505	845.1999	861.4757	923.3886	935.1985	980.167	1034.7902	1043.7393	1050.462	1088.3361	1101.9791	1213.6284	1224.2055	1271.3393	1323.0167	1352.867	1392.8354	1412.0672	1471.1355	1703.9777	1881.4387	3046.647	3080.5417	3088.3009	3165.7414	3189.9464
O=COC1=NCC2OC12	O=COC1=NC[C@H]2O[C@@H]12	
InChI=1S/C5H5NO3/c7-2-8-5-4-3(9-4)1-6-5/h2-4H,1H2	InChI=1S/C5H5NO3/c7-2-8-5-4-3(9-4)1-6-5/h2-4H,1H2/t3-,4-/m1/s1
