19
gdb 37951	3.03353	1.80713	1.41428	1.5139	80.24	-0.2316	-0.0086	0.223	955.4803	0.161901	-385.823885	-385.816966	-385.816022	-385.85481	28.831	
C	-0.0638637349	 1.4195901912	 0.1595722892	-0.303345
C	 1.4619072221	 1.5393526572	-0.1093508615	-0.084601
C	 2.3073749241	 0.3278082399	 0.3202744566	-0.030322
C	 2.02803682	-0.6308044643	 1.4845321556	-0.088352
O	 1.7976248231	-1.986470814	 1.0987834567	-0.279716
C	 0.6955474667	-2.2848230623	 0.2043931697	-0.08357
C	-0.3246114906	-1.1777241257	 0.2069055041	-0.208691
C	 0.0669259015	-0.0179142448	-0.3135369023	 0.242102
C	 1.4452569778	 0.2423608151	-0.9008526399	-0.151795
H	-0.4497516811	 1.5813674567	 1.171894264	 0.10208
H	-0.5997672793	 2.0729094795	-0.5380912497	 0.114147
H	 1.9553859198	 2.4689700753	-0.3681831601	 0.090322
H	 3.362317831	 0.4866970502	 0.1078327183	 0.088928
H	 2.9094027125	-0.6913627748	 2.1298393542	 0.103992
H	 1.2063792644	-0.2539537453	 2.1048685993	 0.097106
H	 1.0971834778	-2.4426069844	-0.8048065488	 0.102977
H	 0.2863901674	-3.2378998492	 0.5529090166	 0.102283
H	-1.1828036379	-1.2391758293	 0.871075421	 0.092412
H	 1.7969269855	 0.0188727791	-1.8999321527	 0.094044
143.2574	249.7356	262.2369	333.9716	418.5285	442.6617	464.84	614.0784	684.2884	709.5844	756.752	782.8792	818.2091	868.2793	881.9673	905.9818	957.335	963.7476	971.72	1007.3966	1034.9545	1056.3208	1065.9478	1069.2551	1078.7707	1131.1565	1139.7412	1180.7441	1236.0244	1244.7629	1262.774	1295.527	1315.7849	1335.2334	1383.7747	1393.9478	1410.2141	1480.5678	1501.7144	1510.0053	1732.1253	3014.7158	3027.3007	3030.9071	3074.6306	3078.36	3080.5054	3133.9681	3159.9454	3176.5985	3192.5881
C1C2C3COCC=C1C23	C1[C@H]2[C@H]3COC[CH][C]1[C@@H]23	
InChI=1S/C8H10O/c1-2-9-4-7-6-3-5(1)8(6)7/h1,6-8H,2-4H2	InChI=1S/C8H10O/c1-2-9-4-7-6-3-5(1)8(6)7/h1,6-8H,2-4H2/t6-,7+,8-/m0/s1
