21
gdb 104748	2.53168	1.16172	0.91634	1.0944	85.37	-0.2414	0.0454	0.2869	1336.7888	0.179862	-387.043902	-387.033483	-387.032539	-387.079314	38.58	
C	-1.7787226999	-0.7068184615	-0.6484422515	-0.388451
C	-0.3770443054	-0.3301796279	-0.1510127739	-0.272698
C	 0.741886396	-0.6109053708	-1.143369383	 0.336317
C	 0.6665643606	 0.1342425389	-2.4670381725	-0.140412
O	 0.7697527185	 1.5437622659	-2.3208035505	-0.418797
C	 2.1144707095	-0.8892333647	-0.6043718022	-0.331355
C	 1.3161477648	-2.0269534966	-1.2304714207	-0.252962
C	 0.8068020436	-3.0960768751	-0.4231434488	 0.327962
C	 0.3811340398	-4.0050459149	 0.2414888221	-0.456379
H	-2.0681676906	-0.141447643	-1.5408346666	 0.107622
H	-1.8296157376	-1.7714941016	-0.8941924245	 0.135357
H	-2.5278378796	-0.5029201272	 0.1226885429	 0.114529
H	-0.3451454218	 0.7352564026	 0.1148582375	 0.091267
H	-0.1704424169	-0.8758975967	 0.7747787988	 0.113131
H	 1.5110811398	-0.1586101231	-3.099860583	 0.105504
H	-0.2510501461	-0.1406055206	-3.0081522098	 0.097264
H	-0.0455217014	 1.8626359723	-1.9224099969	 0.287154
H	 2.9741275877	-0.522905983	-1.1550891671	 0.120995
H	 2.2444914536	-0.9187001371	 0.4715826618	 0.122059
H	 1.6404299309	-2.336153998	-2.2211589251	 0.108327
H	 0.0090290245	-4.8063634379	 0.8300135032	 0.193565
57.2883	87.7898	114.973	155.3615	215.8842	245.2842	260.8526	285.9308	329.0327	357.3781	404.9815	453.6382	532.1543	577.8151	629.146	648.2101	705.5038	777.2262	812.1537	884.7035	916.997	935.8234	985.8216	1014.3994	1038.4105	1070.0356	1075.5999	1091.7375	1117.5753	1133.1953	1193.4036	1252.6307	1307.6145	1327.4501	1376.5483	1384.7422	1404.8192	1412.2258	1429.4018	1483.0059	1486.5372	1494.6762	1506.6436	1508.5366	2231.3244	2993.9511	3016.475	3036.4578	3069.2196	3074.5472	3101.7599	3116.0474	3132.957	3135.4746	3224.1698	3504.4897	3830.1466
CCC1(CO)CC1C#C	CC[C@@]1(CO)C[C@H]1C#C	
InChI=1S/C8H12O/c1-3-7-5-8(7,4-2)6-9/h1,7,9H,4-6H2,2H3	InChI=1S/C8H12O/c1-3-7-5-8(7,4-2)6-9/h1,7,9H,4-6H2,2H3/t7-,8+/m1/s1
