19
gdb 126978	2.57683	1.32712	1.00714	2.788	77.96	-0.2202	0.0313	0.2515	1236.9232	0.159417	-419.225187	-419.215789	-419.214844	-419.260371	33.535	
C	-0.819239753	 0.877970362	 0.7762219699	-0.383098
C	 0.0384388731	 0.0506406381	-0.1691661789	-0.070681
O	-0.7443124781	-0.8139737779	-1.0174042893	-0.27923
C	-1.2660415815	-1.9136649609	-0.4294258488	 0.347792
C	-2.5635522991	-2.2158641595	-0.0616801864	 0.098258
C	-3.7674401184	-1.3339059284	-0.1763371561	-0.514377
C	-2.4635898988	-3.543932622	 0.4214498422	-0.071653
N	-1.226455175	-4.0264789987	 0.3631834895	-0.23607
N	-0.5054649	-3.0116771762	-0.1592541086	-0.259426
H	-0.1821649144	 1.5330704565	 1.3793706912	 0.120633
H	-1.5229168018	 1.4999502686	 0.2159442225	 0.130908
H	-1.3858929321	 0.2342790101	 1.4548172355	 0.137999
H	 0.5889330963	 0.6910821066	-0.8632135472	 0.117407
H	 0.7673879584	-0.549261242	 0.3910550642	 0.101776
H	-4.5806532927	-1.831199925	-0.7160754325	 0.128982
H	-4.1623003397	-1.0425974938	 0.804017864	 0.125045
H	-3.5185794565	-0.4187964857	-0.7204015664	 0.128945
H	-3.2574625267	-4.1663576074	 0.8109441751	 0.10578
H	 0.4692393799	-3.1450676144	-0.3690098899	 0.271009
41.7763	68.8373	108.5199	160.4881	231.3644	244.0606	267.0849	336.4165	445.682	469.5097	496.0455	628.8503	690.0937	697.4766	747.8636	816.0062	880.8653	891.5955	945.7235	999.1589	1042.539	1067.7444	1107.0344	1128.4201	1188.3733	1213.929	1245.2414	1275.3966	1325.8053	1378.2987	1392.9058	1411.0781	1417.2896	1448.6952	1483.8978	1488.2515	1489.8314	1496.6582	1506.7225	1526.071	1647.547	3023.7562	3027.7599	3042.8759	3077.4627	3094.8731	3113.1433	3115.2958	3128.4992	3231.019	3672.0486
CCOC1=C(C)C=NN1	CCOc1c(C)cn[nH]1	
InChI=1S/C6H10N2O/c1-3-9-6-5(2)4-7-8-6/h4H,3H2,1-2H3,(H,7,8)	InChI=1S/C6H10N2O/c1-3-9-6-5(2)4-7-8-6/h4H,3H2,1-2H3,(H,7,8)
