16
gdb 129775	3.13626	1.52517	1.05425	1.5988	73.82	-0.1876	0.0225	0.2101	1091.0096	0.126444	-434.04218	-434.034174	-434.03323	-434.074679	30.022	
N	-0.0792164816	 1.4888117838	-0.1751835763	-0.624388
C	-0.0719740333	 0.0883796582	-0.0323198106	-0.038667
C	-1.0865178607	-0.8285003313	 0.1080998836	 0.286716
C	-2.4649305445	-1.3861864793	-0.2066231324	-0.358451
C	-1.710385131	-2.7574738913	-0.3888974399	-0.159099
N	-0.5208271304	-2.0698357233	 0.1637996922	 0.022573
N	 0.8229848896	-2.0646451177	-0.0516799458	-0.386263
C	 1.0818680903	-0.7612810543	-0.0836063781	 0.384459
O	 2.3404511296	-0.2687496885	-0.1464105734	-0.436904
H	 0.8636279796	 1.8558284514	-0.1222602475	 0.252071
H	-0.6419279568	 1.9476543552	 0.5307674232	 0.243945
H	-3.1971968818	-1.3653525725	 0.6042784077	 0.122936
H	-2.9248183975	-1.0010891513	-1.1187952535	 0.132401
H	-2.0453649881	-3.6171828968	 0.1964675913	 0.121683
H	-1.5921654	-3.0370309816	-1.4394755056	 0.131374
H	 2.9401380065	-1.0236300004	-0.190431285	 0.305615
107.4777	140.9912	179.1498	244.0498	291.9054	344.0522	348.2236	410.8992	587.6163	598.9429	632.7526	677.6864	716.7445	797.8654	805.8455	830.6733	885.9543	946.7172	1034.5068	1054.4203	1126.4078	1173.6516	1178.4885	1212.5015	1219.6231	1276.7903	1295.7559	1321.0419	1412.9635	1471.6177	1485.7222	1514.6062	1541.6339	1651.579	1684.5788	3057.1776	3068.5141	3110.2658	3125.9069	3524.706	3610.8622	3801.5508
NC1=C2CCN2N=C1O	Nc1c2CCn2nc1O	
InChI=1S/C5H7N3O/c6-4-3-1-2-8(3)7-5(4)9/h1-2,6H2,(H,7,9)	InChI=1S/C5H7N3O/c6-4-3-1-2-8(3)7-5(4)9/h1-2,6H2,(H,7,9)
