14
gdb 129358	6.5774	0.76634	0.68934	3.1467	66.14	-0.277	-0.0455	0.2314	1507.3589	0.10003	-469.967455	-469.959163	-469.958219	-470.003484	27.623	
N	-0.0704413039	 1.2857389714	 0.0081908212	-0.43178
C	-0.0330199169	 0.0269070423	 0.002489833	 0.13926
O	-1.1883302432	-0.6744453238	 0.0084030511	-0.190438
C	-1.0628863503	-2.0921342363	 0.0008414772	-0.184208
C	-2.4455429267	-2.6484023914	 0.0100205003	 0.23365
C	-3.6536113985	-2.0296621841	 0.0221264736	-0.024419
O	-4.6062319217	-2.9597056675	 0.0262572474	-0.158546
N	-3.9407278187	-4.2192014089	 0.0162233251	-0.000557
N	-2.7011641523	-4.0001204978	 0.0071269608	-0.183631
H	 0.8734171283	 1.6661032088	 0.0027203276	 0.236374
H	 0.8645930251	-0.6063029811	-0.0069949476	 0.094662
H	-0.5197072236	-2.4311607429	-0.8921712491	 0.138802
H	-0.5046954354	-2.4393950408	 0.8813393762	 0.138799
H	-3.9524144021	-0.995622888	 0.0284393931	 0.192032
12.8101	47.4802	105.4027	112.1353	264.7217	302.2786	367.4772	631.7378	637.7792	650.0024	701.2495	756.7209	822.6881	861.7636	991.5609	1009.8366	1039.8074	1050.2895	1052.3274	1143.1846	1151.3445	1242.5482	1252.2375	1281.9882	1327.7574	1403.6021	1425.3429	1468.1329	1509.6986	1634.7756	1755.1011	2999.5792	3030.0079	3036.4887	3303.6342	3524.6832
N=COCC1=CON=N1	[NH][CH]OCc1conn1	
InChI=1S/C4H5N3O2/c5-3-8-1-4-2-9-7-6-4/h2-3,5H,1H2	InChI=1S/C4H5N3O2/c5-3-8-1-4-2-9-7-6-4/h2-3,5H,1H2
