16
gdb 62771	3.77142	1.26093	1.22304	3.3082	65.73	-0.2494	0.0489	0.2983	1051.4499	0.123277	-475.012925	-475.004882	-475.003938	-475.045373	30.647	
C	 0.2108579544	 1.5946434342	 0.1631493195	-0.469759
C	 0.0851881563	 0.0956110204	 0.0704959198	 0.282949
O	-1.140484138	-0.3923838647	-0.4042300941	-0.450652
C	 1.256399058	-0.8237341429	-0.2592277999	-0.023329
O	 2.5592488919	-0.3188912307	-0.0728365448	-0.22339
C	 2.7599818103	-0.0570635842	 1.2474693997	 0.486622
N	 3.8352536606	 0.4227178828	 1.6816467268	-0.572825
O	 1.635672675	-0.3609671474	 1.9740111455	-0.249459
C	 0.6390860419	-0.8555865398	 1.1074097967	 0.013912
H	 1.1714988285	 1.9082064505	 0.5752135645	 0.157316
H	 0.1164450275	 2.0430463796	-0.8325084972	 0.12101
H	-0.5863642698	 1.9936553198	 0.7969599365	 0.137994
H	-1.2146805746	-0.1584073589	-1.3371479912	 0.290999
H	 1.1858265426	-1.6044927806	-1.005809078	 0.12804
H	 3.7839837851	 0.5486315941	 2.6893872791	 0.236184
H	 0.0403903802	-1.656477632	 1.5210645671	 0.134387
101.7725	155.207	175.3306	257.384	282.0519	335.8438	387.5624	466.1217	497.1858	509.8263	708.6418	724.9812	748.9275	770.8304	798.7575	877.9129	893.1617	896.9842	984.5138	998.4624	1060.2386	1068.241	1084.3598	1137.9097	1138.3642	1204.5623	1217.5354	1293.0917	1314.2462	1357.8331	1426.3732	1435.7293	1483.7156	1501.6256	1802.2918	3038.4434	3103.91	3141.0232	3197.0451	3207.1959	3542.985	3784.2338
CC1(O)C2OC(=N)OC12	C[C@@]1(O)[C@H]2O[C]([NH])O[C@@H]12	
InChI=1S/C5H7NO3/c1-5(7)2-3(5)9-4(6)8-2/h2-3,6-7H,1H3	InChI=1S/C5H7NO3/c1-5(7)2-3(5)9-4(6)8-2/h2-3,6-7H,1H3/t2-,3+,5+
