23
gdb 110978	2.33323	1.28923	1.13452	0.9446	87.24	-0.2446	0.098	0.3425	1271.5164	0.204458	-388.24022	-388.230432	-388.229488	-388.274579	36.879	
C	-0.7025959008	 1.0983733178	-0.0869603354	-0.241645
O	-0.9081436154	-0.2249655717	-0.5268646316	-0.260303
C	 0.0756338931	-0.6708698665	-1.4221038933	 0.148538
C	 1.4170968756	-1.2595105071	-0.8773122965	-0.121473
C	 0.570267571	-2.4425510586	-0.3262320843	-0.266841
C	 0.0144157644	-2.1830900155	-1.7668782285	 0.279211
C	-1.1063098779	-2.9058068625	-2.4657160368	-0.522146
C	 1.5162599304	-2.0629704517	-2.2132452293	 0.017395
C	 1.9327521428	-1.4254547968	-3.5335652839	-0.447415
H	 0.2280450336	 1.2014962686	 0.4906897803	 0.107404
H	-0.6623774654	 1.805287203	-0.9309236756	 0.102786
H	-1.5467341512	 1.3644475886	 0.5539816013	 0.125092
H	 0.1532813158	 0.0329048069	-2.2597250024	 0.052736
H	 2.2254909924	-0.7302415882	-0.3704736768	 0.062716
H	 1.0992766112	-3.388842456	-0.1796645486	 0.08035
H	-0.1042912665	-2.217640377	 0.4984981472	 0.105836
H	-2.0523528757	-2.758405293	-1.9345039906	 0.130104
H	-1.2364464476	-2.5389339428	-3.49025327	 0.115199
H	-0.9107456317	-3.9824671995	-2.5171924954	 0.115716
H	 2.0550189112	-3.0085335045	-2.0829302547	 0.063247
H	 1.4518814476	-0.4658344058	-3.7363012393	 0.119094
H	 3.0156899421	-1.2589807341	-3.5484669769	 0.117009
H	 1.696860101	-2.0937133136	-4.3696466088	 0.117389
79.1583	147.4677	157.7255	174.3672	186.0174	191.2057	254.9329	295.6654	358.0488	390.293	476.4057	552.49	593.5391	646.7512	745.7559	785.2483	831.9594	898.8025	917.1468	945.0832	1008.1844	1018.7856	1022.2012	1050.6597	1079.9243	1097.3728	1130.6943	1142.1231	1162.737	1180.0583	1189.2905	1193.5762	1223.2027	1232.1613	1242.8235	1251.7419	1328.332	1397.8352	1407.2594	1422.8909	1429.6944	1481.1038	1487.016	1487.8593	1491.3709	1496.6007	1502.901	1509.1455	1519.6283	2973.4779	3021.8308	3024.0648	3026.173	3030.998	3037.7747	3058.5111	3086.4994	3090.6727	3099.6001	3100.0332	3112.5603	3119.193	3150.1127
COC1C2CC1(C)C2C	CO[C@H]1[C@H]2C[C@]1(C)[C@H]2C	
InChI=1S/C8H14O/c1-5-6-4-8(5,2)7(6)9-3/h5-7H,4H2,1-3H3	InChI=1S/C8H14O/c1-5-6-4-8(5,2)7(6)9-3/h5-7H,4H2,1-3H3/t5-,6-,7-,8+/m0/s1
