20
gdb 88580	3.58966	1.07005	0.90595	0.8306	81.79	-0.2255	0.0109	0.2364	1322.7136	0.170919	-403.110048	-403.101231	-403.100287	-403.144734	32.277	
C	-0.3958766316	-1.9558267381	 3.0525277845	-0.308967
N	-0.1155669956	-1.6721679299	 1.652020969	-0.084412
C	-0.9188091828	-0.6311868668	 1.0247577599	-0.247782
C	 0.5413600136	-0.4176454463	 1.2748409585	-0.118683
C	 1.0205276461	 0.6222276959	 2.2232757824	 0.283916
C	 1.7444055458	 0.5051580462	 3.3347600139	-0.210551
C	 2.0487105621	 1.8607494884	 3.9035439081	-0.103756
O	 1.4625173354	 2.7893438373	 2.9952646009	-0.264447
C	 0.7958284696	 2.0928827655	 1.9505235023	-0.145199
H	-0.6723080756	-1.0724714794	 3.6461663037	 0.106165
H	-1.2205926462	-2.6743307551	 3.0963688744	 0.122934
H	 0.4809024399	-2.4211392743	 3.514495487	 0.12052
H	-1.2875277801	-0.8390577506	 0.0235764763	 0.115566
H	-1.6106140817	-0.0782232277	 1.6600219557	 0.108144
H	 1.2002692599	-0.5430348759	 0.4141073089	 0.105539
H	 2.085670459	-0.4146740327	 3.7913884296	 0.105362
H	 1.625110975	 2.0002977353	 4.9116647629	 0.10393
H	 3.1313363024	 2.0494814868	 3.9824060508	 0.105836
H	 1.2030854192	 2.4009935209	 0.9738382239	 0.103472
H	-0.2759462142	 2.3496265903	 1.9448358174	 0.102412
27.5805	104.4835	137.0147	154.7479	251.6779	273.3372	338.8492	387.1596	456.9483	511.7701	657.1683	761.7559	779.8987	833.2555	867.2902	919.8033	926.4325	975.6726	983.5521	1027.9653	1041.1303	1062.2545	1080.6397	1113.9343	1121.7491	1137.5938	1169.2024	1170.1787	1204.9418	1208.357	1224.3682	1283.8245	1333.3074	1355.4175	1388.0666	1400.5362	1450.6269	1493.3386	1499.219	1512.3482	1515.3413	1528.7269	1721.949	2963.3194	2970.9116	2981.2846	2984.1289	2993.9432	3072.0183	3084.3626	3085.8615	3100.6731	3173.6063	3221.3082
CN1CC1C1=CCOC1	CN1C[C@H]1C1=CCOC1	
InChI=1S/C7H11NO/c1-8-4-7(8)6-2-3-9-5-6/h2,7H,3-5H2,1H3	InChI=1S/C7H11NO/c1-8-4-7(8)6-2-3-9-5-6/h2,7H,3-5H2,1H3/t7-,8?/m0/s1
