20
gdb 93015	2.83485	1.31514	0.99467	2.7511	82.43	-0.2244	0.0139	0.2383	1217.7219	0.172692	-403.137434	-403.129245	-403.1283	-403.169921	32.709	
O	-0.0977602116	 1.4514148414	 0.0472512611	-0.438155
C	 0.0315088687	 0.0366826626	 0.0190354218	 0.11146
C	 0.7599487709	-0.5029644433	 1.2594583138	-0.28709
C	 0.6223852051	-1.9992516209	 1.3791793355	-0.095069
C	-0.31319197	-2.6929054412	 0.7278712995	-0.096506
C	-1.3307576112	-2.0617120904	-0.1471849452	 0.31975
C	-1.7023813134	-2.7787168782	-1.4061626521	-0.284035
N	-2.6502366652	-2.7168408245	-0.2877580186	-0.365065
C	-1.3775028552	-0.5460608887	-0.0628015902	-0.26958
H	 0.785902558	 1.8309409085	 0.0879196417	 0.278724
H	 0.5930816724	-0.2770278242	-0.8769977392	 0.067379
H	 1.8227716841	-0.2265394092	 1.2232322335	 0.092087
H	 0.3470020927	-0.0029850152	 2.1474664911	 0.118914
H	 1.3312534682	-2.5190926566	 2.0179444114	 0.090469
H	-0.3597044205	-3.7766051141	 0.8246385844	 0.080024
H	-1.9886233645	-2.2022760189	-2.2823593599	 0.119696
H	-1.2056468463	-3.7206967711	-1.6261080852	 0.108906
H	-2.6548452504	-3.6010963636	 0.2164514812	 0.22755
H	-1.9310725254	-0.2517990314	 0.8370655055	 0.11192
H	-1.9089942665	-0.1237606508	-0.9195809902	 0.108623
101.2363	148.4839	271.2186	277.1075	287.7425	360.6515	391.5849	422.4433	439.2513	482.3139	540.4106	656.6531	749.4466	783.7841	842.3266	900.3571	920.2564	927.2062	945.739	976.0886	983.8472	995.6724	1066.3598	1075.1551	1088.0734	1095.404	1134.8535	1152.7882	1196.54	1231.2638	1255.9701	1273.7215	1313.321	1323.6435	1335.7898	1379.4054	1390.9045	1429.3478	1441.4739	1476.6808	1494.5497	1510.1082	1711.239	2957.1062	3003.2247	3033.0814	3042.0279	3098.2052	3100.2223	3133.3013	3167.4165	3185.6035	3487.0492	3815.1877
OC1CC=CC2(CN2)C1	O[C@H]1CC=C[C@]2(CN2)C1	
InChI=1S/C7H11NO/c9-6-2-1-3-7(4-6)5-8-7/h1,3,6,8-9H,2,4-5H2	InChI=1S/C7H11NO/c9-6-2-1-3-7(4-6)5-8-7/h1,3,6,8-9H,2,4-5H2/t6-,7+/m0/s1
