20
gdb 99934	3.47013	0.70899	0.68038	5.5208	94.57	-0.2792	-0.0328	0.2464	1732.6243	0.168643	-366.016564	-366.005958	-366.005014	-366.052339	38.16	
C	-0.097447557	 1.5285611514	 0.153349788	-0.409296
C	 0.0138012198	 0.010356397	-0.0184678723	-0.176771
C	 0.7472380917	-0.4721504261	-1.3093180306	 0.009657
C	 0.0088971986	-0.0057015938	-2.5871835612	-0.406025
C	 2.2155889833	 0.0162684776	-1.341624417	-0.406033
C	 0.7476978664	-1.935556845	-1.2844140018	 0.180455
C	 0.7423553617	-3.1446577861	-1.2537834538	-0.01809
C	 0.7377839282	-4.5092349748	-1.2218608266	 0.197279
N	 0.7335509491	-5.6709937708	-1.1942530043	-0.340688
H	 0.8828783839	 2.0103259892	 0.2102166551	 0.124431
H	-0.6577894818	 1.9961760937	-0.6613509274	 0.124411
H	-0.626078488	 1.7548946673	 1.0840958041	 0.124557
H	 0.5368474883	-0.4157760569	 0.8450168734	 0.112446
H	-0.9895371109	-0.4301850733	-0.01688443	 0.11244
H	 0.0374801538	 1.0843455481	-2.664597114	 0.125314
H	 0.4842026404	-0.4207739054	-3.4798399904	 0.130974
H	-1.036484729	-0.3263872915	-2.5769037684	 0.129324
H	 2.7516238529	-0.2883534292	-0.4384932084	 0.129316
H	 2.7405609333	-0.3985973882	-2.2061010949	 0.130975
H	 2.2506021253	 1.1063590368	-1.4157406597	 0.125322
71.4768	75.0238	100.7946	201.2021	206.6606	224.4842	257.9706	273.003	288.2792	334.9002	355.8314	389.2119	521.8162	531.7077	588.6488	594.6271	640.102	785.3791	787.7127	913.6069	942.3558	1004.4348	1022.0941	1056.9031	1068.9713	1083.9712	1204.945	1214.4734	1263.5071	1323.6297	1368.0936	1396.828	1410.0997	1423.5515	1481.262	1481.3569	1484.2108	1503.712	1507.3436	1508.1501	1510.3553	2258.2027	2395.1852	3036.3863	3044.3904	3044.5439	3049.3415	3072.625	3110.41	3116.4497	3121.2546	3123.2543	3124.5149	3126.4037
CCC(C)(C)C#CC#N	CCC(C)(C)C#CC#N	
InChI=1S/C8H11N/c1-4-8(2,3)6-5-7-9/h4H2,1-3H3	InChI=1S/C8H11N/c1-4-8(2,3)6-5-7-9/h4H2,1-3H3
