18
gdb 48966	3.91904	1.32111	1.19505	3.4257	76.73	-0.2447	-0.0265	0.2182	1064.8537	0.149356	-401.928271	-401.921076	-401.920132	-401.959927	28.401	
O	-0.6509209433	 0.7384668628	 0.6417388277	-0.266457
C	 0.1615183709	 0.9535820385	-0.2262016431	 0.058392
C	 1.3445590691	 1.8140672311	-0.0420797872	 0.253174
C	 1.746510583	 2.5529834681	 1.2382672614	-0.311576
C	 2.5024549884	 3.594403643	 0.3525142338	-0.047636
C	 3.9630590037	 3.1666104172	 0.1796852575	-0.218576
C	 3.813501515	 1.7594958423	-0.4578133439	-0.165545
N	 2.4438994314	 1.6969913705	-1.0287347164	-0.135694
C	 1.8037100063	 2.9810183429	-0.8964780586	-0.104563
H	 0.0707332459	 0.5226783574	-1.2466136166	 0.081388
H	 0.8605117105	 2.9716152883	 1.7185890797	 0.127828
H	 2.332841131	 2.0051074185	 1.9829475485	 0.100362
H	 2.3400010079	 4.6459997561	 0.5830139338	 0.080011
H	 4.4949244556	 3.8485607347	-0.4924069127	 0.104604
H	 4.5033603621	 3.1408796354	 1.1306216237	 0.107452
H	 4.5247768111	 1.594349569	-1.2710695414	 0.116074
H	 3.9451653368	 0.9503365907	 0.2657284961	 0.116593
H	 1.3237366646	 3.4653596037	-1.7386342521	 0.10417
103.0589	175.1179	223.0628	266.1073	383.6539	397.6141	493.0818	636.9333	699.2917	729.0844	754.5515	811.746	852.997	861.8543	871.0652	931.8356	952.8006	974.4669	1000.0031	1019.7281	1047.0833	1053.9438	1093.6563	1132.353	1166.1248	1190.7133	1226.3181	1233.0305	1246.7206	1279.9472	1288.8243	1330.1743	1340.1644	1368.1282	1420.7178	1489.2176	1491.1791	1514.7318	1805.087	2904.8462	3044.6458	3051.1432	3064.4655	3089.6599	3109.9941	3121.5506	3130.9939	3186.0947
O=CC12CC3CCN1C23	O=C[C@@]12C[C@H]3CCN1[C@@H]23	
InChI=1S/C7H9NO/c9-4-7-3-5-1-2-8(7)6(5)7/h4-6H,1-3H2	InChI=1S/C7H9NO/c9-4-7-3-5-1-2-8(7)6(5)7/h4-6H,1-3H2/t5-,6-,7-,8?/m1/s1
