22
gdb 63001	2.37313	1.71458	1.49141	1.4486	83.93	-0.2251	0.085	0.3101	1042.5357	0.195116	-367.176955	-367.168754	-367.16781	-367.208823	34.054	
C	 0.0522722498	 1.5513709661	 0.0095851083	-0.414973
C	 0.0223712733	 0.0147173787	-0.0050332115	 0.262168
C	-1.4388027348	-0.4738332192	 0.0140592006	-0.435341
C	 0.7231837932	-0.6107527647	-1.2289348362	-0.049034
C	 2.1854044255	-0.3476312135	-1.4962053246	-0.330299
C	 1.7679413477	-1.5730320939	-0.7192043191	 0.002428
N	 1.7577677039	-1.6079406226	 0.7455123273	-0.107147
C	 2.2022670413	-0.3954783604	 1.4473099996	-0.273563
C	 0.7562045488	-0.6186467886	 1.1956502011	-0.036178
H	 1.0739597646	 1.9392253882	-0.0253811099	 0.10946
H	-0.4888258779	 1.9592885782	-0.8510612565	 0.112203
H	-0.4218163755	 1.942333714	 0.9164893186	 0.112346
H	-1.9843095951	-0.1047747177	-0.8607675554	 0.111083
H	-1.4871273683	-1.5675132548	 0.0077544795	 0.123595
H	-1.9607083562	-0.1169031577	 0.9082926962	 0.111609
H	 0.0922704237	-0.8579354755	-2.0769486949	 0.080534
H	 2.5310759435	-0.5185624032	-2.5108099051	 0.110763
H	 2.6913546133	 0.475643621	-1.0083280554	 0.112405
H	 1.9252206391	-2.5481882942	-1.1658672639	 0.093168
H	 2.6026044289	-0.5772999643	 2.441670421	 0.112446
H	 2.7285462385	 0.3794356731	 0.9020107996	 0.110242
H	 0.1291950925	-0.9251550892	 2.0311810008	 0.082086
157.9352	192.6645	231.9948	276.5492	321.3002	329.1611	366.4671	381.8703	501.9376	516.3622	580.0346	662.9991	693.1161	778.2252	804.4357	811.0186	854.7939	928.5453	940.8037	947.4631	978.9348	1003.5979	1014.2287	1034.919	1043.7922	1058.7026	1092.1263	1108.8027	1116.4623	1128.9567	1161.5367	1199.2537	1207.1919	1233.8958	1249.1036	1287.634	1321.6581	1358.1682	1391.062	1397.1339	1426.5223	1474.7434	1484.3655	1488.5628	1503.9355	1507.2323	1520.6009	3026.7755	3031.7514	3092.537	3098.3785	3103.465	3107.9888	3112.5825	3118.1273	3137.8637	3151.643	3170.6881	3202.347	3220.9733
CC1(C)C2CC2N2CC12	CC1(C)[C@H]2C[C@H]2N2C[C@@H]12	
InChI=1S/C8H13N/c1-8(2)5-3-6(5)9-4-7(8)9/h5-7H,3-4H2,1-2H3	InChI=1S/C8H13N/c1-8(2)5-3-6(5)9-4-7(8)9/h5-7H,3-4H2,1-2H3/t5-,6+,7-,9?/m0/s1
