18
gdb 67617	2.8934	1.72486	1.4337	1.1487	74.42	-0.2199	0.0738	0.2937	969.8315	0.147956	-401.88972	-401.882301	-401.881357	-401.921007	30.325	
C	-0.0371821807	 1.5050421573	 0.0121097346	-0.514905
C	-0.0197227937	 0.0108874623	-0.0461753046	 0.361972
C	 0.5890202709	-0.8676016452	-1.1844050644	-0.204538
C	 0.965452777	-2.1565140338	-0.4617174057	-0.170514
C	 1.0565175633	-1.8624308737	 1.0221387829	-0.176553
N	 0.0450059981	-0.80542203	 1.1849672364	-0.16001
C	-1.0521846047	-1.03046039	 0.2216581921	-0.217802
C	-0.4565860952	-1.9166048856	-0.9194928401	 0.396603
O	-1.1670805287	-2.6552196171	-1.8376719223	-0.465318
H	 0.9789157838	 1.9074532198	 0.1020588921	 0.120892
H	-0.4863404273	 1.927853116	-0.8928531406	 0.122401
H	-0.6137381362	 1.8434183594	 0.8769732828	 0.133196
H	 1.0225525694	-0.5303191365	-2.1149133388	 0.095935
H	 1.5713527388	-2.8937355332	-0.9745576336	 0.092884
H	 0.7981779439	-2.7223748926	 1.6498611346	 0.101196
H	 2.0358261479	-1.48272824	 1.3312044417	 0.106183
H	-2.0861584844	-0.9677652716	 0.5403809371	 0.091569
H	-1.3781379721	-3.5094151558	-1.4432361941	 0.286808
182.8679	198.6516	255.8131	278.0772	327.0994	356.426	429.9651	560.188	583.0025	607.304	730.9973	761.4212	782.2755	806.3655	817.4538	879.1186	904.7908	945.6856	954.5679	979.7771	991.8683	1015.3357	1064.3957	1088.4595	1104.8888	1121.7782	1148.874	1194.7613	1224.0651	1235.6267	1255.791	1296.6584	1324.131	1400.4457	1440.4511	1470.9406	1484.7405	1492.7386	1500.9826	3027.932	3042.3945	3086.6309	3088.2133	3119.2564	3181.5247	3195.9633	3223.2918	3781.1008
CC12C3C4CN1C2C34O	C[C@@]12[C@H]3[C@H]4CN1[C@@H]2[C@@]34O	
InChI=1S/C7H9NO/c1-6-4-3-2-8(6)5(6)7(3,4)9/h3-5,9H,2H2,1H3	InChI=1S/C7H9NO/c1-6-4-3-2-8(6)5(6)7(3,4)9/h3-5,9H,2H2,1H3/t3-,4-,5+,6+,7+,8?/m1/s1
