18
gdb 73456	2.26211	1.95043	1.58996	3.1671	71.1	-0.2115	0.0668	0.2783	943.7556	0.148127	-439.025957	-439.018224	-439.017279	-439.057576	30.984	
C	-0.0034055886	 1.424762706	 0.0291501602	-0.479237
C	-0.0498618144	-0.0742293138	-0.0057855113	 0.433715
O	 0.9633418806	-0.6619911841	-0.7988326906	-0.306569
C	 0.4656029004	-1.9256361167	-1.2583997911	-0.057534
C	-0.6706438792	-2.2419272915	-0.2965742196	-0.14432
N	-0.074874436	-2.2500485064	 1.0957175435	-0.316688
C	-0.5042713698	-0.8439585336	 1.2479364551	-0.202674
C	-1.3221327684	-0.8397031446	-0.0463767761	 0.264952
O	-2.5265999234	-0.3341373133	-0.4842689519	-0.455865
H	 0.9602357209	 1.7684422018	 0.4167554005	 0.130705
H	-0.1374823651	 1.8354899466	-0.9757338456	 0.132181
H	-0.7975595282	 1.8192014658	 0.6685959532	 0.123429
H	 0.1030936604	-1.8455704448	-2.2952794574	 0.091189
H	 1.2767613428	-2.6568668869	-1.207446647	 0.115048
H	-1.2955423127	-3.098556292	-0.5496383003	 0.076333
H	-0.6706426274	-2.8242876056	 1.6893786414	 0.215962
H	-0.6275538071	-0.3706165082	 2.2163385585	 0.092436
H	-3.2398047548	-0.7910446187	-0.0238935715	 0.286936
185.8657	193.4786	222.7329	239.1333	330.8038	362.5398	380.7543	425.3657	529.9517	581.2643	654.2158	701.0274	753.9826	800.4776	841.8809	886.2697	903.7796	941.5302	1000.4421	1009.9152	1014.9397	1041.3306	1054.126	1092.7209	1129.7451	1154.7503	1182.4099	1210.3579	1232.5104	1273.8316	1314.5963	1329.668	1364.1348	1384.6816	1420.5139	1471.9933	1481.9213	1501.774	1519.1008	2984.3219	3044.5037	3093.2995	3112.8252	3118.9264	3123.6708	3170.1297	3467.5413	3784.6
CC12OCC3NC1C23O	C[C@@]12OC[C@H]3N[C@@H]1[C@@]23O	
InChI=1S/C6H9NO2/c1-5-4-6(5,8)3(7-4)2-9-5/h3-4,7-8H,2H2,1H3	InChI=1S/C6H9NO2/c1-5-4-6(5,8)3(7-4)2-9-5/h3-4,7-8H,2H2,1H3/t3-,4+,5-,6-/m1/s1
