21
gdb 77620	2.07606	1.41079	1.27977	0.9873	91.55	-0.2221	0.0408	0.2629	1183.698	0.180676	-349.90877	-349.899181	-349.898237	-349.942448	36.918	
C	-0.0079164946	 1.557504852	-0.0003013067	-0.423795
C	 0.1073333628	 0.049975847	-0.0818097787	-0.099604
C	 0.7012349775	-0.7402627021	-1.2121334408	 0.27588
C	-0.02997133	-1.8552423038	-1.9019085631	-0.490194
C	 1.9265077128	-0.0211883731	-1.7975961123	-0.28549
C	 2.6060834306	-0.0184433661	-0.394834448	-0.295338
C	 1.3798545361	-0.7390948263	 0.1959109361	 0.142845
C	 1.4357257642	-1.7728441896	 1.1706251807	 0.179139
C	 1.499162829	-2.6556928211	 1.9884454654	-0.418487
H	 0.8639864438	 2.072013089	-0.4108384971	 0.121284
H	-0.8864909001	 1.9051668374	-0.5552393921	 0.118738
H	-0.1232066247	 1.8801624499	 1.0398994686	 0.123525
H	-0.7543416248	-0.4620060149	 0.3429365012	 0.091832
H	-0.6713764864	-1.4708011677	-2.7047829469	 0.119658
H	 0.6677076693	-2.5720128401	-2.349429895	 0.118738
H	-0.6666660382	-2.4020275795	-1.1992959776	 0.12717
H	 2.4661563465	-0.6478297245	-2.5116297562	 0.103718
H	 1.7421172786	 0.9504229974	-2.2669040139	 0.096997
H	 3.4986131393	-0.6452463703	-0.364966034	 0.114214
H	 2.8496392881	 0.953356715	 0.0449960667	 0.098736
H	 1.5516699102	-3.4283854787	 2.7142014837	 0.180435
108.42	139.5335	167.7151	184.9887	216.4005	251.8242	264.7148	320.4671	387.0163	494.0725	515.5153	545.2966	549.1573	577.8115	641.0663	688.5745	725.1517	750.0048	804.1863	927.0566	954.0346	961.6021	1012.8939	1021.854	1080.6057	1103.0386	1118.7366	1131.4384	1163.9772	1215.8387	1235.7071	1241.4365	1265.0823	1319.6254	1322.6808	1412.4627	1415.261	1464.0487	1476.9872	1484.647	1495.2277	1502.0246	1506.5897	1515.0533	2222.2997	3019.9851	3034.953	3048.8374	3057.4112	3078.2848	3091.7194	3096.8884	3101.591	3115.4261	3122.3452	3134.0039	3504.1914
CC1C2(C)CCC12C#C	C[C@H]1[C@@]2(C)CC[C@@]12C#C	
InChI=1S/C9H12/c1-4-9-6-5-8(9,3)7(9)2/h1,7H,5-6H2,2-3H3	InChI=1S/C9H12/c1-4-9-6-5-8(9,3)7(9)2/h1,7H,5-6H2,2-3H3/t7-,8+,9-/m0/s1
