18
gdb 8582	3.48722	2.05151	1.85058	1.7017	66.2	-0.2351	0.0709	0.306	799.9323	0.156351	-384.929734	-384.923098	-384.922154	-384.960118	27.106	
O	 0.0855168337	 1.3575929395	-0.2711803365	-0.430321
C	 0.0120077337	-0.0448522696	 0.0081926149	 0.10168
C	 0.7095454614	-0.390199188	 1.351392524	-0.223936
C	-0.2922691805	-0.3404372991	 2.5066251246	 0.094102
C	-1.3620371251	 0.7578987012	 2.3200611088	-0.252102
C	-2.0266063954	-0.3491657002	 1.4730774704	 0.090006
C	-1.4935186287	-0.3951427453	 0.0409349445	-0.199471
O	-1.3004180734	-1.3573969313	 2.2385071314	-0.300903
H	 1.0148895536	 1.6088027677	-0.2773158975	 0.279187
H	 0.4991429274	-0.5970923317	-0.807815886	 0.067804
H	 1.1259321842	-1.4030320927	 1.3136102136	 0.108353
H	 1.5463590814	 0.301110696	 1.5147302617	 0.081289
H	 0.1752517575	-0.4712321103	 3.4865894386	 0.071675
H	-1.9120117842	 0.943130059	 3.2439655995	 0.102969
H	-1.0792781769	 1.687844541	 1.8296200728	 0.120762
H	-3.1093150907	-0.4892932645	 1.5319220607	 0.0725
H	-2.0201125599	 0.3072080735	-0.6127798597	 0.110326
H	-1.656426908	-1.4060531152	-0.3462482057	 0.10608
154.961	258.4042	317.5575	352.572	385.1678	434.949	484.8054	550.8051	696.3528	796.8003	824.0674	862.3317	867.2029	872.2191	936.9177	948.7866	962.3717	971.8117	1044.8545	1061.1485	1096.954	1099.373	1111.5223	1171.569	1219.7296	1243.1565	1250.1577	1265.7264	1302.0664	1341.7911	1343.5315	1355.7422	1381.1927	1391.1221	1426.7645	1458.0356	1467.1945	1484.164	2988.1168	3023.3808	3049.5653	3067.7863	3072.625	3073.5641	3090.7749	3098.3969	3160.8515	3811.4175
OC1CC2CC(C1)O2	O[C@H]1C[C@H]2C[C@@H](C1)O2	
InChI=1S/C6H10O2/c7-4-1-5-3-6(2-4)8-5/h4-7H,1-3H2	InChI=1S/C6H10O2/c7-4-1-5-3-6(2-4)8-5/h4-7H,1-3H2/t4-,5-,6+
