23
gdb 63458	2.64532	1.27065	1.02376	1.7923	85.73	-0.2542	0.0806	0.3348	1280.6323	0.203249	-388.262395	-388.252204	-388.251259	-388.296991	38.582	
C	-0.0371369407	 1.4117496834	-0.2877812899	-0.453628
C	 0.0829367955	-0.062390108	 0.0599113492	 0.304273
C	-1.0033859785	-0.8976896189	-0.6003529822	-0.453411
C	 1.4615329169	-0.6737806025	 0.1883127675	-0.379403
C	 0.6119605228	-0.4872567734	 1.4281621576	 0.273137
C	 1.0341047801	 0.553366836	 2.455609137	-0.464763
C	-0.0210658801	-1.6729568568	 2.1059054937	 0.010519
C	 0.3525689318	-3.0785370188	 1.8963593069	-0.174152
O	 0.7956754903	-2.3778384243	 3.0544151642	-0.240394
H	 0.7810455654	 2.0115006715	 0.1153382337	 0.115516
H	-0.0317208855	 1.5416761334	-1.3765387051	 0.114814
H	-0.9780188375	 1.8331156811	 0.0862515921	 0.113694
H	-0.9551253109	-0.7898195231	-1.6903829513	 0.113174
H	-0.9133382745	-1.9610538154	-0.3683556534	 0.118662
H	-2.001631322	-0.5702159459	-0.2852928709	 0.113043
H	 1.6167978068	-1.6725502925	-0.2058954648	 0.104241
H	 2.3237953115	-0.0230860188	 0.0782094056	 0.105492
H	 1.5807135588	 1.3844840603	 2.0063015116	 0.11327
H	 0.1669076541	 0.9676616434	 2.9838664203	 0.112142
H	 1.685060456	 0.0854043464	 3.2002357218	 0.138631
H	-1.0302126878	-1.487196432	 2.4824513502	 0.090935
H	-0.3847743316	-3.8620918903	 2.0724358505	 0.109639
H	 1.132447439	-3.3342940546	 1.1820818657	 0.114566
67.6482	140.1693	171.9456	180.5224	189.9041	213.2361	278.1913	295.124	326.6076	374.2423	383.6642	438.7096	487.3041	535.5701	671.1516	716.7166	842.2238	855.619	897.6466	918.8212	949.7754	966.4821	971.6861	1017.6315	1033.5499	1039.5748	1065.0441	1101.0678	1112.819	1153.4699	1163.9129	1176.4081	1202.4536	1235.6507	1294.7765	1314.4814	1391.7179	1406.1744	1411.0567	1423.8918	1432.9747	1480.0472	1489.5373	1490.8222	1491.0453	1501.655	1506.5365	1520.2567	1527.699	3022.3421	3026.4646	3032.6	3072.1814	3075.7112	3079.1836	3083.195	3096.6788	3118.7312	3120.4348	3123.1786	3133.167	3169.7785	3205.0094
CC1(C)CC1(C)C1CO1	CC1(C)C[C@]1(C)[C@H]1CO1	
InChI=1S/C8H14O/c1-7(2)5-8(7,3)6-4-9-6/h6H,4-5H2,1-3H3	InChI=1S/C8H14O/c1-7(2)5-8(7,3)6-4-9-6/h6H,4-5H2,1-3H3/t6-,8-/m1/s1
