14
gdb 56395	3.35253	0.72542	0.6186	5.1432	74.29	-0.2685	-0.0449	0.2236	1698.2095	0.098591	-436.631236	-436.621554	-436.62061	-436.667762	33.415	
N	 0.1201681602	 1.0327163976	 0.0192973883	-0.49011
H	-3.8771237473	-1.1054749125	-0.1558880445	 0.312918
H	 1.0777815022	 1.3711423547	 0.0716257888	 0.243672
H	-0.2794742422	 1.4526621478	-0.8164002041	 0.242243
C	-0.6112570295	 1.5402548148	 1.196062815	-0.356422
C	-0.6199430469	 3.0075875162	 1.3253924947	 0.334909
C	-0.5838406776	 4.2064741195	 1.3941652677	-0.450922
C	-1.9810456694	 1.0128456754	 1.1995152102	 0.176437
C	-3.1058083692	 0.5817683483	 1.213067564	-0.078665
C	-4.4606751715	 0.0636034873	 1.2345892781	 0.343722
O	-5.3249593027	 0.4504526149	 1.9695648475	-0.290071
O	-4.6893975892	-0.9227026849	 0.3342623712	-0.356695
H	-0.107519297	 1.1230850902	 2.0800894254	 0.158109
H	-0.5631472999	 5.2664393807	 1.4640264377	 0.210874
19.7656	63.3397	95.734	156.7257	212.6228	227.76	266.4823	362.8226	398.0021	497.8557	516.8772	562.8656	614.0672	624.7091	656.5347	664.5137	763.2003	766.8151	855.1552	966.7052	1027.115	1123.6775	1184.4681	1198.5091	1304.9385	1318.1796	1387.7553	1659.1682	1851.5116	2234.3181	2351.527	3009.1336	3482.8273	3500.958	3562.9858	3787.0163
[NH3+]C(C#C)C#CC([O-])=O	N[C@@H](C#C)C#CC(=O)O	
InChI=1S/C6H5NO2/c1-2-5(7)3-4-6(8)9/h1,5H,7H2,(H,8,9)	InChI=1S/C6H5NO2/c1-2-5(7)3-4-6(8)9/h1,5H,7H2,(H,8,9)/t5-/m0/s1
