19
gdb 37874	2.96634	2.2291	2.15223	0.9112	75.74	-0.2033	0.0842	0.2875	792.765	0.165437	-382.011718	-382.006367	-382.005423	-382.040989	24.75	
C	-0.0200957221	 1.5271298431	 0.0364481632	-0.188901
C	 1.5196753769	 1.4873874248	-0.0045983901	-0.031478
C	 1.3425396431	 0.0227258216	 0.5596185396	 0.017543
C	 1.9039030561	-0.8427054	-0.5680757533	-0.064394
C	 2.9428954222	 0.1033649446	-1.2028147453	-0.190914
N	 2.0657289209	 1.2898550965	-1.3940515173	-0.111574
C	 0.9814341498	 0.6572413903	-2.1957557032	-0.183707
C	 0.5487568909	-0.5039773124	-1.2951911407	-0.0091
N	-0.0705189335	 0.0243765521	 0.004051548	-0.158541
H	-0.3770218133	 1.8452978923	 1.0208395466	 0.109787
H	-0.5799747556	 2.0769402246	-0.7238102472	 0.1062
H	 2.1117961138	 2.2306861281	 0.5344559622	 0.072782
H	 1.4898746593	-0.1806666939	 1.6223654681	 0.06663
H	 2.165328497	-1.8808082049	-0.374479322	 0.072801
H	 3.7655732404	 0.3338006235	-0.5182570041	 0.104477
H	 3.3592947455	-0.2272820001	-2.1578915804	 0.103643
H	 0.1862134506	 1.3615078718	-2.4400059063	 0.109351
H	 1.4061461276	 0.3027452275	-3.1400325744	 0.10173
H	-0.0414901399	-1.2955666693	-1.7589091134	 0.073663
392.0624	430.9041	460.9033	538.5438	601.7734	645.7242	731.7392	765.6986	780.2571	803.9544	838.9748	860.1133	893.8062	922.016	925.4255	927.1277	937.8699	967.837	985.5707	1007.42	1015.8612	1034.8798	1082.4996	1112.6461	1163.6664	1176.7238	1187.786	1202.5493	1222.1286	1231.144	1253.7654	1267.5297	1273.8733	1281.8179	1296.4164	1305.4778	1313.6669	1355.2882	1482.9679	1505.8635	1534.669	3051.4615	3054.1645	3061.5566	3072.8286	3086.7195	3095.6397	3099.7044	3106.7999	3128.565	3142.0711
C1C2C3C4CN2CC4N13	C1[C@H]2[C@@H]3[C@@H]4CN2C[C@@H]4N13	
InChI=1S/C7H10N2/c1-4-5-2-8(1)6-3-9(5)7(4)6/h4-7H,1-3H2	InChI=1S/C7H10N2/c1-4-5-2-8(1)6-3-9(5)7(4)6/h4-7H,1-3H2/t4-,5+,6+,7+/m1/s1
