13
gdb 5011	3.48555	2.37602	1.41289	2.3233	66.13	-0.2047	-0.0372	0.1675	805.7419	0.09755	-398.639359	-398.633147	-398.632202	-398.669543	24.402	
O	 0.0625859007	 1.3128159617	-0.1556806246	-0.418195
C	-0.0145601244	-0.0209860625	-0.0409900106	 0.307789
C	-1.1708960062	-0.7159483523	 0.0692314158	-0.208865
C	-1.1038526983	-2.147177575	 0.1854824225	-0.155884
C	 0.0888492309	-2.761512548	 0.182766857	 0.037603
O	 1.2642151983	-2.0730275632	 0.0722267015	-0.223133
C	 1.2737802123	-0.7132941129	-0.0415933038	 0.338923
N	 2.3423491085	-0.0239541384	-0.1471568296	-0.588493
H	 1.0195079957	 1.5035448257	-0.2149470609	 0.310042
H	-2.122218836	-0.1984493077	 0.0691077771	 0.117882
H	-2.0050756995	-2.7394158675	 0.2755946645	 0.115443
H	 0.2641111626	-3.8246449966	 0.2634686753	 0.135931
H	 3.1845814453	-0.5941785433	-0.1376145142	 0.230956
153.8707	257.341	331.397	414.41	485.8906	540.1474	563.8188	569.694	643.1294	760.6796	761.6486	771.8475	806.3558	889.0742	908.4205	915.6721	1009.5829	1047.5971	1105.9545	1221.6467	1267.4858	1305.5578	1339.375	1432.1513	1480.3772	1628.4732	1695.9476	1724.2647	3208.2737	3220.6642	3247.2157	3529.3372	3582.1645
OC1=CC=COC1=N	OC1=C(OC=CC1)[NH]	
InChI=1S/C5H5NO2/c6-5-4(7)2-1-3-8-5/h1-3,6-7H	InChI=1S/C5H6NO2/c6-5-4(7)2-1-3-8-5/h1,3,6-7H,2H2
