18
gdb 32773	3.14886	0.99648	0.8054	2.3042	75.31	-0.1811	0.0376	0.2187	1400.0069	0.149021	-435.297026	-435.28768	-435.286736	-435.33218	33.652	
N	 0.1600843981	 1.4449680822	 0.0005228318	-0.599003
C	 0.0431239496	 0.0482929374	 0.0143676827	 0.212849
C	-1.1043325228	-0.7152403196	-0.0154681776	 0.219338
C	-2.5523288958	-0.3600545152	-0.0587825277	-0.314073
C	-3.0819091178	-0.1451372612	-1.4810795788	-0.061625
O	-4.4607621684	 0.1748505816	-1.3825021183	-0.419258
N	-0.6320638891	-2.0242303662	-0.0672605938	-0.296658
C	 0.7221849041	-1.9784582644	-0.0591218444	 0.000584
N	 1.1664374255	-0.7397257202	-0.0094746961	-0.306103
H	 1.0907764192	 1.7174000496	 0.2920321567	 0.246866
H	-0.5288105089	 1.9085847067	 0.5799308165	 0.238333
H	-3.1612568637	-1.1344791271	 0.4245854292	 0.106061
H	-2.7310966864	 0.5600189055	 0.5100293513	 0.112773
H	-2.5079929684	 0.661589161	-1.9603995855	 0.106351
H	-2.921186498	-1.0593538963	-2.0750458706	 0.081402
H	-4.7874124745	 0.3779244203	-2.2636744842	 0.28718
H	-1.202870905	-2.8526498055	-0.0712081556	 0.259938
H	 1.3344922023	-2.8671733984	-0.0839796256	 0.125046
33.5112	95.8421	104.5799	197.3358	253.607	255.5925	285.563	338.694	375.1454	453.9405	476.3324	660.7262	684.6194	707.256	777.4007	784.6286	795.911	806.1589	958.384	1001.1415	1019.9461	1067.6703	1074.8506	1131.9417	1195.2867	1236.9236	1250.6754	1260.991	1306.8716	1334.9904	1346.0211	1403.5143	1452.1817	1481.7558	1494.3822	1517.89	1525.6871	1634.0026	1655.4529	2970.0269	3010.5142	3025.8025	3068.4363	3252.1734	3527.726	3623.0886	3665.2858	3832.306
NC1=C(CCO)NC=N1	Nc1c(CCO)[nH]cn1	
InChI=1S/C5H9N3O/c6-5-4(1-2-9)7-3-8-5/h3,9H,1-2,6H2,(H,7,8)	InChI=1S/C5H9N3O/c6-5-4(1-2-9)7-3-8-5/h3,9H,1-2,6H2,(H,7,8)
