18
gdb 47664	2.41263	1.59245	1.09924	4.3522	73.99	-0.2346	-0.0174	0.2172	1108.1845	0.149605	-439.095995	-439.08795	-439.087006	-439.128784	30.789	
O	 0.0249172441	-0.0169937868	-0.0682945841	-0.356059
C	-0.0121739286	 1.1960128954	 0.014538667	 0.373126
C	-1.3617924677	 1.9431613926	 0.0323611903	-0.173571
O	-1.7198797595	 2.5357391369	-1.2026115114	-0.241324
C	-1.3653902563	 3.9003491765	-1.4057584409	-0.129562
C	-0.00284313	 4.0914644375	-2.0380426252	-0.047492
C	 1.1557380171	 3.870343389	-1.4186316593	-0.045458
C	 1.2593898943	 3.3846426321	 0.0093935912	-0.231633
N	 1.1353142304	 1.9357273487	 0.1445724011	-0.284415
H	-2.1056076139	 1.1688234912	 0.2308704238	 0.135515
H	-1.3975665108	 2.6805336241	 0.8488291539	 0.096037
H	-2.1359998348	 4.3016374957	-2.0702114515	 0.115862
H	-1.438997133	 4.450760067	-0.4550571005	 0.10106
H	 0.0063760138	 4.3881026707	-3.083732485	 0.101471
H	 2.0880098645	 3.9833096373	-1.9670326933	 0.098978
H	 2.2222010282	 3.6691638001	 0.442254749	 0.119351
H	 0.4916803878	 3.8595958632	 0.6281583904	 0.123165
H	 1.9727322744	 1.3831354488	 0.0200628145	 0.24495
65.8271	143.9812	237.1532	251.1408	268.702	366.0803	442.0157	446.3884	494.0296	530.6945	612.5159	656.9657	693.6845	778.3026	836.8376	886.7874	928.6051	960.2362	990.6941	1002.2919	1015.7063	1096.0226	1117.0609	1143.797	1237.4363	1259.1997	1289.5824	1310.8812	1347.8738	1384.0581	1395.0298	1402.425	1420.6659	1465.2799	1478.5627	1482.6037	1500.5705	1719.4981	1785.3725	2982.1508	2987.7455	3052.9694	3081.5829	3095.7008	3112.7542	3147.2651	3171.0392	3593.179
O=C1COCC=CCN1	O=C1COCC=CCN1	
InChI=1S/C6H9NO2/c8-6-5-9-4-2-1-3-7-6/h1-2H,3-5H2,(H,7,8)/b2-1-	InChI=1S/C6H9NO2/c8-6-5-9-4-2-1-3-7-6/h1-2H,3-5H2,(H,7,8)/b2-1-
