20
gdb 7783	3.07678	1.7087	1.19422	3.0055	75.11	-0.2329	-0.0086	0.2243	1046.8082	0.178241	-349.054934	-349.04698	-349.046036	-349.087123	30.64	
C	-0.0161467552	 1.5630145625	 0.0253643962	-0.401958
C	 0.0193521281	 0.032875066	-0.017136388	 0.032008
C	 0.6863555828	-0.4971854427	-1.296637428	-0.182317
C	 0.7038503402	-2.0300497735	-1.3404963846	-0.219052
C	 1.4077174574	-2.6248429006	-0.1048862872	-0.285757
C	 0.8329556824	-2.0619608718	 1.1882619113	 0.379651
O	 0.4847791126	-2.7652786572	 2.1084055093	-0.307643
C	 0.7245750684	-0.5437112685	 1.2313416448	-0.289015
H	 0.9983964345	 1.9787982072	 0.0102603237	 0.113629
H	-0.5564792292	 1.9698667191	-0.835857868	 0.113303
H	-0.5100966224	 1.924389333	 0.9332013026	 0.116389
H	-1.0182427851	-0.33226659	-0.0075702662	 0.081988
H	 0.163867683	-0.1032188171	-2.1760566067	 0.095544
H	 1.7163546032	-0.1151448748	-1.3501564265	 0.091794
H	-0.3273824095	-2.4041979525	-1.3811084587	 0.107427
H	 1.1981902527	-2.382830836	-2.2517518876	 0.101279
H	 1.3377999764	-3.7146002752	-0.0732519888	 0.11637
H	 2.4739844364	-2.3575703726	-0.1383432939	 0.113126
H	 1.7456234296	-0.1351968524	 1.2757366098	 0.109215
H	 0.2130945737	-0.2583923829	 2.1544964266	 0.114019
97.9695	124.9085	229.8406	249.0648	291.3701	382.3389	394.669	433.5455	487.2263	510.806	644.4655	754.829	818.1427	833.2795	878.1144	890.4012	956.1745	969.1724	976.4899	1052.3083	1061.0629	1091.3912	1125.9137	1144.9713	1224.3224	1234.5611	1248.264	1288.2877	1295.4947	1331.5634	1343.7933	1365.5734	1374.8167	1389.2601	1413.2463	1461.7531	1469.0952	1488.5591	1497.4963	1498.5479	1499.1869	1816.5743	2991.6868	3002.5685	3009.9154	3013.5258	3025.459	3026.5393	3060.802	3072.5017	3091.5383	3097.3278	3101.2332	3106.7921
CC1CCCC(=O)C1	C[C@H]1CCCC(=O)C1	
InChI=1S/C7H12O/c1-6-3-2-4-7(8)5-6/h6H,2-5H2,1H3	InChI=1S/C7H12O/c1-6-3-2-4-7(8)5-6/h6H,2-5H2,1H3/t6-/m0/s1
