16
gdb 71971	2.76129	1.72826	1.24093	4.9126	74.13	-0.2506	-0.0053	0.2454	999.7627	0.123966	-400.696959	-400.689406	-400.688462	-400.728815	29.191	
C	-0.0607362378	 1.5077162639	-0.0314294882	-0.509155
C	 0.018723847	 0.0126777517	-0.0528293346	 0.225121
C	 0.928272357	-0.8934326496	-0.890023471	-0.280764
C	 0.0582199235	-2.0570065762	-0.3562822659	 0.051126
O	 0.4024523199	-2.1155695326	 1.0608132049	-0.323864
C	-0.2965875334	-0.882233872	 1.1904014466	 0.357796
C	-0.6463868582	-0.365477543	 2.4697303148	 0.19958
N	-0.939146534	 0.08411954	 3.4951199324	-0.351882
C	-1.0949690248	-1.0238117228	-0.0747494891	-0.233714
H	 0.8868191831	 1.9432658488	 0.3028235491	 0.139108
H	-0.2815257179	 1.9019379345	-1.02909683	 0.129159
H	-0.8440822793	 1.8549458702	 0.6493978127	 0.142647
H	 0.765497181	-0.720012992	-1.9571407408	 0.114446
H	 1.9967664198	-0.9391451622	-0.660663835	 0.114064
H	-0.0068849757	-3.0350035515	-0.8247652285	 0.104226
H	-2.1582783203	-0.9828650472	-0.2662861674	 0.122107
130.2487	149.1669	198.0429	264.9568	300.0695	430.202	493.596	515.2235	532.3799	582.6601	658.5147	744.4882	788.1352	806.2847	905.2176	913.1196	933.421	942.4137	980.5777	1017.8169	1075.7435	1081.3539	1125.2773	1151.9388	1166.1517	1229.4332	1243.0209	1280.2601	1349.1783	1392.3362	1423.9018	1483.8319	1485.9891	1496.2806	2349.0042	3032.9931	3055.4536	3097.7659	3107.5345	3118.1205	3166.6791	3216.0962
CC12CC3OC1(C#N)C23	C[C@@]12C[C@H]3O[C@]1(C#N)[C@@H]23	
InChI=1S/C7H7NO/c1-6-2-4-5(6)7(6,3-8)9-4/h4-5H,2H2,1H3	InChI=1S/C7H7NO/c1-6-2-4-5(6)7(6,3-8)9-4/h4-5H,2H2,1H3/t4-,5-,6+,7-/m1/s1
