17
gdb 54578	3.68769	1.41659	1.17073	3.033	72.59	-0.2407	0.018	0.2587	1047.2503	0.137655	-417.976739	-417.969286	-417.968341	-418.008748	29.346	
N	 0.2365187607	 0.7600845501	-0.9144437105	-0.545079
C	-0.0382610144	 0.0581965773	 0.2192865564	 0.28369
O	 0.6763192494	 0.0286615239	 1.2048048706	-0.366938
C	-1.3030209902	-0.7338276271	 0.1575567465	 0.284531
C	-2.0436208816	-1.3712551867	 1.3280408814	-0.294593
C	-2.8668192328	-2.1289870731	 0.2515132353	-0.096945
C	-3.5862748041	-0.9784644873	-0.4794406805	-0.151039
N	-2.2605794443	-0.4949750506	-0.9925314819	-0.201049
C	-1.6928439545	-1.8443269678	-0.7608780508	-0.084793
H	 1.0287960435	 1.3810404642	-0.9060749701	 0.257898
H	-0.4974162013	 0.8832960523	-1.5945735899	 0.269987
H	-1.3672584656	-2.0275798717	 1.8775870513	 0.129779
H	-2.5877054166	-0.7255174372	 2.0246800231	 0.102187
H	-3.3473074813	-3.0804721468	 0.4674138005	 0.083171
H	-4.1839154426	-1.3047296712	-1.3339452798	 0.114923
H	-4.1491827757	-0.253732611	 0.1197213476	 0.104899
H	-1.1327436487	-2.4153600773	-1.4897929492	 0.109369
74.9234	170.9311	190.183	363.9398	378.3775	422.5695	442.63	491.9522	614.7905	650.5795	709.797	749.0126	773.787	807.5936	864.5791	914.3865	942.9107	956.5167	975.3365	992.7435	1019.4053	1077.2572	1097.8473	1123.8361	1140.7396	1163.8052	1173.1848	1202.8757	1240.6808	1277.6988	1284.0587	1325.7776	1427.0773	1495.177	1514.0516	1596.9998	1791.4508	3039.2697	3055.2631	3109.3814	3130.8806	3144.4966	3205.0148	3578.7005	3721.226
NC(=O)C12CC3CN1C23	NC(=O)[C@@]12C[C@H]3CN1[C@@H]23	
InChI=1S/C6H8N2O/c7-5(9)6-1-3-2-8(6)4(3)6/h3-4H,1-2H2,(H2,7,9)	InChI=1S/C6H8N2O/c7-5(9)6-1-3-2-8(6)4(3)6/h3-4H,1-2H2,(H2,7,9)/t3-,4+,6-,8?/m0/s1
