20
gdb 102999	1.99316	1.39379	1.15094	4.2632	80.93	-0.2312	0.0293	0.2605	1211.7104	0.170536	-399.313831	-399.303511	-399.302567	-399.348822	37.309	
C	 0.0948503455	-0.8025237055	 1.1160164251	-0.345676
N	 0.320975943	-1.9347649654	 0.2099301382	-0.345209
C	 0.8497502362	-1.5700895853	-1.0765610349	 0.122443
C	 2.0858181464	-0.8110288015	-1.0800445293	 0.256861
N	 3.0784752897	-0.2159244338	-1.0441054925	-0.358813
C	 0.6309032992	-2.5444576678	-2.2456035663	-0.082335
C	 0.0293220278	-3.9116490246	-2.0172507997	-0.423969
C	-0.1763137189	-1.266734752	-2.1678103924	-0.01904
N	-1.5563672609	-1.1937175325	-1.7735094899	-0.522781
H	 1.0024422354	-0.2170600593	 1.3244899626	 0.130309
H	-0.649935081	-0.136701063	 0.6719088285	 0.150616
H	-0.3013309053	-1.18212475	 2.0616185705	 0.12221
H	 0.9225649947	-2.6229346243	 0.6502961625	 0.233314
H	 1.4370649338	-2.5248426726	-2.9738227176	 0.10627
H	-0.7625740067	-3.8894627871	-1.2674259345	 0.128116
H	-0.3938486199	-4.2961443863	-2.951631909	 0.124537
H	 0.7885937655	-4.6259736507	-1.6820508013	 0.126052
H	 0.1074628984	-0.4838873155	-2.8649802955	 0.115747
H	-2.1586063556	-1.5140925357	-2.525683038	 0.23476
H	-1.7137379872	-1.7949268871	-0.9709863164	 0.246589
95.2127	120.0418	130.7545	151.6509	166.9034	199.2019	217.2726	269.3105	318.9002	322.7446	442.4339	446.7148	568.3189	585.4356	613.6382	688.7133	752.2286	813.2883	857.4323	903.6173	967.818	1018.3118	1057.4394	1069.857	1100.7075	1132.7175	1155.0204	1164.5086	1184.0395	1229.1355	1271.0054	1310.2129	1385.9751	1416.0587	1437.4254	1458.0384	1474.1473	1489.7525	1495.8065	1504.4546	1522.0198	1635.9059	2332.3395	2998.5531	3038.9252	3086.0499	3093.8051	3125.8047	3134.1215	3148.4576	3157.8044	3495.6585	3521.5149	3579.5737
CNC1(C#N)C(C)C1N	CN[C@@]1(C#N)[C@@H](C)[C@H]1N	
InChI=1S/C6H11N3/c1-4-5(8)6(4,3-7)9-2/h4-5,9H,8H2,1-2H3	InChI=1S/C6H11N3/c1-4-5(8)6(4,3-7)9-2/h4-5,9H,8H2,1-2H3/t4-,5+,6-/m0/s1
