20
gdb 83088	2.44513	1.69055	1.45228	2.0257	77.77	-0.2418	0.0181	0.2598	1029.5316	0.17248	-403.149362	-403.14127	-403.140325	-403.181503	31.758	
C	-0.1012593049	 1.6384389406	-0.0147252992	-0.426198
C	 0.0553512078	 0.1288329969	 0.0266652788	 0.003026
C	 1.1255648465	-0.594560757	-0.8353450823	 0.090456
O	 2.3825149328	 0.1164033283	-0.7298340047	-0.237955
C	 2.6963236684	 0.3999419062	 0.5598545691	 0.091704
N	 1.993710975	 0.1087655733	 1.5745217699	-0.25187
C	 0.7571926922	-0.6019119327	 1.2247696165	-0.027991
C	 1.1216028609	-1.740689171	 0.2126650579	 0.01244
C	 0.0942846433	-2.8456924986	 0.0011667945	-0.431403
H	 0.8374939693	 2.1604276719	 0.1816740617	 0.133896
H	-0.4655558519	 1.9602069215	-0.9966003406	 0.11493
H	-0.8278122611	 1.9688811659	 0.7351703853	 0.119833
H	-0.9098448524	-0.3466854285	-0.1609514052	 0.083139
H	 0.971963964	-0.787465919	-1.8979001828	 0.079705
H	 3.6435990526	 0.9282199411	 0.6329238776	 0.12743
H	 0.1844188568	-0.8374771829	 2.1228369905	 0.067896
H	 2.1082417367	-2.178910201	 0.3886385526	 0.083897
H	-0.9152531195	-2.4649841307	-0.1786514489	 0.120851
H	 0.3684440977	-3.4697076193	-0.856700481	 0.120691
H	 0.0478984361	-3.4948944548	 0.8817667402	 0.125523
159.4523	172.7789	210.9191	231.0005	251.7912	256.2658	374.7385	448.6553	525.289	547.3664	633.5911	693.1721	815.9002	835.6704	846.9497	877.8569	920.165	947.4605	957.678	1019.4116	1046.2554	1055.1795	1083.4491	1104.2291	1131.4446	1147.4203	1149.7348	1184.7315	1227.1792	1254.4204	1274.3014	1312.25	1332.1746	1372.7174	1377.8309	1395.6769	1414.169	1420.0878	1491.6851	1495.6904	1496.9982	1500.0406	1696.8584	3032.7953	3036.8026	3063.3425	3078.7054	3094.6439	3095.5815	3096.9984	3105.9278	3109.7522	3128.9104	3175.8703
CC1C2OC=NC1C2C	C[C@H]1[C@H]2O[CH][N][C@@H]1[C@H]2C	
InChI=1S/C7H11NO/c1-4-6-5(2)7(4)9-3-8-6/h3-7H,1-2H3	InChI=1S/C7H11NO/c1-4-6-5(2)7(4)9-3-8-6/h3-7H,1-2H3/t4-,5-,6-,7+/m1/s1
