19
gdb 60290	3.34966	0.7237	0.66226	2.3874	80.68	-0.2637	0.0072	0.2709	1745.9324	0.156533	-419.224685	-419.214267	-419.213323	-419.261556	35.992	
C	 0.2607588643	 0.9661517598	-0.8879496184	-0.384196
C	-0.114894981	-0.2218809428	-0.0074037887	 0.118274
C	 0.4605253859	-0.1337500417	 1.3986820506	-0.388374
O	-1.5519031125	-0.2820901024	 0.1413728691	-0.211335
C	-2.2336375131	-0.93581867	-0.8039678317	 0.138862
N	-3.4972866294	-0.9275464013	-0.7906957297	-0.247848
C	-4.2305992374	-1.6689436491	-1.795863787	-0.239203
C	-3.4349270534	-2.3837959955	-2.8127928734	 0.230137
N	-2.768342687	-2.9253630484	-3.5866568371	-0.316336
H	 1.347489614	 1.0276606446	-1.0003856609	 0.124416
H	-0.1787887936	 0.8723648958	-1.885480856	 0.126435
H	-0.0967235807	 1.8984049821	-0.4403608849	 0.134262
H	 0.2195814715	-1.1545409252	-0.4824651068	 0.094465
H	 0.1094699106	 0.7741417448	 1.8981540625	 0.134018
H	 0.1545494311	-0.9960530766	 1.9962516864	 0.130493
H	 1.5530992184	-0.1063558145	 1.3578824227	 0.122565
H	-1.6149054437	-1.4644162662	-1.541801702	 0.110241
H	-4.8772572134	-2.4022213368	-1.2974710982	 0.161691
H	-4.9077636906	-0.9826088768	-2.3197005865	 0.161432
27.3604	64.5723	91.3621	164.0198	185.3269	213.4673	252.0886	267.2379	311.4809	352.4974	374.7937	434.8866	489.7352	523.3354	670.6787	855.1899	900.9096	932.9297	946.9117	955.9336	967.8525	1029.4345	1043.6849	1145.0597	1159.89	1202.6791	1266.3219	1280.8736	1348.7703	1365.0429	1374.8187	1403.5211	1419.7504	1439.2007	1467.7427	1480.0904	1484.7409	1493.5373	1507.8335	1765.7888	2348.745	3010.6098	3028.87	3034.3114	3040.0878	3047.7977	3053.7032	3114.3125	3117.7257	3124.7441	3127.8789
CC(C)OC=NCC#N	CC(C)OC=NCC#N	
InChI=1S/C6H10N2O/c1-6(2)9-5-8-4-3-7/h5-6H,4H2,1-2H3	InChI=1S/C6H10N2O/c1-6(2)9-5-8-4-3-7/h5-6H,4H2,1-2H3
