13
gdb 48068	2.01855	1.70016	1.29859	2.1174	60.16	-0.2618	-0.113	0.1488	1003.0429	0.084643	-493.684924	-493.676107	-493.675163	-493.719371	29.564	
O	-0.7474323298	 1.4398181381	 0.2669151112	-0.2126
C	 0.3662751379	 1.0344689809	 0.4603706717	 0.098097
C	 1.6038371884	 1.9254178656	 0.3036549434	 0.246623
O	 2.7016962876	 1.429661739	 0.2931322338	-0.263453
C	 1.3383216359	 3.402321289	 0.058346087	 0.219984
C	 2.3562723038	 4.1835335321	-0.6715000712	-0.212397
O	 1.1727089828	 3.7402518177	-1.324198297	-0.251899
C	 0.4468224722	 4.1069118168	 1.0316046765	 0.104122
O	 0.2938343158	 3.7198731237	 2.1612161996	-0.252917
H	 0.6103716991	-0.0149192836	 0.7203302574	 0.123673
H	 2.4232046833	 5.2574065524	-0.5067405596	 0.138319
H	 3.2761773012	 3.6736084974	-0.9469559919	 0.157102
H	-0.0332985882	 5.0227014308	 0.6265024789	 0.105346
49.7702	116.7636	134.106	146.9378	150.0308	257.2515	301.3021	345.5578	480.4655	486.9336	592.7135	662.5907	685.4747	881.0386	898.9983	916.501	1015.6982	1041.489	1128.614	1139.8832	1169.5783	1286.6472	1342.8012	1363.274	1415.1087	1513.9336	1809.2864	1822.6847	1830.451	2919.8422	2948.7892	3099.2551	3200.2606
O=CC(=O)C1(CO1)C=O	O=CC(=O)[C@]1(CO1)C=O	
InChI=1S/C5H4O4/c6-1-4(8)5(2-7)3-9-5/h1-2H,3H2	InChI=1S/C5H4O4/c6-1-4(8)5(2-7)3-9-5/h1-2H,3H2/t5-/m1/s1
