18
gdb 89602	4.28382	0.93588	0.90454	2.5708	77.35	-0.2389	0.0412	0.2801	1323.7226	0.146703	-401.866174	-401.857537	-401.856593	-401.899788	33.145	
O	-0.0880859768	 1.4475783738	-0.1263594273	-0.43642
C	-0.0188211777	 0.0520000652	-0.1031558139	 0.163204
C	 0.4686551496	-0.6546655076	 1.2248139203	-0.312262
C	-0.9058722339	-1.3236220487	 1.3186810332	 0.370705
C	-1.226178309	-2.6763584965	 1.9014931763	-0.49091
C	-1.1475216252	-2.705248492	 3.3607949361	 0.314502
C	-1.0736301922	-2.7123109456	 4.5598205469	-0.44582
N	-1.8799503728	-0.2042287928	 1.3535030287	-0.384215
C	-1.3557925937	-0.6932725339	 0.0470615543	-0.162464
H	-0.7265272696	 1.6815477613	 0.5619508906	 0.290096
H	 0.5594601661	-0.2615579241	-0.9747725756	 0.089809
H	 1.2823480102	-1.3618511621	 1.0448766592	 0.103061
H	 0.7300309343	 0.0122866788	 2.0491549055	 0.10997
H	-2.2303829446	-2.984017892	 1.578879712	 0.127926
H	-0.532429955	-3.4190131307	 1.4854017771	 0.139246
H	-1.0111705595	-2.7208756094	 5.6197945498	 0.200363
H	-2.8113204065	-0.5990695723	 1.4786599119	 0.231011
H	-2.0340056638	-1.0460785613	-0.7214450551	 0.092201
59.743	84.0399	159.2441	248.4924	318.9101	349.5038	398.8719	411.2635	444.8587	522.1077	626.7733	628.4776	646.5094	677.0687	711.2725	824.3595	876.8703	891.6944	925.0297	942.1184	982.8608	985.9725	1004.4574	1057.5795	1110.5074	1121.0054	1146.5605	1187.272	1208.5572	1247.4618	1282.9646	1307.8263	1335.9301	1365.5831	1425.9502	1446.8533	1458.825	1479.0414	2241.7667	3009.784	3042.8449	3064.6525	3093.8506	3126.8836	3180.8462	3480.1348	3505.6377	3746.4766
OC1CC2(CC#C)NC12	O[C@H]1C[C@@]2(CC#C)N[C@@H]12	
InChI=1S/C7H9NO/c1-2-3-7-4-5(9)6(7)8-7/h1,5-6,8-9H,3-4H2	InChI=1S/C7H9NO/c1-2-3-7-4-5(9)6(7)8-7/h1,5-6,8-9H,3-4H2/t5-,6-,7+/m0/s1
