16
gdb 67176	3.01866	1.57362	1.50675	2.2159	70.08	-0.2221	0.0132	0.2353	939.0598	0.127449	-434.020806	-434.013921	-434.012977	-434.05185	27.983	
N	-0.2153551877	 1.4502608526	 0.062002414	-0.624559
C	 0.0000251251	 0.0597916382	-0.0129439385	 0.273405
C	-0.9774893388	-1.1039562299	 0.0589138971	-0.093776
N	-0.3874969814	-1.7450493029	-1.1098517086	-0.303912
C	 0.8166508975	-0.849658795	-1.0056089074	-0.167118
C	 1.8278956813	-1.5298690856	-0.1230018629	 0.415456
N	 2.9678525271	-1.9626625393	-0.4502503565	-0.553067
O	 1.2487431773	-1.6664448251	 1.1234463205	-0.246121
C	 0.0725715737	-0.8753779125	 1.1492533001	 0.040314
H	 0.6251765555	 1.9545982553	 0.3250132955	 0.241144
H	-0.5548812735	 1.8309880316	-0.8149384986	 0.242222
H	-2.0428452966	-1.1302010808	 0.2586824358	 0.104953
H	-0.1680223023	-2.7334362224	-0.9829032577	 0.228524
H	 1.1996962051	-0.4715359522	-1.9511504103	 0.097794
H	 3.4234373952	-2.4160823195	 0.3443189505	 0.223841
H	-0.2231278576	-0.5707226426	 2.1440995872	 0.1209
131.8561	229.7949	307.1994	345.567	357.1828	433.7529	537.2055	590.4679	630.8907	719.2908	739.5219	785.8589	796.9228	843.7203	874.4334	896.6329	908.8948	942.3708	971.2877	1024.1513	1041.37	1063.8635	1081.3477	1115.386	1147.4085	1184.7982	1238.4982	1259.3525	1278.4851	1289.4049	1345.0934	1370.0721	1489.9239	1659.5913	1773.9098	3142.8557	3180.1633	3218.5142	3449.2703	3466.467	3500.5848	3580.1371
NC12C3NC1C(=N)OC23	N[C@@]12[C@H]3N[C@@H]1[C]([NH])O[C@@H]23	
InChI=1S/C5H7N3O/c6-4-2-5(7)1(8-2)3(5)9-4/h1-3,6,8H,7H2	InChI=1S/C5H7N3O/c6-4-2-5(7)1(8-2)3(5)9-4/h1-3,6,8H,7H2/t1-,2+,3+,5-/m0/s1
