15
gdb 42492	6.27235	0.57413	0.53111	2.69	71.87	-0.3115	-0.0992	0.2124	1890.2107	0.110734	-416.844746	-416.835237	-416.834293	-416.880812	31.705	
O	-0.1573657563	-0.0850913425	 0.0024642461	-0.254406
C	-0.0553300853	 1.1144076169	 0.0063298165	 0.28669
C	 1.2505631091	 1.8776560539	-0.001653285	-0.316828
C	 2.4725451473	 0.9604595764	-0.016984241	-0.189896
C	 3.7828206595	 1.7710605	-0.0243636385	-0.352536
C	 4.9659235913	 0.9132529225	-0.0392305988	 0.261233
N	 5.8923654464	 0.2232860918	-0.0507971113	-0.293259
C	-1.2643491159	 1.9679763114	 0.0200316081	 0.232425
N	-2.1967152112	 2.651659236	 0.0304809057	-0.288134
H	 1.2340081609	 2.5516161807	-0.8703092107	 0.153185
H	 1.2494990906	 2.5428628266	 0.8739119466	 0.153218
H	 2.4510654913	 0.3006446701	 0.8546951441	 0.146854
H	 2.4357957604	 0.3095364485	-0.8948261381	 0.146815
H	 3.8221904578	 2.4293935283	-0.9005080298	 0.157318
H	 3.8376449041	 2.4204242494	 0.8576476761	 0.157321
39.9373	78.199	79.7776	115.2853	148.0663	250.386	275.1625	307.1784	398.0223	448.9916	564.4178	573.8818	613.723	741.1841	815.9838	853.2317	952.8242	1025.9684	1049.7839	1074.7091	1099.7759	1170.8128	1275.7347	1290.7874	1323.1029	1363.2302	1401.8217	1443.5037	1469.6148	1494.7841	1802.916	2338.8852	2366.934	3015.0102	3037.1092	3043.6105	3072.038	3072.6167	3117.4015
O=C(CCCC#N)C#N	O=C(CCCC#N)C#N	
InChI=1S/C6H6N2O/c7-4-2-1-3-6(9)5-8/h1-3H2	InChI=1S/C6H6N2O/c7-4-2-1-3-6(9)5-8/h1-3H2
