16
gdb 24630	4.2923	1.37169	1.133	2.4473	77.06	-0.2159	0.0294	0.2453	1053.8502	0.127404	-396.897302	-396.890331	-396.889387	-396.929061	26.778	
C	 0.1242947589	 1.5462386258	-0.0411918021	-0.298496
N	 1.3103589904	 0.6669749828	-0.0667988587	-0.357502
C	-0.0131166703	 0.0758851018	 0.0239742714	 0.176708
C	-0.4829801662	-0.8671429927	 1.1842449039	-0.231138
N	-1.0946947356	-1.6876374651	 0.1123493355	-0.006571
C	-1.8630698667	-2.6896214224	-0.4260810692	-0.170679
C	-1.8528469021	-2.4036232832	-1.7813611163	-0.093834
N	-1.1287148223	-1.2588424019	-2.0820510847	-0.385845
C	-0.7057513518	-0.8814146658	-0.8999822784	 0.335571
H	 0.022693977	 2.145546116	 0.8594568281	 0.126582
H	-0.1931158729	 2.0354833682	-0.9580659562	 0.13511
H	 1.6737569557	 0.5713177228	-1.0120537769	 0.250502
H	 0.3241716136	-1.3692453019	 1.7219176747	 0.142047
H	-1.209313726	-0.4420935256	 1.8814226122	 0.135231
H	-2.3134785221	-3.4843754064	 0.1430760316	 0.133616
H	-2.3321999396	-2.9725310224	-2.5643494949	 0.108699
75.2775	143.5841	228.071	292.4837	441.7537	517.9146	523.4687	621.2483	723.7876	730.9124	750.3362	817.6798	834.7869	856.0355	918.6421	957.38	975.9378	1017.4856	1045.542	1070.7395	1094.5303	1129.2175	1138.6672	1149.9014	1238.7168	1241.9971	1259.4811	1277.6282	1368.4029	1404.5475	1457.8379	1465.5803	1507.3478	1516.7633	1589.2943	3065.7225	3109.4958	3127.8493	3198.043	3245.2634	3288.5792	3505.9185
C1NC11CN2C=CN=C12	C1N[C@]21Cn1ccnc21	
InChI=1S/C6H7N3/c1-2-9-4-6(3-8-6)5(9)7-1/h1-2,8H,3-4H2	InChI=1S/C6H7N3/c1-2-9-4-6(3-8-6)5(9)7-1/h1-2,8H,3-4H2/t6-/m1/s1
