18
gdb 14758	4.88181	0.78298	0.70023	4.8273	70.69	-0.2448	0.0262	0.271	1577.0161	0.153057	-381.107862	-381.098474	-381.09753	-381.143123	31.694	
C	-0.1424403126	 1.3266089659	 0.0045498596	-0.228124
O	-0.02148195	-0.0772931109	-0.0117522174	-0.238429
C	 0.6799034485	-0.5635910735	-1.1380694496	-0.068837
C	 0.6415938019	-2.0811721498	-1.0815353774	-0.140752
N	-0.7404947672	-2.539288008	-1.1669633649	-0.295948
C	-0.8729108442	-3.9731117246	-0.9584312321	-0.259284
C	-2.2777384193	-4.388958454	-1.0119348945	 0.258802
N	-3.3844542567	-4.7184021142	-1.0328426842	-0.299194
H	 0.8422711696	 1.8180548889	 0.0384448203	 0.10769
H	-0.6829846418	 1.698688493	-0.8792653306	 0.111531
H	-0.702736714	 1.5960330681	 0.9027852307	 0.131783
H	 0.2055808278	-0.2118300024	-2.068060415	 0.102374
H	 1.7236319798	-0.2097206605	-1.1312427087	 0.091394
H	 1.2084041296	-2.4867451774	-1.9292536214	 0.107779
H	 1.1490368286	-2.4151997147	-0.1578443357	 0.092787
H	-1.2850686439	-2.0347165731	-0.4743496295	 0.242661
H	-0.3300234594	-4.50072192	-1.7534583973	 0.152991
H	-0.4486884368	-4.3339808826	-0.0024014022	 0.130776
55.7481	82.7869	91.5279	132.6931	168.4897	236.9074	276.35	319.1498	343.6311	394.776	532.5717	576.27	802.5541	855.3597	915.8616	954.1211	996.9738	1039.0683	1123.4344	1130.2301	1151.2324	1171.2608	1187.7775	1210.4719	1250.9809	1265.8947	1303.8055	1355.3639	1402.9713	1429.2325	1479.4325	1486.897	1488.2543	1493.7146	1500.4249	1507.5846	1524.0727	2368.861	2928.9415	2937.0111	2966.855	2979.5873	3007.7469	3024.2021	3040.4648	3045.6773	3119.1046	3528.0526
COCCNCC#N	COCCNCC#N	
InChI=1S/C5H10N2O/c1-8-5-4-7-3-2-6/h7H,3-5H2,1H3	InChI=1S/C5H10N2O/c1-8-5-4-7-3-2-6/h7H,3-5H2,1H3
