17
gdb 27544	5.28086	0.93524	0.83626	2.643	76.28	-0.1898	0.033	0.2228	1354.0962	0.137619	-418.000163	-417.991915	-417.990971	-418.033721	30.896	
N	 0.0609060931	 1.3908196726	-0.2581551458	-0.593125
C	-0.0787936163	 0.0187162198	-0.1129868294	 0.403627
C	-1.1508531392	-0.822254749	-0.0931218776	-0.396555
C	-0.6044891008	-2.1566789559	-0.0273135027	 0.281819
C	 0.7444821765	-2.0102636609	-0.0001174163	-0.148259
O	 1.0808050032	-0.6762583559	-0.0590034923	-0.178815
C	-1.3749791153	-3.4198739832	 0.0263964197	-0.124441
C	-1.7658001725	-4.1295583593	-1.2238610026	-0.228127
N	-0.7546515543	-4.7091361415	-0.3221331283	-0.321242
H	 0.8916088202	 1.7482896165	 0.1964377342	 0.256633
H	-0.7590289123	 1.90170779	 0.0376675275	 0.256759
H	-2.1921964909	-0.5458906915	-0.1349784024	 0.097429
H	 1.5723804781	-2.6916469041	 0.0920841347	 0.132218
H	-2.060870125	-3.4982010909	 0.8686416051	 0.100113
H	-2.7060285312	-4.6721313233	-1.2684523844	 0.116279
H	-1.4356334483	-3.7005542844	-2.1657234194	 0.115254
H	 0.1679347052	-4.5415318589	-0.71669777	 0.230434
39.8003	127.1489	165.8923	191.9746	271.8287	353.6203	413.4556	474.5823	596.1644	638.5097	663.7344	679.3069	714.714	745.973	762.6125	842.3671	876.312	958.2898	965.8695	987.5597	1014.9447	1084.2116	1103.6595	1137.0838	1151.2072	1170.2592	1198.2328	1252.5883	1271.7336	1293.0119	1310.7952	1412.5046	1454.8491	1506.2298	1606.7123	1634.5868	1672.2998	3109.3162	3113.5239	3199.1541	3258.4046	3286.6603	3499.2309	3547.6136	3649.4254
NC1=CC(=CO1)C1CN1	Nc1cc(co1)[C@H]1CN1	
InChI=1S/C6H8N2O/c7-6-1-4(3-9-6)5-2-8-5/h1,3,5,8H,2,7H2	InChI=1S/C6H8N2O/c7-6-1-4(3-9-6)5-2-8-5/h1,3,5,8H,2,7H2/t5-/m1/s1
