24
gdb 6416	2.60461	1.29502	1.0344	0.9905	82.38	-0.2428	0.0807	0.3235	1306.1697	0.220166	-351.420189	-351.409388	-351.408443	-351.456014	39.115	
C	-0.3114106069	 1.5807058022	-0.3022545459	-0.385208
C	 0.3593084917	 0.2178099239	-0.1214390736	-0.170161
C	 1.02074851	-0.3123339411	-1.396265751	 0.1504
C	 1.7685947922	-1.6255278385	-1.1472732989	-0.397013
O	-0.0130812879	-0.4945176104	-2.3604496587	-0.274306
C	 0.3793672406	-0.4356559091	-3.7294455991	 0.151662
C	-0.6332403273	-1.2664746238	-4.511616643	-0.386177
C	 0.4396187013	 1.0129608338	-4.2235429361	-0.384807
H	 0.4186502929	 2.3478523717	-0.5852761283	 0.106067
H	-1.0688797275	 1.531366778	-1.0882008039	 0.130139
H	-0.795646768	 1.9089904165	 0.6225296006	 0.107232
H	 1.1206317742	 0.2715893582	 0.6662197737	 0.089864
H	-0.3813446321	-0.5221728283	 0.2070902919	 0.101431
H	 1.7354312984	 0.4444793386	-1.7594582955	 0.060829
H	 1.0817350693	-2.3813769926	-0.7531344304	 0.120259
H	 2.2110815259	-2.0160908122	-2.0686123612	 0.112957
H	 2.5781406353	-1.4807514389	-0.4242119965	 0.109756
H	 1.3749659619	-0.8916801614	-3.8465112708	 0.0644
H	-0.6397482495	-2.2992836667	-4.1533915471	 0.117531
H	-1.6389852433	-0.8542589363	-4.3805661357	 0.121584
H	-0.3962159704	-1.2661776521	-5.579904127	 0.10893
H	 1.1460067557	 1.6080218115	-3.6370883701	 0.114562
H	 0.7586520721	 1.0522157733	-5.2704455161	 0.109629
H	-0.5474042585	 1.4798798235	-4.1444893073	 0.120438
47.3465	75.858	114.5322	176.1361	214.6896	223.4404	226.6638	242.5803	258.662	325.1673	380.5539	416.701	470.1498	476.786	509.724	760.4719	827.4571	838.0528	898.3611	925.4903	941.8588	964.5095	988.0902	1021.7868	1060.6457	1124.3088	1139.6203	1143.139	1172.8493	1190.2633	1211.8091	1299.7777	1327.1483	1357.4414	1365.2478	1391.4125	1395.6234	1402.1275	1405.1317	1412.5234	1419.1697	1474.1839	1480.062	1484.1488	1490.7793	1493.111	1494.7984	1497.8349	1507.2039	1512.0652	2964.5324	2980.695	3025.4388	3033.1923	3034.1871	3035.5278	3040.8975	3063.4448	3097.4041	3103.8052	3104.9332	3109.0348	3110.6469	3114.7197	3120.6115	3125.3362
CCC(C)OC(C)C	CC[C@@H](C)OC(C)C	
InChI=1S/C7H16O/c1-5-7(4)8-6(2)3/h6-7H,5H2,1-4H3	InChI=1S/C7H16O/c1-5-7(4)8-6(2)3/h6-7H,5H2,1-4H3/t7-/m1/s1
