17
gdb 84774	2.29432	1.53082	1.25433	3.8407	73.53	-0.2661	-0.0034	0.2627	1061.7042	0.137192	-418.021102	-418.012644	-418.011699	-418.054215	32.216	
N	-0.2088672723	 1.3101945196	 0.3876447044	-0.542839
C	 0.0116943105	-0.0928458859	 0.0228618437	 0.085698
C	 0.7543180245	-0.822282957	 1.1851565085	-0.284686
C	-0.3287632462	-1.6124643417	 1.8704853859	-0.060612
C	-1.4761028717	-1.6084972304	 1.200445522	-0.112454
C	-1.4149312232	-0.7970210194	-0.0688618506	 0.081645
O	-2.4735623152	 0.1217414699	-0.2218275807	-0.426435
C	 0.7467270262	-0.2247405462	-1.2483735146	 0.232937
N	 1.3209153771	-0.2961672435	-2.2502571348	-0.351044
H	 0.6832412826	 1.779516875	 0.5120602157	 0.243907
H	-0.692582533	 1.7811910725	-0.3719380561	 0.251397
H	 1.5465524999	-1.4759262815	 0.803000612	 0.135778
H	 1.2348159681	-0.0961757499	 1.8506963211	 0.119123
H	-0.1458701644	-2.141427767	 2.7991571278	 0.108885
H	-2.3875388861	-2.1207357704	 1.485639967	 0.11131
H	-1.4614290935	-1.4333368071	-0.9586492686	 0.119008
H	-2.4529128034	 0.6929748929	 0.5569875773	 0.288381
58.981	150.1495	188.5819	246.5086	265.1506	321.1674	395.5782	419.6054	493.1366	549.1821	549.8465	583.346	617.907	727.8355	756.1654	815.0033	898.2634	932.4661	958.3994	975.8161	990.8926	1031.6279	1072.373	1097.296	1141.7027	1151.4456	1228.5129	1277.0827	1299.347	1307.1147	1337.7166	1365.8987	1441.2772	1475.8432	1644.2477	1698.2772	2338.8447	3036.9629	3060.552	3071.3649	3190.2149	3215.6583	3494.9129	3576.4688	3771.6762
NC1(CC=CC1O)C#N	N[C@]1(CC=C[C@H]1O)C#N	
InChI=1S/C6H8N2O/c7-4-6(8)3-1-2-5(6)9/h1-2,5,9H,3,8H2	InChI=1S/C6H8N2O/c7-4-6(8)3-1-2-5(6)9/h1-2,5,9H,3,8H2/t5-,6-/m1/s1
