20
gdb 5876	4.19223	0.91679	0.90378	3.1944	72.79	-0.2472	-0.0169	0.2303	1357.1516	0.173126	-386.159601	-386.149668	-386.148724	-386.194555	35.778	
C	-0.0955365265	 1.5443926983	-0.0425965864	-0.422984
C	 0.0185226079	 0.0161546532	 0.0335007072	 0.342435
C	 0.5893793329	-0.4129538349	 1.3876062543	-0.390781
O	-1.2878300285	-0.5707775385	-0.0255793942	-0.452244
C	 0.87751027	-0.5004544134	-1.1454582627	-0.217395
C	 0.9805369172	-2.0323421273	-1.2240426439	-0.278881
C	 1.4756074386	-2.4916350165	-2.573344613	 0.158995
O	 2.4250960004	-3.2073210408	-2.7620703859	-0.240519
H	 0.8841621412	 2.0235042783	 0.0502215892	 0.119568
H	-0.5264936621	 1.8566501738	-1.001875028	 0.103688
H	-0.740162776	 1.9153907912	 0.7591412349	 0.124937
H	-0.0209864513	-0.0037057061	 2.1971095329	 0.121925
H	 0.5873714369	-1.5012076629	 1.4842181621	 0.128018
H	 1.6155543172	-0.0538784159	 1.5088051186	 0.113869
H	-1.745420175	-0.1997501342	-0.7881249452	 0.276223
H	 0.4293224752	-0.1238473941	-2.0767682343	 0.085684
H	 1.8791048495	-0.0580597223	-1.0884650687	 0.109486
H	 1.6367449894	-2.4469428143	-0.4552701757	 0.12128
H	-0.0288533284	-2.4420443293	-1.0781430117	 0.133379
H	 0.8745837813	-2.1042094143	-3.4320808195	 0.063316
59.3571	75.3915	116.4512	182.009	211.6671	262.878	294.8282	320.2343	336.033	347.1728	413.2453	452.8431	515.6763	549.4466	763.4569	772.0379	842.2549	913.3348	934.2247	962.2901	996.6862	1018.5151	1065.9842	1078.8247	1143.7426	1184.674	1225.3953	1237.7912	1263.7299	1312.4388	1367.3185	1385.5017	1404.5888	1421.2374	1431.7694	1463.7376	1477.4487	1486.0292	1489.9815	1500.4082	1509.5698	1836.5125	2834.527	3000.3997	3025.2703	3026.1236	3047.9209	3059.737	3093.8053	3112.4206	3115.6732	3122.7425	3128.0149	3799.9699
CC(C)(O)CCC=O	CC(C)(O)CCC=O	
InChI=1S/C6H12O2/c1-6(2,8)4-3-5-7/h5,8H,3-4H2,1-2H3	InChI=1S/C6H12O2/c1-6(2,8)4-3-5-7/h5,8H,3-4H2,1-2H3
