23
gdb 95289	2.04635	1.76708	1.35023	1.5051	84.04	-0.238	0.075	0.3131	1112.6339	0.20646	-388.297864	-388.288933	-388.287989	-388.331105	35.094	
C	-0.0836119045	 1.5636262244	-0.0663927303	-0.419286
C	 0.0861930395	 0.0476786983	 0.0069230815	-0.028464
C	 0.9568187772	-0.5571537327	-1.1051745869	-0.109084
O	 1.3106606748	-1.8581418329	-0.6518735253	-0.263277
C	 1.4775438162	-1.804861947	 0.7555270996	 0.074938
C	 2.8394975408	-1.2445605703	 1.2491743665	-0.238838
C	 2.1457678314	 0.0824924493	 1.663243385	-0.289215
C	 0.7490005048	-0.519791058	 1.281516443	 0.331448
C	-0.2084594938	-0.6929223425	 2.4511429971	-0.486654
H	 0.878208667	 2.0848078216	-0.0266682873	 0.118289
H	-0.5776289899	 1.8565636295	-0.9989775216	 0.116469
H	-0.6985475051	 1.9349343354	 0.7598246047	 0.118086
H	-0.905866769	-0.4181192516	-0.0674742214	 0.07468
H	 0.4365049891	-0.6646109005	-2.0613470008	 0.105879
H	 1.8538593909	 0.0622955369	-1.2763378977	 0.08389
H	 1.1785803914	-2.7760183293	 1.1598498733	 0.069706
H	 3.2659610739	-1.8061144978	 2.0841833367	 0.099052
H	 3.5940861391	-1.1685901083	 0.4625902661	 0.10502
H	 2.2406094977	 0.3470279492	 2.7193567198	 0.096983
H	 2.4489412697	 0.9511391025	 1.0737782728	 0.09692
H	-0.5959770825	 0.2737495888	 2.7945329861	 0.115543
H	-1.0648620842	-1.317392665	 2.17228534	 0.115797
H	 0.2874080957	-1.1662866499	 3.305802719	 0.112121
69.8381	168.7392	197.2836	227.895	248.2313	256.9069	305.8915	360.296	420.3523	502.453	540.6881	616.421	646.4342	737.2006	817.5143	837.0184	890.4667	902.8213	923.6613	957.773	962.1912	988.0452	1004.7629	1053.5427	1066.0604	1096.5519	1145.4441	1155.5749	1175.0496	1190.2625	1217.8613	1227.4197	1249.6471	1265.0021	1275.5456	1288.4305	1326.646	1361.766	1364.8108	1399.529	1408.8779	1416.0966	1468.7144	1488.3793	1492.8039	1495.3034	1497.9405	1503.1323	1520.9128	2957.6818	3012.179	3018.6809	3033.7283	3057.8258	3061.4804	3070.4545	3082.2042	3083.0522	3089.5811	3096.4122	3100.3519	3105.5849	3121.9919
CC1COC2CCC12C	C[C@H]1CO[C@H]2CC[C@@]12C	
InChI=1S/C8H14O/c1-6-5-9-7-3-4-8(6,7)2/h6-7H,3-5H2,1-2H3	InChI=1S/C8H14O/c1-6-5-9-7-3-4-8(6,7)2/h6-7H,3-5H2,1-2H3/t6-,7-,8-/m0/s1
