20
gdb 114274	4.19119	1.08995	1.02894	1.5094	80.99	-0.2075	0.0514	0.2589	1219.4882	0.171372	-402.976463	-402.96841	-402.967466	-403.009045	31.837	
O	-0.1053045254	 1.5566834224	 0.0150449382	-0.423412
C	 0.0983323373	 0.1474174152	 0.0037004901	-0.109459
C	-1.2828279235	-0.4849023729	-0.0331315872	-0.006436
C	-2.0566497415	-0.5347153236	-1.434058726	-0.354218
C	-1.8663707127	-2.0724105394	-1.3568991106	 0.251009
C	-2.2772688907	-3.5676834008	-1.1360156102	-0.250843
N	-0.9637530849	-3.4402395702	-0.2910710191	-0.181262
C	-0.4441266014	-2.6681810259	-1.5037946305	-0.185418
C	-1.6007532865	-2.0418007398	 0.1164968856	-0.013072
H	 0.7544321988	 1.9845841908	-0.0394280128	 0.286925
H	 0.7060300692	-0.1412011269	-0.8642251249	 0.088388
H	 0.6283671109	-0.1891975191	 0.9089581968	 0.097714
H	-1.8645875817	 0.0433223303	 0.7276571498	 0.100948
H	-3.0900869963	-0.1948043075	-1.3331891771	 0.111196
H	-1.5896949777	-0.0152718867	-2.2755946256	 0.10754
H	-3.1700081718	-3.7593950276	-0.5357971375	 0.107144
H	-2.1709545379	-4.2915146327	-1.9502771523	 0.102768
H	-0.2515006469	-3.2991277962	-2.3770594422	 0.09329
H	 0.4273664794	-2.0537446424	-1.2807340025	 0.100942
H	-2.4186370469	-2.2018981371	 0.8228241681	 0.076257
81.5182	159.0968	171.6938	256.7773	305.3714	353.6668	396.7138	433.9864	583.6829	599.1706	676.3162	762.7786	781.9634	816.5233	859.2049	865.8758	897.4844	927.4131	963.9034	987.1974	1004.6848	1054.0667	1065.6265	1071.0591	1078.0484	1149.1822	1156.6197	1172.9563	1185.2794	1193.0315	1215.0543	1216.6055	1240.5123	1261.145	1270.1419	1288.505	1344.3612	1368.7103	1455.7172	1474.391	1507.1152	1519.0126	1547.1194	2975.9392	3018.4982	3043.5206	3055.2764	3058.9606	3063.5666	3080.6757	3118.5791	3121.6569	3141.8736	3825.7133
OCC1CC23CN(C2)C13	OC[C@H]1C[C@@]23CN(C2)[C@@H]13	
InChI=1S/C7H11NO/c9-2-5-1-7-3-8(4-7)6(5)7/h5-6,9H,1-4H2	InChI=1S/C7H11NO/c9-2-5-1-7-3-8(4-7)6(5)7/h5-6,9H,1-4H2/t5-,6+/m1/s1
