21
gdb 99317	5.66843	0.58324	0.55666	3.0285	79.91	-0.2635	-0.0232	0.2402	1998.8993	0.180408	-424.23157	-424.221431	-424.220487	-424.26875	36.046	
O	 0.2063664136	 1.3144377898	 0.0974614481	-0.420382
C	 0.0603812076	-0.0733897651	 0.0809494882	-0.125342
C	-1.4086922726	-0.4772724272	 0.0027734615	 0.346384
O	-2.2488514569	 0.3942643078	-0.0883529127	-0.318956
C	-1.7459230286	-1.9519592677	 0.0513248006	-0.2988
C	-3.2108130836	-2.2678510661	-0.2671907225	-0.204469
C	-3.5266240458	-3.7426662862	-0.144024069	 0.027742
C	-3.8600315436	-4.3400044986	 1.2020702432	-0.258035
C	-4.9316711147	-4.2001300945	 0.147883915	-0.27653
H	-0.6968494957	 1.6592372322	 0.0042657277	 0.29347
H	 0.580588969	-0.5248587356	-0.7816539328	 0.112195
H	 0.5036429676	-0.5327887807	 0.9796334615	 0.112973
H	-1.0659645618	-2.4880872742	-0.6247134771	 0.120892
H	-1.4883008721	-2.3131957795	 1.057614661	 0.135416
H	-3.8532206241	-1.6909465707	 0.4068340203	 0.114304
H	-3.4440735471	-1.9129787051	-1.2781988239	 0.110383
H	-2.953025121	-4.382315733	-0.8115203254	 0.080043
H	-3.4935924921	-5.3331635243	 1.4369687247	 0.111551
H	-3.9039916215	-3.6710261891	 2.056031926	 0.110255
H	-5.6896986158	-3.4379613806	 0.2961402741	 0.114389
H	-5.2955527507	-5.0978660516	-0.3393324884	 0.112519
22.1222	52.0146	96.6042	108.0134	125.1782	233.5922	274.6768	353.4154	381.9088	408.2532	463.0937	491.2901	688.7483	728.5887	776.8172	813.2837	833.6821	862.2787	914.937	936.4193	964.3386	1026.9667	1045.7739	1062.7494	1080.3039	1095.6449	1138.7336	1142.4926	1154.2646	1198.9968	1221.9169	1230.5101	1256.5487	1290.4782	1313.6765	1325.5913	1384.5345	1419.984	1448.0328	1453.6978	1469.874	1485.9555	1493.6166	1508.1155	1792.3772	2963.4209	2986.9801	3015.3141	3037.7583	3044.3734	3079.6059	3127.0228	3127.8941	3134.2548	3206.2519	3221.7844	3675.2315
OCC(=O)CCC1CC1	OCC(=O)CCC1CC1	
InChI=1S/C7H12O2/c8-5-7(9)4-3-6-1-2-6/h6,8H,1-5H2	InChI=1S/C7H12O2/c8-5-7(9)4-3-6-1-2-6/h6,8H,1-5H2
