14
gdb 12214	3.38495	1.57044	1.28693	3.2802	60.34	-0.2589	-0.0608	0.198	951.9905	0.103812	-419.679045	-419.671035	-419.670091	-419.712178	27.577	
C	-0.7667150618	 1.2476155309	-0.38886983	-0.403983
C	-0.0964276917	-0.0750932055	-0.0686283352	 0.036127
O	 1.0834559853	-0.348256823	-0.8738448429	-0.303005
C	 1.9675916939	-0.4836078036	 0.2482564921	-0.076677
C	 3.1179565591	 0.5048872564	 0.2348584429	 0.129066
O	 4.042768883	 0.4569063935	 0.9995111202	-0.22421
C	 0.7776276854	-0.1457599296	 1.1921534008	 0.315866
O	 0.6251381975	 0.0077303057	 2.3598617781	-0.248228
H	-0.0637010436	 2.0800180478	-0.2947519893	 0.130624
H	-1.1524325187	 1.2329178208	-1.4120439209	 0.143442
H	-1.6028623573	 1.4144028115	 0.2966519967	 0.143305
H	-0.8117595996	-0.9069177125	-0.1279245407	 0.118138
H	 2.3503076909	-1.5021819168	 0.3919729157	 0.140337
H	 3.0068562077	 1.2932676545	-0.5419445576	 0.099198
62.2748	90.3324	173.1	201.4098	206.514	318.6689	388.5899	459.7097	495.0413	619.0553	700.8871	807.0277	864.9866	949.8543	998.7454	1029.1921	1052.0973	1079.4937	1093.8871	1133.5333	1174.8781	1262.085	1281.7759	1351.6243	1389.1356	1401.978	1481.5328	1493.1959	1824.1939	1934.0384	2896.6532	3019.4571	3039.5637	3044.8942	3123.8297	3125.1325
CC1OC(C=O)C1=O	C[C@H]1O[C@@H](C=O)C1=O	
InChI=1S/C5H6O3/c1-3-5(7)4(2-6)8-3/h2-4H,1H3	InChI=1S/C5H6O3/c1-3-5(7)4(2-6)8-3/h2-4H,1H3/t3-,4+/m1/s1
