18
gdb 46257	2.94837	1.48006	1.25236	4.1783	76.75	-0.2191	-0.0171	0.202	1053.54	0.147748	-401.903149	-401.895392	-401.894448	-401.935721	30.051	
O	 0.0027957633	 0.0145135016	-0.1627564242	-0.292508
C	-0.0310777524	 1.2037382476	-0.0403646115	 0.350106
C	-1.1565056207	 2.214244797	 0.2570197157	-0.337958
C	-0.0443307713	 3.2389635174	 0.6367297652	-0.32157
C	 1.0409189676	 2.3006720406	 0.0303291445	 0.268638
C	 2.4637982076	 2.1396044214	 0.6582204297	-0.315798
C	 3.0688480346	 2.6403796573	-0.6597032508	-0.035456
N	 2.6280072272	 1.6838966291	-1.7012836455	-0.315103
C	 1.7212394549	 2.7719465965	-1.2734550928	-0.129245
H	-1.7138041622	 2.4851871498	-0.6455132136	 0.129712
H	-1.8701718329	 1.9198498686	 1.0301818598	 0.127944
H	-0.1221788551	 4.2287631877	 0.1819486993	 0.105511
H	 0.0649681535	 3.3563545855	 1.7176645035	 0.112333
H	 2.6077701034	 2.8274638215	 1.495102849	 0.106993
H	 2.7481699992	 1.1256511026	 0.948488931	 0.125782
H	 3.9597167177	 3.2400787704	-0.7977230034	 0.096735
H	 3.0486461762	 1.9785416004	-2.5827881663	 0.230482
H	 1.3259882495	 3.4911329649	-1.9815243595	 0.093399
73.1661	120.7054	152.3084	276.873	327.381	429.7243	448.7005	510.7767	597.8813	712.8515	732.9069	766.965	808.7489	835.0299	856.847	875.9907	924.9163	927.1496	965.5019	998.7278	1030.7982	1059.4256	1072.8932	1096.4981	1126.6609	1142.7495	1174.5258	1188.5835	1212.7547	1228.0691	1242.0474	1270.3621	1299.1352	1315.1932	1374.0553	1442.5271	1464.4264	1488.7391	1887.6514	3058.1686	3064.8035	3067.2676	3110.0982	3124.6984	3126.2323	3177.5839	3195.9327	3468.8883
O=C1CCC11CC2NC12	O=C1CC[C@]21C[C@H]1N[C@@H]21	
InChI=1S/C7H9NO/c9-5-1-2-7(5)3-4-6(7)8-4/h4,6,8H,1-3H2	InChI=1S/C7H9NO/c9-5-1-2-7(5)3-4-6(7)8-4/h4,6,8H,1-3H2/t4-,6-,7-/m1/s1
