18
gdb 89131	2.25376	1.63966	1.17332	4.5497	76.36	-0.2684	0.02	0.2884	1094.9316	0.147516	-401.940674	-401.932133	-401.931189	-401.973463	32.708	
C	 0.0172519439	 1.5399734457	 0.0542864063	-0.499001
C	-0.0226583757	 0.0392222565	 0.0591386308	 0.332187
C	-1.2943619168	-0.8155917179	-0.0516618102	-0.35592
C	-0.6900438749	-1.8009072465	 1.0137188955	 0.147834
O	-0.6488966391	-3.1775100836	 0.7801445597	-0.433137
C	 0.6018544274	-0.9671235421	 1.0267066767	-0.150051
C	 1.1754007448	-0.7920255473	-0.3700825476	-0.237021
C	 1.0940118878	-1.8183577782	-1.3755275759	 0.293583
N	 0.9881281592	-2.6543771242	-2.1704378722	-0.358171
H	 1.010179108	 1.91650996	 0.3200820288	 0.124621
H	-0.2381418164	 1.9375614868	-0.9344377943	 0.135633
H	-0.7014623616	 1.9492237404	 0.7724824355	 0.129262
H	-2.1919378853	-0.3055380465	 0.3043785465	 0.111793
H	-1.4974492309	-1.2432332827	-1.0375450073	 0.122995
H	-1.2077766512	-1.6785826801	 1.968528808	 0.102519
H	-0.2575785434	-3.3408455012	-0.0864600707	 0.300132
H	 1.2450866659	-0.7980325323	 1.8832069504	 0.09918
H	 2.1120256383	-0.2428959869	-0.3892872801	 0.133563
126.953	147.446	166.6764	216.0432	247.9216	313.6551	371.6993	404.4149	445.9271	492.3978	556.4424	570.9171	659.728	742.2767	788.2155	863.2241	887.532	943.6702	959.6254	980.9785	984.0038	1040.5404	1067.8743	1104.6419	1144.0162	1149.851	1223.3357	1235.657	1247.4719	1297.3043	1314.4523	1332.3747	1415.9357	1438.3293	1449.7447	1485.4467	1490.435	1498.4167	2335.9551	3028.6592	3062.7939	3079.3046	3092.1836	3102.119	3119.8162	3160.6645	3177.213	3787.9372
CC12CC(O)C1C2C#N	C[C@]12C[C@@H](O)[C@H]1[C@H]2C#N	
InChI=1S/C7H9NO/c1-7-2-5(9)6(7)4(7)3-8/h4-6,9H,2H2,1H3	InChI=1S/C7H9NO/c1-7-2-5(9)6(7)4(7)3-8/h4-6,9H,2H2,1H3/t4-,5-,6-,7-/m1/s1
