17
gdb 90759	2.60342	1.70367	1.37666	4.2281	67.76	-0.2323	0.0446	0.2769	973.507	0.138475	-455.163175	-455.155425	-455.15448	-455.195847	29.303	
O	 0.196618342	 1.2986593958	-0.3735002675	-0.421566
C	 0.097072472	-0.0770977279	-0.0841502669	 0.090933
C	 0.2137629946	-0.4365790086	 1.428069989	-0.212336
N	-1.263617704	-0.5935277884	 1.5024506143	-0.136187
C	-1.398135318	-0.4992604356	 0.0265035004	 0.00312
C	-2.5227979393	 0.528417135	-0.2354602257	-0.192561
N	-2.8652702978	 0.9352122403	 1.1200188398	-0.336197
C	-1.9783651582	 0.481367555	 2.0752175332	 0.40632
O	-1.8325873945	 0.9099384371	 3.1967496713	-0.396675
H	 1.0927952801	 1.5894845139	-0.1758752133	 0.292923
H	 0.710117128	-0.6787937774	-0.7682496139	 0.071972
H	 0.7353836367	-1.3764604442	 1.6303603388	 0.112302
H	 0.6005476645	 0.3497857469	 2.0823122916	 0.129766
H	-1.5984704541	-1.4661705639	-0.4413930211	 0.090638
H	-2.1640240934	 1.364814747	-0.844333399	 0.132949
H	-3.3744971767	 0.0636509391	-0.7431727156	 0.109596
H	-3.3578067721	 1.7910763358	 1.3132099145	 0.255004
52.5347	139.2622	240.6432	255.6664	262.1651	400.8511	445.9374	452.2744	545.6016	653.478	729.3904	743.6176	791.0956	806.1578	839.3263	907.1452	1003.7183	1014.0683	1036.4604	1046.0663	1104.3885	1107.9857	1163.8924	1192.0189	1203.1411	1229.3763	1254.0227	1277.3374	1298.3978	1311.6183	1348.0613	1380.677	1409.6243	1437.6142	1493.8176	1529.3681	1838.3771	3010.3833	3034.1705	3052.0197	3068.6969	3080.8129	3110.0924	3664.1308	3817.9437
OC1CN2C1CNC2=O	O[C@H]1CN2[C@H]1CNC2=O	
InChI=1S/C5H8N2O2/c8-4-2-7-3(4)1-6-5(7)9/h3-4,8H,1-2H2,(H,6,9)	InChI=1S/C5H8N2O2/c8-4-2-7-3(4)1-6-5(7)9/h3-4,8H,1-2H2,(H,6,9)/t3-,4-/m0/s1
