19
gdb 120083	4.36142	1.0676	0.98895	2.2123	76.12	-0.211	0.0693	0.2803	1236.5182	0.159563	-419.068869	-419.060909	-419.059965	-419.101729	30.75	
O	 0.1285547531	 1.4007263378	 0.1083514425	-0.416146
C	 0.1566207289	-0.0099012474	-0.0829587306	-0.074667
C	-1.2705983698	-0.5287794239	-0.0083025916	-0.134584
N	-2.0437571586	-0.1220853063	-1.1806239954	-0.130491
C	-2.6523573753	 1.2452487522	-1.1335943416	-0.020152
C	-3.8334570478	 0.8007109876	-2.0509626812	-0.036869
N	-4.9307225534	 1.2975654365	-1.1592911608	-0.351492
C	-3.8661026133	 0.8454422673	-0.2055448829	-0.045663
C	-3.5103116606	-0.3890682883	-1.1075112726	-0.004805
H	 1.0076462039	 1.7463792694	-0.0699189324	 0.287812
H	 0.5767479827	-0.2703384962	-1.0650253193	 0.097459
H	 0.7639803134	-0.499820902	 0.6944200884	 0.082737
H	-1.2384298734	-1.6253063933	 0.0085701981	 0.098212
H	-1.7140024817	-0.1968877257	 0.9470019436	 0.089835
H	-2.0627878052	 2.1607032059	-1.1466260481	 0.092034
H	-3.8824754639	 0.7950534801	-3.1395008379	 0.086953
H	-4.9633456574	 2.3204700392	-1.1843183603	 0.207485
H	-3.9827826688	 0.9142726189	 0.8761551266	 0.08593
H	-3.9480572629	-1.3880582318	-1.1010712346	 0.086412
68.6878	125.6364	175.0121	243.9318	269.0957	322.9095	466.1376	515.7519	545.9741	747.2022	757.9998	792.1753	818.0836	834.3889	878.1426	894.4313	910.3995	935.2161	972.2106	995.4951	1042.9772	1086.8169	1095.7422	1102.2483	1113.354	1118.2414	1155.0117	1164.4389	1170.0708	1177.7461	1217.5665	1241.7813	1267.9711	1293.0642	1297.8981	1318.7203	1343.7086	1394.4771	1457.3191	1479.512	1510.8558	2952.8792	2975.5001	3022.9495	3050.4623	3106.5456	3115.6393	3124.1448	3141.3839	3397.3335	3834.7366
OCCN1C2C3NC2C13	OCCN1[C@H]2[C@@H]3N[C@H]2[C@H]13	
InChI=1S/C6H10N2O/c9-2-1-8-5-3-6(8)4(5)7-3/h3-7,9H,1-2H2	InChI=1S/C6H10N2O/c9-2-1-8-5-3-6(8)4(5)7-3/h3-7,9H,1-2H2/t3-,4+,5-,6+
