27
gdb 122007	4.5495	0.47953	0.45081	1.3188	93.94	-0.2609	0.081	0.3419	2525.6262	0.249968	-390.701202	-390.688946	-390.688002	-390.739877	43.372	
C	-0.00922608	 1.535298457	-0.1929491443	-0.380141
C	 0.0455146494	 0.0103165275	-0.0680839742	-0.161036
C	 0.6821435071	-0.4659627148	 1.2430408117	-0.174007
C	 0.7272690025	-1.9934096823	 1.3683404049	-0.176404
C	 1.4557934754	-2.5351737876	 2.6141612761	 0.016957
C	 0.7476098757	-2.1300435076	 3.9166743421	-0.390603
C	 1.6181401528	-4.0613969282	 2.4970073928	-0.163867
C	 2.4816176488	-4.7046540856	 3.5762732119	-0.087009
O	 2.6459795301	-6.0743054665	 3.2319782473	-0.421625
H	 0.9947455044	 1.9724634995	-0.1505919584	 0.112275
H	-0.4665610489	 1.8440426074	-1.1382937583	 0.10994
H	-0.5951595496	 1.9783752384	 0.6202484224	 0.1122
H	-0.9700482867	-0.4001931123	-0.1462633736	 0.093766
H	 0.6053866581	-0.4075090659	-0.9152766969	 0.093578
H	 1.7031783753	-0.0646460201	 1.315456443	 0.0888
H	 0.1255663809	-0.0311290818	 2.0828372096	 0.0946
H	-0.2982704724	-2.3904572245	 1.3531607015	 0.089338
H	 1.2195347766	-2.4014529294	 0.4751934144	 0.089125
H	 2.4635331137	-2.0916878976	 2.6252577724	 0.066517
H	 1.2961478474	-2.4699150728	 4.8000124588	 0.111804
H	 0.6451870794	-1.0446276937	 4.0002581722	 0.114723
H	-0.2585631623	-2.564809136	 3.9630393966	 0.111292
H	 0.6316464589	-4.543513818	 2.5039160366	 0.098539
H	 2.0736391687	-4.3054923293	 1.5296846326	 0.101413
H	 3.455755632	-4.1891151642	 3.6279173268	 0.080705
H	 2.0076772105	-4.6050712485	 4.5642415606	 0.085562
H	 3.1513894622	-6.5000456132	 3.9303927013	 0.283558
51.421	61.2372	81.6604	95.0862	113.8501	142.2534	199.2234	234.8933	251.9032	266.6062	277.6506	312.9008	358.3499	410.9525	487.597	531.765	736.641	785.6876	796.1913	855.9997	904.8348	916.3727	940.5448	974.0811	1011.2537	1037.63	1049.1576	1062.2461	1070.4668	1089.6313	1143.2704	1173.7295	1194.1577	1229.38	1242.2942	1258.2466	1281.5523	1313.4233	1318.6341	1323.6682	1335.9492	1364.0292	1379.1842	1384.7417	1400.926	1413.6433	1416.5206	1461.7954	1477.903	1485.974	1491.9121	1498.8815	1500.0482	1501.0514	1509.0955	1513.5899	1528.4576	2956.2209	2982.8386	2996.9338	2999.4877	3006.4782	3016.7912	3023.8088	3028.1336	3029.7658	3031.2743	3039.2852	3062.4917	3069.0793	3094.7458	3096.8719	3099.9113	3110.3522	3828.7747
CCCCC(C)CCO	CCCC[C@@H](C)CCO	
InChI=1S/C8H18O/c1-3-4-5-8(2)6-7-9/h8-9H,3-7H2,1-2H3	InChI=1S/C8H18O/c1-3-4-5-8(2)6-7-9/h8-9H,3-7H2,1-2H3/t8-/m1/s1
