23
gdb 91165	2.30943	1.71353	1.42785	0.2127	88.71	-0.2312	0.0247	0.2559	1080.5192	0.208359	-351.173354	-351.165194	-351.16425	-351.205296	33.824	
C	-0.1293031638	 1.6014884854	 0.0014934846	-0.415781
C	 0.0438961012	 0.0830869344	-0.024377311	 0.062607
C	 0.9066493594	-0.4561314603	-1.2098551318	-0.228496
C	 1.9873029092	-1.3378807376	-0.496718756	-0.062516
C	 2.8737645154	-0.3679010706	 0.2664806384	-0.084603
C	 2.1571967427	 0.1133546444	 1.2883216771	-0.078774
C	 0.7812723351	-0.5284710246	 1.2227969922	-0.077041
C	 1.1722234644	-1.9372648679	 0.6866376984	 0.046218
C	 0.0532807792	-2.9200594093	 0.3499721981	-0.431868
H	 0.8385280081	 2.1114693516	 0.0337162561	 0.116285
H	-0.657599686	 1.9484610042	-0.8933675846	 0.108772
H	-0.7108734775	 1.9226004305	 0.8733680027	 0.105305
H	-0.9541214259	-0.3657556041	-0.0717867565	 0.067122
H	 0.3073113772	-1.0480983535	-1.9082769351	 0.091535
H	 1.3701754369	 0.3509080167	-1.7841198415	 0.093166
H	 2.4988406849	-2.0441852377	-1.1531709934	 0.051521
H	 3.8667305801	-0.0650953766	-0.0432819049	 0.088398
H	 2.4481045467	 0.8876028513	 1.9874075902	 0.089869
H	 0.1906690482	-0.4961635507	 2.1409699606	 0.048268
H	 1.8564872893	-2.4160144869	 1.3950556615	 0.066733
H	-0.6507882096	-2.5401938266	-0.3943418824	 0.117891
H	 0.4734765915	-3.8524865479	-0.0431099478	 0.112504
H	-0.5201347668	-3.1739990442	 1.248618115	 0.112885
154.3619	192.5874	229.6671	253.3195	270.6604	301.384	390.6011	462.3351	499.6495	545.5639	656.697	699.024	741.9863	770.8735	826.7318	835.9796	865.3456	922.0622	937.6257	939.8001	948.7955	962.8157	972.9169	1040.4571	1056.7895	1083.7382	1100.6397	1104.3614	1122.6443	1140.8797	1175.316	1187.7362	1232.8292	1259.5405	1283.7791	1298.049	1302.0336	1333.3563	1356.5208	1375.5549	1385.9184	1406.7631	1414.6118	1492.655	1496.0419	1500.7461	1501.5989	1509.6202	1641.0348	3025.455	3031.992	3034.9158	3048.6591	3052.0137	3086.4845	3088.2449	3090.0295	3091.971	3096.4852	3103.9331	3117.1451	3190.7636	3216.8147
CC1CC2C=CC1C2C	C[C@H]1C[C@H]2C=C[C@@H]1[C@H]2C	
InChI=1S/C9H14/c1-6-5-8-3-4-9(6)7(8)2/h3-4,6-9H,5H2,1-2H3	InChI=1S/C9H14/c1-6-5-8-3-4-9(6)7(8)2/h3-4,6-9H,5H2,1-2H3/t6-,7-,8+,9-/m0/s1
