20
gdb 18643	2.7042	2.13195	1.72126	1.3707	73.8	-0.2448	0.069	0.3139	886.8813	0.178667	-349.00505	-348.997277	-348.996333	-349.036589	30.661	
C	-0.0817755139	 1.5711232135	-0.0385191058	-0.40318
C	 0.0032606713	 0.0422592975	 0.0019680178	 0.043486
C	 0.6827265249	-0.5823444797	-1.2428661954	-0.218833
C	 1.3181711892	-1.9078791232	-0.7622254276	-0.224381
C	 1.563442588	-1.7363798182	 0.733348335	-0.105903
C	 2.2685369399	-0.489329604	 1.2118554738	 0.090364
O	 2.9566109169	 0.3722394265	 0.3445540401	-0.414895
C	 0.7679089292	-0.5222888684	 1.1986386429	-0.081785
H	 0.919241792	 2.0083300404	-0.0892300696	 0.137057
H	-0.6507864957	 1.9099632936	-0.9114687084	 0.103939
H	-0.5803295011	 1.9653104622	 0.853773143	 0.10337
H	-1.0178919371	-0.3580750626	 0.0752744503	 0.066335
H	-0.0291757604	-0.7383290719	-2.0590793217	 0.085599
H	 1.459628566	 0.0928921944	-1.6056691562	 0.111075
H	 0.6263134864	-2.7459689674	-0.9059563573	 0.098647
H	 2.2284884379	-2.1543788406	-1.321488366	 0.086725
H	 1.6509935142	-2.6304940129	 1.3427060718	 0.076235
H	 2.7215279431	-0.5625001069	 2.2015947351	 0.081713
H	 3.76300912	-0.0730303147	 0.0636743833	 0.28695
H	 0.2661483794	-0.5079395075	 2.1612692647	 0.077483
131.7556	186.2285	221.0619	249.8175	284.7198	298.2987	391.5197	494.7478	539.3913	657.1216	691.2839	763.0357	771.5301	827.5225	840.4228	922.9431	951.1624	964.5315	1017.1056	1040.8684	1041.6365	1055.083	1076.2943	1116.5425	1138.7159	1160.6245	1216.665	1227.6003	1240.6549	1285.0178	1312.1897	1330.693	1337.4078	1344.4917	1370.156	1382.9191	1408.0953	1454.6643	1485.852	1497.8049	1505.7665	1506.5019	2996.1797	3027.3152	3029.2358	3057.7617	3059.4581	3084.1126	3089.1526	3114.8091	3119.4607	3147.2866	3158.1718	3802.2477
CC1CCC2C(O)C12	C[C@H]1CC[C@H]2[C@@H](O)[C@@H]12	
InChI=1S/C7H12O/c1-4-2-3-5-6(4)7(5)8/h4-8H,2-3H2,1H3	InChI=1S/C7H12O/c1-4-2-3-5-6(4)7(5)8/h4-8H,2-3H2,1H3/t4-,5+,6-,7+/m0/s1
