17
gdb 44310	3.23874	1.89075	1.41276	3.103	76.78	-0.2287	-0.0071	0.2216	913.0474	0.137985	-384.625556	-384.619347	-384.618403	-384.655953	26.091	
O	-0.0184076829	 0.0642949659	-0.1987157575	-0.324618
C	 0.0088931136	 1.2527068707	-0.0258540161	 0.310944
C	-1.20458441	 2.2388595932	 0.0479505259	-0.346127
C	-0.4878828654	 3.5877460278	 0.2828196923	-0.086111
C	 0.7744622023	 3.5414592656	-0.6053866297	-0.043369
C	 1.8276979248	 3.9614797033	 0.4672215232	-0.092202
C	 2.6195410635	 2.624210355	 0.3190515451	-0.355637
C	 1.1361621691	 2.2200423769	 0.1771593838	 0.204453
C	 0.6695801554	 3.2731724563	 1.2553865863	-0.043366
H	-1.7774278081	 2.198768579	-0.884591413	 0.125709
H	-1.8758833185	 1.9468715443	 0.8625006364	 0.125711
H	-1.1043622095	 4.4838556936	 0.3772743689	 0.068121
H	 0.8602011165	 3.6446211275	-1.6892737517	 0.081147
H	 2.2354134633	 4.959669596	 0.6341212935	 0.07763
H	 3.2440591958	 2.5151191479	-0.5719437268	 0.108283
H	 3.1438083505	 2.258723148	 1.2063848446	 0.108283
H	 0.6338298096	 3.065544579	 2.327029055	 0.081148
137.8755	305.6938	309.2754	409.9121	531.9894	597.2091	614.856	671.496	719.0842	781.9722	853.7318	861.12	869.3754	881.2888	919.7823	957.5316	973.1142	974.6698	985.4438	1001.9705	1052.3766	1092.0563	1122.768	1122.8574	1137.4942	1155.5398	1193.5203	1203.0413	1215.0784	1239.8598	1239.9779	1283.4566	1304.7484	1338.8228	1461.4745	1506.9255	1856.057	3049.2479	3052.604	3084.8272	3090.9696	3093.3359	3093.4221	3106.5683	3113.9712
O=C1CC2C3C4CC13C24	O=C1C[C@@H]2[C@H]3[C@@H]4C[C@]13[C@H]24	
InChI=1S/C8H8O/c9-5-1-3-6-4-2-8(5,6)7(3)4/h3-4,6-7H,1-2H2	InChI=1S/C8H8O/c9-5-1-3-6-4-2-8(5,6)7(3)4/h3-4,6-7H,1-2H2/t3-,4+,6+,7-,8+
