23
gdb 110052	2.03965	1.50978	0.99086	1.8742	81.55	-0.2385	0.0732	0.3117	1284.3251	0.205426	-425.431519	-425.421463	-425.420519	-425.466337	37.419	
C	-0.708414364	 1.2976146689	-0.0073546505	-0.427525
C	 0.1125811426	 0.0083412588	 0.013447859	-0.009752
C	 1.2185066002	-0.048032913	-1.0681893045	-0.074217
O	 2.3174695233	-0.7578300593	-0.5084287665	-0.274877
C	 1.9055293122	-1.3516740554	 0.7272013153	 0.141711
C	 3.1468930892	-1.7071893318	 1.5271524873	-0.393334
C	 0.890779847	-0.3432383373	 1.3090529098	-0.017369
C	 1.5395094215	 0.8545689153	 2.00014448	-0.098405
O	 1.9984996538	 0.4242463971	 3.2772422807	-0.421076
H	-0.078429715	 2.187590898	 0.0907517605	 0.119923
H	-1.2527063309	 1.3883966256	-0.9537151074	 0.116082
H	-1.4483257925	 1.3156833096	 0.7995628891	 0.118748
H	-0.5754049153	-0.8267353358	-0.1654123307	 0.080318
H	 0.8641146557	-0.546733938	-1.9813864078	 0.091395
H	 1.562920286	 0.9560354744	-1.3508131071	 0.093104
H	 1.3532515631	-2.2848896227	 0.5135160375	 0.056131
H	 3.7425656526	-0.8221019613	 1.7575090658	 0.119248
H	 2.8705548257	-2.1848290049	 2.4701934962	 0.119962
H	 3.764166802	-2.4003980266	 0.9479443874	 0.113217
H	 0.2342165205	-0.8250819209	 2.0412238721	 0.077567
H	 2.3667638191	 1.2423342924	 1.3857242306	 0.097949
H	 0.8042730386	 1.6636425315	 2.1152457759	 0.086215
H	 2.4565478646	 1.1598756656	 3.6940291371	 0.284985
69.831	103.9436	142.4089	199.303	226.438	242.4663	255.3851	265.1269	308.1274	335.8746	394.5337	460.3959	545.2197	643.1067	675.5073	793.0642	865.0753	873.0402	934.3931	963.0601	975.2814	1020.185	1036.2508	1066.3066	1071.7612	1100.3249	1136.9719	1160.1834	1173.76	1191.8569	1206.9376	1245.981	1255.6689	1285.1784	1327.7172	1347.4252	1360.6313	1377.1201	1398.8148	1403.5995	1412.6725	1422.6463	1463.6768	1478.0188	1497.2321	1497.9888	1502.8968	1526.3676	1528.7369	2928.496	2981.7374	2994.9071	3013.118	3016.2729	3031.194	3036.0573	3051.5681	3061.0679	3094.2862	3103.1731	3122.6464	3139.4173	3829.3626
CC1COC(C)C1CO	C[C@H]1CO[C@@H](C)[C@H]1CO	
InChI=1S/C7H14O2/c1-5-4-9-6(2)7(5)3-8/h5-8H,3-4H2,1-2H3	InChI=1S/C7H14O2/c1-5-4-9-6(2)7(5)3-8/h5-8H,3-4H2,1-2H3/t5-,6-,7-/m0/s1
