17
gdb 87303	2.18349	1.33403	0.95559	2.0765	80.85	-0.2597	0.0225	0.2823	1267.6067	0.131109	-384.600662	-384.590798	-384.589853	-384.635608	35.937	
C	 0.100393346	 1.4999814786	-0.1477059574	-0.430344
C	 0.0945928633	 0.0081319231	 0.0653373834	 0.037252
O	 1.3505145476	-0.6704954401	 0.1139726301	-0.273123
C	 0.5361145328	-0.6946027562	 1.2977991398	 0.15674
C	 1.0925383781	 0.0582094359	 2.5076047322	-0.445272
C	 2.1495090125	-0.6740709285	 3.1959202505	 0.323701
C	 3.0229049008	-1.2732120696	 3.761823019	-0.440107
C	-0.0751985819	-1.9681665588	 1.6074038576	 0.320189
C	-0.6035768824	-3.0117624412	 1.8824426166	-0.428802
H	 0.8766573869	 2.0020668739	 0.4319205993	 0.132205
H	 0.2819122509	 1.7162429584	-1.2057007619	 0.137444
H	-0.8726624764	 1.9264409414	 0.1178364103	 0.130281
H	-0.6591666337	-0.5232130667	-0.5187373446	 0.100726
H	 1.4759778227	 1.0283281972	 2.1804985906	 0.138689
H	 0.2654388139	 0.2551244909	 3.2014077286	 0.141008
H	 3.795308512	-1.8062904572	 4.2581726898	 0.19889
H	-1.0580012432	-3.9411605512	 2.1227342761	 0.200522
50.4311	108.8911	136.1331	158.7011	162.6054	244.4168	310.5459	330.7761	388.2456	424.5687	493.9301	555.9076	570.7163	621.1019	622.8721	646.5862	666.8131	718.3993	796.5964	901.834	926.1433	972.4876	1002.6534	1027.6544	1117.1838	1156.0527	1209.6556	1264.5061	1310.2771	1354.6636	1408.7159	1449.2335	1453.5649	1485.5189	1501.3393	2239.5657	2245.666	3033.7869	3042.5521	3092.4975	3094.1481	3103.5009	3139.531	3501.769	3507.3142
CC1OC1(CC#C)C#C	C[C@H]1O[C@]1(CC#C)C#C	
InChI=1S/C8H8O/c1-4-6-8(5-2)7(3)9-8/h1-2,7H,6H2,3H3	InChI=1S/C8H8O/c1-4-6-8(5-2)7(3)9-8/h1-2,7H,6H2,3H3/t7-,8+/m1/s1
