15
gdb 11270	5.22405	1.34371	1.15603	4.2403	63.76	-0.2608	-0.0742	0.1867	1018.4927	0.118251	-399.822385	-399.814697	-399.813753	-399.855151	26.879	
C	-0.2162690161	 1.537060926	 0.0186985922	-0.398193
C	 0.0796816362	 0.046854047	 0.0320655548	 0.095262
C	 0.9062471674	-0.472233456	-1.1797285316	-0.200008
N	 2.1781957711	-0.9441436578	-0.616289568	-0.276758
C	 2.0791897147	-0.7872796017	 0.6399092352	 0.306258
O	 0.9418999457	-0.2652240972	 1.1669218184	-0.264356
C	 3.1230495211	-1.1294115405	 1.6612663589	 0.109019
O	 4.1924996992	-1.6047043655	 1.3919785685	-0.218096
H	 0.705760111	 2.1119338126	-0.1139196351	 0.131776
H	-0.8919936817	 1.7753680443	-0.8092086653	 0.127056
H	-0.6913370269	 1.8512398757	 0.9518232818	 0.134102
H	-0.8417669985	-0.5248741855	 0.1769248217	 0.099923
H	 0.4140241533	-1.2954197744	-1.7081870093	 0.127786
H	 1.0983881213	 0.3158752441	-1.9168757256	 0.124153
H	 2.8107934722	-0.899748371	 2.7005152834	 0.102074
49.5764	115.2789	191.208	206.11	243.977	339.1913	409.7125	493.865	606.6175	713.5288	766.9451	840.6128	907.3596	929.0223	959.9319	1030.9289	1039.1946	1068.5543	1118.2381	1137.3133	1216.493	1228.4791	1327.3432	1342.9505	1384.2532	1411.1365	1430.4079	1484.4235	1491.9873	1497.5674	1706.6094	1837.2293	2931.2405	3037.0762	3040.5011	3057.7525	3076.8383	3113.112	3123.4361
CC1CN=C(O1)C=O	C[C@H]1CN=C(O1)C=O	
InChI=1S/C5H7NO2/c1-4-2-6-5(3-7)8-4/h3-4H,2H2,1H3	InChI=1S/C5H7NO2/c1-4-2-6-5(3-7)8-4/h3-4H,2H2,1H3/t4-/m0/s1
