21
gdb 38567	2.61066	2.21892	1.71133	0.2004	83.14	-0.2549	0.0747	0.3296	901.6102	0.188031	-349.959685	-349.953487	-349.952543	-349.98987	27.564	
C	-0.0297487513	 1.5584649879	 0.1374313505	-0.236191
C	 1.5103997249	 1.5549164025	-0.0290004106	-0.015072
C	 2.3134993218	 1.4479012402	 1.2913403487	-0.244078
C	 2.6374943659	-0.0271771977	 1.4971560889	-0.044355
C	 1.5622377721	-1.0984096468	 1.5099818412	-0.044355
C	 0.0860026799	-0.7712590653	 1.3179098882	-0.244078
C	-0.0338574278	 0.0164387612	-0.0105804994	-0.015072
C	 1.4271810932	 0.0873278814	-0.5920790103	-0.037979
C	 2.3336147415	-0.8125584961	 0.2391906516	-0.079344
H	-0.4322337221	 1.9736023896	 1.0678779968	 0.086179
H	-0.5283780537	 2.0488985655	-0.7035575326	 0.091535
H	 1.9180427117	 2.3274041743	-0.6850187278	 0.060021
H	 3.2550333239	 2.0021078153	 1.2088476438	 0.096071
H	 1.7659849624	 1.8873246117	 2.1341880782	 0.094641
H	 3.5279258074	-0.2622449308	 2.0724037635	 0.074967
H	 1.8008989377	-1.9828083446	 2.0930038808	 0.074967
H	-0.4726108245	-1.7115857155	 1.2533111751	 0.096071
H	-0.341281889	-0.212055872	 2.1593235073	 0.094641
H	-0.8156379701	-0.396044912	-0.6524111514	 0.060021
H	 1.5212413049	-0.020022263	-1.6726068904	 0.057118
H	 3.0259059012	-1.512858716	-0.212514952	 0.07429
149.0199	317.079	398.6054	404.3914	583.6631	600.669	679.3964	705.8624	712.858	784.5371	812.2423	813.5482	828.1333	870.6736	903.8643	923.8746	944.9037	952.9866	987.3558	1001.4649	1004.3725	1021.1013	1067.9148	1081.2109	1091.6437	1097.48	1128.315	1157.3259	1165.2411	1206.3451	1207.0619	1235.8765	1248.2768	1262.6741	1276.1055	1304.7693	1309.9414	1315.0511	1329.7419	1353.1283	1361.3346	1418.9445	1483.87	1489.4829	1502.2459	3026.067	3027.9273	3036.5099	3057.2378	3059.3003	3073.3094	3075.6947	3093.2026	3112.2157	3144.8108	3155.0272	3180.2108
C1C2CC3C4CC1C2C34	C1[C@H]2C[C@H]3[C@H]4C[C@@H]1[C@@H]2[C@@H]34	
InChI=1S/C9H12/c1-4-2-6-7-3-5(1)8(4)9(6)7/h4-9H,1-3H2	InChI=1S/C9H12/c1-4-2-6-7-3-5(1)8(4)9(6)7/h4-9H,1-3H2/t4-,5+,6-,7+,8+,9-
