17
gdb 78524	2.59078	1.7514	1.2124	2.8952	67.91	-0.2467	0.0596	0.3062	1009.0964	0.134958	-458.879656	-458.871776	-458.870832	-458.911384	31.865	
O	 0.1591345708	 1.4428358113	-0.1395842858	-0.45916
C	 0.0885828017	 0.04572159	-0.0538808207	 0.148958
C	 0.0613874634	-0.621544506	 1.340554691	-0.214011
C	-1.4548367043	-0.307941642	 1.523035228	 0.389568
O	-1.8864307677	 0.8903104206	 2.0727531011	-0.482514
C	-1.8288343937	-1.7574004194	 1.8942697458	-0.396092
C	-0.7495833645	-1.8560159099	 0.7853656818	 0.40724
O	-0.2477109124	-2.977345168	 0.1603748844	-0.4738
C	-1.2994583317	-0.6389548558	-0.0126198406	-0.209348
H	-0.4388184452	 1.8028167403	 0.5280139231	 0.286494
H	 0.8053230278	-0.3576493789	-0.7730980337	 0.090565
H	 0.8069374072	-0.634853386	 2.1377050084	 0.072758
H	-2.8352476447	 0.9728942995	 1.9240079946	 0.290069
H	-1.5470264923	-2.0953819155	 2.8972698143	 0.094478
H	-2.8346581007	-2.0993835197	 1.6278644799	 0.094816
H	 0.2178014917	-3.5099539768	 0.8142906576	 0.287403
H	-2.0993166853	-0.6708682636	-0.7544681193	 0.072577
161.8075	236.9195	245.1771	286.2595	309.8116	336.2981	408.6808	435.254	479.3917	513.8167	561.6794	606.2239	691.2954	697.2527	808.5032	871.5209	891.8626	941.1743	948.3187	1021.4277	1036.8636	1066.6146	1078.3113	1087.22	1096.2026	1141.7264	1166.6198	1170.2343	1216.7138	1258.3033	1279.2037	1304.6884	1324.7903	1362.7138	1414.5818	1459.9241	1519.9254	3033.146	3088.3911	3095.7614	3100.4278	3107.9085	3771.4717	3798.6341	3806.8693
OC1C2C3(O)CC2(O)C13	O[C@H]1[C@H]2[C@]3(O)C[C@@]2(O)[C@H]13	
InChI=1S/C6H8O3/c7-2-3-5(8)1-6(3,9)4(2)5/h2-4,7-9H,1H2	InChI=1S/C6H8O3/c7-2-3-5(8)1-6(3,9)4(2)5/h2-4,7-9H,1H2/t2-,3-,4+,5+,6-
