15
gdb 45318	2.94559	1.70925	1.34233	2.547	66.34	-0.2608	0.001	0.2618	943.6167	0.11493	-453.944772	-453.937816	-453.936872	-453.976723	26.155	
N	-0.231851795	 1.2144455334	-0.5626428121	-0.534963
C	-0.080048402	 0.0625768608	-0.0999848272	 0.412444
O	 1.0048896586	-0.5563382478	 0.4815502904	-0.262332
C	 0.2464561221	-1.7913836173	 0.7311787811	 0.069707
C	 0.0566465931	-2.0766774523	 2.211785208	-0.185286
N	-1.0350254407	-1.3604792621	 2.862185205	-0.256529
C	-1.9941228586	-0.9398828648	 2.1607404378	 0.13218
O	-2.1554959833	-0.9861737553	 0.8065881697	-0.22614
C	-0.9833510906	-1.1604791935	 0.0354092317	-0.018698
H	 0.6161897036	 1.7761421943	-0.4669928322	 0.235622
H	 0.7193432624	-2.6220383768	 0.201793844	 0.103465
H	-0.1286606721	-3.1519507004	 2.339209315	 0.127827
H	 0.9896356094	-1.8583609849	 2.7416050519	 0.135797
H	-2.8681894369	-0.4820158889	 2.6182179602	 0.136931
H	-1.2883407998	-1.6079369542	-0.9103657334	 0.129974
77.3307	105.0109	237.0195	333.8955	424.33	485.2476	517.0165	591.6291	667.5824	753.7722	802.3915	855.6948	875.2253	898.4867	921.7925	964.8616	995.3081	1018.9666	1036.156	1060.6501	1094.5493	1176.0726	1219.9887	1233.3044	1260.6425	1328.8889	1346.949	1365.207	1391.5096	1414.6183	1467.5605	1744.5316	1832.3311	3021.5727	3073.3784	3084.3155	3122.8803	3171.4776	3476.4125
N=C1OC2CN=COC12	[NH][C]1O[C@H]2CN=CO[C@@H]12	
InChI=1S/C5H6N2O2/c6-5-4-3(9-5)1-7-2-8-4/h2-4,6H,1H2	InChI=1S/C5H6N2O2/c6-5-4-3(9-5)1-7-2-8-4/h2-4,6H,1H2/t3-,4+/m0/s1
