19
gdb 39296	2.6242	2.10436	1.80918	2.5243	72.71	-0.2516	0.0791	0.3306	864.9111	0.16396	-423.026168	-423.01996	-423.019016	-423.056444	26.549	
C	-0.0341244347	 1.4886617522	 0.091756498	-0.231551
C	 1.5186341719	 1.4097709992	 0.0251845675	-0.068824
C	 2.018008338	 1.1021743272	 1.4383611608	-0.09054
O	 1.119439331	 0.2073461684	 2.0978138047	-0.260213
C	 0.553141261	-0.7370334057	 1.2153480676	 0.218046
O	 1.5122159472	-1.6713968471	 0.7544661817	-0.267941
C	 2.146578521	-1.1601001614	-0.4267722644	-0.111831
C	 1.3506682867	 0.0827269114	-0.8031424588	-0.032264
C	-0.0007585673	-0.0473944962	-0.0594038646	-0.0781
H	-0.4801834218	 1.9070266481	 0.9970934364	 0.106733
H	-0.4625806833	 1.9681914	-0.7915363261	 0.098378
H	 2.0808531678	 2.2301491947	-0.4263632905	 0.067777
H	 3.0333940968	 0.6803647297	 1.4228776685	 0.102593
H	 2.0426172122	 2.0133200668	 2.0452676885	 0.108229
H	-0.1806066772	-1.2880050714	 1.8057607773	 0.091752
H	 3.2063389895	-0.9575398826	-0.2235894279	 0.101534
H	 2.092015033	-1.9259639995	-1.210247991	 0.101982
H	 1.2896795582	 0.2662357779	-1.8766752176	 0.074955
H	-0.8373206	-0.5925423518	-0.4998133802	 0.069283
171.1106	285.4171	365.1386	394.9461	503.8588	516.0705	605.1038	672.4432	755.0479	773.436	843.7032	847.8566	891.6473	917.8961	931.7971	941.3739	968.1487	992.515	1021.0697	1030.5188	1062.2563	1077.0002	1083.3757	1105.1611	1137.681	1167.2354	1199.2496	1239.3777	1245.1057	1252.5236	1287.88	1297.5698	1306.5841	1328.7528	1350.4201	1370.3009	1389.2661	1408.0447	1491.0147	1509.1823	1527.2227	3001.2948	3012.6937	3046.4646	3062.3294	3069.0288	3084.6121	3092.1304	3104.032	3113.5844	3119.7019
C1C2COC3OCC2C13	C1[C@H]2CO[C@@H]3OC[C@H]2[C@H]13	
InChI=1S/C7H10O2/c1-4-2-8-7-5(1)6(4)3-9-7/h4-7H,1-3H2	InChI=1S/C7H10O2/c1-4-2-8-7-5(1)6(4)3-9-7/h4-7H,1-3H2/t4-,5-,6+,7+/m0/s1
