18
gdb 28315	3.15603	1.43298	1.00776	1.394	82.05	-0.1797	0.0506	0.2303	1173.7135	0.148021	-401.947884	-401.939154	-401.93821	-401.981422	32.016	
C	-0.2363346337	 1.5151888168	 0.1244993815	-0.525098
C	 0.0005587506	 0.0385524203	 0.0138400861	 0.179443
C	 0.0406298688	-0.7150970451	-1.1548125345	-0.243734
N	 0.1605632062	-2.0152194868	-0.7643158896	 0.009017
C	 0.6835421732	-3.3705313722	-1.0198703474	-0.16685
C	 0.7284149313	-3.5640212402	 0.5439556864	-0.371697
C	 0.2773829353	-2.1162241835	 0.6005886509	 0.248138
C	 0.1869994642	-0.8507714013	 1.1279512132	 0.058486
O	 0.2503099271	-0.5106198167	 2.451241857	-0.448064
H	 0.5664331686	 2.0227650286	 0.6772796562	 0.116516
H	-0.2809136301	 1.9789950586	-0.864704247	 0.127524
H	-1.1793321754	 1.7524612639	 0.6355233451	 0.122976
H	-0.0830155213	-0.4092635738	-2.1817992665	 0.113627
H	-0.0025202537	-4.0147153308	-1.5771979814	 0.119548
H	 1.6666801557	-3.3762398809	-1.4996592859	 0.125086
H	 0.0312327864	-4.3110368436	 0.9340739046	 0.11879
H	 1.7263568906	-3.7721386352	 0.9387827019	 0.122596
H	 0.1595731162	 0.4442935419	 2.5209145894	 0.293698
79.0938	111.5052	163.2711	177.9123	238.5065	254.1561	299.9835	351.5205	557.4078	571.9804	616.789	656.1735	667.7677	699.8904	805.2456	827.0393	880.4844	931.2422	997.6248	1050.6505	1057.6529	1062.2425	1136.88	1169.5336	1181.0354	1230.9354	1237.3822	1262.4698	1302.4911	1374.8791	1407.1785	1428.657	1440.9271	1484.1797	1492.3468	1501.327	1511.8794	1539.2381	1675.4588	3001.2473	3040.5475	3048.3069	3056.1021	3092.1414	3104.5932	3107.6033	3252.3254	3835.7276
CC1=CN2CCC2=C1O	Cc1cn2CCc2c1O	
InChI=1S/C7H9NO/c1-5-4-8-3-2-6(8)7(5)9/h4,9H,2-3H2,1H3	InChI=1S/C7H9NO/c1-5-4-8-3-2-6(8)7(5)9/h4,9H,2-3H2,1H3
