15
gdb 69039	2.91566	1.39955	1.16478	1.9125	67.36	-0.2759	-0.0597	0.2163	1054.4501	0.110189	-457.774952	-457.766605	-457.765661	-457.808118	30.022	
C	-0.014439033	 1.4902660725	 0.2586500994	-0.494014
C	 0.004113068	 0.0077378432	 0.0422843384	 0.052058
C	-0.9375889361	-0.9753116306	 0.722729584	-0.362542
C	 0.5305088449	-1.1463680268	 0.9197082623	 0.308329
O	 1.0967068859	-1.8144967609	-0.2352680368	-0.294019
C	 0.7291514298	-0.7454246646	-1.0524728315	 0.434231
O	 1.0101197903	-0.5788552119	-2.1916266808	-0.312725
C	 1.2987743304	-1.0285288288	 2.1675834239	 0.074392
O	 0.8531691203	-0.5028663651	 3.1605152753	-0.264608
H	 0.9386721718	 1.9442342269	-0.0257839468	 0.144453
H	-0.8047487921	 1.9576107674	-0.3372055993	 0.148033
H	-0.2035101131	 1.714759951	 1.3123939997	 0.152988
H	-1.4748070978	-0.5566107996	 1.5681476548	 0.159974
H	-1.4618223195	-1.7334776732	 0.1502946341	 0.146207
H	 2.3293180204	-1.4349967995	 2.1134424034	 0.107244
92.9509	123.9903	163.9409	183.411	218.9392	281.7718	359.8578	425.3941	476.2097	561.9052	665.4503	695.1559	742.357	774.2713	823.9136	908.8184	961.5695	980.965	1008.5179	1048.0441	1088.4662	1100.8448	1164.7453	1196.6035	1330.1744	1382.5113	1415.2392	1424.3168	1476.8403	1484.3193	1495.9454	1795.5453	1948.3971	2930.8959	3043.1022	3111.3502	3122.9729	3129.7941	3228.0234
CC12CC1(OC2=O)C=O	C[C@]12C[C@]1(OC2=O)C=O	
InChI=1S/C6H6O3/c1-5-2-6(5,3-7)9-4(5)8/h3H,2H2,1H3	InChI=1S/C6H6O3/c1-5-2-6(5,3-7)9-4(5)8/h3H,2H2,1H3/t5-,6+/m1/s1
