17
gdb 69706	3.96918	1.36473	1.23817	4.252	72.37	-0.2414	0.0094	0.2507	1033.0509	0.136391	-417.969064	-417.961459	-417.960515	-418.000892	29.792	
C	 0.0669209787	 1.5238661927	 0.0582989548	-0.491573
C	-0.0809186613	 0.0343643286	-0.0337773969	 0.337186
C	-0.9547399525	-0.7796772557	 0.8288523576	-0.302431
N	 0.5088814187	-0.9083700501	 1.0147071129	-0.18114
C	 1.0718616436	-1.7595859544	-0.1180024044	-0.127518
C	 0.5282172668	-0.8027854421	-1.1941469711	-0.064054
N	-0.2353389677	-1.9216585171	-1.7410976263	-0.314707
C	 0.1463803952	-2.8322381551	-0.7617199513	 0.391017
O	-0.1783291515	-3.9657031875	-0.542680794	-0.348023
H	 1.080546724	 1.839769709	-0.2118959477	 0.126521
H	-0.6345043301	 2.0264123601	-0.618468535	 0.123962
H	-0.133611433	 1.8700720658	 1.0758869623	 0.135991
H	-1.4212471991	-0.2719083375	 1.6679176319	 0.126341
H	-1.5319566816	-1.6114376103	 0.4364099235	 0.134778
H	 2.1236877033	-1.9895692163	 0.0323391124	 0.111327
H	 1.1580148999	-0.2626320266	-1.9005408299	 0.093741
H	-1.0445245135	-1.9407883736	-2.3478508489	 0.248583
119.6487	177.6994	179.3372	287.0605	307.6499	426.105	462.6966	477.9904	540.6541	617.5871	695.571	707.9735	758.1946	806.5939	860.4145	892.7031	940.5578	949.295	989.2068	997.2759	1043.7807	1089.1748	1124.195	1131.6717	1135.2676	1171.6036	1209.6168	1253.7129	1268.1348	1306.3588	1354.4075	1391.4191	1419.8172	1481.7433	1491.063	1510.5543	1888.7892	3026.8793	3087.6434	3114.4011	3117.109	3121.0484	3152.533	3203.7181	3579.91
CC12CN1C1C2NC1=O	C[C@]12CN1[C@@H]1[C@H]2NC1=O	
InChI=1S/C6H8N2O/c1-6-2-8(6)3-4(6)7-5(3)9/h3-4H,2H2,1H3,(H,7,9)	InChI=1S/C6H8N2O/c1-6-2-8(6)3-4(6)7-5(3)9/h3-4H,2H2,1H3,(H,7,9)/t3-,4-,6-,8?/m1/s1
