18
gdb 16393	3.10899	2.28537	1.75852	1.9217	66.3	-0.2439	0.0771	0.321	815.0821	0.155268	-384.919366	-384.912359	-384.911415	-384.950202	28.077	
C	-0.0853174437	 1.5245711985	 0.0115452966	-0.411725
C	 0.0565481879	 0.0060227451	-0.0139354086	-0.02581
C	 1.0433100857	-0.5247545042	-1.0780952064	 0.076028
C	 1.1767847027	-2.0233796303	-0.7367849202	-0.245576
C	 1.8945848859	-1.3747652852	 0.4602284318	 0.037033
O	 2.3503449974	-0.3034872572	-0.4368311501	-0.318046
C	 0.7956852696	-0.6211914853	 1.2366583397	 0.149967
O	 1.3444449412	 0.3165337908	 2.133638211	-0.436645
H	 0.8918249735	 2.0148544128	-0.0312023172	 0.118156
H	-0.668152685	 1.8695464032	-0.8488650485	 0.108817
H	-0.586865065	 1.8606002928	 0.9226012479	 0.129095
H	-0.928955182	-0.4536993462	-0.1441683488	 0.073019
H	 0.9852218357	-0.1371395457	-2.0956336869	 0.080495
H	 0.2705435871	-2.6094276815	-0.5629032334	 0.097921
H	 1.8718166962	-2.5437310915	-1.3964311013	 0.114157
H	 2.6927139016	-1.8479450578	 1.0322388493	 0.084505
H	 0.1507588969	-1.2746822571	 1.8291610414	 0.083241
H	 2.0262215444	 0.7889286587	 1.6384998337	 0.285368
130.5139	210.3023	264.1101	277.6961	389.6925	454.4816	487.1053	522.93	632.9078	731.8189	786.5449	810.2325	853.6562	867.0523	877.2309	921.6353	958.2761	1010.6704	1024.9535	1046.1142	1081.5311	1091.9822	1133.0055	1143.0383	1191.9283	1218.5185	1230.3139	1257.7938	1276.4392	1298.0089	1317.8014	1324.9643	1371.04	1410.1283	1440.5521	1487.8939	1491.9125	1505.6291	3039.5428	3046.2713	3066.8515	3086.3793	3104.8867	3117.4934	3120.9877	3126.9108	3143.1109	3771.7923
CC1C2CC(O2)C1O	C[C@H]1[C@@H]2C[C@@H](O2)[C@H]1O	
InChI=1S/C6H10O2/c1-3-4-2-5(8-4)6(3)7/h3-7H,2H2,1H3	InChI=1S/C6H10O2/c1-3-4-2-5(8-4)6(3)7/h3-7H,2H2,1H3/t3-,4-,5+,6-/m0/s1
