21
gdb 108204	2.95386	1.50256	1.31716	1.4482	76.83	-0.2521	0.0777	0.3298	1074.2836	0.184666	-424.241894	-424.233797	-424.232853	-424.274541	31.852	
C	-0.0051599649	 1.3537574028	 0.0803744662	-0.262519
O	-0.0837063847	-0.0644510749	 0.0647122104	-0.306827
C	-1.3464985101	-0.6093456008	-0.0141585728	 0.511813
C	-2.2474708922	-0.2326817927	-1.2238204049	-0.286929
C	-3.6602670953	-0.5447708112	-0.6567338319	-0.217524
C	-3.3066900541	-1.0265192042	 0.7713796358	 0.074064
C	-2.700574438	-2.4489998937	 0.7159020067	-0.218982
C	-1.2917718074	-2.1448040566	 0.1332571406	-0.261754
O	-2.1741420999	-0.2203149649	 1.1065789873	-0.30062
H	 1.0229216024	 1.5995976218	 0.3543773569	 0.127078
H	-0.2172264096	 1.7889514459	-0.9050891726	 0.110776
H	-0.6905458597	 1.7811184681	 0.8189694805	 0.135082
H	-2.143792504	 0.8253406505	-1.4700162048	 0.102354
H	-1.9933993566	-0.8128426962	-2.1137131717	 0.10232
H	-4.2792032157	 0.3545254209	-0.6149583533	 0.103739
H	-4.2028821787	-1.2997858176	-1.2313693577	 0.098023
H	-4.09230712	-0.8848160731	 1.513726278	 0.074951
H	-2.6306689577	-2.8726134113	 1.7202783235	 0.106192
H	-3.2894489492	-3.1345593644	 0.1009180853	 0.095784
H	-1.0939599408	-2.644801924	-0.8174403456	 0.099421
H	-0.4910983939	-2.4001120546	 0.8297514542	 0.113558
84.234	127.7396	163.8772	246.0699	303.1431	378.1835	407.8302	471.8831	563.4384	576.0524	631.4292	755.9098	809.3112	810.9935	827.0024	869.1124	930.4564	950.7921	960.5282	985.5044	1007.8127	1027.8534	1050.472	1077.5906	1097.7983	1174.6292	1179.4724	1195.0373	1214.2955	1221.3482	1235.2235	1257.4085	1263.7032	1307.0983	1317.5246	1333.1844	1343.5626	1358.4021	1475.8858	1477.2499	1490.1669	1494.3734	1495.0058	1508.5259	1514.8769	3012.3386	3060.8143	3063.9767	3074.2018	3079.0348	3086.4441	3101.9284	3105.4554	3117.8851	3124.7719	3128.83	3131.1821
COC12CCC(CC1)O2	CO[C@@]12CC[C@@H](CC1)O2	
InChI=1S/C7H12O2/c1-8-7-4-2-6(9-7)3-5-7/h6H,2-5H2,1H3	InChI=1S/C7H12O2/c1-8-7-4-2-6(9-7)3-5-7/h6H,2-5H2,1H3/t6-,7+
