21
gdb 122090	1.98167	1.08302	0.826	3.7942	80.25	-0.2371	0.03	0.2671	1511.026	0.18079	-420.397634	-420.386634	-420.38569	-420.435348	37.633	
C	-0.4351643089	 1.377630139	 0.3299759749	-0.383379
C	-0.586160167	-0.0095817666	-0.2674846339	-0.058197
O	-1.3211064859	-0.8108031454	 0.6586474829	-0.255242
C	-1.5652315742	-2.1389975621	 0.2541426365	-0.089842
C	-3.0380927934	-2.3143640472	-0.201548226	-0.134696
N	-4.0200519501	-1.831178183	 0.7632162315	-0.271681
C	-4.2355874459	-2.7180174534	 1.9015846814	-0.323219
C	-3.2579458444	-1.6418244654	-1.4964764312	 0.306478
N	-3.4021733372	-1.1176968894	-2.5162508126	-0.334863
H	 0.1426038575	 2.0166855785	-0.3440730201	 0.121794
H	-1.4147098868	 1.8384224751	 0.4862215323	 0.128466
H	 0.0809797726	 1.3293586566	 1.2930327685	 0.125971
H	-1.1066290517	 0.0384462233	-1.2323052515	 0.127455
H	 0.4005095547	-0.4666166676	-0.4407041542	 0.093592
H	-0.8774247405	-2.4588122704	-0.5398140505	 0.109865
H	-1.4008166448	-2.7873304706	 1.1231029835	 0.113489
H	-3.2165721658	-3.3855302528	-0.3651559208	 0.12333
H	-3.7145735496	-0.9156193388	 1.0791209373	 0.235979
H	-4.9647372152	-2.2553428407	 2.571922475	 0.131941
H	-4.6631579598	-3.6635888622	 1.5501481779	 0.1277
H	-3.3354984536	-2.9521593869	 2.4936421789	 0.105059
33.1832	63.2035	71.7664	101.0913	150.1831	186.7415	203.0938	241.1952	275.1519	302.9951	383.7293	431.2059	464.7651	560.2157	692.6672	747.2846	821.7755	828.5788	896.6104	920.0807	1000.3164	1036.837	1077.2585	1123.2282	1133.5739	1152.4672	1164.3285	1185.1073	1207.7214	1283.7504	1299.2992	1302.2516	1355.1724	1388.6953	1405.1427	1435.2995	1458.9396	1482.9388	1484.2827	1497.9463	1498.94	1501.801	1522.1743	1530.595	2356.5519	2966.385	2984.396	3013.6539	3034.0864	3045.7587	3047.6422	3061.3373	3064.6846	3112.2279	3121.3707	3122.672	3523.2909
CCOCC(NC)C#N	CCOC[C@@H](NC)C#N	
InChI=1S/C6H12N2O/c1-3-9-5-6(4-7)8-2/h6,8H,3,5H2,1-2H3	InChI=1S/C6H12N2O/c1-3-9-5-6(4-7)8-2/h6,8H,3,5H2,1-2H3/t6-/m0/s1
