21
gdb 69959	2.44635	1.81081	1.34717	1.065	81.7	-0.2176	0.0746	0.2922	1045.1254	0.182173	-387.042441	-387.034073	-387.033129	-387.074524	34.227	
C	 0.0009688748	 1.5491654391	 0.0207786054	-0.495772
C	 0.0529618094	 0.0473357441	 0.0052528741	 0.32625
C	-0.8475420177	-0.8136764859	 0.8441811453	-0.349486
C	 0.6429962271	-0.9511300822	 1.0173388092	-0.108857
C	 1.288996686	-1.7717829087	-0.1213553046	-0.090719
C	 0.4755856692	-2.9266059985	-0.782028069	-0.243962
C	-0.1028381671	-1.9229719953	-1.8351283307	-0.310749
C	 0.6928836559	-0.7651888133	-1.1546204246	 0.375232
O	 1.4702119124	 0.0788261521	-1.9539995486	-0.485239
H	 0.9471877685	 1.9791987961	-0.317681785	 0.1325
H	-0.7910672261	 1.9289480049	-0.6360340302	 0.116548
H	-0.2048193358	 1.9150304651	 1.0323573963	 0.108909
H	-1.3471407189	-0.2803757108	 1.6480197097	 0.107339
H	-1.4517841478	-1.611807815	 0.4238967678	 0.106784
H	 1.1141975762	-0.7517435791	 1.973342136	 0.080143
H	 2.3688712331	-1.8973574707	-0.0343594434	 0.064636
H	 1.1039665155	-3.7037346076	-1.2235967761	 0.095266
H	-0.2598453164	-3.4134047947	-0.1377639967	 0.104034
H	 0.2573800319	-2.1151633262	-2.8513574926	 0.087685
H	-1.1899620609	-1.8158699174	-1.8788455683	 0.102828
H	 1.9896735509	-0.4662289761	-2.5541428339	 0.276629
145.803	191.8259	237.0382	254.391	266.9159	321.8721	372.0035	405.5013	433.2986	498.2839	592.068	615.7022	725.6119	743.2937	783.4089	833.6647	867.4573	896.2076	919.9446	939.4715	975.4863	990.4956	1003.5936	1051.8397	1062.3106	1068.5141	1085.0424	1102.216	1112.1454	1135.3388	1205.044	1219.6984	1243.5091	1248.2681	1262.5802	1285.6842	1294.7004	1364.9153	1401.813	1417.0613	1473.0522	1480.1986	1486.4529	1502.9878	1509.1403	3025.3607	3043.9159	3065.1653	3084.3535	3094.2237	3103.3717	3114.8781	3117.8249	3120.3337	3166.0207	3194.3578	3808.8588
CC12CC1C1CCC21O	C[C@]12C[C@H]1[C@H]1CC[C@@]21O	
InChI=1S/C8H12O/c1-7-4-6(7)5-2-3-8(5,7)9/h5-6,9H,2-4H2,1H3	InChI=1S/C8H12O/c1-7-4-6(7)5-2-3-8(5,7)9/h5-6,9H,2-4H2,1H3/t5-,6+,7+,8+/m1/s1
