16
gdb 24650	4.4881	1.27631	1.03297	1.4847	80.42	-0.2297	-0.0324	0.1972	1125.3669	0.127396	-396.957442	-396.950352	-396.949408	-396.989424	26.727	
C	-0.226167298	 1.1477233209	-0.4496928681	-0.216591
C	 1.1834805425	 1.1609998832	 0.0639080306	-0.216591
N	 0.3513986671	-0.0159221769	 0.1866362071	-0.097993
C	-0.0886954812	-0.50103669	 1.4070756494	 0.389286
N	 0.8495128634	-0.7287428797	 2.338427451	-0.293033
C	 0.4209390097	-1.2819796079	 3.4708619545	 0.012626
C	-0.9122580007	-1.6074337769	 3.6960596305	-0.144164
C	-1.793345952	-1.3028374592	 2.664094021	 0.012626
N	-1.4021754035	-0.7499530815	 1.518031365	-0.293033
H	-0.9761546773	 1.6997772938	 0.1104677167	 0.13092
H	-0.421054553	 1.0567428207	-1.5141935399	 0.125553
H	 2.0189117537	 1.0797232427	-0.6251993331	 0.125553
H	 1.388078667	 1.7220444049	 0.9718690042	 0.13092
H	 1.1788025689	-1.4681909135	 4.2295016789	 0.114507
H	-1.2454161735	-2.0580461442	 4.6221074052	 0.104908
H	-2.8583698431	-1.5062200065	 2.7585697171	 0.114507
80.7405	126.1261	204.6922	265.6227	418.5345	494.4269	524.9315	558.0298	645.0724	764.2586	805.0116	818.7179	841.9216	950.0977	971.8856	1000.9443	1002.4933	1012.2584	1040.0285	1092.8955	1118.3985	1130.6781	1131.6517	1170.5109	1171.7745	1243.8798	1261.0796	1304.2569	1417.2489	1467.8518	1492.5997	1499.6273	1527.6189	1589.9143	1627.1531	3113.2413	3116.519	3147.7241	3149.0625	3195.4018	3208.6192	3216.9248
C1CN1C1=NC=CC=N1	C1CN1c1ncccn1	
InChI=1S/C6H7N3/c1-2-7-6(8-3-1)9-4-5-9/h1-3H,4-5H2	InChI=1S/C6H7N3/c1-2-7-6(8-3-1)9-4-5-9/h1-3H,4-5H2
