17
gdb 77887	2.14998	1.73984	1.31408	1.4875	70.85	-0.2211	0.0125	0.2336	1032.5569	0.13428	-455.092356	-455.083242	-455.082298	-455.12582	33.643	
C	-0.1032838652	 1.2540932366	-0.4082644569	-0.345292
N	-0.017442535	-0.0246396501	 0.2799698319	-0.094572
C	-1.0874654262	-1.0246219518	 0.2626599575	-0.149822
C	-1.0690816709	-1.8421530157	-0.9977583712	 0.049094
O	-0.8182138793	-1.239978659	-2.2318904875	-0.415831
C	-0.004806967	-2.1211022024	 0.0334708137	 0.249788
O	 0.1840400691	-3.3866896553	 0.5223397452	-0.44731
C	 0.9863826125	-0.9866219576	 0.0416366297	 0.287675
N	 2.2447575595	-0.9788341935	-0.077212829	-0.564399
H	 0.8698482264	 1.7512066531	-0.3523862908	 0.124954
H	-0.3908428382	 1.141227354	-1.4599991178	 0.142365
H	-0.8303005267	 1.8947118701	 0.0993200338	 0.127333
H	-1.9161896025	-0.9716101185	 0.9576308412	 0.113838
H	-1.826589451	-2.6301605884	-1.0114523513	 0.106647
H	-0.1810532218	-1.7833949906	-2.7087981461	 0.297148
H	 0.7740326482	-3.3276176262	 1.2830460679	 0.301394
H	 2.6217835681	-0.0298743846	-0.0316776104	 0.21699
99.6756	145.8535	167.6039	201.8512	229.4246	251.4138	285.6962	321.8948	338.5558	428.8083	514.8711	600.4088	647.9018	732.2325	760.6125	779.4849	858.1385	889.6579	927.3923	949.5673	996.7808	1034.5867	1091.7954	1145.7776	1180.8826	1198.2574	1245.0617	1247.5683	1299.7771	1344.6103	1361.1306	1376.231	1448.8483	1482.6784	1489.0306	1513.7924	1788.2978	3025.5237	3082.8147	3097.6185	3110.417	3195.8398	3455.9403	3795.4224	3802.501
CN1C2C(O)C2(O)C1=N	CN1[C@H]2[C@@H](O)[C@@]2(O)[C]1[NH]	
InChI=1S/C5H8N2O2/c1-7-2-3(8)5(2,9)4(7)6/h2-3,6,8-9H,1H3	InChI=1S/C5H8N2O2/c1-7-2-3(8)5(2,9)4(7)6/h2-3,6,8-9H,1H3/t2-,3+,5+/m0/s1
