16
gdb 75537	2.39471	1.66183	1.02942	3.5217	68.57	-0.2437	0.0072	0.2509	1106.5255	0.127172	-471.256601	-471.248669	-471.247725	-471.289514	29.768	
N	 0.0183342672	 1.417090617	 0.0990953072	-0.557748
C	-0.0986076905	 0.0281298342	 0.0071741959	 0.421308
N	-1.2441717557	-0.5124764784	 0.0943066689	-0.305892
C	-1.3875186306	-1.9501425293	 0.1231408313	-0.176443
C	-0.5006113661	-2.6961952577	-0.8652415182	-0.088364
O	 0.8431443618	-2.8791334343	-0.3983894123	-0.229948
C	 1.6730701519	-1.860243871	-0.1462945141	 0.469958
O	 2.8458028956	-2.0542405515	 0.0449385843	-0.376253
N	 1.175715717	-0.5523758603	-0.1218829521	-0.42534
H	 0.6341699365	 1.8392497366	-0.584125041	 0.251597
H	-0.8968998876	 1.8466145658	 0.0960241482	 0.262063
H	-1.2032709119	-2.3542442919	 1.1298496374	 0.121597
H	-2.4313118117	-2.1849008275	-0.1169769297	 0.113559
H	-0.8621077852	-3.7158346115	-1.0150439822	 0.129805
H	-0.490877047	-2.1837448878	-1.8346345831	 0.123462
H	 1.9376683263	 0.0755977573	 0.0932466297	 0.266638
66.1873	108.6742	203.0827	295.8941	325.4324	386.9049	405.9639	421.0966	528.455	615.607	643.0188	654.315	684.6373	765.2164	771.2512	834.6051	912.3949	957.85	990.9652	1077.2909	1095.3488	1150.6194	1204.4459	1256.6842	1283.67	1308.7804	1327.8037	1382.9549	1423.8579	1484.2579	1500.5588	1506.0774	1632.5883	1773.082	1837.4537	3000.2947	3038.6609	3053.4207	3113.5463	3544.6133	3603.9709	3650.7212
NC1=NCCOC(=O)N1	NC1=NCCOC(=O)N1	
InChI=1S/C4H7N3O2/c5-3-6-1-2-9-4(8)7-3/h1-2H2,(H3,5,6,7,8)	InChI=1S/C4H7N3O2/c5-3-6-1-2-9-4(8)7-3/h1-2H2,(H3,5,6,7,8)
