20
gdb 82607	2.404	1.74104	1.38712	2.2355	78.24	-0.204	0.0636	0.2676	1025.5303	0.172269	-403.088967	-403.080835	-403.079891	-403.121343	32.217	
C	-0.1749218326	 1.5693773618	 0.0310341162	-0.444072
C	-0.0448363247	 0.0739899098	-0.1127600896	 0.018942
C	 0.5793920557	-0.7532436204	-1.1896391005	-0.061855
C	 1.6427029344	-0.402737345	-2.211963422	-0.082038
C	 2.4171141075	 0.8738312876	-2.4035574487	 0.079421
O	 1.9444865539	 2.1365506707	-2.0407241571	-0.398378
C	 2.9328154559	-0.1459785144	-1.4241613741	-0.11523
C	 2.4888910714	-0.0665122571	 0.0440768237	-0.191318
N	 1.1652537302	-0.7310850202	 0.1744460838	-0.12297
H	 0.600919062	 2.1283586656	-0.4811895739	 0.15593
H	-1.1409510438	 1.8835173423	-0.3798883239	 0.115574
H	-0.1751584291	 1.8317369471	 1.0963169352	 0.11058
H	-0.9075258364	-0.4254139337	 0.3344077619	 0.084124
H	 0.0568722249	-1.6715966129	-1.4558557301	 0.084932
H	 1.6451428554	-1.0620027902	-3.0737002237	 0.092039
H	 2.950564332	 0.8876561725	-3.3563746697	 0.091375
H	 2.7086425895	 2.6778503367	-1.8130433524	 0.289643
H	 3.8626761592	-0.6602253658	-1.6463429087	 0.08611
H	 3.1999112327	-0.6096119106	 0.6727370469	 0.109455
H	 2.4573049516	 0.9673583861	 0.4102284467	 0.097734
103.6932	149.7646	196.4298	243.5755	288.1624	297.3139	413.6227	504.8413	547.52	629.8479	643.0351	677.3243	703.1029	759.9192	774.999	799.3471	874.0137	934.045	967.0289	997.8133	1024.2028	1037.9761	1078.0308	1084.6085	1115.7444	1126.3	1127.5343	1164.3231	1188.5419	1225.3912	1264.7284	1294.2985	1321.0728	1333.049	1341.97	1381.2732	1390.8852	1418.7214	1440.2104	1464.3459	1499.946	1501.4688	1517.7824	3027.2367	3028.9876	3065.3397	3071.5296	3077.9603	3081.2675	3099.1797	3150.6242	3162.9593	3207.5609	3797.0591
CC1C2C3C(O)C3CN12	C[C@H]1[C@H]2[C@H]3[C@@H](O)[C@H]3CN12	
InChI=1S/C7H11NO/c1-3-6-5-4(7(5)9)2-8(3)6/h3-7,9H,2H2,1H3	InChI=1S/C7H11NO/c1-3-6-5-4(7(5)9)2-8(3)6/h3-7,9H,2H2,1H3/t3-,4-,5-,6-,7-,8?/m0/s1
