23
gdb 84654	2.16977	1.72475	1.24102	0.3071	90.28	-0.2216	0.0263	0.2479	1141.504	0.207628	-351.162299	-351.153639	-351.152695	-351.194877	35.075	
C	-0.1656841937	 1.5913204705	-0.0785467425	-0.394333
C	-0.0218539766	 0.0538269935	-0.0076488133	-0.047175
C	 0.4122052313	-0.5006926571	-1.3443139237	-0.085819
C	 1.6367395555	-0.9617646893	-1.6066969274	-0.053517
C	 2.72536315	-0.9874384052	-0.6021266033	-0.087439
C	 3.1669130665	 0.3287545885	 0.0328458048	-0.297054
C	 2.3386682338	-0.6516745123	 0.8184841256	-0.01154
C	 0.8610695474	-0.4882231254	 1.1563213153	 0.000641
C	 0.673213451	 0.2776257506	 2.4734469142	-0.403418
H	 0.7964662581	 2.0944009129	-0.2039581268	 0.120935
H	-0.7915748318	 1.8673711527	-0.9336035114	 0.110521
H	-0.642267177	 1.9916343258	 0.8207858687	 0.113559
H	-1.037085942	-0.3225940829	 0.1853133733	 0.076149
H	-0.3321847894	-0.4782696582	-2.1373061615	 0.07999
H	 1.873529925	-1.3274646553	-2.6027841158	 0.082023
H	 3.5015134431	-1.7297564965	-0.7594018246	 0.079262
H	 4.2122670272	 0.4338744715	 0.3052152775	 0.106983
H	 2.7144859688	 1.2325333633	-0.3550691347	 0.11937
H	 2.8859198973	-1.1860638434	 1.5917690741	 0.079332
H	 0.5013847152	-1.5128742268	 1.3292329565	 0.077126
H	 1.0750947813	 1.2934985921	 2.4108100291	 0.119211
H	-0.3841659293	 0.3475118171	 2.7509132655	 0.107821
H	 1.1960910085	-0.2328503462	 3.2892649404	 0.107374
113.7084	182.1243	208.7693	245.0633	271.8568	287.8163	335.8456	369.4767	445.8438	494.913	583.3514	636.156	680.5761	751.1141	775.4143	808.7689	833.5612	861.3218	923.1714	962.6923	968.1832	995.725	999.5935	1019.7201	1051.428	1061.5252	1090.8893	1096.583	1112.7668	1135.1137	1152.189	1196.1231	1201.8949	1246.6815	1321.3602	1334.9359	1346.2982	1370.1219	1385.0366	1401.4083	1406.6688	1424.9167	1429.3065	1484.5943	1492.9742	1495.8922	1502.2106	1509.8314	1713.0153	2980.7575	2998.8764	3029.1956	3041.1098	3092.6236	3101.1152	3105.9237	3121.9281	3124.2308	3136.1552	3138.2436	3151.8666	3166.3545	3231.0991
CC1C=CC2CC2C1C	C[C@H]1C=C[C@H]2C[C@H]2[C@H]1C	
InChI=1S/C9H14/c1-6-3-4-8-5-9(8)7(6)2/h3-4,6-9H,5H2,1-2H3	InChI=1S/C9H14/c1-6-3-4-8-5-9(8)7(6)2/h3-4,6-9H,5H2,1-2H3/t6-,7-,8-,9-/m0/s1
