18
gdb 35091	3.03191	1.4642	1.14736	4.1681	80.47	-0.2608	-0.0014	0.2594	1080.7309	0.150129	-364.829267	-364.821794	-364.82085	-364.861431	29.085	
N	-0.0129978588	-1.1832413243	-0.0596843824	-0.334558
C	-0.0229341827	-0.027179794	-0.0484803974	 0.27352
C	-0.0382670727	 1.4374935177	-0.0319248762	-0.203844
C	-0.692976985	 2.0244455007	 1.2142947479	-0.069671
C	 0.0294082724	 3.0091035402	 1.7448416071	-0.079902
C	 1.3153948082	 3.2652270371	 1.0092117488	-0.065148
C	 2.6049740656	 2.7262108261	 1.6998184003	-0.228439
C	 2.4644862601	 1.4102445634	 0.8831000741	-0.226862
C	 1.3769580515	 2.0793139413	-0.0085302297	-0.024097
H	-0.5907638768	 1.7532147104	-0.9285612753	 0.128438
H	-1.6482770915	 1.6634394849	 1.5759175337	 0.116587
H	-0.2630198047	 3.5803539886	 2.6199425678	 0.105802
H	 1.3754314067	 4.287444489	 0.6220706268	 0.07979
H	 3.4914790458	 3.3036700032	 1.4257904315	 0.104702
H	 2.5722792487	 2.6354782765	 2.7882487987	 0.103998
H	 3.3590551436	 1.0682453469	 0.3596923398	 0.110416
H	 2.0754482157	 0.5754574875	 1.4697275399	 0.126437
H	 1.729586754	 2.3268986648	-1.0099378753	 0.082831
85.367	140.8447	173.2217	268.3252	350.4749	440.3392	495.5532	567.2627	666.4129	687.3431	757.6878	761.1111	798.4023	852.4942	879.944	899.1912	955.8717	960.5611	981.0503	1012.5255	1040.7	1057.3341	1079.559	1113.4437	1148.7464	1185.6915	1218.4182	1242.3804	1260.307	1271.3433	1279.0929	1301.0764	1317.7976	1332.2521	1372.5689	1478.2018	1494.8161	1678.8614	2353.022	3002.7883	3050.0026	3062.5819	3077.3701	3103.8931	3109.7375	3132.8871	3183.7723	3216.1866
N#CC1C=CC2CCC12	N#C[C@H]1C=C[C@H]2CC[C@@H]12	
InChI=1S/C8H9N/c9-5-7-2-1-6-3-4-8(6)7/h1-2,6-8H,3-4H2	InChI=1S/C8H9N/c9-5-7-2-1-6-3-4-8(6)7/h1-2,6-8H,3-4H2/t6-,7+,8+/m0/s1
