21
gdb 111016	2.48004	1.25607	0.98129	0.643	90.83	-0.254	0.0456	0.2996	1304.1723	0.18222	-349.878053	-349.869181	-349.868237	-349.911655	34.685	
C	-0.0407009647	 1.6008894416	 0.0112249866	-0.374845
C	-0.1852706402	 0.0762881398	-0.0784507768	-0.238229
C	 0.634828502	-0.5127986145	-1.2167421637	 0.034313
C	 2.1791683921	-0.7510598551	-1.1208053518	-0.08888
C	 1.8984497611	-1.9812185949	-0.2116667093	-0.264527
C	 0.8446177988	-2.0680475921	-1.3682291228	 0.249374
C	 2.0244426186	-1.7122573343	-2.3330463362	-0.258031
C	-0.1727025343	-3.0620485361	-1.5550662205	 0.059409
C	-1.0368914994	-3.8857730838	-1.7076567281	-0.373188
H	 0.9952149762	 1.890265446	 0.2182737047	 0.116413
H	-0.3367593281	 2.0832202479	-0.926941129	 0.115058
H	-0.6673246655	 2.0115580653	 0.8088027074	 0.112966
H	 0.083501174	-0.3704266298	 0.8838944171	 0.099102
H	-1.2387023783	-0.1817068287	-0.2477474358	 0.106985
H	 0.3337767456	-0.0425458144	-2.1615634224	 0.064965
H	 2.9549544764	 0.0017683208	-0.9827442005	 0.074229
H	 2.6587385248	-2.7664657828	-0.2087271586	 0.09655
H	 1.5201645793	-1.8029714861	 0.7949886813	 0.100956
H	 1.74495312	-1.2650713878	-3.2905662751	 0.095742
H	 2.7911824371	-2.4816279446	-2.4520920774	 0.095613
H	-1.7964017254	-4.6150175564	-1.8441617891	 0.176023
70.8371	107.6789	171.2289	203.5464	219.0966	333.3603	352.2297	488.659	508.1029	545.3549	573.2394	611.5353	629.8335	630.7433	741.9303	791.5489	823.5022	861.8128	914.0007	946.2931	952.7267	973.3114	1013.189	1026.4223	1059.6899	1096.3353	1115.946	1131.6484	1150.9043	1170.8661	1176.6854	1216.1318	1235.312	1240.3543	1281.5725	1297.0651	1349.0806	1411.7508	1431.7282	1483.945	1500.0749	1502.412	1509.8743	1543.0522	2229.5827	3020.6965	3028.9	3031.6562	3054.8901	3065.7364	3073.8206	3100.59	3104.2647	3117.1589	3123.5479	3137.4856	3502.3703
CCC1C2CC1(C2)C#C	CC[C@H]1[C@H]2C[C@@]1(C2)C#C	
InChI=1S/C9H12/c1-3-8-7-5-9(8,4-2)6-7/h2,7-8H,3,5-6H2,1H3	InChI=1S/C9H12/c1-3-8-7-5-9(8,4-2)6-7/h2,7-8H,3,5-6H2,1H3/t7-,8-,9+/m0/s1
