16
gdb 53989	1.84804	1.70448	1.13696	4.9726	72.01	-0.2534	-0.0335	0.2199	1111.3632	0.1201	-437.893071	-437.882901	-437.881956	-437.928607	35.993	
C	 0.4337453236	 1.3403651088	 0.6561118636	-0.419086
C	 0.0817091539	-0.0422701981	 0.0669663688	-0.142154
C	 0.3242868315	-1.1524301751	 1.1247563781	 0.17029
O	 0.5386209037	-0.9314842219	 2.2816078618	-0.237026
C	-1.3212277134	-0.127208202	-0.3272653784	 0.294181
C	-2.4794449557	-0.2219972673	-0.6410475837	-0.450263
C	 1.0666213725	-0.3535255462	-1.0919800338	 0.425916
N	 0.5903894504	-0.1865016031	-2.3479426578	-0.55169
O	 2.2054333709	-0.6887735179	-0.8300165588	-0.363491
H	 1.4957165397	 1.3607108263	 0.9073169646	 0.153229
H	 0.2152912777	 2.1290756686	-0.0672226653	 0.124046
H	-0.1443330403	 1.5140506304	 1.5646966117	 0.145302
H	 0.2521351681	-2.1817309709	 0.7190917139	 0.102073
H	-3.5059355282	-0.2984404413	-0.9049071944	 0.209365
H	-0.3863929514	-0.0118911044	-2.5145562775	 0.271498
H	 1.200243897	-0.3953577859	-3.1215368527	 0.26781
35.8017	80.0157	150.5606	163.9588	195.4059	232.2658	260.4804	275.9431	313.6499	397.9892	473.7954	496.2145	517.099	598.5256	623.1558	635.5771	650.4623	741.6558	769.1578	862.6771	939.9763	1010.1283	1103.2808	1128.5227	1148.8801	1201.2423	1344.9999	1399.3441	1417.6618	1483.7789	1490.8038	1609.456	1790.9698	1847.2634	2219.0386	2930.4924	3061.9316	3144.1082	3154.2775	3495.2318	3593.6209	3728.3633
CC(C=O)(C#C)C(N)=O	C[C@@](C=O)(C#C)C(=O)N	
InChI=1S/C6H7NO2/c1-3-6(2,4-8)5(7)9/h1,4H,2H3,(H2,7,9)	InChI=1S/C6H7NO2/c1-3-6(2,4-8)5(7)9/h1,4H,2H3,(H2,7,9)/t6-/m0/s1
