17
gdb 48430	3.21158	1.03174	0.92877	2.2759	74.77	-0.2499	-0.0307	0.2192	1286.8221	0.132051	-421.7698	-421.760442	-421.759498	-421.804823	33.815	
O	 0.3198598477	 0.2576922123	-1.3196761689	-0.266053
C	 0.1354828464	 0.8026585733	-0.2582836889	 0.105166
C	 0.9904714161	 1.8933961222	 0.2905565378	 0.294953
C	 2.4362668623	 1.9697755434	-0.177328049	-0.309946
C	 1.4410132488	 2.957704985	-0.6936195259	-0.290673
O	 0.6180065564	 2.3468600172	 1.5576469329	-0.281023
C	 1.0513188202	 1.5390406171	 2.6513606919	-0.254343
C	 2.3827840371	 1.888328371	 3.1504038088	 0.331972
C	 3.462429321	 2.1791907198	 3.5910621794	-0.456414
H	-0.7249741477	 0.5401787255	 0.3979961198	 0.081793
H	 3.15741712	 2.3043871913	 0.5564558915	 0.144282
H	 2.7538714816	 1.1729763459	-0.8403272089	 0.141646
H	 1.0853219639	 2.8523533124	-1.7117853295	 0.139059
H	 1.4670809811	 3.9645914375	-0.2942091889	 0.136929
H	 0.3147080724	 1.6966680401	 3.4465109452	 0.145053
H	 1.0217389968	 0.4729707949	 2.3865637247	 0.130029
H	 4.418809106	 2.432457471	 3.9779532782	 0.207571
30.3034	90.8106	135.9277	194.2493	233.0696	254.0348	291.2452	323.6952	382.401	444.4177	594.978	608.9948	621.1431	682.6097	715.5572	789.4656	841.0257	899.3159	940.233	965.5195	1000.698	1039.4154	1057.4875	1062.2138	1076.7409	1099.0998	1205.5266	1258.6402	1301.5528	1311.7629	1393.1561	1415.1529	1443.2315	1472.2309	1479.3035	1813.2905	2234.7797	2880.377	3009.193	3070.4651	3146.1425	3152.4053	3241.5903	3258.1077	3502.3039
O=CC1(CC1)OCC#C	O=CC1(CC1)OCC#C	
InChI=1S/C7H8O2/c1-2-5-9-7(6-8)3-4-7/h1,6H,3-5H2	InChI=1S/C7H8O2/c1-2-5-9-7(6-8)3-4-7/h1,6H,3-5H2
