16
gdb 72054	2.5293	1.65392	1.28202	3.588	74.97	-0.2545	0.0056	0.2601	1015.4581	0.124362	-400.70586	-400.69829	-400.697345	-400.737879	29.043	
C	-0.0435748079	 1.4040413946	-0.0644663221	-0.504919
C	 0.0034151315	-0.0810781414	 0.0206156185	 0.410785
O	 0.9568885549	-0.8011248957	-0.7596995364	-0.316392
C	 0.1972153753	-2.0051980084	-0.4773172309	 0.012701
C	 0.4439729172	-2.2460313393	 1.0318410212	-0.239472
C	-0.334648897	-0.9457285421	 1.2371948933	-0.200784
C	-1.0728664636	-1.1386887187	-0.1063822085	 0.187923
C	-2.4353615581	-1.1251942422	-0.469439894	 0.11488
N	-3.55354854	-1.1136671002	-0.7742806004	-0.365692
H	 0.8795779445	 1.8364104933	 0.3347596917	 0.143991
H	-0.1592943137	 1.7279136452	-1.102266802	 0.14828
H	-0.8845946567	 1.7904412676	 0.5177753233	 0.141757
H	 0.2801292603	-2.7704291293	-1.2442126216	 0.112413
H	-0.1118462562	-3.1087271478	 1.4054081403	 0.122512
H	 1.4904068003	-2.2862554795	 1.346311249	 0.114592
H	-0.7554657408	-0.5349126062	 2.1456783586	 0.117424
112.3041	150.7811	193.4978	253.6694	299.0514	426.27	494.5578	514.8736	554.7827	620.4059	632.0279	738.3611	797.4333	852.9808	886.0156	917.5332	940.4453	950.8697	994.241	1010.9486	1078.4953	1097.4183	1118.7093	1156.1393	1177.1785	1223.3651	1268.1891	1282.2131	1321.3776	1407.3422	1465.3515	1472.5601	1486.4988	1500.2744	2335.7739	3044.3572	3062.6676	3114.5112	3127.1581	3128.6253	3168.4443	3211.126
CC12OC3CC1C23C#N	C[C@@]12O[C@H]3C[C@@H]1[C@@]23C#N	
InChI=1S/C7H7NO/c1-6-4-2-5(9-6)7(4,6)3-8/h4-5H,2H2,1H3	InChI=1S/C7H7NO/c1-6-4-2-5(9-6)7(4,6)3-8/h4-5H,2H2,1H3/t4-,5-,6+,7+/m0/s1
