12
gdb 131107	3.29314	1.2094	1.02253	2.1331	61.03	-0.2957	-0.0808	0.2149	1109.3192	0.075179	-468.69491	-468.686926	-468.685982	-468.728573	28.02	
O	 0.0037004239	 1.490508975	-0.0200829938	-0.388108
C	 0.048634897	 0.0821062232	 0.0064530809	-0.13332
C	 0.6478968718	-0.5020712248	-1.2002155822	 0.302102
C	 1.1622406212	-0.9568988037	-2.1854465306	-0.442681
C	 0.7695770404	-0.4330681433	 1.2321467215	 0.41087
N	 1.6598519104	 0.2373077381	 1.8997948411	-0.1492
O	 2.044446818	-0.6018550584	 2.8892666464	-0.135638
N	 1.3330400484	-1.7926470046	 2.769245503	 0.052055
N	 0.5713724694	-1.6886083359	 1.7751304891	-0.197008
H	 0.9079392894	 1.8199188412	-0.0896754749	 0.304529
H	-0.993851364	-0.2484156993	 0.0830120144	 0.15992
H	 1.6063378341	-1.3635443874	-3.061094875	 0.216479
36.6609	101.4221	183.191	204.1183	273.9779	341.0384	413.0884	466.256	587.0568	653.9891	674.8675	690.815	695.3437	730.823	829.2201	949.7255	970.5678	1061.5631	1085.6982	1110.5246	1227.0448	1289.6875	1344.9746	1417.8959	1476.202	1590.755	2239.6315	3055.2141	3499.6274	3798.7394
OC(C#C)C1=NON=N1	O[C@@H](C#C)c1nonn1	
InChI=1S/C4H3N3O2/c1-2-3(8)4-5-7-9-6-4/h1,3,8H	InChI=1S/C4H3N3O2/c1-2-3(8)4-5-7-9-6-4/h1,3,8H/t3-/m0/s1
