20
gdb 87689	2.81617	1.20531	1.01576	3.7361	82.15	-0.2261	-0.025	0.2011	1272.2243	0.169016	-403.128218	-403.118829	-403.117885	-403.162569	34.614	
C	-0.9070906232	 1.1591665292	 0.2334416658	-0.402783
C	-0.0210542703	-0.0597886726	 0.0031918603	-0.09637
C	 0.8764525037	-0.1168751725	-1.2786877563	-0.357503
C	 2.1052712578	-0.3939128698	-0.385685145	 0.247433
C	 3.1580358372	-1.443322237	-0.5716398966	-0.297927
N	 3.5066185782	-0.0364871061	-0.5574154495	-0.119328
C	 3.8801953464	 0.5689931159	-1.8294321568	-0.316916
C	 1.2694718333	-0.1477534253	 0.8532516339	 0.338547
O	 1.5026506322	-0.0333349341	 2.0218427836	-0.309074
H	-0.3403494999	 2.0878531487	 0.1080324882	 0.120749
H	-1.7462851823	 1.1776929941	-0.4690551844	 0.119556
H	-1.3109635383	 1.1502871671	 1.2501403984	 0.137433
H	-0.6029380944	-0.9813042826	 0.1245325276	 0.10349
H	 0.6187038501	-0.8877702047	-2.0067943214	 0.110011
H	 0.9301070755	 0.849018985	-1.7903359502	 0.112265
H	 3.4938037815	-2.026190031	 0.2820555516	 0.132779
H	 3.1487624599	-1.9690141191	-1.5269472482	 0.111801
H	 3.3493775335	 0.1460309733	-2.6973138848	 0.104824
H	 3.6796075707	 1.6439242217	-1.7906426432	 0.129237
H	 4.9545223484	 0.4282794697	-1.9808832631	 0.131774
51.7305	125.111	182.0693	198.9465	207.4381	209.5255	259.4192	319.9944	362.4107	425.9307	536.3892	557.8383	688.7506	713.6033	775.4969	819.9176	889.0965	900.8747	919.8811	958.1947	1051.7207	1052.3241	1078.8421	1105.4722	1113.1118	1139.3412	1156.6527	1169.3383	1202.8416	1205.7924	1235.955	1253.1317	1329.106	1393.4281	1409.4432	1449.7866	1484.2061	1490.7695	1494.0285	1496.1695	1496.7875	1501.9644	1886.602	2975.5498	3034.9351	3041.2599	3058.9365	3075.1717	3080.8081	3103.0105	3110.7635	3112.6372	3118.1465	3178.9884
CC1CC2(CN2C)C1=O	C[C@H]1C[C@]2(CN2C)C1=O	
InChI=1S/C7H11NO/c1-5-3-7(6(5)9)4-8(7)2/h5H,3-4H2,1-2H3	InChI=1S/C7H11NO/c1-5-3-7(6(5)9)4-8(7)2/h5H,3-4H2,1-2H3/t5-,7-,8?/m0/s1
