16
gdb 125936	2.71206	1.72298	1.15556	4.5578	72.29	-0.2218	0.0022	0.224	1040.2969	0.124976	-434.028578	-434.020859	-434.019914	-434.061349	28.964	
C	-0.4848032637	 1.5492389181	-0.1762266738	-0.399918
C	-0.0562115229	 0.0967778636	-0.0917163453	 0.037793
C	 0.9483877757	-0.4230720044	-1.2050307322	-0.380927
C	 1.9543968183	-0.4826127566	-0.0708612709	 0.409838
N	 3.1812060912	-0.4973143139	 0.3094604206	-0.248571
O	 3.0388241471	-0.1497331151	 1.7215091007	-0.263916
C	 1.7218530983	 0.1606420873	 2.03773856	 0.4674
N	 1.2648460008	 0.6155248958	 3.12393131	-0.601517
N	 1.0392575138	-0.1812836828	 0.8832773932	-0.099556
H	 0.3697984255	 2.2019167087	-0.379190828	 0.135255
H	-1.2195921644	 1.6757554246	-0.9772925099	 0.132271
H	-0.9417598069	 1.8652467718	 0.7654565066	 0.159672
H	-0.9116647995	-0.561734881	 0.0762211793	 0.116237
H	 0.6889690349	-1.3855236289	-1.6475872432	 0.150272
H	 1.1821576525	 0.2981923383	-1.9890122989	 0.151359
H	 2.0144363694	 0.7699467145	 3.7944508421	 0.234309
50.2963	122.3954	221.634	275.8048	295.148	368.5518	416.0708	560.1858	611.8986	679.423	688.6726	715.3124	764.5604	771.0001	822.0421	833.1608	904.431	964.4123	1040.196	1069.1835	1096.972	1110.2467	1178.5362	1186.1811	1229.0939	1260.1449	1334.2804	1372.218	1414.2885	1430.9759	1468.9134	1487.1619	1495.213	1690.8746	1779.7164	3042.6696	3081.897	3095.1344	3118.9428	3125.9207	3153.9151	3530.4009
CC1CC2=NOC(=N)N12	C[C@H]1CC2=NO[C@H]([NH])N12	
InChI=1S/C5H7N3O/c1-3-2-4-7-9-5(6)8(3)4/h3,6H,2H2,1H3	InChI=1S/C5H8N3O/c1-3-2-4-7-9-5(6)8(3)4/h3,5-6H,2H2,1H3/t3-,5+/m0/s1
