16
gdb 49327	2.10323	1.69578	1.06004	1.4273	70.93	-0.2527	-0.0476	0.2052	1106.8005	0.122158	-437.865481	-437.857109	-437.856165	-437.899487	30.381	
O	-0.220463105	 0.3746076702	 0.6804161134	-0.239129
C	 0.3589336716	 0.9107623792	-0.2291531017	 0.148799
C	 1.3416879632	 2.0466616658	-0.0887794017	-0.320123
C	 0.9395789338	 3.3860923263	-0.79114124	 0.391117
O	 0.5432063494	 3.6383076804	-1.8876943776	-0.280194
C	 1.2174014289	 4.1937960353	 0.4813558357	-0.407919
C	 1.4845214202	 2.8638046216	 1.2080375857	 0.332156
C	 1.0899839422	 2.4736406972	 2.5779223355	-0.293674
N	 2.508660993	 2.7135113123	 2.2329537793	-0.366806
H	 0.1932764953	 0.6019751864	-1.2839908756	 0.104795
H	 2.3021138986	 1.7126508374	-0.5092431418	 0.134126
H	 2.0981166742	 4.8383830244	 0.3902387614	 0.149119
H	 0.3744105973	 4.7954524554	 0.8339272642	 0.144207
H	 0.6545476316	 3.2199868626	 3.2372177703	 0.121838
H	 0.7463723417	 1.4579681246	 2.7337783734	 0.146748
H	 2.9923328139	 1.824714501	 2.1244818096	 0.234942
37.7674	85.075	171.4643	200.8188	279.8109	306.7361	375.744	436.71	502.7172	546.7836	638.4193	726.7617	791.0767	813.0435	878.1073	914.754	936.924	972.2483	1000.9648	1027.1312	1059.0993	1078.0831	1107.8454	1129.538	1163.9197	1203.835	1259.9866	1278.7951	1290.8091	1401.6698	1422.7372	1436.9537	1517.6317	1815.5842	1900.3605	2901.564	3013.2844	3053.4328	3106.9191	3120.9323	3224.0331	3490.9428
O=CC1C(=O)CC11CN1	O=C[C@H]1C(=O)C[C@]21CN2	
InChI=1S/C6H7NO2/c8-2-4-5(9)1-6(4)3-7-6/h2,4,7H,1,3H2	InChI=1S/C6H7NO2/c8-2-4-5(9)1-6(4)3-7-6/h2,4,7H,1,3H2/t4-,6+/m0/s1
