21
gdb 115886	2.40596	1.4699	1.09835	1.3148	78.26	-0.2279	0.0776	0.3055	1193.8129	0.181801	-424.203568	-424.19443	-424.193486	-424.237348	34.348	
C	 0.0186628218	 1.3314220102	-0.1950385966	-0.237479
O	-0.0079974227	-0.0373630108	 0.1434714203	-0.244804
C	-1.3051474771	-0.5999967166	 0.1454536856	 0.044419
C	-1.8686292824	-0.8520821717	-1.2820075306	-0.121753
O	-2.5947337449	-2.0744675703	-1.2383090795	-0.258868
C	-2.1008544424	-2.8308880496	-0.1604513905	 0.071725
C	-0.6153698743	-3.0538511774	-0.0536229004	-0.365958
C	-1.3005474464	-1.9791684974	 0.7819660403	 0.29518
C	-1.3481007808	-2.0771294357	 2.285996988	-0.493762
H	 1.0533996944	 1.6688223475	-0.097646851	 0.129142
H	-0.3125523646	 1.5152089333	-1.2283214227	 0.108011
H	-0.6146495644	 1.928715537	 0.479902972	 0.105193
H	-1.983735721	 0.0548490374	 0.717294347	 0.064205
H	-2.5506603976	-0.0735108223	-1.6345113644	 0.108227
H	-1.0221419512	-0.9138871379	-1.9815486746	 0.103631
H	-2.8080834879	-3.5863452637	 0.1625463724	 0.099886
H	-0.2840410877	-3.9406857504	 0.4766778061	 0.110319
H	 0.0290102156	-2.7560734761	-0.8727328653	 0.123469
H	-0.4425501137	-1.6503542888	 2.7311489615	 0.130278
H	-2.210198032	-1.5363800577	 2.6944398617	 0.11461
H	-1.4205089607	-3.1187554288	 2.6141561206	 0.114326
88.8006	109.9835	173.2714	205.2546	217.8994	237.2348	283.387	327.8695	430.0754	464.1802	502.7171	572.6881	687.1229	724.4914	830.6923	854.6593	909.4261	964.7114	1002.8805	1006.1076	1020.2633	1034.6165	1050.0896	1068.7631	1103.5568	1129.3939	1150.3246	1166.1864	1182.7945	1225.267	1231.5796	1262.9722	1296.1832	1328.6997	1354.508	1382.3273	1415.4827	1425.1763	1479.5135	1487.3399	1489.9631	1491.368	1503.3519	1509.0329	1522.7904	2959.5482	2974.1032	2999.2356	3020.6129	3023.1993	3084.7581	3085.3854	3099.1999	3113.8818	3134.7878	3179.1305	3222.5399
COC1COC2CC12C	CO[C@H]1CO[C@H]2C[C@@]12C	
InChI=1S/C7H12O2/c1-7-3-5(7)9-4-6(7)8-2/h5-6H,3-4H2,1-2H3	InChI=1S/C7H12O2/c1-7-3-5(7)9-4-6(7)8-2/h5-6H,3-4H2,1-2H3/t5-,6-,7+/m0/s1
