21
gdb 59810	3.841	0.87446	0.85611	3.3625	84.09	-0.2179	0.0623	0.2802	1500.8804	0.183229	-420.433397	-420.423874	-420.42293	-420.469032	34.808	
C	-0.0555133831	 1.5109960446	-0.1197987234	-0.364896
C	 0.0170029428	-0.0173849116	-0.0116776243	 0.053912
C	 0.8482117385	-0.6139277733	-1.1546707937	-0.364826
N	 0.6401912907	-0.3710783883	 1.2609143	-0.38357
C	 0.0142739081	-1.0682396329	 2.1024518067	 0.489196
N	 0.4874066117	-1.4093273043	 3.3663095243	-0.361165
C	-0.2643563112	-2.5476910182	 3.8680128126	-0.183854
C	-1.6021514794	-2.2926388866	 3.1595792806	-0.078163
O	-1.2387407724	-1.613421861	 1.9522892022	-0.252049
H	 0.9466112715	 1.9450875753	-0.0410236535	 0.115306
H	-0.4922511125	 1.8146711372	-1.0773887341	 0.099989
H	-0.6676942938	 1.9290666715	 0.6849846538	 0.107684
H	-1.0041500343	-0.4172080153	-0.0832341189	 0.077613
H	 1.8783867742	-0.245795283	-1.107372916	 0.114917
H	 0.8767918596	-1.7057627852	-1.0864311305	 0.104722
H	 0.4260957907	-0.3418073829	-2.1280825684	 0.101056
H	 1.4910465695	-1.390489677	 3.4598785798	 0.254094
H	 0.1665704191	-3.515934053	 3.5712935025	 0.108212
H	-0.3612713891	-2.5285732522	 4.9569124898	 0.119142
H	-2.1425748106	-3.2044390692	 2.8981845442	 0.123011
H	-2.2530161099	-1.6432441744	 3.7570119062	 0.11967
17.6065	105.0343	153.0096	167.7698	222.4234	222.8148	255.8102	312.3298	438.259	455.8079	496.9613	552.5858	687.1798	723.6205	751.5515	840.7583	894.2809	911.0181	927.9356	950.3957	954.9101	991.4329	1061.7067	1095.5308	1135.3095	1141.7481	1166.8651	1188.065	1215.0356	1238.6991	1252.5755	1338.5189	1363.8581	1382.843	1391.3665	1409.1074	1413.1798	1432.4618	1481.2573	1487.221	1494.1277	1509.4038	1517.3238	1530.1217	1806.1123	2986.7457	3003.8714	3028.19	3032.942	3036.3719	3084.1415	3099.3057	3104.3687	3105.7236	3109.9158	3114.52	3636.1068
CC(C)N=C1NCCO1	CC(C)N=C1NCCO1	
InChI=1S/C6H12N2O/c1-5(2)8-6-7-3-4-9-6/h5H,3-4H2,1-2H3,(H,7,8)	InChI=1S/C6H12N2O/c1-5(2)8-6-7-3-4-9-6/h5H,3-4H2,1-2H3,(H,7,8)
