18
gdb 62589	2.95083	1.6099	1.33953	3.1942	75.25	-0.247	-0.0135	0.2335	1006.7018	0.146904	-401.913828	-401.905908	-401.904963	-401.945773	31.135	
C	 0.0584443826	 1.5590423061	 0.0838564001	-0.463444
C	 0.0691996673	 0.0342302859	 0.0238098282	 0.294094
C	-1.3434302741	-0.5432412661	 0.1466742456	-0.444481
C	 0.8389964244	-0.6704954184	-1.1013930747	-0.061563
C	 2.3057916593	-0.7298195756	-0.7843543806	-0.200102
N	 1.3216614707	-1.7674557332	-0.2283886378	-0.15491
C	 1.0773424755	-0.7311963111	 0.9307002769	-0.180733
C	 2.4562271242	-0.1663721045	 0.5910281136	 0.467756
O	 3.3563811009	 0.3106166761	 1.2206308076	-0.339814
H	 1.0608006858	 1.9826560298	-0.0242551764	 0.132122
H	-0.5710873283	 1.9699722285	-0.7129212699	 0.120478
H	-0.3512899373	 1.9059437385	 1.0388257729	 0.125465
H	-1.9743297511	-0.1947151423	-0.678932365	 0.117834
H	-1.3310239541	-1.6364917487	 0.1283002057	 0.137197
H	-1.8113736528	-0.2194370489	 1.0822323132	 0.12045
H	 0.4964760823	-0.8738425346	-2.112288722	 0.103739
H	 3.0603460219	-0.9850561181	-1.5174113095	 0.124136
H	 0.8255142729	-1.0713649537	 1.9328627321	 0.101774
134.707	192.9624	209.3014	253.5279	265.5937	341.7247	356.9211	453.947	522.6013	613.4444	629.2108	721.9798	757.6402	815.1981	836.9355	868.1176	891.9861	955.118	962.8504	987.006	1021.6663	1029.6326	1036.424	1093.843	1137.4164	1144.8064	1168.4469	1221.1753	1244.9746	1249.1728	1306.236	1356.1395	1403.4827	1424.5575	1483.9269	1486.568	1503.661	1507.7874	1890.4873	3028.8656	3033.9588	3093.2196	3098.6577	3112.3464	3116.628	3153.2356	3155.2613	3210.0337
CC1(C)C2C3N2C1C3=O	CC1(C)[C@H]2[C@@H]3N2[C@H]1C3=O	
InChI=1S/C7H9NO/c1-7(2)5-3-4(9)6(7)8(3)5/h3,5-6H,1-2H3	InChI=1S/C7H9NO/c1-7(2)5-3-4(9)6(7)8(3)5/h3,5-6H,1-2H3/t3-,5-,6+,8?/m1/s1
