17
gdb 8303	6.01226	0.94725	0.88596	1.3619	66.4	-0.2629	0.0262	0.2891	1284.0445	0.141841	-400.995225	-400.986943	-400.985999	-401.028685	29.689	
O	 0.3579650624	 1.3504589215	 0.3090095625	-0.416177
C	 0.1308651713	-0.0036408371	-0.0437434021	-0.065056
C	-1.2898888192	-0.4675924314	 0.2944471991	-0.220776
C	-1.5263667179	-1.9277240888	-0.0298486798	 0.128853
C	-2.9768468903	-2.4574546187	-0.0279920378	-0.383192
C	-2.7349135237	-2.6789452242	-1.5060528419	 0.440363
N	-3.4138445194	-3.1358702502	-2.454895796	-0.537872
O	-1.4424733339	-2.1934827524	-1.4782476116	-0.267125
H	-0.1685590926	 1.9016348999	-0.2785077644	 0.28374
H	 0.3357519256	-0.1879709361	-1.1079754839	 0.111276
H	 0.8587479688	-0.5864084627	 0.5321494412	 0.112746
H	-1.4749262306	-0.3062191146	 1.3635699553	 0.116238
H	-2.0187813315	 0.1423864915	-0.2562458223	 0.096863
H	-0.8114114605	-2.574346841	 0.4898735984	 0.096088
H	-3.1603748825	-3.3657516344	 0.547600809	 0.139462
H	-3.7462848002	-1.7177985168	 0.2021711925	 0.136687
H	-2.8832744957	-3.1282641344	-3.3277793682	 0.227881
64.3512	100.0813	116.378	169.2279	293.7206	335.647	356.7647	462.6261	490.8241	512.6145	716.7378	788.4492	838.991	867.4162	906.4515	941.7982	988.9567	1018.3886	1053.5178	1068.1567	1077.4859	1105.9377	1125.7501	1207.7291	1228.8	1245.0439	1271.5798	1318.6902	1345.2725	1385.7946	1414.4147	1422.5203	1466.4702	1473.3437	1513.5159	1826.6608	3006.4806	3018.4422	3052.9437	3059.876	3081.8262	3086.2608	3141.5656	3475.9088	3817.634
OCCC1CC(=N)O1	OCC[C@H]1C[C]([NH])O1	
InChI=1S/C5H9NO2/c6-5-3-4(8-5)1-2-7/h4,6-7H,1-3H2	InChI=1S/C5H9NO2/c6-5-3-4(8-5)1-2-7/h4,6-7H,1-3H2/t4-/m0/s1
