16
gdb 6329	3.95325	1.36021	1.02486	4.5253	65.47	-0.2616	-0.0012	0.2605	1115.4679	0.127959	-417.109984	-417.100593	-417.099649	-417.145762	31.745	
C	-0.8885506167	 1.2269916018	-0.7165981597	-0.337423
N	-0.4856756916	-0.1337723033	-0.4261051258	-0.292995
C	 0.6386204491	-0.5788888935	-0.8050464168	 0.449681
C	 1.7159134439	 0.1485890423	-1.5780574362	-0.489496
O	 1.0566139395	-1.8529937722	-0.5516179447	-0.267038
C	 0.3802278517	-2.8818889419	 0.1380734115	 0.463
N	-0.8376566888	-2.560788542	 0.6073261257	-0.552851
O	 0.9524198183	-3.9322157022	 0.237538794	-0.362357
H	-0.1530443975	 1.8186179038	-1.2740693273	 0.114554
H	-1.8213026836	 1.2117428084	-1.2918077858	 0.135625
H	-1.1033603884	 1.7475199404	 0.2236012786	 0.135651
H	 2.0652494884	 1.0242842729	-1.0234162933	 0.150272
H	 2.558105544	-0.5192015631	-1.752139149	 0.15937
H	 1.3327546618	 0.4970242717	-2.5414105801	 0.150063
H	-1.1971468268	-1.6229471517	 0.4446497107	 0.278233
H	-1.3374787831	-3.2792138013	 1.1011371281	 0.265709
28.12	58.6012	72.4013	109.9651	214.8925	264.2522	316.321	370.6095	406.4818	425.3669	561.3174	567.0297	658.8449	725.2496	779.0136	802.5189	899.9326	1017.9973	1054.7858	1112.2894	1134.5878	1154.2366	1177.4345	1260.6662	1327.3819	1399.6446	1448.6378	1476.2043	1479.2644	1501.2184	1505.5051	1583.3491	1747.5333	1885.7854	3017.4902	3055.0963	3079.9749	3084.0005	3116.118	3166.905	3413.2445	3707.1356
CN=C(C)OC(N)=O	CN=C(C)OC(=O)N	
InChI=1S/C4H8N2O2/c1-3(6-2)8-4(5)7/h1-2H3,(H2,5,7)	InChI=1S/C4H8N2O2/c1-3(6-2)8-4(5)7/h1-2H3,(H2,5,7)
