21
gdb 61844	3.64056	0.83003	0.72032	3.7155	80.	-0.2456	-0.0173	0.2283	1579.0203	0.180418	-424.221444	-424.21148	-424.210536	-424.257684	34.98	
C	-0.0699019363	 1.7300102409	 0.0400039898	-0.405415
C	-0.0929844854	 0.1960546277	 0.0292211058	-0.011781
C	 0.684177027	-0.4068189866	 1.2192167804	-0.280245
C	 2.172062085	-0.1898872321	 1.0939715353	 0.155667
O	 2.8694814804	 0.3587928044	 1.9081981864	-0.243277
C	-1.5262755163	-0.3254809383	 0.0331823169	 0.162641
C	-2.356748811	-0.2048525895	-1.2659855507	-0.300667
C	-2.4589609717	-1.7393569288	-1.172855864	-0.064879
O	-1.5881346111	-1.7715894781	-0.0215027407	-0.297124
H	 0.9547449378	 2.112634154	 0.0197305201	 0.13177
H	-0.5984813772	 2.143282569	-0.8249860302	 0.119094
H	-0.547816213	 2.1213615795	 0.9452911807	 0.124021
H	 0.3772433222	-0.1633920849	-0.8977475296	 0.075686
H	 0.3436871717	 0.0096158594	 2.1726988208	 0.113499
H	 0.5040135035	-1.490312888	 1.2239227841	 0.141946
H	 2.6084538248	-0.5890370512	 0.1464269417	 0.068451
H	-2.0497502675	 0.0471278923	 0.9269822823	 0.073687
H	-3.2943642733	 0.3467862502	-1.1903994855	 0.113953
H	-1.7910815571	 0.1636240932	-2.1246793364	 0.111033
H	-3.4583541211	-2.1245775198	-0.9355083493	 0.105005
H	-2.0491475314	-2.3121315132	-2.0125488778	 0.106935
54.9372	60.6925	91.488	102.2078	155.174	215.7165	235.7366	291.6966	388.8023	406.7691	474.619	536.3411	748.0339	789.6929	818.8132	868.9841	912.8913	947.0481	961.2269	971.0335	1012.9897	1031.1087	1037.7463	1083.4504	1120.871	1153.4669	1168.1326	1187.3179	1212.9254	1230.5464	1256.1182	1273.1821	1289.7787	1328.5489	1358.6849	1367.4176	1401.507	1417.3903	1430.7492	1465.3302	1490.2237	1496.3903	1500.631	1532.4503	1833.4453	2840.3565	2982.1972	3005.3952	3019.5285	3027.1502	3033.4832	3060.6608	3076.1464	3093.6798	3099.9146	3109.4455	3134.0351
CC(CC=O)C1CCO1	C[C@@H](CC=O)[C@H]1CCO1	
InChI=1S/C7H12O2/c1-6(2-4-8)7-3-5-9-7/h4,6-7H,2-3,5H2,1H3	InChI=1S/C7H12O2/c1-6(2-4-8)7-3-5-9-7/h4,6-7H,2-3,5H2,1H3/t6-,7+/m0/s1
