17
gdb 52163	4.43522	0.82282	0.79264	3.2906	69.11	-0.244	-0.0305	0.2135	1439.4741	0.133322	-458.896971	-458.888315	-458.887371	-458.932119	30.239	
O	-0.1119594772	 0.1311066202	 0.064234833	-0.236965
C	 0.0562780782	 1.2963186736	-0.1775684364	 0.137131
C	 1.4198635281	 1.9074950325	-0.4501434026	-0.150917
O	 1.2507044755	 3.2990222588	-0.6054339444	-0.248443
C	 2.4156286378	 3.9637437447	-0.9674208954	 0.112943
C	 2.9436465994	 3.9772847986	-2.3864143482	-0.206149
C	 1.7652938576	 4.1163262271	-3.3489288638	-0.081353
O	 1.2437798551	 5.2649395492	-2.6323251327	-0.271492
C	 2.3479039619	 5.2341125331	-1.7392837428	 0.047244
H	-0.778481762	 2.0290984993	-0.2277365082	 0.104008
H	 2.0947204366	 1.6635476384	 0.3860549113	 0.125747
H	 1.843835908	 1.4440103201	-1.3553264323	 0.127564
H	 3.2075819405	 3.942146498	-0.215233979	 0.096959
H	 3.9586883705	 3.7182202261	-2.6566946589	 0.104816
H	 2.0636742201	 4.4032218404	-4.3623232702	 0.11564
H	 1.0457759804	 3.2914714288	-3.3890976256	 0.111506
H	 2.7687641595	 6.1820890413	-1.4220159137	 0.11176
43.1984	58.9928	96.5189	121.4935	228.5809	259.926	342.2508	485.0509	553.7954	661.8096	731.9429	740.4262	807.9342	825.4396	937.6996	967.7436	971.9257	1016.2146	1028.9063	1051.5543	1064.0628	1082.8945	1111.8964	1120.6239	1139.2422	1169.4278	1223.6474	1236.3723	1264.6348	1314.6188	1337.5802	1361.6716	1403.7214	1447.4899	1485.1787	1508.9688	1845.0625	2905.2729	2975.8824	3008.811	3037.2787	3084.397	3087.3001	3172.9622	3201.0342
O=CCOC1C2COC12	O=CCO[C@H]1[C@H]2CO[C@@H]12	
InChI=1S/C6H8O3/c7-1-2-8-5-4-3-9-6(4)5/h1,4-6H,2-3H2	InChI=1S/C6H8O3/c7-1-2-8-5-4-3-9-6(4)5/h1,4-6H,2-3H2/t4-,5+,6-/m1/s1
