18
gdb 51137	3.91234	1.16457	1.07888	3.4223	77.69	-0.2315	0.0138	0.2454	1153.4093	0.148672	-401.969593	-401.96162	-401.960676	-402.002768	30.559	
O	 0.0106770177	 0.3593790412	 1.1711775539	-0.316388
C	 0.0468653796	 1.343177024	 0.4672260051	 0.13775
N	 1.1514254606	 1.8105794181	-0.1854827013	-0.375899
C	 2.4115278742	 1.1335112252	-0.1885903985	 0.386213
C	 3.1525233972	 1.02116277	 1.1129599136	-0.275942
C	 3.7102689282	 1.9079104698	 0.0146627091	-0.160364
C	 4.6942727872	 1.2594727157	-0.8984923039	-0.067285
C	 4.1537154822	 0.2364356973	-1.5661044582	-0.084192
C	 2.682576049	 0.0648444481	-1.2566046705	-0.317975
H	-0.833402077	 1.9942983264	 0.2865478209	 0.070595
H	 1.0209255932	 2.5830669228	-0.8217363855	 0.244286
H	 2.6919859368	 1.5098526993	 1.9631848319	 0.125452
H	 3.6697886348	 0.0944541321	 1.3364134792	 0.118679
H	 3.7158720422	 2.9817273522	 0.1702792225	 0.088368
H	 5.7279482797	 1.5787752079	-0.9644943865	 0.098444
H	 4.6840568811	-0.4178593131	-2.248327257	 0.09722
H	 2.4362672855	-0.9406789213	-0.8958603231	 0.128571
H	 2.0585459378	 0.2370093844	-2.1447581916	 0.102466
35.8136	129.7362	203.4414	235.7434	336.1948	379.7042	429.0583	491.2413	532.9368	570.1478	716.4423	743.789	765.2947	809.9081	868.0939	918.4777	948.0203	955.4404	975.6535	1002.3956	1015.7189	1033.829	1043.3811	1068.3516	1080.7478	1140.7647	1155.5406	1173.8981	1252.6935	1267.0528	1307.8348	1366.9288	1395.1099	1434.236	1469.9353	1485.5567	1506.7862	1666.7453	1813.8267	2919.2643	3012.6837	3058.5148	3139.1695	3163.7418	3189.1182	3213.1676	3233.3628	3604.1136
O=CNC12CC1C=CC2	O=CN[C@]12C[C@H]1C=CC2	
InChI=1S/C7H9NO/c9-5-8-7-3-1-2-6(7)4-7/h1-2,5-6H,3-4H2,(H,8,9)	InChI=1S/C7H9NO/c9-5-8-7-3-1-2-6(7)4-7/h1-2,5-6H,3-4H2,(H,8,9)/t6-,7-/m1/s1
