15
gdb 26053	3.42814	1.23512	0.94696	2.6126	72.54	-0.2231	0.0149	0.238	1181.0674	0.112971	-416.799247	-416.790998	-416.790054	-416.832751	30.537	
O	 0.1810191804	 1.4719775401	 0.0542983002	-0.425966
C	 0.117047722	 0.0412476299	 0.0160952852	-0.167727
C	 0.6224525704	-0.5000068864	-1.2439821218	 0.326623
C	 1.0536016411	-0.8879396927	-2.2954497691	-0.443529
C	 0.8272996516	-0.5386612571	 1.2198010812	 0.338173
N	 1.2408356205	-1.7716141092	 1.3974284964	-0.305748
C	 1.7503293731	-1.8011036762	 2.6760509574	-0.091179
C	 1.6398212544	-0.5708132573	 3.2696273465	-0.111286
N	 1.041984039	 0.2302135398	 2.323502013	-0.268429
H	 1.025217172	 1.7274114122	-0.3355301798	 0.291789
H	-0.9546770912	-0.1867729395	 0.0943488708	 0.144266
H	 1.431549481	-1.2522195539	-3.218910923	 0.206205
H	 2.1711091691	-2.7039724973	 3.0917268872	 0.108174
H	 1.9269307386	-0.1962023039	 4.2378418401	 0.128322
H	 0.8051146181	 1.2063400015	 2.3881924857	 0.270311
40.922	115.3801	177.6866	228.1353	279.0023	327.5603	420.5682	471.1889	576.0733	597.3992	635.2694	665.5656	679.1681	684.5068	735.0288	819.3035	858.0733	920.9629	942.7663	1009.322	1054.6397	1097.7757	1136.0765	1181.4955	1248.454	1253.9875	1321.563	1395.5168	1407.3988	1465.9139	1501.0147	1577.8884	2243.9476	3017.1042	3249.0391	3281.7503	3502.9315	3666.6071	3801.4509
OC(C#C)C1=NC=CN1	O[C@@H](C#C)c1ncc[nH]1	
InChI=1S/C6H6N2O/c1-2-5(9)6-7-3-4-8-6/h1,3-5,9H,(H,7,8)	InChI=1S/C6H6N2O/c1-2-5(9)6-7-3-4-8-6/h1,3-5,9H,(H,7,8)/t5-/m0/s1
