19
gdb 74668	3.29133	1.66051	1.30103	0.3955	87.56	-0.1854	-0.0137	0.1717	1022.4719	0.160568	-348.699112	-348.691831	-348.690887	-348.730381	29.848	
C	-0.0114729217	 1.5062268986	 0.1926114549	-0.497081
C	-0.196751111	 0.0358751736	 0.0442590496	 0.253833
C	 0.0726338723	-0.7605211448	-1.0084466627	-0.173909
C	-0.2480899413	-2.2147055213	-0.7269332659	-0.077273
C	 0.1272410195	-3.1268134636	 0.5446833025	-0.047617
C	 1.0078863279	-2.7486635632	 1.7410861755	-0.26234
C	 0.6045911794	-1.2941259727	 1.9626279376	-0.097761
C	-0.4209908825	-0.9628798038	 1.1566878475	 0.007498
C	-1.0418317477	-2.2098392526	 0.5344309576	-0.120542
H	 0.7441941399	 1.7368311743	 0.9553480141	 0.127669
H	 0.3064572056	 1.9656120471	-0.747401457	 0.124231
H	-0.9391857344	 1.9924078326	 0.5176583949	 0.130566
H	 0.4412148998	-0.4171845184	-1.9690505569	 0.089668
H	-0.5561093931	-2.8305318516	-1.5671967437	 0.082543
H	-0.0009844661	-4.1830538009	 0.3210597311	 0.080133
H	 0.842302588	-3.4430873959	 2.5801631553	 0.100861
H	 2.0854972631	-2.7766884103	 1.5295333527	 0.110051
H	 1.3224908705	-0.5736317424	 2.3441611913	 0.089313
H	-2.0937239183	-2.4608202348	 0.6368727214	 0.080156
144.4273	188.2795	249.3636	267.4443	349.4625	434.1291	534.1243	565.6521	617.1265	679.5636	747.2612	763.845	811.1565	824.2596	839.6945	854.482	906.1939	936.4948	970.5753	987.4702	995.7248	1020.0302	1037.4421	1062.9993	1077.411	1110.0923	1140.7391	1186.7749	1222.3666	1249.3959	1281.0213	1301.6007	1317.26	1338.1917	1379.6728	1414.1839	1475.9949	1477.8024	1486.1597	1611.9721	1650.4348	2974.0542	3015.2031	3027.0143	3062.1087	3109.3597	3135.8643	3140.1403	3154.3841	3165.3923	3189.3502
CC1=CC2C3CC=C1C23	CC1=C[C@H]2[C@H]3C[CH][C]1[C@@H]23	
InChI=1S/C9H10/c1-5-4-8-7-3-2-6(5)9(7)8/h2,4,7-9H,3H2,1H3	InChI=1S/C9H10/c1-5-4-8-7-3-2-6(5)9(7)8/h2,4,7-9H,3H2,1H3/t7-,8+,9-/m1/s1
