19
gdb 26466	3.35299	1.35579	1.23067	3.5775	81.93	-0.2133	0.044	0.2572	1103.5529	0.160494	-382.083119	-382.074797	-382.073853	-382.116197	31.589	
C	-0.2050754194	 1.5669759237	 0.0058994658	-0.437167
C	-0.0383050592	 0.0470039216	-0.0062986974	 0.14087
C	-1.3422931073	-0.6732311955	 0.3388812069	-0.437166
C	 0.6977315183	-0.5197852354	-1.3058806109	-0.214886
N	 1.7880494016	-0.93950623	-0.407601785	 0.012514
C	 2.9946937133	-1.5014763252	-0.0603004921	-0.18014
C	 3.0388820026	-1.3201900948	 1.3104927024	-0.093433
N	 1.9116458478	-0.6749401609	 1.8033155304	-0.384131
C	 1.2065234832	-0.477712197	 0.7152324697	 0.362164
H	 0.7270666092	 2.0738568848	-0.2604485152	 0.123912
H	-0.9834055184	 1.8797358815	-0.6989723965	 0.115112
H	-0.4977323831	 1.908413659	 1.0035753366	 0.135153
H	-2.1383993021	-0.3955386418	-0.3608041495	 0.115114
H	-1.2190707974	-1.7598352868	 0.3094513078	 0.12392
H	-1.6703265046	-0.4014154485	 1.3468966231	 0.135162
H	 0.1925733468	-1.3517090673	-1.8043112966	 0.125066
H	 0.9969302611	 0.233239819	-2.0401477665	 0.125045
H	 3.6803170606	-1.9530140295	-0.7563120382	 0.128581
H	 3.833040907	-1.6246146768	 1.9762983853	 0.10431
53.4255	126.3018	217.8821	228.5031	286.5479	289.6559	331.9466	431.9649	523.6045	611.5229	622.335	715.0768	721.0008	755.558	832.6309	832.827	921.0294	929.106	960.0464	985.28	1032.4217	1052.0404	1100.6166	1136.6951	1141.4476	1184.4277	1244.2891	1244.4856	1257.3609	1292.9098	1402.4389	1407.6596	1422.2334	1433.966	1472.368	1480.1926	1486.6448	1500.1987	1501.844	1517.9497	1573.3582	3030.244	3034.3935	3053.1032	3099.9914	3104.3481	3107.7546	3112.9706	3113.5404	3243.6693	3286.9012
CC1(C)CN2C=CN=C12	CC1(C)Cn2ccnc12	
InChI=1S/C7H10N2/c1-7(2)5-9-4-3-8-6(7)9/h3-4H,5H2,1-2H3	InChI=1S/C7H10N2/c1-7(2)5-9-4-3-8-6(7)9/h3-4H,5H2,1-2H3
