17
gdb 22949	2.46953	1.13097	0.81209	3.2731	75.47	-0.2567	-0.0166	0.2401	1375.1734	0.134265	-455.080814	-455.071597	-455.070653	-455.116198	32.421	
O	 0.0708342994	 1.1207791766	-0.1000745131	-0.38481
N	 0.0544413443	-0.268594256	 0.0788549265	-0.22929
C	-1.1194865601	-0.732939275	 0.0052956385	 0.395212
C	-2.5119028583	-0.2167591113	-0.2938803416	-0.327703
C	-2.9473649434	-1.7044867701	-0.4956638557	-0.256114
C	-1.5837734586	-2.1822113906	 0.0724676685	 0.03791
O	-0.9382260142	-3.1361056463	-0.7502741439	-0.189381
C	 0.2761305461	-3.5649251565	-0.3364256363	 0.13258
N	 0.9094943342	-4.404084753	-1.0331509173	-0.441431
H	 1.0121045351	 1.3234979769	-0.0594278644	 0.311081
H	-2.9814025828	 0.2798475956	 0.5606354443	 0.131374
H	-2.5903843411	 0.4451432879	-1.1592790014	 0.139201
H	-3.8356560241	-2.0401468702	 0.0398723445	 0.114521
H	-3.0312536803	-1.976472115	-1.5487916462	 0.138472
H	-1.65173167	-2.5535078465	 1.1038737457	 0.099876
H	 0.6026641511	-3.115454412	 0.60910709	 0.099335
H	 1.7954425728	-4.6263553546	-0.583813548	 0.229166
50.8669	67.8793	81.4715	169.8396	180.8808	229.7812	343.6823	394.1387	413.0547	492.4239	559.4543	642.7697	711.2176	760.4708	819.0487	834.4893	931.6766	945.8141	993.2436	1024.2489	1040.1287	1060.1001	1116.2079	1141.7728	1174.1025	1209.285	1228.0619	1268.3043	1272.8046	1292.0075	1363.6239	1408.6485	1428.4762	1460.7357	1484.3976	1746.3923	1784.7012	3012.5039	3050.8291	3062.8759	3090.3586	3111.5275	3151.1735	3517.6602	3812.2153
ON=C1CCC1OC=N	ON=C1CC[C@H]1O[CH][NH]	
InChI=1S/C5H8N2O2/c6-3-9-5-2-1-4(5)7-8/h3,5-6,8H,1-2H2	InChI=1S/C5H8N2O2/c6-3-9-5-2-1-4(5)7-8/h3,5-6,8H,1-2H2/t5-/m1/s1
