22
gdb 60100	3.71474	0.9693	0.89947	3.0475	82.52	-0.2213	0.0632	0.2846	1398.3147	0.194017	-404.27036	-404.261207	-404.260263	-404.304898	35.045	
C	-0.0451273795	 1.5837879133	 0.045245632	-0.401237
C	-0.0017620463	 0.0564236563	-0.0030438184	 0.138002
O	 0.8211227709	-0.4687116112	 1.037838077	-0.425398
C	-1.4050923349	-0.5685754571	 0.0171744816	-0.376614
C	-1.4095372297	-2.0751725324	-0.11737558	 0.348114
C	-0.7877261054	-3.1592495101	 0.7970301929	-0.195298
N	-1.4423095783	-4.0171992676	-0.3001354319	-0.148794
C	-2.6203135193	-3.0380395834	-0.1643492905	-0.219236
C	-0.8653287583	-2.966795516	-1.2645576103	-0.205055
H	 0.969424806	 1.9911330865	 0.0527245294	 0.12495
H	-0.5798116357	 1.9943647563	-0.8173941842	 0.116599
H	-0.5599998901	 1.929405939	 0.9506736853	 0.106301
H	 0.5056559116	-0.2547803573	-0.9248688218	 0.092681
H	 0.4358323821	-0.1989000651	 1.8792294289	 0.276413
H	-1.9085851217	-0.2839505622	 0.9537797964	 0.086238
H	-2.0019243091	-0.1322374526	-0.7950880095	 0.098967
H	 0.3002107681	-3.2381284935	 0.8299737741	 0.111699
H	-1.2302697417	-3.3109596708	 1.7867852494	 0.08843
H	-3.2020347567	-3.1803836852	 0.7518014644	 0.093687
H	-3.2693985506	-3.0104557115	-1.0452761931	 0.093708
H	-1.3783241363	-2.9345405695	-2.2309050748	 0.093046
H	 0.2181297249	-3.0438760359	-1.3917729066	 0.102796
37.2991	90.0721	129.0353	238.9516	274.2142	299.5289	309.6597	323.0417	456.5157	472.9356	584.1569	590.4386	680.7027	772.3777	794.2895	840.5139	878.9515	896.0979	938.7173	952.1247	973.5591	977.5094	994.4877	1024.6243	1056.4816	1080.4214	1115.4365	1146.9487	1167.6756	1168.2207	1177.5671	1196.7469	1200.8437	1246.7053	1262.2184	1311.2722	1334.0758	1341.2493	1388.2973	1402.3165	1421.0837	1467.2984	1491.6289	1495.1524	1510.18	1513.4597	1566.7303	2993.9448	3023.1595	3032.6321	3035.8197	3041.5612	3046.0664	3051.9836	3094.0114	3101.3274	3109.1935	3118.7709	3128.6038	3794.5821
CC(O)CC12CN(C1)C2	C[C@@H](O)C[C@@]12CN(C1)C2	
InChI=1S/C7H13NO/c1-6(9)2-7-3-8(4-7)5-7/h6,9H,2-5H2,1H3	InChI=1S/C7H13NO/c1-6(9)2-7-3-8(4-7)5-7/h6,9H,2-5H2,1H3/t6-/m1/s1
