16
gdb 71435	3.8997	1.22701	1.21081	3.1136	69.8	-0.2253	0.0166	0.2419	1051.8977	0.12413	-437.832262	-437.824862	-437.823918	-437.864136	28.854	
O	 0.0603767069	 1.2638086402	 0.0075278785	-0.452047
C	 0.064946192	-0.1102915321	 0.0163803512	 0.358964
C	 0.8933000338	-1.0706722401	-0.8455561711	-0.303167
C	-0.1378032689	-2.1481655218	-0.3905907216	-0.037691
C	-1.1581960424	-0.9867538223	-0.0648873892	-0.148449
C	-0.4176729996	-0.9409007022	 1.2443390201	-0.121536
N	 0.1020399441	-2.2904145998	 1.0691929008	-0.040539
C	 1.1755971342	-2.8963776415	 1.6544918099	 0.131419
O	 1.8571336882	-3.7496132982	 1.1268120281	-0.324092
H	 0.8091934265	 1.5786674981	 0.5267778793	 0.292649
H	 0.7750256766	-0.8308252896	-1.9048833598	 0.11774
H	 1.9435668404	-1.2615219512	-0.6061267032	 0.114555
H	-0.3235314876	-3.0531885861	-0.9599436769	 0.110567
H	-2.192584177	-0.8126640201	-0.3195795868	 0.1141
H	-0.7025617747	-0.5051453474	 2.1925870338	 0.117885
H	 1.3136991972	-2.5658385758	 2.7052240568	 0.069644
89.2394	167.1262	267.5802	304.9791	342.8646	355.5899	460.251	531.6205	552.7445	647.8953	726.3136	774.1875	794.2409	837.6953	876.8454	907.39	931.9647	990.3821	1030.0743	1031.3121	1044.8283	1109.0038	1120.8974	1127.4134	1157.465	1184.5956	1230.7849	1263.4245	1275.627	1309.8813	1374.3014	1426.0754	1438.6291	1502.2594	1788.7524	2916.2387	3057.595	3123.0217	3175.8419	3211.8557	3237.0178	3790.9104
OC12CC3C1C2N3C=O	O[C@]12C[C@@H]3[C@H]1[C@H]2N3C=O	
InChI=1S/C6H7NO2/c8-2-7-3-1-6(9)4(3)5(6)7/h2-5,9H,1H2	InChI=1S/C6H7NO2/c8-2-7-3-1-6(9)4(3)5(6)7/h2-5,9H,1H2/t3-,4+,5-,6-/m1/s1
