25
gdb 101668	3.7457	0.61611	0.60613	2.5786	85.79	-0.263	0.075	0.338	1953.6198	0.226072	-426.624068	-426.612094	-426.61115	-426.661717	42.784	
C	-0.0598441158	 1.5381050305	 0.1758385479	-0.392244
C	-0.0539868164	 0.0119841444	 0.0178564473	 0.028083
C	-1.4841631708	-0.526406234	-0.0662461581	-0.076928
O	-2.1570950622	-0.2173294558	 1.146660712	-0.424428
C	 0.7464063268	-0.4635325086	-1.2080459407	-0.200333
C	 2.2404760325	-0.09350986	-1.2287343746	 0.028078
C	 3.0198409516	-0.6768457201	-0.0428375871	-0.392243
C	 2.8594459351	-0.5438492539	-2.5540294101	-0.07692
O	 4.1905048194	-0.0509459978	-2.6235078729	-0.424431
H	 0.9388762711	 1.9299336941	 0.3876508045	 0.114099
H	-0.4207497113	 2.0227447206	-0.7402634538	 0.103048
H	-0.7210045834	 1.8285644039	 0.9951884001	 0.132047
H	 0.3838072804	-0.4284873174	 0.9227353667	 0.086169
H	-1.9975744369	-0.0727565082	-0.9310984454	 0.07948
H	-1.4590987773	-1.6153653249	-0.2337847287	 0.079684
H	-3.075258446	-0.4879751431	 1.0594658242	 0.285357
H	 0.6588811627	-1.5573861374	-1.283399738	 0.085803
H	 0.2701085416	-0.0569307344	-2.1122986406	 0.085795
H	 2.3379103401	 0.9993580231	-1.2036511189	 0.086161
H	 2.8859970277	-1.7646350921	 0.0134647871	 0.103055
H	 4.0866497239	-0.4727789019	-0.1573295962	 0.13206
H	 2.691189337	-0.2519377654	 0.9096737385	 0.114097
H	 2.841138292	-1.6454729221	-2.6128733705	 0.079476
H	 2.2554940916	-0.160447852	-3.3923426109	 0.07968
H	 4.5997140465	-0.3991140776	-3.4205052716	 0.285355
51.858	64.5058	100.8968	133.8498	140.0444	229.0305	236.4192	239.6768	245.9885	264.8347	267.4146	325.2916	338.18	411.2227	427.3637	524.5049	543.7689	814.9989	848.5581	884.3111	921.1883	926.123	937.4083	970.622	1040.5284	1062.7691	1070.0273	1087.4193	1119.4088	1166.916	1173.1386	1181.3972	1223.1255	1241.6187	1263.078	1269.3676	1292.0362	1310.8801	1337.1654	1375.5428	1388.2599	1388.9424	1405.3198	1406.0797	1455.589	1455.7505	1482.2568	1493.0838	1498.6329	1505.6953	1509.2054	1519.1069	1520.9199	2952.8231	2952.8837	2982.5226	2982.8425	2992.4527	3016.6433	3027.578	3028.0439	3034.1585	3046.6511	3097.703	3100.0021	3128.9188	3129.0664	3835.2105	3835.2378
CC(CO)CC(C)CO	C[C@@H](CO)C[C@@H](C)CO	
InChI=1S/C7H16O2/c1-6(4-8)3-7(2)5-9/h6-9H,3-5H2,1-2H3	InChI=1S/C7H16O2/c1-6(4-8)3-7(2)5-9/h6-9H,3-5H2,1-2H3/t6-,7-/m1/s1
