18
gdb 87629	2.55321	1.52099	1.22352	1.9202	72.8	-0.2275	0.0226	0.2502	1072.2576	0.14736	-439.083507	-439.07507	-439.074125	-439.116745	32.033	
C	-0.331171101	 1.4374883111	 0.0507916794	-0.403525
C	 0.0681356702	-0.0253606189	-0.0262355602	 0.040969
O	 1.080859049	-0.1903942401	-1.0677979805	-0.237956
C	 2.1311894098	-0.7949580498	-0.4722867437	 0.097308
N	 2.0793711308	-1.0810235615	 0.76378643	-0.310668
C	 0.7760612633	-0.6283560833	 1.2012944251	 0.309115
C	 0.6243486005	-0.1143877429	 2.6172747413	-0.385868
C	 0.0286779821	-1.4426117072	 2.215925508	 0.047555
O	-1.3509789923	-1.5329675787	 2.002302524	-0.424156
H	 0.5074333106	 2.0576638889	 0.3803952941	 0.126394
H	-0.6654284613	 1.7895882578	-0.9289807714	 0.128127
H	-1.1579931111	 1.560702626	 0.7563159128	 0.12609
H	-0.791178465	-0.6371632867	-0.3163983796	 0.113896
H	 2.9718867954	-0.9930413468	-1.1275509773	 0.138392
H	 1.5141463807	-0.1157152942	 3.2363312792	 0.126401
H	-0.0637103051	 0.7071716409	 2.7859863952	 0.114715
H	 0.5122508908	-2.3507305905	 2.5714835853	 0.100976
H	-1.7912666875	-1.496119104	 2.8577932684	 0.292236
48.1646	161.3418	218.3384	236.4904	250.6269	296.4413	355.859	433.5914	451.1442	501.4238	566.9037	607.4911	747.1778	838.5948	844.6506	861.0235	926.5358	933.1188	962.7729	999.9977	1038.7629	1064.929	1081.376	1098.353	1132.4427	1141.183	1168.6679	1219.473	1284.2646	1294.9838	1335.0217	1354.5645	1387.1051	1405.069	1415.6783	1478.2214	1489.3259	1495.5371	1692.0659	3043.6167	3065.7425	3119.7658	3121.5892	3124.0101	3135.6807	3217.3137	3230.5172	3806.746
CC1OC=NC11CC1O	C[C@H]1OC=N[C@]21C[C@H]2O	
InChI=1S/C6H9NO2/c1-4-6(2-5(6)8)7-3-9-4/h3-5,8H,2H2,1H3	InChI=1S/C6H9NO2/c1-4-6(2-5(6)8)7-3-9-4/h3-5,8H,2H2,1H3/t4-,5-,6+/m1/s1
