21
gdb 101489	3.89956	0.90107	0.87178	3.6067	74.52	-0.2491	0.0696	0.3187	1419.147	0.183431	-461.366321	-461.357075	-461.35613	-461.400969	34.333	
O	 0.0807045584	 1.4252003187	-0.0013293281	-0.42841
C	 0.0529553566	 0.0338038697	 0.235337711	-0.071108
C	-1.3484752152	-0.5284979376	-0.0268408155	 0.083251
O	-1.7830136971	-0.1155641167	-1.3207921067	-0.447593
C	-1.4115061637	-2.0539649255	 0.0882561988	 0.117219
C	-2.8181287153	-2.6566037791	 0.0374574604	-0.240594
C	-2.5486452817	-4.0496554744	-0.5478819149	-0.237633
C	-1.3942109278	-3.7767175564	-1.5243118689	-0.064487
O	-0.729205138	-2.5949510556	-1.0553537533	-0.295123
H	-0.4259652797	 1.5491304636	-0.8148956552	 0.284699
H	 0.7782478979	-0.5036259213	-0.3981013145	 0.093083
H	 0.3385551674	-0.1293825667	 1.2810287106	 0.099667
H	-2.0486732608	-0.0782644302	 0.686679224	 0.091131
H	-1.3487379028	-0.7314038559	-1.9292455629	 0.287577
H	-0.8903606119	-2.3712178802	 1.005768715	 0.071533
H	-3.2978814551	-2.6834794111	 1.0185436247	 0.106013
H	-3.4394558803	-2.0594366368	-0.6377815403	 0.120725
H	-2.2279135224	-4.7384527611	 0.2405407366	 0.11034
H	-3.4175375197	-4.489732137	-1.0425466271	 0.110036
H	-0.6713788159	-4.598853197	-1.5684440741	 0.108255
H	-1.7605714629	-3.5923504193	-2.5426838995	 0.101419
61.964	87.5718	117.5019	148.0117	213.6771	286.0201	304.7864	348.3959	462.2101	510.3867	574.6687	582.8842	666.2516	709.7458	834.9441	872.9994	883.29	902.494	933.8416	962.8722	1009.7945	1040.0199	1053.6058	1080.8435	1095.9109	1122.7927	1160.0793	1193.2278	1201.8969	1211.9297	1256.8638	1278.144	1297.5589	1316.7842	1336.8416	1349.9566	1375.5898	1391.2485	1405.4854	1436.7535	1443.59	1486.9234	1500.1926	1509.9056	1532.6713	2970.0487	2974.6707	3014.9318	3046.8256	3048.5179	3058.1375	3064.5532	3065.0086	3107.4237	3118.0411	3732.6299	3763.0647
OCC(O)C1CCCO1	OC[C@@H](O)[C@H]1CCCO1	
InChI=1S/C6H12O3/c7-4-5(8)6-2-1-3-9-6/h5-8H,1-4H2	InChI=1S/C6H12O3/c7-4-5(8)6-2-1-3-9-6/h5-8H,1-4H2/t5-,6-/m1/s1
