21
gdb 61027	2.86637	1.11261	0.84629	2.6559	83.89	-0.2423	-0.019	0.2233	1376.5354	0.181836	-387.116252	-387.10692	-387.105975	-387.151225	34.249	
C	 0.023414069	 1.5614399128	-0.0105909889	-0.416976
C	 0.029646264	 0.0225026838	 0.003300738	-0.083532
C	 0.7350612956	-0.4528263858	 1.2584793537	 0.171797
O	 1.7177118875	-1.1475947263	 1.2902166237	-0.257585
C	-1.3931543516	-0.5703616522	-0.0377862319	 0.03061
C	-2.2203409136	-0.1788166324	-1.2963386858	-0.277579
C	-3.0463840377	-1.4136038872	-1.566718569	-0.064332
C	-2.6232189635	-2.4639446385	-0.8668172054	-0.067377
C	-1.437166753	-2.1258417844	 0.0020350631	-0.276169
H	 1.041730601	 1.9618015306	-0.008551859	 0.127916
H	-0.4853011971	 1.9393669512	-0.901273054	 0.131124
H	-0.4982311001	 1.9614857289	 0.8666946752	 0.120445
H	 0.6039394184	-0.3574458442	-0.8497655647	 0.091804
H	 0.2561074877	-0.096237245	 2.2038457285	 0.065676
H	-1.939262236	-0.2006714031	 0.8402433169	 0.07783
H	-2.8287045949	 0.717612771	-1.1331116073	 0.105608
H	-1.5693671905	 0.0441505826	-2.1553016573	 0.106602
H	-3.8584658485	-1.4232319299	-2.2853894774	 0.092918
H	-3.0370225467	-3.4645789464	-0.9250291711	 0.094311
H	-0.5154355303	-2.5659949556	-0.405780244	 0.119591
H	-1.5281674296	-2.5119987201	 1.0239050767	 0.107317
53.1014	72.1383	94.8654	178.9381	220.2028	286.5795	299.1405	375.2005	396.2631	428.5277	506.8704	638.7723	723.1288	781.0299	828.8412	893.9749	921.1021	948.8586	950.1599	975.9844	980.3329	984.2876	1023.2736	1053.6856	1117.5068	1124.7174	1135.8571	1158.9059	1164.2033	1216.0314	1277.2898	1297.2788	1314.7832	1328.2441	1336.7875	1370.689	1379.7943	1406.5132	1428.4519	1484.5901	1492.5716	1496.8384	1502.8378	1690.5458	1833.1113	2828.4329	2994.3372	3005.9142	3011.7783	3033.7911	3047.746	3052.6121	3059.7901	3101.6867	3118.2847	3182.1191	3207.5909
CC(C=O)C1CC=CC1	C[C@@H](C=O)[C@H]1CC=CC1	
InChI=1S/C8H12O/c1-7(6-9)8-4-2-3-5-8/h2-3,6-8H,4-5H2,1H3	InChI=1S/C8H12O/c1-7(6-9)8-4-2-3-5-8/h2-3,6-8H,4-5H2,1H3/t7-/m0/s1
