18
gdb 47410	2.70718	1.64057	1.25031	3.3542	71.98	-0.2268	0.0174	0.2442	1039.0524	0.149533	-439.113662	-439.105677	-439.104732	-439.146673	29.886	
O	-0.119911859	-0.0123550227	 0.3048093556	-0.391041
C	-0.0758328357	 1.1947454057	 0.2015565402	 0.391645
N	-1.1320835804	 2.0523172192	 0.0986959909	-0.320957
C	-0.7737034527	 3.4532577147	-0.0647075469	-0.173586
C	 0.6979169042	 3.4721557199	 0.407463756	-0.293987
C	 1.1988938948	 2.0614537974	 0.1218944429	 0.345862
C	 2.4521876819	 1.4650107095	 0.781639823	-0.352492
C	 2.9276209502	 1.2185170773	-0.6628930255	-0.067355
O	 1.7802417835	 1.9161314173	-1.203754623	-0.32616
H	-2.0695664774	 1.7011464998	-0.0177095975	 0.253282
H	-0.8629015987	 3.7734319751	-1.1108627063	 0.122423
H	-1.4148682404	 4.0994345322	 0.5426323019	 0.114532
H	 1.2994817066	 4.2280303663	-0.0999506427	 0.119767
H	 0.7369679647	 3.6571628588	 1.486346593	 0.11663
H	 3.0487177097	 2.1824807036	 1.3479112025	 0.106825
H	 2.2624219596	 0.5724773397	 1.3782038515	 0.133437
H	 3.8665531212	 1.6971841312	-0.9624539166	 0.101869
H	 2.9398942577	 0.166861355	-0.9680056589	 0.119304
70.6878	93.9713	168.7412	225.101	273.7148	346.6422	434.5045	521.2011	559.6576	682.4181	701.4938	743.8292	770.6153	818.8752	867.6135	924.8617	952.9071	958.0065	986.9176	1014.8685	1067.379	1118.3094	1132.1577	1166.4499	1202.9805	1216.1261	1233.16	1242.4252	1279.0115	1298.1826	1320.7233	1352.5528	1372.4487	1444.7697	1469.8886	1474.1995	1522.8072	1532.0835	1830.0297	3019.3069	3031.2426	3052.2705	3074.0097	3076.5368	3083.1354	3124.4004	3146.2731	3638.0624
O=C1NCCC11CCO1	O=C1NCC[C@]21CCO2	
InChI=1S/C6H9NO2/c8-5-6(1-3-7-5)2-4-9-6/h1-4H2,(H,7,8)	InChI=1S/C6H9NO2/c8-5-6(1-3-7-5)2-4-9-6/h1-4H2,(H,7,8)/t6-/m1/s1
