17
gdb 91253	3.85065	1.22576	1.02191	5.3571	76.07	-0.2642	-0.043	0.2212	1162.4604	0.136725	-421.850216	-421.842689	-421.841745	-421.882248	29.141	
C	 0.064607759	 1.5299333517	 0.189415258	-0.40955
C	 0.0210601064	 0.0243695541	-0.0087945861	-0.056256
C	 0.8270329575	-0.6397108379	-1.2015486984	-0.281385
C	 1.163655956	-1.8411953612	-0.243393458	 0.078192
O	 2.4529566283	-2.3624175813	-0.014704887	-0.248384
C	 2.9319352514	-1.8311103929	 1.186687873	 0.437533
O	 3.9983699594	-2.1418802715	 1.6287054806	-0.338487
C	 1.9465751957	-0.8188784065	 1.668867103	-0.378923
C	 0.8953303504	-0.864845643	 0.8487554927	 0.222702
H	 1.0976166802	 1.8903517337	 0.2135334756	 0.128019
H	-0.4583595435	 2.0429019896	-0.6238201183	 0.127373
H	-0.4171371382	 1.8165146131	 1.1296497307	 0.130082
H	-1.0137923996	-0.3345735261	-0.0350018542	 0.101402
H	 0.2722970244	-0.877884366	-2.1109594499	 0.117328
H	 1.7223267891	-0.0603564496	-1.4349451694	 0.131606
H	 0.4540314948	-2.6635146279	-0.3709804732	 0.110941
H	 2.2041075486	-0.1134317882	 2.444928611	 0.127807
114.5869	154.9406	210.2704	232.6727	336.6001	396.5282	448.9305	517.4648	605.0411	687.1288	706.5783	738.4015	800.1578	850.881	868.6959	881.9794	909.7004	921.296	999.3171	1045.1025	1075.6586	1111.6629	1114.3904	1135.5568	1171.8364	1204.4592	1224.737	1252.216	1284.1224	1354.9401	1378.1447	1410.803	1470.1412	1493.3368	1497.0385	1689.2457	1876.2053	3037.2118	3046.889	3072.0849	3073.9315	3107.2866	3112.785	3145.6693	3248.6973
CC1CC2OC(=O)C=C12	C[C@H]1C[C@H]2OC(=O)[CH][C]12	
InChI=1S/C7H8O2/c1-4-2-6-5(4)3-7(8)9-6/h3-4,6H,2H2,1H3	InChI=1S/C7H8O2/c1-4-2-6-5(4)3-7(8)9-6/h3-4,6H,2H2,1H3/t4-,6+/m0/s1
