21
gdb 56576	2.3415	1.18808	0.87515	4.9159	82.62	-0.2489	0.0336	0.2825	1375.5176	0.182248	-383.26072	-383.25076	-383.249816	-383.296205	36.369	
C	-0.1766949957	 1.5071412148	-0.0567453343	-0.410513
C	 0.0089023806	-0.0205656851	 0.0504095603	-0.119813
C	 0.6361398363	-0.5089759415	-1.1840476615	 0.277203
N	 1.144301378	-0.8678214562	-2.1584800358	-0.335018
C	 0.8322013051	-0.4820857533	 1.2962050774	-0.013169
C	 0.2509467143	 0.1130708849	 2.5852629835	-0.443211
C	 0.9430951119	-2.0043131096	 1.3025114781	 0.017414
C	 1.2718220479	-2.8053217247	 2.5049636107	-0.264022
N	-0.0780520696	-2.8782021867	 1.9110719116	-0.318284
H	 0.7901562375	 2.0188441894	-0.0316761887	 0.136379
H	-0.6716638922	 1.7661581231	-0.9956384208	 0.141641
H	-0.7912545254	 1.8809347229	 0.7642110452	 0.129332
H	-0.9813636214	-0.4915622988	 0.1113664045	 0.131591
H	 1.8497485299	-0.0882394541	 1.1672560319	 0.10101
H	-0.814407309	-0.1173641706	 2.701069616	 0.121609
H	 0.7779779424	-0.2617838687	 3.4659876177	 0.129876
H	 0.3507747538	 1.2002909127	 2.5955732742	 0.132119
H	 1.300594123	-2.3991672279	 0.3538441204	 0.123531
H	 1.867924886	-3.7072594348	 2.3983794811	 0.124513
H	 1.3918922612	-2.3032927963	 3.4603915218	 0.1117
H	-0.7183460245	-2.3272811896	 2.4783236768	 0.22611
46.1565	60.4939	137.0153	193.1408	211.3408	239.7291	269.8972	293.5595	347.3445	373.5348	411.5524	524.5878	581.7116	592.1486	749.2322	806.3435	841.2735	879.2612	924.0985	952.9016	970.7215	987.706	1046.3999	1068.4386	1102.0719	1113.3609	1147.7818	1158.7332	1169.6009	1207.9913	1255.6507	1280.2834	1308.256	1327.6136	1348.3168	1363.601	1403.1193	1414.9647	1433.7853	1492.7782	1494.9303	1502.1899	1507.9163	1527.4785	2353.4659	3011.3438	3030.7553	3041.0375	3051.7109	3109.3964	3116.111	3124.791	3126.0013	3132.9553	3138.8222	3196.6298	3495.7091
CC(C#N)C(C)C1CN1	C[C@@H](C#N)[C@@H](C)[C@H]1CN1	
InChI=1S/C7H12N2/c1-5(3-8)6(2)7-4-9-7/h5-7,9H,4H2,1-2H3	InChI=1S/C7H12N2/c1-5(3-8)6(2)7-4-9-7/h5-7,9H,4H2,1-2H3/t5-,6+,7+/m0/s1
