20
gdb 7434	3.11572	1.35977	1.17595	2.8836	71.43	-0.2593	-0.0261	0.2332	1132.5161	0.174227	-386.170764	-386.160897	-386.159952	-386.205699	35.453	
C	 0.1548709135	 1.645325343	-0.097775693	-0.387536
C	-0.0235190347	 0.1371522957	 0.1487725257	-0.063212
C	 0.5361234052	-0.6915325622	-1.0221163571	-0.38922
C	 0.69371065	-0.2504482646	 1.4361159642	 0.380038
O	 1.8804813007	-0.0408568144	 1.5917164583	-0.352575
C	-0.0940633835	-0.9053883817	 2.5712837447	 0.049314
C	-0.6591310706	-2.2735502374	 2.1520459177	-0.402362
O	 0.722353989	-1.0406467895	 3.7025112404	-0.438431
H	 1.2177749147	 1.8917938624	-0.1652678704	 0.141755
H	-0.3328408148	 1.9367526424	-1.0327100597	 0.116808
H	-0.2807455535	 2.2399839283	 0.7113494049	 0.119525
H	-1.0913368473	-0.0808662802	 0.2636782337	 0.081995
H	 1.612961157	-0.5265704514	-1.1175340017	 0.140972
H	 0.3677602232	-1.7632465728	-0.878233785	 0.121729
H	 0.0543100921	-0.3963656553	-1.958996742	 0.118616
H	-0.9418078205	-0.2341476554	 2.7971216481	 0.088009
H	-1.1783122535	-2.7148125437	 3.0061964125	 0.137158
H	-1.3675090529	-2.1919673097	 1.3223695236	 0.117041
H	 0.1538663726	-2.9464472795	 1.8636758208	 0.128827
H	 1.5977152034	-0.729771384	 3.4178832243	 0.291549
34.2997	79.8756	187.6551	205.1795	223.192	241.9856	254.8665	284.2052	316.7694	368.3704	411.2964	455.4114	489.2933	643.6012	728.388	790.1533	875.2571	923.9109	936.4273	974.3648	1026.082	1061.3709	1079.3404	1117.5857	1126.4712	1185.0461	1199.6256	1275.9451	1342.2408	1350.8285	1373.9581	1392.2758	1399.4471	1416.6261	1437.6797	1486.4925	1488.4928	1491.9198	1499.7283	1502.972	1513.6661	1784.5144	2949.1377	3038.6459	3040.6521	3042.2226	3046.6721	3107.5711	3109.8603	3119.5282	3121.5483	3127.3197	3127.915	3668.7573
CC(C)C(=O)C(C)O	CC(C)C(=O)[C@@H](C)O	
InChI=1S/C6H12O2/c1-4(2)6(8)5(3)7/h4-5,7H,1-3H3	InChI=1S/C6H12O2/c1-4(2)6(8)5(3)7/h4-5,7H,1-3H3/t5-/m1/s1
