15
gdb 131846	5.8396	0.8001	0.71928	3.0954	66.19	-0.2529	-0.0249	0.228	1485.3534	0.112132	-491.050972	-491.042763	-491.041819	-491.085477	28.863	
O	-0.2359895073	 1.5758833363	 0.1095583563	-0.421524
C	 0.0733292052	 0.2052529928	 0.2368186404	-0.048163
C	-1.1308987799	-0.6709360688	-0.1072523674	-0.163015
N	-1.5714438052	-0.32094917	-1.4564660543	-0.399314
C	-2.2573346883	-1.1259292305	-2.1140130988	 0.570415
O	-2.7029623545	-0.874891905	-3.3989325711	-0.193606
C	-3.3819363874	-1.983833958	-3.7490648615	 0.108041
N	-3.4393348924	-2.9071594654	-2.8701278083	-0.107221
O	-2.7108483763	-2.3705867021	-1.7712177442	-0.253201
H	-0.6530156795	 1.6663993725	-0.7570180094	 0.292566
H	 0.9214084924	-0.0794731701	-0.4075040884	 0.086124
H	 0.3716468918	 0.0341798775	 1.2765540883	 0.105102
H	-0.8743229101	-1.7348300014	-0.0144339361	 0.110681
H	-1.9420687969	-0.4576204277	 0.6009360314	 0.122232
H	-3.8286683317	-2.0277265102	-4.7299476569	 0.190885
24.8032	97.8334	139.3099	177.9843	228.4553	326.0725	454.7353	493.1055	512.9486	594.6611	714.0657	726.195	866.6829	888.21	889.6163	896.0127	936.4428	966.2532	1074.5893	1099.3568	1111.3775	1125.9575	1204.95	1226.0097	1267.9708	1299.6795	1380.8655	1388.2082	1439.946	1473.8147	1506.6003	1672.7068	1847.6855	2970.7847	3008.4134	3054.6504	3075.6339	3286.7422	3771.0447
OCCN=C1OC=NO1	OCCN=c1ocno1	
InChI=1S/C4H6N2O3/c7-2-1-5-4-8-3-6-9-4/h3,7H,1-2H2	InChI=1S/C4H6N2O3/c7-2-1-5-4-8-3-6-9-4/h3,7H,1-2H2
