21
gdb 98460	2.3378	1.27468	0.95245	2.2341	79.89	-0.2349	-0.011	0.2238	1330.7468	0.179226	-424.227296	-424.216933	-424.215988	-424.263181	37.235	
C	-0.3886435101	 1.5957824195	-0.9269610059	-0.378604
C	-0.3832937333	 0.0795515008	-0.7490875337	-0.287664
C	-1.6300059887	-0.440476296	-0.0504710922	 0.316864
O	-2.474504426	 0.3031841039	 0.4052658686	-0.329791
C	-1.8204996975	-1.9349783999	-0.0006105245	 0.307006
C	-2.8294459738	-2.484987865	 0.988001451	-0.309668
C	-3.1837548177	-2.4181067542	-0.4657979165	-0.284456
O	-0.7392411079	-2.7279901092	-0.391151623	-0.282247
C	 0.1846098651	-3.0258016571	 0.6421147736	-0.255807
H	 0.5336485632	 1.9299215978	-1.4104002323	 0.107515
H	-1.2352627606	 1.9152694384	-1.5404621603	 0.128016
H	-0.4801894944	 2.1016967092	 0.0372636007	 0.131209
H	-0.2874340585	-0.4477832657	-1.7061251722	 0.132602
H	 0.4921447781	-0.2426641493	-0.1696100139	 0.124076
H	-2.6138486799	-3.4594315465	 1.41038376	 0.121106
H	-3.2821627842	-1.7624822228	 1.6562931457	 0.142151
H	-3.8872543834	-1.6604169856	-0.7893783156	 0.13399
H	-3.1735932462	-3.3399577735	-1.0353671982	 0.128256
H	 0.9777602638	-3.6253229383	 0.1898808387	 0.131202
H	 0.629477694	-2.1205071407	 1.0778181186	 0.110258
H	-0.2823243219	-3.6018758058	 1.4517271214	 0.113986
54.4913	58.1205	137.8261	146.6817	189.0039	200.0854	247.2818	267.9166	305.7206	318.7188	449.5306	477.6872	556.0685	594.2878	719.3812	780.6002	800.1622	839.8547	899.16	949.5805	968.7991	1001.3692	1039.2072	1064.6805	1082.3932	1097.3753	1101.2341	1120.3587	1181.3462	1204.3129	1220.1209	1271.7475	1291.7498	1300.7095	1378.6875	1413.218	1438.2173	1441.4107	1470.2613	1482.6977	1487.86	1492.3868	1497.5753	1507.5183	1782.5834	2998.9111	3030.8253	3050.4005	3052.7472	3061.6557	3120.4919	3123.2111	3127.4284	3144.7496	3145.5153	3235.873	3249.209
CCC(=O)C1(CC1)OC	CCC(=O)C1(CC1)OC	
InChI=1S/C7H12O2/c1-3-6(8)7(9-2)4-5-7/h3-5H2,1-2H3	InChI=1S/C7H12O2/c1-3-6(8)7(9-2)4-5-7/h3-5H2,1-2H3
