21
gdb 96083	2.65483	1.52061	1.11196	2.3145	78.68	-0.2518	0.0855	0.3373	1166.6132	0.182256	-424.228538	-424.219803	-424.218859	-424.261447	34.019	
C	 0.0772333765	 1.5346363217	-0.0036466509	-0.403463
C	 0.0412733152	 0.0114111646	-0.0056985116	 0.104431
O	 0.6507401516	-0.4201426172	-1.2113528895	-0.254706
C	 0.8055827556	-1.8239041753	-1.2798400667	-0.080151
C	 1.8508156588	-2.3276685028	-0.2801163183	-0.277964
C	 1.6138151379	-1.743967624	 1.1089954493	 0.398684
C	 1.8265367778	-2.6658134707	 2.2864452903	-0.472016
O	 2.142343629	-0.415067153	 1.2874581464	-0.2879
C	 0.7249714072	-0.5727425541	 1.219055636	-0.029775
H	 1.1140747093	 1.878016436	 0.0347647537	 0.141322
H	-0.3895357066	 1.9219045319	-0.9127820148	 0.12359
H	-0.4590612287	 1.9328387699	 0.8629889885	 0.112025
H	-1.0085109809	-0.3380109878	 0.016875763	 0.06149
H	-0.1619291193	-2.3204786386	-1.0908663133	 0.0834
H	 1.1022771918	-2.0526684653	-2.3074558655	 0.107558
H	 1.819199336	-3.4222899866	-0.2411502014	 0.096762
H	 2.8552698673	-2.0395894138	-0.6080588865	 0.121945
H	 2.8451214095	-3.0701270896	 2.2757898135	 0.127266
H	 1.6813776706	-2.129789637	 3.227801155	 0.126537
H	 1.1312577835	-3.5115812541	 2.2518329908	 0.118989
H	 0.1979055779	-0.3967816043	 2.1596181319	 0.081975
104.2461	157.1899	216.7171	230.1269	247.788	289.7288	354.7678	367.5699	402.4777	457.5586	474.8225	596.3373	692.1891	718.9205	795.2379	840.6486	884.7901	906.1191	940.0953	994.2725	1000.7502	1029.1208	1059.9307	1084.8167	1120.3688	1132.1331	1152.1541	1187.774	1218.7389	1266.3912	1298.6321	1318.4912	1354.0222	1363.5965	1377.4632	1403.1288	1410.5885	1420.342	1459.119	1471.3117	1484.0555	1488.2618	1496.2382	1501.349	1503.8178	2924.9718	2957.1424	3030.6375	3041.0197	3047.2658	3080.7798	3084.3805	3089.1895	3094.3198	3121.4865	3121.8711	3133.6616
CC1OCCC2(C)OC12	C[C@H]1OCC[C@@]2(C)O[C@@H]12	
InChI=1S/C7H12O2/c1-5-6-7(2,9-6)3-4-8-5/h5-6H,3-4H2,1-2H3	InChI=1S/C7H12O2/c1-5-6-7(2,9-6)3-4-8-5/h5-6H,3-4H2,1-2H3/t5-,6+,7-/m1/s1
