20
gdb 126195	1.86102	1.74349	0.96952	2.0719	82.71	-0.1952	0.0379	0.2331	1259.4848	0.171612	-399.366588	-399.356607	-399.355663	-399.401775	36.121	
C	-0.2050175198	 1.5693712847	-0.057660545	-0.364424
C	-0.0188240888	 0.0404483456	-0.045872176	-0.321319
C	 0.7224346811	-0.4759605251	 1.1504343188	 0.089454
C	 2.0720961668	-0.7623497051	 1.2812860356	 0.293927
C	 3.2069100721	-0.6397615983	 0.3176112034	-0.505976
N	 2.2436611595	-1.2142690393	 2.5479973856	-0.26882
N	 1.0957575661	-1.2378927107	 3.274655054	-0.314251
C	 0.1765322404	-0.7959128008	 2.4248568257	 0.284232
N	-1.1762653724	-0.758773643	 2.7816654429	-0.59217
H	 0.7622845929	 2.0817340821	-0.0653069403	 0.115725
H	-0.7695607519	 1.892793089	-0.9385877903	 0.10913
H	-0.7460942851	 1.9124951739	 0.8311091854	 0.109241
H	-1.0039370235	-0.4412571204	-0.0876317529	 0.110669
H	 0.5015499689	-0.2589901617	-0.9638740334	 0.097136
H	 3.7536727035	 0.3030469608	 0.4406868612	 0.137524
H	 3.9259615337	-1.4568039823	 0.4406591184	 0.127659
H	 2.840798459	-0.6731857085	-0.7117504093	 0.14078
H	 3.0958033353	-1.5299670839	 2.976532805	 0.262337
H	-1.2902508185	-0.9156544618	 3.7757328155	 0.246488
H	-1.6332827191	 0.1040963848	 2.5160960955	 0.242657
55.2423	74.2576	133.3452	179.2622	190.5977	250.1376	271.4184	280.7023	330.794	389.5071	442.1115	493.4644	579.724	659.2672	681.9353	725.0121	762.3961	790.966	823.9877	966.7397	992.3731	1001.957	1055.9164	1080.2032	1092.7705	1157.3681	1204.1555	1247.1874	1300.2547	1311.8137	1361.7014	1406.792	1415.6715	1452.2811	1479.2955	1486.4348	1489.5026	1494.5358	1503.6599	1532.5072	1537.6558	1627.5633	1651.3891	3020.3012	3026.3081	3028.5785	3052.7503	3080.2874	3095.5181	3104.5657	3115.665	3532.2591	3624.994	3684.034
CCC1=C(C)NN=C1N	CCc1c(C)[nH]nc1N	
InChI=1S/C6H11N3/c1-3-5-4(2)8-9-6(5)7/h3H2,1-2H3,(H3,7,8,9)	InChI=1S/C6H11N3/c1-3-5-4(2)8-9-6(5)7/h3H2,1-2H3,(H3,7,8,9)
