20
gdb 69343	2.6474	1.36099	1.09421	4.0506	83.52	-0.2662	0.0389	0.3052	1189.7579	0.17023	-366.011297	-366.002277	-366.001333	-366.044478	34.728	
C	 0.0389547882	 1.573046578	 0.065825335	-0.501054
C	 0.0449158666	 0.0730696876	 0.0085372548	 0.383173
C	-0.8952818195	-0.7981432356	 0.7904708821	-0.352974
C	 0.5871149428	-0.9541064506	 1.0074334868	-0.113399
C	 1.2283479154	-1.7823077664	-0.1323104116	 0.147663
C	 0.8311968988	-3.2565822092	-0.2728245664	-0.448514
C	 0.6195285445	-0.7444521035	-1.1598194373	-0.342285
C	 2.6855245758	-1.6652975672	-0.0897706637	 0.247693
N	 3.8381880223	-1.5795713414	-0.0497379206	-0.348717
H	 1.0242192155	 1.985609099	-0.177993008	 0.127465
H	-0.6833672327	 1.9936763064	-0.6442088751	 0.123377
H	-0.2359286926	 1.9278682169	 1.0643468629	 0.121765
H	-1.4126593406	-0.3049634248	 1.6077663583	 0.117897
H	-1.4835925604	-1.573105696	 0.305177059	 0.107941
H	 1.0488308767	-0.8000042747	 1.975335336	 0.10204
H	-0.256261109	-3.3586750022	-0.3014089669	 0.123332
H	 1.2393320325	-3.6823062297	-1.1943066493	 0.135293
H	 1.2095303815	-3.8431762001	 0.5693603095	 0.136602
H	-0.1087246709	-1.1650305725	-1.8607429916	 0.103468
H	 1.3926623448	-0.2197307839	-1.7231599938	 0.129236
101.1037	160.54	206.3285	210.5956	227.0738	243.9123	321.1286	357.4606	402.1312	456.9914	498.3627	565.4735	613.1269	671.5616	787.2237	812.9381	860.7038	894.5809	932.2391	950.977	968.7869	1004.7732	1029.1637	1053.8916	1074.3207	1092.983	1143.6383	1146.3967	1166.566	1236.8442	1252.3435	1279.6851	1300.1474	1392.4764	1413.3721	1426.4965	1479.3367	1486.1107	1489.4518	1492.1372	1498.9545	1509.7833	2348.8764	3023.1323	3045.4534	3050.5022	3083.0178	3100.004	3109.6101	3116.34	3123.0679	3128.3799	3184.1847	3197.7985
CC12CC1C(C)(C2)C#N	C[C@]12C[C@H]1[C@@](C)(C2)C#N	
InChI=1S/C8H11N/c1-7-3-6(7)8(2,4-7)5-9/h6H,3-4H2,1-2H3	InChI=1S/C8H11N/c1-7-3-6(7)8(2,4-7)5-9/h6H,3-4H2,1-2H3/t6-,7-,8+/m1/s1
