25
gdb 110101	1.75564	1.31545	0.96167	0.904	90.69	-0.2324	0.0783	0.3107	1440.5048	0.225795	-389.477961	-389.466488	-389.465544	-389.514234	41.617	
C	 0.3983536284	 1.5167753485	 0.1263554296	-0.384693
C	 0.1114947342	 0.0149605231	 0.0019722148	-0.201214
C	 0.7533750193	-0.6031528943	-1.2268573478	-0.07981
C	 2.0022139632	-1.4696625893	-1.1328760078	 0.080462
O	 2.525089825	-1.8063367512	 0.1151518078	-0.238318
C	 3.5421356741	-0.9264133506	 0.5487147277	-0.240311
C	 0.6950100235	-2.1001423859	-1.5240104206	 0.243981
C	 0.0126456508	-3.0369618436	-0.5439029453	-0.448183
C	 0.5307426645	-2.507062312	-2.9774836347	-0.451033
H	 1.4735171584	 1.7160748286	 0.1901647455	 0.116786
H	 0.0151590805	 2.0652112627	-0.7414583499	 0.112696
H	-0.0735132453	 1.9370621579	 1.02013855	 0.109465
H	 0.4642266965	-0.5013105083	 0.9000571259	 0.110267
H	-0.9752593454	-0.1368427158	-0.0340358092	 0.095342
H	 0.7020324831	 0.0319235422	-2.110394529	 0.068656
H	 2.7657470697	-1.3537776369	-1.9054583246	 0.072323
H	 4.3891402404	-0.9144320212	-0.1542743265	 0.106327
H	 3.1755695392	 0.1030181808	 0.663853483	 0.114803
H	 3.893003639	-1.2915555838	 1.5170174879	 0.125475
H	 0.2405221832	-2.7889411114	 0.4927921856	 0.131453
H	-1.0752996419	-3.0138217125	-0.676873911	 0.108193
H	 0.3428345461	-4.0681440883	-0.7141350399	 0.112026
H	 0.9206946831	-3.5171494964	-3.1515795828	 0.113684
H	-0.5269518119	-2.5042200322	-3.2676332479	 0.112708
H	 1.0592741323	-1.8243144204	-3.6505754909	 0.108915
85.2776	97.7643	131.0684	150.7705	168.0604	184.7002	191.3595	218.5163	270.4447	272.2932	290.3538	325.653	388.9512	476.3302	518.7008	598.6301	706.9309	778.4215	833.4684	854.5579	956.2909	972.2715	982.9517	1005.0128	1028.2828	1040.5973	1081.3877	1107.5868	1120.3986	1153.505	1178.3762	1179.5935	1184.3828	1229.749	1265.8897	1300.7014	1328.9519	1334.6862	1390.3536	1407.5796	1409.5515	1422.2416	1447.0121	1481.4809	1483.8575	1485.6451	1490.6378	1491.0613	1496.1678	1502.2272	1505.3051	1508.7295	1515.9414	2983.6077	3017.1566	3019.5779	3029.2079	3029.637	3037.7155	3067.9816	3072.823	3077.1281	3081.4109	3093.5023	3097.8665	3101.275	3111.5969	3115.4921	3145.9894
CCC1C(OC)C1(C)C	CC[C@H]1[C@@H](OC)C1(C)C	
InChI=1S/C8H16O/c1-5-6-7(9-4)8(6,2)3/h6-7H,5H2,1-4H3	InChI=1S/C8H16O/c1-5-6-7(9-4)8(6,2)3/h6-7H,5H2,1-4H3/t6-,7+/m0/s1
