25
gdb 118581	1.65773	0.94568	0.63893	1.905	86.58	-0.2446	0.0813	0.3259	1844.0781	0.225892	-426.62122	-426.609186	-426.608242	-426.659907	41.959	
C	-0.4053024489	 1.5055593457	 0.2909505679	-0.383721
C	 0.0164024694	 0.0615834011	 0.0668682396	-0.036254
O	 0.3674815608	-0.4953594544	 1.3179398318	-0.258347
C	 0.5307804195	-1.9101689897	 1.3639393588	 0.134967
C	 1.8206053594	-2.3902577964	 0.6569648264	-0.190231
C	 1.6399172783	-2.8527395384	-0.7936958415	-0.391649
C	 0.5198666935	-2.2841772659	 2.8480202381	-0.219351
C	-0.761775193	-1.8735208964	 3.5755068549	-0.068542
O	-0.7763929887	-2.2992381138	 4.9318266057	-0.420705
H	 0.409619315	 2.0741759708	 0.7481868579	 0.125755
H	-0.6670094773	 1.9795067456	-0.6600166822	 0.113187
H	-1.2720124306	 1.5552776901	 0.9562081397	 0.124453
H	-0.805913764	-0.5147681027	-0.38903931	 0.084134
H	 0.8651502553	 0.0251405955	-0.6334092554	 0.090819
H	-0.3409825197	-2.3812159642	 0.8740984048	 0.060061
H	 2.5490056499	-1.5726670784	 0.7149102832	 0.106756
H	 2.2468739951	-3.2198313628	 1.2330609021	 0.09838
H	 1.2507530691	-2.0591357162	-1.4375862288	 0.119079
H	 2.5917141976	-3.1868972521	-1.218945939	 0.114348
H	 0.9403626135	-3.6941251567	-0.8510825842	 0.116235
H	 0.6488073569	-3.3675947113	 2.9467703152	 0.102515
H	 1.3854057519	-1.8107481683	 3.3327851513	 0.091805
H	-0.9085022982	-0.7896331048	 3.4884113302	 0.104235
H	-1.6263506247	-2.3582688013	 3.1068529955	 0.103048
H	-0.0856304202	-1.8150070349	 5.3949333381	 0.279024
40.9129	73.4193	77.9537	91.5078	107.7287	154.2847	191.3062	213.1584	255.7413	290.7953	312.9298	332.1737	357.4582	417.8185	502.5421	573.5508	763.4682	776.9259	824.5854	862.3038	910.3189	971.9607	1008.4971	1021.7519	1043.1361	1076.261	1092.2688	1108.2503	1119.327	1144.4617	1163.8059	1186.0778	1207.7801	1282.6853	1290.8437	1297.2765	1316.5554	1343.5406	1370.6587	1388.5398	1402.067	1404.6656	1416.289	1420.7048	1436.8935	1474.2139	1482.2624	1483.7572	1498.0838	1502.614	1505.1554	1515.6481	1529.1721	2934.5315	2962.7225	2995.897	3013.7866	3023.1686	3031.9519	3035.5451	3043.365	3059.2259	3066.5485	3084.2131	3098.7186	3113.7933	3117.5404	3120.4625	3817.3894
CCOC(CC)CCO	CCO[C@@H](CC)CCO	
InChI=1S/C7H16O2/c1-3-7(5-6-8)9-4-2/h7-8H,3-6H2,1-2H3	InChI=1S/C7H16O2/c1-3-7(5-6-8)9-4-2/h7-8H,3-6H2,1-2H3/t7-/m0/s1
