18
gdb 65397	3.35415	1.02199	0.91194	3.9787	74.01	-0.248	-0.0288	0.2192	1304.1422	0.145591	-439.045974	-439.036914	-439.03597	-439.080113	32.839	
C	-0.0617716965	 1.7537812588	 0.3907169879	-0.458879
C	-0.0338773022	 0.2835103308	 0.0252845143	 0.268859
N	 0.8374792972	-0.1228752253	-1.0651767842	-0.373804
C	 1.1570189997	-0.6006401964	 0.3013429034	-0.152933
C	 2.4139808429	-0.0806893482	 0.9049963104	 0.166359
O	 2.9742748981	-0.6065933859	 1.8344395358	-0.259441
C	-1.3751691853	-0.3966258866	 0.137707142	 0.011409
C	-2.2822890926	-0.4898466315	-1.0148329542	-0.179878
O	-1.5238826532	-1.624040457	-0.57042298	-0.235235
H	 0.9111492166	 2.2193741032	 0.2286118272	 0.138693
H	-0.7946939355	 2.2817873136	-0.2288017544	 0.126588
H	-0.343678136	 1.8920717961	 1.439874627	 0.129283
H	 0.4060450921	-0.8975917273	-1.5692706179	 0.250561
H	 0.9322538571	-1.6335970583	 0.555338849	 0.118127
H	 2.8108772587	 0.8390404217	 0.4229478641	 0.085014
H	-1.8141264249	-0.3944856429	 1.1361842763	 0.109051
H	-3.3563109248	-0.5612858859	-0.8569938295	 0.128875
H	-1.9733163313	-0.0744296789	-1.9723903572	 0.127351
81.3663	98.3017	132.3476	184.8533	222.5825	255.0318	286.3806	351.425	404.7505	468.3662	543.3379	569.3245	678.7122	818.8344	856.5479	889.5132	940.5321	981.0873	1005.1897	1011.5869	1041.5571	1074.6544	1098.7868	1108.2991	1137.1529	1160.6992	1173.4667	1234.1541	1270.4152	1286.291	1333.5428	1388.42	1418.1437	1428.5148	1448.3101	1488.0768	1502.3059	1524.4028	1819.3488	2898.173	3039.4411	3093.7351	3099.5778	3107.0025	3142.3217	3151.9721	3185.715	3472.4332
CC1(NC1C=O)C1CO1	C[C@]1(N[C@H]1C=O)[C@H]1CO1	
InChI=1S/C6H9NO2/c1-6(5-3-9-5)4(2-8)7-6/h2,4-5,7H,3H2,1H3	InChI=1S/C6H9NO2/c1-6(5-3-9-5)4(2-8)7-6/h2,4-5,7H,3H2,1H3/t4-,5+,6+/m0/s1
