18
gdb 55142	3.44778	1.35917	1.2155	2.9873	71.12	-0.2332	0.0323	0.2656	1059.6551	0.149706	-439.09953	-439.09195	-439.091006	-439.131747	30.041	
N	 0.6456557741	-0.1032494707	-0.5454506597	-0.513391
C	-0.2194180698	 0.4866446275	 0.3174771588	 0.351136
O	-0.0038533459	 1.5212238672	 0.9204432334	-0.375501
C	-1.5412718508	-0.2600482065	 0.4985438721	 0.03238
O	-1.6255729913	-1.4797669096	-0.278994252	-0.304905
C	-1.8709334743	-2.4677822966	 0.7505320378	 0.105906
C	-2.9526569672	-1.7923211792	 1.6267142437	-0.241036
C	-1.759374136	-0.8255459307	 1.9138234252	-0.057263
C	-0.8522743418	-2.0972247159	 1.8532969001	-0.241886
H	 1.5096772709	 0.3611609597	-0.7698461239	 0.260422
H	 0.3523034692	-0.9257616974	-1.0460029242	 0.270407
H	-2.3435132969	 0.4257790434	 0.2024401651	 0.107144
H	-1.9647441355	-3.4511427836	 0.2932042737	 0.082549
H	-3.8344922504	-1.3968874768	 1.1169760295	 0.103954
H	-3.2345983013	-2.3841851957	 2.4987669619	 0.106512
H	-1.7387074976	-0.1113399974	 2.7329364978	 0.09881
H	-0.9443084991	-2.7155158559	 2.7471542401	 0.10623
H	 0.1937033036	-1.984108872	 1.5619060507	 0.108534
71.5931	153.2837	195.7476	319.2244	359.0407	433.4985	503.7959	519.0434	542.351	636.7255	684.7114	726.9758	827.3305	845.433	864.502	883.046	907.7018	930.705	986.6243	993.0426	1005.7907	1040.572	1058.0133	1093.6878	1101.0958	1110.0213	1135.9004	1213.7428	1239.4398	1253.0539	1276.8204	1279.6384	1323.2805	1341.5969	1375.7902	1476.8054	1512.8453	1587.4271	1799.6386	3043.4678	3069.5519	3079.8975	3137.3463	3140.5804	3145.4418	3158.5434	3592.9443	3735.9117
NC(=O)C1OC2CC1C2	NC(=O)[C@H]1O[C@@H]2C[C@H]1C2	
InChI=1S/C6H9NO2/c7-6(8)5-3-1-4(2-3)9-5/h3-5H,1-2H2,(H2,7,8)	InChI=1S/C6H9NO2/c7-6(8)5-3-1-4(2-3)9-5/h3-5H,1-2H2,(H2,7,8)/t3-,4+,5-/m0/s1
