17
gdb 125899	3.7528	1.29081	1.03037	4.7298	76.79	-0.2037	0.0165	0.2202	1159.5899	0.137835	-414.153815	-414.145751	-414.144807	-414.186525	30.22	
C	-0.2449433726	 1.6552240023	-0.1646109298	-0.398943
C	 0.0264561772	 0.1704649591	-0.0242149019	 0.05421
C	 0.7451306622	-0.5726900264	-1.2258914369	-0.414903
C	 1.8845924467	-0.8195446609	-0.243134217	 0.29136
C	 3.0743362738	-1.2231545482	 0.335074019	 0.137036
N	 4.1972841318	-1.8690931532	-0.1837033598	-0.596099
N	 3.0450544457	-0.7871451323	 1.6323370986	-0.248363
N	 1.9213133678	-0.1359885629	 1.8981422208	-0.203044
N	 1.2462756638	-0.1833352324	 0.7546363138	 0.094713
H	 0.6370537399	 2.1792706822	-0.5439397182	 0.13717
H	-1.0752023345	 1.8184335746	-0.8589094171	 0.129791
H	-0.5167822992	 2.0916365689	 0.8007047024	 0.146254
H	-0.8498850588	-0.3642817097	 0.3524492496	 0.114531
H	 0.2210506082	-1.4597844481	-1.5894351335	 0.127509
H	 0.9802524669	 0.0800332008	-2.0703869164	 0.130548
H	 3.9694373053	-2.6812974116	-0.7423647331	 0.244637
H	 4.8239061454	-2.1330934521	 0.5672194197	 0.253594
72.0253	162.3896	216.2286	224.679	264.1123	303.2181	356.3592	438.849	522.5477	647.6406	674.6613	689.1907	707.9655	763.094	798.8962	884.1581	916.9936	1008.189	1064.3994	1071.9184	1091.529	1106.6349	1182.3643	1195.3946	1216.3797	1234.693	1271.7215	1314.5583	1363.1638	1377.2003	1412.9387	1475.5673	1486.8687	1496.3219	1512.3921	1627.4845	1652.9533	3042.784	3064.4046	3074.8139	3114.2326	3117.2344	3124.8189	3533.2949	3625.398
CC1CC2=C(N)N=NN12	C[C@H]1Cc2c(N)nnn12	
InChI=1S/C5H8N4/c1-3-2-4-5(6)7-8-9(3)4/h3H,2,6H2,1H3	InChI=1S/C5H8N4/c1-3-2-4-5(6)7-8-9(3)4/h3H,2,6H2,1H3/t3-/m0/s1
