20
gdb 113473	2.68044	1.35865	1.1451	0.7542	79.	-0.2289	0.0658	0.2947	1151.8635	0.171173	-403.078087	-403.06962	-403.068676	-403.111185	32.832	
O	 0.2672780974	 0.4486777252	 1.0051721246	-0.416032
C	-0.1768038584	 0.1458025373	-0.3153059889	-0.083075
C	-1.5003888291	-0.5784907687	-0.3279325932	-0.090947
C	-1.8245662141	-1.6248777401	-1.383664445	-0.38933
C	-1.554414877	-2.0306341348	 0.0258080622	 0.390267
C	-0.4537730029	-2.9595665987	 0.5545632024	-0.340522
C	-1.522747877	-3.4709691225	 1.5208745071	-0.021897
C	-2.1315707057	-2.3605287434	 2.2764426207	-0.237239
N	-2.6128168216	-2.6106766426	 0.8968893439	-0.173386
H	-0.365612885	 1.0618643249	 1.3924070575	 0.282096
H	-0.2266581836	 1.0562224153	-0.932154109	 0.092883
H	 0.6033517063	-0.4908588306	-0.7459052308	 0.108124
H	-2.3492590146	 0.0125110793	 0.0133811886	 0.085465
H	-2.8495818345	-1.6830422642	-1.7333526456	 0.123552
H	-1.0731130275	-1.8513412415	-2.1349618463	 0.110359
H	-0.143517805	-3.7071485664	-0.1792823357	 0.110003
H	 0.4303247906	-2.4995009326	 1.0046842288	 0.121369
H	-1.7016012233	-4.5128016302	 1.7648654181	 0.095211
H	-2.8716590187	-2.6061148214	 3.0317601185	 0.115958
H	-1.5496203465	-1.4608967945	 2.4660107122	 0.11714
92.1901	107.1798	184.2894	188.0075	295.1482	324.7277	380.5106	414.7458	477.8887	530.7726	580.0525	764.5828	773.6409	808.1716	816.008	889.1635	901.8697	940.0411	963.7368	997.9672	1015.2437	1036.2231	1053.1855	1062.5093	1076.3224	1102.466	1119.1763	1126.158	1140.5067	1176.8978	1194.7223	1228.188	1247.3482	1270.9262	1324.6402	1361.9757	1378.8088	1406.8012	1433.315	1482.8201	1488.0457	1500.9574	1508.2443	2987.3581	3056.4872	3070.8439	3104.7186	3109.8064	3119.0716	3122.3212	3166.7321	3201.9603	3213.0976	3817.6099
OCC1CC11CC2CN12	OC[C@H]1C[C@]21C[C@H]1CN21	
InChI=1S/C7H11NO/c9-4-5-1-7(5)2-6-3-8(6)7/h5-6,9H,1-4H2	InChI=1S/C7H11NO/c9-4-5-1-7(5)2-6-3-8(6)7/h5-6,9H,1-4H2/t5-,6+,7-,8?/m1/s1
