19
gdb 69854	2.324	2.07338	1.48951	0.5608	73.49	-0.2331	0.0762	0.3093	962.6532	0.15842	-422.979404	-422.971531	-422.970587	-423.011113	31.82	
C	-0.0702406754	 1.4728143189	 0.0653389794	-0.504352
C	 0.0467375755	-0.0182799492	-0.0134166747	 0.399263
O	-0.5508099763	-0.8002758864	 1.0417543374	-0.295412
C	 0.8683307839	-0.8986575004	 0.8138563017	-0.039743
C	 1.2836456764	-1.9400974786	-0.2538984075	 0.03165
C	-0.0368324737	-2.2720750765	-0.9734828602	-0.267098
C	 0.1622075164	-0.78870149	-1.3763929559	 0.327968
C	-0.3720811889	-0.1721188819	-2.6377414132	-0.514864
O	 1.6217569124	-1.0512170109	-1.3773961366	-0.333884
H	 0.7067909707	 1.9496968641	-0.5403242879	 0.136977
H	-1.0442935411	 1.8156613887	-0.3006516893	 0.127299
H	 0.0397792424	 1.8058761174	 1.1002473044	 0.133147
H	 1.5166370189	-0.5830316774	 1.624158124	 0.103839
H	 2.0579975732	-2.6680848452	-0.0172760201	 0.0797
H	 0.1384112005	-2.9267182839	-1.8271963625	 0.104529
H	-0.9107463738	-2.5609124924	-0.393606357	 0.119484
H	-1.4594424327	-0.0597044184	-2.573244193	 0.129304
H	 0.0634847929	 0.81745391	-2.8080035042	 0.130869
H	-0.1387235012	-0.8010950479	-3.5005640948	 0.131324
166.5073	194.5106	215.2207	243.2451	291.5308	347.5902	433.7631	475.658	536.526	592.8128	605.1366	629.8403	727.0589	798.2121	826.004	847.0336	884.1761	907.4615	921.9574	969.2209	1001.2449	1007.9626	1019.6557	1084.088	1100.76	1122.5111	1171.4997	1217.107	1224.9829	1263.8527	1278.4981	1291.6066	1321.8441	1402.392	1416.1164	1450.1684	1474.4573	1477.4449	1489.2196	1492.5621	1499.6093	3036.5102	3040.8815	3098.1882	3100.2965	3108.8037	3121.2202	3125.3074	3135.6827	3172.5661	3177.6274
CC12OC1C1CC2(C)O1	C[C@]12O[C@H]1[C@H]1C[C@]2(C)O1	
InChI=1S/C7H10O2/c1-6-3-4(8-6)5-7(6,2)9-5/h4-5H,3H2,1-2H3	InChI=1S/C7H10O2/c1-6-3-4(8-6)5-7(6,2)9-5/h4-5H,3H2,1-2H3/t4-,5+,6+,7+/m1/s1
