20
gdb 40784	3.68209	1.20676	1.03938	2.2211	78.86	-0.2261	0.0877	0.3138	1201.0392	0.172193	-403.095737	-403.08792	-403.086976	-403.128353	30.651	
C	 0.486229469	 1.5992793983	 0.1234824578	-0.349528
C	 1.3807545765	 0.4103949948	-0.119211334	 0.134948
O	 2.0955488658	-0.1211480999	 0.9633319169	-0.254039
C	 1.1728580064	-0.3736807977	 2.0203297013	-0.109692
C	-0.2258859929	-0.5563940249	 1.3828918394	 0.024088
C	-0.0912448978	 0.1938947223	 0.067563386	-0.07689
N	-0.4871130241	-1.9688822397	 1.1083421706	-0.06275
C	-1.1174086057	-2.7281317348	 2.1828358018	-0.226728
C	-1.8888425529	-2.3482284965	 0.9673659039	-0.224549
H	 0.5396567158	 2.1163530916	 1.0758283136	 0.114891
H	 0.2768303681	 2.2455970923	-0.7220941895	 0.113447
H	 1.903780988	 0.2803331804	-1.058666746	 0.101122
H	 1.5011286245	-1.2690225763	 2.5547338199	 0.116617
H	 1.1621255954	 0.4672952558	 2.7275022076	 0.093043
H	-1.0036451661	-0.1263846935	 2.0392010134	 0.057512
H	-0.7493554044	-0.0862932562	-0.7457636474	 0.093076
H	-0.7603044534	-3.7448747415	 2.3179065648	 0.118892
H	-1.3613368543	-2.2040201239	 3.1062768326	 0.108233
H	-2.6430299201	-1.5709869234	 1.0848410564	 0.110179
H	-2.107720168	-3.0821549172	 0.1972120108	 0.11813
86.5065	108.375	177.1283	263.8253	322.6573	352.0581	450.3075	460.0997	703.6586	732.6121	760.6601	799.6729	816.6532	842.3927	904.7434	910.9935	918.9401	967.2547	989.1249	1008.7868	1030.0722	1035.679	1062.6952	1091.7863	1100.1817	1110.9111	1114.3741	1120.057	1167.4102	1174.1192	1191.2701	1198.0945	1244.1807	1282.2028	1309.4207	1324.1203	1355.5107	1391.8989	1402.9567	1477.1332	1491.0101	1511.5296	1519.0736	2931.1664	3004.1263	3090.0852	3092.9772	3094.8366	3130.7969	3175.6479	3183.0885	3189.6826	3192.2841	3217.3362
C1C2OCC(C12)N1CC1	C1[C@H]2OC[C@@H]([C@@H]12)N1CC1	
InChI=1S/C7H11NO/c1-2-8(1)6-4-9-7-3-5(6)7/h5-7H,1-4H2	InChI=1S/C7H11NO/c1-2-8(1)6-4-9-7-3-5(6)7/h5-7H,1-4H2/t5-,6+,7-/m1/s1
