18
gdb 102898	2.09909	0.98314	0.69991	4.7352	79.53	-0.2427	0.0201	0.2628	1572.5666	0.146596	-398.081742	-398.071542	-398.070598	-398.117634	36.05	
N	 0.0076740174	 1.4895197256	-0.0228553023	-0.51471
C	-0.0661883311	 0.0301695565	 0.0298491138	-0.184781
C	 0.7986837612	-0.4762595289	 1.2060780397	-0.088102
N	 0.2909549978	 0.0841822044	 2.4480501472	-0.29467
C	 1.2026607422	-0.0694784707	 3.5843289822	-0.293152
C	 0.7247976015	 0.667943191	 4.7475522197	 0.279933
C	 0.3404795853	 1.2948039274	 5.6972305621	-0.417733
C	 0.7780601207	-1.9482822647	 1.2501427258	 0.302682
N	 0.7773750424	-3.1035251587	 1.2671361535	-0.328324
H	 0.8418429526	 1.7912573017	-0.5161399577	 0.237087
H	-0.7857158001	 1.8678692928	-0.526893519	 0.244465
H	-1.1016162472	-0.2594322967	 0.2289923113	 0.139686
H	 0.2544310144	-0.4786964986	-0.8898969669	 0.111593
H	 1.8507375492	-0.187294195	 1.0051880889	 0.096812
H	 0.1119621727	 1.0687891866	 2.2676725983	 0.243373
H	 1.2739063428	-1.137090616	 3.8302629749	 0.154778
H	 2.232956483	 0.2606905561	 3.3492733304	 0.111445
H	-0.0017902447	 1.8383109073	 6.542829078	 0.199618
52.769	93.5081	117.7259	137.8751	149.3024	230.322	254.3726	291.4782	338.252	342.8774	467.1132	502.353	545.7875	613.744	624.9923	665.872	806.8608	823.8397	895.7147	950.5237	960.701	1004.7549	1031.6341	1086.3464	1125.5331	1159.928	1192.9073	1250.1433	1319.1876	1322.6244	1371.1802	1386.9625	1415.7141	1489.1442	1494.9394	1499.2892	1659.9911	2246.5466	2360.223	2890.2831	2915.2155	3005.7265	3034.7324	3099.3371	3506.054	3507.8034	3511.3076	3594.557
NCC(NCC#C)C#N	NC[C@@H](NCC#C)C#N	
InChI=1S/C6H9N3/c1-2-3-9-6(4-7)5-8/h1,6,9H,3-4,7H2	InChI=1S/C6H9N3/c1-2-3-9-6(4-7)5-8/h1,6,9H,3-4,7H2/t6-/m1/s1
