17
gdb 32707	4.07583	1.11037	0.93858	4.1324	82.37	-0.226	-0.0638	0.1622	1264.801	0.136355	-418.029283	-418.020985	-418.020041	-418.063403	30.211	
C	-0.0405699764	 1.4132612492	-0.3398232976	-0.366856
C	-0.0496316443	-0.0487895408	 0.125325903	-0.132263
N	-1.3956668902	-0.5964847737	 0.1210313068	-0.299914
C	-1.8579867272	-1.1646183	-0.9036207683	 0.448025
O	-1.0417233113	-1.2667595965	-2.0801620653	-0.230904
C	-1.4873211464	-1.9325003025	-3.1487954733	 0.099597
C	-2.7088187899	-2.4934030614	-3.1929421975	-0.203809
C	-3.5188733612	-2.3189318331	-2.016888854	 0.018982
N	-3.1319305851	-1.6990719339	-0.9517676061	-0.27757
H	 0.963396947	 1.8390250382	-0.244085482	 0.109836
H	-0.3470445033	 1.4900872581	-1.3874310381	 0.116343
H	-0.7304804444	 2.0109685741	 0.2624697886	 0.129184
H	 0.6408025747	-0.6349731933	-0.4956523766	 0.097223
H	 0.3145439383	-0.0970479534	 1.1572438476	 0.103412
H	-0.7574536797	-1.9520656937	-3.9520301627	 0.142834
H	-3.0589612088	-3.0256186478	-4.0654595557	 0.12004
H	-4.5302922317	-2.7254600994	-2.0033058886	 0.125841
34.8543	68.7082	149.066	205.07	284.2584	352.0453	407.5541	501.2255	545.1969	592.1607	613.4344	699.1005	766.5417	785.1419	811.7044	893.1864	962.2038	963.6516	979.6481	999.0468	1050.6794	1090.7712	1109.5933	1133.3904	1191.6872	1280.3361	1309.795	1369.2752	1398.2149	1413.8882	1446.5901	1489.6319	1496.6499	1515.0494	1586.4102	1699.0467	1757.3748	3011.0847	3038.2408	3058.4434	3110.2049	3119.4797	3130.6081	3190.0858	3242.5037
CCN=C1OC=CC=N1	CC[N]C1=NC=CCO1	
InChI=1S/C6H8N2O/c1-2-7-6-8-4-3-5-9-6/h3-5H,2H2,1H3	InChI=1S/C6H9N2O/c1-2-7-6-8-4-3-5-9-6/h3-4H,2,5H2,1H3
