20
gdb 76472	3.1076	1.08551	0.99525	2.9893	81.86	-0.2429	0.0305	0.2734	1301.4754	0.16947	-403.141147	-403.131817	-403.130873	-403.175204	34.784	
C	 0.109850263	 0.7913883263	-2.2695861275	-0.413313
C	 0.0499330737	-0.2747233577	-1.1965639291	-0.104152
C	 1.2360988463	-0.6222797199	-0.283859958	-0.104151
C	 2.581068142	 0.06730209	-0.3680898415	-0.413313
C	 0.0309798722	 0.0710703499	 0.2530517817	 0.42035
C	-0.1329287432	 1.4051598627	 0.9740296689	-0.442636
C	-1.0579313475	 0.6060194814	 1.8721146789	 0.42512
N	-1.7569444894	 0.8654555897	 2.879447872	-0.542949
O	-0.8759230537	-0.5792691459	 1.1839775328	-0.272426
H	 0.6823369407	 1.6664539345	-1.9492146661	 0.119566
H	 0.5776256706	 0.4071190934	-3.1822740593	 0.124533
H	-0.8964985342	 1.1354422449	-2.5315355656	 0.125824
H	-0.5650468923	-1.1343774837	-1.4520792794	 0.101705
H	 1.2882589491	-1.6774117375	-0.0260430533	 0.101706
H	 2.4829639686	 1.138856239	-0.5637075275	 0.119567
H	 3.1346491893	-0.0457166426	 0.5702614121	 0.125825
H	 3.1941507225	-0.3595407863	-1.1689713622	 0.124533
H	 0.7558098376	 1.7987371664	 1.471148941	 0.138459
H	-0.6221309938	 2.2023947018	 0.4110092071	 0.138466
H	-2.2530049714	 0.0350162837	 3.207915625	 0.227286
82.0292	149.3082	152.3746	157.377	168.624	237.9697	269.7371	369.6324	460.1205	488.8566	500.9849	521.1906	566.0786	761.0092	790.6951	815.8288	868.4939	886.6817	960.8013	990.7777	995.4374	1010.9602	1024.096	1065.0259	1068.7018	1124.3476	1138.3013	1164.9282	1174.0049	1183.4856	1216.9899	1287.7607	1335.8155	1360.1336	1412.2946	1421.4588	1459.6731	1479.0988	1487.0822	1494.5427	1498.672	1517.5763	1829.2786	3032.158	3036.2277	3080.9686	3093.2091	3094.7438	3101.7719	3111.1011	3133.1019	3135.7953	3146.277	3475.0703
CC1C(C)C11CC(=N)O1	C[C@H]1[C@@H](C)[C@]21C[C]([NH])O2	
InChI=1S/C7H11NO/c1-4-5(2)7(4)3-6(8)9-7/h4-5,8H,3H2,1-2H3	InChI=1S/C7H11NO/c1-4-5(2)7(4)3-6(8)9-7/h4-5,8H,3H2,1-2H3/t4-,5+,7+
