19
gdb 68536	2.54105	1.98047	1.66725	1.275	77.72	-0.2406	0.0123	0.2529	909.1459	0.16156	-385.867458	-385.860661	-385.859717	-385.897902	29.849	
O	-0.1125930941	 1.3699705536	 0.0348270763	-0.513834
C	 0.0442737451	-0.0251962867	 0.0331318288	 0.389291
C	 0.7087984153	-0.7110134247	-1.2026465744	-0.253911
C	 0.5401506829	-2.1271065398	-0.5874726739	-0.088147
C	 1.1835575443	-1.8912238931	 0.7715693416	-0.083376
C	 0.8855964775	-0.643003924	 1.1446359522	-0.166867
C	-1.0233059122	-2.1415199275	-0.4314381947	-0.038156
C	-1.6811502563	-1.8782481953	 0.8997357465	-0.307772
C	-1.3499554185	-0.7272931205	-0.0127204624	-0.038669
H	 0.7649555411	 1.7657605182	 0.017043644	 0.275155
H	 0.1335027382	-0.5626580255	-2.1216179253	 0.091913
H	 1.7534771609	-0.4182564813	-1.3529589463	 0.080348
H	 0.927278597	-2.9710258	-1.1577852635	 0.061787
H	 1.6887799659	-2.6502077934	 1.3559869243	 0.098527
H	 1.0791639757	-0.1588722952	 2.0943372068	 0.098994
H	-1.5837581181	-2.6540354365	-1.2048050747	 0.085916
H	-2.7319684267	-2.1420709599	 0.972014051	 0.104396
H	-1.1219555355	-2.0184476431	 1.817297373	 0.112226
H	-2.1409486226	-0.1423526653	-0.4670384091	 0.09218
252.4998	297.015	324.2905	337.4043	390.9732	483.8953	523.5885	541.8289	614.8217	659.4644	743.1733	746.8481	767.2609	803.4025	823.0097	894.5094	917.8502	930.9622	946.276	955.0434	996.9199	1026.5943	1042.3383	1058.3489	1082.8865	1086.8644	1100.2019	1109.747	1151.4051	1191.6518	1193.1766	1236.1004	1261.3472	1270.1508	1281.8082	1354.2336	1361.4369	1369.7137	1473.9174	1494.485	1639.6736	3041.3449	3102.2287	3114.3576	3129.9034	3169.9888	3182.3429	3193.0873	3215.4192	3218.8046	3812.0294
OC12CC(C=C1)C1CC21	O[C@@]12C[C@@H](C=C1)[C@H]1C[C@@H]21	
InChI=1S/C8H10O/c9-8-2-1-5(4-8)6-3-7(6)8/h1-2,5-7,9H,3-4H2	InChI=1S/C8H10O/c9-8-2-1-5(4-8)6-3-7(6)8/h1-2,5-7,9H,3-4H2/t5-,6-,7-,8-/m1/s1
