22
gdb 86446	1.88987	1.58846	0.91145	3.2656	84.71	-0.252	0.0264	0.2784	1335.9277	0.194709	-404.388252	-404.378969	-404.378025	-404.422125	35.514	
C	-0.0263068085	 1.5799491235	 0.0445047759	-0.406619
C	 0.0097207343	 0.0520685869	-0.022354161	 0.003206
C	 0.7527525865	-0.4655098999	-1.2585414673	-0.199564
C	 0.7465308835	-1.9905115568	-1.2950194419	 0.127967
C	 1.5901298069	-2.5804557096	-2.4140647528	-0.398675
O	 1.2501219113	-2.5668042725	-0.0687497206	-0.267547
C	 0.8645178995	-2.0515905032	 1.1378678209	 0.361923
N	 0.7682619219	-2.7836287015	 2.1671865802	-0.501693
C	 0.6763321724	-0.5553982791	 1.2203152979	-0.257073
H	 0.9879183527	 1.994445519	 0.0843589957	 0.115627
H	-0.5259353783	 2.0024108427	-0.8335220053	 0.112963
H	-0.5618472276	 1.9249274313	 0.9350015847	 0.118427
H	-1.0256863974	-0.3158228337	-0.0719805167	 0.078965
H	 0.2895750011	-0.0909573514	-2.1788716863	 0.099353
H	 1.7902163349	-0.1034948997	-1.247638693	 0.099035
H	-0.2943162999	-2.3321690449	-1.4068602685	 0.081725
H	 2.6315262487	-2.2576832551	-2.3196421543	 0.125577
H	 1.5643289576	-3.6725437978	-2.3771315393	 0.12859
H	 1.2108365878	-2.2557759889	-3.3875538099	 0.117443
H	 0.9660698796	-3.7552951997	 1.9159894698	 0.214056
H	 1.6749187199	-0.1076456724	 1.3317677744	 0.118782
H	 0.1238513831	-0.3365256072	 2.1359198873	 0.127533
97.3957	112.2581	152.512	223.2318	232.8748	248.5068	293.955	409.3119	419.477	439.9851	453.2406	507.5478	554.0628	629.671	820.1316	862.4472	879.8538	882.6685	929.239	948.2904	969.3311	976.2025	1016.9894	1056.6541	1112.2389	1121.9523	1140.504	1160.8828	1191.1328	1208.9774	1282.6222	1293.1243	1305.7708	1335.4181	1371.5074	1383.09	1392.9456	1406.7921	1410.5321	1413.8105	1467.2088	1480.1227	1485.6491	1496.5015	1498.8031	1499.7894	1745.1178	2980.2272	2994.2437	3010.0212	3018.0487	3027.3437	3043.717	3067.2355	3093.5754	3101.3238	3115.655	3117.71	3124.3508	3453.3813
CC1CC(C)OC(=N)C1	C[C@H]1C[C@@H](C)O[C]([NH])C1	
InChI=1S/C7H13NO/c1-5-3-6(2)9-7(8)4-5/h5-6,8H,3-4H2,1-2H3	InChI=1S/C7H13NO/c1-5-3-6(2)9-7(8)4-5/h5-6,8H,3-4H2,1-2H3/t5-,6+/m0/s1
