20
gdb 85169	2.34789	1.53695	1.13504	1.6205	79.44	-0.216	-0.0238	0.1921	1150.7353	0.169796	-403.122319	-403.113338	-403.112394	-403.156386	33.566	
C	 0.0894131492	 1.6875537756	 0.076508531	-0.391188
C	 0.09457098	 0.1787347335	-0.1463213129	-0.029134
C	 1.3884383587	-0.3576201823	-0.8368631986	-0.350145
C	 1.8659434598	-0.8212799352	 0.5493713459	 0.378028
O	 2.942028262	-1.0505256814	 1.0273816419	-0.31336
C	 0.4386985834	-0.6707918517	 1.1319910985	-0.052185
N	 0.1398642637	-0.1361487018	 2.4384535242	-0.09588
C	 0.7637078439	-0.7703317236	 3.599610615	-0.224013
C	 1.1672561443	 0.599057584	 3.1789292134	-0.227238
H	 1.0397319021	 2.0378784065	 0.4946975306	 0.117808
H	-0.0697477588	 2.2153790124	-0.8692781424	 0.115407
H	-0.7044184115	 1.9747459821	 0.7713352535	 0.133652
H	-0.8346634484	-0.1324587496	-0.62787075	 0.079174
H	 1.2153846607	-1.2018322579	-1.5115757294	 0.127806
H	 2.030604037	 0.3692485269	-1.3408873626	 0.127287
H	-0.0554686525	-1.6482944145	 1.0461263222	 0.106786
H	 0.1121329361	-0.9171230342	 4.4568917792	 0.114855
H	 1.4839208863	-1.5642965782	 3.4195226766	 0.132941
H	 2.1552668016	 0.7039515293	 2.7406614884	 0.134474
H	 0.8047938823	 1.4684505402	 3.7199761655	 0.114925
62.8085	81.5877	151.9045	175.0703	233.8639	300.3439	336.9341	361.3665	417.3336	492.2171	596.7823	680.7815	708.7634	795.4514	826.8814	863.7724	880.9458	898.2178	907.4598	1000.8752	1028.0554	1040.039	1083.2869	1089.539	1104.259	1131.5559	1137.8083	1154.7987	1177.278	1192.4508	1205.0395	1239.0629	1268.9661	1329.8605	1354.1689	1366.9394	1411.7678	1442.1293	1486.5295	1493.8492	1497.6033	1513.606	1868.0872	3016.3431	3033.6973	3057.924	3079.4955	3101.3418	3105.4815	3114.3814	3115.8864	3117.6547	3191.5414	3208.137
CC1CC(=O)C1N1CC1	C[C@H]1CC(=O)[C@H]1N1CC1	
InChI=1S/C7H11NO/c1-5-4-6(9)7(5)8-2-3-8/h5,7H,2-4H2,1H3	InChI=1S/C7H11NO/c1-5-4-6(9)7(5)8-2-3-8/h5,7H,2-4H2,1H3/t5-,7-/m0/s1
