17
gdb 32079	3.69942	1.15612	0.89052	4.1691	78.05	-0.2516	-0.0455	0.2062	1276.5257	0.136634	-418.070868	-418.06231	-418.061366	-418.105398	30.619	
C	-0.3742089481	 1.4883733921	 0.1296032207	-0.47193
C	-0.0901888538	 0.0155440349	 0.0322316436	 0.318762
N	-0.0229904574	-0.5080260338	-1.1969379592	-0.326806
C	 0.2286880967	-1.8141485834	-1.2902633746	 0.325451
C	 0.3065825627	-2.4156228129	-2.6775036821	-0.117295
O	 0.5748055018	-3.7909685721	-2.6598970686	-0.428403
N	 0.4215746943	-2.6571340623	-0.2731549682	-0.314157
C	 0.3536970425	-2.1306566249	 0.9521842165	 0.015477
C	 0.0977458977	-0.7855057933	 1.1630679254	-0.183959
H	 0.3962775168	 2.0545462141	-0.402972599	 0.151073
H	-1.3285060686	 1.7187044945	-0.3542348287	 0.151073
H	-0.4110852494	 1.8283115602	 1.1667754616	 0.124449
H	-0.6454110097	-2.2069968895	-3.1902071601	 0.116347
H	 1.0815508342	-1.8708132316	-3.2390071213	 0.116346
H	 0.6474634411	-4.0280278262	-1.7224957036	 0.290279
H	 0.5099617036	-2.812302811	 1.7851509622	 0.124168
H	 0.0456347257	-0.3726706547	 2.1632468954	 0.109124
32.4139	59.8018	178.4172	196.2201	211.3561	336.0547	386.2115	433.5341	463.9283	548.2533	576.5392	657.769	768.2817	773.8998	851.58	918.5368	1000.6427	1007.4952	1030.8026	1042.2846	1059.7834	1125.1559	1133.9678	1243.4025	1247.9717	1267.9965	1316.3548	1323.5383	1401.5514	1413.218	1472.1539	1473.8427	1477.726	1488.0608	1504.4314	1601.7721	1626.2731	2984.5558	3000.2097	3045.712	3108.0586	3133.6624	3156.8643	3205.3682	3689.5895
CC1=NC(CO)=NC=C1	Cc1nc(CO)ncc1	
InChI=1S/C6H8N2O/c1-5-2-3-7-6(4-9)8-5/h2-3,9H,4H2,1H3	InChI=1S/C6H8N2O/c1-5-2-3-7-6(4-9)8-5/h2-3,9H,4H2,1H3
