25
gdb 122572	4.9601	0.62808	0.57946	0.1701	94.66	-0.2333	0.0316	0.2648	2010.9346	0.229677	-352.381101	-352.371118	-352.370174	-352.416806	37.23	
C	-0.0525001242	 1.5833877198	-0.0504026024	-0.379781
C	 0.033005374	 0.0547624448	-0.0378069448	-0.163294
C	 0.6922260891	-0.5035041967	 1.2282138378	-0.161231
C	 0.7806297484	-2.0338543659	 1.2451035868	-0.203044
C	 1.4619345492	-2.6101311063	 2.4894243684	 0.040233
C	 0.7207924731	-2.340278918	 3.8307971641	-0.255777
C	 0.9917807692	-3.5867956418	 4.6393516048	-0.064547
C	 1.49715171	-4.5666797653	 3.892556135	-0.061199
C	 1.6544877948	-4.1524658503	 2.4495392517	-0.275847
H	 0.9434432397	 2.0362853737	 0.0113716727	 0.112403
H	-0.5284677712	 1.9509808415	-0.9650180135	 0.109698
H	-0.6354209768	 1.954430665	 0.8001125859	 0.112503
H	-0.9750605065	-0.369481791	-0.1372852584	 0.093096
H	 0.5926247846	-0.2886037606	-0.9181638059	 0.092868
H	 1.7024153382	-0.081040061	 1.3269243745	 0.089134
H	 0.1333174158	-0.1563133876	 2.1076931344	 0.095195
H	-0.2302789613	-2.4588918136	 1.1622341264	 0.089166
H	 1.3238845556	-2.3703387509	 0.3511037323	 0.088823
H	 2.4598614554	-2.1601647939	 2.573964556	 0.07133
H	 1.0660232999	-1.4248771122	 4.3246268545	 0.099864
H	-0.3611491592	-2.2110865923	 3.6716940311	 0.098918
H	 0.7561324686	-3.6614525192	 5.695623114	 0.086747
H	 1.7371304072	-5.5639681438	 4.2454759108	 0.087219
H	 0.8888483024	-4.6355722416	 1.8231066181	 0.099223
H	 2.6219256441	-4.4382623229	 2.0200549158	 0.098299
64.2161	72.6628	92.5499	128.9231	162.0776	247.1329	270.1283	296.771	395.6797	416.9098	467.4665	620.161	716.8208	737.9599	776.2548	793.5403	836.4666	900.5459	915.2658	923.1219	953.9318	976.0511	978.8252	1010.3603	1019.0184	1055.0626	1069.1456	1085.6988	1124.2543	1136.3883	1145.1264	1159.2179	1219.9396	1258.4328	1274.5585	1293.3261	1311.4726	1320.8849	1332.269	1337.062	1355.8153	1379.7493	1386.3518	1401.8716	1413.6021	1481.2366	1485.2055	1486.0272	1493.8654	1500.0162	1500.8346	1512.7424	1688.6676	2987.8313	2989.1271	2998.3427	3003.4849	3011.1166	3016.3297	3025.1726	3028.5634	3037.7975	3047.5795	3055.2667	3060.0533	3094.9365	3099.7443	3176.7564	3202.7419
CCCCC1CC=CC1	CCCC[C@H]1CC=CC1	
InChI=1S/C9H16/c1-2-3-6-9-7-4-5-8-9/h4-5,9H,2-3,6-8H2,1H3	InChI=1S/C9H16/c1-2-3-6-9-7-4-5-8-9/h4-5,9H,2-3,6-8H2,1H3
