23
gdb 92593	2.10157	1.63477	1.48319	1.2802	84.47	-0.2373	0.0778	0.3151	1101.0519	0.206369	-388.303551	-388.29464	-388.293696	-388.336611	35.128	
C	 0.2501862593	 1.599883405	 0.0451149685	-0.404611
C	 0.0928192623	 0.0871764305	 0.0467228581	-0.001929
C	 0.9578446343	-0.7605183648	-0.9327314425	-0.26558
C	 1.3789642648	-1.6965659067	 0.2387093127	-0.057672
C	 2.8550436497	-1.6893436474	 0.6341916635	-0.238473
C	 3.0007578355	-0.3124222445	 1.2986917185	-0.086868
O	 1.7534604487	-0.0475902578	 1.9321732736	-0.299207
C	 0.6930655874	-0.7210447476	 1.249980043	 0.405102
C	-0.276741396	-1.2452955972	 2.2907359466	-0.454475
H	 1.2917491978	 1.892685918	 0.2050102707	 0.121979
H	-0.0805534815	 2.0242302991	-0.9094617636	 0.107049
H	-0.3436761785	 2.0623507728	 0.8407585763	 0.11554
H	-0.9661894478	-0.1704687414	-0.0657012923	 0.062996
H	 0.4185598653	-1.2412178944	-1.7521942345	 0.095262
H	 1.7979090697	-0.2041704904	-1.3620694678	 0.092466
H	 0.9477981985	-2.697950148	 0.1883737989	 0.064916
H	 3.0603980908	-2.4845546848	 1.358574488	 0.103473
H	 3.5331574234	-1.8193306611	-0.2146097694	 0.099496
H	 3.7809496324	-0.2753921539	 2.0649601757	 0.10493
H	 3.2296440649	 0.4612188016	 0.5491647736	 0.088656
H	-0.6895983707	-0.4188328279	 2.8791525784	 0.12337
H	-1.1080324696	-1.7772278665	 1.8181080386	 0.10871
H	 0.2292193096	-1.9286930528	 2.9800940752	 0.114868
88.6255	190.4782	195.7883	210.0495	219.9121	254.3134	309.0972	373.5225	399.314	512.3348	590.7899	608.2801	648.0865	754.6084	808.4973	850.2642	886.6467	895.3494	900.3709	916.7751	964.3092	992.1002	1013.6385	1039.425	1074.6016	1108.7189	1134.809	1151.9746	1172.4476	1181.4916	1195.4978	1222.1554	1239.5025	1252.4341	1271.3374	1308.1287	1324.215	1337.1788	1365.2403	1393.9552	1405.2507	1411.1732	1482.6091	1483.4907	1488.2514	1490.111	1491.8045	1494.9144	1527.1557	2980.347	3030.5229	3031.6481	3039.3811	3044.1882	3046.2409	3076.7458	3087.1944	3093.1707	3095.4016	3102.1916	3105.566	3109.2563	3112.5318
CC1CC2CCOC12C	C[C@H]1C[C@H]2CCO[C@@]12C	
InChI=1S/C8H14O/c1-6-5-7-3-4-9-8(6,7)2/h6-7H,3-5H2,1-2H3	InChI=1S/C8H14O/c1-6-5-7-3-4-9-8(6,7)2/h6-7H,3-5H2,1-2H3/t6-,7+,8-/m0/s1
