13
gdb 18856	3.79462	2.46528	2.06223	3.8199	56.51	-0.2432	-0.0167	0.2266	674.097	0.097039	-398.56666	-398.560994	-398.560049	-398.596416	21.971	
O	-0.0012974852	 0.0124669362	-0.0234396443	-0.300369
C	-0.0429128296	 1.1983500411	 0.0483618032	 0.408569
C	-1.1423406389	 2.2909421619	 0.0524498056	-0.058845
O	-1.4991266636	 2.6270005033	 1.3828994078	-0.253465
C	-0.2819579666	 2.9924604426	 2.0426106282	-0.105904
C	 0.7122791403	 3.2815801576	 0.9251080069	-0.057964
C	 0.0125888951	 3.2316620127	-0.3535454288	-0.049779
N	 1.0636335027	 2.1484633358	-0.0130121649	-0.207323
H	-2.0368514164	 2.1651184461	-0.5538572029	 0.115764
H	-0.466345693	 3.8826773358	 2.6528716001	 0.125921
H	 0.0631584604	 2.1800369608	 2.6952603111	 0.128168
H	 1.5537300374	 3.9401785104	 1.1035716858	 0.127265
H	 0.1235592775	 3.8636089056	-1.2225195779	 0.127963
135.8843	252.962	363.2744	468.178	583.6264	660.9696	730.6521	743.6982	817.0476	841.9457	853.4804	899.1198	937.914	963.1915	1005.7311	1045.6728	1057.2674	1080.	1096.5872	1186.2881	1214.238	1231.1829	1264.2178	1306.0661	1348.5742	1393.6187	1512.0576	1919.7944	3023.4024	3078.6395	3152.7015	3194.819	3232.2807
O=C1C2OCC3C2N13	O=C1[C@H]2OC[C@@H]3[C@H]2N13	
InChI=1S/C5H5NO2/c7-5-4-3-2(1-8-4)6(3)5/h2-4H,1H2	InChI=1S/C5H5NO2/c7-5-4-3-2(1-8-4)6(3)5/h2-4H,1H2/t2-,3-,4+,6?/m1/s1
