18
gdb 22924	2.92388	1.29907	1.06566	1.1256	76.42	-0.2375	0.0001	0.2376	1161.1063	0.146591	-439.015684	-439.007119	-439.006175	-439.048964	32.82	
O	-0.134841026	 1.2698426235	-0.0862988381	-0.388457
N	-0.0285127264	-0.1199605607	-0.2729451912	-0.248959
C	-1.1478742227	-0.6936295482	-0.1139896745	 0.323374
C	-2.5140208973	-0.2941603559	 0.4111830988	-0.330455
C	-2.8186977159	-1.8004040931	 0.6725846412	-0.102625
C	-3.5737557006	-2.499005114	-0.4796598346	-0.220182
C	-2.2288502962	-2.7877500252	-1.2108017624	-0.271202
C	-1.4193183868	-2.1745354785	-0.0341979299	 0.348355
O	-0.4159735306	-3.0118032864	 0.4329831914	-0.468666
H	 0.7732401091	 1.5635007704	-0.2177070142	 0.307639
H	-2.4469913141	 0.3344524855	 1.3039939293	 0.130806
H	-3.1732526944	 0.203916576	-0.3060123926	 0.120366
H	-3.0546385856	-2.0729217894	 1.7005367246	 0.076603
H	-4.089136918	-3.4111151249	-0.1705714278	 0.106944
H	-4.2884026545	-1.8685867076	-1.0156754281	 0.099106
H	-2.0022559333	-3.8521319747	-1.2989578453	 0.122209
H	-2.0790243724	-2.3162653971	-2.1845135137	 0.108259
H	 0.2174709655	-2.4729129696	 0.920705417	 0.286884
63.7894	127.5037	171.8927	252.6595	291.6369	348.8587	367.2819	394.277	438.5044	484.7246	534.2628	622.6681	715.6133	747.6864	791.9634	828.3618	884.301	911.0395	958.2782	972.4917	1011.14	1035.3088	1057.5354	1065.7651	1106.5279	1145.7449	1182.5326	1217.6829	1229.6513	1247.9675	1275.8643	1299.7036	1330.5503	1369.4318	1414.7131	1461.1267	1471.4727	1495.0674	1765.5325	3054.3597	3059.1372	3071.7391	3098.7892	3103.8817	3122.1907	3131.5799	3798.3103	3814.7772
ON=C1CC2CCC12O	ON=C1C[C@H]2CC[C@@]12O	
InChI=1S/C6H9NO2/c8-6-2-1-4(6)3-5(6)7-9/h4,8-9H,1-3H2	InChI=1S/C6H9NO2/c8-6-2-1-4(6)3-5(6)7-9/h4,8-9H,1-3H2/t4-,6+/m1/s1
