17
gdb 72206	3.3633	1.82582	1.59125	2.5792	69.55	-0.2364	0.0629	0.2993	869.0588	0.137773	-421.773719	-421.767446	-421.766502	-421.803872	27.114	
O	-0.0396472499	 1.3132044212	 0.1130861078	-0.481046
C	 0.0581432187	-0.0716146209	 0.0085065431	 0.403034
C	-0.1514579064	-0.7443149445	-1.3431028663	-0.294037
C	 0.0121681786	-2.2207239575	-0.9934350473	 0.077368
O	-1.1745954005	-2.6608031884	-0.2756408158	-0.307093
C	-0.5288336252	-2.3142634197	 0.962283724	 0.10796
C	-0.4079203055	-0.799094993	 1.2504275386	-0.131418
C	 1.0758414323	-0.8210327425	 0.8307133579	-0.172888
C	 0.8753948441	-2.264691091	 0.3310067186	-0.11385
H	 0.675868004	 1.701232649	-0.4034399406	 0.281926
H	-1.1388547732	-0.5535091337	-1.7712051872	 0.119776
H	 0.6146847559	-0.4059573309	-2.0546101533	 0.08377
H	 0.2521475936	-2.8848140194	-1.8254421966	 0.078868
H	-0.8188246982	-2.9482623655	 1.8019269836	 0.082556
H	-0.883876443	-0.2374809374	 2.0445150967	 0.094404
H	 1.9402924849	-0.379091079	 1.3074090182	 0.090718
H	 1.62466971	-3.0409784668	 0.4603696486	 0.079952
236.484	295.5722	359.1732	404.613	426.4092	509.858	603.3631	647.1341	690.9062	722.8975	797.9102	822.6181	851.9455	867.3334	906.8393	916.0152	921.8865	959.7674	976.7124	997.719	1021.6174	1037.4229	1053.9817	1116.293	1124.7549	1168.6718	1205.2941	1210.1375	1226.2328	1262.8112	1280.5849	1288.1404	1318.6343	1340.9396	1346.2488	1427.0889	1478.7005	3014.1784	3096.0872	3099.2922	3101.5272	3151.6219	3192.9708	3208.0054	3788.8869
OC12CC3OC4C1C2C34	O[C@]12C[C@@H]3O[C@@H]4[C@H]1[C@H]2[C@H]34	
InChI=1S/C7H8O2/c8-7-1-2-3-4(7)5(7)6(3)9-2/h2-6,8H,1H2	InChI=1S/C7H8O2/c8-7-1-2-3-4(7)5(7)6(3)9-2/h2-6,8H,1H2/t2-,3-,4+,5+,6-,7-/m0/s1
