20
gdb 83796	2.6247	1.71263	1.42724	1.8563	77.8	-0.215	0.0753	0.2904	1006.398	0.172862	-403.106607	-403.09887	-403.097926	-403.138487	30.903	
C	-0.4728225798	 1.4309995891	-0.1341805594	-0.324167
N	-0.0257153283	 0.0522314512	 0.0136548383	-0.106611
C	 1.3291974529	-0.3849116351	-0.3173368476	-0.041558
C	 2.4767017073	 0.5661463295	-0.6542247526	-0.240021
C	 3.5310444308	 0.6435636717	 0.4690282156	-0.240294
C	 2.9095260522	 0.9515856499	 1.8130311984	 0.057699
O	 1.8010863195	 1.857444728	 1.7987671421	-0.254164
C	 1.5408174635	 0.4799738587	 2.1016769024	 0.023605
C	 0.8333263144	-0.3956750924	 1.0991921106	-0.035393
H	 0.2731831126	 2.1964915797	 0.0973904693	 0.1392
H	-0.8220637561	 1.5656638156	-1.1635430048	 0.11507
H	-1.3299156879	 1.5836785078	 0.5296583345	 0.1199
H	 1.3487987783	-1.3290213981	-0.8593424413	 0.086198
H	 2.9612736885	 0.2312651604	-1.5757602737	 0.100853
H	 2.0971755769	 1.5722289369	-0.8512871672	 0.119503
H	 4.0736758117	-0.3076165071	 0.555571523	 0.106239
H	 4.2777794855	 1.407862864	 0.2240023121	 0.10792
H	 3.5969392405	 1.0995781971	 2.6458959336	 0.090114
H	 1.2563459075	 0.3120769017	 3.1400829043	 0.093079
H	 0.5158913699	-1.3376140585	 1.5479507025	 0.082829
134.302	145.1027	225.1521	288.3486	300.1527	340.6001	461.5672	467.9422	531.7669	633.4013	682.7383	740.4035	779.9669	799.2122	823.4476	879.8549	916.8704	951.0986	992.3108	1037.6022	1057.6586	1062.3183	1074.7279	1130.0672	1142.5104	1146.3882	1166.9021	1180.8097	1224.9562	1248.877	1281.9909	1342.0835	1351.5637	1363.6203	1383.8357	1388.6491	1421.0528	1450.4521	1458.8588	1478.4132	1484.0171	1495.2949	1515.576	3021.2595	3028.8826	3056.2227	3065.7241	3087.948	3095.6993	3096.0143	3102.9169	3107.3206	3113.2636	3120.1429
CN1C2CCC3OC3C12	CN1[C@H]2CC[C@H]3O[C@H]3[C@@H]12	
InChI=1S/C7H11NO/c1-8-4-2-3-5-7(9-5)6(4)8/h4-7H,2-3H2,1H3	InChI=1S/C7H11NO/c1-8-4-2-3-5-7(9-5)6(4)8/h4-7H,2-3H2,1H3/t4-,5+,6-,7+,8?/m0/s1
