20
gdb 105675	2.09018	1.38195	1.2485	2.0819	75.69	-0.2161	-0.0311	0.185	1161.0791	0.16858	-440.257503	-440.247581	-440.246637	-440.292519	35.656	
C	-0.4531269118	 1.4419528792	-0.1661092889	-0.345317
N	-0.1529435695	 0.0497914004	 0.1105735151	-0.10432
C	-1.157828803	-0.7762423319	 0.8076953397	-0.162832
C	-0.0155404289	-1.5129379333	 1.5448004512	-0.295457
C	 0.9121527395	-0.3596803999	 1.0759931568	 0.200045
C	 2.235114258	-0.7056400829	 0.4041575507	-0.136199
O	 3.2146746125	-1.0936411954	 1.3573227895	-0.41385
C	 1.1440415461	 0.6855504431	 2.1665350003	 0.127747
O	 0.5353908415	 0.7375317672	 3.2055487102	-0.258944
H	 0.4290106397	 1.9434752783	-0.5780621361	 0.123602
H	-1.2419207614	 1.4873678925	-0.9248516645	 0.127148
H	-0.7995468321	 2.0117307006	 0.7136411578	 0.111161
H	-1.7916002656	-0.2026070387	 1.4998260666	 0.105959
H	-1.7995293771	-1.3586904283	 0.1378314093	 0.102484
H	-0.1278016757	-1.6093374605	 2.6234628666	 0.130823
H	 0.2450239209	-2.4747201469	 1.0972556407	 0.10123
H	 2.0667229688	-1.4701568414	-0.3663862513	 0.099959
H	 2.6408501629	 0.1808756253	-0.098005394	 0.112706
H	 2.9176701174	-1.9100838441	 1.7728732856	 0.291441
H	 1.9001294078	 1.4611399967	 1.9083241648	 0.082616
64.2017	92.732	117.1542	151.7728	229.3087	237.0701	268.5021	292.5809	311.0427	362.8855	399.4566	481.6059	591.8533	613.8591	770.0397	795.8218	886.627	935.4602	969.5794	972.9008	985.302	1054.4482	1077.5676	1118.0841	1137.7811	1175.337	1197.9223	1220.0454	1231.5338	1246.2499	1270.7868	1300.194	1332.9455	1362.0108	1406.5396	1424.1017	1450.8493	1470.2246	1484.4193	1501.1006	1509.9649	1519.9788	1820.0098	2874.6927	2954.1474	2994.6942	3012.1092	3056.9395	3057.1507	3065.2487	3078.2986	3096.5534	3154.8485	3811.5056
CN1CCC1(CO)C=O	CN1CC[C@]1(CO)C=O	
InChI=1S/C6H11NO2/c1-7-3-2-6(7,4-8)5-9/h4,9H,2-3,5H2,1H3	InChI=1S/C6H11NO2/c1-7-3-2-6(7,4-8)5-9/h4,9H,2-3,5H2,1H3/t6-/m1/s1
