14
gdb 19600	4.40192	2.0536	1.90519	1.5234	55.06	-0.254	0.0611	0.3151	717.4453	0.108233	-419.59834	-419.592687	-419.591743	-419.627803	23.444	
O	 0.1518825068	 1.3874222736	-0.1081115531	-0.462076
C	 0.1175268789	-0.0071828633	-0.099755268	 0.207694
C	 0.1589613987	-0.640801701	 1.3235375889	-0.033382
O	-1.2612619427	-0.2404350867	 1.4539354497	-0.329701
C	-1.3136146611	-0.6123297267	 0.0210065569	-0.033382
C	-1.0799580074	-2.133964545	 0.1018477222	 0.037852
O	 0.2371368043	-2.5552801993	-0.2906742462	-0.243683
C	 0.017260588	-2.1551798671	 1.0723686832	 0.037853
H	-0.4564763374	 1.676064324	 0.5859752726	 0.286919
H	 0.7911066746	-0.3738024904	-0.8692851637	 0.11746
H	 0.7950559794	-0.2768277064	 2.1291555201	 0.089382
H	-2.1826555026	-0.2192551035	-0.504706391	 0.089382
H	-1.8732306082	-2.8680163885	 0.0208755356	 0.117841
H	 0.1783489089	-2.9076816198	 1.8355606729	 0.11784
256.7996	342.5086	382.5928	395.7664	551.3746	602.6329	614.5579	691.3944	791.1479	846.3181	848.9798	862.6555	899.2871	903.8931	940.9873	949.4463	986.6007	1053.6437	1076.3674	1133.6499	1158.9616	1211.0279	1212.4813	1239.3402	1240.5271	1291.9914	1297.4962	1318.4752	1388.2166	1446.4709	3137.2888	3138.6078	3165.1979	3181.6451	3193.4195	3757.0769
OC1C2OC1C1OC21	O[C@H]1[C@H]2O[C@@H]1[C@H]1O[C@@H]21	
InChI=1S/C5H6O3/c6-1-2-4-5(8-4)3(1)7-2/h1-6H	InChI=1S/C5H6O3/c6-1-2-4-5(8-4)3(1)7-2/h1-6H/t1-,2+,3-,4-,5+
