20
gdb 104129	2.94851	1.12055	1.07143	3.712	76.14	-0.2565	0.03	0.2864	1245.5781	0.170589	-440.310407	-440.301226	-440.300282	-440.344259	34.849	
C	 0.1961970469	 1.3444407253	-0.2709414197	-0.421496
C	-0.1496895361	-0.1458126457	-0.1796150473	-0.208624
C	-1.6144763964	-0.4538489444	 0.1837764767	 0.365711
O	-2.0024263168	 0.1735047025	 1.3957783154	-0.484685
C	-2.5918513743	-0.1321177633	-0.9764954129	-0.141091
O	-2.6213160264	-1.3025317564	-1.8028541263	-0.237498
C	-2.2307840995	-2.4001579696	-1.0777909103	 0.418776
N	-2.1935857189	-3.5769213253	-1.5297366985	-0.545628
C	-1.8509581552	-1.9653808106	 0.3172457172	-0.344179
H	 1.2408510193	 1.4758051136	-0.5661086516	 0.130453
H	-0.4177418545	 1.8721956399	-1.0084786502	 0.123161
H	 0.077545791	 1.8486279874	 0.6951210243	 0.116865
H	 0.0772753113	-0.6365306555	-1.1337217093	 0.116757
H	 0.4887508381	-0.61703498	 0.5761248483	 0.111081
H	-1.8049222728	 1.1134213106	 1.3305867951	 0.281422
H	-3.5892944049	 0.0635110145	-0.564896136	 0.115022
H	-2.2913099449	 0.7101377763	-1.6047001608	 0.109412
H	-2.5177658243	-3.5970798608	-2.4985661192	 0.220574
H	-0.9960850523	-2.5280149333	 0.69301843	 0.133221
H	-2.6930435793	-2.1300334351	 0.9981573852	 0.140746
77.3618	105.2567	152.5299	232.0718	251.578	284.8705	315.4326	355.3746	388.2628	442.4982	515.3631	524.3187	617.4271	675.31	760.2249	792.6468	860.5254	896.3357	917.0438	947.7435	1006.126	1011.415	1021.168	1045.0614	1097.0183	1116.6831	1126.7029	1182.9549	1211.6528	1270.9319	1283.1541	1291.6053	1325.5201	1342.7897	1383.4418	1401.7992	1422.5889	1468.7035	1478.8169	1500.936	1510.6344	1520.4059	1784.2637	3030.1051	3034.9943	3035.4565	3061.1435	3070.3563	3096.0795	3104.1744	3111.1389	3133.6644	3468.698	3817.6559
CCC1(O)COC(=N)C1	CC[C@@]1(O)CO[C]([NH])C1	
InChI=1S/C6H11NO2/c1-2-6(8)3-5(7)9-4-6/h7-8H,2-4H2,1H3	InChI=1S/C6H11NO2/c1-2-6(8)3-5(7)9-4-6/h7-8H,2-4H2,1H3/t6-/m0/s1
