23
gdb 59998	2.68862	0.90117	0.83495	1.7504	82.03	-0.2583	0.0688	0.3271	1541.0821	0.203401	-425.407446	-425.396767	-425.395823	-425.444151	38.996	
C	-1.996794321	 1.6892503351	-1.0183083517	-0.404453
C	-1.9940679993	 0.1783055949	-1.2493724121	 0.124556
O	-1.1900891138	-0.1707057302	-2.3782135171	-0.43182
C	-1.5729037835	-0.5938577533	 0.0092944987	-0.198033
C	-1.4382324256	-2.1222953536	-0.1659175746	-0.008337
C	-0.9021033618	-2.7608617625	 1.1209981813	-0.41711
C	-2.7582401731	-2.7173782046	-0.6276008903	 0.099327
C	-3.3413503592	-3.9714645425	-0.1335992848	-0.19227
O	-3.8439762673	-2.7090094667	 0.3106869554	-0.245821
H	-2.294264019	 2.2128818707	-1.9308524384	 0.123023
H	-2.6887706948	 1.9655689112	-0.21625888	 0.119979
H	-0.997671043	 2.0413380337	-0.7308918886	 0.104022
H	-3.0052851876	-0.1287001899	-1.5392188034	 0.09981
H	-0.2928868767	 0.1346616621	-2.2016607826	 0.275274
H	-0.6069970089	-0.1971520947	 0.3546784343	 0.078328
H	-2.2960586157	-0.3875167448	 0.80825159	 0.112664
H	-0.7232133928	-2.2973419226	-0.9794549213	 0.082618
H	-1.6487658802	-2.706417303	 1.9199275297	 0.132391
H	-0.6354240168	-3.8111345182	 0.9711288969	 0.111627
H	-0.0040664275	-2.2382508704	 1.4645264544	 0.10817
H	-3.0559769042	-2.4127316617	-1.6316438331	 0.102216
H	-4.0114432701	-4.5394956429	-0.7783451872	 0.110627
H	-2.8262601379	-4.558084116	 0.6234281945	 0.113211
26.3125	58.4674	129.986	151.0663	221.2277	237.7662	245.3637	286.5578	293.8749	321.8886	351.8071	448.5076	481.6874	539.6077	585.0087	737.6301	833.2788	840.25	894.2422	906.4708	940.6672	969.4231	993.4693	1016.3289	1069.542	1076.8113	1106.2824	1128.5766	1145.7215	1159.1346	1175.8443	1190.5274	1215.8253	1291.1419	1301.4907	1326.4829	1352.9016	1374.6214	1395.5737	1402.1419	1405.0891	1423.3184	1437.7332	1474.7501	1492.7549	1494.8218	1496.8191	1510.9049	1530.8967	3000.5595	3022.8048	3032.6278	3036.655	3048.5375	3062.9702	3087.0608	3094.6606	3104.3995	3104.7205	3110.4675	3118.4737	3176.0671	3791.9565
CC(O)CC(C)C1CO1	C[C@@H](O)C[C@@H](C)[C@H]1CO1	
InChI=1S/C7H14O2/c1-5(3-6(2)8)7-4-9-7/h5-8H,3-4H2,1-2H3	InChI=1S/C7H14O2/c1-5(3-6(2)8)7-4-9-7/h5-8H,3-4H2,1-2H3/t5-,6-,7-/m1/s1
