21
gdb 63921	2.8941	1.51909	1.50301	1.1386	80.51	-0.2501	0.0809	0.3309	1018.4081	0.183663	-387.073333	-387.065469	-387.064525	-387.104988	32.78	
C	-0.2410994934	 1.5793867007	 0.0184104357	-0.442171
C	 0.0042362921	 0.0689497087	-0.0353209911	 0.383954
O	-1.2440996453	-0.6166921927	 0.1347322148	-0.482524
C	 0.740669313	-0.416470391	-1.3269532347	-0.275217
C	 2.1182372415	-0.8987628501	-0.8515000494	-0.039164
C	 2.9377538359	 0.276187795	-0.2296419583	-0.238804
C	 2.3817824111	-0.1167348249	 1.1384786626	-0.079178
C	 1.8952602455	-1.4512493927	 0.5900809838	-0.091444
C	 0.8984406576	-0.4519118065	 1.0875121089	-0.031589
H	 0.6909324136	 2.1442844326	-0.0660075776	 0.122536
H	-0.8960477886	 1.8960968914	-0.8033138028	 0.099857
H	-0.7251158285	 1.8488976399	 0.961974203	 0.119991
H	-1.8540228154	-0.2792417584	-0.529997333	 0.270014
H	 0.1658616921	-1.2504739001	-1.742104875	 0.098803
H	 0.8168297934	 0.3636650277	-2.0927024878	 0.086919
H	 2.6488956626	-1.5227781954	-1.5702751586	 0.065634
H	 4.0121121246	 0.0778015905	-0.2779459712	 0.098733
H	 2.7516817262	 1.2860013432	-0.6147298984	 0.084113
H	 2.8535369726	 0.0884853115	 2.0927915251	 0.079285
H	 2.0301795056	-2.4603443601	 0.9546624996	 0.083455
H	 0.4240593138	-0.6105348395	 2.0495638144	 0.086795
133.6673	221.8644	247.8989	267.3026	348.8115	358.3415	393.9276	418.8225	518.0228	592.3165	631.9382	752.9273	767.8679	805.9145	831.3765	851.2775	873.542	922.9661	942.2619	947.4477	972.5443	995.52	1008.8012	1034.8732	1052.8986	1071.8839	1078.0563	1100.5241	1131.8434	1158.8679	1200.2915	1202.1711	1231.7769	1255.0362	1266.0909	1284.6499	1310.0652	1338.0597	1379.0023	1402.1788	1412.7157	1478.5916	1490.1571	1492.0574	1504.8162	3021.757	3024.6846	3036.8974	3084.5049	3086.4656	3092.1101	3112.005	3120.1811	3167.6546	3179.8242	3206.4619	3804.1181
CC1(O)CC2CC3C2C13	C[C@@]1(O)C[C@H]2C[C@@H]3[C@H]2[C@H]13	
InChI=1S/C8H12O/c1-8(9)3-4-2-5-6(4)7(5)8/h4-7,9H,2-3H2,1H3	InChI=1S/C8H12O/c1-8(9)3-4-2-5-6(4)7(5)8/h4-7,9H,2-3H2,1H3/t4-,5-,6+,7-,8-/m1/s1
