22
gdb 121879	3.52205	0.69393	0.60717	5.3282	79.69	-0.2439	0.0222	0.2661	1873.55	0.193088	-441.526154	-441.515477	-441.514533	-441.563085	37.811	
C	 0.1808341806	 1.5026680318	 0.2419605347	-0.38051
C	 0.0256232509	 0.0241698172	-0.1223688349	-0.187786
C	-1.4109924051	-0.4723892764	 0.0353091379	-0.11714
N	-1.5161508509	-1.8992104762	-0.2877882713	-0.328414
H	-1.1619087575	-2.05310801	-1.2289290503	 0.225612
H	-1.0135464533	-3.4717215927	 0.6060639268	 0.295187
C	-2.8634975651	-2.4828054288	-0.1807811654	-0.106518
C	-3.7607764411	-2.3002816533	-1.4069562117	-0.395195
C	-2.7424075262	-3.9759875682	 0.203778712	 0.421704
O	-1.5389371538	-4.3011368953	 0.6907072668	-0.36911
O	-3.6494170551	-4.7586800382	 0.1035384604	-0.34372
H	 1.2160328965	 1.8322316252	 0.116444706	 0.121222
H	-0.4495472567	 2.1376606016	-0.3899421388	 0.11928
H	-0.102616461	 1.6860170327	 1.2840145732	 0.1208
H	 0.3489738045	-0.1337913093	-1.1604735391	 0.097172
H	 0.6820577036	-0.5927064337	 0.5023130991	 0.109886
H	-1.7339354945	-0.3433122417	 1.0758243393	 0.113303
H	-2.0834641629	 0.1461039046	-0.5829795459	 0.093651
H	-3.3434887081	-2.0073490608	 0.6851221188	 0.119565
H	-3.2931410915	-2.736767545	-2.2967193494	 0.119714
H	-4.7125992908	-2.8105090017	-1.2496239809	 0.155521
H	-3.9515216126	-1.240923872	-1.6004025173	 0.115777
44.1693	69.266	81.0594	119.9221	163.8729	219.9382	236.7434	249.6174	291.272	336.9562	404.7427	435.6086	551.4836	588.514	733.9737	760.7586	780.6257	833.0115	898.0726	908.8535	912.0985	944.303	1043.4556	1059.8688	1091.8573	1100.2383	1146.1047	1156.0032	1200.7805	1223.8007	1268.797	1303.0771	1314.6138	1332.0812	1355.6238	1401.736	1411.4915	1417.5389	1438.5037	1483.2232	1489.4612	1491.3854	1499.9691	1502.1377	1504.9278	1521.235	1867.2796	2960.0969	3015.6783	3028.4539	3034.1523	3039.7708	3044.1574	3064.8371	3101.0876	3107.175	3110.9669	3142.7768	3426.2424	3490.4632
CCC[NH2+]C(C)C([O-])=O	CCCN[C@@H](C)C(=O)O	
InChI=1S/C6H13NO2/c1-3-4-7-5(2)6(8)9/h5,7H,3-4H2,1-2H3,(H,8,9)	InChI=1S/C6H13NO2/c1-3-4-7-5(2)6(8)9/h5,7H,3-4H2,1-2H3,(H,8,9)/t5-/m0/s1
