17
gdb 110188	2.40829	1.23099	0.87558	0.5999	71.65	-0.2427	-0.0494	0.1933	1302.9534	0.134277	-455.127765	-455.118535	-455.117591	-455.162877	32.155	
C	-0.3470135281	 1.4700817297	 0.1901177726	-0.329507
N	-0.3586794314	 0.0916228998	-0.3048511125	-0.295666
C	-1.5356196861	-0.6416157062	 0.1036322073	-0.131624
C	-1.5178826707	-2.1581223947	-0.2432356693	 0.018137
O	-1.5807658736	-2.4896292993	 1.1749751937	-0.264565
C	-1.5274342158	-1.1556241444	 1.5372792917	 0.468919
N	-1.4821838377	-0.6145366686	 2.6638073505	-0.539191
C	-2.710039499	-2.6809921441	-1.0095976644	 0.126621
O	-2.731313058	-2.758276688	-2.2099022333	-0.235677
H	 0.5612962589	 1.9659297655	-0.1616538531	 0.12407
H	-1.2185849762	 2.0651134929	-0.1327467382	 0.100304
H	-0.3342395388	 1.4564356132	 1.2825490948	 0.165679
H	-0.3138309679	 0.0925417594	-1.3195143875	 0.231293
H	-2.4931380766	-0.1502682778	-0.1465272302	 0.095671
H	-0.5776217563	-2.485131217	-0.693275161	 0.129244
H	-1.468955556	-1.3037669894	 3.4176539774	 0.23548
H	-3.5774632267	-2.9626212409	-0.3725278485	 0.100812
55.0247	72.5094	104.7507	169.2341	192.9952	227.653	279.9458	365.5871	403.8238	450.9664	506.8643	663.2676	750.1876	801.1117	865.5065	889.8646	911.7576	996.4301	1016.5266	1027.7565	1062.6021	1093.299	1141.8632	1165.7895	1179.1319	1209.211	1261.2642	1264.6752	1320.0194	1369.7561	1403.9364	1457.8357	1477.3666	1496.0537	1519.7992	1832.5121	1835.1445	2897.1571	2937.3333	2960.3142	3085.9324	3097.9595	3133.5917	3477.1449	3509.3238
CNC1C(OC1=N)C=O	CN[C@H]1[C@@H](O[C]1[NH])C=O	
InChI=1S/C5H8N2O2/c1-7-4-3(2-8)9-5(4)6/h2-4,6-7H,1H3	InChI=1S/C5H8N2O2/c1-7-4-3(2-8)9-5(4)6/h2-4,6-7H,1H3/t3-,4-/m0/s1
