21
gdb 84132	2.52758	1.37371	1.02512	1.8265	85.02	-0.2343	0.0268	0.261	1250.7508	0.181514	-387.094964	-387.085891	-387.084947	-387.128662	34.713	
C	 0.3139424817	 1.6795323981	-0.1542881837	-0.391737
C	 0.0705692728	 0.1733067687	 0.0485850256	-0.106102
C	 0.5651409496	-0.6533277411	-1.1157773659	-0.174742
C	 1.6052088275	-1.4350475858	-0.8141370068	 0.320065
C	 2.3558528898	-2.3443047036	-1.7341860252	-0.491568
C	 1.9890454456	-1.2905582142	 0.6436273606	-0.381694
C	 0.8552078465	-0.442014073	 1.220983943	 0.41503
C	 0.8575944267	 0.0943991806	 2.5846909498	-0.248093
O	 0.0749633071	-1.0564294758	 2.2568944946	-0.27283
H	 1.3811907111	 1.8927843223	-0.2748520856	 0.114711
H	-0.1991936571	 2.0346958205	-1.0540376868	 0.114532
H	-0.0585843205	 2.2633847693	 0.6933629231	 0.113561
H	-0.9994856628	 0.0149302389	 0.2340135761	 0.092023
H	 0.1225668368	-0.574357237	-2.1040065293	 0.083519
H	 1.9512894629	-2.3145781516	-2.7495521457	 0.123266
H	 3.4181299451	-2.0714164587	-1.782225926	 0.123705
H	 2.3189521321	-3.3829771405	-1.3816793767	 0.127483
H	 2.0492663031	-2.2490098668	 1.1728899557	 0.118457
H	 2.9704014655	-0.8068497873	 0.751369363	 0.10655
H	 1.7127237223	-0.0890954487	 3.2357621112	 0.105763
H	 0.2900329743	 0.9939838457	 2.8212234292	 0.1081
62.3266	134.4719	186.0792	213.4494	252.2935	260.0102	330.7473	351.0433	414.0618	447.0241	498.306	538.6276	640.8244	747.4907	810.4631	849.1827	875.3544	894.9357	939.0809	958.4326	988.4702	1010.6624	1026.3693	1061.3468	1094.318	1106.0954	1130.3833	1157.2154	1177.6107	1197.0759	1230.7905	1273.181	1293.0783	1329.0496	1346.7174	1402.7105	1413.9984	1424.8344	1471.8904	1478.1595	1488.6059	1495.3066	1498.586	1535.1246	1721.7232	3005.7086	3016.194	3025.4262	3031.4453	3055.8196	3061.2968	3073.1308	3100.2918	3105.2651	3110.1589	3154.972	3178.0354
CC1C=C(C)CC11CO1	C[C@H]1C=C(C)C[C@]21CO2	
InChI=1S/C8H12O/c1-6-3-7(2)8(4-6)5-9-8/h3,7H,4-5H2,1-2H3	InChI=1S/C8H12O/c1-6-3-7(2)8(4-6)5-9-8/h3,7H,4-5H2,1-2H3/t7-,8+/m0/s1
