21
gdb 104739	2.24856	1.37603	1.01137	2.7759	75.63	-0.2369	0.0691	0.306	1253.9851	0.178496	-461.328414	-461.317627	-461.316683	-461.363632	39.627	
C	 0.0409739595	 0.9537411931	-0.5745179861	-0.25194
O	 0.6376971208	-0.309416072	-0.3148442136	-0.293722
C	 0.9769979361	-0.5561037678	 1.0187557154	 0.366024
C	 2.1877868714	 0.1941308664	 1.5375830685	-0.129783
O	 1.9377619106	 1.5794576814	 1.7676040242	-0.420988
C	-0.1715167794	-0.8614577304	 1.9816766191	-0.428917
C	 0.7238085553	-1.9723170859	 1.4617020583	 0.329622
C	 0.1802890559	-2.9912539308	 0.4871329455	-0.439916
O	 1.6819340539	-2.4884776316	 2.3530436898	-0.465451
H	 0.7294247464	 1.7796687549	-0.3737700675	 0.13798
H	-0.2383652404	 0.9504874625	-1.6310104632	 0.119471
H	-0.8647627109	 1.1002867103	 0.032104342	 0.097293
H	 2.5654898986	-0.3005865488	 2.4388885541	 0.111931
H	 2.972477767	 0.1604124935	 0.7757507088	 0.118254
H	 1.2383745909	 1.6385120038	 2.4271375022	 0.279392
H	-0.0535310616	-0.5778405796	 3.0231935461	 0.105521
H	-1.1824357154	-0.7955495223	 1.5944374929	 0.117534
H	-0.4800555232	-2.5242122753	-0.2437847425	 0.134381
H	 1.0037501854	-3.4733607081	-0.0484931923	 0.129
H	-0.3810579045	-3.7677093693	 1.021231738	 0.102049
H	 1.2321595739	-3.1127519541	 2.9332210004	 0.282265
86.0491	115.3725	137.1869	173.3505	191.2291	222.4756	229.746	283.2749	301.1143	336.2843	353.1641	399.0994	414.9012	434.9185	479.1943	593.7575	692.5055	811.5917	902.1188	911.3878	926.6626	952.6735	984.533	1024.2765	1042.9428	1063.6352	1095.8291	1133.4232	1187.24	1208.3835	1220.5496	1235.8148	1295.8686	1298.3811	1375.4185	1400.0801	1411.9014	1422.3523	1468.8999	1478.4842	1483.2611	1485.6825	1495.0577	1507.6076	1517.8472	2997.4575	3030.2692	3044.5242	3082.5569	3096.2333	3097.594	3122.6682	3124.1831	3150.1563	3216.9296	3795.4745	3807.3173
COC1(CO)CC1(C)O	CO[C@@]1(CO)C[C@]1(C)O	
InChI=1S/C6H12O3/c1-5(8)3-6(5,4-7)9-2/h7-8H,3-4H2,1-2H3	InChI=1S/C6H12O3/c1-5(8)3-6(5,4-7)9-2/h7-8H,3-4H2,1-2H3/t5-,6+/m0/s1
