23
gdb 113486	3.95656	0.93546	0.8614	0.1415	91.3	-0.2311	0.0327	0.2638	1466.0365	0.206191	-351.161941	-351.152785	-351.151841	-351.196336	35.201	
C	-0.0591804439	 1.5646110452	-0.5427296473	-0.373615
C	-0.0249547242	 0.2061454591	 0.16754623	-0.198811
C	-1.3796979602	-0.471650057	 0.198521543	-0.028974
C	-1.8404402034	-1.3317671845	-0.9554209341	-0.338156
C	-1.5365055596	-1.9608106757	 0.3847895207	 0.342523
C	-0.3317317022	-2.9066260129	 0.5471883053	-0.336436
C	-0.9205305791	-4.0914913245	 1.2727260144	-0.062659
C	-2.1829245651	-3.8877818326	 1.6430822218	-0.059979
C	-2.6880063816	-2.526167894	 1.2369458089	-0.334682
H	 0.9297692603	 2.0337171678	-0.5531262055	 0.108039
H	-0.3937799355	 1.4567088151	-1.5797874293	 0.117638
H	-0.7495021653	 2.2534834219	-0.0433482257	 0.112623
H	 0.7002871457	-0.4474187788	-0.3321097739	 0.095509
H	 0.3440144901	 0.3406946051	 1.1934997853	 0.094212
H	-2.1571099289	 0.1300162664	 0.6685283854	 0.071925
H	-2.8767617183	-1.2723002898	-1.2743300332	 0.102488
H	-1.1353875845	-1.5041265392	-1.7646472094	 0.102023
H	 0.1121438361	-3.1875093533	-0.4164211501	 0.101686
H	 0.48035573	-2.4538914725	 1.1347703525	 0.104454
H	-0.3457487395	-4.9886601862	 1.4756859063	 0.087955
H	-2.7950363557	-4.5935070243	 2.1941316193	 0.088287
H	-2.8936759832	-1.9024312343	 2.1197305453	 0.102024
H	-3.630712342	-2.5792277512	 0.6766031904	 0.101926
44.9146	92.3213	136.5938	174.3677	252.4318	296.7615	347.3302	387.9409	424.7653	438.3196	586.7982	697.2452	759.3902	777.3159	788.4591	812.8236	879.7537	919.1393	934.4322	964.729	965.4817	977.9485	982.4174	995.9594	1034.3788	1057.4966	1061.5119	1092.7399	1126.7265	1131.3636	1168.2941	1190.9519	1207.9267	1234.3773	1272.7844	1294.1612	1297.5732	1337.6036	1360.2861	1372.8025	1408.3515	1430.5155	1482.5862	1485.8052	1489.6701	1494.5654	1497.4166	1507.3117	1693.8555	2992.5246	2997.8752	3013.785	3027.1106	3030.5793	3030.9728	3051.3835	3097.4208	3103.458	3107.6391	3109.2951	3178.8261	3193.1957	3204.4684
CCC1CC11CC=CC1	CC[C@H]1C[C@]21CC=CC2	
InChI=1S/C9H14/c1-2-8-7-9(8)5-3-4-6-9/h3-4,8H,2,5-7H2,1H3	InChI=1S/C9H14/c1-2-8-7-9(8)5-3-4-6-9/h3-4,8H,2,5-7H2,1H3/t8-/m0/s1
