21
gdb 63490	2.88252	1.09011	0.92463	4.0723	80.42	-0.2648	0.0067	0.2715	1348.2849	0.178757	-424.247152	-424.236783	-424.235839	-424.282072	37.994	
C	-0.0557978063	 1.5095222742	-0.0122612018	-0.4581
C	 0.0174951386	-0.0068811917	 0.0285132836	 0.27125
C	-1.2252280158	-0.6803466736	-0.5284581803	-0.444045
C	 1.3577073104	-0.6780692531	-0.2267381817	-0.38891
C	 0.7552261305	-0.6875383481	 1.1604977177	 0.369262
C	 1.3758485241	 0.0624084424	 2.3162631461	-0.446426
O	 0.1546829475	-1.9070101941	 1.6022898481	-0.222901
C	 0.9669033708	-2.9710277913	 1.7677346277	 0.158919
O	 0.5759221043	-4.0182000439	 2.1899236719	-0.278168
H	 0.8745448874	 1.9885653893	 0.3016750709	 0.115351
H	-0.2639923608	 1.8438741987	-1.0347375751	 0.122653
H	-0.8623474511	 1.8851841219	 0.6277052203	 0.122857
H	-1.3677310476	-0.3957518933	-1.5768095053	 0.114913
H	-1.1650904927	-1.7677331704	-0.4718931428	 0.132917
H	-2.117208659	-0.3683199656	 0.0261416837	 0.121645
H	 1.3546407504	-1.6059562747	-0.7890837328	 0.121544
H	 2.232272713	-0.0568132572	-0.3933421173	 0.115375
H	 1.8195100051	 1.0057514608	 1.9941294371	 0.126256
H	 0.6229511226	 0.2762634242	 3.0814781186	 0.136967
H	 2.1680142548	-0.5343312381	 2.7817726321	 0.123666
H	 2.0099829238	-2.7671358962	 1.4635453594	 0.084975
85.5316	120.6072	167.6286	173.3081	184.2856	192.2221	228.0019	273.2136	318.8716	368.3952	379.0601	414.685	450.2657	540.6002	573.9138	716.3302	768.3504	890.3907	913.5698	930.7125	971.9498	985.867	1022.4111	1039.5069	1052.5085	1063.0578	1115.5818	1156.2843	1177.6626	1200.1087	1222.8585	1301.9208	1387.1767	1410.1926	1416.7286	1421.7147	1429.0806	1477.5635	1479.9059	1488.3111	1489.8014	1494.7729	1505.4992	1518.1843	1861.1434	2970.2495	3029.8398	3035.1759	3040.0436	3087.9566	3091.764	3099.8375	3114.1948	3124.5448	3139.5519	3140.759	3211.7231
CC1(C)CC1(C)OC=O	CC1(C)C[C@]1(C)OC=O	
InChI=1S/C7H12O2/c1-6(2)4-7(6,3)9-5-8/h5H,4H2,1-3H3	InChI=1S/C7H12O2/c1-6(2)4-7(6,3)9-5-8/h5H,4H2,1-3H3/t7-/m0/s1
