19
gdb 30363	3.05352	1.68227	1.12126	2.5116	83.68	-0.1653	0.0577	0.2229	1086.4125	0.162445	-382.099555	-382.091819	-382.090875	-382.131586	30.197	
C	-0.1455521053	 1.480778862	-0.0626426287	-0.331519
N	 0.1116922584	 0.0560513196	 0.0055576904	-0.175292
C	 0.7952691382	-0.53889204	-1.1546367898	-0.167691
C	 1.350591618	-1.8762541565	-0.611888681	-0.193875
N	 1.5348651825	-1.530396748	 0.7842575408	-0.023953
C	 2.086652117	-2.0962720996	 1.9169727947	-0.152311
C	 1.7120954603	-1.3030093612	 2.9757254928	-0.129428
C	 0.8812781751	-0.2396232557	 2.486913195	-0.3404
C	 0.7896279979	-0.4387699251	 1.1297115095	 0.415449
H	 0.7774467442	 2.0814736515	-0.1412315742	 0.105656
H	-0.776030957	 1.6969794009	-0.9303612975	 0.121667
H	-0.6866504646	 1.7969443482	 0.8330191969	 0.13663
H	 0.106087369	-0.6743902259	-1.9925778155	 0.113017
H	 1.6289519341	 0.1016503459	-1.490222948	 0.098014
H	 0.624530252	-2.691974338	-0.727061766	 0.120009
H	 2.285146653	-2.169229227	-1.0970770857	 0.122533
H	 2.7087844586	-2.9741582114	 1.8634782273	 0.108586
H	 2.0136494316	-1.4488363024	 4.0023115663	 0.08756
H	 0.424206337	 0.5470204626	 3.0647197523	 0.085348
130.208	149.4148	201.3943	232.0091	262.5853	362.5758	486.7173	591.1994	596.801	636.8668	646.0717	695.4213	722.8474	748.266	807.7916	856.7255	920.2994	960.4688	1012.2652	1028.2595	1076.5933	1109.6105	1123.6768	1158.7673	1176.9391	1209.6002	1230.1384	1270.2082	1277.8084	1316.756	1337.095	1372.9531	1418.6019	1454.9125	1484.7755	1490.4012	1495.6269	1514.4973	1517.1309	1536.1694	1619.419	2951.7782	2956.0717	3014.8559	3073.5244	3084.5294	3092.6281	3117.0233	3238.9368	3261.0625	3274.9942
CN1CCN2C=CC=C12	CN1CCn2cccc12	
InChI=1S/C7H10N2/c1-8-5-6-9-4-2-3-7(8)9/h2-4H,5-6H2,1H3	InChI=1S/C7H10N2/c1-8-5-6-9-4-2-3-7(8)9/h2-4H,5-6H2,1H3
