23
gdb 63696	2.40788	1.54957	1.1859	1.2125	85.31	-0.2427	0.0793	0.322	1165.7693	0.204434	-388.274344	-388.264904	-388.26396	-388.307703	37.533	
C	 0.0722294743	 1.5702517122	-0.0470675065	-0.45857
C	 0.0080581849	 0.0477885858	-0.003970897	 0.344058
C	-1.4328562891	-0.4393422129	-0.1943557304	-0.440096
C	 0.9807663352	-0.7345538534	-0.9538900637	-0.345882
C	 1.357717597	-1.6857741013	 0.2251696101	 0.431944
O	 0.9050915807	-3.0090622209	 0.1287511235	-0.488909
C	 2.7257845532	-1.402330205	 0.8836721957	-0.289465
C	 2.0621550602	-0.2383884009	 1.6822990843	-0.254705
C	 0.6484114344	-0.6976232665	 1.2059076519	-0.07906
H	 1.0931731158	 1.9473036263	 0.0644846901	 0.109468
H	-0.3119842335	 1.9455023009	-1.0030271218	 0.110774
H	-0.5369282407	 2.0133575937	 0.7497581632	 0.111021
H	-1.8327776408	-0.1101804089	-1.1608098484	 0.103895
H	-1.4831070344	-1.5319971281	-0.160683921	 0.12944
H	-2.0859222944	-0.0456188745	 0.5932800199	 0.106905
H	 0.4981519212	-1.2296395785	-1.8015669418	 0.091224
H	 1.8219399891	-0.1405916769	-1.3243959365	 0.088395
H	 1.310185831	-3.410129511	-0.6486192699	 0.274229
H	 3.0135391384	-2.2317202975	 1.5353891649	 0.103627
H	 3.5654472311	-1.1561221774	 0.2258595957	 0.085303
H	 2.2102829341	-0.2853670197	 2.7626863762	 0.104509
H	 2.353570616	 0.7595122168	 1.3477082997	 0.099835
H	-0.0250060837	-1.0419363623	 1.9928739417	 0.06206
82.4346	195.9211	205.8883	227.6873	236.7435	274.5505	328.978	337.4165	346.2659	389.7284	421.1944	480.1563	575.2131	631.0518	730.6698	747.2627	838.8961	865.2099	888.9556	912.6522	940.7922	949.6228	959.9622	995.756	1009.9792	1026.1232	1055.0655	1084.7257	1126.9288	1165.951	1207.6809	1217.6291	1227.6528	1237.4832	1239.8882	1272.8535	1292.4272	1302.9229	1318.152	1362.7008	1401.2431	1419.4337	1470.8551	1474.4159	1484.1476	1487.4875	1495.0606	1503.7219	1511.3349	3017.8431	3023.9671	3042.6587	3045.0331	3071.7531	3079.6951	3085.4191	3090.3181	3097.214	3100.8093	3102.4707	3105.8974	3124.375	3790.0321
CC1(C)CC2(O)CCC12	CC1(C)C[C@@]2(O)CC[C@@H]12	
InChI=1S/C8H14O/c1-7(2)5-8(9)4-3-6(7)8/h6,9H,3-5H2,1-2H3	InChI=1S/C8H14O/c1-7(2)5-8(9)4-3-6(7)8/h6,9H,3-5H2,1-2H3/t6-,8-/m0/s1
