18
gdb 70482	2.83456	1.17442	1.06701	5.7841	73.15	-0.2421	0.0157	0.2578	1202.025	0.14688	-439.062597	-439.053933	-439.052988	-439.09625	31.86	
C	-0.3194248296	 1.4214531769	 0.1067474164	-0.512634
C	 0.1133298794	 0.0039105573	-0.1047456188	 0.302438
N	-0.7201533319	-1.1471527415	 0.3319793341	-0.367941
C	 0.6738003352	-1.032898186	 0.8194272305	-0.092502
C	 1.5351191698	-1.6608529707	-0.2785742069	-0.276592
C	 1.0384034916	-0.5051709472	-1.2188337706	 0.097607
O	 0.5589014067	-0.7440637192	-2.5381445826	-0.213696
C	-0.4283942935	-1.6481310116	-2.7544671823	 0.143299
O	-0.8463331199	-1.85103686	-3.8567040027	-0.279636
H	 0.520959178	 2.1119666875	-0.0194434493	 0.131448
H	-1.0970144742	 1.7071771781	-0.6104523339	 0.143523
H	-0.7237582823	 1.5632832376	 1.1148229955	 0.121879
H	-1.3372588246	-0.79864669	 1.0654193168	 0.231661
H	 0.8914335623	-0.9567145181	 1.8771325226	 0.103339
H	 2.612030821	-1.6228265687	-0.1074050777	 0.115337
H	 1.2415169627	-2.6754543863	-0.5543909249	 0.122995
H	 1.8460062971	 0.2146018461	-1.3668975372	 0.107534
H	-0.7882310875	-2.1364238443	-1.8375017391	 0.121942
76.5385	110.7065	164.3425	196.9995	219.2418	269.2218	311.571	400.3434	453.3851	515.1102	622.0663	689.652	727.0246	822.9852	859.2047	905.188	935.3775	957.8741	1026.8737	1035.619	1059.3141	1070.7547	1097.4923	1105.6636	1114.3286	1146.9365	1182.1384	1231.6672	1251.8216	1307.3029	1343.2895	1399.3234	1416.6167	1432.8298	1448.1851	1480.9695	1484.9428	1498.2941	1849.52	3028.4125	3047.9752	3079.1145	3092.4259	3094.4349	3100.5806	3138.0103	3200.7099	3470.6563
CC12NC1CC2OC=O	C[C@]12N[C@H]1C[C@H]2OC=O	
InChI=1S/C6H9NO2/c1-6-4(7-6)2-5(6)9-3-8/h3-5,7H,2H2,1H3	InChI=1S/C6H9NO2/c1-6-4(7-6)2-5(6)9-3-8/h3-5,7H,2H2,1H3/t4-,5+,6-/m0/s1
