20
gdb 110633	2.4257	1.39469	1.07451	1.1588	78.84	-0.2066	0.0711	0.2777	1209.6363	0.169637	-403.047495	-403.038653	-403.037709	-403.081472	34.323	
C	-0.2968448555	 1.5682452542	-0.1946193415	-0.399222
C	 0.1523108656	 0.1506743273	 0.1833466827	-0.168729
C	 0.8284678871	-0.5558652944	-0.9944200858	-0.079917
C	 2.0966880077	-1.4040734238	-1.0457415103	-0.15673
C	 2.1849662532	-2.5129446254	 0.0388561238	-0.046751
N	 1.007055926	-2.4276523725	 0.9464439511	-0.335775
C	 0.8911595923	-3.078357201	-0.3820769951	-0.136218
C	 0.7602514288	-1.9788837209	-1.4868529563	 0.354289
O	 0.3905005049	-2.3250722586	-2.7758875384	-0.454821
H	 0.5534111835	 2.1851017399	-0.5075522039	 0.112502
H	-1.0149743452	 1.5540574201	-1.0229899827	 0.106443
H	-0.7772215865	 2.0696628049	 0.6516524962	 0.107297
H	 0.8359338127	 0.1926041154	 1.0340935417	 0.110649
H	-0.7064411691	-0.4319436012	 0.5275432054	 0.10236
H	 0.8430189426	 0.0724074529	-1.8877298574	 0.089736
H	 2.9450990559	-1.1220803526	-1.656278246	 0.093534
H	 3.0943121002	-3.010595214	 0.3487420867	 0.094389
H	 1.1086296378	-3.1747409872	 1.6347888181	 0.22664
H	 0.5781406517	-4.1075917837	-0.5021055875	 0.09524
H	-0.5591118036	-2.1833863594	-2.8632068108	 0.285083
28.4923	173.1405	189.0079	229.7558	263.441	300.208	319.7031	375.7156	404.8089	508.0112	574.8281	668.8025	717.4111	774.7535	781.9665	824.0538	826.9176	876.8265	909.466	924.513	951.8236	959.4577	1004.7739	1038.4143	1064.2983	1087.6636	1118.0081	1128.428	1137.1318	1206.0109	1212.7736	1258.0702	1289.8385	1309.4097	1320.136	1326.2716	1347.3446	1373.7608	1407.4831	1474.186	1477.1961	1499.9063	1505.5754	3023.4105	3065.4742	3078.4669	3087.5208	3100.2252	3110.2626	3189.2032	3195.5193	3206.6089	3453.4814	3782.2156
CCC1C2C3NC3C12O	CC[C@H]1[C@H]2[C@H]3N[C@H]3[C@@]12O	
InChI=1S/C7H11NO/c1-2-3-4-5-6(8-5)7(3,4)9/h3-6,8-9H,2H2,1H3	InChI=1S/C7H11NO/c1-2-3-4-5-6(8-5)7(3,4)9/h3-6,8-9H,2H2,1H3/t3-,4-,5+,6+,7+/m0/s1
