20
gdb 79839	2.6158	1.71464	1.44896	0.7959	77.99	-0.2241	0.0918	0.316	1018.5457	0.171639	-403.111063	-403.102896	-403.101952	-403.143374	31.82	
C	-0.3745314859	 1.4864205665	 0.0446779689	-0.422467
C	 0.0688127007	 0.0352011427	 0.0041545809	 0.060817
C	 1.0757965909	-0.480401451	-1.0539852195	 0.000483
O	 2.0279866043	 0.5139274238	-1.4084308317	-0.263672
C	 2.7581079876	 0.839504264	-0.2188310808	-0.113459
C	 2.3753564957	-0.2263256224	 0.789847673	-0.101649
N	 0.9395385214	-0.4955330932	 1.1238685095	-0.21467
C	 1.6870535101	-1.3246458565	 0.0952189284	 0.345084
C	 1.9140062959	-2.7996718622	 0.1850268973	-0.523401
H	 0.4414828015	 2.1830125972	-0.1523925032	 0.128707
H	-1.1496385265	 1.6645417624	-0.7084147551	 0.118004
H	-0.799391267	 1.7161804968	 1.0274417866	 0.125843
H	-0.8149945337	-0.6134627125	 0.0103353178	 0.080602
H	 0.7075595104	-0.9497035754	-1.9665663239	 0.080155
H	 3.8339637525	 0.7979787935	-0.4347684766	 0.108635
H	 2.5209537377	 1.8569495035	 0.1153401646	 0.106247
H	 3.036704875	-0.4209981818	 1.6274067799	 0.099343
H	 1.0040836502	-3.361376011	-0.0529278059	 0.125105
H	 2.6969093069	-3.1177749969	-0.5128291634	 0.12718
H	 2.2242705625	-3.0771545777	 1.1966981235	 0.133114
129.199	170.9068	187.0014	220.2575	250.8579	275.9088	327.4084	502.7452	546.438	611.9794	655.0162	669.9217	777.071	811.0635	820.521	870.3293	920.7824	938.6137	974.5784	1000.9325	1033.9252	1055.3137	1086.047	1106.4286	1115.0282	1132.9761	1157.5725	1197.2248	1216.0531	1247.6015	1274.5213	1306.0701	1324.7292	1373.2744	1389.3653	1407.2533	1410.912	1463.2694	1484.6287	1485.9703	1492.0582	1493.2415	1530.2843	3013.3658	3028.9114	3033.3523	3042.3786	3044.3941	3089.8968	3102.2674	3109.715	3115.554	3141.4929	3174.3819
CC1C2OCC3N1C23C	C[C@H]1[C@H]2OC[C@H]3N1[C@@]23C	
InChI=1S/C7H11NO/c1-4-6-7(2)5(3-9-6)8(4)7/h4-6H,3H2,1-2H3	InChI=1S/C7H11NO/c1-4-6-7(2)5(3-9-6)8(4)7/h4-6H,3H2,1-2H3/t4-,5+,6+,7+,8?/m0/s1
