15
gdb 43465	2.99074	1.45955	1.06217	2.6942	67.22	-0.2596	-0.0251	0.2345	1075.0703	0.11424	-453.997699	-453.990232	-453.989288	-454.030192	28.113	
O	-0.0045066146	-0.0295644839	-0.0467370584	-0.339441
C	-0.0428797607	 1.1727072549	-0.0141243137	 0.431016
C	-1.2835722578	 2.0697455513	 0.002943413	-0.466247
C	-0.7316724396	 3.4867408178	 0.000927381	 0.182654
C	-1.3615527665	 4.6453601338	-0.6900476517	-0.269293
N	-1.3116889991	 4.5982963481	 0.7730867195	-0.326276
C	 0.7765318359	 3.3784824947	 0.0325946187	 0.420799
O	 1.5876960289	 4.2659394414	 0.0411774609	-0.34232
N	 1.0630026945	 2.013549171	 0.0172070796	-0.377605
H	-1.9103974864	 1.8322585016	-0.8607159347	 0.151629
H	-1.8624371541	 1.838967777	 0.9035613348	 0.150411
H	-0.7164779484	 5.3953600944	-1.1378833281	 0.148529
H	-2.3060125406	 4.4682196704	-1.1983545236	 0.122058
H	-2.2133141631	 4.3048097928	 1.1437662978	 0.239089
H	 2.0092438216	 1.6588043048	 0.0119946948	 0.274996
57.0902	141.3022	244.7461	269.0211	351.7363	367.0315	493.7358	559.6884	590.9426	643.6248	674.226	730.8289	745.9728	852.3092	868.6036	904.7768	961.403	978.1708	984.6104	1067.6872	1139.3426	1146.8097	1189.3177	1243.401	1268.146	1316.5988	1330.3576	1358.1749	1398.9261	1458.326	1498.4492	1842.3353	1882.0012	3057.2969	3104.1533	3110.1033	3205.9	3490.3898	3618.2261
O=C1CC2(CN2)C(=O)N1	O=C1C[C@]2(CN2)C(=O)N1	
InChI=1S/C5H6N2O2/c8-3-1-5(2-6-5)4(9)7-3/h6H,1-2H2,(H,7,8,9)	InChI=1S/C5H6N2O2/c8-3-1-5(2-6-5)4(9)7-3/h6H,1-2H2,(H,7,8,9)/t5-/m0/s1
