15
gdb 44829	3.012	1.25921	1.02152	5.943	69.75	-0.2605	-0.0086	0.2519	1138.5186	0.112972	-416.811206	-416.803269	-416.802325	-416.844552	29.065	
O	-0.4151203764	 0.0549195474	-0.016773648	-0.324032
C	-0.2154188538	 1.2336097762	-0.0180855239	 0.377351
N	-1.0798414735	 2.34178309	 0.1008342997	-0.34567
C	 0.0311672862	 3.2956336304	 0.0397629401	-0.065056
C	 1.0555918451	 3.0189023666	 1.0950864319	-0.315201
C	 1.0039617448	 2.1454241913	-0.1620943323	 0.180654
C	 2.1574214873	 1.9717737732	-1.1183591856	-0.458206
C	 3.2115743287	 1.1053494129	-0.5824515582	 0.277101
N	 4.0501630036	 0.4377753079	-0.152431715	-0.30068
H	-1.821954078	 2.3888515006	 0.7904310694	 0.249575
H	-0.0554180085	 4.2111239577	-0.5305378917	 0.125629
H	 1.9091382899	 3.6909322947	 1.1377268384	 0.133874
H	 0.7538798162	 2.610668109	 2.0548561475	 0.136076
H	 1.8045931277	 1.5484329377	-2.0654074351	 0.170523
H	 2.6047991307	 2.9446630043	-1.3529663773	 0.158061
42.6844	105.8812	183.4488	240.7265	299.7091	379.8495	430.3619	451.2921	519.8206	605.4526	702.9177	732.297	792.5781	833.8402	891.9354	913.3481	938.776	970.834	992.7234	1033.9331	1067.3718	1099.6515	1126.4619	1193.0434	1271.9633	1297.4299	1323.5609	1336.7728	1393.5407	1452.7309	1489.495	1905.5726	2367.8491	3041.7447	3081.5737	3117.3422	3203.0206	3210.2079	3547.178
O=C1NC2CC12CC#N	O=C1N[C@H]2C[C@@]12CC#N	
InChI=1S/C6H6N2O/c7-2-1-6-3-4(6)8-5(6)9/h4H,1,3H2,(H,8,9)	InChI=1S/C6H6N2O/c7-2-1-6-3-4(6)8-5(6)9/h4H,1,3H2,(H,8,9)/t4-,6+/m0/s1
