18
gdb 71146	2.96928	1.65393	1.3128	3.4877	75.48	-0.2392	-0.025	0.2142	1000.2779	0.148404	-401.934227	-401.92688	-401.925935	-401.965693	29.618	
C	 0.0593874695	 1.5129065489	-0.0152194096	-0.490779
C	 0.0130704545	-0.000637619	-0.00944445	 0.283147
C	-1.3001805305	-0.7060023185	 0.4293514313	-0.193536
N	-0.5632210128	-1.6130043623	 1.373650252	-0.142993
C	 0.6362764947	-2.1848796034	 0.6615756029	-0.139372
C	 0.6626518168	-0.7914957655	 1.1732527873	-0.09196
C	 0.6995293088	-2.1618333611	-0.8402745888	 0.407481
O	 0.9185491093	-3.1068629965	-1.5552150848	-0.325279
C	 0.5236095593	-0.7014318032	-1.2750083851	-0.373522
H	 1.0800606543	 1.8766869555	-0.1784581446	 0.121788
H	-0.5692990895	 1.9203190642	-0.8145336809	 0.124853
H	-0.2974466466	 1.924719036	 0.9346490213	 0.122266
H	-1.9523400578	-0.0664458522	 1.0295717781	 0.115978
H	-1.8933085642	-1.2135935012	-0.3398790763	 0.109984
H	 1.0736390643	-3.0192341818	 1.1961712301	 0.116373
H	 1.2771825819	-0.4247913208	 1.9878744964	 0.102463
H	-0.1462860207	-0.6167159089	-2.1359429208	 0.125046
H	 1.5069938488	-0.3146205403	-1.5735951083	 0.128062
118.334	225.4473	252.4804	278.4054	354.8213	397.3516	459.6437	524.5611	594.8917	630.1118	654.969	774.0431	782.3922	827.3598	858.0117	892.4249	936.8639	947.7288	976.7763	988.0413	1025.4663	1047.3567	1107.6562	1147.4661	1169.0319	1196.8005	1202.4748	1233.3523	1249.2341	1259.838	1287.7652	1328.6957	1359.563	1416.2688	1451.0612	1492.7508	1495.1216	1505.2272	1835.6104	3025.9969	3030.4799	3037.7677	3091.8687	3094.9095	3097.694	3103.399	3175.3488	3199.0558
CC12CN3C(C13)C(=O)C2	C[C@]12CN3[C@H]([C@@H]13)C(=O)C2	
InChI=1S/C7H9NO/c1-7-2-4(9)5-6(7)8(5)3-7/h5-6H,2-3H2,1H3	InChI=1S/C7H9NO/c1-7-2-4(9)5-6(7)8(5)3-7/h5-6H,2-3H2,1H3/t5-,6-,7-,8?/m0/s1
