16
gdb 41079	4.193	1.85037	1.65146	1.3818	69.82	-0.2308	0.0565	0.2873	821.1379	0.126691	-400.601264	-400.595674	-400.59473	-400.630901	24.085	
C	 0.1314063944	 1.474683282	-0.2216050542	-0.212921
O	 1.5039588497	 1.3557132039	 0.2725181664	-0.308496
C	 1.152382394	 0.15537796	 1.0357049277	 0.109887
C	 1.5651271541	-1.2412847904	 0.5463332383	-0.13788
C	 0.3065488497	-2.1172061031	 0.8830217156	-0.046013
C	-0.8602400807	-1.2375376489	 0.488966284	-0.208735
N	-0.2318463682	-2.1498140114	-0.5167066353	-0.171421
C	 0.7656235902	-1.0140059395	-0.7649756909	-0.008278
C	-0.0559650595	 0.0032751852	 0.1048530979	 0.309974
H	-0.4500961696	 2.1741820285	 0.3939209829	 0.108194
H	 0.095587326	 1.7788637309	-1.2723707725	 0.11655
H	 1.0828348013	 0.3661113011	 2.1078145428	 0.077447
H	 2.548185437	-1.7010165283	 0.6356374789	 0.08088
H	 0.2334544016	-2.9730913877	 1.5434800558	 0.102076
H	-1.8736950292	-1.3747168274	 0.8455600988	 0.098773
H	 1.148828579	-0.822750675	-1.7635357862	 0.089962
249.8395	300.6063	384.3855	541.3102	561.6163	700.3835	762.0686	778.7115	792.2599	836.1368	866.9575	878.1039	895.7935	909.8932	933.6706	942.9324	964.7343	983.2012	1011.8884	1027.2579	1074.9539	1093.6292	1130.9467	1132.8746	1162.7765	1167.6515	1196.6994	1211.5902	1232.6194	1254.4122	1294.7757	1307.5367	1341.2266	1363.7005	1516.3093	3010.4829	3056.7291	3081.9212	3127.555	3156.4727	3181.5412	3192.7693
C1OC2C3C4C5N4C3C125	C1O[C@@H]2[C@H]3[C@H]4[C@@H]5N4[C@H]3[C@]125	
InChI=1S/C7H7NO/c1-7-4-2(6(7)9-1)3-5(7)8(3)4/h2-6H,1H2	InChI=1S/C7H7NO/c1-7-4-2(6(7)9-1)3-5(7)8(3)4/h2-6H,1H2/t2-,3-,4+,5-,6+,7-,8?/m0/s1
