23
gdb 118172	5.5177	0.53187	0.51026	0.8179	92.7	-0.241	0.0607	0.3017	2241.6265	0.202141	-388.265046	-388.253122	-388.252178	-388.30443	40.446	
C	-0.0735156909	 1.4310478881	 0.0170295322	-0.228108
O	-0.0039743531	 0.0266139761	 0.0184833439	-0.234984
C	-1.2731816911	-0.588694718	 0.0030561167	-0.055029
C	-1.093161256	-2.1061197955	 0.0450343421	 0.014209
C	-0.3636407824	-2.5495664742	 1.3163317593	-0.386415
C	-2.4734352336	-2.7906995566	-0.1016479406	-0.364655
C	-2.3967688182	-4.2417204482	-0.2332555491	 0.026672
C	-2.3147342186	-5.4376168335	-0.3499595865	 0.11002
C	-2.2285662362	-6.8845114156	-0.4925298367	-0.498184
H	 0.9511688246	 1.810802792	 0.0261963242	 0.12623
H	-0.5862925114	 1.8151945228	-0.8795596332	 0.102158
H	-0.6032623572	 1.8160575188	 0.9032206628	 0.102688
H	-1.8724791512	-0.2528995274	 0.8695922931	 0.079459
H	-1.8274765975	-0.2932402816	-0.9053947601	 0.079751
H	-0.4856908114	-2.3850200014	-0.8247661715	 0.091833
H	 0.6056286398	-2.0526806631	 1.3930150321	 0.129637
H	-0.9479502345	-2.2914462094	 2.2085941956	 0.103697
H	-0.2095062384	-3.6317089523	 1.3172150725	 0.123046
H	-3.0946600699	-2.5331635276	 0.7682914635	 0.121005
H	-2.991965646	-2.3754840828	-0.9766023362	 0.120073
H	-3.1742538987	-7.3061797838	-0.8512876098	 0.145747
H	-1.4487703511	-7.1697427096	-1.2075471082	 0.145762
H	-1.9933382473	-7.3679054175	 0.4622926639	 0.14539
17.8806	45.055	71.7393	99.9604	109.0958	174.458	210.631	229.2815	244.2317	273.2859	305.0666	365.7102	385.9459	405.4295	444.1128	566.2297	771.4713	844.6664	892.4206	935.751	955.3342	996.8708	1053.7722	1054.2087	1112.4741	1129.8321	1158.2376	1168.6467	1172.4551	1190.6725	1223.6334	1243.8188	1280.251	1295.3289	1361.3051	1380.0273	1402.3554	1415.8889	1425.1881	1472.8091	1479.3158	1480.2588	1480.9395	1485.2426	1495.0435	1502.7396	1503.7959	1527.795	2372.3534	2930.9839	2959.815	2967.7908	3001.3087	3009.2703	3025.0282	3025.8644	3030.1516	3045.9175	3084.5694	3084.7513	3103.9431	3112.2503	3134.9516
COCC(C)CC#CC	COC[C@@H](C)CC#CC	
InChI=1S/C8H14O/c1-4-5-6-8(2)7-9-3/h8H,6-7H2,1-3H3	InChI=1S/C8H14O/c1-4-5-6-8(2)7-9-3/h8H,6-7H2,1-3H3/t8-/m0/s1
