19
gdb 83803	2.61111	1.73641	1.48573	2.2192	73.8	-0.2263	0.073	0.2993	970.1255	0.161487	-422.987625	-422.980303	-422.979359	-423.019007	30.191	
O	 0.3561275047	 1.3034103436	-0.011108012	-0.428083
C	 0.0647435827	-0.0565228033	-0.0395888414	 0.098392
C	-0.4805347865	-0.7024290527	 1.2043892856	-0.001295
O	-0.7790592335	 0.2344831121	 2.203589431	-0.274046
C	-2.1525541088	 0.2374804399	 2.6109242605	-0.096805
C	-3.098589246	 0.5571505201	 1.4719304272	-0.036235
C	-2.7376372372	 1.6155965012	 0.4655781405	-0.305505
C	-2.6435630958	 0.1540829828	 0.0821518455	-0.029353
C	-1.3538073791	-0.6145300059	-0.0338861898	-0.110052
H	 0.2698727138	 1.5728702368	 0.9139675835	 0.295409
H	 0.7857408945	-0.6204079638	-0.6258504551	 0.098517
H	-0.1038511693	-1.6519373718	 1.5809668988	 0.087599
H	-2.4069125249	-0.7402716794	 3.0482624883	 0.09609
H	-2.2117912992	 0.9881475142	 3.4054305764	 0.11331
H	-4.1471710195	 0.4257365324	 1.7214950327	 0.084767
H	-3.5469724344	 2.1856614201	 0.0225978008	 0.109347
H	-1.8199479968	 2.1708046921	 0.5919373788	 0.123403
H	-3.4142153843	-0.1979171055	-0.5949596185	 0.087168
H	-1.4524870003	-1.5391305827	-0.5950458527	 0.087372
135.6478	181.8336	294.4233	308.1729	350.1617	420.3539	472.4869	503.9915	617.1287	670.6317	715.5084	741.7534	762.2796	794.8379	834.1864	850.7354	905.7647	981.4808	987.5487	1024.4183	1042.6824	1059.6512	1081.71	1100.3396	1113.6446	1118.2479	1128.7928	1134.685	1167.1674	1214.2414	1253.6318	1296.3232	1331.41	1347.8177	1372.0358	1386.6595	1397.2005	1421.8552	1447.8182	1494.2179	1501.0224	2988.3957	3074.0572	3109.8805	3134.8391	3146.0704	3148.8365	3153.7042	3165.7915	3257.7016	3741.0001
OC1C2OCC3CC3C12	O[C@H]1[C@H]2OC[C@H]3C[C@H]3[C@@H]12	
InChI=1S/C7H10O2/c8-6-5-4-1-3(4)2-9-7(5)6/h3-8H,1-2H2	InChI=1S/C7H10O2/c8-6-5-4-1-3(4)2-9-7(5)6/h3-8H,1-2H2/t3-,4-,5+,6-,7+/m1/s1
