18
gdb 13670	5.08036	0.94927	0.87412	3.2299	73.11	-0.2382	0.0334	0.2715	1309.2903	0.153335	-343.968181	-343.959511	-343.958567	-344.002075	30.888	
C	-0.2633295551	 1.4082828737	 0.0410642227	-0.320053
N	 0.0326399296	-0.0155570875	 0.0943813704	-0.075853
C	 1.3920934873	-0.4326281705	-0.2250225087	-0.264996
C	 0.870602295	-0.5636700825	 1.1655113793	 0.018033
C	 1.4471382488	 0.2596245689	 2.2988354968	-0.219795
C	 0.4304471092	 0.4391658469	 3.4488621538	-0.336734
C	 0.9893650564	 1.1758454706	 4.5798693533	 0.256277
N	 1.4504416777	 1.7614060607	 5.4629938617	-0.302992
H	 0.5691171831	 2.0680741369	 0.33262429	 0.103925
H	-0.5418322451	 1.6640638847	-0.9860019756	 0.132144
H	-1.122004171	 1.6294701611	 0.6839559188	 0.123282
H	 1.4928652453	-1.3023802472	-0.8690480566	 0.119336
H	 2.134824522	 0.3469761576	-0.3972882457	 0.108283
H	 0.5353970261	-1.5519920303	 1.4831784024	 0.092598
H	 2.3359172112	-0.2492617599	 2.6883576745	 0.128874
H	 1.7807024486	 1.2405469747	 1.9513028899	 0.124135
H	-0.4590056329	 0.9692064043	 3.0914811469	 0.158557
H	 0.0887915537	-0.5399018022	 3.804594816	 0.154979
55.0015	88.4628	119.8449	195.0205	244.7729	293.7827	343.167	395.6657	418.3575	506.4297	547.9472	731.7179	769.4098	809.5088	914.9305	942.5214	1013.0723	1025.7352	1040.9677	1084.9976	1117.2529	1132.7113	1147.1351	1170.1481	1202.7078	1222.4869	1278.9012	1311.9271	1339.9039	1365.5479	1425.1042	1448.0103	1465.953	1480.9982	1491.5934	1506.8097	1516.3687	2362.7376	2975.0641	3043.8987	3053.9339	3065.2237	3081.467	3083.3934	3089.294	3100.4412	3113.455	3172.3726
CN1CC1CCC#N	CN1C[C@H]1CCC#N	
InChI=1S/C6H10N2/c1-8-5-6(8)3-2-4-7/h6H,2-3,5H2,1H3	InChI=1S/C6H10N2/c1-8-5-6(8)3-2-4-7/h6H,2-3,5H2,1H3/t6-,8?/m1/s1
