17
gdb 117139	3.11667	0.89382	0.76517	3.927	67.43	-0.2724	-0.0512	0.2213	1500.8976	0.132255	-496.137358	-496.127349	-496.126405	-496.173784	34.104	
C	-0.2393418694	 1.5169368285	-0.0024784174	-0.393138
C	-0.0231759501	 0.0176712205	 0.0464395996	-0.047394
O	-1.322188986	-0.616484315	-0.0173725901	-0.249208
C	-1.3217289372	-1.9626124662	 0.0218188833	 0.388893
O	-0.3479003283	-2.6554054438	 0.0996750865	-0.329026
C	-2.7785853726	-2.4688377175	-0.030731984	-0.049405
O	-2.8568693571	-3.8295758283	-0.2691167289	-0.403888
C	-3.4635841772	-2.0942007342	 1.2803618189	 0.129594
O	-3.9318063068	-2.9446827856	 1.9943090801	-0.24845
H	 0.7260823454	 2.0296458695	 0.0385583173	 0.129856
H	-0.7454725863	 1.8094081058	-0.9266035724	 0.133432
H	-0.8435793614	 1.8542572551	 0.84436243	 0.130562
H	 0.578817638	-0.3399692236	-0.7941138477	 0.131072
H	 0.4761620812	-0.2983563076	 0.967402014	 0.128564
H	-3.2765746141	-1.8918080015	-0.8268627654	 0.128514
H	-3.2086140618	-4.2245538029	 0.544475819	 0.301091
H	-3.4916694766	-1.0182147233	 1.5318078372	 0.118931
36.909	66.631	90.6628	130.9958	150.8704	250.2912	272.4877	310.3502	326.5434	352.109	418.7359	444.2772	646.96	733.0205	775.7786	807.9357	849.7854	887.2571	948.7632	1027.2281	1047.1546	1134.7928	1172.9772	1182.3047	1213.1155	1226.6511	1292.6402	1339.6703	1387.0973	1397.4987	1422.7094	1426.6692	1486.566	1496.3516	1519.1956	1810.3721	1856.2741	2972.2524	2992.0697	3047.8506	3057.2627	3096.3448	3123.0826	3128.8411	3696.0086
CCOC(=O)C(O)C=O	CCOC(=O)[C@@H](O)C=O	
InChI=1S/C5H8O4/c1-2-9-5(8)4(7)3-6/h3-4,7H,2H2,1H3	InChI=1S/C5H8O4/c1-2-9-5(8)4(7)3-6/h3-4,7H,2H2,1H3/t4-/m0/s1
