23
gdb 120260	3.02725	0.99354	0.87383	1.5311	85.16	-0.2513	0.066	0.3173	1457.0348	0.205522	-388.265307	-388.25564	-388.254696	-388.299997	36.632	
C	 0.0054500348	 1.5979917299	-0.1130993093	-0.380486
C	-0.0369370926	 0.0733879215	 0.0175802284	-0.166102
C	 0.8272261329	-0.4551703725	 1.1703882536	-0.183881
C	 0.7974758966	-1.9763965752	 1.29000338	-0.03755
C	 1.5912196983	-2.6647637498	 2.4108807204	-0.065635
C	 1.0477198004	-2.3013881031	 3.7603331032	-0.300003
C	 0.3216779391	-3.340894664	 2.9439165452	-0.082798
C	-0.5071288837	-2.6883807568	 1.840321145	 0.1164
O	-1.6310357748	-1.9148691711	 2.2013241832	-0.428574
H	 1.0269554014	 1.9545477353	-0.2886379894	 0.109478
H	-0.6157261259	 1.9456475354	-0.9446505273	 0.109709
H	-0.3599778211	 2.0840203448	 0.798751007	 0.110592
H	-1.0693539101	-0.2583288088	 0.1728889671	 0.118944
H	 0.2992044687	-0.3839437754	-0.9228918661	 0.087726
H	 1.8681797793	-0.1306487729	 1.0323456266	 0.090558
H	 0.4916199333	 0.0090067371	 2.1068762016	 0.078445
H	 1.0548725738	-2.4137960113	 0.3190111348	 0.068265
H	 2.5757587333	-3.1015952598	 2.2954416762	 0.0855
H	 1.5957726171	-2.6985953556	 4.6085287423	 0.115725
H	 0.6240218321	-1.3174460691	 3.9502659354	 0.097382
H	 0.188573817	-4.3504896421	 3.3140065327	 0.08584
H	-0.8788799336	-3.4209745806	 1.1202053192	 0.089815
H	-1.4192916664	-1.4436526558	 3.0135564602	 0.280647
80.166	89.5916	109.5179	180.8571	227.4108	243.6227	259.121	309.6945	349.4017	439.6309	543.0687	588.0416	672.1783	744.2799	777.7803	798.0722	825.4123	883.0473	904.335	924.934	973.1446	993.5435	1018.1615	1027.6768	1050.8516	1066.0637	1077.657	1087.9736	1111.9525	1135.9129	1150.0585	1177.7711	1220.8046	1258.4981	1263.9311	1278.419	1298.2627	1321.3318	1329.9476	1365.5607	1372.5725	1399.1561	1411.4281	1435.3622	1479.6933	1494.3625	1497.0725	1499.1084	1510.0234	3006.498	3017.1274	3026.1254	3032.3146	3047.0107	3069.6914	3084.4038	3094.8919	3099.1731	3104.9819	3176.2415	3183.3994	3198.4615	3816.9571
CCCC1C2CC2C1O	CCC[C@H]1[C@H]2C[C@H]2[C@H]1O	
InChI=1S/C8H14O/c1-2-3-5-6-4-7(6)8(5)9/h5-9H,2-4H2,1H3	InChI=1S/C8H14O/c1-2-3-5-6-4-7(6)8(5)9/h5-9H,2-4H2,1H3/t5-,6+,7+,8-/m0/s1
