18
gdb 62276	3.18725	1.53376	1.31774	4.1356	78.91	-0.2698	0.0406	0.3103	1009.5888	0.148509	-364.778548	-364.770938	-364.769994	-364.810313	30.224	
C	-0.0241216795	 1.5582556153	 0.0376981188	-0.466899
C	 0.0706731141	 0.0299364473	 0.0094633328	 0.144144
C	-1.2616030184	-0.5533441284	 0.1912551412	 0.25009
N	-2.3208224341	-0.9918123348	 0.3433374795	-0.349073
C	 0.8003170328	-0.6799681304	-1.1441056173	-0.083683
C	 2.2930224383	-0.7511637679	-0.7812559225	-0.088519
C	 2.4769846922	-0.1180694965	 0.5956282641	-0.25757
C	 1.0950033232	-0.7308236582	 0.939784593	-0.085261
C	 1.3166978894	-1.7655368061	-0.2368020247	-0.067036
H	 0.944323327	 2.0116520995	-0.180119864	 0.129323
H	-0.7371007615	 1.9088337633	-0.7144547392	 0.136825
H	-0.3669887532	 1.9125129511	 1.0148277994	 0.134108
H	 0.4590053476	-0.7711953695	-2.1668612378	 0.101494
H	 3.0320412677	-0.8954006691	-1.5588326961	 0.096199
H	 3.267042908	-0.6292848393	 1.1523193925	 0.110135
H	 2.6113827699	 0.9638510582	 0.6912209144	 0.097373
H	 0.8110314628	-0.9601438846	 1.9637958449	 0.092197
H	 1.2635021134	-2.8415574102	-0.2975117889	 0.106153
144.578	153.3977	183.1645	246.8061	304.8448	443.2702	487.128	506.4198	551.2204	639.6295	749.3345	787.7208	794.4367	804.4932	843.0019	887.4936	913.5712	942.8202	974.8643	1001.404	1009.0281	1031.9296	1048.5821	1060.7849	1123.1542	1141.9156	1163.7134	1176.6858	1193.379	1202.9772	1228.8829	1273.4522	1322.9804	1358.0531	1408.2991	1486.826	1488.13	1515.4949	2349.1575	3045.5732	3050.268	3101.2556	3112.7926	3139.1587	3151.5458	3197.9708	3206.476	3240.0681
CC1(C#N)C2C3CC1C23	C[C@@]1(C#N)[C@H]2[C@H]3C[C@@H]1[C@@H]23	
InChI=1S/C8H9N/c1-8(3-9)5-2-4-6(5)7(4)8/h4-7H,2H2,1H3	InChI=1S/C8H9N/c1-8(3-9)5-2-4-6(5)7(4)8/h4-7H,2H2,1H3/t4-,5+,6-,7-,8-/m0/s1
