19
gdb 111266	2.99424	1.23363	0.974	4.3139	77.56	-0.2161	-0.0169	0.1992	1263.9886	0.158287	-419.167475	-419.158149	-419.157205	-419.201729	34.01	
C	 0.4716491425	 1.1031751122	 0.5719500977	-0.317067
N	-0.3493973383	 0.3349427367	-0.3569828931	-0.277956
C	 0.3865428572	-0.2930659041	-1.4158211383	-0.087911
C	 1.2177573704	-1.5846310968	-1.1685618963	-0.130508
N	 0.2359222986	-2.5632862835	-0.6788275607	-0.375313
C	 0.4155776168	-2.3790250968	-2.1661271409	 0.201957
C	 0.7564737507	-3.5130778394	-3.0790706177	-0.513333
C	-0.4076729414	-1.1431985283	-2.4697763297	 0.382923
O	-1.211293912	-0.8727503516	-3.3122881183	-0.30623
H	 1.2721284147	 0.5237799752	 1.0640662759	 0.09619
H	 0.9436886658	 1.9351995092	 0.0370639338	 0.121886
H	-0.1659616069	 1.5289475268	 1.3520255371	 0.123193
H	-0.8702205194	-0.3796898535	 0.1416776615	 0.234314
H	 0.9722721113	 0.4600646517	-1.9584737568	 0.101093
H	 2.2759800666	-1.680762809	-0.9590233926	 0.104357
H	 0.7311443453	-3.424664129	-0.4457710736	 0.235039
H	 1.5697950547	-4.1214969945	-2.6691192427	 0.120931
H	-0.1103662435	-4.1640629855	-3.234013565	 0.145319
H	 1.0700141169	-3.1396979898	-4.0588168104	 0.141116
81.4253	97.0479	152.3023	173.2621	195.229	236.9026	280.1503	320.2202	324.0986	497.8668	579.7136	622.1797	644.2323	750.2138	789.2521	810.7922	835.3134	903.7493	954.3128	971.7511	1031.6744	1040.4414	1047.0946	1097.2249	1108.4397	1134.3655	1160.2329	1212.4127	1224.4833	1280.806	1323.638	1348.9323	1403.8185	1434.6203	1456.8368	1479.487	1489.0034	1495.7025	1501.2275	1523.3113	1894.1871	2952.4019	3032.2382	3040.0385	3056.4562	3098.7845	3105.0258	3106.2851	3194.941	3462.0345	3523.8922
CNC1C2NC2(C)C1=O	CN[C@H]1[C@H]2N[C@@]2(C)C1=O	
InChI=1S/C6H10N2O/c1-6-4(8-6)3(7-2)5(6)9/h3-4,7-8H,1-2H3	InChI=1S/C6H10N2O/c1-6-4(8-6)3(7-2)5(6)9/h3-4,7-8H,1-2H3/t3-,4+,6+/m0/s1
