20
gdb 103239	2.75125	1.46553	1.16585	1.9889	78.52	-0.206	0.0647	0.2707	1125.3954	0.169683	-403.047115	-403.038446	-403.037502	-403.080292	34.259	
C	 0.0807508203	 1.501969819	-0.2815287717	-0.390906
C	 0.0532989616	 0.0767153131	 0.2875577233	-0.257485
C	-1.286875525	-0.6066239291	 0.0807567392	 0.398403
O	-2.3031544732	-0.008599167	 0.8718579672	-0.474653
C	-1.9161179027	-1.1509268268	-1.197713032	-0.134837
C	-1.0499783708	-2.0830880203	-2.0875470529	-0.06983
N	 0.3381177076	-2.1630413965	-1.5633561023	-0.339762
C	-0.7540830505	-2.9568004266	-0.9356255539	-0.07228
C	-1.6201093776	-2.0712967085	 0.0006578707	-0.112944
H	 1.0569031465	 1.9665200904	-0.1137004879	 0.114376
H	-0.1071632048	 1.4967299262	-1.3604743742	 0.119446
H	-0.664869503	 2.1544100829	 0.1890611425	 0.097368
H	 0.8417059892	-0.5156627731	-0.1686729716	 0.141002
H	 0.2269303644	 0.1075657858	 1.3705232492	 0.093624
H	-2.4219336593	 0.8922090494	 0.5523820587	 0.28206
H	-2.8885621234	-0.7922830161	-1.5108269626	 0.08816
H	-1.2688784016	-2.3287048707	-3.1190064773	 0.094457
H	 0.8419545253	-2.8054563679	-2.1755195088	 0.228942
H	-0.687291002	-4.0350548368	-0.8687846443	 0.095793
H	-2.339586761	-2.4918040674	 0.6913237187	 0.099066
57.0958	138.8524	213.9316	255.539	286.3707	293.2643	360.8538	380.5123	429.1575	526.1791	611.3676	669.6248	731.8658	753.9388	767.9806	793.5218	838.6277	902.2833	906.7022	910.9853	938.6223	983.8815	1002.3565	1011.9761	1028.6555	1038.5881	1089.5472	1113.0089	1124.1812	1151.2434	1220.1348	1234.9158	1269.0382	1294.7823	1302.2051	1317.5092	1351.4579	1381.6773	1405.5471	1441.2081	1481.4404	1500.526	1508.1617	3024.691	3034.6087	3084.1421	3107.0888	3171.8645	3182.1535	3191.9425	3195.2874	3204.6216	3460.1901	3806.3909
CCC1(O)C2C3NC3C12	CC[C@@]1(O)[C@H]2[C@H]3N[C@H]3[C@@H]12	
InChI=1S/C7H11NO/c1-2-7(9)3-4(7)6-5(3)8-6/h3-6,8-9H,2H2,1H3	InChI=1S/C7H11NO/c1-2-7(9)3-4(7)6-5(3)8-6/h3-6,8-9H,2H2,1H3/t3-,4+,5-,6+,7-
