13
gdb 35838	2.12703	1.66528	1.03047	5.4037	70.8	-0.2914	-0.0749	0.2164	1091.9109	0.089748	-415.626162	-415.618383	-415.617439	-415.659244	27.304	
N	-0.063122924	-1.1104698346	 0.4345045402	-0.308172
C	-0.0243621303	 0.0132624191	 0.1711309231	 0.285532
C	 0.0210406392	 1.45471132	-0.1626280792	-0.124093
O	-0.7519705561	 2.2155368932	 0.7473496757	-0.250957
C	 0.0991891676	 2.9926013421	 1.5931395508	-0.117593
C	 1.4585117095	 2.893348694	 0.9744809294	-0.197442
C	 1.4343567728	 2.0229203265	-0.0363372468	 0.197051
C	 2.500147921	 1.6366610984	-0.8860450686	 0.235849
N	 3.3488542979	 1.3121749208	-1.6035828912	-0.314024
H	-0.3867864662	 1.5802129967	-1.1736538185	 0.15607
H	-0.2813816142	 4.0212828941	 1.6226477697	 0.14274
H	 0.0916489279	 2.6026359657	 2.6225270745	 0.142223
H	 2.3222280149	 3.4454734042	 1.3193980808	 0.152818
68.9538	110.3933	165.9792	200.1665	249.1565	375.3409	474.7146	482.1925	555.1199	589.6088	652.026	773.8405	851.9575	899.9307	932.3229	955.0375	1004.6577	1041.6153	1107.3808	1183.4828	1201.4048	1266.7093	1300.8511	1352.7116	1375.7929	1505.4172	1691.9055	2347.9349	2361.3326	2995.3168	3035.0473	3047.016	3239.3459
N#CC1OCC=C1C#N	N#C[C@H]1OCC=C1C#N	
InChI=1S/C6H4N2O/c7-3-5-1-2-9-6(5)4-8/h1,6H,2H2	InChI=1S/C6H4N2O/c7-3-5-1-2-9-6(5)4-8/h1,6H,2H2/t6-/m1/s1
