20
gdb 82165	2.71628	1.64139	1.27994	2.752	77.26	-0.2303	0.0682	0.2986	1053.2302	0.17248	-403.118629	-403.110678	-403.109734	-403.150526	32.518	
C	-0.0488603033	 1.5293271769	 0.0267671382	-0.505541
C	 0.1329636316	 0.0350879911	-0.0259245485	 0.345729
N	-0.5251335929	-0.8199336387	 0.9978469116	-0.391578
C	 0.9536351871	-0.7348206649	 0.9392947722	-0.126811
C	 1.5479898196	-1.9705449809	 0.2548272068	 0.121303
O	 1.2071400121	-3.1721811098	 0.9204367099	-0.43969
C	 1.0901963646	-1.8790858976	-1.2140658635	-0.064029
C	-0.3756231311	-2.003947534	-1.5508690125	-0.298742
C	 0.2414407971	-0.6384586724	-1.3908517834	-0.086451
H	 0.7218630611	 2.0375258521	-0.562922959	 0.12807
H	-1.0239200266	 1.8229720932	-0.3785170665	 0.12912
H	 0.0168117397	 1.9005115217	 1.0549828484	 0.113762
H	-0.8691452754	-0.2361139195	 1.7569310697	 0.227372
H	 1.4813451088	-0.2733298464	 1.7687289221	 0.083968
H	 2.6414017077	-1.9158390994	 0.2872806515	 0.082166
H	 0.2590200173	-3.1098785532	 1.0937014238	 0.288232
H	 1.8031795964	-2.1823717179	-1.972538204	 0.082495
H	-0.6124658484	-2.3282707039	-2.5586936102	 0.104018
H	-1.0733377273	-2.3302952164	-0.7904277176	 0.128898
H	 0.3448788918	 0.01135463	-2.252809009	 0.077708
131.9788	197.0229	222.762	251.9529	312.4995	378.1174	407.5046	473.8896	517.6526	559.8797	584.9023	689.4245	742.3976	783.5533	796.8891	843.6591	874.3964	936.7883	956.7814	975.51	997.1529	1029.7982	1036.7681	1052.9702	1085.0577	1097.0559	1106.3536	1114.5457	1122.0397	1146.6718	1205.6345	1265.8277	1278.8743	1309.0649	1318.2305	1361.3592	1387.4554	1416.8462	1432.8876	1446.8049	1478.1193	1485.8211	1502.4127	3025.8706	3055.577	3090.212	3098.4512	3139.5555	3153.207	3163.4589	3173.0762	3233.2847	3490.0085	3772.1432
CC12NC1C(O)C1CC21	C[C@]12N[C@H]1[C@@H](O)[C@H]1C[C@@H]21	
InChI=1S/C7H11NO/c1-7-4-2-3(4)5(9)6(7)8-7/h3-6,8-9H,2H2,1H3	InChI=1S/C7H11NO/c1-7-4-2-3(4)5(9)6(7)8-7/h3-6,8-9H,2H2,1H3/t3-,4+,5-,6-,7+/m0/s1
