16
gdb 23278	2.83539	1.4969	1.13938	2.5155	67.92	-0.2532	-0.0178	0.2355	1055.7204	0.124063	-474.962701	-474.954799	-474.953855	-474.995284	30.29	
O	-0.1539160723	 1.298400581	-0.4500765775	-0.403585
N	 0.0174791511	-0.0987545567	-0.3305612468	-0.237162
C	-1.0788790611	-0.6526558802	 0.0029986928	 0.409073
C	-1.1928448487	-2.1144662844	 0.2162030848	-0.073272
O	-1.6121310603	-2.4027575213	 1.5660421185	-0.242121
C	-2.6026977527	-2.4021511596	 0.54011326	 0.0438
C	-3.4286724602	-1.1270674067	 0.5136762629	-0.267926
C	-2.4290499668	 0.0249137811	 0.2370440611	 0.037004
O	-2.4090810334	 0.9322569524	 1.3218537406	-0.430213
H	 0.7294518167	 1.5970869445	-0.6907954701	 0.314269
H	-0.4953912519	-2.8142784833	-0.2318200411	 0.110591
H	-3.0578159893	-3.3660471382	 0.3261390591	 0.101589
H	-4.194587608	-1.1836351641	-0.2652580116	 0.108925
H	-3.9273496394	-0.9583705418	 1.4714332384	 0.139212
H	-2.7021741713	 0.5481768174	-0.6919851083	 0.093491
H	-1.7175485825	 1.5753586097	 1.1225135372	 0.296325
68.373	148.5738	205.6051	303.9662	351.4578	394.427	423.8395	443.6446	444.8908	507.0286	628.3157	677.7984	726.88	794.1014	846.7224	864.9812	918.5046	959.7894	979.0772	1009.7529	1041.9846	1093.2722	1130.6279	1213.6596	1233.9796	1241.11	1262.7782	1305.5751	1313.7628	1358.6508	1393.8757	1419.7536	1427.7924	1472.9597	1749.4098	2980.9523	3064.4407	3115.1988	3147.493	3179.3017	3789.2713	3823.7289
ON=C1C2OC2CC1O	ON=C1[C@H]2O[C@H]2C[C@H]1O	
InChI=1S/C5H7NO3/c7-2-1-3-5(9-3)4(2)6-8/h2-3,5,7-8H,1H2	InChI=1S/C5H7NO3/c7-2-1-3-5(9-3)4(2)6-8/h2-3,5,7-8H,1H2/t2-,3+,5+/m1/s1
