18
gdb 15678	2.87079	1.95962	1.27011	0.9273	70.88	-0.243	0.0182	0.2611	993.1224	0.152841	-384.945851	-384.93741	-384.936466	-384.978903	30.12	
C	 0.1727047552	 1.317791336	 0.1383689503	-0.237611
O	 0.1624587215	-0.0945301241	 0.0443339746	-0.241863
C	 0.5390808056	-0.5763499286	-1.2222605066	 0.136036
O	 1.8988354303	-0.3235090582	-1.5214994282	-0.270156
C	 2.6413204805	-1.5412846386	-1.4737861815	-0.121392
C	 1.6051497979	-2.6176315138	-1.3385478501	-0.204983
C	 0.3946350151	-2.0813711509	-1.2159482926	 0.303756
C	-0.9333932977	-2.7337484423	-1.0234498236	-0.497195
H	 1.1818443437	 1.7217135752	-0.0056857664	 0.125818
H	-0.4979385513	 1.7743217398	-0.6062477539	 0.102196
H	-0.1813703017	 1.5758153397	 1.1389851233	 0.123598
H	-0.0676695538	-0.0622659697	-1.9888552734	 0.062559
H	 3.2328647134	-1.6261279962	-2.3960290338	 0.11026
H	 3.3488697018	-1.5339289929	-0.6299937085	 0.110016
H	 1.8469905984	-3.6734032676	-1.3266268535	 0.101758
H	-0.8461444135	-3.8223835562	-0.984403043	 0.123758
H	-1.3953682031	-2.384605589	-0.0936254572	 0.147087
H	-1.6236499321	-2.4751924326	-1.8364403458	 0.126358
91.4635	115.1838	166.3833	179.5282	201.8431	255.7482	288.7192	388.8368	517.4842	559.1555	634.1252	783.9386	811.8988	941.4911	948.7216	953.2383	996.5851	1034.0622	1041.0673	1066.704	1087.378	1127.9358	1178.1639	1195.7966	1207.8128	1215.3231	1291.281	1363.173	1389.7158	1396.5018	1411.5507	1475.1808	1477.1379	1484.1965	1492.103	1512.1451	1516.5927	1739.3335	2943.8262	2984.2624	2985.8271	3018.8139	3025.7507	3060.3606	3080.8805	3119.897	3121.3559	3210.8135
COC1OCC=C1C	CO[C@H]1OCC=C1C	
InChI=1S/C6H10O2/c1-5-3-4-8-6(5)7-2/h3,6H,4H2,1-2H3	InChI=1S/C6H10O2/c1-5-3-4-8-6(5)7-2/h3,6H,4H2,1-2H3/t6-/m0/s1
