19
gdb 126152	3.80507	0.94364	0.91162	1.8892	76.82	-0.2833	-0.0234	0.2599	1373.4026	0.160236	-415.388174	-415.379121	-415.378177	-415.423098	32.349	
C	-0.0880180742	 1.5253155697	 0.0686880731	-0.394327
C	 0.0067112604	-0.0002549719	-0.0202066761	-0.170373
C	 0.7686963722	-0.5160516102	-1.2638231289	-0.071949
C	 2.2475448731	-0.0889841303	-1.2809159854	-0.398637
C	 0.6570264999	-2.0078766526	-1.3470885442	 0.393632
N	 0.0070489221	-2.6604764759	-2.3069996974	-0.275545
N	 0.1901695319	-3.9206993219	-1.9313654219	-0.072943
N	 0.8984118945	-4.0725296285	-0.8234725483	-0.100162
N	 1.2039533034	-2.8620896367	-0.4375945571	-0.256147
H	 0.8929861921	 1.9929402597	 0.1943348382	 0.12164
H	-0.5469008619	 1.9479170042	-0.8324348919	 0.114921
H	-0.702846863	 1.8224217499	 0.9237581659	 0.116733
H	 0.4891625317	-0.4026043111	 0.8783359834	 0.118473
H	-1.005559702	-0.4214066823	-0.0391019955	 0.101786
H	 0.2749176303	-0.1195908453	-2.1587104667	 0.095525
H	 2.7728539961	-0.4837070247	-0.4061552925	 0.13893
H	 2.7520573714	-0.4663120982	-2.17533217	 0.12029
H	 2.3398910561	 0.9998887215	-1.2791186129	 0.118363
H	-0.176988604	-4.7056723954	-2.4480093919	 0.299791
34.0149	80.7406	123.1728	188.9814	219.2443	273.144	290.9177	347.4158	413.1439	484.2955	573.897	711.3995	737.2147	784.8354	805.114	856.2112	964.5676	986.3442	1031.5032	1034.0323	1059.8684	1090.0726	1126.2584	1135.1192	1180.1658	1196.5787	1254.0213	1288.5023	1306.7426	1352.7181	1365.4191	1381.0896	1408.1027	1413.9765	1470.8966	1486.0113	1493.6667	1500.9098	1505.6255	1511.8013	1543.4289	3030.6988	3034.3156	3042.6426	3045.2443	3069.284	3101.084	3109.54	3115.1646	3125.6633	3650.6879
CCC(C)C1=NNN=N1	CC[C@@H](C)c1n[nH]nn1	
InChI=1S/C5H10N4/c1-3-4(2)5-6-8-9-7-5/h4H,3H2,1-2H3,(H,6,7,8,9)	InChI=1S/C5H10N4/c1-3-4(2)5-6-8-9-7-5/h4H,3H2,1-2H3,(H,6,7,8,9)/t4-/m1/s1
