15
gdb 35049	2.43692	1.73417	1.61913	4.7508	69.32	-0.2554	-0.0046	0.2508	909.3828	0.115009	-416.814286	-416.806984	-416.80604	-416.846544	26.927	
N	 0.2008852089	-1.1881937554	-0.0011487121	-0.344519
C	 0.1418044983	-0.0327119686	-0.0014754447	 0.318512
C	 0.0552704501	 1.3980610583	 0.0175173135	-0.213878
C	 0.4474992835	 2.1789322962	 1.266057654	-0.106986
C	 1.0242919356	 1.4773105329	 2.4758893797	-0.09261
O	 2.2355333109	 0.7449918803	 2.2242061066	-0.22189
C	 2.9285946017	 0.9667932389	 1.0907231893	 0.142525
N	 2.6070200775	 1.6357103633	 0.062359938	-0.259458
C	 1.3281608457	 2.2614553656	 0.0564194489	-0.003432
H	-0.7726555756	 1.7989625875	-0.5579240485	 0.139363
H	-0.1898683905	 3.0231428535	 1.5085529423	 0.11441
H	 1.2536158858	 2.2283325967	 3.2401233836	 0.130138
H	 0.3244269049	 0.7536767082	 2.9050379155	 0.141133
H	 3.8862386698	 0.4544629552	 1.1383551098	 0.139643
H	 1.2837558834	 3.1499281072	-0.5638760358	 0.117048
82.8072	115.0371	134.5346	311.4501	337.3909	487.3049	519.1306	550.6755	656.3129	677.2279	743.2944	787.432	840.6838	900.1591	932.7054	962.2385	983.4553	1003.9168	1063.1295	1087.8171	1112.5983	1132.3721	1197.7706	1226.7251	1280.6654	1360.1945	1365.7214	1392.3206	1417.4572	1435.6627	1509.8425	1716.5512	2353.21	3040.5768	3083.8368	3160.6112	3165.2026	3175.4684	3179.7047
N#CC1C2COC=NC12	N#C[C@H]1[C@H]2COC=N[C@@H]12	
InChI=1S/C6H6N2O/c7-1-4-5-2-9-3-8-6(4)5/h3-6H,2H2	InChI=1S/C6H6N2O/c7-1-4-5-2-9-3-8-6(4)5/h3-6H,2H2/t4-,5+,6-/m0/s1
