20
gdb 39119	3.71979	1.15073	1.0711	1.6308	79.17	-0.2444	0.0746	0.3189	1209.3894	0.172389	-403.086485	-403.078423	-403.077479	-403.119775	30.663	
C	 0.0281904595	 1.4215453769	-0.1819824	-0.060098
C	 1.5204773956	 1.4796894679	 0.1921062047	-0.299992
C	 1.2948179902	 0.0383536678	 0.7158115343	 0.056188
O	-0.0479623355	 0.0218848681	 0.1631908325	-0.296403
C	 2.1448040696	-1.0610186638	 0.1770424273	 0.351136
C	 2.2727611033	-1.4772603641	-1.2985479115	-0.305924
C	 2.4382676818	-2.9625207281	-0.8314782978	-0.235507
C	 2.3077810392	-2.4921597435	 0.6235125732	-0.087721
N	 3.3079717378	-1.4835399524	 0.9533157088	-0.368633
H	-0.6283077459	 2.0323622277	 0.4515705778	 0.099855
H	-0.2287669679	 1.599259776	-1.2323913334	 0.103383
H	 2.1943054559	 1.5335933254	-0.6655576404	 0.10917
H	 1.8180212837	 2.2222407969	 0.9330408415	 0.112992
H	 1.2773501641	-0.0301084645	 1.8112877858	 0.078902
H	 1.3458221453	-1.3217531343	-1.8533335409	 0.123087
H	 3.1041258933	-1.0284005424	-1.8531734922	 0.089387
H	 1.6081799004	-3.5927863115	-1.1578842862	 0.113338
H	 3.3791206191	-3.4645572535	-1.0816978511	 0.096513
H	 1.8379750826	-3.0261252304	 1.4419049627	 0.097292
H	 4.1511040079	-1.5626524982	 0.386719105	 0.223037
68.621	86.7499	138.4949	210.4406	267.4785	359.69	461.7185	486.6328	635.5828	750.2927	775.7063	786.8376	829.5574	847.0802	901.6742	927.7568	950.0306	955.4895	966.525	1018.9686	1025.1323	1029.3814	1058.8341	1079.8484	1108.5129	1141.7492	1166.1957	1179.5709	1211.5259	1216.9004	1229.4818	1250.0693	1254.7821	1270.6379	1286.6113	1306.5318	1354.9878	1357.8384	1461.1033	1477.5714	1488.7564	1499.3469	1531.589	3010.9894	3022.6689	3039.0759	3048.3129	3057.1131	3079.2661	3104.8785	3124.195	3137.2531	3177.4184	3456.4184
C1CC(O1)C12CCC1N2	C1C[C@@H](O1)[C@]12CC[C@H]1N2	
InChI=1S/C7H11NO/c1-3-7(5(1)8-7)6-2-4-9-6/h5-6,8H,1-4H2	InChI=1S/C7H11NO/c1-3-7(5(1)8-7)6-2-4-9-6/h5-6,8H,1-4H2/t5-,6-,7+/m1/s1
