14
gdb 98136	4.89823	0.86762	0.74051	4.6258	62.3	-0.2604	-0.0775	0.1828	1438.806	0.09895	-511.029432	-511.020153	-511.019209	-511.064713	30.578	
C	 0.0107196292	 1.4424010295	-0.0450437357	-0.245544
O	 0.0143531487	 0.004076109	-0.0204903572	-0.200452
C	 0.5996561897	-0.5834622656	-1.0499339883	 0.390211
O	 1.1187938109	-0.0221090773	-1.9874808244	-0.377899
C	 0.5464393792	-2.1269965535	-0.9226238895	 0.31092
O	 0.0354964835	-2.699386746	-0.0006941697	-0.283999
N	 1.1712175969	-2.6946368503	-2.0233216437	-0.347333
C	 1.3426113841	-4.0495821064	-2.3001936337	 0.169212
O	 0.9696846293	-4.962167719	-1.6183913099	-0.247107
H	 1.0345614009	 1.8229405206	-0.061848236	 0.151248
H	-0.5200028734	 1.8040957475	-0.9287352695	 0.151193
H	-0.5010765759	 1.7483078793	 0.8658636651	 0.152226
H	 1.5351361081	-2.0195499774	-2.6855868787	 0.280095
H	 1.8819410387	-4.1779256505	-3.2593912989	 0.09723
52.8586	85.3862	115.9409	138.3329	158.8766	223.9691	231.5165	312.7546	348.464	508.7873	525.8638	607.9467	735.4548	835.2886	836.728	944.2312	976.4796	1030.655	1093.3558	1169.5772	1177.3542	1212.5567	1324.3188	1441.7278	1475.2019	1483.682	1491.5434	1521.397	1797.841	1814.665	1877.5305	2941.5705	3058.8137	3137.0205	3176.2005	3569.9401
COC(=O)C(=O)NC=O	COC(=O)C(=O)NC=O	
InChI=1S/C4H5NO4/c1-9-4(8)3(7)5-2-6/h2H,1H3,(H,5,6,7)	InChI=1S/C4H5NO4/c1-9-4(8)3(7)5-2-6/h2H,1H3,(H,5,6,7)
