16
gdb 130711	3.21015	1.64491	1.11721	3.81	69.94	-0.2144	0.0224	0.2368	1034.0192	0.128429	-434.12458	-434.117391	-434.116447	-434.156374	27.169	
O	 0.0153995146	-0.0518831304	 0.0729399814	-0.432412
C	 0.0204047212	 1.1607512815	 0.0750746276	 0.442712
N	-1.0349453488	 2.0590465207	 0.1045017488	-0.318125
N	-0.6640754588	 3.397224001	 0.1117277456	-0.324339
C	 0.6280772701	 3.3312320741	 0.071969597	 0.420536
C	 1.7654741318	 4.3023643251	 0.0198471588	-0.344079
C	 2.9750209812	 3.387485655	 0.3801827376	-0.221872
C	 2.5459783427	 1.9419896016	-0.0025118494	-0.177217
N	 1.100402244	 2.0461170502	 0.0529589153	-0.11912
H	-2.0052143608	 1.8071452284	 0.1713418086	 0.277656
H	 1.8646509807	 4.7187279154	-0.9891809119	 0.136543
H	 1.6439898078	 5.1397281157	 0.7093070589	 0.14065
H	 3.8941173596	 3.6882854529	-0.1250408101	 0.119981
H	 3.1571087935	 3.4342507645	 1.4573849951	 0.128348
H	 2.8760964005	 1.6636426632	-1.01010339	 0.129135
H	 2.9154553407	 1.1871068512	 0.6950642265	 0.141602
118.3297	155.7369	193.852	273.883	288.9271	444.7529	558.1171	605.1382	643.7507	675.9043	733.5882	746.0513	815.4513	860.9773	895.4767	917.2271	998.9339	1057.8539	1082.2668	1091.8128	1176.8914	1188.2954	1223.5682	1236.8513	1299.9006	1312.8548	1340.0762	1357.3736	1388.4822	1462.6438	1483.1887	1499.3423	1532.7946	1669.5786	1841.172	3039.7617	3046.8711	3070.1184	3105.37	3114.4811	3129.6286	3696.662
O=C1NN=C2CCCN12	O=c1[nH]nc2CCCn12	
InChI=1S/C5H7N3O/c9-5-7-6-4-2-1-3-8(4)5/h1-3H2,(H,7,9)	InChI=1S/C5H7N3O/c9-5-7-6-4-2-1-3-8(4)5/h1-3H2,(H,7,9)
