17
gdb 50871	3.87815	0.86554	0.76219	6.2552	72.37	-0.2449	-0.028	0.217	1471.8898	0.135177	-455.158067	-455.149064	-455.14812	-455.193129	31.407	
O	-0.3859651668	 0.4835504542	-0.1461950822	-0.255081
C	 0.5408645597	 0.569797619	 0.6110437717	 0.165496
N	 1.7880409174	 1.1190056748	 0.3396313678	-0.338884
C	 2.2431847441	 1.6819770952	-0.8520529035	 0.404377
O	 1.6065660041	 1.7768312407	-1.8690874245	-0.308907
C	 3.6708018353	 2.2352687922	-0.7312084053	-0.267151
N	 4.4184767509	 1.6377347525	 0.3676746508	-0.088662
C	 5.3366418984	 0.5494729242	 0.0241374642	-0.224567
C	 5.8555837093	 1.8928734719	 0.3981817186	-0.216738
H	 0.5068671415	 0.2065911153	 1.6590453923	 0.083225
H	 2.4815672394	 1.1128818089	 1.0800876286	 0.265981
H	 4.1472763654	 2.1154663932	-1.7149880631	 0.126233
H	 3.5784833798	 3.3127568267	-0.5444651955	 0.144014
H	 5.3796604667	-0.2724099213	 0.7320180964	 0.12803
H	 5.4034142241	 0.2580519154	-1.0218899537	 0.129617
H	 6.2755487308	 2.5048637076	-0.3971149454	 0.124022
H	 6.2818177799	 2.0652741597	 1.3817721028	 0.128995
51.4667	75.5823	104.5639	134.0577	215.2495	224.4495	315.5149	375.4193	454.933	524.879	605.9205	760.801	768.0675	786.3742	843.1029	899.9965	938.9837	1000.8866	1031.7866	1035.9125	1056.4801	1116.836	1127.3958	1137.771	1171.4682	1174.0091	1216.2214	1265.1465	1321.3498	1353.8335	1445.0974	1466.5002	1491.6045	1509.3208	1523.7205	1809.1693	1872.9724	2919.3651	3002.7012	3057.3355	3106.292	3110.5076	3190.8058	3204.9662	3537.1611
O=CNC(=O)CN1CC1	O=CNC(=O)CN1CC1	
InChI=1S/C5H8N2O2/c8-4-6-5(9)3-7-1-2-7/h4H,1-3H2,(H,6,8,9)	InChI=1S/C5H8N2O2/c8-4-6-5(9)3-7-1-2-7/h4H,1-3H2,(H,6,8,9)
