21
gdb 118888	3.02059	1.12883	0.98076	1.1277	79.02	-0.2338	0.0722	0.306	1308.4804	0.180297	-424.173493	-424.164054	-424.16311	-424.207936	35.165	
C	-0.1826185106	 1.402061768	 0.6619650185	-0.221978
O	-0.2164083146	 0.0126412776	 0.8826867143	-0.237366
C	 0.9643611619	-0.6403745943	 0.470404855	-0.09976
C	 0.8194450029	-2.1282789845	 0.7692742049	 0.380392
C	-0.3769468262	-2.7399788618	 0.0578340182	-0.432441
O	 2.0475772684	-2.839268725	 0.3960258777	-0.341396
C	 2.1297239881	-3.4066836508	 1.7070999537	 0.102949
C	 2.3607334204	-2.3535946229	 2.7409722254	-0.315662
C	 0.9594698678	-2.6055060712	 2.2221573723	-0.149308
H	-0.0649648436	 1.6433100732	-0.4063799772	 0.105414
H	-1.1316738878	 1.8131490902	 1.0146733379	 0.126862
H	 0.6405024997	 1.8832362559	 1.2135141228	 0.105282
H	 1.1352056276	-0.5058884276	-0.6117603738	 0.092043
H	 1.8412359906	-0.2281609913	 0.9915092881	 0.088126
H	-0.2623461774	-2.6344670914	-1.0255493987	 0.118887
H	-0.460107542	-3.8036983995	 0.2955472538	 0.116033
H	-1.294442945	-2.2292642296	 0.3615481541	 0.133876
H	 2.4057763096	-4.4513935209	 1.7902914845	 0.101025
H	 2.5288424172	-2.7200836506	 3.7494523217	 0.113953
H	 2.9142020895	-1.455015213	 2.4856916383	 0.115064
H	 0.1335292935	-2.8896864606	 2.8598010987	 0.098004
63.9712	87.4784	155.6837	207.2595	215.6505	238.2211	276.7056	347.6435	366.4546	420.9624	482.0892	510.0693	707.0163	761.7665	798.1525	866.2878	904.804	951.972	972.1928	980.2793	997.7765	999.58	1023.4162	1048.2586	1057.6262	1085.4028	1131.9177	1159.3777	1170.0344	1188.8378	1209.7276	1229.5579	1253.14	1268.8027	1330.505	1353.4185	1396.3959	1414.6276	1472.8635	1481.0297	1483.2494	1484.9204	1491.1872	1504.2068	1523.9124	2958.9874	2972.8217	3007.3852	3015.2823	3043.227	3113.6313	3116.0197	3118.941	3130.4904	3177.9847	3201.5266	3210.3699
COCC1(C)OC2CC12	COC[C@@]1(C)O[C@H]2C[C@@H]12	
InChI=1S/C7H12O2/c1-7(4-8-2)5-3-6(5)9-7/h5-6H,3-4H2,1-2H3	InChI=1S/C7H12O2/c1-7(4-8-2)5-3-6(5)9-7/h5-6H,3-4H2,1-2H3/t5-,6+,7-/m1/s1
