17
gdb 25693	6.52938	0.71433	0.64909	0.597	90.12	-0.2057	0.0041	0.2098	1726.5828	0.134761	-384.711404	-384.702052	-384.701107	-384.748004	32.572	
C	 0.0189068329	 1.4809285816	 0.1062310253	-0.509258
C	 0.0130692788	 0.0284846382	 0.0276676352	 0.209917
C	 0.0138308982	-1.1761980955	-0.0392002584	-0.126613
C	-0.0097804822	-2.5885643326	-0.1101947977	 0.149632
C	 1.0168025232	-3.4176748976	-0.4662745542	-0.141075
O	 0.6249393372	-4.7146651816	-0.4196098324	-0.176071
C	-0.6847884078	-4.7359467182	-0.0250129107	 0.386796
C	-1.3238203353	-6.0722704852	 0.0941622645	-0.493231
C	-1.1211401406	-3.466787688	 0.1770536649	-0.412335
H	 0.7657146604	 1.8401364288	 0.8236321392	 0.148417
H	 0.249245386	 1.9335868995	-0.8650923182	 0.148411
H	-0.9567249558	 1.8636549862	 0.4257889118	 0.148901
H	 2.0354240633	-3.2346091938	-0.7639560553	 0.137795
H	-0.8053627916	-6.7013725569	 0.8265198998	 0.139839
H	-2.3617492426	-5.9587980004	 0.4140834115	 0.137422
H	-1.3155442954	-6.6079689323	-0.8618053336	 0.139839
H	-2.1074384488	-3.165454372	 0.4917622583	 0.111616
8.5669	86.0082	89.0274	127.2393	213.5558	273.1968	311.9934	352.253	438.6286	480.563	532.4046	629.0193	663.9903	686.7053	743.4097	819.5818	926.9789	940.4224	1011.8181	1047.394	1051.3546	1053.127	1065.3989	1171.8791	1192.7222	1226.7487	1323.2381	1366.3919	1413.6392	1416.5285	1472.8165	1475.9257	1478.0107	1489.1737	1583.003	1649.6706	2361.2913	3022.4013	3031.5147	3079.7995	3082.41	3085.555	3131.1637	3263.6068	3283.1149
CC#CC1=COC(C)=C1	CC#Cc1coc(C)c1	
InChI=1S/C8H8O/c1-3-4-8-5-7(2)9-6-8/h5-6H,1-2H3	InChI=1S/C8H8O/c1-3-4-8-5-7(2)9-6-8/h5-6H,1-2H3
