19
gdb 99233	4.5829	0.71055	0.64083	1.562	75.15	-0.2398	-0.0221	0.2177	1763.0519	0.156762	-456.406398	-456.395444	-456.394499	-456.444692	36.666	
C	-0.2735296272	 1.3673092967	-0.0659944975	-0.324365
N	 0.0609076284	-0.0433035732	-0.0450597534	-0.356851
C	 0.7212170469	-0.6243688475	-1.1033008332	 0.49206
O	 0.9252914931	-0.0574700832	-2.1651527341	-0.407898
N	 1.1395632319	-1.9220904656	-0.8507884257	-0.374513
C	 1.5962373842	-2.7267439078	-1.9568693982	-0.242296
C	 1.0213769633	-4.134729802	-1.8738791748	 0.374889
C	 1.394749484	-5.081767125	-2.992869598	-0.4757
O	 0.310721273	-4.4651001293	-0.9495646369	-0.303081
H	 0.469687649	 1.9849103854	 0.4557995958	 0.11842
H	-0.308062759	 1.6813158292	-1.1093735751	 0.167938
H	-1.252321331	 1.5341794526	 0.3942325864	 0.120425
H	 0.1494782216	-0.4862621512	 0.8552092957	 0.239585
H	 0.6085658578	-2.4655623637	-0.1802861798	 0.245017
H	 1.3125303405	-2.2539432885	-2.9052939883	 0.157254
H	 2.6938105468	-2.8134978583	-1.9817514638	 0.125588
H	 2.4802332832	-5.107403147	-3.1348221502	 0.143508
H	 1.023332919	-6.0829132456	-2.7724844796	 0.147821
H	 0.9589468343	-4.730447096	-3.9352352595	 0.152198
31.9599	47.3751	62.8625	90.7936	106.5426	135.5071	212.7862	273.0508	304.7766	349.7652	427.268	467.7893	518.4958	568.1471	620.1964	735.8239	766.8219	834.2649	858.0944	948.9862	994.6976	1087.2243	1105.8911	1153.7691	1171.3404	1190.587	1214.9467	1243.7723	1255.9991	1360.2174	1387.5191	1440.6293	1461.6783	1474.7491	1477.1898	1493.509	1497.1007	1508.6008	1564.8146	1779.1789	1806.7733	2989.8154	3013.5649	3040.4065	3056.9016	3079.0011	3102.0765	3156.2422	3156.5763	3552.1975	3632.3272
CNC(=O)NCC(C)=O	CNC(=O)NCC(=O)C	
InChI=1S/C5H10N2O2/c1-4(8)3-7-5(9)6-2/h3H2,1-2H3,(H2,6,7,9)	InChI=1S/C5H10N2O2/c1-4(8)3-7-5(9)6-2/h3H2,1-2H3,(H2,6,7,9)
