18
gdb 39843	2.8968	1.75848	1.39345	2.3973	74.68	-0.2421	0.06	0.302	965.1419	0.14968	-401.889715	-401.882838	-401.881894	-401.920782	28.463	
C	-0.068905677	 1.4500388763	 0.0280186671	-0.291651
C	 1.3084397352	 0.8322025786	 0.0233353754	-0.070198
C	 1.9447472555	 0.5992290734	 1.3808785879	 0.027417
O	 1.1290467386	 0.9809184632	 2.4980012567	-0.257275
C	 1.1669935041	-0.4072982834	 2.1177773852	-0.077315
C	 0.0147817444	-0.8488563141	 1.2504262352	 0.366859
C	-0.4228550879	-2.268309386	 1.297415587	-0.302913
N	-1.2921596425	-1.207674917	 1.8280649099	-0.355092
C	 0.0721037581	-0.0493230031	-0.0349159345	-0.121025
H	-0.4123266691	 1.9026366939	 0.9492499839	 0.140378
H	-0.3901407156	 1.9456544116	-0.8815769583	 0.108663
H	 1.9645466225	 0.9634104538	-0.828450095	 0.086521
H	 3.0132026212	 0.7416054775	 1.5151451082	 0.098083
H	 1.5764407814	-1.0796246344	 2.8697436432	 0.094357
H	-0.7861799362	-2.7453013328	 0.3907798936	 0.11965
H	 0.078619549	-2.9410752887	 1.9898667474	 0.110926
H	-1.2430348397	-1.184115075	 2.8442286789	 0.235399
H	-0.2176704821	-0.5517060736	-0.9508692316	 0.087215
121.0414	219.4112	294.8985	326.6191	403.5658	472.0167	540.6642	585.3458	689.6682	758.3104	796.8898	804.0255	852.8533	874.4155	883.7976	903.2193	938.8866	957.4074	977.0595	990.1957	1031.6623	1054.7125	1073.0478	1082.8294	1094.8712	1101.5497	1109.4914	1147.1339	1195.3078	1250.5046	1262.7703	1288.7723	1308.7661	1334.9529	1350.0753	1401.2808	1441.1474	1476.147	1512.2386	3098.2332	3125.6817	3143.0926	3155.4833	3169.5288	3182.7634	3187.712	3240.1149	3491.9528
C1C2C3OC3C3(CN3)C12	C1[C@H]2[C@H]3O[C@H]3[C@]3(CN3)[C@@H]12	
InChI=1S/C7H9NO/c1-3-4(1)7(2-8-7)6-5(3)9-6/h3-6,8H,1-2H2	InChI=1S/C7H9NO/c1-3-4(1)7(2-8-7)6-5(3)9-6/h3-6,8H,1-2H2/t3-,4+,5-,6-,7+/m1/s1
