17
gdb 51656	3.73162	1.07803	1.04397	4.1759	68.73	-0.2594	0.0042	0.2636	1190.125	0.136235	-458.977729	-458.969933	-458.968988	-459.010848	28.987	
O	 0.2311239074	 0.2551327198	-0.8417489221	-0.273125
C	 0.1852999299	 1.3131002136	-0.2914082114	 0.174887
O	 1.1825445652	 2.2201681219	-0.3758843215	-0.192769
C	 0.9492150384	 3.4997432505	 0.245367115	 0.174974
C	 2.3062116591	 4.2178435645	 0.3551210838	-0.262623
C	 2.3055045814	 5.1651660452	-0.8345101178	-0.076668
C	 1.9753138424	 4.5779766678	-2.1977538565	-0.319394
C	 0.8926062894	 5.1656493402	-1.3370008905	 0.107137
O	 0.1093032468	 4.2877226487	-0.5473959539	-0.244496
H	-0.6530905859	 1.6516248423	 0.3459910286	 0.085758
H	 0.4431533274	 3.3280181273	 1.2008674464	 0.102937
H	 2.348756558	 4.7876460852	 1.2881675504	 0.117519
H	 3.1200936944	 3.4901659967	 0.3576605315	 0.13318
H	 2.8922868114	 6.0732606293	-0.7733638927	 0.098229
H	 2.2802030039	 5.1558767948	-3.0638362133	 0.117472
H	 2.0054445335	 3.5030393063	-2.3292621675	 0.148202
H	 0.3327313672	 6.0453132359	-1.6275472386	 0.10878
57.6125	119.1172	140.3188	238.0153	297.9427	382.1205	431.5022	506.0346	644.8679	685.6531	760.1689	783.6641	815.437	889.6089	908.0871	953.5906	991.2224	1018.4271	1026.6269	1044.5291	1053.7227	1076.2545	1099.1488	1106.7725	1149.3691	1184.0996	1206.7192	1221.2724	1298.904	1317.5733	1369.6652	1380.2741	1400.2861	1441.1979	1475.7372	1488.0764	1869.8487	2962.4029	3056.0335	3068.8773	3119.5901	3139.8837	3185.1773	3199.7302	3234.967
O=COC1CC2CC2O1	O=CO[C@H]1C[C@H]2C[C@H]2O1	
InChI=1S/C6H8O3/c7-3-8-6-2-4-1-5(4)9-6/h3-6H,1-2H2	InChI=1S/C6H8O3/c7-3-8-6-2-4-1-5(4)9-6/h3-6H,1-2H2/t4-,5-,6-/m1/s1
