19
gdb 67565	2.91407	2.02214	1.50504	1.0567	78.12	-0.2185	0.0791	0.2977	923.0603	0.161761	-381.969464	-381.962666	-381.961722	-382.00012	28.873	
C	 0.0020336869	 1.4874237645	-0.0307188432	-0.517902
C	 0.0815195082	-0.0181085008	 0.0306963364	 0.408599
C	 0.4295073205	-0.7369242297	-1.2677753229	-0.122326
N	 1.6397714623	-1.5890057213	-1.1451514432	-0.342458
C	 0.2903472337	-2.1487781774	-0.8695259349	-0.070451
C	-0.1127979482	-1.9759610139	 0.5778089019	 0.025301
C	 0.6919267446	-0.8196097656	 1.2248887342	-0.107123
C	-0.5952928719	-0.5081901003	 1.9970985533	-0.201743
N	-1.154925647	-0.8130464173	 0.6073685879	-0.203287
H	 0.9677296703	 1.8965154391	-0.3469334696	 0.128545
H	-0.7497628439	 1.7966679888	-0.7652200516	 0.127622
H	-0.2577642598	 1.9455071901	 0.9261100102	 0.122652
H	 0.1303356629	-0.3419276603	-2.2315680579	 0.090729
H	 1.9177180672	-1.8809946514	-2.0814881124	 0.229158
H	-0.1288131109	-2.9201558981	-1.5032399069	 0.096586
H	-0.3954068169	-2.8472466444	 1.1695729325	 0.071911
H	 1.7307002918	-0.8300520219	 1.5655256243	 0.071868
H	-0.9157248126	-1.2267844752	 2.7571323389	 0.095451
H	-0.7765868273	 0.510955715	 2.3435964931	 0.09687
186.9169	228.5868	298.8357	332.6486	387.465	484.9367	550.9722	615.7866	690.0551	705.0905	755.6318	791.8253	833.5886	850.8133	866.5294	908.9367	918.7838	923.8043	938.3804	996.2379	1044.6699	1048.4897	1077.9882	1096.0452	1109.3364	1121.393	1134.4612	1170.4153	1201.9373	1215.7878	1226.6185	1246.1785	1252.8641	1282.3003	1345.4783	1359.48	1406.8556	1419.5675	1486.7028	1491.5162	1540.5875	3035.8085	3055.0727	3071.0391	3096.5714	3112.2393	3114.3613	3123.1917	3180.6287	3196.222	3475.4019
CC12C3NC3C3C1CN23	C[C@@]12[C@H]3N[C@H]3[C@H]3[C@@H]1CN23	
InChI=1S/C7H10N2/c1-7-3-2-9(7)5(3)4-6(7)8-4/h3-6,8H,2H2,1H3	InChI=1S/C7H10N2/c1-7-3-2-9(7)5(3)4-6(7)8-4/h3-6,8H,2H2,1H3/t3-,4-,5+,6-,7-/m0/s1
