23
gdb 57843	2.35053	1.18723	1.05693	2.5041	82.1	-0.2364	-0.012	0.2245	1330.2538	0.201135	-425.459489	-425.447952	-425.447008	-425.496287	42.173	
C	 0.0745666195	 1.1980734314	 0.546980275	-0.398118
C	-0.0963019027	-0.2187768841	-0.046832731	-0.055109
C	-1.5679795038	-0.5437317951	-0.3149616359	-0.393723
C	 0.7261403247	-0.3168564862	-1.3280797007	 0.372773
O	 0.2263748529	-0.2077633863	-2.4260753803	-0.34174
C	 2.2491936698	-0.5747076599	-1.2330993443	 0.25634
C	 2.5158307333	-1.9759040715	-1.8099039466	-0.409582
C	 2.9948836229	 0.5046018248	-2.0296869974	-0.413791
O	 2.6171550613	-0.5301279484	 0.1461714032	-0.463374
H	 1.1216764538	 1.407700944	 0.7732313543	 0.13572
H	-0.2982161907	 1.9563514071	-0.1499377684	 0.121944
H	-0.500128278	 1.2818404681	 1.4745706945	 0.116301
H	 0.3261757093	-0.9269051423	 0.6731043502	 0.0997
H	-1.9846614594	 0.1363656394	-1.0622038524	 0.13155
H	-1.6903727123	-1.5625552969	-0.694351931	 0.113713
H	-2.1502256595	-0.4494228142	 0.6069634335	 0.105078
H	 2.1552636945	-2.0403817592	-2.8389782322	 0.142746
H	 3.591533457	-2.1870566916	-1.8024978951	 0.104193
H	 2.0131408614	-2.7408883456	-1.2107142596	 0.124199
H	 2.8572981726	 1.4855882392	-1.5663871603	 0.125103
H	 4.068154628	 0.2833382284	-2.0565866481	 0.101329
H	 2.6198675964	 0.5453440455	-3.0542981785	 0.144452
H	 3.560925489	-0.7107782266	 0.2034808113	 0.280297
22.5307	78.6035	192.5054	199.1969	207.3453	225.3585	247.9991	250.1207	264.9554	278.7215	294.596	320.5306	363.8199	393.2014	438.5943	504.5005	578.1473	704.6098	761.3547	827.1052	887.0937	929.8656	934.6446	972.6436	975.9139	1013.6704	1052.0133	1100.9289	1119.0257	1144.8499	1188.1342	1197.8983	1222.3379	1317.5158	1356.8555	1378.0331	1388.0672	1394.3274	1409.104	1416.1816	1477.8953	1484.1069	1486.3829	1489.0706	1496.8842	1501.8772	1511.5402	1515.9576	1794.7361	3029.8361	3034.756	3037.2381	3042.2815	3062.4158	3100.7614	3104.01	3105.6302	3108.6155	3124.6963	3133.344	3136.9701	3140.263	3816.0622
CC(C)C(=O)C(C)(C)O	CC(C)C(=O)C(C)(C)O	
InChI=1S/C7H14O2/c1-5(2)6(8)7(3,4)9/h5,9H,1-4H3	InChI=1S/C7H14O2/c1-5(2)6(8)7(3,4)9/h5,9H,1-4H3
