18
gdb 105997	2.67839	1.69347	1.26052	1.3882	75.38	-0.2054	0.0677	0.2731	1047.0511	0.145724	-401.811516	-401.803233	-401.802289	-401.84437	31.172	
C	-0.278040922	 1.2384300167	 0.0525009095	-0.258174
O	 0.2592028435	-0.0760618636	-0.061700943	-0.279792
C	 0.8314377676	-0.5370861566	 1.0799081307	 0.370958
C	 2.152779877	-0.198854905	 1.8482915686	-0.153458
C	 2.2683089603	-1.622956391	 2.262157045	-0.105736
N	 1.5392494595	-0.6469594814	 3.1475151969	-0.170055
C	 0.250767784	-0.9919706668	 2.4053812841	-0.168324
C	 0.9625637684	-1.9963391547	 1.5052415739	 0.245467
C	 0.4807366438	-3.232054616	 0.8235963643	-0.527577
H	 0.5078910142	 1.9720921128	 0.2740070818	 0.121201
H	-0.7316174226	 1.4783420774	-0.9109854802	 0.131842
H	-1.0390272781	 1.2864617578	 0.8414900088	 0.120238
H	 2.8867932808	 0.5975689615	 1.7994713068	 0.09751
H	 3.116656758	-2.2035293412	 2.6091071728	 0.093075
H	-0.7404905245	-0.9811249061	 2.8419639335	 0.098624
H	-0.5035573371	-3.0592345809	 0.3764101344	 0.13249
H	 1.1595272	-3.5347667051	 0.0179860949	 0.12695
H	 0.3912045071	-4.0704567278	 1.5236762571	 0.124762
98.7566	132.54	162.4224	193.8581	235.2948	259.5391	372.6179	450.0074	584.1818	643.6855	689.9011	762.6636	772.8999	812.6599	861.8398	875.8348	901.406	920.8305	977.0714	986.1311	997.2993	1038.0335	1060.0015	1108.6478	1126.1719	1177.2202	1182.7275	1191.0825	1212.1901	1236.7668	1301.9347	1368.9453	1414.3449	1447.1411	1480.5952	1486.2428	1494.1269	1502.8856	1509.3311	3007.4501	3023.5132	3067.7773	3082.3494	3099.827	3132.1249	3159.9266	3176.7561	3186.1041
COC12C3C4N3C1C24C	CO[C@@]12[C@@H]3[C@H]4N3[C@@H]1[C@@]24C	
InChI=1S/C7H9NO/c1-6-3-4-7(6,9-2)5(6)8(3)4/h3-5H,1-2H3	InChI=1S/C7H9NO/c1-6-3-4-7(6,9-2)5(6)8(3)4/h3-5H,1-2H3/t3-,4+,5-,6+,7+,8?/m1/s1
