19
gdb 35036	3.07375	1.44541	1.4223	4.4366	77.64	-0.2461	0.0232	0.2692	1011.2489	0.163821	-382.086355	-382.0792	-382.078256	-382.11781	28.815	
N	-0.0665492141	-1.1381368385	-0.1193059739	-0.333047
C	-0.0077968913	 0.01368432	-0.0479777208	 0.290251
C	 0.0259677437	 1.4713714922	 0.0585730678	-0.137801
C	-0.3956507639	 2.0502755279	 1.4449989817	-0.010099
C	 0.7545647965	 1.5306672426	 2.3311669568	-0.235503
C	 1.9544027474	 1.5455638432	 1.3218458059	-0.182534
N	 1.3999143803	 2.0396715648	 0.0308541249	-0.086211
C	 1.0837959987	 3.4821881355	 0.1998424288	-0.173005
C	-0.1507210566	 3.5470824941	 1.1671918236	-0.242435
H	-0.5645190413	 1.8865774031	-0.7643390182	 0.120993
H	-1.3983433489	 1.7998713685	 1.7909714569	 0.085034
H	 0.9177873293	 2.1750116375	 3.198512786	 0.103803
H	 0.555649435	 0.520000641	 2.696243765	 0.121674
H	 2.7787435146	 2.1909852772	 1.6302899414	 0.109175
H	 2.3542678793	 0.5408176366	 1.1683474375	 0.131096
H	 1.963609536	 4.0041843386	 0.5803285277	 0.114049
H	 0.8433625265	 3.9049554433	-0.7796179187	 0.11255
H	-1.013273862	 4.0148271397	 0.6835144953	 0.104072
H	 0.0560179509	 4.1011566426	 2.0862152124	 0.107938
140.521	158.6111	188.5528	359.9356	393.95	424.878	520.7666	540.4024	622.7302	762.9505	790.0362	806.7901	842.329	848.2174	884.1513	894.1067	917.6457	955.8848	985.3859	998.0421	1025.0134	1046.8513	1048.9569	1128.1966	1170.6463	1196.0423	1209.4576	1233.1204	1272.5476	1279.8673	1291.521	1311.0098	1317.3235	1336.1753	1353.6032	1379.1283	1487.3141	1499.763	1502.5501	1520.7213	2360.641	3054.465	3064.2184	3064.6403	3067.5764	3076.7698	3097.9119	3105.653	3120.2619	3122.396	3129.0266
N#CC1C2CCN1CC2	N#C[C@H]1[C@H]2CCN1CC2	
InChI=1S/C7H10N2/c8-5-7-6-1-3-9(7)4-2-6/h6-7H,1-4H2	InChI=1S/C7H10N2/c8-5-7-6-1-3-9(7)4-2-6/h6-7H,1-4H2/t7-/m0/s1
