17
gdb 34368	2.66737	1.62603	1.27991	1.7289	78.63	-0.2466	0.0042	0.2508	1021.5723	0.136122	-384.644867	-384.637197	-384.636253	-384.677009	29.98	
C	-0.0899195748	-1.2007483101	-0.2684888288	-0.423227
C	-0.0457762466	-0.0113492082	-0.0950492681	 0.22337
C	 0.0008522116	 1.418051135	 0.1165441229	 0.078042
C	-0.234326989	 2.2880539501	-1.1565632271	-0.106694
O	 1.1203147557	 2.7725466693	-1.1604376254	-0.29081
C	 1.4058847162	 2.116159443	 0.0998983251	 0.059726
C	 1.3724178528	 3.0388743686	 1.2837674268	-0.085632
C	 0.2318701951	 2.9363151192	 1.9658263726	-0.065843
C	-0.7124935286	 1.8983526948	 1.40846178	-0.337357
H	-0.1253624318	-2.2504718831	-0.4245354749	 0.192858
H	-0.4708112463	 1.7288633498	-2.0668569542	 0.114979
H	-0.9659460172	 3.094379747	-1.0163022834	 0.099802
H	 2.3018123936	 1.4927382265	 0.0214647042	 0.09107
H	 2.1881144736	 3.7142539219	 1.5145115342	 0.105882
H	-0.0189441054	 3.5184298439	 2.8465943061	 0.104385
H	-1.7073244804	 2.3080400957	 1.1936676571	 0.114659
H	-0.8628615184	 1.0694087367	 2.1095335129	 0.124789
88.777	149.3711	183.9527	258.657	354.9743	446.2473	507.3559	524.2805	556.219	623.07	626.9629	665.5544	744.0868	782.6079	871.8395	920.3928	935.0068	961.1838	972.2361	977.5164	1012.32	1025.0372	1045.1083	1110.3919	1142.7553	1154.1827	1184.183	1228.8401	1267.748	1303.1388	1337.622	1359.8085	1368.2818	1482.6124	1518.8292	1679.304	2234.4427	3014.2501	3029.5565	3061.6738	3064.1937	3082.1002	3182.1784	3210.0012	3501.6713
C#CC12COC1C=CC2	C#C[C@]12CO[C@H]1C=CC2	
InChI=1S/C8H8O/c1-2-8-5-3-4-7(8)9-6-8/h1,3-4,7H,5-6H2	InChI=1S/C8H8O/c1-2-8-5-3-4-7(8)9-6-8/h1,3-4,7H,5-6H2/t7-,8-/m0/s1
