18
gdb 71760	3.37933	1.89655	1.57682	1.2311	73.5	-0.2271	0.0702	0.2973	879.3764	0.150503	-401.878514	-401.872258	-401.871314	-401.908625	27.195	
O	 0.1459600566	 1.4057049593	-0.1324571562	-0.483991
C	 0.0383191409	 0.0268148919	-0.0808039084	 0.426974
C	 0.4681517944	-0.8166596627	-1.2802574457	-0.290829
C	-0.3436191498	-1.9403534926	-0.5844109596	-0.057454
C	 0.3986325923	-2.2650396974	 0.7244444945	-0.051097
C	-0.730217682	-2.4542634953	 1.7595743331	-0.180633
N	-1.0434874326	-0.9935821085	 1.5856057318	-0.162113
C	 0.424411736	-0.7702319746	 1.2036339862	-0.093195
C	-1.2580846555	-0.8314349237	 0.1034880842	-0.0896
H	-0.2273201927	 1.7700621479	 0.6781101006	 0.289571
H	-0.0104226011	-0.4647107578	-2.1982119774	 0.108412
H	 1.5363995003	-0.9798533241	-1.4540443419	 0.095932
H	-0.7663595272	-2.7684216676	-1.1502947013	 0.070547
H	 1.2805078144	-2.904997509	 0.6698463048	 0.066413
H	-1.5490869838	-3.1446065394	 1.5296865333	 0.098899
H	-0.3692626586	-2.632361762	 2.7766706482	 0.106247
H	 1.1196018647	-0.4215008148	 1.9677767197	 0.073045
H	-2.2550629963	-0.6105871895	-0.273440396	 0.072874
260.99	287.5917	341.7472	359.3151	462.0642	498.3162	582.2687	699.8859	729.6915	782.4502	821.1207	842.4789	860.9426	885.3582	902.1899	919.6321	937.6368	959.5585	981.6981	1014.2467	1028.0692	1039.2468	1080.7688	1104.1206	1138.2033	1149.2415	1159.5055	1185.4047	1200.0186	1212.1505	1226.6786	1232.2998	1264.6513	1270.975	1312.7943	1347.759	1394.207	1499.0504	1505.4644	3040.4807	3049.2404	3098.3041	3102.507	3109.6954	3115.1733	3128.2737	3137.8163	3801.7438
OC12CC3C4CN(C14)C23	O[C@@]12C[C@H]3[C@@H]4CN([C@H]14)[C@@H]23	
InChI=1S/C7H9NO/c9-7-1-3-4-2-8(5(3)7)6(4)7/h3-6,9H,1-2H2	InChI=1S/C7H9NO/c9-7-1-3-4-2-8(5(3)7)6(4)7/h3-6,9H,1-2H2/t3-,4-,5+,6-,7+/m0/s1
