18
gdb 37586	3.5052	1.95813	1.94717	1.526	76.27	-0.2148	0.0121	0.227	811.1907	0.15297	-364.804012	-364.798545	-364.797601	-364.833376	24.849	
C	-0.0295784351	 1.4811434821	 0.0099076192	-0.172898
C	 1.468232316	 1.7322021342	-0.0027691283	-0.05208
C	 2.0364610587	 0.8101854053	 1.117449531	-0.086415
C	 3.4591485532	 0.5611591958	 0.6399996574	-0.087302
C	 3.4465541968	 0.5688139508	-0.6963199671	-0.087302
C	 2.0151488554	 0.8231439997	-1.1439891042	-0.086415
C	 1.1495075441	-0.408626525	-0.7529130869	-0.035313
C	 1.163473702	-0.4171173845	 0.7286662801	-0.035313
N	-0.0611184522	 0.0015421841	 0.0017286963	-0.137337
H	-0.5316879482	 1.859673928	 0.9065787532	 0.102751
H	-0.5484547979	 1.8698678165	-0.8727472605	 0.102751
H	 1.8322591822	 2.7586141019	-0.0003178086	 0.072119
H	 1.9165104396	 1.1498239221	 2.1471685617	 0.064107
H	 4.2961158789	 0.3426837499	 1.2905434035	 0.097785
H	 4.2710891816	 0.3578963908	-1.3649819105	 0.097785
H	 1.8758510779	 1.1745470517	-2.1673051285	 0.064106
H	 1.0836694851	-1.2940234901	-1.3731595178	 0.089485
H	 1.1092426618	-1.3095730532	 1.3398535099	 0.089485
357.4446	361.0304	455.0542	502.4301	597.0595	712.2896	713.1085	748.0215	789.8334	799.1339	838.8849	854.6896	889.5355	913.022	929.8359	930.8952	948.9487	963.7288	968.5407	986.2566	1012.0967	1036.3274	1054.5384	1087.5975	1120.6665	1163.4356	1190.9463	1202.9698	1216.3297	1248.0875	1249.6989	1267.9925	1289.0285	1295.5355	1315.3881	1346.4184	1370.3455	1497.4671	1642.1705	3043.4678	3088.7795	3102.8198	3103.7632	3133.6643	3182.5566	3193.6312	3202.6349	3228.1854
C1C2C3C=CC2C2C3N12	C1[C@H]2[C@@H]3C=C[C@H]2[C@H]2[C@@H]3N12	
InChI=1S/C8H9N/c1-2-5-6-3-9-7(4(1)6)8(5)9/h1-2,4-8H,3H2	InChI=1S/C8H9N/c1-2-5-6-3-9-7(4(1)6)8(5)9/h1-2,4-8H,3H2/t4-,5+,6-,7+,8-,9?
