16
gdb 66026	2.52899	1.28817	1.12873	4.087	75.31	-0.2812	-0.012	0.2692	1135.5046	0.122084	-400.702673	-400.693675	-400.692731	-400.736693	32.637	
C	-0.1896669545	 1.5650196929	 0.0183497787	-0.452488
C	-0.0680774124	 0.0378452519	 0.0033611009	 0.042914
C	 1.1926206108	-0.4800379265	-0.7543714922	-0.098187
O	 1.8619263146	-0.8113125552	 0.4818753362	-0.274936
C	 0.6747953677	-0.5801666164	 1.2512727333	-0.030145
C	 0.8965469831	 0.2865806763	 2.4081764741	 0.291946
N	 1.0497794013	 0.9776955681	 3.321550692	-0.324118
C	-1.3241377936	-0.6066961186	-0.3305485164	 0.28106
C	-2.3641860475	-1.1426714198	-0.6060157856	-0.44451
H	 0.7680619849	 2.0250780611	 0.2763042538	 0.142815
H	-0.495711158	 1.9199934807	-0.9695038817	 0.134101
H	-0.9363571834	 1.8895126677	 0.7471622804	 0.147546
H	 1.0163300863	-1.3659332331	-1.3727081653	 0.122181
H	 1.740961637	 0.2756392087	-1.3253121168	 0.12316
H	 0.2171318557	-1.5170448	 1.5907815277	 0.131501
H	-3.2844935819	-1.6138757876	-0.8502742991	 0.20716
50.9019	135.9769	138.7953	181.3186	233.9468	260.3014	331.914	357.6389	461.6073	509.0686	552.4292	572.8496	631.0064	640.2263	654.6871	821.6278	902.0074	942.2191	963.9655	976.1482	1028.399	1059.4027	1139.5394	1152.3978	1194.1142	1213.0024	1280.3838	1343.8046	1364.9359	1417.1196	1487.3941	1494.2888	1521.4056	2237.3611	2356.8614	3036.627	3042.3619	3048.3145	3096.7556	3125.5931	3131.3022	3498.632
CC1(COC1C#N)C#C	C[C@]1(CO[C@H]1C#N)C#C	
InChI=1S/C7H7NO/c1-3-7(2)5-9-6(7)4-8/h1,6H,5H2,2H3	InChI=1S/C7H7NO/c1-3-7(2)5-9-6(7)4-8/h1,6H,5H2,2H3/t6-,7+/m0/s1
