18
gdb 117059	4.35383	0.81821	0.69779	1.3278	71.73	-0.2619	-0.0432	0.2188	1622.8502	0.145344	-476.257489	-476.247221	-476.246277	-476.294209	34.656	
C	 0.0473014415	 1.480518257	 0.1319524381	-0.390412
C	 0.0110168999	-0.0307901557	 0.017121152	-0.036448
O	 0.6928342882	-0.5678594641	 1.1640866426	-0.22485
C	 0.7631737793	-1.8975489804	 1.239165285	 0.290739
N	 0.2705333304	-2.6799532052	 0.3705915717	-0.523987
C	 1.5099293583	-2.3085081616	 2.5021007856	 0.401985
O	 1.9686101307	-1.5502429978	 3.31215208	-0.343299
O	 1.5832340944	-3.6489835803	 2.5819762327	-0.239671
C	 2.2683529814	-4.1541800749	 3.7361946375	-0.244717
H	 1.0777694976	 1.8458367596	 0.1507292277	 0.132501
H	-0.4634272293	 1.9285325165	-0.7255605672	 0.121187
H	-0.4521014169	 1.8145495219	 1.0455683415	 0.132499
H	-1.0120373084	-0.4215730469	-0.0005422561	 0.122991
H	 0.5086044181	-0.390482943	-0.8899106031	 0.122961
H	 0.4465142382	-3.6457431189	 0.638913943	 0.243155
H	 3.3004631386	-3.7959179119	 3.7542630169	 0.147943
H	 1.7660524207	-3.8290682085	 4.6505050943	 0.147881
H	 2.2393528973	-5.2396019058	 3.646525188	 0.13954
32.277	81.0978	102.6594	122.4949	124.5615	168.2147	253.4316	254.2141	336.0103	356.2194	407.0259	517.3251	521.8204	760.6415	801.8794	820.1641	879.0646	885.2846	894.9732	1015.1869	1061.2294	1128.9292	1143.274	1180.0079	1182.0927	1210.213	1242.7596	1290.0533	1372.6395	1408.6699	1437.1828	1474.3111	1481.446	1484.7903	1495.2776	1496.3831	1518.4015	1716.7484	1834.5839	3044.8299	3047.4458	3055.3199	3081.8002	3121.8986	3127.2572	3131.7177	3166.1755	3528.704
CCOC(=N)C(=O)OC	CCO[C]([NH])C(=O)OC	
InChI=1S/C5H9NO3/c1-3-9-4(6)5(7)8-2/h6H,3H2,1-2H3	InChI=1S/C5H9NO3/c1-3-9-4(6)5(7)8-2/h6H,3H2,1-2H3
