21
gdb 57058	2.66708	1.16319	0.89572	1.362	84.44	-0.2582	0.0312	0.2895	1348.2141	0.180568	-387.042179	-387.032235	-387.03129	-387.076977	37.285	
C	-0.143740879	 1.5535817597	-0.0937124818	-0.401964
C	 0.0042400123	 0.0347399165	-0.0494551888	 0.001095
C	 1.2047937469	-0.5132474583	-0.8805930216	-0.225247
C	 2.0238286336	-0.661915221	 0.4302684964	-0.238512
C	 0.6962714036	-0.5527032621	 1.2265514909	 0.028174
C	 0.6746104013	 0.2505976476	 2.5293063812	-0.087914
O	-0.6586979968	 0.4691288583	 2.9916612345	-0.420525
C	 1.5064956025	-0.3905608306	 3.5534551005	 0.295304
C	 2.1596443935	-0.96242287	 4.3857368723	-0.432701
H	 0.8124374458	 2.063595389	 0.0719490235	 0.109501
H	-0.5110805941	 1.8692772143	-1.0760285648	 0.107453
H	-0.8496087662	 1.9030616279	 0.6653437715	 0.135795
H	-0.961867957	-0.4241449655	-0.2778470191	 0.067303
H	 0.9857598381	-1.4804318761	-1.3411005049	 0.098691
H	 1.6096247305	 0.1511094087	-1.6489010924	 0.094717
H	 2.6138681283	-1.5704207708	 0.5644162608	 0.102629
H	 2.6769540048	 0.1978876735	 0.6096127142	 0.103008
H	 0.3001387173	-1.5528617675	 1.4387627767	 0.067426
H	 1.0654566041	 1.2565722781	 2.3377895969	 0.115395
H	-1.0000950064	-0.3786255627	 3.2978342331	 0.282941
H	 2.7448290571	-1.4465671492	 5.1281596008	 0.197434
68.4029	101.4757	110.1403	186.3674	233.6321	243.3849	275.387	298.7514	347.0293	386.0095	476.3456	504.8048	583.5408	625.8354	669.9451	687.0435	779.7254	815.5857	885.0982	910.3646	923.249	955.9004	986.1421	1022.6725	1045.604	1085.2592	1107.0042	1148.3517	1169.5478	1217.8657	1234.0511	1258.566	1269.6631	1278.0788	1285.5829	1302.5605	1365.8319	1382.1134	1408.0014	1417.4989	1480.8338	1498.764	1498.9844	1506.5781	2228.6471	3025.233	3028.8874	3049.3356	3050.6303	3056.0339	3060.7518	3089.855	3099.4585	3110.5396	3117.4218	3502.9016	3802.8151
CC1CCC1C(O)C#C	C[C@H]1CC[C@H]1[C@@H](O)C#C	
InChI=1S/C8H12O/c1-3-8(9)7-5-4-6(7)2/h1,6-9H,4-5H2,2H3	InChI=1S/C8H12O/c1-3-8(9)7-5-4-6(7)2/h1,6-9H,4-5H2,2H3/t6-,7+,8-/m0/s1
