15
gdb 18819	4.21764	2.23079	1.85447	2.4581	63.47	-0.2347	-0.0177	0.2169	728.7939	0.121007	-362.639333	-362.633556	-362.632612	-362.669087	23.358	
O	 0.0135091453	 0.0076802294	 0.1387932204	-0.319647
C	-0.0018927868	 1.2024290291	 0.0128534786	 0.415166
C	-1.2465754891	 2.1119753018	-0.0563035605	-0.281042
N	-0.7747498136	 3.4354961585	-0.4741514568	-0.098043
C	 0.2663494096	 4.0828130833	 0.3398688614	-0.034693
C	 1.0752953027	 3.0915874814	 1.1848884577	-0.259121
C	 1.1737510599	 2.1616107068	-0.0829679981	-0.169417
C	 0.6181690152	 3.3507421828	-0.9152001089	-0.061488
H	-1.9512225805	 1.726234992	-0.7999152852	 0.139821
H	-1.7647730543	 2.1402503904	 0.9076751656	 0.13581
H	 0.1542548963	 5.1448435398	 0.5246315862	 0.10054
H	 2.057790995	 3.4981379663	 1.4337495772	 0.123494
H	 0.6205963782	 2.6771332293	 2.0908375308	 0.110692
H	 2.133877245	 1.7042036101	-0.3043983693	 0.095369
H	 0.9141131072	 3.684728769	-1.9017750991	 0.102558
132.4697	302.776	401.7475	449.9219	530.3474	623.6622	709.3728	734.2203	762.3105	807.4146	839.4059	876.4741	932.4809	950.4982	961.5739	983.402	1028.0313	1049.2555	1070.4939	1116.9803	1154.9622	1182.2147	1209.1214	1224.5122	1232.5429	1263.6152	1281.6735	1290.1506	1357.0391	1460.2512	1494.0868	1856.6466	3046.3901	3054.7485	3096.4376	3113.362	3161.4491	3178.4712	3195.4471
O=C1CN2C3CC1C23	O=C1CN2[C@H]3C[C@@H]1[C@@H]23	
InChI=1S/C6H7NO/c8-5-2-7-4-1-3(5)6(4)7/h3-4,6H,1-2H2	InChI=1S/C6H7NO/c8-5-2-7-4-1-3(5)6(4)7/h3-4,6H,1-2H2/t3-,4-,6+,7?/m0/s1
