19
gdb 81926	2.21208	1.94241	1.16437	4.1003	76.34	-0.2302	0.022	0.2521	1078.1982	0.160568	-419.226786	-419.218306	-419.217362	-419.25966	32.108	
C	-0.103255111	 1.5760517426	-0.0358795028	-0.400157
C	 0.0227143636	 0.0517592043	-0.0014717584	 0.028832
C	 0.7776785253	-0.5222872968	-1.1990882332	-0.057098
N	 2.1686079312	-0.0455508309	-1.2691568671	-0.3312
C	 1.8666432747	-1.3825790727	-0.6885294938	-0.179358
C	 1.7988529024	-1.3331283289	 0.8186108215	 0.459435
O	 2.4756633241	-1.96301434	 1.6056404492	-0.404166
N	 0.7982922339	-0.4467778603	 1.1362743041	-0.086164
C	 0.4515929439	-0.1522881842	 2.5067598461	-0.34903
H	 0.8874381744	 2.0294742645	-0.1138923885	 0.146972
H	-0.6991905471	 1.8807280988	-0.9022287569	 0.116097
H	-0.6029451358	 1.9568094911	 0.8593947314	 0.118779
H	-0.9854559386	-0.3921467376	 0.0280287722	 0.07877
H	 0.2338917039	-0.7409039052	-2.1108343373	 0.098348
H	 2.5173884747	-0.181055801	-2.2162586417	 0.238004
H	 2.2274076914	-2.2825085623	-1.1697433486	 0.111791
H	 1.1032757558	-0.7547928689	 3.1420949424	 0.165393
H	 0.5969160088	 0.9068779095	 2.7479363212	 0.127477
H	-0.5943976357	-0.4139346619	 2.7138496802	 0.117272
109.3825	143.0565	170.7015	219.1011	253.0607	278.0341	317.5234	390.5356	478.2661	509.4509	621.5573	677.2414	734.0671	771.5927	824.7077	873.4124	898.9694	918.9817	966.6225	1036.5713	1043.3123	1093.7023	1111.4126	1120.6174	1147.4137	1165.8002	1169.3083	1260.4181	1287.7483	1305.2167	1357.1257	1371.8914	1399.5947	1411.781	1423.9969	1447.1292	1488.5074	1496.4884	1502.4617	1522.598	1809.2524	2970.4601	3012.6934	3044.314	3065.6716	3110.115	3137.4949	3140.4207	3178.45	3205.4557	3487.4131
CC1C2NC2C(=O)N1C	C[C@H]1[C@H]2N[C@H]2C(=O)N1C	
InChI=1S/C6H10N2O/c1-3-4-5(7-4)6(9)8(3)2/h3-5,7H,1-2H3	InChI=1S/C6H10N2O/c1-3-4-5(7-4)6(9)8(3)2/h3-5,7H,1-2H3/t3-,4+,5+/m0/s1
