17
gdb 34239	3.32836	1.6249	1.40661	4.9686	76.64	-0.2486	0.0126	0.2613	946.7189	0.13933	-380.825261	-380.818736	-380.817792	-380.856028	26.866	
N	 0.0307105363	-1.1559160625	 0.0660013147	-0.345962
C	-0.0065816877	-0.0003658936	 0.0381111371	 0.203101
C	-0.0966396639	 1.4354667277	-0.0064042104	 0.241861
C	-1.1222813861	 2.2580952871	 0.7817737385	-0.288977
C	-0.6501670551	 3.3942093733	-0.160576878	-0.087466
C	 0.8030909798	 3.5388559221	 0.3327155955	-0.159254
N	 1.2952137156	 2.1733832911	-0.0384661775	-0.169266
C	 1.1149213926	 2.2547363482	-1.5441616807	-0.200863
C	-0.3837027691	 2.2949548868	-1.2837191434	-0.073558
H	-2.1289418832	 1.9003367622	 0.5520031041	 0.123592
H	-0.9969336902	 2.3803968646	 1.8605293796	 0.117547
H	-1.2564937514	 4.2784513993	-0.3441709467	 0.084028
H	 1.3988376061	 4.2970413493	-0.1798638182	 0.111587
H	 0.8742780161	 3.7044252007	 1.4103086927	 0.111466
H	 1.6212567451	 3.0993046329	-2.0188458828	 0.108633
H	 1.4348573027	 1.3181971218	-2.0075736123	 0.131259
H	-1.1754269575	 2.0694341991	-1.9971415724	 0.092271
147.6223	162.7545	374.8241	429.666	487.4987	534.1241	538.6352	571.2169	668.699	693.4742	787.4842	833.4698	868.473	904.339	910.262	937.4906	949.4774	982.5846	995.0033	1025.8631	1060.7472	1100.5329	1131.4959	1135.6478	1154.1284	1195.5905	1215.2518	1237.249	1241.6924	1267.6419	1289.6609	1292.2814	1322.0075	1488.7672	1506.9775	1532.7995	2352.6091	3059.96	3063.3351	3070.9806	3115.8511	3121.9263	3126.7564	3127.1206	3145.0192
N#CC12CC3CN1CC23	N#C[C@@]12C[C@H]3CN1C[C@@H]23	
InChI=1S/C7H8N2/c8-4-7-1-5-2-9(7)3-6(5)7/h5-6H,1-3H2	InChI=1S/C7H8N2/c8-4-7-1-5-2-9(7)3-6(5)7/h5-6H,1-3H2/t5-,6+,7+/m0/s1
