15
gdb 54896	2.36791	1.0865	0.86743	1.3451	66.15	-0.1917	0.0404	0.2321	1315.5877	0.11171	-454.032984	-454.02317	-454.022225	-454.071699	32.05	
O	-0.2312759852	 0.3254674766	-1.3566221123	-0.283832
C	 0.5687212092	 0.8961064318	-0.7390217913	 0.591016
O	 1.394450468	 1.4562422741	-0.1367401653	-0.308822
C	-1.4336839396	 1.8067116702	 1.7505008936	-0.205023
C	-2.7913259	 1.4388519428	 1.5194073001	-0.135002
C	-3.4154902416	 2.5115521487	 0.9298787718	-0.097735
N	-2.4806983837	 3.5084708636	 0.7875752341	-0.236476
C	-1.2685830755	 3.0965996175	 1.2840902723	 0.250064
N	-0.1625714556	 3.9722469478	 1.2016987144	-0.618385
H	-0.0546909683	 4.5341269258	 2.0413073227	 0.241624
H	 0.6946897595	 3.4480057118	 1.0695027357	 0.255408
H	-0.6708185984	 1.2128997024	 2.2311847255	 0.084516
H	-3.2557045315	 0.4969745891	 1.7682819613	 0.090947
H	-4.4324081858	 2.6504669363	 0.6009083631	 0.113135
H	-2.6149630713	 4.3943581917	 0.3312980144	 0.258565
18.5474	23.6219	59.2683	67.1281	98.7492	152.4318	271.9207	394.4916	512.9412	634.6688	647.3256	670.4438	680.4108	686.979	705.2007	787.3454	828.9937	848.3744	894.3072	987.3415	1051.3288	1107.1463	1143.4436	1189.3083	1280.118	1297.9403	1377.0403	1432.017	1464.5499	1503.1968	1609.8696	1659.1133	2431.8005	3238.7945	3252.0536	3272.8252	3490.9916	3584.6897	3678.3327
[O-]C(=O)C1C=CNC1=[NH2+]	O=C=O.c1cc[nH]c1N	
InChI=1S/C5H6N2O2/c6-4-3(5(8)9)1-2-7-4/h1-3H,(H2,6,7)(H,8,9)	InChI=1S/C4H6N2.CO2/c5-4-2-1-3-6-4;2-1-3/h1-3,6H,5H2;
