17
gdb 16009	4.22207	1.83381	1.48983	2.0102	69.99	-0.2316	0.0262	0.2578	868.879	0.144458	-363.866325	-363.859583	-363.858639	-363.897117	26.548	
C	 0.0065699483	 1.5102990417	-0.0013918526	-0.312906
C	 1.3098582033	 0.7539957599	-0.0369653499	-0.303965
C	-0.0045804879	 0.002677299	 0.0220235937	 0.384322
C	-0.4136141283	-0.732334741	 1.284555871	-0.302901
C	-0.1411192703	-2.2192151177	 1.0813038123	-0.074307
O	-0.7884581482	-2.6970716676	-0.1075076825	-0.226422
C	-0.7737380136	-1.8424532057	-1.1602361304	 0.109525
N	-0.4114232513	-0.6296320252	-1.2029958988	-0.310313
H	-0.2622446253	 2.0343894406	 0.909777123	 0.108722
H	-0.3286306303	 1.9784944832	-0.919124184	 0.124578
H	 1.8501232673	 0.7213147017	-0.975257297	 0.123525
H	 1.9327624587	 0.7526301292	 0.851825292	 0.107903
H	 0.1278170776	-0.3667033914	 2.1628426693	 0.103
H	-1.4847472628	-0.5870203661	 1.4723248886	 0.114402
H	 0.9366609041	-2.4041873346	 0.9867676012	 0.114856
H	-0.5290083627	-2.8322226772	 1.8978983403	 0.11679
H	-1.1421801288	-2.3451923488	-2.0519228761	 0.123193
104.5219	216.4177	300.4386	327.5927	366.8725	437.1787	531.4335	602.7238	693.0756	779.1476	795.8038	868.4245	889.1406	898.7051	930.3078	963.0784	972.7565	1007.6463	1033.2016	1059.3108	1075.2532	1115.7364	1145.9886	1193.2376	1215.5101	1270.7778	1299.1028	1332.4562	1376.7992	1400.1033	1418.4081	1455.0414	1479.4767	1493.7281	1507.9017	1719.3732	3024.245	3032.8148	3083.2483	3104.7961	3131.6978	3136.309	3163.7368	3221.2332	3234.8097
C1CC11CCOC=N1	C1CC21CCOC=N2	
InChI=1S/C6H9NO/c1-2-6(1)3-4-8-5-7-6/h5H,1-4H2	InChI=1S/C6H9NO/c1-2-6(1)3-4-8-5-7-6/h5H,1-4H2
