17
gdb 29880	3.12939	1.46117	1.00866	7.4584	80.96	-0.2199	-0.0281	0.1918	1152.9277	0.137508	-414.227894	-414.219449	-414.218505	-414.261447	30.751	
C	-0.3075328786	 1.4473471079	-0.0132863081	-0.348331
N	 0.0047806504	 0.0264227899	 0.0175276281	-0.109479
C	 0.2202669755	-0.6735007734	-1.1521490995	 0.088293
N	 0.4986862517	-1.9152551659	-1.2257716167	-0.311416
C	 0.5959520322	-2.6409568455	-0.0075816423	 0.35334
N	 0.8693395962	-3.8858754296	 0.0230356668	-0.510722
N	 0.3832896572	-1.9632966736	 1.2081010211	-0.288735
C	 0.1072619606	-0.7127762881	 1.1982182241	 0.379919
C	-0.1202299776	 0.0134743917	 2.4928194875	-0.492822
H	 0.4473254935	 2.0364599524	 0.5160337048	 0.149608
H	-0.3275826449	 1.7751883241	-1.0545465337	 0.148659
H	-1.2869279551	 1.6532654531	 0.4287227012	 0.149626
H	 0.1352980689	-0.0762090773	-2.0604004132	 0.125828
H	 0.989548578	-4.2043882377	-0.9398196174	 0.216283
H	-0.0032617585	-0.7026045061	 3.3046080023	 0.169166
H	 0.5970724226	 0.8305466023	 2.6274362478	 0.140372
H	-1.124479872	 0.4489230159	 2.5389563474	 0.140413
52.1658	107.2341	178.1252	199.8741	238.8866	325.3304	357.3667	446.0088	492.7843	536.9262	584.8897	599.4398	743.5728	793.2935	798.5993	890.4592	905.6828	971.1469	1003.7427	1058.0704	1066.9633	1118.7446	1149.8439	1216.406	1275.3403	1313.5839	1391.97	1412.012	1426.7052	1467.6067	1475.7517	1481.2338	1496.3231	1517.6598	1634.9432	1702.4326	1744.9942	3037.4037	3042.5049	3093.9304	3103.3941	3124.766	3133.5833	3170.5168	3476.6814
CN1C=NC(=N)N=C1C	CN1C=NC(=N[C@@H]1C)[NH]	
InChI=1S/C5H8N4/c1-4-8-5(6)7-3-9(4)2/h3,6H,1-2H3	InChI=1S/C5H9N4/c1-4-8-5(6)7-3-9(4)2/h3-4,6H,1-2H3/t4-/m0/s1
