23
gdb 110142	2.18547	1.13621	0.88013	1.0625	83.34	-0.2352	0.0719	0.3071	1447.1172	0.203828	-425.396119	-425.385258	-425.384313	-425.432365	38.964	
C	 0.1814988267	 1.5978449802	-0.1170943793	-0.376511
C	-0.1991141836	 0.1248381025	 0.0761146789	-0.19165
C	 0.5333113773	-0.4963457099	 1.2517531112	-0.0802
C	 0.7382558869	-1.9960094196	 1.4265429743	-0.072166
C	 0.2237242803	-2.9961323136	 0.4266056558	-0.107113
O	 0.9713896105	-4.2026691023	 0.5940913235	-0.417422
C	 1.904907965	-1.0847530556	 1.0905302959	 0.110672
O	 2.4323384421	-1.0904913723	-0.1976116519	-0.243183
C	 3.4441655712	-2.0716147496	-0.371906902	-0.247891
H	 1.2502663754	 1.6920626629	-0.3314085509	 0.131247
H	-0.3731329538	 2.0437023048	-0.9487979702	 0.106539
H	-0.0349474609	 2.1867887394	 0.7814689919	 0.108143
H	-1.2815394072	 0.0392576885	 0.2368842133	 0.090732
H	 0.0298606223	-0.4227666616	-0.8413566508	 0.1111
H	 0.3787680775	 0.0450187977	 2.1830238198	 0.082198
H	 0.7010282535	-2.3651339551	 2.4482855117	 0.087012
H	-0.8473563149	-3.1819914688	 0.6028573676	 0.089737
H	 0.333265716	-2.6105726047	-0.5943356502	 0.100523
H	 0.6160601385	-4.8564719267	-0.0158796284	 0.283992
H	 2.6474350756	-0.9053873656	 1.8702409796	 0.077792
H	 4.2998861552	-1.8800542344	 0.2932988265	 0.10262
H	 3.0584066448	-3.0786011383	-0.1729047051	 0.135641
H	 3.7827082116	-1.998766988	-1.4084651211	 0.118189
52.065	105.859	118.9781	141.1452	148.3717	201.0889	240.5506	243.6837	276.7784	294.8992	315.1522	365.702	557.4492	582.9625	603.5967	748.76	807.6077	814.0959	858.6638	968.3491	985.9184	1010.5405	1031.8655	1057.1502	1070.4231	1102.3324	1115.5062	1145.289	1168.4444	1176.4106	1197.7793	1232.5603	1250.1879	1264.8036	1282.4153	1298.6328	1336.9511	1367.3493	1391.3019	1407.5081	1445.9506	1468.7898	1480.5216	1487.938	1492.984	1498.8069	1506.7642	1516.6654	1519.5559	2978.2712	2987.9525	3024.4172	3031.4202	3041.2473	3063.3292	3078.8121	3085.1568	3102.5838	3113.2283	3118.3793	3123.6925	3142.674	3821.8884
CCC1C(CO)C1OC	CC[C@H]1[C@@H](CO)[C@H]1OC	
InChI=1S/C7H14O2/c1-3-5-6(4-8)7(5)9-2/h5-8H,3-4H2,1-2H3	InChI=1S/C7H14O2/c1-3-5-6(4-8)7(5)9-2/h5-8H,3-4H2,1-2H3/t5-,6+,7-/m0/s1
