23
gdb 99780	1.83988	1.37125	0.88454	1.3506	81.5	-0.261	0.0722	0.3331	1395.3226	0.203448	-425.405699	-425.394985	-425.394041	-425.441853	39.136	
C	 1.077687888	-1.9782547032	-0.8864518431	-0.385328
C	 0.3213089937	-0.8752603992	-0.134873656	-0.183655
C	 0.7444942873	-0.6515024511	 1.3353682151	-0.041059
C	 0.4947380045	-1.895635369	 2.2219569061	 0.126581
C	 0.7215541836	-1.6328813747	 3.7107833388	-0.407142
O	-0.8078854051	-2.4346957569	 1.9982482097	-0.435003
C	 2.1849001143	-0.1877240508	 1.4305983269	 0.085461
C	 2.5633749175	 1.2205407188	 1.2563127869	-0.18411
O	 2.5466365888	 0.6250704618	 2.5543154359	-0.240185
H	 0.9216354255	-2.9578714912	-0.4255295967	 0.131626
H	 0.7224331325	-2.0442752776	-1.9194284106	 0.113712
H	 2.1553634045	-1.7890056243	-0.9251482913	 0.112062
H	 0.4396226946	 0.0743261298	-0.6710572462	 0.088142
H	-0.7457225177	-1.1138138905	-0.1427837749	 0.105713
H	 0.1278847632	 0.1666849841	 1.7368385397	 0.064007
H	 1.172757331	-2.6949164159	 1.8974703939	 0.088366
H	 0.0484291137	-0.8436258232	 4.0692732833	 0.105849
H	 0.5172059264	-2.5433512971	 4.2809591883	 0.117079
H	 1.7421123542	-1.3033805524	 3.9174950876	 0.143081
H	-1.4439963804	-1.8279400333	 2.393454853	 0.275663
H	 2.9393547901	-0.9372537459	 1.1852939868	 0.093262
H	 3.548915774	 1.4781750337	 0.8709622697	 0.113609
H	 1.7873226959	 1.9635905279	 1.0748055472	 0.112267
48.7953	75.5522	96.3363	167.5006	207.7004	223.1772	248.3196	292.3765	297.1739	325.1631	356.9295	407.5442	473.2866	495.1496	580.8138	760.2455	826.3402	857.8216	874.1503	893.8242	942.7339	967.2095	1018.6198	1027.0626	1069.2397	1088.6771	1092.5661	1131.6119	1155.5169	1166.3135	1176.2647	1192.0741	1246.4488	1287.2888	1298.8222	1314.7319	1326.3255	1375.1467	1393.1694	1411.2045	1418.3337	1421.8273	1450.8397	1480.1506	1490.0324	1495.1956	1504.4171	1509.1292	1529.7022	2993.5157	3026.727	3033.2881	3037.0024	3041.5106	3080.2531	3084.7952	3095.3307	3101.1497	3106.1807	3116.0701	3135.1552	3166.1616	3797.5161
CCC(C(C)O)C1CO1	CC[C@@H]([C@@H](C)O)[C@H]1CO1	
InChI=1S/C7H14O2/c1-3-6(5(2)8)7-4-9-7/h5-8H,3-4H2,1-2H3	InChI=1S/C7H14O2/c1-3-6(5(2)8)7-4-9-7/h5-8H,3-4H2,1-2H3/t5-,6+,7-/m1/s1
