18
gdb 64299	2.37502	1.51346	1.16359	3.0938	80.39	-0.254	-0.0491	0.2048	1113.5253	0.146219	-401.981547	-401.972464	-401.971519	-402.015562	33.325	
C	 0.1212554628	 1.482169085	-0.1539608346	-0.413793
C	-0.0705432936	-0.0270809532	 0.0351141308	 0.258049
C	-1.5554158785	-0.3935455044	 0.1409993647	-0.413804
O	 0.5025944878	-0.7166162498	-1.0921509018	-0.303186
C	 1.5491991863	-1.5902079874	-0.6985349938	-0.126704
C	 1.6498455673	-1.4463234974	 0.7883573073	-0.21521
C	 0.7404888292	-0.5670312253	 1.2123956601	 0.182496
C	 0.5129240782	-0.1535566201	 2.5498777856	 0.230099
N	 0.2949837681	 0.2110721792	 3.6278698384	-0.342232
H	 1.1826143692	 1.7248679816	-0.2514671388	 0.121538
H	-0.3941842173	 1.8076040791	-1.0617986565	 0.129445
H	-0.287563158	 2.0369467018	 0.6960032209	 0.133177
H	-2.0784212482	-0.075595109	-0.7651633568	 0.129428
H	-1.6769908273	-1.4743085761	 0.2508299127	 0.121542
H	-2.0185759684	 0.0995465584	 1.0010559332	 0.133185
H	 1.3184582374	-2.6255745321	-0.995924248	 0.120795
H	 2.4897243204	-1.3151247499	-1.2019303723	 0.120785
H	 2.3595448248	-1.9839657803	 1.403274929	 0.13439
48.8798	136.4134	137.2647	209.0382	244.9158	250.6052	331.3051	363.77	367.7908	462.0303	524.0197	565.9758	660.0407	678.0653	771.9447	849.6421	850.2945	928.0166	947.0099	972.267	1009.2605	1041.3119	1090.9398	1138.1272	1183.308	1194.2847	1215.1492	1249.4783	1310.9047	1376.0333	1393.7098	1412.7985	1474.8848	1480.2828	1494.448	1502.3291	1512.9279	1690.7335	2337.9801	2975.6398	2991.2585	3040.9624	3045.6135	3117.4361	3123.6246	3123.7013	3126.2376	3229.9647
CC1(C)OCC=C1C#N	CC1(C)OCC=C1C#N	
InChI=1S/C7H9NO/c1-7(2)6(5-8)3-4-9-7/h3H,4H2,1-2H3	InChI=1S/C7H9NO/c1-7(2)6(5-8)3-4-9-7/h3H,4H2,1-2H3
