18
gdb 127078	2.61428	1.50618	1.00775	4.5956	76.55	-0.1895	0.0193	0.2087	1172.7183	0.148953	-431.42659	-431.417509	-431.416565	-431.460354	33.321	
C	 0.3750678408	 1.0405596443	-0.4935483441	-0.355055
N	 0.0319675181	-0.1236068691	 0.3221161312	-0.168128
C	 0.4179570373	-0.0175630439	 1.7159655953	-0.347556
C	-1.2038146667	-0.6971497774	 0.0576698309	 0.378841
C	-1.8169000184	-1.0742328183	-1.130439026	 0.205643
N	-1.3499307922	-0.8989346287	-2.4474829577	-0.604843
N	-3.0248562312	-1.6211070774	-0.8430917874	-0.242066
N	-3.2181392279	-1.6255319042	 0.4471601024	-0.150777
N	-2.1153924544	-1.0675697776	 0.9989762646	-0.259026
H	 1.4559088084	 1.2046268998	-0.4464458327	 0.120041
H	 0.0855044008	 0.855362313	-1.5297116816	 0.167657
H	-0.1325164798	 1.956296324	-0.1494770992	 0.111111
H	-0.1798793615	 0.7192121815	 2.2829022126	 0.108178
H	 0.3307943841	-0.9923679602	 2.2065423606	 0.131455
H	 1.4647808285	 0.2926058554	 1.7726278892	 0.135265
H	-0.5452487131	-1.4865642796	-2.6448324252	 0.245009
H	-2.0891445019	-1.1547529281	-3.0937443455	 0.250926
H	-2.0606833608	-0.9725468234	 1.9990659324	 0.273325
57.6151	159.897	193.2596	210.004	250.336	258.876	292.9647	318.3293	372.6717	409.5973	500.8616	520.7958	614.2779	698.7738	734.0499	738.2498	872.7662	963.5412	1003.8316	1068.8583	1084.6087	1127.4274	1134.2554	1178.316	1204.5833	1212.5158	1282.9364	1326.3896	1368.6644	1397.7494	1449.3758	1474.6943	1488.3943	1501.1216	1504.7783	1518.3817	1538.0542	1640.253	1661.8787	2940.6165	2975.095	3065.1308	3074.6891	3112.6563	3134.5755	3492.5305	3582.2368	3671.3438
CN(C)C1=C(N)N=NN1	CN(C)c1c(N)nn[nH]1	
InChI=1S/C4H9N5/c1-9(2)4-3(5)6-8-7-4/h1-2H3,(H3,5,6,7,8)	InChI=1S/C4H9N5/c1-9(2)4-3(5)6-8-7-4/h1-2H3,(H3,5,6,7,8)
