17
gdb 90427	2.2574	1.70627	1.52823	2.9465	68.08	-0.2373	-0.0366	0.2007	962.4441	0.135673	-458.938694	-458.930714	-458.92977	-458.971147	30.875	
O	-0.2131675708	 1.2153408881	 1.1362488147	-0.425296
C	-0.0461553657	 0.1027646056	 0.3048835341	 0.130089
C	 0.4772775867	-1.1983790475	 0.9816519403	-0.266931
C	-0.9030764454	-1.8527772543	 0.7999358474	-0.043504
C	-1.9892628943	-1.4147699997	 1.8326896269	-0.044852
O	-1.4504022738	-0.7814798676	 2.9876994278	-0.420293
C	-2.5362227319	-0.4156249504	 0.7714049878	 0.410489
O	-3.5334300586	 0.2458639645	 0.7250281705	-0.305195
C	-1.366083445	-0.6780056209	-0.1534712124	-0.220996
H	-0.5354427085	 0.8913034635	 1.989778518	 0.286507
H	 0.535819872	 0.4421763232	-0.5542604488	 0.100843
H	 1.244553262	-1.6931345381	 0.3805964049	 0.107706
H	 0.8456377309	-1.0859878429	 2.0033795254	 0.118781
H	-0.9572356828	-2.9015098498	 0.5115261369	 0.080594
H	-2.6968393031	-2.2084846898	 2.1061908967	 0.098232
H	-2.1897780158	-0.419580394	 3.4901354365	 0.304071
H	-1.5324986559	-0.7463474799	-1.2281900468	 0.089755
88.7441	136.0858	196.626	230.1584	354.3874	375.2912	409.7343	489.8275	509.8604	571.6207	583.0673	672.0388	755.0713	802.5414	829.3296	852.6165	874.361	962.0788	994.9176	1032.5085	1052.2561	1080.8161	1097.5986	1116.9449	1135.6322	1177.0461	1195.8931	1216.5544	1267.8338	1279.9335	1282.9633	1314.5097	1338.8468	1387.4661	1464.6694	1473.9762	1881.9106	3020.9546	3065.1646	3089.1081	3116.9378	3122.2691	3127.9316	3722.9503	3802.3424
OC1CC2C(O)C(=O)C12	O[C@H]1C[C@H]2[C@@H](O)C(=O)[C@@H]12	
InChI=1S/C6H8O3/c7-3-1-2-4(3)6(9)5(2)8/h2-5,7-8H,1H2	InChI=1S/C6H8O3/c7-3-1-2-4(3)6(9)5(2)8/h2-5,7-8H,1H2/t2-,3+,4-,5-/m1/s1
