13
gdb 49129	3.40545	1.21747	0.90184	2.4425	69.39	-0.2538	-0.1255	0.1283	1171.2716	0.087545	-456.616432	-456.608529	-456.607584	-456.649971	27.653	
O	-0.1288954213	-0.0146795899	 0.0029801533	-0.219817
C	-0.0306024664	 1.1847012066	 0.0081189349	 0.091512
C	 1.2519054976	 1.9335645997	 0.0005107236	 0.108995
C	 1.3358027495	 3.2775696481	 0.0108669665	-0.254834
C	 2.7564837451	 3.7395924523	 0.0008921397	 0.394766
O	 3.116729462	 4.8905157979	 0.0060154509	-0.295575
C	 3.6306587815	 2.4909119295	-0.019106299	-0.452122
C	 2.6360445593	 1.3264792699	-0.0196616024	 0.321216
O	 2.9050343356	 0.1558787464	-0.0323848146	-0.273566
H	-0.9274028604	 1.8438156812	 0.0197698629	 0.088968
H	 0.5070470838	 3.9775470779	 0.0252808663	 0.148795
H	 4.2716016159	 2.4647410994	-0.9058107573	 0.170823
H	 4.2889068078	 2.4490551011	 0.8542323451	 0.170838
51.8389	82.8161	174.3921	179.174	325.4347	364.7942	430.6291	493.8777	530.0352	577.5038	660.9851	716.4967	756.9047	847.6841	890.2366	974.2123	1026.6828	1039.4542	1135.8695	1164.0356	1217.1983	1238.5105	1325.1291	1413.3682	1427.5467	1643.3917	1796.3151	1821.9266	1858.6044	2881.1059	3068.4114	3110.6052	3202.5199
O=CC1=CC(=O)CC1=O	O=CC1=CC(=O)CC1=O	
InChI=1S/C6H4O3/c7-3-4-1-5(8)2-6(4)9/h1,3H,2H2	InChI=1S/C6H4O3/c7-3-4-1-5(8)2-6(4)9/h1,3H,2H2
