21
gdb 75189	4.95118	0.76563	0.69336	2.9703	85.95	-0.2335	-0.0188	0.2147	1637.6543	0.181338	-387.123932	-387.114407	-387.113463	-387.159346	34.532	
C	-0.7190822191	 1.5214169043	 0.2206469686	-0.491602
C	-0.1697542306	 0.1508335265	-0.0180996468	 0.336621
C	-0.2780525952	-0.587389682	-1.1249485686	-0.164939
C	 0.4544083647	-1.901709527	-1.0246217302	-0.262977
C	 0.7647316986	-2.0150238313	 0.4944530333	 0.018751
C	 2.0913303062	-2.7168360835	 0.824831063	-0.296519
C	 2.0822777591	-4.1715972297	 0.4162882978	 0.166988
O	 2.8741839746	-4.6910028499	-0.327246259	-0.242624
C	 0.667200068	-0.5614773154	 1.0256688142	-0.323198
H	 0.0837916465	 2.2374555457	 0.4397077423	 0.124791
H	-1.2746309604	 1.8904516883	-0.6457776599	 0.123797
H	-1.3908217639	 1.5359533814	 1.088597383	 0.123569
H	-0.7968684649	-0.2746464964	-2.0253690336	 0.085204
H	-0.1290095189	-2.7536287713	-1.3934759973	 0.104879
H	 1.3783637778	-1.8863189731	-1.6219328997	 0.112859
H	-0.0501674636	-2.587672863	 0.9556464268	 0.080917
H	 2.9379649655	-2.2203970847	 0.3400391229	 0.118169
H	 2.2524866945	-2.6851699001	 1.9127050367	 0.115448
H	 1.2486709304	-4.7637110465	 0.8658662085	 0.067552
H	 1.65969992	-0.0915017662	 1.1036282624	 0.102811
H	 0.2297149205	-0.5150792363	 2.0306898656	 0.099503
44.9639	59.7338	103.3015	179.0571	191.6901	242.4249	275.0336	378.1523	400.6483	446.4471	509.6701	576.8906	654.9399	788.2305	823.8514	868.6154	879.8343	921.2578	941.4194	972.2019	1017.3465	1034.1824	1041.04	1063.8536	1105.1263	1117.966	1155.1776	1184.2765	1197.8784	1251.0442	1275.3413	1290.2402	1317.318	1331.4085	1358.7967	1378.8072	1414.4924	1429.2194	1463.6325	1479.1107	1485.0277	1489.4946	1495.9805	1725.2001	1834.7302	2840.1867	2990.7528	2998.249	3007.555	3014.6454	3015.7374	3042.2233	3050.6728	3059.5848	3090.3996	3109.4707	3183.7615
CC1=CCC(CC=O)C1	CC1=CC[C@@H](CC=O)C1	
InChI=1S/C8H12O/c1-7-2-3-8(6-7)4-5-9/h2,5,8H,3-4,6H2,1H3	InChI=1S/C8H12O/c1-7-2-3-8(6-7)4-5-9/h2,5,8H,3-4,6H2,1H3/t8-/m0/s1
