19
gdb 94008	3.33303	1.11712	0.94756	3.082	72.67	-0.2478	-0.0242	0.2237	1261.9875	0.157706	-460.172906	-460.163452	-460.162508	-460.208174	33.743	
C	-0.5289220951	 1.492523954	-0.0179308648	-0.432321
C	 0.1869381714	 0.1521227506	-0.0465115202	 0.145521
O	 1.2069487362	 0.1934890625	-1.0395330531	-0.271936
C	 2.2796679057	-0.6697915021	-0.6762730212	-0.085653
C	 1.9314090528	-1.274406527	 0.7056993411	-0.126093
C	 3.142749134	-1.4768843575	 1.5918698359	 0.150239
O	 3.4515189766	-2.5360738631	 2.0755888833	-0.256696
C	 0.9136566068	-0.2525702015	 1.2505112501	 0.066882
O	 1.6424792591	 0.8148135467	 1.8370045233	-0.432695
H	 0.1721400357	 2.2944523691	 0.2284728718	 0.127765
H	-0.9551819985	 1.709579806	-1.0003869416	 0.138416
H	-1.3463807202	 1.4833361596	 0.7112708493	 0.112874
H	-0.5391464335	-0.6452247432	-0.2847210039	 0.067614
H	 2.4058246005	-1.4551459954	-1.4305952592	 0.110966
H	 3.2062288815	-0.0816771666	-0.6374742319	 0.110684
H	 1.4366909455	-2.2421890787	 0.5933438755	 0.100997
H	 3.748513395	-0.5632218768	 1.7586809629	 0.10059
H	 0.2281671066	-0.7097711094	 1.9765708347	 0.079781
H	 1.0171503001	 1.4630028829	 2.1743758278	 0.293063
43.1825	61.597	95.3351	216.8862	231.7784	252.9453	304.5733	312.2481	360.0159	402.5854	470.2147	549.056	714.4986	753.7622	837.4121	873.3894	887.5974	954.0758	983.1565	999.4744	1050.7929	1062.8078	1117.1441	1126.6661	1152.945	1170.6228	1201.9655	1239.467	1274.7492	1311.1956	1333.4378	1347.1204	1381.8584	1395.307	1402.5621	1418.8916	1427.083	1485.5145	1507.4458	1522.8553	1826.1637	2929.5244	2944.1388	3013.4812	3018.4458	3041.3149	3051.1872	3090.5968	3114.9137	3128.1792	3832.6413
CC1OCC(C=O)C1O	C[C@H]1OC[C@@H](C=O)[C@H]1O	
InChI=1S/C6H10O3/c1-4-6(8)5(2-7)3-9-4/h2,4-6,8H,3H2,1H3	InChI=1S/C6H10O3/c1-4-6(8)5(2-7)3-9-4/h2,4-6,8H,3H2,1H3/t4-,5-,6+/m1/s1
