17
gdb 31170	2.36656	1.55789	0.974	3.4157	72.26	-0.1799	0.0373	0.2171	1172.5473	0.137618	-455.160436	-455.151674	-455.15073	-455.193848	32.823	
N	 0.2367628526	 1.487885479	 0.3109683122	-0.600749
C	 0.0180010319	 0.1227487697	 0.1184790682	 0.240003
C	-1.1267927205	-0.5845518535	-0.0966936917	 0.093817
C	-2.5376323128	-0.0997343783	-0.1822208681	-0.303055
N	-3.2658062754	-0.898537353	-1.1950584313	-0.519721
H	-4.2574131304	-0.6836195139	-1.1713596008	 0.238366
H	-2.9308628243	-0.6594697347	-2.1241657202	 0.243507
H	-2.3790966901	-2.6023318932	-0.7614349	 0.297347
C	-0.7072633897	-1.9593070307	-0.2424053068	 0.240714
O	-1.5321370081	-3.0040203685	-0.4781144501	-0.449218
C	 0.6461356859	-1.9789065151	-0.1230929029	-0.156333
O	 1.0989134319	-0.6940790713	 0.1191297799	-0.178899
H	 1.2196408169	 1.71138866	 0.2063050606	 0.249699
H	-0.0757931793	 1.8174072495	 1.2178581773	 0.251726
H	-3.0666233305	-0.2536663798	 0.7686811414	 0.11577
H	-2.5499859157	 0.9829043531	-0.3799595145	 0.109298
H	 1.3955757176	-2.7451474194	-0.2019855532	 0.127728
94.6821	112.983	166.2273	213.375	238.8881	305.9789	344.8047	384.1314	428.9526	543.3564	591.1998	610.1204	647.8182	700.4516	728.8248	743.7223	769.1847	799.1451	898.8579	972.8327	1021.3596	1049.1367	1119.9511	1158.0029	1173.6241	1229.361	1237.702	1318.7242	1344.2737	1393.1468	1421.9159	1489.2844	1509.0742	1638.0393	1645.76	1651.8156	1721.2605	2985.085	3018.1083	3300.2877	3491.8812	3507.8367	3510.2039	3576.6502	3599.1025
NC1=C(C[NH3+])C([O-])=CO1	Nc1c(CN)c(O)co1	
InChI=1S/C5H8N2O2/c6-1-3-4(8)2-9-5(3)7/h2,8H,1,6-7H2	InChI=1S/C5H8N2O2/c6-1-3-4(8)2-9-5(3)7/h2,8H,1,6-7H2
