20
gdb 92123	3.14439	1.37982	1.12139	1.9029	80.39	-0.2104	0.0744	0.2848	1156.7192	0.17013	-403.076176	-403.067882	-403.066938	-403.109001	32.198	
C	-0.0410988444	 1.5496521462	 0.1171988168	-0.326086
N	 0.1401142492	 0.1156055092	 0.1233839152	-0.066591
C	-1.0798078376	-0.7274203716	 0.2132914615	-0.19582
C	-0.4345160087	-1.5487033943	 1.3461022007	 0.104379
O	 0.4605036714	-2.5917972623	 0.9072869768	-0.32982
C	 1.5926253214	-1.7112899424	 1.0158931014	 0.49501
C	 2.8732761146	-2.1569989213	 1.6440023333	-0.347257
C	 2.7934226053	-1.840284064	 0.1535167686	-0.324319
C	 0.7149722395	-0.5110545751	 1.3380157123	-0.176469
H	 0.9329932304	 2.0488674126	 0.1542505846	 0.119631
H	-0.5333351682	 1.8527581739	-0.8130878597	 0.123753
H	-0.652494462	 1.9277751779	 0.9600468432	 0.086658
H	-1.9621288721	-0.1721235931	 0.5693270781	 0.088213
H	-1.3349101166	-1.2688486874	-0.7032546847	 0.111704
H	-1.0434464083	-1.8511132619	 2.1991937507	 0.086071
H	 3.4002724324	-1.4691328513	 2.2980262509	 0.111278
H	 2.9450672501	-3.2014336542	 1.9283726958	 0.123192
H	 2.8169489062	-2.6793752869	-0.5333504989	 0.124974
H	 3.2583511817	-0.9344254134	-0.2210393203	 0.117652
H	 0.9914591956	 0.1581000794	 2.1560460136	 0.073845
88.7682	121.9373	206.1429	213.7751	270.933	331.8888	373.4096	388.2267	491.5256	563.7684	711.8222	750.4154	804.2227	838.0308	859.4478	877.1897	916.5272	953.354	972.3922	984.5341	1006.0622	1023.3688	1043.6533	1059.0774	1062.531	1135.6193	1164.8793	1181.273	1182.7071	1186.0188	1205.2867	1229.5298	1255.7696	1292.9241	1327.919	1338.0098	1397.0545	1447.9084	1451.1242	1482.4018	1497.3778	1501.1028	1501.9535	2911.6421	2977.4441	3053.5383	3073.3473	3081.3878	3096.7357	3100.1941	3124.8847	3132.9443	3209.8491	3224.7458
CN1CC2OC3(CC3)C12	CN1C[C@H]2OC3(CC3)[C@@H]12	
InChI=1S/C7H11NO/c1-8-4-5-6(8)7(9-5)2-3-7/h5-6H,2-4H2,1H3	InChI=1S/C7H11NO/c1-8-4-5-6(8)7(9-5)2-3-7/h5-6H,2-4H2,1H3/t5-,6+/m1/s1
