25
gdb 59534	2.4947	1.15783	1.057	0.197	92.46	-0.2448	0.0785	0.3233	1351.6746	0.228601	-352.335558	-352.325644	-352.3247	-352.369921	38.484	
C	-0.1913512501	 1.6840702142	 0.009804546	-0.388316
C	-0.0121522952	 0.159928006	 0.0555338259	 0.012261
C	 0.6301344918	-0.2808349774	 1.3780705878	-0.388095
C	-1.3567971768	-0.545723613	-0.1525753043	 0.06875
C	-2.1300935083	-0.4521726731	-1.513684527	-0.283432
C	-2.3097507834	-1.9779728868	-1.4994566663	-0.078859
C	-0.9914160257	-2.6985615583	-1.5202959471	 0.019113
C	 0.2124031502	-2.3280804083	-2.3636421083	-0.419375
C	-1.4556547175	-2.0799007907	-0.2228642278	-0.114537
H	 0.7675955441	 2.2002113764	 0.1247788084	 0.106995
H	-0.6348383043	 2.0090296478	-0.9371361575	 0.112481
H	-0.8496864732	 2.0239387141	 0.8189021518	 0.108369
H	 0.6678866386	-0.1230524318	-0.7566921195	 0.070473
H	-0.0060034461	-0.0131159525	 2.2309148433	 0.107265
H	 0.7847079735	-1.364157061	 1.4043414833	 0.115609
H	 1.6020373342	 0.2014045031	 1.5269511749	 0.106419
H	-2.0336618828	-0.2032258569	 0.6410355907	 0.066801
H	-3.0701382648	 0.0968115786	-1.4299712068	 0.099725
H	-1.5758973053	-0.0442965786	-2.366052437	 0.092756
H	-3.2407136824	-2.4836213463	-1.7282377428	 0.079327
H	-1.1412924857	-3.7773496595	-1.481354001	 0.08215
H	 0.2802406828	-1.2563193591	-2.5593076236	 0.122674
H	 1.146643865	-2.6377127078	-1.8819698111	 0.114664
H	 0.1594794423	-2.8313957536	-3.3358785564	 0.110563
H	-1.6276736607	-2.7090673754	 0.6439968846	 0.076219
69.7877	121.2285	161.6787	214.9518	225.8238	242.0047	265.5371	298.9905	318.3015	391.985	439.6885	457.8451	584.7595	701.1013	715.0169	787.5678	800.9049	879.507	891.6885	928.6404	950.1773	962.3526	975.4126	987.6281	1009.8598	1026.577	1057.0814	1067.9722	1071.2519	1123.3565	1139.4141	1154.2766	1186.2979	1216.0324	1221.5003	1246.4325	1271.6903	1301.386	1312.0057	1348.5625	1354.5831	1395.3077	1396.333	1413.3953	1418.4798	1447.2594	1488.6254	1490.6302	1491.0314	1499.1426	1503.1743	1506.8901	1511.5915	3010.4044	3020.7402	3024.5479	3030.6571	3040.0369	3042.0429	3084.1596	3084.7713	3092.7655	3097.3805	3101.4957	3103.5582	3105.8019	3128.9828	3158.3037	3175.8805
CC(C)C1CC2C(C)C12	CC(C)[C@H]1C[C@H]2[C@@H](C)[C@@H]12	
InChI=1S/C9H16/c1-5(2)7-4-8-6(3)9(7)8/h5-9H,4H2,1-3H3	InChI=1S/C9H16/c1-5(2)7-4-8-6(3)9(7)8/h5-9H,4H2,1-3H3/t6-,7-,8+,9+/m1/s1
