22
gdb 110936	2.66684	1.04536	0.91113	2.1741	81.72	-0.2329	0.0686	0.3014	1403.2193	0.194271	-404.292588	-404.283056	-404.282112	-404.327405	35.596	
C	 0.613602544	 1.5265673016	-0.2855778725	-0.378977
C	 0.3947505561	 0.0095120774	-0.2953638229	-0.213725
C	 0.8240934682	-0.6507029985	 1.0128965641	 0.043466
C	 0.0494059738	-0.4522726885	 2.3457013416	-0.201867
N	 0.0407143163	-1.9356307865	 2.6362491858	-0.162896
C	-0.7294527153	-2.6036881277	 1.5568505389	-0.005135
C	-2.0596764801	-2.1177285764	 1.0309997969	-0.097967
O	-3.1123940663	-2.48200194	 1.9130267873	-0.42108
C	 0.6426321121	-2.1519907693	 1.2440378264	-0.106004
H	 1.668528132	 1.7729916596	-0.1217804698	 0.116167
H	 0.3086755988	 1.9783437046	-1.2341601271	 0.115887
H	 0.0350903164	 2.0064717934	 0.511600491	 0.118694
H	-0.6572832242	-0.2067713395	-0.5090245089	 0.103574
H	 0.9680677471	-0.4394372661	-1.1172414053	 0.09934
H	 1.8771896915	-0.404515697	 1.1895213998	 0.084019
H	 0.6164152617	 0.0633730325	 3.1223853077	 0.113044
H	-0.9429365796	 0.0065485983	 2.2836522358	 0.099605
H	-0.7779288518	-3.6703396225	 1.7762615083	 0.104843
H	-2.0661822917	-1.0390496394	 0.8347694295	 0.091495
H	-2.2761640752	-2.6174519059	 0.0804348028	 0.115368
H	-2.8659341156	-2.1792362856	 2.7938022863	 0.290218
H	 1.4320264019	-2.8823989247	 1.0857405542	 0.091932
64.9754	76.4401	136.2774	158.6253	209.4895	260.9671	297.3033	333.8931	405.3348	415.3891	499.841	569.6417	691.1779	737.961	771.3701	795.1063	864.9616	906.5664	938.0452	960.5464	977.8082	1013.5723	1032.2797	1059.7905	1079.7145	1089.0625	1119.39	1147.3926	1175.0678	1197.3428	1221.0648	1255.3624	1269.0394	1288.8639	1302.0495	1338.9142	1349.4272	1372.4139	1402.5221	1411.2163	1414.5631	1462.1591	1485.2777	1493.5069	1499.7238	1506.635	1521.706	3023.9838	3027.8767	3030.8958	3038.0993	3050.9483	3069.134	3074.5982	3098.8957	3106.4201	3112.1882	3114.4777	3141.5174	3806.1845
CCC1CN2C(CO)C12	CC[C@H]1CN2[C@@H](CO)[C@@H]12	
InChI=1S/C7H13NO/c1-2-5-3-8-6(4-9)7(5)8/h5-7,9H,2-4H2,1H3	InChI=1S/C7H13NO/c1-2-5-3-8-6(4-9)7(5)8/h5-7,9H,2-4H2,1H3/t5-,6-,7+,8?/m0/s1
