23
gdb 112018	3.29509	1.22327	1.08054	0.2196	90.4	-0.2298	0.0208	0.2506	1248.8582	0.208398	-351.157678	-351.149479	-351.148535	-351.190245	33.348	
C	 0.0236277854	 1.6173547303	 0.1239882293	-0.389979
C	 0.0129979901	 0.0866292599	 0.061939651	-0.178354
C	-1.394725683	-0.5373518757	-0.0505635437	-0.006703
C	-2.1157675173	-0.1669700986	-1.3328549765	-0.068023
C	-2.5908055121	-1.1284897536	-2.1261514974	-0.074657
C	-2.3950642414	-2.5704424831	-1.7087542078	-0.048453
C	-2.7614398737	-2.6833608494	-0.1959362705	-0.232464
C	-1.3544242549	-2.077295071	 0.0776305273	-0.027353
C	-0.9120203481	-2.7444469822	-1.2601293604	-0.218652
H	 1.0400868407	 1.9955822487	 0.271320585	 0.111471
H	-0.3613155345	 2.0662879372	-0.7968747332	 0.118641
H	-0.5902839386	 1.9844266343	 0.9544705191	 0.112286
H	 0.6289239556	-0.2508945738	-0.7804692132	 0.098045
H	 0.487929494	-0.310312763	 0.9688754253	 0.090394
H	-1.9809185592	-0.1470908381	 0.7979875453	 0.07231
H	-2.2393040374	 0.8837258371	-1.5775272459	 0.084485
H	-3.1162108922	-0.903476825	-3.049557801	 0.082736
H	-2.8236091789	-3.2853495266	-2.4127865614	 0.054576
H	-3.6398220104	-2.1331955548	 0.1519897993	 0.090857
H	-2.8191498878	-3.7242519722	 0.1351801652	 0.090681
H	-0.8368059016	-2.3759989244	 0.9935572062	 0.053722
H	-0.6531871081	-3.7958716883	-1.1070052601	 0.091313
H	-0.1427659466	-2.2586173279	-1.8647421419	 0.093121
85.9271	139.9006	200.602	252.3221	332.4412	369.9117	384.7675	430.9093	516.3965	586.394	668.9017	735.7223	759.226	817.6961	828.8065	861.3778	900.4734	910.9706	935.467	950.8596	965.5252	984.1631	999.7724	1051.4848	1071.694	1075.1849	1102.6276	1112.8157	1127.3578	1131.2697	1158.3662	1190.4218	1245.5157	1255.2808	1264.9042	1279.5885	1315.1283	1324.0587	1335.1738	1362.305	1376.4824	1407.2779	1413.9214	1475.2541	1487.0171	1501.5387	1504.4211	1508.7699	1696.0321	2962.6796	3015.8618	3032.0966	3046.5464	3050.102	3055.7025	3065.7704	3092.2834	3097.4967	3105.6614	3106.2263	3112.8896	3158.1879	3182.0888
CCC1C=CC2CC1C2	CC[C@H]1C=C[C@@H]2C[C@H]1C2	
InChI=1S/C9H14/c1-2-8-4-3-7-5-9(8)6-7/h3-4,7-9H,2,5-6H2,1H3	InChI=1S/C9H14/c1-2-8-4-3-7-5-9(8)6-7/h3-4,7-9H,2,5-6H2,1H3/t7-,8-,9+/m0/s1
