18
gdb 88705	3.44802	0.98027	0.83029	4.0227	77.98	-0.2558	0.0149	0.2707	1386.9793	0.147927	-398.087197	-398.078236	-398.077292	-398.121934	32.527	
C	-0.1336052595	 1.5581991523	-0.1050858839	-0.397365
C	-0.0177636587	 0.060817609	 0.0508837714	 0.000907
N	 1.3052969311	-0.5434138087	-0.1671508471	-0.347085
C	 0.6930279405	-0.6243015851	 1.168652291	-0.021598
C	 1.4094365757	 0.1035627368	 2.2576075937	-0.007773
N	 0.8039112003	 0.0577939878	 3.5885621219	-0.322966
C	 2.095723093	-0.6255128272	 3.3773544262	-0.199887
C	 2.0841723456	-2.0661965554	 3.4626342692	 0.337845
N	 2.0968963528	-3.2212668949	 3.5122441962	-0.340969
H	 0.7683934947	 2.0684181131	 0.2406016721	 0.121966
H	-0.2751880158	 1.8207164478	-1.1587190676	 0.125368
H	-0.9912251818	 1.9435521969	 0.4565940376	 0.122309
H	-0.8752742335	-0.4906696888	-0.3338896929	 0.090682
H	 1.234285676	-1.435450713	-0.6476930477	 0.240059
H	 0.2787676213	-1.5781910726	 1.4876263331	 0.109777
H	 1.9100423897	 1.017470738	 1.948482471	 0.107362
H	 0.955036147	 0.924189312	 4.0979650777	 0.247942
H	 2.9978517616	-0.171937498	 3.7786581381	 0.133427
33.217	91.0752	143.7011	187.2135	211.5692	255.4116	332.0506	393.5811	437.2984	514.6046	583.5316	630.4747	773.621	798.6304	850.3868	856.11	913.5236	934.2762	963.2557	983.5637	1014.5214	1025.2354	1063.7101	1108.09	1144.8828	1170.1632	1203.669	1225.172	1240.7297	1263.74	1287.3609	1347.2229	1405.8916	1414.6167	1443.3532	1483.3298	1493.3097	1513.8587	2359.025	3038.0453	3099.5208	3104.0213	3126.7613	3136.351	3146.4848	3154.5159	3514.8036	3516.9502
CC1NC1C1NC1C#N	C[C@H]1N[C@H]1[C@H]1N[C@H]1C#N	
InChI=1S/C6H9N3/c1-3-5(8-3)6-4(2-7)9-6/h3-6,8-9H,1H3	InChI=1S/C6H9N3/c1-3-5(8-3)6-4(2-7)9-6/h3-6,8-9H,1H3/t3-,4+,5-,6+/m1/s1
