15
gdb 47949	11.80426	0.43897	0.43778	5.4997	106.3	-0.248	-0.0771	0.1709	2392.6981	0.110916	-383.437004	-383.427821	-383.426877	-383.472799	31.218	
O	-0.1742304792	 0.0574417622	 0.4377160655	-0.228132
C	-0.0153972758	 1.1593337643	-0.0410642641	-0.037589
C	 1.2243655232	 1.8806807053	-0.0349545064	 0.206971
C	 2.2604654281	 2.5181518519	-0.0468424673	-0.139991
C	 3.4135176725	 3.2223700332	-0.0585957026	-0.214013
C	 4.4464821119	 3.861294477	-0.07353121	 0.350505
C	 5.6633361373	 4.5987772465	-0.0825000901	-0.207684
C	 6.0024301984	 5.4989904543	-1.2691773692	-0.249144
C	 5.6343535774	 6.1212715591	 0.0374978089	-0.249071
H	-0.848325152	 1.7017868245	-0.5336170606	 0.099534
H	 6.5056600622	 4.1028514508	 0.3908236346	 0.127933
H	 7.0398107928	 5.5125905281	-1.5825886247	 0.131812
H	 5.2811635687	 5.5365352341	-2.0763664653	 0.13853
H	 4.6603483024	 6.5862999139	 0.1279505238	 0.138535
H	 6.4134342922	 6.5719474247	 0.6412903074	 0.131804
38.2328	56.4868	80.3434	129.2722	173.569	256.8059	297.7861	388.6358	515.4305	526.988	556.4855	623.6507	698.3192	789.8214	819.9672	852.2813	876.9174	973.5231	1015.8129	1061.3327	1084.1973	1104.6445	1111.2343	1201.8417	1207.5312	1289.134	1402.0235	1423.2183	1467.4269	1494.687	1747.907	2246.5936	2333.2948	2915.0218	3146.4199	3147.9002	3152.2415	3232.3249	3247.1575
O=CC#CC#CC1CC1	O=CC#CC#CC1CC1	
InChI=1S/C8H6O/c9-7-3-1-2-4-8-5-6-8/h7-8H,5-6H2	InChI=1S/C8H6O/c9-7-3-1-2-4-8-5-6-8/h7-8H,5-6H2
