19
gdb 79030	4.73049	1.38319	1.31497	0.7321	78.72	-0.2077	0.0894	0.2971	1020.8854	0.161395	-381.960396	-381.953625	-381.95268	-381.991128	28.458	
C	 0.001279953	 1.5084238845	-0.2168529976	-0.327924
N	 0.0191483923	 0.0630839616	-0.0015026646	-0.116108
C	-1.0311021387	-0.5188879155	 0.8935170715	-0.02848
C	-0.0800919441	-1.7505096531	 1.1402913066	-0.027126
C	-0.3413694795	-2.2253909024	 2.5517308366	-0.056802
C	 0.5798812624	-1.7710518638	 3.6276681864	-0.247284
N	-0.6019347015	-0.9575120265	 3.2813319278	-0.11991
C	-0.3467881424	 0.0080436089	 2.2023139582	-0.01251
C	 0.7753525156	-0.4526822335	 1.1925968048	-0.062968
H	 0.9554467734	 1.8060579984	-0.6645398261	 0.120183
H	-0.7881130788	 1.7423328076	-0.9389496191	 0.121421
H	-0.1628027335	 2.1297195627	 0.6767451352	 0.09964
H	-2.0915409512	-0.5243208938	 0.6338799955	 0.081746
H	 0.0849567403	-2.4562188775	 0.329041616	 0.081704
H	-1.0304588386	-3.0470641091	 2.7245045092	 0.096049
H	 0.5225219352	-2.2403812998	 4.6055474987	 0.11827
H	 1.5668704332	-1.4052149937	 3.3597726771	 0.117634
H	-0.4334853794	 1.043980243	 2.5202509878	 0.083172
H	 1.8605000623	-0.3602812581	 1.2631123459	 0.079293
180.6605	220.5809	255.0188	336.2834	394.3823	507.1217	556.1518	644.3412	677.559	778.209	781.1314	798.0578	831.6663	840.7117	896.1949	906.5546	937.0579	983.0091	993.3501	1027.2193	1058.8331	1076.692	1100.2991	1111.1426	1127.5784	1145.2658	1149.8227	1159.456	1174.6424	1181.7354	1209.1526	1220.7814	1247.6894	1272.0788	1291.0008	1342.8727	1375.2705	1449.1896	1493.6744	1500.3104	1501.9468	2985.0894	3063.625	3092.6573	3096.2543	3098.4676	3116.3578	3144.5058	3153.4079	3157.4511	3201.4953
CN1C2C3C4CN4C2C13	CN1[C@H]2[C@@H]3[C@H]4CN4[C@H]2[C@H]13	
InChI=1S/C7H10N2/c1-8-5-4-3-2-9(3)7(5)6(4)8/h3-7H,2H2,1H3	InChI=1S/C7H10N2/c1-8-5-4-3-2-9(3)7(5)6(4)8/h3-7H,2H2,1H3/t3-,4-,5-,6+,7+,9?/m1/s1
