16
gdb 54581	3.75635	1.42271	1.19271	2.5052	69.06	-0.2412	0.02	0.2613	1025.3745	0.124551	-437.852658	-437.845048	-437.844104	-437.884967	29.272	
N	-0.1526557999	 1.2561839454	 0.1561281237	-0.542793
C	-0.0306791825	-0.0781913964	-0.0691401637	 0.288344
O	 1.0230416607	-0.6602688923	-0.2550015194	-0.377631
C	-1.330542894	-0.7944070946	-0.0724352405	 0.401721
O	-2.5668150047	-0.1183309214	 0.1738456195	-0.350795
C	-3.1507575622	-1.4451633815	 0.352491844	 0.04594
C	-3.1454144182	-2.0339558101	-1.083399925	-0.237012
C	-1.6247065373	-2.0467703503	-0.9294026484	-0.141847
C	-1.7278916538	-2.0793284333	 0.5837696149	-0.174686
H	 0.6793163501	 1.8196419343	 0.2052958023	 0.263598
H	-1.0506102249	 1.6593496673	 0.3645487606	 0.27691
H	-4.0176176595	-1.4520021455	 1.0088961646	 0.093826
H	-3.5494887725	-3.0489454923	-1.1051074841	 0.111828
H	-3.6018916004	-1.4160085186	-1.8622285516	 0.10658
H	-0.8576359743	-2.4810303682	-1.5551618787	 0.120099
H	-1.2588336266	-2.6737769726	 1.3542742716	 0.115919
70.9804	160.561	171.3453	229.0613	362.2515	441.0467	483.8413	533.2054	597.7086	642.5624	724.2396	784.7663	789.699	801.167	851.3956	886.5792	923.9428	945.218	953.5737	1000.9485	1035.0641	1066.8505	1086.8408	1093.323	1135.7709	1154.0603	1179.1017	1212.1553	1266.6756	1298.8771	1329.996	1452.3233	1486.2234	1610.4421	1790.8152	3055.3512	3119.2328	3153.0893	3219.7545	3229.6804	3600.8637	3740.8379
NC(=O)C12OC3CC1C23	NC(=O)[C@@]12O[C@H]3C[C@@H]1[C@@H]23	
InChI=1S/C6H7NO2/c7-5(8)6-2-1-3(9-6)4(2)6/h2-4H,1H2,(H2,7,8)	InChI=1S/C6H7NO2/c7-5(8)6-2-1-3(9-6)4(2)6/h2-4H,1H2,(H2,7,8)/t2-,3+,4-,6-/m1/s1
