20
gdb 112128	2.9635	1.21314	0.95566	1.8339	83.28	-0.2402	0.0061	0.2463	1288.4817	0.171623	-403.149929	-403.140965	-403.140021	-403.184641	32.941	
C	-0.2990856689	 1.8119652258	 0.4272706238	-0.37878
C	-0.4027841237	 0.2984330917	 0.2326989956	-0.160522
C	 0.6809804025	-0.5037577743	 1.0028314561	-0.014612
C	 0.3308704175	-1.9706221049	 0.9714400382	-0.043408
C	 0.9160648912	-2.9514614638	 0.2923420981	-0.10451
C	 2.0950611201	-2.8112897521	-0.6255964819	-0.134471
O	 3.1771598369	-1.9914906258	-0.1718909625	-0.219534
C	 2.9778575836	-0.6905027213	 0.159600996	 0.122333
N	 1.9940236548	-0.0430994398	 0.6014706972	-0.262598
H	 0.6779773448	 2.1778918971	 0.104979506	 0.137616
H	-1.073963694	 2.3311098801	-0.1454286995	 0.106016
H	-0.4254438044	 2.0823505322	 1.4817462448	 0.110058
H	-1.3872152626	-0.0550742515	 0.5620386682	 0.093653
H	-0.3209082568	 0.0442152773	-0.8310402021	 0.098395
H	 0.593802512	-0.187232419	 2.0549828058	 0.099846
H	-0.545086796	-2.217237716	 1.5705121377	 0.092513
H	 0.5013919124	-3.9545689875	 0.3564510567	 0.095903
H	 2.5566678633	-3.7871860264	-0.7957776762	 0.123971
H	 1.7695602155	-2.4333021895	-1.6063264292	 0.121878
H	 3.921508422	-0.1618308622	 0.0107523671	 0.116255
28.1159	106.0864	126.6538	194.924	219.6493	268.1505	368.8471	376.0737	410.6252	521.9055	576.9505	688.1966	743.0424	780.372	800.4133	866.8806	906.0585	947.7409	964.0829	975.1365	1005.906	1030.3744	1038.7707	1067.2823	1112.0174	1152.1382	1172.5993	1262.2912	1272.6425	1289.2381	1311.2088	1357.1529	1387.9503	1406.6626	1408.968	1424.913	1445.1865	1481.4885	1491.808	1493.0132	1508.3002	1747.6071	1774.8921	2968.1667	2995.4804	3028.1086	3036.3178	3064.9472	3093.3232	3098.902	3115.9334	3127.2998	3132.838	3160.3345
CCC1C=CCOC=N1	CC[C@H]1C=CCOC=N1	
InChI=1S/C7H11NO/c1-2-7-4-3-5-9-6-8-7/h3-4,6-7H,2,5H2,1H3	InChI=1S/C7H11NO/c1-2-7-4-3-5-9-6-8-7/h3-4,6-7H,2,5H2,1H3/t7-/m0/s1
