20
gdb 18594	3.21154	2.05352	1.67069	1.5007	73.58	-0.2477	0.0775	0.3252	877.1353	0.179419	-349.004202	-348.99698	-348.996036	-349.035717	28.52	
C	-0.7951514025	 1.3117986229	-0.0026204612	-0.415118
C	-0.0766187057	-0.0304352158	-0.0287961415	 0.04749
C	 1.1374647207	-0.1634025491	-0.9948989463	-0.244348
C	 2.0392193971	-0.637697773	 0.1777677228	-0.021133
C	 3.0933664562	 0.3677980345	 0.6443679467	-0.09332
O	 2.3689903541	 1.3915670698	 1.3202148046	-0.250043
C	 1.3567457865	 0.7240010424	 2.0690316001	-0.094576
C	 0.8490634562	-0.4122456168	 1.1759876321	-0.052952
H	-0.0883194022	 2.1325726919	 0.1563446573	 0.132991
H	-1.3069161628	 1.4922810079	-0.9545621964	 0.110582
H	-1.5498314191	 1.3529064407	 0.7912383854	 0.108971
H	-0.8054470896	-0.8282711568	-0.2041319464	 0.067172
H	 1.0120838889	-0.8826401624	-1.8078736214	 0.093981
H	 1.4580523125	 0.7903979571	-1.4261143452	 0.098992
H	 2.4294754285	-1.6527690206	 0.0896269897	 0.066816
H	 3.81114245	-0.1122328871	 1.330721783	 0.083023
H	 3.6520740451	 0.8375835538	-0.1706717239	 0.105433
H	 1.7797458688	 0.3092516911	 2.9992460299	 0.083875
H	 0.5999403464	 1.4651998326	 2.338246618	 0.107715
H	 0.5109707409	-1.269351453	 1.7616030327	 0.064448
61.2478	203.9308	252.3065	298.7618	351.8797	376.4905	464.4982	573.6032	700.9248	748.2556	759.2384	839.6109	873.0518	895.2324	911.8101	940.6401	970.874	988.608	1007.7776	1029.8822	1087.6454	1114.571	1129.9841	1142.3223	1168.0949	1202.4195	1210.8657	1249.1724	1264.6159	1282.2579	1287.0168	1323.3802	1332.4324	1349.3687	1364.4209	1397.9839	1409.7435	1480.5642	1494.984	1496.0783	1506.2392	1516.2155	2959.9993	2967.1437	3024.686	3042.3532	3048.728	3081.6902	3084.7477	3087.3295	3093.4938	3094.6355	3102.2473	3109.5802
CC1CC2COCC12	C[C@H]1C[C@H]2COC[C@@H]12	
InChI=1S/C7H12O/c1-5-2-6-3-8-4-7(5)6/h5-7H,2-4H2,1H3	InChI=1S/C7H12O/c1-5-2-6-3-8-4-7(5)6/h5-7H,2-4H2,1H3/t5-,6-,7-/m0/s1
