16
gdb 124963	3.0903	1.21965	0.94946	2.9923	76.01	-0.247	-0.01	0.237	1210.6062	0.12281	-400.717392	-400.708628	-400.707683	-400.751856	31.351	
C	-0.0461990281	 1.4497202073	-0.2642964055	-0.502457
C	-0.0862884888	-0.0147930424	-0.0061583822	 0.363984
C	-1.0927687668	-0.9376861319	 0.0424014919	 0.069731
C	-2.5785955879	-0.7563233396	-0.1481972197	-0.47911
C	-2.9494216577	-0.0482460522	-1.3727482299	 0.310723
C	-3.2579704081	 0.5405820747	-2.3738557734	-0.452856
C	-0.407339968	-2.1435808222	 0.3544429898	-0.037141
N	 0.8838981188	-1.9737925489	 0.4821266794	-0.145717
O	 1.0900699113	-0.616423019	 0.2514055689	-0.208305
H	 0.8002784817	 1.7004487132	-0.9098830603	 0.152272
H	-0.96878289	 1.7707215847	-0.7506435168	 0.155941
H	 0.071478139	 2.0118698047	 0.6692385149	 0.147346
H	-3.053656605	-1.7447066915	-0.1514779975	 0.145924
H	-3.0115508799	-0.2276180516	 0.7121213039	 0.148236
H	-3.5328887772	 1.0498864189	-3.2642585451	 0.202729
H	-0.8236829934	-3.1335692846	 0.4854059015	 0.128701
38.9791	77.9366	113.3303	233.5314	238.3941	294.6376	325.5122	388.3052	451.0444	624.8573	641.1089	644.6431	656.3738	689.4531	756.0481	905.9516	917.0529	934.9419	958.4482	963.6507	1011.0748	1065.9088	1161.3685	1201.267	1248.244	1264.8619	1324.3527	1410.1558	1422.1109	1466.6727	1481.355	1483.3989	1516.7605	1666.0747	2239.6904	3012.4197	3040.2417	3052.3565	3102.1064	3145.6774	3232.9093	3504.2077
CC1=C(CC#C)C=NO1	Cc1c(CC#C)cno1	
InChI=1S/C7H7NO/c1-3-4-7-5-8-9-6(7)2/h1,5H,4H2,2H3	InChI=1S/C7H7NO/c1-3-4-7-5-8-9-6(7)2/h1,5H,4H2,2H3
