18
gdb 87545	2.57366	1.61337	1.18912	4.1689	78.07	-0.2266	-0.0154	0.2112	1077.752	0.146939	-401.902271	-401.89411	-401.893166	-401.93488	31.18	
C	-0.1029068886	 1.5080850144	-0.0196457996	-0.31561
N	-0.0109336426	 0.0558574074	 0.064432978	-0.12953
C	 1.3039656339	-0.5325763863	-0.1631716891	-0.322652
C	 0.7070269651	-0.4957463159	 1.1998503678	 0.255307
C	 1.2556541544	 0.1864629885	 2.4468965599	-0.158371
C	 0.16007858	 0.3218768168	 3.4511266863	-0.289325
C	 0.8275033415	-1.0375620174	 3.3026485979	-0.176731
C	 0.3228854524	-1.7099542006	 2.050637137	 0.365408
O	-0.0512736084	-2.816739583	 1.787666666	-0.323334
H	 0.7869344336	 2.0329368642	 0.3644481865	 0.101615
H	-0.2447315463	 1.7925272998	-1.0664502987	 0.130828
H	-0.9739136018	 1.8493518453	 0.5478798352	 0.127838
H	 1.3179936946	-1.4673624488	-0.716901462	 0.136563
H	 2.1440347709	 0.1367792543	-0.3502043507	 0.111238
H	 2.1975358993	 0.7124125031	 2.5229987967	 0.11036
H	 0.4104832264	 0.8373221043	 4.3727905438	 0.12815
H	-0.8668605869	 0.4611142888	 3.1268518886	 0.13262
H	 1.3411772526	-1.510527525	 4.1290720465	 0.115626
113.0024	140.1032	189.8661	196.3425	249.8467	296.6152	399.3955	432.1035	558.5777	610.23	650.2679	713.6507	798.0774	821.0428	857.9244	891.1411	922.1292	938.8513	954.8946	995.6656	1045.1741	1058.5231	1085.9447	1098.8095	1115.8978	1131.2251	1152.3201	1180.4567	1201.9135	1221.9886	1275.5457	1294.3046	1415.8181	1450.8695	1488.8777	1492.2883	1494.1763	1505.0867	1886.0582	2972.2494	3073.9627	3083.4713	3110.5509	3123.3357	3182.0632	3204.9524	3206.0905	3217.1154
CN1CC11C2CC2C1=O	CN1C[C@]21[C@H]1C[C@H]1C2=O	
InChI=1S/C7H9NO/c1-8-3-7(8)5-2-4(5)6(7)9/h4-5H,2-3H2,1H3	InChI=1S/C7H9NO/c1-8-3-7(8)5-2-4(5)6(7)9/h4-5H,2-3H2,1H3/t4-,5+,7+,8?/m1/s1
