16
gdb 26527	2.37329	1.83311	1.04757	5.232	73.97	-0.2472	-0.0388	0.2085	1095.6268	0.12385	-437.949828	-437.941276	-437.940332	-437.98362	30.467	
C	 0.1705282729	 1.5241190638	-0.1363586991	-0.480447
C	-0.0487216832	 0.051234574	-0.0201468364	 0.293692
C	-1.2012287636	-0.6481416039	 0.0051747283	 0.035916
C	-2.5779931952	-0.0566395232	-0.0832362637	-0.480932
C	-1.1426741294	-2.1203716948	 0.129232144	 0.347227
O	-2.1422486091	-2.8067916651	 0.1578171489	-0.336278
N	 0.1440515173	-2.7087731889	 0.2148174246	-0.304454
C	 1.1544638351	-1.9416263086	 0.1798231251	 0.119335
O	 1.1620808661	-0.59731415	 0.0682660815	-0.212351
H	 0.7756611152	 1.74565628	-1.0221364237	 0.151986
H	-0.7685250597	 2.0692651392	-0.2087784056	 0.147248
H	 0.7251012392	 1.8917508292	 0.7338050361	 0.151986
H	-2.576280492	 1.0301176932	-0.1723376871	 0.115442
H	-3.1096798523	-0.4805508184	-0.9409624378	 0.151733
H	-3.1599618885	-0.337672219	 0.8001699985	 0.151783
H	 2.1719897571	-2.3195948074	 0.2402359662	 0.148114
74.9137	94.2114	100.8249	170.4492	283.241	316.5587	335.7994	484.9952	507.765	519.5369	544.8627	565.8	686.1306	815.067	868.515	888.3395	971.4376	975.2549	1048.9808	1050.6614	1068.6797	1151.1814	1160.3016	1222.2757	1361.7716	1412.1839	1418.9824	1425.3144	1466.8463	1474.385	1477.8463	1484.5513	1650.9484	1721.2546	1779.0804	3044.1443	3050.1412	3096.0395	3101.4805	3142.4707	3172.4928	3177.9743
CC1=C(C)C(=O)N=CO1	Cc1c(C)c(=O)nco1	
InChI=1S/C6H7NO2/c1-4-5(2)9-3-7-6(4)8/h3H,1-2H3	InChI=1S/C6H7NO2/c1-4-5(2)9-3-7-6(4)8/h3H,1-2H3
