17
gdb 81170	2.70604	1.70507	1.2924	2.0819	68.29	-0.25	-0.0489	0.201	986.6479	0.13591	-458.93975	-458.93212	-458.931176	-458.971792	29.705	
O	 0.0397313032	 1.4367273509	 0.1240881348	-0.451077
C	 0.013725839	 0.0407259363	 0.0452937653	 0.118844
C	 0.1114995117	-0.6736750603	 1.4308540832	-0.114699
C	-1.3875098949	-0.2901739886	 1.6325845582	-0.279097
C	-1.4087435464	-0.6064390199	 0.1021886708	 0.326016
O	-1.1391546844	-2.0050092891	 0.0371271934	-0.332598
C	-0.0331493369	-2.1304820332	 0.9772274558	-0.090012
C	-2.4937579361	-0.164235609	-0.8164222798	 0.054926
O	-2.5990574474	 0.9921320655	-1.1637864569	-0.270138
H	-0.6528194128	 1.765708715	-0.4662571037	 0.300029
H	 0.6584877425	-0.3471756115	-0.7554603305	 0.076601
H	 0.8866819488	-0.4347629289	 2.1570756386	 0.089051
H	-2.010616543	-0.9263593876	 2.2641884876	 0.10553
H	-1.5227442994	 0.7668291406	 1.8465247141	 0.135964
H	 0.8475406398	-2.5202491827	 0.4555642616	 0.112232
H	-0.3084833318	-2.8176307927	 1.7842260221	 0.111409
H	-3.1958960019	-0.9466983348	-1.1707529547	 0.10702
91.1778	171.6387	220.8563	306.1255	338.3806	380.9732	433.9473	459.8796	485.1421	578.4728	659.0228	744.6155	815.6416	858.1917	907.7065	919.0255	948.306	967.0847	991.3804	1028.6758	1070.9301	1085.6471	1137.3959	1148.7555	1162.0896	1191.3997	1216.6576	1253.9806	1261.0662	1290.1797	1357.5298	1360.992	1401.4464	1417.7765	1474.0175	1526.6259	1793.9084	2927.3584	3010.3879	3036.7072	3080.4251	3087.0867	3137.383	3183.4945	3738.2572
OC1C2CC1(OC2)C=O	O[C@H]1[C@H]2C[C@@]1(OC2)C=O	
InChI=1S/C6H8O3/c7-3-6-1-4(2-9-6)5(6)8/h3-5,8H,1-2H2	InChI=1S/C6H8O3/c7-3-6-1-4(2-9-6)5(6)8/h3-5,8H,1-2H2/t4-,5-,6+/m0/s1
