17
gdb 15879	2.53169	1.91198	1.21635	3.5004	65.98	-0.2354	-0.0336	0.2018	997.8971	0.140363	-400.971189	-400.962773	-400.961829	-401.00435	30.188	
C	-0.2541785797	 1.4589494108	-0.2053560343	-0.328066
N	-0.2047334545	 0.031391726	 0.0287673027	-0.092503
C	-1.3281399236	-0.6213324465	 0.7291843751	-0.207332
C	-0.3097529728	-1.5969347987	 1.3663684224	 0.127382
O	-0.1641258214	-2.8327431008	 0.7152132754	-0.428026
C	 0.7609132569	-0.5004633913	 1.006256377	-0.097113
C	 2.0790644904	-0.9791535139	 0.4422586692	 0.164206
O	 3.1005336387	-1.04544433	 1.0748402324	-0.244322
H	 0.6879770952	 1.796895665	-0.6488604543	 0.128868
H	-1.0595649566	 1.6904568959	-0.9099494601	 0.127037
H	-0.4276035004	 2.0401382762	 0.719024431	 0.100199
H	-1.8118812658	 0.0240841166	 1.4805932615	 0.094068
H	-2.0981830753	-1.0577701551	 0.0825734661	 0.105348
H	-0.417207924	-1.8149851256	 2.4282415681	 0.108269
H	-0.1918121327	-2.6738697083	-0.2353695912	 0.29137
H	 0.9522560502	 0.1580566207	 1.8684344024	 0.0795
H	 2.0268039356	-1.285902901	-0.6273098836	 0.071115
72.6881	96.7732	197.2446	210.2516	240.6462	272.9339	345.7184	402.1611	446.3692	492.773	530.3021	695.3428	823.901	859.1941	955.3138	984.9092	1008.8589	1024.9478	1087.3952	1120.3259	1145.1023	1168.1504	1192.2618	1223.2935	1239.7877	1265.0118	1296.0979	1325.9101	1334.305	1410.0157	1438.0141	1454.0414	1486.9865	1498.8616	1515.4938	1831.8888	2873.2673	2940.6985	2971.071	2985.6096	3055.4083	3062.5152	3104.1337	3127.9667	3798.4768
CN1CC(O)C1C=O	CN1C[C@@H](O)[C@H]1C=O	
InChI=1S/C5H9NO2/c1-6-2-5(8)4(6)3-7/h3-5,8H,2H2,1H3	InChI=1S/C5H9NO2/c1-6-2-5(8)4(6)3-7/h3-5,8H,2H2,1H3/t4-,5-/m1/s1
