20
gdb 62126	3.34778	0.78509	0.68888	2.9266	78.48	-0.2648	0.0187	0.2835	1657.7811	0.169439	-440.258781	-440.248741	-440.247797	-440.29557	35.429	
O	 0.179064551	 1.9614210624	 0.5749237222	-0.428191
C	-0.0845829585	 0.7093479085	-0.0409041074	 0.064057
C	 0.5850882853	 0.6754765514	-1.418198037	-0.099586
O	 0.1757405083	-0.5180140105	-2.0837156602	-0.184714
C	 0.5074336442	-0.6285897465	-3.3843778319	 0.135841
N	 0.2453610639	-1.689674506	-4.0145641446	-0.438091
C	 0.3033400749	-0.48483288	 0.8147936452	 0.017086
C	 1.491783367	-0.4398204633	 1.7454963507	-0.284741
C	 0.0877122248	-0.4630652174	 2.3015747679	-0.270251
H	 1.1298986105	 2.0300674782	 0.7166581925	 0.283798
H	-1.1695876867	 0.692918681	-0.1977283183	 0.108729
H	 0.2827214764	 1.5624882914	-1.9882754891	 0.115362
H	 1.6795534398	 0.686079907	-1.3032441178	 0.099318
H	 0.9935446802	 0.2698467977	-3.7902686311	 0.085076
H	 0.5462345899	-1.6014437401	-4.9828837344	 0.229914
H	 0.1334321892	-1.4294257851	 0.3086635822	 0.115062
H	 2.1051964846	-1.329620463	 1.8299944443	 0.117714
H	 2.0518061496	 0.4842934742	 1.8554785801	 0.094557
H	-0.2811348276	 0.4619886935	 2.7301842208	 0.124753
H	-0.2653727569	-1.3656625735	 2.7870832359	 0.114304
28.6409	62.9149	80.7206	114.4756	170.8647	224.1793	264.7831	319.581	328.3662	381.5463	516.5923	578.3379	651.0084	737.4984	790.6071	823.0685	832.9081	907.3962	944.5811	1009.4949	1032.6696	1045.1912	1054.4551	1067.5493	1085.5647	1094.7764	1143.472	1147.3084	1161.5305	1197.5579	1227.3269	1245.6329	1265.8932	1305.5073	1352.0999	1393.6337	1410.0702	1418.1254	1428.4576	1462.8216	1504.6615	1508.4458	1749.2575	2988.6096	3019.9554	3044.5579	3061.7126	3124.7402	3139.6318	3171.1273	3206.2241	3230.0749	3519.1516	3799.7998
OC(COC=N)C1CC1	O[C@@H](CO[CH][NH])C1CC1	
InChI=1S/C6H11NO2/c7-4-9-3-6(8)5-1-2-5/h4-8H,1-3H2	InChI=1S/C6H11NO2/c7-4-9-3-6(8)5-1-2-5/h4-8H,1-3H2/t6-/m0/s1
