12
gdb 23954	2.05332	1.89763	0.9862	1.4796	80.68	-0.2312	-0.0527	0.1785	1092.7934	0.076465	-398.314247	-398.306656	-398.305712	-398.346466	28.226	
C	 0.1932070134	-1.1912134145	-0.0063252899	-0.384547
C	 0.0778676518	 0.0074881862	 0.0021519218	 0.23781
C	-0.0718564063	 1.3987666615	 0.0118880748	 0.140882
C	-1.163861458	 2.2359792078	 0.0317095544	 0.026468
N	-0.7162519295	 3.556292953	 0.0327575138	-0.302496
C	 0.5702314621	 3.4556819143	 0.014256202	 0.062944
O	 1.0487909857	 2.1936181271	 0.0006194626	-0.177578
C	-2.5289325772	 1.8823610999	 0.0487957477	 0.222289
C	-3.6928546191	 1.5777497545	 0.06334495	-0.385379
H	 0.2906407105	-2.2489725969	-0.0139919463	 0.202093
H	 1.3011155807	 4.2493695352	 0.0084391314	 0.161399
H	-4.7205289542	 1.3100178318	 0.0761820778	 0.196114
105.5627	157.3238	184.753	199.1106	420.1348	452.9788	498.3345	525.2955	562.3609	592.4618	628.8077	658.9619	663.8294	673.9109	698.5811	775.4772	852.5769	955.7608	1069.1092	1146.7375	1200.9703	1301.1958	1356.3943	1547.8137	1585.4426	2229.8355	2244.2094	3275.7103	3498.8771	3501.8513
C#CC1=C(N=CO1)C#C	C#Cc1c(nco1)C#C	
InChI=1S/C7H3NO/c1-3-6-7(4-2)9-5-8-6/h1-2,5H	InChI=1S/C7H3NO/c1-3-6-7(4-2)9-5-8-6/h1-2,5H
