20
gdb 93135	2.21538	1.91314	1.36421	2.0891	78.64	-0.2339	0.0235	0.2575	1024.6991	0.172582	-403.136397	-403.128349	-403.127405	-403.168622	31.784	
C	-0.1228831427	 1.5957994274	-0.2455274334	-0.407543
C	-0.021677738	 0.0825533089	-0.0113721343	-0.025903
C	 0.6233455258	-0.65502685	-1.2032403942	-0.151746
N	 1.9566910414	-0.2482354914	-1.6124826095	-0.244578
C	 2.8542174333	 0.2516188184	-0.8885154708	 0.12162
O	 2.9201841858	 0.5632891202	 0.44393407	-0.232124
C	 2.1811761277	-0.1691169841	 1.397486244	 0.107156
C	 1.2677309445	 0.6108485444	 2.2952743586	-0.326297
C	 0.6970600837	-0.3427389653	 1.2666656901	-0.047786
H	 0.8567907092	 2.074576006	-0.3188464155	 0.135041
H	-0.6591833253	 1.7941017937	-1.1790990395	 0.114806
H	-0.6750243091	 2.0791873097	 0.5659285295	 0.115398
H	-1.0505967952	-0.2953404168	 0.0590701346	 0.076635
H	 0.6421976966	-1.7336609706	-0.9905403453	 0.106591
H	-0.0202682119	-0.5386560376	-2.0847392068	 0.104019
H	 3.7891518065	 0.5731855029	-1.3493092299	 0.117754
H	 2.7721590004	-0.9761759427	 1.823106206	 0.100816
H	 1.2186367479	 0.3462607474	 3.345573443	 0.114647
H	 1.1968231458	 1.672818545	 2.0917456631	 0.129419
H	 0.3357419737	-1.2892923654	 1.6614432304	 0.092076
108.8278	159.0514	227.7034	250.045	296.1664	335.3431	379.8287	442.5728	482.6322	506.0851	703.4686	730.4409	770.291	802.7614	850.8887	864.1273	930.6599	939.447	973.3022	997.0694	1014.8037	1035.8659	1064.7834	1086.9184	1109.0826	1125.7659	1134.3445	1174.4873	1187.0664	1251.1494	1293.7702	1313.9384	1365.53	1372.0204	1392.1478	1406.185	1419.8431	1434.3779	1478.8585	1486.05	1498.7877	1508.2702	1768.0881	2999.7908	3013.0051	3034.5917	3041.4862	3105.3286	3121.6274	3125.8071	3129.7749	3136.2332	3143.3691	3231.0948
CC1CN=COC2CC12	C[C@H]1CN=CO[C@H]2C[C@@H]12	
InChI=1S/C7H11NO/c1-5-3-8-4-9-7-2-6(5)7/h4-7H,2-3H2,1H3	InChI=1S/C7H11NO/c1-5-3-8-4-9-7-2-6(5)7/h4-7H,2-3H2,1H3/t5-,6-,7-/m0/s1
