15
gdb 30968	2.47738	1.42082	0.94909	2.9041	66.44	-0.2054	0.0398	0.2452	1196.0192	0.111311	-491.082848	-491.073911	-491.072966	-491.117081	31.61	
C	 0.3469659329	 1.2238570979	 0.3399902965	-0.330103
N	-0.3575905456	 0.0962158317	-0.2815303573	-0.389389
C	 0.3614431938	-0.682871888	-1.1522682303	 0.185564
C	 0.7280682378	-1.9638258252	-1.14031679	 0.334862
O	 0.4778238002	-2.9558388199	-0.2831938042	-0.41313
O	 1.4640992125	-2.2710773059	-2.2617275565	-0.259058
C	 1.5602893432	-1.0984122372	-3.0071553792	 0.506579
N	 2.1660850747	-0.9509014392	-4.0980224748	-0.578641
O	 0.8881914974	-0.1272116187	-2.3662245043	-0.235661
H	 1.2132002301	 0.8416999329	 0.8868433975	 0.134697
H	 0.6953653986	 1.975333828	-0.381311732	 0.128938
H	-0.3240672459	 1.7066197323	 1.0553711401	 0.125386
H	-1.2580551034	 0.3773957945	-0.6535310173	 0.241027
H	 1.1061272788	-3.6688162528	-0.4500746409	 0.316657
H	 2.595307765	-1.8235410305	-4.3933038073	 0.232272
72.0147	108.0431	124.103	156.9113	194.9164	279.5558	298.9206	349.7277	457.6125	591.8996	601.2788	629.7474	657.2428	725.2278	736.7766	765.134	820.9453	929.1851	993.0679	1042.7517	1054.3702	1146.7717	1166.708	1192.0426	1256.5894	1375.574	1399.7644	1457.8804	1477.0921	1492.2484	1521.0878	1791.9961	1890.9339	3011.1398	3087.7268	3123.2884	3522.2356	3548.1949	3809.3113
CNC1=C(O)OC(=N)O1	CNC1=C(O)O[C@@H]([NH])O1	
InChI=1S/C4H6N2O3/c1-6-2-3(7)9-4(5)8-2/h5-7H,1H3	InChI=1S/C4H7N2O3/c1-6-2-3(7)9-4(5)8-2/h4-7H,1H3/t4-/m0/s1
