19
gdb 55778	3.3609	0.98376	0.87516	3.586	78.91	-0.2277	-0.0254	0.2024	1375.4757	0.15763	-423.049506	-423.040109	-423.039165	-423.085524	32.88	
C	-0.7966247428	 0.7051976409	 0.371622391	-0.474477
C	 0.4806554107	-0.0012143564	-0.0338605411	 0.384262
O	 1.4750116012	-0.0008275633	 0.6518361005	-0.295048
C	 0.4390746891	-0.7708837411	-1.365886833	-0.402121
C	 0.1094754446	-2.2121437846	-1.1049510371	 0.301681
C	-1.0016748198	-2.8822396748	-1.4027248053	-0.214286
C	-0.8847931637	-4.3057899281	-0.9397645795	-0.098043
O	 0.3872676765	-4.3893182599	-0.3036076161	-0.264164
C	 1.0712966081	-3.1450368426	-0.4093854167	-0.147547
H	-1.0042929464	 1.5242449951	-0.3273543211	 0.142537
H	-1.6442296293	 0.0139714803	 0.3129525344	 0.144187
H	-0.7036831962	 1.1029570854	 1.3825933705	 0.145029
H	-0.2994711419	-0.3317442052	-2.0428088494	 0.110326
H	 1.4332625229	-0.6847608074	-1.8183989019	 0.131066
H	-1.871598006	-2.4945505613	-1.9189407965	 0.099235
H	-1.674865604	-4.5855886347	-0.2249177785	 0.105733
H	-0.9407700915	-5.0228674661	-1.775638614	 0.103645
H	 2.0026629763	-3.2669250372	-0.9874582478	 0.102466
H	 1.359743772	-2.7867874489	 0.5889064517	 0.125518
30.8182	56.6469	94.3497	123.7177	155.9695	245.662	288.2657	377.5677	461.5552	498.77	556.7577	673.0907	770.6121	781.4494	838.3365	881.0219	916.6362	925.8371	964.5248	1018.4458	1022.8987	1045.4588	1067.9606	1110.7238	1145.5947	1173.6439	1197.5614	1222.2173	1235.9385	1288.9496	1319.1174	1370.5737	1379.3935	1395.7152	1460.346	1470.7115	1475.8304	1516.81	1528.9565	1720.3277	1816.2296	2961.5929	2968.0088	2983.5546	3017.0268	3035.2191	3040.7691	3097.3503	3099.5983	3155.2564	3208.1479
CC(=O)CC1=CCOC1	CC(=O)CC1=CCOC1	
InChI=1S/C7H10O2/c1-6(8)4-7-2-3-9-5-7/h2H,3-5H2,1H3	InChI=1S/C7H10O2/c1-6(8)4-7-2-3-9-5-7/h2H,3-5H2,1H3
