18
gdb 28565	5.19753	0.92614	0.83303	3.1023	82.71	-0.1918	0.0313	0.2231	1395.1715	0.148021	-401.966976	-401.958377	-401.957433	-402.001043	31.549	
C	 0.2034975902	 1.4993698778	 0.0430029765	-0.505795
C	 0.0300686071	 0.0203995617	-0.0624628123	 0.302171
C	-0.179010512	-0.7950744943	-1.1536903847	-0.219041
C	-0.2713466928	-2.1367863625	-0.6920672067	-0.226798
C	-0.1176371817	-2.1131333118	 0.6761813513	 0.31036
N	 0.0696447638	-0.797985467	 1.0435470048	-0.366395
C	-0.1362814526	-3.1973836473	 1.6737376572	-0.045823
C	-1.2041764366	-4.2165758656	 1.7306887967	-0.172784
O	 0.0774582006	-4.5231158526	 1.1840284186	-0.224907
H	 1.1727964826	 1.7745737687	 0.4780012796	 0.125823
H	 0.14974958	 1.9495947545	-0.9507496371	 0.138957
H	-0.5747197699	 1.9676571215	 0.6593479962	 0.124774
H	-0.2464053413	-0.4584061038	-2.1774718913	 0.089009
H	-0.4087379278	-3.0270516205	-1.2854327933	 0.103518
H	 0.1979276813	-0.4781089443	 1.9886131941	 0.252448
H	 0.3856481003	-2.9777583419	 2.6086276657	 0.083421
H	-1.440572382	-4.707596398	 2.6748267844	 0.11191
H	-2.0174588593	-4.1579021446	 1.0095409204	 0.119151
41.6526	104.5119	140.689	157.0363	244.2011	302.1558	408.715	438.6163	466.1442	638.9168	643.8105	678.7884	685.9524	791.1116	836.0066	853.5947	888.057	974.8628	996.0213	1003.6428	1031.8689	1062.2928	1064.3098	1093.7972	1148.4305	1167.4222	1200.2789	1256.3419	1274.639	1291.8554	1393.5166	1417.0776	1437.6295	1474.7401	1480.7245	1502.9127	1519.7011	1543.6899	1636.3637	3013.6566	3056.371	3071.0268	3077.7988	3122.9714	3172.1201	3240.6496	3261.4811	3665.5871
CC1=CC=C(N1)C1CO1	Cc1ccc([nH]1)[C@H]1CO1	
InChI=1S/C7H9NO/c1-5-2-3-6(8-5)7-4-9-7/h2-3,7-8H,4H2,1H3	InChI=1S/C7H9NO/c1-5-2-3-6(8-5)7-4-9-7/h2-3,7-8H,4H2,1H3/t7-/m1/s1
