16
gdb 54055	1.93882	1.565	0.93851	4.9302	73.99	-0.2444	-0.0045	0.2399	1213.4059	0.123364	-434.060174	-434.050908	-434.049964	-434.094614	33.865	
N	-0.1538137063	 1.2978373162	-0.3359052293	-0.563786
C	 0.0278309479	-0.0288706855	 0.0183711489	 0.413197
N	 1.1094951199	-0.593037262	 0.3934549944	-0.53372
N	-1.1717807136	-0.7764979051	 0.0071711441	-0.111556
C	-2.4904343202	-0.1373651732	 0.0262980789	-0.328145
C	-2.8992129003	 0.4145574591	-1.2663530967	 0.30637
C	-3.2162186208	 0.8920237856	-2.3233127148	-0.452947
C	-1.1303462543	-2.1643274184	 0.0583402952	 0.174377
O	-2.120195498	-2.8568369948	 0.1211706702	-0.330568
H	 0.7031168363	 1.8167200951	-0.4516650164	 0.25282
H	-0.8472277543	 1.4952087125	-1.0464648852	 0.265277
H	 1.9092724264	 0.024062905	 0.2719365658	 0.210374
H	-3.1884045651	-0.9231686253	 0.3287307589	 0.184287
H	-2.5011113322	 0.649631435	 0.7865672675	 0.157113
H	-3.5207347294	 1.2901113168	-3.2602765475	 0.211693
H	-0.100599096	-2.540594101	 0.0363581461	 0.145211
61.8732	75.4497	129.9629	205.4684	263.3538	317.3196	322.4856	350.7044	438.7958	456.9427	459.2925	575.1747	630.6745	633.2535	662.4357	673.3485	723.8853	794.794	837.5264	948.7152	984.3922	1051.035	1096.3544	1123.622	1169.8321	1264.6618	1339.4872	1375.2903	1407.9204	1454.7418	1462.4296	1644.6586	1729.3927	1794.9861	2233.9104	3056.5552	3080.6864	3105.2965	3499.2427	3511.2438	3538.0003	3665.2833
NC(=N)N(CC#C)C=O	NC(=N)N(CC#C)C=O	
InChI=1S/C5H7N3O/c1-2-3-8(4-9)5(6)7/h1,4H,3H2,(H3,6,7)	InChI=1S/C5H7N3O/c1-2-3-8(4-9)5(6)7/h1,4H,3H2,(H3,6,7)
