14
gdb 15978	3.57183	1.76185	1.39449	2.4856	58.61	-0.2534	-0.0362	0.2172	873.7375	0.105003	-419.626357	-419.619045	-419.618101	-419.658635	25.742	
O	-0.3726583252	 0.1795227027	-0.2575502862	-0.228913
C	-0.035932897	 1.2670155887	 0.1241184422	 0.134113
C	 1.3228287975	 1.8884822477	-0.114667487	-0.034642
O	 2.264796208	 1.0294297638	-0.7642657352	-0.270784
C	 2.4148556933	 1.9142149569	-1.8981731113	-0.141387
C	 1.3963555174	 2.8772867356	-1.2972505716	 0.342362
C	 0.4126832509	 3.7778851129	-1.8927865225	-0.254104
O	 1.5650936877	 4.2629338786	-1.176916686	-0.247512
H	-0.7285021602	 1.9380008767	 0.6861628406	 0.076816
H	 1.7037592835	 2.3145722501	 0.8258828308	 0.113423
H	 3.4282196597	 2.3246444088	-1.9772727352	 0.124392
H	 2.1315678153	 1.4286437471	-2.8386320976	 0.124826
H	 0.4248581144	 3.9518491646	-2.9672920213	 0.131618
H	-0.544175485	 3.9483930459	-1.4026752598	 0.129792
75.056	84.5328	211.066	249.4932	304.0567	347.4663	440.9922	545.3999	750.4988	783.4584	849.583	872.7589	923.0307	944.6899	989.1553	1023.0035	1101.2518	1108.6507	1122.4878	1150.4808	1160.9193	1181.6173	1222.2678	1314.6126	1342.3892	1414.8206	1446.8941	1510.6121	1542.3511	1843.1121	2849.5828	3002.3906	3029.3853	3080.6611	3091.6268	3180.6865
O=CC1OCC11CO1	O=C[C@H]1OC[C@]21CO2	
InChI=1S/C5H6O3/c6-1-4-5(2-7-4)3-8-5/h1,4H,2-3H2	InChI=1S/C5H6O3/c6-1-4-5(2-7-4)3-8-5/h1,4H,2-3H2/t4-,5-/m1/s1
