20
gdb 28428	2.98634	1.29762	0.91573	1.443	92.74	-0.1908	0.0133	0.2041	1302.6665	0.171826	-366.095588	-366.086386	-366.085442	-366.129709	35.006	
C	-0.0600198407	 1.5359441769	 0.0033057293	-0.493186
C	-0.025647849	 0.0269212219	-0.0106211184	 0.305306
C	 0.0110514754	-0.6908759751	-1.206011178	-0.204099
C	 0.0652950578	-2.0797659232	-1.2081790307	-0.166423
C	 0.0894699476	-2.8001993746	-0.0104406236	 0.198073
N	 0.2084908886	-4.1970931859	-0.0197167478	-0.589588
C	 0.0538647958	-2.0969616488	 1.2103429478	 0.290761
C	 0.0864700816	-2.8466388579	 2.5173891923	-0.516053
C	-0.0060807885	-0.7057920104	 1.1792538088	-0.282251
H	 0.938954884	 1.964105822	 0.1564970018	 0.126397
H	-0.4407145222	 1.9338554714	-0.9420981182	 0.118363
H	-0.6977615044	 1.9163650848	 0.8079616348	 0.120214
H	-0.0093062529	-0.1594849397	-2.1533022028	 0.082769
H	 0.0874465987	-2.6189817917	-2.1515888777	 0.074837
H	-0.0620485103	-4.6232220949	-0.8949262704	 0.241149
H	-0.2376578386	-4.6640047354	 0.7569530952	 0.242923
H	 0.9628093573	-3.5031771066	 2.5828879498	 0.134106
H	 0.1165789298	-2.1575607419	 3.3648983627	 0.123858
H	-0.7991247252	-3.4846924953	 2.65102545	 0.117212
H	-0.0374358548	-0.1721381255	 2.126610715	 0.075633
36.5066	136.8381	176.6152	200.1134	274.6947	304.8284	318.301	343.8839	444.4669	449.3667	485.7566	563.1299	569.5919	650.133	727.5122	744.2083	787.2319	830.3268	899.779	921.2584	942.5143	998.4099	1032.3413	1058.8826	1061.4382	1088.8756	1174.6375	1180.9942	1260.4293	1310.4634	1321.8128	1353.5286	1411.4776	1413.8042	1445.246	1483.3594	1487.2198	1494.5079	1506.955	1543.2052	1623.1592	1648.4625	1667.3216	3001.4827	3020.2154	3054.2603	3075.3289	3105.3123	3114.3716	3148.2375	3151.9151	3172.3225	3555.1196	3650.9604
CC1=CC=C(N)C(C)=C1	Cc1ccc(N)c(C)c1	
InChI=1S/C8H11N/c1-6-3-4-8(9)7(2)5-6/h3-5H,9H2,1-2H3	InChI=1S/C8H11N/c1-6-3-4-8(9)7(2)5-6/h3-5H,9H2,1-2H3
