19
gdb 112781	2.43357	1.3557	0.99324	1.7331	77.7	-0.2487	0.0376	0.2863	1228.8002	0.15679	-422.967317	-422.957744	-422.9568	-423.001751	35.467	
C	 0.1657533323	 0.9948233644	-0.4104328426	-0.24427
O	-0.4373886706	 0.1867338253	 0.5793392281	-0.229067
C	 0.4777584935	-0.4843865681	 1.3857037352	 0.162537
C	-0.1622918497	-1.3825714621	 2.4564273862	-0.30759
C	 0.9491410933	-2.4338856206	 2.1998194673	 0.158101
O	 0.6461476105	-3.7935227941	 2.2253642079	-0.426791
C	 1.249869526	-1.7414230751	 0.8094813497	-0.318757
C	 0.5722624781	-2.4094630785	-0.2798425908	 0.334515
C	-0.0133927213	-3.0174827306	-1.138715918	-0.45673
H	 0.7542503386	 0.3971710711	-1.1202551713	 0.117065
H	-0.639874611	 1.4943461085	-0.9529626804	 0.130263
H	 0.8217946456	 1.7578366575	 0.0368270826	 0.104288
H	 1.2118600794	 0.216724075	 1.812093901	 0.069742
H	-0.2803113275	-0.9849533007	 3.4657309442	 0.10523
H	-1.1267129439	-1.7479250146	 2.0918614894	 0.120833
H	 1.7982565476	-2.2915072874	 2.8734002422	 0.095137
H	 0.0803452663	-3.9797109203	 1.4641664448	 0.283419
H	 2.3070166021	-1.5921567723	 0.5741337888	 0.10049
H	-0.5165923391	-3.5238190572	-1.9251628142	 0.201585
72.5158	104.0986	135.1975	155.0308	200.6209	254.9895	332.8817	373.3695	396.2751	421.1595	447.4743	544.5666	621.6102	645.0733	658.3664	673.2529	763.1423	807.3822	895.9554	959.8014	1027.5071	1058.6926	1074.5891	1090.284	1136.0755	1171.4839	1182.2102	1185.9551	1241.6885	1246.3319	1252.1943	1269.2684	1338.1741	1343.7248	1392.1781	1447.5225	1477.5692	1485.6861	1490.1969	1505.295	2220.9975	2976.5238	2983.9067	3039.0771	3065.9731	3069.5844	3080.9045	3121.456	3131.3102	3501.5021	3752.2536
COC1CC(O)C1C#C	CO[C@H]1C[C@@H](O)[C@H]1C#C	
InChI=1S/C7H10O2/c1-3-5-6(8)4-7(5)9-2/h1,5-8H,4H2,2H3	InChI=1S/C7H10O2/c1-3-5-6(8)4-7(5)9-2/h1,5-8H,4H2,2H3/t5-,6-,7+/m1/s1
