16
gdb 67915	2.13093	1.78793	1.20301	4.8279	75.67	-0.2619	-0.0171	0.2448	1055.8473	0.123766	-396.903684	-396.895444	-396.8945	-396.936462	30.776	
C	 0.006745024	 1.5495969703	 0.0607999179	-0.491851
C	-0.0145895616	 0.0544675187	-0.0250748347	 0.32859
C	-1.2762532138	-0.8148100114	-0.0927112134	-0.420939
C	-0.5674091065	-1.700972068	 0.9346978326	 0.385144
N	-0.7749777824	-2.726521432	 1.6223372336	-0.486456
N	 0.6072128833	-0.8401554165	 1.0493345184	-0.177804
C	 1.1926808631	-0.7546233066	-0.3308241256	-0.216926
C	 1.1719144302	-1.8723988664	-1.2420680037	 0.319013
N	 1.1544714951	-2.7527820891	-1.991730364	-0.334709
H	 0.99247624	 1.9103796183	 0.3661890983	 0.141945
H	-0.236479848	 1.9940718371	-0.910398969	 0.139987
H	-0.7279683417	 1.9045237279	 0.7903278135	 0.138956
H	-2.1559463616	-0.3198491466	 0.3271304365	 0.139689
H	-1.5337734959	-1.2597508499	-1.0568214596	 0.150012
H	-1.6811066235	-3.1420819389	 1.4005973069	 0.235671
H	 2.1426144793	-0.228478027	-0.3138484077	 0.149679
99.9607	146.1156	156.5024	189.0227	292.2915	327.97	379.838	466.4008	495.7283	556.244	596.6873	622.1349	680.5153	745.3266	873.7382	899.1787	912.2035	949.6104	965.9317	993.7536	1046.315	1079.026	1091.0779	1149.5291	1217.6741	1251.6402	1300.449	1305.1236	1408.7583	1430.055	1464.1074	1482.872	1490.8864	1813.5684	2354.1652	3038.2563	3067.5647	3104.3906	3121.6062	3122.5481	3161.7377	3476.4282
CC12CC(=N)N1C2C#N	C[C@]12C[C]([NH])N1[C@H]2C#N	
InChI=1S/C6H7N3/c1-6-2-5(8)9(6)4(6)3-7/h4,8H,2H2,1H3	InChI=1S/C6H7N3/c1-6-2-5(8)9(6)4(6)3-7/h4,8H,2H2,1H3/t4-,6+,9?/m0/s1
