17
gdb 27536	4.10576	1.07605	0.91319	2.3782	76.45	-0.2218	0.0029	0.2247	1279.74	0.137424	-418.023683	-418.015573	-418.014629	-418.057034	29.591	
C	-0.0010316173	 1.4354216871	 0.0883376299	-0.48927
C	-0.0704716631	-0.0465423608	 0.0074239906	 0.389402
N	-1.0927131493	-0.8181895547	 0.2048480922	-0.370299
C	-0.615499729	-2.1140205651	 0.0018260352	 0.282756
C	 0.6981286712	-2.0386624147	-0.3190412691	-0.146137
O	 1.0632268589	-0.7160765538	-0.3146576634	-0.173374
C	-1.5019995604	-3.2823909585	 0.1244466845	-0.113818
C	-2.5866410161	-3.2769420578	 1.1461745259	-0.236754
N	-2.9174230964	-3.1508263379	-0.2776841145	-0.322842
H	 0.7242301604	 1.7540513207	 0.8440075099	 0.148709
H	 0.3093454512	 1.8667454647	-0.868834843	 0.149053
H	-0.9849383116	 1.8232098115	 0.3523756619	 0.157177
H	 1.4667304288	-2.7515693287	-0.5608768019	 0.146716
H	-1.0487942187	-4.2310756717	-0.1500881983	 0.089389
H	-2.8886998613	-4.2120896585	 1.6096838834	 0.116972
H	-2.6639342823	-2.3950146106	 1.7751166323	 0.127347
H	-3.0900215052	-2.1678523413	-0.4838152256	 0.244973
79.5839	95.2973	149.5267	154.8809	264.0159	338.1797	440.1308	446.595	616.5176	661.7078	724.6042	738.2192	760.4802	829.7235	882.7461	944.441	973.4161	995.5828	1009.0862	1051.1687	1066.6876	1103.0613	1132.1277	1139.3309	1180.0212	1210.4934	1272.1116	1307.3324	1309.8595	1353.6209	1402.1885	1416.4404	1475.9626	1481.0114	1500.152	1625.39	1642.5699	3046.3097	3101.4088	3111.7075	3144.7668	3158.8517	3204.5818	3295.5492	3484.8919
CC1=NC(=CO1)C1CN1	Cc1nc(co1)[C@H]1CN1	
InChI=1S/C6H8N2O/c1-4-8-6(3-9-4)5-2-7-5/h3,5,7H,2H2,1H3	InChI=1S/C6H8N2O/c1-4-8-6(3-9-4)5-2-7-5/h3,5,7H,2H2,1H3/t5-/m1/s1
