22
gdb 121644	5.0792	0.65222	0.64293	3.3075	85.81	-0.2414	0.0353	0.2767	1875.2783	0.193851	-404.381369	-404.371042	-404.370098	-404.418416	36.907	
C	-0.2087415879	 1.4265150928	-0.5359166695	-0.377521
C	-0.3894081389	-0.0933112113	-0.5463277331	-0.16685
C	-1.1353021646	-0.5983161252	 0.6952982114	-0.147611
N	-1.3097123845	-2.0406471227	 0.7156681196	-0.339136
C	-2.4824704885	-2.6470047613	 0.3649285658	 0.440242
O	-3.4890616762	-2.0203582048	 0.0673579458	-0.401057
C	-2.4504622683	-4.1436479833	 0.3822461634	-0.124924
C	-3.7322816832	-4.8519725805	 0.7770185567	-0.248539
C	-3.2988053773	-4.8584513957	-0.6528774691	-0.248552
H	 0.3212563229	 1.7693347364	-1.4293321857	 0.116016
H	-1.1766240279	 1.9384861049	-0.5052920259	 0.123749
H	 0.3661759456	 1.7538818801	 0.3378254389	 0.113284
H	-0.9490996698	-0.4022488293	-1.4364946288	 0.115617
H	 0.5907495564	-0.5848607643	-0.6067638156	 0.086821
H	-0.6039074435	-0.2897966006	 1.6047056427	 0.098471
H	-2.1388541802	-0.1674983684	 0.7315221113	 0.14613
H	-0.5040995771	-2.6183575274	 0.8912697331	 0.239818
H	-1.5148562261	-4.6138793878	 0.668377783	 0.072913
H	-3.640349088	-5.7623129045	 1.3581831295	 0.111582
H	-4.5609992373	-4.2056692217	 1.040671029	 0.139589
H	-3.8408101611	-4.2174569209	-1.3380155367	 0.138677
H	-2.9016842446	-5.7733793246	-1.0773467258	 0.111281
27.1777	51.8971	84.4441	93.0817	210.4832	238.3159	253.1721	284.0846	326.2192	346.2999	454.4539	524.6906	654.3727	746.5582	755.0191	790.9741	833.2757	839.0848	886.9744	913.6439	921.1897	954.8821	1036.2981	1068.0589	1081.9879	1095.507	1108.6753	1121.4908	1124.9903	1180.798	1209.9434	1219.2496	1236.1336	1280.369	1332.1062	1339.1092	1399.3423	1412.3356	1419.2065	1451.9885	1474.8777	1485.9547	1490.7383	1500.8957	1508.5244	1544.9275	1759.8341	3019.7242	3024.2301	3031.9312	3064.8797	3097.6791	3107.2907	3116.4644	3141.5525	3142.8601	3153.5665	3230.3089	3244.1497	3642.3654
CCCNC(=O)C1CC1	CCCNC(=O)C1CC1	
InChI=1S/C7H13NO/c1-2-5-8-7(9)6-3-4-6/h6H,2-5H2,1H3,(H,8,9)	InChI=1S/C7H13NO/c1-2-5-8-7(9)6-3-4-6/h6H,2-5H2,1H3,(H,8,9)
