12
gdb 123294	2.03165	1.89152	0.97954	4.2358	80.01	-0.2407	-0.0513	0.1894	1096.1112	0.077114	-394.464189	-394.456586	-394.455642	-394.4964	28.358	
C	 0.1528958474	-1.2279858469	-0.005920263	-0.413941
C	 0.0497336299	-0.0286861403	 0.0022011861	 0.255747
C	-0.0592988867	 1.370804956	 0.0114930817	 0.157929
C	-1.1515570577	 2.2363344037	 0.031834256	 0.093013
N	-0.6773409423	 3.5237515341	 0.0322382278	-0.257285
N	 0.6197061722	 3.5040811768	 0.0136042803	-0.101206
N	 1.0049546104	 2.2182730673	 0.000943798	-0.272389
C	-2.5243341495	 1.9146757285	 0.0496517255	 0.224232
C	-3.6949103331	 1.6382509129	 0.064795597	-0.381101
H	 0.2309295421	-2.2874973116	-0.0129086914	 0.206215
H	 1.9858143228	 1.9842626503	-0.0143759046	 0.291421
H	-4.7291197656	 1.3973180693	 0.0780425266	 0.197363
103.7704	163.7923	186.8533	200.2113	430.9518	449.6886	515.3681	523.7225	577.0591	594.2944	604.5389	635.6637	661.2035	682.3443	687.2805	713.7339	786.4483	1014.0356	1085.194	1177.215	1225.0788	1299.0553	1361.2408	1467.4615	1571.1567	2235.5676	2247.0089	3497.0173	3502.7338	3649.399
C#CC1=C(N=NN1)C#C	C#Cc1c(nn[nH]1)C#C	
InChI=1S/C6H3N3/c1-3-5-6(4-2)8-9-7-5/h1-2H,(H,7,8,9)	InChI=1S/C6H3N3/c1-3-5-6(4-2)8-9-7-5/h1-2H,(H,7,8,9)
