21
gdb 109582	2.07821	1.49721	1.10859	4.2074	73.54	-0.246	0.0421	0.288	1186.7628	0.181892	-461.344295	-461.334529	-461.333585	-461.378422	36.979	
C	-0.7564786507	 1.2180063595	-0.2945956595	-0.428266
C	-0.0217760008	-0.1020116158	-0.099267776	-0.009265
C	 1.3743335754	-0.2901141014	-0.7663257539	 0.03668
O	 2.1600673007	 0.8930516827	-0.8332094141	-0.43936
C	 1.8325820457	-1.0567151306	 0.5040121686	 0.142435
O	 3.1367670699	-0.777225321	 0.9663605691	-0.445208
C	 0.6130368973	-0.4677513769	 1.2860551187	-0.085304
C	 0.9976123598	 0.6881096678	 2.2107402546	-0.079855
O	 1.7721435631	 0.2221572912	 3.3019330781	-0.433623
H	-0.1237462847	 2.0745352728	-0.0467578287	 0.125845
H	-1.0888649665	 1.3325727687	-1.3332310877	 0.108232
H	-1.6479296023	 1.2668380583	 0.3387069783	 0.126277
H	-0.6668313524	-0.9259762573	-0.4247104647	 0.077
H	 1.4061184067	-0.8265851972	-1.7227269109	 0.067387
H	 1.8824211954	 1.4184499074	-1.5886297377	 0.297635
H	 1.7466046365	-2.1393914473	 0.3753000337	 0.088136
H	 3.3943691531	 0.0537388584	 0.5429189576	 0.303048
H	 0.0553103265	-1.2020778795	 1.8738943094	 0.07253
H	 1.5279468702	 1.4709218931	 1.6490223377	 0.087926
H	 0.0985376962	 1.148167029	 2.6358494191	 0.099756
H	 2.5504401808	-0.188829922	 2.9017123181	 0.287994
93.8607	155.7114	161.8172	177.9797	219.4291	225.1604	256.1931	285.5293	341.6339	441.211	454.0089	492.8545	543.7054	615.9314	616.9631	758.7897	785.7408	858.1938	868.0072	908.3188	980.8533	1012.4569	1015.6882	1073.1968	1098.8268	1126.0227	1145.8501	1165.0866	1172.078	1206.9184	1220.1442	1256.3678	1287.4057	1308.212	1328.1926	1341.0906	1370.9985	1400.6138	1406.7218	1418.7134	1440.6804	1451.2909	1497.3077	1503.9558	1518.4386	2996.9065	3018.2486	3030.0202	3041.3922	3056.4027	3065.2503	3078.467	3092.0373	3116.9935	3742.537	3752.3835	3842.6315
CC1C(O)C(O)C1CO	C[C@H]1[C@@H](O)[C@@H](O)[C@H]1CO	
InChI=1S/C6H12O3/c1-3-4(2-7)6(9)5(3)8/h3-9H,2H2,1H3	InChI=1S/C6H12O3/c1-3-4(2-7)6(9)5(3)8/h3-9H,2H2,1H3/t3-,4+,5-,6+/m1/s1
