21
gdb 40187	2.86225	1.51454	1.28685	1.7588	81.09	-0.2572	0.0791	0.3363	1077.0429	0.184919	-387.076207	-387.068479	-387.067534	-387.108232	31.455	
C	-0.0565784521	 1.5144044496	 0.0182325898	-0.288267
C	 1.2863709717	 0.8204794773	-0.0014947626	-0.025042
C	 2.1837411014	 0.8615564597	 1.2376219861	-0.221545
C	 1.8729972326	-0.2543550555	 2.252985437	-0.269988
C	 0.3799946183	-0.3760606822	 2.4731001153	 0.423091
C	-0.1804738505	-0.623895289	 3.8053641141	-0.249683
O	-0.2052733444	 0.6926756452	 3.2455604095	-0.281583
C	-0.3885599359	-0.7934369753	 1.2322839323	-0.28514
C	 0.0020913739	 0.0097766906	 0.0013301766	-0.02054
H	-0.3525011501	 1.9900172211	 0.9480189871	 0.133663
H	-0.3896269801	 2.0290236421	-0.8766918744	 0.102099
H	 1.8169275779	 0.8529749031	-0.9479108159	 0.079457
H	 3.2325908007	 0.78498482	 0.9340301712	 0.095414
H	 2.077500196	 1.829706878	 1.7392327938	 0.114869
H	 2.2453640758	-1.215750295	 1.8759494323	 0.097669
H	 2.3803681722	-0.0550501697	 3.2017729638	 0.098463
H	-1.1521108635	-1.1085307342	 3.9017772949	 0.107808
H	 0.4857872235	-0.7560788008	 4.6575695314	 0.108164
H	-0.1753170138	-1.8555206366	 1.049301239	 0.099422
H	-1.4640262265	-0.7106367105	 1.4264090907	 0.10406
H	-0.2638675472	-0.4667357078	-0.9379640023	 0.077611
97.0123	134.5116	279.3193	309.9418	362.5775	377.8445	390.8608	478.7741	517.1021	631.1742	724.0944	757.197	794.3841	806.0397	849.7911	873.9332	898.8449	929.6439	964.0588	991.216	1012.9794	1019.402	1066.2912	1084.5727	1115.8482	1124.9053	1134.6797	1141.2181	1163.8582	1194.7212	1234.1696	1246.2469	1248.6895	1288.7422	1328.9311	1354.7686	1367.2688	1380.3619	1416.2694	1439.7551	1468.6673	1481.3908	1491.4979	1501.6894	1532.5529	3012.975	3025.629	3039.2299	3060.6385	3073.3234	3075.1124	3086.3713	3127.3453	3137.8829	3151.594	3157.4968	3214.8707
C1C2CCC3(CO3)CC12	C1[C@H]2CC[C@]3(CO3)C[C@@H]12	
InChI=1S/C8H12O/c1-2-8(5-9-8)4-7-3-6(1)7/h6-7H,1-5H2	InChI=1S/C8H12O/c1-2-8(5-9-8)4-7-3-6(1)7/h6-7H,1-5H2/t6-,7-,8-/m1/s1
