19
gdb 15143	6.58764	0.77797	0.75589	3.6172	73.6	-0.2487	0.0343	0.283	1515.1781	0.165667	-365.077445	-365.068595	-365.067651	-365.112451	31.268	
O	 0.2031686612	 0.2167705698	 0.8587738661	-0.322959
C	 0.113352199	 1.2423073797	 0.2173213413	 0.152735
N	 1.1020216888	 1.7867358008	-0.5412393765	-0.273516
C	 2.436203741	 1.2151221327	-0.6407990855	-0.156347
C	 3.4940473321	 2.0108824443	 0.137594771	-0.211317
C	 4.8733447985	 1.3998012648	 0.0190177107	 0.040449
C	 5.7530240746	 1.7207825663	-1.1658218374	-0.256381
C	 6.1068199395	 2.2447458298	 0.2045308671	-0.276727
H	-0.8130727624	 1.8501379406	 0.1777708452	 0.070722
H	 0.9138926821	 2.6643991897	-0.9992832192	 0.244287
H	 2.3606106064	 0.1989389257	-0.2464860353	 0.148201
H	 2.7233491023	 1.1441433625	-1.6965535943	 0.109935
H	 3.5212190437	 3.0447347242	-0.2335075336	 0.083746
H	 3.1896579529	 2.0642448152	 1.1900921691	 0.114661
H	 4.9408872232	 0.38043678	 0.3917595791	 0.088977
H	 6.3629638733	 0.9314695895	-1.5908223505	 0.113435
H	 5.3792197503	 2.4319959839	-1.8960243971	 0.106176
H	 5.970342952	 3.3048807302	 0.3924483688	 0.110118
H	 6.9569274915	 1.8105668103	 0.7187615111	 0.113804
30.8125	63.8153	102.5561	144.133	229.8536	273.6817	352.8535	410.5247	440.7184	530.0202	729.8496	775.8967	797.7918	828.5193	846.5365	907.7909	965.7867	998.1748	1029.4196	1036.8064	1059.9455	1069.3097	1080.8989	1141.753	1178.9654	1199.226	1214.1802	1229.7792	1260.7852	1304.6051	1334.204	1396.6419	1419.6276	1432.0081	1469.377	1478.2011	1493.7742	1508.5744	1535.8399	1807.2806	2929.8606	3011.7523	3036.3791	3058.3849	3117.3561	3127.3357	3132.5381	3136.6492	3205.881	3221.2629	3631.6463
O=CNCCC1CC1	O=CNCCC1CC1	
InChI=1S/C6H11NO/c8-5-7-4-3-6-1-2-6/h5-6H,1-4H2,(H,7,8)	InChI=1S/C6H11NO/c8-5-7-4-3-6-1-2-6/h5-6H,1-4H2,(H,7,8)
