20
gdb 8522	4.27682	1.87579	1.58586	0.0935	79.06	-0.2813	0.0891	0.3705	892.4346	0.176965	-311.800079	-311.792765	-311.791821	-311.830888	29.828	
C	-0.1215269193	 1.562328284	-0.0054779801	-0.457151
C	-0.0608410916	 0.0357231	-0.005415369	 0.327904
C	-1.4244569671	-0.5578255253	-0.3553556412	-0.457153
C	 1.1820853337	-0.6183066443	-0.6707711668	-0.068557
C	 2.1195857286	-0.2765539084	 0.541539643	-0.047179
C	 2.6271151239	-1.725094086	 0.6551078027	-0.279926
C	 1.1415865719	-1.8680517203	 0.2789110407	-0.047183
C	 0.7208615115	-0.6365728719	 1.1574603557	-0.068558
H	 0.8414501459	 2.0172829759	 0.242057471	 0.111635
H	-0.4260973439	 1.9403372257	-0.9886464193	 0.110148
H	-0.8578559285	 1.9232474608	 0.7224164442	 0.110148
H	-1.7540804735	-0.2204455113	-1.3452023447	 0.110147
H	-1.4129575761	-1.6511616978	-0.3634119875	 0.111634
H	-2.1857274933	-0.2375931333	 0.3658876712	 0.110148
H	 1.4740054768	-0.6238526876	-1.7242453071	 0.059145
H	 2.6744515916	 0.6498764341	 0.6907754104	 0.069236
H	 3.3587844449	-2.0515080503	-0.0915060271	 0.088591
H	 2.9186431925	-2.0689389865	 1.6531560925	 0.088591
H	 0.5661344173	-2.7809963905	 0.1246161896	 0.069236
H	 0.4781904448	-0.6632906268	 2.2230365517	 0.059145
191.1095	222.5445	236.3374	239.7803	306.3052	358.1752	452.898	530.2814	605.3356	743.6279	814.5601	826.4504	850.8884	853.4542	884.477	918.5801	947.7446	955.8914	960.9415	1003.1173	1008.5307	1024.2602	1070.2891	1099.4647	1142.5512	1152.7097	1153.7554	1155.0318	1177.4744	1207.2393	1222.4564	1234.2759	1249.0662	1313.587	1340.5233	1403.4143	1421.0145	1481.3171	1487.6934	1505.6252	1506.1928	1507.5666	3021.9733	3027.0876	3031.6376	3074.8129	3076.735	3077.5084	3082.5371	3087.3798	3099.7915	3106.3147	3111.4787	3114.8285
CC1(C)C2C3CC2C13	CC1(C)[C@H]2[C@@H]3C[C@H]2[C@H]13	
InChI=1S/C8H12/c1-8(2)6-4-3-5(6)7(4)8/h4-7H,3H2,1-2H3	InChI=1S/C8H12/c1-8(2)6-4-3-5(6)7(4)8/h4-7H,3H2,1-2H3/t4-,5+,6-,7+
