23
gdb 115736	2.69341	1.0318	0.82047	1.3745	86.15	-0.2581	0.0777	0.3359	1473.4946	0.205978	-388.258935	-388.249368	-388.248424	-388.293774	36.053	
O	-0.1315818796	 1.4725201282	-0.1476672569	-0.425417
C	 0.0140121672	 0.0796285253	 0.0997799879	-0.088217
C	-1.3699635205	-0.5436292359	 0.021946773	 0.002406
C	-1.9408086409	-0.600592082	-1.4236597403	-0.217526
C	-1.5271917932	-2.0945247811	-1.5053504968	-0.24158
C	-1.3979632191	-2.1110975221	 0.0462705404	 0.015244
C	-0.2845650967	-2.8946817561	 0.6881891171	 0.023488
C	-0.3476235421	-3.2615015028	 2.1522853131	-0.271841
C	-0.5100648417	-4.3299303883	 1.1007857092	-0.280552
H	 0.7412026918	 1.874955351	-0.1193374118	 0.283603
H	 0.6853143888	-0.3810422056	-0.6440395918	 0.078721
H	 0.4521898216	-0.1048220765	 1.0932703945	 0.088019
H	-2.0037497777	-0.0495045835	 0.7642087325	 0.068976
H	-3.0261715286	-0.4715173387	-1.4422258436	 0.096075
H	-1.4984501223	 0.0915638752	-2.1432380415	 0.104357
H	-2.2320441286	-2.7965556626	-1.9576671118	 0.092625
H	-0.5555986186	-2.2286435349	-1.9912537277	 0.095564
H	-2.34982861	-2.4322796907	 0.4860795238	 0.063535
H	 0.7081212427	-2.6761405512	 0.3019825612	 0.075398
H	 0.5691173803	-3.2430052957	 2.7314683784	 0.10823
H	-1.2289465616	-2.9615448195	 2.7101051868	 0.110198
H	-1.500345357	-4.747997379	 0.9510570111	 0.109905
H	 0.2963008658	-5.0411940636	 0.9598994931	 0.108789
63.9577	109.2489	122.3888	130.1567	209.8475	252.9971	276.5765	311.5772	395.2166	422.4509	528.3691	668.0736	748.1589	794.4838	826.0286	831.5589	887.9893	906.0478	914.3971	929.6268	957.0071	979.1802	1004.2466	1056.0725	1065.4535	1071.6424	1078.9356	1091.2208	1136.714	1150.2435	1182.0731	1197.4804	1211.4669	1227.7759	1241.4271	1245.2114	1261.3217	1262.1712	1286.4401	1302.5533	1321.6657	1364.8613	1433.362	1459.2289	1469.7856	1484.5525	1499.046	1505.2792	1522.7761	2957.9265	2990.27	3026.914	3051.3829	3058.2576	3068.3942	3098.4104	3118.5472	3127.1244	3130.2206	3134.4748	3204.6947	3220.1168	3829.0232
OCC1CCC1C1CC1	OC[C@H]1CC[C@H]1C1CC1	
InChI=1S/C8H14O/c9-5-7-3-4-8(7)6-1-2-6/h6-9H,1-5H2	InChI=1S/C8H14O/c9-5-7-3-4-8(7)6-1-2-6/h6-9H,1-5H2/t7-,8+/m1/s1
