20
gdb 116576	4.53756	0.91614	0.84875	2.5917	82.61	-0.2378	0.0268	0.2646	1447.1953	0.171209	-403.155095	-403.146443	-403.145499	-403.189418	32.467	
C	 0.041884491	 1.6776896597	-0.0201206644	-0.366541
C	 0.3093051306	 0.1755547651	 0.0475335414	-0.126683
N	 0.9922048298	-0.2722667036	-1.1617163117	-0.327801
C	 1.7094483549	-1.3037906524	-1.1233450965	 0.413873
C	 2.4919647366	-1.8818994594	-2.2955930926	-0.331035
C	 3.3452871479	-2.9686517384	-1.6720340672	-0.070442
C	 4.2741882271	-2.5573878739	-0.5426173532	-0.314337
C	 2.8914308682	-3.0582492415	-0.2429601713	 0.099305
O	 1.9037725339	-2.0783837588	 0.0018608211	-0.246376
H	 0.9813148762	 2.2364091818	-0.0778800318	 0.11393
H	-0.5478193899	 1.9235925835	-0.9080673081	 0.11992
H	-0.5041190666	 2.0160332734	 0.8665277777	 0.102681
H	 0.8819897158	-0.07298752	 0.9514052412	 0.102507
H	-0.6458720165	-0.3623577849	 0.131038008	 0.103687
H	 1.7945061928	-2.3001371596	-3.0289682915	 0.13311
H	 3.0569549652	-1.0926921943	-2.7977508728	 0.136072
H	 3.5780602514	-3.8563649104	-2.2463351786	 0.099731
H	 5.1061915062	-3.2160556024	-0.3187707043	 0.120998
H	 4.4729022357	-1.5014309713	-0.3868015977	 0.127653
H	 2.7054257496	-3.9773479925	 0.2977859123	 0.109747
32.6644	89.1641	152.3268	183.2751	274.3264	305.8207	354.1824	439.7028	473.0362	590.8874	692.0711	705.0214	777.5392	795.7032	810.8481	839.7845	904.9096	913.6297	951.19	1006.55	1030.677	1063.601	1069.6944	1076.6144	1095.3017	1111.9204	1141.7962	1155.6225	1181.746	1192.9084	1204.5777	1293.8659	1302.1443	1348.8007	1382.5914	1388.5773	1410.993	1468.3762	1480.9847	1483.5354	1489.0638	1506.5009	1796.8915	2998.6011	3030.7796	3037.2411	3057.309	3101.9853	3107.1873	3115.1494	3128.3568	3187.7386	3197.5256	3220.9398
CCN=C1CC2CC2O1	CCN=C1C[C@H]2C[C@H]2O1	
InChI=1S/C7H11NO/c1-2-8-7-4-5-3-6(5)9-7/h5-6H,2-4H2,1H3	InChI=1S/C7H11NO/c1-2-8-7-4-5-3-6(5)9-7/h5-6H,2-4H2,1H3/t5-,6-/m1/s1
