17
gdb 124807	4.08604	1.03421	0.88298	2.9237	70.65	-0.2716	-0.0232	0.2484	1322.502	0.134494	-455.160341	-455.151063	-455.150118	-455.19519	32.484	
C	-0.1383782829	 1.5400723848	 0.2004880718	-0.396447
C	 0.0138056737	 0.035058288	-0.0659104826	 0.029706
O	 0.6786720284	-0.2237989371	-1.2859590281	-0.426162
C	 0.6973191375	-0.6395044789	 1.0909447717	 0.339046
N	 1.8842372355	-1.1686464369	 0.9729525428	-0.195707
O	 2.1637488094	-1.635765926	 2.2641405807	-0.197705
C	 1.0958554615	-1.3330034026	 3.0164754949	 0.409553
C	 1.1155694676	-1.7273050093	 4.4488139499	-0.495925
N	 0.1598068938	-0.7176380374	 2.3575821967	-0.347077
H	 0.8451703771	 2.0103569244	 0.3016664126	 0.118064
H	-0.6599982685	 2.0025922299	-0.640802502	 0.129263
H	-0.7066509205	 1.7175963628	 1.1177827113	 0.134751
H	-0.9870696693	-0.4051105481	-0.1586390928	 0.114546
H	 1.6259183594	-0.2595997044	-1.1084454436	 0.296912
H	 1.9631996566	-1.2654889291	 4.963764985	 0.160345
H	 0.1869110679	-1.4085506888	 4.9212334455	 0.165287
H	 1.2192987527	-2.8120363912	 4.5474136963	 0.161553
53.4498	70.0968	130.7189	161.3398	231.7731	245.2392	267.4172	331.9259	359.5391	458.6108	490.3988	663.5912	676.5934	724.5016	775.384	906.0793	935.5675	995.9801	1016.0784	1053.4883	1068.188	1069.6874	1099.9392	1140.8558	1256.1717	1307.0122	1343.6979	1371.9152	1398.4038	1409.1217	1439.3712	1475.0766	1475.9038	1489.8413	1496.292	1558.0424	1628.7434	3035.535	3042.1914	3054.8867	3114.5444	3118.2453	3132.6486	3165.9249	3796.0197
CC(O)C1=NOC(C)=N1	C[C@@H](O)c1noc(C)n1	
InChI=1S/C5H8N2O2/c1-3(8)5-6-4(2)9-7-5/h3,8H,1-2H3	InChI=1S/C5H8N2O2/c1-3(8)5-6-4(2)9-7-5/h3,8H,1-2H3/t3-/m1/s1
