21
gdb 96378	2.34464	1.64823	1.30345	1.7846	77.76	-0.2451	0.0814	0.3265	1081.2944	0.183908	-424.222216	-424.213934	-424.21299	-424.254547	33.441	
O	 0.051142011	 1.4375952192	-0.0227869064	-0.452021
C	 0.0509539622	 0.013314541	-0.0052818029	 0.090945
C	 0.7749239559	-0.5300916126	 1.2401717389	-0.220123
C	-0.0465268692	-0.2347718112	 2.5044073637	-0.212558
C	-1.4933559471	-0.6955724014	 2.318777459	-0.080737
O	-2.0725335924	-0.1312074934	 1.1394320543	-0.304696
C	-1.3716460929	-0.5098967644	-0.0235974748	 0.413614
C	-2.1835472727	-0.5193319974	-1.2742404769	-0.335448
C	-1.7199224269	-1.8297945867	-0.661841934	-0.331943
H	-0.7172960799	 1.7163058198	 0.4889654646	 0.285495
H	 0.5763617175	-0.3061730351	-0.912040896	 0.072285
H	 0.9092461847	-1.6136910932	 1.1262605331	 0.093597
H	 1.7692230138	-0.0787098307	 1.3064759928	 0.103068
H	 0.3890358985	-0.7271540588	 3.3807001259	 0.097122
H	-0.0362008622	 0.843125467	 2.7037023305	 0.106512
H	-1.5399716674	-1.7942940654	 2.2590178673	 0.091024
H	-2.1294384336	-0.3726529308	 3.1476472597	 0.105869
H	-3.2340344807	-0.2717844962	-1.174049036	 0.123998
H	-1.7144427161	-0.1729682024	-2.1883676958	 0.121533
H	-0.9395109245	-2.3930469807	-1.1627709316	 0.113427
H	-2.4704673179	-2.4341850065	-0.1647404255	 0.119038
115.8238	173.9807	215.0293	261.6209	298.7955	370.2897	375.3817	393.1582	435.4197	519.4203	585.0082	611.312	755.3913	771.5826	843.1481	855.2829	874.9272	912.6768	931.0011	964.5874	977.518	1009.9323	1029.4453	1050.5859	1068.3972	1077.5078	1096.7225	1130.9392	1187.1124	1198.2958	1213.2554	1261.8405	1288.8928	1309.6801	1312.2959	1359.4458	1369.8198	1387.6041	1409.1649	1441.3884	1453.9986	1474.6072	1484.7866	1492.4406	1505.2367	2986.1138	3025.4761	3037.2675	3051.2596	3078.3248	3086.8187	3090.9657	3131.909	3140.0323	3217.1614	3233.1179	3793.0715
OC1CCCOC11CC1	O[C@H]1CCCOC21CC2	
InChI=1S/C7H12O2/c8-6-2-1-5-9-7(6)3-4-7/h6,8H,1-5H2	InChI=1S/C7H12O2/c8-6-2-1-5-9-7(6)3-4-7/h6,8H,1-5H2/t6-/m0/s1
