19
gdb 34398	2.32338	1.65909	1.25302	1.3819	80.55	-0.2512	0.04	0.2912	1074.0433	0.160022	-385.852368	-385.844302	-385.843358	-385.884992	31.554	
C	-0.0205615846	-1.1691838416	 0.0376661913	-0.431444
C	-0.0369846906	 0.0338162094	 0.0340347309	 0.244433
C	-0.0522437447	 1.4797644506	 0.0307964903	 0.086095
C	-0.2298961964	 2.2029580208	-1.3312300116	-0.128712
O	 0.9046323606	 3.0504943691	-1.0761714934	-0.294603
C	 1.3138967827	 2.2462743624	 0.0563991669	 0.106245
C	 1.4150619595	 3.0177333246	 1.3798799082	-0.236519
C	 0.251767761	 2.4732378383	 2.2387094201	-0.202857
C	-0.8381379373	 2.1049172771	 1.2163796646	-0.277781
H	-0.0051302126	-2.2309202807	 0.0379462951	 0.191973
H	-0.0680101508	 1.5498694795	-2.197105586	 0.106047
H	-1.156933935	 2.7718968148	-1.4656377938	 0.104566
H	 2.1982628287	 1.6473463232	-0.1851925495	 0.080959
H	 2.3869888709	 2.8960558901	 1.8649043354	 0.101832
H	 1.2796876267	 4.0815264661	 1.1608879395	 0.118044
H	 0.5739069872	 1.5705683069	 2.770772837	 0.111816
H	-0.095763778	 3.1865710476	 2.9909661982	 0.101374
H	-1.3468501084	 3.0122573641	 0.8728276895	 0.107472
H	-1.594839599	 1.4266146676	 1.6150419774	 0.111059
87.3999	138.0262	151.8643	216.5031	357.3628	370.8177	480.0912	524.0498	549.7332	571.745	618.1643	629.5056	666.7062	780.1948	844.7042	882.1998	901.0299	911.9747	954.8088	1006.2659	1007.7442	1023.5157	1040.9402	1069.9488	1129.2285	1149.758	1179.5678	1183.4946	1228.581	1252.0531	1290.5886	1320.0415	1321.2715	1341.9501	1362.4671	1366.674	1479.7394	1488.1671	1502.1097	1522.6132	2231.2292	3018.3018	3040.9904	3048.1441	3049.2761	3058.5724	3070.6276	3094.1386	3108.8893	3116.418	3501.4465
C#CC12COC1CCC2	C#C[C@]12CO[C@H]1CCC2	
InChI=1S/C8H10O/c1-2-8-5-3-4-7(8)9-6-8/h1,7H,3-6H2	InChI=1S/C8H10O/c1-2-8-5-3-4-7(8)9-6-8/h1,7H,3-6H2/t7-,8-/m0/s1
