20
gdb 104915	2.11689	1.48736	1.01421	4.0129	80.41	-0.2877	0.009	0.2966	1253.2024	0.167475	-403.1611	-403.150688	-403.149743	-403.196328	37.573	
C	 0.4442874748	 1.4275430408	 0.3068098814	-0.388529
C	-0.2696781324	 0.1603937423	-0.1799947453	-0.272174
C	 0.4523148427	-0.4900468196	-1.3505335291	 0.180278
O	 1.7249386367	-1.0941958802	-1.0798452155	-0.306253
C	 0.6655678431	-1.9586067249	-1.5242686419	 0.332372
C	 0.1497288401	-2.9464980836	-0.4988954791	-0.460555
C	 0.8559580556	-2.5405344687	-2.9091804927	-0.466538
C	 0.4287208324	 0.337448948	-2.5530010537	 0.279312
N	 0.3721585502	 1.0162572978	-3.4872920526	-0.35195
H	 1.4647768293	 1.1944690435	 0.6237249589	 0.137762
H	 0.4968005285	 2.1826598095	-0.4831501903	 0.142674
H	-0.0880977584	 1.8636079912	 1.1563747569	 0.12048
H	-0.344436386	-0.5597761512	 0.6367020397	 0.113227
H	-1.2924243403	 0.3972663526	-0.4960983873	 0.120195
H	 0.1717790664	-2.5421241527	 0.512746304	 0.136679
H	-0.8738264202	-3.2522603561	-0.7383073758	 0.132122
H	 0.7769508809	-3.8439317816	-0.5135335914	 0.134506
H	 1.5861903836	-3.3551339066	-2.8657814716	 0.13145
H	-0.086195177	-2.9531577711	-3.2842788971	 0.129981
H	 1.2143642898	-1.7920313993	-3.6169723474	 0.15496
66.997	116.1016	136.7406	147.1807	174.7301	207.9291	216.47	282.875	329.4808	376.1892	399.5427	413.1168	500.3645	573.4339	602.9744	663.5323	725.4535	785.4401	905.404	915.1054	950.188	963.9639	1007.1811	1044.235	1098.9958	1128.7375	1164.5441	1193.6908	1254.7194	1302.7678	1355.1937	1406.9146	1412.6528	1417.3908	1423.4625	1469.0373	1475.7231	1486.2435	1498.346	1499.2143	1506.3994	1513.441	2349.7424	3041.96	3045.4192	3046.6413	3048.8418	3103.1227	3107.1714	3108.946	3121.2821	3127.6383	3146.2013	3154.1113
CCC1(OC1(C)C)C#N	CC[C@]1(OC1(C)C)C#N	
InChI=1S/C7H11NO/c1-4-7(5-8)6(2,3)9-7/h4H2,1-3H3	InChI=1S/C7H11NO/c1-4-7(5-8)6(2,3)9-7/h4H2,1-3H3/t7-/m0/s1
