13
gdb 21462	7.99617	1.21192	1.0695	2.191	62.96	-0.2376	-0.0051	0.2325	1026.7422	0.097423	-394.787899	-394.781054	-394.78011	-394.819661	24.403	
N	-0.1829956428	 1.3043066127	 0.0618034486	-0.420101
C	-0.4434684347	 0.1317941102	-0.3051663484	 0.112385
O	-0.2077062104	-0.8969400519	 0.5644065038	-0.210966
C	-0.6870288032	-2.1219591368	 0.2345662483	 0.460351
C	-1.8340987667	-2.5679808663	-0.387966028	-0.342883
C	-1.6970130648	-3.975701009	-0.3584743362	 0.00853
N	-0.5755603464	-4.3677227011	 0.2336678354	-0.221327
N	 0.0333525927	-3.2112777833	 0.5833450856	-0.262873
H	-0.3776457355	 1.9597843104	-0.6923719803	 0.24238
H	-0.8356136919	-0.2114637661	-1.2680254741	 0.117246
H	-2.649563128	-1.9772791224	-0.7693059314	 0.11511
H	-2.3840839599	-4.7156048152	-0.7423078341	 0.118568
H	 0.9166881515	-3.2236804812	 1.0653228108	 0.283581
66.2373	109.5623	174.9769	339.2708	438.1591	485.4379	502.2075	678.8241	690.7616	777.0324	795.7563	834.6974	892.3389	928.4045	1014.0247	1048.381	1055.0533	1084.2426	1119.6142	1248.8858	1262.2489	1316.7614	1374.1234	1403.2765	1443.0859	1522.8019	1608.5762	1753.0859	3075.5339	3245.8175	3277.7694	3523.7213	3672.8795
N=COC1=CC=NN1	[NH][CH]Oc1ccn[nH]1	
InChI=1S/C4H5N3O/c5-3-8-4-1-2-6-7-4/h1-3,5H,(H,6,7)	InChI=1S/C4H5N3O/c5-3-8-4-1-2-6-7-4/h1-3,5H,(H,6,7)
