19
gdb 121075	3.09942	0.91479	0.7881	3.5421	71.44	-0.2665	0.0123	0.2788	1463.8414	0.159476	-460.210163	-460.201097	-460.200152	-460.24496	32.715	
O	-0.0806585343	 1.3718362649	-0.2760147976	-0.417088
C	-0.0231480373	-0.0341252267	-0.0964119743	-0.069977
C	-1.4156248567	-0.6656048036	 0.0002511339	-0.210755
C	-1.3809565017	-2.1671882294	 0.2766300871	 0.101875
C	-2.7701155618	-2.8437462346	 0.3129637978	-0.249215
C	-2.9310761993	-3.3765162641	-1.1130859	-0.357443
C	-1.4985638176	-3.5182611722	-1.6171785248	 0.427364
O	-1.1029139575	-4.1021753476	-2.5828579303	-0.333463
O	-0.6612232215	-2.8433828565	-0.7813231802	-0.225752
H	-0.3906503036	 1.5433473876	-1.1706618971	 0.283365
H	 0.5563648559	-0.5239010452	-0.8901267017	 0.116065
H	 0.518098694	-0.1921233629	 0.8436216734	 0.111919
H	-1.9711752507	-0.1723260431	 0.8066133689	 0.112991
H	-1.9700444382	-0.4795109656	-0.9305542465	 0.091231
H	-0.8157866125	-2.3586433252	 1.1942995946	 0.098063
H	-2.7650031266	-3.6690817317	 1.030118725	 0.119904
H	-3.5540338616	-2.1453802496	 0.6123598307	 0.116649
H	-3.4497562334	-4.332889283	-1.1895351809	 0.142873
H	-3.4513258755	-2.6720755915	-1.771063728	 0.141396
61.8585	95.6283	110.6368	136.8002	176.5205	283.2125	331.6896	374.5101	490.2571	505.4888	545.5803	659.1354	709.7753	793.2016	806.0072	853.4535	916.9367	975.2341	981.2097	1031.7997	1046.6814	1073.3705	1088.5862	1105.6553	1144.342	1171.4729	1209.9322	1233.3573	1277.3807	1300.9158	1316.0847	1333.0678	1371.4922	1392.2482	1411.8182	1421.0711	1466.5979	1476.2819	1498.8964	1513.3776	1883.0716	3011.6775	3019.1269	3054.1438	3059.3296	3062.3387	3069.6141	3083.1815	3116.1948	3131.139	3820.5147
OCCC1CCC(=O)O1	OCC[C@H]1CCC(=O)O1	
InChI=1S/C6H10O3/c7-4-3-5-1-2-6(8)9-5/h5,7H,1-4H2	InChI=1S/C6H10O3/c7-4-3-5-1-2-6(8)9-5/h5,7H,1-4H2/t5-/m1/s1
