12
gdb 128990	4.08874	1.83544	1.26678	0.0707	69.19	-0.2584	-0.0902	0.1682	873.3862	0.083431	-427.874396	-427.869014	-427.86807	-427.904167	21.24	
N	 0.0471235364	 1.2420949277	 0.0087231488	-0.050731
N	 1.2246149026	 1.8456917694	 0.0008323798	-0.290739
C	 2.0633583797	 0.7895691951	-0.0132163889	 0.366713
N	 3.4112007216	 0.804184064	-0.0261050383	-0.303076
C	 3.9270818651	-0.4067856307	-0.0379356604	-0.029018
C	 3.1505510749	-1.6112680867	-0.0372891539	-0.029018
N	 1.8346234597	-1.6412563198	-0.0247999029	-0.303078
C	 1.2915659688	-0.4075636294	-0.0125824277	 0.366713
N	-0.0165953571	-0.079559517	 0.0018916681	-0.290741
H	-0.8018089514	 1.7894077979	 0.0199791509	 0.309503
H	 5.0117338893	-0.4841782479	-0.0488107509	 0.126736
H	 3.6687702005	-2.5672589427	-0.0476943447	 0.126736
251.0669	267.9824	471.4283	498.5586	564.9756	621.0617	661.5875	666.6897	733.3131	793.659	860.188	896.1638	947.8427	981.1181	997.3651	1038.3768	1180.797	1221.4956	1253.6905	1366.8943	1372.8352	1379.4758	1396.9708	1489.0486	1560.3408	1579.8365	1607.5189	3154.241	3171.1252	3636.1371
N1N=C2N=CC=NC2=N1	[nH]1nc2nccnc2n1	
InChI=1S/C4H3N5/c1-2-6-4-3(5-1)7-9-8-4/h1-2H,(H,5,6,7,8,9)	InChI=1S/C4H3N5/c1-2-6-4-3(5-1)7-9-8-4/h1-2H,(H,5,6,7,8,9)
