20
gdb 93093	2.18303	1.65192	0.98921	1.7943	77.36	-0.2407	0.0183	0.259	1220.7102	0.170648	-440.301724	-440.292728	-440.291784	-440.335397	33.687	
C	 0.0563010526	 1.5273290721	 0.1351507671	-0.399935
C	 0.0345610994	 0.0074756679	 0.0288571557	 0.093661
C	 0.4772403322	-0.4742955591	-1.3551525452	-0.14142
N	 0.4808245417	-1.8980839061	-1.6279384453	-0.261732
C	 0.8363153558	-2.8005003484	-0.8240603661	 0.118821
O	 1.2174631372	-2.7782470604	 0.4834039496	-0.238943
C	 0.6753864767	-1.818788822	 1.4033243657	 0.219054
C	 1.3483944751	-2.0850942222	 2.7347807262	-0.405299
O	 0.9034565466	-0.4986829217	 1.0426196024	-0.244134
H	 1.0668723572	 1.9088605077	-0.0404352835	 0.129067
H	-0.6168478493	 1.9757274769	-0.6009394108	 0.120748
H	-0.2590494556	 1.842485728	 1.1328121833	 0.124209
H	-0.9849367485	-0.3635606157	 0.2247116695	 0.074866
H	-0.163359169	 0.0037948754	-2.1057697659	 0.106084
H	 1.4959025618	-0.0985489324	-1.5306994439	 0.120219
H	 0.9189669404	-3.8248537446	-1.1900433846	 0.116963
H	-0.410705633	-2.0062652028	 1.4492431546	 0.072386
H	 2.4173643667	-1.874369702	 2.6512492565	 0.139305
H	 0.9176343851	-1.4374031681	 3.5013732711	 0.126499
H	 1.2127931071	-3.1289733827	 3.0243000836	 0.129581
89.4585	106.0922	188.1298	212.1174	219.5207	252.1523	343.77	359.0232	404.2029	463.3148	503.311	527.5467	607.8366	787.5959	827.822	854.0106	892.6005	928.9473	964.6835	973.2556	1014.1865	1078.9772	1088.121	1117.2528	1138.3538	1164.3082	1193.9069	1202.5497	1280.5046	1334.8758	1368.3555	1382.0202	1391.3284	1408.0667	1412.3297	1432.9929	1442.9451	1468.773	1483.6421	1486.5229	1488.9509	1500.1087	1761.6879	2960.2251	2972.202	3007.9785	3045.2538	3054.0133	3059.9834	3118.9106	3126.3357	3128.3868	3141.0198	3145.1451
CC1CN=COC(C)O1	C[C@H]1CN=CO[C@@H](C)O1	
InChI=1S/C6H11NO2/c1-5-3-7-4-8-6(2)9-5/h4-6H,3H2,1-2H3	InChI=1S/C6H11NO2/c1-5-3-7-4-8-6(2)9-5/h4-6H,3H2,1-2H3/t5-,6+/m0/s1
