25
gdb 120026	2.42397	0.956	0.81635	1.388	88.71	-0.2613	0.0735	0.3348	1557.8782	0.227875	-389.481195	-389.470428	-389.469484	-389.517089	39.902	
C	-0.2631883271	 1.1711087598	-1.5554417751	-0.407139
C	 0.1247618307	-0.2036470648	-1.0150096566	 0.01769
C	 1.5752371808	-0.6494326535	-1.369206968	-0.240571
C	 2.0173858774	-0.422506747	 0.1071036368	-0.000446
C	 2.898953716	 0.8035624213	 0.3344546024	-0.400038
C	 0.505976848	-0.3076124654	 0.5049993955	 0.014968
C	 0.0589792959	 0.7533724291	 1.5056986468	-0.19522
C	-1.4119289237	 0.629187581	 1.8868829785	-0.078104
O	-1.7093594809	 1.6522094385	 2.8264828619	-0.422043
H	 0.4805175057	 1.9369657747	-1.313552413	 0.119328
H	-0.3481503118	 1.1351309906	-2.6474409597	 0.111507
H	-1.2272216472	 1.5098907963	-1.1605353317	 0.114533
H	-0.6445535045	-0.9226753385	-1.3147882603	 0.061059
H	 1.6418333348	-1.6943081295	-1.6838185533	 0.092512
H	 2.0882656005	-0.0355458662	-2.1168516939	 0.088961
H	 2.5102029481	-1.2893680307	 0.5594862371	 0.062392
H	 2.4781908756	 1.7076582729	-0.1171079565	 0.116615
H	 3.0460111351	 1.0040019705	 1.4011980602	 0.114802
H	 3.8872370772	 0.6459863579	-0.112142251	 0.109938
H	 0.1759740693	-1.2859466548	 0.876048605	 0.062258
H	 0.6518512511	 0.6659421566	 2.4250796388	 0.101286
H	 0.2325387561	 1.7647613584	 1.1229900422	 0.103426
H	-2.0456253179	 0.718583488	 0.9897105367	 0.087205
H	-1.5981262775	-0.3701486999	 2.3146515549	 0.081474
H	-2.6381719416	 1.5807913546	 3.0646461324	 0.283604
73.7893	83.7362	107.8415	137.617	224.1114	224.8751	249.3308	263.7377	265.6962	326.8892	349.8808	382.7681	454.8829	542.0942	720.3237	757.6618	811.7427	825.0046	830.3808	909.0763	911.6899	966.8664	1008.1221	1025.5693	1033.2582	1048.0562	1070.0706	1094.0748	1122.3462	1173.6113	1176.9629	1187.7001	1227.8219	1233.6704	1246.9602	1272.4492	1285.2511	1294.5616	1312.7735	1329.2008	1364.3286	1375.3813	1391.9593	1408.0442	1415.2022	1459.575	1483.1074	1484.7648	1492.0217	1498.5144	1500.9166	1502.873	1527.0662	2957.9369	2983.4232	3012.7649	3026.9273	3028.3957	3032.4459	3038.4779	3038.939	3049.3145	3078.481	3089.9761	3090.7852	3095.9609	3098.2395	3108.1447	3829.1721
CC1CC(C)C1CCO	C[C@H]1C[C@@H](C)[C@H]1CCO	
InChI=1S/C8H16O/c1-6-5-7(2)8(6)3-4-9/h6-9H,3-5H2,1-2H3	InChI=1S/C8H16O/c1-6-5-7(2)8(6)3-4-9/h6-9H,3-5H2,1-2H3/t6-,7+,8-
