18
gdb 90478	2.33668	1.82359	1.39799	2.9556	72.43	-0.2356	-0.0506	0.185	980.0134	0.148837	-439.06986	-439.062138	-439.061194	-439.101889	30.194	
O	-0.4992199754	 1.3984437444	-0.0300793633	-0.439941
C	-0.4200703724	 0.0145167538	 0.2003091069	 0.141485
C	-1.7703823318	-0.7508013535	 0.0108186904	-0.275789
C	-1.4444004021	-1.9470407569	-0.8638582358	-0.040661
C	-1.0918123387	-1.7506288399	-2.3305351828	-0.100454
C	-1.4004904747	-0.496384312	-3.0447895912	 0.146679
O	-1.2351387305	 0.6423375118	-2.6533716806	-0.296182
N	-0.0554172323	-1.936756058	-1.2840689475	-0.108901
C	 0.5916231075	-0.7286098575	-0.7283704107	-0.202789
H	-0.7537585046	 1.495318295	-0.9590260048	 0.300147
H	-0.0940965698	-0.0797106888	 1.2405065316	 0.090886
H	-2.1790056005	-1.093098777	 0.9651416462	 0.11149
H	-2.508606125	-0.0787429326	-0.4335672103	 0.125338
H	-1.867639666	-2.9168798129	-0.6130976045	 0.106547
H	-1.1842932443	-2.6246136387	-2.971565406	 0.104748
H	-1.8355111217	-0.670127772	-4.0522361997	 0.096512
H	 0.9472185211	-0.0613986561	-1.5157450049	 0.125896
H	 1.4646663813	-1.077897629	-0.169781963	 0.114989
124.2346	160.5278	197.9704	222.0437	354.3153	388.2478	403.0338	454.8003	603.3729	633.7049	675.3723	713.323	763.3383	814.1051	829.8021	890.5565	912.0108	959.4979	996.7045	1028.1276	1044.3519	1076.6785	1101.7657	1117.9664	1133.3048	1187.6209	1224.2806	1271.5707	1289.252	1318.1802	1325.6337	1345.8972	1378.4768	1394.2836	1440.4453	1474.6798	1486.9072	1495.8288	1777.695	2904.9268	3053.8014	3064.3703	3071.0159	3109.3612	3118.2807	3129.5388	3138.9703	3731.7005
OC1CC2C(C=O)N2C1	O[C@H]1C[C@H]2[C@@H](C=O)N2C1	
InChI=1S/C6H9NO2/c8-3-6-5-1-4(9)2-7(5)6/h3-6,9H,1-2H2	InChI=1S/C6H9NO2/c8-3-6-5-1-4(9)2-7(5)6/h3-6,9H,1-2H2/t4-,5-,6+,7?/m0/s1
