17
gdb 28271	5.13181	1.22965	1.00435	4.3727	84.6	-0.1969	-0.0166	0.1803	1156.8677	0.139082	-380.925698	-380.918442	-380.917498	-380.957309	28.042	
C	-0.0200551362	 1.4726385327	 0.0688151249	-0.488188
C	-0.0011283285	-0.0170595194	-0.0223515065	 0.292604
C	-0.0340803622	-0.7972223071	-1.120803416	-0.346741
C	 0.0033196076	-2.1937320055	-0.7314971737	 0.352833
C	 0.0066981518	-3.5089804525	-1.1324968232	-0.2159
N	 0.0644183071	-4.3337493511	-0.0291959121	-0.276278
C	 0.0953657219	-3.5378507116	 1.0221681321	-0.007338
N	 0.0604668195	-2.2304388267	 0.6496859661	-0.043587
C	 0.0633110252	-0.8931289335	 1.2245497852	-0.282824
H	 0.876314396	 1.8588868885	 0.5714614004	 0.130269
H	-0.0694188593	 1.925693765	-0.9244977751	 0.133974
H	-0.8816526315	 1.8319586455	 0.6465932436	 0.130217
H	-0.0813080475	-0.4466005794	-2.1426741376	 0.11379
H	-0.0281754792	-3.9112305677	-2.1328681137	 0.107547
H	 0.1424055044	-3.8566046008	 2.0526073274	 0.126935
H	 0.9708590081	-0.7082260721	 1.8132735629	 0.136337
H	-0.7985272474	-0.7355208043	 1.8854737953	 0.13635
124.827	164.6553	219.2199	265.2989	305.6251	457.427	473.0117	527.6416	662.6078	706.3171	758.7536	799.8848	800.6462	820.7717	867.2837	880.413	958.4193	970.5244	1010.4355	1075.1918	1123.8134	1163.7654	1177.4104	1194.7143	1241.6785	1249.4871	1315.125	1328.3768	1372.0294	1408.3301	1416.0699	1476.8975	1477.3452	1486.3022	1511.291	1596.4269	1667.355	3012.8068	3022.1809	3051.7885	3056.378	3115.895	3230.2382	3249.7545	3255.4447
CC1=CC2=CN=CN2C1	CC1=Cc2cncn2C1	
InChI=1S/C7H8N2/c1-6-2-7-3-8-5-9(7)4-6/h2-3,5H,4H2,1H3	InChI=1S/C7H8N2/c1-6-2-7-3-8-5-9(7)4-6/h2-3,5H,4H2,1H3
