14
gdb 131598	4.62701	1.07944	0.88	2.7203	64.84	-0.288	-0.0597	0.2283	1217.404	0.101595	-470.035856	-470.027887	-470.026943	-470.069139	27.718	
O	 0.0415190362	 1.3694778036	 0.0097891087	-0.394224
C	-0.005796619	-0.0314877808	 0.0027745693	-0.197749
C	-1.4654778471	-0.445542412	 0.0118105116	 0.443696
O	-2.4106258275	 0.2913201613	 0.0231952319	-0.283389
N	-1.6629881247	-1.8553117803	 0.0064571818	-0.049387
C	-2.8504971146	-2.5273910915	 0.0126731537	 0.050204
N	-2.6392795299	-3.8206006711	 0.00456629	-0.274348
C	-1.270108088	-3.9048216444	-0.0068356177	 0.050144
N	-0.6336844713	-2.7539528615	-0.0062184416	-0.245622
H	 0.9662237846	 1.6328061243	 0.0016664394	 0.299404
H	 0.4666303496	-0.4834694011	-0.8828972867	 0.138969
H	 0.4801335798	-0.4926728302	 0.8763434865	 0.138982
H	-3.7985392187	-2.014209005	 0.0228157924	 0.180251
H	-0.7409315494	-4.8461778712	-0.0157493193	 0.143071
77.2801	106.6435	168.5208	171.1604	209.8946	301.2288	384.1804	515.7597	556.8906	656.5144	686.9847	763.2167	899.4314	925.9544	962.3234	968.0515	1024.1139	1051.6306	1137.3911	1157.5514	1211.6669	1242.628	1249.1364	1269.2312	1312.1834	1398.6727	1425.4336	1462.5246	1482.443	1562.3715	1854.465	2992.1823	3017.611	3262.2342	3286.5815	3841.04
OCC(=O)N1C=NC=N1	OCC(=O)n1cncn1	
InChI=1S/C4H5N3O2/c8-1-4(9)7-3-5-2-6-7/h2-3,8H,1H2	InChI=1S/C4H5N3O2/c8-1-4(9)7-3-5-2-6-7/h2-3,8H,1H2
