17
gdb 58552	2.1354	1.46011	1.44279	2.253	63.64	-0.2687	-0.0127	0.256	1044.0452	0.133467	-496.116551	-496.107164	-496.10622	-496.150677	34.079	
C	-0.0629465248	 1.5895016574	 0.023755107	-0.425584
C	-0.0121222912	 0.0647549246	 0.0046326926	 0.089079
O	 0.755355501	-0.4669683382	 1.0759268085	-0.434364
C	-1.4187498678	-0.5627647679	 0.0065889539	 0.210151
O	-2.1015304876	-0.077583048	-1.1163221002	-0.471301
C	-1.4659506505	-2.0851999015	 0.2970887233	-0.135948
O	-2.0986908397	-1.8243840809	 1.594783138	-0.234071
C	-2.132990064	-0.4749740275	 1.3839791216	 0.369168
O	-2.5774842541	 0.367748797	 2.0982175894	-0.33114
H	 0.9537057876	 1.9913585056	 0.0199144723	 0.12424
H	-0.5998541482	 1.9684858171	-0.8477182812	 0.143872
H	-0.5830603624	 1.9454874243	 0.9202201048	 0.137856
H	 0.4850497091	-0.2772982583	-0.9113281849	 0.104651
H	 0.5473879354	 0.0348856992	 1.8724197681	 0.29494
H	-3.0329927707	-0.3154877459	-1.0581032326	 0.296616
H	-2.1329332558	-2.6562860107	-0.3526683758	 0.116414
H	-0.5062805563	-2.5819418961	 0.4338819751	 0.145421
66.9233	122.0497	137.6309	220.1515	235.6263	251.018	292.5971	332.1893	345.2559	402.7032	447.5288	478.8323	570.925	693.8838	756.9166	782.8338	884.9983	931.7592	937.5284	970.6745	1060.3545	1073.5908	1115.7976	1136.7911	1159.3473	1162.8926	1225.7794	1302.4278	1326.4916	1367.6732	1379.4923	1403.3624	1414.2889	1488.7833	1497.7553	1500.2244	1919.283	3039.0402	3044.5997	3076.8834	3115.8047	3142.2882	3159.2023	3798.6712	3812.3689
CC(O)C1(O)COC1=O	C[C@@H](O)[C@@]1(O)COC1=O	
InChI=1S/C5H8O4/c1-3(6)5(8)2-9-4(5)7/h3,6,8H,2H2,1H3	InChI=1S/C5H8O4/c1-3(6)5(8)2-9-4(5)7/h3,6,8H,2H2,1H3/t3-,5+/m1/s1
