20
gdb 67455	2.17168	1.93914	1.85273	0.8538	77.28	-0.2139	0.0618	0.2757	940.8958	0.172876	-403.119151	-403.111674	-403.11073	-403.150875	30.066	
C	-0.0146643897	 1.507688833	 0.1063020316	-0.503853
C	-0.0026804052	 0.0103319367	-0.0416342245	 0.290735
C	 0.5925989034	-0.8557043454	-1.1793628615	 0.050587
C	 1.4487465333	-1.5580703475	-0.1147572274	-0.194314
N	 0.7675930019	-0.7792843478	 0.9724525726	-0.137746
C	-0.1964784201	-1.5317222369	 1.7885108998	-0.181072
C	-1.5184063583	-1.6782507122	 0.966665967	-0.251768
C	-1.2957877657	-0.8108912878	-0.2754015098	 0.08793
O	-0.6642298298	-1.5347375785	-1.3711697296	-0.314573
H	 1.0040849689	 1.9026358425	 0.1577863582	 0.12734
H	-0.531453245	 1.9827297745	-0.734098633	 0.120524
H	-0.5302063648	 1.7993931461	 1.028986884	 0.121916
H	 1.0325702711	-0.5105518405	-2.1170907746	 0.076748
H	 1.3115907852	-2.6442740431	-0.075758752	 0.103405
H	 2.5195359811	-1.3282322416	-0.1533978859	 0.102477
H	 0.2374522954	-2.4928138611	 2.0780230738	 0.107545
H	-0.3902793069	-0.9781470436	 2.7144134995	 0.102815
H	-1.7140358045	-2.7087515712	 0.6586421566	 0.11783
H	-2.3855945957	-1.3347732329	 1.5394629914	 0.099573
H	-2.1924567746	-0.2897613927	-0.6272952961	 0.073902
94.3747	202.3128	204.4733	260.597	377.6973	390.8191	414.1014	609.0393	626.0473	669.2272	717.4009	778.7396	834.123	849.1988	877.1099	883.2447	909.7282	933.9362	969.9143	999.455	1025.265	1054.0219	1083.5703	1106.4403	1147.6638	1176.3222	1182.3372	1203.8789	1219.2115	1229.3278	1269.8687	1290.3581	1302.4874	1311.2116	1340.1018	1353.483	1367.3636	1412.365	1475.5668	1484.5101	1489.0589	1490.5276	1507.6891	3024.0329	3028.3045	3034.0382	3044.8757	3060.8298	3076.6562	3085.5109	3092.1013	3093.7409	3108.1198	3111.3879
CC12C3CN1CCC2O3	C[C@@]12[C@H]3CN1CC[C@@H]2O3	
InChI=1S/C7H11NO/c1-7-5-2-3-8(7)4-6(7)9-5/h5-6H,2-4H2,1H3	InChI=1S/C7H11NO/c1-7-5-2-3-8(7)4-6(7)9-5/h5-6H,2-4H2,1H3/t5-,6+,7+/m0/s1
