16
gdb 54166	3.22234	1.11123	0.97761	5.2068	71.06	-0.2763	-0.0167	0.2596	1208.4093	0.123901	-434.094506	-434.085312	-434.084367	-434.128518	33.275	
C	 0.3192597585	 1.4166478309	-0.4079674414	-0.494187
C	 0.1011679676	-0.0409658392	-0.0709138376	 0.198883
N	 1.3001433782	-0.8746676312	 0.0301817529	-0.336886
C	 0.5444447152	-0.6054108168	 1.2588656641	-0.214487
C	 1.1635130218	 0.239848145	 2.2505839468	 0.332167
N	 1.6258922118	 0.9296284246	 3.0549802312	-0.333922
C	-1.1089806088	-0.7787707492	-0.6235398552	 0.383187
N	-2.089230397	-0.014617427	-1.1637108876	-0.540658
O	-1.165735326	-1.996770272	-0.5752105449	-0.378455
H	 1.2635203253	 1.7602289375	 0.0170041309	 0.165854
H	 0.3653909881	 1.5604733003	-1.4922609907	 0.135191
H	-0.4769378134	 2.0488629631	 0.00065276	 0.128381
H	 1.0441045966	-1.8152826248	-0.2763567094	 0.259904
H	-0.0659959268	-1.4090427744	 1.6600091979	 0.151897
H	-2.0434642304	 0.9876231377	-1.196052285	 0.270331
H	-2.9050684806	-0.4784512846	-1.5286490619	 0.2728
69.4913	125.4064	134.9645	203.4667	238.6672	258.0865	305.548	345.3135	373.3109	438.4802	521.7116	568.6456	583.288	625.7243	703.7123	762.346	839.5369	875.6515	947.2991	1005.5644	1068.8436	1087.5576	1103.5573	1116.6245	1243.4334	1251.2199	1342.5267	1393.1689	1419.0443	1429.8512	1491.0974	1499.5495	1618.7929	1776.7476	2359.3718	3036.6745	3101.044	3141.7769	3163.8855	3455.3425	3611.6682	3748.2845
CC1(NC1C#N)C(N)=O	C[C@]1(N[C@H]1C#N)C(=O)N	
InChI=1S/C5H7N3O/c1-5(4(7)9)3(2-6)8-5/h3,8H,1H3,(H2,7,9)	InChI=1S/C5H7N3O/c1-5(4(7)9)3(2-6)8-5/h3,8H,1H3,(H2,7,9)/t3-,5+/m0/s1
