14
gdb 27496	2.10746	1.86408	0.99061	5.8456	70.7	-0.2214	-0.0185	0.2029	1101.7191	0.102788	-470.07744	-470.069732	-470.068788	-470.109703	29.362	
N	 0.0826975304	 1.3899316992	 0.1563986333	-0.582889
C	-0.0450495773	 0.0200563969	 0.0420424252	 0.424522
C	-1.2059941452	-0.6704627278	 0.0312723799	-0.265258
C	-1.1951857889	-2.1076999833	-0.0085431774	 0.401642
N	-2.2247206914	-2.8440075021	-0.0182439576	-0.534592
O	 0.0822021327	-2.7161307046	-0.057522811	-0.265792
C	 1.2587932376	-2.0475026875	-0.023596983	 0.485346
O	 2.3113095258	-2.6224459622	-0.0078661272	-0.369724
N	 1.1569324411	-0.6658012204	-0.0125577681	-0.441232
H	 0.8181469341	 1.8058841986	-0.3996525509	 0.261336
H	-0.7872728896	 1.8939546864	 0.0643071773	 0.270531
H	-2.165762521	-0.1760335905	 0.0364958775	 0.114645
H	-1.9639602054	-3.8287436199	-0.0629030415	 0.228921
H	 2.0273740671	-0.1851163327	 0.1538243235	 0.272544
123.8016	132.2279	188.4521	319.8882	336.29	374.3034	479.7171	493.9975	537.3388	587.9005	602.0456	644.7282	683.7929	687.9507	765.3815	802.8108	854.617	896.4634	993.355	1042.2603	1110.93	1128.2212	1205.5909	1264.624	1357.747	1383.6223	1526.0482	1648.8465	1720.4082	1749.4265	1870.8495	3245.7527	3500.6686	3555.6216	3643.0597	3659.9275
NC1=CC(=N)OC(=O)N1	N[C]1C=C([NH])OC(=O)N1	
InChI=1S/C4H5N3O2/c5-2-1-3(6)9-4(8)7-2/h1,6H,5H2,(H,7,8)	InChI=1S/C4H5N3O2/c5-2-1-3(6)9-4(8)7-2/h1,6H,5H2,(H,7,8)
