13
gdb 131600	4.66556	1.07599	0.8791	3.0709	60.88	-0.302	-0.0804	0.2216	1200.9712	0.088545	-486.047743	-486.039783	-486.038839	-486.081128	27.233	
O	 0.0467382963	 1.378110623	 0.0095940516	-0.393508
C	-0.0079714251	-0.0200772778	 0.0026325784	-0.195431
C	-1.4691221877	-0.4231088737	 0.012370405	 0.447121
O	-2.4147796867	 0.3082136163	 0.0233548878	-0.267935
N	-1.6762120186	-1.8423941433	 0.0065797939	-0.061931
C	-2.84615486	-2.5297927794	 0.0125680197	 0.093946
N	-2.586048664	-3.8102076438	 0.0033566413	-0.220972
N	-1.2159111714	-3.910861373	-0.0084949736	-0.075771
N	-0.6645124679	-2.7544345248	-0.0067829654	-0.118721
H	 0.9720758931	 1.6399253522	-0.0019618651	 0.303554
H	 0.459775024	-0.4769132757	-0.8837892989	 0.146114
H	 0.4740084241	-0.4861121069	 0.8766052318	 0.146055
H	-3.8126894261	-2.055661713	 0.0231666634	 0.197477
77.2078	99.0784	165.3564	166.4579	206.9632	295.8501	380.3328	497.2102	553.967	667.1566	726.9221	760.8042	903.9258	953.436	976.8489	1023.4111	1041.799	1093.4319	1141.4878	1182.7458	1215.7098	1246.9796	1253.475	1360.0916	1408.1876	1461.7996	1484.4314	1509.3937	1866.243	2987.2935	3012.5753	3305.9047	3840.1365
OCC(=O)N1C=NN=N1	OCC(=O)n1cnnn1	
InChI=1S/C3H4N4O2/c8-1-3(9)7-2-4-5-6-7/h2,8H,1H2	InChI=1S/C3H4N4O2/c8-1-3(9)7-2-4-5-6-7/h2,8H,1H2
