18
gdb 36583	2.90626	0.92551	0.76577	1.3769	84.6	-0.2484	0.0369	0.2853	1485.2215	0.14491	-364.715038	-364.705429	-364.704485	-364.749866	35.651	
C	 0.0495858871	-1.2322414284	-0.0307025943	-0.436978
C	 0.0228427067	-0.033497644	-0.1152233168	 0.29308
C	 0.027766961	 1.420247459	-0.208039012	-0.355022
C	 1.3817410418	 2.0349515738	 0.2082377897	-0.272913
C	 1.3938302095	 3.5534878869	 0.095838097	 0.096818
C	 2.6764468183	 4.233059645	-0.259982634	-0.276739
N	 1.589964412	 4.1698169178	-1.2435605387	-0.333115
C	 0.4513970208	 4.238363748	 0.9497143565	 0.349712
C	-0.3286178907	 4.773667633	 1.6917147634	-0.456741
H	 0.055360816	-2.2915038215	 0.041220362	 0.194991
H	-0.2138887494	 1.7257675722	-1.2342034313	 0.133135
H	-0.7627211844	 1.8386293575	 0.4261584476	 0.150139
H	 1.6061811161	 1.7413426502	 1.2390364488	 0.126472
H	 2.1791929394	 1.6243972993	-0.4213095005	 0.105777
H	 2.8781503831	 5.2245717361	 0.1327560987	 0.131927
H	 3.5524806227	 3.6031906735	-0.3941199308	 0.117599
H	 1.7789701911	 3.4314020243	-1.9189004483	 0.233579
H	-1.0176589011	 5.2615475172	 2.335989523	 0.198277
58.9273	95.8686	114.2845	158.0167	214.6302	250.9443	334.0021	362.0404	403.5011	485.9306	548.7892	571.5722	616.2428	618.7699	643.1014	655.095	711.175	767.2254	845.9291	904.1026	937.8009	968.0584	981.8466	1033.8064	1046.113	1086.8115	1141.4207	1183.1709	1246.0967	1288.842	1300.7285	1313.159	1373.2278	1383.784	1470.7452	1485.4359	1506.0326	2237.6212	2239.905	3025.927	3040.2062	3060.9903	3089.7998	3110.0204	3202.9317	3484.7958	3501.7453	3507.1652
C#CCCC1(CN1)C#C	C#CCC[C@]1(CN1)C#C	
InChI=1S/C8H9N/c1-3-5-6-8(4-2)7-9-8/h1-2,9H,5-7H2	InChI=1S/C8H9N/c1-3-5-6-8(4-2)7-9-8/h1-2,9H,5-7H2/t8-/m0/s1
