22
gdb 120654	4.54261	0.72473	0.68287	2.0146	83.55	-0.2412	0.0619	0.3031	1735.8436	0.193598	-404.303429	-404.293781	-404.292837	-404.338749	35.158	
C	 0.0632240341	 1.5554922398	 0.2433184877	-0.38214
C	-0.0347484302	 0.0282824371	 0.2575199612	-0.157424
C	-1.3295888802	-0.4965571186	-0.376322394	-0.178616
C	-1.4226206775	-2.0042581278	-0.3481188843	-0.095332
N	-1.8505016396	-2.6141645376	 0.9352702318	-0.375094
C	-2.7022951342	-2.7324066268	-0.238831761	 0.273477
C	-4.150568871	-2.2619144191	-0.3273300541	-0.129945
O	-4.5050093097	-3.4567027274	-1.0641125455	-0.276379
C	-3.1717788511	-3.9964319366	-0.9552322199	-0.146799
H	 0.9952931674	 1.8998903607	 0.7020721438	 0.112132
H	 0.0316212412	 1.9465010846	-0.7799374762	 0.112409
H	-0.766887807	 2.0100780716	 0.7954341235	 0.11633
H	 0.8270142399	-0.4002399489	-0.272019815	 0.089982
H	 0.0226068589	-0.3409391369	 1.2884012738	 0.111969
H	-2.1926243002	-0.0781890535	 0.1558897755	 0.101106
H	-1.4019440607	-0.1508844375	-1.4169341016	 0.094857
H	-0.6310508681	-2.520898892	-0.8934101618	 0.081707
H	-1.3569822265	-3.4876417601	 1.1061628848	 0.229222
H	-4.6700716757	-2.1971248404	 0.6367073848	 0.109333
H	-4.3396716212	-1.3511046549	-0.9086981308	 0.104871
H	-2.7250133222	-4.2022549321	-1.9366521059	 0.104683
H	-3.1455413964	-4.9132636037	-0.3484526168	 0.099652
64.7186	85.6835	93.8047	121.4808	205.268	244.7174	263.3286	306.1788	383.0276	448.9953	489.9597	597.9693	745.8066	826.4424	834.2291	877.0311	896.8099	913.2074	948.444	963.0492	994.1643	1025.7448	1029.3618	1048.822	1087.8097	1104.3572	1130.2915	1133.9266	1147.3059	1158.7598	1221.1769	1268.6318	1278.1992	1299.0021	1308.4829	1330.2049	1331.69	1381.1212	1398.2811	1413.9251	1472.9037	1492.5926	1499.6147	1504.1078	1506.6274	1509.4612	1529.6625	2990.9025	3011.7377	3016.2793	3017.7894	3029.1702	3038.5089	3049.419	3061.3482	3066.3641	3093.8722	3097.441	3101.9227	3488.5857
CCCC1NC11COC1	CCC[C@H]1NC21COC2	
InChI=1S/C7H13NO/c1-2-3-6-7(8-6)4-9-5-7/h6,8H,2-5H2,1H3	InChI=1S/C7H13NO/c1-2-3-6-7(8-6)4-9-5-7/h6,8H,2-5H2,1H3/t6-/m1/s1
