19
gdb 94302	3.40169	1.09547	0.9764	1.3681	75.71	-0.2453	-0.0268	0.2185	1248.997	0.157109	-423.017448	-423.008691	-423.007747	-423.051882	32.643	
C	-0.1999318158	 1.5098999285	-0.208330701	-0.407744
C	 0.2366496596	 0.0603724792	-0.173218566	 0.102642
O	 1.5839248701	-0.1206531685	-0.6717250808	-0.29344
C	 1.9737947308	-0.8513688095	 0.5052646336	-0.126399
C	 0.6097472534	-0.6013447519	 1.1769207414	 0.264874
C	 0.5418787865	 0.1593744975	 2.5345088558	-0.421981
C	-0.1132194935	-1.0889995262	 3.1483168782	 0.409308
O	-0.3920571397	-1.4161073781	 4.2637665607	-0.285908
C	-0.2123924971	-1.7762336937	 1.7765599892	-0.426717
H	 0.4790825716	 2.1408706527	 0.372931702	 0.123848
H	-0.2001270439	 1.8710030902	-1.2414921264	 0.133159
H	-1.2151663188	 1.6223357581	 0.188439834	 0.116408
H	-0.4687898948	-0.5582196091	-0.7494588612	 0.072578
H	 2.192606277	-1.9051623747	 0.2835719609	 0.100309
H	 2.8464844871	-0.4034407539	 0.9974384401	 0.10425
H	 1.491850599	 0.4639228696	 2.9840060235	 0.132912
H	-0.1302781026	 1.0241938475	 2.5377177972	 0.135615
H	-1.2439985514	-1.8304433978	 1.4093769146	 0.133222
H	 0.2258315724	-2.77710075	 1.7153926043	 0.133066
35.3236	59.907	186.8837	222.6299	262.6434	321.1149	382.6528	407.6971	451.4397	465.3643	525.4636	655.868	715.1252	762.5957	861.9894	884.1372	890.4999	902.2958	989.7428	1025.8252	1043.305	1067.8645	1089.3689	1107.2798	1124.4481	1156.9772	1174.0833	1185.3978	1209.9038	1242.7728	1281.5885	1291.421	1366.7263	1383.4024	1405.0895	1421.0506	1439.2216	1482.4022	1492.0238	1522.8665	1898.6599	2977.9739	2999.0691	3033.2921	3041.6811	3042.9905	3051.7754	3097.9608	3102.8578	3105.0283	3115.102
CC1OCC11CC(=O)C1	C[C@H]1OCC21CC(=O)C2	
InChI=1S/C7H10O2/c1-5-7(4-9-5)2-6(8)3-7/h5H,2-4H2,1H3	InChI=1S/C7H10O2/c1-5-7(4-9-5)2-6(8)3-7/h5H,2-4H2,1H3/t5-/m1/s1
