22
gdb 7546	3.02617	1.24715	1.02657	1.6591	78.97	-0.254	0.0891	0.3431	1274.0536	0.197603	-350.205843	-350.195829	-350.194885	-350.240854	36.202	
C	 0.1565770184	 1.5829302768	-0.0591818118	-0.382587
C	 0.3688696486	 0.067056834	-0.0571479836	-0.158818
C	 0.2529452968	-0.5439706837	 1.3484571274	-0.254194
C	 0.5265950789	-2.0387550063	 1.3780652177	 0.398129
C	-0.5396005307	-2.9129970418	 0.7453421599	-0.460691
O	 1.8749113326	-2.4212532409	 1.0367231151	-0.303883
C	 1.4244543317	-2.6571168564	 2.3766522587	 0.027166
C	 2.1495229842	-1.9479024686	 3.49175304	-0.426045
H	 0.8933015812	 2.0874140298	 0.5760809875	 0.113894
H	 0.2500502827	 1.9962300186	-1.0682828074	 0.1122
H	-0.8383220349	 1.8467492939	 0.3173829012	 0.11137
H	-0.3583492137	-0.4009800914	-0.7313223874	 0.095961
H	 1.3605515528	-0.1732768838	-0.4571205359	 0.115927
H	 0.9493853799	-0.0226135186	 2.0116092464	 0.097041
H	-0.7535012649	-0.3626852351	 1.7496984796	 0.092905
H	-0.6960851904	-2.6473381085	-0.3048140546	 0.12702
H	-0.2467323902	-3.9650489336	 0.7849375797	 0.124468
H	-1.4964853385	-2.7972626795	 1.2662879731	 0.116551
H	 1.2366840757	-3.713969748	 2.5860682773	 0.076846
H	 2.3566930956	-0.9038725396	 3.2511514661	 0.128599
H	 1.5632982507	-1.9869284046	 4.416582892	 0.119827
H	 3.1079036036	-2.4420432526	 3.684167269	 0.128313
52.6207	86.5537	131.4641	172.4527	186.2348	241.9302	247.3907	264.8008	321.9798	368.9938	465.0256	481.1132	521.4743	720.5534	742.2981	780.2278	870.1137	882.62	913.4253	964.4736	992.1532	1026.5736	1048.1651	1082.6343	1107.6681	1137.2284	1141.8824	1183.2423	1245.1119	1283.7772	1304.5633	1331.6228	1359.1105	1395.0384	1406.9957	1411.1489	1413.7268	1460.655	1476.0899	1482.8135	1491.6011	1492.8873	1497.4188	1499.6587	1510.0138	1516.2039	3019.4023	3027.5736	3032.3774	3036.9311	3037.705	3063.4742	3065.5212	3084.4327	3096.5514	3098.6714	3100.7031	3101.9861	3121.5358	3136.8926
CCCC1(C)OC1C	CCC[C@@]1(C)O[C@H]1C	
InChI=1S/C7H14O/c1-4-5-7(3)6(2)8-7/h6H,4-5H2,1-3H3	InChI=1S/C7H14O/c1-4-5-7(3)6(2)8-7/h6H,4-5H2,1-3H3/t6-,7+/m0/s1
