18
gdb 82112	2.8735	1.48906	1.28034	2.4256	70.98	-0.2269	0.0696	0.2965	1038.947	0.147308	-438.996091	-438.988095	-438.987151	-439.029022	30.616	
O	 0.0036551986	 1.576247578	 0.3041036239	-0.424095
C	 0.1058523473	 0.2131647864	 0.0253979681	 0.107139
C	 0.2411028877	-0.7142347729	 1.2441230548	-0.020088
O	-0.9164970977	-0.4395051064	 2.0471636714	-0.253606
C	-1.0442365162	-1.3802373651	 0.962218565	-0.018301
C	-1.2171960298	-0.588043482	-0.3536016047	-0.042307
N	-2.386929301	 0.1789664228	-0.6998103954	-0.06939
C	-3.6929881816	-0.4570767784	-0.558578163	-0.225958
C	-3.289512602	 0.6558267298	 0.3454453413	-0.233936
H	-0.5892442386	 1.6545843033	 1.0620270049	 0.292957
H	 0.8883248084	 0.0908019267	-0.7261630521	 0.096845
H	 1.1221165221	-1.0784859725	 1.7592655097	 0.110293
H	-1.3659418839	-2.3811598848	 1.2269797114	 0.107449
H	-0.9933478851	-1.2535073754	-1.1954491073	 0.089853
H	-4.390698035	-0.2849128766	-1.3734104979	 0.118496
H	-3.737726495	-1.4550515084	-0.125361615	 0.108264
H	-3.0688455006	 0.4060306351	 1.3781975814	 0.137857
H	-3.6854640777	 1.6551045403	 0.1860775036	 0.11853
58.3139	133.879	158.2769	230.6418	297.2478	340.7767	438.8978	519.6109	541.2925	669.8752	740.3381	777.9942	819.7743	855.0363	875.0121	878.841	897.5886	914.0988	934.0296	1004.2037	1038.0055	1056.8406	1085.5808	1123.2127	1124.41	1131.0465	1172.5368	1179.5414	1191.3315	1223.9769	1241.8567	1266.6437	1305.4702	1338.4781	1362.5009	1375.1353	1442.4755	1495.1609	1521.6252	3043.5201	3094.8112	3099.2603	3116.8803	3177.5061	3180.3593	3195.8759	3209.6675	3781.2588
OC1C2OC2C1N1CC1	O[C@H]1[C@H]2O[C@H]2[C@H]1N1CC1	
InChI=1S/C6H9NO2/c8-4-3(7-1-2-7)5-6(4)9-5/h3-6,8H,1-2H2	InChI=1S/C6H9NO2/c8-4-3(7-1-2-7)5-6(4)9-5/h3-6,8H,1-2H2/t3-,4+,5-,6+/m0/s1
