19
gdb 63312	2.65835	1.52081	1.28224	4.9934	75.36	-0.2517	0.0358	0.2875	1068.9904	0.15957	-419.235754	-419.227276	-419.226332	-419.268455	33.05	
C	-0.1368907083	 1.6097118934	 0.023889869	-0.415817
C	 0.0020532909	 0.0815343818	 0.0239589716	 0.254616
C	-1.3819118726	-0.5862978793	-0.0605575473	-0.416569
N	 0.8787390078	-0.3870137765	-1.0444076413	-0.343229
C	 1.8377248039	-1.2951385459	-0.6657090493	 0.400998
O	 2.5960721928	-1.8893015337	-1.3865105234	-0.371166
N	 1.7959319925	-1.425550828	 0.7772747054	-0.154845
C	 2.199469441	-0.1503030229	 1.422745902	-0.268237
C	 0.7676743287	-0.4703808378	 1.2362311601	-0.039159
H	 0.8405555934	 2.0954221694	 0.0692096112	 0.123655
H	-0.6490645411	 1.9536963848	-0.8812694124	 0.117243
H	-0.7283862431	 1.9393317014	 0.8837055927	 0.124631
H	-1.8902631313	-0.3056987518	-0.9888745452	 0.115745
H	-1.2868498698	-1.6754705322	-0.0368046582	 0.134898
H	-2.0154443351	-0.2736525469	 0.7761446867	 0.120398
H	 0.6907953657	-0.2325347456	-2.0220193093	 0.251682
H	 2.6521218363	-0.2672789461	 2.4022704101	 0.130962
H	 2.6578631691	 0.6049119331	 0.7904696989	 0.133483
H	 0.1736229493	-0.7864621673	 2.0884872787	 0.10071
79.499	189.5477	212.005	254.5822	265.7153	332.7793	342.1696	384.1476	458.077	508.4799	509.4823	593.8382	664.1976	763.6559	785.0073	826.2734	864.2852	928.5783	936.0057	964.2637	988.8113	1005.4013	1039.8539	1087.0883	1113.9347	1160.7702	1192.5919	1214.6647	1221.8805	1258.2647	1307.0869	1360.9942	1400.2013	1412.6005	1430.2165	1478.6506	1484.358	1499.6351	1504.7503	1507.0682	1863.0728	3032.7661	3038.8206	3100.0997	3106.8185	3117.4546	3118.3516	3125.5686	3154.7639	3208.1909	3645.7249
CC1(C)NC(=O)N2CC12	CC1(C)NC(=O)N2C[C@@H]12	
InChI=1S/C6H10N2O/c1-6(2)4-3-8(4)5(9)7-6/h4H,3H2,1-2H3,(H,7,9)	InChI=1S/C6H10N2O/c1-6(2)4-3-8(4)5(9)7-6/h4H,3H2,1-2H3,(H,7,9)/t4-,8?/m0/s1
