17
gdb 48299	2.99312	0.87648	0.71328	3.6085	78.63	-0.2557	-0.0297	0.226	1535.1652	0.134394	-417.998559	-417.988848	-417.987904	-418.034254	33.847	
N	 0.0281255771	 1.3245655114	 0.0220984344	-0.45509
C	 0.001352566	 0.0581063307	-0.0523876808	 0.094358
N	-1.1791907401	-0.682952764	 0.0086510497	-0.062981
C	-1.130092022	-2.1427769305	 0.0273144098	-0.18502
C	-1.2485250406	-2.718130703	 1.4558437399	-0.348203
C	-1.1424952422	-4.1702127408	 1.4596510422	 0.292253
C	-1.0444785849	-5.3673532009	 1.4222445997	-0.433274
C	-2.4212815127	-0.0644410012	 0.0654066586	 0.157175
O	-3.4581633487	-0.6816475577	 0.154383563	-0.321678
H	 0.9817862446	 1.666770548	-0.0658908002	 0.237073
H	 0.8768956285	-0.5896831435	-0.1751581643	 0.106412
H	-1.9547609356	-2.5183660152	-0.5802926681	 0.154722
H	-0.1909343934	-2.4637108609	-0.4298794692	 0.125201
H	-0.4665467769	-2.2822267171	 2.0902000439	 0.131557
H	-2.211543864	-2.4057189068	 1.8732893099	 0.16424
H	-0.9674524834	-6.4263285678	 1.4077365137	 0.200304
H	-2.3441723218	 1.0296316992	 0.0141905776	 0.142951
54.8056	69.358	89.6771	143.6157	187.7684	231.1108	281.6782	326.873	366.687	416.6746	471.1002	596.4162	625.7323	654.6742	709.9522	770.5698	808.176	901.5833	976.8762	1027.192	1044.8835	1052.1567	1064.3412	1143.9877	1224.3434	1269.1733	1306.7758	1323.6179	1391.8035	1402.8452	1428.6509	1438.9135	1474.3451	1484.0717	1725.116	1793.1965	2241.3464	3031.5801	3052.1577	3064.55	3074.259	3083.4988	3136.714	3506.5918	3522.8351
N=CN(CCC#C)C=O	N=CN(CCC#C)C=O	
InChI=1S/C6H8N2O/c1-2-3-4-8(5-7)6-9/h1,5-7H,3-4H2	InChI=1S/C6H8N2O/c1-2-3-4-8(5-7)6-9/h1,5-7H,3-4H2
