19
gdb 75450	1.95864	1.61325	1.33668	2.8778	81.67	-0.2523	0.0027	0.255	1102.2568	0.159875	-382.10013	-382.090959	-382.090015	-382.133758	34.325	
C	-0.0882616563	 1.4820184759	 0.03929186	-0.51715
C	 0.0061357747	-0.007832797	-0.0344739095	 0.344555
C	 0.0196359984	-0.785166717	-1.1168499099	-0.165452
C	 0.0783536201	-2.2559766144	-0.7970710197	-0.262284
C	 0.4439997099	-2.2634729079	 0.7041800712	-0.250858
C	 0.0480402762	-0.8587256914	 1.2397933207	 0.042581
N	 1.0447818484	-0.3647905014	 2.2012174893	-0.538387
C	-1.3106662721	-0.8847608691	 1.8418361769	 0.235964
N	-2.3562135494	-0.8764370712	 2.3381764124	-0.352027
H	 0.7884686155	 1.9089315669	 0.5408451991	 0.137322
H	-0.1536087386	 1.9233463924	-0.9581104463	 0.131554
H	-0.973151433	 1.7952280821	 0.6079858252	 0.142117
H	-0.035843469	-0.4098940129	-2.133506969	 0.096928
H	-0.8908464393	-2.7373881601	-0.9843068337	 0.122571
H	 0.8137013345	-2.7964932048	-1.4026297258	 0.112153
H	-0.0244466327	-3.0748464885	 1.2650487973	 0.114877
H	 1.5279567748	-2.3397644345	 0.8260879569	 0.124527
H	 0.7379214186	 0.5210425335	 2.5951982011	 0.240862
H	 1.1050282195	-1.0097522707	 2.985569034	 0.240146
79.0826	132.1802	182.6829	193.8787	237.3556	246.2408	271.9049	334.9316	392.2274	485.0246	522.2439	597.4511	625.4466	666.2217	692.4918	817.0458	862.6477	900.7894	931.1974	941.2439	964.292	1021.9651	1040.4184	1066.0584	1091.6759	1136.6571	1198.9342	1208.2317	1250.8546	1287.8888	1308.392	1332.8877	1362.8193	1411.3851	1478.7402	1482.5446	1493.0148	1499.2949	1656.569	1729.6463	2330.0121	3020.9221	3021.3323	3060.1343	3070.859	3072.3924	3118.5602	3121.4203	3187.8228	3481.6211	3557.5535
CC1=CCCC1(N)C#N	CC1=CCC[C@]1(N)C#N	
InChI=1S/C7H10N2/c1-6-3-2-4-7(6,9)5-8/h3H,2,4,9H2,1H3	InChI=1S/C7H10N2/c1-6-3-2-4-7(6,9)5-8/h3H,2,4,9H2,1H3/t7-/m0/s1
