20
gdb 58054	2.05555	1.41718	1.09511	1.385	81.11	-0.2432	0.0407	0.284	1222.8674	0.168361	-403.075926	-403.065974	-403.06503	-403.110748	37.074	
C	 0.4958378954	 1.4072688107	-0.0482261374	-0.419222
C	 0.0972578729	-0.0320580857	 0.2789651825	 0.141097
O	 0.2811815598	-0.3296734438	 1.6522831197	-0.435253
C	-1.3657081846	-0.3328704711	-0.1604172417	-0.146241
C	-1.6187872934	-1.7750145137	-0.2432177339	 0.332739
C	-1.8423914374	-2.9550100332	-0.3121701399	-0.46507
N	-2.2739564962	 0.4203877524	 0.7236411815	-0.102594
C	-3.7050545503	 0.1452402903	 0.6519067992	-0.227793
C	-2.9187693596	-0.2649120924	 1.8454160579	-0.228802
H	 1.5018821501	 1.604694724	 0.3307061892	 0.121538
H	 0.4915972158	 1.5838743897	-1.12905478	 0.111618
H	-0.2034277316	 2.1111793751	 0.4134147567	 0.129948
H	 0.7533143993	-0.7262445442	-0.2559743912	 0.096456
H	-0.2643479468	 0.2940126766	 2.1451032444	 0.289058
H	-1.4993245116	 0.0906125552	-1.1646029602	 0.110044
H	-2.0230321557	-3.9996575168	-0.3783717706	 0.198762
H	-4.3495485405	 1.0191732115	 0.6801898812	 0.117223
H	-4.0341898861	-0.6536180664	-0.0089707886	 0.125138
H	-2.7309644795	-1.3270875417	 1.9718126484	 0.138818
H	-2.9761791599	 0.3109748833	 2.7651341928	 0.112536
64.2278	88.7686	137.9525	171.8578	187.9802	247.0765	318.3099	329.819	358.8953	391.2633	415.4736	518.8733	576.723	620.6909	627.8283	665.1811	797.1967	825.543	849.6132	905.8512	918.5774	995.6213	1013.8033	1038.4683	1071.3499	1088.8327	1117.854	1129.7753	1146.0179	1176.8204	1186.6188	1277.3334	1305.6065	1321.7979	1336.1421	1367.0421	1397.7402	1430.7773	1484.8821	1489.2822	1501.205	1513.0677	2222.6284	3022.4285	3038.0982	3062.8381	3104.8169	3109.4487	3112.3506	3125.2142	3189.0227	3205.1793	3500.6682	3801.5174
CC(O)C(C#C)N1CC1	C[C@@H](O)[C@@H](C#C)N1CC1	
InChI=1S/C7H11NO/c1-3-7(6(2)9)8-4-5-8/h1,6-7,9H,4-5H2,2H3	InChI=1S/C7H11NO/c1-3-7(6(2)9)8-4-5-8/h1,6-7,9H,4-5H2,2H3/t6-,7-/m1/s1
