17
gdb 99548	2.20569	1.24679	0.97843	4.539	75.26	-0.2612	0.015	0.2762	1250.6397	0.133929	-417.96213	-417.952191	-417.951247	-417.99735	35.333	
C	 0.2523777831	 1.10510682	-0.5349937351	-0.339577
N	-0.3547817815	 0.0450591673	 0.2750302621	-0.311643
C	 0.5148399356	-0.5201829863	 1.3206970093	-0.197594
C	-0.245420657	-0.7764582355	 2.5395277265	 0.301001
C	-0.8823807924	-0.980308211	 3.5372857017	-0.401442
C	 1.1105457752	-1.8691155238	 0.7749412566	-0.006058
O	 0.1070280331	-2.623543689	 0.1639433525	-0.402392
C	 2.2315257914	-1.5910440052	-0.1577276082	 0.271915
N	 3.1033734769	-1.3664095421	-0.8826922669	-0.330833
H	 1.1004178404	 0.7070899258	-1.096304839	 0.16543
H	-0.487715842	 1.4655418936	-1.2539255805	 0.131892
H	 0.6056495706	 1.9598089003	 0.0626930911	 0.11437
H	-1.2118991617	 0.373721557	 0.700403318	 0.24338
H	 1.3482143375	 0.1584052322	 1.5573041906	 0.119209
H	-1.4383623371	-1.1622714256	 4.4241950555	 0.208715
H	 1.5142537204	-2.4439046776	 1.6140864239	 0.143624
H	-0.4526714925	-1.9559360701	-0.2750632681	 0.290003
60.2769	87.0102	124.5115	153.5454	191.8613	202.1688	253.1311	316.8198	355.3752	407.7049	489.3481	535.2722	583.7877	607.1991	641.8873	674.0407	729.5136	786.01	866.823	930.4663	1004.1885	1019.2161	1100.6713	1124.1852	1152.0627	1202.275	1238.647	1292.2054	1343.2636	1360.7151	1446.8374	1465.8798	1479.4569	1499.1523	1519.3991	2242.9204	2348.5852	2986.1032	2990.785	3074.8265	3093.3066	3136.0546	3500.1849	3565.2009	3605.1885
CNC(C#C)C(O)C#N	CN[C@@H](C#C)[C@@H](O)C#N	
InChI=1S/C6H8N2O/c1-3-5(8-2)6(9)4-7/h1,5-6,8-9H,2H3	InChI=1S/C6H8N2O/c1-3-5(8-2)6(9)4-7/h1,5-6,8-9H,2H3/t5-,6-/m0/s1
