17
gdb 73611	2.32568	1.64225	1.30908	1.2653	74.36	-0.2393	0.0457	0.285	1027.7516	0.135011	-421.773719	-421.765423	-421.764479	-421.806254	31.998	
O	-0.040939396	 1.3460857306	-0.0080162236	-0.461365
C	 0.0135438799	-0.0411910737	-0.0339312948	 0.355079
C	 0.9206065839	-0.7174420923	-1.0528607732	-0.151152
O	 0.366646656	-2.0030071618	-1.2840844125	-0.24953
C	-1.034376564	-1.9708798692	-1.0138314049	-0.097617
C	-1.2423562665	-0.8530122056	-0.0143744446	-0.125111
C	-0.3358376248	-0.8333519517	 1.2229546705	-0.315027
C	 0.4062639384	-1.9690735324	 1.6823312201	 0.371024
C	 1.0280643567	-2.9091852727	 2.1029928824	-0.467449
H	 0.7436741642	 1.6715579542	 0.4470856757	 0.290696
H	 0.9277094437	-0.0954506692	-1.9623777945	 0.100605
H	 1.9520725785	-0.8625361397	-0.7134673444	 0.111089
H	-1.6136979651	-1.7615389352	-1.927017752	 0.098967
H	-1.3134683504	-2.9619416846	-0.6424784316	 0.120008
H	-2.2115265446	-0.3773498235	 0.0721810566	 0.108255
H	-0.7284727203	-0.194365177	 2.010052269	 0.117126
H	 1.5778529004	-3.7449253562	 2.4583819219	 0.194401
118.2455	130.3805	208.7449	228.324	301.8038	330.2526	370.2053	388.8642	535.9702	546.2061	590.914	597.9441	647.3312	711.9998	726.1359	849.9385	899.3937	929.0369	938.9593	994.502	1032.3863	1070.7056	1096.5359	1100.213	1123.7168	1197.1243	1230.1523	1237.9474	1268.5098	1322.7845	1333.7477	1359.3186	1373.6301	1468.4278	1507.8392	1520.1602	2234.085	2978.1878	2983.9455	3065.1928	3075.4765	3140.9758	3194.8028	3504.7388	3797.1397
OC12COCC1C2C#C	O[C@]12COC[C@H]1[C@H]2C#C	
InChI=1S/C7H8O2/c1-2-5-6-3-9-4-7(5,6)8/h1,5-6,8H,3-4H2	InChI=1S/C7H8O2/c1-2-5-6-3-9-4-7(5,6)8/h1,5-6,8H,3-4H2/t5-,6+,7+/m1/s1
