19
gdb 72585	2.25855	1.60029	1.46027	2.9721	77.67	-0.2326	0.0275	0.2601	1040.5066	0.158624	-419.194389	-419.185433	-419.184489	-419.227503	34.368	
C	-0.2561811466	 1.5125558426	 0.2134572719	-0.467724
C	 0.0426312151	 0.047499915	 0.0240426921	 0.278658
C	 1.0661458612	-0.4108260703	-1.0551111499	-0.270743
C	 1.8159690682	-1.2694303581	 0.0074763746	-0.279659
C	 0.7776462138	-0.8857053477	 1.0922272573	 0.319191
O	 1.2845676258	-0.5030911994	 2.3239457363	-0.474189
C	-0.4850354706	-1.730266026	 1.0612494751	 0.289832
N	-0.7879674501	-2.7754676082	 1.7099662169	-0.562279
N	-1.1085242014	-0.8691083217	 0.1617565891	-0.373722
H	 0.6732015693	 2.0846103252	 0.295302785	 0.126592
H	-0.8235256477	 1.9158905968	-0.6340631605	 0.115659
H	-0.8414529465	 1.673406455	 1.1231921105	 0.125777
H	 0.6217484949	-0.9637096836	-1.8863437081	 0.094542
H	 1.6695888552	 0.402612483	-1.4650129672	 0.106025
H	 1.9391128842	-2.3366843218	-0.1880260026	 0.113338
H	 2.7872324453	-0.844147914	 0.2702834503	 0.119415
H	 0.7203622487	-0.8881557376	 3.0045538111	 0.297924
H	-1.7279144362	-3.1081524032	 1.4875724659	 0.209814
H	-1.7463962425	-1.1450050659	-0.5742572879	 0.231548
104.3921	165.2308	174.4579	191.3298	203.7917	302.4873	321.6963	357.7716	423.2899	480.1237	548.3291	605.7693	627.9366	710.7313	741.8731	756.5322	835.9563	855.2378	878.1502	929.6712	954.1005	983.5756	1043.2323	1081.9149	1094.4989	1134.9712	1184.9308	1211.7056	1225.6921	1250.2164	1286.3532	1297.4056	1349.0308	1362.8362	1388.0988	1412.8872	1472.0227	1484.4551	1489.3189	1490.9591	1786.9093	3028.3358	3061.1452	3071.5126	3093.8291	3108.1038	3117.2577	3130.4132	3457.7419	3563.2602	3796.6188
CC12CCC1(O)C(=N)N2	C[C@@]12CC[C@]1(O)[C]([NH])N2	
InChI=1S/C6H10N2O/c1-5-2-3-6(5,9)4(7)8-5/h9H,2-3H2,1H3,(H2,7,8)	InChI=1S/C6H10N2O/c1-5-2-3-6(5,9)4(7)8-5/h9H,2-3H2,1H3,(H2,7,8)/t5-,6+/m1/s1
