17
gdb 54941	4.08446	0.93029	0.82829	2.2131	70.7	-0.2428	-0.0349	0.2078	1357.9319	0.13578	-455.173499	-455.164547	-455.163602	-455.2082	31.746	
N	-0.2671667972	 1.3442528949	 0.1209094148	-0.557453
C	-0.1295549942	-0.0306122932	 0.2393681632	 0.410638
O	 0.9400812863	-0.5897618614	 0.3981018664	-0.391084
N	-1.3145426088	-0.72340165	 0.1308118702	-0.098012
C	-2.5110778853	-0.3883715618	-0.664247743	-0.200089
C	-2.7517891429	-1.9034570169	-0.8644978694	-0.122336
C	-1.3651546957	-2.154826297	-0.1754376358	-0.182232
C	-3.9178354657	-2.4841682596	-0.1054650683	 0.150839
O	-4.7359868745	-1.8412069561	 0.5002051647	-0.232605
H	 0.5533252954	 1.8472056107	 0.4230331655	 0.262389
H	-1.1403083504	 1.7563972385	 0.4137319135	 0.256062
H	-3.3042977586	 0.1190630761	-0.1073690097	 0.133824
H	-2.2846217661	 0.1644775512	-1.5824430108	 0.119588
H	-2.7939812146	-2.2533091813	-1.8994593274	 0.109697
H	-0.5691143555	-2.4807590031	-0.8517483355	 0.131161
H	-1.3720313138	-2.806988427	 0.7040516602	 0.124193
H	-3.9669172185	-3.5968694239	-0.1304030084	 0.085421
48.5779	87.7217	116.0013	159.7149	177.3409	282.9359	330.6038	421.9259	448.0166	547.0058	562.9978	648.0504	679.8591	776.0075	787.608	884.0911	915.0266	924.3307	1010.0923	1069.6548	1087.0812	1123.4703	1140.2144	1170.8066	1178.515	1193.0592	1231.402	1290.8137	1331.8955	1350.2915	1421.8615	1435.1899	1508.3997	1529.2842	1623.0436	1792.14	1829.7078	2874.8029	3036.0445	3043.2583	3078.374	3090.996	3094.922	3575.7959	3691.7261
NC(=O)N1CC(C1)C=O	NC(=O)N1CC(C1)C=O	
InChI=1S/C5H8N2O2/c6-5(9)7-1-4(2-7)3-8/h3-4H,1-2H2,(H2,6,9)	InChI=1S/C5H8N2O2/c6-5(9)7-1-4(2-7)3-8/h3-4H,1-2H2,(H2,6,9)
