21
gdb 92110	2.72667	1.59766	1.35237	1.6679	81.66	-0.2329	0.0916	0.3245	1065.6363	0.183286	-387.074983	-387.066922	-387.065978	-387.107023	32.543	
C	-0.2982520851	 1.5555898664	-0.0508659595	-0.397564
C	 0.0297837833	 0.0647954382	-0.0259809189	 0.115512
O	 0.7042046753	-0.3471762257	-1.230233047	-0.284912
C	 2.0000443777	-0.805383447	-0.8718798739	 0.090693
C	 2.8807061171	 0.347836834	-0.3014870928	-0.303305
C	 2.4292562292	-0.073131349	 1.1034781625	 0.329657
C	 3.1840563714	 0.2119861042	 2.3701646506	-0.501725
C	 1.9123504856	-1.4042535152	 0.554787843	-0.144226
C	 0.9391687714	-0.406463312	 1.1036470336	-0.117173
H	 0.6062986258	 2.1688628235	-0.0420763878	 0.119554
H	-0.8745670334	 1.8016420634	-0.9473547835	 0.123334
H	-0.9008307077	 1.8216768925	 0.8248097391	 0.108644
H	-0.9152260584	-0.4967251937	 0.0240195989	 0.073829
H	 2.3989402329	-1.3975571209	-1.6944078596	 0.078949
H	 3.9480585679	 0.139078475	-0.4341904588	 0.093585
H	 2.6635589673	 1.3571683787	-0.665044759	 0.092691
H	 3.136496964	 1.2763649263	 2.6298575145	 0.121013
H	 2.7771712422	-0.352983397	 3.2156229872	 0.116509
H	 4.2421307415	-0.0556560445	 2.2665585514	 0.117128
H	 2.0486835366	-2.4259396301	 0.8841094233	 0.08447
H	 0.4985984555	-0.583576297	 2.0788941569	 0.083335
147.9902	178.1772	208.6552	214.9732	294.6565	315.818	404.2607	448.937	516.4592	579.018	659.7012	707.082	771.1702	835.04	842.1142	864.6314	881.5898	902.4491	939.0046	961.4219	989.7519	1011.5553	1028.1803	1052.1291	1079.7498	1109.5082	1122.4067	1146.6	1161.528	1202.2916	1208.5501	1238.3427	1274.549	1301.4693	1329.3751	1358.7632	1381.775	1404.7339	1413.3851	1434.555	1484.0839	1486.6103	1494.2319	1496.3817	1502.7083	2984.6506	3019.6811	3034.3006	3038.7156	3078.6794	3085.0554	3092.712	3106.4332	3125.8182	3126.936	3174.1971	3199.5627
CC1OC2CC3(C)C2C13	C[C@H]1O[C@H]2C[C@]3(C)[C@H]2[C@H]13	
InChI=1S/C8H12O/c1-4-6-7-5(9-4)3-8(6,7)2/h4-7H,3H2,1-2H3	InChI=1S/C8H12O/c1-4-6-7-5(9-4)3-8(6,7)2/h4-7H,3H2,1-2H3/t4-,5+,6+,7-,8+/m1/s1
