14
gdb 34247	3.44736	1.61903	1.39835	4.133	65.6	-0.2739	-0.0147	0.2592	906.3247	0.102185	-436.635628	-436.629339	-436.628395	-436.666343	25.085	
N	-0.0365335262	-1.1361486483	 0.1082322909	-0.329797
C	-0.0703188422	 0.0180243703	 0.061297254	 0.17899
C	-0.0807829471	 1.4544501543	-0.0220882398	 0.337294
O	-1.0283489953	 2.1639798346	 0.7647047972	-0.315779
C	-0.6724046716	 3.3257700054	-0.0517187418	 0.014261
C	 0.7482681206	 3.6298004785	 0.458791848	-0.214713
C	 1.2973506263	 2.3028547445	-0.087643265	-0.00576
O	 1.1106711413	 2.4736777273	-1.5208828725	-0.280567
C	-0.2786773493	 2.3519690016	-1.2598334722	 0.015563
H	-1.4443287704	 4.0886810552	-0.0886304384	 0.10693
H	 1.2431432205	 4.4746730757	-0.0228830533	 0.127448
H	 0.7593830635	 3.7291244042	 1.5450266393	 0.128525
H	 2.2702004696	 1.9123563849	 0.1970696296	 0.114224
H	-0.9310734596	 2.1826908919	-2.1123465361	 0.123383
148.6455	156.608	405.4897	443.8804	504.6698	533.4678	539.9244	585.4535	723.6501	766.3703	797.3467	849.9458	892.3718	923.353	934.1791	951.4338	985.116	996.1961	1017.426	1082.032	1097.158	1124.6633	1164.5455	1219.6879	1234.6373	1258.5012	1278.9691	1313.1777	1343.6421	1459.2951	2361.612	3088.3239	3153.5014	3166.4696	3174.1846	3178.3112
N#CC12OC3CC1OC23	N#C[C@@]12O[C@H]3C[C@@H]1O[C@@H]23	
InChI=1S/C6H5NO2/c7-2-6-4-1-3(9-6)5(6)8-4/h3-5H,1H2	InChI=1S/C6H5NO2/c7-2-6-4-1-3(9-6)5(6)8-4/h3-5H,1H2/t3-,4-,5+,6+/m0/s1
