19
gdb 68315	3.40322	1.10381	0.98196	4.9144	81.32	-0.2374	0.0295	0.267	1254.2378	0.15888	-382.011258	-382.002763	-382.001819	-382.044852	32.357	
C	 0.0703865706	 1.2994061245	-0.1399714578	-0.518539
C	 0.165408113	-0.1984120853	-0.1027479641	 0.34525
C	 0.8435604757	-1.1752476789	-1.1166921844	-0.283112
C	 0.1155738769	-2.0390784737	-0.05253546	-0.014557
C	 0.7096058965	-1.1110684554	 1.034537782	-0.246791
N	-1.0785522526	-1.0962760219	-0.0468410996	-0.133289
C	-1.9730175621	-1.0973013325	-1.206942511	-0.307784
C	-2.8862001262	-2.2424397956	-1.1316762423	 0.281239
N	-3.5951437052	-3.15341774	-1.0888342993	-0.308415
H	 1.0690372107	 1.7447150399	-0.0897556412	 0.131475
H	-0.4036096554	 1.6486569138	-1.0638291193	 0.123298
H	-0.5141426349	 1.6684921535	 0.7084500805	 0.137026
H	 0.4664105529	-1.1936432918	-2.139931012	 0.100735
H	 1.9362676288	-1.2047027796	-1.1171307617	 0.100688
H	-0.0185913879	-3.1200124177	-0.0199822089	 0.101677
H	 1.7923618111	-1.1363572911	 1.1655181153	 0.097542
H	 0.1574470166	-1.0710229623	 1.9736419282	 0.110384
H	-2.5716511539	-0.1793339266	-1.170279756	 0.153384
H	-1.4944080345	-1.1233471395	-2.1988776282	 0.129788
43.124	117.9457	195.6899	206.2101	285.3937	344.148	374.9284	385.7436	482.203	565.6531	601.9512	632.1645	739.6495	780.449	814.3111	904.169	909.086	938.8588	954.5344	987.3894	1000.8175	1019.5129	1045.5241	1078.3602	1121.8155	1145.2281	1165.1602	1179.5657	1213.0793	1238.7918	1241.7343	1263.9493	1325.4287	1360.5435	1410.7871	1469.5938	1483.9406	1484.764	1489.3127	1534.842	2365.7212	2975.9347	3033.8984	3055.5739	3066.7074	3080.688	3100.9656	3112.4781	3124.1302	3127.8213	3159.9852
CC12CC(C1)N2CC#N	C[C@@]12C[C@@H](C1)N2CC#N	
InChI=1S/C7H10N2/c1-7-4-6(5-7)9(7)3-2-8/h6H,3-5H2,1H3	InChI=1S/C7H10N2/c1-7-4-6(5-7)9(7)3-2-8/h6H,3-5H2,1H3/t6-,7+
