17
gdb 54398	3.39692	1.36097	1.29944	2.4696	72.63	-0.24	0.0006	0.2406	1026.8763	0.137735	-417.983774	-417.976126	-417.975182	-418.016239	30.107	
N	-0.0742574567	 1.2894423225	 0.2862427053	-0.532347
C	 0.0591970833	-0.0113028486	-0.0965019184	 0.239552
O	 1.1029908389	-0.5155389771	-0.4625356586	-0.363445
C	-1.2353864684	-0.7831535564	-0.028085691	 0.233119
C	-1.3743285622	-2.2142033923	 0.5820983948	-0.251567
C	-2.8586476845	-1.7152189583	 0.6193209234	-0.074636
N	-2.3437179867	-0.305204296	 0.9136321918	-0.365277
C	-3.1540944787	-1.5676305152	-0.8773589823	-0.064517
C	-2.0625835949	-0.9448467052	-1.3198998288	-0.08547
H	 0.714249512	 1.9077499759	 0.1882315936	 0.260916
H	-0.9869495085	 1.6664230551	 0.4854989662	 0.272856
H	-1.1224613525	-3.0712978534	-0.0453227739	 0.111572
H	-0.9177686267	-2.3024026336	 1.5734911561	 0.100908
H	-3.617322259	-2.1281391822	 1.282436555	 0.075882
H	-1.947178637	-0.3361905038	 1.8593581746	 0.209574
H	-4.0397532648	-1.8982049119	-1.3989444986	 0.112749
H	-1.7699595335	-0.6119633095	-2.3040336092	 0.120131
47.2035	170.3566	187.0633	324.3707	367.0223	418.1743	502.8262	546.9906	590.217	613.5387	650.0298	708.6352	729.0883	767.0972	833.8233	868.9885	900.385	909.4582	943.6592	961.7697	1004.1065	1041.0548	1052.6698	1091.9387	1103.2957	1167.3481	1193.3576	1195.9326	1235.163	1261.3567	1284.8941	1355.1703	1400.187	1501.6485	1606.2051	1625.2842	1801.7765	3048.933	3124.2491	3133.4904	3236.0676	3263.458	3381.509	3584.319	3724.5999
NC(=O)C12CC(N1)C=C2	NC(=O)[C@@]12C[C@@H](N1)C=C2	
InChI=1S/C6H8N2O/c7-5(9)6-2-1-4(3-6)8-6/h1-2,4,8H,3H2,(H2,7,9)	InChI=1S/C6H8N2O/c7-5(9)6-2-1-4(3-6)8-6/h1-2,4,8H,3H2,(H2,7,9)/t4-,6+/m0/s1
