15
gdb 27415	2.53903	1.66498	1.10237	4.8662	76.13	-0.2525	-0.0884	0.1641	1072.064	0.113213	-416.8415	-416.833752	-416.832808	-416.873882	28.496	
C	 0.028001795	 1.4803162686	 0.1978272039	-0.489831
C	-0.0607142913	-0.0117868561	-0.0113638374	 0.276367
C	-1.2445530782	-0.6628976113	-0.0304272795	-0.243799
C	-1.3878724611	-2.0864553811	-0.4322866644	 0.341987
O	-2.2107796892	-2.4387638876	-1.244982628	-0.318108
N	-0.5931910631	-2.990009065	 0.2782852844	-0.229867
C	 0.6691525947	-2.8515501131	 0.4298389295	 0.077334
N	 1.5394668724	-1.9221500283	-0.1134794637	-0.227607
C	 1.2007550081	-0.6927142926	-0.299289491	-0.012259
H	 0.4957183989	 1.9684441996	-0.6652452735	 0.145439
H	-0.9600309578	 1.9203148775	 0.3448630773	 0.140889
H	 0.6444854098	 1.7194441781	 1.0717524325	 0.145962
H	-2.1732279163	-0.1147315921	 0.1085957443	 0.133009
H	 1.1842163258	-3.6032935202	 1.0297487393	 0.136135
H	 1.9909237324	-0.0477830664	-0.6949098537	 0.124347
113.0746	132.3887	169.5059	266.151	301.7902	341.3369	402.7078	451.3573	507.188	615.9581	667.1083	683.9421	829.4963	848.2605	900.3921	941.5379	976.681	1017.3953	1028.6674	1073.1842	1083.9534	1160.689	1223.1253	1342.9142	1414.458	1431.1334	1441.4952	1480.0616	1487.6971	1583.07	1669.0338	1686.8787	1791.5949	3032.5767	3085.468	3087.5884	3126.1085	3133.3408	3165.4143
CC1=CC(=O)N=CN=C1	Cc1cc(=O)ncnc1	
InChI=1S/C6H6N2O/c1-5-2-6(9)8-4-7-3-5/h2-4H,1H3	InChI=1S/C6H6N2O/c1-5-2-6(9)8-4-7-3-5/h2-4H,1H3
