18
gdb 108387	2.40145	1.40747	1.13222	4.9585	76.83	-0.2546	0.029	0.2837	1154.8073	0.147036	-401.926671	-401.917971	-401.917027	-401.960367	31.988	
C	 0.2026569341	 1.5065758299	 0.0743339522	-0.379497
C	-0.1113431062	 0.013201732	-0.0915903175	-0.293906
C	 0.6267053882	-0.5921930476	-1.2439100078	 0.478469
O	 0.3356854603	-0.1122135339	-2.5534420719	-0.312022
C	 0.5089723422	-1.4517241422	-3.1008449084	-0.104412
C	 0.9166082872	-1.9876713976	-1.7353562192	-0.216121
C	 2.0543130874	-1.1235600091	-1.1842635292	-0.263619
C	 3.1093350076	-0.61919821	-2.0182432746	 0.31194
N	 3.9558554475	-0.2174014217	-2.6967569063	-0.347539
H	 1.2641619149	 1.6649680999	 0.2880590331	 0.127681
H	-0.041463196	 2.054386766	-0.8397577886	 0.145913
H	-0.378426024	 1.934202976	 0.8958540564	 0.117999
H	 0.1471627599	-0.5382250631	 0.819765271	 0.108148
H	-1.1859974764	-0.1278286731	-0.2574469402	 0.117101
H	-0.449708721	-1.8460972154	-3.4510379376	 0.12228
H	 1.2516317853	-1.478790278	-3.9039692999	 0.136598
H	 0.6948319716	-2.9618427872	-1.3211449328	 0.116072
H	 2.3699073773	-1.4194644849	-0.1881519587	 0.134917
74.6319	105.5772	140.5241	195.1923	205.8853	296.9788	355.8292	386.6878	422.1592	572.0454	582.7853	715.7113	766.3964	798.3729	809.777	874.2735	958.195	965.6772	975.1436	986.3281	1001.4516	1020.787	1088.3498	1094.4742	1121.8564	1161.5822	1190.3881	1237.5226	1285.7623	1320.747	1345.8425	1353.933	1410.9951	1457.9741	1474.0367	1498.2227	1507.9685	1513.9552	2351.814	3033.7542	3045.7022	3047.6941	3072.0742	3103.7516	3116.9131	3125.9286	3163.1626	3206.6267
CCC12OCC1C2C#N	CC[C@]12OC[C@H]1[C@H]2C#N	
InChI=1S/C7H9NO/c1-2-7-5(3-8)6(7)4-9-7/h5-6H,2,4H2,1H3	InChI=1S/C7H9NO/c1-2-7-5(3-8)6(7)4-9-7/h5-6H,2,4H2,1H3/t5-,6+,7-/m1/s1
