14
gdb 27719	2.98043	1.3088	0.91064	3.6075	78.08	-0.1785	0.0133	0.1918	1193.6865	0.101268	-432.880925	-432.872386	-432.871442	-432.913635	32.238	
N	 0.0133141286	 1.3165325755	 0.1403764072	-0.601434
C	-0.0169924609	-0.0617555723	 0.0178640091	 0.40874
N	-1.1202641794	-0.7885823174	-0.0565163385	-0.394342
C	-0.6906445695	-2.0834846826	-0.0667708693	 0.242176
O	-1.5588036135	-3.1060784269	-0.1395200244	-0.424024
C	 0.6845882756	-2.1796655783	-0.0142084192	 0.078019
N	 1.0959843476	-0.8265887158	 0.0351201967	-0.380036
C	 1.5749409734	-3.2570064117	-0.024000092	 0.252414
C	 2.3641204763	-4.1707740139	-0.0234932909	-0.453534
H	 0.7258865638	 1.7746488052	-0.4125372829	 0.254119
H	-0.8990326093	 1.7131384973	-0.0408760867	 0.266486
H	-2.4400222597	-2.7138078263	-0.1692068204	 0.301796
H	 2.040772547	-0.5204660828	 0.192776567	 0.267414
H	 3.04262754	-4.9866167102	-0.0334978055	 0.182205
129.7884	131.0701	236.7223	256.8177	309.0365	322.7904	372.1595	391.695	407.3751	430.9224	504.476	550.6864	604.845	657.4296	678.9511	689.8841	726.758	759.0328	833.2823	1059.056	1107.444	1157.4509	1217.0238	1263.6518	1363.3539	1450.5831	1520.1006	1601.0681	1655.9073	1669.8248	2214.9136	3503.8931	3548.0461	3647.9111	3673.4359	3804.018
NC1=NC(O)=C(N1)C#C	Nc1nc(O)c([nH]1)C#C	
InChI=1S/C5H5N3O/c1-2-3-4(9)8-5(6)7-3/h1,9H,(H3,6,7,8)	InChI=1S/C5H5N3O/c1-2-3-4(9)8-5(6)7-3/h1,9H,(H3,6,7,8)
