20
gdb 81787	2.11449	1.89272	1.22624	2.8044	79.15	-0.229	0.0737	0.3027	1083.6328	0.170686	-403.091928	-403.083348	-403.082404	-403.124626	33.896	
C	-0.0988075373	 1.5310650808	 0.073898096	-0.517216
C	 0.1301858632	 0.0543331882	 0.0021322118	 0.252204
N	-0.7530645957	-0.9214214343	 0.7094105175	-0.398093
C	 0.7098701509	-0.9024312413	 0.9889373185	-0.146599
C	 1.3185078995	-1.7655065213	-0.1311203861	 0.055362
O	 0.888799805	-3.0953999884	-0.2087586047	-0.438481
C	 0.7246930791	-0.7429240077	-1.1456343048	 0.335585
C	 0.1427849059	-1.0527923006	-2.4866804326	-0.320185
C	 1.4066856	-0.2265990712	-2.3749670274	-0.350356
H	 0.7885462581	 2.0796931275	-0.2581998409	 0.13137
H	-0.9388008019	 1.8364803663	-0.5612546733	 0.1295
H	-0.324648015	 1.8452265138	 1.0986991582	 0.118962
H	-1.2090268185	-0.4246733197	 1.4747619666	 0.225332
H	 1.0809325558	-0.7392580744	 1.9940027448	 0.09057
H	 2.4117608632	-1.7733532804	-0.1302753402	 0.086478
H	-0.0685738095	-3.0568156235	-0.0732791653	 0.290555
H	 0.231460409	-2.0785506764	-2.8299868446	 0.12283
H	-0.7730728231	-0.5533150588	-2.7857609552	 0.109896
H	 1.3393884795	 0.8343453613	-2.5969849434	 0.108103
H	 2.3498124718	-0.6803882096	-2.664294775	 0.114182
109.2882	183.116	202.786	215.2785	234.9619	245.8792	363.1957	448.985	489.7394	518.795	577.1241	630.6227	677.7875	742.1996	781.7172	835.0483	869.6498	922.0418	933.8557	958.8431	976.0356	983.0149	1009.1541	1045.8676	1062.4897	1074.1139	1096.7208	1104.1643	1136.8274	1186.1568	1203.3573	1221.2781	1275.9871	1291.8352	1329.0797	1384.0487	1409.7686	1439.8725	1456.4679	1462.8174	1483.6575	1498.4607	1506.1448	3024.9232	3080.9535	3086.0873	3100.1769	3117.5769	3126.5921	3182.2222	3196.0077	3214.6846	3467.6328	3747.2115
CC12NC1C(O)C21CC1	C[C@]12N[C@H]1[C@@H](O)C12CC1	
InChI=1S/C7H11NO/c1-6-4(8-6)5(9)7(6)2-3-7/h4-5,8-9H,2-3H2,1H3	InChI=1S/C7H11NO/c1-6-4(8-6)5(9)7(6)2-3-7/h4-5,8-9H,2-3H2,1H3/t4-,5+,6-/m0/s1
