17
gdb 6925	4.02076	1.22254	1.14783	3.0701	67.26	-0.2504	0.02	0.2704	1093.3425	0.139614	-400.975512	-400.966682	-400.965737	-401.009101	31.86	
C	 0.0229461457	 1.5085865857	 0.358467878	-0.453441
C	 0.0586691187	 0.012362492	 0.157829115	 0.35282
O	-1.1671417771	-0.5736946172	-0.1958066775	-0.460928
C	 1.3210312542	-0.653653664	-0.3633800522	-0.378343
C	 0.882339503	-0.8664696598	 1.0571832792	 0.076677
O	 1.699296585	-0.2943524844	 2.0481941632	-0.185554
C	 1.1281230445	-0.1426207757	 3.2652933316	 0.126931
N	 1.7893239961	 0.3753759035	 4.2060067281	-0.439612
H	 0.9740900828	 1.8792152594	 0.7470063192	 0.143987
H	-0.1802342552	 2.0202379776	-0.5897167122	 0.112375
H	-0.770013428	 1.7776880426	 1.0636663805	 0.126626
H	-1.3700410396	-0.3125912095	-1.1013775093	 0.284151
H	 1.2162339661	-1.4894404265	-1.045528596	 0.120667
H	 2.1946476909	-0.0291763804	-0.5143326695	 0.132624
H	 0.4585712053	-1.8327534198	 1.3191198206	 0.114624
H	 0.0945427858	-0.5104145187	 3.3100776284	 0.096094
H	 1.2219360119	 0.4078679851	 5.050522193	 0.230301
68.4027	100.8442	132.1043	212.1087	231.0542	290.7812	335.4671	369.8709	418.1027	433.6238	515.0629	625.597	725.517	824.7274	841.0249	897.4858	911.2976	977.5865	1026.0952	1049.7631	1064.5513	1069.654	1095.9802	1123.4035	1190.6079	1242.8534	1285.9676	1302.0682	1347.6044	1402.307	1416.7125	1421.2686	1476.0446	1487.8683	1509.8524	1747.2774	3031.1505	3034.7758	3093.3892	3130.7509	3138.7972	3142.1631	3234.6123	3517.9712	3789.1757
CC1(O)CC1OC=N	C[C@@]1(O)C[C@H]1O[CH][NH]	
InChI=1S/C5H9NO2/c1-5(7)2-4(5)8-3-6/h3-4,6-7H,2H2,1H3	InChI=1S/C5H9NO2/c1-5(7)2-4(5)8-3-6/h3-4,6-7H,2H2,1H3/t4-,5-/m1/s1
