19
gdb 70918	3.49953	1.56533	1.32552	1.6234	80.99	-0.2257	0.0008	0.2264	1017.2037	0.159488	-385.820172	-385.812785	-385.811841	-385.851385	30.637	
C	 0.0952919375	 1.4768550916	 0.1314738129	-0.510257
C	-0.0158333946	-0.0028907435	-0.0703778423	 0.381866
C	 0.6566475847	-0.9057952443	-1.1753409798	-0.346487
C	-0.0160482214	-1.8055379441	-0.1208914441	 0.419992
O	 0.5722431416	-0.8893746066	 0.9423323822	-0.383563
C	-0.4177996761	-3.1477130268	 0.3756552641	-0.235836
C	-1.5729053933	-2.9775046151	 1.0372684971	-0.042528
C	-2.0847017793	-1.5309493761	 1.0245337847	-0.324189
C	-1.2730506637	-0.9336774493	-0.1389391283	-0.052565
H	 1.1452253637	 1.7801580715	 0.1891070157	 0.131417
H	-0.3771445572	 2.0128158048	-0.6975869706	 0.123706
H	-0.4014538277	 1.7710564929	 1.0613802963	 0.130638
H	 0.2345747185	-0.905511818	-2.1844311869	 0.093783
H	 1.7469968727	-0.8834649762	-1.1655893802	 0.105352
H	 0.1562475689	-4.0622732128	 0.3073438284	 0.106852
H	-2.0830508905	-3.7593815941	 1.5914936724	 0.100902
H	-3.1674253635	-1.4676435256	 0.8803702065	 0.100989
H	-1.8486825914	-1.0586940463	 1.9842534728	 0.131178
H	-1.825596889	-0.9198772719	-1.0832855407	 0.068751
194.0379	198.567	223.344	283.6639	333.4724	449.2168	500.8428	518.6712	585.3053	637.0849	665.2474	726.161	749.3595	766.6613	812.6655	866.719	902.7882	909.244	949.1357	985.1887	999.0044	1023.3657	1068.5973	1099.1377	1121.2404	1133.5849	1139.4932	1150.7206	1188.5713	1195.5111	1233.585	1289.1512	1308.7493	1374.6627	1391.0944	1417.9239	1461.4048	1477.188	1487.8909	1497.9954	1622.9879	3037.3472	3049.0251	3053.1349	3064.7225	3090.6282	3111.0802	3113.1522	3143.8829	3181.1925	3223.7538
CC12CC3(O1)C=CCC23	C[C@@]12C[C@]3(O1)C=CC[C@@H]23	
InChI=1S/C8H10O/c1-7-5-8(9-7)4-2-3-6(7)8/h2,4,6H,3,5H2,1H3	InChI=1S/C8H10O/c1-7-5-8(9-7)4-2-3-6(7)8/h2,4,6H,3,5H2,1H3/t6-,7-,8+/m0/s1
