20
gdb 61222	3.33047	0.96792	0.84268	6.2832	79.77	-0.2473	0.0423	0.2896	1397.4425	0.171094	-399.314445	-399.304687	-399.303742	-399.349437	36.169	
C	 0.0211215782	 1.5183180053	-0.3694092997	-0.480243
C	 0.0075711242	 0.0330069997	-0.0586255145	 0.331967
C	 1.2300061723	-0.745597854	-0.3894969586	-0.290918
N	 0.879617731	-0.471863862	 1.0169409699	-0.350999
C	-1.3699659618	-0.6590017958	-0.0926145986	-0.040201
N	-1.350961274	-2.102076174	 0.099106626	-0.505936
C	-2.282663361	-0.0524148499	 1.0040605759	-0.340588
C	-3.6553961702	-0.5441388582	 0.9295384972	 0.279659
N	-4.7541809819	-0.895107683	 0.8634116009	-0.314745
H	 1.0471432711	 1.8915965117	-0.4432901766	 0.119225
H	-0.4765452782	 1.7256175409	-1.3234157724	 0.131629
H	-0.4873968059	 2.1054414921	 0.4026940393	 0.128584
H	 1.1657645831	-1.790363917	-0.6760638833	 0.107853
H	 2.0629341272	-0.2067085874	-0.8331476025	 0.115013
H	 1.4614641134	 0.2732411965	 1.3908883534	 0.232865
H	-1.8277587171	-0.4555351887	-1.0680562775	 0.097864
H	-1.0241851688	-2.5787832909	-0.7330576353	 0.234393
H	-0.7132147635	-2.3299141388	 0.858352091	 0.24526
H	-1.8615023749	-0.3040223797	 1.9841938451	 0.157243
H	-2.3122508834	 1.039333853	 0.9369858202	 0.142076
50.533	68.4551	139.0304	199.0781	240.8738	265.6335	330.3036	363.3764	366.5455	398.1841	400.0017	445.6409	532.7393	561.681	734.0022	830.426	856.6433	887.6019	903.0616	943.9869	951.9997	977.805	997.0815	1011.4062	1055.195	1119.8937	1135.7933	1150.0624	1167.2736	1259.9582	1264.9217	1305.2946	1320.5249	1358.8613	1366.4788	1415.3002	1418.3079	1464.6742	1490.5183	1501.42	1511.4166	1659.7337	2365.4289	3029.716	3041.2856	3052.8779	3091.3367	3097.9644	3103.4773	3114.6294	3198.8978	3490.2074	3504.5991	3589.5912
CC1(CN1)C(N)CC#N	C[C@]1(CN1)[C@@H](N)CC#N	
InChI=1S/C6H11N3/c1-6(4-9-6)5(8)2-3-7/h5,9H,2,4,8H2,1H3	InChI=1S/C6H11N3/c1-6(4-9-6)5(8)2-3-7/h5,9H,2,4,8H2,1H3/t5-,6-/m0/s1
