20
gdb 13406	5.59744	1.0092	0.92002	1.2906	71.25	-0.2516	0.0881	0.3397	1309.0472	0.177385	-386.146406	-386.137751	-386.136807	-386.18068	30.657	
C	-0.1329649446	 1.5440604435	 0.0919435207	-0.382688
C	-0.0070687444	 0.0204081749	 0.0197933905	-0.164371
C	 0.7324813049	-0.576527562	 1.221568133	-0.185131
C	 0.8392348685	-2.0967065946	 1.1717797336	 0.114566
C	 1.5643002439	-2.7286831432	 2.378007982	-0.13123
O	 0.8362004592	-3.9215326113	 2.6239470775	-0.233634
C	-0.4917941932	-3.5847548774	 2.3189193429	 0.026766
O	-0.4578881874	-2.7122848442	 1.2083245674	-0.270848
H	 0.8515516898	 2.0243733757	 0.1273983425	 0.111205
H	-0.6652118241	 1.9409995455	-0.7780157342	 0.11314
H	-0.6828764498	 1.8540621152	 0.9876111581	 0.114163
H	-1.0010536403	-0.4361155233	-0.0397084041	 0.117627
H	 0.5169122948	-0.2626709519	-0.9028356132	 0.093181
H	 1.7483433599	-0.1594944829	 1.2788065203	 0.092894
H	 0.2231562455	-0.2908303925	 2.1516873495	 0.095827
H	 1.3218741252	-2.4029707797	 0.2329325702	 0.079842
H	 2.6043381763	-2.9926854947	 2.1767480088	 0.11899
H	 1.5267112246	-2.0574464498	 3.2511948848	 0.092671
H	-1.0385730713	-4.4965079242	 2.0581818934	 0.116593
H	-0.9772208876	-3.086742113	 3.1790057364	 0.080438
43.1994	95.553	97.2332	154.4753	245.2572	262.7473	316.5882	373.0019	475.6333	673.653	740.3589	747.6755	835.2827	889.2235	907.1882	974.8841	976.6142	1032.2423	1037.0161	1059.4399	1105.3522	1116.5676	1138.831	1166.5035	1188.7631	1210.314	1258.8226	1272.9422	1287.1446	1329.8165	1341.6205	1369.5453	1383.8865	1409.3164	1415.9681	1436.2047	1471.5925	1493.3658	1500.0037	1509.763	1510.388	1547.5885	2926.1645	2975.6239	3001.4433	3005.9335	3021.4997	3028.4258	3046.7373	3071.3182	3074.746	3097.313	3102.3108	3110.0318
CCCC1COCO1	CCC[C@H]1COCO1	
InChI=1S/C6H12O2/c1-2-3-6-4-7-5-8-6/h6H,2-5H2,1H3	InChI=1S/C6H12O2/c1-2-3-6-4-7-5-8-6/h6H,2-5H2,1H3/t6-/m0/s1
