18
gdb 105599	2.11766	1.53751	1.22064	2.7947	73.71	-0.226	-0.0495	0.1764	1111.3091	0.145111	-439.08281	-439.073303	-439.072359	-439.11767	33.771	
C	-0.1377358619	 1.6144256193	 0.0023875078	-0.337235
N	 0.1878131642	 0.1863870412	 0.1522394809	-0.348535
C	 0.6189217485	-0.4751986899	-1.0564374652	 0.099787
C	 0.4664490915	-2.0465053724	-1.0981716316	-0.28304
C	-0.2297478777	-1.971475819	-2.4850720575	-0.336502
C	-0.3701792441	-0.4659224277	-2.2701861999	 0.37731
O	-1.0542721867	 0.3854759576	-2.7543164	-0.283978
C	 2.0390312868	-0.1216028072	-1.4979035431	 0.137097
O	 2.770872377	 0.5869267413	-0.8565336266	-0.257121
H	 0.6935039745	 2.2228350961	-0.3798807385	 0.118247
H	-0.9880455795	 1.7276958458	-0.6711331154	 0.151708
H	-0.4241459618	 2.0002450849	 0.9845465332	 0.117824
H	 0.9476885038	 0.1099543374	 0.8243713767	 0.226888
H	 1.3901308361	-2.6257764584	-1.0487072643	 0.116074
H	-0.2068290109	-2.3562800798	-0.2987134201	 0.13864
H	 0.4379355055	-2.1967196563	-3.3244643312	 0.139324
H	-1.1620217716	-2.5218025621	-2.6298007483	 0.142866
H	 2.3856045562	-0.6022373608	-2.4415887669	 0.080647
67.1076	74.3336	104.8153	169.495	192.3838	249.9994	264.4672	319.0255	361.4207	448.7268	501.3446	589.8536	694.9125	738.6897	773.4167	791.774	824.5328	895.0654	944.4872	1020.8495	1048.5078	1063.5946	1072.4392	1128.0179	1167.6415	1187.4397	1215.797	1224.3831	1245.2715	1299.6962	1423.0929	1437.8105	1459.2364	1482.9895	1488.854	1494.5033	1527.2752	1814.7429	1888.3122	2862.3407	3010.3651	3051.4648	3083.5557	3092.6786	3115.9594	3145.7506	3149.2088	3488.6291
CNC1(CCC1=O)C=O	CN[C@]1(CCC1=O)C=O	
InChI=1S/C6H9NO2/c1-7-6(4-8)3-2-5(6)9/h4,7H,2-3H2,1H3	InChI=1S/C6H9NO2/c1-7-6(4-8)3-2-5(6)9/h4,7H,2-3H2,1H3/t6-/m1/s1
