15
gdb 126458	4.76188	1.0616	0.87739	3.4762	71.09	-0.2653	-0.1055	0.1598	1269.4069	0.111688	-453.946216	-453.938173	-453.937228	-453.979411	29.108	
C	 0.1775511704	 1.5530579032	 0.1617170575	-0.381093
C	-0.0088160911	 0.0390422427	 0.0942188385	-0.254189
C	-1.4259556517	-0.4332997674	-0.0833118588	 0.391787
N	-2.3620058176	 0.4489635274	-0.1643985464	-0.108505
O	-3.6683375244	-0.0202138442	-0.3298115263	-0.249729
C	-3.961727759	-1.3577812914	-0.4048651118	 0.426729
O	-5.0970472192	-1.719566493	-0.5472040692	-0.318144
C	-2.7886591878	-2.2435265585	-0.2967318663	-0.094904
N	-1.5891870756	-1.820782928	-0.1451326912	-0.234395
H	 1.2364344562	 1.7921743846	 0.2909057297	 0.116728
H	-0.1775063469	 2.0370973872	-0.7514667782	 0.137044
H	-0.3789095554	 1.9839059494	 0.9977689494	 0.137046
H	 0.5758581851	-0.3936060511	-0.7280717774	 0.135738
H	 0.3767203968	-0.4461405817	 1.0003875937	 0.135718
H	-2.9868356598	-3.3126252393	-0.3526139631	 0.160169
64.5265	93.1026	187.741	223.0086	306.5475	337.5814	380.1326	477.8778	512.8762	550.6885	618.586	739.3941	756.7082	796.4373	811.6978	932.8923	974.9486	984.9717	1030.672	1100.3349	1109.9865	1220.3192	1242.3254	1279.5181	1359.1999	1390.8186	1419.6124	1460.1914	1493.8912	1501.4228	1591.2135	1680.8058	1843.8545	3029.0969	3053.5743	3054.9095	3125.9914	3129.8422	3157.8978
CCC1=NOC(=O)C=N1	CCc1noc(=O)cn1	
InChI=1S/C5H6N2O2/c1-2-4-6-3-5(8)9-7-4/h3H,2H2,1H3	InChI=1S/C5H6N2O2/c1-2-4-6-3-5(8)9-7-4/h3H,2H2,1H3
