19
gdb 59854	3.2353	0.95199	0.82899	1.1241	75.15	-0.2441	-0.0315	0.2126	1456.619	0.157308	-456.393496	-456.383245	-456.382301	-456.429347	36.896	
C	 0.0443292163	 1.4723949346	-0.0270172355	-0.397886
C	-0.0012491286	-0.0515841632	-0.0025521275	 0.142433
C	-1.408449293	-0.6205476999	-0.0947581165	-0.392556
O	 0.7141211227	-0.5746204689	-1.1586753587	-0.229671
C	 2.0310919128	-0.6821811118	-1.0584720614	 0.468768
O	 2.6901817469	-0.3883638054	-0.0834040007	-0.392903
C	 2.679412168	-1.2261094684	-2.3253104067	 0.220772
N	 4.0049796548	-1.4991558165	-2.1079435741	-0.532396
N	 1.9796021526	-1.3822031875	-3.3813649258	-0.494275
H	 1.0741783002	 1.8291160459	 0.043150146	 0.139107
H	-0.4038708651	 1.8545310359	-0.9493333245	 0.128616
H	-0.5159848762	 1.8749420611	 0.8225437619	 0.119977
H	 0.5100062475	-0.4207017267	 0.8910997467	 0.109951
H	-1.903043043	-0.2821044254	-1.0100227406	 0.132922
H	-1.3857276753	-1.7132905862	-0.1000896496	 0.12895
H	-2.0012301549	-0.2896207909	 0.763098386	 0.119169
H	 4.402240172	-1.1119243829	-1.2652640324	 0.271422
H	 4.6132160345	-1.6154779508	-2.9008345561	 0.252001
H	 2.5522692976	-1.7407492932	-4.1495721604	 0.205598
43.8066	76.6146	93.4724	145.1503	212.7204	251.0928	276.1952	337.56	358.4203	409.2358	414.0588	453.4555	510.2774	523.2375	549.5518	631.8877	821.874	835.8245	883.4526	889.9092	933.3967	945.9628	953.5557	1098.6993	1133.7309	1138.373	1162.4362	1204.446	1285.1222	1359.8454	1379.7009	1400.9718	1417.6877	1440.4606	1480.1402	1486.0347	1494.8237	1511.5717	1604.8848	1726.6022	1781.8443	3042.7911	3047.1443	3072.941	3113.7479	3123.1323	3125.9993	3134.041	3438.1422	3582.0851	3712.1796
CC(C)OC(=O)C(N)=N	CC(C)OC(=O)C(=N)N	
InChI=1S/C5H10N2O2/c1-3(2)9-5(8)4(6)7/h3H,1-2H3,(H3,6,7)	InChI=1S/C5H10N2O2/c1-3(2)9-5(8)4(6)7/h3H,1-2H3,(H3,6,7)
