19
gdb 19403	3.08832	2.10978	1.60673	1.5378	75.03	-0.2228	0.087	0.3099	882.7706	0.165794	-327.865775	-327.858304	-327.85736	-327.897036	29.583	
C	-0.2125539302	 1.5525607797	-0.0194814762	-0.406285
C	 0.0544686462	 0.058319436	 0.0116499862	-0.016403
N	 0.9997233915	-0.496853859	-1.0381582693	-0.143205
C	 2.3574548739	-0.0045262728	-0.7279952057	-0.24639
C	 1.8210121724	-1.1129047183	 0.0847674639	-0.113145
C	 0.8841736999	-0.5805442927	 1.1407773025	 0.37076
C	 1.2180346645	-0.0648973494	 2.5114744369	-0.32872
C	 0.3660067001	-1.3043567435	 2.3426605927	-0.341159
H	 0.6928988566	 2.1444769155	 0.1405349084	 0.117494
H	-0.643501762	 1.8386943754	-0.9845175688	 0.12789
H	-0.9292769145	 1.8269992079	 0.7624368603	 0.116674
H	-0.890482065	-0.4801113265	-0.1170683849	 0.086433
H	 3.068144088	-0.2454673389	-1.512953523	 0.118361
H	 2.4974574654	 0.9737932046	-0.2762279662	 0.111416
H	 2.192268062	-2.1316782569	 0.0237310068	 0.094008
H	 2.2345909695	-0.1842407264	 2.8727652613	 0.112976
H	 0.7302480362	 0.8452849533	 2.8459763195	 0.112704
H	-0.6944300336	-1.2333918661	 2.5657295877	 0.112502
H	 0.8076339593	-2.2644101219	 2.5914129278	 0.114089
141.8014	192.7557	196.7533	249.5217	296.5871	360.3851	487.0305	544.2023	564.2475	724.8277	754.7054	774.6327	784.5314	872.8142	900.201	918.6698	923.4334	986.9777	1020.0133	1048.4004	1052.5401	1076.5201	1094.0557	1103.2495	1107.6121	1115.9258	1160.7537	1187.5699	1217.7478	1257.786	1283.8616	1314.3848	1370.2435	1405.85	1418.4215	1464.3405	1485.4411	1492.6356	1503.0831	1508.8517	3034.8207	3044.8881	3099.1993	3110.5631	3117.0685	3119.0578	3124.6662	3152.6495	3196.9614	3199.3321	3212.704
CC1N2CC2C11CC1	C[C@H]1N2C[C@H]2C21CC2	
InChI=1S/C7H11N/c1-5-7(2-3-7)6-4-8(5)6/h5-6H,2-4H2,1H3	InChI=1S/C7H11N/c1-5-7(2-3-7)6-4-8(5)6/h5-6H,2-4H2,1H3/t5-,6+,8?/m1/s1
