21
gdb 39613	1.92866	1.92726	1.08434	0.0098	90.44	-0.2293	0.0123	0.2415	1162.682	0.184986	-349.953943	-349.945893	-349.944948	-349.986022	32.791	
C	-0.0259760974	 1.5101227159	-0.1812711306	-0.311734
C	 1.3774750625	 2.0594513357	-0.0165109669	-0.033078
C	 1.9235160434	 2.4941872804	 1.1207989563	-0.033292
C	 1.2513632903	 2.5272813436	 2.4793191981	-0.311851
C	 1.5201209547	 1.2528158658	 3.2550037047	-0.033282
C	 0.7583694278	 0.1572336782	 3.2559507257	-0.032907
C	-0.5302784979	-0.0356100597	 2.4813856362	-0.311676
C	-0.2647961624	-0.6575806067	 1.1245648786	-0.033025
C	-0.0485356664	 0.0035155289	-0.0141640825	-0.033217
H	-0.7033137792	 1.9806152874	 0.5364611589	 0.106598
H	-0.4015655913	 1.7693371606	-1.1776976931	 0.101771
H	 1.9982297679	 2.0402972772	-0.910304044	 0.084821
H	 2.9650002484	 2.8097087176	 1.1028123929	 0.084836
H	 1.6286283213	 3.3843117791	 3.0487689849	 0.101813
H	 0.1750781816	 2.6816643816	 2.3652234336	 0.106662
H	 2.4526390825	 1.2307751435	 3.8157733879	 0.084825
H	 1.1043739442	-0.7085426298	 3.8174372449	 0.084797
H	-1.2027062375	-0.6854580368	 3.0529214862	 0.101755
H	-1.0484122929	 0.9198127775	 2.3645386031	 0.106541
H	-0.1954703099	-1.7436364841	 1.1097827999	 0.084802
H	 0.1866412704	-0.573272196	-0.9066544648	 0.08484
162.1635	163.3195	219.4985	223.1315	296.7119	374.0008	413.508	509.3496	510.3844	578.6611	578.882	607.8852	740.5469	741.0384	744.6146	900.7047	911.8731	912.3903	948.3601	980.8525	981.1766	997.2371	1005.0506	1005.2002	1031.6084	1065.3323	1066.7473	1204.0183	1204.9002	1240.8458	1281.0406	1287.9162	1289.3373	1304.4179	1310.3472	1312.1075	1400.1385	1419.3839	1419.9826	1477.9867	1479.2368	1508.6256	1715.7097	1715.9436	1716.7371	3037.8251	3038.3558	3041.5496	3081.7714	3083.8041	3095.1593	3128.4255	3132.6243	3132.7259	3154.6641	3154.8334	3158.8405
C1C=CCC=CCC=C1	C1C=CCC=CCC=C1	
InChI=1S/C9H12/c1-2-4-6-8-9-7-5-3-1/h1-2,5-8H,3-4,9H2/b2-1-,7-5-,8-6-	InChI=1S/C9H12/c1-2-4-6-8-9-7-5-3-1/h1-2,5-8H,3-4,9H2/b2-1-,7-5-,8-6-
