19
gdb 104596	2.17136	1.47222	1.04644	2.2176	71.33	-0.2445	0.0223	0.2668	1180.9762	0.160052	-456.349601	-456.340284	-456.33934	-456.384334	34.634	
N	-0.6034794392	 0.7973058656	 0.9245998789	-0.508657
C	-1.3705412	 0.2166421261	-0.0444804953	 0.377569
O	-1.5509596529	 0.7115022647	-1.1440276058	-0.367328
C	-2.0100783037	-1.1233044388	 0.3310938998	-0.376329
C	-1.0927204215	-2.3045666485	-0.0021829157	 0.291191
C	-0.2084790502	-2.7990079615	 1.1243144642	-0.122598
O	 0.722114478	-1.8069842379	 1.5540682234	-0.418777
C	-1.4904019879	-3.2615597976	-1.0673031378	-0.280375
N	-0.4021685675	-2.299577514	-1.3101207195	-0.360719
H	-0.0546886215	 1.5914954301	 0.629216708	 0.253705
H	-0.1922775661	 0.1891132666	 1.6208830839	 0.267573
H	-2.2752053141	-1.1479953915	 1.3925024523	 0.1148
H	-2.9310706111	-1.1849476596	-0.2518495052	 0.128791
H	-0.809229495	-3.0499871074	 2.0049063032	 0.11284
H	 0.3193367675	-3.7052174468	 0.7996208951	 0.103158
H	 1.2718016379	-1.6101920607	 0.7852569228	 0.295478
H	-1.1808085163	-4.3023071549	-1.0127255463	 0.116328
H	-2.4464047314	-3.0997621041	-1.5578587085	 0.120804
H	-0.7456237848	-1.5165573199	-1.8648363474	 0.252544
46.1785	82.8669	111.1838	180.5893	227.1412	327.0101	344.1807	402.0607	422.0372	465.8731	512.9421	564.8555	592.2677	623.4014	706.7227	778.5637	864.726	893.7003	917.9299	929.9339	962.849	998.3343	1005.5732	1059.9872	1091.4788	1130.3731	1155.3857	1188.0783	1206.3749	1276.5795	1303.8333	1341.3224	1367.0571	1374.23	1410.6431	1433.8313	1473.3876	1494.258	1512.7638	1640.7293	1786.1221	3019.1679	3058.3028	3081.4718	3104.6019	3118.8554	3190.2108	3480.562	3538.6801	3670.3343	3785.3132
NC(=O)CC1(CO)CN1	NC(=O)C[C@@]1(CO)CN1	
InChI=1S/C5H10N2O2/c6-4(9)1-5(3-8)2-7-5/h7-8H,1-3H2,(H2,6,9)	InChI=1S/C5H10N2O2/c6-4(9)1-5(3-8)2-7-5/h7-8H,1-3H2,(H2,6,9)/t5-/m0/s1
