21
gdb 104696	2.51519	1.18315	0.96352	3.1066	79.1	-0.2404	-0.0192	0.2213	1311.5936	0.179182	-424.230568	-424.22063	-424.219685	-424.265501	36.791	
C	-0.122558298	 1.2215622423	-0.7218085413	-0.386129
C	-0.2079515963	-0.2109711033	-0.1891036986	-0.242725
C	-1.6043768007	-0.5982288566	 0.311389942	 0.418959
C	-2.6529303477	-0.8019260298	-0.8244641891	-0.400181
C	-2.5501425924	-2.3124184677	-0.5876100215	 0.412484
O	-2.9074543836	-3.2751454054	-1.2020798453	-0.292656
C	-1.7294021026	-2.1182683885	 0.6947737919	-0.413126
O	-2.1256041266	 0.3028956204	 1.2694382986	-0.289095
C	-1.4180690067	 0.3771372357	 2.4896210794	-0.255456
H	 0.8931803514	 1.4527192755	-1.0554607413	 0.114365
H	-0.794452167	 1.3733424564	-1.5730219501	 0.120613
H	-0.4036547102	 1.9448919787	 0.0481506305	 0.130266
H	 0.0810494657	-0.9227191698	-0.9724641036	 0.103912
H	 0.5187274948	-0.3533948138	 0.6205319412	 0.100579
H	-3.6309249137	-0.4072619579	-0.5323223466	 0.141944
H	-2.4066922975	-0.4462052204	-1.8275796136	 0.126589
H	-0.8174667102	-2.7142357148	 0.7847599115	 0.12322
H	-2.347769369	-2.267432863	 1.586110755	 0.134505
H	-2.0167405769	 0.9956302099	 3.1626146515	 0.131019
H	-1.2849305909	-0.6134700982	 2.9488068173	 0.108832
H	-0.4292293018	 0.8422673303	 2.3768969721	 0.112081
51.9836	121.9463	128.5564	190.3125	202.3504	209.158	271.0331	347.193	359.1712	384.089	425.9252	445.3162	556.3132	631.4565	679.0325	730.8721	787.4334	833.0175	913.5782	947.205	988.6946	1001.7548	1010.0658	1084.3771	1106.3003	1119.3954	1142.8639	1173.068	1181.631	1198.9004	1225.2255	1248.5171	1280.763	1324.379	1368.6014	1412.8143	1415.3962	1434.5675	1474.8411	1482.7263	1496.211	1498.8672	1502.4015	1513.4276	1894.166	2990.5425	3024.9016	3041.8821	3042.354	3053.944	3055.9587	3064.3788	3106.1833	3114.9576	3115.332	3121.5288	3123.8203
CCC1(CC(=O)C1)OC	CCC1(CC(=O)C1)OC	
InChI=1S/C7H12O2/c1-3-7(9-2)4-6(8)5-7/h3-5H2,1-2H3	InChI=1S/C7H12O2/c1-3-7(9-2)4-6(8)5-7/h3-5H2,1-2H3
