19
gdb 39159	3.01918	1.75981	1.29261	1.5169	82.4	-0.2046	0.0207	0.2253	1009.8087	0.161618	-385.887714	-385.880612	-385.879668	-385.919013	29.11	
C	-0.0113759681	 1.5167714595	-0.0257828731	-0.362057
C	 1.3131538684	 0.7662530205	-0.0060016322	-0.124215
C	 1.963878964	 0.5314430917	 1.3611068189	-0.212794
C	 0.8471988326	-0.0795471214	 2.2752414163	-0.353829
C	-0.0730718627	-0.7166406936	 1.2794507913	 0.313869
C	-0.7258757882	-1.8583447042	 1.0894362903	-0.298214
C	-1.1702814004	-1.9279253886	-0.3557536994	-0.128204
O	-0.6103747329	-0.7642354045	-0.9921686083	-0.317233
C	-0.0092632597	 0.0171454225	-0.0019165138	 0.409824
H	-0.3397053958	 2.0920726435	 0.8363552514	 0.104951
H	-0.2768062262	 1.9545952152	-0.9826345558	 0.121472
H	 1.9430269277	 0.8295745582	-0.8858063792	 0.09281
H	 2.780281923	-0.1908529888	 1.2508256203	 0.107641
H	 2.3915435647	 1.4421258708	 1.7942885743	 0.099214
H	 1.2441401355	-0.7788601111	 3.0143456975	 0.113403
H	 0.3328309383	 0.7148243019	 2.8295563922	 0.118114
H	-0.872902213	-2.6697147095	 1.7904862777	 0.100475
H	-0.792094886	-2.8305947829	-0.857718024	 0.108586
H	-2.2643329012	-1.9184003892	-0.4825078242	 0.106188
111.4166	211.1185	254.6168	313.7582	387.5577	423.9748	535.1122	589.3405	666.3895	685.1783	777.1614	801.2328	814.761	827.4708	878.0712	911.8789	922.6344	941.1458	955.0869	1014.4737	1034.234	1038.9637	1050.118	1075.3456	1090.2622	1122.857	1176.3159	1191.0662	1210.4278	1238.4079	1266.9874	1298.5884	1323.434	1363.0029	1379.972	1395.5401	1476.3405	1484.1022	1501.4547	1519.4936	1740.6238	2976.3059	3003.7538	3033.4162	3038.2574	3076.4615	3103.9654	3110.1578	3178.1941	3204.5596	3217.2034
C1C2CCC3=CCOC123	C1[C@H]2CCC3=CCO[C@]123	
InChI=1S/C8H10O/c1-2-7-5-8(7)6(1)3-4-9-8/h3,7H,1-2,4-5H2	InChI=1S/C8H10O/c1-2-7-5-8(7)6(1)3-4-9-8/h3,7H,1-2,4-5H2/t7-,8+/m1/s1
