15
gdb 74239	2.57819	1.39263	0.99852	3.8964	73.95	-0.234	-0.0313	0.2027	1157.4164	0.111545	-416.805974	-416.797484	-416.79654	-416.839576	31.729	
N	 0.019614012	 1.3238118668	 0.155474543	-0.558584
C	 0.0034552308	-0.0380256501	 0.028699505	 0.379148
N	-1.0832465713	-0.7207353521	 0.0454172026	-0.274242
C	-0.7663043655	-2.1490235563	-0.0236198	-0.263861
C	-1.3033600967	-2.7899736099	-1.2204156365	 0.359314
C	-1.7176975061	-3.3160820623	-2.2178455743	-0.467632
C	 0.7922288318	-2.249512561	 0.0127577172	 0.3956
O	 1.4456934993	-3.2476794309	 0.1065269908	-0.291028
C	 1.2997318703	-0.8067483032	-0.053405287	-0.441264
H	 0.8116677629	 1.8218205329	-0.2166634509	 0.257724
H	-0.8734762469	 1.7790757941	 0.0336580211	 0.263433
H	-1.1589058612	-2.6691712324	 0.8623084893	 0.132234
H	-2.0955120837	-3.7853194737	-3.0922808222	 0.200176
H	 1.8424924111	-0.6347062067	-0.9909384146	 0.153926
H	 1.9906806732	-0.5900105149	 0.7674418866	 0.155056
45.1947	115.7135	135.6508	282.1975	326.7489	379.9889	402.7441	451.3626	464.7895	532.9224	575.3495	588.051	619.0621	622.5004	652.1832	724.8858	783.6394	880.3861	958.0913	970.8244	1034.9718	1107.2898	1129.9886	1186.4664	1230.6825	1233.6439	1297.9255	1418.6782	1443.3146	1628.1751	1711.1062	1872.8867	2237.1722	3001.8706	3044.3524	3091.6827	3504.5975	3577.0114	3698.3286
NC1=NC(C#C)C(=O)C1	NC1=N[C@@H](C#C)C(=O)C1	
InChI=1S/C6H6N2O/c1-2-4-5(9)3-6(7)8-4/h1,4H,3H2,(H2,7,8)	InChI=1S/C6H6N2O/c1-2-4-5(9)3-6(7)8-4/h1,4H,3H2,(H2,7,8)/t4-/m0/s1
