20
gdb 16568	2.85942	2.47731	2.07552	1.2754	72.97	-0.2452	0.0783	0.3235	792.5343	0.181782	-349.027797	-349.021416	-349.020471	-349.057928	26.626	
C	-0.0344429315	 1.5586542836	-0.0297963547	-0.198646
C	 1.4587740502	 2.0113499509	-0.0409776815	-0.198645
C	 2.2713931877	 0.6940692969	 0.0156700892	-0.011015
C	 1.3394950967	-0.3006644467	-0.7017844735	-0.223247
C	 0.0220455711	 0.0121331447	 0.0324857775	-0.011015
C	 0.1657603612	-0.4648306281	 1.486445075	-0.075708
O	 1.2002849062	 0.2293156175	 2.1695884491	-0.249441
C	 2.4366366472	 0.2236329993	 1.4694679808	-0.075707
H	-0.583785305	 1.9781916654	 0.8172634159	 0.10074
H	-0.5460290275	 1.881167408	-0.9416657518	 0.09109
H	 1.6926029518	 2.5598171934	-0.9584471833	 0.091091
H	 1.6942400793	 2.6688485331	 0.8001825776	 0.100739
H	 3.2590098079	 0.7816260023	-0.4477965948	 0.059272
H	 1.2635548506	-0.0765591947	-1.7717741179	 0.088836
H	 1.656553936	-1.343875095	-0.5963213723	 0.087402
H	-0.8541754661	-0.4653680186	-0.4170506541	 0.059272
H	-0.7468864352	-0.2705472414	 2.059395489	 0.102341
H	 0.3534855512	-1.552532462	 1.5055273629	 0.08015
H	 2.8847655744	-0.7851222427	 1.486600039	 0.08015
H	 3.0955171038	 0.8943543543	 2.0306733479	 0.102341
159.8615	252.1734	341.6966	362.1048	441.7606	465.6424	546.9124	747.1517	775.5128	808.2435	816.3617	837.7038	887.3791	915.0466	948.0011	949.1633	967.3615	985.254	1014.9853	1051.923	1069.7276	1111.5885	1130.4723	1171.4962	1178.1115	1213.9246	1234.6279	1241.5603	1290.924	1307.1392	1308.4066	1332.0856	1352.9644	1354.4984	1357.256	1389.6851	1418.0164	1479.806	1487.9232	1497.1061	1502.2914	1513.0171	2952.056	2958.8459	3031.2407	3044.2158	3052.4754	3059.8248	3065.3362	3070.4776	3074.295	3077.0553	3084.8786	3105.5718
C1CC2CC1COC2	C1C[C@@H]2C[C@H]1COC2	
InChI=1S/C7H12O/c1-2-7-3-6(1)4-8-5-7/h6-7H,1-5H2	InChI=1S/C7H12O/c1-2-7-3-6(1)4-8-5-7/h6-7H,1-5H2/t6-,7+
