16
gdb 45536	4.07348	1.36002	1.11842	3.69	74.33	-0.2569	-0.0423	0.2146	1062.8001	0.126962	-437.905286	-437.898342	-437.897398	-437.936908	26.816	
N	-0.041234855	 1.1803687627	 0.3444372031	-0.538907
C	-0.0256544954	-0.0527179847	 0.0697771316	 0.410869
O	 1.1130075938	-0.7902016264	-0.2052323564	-0.261341
C	 0.7241288357	-2.1092265726	-0.5791526065	 0.173318
O	 1.282234259	-3.1499011266	 0.1836390401	-0.266571
C	 0.2280686683	-3.9683262286	 0.7345181176	-0.06551
C	-1.078818484	-3.6019138223	-0.0291436093	-0.342196
C	-0.7527249294	-2.1759694654	-0.3001980426	 0.235048
C	-1.1847445268	-0.9673834726	 0.0523243281	-0.299417
H	 0.9072342127	 1.5587485938	 0.3537457891	 0.228973
H	 1.0292045323	-2.2374731433	-1.627002936	 0.094855
H	 0.5185163473	-5.0149987709	 0.6134782285	 0.120257
H	 0.1152938254	-3.7534312115	 1.8041407536	 0.118963
H	-1.1644660306	-4.1929221649	-0.9480018956	 0.12906
H	-1.9758487714	-3.7532027124	 0.572835818	 0.12943
H	-2.1594175817	-0.6611742443	 0.4028701368	 0.133168
109.9913	135.7314	212.1679	319.8705	389.8645	496.4265	575.7256	661.1488	674.2823	704.2397	776.102	851.4337	867.272	884.5671	900.334	923.8469	928.5721	965.0531	1031.3344	1048.0432	1072.7446	1086.9195	1159.4228	1180.673	1219.794	1251.0415	1289.7676	1329.8095	1349.0342	1390.317	1402.7486	1480.5507	1523.3768	1728.6186	1763.3808	3008.5448	3030.781	3046.8112	3098.3155	3128.8979	3250.6599	3481.6531
N=C1OC2OCCC2=C1	[NH]C1=C[C]2[C@@H](O1)OCC2	
InChI=1S/C6H7NO2/c7-5-3-4-1-2-8-6(4)9-5/h3,6-7H,1-2H2	InChI=1S/C6H7NO2/c7-5-3-4-1-2-8-6(4)9-5/h3,6-7H,1-2H2/t6-/m1/s1
