20
gdb 56263	5.56381	0.61434	0.57884	2.647	77.53	-0.2406	0.0181	0.2587	1928.9255	0.1688	-440.288443	-440.27828	-440.277335	-440.325872	34.776	
C	-1.0943376774	 1.0438616817	 0.4582911482	-0.478131
C	-0.032487658	 0.0094826784	 0.1701562447	 0.427908
O	 0.7623325277	-0.423387808	 0.9648322126	-0.346726
O	-0.085007546	-0.3792287901	-1.1222632162	-0.241746
C	 0.8877843682	-1.3593218272	-1.5216236643	-0.05764
C	 0.5949130832	-1.709268194	-2.9735674194	-0.163902
N	 1.5761250791	-2.6752316972	-3.446180558	-0.066023
C	 1.2299973394	-4.0852599011	-3.2811820928	-0.220344
C	 1.2049293367	-3.4470072551	-4.6256207542	-0.218797
H	-1.0495538234	 1.3261335891	 1.5093367735	 0.148131
H	-0.9383960498	 1.9250261429	-0.1707143328	 0.149603
H	-2.0840725957	 0.6451240589	 0.218925798	 0.147936
H	 1.8961303105	-0.9503390612	-1.4120870218	 0.131107
H	 0.8125145054	-2.2366448862	-0.8717727378	 0.123049
H	-0.4436022998	-2.0763176326	-3.0599795041	 0.08782
H	 0.6729480075	-0.805205871	-3.587846333	 0.114014
H	 2.0453050602	-4.7429138942	-2.9949489061	 0.12144
H	 0.2687510543	-4.3250431317	-2.828352576	 0.111223
H	 0.2273983306	-3.2628367432	-5.0688606658	 0.11099
H	 2.0021053276	-3.6295130881	-5.3403722048	 0.120087
33.8702	49.2237	63.5618	96.1757	120.032	190.1652	240.8498	283.3063	392.4725	415.9781	485.3508	606.6539	648.8472	771.1845	806.9051	843.938	895.246	925.2912	984.1116	1024.9113	1040.4016	1064.4561	1074.6491	1098.0042	1116.2022	1119.9172	1140.5347	1177.7243	1197.6828	1249.1782	1268.7465	1300.1084	1326.8955	1343.8866	1393.0208	1427.2902	1469.7063	1476.3691	1488.9031	1498.7609	1516.5585	1523.8331	1826.7338	2943.7413	3055.3604	3056.7534	3062.4283	3092.6675	3097.6139	3107.8222	3121.3452	3168.8009	3178.1828	3192.3215
CC(=O)OCCN1CC1	CC(=O)OCCN1CC1	
InChI=1S/C6H11NO2/c1-6(8)9-5-4-7-2-3-7/h2-5H2,1H3	InChI=1S/C6H11NO2/c1-6(8)9-5-4-7-2-3-7/h2-5H2,1H3
