17
gdb 123812	5.38688	0.97957	0.87837	1.8586	74.96	-0.2145	0.0297	0.2442	1312.7521	0.137422	-418.002198	-417.994346	-417.993402	-418.035422	29.592	
C	-0.3664932017	 1.094135293	-0.1714823348	-0.276906
C	 1.0996990579	 1.0518167429	 0.2201502989	-0.302573
C	 0.3419451994	-0.2156108216	 0.0046167982	 0.164817
O	 0.0892630917	-0.9670329225	 1.1680998111	-0.279106
C	-0.9090668914	-1.870439691	 1.0874508113	 0.452528
N	-1.6099854056	-2.0871140474	-0.0178008526	-0.31687
N	-2.4749289783	-3.0688695629	 0.342998863	-0.210377
C	-2.3293926065	-3.4575420232	 1.6299839561	 0.000222
C	-1.3103991522	-2.6989289691	 2.1619441677	-0.334955
H	-1.0749079049	 1.3741232921	 0.5994419355	 0.122534
H	-0.6379968873	 1.4006492413	-1.1753061936	 0.116034
H	 1.8505224499	 1.3330470412	-0.5094744536	 0.114875
H	 1.3445499188	 1.3024004286	 1.2460272983	 0.124791
H	 0.5405066874	-0.8260570353	-0.8706344259	 0.108554
H	-3.1308499061	-3.4074787834	-0.3379611647	 0.273275
H	-2.9477303881	-4.2278180706	 2.0636370013	 0.134556
H	-0.908262973	-2.7277578021	 3.1600581538	 0.108601
61.09	67.4978	153.2669	300.4548	359.313	386.7542	408.7912	481.7888	649.8073	718.4779	726.2814	760.756	763.1407	826.4814	829.0637	844.2676	936.6168	969.8595	986.0051	1024.5853	1054.4518	1068.0187	1071.5561	1108.9711	1120.4296	1183.6693	1190.3612	1224.4985	1238.4409	1313.6114	1388.703	1411.278	1454.1038	1491.5011	1494.021	1525.4055	1589.6794	3139.2451	3142.3019	3159.4234	3222.6684	3236.9089	3258.0808	3286.3727	3693.3362
C1CC1OC1=NNC=C1	C1CC1Oc1n[nH]cc1	
InChI=1S/C6H8N2O/c1-2-5(1)9-6-3-4-7-8-6/h3-5H,1-2H2,(H,7,8)	InChI=1S/C6H8N2O/c1-2-5(1)9-6-3-4-7-8-6/h3-5H,1-2H2,(H,7,8)
