18
gdb 13701	5.07141	0.89124	0.81085	1.7128	78.98	-0.2374	0.0413	0.2787	1449.479	0.152014	-347.764908	-347.755656	-347.754712	-347.799734	32.728	
C	-0.1628329843	 1.4511163081	 0.0657506563	-0.363151
C	 0.1636769494	-0.0507831241	-0.0304741496	-0.317437
C	 0.8420970095	-0.5641620852	 1.156397368	 0.098162
C	 1.4008870993	-0.9253027953	 2.1646546158	 0.023467
C	 2.0645134974	-1.4496224289	 3.3210514172	-0.227693
C	 1.2451478296	-2.020393784	 4.4818976473	-0.311704
C	 1.9658761254	-2.9531282977	 3.5556310911	 0.146069
O	 1.2525930245	-3.740213912	 2.6602314308	-0.428021
H	 0.7499683087	 2.0392696445	 0.1927916615	 0.129445
H	-0.6677902952	 1.7895364899	-0.8438496129	 0.11577
H	-0.8153341177	 1.6524831369	 0.9194515005	 0.129827
H	-0.7631768611	-0.6165596872	-0.1902563109	 0.130754
H	 0.7841486962	-0.2347944505	-0.9170994172	 0.129832
H	 3.0079698269	-0.9777658404	 3.5782541007	 0.111848
H	 1.6294525457	-1.8676389386	 5.4845002852	 0.116056
H	 0.1670688851	-1.9744455254	 4.3830143611	 0.128357
H	 2.8609843745	-3.4479535392	 3.92398279	 0.101621
H	 1.050462586	-3.1946159109	 1.8875989553	 0.286799
39.8504	82.1974	111.6647	158.2835	197.9279	237.2307	324.2625	353.5	408.6309	491.9844	530.243	597.3166	708.6623	780.6743	788.2402	823.2572	901.3163	964.251	1002.9799	1045.9105	1055.5973	1083.9299	1105.7676	1114.3607	1149.5832	1187.9435	1231.4543	1288.5059	1349.1267	1364.5992	1374.0062	1410.6414	1414.9001	1472.945	1476.5867	1494.753	1505.7189	2347.4153	3019.6407	3045.3158	3046.6583	3118.8738	3125.4814	3136.0347	3139.3362	3151.8815	3236.0019	3730.961
CCC#CC1CC1O	CCC#C[C@H]1C[C@H]1O	
InChI=1S/C7H10O/c1-2-3-4-6-5-7(6)8/h6-8H,2,5H2,1H3	InChI=1S/C7H10O/c1-2-3-4-6-5-7(6)8/h6-8H,2,5H2,1H3/t6-,7+/m0/s1
