21
gdb 87363	2.06298	1.58455	1.07412	3.0173	84.49	-0.2324	-0.0145	0.2178	1213.3192	0.180948	-387.098141	-387.088742	-387.087798	-387.132399	35.508	
C	 0.0710841237	 1.4667847252	-0.3955177088	-0.409121
C	 0.0848561046	-0.0162387417	-0.0993827802	-0.051058
C	 1.3557013416	-0.7989336696	-0.1709101731	-0.336762
C	 0.6828887759	-0.5860585556	 1.1757682279	 0.226197
C	 1.2493580095	 0.036749151	 2.4778059552	-0.09978
C	 0.6880442327	 1.3817981652	 2.9299024412	-0.396999
C	 0.6909751282	-1.1988990938	 3.268464728	-0.366321
C	 0.0998794871	-1.7282557643	 1.9495823042	 0.355714
O	-0.563985251	-2.6819897045	 1.6457971588	-0.323589
H	 1.004658731	 1.9475735424	-0.0883184932	 0.118476
H	-0.0474392235	 1.6347870497	-1.4715846634	 0.123222
H	-0.7533785677	 1.9752073382	 0.1141633037	 0.123876
H	-0.8085613467	-0.5512769872	-0.4145777602	 0.107098
H	 1.3389380184	-1.807590171	-0.5708831917	 0.130794
H	 2.2768548323	-0.2490673798	-0.3421433962	 0.115819
H	 2.3429117624	 0.0692806803	 2.4813102047	 0.077123
H	-0.4073261212	 1.3805327028	 2.9063488776	 0.117111
H	 0.9997920925	 1.5984929644	 3.9573771987	 0.116654
H	 1.0348326369	 2.2042520343	 2.2979254678	 0.117458
H	 1.4424066005	-1.8609617494	 3.7079021352	 0.128647
H	-0.0558307071	-0.9652064065	 4.0337484038	 0.125442
49.5414	116.5403	161.9003	205.8512	240.3167	279.158	280.2817	308.4945	373.2675	449.1942	515.9911	555.0185	596.8771	690.076	752.9532	814.3996	860.4945	883.796	908.9116	923.2753	984.6483	1027.1773	1048.0968	1063.9078	1074.3544	1103.5445	1111.6116	1132.0393	1173.8638	1190.4718	1193.9772	1233.8467	1261.8858	1316.838	1361.5291	1403.8632	1412.6564	1423.9042	1439.3053	1477.3538	1487.7142	1494.7199	1504.479	1507.3622	1871.4441	3030.9364	3034.4407	3053.9412	3057.762	3094.9748	3097.4543	3104.9958	3108.5522	3112.2626	3119.0036	3135.1489	3210.3794
CC1CC11C(C)CC1=O	C[C@H]1C[C@]21[C@@H](C)CC2=O	
InChI=1S/C8H12O/c1-5-3-7(9)8(5)4-6(8)2/h5-6H,3-4H2,1-2H3	InChI=1S/C8H12O/c1-5-3-7(9)8(5)4-6(8)2/h5-6H,3-4H2,1-2H3/t5-,6-,8+/m0/s1
