15
gdb 52645	2.00754	1.15291	0.81111	3.5761	77.63	-0.2543	-0.0745	0.1798	1412.3647	0.107918	-420.571011	-420.560739	-420.559795	-420.608721	34.678	
C	 0.1570842867	 1.4442911034	-0.0046116563	-0.497907
C	 0.0651585387	-0.0075293331	 0.0004199977	 0.018267
C	-0.0150716725	-1.2087984297	 0.0136432967	 0.108633
C	-0.1275061101	-2.6719000209	 0.0068977746	-0.125385
O	-1.4514883807	-3.131069637	-0.0099112691	-0.410448
C	 0.6172560468	-3.2109050212	-1.2365176902	 0.211661
O	-0.0056957209	-3.784791557	-2.1040559342	-0.307617
C	 2.041366779	-2.9995948254	-1.2935383924	 0.293584
C	 3.2353994702	-2.8511942577	-1.3064768069	-0.397642
H	 1.201039639	 1.7721290402	 0.0468791238	 0.152537
H	-0.280820637	 1.8669581221	-0.9151583256	 0.154645
H	-0.3702675295	 1.8766404611	 0.8525547586	 0.155691
H	 0.3834993576	-3.0767939579	 0.8942794884	 0.124854
H	-1.5928151268	-3.4742847723	-0.9076299984	 0.296655
H	 4.2901819094	-2.7187937948	-1.3296764866	 0.222471
14.6476	44.3556	72.7663	140.4307	151.0363	223.9878	280.6128	327.4995	333.2279	401.2382	432.6275	461.3046	559.8543	598.8975	652.6794	676.2088	714.3604	841.11	866.1701	1051.6497	1052.5128	1073.1737	1136.3961	1169.0225	1242.8014	1329.7284	1413.0137	1429.768	1474.8906	1477.3207	1764.2137	2217.9955	2365.8989	2988.0384	3030.6071	3093.1854	3094.2193	3493.6592	3679.4777
CC#CC(O)C(=O)C#C	CC#C[C@@H](O)C(=O)C#C	
InChI=1S/C7H6O2/c1-3-5-7(9)6(8)4-2/h2,7,9H,1H3	InChI=1S/C7H6O2/c1-3-5-7(9)6(8)4-2/h2,7,9H,1H3/t7-/m1/s1
