14
gdb 20749	5.51685	1.60252	1.25146	3.665	69.87	-0.237	-0.0712	0.1658	926.9314	0.107328	-378.713105	-378.706108	-378.705164	-378.744331	26.116	
C	-0.2786012704	 1.4873019999	-0.006503855	-0.473254
C	 0.0279014042	 0.0163950121	-0.0060252825	 0.348096
N	 0.1167355533	-0.546977387	-1.162341398	-0.126832
O	 0.4010681639	-1.9156157636	-1.1960943551	-0.290976
C	 0.5907905685	-2.6919664734	-0.0633892232	 0.401883
N	 0.8468479934	-3.9324287157	-0.1615265349	-0.527011
C	 0.4800978443	-2.0094976975	 1.212208093	-0.113747
C	 0.2075749341	-0.6976916104	 1.2448613655	-0.14571
H	 0.5189268609	 2.0469991764	 0.4949189269	 0.140552
H	-0.3795610084	 1.8507024023	-1.0296566645	 0.155465
H	-1.2085843173	 1.6870420658	 0.5375303982	 0.140553
H	 0.8819110227	-4.2168738182	-1.1418851642	 0.228558
H	 0.6282709794	-2.6157561089	 2.0971128858	 0.141046
H	 0.1169590944	-0.1522402133	 2.1777905383	 0.121378
86.0453	175.1462	274.7148	305.542	335.4798	437.0357	474.2349	524.3744	625.09	722.7559	750.454	796.4442	841.8574	877.6885	929.4399	962.8356	1019.2202	1060.8254	1061.9196	1085.121	1172.4098	1253.7246	1328.4365	1411.28	1436.5896	1474.8499	1480.358	1617.7644	1681.6289	1735.2745	3036.1306	3091.1854	3151.5491	3191.1324	3223.8345	3479.0498
CC1=NOC(=N)C=C1	CC1=NOC(=C[CH]1)[NH]	
InChI=1S/C5H6N2O/c1-4-2-3-5(6)8-7-4/h2-3,6H,1H3	InChI=1S/C5H6N2O/c1-4-2-3-5(6)8-7-4/h2-3,6H,1H3
