21
gdb 122403	6.14129	0.57754	0.54909	2.9031	80.98	-0.2414	-0.0183	0.2231	1998.2148	0.180035	-424.224964	-424.214948	-424.214003	-424.261328	35.431	
C	 0.0652518704	 1.32608904	-0.1505548489	-0.228967
O	 0.0265047204	-0.0747994382	-0.0275750597	-0.228881
C	-1.2860561868	-0.5884979186	 0.0033104611	-0.049023
C	-1.2099896932	-2.1044088242	 0.1372341502	-0.224433
C	-2.5799437723	-2.7694068287	 0.1738429075	 0.022553
C	-3.4200013126	-2.7888542754	-1.1468689954	-0.356191
C	-3.6376127732	-4.2943733334	-0.9247523441	 0.40397
O	-4.3761284761	-5.1048969803	-1.4024469902	-0.288306
C	-2.6082389622	-4.3310470667	 0.2159051912	-0.368971
H	 1.1160913038	 1.6253279973	-0.1653025254	 0.127836
H	-0.4148598966	 1.6694105511	-1.0810499791	 0.103166
H	-0.4344709191	 1.8256434881	 0.6949509965	 0.103093
H	-1.8489625959	-0.1571873013	 0.8504800343	 0.083278
H	-1.8304953719	-0.3080762096	-0.9158652349	 0.086623
H	-0.6242600656	-2.5019811786	-0.7016272373	 0.104107
H	-0.6526448383	-2.3455756798	 1.0503290705	 0.110979
H	-3.1755621071	-2.3574061371	 0.9950819705	 0.081827
H	-4.3227957719	-2.1754664964	-1.2026170396	 0.12815
H	-2.8173777369	-2.6003933989	-2.0436190643	 0.129837
H	-1.6646721844	-4.7852285727	-0.1089394692	 0.130599
H	-2.9275383203	-4.8206055966	 1.1394143861	 0.128756
43.5523	63.2342	89.0351	114.9189	145.4773	231.8602	273.2862	291.7766	400.6008	415.3918	467.3897	499.6765	658.1342	671.6073	767.5197	801.9037	911.1725	928.084	963.3788	981.2346	1011.6998	1071.3996	1079.9072	1120.3004	1132.828	1165.2363	1178.4394	1193.6332	1207.9643	1226.9129	1240.0061	1251.4941	1269.2685	1309.2515	1320.5924	1381.6544	1426.4823	1429.6254	1447.4536	1481.8906	1485.3303	1491.6869	1505.2134	1531.5949	1894.7465	2938.9404	2963.8036	2968.5915	3010.0498	3025.1594	3042.5258	3046.0997	3050.7541	3071.9244	3109.9116	3110.8229	3113.9192
COCCC1CC(=O)C1	COCCC1CC(=O)C1	
InChI=1S/C7H12O2/c1-9-3-2-6-4-7(8)5-6/h6H,2-5H2,1H3	InChI=1S/C7H12O2/c1-9-3-2-6-4-7(8)5-6/h6H,2-5H2,1H3
