20
gdb 11908	4.52612	1.44587	1.26286	1.4329	75.3	-0.2396	0.0933	0.3328	1038.8941	0.17757	-349.003232	-348.995224	-348.99428	-349.036071	30.457	
C	 0.0243909725	 1.558523533	-0.0451621083	-0.401047
C	 0.141470589	 0.0448034359	-0.0756654952	 0.16159
C	 0.8767049941	-0.5521793594	-1.2824114152	-0.309085
C	 1.3312464102	-1.8887263945	-0.7202303263	 0.34455
C	 0.7036846751	-3.1834223906	-1.1734441335	-0.307875
C	 2.1520623848	-2.8829925225	-1.4867719188	-0.333858
C	 1.5667986162	-1.6090676567	 0.7649963087	-0.128425
O	 0.9124811236	-0.3761259382	 1.0546448626	-0.276635
H	 1.0137918282	 2.0207803925	-0.1183113836	 0.118454
H	-0.5918290669	 1.9134645666	-0.8775109102	 0.111256
H	-0.4389492849	 1.8876238985	 0.8892182754	 0.124873
H	-0.8664867569	-0.401298449	-0.0150256801	 0.063284
H	 0.2420633867	-0.6480513851	-2.1674548828	 0.098089
H	 1.735762604	 0.0801900604	-1.5413451346	 0.098423
H	 0.4924385327	-3.9386945257	-0.4227834691	 0.111388
H	-0.0132354806	-3.1521084388	-1.9879194161	 0.110244
H	 2.4172591434	-2.6475302682	-2.5125140316	 0.112438
H	 2.9149067894	-3.4389645084	-0.9501716761	 0.112071
H	 1.1687244541	-2.4133436635	 1.4002956234	 0.092754
H	 2.6337205752	-1.4920355863	 0.9995250614	 0.097511
40.2372	110.1091	221.6662	242.0533	293.6713	373.0903	375.4922	459.5359	501.036	618.5055	780.6069	790.4686	837.5308	883.097	884.2318	917.5435	949.2873	957.8722	985.51	1034.7491	1058.2231	1068.5075	1082.441	1103.5801	1147.1238	1156.2676	1189.269	1197.6759	1222.4723	1281.1458	1292.0727	1342.6569	1360.8475	1393.0914	1409.3596	1414.0823	1467.452	1483.5489	1486.4743	1498.1712	1505.5028	1528.3174	2946.0509	2991.9948	3021.731	3025.4098	3038.2775	3094.3671	3111.385	3116.5429	3119.8031	3123.942	3197.5442	3212.7126
CC1CC2(CC2)CO1	C[C@H]1CC2(CC2)CO1	
InChI=1S/C7H12O/c1-6-4-7(2-3-7)5-8-6/h6H,2-5H2,1H3	InChI=1S/C7H12O/c1-6-4-7(2-3-7)5-8-6/h6H,2-5H2,1H3/t6-/m0/s1
