23
gdb 110901	2.76197	1.36354	1.13867	1.5601	84.6	-0.2515	0.0668	0.3183	1198.8198	0.207648	-388.283412	-388.274792	-388.273848	-388.316229	34.661	
C	-0.2020334085	 1.5925849782	 0.111439029	-0.387039
C	-0.0017460953	 0.0788150281	-0.0221624593	-0.189834
C	 0.7997932998	-0.532460656	 1.1302919363	-0.000713
C	 0.9092709816	-2.0750358403	 1.1298290405	-0.02566
C	 1.9690389525	-2.3088418122	 2.2451539724	-0.238572
C	 2.9130606529	-1.6269911604	 1.2147077799	-0.044529
C	 2.0657492467	-2.3529999042	 0.1265028008	-0.244073
C	 2.3476593421	-0.1948901581	 1.1657826614	 0.139274
O	 2.8444626838	 0.5876169681	 0.0930660731	-0.435564
H	 0.7604018944	 2.10976024	 0.1010300957	 0.138891
H	-0.8108535245	 1.9843615429	-0.7097609947	 0.104556
H	-0.7129740483	 1.8393953665	 1.0492771532	 0.106972
H	-0.9799479578	-0.4185582544	-0.0588734445	 0.09004
H	 0.4778337463	-0.138159764	-0.9844008609	 0.078355
H	 0.3358810329	-0.204900064	 2.0692422977	 0.064111
H	-0.0256321975	-2.6366671799	 1.095320659	 0.056923
H	 1.815959725	-1.8147078828	 3.2100396253	 0.089186
H	 2.2073145022	-3.3642957371	 2.3964291529	 0.096487
H	 3.9986717505	-1.7168540418	 1.2642844567	 0.062998
H	 2.3120030611	-3.4145231317	 0.0526785043	 0.10061
H	 2.003817218	-1.9299745555	-0.8822361055	 0.076411
H	 2.6118034642	 0.3721658816	 2.0624431648	 0.082601
H	 2.7940451279	 0.0643806373	-0.713278168	 0.278567
114.3472	132.0292	198.1801	237.619	267.32	300.5832	340.0609	391.1801	476.6393	520.9189	551.5623	679.4196	754.3577	812.4548	820.4869	840.0499	855.8819	887.9484	914.8818	963.1114	979.4707	999.0984	1030.6242	1036.1746	1057.1746	1078.0208	1081.4087	1107.9794	1112.0288	1139.9077	1161.3722	1220.0311	1222.654	1240.4239	1253.2542	1277.2178	1289.2664	1295.8506	1318.7228	1324.7505	1354.8277	1394.5946	1406.5612	1439.1864	1487.623	1494.1697	1497.8816	1516.4548	1525.4394	3016.5423	3018.6855	3032.242	3038.1136	3047.6934	3052.2146	3072.8461	3094.625	3098.9231	3106.137	3109.5178	3115.6628	3126.1923	3816.4466
CCC1C2CC(C2)C1O	CC[C@H]1[C@@H]2C[C@@H](C2)[C@H]1O	
InChI=1S/C8H14O/c1-2-7-5-3-6(4-5)8(7)9/h5-9H,2-4H2,1H3	InChI=1S/C8H14O/c1-2-7-5-3-6(4-5)8(7)9/h5-9H,2-4H2,1H3/t5-,6+,7-,8+/m0/s1
