20
gdb 99138	3.58209	0.80883	0.774	3.3018	76.23	-0.2325	-0.0283	0.2042	1549.239	0.168246	-440.262099	-440.252077	-440.251133	-440.299191	35.631	
C	-0.193816374	 1.5601855356	 0.2201779648	-0.320975
N	-0.0271802902	 0.1197037775	 0.1206707213	-0.066772
C	 1.2817806823	-0.3974080288	-0.2549821605	-0.269149
C	 0.7476437268	-0.6119138742	 1.121164661	 0.04006
C	 1.4109895975	 0.0504357193	 2.3122018073	-0.355492
C	 0.5005921719	 0.1833063665	 3.5211478879	 0.362151
O	-0.4787624044	-0.5106247057	 3.6937498308	-0.316801
C	 0.8619204427	 1.22713889	 4.5699841259	-0.130126
O	 0.0083812599	 1.1622322289	 5.6707099081	-0.41862
H	 0.7117951476	 2.1136809202	 0.518104042	 0.093898
H	-0.5039169468	 1.9424440268	-0.7574084812	 0.130952
H	-0.9900807206	 1.7846797534	 0.9374278297	 0.130838
H	 1.2932328066	-1.2035586957	-0.9841875713	 0.118533
H	 2.0998339242	 0.316839139	-0.358590131	 0.101558
H	 0.310661893	-1.5767799641	 1.3659497062	 0.111427
H	 2.2610397391	-0.5691428834	 2.6356174438	 0.144162
H	 1.8423500237	 1.0261714506	 2.0678919224	 0.119717
H	 1.9128545787	 1.0786794685	 4.8686931173	 0.11506
H	 0.821415563	 2.2165016828	 4.0803905556	 0.114495
H	-0.650050051	 0.487936583	 5.4362392999	 0.295083
15.7125	39.8959	112.7363	133.0567	197.981	284.1298	288.5432	315.6838	372.632	409.6078	417.35	486.9503	504.7439	700.0947	741.7119	777.3636	843.8542	880.306	930.3287	1023.631	1036.6598	1041.5615	1097.3212	1118.5651	1131.0876	1145.4153	1150.8872	1171.8599	1202.1009	1220.278	1259.7149	1304.4366	1338.3657	1344.8576	1426.141	1442.9968	1452.5299	1453.9049	1489.9213	1492.1752	1503.502	1514.8331	1797.9867	2957.2916	2967.2137	2984.6329	3013.424	3065.4807	3077.5576	3082.3724	3102.8053	3139.9524	3168.7989	3678.4276
CN1CC1CC(=O)CO	CN1C[C@H]1CC(=O)CO	
InChI=1S/C6H11NO2/c1-7-3-5(7)2-6(9)4-8/h5,8H,2-4H2,1H3	InChI=1S/C6H11NO2/c1-7-3-5(7)2-6(9)4-8/h5,8H,2-4H2,1H3/t5-,7?/m1/s1
