17
gdb 83712	2.61321	1.75901	1.24683	3.6038	67.51	-0.2631	0.0068	0.2699	1009.3751	0.136852	-458.99285	-458.985229	-458.984285	-459.025247	28.678	
C	 0.0784364	 1.6188180711	 0.000131686	-0.400818
C	 0.0848508084	 0.0902256366	-0.0253534486	-0.170631
C	 0.8052821915	-0.5674969565	-1.1918408822	 0.086074
O	 2.0436474616	 0.0811861361	-1.5654971752	-0.288186
C	 2.8207302383	-1.0847403733	-1.2007693431	-0.09492
C	 1.587278985	-1.7522894153	-0.5794414828	 0.042703
O	 1.5247606327	-1.6032102703	 0.8360750449	-0.230018
C	 0.7750465538	-0.5163156376	 1.2025294848	 0.430928
O	 0.6919960584	-0.1612656066	 2.3397375949	-0.329488
H	 1.0857845457	 2.0044711942	-0.1700805212	 0.14516
H	-0.5797564159	 2.0200704098	-0.7751472435	 0.118715
H	-0.2718578514	 1.9656514671	 0.9749933187	 0.144462
H	-0.9483491904	-0.2831762769	 0.0017240139	 0.114648
H	 0.1754648004	-0.7660094231	-2.0640160615	 0.087083
H	 3.2191248434	-1.5995418318	-2.0836028538	 0.110741
H	 3.6310589733	-0.8512878878	-0.5035189743	 0.128017
H	 1.3521076153	-2.7834249456	-0.841698477	 0.105529
84.7714	135.6164	209.2242	229.9254	255.5929	394.3489	472.0422	504.04	625.3357	651.4289	724.9222	783.2646	839.9827	889.242	899.2313	935.8195	973.8295	1010.1586	1041.8658	1066.1606	1108.2214	1113.5261	1145.0962	1151.5419	1176.5544	1246.211	1256.1535	1292.5263	1321.5027	1351.8295	1356.9431	1373.8197	1405.6374	1492.6778	1505.8653	1509.1731	1887.0607	3020.1625	3026.9292	3054.5188	3065.7578	3092.1699	3119.7983	3128.1794	3142.5208
CC1C2OCC2OC1=O	C[C@H]1[C@H]2OC[C@H]2OC1=O	
InChI=1S/C6H8O3/c1-3-5-4(2-8-5)9-6(3)7/h3-5H,2H2,1H3	InChI=1S/C6H8O3/c1-3-5-4(2-8-5)9-6(3)7/h3-5H,2H2,1H3/t3-,4+,5+/m0/s1
