21
gdb 107631	2.55676	1.50023	1.11996	1.6948	77.35	-0.247	0.0736	0.3205	1166.4393	0.18264	-424.231109	-424.222118	-424.221174	-424.264768	34.509	
C	-0.3810748337	 1.5217734147	-0.4104436477	-0.387371
C	 0.0217568419	 0.08248409	-0.0582454279	-0.287672
C	 0.9294361952	-0.5562983665	-1.0803620294	 0.386228
O	 0.3313268295	-0.8662391128	-2.3635063304	-0.318192
C	 0.8205888209	-1.9443327997	-1.5462061835	-0.010612
C	 2.1751625721	-2.4704127754	-1.9772591043	-0.251607
C	 3.008162327	-1.1884964459	-2.1864041963	-0.247583
C	 2.3809292244	-0.109723046	-1.2643886514	 0.08435
O	 2.5263921872	 1.2108093784	-1.761251663	-0.4349
H	 0.4959838381	 2.1674787291	-0.4923304009	 0.138949
H	-0.9095712239	 1.5437765254	-1.3686860184	 0.124703
H	-1.0484269543	 1.9330303868	 0.3526973247	 0.108132
H	 0.5294597858	 0.0637475436	 0.9148586049	 0.099711
H	-0.8771000362	-0.5361257551	 0.0426526932	 0.101827
H	 0.0529858651	-2.617935395	-1.1711779677	 0.090045
H	 2.5840280244	-3.0926392736	-1.1717892969	 0.105408
H	 2.1217232063	-3.0941635245	-2.8751173722	 0.110874
H	 4.0725180698	-1.3297805835	-1.9876869843	 0.104264
H	 2.9126056761	-0.8458189978	-3.2204462976	 0.109161
H	 2.8724534699	-0.1002851059	-0.283986702	 0.087775
H	 2.0257644745	 1.2519024237	-2.5850258989	 0.286512
67.8106	106.8031	173.9348	219.7502	243.4253	303.6857	316.5233	388.3717	415.9849	463.5882	552.7657	598.5173	659.561	704.5732	776.9041	826.8007	861.9909	919.4952	926.2017	951.6182	981.9478	1017.8126	1043.3382	1058.9027	1090.2654	1103.4186	1111.6682	1165.5564	1223.7742	1232.9101	1264.9322	1293.2922	1305.8994	1331.2019	1338.4904	1347.365	1370.9644	1407.3946	1429.3643	1462.8394	1474.2401	1482.5376	1492.5558	1496.4661	1516.8556	3024.1276	3037.1784	3042.3983	3043.6888	3065.5508	3066.1425	3082.6647	3109.8658	3116.932	3133.2608	3137.8832	3787.5965
CCC12OC1CCC2O	CC[C@]12O[C@H]1CC[C@H]2O	
InChI=1S/C7H12O2/c1-2-7-5(8)3-4-6(7)9-7/h5-6,8H,2-4H2,1H3	InChI=1S/C7H12O2/c1-2-7-5(8)3-4-6(7)9-7/h5-6,8H,2-4H2,1H3/t5-,6+,7-/m1/s1
