17
gdb 38763	2.4404	2.3943	1.87309	1.1064	65.63	-0.2382	0.065	0.3033	817.3681	0.139322	-458.949973	-458.943917	-458.942973	-458.980174	25.426	
C	-0.0124489657	 1.5955829998	-0.1662059074	-0.281171
C	 1.5281956569	 1.5746409473	-0.0266772502	 0.05879
O	 1.9746090052	 1.7290392682	 1.3175515659	-0.270838
C	 1.9037244389	 0.4423630663	 1.9207625954	 0.14053
C	 0.4866981185	 0.1173842129	 2.4200602637	-0.094555
O	-0.3522752265	-0.3789522597	 1.3814359463	-0.259818
C	-0.0356738951	 0.056469846	 0.0777213745	 0.067204
C	 1.5139808335	 0.0213328254	-0.1888442889	 0.06444
O	 2.2467700968	-0.4818254039	 0.9069598582	-0.235806
H	-0.5565946247	 2.2239928555	 0.5415045984	 0.116036
H	-0.3290268266	 1.8425959939	-1.1840268222	 0.107768
H	 2.1335379849	 2.2135121857	-0.6706073714	 0.086356
H	 2.6415783145	 0.4018644164	 2.7253486605	 0.100726
H	 0.5356884757	-0.6743931554	 3.174418901	 0.116293
H	 0.0569604039	 1.0161819587	 2.885429309	 0.10319
H	-0.6687951852	-0.5303704345	-0.589782247	 0.089294
H	 1.860238615	-0.4347916524	-1.1146835357	 0.091562
163.5944	316.4755	361.564	422.1393	456.1186	568.2398	643.3638	685.2669	743.3104	812.2948	844.3604	846.2278	870.8227	881.8146	922.8009	950.7868	973.6507	1033.2849	1040.4915	1059.534	1109.3672	1125.7757	1149.564	1151.9963	1196.4267	1221.5007	1253.2958	1266.4404	1270.8651	1298.8733	1330.0332	1364.1521	1369.4142	1374.5747	1411.606	1458.8761	1501.3792	3003.5872	3061.1701	3075.4826	3097.2734	3098.6696	3107.1137	3125.7858	3136.1301
C1C2OC3COC1C2O3	C1[C@H]2O[C@H]3CO[C@@H]1[C@@H]2O3	
InChI=1S/C6H8O3/c1-3-6-4(1)8-5(9-6)2-7-3/h3-6H,1-2H2	InChI=1S/C6H8O3/c1-3-6-4(1)8-5(9-6)2-7-3/h3-6H,1-2H2/t3-,4+,5+,6-/m0/s1
