23
gdb 115062	2.98075	1.22831	0.96759	0.3798	90.55	-0.2207	0.0259	0.2466	1312.8701	0.207665	-351.165909	-351.157199	-351.156255	-351.199173	34.529	
C	-0.1138097921	 1.5184261943	-0.1326572503	-0.391722
C	-0.070676476	-0.0036126834	 0.0384340956	-0.168734
C	 0.728101223	-0.4926332554	 1.2606273035	 0.019337
C	 0.131922765	 0.0158413125	 2.5934253041	-0.274861
C	 0.6879490993	-0.6836205781	 3.8078072793	-0.090702
C	 1.1609043458	-1.9305746904	 3.7671751272	-0.0403
C	 1.1729905816	-2.737252915	 2.5238623793	-0.091453
C	-0.1383505799	-2.9551490921	 1.7759097344	-0.290512
C	 0.8920495325	-2.0055852135	 1.2294231168	-0.020232
H	 0.8971634368	 1.9388189987	-0.1852112727	 0.112355
H	-0.6349265023	 1.7937993909	-1.0549897843	 0.110418
H	-0.6339177166	 2.0095079377	 0.6955937179	 0.11816
H	-1.0930966185	-0.3992900887	 0.103636071	 0.093857
H	 0.3674356461	-0.4502891518	-0.8636547049	 0.088693
H	 1.7431005726	-0.0735190765	 1.1859451984	 0.070738
H	 0.3047925218	 1.0940490664	 2.6792998851	 0.103279
H	-0.9632175627	-0.0970392153	 2.5677739612	 0.105128
H	 0.6724368104	-0.1391459193	 4.7480412504	 0.082058
H	 1.5437418284	-2.3994447655	 4.6698132571	 0.082217
H	 1.8836095167	-3.5570157077	 2.4940447882	 0.079392
H	-0.2831380469	-3.9018478948	 1.2662426987	 0.107256
H	-1.0346335649	-2.5547290328	 2.2370221707	 0.11594
H	 1.4375755399	-2.3636798202	 0.3597045235	 0.079688
82.3973	110.0617	187.3405	231.5298	244.134	305.3574	353.0564	431.2634	479.6441	509.5761	589.9273	714.3139	725.5514	775.7478	781.467	832.3602	861.5578	913.0488	928.1404	940.4604	970.2372	979.7596	991.9435	1039.4386	1057.9379	1068.2641	1087.5043	1112.3951	1129.3477	1133.0655	1167.834	1194.6433	1220.3279	1242.5691	1285.2655	1323.5591	1333.5613	1358.8887	1370.1898	1388.6284	1408.8209	1415.7163	1425.6835	1479.177	1485.9158	1492.0188	1500.572	1507.9409	1713.2472	2979.1046	2990.608	3013.7469	3030.5454	3045.8289	3058.5221	3096.0476	3104.5871	3128.2746	3131.7493	3146.6373	3156.6815	3173.9961	3216.7197
CCC1CC=CC2CC12	CC[C@H]1CC=C[C@H]2C[C@@H]12	
InChI=1S/C9H14/c1-2-7-4-3-5-8-6-9(7)8/h3,5,7-9H,2,4,6H2,1H3	InChI=1S/C9H14/c1-2-7-4-3-5-8-6-9(7)8/h3,5,7-9H,2,4,6H2,1H3/t7-,8-,9-/m0/s1
