21
gdb 79993	2.16417	2.01177	1.58624	0.0678	85.71	-0.2174	-0.0019	0.2156	995.5984	0.183246	-349.951952	-349.943984	-349.94304	-349.983471	33.391	
C	-0.1236174256	 1.5359991572	-0.0228604557	-0.429635
C	 0.0734005896	 0.024978448	 0.0043284229	 0.032419
C	 1.1448084225	-0.5917987174	-0.9617089053	-0.133618
C	 2.4224824297	-0.0527021644	-0.2907007144	-0.08669
C	 2.2090267549	-0.0686956009	 1.0233892669	-0.106435
C	 0.781361064	-0.6076890732	 1.2660147974	 0.251989
C	 0.1819742606	-0.3550699746	 2.6392119331	-0.509879
C	 0.786899395	-2.0737277503	 0.776808486	-0.107569
C	 0.9964257714	-2.065586257	-0.5383485008	-0.09555
H	 0.8096593406	 2.0799950467	 0.1394466066	 0.11945
H	-0.536703095	 1.8469726063	-0.989028028	 0.109988
H	-0.8387820295	 1.8441546272	 0.7479011851	 0.111961
H	-0.8949059326	-0.4623805852	-0.1528417937	 0.06644
H	 1.0401622828	-0.3866494607	-2.0276993766	 0.054133
H	 3.3233459362	 0.226698098	-0.8205923492	 0.095083
H	 2.8940732813	 0.1961378186	 1.8188760612	 0.091617
H	 0.1719312804	 0.7127024029	 2.8810532267	 0.117986
H	-0.8483126874	-0.7226078588	 2.6956918728	 0.11506
H	 0.7579988401	-0.8642511323	 3.4200638461	 0.115107
H	 0.6698358336	-2.9252411799	 1.4352378622	 0.092312
H	 1.0930933676	-2.9087564	-1.2092030833	 0.095829
196.9486	214.0931	223.8468	248.6256	310.841	335.4994	429.792	466.1594	534.9075	561.6693	614.8303	675.8824	726.4733	733.8832	768.8368	788.7096	839.8646	886.0751	896.6459	913.8125	923.822	939.7418	947.728	1034.385	1066.6729	1072.5442	1087.6821	1118.6369	1147.4489	1168.9738	1217.971	1242.1631	1251.6735	1268.2511	1294.4085	1352.0962	1379.0974	1404.0464	1412.683	1489.2175	1494.3682	1500.0955	1502.5278	1617.0439	1662.0252	3027.5669	3031.7404	3048.9118	3087.7083	3091.2952	3098.8583	3107.4141	3123.6224	3199.0988	3200.6024	3226.9278	3229.4644
CC1C2C=CC1(C)C=C2	C[C@H]1[C@H]2C=C[C@]1(C)C=C2	
InChI=1S/C9H12/c1-7-8-3-5-9(7,2)6-4-8/h3-8H,1-2H3	InChI=1S/C9H12/c1-7-8-3-5-9(7,2)6-4-8/h3-8H,1-2H3/t7-,8-,9+/m0/s1
