18
gdb 62997	2.18241	1.59407	1.2371	2.8024	72.44	-0.2297	-0.0232	0.2065	1074.0251	0.145393	-439.043138	-439.034229	-439.033285	-439.077128	33.434	
C	-0.0551443601	 1.5451536333	 0.052741143	-0.468938
C	 0.0389358097	 0.0307123887	 0.017502395	 0.409669
O	-1.2063959099	-0.5869851338	 0.2498409579	-0.47497
C	 0.6585487231	-0.6347270856	-1.2209940757	-0.075556
N	 2.0563148138	-0.1609590873	-1.2967332748	-0.344297
C	 1.7080562443	-1.3040892026	-0.414731241	-0.084934
C	 1.2031394037	-0.6776063349	 0.8883153533	-0.142556
C	 2.1421466991	 0.2034868621	 1.6645562063	 0.136031
O	 1.9172920956	 0.5834399936	 2.7898676948	-0.269599
H	 0.8868918361	 1.9958633391	-0.267588915	 0.144887
H	-0.8565737521	 1.8821488581	-0.6120112481	 0.121195
H	-0.2712913456	 1.8961832046	 1.0685862037	 0.126725
H	-1.5873060701	-0.200558507	 1.0463387779	 0.28527
H	 0.117909836	-0.9700347209	-2.0969553316	 0.103501
H	 2.4621843392	-0.5399639859	-2.1508573127	 0.237496
H	 2.1730456397	-2.2725039214	-0.5479037727	 0.102185
H	 0.7136147104	-1.3871434818	 1.5568224895	 0.102886
H	 3.058428087	 0.5166541718	 1.1212139998	 0.091006
36.1704	118.4537	200.947	239.0112	256.7438	274.7338	307.1512	378.8551	435.555	477.2266	519.8105	544.9964	644.8156	755.261	836.0649	839.8218	851.6132	934.487	964.4463	985.5803	1008.0873	1030.7733	1081.7853	1094.7702	1095.7298	1113.5235	1160.849	1171.5028	1212.8709	1263.4443	1283.6421	1328.2017	1371.0078	1401.6324	1408.2368	1423.4061	1487.0062	1499.2898	1805.1687	2912.5508	3032.8117	3101.4103	3111.3381	3131.406	3191.3778	3205.4949	3488.6308	3802.3224
CC1(O)C2NC2C1C=O	C[C@@]1(O)[C@H]2N[C@H]2[C@H]1C=O	
InChI=1S/C6H9NO2/c1-6(9)3(2-8)4-5(6)7-4/h2-5,7,9H,1H3	InChI=1S/C6H9NO2/c1-6(9)3(2-8)4-5(6)7-4/h2-5,7,9H,1H3/t3-,4+,5+,6+/m1/s1
