19
gdb 23286	3.89993	1.10908	1.06	1.6118	80.25	-0.2157	0.0195	0.2352	1208.597	0.15974	-419.127428	-419.119343	-419.118398	-419.15975	32.044	
C	-0.2032065219	 1.4074672131	 0.1001454443	-0.329978
N	 0.0391465379	-0.0268211895	 0.0378294982	-0.106324
C	 0.7704984193	-0.5265362021	-1.1898723786	-0.006729
C	 2.1241402544	-0.1412425927	-0.5328358373	-0.247559
C	 1.3005158243	-0.5110539799	 0.739624537	-0.09828
C	 1.1028125822	-1.9913746623	 0.5283102034	 0.51313
C	 0.6832809106	-2.0491873198	-0.9359448429	-0.30412
N	 1.2771291677	-2.8868560271	 1.4058752006	-0.295883
O	 1.0153406151	-4.1680487927	 0.8747746318	-0.395339
H	 0.6588766677	 2.0572027469	-0.1255275029	 0.094577
H	-1.0024822398	 1.6569115188	-0.6057478284	 0.122467
H	-0.5584824126	 1.6610242916	 1.1042248316	 0.12495
H	 0.4499738887	-0.1487243007	-2.1609590179	 0.073274
H	 3.015082946	-0.7305159215	-0.7696243894	 0.103891
H	 2.3528923074	 0.9220540539	-0.5962390165	 0.112258
H	 1.5199350305	-0.151460362	 1.7429830247	 0.083406
H	-0.3302686552	-2.4392115834	-1.0537466599	 0.131811
H	 1.3670637563	-2.6457465759	-1.5465473062	 0.119794
H	 1.1723802015	-4.7365875948	 1.6359574984	 0.304652
101.0547	192.9579	208.173	273.605	296.0464	333.5211	398.845	429.863	455.4179	556.8613	584.7837	668.3584	760.3534	804.3263	824.5259	830.7861	890.0863	933.5502	964.4454	977.4724	1008.1713	1011.1213	1072.8099	1105.121	1132.405	1161.7889	1178.4278	1194.2562	1200.2072	1224.3576	1250.148	1289.1323	1294.0713	1308.8253	1407.3804	1447.1639	1461.3134	1482.312	1501.2944	1514.8256	1796.0832	2960.4898	3059.2206	3062.0613	3067.7791	3097.8827	3116.9384	3118.7039	3140.0299	3148.0553	3820.4592
CN1C2CC1C(C2)=NO	CN1[C@H]2C[C@@H]1C(=NO)C2	
InChI=1S/C6H10N2O/c1-8-4-2-5(7-9)6(8)3-4/h4,6,9H,2-3H2,1H3	InChI=1S/C6H10N2O/c1-8-4-2-5(7-9)6(8)3-4/h4,6,9H,2-3H2,1H3/t4-,6-/m1/s1
