19
gdb 94206	2.86132	1.231	1.14683	1.555	71.16	-0.2544	0.0541	0.3085	1166.9637	0.157052	-460.114171	-460.104976	-460.104032	-460.148477	33.82	
C	-0.3134304249	 1.4176263001	 0.1990274998	-0.425771
C	 0.0063663434	-0.0643621575	 0.1347676954	 0.098224
O	 1.0023164918	-0.3810768645	-0.8708666326	-0.293448
C	 1.9860738824	-0.7275584952	 0.1208769659	-0.132982
C	 0.9306534496	-0.64826442	 1.2541804597	 0.286473
O	 1.2144633203	 0.1410209048	 2.3757985703	-0.470956
C	 0.4646421499	-2.0055980889	 1.7263097455	 0.067478
C	 0.6356617715	-2.4754819392	 3.1048194312	-0.190146
O	-0.6376838121	-2.0253038271	 2.6293456325	-0.244284
H	 0.5897856354	 2.0259572529	 0.3267973434	 0.107145
H	-0.7864714804	 1.7358330356	-0.7344472907	 0.135866
H	-1.0014134035	 1.6267029563	 1.0242715895	 0.136668
H	-0.9124065372	-0.6394216261	-0.0319807714	 0.092114
H	 2.4482101274	-1.7032465644	-0.0705762327	 0.106079
H	 2.7775798873	 0.0293349822	 0.2144686581	 0.092202
H	 1.3776781817	 1.0441753939	 2.0876847646	 0.286199
H	 0.3994075064	-2.7428610515	 0.9243584539	 0.102286
H	 0.7095068535	-3.5444757992	 3.2999133876	 0.111852
H	 1.1134576976	-1.8213492421	 3.8282401803	 0.135001
59.2736	74.6814	176.5965	214.8344	236.0597	255.1965	295.2277	329.7419	369.6966	452.2408	503.4093	529.211	714.5102	787.4755	846.3507	875.6055	885.2727	938.9716	995.8784	1011.5383	1029.7156	1044.9845	1083.8138	1112.3096	1116.5657	1145.5893	1154.4478	1162.9643	1178.3185	1238.9843	1265.3117	1298.8777	1348.5142	1360.0383	1387.1987	1405.2002	1461.926	1483.7966	1501.8211	1521.1518	1523.0635	2999.774	3028.6934	3034.2989	3055.936	3093.2818	3099.4181	3102.2422	3118.8529	3198.2588	3830.7554
CC1OCC1(O)C1CO1	C[C@H]1OC[C@]1(O)[C@H]1CO1	
InChI=1S/C6H10O3/c1-4-6(7,3-9-4)5-2-8-5/h4-5,7H,2-3H2,1H3	InChI=1S/C6H10O3/c1-4-6(7,3-9-4)5-2-8-5/h4-5,7H,2-3H2,1H3/t4-,5-,6-/m1/s1
