20
gdb 112090	3.02954	1.27383	0.99366	1.92	80.23	-0.2284	0.0246	0.2531	1220.3428	0.173154	-403.130554	-403.122216	-403.121272	-403.163617	32.295	
O	 0.2790431453	 1.2671884938	-0.104899407	-0.425624
C	 0.0261709152	-0.1303661335	-0.0926061722	-0.073786
C	-1.4570521158	-0.4781641014	 0.1645244034	-0.048741
C	-2.3631129582	 0.11178907	-0.8832641673	-0.061461
C	-3.3245687776	-0.5441646283	-1.5290803677	-0.060286
C	-3.6751600566	-1.9890918609	-1.3049752923	-0.26435
C	-2.6907764594	-2.7184998775	-0.4151896697	-0.032368
N	-1.3016127244	-2.7813424748	-0.8987763851	-0.332673
C	-1.6181338428	-1.980926698	 0.3029361128	-0.054154
H	 0.0343274605	 1.6032765625	-0.9713994	 0.286219
H	 0.3479404878	-0.6118407052	-1.0246373789	 0.112022
H	 0.6356637225	-0.5404890965	 0.721017615	 0.098143
H	-1.7175303668	-0.020949181	 1.1312357054	 0.086576
H	-2.2113218794	 1.1682478751	-1.0926116174	 0.076086
H	-3.9287292563	-0.015983557	-2.2631763491	 0.083951
H	-4.6765291575	-2.0511158883	-0.8540809906	 0.10828
H	-3.7527205028	-2.5098686018	-2.2695090008	 0.11238
H	-3.0836648307	-3.6094136566	 0.0707311519	 0.080459
H	-0.8759674878	-3.663464709	-0.6283057086	 0.229026
H	-1.2962021252	-2.3857332818	 1.260771848	 0.080301
77.3652	117.0346	177.8283	256.5126	274.9599	333.1188	380.9889	401.674	511.8997	530.4625	634.1899	723.0797	770.8658	798.6055	846.1768	871.9479	896.5858	924.4476	978.499	994.7725	1017.7757	1028.0652	1064.1559	1074.8079	1090.9224	1127.3085	1170.0871	1178.5844	1198.1052	1223.2096	1236.9438	1276.9329	1299.9826	1353.3236	1370.6676	1384.1258	1398.1512	1410.8545	1434.9736	1464.3198	1467.9277	1504.1252	1731.6244	2991.1434	3000.8362	3021.4193	3026.4528	3070.9651	3114.5679	3126.253	3138.6667	3162.3379	3506.6252	3838.7172
OCC1C=CCC2NC12	OC[C@H]1C=CC[C@H]2N[C@@H]12	
InChI=1S/C7H11NO/c9-4-5-2-1-3-6-7(5)8-6/h1-2,5-9H,3-4H2	InChI=1S/C7H11NO/c9-4-5-2-1-3-6-7(5)8-6/h1-2,5-9H,3-4H2/t5-,6-,7+/m1/s1
