19
gdb 108214	3.0353	1.48151	1.30512	2.1092	69.3	-0.2529	0.0728	0.3258	1034.1438	0.161578	-460.170924	-460.163336	-460.162392	-460.202882	30.164	
O	-0.0029117953	 1.3862171761	-0.0822304336	-0.417547
C	-0.0103190141	-0.0227361196	 0.0307401528	-0.158057
C	-1.416584761	-0.5782874302	 0.1147199473	 0.329857
C	-1.5964679502	-2.1123619316	 0.0830286589	-0.2725
C	-3.0529175226	-2.2245880567	-0.4654865331	-0.236913
C	-3.3925611783	-0.7319343539	-0.642269615	 0.183219
O	-3.6416988872	-0.1537182111	 0.6337381426	-0.274392
C	-2.3346830996	-0.0004208439	 1.2146186282	-0.112615
O	-2.1625024586	-0.1689068187	-1.0601531917	-0.295857
H	-0.6064276993	 1.6022898376	-0.8032726425	 0.295399
H	 0.5059549147	-0.5007364273	-0.8167804235	 0.097609
H	 0.5447478268	-0.2738953831	 0.9410148687	 0.114784
H	-0.8731574154	-2.5680880628	-0.5981195091	 0.107286
H	-1.4711933422	-2.5663040136	 1.0686843654	 0.107391
H	-3.0892543249	-2.7520258962	-1.421859988	 0.10855
H	-3.7447926411	-2.7072270602	 0.2268783339	 0.114881
H	-4.2005066404	-0.4733876265	-1.3262385349	 0.091727
H	-2.2687278117	-0.5550080142	 2.1570509253	 0.099692
H	-2.1279683496	 1.0584978061	 1.3943723482	 0.117487
116.6155	145.3089	216.0675	290.3703	363.5642	389.7137	435.2374	452.2355	586.002	641.8469	678.1849	790.4189	824.0601	836.0216	874.1776	885.6493	932.1878	955.7644	981.7692	1000.6357	1034.8756	1058.8448	1089.396	1112.913	1144.5848	1185.143	1195.1344	1217.9572	1230.4568	1263.0458	1293.6061	1316.0537	1329.3479	1342.915	1384.9351	1390.5202	1439.4233	1478.7334	1494.9404	1502.1763	1530.2824	2983.4283	3038.9095	3062.2998	3073.7073	3074.704	3092.5686	3109.1161	3130.6201	3134.0219	3793.9184
OCC12CCC(OC1)O2	OC[C@@]12CC[C@@H](OC1)O2	
InChI=1S/C6H10O3/c7-3-6-2-1-5(9-6)8-4-6/h5,7H,1-4H2	InChI=1S/C6H10O3/c7-3-6-2-1-5(9-6)8-4-6/h5,7H,1-4H2/t5-,6-/m0/s1
