21
gdb 79464	2.44429	1.81397	1.43253	1.7813	80.99	-0.2324	0.0853	0.3177	1023.0113	0.183484	-387.057197	-387.049364	-387.04842	-387.088953	32.049	
C	-0.2125385466	 1.6398610655	 0.0024337374	-0.433021
C	 0.0299863639	 0.1360089911	 0.0153046757	-0.004318
C	 1.0998433041	-0.5381006815	-0.8603253484	-0.100504
C	 2.5249563636	-0.3873969854	-0.1821408422	 0.064928
C	 2.1307677858	 0.1014319251	 1.2229791432	-0.253591
C	 0.7536663455	-0.5983012013	 1.1953870396	 0.267211
C	 0.0521406395	-0.9131656591	 2.4943235398	-0.510708
C	 1.1597690126	-1.7270737314	 0.1144354859	 0.074837
O	 2.5853311059	-1.831506008	 0.0422557246	-0.300384
H	 0.712752024	 2.2185241481	 0.0702017468	 0.116816
H	-0.7120177391	 1.936253639	-0.9264488738	 0.116804
H	-0.8595209996	 1.9446056102	 0.832949614	 0.11666
H	-0.9210515132	-0.3802854143	-0.1736243646	 0.069019
H	 1.0528024891	-0.6417617648	-1.943319317	 0.070971
H	 3.4010834268	 0.0152348238	-0.6885484269	 0.077673
H	 2.8156974963	-0.3102065309	 1.9679768784	 0.10369
H	 2.0687363107	 1.1842133885	 1.3463295937	 0.094944
H	-0.1958814151	 0.0002023913	 3.0483119183	 0.1167
H	-0.8830493311	-1.4578341398	 2.3220939257	 0.111777
H	 0.6837602852	-1.5296243369	 3.1436963888	 0.121623
H	 0.6047848819	-2.6631028692	 0.057432031	 0.078872
169.9107	184.7483	208.5307	242.7003	287.5673	302.5684	480.7315	516.7381	556.609	608.9456	665.6495	729.9598	750.1511	808.4973	841.1204	868.6372	908.5349	910.5984	938.5934	953.3247	993.4534	1029.8731	1034.5132	1053.8465	1079.2544	1115.4457	1139.4441	1148.9707	1163.7799	1198.4013	1215.4275	1223.2052	1247.4123	1273.9655	1295.704	1329.2359	1342.8041	1401.5936	1410.0581	1417.0324	1481.7563	1492.7721	1495.394	1495.9989	1508.5683	3013.5517	3020.5862	3031.4226	3072.86	3081.4549	3089.7385	3090.12	3107.9919	3120.6739	3125.1354	3127.8651	3136.8509
CC1C2C3CC1(C)C2O3	C[C@H]1[C@H]2[C@H]3C[C@]1(C)[C@@H]2O3	
InChI=1S/C8H12O/c1-4-6-5-3-8(4,2)7(6)9-5/h4-7H,3H2,1-2H3	InChI=1S/C8H12O/c1-4-6-5-3-8(4,2)7(6)9-5/h4-7H,3H2,1-2H3/t4-,5+,6-,7+,8-/m0/s1
