16
gdb 8802	5.0638	1.14573	0.94532	1.6307	64.45	-0.2373	-0.0705	0.1667	1190.4235	0.128718	-417.073709	-417.064301	-417.063356	-417.109169	31.835	
C	-0.122350451	 1.3649473396	-0.02990447	-0.309998
N	-0.0232952278	-0.0684405393	 0.1236836008	-0.287244
C	 0.6057478647	-0.6391727242	 1.1772791952	 0.264618
N	 1.154590688	 0.0583751014	 2.1074961828	-0.536488
C	 0.5758849619	-2.1559537255	 1.1131358064	 0.320882
O	 0.0327273074	-2.7360358756	 0.1936082182	-0.340774
C	 1.2357253669	-2.9669460766	 2.2163251162	-0.143493
O	 1.1042454419	-4.3360983109	 1.9824749503	-0.42145
H	 0.8713428297	 1.824157918	-0.0814461131	 0.142591
H	-0.6688980981	 1.5870953791	-0.9480196569	 0.124911
H	-0.6466754232	 1.8158851243	 0.8202129062	 0.142583
H	-0.4229010638	-0.6950500419	-0.5546539133	 0.264475
H	 1.5791879217	-0.5331802148	 2.8167581903	 0.223485
H	 2.2962587439	-2.6724850043	 2.2752187245	 0.129931
H	 0.7779599535	-2.6807562406	 3.1772881616	 0.129931
H	 0.6106685842	-4.4133564288	 1.1510234108	 0.296039
27.3982	68.2004	106.2692	125.9903	169.9337	285.2082	349.99	357.3744	368.9928	417.7472	446.4527	510.1209	680.3989	743.0289	796.4509	843.3679	969.9028	1014.8045	1110.4924	1160.8474	1169.4784	1182.6329	1197.3717	1243.519	1301.927	1338.8895	1448.209	1455.9184	1471.3163	1493.9472	1513.0628	1562.2774	1695.7197	1774.0043	2977.5327	2994.9284	3029.0083	3078.4972	3136.054	3527.5148	3659.2735	3696.5942
CNC(=N)C(=O)CO	CNC(=N)C(=O)CO	
InChI=1S/C4H8N2O2/c1-6-4(5)3(8)2-7/h7H,2H2,1H3,(H2,5,6)	InChI=1S/C4H8N2O2/c1-6-4(5)3(8)2-7/h7H,2H2,1H3,(H2,5,6)
