16
gdb 77964	3.67306	1.20411	1.01972	2.3547	69.91	-0.2654	0.022	0.2875	1129.3085	0.125079	-437.8406	-437.832968	-437.832024	-437.872492	30.007	
O	-0.0687378868	 1.4997789591	-0.1020069015	-0.451422
C	-0.0077782361	 0.0896572405	-0.017154981	 0.123813
C	-0.0259699478	-0.6072541683	 1.3849730758	-0.163538
C	-1.5256799695	-0.1512316514	 1.5247065359	 0.181009
O	-1.8660873146	 1.1500836729	 1.8430354195	-0.44928
C	-1.3787595115	-0.6323864123	 0.0323338097	-0.13325
C	-0.6071414159	-1.8530788738	 0.63883559	-0.156695
C	 0.2681202705	-2.6337463822	-0.2179140041	 0.276809
N	 0.9584955714	-3.2755238478	-0.8881882645	-0.337586
H	 0.8261911706	 1.8499259897	-0.0454404967	 0.299285
H	 0.7165453186	-0.3050028685	-0.7367629649	 0.108766
H	 0.7572841544	-0.6238196915	 2.1430610706	 0.09309
H	-2.1394027057	-0.8052782094	 2.1510284792	 0.089545
H	-1.3435456564	 1.7312431981	 1.271527439	 0.293442
H	-2.1352475746	-0.6751584417	-0.7505502317	 0.099216
H	-1.2157161266	-2.5154644934	 1.2580603949	 0.126795
141.0237	146.9664	286.9754	298.304	323.5683	366.9088	403.5469	466.5501	498.2538	562.9927	617.615	694.8777	734.2906	824.9115	840.9447	908.4885	927.1762	928.2559	1020.5481	1038.2006	1062.2426	1084.2441	1130.8773	1142.4009	1178.8132	1192.4609	1222.565	1224.1182	1271.4712	1307.2927	1349.505	1371.5031	1463.1262	1502.9436	2351.3996	3060.2852	3071.1425	3093.8539	3120.0955	3130.1675	3719.2687	3823.3248
OC1C2C(O)C1C2C#N	O[C@H]1[C@H]2[C@@H](O)[C@@H]1[C@H]2C#N	
InChI=1S/C6H7NO2/c7-1-2-3-5(8)4(2)6(3)9/h2-6,8-9H	InChI=1S/C6H7NO2/c7-1-2-3-5(8)4(2)6(3)9/h2-6,8-9H/t2-,3-,4+,5-,6+
