19
gdb 50103	3.619	0.6781	0.60104	3.0317	83.92	-0.2485	-0.0201	0.2284	1802.8842	0.156685	-385.855886	-385.846161	-385.845217	-385.891521	35.024	
O	-0.0614757588	 0.0709092343	-0.6697211255	-0.268892
C	 0.0116500931	 1.1575784918	-0.1500017265	 0.165518
C	 1.2726564421	 1.9116692688	 0.0273035013	-0.128176
C	 1.2300864923	 3.4364127963	-0.0213205123	-0.298773
C	 1.5333494646	 2.7597159004	 1.2738520663	 0.003227
C	 0.5796124903	 2.8204364522	 2.4501061832	-0.214383
C	 0.8620195375	 4.052778422	 3.3385130671	-0.351997
C	-0.0360398845	 4.1404957292	 4.4826834991	 0.287418
C	-0.7922510431	 4.1874189801	 5.4156764951	-0.427619
H	-0.9030931449	 1.6750727628	 0.219963659	 0.067391
H	 2.1331968056	 1.4173914332	-0.4102282776	 0.108818
H	 2.0189039203	 3.9365297538	-0.5710098021	 0.129717
H	 0.2487880811	 3.88929513	-0.1330267149	 0.125141
H	 2.5814307955	 2.7559805702	 1.5653881511	 0.101174
H	-0.4591644487	 2.8662453316	 2.1103275011	 0.116046
H	 0.6696425895	 1.9140231054	 3.0589599182	 0.122735
H	 1.9017482677	 4.0172687609	 3.6898039855	 0.131267
H	 0.7784460897	 4.9635135919	 2.7318936798	 0.134945
H	-1.4533626293	 4.2395098552	 6.2448747523	 0.196443
66.2888	68.2187	84.0276	128.4788	205.6724	247.8005	290.976	346.1662	401.2185	411.8737	513.9642	540.8824	621.695	642.6241	767.9747	808.2562	844.5435	871.8501	920.0564	963.8495	969.6553	1031.2868	1045.2232	1050.0286	1075.5033	1131.6607	1144.304	1192.3815	1219.5209	1235.5133	1284.8942	1314.7931	1344.2387	1370.3983	1416.5233	1450.6807	1474.1619	1487.3777	1497.9779	1816.1498	2240.3741	2864.9199	3018.1507	3045.7699	3051.7277	3094.0095	3127.8106	3132.7721	3176.9216	3218.5888	3506.9362
O=CC1CC1CCC#C	O=C[C@H]1C[C@H]1CCC#C	
InChI=1S/C8H10O/c1-2-3-4-7-5-8(7)6-9/h1,6-8H,3-5H2	InChI=1S/C8H10O/c1-2-3-4-7-5-8(7)6-9/h1,6-8H,3-5H2/t7-,8-/m1/s1
