16
gdb 45769	3.04797	1.23098	0.95305	2.9673	77.11	-0.2154	-0.0045	0.2109	1211.7332	0.123457	-400.75474	-400.746321	-400.745377	-400.788615	30.988	
O	-0.1341994465	 0.0067657592	-0.4872872726	-0.382706
C	-0.121657446	 1.1865607795	-0.213477776	 0.416013
C	-1.2937877459	 2.174838669	-0.1398324961	-0.392795
C	-0.6364189527	 3.4763408508	 0.2369484545	-0.15573
C	 0.6769576246	 3.2660919662	 0.3603577199	-0.005267
N	 1.0111219431	 1.9254242626	 0.0987204361	-0.082579
C	 2.341516839	 1.345426693	 0.1240836204	-0.322032
C	 3.0403182997	 1.5595118395	 1.389267415	 0.299901
C	 3.6224239297	 1.7592245634	 2.4207915413	-0.445054
H	-1.8095769132	 2.1995253614	-1.1066800025	 0.147558
H	-2.0251421035	 1.8191465533	 0.5952354088	 0.14899
H	-1.14646537	 4.4145469728	 0.3896652463	 0.111035
H	 1.4643735337	 3.9541214033	 0.6325715765	 0.137155
H	 2.1963169064	 0.2764162477	-0.0673466018	 0.177123
H	 2.9481965057	 1.7431146123	-0.7013955319	 0.142398
H	 4.1352938158	 1.9189337961	 3.3370537923	 0.205988
41.3328	84.1141	170.4182	215.0165	271.9544	329.4139	411.9202	436.9565	548.1956	586.4387	623.6408	663.3158	675.1259	694.7145	750.8459	863.1265	909.8397	931.6938	950.9815	969.0512	977.9882	1047.7625	1146.951	1147.6298	1200.422	1251.9238	1291.651	1339.1089	1380.4984	1423.5798	1434.8149	1479.2636	1669.5506	1815.3111	2243.0218	3007.408	3045.8564	3076.012	3077.5394	3238.9122	3263.3913	3504.522
O=C1CC=CN1CC#C	O=C1CC=CN1CC#C	
InChI=1S/C7H7NO/c1-2-5-8-6-3-4-7(8)9/h1,3,6H,4-5H2	InChI=1S/C7H7NO/c1-2-5-8-6-3-4-7(8)9/h1,3,6H,4-5H2
