12
gdb 132837	3.05553	1.55256	1.02947	1.7909	72.8	-0.2626	-0.064	0.1987	1037.2989	0.078004	-439.657878	-439.650896	-439.649952	-439.68951	25.987	
F	-0.0218577989	 0.0622835774	 0.0046666047	-0.033197
C	-0.0256907127	 1.3810714079	 0.0110868289	 0.294139
N	-1.1957149411	 1.9701219845	 0.0293019169	-0.302444
C	-1.1769749048	 3.3070684518	 0.0355197237	 0.082078
N	-0.0987955884	 4.0874464954	 0.0251327245	-0.249755
C	 1.0760436857	 3.4579798708	 0.0066619629	-0.032283
C	 1.2016441692	 2.0630078325	-0.001732894	-0.079242
C	 2.4530338842	 1.3984706128	-0.0213875451	 0.229156
C	 3.5255998207	 0.8532543345	-0.0380927884	-0.390275
H	-2.143901253	 3.8018246409	 0.0506091128	 0.137404
H	 1.9712022572	 4.0735236082	-0.0021176465	 0.138019
H	 4.4679900116	 0.3631229732	-0.0527664791	 0.206401
124.213	137.2598	228.0719	366.5534	388.5868	475.7695	505.4815	583.0525	596.2572	606.5929	621.0307	665.2099	761.2045	809.6161	901.9944	962.9102	1011.4691	1150.824	1207.6706	1261.3049	1307.0864	1344.7861	1431.7784	1492.0382	1575.5277	1630.142	2234.7132	3177.0191	3182.7948	3499.0413
FC1=NC=NC=C1C#C	Fc1ncncc1C#C	
InChI=1S/C6H3FN2/c1-2-5-3-8-4-9-6(5)7/h1,3-4H	InChI=1S/C6H3FN2/c1-2-5-3-8-4-9-6(5)7/h1,3-4H
