15
gdb 8640	2.45697	1.81323	1.42533	5.0227	65.77	-0.2665	-0.0192	0.2473	943.4428	0.117318	-358.844783	-358.835863	-358.834919	-358.878055	31.255	
C	-0.0889556136	 1.4767833038	 0.097140514	-0.343416
N	-0.0130610323	 0.0227380814	-0.0331699071	-0.299147
C	 0.7156715512	-0.4849106366	-1.2004777121	-0.051397
C	 2.2028772018	-0.0460052499	-1.32369881	-0.410542
C	 0.6724006119	-1.9634434666	-1.1286519158	 0.306242
N	 0.6892804282	-3.1137161556	-1.0351930921	-0.317063
C	-0.0039672605	-0.0579259225	-2.4253766713	 0.3333
N	-0.5296809827	 0.3146999749	-3.3830640523	-0.325161
H	 0.8803946309	 1.9848898499	 0.2108707563	 0.112732
H	-0.5961021707	 1.8933895947	-0.7778414074	 0.159244
H	-0.6986965194	 1.7043083848	 0.9746217781	 0.142072
H	 0.3793859431	-0.4004974965	 0.8006629968	 0.242529
H	 2.7452862057	-0.3654984809	-0.4303085905	 0.141156
H	 2.6679152835	-0.499569171	-2.2017187627	 0.159513
H	 2.2634626828	 1.0394794202	-1.4173775539	 0.149938
89.4945	134.1408	157.2981	186.1934	223.676	231.6941	272.9577	330.7084	404.8552	493.2122	534.6553	573.4194	591.1721	667.8172	719.2393	912.2	938.2209	1034.1582	1097.3621	1127.44	1155.433	1200.7425	1255.2995	1401.4695	1456.8064	1471.6576	1480.9107	1493.8554	1504.9452	1522.6895	2367.2079	2372.3445	2991.0977	3056.9952	3087.0539	3127.8859	3139.6615	3151.0657	3539.4219
CNC(C)(C#N)C#N	CNC(C)(C#N)C#N	
InChI=1S/C5H7N3/c1-5(3-6,4-7)8-2/h8H,1-2H3	InChI=1S/C5H7N3/c1-5(3-6,4-7)8-2/h8H,1-2H3
