17
gdb 47646	2.32128	1.84073	1.28609	1.8005	69.87	-0.2638	-0.0107	0.253	1001.3998	0.137605	-455.142205	-455.134494	-455.13355	-455.174499	29.367	
N	-0.000525791	 1.3427362791	-0.1932361199	-0.468568
C	-0.0227028265	 0.0915927106	-0.0324150513	 0.369986
C	-1.297925851	-0.7014161929	 0.0779099627	-0.251069
C	-1.2228550615	-1.7632484623	 1.1884249422	-0.170546
N	-0.9660061063	-1.1481337868	 2.4872829548	-0.194539
C	 0.2179278517	-1.0107022425	 2.8891315657	 0.09368
O	 1.3716233735	-1.4387574849	 2.2528660963	-0.225542
C	 1.8779598768	-0.6326990857	 1.2083273627	-0.000316
O	 1.1152959955	-0.7101679598	 0.0270907756	-0.244588
H	 0.9591681003	 1.6845327429	-0.2813350616	 0.223824
H	-2.118240192	-0.0006373816	 0.2440310776	 0.142088
H	-1.4798485686	-1.2143902329	-0.8749575549	 0.129328
H	-2.1873241096	-2.2751482542	 1.2477030156	 0.113144
H	-0.4514267502	-2.4966848807	 0.928853985	 0.121441
H	 0.4195953783	-0.5694276095	 3.8659169852	 0.123608
H	 1.9555351066	 0.4119382365	 1.5398731907	 0.103379
H	 2.8598458439	-1.0425791154	 0.9717511936	 0.134689
86.3818	156.5918	223.2629	254.6711	312.7034	323.7244	412.7935	541.7831	555.7597	576.9019	661.9733	703.117	793.6001	850.2696	916.8185	938.1944	940.0615	980.7643	996.724	1045.2317	1050.3186	1092.125	1129.547	1182.1862	1218.9054	1262.5827	1304.077	1324.4218	1356.7332	1379.9356	1398.0906	1443.2402	1457.7655	1498.2841	1504.6541	1736.8909	1751.9462	3011.047	3037.3651	3045.1671	3091.7115	3125.3965	3131.1755	3138.9336	3457.7484
N=C1CCN=COCO1	[NH][C]1CCN=COCO1	
InChI=1S/C5H8N2O2/c6-5-1-2-7-3-8-4-9-5/h3,6H,1-2,4H2/b6-5?,7-3-	InChI=1S/C5H8N2O2/c6-5-1-2-7-3-8-4-9-5/h3,6H,1-2,4H2/b6-5?,7-3-
