12
gdb 46171	1.93148	1.66671	1.31681	4.3554	64.91	-0.3146	-0.0345	0.2801	1003.2393	0.077326	-431.664928	-431.657017	-431.656073	-431.697867	27.697	
N	-0.0310385865	 1.1948411109	-0.3021209388	-0.505715
C	 0.0203916787	-0.0081288464	 0.0024724227	 0.445992
O	 1.0144021633	-0.8282256853	 0.4698424142	-0.236403
C	 0.1469195839	-1.9925187791	 0.5161738615	-0.101529
C	-1.0503833811	-1.1324176533	-0.0158824899	-0.144397
C	-2.1449225626	-0.9422384004	 0.9306227065	 0.281893
N	-2.9852060048	-0.8039252105	 1.7098630557	-0.304163
C	-1.5281264356	-1.4925536866	-1.3470879294	 0.281891
N	-1.870612877	-1.7983891594	-2.4061392898	-0.304163
H	 0.8577075956	 1.6805589089	-0.1787725463	 0.257451
H	 0.48323619	-2.774374097	-0.1650958783	 0.16457
H	 0.0231729162	-2.3640020718	 1.5336314618	 0.164572
102.1038	128.4507	130.26	166.4545	247.6823	385.1174	417.396	494.312	554.4798	587.1568	612.5533	675.6036	765.6968	855.6658	941.4059	945.4413	978.959	1014.6425	1147.3476	1154.1653	1196.2803	1222.3473	1352.7934	1510.9587	1848.3958	2370.8171	2375.1142	3091.404	3165.8555	3503.305
N=C1OCC1(C#N)C#N	[NH][C]1OCC1(C#N)C#N	
InChI=1S/C5H3N3O/c6-1-5(2-7)3-9-4(5)8/h8H,3H2	InChI=1S/C5H3N3O/c6-1-5(2-7)3-9-4(5)8/h8H,3H2
