15
gdb 28777	3.40495	1.73144	1.15606	4.335	72.71	-0.2106	0.0043	0.2149	998.7732	0.115147	-416.849115	-416.842195	-416.84125	-416.880391	26.631	
C	-0.0186066664	 1.5268059961	 0.0463107358	-0.499778
C	-0.0100303104	 0.040158551	-0.0155724126	 0.236541
C	-0.0322011097	-0.8544273036	-1.0637987621	-0.161191
N	-0.0116552116	-2.1836407899	-0.6570247129	-0.39907
C	 0.0229683166	-2.0674747856	 0.6358458819	 0.486372
O	 0.0574418964	-2.9355683972	 1.6731201402	-0.21612
C	 0.0829375732	-2.151670644	 2.8092881319	-0.046972
C	 0.0651917103	-0.8388824403	 2.4980933153	-0.143571
N	 0.0267274979	-0.7824342149	 1.1065750513	-0.086726
H	 0.8784134773	 1.9294326236	 0.5337238742	 0.129032
H	-0.0529104042	 1.931929014	-0.9678741471	 0.143369
H	-0.8894332336	 1.9167704474	 0.588415031	 0.128949
H	-0.0627853152	-0.6056545665	-2.1143976313	 0.110673
H	 0.1122855929	-2.6761042626	 3.7475884434	 0.159
H	 0.0765522164	 0.0274047926	 3.1357241311	 0.159494
152.57	182.7511	219.4892	240.7088	368.0666	544.0414	581.2034	617.4912	621.6392	704.3887	723.9392	749.2777	779.0531	799.7452	832.9743	933.4204	1003.3799	1045.9224	1067.272	1095.2903	1165.484	1187.7195	1218.2461	1278.717	1296.2636	1409.9086	1421.4464	1453.4142	1477.7282	1497.6512	1577.727	1598.6702	1652.7557	3014.6099	3058.1002	3121.304	3245.0543	3290.7763	3315.347
CC1=CN=C2OC=CN12	Cc1cnc2occn12	
InChI=1S/C6H6N2O/c1-5-4-7-6-8(5)2-3-9-6/h2-4H,1H3	InChI=1S/C6H6N2O/c1-5-4-7-6-8(5)2-3-9-6/h2-4H,1H3
