15
gdb 12999	2.86145	2.5659	1.6024	1.7747	61.16	-0.217	-0.026	0.191	793.0197	0.119401	-399.791884	-399.784865	-399.783921	-399.82288	27.074	
O	 0.1855059264	 1.3445951479	-0.3624867828	-0.473656
C	-0.0119850258	 0.0096612995	-0.0677323937	 0.323797
C	-0.454916658	-0.9775947099	-1.1428402212	-0.341587
C	-1.3420622195	-0.7349355459	 0.0372285354	-0.076448
N	-1.2896100514	-1.7479702057	 1.0884161984	-0.299841
C	 0.1155763589	-1.8247072566	 1.5412425341	-0.300236
C	 0.8166852589	-0.563522627	 1.0215302191	 0.331889
O	 1.8144016613	-0.0332841694	 1.4562920267	-0.348659
H	 1.0094275262	 1.5830285943	 0.090389955	 0.295063
H	-0.7498288828	-0.4898996865	-2.065518751	 0.138433
H	 0.0462009875	-1.9328545694	-1.2657190573	 0.123229
H	-2.2940617847	-0.2374914647	-0.1019835885	 0.114375
H	-1.8589785631	-1.4279092478	 1.8646014391	 0.230818
H	 0.1903555016	-1.8808372044	 2.6289889	 0.141016
H	 0.6171804645	-2.7144060542	 1.1381354267	 0.141808
110.0554	195.5753	281.7263	318.7528	333.1124	437.3781	469.4631	535.8829	609.3076	661.7384	698.2237	801.6066	835.1566	883.5776	906.8194	969.1999	977.1967	1028.7913	1048.2791	1078.5308	1087.7112	1146.2652	1201.0297	1210.4962	1285.6797	1340.1487	1401.2701	1413.5326	1447.9209	1471.7789	1494.2121	1816.0883	3026.4382	3113.5039	3125.8017	3193.8803	3222.7877	3524.4609	3707.4363
OC12CC1NCC2=O	O[C@]12C[C@H]1NCC2=O	
InChI=1S/C5H7NO2/c7-4-2-6-3-1-5(3,4)8/h3,6,8H,1-2H2	InChI=1S/C5H7NO2/c7-4-2-6-3-1-5(3,4)8/h3,6,8H,1-2H2/t3-,5-/m1/s1
