20
gdb 88003	2.87745	1.31131	1.13883	1.8017	79.8	-0.225	0.0669	0.2919	1175.7836	0.170003	-403.083821	-403.075029	-403.074085	-403.11733	33.433	
C	-0.1138371489	 1.4480094729	-0.066112672	-0.403133
C	 0.0769531246	-0.0520108744	-0.0402362761	-0.080018
C	 1.4788477191	-0.6531351766	-0.0677754374	-0.373487
C	 0.6492645041	-0.7113298618	 1.1753731885	 0.402902
O	 0.9890936687	 0.0328216726	 2.3488842451	-0.323445
C	 0.5389516513	-1.0424001753	 3.2148244135	-0.131964
C	 0.1785482138	-1.8880104753	 1.9982655967	 0.195457
C	-0.9008226745	-2.8580868593	 1.7393427871	-0.307396
N	 0.5103736252	-3.294098816	 1.8410870769	-0.356719
H	 0.6312714588	 1.9445768925	 0.5611164221	 0.13516
H	-0.0249810178	 1.8412569671	-1.08435958	 0.115296
H	-1.1016501024	 1.7242632146	 0.3177325604	 0.119051
H	-0.6853526194	-0.6233144334	-0.5669267891	 0.082254
H	 1.650540085	-1.5648228288	-0.6334314971	 0.105184
H	 2.3190938982	 0.0343178768	-0.054584255	 0.125763
H	 1.3514507771	-1.4441521037	 3.8294726484	 0.116789
H	-0.2952713977	-0.7270446381	 3.8518545865	 0.107874
H	-1.542037728	-3.1971915501	 2.5488069064	 0.12302
H	-1.3778353314	-2.8403270021	 0.7619359595	 0.115029
H	 0.9005454842	-3.4641674817	 0.9161401755	 0.232383
74.3317	126.4581	157.4212	179.3269	235.7834	280.2016	333.4185	416.6546	446.0719	546.1582	562.1536	608.9656	797.2681	824.1905	865.4858	884.2372	889.8854	918.6913	942.8808	979.9894	988.1121	1005.779	1035.678	1048.9464	1091.1473	1102.4428	1119.8305	1134.2379	1148.2424	1173.681	1191.3344	1257.308	1268.8169	1303.1086	1331.4189	1399.4571	1415.5868	1449.1179	1483.2849	1491.7057	1502.2386	1516.4436	1530.3711	3028.2275	3034.152	3081.428	3094.3843	3100.4459	3109.541	3114.726	3126.8409	3184.8102	3204.5421	3485.6163
CC1CC11OCC11CN1	C[C@H]1C[C@]21OC[C@]12CN1	
InChI=1S/C7H11NO/c1-5-2-7(5)6(3-8-6)4-9-7/h5,8H,2-4H2,1H3	InChI=1S/C7H11NO/c1-5-2-7(5)6(3-8-6)4-9-7/h5,8H,2-4H2,1H3/t5-,6-,7+/m0/s1
