17
gdb 39855	3.15116	1.87811	1.52028	0.4651	70.86	-0.2399	0.0602	0.3001	894.7222	0.137302	-421.745917	-421.739562	-421.738618	-421.776451	26.646	
C	-0.0278974642	 1.4544453297	-0.0138750241	-0.340376
C	 1.2795719614	 0.6895478684	 0.0064758216	-0.34038
C	-0.0251122878	-0.0407142541	-0.0041370565	 0.486782
C	-0.51740409	-0.958293149	 1.1041508791	-0.093654
O	 0.2657530617	-2.1670156461	 0.8493957136	-0.288792
C	-0.5457893922	-2.3147214019	-0.3135405895	 0.061368
C	-1.7523413868	-1.6090632458	 0.3039368245	 0.061367
O	-2.0209042069	-0.8286489867	-0.8586753359	-0.288791
C	-0.5834080567	-0.9189067129	-1.113045428	-0.093676
H	-0.3308648562	 1.9701601126	 0.891744798	 0.116115
H	-0.3196170577	 1.9593294386	-0.9287063876	 0.119848
H	 1.8778852078	 0.6787303134	-0.8989543027	 0.116115
H	 1.8623346222	 0.6821144364	 0.9214932683	 0.119849
H	-0.5262790316	-0.6381710961	 2.1442822301	 0.084428
H	-0.4955434816	-3.2728461857	-0.8270595255	 0.097686
H	-2.6123270322	-2.0350315129	 0.816972024	 0.097685
H	-0.2996948093	-0.7692505178	-2.1530163395	 0.084428
150.9706	239.1722	271.5416	449.0565	494.673	589.2547	596.9378	730.4988	747.9283	780.2807	790.8003	846.8908	868.2702	870.742	916.5889	932.9659	961.1953	974.9828	988.0537	1004.1784	1034.5157	1057.1101	1067.8283	1080.8842	1105.7857	1146.2189	1166.8255	1180.5451	1192.7439	1215.8325	1244.0717	1265.2609	1306.019	1334.4746	1415.9913	1470.391	1514.1701	3128.0819	3131.0735	3138.0073	3142.8839	3146.4605	3155.1244	3204.8458	3218.5381
C1CC11C2OC3C2OC13	C1CC21[C@@H]1O[C@H]3[C@@H]1O[C@@H]23	
InChI=1S/C7H8O2/c1-2-7(1)5-3-4(9-5)6(7)8-3/h3-6H,1-2H2	InChI=1S/C7H8O2/c1-2-7(1)5-3-4(9-5)6(7)8-3/h3-6H,1-2H2/t3-,4-,5+,6+/m0/s1
