17
gdb 111672	2.4373	1.74004	1.31943	4.3303	68.69	-0.2595	0.0153	0.2748	995.9677	0.137925	-455.124406	-455.116718	-455.115773	-455.156767	29.274	
O	-0.03355546	 1.2034081678	 0.7112095357	-0.424163
C	 0.0358001151	 0.0405705912	-0.0873342353	-0.088107
C	-1.3196677678	-0.6293209495	-0.190657206	-0.03641
C	-1.5655739417	-2.0969886597	-0.1802797822	-0.07478
C	-0.4767494662	-3.0683100048	 0.2471399458	-0.124329
O	-0.1390124617	-2.66997707	 1.5845682202	-0.237918
C	-0.9092245038	-1.6079836636	 1.972707224	 0.41846
N	-0.7515438689	-0.9452220608	 3.0368038647	-0.546316
N	-1.9072709899	-1.3016256183	 1.0103040072	-0.138813
H	-0.2836700233	 0.9228361205	 1.6035077476	 0.304094
H	 0.3465177911	 0.3634052862	-1.0868920203	 0.11273
H	 0.8004765271	-0.6600308194	 0.2778582315	 0.104924
H	-2.0642781215	-0.0165154497	-0.6927814365	 0.119546
H	-2.4004866293	-2.5008216187	-0.7445109333	 0.115654
H	-0.8564814808	-4.0945879765	 0.2670471864	 0.132235
H	 0.4294835396	-3.0396308904	-0.3656535686	 0.130416
H	 0.0254686121	-1.3233451443	 3.5774444191	 0.232778
105.3887	129.4244	171.9593	221.5116	283.4273	458.5217	480.9129	513.3829	523.8634	687.9324	715.1881	754.9694	792.7953	835.8452	870.1281	875.7795	954.3977	987.4776	1006.2291	1022.1935	1071.8449	1078.3466	1108.7966	1136.7971	1152.0755	1222.7122	1237.7838	1252.6643	1316.6619	1353.5589	1379.4426	1407.3733	1440.7668	1450.9505	1502.4818	1525.096	1761.6719	3000.9647	3049.4916	3069.7757	3090.7304	3144.3986	3160.8532	3505.8861	3729.4786
OCC1C2COC(=N)N12	OC[C@H]1[C@H]2CO[C]([NH])N12	
InChI=1S/C5H8N2O2/c6-5-7-3(1-8)4(7)2-9-5/h3-4,6,8H,1-2H2	InChI=1S/C5H8N2O2/c6-5-7-3(1-8)4(7)2-9-5/h3-4,6,8H,1-2H2/t3-,4+,7?/m0/s1
