17
gdb 48090	3.6345	1.14549	1.00509	1.8722	74.69	-0.24	-0.0905	0.1494	1193.5199	0.135214	-421.812912	-421.804788	-421.803844	-421.846382	29.958	
O	-0.8242379557	 1.3523001488	-0.2919711783	-0.221999
C	 0.2219163195	 0.9197880053	 0.1139707506	 0.099683
C	 1.5083970814	 1.751325549	 0.274216789	 0.273791
O	 2.4840658438	 1.1630634819	 0.6991443307	-0.313275
C	 1.4123315281	 3.1724351342	-0.1069685291	-0.124021
C	 2.1085177134	 4.3260519346	 0.6121266606	-0.07384
C	 3.4991087291	 3.9396905455	 1.1332963415	-0.224907
C	 3.9163137292	 3.5754747214	-0.3289143898	-0.22488
C	 2.511661416	 3.9741312213	-0.8008658962	-0.073842
H	 0.3709319887	-0.1378764143	 0.4196274594	 0.10567
H	 0.4197252618	 3.4373853862	-0.4561848018	 0.11986
H	 1.4973587791	 5.1467881048	 0.9690132165	 0.099265
H	 4.0404385069	 4.8092517421	 1.5124375816	 0.105843
H	 3.5422940698	 3.1378589859	 1.8709659881	 0.12377
H	 4.6777981462	 4.2528859583	-0.7215850167	 0.105841
H	 4.2219173205	 2.5446792364	-0.5106120397	 0.123767
H	 2.2678096223	 4.4742778386	-1.7308430464	 0.099273
44.3962	128.2213	173.2334	192.964	229.7561	327.0358	383.0849	541.2031	600.4385	625.9268	728.7906	772.073	780.4598	794.5421	871.248	934.7773	937.2704	963.8005	992.0083	1021.6775	1032.901	1088.5584	1108.3606	1122.0843	1149.8315	1189.7416	1218.8784	1241.8275	1258.5299	1307.3861	1343.9965	1362.178	1445.3952	1471.2103	1493.2892	1772.8264	1824.4568	2920.3971	3073.3359	3080.2551	3127.4839	3140.653	3172.4502	3174.3344	3188.8946
O=CC(=O)C1C2CCC12	O=CC(=O)[C@H]1[C@H]2CC[C@@H]12	
InChI=1S/C7H8O2/c8-3-6(9)7-4-1-2-5(4)7/h3-5,7H,1-2H2	InChI=1S/C7H8O2/c8-3-6(9)7-4-1-2-5(4)7/h3-5,7H,1-2H2/t4-,5+,7-
