23
gdb 122231	2.55468	0.79262	0.6811	0.2948	82.6	-0.26	0.0727	0.3327	1732.2726	0.203906	-425.402629	-425.391705	-425.390761	-425.439776	39.226	
O	 0.3670778457	-3.5860742185	 3.5936079637	-0.423565
C	 0.2732677229	-3.0403780705	 2.285094003	-0.074756
C	-1.1745221927	-3.1564670215	 1.8279861101	-0.168799
C	-1.3989593679	-2.5704309754	 0.4282240571	-0.276669
C	-2.8153586604	-2.742807954	-0.102438474	 0.393557
C	-3.8962732557	-2.0126341856	 0.6617029145	-0.150994
O	-3.6113176727	-0.6184873522	 0.6238209256	-0.423892
C	-3.002224443	-2.8567565196	-1.5958326799	-0.309249
C	-3.1977507962	-4.0684985894	-0.717213248	-0.313936
H	 1.2796260531	-3.5081415102	 3.8862429764	 0.283553
H	 0.5836297571	-1.9824625265	 2.2720348055	 0.084499
H	 0.930385577	-3.5789004094	 1.5818634286	 0.080663
H	-1.4635691202	-4.2142135926	 1.8484769819	 0.102843
H	-1.8024030484	-2.6444008998	 2.56591199	 0.107142
H	-1.1582741882	-1.5009223916	 0.4345077894	 0.114992
H	-0.703134962	-3.0447284391	-0.2760844503	 0.084681
H	-4.8748396224	-2.2295062021	 0.2040041529	 0.077791
H	-3.9364406541	-2.3745602655	 1.7007830313	 0.089799
H	-4.2120089522	-0.1738643468	 1.2287899775	 0.286121
H	-3.8798211861	-2.3962584756	-2.0368509272	 0.11182
H	-2.118685437	-2.817209325	-2.223975569	 0.108192
H	-2.4430375279	-4.8475868953	-0.7437045011	 0.109284
H	-4.2073289085	-4.4387365141	-0.570206248	 0.106922
36.4506	66.3643	98.0436	126.726	148.2549	228.5361	238.4318	266.2384	287.0233	318.287	339.506	407.2923	478.0596	544.8556	737.8702	759.9324	781.9824	856.8658	906.5958	934.1868	940.9664	969.0697	1018.5818	1047.1485	1049.8408	1061.2155	1069.4591	1078.861	1086.0337	1117.5285	1185.3032	1210.1639	1231.6834	1243.991	1246.7938	1291.9379	1306.8083	1316.7868	1347.3739	1362.8682	1397.9999	1460.9861	1463.471	1468.1457	1482.5355	1498.2716	1505.2539	1520.0179	1528.0953	2955.8819	2966.3771	2981.0737	2996.4757	3018.6402	3035.281	3059.1985	3084.0824	3125.6352	3131.7472	3202.9155	3218.1276	3830.0912	3830.3265
OCCCC1(CO)CC1	OCCCC1(CO)CC1	
InChI=1S/C7H14O2/c8-5-1-2-7(6-9)3-4-7/h8-9H,1-6H2	InChI=1S/C7H14O2/c8-5-1-2-7(6-9)3-4-7/h8-9H,1-6H2
