21
gdb 95353	2.96405	1.31941	1.0531	1.8324	77.66	-0.2435	0.0726	0.3161	1185.7826	0.184878	-424.221882	-424.213764	-424.21282	-424.254517	32.018	
O	 0.0267963837	 1.4327815995	-0.1968467605	-0.441995
C	 0.0398206757	 0.0200459238	-0.0383019278	 0.136382
C	 0.8077333313	-0.4206138979	 1.2124964642	-0.225942
C	 0.8551952034	-1.9502827355	 1.3030050303	-0.246823
C	-0.5124194758	-2.5959885404	 1.1661795432	 0.162839
O	-1.3549421916	-2.4731974001	 2.3397075293	-0.296683
C	-2.5092051103	-2.2686345655	 1.4964795694	-0.083264
C	-1.6065257505	-1.9252908791	 0.2917479973	-0.081339
C	-1.4224634641	-0.4119990651	 0.066828283	-0.207157
H	 0.9391901249	 1.7394621836	-0.198147024	 0.277776
H	 0.5017068345	-0.4553968016	-0.9228870179	 0.055901
H	 1.8287275977	-0.0186522043	 1.1884331007	 0.078307
H	 0.3131659783	 0.0031174725	 2.0940562545	 0.115456
H	 1.4935035438	-2.3442425095	 0.5007385443	 0.097372
H	 1.3039157823	-2.2766395623	 2.2481764323	 0.112363
H	-0.3947937619	-3.660849826	 0.9115790764	 0.063173
H	-3.0874376912	-3.1957704054	 1.3741938171	 0.091651
H	-3.1660337669	-1.4791278406	 1.8772575352	 0.104645
H	-1.8323791673	-2.4428142728	-0.6432192854	 0.072241
H	-1.8489875692	 0.148493064	 0.9069752018	 0.11155
H	-1.9629162869	-0.0892937172	-0.8281687933	 0.103546
100.9426	118.2639	215.4747	282.1038	317.0032	326.1757	394.185	436.7167	463.7912	493.2055	639.0277	759.8139	785.533	836.3125	868.1554	902.2806	917.7867	954.9099	976.4301	1000.6311	1044.7862	1060.3079	1088.754	1104.9018	1120.1269	1140.983	1152.3448	1188.6006	1221.1749	1229.7447	1252.3338	1292.0639	1301.0631	1329.1042	1335.8363	1361.9888	1364.8947	1384.2689	1399.6892	1402.0223	1435.835	1466.8464	1483.5075	1503.4065	1524.4183	2931.2359	2971.5706	2998.1229	3018.9925	3025.6924	3039.0582	3065.1034	3065.4654	3073.0628	3077.8504	3093.3945	3814.8873
OC1CCC2OCC2C1	O[C@H]1CC[C@H]2OC[C@H]2C1	
InChI=1S/C7H12O2/c8-6-1-2-7-5(3-6)4-9-7/h5-8H,1-4H2	InChI=1S/C7H12O2/c8-6-1-2-7-5(3-6)4-9-7/h5-8H,1-4H2/t5-,6+,7-/m1/s1
