19
gdb 39920	3.21124	1.58578	1.38547	1.9065	80.6	-0.2362	0.0037	0.2399	994.4194	0.161651	-385.86571	-385.858809	-385.857865	-385.896681	28.979	
C	 0.0098045975	 1.5063300787	 0.0110042261	-0.26015
O	 1.2004391328	 0.7207773646	-0.0028919318	-0.297785
C	-0.0707530426	 0.0360630019	 0.0014316894	 0.460793
C	-0.3993140792	-0.7279080971	 1.2361077591	-0.133924
C	-0.9568565535	-1.9329219806	 1.0930397478	-0.081097
C	-1.2097345739	-2.4434134123	-0.3103263199	-0.065794
C	 0.0757106042	-2.1864220986	-1.1600519163	-0.227137
C	-0.4258660578	-0.7163212494	-1.2710727638	-0.101725
C	-1.8682622969	-1.2936675701	-1.1387949534	-0.229757
H	-0.1802395107	 2.0551722354	 0.9332974822	 0.110076
H	-0.2023327007	 2.0578903668	-0.9052419235	 0.10999
H	-0.1639531418	-0.2847796136	 2.198048076	 0.095122
H	-1.2277292218	-2.5454355589	 1.9469992388	 0.094629
H	-1.6659357802	-3.4338682634	-0.3281404973	 0.062137
H	 1.0429680953	-2.3668940522	-0.686738707	 0.107948
H	 0.0294591849	-2.6917878305	-2.1281674721	 0.09627
H	-0.1618283648	-0.1343474545	-2.1561782815	 0.064813
H	-2.2422071128	-1.6449121319	-2.1043160103	 0.097612
H	-2.6284582279	-0.6857418141	-0.6425195424	 0.09798
122.6245	256.095	323.2037	375.0565	408.6728	424.4152	447.5379	615.8227	623.8835	712.7208	751.8396	813.2619	844.5308	857.9305	894.9477	900.7497	929.3514	942.9199	968.7263	979.0296	1016.4847	1032.3819	1087.9467	1096.6598	1108.2978	1127.8868	1135.3081	1154.5586	1177.7705	1243.3143	1254.0344	1258.7573	1282.2986	1308.3092	1344.4711	1373.203	1435.7494	1475.2231	1504.4135	1524.9886	1687.2973	3054.0597	3060.5062	3069.8926	3090.0571	3099.2496	3115.1621	3123.2286	3155.2981	3171.8225	3194.5166
C1OC11C=CC2CC1C2	C1O[C@]21C=C[C@@H]1C[C@H]2C1	
InChI=1S/C8H10O/c1-2-8(5-9-8)7-3-6(1)4-7/h1-2,6-7H,3-5H2	InChI=1S/C8H10O/c1-2-8(5-9-8)7-3-6(1)4-7/h1-2,6-7H,3-5H2/t6-,7+,8-/m0/s1
