18
gdb 95390	2.2705	1.71915	1.0138	4.7673	77.16	-0.2157	-0.0371	0.1786	1150.9838	0.148724	-439.128765	-439.120209	-439.119264	-439.161737	32.445	
C	-0.1333423538	 1.522430103	 0.0071218733	-0.483378
C	-0.0280840932	 0.0216524485	 0.0076630282	 0.158562
C	-0.1015295926	-0.7268685199	-1.129026981	-0.046442
N	 0.0329020151	-2.082841223	-1.1813675209	-0.303723
C	 0.6232955462	-2.7685340253	-0.0359756831	-0.198855
C	-0.0011323785	-2.203782344	 1.2368881985	 0.047423
O	 0.5808714971	-2.7732377136	 2.3728170434	-0.439687
C	 0.1548696187	-0.6739364215	 1.2665107642	 0.272793
O	 0.3788701698	-0.1367270321	 2.3451507272	-0.382373
H	 0.7715808999	 1.9799403247	 0.4208663582	 0.138342
H	-0.2807170481	 1.9105575127	-1.0050086879	 0.108997
H	-0.9664473229	 1.8648704945	 0.6308711417	 0.132841
H	-0.2877773811	-0.2508989366	-2.0885865111	 0.117914
H	 0.2031781073	-2.4834820234	-2.0894404265	 0.254526
H	 0.4346173248	-3.8419051103	-0.1138192457	 0.124827
H	 1.7132199652	-2.610146446	 0.0042466449	 0.114562
H	-1.0893560293	-2.4038514903	 1.2013830428	 0.0913
H	 0.7055503454	-2.0191267072	 2.975737024	 0.292372
105.845	126.3825	181.2947	254.2588	270.3933	325.5317	358.4407	432.0307	435.9171	460.0717	525.3237	545.3981	585.2831	653.7008	763.8756	844.5726	935.8168	952.0027	981.9043	1043.165	1070.4192	1079.8439	1091.7505	1175.1651	1210.628	1244.4103	1266.8684	1295.69	1326.4498	1374.1115	1418.7883	1424.3862	1453.6926	1472.6605	1495.8299	1499.3552	1524.8256	1674.4729	1733.2547	2921.202	2982.8517	3031.2538	3085.1941	3098.684	3108.7067	3165.578	3635.2958	3639.5743
CC1=CNCC(O)C1=O	CC1=CNC[C@@H](O)C1=O	
InChI=1S/C6H9NO2/c1-4-2-7-3-5(8)6(4)9/h2,5,7-8H,3H2,1H3	InChI=1S/C6H9NO2/c1-4-2-7-3-5(8)6(4)9/h2,5,7-8H,3H2,1H3/t5-/m1/s1
