21
gdb 110378	3.61048	1.06339	1.01427	1.3356	82.05	-0.2326	0.0753	0.3079	1277.9489	0.183538	-387.026507	-387.018304	-387.017359	-387.059319	32.457	
O	-0.1068720116	 1.2636715349	-0.5539465151	-0.421796
C	-0.0761612037	-0.0056787892	 0.087297922	-0.118493
C	-1.4614999973	-0.5973891976	 0.0339263648	-0.002497
C	-1.8398488328	-1.2994893297	-1.2403974575	-0.052955
C	-1.5502872753	-2.0988391728	 0.0403729444	-0.088221
C	-3.0097937084	-2.6100799631	 0.062338654	-0.025654
C	-4.101854686	-1.793891184	 0.8194324605	-0.242094
C	-4.3939776753	-0.9812143596	-0.4869061323	-0.241992
C	-3.3011661895	-1.8032134577	-1.236320155	-0.02717
H	 0.7530197419	 1.677848132	-0.4348157818	 0.284288
H	 0.6357792548	-0.6855923504	-0.4096358082	 0.080638
H	 0.2440657801	 0.0913620332	 1.1370463999	 0.085859
H	-2.1953618327	-0.0003875134	 0.5681630627	 0.086246
H	-1.2301423301	-1.1798055782	-2.1287488185	 0.083941
H	-0.6859398952	-2.7053923657	 0.289579746	 0.076205
H	-3.0981018184	-3.6967529913	 0.0787233772	 0.064309
H	-4.9464845614	-2.4075200869	 1.1424638899	 0.095396
H	-3.7553783087	-1.2167565024	 1.6808635807	 0.098684
H	-5.4000877608	-1.1460498175	-0.8801839849	 0.095196
H	-4.223856565	 0.0971071943	-0.4329871279	 0.105736
H	-3.6000610944	-2.310256485	-2.1541214708	 0.064374
85.4009	135.2843	205.5444	209.9235	263.2665	346.2734	384.6332	426.768	545.9072	669.0313	731.6693	744.8029	781.596	849.1754	862.0136	871.6412	905.2759	927.01	949.6669	972.8362	1006.1096	1027.6329	1045.3263	1058.7525	1077.5198	1087.4869	1104.981	1111.9497	1160.0482	1187.374	1207.1875	1226.4434	1243.4719	1250.0486	1257.4923	1266.3056	1291.4222	1294.0266	1309.416	1326.175	1423.1328	1469.012	1473.9693	1491.9242	1518.9419	2958.389	2987.7627	3055.5946	3062.2023	3091.5188	3102.0464	3104.2008	3119.0544	3141.8606	3157.9553	3173.9748	3825.3403
OCC1C2C1C1CCC21	OC[C@H]1[C@H]2[C@@H]1[C@H]1CC[C@@H]21	
InChI=1S/C8H12O/c9-3-6-7-4-1-2-5(4)8(6)7/h4-9H,1-3H2	InChI=1S/C8H12O/c9-3-6-7-4-1-2-5(4)8(6)7/h4-9H,1-3H2/t4-,5+,6+,7+,8-
