14
gdb 77840	3.44819	1.33181	1.09501	2.7221	67.21	-0.2668	-0.0253	0.2415	1048.2398	0.100442	-436.646451	-436.638832	-436.637888	-436.678501	28.614	
O	 0.1005176555	 1.3567993758	-0.2357922029	-0.411468
C	 0.083168839	-0.0234101119	-0.0648227303	 0.142302
C	 0.0030878541	-0.6296486682	 1.3973267948	-0.240711
C	-1.4766212913	-0.0805287193	 1.4599406772	-0.153617
C	-1.7114028227	 1.3314262831	 1.7094418229	 0.285375
N	-1.9803138695	 2.4129131675	 2.0177046327	-0.334275
C	-1.3526429766	-0.6382538346	-0.0155869657	-0.207895
C	-0.6475992795	-1.8194466121	 0.6771828373	 0.434857
O	-0.6147010123	-3.0070168663	 0.654766389	-0.297784
H	 0.9385816751	 1.7091904186	 0.0816095385	 0.301374
H	 0.790236171	-0.5295934764	-0.7325179066	 0.104284
H	 0.7470078431	-0.6051960851	 2.1898794911	 0.113741
H	-2.1461705547	-0.6537982958	 2.1053119737	 0.142986
H	-2.1144131112	-0.6223513854	-0.7899643316	 0.120831
138.6687	146.6344	188.4709	272.2871	304.708	314.6062	465.977	484.8482	545.8064	581.3712	685.2403	721.0808	748.8191	780.7053	878.712	935.5084	1007.12	1028.1991	1062.6746	1074.6378	1121.0935	1131.6398	1167.5433	1178.8537	1180.7886	1237.1663	1315.046	1377.2026	1446.6447	1938.5904	2354.4942	3036.7146	3088.6868	3158.5696	3170.8692	3818.7579
OC1C2C(C#N)C1C2=O	O[C@H]1[C@H]2[C@@H](C#N)[C@@H]1C2=O	
InChI=1S/C6H5NO2/c7-1-2-3-5(8)4(2)6(3)9/h2-5,8H	InChI=1S/C6H5NO2/c7-1-2-3-5(8)4(2)6(3)9/h2-5,8H/t2-,3-,4+,5+
