22
gdb 7590	2.6107	1.58457	1.39409	1.7231	78.02	-0.2531	0.082	0.3352	1077.7512	0.197232	-350.20572	-350.195698	-350.194754	-350.240192	36.877	
C	-0.7558987042	 0.9872747937	-0.0841723641	-0.399283
C	-1.0040741512	-0.20398602	-1.0234573912	-0.023049
C	-2.1618573599	 0.0706993172	-1.9950723068	-0.399783
C	 0.274360558	-0.6125361231	-1.7531120272	 0.409859
C	 0.8821223038	 0.4029054225	-2.7033634702	-0.471154
O	 1.2489311237	-1.2716206943	-0.9190311781	-0.312755
C	 0.6257874788	-2.0340545296	-1.9611031993	 0.023557
C	-0.1900507088	-3.2375426654	-1.5603925731	-0.429073
H	 0.0884746973	 0.7850511983	 0.5810783362	 0.131195
H	-0.5419803414	 1.9067295187	-0.6392482973	 0.11292
H	-1.6395002445	 1.1770190114	 0.5335811446	 0.109251
H	-1.2887442964	-1.0503609735	-0.3911573816	 0.077028
H	-1.9680354874	 0.9522209398	-2.6153808909	 0.117533
H	-2.3363130459	-0.7788113323	-2.6636446774	 0.112923
H	-3.0877612354	 0.2586189914	-1.4421896556	 0.114238
H	 1.0929299387	 1.3475859861	-2.1930583786	 0.125779
H	 1.825019923	 0.0219706228	-3.1028740145	 0.125697
H	 0.2138509147	 0.6161272581	-3.5437350241	 0.120331
H	 1.2952319331	-2.2327163449	-2.8029691965	 0.07684
H	-0.857140784	-3.0319415756	-0.721811142	 0.129128
H	-0.7889679956	-3.5907336149	-2.4072113424	 0.11986
H	 0.4772558734	-4.0538737262	-1.2634371	 0.128958
42.9821	146.9405	163.1527	192.903	222.2534	229.4035	250.3772	271.3493	295.6738	344.1934	435.3041	477.4662	486.9494	551.3227	671.0311	764.9928	867.0348	906.9844	929.714	941.3166	965.1541	995.809	1029.6611	1083.3054	1100.1382	1137.2599	1146.7264	1177.9099	1190.3202	1279.5255	1313.599	1341.6531	1384.5012	1397.0106	1407.2478	1411.9263	1421.1798	1461.7542	1479.8457	1486.9714	1490.1384	1495.8741	1500.2594	1508.6383	1511.0852	1518.2535	3030.1774	3035.8014	3037.0188	3043.4739	3057.1675	3062.6079	3095.1914	3095.7778	3100.8294	3104.7426	3109.0364	3115.0272	3123.4834	3137.2645
CC(C)C1(C)OC1C	CC(C)[C@@]1(C)O[C@H]1C	
InChI=1S/C7H14O/c1-5(2)7(4)6(3)8-7/h5-6H,1-4H3	InChI=1S/C7H14O/c1-5(2)7(4)6(3)8-7/h5-6H,1-4H3/t6-,7+/m0/s1
