19
gdb 71308	3.27287	1.45189	1.15756	0.6041	86.51	-0.253	0.0478	0.3008	1095.4301	0.158329	-348.651805	-348.643807	-348.642863	-348.683852	32.164	
C	 0.0730173571	 1.4935494256	-0.1850012316	-0.526103
C	 0.0600028424	-0.0099463019	-0.1265248999	 0.353708
C	 0.5801999933	-0.9956416609	-1.1983858261	-0.310014
C	 0.0555563907	-1.9073014427	-0.0778587024	-0.059707
C	 0.556737781	-0.9418517758	 1.0457564761	-0.08399
C	-0.8259052194	-0.9632165911	 1.7534359687	-0.202349
C	-1.2386409348	 0.1416350626	 2.5971838256	 0.297808
C	-1.5931003433	 1.0340310127	 3.3229660351	-0.440527
C	-1.148083242	-0.9586823636	 0.2338477058	-0.083994
H	 1.0982702363	 1.8669080985	-0.2886000092	 0.116074
H	-0.4981711499	 1.8511323432	-1.049380003	 0.116072
H	-0.3610986214	 1.9319100137	 0.7168824853	 0.139907
H	 0.0365998369	-1.0181410511	-2.1492701618	 0.089866
H	 1.6612962091	-1.0021073758	-1.3755226031	 0.089867
H	 0.0372905611	-2.9961763551	-0.0169337962	 0.07088
H	 1.5464778528	-0.9348302115	 1.505497426	 0.074513
H	-1.0510651207	-1.9170767773	 2.2459903897	 0.092644
H	-1.9032101138	 1.8266956176	 3.9576757229	 0.190832
H	-2.1287614856	-0.9711169672	-0.2448083618	 0.074514
132.9779	137.3188	208.0353	267.7841	293.6727	394.4641	396.4927	499.0147	525.2242	615.9974	625.7203	633.9967	720.3144	781.6959	848.8551	856.1266	884.6132	903.8295	912.5425	942.155	991.0151	1016.8815	1030.4181	1059.5328	1060.857	1108.6161	1147.3726	1154.7132	1158.6041	1185.7799	1212.0481	1218.4863	1240.1325	1290.1994	1342.302	1369.6635	1411.1721	1491.1043	1493.2283	1512.5856	2225.9851	3028.0959	3029.7958	3031.3618	3085.0692	3087.4571	3097.1689	3098.5777	3111.9363	3123.7277	3503.586
CC12CC3C1C(C#C)C23	C[C@@]12C[C@H]3[C@@H]1[C@@H](C#C)[C@@H]23	
InChI=1S/C9H10/c1-3-5-7-6-4-9(7,2)8(5)6/h1,5-8H,4H2,2H3	InChI=1S/C9H10/c1-3-5-7-6-4-9(7,2)8(5)6/h1,5-8H,4H2,2H3/t5-,6+,7+,8-,9-
