17
gdb 26633	3.24883	1.25578	0.91523	2.2071	85.54	-0.1971	0.0204	0.2174	1237.3172	0.135392	-380.882163	-380.872564	-380.87162	-380.917761	34.728	
C	-0.0869795206	 1.4883659817	 0.0551079781	-0.51923
C	-0.0155866825	-0.0050607759	 0.0223126478	 0.125413
C	-0.0154556745	-0.8096094053	-1.0962757926	 0.182513
N	-0.0751096849	-0.553379466	-2.4866810447	-0.618824
N	 0.0626889116	-2.1214479558	-0.6748408412	-0.251666
C	 0.1124898122	-2.1795687786	 0.6837674749	-0.205661
C	 0.0663928508	-0.879498595	 1.1622568434	 0.075147
C	 0.0940046242	-0.4811710912	 2.518058832	 0.249954
C	 0.1158223608	-0.1130261992	 3.6660421191	-0.463899
H	 0.7925396807	 1.9254364795	 0.5415650187	 0.133018
H	-0.1483661677	 1.8983105082	-0.9577964161	 0.100227
H	-0.9623439756	 1.8394950974	 0.6132736598	 0.133191
H	 0.6990912644	 0.0230527008	-2.7992616826	 0.245627
H	-0.9314620793	-0.0760895827	-2.7482984437	 0.245525
H	 0.0797382272	-2.8995720878	-1.3116975037	 0.26343
H	 0.1758590018	-3.1141883735	 1.2157736466	 0.127807
H	 0.1355560713	 0.2030811433	 4.6788230842	 0.177426
17.9032	91.2727	125.0065	130.6803	245.1485	260.5205	287.5562	400.158	462.9637	513.5301	514.7913	548.7311	570.9634	646.1774	649.1868	688.6144	698.4761	744.5981	757.2971	797.8414	945.2454	1064.06	1096.545	1113.1024	1208.6825	1212.5885	1238.0812	1344.2611	1402.9243	1420.4667	1473.4233	1482.6403	1495.0632	1538.8046	1623.7452	1662.756	2224.6913	3026.2859	3077.0019	3101.0466	3273.6658	3502.4624	3506.0172	3566.9762	3678.0646
CC1=C(N)NC=C1C#C	Cc1c(N)[nH]cc1C#C	
InChI=1S/C7H8N2/c1-3-6-4-9-7(8)5(6)2/h1,4,9H,8H2,2H3	InChI=1S/C7H8N2/c1-3-6-4-9-7(8)5(6)2/h1,4,9H,8H2,2H3
