17
gdb 13352	5.0244	1.22337	1.14634	2.6414	65.67	-0.247	0.0305	0.2775	1060.5036	0.143852	-401.027604	-401.019836	-401.018892	-401.06114	27.514	
O	-0.1796538826	 0.3282924094	-0.8489997451	-0.326213
C	-0.0518321841	 1.2945006932	-0.1262920938	 0.151876
N	 1.1175964647	 1.7156770191	 0.4233221978	-0.277747
C	 2.3860642933	 1.0294856102	 0.2301335862	 0.038196
C	 3.4105159699	 1.8873434197	-0.5582014083	-0.25498
C	 4.252460905	 2.5625250259	 0.5581234524	-0.075218
O	 3.6800274733	 2.1517502838	 1.8013044178	-0.255881
C	 3.1113571858	 0.8705059085	 1.5719324167	-0.106453
H	-0.8988140822	 1.9471626511	 0.1651365598	 0.074185
H	 1.1111985802	 2.5256639084	 1.0245690241	 0.252117
H	 2.1560190169	 0.0862461639	-0.2644687613	 0.121739
H	 4.0338563263	 1.2521824415	-1.1922922035	 0.116249
H	 2.9030532253	 2.6067080587	-1.202847854	 0.118489
H	 5.3035103768	 2.2442481781	 0.5039288675	 0.09959
H	 4.2259225252	 3.6549341634	 0.5285232088	 0.112248
H	 2.4466052432	 0.6330805658	 2.4051112293	 0.116898
H	 3.8906090929	 0.0939476894	 1.4999492254	 0.094904
34.4831	67.5924	169.2099	218.8525	233.1745	378.0857	460.2052	569.6724	695.2847	718.6923	776.501	810.7974	906.4754	919.8554	943.4556	968.3377	979.9779	1030.329	1076.3802	1106.0761	1140.757	1194.4473	1218.9919	1240.2944	1251.4943	1278.6597	1314.0417	1349.5299	1356.8243	1397.8539	1430.1727	1487.7073	1503.1648	1522.9642	1527.2092	1802.6802	2934.3707	2972.3469	2999.4708	3074.3512	3087.004	3111.2116	3126.1868	3135.3485	3623.2951
O=CNC1CCOC1	O=CN[C@H]1CCOC1	
InChI=1S/C5H9NO2/c7-4-6-5-1-2-8-3-5/h4-5H,1-3H2,(H,6,7)	InChI=1S/C5H9NO2/c7-4-6-5-1-2-8-3-5/h4-5H,1-3H2,(H,6,7)/t5-/m0/s1
