14
gdb 53899	1.90832	1.45485	1.14972	4.7847	63.84	-0.2684	-0.0193	0.249	1115.2601	0.100523	-470.081159	-470.071904	-470.07096	-470.116282	32.464	
N	 0.6875940016	 0.2523677313	-0.6252861873	-0.501404
C	-0.2013262327	 0.1184900122	 0.3810784841	 0.399963
O	-0.1720457948	 0.6930428044	 1.4454930667	-0.346163
C	-1.3878439184	-0.8550763599	 0.057412787	-0.356075
C	-2.3019237286	-0.2450203266	-0.9051638629	 0.289747
N	-3.0323525008	 0.2342596729	-1.6616221995	-0.312419
C	-0.908430907	-2.2172533998	-0.4990917268	 0.435627
N	-1.3908436963	-3.2962586552	 0.1572652927	-0.514312
O	-0.150068175	-2.291188673	-1.4478932143	-0.361628
H	 1.5066531817	 0.8136929576	-0.4546346669	 0.269479
H	 0.6842745577	-0.4264620544	-1.3764439652	 0.290237
H	-1.9108054767	-0.9731455819	 1.009068764	 0.149392
H	-2.0568186893	-3.2230665512	 0.9060224993	 0.278454
H	-1.1416443114	-4.2116152964	-0.183180371	 0.279102
36.265	62.4626	132.8853	160.7908	234.2432	288.0435	364.7234	386.3528	421.4209	460.5862	473.0799	554.4671	599.5645	639.0056	654.0608	743.2975	770.0492	866.197	919.3758	1016.7065	1093.0981	1137.681	1231.8894	1269.415	1335.2967	1390.7613	1618.3368	1624.7944	1793.0713	1832.9511	2358.5559	3095.3064	3529.853	3600.8341	3691.7781	3737.1814
NC(=O)C(C#N)C(N)=O	NC(=O)C(C#N)C(=O)N	
InChI=1S/C4H5N3O2/c5-1-2(3(6)8)4(7)9/h2H,(H2,6,8)(H2,7,9)	InChI=1S/C4H5N3O2/c5-1-2(3(6)8)4(7)9/h2H,(H2,6,8)(H2,7,9)
