16
gdb 68704	1.98256	1.8136	1.15807	5.7237	76.18	-0.265	-0.0327	0.2323	1079.28	0.12333	-400.763295	-400.754951	-400.754006	-400.796282	30.984	
C	-0.0118632247	 1.5315187514	 0.0836939733	-0.488515
C	-0.0179573044	 0.0339535446	 0.0148509454	 0.281095
C	 1.1513154699	-0.7940185704	-0.3592143195	-0.353677
C	 0.604417859	-0.9666834214	 1.0680731141	 0.047532
C	 1.4097270676	-0.7165871716	 2.2138607816	 0.197434
N	 2.0514368899	-0.4962590144	 3.1519491708	-0.34654
C	-0.6796459207	-1.7637129821	 0.9998864307	 0.373319
O	-1.1222561515	-2.6532127629	 1.6609638228	-0.287731
C	-1.2851888998	-0.8372028305	-0.0809909	-0.410573
H	 0.9663962645	 1.9091772962	 0.3946675927	 0.143391
H	-0.2407435997	 1.9591494623	-0.8989554195	 0.139075
H	-0.7608630587	 1.8981953213	 0.7922818304	 0.138747
H	 1.0570748411	-1.6235150851	-1.0544744412	 0.137705
H	 2.1133066156	-0.2922723203	-0.3859714743	 0.151353
H	-2.1840617115	-0.3545042284	 0.3139453791	 0.145185
H	-1.5101698967	-1.2727362986	-1.0585170564	 0.132201
102.2809	117.2723	148.5762	197.8974	293.6593	343.0555	388.7886	418.3863	505.6656	534.6091	598.4631	603.2441	648.0316	713.3859	779.958	863.2049	961.0114	983.7384	987.8865	1008.487	1061.5622	1087.216	1116.3487	1136.1099	1211.5849	1260.0157	1320.9918	1384.3178	1426.5563	1456.2861	1482.9118	1493.1881	1503.4284	1894.938	2344.3724	3034.9479	3059.6064	3099.3077	3114.1718	3116.5461	3121.1701	3212.4962
CC12CC1(C#N)C(=O)C2	C[C@@]12C[C@]1(C#N)C(=O)C2	
InChI=1S/C7H7NO/c1-6-2-5(9)7(6,3-6)4-8/h2-3H2,1H3	InChI=1S/C7H7NO/c1-6-2-5(9)7(6,3-6)4-8/h2-3H2,1H3/t6-,7+/m1/s1
