18
gdb 120239	3.15782	1.10461	0.92695	3.036	72.79	-0.2353	-0.019	0.2162	1306.1143	0.146283	-439.052503	-439.043658	-439.042713	-439.086962	31.753	
C	 0.0406138883	 1.5224916303	 0.0846691054	-0.387127
C	-0.1095123193	 0.0170961963	 0.2039545734	-0.051401
O	 0.9621873835	-0.4738957205	 1.0095741729	-0.258597
C	 0.9321853269	-1.8557507203	 1.191094119	 0.010349
C	 2.0347005875	-2.4410428913	 2.0609555121	-0.067651
C	 1.8894717136	-2.0209036432	 3.4584990337	-0.239148
N	 1.0174482634	-3.143979975	 2.9817669985	-0.177451
C	-0.0389948961	-2.4752886942	 2.2382335297	 0.365951
O	-1.2177102691	-2.5062483921	 2.4042523155	-0.297261
H	 1.0013830552	 1.7792423885	-0.3704074251	 0.127625
H	-0.7602960511	 1.9334441546	-0.5367831168	 0.121174
H	-0.009954469	 1.9932884301	 1.0704162959	 0.129718
H	-1.0723233306	-0.2498896082	 0.6594304963	 0.123946
H	-0.0693002685	-0.4607896089	-0.788568297	 0.092143
H	 0.8326854165	-2.3932893001	 0.2336038472	 0.099724
H	 2.8912159171	-2.9913260802	 1.6935784679	 0.117124
H	 2.6305542622	-2.3575200819	 4.1751898919	 0.143089
H	 1.4269103094	-1.0659213138	 3.6893951895	 0.147793
61.2071	81.999	100.0624	191.5093	219.4294	259.606	293.7656	395.7906	495.6447	524.5456	660.7339	712.5572	751.8603	820.6142	833.7929	870.2979	906.4027	974.6506	1014.6189	1029.3613	1063.142	1064.7298	1116.8371	1141.2113	1145.8403	1179.1916	1187.5704	1219.2001	1259.0195	1300.404	1355.9038	1365.8999	1403.6279	1440.9779	1483.783	1500.0022	1505.1227	1529.779	1913.7907	2973.1802	2977.6405	3037.3234	3046.6583	3122.3316	3123.5438	3128.7918	3204.7826	3222.1071
CCOC1C2CN2C1=O	CCO[C@H]1[C@H]2CN2C1=O	
InChI=1S/C6H9NO2/c1-2-9-5-4-3-7(4)6(5)8/h4-5H,2-3H2,1H3	InChI=1S/C6H9NO2/c1-2-9-5-4-3-7(4)6(5)8/h4-5H,2-3H2,1H3/t4-,5+,7?/m1/s1
