14
gdb 78159	2.12726	1.76492	1.03796	2.3311	63.71	-0.2597	-0.031	0.2287	1072.006	0.101819	-473.881054	-473.873693	-473.872749	-473.912965	28.035	
O	-0.0248790293	 1.3110626444	-0.0947673934	-0.41515
C	-0.0097578686	-0.0714138067	-0.004631004	 0.097822
C	-0.4948228265	-0.7047085523	 1.2936540313	-0.230639
C	-1.3713527043	-0.7051949533	 0.0522651839	-0.196819
C	-1.4227655806	-2.1323669828	-0.4218162841	 0.425317
O	-2.0702317516	-2.6016394504	-1.3212645337	-0.346718
N	-0.5505302728	-2.84419527	 0.407598088	-0.373521
C	-0.0621899171	-2.1255131225	 1.5047680589	 0.423967
O	 0.5765472292	-2.5909430487	 2.4138551852	-0.351294
H	 0.8008516519	 1.6499281373	 0.2686072068	 0.300919
H	 0.7777904778	-0.5775353416	-0.5624981004	 0.119146
H	-0.6649638677	-0.0678229097	 2.1503092003	 0.132332
H	-2.239979123	-0.0741034257	-0.0738728153	 0.139819
H	-0.3972771275	-3.8367643678	 0.3024797965	 0.274819
140.0519	172.4129	208.949	297.9366	305.7779	360.7836	456.0572	530.784	612.2303	621.4972	651.5875	738.3458	752.7184	850.587	895.2522	919.8357	935.2579	969.6197	1017.5787	1089.1078	1124.2119	1158.8395	1181.2785	1257.5498	1296.7251	1307.7377	1333.2159	1349.2381	1453.6815	1836.433	1874.0863	3107.464	3223.3439	3229.3994	3628.6658	3805.1715
OC1C2C1C(=O)NC2=O	O[C@H]1[C@H]2[C@@H]1C(=O)NC2=O	
InChI=1S/C5H5NO3/c7-3-1-2(3)5(9)6-4(1)8/h1-3,7H,(H,6,8,9)	InChI=1S/C5H5NO3/c7-3-1-2(3)5(9)6-4(1)8/h1-3,7H,(H,6,8,9)/t1-,2+,3+
