18
gdb 102953	2.14375	1.03259	0.723	5.3104	76.43	-0.2438	0.0347	0.2784	1510.2388	0.145676	-439.070003	-439.059843	-439.058898	-439.106078	35.786	
O	 0.0636060864	 1.4253001791	 0.1715348166	-0.423739
C	 0.011153821	 0.0045287083	 0.271469664	-0.083635
C	-1.3928387388	-0.4690505508	-0.1467604499	-0.189367
C	-1.7391562698	-0.1089065432	-1.614414184	-0.154513
N	-1.9430478858	 1.3133967414	-1.8053879975	-0.279793
C	-3.0708957707	 1.8238065226	-2.3634821135	 0.149441
O	-3.9936306134	 1.1758176663	-2.8132547046	-0.327399
C	-1.4845217144	-1.9121014534	 0.0537693677	 0.306056
C	-1.5348604481	-3.1045541704	 0.1942904943	-0.438318
H	 0.9556195552	 1.7122632255	 0.3869673608	 0.297212
H	 0.7572312039	-0.4679735634	-0.3842641626	 0.106268
H	 0.210266592	-0.3231570774	 1.3003787603	 0.111834
H	-2.1221327	 0.0335431091	 0.5021568981	 0.125915
H	-0.9394962755	-0.4832396766	-2.2676172234	 0.113239
H	-2.6659968721	-0.6022615389	-1.9110934677	 0.157463
H	-1.256741952	 1.933455512	-1.4025311717	 0.258273
H	-3.0546301816	 2.9321393971	-2.369706938	 0.0707
H	-1.5992433863	-4.1563180572	 0.326844401	 0.200363
43.8192	73.9104	120.4794	137.8358	182.2134	238.2364	248.2839	277.5679	327.8698	386.6753	452.4151	507.5244	515.9174	635.1066	641.8374	655.2624	761.0574	892.921	914.7833	990.549	1027.8334	1037.6129	1064.742	1075.3659	1140.2555	1222.3939	1231.0295	1242.3434	1295.265	1300.1928	1337.3808	1387.5729	1429.4642	1452.0455	1497.0221	1517.6775	1537.2079	1803.3549	2239.0763	2931.8475	2993.8677	3013.8946	3027.9332	3044.0828	3129.3349	3503.4349	3621.3664	3836.6477
OCC(CNC=O)C#C	OC[C@@H](CNC=O)C#C	
InChI=1S/C6H9NO2/c1-2-6(4-8)3-7-5-9/h1,5-6,8H,3-4H2,(H,7,9)	InChI=1S/C6H9NO2/c1-2-6(4-8)3-7-5-9/h1,5-6,8H,3-4H2,(H,7,9)/t6-/m1/s1
