21
gdb 82319	2.51496	1.73355	1.28086	1.181	80.97	-0.2292	0.0709	0.3002	1060.0888	0.184642	-383.228732	-383.220767	-383.219823	-383.260758	32.372	
C	-0.8459672843	 1.104006962	 0.0298064337	-0.406191
C	 0.0288384661	-0.1328395933	-0.1288305029	-0.023409
N	 0.9047333544	-0.0442596703	-1.3168965916	-0.105227
C	 2.1067255914	 0.7833439997	-1.1117539172	-0.25545
C	 2.1868888087	-0.692102432	-0.9606926068	-0.016298
C	 2.1175967372	-1.2536029649	 0.4488543072	-0.285917
C	 0.9326626006	-0.509523759	 1.0613171938	 0.319944
C	 1.0503733406	 0.3135728119	 2.2930928143	-0.290737
N	 0.3837335973	-1.0035166	 2.3257526774	-0.378072
H	-0.2425803532	 2.0083158563	 0.1527456516	 0.121084
H	-1.4753604082	 1.2326202301	-0.8545607346	 0.130648
H	-1.5057193611	 1.0123490825	 0.8998958759	 0.109185
H	-0.6265379225	-0.995720751	-0.3192886393	 0.085337
H	 2.48143163	 1.2587289094	-2.013274734	 0.113962
H	 2.1814563982	 1.3932552301	-0.2147890068	 0.116027
H	 2.6532704639	-1.2909128882	-1.7376672937	 0.089586
H	 1.9046464947	-2.3284149505	 0.4185418695	 0.113923
H	 3.0421673593	-1.117974943	 1.0176099327	 0.107739
H	 1.998970353	 0.3542823626	 2.8230767728	 0.114326
H	 0.4420400021	 1.2081752463	 2.3908200254	 0.111505
H	-0.6269295784	-0.8760547788	 2.3404681126	 0.228035
100.8283	222.4912	245.5006	264.292	284.5568	359.5589	375.9485	428.1332	497.1993	567.3735	644.8066	737.9426	750.5296	832.058	848.226	880.6252	904.607	935.536	941.4677	978.0892	992.0028	1032.069	1066.6241	1073.9566	1090.9481	1108.2117	1116.5366	1131.1059	1149.9052	1175.0528	1188.5774	1262.1536	1269.5985	1296.159	1302.8647	1336.6246	1372.2878	1383.8639	1395.938	1414.8795	1486.6663	1488.9875	1497.5056	1500.8147	1515.5276	2991.8509	3035.448	3042.0064	3086.6562	3101.3345	3106.3125	3108.9641	3120.5762	3147.8865	3191.1245	3193.9604	3473.7163
CC1N2CC2CC11CN1	C[C@H]1N2C[C@H]2C[C@]21CN2	
InChI=1S/C7H12N2/c1-5-7(4-8-7)2-6-3-9(5)6/h5-6,8H,2-4H2,1H3	InChI=1S/C7H12N2/c1-5-7(4-8-7)2-6-3-9(5)6/h5-6,8H,2-4H2,1H3/t5-,6-,7-,9?/m1/s1
