18
gdb 47369	2.24737	1.51024	1.20713	2.9616	76.96	-0.2381	-0.015	0.2231	1100.8451	0.148441	-401.935175	-401.926823	-401.925879	-401.968262	32.065	
O	-0.0463701739	-0.0617466028	 0.1523883493	-0.305577
C	-0.0478390288	 1.1425745696	 0.062480603	 0.388611
C	-1.3204495025	 1.9759757587	 0.0907282314	-0.273792
C	-1.3114328737	 3.052774895	-1.0063358739	-0.178399
N	-0.080931124	 3.8409353533	-0.9048089983	-0.285124
C	 1.1308591492	 3.0460447	-1.1516222476	-0.185764
C	 1.235753994	 1.9563252033	-0.0556392582	-0.285478
C	 1.1927384158	 2.4564574061	-2.4999710947	 0.35032
C	 1.2132923345	 1.9956759548	-3.610921471	-0.483156
H	-2.1825244007	 1.3114455767	 0.0011154705	 0.118958
H	-1.3640756085	 2.4749712753	 1.0678696571	 0.124896
H	-1.4254024867	 2.5682311594	-1.9898888347	 0.108502
H	-2.1612659398	 3.7285728741	-0.8719555171	 0.107149
H	-0.1130415772	 4.6105711066	-1.5650264633	 0.228332
H	 1.9869213942	 3.7216191223	-1.0387969521	 0.112365
H	 1.3935042709	 2.4703490553	 0.9004884883	 0.126155
H	 2.0739812739	 1.2826638655	-0.2395276458	 0.128598
H	 1.2419255733	 1.5837138169	-4.5896310628	 0.203404
73.4674	106.8185	170.7307	230.2813	323.5265	373.7467	399.3306	474.694	491.4007	556.3802	603.0735	637.0507	657.8021	700.4947	751.8194	772.1019	823.7935	882.4747	929.5071	953.4627	1018.1341	1056.1109	1090.8256	1119.9293	1173.5928	1202.8829	1234.7191	1247.2982	1286.5143	1338.8607	1343.4111	1353.5991	1402.6685	1447.7915	1459.8161	1482.048	1510.5277	1822.9738	2222.4199	2971.9932	3030.138	3032.9147	3045.3468	3076.4423	3115.9422	3130.0691	3500.9833	3527.9915
O=C1CCNC(C1)C#C	O=C1CCN[C@@H](C1)C#C	
InChI=1S/C7H9NO/c1-2-6-5-7(9)3-4-8-6/h1,6,8H,3-5H2	InChI=1S/C7H9NO/c1-2-6-5-7(9)3-4-8-6/h1,6,8H,3-5H2/t6-/m1/s1
