20
gdb 60864	2.84471	1.12256	1.0459	2.7585	75.92	-0.2445	0.0212	0.2656	1244.9191	0.169457	-440.282154	-440.27252	-440.271576	-440.316817	34.741	
C	 0.8827813628	 1.1889639394	 0.1342089285	-0.360499
N	 0.0436256042	 0.001029303	 0.0729040702	-0.092416
C	-0.8650373873	-0.2206921711	 1.0679604025	 0.145292
O	-0.9903699262	 0.4476738702	 2.07318386	-0.343508
C	 0.0210458102	-0.7791988888	-1.1564005533	 0.248298
C	-0.8517697884	-0.1369356537	-2.2381502874	-0.42903
C	 1.3983367498	-1.2414109472	-1.6995416491	-0.111457
O	 0.9085472558	-2.5856528762	-1.8666679547	-0.271395
C	-0.2255752833	-2.3065904079	-1.025330258	-0.119542
H	 1.937042335	 0.9301034124	-0.0070965098	 0.128118
H	 0.5993936628	 1.9246729327	-0.6279181596	 0.127173
H	 0.7472484839	 1.6331648023	 1.1200591518	 0.173537
H	-1.4936194815	-1.1083964047	 0.8654612068	 0.078896
H	-0.5028914032	 0.8712516089	-2.4821201064	 0.12522
H	-0.8233453196	-0.7364516002	-3.1527537679	 0.136274
H	-1.8906271091	-0.0662240112	-1.9003490529	 0.126897
H	 1.7397163053	-0.8021849093	-2.6426363385	 0.111043
H	 2.2025468527	-1.1927219156	-0.953445222	 0.105148
H	-0.0795286436	-2.6932424333	-0.0086461507	 0.108547
H	-1.1593597203	-2.6986093898	-1.4411882798	 0.113403
66.5037	102.6095	135.8775	171.3328	188.524	263.7832	300.0875	326.4413	335.7372	371.601	417.5132	477.2546	511.5689	784.1591	827.8867	890.9689	920.8793	927.8151	970.0439	1016.4022	1027.6989	1032.962	1053.3505	1154.7138	1162.5713	1170.1784	1183.2119	1189.9758	1245.0225	1302.298	1309.5	1375.3526	1382.8988	1410.9104	1437.9423	1447.0033	1489.1101	1491.527	1500.6856	1506.0137	1514.5611	1527.7059	1792.4224	2950.738	3008.334	3020.823	3026.0255	3038.122	3075.9388	3079.2033	3082.9582	3110.6811	3116.5633	3159.2012
CN(C=O)C1(C)COC1	CN(C=O)C1(C)COC1	
InChI=1S/C6H11NO2/c1-6(3-9-4-6)7(2)5-8/h5H,3-4H2,1-2H3	InChI=1S/C6H11NO2/c1-6(3-9-4-6)7(2)5-8/h5H,3-4H2,1-2H3
