17
gdb 18395	3.0654	2.42604	1.56031	2.3826	70.54	-0.2388	0.0095	0.2482	834.098	0.144779	-363.826804	-363.820098	-363.819154	-363.85775	26.188	
C	 0.2766764938	 1.2707149987	-0.5082831565	-0.135411
O	 0.5417019155	 2.26409253	 0.4584262993	-0.218771
C	 1.6799248836	 2.0537260657	 1.2533479475	-0.099106
C	 1.4880256864	 1.0831976972	 2.4036076155	-0.033807
N	 0.2026120395	 1.1120122276	 3.1024486864	-0.321492
C	 0.6066783434	-0.1155058024	 2.3593815427	-0.068227
C	-0.1965664442	-0.5746306673	 1.1986840415	-0.029083
C	-0.3293657808	-0.0118572075	-0.0021212272	-0.068393
H	-0.4225643268	 1.7314105954	-1.2157918122	 0.115745
H	 1.1959111886	 1.0443187473	-1.0812536526	 0.096129
H	 2.5329195655	 1.7158886786	 0.6387785037	 0.084878
H	 1.940753277	 3.0348278291	 1.6686363257	 0.110901
H	 2.3924256292	 0.9819713398	 3.0067804394	 0.07878
H	 0.3370551644	 0.9689022456	 4.1004881571	 0.229078
H	 0.9372485489	-0.9442676547	 2.9845621097	 0.082823
H	-0.7247789529	-1.510518454	 1.3714354945	 0.086577
H	-0.9487751712	-0.524412379	-0.7367338543	 0.089379
79.3389	221.842	284.5126	337.47	398.1844	472.483	491.6881	683.8783	706.3602	751.7409	787.3878	818.3897	883.2355	907.4998	950.4436	974.7722	1002.0256	1028.3068	1037.0013	1082.2266	1118.0119	1159.0407	1195.005	1226.2256	1242.7937	1285.5079	1293.0402	1338.9495	1390.873	1412.7712	1422.0841	1438.3034	1472.3683	1483.4261	1487.3674	1737.2681	2926.1729	2954.551	3050.0059	3053.5909	3084.9687	3105.8239	3128.6907	3152.4412	3492.3814
C1OCC2NC2C=C1	C1OC[C@H]2N[C@H]2C=C1	
InChI=1S/C6H9NO/c1-2-5-6(7-5)4-8-3-1/h1-2,5-7H,3-4H2	InChI=1S/C6H9NO/c1-2-5-6(7-5)4-8-3-1/h1-2,5-7H,3-4H2/t5-,6+/m0/s1
