15
gdb 20251	3.69227	3.11366	2.45564	0.4929	61.58	-0.2392	0.0556	0.2948	625.3126	0.122369	-362.600668	-362.59574	-362.594796	-362.629361	21.21	
C	-0.0179643793	 1.5134881805	 0.0677437212	-0.236732
C	 1.4612741834	 1.846778769	 0.0007055813	-0.03762
C	 2.442662444	 0.9088834339	 0.6070073772	-0.066111
C	 1.8338409277	-0.5002611868	 0.7646241852	 0.102637
O	 0.4942410608	-0.5262550025	 1.2839606271	-0.310597
C	 0.0119392855	-0.009657495	 0.0071608022	 0.084332
C	 1.375636158	-0.3471018207	-0.6848945753	-0.058309
N	 2.187235744	 0.9196255278	-0.8982465721	-0.162502
H	-0.5059468221	 1.8604732973	 0.982271085	 0.121605
H	-0.5367140462	 1.9429371736	-0.7971838102	 0.108561
H	 1.7695224111	 2.88374423	-0.0943611306	 0.097924
H	 3.388580172	 1.2446273559	 1.0199566228	 0.093682
H	 2.4810446228	-1.2828173391	 1.161277083	 0.089469
H	-0.9104851527	-0.5003169936	-0.3081831384	 0.083684
H	 1.446191891	-1.0930496103	-1.4715244584	 0.089977
327.9477	411.8717	525.6289	654.5715	700.6047	714.2678	763.7483	774.9617	840.4655	858.4103	892.7947	908.2207	931.1101	963.5083	983.2255	995.3683	1020.9256	1042.2177	1065.1848	1086.7657	1145.6948	1178.218	1194.2326	1215.4749	1253.8087	1264.7676	1277.0233	1317.756	1342.7255	1347.6916	1406.634	1470.866	3042.9922	3097.8709	3105.6705	3112.552	3154.8194	3156.6254	3166.724
C1C2C3C4OC1C4N23	C1[C@H]2[C@H]3[C@H]4O[C@@H]1[C@H]4N23	
InChI=1S/C6H7NO/c1-2-4-6-5(7(2)4)3(1)8-6/h2-6H,1H2	InChI=1S/C6H7NO/c1-2-4-6-5(7(2)4)3(1)8-6/h2-6H,1H2/t2-,3-,4-,5+,6+,7?/m0/s1
