17
gdb 123742	4.94982	0.96327	0.92415	3.9873	74.05	-0.2905	-0.0412	0.2494	1284.0964	0.137508	-417.960072	-417.952633	-417.951688	-417.993015	27.701	
C	-0.1331358618	 1.5050743714	-0.0004574689	-0.212688
C	 1.4056025517	 1.5029703671	-0.1987886262	-0.231424
C	 1.4612723239	 0.1395545661	 0.5597146652	-0.078299
C	-0.061966212	-0.0229588867	 0.2585912412	-0.231422
C	 2.4114420305	-0.9100526624	 0.1067719973	 0.337229
N	 3.2633661953	-1.4872627735	 0.9157211275	-0.156522
O	 3.9626285596	-2.3864056497	 0.159151955	-0.1494
N	 3.5442112301	-2.3727381986	-1.1405989052	-0.061053
C	 2.59830913	-1.4784182228	-1.1904557485	-0.117244
H	-0.424047527	 2.0544975589	 0.8991325961	 0.111962
H	-0.7503661919	 1.8493405144	-0.8323680699	 0.104951
H	 1.6763537266	 1.3839177641	-1.2524093422	 0.10608
H	 1.9875035669	 2.3269821492	 0.218907518	 0.112931
H	 1.6201660916	 0.3067637178	 1.627429443	 0.101737
H	-0.6814872091	-0.4481496643	 1.0507285512	 0.112934
H	-0.2276571965	-0.5958145417	-0.6590037554	 0.106082
H	 2.0893098121	-1.2665459093	-2.1179380484	 0.144144
51.3296	113.7418	139.9093	233.9097	385.2262	402.604	555.2877	650.2804	715.2489	723.8542	792.7693	859.6375	894.2373	896.1092	913.5696	936.912	937.0031	949.5586	1001.9057	1032.0727	1035.3608	1050.6553	1125.1773	1206.3122	1212.7881	1238.5177	1256.1016	1262.677	1276.8481	1286.8737	1351.998	1427.6418	1469.9272	1477.5504	1488.4658	1509.0526	1609.9146	3055.8729	3059.1357	3065.7557	3085.6608	3110.1643	3115.6725	3128.7056	3267.1662
C1CC(C1)C1=NON=C1	C1CC(C1)c1nonc1	
InChI=1S/C6H8N2O/c1-2-5(3-1)6-4-7-9-8-6/h4-5H,1-3H2	InChI=1S/C6H8N2O/c1-2-5(3-1)6-4-7-9-8-6/h4-5H,1-3H2
