19
gdb 116813	4.42365	0.55688	0.5202	2.8032	81.57	-0.2593	0.0095	0.2688	2091.5904	0.157416	-419.21642	-419.206169	-419.205225	-419.253516	35.139	
C	-0.1084945878	 1.3190432371	 0.9276442913	-0.397225
C	 0.610277671	 0.1671054498	 0.2186476892	-0.112751
N	 0.627931212	-1.1429114769	 0.8492084617	-0.219283
C	 0.057913926	-1.338077743	 1.9476674515	 0.115694
O	 0.0522065755	-2.585387474	 2.4919568703	-0.197511
C	-0.4379470229	-2.7045911435	 3.813834223	-0.092691
C	 0.7284124921	-2.6247576276	 4.8194394789	-0.334567
C	 0.270496339	-2.801195335	 6.1937677718	 0.251658
N	-0.1238250708	-2.9404796552	 7.2708191313	-0.29558
H	 0.3311804669	 1.5345528822	 1.9075578254	 0.118027
H	-0.0277172483	 2.2272302223	 0.3231663437	 0.120568
H	-1.1742155597	 1.110013295	 1.0698266228	 0.121367
H	 0.1781079358	 0.0302100536	-0.7812455316	 0.11888
H	 1.6570932804	 0.4461685352	 0.0409646767	 0.117252
H	-0.4843655646	-0.5972771005	 2.5499815873	 0.081746
H	-1.1832227402	-1.9304858693	 4.0349875316	 0.128097
H	-0.9279509877	-3.678367503	 3.8852617542	 0.144766
H	 1.4669227913	-3.3951272136	 4.5755946031	 0.17215
H	 1.2311541321	-1.6554908036	 4.7294879979	 0.159404
37.0098	51.4452	66.0918	160.0784	171.2485	181.103	232.927	318.2936	356.3524	365.3434	401.0406	480.1888	533.9959	610.242	778.9916	779.9725	895.592	956.184	977.5284	1026.5143	1040.0566	1064.8202	1097.5382	1107.522	1147.335	1195.8893	1267.3826	1301.5734	1314.9438	1333.0235	1378.5907	1394.3789	1407.8169	1426.6288	1468.414	1483.2977	1495.5318	1506.9707	1507.4189	1783.566	2364.9487	3018.1693	3026.1935	3033.2091	3037.6737	3040.6897	3054.7025	3093.5777	3100.174	3109.6409	3116.0351
CCN=COCCC#N	CCN=COCCC#N	
InChI=1S/C6H10N2O/c1-2-8-6-9-5-3-4-7/h6H,2-3,5H2,1H3	InChI=1S/C6H10N2O/c1-2-8-6-9-5-3-4-7/h6H,2-3,5H2,1H3
