22
gdb 58442	2.41774	1.38766	1.25122	1.7857	81.5	-0.2269	0.0673	0.2941	1165.1468	0.193216	-404.30057	-404.291017	-404.290073	-404.334526	36.797	
C	-1.4410871794	 0.5011343223	 0.2743723224	-0.411869
C	-0.0430670833	-0.0260117265	-0.06356034	 0.05466
O	 0.7239666969	 0.9481601825	-0.7703406853	-0.433522
C	 0.7124211469	-0.5499251962	 1.1579457672	 0.324615
C	 0.7408797515	 0.3817557513	 2.3591870414	-0.468928
C	 0.8006052699	-1.9937792229	 1.4905209352	-0.067468
C	 0.8330051128	-2.9161623703	 0.27264458	-0.269416
C	 2.0188337672	-2.0555840138	-0.2323869535	-0.162225
N	 2.0311643489	-1.2204364394	 1.0225705703	-0.182422
H	-1.3957306214	 1.3754044038	 0.9316857991	 0.114076
H	-1.949726213	 0.7993160833	-0.6461134014	 0.124035
H	-2.0424518345	-0.2668102052	 0.7726830093	 0.117201
H	-0.1666776947	-0.8335267282	-0.7879573199	 0.088175
H	 0.9620960644	 1.6486668962	-0.153891399	 0.280769
H	-0.248216359	 0.491852288	 2.813297824	 0.119393
H	 1.4293876667	-0.0103022849	 3.11071374	 0.135359
H	 1.102190662	 1.380271765	 2.0848788682	 0.10555
H	 0.7034463306	-2.3373085149	 2.5174880921	 0.08451
H	 1.1384869063	-3.931164894	 0.5334172249	 0.11024
H	-0.0732366827	-2.9772334024	-0.3376430049	 0.104602
H	 2.9572419658	-2.6091310073	-0.2995574681	 0.106456
H	 1.8860143781	-1.4749951762	-1.1480990119	 0.126213
52.7027	174.0736	210.0601	219.7862	230.5944	248.8541	282.186	313.2288	320.4103	380.1166	467.6651	517.8858	532.0734	672.3716	776.8456	786.1188	812.559	822.0857	907.5008	953.611	961.3079	998.3868	1008.9548	1027.7625	1058.7517	1065.482	1096.0013	1111.0413	1127.6526	1160.1331	1215.0298	1217.0897	1260.2918	1281.5039	1303.6368	1316.8847	1364.9834	1402.1494	1410.5586	1417.742	1432.971	1485.6625	1489.9828	1492.3906	1498.8801	1507.3477	1515.6883	3029.3745	3036.2825	3050.3041	3070.1957	3086.6757	3093.7384	3105.0129	3108.8026	3120.204	3125.0781	3129.6569	3138.1307	3809.6518
CC(O)C1(C)C2CCN12	C[C@@H](O)[C@@]1(C)[C@H]2CCN12	
InChI=1S/C7H13NO/c1-5(9)7(2)6-3-4-8(6)7/h5-6,9H,3-4H2,1-2H3	InChI=1S/C7H13NO/c1-5(9)7(2)6-3-4-8(6)7/h5-6,9H,3-4H2,1-2H3/t5-,6-,7+,8?/m1/s1
