20
gdb 46381	3.75077	0.90929	0.7728	2.75	80.53	-0.2364	-0.0181	0.2184	1481.9142	0.170082	-403.121473	-403.112554	-403.11161	-403.156209	32.781	
O	-0.8823953948	 0.2476063626	 0.6571220666	-0.301003
C	-0.385219056	 1.2611838632	 0.2585580652	 0.38821
C	-0.8785273784	 2.7085996504	 0.1013281544	-0.338491
C	 0.6190843903	 3.1386751801	 0.0309289086	-0.244162
C	 1.0513066932	 1.6456796264	-0.1404594388	-0.09189
C	 2.1902387352	 1.0438154974	 0.6698598061	-0.164429
N	 3.4888627889	 1.3938636604	 0.1045315064	-0.065578
C	 4.1303425953	 2.5965928723	 0.6290591391	-0.218839
C	 4.6377330911	 1.2446159424	 0.9901194384	-0.22115
H	-1.4167338576	 2.8500711489	-0.8417366591	 0.132996
H	-1.4958839105	 3.0982066693	 0.9144237632	 0.128348
H	 0.8917472721	 3.8155705367	-0.7789205631	 0.111642
H	 0.9674069038	 3.5601112261	 0.9772538516	 0.109671
H	 1.2088608485	 1.4088022687	-1.2001455829	 0.114827
H	 2.0993168423	 1.3514178926	 1.7286250538	 0.079677
H	 2.09180339	-0.0476913678	 0.6460977034	 0.124207
H	 4.6549974045	 3.2102442091	-0.0975605643	 0.117401
H	 3.6132901075	 3.154305029	 1.4085042559	 0.108538
H	 4.4562105492	 0.9028843577	 2.0081594664	 0.111188
H	 5.5397834153	 0.8500468043	 0.5314312191	 0.118835
62.5779	73.2763	93.7765	125.0749	239.7107	314.7864	345.7253	406.4766	480.3313	546.1258	673.2359	724.4056	772.1323	796.5779	838.7991	868.9323	895.9654	931.5746	958.0536	999.1148	1024.6156	1041.9524	1086.1679	1104.7618	1114.2741	1119.4851	1138.8048	1172.9929	1183.3216	1198.9631	1225.1049	1230.7666	1260.1405	1282.0071	1317.8154	1331.5835	1391.6643	1441.7158	1484.2845	1490.5278	1496.3598	1521.4517	1885.4105	2925.0894	3041.0603	3057.8536	3060.2437	3073.3181	3093.2554	3097.8732	3113.4617	3136.4103	3176.79	3191.0003
O=C1CCC1CN1CC1	O=C1CC[C@H]1CN1CC1	
InChI=1S/C7H11NO/c9-7-2-1-6(7)5-8-3-4-8/h6H,1-5H2	InChI=1S/C7H11NO/c9-7-2-1-6(7)5-8-3-4-8/h6H,1-5H2/t6-/m0/s1
