19
gdb 75905	2.74298	1.43863	1.17845	2.7631	76.41	-0.2531	0.0251	0.2782	1110.0233	0.160723	-419.202485	-419.19414	-419.193196	-419.235525	31.852	
C	 0.0694091292	 1.6310862588	-0.0544820828	-0.395434
C	 0.0002569878	 0.0976650747	 0.0450070448	-0.185948
C	 0.7300479385	-0.5469252835	-1.1230367689	 0.418625
N	 0.3037130496	-0.5834944235	-2.310223061	-0.545506
O	 1.9256045266	-1.0619481987	-0.707760658	-0.242961
C	 2.1229286284	-0.8307172129	 0.6975812882	-0.132226
C	 0.7460852403	-0.486551342	 1.2389727803	 0.310111
C	 0.4767078996	-0.1446517507	 2.6499067516	-0.303673
N	 0.1335971783	-1.4841381937	 2.1291601583	-0.352422
H	 1.1052274629	 1.9853122242	-0.0360069832	 0.12262
H	-0.3837006739	 1.9609807882	-0.9924038146	 0.146181
H	-0.4629459836	 2.0999392276	 0.7781892811	 0.116132
H	-1.0476993033	-0.2149811126	 0.0290937751	 0.104076
H	 0.9787344891	-1.0451608358	-2.9223220733	 0.22193
H	 2.5239063944	-1.7393142261	 1.1507927273	 0.133969
H	 2.8404466538	-0.0100352605	 0.8235764202	 0.111647
H	 1.2857803109	-0.1300413556	 3.3760941819	 0.122224
H	-0.3258087364	 0.5578051721	 2.8606646784	 0.117614
H	-0.8677859623	-1.5414210899	 1.9562958948	 0.233041
64.671	147.8101	209.9174	227.5394	248.9448	279.711	357.9391	460.8241	471.4841	528.5453	674.9333	679.7325	779.5916	815.8587	843.8453	891.1683	916.7782	932.5163	970.7803	991.9315	1018.1199	1053.7819	1072.4861	1088.9643	1112.5473	1122.5444	1148.2414	1225.4901	1247.1685	1266.1852	1281.6168	1322.4731	1330.7642	1378.949	1407.3649	1435.6391	1493.4572	1498.8754	1514.1078	1517.9251	1776.5807	3026.7798	3040.5814	3068.7894	3102.8972	3110.4843	3115.6866	3128.1711	3185.2982	3472.272	3490.4372
CC1C(=N)OCC11CN1	C[C@H]1[C]([NH])OC[C@]21CN2	
InChI=1S/C6H10N2O/c1-4-5(7)9-3-6(4)2-8-6/h4,7-8H,2-3H2,1H3	InChI=1S/C6H10N2O/c1-4-5(7)9-3-6(4)2-8-6/h4,7-8H,2-3H2,1H3/t4-,6-/m0/s1
