19
gdb 69254	2.628	1.5363	1.17879	2.1929	76.36	-0.2362	-0.0146	0.2216	1096.7841	0.159252	-423.043726	-423.035504	-423.034559	-423.076369	32.024	
C	 0.0107624143	 1.4911351092	-0.0632866195	-0.446815
C	-0.0316865698	-0.0148968407	 0.0190285219	 0.404757
C	-0.8389438858	-0.7225933853	 1.0561578615	-0.331684
C	 0.6941878933	-0.7411104951	 1.1451491738	-0.185177
C	 1.4765876298	-1.9751778927	 0.8462008399	 0.390957
O	 2.2759699714	-2.4328993486	 1.6331114264	-0.327935
C	 1.2731102215	-2.5508519232	-0.5481911578	-0.318201
C	 1.1162344927	-1.4008442912	-1.5515689138	-0.09683
O	-0.0348329474	-0.6299816783	-1.2476175431	-0.296113
H	 0.9367398964	 1.8287072418	-0.5401110634	 0.125037
H	-0.8316358548	 1.8583315271	-0.6578569843	 0.132308
H	-0.0467584291	 1.9408578748	 0.9319712284	 0.119362
H	-1.3537287511	-0.1497934064	 1.819370927	 0.123824
H	-1.3391848411	-1.6330550571	 0.7476773012	 0.128041
H	 1.1252065732	-0.1439265885	 1.9414899371	 0.108464
H	 2.123735463	-3.1958357097	-0.7832508107	 0.124233
H	 0.3627470202	-3.1623959681	-0.5738047255	 0.127786
H	 2.0207599548	-0.7730371002	-1.5544439832	 0.101584
H	 0.9659890585	-1.7783587777	-2.566446406	 0.116403
89.108	133.4472	221.2543	232.2956	321.2177	341.2529	410.0497	434.8673	463.2416	501.5678	571.9512	658.3385	721.6806	760.7786	844.5269	871.8341	890.6068	927.2822	942.6139	1002.8812	1030.3762	1052.6588	1074.9393	1104.3985	1116.0621	1126.0971	1197.1719	1230.6807	1253.602	1274.5927	1298.4756	1336.1976	1389.2178	1404.7044	1421.392	1451.4118	1478.1725	1481.5941	1497.7246	1507.2644	1798.721	2988.0122	3036.6532	3039.9217	3093.6251	3104.9478	3109.5627	3116.6058	3140.4652	3173.7536	3233.5552
CC12CC1C(=O)CCO2	C[C@]12C[C@H]1C(=O)CCO2	
InChI=1S/C7H10O2/c1-7-4-5(7)6(8)2-3-9-7/h5H,2-4H2,1H3	InChI=1S/C7H10O2/c1-7-4-5(7)6(8)2-3-9-7/h5H,2-4H2,1H3/t5-,7-/m0/s1
