19
gdb 52727	5.03762	0.58272	0.54695	4.3425	82.89	-0.2578	0.0068	0.2645	1998.9825	0.155732	-423.030208	-423.019203	-423.018259	-423.069684	36.431	
C	-0.1031789086	 1.4636662748	 0.0172799819	-0.497482
C	 0.0068253548	 0.0117954528	-0.0028622226	 0.057353
C	 0.0974493508	-1.1891180595	-0.0033750012	 0.064071
C	 0.2051286329	-2.6467694137	-0.0434705526	-0.154928
C	-1.1768302328	-3.3266051472	-0.0412663929	-0.395741
C	 1.0450996929	-3.0499813016	-1.2688936508	-0.080264
O	 1.3059889523	-4.4570862767	-1.2426602359	-0.178747
C	 0.9185561587	-5.2054737212	-2.2929527722	 0.171249
O	 1.1036491729	-6.3831229926	-2.3506665764	-0.273608
H	 0.2339413592	 1.8741979864	 0.9753381317	 0.151571
H	 0.5062581312	 1.9192323608	-0.7708660895	 0.149741
H	-1.1386365182	 1.7865707403	-0.1363894943	 0.150563
H	 0.7569936527	-2.9871101324	 0.8430805663	 0.12087
H	-1.7577517097	-3.0260421304	-0.9192772534	 0.121288
H	-1.0685842166	-4.414261813	-0.0447909692	 0.13535
H	-1.7406440278	-3.0390266156	 0.8491074856	 0.131831
H	 0.5218411089	-2.7756713263	-2.1937935351	 0.116795
H	 2.0092036492	-2.5348266	-1.2515970315	 0.131254
H	 0.4188512869	-4.609355335	-3.081777138	 0.078831
10.0054	40.5142	53.4867	88.7581	141.1629	165.8518	241.4964	248.2138	292.4342	327.9983	378.7736	387.7827	498.275	523.1304	665.6331	758.9657	877.0175	925.3685	1023.9674	1044.9024	1047.4471	1053.1339	1053.77	1113.625	1120.1563	1174.0217	1210.2732	1293.9537	1316.2443	1352.4013	1390.862	1407.8914	1415.2382	1431.8155	1477.9906	1478.4689	1494.7692	1497.305	1504.4625	1867.1667	2371.3437	2943.9052	3016.8036	3028.7314	3030.7569	3044.2611	3090.0024	3090.4605	3098.6689	3117.9535	3130.8594
CC#CC(C)COC=O	CC#C[C@@H](C)COC=O	
InChI=1S/C7H10O2/c1-3-4-7(2)5-9-6-8/h6-7H,5H2,1-2H3	InChI=1S/C7H10O2/c1-3-4-7(2)5-9-6-8/h6-7H,5H2,1-2H3/t7-/m1/s1
