19
gdb 33785	3.48946	1.37431	1.18461	1.8273	81.04	-0.2408	0.0272	0.268	1090.814	0.160362	-385.852324	-385.844585	-385.843641	-385.884138	31.432	
C	 0.0186949436	-1.2106084136	-0.0799630283	-0.350054
C	-0.0104467949	-0.010925673	-0.0107046929	 0.168967
C	-0.0206435693	 1.4341489144	 0.0957717823	 0.243283
C	-0.9512242807	 2.1093672289	 1.1417782235	-0.296803
C	-1.1483621824	 3.1269127506	 0.0009848157	 0.093714
C	-0.056165838	 4.1949492854	-0.0338716358	-0.199034
C	 1.2851330048	 3.5747740989	 0.4288161579	-0.229919
C	 1.3837612007	 2.0676393406	 0.0874899708	-0.23423
O	-0.7819898578	 2.0987281393	-0.9670780417	-0.323973
H	 0.0358425859	-2.2703751115	-0.1473708729	 0.189219
H	-1.8440196186	 1.5093360791	 1.3163037972	 0.120186
H	-0.5181349794	 2.4375536174	 2.0881788866	 0.103776
H	-2.1513688276	 3.5196632691	-0.1830733007	 0.07794
H	 0.0104184362	 4.5593069315	-1.0646494603	 0.112547
H	-0.3199918277	 5.0507290969	 0.5984192	 0.093553
H	 2.1324201948	 4.1171408886	-0.0003759393	 0.101918
H	 1.3720316999	 3.6941586859	 1.5140119098	 0.10556
H	 2.0436782814	 1.5548584697	 0.7947709893	 0.104367
H	 1.7914960291	 1.9105023819	-0.915901701	 0.118985
140.1751	141.2699	213.6777	292.1329	387.4688	416.5907	445.0725	519.9001	528.6575	598.7062	620.1443	631.3407	673.2037	789.785	825.1956	843.0263	891.4014	912.6546	931.8615	939.6183	960.7161	1005.6445	1044.6784	1076.5545	1110.036	1178.2114	1189.3107	1197.6256	1225.4428	1250.4522	1266.5876	1317.0606	1335.5743	1355.8314	1365.8723	1383.7332	1472.6326	1476.5735	1485.2718	1510.8061	2237.7543	3034.0874	3043.3992	3049.9449	3073.5002	3077.8261	3085.4839	3086.9761	3100.3283	3149.0551	3501.7122
C#CC12CC(CCC1)O2	C#C[C@@]12C[C@@H](CCC1)O2	
InChI=1S/C8H10O/c1-2-8-5-3-4-7(6-8)9-8/h1,7H,3-6H2	InChI=1S/C8H10O/c1-2-8-5-3-4-7(6-8)9-8/h1,7H,3-6H2/t7-,8+/m1/s1
