19
gdb 11336	3.91563	1.48117	1.21004	2.7892	74.52	-0.2382	0.0361	0.2743	1063.7728	0.165624	-365.093279	-365.084753	-365.083809	-365.126868	30.732	
C	 0.2230541129	 1.4145031125	 0.1000849611	-0.329609
N	-0.1020598686	 0.0175736977	-0.1413992728	-0.329057
C	 0.4410247055	-0.5876813717	-1.1026076852	 0.438656
C	 0.1922021611	-2.030123567	-1.4879054718	-0.317985
C	 1.4182802331	-2.374886039	-2.3440065118	-0.240573
C	 1.810232508	-1.0054946163	-2.9360327395	 0.125574
C	 1.184230916	-0.7042314352	-4.2935822377	-0.392011
O	 1.3561895406	-0.0381859704	-1.9652215877	-0.257084
H	 1.1425824283	 1.753407598	-0.3910261233	 0.118648
H	-0.6023411512	 2.0495259392	-0.2462342798	 0.120764
H	 0.315336878	 1.5760293247	 1.179146619	 0.118012
H	 0.0658304037	-2.6554376335	-0.604142659	 0.133193
H	-0.7348957438	-2.0926709893	-2.0690015539	 0.127733
H	 2.2273675976	-2.7565551229	-1.7143849917	 0.114187
H	 1.2172328062	-3.116103333	-3.1203955833	 0.108411
H	 2.8965376879	-0.8879158337	-2.9994919585	 0.089067
H	 0.1002327235	-0.857587013	-4.272847854	 0.122244
H	 1.3767873081	 0.333150808	-4.5797236992	 0.131361
H	 1.6092641032	-1.3595158751	-5.0608073108	 0.118469
54.4171	83.1405	131.2186	216.262	239.7296	253.9499	355.0664	422.5494	485.2618	572.3639	666.3629	704.2745	794.0797	812.4601	899.4981	946.5376	968.8242	1000.298	1046.9258	1056.0949	1100.113	1125.2798	1130.1672	1154.1358	1194.7063	1213.5601	1227.1555	1310.1302	1327.4307	1363.1735	1388.9559	1410.613	1437.9386	1475.896	1487.2917	1492.4141	1496.4803	1499.7457	1501.7242	1801.2426	3012.3288	3037.1553	3049.3766	3053.0932	3065.9183	3068.9335	3088.1453	3109.2952	3113.2276	3121.6624	3133.7122
CN=C1CCC(C)O1	CN=C1CC[C@@H](C)O1	
InChI=1S/C6H11NO/c1-5-3-4-6(7-2)8-5/h5H,3-4H2,1-2H3	InChI=1S/C6H11NO/c1-5-3-4-6(7-2)8-5/h5H,3-4H2,1-2H3/t5-/m1/s1
