15
gdb 42924	2.98862	1.32632	1.01994	1.5219	65.66	-0.2513	-0.0395	0.2118	1124.3743	0.111038	-457.700689	-457.693058	-457.692114	-457.733687	27.873	
O	-0.2608158094	-0.0023907578	-0.0387882739	-0.289527
C	-0.1831936882	 1.1848978718	 0.0343468997	 0.407423
C	-1.1703311123	 2.3420428054	-0.0892655236	-0.117063
O	-0.8970476823	 3.1689701312	 1.0653433093	-0.229964
C	-0.0329627067	 3.2963888941	-0.0569278508	 0.013903
C	 1.0281850665	 2.1897894507	 0.0938555945	-0.181365
C	 1.9095374226	 2.2218075726	 1.3088129049	 0.07635
C	 3.1252654134	 1.4042195823	 1.3943824306	-0.176131
O	 3.2062396102	 2.8075057327	 1.1407917155	-0.238192
H	-2.1571726598	 2.4058857835	-0.5304911912	 0.132354
H	 0.0456149683	 4.2623035954	-0.5394410565	 0.130335
H	 1.63268905	 2.0499754499	-0.809645119	 0.115417
H	 1.4052169761	 2.4999203581	 2.2328092056	 0.11428
H	 3.4868904829	 1.0802327192	 2.3687222044	 0.122093
H	 3.3985113486	 0.7600119108	 0.5597488404	 0.120088
63.5516	112.9956	155.606	206.6872	311.8984	358.0634	526.4051	543.7199	624.0093	728.3749	811.9826	846.8153	851.9584	864.266	888.9086	938.2533	944.778	1005.1157	1021.7462	1064.8929	1100.4579	1147.1829	1159.2697	1166.5368	1183.7326	1210.4263	1243.1535	1280.1265	1288.4213	1342.1945	1444.4254	1529.7599	1904.4002	3061.6313	3086.9757	3131.6034	3175.019	3200.5615	3214.0021
O=C1C2OC2C1C1CO1	O=C1[C@H]2O[C@H]2[C@H]1[C@H]1CO1	
InChI=1S/C6H6O3/c7-4-3(2-1-8-2)5-6(4)9-5/h2-3,5-6H,1H2	InChI=1S/C6H6O3/c7-4-3(2-1-8-2)5-6(4)9-5/h2-3,5-6H,1H2/t2-,3+,5+,6-/m1/s1
