20
gdb 26357	2.53872	1.44866	1.01788	1.6079	83.34	-0.1717	0.0587	0.2304	1214.6276	0.171924	-399.340243	-399.330715	-399.32977	-399.374092	36.144	
C	 0.2634653696	 1.095912184	-0.4972305091	-0.340344
N	 0.0197529643	-0.1750477105	 0.1854783309	-0.163135
C	 0.5442066353	-0.1784651528	 1.538807263	-0.319607
C	-1.3116725312	-0.6396661285	 0.0682763424	 0.234806
C	-2.2842528619	-0.7647431365	 1.0426407042	-0.170498
N	-3.4023943366	-1.2926939393	 0.4514004361	-0.257039
C	-3.1670395127	-1.5131265286	-0.8901139803	-0.156337
C	-1.8753207299	-1.1205325966	-1.1571173045	 0.172122
N	-1.1865117068	-1.1121423087	-2.3878377243	-0.617352
H	 1.3411329049	 1.2905000589	-0.5315942868	 0.10571
H	-0.1147049029	 1.043013164	-1.520275009	 0.146142
H	-0.225274064	 1.9470900274	 0.0096112661	 0.094209
H	 0.0639360488	 0.5714326807	 2.1956458024	 0.09182
H	 0.4022529828	-1.1659650202	 1.9863266558	 0.120834
H	 1.6160715021	 0.044448169	 1.5150757998	 0.112196
H	-2.2616648998	-0.5377736298	 2.0951397685	 0.110252
H	-4.248712122	-1.5341766237	 0.9322086724	 0.25599
H	-3.9254510064	-1.9296662679	-1.5327688944	 0.102789
H	-1.5765916617	-1.7713473841	-3.0502110049	 0.234404
H	-0.2080978518	-1.3386866769	-2.2395600983	 0.243039
64.3315	158.4085	182.294	246.4022	258.19	273.6161	278.779	309.5368	322.5235	379.7415	450.9679	517.3972	595.5002	613.3052	618.9175	709.3828	718.6856	742.4811	839.9133	899.2596	957.6427	1070.4344	1078.1362	1089.0364	1122.9869	1150.5847	1185.1586	1196.0279	1218.8441	1287.135	1304.1773	1374.6849	1435.7393	1440.2281	1466.4144	1479.2838	1480.6568	1497.4161	1502.1205	1517.1324	1582.3474	1628.0997	1655.7578	2924.8878	2947.8628	3056.313	3059.2733	3110.0654	3124.5262	3261.437	3272.6839	3502.7208	3599.838	3706.4231
CN(C)C1=CNC=C1N	CN(C)c1c[nH]cc1N	
InChI=1S/C6H11N3/c1-9(2)6-4-8-3-5(6)7/h3-4,8H,7H2,1-2H3	InChI=1S/C6H11N3/c1-9(2)6-4-8-3-5(6)7/h3-4,8H,7H2,1-2H3
