17
gdb 125125	3.04123	1.2343	0.89231	6.5035	73.3	-0.2208	-0.0135	0.2073	1262.6905	0.135954	-455.146697	-455.137536	-455.136592	-455.181644	32.56	
C	-0.6887488298	 1.4982670895	-0.1245132129	-0.50292
C	-0.1575721022	 0.1166024759	 0.0752418426	-0.069353
C	-0.1780513901	-0.8926025803	-0.9722736064	 0.448304
O	-0.5816846998	-0.8810146582	-2.1042487324	-0.371033
O	 0.3930533123	-2.0553803157	-0.4259820986	-0.259601
N	 0.6463325354	-1.803551043	 0.9300150418	-0.216565
C	 0.4105401008	-0.4588888245	 1.1595942131	 0.33223
C	 0.7693338823	 0.0980883132	 2.5083252231	-0.276153
N	 1.3085146865	-0.9532095625	 3.3737004296	-0.52024
H	 1.7226274364	-0.5419150922	 4.2024881062	 0.242231
H	 0.5630146989	-1.5664600147	 3.6879757129	 0.246671
H	 1.5605291771	-2.1621991799	 1.1900823982	 0.278706
H	-0.8640642559	 2.0066035144	 0.8279558442	 0.116973
H	 0.00117381	 2.1160141924	-0.7115528513	 0.139652
H	-1.6316873584	 1.4654821896	-0.6791456395	 0.149446
H	 1.5492452729	 0.856710922	 2.3710051496	 0.141651
H	-0.1047840864	 0.630974834	 2.9180208398	 0.119999
40.4508	64.9682	139.5649	180.288	240.1542	250.0512	281.3852	353.151	394.463	556.2593	572.3334	600.0261	667.0065	717.7784	760.4987	769.8023	861.8205	933.4561	975.319	1039.3628	1062.7687	1064.8655	1079.2651	1145.7117	1175.969	1252.8937	1320.6163	1336.9648	1414.798	1418.7899	1438.5822	1476.5887	1492.9238	1495.8143	1658.2851	1700.1564	1860.6606	2963.6186	3030.77	3050.9892	3085.4607	3113.374	3510.0476	3536.5271	3592.2218
CC1=C([O-])ON=C1C[NH3+]	Cc1c(=O)o[nH]c1CN	
InChI=1S/C5H8N2O2/c1-3-4(2-6)7-9-5(3)8/h8H,2,6H2,1H3	InChI=1S/C5H8N2O2/c1-3-4(2-6)7-9-5(3)8/h7H,2,6H2,1H3
