24
gdb 122177	2.80738	0.83947	0.73785	0.6756	87.4	-0.221	0.082	0.3031	1674.8359	0.214665	-405.508843	-405.49779	-405.496846	-405.545362	39.792	
C	 0.1364277165	 1.3077524531	 0.1299829955	-0.228192
O	 0.0389389378	-0.0620987794	-0.172509106	-0.228968
C	-1.251519864	-0.5861192308	 0.0576603178	-0.056221
C	-1.2269716629	-2.0668033315	-0.3166118024	-0.279935
C	-2.5449575577	-2.798094289	-0.0952764163	 0.335803
C	-3.7214156711	-2.2819811491	-0.9058971988	-0.445679
C	-2.4865258669	-4.2596058961	 0.217023236	-0.298365
N	-2.9336016097	-3.3086788696	 1.2287292947	-0.110335
C	-2.0905991992	-3.1176708653	 2.3980465716	-0.316712
H	 1.1626200313	 1.6186982465	-0.0812639074	 0.126019
H	-0.5510764452	 1.9132960774	-0.4824430579	 0.102344
H	-0.0845707893	 1.5107077779	 1.1903663526	 0.102198
H	-1.5356717026	-0.4562785582	 1.1160213561	 0.088272
H	-1.99602795	-0.0382484567	-0.5431116927	 0.088063
H	-0.9536576095	-2.1474741495	-1.3757626539	 0.108399
H	-0.4170942815	-2.543345852	 0.2422927501	 0.107937
H	-3.4910322322	-2.2894363532	-1.9775415391	 0.111395
H	-4.6005373156	-2.9070627741	-0.7337212273	 0.123905
H	-3.9865471601	-1.2569012701	-0.6261490447	 0.118256
H	-3.2409138447	-4.9421184035	-0.1688538262	 0.106318
H	-1.4974644248	-4.7025482447	 0.3369491412	 0.100067
H	-1.0081954213	-3.1914625241	 2.2101555065	 0.102162
H	-2.2962582279	-2.1380272835	 2.8421276513	 0.12075
H	-2.3501472392	-3.8809885643	 3.1392843793	 0.122518
60.3304	71.8427	123.1857	128.0556	183.1159	196.4916	230.8197	234.5921	274.0592	323.4397	351.1261	388.8887	440.6997	475.3875	522.0466	721.1201	759.8299	798.5543	911.6989	921.5781	980.9827	1000.5879	1022.2045	1060.4358	1080.4772	1116.0771	1130.0712	1154.5257	1164.091	1173.2077	1185.9841	1203.2343	1229.9146	1238.9501	1284.0063	1306.5066	1327.1342	1390.8438	1414.6627	1426.7403	1449.2469	1478.8779	1481.2909	1485.0942	1486.5528	1492.5614	1497.9629	1504.6023	1510.0393	1516.9941	1532.6524	2953.6978	2969.1914	2980.6102	2983.699	3008.4367	3031.1234	3041.5326	3061.7364	3076.5996	3092.5256	3094.2382	3095.5723	3111.7114	3122.5967	3160.2061
COCCC1(C)CN1C	COCC[C@@]1(C)CN1C	
InChI=1S/C7H15NO/c1-7(4-5-9-3)6-8(7)2/h4-6H2,1-3H3	InChI=1S/C7H15NO/c1-7(4-5-9-3)6-8(7)2/h4-6H2,1-3H3/t7-,8?/m0/s1
