17
gdb 133763	1.95967	1.38759	1.0362	1.6307	57.59	-0.2333	0.0684	0.3017	1187.9157	0.131677	-586.637685	-586.628059	-586.627115	-586.672831	34.207	
C	 0.4058603819	 1.2101983962	 0.5184871656	-0.321109
N	-0.2927588192	 0.2135558673	-0.2858186201	-0.281753
C	 0.5157968114	-0.3983295544	-1.3272133877	-0.149279
C	 1.2797886751	-1.6548104045	-0.8519427421	-0.088759
O	 0.4373350049	-2.5525512774	-0.1474548725	-0.421576
C	-0.3754867741	-0.7297664028	-2.5264193953	 0.295426
F	-1.0149191456	 0.3365558828	-2.998778225	-0.058787
F	 0.3504014884	-1.2491746898	-3.5342313914	-0.086248
F	-1.3114407647	-1.6550078979	-2.2043763703	-0.104476
H	 1.3369902505	 0.8543221525	 0.991830109	 0.100623
H	 0.6549873403	 2.0760071902	-0.104545139	 0.127605
H	-0.2613881473	 1.5565048687	 1.3124033081	 0.128168
H	-0.6422276783	-0.5320137266	 0.3083396435	 0.23168
H	 1.2403145463	 0.3331708844	-1.7029236079	 0.105822
H	 1.7811076911	-2.1411603343	-1.6993108069	 0.110612
H	 2.0503288163	-1.3457429631	-0.1398617388	 0.118976
H	-0.2181302671	-2.8898695611	-0.7677159492	 0.293076
58.6491	73.3016	142.9809	175.6867	204.1187	239.3969	299.3715	329.7076	349.1934	399.3754	428.5084	533.1657	561.9239	613.954	735.3091	774.153	833.7243	921.8785	968.3722	1046.8354	1091.6558	1113.1895	1144.5316	1164.3176	1191.9234	1215.3834	1253.0299	1281.795	1311.0521	1387.4743	1393.868	1433.5283	1461.4118	1490.1034	1503.606	1504.1578	1526.256	2958.0049	3021.4862	3060.2036	3062.8598	3092.5258	3111.0019	3519.5173	3816.8314
CNC(CO)C(F)(F)F	CN[C@@H](CO)C(F)(F)F	
InChI=1S/C4H8F3NO/c1-8-3(2-9)4(5,6)7/h3,8-9H,2H2,1H3	InChI=1S/C4H8F3NO/c1-8-3(2-9)4(5,6)7/h3,8-9H,2H2,1H3/t3-/m0/s1
