17
gdb 33337	5.11175	0.7541	0.71918	1.476	95.53	-0.2378	-0.0115	0.2263	1574.5124	0.135266	-347.470352	-347.462004	-347.46106	-347.503744	31.854	
C	 0.0129260175	-3.8294752867	-0.1006186177	-0.567426
C	 0.0174803582	-2.6220848854	-0.0631471174	 0.30213
C	 0.0218402152	-1.2624915654	-0.0215083753	-0.316811
C	 0.0263694841	-0.0512818555	 0.0159584627	 0.474787
C	 0.0369333104	 1.3955263056	 0.0755596512	-0.230942
C	-0.2105631778	 2.0988094772	 1.4700718132	-0.244872
C	 1.1363018845	 2.8131744915	 1.3271265232	-0.037183
C	 2.243307606	 1.8062397852	 1.1920614044	-0.275798
C	 1.4000387823	 2.1200989556	-0.0091162328	-0.044016
H	 0.009134737	-4.8904394336	-0.1332213689	 0.188412
H	-0.6609120647	 1.7973574064	-0.6654829867	 0.110837
H	-1.074280248	 2.7647777169	 1.4294031419	 0.111561
H	-0.313750206	 1.4309592997	 2.3295304957	 0.110189
H	 1.3262758569	 3.8427614814	 1.6031919251	 0.090397
H	 3.2470316697	 2.2174972871	 1.1643705177	 0.114953
H	 2.1708708599	 0.8349344576	 1.6755081543	 0.120367
H	 1.8195433949	 2.5140841824	-0.9262989805	 0.093415
67.2442	86.0164	172.0232	227.8991	298.6725	393.4387	438.5434	492.1716	513.8246	543.6193	584.9287	598.9537	659.6098	741.3774	783.7543	800.4383	902.7422	927.0508	961.2017	967.4424	1006.3959	1030.0821	1061.0594	1077.1743	1088.6313	1135.3431	1188.8136	1205.4095	1214.6228	1258.2054	1291.6226	1337.4417	1363.7878	1481.9589	1497.8291	2178.1993	2353.6559	3055.5532	3063.031	3114.0825	3121.9389	3183.7763	3191.4345	3207.6047	3506.0994
C#CC#CC1CC2CC12	C#CC#C[C@H]1C[C@H]2C[C@@H]12	
InChI=1S/C9H8/c1-2-3-4-7-5-8-6-9(7)8/h1,7-9H,5-6H2	InChI=1S/C9H8/c1-2-3-4-7-5-8-6-9(7)8/h1,7-9H,5-6H2/t7-,8-,9-/m0/s1
