19
gdb 111847	2.54886	1.50308	1.20386	2.6215	70.66	-0.2438	0.0786	0.3225	1099.0722	0.159057	-460.134826	-460.126216	-460.125272	-460.168051	32.496	
C	-0.1810506517	 1.542098954	-0.06709394	-0.469119
C	 0.0061999956	 0.0554492698	 0.0319124133	 0.369735
O	-0.539770865	-0.6854758831	-1.0520676282	-0.284045
C	-1.4039442092	-1.6394296555	-0.4688654495	 0.008351
O	-0.848132227	-1.985468733	 0.7914479484	-0.264979
C	-0.2050071328	-0.8031583041	 1.2381109012	-0.013299
C	 1.2032500623	-0.6063974121	 0.7094801321	-0.132984
C	 1.9389444154	-1.7830385099	 0.0908472296	-0.095218
O	 2.0131315305	-2.899343352	 0.9631231441	-0.427173
H	 0.339196801	 1.9371803523	-0.9456506811	 0.135453
H	-1.2417677659	 1.7986956888	-0.1544735718	 0.125813
H	 0.224680393	 2.0396843506	 0.8183279605	 0.123565
H	-2.4125234014	-1.2141763805	-0.3307717207	 0.096513
H	-1.443309115	-2.5297376953	-1.1019018294	 0.12537
H	-0.5246769831	-0.4473250107	 2.211787672	 0.106898
H	 1.8081813809	 0.0655452215	 1.3137273438	 0.092706
H	 1.4680520889	-2.0476625665	-0.8641029436	 0.104407
H	 2.9720679185	-1.4943523358	-0.1245145127	 0.107801
H	 1.100521185	-3.1719966884	 1.1158967521	 0.290205
80.4949	154.9071	179.3649	205.1496	218.6531	284.6842	318.6469	362.9122	482.7513	526.4066	634.9458	648.076	729.1848	761.965	812.0668	867.7503	932.3382	937.8955	1006.5541	1015.3803	1044.5651	1062.5952	1084.0936	1115.4859	1125.3088	1131.4748	1176.4987	1202.7601	1226.828	1238.5392	1272.7534	1323.0491	1390.9869	1413.8507	1418.8459	1433.4363	1451.3845	1480.4164	1498.89	1509.2746	1535.304	2959.9375	3025.6439	3036.4876	3082.4038	3099.2012	3103.3148	3116.6305	3140.5423	3166.2376	3791.0258
CC12OCOC1C2CO	C[C@]12OCO[C@H]1[C@H]2CO	
InChI=1S/C6H10O3/c1-6-4(2-7)5(6)8-3-9-6/h4-5,7H,2-3H2,1H3	InChI=1S/C6H10O3/c1-6-4(2-7)5(6)8-3-9-6/h4-5,7H,2-3H2,1H3/t4-,5+,6-/m1/s1
