17
gdb 33054	6.35573	0.78011	0.70096	4.2866	72.13	-0.1888	0.0449	0.2337	1557.7394	0.136	-455.188338	-455.179147	-455.178203	-455.223415	32.246	
C	-0.0606456883	 1.4204441067	 0.0110849302	-0.225675
O	 0.0094207084	 0.0136357083	 0.002073816	-0.226114
C	-1.2572517897	-0.5951857398	 0.0104915466	-0.16983
C	-1.0697742727	-2.0736213008	 0.0013678572	 0.301349
C	 0.0578307735	-2.8118951445	-0.0092828979	-0.165462
N	-0.3234453338	-4.1540366004	-0.0136612708	-0.338969
C	-1.7044509718	-4.2892585701	-0.006392522	 0.442841
O	-2.3719039314	-5.304716248	-0.0075548942	-0.434514
N	-2.1424513229	-2.9668149437	 0.0034619122	-0.414037
H	 0.9649188837	 1.795673998	 0.0036523105	 0.133315
H	-0.5891257079	 1.8078351435	-0.8740233244	 0.109251
H	-0.5723370683	 1.7972618147	 0.9105077844	 0.109256
H	-1.8343699618	-0.2839621594	 0.9020658861	 0.099566
H	-1.8504962674	-0.2752491443	-0.8673150984	 0.099474
H	 1.0842786398	-2.4937195746	-0.0138475307	 0.148056
H	 0.2855704226	-4.9520484012	-0.022048488	 0.267703
H	-3.1206872818	-2.7383438544	 0.0103304833	 0.263791
37.6518	68.4105	125.8142	173.3521	222.417	234.0988	342.0187	353.7908	369.0884	476.6842	524.4411	616.2048	716.6045	719.6502	762.1631	775.7075	976.044	1001.3953	1012.6164	1053.3309	1087.7711	1166.3054	1183.8731	1190.7198	1217.5538	1240.3127	1244.9151	1353.5754	1389.7091	1396.308	1457.1131	1484.116	1484.7956	1503.114	1527.9019	1699.6118	1844.3603	2917.5226	2927.7336	2974.0892	3019.5	3122.1683	3306.6691	3692.486	3703.4954
COCC1=CNC(=O)N1	COCc1c[nH]c(=O)[nH]1	
InChI=1S/C5H8N2O2/c1-9-3-4-2-6-5(8)7-4/h2H,3H2,1H3,(H2,6,7,8)	InChI=1S/C5H8N2O2/c1-9-3-4-2-6-5(8)7-4/h2H,3H2,1H3,(H2,6,7,8)
