14
gdb 9442	2.92377	1.77204	1.66865	3.7505	63.34	-0.2655	-0.0022	0.2633	858.874	0.105378	-382.530408	-382.522583	-382.521638	-382.562496	28.297	
C	-0.1037909319	 1.5594691643	 0.0800983671	-0.445392
C	-0.0415073739	 0.0275320787	-0.0120085345	-0.084058
C	 0.8356022509	-0.5474192	-1.1594077107	-0.102796
O	 1.8173179158	-1.0299392642	-0.1902261635	-0.239264
C	 1.0836471137	-0.5819919749	 0.8734592518	 0.449363
O	 1.3354032088	-0.6619603479	 2.0289383324	-0.318679
C	-1.3414052158	-0.5942307659	 0.1545388773	 0.294603
C	-2.4196422507	-1.1071302466	 0.2894578665	-0.451655
H	 0.8901731602	 1.995155126	-0.0577236215	 0.131478
H	-0.7746008491	 1.958617069	-0.6851957717	 0.137405
H	-0.4803896965	 1.8577925354	 1.0610526769	 0.154665
H	 0.4000913661	-1.3762612883	-1.7178138423	 0.138951
H	 1.2813726071	 0.1917937104	-1.8278782614	 0.128509
H	-3.3703912847	-1.5634650361	 0.4172316033	 0.206869
116.2514	126.6445	188.0149	211.3664	231.7073	345.7819	398.1269	513.7824	578.985	636.3108	647.7183	655.8726	736.9698	783.048	878.8441	937.326	971.2491	983.9726	1102.6837	1144.7624	1156.612	1186.9042	1258.364	1342.758	1410.0199	1486.7747	1493.6425	1514.0632	1945.7573	2239.4077	3046.0915	3078.9999	3122.2059	3135.1267	3149.5465	3499.7886
CC1(COC1=O)C#C	C[C@]1(COC1=O)C#C	
InChI=1S/C6H6O2/c1-3-6(2)4-8-5(6)7/h1H,4H2,2H3	InChI=1S/C6H6O2/c1-3-6(2)4-8-5(6)7/h1H,4H2,2H3/t6-/m1/s1
