18
gdb 94392	3.07677	1.36803	1.2022	0.3432	71.33	-0.2536	0.0169	0.2706	1083.5791	0.148075	-439.082801	-439.074761	-439.073817	-439.115978	29.942	
C	 0.1479239539	 1.5658143859	-0.3943359527	-0.414945
C	 0.0091555284	 0.105237587	-0.0233103592	 0.111324
O	 0.8058956395	-0.7591292028	-0.8702020733	-0.293065
C	 1.3781973023	-1.4358120058	 0.2638386682	-0.119038
C	 0.7052122422	-0.4606065341	 1.2455243217	 0.296414
C	 1.563664338	 0.4300793931	 2.1745647913	-0.259855
N	 1.0361951944	 0.2098951289	 3.5310593921	-0.257773
C	 0.0930644877	-0.6220219033	 3.393211515	 0.10446
O	-0.2147255874	-1.0958527418	 2.1594488657	-0.250129
H	 1.1935322315	 1.8861382373	-0.3713823415	 0.125275
H	-0.230891405	 1.7229778618	-1.4087597569	 0.134891
H	-0.4329277816	 2.1970536875	 0.2866398969	 0.12506
H	-1.0462093696	-0.1995706532	-0.0395553019	 0.087645
H	 1.0231705924	-2.4687113888	 0.3658785265	 0.112491
H	 2.4749769375	-1.4226718864	 0.2434177047	 0.105187
H	 2.6238325735	 0.1559993739	 2.1376765699	 0.122563
H	 1.4965504724	 1.492347239	 1.920038817	 0.126323
H	-0.5260291299	-1.0166757083	 4.1910022664	 0.143172
68.6543	74.7599	208.1264	233.3708	281.545	338.8359	423.5128	465.4194	494.6163	526.746	755.171	802.5242	859.9826	882.1064	903.9332	937.0582	963.2228	987.0462	1021.7939	1027.3493	1074.6779	1096.4754	1129.3347	1141.9724	1158.554	1173.2731	1233.6605	1240.6935	1282.2663	1326.0536	1335.1337	1362.9062	1382.6248	1405.232	1479.317	1495.6335	1496.7952	1514.818	1712.7169	3009.2301	3017.3653	3037.7072	3043.1714	3063.9883	3079.6087	3110.8466	3117.9891	3219.4515
CC1OCC11CN=CO1	C[C@H]1OC[C@]21CN=CO2	
InChI=1S/C6H9NO2/c1-5-6(3-8-5)2-7-4-9-6/h4-5H,2-3H2,1H3	InChI=1S/C6H9NO2/c1-5-6(3-8-5)2-7-4-9-6/h4-5H,2-3H2,1H3/t5-,6+/m1/s1
