18
gdb 51187	4.58534	1.09987	1.04605	3.278	77.58	-0.2483	0.0196	0.2678	1181.7228	0.148055	-401.890877	-401.883172	-401.882228	-401.924056	29.558	
N	-0.0872151664	 1.2822601195	 0.0090381071	-0.443712
C	-0.0572663617	 0.0208864705	-0.0045356102	 0.105301
O	-1.2123937373	-0.6782129641	 0.0313309981	-0.241552
C	-1.0995544983	-2.0715964149	 0.0114538161	 0.412539
C	-0.6068609196	-2.834964999	-1.2500311712	-0.291382
C	-1.5202687557	-3.9596481676	-0.7623943262	-0.063476
C	-1.4572743154	-3.9767807349	 0.7749435841	-0.06359
C	-0.5061008152	-2.8623512504	 1.2112285335	-0.291401
C	-2.3645201798	-3.0104633137	 0.0528381441	-0.144653
H	 0.8612710417	 1.6506966684	-0.0220976728	 0.22939
H	 0.8395898461	-0.6103056222	-0.0437667892	 0.091876
H	-0.9991087673	-2.3730287345	-2.1597156761	 0.114515
H	 0.4685797132	-3.0220791154	-1.3514542152	 0.089809
H	-1.8543545138	-4.8262459568	-1.3167718386	 0.093966
H	-1.7456288264	-4.8558114993	 1.3353888459	 0.093969
H	 0.5738365679	-3.050786049	 1.2203015877	 0.089846
H	-0.8223063411	-2.4211701036	 2.1599969868	 0.114488
H	-3.424696381	-2.814315693	 0.0984893161	 0.104065
40.0406	85.768	156.4121	347.7399	352.4137	416.5849	448.421	491.6463	714.4322	721.8051	771.8982	783.1685	808.6334	823.618	913.9093	925.718	958.7149	959.8388	984.9478	1009.9762	1024.1399	1040.0398	1045.3295	1059.5379	1097.1455	1124.4973	1143.5775	1170.7173	1172.212	1236.8196	1245.9332	1285.2704	1297.6079	1321.03	1362.0459	1424.3878	1488.0443	1505.7433	1745.4656	3027.727	3032.8409	3040.6433	3105.3889	3107.5876	3202.6858	3209.6814	3240.487	3516.2856
N=COC12CC3C(C1)C23	[NH][CH]O[C@@]12C[C@H]3[C@@H](C1)[C@@H]23	
InChI=1S/C7H9NO/c8-3-9-7-1-4-5(2-7)6(4)7/h3-6,8H,1-2H2	InChI=1S/C7H9NO/c8-3-9-7-1-4-5(2-7)6(4)7/h3-6,8H,1-2H2/t4-,5+,6-,7-
