15
gdb 9233	4.40949	1.19271	1.03185	2.4843	63.92	-0.263	0.0023	0.2653	1105.5378	0.118207	-395.992672	-395.983972	-395.983027	-396.026409	30.563	
N	-0.2656293171	 1.1470725699	-0.5038602833	-0.546607
C	-0.1166516263	-0.1563705754	-0.1234568695	 0.364365
C	 1.3160549303	-0.6696451514	-0.0619347918	-0.105314
O	 1.3883098403	-1.9537944737	 0.4749627005	-0.418662
N	-1.0272394862	-0.9897841213	 0.2222221523	-0.312413
C	-2.4223036267	-0.5908538579	 0.2693755901	-0.289466
C	-2.9513973928	-0.0375570395	-0.9908053704	 0.248023
N	-3.3105237668	 0.4318435045	-1.9850501339	-0.31739
H	 0.5397718564	 1.6068491972	-0.9000230598	 0.265669
H	-1.1466898292	 1.4481220843	-0.8942310545	 0.280781
H	 1.7276155509	-0.6396798876	-1.0861617394	 0.107556
H	 1.9111199103	 0.0379796273	 0.5377811237	 0.111251
H	 0.4589989071	-2.2202415303	 0.5921630778	 0.291346
H	-3.0276593097	-1.4637902668	 0.5323475919	 0.164144
H	-2.5967312705	 0.1623050808	 1.0532152363	 0.156714
54.0184	100.022	118.4977	202.2947	240.2577	319.6129	373.5245	424.2704	447.48	455.543	501.1992	551.5064	625.324	715.7058	826.1606	908.8417	1004.6881	1012.8687	1038.4389	1141.7349	1171.3173	1255.8079	1270.97	1314.3437	1347.6959	1373.259	1465.9382	1482.8884	1513.8099	1662.2791	1737.0305	2344.2962	2955.7651	2986.6817	2997.6377	3077.7291	3569.6634	3621.5787	3676.1913
NC(CO)=NCC#N	NC(=NCC#N)CO	
InChI=1S/C4H7N3O/c5-1-2-7-4(6)3-8/h8H,2-3H2,(H2,6,7)	InChI=1S/C4H7N3O/c5-1-2-7-4(6)3-8/h8H,2-3H2,(H2,6,7)
