13
gdb 56421	4.15143	0.63028	0.57613	2.3695	71.46	-0.3051	-0.0289	0.2762	1790.3739	0.087369	-415.582069	-415.572629	-415.571685	-415.619093	31.449	
O	-0.685979167	 0.8797058154	 0.2800665241	-0.378395
C	 0.048707135	-0.257195935	-0.1245076781	-0.181671
C	 0.8436318859	 0.0173466675	-1.3475734224	 0.279304
N	 1.4563911563	 0.2571617653	-2.2965824952	-0.310492
C	 0.9181373136	-0.7994627632	 0.9258916519	 0.118467
C	 1.6228651554	-1.2234458988	 1.8014543326	 0.084664
C	 2.4890838369	-1.7442543969	 2.8559852702	-0.474851
C	 1.7968024344	-2.6634838052	 3.7681464443	 0.282407
N	 1.2643011486	-3.3873654735	 4.492396777	-0.28927
H	-0.0614786954	 1.552585412	 0.5770345074	 0.30266
H	-0.7070702406	-1.0076251375	-0.3870252102	 0.179463
H	 3.3447475046	-2.2701548241	 2.413679441	 0.195802
H	 2.9076336723	-0.9186203161	 3.4453085074	 0.191913
9.3921	65.1908	102.3626	140.8207	218.543	273.9696	309.0511	349.1079	373.2649	394.654	470.9386	538.6746	596.0243	629.4581	804.944	908.5184	933.2969	945.8439	1053.4739	1162.3244	1234.9823	1264.8762	1310.1022	1338.4489	1413.527	1443.0991	2361.8709	2373.9031	2385.1275	3032.3126	3049.4907	3064.2104	3798.6418
OC(C#N)C#CCC#N	O[C@@H](C#N)C#CCC#N	
InChI=1S/C6H4N2O/c7-4-2-1-3-6(9)5-8/h6,9H,2H2	InChI=1S/C6H4N2O/c7-4-2-1-3-6(9)5-8/h6,9H,2H2/t6-/m1/s1
