19
gdb 124833	4.16078	0.98816	0.90772	1.0116	78.12	-0.2419	0.0173	0.2593	1337.8003	0.160296	-419.230264	-419.221415	-419.220471	-419.264635	32.619	
C	-0.1092489516	 1.5118785916	 0.0524268886	-0.382928
C	-0.0566337488	-0.0085118881	 5.4827*^-6	 0.119646
O	-1.3806241205	-0.469690468	-0.2305344474	-0.436626
C	 0.889573623	-0.4957162813	-1.1116612761	-0.159931
N	 0.931473888	-1.9436417087	-1.1913725694	 0.055087
C	 0.1306498289	-2.7581888437	-1.9271172671	-0.061071
C	 0.4546581371	-4.055321472	-1.5836462717	-0.231391
C	 1.4689166194	-3.9156052744	-0.6154730964	-0.002782
N	 1.7518367124	-2.6370227118	-0.3745992409	-0.265494
H	 0.8831918857	 1.9314406389	 0.2415327315	 0.118309
H	-0.4858083573	 1.9138209669	-0.8938891145	 0.123706
H	-0.7824916959	 1.8353875402	 0.8497460419	 0.130702
H	 0.3241653386	-0.3997032374	 0.955494069	 0.091569
H	-1.3811691704	-1.4288922855	-0.1407710344	 0.293471
H	 0.5462779346	-0.1101594622	-2.0763524283	 0.120771
H	 1.9083184989	-0.1457872847	-0.9289737216	 0.130534
H	-0.5798710496	-2.3541143574	-2.6307856042	 0.138192
H	 0.0307442222	-4.9617775074	-1.9839168986	 0.105604
H	 2.0097522151	-4.6894373549	-0.090445153	 0.11263
49.6102	82.5787	94.1993	217.7262	266.3873	319.3186	342.4094	371.1475	460.3158	473.0697	636.7487	677.887	760.7955	765.9105	828.6293	845.749	893.4383	921.7441	933.8789	943.5364	988.1701	1055.8066	1066.971	1099.667	1113.8909	1161.0323	1206.0616	1250.4979	1286.3912	1319.8018	1339.9976	1372.5415	1392.8517	1405.4553	1427.7447	1441.6428	1466.9435	1479.5661	1486.3522	1501.886	1555.1889	2995.2634	3042.9342	3063.2475	3113.5801	3124.687	3128.42	3243.6553	3259.6523	3279.2284	3807.6382
CC(O)CN1C=CC=N1	C[C@@H](O)Cn1cccn1	
InChI=1S/C6H10N2O/c1-6(9)5-8-4-2-3-7-8/h2-4,6,9H,5H2,1H3	InChI=1S/C6H10N2O/c1-6(9)5-8-4-2-3-7-8/h2-4,6,9H,5H2,1H3/t6-/m1/s1
