19
gdb 98991	3.35522	0.85755	0.74007	3.2154	75.7	-0.2393	0.0147	0.254	1575.2035	0.158387	-456.417102	-456.406456	-456.405512	-456.454524	35.913	
C	 0.0904099586	 1.3682282327	-0.8473780152	-0.332172
N	 0.1685522452	-0.0590014131	-1.0808797203	-0.295563
C	 0.9243550284	-0.8783128114	-0.3130061605	 0.393322
O	 1.5699023761	-0.5283988543	 0.6600817735	-0.379985
C	 0.8726901153	-2.3658991042	-0.7172369455	-0.424762
C	 0.8970189752	-2.637952376	-2.2155110985	 0.4199
O	 0.0992346836	-2.1132291328	-2.9856790852	-0.392928
N	 1.8528928539	-3.5078067963	-2.6297640296	-0.304698
C	 2.0195099036	-3.8929174213	-4.0188679893	-0.336512
H	 0.6206618341	 1.583590482	 0.0810194861	 0.163968
H	 0.5557465726	 1.9353579352	-1.6622807973	 0.124499
H	-0.9512478593	 1.6930705967	-0.7511101182	 0.123583
H	-0.2421741899	-0.4703049652	-1.9116350575	 0.269154
H	 1.6860070654	-2.8595504026	-0.1832506354	 0.122921
H	-0.0717084381	-2.7739018799	-0.337326106	 0.155957
H	 2.4855301456	-3.8853151638	-1.9444274413	 0.254885
H	 2.9972337725	-3.5814479062	-4.4022062777	 0.1329
H	 1.9225040719	-4.9767524947	-4.1415886782	 0.131297
H	 1.2368265851	-3.3952895748	-4.5916287739	 0.174235
40.3504	67.2725	72.0272	84.3443	132.9892	153.2296	212.6286	267.0163	317.5601	391.4049	403.3398	477.8673	552.39	642.2349	674.0172	717.2953	783.6709	873.6974	913.005	961.8474	1061.1747	1108.9212	1150.5933	1154.2114	1169.5095	1178.9691	1183.4587	1252.2812	1272.1961	1339.59	1437.7457	1439.2594	1456.3331	1492.5528	1499.326	1500.1358	1501.7014	1566.6784	1594.8541	1745.8143	1787.2807	3025.535	3033.6904	3050.0799	3076.7386	3088.0914	3124.0382	3150.7945	3160.0323	3530.0406	3654.1822
CNC(=O)CC(=O)NC	CNC(=O)CC(=O)NC	
InChI=1S/C5H10N2O2/c1-6-4(8)3-5(9)7-2/h3H2,1-2H3,(H,6,8)(H,7,9)	InChI=1S/C5H10N2O2/c1-6-4(8)3-5(9)7-2/h3H2,1-2H3,(H,6,8)(H,7,9)
