21
gdb 82599	3.72488	1.30095	1.23402	1.735	81.35	-0.2432	0.0752	0.3184	1108.0283	0.184646	-387.054494	-387.046805	-387.04586	-387.086166	31.725	
C	-0.1990514794	 1.6272255622	-0.0598095234	-0.434322
C	 0.0480396713	 0.1275351921	 0.0280708214	 0.047824
C	 1.0967976627	-0.6169042668	-0.8575126685	-0.069153
C	 2.4128540793	 0.1182252205	-0.5198190343	-0.22167
C	 2.4062765583	-0.2757167226	 0.9713511297	-0.086071
C	 2.5691067024	-1.8196654708	 0.8437674061	 0.172074
O	 2.6712170922	-2.553969294	 2.0446825302	-0.459177
C	 1.1477002364	-1.7464884315	 0.258739096	-0.075054
C	 0.8382685019	-0.5137793037	 1.1800663357	-0.080642
H	 0.7045419344	 2.2152807312	 0.1223354885	 0.11865
H	-0.5898753667	 1.9073338182	-1.0448339278	 0.114855
H	-0.9405060524	 1.9337365087	 0.6864570662	 0.114615
H	-0.9094060258	-0.402467353	-0.054549122	 0.069015
H	 0.8901357723	-0.8499508589	-1.9023567787	 0.058402
H	 3.2838646012	-0.2849887973	-1.0455453795	 0.094756
H	 2.3695857808	 1.191040324	-0.7171214529	 0.094938
H	 3.0095746414	 0.295841951	 1.675997677	 0.062607
H	 3.3906420647	-2.1759585769	 0.2144086125	 0.075028
H	 1.898063419	-2.3618616514	 2.5861289614	 0.279333
H	 0.4908129232	-2.6103389715	 0.1557148439	 0.065902
H	 0.4564517327	-0.5791677994	 2.1998488186	 0.05809
164.3677	172.7781	224.9248	251.4941	323.2076	356.2622	447.0876	489.3775	559.4499	657.5675	696.3213	776.9441	819.2526	838.4412	851.1306	893.5926	922.7719	930.9525	941.2437	969.0727	983.534	1013.235	1056.5155	1059.9641	1077.4567	1095.1543	1131.3398	1137.7906	1155.8591	1180.0834	1194.517	1212.1555	1228.0367	1247.7873	1275.9087	1280.2492	1290.5016	1318.7107	1323.7332	1398.5697	1414.0908	1439.828	1492.9762	1496.9839	1524.8774	3024.6088	3031.6042	3053.6154	3063.3948	3088.8555	3096.8086	3102.478	3107.6251	3114.3066	3119.1333	3124.554	3807.3113
CC1C2CC3C(O)C2C13	C[C@H]1[C@H]2C[C@@H]3[C@@H](O)[C@H]2[C@H]13	
InChI=1S/C8H12O/c1-3-4-2-5-6(3)7(4)8(5)9/h3-9H,2H2,1H3	InChI=1S/C8H12O/c1-3-4-2-5-6(3)7(4)8(5)9/h3-9H,2H2,1H3/t3-,4+,5-,6+,7+,8+/m0/s1
