15
gdb 62344	3.81866	1.13245	1.10079	2.946	71.6	-0.2696	-0.0547	0.2149	1113.9871	0.111366	-416.783806	-416.775752	-416.774807	-416.816394	29.924	
C	-0.0670936903	 1.548050116	-0.0025682212	-0.481191
C	 0.0594655428	 0.0321838152	-0.0577865656	 0.141832
C	-1.0336314282	-0.6363911585	 0.6305054193	 0.273706
N	-1.9289044351	-1.1312060115	 1.1677380992	-0.325139
C	 0.5884487869	-0.740755276	-1.2391332394	-0.192949
N	 1.3186315894	-0.7265767856	 0.1001924615	-0.143707
C	 2.4211676297	 0.1052441753	-0.5046324417	-0.298315
C	 1.7233202653	 0.0256776693	-1.8773422107	 0.402193
O	 2.0350141148	 0.2726922836	-3.0024763438	-0.285756
H	 0.658963752	 2.0550621997	-0.6377081719	 0.147466
H	-1.0649556945	 1.8367079171	-0.3424006845	 0.159258
H	 0.0537962012	 1.898324284	 1.0267153786	 0.153642
H	 0.0727712144	-1.6088524092	-1.6336943284	 0.145333
H	 2.600273533	 1.0750118072	-0.0373756722	 0.143249
H	 3.3475058887	-0.4754377967	-0.5069119693	 0.160378
112.3969	137.4772	171.0011	184.1421	323.0755	339.9564	413.9336	442.9082	530.42	563.7367	570.1359	643.3847	670.5074	813.1897	837.0025	893.9118	969.6616	986.0199	1006.8661	1028.1194	1083.6445	1104.0073	1133.4184	1198.6077	1250.0728	1271.2081	1330.3435	1418.9476	1459.8158	1490.8245	1497.4276	1903.6062	2362.6193	3057.3326	3076.3881	3124.8251	3135.2524	3155.4182	3192.2635
CC1(C#N)C2N1CC2=O	C[C@@]1(C#N)[C@@H]2N1CC2=O	
InChI=1S/C6H6N2O/c1-6(3-7)5-4(9)2-8(5)6/h5H,2H2,1H3	InChI=1S/C6H6N2O/c1-6(3-7)5-4(9)2-8(5)6/h5H,2H2,1H3/t5-,6-,8?/m1/s1
