18
gdb 79719	2.48338	1.7722	1.43109	3.1704	74.68	-0.2322	-0.0349	0.1972	980.7172	0.147564	-401.889342	-401.881598	-401.880654	-401.921435	30.119	
C	-0.3269628596	 1.5994969971	 0.167064771	-0.421099
C	 0.0156088122	 0.1243221329	 0.0099474748	-0.106618
C	 0.6039985695	-0.4899905908	-1.2960989683	-0.074704
C	 1.7753828757	 0.208504684	-2.0107277525	-0.030139
C	 2.7934351919	 0.8063706523	-1.1228041132	-0.254944
N	 2.824420562	-0.6576670344	-1.3128138382	-0.142694
C	 1.6856283729	-1.2630385677	-0.4979912892	-0.093571
C	 1.2155383373	-0.4962641378	 0.7707730573	 0.363439
O	 1.6237112348	-0.3929545188	 1.8903877156	-0.296587
H	 0.4710723179	 2.241267672	-0.2152525788	 0.128273
H	-1.244138421	 1.84923673	-0.3750982179	 0.123117
H	-0.4809828464	 1.8410250901	 1.2232653505	 0.138525
H	-0.8548062165	-0.4869635034	 0.2922824678	 0.113571
H	-0.0847293875	-1.0036519245	-1.9634883502	 0.08353
H	 1.8137257392	 0.3535617032	-3.0858544557	 0.101708
H	 3.6317450971	 1.292536505	-1.6137399115	 0.12791
H	 2.5527173743	 1.2269487132	-0.152034384	 0.136995
H	 1.7651282663	-2.3484669926	-0.4448274475	 0.103287
115.425	167.3867	185.9814	211.9833	248.5589	388.7567	483.8895	553.3694	589.0642	640.8911	712.7944	741.6183	764.8564	830.7742	857.2795	889.4631	933.4796	945.8136	1010.7811	1017.6516	1059.1283	1067.9017	1089.607	1112.9994	1124.3726	1146.1746	1157.7806	1208.688	1224.3106	1228.5403	1249.5571	1315.4307	1321.0318	1371.9494	1402.6877	1490.0494	1501.0089	1515.943	1880.5846	3004.2934	3042.7567	3109.3224	3117.7246	3119.4304	3123.2767	3134.9843	3158.821	3204.8895
CC1C2C3CN3C2C1=O	C[C@H]1[C@H]2[C@H]3CN3[C@H]2C1=O	
InChI=1S/C7H9NO/c1-3-5-4-2-8(4)6(5)7(3)9/h3-6H,2H2,1H3	InChI=1S/C7H9NO/c1-3-5-4-2-8(4)6(5)7(3)9/h3-6H,2H2,1H3/t3-,4+,5-,6+,8?/m0/s1
