16
gdb 130065	4.38676	0.89762	0.79979	3.1747	73.88	-0.2059	-0.0326	0.1733	1391.0951	0.124572	-434.089226	-434.080573	-434.079629	-434.124662	30.778	
N	 0.0767752936	 1.3839953135	 0.0835391744	-0.587076
C	 0.0912400387	-0.0066810892	 0.0218427984	 0.386012
N	-1.0322937756	-0.6906043766	-0.1867242579	-0.351796
N	-0.6561311479	-1.9980363874	-0.1191316616	 0.049246
C	-1.6674578794	-3.0181941928	-0.1933051202	-0.246968
C	-2.481497366	-3.1405763655	 1.0963892048	 0.148431
O	-3.2113799646	-4.0676837663	 1.3211144345	-0.228566
C	 0.667141775	-2.1349378882	 0.1297001166	-0.015985
C	 1.1991413734	-0.8675210508	 0.2234021472	-0.304981
H	 0.9010477035	 1.8153759646	-0.3107339114	 0.247392
H	-0.7632294628	 1.7719916124	-0.3254878381	 0.25189
H	-2.3594551145	-2.7778804033	-1.008526417	 0.160091
H	-1.2067201431	-3.9836012176	-0.4179323606	 0.147991
H	-2.3477936522	-2.2941175864	 1.8037693071	 0.110418
H	 1.1252311865	-3.1083158037	 0.2153393986	 0.132588
H	 2.2262615353	-0.5995955827	 0.4096647851	 0.101314
15.5299	71.7414	86.9265	259.8876	273.2804	298.5911	363.5811	420.1699	448.3021	617.8811	662.4669	691.9571	702.1246	740.5835	772.1994	800.684	821.1509	1004.4907	1013.2899	1029.5517	1059.8513	1078.0408	1136.1222	1202.2654	1268.0317	1331.7881	1346.4483	1404.7194	1419.4222	1440.9493	1479.8108	1532.8188	1594.8757	1649.9335	1840.4449	2913.361	3050.9448	3115.4725	3250.623	3272.8832	3550.1458	3647.5551
NC1=NN(CC=O)C=C1	Nc1nn(CC=O)cc1	
InChI=1S/C5H7N3O/c6-5-1-2-8(7-5)3-4-9/h1-2,4H,3H2,(H2,6,7)	InChI=1S/C5H7N3O/c6-5-1-2-8(7-5)3-4-9/h1-2,4H,3H2,(H2,6,7)
