21
gdb 107727	3.70454	1.13955	1.07067	1.0846	82.38	-0.2333	0.0777	0.311	1232.767	0.181838	-387.04654	-387.037794	-387.03685	-387.079665	34.354	
C	 0.0989912795	 1.4464937067	-0.2663024152	-0.373415
C	-0.0789441011	-0.0129745588	 0.1743672219	-0.301542
C	-1.5089740123	-0.4717816879	 0.129323611	 0.381653
C	-2.6604773295	-0.0101568463	 1.0304284464	-0.355773
C	-3.4335574728	-1.239867285	 0.4723842747	 0.38821
O	-4.3739702186	-1.9226962109	 1.2279072865	-0.480424
C	-3.6712917734	-0.8881641835	-1.0260053042	-0.30139
C	-2.1546429001	-1.0129395057	-1.162619491	-0.104471
C	-2.0481052109	-1.8818758697	 0.0708248506	-0.200069
H	 1.1493402246	 1.7496547748	-0.216499765	 0.109451
H	-0.2477796319	 1.590586291	-1.2947002057	 0.11709
H	-0.4745705276	 2.1242623098	 0.3747406509	 0.117838
H	 0.5267878834	-0.6675176912	-0.466058256	 0.09578
H	 0.3120068406	-0.1378545103	 1.1929566671	 0.096938
H	-2.4123867225	-0.1558957217	 2.0863369821	 0.097351
H	-3.0991230245	 0.9843755248	 0.8784030214	 0.078567
H	-5.1317944141	-1.3430543309	 1.3657841423	 0.27948
H	-4.1857133799	-1.7066893943	-1.5374919414	 0.101637
H	-4.1550443081	 0.0686651959	-1.2595947453	 0.079801
H	-1.5751971014	-1.0977301803	-2.073507179	 0.082436
H	-1.5988472694	-2.8479962266	 0.248711718	 0.090851
83.7112	136.0755	170.9991	203.6561	281.4015	303.8706	355.8515	417.5913	447.9408	462.9118	595.7697	632.9617	735.8538	751.966	788.6889	822.2991	872.7161	904.9339	911.6564	955.724	968.8069	981.789	994.5402	1051.9075	1062.2674	1076.7174	1096.6368	1116.9025	1140.3872	1161.9382	1193.6024	1224.5345	1238.4478	1258.6882	1301.2988	1331.2499	1353.4078	1378.0348	1407.2531	1422.1982	1481.6657	1490.558	1497.91	1508.1748	1510.0504	3012.2403	3014.3432	3023.0256	3034.4194	3044.145	3088.8947	3096.0448	3103.0411	3106.6795	3189.2128	3224.896	3794.9876
CCC12CC3(O)CC1C23	CC[C@@]12C[C@@]3(O)C[C@@H]1[C@@H]23	
InChI=1S/C8H12O/c1-2-7-4-8(9)3-5(7)6(7)8/h5-6,9H,2-4H2,1H3	InChI=1S/C8H12O/c1-2-7-4-8(9)3-5(7)6(7)8/h5-6,9H,2-4H2,1H3/t5-,6+,7-,8+/m1/s1
