19
gdb 115911	3.28506	1.34501	1.19732	2.8671	70.21	-0.2392	0.0781	0.3173	1085.0303	0.160959	-460.13518	-460.127463	-460.126519	-460.167432	30.295	
O	 0.0826566335	 1.4137838479	 0.0237208156	-0.427378
C	 0.0903078914	 0.0128451788	 0.2131794283	-0.071944
C	-1.3124119617	-0.5647884099	 0.0161605306	 0.103691
O	-1.8309898024	-0.1203631774	-1.2551557535	-0.306264
C	-1.6990834379	-1.0373390278	-2.3462505048	-0.078268
C	-1.7145323762	-2.4722342288	-1.8429551676	 0.076098
C	-2.6380197983	-2.6066811377	-0.6148852424	-0.252947
C	-1.3734576931	-2.0859590905	 0.0980140373	 0.052602
O	-0.5499246252	-2.6279230705	-0.9782352381	-0.298158
H	-0.4335640495	 1.5599340161	-0.7789376123	 0.286248
H	 0.7876823981	-0.491670856	-0.4709380821	 0.102787
H	 0.4301928428	-0.1750199581	 1.2383436876	 0.101133
H	-1.9859809065	-0.1249145806	 0.7631131176	 0.091705
H	-2.5417271539	-0.8367982306	-3.0182356455	 0.110247
H	-0.7632376764	-0.8648278449	-2.8965379613	 0.108483
H	-1.7471690655	-3.209865057	-2.6488294515	 0.085073
H	-3.5446023433	-2.0010282095	-0.5751594088	 0.115701
H	-2.8459833843	-3.6486959004	-0.3712590605	 0.11496
H	-1.0918422113	-2.4727119432	 1.0809180212	 0.086231
103.8322	142.0944	171.2272	304.1348	360.9128	379.1321	439.854	458.8392	506.1982	601.6683	683.6857	783.379	848.5322	872.2834	900.1081	903.2365	931.3366	965.0788	993.5106	1019.4022	1069.9583	1083.3457	1091.1237	1101.2916	1109.6918	1161.6271	1207.6108	1226.316	1248.12	1252.642	1284.6545	1329.8815	1331.6936	1355.1979	1361.0698	1387.4518	1403.7407	1438.798	1482.5511	1495.4241	1512.1008	3002.2921	3006.9845	3031.6116	3063.0948	3065.4908	3078.7541	3082.6542	3090.915	3150.74	3777.4805
OCC1OCC2CC1O2	OC[C@H]1OC[C@@H]2C[C@H]1O2	
InChI=1S/C6H10O3/c7-2-6-5-1-4(9-5)3-8-6/h4-7H,1-3H2	InChI=1S/C6H10O3/c7-2-6-5-1-4(9-5)3-8-6/h4-7H,1-3H2/t4-,5+,6+/m0/s1
