21
gdb 76233	2.79533	1.39229	1.06222	1.4067	84.81	-0.2377	0.0229	0.2606	1205.3962	0.18244	-387.095997	-387.087001	-387.086057	-387.129948	34.836	
C	-0.3662276364	 1.4747572865	 0.1228887322	-0.488612
C	-0.0747003366	 0.010800974	 0.0266088312	 0.298025
C	-0.0055838822	-0.7459546326	-1.0703777781	-0.176538
C	 0.295671613	-2.1939363659	-0.7854793734	-0.345932
C	 0.4681238561	-2.2219713819	 0.7395080827	 0.324429
C	 0.0704563063	-3.4281929688	 1.5501468636	-0.310126
C	 1.526506509	-3.0788967793	 1.391764682	-0.308464
C	 0.2042379101	-0.7996709905	 1.2780614887	-0.047345
O	 1.259799363	-0.2476629184	 2.0673079153	-0.424441
H	 0.4169871628	 1.9864604217	 0.6927170674	 0.132917
H	-0.4456938456	 1.939826504	-0.8633448068	 0.118012
H	-1.3062524327	 1.6536170878	 0.6612015609	 0.125618
H	-0.1650395707	-0.3789433221	-2.0799088812	 0.087351
H	-0.5259530105	-2.8444911261	-1.1157377451	 0.107432
H	 1.1904835703	-2.5399977883	-1.3211237768	 0.102226
H	-0.3889332317	-3.258447453	 2.519289295	 0.112127
H	-0.3124734772	-4.2945746104	 1.0197389975	 0.105844
H	 2.1380084878	-3.7045753276	 0.7492880008	 0.106076
H	 2.042818647	-2.6627030471	 2.2495662068	 0.121457
H	-0.6551397007	-0.7834995513	 1.9613146598	 0.085703
H	 2.0523592089	-0.2530182908	 1.5178010974	 0.274243
30.8886	157.7457	212.1733	237.3754	251.0021	272.9943	319.084	354.2699	417.4392	463.3424	503.5409	606.7501	649.2906	782.6621	791.626	829.8696	883.7365	895.142	908.3482	953.5557	988.4855	992.1561	1028.6089	1039.8097	1054.1362	1065.9612	1069.4083	1085.3979	1178.5527	1189.639	1197.4964	1253.2369	1263.8343	1279.3785	1290.0381	1340.6821	1371.7276	1408.386	1426.5617	1464.1566	1474.1871	1490.0104	1492.6758	1500.4201	1728.	3002.8181	3018.3934	3022.3735	3024.2191	3075.435	3114.4782	3118.0606	3127.5065	3175.4454	3199.1633	3219.8013	3790.2121
CC1=CCC2(CC2)C1O	CC1=CCC2(CC2)[C@H]1O	
InChI=1S/C8H12O/c1-6-2-3-8(4-5-8)7(6)9/h2,7,9H,3-5H2,1H3	InChI=1S/C8H12O/c1-6-2-3-8(4-5-8)7(6)9/h2,7,9H,3-5H2,1H3/t7-/m0/s1
