18
gdb 111590	3.36326	1.38848	1.28463	1.7577	70.38	-0.2158	0.0514	0.2672	1032.8041	0.148878	-438.99502	-438.987666	-438.986721	-439.027038	28.85	
O	 0.3711411329	 0.9108976347	-0.8124315948	-0.418479
C	 0.1126305775	 0.2785251538	 0.4320081722	-0.091651
C	-1.2828581465	-0.3230430863	 0.4771039256	 0.011251
C	-1.5509620475	-1.6916569997	-0.1799300579	 0.079086
O	-0.5482086922	-2.6620918579	 0.2086448838	-0.304078
C	-1.1869056175	-2.8787239081	 1.4907564706	 0.096251
C	-0.8518386585	-1.7535560695	 2.4795866582	-0.191831
N	-1.8266726673	-0.8129856417	 1.8070657461	-0.196054
C	-2.4045986117	-2.0267106564	 1.0618542499	-0.046731
H	-0.2115625737	 1.6738386627	-0.8828104653	 0.283181
H	 0.8618449177	-0.511888409	 0.522370866	 0.127828
H	 0.2399833318	 0.9677985591	 1.2823230535	 0.096352
H	-2.0070289025	 0.4149164865	 0.1036214898	 0.073283
H	-1.8218231026	-1.7735553867	-1.2341331753	 0.084343
H	-1.1672343921	-3.9286797275	 1.7911987871	 0.083036
H	-1.2229812177	-1.968846016	 3.4876067839	 0.112097
H	 0.1862938536	-1.4192997081	 2.5439606299	 0.116725
H	-3.4653015236	-2.2583330601	 1.1268697968	 0.085391
79.8983	161.3701	202.2292	311.27	336.7123	400.2491	465.4893	569.8661	686.1639	714.0569	788.6617	835.3367	845.9805	860.1684	873.0577	929.1204	970.0496	993.8023	999.312	1034.142	1047.8342	1076.447	1085.7275	1105.6929	1174.7272	1178.9222	1184.5342	1215.2857	1224.7448	1255.7862	1270.1055	1284.5308	1307.4774	1343.2798	1356.9387	1395.2058	1421.268	1485.299	1507.3573	2978.7029	3002.9874	3042.6599	3084.0537	3093.5004	3101.0135	3112.6406	3141.4669	3814.8497
OCC1C2OC3CN1C23	OC[C@H]1[C@H]2O[C@H]3CN1[C@@H]23	
InChI=1S/C6H9NO2/c8-2-3-6-5-4(9-6)1-7(3)5/h3-6,8H,1-2H2	InChI=1S/C6H9NO2/c8-2-3-6-5-4(9-6)1-7(3)5/h3-6,8H,1-2H2/t3-,4-,5+,6+/m0/s1
