15
gdb 27058	3.14609	1.36727	0.95917	1.844	70.73	-0.2208	-0.01	0.2108	1145.38	0.113635	-454.009196	-454.001093	-454.000148	-454.044464	28.781	
C	-0.092485869	 1.1730690609	-0.7433371238	-0.517419
C	-0.105827136	-0.1576263639	-0.0880522938	 0.2773
C	-1.0174506263	-1.0766253659	 0.346065028	 0.247353
N	-2.4143287341	-1.1527299086	 0.3502103939	-0.397466
C	-3.3511136796	-0.3108864103	-0.1697151807	 0.145147
O	-3.1460449536	 0.7297553463	-0.7556212656	-0.307763
N	-0.3668835359	-2.1672794203	 0.9105418933	-0.323864
C	 0.8862308641	-1.8771005229	 0.7987350212	 0.080424
O	 1.1336156893	-0.6960118017	 0.213161439	-0.172437
H	 0.4823658775	 1.1391256516	-1.6759062104	 0.13397
H	-1.1135507565	 1.4790260254	-0.9618213517	 0.192026
H	 0.3793202024	 1.9211475598	-0.0955018911	 0.133185
H	-2.7501671648	-1.9936688771	 0.7976578208	 0.266793
H	-4.3690218727	-0.7039127886	 0.0137626655	 0.087866
H	 1.7356287751	-2.4620474046	 1.1142730455	 0.154884
5.0985	148.4603	200.1387	215.8464	260.5038	273.9299	400.6468	416.7245	611.3183	615.5127	641.0775	693.3501	728.7152	837.0443	864.8375	959.2834	969.4634	1017.3838	1074.8686	1118.9866	1160.8257	1203.7275	1212.2108	1312.2546	1352.5381	1416.2455	1442.6808	1486.2861	1491.2307	1537.372	1587.3813	1686.3627	1804.8901	2955.7792	3029.7246	3077.4626	3179.6467	3277.3221	3612.9798
CC1=C(NC=O)N=CO1	Cc1c(NC=O)nco1	
InChI=1S/C5H6N2O2/c1-4-5(6-2-8)7-3-9-4/h2-3H,1H3,(H,6,8)	InChI=1S/C5H6N2O2/c1-4-5(6-2-8)7-3-9-4/h2-3H,1H3,(H,6,8)
