18
gdb 90547	4.23903	1.09691	0.99569	3.7462	73.39	-0.2341	-0.0286	0.2055	1215.8389	0.146618	-439.040425	-439.032054	-439.03111	-439.073871	30.951	
C	 0.3356884413	 1.5843775875	-0.1076068048	-0.387073
C	 0.0657593169	 0.0957317864	-0.0059348146	 0.031147
N	 0.9647431857	-0.7784856536	-0.8336359013	-0.337708
C	 1.2345619702	-1.6618603914	 0.3187288566	-0.085263
C	 2.5193967968	-1.226017333	 1.082534879	 0.044816
O	 1.7850481267	-0.2242150981	 1.8056299364	-0.284579
C	 0.5250614853	-0.6663408636	 1.26432234	 0.097353
C	 3.0980117703	-2.3106534522	 1.9604722266	 0.133206
O	 2.8644543665	-2.4576198037	 3.1303925453	-0.232843
H	 1.3674041105	 1.8007588572	 0.1781101669	 0.136782
H	 0.1759252635	 1.9341539946	-1.1324120764	 0.115928
H	-0.3349193603	 2.145397878	 0.5522627152	 0.115809
H	-0.99696267	-0.1189691033	-0.1886276233	 0.071572
H	 0.4973948415	-1.240608183	-1.604465447	 0.222873
H	 1.0129606231	-2.7246000578	 0.2138236986	 0.088311
H	 3.2981643959	-0.8066740433	 0.4328377333	 0.106043
H	-0.2035580747	-0.8971221318	 2.0429111051	 0.093473
H	 3.7550735707	-3.0174162292	 1.3977019045	 0.070153
67.6588	103.8456	146.7888	206.8567	259.8951	288.581	357.6334	390.3336	546.6882	622.2774	694.7344	789.4568	797.2678	818.9122	865.89	892.623	931.6058	956.294	977.0046	1026.3031	1050.6934	1077.2439	1090.4937	1110.3546	1142.7348	1163.6112	1192.3613	1231.8228	1253.9376	1305.7085	1331.8362	1358.2501	1379.7508	1381.7294	1411.3379	1415.1356	1486.2744	1493.5078	1838.4993	2840.8269	2997.0754	3037.4446	3039.2903	3095.461	3104.3424	3106.8191	3133.2975	3547.2597
CC1NC2C(OC12)C=O	C[C@H]1N[C@H]2[C@@H](O[C@@H]12)C=O	
InChI=1S/C6H9NO2/c1-3-6-5(7-3)4(2-8)9-6/h2-7H,1H3	InChI=1S/C6H9NO2/c1-3-6-5(7-3)4(2-8)9-6/h2-7H,1H3/t3-,4+,5+,6+/m1/s1
