15
gdb 27807	2.10354	1.80824	0.97846	7.0677	74.29	-0.2271	-0.0416	0.1856	1145.2051	0.111815	-454.025041	-454.016397	-454.015453	-454.059246	31.222	
C	-0.0057911916	 1.5073996208	-0.0130249224	-0.475865
C	 0.0003968136	 0.0023873569	 0.0051174492	 0.343891
N	-0.0208539089	-0.6016799758	-1.1687035127	-0.402306
C	-0.0203487128	-1.9528655792	-1.2407824204	 0.435633
O	-0.0376187962	-2.6610476144	-2.1998787427	-0.332683
O	 0.0092880747	-2.6900760091	 0.0404534886	-0.258185
C	 0.0254635276	-2.0473081256	 1.1943365677	 0.496181
N	 0.013402025	-2.8744922132	 2.2637913327	-0.561881
C	 0.0255000201	-0.6716817607	 1.2415612498	-0.321162
H	 0.8562847559	 1.9034211404	 0.5345953996	 0.136478
H	 0.0190011797	 1.8669458148	-1.0413963821	 0.152585
H	-0.9049237251	 1.8907083402	 0.4824359383	 0.13987
H	 0.1747232992	-3.8550406293	 2.1029532462	 0.2798
H	 0.2018941272	-2.5061046729	 3.1795941511	 0.275375
H	 0.0387447916	-0.1437999129	 2.1847164272	 0.092269
30.4613	109.7036	165.9862	209.1745	263.7802	290.0372	338.1589	461.6699	494.6561	528.0904	575.9198	604.3309	611.8877	725.5741	752.603	773.5869	791.4969	964.5159	991.3422	1035.4055	1054.0154	1069.0638	1143.2197	1231.4962	1391.9673	1436.8735	1452.5704	1473.3039	1481.9149	1562.1083	1632.0565	1670.5512	1895.2621	3038.8336	3094.4995	3158.7763	3222.8176	3612.6616	3740.6201
CC1=NC(=O)OC(N)=C1	Cc1nc(=O)oc(N)c1	
InChI=1S/C5H6N2O2/c1-3-2-4(6)9-5(8)7-3/h2H,6H2,1H3	InChI=1S/C5H6N2O2/c1-3-2-4(6)9-5(8)7-3/h2H,6H2,1H3
