16
gdb 130096	4.8504	1.27167	1.02602	1.8584	72.57	-0.1921	0.0451	0.2372	1115.7012	0.127968	-434.078622	-434.071287	-434.070343	-434.110401	28.107	
N	-0.093043988	 1.3260295233	-0.0040409941	-0.585033
C	 0.0267628521	-0.0615809771	-0.0136615398	 0.408355
N	-1.0524659643	-0.8334060407	 0.1087640874	-0.383677
N	-0.5274783242	-2.0989815462	 0.0402665287	-0.004737
C	-1.1143209403	-3.3756915028	-0.2893661108	-0.190019
C	 0.1732537044	-4.2401837763	-0.2175529272	-0.104893
O	 1.2889584469	-3.330100296	-0.4218704496	-0.281358
C	 0.7989662186	-2.0946404463	-0.1881197344	 0.516518
C	 1.2411863137	-0.7956191351	-0.2052996903	-0.496686
H	 0.6564184662	 1.7924932829	 0.4882352122	 0.24525
H	-0.9932848577	 1.6179174831	 0.3544849583	 0.24947
H	-1.865837122	-3.6951852779	 0.4369969426	 0.132626
H	-1.5671930185	-3.3696912122	-1.2897361636	 0.126141
H	 0.2830030478	-4.6982208856	 0.7709390282	 0.129246
H	 0.2256430734	-5.0127807867	-0.9852300316	 0.133617
H	 2.239814142	-0.4206337964	-0.3444270459	 0.10518
109.3181	160.5027	236.768	267.5282	311.9233	375.8848	515.7159	560.4348	650.9069	684.6343	712.6852	719.2674	758.7974	772.2816	855.3775	880.7435	950.2948	991.8935	1006.9146	1113.3211	1122.7043	1149.1347	1189.1851	1203.9334	1249.8801	1296.3827	1337.4748	1375.9656	1450.7464	1502.8874	1515.8267	1529.5153	1559.5526	1633.6951	1651.4604	3016.0792	3053.3446	3093.0894	3133.6089	3284.0471	3545.3607	3642.3274
NC1=NN2CCOC2=C1	Nc1nn2CCOc2c1	
InChI=1S/C5H7N3O/c6-4-3-5-8(7-4)1-2-9-5/h3H,1-2H2,(H2,6,7)	InChI=1S/C5H7N3O/c6-4-3-5-8(7-4)1-2-9-5/h3H,1-2H2,(H2,6,7)
