16
gdb 23163	2.34481	1.22546	0.86422	4.1883	70.49	-0.2426	-0.0259	0.2167	1283.3032	0.121152	-474.964005	-474.954743	-474.953799	-474.998997	32.877	
O	-0.082007568	 1.3241328155	 0.4167449297	-0.386902
N	-0.0243563064	-0.0725150313	 0.5275547447	-0.221453
C	-1.0483664377	-0.6116814457	 0.0134563105	 0.403676
C	-2.326182406	-0.1406896291	-0.6416998332	-0.366321
C	-2.8472428491	-1.6089853764	-0.5013485015	 0.117331
O	-3.291652392	-2.2629522078	-1.6630438692	-0.423072
C	-1.4190870194	-2.0852085813	-0.0549765846	-0.221126
C	-0.6582794263	-2.8483501208	-1.1291055082	 0.19132
O	-0.139034115	-3.915920279	-0.9410333266	-0.251637
H	 0.7314580942	 1.5979105765	 0.8548847654	 0.311434
H	-2.875139802	 0.6523915225	-0.1279920682	 0.129798
H	-2.1857661626	 0.1440232322	-1.6905553722	 0.133615
H	-3.5640226813	-1.7108548424	 0.3226652356	 0.091729
H	-4.1670859017	-1.9333531743	-1.8892554088	 0.293407
H	-1.3660713253	-2.6534217914	 0.8749032583	 0.110229
H	-0.5989641611	-2.338636207	-2.1128391716	 0.087972
51.4599	61.3482	134.3094	189.4997	226.3079	253.0812	335.7758	377.5712	399.7064	452.3647	457.1669	512.5319	580.2712	696.811	787.1077	860.7543	938.7687	972.7192	988.4687	1015.991	1066.9366	1099.2302	1156.3937	1169.3253	1193.8633	1222.1636	1239.12	1273.0664	1312.9594	1401.3856	1419.7815	1431.8484	1452.3278	1775.9639	1831.5388	2915.5207	3025.5296	3048.5646	3108.1361	3109.2555	3812.2188	3822.3028
ON=C1CC(O)C1C=O	ON=C1C[C@@H](O)[C@H]1C=O	
InChI=1S/C5H7NO3/c7-2-3-4(6-9)1-5(3)8/h2-3,5,8-9H,1H2	InChI=1S/C5H7NO3/c7-2-3-4(6-9)1-5(3)8/h2-3,5,8-9H,1H2/t3-,5+/m0/s1
