21
gdb 107917	3.65068	1.11374	1.04612	1.8934	82.02	-0.2411	0.0787	0.3197	1252.8062	0.182638	-387.041751	-387.033245	-387.032301	-387.074694	33.608	
C	 0.0400206579	 1.441878538	-0.2430964423	-0.374212
C	-0.0955200711	-0.0442839689	 0.1152947486	-0.302765
C	-1.5206933385	-0.5220562741	 0.1118209745	 0.371809
C	-2.6279543197	-0.1446379288	 1.1054308862	-0.291995
C	-3.4189850938	-1.3403486551	 0.5202935287	-0.106977
C	-2.045863874	-1.9332060162	-0.0114530101	-0.178848
C	-2.2245784147	-0.9721775859	-1.1784807549	-0.155471
C	-3.7320326403	-0.9032217307	-0.940144054	 0.161174
O	-4.4781457958	-1.8355266561	-1.6915852733	-0.447926
H	 1.0861203709	 1.7615561886	-0.2143507619	 0.110984
H	-0.3481622978	 1.6415354881	-1.2471604761	 0.119096
H	-0.5197350803	 2.06876253	 0.4589125297	 0.119558
H	 0.4906483596	-0.6494427177	-0.5884049473	 0.096279
H	 0.3403637605	-0.2227471795	 1.1075294614	 0.097251
H	-2.3042155848	-0.3252484224	 2.1355709713	 0.095213
H	-3.0930336267	 0.8468039977	 1.0377408511	 0.088047
H	-4.177031628	-1.8684373814	 1.0956094257	 0.072126
H	-1.547231877	-2.8881736289	 0.0758141549	 0.088295
H	-1.7049110187	-0.9697388991	-2.1296347243	 0.083662
H	-4.2453842251	 0.0559357662	-1.0696009312	 0.077608
H	-3.9895605926	-2.6676828439	-1.6825644567	 0.277092
83.4246	133.3484	190.1689	229.2904	283.3419	331.3702	373.1522	394.3197	458.7384	482.4384	631.9905	746.5092	781.8978	799.7775	828.9204	835.459	888.2895	924.9165	929.6829	937.1207	974.6634	987.4543	1023.6554	1033.0459	1050.1043	1079.8762	1108.6001	1128.5731	1138.1505	1167.438	1192.5306	1228.0186	1244.3199	1266.1303	1278.9824	1297.1314	1330.4892	1352.2286	1409.4559	1418.6388	1436.0663	1481.0247	1498.319	1503.5456	1507.6701	3012.0993	3020.3657	3035.0696	3044.8395	3051.8552	3079.8569	3103.9643	3107.0282	3136.4339	3182.4586	3214.5066	3779.9947
CCC12CC3C1C2C3O	CC[C@]12C[C@@H]3[C@H]1[C@H]2[C@H]3O	
InChI=1S/C8H12O/c1-2-8-3-4-5(8)6(8)7(4)9/h4-7,9H,2-3H2,1H3	InChI=1S/C8H12O/c1-2-8-3-4-5(8)6(8)7(4)9/h4-7,9H,2-3H2,1H3/t4-,5+,6+,7+,8+/m1/s1
