17
gdb 112391	2.20939	1.49275	0.95328	2.0122	72.07	-0.2316	0.001	0.2325	1207.4617	0.138682	-451.377613	-451.36908	-451.368136	-451.411084	31.879	
N	-0.0292522525	 1.4947713771	 0.088878079	-0.518108
C	-0.0207661901	 0.031130892	 0.0332257437	-0.161768
C	 0.8515396286	-0.5087464419	 1.177953009	-0.10753
N	 0.4141415447	-0.0734263755	 2.4898626701	-0.303635
C	-0.1150058886	-1.1093381913	 3.2326330773	 0.428009
N	-0.7385642521	-0.975893676	 4.3316982378	-0.570025
N	 0.2005957592	-2.2810264926	 2.5137110159	-0.375796
C	 0.7684229244	-2.0353079232	 1.282831653	 0.42109
O	 1.105715047	-2.8502661523	 0.4590757286	-0.369503
H	 0.8525017437	 1.8642108603	-0.2557241329	 0.233881
H	-0.7521363616	 1.8646991869	-0.5191294769	 0.238942
H	-1.0493883867	-0.3181635156	 0.178185718	 0.115807
H	 0.3448656532	-0.3998605122	-0.9106441559	 0.114295
H	 1.897149772	-0.2273139683	 0.9895267119	 0.11112
H	 0.0028722848	 0.8432180953	 2.5813899675	 0.266579
H	-1.0305340706	-1.8737354156	 4.7094148097	 0.210648
H	 0.0020268746	-3.2103152871	 2.8478369543	 0.265996
82.0842	128.8926	141.2378	175.9489	262.3873	321.1986	389.3445	455.0988	495.701	561.1885	590.5619	633.281	681.9938	722.3052	725.2139	760.4593	837.9685	908.0479	971.5903	988.9328	998.4895	1077.4446	1097.5881	1149.5604	1185.5392	1232.4344	1271.1979	1330.0504	1348.1114	1359.2521	1396.466	1414.3085	1434.9202	1501.9271	1660.2027	1777.9278	1852.3967	2994.8036	3006.8426	3068.195	3495.4471	3521.7627	3577.4019	3633.1763	3655.6455
NCC1NC(=N)NC1=O	NC[C@H]1N[C]([NH])NC1=O	
InChI=1S/C4H8N4O/c5-1-2-3(9)8-4(6)7-2/h2H,1,5H2,(H3,6,7,8,9)	InChI=1S/C4H8N4O/c5-1-2-3(9)8-4(6)7-2/h2H,1,5H2,(H3,6,7,8,9)/t2-/m1/s1
