17
gdb 54035	2.29278	1.34511	0.91362	2.0249	69.63	-0.2522	-0.0526	0.1996	1245.3379	0.135015	-455.15346	-455.144286	-455.143341	-455.188439	32.752	
N	-0.40956475	 1.2195557071	 0.5751571277	-0.524499
C	-0.2080692828	-0.1091832074	 0.3670478635	 0.398183
O	 0.7604818227	-0.7271924318	 0.7548986261	-0.343419
C	-1.375931714	-0.8240209089	-0.3675193898	-0.250999
C	-1.7583079371	-0.1273524299	-1.671585485	 0.143099
O	-1.9919609148	 1.0537495645	-1.7707643218	-0.258944
C	-1.0739175344	-2.2888049533	-0.5808977854	 0.038495
C	-1.475960256	-3.3007892229	 0.4170268626	-0.237112
N	-2.1673826764	-3.2326671119	-0.885511527	-0.340021
H	 0.3730601333	 1.7424099772	 0.9373726094	 0.261578
H	-1.0892421211	 1.7000885074	 0.000986748	 0.27524
H	-2.2549452445	-0.7151346765	 0.2860755071	 0.131493
H	-1.82414958	-0.7949871295	-2.5555282182	 0.121906
H	-0.1698946335	-2.4761216196	-1.1540867674	 0.114259
H	-0.8634690817	-4.1842211745	 0.5659389214	 0.130775
H	-2.0003597187	-2.9599773924	 1.3062795129	 0.113995
H	-3.0703330511	-2.7771668076	-0.7671242239	 0.225972
55.5402	65.5871	101.1462	163.0309	226.0175	233.2514	348.6076	403.5595	432.5217	508.0401	553.4717	591.6291	624.4404	726.4997	770.991	839.8999	874.3719	945.3391	957.0663	1013.3645	1038.9098	1084.6	1125.5507	1134.7068	1158.424	1192.5076	1226.5697	1249.4569	1270.2916	1306.0185	1333.0535	1418.6784	1436.4877	1515.579	1623.6268	1803.7069	1810.2422	2924.7706	3006.0148	3113.5293	3148.7443	3201.6097	3480.8271	3542.339	3684.0665
NC(=O)C(C=O)C1CN1	NC(=O)[C@@H](C=O)[C@H]1CN1	
InChI=1S/C5H8N2O2/c6-5(9)3(2-8)4-1-7-4/h2-4,7H,1H2,(H2,6,9)	InChI=1S/C5H8N2O2/c6-5(9)3(2-8)4-1-7-4/h2-4,7H,1H2,(H2,6,9)/t3-,4+/m0/s1
