15
gdb 46459	3.87199	1.19228	1.09106	3.9983	72.42	-0.2585	-0.0052	0.2533	1101.8672	0.112606	-420.624255	-420.616664	-420.61572	-420.656358	29.065	
O	-0.016020109	 0.0204867466	 0.251642581	-0.338678
C	 0.0208610018	 1.1944203461	 0.0315597947	 0.461652
O	-1.1133246314	 1.9413533235	-0.1523654218	-0.23421
C	-0.818190275	 3.2406570581	-0.6792204984	-0.148402
C	 0.6917689285	 3.4453205904	-0.5266599215	 0.145183
C	 1.2071686276	 3.2617098832	 0.8787622917	-0.318563
C	 1.2166017456	 2.0877320566	-0.0738588966	-0.244736
C	 1.370212178	 4.2848766352	-1.4640408725	 0.168011
C	 1.9149550333	 5.0016053935	-2.2612139723	-0.369582
H	-1.1076265135	 3.2711527538	-1.734248184	 0.133313
H	-1.405734028	 3.9773485859	-0.1241657212	 0.130739
H	 2.1704911507	 3.7017224079	 1.1048972298	 0.143218
H	 0.4914068744	 3.2642820997	 1.6947091424	 0.139242
H	 2.1508491599	 1.6631623844	-0.4124431914	 0.135291
H	 2.4038098572	 5.6314731552	-2.96282481	 0.197522
106.2453	147.0592	178.0869	263.9399	355.8378	428.4949	488.3681	524.9981	557.8947	602.3713	660.6266	665.9466	719.2782	771.356	816.7745	882.1238	938.5305	971.9836	1002.2511	1049.2512	1061.7122	1078.8615	1092.9474	1171.3895	1222.9424	1251.8377	1261.5827	1359.8477	1408.6289	1485.1666	1518.6828	1886.8779	2242.3494	3051.9189	3101.1723	3136.3547	3226.2513	3237.4002	3501.1632
O=C1OCC2(CC12)C#C	O=C1OC[C@]2(C[C@@H]12)C#C	
InChI=1S/C7H6O2/c1-2-7-3-5(7)6(8)9-4-7/h1,5H,3-4H2	InChI=1S/C7H6O2/c1-2-7-3-5(7)6(8)9-4-7/h1,5H,3-4H2/t5-,7+/m0/s1
