18
gdb 24424	3.35519	1.55003	1.1072	1.9439	76.93	-0.2241	0.0109	0.2351	1076.8019	0.151944	-402.00968	-402.002787	-402.001843	-402.040955	27.533	
C	-0.0176108291	 1.5006519909	-0.0455160489	-0.196003
C	 1.4041074683	 2.091554351	 0.03147477	-0.200165
C	 2.1137770665	 1.7592891392	 1.3627757324	-0.320827
C	 1.8820014812	 0.3196643966	 1.688868776	 0.207162
C	 0.9435426957	-0.4424341663	 1.0803430496	 0.298853
C	-0.0210846039	-0.0447572075	 0.0240189312	-0.33117
O	 1.0127611076	-1.704615263	 1.6091784177	-0.19365
C	 2.0094640155	-1.6182899565	 2.526943807	 0.041964
N	 2.5638039683	-0.4549623479	 2.6260468712	-0.325224
H	-0.6145165612	 1.892976239	 0.7872047594	 0.107004
H	-0.5097807626	 1.82583847	-0.967491946	 0.099699
H	 2.0009425852	 1.6941975333	-0.7995736939	 0.103623
H	 1.3604982076	 3.1769217983	-0.1050333483	 0.098364
H	 3.1862948674	 1.9705261093	 1.2912463546	 0.117088
H	 1.7302075308	 2.3985440902	 2.1698327113	 0.11332
H	-1.0280992144	-0.4190025967	 0.2419128469	 0.118176
H	 0.265111383	-0.4736774226	-0.9466179191	 0.117627
H	 2.2374101338	-2.5185862873	 3.075722549	 0.144159
116.51	213.8976	288.9479	309.5918	371.9572	441.7859	492.6428	644.4078	671.1928	689.2693	713.7152	824.3918	836.8857	848.5093	918.0935	926.4912	956.1204	963.2719	1064.2748	1100.2337	1107.0799	1139.8332	1157.2023	1163.1667	1238.297	1255.8544	1264.0993	1289.9832	1326.8863	1366.0188	1371.5098	1385.7782	1411.2753	1479.5988	1487.1244	1490.6864	1501.3736	1548.3961	1679.5734	3008.4002	3014.3475	3025.589	3032.2963	3057.5816	3066.4814	3077.8054	3082.6417	3274.8067
C1CCC2=C(C1)OC=N2	C1CCc2c(C1)ocn2	
InChI=1S/C7H9NO/c1-2-4-7-6(3-1)8-5-9-7/h5H,1-4H2	InChI=1S/C7H9NO/c1-2-4-7-6(3-1)8-5-9-7/h5H,1-4H2
