22
gdb 120475	3.32395	0.93114	0.84503	2.7412	79.12	-0.222	0.0616	0.2836	1443.5747	0.193346	-441.450426	-441.44043	-441.439486	-441.485514	37.1	
C	-0.3973099434	 1.0976140218	 0.1305162939	-0.40055
C	 0.3325984798	-0.2396369679	 0.2296313878	 0.008945
C	 1.3446798997	-0.5014778327	-0.9190728852	 0.106466
O	 1.1375716394	 0.2905248983	-2.0603262185	-0.422744
C	 2.4546273543	-0.0924595912	 0.0841622508	-0.214488
N	 1.4892423587	-0.3206755553	 1.1730424376	-0.09627
C	 1.5577929252	 0.4681591778	 2.3917968978	-0.168876
C	 0.7410972771	-0.2203467762	 3.4886952223	-0.047736
O	 1.1589108615	-1.5583695205	 3.6554200899	-0.423099
H	 0.287808932	 1.9336587179	-0.0323538492	 0.125582
H	-1.0883492544	 1.0709043147	-0.7164805811	 0.131005
H	-0.9786898033	 1.2939524928	 1.0366350453	 0.116088
H	-0.3975847085	-1.0400053409	 0.3955928574	 0.077892
H	 1.3994059837	-1.5673050972	-1.1718856297	 0.078771
H	 1.7785104593	 0.0349933005	-2.7303871059	 0.289165
H	 3.3647174906	-0.7002279769	 0.1418209803	 0.097106
H	 2.7330356855	 0.9633799655	-0.0565753888	 0.093217
H	 2.6100762752	 0.4920447613	 2.6994569497	 0.10795
H	 1.2290140549	 1.5130544701	 2.261460969	 0.083664
H	 0.8778425005	 0.2993198701	 4.4435862875	 0.100515
H	-0.3331078788	-0.1645999815	 3.238281015	 0.080564
H	 1.3561682912	-1.8572706205	 2.7553428942	 0.276833
66.4001	78.8185	133.5207	192.2254	227.716	233.3375	249.1701	264.281	345.5943	418.7648	476.9351	491.1828	539.7453	561.1034	652.5248	760.7192	810.3259	892.7561	914.825	930.332	985.0722	1028.6047	1065.4128	1081.183	1093.4442	1108.3612	1143.1099	1160.7262	1178.8045	1216.6029	1222.5734	1244.4768	1273.0478	1291.3231	1315.9221	1323.854	1375.7192	1377.6289	1392.7301	1404.3928	1436.0183	1448.9719	1481.9541	1492.1229	1498.2916	1514.0477	1519.7739	2946.3467	2964.6725	2984.1265	3020.4173	3034.4574	3046.275	3054.0337	3056.8297	3065.5355	3115.0211	3125.2807	3713.013	3828.5169
CC1C(O)CN1CCO	C[C@H]1[C@@H](O)CN1CCO	
InChI=1S/C6H13NO2/c1-5-6(9)4-7(5)2-3-8/h5-6,8-9H,2-4H2,1H3	InChI=1S/C6H13NO2/c1-5-6(9)4-7(5)2-3-8/h5-6,8-9H,2-4H2,1H3/t5-,6-/m0/s1
