21
gdb 84108	2.44259	1.46504	1.1073	1.1369	84.76	-0.2187	0.026	0.2447	1197.2633	0.181359	-387.095613	-387.086395	-387.085451	-387.128817	35.928	
C	-0.2070308093	 1.5887059552	 0.0480839922	-0.400255
C	 0.0104592079	 0.071164285	-0.0201775525	-0.088617
C	 0.8327553167	-0.4090880076	-1.1990030048	-0.194392
C	 1.8196902042	-1.2425939702	-0.8474114871	 0.327696
C	 2.7978721195	-1.9305826581	-1.7464035228	-0.495176
C	 1.8626803315	-1.4013152059	 0.6411433908	-0.192664
C	 2.1925625975	-0.1271523913	 1.416649464	-0.348259
C	 0.7592709942	-0.5279013168	 1.1790487934	 0.400083
O	-0.0008840676	-0.9719157568	 2.2642651358	-0.475081
H	 0.7451027922	 2.126657329	 0.0921934188	 0.115656
H	-0.7548888323	 1.9487234748	-0.82883597	 0.113813
H	-0.7922107456	 1.8593607618	 0.9344902643	 0.103903
H	-0.9802936845	-0.4082191966	-0.0443332152	 0.087188
H	 0.6207822489	-0.096143368	-2.2166425067	 0.082809
H	 2.6195293042	-1.6866462659	-2.7972003996	 0.121553
H	 3.829829748	-1.6522048568	-1.4978610075	 0.126565
H	 2.7354458761	-3.0207313508	-1.6358420668	 0.12606
H	 2.1051738742	-2.355892231	 1.0956245831	 0.090988
H	 2.5477223211	-0.2634767005	 2.4331486449	 0.108572
H	 2.6300512873	 0.7063221061	 0.8763630627	 0.108826
H	-0.1880791441	-0.2123430357	 2.826466373	 0.280733
136.8954	150.1203	190.5922	215.6056	226.9334	254.5705	272.2069	344.2267	389.6612	433.9388	487.1318	569.8609	596.6956	634.9598	708.137	813.2921	836.9557	879.7884	911.8955	933.0717	971.2383	985.7887	1011.8144	1045.3432	1048.0569	1064.4686	1088.0523	1097.6874	1115.0651	1181.0989	1210.9623	1247.7935	1299.9511	1310.6413	1346.7244	1361.7461	1401.3764	1405.708	1413.0928	1470.8123	1477.9991	1489.1523	1494.7829	1498.2338	1703.5525	2987.287	3017.187	3027.3315	3063.2765	3091.3528	3104.5516	3109.8869	3119.4144	3171.1576	3179.1293	3213.3495	3795.6729
CC1C=C(C)C2CC12O	C[C@H]1C=C(C)[C@H]2C[C@@]12O	
InChI=1S/C8H12O/c1-5-3-6(2)8(9)4-7(5)8/h3,6-7,9H,4H2,1-2H3	InChI=1S/C8H12O/c1-5-3-6(2)8(9)4-7(5)8/h3,6-7,9H,4H2,1-2H3/t6-,7+,8+/m0/s1
