17
gdb 53640	5.63492	0.55991	0.51265	4.2735	82.25	-0.2395	-0.0688	0.1707	2068.9144	0.133038	-417.991687	-417.980997	-417.980052	-418.030594	35.186	
C	-0.0729712245	 1.4552858588	 0.0595061354	-0.499082
C	-0.0324307464	 0.0001692051	 0.0526624755	 0.144104
C	 0.0166602036	-1.2023733003	 0.0435068142	-0.026849
C	 0.0604854154	-2.658346256	 0.0422623322	-0.273422
N	-1.2757429105	-3.2245625295	-0.1044978001	-0.327958
C	-1.4573994877	-4.5762320562	-0.094023869	 0.298295
N	-0.4826123521	-5.4049390232	-0.0826956037	-0.518829
C	-2.909302947	-5.0025970126	-0.1307548613	 0.108289
O	-3.2457270495	-6.1565013474	-0.140297252	-0.233978
H	 0.8890943223	 1.8750199634	-0.2536293033	 0.15589
H	-0.837627597	 1.8343136567	-0.6271352715	 0.15166
H	-0.2970058448	 1.8457861411	 1.0580372894	 0.151208
H	 0.6850788822	-3.0339067268	-0.7779046486	 0.157676
H	 0.5294429852	-3.0358471565	 0.9631753708	 0.146977
H	-2.0540985144	-2.6204813108	 0.1016374959	 0.250391
H	-0.8662609306	-6.3511418017	-0.118315964	 0.234851
H	-3.6588686542	-4.1786020242	-0.14892713	 0.080775
12.6185	30.3495	66.1728	103.8728	179.8147	193.4006	205.964	277.5077	300.567	316.6419	377.3336	422.8333	529.285	577.0799	710.261	800.5151	866.6116	958.6618	997.5795	1025.5141	1052.0581	1054.9677	1075.7034	1165.0947	1181.9133	1241.7464	1299.1742	1382.5248	1414.9297	1432.7136	1476.5618	1478.6293	1497.2075	1535.8221	1696.9921	1834.5717	2379.369	2871.498	2998.1938	3029.8202	3040.1851	3091.5651	3092.8375	3471.4765	3648.6875
CC#CCNC(=N)C=O	CC#CCNC(=N)C=O	
InChI=1S/C6H8N2O/c1-2-3-4-8-6(7)5-9/h5H,4H2,1H3,(H2,7,8)	InChI=1S/C6H8N2O/c1-2-3-4-8-6(7)5-9/h5H,4H2,1H3,(H2,7,8)
