20
gdb 57652	3.05365	0.96749	0.94082	3.5679	76.57	-0.2477	-0.0247	0.223	1356.3789	0.167832	-440.25976	-440.249819	-440.248875	-440.295156	36.124	
C	 0.0347044702	 1.6753544369	-0.0326249888	-0.424796
C	 0.0456404475	 0.1431676488	 0.0163741658	 0.268875
O	 0.6108553356	-0.3408912136	 1.2210356871	-0.475848
C	-1.3711719063	-0.4690545892	-0.1479117314	-0.182977
N	-2.1135545505	-0.2796947066	 1.0942590722	-0.088773
C	-3.1542100817	 0.746004598	 1.1247849432	-0.220028
C	-3.5105282996	-0.6988623145	 1.1060420225	-0.227883
C	 0.8989532048	-0.4243404306	-1.117113134	 0.138786
O	 0.9221019894	 0.0155071256	-2.2370353559	-0.259963
H	 1.0363693236	 2.0545601052	 0.1857487746	 0.129075
H	-0.2598638828	 2.0243637956	-1.025696225	 0.130362
H	-0.6522436615	 2.0806083426	 0.7146709114	 0.118326
H	-0.1323760138	-0.4098672797	 1.83970637	 0.286853
H	-1.8719711584	-0.0401479261	-1.0290110693	 0.107425
H	-1.2708295828	-1.5494840448	-0.3074948302	 0.112362
H	-3.2274182585	 1.3191392434	 2.0442003146	 0.126528
H	-3.3282064395	 1.3162136657	 0.2146111451	 0.123701
H	-3.925843123	-1.0978006123	 0.1827326018	 0.120363
H	-3.8463037837	-1.1967835185	 2.0109063001	 0.125966
H	 1.4872268208	-1.3177114359	-0.8110695536	 0.091647
53.3457	81.6146	93.5047	164.9392	216.6685	250.2408	269.7148	318.6724	345.8328	400.0155	442.6914	477.1549	539.2072	645.8789	770.0167	782.1616	835.1328	897.154	912.1758	956.3991	968.405	1002.3559	1034.9849	1039.0334	1117.4017	1125.1988	1133.8029	1160.546	1174.6252	1211.9205	1215.7072	1300.6178	1326.616	1361.6911	1379.3809	1402.2355	1411.5487	1478.0648	1486.1721	1492.7505	1497.2722	1521.1065	1832.9402	2896.0848	2989.5589	3049.2636	3055.4086	3102.208	3106.6141	3125.7222	3132.0917	3185.5949	3199.9996	3700.3478
CC(O)(CN1CC1)C=O	C[C@@](O)(CN1CC1)C=O	
InChI=1S/C6H11NO2/c1-6(9,5-8)4-7-2-3-7/h5,9H,2-4H2,1H3	InChI=1S/C6H11NO2/c1-6(9,5-8)4-7-2-3-7/h5,9H,2-4H2,1H3/t6-/m1/s1
