23
gdb 101844	2.65186	0.87633	0.76514	0.4118	82.34	-0.2352	0.0693	0.3045	1615.1365	0.203385	-425.399834	-425.389204	-425.38826	-425.436523	38.732	
C	 0.4051362726	 1.2327278499	-1.3994725869	-0.383831
C	 0.1452127567	-0.2256206412	-1.0157263278	-0.180744
C	 1.4259491093	-1.0494162455	-0.8696948321	 0.114542
O	 2.279172984	-0.5472242266	 0.1568907181	-0.429801
C	 1.139383129	-2.5353405711	-0.5990991778	-0.103271
O	 0.3778837342	-3.1781722284	-1.6095046362	-0.246991
C	 1.1258241475	-3.6495348231	-2.6897315714	 0.151858
C	 0.3595475675	-4.022647934	-3.9151977637	-0.295361
C	 1.2822887057	-2.8183413577	-3.9398768533	-0.287024
H	 1.0739756082	 1.7098709717	-0.6776637725	 0.12512
H	 0.8802162489	 1.3011990702	-2.3845127545	 0.113834
H	-0.5256416934	 1.8065394271	-1.437867843	 0.109548
H	-0.4044637626	-0.2716085348	-0.0626852168	 0.080035
H	-0.4974895547	-0.7153459053	-1.7553596635	 0.112187
H	 2.0196349649	-0.9650801408	-1.7872770887	 0.092954
H	 1.7684685233	-0.5236843363	 0.9744112403	 0.277756
H	 2.0942727667	-3.0545924449	-0.4355724015	 0.097896
H	 0.5490805152	-2.6238218648	 0.3231291225	 0.089654
H	 1.9655152157	-4.2812831297	-2.3975890411	 0.086904
H	 0.6448465536	-4.9185774655	-4.454619842	 0.115041
H	-0.7059603497	-3.8242038876	-3.8935922251	 0.125836
H	 0.8104157892	-1.8427433644	-3.950596138	 0.120648
H	 2.2133692581	-2.8803888674	-4.4930520847	 0.113208
43.4443	64.1624	80.8702	115.2709	197.6168	238.6392	251.2596	282.281	303.1881	368.6318	398.4882	453.383	500.9209	561.4477	745.7061	772.9666	806.6872	815.9048	831.4016	952.8671	962.8317	984.2872	987.3773	1035.3611	1048.3874	1070.2503	1083.5408	1098.9886	1123.4553	1129.347	1154.9258	1185.8969	1193.8563	1239.1685	1252.2562	1294.1337	1324.9204	1327.5498	1382.6756	1392.9945	1405.9648	1415.742	1426.4082	1453.9294	1484.9534	1490.0653	1498.0772	1500.4843	1509.0951	2992.6078	2999.221	3036.025	3039.055	3059.6268	3072.8595	3093.2005	3101.0159	3117.2643	3135.1092	3141.7293	3220.1518	3234.574	3791.1117
CCC(O)COC1CC1	CC[C@@H](O)COC1CC1	
InChI=1S/C7H14O2/c1-2-6(8)5-9-7-3-4-7/h6-8H,2-5H2,1H3	InChI=1S/C7H14O2/c1-2-6(8)5-9-7-3-4-7/h6-8H,2-5H2,1H3/t6-/m1/s1
