18
gdb 67086	2.7122	1.4922	1.31204	1.3418	76.62	-0.2402	-0.0385	0.2017	1044.4123	0.146958	-401.895313	-401.8872	-401.886256	-401.928228	30.638	
C	-0.1549452949	 1.5238916799	-0.0029312035	-0.531637
C	 0.0599648477	 0.0503116747	-0.0015083001	 0.302498
C	 0.4130531789	-0.9628262893	-1.0214629747	-0.081946
C	 1.4436253388	-1.6426472508	-0.1261183794	-0.290523
C	 0.6830620079	-0.9970857013	 1.0547025096	 0.162828
C	-0.7096977376	-1.6570834644	 0.9569259434	-0.197365
N	-0.9506199398	-0.983309625	-0.3548197852	-0.18457
C	 1.3405812143	-0.6741080638	 2.3478384469	 0.035701
O	 2.506115783	-0.8702677915	 2.5940450678	-0.245923
H	 0.7961562435	 2.0651593849	 0.039009358	 0.132997
H	-0.6766827919	 1.8133893768	-0.9206211512	 0.143314
H	-0.7677472977	 1.8446175264	 0.8466558801	 0.1295
H	 0.4037250779	-0.8653192699	-2.0993047808	 0.103883
H	 1.5192537282	-2.7344099416	-0.1328551492	 0.104002
H	 2.4340352176	-1.2008916901	-0.2524388192	 0.125732
H	-0.7428429898	-2.7525051924	 0.9429389548	 0.106929
H	-1.4296007893	-1.271165102	 1.6838854316	 0.112977
H	 0.6685107733	-0.2082485705	 3.105834551	 0.071602
56.6531	164.6173	189.0122	209.222	245.1542	323.0524	444.6333	454.6716	481.9605	605.8405	680.8613	728.4588	767.0664	833.1901	848.5845	925.6752	938.9301	970.4919	984.6941	1029.5344	1068.588	1079.9093	1095.6561	1113.0349	1150.265	1167.3518	1174.5869	1238.2037	1254.5663	1283.5821	1333.0699	1399.7023	1425.4616	1445.7503	1478.1946	1490.6802	1491.8154	1513.4157	1809.34	2859.8449	3029.9122	3035.225	3055.4913	3094.2121	3100.3719	3108.9127	3123.4492	3204.1714
CC12C3CC1(CN23)C=O	C[C@@]12[C@H]3C[C@@]1(CN23)C=O	
InChI=1S/C7H9NO/c1-6-5-2-7(6,4-9)3-8(5)6/h4-5H,2-3H2,1H3	InChI=1S/C7H9NO/c1-6-5-2-7(6,4-9)3-8(5)6/h4-5H,2-3H2,1H3/t5-,6-,7-,8?/m1/s1
