17
gdb 63114	2.24528	1.71262	1.22558	5.3878	74.61	-0.2493	-0.0004	0.2489	1055.758	0.135396	-417.968098	-417.959482	-417.958538	-418.000893	32.654	
C	 0.0058964964	 1.5541731128	-0.0139791919	-0.471595
C	 0.0116094776	 0.0402559021	-0.0742255346	 0.184871
N	-1.1275821277	-0.6751292235	 0.4433554063	-0.548835
C	 0.6410741712	-0.7501286025	-1.208731431	-0.19501
C	 1.9370034779	-0.1046667013	-1.6782130068	-0.119021
O	 2.4392655322	-0.0197853527	-0.312389191	-0.318723
C	 1.2990601442	-0.7333897136	 0.1676249148	 0.338313
C	 1.4764953778	-1.7313132113	 1.1725653831	 0.248252
N	 1.6313898542	-2.5199590862	 2.0048310433	-0.357329
H	 0.9736676927	 1.9811842905	-0.2834897378	 0.143998
H	-0.7588450011	 1.9626323618	-0.6841672039	 0.117882
H	-0.2289559885	 1.8829707031	 1.0042004986	 0.124047
H	-1.3073306356	-0.4193677857	 1.4095309734	 0.243108
H	-1.9621266622	-0.4557690401	-0.0918776758	 0.236803
H	 0.1131102114	-1.5626525513	-1.6870521133	 0.126995
H	 2.5667908104	-0.7761670332	-2.2700333021	 0.129712
H	 1.878123329	 0.876406631	-2.1601405912	 0.116532
120.4335	144.5201	195.5797	238.4616	259.5904	267.5024	338.3634	385.5182	425.5608	484.6312	528.4524	576.7377	617.1669	696.7451	792.1626	822.1047	929.4847	946.3496	970.1746	975.4203	996.2012	1038.1882	1084.9592	1090.8799	1158.405	1185.5302	1226.6763	1272.748	1299.4618	1338.6365	1405.3134	1417.1916	1486.6506	1496.9034	1519.6416	1661.0796	2349.4902	3033.1539	3043.0794	3093.3358	3094.4324	3133.6459	3223.8615	3494.998	3572.735
CC1(N)C2COC12C#N	C[C@@]1(N)[C@H]2CO[C@@]12C#N	
InChI=1S/C6H8N2O/c1-5(8)4-2-9-6(4,5)3-7/h4H,2,8H2,1H3	InChI=1S/C6H8N2O/c1-5(8)4-2-9-6(4,5)3-7/h4H,2,8H2,1H3/t4-,5-,6-/m1/s1
