16
gdb 87032	2.20186	1.60301	1.08672	6.0067	70.8	-0.2585	-0.0064	0.2521	1116.1434	0.123406	-434.080879	-434.071752	-434.070808	-434.114725	33.14	
C	-0.2193927119	 1.5817195135	 0.2381566484	-0.333899
N	-0.1703505584	 0.1230102675	 0.3210236917	-0.130631
C	 0.9781067812	-0.5570816444	-0.2331339604	-0.249476
C	 0.7659922815	-0.5111778213	 1.2634603149	 0.059033
C	 1.6801262009	 0.3102392563	 2.0256950016	 0.261403
N	 2.3803221313	 1.0179626969	 2.6127671923	-0.341363
C	 0.2759369426	-1.7563616878	 1.9982978407	 0.365611
N	-0.909088297	-2.2225586552	 1.5290473731	-0.540558
O	 0.9364332555	-2.2671432163	 2.8765218825	-0.344025
H	 0.7664512027	 2.0573221942	 0.3246014375	 0.140832
H	-0.6613117181	 1.8508939233	-0.7247821557	 0.138309
H	-0.8612838476	 1.9629003295	 1.0363417889	 0.145688
H	 0.7841581125	-1.4911357684	-0.7519885605	 0.143642
H	 1.7987210045	 0.0424312391	-0.622537875	 0.143495
H	-1.4625828247	-1.6278634478	 0.931929336	 0.272999
H	-1.3322489249	-3.0009715592	 2.0066691039	 0.268939
69.8817	147.7843	155.096	178.1073	202.2185	252.9229	345.9253	396.7619	405.1577	432.2646	464.047	566.2662	620.2075	632.6129	665.2968	726.7831	835.828	905.4024	925.5515	1042.7786	1093.3742	1117.0714	1132.0468	1149.4269	1207.4347	1226.9423	1332.7521	1380.4375	1453.0434	1490.5561	1493.1358	1507.4385	1588.8319	1814.6171	2358.885	3016.612	3098.4387	3104.5182	3128.2233	3202.2459	3579.9099	3722.0344
CN1CC1(C#N)C(N)=O	CN1C[C@]1(C#N)C(=O)N	
InChI=1S/C5H7N3O/c1-8-3-5(8,2-6)4(7)9/h3H2,1H3,(H2,7,9)	InChI=1S/C5H7N3O/c1-8-3-5(8,2-6)4(7)9/h3H2,1H3,(H2,7,9)/t5-,8?/m1/s1
