17
gdb 38616	2.69352	2.2482	1.64014	1.0015	69.92	-0.2424	0.0693	0.3118	849.9209	0.138555	-421.768361	-421.762221	-421.761276	-421.798518	26.076	
C	-0.0422525074	 1.5758649485	 0.0625109935	-0.275751
C	 1.4318444157	 1.9627663176	 0.0367946145	 0.019148
O	 2.2294565694	 1.9659044215	-1.1785116485	-0.312466
C	 2.2270389666	 0.8062394635	-0.3754618394	 0.349276
C	 3.1356912749	 0.2175162403	 0.6873843281	-0.16436
O	 2.1118390814	-0.4187732101	 1.4880418955	-0.274972
C	 1.0776673639	-0.8538783428	 0.6073412601	 0.096903
C	 0.0101839854	 0.0539789168	-0.0667011195	-0.080955
C	 1.2951859662	-0.3346097479	-0.7637695096	-0.195279
H	-0.4942661992	 1.9261902621	 0.9967123917	 0.112892
H	-0.6191560717	 2.0069184179	-0.7640535087	 0.117198
H	 1.8112605639	 2.647575982	 0.7899603748	 0.101776
H	 3.8510790042	-0.5289826172	 0.318625551	 0.101256
H	 3.6518270159	 0.9541550548	 1.3057342623	 0.121292
H	 0.7627266985	-1.8704171833	 0.8177613499	 0.104237
H	-0.9089936818	-0.4766022045	-0.3035126813	 0.084863
H	 1.4116743241	-0.8966216889	-1.6824726543	 0.094941
219.6539	255.461	369.0515	409.2915	463.9774	548.0815	623.2255	700.4732	725.1369	751.6855	787.7749	817.5232	845.0487	907.4611	919.8369	966.9954	983.2162	1002.2299	1012.8835	1046.8315	1056.5847	1086.9239	1101.7298	1110.3793	1150.0621	1186.3895	1204.9203	1216.1042	1285.5491	1306.4978	1313.2226	1337.3251	1359.4637	1397.6562	1460.6946	1481.151	1513.0991	3019.9586	3036.6806	3077.2581	3118.4156	3140.4876	3153.3965	3165.9292	3182.7851
C1C2OC22COC3C1C23	C1[C@@H]2O[C@]32CO[C@H]2[C@@H]1[C@@H]32	
InChI=1S/C7H8O2/c1-3-5-6(3)8-2-7(5)4(1)9-7/h3-6H,1-2H2	InChI=1S/C7H8O2/c1-3-5-6(3)8-2-7(5)4(1)9-7/h3-6H,1-2H2/t3-,4-,5+,6-,7-/m0/s1
