14
gdb 43031	2.89121	1.66665	1.22048	5.7598	71.76	-0.2642	-0.022	0.2422	978.137	0.101777	-399.529783	-399.522875	-399.521931	-399.561234	26.496	
O	-0.0697779391	 0.0522798622	 0.0292741506	-0.308288
C	-0.066898518	 1.2438108682	 0.0784519157	 0.395888
C	-1.1327019362	 2.3399984686	-0.0844568717	-0.198119
C	-0.9760333134	 3.1825033662	 1.2168035534	-0.245313
C	 0.4008020139	 3.572688396	 0.6722377854	-0.10286
C	 0.0256882835	 3.2142669054	-0.7201167618	-0.103586
C	 1.0237664714	 2.2944250731	 0.047521416	 0.086399
C	 2.4222366983	 2.1497633225	-0.15362127	 0.182468
N	 3.5608610906	 2.0194732058	-0.3144871203	-0.341393
H	-2.0986570891	 2.1119418827	-0.5235586678	 0.113073
H	-1.6454679827	 4.0458075888	 1.2208273247	 0.127467
H	-1.0383032305	 2.6509037132	 2.1709714252	 0.123463
H	 1.0728212103	 4.3515539461	 1.0089294696	 0.12902
H	 0.183563881	 3.6521204412	-1.6932833689	 0.141781
134.9923	146.6031	178.29	376.5312	396.9354	490.623	541.1428	604.2832	626.9077	705.0559	782.7561	798.3646	833.1506	864.2355	910.8117	932.0721	963.1092	987.7118	1005.0651	1070.5412	1098.169	1135.5144	1170.8816	1198.3967	1222.0861	1264.1595	1288.5988	1382.2703	1497.1702	1899.2977	2350.7123	3057.6327	3119.6792	3180.8112	3207.0016	3253.5423
O=C1C2CC3C2C13C#N	O=C1[C@H]2C[C@@H]3[C@H]2[C@]13C#N	
InChI=1S/C7H5NO/c8-2-7-4-1-3(5(4)7)6(7)9/h3-5H,1H2	InChI=1S/C7H5NO/c8-2-7-4-1-3(5(4)7)6(7)9/h3-5H,1H2/t3-,4+,5-,7+/m0/s1
