19
gdb 60656	2.57177	1.33562	1.06225	5.211	70.87	-0.2414	0.0247	0.2661	1177.116	0.161104	-456.355452	-456.34663	-456.345686	-456.3894	32.542	
N	-0.0629740353	 1.5097132247	-0.1327448357	-0.511562
C	 0.0314209559	 0.05887145	-0.0262701628	-0.14985
C	 0.7235267617	-0.49758498	-1.2745382506	 0.04942
C	 2.2631760599	-0.3637834422	-1.4450084907	-0.253997
C	 2.2467516447	-1.848443465	-1.8817152279	-0.159854
N	 0.8831475446	-1.984060162	-1.2929720349	-0.350829
H	 0.895920611	-2.1030047324	 0.4523593579	 0.311924
H	 0.2062933561	-2.4941294153	-1.8510381049	 0.233151
C	 0.6505141867	-0.4239366835	 1.3106010648	 0.385041
O	 0.9749604146	-1.7187455105	 1.3694046752	-0.378654
O	 0.7821070026	 0.3186923699	 2.2506020139	-0.34496
H	-0.4228856911	 1.8570363431	 0.7534681906	 0.245811
H	 0.8806609046	 1.8907825816	-0.176592966	 0.229746
H	-0.9933272269	-0.3456402662	-0.0310481202	 0.108843
H	 0.194468882	-0.1130223442	-2.1537667516	 0.096025
H	 2.6165232545	 0.363976119	-2.1746970162	 0.118765
H	 2.7846312778	-0.2102901775	-0.4974452508	 0.13502
H	 2.2579352281	-1.96643562	-2.9712133672	 0.112209
H	 2.9888952386	-2.5193845094	-1.4418622929	 0.12375
74.2069	99.9649	137.1769	179.5062	208.371	294.9814	306.8483	397.5911	473.5151	529.3224	588.7093	666.6231	763.8239	779.3669	824.6945	862.3909	934.8752	957.6573	967.5971	993.1287	1011.3613	1021.9955	1081.0755	1097.8244	1143.4326	1167.8169	1201.6792	1218.2765	1250.5652	1262.1739	1278.4166	1312.9499	1350.0571	1366.4227	1383.8543	1405.632	1489.916	1507.9305	1524.2643	1676.0118	1846.113	2987.309	3036.3661	3041.8318	3080.7074	3096.9716	3145.4834	3150.7237	3474.4615	3522.9868	3541.3709
NC(C1CC[NH2+]1)C([O-])=O	N[C@@H]([C@H]1CCN1)C(=O)O	
InChI=1S/C5H10N2O2/c6-4(5(8)9)3-1-2-7-3/h3-4,7H,1-2,6H2,(H,8,9)	InChI=1S/C5H10N2O2/c6-4(5(8)9)3-1-2-7-3/h3-4,7H,1-2,6H2,(H,8,9)/t3-,4+/m1/s1
