16
gdb 60876	2.35369	1.39437	1.04433	2.1202	69.94	-0.2812	-0.0548	0.2264	1144.4289	0.122716	-437.892236	-437.883483	-437.882539	-437.926057	31.878	
O	-0.4370901776	 1.2020112842	 0.1163531695	-0.428017
C	 0.0244858551	-0.1077524451	-0.0184035189	-0.042867
C	 0.933441773	-0.2100335203	-1.2375940478	 0.139728
O	 1.1531295017	 0.7582202248	-1.9238896364	-0.259365
C	 0.7899804308	-0.5619770052	 1.2426052893	 0.151978
C	 1.7245645821	 0.4272491288	 1.9229205059	-0.289335
C	 0.4247536615	 0.0720841228	 2.575771791	-0.29893
C	 1.1541268775	-1.9536612038	 1.2358263607	 0.231896
N	 1.4329646469	-3.076367898	 1.1952614034	-0.342266
H	-0.0462628854	 1.6907810826	-0.6281714939	 0.302465
H	-0.8167040344	-0.8049659555	-0.1714268001	 0.117644
H	 1.3794246672	-1.1992665535	-1.4501378975	 0.135246
H	 2.6454041778	 0.0398514371	 2.3408511992	 0.142137
H	 1.7949944134	 1.3996627158	 1.4501959438	 0.140671
H	-0.3721445119	 0.8039083241	 2.5389968614	 0.156632
H	 0.4395673121	-0.5718739888	 3.4466268802	 0.142383
62.4756	109.3596	144.0493	222.1935	249.2581	267.012	331.1498	383.6061	448.6648	527.5519	556.8207	583.2359	675.5373	772.6326	790.8201	850.2772	880.4511	926.4677	964.6145	1011.6991	1055.0158	1076.5493	1105.7834	1157.5399	1200.6377	1252.6729	1270.0071	1301.4116	1352.0729	1395.448	1438.3382	1451.8472	1486.2906	1812.537	2345.1597	2965.0901	2979.4567	3151.7594	3155.8163	3242.8048	3256.6619	3655.1474
OC(C=O)C1(CC1)C#N	O[C@@H](C=O)C1(CC1)C#N	
InChI=1S/C6H7NO2/c7-4-6(1-2-6)5(9)3-8/h3,5,9H,1-2H2	InChI=1S/C6H7NO2/c7-4-6(1-2-6)5(9)3-8/h3,5,9H,1-2H2/t5-/m0/s1
