18
gdb 37264	4.00538	1.85258	1.68992	1.9964	75.44	-0.2388	0.0804	0.3192	845.9236	0.152087	-364.744404	-364.738785	-364.737841	-364.773968	25.12	
C	-0.0238496889	 1.5397299883	 0.014537655	-0.309497
C	 1.2986940419	 0.8090983844	 0.0273042991	-0.045328
C	-0.0047356335	 0.0290601096	 0.039361606	-0.045329
C	-0.0593526199	-0.6844679941	-1.3004914008	-0.046689
C	 1.0468448361	-1.7286740849	-1.5115384355	-0.049162
C	 2.3296160547	-0.9610106109	-1.5233711556	-0.049163
C	 1.9350273284	 0.5090542848	-1.3189329709	-0.046687
C	 0.7960406326	 0.1338600078	-2.3047105575	-0.034678
N	 1.5461825136	-1.1271606238	-2.7943683244	-0.181212
H	-0.3153420558	 2.0409759226	 0.9308209088	 0.112663
H	-0.3415131395	 2.0566169513	-0.8859670923	 0.111742
H	 1.9258899871	 0.8711289023	 0.9098066933	 0.084675
H	-0.3437330777	-0.4871340715	 0.9307971783	 0.084674
H	-1.0409348838	-0.9972865232	-1.6590471225	 0.075658
H	 1.0048512632	-2.8025234146	-1.369269528	 0.090828
H	 3.2976810569	-1.4304009541	-1.3904098373	 0.090828
H	 2.6696219908	 1.2232639646	-1.6933623144	 0.075659
H	 0.3752155539	 0.8258585014	-3.0296535112	 0.081018
274.4977	299.7349	461.2814	481.4534	650.0407	653.7572	780.6854	781.7098	818.1659	824.1709	827.9814	852.2334	867.4064	877.4916	929.1475	929.7851	942.7751	992.0812	1022.8935	1025.1773	1036.3066	1049.5396	1053.7517	1075.197	1087.7758	1107.3514	1136.6189	1170.7282	1189.5226	1208.3867	1235.5265	1237.1344	1268.8076	1312.4629	1330.4102	1346.7917	1358.1223	1383.4853	1487.7086	3103.7108	3104.4895	3127.1114	3147.1598	3164.805	3172.8671	3173.0142	3184.9894	3212.1064
C1C2C1C1C3C4C2C1N34	C1[C@H]2[C@@H]1[C@@H]1[C@@H]3[C@@H]4[C@H]2[C@H]1N34	
InChI=1S/C8H9N/c1-2-3(1)5-6-4(2)7-8(5)9(6)7/h2-8H,1H2	InChI=1S/C8H9N/c1-2-3(1)5-6-4(2)7-8(5)9(6)7/h2-8H,1H2/t2-,3+,4+,5-,6+,7-,8+,9?
