19
gdb 94116	3.81978	0.86686	0.74481	1.9984	73.02	-0.2525	-0.0264	0.2261	1506.1644	0.157324	-460.17866	-460.169176	-460.168232	-460.214963	32.806	
C	 0.1945791181	 1.5341641858	 0.2458568734	-0.404742
C	 0.1748356661	 0.0369140132	 0.0443980806	 0.231344
O	 0.9650059183	-0.3270929754	-1.0775684206	-0.266319
C	 1.5783507821	-1.5777141812	-0.7929878117	-0.106487
C	 1.1530326319	-1.8948688036	 0.6602183062	 0.09055
C	 2.2554636856	-2.4607946361	 1.5509571051	-0.309561
C	 1.7811726024	-2.715032929	 2.9689412923	 0.154818
O	 1.9073330688	-3.7641989986	 3.5463875633	-0.237152
O	 0.7471998187	-0.6235504922	 1.1522324581	-0.266146
H	 1.2213429109	 1.869777105	 0.4094264132	 0.131008
H	-0.2079691728	 2.0307864119	-0.6402331629	 0.133237
H	-0.417413035	 1.8049776584	 1.1099406538	 0.129122
H	-0.8572958489	-0.332399626	-0.1068086428	 0.063819
H	 1.2395332721	-2.3483553031	-1.4956659243	 0.108484
H	 2.6663790065	-1.4717966907	-0.8852159023	 0.106772
H	 0.2896493039	-2.5796580395	 0.6518538115	 0.085797
H	 2.6441163375	-3.3969982031	 1.1401728172	 0.125821
H	 3.0698986131	-1.7246778788	 1.5893590334	 0.1306
H	 1.2955976907	-1.8414894172	 3.4541734163	 0.099035
38.2102	46.8232	76.0572	121.9056	181.0869	209.2397	310.1999	354.1843	425.8559	483.0917	518.3293	669.8096	708.3667	819.0851	849.0864	875.4386	923.1985	970.4218	1001.1085	1056.468	1090.1322	1102.6166	1130.1526	1135.5703	1153.2159	1167.9251	1212.4592	1254.2403	1289.329	1336.0432	1366.1028	1381.968	1395.4681	1406.1578	1424.9063	1444.767	1448.844	1484.6676	1486.7134	1527.9361	1832.7488	2909.9567	2922.1259	2971.0653	3018.0276	3028.4598	3055.5913	3059.4989	3106.1976	3135.7998	3140.6635
CC1OCC(CC=O)O1	C[C@H]1OC[C@@H](CC=O)O1	
InChI=1S/C6H10O3/c1-5-8-4-6(9-5)2-3-7/h3,5-6H,2,4H2,1H3	InChI=1S/C6H10O3/c1-5-8-4-6(9-5)2-3-7/h3,5-6H,2,4H2,1H3/t5-,6+/m0/s1
