23
gdb 101858	5.35548	0.50991	0.48556	1.824	88.96	-0.2582	0.0576	0.3158	2247.9214	0.202541	-388.260344	-388.248865	-388.24792	-388.297898	40.864	
C	-0.1396272856	 1.5954591242	 0.1101050091	-0.391608
C	-0.0560730028	 0.0665418675	 0.0081853402	 0.030343
C	-1.4560193691	-0.5516594088	 0.0102541859	-0.078198
O	-2.0993535083	-0.2123674122	 1.2305800298	-0.423458
C	 0.7252279643	-0.4131058954	-1.2273735571	-0.188131
C	 2.2066089206	-0.0217711895	-1.2337957979	-0.183833
C	 2.9545697154	-0.5940277793	-2.4556145009	-0.355614
C	 4.3663178298	-0.2311609602	-2.4836779029	 0.292367
C	 5.5268565783	 0.0822969047	-2.4826297326	-0.436568
H	 0.844531843	 2.0494902877	 0.254907789	 0.113084
H	-0.5746438606	 2.0220025787	-0.802633962	 0.103817
H	-0.7738955806	 1.8811483436	 0.9518117781	 0.13468
H	 0.4525862572	-0.3127429693	 0.9058810631	 0.081984
H	-2.025046439	-0.1750544783	-0.8568297558	 0.080854
H	-1.3761256925	-1.6452327511	-0.099867259	 0.080893
H	-3.0047900367	-0.5327963141	 1.1937305211	 0.286282
H	 0.6514081706	-1.5078258506	-1.292747787	 0.089551
H	 0.2425993411	-0.021410433	-2.1348319461	 0.091793
H	 2.3186264859	 1.0670242705	-1.2352236182	 0.115023
H	 2.6919532005	-0.382835166	-0.319273462	 0.109283
H	 2.8589357818	-1.6880376835	-2.463572932	 0.127517
H	 2.4699673817	-0.2429254015	-3.3764847631	 0.127931
H	 6.553304995	 0.352977856	-2.4920856696	 0.192008
42.2644	75.5098	82.2278	114.6134	130.6998	186.868	235.7173	242.3049	282.7713	296.9118	350.3461	363.323	424.9149	527.4554	538.743	614.8634	633.935	740.8598	822.2103	856.0133	926.0363	937.8341	966.5198	1005.4034	1020.8808	1045.8169	1083.5069	1106.3073	1137.8766	1170.3133	1203.0805	1233.5621	1267.5953	1278.4347	1302.6804	1326.1562	1328.8089	1367.5718	1383.8676	1395.0249	1408.1971	1457.1351	1473.1506	1481.5111	1495.8465	1503.9525	1509.0872	1520.2759	2238.5019	2952.5867	2981.7553	2996.5306	3010.2311	3013.3693	3028.6409	3033.6666	3039.9003	3044.2182	3090.26	3101.1849	3131.6238	3508.1348	3835.4535
CC(CO)CCCC#C	C[C@@H](CO)CCCC#C	
InChI=1S/C8H14O/c1-3-4-5-6-8(2)7-9/h1,8-9H,4-7H2,2H3	InChI=1S/C8H14O/c1-3-4-5-6-8(2)7-9/h1,8-9H,4-7H2,2H3/t8-/m1/s1
