17
gdb 133817	3.42059	2.38003	2.00882	1.2297	73.78	-0.2277	0.0574	0.2851	753.3848	0.139531	-380.704336	-380.69904	-380.698095	-380.73353	24.008	
C	-1.0279327375	 1.1628545076	 1.1218246092	-0.274757
N	-0.7517643537	-0.2708328772	 1.5992988303	-0.187414
C	 0.7416708704	-0.5903932037	 1.3108055961	-0.04114
C	 0.4245145434	-1.4187071071	 0.0057810607	-0.04114
C	-0.8880347416	-0.6794145691	 0.1474253307	 0.027065
C	-0.3249513082	 0.7138201817	-0.2116965512	 0.165171
C	 0.2779807725	 0.454118012	-1.6410757511	-0.274757
N	 1.2553782587	-0.4844252048	-0.9175170892	-0.187414
C	 1.1173819175	 0.443174274	 0.2715838633	 0.027065
H	-0.5630532866	 1.9723365994	 1.6917008915	 0.111308
H	-2.1117985275	 1.2898723836	 1.0866604025	 0.121143
H	 1.3594141964	-0.8976368212	 2.1497612026	 0.083994
H	 0.5352452395	-2.490017725	-0.1352300862	 0.083994
H	-1.868248502	-0.9681134564	-0.2321860662	 0.077216
H	 0.8679714021	 1.2617008283	-2.0790897257	 0.121143
H	-0.3763782545	 0.0032028891	-2.3924896007	 0.111308
H	 1.807514571	 1.280818289	 0.3732712533	 0.077216
376.1777	392.65	455.3468	497.0573	699.4118	744.0768	748.4324	786.6109	790.4229	815.7668	855.0372	866.471	872.1903	890.3451	932.7106	936.3453	942.5511	961.0167	965.9216	997.7999	1057.9943	1114.8006	1127.349	1128.534	1139.098	1164.5234	1173.3986	1178.2889	1187.6155	1204.7092	1217.7185	1241.5713	1274.3987	1296.4333	1308.5091	1490.8306	1494.0329	3058.3941	3059.8887	3109.1095	3111.082	3129.8633	3130.3374	3156.1866	3166.0679
C1N2C3C4C2C11CN4C31	C1N2[C@H]3[C@H]4[C@@H]2[C@]21CN4[C@H]32	
InChI=1S/C7H8N2/c1-7-2-9-4-3(6(7)9)8(1)5(4)7/h3-6H,1-2H2	InChI=1S/C7H8N2/c1-7-2-9-4-3(6(7)9)8(1)5(4)7/h3-6H,1-2H2/t3-,4-,5+,6+,7-/m0/s1
