19
gdb 120943	2.91935	1.09609	0.93935	2.3097	72.05	-0.2347	0.0616	0.2963	1315.9794	0.156886	-460.093698	-460.08441	-460.083466	-460.128362	33.874	
C	-0.4069146148	 1.2375590514	-0.515485465	-0.224057
O	-0.6086363929	-0.1563403319	-0.5026747589	-0.240309
C	-0.9342896085	-0.6561245822	 0.7775853279	-0.090642
C	-1.0817046014	-2.1574797033	 0.6286605551	 0.053424
O	-1.5487237159	-2.8218744589	 1.8357451494	-0.310675
C	-2.5795605638	-3.4858040697	 1.0892638532	 0.049196
C	-3.5632780862	-2.4830050574	 0.5479367683	-0.364813
C	-2.2506560632	-2.7374757065	-0.1707030644	 0.314223
O	-2.1579721456	-3.1998310918	-1.4641536053	-0.454029
H	-0.1607146186	 1.5237662431	-1.540909959	 0.127943
H	-1.3097374085	 1.7836063874	-0.1996221086	 0.106307
H	 0.4219473225	 1.5343988195	 0.1456728789	 0.108995
H	-0.1445477116	-0.4213671471	 1.510662252	 0.096561
H	-1.8700774242	-0.2101397711	 1.1498659259	 0.091606
H	-0.1361164636	-2.600534494	 0.2931176012	 0.096732
H	-2.7845212543	-4.525549109	 1.3116327754	 0.113556
H	-4.4113644187	-2.9241106145	 0.0325867436	 0.12001
H	-3.7703624299	-1.5683229922	 1.0964149261	 0.112631
H	-2.2814895809	-2.4478407519	-2.0551524358	 0.293341
57.6152	87.1166	105.9278	204.496	245.3708	274.5412	290.4982	365.563	383.3333	407.5867	474.8357	551.0818	667.3128	728.1572	849.6515	899.4869	926.7155	961.715	987.3557	1013.7643	1021.4219	1045.6461	1071.0356	1108.3899	1139.8103	1165.0889	1184.2339	1215.9135	1218.7254	1229.8821	1253.033	1278.9788	1317.687	1364.7226	1415.1074	1430.7909	1480.7824	1484.7486	1499.9912	1505.0459	1526.8756	2964.006	2976.7538	2998.822	3019.5324	3043.2849	3114.5424	3114.6886	3195.1232	3210.4017	3787.8202
COCC1OC2CC12O	COC[C@H]1O[C@H]2C[C@@]12O	
InChI=1S/C6H10O3/c1-8-3-5-6(7)2-4(6)9-5/h4-5,7H,2-3H2,1H3	InChI=1S/C6H10O3/c1-8-3-5-6(7)2-4(6)9-5/h4-5,7H,2-3H2,1H3/t4-,5+,6-/m0/s1
