22
gdb 103413	2.44258	1.391	1.20617	2.6946	81.28	-0.2399	0.0785	0.3184	1169.7946	0.193665	-404.306503	-404.297162	-404.296218	-404.339882	36.377	
C	 0.139691455	 1.5841217593	-0.3179101448	-0.416536
C	 0.1417406727	 0.0890954232	-0.0193683092	-0.0628
C	 1.1624144611	-0.8043859881	-0.7261505987	-0.028754
C	 2.5456146875	-0.5358407751	-0.2874516201	-0.250913
N	 1.7029194292	-1.3774562688	 0.5743397755	-0.17422
C	 0.7267336535	-0.4766827456	 1.3210232482	 0.301199
C	 1.3458645086	 0.4652168983	 2.3431467395	-0.451451
C	-0.2378542082	-1.4534096063	 2.0075950583	-0.089072
O	 0.4507686742	-2.3043186754	 2.8997937805	-0.426605
H	 1.1318282558	 2.0316343988	-0.2131572462	 0.115904
H	-0.1999956768	 1.7692043741	-1.3428211608	 0.119343
H	-0.5385561716	 2.1181770923	 0.3561213525	 0.119421
H	-0.8712334308	-0.300642266	-0.165012218	 0.077517
H	 0.9469660455	-1.4463794826	-1.5748891255	 0.093322
H	 3.3377311439	-1.1004352809	-0.7705491588	 0.122187
H	 2.8459494213	 0.453954982	 0.0430670872	 0.114098
H	 2.1397391275	 1.0909647633	 1.9289991121	 0.109651
H	 0.5788534398	 1.1333565089	 2.7500424696	 0.117712
H	 1.7567230644	-0.1194891827	 3.170344988	 0.139397
H	-0.986684497	-0.9059785631	 2.5912732261	 0.100627
H	-0.7680932317	-2.034035638	 1.2358975853	 0.080839
H	 1.170203696	-2.6813034377	 2.3739755191	 0.289134
119.5474	172.9987	188.5066	193.8766	199.9746	249.0651	296.042	328.6341	358.1563	452.5509	518.2588	538.1717	560.4204	644.04	729.5491	763.384	808.4178	870.3073	921.9106	930.333	973.9675	986.1601	1042.4979	1058.6716	1070.7313	1086.6208	1098.129	1116.8164	1145.6208	1157.9915	1197.5789	1218.611	1233.8239	1276.1626	1301.5382	1365.6087	1379.6773	1385.9817	1411.7859	1414.236	1436.4603	1483.4032	1489.5619	1493.3854	1498.9309	1504.1329	1514.7684	2973.3394	3033.7747	3041.1928	3047.6091	3065.6302	3095.687	3105.2517	3111.7506	3118.8644	3128.4575	3154.7351	3200.2517	3745.6626
CC1C2CN2C1(C)CO	C[C@H]1[C@H]2CN2[C@]1(C)CO	
InChI=1S/C7H13NO/c1-5-6-3-8(6)7(5,2)4-9/h5-6,9H,3-4H2,1-2H3	InChI=1S/C7H13NO/c1-5-6-3-8(6)7(5,2)4-9/h5-6,9H,3-4H2,1-2H3/t5-,6+,7+,8?/m0/s1
