15
gdb 20923	3.46829	1.96413	1.37758	1.1382	64.15	-0.2152	-0.0136	0.2016	888.1088	0.119777	-392.137309	-392.12955	-392.128606	-392.170155	27.553	
C	-0.0892367865	 1.5554266408	-0.0443276318	-0.38586
C	-0.0782713829	 0.0301974987	 0.0647977921	-0.135962
N	-1.4092658294	-0.5460370605	 0.0103411936	-0.032112
N	-2.0849517535	-0.920200614	 1.12790595	-0.109153
N	-3.2224646624	-1.3654802377	 0.7929075826	-0.079881
N	-3.3110688936	-1.2815819895	-0.5691176954	-0.317821
C	-2.1633021058	-0.7493572256	-1.1353697575	 0.485942
N	-1.7825722046	-0.478376443	-2.3248635405	-0.605518
H	 0.9354378891	 1.9372787483	-0.009768587	 0.122406
H	-0.5406596802	 1.8628584764	-0.9906656501	 0.153388
H	-0.6521262172	 2.0018089087	 0.7804696578	 0.129753
H	 0.4887318228	-0.4069368658	-0.7623368421	 0.145266
H	 0.364274842	-0.301744002	 1.0067063477	 0.134887
H	-4.14868097	-1.5859212546	-1.0324775487	 0.282017
H	-2.4880523979	-0.7230909402	-3.0138026706	 0.212648
39.8771	109.0278	192.0582	212.7553	294.2436	351.5389	410.8139	478.8832	672.0763	674.7437	698.7115	724.2162	769.6748	791.8001	973.6541	976.9738	1027.1245	1076.766	1096.2139	1109.912	1235.6726	1251.3333	1363.9594	1372.9688	1393.0978	1407.766	1426.9212	1469.8706	1489.8503	1502.2259	1507.6551	1754.4279	3046.2525	3066.4005	3113.9328	3121.4654	3139.734	3532.5977	3698.9471
CCN1N=NNC1=N	CCN1N=NN[C@@H]1[NH]	
InChI=1S/C3H7N5/c1-2-8-3(4)5-6-7-8/h2H2,1H3,(H2,4,5,7)	InChI=1S/C3H8N5/c1-2-8-3(4)5-6-7-8/h3-4H,2H2,1H3,(H,5,7)/t3-/m0/s1
