16
gdb 75103	3.11329	1.33363	0.94882	3.8709	75.38	-0.2378	-0.0595	0.1783	1179.5354	0.124616	-437.968233	-437.959917	-437.958973	-438.001655	30.521	
C	-0.0148743869	 1.5420094493	 0.0312251153	-0.478773
C	 0.0065029112	 0.0415485227	-0.0270065343	 0.149346
C	 0.0290818161	-0.6498878524	-1.1855792147	-0.043366
N	 0.014378272	-2.0295017869	-1.2802957042	-0.345829
C	-0.0533719152	-2.8943158477	-0.1976850861	 0.413655
O	-0.2060020381	-4.084409376	-0.3523240884	-0.345724
C	 0.124246419	-2.2238260987	 1.1521968391	-0.462173
C	-0.0484162937	-0.7039576554	 1.2362790869	 0.309649
O	-0.1905799035	-0.1611677549	 2.3155564685	-0.330418
H	 0.8398012194	 1.9244512363	 0.5991265828	 0.140191
H	 0.0080596272	 1.98137043	-0.9697455172	 0.113026
H	-0.9117702508	 1.8969630258	 0.5487604218	 0.145278
H	 0.0422736172	-0.1427478204	-2.1449054258	 0.132166
H	-0.0737620434	-2.467213855	-2.1857859289	 0.263648
H	-0.5168555169	-2.7157480404	 1.8866214452	 0.167611
H	 1.1556587964	-2.4384245063	 1.46732374	 0.171713
62.7889	98.1068	140.1524	277.7654	284.5473	361.1767	385.873	426.4058	478.6314	531.3271	593.3292	613.6499	682.4635	706.7441	789.4285	874.33	907.7157	956.1171	1002.0937	1070.4493	1101.9323	1165.1148	1189.1131	1225.3665	1278.6475	1349.9191	1392.2222	1412.5409	1419.0976	1470.0132	1480.1974	1494.8105	1698.9852	1758.6731	1817.3924	3028.8161	3037.321	3094.0047	3116.9736	3120.0558	3186.0863	3619.7396
CC1=CNC(=O)CC1=O	CC1=CNC(=O)CC1=O	
InChI=1S/C6H7NO2/c1-4-3-7-6(9)2-5(4)8/h3H,2H2,1H3,(H,7,9)	InChI=1S/C6H7NO2/c1-4-3-7-6(9)2-5(4)8/h3H,2H2,1H3,(H,7,9)
