14
gdb 26887	3.08132	1.47098	1.00185	2.8725	71.61	-0.2274	-0.0718	0.1556	1102.0534	0.099873	-473.880674	-473.872625	-473.871681	-473.913904	29.272	
C	 0.0032717468	 1.5553823232	 0.0548205407	-0.475506
C	-0.0216670645	 0.0540526018	 0.0315698895	 0.147086
C	-1.1668512143	-0.6750299675	-0.1102273486	 0.418266
O	-2.3841583795	-0.14093153	-0.2432015439	-0.388451
O	-1.1717451946	-2.0100017943	-0.1288880074	-0.249677
C	 0.0289457373	-2.7674507266	-0.0008268198	 0.382816
O	-0.0580620916	-3.9602882692	-0.0270210037	-0.320344
C	 1.1969434833	-1.9176244856	 0.1452472039	-0.149258
N	 1.1595436469	-0.6219575434	 0.1584893702	-0.240737
H	 0.6306101185	 1.9426299614	-0.7547190224	 0.13991
H	-1.0001726946	 1.9696417403	-0.0561535491	 0.138745
H	 0.4271063712	 1.9189841736	 0.9966523798	 0.139897
H	-3.0236290455	-0.8615544472	-0.3267053703	 0.317951
H	 2.1501420005	-2.4269524066	 0.2481492111	 0.139303
49.8954	102.2937	196.8299	287.1059	300.855	351.5346	403.8087	463.4367	470.2539	523.6717	580.9038	700.8083	714.2142	763.2352	784.8569	860.1041	892.8207	996.6243	1062.0051	1064.8969	1174.0161	1273.7863	1287.26	1379.4016	1413.5471	1430.3947	1481.7195	1494.1648	1542.8117	1693.3219	1859.888	3040.7024	3094.7892	3141.4602	3180.4976	3781.0463
CC1=C(O)OC(=O)C=N1	Cc1c(O)oc(=O)cn1	
InChI=1S/C5H5NO3/c1-3-5(8)9-4(7)2-6-3/h2,8H,1H3	InChI=1S/C5H5NO3/c1-3-5(8)9-4(7)2-6-3/h2,8H,1H3
