20
gdb 8061	3.11317	1.77531	1.41653	1.2681	75.88	-0.2618	0.0733	0.3352	968.1866	0.177309	-348.95224	-348.944127	-348.943183	-348.984593	31.231	
C	 0.1892820088	 1.363916434	 0.1749013032	-0.507416
C	 0.11141111	-0.13678233	 0.087789679	 0.346597
C	 0.609250062	-1.0536209293	-1.0754359795	-0.255857
C	-0.0016088685	-2.0204123632	-0.0217191866	-0.075504
C	 0.7522969524	-1.1866857107	 1.0528032105	-0.266281
C	-1.1895450624	-1.0161855178	 0.0800559254	 0.046324
C	-2.1490612824	-1.0187641595	 1.2532118873	-0.145625
O	-2.8256660674	 0.2363181037	 1.2400389991	-0.419767
H	 1.2303034327	 1.7062712516	 0.1820486712	 0.108525
H	-0.3139932773	 1.8300189944	-0.6791657434	 0.118066
H	-0.301520175	 1.7263641817	 1.0830929303	 0.127343
H	 0.0804016713	-0.9653117262	-2.0293498675	 0.084689
H	 1.6919385018	-1.1123884451	-1.2200507069	 0.083071
H	-0.0640564152	-3.1076346251	-0.0891547507	 0.065013
H	 1.8443576571	-1.2504166271	 1.0306170121	 0.084747
H	 0.3897868103	-1.2235015529	 2.0816812331	 0.087386
H	-1.7714959762	-0.9159254433	-0.8439975805	 0.063977
H	-2.8616238057	-1.851328221	 1.132599877	 0.083602
H	-1.632611499	-1.1733181037	 2.2105486786	 0.085421
H	-3.4735440775	 0.2352132594	 1.9507189283	 0.285689
75.3393	144.7985	192.8345	257.2145	287.1708	309.4237	350.9494	426.9224	564.5105	571.898	636.8401	755.2782	785.5497	844.2158	905.0648	906.7031	955.8486	994.4011	1009.3081	1024.3391	1046.747	1062.0079	1083.8217	1114.2822	1138.291	1150.4437	1176.2483	1200.8008	1216.0935	1225.6414	1243.7992	1259.1225	1266.2827	1325.7435	1407.9629	1411.3811	1465.9193	1485.6161	1490.9002	1500.5905	1521.0888	1548.7333	2966.6058	3009.8751	3028.2703	3038.3993	3043.2258	3054.7293	3092.7487	3099.1143	3106.664	3107.1866	3116.0801	3826.7611
CC12CC(C1)C2CO	C[C@@]12C[C@@H](C1)[C@H]2CO	
InChI=1S/C7H12O/c1-7-2-5(3-7)6(7)4-8/h5-6,8H,2-4H2,1H3	InChI=1S/C7H12O/c1-7-2-5(3-7)6(7)4-8/h5-6,8H,2-4H2,1H3/t5-,6-,7+/m1/s1
