21
gdb 73537	2.45395	1.92775	1.57631	1.4554	81.55	-0.2382	0.0825	0.3206	973.34	0.184292	-387.019138	-387.01155	-387.010606	-387.050918	31.41	
C	-0.1370619307	 1.5243950689	-0.0716945657	-0.479097
C	-0.0423157531	-0.0014227598	-0.0686825494	 0.340197
C	-1.4336537527	-0.611078576	 0.2216749724	-0.359262
C	-1.3397492637	-0.9036470959	 1.7740975785	-0.087885
O	 0.0467919241	-0.7913749231	 2.2023816563	-0.324586
C	 0.7519079759	-0.7451258053	 1.012066773	 0.424719
C	 2.077924768	-0.1732760051	 0.4591607386	-0.31368
C	 1.2089044886	-0.6655558295	-0.7802173228	-0.143721
C	 0.9564663814	-1.9545731825	 0.0292151737	-0.297848
H	 0.8195177769	 2.0275257817	-0.2231959366	 0.115728
H	-0.8007678581	 1.8470824717	-0.8818687236	 0.114204
H	-0.5665253633	 1.8968289919	 0.8660807587	 0.120979
H	-2.242071544	 0.0925580972	 0.0106815032	 0.100065
H	-1.6551633545	-1.5268233253	-0.3266963225	 0.113103
H	-1.9191374596	-0.1889189458	 2.3660198563	 0.111656
H	-1.6995769581	-1.9122801408	 2.0051916776	 0.106978
H	 2.2612596431	 0.893878851	 0.5682876166	 0.102913
H	 2.9846380069	-0.7523140428	 0.6480855321	 0.096617
H	 1.505938849	-0.5945965243	-1.8256432619	 0.077531
H	 1.8293002315	-2.5821495469	 0.2208378284	 0.089893
H	 0.0908591125	-2.5586768394	-0.2381801829	 0.091495
82.9041	183.2109	212.9549	344.5163	381.9006	405.7141	491.617	539.6563	560.8333	613.2936	732.0036	736.0981	778.8972	799.594	818.4702	875.2939	900.3531	938.3257	953.327	970.3799	976.7405	985.6947	1007.1875	1061.5431	1068.1564	1117.3377	1125.2586	1149.1263	1168.2642	1177.3837	1203.5458	1212.6191	1228.4006	1231.5782	1267.9217	1280.541	1310.5851	1386.4533	1411.2967	1484.1047	1494.1768	1501.2967	1515.4973	1521.5769	1552.6911	3028.3502	3037.6326	3073.0658	3077.2051	3079.7703	3081.8226	3083.2569	3118.9508	3123.5525	3124.6975	3149.0212	3159.4057
CC12CCOC11CC2C1	C[C@]12CCO[C@@]31C[C@H]2C3	
InChI=1S/C8H12O/c1-7-2-3-9-8(7)4-6(7)5-8/h6H,2-5H2,1H3	InChI=1S/C8H12O/c1-7-2-3-9-8(7)4-6(7)5-8/h6H,2-5H2,1H3/t6-,7-,8-/m1/s1
