16
gdb 51502	3.24757	1.06396	0.84189	3.4668	71.77	-0.2282	-0.03	0.1982	1298.0988	0.123668	-437.936998	-437.928581	-437.927637	-437.971249	30.167	
O	-0.6011759762	 0.616178897	 0.6478784102	-0.236269
C	 0.1037290105	 0.9240730724	-0.2771660874	 0.156656
C	 1.3145433676	 1.8231846987	-0.1884060504	-0.276303
C	 1.2199454631	 3.0054525375	-1.1735703104	-0.194569
C	 0.3045833492	 4.1404347723	-0.7831121572	-0.142625
C	 1.0142708803	 5.2724876772	-0.7663770061	-0.023012
N	 2.3560225054	 5.0401150379	-1.1093762888	-0.326673
C	 2.5927965562	 3.6976518572	-1.329424452	 0.422398
O	 3.6575253496	 3.181323576	-1.5767179054	-0.373118
H	-0.1050325624	 0.5482852446	-1.30789856	 0.072967
H	 1.434280691	 2.1669891549	 0.8419369187	 0.12665
H	 2.2004692208	 1.2372119645	-0.4715081207	 0.146615
H	 0.954322965	 2.6068746416	-2.1645080314	 0.123593
H	-0.7484723967	 4.0465058865	-0.566714223	 0.121815
H	 0.6943436383	 6.2801170599	-0.5429111694	 0.135837
H	 3.0933757285	 5.725023262	-1.0945752166	 0.266039
49.5581	78.38	116.3642	173.3899	280.0709	284.0769	445.2664	497.3676	512.2001	572.6051	643.5776	696.1583	733.4823	790.9014	815.6746	888.4268	914.3046	955.7848	1042.475	1068.6468	1074.6345	1099.192	1146.2554	1188.819	1202.4318	1224.9229	1299.237	1330.7531	1376.1779	1410.8905	1428.8455	1461.921	1667.0584	1835.5098	1838.3692	2843.9225	3000.5381	3023.0632	3112.2057	3236.4112	3260.4383	3663.6667
O=CCC1C=CNC1=O	O=CC[C@H]1C=CNC1=O	
InChI=1S/C6H7NO2/c8-4-2-5-1-3-7-6(5)9/h1,3-5H,2H2,(H,7,9)	InChI=1S/C6H7NO2/c8-4-2-5-1-3-7-6(5)9/h1,3-5H,2H2,(H,7,9)/t5-/m1/s1
