21
gdb 89584	3.95329	1.06306	1.01734	2.3873	78.35	-0.2425	0.0811	0.3236	1276.9889	0.18277	-424.223012	-424.214314	-424.21337	-424.257195	32.802	
C	 0.3932603727	 1.5602912247	 0.0845005606	-0.399707
C	-0.0087530273	 0.1065816477	-0.052197649	 0.168075
C	 0.5005113553	-0.6951820816	-1.2685413134	-0.386379
C	 1.0891131051	-1.6626564756	-0.2234981981	 0.410201
C	 0.458241558	-3.049727303	-0.0466491238	-0.272319
C	 1.521849766	-3.7573465468	 0.7921669489	-0.079031
O	 2.7597993252	-3.318603916	 0.239203415	-0.25948
C	 2.5958458241	-1.9806583946	-0.2209172167	-0.117113
O	 0.7195052952	-0.7573073501	 0.8553602028	-0.339743
H	 1.4659005646	 1.6845445981	-0.094469595	 0.11817
H	-0.156333142	 2.1793682918	-0.6332592497	 0.115715
H	 0.1697159175	 1.9255065425	 1.0918369136	 0.128379
H	-1.0912670051	-0.0024526383	 0.1061470537	 0.07261
H	-0.2535296672	-1.1104699267	-1.9397709663	 0.10771
H	 1.2545682961	-0.1655699322	-1.8569605963	 0.106866
H	-0.5237350042	-2.9923621108	 0.4274283451	 0.108442
H	 0.3599875968	-3.5420371063	-1.0209508115	 0.104256
H	 1.4368333353	-3.4637752713	 1.8502331517	 0.101828
H	 1.4939586028	-4.8483468548	 0.7291837203	 0.105925
H	 3.0306966542	-1.9049180086	-1.2251416914	 0.098917
H	 3.107805527	-1.2688194481	 0.4401542394	 0.106678
46.8858	57.2422	183.52	223.1075	248.6779	313.9312	358.0468	399.6968	458.9633	487.6538	636.0257	733.756	779.6855	855.5026	878.1827	897.426	917.1716	926.3601	935.9925	962.0767	993.6681	1017.3793	1072.3822	1091.8546	1115.1758	1154.8178	1175.3886	1194.4375	1206.0979	1235.7882	1249.0574	1253.6041	1282.0082	1308.62	1322.713	1361.5677	1388.4618	1400.3469	1412.3047	1466.5376	1481.9379	1487.6663	1495.976	1502.6862	1521.617	2984.2173	2995.7272	3010.9787	3032.5681	3045.27	3053.0107	3063.4278	3092.0472	3105.1569	3111.6978	3118.5457	3121.9491
CC1CC2(CCOC2)O1	C[C@H]1C[C@]2(CCOC2)O1	
InChI=1S/C7H12O2/c1-6-4-7(9-6)2-3-8-5-7/h6H,2-5H2,1H3	InChI=1S/C7H12O2/c1-6-4-7(9-6)2-3-8-5-7/h6H,2-5H2,1H3/t6-,7-/m0/s1
