15
gdb 26707	2.33579	1.62322	0.9651	1.5237	66.23	-0.1696	0.0427	0.2123	1142.8012	0.112102	-491.087923	-491.078578	-491.077634	-491.121521	34.094	
N	 0.2520564018	 1.3778699181	-0.0284521575	-0.601248
C	 0.031653282	 0.0008902744	-0.0040560108	 0.268746
C	-1.1027349588	-0.7511379359	-0.0651670465	 0.151889
O	-2.3864420898	-0.2773178019	-0.0600215626	-0.46903
C	-0.6718875159	-2.1136680701	-0.1287121067	 0.176848
O	-1.5317409829	-3.1640516839	-0.203862793	-0.463387
C	 0.6856153611	-2.1158021116	-0.0852617369	 0.146017
N	 1.5696809625	-3.1914068065	-0.0874918104	-0.610999
O	 1.1321164165	-0.801970307	-0.0179563375	-0.199693
H	 0.7379668523	 1.7126019315	 0.7984476541	 0.247004
H	-0.6301401397	 1.8687698893	-0.1110130655	 0.257694
H	-2.973777432	-1.0291505063	-0.1904523502	 0.305309
H	-0.9939607415	-3.9652123716	-0.245034429	 0.301333
H	 2.0986231278	-3.2835279795	 0.7752266199	 0.243676
H	 2.2294694565	-3.1666695789	-0.8594020273	 0.245842
134.7807	159.0367	166.0516	187.542	218.4368	267.6637	282.0552	292.6762	340.8482	379.1675	448.9047	556.81	604.5467	619.8263	646.9369	683.5766	749.892	789.1923	808.9244	942.2153	1068.5408	1124.1665	1150.6009	1209.1079	1298.0228	1323.4672	1345.853	1385.4982	1540.4276	1635.9575	1652.5582	1713.8182	1760.864	3476.4954	3493.7375	3535.5689	3604.4789	3782.2483	3826.3864
NC1=C(O)C(O)=C(N)O1	Nc1c(O)c(O)c(N)o1	
InChI=1S/C4H6N2O3/c5-3-1(7)2(8)4(6)9-3/h7-8H,5-6H2	InChI=1S/C4H6N2O3/c5-3-1(7)2(8)4(6)9-3/h7-8H,5-6H2
