19
gdb 65949	2.16747	1.59242	1.30876	2.9623	79.8	-0.2647	0.0267	0.2914	1081.8163	0.159727	-382.054987	-382.046187	-382.045242	-382.08818	33.79	
N	-0.1152105529	 1.4874386641	-0.0004291798	-0.541997
C	-0.0210986361	 0.0291625427	-0.0404915697	 0.06024
C	 0.2151195465	-0.5413226599	 1.3968392494	-0.238096
C	-1.3161782512	-0.7720387109	 1.5350316883	-0.303013
C	-1.4260049951	-0.6170287635	 0.0148284196	 0.376643
C	-2.6084600349	-0.3038784341	-0.8465284681	-0.329075
C	-1.9372907331	-1.6559786904	-0.9379831917	-0.330936
C	 0.8753635095	-0.4637793148	-1.0952934271	 0.231551
N	 1.5732143685	-0.8256469527	-1.9446942168	-0.356433
H	 0.8134634665	 1.8933496476	 0.0817509917	 0.239362
H	-0.5105001801	 1.8353516107	-0.8697458159	 0.238197
H	 0.779512826	-1.4749278018	 1.3740981142	 0.123719
H	 0.6856372865	 0.1592299982	 2.0881527081	 0.112959
H	-1.6283480482	-1.7312279045	 1.9531782183	 0.1064
H	-1.8099318493	 0.0368335573	 2.0782663588	 0.120691
H	-3.5778837407	-0.234601882	-0.3637167269	 0.120422
H	-2.4788288075	 0.3818596175	-1.6782594015	 0.114421
H	-1.3486390348	-1.8732555403	-1.8234784644	 0.137894
H	-2.4489072496	-2.5147335633	-0.5155073865	 0.11705
83.4413	127.7448	184.9838	210.7689	264.0515	296.7238	314.1717	382.0891	447.9578	507.0622	551.3237	609.412	644.4566	746.8783	780.3559	864.8489	880.4352	894.1247	935.1245	938.3015	956.6694	973.5609	990.7877	1055.9362	1083.7286	1128.6697	1154.2539	1185.7169	1195.4751	1209.6085	1239.8316	1267.0953	1283.1335	1303.0215	1374.5273	1463.3357	1468.6767	1487.7261	1503.7002	1654.0452	2334.5621	3067.7717	3081.4369	3118.4489	3124.1863	3127.6977	3144.9264	3202.455	3217.8093	3484.0863	3564.8082
NC1(CCC11CC1)C#N	N[C@]1(CCC21CC2)C#N	
InChI=1S/C7H10N2/c8-5-7(9)4-3-6(7)1-2-6/h1-4,9H2	InChI=1S/C7H10N2/c8-5-7(9)4-3-6(7)1-2-6/h1-4,9H2/t7-/m1/s1
