20
gdb 113874	2.59634	1.02258	0.88614	1.5401	83.98	-0.2205	0.0467	0.2672	1423.7309	0.168597	-403.075418	-403.064913	-403.063969	-403.112298	36.646	
C	 0.4234188387	 0.5516911065	-1.0869655745	-0.499534
C	 0.1011920789	-0.5912952763	-0.2430048796	 0.016504
C	-0.149914978	-1.5282270186	 0.4729272055	 0.110658
C	-0.4985255647	-2.632589981	 1.3666963018	-0.294699
N	-1.4941680258	-3.6117045762	 0.8681471588	-0.092113
C	-1.9340859361	-3.5807064675	-0.5226840561	-0.265694
C	-1.1188542202	-4.7160521241	-0.0135620543	 0.011411
C	 0.2896377767	-5.0301735348	-0.4895812575	-0.10342
O	 1.1238317606	-3.9302857417	-0.7842270565	-0.407371
H	 1.3957633528	 0.4296913429	-1.5768914591	 0.149073
H	-0.3287014641	 0.6925280424	-1.8712097462	 0.147163
H	 0.4615622029	 1.476373377	-0.5005549054	 0.151583
H	 0.4115100928	-3.1663523126	 1.65834602	 0.142223
H	-0.9222928597	-2.2079839	 2.2857395751	 0.131343
H	-3.0034274414	-3.6921322135	-0.6884744357	 0.112972
H	-1.4565776568	-2.857929429	-1.1821721094	 0.104844
H	-1.6488153813	-5.6394595994	 0.2296822803	 0.088795
H	 0.8127004098	-5.5873872284	 0.2976513661	 0.11486
H	 0.1992709292	-5.7154603214	-1.3501311902	 0.095857
H	 0.6561599056	-3.3208577544	-1.3639584331	 0.285548
41.897	46.2835	78.8501	111.6572	188.3124	206.2489	240.5804	306.4013	317.53	373.2756	377.1477	415.4364	524.5129	637.9025	730.9773	757.8714	783.5689	909.9483	953.903	996.499	1025.3685	1053.0768	1055.8536	1062.302	1093.6021	1124.6665	1148.1175	1164.651	1172.1877	1235.0053	1267.5574	1319.664	1360.5332	1373.1827	1415.3331	1416.0448	1433.4973	1478.0951	1479.2916	1480.742	1505.6028	1519.7201	2359.7305	2957.0242	3019.9293	3026.6622	3045.3161	3071.609	3081.2181	3086.9775	3087.8811	3092.7862	3169.7443	3823.5854
CC#CCN1CC1CO	CC#CCN1C[C@H]1CO	
InChI=1S/C7H11NO/c1-2-3-4-8-5-7(8)6-9/h7,9H,4-6H2,1H3	InChI=1S/C7H11NO/c1-2-3-4-8-5-7(8)6-9/h7,9H,4-6H2,1H3/t7-,8?/m0/s1
