23
gdb 121948	4.19967	0.6292	0.57496	0.5645	83.67	-0.2473	0.075	0.3223	1993.1478	0.203414	-425.398647	-425.38772	-425.386776	-425.435775	38.656	
C	 0.0239339806	 1.3521771277	 0.0532857297	-0.226263
O	-0.0074906116	-0.051643672	 0.1212531706	-0.232887
C	-1.3116447119	-0.5768939596	-0.0159037965	-0.054919
C	-1.2296400267	-2.0955025236	 0.0565263581	-0.215457
C	-2.5921434016	-2.7789354994	-0.1109936644	 0.102698
O	-3.2150374583	-2.4070039888	-1.343224513	-0.43378
C	-2.4893367436	-4.2819471821	 0.0383453055	 0.010749
C	-2.6637974228	-4.928181805	 1.3908096909	-0.26609
C	-3.7223243601	-5.0939444252	 0.3298855971	-0.272933
H	 1.0661948666	 1.6639479769	 0.159266461	 0.123359
H	-0.362601705	 1.7255204351	-0.9088422355	 0.101491
H	-0.5681480537	 1.8158213934	 0.859117005	 0.100789
H	-1.9666338927	-0.1905849841	 0.7856067004	 0.079571
H	-1.7595302848	-0.2672946109	-0.9725126913	 0.097232
H	-0.543928112	-2.4506901813	-0.7250440157	 0.092986
H	-0.7897989315	-2.3898717021	 1.0161076311	 0.109574
H	-3.2797696439	-2.4007068052	 0.6575634098	 0.079816
H	-2.6977639884	-2.7940493817	-2.0583806949	 0.275353
H	-1.7501204612	-4.740769434	-0.6168626234	 0.074212
H	-2.0392423399	-5.7788536959	 1.6396060044	 0.112322
H	-2.887006409	-4.2829649432	 2.2346085936	 0.112309
H	-4.6561131101	-4.5555227498	 0.4519627461	 0.119271
H	-3.8275034286	-6.0621655595	-0.1466810986	 0.110596
52.7938	67.4062	89.542	102.7627	134.8621	199.9116	233.0189	246.6747	275.3205	316.2943	335.5419	467.0656	492.73	549.8433	771.4427	798.5588	829.5051	858.9127	917.3871	945.3504	975.9572	992.1035	1056.1379	1060.9513	1076.0393	1091.706	1104.3256	1133.984	1155.2554	1165.8846	1180.4551	1195.923	1221.4302	1227.3251	1231.5854	1280.525	1288.8715	1314.8576	1359.4764	1409.6998	1422.1346	1433.9687	1470.2699	1481.0517	1484.7429	1485.0906	1505.9076	1506.3788	1534.2597	2944.3032	2965.9668	3001.8745	3006.8742	3015.9592	3027.1303	3075.9016	3109.329	3114.7706	3129.6775	3136.0123	3207.9044	3223.2368	3798.2226
COCCC(O)C1CC1	COCC[C@@H](O)C1CC1	
InChI=1S/C7H14O2/c1-9-5-4-7(8)6-2-3-6/h6-8H,2-5H2,1H3	InChI=1S/C7H14O2/c1-9-5-4-7(8)6-2-3-6/h6-8H,2-5H2,1H3/t7-/m1/s1
