19
gdb 95425	2.82642	1.18337	0.86229	2.6454	81.06	-0.251	-0.0548	0.1962	1326.1503	0.158774	-423.057	-423.048343	-423.047399	-423.090401	32.344	
C	-0.030900828	 1.5296026556	 0.0710770887	-0.401366
C	 0.0261408479	 0.0138601251	-0.024285858	 0.119464
C	 0.8054656127	-0.4888460088	-1.2446933355	-0.305293
C	 1.0665644913	-1.9675925018	-1.1238378571	 0.205409
C	 1.4108826518	-2.7428643933	-2.32745691	 0.090156
O	 1.4962645471	-2.275509993	-3.4407182036	-0.273773
C	 0.9620422393	-2.5917482767	 0.0567336867	-0.145067
C	 0.6156464344	-1.856809588	 1.3154241476	-0.124043
O	 0.6441904565	-0.4557231889	 1.1763380517	-0.260131
H	 0.9789883951	 1.9415525403	 0.1605060618	 0.126949
H	-0.5008307839	 1.9519886114	-0.8220197739	 0.119289
H	-0.6059896745	 1.8371025282	 0.9482837163	 0.12347
H	-0.9998590772	-0.3902140033	-0.0755882932	 0.068063
H	 0.2535745038	-0.2900767027	-2.1695553023	 0.125969
H	 1.75469545	 0.0555426408	-1.331862611	 0.121587
H	 1.5913459417	-3.8259733044	-2.1402128003	 0.066313
H	 1.1137541541	-3.6669964337	 0.131505791	 0.106463
H	-0.3749329396	-2.2026478973	 1.6695017776	 0.107839
H	 1.3309249474	-2.1066527297	 2.1092878233	 0.128701
93.9239	135.5046	176.3335	197.042	225.3801	310.9418	316.7887	403.238	441.0383	472.7756	502.9625	614.5888	732.9496	812.2949	835.1334	876.571	922.4054	933.706	986.9498	1027.4796	1039.4148	1067.1499	1122.3638	1155.211	1161.1093	1194.2474	1234.3563	1268.4314	1293.7472	1364.1628	1378.1188	1394.2752	1407.1623	1413.0778	1425.7179	1467.0009	1474.8776	1483.2863	1499.5151	1707.4633	1789.7362	2871.5176	2921.6614	2952.0377	3030.1367	3043.209	3044.0256	3079.6586	3117.815	3123.8143	3151.3411
CC1CC(C=O)=CCO1	C[C@H]1CC(=CCO1)C=O	
InChI=1S/C7H10O2/c1-6-4-7(5-8)2-3-9-6/h2,5-6H,3-4H2,1H3	InChI=1S/C7H10O2/c1-6-4-7(5-8)2-3-9-6/h2,5-6H,3-4H2,1H3/t6-/m0/s1
