16
gdb 67173	2.96474	1.58733	1.51	3.8055	69.56	-0.2373	0.0031	0.2404	950.2104	0.125092	-437.847541	-437.840461	-437.839517	-437.878911	27.847	
C	 0.0127840216	 1.5647831682	-0.0933878725	-0.518506
C	-0.0101316125	 0.0705551473	-0.001357061	 0.222234
C	 0.4663589929	-1.0827781948	-0.8631951713	 0.017857
O	 1.0998704107	-1.7723908845	 0.205018056	-0.289108
C	 0.4584036403	-0.853627031	 1.1565634435	-0.078976
C	-0.7856850467	-1.5832489125	 1.5978610795	 0.472251
N	-1.0458866096	-2.0309013173	 2.7457992847	-0.55666
O	-1.569365243	-1.7225468878	 0.4729076786	-0.244941
C	-1.0135241766	-0.9065641447	-0.5450848274	 0.002373
H	 1.0205683987	 1.9609460269	 0.0689287237	 0.134227
H	-0.3211480003	 1.8954408694	-1.0819554658	 0.129962
H	-0.6537347299	 2.0172242325	 0.6493786352	 0.136245
H	 0.8988279246	-1.1573859317	-1.8546170509	 0.11533
H	 1.1306836279	-0.5123012347	 1.9393762785	 0.110671
H	-1.9408140167	-2.5243997745	 2.7497477187	 0.227964
H	-1.7245106214	-0.6405014508	-1.3166377496	 0.119077
134.0956	185.0399	229.8643	273.3653	359.2967	423.8487	548.1473	574.7248	634.8896	721.2369	760.4733	797.2469	847.0465	871.2384	889.7306	909.3987	935.4745	964.3319	1006.0632	1033.6357	1050.2294	1071.1958	1106.1471	1135.444	1191.1194	1208.7217	1237.0757	1263.1341	1294.164	1341.8396	1417.9516	1467.355	1486.0056	1497.9855	1790.4371	3030.2835	3094.4609	3103.9284	3163.9366	3181.6568	3207.4506	3469.3362
CC12C3OC1C(=N)OC23	C[C@@]12[C@H]3O[C@@H]1[C]([NH])O[C@@H]23	
InChI=1S/C6H7NO2/c1-6-2-3(6)9-5(7)4(6)8-2/h2-4,7H,1H3	InChI=1S/C6H7NO2/c1-6-2-3(6)9-5(7)4(6)8-2/h2-4,7H,1H3/t2-,3+,4+,6-/m0/s1
