23
gdb 63970	2.89557	1.29148	1.27508	1.2491	83.77	-0.2554	0.0748	0.3301	1152.1353	0.206815	-388.298567	-388.289895	-388.288951	-388.3312	35.333	
C	 0.4074185581	 1.4059095826	-0.2488768993	-0.440729
C	-0.0180289892	-0.0521738171	-0.0375237592	 0.39694
O	-1.4342933675	-0.0897233579	 0.1655534782	-0.471769
C	 0.4180164398	-0.9883933787	-1.2004697461	-0.281903
C	 1.765457354	-1.6077920341	-0.8055763398	 0.002762
C	 3.051180963	-0.7511792893	-1.0070349017	-0.227929
C	 3.1859645374	-0.5777138986	 0.5335601823	-0.227114
C	 1.8966286071	-1.4252072753	 0.7498269044	-0.002577
C	 0.6264973118	-0.6989677175	 1.2120487221	-0.255362
H	 1.4891222891	 1.5144558313	-0.3601305654	 0.124255
H	-0.0548426629	 1.8122957459	-1.1576461557	 0.100081
H	 0.0852420557	 2.016017309	 0.6002805388	 0.120804
H	-1.8490582549	 0.3890540346	-0.5599024809	 0.270998
H	-0.3432834957	-1.7720685483	-1.276619228	 0.101971
H	 0.4548107726	-0.4699923046	-2.1660571699	 0.083579
H	 1.8627886586	-2.628965328	-1.1801779706	 0.062539
H	 3.8790499712	-1.2930199346	-1.4710647141	 0.095619
H	 2.9030556975	 0.1734928292	-1.572757614	 0.093474
H	 4.0880643792	-1.0278882177	 0.9552289426	 0.095783
H	 3.1276676642	 0.4514653669	 0.8996023329	 0.09455
H	 2.0686867465	-2.3351979933	 1.3283767284	 0.062665
H	 0.8151135822	 0.0328175892	 2.0046043619	 0.092468
H	-0.0975828375	-1.4209167735	 1.603472593	 0.108893
115.3099	140.0399	222.4192	278.7815	290.6127	318.3126	353.7824	361.676	417.4682	450.3489	589.9887	600.454	733.6863	746.9466	757.8551	833.7814	846.7498	882.5109	889.5275	927.829	945.5529	952.1741	972.63	1021.0725	1023.7691	1084.6392	1094.3399	1115.127	1152.1206	1168.1669	1187.4567	1207.7236	1226.142	1257.9217	1265.4114	1282.1785	1291.1844	1303.2248	1321.0402	1337.0961	1351.1328	1387.0948	1407.6878	1472.9405	1477.2952	1480.9101	1495.8032	1498.1181	1501.9762	3022.3863	3029.6919	3042.6915	3049.624	3055.3956	3066.7193	3076.1238	3081.7344	3088.0953	3091.9028	3094.461	3110.9153	3126.2376	3805.1516
CC1(O)CC2CCC2C1	C[C@@]1(O)C[C@H]2CC[C@H]2C1	
InChI=1S/C8H14O/c1-8(9)4-6-2-3-7(6)5-8/h6-7,9H,2-5H2,1H3	InChI=1S/C8H14O/c1-8(9)4-6-2-3-7(6)5-8/h6-7,9H,2-5H2,1H3/t6-,7+,8-
