15
gdb 28403	3.23987	1.42025	0.98797	2.7168	76.35	-0.1757	-0.0145	0.1612	1115.5875	0.114759	-450.169012	-450.161091	-450.160147	-450.200971	31.238	
N	 0.0484292938	 1.3341173752	-0.0170181018	-0.551851
C	-0.0220610044	-0.0291495983	 0.0122661246	 0.369525
N	-1.160794743	-0.6506288028	 0.0482683181	-0.339318
C	-1.1739779139	-2.026618341	 0.1383192316	-0.211874
C	-0.0288794938	-2.7431523576	 0.1825157904	 0.414847
O	 0.1262629072	-4.0898191897	 0.2752136633	-0.431634
N	 1.1786581064	-2.0855444941	 0.1269733301	-0.407693
C	 1.2944641691	-0.709607119	 0.0244786506	 0.342353
N	 2.3793458429	-0.0259749588	-0.0663602148	-0.572417
H	 0.9440128532	 1.7134922474	-0.2850403911	 0.271664
H	-0.7875044371	 1.8257043271	-0.285848429	 0.253703
H	-2.1428693722	-2.5115441961	 0.174684866	 0.091711
H	-0.7452458663	-4.4968986705	 0.3185999783	 0.311921
H	 2.016848374	-2.6480761643	 0.1447315647	 0.25896
H	 3.2140020141	-0.6120207673	-0.0608009211	 0.200103
127.3319	174.4906	291.8114	327.5361	343.2761	379.515	406.3258	462.3697	493.6641	509.7784	529.9727	560.4748	595.2558	633.9843	715.2528	779.2509	791.8287	796.7885	808.6045	1025.7836	1062.2833	1123.6263	1197.7789	1275.9384	1285.1276	1327.3841	1377.7503	1428.7704	1526.8095	1578.1607	1652.6397	1673.9411	1704.9939	3183.4155	3472.9316	3579.6485	3618.6574	3715.8775	3834.3191
NC1=NC=C(O)NC1=N	NC1=C(N[C@@H](C=N1)O)[NH]	
InChI=1S/C4H6N4O/c5-3-4(6)8-2(9)1-7-3/h1H,(H2,5,7)(H3,6,8,9)	InChI=1S/C4H7N4O/c5-3-4(6)8-2(9)1-7-3/h1-2,6,8-9H,(H2,5,7)/t2-/m1/s1
