17
gdb 55772	4.30671	0.98307	0.92162	3.9382	69.42	-0.227	0.0475	0.2746	1276.9874	0.135841	-455.129731	-455.121116	-455.120172	-455.163723	32.122	
N	-0.2450122622	 1.4089290703	-0.2763806344	-0.569128
C	-0.1299567603	 0.0433649551	-0.5181107321	 0.433185
O	 0.6471384246	-0.4174522127	-1.3282939692	-0.378667
N	-1.0273266718	-0.7194135415	 0.2092859623	-0.455656
C	-1.0884198022	-2.1251069587	 0.1321443841	 0.331065
C	-1.1847494672	-2.8822594088	-1.1720460358	-0.288939
C	-2.244453939	-3.0766897251	-0.1368244581	 0.016408
O	-1.8109323622	-3.9923232303	 0.871054738	-0.283286
C	-0.7230550059	-3.1056139892	 1.2489383666	-0.125792
H	 0.5333203374	 1.9275106548	-0.6544259196	 0.262753
H	-0.5236413763	 1.7088076217	 0.64601446	 0.244811
H	-1.685016856	-0.2485658784	 0.8104217684	 0.240723
H	-1.4559109342	-2.2569082876	-2.0150487611	 0.132047
H	-0.4846871797	-3.6826204737	-1.392314133	 0.121497
H	-3.3097363707	-2.9283290841	-0.2720786171	 0.10838
H	 0.2570663856	-3.5938843201	 1.2005787103	 0.113095
H	-0.8896989699	-2.7000935616	 2.2547968007	 0.097506
45.9882	75.6966	140.8598	279.357	309.8642	349.7155	364.2852	410.4597	442.0145	466.9241	544.3501	610.2151	751.6093	774.2194	778.6189	857.7968	927.1591	931.9245	980.3172	988.9055	996.0146	1031.2628	1078.3248	1085.7759	1090.3391	1124.3233	1151.2008	1218.7833	1289.2212	1311.325	1325.6815	1417.6672	1483.4983	1515.6819	1530.4976	1628.8483	1813.4231	3017.0108	3071.7999	3130.0046	3181.5333	3228.3406	3572.8168	3616.6932	3687.0767
NC(=O)NC12CC1OC2	NC(=O)N[C@]12C[C@H]1OC2	
InChI=1S/C5H8N2O2/c6-4(8)7-5-1-3(5)9-2-5/h3H,1-2H2,(H3,6,7,8)	InChI=1S/C5H8N2O2/c6-4(8)7-5-1-3(5)9-2-5/h3H,1-2H2,(H3,6,7,8)/t3-,5+/m1/s1
