25
gdb 122966	5.63835	0.49855	0.47653	2.1053	87.49	-0.2492	0.0765	0.3257	2388.8306	0.225836	-426.622661	-426.610612	-426.609668	-426.661176	41.779	
C	-0.0467056281	 1.4762337808	-0.0410600537	-0.382189
C	 0.0220573577	-0.0508352511	 0.0330147692	-0.182559
C	 0.752338054	-0.5416492653	 1.2757465839	-0.029134
O	 0.7756056176	-1.9521737029	 1.2637512799	-0.249585
C	 1.4335780692	-2.5143287325	 2.3775253093	-0.059486
C	 1.4425607665	-4.035685983	 2.231350781	 0.015943
C	 2.2001365752	-4.4806756031	 0.9757170424	-0.385465
C	 2.0136541032	-4.6801252983	 3.4944685236	-0.078183
O	 1.871703288	-6.0883741405	 3.3775394671	-0.422647
H	 0.9544504144	 1.9207722228	-0.0658341859	 0.115638
H	-0.5760791931	 1.8027946289	-0.9407491256	 0.11703
H	-0.5731857522	 1.895341042	 0.8236801314	 0.115583
H	-0.9872026726	-0.4781975306	 0.0314930164	 0.106562
H	 0.5320582294	-0.4523464329	-0.8501772465	 0.106442
H	 1.7816206819	-0.1414155869	 1.298752004	 0.080695
H	 0.2476409697	-0.1737442012	 2.1869147007	 0.080057
H	 2.4683404394	-2.130930887	 2.4428925276	 0.078541
H	 0.9212794884	-2.2190546278	 3.3102572806	 0.078654
H	 0.3976119743	-4.3612202448	 2.1464286402	 0.091812
H	 3.2511485583	-4.1686565225	 1.0275506185	 0.099514
H	 2.1755679207	-5.568033726	 0.8798265626	 0.128317
H	 1.7592649351	-4.0313033566	 0.083489745	 0.125513
H	 3.0741785715	-4.3972004055	 3.6070233129	 0.081587
H	 1.477392065	-4.3037251974	 4.3809916577	 0.081321
H	 2.2882928062	-6.4970068585	 4.1413643779	 0.286038
43.7325	57.3853	81.0071	107.6359	130.8342	155.1783	213.6112	217.2906	236.0022	243.4922	264.6881	315.303	378.4057	421.4297	500.4942	552.8792	765.2263	846.6604	900.4007	910.8583	926.924	937.4687	964.5866	1011.1223	1054.8282	1078.1758	1108.9789	1155.4293	1162.0001	1172.2587	1175.5149	1198.051	1243.9873	1263.6142	1269.2539	1286.1884	1313.7972	1316.7238	1334.6442	1383.0194	1394.9438	1405.1602	1415.1107	1452.608	1463.2756	1492.2256	1496.4227	1500.2293	1501.4618	1505.9765	1513.4275	1522.6935	1536.2748	2929.4668	2943.5407	2953.9929	2959.5208	2963.9246	2981.8487	3026.5097	3031.7449	3038.4721	3039.2588	3071.5309	3099.5899	3107.9235	3108.5177	3141.0247	3834.989
CCCOCC(C)CO	CCCOC[C@@H](C)CO	
InChI=1S/C7H16O2/c1-3-4-9-6-7(2)5-8/h7-8H,3-6H2,1-2H3	InChI=1S/C7H16O2/c1-3-4-9-6-7(2)5-8/h7-8H,3-6H2,1-2H3/t7-/m0/s1
