18
gdb 82087	2.52201	1.55967	1.21514	6.4755	70.9	-0.238	0.0317	0.2696	1059.2382	0.149244	-439.08778	-439.07974	-439.078796	-439.120857	30.797	
N	-0.0978671611	 1.2099450592	-0.1110988076	-0.540315
H	-0.7773627703	 1.0695988156	-0.8507876163	 0.250504
H	 0.7833346179	-0.1513010625	 0.4818546405	 0.321195
H	 0.5180115543	 1.9647104795	-0.3924570051	 0.24889
C	-0.7724994739	 1.4976755019	 1.1677124808	-0.023103
C	-2.2009438012	 0.9866248987	 1.3167215841	-0.069744
C	-2.2475502169	-0.5223016651	 1.3080745964	-0.292789
C	-1.8098566744	 0.1792952812	 2.5576899358	-0.0363
C	-0.3469847914	 0.6408313808	 2.4303504533	-0.167029
C	 0.6840099306	-0.4865538933	 2.3613923297	 0.401034
O	 1.1503989411	-0.7978456179	 1.1459240016	-0.385047
O	 1.0252507428	-1.0800623942	 3.3517559576	-0.348067
H	-0.7049687472	 2.5613797497	 1.4127693508	 0.087677
H	-3.0873200926	 1.5852302793	 1.1437117365	 0.093449
H	-3.2489341907	-0.9385512642	 1.3402366285	 0.121183
H	-1.5439131037	-1.1098722062	 0.7255809594	 0.127614
H	-2.3407695302	 0.0810478124	 3.4947972892	 0.104137
H	-0.0589571431	 1.287983815	 3.2603513947	 0.106711
49.9866	117.7063	211.2133	245.3869	287.4089	345.0307	412.7121	478.4706	532.1624	648.5648	708.9762	749.2934	788.1536	811.7007	816.3581	895.5788	929.2844	955.9959	979.7779	1009.6577	1026.1354	1031.1513	1047.2332	1067.0682	1096.3312	1117.6974	1161.2934	1205.4805	1215.4099	1263.1074	1275.3408	1298.0209	1331.898	1367.2128	1396.9368	1497.0629	1511.2435	1637.4032	1849.6658	3056.0163	3101.0662	3125.1083	3152.2991	3179.1221	3204.2189	3213.9614	3512.5144	3596.9728
[NH3+]C1C2CC2C1C([O-])=O	N[C@H]1[C@H]2C[C@H]2[C@H]1C(=O)O	
InChI=1S/C6H9NO2/c7-5-3-1-2(3)4(5)6(8)9/h2-5H,1,7H2,(H,8,9)	InChI=1S/C6H9NO2/c7-5-3-1-2(3)4(5)6(8)9/h2-5H,1,7H2,(H,8,9)/t2-,3+,4-,5+/m1/s1
