16
gdb 51375	4.22088	1.04942	0.95251	3.395	70.66	-0.2376	-0.0013	0.2363	1216.4855	0.1236	-437.798532	-437.790904	-437.78996	-437.831879	28.335	
O	-0.3330239535	 0.0537221043	-0.0651827961	-0.269002
C	-0.1611002716	 1.233512538	-0.0675088291	 0.170088
O	 1.069208994	 1.7889551036	-0.0215284723	-0.191727
C	 1.1582448635	 3.2036370089	-0.0468522365	 0.126553
C	 2.1685370541	 4.0214920317	 0.6737209912	-0.156325
C	 3.6278722205	 3.5790726324	 0.471660346	-0.03298
C	 3.8437202951	 2.3789959895	-0.3633448689	-0.256674
N	 3.5377801867	 3.6731244641	-1.0241565892	-0.144173
C	 2.0823510225	 4.0377385689	-0.8732605678	-0.066463
H	-0.9706162751	 1.9879027119	-0.1031034805	 0.082888
H	 0.1707568817	 3.6641726482	-0.0034328465	 0.118259
H	 1.8906369722	 4.7785428313	 1.3963787184	 0.105147
H	 4.4322867925	 4.0810792493	 0.9986425494	 0.107942
H	 4.8811866804	 2.1016907491	-0.5300264314	 0.126417
H	 3.1375572798	 1.5629992843	-0.3865288573	 0.167104
H	 1.7095771572	 4.7896475144	-1.5592604394	 0.112944
31.4979	140.6854	144.7985	228.9161	335.4225	406.1236	530.5455	551.7303	679.8044	700.6296	713.5729	759.6841	787.9466	889.9835	910.4727	977.1542	996.6084	1009.9203	1035.5503	1039.4367	1057.9398	1072.1642	1109.6287	1130.9894	1151.243	1173.1448	1199.4061	1244.2221	1279.9143	1348.4926	1362.5523	1418.7972	1465.2029	1505.5782	1871.3952	2952.4249	3103.8565	3135.7067	3166.0694	3175.7366	3192.084	3267.22
O=COC1C2C3CN3C12	O=CO[C@H]1[C@H]2[C@H]3CN3[C@@H]12	
InChI=1S/C6H7NO2/c8-2-9-6-4-3-1-7(3)5(4)6/h2-6H,1H2	InChI=1S/C6H7NO2/c8-2-9-6-4-3-1-7(3)5(4)6/h2-6H,1H2/t3-,4+,5-,6+,7?/m1/s1
