15
gdb 43751	4.74158	0.94292	0.88238	3.734	70.57	-0.2544	-0.0328	0.2216	1266.0219	0.112073	-416.786965	-416.778976	-416.778031	-416.820277	29.31	
O	 0.2108044699	-0.0031011699	-0.0695256963	-0.296979
C	 0.086026689	 1.1792388106	 0.0348054569	 0.465517
C	-1.1468494168	 2.1318393284	 0.0741191413	-0.389844
C	-0.1424582372	 3.2883274869	-0.0867775838	 0.341678
C	-0.3290163167	 4.5343924031	-0.9118730701	-0.467298
C	-1.2708989451	 5.479134986	-0.3028396615	 0.271505
N	-2.0161297069	 6.21762892	 0.1798429888	-0.2924
N	 0.6924927902	 3.234186921	 1.113651983	-0.345087
C	 1.0390133467	 2.3538049912	-0.0621184258	-0.25748
H	-1.782886485	 1.9605154225	-0.7993427342	 0.136012
H	-1.7469178325	 2.1452717726	 0.985083858	 0.148221
H	 0.6326867654	 5.042141615	-1.0536168176	 0.156616
H	-0.6996671192	 4.2730156777	-1.9101289124	 0.167464
H	 1.3581290248	 4.008721412	 1.0840016749	 0.241235
H	 2.0139963336	 2.4206836529	-0.5291719014	 0.120842
56.698	86.2779	144.7436	286.3459	345.505	389.1574	420.5574	456.3203	464.3661	556.8917	645.0272	719.2471	762.5399	856.5337	899.2634	921.7324	955.2494	969.2791	1005.8454	1023.7795	1066.6387	1117.4129	1127.9282	1195.8524	1203.0944	1283.2742	1332.0948	1346.0599	1407.5043	1448.5967	1453.2781	1905.0328	2367.9221	3035.5751	3071.1585	3075.4955	3139.5715	3199.3529	3453.088
O=C1CC2(CC#N)NC12	O=C1C[C@@]2(CC#N)N[C@@H]12	
InChI=1S/C6H6N2O/c7-2-1-6-3-4(9)5(6)8-6/h5,8H,1,3H2	InChI=1S/C6H6N2O/c7-2-1-6-3-4(9)5(6)8-6/h5,8H,1,3H2/t5-,6+/m0/s1
