21
gdb 109705	2.94028	1.05012	0.94927	1.1189	79.25	-0.2401	0.0594	0.2995	1351.8209	0.181124	-424.182502	-424.172834	-424.17189	-424.217364	35.313	
C	-0.3599088121	 1.5565591787	 0.1951601543	-0.376328
C	 0.2331339296	 0.1708851804	-0.0850511813	-0.194513
C	 0.859712369	-0.4522383962	 1.1472727838	-0.11641
C	 0.0237247593	-1.2300364557	 2.1330781432	 0.017679
O	-1.3378274535	-1.3564818212	 1.8377550019	-0.415376
C	 1.0260831045	-1.9428422466	 1.2690549706	 0.228573
C	 0.7302691025	-3.0355511007	 0.2496533003	-0.132149
O	 1.8422601146	-3.8188278317	 0.7403073014	-0.276826
C	 2.2255845493	-2.7884114538	 1.67866045	-0.143866
H	 0.4030647762	 2.2468431324	 0.5721869518	 0.109542
H	-0.7848916481	 1.9942563739	-0.7135275888	 0.109608
H	-1.1542415875	 1.4910497429	 0.9445788707	 0.132591
H	-0.5538444847	-0.4891236251	-0.4621113212	 0.111036
H	 0.9912245646	 0.2425692346	-0.8754057021	 0.094818
H	 1.6539894085	 0.1416579052	 1.5978471651	 0.084142
H	 0.2557357058	-1.1193312745	 3.1937862838	 0.08383
H	-1.6270138374	-2.2313010018	 2.1183815344	 0.291213
H	-0.2286932079	-3.5596219187	 0.3621413266	 0.090667
H	 0.857921977	-2.7580290372	-0.8049906483	 0.103997
H	 3.2105729345	-2.3642834722	 1.4392891037	 0.099568
H	 2.2360306658	-3.1546535625	 2.7143381804	 0.098205
65.1174	93.5072	129.2636	162.6224	207.4337	242.3688	271.1429	288.825	297.1224	416.9397	496.1172	578.6538	638.0688	763.0009	830.6945	842.1458	869.9118	951.7545	966.8069	977.227	995.4786	1025.9122	1048.0546	1087.3104	1107.1351	1130.4003	1146.578	1152.1706	1161.2146	1180.5726	1211.7297	1282.2375	1299.0659	1303.2544	1318.9303	1338.2582	1383.3015	1394.3769	1410.173	1479.7129	1490.0023	1498.6448	1507.3476	1512.2849	1537.0063	2989.8359	3001.5377	3026.2225	3033.0927	3033.3666	3035.6984	3078.1784	3081.2693	3100.8901	3113.6406	3118.4771	3802.3124
CCC1C(O)C11COC1	CC[C@H]1[C@@H](O)C21COC2	
InChI=1S/C7H12O2/c1-2-5-6(8)7(5)3-9-4-7/h5-6,8H,2-4H2,1H3	InChI=1S/C7H12O2/c1-2-5-6(8)7(5)3-9-4-7/h5-6,8H,2-4H2,1H3/t5-,6+/m0/s1
