17
gdb 70214	3.27014	1.34005	1.11999	3.1437	67.63	-0.2634	0.0079	0.2713	1096.8349	0.13569	-458.988687	-458.980758	-458.979814	-459.021229	30.174	
C	-0.1614247853	 1.520293904	 0.0814758009	-0.482436
C	 0.0530510345	 0.0298486814	 0.0422976303	 0.378005
C	-0.9742330322	-0.824475966	-0.6914354311	-0.146541
O	-1.7839913197	-1.6012962843	 0.211099068	-0.22254
C	-1.1792052905	-2.3329265895	 1.1814196933	 0.413574
O	-1.8345721102	-3.0628489162	 1.8713484496	-0.321123
C	 0.3279203256	-2.1471758047	 1.3297792545	-0.385438
C	 0.7543306188	-0.7059391296	 1.1031941245	-0.020948
O	 1.4095417325	-0.4135171946	-0.1341933807	-0.286028
H	 0.621073529	 2.0060828134	 0.6688868999	 0.135265
H	-0.1414634519	 1.9405036965	-0.9301390056	 0.133453
H	-1.1342640863	 1.7569019203	 0.5252087522	 0.136979
H	-1.6892358698	-0.2175661205	-1.249674278	 0.129267
H	-0.4558720189	-1.4882614145	-1.3915917079	 0.132994
H	 0.6023205124	-2.5169079661	 2.317989299	 0.143058
H	 0.8289653857	-2.7796205148	 0.5870298748	 0.152911
H	 1.1463635162	-0.1630620947	 1.9612818763	 0.109547
77.3847	169.2462	200.003	227.5212	328.7271	367.354	435.9124	440.0198	484.4441	516.3709	609.2785	695.2586	767.6502	813.2788	835.8245	901.946	947.7551	959.7673	1028.1768	1050.0609	1071.1113	1107.7454	1125.7323	1161.7965	1222.4371	1267.4642	1278.99	1307.8629	1330.4115	1406.2786	1414.9013	1451.6529	1464.0376	1487.7047	1499.0076	1503.5103	1855.173	3035.9371	3049.3661	3051.5822	3100.0699	3119.8993	3123.4922	3128.5853	3140.0905
CC12COC(=O)CC1O2	C[C@]12COC(=O)C[C@H]1O2	
InChI=1S/C6H8O3/c1-6-3-8-5(7)2-4(6)9-6/h4H,2-3H2,1H3	InChI=1S/C6H8O3/c1-6-3-8-5(7)2-4(6)9-6/h4H,2-3H2,1H3/t4-,6+/m1/s1
