17
gdb 42908	2.94166	1.48466	1.22679	2.9465	70.96	-0.2535	-0.0229	0.2306	1041.867	0.13693	-417.949976	-417.942237	-417.941293	-417.982783	29.034	
O	-0.1781269358	 0.0503319116	-0.2600674248	-0.30444
C	-0.1410504622	 1.2359608351	-0.136004791	 0.384561
C	-1.1855940922	 2.3464078734	 0.1004885384	-0.168686
C	-2.139960381	 2.2458811081	 1.2675474623	-0.015608
C	-2.9556726583	 1.0224109477	 1.4634570818	-0.240906
N	-1.8865074747	 1.3633423292	 2.4215306864	-0.324664
C	 0.0329857288	 3.2798163764	 0.1354100306	-0.043922
C	 1.0522775445	 2.834337388	 1.0915214956	-0.249046
N	 0.9903827101	 2.1371912069	-0.2365443031	-0.173203
H	-1.7468214846	 2.5000875861	-0.8296108477	 0.125784
H	-2.5768257139	 3.2003096693	 1.5564808386	 0.101667
H	-3.9669498588	 1.1001314309	 1.8517043964	 0.121334
H	-2.7804684408	 0.1917022857	 0.7855535105	 0.137554
H	-1.09037811	 0.7568686587	 2.2363129289	 0.237823
H	 0.1028069732	 4.2202283267	-0.3973657953	 0.117633
H	 1.956168388	 3.425302754	 1.1930195627	 0.146342
H	 0.7685306779	 2.2865343123	 1.9851567597	 0.147776
71.4383	113.9622	139.0948	208.6148	334.8599	384.6242	481.905	546.222	660.0276	684.3835	750.0102	787.9145	824.9076	852.1385	871.8356	924.7786	971.988	1003.4871	1017.0384	1025.7534	1059.8521	1094.884	1116.7336	1130.3559	1143.2213	1152.5273	1175.7026	1215.5336	1248.7466	1266.265	1304.9027	1332.3851	1364.2894	1407.4701	1505.5166	1510.2465	1900.1984	3043.2653	3113.7558	3120.8686	3130.8524	3195.1965	3204.5228	3220.6311	3492.4154
O=C1C(C2CN2)C2CN12	O=C1[C@@H]([C@H]2CN2)[C@H]2CN12	
InChI=1S/C6H8N2O/c9-6-5(3-1-7-3)4-2-8(4)6/h3-5,7H,1-2H2	InChI=1S/C6H8N2O/c9-6-5(3-1-7-3)4-2-8(4)6/h3-5,7H,1-2H2/t3-,4-,5+,8?/m1/s1
