13
gdb 10445	2.93044	1.77313	1.29021	3.7904	63.76	-0.2796	-0.0027	0.277	929.3516	0.09314	-361.409611	-361.401738	-361.400794	-361.442234	27.989	
C	-0.0907097831	-1.1420897719	 0.3727996819	-0.421669
C	-0.0495608162	 0.0232550179	 0.0877551808	 0.307881
C	 0.0195556459	 1.4366132539	-0.2601729618	-0.433794
C	 1.4262982508	 2.0146492503	-0.1304651399	 0.251665
C	 1.6293451291	 3.4191414955	 0.2784000334	-0.209207
O	 1.8542235715	 2.3453909101	 1.188444239	-0.2362
C	 2.4413046589	 1.3942501223	-0.9677274875	 0.273934
N	 3.2314694495	 0.910937223	-1.658108048	-0.323489
H	-0.1267129439	-2.1736376342	 0.6233205432	 0.209496
H	-0.3290437005	 1.5892265701	-1.2894392947	 0.153941
H	-0.6367275764	 2.0220583223	 0.3932074438	 0.149661
H	 2.51847588	 3.9497636646	-0.0540411911	 0.145606
H	 0.7527270645	 4.0328551161	 0.4793691708	 0.132177
59.6985	113.3013	185.4174	238.2342	326.447	331.8285	354.7589	470.5363	577.3673	589.3261	636.3309	666.1752	724.8374	833.5191	903.3872	948.8337	966.8076	998.1579	1132.0101	1168.3857	1194.0535	1270.168	1321.9739	1387.8091	1451.571	1521.6675	2249.0925	2363.2543	3031.5005	3075.4927	3094.5891	3191.8508	3505.245
C#CCC1(CO1)C#N	C#CC[C@]1(CO1)C#N	
InChI=1S/C6H5NO/c1-2-3-6(4-7)5-8-6/h1H,3,5H2	InChI=1S/C6H5NO/c1-2-3-6(4-7)5-8-6/h1H,3,5H2/t6-/m1/s1
