17
gdb 25777	4.24066	1.01813	0.83389	4.3015	80.48	-0.2152	-0.0153	0.1999	1352.4641	0.137415	-418.088046	-418.07936	-418.078416	-418.121625	32.325	
C	-0.1597053186	 1.522278844	-0.0198962806	-0.500096
C	-0.0453390545	 0.0275111105	 0.0130797838	 0.279251
C	 0.0786907866	-0.8102078888	-1.0796109779	-0.161486
N	 0.1156255334	-2.1045225509	-0.6388227719	-0.339179
C	 0.0571005629	-2.1198228144	 0.7412259912	 0.254652
C	-0.0501928811	-0.8083904608	 1.1606411678	-0.301842
C	 0.0829367815	-3.3470652033	 1.5457772624	 0.296029
N	-0.1466278376	-4.5224234787	 0.8320437937	-0.558918
O	 0.3245245664	-3.3535332831	 2.7380540166	-0.352226
H	 0.6124710064	 1.9979626545	 0.5947010413	 0.13072
H	-0.0539996716	 1.9046613909	-1.0393295857	 0.11871
H	-1.128643759	 1.864336341	 0.3618265597	 0.129029
H	 0.1451809893	-0.577814056	-2.1314659199	 0.121844
H	 0.3673757327	-2.8991548621	-1.2016997404	 0.262839
H	-0.1428667783	-0.5035897202	 2.1917511769	 0.116889
H	-0.8214641664	-4.4799427658	 0.0820093629	 0.24723
H	-0.2535211922	-5.3288176869	 1.4321376501	 0.256556
86.9977	97.3724	145.0713	158.2588	287.3816	316.5951	392.8886	420.8736	518.9259	536.1061	576.92	624.9157	635.8413	669.8666	707.7105	755.0809	790.0099	864.4572	975.8511	987.3904	1004.2808	1065.3389	1084.4963	1130.3812	1138.4907	1241.8002	1297.2897	1362.2397	1411.714	1420.3799	1459.0609	1484.2719	1503.1287	1520.8732	1614.1052	1630.3766	1781.9386	3028.5807	3079.6208	3106.1295	3252.1255	3256.5273	3554.9228	3669.3394	3672.4135
CC1=CNC(=C1)C(N)=O	Cc1c[nH]c(c1)C(=O)N	
InChI=1S/C6H8N2O/c1-4-2-5(6(7)9)8-3-4/h2-3,8H,1H3,(H2,7,9)	InChI=1S/C6H8N2O/c1-4-2-5(6(7)9)8-3-4/h2-3,8H,1H3,(H2,7,9)
