16
gdb 45622	3.85176	1.09852	0.9114	3.8709	72.91	-0.2185	-0.011	0.2075	1240.2387	0.124673	-437.908978	-437.901204	-437.90026	-437.94171	29.202	
O	 0.0934495622	 0.0311343774	 0.1037006655	-0.361861
C	-0.0038566537	 1.2342298041	 0.1029375054	 0.408331
C	-1.2728047349	 2.0988818343	-0.0187689813	-0.383817
C	-0.7381170357	 3.5048169937	-0.0753673676	-0.244801
C	 0.5948435544	 3.4607830371	 0.0583681864	 0.399012
N	 1.0444882324	 2.1384867975	 0.2064742699	-0.389164
C	 1.5724877767	 4.5612781655	 0.1134350579	-0.036928
C	 2.6665800599	 4.5872518817	 1.1027057521	-0.18628
O	 2.9195571245	 4.2243912011	-0.2540977566	-0.240138
H	-1.8384303284	 1.7948857954	-0.9067315509	 0.147389
H	-1.924064948	 1.9113032258	 0.8438420622	 0.146767
H	-1.3330844731	 4.4004566327	-0.1710852267	 0.105985
H	 2.0103589631	 1.872693145	 0.0931570119	 0.268316
H	 1.2150191734	 5.5122330321	-0.2771775455	 0.11138
H	 3.0744781351	 5.5470297016	 1.4151940432	 0.129109
H	 2.7510614221	 3.7808822348	 1.8287047142	 0.126698
92.5092	121.5405	155.0579	194.069	353.1144	407.4932	490.3051	511.8105	576.7646	621.1177	676.149	694.9476	736.3129	838.2283	860.7919	888.4476	950.7241	967.9981	992.029	1015.9871	1095.1853	1143.9218	1151.2839	1167.7773	1188.9252	1205.4259	1269.9488	1273.6177	1314.3023	1412.4955	1429.7933	1440.8531	1522.3041	1705.1618	1843.9107	3041.3778	3074.4318	3090.9333	3134.4749	3183.101	3245.0695	3645.3532
O=C1CC=C(N1)C1CO1	O=C1CC=C(N1)[C@H]1CO1	
InChI=1S/C6H7NO2/c8-6-2-1-4(7-6)5-3-9-5/h1,5H,2-3H2,(H,7,8)	InChI=1S/C6H7NO2/c8-6-2-1-4(7-6)5-3-9-5/h1,5H,2-3H2,(H,7,8)/t5-/m1/s1
