15
gdb 26455	4.34167	1.09491	0.87927	3.7172	70.11	-0.2265	-0.0097	0.2168	1227.2667	0.113624	-453.995444	-453.987486	-453.986542	-454.028595	28.399	
C	 0.0376884349	 1.4537046609	-0.0065221325	-0.361968
N	-0.0016974517	-0.0004019498	-0.0011530009	-0.194853
C	-0.0480945536	-0.6809597037	 1.2017937972	 0.145148
O	-0.0581793942	-0.1355576533	 2.2827505243	-0.335412
C	 0.0081220188	-0.6611218066	-1.2221795716	 0.377474
C	 0.0499908489	-0.1302882245	-2.4752745581	-0.145204
O	 0.0422491809	-1.1820534067	-3.3621437336	-0.139447
C	-0.003702689	-2.2764511824	-2.5870428661	 0.091054
N	-0.026074593	-2.0455121431	-1.3144722902	-0.327098
H	 0.9493722053	 1.8116943973	-0.4977390283	 0.134218
H	-0.8318649676	 1.860073664	-0.5351191741	 0.134228
H	 0.0247434347	 1.7834312893	 1.0311815763	 0.176432
H	-0.0743622696	-1.7695931257	 1.0573877281	 0.131371
H	 0.085088141	 0.858077208	-2.8932405358	 0.152249
H	-0.017607706	-3.2329394139	-3.0853460846	 0.161808
61.7487	129.5257	173.5696	189.324	302.1317	320.0726	374.2435	459.6372	485.6747	633.1672	673.2554	740.3416	809.4609	850.3964	932.991	951.289	1035.2259	1043.3923	1090.4793	1149.0916	1160.3638	1179.4868	1244.046	1321.3749	1356.383	1384.8944	1431.4496	1440.2189	1496.0517	1512.4903	1565.3193	1651.7395	1793.452	3028.0136	3055.9996	3083.3564	3169.8169	3278.5961	3317.0842
CN(C=O)C1=COC=N1	CN(C=O)c1cocn1	
InChI=1S/C5H6N2O2/c1-7(4-8)5-2-9-3-6-5/h2-4H,1H3	InChI=1S/C5H6N2O2/c1-7(4-8)5-2-9-3-6-5/h2-4H,1H3
