21
gdb 73865	2.9298	1.21248	0.93717	1.8767	86.4	-0.2241	0.0322	0.2563	1317.8533	0.181013	-387.10058	-387.091279	-387.090335	-387.134714	35.042	
C	-0.0486732653	 1.5136764152	 0.1202108379	-0.497961
C	 0.0302505674	 0.0231884601	 0.0055619816	 0.225134
C	 0.0151179391	-0.7312342779	-1.1036937166	 0.225135
C	-0.0848068337	-0.2890070877	-2.5303612002	-0.497962
C	 0.0912403711	-2.2083832657	-0.7795675043	-0.383405
C	 0.3560327256	-2.2337461037	 0.7248160921	 0.431467
C	 0.2928274928	-3.4431994226	 1.5482432942	-0.249026
O	 1.5540967936	-2.893438514	 1.1571420372	-0.269035
C	 0.119040028	-0.8221135601	 1.2587214276	-0.383403
H	 0.8369928493	 1.9154226826	 0.6294122049	 0.126691
H	-0.1295233463	 2.008465003	-0.8502858457	 0.122254
H	-0.9146862317	 1.8156266081	 0.7239925644	 0.122819
H	-0.1541509553	 0.7963407654	-2.6324756998	 0.122254
H	 0.7862110075	-0.6257992369	-3.1074151005	 0.126694
H	-0.9654977002	-0.7287710042	-3.0168726874	 0.122816
H	-0.8447646151	-2.7226732413	-1.0426645572	 0.104119
H	 0.8957296334	-2.7273028266	-1.3153346495	 0.117342
H	 0.0564698009	-3.3654835186	 2.6097258817	 0.106302
H	 0.0357503132	-4.3987273987	 1.0905013347	 0.106302
H	 0.9398985817	-0.52482411	 1.9230529033	 0.117342
H	-0.8052968159	-0.7546114091	 1.8510598275	 0.104119
51.9903	144.2436	159.3112	169.7794	254.5371	280.976	287.3072	342.4508	397.2769	451.0068	476.2507	503.7711	589.5857	726.6212	788.8414	829.14	893.0024	921.0871	935.6703	953.1767	980.7388	990.2399	1057.2064	1086.3445	1105.9068	1127.3659	1155.5674	1167.0147	1192.465	1212.9862	1225.9005	1260.4098	1282.6905	1341.8231	1410.1773	1418.514	1429.2723	1469.9637	1477.3593	1477.7709	1481.2217	1487.2194	1492.7276	1534.0091	1741.2868	2998.3349	3000.6018	3013.8617	3016.5746	3047.8869	3048.2676	3056.617	3056.864	3069.4154	3112.4671	3120.4767	3151.9439
CC1=C(C)CC2(CO2)C1	CC1=C(C)C[C@]2(CO2)C1	
InChI=1S/C8H12O/c1-6-3-8(5-9-8)4-7(6)2/h3-5H2,1-2H3	InChI=1S/C8H12O/c1-6-3-8(5-9-8)4-7(6)2/h3-5H2,1-2H3
