23
gdb 100123	2.82164	0.93623	0.89126	2.8718	81.85	-0.2507	0.0709	0.3216	1468.9082	0.202335	-425.398347	-425.38757	-425.386626	-425.434516	39.269	
C	-0.2121753507	 1.5035245098	-0.207278211	-0.242987
O	-0.0369488548	 0.1112509083	-0.0762333249	-0.276548
C	 0.6829403597	-0.5792030549	-1.1111138164	 0.349688
C	 0.0087967941	-0.3981790819	-2.4811684341	-0.422134
C	 2.1463070918	-0.1125006108	-1.1638349533	-0.421873
C	 0.6368906211	-2.0522661454	-0.6575060437	-0.23827
C	-0.7576157825	-2.6128978248	-0.5004081236	 0.091992
C	-1.3740294125	-3.4974553316	-1.4989614098	-0.177318
O	-0.8397216726	-4.0263821982	-0.2863593585	-0.242802
H	 0.7400448322	 2.0494380325	-0.2577353134	 0.10598
H	-0.8143924874	 1.775689906	-1.085223764	 0.106024
H	-0.7461643819	 1.8316257931	 0.6884860339	 0.127689
H	 0.1098071363	 0.626608313	-2.8495380696	 0.114336
H	 0.4749869551	-1.0571591122	-3.2200918528	 0.115839
H	-1.0553223293	-0.6423137573	-2.428044773	 0.124783
H	 2.6037204522	-0.1840023128	-0.1727066469	 0.122243
H	 2.7206127901	-0.7373323627	-1.8546682987	 0.11666
H	 2.2318785865	 0.9212115261	-1.5109419901	 0.113403
H	 1.199109388	-2.6728511537	-1.3632696969	 0.097412
H	 1.1452031913	-2.1208774648	 0.3115643387	 0.11179
H	-1.41827114	-2.0275430451	 0.1363953772	 0.106293
H	-2.4586108211	-3.5425870163	-1.5934058187	 0.111307
H	-0.8223394757	-3.7540582064	-2.4033597204	 0.106495
58.0562	68.8788	92.6403	149.0396	185.61	250.8174	266.1974	278.6976	307.1712	330.6136	376.7823	407.8801	413.461	472.6228	569.5727	740.0107	827.7914	853.5788	865.1061	897.1688	922.6463	947.0473	982.0186	1023.2229	1075.3265	1108.5756	1129.4416	1156.5247	1176.6768	1181.9834	1187.0164	1200.0365	1216.6874	1255.0278	1283.4672	1296.5371	1355.2911	1393.647	1411.827	1441.0446	1470.6471	1475.9602	1481.9538	1484.0661	1498.9445	1504.5826	1511.0467	1517.0973	1531.0664	2993.418	3036.1536	3037.6024	3046.1332	3046.7512	3075.3176	3083.6476	3106.5441	3107.725	3114.3269	3117.752	3123.0125	3134.7414	3160.5455
COC(C)(C)CC1CO1	COC(C)(C)C[C@H]1CO1	
InChI=1S/C7H14O2/c1-7(2,8-3)4-6-5-9-6/h6H,4-5H2,1-3H3	InChI=1S/C7H14O2/c1-7(2,8-3)4-6-5-9-6/h6H,4-5H2,1-3H3/t6-/m0/s1
