14
gdb 48355	2.4645	1.44919	0.9805	2.7207	69.13	-0.2774	-0.0996	0.1778	1132.025	0.098672	-436.701813	-436.693173	-436.692229	-436.735951	30.165	
O	-0.2854397021	 0.4041879615	-0.8616498296	-0.270466
C	 0.2327787944	 0.8441895133	 0.1364298684	 0.068772
C	 1.3660650701	 1.8130420238	 0.0979629754	 0.079941
C	 2.3319026572	 1.6767657947	-1.1086197923	-0.258452
C	 1.3797420196	 2.7907417469	-1.1066632473	-0.25846
C	 1.979185171	 2.334856182	 1.341149321	 0.251343
O	 2.8991597076	 3.120703621	 1.3705513877	-0.29506
C	 1.4114765347	 1.8479748953	 2.6173386163	 0.234188
N	 0.9783111472	 1.4764404078	 3.6230349349	-0.310605
H	-0.1148111145	 0.5439919414	 1.1447829717	 0.119038
H	 3.3698450047	 1.8822187805	-0.8755757912	 0.158653
H	 2.1205769447	 0.8180899364	-1.7347368432	 0.161219
H	 0.4974575658	 2.716651881	-1.731238432	 0.161249
H	 1.7447111897	 3.7835786145	-0.8723770798	 0.15864
41.0604	115.7521	135.6768	235.5184	242.8873	269.5947	296.8304	336.1466	454.2261	464.0794	651.2418	714.6405	721.929	796.9984	802.6554	868.28	983.2412	990.069	1059.4023	1068.3446	1112.9751	1121.0298	1219.4341	1282.455	1321.2454	1436.0942	1441.875	1472.9827	1757.64	1808.7473	2338.1763	2943.0092	3148.666	3150.6507	3247.3655	3261.1107
O=CC1(CC1)C(=O)C#N	O=CC1(CC1)C(=O)C#N	
InChI=1S/C6H5NO2/c7-3-5(9)6(4-8)1-2-6/h4H,1-2H2	InChI=1S/C6H5NO2/c7-3-5(9)6(4-8)1-2-6/h4H,1-2H2
