13
gdb 24869	2.02367	2.00524	1.0072	1.8273	63.03	-0.2681	-0.0074	0.2607	1062.6095	0.092848	-486.181888	-486.174642	-486.173697	-486.21397	27.198	
N	-0.1049015082	 1.33952316	 0.0107477588	-0.551932
C	 0.0035762996	 0.0741851609	 0.0032431712	 0.472333
N	 1.1754487454	-0.6802682527	-0.0071876855	-0.42426
C	 1.2743083023	-2.0642436967	-0.0153633882	 0.490902
O	 2.3290823853	-2.6503900579	-0.0242989764	-0.373694
N	 0.042154823	-2.6984832401	-0.0123722346	-0.42862
C	-1.2093162614	-2.0895741302	-0.0022731563	 0.499017
O	-2.2436937126	-2.7106804344	-0.0001960538	-0.374517
N	-1.1420039954	-0.7111344038	 0.0051016572	-0.385972
H	 0.7992079875	 1.8052361559	 0.0084268419	 0.223175
H	 2.0590779565	-0.1948402698	-0.0092337009	 0.276562
H	 0.0520201038	-3.7074448711	-0.0180122649	 0.287662
H	-2.0206394859	-0.2151027299	 0.0124759716	 0.289344
119.7637	136.2812	150.3992	375.6773	390.5491	513.7173	522.7628	530.8711	584.1594	616.7983	648.9209	668.5635	713.2445	755.7972	761.0114	792.3243	986.9686	1017.1872	1034.1715	1129.5124	1260.0832	1371.5589	1401.3629	1415.9825	1456.075	1477.733	1763.707	1842.961	1854.4549	3525.7495	3643.5099	3645.0697	3648.8487
N=C1NC(=O)NC(=O)N1	[NH][C]1NC(=O)NC(=O)N1	
InChI=1S/C3H4N4O2/c4-1-5-2(8)7-3(9)6-1/h(H4,4,5,6,7,8,9)	InChI=1S/C3H4N4O2/c4-1-5-2(8)7-3(9)6-1/h(H4,4,5,6,7,8,9)
