15
gdb 26795	3.75074	1.11507	0.86451	1.4558	83.48	-0.1887	-0.0134	0.1753	1270.7097	0.112504	-416.797814	-416.789157	-416.788213	-416.830716	32.763	
N	-0.0005165151	 1.3528181428	 0.0127993145	-0.617846
C	-0.0874293455	-0.0387498643	-0.0048712414	 0.203529
C	-1.195585463	-0.8424382488	-0.0130095615	 0.263512
N	-2.526117438	-0.4153756457	-0.0680258038	-0.617004
C	-0.7145515213	-2.1860714392	-0.0391341271	-0.382848
C	 0.654356252	-2.1125163874	-0.0411929192	 0.232542
O	 1.054229518	-0.8072095432	-0.034622047	-0.204761
C	 1.644647658	-3.1092500321	-0.0451144082	 0.245774
C	 2.4856124603	-3.97262633	-0.0497178297	-0.413429
H	 0.6213645852	 1.6927249199	 0.7398895901	 0.247747
H	 0.3114720834	 1.7437388126	-0.8720600933	 0.248831
H	-2.6007079265	 0.5671484507	 0.1691007651	 0.248888
H	-3.142777802	-0.9607220418	 0.5205642082	 0.243492
H	-1.298181251	-3.0930781667	-0.0534243701	 0.110872
H	 3.2263696952	-4.7330273167	-0.0548101765	 0.190702
118.2327	142.4419	185.377	250.4571	254.0878	300.9234	319.7495	411.0995	462.3657	520.9051	530.3393	584.0129	650.9392	667.505	681.9455	685.4631	775.0904	790.4878	817.3094	830.298	991.7645	1071.3733	1143.9357	1187.6371	1218.2766	1284.6102	1308.2302	1474.4997	1561.3281	1637.6838	1650.348	1710.7079	2226.3054	3259.0213	3481.4821	3504.3635	3525.1049	3548.8387	3618.8653
NC1=C(N)C=C(O1)C#C	Nc1c(N)cc(o1)C#C	
InChI=1S/C6H6N2O/c1-2-4-3-5(7)6(8)9-4/h1,3H,7-8H2	InChI=1S/C6H6N2O/c1-2-4-3-5(7)6(8)9-4/h1,3H,7-8H2
