17
gdb 46398	3.71293	0.92176	0.80573	3.8457	68.1	-0.2723	0.0023	0.2747	1390.5433	0.135705	-458.960712	-458.952403	-458.951458	-458.994867	29.617	
O	 0.3205915671	 0.0696351744	-0.1199804721	-0.321723
C	 0.2050051875	 1.2496216166	-0.2134459208	 0.462536
O	-0.796908898	 1.9510488028	-0.8335535619	-0.236788
C	-0.214118901	 3.2349268364	-0.4352401725	-0.106471
C	 0.9570956075	 2.5042641242	 0.2509417288	-0.18826
C	 1.1504668172	 2.6612594757	 1.7604030813	-0.265017
C	 2.1287033914	 1.647263005	 2.3121890208	 0.095701
C	 3.5491732539	 1.9681160559	 2.5057894095	-0.176352
O	 2.6468999836	 1.9199453275	 3.6128536855	-0.237199
H	 0.02804122	 3.8384728933	-1.3116503786	 0.129314
H	-0.8930861943	 3.7737589458	 0.2295350919	 0.129829
H	 1.9087255947	 2.617011026	-0.2769359138	 0.1187
H	 1.5121377994	 3.6700426952	 1.9883149885	 0.116162
H	 0.1854366542	 2.5441686223	 2.2696298434	 0.121178
H	 1.8601369205	 0.605062608	 2.1404921055	 0.12529
H	 4.2944165724	 1.1750842778	 2.4731357347	 0.122588
H	 3.9167502538	 2.9613648831	 2.2483104999	 0.110511
67.1696	77.27	109.5066	160.1275	247.6485	320.1094	406.2434	418.3804	512.8773	707.6674	761.1781	815.5689	827.9999	870.7119	889.3309	932.8071	954.4165	991.3124	1066.3782	1087.6276	1117.5375	1128.5813	1141.1521	1158.0224	1163.6816	1183.2056	1198.4139	1258.0732	1292.5177	1299.3463	1352.2815	1375.6809	1447.0333	1489.1046	1516.3773	1531.4452	1929.7923	3028.9678	3068.0258	3072.6959	3080.8531	3082.4194	3123.9073	3135.1161	3169.2642
O=C1OCC1CC1CO1	O=C1OC[C@H]1C[C@H]1CO1	
InChI=1S/C6H8O3/c7-6-4(2-9-6)1-5-3-8-5/h4-5H,1-3H2	InChI=1S/C6H8O3/c7-6-4(2-9-6)1-5-3-8-5/h4-5H,1-3H2/t4-,5+/m1/s1
