23
gdb 92906	2.31622	1.43592	1.08289	1.6463	86.18	-0.2409	0.0156	0.2565	1230.477	0.206249	-388.312031	-388.302605	-388.301661	-388.345429	37.112	
C	-0.0088947154	 1.5587632077	-0.0357062975	-0.416009
C	 0.0697692398	 0.0293616665	 0.0016196282	 0.02444
C	 0.6770756671	-0.5436387067	-1.292193594	-0.252792
C	 0.9457005009	-2.0210170045	-1.1937452003	-0.061569
C	 0.8950445453	-2.6940643824	-0.0448564897	-0.096208
C	 0.5914300678	-2.0556489265	 1.2900953893	 0.082748
O	 1.3168130824	-2.6916026174	 2.3415942467	-0.445434
C	 0.7977355624	-0.5219948044	 1.2512047122	-0.000518
C	 2.2840453671	-0.1421665339	 1.3291626414	-0.424017
H	 0.981197735	 2.0158302033	-0.1361265764	 0.116154
H	-0.6106305813	 1.8957927285	-0.8868514325	 0.110666
H	-0.4694379442	 1.9544240418	 0.8758355881	 0.111573
H	-0.9617420452	-0.3480042355	 0.059501351	 0.075108
H	 0.0016867177	-0.3455331716	-2.1353060609	 0.102576
H	 1.6088832213	-0.0147501106	-1.5447954008	 0.106023
H	 1.1828215245	-2.5444537413	-2.1176087202	 0.086783
H	 1.0729791022	-3.7668376476	-0.0172477516	 0.089241
H	-0.4588384382	-2.250045971	 1.5479371119	 0.092939
H	 2.244588264	-2.7105245465	 2.0840174886	 0.277697
H	 0.3056297221	-0.1067937355	 2.140022949	 0.069856
H	 2.8629148349	-0.5687144088	 0.5032042973	 0.117063
H	 2.4199406543	 0.9424296153	 1.3080581611	 0.116083
H	 2.7160281556	-0.5027007488	 2.2670694192	 0.117596
115.2005	138.0753	214.9393	226.4356	249.3325	271.9398	297.976	330.7177	352.0233	422.1015	439.663	469.4188	546.6615	615.5427	682.0908	770.8035	806.2949	855.3712	899.395	930.2935	967.8005	992.6136	1009.8622	1028.344	1044.5363	1057.0695	1086.5841	1116.0296	1133.9753	1185.4753	1203.5321	1232.2406	1255.8445	1297.3401	1323.6902	1332.3698	1347.7118	1381.9998	1392.6209	1401.1437	1412.7626	1415.2786	1429.1987	1475.603	1493.6767	1498.9093	1503.6067	1519.3247	1717.9113	2987.4305	2997.9854	3005.6746	3024.0538	3027.9872	3030.8857	3041.4889	3093.3483	3098.3232	3108.0755	3114.0702	3139.2288	3163.6982	3809.2847
CC1CC=CC(O)C1C	C[C@H]1CC=C[C@@H](O)[C@H]1C	
InChI=1S/C8H14O/c1-6-4-3-5-8(9)7(6)2/h3,5-9H,4H2,1-2H3	InChI=1S/C8H14O/c1-6-4-3-5-8(9)7(6)2/h3,5-9H,4H2,1-2H3/t6-,7-,8+/m0/s1
