18
gdb 26498	3.58929	1.27536	1.02299	1.1331	77.73	-0.2273	0.007	0.2344	1169.4803	0.148655	-401.97411	-401.966177	-401.965233	-402.006724	30.482	
C	 0.072187004	 1.5156416476	-0.1227307907	-0.483249
C	 0.0129755172	 0.0044130094	-0.020226716	 0.246201
C	 1.3089956496	-0.7788426286	-0.1396380462	-0.295655
C	 0.6329110696	-0.6617986777	 1.1960042483	-0.295665
C	-1.2032946494	-0.618009123	-0.5813629603	 0.238788
C	-2.2792964742	-0.0424121172	-1.1768405342	-0.146472
O	-3.1580397667	-1.0339647194	-1.5347038513	-0.143373
C	-2.5545686891	-2.1688587149	-1.1291762932	 0.072591
N	-1.4067267556	-2.0008949287	-0.5628098053	-0.321439
H	 1.000039027	 1.8952456158	 0.3138589312	 0.116178
H	 0.0352167456	 1.8462168588	-1.16725408	 0.118962
H	-0.7634316391	 1.98447079	 0.4098226254	 0.118963
H	 1.2610212576	-1.7379213163	-0.6414967673	 0.131513
H	 2.2160598071	-0.210311029	-0.3156973826	 0.108353
H	 1.0710937124	-0.0120992071	 1.9462547309	 0.108348
H	 0.1350849466	-1.5430022514	 1.5828432642	 0.131526
H	-2.5723164123	 0.9645027916	-1.4137507416	 0.144473
H	-3.0798809302	-3.0929647901	-1.3139246112	 0.149956
70.9914	170.5727	180.678	233.8606	301.8951	322.7399	441.6396	452.055	536.6144	639.31	717.4159	766.5427	791.0866	833.2279	844.774	849.6286	936.9561	952.2157	959.3339	979.9458	1047.4694	1072.3396	1086.0261	1094.6979	1119.4483	1133.1169	1182.65	1198.4908	1243.3422	1309.4813	1351.0071	1367.4281	1413.9843	1456.9151	1488.3606	1491.3458	1505.5294	1564.6237	1626.3196	3023.9682	3082.7969	3108.3265	3133.48	3136.5076	3222.2194	3235.0887	3272.4454	3303.3205
CC1(CC1)C1=COC=N1	CC1(CC1)c1cocn1	
InChI=1S/C7H9NO/c1-7(2-3-7)6-4-9-5-8-6/h4-5H,2-3H2,1H3	InChI=1S/C7H9NO/c1-7(2-3-7)6-4-9-5-8-6/h4-5H,2-3H2,1H3
