14
gdb 20658	5.87996	1.6095	1.27436	2.1519	68.57	-0.2229	-0.0566	0.1662	916.1326	0.108384	-374.932694	-374.925435	-374.924491	-374.964392	26.607	
C	-0.0275160574	 1.4905751676	 0.0304627674	-0.483863
C	 0.0054968056	-0.0109599332	-0.0133348514	 0.323637
C	 0.0637506965	-0.739332863	-1.2105190078	-0.048114
N	 0.1028861949	-2.0580651471	-1.2312572835	-0.292734
C	 0.0845982425	-2.6350141409	-0.0134448166	 0.468902
N	 0.1826956208	-3.9922276998	 0.0392620974	-0.54574
N	 0.0016513902	-1.9894571465	 1.1637195685	-0.260869
N	-0.0338258746	-0.6676217908	 1.1484356983	-0.22873
H	 0.8880715232	 1.9245400513	-0.3870251804	 0.134146
H	-0.8689304304	 1.8918144239	-0.5451524562	 0.132083
H	-0.1248705598	 1.8188569371	 1.0667078689	 0.148702
H	 0.0719554614	-0.2304993491	-2.1735753632	 0.118014
H	-0.0060800287	-4.4991689989	-0.8087309107	 0.26577
H	-0.0489113242	-4.4293065405	 0.9157339192	 0.268796
66.1945	113.6985	298.0564	332.0073	372.9734	408.5018	418.9052	501.1214	528.1931	565.7555	670.7821	790.0353	834.1687	890.9057	972.9421	984.612	1060.4522	1069.7022	1080.0385	1162.1188	1274.0508	1369.0338	1390.4836	1410.4205	1474.6457	1485.624	1495.8187	1559.7077	1614.5561	1638.0527	3033.4319	3086.1156	3136.6174	3139.8554	3608.5553	3737.0285
CC1=CN=C(N)N=N1	Cc1cnc(N)nn1	
InChI=1S/C4H6N4/c1-3-2-6-4(5)8-7-3/h2H,1H3,(H2,5,6,8)	InChI=1S/C4H6N4/c1-3-2-6-4(5)8-7-3/h2H,1H3,(H2,5,6,8)
