16
gdb 111904	2.30668	1.42953	0.93022	3.1466	66.75	-0.2719	-0.028	0.2439	1219.8511	0.12373	-475.078699	-475.070139	-475.069195	-475.112351	30.765	
C	-0.0186337955	 1.4454116661	-0.0070957952	-0.478245
C	-0.0910186358	-0.0379885098	-0.0175853928	 0.410177
N	-1.1295710877	-0.7659326236	-0.1035651339	-0.31193
C	-0.662253196	-2.1514488386	-0.0797179294	-0.169142
C	-1.128479488	-2.9046158713	-1.3385489251	-0.053405
O	-2.5326572232	-2.9434735203	-1.4020991724	-0.415874
C	 0.8522484249	-2.049511319	 0.0360254588	 0.422429
O	 1.7034201462	-2.8799723014	 0.0730516518	-0.317452
O	 1.1292923815	-0.6831780131	 0.0796379201	-0.23164
H	 0.6112220041	 1.7997723148	-0.8289401808	 0.157916
H	-1.0216149353	 1.8601293528	-0.1036242888	 0.158675
H	 0.4365279934	 1.7938880966	 0.9254155566	 0.159037
H	-1.0688223456	-2.6713184248	 0.7958041661	 0.139376
H	-0.6871422885	-2.4247570025	-2.2265483381	 0.096497
H	-0.768265628	-3.9362447103	-1.297456945	 0.134899
H	-2.8384517764	-2.0322859957	-1.314200522	 0.298682
88.2751	128.0642	159.924	170.9999	177.2265	295.1031	336.2123	428.2098	445.6246	576.7564	622.2033	631.5348	669.8499	733.8369	880.6532	909.8947	928.661	1021.2096	1062.492	1076.6351	1080.3432	1101.0723	1142.6135	1209.3596	1255.5332	1284.7684	1313.5696	1386.5261	1413.6359	1427.2765	1472.1047	1472.8169	1506.1028	1735.8541	1917.2016	2980.2458	3052.0746	3052.6128	3099.0534	3111.6494	3166.1936	3787.2118
CC1=NC(CO)C(=O)O1	CC1=N[C@@H](CO)C(=O)O1	
InChI=1S/C5H7NO3/c1-3-6-4(2-7)5(8)9-3/h4,7H,2H2,1H3	InChI=1S/C5H7NO3/c1-3-6-4(2-7)5(8)9-3/h4,7H,2H2,1H3/t4-/m0/s1
