18
gdb 55732	2.89898	1.14035	0.93644	6.1094	73.4	-0.2397	-0.009	0.2307	1269.45	0.14561	-439.121735	-439.112027	-439.111083	-439.157235	34.594	
N	-0.1185377402	 1.2961143386	 0.9000497755	-0.52563
C	 0.1037369927	 0.053828371	 0.3859200191	 0.428028
O	 1.2039181253	-0.4648157489	 0.380048319	-0.350376
C	-1.1272401039	-0.635761584	-0.2091221336	-0.452466
C	-0.9620934046	-2.138965626	-0.2497653549	 0.296758
C	-1.2668249391	-2.9614582168	 0.9875888823	-0.275546
C	-2.2028640559	-3.0277346296	-0.1725909838	-0.31138
C	 0.1288358537	-2.6666750225	-1.1257498438	 0.119941
O	 0.4618226812	-3.8274750534	-1.1569217168	-0.287092
H	 0.6710559275	 1.8232548147	 1.2357109823	 0.264786
H	-1.0195383127	 1.7393238598	 0.8719291818	 0.260821
H	-2.0279178289	-0.3624922228	 0.3511742219	 0.108734
H	-1.26660466	-0.2373915886	-1.2244930635	 0.133647
H	-0.614394355	-3.8101937511	 1.1552090237	 0.145459
H	-1.5737909806	-2.4210750683	 1.8764733507	 0.113307
H	-3.1644577418	-2.5302421315	-0.1037584218	 0.112915
H	-2.1849873118	-3.923044358	-0.7832984253	 0.139212
H	 0.6029950142	-1.9147570429	-1.7888917627	 0.078882
41.064	69.268	112.8752	143.8186	194.2581	250.4624	301.6198	319.2344	358.547	396.7822	502.8149	582.4698	641.761	689.3088	768.0755	793.6564	839.3705	852.42	906.6282	965.2377	980.6079	1032.3576	1045.6646	1068.2221	1088.5605	1100.0056	1191.5057	1203.427	1271.1865	1317.0214	1346.3402	1401.7372	1437.8846	1452.7666	1459.6737	1487.4434	1618.328	1792.7384	1807.9469	2922.2616	3013.8771	3068.1886	3134.7815	3138.6119	3223.8541	3238.4105	3602.8279	3739.5238
NC(=O)CC1(CC1)C=O	NC(=O)CC1(CC1)C=O	
InChI=1S/C6H9NO2/c7-5(9)3-6(4-8)1-2-6/h4H,1-3H2,(H2,7,9)	InChI=1S/C6H9NO2/c7-5(9)3-6(4-8)1-2-6/h4H,1-3H2,(H2,7,9)
