20
gdb 71257	2.22169	2.07213	1.62838	1.2958	77.68	-0.213	0.067	0.28	948.7591	0.171972	-403.092646	-403.084849	-403.083905	-403.124232	31.95	
C	 0.0629283167	 1.549225864	 0.0109163891	-0.510662
C	 0.01431815	 0.0445648333	-0.0422836666	 0.29644
C	 0.4136598897	-0.8268887303	-1.2302308577	-0.2358
N	-0.3218373567	-1.9660897238	-0.5511329728	-0.154257
C	 0.5918567487	-2.1652494555	 0.6160087507	-0.222432
C	 0.38427458	-0.7855324853	 1.2741202996	 0.349084
O	 1.3297116173	-0.2498002487	 2.1441716988	-0.489449
C	-1.1353176387	-0.8812290356	 1.5964074688	-0.318628
C	-1.2466439551	-0.8660461834	 0.0724513069	-0.026289
H	 1.0995470888	 1.8986926383	 0.068091532	 0.13029
H	-0.3950219038	 1.9916070207	-0.880395289	 0.113639
H	-0.4584396582	 1.9422634276	 0.8897914072	 0.121365
H	-0.1090810966	-0.5381379341	-2.1478693707	 0.100453
H	 1.466396514	-1.0276536685	-1.4570807695	 0.096015
H	 0.2614871539	-2.9995251503	 1.2430492497	 0.088602
H	 1.6144073934	-2.3557059552	 0.2810316088	 0.10135
H	 1.4160785154	-0.8341878433	 2.905192197	 0.281673
H	-1.5006262206	-1.7403037916	 2.1675387802	 0.092189
H	-1.5331093815	 0.0483472028	 2.0116412268	 0.107646
H	-2.1725871068	-0.7293063911	-0.4824051996	 0.078771
183.6981	188.9193	210.2467	231.9335	320.8689	378.6078	445.0106	483.387	522.8272	587.061	639.4077	672.157	705.7699	799.0767	850.0178	869.3031	878.2809	901.9497	950.0441	971.9368	986.8191	1011.8479	1042.4345	1099.398	1121.4646	1133.7014	1169.8048	1174.1296	1195.9312	1222.6696	1224.6638	1236.6066	1265.6738	1271.3143	1302.591	1347.3087	1372.9321	1413.6124	1485.6033	1487.4908	1494.6169	1504.7389	1531.0943	3028.8207	3034.3943	3044.5185	3052.5221	3087.7843	3094.9917	3097.6981	3103.6169	3115.0846	3136.321	3804.3562
CC12CN3CC1(O)CC23	C[C@@]12CN3C[C@]1(O)C[C@@H]23	
InChI=1S/C7H11NO/c1-6-3-8-4-7(6,9)2-5(6)8/h5,9H,2-4H2,1H3	InChI=1S/C7H11NO/c1-6-3-8-4-7(6,9)2-5(6)8/h5,9H,2-4H2,1H3/t5-,6-,7+/m0/s1
