20
gdb 109004	3.89538	1.03139	0.99655	1.5489	81.15	-0.2092	0.0138	0.2229	1289.7343	0.170969	-403.079246	-403.070774	-403.06983	-403.112259	33.	
C	-0.3239707717	 1.3430061153	 0.0222289616	-0.328511
N	 0.0187782783	-0.0742591576	 0.0555364127	-0.092764
C	 1.2092259861	-0.5053631644	-0.8036898013	-0.047074
C	 2.1718562101	 0.0168373933	 0.311599959	-0.22771
C	 0.9739751244	-0.5119698955	 1.163174613	-0.122506
C	 1.0323530403	-2.0151783376	 0.8389698675	 0.347724
C	 0.8684217026	-3.138547977	 1.8043406409	-0.202098
O	 0.753689608	-4.4035719829	 1.1791443733	-0.407057
C	 1.1957676831	-2.0046265026	-0.4884520849	-0.195083
H	 0.5098558704	 2.0575320782	 0.1216062856	 0.092706
H	-0.8325514518	 1.5537912888	-0.9248551396	 0.120273
H	-1.036822593	 1.5475247751	 0.8286390104	 0.119135
H	 1.2435548234	-0.1698320336	-1.8403447417	 0.066643
H	 3.1413776156	-0.4742479532	 0.4238040896	 0.097941
H	 2.290321927	 1.1021992641	 0.334705225	 0.100948
H	 0.7630929006	-0.1886992898	 2.1837799975	 0.064469
H	 1.7426133745	-3.21101229	 2.4657994289	 0.122749
H	 0.0068216918	-2.9313247146	 2.4637069753	 0.098844
H	 0.0142727472	-4.3465377597	 0.5640508164	 0.284412
H	 1.2776084231	-2.8220801763	-1.1887719993	 0.106958
76.7528	162.3847	175.7276	205.212	293.3868	323.9265	345.8608	389.8593	506.0727	559.6639	577.3847	671.0165	728.3747	801.0194	813.5909	833.4956	860.157	902.4463	930.2893	995.229	1002.6266	1034.2585	1065.1374	1081.688	1109.3272	1138.6859	1142.8365	1176.5313	1188.242	1208.8685	1217.1723	1234.3309	1262.438	1278.5222	1291.8455	1382.0591	1422.551	1441.1163	1478.3391	1490.3553	1500.8268	1517.0267	1682.8897	2946.9372	2959.3294	3026.448	3054.0689	3065.6697	3091.3137	3108.5762	3119.5587	3124.6435	3245.8627	3804.7957
CN1C2CC1C(CO)=C2	CN1[C@H]2C[C@@H]1C(=C2)CO	
InChI=1S/C7H11NO/c1-8-6-2-5(4-9)7(8)3-6/h2,6-7,9H,3-4H2,1H3	InChI=1S/C7H11NO/c1-8-6-2-5(4-9)7(8)3-6/h2,6-7,9H,3-4H2,1H3/t6-,7-/m1/s1
