21
gdb 87637	2.63951	1.19586	1.03631	2.7647	83.49	-0.2364	-0.0176	0.2188	1273.3725	0.180164	-387.094059	-387.084481	-387.083537	-387.128689	35.862	
C	-0.014211178	 1.5102589215	-0.1891076082	-0.407795
C	 0.1031766996	 0.0074223375	-0.0671036074	-0.046838
C	 1.4580917745	-0.6664524128	-0.0966355945	-0.357627
C	 0.6598522127	-0.6384560525	 1.1733821228	 0.33438
C	 1.0156570528	 0.0787064344	 2.4903236182	-0.436698
C	 0.2454898873	-1.0386680744	 3.2184841552	 0.401769
O	-0.1293021532	-1.1905158218	 4.3450548917	-0.298531
C	 0.0507146574	-1.8504643851	 1.9217049699	-0.175934
C	-1.3624456646	-2.3288073718	 1.6089493622	-0.407728
H	 0.8256675692	 2.0155829033	 0.2987806518	 0.117372
H	-0.0190449263	 1.8195252887	-1.23994826	 0.120627
H	-0.9374743784	 1.8807957663	 0.2707781528	 0.118445
H	-0.6990386863	-0.5438708716	-0.5530488648	 0.085747
H	 1.5572884065	-1.6116582485	-0.622108023	 0.10972
H	 2.3367905919	-0.030249754	-0.1579719182	 0.109395
H	 2.0825408542	 0.0911976427	 2.7401385397	 0.128467
H	 0.6139370167	 1.0851299272	 2.6444275418	 0.12968
H	 0.7442389612	-2.7031949773	 1.9242614982	 0.100414
H	-2.0682986716	-1.4927140596	 1.5900659464	 0.12152
H	-1.4077909178	-2.8331297595	 0.6381558235	 0.118234
H	-1.6978315577	-3.0357162326	 2.3734671221	 0.135381
40.2597	133.3777	179.9351	182.8494	200.2524	200.9854	255.1863	369.8207	420.6614	431.5546	478.5458	528.8476	556.2502	723.0995	745.609	779.1756	849.2054	886.4515	898.7538	921.7276	979.6705	1029.6349	1033.9936	1055.8147	1086.6223	1103.7565	1126.7112	1138.5101	1147.1582	1185.7879	1189.3065	1228.2755	1238.5061	1325.2114	1328.9361	1403.3908	1408.9265	1425.5628	1440.9677	1487.7857	1492.3168	1494.4449	1496.3516	1505.8568	1890.8457	3011.8575	3026.8557	3036.0595	3042.7728	3088.3779	3092.8705	3096.4625	3103.8505	3113.8502	3114.304	3131.5905	3197.304
CC1CC11CC(=O)C1C	C[C@H]1C[C@]21CC(=O)[C@H]2C	
InChI=1S/C8H12O/c1-5-3-8(5)4-7(9)6(8)2/h5-6H,3-4H2,1-2H3	InChI=1S/C8H12O/c1-5-3-8(5)4-7(9)6(8)2/h5-6H,3-4H2,1-2H3/t5-,6+,8+/m0/s1
