19
gdb 81659	2.2269	1.81725	1.66654	1.3056	75.01	-0.245	-0.0044	0.2406	955.4786	0.161816	-423.014688	-423.007321	-423.006377	-423.04613	30.081	
O	-0.0835337658	 1.5016215851	 0.0289056639	-0.422914
C	-0.0146571527	 0.1102054057	 0.004459185	 0.094345
C	-1.3045808609	-0.7579896672	-0.0515402118	 0.061743
C	-2.5313303749	-0.0606959656	-0.6553621309	-0.249014
C	-2.5361948393	-0.0159075342	-2.20069309	-0.237665
C	-1.2744573285	 0.4602712901	-2.8885833623	-0.080977
C	-0.0182524309	 0.1611152754	-2.5384357666	-0.066471
C	 0.3390102249	-0.6388594666	-1.3172026908	 0.007048
O	-0.6507041693	-1.6471186449	-0.9946760458	-0.289781
H	-0.3945907982	 1.7891564496	-0.8404790512	 0.279785
H	 0.6335684359	-0.1971324424	 0.8277171989	 0.099743
H	-1.5649969633	-1.2875959708	 0.8705441273	 0.077852
H	-3.4457136949	-0.5682827013	-0.3309380622	 0.103275
H	-2.5771846524	 0.9554068072	-0.2437170046	 0.11327
H	-2.7540110986	-1.0250783783	-2.5713967115	 0.137302
H	-3.3742225858	 0.6108704269	-2.5237808308	 0.09956
H	-1.4248095757	 1.0509527523	-3.7899963026	 0.098808
H	 0.8085181581	 0.5414298925	-3.1333773338	 0.093901
H	 1.3412066924	-1.0712305236	-1.3971457402	 0.08019
125.9858	208.0575	240.9302	327.8718	345.2871	443.555	449.6849	506.9994	575.1149	607.7336	678.4541	747.4872	775.2251	819.2989	852.0887	884.3648	917.9078	950.4691	985.2293	1000.6946	1008.3529	1039.4575	1075.9781	1105.4888	1156.2615	1172.8683	1202.9713	1225.9302	1250.8266	1269.9275	1302.4649	1319.7119	1347.623	1351.9985	1382.4278	1390.0642	1418.6047	1443.7975	1469.2132	1492.9656	1698.6805	3031.069	3032.9922	3051.3686	3058.0397	3068.9939	3078.0451	3095.9824	3140.8418	3165.8886	3737.5312
OC1C2CCC=CC1O2	O[C@H]1[C@H]2CCC=C[C@@H]1O2	
InChI=1S/C7H10O2/c8-7-5-3-1-2-4-6(7)9-5/h1,3,5-8H,2,4H2	InChI=1S/C7H10O2/c8-7-5-3-1-2-4-6(7)9-5/h1,3,5-8H,2,4H2/t5-,6+,7+/m0/s1
