20
gdb 58821	3.31047	1.27041	1.10405	3.5189	77.85	-0.2162	0.059	0.2752	1174.2921	0.169172	-403.048387	-403.039736	-403.038792	-403.081568	33.726	
C	 0.1817100072	 1.5590286309	-0.0457329572	-0.384333
C	 0.026215192	 0.0283836863	-0.010562551	-0.107876
C	 0.5449921667	-0.6162207908	-1.3032549044	-0.407236
C	 0.6682176624	-0.5355892096	 1.2300035631	 0.335995
N	 2.1217612258	-0.7347863611	 1.430615356	-0.355265
C	 1.1817293046	-1.8757264191	 1.5989015043	-0.194133
C	 0.5222180908	-1.7437187383	 3.0174159988	 0.023935
O	 1.0347117016	-0.5827318763	 3.6694683777	-0.212955
C	 0.0275867748	-0.4127479614	 2.6742477964	-0.028393
H	 1.2368107834	 1.8398096445	-0.1306128545	 0.125768
H	-0.3543824787	 1.9861038065	-0.8991856297	 0.110824
H	-0.2107416413	 2.0207011037	 0.8655604235	 0.120934
H	-1.0478798703	-0.198409147	 0.0632289692	 0.080769
H	 1.5999317441	-0.3765270893	-1.479417432	 0.117786
H	 0.4400176644	-1.7053911252	-1.2802188803	 0.11773
H	-0.0165423004	-0.2431854141	-2.1650085199	 0.119755
H	 2.533034749	-0.8456056648	 0.5029851664	 0.227675
H	 1.2708095492	-2.7823746603	 1.0148865579	 0.097043
H	 0.1056268028	-2.5355403611	 3.6276872846	 0.107772
H	-0.8803870781	 0.1147668066	 2.9435309609	 0.104206
63.8446	146.0467	189.6235	235.3959	255.7657	297.3237	346.6014	417.7458	437.7647	491.8254	603.2351	677.4737	758.7362	802.0575	817.7049	845.492	871.8639	898.83	916.6079	926.8299	939.622	970.1664	983.166	986.723	1030.7185	1100.8784	1116.7934	1138.7719	1178.6081	1196.2667	1215.4906	1261.9537	1292.6944	1343.4581	1354.9396	1381.9809	1399.2458	1416.5972	1433.8053	1486.9384	1492.896	1504.8752	1512.363	2992.222	3030.4547	3035.1113	3096.1481	3105.6273	3106.4025	3109.1902	3177.5805	3194.4422	3203.946	3466.9574
CC(C)C12NC1C1OC21	CC(C)[C@]12N[C@H]1[C@H]1O[C@@H]21	
InChI=1S/C7H11NO/c1-3(2)7-5(8-7)4-6(7)9-4/h3-6,8H,1-2H3	InChI=1S/C7H11NO/c1-3(2)7-5(8-7)4-6(7)9-4/h3-6,8H,1-2H3/t4-,5+,6-,7+/m1/s1
