12
gdb 128862	9.50559	0.66455	0.62113	6.0252	86.55	-0.2524	-0.0562	0.1961	1621.0473	0.080366	-394.542656	-394.535374	-394.53443	-394.575198	26.018	
N	 0.0707834301	-3.7391083929	-0.0188215658	-0.33858
C	 0.0463754549	-2.5763996275	-0.012085124	 0.155335
C	 0.0156090769	-1.2148590427	-0.0041672226	 0.231107
C	-0.0179244754	-0.0032097194	 0.0029852521	-0.059785
C	-0.0360363932	 1.3997210693	 0.0109995528	 0.069917
C	-1.1472405084	 2.2367583842	 0.030195505	-0.155224
N	-0.6677982424	 3.4938586813	 0.0308829819	-0.173057
N	 0.6813930825	 3.559461027	 0.0135765344	-0.191308
C	 1.0724824371	 2.2969194476	 0.0014581437	-0.126773
H	-2.2017704215	 2.014304455	 0.0427792803	 0.1611
H	-1.195016265	 4.351499234	 0.0425228153	 0.290427
H	 2.1219709442	 2.045974124	-0.0136773931	 0.136841
77.2916	85.3884	224.9938	228.7174	428.4102	472.2622	499.8271	563.6859	582.7419	587.1864	660.9586	690.9351	806.8272	893.3372	926.0185	947.0018	1033.6354	1086.7453	1171.3518	1241.684	1333.8261	1371.4609	1426.9988	1498.9805	1591.5814	2259.0449	2378.8701	3262.8018	3275.5399	3668.3447
N#CC#CC1=CNN=C1	N#CC#Cc1c[nH]nc1	
InChI=1S/C6H3N3/c7-3-1-2-6-4-8-9-5-6/h4-5H,(H,8,9)	InChI=1S/C6H3N3/c7-3-1-2-6-4-8-9-5-6/h4-5H,(H,8,9)
