23
gdb 72717	2.48545	1.91187	1.5307	0.0968	89.74	-0.2203	0.0871	0.3074	1009.6778	0.208127	-351.070631	-351.063102	-351.062158	-351.101716	32.947	
C	-0.0808014755	 1.5221440908	-0.1309280158	-0.453261
C	-0.0513195158	-0.0096901909	-0.0091016673	 0.36272
C	-1.3337964171	-0.4227969553	 0.8250929693	-0.326836
C	-0.375732291	-0.3665937968	 2.1042989481	-0.342121
C	 0.7696420451	-0.6636167783	 1.0905757643	 0.308583
C	 2.0554072911	-0.243537828	 0.2968845206	-0.343221
C	 1.0879527753	-0.6040300632	-0.9433946707	-0.108413
C	 0.9699826015	-2.1203235677	-0.8133002247	-0.219813
C	 0.7718747537	-2.1870849907	 0.7262706994	-0.230334
H	 0.8480592321	 1.9547682518	-0.5079899783	 0.112173
H	-0.86839855	 1.7880111332	-0.8469645834	 0.113005
H	-0.3274657811	 2.0237498671	 0.8107284985	 0.111276
H	-2.1605459168	 0.2922693891	 0.8019313675	 0.091607
H	-1.7321508645	-1.4208364957	 0.6445512996	 0.108659
H	-0.3599691189	 0.6340114956	 2.5405885209	 0.107354
H	-0.5454865705	-1.096550741	 2.9004090859	 0.094683
H	 2.3174532044	 0.8105119216	 0.3542887316	 0.10492
H	 2.9568901573	-0.8565435496	 0.403108237	 0.085815
H	 1.2801976669	-0.1864754744	-1.9351079316	 0.055454
H	 0.1167686722	-2.5203017259	-1.3692883609	 0.093577
H	 1.8681975776	-2.6418325548	-1.1568987763	 0.092007
H	 1.6056997485	-2.6795034887	 1.2366676	 0.090961
H	-0.1361874645	-2.7156560283	 1.019398816	 0.091207
190.658	216.7886	284.1205	332.5626	363.144	422.1464	462.6725	489.1777	510.2806	610.3376	650.4752	713.5466	779.8852	808.8744	831.2306	840.148	864.833	896.278	915.1254	926.1026	945.0713	963.3075	976.2826	1005.6678	1019.4865	1063.4223	1090.4917	1129.0171	1145.759	1166.5861	1169.8306	1184.4673	1198.54	1216.9753	1226.1234	1237.1961	1242.8193	1257.4168	1266.9465	1311.5852	1326.2237	1411.5558	1473.8981	1485.0188	1496.9658	1499.4857	1501.3558	1514.8299	1531.5912	3026.4875	3046.0791	3048.8294	3054.8852	3059.9467	3067.6428	3079.6732	3081.3084	3086.7923	3108.429	3114.7667	3118.4366	3140.3846	3157.1505
CC12CCC11CC2CC1	C[C@]12CC[C@@]31C[C@H]2CC3	
InChI=1S/C9H14/c1-8-4-5-9(8)3-2-7(8)6-9/h7H,2-6H2,1H3	InChI=1S/C9H14/c1-8-4-5-9(8)3-2-7(8)6-9/h7H,2-6H2,1H3/t7-,8-,9-/m1/s1
