27
gdb 115499	4.54337	0.72082	0.65617	0.0893	96.45	-0.2938	0.0813	0.375	1864.5939	0.253066	-353.589705	-353.579112	-353.578168	-353.626027	39.592	
C	-0.1279940267	 1.611566776	-0.0399248836	-0.383199
C	-0.0800506059	 0.0801104444	-0.0263029935	-0.190754
C	 0.7475843403	-0.5265299192	-1.1627709367	 0.059074
C	 2.2595482117	-0.1802865316	-1.1226566491	-0.218011
C	 3.0016793922	-1.3942264322	-1.7508749059	-0.217851
C	 1.9044911975	-2.4170683561	-2.1467488701	 0.058989
C	 2.3432537403	-3.8829657282	-2.0907841108	-0.190728
C	 3.4515031588	-4.2396541143	-3.0869859901	-0.383207
C	 0.7371789759	-2.0629492392	-1.2113944918	-0.238288
H	 0.871754667	 2.0453431221	 0.0660841589	 0.117342
H	-0.5520455902	 1.9848607418	-0.9791314474	 0.111134
H	-0.7444131856	 1.996941043	 0.7784239328	 0.108948
H	 0.3288653514	-0.2656354548	 0.9335138198	 0.089053
H	-1.1038823158	-0.3129085848	-0.079638503	 0.089191
H	 0.3361989705	-0.16184374	-2.1158859669	 0.062445
H	 2.4786396778	 0.7549400964	-1.6450985488	 0.09502
H	 2.57721675	-0.0360141011	-0.0830900421	 0.092726
H	 3.6194874249	-1.1054555423	-2.6055689971	 0.094968
H	 3.6796500333	-1.8470656232	-1.0175282983	 0.092693
H	 1.5835233548	-2.1965333414	-3.1758594649	 0.062438
H	 2.6793105555	-4.1135655802	-1.0700524277	 0.089058
H	 1.4719459614	-4.5248461806	-2.2761174234	 0.08919
H	 3.1357906253	-4.0389305328	-4.1171876714	 0.111136
H	 4.3605058061	-3.6581815103	-2.9012702423	 0.117343
H	 3.7176227041	-5.2994572715	-3.0223485738	 0.108949
H	 0.9308947094	-2.4674689259	-0.2067082049	 0.08536
H	-0.220846194	-2.4746732041	-1.5465411679	 0.086982
40.1154	71.2187	108.1718	117.7863	194.8836	227.5864	237.755	262.4635	312.5816	402.7515	427.9101	463.2869	533.711	599.3474	772.502	782.1994	788.8456	842.1059	859.0319	938.2234	942.7774	951.6316	954.0385	992.847	1028.6166	1029.2922	1047.5415	1057.2692	1102.6704	1116.5375	1146.7826	1173.2035	1212.1042	1228.5006	1261.8985	1275.3816	1281.6115	1300.4469	1315.3775	1321.34	1333.1771	1351.4819	1363.3361	1373.7569	1391.802	1398.5908	1411.4474	1411.7199	1484.2611	1484.5187	1490.6597	1492.3813	1500.3302	1501.2374	1507.7894	1508.0273	1515.4739	2983.9062	2986.5546	3002.0328	3008.4766	3012.409	3026.5572	3029.9833	3030.0936	3040.2971	3041.8494	3043.0906	3070.5369	3073.5764	3094.6962	3095.6859	3096.0473	3102.3415	3102.699
CCC1CCC(CC)C1	CC[C@H]1CC[C@@H](CC)C1	
InChI=1S/C9H18/c1-3-8-5-6-9(4-2)7-8/h8-9H,3-7H2,1-2H3	InChI=1S/C9H18/c1-3-8-5-6-9(4-2)7-8/h8-9H,3-7H2,1-2H3/t8-,9+
