20
gdb 102484	2.79237	0.94469	0.77886	3.1368	72.89	-0.2551	0.0236	0.2786	1497.6683	0.169567	-477.413872	-477.403354	-477.40241	-477.450236	37.098	
C	 0.1091929906	 1.25897121	 0.1280150539	-0.228574
O	-0.0864133834	-0.1559083081	 0.0910521874	-0.237119
C	-1.3615992544	-0.5821068207	-0.0328281067	 0.38172
N	-2.3206035023	 0.2459255604	-0.1127065555	-0.538538
C	-1.3969731212	-2.1011017752	-0.0362850489	-0.098533
C	-1.096229015	-2.6070011837	 1.3831508084	-0.090907
O	-1.0216464895	-4.0332879987	 1.3464726742	-0.424388
C	-2.7177117738	-2.6697500678	-0.586722547	-0.074644
O	-2.6300547065	-4.039511003	-0.9059588139	-0.431164
H	 1.1850012688	 1.4051552448	 0.2334832152	 0.126002
H	-0.2537935471	 1.7237116313	-0.7926203147	 0.139604
H	-0.4256670286	 1.7040626275	 0.9715165217	 0.135802
H	-3.215910678	-0.2291051862	-0.1941855798	 0.229938
H	-0.5869869606	-2.4487346941	-0.687950205	 0.116927
H	-0.1502787578	-2.1774916716	 1.735206771	 0.116807
H	-1.8977870121	-2.277351149	 2.0617419562	 0.099637
H	-0.9645879474	-4.3624048446	 2.2481339386	 0.296725
H	-3.5284631524	-2.4745534248	 0.1391566109	 0.078219
H	-2.9813519928	-2.1471672628	-1.5126233149	 0.112298
H	-2.2255911566	-4.4708451238	-0.1411234412	 0.290188
33.9422	99.4933	112.5734	143.9442	179.7398	206.0788	238.9445	264.1108	309.7772	351.1721	365.813	402.465	478.6926	554.7211	672.0995	741.4258	851.2812	872.6805	920.2721	930.4189	1013.7412	1059.3734	1083.9829	1096.7759	1114.8173	1144.4768	1179.1009	1216.4135	1219.2936	1239.4668	1277.294	1288.9933	1344.2963	1371.8915	1402.7282	1450.9263	1473.9957	1475.9985	1477.6485	1498.8147	1514.6409	1525.8688	1719.3771	2931.6857	2987.2485	3044.5224	3046.1987	3057.4779	3066.3739	3118.9032	3149.5577	3526.6402	3747.3509	3835.7112
COC(=N)C(CO)CO	CO[C]([NH])C(CO)CO	
InChI=1S/C5H11NO3/c1-9-5(6)4(2-7)3-8/h4,6-8H,2-3H2,1H3	InChI=1S/C5H11NO3/c1-9-5(6)4(2-7)3-8/h4,6-8H,2-3H2,1H3
