16
gdb 46496	4.14485	1.22019	1.04936	4.8046	73.13	-0.2654	-0.0517	0.2137	1117.9745	0.125855	-437.896461	-437.889089	-437.888145	-437.92849	28.335	
O	-0.0382728819	 0.0614325335	 0.4368010962	-0.333644
C	-0.0188662458	 1.1907473567	 0.0231957482	 0.413094
O	-1.1965365541	 1.8372371339	-0.2165402745	-0.237626
C	-1.1653077985	 3.037009514	-0.9963553631	-0.157679
C	-0.0703596063	 3.9907945088	-0.5783401718	 0.252859
C	-0.1441246751	 5.3920248687	-1.0741185316	-0.281867
N	-0.3269836803	 5.117902131	 0.3527963213	-0.341972
C	 1.215659897	 3.289108733	-0.3760976602	-0.072736
C	 1.2271597011	 1.9699850889	-0.1633534301	-0.221479
H	-1.027102825	 2.764698277	-2.0517407956	 0.123266
H	-2.1555134015	 3.4890401524	-0.888516202	 0.117248
H	 0.7692038975	 5.922963863	-1.3291113908	 0.128999
H	-1.0073156828	 5.6644329374	-1.677997929	 0.120645
H	-1.3140351857	 5.1412480781	 0.6002564364	 0.241229
H	 2.1310558264	 3.8735898943	-0.3805079791	 0.121091
H	 2.139477075	 1.4081129292	-0.0041979043	 0.128574
75.1995	190.7808	224.2575	285.3784	361.1818	395.9281	445.5748	482.7829	589.4787	686.6467	720.4404	783.7135	804.3748	847.5381	908.0264	923.1998	941.4293	978.346	1009.0568	1042.7967	1083.0284	1088.0334	1128.8301	1152.6138	1226.8772	1252.7447	1273.0756	1338.0309	1360.4468	1417.2467	1434.099	1495.8691	1510.8547	1686.2757	1829.063	3013.1575	3087.7386	3100.4157	3174.8242	3186.4135	3215.5355	3492.4397
O=C1OCC2(CN2)C=C1	O=C1OC[C@]2(CN2)C=C1	
InChI=1S/C6H7NO2/c8-5-1-2-6(3-7-6)4-9-5/h1-2,7H,3-4H2	InChI=1S/C6H7NO2/c8-5-1-2-6(3-7-6)4-9-5/h1-2,7H,3-4H2/t6-/m1/s1
