18
gdb 63277	2.1259	1.67283	1.2757	4.3438	72.9	-0.2449	0.0124	0.2573	1074.1107	0.145247	-439.088941	-439.079768	-439.078824	-439.122623	34.037	
C	-0.0406011917	 1.5361899404	-0.0599627225	-0.42853
C	-0.015252229	 0.0117115499	 0.0241136262	 0.24307
C	-1.3900511857	-0.6130517892	-0.1950903098	-0.414756
N	 1.0618961582	-0.6080002676	-0.7868044283	-0.402938
C	 1.7725998592	-1.1646329626	 0.2524336982	 0.412807
O	 2.7800075814	-1.8152456653	 0.3146644113	-0.369457
C	 0.7532425093	-0.579007262	 1.2398678285	 0.221549
C	 0.9321426764	-0.0985103843	 2.6079154194	-0.262731
O	 0.1608660341	-1.2726180703	 2.3103284102	-0.259403
H	 0.9502863601	 1.9566105478	 0.1330982872	 0.124345
H	-0.3658814167	 1.8660872396	-1.0528744152	 0.120386
H	-0.7432873393	 1.9511384348	 0.6697352445	 0.126567
H	-1.7935625454	-0.3326577659	-1.173974965	 0.114909
H	-1.3356619816	-1.7027557246	-0.139741389	 0.134081
H	-2.0900834366	-0.267772324	 0.5717203575	 0.129413
H	 1.2694781564	-0.5485753615	-1.7725086918	 0.248658
H	 1.8774174943	-0.2803680582	 3.115518792	 0.139594
H	 0.3588047166	 0.7590006229	 2.9564338567	 0.122436
65.156	157.7218	191.1233	210.7292	229.9209	246.5203	301.8913	335.4477	339.958	403.7522	514.9148	570.4935	614.5563	659.3205	733.4055	812.3813	859.4738	921.5332	943.7283	967.7286	983.0982	1021.1006	1087.6572	1121.9623	1142.2972	1166.5066	1212.5514	1228.7874	1275.5227	1360.2629	1402.0368	1417.2574	1444.6869	1476.6385	1484.0529	1500.1832	1503.1671	1533.9195	1897.5242	3032.2423	3040.08	3089.3567	3098.3535	3108.4456	3116.6313	3128.7505	3183.05	3620.0669
CC1(C)NC(=O)C11CO1	CC1(C)NC(=O)[C@]21CO2	
InChI=1S/C6H9NO2/c1-5(2)6(3-9-6)4(8)7-5/h3H2,1-2H3,(H,7,8)	InChI=1S/C6H9NO2/c1-5(2)6(3-9-6)4(8)7-5/h3H2,1-2H3,(H,7,8)/t6-/m0/s1
