17
gdb 8118	4.1024	1.70132	1.41561	1.789	67.91	-0.2473	-0.0247	0.2226	906.6333	0.142511	-363.878552	-363.871268	-363.870324	-363.909955	28.193	
C	-0.0897922805	 1.5127218722	 0.0452111098	-0.464122
C	-0.012295814	 0.0073840133	 0.0427876802	 0.331324
C	-1.1817729803	-0.7962382777	-0.499418925	-0.392046
C	-1.0692694405	-2.185458604	 0.148179152	 0.372886
O	-1.6746144489	-3.1668889183	-0.1916255741	-0.297618
C	-0.0635923468	-2.1123096308	 1.3100756939	-0.345154
C	 0.6555112865	-0.7962257815	 1.1181026286	-0.060206
N	 1.3245991829	-0.5728073615	-0.1735845437	-0.367869
H	 0.8104314756	 1.9390932096	 0.4945471375	 0.131497
H	-0.1716313575	 1.9024101287	-0.975764426	 0.122881
H	-0.962555033	 1.8611731915	 0.6085251432	 0.114772
H	-2.1431022748	-0.354518789	-0.2035258021	 0.131847
H	-1.1990013623	-0.8825089051	-1.5912796014	 0.132219
H	-0.6224634955	-2.1352985499	 2.2551897577	 0.134533
H	 0.5892368042	-2.991516971	 1.3069678232	 0.135025
H	 1.1366213359	-0.3235808308	 1.9694049621	 0.094084
H	 1.2894146692	-1.4067006358	-0.758372696	 0.225948
84.0832	201.2248	225.1777	294.7778	375.4537	414.3564	476.4438	482.8633	555.7712	642.2879	714.122	786.4439	811.9106	831.992	893.3052	955.3569	972.5955	1022.9174	1059.7855	1084.1983	1104.1025	1141.2814	1153.756	1191.0858	1219.0975	1260.7016	1280.144	1320.0899	1335.4051	1409.4944	1432.7024	1449.3527	1460.4105	1487.0747	1496.9718	1850.0263	3026.2403	3030.9874	3032.9754	3076.2859	3079.7426	3091.3585	3122.2718	3151.8558	3466.6103
CC12CC(=O)CC1N2	C[C@]12CC(=O)C[C@H]1N2	
InChI=1S/C6H9NO/c1-6-3-4(8)2-5(6)7-6/h5,7H,2-3H2,1H3	InChI=1S/C6H9NO/c1-6-3-4(8)2-5(6)7-6/h5,7H,2-3H2,1H3/t5-,6+/m1/s1
