14
gdb 25734	2.83882	1.63077	1.03627	5.1042	68.37	-0.2162	-0.0292	0.187	1057.2628	0.102722	-470.053396	-470.045831	-470.044887	-470.085482	28.654	
N	-0.0546388503	 1.3401504482	 0.1160704946	-0.564515
C	 0.0119726939	-0.0310504832	 0.0663531768	 0.291996
N	 1.0781514244	-0.7676756535	 0.0742891592	-0.599164
C	-1.2301920494	-0.7601160211	 0.0503617864	 0.189248
C	-1.4047010088	-2.1200890316	 0.049448828	 0.309439
O	-0.4599410375	-3.0439765048	 0.0678507086	-0.395894
N	-2.7505218697	-2.4130882388	 0.0227453218	-0.308045
C	-3.3194510505	-1.2472470035	 0.0088766921	 0.066436
O	-2.4859926192	-0.1874627402	 0.0229556968	-0.202461
H	 0.7739319523	 1.8581070715	-0.1285850816	 0.256245
H	-0.9277071881	 1.7752511744	-0.1365951671	 0.267479
H	 1.9394345778	-0.2271319924	 0.0940803675	 0.210886
H	 0.3857011684	-2.5239838067	 0.0796854611	 0.321413
H	-4.3758981933	-1.0297096982	-0.0122367041	 0.156938
108.4649	169.8217	176.789	326.597	337.6428	399.6555	426.504	466.7903	553.1078	618.9372	660.2979	670.9427	750.084	759.2541	772.1621	811.4429	843.7596	947.855	1069.9498	1115.1882	1130.7091	1160.2195	1232.3081	1330.4071	1344.2399	1481.7072	1524.5012	1550.6691	1637.6864	1653.1856	1687.7146	3276.2004	3287.7779	3511.7179	3589.6544	3705.6797
NC(=N)C1=C(O)N=CO1	NC(=N)c1c(O)nco1	
InChI=1S/C4H5N3O2/c5-3(6)2-4(8)7-1-9-2/h1,8H,(H3,5,6)	InChI=1S/C4H5N3O2/c5-3(6)2-4(8)7-1-9-2/h1,8H,(H3,5,6)
