18
gdb 34595	3.5101	1.3031	1.12014	4.7403	83.48	-0.2545	-0.0416	0.2129	1110.5977	0.150871	-364.833418	-364.826287	-364.825342	-364.864906	28.692	
N	 0.0485450182	-1.1480373188	 0.0259665494	-0.343566
C	-0.0129259705	 0.0092530424	 0.0187355149	 0.185604
C	-0.041324301	 1.4331594823	 0.0084191808	 0.201344
C	-1.1884296843	 2.1304824949	 0.0369287361	-0.136626
C	-1.1293907604	 3.6360061028	 0.0233841851	-0.256745
C	 0.3300355934	 4.1215064504	-0.0236442082	-0.022686
C	 1.1202660621	 3.3326439449	-1.1097363135	-0.219835
C	 1.2679329767	 2.2120203395	-0.0364597979	-0.111449
C	 1.1835199981	 3.3493787076	 1.0259973698	-0.219834
H	-2.1524778032	 1.6336263416	 0.0693737041	 0.116006
H	-1.6930164141	 4.0195058896	-0.8389363544	 0.120091
H	-1.6411747418	 4.033220701	 0.9114384921	 0.120091
H	 0.3847608073	 5.2119563397	-0.033809454	 0.069274
H	 0.613254471	 3.0770562122	-2.0435134449	 0.10187
H	 2.0806083417	 3.8065124367	-1.3263429779	 0.105034
H	 2.1409267963	 1.560904392	-0.0572133226	 0.084526
H	 2.1547777903	 3.8261348445	 1.1779478135	 0.105033
H	 0.7327745502	 3.1086770967	 1.9920288976	 0.101869
114.6896	160.2312	292.3216	344.7745	406.9809	420.2882	440.8364	558.6181	617.608	657.7033	734.3997	818.6839	830.5333	839.8703	879.4035	908.3941	940.3759	945.0788	980.3244	1034.9796	1068.8137	1089.579	1089.5964	1131.6611	1135.2775	1167.9373	1206.2247	1247.8312	1263.8225	1285.9813	1292.9511	1341.6623	1360.1662	1372.1104	1465.1122	1475.6164	1505.3839	1679.5897	2332.1432	3006.5614	3030.8418	3057.2805	3061.34	3086.2371	3116.799	3117.4804	3122.4492	3188.1141
N#CC1=CCC2CC1C2	N#CC1=CC[C@@H]2C[C@H]1C2	
InChI=1S/C8H9N/c9-5-7-2-1-6-3-8(7)4-6/h2,6,8H,1,3-4H2	InChI=1S/C8H9N/c9-5-7-2-1-6-3-8(7)4-6/h2,6,8H,1,3-4H2/t6-,8+
