17
gdb 130028	3.07286	1.50135	1.07102	3.8916	73.79	-0.2186	0.0312	0.2498	1101.5086	0.138775	-414.19933	-414.191422	-414.190478	-414.232361	29.798	
N	 0.1502682617	 1.2314230288	-0.4259071599	-0.599007
C	 0.0356868089	-0.111295493	-0.1384710114	 0.415006
N	-1.0910647602	-0.7983333151	-0.067766454	-0.343593
C	-0.6518285194	-2.0289482782	 0.3273251484	 0.032424
N	 0.6465462802	-2.1535055383	 0.5004603094	-0.261153
N	 1.0969726298	-0.8894357563	 0.1876720434	-0.016674
C	 2.467785835	-0.5057595484	 0.2966844212	 0.024256
C	 3.5110908641	-1.4849890554	-0.1440450586	-0.261297
C	 3.259041061	-0.2528233576	-0.973045434	-0.283327
H	 0.9999078688	 1.4945416119	-0.9052951795	 0.25977
H	-0.6803913505	 1.5958872623	-0.8702795737	 0.267979
H	-1.3219402396	-2.8615106125	 0.485273211	 0.119589
H	 2.6863204481	 0.1199544533	 1.1576780765	 0.117285
H	 4.4201650209	-1.5406372449	 0.4424923637	 0.126832
H	 3.148272538	-2.4333050067	-0.5188460439	 0.150852
H	 2.7407381025	-0.3845785954	-1.9164162442	 0.127879
H	 3.9917950207	 0.5462606954	-0.9604548844	 0.123177
47.7016	119.7194	176.694	286.5129	307.9259	335.7372	393.1819	517.3488	609.7752	649.6183	668.4108	748.9774	765.9388	793.4511	832.8995	905.0497	911.0276	954.6652	985.1112	1058.8874	1075.5048	1079.6383	1096.9276	1127.1652	1170.0549	1198.5298	1222.1882	1231.3348	1294.1856	1332.3291	1410.0998	1456.7668	1464.6269	1499.8242	1564.4245	1580.4663	1651.3636	3136.8026	3141.1174	3157.3455	3224.6627	3250.9347	3252.0352	3561.1059	3666.9753
NC1=NC=NN1C1CC1	Nc1ncnn1C1CC1	
InChI=1S/C5H8N4/c6-5-7-3-8-9(5)4-1-2-4/h3-4H,1-2H2,(H2,6,7,8)	InChI=1S/C5H8N4/c6-5-7-3-8-9(5)4-1-2-4/h3-4H,1-2H2,(H2,6,7,8)
