22
gdb 81958	2.20251	1.74609	1.34109	2.195	80.46	-0.2202	0.0591	0.2793	1081.3195	0.194915	-404.326579	-404.317702	-404.316758	-404.359419	35.39	
C	 0.1648530823	 1.4880172307	-0.2634103338	-0.444509
C	 0.2187929824	-0.026457182	-0.074440884	 0.020721
C	 1.0342959047	-0.8039161684	-1.1388836181	 0.069136
O	 2.2867376389	-0.1963891435	-1.4525807782	-0.430811
C	 1.2645966916	-2.1439253809	-0.4486841041	-0.032894
C	 2.4351658567	-2.2621389738	 0.449706639	-0.23891
N	 1.1072702682	-1.9844748489	 1.0157097564	-0.108637
C	 0.7714243776	-0.5535049897	 1.2827227336	 0.024675
C	 1.9100432177	 0.2659234768	 1.8960460395	-0.408166
H	 1.1600810527	 1.940028149	-0.2213568409	 0.122607
H	-0.2861465294	 1.7469624513	-1.2288019587	 0.109863
H	-0.4429255589	 1.9619884274	 0.5138834861	 0.122925
H	-0.8038068167	-0.418090417	-0.1561238328	 0.080439
H	 0.4498294701	-0.9389720743	-2.0596878019	 0.063429
H	 2.1064211693	 0.6388255417	-1.8957054731	 0.284498
H	 0.8115967433	-3.0262474758	-0.8918672627	 0.084317
H	 2.824855018	-3.2467108646	 0.6956090774	 0.107701
H	 3.1810064941	-1.4780596054	 0.4010336272	 0.132287
H	-0.0449239615	-0.5740701445	 2.0135689167	 0.077714
H	 2.7068006529	 0.4760618619	 1.1788141322	 0.131472
H	 1.5292259138	 1.2247832946	 2.2616920489	 0.110367
H	 2.3395287024	-0.2678031148	 2.7493133714	 0.121775
87.4138	217.6271	221.9382	242.7999	260.1039	273.6095	323.2868	343.5736	402.1089	461.8385	494.011	550.651	671.5854	707.7174	739.2049	777.3291	835.0946	872.2879	902.6691	968.6159	979.2103	1001.8699	1020.5006	1055.9474	1094.1508	1100.5885	1117.5238	1133.0853	1150.8024	1167.9068	1197.1681	1216.4837	1267.1172	1286.0297	1329.3012	1335.1132	1365.2103	1385.2658	1391.225	1403.2994	1407.6527	1427.6625	1488.7918	1495.866	1504.3446	1510.7706	1525.009	2997.2758	3015.2754	3028.5382	3033.9315	3042.8934	3090.739	3105.9914	3108.822	3116.7003	3127.9497	3142.3733	3219.1617	3816.9031
CC1C(O)C2CN2C1C	C[C@H]1[C@@H](O)[C@H]2CN2[C@H]1C	
InChI=1S/C7H13NO/c1-4-5(2)8-3-6(8)7(4)9/h4-7,9H,3H2,1-2H3	InChI=1S/C7H13NO/c1-4-5(2)8-3-6(8)7(4)9/h4-7,9H,3H2,1-2H3/t4-,5+,6-,7-,8?/m1/s1
