18
gdb 128341	2.82055	1.26188	0.88388	1.4142	76.46	-0.1851	0.0225	0.2077	1311.5433	0.149246	-431.437887	-431.428238	-431.427294	-431.473163	33.428	
C	 0.0297843467	 1.4640252539	 0.0655437462	-0.315215
N	 0.0708087123	 0.0124025805	-0.0582267952	-0.398545
C	 0.6318341873	-0.6964659711	 0.9965726942	 0.304208
N	 1.2559173925	-0.14899141	 2.0336157607	-0.292514
N	 1.6584920887	-1.2098120627	 2.740774192	-0.115622
N	 1.3421635286	-2.4096358999	 2.242970107	-0.29247
C	 0.6863242497	-2.1103545153	 1.1271740035	 0.304059
N	 0.1109211522	-3.0396075616	 0.2696425769	-0.398574
C	 0.3829778736	-4.4462942136	 0.5370169483	-0.315206
H	 1.0507591779	 1.8472918119	 0.137760203	 0.144866
H	-0.4370200187	 1.8815116114	-0.829795301	 0.116056
H	-0.5177400269	 1.8111556055	 0.953779041	 0.11989
H	-0.8198067602	-0.3839636183	-0.3328062178	 0.237782
H	 2.1647528734	-1.1106758171	 3.6018043043	 0.282711
H	 0.2636897293	-2.7871329372	-0.6991959549	 0.237765
H	 1.4547380972	-4.6923296705	 0.531821696	 0.119928
H	-0.0096584908	-4.7068740008	 1.5231355501	 0.144832
H	-0.1284244729	-5.0535513251	-0.2136783243	 0.11605
47.1315	95.2613	139.1618	141.6662	179.8631	191.3473	239.0518	299.6494	339.3884	401.5259	567.7836	585.7983	654.9313	673.1591	738.3258	772.4171	837.6905	971.9624	1056.5715	1090.3538	1134.7487	1151.1798	1161.1144	1163.6933	1185.4743	1227.9498	1273.8963	1382.7193	1450.0088	1451.6773	1454.0097	1480.0826	1482.7866	1489.2151	1499.7182	1515.4252	1523.5938	1606.917	1618.3224	2999.821	3000.6198	3087.2109	3087.2766	3128.4652	3128.5881	3545.9176	3550.1337	3707.6656
CNC1=NNN=C1NC	CNc1n[nH]nc1NC	
InChI=1S/C4H9N5/c1-5-3-4(6-2)8-9-7-3/h1-2H3,(H3,5,6,7,8,9)	InChI=1S/C4H9N5/c1-5-3-4(6-2)8-9-7-3/h1-2H3,(H3,5,6,7,8,9)
