18
gdb 81292	2.2996	1.7237	1.56986	4.0763	70.89	-0.2319	0.0148	0.2468	970.3665	0.149785	-439.106332	-439.098666	-439.097722	-439.138296	29.934	
C	-0.1928484209	 1.6172153143	 0.0670677171	-0.438201
C	 0.0322843811	 0.1162423167	-0.0005439015	 0.011929
C	 0.8182631825	-0.5746903149	-1.1453076653	 0.065102
C	 2.0723421379	 0.1928669652	-1.5607020468	-0.171308
N	 2.8042470145	 0.5591465799	-0.3529571347	-0.31256
C	 2.4017205967	 0.1822201283	 0.9003854174	 0.417473
O	 2.9938834681	 0.4669676172	 1.9209679536	-0.378329
C	 1.1005855671	-0.6222818796	 0.8479211836	-0.053631
O	 1.2291778852	-1.6122447862	-0.2139574841	-0.291852
H	 0.7356409638	 2.1838830602	-0.0391720365	 0.134085
H	-0.8804269609	 1.9375096893	-0.7231261817	 0.120686
H	-0.64428081	 1.8939943514	 1.0252376964	 0.132079
H	-0.9129317604	-0.4201645601	 0.1213523922	 0.097518
H	 0.2786766947	-0.9659677951	-2.0116739677	 0.085006
H	 2.6871592138	-0.4471351007	-2.2065086709	 0.122267
H	 1.795855507	 1.0868016509	-2.136568683	 0.111201
H	 3.6898991385	 1.0378525155	-0.4197605005	 0.249969
H	 0.8604580714	-1.0476628023	 1.8222606023	 0.098567
105.9452	195.4877	208.6573	231.7359	315.8926	421.2941	436.8269	486.0311	538.2608	550.4097	645.2094	753.7387	759.3035	821.7479	879.679	895.4476	912.4049	967.9771	1006.5007	1047.8271	1057.2189	1090.3979	1118.8074	1169.7736	1184.2592	1224.1943	1241.12	1295.4629	1314.6115	1326.443	1340.0928	1377.051	1399.2125	1416.9193	1473.2545	1495.6401	1501.7844	1517.9547	1814.0132	3007.6995	3038.7125	3043.1664	3068.0981	3084.0764	3100.409	3121.5153	3126.8279	3618.9805
CC1C2CNC(=O)C1O2	C[C@H]1[C@H]2CNC(=O)[C@@H]1O2	
InChI=1S/C6H9NO2/c1-3-4-2-7-6(8)5(3)9-4/h3-5H,2H2,1H3,(H,7,8)	InChI=1S/C6H9NO2/c1-3-4-2-7-6(8)5(3)9-4/h3-5H,2H2,1H3,(H,7,8)/t3-,4+,5+/m0/s1
