12
gdb 123314	6.10615	0.96049	0.82994	5.392	84.32	-0.2432	-0.0496	0.1936	1272.0655	0.076931	-394.479119	-394.471448	-394.470504	-394.51136	28.474	
C	 0.1102493955	-1.159772152	-0.0043379234	-0.357419
C	 0.0190046821	 0.0395661988	 0.0031401373	 0.21522
C	-0.0683894018	 1.4472234851	 0.0116479732	 0.219288
N	-1.1724487648	 2.1803687542	 0.0306611615	-0.253981
N	-0.8055668583	 3.4896338673	 0.0324047658	-0.25399
C	 0.5187122034	 3.5424865623	 0.0144709648	 0.219287
N	 1.0238224245	 2.2710938087	 0.0009478527	-0.348547
C	 1.3247801985	 4.6998302771	 0.0094066199	 0.215175
C	 2.0258259904	 5.6772384816	 0.0048508056	-0.357392
H	 0.1766537195	-2.2201510907	-0.0107556738	 0.206155
H	 1.9934976137	 1.9994114148	-0.0137757189	 0.290047
H	 2.6335113573	 6.5487631828	 0.0010269653	 0.206155
113.4929	113.7279	192.5885	207.4197	415.1992	472.0946	497.4195	534.084	578.2532	580.2296	605.6806	607.386	678.9897	692.2371	692.4405	734.4294	745.7702	1046.9192	1047.1514	1123.2458	1184.263	1362.5253	1389.0567	1459.9061	1547.9797	2243.4704	2243.9512	3498.5425	3499.1916	3661.3572
C#CC1=NN=C(N1)C#C	C#Cc1nnc([nH]1)C#C	
InChI=1S/C6H3N3/c1-3-5-7-6(4-2)9-8-5/h1-2H,(H,7,8,9)	InChI=1S/C6H3N3/c1-3-5-7-6(4-2)9-8-5/h1-2H,(H,7,8,9)
