16
gdb 74061	2.76513	1.26647	0.93293	6.6186	78.03	-0.2583	-0.0622	0.1961	1231.065	0.124108	-400.809131	-400.800677	-400.799733	-400.842907	30.497	
C	 0.052100099	 1.5001969013	 0.0467902853	-0.486994
C	 0.0037812712	 0.0118134882	-0.0408953796	 0.322585
C	-0.0079006011	-0.7371299776	-1.1551740578	-0.282184
C	-0.0635624159	-2.1723923976	-0.8492840481	 0.397154
O	-0.1193073137	-3.1060332251	-1.6058878563	-0.313711
C	 0.0001412627	-2.290375384	 0.7158126601	-0.269053
C	-0.052377462	-0.8273653965	 1.2177931993	-0.32571
C	-1.0472549935	-3.145789026	 1.2525548836	 0.283723
N	-1.8910973187	-3.8045109042	 1.6882046631	-0.321991
H	 0.935349404	 1.8244848906	 0.6109374702	 0.145143
H	 0.0783961822	 1.9675275494	-0.9396351142	 0.142578
H	-0.8200160882	 1.8822192754	 0.5916029337	 0.148487
H	 0.009812572	-0.3725917246	-2.1743310825	 0.123222
H	 0.9678069715	-2.7487350785	 0.9487911585	 0.155284
H	 0.7781291709	-0.5916427924	 1.8923158143	 0.132433
H	-0.9722116105	-0.6217122685	 1.7765394804	 0.149033
48.3755	135.8441	142.4893	175.2554	243.7287	293.7717	419.5344	443.2302	484.8844	532.5523	573.416	629.768	689.5729	814.0484	866.7848	879.6842	930.1819	992.3101	1020.6702	1067.7479	1071.5181	1145.0417	1178.425	1181.4055	1212.2601	1286.8103	1325.4166	1345.3445	1411.1867	1474.7074	1476.0099	1478.167	1681.3985	1830.87	2360.3319	3026.2868	3044.6103	3055.8507	3075.4785	3080.3864	3130.3675	3221.2374
CC1=CC(=O)C(C1)C#N	CC1=CC(=O)[C@@H](C1)C#N	
InChI=1S/C7H7NO/c1-5-2-6(4-8)7(9)3-5/h3,6H,2H2,1H3	InChI=1S/C7H7NO/c1-5-2-6(4-8)7(9)3-5/h3,6H,2H2,1H3/t6-/m0/s1
