23
gdb 89793	2.933	1.34496	1.10443	0.2347	89.38	-0.2415	0.0873	0.3288	1217.6636	0.207374	-351.150168	-351.141798	-351.140854	-351.182639	34.331	
C	-0.0012769607	 1.5817052897	 0.0005582806	-0.399476
C	 0.0559506604	 0.0532728253	 0.0174064346	 0.033883
C	 0.7805002087	-0.5647690837	-1.2065491889	-0.32967
C	 1.2912399666	-1.9224427858	-0.723596867	 0.406052
C	 0.7030335077	-3.2055342564	-1.258667953	-0.318997
C	 2.1247200942	-2.8174051134	-1.5997499893	-0.325861
C	 1.5300407025	-1.7797510118	 0.7582082933	-0.109176
C	 2.2873714092	-0.5555487872	 1.2195708728	-0.306403
C	 0.7766275115	-0.5531025959	 1.2211160439	-0.034646
H	 1.0062716245	 2.0122501226	 0.0091417216	 0.112865
H	-0.5157070237	 1.9505695708	-0.893683966	 0.108637
H	-0.5355701702	 1.9693689019	 0.8745420694	 0.109309
H	-0.9730486204	-0.3317815464	 0.0342040357	 0.071572
H	 0.1263811511	-0.6465699236	-2.0795867167	 0.094071
H	 1.6206908842	 0.0758471088	-1.503507168	 0.097675
H	 0.5507877162	-4.0295302481	-0.5684283706	 0.106488
H	-0.04663911	-3.1390552919	-2.0409158993	 0.105683
H	 2.3347488472	-2.4918937975	-2.6138904704	 0.105162
H	 2.9311535506	-3.379292872	-1.1396878188	 0.108201
H	 1.5804340931	-2.6801290137	 1.3617872549	 0.075152
H	 2.7786854022	-0.6151016956	 2.1848043388	 0.105504
H	 2.8278328755	 0.0392953762	 0.490241225	 0.108642
H	 0.2694658997	-0.5348931622	 2.1802336876	 0.075331
101.2986	171.7725	221.9065	234.4304	282.1702	327.3453	386.0533	416.2647	497.8327	538.5189	591.8989	735.0427	777.556	786.8187	827.5131	854.4881	877.7818	907.9077	931.0695	945.55	951.7434	986.5911	989.2159	1020.3855	1052.4231	1057.9789	1066.2962	1075.2559	1077.1086	1105.8093	1134.1667	1157.5383	1187.3699	1195.7384	1203.5827	1277.2196	1286.1703	1309.8402	1331.1868	1357.8664	1382.0225	1409.5594	1414.238	1464.4362	1484.9408	1495.5424	1497.8947	1503.7263	1508.0037	3003.6435	3024.141	3027.624	3079.7383	3092.8005	3095.8414	3118.8135	3123.7251	3128.8474	3153.3138	3162.5877	3196.4677	3210.3774	3211.8473
CC1CC2(CC2)C2CC12	C[C@H]1CC2(CC2)[C@H]2C[C@@H]12	
InChI=1S/C9H14/c1-6-5-9(2-3-9)8-4-7(6)8/h6-8H,2-5H2,1H3	InChI=1S/C9H14/c1-6-5-9(2-3-9)8-4-7(6)8/h6-8H,2-5H2,1H3/t6-,7-,8-/m0/s1
