20
gdb 117510	2.25044	1.06506	0.76077	2.8157	82.45	-0.2453	0.0223	0.2676	1523.4864	0.168402	-403.158411	-403.147749	-403.146805	-403.195143	38.479	
C	-0.0585909581	 1.6623899859	 0.1124746138	-0.387112
C	 0.0098775923	 0.1338837798	 0.1577400501	-0.173855
C	-1.3502113217	-0.517475626	-0.1180250612	-0.16285
C	-1.3155358474	-2.0659242682	-0.0815545059	-0.296256
C	-2.6263038823	-2.6409511742	 0.2108254989	 0.288119
C	-3.7088779606	-3.1134159142	 0.4404229692	-0.43981
C	-0.6974129544	-2.6571246468	-1.3794794726	 0.415903
N	-0.9596453911	-3.976084449	-1.5861525438	-0.52497
O	 0.0147842745	-1.9998524187	-2.1113308724	-0.355923
H	 0.9180371552	 2.1087524091	 0.3238211144	 0.111676
H	-0.3769221808	 2.0131421307	-0.8753327635	 0.118756
H	-0.7703327248	 2.0541654214	 0.8483426709	 0.109142
H	 0.7320445657	-0.2309927127	-0.5767645935	 0.133112
H	 0.3665565198	-0.187359306	 1.1464306887	 0.0851
H	-2.0763598955	-0.1777062777	 0.6284200516	 0.101384
H	-1.7252094798	-0.2000872247	-1.096643278	 0.116336
H	-0.6310894094	-2.3723858828	 0.7244989468	 0.13367
H	-4.6683350952	-3.5161134411	 0.6533749095	 0.199761
H	-1.7109251355	-4.427641708	-1.091084327	 0.266289
H	-0.633491811	-4.3822793467	-2.448277926	 0.261527
26.3934	74.36	99.4214	136.986	168.0803	243.5642	263.5689	280.0235	333.4021	374.169	435.098	478.5092	511.5333	561.2315	596.5755	619.6999	648.4033	715.8243	735.8699	815.7565	904.7174	907.1943	982.0725	1044.9101	1065.7654	1101.0446	1124.4759	1148.1038	1237.3833	1269.8625	1297.8282	1329.7435	1336.8119	1348.1867	1393.6478	1411.4557	1478.7065	1495.3433	1499.7381	1510.1397	1613.3629	1800.4059	2226.1473	2994.281	3012.4245	3027.6549	3043.1676	3082.5285	3087.0427	3102.2822	3113.961	3501.4445	3588.9712	3720.6679
CCCC(C#C)C(N)=O	CCC[C@@H](C#C)C(=O)N	
InChI=1S/C7H11NO/c1-3-5-6(4-2)7(8)9/h2,6H,3,5H2,1H3,(H2,8,9)	InChI=1S/C7H11NO/c1-3-5-6(4-2)7(8)9/h2,6H,3,5H2,1H3,(H2,8,9)/t6-/m1/s1
