16
gdb 124964	3.06445	1.25295	0.96012	4.3239	75.99	-0.2448	0.0002	0.245	1196.9516	0.123946	-396.904202	-396.895471	-396.894527	-396.938386	31.362	
C	 0.4608204537	 1.4442473688	-0.0359891349	-0.515945
C	 0.1591201454	-0.0167217114	-0.0538648874	 0.261058
C	 0.0063498592	-0.9411109263	-1.0683001719	 0.236492
C	 0.0898996829	-0.7826116894	-2.5626808427	-0.457109
C	 1.2741712572	-0.0645151423	-3.0297948177	 0.30574
C	 2.2412386338	 0.5344075148	-3.4183092405	-0.460909
N	-0.2855419575	-2.1549128378	-0.5169933203	-0.251605
N	-0.324699344	-2.0457155319	 0.7783781479	-0.1243
N	-0.0581153548	-0.75700321	 1.0627740597	-0.219965
H	 1.1499978995	 1.70128263	 0.7752050326	 0.134732
H	 0.9256306637	 1.7381239751	-0.9787798584	 0.165956
H	-0.4474094872	 2.0438039536	 0.0967300223	 0.142957
H	 0.0724253132	-1.7900799773	-2.9930073952	 0.163227
H	-0.8073862247	-0.2757403628	-2.9439945613	 0.143048
H	 3.102430276	 1.0474192587	-3.7686127467	 0.19967
H	-0.0271181763	-0.4624563118	 2.0263732244	 0.276952
48.0014	83.8648	115.8163	237.0738	244.0003	298.2152	330.8122	393.5586	456.1617	581.7224	618.2482	639.2563	666.6625	694.2274	728.078	776.7495	935.9197	963.0472	997.0972	1027.908	1063.7057	1090.8522	1179.3371	1231.2378	1258.4536	1291.3658	1359.8236	1374.5515	1423.3862	1462.2377	1471.5909	1492.4098	1512.0751	1627.26	2238.2918	3012.4662	3032.7928	3069.9265	3087.6	3137.7253	3504.393	3648.3148
CC1=C(CC#C)N=NN1	Cc1c(CC#C)nn[nH]1	
InChI=1S/C6H7N3/c1-3-4-6-5(2)7-9-8-6/h1H,4H2,2H3,(H,7,8,9)	InChI=1S/C6H7N3/c1-3-4-6-5(2)7-9-8-6/h1H,4H2,2H3,(H,7,8,9)
