14
gdb 19641	5.34514	1.78525	1.65185	3.5291	66.75	-0.2353	-0.0179	0.2174	782.2003	0.10664	-345.301824	-345.295736	-345.294791	-345.332109	23.667	
O	-0.1562652266	 0.0506575558	 0.158761183	-0.279194
C	 0.0232005931	 1.2258406349	-0.0728981962	 0.008498
C	 1.3057957606	 1.9016313745	-0.019424039	 0.318252
C	 2.7549189473	 1.4728901713	 0.3040266926	-0.168675
C	 3.0557917859	 2.868283973	 0.8319020158	-0.082545
C	 3.2880889347	 2.5448190395	-0.6356682297	-0.082535
C	 1.8382644348	 3.0160915008	-0.9569923729	-0.14674
C	 1.6098287606	 3.3351874307	 0.487621125	-0.146709
H	-0.8212009408	 1.8997056635	-0.3546629968	 0.058615
H	 3.1755344722	 0.5172623905	 0.5811958497	 0.108388
H	 3.7545429686	 3.185325572	 1.5927599022	 0.100824
H	 4.1991895389	 2.5662313405	-1.2162795956	 0.100818
H	 1.3613242362	 3.4023957762	-1.8477993496	 0.105501
H	 0.9178538145	 4.0218694668	 0.9565286716	 0.105501
113.3371	163.4362	284.545	450.4212	647.6495	667.951	734.4092	766.8672	768.4128	804.8974	842.4368	854.9808	875.1734	928.1877	941.0785	954.478	988.2782	1008.9519	1016.6066	1042.4708	1054.2493	1120.1161	1171.2397	1198.3664	1262.0189	1285.8735	1329.9939	1383.7842	1441.8259	1788.6575	2841.9359	3198.8875	3210.9523	3215.3749	3219.6056	3231.9569
O=CC12C3C4C3C1C24	O=C[C@@]12[C@@H]3[C@H]4[C@@H]3[C@@H]1[C@@H]24	
InChI=1S/C7H6O/c8-1-7-4-2-3(4)6(7)5(2)7/h1-6H	InChI=1S/C7H6O/c8-1-7-4-2-3(4)6(7)5(2)7/h1-6H/t2-,3+,4-,5+,6-,7+
