23
gdb 83086	2.27561	1.61585	1.39683	0.2067	89.77	-0.2281	0.023	0.2511	1111.922	0.207594	-351.160786	-351.152378	-351.151434	-351.192927	34.405	
C	-0.1760945916	 1.621931943	 0.0597136147	-0.430965
C	 0.0452843222	 0.1184950525	 0.0116028298	 0.051113
C	 0.7886067153	-0.5713588213	-1.1775306586	-0.0433
C	 2.060803512	 0.2086996026	-1.5629908198	-0.267398
C	 2.8670767273	 0.5402058244	-0.3254196339	-0.061079
C	 2.4068286796	 0.1660600968	 0.8698509543	-0.064676
C	 1.1018775188	-0.5982233444	 0.9244508395	-0.083904
C	 1.167436774	-1.7115542478	-0.1796269823	 0.05261
C	 0.1681238503	-2.8568929856	-0.0597425798	-0.430645
H	 0.7578784512	 2.1828121053	-0.0236380992	 0.121549
H	-0.8377882504	 1.9398283977	-0.7546255383	 0.108316
H	-0.6550722029	 1.9130154279	 1.0018233872	 0.108696
H	-0.9197204193	-0.3779377892	 0.1471140688	 0.070392
H	 0.1994284139	-0.8378493268	-2.060795619	 0.049302
H	 2.6648064913	-0.3862092527	-2.2629686561	 0.102042
H	 1.8027479017	 1.1300759374	-2.1049526943	 0.101925
H	 3.7988948172	 1.0868906779	-0.4404140209	 0.083221
H	 2.940582387	 0.3910927379	 1.7882759207	 0.08235
H	 0.8079619302	-0.8814723543	 1.9379063891	 0.048345
H	 2.1715640271	-2.1237686406	-0.3226710715	 0.061656
H	-0.8599147129	-2.5122044717	 0.0877294304	 0.115546
H	 0.1800388395	-3.4733820101	-0.9660148987	 0.11242
H	 0.4214459886	-3.507226749	 0.7850174579	 0.112483
196.293	201.5241	213.5116	236.3551	245.1918	251.6583	340.4081	419.139	477.0914	542.2739	554.4867	642.5124	709.936	787.3851	807.1877	829.3246	855.9557	903.8935	951.1977	963.6317	966.4533	978.9864	1026.7685	1048.661	1067.202	1085.2677	1092.2627	1119.528	1124.5453	1159.6339	1171.7488	1207.042	1226.7648	1258.6229	1282.9469	1307.2026	1319.4062	1352.8354	1380.578	1387.1978	1403.3091	1408.2864	1417.814	1475.578	1491.2344	1497.4016	1498.658	1506.2987	1696.3952	2998.8879	3021.4572	3026.6181	3027.3364	3044.2212	3049.8675	3062.0894	3076.9524	3082.6238	3086.6038	3103.1698	3120.092	3155.3901	3180.1303
CC1C2CC=CC1C2C	C[C@H]1[C@H]2CC=C[C@@H]1[C@H]2C	
InChI=1S/C9H14/c1-6-8-4-3-5-9(6)7(8)2/h3-4,6-9H,5H2,1-2H3	InChI=1S/C9H14/c1-6-8-4-3-5-9(6)7(8)2/h3-4,6-9H,5H2,1-2H3/t6-,7-,8-,9+/m1/s1
