18
gdb 70978	3.67058	1.27211	1.10064	1.2805	76.95	-0.2405	-0.0376	0.2029	1128.9713	0.146781	-401.894046	-401.885983	-401.885039	-401.926815	30.706	
C	-0.1365505313	 1.4823249933	-0.0303358344	-0.495486
C	 0.0117824584	-0.0051974396	-0.0634111661	 0.347473
C	 0.9470270563	-0.8441357559	-0.9398190658	-0.332028
C	 0.1543853953	-2.0708400924	-0.432959319	 0.207167
C	 0.4620331621	-2.0536364896	 1.0833912628	-0.194292
N	-0.2730189494	-0.7595226351	 1.2219891978	-0.180572
C	-1.0189951133	-1.0701842696	-0.0312076867	-0.153055
C	 0.0329643298	-3.3312862564	-1.213586169	 0.032422
O	 0.5757002116	-3.5378264567	-2.271477896	-0.24452
H	 0.7732804839	 1.9541062071	 0.3568875124	 0.12858
H	-0.3228348146	 1.8783864748	-1.0340235155	 0.122798
H	-0.9671158047	 1.7707091112	 0.6192598229	 0.136092
H	 0.7625504611	-0.6579139851	-2.0001110318	 0.122725
H	 2.0236156069	-0.825262096	-0.7405920042	 0.10133
H	-0.0755696228	-2.8214969894	 1.6466703331	 0.114387
H	 1.5170855566	-2.0383999483	 1.3798771007	 0.10783
H	-2.0974299969	-1.0898039865	-0.1247796332	 0.104842
H	-0.6180640689	-4.1046962659	-0.743766738	 0.074307
63.2621	161.3886	197.7439	202.1984	308.2413	319.86	433.3019	450.1504	465.1876	595.082	681.0325	747.2262	764.6908	833.6803	843.5373	904.1499	962.1257	968.0336	1000.4353	1013.5282	1021.3292	1049.7888	1083.5603	1125.6296	1146.9858	1162.5486	1169.285	1202.4029	1262.2932	1282.8428	1339.476	1394.4541	1426.2531	1435.3978	1484.806	1491.4436	1495.0977	1513.121	1812.8634	2862.9918	3033.9788	3034.8816	3050.7096	3097.0469	3100.1065	3118.8741	3120.2685	3196.2613
CC12CC3(CN1C23)C=O	C[C@@]12C[C@]3(CN1[C@@H]23)C=O	
InChI=1S/C7H9NO/c1-6-2-7(4-9)3-8(6)5(6)7/h4-5H,2-3H2,1H3	InChI=1S/C7H9NO/c1-6-2-7(4-9)3-8(6)5(6)7/h4-5H,2-3H2,1H3/t5-,6-,7-,8?/m0/s1
