21
gdb 94368	2.87301	1.41437	1.2239	1.4964	81.77	-0.2337	0.0785	0.3121	1127.6981	0.182622	-387.046924	-387.038577	-387.037632	-387.080028	32.647	
C	-0.3943190739	 1.3971401647	-0.0040773863	-0.410847
C	 0.0270459179	-0.0633859029	-0.0837897747	-0.105844
C	 1.3756757482	-0.3638225421	-0.7690906043	-0.092111
O	 1.9092637845	-0.9530177805	 0.4337131542	-0.325626
C	 0.6859673674	-0.7124332897	 1.1619223879	 0.458914
C	 0.9040262623	-0.0298335489	 2.5499741826	-0.31165
C	 0.3312829078	-1.2797464025	 3.2315573772	-0.041958
C	-1.0568065226	-1.5390440566	 2.726085588	-0.286006
C	 0.1170992404	-1.9408373958	 1.8693596406	-0.114396
H	 0.4120672456	 2.0216336017	 0.3952169618	 0.12179
H	-0.6536342372	 1.7817255374	-0.9966951791	 0.115993
H	-1.2699779007	 1.5282307203	 0.6403169881	 0.118753
H	-0.7948090796	-0.6742952526	-0.469068331	 0.077674
H	 1.3524811367	-1.0784631326	-1.6008438435	 0.097862
H	 1.9473371	 0.521575793	-1.0779795335	 0.094818
H	 1.9769990904	 0.0976197655	 2.7094772653	 0.118708
H	 0.3916342995	 0.9176256985	 2.7489338462	 0.09029
H	 0.7012571316	-1.7213248053	 4.1483101853	 0.086697
H	-1.5859044838	-2.3637884391	 3.1929785705	 0.112786
H	-1.7010757521	-0.7124061335	 2.4329575818	 0.104579
H	 0.2901625875	-2.9630189889	 1.5550345729	 0.089575
57.1718	123.6018	183.9807	240.4198	272.735	344.8843	393.3303	440.246	471.4764	518.7481	735.2997	764.7805	789.2299	833.6128	883.024	902.1304	915.8298	937.1177	940.8316	966.7127	994.301	1024.6073	1036.4522	1061.7827	1082.1207	1089.9136	1127.0365	1134.5354	1154.3781	1159.4539	1174.7884	1196.124	1233.7311	1250.765	1269.192	1312.0041	1340.32	1356.2442	1382.7239	1410.7735	1471.4364	1492.3904	1495.2491	1499.1113	1529.9651	3005.9139	3027.7824	3043.1274	3044.7954	3062.847	3094.2168	3100.6865	3103.236	3114.8139	3182.487	3187.0387	3200.227
CC1COC11CC2CC12	C[C@H]1CO[C@]21C[C@H]1C[C@@H]21	
InChI=1S/C8H12O/c1-5-4-9-8(5)3-6-2-7(6)8/h5-7H,2-4H2,1H3	InChI=1S/C8H12O/c1-5-4-9-8(5)3-6-2-7(6)8/h5-7H,2-4H2,1H3/t5-,6+,7+,8-/m0/s1
