17
gdb 93476	2.4656	1.53703	1.09313	1.269	71.77	-0.2603	-0.0198	0.2405	1101.409	0.138228	-455.202776	-455.194705	-455.19376	-455.23576	30.726	
O	 0.0788273073	 1.311974214	 0.2012928212	-0.436751
C	-0.012234328	-0.0998652232	 0.0324708819	 0.082885
C	-1.4909581416	-0.4554058245	-0.0516124644	-0.246169
C	-2.1053702799	 0.1304127714	-1.3266688989	-0.311397
C	-1.3581512782	-0.2841738765	-2.577347168	 0.399938
O	-1.8553514042	-0.3754287039	-3.6768125398	-0.346795
N	 0.000096495	-0.5497277027	-2.4010130192	-0.37146
C	 0.7461517687	-0.4963490956	-1.2281473514	 0.368262
N	 2.0008934242	-0.7006660041	-1.1375472099	-0.521239
H	 1.0167566792	 1.5355596793	 0.1925720272	 0.296289
H	 0.470208286	-0.6226031328	 0.8666470251	 0.098646
H	-1.5967873218	-1.5459893906	-0.0398097058	 0.115309
H	-2.0000577892	-0.06485964	 0.8335167906	 0.122385
H	-3.150269645	-0.1543760961	-1.4612640181	 0.133468
H	-2.0660205997	 1.2247034923	-1.276223654	 0.156586
H	 0.4800243554	-0.7931112958	-3.259461753	 0.249863
H	 2.4284695517	-0.8933539513	-2.0465293836	 0.21018
59.5933	122.0852	198.4724	257.3229	357.2334	374.6819	406.2168	446.4137	531.8338	539.8896	576.1003	667.2359	696.5248	723.1243	792.5088	889.9752	895.2156	922.3461	967.6599	980.3673	1067.8455	1097.6366	1142.8424	1174.291	1209.0604	1271.2756	1296.9536	1346.5256	1366.5363	1381.1018	1404.7475	1420.4431	1424.3859	1459.5404	1482.8925	1725.4495	1814.2701	3037.1639	3052.282	3058.3712	3102.1549	3124.2385	3439.4096	3568.6952	3802.158
OC1CCC(=O)NC1=N	O[C@H]1CCC(=O)N[C]1[NH]	
InChI=1S/C5H8N2O2/c6-5-3(8)1-2-4(9)7-5/h3,8H,1-2H2,(H2,6,7,9)	InChI=1S/C5H8N2O2/c6-5-3(8)1-2-4(9)7-5/h3,8H,1-2H2,(H2,6,7,9)/t3-/m0/s1
