16
gdb 127926	5.13344	1.04953	0.8773	3.692	81.87	-0.1924	-0.0686	0.1238	1286.181	0.125603	-430.246793	-430.238194	-430.237249	-430.280608	31.26	
C	-0.0587115591	 1.4021205522	-0.0923786371	-0.324803
N	 0.1278424418	-0.0331568364	-0.0501632378	-0.345148
C	 0.6944173724	-0.5698473132	 0.9552556823	 0.469343
N	 0.8797783779	-1.9566753938	 0.9460974869	-0.280304
N	 1.3778700077	-2.7112583715	 1.9394916483	-0.239451
C	 1.8023059964	-2.0689855415	 2.9848994328	 0.334489
N	 2.4363362514	-2.7588900733	 4.0181213891	-0.570656
C	 1.6972676638	-0.6245890918	 3.0378741446	-0.016473
N	 1.1768635911	 0.0852756776	 2.1007845539	-0.282462
H	 0.4353251238	 1.8085730872	-0.9842250899	 0.113861
H	-1.1273492182	 1.6284937615	-0.199566509	 0.1132
H	 0.3227585064	 1.930984299	 0.7883955352	 0.122971
H	 0.5489799732	-2.4607137371	 0.1375475452	 0.272866
H	 2.3341232969	-3.7615462166	 3.9234531508	 0.258014
H	 2.1721364074	-2.4518349644	 4.9452134264	 0.253931
H	 2.0810207772	-0.1040971879	 3.9181376983	 0.120621
40.1028	95.1714	202.77	216.1462	270.0735	320.8175	354.1774	376.0406	450.2063	484.8951	591.2742	639.2898	645.3057	714.6446	780.7597	797.5505	818.8041	977.8345	993.1558	1060.0334	1104.4221	1135.622	1152.5267	1238.1983	1284.7895	1349.9626	1434.4264	1439.2797	1471.1146	1496.2953	1496.9529	1586.9813	1638.2225	1696.5124	1737.0331	3004.8016	3051.1778	3079.7678	3103.3227	3537.4642	3628.4869	3637.0382
CN=C1NN=C(N)C=N1	C[N]c1[nH]nc(N)cn1	
InChI=1S/C4H7N5/c1-6-4-7-2-3(5)8-9-4/h2H,1H3,(H2,5,8)(H,6,7,9)	InChI=1S/C4H12N5/c1-6-4-7-2-3(5)8-9-4/h3-4,7-9H,2,5H2,1H3
