18
gdb 97147	3.11115	1.27797	1.18613	2.4836	75.17	-0.2458	0.0188	0.2646	1128.3137	0.148005	-439.079401	-439.070972	-439.070028	-439.112615	31.486	
C	 0.1415389655	 1.3816115487	 0.1006428938	-0.332866
N	 0.201365469	-0.0703120638	 0.0807827349	-0.330609
C	 0.5450411487	-0.6695960163	-0.9696274646	 0.439213
O	 0.9535214973	-0.0456571885	-2.1426081241	-0.277118
C	 0.8458105692	-0.9564593997	-3.255163218	-0.121263
C	 0.8208992626	-2.3518011058	-2.6608186448	-0.134226
C	 1.9386477057	-2.6505541135	-1.7105424863	 0.131234
O	 3.1285144503	-1.929529549	-1.6774497236	-0.427453
C	 0.617693791	-2.1387069905	-1.1587144742	-0.208883
H	 1.0018039933	 1.7750110792	 0.6561458895	 0.127917
H	 0.1361649492	 1.8429054402	-0.8937065035	 0.120167
H	-0.7557263541	 1.6907012125	 0.6463829081	 0.123754
H	-0.073262931	-0.7390000092	-3.8111057943	 0.122347
H	 1.7056239261	-0.7756017137	-3.9079595419	 0.127694
H	 0.321657885	-3.140903877	-3.2101177076	 0.1041
H	 2.1408173519	-3.6977074759	-1.5134894206	 0.119279
H	 2.9250243092	-0.986476156	-1.7016625485	 0.300781
H	 0.003929441	-2.7639701819	-0.5254222541	 0.115933
88.5396	103.6003	172.9363	209.5197	243.8791	259.0765	370.5148	456.6795	485.0954	550.7809	671.5012	722.9597	757.0727	771.4575	800.2997	852.6627	960.7788	974.5349	995.3897	1032.0231	1040.7842	1062.1539	1100.7177	1106.108	1126.7019	1152.7208	1187.8564	1195.6106	1235.7054	1319.7757	1331.526	1350.3998	1400.6101	1437.649	1459.4023	1492.5658	1497.8158	1518.3302	1805.6838	3015.11	3037.1867	3073.6744	3084.3006	3091.7609	3176.2267	3185.9319	3216.9704	3784.0318
CN=C1OCC2C(O)C12	CN=C1OC[C@H]2[C@@H](O)[C@@H]12	
InChI=1S/C6H9NO2/c1-7-6-4-3(2-9-6)5(4)8/h3-5,8H,2H2,1H3	InChI=1S/C6H9NO2/c1-7-6-4-3(2-9-6)5(4)8/h3-5,8H,2H2,1H3/t3-,4+,5-/m1/s1
