22
gdb 53948	2.33047	1.34263	1.16652	2.4816	82.27	-0.2301	-0.0083	0.2219	1208.716	0.190553	-404.339393	-404.328836	-404.327892	-404.375318	38.784	
C	-0.3075524058	 1.3918044518	-0.8288098146	-0.473129
C	-0.0667866145	-0.0556168199	-0.4504888684	 0.387228
O	 1.0325039822	-0.5558440019	-0.5252990818	-0.315318
C	-1.2655615941	-0.8821379554	 0.0862072607	 0.148707
C	-1.0557418979	-2.3614685433	-0.2784766658	-0.433965
C	-1.2478843836	-0.7202497202	 1.6218969177	-0.398811
N	-2.5068187263	-0.2475962467	-0.3882263788	-0.084294
C	-3.1592263652	-0.6516653719	-1.6257562531	-0.233932
C	-3.7826002062	-0.9389522995	-0.3015283499	-0.227677
H	 0.6541175656	 1.8826152931	-0.9849465113	 0.130125
H	-0.8963593402	 1.4394958084	-1.7509381365	 0.145469
H	-0.8945829201	 1.9116604682	-0.0677930478	 0.144202
H	-0.0780636864	-2.6790576725	 0.0854697247	 0.146037
H	-1.8200451599	-2.9971082425	 0.1773113419	 0.10909
H	-1.0601438324	-2.5241553846	-1.3595925655	 0.11939
H	-1.3834665088	 0.3265883556	 1.9065350776	 0.124368
H	-2.0648925544	-1.2985629563	 2.0648789346	 0.117896
H	-0.3026280067	-1.0819722346	 2.0338513985	 0.132577
H	-3.5273039037	 0.1621789206	-2.2454313209	 0.115425
H	-2.7737945739	-1.5026402533	-2.1815399688	 0.1164
H	-3.8010047547	-1.9798356143	 0.0137846174	 0.113385
H	-4.6162854532	-0.3432702108	 0.0611231999	 0.116826
39.5589	52.043	149.1953	176.721	200.7949	236.96	249.3615	276.5687	321.5863	343.1844	397.2359	441.0544	472.2743	546.9178	609.6963	652.975	775.5496	821.4005	882.6063	920.6491	932.1899	971.7745	982.265	1005.8936	1039.6347	1046.1207	1111.515	1122.6873	1149.6867	1159.9177	1170.4427	1190.9088	1211.4212	1271.8209	1328.2636	1381.0884	1389.125	1409.9219	1451.0676	1465.6943	1477.6978	1480.4888	1490.3448	1501.3844	1513.5678	1523.8125	1803.4469	3041.0812	3049.6314	3051.7784	3099.7946	3105.8068	3111.7011	3115.2575	3118.9773	3130.6551	3146.8713	3154.6575	3176.6804	3191.5021
CC(=O)C(C)(C)N1CC1	CC(=O)C(C)(C)N1CC1	
InChI=1S/C7H13NO/c1-6(9)7(2,3)8-4-5-8/h4-5H2,1-3H3	InChI=1S/C7H13NO/c1-6(9)7(2,3)8-4-5-8/h4-5H2,1-3H3
