21
gdb 66449	2.95507	1.63345	1.47807	0.2019	86.1	-0.2283	0.1	0.3284	1025.6605	0.18287	-349.897506	-349.889695	-349.888751	-349.929078	32.206	
C	-0.0090335049	 1.4405315317	 0.0314439481	-0.517314
C	 0.007171924	-0.0555575226	-0.0463818429	 0.377005
C	-0.9481638091	-0.968440593	 0.731003334	-0.111508
C	 0.5498395092	-1.0738556166	 0.9348109615	-0.233263
C	 0.5511284515	-2.1005519683	-0.2428507244	 0.391505
C	 1.4789555384	-3.2584182754	-0.454706774	-0.533938
C	-1.0318350282	-2.177760303	-0.2252726475	-0.105527
C	-1.0810644185	-1.6117042304	-1.66527298	-0.256103
C	 0.2653627087	-0.9475570011	-1.2874768564	-0.160956
H	 0.9527712762	 1.8707410476	-0.2714638167	 0.115603
H	-0.7830915682	 1.8666093178	-0.6186083239	 0.116955
H	-0.2138785329	 1.7783105565	 1.0534827005	 0.116957
H	-1.6994948302	-0.5770480085	 1.4054336991	 0.077
H	 1.158996057	-0.9577822692	 1.8230035117	 0.077634
H	 1.4190129999	-3.9737893378	 0.3740946346	 0.118085
H	 1.2354844096	-3.7972930145	-1.3779719407	 0.118053
H	 2.5207867589	-2.9246136311	-0.5299393206	 0.11765
H	-1.5880553228	-3.0623148832	 0.086482688	 0.057573
H	-0.9524336753	-2.396800595	-2.4177434337	 0.092853
H	-1.921656365	-0.9682698424	-1.9451340527	 0.087412
H	 0.9928783518	-0.6122101415	-2.028218724	 0.054323
186.0879	206.8614	220.9605	234.1022	253.1229	314.8933	435.6028	537.1325	560.8186	616.9853	734.926	750.9837	786.9507	825.7652	851.3578	858.2049	881.4413	888.1618	919.3805	946.8047	960.3232	986.6944	1011.6483	1048.4629	1064.986	1095.2528	1121.0233	1128.0991	1145.9431	1159.3091	1169.6264	1203.3232	1215.4868	1254.4867	1270.2424	1295.4563	1354.9042	1407.6129	1413.0136	1432.821	1484.6975	1485.313	1487.5114	1493.7587	1500.4542	3015.6835	3016.5908	3038.1306	3074.3821	3078.5663	3082.5159	3087.3962	3092.6073	3102.2375	3109.2058	3179.3253	3193.168
CC12C3C1C1(C)C3CC21	C[C@]12[C@@H]3[C@H]1[C@@]1(C)[C@@H]3C[C@@H]21	
InChI=1S/C9H12/c1-8-4-3-5(8)9(2)6(4)7(8)9/h4-7H,3H2,1-2H3	InChI=1S/C9H12/c1-8-4-3-5(8)9(2)6(4)7(8)9/h4-7H,3H2,1-2H3/t4-,5-,6+,7+,8+,9+/m1/s1
