20
gdb 20166	3.15618	2.63623	1.90944	0.19	76.44	-0.2633	0.0772	0.3405	792.4787	0.181081	-311.85992	-311.853663	-311.852719	-311.89022	26.227	
C	-0.0163553669	 1.5594017467	-0.0066716146	-0.234411
C	 1.5276941225	 1.5765425842	-0.0375463349	-0.01123
C	 2.2024185665	 1.352497376	 1.3451330866	-0.243763
C	 2.1835805701	-0.1982649938	 1.1326577984	-0.000059
C	 1.1892210476	-1.010944319	 1.9671038413	-0.212462
C	-0.2194000259	-0.6457089156	 1.4262526837	-0.226908
C	-0.0093373159	-0.0028583768	 0.0314652392	-0.00147
C	 1.5293510265	 0.0234425869	-0.2579676071	-0.040075
H	-0.5063022764	 2.073077396	 0.8285768274	 0.08486
H	-0.4427366612	 1.9386457261	-0.9399933817	 0.093837
H	 2.0119299825	 2.2902772508	-0.7053054624	 0.056819
H	 3.2174544898	 1.7547759981	 1.3923660634	 0.097185
H	 1.6494676437	 1.7294743108	 2.2125416005	 0.087615
H	 3.1834795784	-0.6383900524	 1.1303916799	 0.059976
H	 1.3816864342	-2.0797604838	 1.8146497219	 0.09303
H	 1.2895053188	-0.8223794149	 3.0415193559	 0.09287
H	-0.8570544995	-1.5327876103	 1.3684270513	 0.093976
H	-0.7306167196	 0.0559048065	 2.0940197103	 0.096299
H	-0.6363609653	-0.4653678802	-0.732915646	 0.062782
H	 1.9154574201	-0.4813136654	-1.1433726431	 0.051129
83.5869	295.251	310.4051	393.1723	581.1102	617.7924	657.1786	739.8503	787.8508	800.0476	826.0395	861.5264	877.8266	892.2933	926.9752	941.5327	960.1195	974.7973	1018.2843	1047.7485	1053.7158	1087.0985	1132.2198	1140.6031	1160.4692	1171.5359	1190.3664	1223.7242	1235.4335	1252.3551	1257.1275	1285.3073	1290.4396	1297.5116	1311.9873	1329.8099	1339.7695	1356.528	1474.6139	1483.2446	1487.5247	1507.3605	3026.8771	3029.7939	3038.4472	3042.8245	3063.6614	3071.0295	3074.9888	3081.5504	3089.0626	3092.6702	3099.8063	3112.5188
C1C2CC3CCC1C23	C1[C@H]2C[C@H]3CC[C@@H]1[C@@H]23	
InChI=1S/C8H12/c1-2-6-4-7-3-5(1)8(6)7/h5-8H,1-4H2	InChI=1S/C8H12/c1-2-6-4-7-3-5(1)8(6)7/h5-8H,1-4H2/t5-,6+,7-,8+
