23
gdb 38836	2.43253	1.8642	1.59432	0.2049	86.4	-0.2552	0.074	0.3292	998.2361	0.211434	-351.170762	-351.163758	-351.162814	-351.20162	30.659	
C	 0.046999157	 1.5492869594	-0.2460624625	-0.299781
C	 1.3287431604	 0.7748534687	-0.0681414275	-0.006573
C	 2.1700617571	 0.8538306617	 1.2037487262	-0.233295
C	 1.5058108277	 0.2135236469	 2.4472135071	 0.013376
C	 0.3234150065	 1.0443408915	 3.0196968344	-0.212062
C	-0.9577829458	 0.4454584844	 2.3691704772	-0.216904
C	-0.433187001	-0.5662647576	 1.3244937948	-0.006855
C	 0.8253398884	-1.1076871602	 2.0349436604	-0.216302
C	-0.0070553973	 0.0573063835	-0.0138534599	-0.025652
H	-0.2700667629	 2.216448235	 0.5475163208	 0.110054
H	-0.1879266655	 1.9169809636	-1.2395628382	 0.101584
H	 1.9121444574	 0.6362184317	-0.9736590434	 0.075862
H	 3.1070315668	 0.3147875565	 1.0169043794	 0.092496
H	 2.4544961376	 1.8914368876	 1.4226419237	 0.091083
H	 2.2800286961	 0.0652378137	 3.2057308546	 0.057065
H	 0.2822734131	 0.9480099055	 4.1088729541	 0.092573
H	 0.4436267722	 2.1112757265	 2.8076384801	 0.093908
H	-1.5454042955	-0.0910567815	 3.1212145633	 0.090371
H	-1.6170782166	 1.1993931291	 1.9333935466	 0.09677
H	-1.1748947227	-1.3453161643	 1.1281736771	 0.055544
H	 1.4509588126	-1.7303476214	 1.3875238336	 0.086848
H	 0.5507528066	-1.6989875071	 2.9163409195	 0.083613
H	-0.2639153222	-0.5430882931	-0.8816791214	 0.076277
151.7623	264.9191	290.6271	368.7268	404.0345	447.2892	471.8596	578.5767	703.584	722.9571	762.0923	796.028	808.698	835.1179	858.4967	875.2954	903.9471	912.0168	967.6435	975.3129	988.2575	1000.9037	1034.6287	1051.3087	1069.597	1075.2778	1123.2413	1136.9467	1146.5288	1171.4457	1180.1382	1191.8157	1217.5252	1246.9517	1264.6716	1274.9735	1309.543	1322.6164	1335.1971	1349.0945	1361.3135	1376.4263	1389.1682	1413.7685	1482.8977	1486.5559	1492.9939	1501.3529	1515.5015	3012.3161	3031.288	3040.2827	3045.4298	3049.703	3059.4079	3066.7313	3080.9373	3083.245	3103.1198	3131.4091	3135.1068	3146.7177	3213.5431
C1C2CC3CCC(C3)C12	C1[C@H]2C[C@H]3CC[C@H](C3)[C@@H]12	
InChI=1S/C9H14/c1-2-7-3-6(1)4-8-5-9(7)8/h6-9H,1-5H2	InChI=1S/C9H14/c1-2-7-3-6(1)4-8-5-9(7)8/h6-9H,1-5H2/t6-,7+,8+,9+/m0/s1
