20
gdb 111572	3.24244	1.40854	1.20542	1.9336	77.94	-0.2247	0.0747	0.2994	1085.6267	0.173686	-403.082058	-403.07466	-403.073716	-403.113962	29.917	
O	-0.1376974807	 1.474239926	-0.1443987663	-0.425552
C	 0.0220243732	 0.0794645382	 0.0907262368	-0.130738
C	-1.3783281885	-0.5113859679	 0.1650133173	 0.07547
C	-1.5163043	-2.0430598423	 0.2874231685	-0.10761
C	-0.8748725511	-2.3066593715	 1.662595279	-0.171879
N	-2.0309080877	-1.5613822975	 2.2630696005	-0.15194
C	-2.8820974669	-2.0788469506	 1.0990285927	 0.005839
C	-3.5945658432	-0.7285273982	 1.0472989523	-0.244975
C	-2.1902933432	-0.2395034394	 1.458365409	-0.011854
H	 0.73058293	 1.8859466702	-0.110389677	 0.286749
H	 0.5858647182	-0.3996854982	-0.7271273467	 0.083765
H	 0.5824233317	-0.0915641604	 1.0199834884	 0.08991
H	-1.9177167755	-0.1283057213	-0.7074893028	 0.080108
H	-1.3210757133	-2.6540862267	-0.5960473373	 0.05931
H	-0.9490241092	-3.3514798158	 1.9801210244	 0.103923
H	 0.1286574351	-1.9357232557	 1.8859485132	 0.096131
H	-3.3839577098	-3.04053309	 1.218986331	 0.075232
H	-4.0180473583	-0.3600170985	 0.1107970564	 0.097056
H	-4.3204578875	-0.6548873676	 1.8595741003	 0.111401
H	-2.0134207333	 0.6893244668	 1.9973230305	 0.079655
86.8836	179.2722	209.6141	280.4462	384.714	427.2335	487.3879	508.8339	669.2068	723.1391	747.5051	794.9509	841.6103	878.1684	898.373	928.3227	946.4411	982.5494	995.7892	1010.8186	1027.5895	1035.7466	1067.1986	1078.9682	1094.288	1117.8829	1157.3756	1174.0658	1190.1062	1202.7649	1227.4475	1245.6498	1251.8143	1263.8826	1270.7115	1293.1682	1309.427	1323.8592	1389.0325	1460.5196	1487.0896	1515.6494	1521.2877	2961.8791	3012.9324	3051.5074	3054.7347	3070.8707	3090.6083	3103.8043	3104.1771	3132.4842	3139.0154	3830.5898
OCC1C2CN3C2CC13	OC[C@H]1[C@H]2CN3[C@H]2C[C@H]13	
InChI=1S/C7H11NO/c9-3-5-4-2-8-6(4)1-7(5)8/h4-7,9H,1-3H2	InChI=1S/C7H11NO/c9-3-5-4-2-8-6(4)1-7(5)8/h4-7,9H,1-3H2/t4-,5+,6+,7-/m1/s1
