16
gdb 126281	3.5513	1.14435	0.92039	2.5965	80.12	-0.2431	-0.0792	0.164	1257.7818	0.122656	-434.031873	-434.023245	-434.022301	-434.065901	31.123	
C	 0.0656301715	 1.5889274568	 0.0529939094	-0.378309
C	-0.0313020525	 0.0580220448	-0.0622443771	-0.270304
C	-1.4497255706	-0.4325449204	-0.1001145444	 0.428226
C	-2.027526902	-1.0591995151	-1.1481165589	-0.284399
C	-3.398742195	-1.4717861219	-1.0777520686	 0.389197
N	-4.0520128248	-2.0785960831	-1.9873491654	-0.503899
N	-4.0639900305	-1.1390786595	 0.1721275551	-0.12516
N	-3.5736497383	-0.581395806	 1.1232349292	 0.042349
O	-2.1104951974	-0.1703484281	 1.0364053296	-0.30747
H	 1.1129768552	 1.8986548932	 0.0997588876	 0.125044
H	-0.3964827259	 2.0761089191	-0.8107362838	 0.128548
H	-0.4386189909	 1.9429259371	 0.9552089857	 0.143877
H	 0.4756648609	-0.2943691123	-0.9655498309	 0.12105
H	 0.4684470626	-0.4055911004	 0.7968879349	 0.132707
H	-1.4677032648	-1.2573396839	-2.0515311471	 0.125753
H	-5.0093929877	-2.2479417302	-1.6741564453	 0.232791
55.2403	81.7349	133.4412	191.5816	257.1169	311.5662	383.0058	418.3458	463.0955	512.9592	582.5192	668.9998	738.74	754.1334	795.8504	851.6712	872.6986	906.4038	972.5007	988.315	1077.0371	1089.8013	1119.5379	1181.4141	1267.4226	1307.7676	1348.2799	1390.1713	1411.8463	1472.2689	1496.5118	1507.8137	1633.0476	1727.2579	1732.8848	3038.7125	3048.7615	3089.4262	3120.7111	3133.6985	3231.7285	3473.6369
CCC1=CC(=N)N=NO1	CCC1=CC(=N[N]O1)[NH]	
InChI=1S/C5H7N3O/c1-2-4-3-5(6)7-8-9-4/h3,6H,2H2,1H3	InChI=1S/C5H7N3O/c1-2-4-3-5(6)7-8-9-4/h3,6H,2H2,1H3
