17
gdb 54923	4.0834	0.88543	0.81002	3.7886	75.36	-0.2529	0.0106	0.2635	1405.6671	0.135306	-418.038584	-418.029299	-418.028355	-418.0741	31.804	
C	-0.1168199284	 1.4462681371	 0.293461717	-0.492184
C	-0.0215217363	-0.0630612204	 0.1586371911	 0.372867
O	 0.9636680806	-0.7131589651	 0.4540801549	-0.356401
N	-1.1377681081	-0.6731795106	-0.3402489775	-0.070984
C	-2.5300684423	-0.2547453106	-0.5039477788	-0.19264
C	-2.8982162096	-1.7606395477	-0.729398181	-0.170562
C	-1.4123035933	-2.1068474466	-0.3674619522	-0.178219
C	-3.9316493066	-2.3121466045	 0.1268243062	 0.276816
N	-4.7532897274	-2.7448592327	 0.8151291725	-0.314197
H	 0.8709687385	 1.8362409955	 0.5366512234	 0.154708
H	-0.4801879533	 1.9115987565	-0.6281156096	 0.135542
H	-0.8116912775	 1.7161445278	 1.0967347304	 0.14312
H	-2.9826586407	 0.1805566826	 0.3938445819	 0.137293
H	-2.7215576989	 0.4003956333	-1.35937969	 0.130702
H	-3.1348297146	-1.9779123849	-1.7722269589	 0.140696
H	-0.8635569693	-2.664068768	-1.1306900877	 0.138118
H	-1.2813806128	-2.5972289617	 0.6018679584	 0.145324
39.1711	84.0489	95.6162	121.1518	171.2218	215.3306	254.9941	364.8485	503.4734	542.614	580.7427	591.7249	638.4267	744.4718	893.8314	911.2152	966.5746	987.4656	1036.7638	1050.9156	1105.3918	1122.6755	1139.0404	1173.5549	1208.9271	1239.2644	1295.1649	1321.6062	1353.56	1380.6591	1436.564	1471.3668	1482.4242	1508.8056	1527.9927	1775.7622	2361.1836	3034.575	3041.4089	3056.8862	3082.0035	3100.1398	3103.3144	3112.4534	3163.1627
CC(=O)N1CC(C1)C#N	CC(=O)N1CC(C1)C#N	
InChI=1S/C6H8N2O/c1-5(9)8-3-6(2-7)4-8/h6H,3-4H2,1H3	InChI=1S/C6H8N2O/c1-5(9)8-3-6(2-7)4-8/h6H,3-4H2,1H3
