23
gdb 64409	2.34755	1.58755	1.26669	1.3759	84.63	-0.2371	0.08	0.3171	1132.3835	0.206507	-388.287817	-388.279066	-388.278121	-388.320426	35.539	
C	 0.0307232308	 1.5410311872	-0.028950725	-0.413863
C	-0.0121540112	 0.0039954555	-0.0133348976	 0.258781
C	-1.4832437344	-0.451491586	 0.0843881679	-0.421172
C	 0.61850934	-0.5550239649	-1.3132916527	-0.234737
C	 1.0007725716	-2.0266652951	-1.1774917519	-0.079985
O	 2.0160096578	-2.2015383919	-0.1987908805	-0.258727
C	 1.6881224092	-1.70997547	 1.0700700658	 0.089832
C	 2.2226733634	-0.3502487102	 1.4365915503	-0.333944
C	 0.7380246128	-0.544428692	 1.2050505032	-0.040835
H	 1.0605893592	 1.9078189723	-0.0768196343	 0.112186
H	-0.5102211122	 1.9385760393	-0.8956354245	 0.10617
H	-0.4309958037	 1.9575745872	 0.8731698294	 0.107821
H	-2.0622415391	-0.0860591648	-0.7706238445	 0.108515
H	-1.5732460258	-1.5419627525	 0.1105831312	 0.115053
H	-1.9512100623	-0.0611532371	 0.9944698513	 0.111068
H	-0.080684112	-0.4221267978	-2.1475780405	 0.091834
H	 1.525967625	 0.0066419801	-1.5658915723	 0.098747
H	 0.1197439378	-2.6417837007	-0.9358559438	 0.088325
H	 1.4250928383	-2.4082148704	-2.1108110049	 0.104695
H	 1.6692924218	-2.490754755	 1.8278596233	 0.086784
H	 2.5657281861	-0.165171721	 2.4488225819	 0.107091
H	 2.8034563992	 0.1431015445	 0.6645194144	 0.116548
H	 0.1385807077	-0.5460226666	 2.1121831537	 0.079813
105.5699	191.7038	237.8724	265.5018	270.9545	318.0327	327.3721	379.9379	418.46	454.735	497.4065	503.2998	662.279	691.8057	780.0407	821.8956	842.0837	884.5588	942.2528	954.0759	974.2777	1000.7476	1010.0303	1018.4293	1049.6357	1067.3093	1075.7584	1091.209	1127.8179	1174.7981	1193.4004	1214.5764	1242.663	1263.194	1276.4902	1300.0599	1359.32	1373.8466	1395.718	1398.266	1418.2089	1424.5738	1473.1743	1479.9614	1485.0561	1493.0951	1502.0101	1506.2499	1512.093	2982.6214	3022.5844	3025.4951	3030.87	3068.2431	3083.0581	3088.2157	3096.027	3100.6525	3102.4544	3114.7306	3128.4868	3132.7588	3217.9718
CC1(C)CCOC2CC12	CC1(C)CCO[C@H]2C[C@@H]12	
InChI=1S/C8H14O/c1-8(2)3-4-9-7-5-6(7)8/h6-7H,3-5H2,1-2H3	InChI=1S/C8H14O/c1-8(2)3-4-9-7-5-6(7)8/h6-7H,3-5H2,1-2H3/t6-,7+/m1/s1
