18
gdb 34927	2.74094	1.59089	1.26477	1.4176	81.88	-0.2283	0.0326	0.2609	1043.7836	0.146742	-364.712571	-364.704581	-364.703637	-364.74478	31.801	
C	-0.2009277031	-1.2325420485	 0.0496366863	-0.471914
C	-0.0564730762	-0.0382943003	 0.0631251478	 0.375462
C	 0.0565744001	 1.3923949672	 0.0637407355	-0.211023
C	 0.5741363675	 2.1766354776	 1.2161775664	-0.031143
C	 1.6503087237	 1.4167757496	 1.9907036257	-0.353309
C	 2.385750783	 1.3406543617	 0.6479000079	 0.405084
C	 3.8338937775	 1.5920056385	 0.3823231662	-0.34602
C	 3.2028543567	 0.2614836979	 0.01975799	-0.307795
N	 1.3532303608	 2.1302246903	-0.0810513184	-0.187571
H	-0.3190093952	-2.2877825698	 0.0329550989	 0.199206
H	-0.7130682646	 1.8960027972	-0.5165380598	 0.119938
H	 0.0741555042	 3.0812990129	 1.5471913169	 0.100839
H	 2.1654596997	 2.0350853506	 2.7288364232	 0.113824
H	 1.3344341642	 0.4778954063	 2.4534605039	 0.117282
H	 4.0721599024	 2.274647241	-0.4261551151	 0.125333
H	 4.5103168624	 1.6322905725	 1.2300492478	 0.111523
H	 3.4442434357	-0.6094591976	 0.619848493	 0.115624
H	 3.0302521912	 0.051757863	-1.0299681964	 0.12466
102.5356	135.7948	210.776	267.8633	303.2714	365.5784	420.0775	524.8837	568.9104	604.5946	629.2587	659.5481	754.5561	760.3213	783.3581	839.3518	850.8626	894.5449	934.1701	945.2304	979.8221	1002.0228	1046.4161	1055.1972	1064.2327	1074.9441	1115.0955	1168.2898	1186.9601	1200.3225	1243.2012	1260.1263	1334.0085	1379.5631	1394.3619	1455.2183	1481.5827	1501.9036	2232.2293	3059.7786	3115.3988	3129.1668	3134.715	3137.2491	3163.3985	3212.5696	3226.5535	3502.4678
C#CC1C2CC3(CC3)N12	C#C[C@H]1[C@H]2CC3(CC3)N12	
InChI=1S/C8H9N/c1-2-6-7-5-8(3-4-8)9(6)7/h1,6-7H,3-5H2	InChI=1S/C8H9N/c1-2-6-7-5-8(3-4-8)9(6)7/h1,6-7H,3-5H2/t6-,7+,9?/m0/s1
