17
gdb 35096	2.29445	1.60372	1.45463	0.6832	87.32	-0.221	-0.039	0.1821	1018.3958	0.136787	-347.530888	-347.523046	-347.522102	-347.563041	30.827	
C	-0.2033457235	-1.2432590215	-0.3838200019	-0.4826
C	-0.1126734201	-0.0595613659	-0.1960755685	 0.357258
C	-0.0238391534	 1.392787887	-0.0039413142	-0.271235
C	-0.7170716797	 1.8655460386	 1.2630186065	-0.096012
C	-0.318477084	 1.5461943018	 2.5079218562	-0.050901
C	 0.896566444	 0.8671129725	 2.8820518239	-0.091407
C	 2.0664840072	 0.8867040658	 2.1930715382	-0.091405
C	 2.3113803406	 1.5902301346	 0.9591616765	-0.050904
C	 1.4081557659	 1.9011322368	 0.0114420525	-0.096009
H	-0.2748242804	-2.291641913	-0.5349582745	 0.192409
H	-0.5330336405	 1.8579832689	-0.8553494761	 0.108322
H	-1.6069717244	 2.4736007074	 1.1299506632	 0.100191
H	-0.9627871515	 1.8482918779	 3.3315767191	 0.093929
H	 0.9001646499	 0.3960899079	 3.8619712477	 0.092123
H	 2.9332354733	 0.4301319845	 2.6646673674	 0.092123
H	 3.3363052847	 1.9202788378	 0.7997802311	 0.093929
H	 1.708000022	 2.5291098689	-0.8222830372	 0.10019
87.417	138.1951	223.6883	298.1034	330.9148	396.3325	419.1884	521.6551	530.7802	619.3495	632.7726	666.4157	700.2966	768.3603	775.8642	819.191	893.5757	902.8597	940.1974	957.2472	974.8135	986.8485	1007.7377	1044.568	1085.7552	1233.916	1238.4656	1246.3826	1314.6724	1328.6779	1385.9245	1427.8854	1476.2305	1589.5148	1679.9282	1681.1272	2231.3635	3039.4824	3135.3015	3138.541	3150.4537	3167.4012	3173.4187	3176.9086	3504.7518
C#CC1C=CC=CC=C1	C#C[C@H]1C=CC=CC=C1	
InChI=1S/C9H8/c1-2-9-7-5-3-4-6-8-9/h1,3-9H	InChI=1S/C9H8/c1-2-9-7-5-3-4-6-8-9/h1,3-9H
