18
gdb 70630	2.42237	1.86619	1.32765	1.2043	70.88	-0.2302	0.0546	0.2848	991.0263	0.148257	-439.031819	-439.024027	-439.023083	-439.063767	31.038	
O	-0.5730617181	 1.2167819981	 0.0344549347	-0.462194
C	-0.0713565807	-0.0844890834	 0.02317139	 0.270713
C	-0.3181363599	-0.97238664	 1.2198923278	-0.360281
C	 1.0953108378	-0.5802737308	 0.8272861468	 0.035651
O	 1.8753982524	-1.4713536462	 0.0810972895	-0.262387
C	 1.1400905754	-1.8507798356	-1.0920557034	-0.161579
C	 0.0663317837	-0.7881417675	-1.3091195864	 0.259663
C	-1.0404990049	-0.906605413	-2.2793834842	-0.295538
N	 0.0937200685	 0.0089217247	-2.5410087838	-0.365898
H	 0.1545983405	 1.8221473124	-0.1473082522	 0.291291
H	-0.7157705467	-0.4697403971	 2.0948568395	 0.124836
H	-0.66493243	-1.9895567146	 1.0724536065	 0.122216
H	 1.6845426911	 0.0483409681	 1.4853143218	 0.107815
H	 1.8324207842	-1.9036878116	-1.9357053844	 0.130145
H	 0.689797503	-2.8416883509	-0.9410145888	 0.102986
H	-1.0979208031	-1.7648103958	-2.9443752087	 0.117465
H	-1.9995241751	-0.473477401	-2.0067869839	 0.122274
H	-0.2102305382	 0.9571610143	-2.3219361809	 0.222819
101.6839	212.7929	233.4818	266.3581	345.3551	361.1105	392.5783	456.0948	479.8847	543.1872	625.8777	710.8652	805.9479	837.8885	873.6948	919.3878	922.1312	954.3955	987.3678	993.3255	996.8888	1029.015	1061.8231	1075.3651	1091.5608	1123.9116	1158.4704	1214.9201	1227.1516	1263.4603	1283.0784	1314.1352	1330.5541	1351.848	1403.7846	1423.9606	1476.0447	1509.8663	1514.5466	3005.524	3099.5477	3102.6741	3134.2914	3180.5274	3189.2576	3227.6921	3468.9721	3794.816
OC12CC1OCC21CN1	O[C@]12C[C@H]1OC[C@]12CN1	
InChI=1S/C6H9NO2/c8-6-1-4(6)9-3-5(6)2-7-5/h4,7-8H,1-3H2	InChI=1S/C6H9NO2/c8-6-1-4(6)9-3-5(6)2-7-5/h4,7-8H,1-3H2/t4-,5+,6-/m1/s1
