18
gdb 69284	3.83865	1.11581	0.98617	4.7495	84.56	-0.2494	-0.0413	0.2081	1228.8081	0.148522	-364.838744	-364.830681	-364.829737	-364.871135	31.259	
C	-0.0319455405	 1.5052840915	 0.0377510217	-0.483084
C	 0.052922361	-0.0020842116	 0.005672498	 0.33978
C	-0.7990105588	-0.8204493921	 0.9425501708	-0.319245
C	 0.707385355	-0.8065230435	 1.1223588401	-0.186273
C	 1.4265193061	-1.9261028788	 0.4357489365	 0.22227
C	 1.2560186206	-1.8813600299	-0.8961765657	-0.171234
C	 0.4489815572	-0.6785746598	-1.3145346459	-0.327747
C	 2.1633615041	-2.9176595619	 1.1402473912	 0.197935
N	 2.7648096902	-3.7057659246	 1.7397862971	-0.340521
H	 0.9038777845	 1.9634348877	-0.3018619334	 0.121561
H	-0.8361193264	 1.8697125386	-0.6121962734	 0.123094
H	-0.2356119531	 1.8698571639	 1.0491828445	 0.120916
H	-1.3876107995	-0.2729032171	 1.6715618308	 0.117045
H	-1.2568103668	-1.7391712478	 0.5893109293	 0.117041
H	 1.140326906	-0.3481762259	 2.0038517933	 0.103517
H	 1.6353094279	-2.6184154632	-1.5933467531	 0.121384
H	-0.4215400581	-0.9608326036	-1.9205792413	 0.12398
H	 1.0518679708	-0.0072415219	-1.9427123408	 0.119581
112.0416	147.9115	208.2236	224.7749	303.7716	363.2653	371.952	444.9598	503.2968	558.9672	613.6694	654.4584	746.4798	811.0312	841.494	859.2781	917.8493	943.9712	964.9827	984.0026	1014.8417	1049.8672	1071.6792	1096.9647	1106.8182	1168.0549	1185.5541	1245.4489	1260.2348	1321.3038	1335.2779	1399.4374	1422.7678	1466.2925	1485.5103	1491.6477	1501.7024	1659.0079	2337.6196	3008.6279	3025.0602	3043.4136	3084.5336	3103.0876	3123.1746	3181.6935	3212.2311	3215.2082
CC12CC1C(=CC2)C#N	C[C@]12C[C@H]1C(=CC2)C#N	
InChI=1S/C8H9N/c1-8-3-2-6(5-9)7(8)4-8/h2,7H,3-4H2,1H3	InChI=1S/C8H9N/c1-8-3-2-6(5-9)7(8)4-8/h2,7H,3-4H2,1H3/t7-,8-/m0/s1
