18
gdb 108442	2.25113	1.72919	1.21467	3.2751	71.41	-0.2273	0.0077	0.235	1073.1691	0.148103	-439.083375	-439.074981	-439.074037	-439.116567	31.13	
C	-0.1733189707	 1.456276582	-0.0350599905	-0.343181
N	-0.0658662132	-0.0081379294	-0.0573795256	-0.368516
C	 0.7160029452	-0.5107443941	-1.1439924649	 0.166819
C	 0.1340007194	-0.336569166	-2.5865287902	-0.271804
C	 0.346194115	-1.8581151787	-2.8610861494	-0.236043
C	 0.9725792084	-2.0136894403	-1.4652369301	 0.047325
O	 2.4142366824	-1.7634511876	-1.4908846187	-0.262434
C	 2.2562565589	-0.4363246523	-1.1438315796	 0.397834
O	 3.1125872995	 0.3581552553	-0.915722597	-0.333435
H	 0.7960097509	 1.9721987137	 0.0127925394	 0.134453
H	-0.6959851366	 1.7950220208	-0.9350066769	 0.129915
H	-0.773914291	 1.7524101344	 0.8289392635	 0.12388
H	 0.3272378249	-0.3267103016	 0.8234070389	 0.227021
H	-0.9204209786	-0.0591925876	-2.5431246897	 0.125148
H	 0.6633693793	 0.3637719055	-3.2342267337	 0.121006
H	-0.5916211627	-2.405829267	-2.974327483	 0.11777
H	 1.0161978448	-2.1241443288	-3.6802288347	 0.124619
H	 0.7276698442	-2.8503732684	-0.8129732576	 0.099623
95.7226	121.9401	138.6751	203.8818	221.6812	298.7138	329.2542	430.3504	508.4043	629.0497	696.7227	728.6438	767.6678	794.9654	833.1789	875.2904	916.1633	959.0618	971.8447	1032.3681	1041.9202	1067.7374	1119.3259	1143.4428	1168.4893	1191.3767	1212.4941	1231.823	1250.6642	1274.6944	1319.385	1344.8628	1456.4059	1463.7142	1478.8991	1484.4845	1491.2288	1523.3406	1918.5091	3005.1505	3076.1951	3080.6204	3082.9744	3116.0687	3126.9626	3133.6465	3144.9758	3506.7302
CNC12CCC1OC2=O	CN[C@]12CC[C@H]1OC2=O	
InChI=1S/C6H9NO2/c1-7-6-3-2-4(6)9-5(6)8/h4,7H,2-3H2,1H3	InChI=1S/C6H9NO2/c1-7-6-3-2-4(6)9-5(6)8/h4,7H,2-3H2,1H3/t4-,6-/m1/s1
