21
gdb 75944	2.11383	1.68413	1.01536	2.6569	85.04	-0.234	-0.0101	0.2239	1220.1425	0.182417	-387.138663	-387.129498	-387.128554	-387.172675	34.799	
C	 0.1844178015	 1.6509241485	 0.015463596	-0.398339
C	 0.21800258	 0.1137517627	-0.0144250532	-0.189941
C	 0.912684539	-0.3891737554	-1.2870644619	 0.388705
O	 1.0592027709	 0.3149179065	-2.2596769915	-0.314896
C	 1.3965004278	-1.8243321239	-1.2410359448	-0.304781
C	 2.3407645277	-2.0234265396	-0.041885664	-0.262791
C	 1.7515804417	-1.4453482482	 1.2161371179	-0.161332
C	 0.7961107388	-0.5121165205	 1.2510162334	 0.323887
C	 0.2236971799	-0.0258205331	 2.5577375035	-0.476806
H	 1.1834127071	 2.0582291	 0.2007545848	 0.121316
H	-0.1538024125	 2.0286858291	-0.950471811	 0.139634
H	-0.487240735	 2.0197530363	 0.7938837178	 0.111241
H	-0.8264340329	-0.2358831942	-0.1023931879	 0.105548
H	 0.5227007807	-2.4760184841	-1.1086503137	 0.117189
H	 1.8720720667	-2.0693852171	-2.1930088953	 0.116502
H	 2.5425702489	-3.0920393561	 0.0954315501	 0.109711
H	 3.316631233	-1.5636245224	-0.2549100463	 0.121606
H	 2.1340123979	-1.8370329752	 2.1563790064	 0.080778
H	 0.6243653497	-0.5952138068	 3.4002532866	 0.120495
H	 0.4434842512	 1.0335823603	 2.7319857517	 0.131679
H	-0.869909342	-0.1229351868	 2.5699768011	 0.120596
45.1778	129.343	184.7581	208.2941	249.32	285.4704	319.3692	336.6584	415.3055	426.8872	533.3491	551.57	620.1157	643.919	763.8318	813.6247	857.856	862.0256	917.4101	979.9068	1002.6567	1041.2391	1062.1345	1085.3703	1094.2004	1099.6924	1147.7025	1178.6674	1208.5961	1238.4275	1290.6843	1313.5755	1323.9297	1366.9444	1373.301	1402.7981	1415.8109	1468.3116	1478.1601	1487.0059	1489.4324	1500.2396	1501.7908	1734.5325	1812.0725	2948.1122	3005.6181	3019.292	3027.0849	3050.266	3052.844	3071.0801	3112.7555	3113.3115	3119.7028	3144.6086	3145.7466
CC1C(=O)CCC=C1C	C[C@H]1C(=O)CCC=C1C	
InChI=1S/C8H12O/c1-6-4-3-5-8(9)7(6)2/h4,7H,3,5H2,1-2H3	InChI=1S/C8H12O/c1-6-4-3-5-8(9)7(6)2/h4,7H,3,5H2,1-2H3/t7-/m1/s1
