19
gdb 50934	2.14872	1.04987	0.76575	3.4236	77.57	-0.2563	-0.0369	0.2194	1481.5109	0.155873	-423.026471	-423.016547	-423.015602	-423.063312	34.164	
O	 0.0997776521	-0.1249802456	-0.2109855628	-0.235619
C	 0.0495847385	 1.0773384984	-0.2262082996	 0.154843
C	 1.2637430139	 1.9814162338	-0.1828314526	-0.302623
C	 1.2427564343	 3.0798300346	-1.2720245741	-0.103388
C	 0.1671686768	 4.1131711639	-0.9779967148	 0.166524
O	-0.7535126509	 4.3841258836	-1.7030112446	-0.247802
C	 2.5862273908	 3.7917139103	-1.3502467069	 0.010759
C	 3.6796874082	 3.2427799776	-2.2327224156	-0.273438
C	 2.9808784221	 4.5257824124	-2.6072012447	-0.275094
H	-0.9290439108	 1.6081277154	-0.2738611183	 0.089352
H	 1.2876873663	 2.4605634114	 0.8083851858	 0.123649
H	 2.1626219466	 1.3660146777	-0.2730971114	 0.134098
H	 1.0092118612	 2.6382121115	-2.2472550599	 0.102233
H	 0.308648794	 4.6418409741	-0.0038678599	 0.073179
H	 2.9068035968	 4.2362208397	-0.4107596617	 0.090976
H	 4.7013451598	 3.2959543069	-1.8738789409	 0.121144
H	 3.4595093016	 2.3560134254	-2.8178567314	 0.122148
H	 2.2879869428	 4.5005994917	-3.4415342417	 0.128418
H	 3.5235874559	 5.4588916572	-2.508086295	 0.120641
46.3086	57.1072	60.9817	89.5745	148.416	206.8943	269.6993	343.1562	378.3156	417.8393	463.2888	564.6649	775.972	787.6667	827.5112	852.6203	901.2862	932.1618	969.7891	988.6048	1037.6059	1063.125	1082.9374	1100.2406	1118.1086	1135.5824	1172.9981	1196.9857	1211.7569	1226.1852	1267.3183	1294.972	1337.5358	1409.3071	1422.6458	1435.774	1461.1267	1471.0924	1504.7305	1834.6277	1836.4844	2837.216	2872.0249	3002.5629	3054.8007	3103.5443	3131.6574	3134.0811	3139.5406	3213.7283	3228.3741
O=CCC(C=O)C1CC1	O=CC[C@@H](C=O)C1CC1	
InChI=1S/C7H10O2/c8-4-3-7(5-9)6-1-2-6/h4-7H,1-3H2	InChI=1S/C7H10O2/c8-4-3-7(5-9)6-1-2-6/h4-7H,1-3H2/t7-/m0/s1
