21
gdb 92022	2.29291	1.90222	1.39499	2.0544	80.95	-0.216	0.0639	0.2798	1025.0966	0.185706	-383.220357	-383.212567	-383.211623	-383.252236	31.698	
C	-0.0476294858	 1.6088812123	 0.0037171101	-0.390049
C	 0.0068020744	 0.0734735976	 0.0125038317	-0.006414
C	 0.5163831377	-0.5542909643	-1.3231170347	-0.162267
N	 1.9297075052	-0.8744573775	-1.4988519475	-0.096866
C	 2.9810206548	 0.0541374088	-1.1020987926	-0.261381
C	 2.7317038736	-1.1843699992	-0.3085547279	-0.007403
C	 2.1083289383	-1.0948760142	 1.0570475292	-0.041904
N	 1.9582388593	 0.2347643604	 1.67072618	-0.333308
C	 0.7545317101	-0.4854561201	 1.2226041189	-0.048543
H	 0.9466321236	 2.0561355472	-0.044906702	 0.137514
H	-0.6304475736	 1.9641817166	-0.8527217676	 0.106336
H	-0.5262877115	 1.9844326456	 0.9145292652	 0.10826
H	-1.028976124	-0.2757649292	 0.1046102657	 0.075455
H	-0.012361951	-1.5048501894	-1.4660309085	 0.100814
H	 0.2226688614	 0.0941340066	-2.1564912749	 0.103038
H	 3.83033013	 0.1019924245	-1.7794755694	 0.107595
H	 2.725458403	 0.9898972639	-0.6166570637	 0.135981
H	 3.3964068437	-2.0360444646	-0.4395423668	 0.081031
H	 2.360528485	-1.922214881	 1.7156009416	 0.078956
H	 2.0536670889	 0.1714977382	 2.6801464985	 0.230485
H	 0.1245961269	-0.9094612323	 2.0011321448	 0.082669
111.7711	192.5649	217.2514	276.8665	324.7663	340.5563	442.7859	488.8266	515.3628	625.6312	683.2711	732.584	762.5794	811.6403	861.0309	884.8298	911.7394	930.8252	947.9077	961.9145	1010.7172	1028.4005	1063.4694	1085.0252	1109.5542	1120.4077	1138.7081	1162.6426	1169.0676	1173.9628	1206.3285	1262.8892	1294.0632	1319.4931	1349.6648	1369.9407	1375.3871	1399.1865	1412.7689	1421.7984	1454.8377	1478.9941	1490.7702	1500.1251	1516.2378	3011.2968	3028.0849	3037.7998	3063.0274	3096.0917	3108.3375	3114.4562	3124.3628	3135.1996	3139.8139	3208.5218	3509.1902
CC1CN2CC2C2NC12	C[C@H]1CN2C[C@H]2[C@H]2N[C@@H]12	
InChI=1S/C7H12N2/c1-4-2-9-3-5(9)7-6(4)8-7/h4-8H,2-3H2,1H3	InChI=1S/C7H12N2/c1-4-2-9-3-5(9)7-6(4)8-7/h4-8H,2-3H2,1H3/t4-,5-,6-,7+,9?/m0/s1
