17
gdb 127412	3.06817	1.63122	1.09903	4.0583	75.25	-0.2018	-0.002	0.1998	1068.1737	0.138129	-417.989911	-417.982498	-417.981554	-418.021739	28.459	
C	-0.1516598362	 1.5063964009	-0.0523474804	-0.337975
N	 0.1116473721	 0.0834614953	 0.0085414337	-0.184346
C	 0.7691277491	-0.5241162878	-1.1744079735	-0.16891
C	 1.3270918096	-1.8976575817	-0.6927273014	-0.354155
C	 1.483219841	-1.6249666132	 0.7755626969	 0.352359
N	 2.0785557025	-2.1776974966	 1.7929394934	-0.243561
O	 1.7597019452	-1.3513057544	 2.8719933711	-0.187335
C	 0.9703818731	-0.3159116774	 2.4470003624	-0.079087
C	 0.7624867217	-0.4534837833	 1.1154573029	 0.202984
H	 0.7698161719	 2.1116600325	-0.1073019635	 0.110178
H	-0.7622992689	 1.728227408	-0.9324665594	 0.128395
H	-0.7151936861	 1.8149810894	 0.8326291069	 0.133111
H	 0.0563130826	-0.6183416672	-1.9983659477	 0.114626
H	 1.6007400139	 0.1146760291	-1.5162439372	 0.101588
H	 0.5992408301	-2.6992485911	-0.8600708174	 0.136867
H	 2.2523270996	-2.1724299696	-1.202480367	 0.135832
H	 0.6811892688	 0.388389027	 3.20826615	 0.13943
132.8031	162.4117	217.7509	247.4929	279.4334	386.3725	504.4789	576.638	582.3286	629.4744	697.7736	739.578	752.6264	832.975	906.4827	944.2681	961.35	994.3469	1070.853	1073.3779	1105.04	1145.8979	1183.848	1201.5768	1234.1141	1263.5348	1297.8261	1307.7716	1385.4514	1442.0613	1460.2835	1479.1147	1489.9388	1500.8177	1515.0893	1584.2805	1701.1701	2956.4455	2963.5349	3050.0649	3072.9663	3083.5659	3114.6542	3116.6747	3283.0961
CN1CCC2=NOC=C12	CN1CCc2nocc12	
InChI=1S/C6H8N2O/c1-8-3-2-5-6(8)4-9-7-5/h4H,2-3H2,1H3	InChI=1S/C6H8N2O/c1-8-3-2-5-6(8)4-9-7-5/h4H,2-3H2,1H3
