20
gdb 108531	2.7351	1.64064	1.23874	0.2564	77.94	-0.2356	0.0772	0.3128	1069.2317	0.172624	-403.084729	-403.077078	-403.076134	-403.11682	30.574	
C	 0.0614515801	 1.5276393045	-0.1185073835	-0.386497
C	-0.0786302961	 0.0148719425	 0.0989206154	-0.294842
C	 0.6753111669	-0.5043114766	 1.3031647023	 0.34722
C	 0.3187171446	-0.0161093379	 2.7056337202	-0.151229
O	 1.2423950473	-0.7536366968	 3.529483343	-0.279179
C	 1.946643728	-1.5073529945	 2.5740945567	 0.124613
C	 1.0045359317	-2.0331481209	 1.4530842765	-0.133056
N	 2.0800033604	-1.8896126124	 0.4067678606	-0.339857
C	 2.2385182596	-0.6775877253	 1.288816563	-0.119284
H	 1.1122455856	 1.8145312376	-0.2320196431	 0.119655
H	-0.4664958945	 1.8386549321	-1.0248783914	 0.11608
H	-0.3521975546	 2.102618133	 0.7166031254	 0.115551
H	-1.1409915281	-0.2426845823	 0.2057865938	 0.093536
H	 0.2903870905	-0.5223520183	-0.7802569883	 0.127391
H	 0.4766943592	 1.0594541119	 2.8469116545	 0.106805
H	-0.7133436045	-0.2581585566	 2.9904663479	 0.103653
H	 2.7054371336	-2.1419876121	 3.0328406116	 0.086339
H	 0.3054479164	-2.8713415261	 1.468151508	 0.077031
H	 2.8354850009	-2.5541290043	 0.6022275879	 0.20856
H	 3.0015817929	 0.0825276525	 1.1127336994	 0.07751
87.2693	170.7696	212.0197	277.8993	314.6679	386.1248	430.0909	500.8397	628.9566	688.8671	718.8576	754.6929	794.5744	834.91	886.4343	899.3511	935.6222	976.1818	981.0748	1002.1975	1033.9245	1050.0131	1067.5595	1092.3978	1131.5254	1138.5326	1143.0675	1157.9148	1205.9545	1222.3039	1231.4423	1249.1805	1286.8714	1303.0259	1311.1565	1339.0377	1368.9707	1402.3124	1412.7834	1484.6517	1501.8015	1505.9653	1520.7393	3017.1786	3020.6602	3034.784	3058.9587	3078.3344	3097.5439	3101.046	3105.3133	3107.0536	3128.7762	3381.0514
CCC12COC3C1NC23	CC[C@@]12CO[C@H]3[C@@H]1N[C@@H]23	
InChI=1S/C7H11NO/c1-2-7-3-9-4-5(7)8-6(4)7/h4-6,8H,2-3H2,1H3	InChI=1S/C7H11NO/c1-2-7-3-9-4-5(7)8-6(4)7/h4-6,8H,2-3H2,1H3/t4-,5-,6+,7+
