14
gdb 16473	3.3183	2.84744	1.86383	0.2713	55.93	-0.2465	0.052	0.2984	696.2013	0.107735	-419.5982	-419.592398	-419.591453	-419.627774	23.75	
O	 0.1555756257	 1.36331202	 0.1273747786	-0.477856
C	 0.0784903543	-0.0069790641	 0.0801244238	 0.390401
C	 0.9239856355	-0.7880375495	 1.0692380635	-0.13368
O	 0.5773821356	-2.1432582156	 0.7136480602	-0.275141
C	-0.3407758345	-1.9750780797	-0.3402178503	 0.105057
C	-1.2856381939	-0.7731714969	-0.076343242	-0.056287
O	-1.3242486662	-0.4447831672	-1.5092562115	-0.335606
C	 0.0807463533	-0.8087916959	-1.2724574296	-0.056287
H	-0.4390756778	 1.6916083181	-0.5616570628	 0.294812
H	 1.9992233113	-0.6234559252	 0.937824739	 0.1191
H	 0.6568322402	-0.5884637773	 2.1129296992	 0.119099
H	-0.7105273426	-2.917547357	-0.7345376639	 0.110425
H	-2.2089996822	-0.6971737353	 0.49751953	 0.097982
H	 0.7733502915	-0.7749203244	-2.1131964541	 0.097982
267.4156	268.33	383.0775	420.3094	487.1603	498.5766	691.3913	698.621	712.1479	748.1678	828.0917	883.0233	883.8377	936.0741	965.1876	1023.4308	1053.8716	1084.6413	1102.0568	1129.137	1148.1802	1168.0703	1197.2494	1202.5338	1248.8909	1300.7933	1311.1307	1397.3985	1435.5362	1522.7827	3035.8057	3079.1305	3123.2383	3128.0594	3175.4211	3751.3545
OC12COC3C1OC23	O[C@@]12CO[C@H]3[C@@H]1O[C@@H]23	
InChI=1S/C5H6O3/c6-5-1-7-2-3(5)8-4(2)5/h2-4,6H,1H2	InChI=1S/C5H6O3/c6-5-1-7-2-3(5)8-4(2)5/h2-4,6H,1H2/t2-,3-,4+,5-
