17
gdb 76057	2.60344	1.28644	1.10245	3.2397	73.36	-0.2485	0.0146	0.2631	1144.3126	0.13605	-417.968723	-417.959932	-417.958988	-418.00262	31.581	
N	 0.2409282098	 1.4107872298	 0.0040288493	-0.523931
C	 0.0642133054	-0.0117933954	 0.0144581693	-0.051348
C	-0.499755571	-0.6961889877	 1.2578100109	-0.282376
C	-0.9898622593	 0.1157892596	 2.3336263006	 0.303547
N	-1.4025499297	 0.8042078854	 3.1682191203	-0.347348
C	-1.2711896197	-0.6906145412	-0.0512463587	 0.255298
C	-2.6296899838	-0.068795236	-0.3419328421	-0.13906
O	-2.9826395087	-1.1991113232	-1.1715932078	-0.270334
C	-1.741295272	-1.8771362332	-0.884213171	-0.141174
H	-0.0429251645	 1.8118913043	-0.8838119128	 0.241247
H	-0.2901659729	 1.8655969413	 0.7393667366	 0.253388
H	 0.8899448901	-0.5552445159	-0.4424277717	 0.113232
H	-0.0349411847	-1.6274578185	 1.5654185804	 0.138712
H	-3.3009009543	 0.0425263836	 0.5183982031	 0.126461
H	-2.6096132481	 0.871986653	-0.9076476665	 0.1029
H	-1.1607639367	-2.0853280273	-1.7925192035	 0.110401
H	-1.9015578398	-2.8138165988	-0.3344215865	 0.110383
80.1384	123.2364	130.5015	154.2102	186.8034	232.9648	347.9834	399.9199	459.6465	520.0572	607.9715	664.9216	777.0689	810.3453	846.3964	886.0258	945.3528	971.3368	982.762	1030.7841	1043.8468	1107.549	1122.177	1149.089	1155.9259	1165.5742	1197.2288	1265.223	1304.2742	1312.8483	1349.7266	1389.6862	1459.0102	1509.7118	1533.5761	1658.3479	2344.7056	3001.4654	3013.1482	3046.8871	3055.7957	3118.8175	3165.7677	3503.9004	3586.4709
NC1C(C#N)C11COC1	N[C@H]1[C@@H](C#N)C21COC2	
InChI=1S/C6H8N2O/c7-1-4-5(8)6(4)2-9-3-6/h4-5H,2-3,8H2	InChI=1S/C6H8N2O/c7-1-4-5(8)6(4)2-9-3-6/h4-5H,2-3,8H2/t4-,5+/m1/s1
