17
gdb 65827	2.57247	1.32123	1.2304	4.2442	73.98	-0.266	0.0104	0.2764	1110.6277	0.134415	-421.846762	-421.838169	-421.837225	-421.879907	32.56	
C	-0.0233414579	 1.556854423	 0.0276666606	-0.43018
C	 0.045722941	 0.0327214077	-0.0401607886	 0.163345
C	 0.8374564414	-0.510804784	-1.2600597763	-0.257846
C	 1.4603972598	-1.7899148018	-0.7034889763	-0.360431
C	 1.6084978409	-1.4905037773	 0.7840814907	 0.426411
O	 2.2874300795	-2.0448336949	 1.5959438592	-0.329412
O	 0.8153576536	-0.425930539	 1.1061979497	-0.236021
C	-1.2941497324	-0.5623690995	 0.0261964367	 0.374201
C	-2.3930881543	-1.0464651654	 0.0623662724	-0.500001
H	 0.9884011487	 1.9707029139	 0.0364254466	 0.129205
H	-0.5622060727	 1.9445854626	-0.8411399425	 0.132596
H	-0.5452017548	 1.8756924226	 0.9322842957	 0.14537
H	 0.1921374037	-0.662819393	-2.1256013055	 0.12597
H	 1.6135964251	 0.2128385381	-1.5273844787	 0.116903
H	 0.7910225353	-2.6504717063	-0.8096835692	 0.150285
H	 2.4251018498	-2.0607723049	-1.1332577058	 0.141043
H	-3.3641927368	-1.4752767517	 0.1063104814	 0.208562
83.8804	126.0825	190.9001	199.8103	235.4418	304.8072	403.0912	473.5912	481.5777	528.5942	573.832	618.8493	642.5491	671.6588	676.2041	748.2144	805.0769	897.8721	928.0457	951.4996	1012.0605	1027.7168	1105.4976	1118.7048	1142.5256	1212.7389	1247.2804	1269.0287	1311.6853	1336.7331	1407.4485	1463.3491	1479.7066	1489.8097	1496.8698	1889.18	2236.515	3050.3903	3061.2919	3065.7222	3128.5436	3131.1071	3137.4143	3139.614	3498.8256
CC1(CCC(=O)O1)C#C	C[C@]1(CCC(=O)O1)C#C	
InChI=1S/C7H8O2/c1-3-7(2)5-4-6(8)9-7/h1H,4-5H2,2H3	InChI=1S/C7H8O2/c1-3-7(2)5-4-6(8)9-7/h1H,4-5H2,2H3/t7-/m1/s1
