23
gdb 103750	3.09115	1.00232	0.88098	2.0816	82.78	-0.2358	0.063	0.2988	1434.8348	0.202864	-425.41255	-425.401623	-425.400679	-425.448046	40.796	
C	 0.1195810423	 1.3807240982	-0.4414488737	-0.381632
C	-0.0719802534	 0.0394537073	 0.2777226299	-0.235814
C	-1.4968588961	-0.5037938932	 0.2064978547	 0.273687
C	-2.5159861983	 0.3143262952	 0.9832387212	-0.466381
C	-1.9344044583	-1.1480966388	-1.1037856831	-0.387377
C	-1.6555711473	-2.0024249421	 0.1157472281	 0.391677
O	-0.4684832812	-2.7500272253	 0.1334515017	-0.476567
C	-2.773319859	-2.7570561699	 0.7963491668	-0.155219
O	-2.8580895051	-4.0215178623	 0.1313818647	-0.432721
H	 1.1667374762	 1.6960796489	-0.3950854545	 0.109573
H	-0.1601454135	 1.3039535509	-1.4976492435	 0.115101
H	-0.4816030237	 2.1799931627	 0.0035630309	 0.111728
H	 0.6102319599	-0.7016475886	-0.144017924	 0.120957
H	 0.2117517406	 0.1472565217	 1.3333822344	 0.088898
H	-2.5289924418	 1.3502939754	 0.6287728809	 0.120376
H	-3.5332878833	-0.0700192347	 0.876031006	 0.111246
H	-2.2748363538	 0.3351613689	 2.0528684969	 0.114149
H	-2.9618327238	-1.0191525266	-1.4305652398	 0.101808
H	-1.2046874908	-1.2026629114	-1.9045840374	 0.110958
H	-0.7264480497	-3.6335442444	-0.1604846646	 0.286728
H	-2.5275569603	-2.8971967007	 1.8592231896	 0.095994
H	-3.726364186	-2.2188062777	 0.7281132624	 0.090789
H	-3.3256362937	-4.6350487633	 0.7045268824	 0.292042
70.7298	100.5506	143.8203	156.3333	196.1687	230.3287	240.1393	273.1393	309.6614	334.4967	374.2317	399.5823	412.1932	446.5868	482.9551	629.3853	690.7512	762.1334	788.1286	893.8638	908.4037	920.4844	954.208	1003.0961	1018.5571	1042.9573	1047.3245	1054.6453	1070.2893	1130.6679	1160.9037	1215.2134	1234.1004	1257.5604	1291.2356	1306.3207	1350.2507	1371.1766	1407.5954	1417.7304	1419.1061	1451.2749	1481.2961	1491.7408	1494.4509	1503.1017	1508.5974	1510.7116	1515.8979	2992.7785	3019.4214	3028.4844	3033.9396	3044.7124	3086.3719	3093.1939	3101.3531	3111.2384	3115.0273	3123.4553	3213.7167	3766.9015	3842.1154
CCC1(C)CC1(O)CO	CC[C@@]1(C)C[C@]1(O)CO	
InChI=1S/C7H14O2/c1-3-6(2)4-7(6,9)5-8/h8-9H,3-5H2,1-2H3	InChI=1S/C7H14O2/c1-3-6(2)4-7(6,9)5-8/h8-9H,3-5H2,1-2H3/t6-,7-/m0/s1
