18
gdb 81633	5.24919	0.82337	0.80503	3.5837	73.82	-0.2329	-0.0226	0.2103	1422.4746	0.145833	-439.000713	-438.992196	-438.991252	-439.034644	31.675	
O	 0.0170325962	 1.4251528002	-0.3920887809	-0.430824
C	-0.1783841928	 0.0563310569	-0.1956311107	 0.160296
C	-0.2470640907	-0.5375031753	 1.2546407778	-0.069468
C	-1.5533709076	 0.2783243157	 1.4651715004	-0.250761
C	-1.6374891691	-0.3892218505	 0.060101577	-0.0527
N	-1.0107653122	-1.6682242326	 0.5993176192	-0.130989
C	-1.8211469214	-2.5449455851	 1.4317525214	-0.245866
C	-2.5070963639	-3.5861263217	 0.5592238573	 0.160174
O	-3.5388854735	-4.1353350989	 0.8437522272	-0.239649
H	 0.9633973297	 1.5920046579	-0.4333467752	 0.291848
H	 0.3655919868	-0.5735526393	-0.9063621811	 0.083343
H	 0.5673643213	-0.7334274897	 1.9554228341	 0.078769
H	-2.2446657208	-0.0747776641	 2.2295608047	 0.103529
H	-1.4583091538	 1.3638621658	 1.4825478831	 0.120571
H	-2.4673680127	-0.4072054443	-0.6480590041	 0.090713
H	-1.1393741212	-3.099907573	 2.0940690131	 0.130385
H	-2.5822555976	-2.0800797225	 2.0739731972	 0.115518
H	-1.9527169766	-3.8120008496	-0.3789801603	 0.08511
53.265	80.8964	137.6429	242.5666	260.5053	319.0675	368.6365	421.7517	451.6388	602.9229	613.9512	713.0943	754.6661	804.7562	830.5949	896.1101	908.9991	928.4431	1006.7975	1044.0229	1065.7135	1087.0329	1096.113	1112.5365	1128.213	1168.2995	1190.5293	1202.0607	1211.2073	1248.7337	1259.0036	1275.3192	1302.9128	1329.1427	1400.3614	1423.1081	1453.4376	1512.3071	1838.216	2890.7922	2993.3154	3032.4932	3065.4596	3089.6173	3097.5174	3110.9563	3158.9253	3829.4529
OC1C2CC1N2CC=O	O[C@H]1[C@H]2C[C@@H]1N2CC=O	
InChI=1S/C6H9NO2/c8-2-1-7-4-3-5(7)6(4)9/h2,4-6,9H,1,3H2	InChI=1S/C6H9NO2/c8-2-1-7-4-3-5(7)6(4)9/h2,4-6,9H,1,3H2/t4-,5+,6+
