23
gdb 56627	1.97748	1.35255	1.10413	0.4977	91.28	-0.256	0.0546	0.3107	1290.8832	0.202809	-351.119777	-351.109065	-351.108121	-351.154891	40.506	
C	-0.3506019771	 1.4289707697	 0.0480910068	-0.3995
C	 0.0742851618	-0.0495783098	-0.0854464776	-0.232069
C	 0.8768896013	-0.2543936974	-1.2941721656	 0.348942
C	 1.5445471779	-0.4096019751	-2.2825368917	-0.483477
C	 0.8034816944	-0.5699466744	 1.1642335444	 0.376734
C	 2.0972833789	 0.1505567745	 1.5014430987	-0.469958
C	-0.0523274795	-1.0476612749	 2.3177646246	-0.352322
C	 0.7377270917	-2.0461218597	 1.5004067279	-0.027164
C	 0.0520588801	-3.0908568543	 0.6455490056	-0.418526
H	 0.5179694733	 2.0898908104	 0.0986001375	 0.128862
H	-0.9509698596	 1.7324841681	-0.8135502445	 0.122079
H	-0.946189998	 1.5671568036	 0.9554831523	 0.117092
H	-0.8458701683	-0.6341267408	-0.2012650356	 0.098625
H	 2.1267173895	-0.5542546033	-3.1586438501	 0.192087
H	 1.9246735024	 1.2019056008	 1.7558264104	 0.114359
H	 2.5861308786	-0.3171352172	 2.3613927171	 0.110468
H	 2.7943842063	 0.11803957	 0.6574601496	 0.128945
H	 0.2668226156	-0.8181801141	 3.3293458448	 0.105231
H	-1.1308530914	-1.0430374557	 2.1855730902	 0.103012
H	 1.6393225618	-2.4190737741	 1.9812730278	 0.07893
H	-0.9085778194	-2.7451807151	 0.253683076	 0.115011
H	 0.6739004177	-3.3802657083	-0.2081146346	 0.127562
H	-0.1490285579	-3.9917457327	 1.2358055359	 0.115077
59.9101	120.7179	162.4231	182.7756	203.5532	223.6331	239.5114	247.9011	306.0022	347.3132	385.7738	433.7573	473.4645	527.8061	572.1409	622.4798	630.2858	714.7257	782.4159	841.29	879.9621	911.0245	934.9371	962.6929	1020.6387	1029.7701	1057.111	1083.0895	1111.2316	1127.0343	1134.2344	1141.066	1189.5932	1254.2699	1302.8989	1325.4061	1353.8123	1405.1172	1410.9316	1418.783	1431.9873	1488.0646	1490.8555	1493.8086	1494.7056	1501.2262	1506.8342	1514.9185	2229.1783	3030.7513	3032.0671	3037.0829	3046.0099	3091.9297	3096.0476	3102.7438	3104.7029	3117.113	3118.7939	3128.8792	3129.569	3199.9538	3504.1169
CC(C#C)C1(C)CC1C	C[C@@H](C#C)[C@@]1(C)C[C@H]1C	
InChI=1S/C9H14/c1-5-7(2)9(4)6-8(9)3/h1,7-8H,6H2,2-4H3	InChI=1S/C9H14/c1-5-7(2)9(4)6-8(9)3/h1,7-8H,6H2,2-4H3/t7-,8+,9+/m0/s1
