18
gdb 44942	2.64562	1.77402	1.59618	2.0015	71.25	-0.2643	0.0223	0.2866	928.2038	0.151902	-439.118739	-439.112007	-439.111063	-439.14967	27.639	
N	-0.05853716	 1.2846008371	-0.1299063086	-0.558359
C	-0.0350032368	 0.0269786215	-0.0546920252	 0.42367
O	 1.1089898242	-0.7427380879	-0.0248026467	-0.256113
C	 0.7256607488	-2.1311484948	 0.0637921031	 0.206547
C	-0.6374299733	-2.1591975167	-0.6338848782	-0.256257
C	-1.2275553617	-0.906967801	 0.035318114	-0.104935
C	-1.4965988673	-1.2624641117	 1.5178995896	-0.238458
C	-0.1911864552	-1.6968652402	 2.2071249816	-0.076975
O	 0.6274062942	-2.5497643921	 1.3960425145	-0.259666
H	 0.8913289168	 1.6606756243	-0.1654556901	 0.223805
H	 1.5201363256	-2.721714873	-0.3923944078	 0.101027
H	-0.5225018511	-2.035168291	-1.7143686393	 0.115352
H	-1.1839042174	-3.0803788327	-0.4264300871	 0.113574
H	-2.1053125989	-0.4797659071	-0.4471820214	 0.099719
H	-1.9113964056	-0.403770351	 2.0547415187	 0.122051
H	-2.2373987531	-2.0686955699	 1.5513207716	 0.108723
H	 0.3899931906	-0.8084227025	 2.4849631032	 0.121172
H	-0.39289413	-2.2629678012	 3.1192120981	 0.115122
136.0154	245.3246	268.0714	374.8374	447.4549	458.3114	485.1844	576.5687	699.0749	718.7978	780.1944	830.5694	855.5297	867.6866	904.2881	908.7846	917.129	966.2666	1004.9334	1031.1152	1063.6933	1084.1883	1098.0325	1106.0184	1176.0746	1210.8146	1244.7438	1270.1154	1296.9173	1309.4644	1332.7434	1351.041	1384.5197	1388.114	1421.9645	1479.8183	1494.6755	1512.1957	1790.0038	3027.1613	3043.9026	3067.3208	3092.7871	3106.4122	3124.8877	3128.9003	3130.695	3463.938
N=C1OC2CC1CCO2	[NH][C]1O[C@@H]2C[C@H]1CCO2	
InChI=1S/C6H9NO2/c7-6-4-1-2-8-5(3-4)9-6/h4-5,7H,1-3H2	InChI=1S/C6H9NO2/c7-6-4-1-2-8-5(3-4)9-6/h4-5,7H,1-3H2/t4-,5-/m1/s1
