13
gdb 5013	3.39268	2.36669	1.39415	2.2132	65.76	-0.2044	-0.026	0.1784	811.8209	0.098446	-394.813407	-394.807003	-394.806059	-394.843793	24.826	
O	-0.0884146883	 1.3113308367	 0.2065145266	-0.407814
C	 0.0017226721	-0.0270115458	 0.0427353039	 0.313057
C	 1.1642537781	-0.7196140144	-0.0811257365	-0.141298
N	 1.2467940196	-2.0891633861	-0.2483843004	-0.272399
C	 0.1243720833	-2.7167288874	-0.2843593513	 0.094762
N	-1.0949427443	-2.1088592825	-0.1686815847	-0.361526
C	-1.2837169458	-0.7256866279	 0.0039516101	 0.329665
N	-2.4067388334	-0.1246737078	 0.1154619712	-0.536051
H	 0.8011349957	 1.6828321699	 0.2198216775	 0.301084
H	 2.116478492	-0.1941292495	-0.0514303864	 0.097602
H	 0.0976863475	-3.7954110359	-0.4128829962	 0.128709
H	-1.9281651786	-2.6784757753	-0.2078027553	 0.255206
H	-3.1911609179	-0.7767439541	 0.0647099814	 0.199003
135.3471	260.4149	327.4324	393.6486	442.4487	475.3396	537.4099	569.5004	602.6277	648.0749	758.7311	764.8954	809.8503	890.0974	915.3524	923.135	1060.7513	1113.8074	1186.1508	1223.4066	1304.441	1322.9582	1414.9302	1458.7457	1483.4684	1610.8477	1661.0527	1728.7805	3146.8311	3172.0568	3458.1849	3604.7723	3807.229
OC1=CN=CNC1=N	OC1=C(NC=NC1)[NH]	
InChI=1S/C4H5N3O/c5-4-3(8)1-6-2-7-4/h1-2,8H,(H2,5,6,7)	InChI=1S/C4H6N3O/c5-4-3(8)1-6-2-7-4/h2,5,8H,1H2,(H,6,7)
