20
gdb 91968	2.42958	1.71412	1.38564	1.4874	78.5	-0.219	0.0688	0.2878	1028.1708	0.17229	-403.110541	-403.102632	-403.101688	-403.142508	32.047	
O	-0.0006241075	 1.3954207782	-0.2129872819	-0.423283
C	 0.0198804604	-0.0193219823	-0.0055121205	-0.040544
C	 0.5669099737	-0.4281534087	 1.3858681835	-0.17805
N	-0.559785244	-0.5726690141	 2.3263625355	-0.107913
C	-1.470620583	 0.5872327905	 2.3490143068	-0.258642
C	-1.7863801013	-0.5946717912	 1.5029026501	-0.11738
C	-1.417376786	-0.5249203155	 0.045176122	 0.427823
C	-2.4038641865	-0.1900621119	-1.0385240108	-0.308738
C	-1.8867055245	-1.5995802677	-0.9078494671	-0.333958
H	 0.9083813384	 1.7107751927	-0.1717993105	 0.281672
H	 0.5889241785	-0.499518834	-0.8139427664	 0.068631
H	 1.061708562	-1.4037806391	 1.3153249718	 0.107506
H	 1.2989850938	 0.2927760604	 1.7667271619	 0.094733
H	-1.9880009461	 0.7228754198	 3.2949019203	 0.108161
H	-1.1652766773	 1.4983012889	 1.8447834004	 0.132921
H	-2.5663923162	-1.2914021532	 1.8005748346	 0.083408
H	-3.4283583329	 0.0098046331	-0.7430584482	 0.114776
H	-2.050405715	 0.4192972578	-1.862313235	 0.124312
H	-1.1866692246	-1.9627015533	-1.6532491279	 0.111501
H	-2.5569594619	-2.3594750006	-0.5186806787	 0.113063
111.1657	208.9382	223.1725	274.9724	310.9951	336.3601	390.5063	438.6478	498.6815	568.3257	701.3844	757.4528	780.9153	800.9369	853.7405	874.9529	909.9384	939.715	952.463	973.6895	989.9915	1035.3975	1048.5615	1061.6257	1079.1721	1087.459	1111.4524	1121.0314	1176.1538	1188.9715	1204.4559	1238.9746	1269.1885	1284.1449	1300.3966	1327.3954	1348.6854	1393.6957	1439.3276	1468.1836	1479.8826	1501.2847	1504.4322	2995.3258	3033.3805	3076.2064	3112.446	3123.2283	3133.2372	3136.808	3204.8097	3210.5844	3224.7308	3808.8794
OC1CN2CC2C11CC1	O[C@H]1CN2C[C@H]2C21CC2	
InChI=1S/C7H11NO/c9-6-4-8-3-5(8)7(6)1-2-7/h5-6,9H,1-4H2	InChI=1S/C7H11NO/c9-6-4-8-3-5(8)7(6)1-2-7/h5-6,9H,1-4H2/t5-,6-,8?/m0/s1
