19
gdb 41106	2.98024	1.9268	1.74622	0.0731	82.82	-0.2166	-0.0058	0.2107	887.0033	0.162211	-348.695513	-348.689238	-348.688294	-348.725458	28.266	
C	-0.0097380401	 1.5337833461	 0.3044813512	-0.282258
C	 1.517497631	 1.4926274994	-0.1075139624	-0.325005
C	 1.147973041	 0.2961052101	-1.021985248	 0.264638
C	 0.3919448691	 0.7513735296	-2.2917277954	-0.132362
C	-0.747631824	 0.0661398575	-2.3544256732	-0.058471
C	-0.7670465263	-0.8827437393	-1.1444174032	-0.190167
C	 0.4470189893	-1.8543994613	-1.3339381661	-0.068979
C	 1.5896255551	-1.155043261	-1.257564673	-0.195926
C	-0.0562009534	 0.0269390703	-0.0951462559	 0.067522
H	-0.2396490676	 1.7662701901	 1.3463557998	 0.092484
H	-0.5788824212	 2.1910934155	-0.3537239279	 0.114227
H	 1.9322518443	 2.3861735674	-0.5821465518	 0.094618
H	 2.1532394624	 1.204587287	 0.7343921872	 0.105145
H	 0.7798554698	 1.4816873423	-2.9906591025	 0.090876
H	-1.5086760442	 0.0922068692	-3.1233631947	 0.096042
H	-1.7179932508	-1.3652097807	-0.9162987123	 0.055482
H	 0.3372334037	-2.9080798332	-1.5559878625	 0.096179
H	 2.5987162713	-1.5215345011	-1.3932572199	 0.098727
H	 0.2414656807	-0.5627636479	 0.7756804003	 0.077228
284.7734	296.5083	394.8328	427.8229	474.3285	544.0435	596.1086	656.7724	685.4598	713.3292	735.5854	767.7456	802.2043	842.1853	854.166	864.968	893.8309	908.4692	929.6599	934.3487	941.0304	1025.0797	1046.291	1073.6213	1096.6444	1110.3216	1129.5965	1190.4638	1197.0735	1203.648	1225.979	1241.4628	1258.5288	1261.8085	1291.6409	1325.0845	1382.7499	1471.8779	1487.3766	1579.7679	1645.7189	3052.9692	3070.5443	3076.1995	3106.7125	3107.4905	3140.2039	3198.8568	3202.1666	3225.7981	3228.358
C1CC23C=CC(C=C2)C13	C1C[C@@]23C=C[C@@H](C=C2)[C@H]13	
InChI=1S/C9H10/c1-4-9-5-2-7(1)8(9)3-6-9/h1-2,4-5,7-8H,3,6H2	InChI=1S/C9H10/c1-4-9-5-2-7(1)8(9)3-6-9/h1-2,4-5,7-8H,3,6H2/t7-,8-,9+/m0/s1
