21
gdb 94876	2.71834	1.64841	1.33846	1.3939	80.93	-0.2111	0.0778	0.2889	1058.2365	0.183785	-387.052326	-387.04441	-387.043466	-387.084243	32.178	
C	-0.0022542748	 1.5870707658	-0.0584326408	-0.400919
C	 0.0168855779	 0.0590056794	 0.0208753392	-0.078409
C	 0.8065038463	-0.5942866856	-1.16781551	-0.109733
O	 1.3559250409	-1.8408027925	-0.7141766635	-0.294948
C	 1.46987988	-1.7439926769	 0.6720975086	 0.382593
C	 2.2091661442	-0.6011152038	 1.2988682116	-0.40248
C	 0.6905461817	-0.5759418181	 1.2223551748	 0.214062
C	 0.0775325825	-1.5024896095	 2.2980703012	-0.293776
C	 0.8496741511	-2.7208597569	 1.6744097574	-0.290175
H	 1.0113694026	 1.995210002	 0.015954788	 0.116524
H	-0.4356331239	 1.933712154	-1.0034180553	 0.111698
H	-0.5945840508	 2.0144720582	 0.7560348585	 0.119466
H	-1.0165952275	-0.3096384933	-0.0075455948	 0.07706
H	 0.1789362073	-0.8008807744	-2.0399207768	 0.110527
H	 1.6160166982	 0.0775638616	-1.4897538477	 0.095947
H	 2.6912330023	-0.7165805421	 2.2660885334	 0.108767
H	 2.7398346813	 0.051053987	 0.6145834543	 0.118887
H	 0.3188876202	-1.248501645	 3.3348636907	 0.099159
H	-1.0067752973	-1.6011900458	 2.2098960524	 0.104547
H	 0.176478805	-3.4258315734	 1.1832292479	 0.11343
H	 1.5400139727	-3.2758190506	 2.3166209208	 0.097772
126.7648	193.2463	228.7116	251.6373	271.4793	347.4357	422.0842	459.1789	583.0319	589.5598	649.5977	701.2002	762.6507	769.3055	852.0278	880.0106	910.8842	921.5092	938.6465	948.8861	954.6768	1025.8139	1046.7861	1059.5495	1088.3163	1107.05	1125.6569	1174.0353	1201.2587	1233.9178	1237.9054	1246.5028	1264.1317	1293.16	1323.6805	1360.2916	1367.6803	1396.1629	1411.5227	1473.8331	1473.9315	1493.9164	1498.7965	1500.0475	1521.2899	2992.7873	3021.0812	3029.5924	3046.9872	3055.883	3080.2541	3094.6057	3101.791	3107.337	3117.1362	3124.1519	3213.0182
CC1COC23CC12CC3	C[C@H]1CO[C@@]23C[C@@]12CC3	
InChI=1S/C8H12O/c1-6-4-9-8-3-2-7(6,8)5-8/h6H,2-5H2,1H3	InChI=1S/C8H12O/c1-6-4-9-8-3-2-7(6,8)5-8/h6H,2-5H2,1H3/t6-,7-,8-/m0/s1
