15
gdb 77289	2.58042	1.30248	1.13507	5.4563	63.97	-0.264	-0.0516	0.2124	1101.0158	0.109659	-494.899567	-494.890882	-494.889938	-494.933476	30.706	
O	 0.118228839	 1.4883626894	 0.0316510787	-0.40148
C	 0.1344859285	 0.122867956	-0.0325852056	 0.111156
C	-0.1352680615	-0.7170652996	 1.1563416633	 0.041231
O	-0.3394858622	-0.0332323678	 2.3576822093	-0.181871
C	-1.2557927213	-0.5472598464	 3.2217731287	 0.186209
O	-1.4197127878	-0.0980613763	 4.3108912857	-0.254758
C	-1.2074383616	-0.6823652324	 0.0374139169	-0.24919
C	-2.430373039	 0.1147837348	 0.1857052658	 0.158543
O	-2.4894593136	 1.175016786	 0.782280663	-0.298647
H	-0.6325767925	 1.7564150049	 0.5909654343	 0.319989
H	 0.8575723125	-0.2380599611	-0.7561695314	 0.134611
H	 0.3834477082	-1.6663932186	 1.2627394497	 0.129739
H	-1.8044705481	-1.4073322103	 2.7959066988	 0.086097
H	-1.2938772581	-1.5832805571	-0.5597481471	 0.112401
H	-3.3296623325	-0.2967788414	-0.31504662	 0.105971
65.6017	118.9156	142.8956	179.5075	225.5158	244.6153	285.2202	439.1225	447.2036	508.9177	586.0426	684.9866	703.8465	776.7316	819.7302	930.0308	975.4813	1012.5398	1047.0326	1057.9192	1084.0699	1113.36	1139.7853	1169.4468	1260.1104	1360.0908	1370.8634	1373.6286	1421.1523	1429.4355	1486.3387	1758.5136	1882.9436	2930.0601	2973.2727	3138.8806	3173.4626	3181.7787	3635.6517
OC1C(OC=O)C1C=O	O[C@H]1[C@@H](OC=O)[C@H]1C=O	
InChI=1S/C5H6O4/c6-1-3-4(8)5(3)9-2-7/h1-5,8H	InChI=1S/C5H6O4/c6-1-3-4(8)5(3)9-2-7/h1-5,8H/t3-,4+,5-/m0/s1
