16
gdb 98955	5.0043	0.76193	0.71135	3.345	68.48	-0.2735	-0.0912	0.1823	1579.1291	0.120535	-475.063398	-475.053585	-475.052641	-475.099943	32.878	
C	-0.0022974323	 1.375153267	 0.3524944994	-0.3775
C	-0.1885537373	 0.0007125672	-0.2852608991	-0.304301
C	 0.8708869318	-0.3136821493	-1.3122343585	 0.452405
O	 1.740925195	 0.4028186488	-1.6979451351	-0.294934
O	 0.7166496786	-1.6333704555	-1.7412271327	-0.273285
C	 1.3297681315	-2.081885319	-2.8809749856	 0.314196
N	 1.3479299993	-1.4385536011	-3.9628569521	-0.434128
C	 1.9093409593	-3.4662449547	-2.6830621465	 0.1032
O	 2.4258290754	-4.0693936546	-3.5861492614	-0.230242
H	 0.9574943024	 1.440348608	 0.871292142	 0.135092
H	-0.0210459445	 2.1622684942	-0.4049267754	 0.141684
H	-0.7991510394	 1.5691519012	 1.0750389158	 0.119057
H	-0.1822030029	-0.8021579701	 0.4608581001	 0.137839
H	-1.1589428754	-0.0813166174	-0.7909362771	 0.144741
H	 1.8325364341	-2.0098337084	-4.6620274902	 0.256424
H	 1.8209812142	-3.8735191563	-1.6566286038	 0.109752
37.9742	51.5556	70.1958	130.5147	169.9309	200.5295	264.1904	270.7862	365.93	439.2794	522.8133	554.5263	650.7437	728.4672	806.7	833.7656	912.214	942.1326	1003.6001	1045.0791	1066.2526	1094.0247	1109.1316	1123.9786	1277.8259	1321.6762	1374.6037	1415.0186	1419.1331	1454.0374	1493.9811	1500.5816	1720.1056	1827.7915	1882.8543	2949.4507	3041.5704	3055.4678	3073.6404	3127.758	3133.4633	3445.3808
CCC(=O)OC(=N)C=O	CCC(=O)O[C]([NH])C=O	
InChI=1S/C5H7NO3/c1-2-5(8)9-4(6)3-7/h3,6H,2H2,1H3	InChI=1S/C5H7NO3/c1-2-5(8)9-4(6)3-7/h3,6H,2H2,1H3
