18
gdb 37584	3.49483	2.00565	1.98281	1.4407	76.69	-0.2313	0.0171	0.2484	803.8493	0.152876	-364.800628	-364.795171	-364.794227	-364.82995	24.973	
C	-0.0112695518	 1.4871590518	 0.0102561673	-0.18702
C	 1.4801960999	 1.8081632404	-0.002167697	-0.09144
C	 2.1320085388	 0.6636519793	 0.7385366981	-0.063635
C	 2.1177068273	 0.6717397561	-0.767365522	-0.063636
C	 0.9735983437	-0.3427304246	-1.1052506344	-0.068003
C	 1.4134829983	-1.7278951649	-0.6880660999	-0.073041
C	 1.4261335684	-1.7350546054	 0.6469250152	-0.073039
C	 0.9944049114	-0.3544802743	 1.0871974251	-0.068002
N	 0.0256623961	 0.0170038302	 0.0020279477	-0.103872
H	-0.527760912	 1.8463019135	 0.9063587686	 0.102101
H	-0.5446339586	 1.8558321944	-0.871985221	 0.102102
H	 1.8759659164	 2.8162098612	-0.0005104412	 0.082847
H	 3.0360396865	 0.7598061478	 1.3238892935	 0.084675
H	 3.0104678401	 0.7742710626	-1.3687143151	 0.084675
H	 0.534868153	-0.234768489	-2.0983560275	 0.068471
H	 1.723317205	-2.5101229293	-1.3676176563	 0.099173
H	 1.7487108601	-2.5244932813	 1.312055709	 0.099172
H	 0.5746193676	-0.2572076385	 2.0895530498	 0.068471
374.8391	377.0567	448.1373	501.646	616.5351	700.1892	726.3169	727.674	794.1515	809.2673	829.2897	829.4646	874.4625	894.4652	925.8876	934.3143	957.3673	959.4126	972.588	1001.6242	1012.4236	1045.9873	1049.7909	1068.9273	1080.2996	1102.5765	1130.3293	1213.7917	1226.2755	1227.5535	1246.7945	1272.653	1285.8735	1295.491	1311.3241	1354.3708	1377.4473	1498.1049	1644.6192	3045.9848	3090.7208	3101.7379	3104.4459	3189.522	3205.7485	3212.5436	3217.2426	3237.6649
C1C2C3C2C2C=CC3N12	C1[C@H]2[C@@H]3[C@H]2[C@H]2C=C[C@@H]3N12	
InChI=1S/C8H9N/c1-2-6-8-4-3-9(6)5(1)7(4)8/h1-2,4-8H,3H2	InChI=1S/C8H9N/c1-2-6-8-4-3-9(6)5(1)7(4)8/h1-2,4-8H,3H2/t4-,5-,6+,7-,8+
