23
gdb 121154	2.88163	1.02347	0.84024	0.9592	87.58	-0.2412	0.0849	0.3261	1489.5289	0.204691	-388.263603	-388.253872	-388.252928	-388.298814	36.278	
C	 0.2276161342	 1.3114418677	-0.3471520673	-0.385152
C	-0.0276891551	-0.0681378936	 0.236046072	-0.036145
O	-1.1741507081	-0.6147823112	-0.3886555355	-0.255024
C	-1.4916891332	-1.9115385037	 0.0372129742	 0.096149
C	-2.2223120667	-2.1048933762	 1.4020727352	-0.251127
C	-3.2053712551	-3.084030516	 0.6926864656	-0.308841
C	-2.7078466685	-2.5324211966	-0.6495415755	 0.333027
C	-3.5412688855	-1.8126609689	-1.6683367171	-0.303856
C	-2.8187497126	-3.0899328642	-2.0344742383	-0.339279
H	 1.1096465047	 1.7648311109	 0.1150820359	 0.113314
H	 0.3944694758	 1.2467090791	-1.4262021023	 0.12507
H	-0.631081601	 1.9660720009	-0.1728771853	 0.126138
H	 0.842122344	-0.7265435531	 0.0708771883	 0.084765
H	-0.1791109343	-0.0031684733	 1.3256533561	 0.089738
H	-0.6025717296	-2.560592826	-0.0344747039	 0.057721
H	-1.6424368117	-2.4901718234	 2.2435191944	 0.092548
H	-2.7183565537	-1.176091139	 1.6958583035	 0.109237
H	-2.9349376615	-4.1334096762	 0.8475121233	 0.100689
H	-4.2684166256	-2.9622819756	 0.9149345158	 0.100995
H	-4.6208873097	-1.8480449851	-1.5596652918	 0.10524
H	-3.1513692855	-0.8776417319	-2.054040702	 0.127
H	-1.9522979992	-3.0166397904	-2.684853962	 0.110794
H	-3.4081690421	-3.9906594841	-2.1756999131	 0.106998
62.1966	79.843	103.633	124.8109	233.0316	245.4837	266.8252	331.818	354.8911	445.8894	531.1523	549.1513	738.5843	780.7099	793.4575	820.9002	865.9455	897.1537	900.7891	916.2734	933.2649	980.7548	1001.4605	1052.0001	1062.2926	1074.7772	1096.8172	1122.9784	1155.3876	1175.2252	1188.1894	1190.1672	1193.145	1235.8505	1246.6895	1274.5123	1291.2138	1295.1155	1370.9375	1383.7904	1403.5134	1441.09	1461.1963	1474.6347	1483.2012	1497.3591	1499.8421	1504.8033	1529.3287	2951.6554	2960.8552	2987.4519	3044.1142	3048.1907	3063.1751	3096.9152	3118.3649	3119.6707	3120.4946	3123.2515	3129.6377	3200.3289	3222.8394
CCOC1CCC11CC1	CCO[C@H]1CCC21CC2	
InChI=1S/C8H14O/c1-2-9-7-3-4-8(7)5-6-8/h7H,2-6H2,1H3	InChI=1S/C8H14O/c1-2-9-7-3-4-8(7)5-6-8/h7H,2-6H2,1H3/t7-/m0/s1
