17
gdb 110648	2.52842	1.61367	1.22058	1.1995	68.03	-0.2246	0.0533	0.2778	1052.5008	0.132741	-458.846051	-458.837478	-458.836533	-458.879534	31.955	
C	 0.2315677888	 1.0357575564	 0.3969966738	-0.232996
O	-0.4809326036	 0.0902525	-0.3742668788	-0.224387
C	 0.3181074352	-0.5974965589	-1.2693174246	 0.059933
C	 1.4290717072	-1.6087448207	-0.9880237627	-0.237144
C	 1.1032135663	-2.6582480565	 0.1118428869	 0.03706
O	-0.154884655	-2.35686237	 0.7313165817	-0.231286
C	-0.1492859362	-3.0257872323	-0.5314644739	-0.050768
C	 0.1181735299	-2.0070950042	-1.6983799677	 0.273952
O	-0.0269258072	-2.4020081672	-3.0142903326	-0.451235
H	 0.990546559	 0.5494589171	 1.0247056909	 0.115817
H	 0.7283935327	 1.7881610231	-0.2353528071	 0.100156
H	-0.4963898563	 1.5369464845	 1.03845365	 0.128273
H	 0.6249015737	 0.011725791	-2.1284397506	 0.093436
H	 2.4162777731	-1.4852200896	-1.4148982278	 0.102166
H	 1.8211283589	-3.2423482796	 0.6743852773	 0.111451
H	-0.6667636403	-3.9727689002	-0.6313433071	 0.112983
H	-0.9093095062	-2.1473792928	-3.3090827678	 0.29259
47.2304	155.0146	179.1352	217.5607	258.4942	283.7761	326.5649	369.9427	422.6287	539.9167	639.9307	667.9514	756.1422	789.7107	822.2646	877.8092	884.8284	937.7539	964.6462	983.163	1027.3211	1047.3347	1073.4601	1149.1403	1171.2288	1181.2571	1212.6538	1228.3703	1254.0189	1263.7226	1307.733	1354.6523	1383.604	1459.7571	1486.0547	1497.1963	1508.1045	2980.2201	3031.4333	3041.0476	3123.3313	3181.7216	3194.6534	3202.4328	3781.8424
COC1C2C3OC3C12O	CO[C@H]1[C@H]2[C@H]3O[C@H]3[C@@]12O	
InChI=1S/C6H8O3/c1-8-4-2-3-5(9-3)6(2,4)7/h2-5,7H,1H3	InChI=1S/C6H8O3/c1-8-4-2-3-5(9-3)6(2,4)7/h2-5,7H,1H3/t2-,3-,4+,5-,6+/m1/s1
