13
gdb 21801	6.52968	1.1887	1.09389	4.7654	59.68	-0.2462	-0.0221	0.224	1024.0337	0.096785	-394.814462	-394.807459	-394.806515	-394.847102	24.041	
O	-0.2248949374	 0.0320609131	 0.1728060915	-0.2342
C	-0.0146484161	 1.1994995771	-0.0207493827	 0.158706
C	 1.370486662	 1.7812928142	-0.2864770682	-0.373496
C	 1.3412842914	 2.8798235576	-1.2977848777	 0.326141
N	 1.9447427485	 2.7869549314	-2.4740948489	-0.256571
N	 1.634833329	 3.9745590128	-3.0471040836	-0.175237
C	 0.8733350918	 4.7118552825	-2.2169407267	 0.020564
N	 0.6644815845	 4.0517239706	-1.0952548857	-0.29872
H	-0.8298788859	 1.9546399401	-0.0006661999	 0.100465
H	 1.7229186292	 2.1875353436	 0.6720750416	 0.147961
H	 2.0459432638	 0.9811372355	-0.5921867073	 0.146248
H	 1.977001499	 4.191042201	-3.9689420278	 0.286553
H	 0.5068429603	 5.6968369206	-2.4640371845	 0.151587
45.2405	69.6573	153.2065	316.3627	388.6709	449.2515	553.3556	680.5962	684.9892	775.938	816.3883	859.9371	995.2109	1000.018	1034.1282	1048.6849	1104.9912	1162.0302	1204.4241	1279.0335	1300.1509	1353.6243	1417.9438	1438.0795	1472.1372	1487.0773	1561.8996	1838.2334	2906.3845	3024.6587	3135.2775	3260.612	3665.6382
O=CCC1=NNC=N1	O=CCc1n[nH]cn1	
InChI=1S/C4H5N3O/c8-2-1-4-5-3-6-7-4/h2-3H,1H2,(H,5,6,7)	InChI=1S/C4H5N3O/c8-2-1-4-5-3-6-7-4/h2-3H,1H2,(H,5,6,7)
