21
gdb 114768	3.83264	1.04999	0.89087	1.3937	84.47	-0.2259	0.0258	0.2518	1339.5842	0.184295	-387.084579	-387.076096	-387.075152	-387.1177	33.185	
O	 0.0681478979	 1.3933771557	 0.1108362814	-0.422483
C	 0.0426475349	-0.0262585542	 0.0623026979	-0.091188
C	-1.4151829213	-0.4777731766	-0.0239487869	-0.023449
C	-1.4971981503	-2.0014395048	-0.2513731693	-0.242654
C	-2.9140298075	-2.5557071462	-0.1028550476	-0.039099
C	-3.3101172963	-3.2851485989	 1.1597182807	-0.288766
C	-3.825256638	-1.8834734784	 0.8954971182	-0.051342
C	-3.2766934165	-0.7148587144	 1.6271062782	-0.101844
C	-2.1916297343	-0.0638459795	 1.2063842723	-0.039234
H	 0.9750945349	 1.6740573151	 0.2619673042	 0.2867
H	 0.596555633	-0.4026637769	-0.813025116	 0.082509
H	 0.5082344414	-0.4632610905	 0.9610623815	 0.084287
H	-1.8451584816	 0.0372583608	-0.8964583067	 0.092686
H	-1.1052783492	-2.2477247907	-1.2445634569	 0.09528
H	-0.8315313315	-2.4917145368	 0.4704599965	 0.096509
H	-3.3762993558	-2.9026998547	-1.0213206016	 0.081368
H	-4.0114979712	-4.109764782	 1.0862273684	 0.105532
H	-2.5508988107	-3.4040309532	 1.9264434327	 0.109184
H	-4.8800415783	-1.8160105931	 0.6398105853	 0.086675
H	-3.8046795514	-0.3837197887	 2.5187598132	 0.08229
H	-1.8263140081	 0.8101846281	 1.7369650947	 0.09704
77.536	126.7232	196.079	214.8158	267.6056	329.2377	365.3101	417.4344	506.6145	520.676	565.7652	734.4619	743.17	791.6374	817.6557	858.6691	885.4148	910.1577	981.1379	991.6376	1008.5116	1049.1917	1058.0311	1063.8529	1084.4638	1098.9519	1116.8251	1131.8674	1139.679	1201.5115	1220.1885	1235.2451	1247.4645	1268.5628	1307.1161	1338.6651	1358.2262	1380.8662	1404.1686	1423.5205	1455.3812	1480.7712	1494.0869	1519.8132	1709.299	2958.3338	2981.8777	2998.9236	3020.6465	3062.2786	3122.676	3127.2748	3144.7662	3153.7523	3182.1614	3211.8611	3833.6113
OCC1CC2CC2C=C1	OC[C@H]1C[C@H]2C[C@H]2C=C1	
InChI=1S/C8H12O/c9-5-6-1-2-7-4-8(7)3-6/h1-2,6-9H,3-5H2	InChI=1S/C8H12O/c9-5-6-1-2-7-4-8(7)3-6/h1-2,6-9H,3-5H2/t6-,7-,8+/m1/s1
