16
gdb 44924	3.00438	1.48401	1.47199	2.6913	68.2	-0.2396	-0.0282	0.2114	950.3033	0.127113	-437.949976	-437.943194	-437.94225	-437.981159	27.241	
O	 0.0296595422	 0.0184848006	 0.0918556206	-0.318454
C	 0.0022724946	 1.2169378554	 0.037035347	 0.43247
C	-1.237267268	 2.1383301619	 0.0546627295	-0.339752
C	-0.5940372355	 3.5531207427	 0.0201897246	-0.146504
C	 0.6187281435	 3.3155709118	-0.9107475268	-0.239995
C	 1.2021767141	 2.1920812893	-0.036403589	-0.115607
N	 1.2244464235	 2.8763559705	 1.2673751736	-0.300624
C	 0.0961254196	 3.6768985249	 1.3892258271	 0.413135
O	-0.2716703295	 4.2598606823	 2.3792312089	-0.372508
H	-1.8362631991	 1.9445371911	-0.8414924305	 0.136906
H	-1.8693167546	 1.9539277012	 0.9266638345	 0.149207
H	-1.2689454838	 4.3740913929	-0.2084468571	 0.098671
H	 0.3371706181	 2.9768784822	-1.9117695938	 0.116437
H	 1.2909369114	 4.1733429719	-0.9825035064	 0.125178
H	 2.1571422923	 1.7473688245	-0.3074111101	 0.099715
H	 1.6325866613	 2.4555462669	 2.089577588	 0.261726
106.0304	193.4838	316.4817	408.3336	461.882	475.512	511.8868	545.8595	593.4053	689.352	727.864	762.4603	813.7784	846.4347	911.3808	932.5721	955.9171	989.3343	992.1737	1022.729	1110.0569	1119.2799	1144.3932	1169.2281	1213.8838	1229.9437	1282.086	1294.749	1302.6688	1333.78	1388.0162	1454.0503	1495.1861	1851.283	1866.6569	3057.6666	3065.2945	3113.7043	3124.5187	3150.0246	3153.4767	3619.4011
O=C1CC2CC1NC2=O	O=C1C[C@@H]2C[C@H]1NC2=O	
InChI=1S/C6H7NO2/c8-5-2-3-1-4(5)7-6(3)9/h3-4H,1-2H2,(H,7,9)	InChI=1S/C6H7NO2/c8-5-2-3-1-4(5)7-6(3)9/h3-4H,1-2H2,(H,7,9)/t3-,4+/m0/s1
