21
gdb 59071	2.05949	1.43644	1.06102	3.1124	83.9	-0.2451	0.0162	0.2613	1246.5362	0.18053	-383.266268	-383.256047	-383.255103	-383.301178	37.361	
C	 0.2262867642	 0.2208048014	-2.0160856813	-0.391581
C	 0.0503765663	 0.1973309016	-0.4960862957	 0.067165
C	 0.1216037805	 1.6031519374	 0.1037126887	-0.388132
N	-1.275778099	-0.3670967174	-0.1996503266	-0.090359
C	-1.5070856927	-1.8006093436	-0.1198488723	 0.001914
C	-0.4414000391	-2.8580671857	-0.3077946521	-0.428104
C	-1.5600769616	-0.9409776208	 1.1210753004	-0.187441
C	-0.517795245	-1.0816555181	 2.1091356946	 0.298415
N	 0.3122741871	-1.1737340192	 2.9106205686	-0.351397
H	 1.193879371	 0.658639558	-2.2787318156	 0.118521
H	 0.1853713033	-0.7861424743	-2.4413632845	 0.11536
H	-0.5637878201	 0.8181774672	-2.4816042142	 0.126807
H	 0.8590466743	-0.4046206266	-0.0551870975	 0.084395
H	 0.0255429676	 1.5749281417	 1.1926732668	 0.12995
H	 1.0822767094	 2.0685736411	-0.135545483	 0.117088
H	-0.6804624745	 2.2298012533	-0.2984300152	 0.122544
H	-2.4798432274	-2.0860733197	-0.5194180671	 0.105739
H	 0.4957872881	-2.6105047355	 0.1932165847	 0.149386
H	-0.7960349585	-3.808148516	 0.1041338673	 0.134887
H	-0.2376813007	-3.0142598716	-1.3716887398	 0.131839
H	-2.5205403231	-0.6628310534	 1.5479816538	 0.133003
76.4472	109.0699	144.3226	171.972	187.8277	211.6559	238.126	261.4954	338.5262	359.8861	384.1374	451.5916	527.0557	614.7566	647.689	699.383	794.1973	836.051	901.1724	934.9448	959.3067	971.2933	1019.3018	1033.8579	1091.027	1131.9628	1154.4085	1165.1066	1180.2408	1198.1717	1328.2893	1357.1686	1360.3618	1372.4217	1399.7791	1409.6168	1419.6879	1421.1178	1482.3606	1485.5995	1489.7925	1495.4111	1499.055	1511.2411	2342.9341	2989.1818	3039.2887	3043.3356	3046.4259	3104.9656	3106.2102	3113.3482	3114.211	3118.5823	3119.5848	3136.9911	3141.4253
CC(C)N1C(C)C1C#N	CC(C)N1[C@@H](C)[C@H]1C#N	
InChI=1S/C7H12N2/c1-5(2)9-6(3)7(9)4-8/h5-7H,1-3H3	InChI=1S/C7H12N2/c1-5(2)9-6(3)7(9)4-8/h5-7H,1-3H3/t6-,7+,9?/m0/s1
