20
gdb 73101	2.63592	1.48049	1.24233	3.8744	78.93	-0.237	0.0382	0.2752	1099.6761	0.172307	-403.199712	-403.191467	-403.190522	-403.232511	32.456	
C	-0.0844698261	 1.5241652436	-0.0152036699	-0.455018
C	-0.0218255654	 0.0044091851	 0.0209175476	 0.305171
C	-1.3150762356	-0.76424313	 0.4321670361	-0.251293
C	-0.4616104825	-1.6805259635	 1.3510105578	-0.234577
C	 0.7544239752	-0.721888169	 1.1802078404	-0.033201
C	 2.0275137791	-1.3033849123	 0.5732273846	-0.359069
C	 1.7715052931	-1.2884308467	-0.9415643667	 0.396751
O	 2.4428411007	-1.8101575174	-1.8038652463	-0.379243
N	 0.6314141774	-0.5537603124	-1.149013924	-0.332548
H	 0.9150220773	 1.9536472857	-0.1389284616	 0.122782
H	-0.7064618339	 1.8732299879	-0.8483243505	 0.116437
H	-0.5192133151	 1.9167834455	 0.9092447251	 0.117931
H	-2.0037573866	-0.1272076137	 0.9940153503	 0.100729
H	-1.8657524106	-1.2451439225	-0.379684718	 0.099232
H	-0.8263470482	-1.8160968312	 2.3710194995	 0.103823
H	-0.2762669574	-2.6680704281	 0.9202476361	 0.110853
H	 0.926899231	-0.0887424388	 2.0519482835	 0.073052
H	 2.9172043032	-0.6976934457	 0.7772593263	 0.126251
H	 2.2478974687	-2.322463445	 0.9019440165	 0.128739
H	 0.3039480458	-0.3965011716	-2.0902148069	 0.243199
84.8393	96.6306	219.6316	249.2515	321.1421	368.7973	398.9715	475.361	490.4905	585.1512	596.0754	639.3628	649.8783	755.7386	798.892	855.5802	873.7476	905.7043	944.255	958.6311	983.1799	1002.9934	1059.818	1097.4061	1145.9785	1163.2193	1195.1848	1210.416	1231.9018	1248.4471	1272.6215	1281.5732	1295.4199	1315.2441	1347.3459	1410.295	1414.4534	1463.4772	1472.932	1489.9952	1491.6203	1494.317	1826.4477	3025.6795	3052.852	3057.7036	3064.6979	3090.2459	3093.0792	3101.991	3106.6035	3109.7546	3124.4746	3624.7353
CC12CCC1CC(=O)N2	C[C@]12CC[C@H]1CC(=O)N2	
InChI=1S/C7H11NO/c1-7-3-2-5(7)4-6(9)8-7/h5H,2-4H2,1H3,(H,8,9)	InChI=1S/C7H11NO/c1-7-3-2-5(7)4-6(9)8-7/h5H,2-4H2,1H3,(H,8,9)/t5-,7-/m0/s1
