19
gdb 108690	2.05059	1.36422	0.87486	3.931	82.26	-0.2426	-0.0602	0.1824	1336.5294	0.158131	-423.048571	-423.03918	-423.038236	-423.083854	32.866	
C	-0.2546130866	 1.5692484628	-0.092653149	-0.378214
C	 0.0689354497	 0.0659696188	 0.0200300759	-0.302519
C	 0.7864637129	-0.4726158607	-1.1792984175	 0.19145
C	 2.0505549248	-0.9147097621	-1.3038148012	 0.101923
C	 2.3029491935	-1.3631604664	-2.7201144174	-0.155378
O	 1.0816104498	-1.1098084418	-3.4146017357	-0.266824
C	 0.1073336938	-0.6033592775	-2.519391953	-0.141813
C	 3.0840130472	-0.9954849783	-0.27661697	 0.063202
O	 4.203076417	-1.4153165515	-0.4889415843	-0.270695
H	 0.6613164944	 2.1581468737	-0.1972559575	 0.130889
H	-0.8918669063	 1.7817985312	-0.9558040288	 0.128482
H	-0.7797592266	 1.9112115411	 0.8034892346	 0.125996
H	 0.654928842	-0.111781865	 0.9258504373	 0.119413
H	-0.8703794554	-0.4899676873	 0.1433502887	 0.119111
H	 3.124871889	-0.8083397107	-3.1926827496	 0.121489
H	 2.5599278468	-2.4308719216	-2.7735086878	 0.119124
H	-0.7582481048	-1.2858114793	-2.4565835414	 0.110067
H	-0.276875803	 0.3607838096	-2.8882528346	 0.115285
H	 2.7923219218	-0.644746955	 0.7361884912	 0.069011
46.6546	80.2839	131.1043	146.2114	179.4494	224.0099	246.9099	316.7555	365.5872	513.1614	545.904	613.0419	708.3393	786.4905	839.5596	948.1802	955.7221	971.327	986.7731	1027.0222	1059.8728	1075.8557	1102.8018	1128.5207	1171.5807	1213.1831	1222.0755	1281.2334	1306.2813	1346.2276	1388.0621	1392.9289	1410.5029	1426.2271	1483.6896	1498.6819	1504.1944	1510.9964	1525.8145	1701.9044	1769.9089	2898.377	2953.9368	2985.5191	3001.7838	3021.2374	3027.1189	3044.8072	3085.6322	3119.2047	3120.8334
CCC1=C(COC1)C=O	CCC1=C(COC1)C=O	
InChI=1S/C7H10O2/c1-2-6-4-9-5-7(6)3-8/h3H,2,4-5H2,1H3	InChI=1S/C7H10O2/c1-2-6-4-9-5-7(6)3-8/h3H,2,4-5H2,1H3
