18
gdb 72714	2.70298	2.0834	1.64178	2.6943	76.64	-0.2066	0.0032	0.2097	881.1008	0.147844	-401.806362	-401.799239	-401.798295	-401.837096	30.464	
O	 0.1005083852	 1.3396361862	 0.1394384123	-0.475119
C	 0.1172383066	-0.0699008006	-0.0173111898	 0.432836
C	 0.1902738781	-0.4258390617	-1.5487245806	-0.346379
C	-1.4147319258	-0.4097068922	-1.5035060194	-0.347685
C	-1.2341471172	-0.7803552969	-0.0051875957	 0.236091
N	-1.4221468021	-0.3457824454	 1.4791180975	-0.413878
C	 0.1131035647	-0.6631310963	 1.463960794	-0.158477
C	 0.0680285976	-2.1546933651	 1.209920938	-0.048142
C	-0.8331814537	-2.2340481012	 0.2286626431	-0.113248
H	 0.0498504343	 1.7578002069	-0.7245900451	 0.284181
H	 0.6968196772	 0.2892770412	-2.2067133003	 0.093236
H	 0.5630332706	-1.4284541065	-1.7553510052	 0.132752
H	-1.8096016687	 0.5937081221	-1.6750016441	 0.111719
H	-1.9452485531	-1.1186693483	-2.1442228206	 0.109443
H	-1.4832189196	 0.6760201303	 1.4753863904	 0.222739
H	 0.7092213896	-0.245923935	 2.2761735994	 0.074625
H	 0.6280860014	-2.9184594019	 1.7281332278	 0.107686
H	-1.212769955	-3.0868960755	-0.3172361115	 0.097621
198.4991	257.9681	297.5949	304.7404	410.1666	451.8445	498.3122	525.5773	585.2508	614.6111	681.385	715.4357	730.2831	793.8851	836.8856	852.1767	866.7496	908.9856	911.8611	934.8823	967.7734	1003.8122	1040.8146	1061.5554	1100.6748	1121.1496	1136.5666	1164.7637	1189.5938	1212.68	1218.6403	1236.524	1278.7331	1284.9335	1329.9605	1363.1978	1472.7146	1485.0648	1622.8179	3040.165	3066.1027	3119.5401	3122.0165	3146.3804	3217.7429	3252.6344	3428.648	3833.5394
OC12CCC11NC2C=C1	O[C@]12CC[C@@]31N[C@H]2C=C3	
InChI=1S/C7H9NO/c9-7-4-3-6(7)2-1-5(7)8-6/h1-2,5,8-9H,3-4H2	InChI=1S/C7H9NO/c9-7-4-3-6(7)2-1-5(7)8-6/h1-2,5,8-9H,3-4H2/t5-,6-,7-/m0/s1
