22
gdb 59298	2.58064	1.32808	0.98995	1.5977	82.04	-0.244	0.0226	0.2667	1274.7686	0.193989	-404.376114	-404.366558	-404.365614	-404.410272	35.94	
C	-0.3113429381	 1.5372442725	 0.2784145182	-0.384885
C	-0.0337619497	 0.0550465243	-0.007920818	 0.013218
C	 0.824158348	-0.089154038	-1.274882308	-0.395128
C	 0.652226659	-0.6128438556	 1.1954831684	 0.031757
N	-0.0239315796	-0.3342804135	 2.4850892425	-0.28396
C	 0.0563903172	-1.4080361659	 3.1507387022	 0.108631
O	 0.6169952505	-2.5069048327	 2.5957119189	-0.231834
C	 0.783794983	-2.1693210027	 1.1817811831	 0.078809
C	-0.2635515837	-2.9598244005	 0.4051636136	-0.403774
H	 0.6244743847	 2.0805342656	 0.4577592935	 0.107977
H	-0.8090182649	 2.00593994	-0.5769201411	 0.101817
H	-0.938920907	 1.6561542004	 1.162763053	 0.139496
H	-0.9971061749	-0.4427046906	-0.1751023688	 0.075514
H	 1.784596652	 0.4250330509	-1.1494260099	 0.114718
H	 1.0390335616	-1.1322473963	-1.5264007168	 0.110997
H	 0.320448591	 0.3608762726	-2.1361102437	 0.115723
H	 1.6600533391	-0.1758486479	 1.272745499	 0.082686
H	-0.288057396	-1.5446673989	 4.1704833603	 0.136439
H	 1.7891511828	-2.4915120267	 0.9023850511	 0.095645
H	-1.2750975962	-2.6566756506	 0.690370262	 0.132156
H	-0.1524555457	-2.8226154701	-0.6731596593	 0.126382
H	-0.1518393229	-4.0245974362	 0.6267253697	 0.127616
88.1767	94.3649	178.4299	203.23	226.9908	252.1364	255.202	319.4936	339.9009	430.1577	451.6582	473.9935	560.8776	738.0815	796.9372	853.2383	860.5588	900.1852	932.4826	951.6094	965.8779	972.0837	1020.0433	1045.3973	1069.7822	1120.6537	1132.8435	1155.7621	1179.9398	1200.2677	1297.448	1306.0149	1311.3166	1341.875	1350.998	1374.1609	1396.0528	1398.7424	1412.8659	1422.684	1486.0688	1486.9435	1489.9503	1495.6955	1503.3954	1512.6957	1704.7007	2976.2382	3026.9992	3027.4759	3034.4933	3050.0767	3084.8846	3088.782	3095.4265	3103.8315	3123.0261	3130.6131	3140.0524	3207.2684
CC(C)C1N=COC1C	CC(C)[C@H]1[N][CH]O[C@H]1C	
InChI=1S/C7H13NO/c1-5(2)7-6(3)9-4-8-7/h4-7H,1-3H3	InChI=1S/C7H13NO/c1-5(2)7-6(3)9-4-8-7/h4-7H,1-3H3/t6-,7+/m0/s1
