16
gdb 24560	2.18509	2.04005	1.19441	2.2219	85.34	-0.2042	-0.0265	0.1777	1019.2805	0.12672	-396.922439	-396.914877	-396.913933	-396.954466	28.861	
N	 0.2230851063	 1.2767981404	 0.5001428583	-0.291377
C	 1.1847659954	 2.1789989084	 0.0271917077	-0.082039
C	 1.1861358101	 2.8727283164	-1.1284903676	 0.021011
N	 0.2948943894	 2.9511097809	-2.1603824941	-0.220814
C	 0.0042538903	 2.0415198446	-3.0206164694	-0.026798
C	 0.5525851615	 0.7089352959	-3.15877939	-0.140861
C	 0.6171245994	-0.302980989	-2.2553613468	-0.015025
N	-0.0694202357	-0.510417783	-1.1029326451	-0.23901
C	-0.3185738251	 0.1466961605	-0.0422040616	 0.10089
H	-0.043760633	 1.4168400702	 1.4634792334	 0.255677
H	 1.9360531154	 2.4394354712	 0.7657278742	 0.10606
H	 1.9808306783	 3.6144769077	-1.2076640739	 0.114944
H	-0.6647328306	 2.3717083924	-3.8222796467	 0.10625
H	 0.8946351138	 0.4662372389	-4.1632773287	 0.093784
H	 1.1105204028	-1.2134381019	-2.5982632286	 0.10486
H	-1.0662014384	-0.2800080836	 0.6306528889	 0.11245
117.2475	139.7134	192.9055	248.7593	361.2963	364.3177	491.9386	505.8743	573.0173	617.5503	689.1657	742.9663	780.8137	816.5701	874.3231	880.6956	923.0947	941.4611	960.6013	969.7788	987.6132	1037.0443	1116.085	1227.0387	1307.5826	1353.9996	1407.2697	1448.9717	1457.6822	1498.8658	1541.0904	1602.6947	1667.5641	1686.3841	1779.4824	3062.6643	3097.3434	3110.7247	3125.943	3143.5878	3175.2125	3596.798
N1C=CN=CC=CN=C1	N1C=CN=C[CH][CH]N=C1	
InChI=1S/C6H7N3/c1-2-7-4-5-9-6-8-3-1/h1-6H,(H,8,9)/b3-1-,5-4-,7-2-	InChI=1S/C6H7N3/c1-2-7-4-5-9-6-8-3-1/h1-6H,(H,8,9)/b3-1?,5-4-,7-2-
