15
gdb 42185	3.12698	1.35353	1.11095	1.7851	73.44	-0.2498	-0.0709	0.1789	1087.0942	0.110208	-420.52447	-420.516403	-420.515458	-420.559492	29.638	
O	-0.0286193497	 0.0257891993	-0.4834664001	-0.291072
C	-0.0669851052	 1.194306607	-0.1617555959	 0.103369
C	 1.1137193415	 1.9635558758	 0.1668301125	 0.30176
C	 2.0958158802	 2.6032093511	 0.4400544563	-0.436715
C	-1.3793687967	 1.9217690503	-0.0862881328	 0.345784
C	-2.3789652707	 2.2259917575	-1.2385633488	-0.244416
C	-2.839324495	 2.9373699546	 0.0550446635	 0.019041
C	-2.5815059983	 1.6427484529	 0.8605816268	-0.244416
O	-1.4315470394	 3.3452374769	 0.3042124347	-0.344729
H	 2.9634743472	 3.1682238467	 0.6811463015	 0.219652
H	-1.9891414933	 2.8813799664	-2.0174486819	 0.11827
H	-2.9778175197	 1.3978298993	-1.6213260236	 0.114331
H	-3.6060036985	 3.6982295007	 0.1924756569	 0.106535
H	-3.1972089192	 0.7660571242	 0.6524729129	 0.114331
H	-2.3690271431	 1.7874056174	 1.9198671081	 0.118274
6.215	111.5687	175.4723	217.3512	266.554	413.9476	444.5287	536.3694	588.9768	650.8252	665.8201	708.5805	724.5857	745.882	818.2189	892.3287	934.4906	948.6062	949.8304	984.214	1074.7514	1074.779	1097.5858	1122.9431	1159.1447	1212.879	1232.0775	1235.9695	1323.5715	1465.5126	1507.6041	1757.3636	2214.7302	3075.7898	3081.7785	3134.0617	3160.7989	3165.7052	3494.0893
O=C(C#C)C12CC(C1)O2	O=C(C#C)[C@@]12C[C@@H](C1)O2	
InChI=1S/C7H6O2/c1-2-6(8)7-3-5(4-7)9-7/h1,5H,3-4H2	InChI=1S/C7H6O2/c1-2-6(8)7-3-5(4-7)9-7/h1,5H,3-4H2/t5-,7+
