20
gdb 97167	3.2227	1.13459	0.88794	2.9257	84.96	-0.236	0.0118	0.2478	1359.8604	0.170027	-403.171115	-403.161529	-403.160585	-403.206678	34.221	
C	 0.175611715	 1.3499479451	 0.0710293087	-0.313389
N	 0.0056370978	-0.0854117189	 0.2480571116	-0.301916
C	-1.1109268483	-0.5950587072	-0.057347154	 0.405642
C	-1.354586105	-2.0770148919	 0.115022698	-0.401818
C	-2.2859154801	-2.6467434804	-0.9292088823	 0.3181
C	-2.0939645011	-4.0789752912	-1.3311132562	-0.482424
C	-3.2375187799	-1.8521256873	-1.4138019147	-0.179335
C	-3.3659634146	-0.4322423844	-0.9515005688	-0.120668
O	-2.1277636563	 0.1665359813	-0.5469728439	-0.257142
H	 1.2005600929	 1.6228885252	 0.3344830683	 0.110952
H	-0.0136425129	 1.6640696325	-0.9639487479	 0.115188
H	-0.5090952426	 1.9256454754	 0.7081527012	 0.114686
H	-0.3799967605	-2.5692068068	 0.1155585776	 0.137046
H	-1.7843710067	-2.250896335	 1.1142191394	 0.132195
H	-2.1501337277	-4.7424059621	-0.4585631668	 0.129191
H	-2.8476503581	-4.4006957635	-2.0545651893	 0.123727
H	-1.1019733428	-4.232483185	-1.7741531337	 0.133946
H	-3.9610057201	-2.2030267683	-2.1438659474	 0.092621
H	-3.7471790589	 0.2089310246	-1.7527871053	 0.125229
H	-4.0772195902	-0.3524400622	-0.1140873446	 0.118169
39.0315	50.6359	113.8784	185.6446	207.803	238.5858	249.8703	316.7365	425.5143	452.2072	470.7198	580.1303	632.0791	729.9778	806.3583	811.2184	885.5891	940.2106	956.3573	1029.3312	1039.0375	1062.876	1066.5767	1105.062	1108.9761	1174.1977	1185.9716	1207.8756	1246.3707	1256.5963	1311.526	1369.0931	1411.0983	1422.615	1437.6709	1463.2523	1478.2959	1484.1219	1488.5249	1498.0102	1505.3774	1752.2759	1763.6087	2978.5965	2989.102	3002.6604	3018.6377	3052.7133	3066.7184	3068.6145	3101.4317	3108.3096	3114.4808	3171.2242
CN=C1CC(C)=CCO1	CN=C1CC(=CCO1)C	
InChI=1S/C7H11NO/c1-6-3-4-9-7(5-6)8-2/h3H,4-5H2,1-2H3	InChI=1S/C7H11NO/c1-6-3-4-9-7(5-6)8-2/h3H,4-5H2,1-2H3
