16
gdb 84058	3.43345	1.21132	0.99705	4.044	77.09	-0.2571	-0.0513	0.2058	1159.9418	0.125328	-400.754644	-400.746848	-400.745903	-400.787031	29.705	
O	-0.0665512757	 1.4644933254	-0.067227221	-0.421628
C	 0.0057469097	 0.0431602572	-0.009309475	 0.061095
C	 0.6618370641	-0.4664468062	 1.2656698656	-0.206756
C	-0.1525927702	-1.2765396076	 1.9570432506	 0.213939
C	 0.1605656954	-1.9084882079	 3.1930371086	 0.203366
N	 0.3951397666	-2.444970996	 4.1924964189	-0.33536
C	-1.4908337938	-1.4136652431	 1.2913025476	-0.152335
C	-2.277786459	-0.1230987307	 1.200507575	-0.271212
C	-1.3990633621	-0.550427892	 0.0525711241	-0.047399
H	 0.8249170821	 1.8077072307	-0.1879676646	 0.287664
H	 0.5418860371	-0.3393542189	-0.8923952578	 0.084292
H	 1.652700318	-0.160448071	 1.5807703376	 0.11865
H	-2.0043485961	-2.3667091672	 1.3081523933	 0.108975
H	-3.3487825255	-0.2040793519	 1.0516910862	 0.121373
H	-1.9607870706	 0.7154842805	 1.8092092318	 0.136367
H	-1.8690388699	-0.8551027213	-0.8734205809	 0.09897
106.27	144.1974	170.9406	264.2319	273.1438	387.4926	445.0256	492.6388	552.9748	579.9206	652.8573	720.3707	792.9152	823.0421	848.8434	878.7457	955.4494	963.4725	1006.3936	1034.3153	1063.7126	1072.7604	1103.2538	1108.0923	1161.2135	1194.8026	1232.8479	1263.6571	1326.6894	1354.1753	1379.2707	1416.4937	1480.6875	1665.9148	2338.8743	2970.8535	3141.2688	3191.1068	3198.2296	3206.4582	3233.7037	3815.2871
OC1C=C(C#N)C2CC12	O[C@H]1C=C(C#N)[C@H]2C[C@@H]12	
InChI=1S/C7H7NO/c8-3-4-1-7(9)6-2-5(4)6/h1,5-7,9H,2H2	InChI=1S/C7H7NO/c8-3-4-1-7(9)6-2-5(4)6/h1,5-7,9H,2H2/t5-,6-,7+/m1/s1
