17
gdb 43303	3.25293	1.72401	1.29728	3.6174	78.58	-0.2349	-0.0548	0.1801	967.3532	0.139052	-384.674183	-384.667843	-384.666899	-384.704736	26.396	
O	-0.0241963457	-0.0556754923	-0.0673298978	-0.337881
C	-0.0492829388	 1.1580335573	-0.0002621588	 0.368219
C	-1.2937443132	 1.9499812846	 0.0641819707	-0.189955
C	-1.1617041804	 3.2807763093	 0.1352639829	-0.078753
C	 0.2041468404	 3.8932202268	 0.1462550388	-0.035122
C	 1.2638090764	 3.2966198848	-0.8447482513	-0.059007
C	 2.3712639258	 3.8185808568	 0.1060880815	-0.246578
C	 1.2949978042	 3.1933371275	 1.0300535238	-0.059002
C	 1.2178814774	 1.9887760503	 0.0244664733	-0.100942
H	-2.2434994933	 1.4274381928	 0.0512555445	 0.111278
H	-2.0260573366	 3.9372833073	 0.1858327336	 0.11038
H	 0.1865772068	 4.9840734266	 0.2066433689	 0.070066
H	 1.2312639371	 3.3523354482	-1.9342229535	 0.084275
H	 3.3337528673	 3.3036861354	 0.0617110072	 0.101816
H	 2.4959408112	 4.9035507685	 0.1637817341	 0.095368
H	 1.2987038296	 3.1290088481	 2.1195333725	 0.084277
H	 2.0971196218	 1.3424872881	-0.0257562003	 0.081563
142.4854	265.0317	365.2526	382.5911	472.3494	516.9829	543.7016	700.3509	718.2788	744.6233	784.9309	838.3126	886.3368	896.8723	903.6356	947.7614	995.9191	1009.8662	1010.1457	1033.7292	1074.3272	1081.2607	1106.0957	1119.2122	1157.4479	1169.3021	1209.4725	1218.2568	1231.4168	1244.3281	1270.8133	1317.0961	1386.611	1405.0654	1516.9928	1671.2908	1779.7042	3052.339	3079.344	3090.3032	3099.1864	3105.9294	3120.2726	3166.5428	3204.9669
O=C1C=CC2C3CC2C13	O=C1C=C[C@@H]2[C@H]3C[C@@H]2[C@@H]13	
InChI=1S/C8H8O/c9-7-2-1-4-5-3-6(4)8(5)7/h1-2,4-6,8H,3H2	InChI=1S/C8H8O/c9-7-2-1-4-5-3-6(4)8(5)7/h1-2,4-6,8H,3H2/t4-,5-,6+,8+
