19
gdb 105660	2.01954	1.34934	1.19716	0.7365	77.56	-0.2493	0.0394	0.2887	1175.6456	0.157334	-422.9725	-422.962918	-422.961973	-423.00657	36.22	
O	 0.0614518652	 1.2545037529	-0.4564461198	-0.424052
C	-0.0944606662	-0.1269712368	-0.2068382358	-0.102508
C	-1.5650204321	-0.5166414374	 0.0410545163	 0.053873
C	-2.425096753	-0.430235626	-1.2648298855	-0.256824
C	-2.2050724237	-1.9487143492	-1.4958975518	-0.279734
C	-1.7935321175	-2.0807965492	-0.0093013402	 0.120039
O	-0.7664913859	-2.9538708521	 0.3723662573	-0.422717
C	-2.0609915121	 0.1890156543	 1.2081324296	 0.229436
C	-2.4502938413	 0.7954631685	 2.1730809724	-0.440911
H	-0.3178481178	 1.7204443392	 0.2988462664	 0.287559
H	 0.2801403689	-0.633333587	-1.1037670846	 0.091815
H	 0.51119969	-0.4604484746	 0.6479834193	 0.107137
H	-3.4664778393	-0.1876344766	-1.0473249393	 0.115633
H	-2.0474876679	 0.2617519862	-2.0188739208	 0.124336
H	-3.0536963117	-2.5463367516	-1.8333743229	 0.110018
H	-1.3600374711	-2.1446696472	-2.1647051644	 0.099806
H	-2.6515165687	-2.3359064363	 0.6174967071	 0.10559
H	-0.0539185769	-2.8926428757	-0.2719481633	 0.285536
H	-2.8119126889	 1.3105021785	 3.0286750799	 0.195968
99.3916	113.3613	141.1796	175.5939	189.6095	290.5615	320.2095	350.0695	395.	430.296	488.3941	527.5327	585.7119	617.5504	619.7937	640.4791	715.8509	797.025	889.2707	919.6204	950.8753	971.1696	1023.4388	1074.0666	1086.8151	1136.0017	1142.8267	1166.5972	1217.2881	1240.9499	1250.4443	1265.4111	1306.5552	1332.4138	1374.1499	1432.8857	1436.1587	1483.8485	1497.2717	1511.4426	2219.278	3000.7739	3048.5662	3064.5547	3082.068	3084.9572	3116.2246	3140.5784	3499.0717	3780.4274	3817.8258
OCC1(CCC1O)C#C	OC[C@]1(CC[C@H]1O)C#C	
InChI=1S/C7H10O2/c1-2-7(5-8)4-3-6(7)9/h1,6,8-9H,3-5H2	InChI=1S/C7H10O2/c1-2-7(5-8)4-3-6(7)9/h1,6,8-9H,3-5H2/t6-,7-/m1/s1
