17
gdb 83473	3.34254	1.10077	0.96113	2.0817	70.71	-0.2394	0.0179	0.2572	1237.9008	0.135796	-455.074302	-455.065919	-455.064975	-455.107813	31.195	
O	-0.111581466	 1.3252360058	-0.1341858433	-0.43533
C	-0.2284874757	-0.0578051009	-0.138358271	 0.080074
C	-0.4686254206	-0.8352835668	 1.123087088	-0.167528
N	-1.2790811737	 0.0496804507	 1.9930794408	-0.355287
C	-2.4370783384	-0.0638510624	 1.0348921154	-0.246954
C	-1.5411440066	-0.7945295465	 0.0340227976	 0.330301
O	-2.0009488892	-1.7993652	-0.8063302085	-0.221396
C	-2.2099781674	-1.4540891282	-2.1047893897	 0.100224
N	-2.6863011924	-2.3050007959	-2.9019211917	-0.438871
H	-0.3165064421	 1.5950420255	 0.7752804195	 0.299103
H	 0.4453651838	-0.5375581797	-0.8436637622	 0.117963
H	 0.169030852	-1.6205752184	 1.5099585007	 0.112555
H	-1.4934218964	-0.3888585086	 2.8813438482	 0.236712
H	-3.2278640526	-0.7205519635	 1.4070444356	 0.126965
H	-2.8617481382	 0.8980976805	 0.7303573643	 0.117079
H	-1.9198581085	-0.4199539123	-2.3256136593	 0.111259
H	-2.7744895579	-1.8979222891	-3.8308952444	 0.233132
65.69	125.1952	126.6682	215.1112	262.8947	336.3949	371.3737	420.5363	504.6551	538.6959	648.7477	747.6618	773.1047	823.983	828.0386	843.1146	943.412	959.5949	989.612	1000.2832	1035.2772	1053.8759	1060.7507	1105.0568	1137.8145	1150.1812	1220.7993	1256.5811	1266.0692	1281.8779	1310.6509	1357.5667	1401.9071	1412.8528	1473.9134	1504.5563	1746.0528	3047.5364	3054.4411	3106.4008	3155.5914	3192.8211	3517.1875	3542.5999	3690.5988
OC1C2NCC12OC=N	O[C@H]1[C@H]2NC[C@@]12O[CH][NH]	
InChI=1S/C5H8N2O2/c6-2-9-5-1-7-3(5)4(5)8/h2-4,6-8H,1H2	InChI=1S/C5H8N2O2/c6-2-9-5-1-7-3(5)4(5)8/h2-4,6-8H,1H2/t3-,4+,5+/m1/s1
