19
gdb 54826	2.64433	1.4013	1.11755	3.5975	77.55	-0.2275	-0.0102	0.2172	1166.6208	0.15695	-423.008388	-422.999243	-422.998299	-423.042607	33.654	
C	-0.6000626622	 1.2506008793	 0.1145080272	-0.482156
C	-0.0247031739	-0.1536171312	 0.2205828597	 0.386636
O	 0.2744851489	-0.6356985783	 1.2923071546	-0.315554
C	 0.112476043	-0.8815141385	-1.0768327378	-0.192843
C	 0.9025227232	-2.1640058965	-1.3141113923	-0.216831
C	 0.7271952853	-3.1298152365	-0.1436271182	-0.089284
O	-0.7236421017	-3.0203516759	-0.2412522444	-0.306694
C	-0.5990970686	-2.2040827393	-1.3963968858	 0.447036
C	-1.6079613715	-2.3838350159	-2.4838178636	-0.482995
H	 0.0658398723	 1.8901356627	-0.4768826505	 0.135831
H	-1.566423765	 1.2326905236	-0.4020223465	 0.136974
H	-0.7212985128	 1.6747780466	 1.1117637556	 0.140719
H	 0.1152107169	-0.2345789426	-1.9510604207	 0.090904
H	 1.6573851014	-2.224585198	-2.0873104882	 0.101905
H	 1.040437969	-4.1485652518	-0.3960120695	 0.105348
H	 1.097799811	-2.8280067965	 0.8346272738	 0.143231
H	-2.6073628044	-2.1107175664	-2.1275313977	 0.137681
H	-1.3680529941	-1.7550518617	-3.345371296	 0.125238
H	-1.6392441868	-3.4288015131	-2.8078025098	 0.134854
49.0618	128.7125	141.4721	176.2056	199.4939	267.7631	318.7857	334.8765	400.3923	457.0346	598.75	618.5794	666.3492	748.7699	807.3745	864.6356	919.3853	931.2473	953.0036	981.1761	986.063	1000.5036	1040.0683	1068.3387	1101.2192	1108.7759	1165.5864	1190.7451	1203.3187	1253.4511	1336.0938	1352.3523	1377.0092	1408.4092	1460.6054	1466.822	1475.0916	1477.2148	1497.2048	1498.8819	1792.8176	3032.472	3036.0859	3046.4547	3092.6273	3100.558	3120.9193	3141.2685	3151.5017	3152.4777	3195.2002
CC(=O)C1C2COC12C	CC(=O)[C@H]1[C@H]2CO[C@@]12C	
InChI=1S/C7H10O2/c1-4(8)6-5-3-9-7(5,6)2/h5-6H,3H2,1-2H3	InChI=1S/C7H10O2/c1-4(8)6-5-3-9-7(5,6)2/h5-6H,3H2,1-2H3/t5-,6+,7-/m1/s1
