17
gdb 85021	2.39986	1.67535	1.04578	2.1128	70.33	-0.2602	-0.0056	0.2546	1125.1993	0.1363	-455.244731	-455.235604	-455.23466	-455.279266	32.154	
C	-0.1146885537	 1.5855723844	 0.0474148599	-0.391257
C	 0.0642425051	 0.0703884199	-0.0434000562	-0.097672
N	 0.9555759234	-0.3740891265	-1.1016955658	-0.365979
C	 1.9378521706	-1.2212140029	-0.6573185844	 0.472612
O	 2.7555470883	-1.8276933464	-1.3067216596	-0.397793
N	 1.8243764593	-1.2464867275	 0.7503209283	-0.161956
C	 2.7446758287	-1.9688005178	 1.605663704	-0.34593
C	 0.7578155435	-0.5047689707	 1.2019491576	 0.415989
O	 0.4370536692	-0.3360586102	 2.3544435029	-0.374135
H	 0.8565864459	 2.0849055985	 0.1015181509	 0.131847
H	-0.6536449279	 1.9674056028	-0.8243106937	 0.120486
H	-0.6856179601	 1.8271350106	 0.9473523146	 0.15029
H	-0.9207219549	-0.4116419469	-0.1225275351	 0.120586
H	 0.7163128624	-0.3701650365	-2.0788436968	 0.262918
H	 3.4390166307	-2.504299787	 0.9575473664	 0.166385
H	 3.2940754906	-1.2778850108	 2.2512691872	 0.145835
H	 2.199451119	-2.674616253	 2.23730509	 0.147775
48.6179	89.8988	128.8787	183.4979	222.5899	256.055	270.2754	378.0873	382.0561	440.2729	580.8912	614.2108	665.3336	718.4296	758.1197	776.2845	931.4493	958.6015	1036.1714	1093.7372	1126.1837	1142.3836	1161.4603	1201.4132	1281.3999	1313.8063	1364.6899	1400.7257	1418.3207	1420.4661	1472.6041	1488.933	1491.6636	1497.2002	1512.7124	1818.8762	1875.2078	3007.1158	3047.1184	3052.2155	3116.457	3121.8231	3135.4253	3160.7938	3666.462
CC1NC(=O)N(C)C1=O	C[C@H]1NC(=O)N(C)C1=O	
InChI=1S/C5H8N2O2/c1-3-4(8)7(2)5(9)6-3/h3H,1-2H3,(H,6,9)	InChI=1S/C5H8N2O2/c1-3-4(8)7(2)5(9)6-3/h3H,1-2H3,(H,6,9)/t3-/m1/s1
