21
gdb 82549	2.86252	1.42624	1.30357	1.7603	81.55	-0.2545	0.073	0.3275	1094.1116	0.183467	-387.074115	-387.06589	-387.064946	-387.106631	32.615	
C	 0.4504285102	 1.7690811546	 0.191093793	-0.443084
C	 0.1628435059	 0.2860632621	 0.072098287	-0.001254
C	 1.1402117204	-0.7694344174	-0.3987699393	-0.065363
C	 2.637520739	-0.4908472139	-0.3737986743	-0.299373
C	 2.9590267179	-0.0845232522	 1.067118761	 0.409295
C	 4.3253905609	 0.1214820338	 1.5575846494	-0.247773
O	 3.4822011185	 1.2386725749	 1.268550256	-0.266239
C	 1.8001148606	-0.5165317605	 1.9698938377	-0.299377
C	 0.6279052277	-0.7851464023	 1.0350471152	-0.065364
H	 1.4547012465	 1.9930853766	 0.5525939085	 0.162611
H	 0.3329053016	 2.2578267096	-0.7829521159	 0.11252
H	-0.2613310468	 2.2396849279	 0.8791186729	 0.112518
H	-0.8455614009	 0.0941124609	-0.2903132622	 0.080599
H	 0.7851881377	-1.496328538	-1.1214937704	 0.076807
H	 3.1785611888	-1.4069557708	-0.639636824	 0.104069
H	 2.9638968425	 0.2936836111	-1.06404485	 0.115102
H	 4.5522870843	-0.0325518717	 2.6127130437	 0.109163
H	 5.1705580111	-0.0135892835	 0.8823423832	 0.109164
H	 2.0565815864	-1.4413713616	 2.5005032216	 0.10407
H	 1.6097906342	 0.2521470148	 2.7257771426	 0.115102
H	-0.0996365864	-1.5234662643	 1.3549115644	 0.076807
106.5097	150.7644	157.7749	229.5516	297.478	393.5655	397.4761	416.4126	462.1256	567.8312	668.029	741.5333	760.376	777.9595	808.7561	882.1894	882.6272	933.2796	956.9477	963.9715	1004.379	1023.9115	1065.1363	1077.4825	1095.72	1127.4639	1130.2703	1144.2483	1163.1011	1187.5399	1228.6325	1229.0225	1246.3926	1288.9594	1303.0228	1349.9472	1370.9293	1416.6505	1426.9733	1443.8679	1475.7453	1486.9005	1502.2113	1507.3407	1532.7741	3031.222	3031.7261	3035.0388	3070.9565	3079.3492	3080.4554	3081.5222	3114.0403	3149.517	3154.0751	3154.8222	3166.3105
CC1C2CC3(CO3)CC12	C[C@H]1[C@H]2C[C@]3(CO3)C[C@@H]12	
InChI=1S/C8H12O/c1-5-6-2-8(4-9-8)3-7(5)6/h5-7H,2-4H2,1H3	InChI=1S/C8H12O/c1-5-6-2-8(4-9-8)3-7(5)6/h5-7H,2-4H2,1H3/t5-,6+,7-,8+
