21
gdb 110012	2.02426	1.67017	1.03076	1.9544	81.23	-0.2382	0.0208	0.2591	1224.33	0.181476	-424.233206	-424.223525	-424.222581	-424.267875	35.761	
C	-0.7447010765	 0.9236487192	 0.0623220858	-0.246577
O	 0.4357185207	 0.1671088641	-0.150965348	-0.259988
C	 0.9378313395	-0.4613995707	 1.0237495909	-0.011671
C	 0.1772788809	-1.7889086506	 1.3625513609	 0.111476
O	-0.4939982892	-2.2746539869	 0.2149216883	-0.448754
C	 1.2957592627	-2.7652954304	 1.8034774687	-0.274088
C	 2.5493193445	-2.1480449276	 1.2390631178	-0.169708
C	 2.3693491713	-0.9004678301	 0.8029420959	 0.312026
C	 3.3753611665	 0.0330083028	 0.2097718417	-0.496432
H	-0.5852408056	 1.6964306407	 0.8279434062	 0.113177
H	-0.9905105283	 1.4078086769	-0.8857445884	 0.130412
H	-1.585331198	 0.2873966527	 0.3680855702	 0.12808
H	 0.8715644618	 0.2547528612	 1.8601906636	 0.07163
H	-0.564505756	-1.643404615	 2.1570712224	 0.064869
H	-0.2712234745	-1.6657685394	-0.5026576727	 0.289762
H	 1.3492429181	-2.8459502541	 2.8981351858	 0.099234
H	 1.088593576	-3.7690719304	 1.4181404048	 0.117275
H	 3.502230497	-2.6677468622	 1.2240781756	 0.088231
H	 4.3503751747	-0.4480310197	 0.0960824455	 0.12096
H	 3.0423190285	 0.388865189	-0.7708334291	 0.139594
H	 3.506543026	 0.9248492503	 0.836888364	 0.120491
55.6142	96.4918	165.4206	175.0313	204.4967	234.038	277.2871	317.0062	382.8859	404.1365	446.7972	521.2681	541.4498	657.2002	787.0137	807.1826	856.8173	891.2721	933.2579	974.218	1000.3176	1033.23	1034.9187	1069.0898	1100.3548	1126.2179	1178.0285	1183.7713	1203.1395	1217.2972	1247.2169	1281.3475	1317.123	1346.6821	1356.7748	1384.4848	1410.7957	1427.4746	1474.8337	1475.3376	1476.8488	1487.7727	1491.671	1507.4752	1728.5534	2955.0868	2994.9414	3008.4316	3020.4357	3030.1226	3056.5026	3072.3066	3077.7897	3117.1262	3119.6123	3180.8697	3735.8135
COC1C(O)CC=C1C	CO[C@H]1[C@@H](O)CC=C1C	
InChI=1S/C7H12O2/c1-5-3-4-6(8)7(5)9-2/h3,6-8H,4H2,1-2H3	InChI=1S/C7H12O2/c1-5-3-4-6(8)7(5)9-2/h3,6-8H,4H2,1-2H3/t6-,7+/m0/s1
