21
gdb 103097	2.1653	1.23897	1.16053	1.0625	85.95	-0.2421	0.0384	0.2804	1249.9344	0.178956	-387.04959	-387.039015	-387.038071	-387.084624	39.351	
C	-0.3867249709	 1.4719860864	 0.1114190501	-0.386526
C	 0.2546870253	 0.0914905236	-0.0813475989	-0.239102
C	 0.8505947772	-0.4796132961	 1.1958227743	 0.279323
C	 2.0880582593	 0.2219852536	 1.723034	-0.460425
C	-0.0794015438	-1.0876615347	 2.2110044595	 0.08626
O	-1.4504546835	-1.1187690609	 1.9755402417	-0.42718
C	 0.8383047012	-2.0095958726	 1.4052594332	-0.341755
C	 0.2165964985	-2.9012879191	 0.4774568531	 0.296047
C	-0.374323112	-3.6537715519	-0.2558709588	-0.423914
H	 0.335568127	 2.2191608889	 0.4554952437	 0.11094
H	-0.8066875284	 1.8346457876	-0.8320203309	 0.109438
H	-1.1963223814	 1.4157817879	 0.8443236999	 0.137376
H	-0.4982926691	-0.5973380717	-0.471170792	 0.109229
H	 1.0444213386	 0.1459013518	-0.8419323461	 0.092545
H	 1.8872786612	 1.2784657089	 1.9283354516	 0.125893
H	 2.4392181298	-0.2317729451	 2.6554230977	 0.114285
H	 2.907736325	 0.1696195262	 0.9973759871	 0.121328
H	 0.1655087747	-0.9632819774	 3.2647194823	 0.095224
H	-1.6662109402	-1.9549368081	 1.5416204213	 0.291356
H	 1.694317252	-2.4212500465	 1.9323002027	 0.110641
H	-0.8524012305	-4.3191401708	-0.9315088515	 0.199017
77.5259	112.7404	121.3881	193.4941	195.4248	228.288	240.4354	280.8111	303.9767	345.8515	375.7287	399.0294	519.1877	580.5967	606.2078	642.2388	659.8745	695.4285	779.3523	816.3487	821.5039	934.7647	993.5786	1011.806	1032.6168	1056.6657	1086.9264	1111.3563	1136.717	1168.2184	1230.266	1306.2151	1312.9746	1346.0083	1372.0706	1378.8097	1406.2751	1417.1599	1433.8855	1479.2658	1492.1977	1499.7461	1506.6377	1509.0138	2219.6453	3025.7543	3028.9801	3039.69	3090.6759	3093.2625	3100.5102	3108.3659	3113.3243	3122.1124	3145.6853	3501.3946	3744.6092
CCC1(C)C(O)C1C#C	CC[C@@]1(C)[C@@H](O)[C@H]1C#C	
InChI=1S/C8H12O/c1-4-6-7(9)8(6,3)5-2/h1,6-7,9H,5H2,2-3H3	InChI=1S/C8H12O/c1-4-6-7(9)8(6,3)5-2/h1,6-7,9H,5H2,2-3H3/t6-,7+,8-/m1/s1
