17
gdb 129583	3.72911	1.24906	1.02571	6.1118	74.31	-0.2336	0.011	0.2446	1148.8665	0.13832	-414.167158	-414.159271	-414.158327	-414.199972	30.119	
N	 0.71142698	 1.3419227343	 0.7351589367	-0.594914
H	 1.3984005325	 1.6601805569	 1.412903882	 0.23996
H	 0.0080077002	 3.457668668	-0.3923826928	 0.280388
H	 0.9666326329	 0.3986836206	 0.4676526782	 0.238091
C	-0.6251314733	 1.3812996126	 1.3004447831	 0.187252
C	-1.4857885481	 0.1410302254	 1.1770995091	-0.288947
C	-0.9906744105	 0.5732663713	 2.5328168759	-0.299417
C	-1.2656939455	 2.7027349585	 1.109189806	 0.372556
C	-2.350200295	 3.3612192059	 1.6511635128	-0.19053
N	-2.4741973415	 4.579022266	 1.0528686628	-0.191397
N	-1.5244281031	 4.7210187686	 0.1718205021	-0.120987
N	-0.7963211226	 3.5897806674	 0.2015991649	-0.243754
H	-2.5334454442	 0.2817371473	 0.9386610563	 0.135416
H	-1.0362890792	-0.7359378929	 0.7212469712	 0.118388
H	-0.1931411078	-0.0031020047	 2.9890967293	 0.114736
H	-1.7012187908	 0.9950009332	 3.2349992901	 0.128865
H	-3.0347939841	 3.0410358315	 2.4198387421	 0.114294
52.3411	157.9937	187.5386	235.1761	324.8038	340.1526	443.4302	485.802	542.5109	650.3962	719.4512	748.9261	771.0683	826.4763	834.9692	871.2783	898.1725	951.4272	986.5665	1003.8263	1051.0952	1055.1459	1072.0791	1082.5479	1128.4452	1179.3272	1190.0631	1223.9093	1275.8212	1312.4169	1350.1996	1396.5133	1437.2802	1461.8324	1494.1769	1604.133	1655.7074	3129.0831	3134.8236	3215.5308	3230.0613	3265.8692	3497.622	3589.6297	3650.0471
[NH3+]C1(CC1)C1=CN=N[N-]1	NC1(CC1)c1cnn[nH]1	
InChI=1S/C5H7N4/c6-5(1-2-5)4-3-7-9-8-4/h3H,1-2,6H2/q-1/p+1	InChI=1S/C5H8N4/c6-5(1-2-5)4-3-7-9-8-4/h3H,1-2,6H2,(H,7,8,9)
