20
gdb 78984	2.97532	1.73799	1.44199	1.8631	80.9	-0.2239	0.084	0.3079	997.1233	0.171772	-365.942398	-365.934832	-365.933888	-365.97389	30.797	
C	-0.028645138	 1.6643442042	 0.0173772876	-0.424049
C	 0.024702465	 0.1454775932	 0.0157080941	 0.021545
C	 1.0483833658	-0.6082142762	-0.878572356	-0.142457
C	 2.4517223186	-0.2695987286	-0.3413887046	-0.045071
C	 2.2087891875	-0.2799463401	 1.1290990179	-0.045074
C	 0.707968574	-0.6224746197	 1.1815591434	-0.142477
C	 1.131008614	-1.7595963441	 0.1853564884	 0.40872
C	 0.5770222861	-3.1424286854	 0.0841750158	-0.529513
N	 2.6361031823	-1.5413873715	 0.435455921	-0.214709
H	 0.9660785208	 2.0901863081	 0.1847100848	 0.119447
H	-0.4021105334	 2.0494688025	-0.9378923302	 0.114635
H	-0.6904465655	 2.0374251397	 0.8067863847	 0.114636
H	-0.9732266448	-0.2795688021	-0.1521578285	 0.07031
H	 0.9066518066	-0.7624193019	-1.9472862171	 0.066168
H	 3.2824761448	 0.2240622364	-0.8303659879	 0.091613
H	 2.8370159759	 0.2050406617	 1.8660317245	 0.091617
H	 0.2302686222	-0.7907762556	 2.1456617053	 0.066157
H	-0.5033147089	-3.1204908809	-0.096948142	 0.120807
H	 1.0518697971	-3.6894890974	-0.7376347053	 0.128884
H	 0.7587567499	-3.7002110622	 1.0093641541	 0.128812
168.2052	211.8575	222.1552	227.4511	276.5465	291.6854	527.4275	592.0923	609.9512	705.6622	750.0974	805.8335	809.7548	816.9245	838.7102	855.8692	890.9058	927.9672	928.622	963.0917	1027.5618	1035.5634	1038.7215	1064.0865	1096.73	1107.8958	1137.1173	1147.5414	1159.7003	1185.5669	1190.3772	1241.602	1271.2159	1318.3402	1336.4092	1355.0851	1382.0355	1408.6345	1414.0536	1477.0455	1489.5065	1494.8744	1498.7612	3026.0359	3027.7245	3031.0888	3092.2337	3095.9533	3098.3467	3101.6267	3125.3972	3127.3345	3181.2742	3192.9024
CC1C2C3C4C1C2(C)N34	C[C@H]1[C@H]2[C@H]3[C@H]4[C@@H]1[C@]2(C)N34	
InChI=1S/C8H11N/c1-3-4-6-7-5(3)8(4,2)9(6)7/h3-7H,1-2H3	InChI=1S/C8H11N/c1-3-4-6-7-5(3)8(4,2)9(6)7/h3-7H,1-2H3/t3-,4-,5+,6-,7+,8+,9?
