16
gdb 80957	2.54068	1.36191	1.25783	4.1019	69.96	-0.2743	0.0232	0.2975	1060.9839	0.12392	-437.844743	-437.836585	-437.83564	-437.877189	31.234	
O	 0.0711542886	 1.4771513192	 0.1181720268	-0.441341
C	 0.0237825579	 0.0816841331	 0.0330943358	 0.100976
C	-0.0537227855	-0.6594152857	 1.3926404461	-0.079394
C	-1.5234847158	-0.158861104	 1.5242334106	-0.314923
C	-1.3617647948	-0.6258882277	 0.0433884264	 0.355268
O	-2.2501669979	-0.562155682	-0.99929463	-0.461152
C	-0.6152018916	-1.8974304299	 0.6197894087	-0.232268
C	 0.2605257949	-2.6720131935	-0.2413808088	 0.273707
N	 0.9426675584	-3.308982736	-0.9248364175	-0.338279
H	-0.0906357717	 1.8352691978	-0.7605442208	 0.29609
H	 0.7503487898	-0.3123002303	-0.6861986787	 0.100298
H	 0.7060005472	-0.6928103291	 2.1679905037	 0.106519
H	-2.1850389228	-0.7537267947	 2.1595070679	 0.094166
H	-1.648140966	 0.9109746195	 1.6732061065	 0.130779
H	-3.0912901871	-0.9480377404	-0.7305103435	 0.293378
H	-1.2399478336	-2.5596935865	 1.2230990467	 0.116175
131.7131	141.6595	204.7015	265.2204	279.5298	310.8791	379.8955	422.3231	450.642	522.7252	556.0609	667.9239	689.0682	775.9983	834.4569	862.7448	939.1002	950.503	965.2324	1033.782	1064.7428	1090.3311	1096.2583	1136.7469	1161.7394	1195.8483	1203.1913	1223.5475	1287.0074	1316.7686	1341.4413	1390.4411	1449.1837	1518.2838	2347.8413	3053.0407	3071.0468	3090.7576	3168.6488	3174.9925	3806.1197	3822.293
OC1C2CC1(O)C2C#N	O[C@H]1[C@H]2C[C@]1(O)[C@H]2C#N	
InChI=1S/C6H7NO2/c7-2-4-3-1-6(4,9)5(3)8/h3-5,8-9H,1H2	InChI=1S/C6H7NO2/c7-2-4-3-1-6(4,9)5(3)8/h3-5,8-9H,1H2/t3-,4-,5-,6-/m0/s1
