16
gdb 54877	2.78535	1.56804	1.01592	2.5936	72.14	-0.2606	-0.0352	0.2254	1118.1856	0.125388	-434.122067	-434.114088	-434.113144	-434.154893	29.537	
C	-0.03478282	 1.5075504605	 0.008337089	-0.472324
C	 0.0941780897	 0.0060679827	 0.0013109104	 0.389652
N	 1.2334057109	-0.54653846	-0.0106127606	-0.491885
N	-1.1406786076	-0.7091428637	 0.0090647849	-0.191727
C	-2.4388118788	-0.1672654709	 0.0223971774	 0.083785
N	-3.4060974695	-0.9955217694	 0.0268036457	-0.256707
C	-2.7988694367	-2.3241608711	 0.0158653938	-0.287638
C	-1.2869871691	-2.1127073632	 0.0048415006	 0.40654
O	-0.3984560675	-2.9292314847	-0.0069382722	-0.35521
H	 0.97078808	 1.9253757928	 0.0014480857	 0.161915
H	-0.5782186408	 1.8711194135	-0.8707341278	 0.140284
H	-0.5632048838	 1.8641619577	 0.8993270039	 0.140278
H	 1.1545329976	-1.5644574234	-0.0139466577	 0.256847
H	-2.5654621527	 0.9077821801	 0.0279143537	 0.151817
H	-3.0998069313	-2.9028577864	 0.8959243452	 0.16215
H	-3.1139211605	-2.8948202944	-0.8645068921	 0.162224
74.6931	123.8278	210.203	237.3984	240.7938	357.5139	465.6736	465.8922	512.2613	547.9008	609.2005	636.4333	705.9748	877.39	926.5252	939.2972	972.0361	996.1884	1003.0158	1042.2178	1084.18	1116.7548	1185.6977	1190.6591	1258.9706	1294.4864	1367.7614	1374.0622	1413.8273	1435.1646	1480.6824	1488.2414	1682.4288	1729.4548	1837.2527	3038.3662	3056.2271	3091.4533	3095.8981	3167.1385	3227.1862	3478.8577
CC(=N)N1C=NCC1=O	C[C]([NH])N1C=NCC1=O	
InChI=1S/C5H7N3O/c1-4(6)8-3-7-2-5(8)9/h3,6H,2H2,1H3	InChI=1S/C5H7N3O/c1-4(6)8-3-7-2-5(8)9/h3,6H,2H2,1H3
