18
gdb 36315	4.1292	1.07782	0.93707	1.9888	82.61	-0.2356	0.0092	0.2448	1251.8853	0.148197	-364.756063	-364.748038	-364.747093	-364.788859	31.311	
C	-0.0575535796	-1.2222559496	-0.0470733493	-0.450643
C	-0.0537232682	-0.0216727292	 0.0209595124	 0.297862
C	-0.0138588602	 1.4324392528	 0.1070044733	-0.352214
C	 1.4203487715	 2.0096940394	 0.0016755058	-0.035246
C	 2.0996403892	 1.7246805072	-1.3274506734	-0.079564
C	 2.5240220049	 2.8344278078	-1.9346865804	-0.057686
C	 2.1559397159	 4.0421532486	-1.1375162253	-0.085737
N	 0.6763092435	 4.2001846197	-1.0031416937	-0.330534
C	 1.4513854281	 3.5383165973	 0.0701557223	-0.078432
H	-0.0782867256	-2.2819267212	-0.1082022405	 0.192191
H	-0.6206376044	 1.8803820214	-0.6870829727	 0.153328
H	-0.4574004231	 1.7514848159	 1.0589680403	 0.123127
H	 2.0118896427	 1.5892610184	 0.82619523	 0.090043
H	 2.1742830444	 0.7173279161	-1.7196351858	 0.110785
H	 3.0296656547	 2.8820495602	-2.8915917998	 0.098694
H	 2.7741292798	 4.933392443	-1.1304690935	 0.089602
H	 0.4773073471	 5.1542581268	-0.7056459153	 0.227636
H	 1.5301492691	 4.0305413351	 1.0336635857	 0.086789
69.7062	116.074	171.0866	247.637	349.9298	386.1487	452.7089	471.5176	595.2326	613.957	637.3343	705.3911	759.9718	788.8219	806.4763	852.9748	864.6694	916.5273	948.3284	953.8017	968.2014	990.7665	1034.1204	1074.3734	1083.6126	1118.499	1152.2109	1165.0563	1200.5957	1242.5421	1284.6159	1312.1033	1329.8294	1354.6394	1393.2601	1411.2721	1475.0948	1667.3585	2235.4021	3014.2288	3025.4154	3078.242	3161.5914	3172.2238	3195.9641	3219.6678	3474.518	3507.3152
C#CCC1C=CC2NC12	C#CC[C@H]1C=C[C@H]2N[C@@H]12	
InChI=1S/C8H9N/c1-2-3-6-4-5-7-8(6)9-7/h1,4-9H,3H2	InChI=1S/C8H9N/c1-2-3-6-4-5-7-8(6)9-7/h1,4-9H,3H2/t6-,7+,8-/m0/s1
