20
gdb 38492	3.00531	1.74397	1.57895	1.9654	80.86	-0.2124	0.0839	0.2963	949.5528	0.17431	-365.957944	-365.951085	-365.950141	-365.988682	29.391	
C	 0.0389627118	 1.4972265886	 0.0108684146	-0.29027
C	 1.3525551753	 0.7570108864	-0.0448321229	-0.020348
C	 2.0965047282	 0.5549416126	 1.293342161	-0.346469
C	 1.1757166042	-0.3772313287	 2.0619462874	 0.263641
C	 0.3519473553	-0.24923695	 3.3570885161	-0.270003
C	-0.9354052363	-0.6039386655	 2.5210596305	-0.274995
C	-0.0394253098	-0.7077773403	 1.2705378561	 0.261614
N	 0.9712517463	-1.7514815793	 1.5578078987	-0.407301
C	 0.022194404	-0.0113184075	-0.0455635231	-0.152572
H	-0.2359093522	 1.9834402642	 0.9425408385	 0.110318
H	-0.2768763717	 2.0328097747	-0.8779103262	 0.112686
H	 1.9351416077	 0.8323138531	-0.9567206357	 0.084167
H	 3.099484018	 0.138265156	 1.1386879199	 0.101418
H	 2.2297155606	 1.5044850477	 1.8252548275	 0.106016
H	 0.6239884946	-0.9358474724	 4.1621898647	 0.105146
H	 0.3271068969	 0.7726393747	 3.7444460551	 0.098224
H	-1.4644916717	-1.5186341355	 2.797436944	 0.10554
H	-1.6438265606	 0.2256295723	 2.4716771226	 0.102549
H	 1.5408658179	-1.8642412783	 0.720568046	 0.226049
H	-0.3363655887	-0.4877558029	-0.9535590547	 0.08459
163.7234	219.0098	312.0034	354.2997	441.3422	460.3034	514.5178	630.4074	660.6436	721.2991	764.4415	766.1216	802.7533	820.2707	863.8382	887.1506	927.4391	942.49	958.5617	991.1471	1025.1228	1037.2241	1070.4393	1081.1343	1097.5942	1105.809	1113.6873	1126.2134	1187.3233	1196.357	1223.0655	1231.1275	1233.921	1281.779	1307.5282	1348.9577	1366.5702	1368.2487	1405.732	1466.3142	1482.1137	1487.6372	1499.5159	3021.6401	3055.8755	3058.512	3068.811	3109.9232	3121.6444	3129.4942	3142.1765	3166.3581	3208.4616	3485.0451
C1C2CC34CCC3(N4)C12	C1[C@H]2C[C@@]34CC[C@@]3(N4)[C@@H]12	
InChI=1S/C8H11N/c1-2-8-6-3-5(6)4-7(1,8)9-8/h5-6,9H,1-4H2	InChI=1S/C8H11N/c1-2-8-6-3-5(6)4-7(1,8)9-8/h5-6,9H,1-4H2/t5-,6-,7-,8+/m0/s1
