17
gdb 81318	4.00915	1.12844	1.04115	1.7307	84.22	-0.2262	-0.0349	0.1913	1192.0667	0.135083	-384.616176	-384.608318	-384.607374	-384.648284	31.081	
C	-0.1233385496	 1.5119940571	 0.0370787991	-0.428156
C	-0.014334722	-0.003388391	 0.0175724663	 0.032599
C	 1.2514259384	-0.606344913	-0.6948716498	 0.012382
O	 2.0215761664	-0.2582719166	 0.5048536389	-0.282817
C	 0.7969689482	-0.660018638	 1.187164322	-0.068279
C	 0.7107523238	-2.1636020728	 0.809953704	 0.291116
C	 1.0314656161	-2.1080530596	-0.4959780955	-0.223854
C	 0.3625040925	-3.2216224302	 1.6622491523	 0.109704
C	 0.0575422766	-4.0961953163	 2.4348235408	-0.378248
H	 0.8390993381	 1.9679092796	 0.2796095561	 0.13811
H	-0.4527455421	 1.8890419192	-0.9372497327	 0.117432
H	-0.8603689907	 1.8368432551	 0.7795468126	 0.119056
H	-0.9666867966	-0.4820195346	-0.2257463928	 0.078977
H	 1.6644209945	-0.2278183194	-1.6288963182	 0.084047
H	 0.7286340563	-0.364742777	 2.2331261608	 0.087487
H	 1.0995517649	-2.895199712	-1.2312753402	 0.122177
H	-0.2057088547	-4.8776334803	 3.1034831362	 0.188267
112.7234	146.2573	231.0766	275.38	280.0634	409.5444	461.5483	508.3617	553.09	585.2152	618.5438	632.9626	672.9973	776.0351	810.7685	818.3176	850.8609	880.5689	912.7391	924.6631	1026.653	1054.3754	1074.2833	1111.9031	1149.2022	1172.8163	1214.215	1232.389	1237.6194	1262.4611	1297.5637	1376.7258	1405.419	1492.0933	1503.7177	1633.1939	2219.3876	3035.0802	3075.68	3093.5211	3132.3097	3135.3778	3140.6993	3252.9468	3503.3079
CC1C2OC1C(=C2)C#C	C[C@H]1[C@H]2O[C@@H]1C(=C2)C#C	
InChI=1S/C8H8O/c1-3-6-4-7-5(2)8(6)9-7/h1,4-5,7-8H,2H3	InChI=1S/C8H8O/c1-3-6-4-7-5(2)8(6)9-7/h1,4-5,7-8H,2H3/t5-,7-,8-/m0/s1
