21
gdb 72406	2.95531	1.46473	1.35215	1.4443	77.19	-0.238	0.0645	0.3025	1062.2341	0.183382	-424.246824	-424.238569	-424.237625	-424.278787	33.757	
C	 0.0254304758	 1.4631145978	 0.0829479845	-0.469161
C	-0.0338878842	-0.0420862454	-0.0381156927	 0.407095
C	 0.6331413054	-0.6580399792	-1.2946580336	-0.238443
C	 0.0967325629	-2.1213794274	-1.2791149589	-0.279584
C	-0.7694583634	-2.1463922258	 0.0034395718	 0.370183
O	-1.691835047	-3.2007837105	 0.107652367	-0.495597
C	 0.1737985716	-1.9753789548	 1.2142688382	-0.117685
O	 0.6260890132	-0.6202514129	 1.1160822321	-0.307381
C	-1.4020869109	-0.7454227838	-0.0208822303	-0.287542
H	 1.0656754308	 1.8033813009	 0.0997705808	 0.124122
H	-0.4781742789	 1.9394065772	-0.7635188513	 0.113881
H	-0.4545847525	 1.7937849565	 1.0081674884	 0.12292
H	 0.3350449145	-0.127385237	-2.2041083587	 0.096828
H	 1.7206054731	-0.5964641966	-1.2096518447	 0.105567
H	-0.5341252651	-2.3368457098	-2.1465309517	 0.102831
H	 0.8954884349	-2.8702277567	-1.2515457686	 0.089815
H	-1.2107270197	-4.0312326655	 0.0271714933	 0.278345
H	-0.3701935091	-2.1314547002	 2.1554890305	 0.097779
H	 1.0304009595	-2.6634255514	 1.1869555999	 0.083627
H	-1.9877060196	-0.5195950623	 0.8735180091	 0.104155
H	-2.0017500012	-0.565608073	-0.916839205	 0.098246
169.5592	210.0156	238.4061	251.9448	288.0886	308.3765	393.9827	422.7405	439.1636	486.7989	559.5694	582.8759	625.5073	782.3876	786.5802	841.2469	871.3823	898.4895	951.9635	967.1202	973.5365	983.7399	1031.172	1051.2391	1064.0935	1128.5089	1145.4649	1187.0622	1200.4064	1214.6902	1232.562	1251.4973	1264.358	1276.181	1303.7632	1353.5418	1360.7349	1402.4321	1415.4466	1476.3001	1483.2956	1487.8785	1496.3744	1506.8357	1535.5451	2996.7516	3035.6273	3040.188	3041.8818	3055.1287	3066.8317	3085.3356	3108.7571	3112.3934	3118.1431	3124.6371	3806.9205
CC12CCC(O)(CO1)C2	C[C@@]12CC[C@@](O)(CO1)C2	
InChI=1S/C7H12O2/c1-6-2-3-7(8,4-6)5-9-6/h8H,2-5H2,1H3	InChI=1S/C7H12O2/c1-6-2-3-7(8,4-6)5-9-6/h8H,2-5H2,1H3/t6-,7-/m0/s1
