17
gdb 29590	2.88974	1.2264	0.96584	5.2291	78.94	-0.2151	0.0293	0.2443	1218.4691	0.137047	-380.930426	-380.921708	-380.920764	-380.964449	31.809	
C	-0.1800297262	 1.4851738953	 0.0586898744	-0.517905
C	-0.0532375211	-0.0076116834	 0.0125590454	 0.19615
C	-0.0013556733	-0.7963514476	-1.1132099603	-0.15651
N	 0.1092642394	-2.107602334	-0.7204774399	-0.244205
C	 0.1290323046	-2.1783717875	 0.6454938006	-0.169182
C	 0.0316906206	-0.8953144058	 1.1334958586	 0.198607
C	 0.0270578222	-0.5078077573	 2.5886175973	-0.462208
C	-1.2506344271	 0.0637879666	 3.0329929459	 0.271081
N	-2.2557178441	 0.522231259	 3.3727579365	-0.321807
H	 0.6719812363	 1.9524926869	 0.5683195582	 0.120862
H	-0.2271813748	 1.9055700318	-0.9497129466	 0.121583
H	-1.0830877252	 1.799364289	 0.5941196785	 0.148578
H	-0.0363985842	-0.5277904445	-2.1571829365	 0.121226
H	 0.1676040913	-2.8952650723	-1.3409598291	 0.264992
H	 0.2090785942	-3.1231590712	 1.1595474254	 0.123439
H	 0.2437690403	-1.3805651805	 3.2139472227	 0.151475
H	 0.810989387	 0.2293273754	 2.8061580688	 0.153824
45.3814	103.4889	130.4194	224.1916	244.2969	303.5765	378.6102	391.852	464.0326	480.5114	634.2967	640.2339	671.1743	708.8981	758.7523	777.6851	901.3266	929.5723	936.4566	1006.3055	1067.0667	1090.8542	1114.7683	1192.3111	1221.9814	1267.9011	1316.5581	1353.1546	1404.0886	1423.2957	1454.2037	1474.2845	1484.3023	1500.6966	1562.8697	1624.1755	2358.0521	3022.3677	3026.1443	3072.887	3076.3	3109.0996	3257.5979	3260.7969	3689.8954
CC1=CNC=C1CC#N	Cc1c[nH]cc1CC#N	
InChI=1S/C7H8N2/c1-6-4-9-5-7(6)2-3-8/h4-5,9H,2H2,1H3	InChI=1S/C7H8N2/c1-6-4-9-5-7(6)2-3-8/h4-5,9H,2H2,1H3
