18
gdb 90139	3.40157	1.54707	1.40596	1.4516	74.22	-0.2235	0.0088	0.2323	985.5988	0.148675	-401.908394	-401.901095	-401.900151	-401.939722	29.463	
C	-0.1465161089	 1.5692414497	 0.0381956875	-0.403836
C	 0.061591115	 0.0622926614	 0.001041757	-0.033743
C	 1.1648858898	-0.5458934613	-0.9585745792	-0.307891
C	 1.7579714454	-1.2891321326	 0.2493222268	 0.242689
C	 2.228291279	-0.3740832686	 1.3449928249	-0.375421
C	 0.7584045583	-0.6261159334	 1.1900170656	 0.282833
O	 0.1916847096	-1.6879329806	 1.9436112337	-0.251082
C	 0.8221625888	-2.8126149918	 1.4596731648	 0.076949
N	 1.6729577332	-2.7097877363	 0.5141368477	-0.307585
H	 0.7916301106	 2.0983140744	 0.2371943727	 0.11649
H	-0.5347890174	 1.9327690819	-0.9193249874	 0.117205
H	-0.8599113141	 1.847939084	 0.8207118032	 0.123861
H	-0.8892352995	-0.4470010402	-0.1785506447	 0.09543
H	 0.7540934366	-1.2154502914	-1.7152650985	 0.120619
H	 1.8314619261	 0.1747876305	-1.4430441116	 0.102516
H	 2.7015192158	-0.8518589647	 2.1945369215	 0.134348
H	 2.6279657771	 0.6022788272	 1.0885187455	 0.122372
H	 0.5335840845	-3.7317098783	 1.9566495506	 0.144246
134.19	221.3799	233.1505	293.6396	343.69	425.4462	434.4817	538.4548	585.3283	642.6419	718.7143	786.9319	802.871	822.2063	882.4183	905.5343	916.2644	930.5889	961.3809	990.0497	1034.6209	1063.7011	1078.6569	1094.2636	1142.8341	1186.7085	1209.8129	1241.7724	1271.7963	1288.8608	1326.8918	1345.0428	1371.2119	1414.0787	1462.9714	1481.0211	1494.8406	1496.1513	1625.3173	3030.5003	3051.5621	3068.7295	3099.1258	3102.7958	3127.981	3129.1456	3223.6053	3227.5132
CC1CC23CC12OC=N3	C[C@H]1C[C@@]23C[C@@]12OC=N3	
InChI=1S/C7H9NO/c1-5-2-6-3-7(5,6)9-4-8-6/h4-5H,2-3H2,1H3	InChI=1S/C7H9NO/c1-5-2-6-3-7(5,6)9-4-8-6/h4-5H,2-3H2,1H3/t5-,6+,7+/m0/s1
