20
gdb 61239	2.98715	0.89701	0.76713	3.5778	79.76	-0.2742	0.0317	0.3059	1509.5421	0.168793	-403.154136	-403.144035	-403.143091	-403.189995	35.933	
C	-1.3344656731	 2.641981278	 1.1864396076	-0.404643
C	-0.840383695	 1.3978649892	 0.4375954843	-0.020458
C	 0.3178831039	 0.6876136515	 1.1821952259	-0.348593
C	 1.4948030191	 1.5372092679	 1.3454717298	 0.265231
N	 2.4196629209	 2.2205109033	 1.4609708032	-0.309295
C	-1.9743358392	 0.4098254687	 0.2479480062	 0.058733
O	-2.99380922	 0.7632164908	-0.6864315628	-0.266979
C	-2.2054779951	-0.4034088868	-0.9606089029	 0.070716
C	-1.34823002	-0.3888435783	-2.2004101814	-0.426109
H	-0.5307983845	 3.3725403069	 1.3122618467	 0.142187
H	-2.1488600291	 3.1124699606	 0.6299438128	 0.141934
H	-1.7125018392	 2.3779038493	 2.1811509137	 0.116608
H	-0.4724630741	 1.7067110246	-0.5449444017	 0.100978
H	-0.0170844042	 0.3650460759	 2.1759565874	 0.151191
H	 0.6179348573	-0.2169077718	 0.6410701329	 0.152931
H	-2.3659926916	 0.0128513933	 1.1902679913	 0.087145
H	-2.7555439512	-1.3352998275	-0.8113651058	 0.092752
H	-0.8180351181	 0.5572690122	-2.322932355	 0.13402
H	-0.6152139707	-1.2024241001	-2.1683498648	 0.124509
H	-1.972730426	-0.5398184879	-3.0868971273	 0.137143
48.1309	65.7578	118.8959	151.3372	183.4913	224.6999	245.3003	310.589	377.8419	392.7479	395.684	434.6432	541.8611	587.9996	781.3923	819.4788	858.8366	896.0448	929.8475	972.8646	994.6329	1005.3146	1074.7177	1113.4143	1121.1739	1146.1628	1177.8666	1196.8111	1235.378	1279.6145	1304.5711	1343.4921	1352.7716	1403.3311	1412.5043	1421.7916	1465.2976	1468.9148	1489.4479	1498.003	1501.6655	1513.4663	2361.4087	3034.6993	3035.7973	3040.6808	3050.8216	3067.9201	3081.4613	3084.3833	3101.2255	3108.1203	3128.9754	3138.3324
CC(CC#N)C1OC1C	C[C@@H](CC#N)[C@H]1O[C@H]1C	
InChI=1S/C7H11NO/c1-5(3-4-8)7-6(2)9-7/h5-7H,3H2,1-2H3	InChI=1S/C7H11NO/c1-5(3-4-8)7-6(2)9-7/h5-7H,3H2,1-2H3/t5-,6-,7+/m0/s1
