17
gdb 68212	4.34563	1.12612	1.03238	3.8139	76.79	-0.2495	-0.0692	0.1803	1177.0847	0.134948	-421.799351	-421.791455	-421.790511	-421.831791	30.154	
C	 0.0392984047	 1.5344588845	 0.0492270573	-0.50802
C	 0.0102827132	 0.0347013161	-0.0229717525	 0.372349
C	 0.6402267735	-0.8265312131	-1.1723249428	-0.256837
C	 0.6509088376	-1.8138743395	 0.0268328014	-0.047963
O	 0.9207526147	-0.6668638243	 0.8972360862	-0.312543
C	-0.8573142747	-2.0180373371	 0.2657781316	 0.297226
C	-1.5822921863	-3.2665587193	 0.4474020562	 0.042094
O	-1.0738256252	-4.3653174405	 0.3775146129	-0.275284
C	-1.2963445249	-0.7492204164	 0.2315142183	-0.238277
H	 1.0482388517	 1.9088722362	-0.1403203005	 0.13637
H	-0.6380618545	 1.9658172273	-0.6946418171	 0.127292
H	-0.2747801772	 1.8769701263	 1.0401240344	 0.138272
H	 0.0364098639	-1.0661612927	-2.050211024	 0.10362
H	 1.6392870615	-0.4758936835	-1.4412726176	 0.113317
H	 1.3311672031	-2.6541882846	 0.1369782303	 0.105689
H	-2.6677555882	-3.1451185728	 0.6580852138	 0.072753
H	-2.2954567526	-0.3482156164	 0.337914712	 0.129941
93.7004	153.2836	183.8696	235.0795	290.2301	304.3158	472.7627	497.6904	557.9128	625.1946	655.3692	705.2073	791.612	800.4194	838.4683	855.0529	876.5335	933.1715	979.8882	1029.0862	1036.4817	1074.2113	1108.2776	1131.6616	1173.6594	1214.4383	1231.9578	1253.4873	1311.9972	1338.5663	1413.4794	1418.9912	1478.5434	1486.9691	1493.8473	1649.9397	1773.8616	2885.9395	3042.9477	3064.8742	3112.5476	3125.5957	3137.6731	3168.3024	3228.1368
CC12CC(O1)C(C=O)=C2	C[C@@]12C[C@@H](O1)C(=C2)C=O	
InChI=1S/C7H8O2/c1-7-2-5(4-8)6(3-7)9-7/h2,4,6H,3H2,1H3	InChI=1S/C7H8O2/c1-7-2-5(4-8)6(3-7)9-7/h2,4,6H,3H2,1H3/t6-,7-/m1/s1
