23
gdb 73553	2.60104	1.58582	1.28156	0.3073	90.61	-0.2231	0.0276	0.2507	1119.8863	0.208266	-351.189391	-351.181036	-351.180092	-351.221889	33.794	
C	-0.0581013128	 1.5848858274	-0.0661914891	-0.439333
C	-0.027390931	 0.0422029341	-0.0496657942	 0.275126
C	 0.8507327209	-0.5058988735	-1.1967101206	-0.26729
C	 2.3012426811	-0.3981808575	-0.6523894035	-0.208621
C	 2.1956632664	-0.5540145982	 0.9008320588	-0.338437
C	 0.7151425947	-0.4934390165	 1.1653406393	 0.363476
C	-0.1088761335	-0.9452155505	 2.1067414373	-0.248353
C	-1.5582992352	-0.7834928213	 1.6872692921	-0.248412
C	-1.4467155306	-0.5425217311	 0.1537417022	-0.285155
H	 0.9479133632	 2.0169901065	-0.0592582046	 0.11024
H	-0.5698134782	 1.9492144048	-0.964383595	 0.109928
H	-0.5891336959	 1.9755353478	 0.8078821156	 0.114827
H	 0.5975205644	-1.5575417587	-1.3750097212	 0.092492
H	 0.7233659396	 0.0276605575	-2.1443823141	 0.087733
H	 2.9606391076	-1.1478498932	-1.0976658088	 0.09721
H	 2.7275057943	 0.5779223304	-0.9035348262	 0.102228
H	 2.6233287691	-1.4987478584	 1.2512590451	 0.111497
H	 2.7472351621	 0.2428872777	 1.4129391538	 0.109389
H	 0.1836946825	-1.3932711719	 3.0507419669	 0.08236
H	-2.1653070265	-1.664624153	 1.9251055721	 0.097142
H	-2.0387991527	 0.062117927	 2.2006094149	 0.100677
H	-2.2386508147	 0.105830864	-0.2334503182	 0.087046
H	-1.5266191745	-1.5038380333	-0.3657721728	 0.094229
91.6329	165.377	215.1577	246.2059	256.6717	326.8723	345.0194	441.4336	551.5799	574.036	635.9087	679.4881	716.0141	792.8745	822.1108	860.54	871.8165	899.1204	917.1697	935.3683	948.951	972.0729	991.3567	1007.5065	1037.9697	1084.4991	1103.3803	1135.953	1174.8594	1213.7749	1220.9101	1228.782	1238.5419	1257.6522	1278.164	1308.8432	1318.2387	1329.8045	1340.8146	1355.1497	1406.8224	1476.2731	1477.5455	1486.617	1498.183	1498.419	1499.2069	1509.8199	1734.4288	3000.4238	3025.399	3029.9776	3033.4823	3037.3123	3052.8865	3053.9534	3068.0882	3076.9023	3085.7576	3092.5943	3098.1119	3102.1783	3182.2824
CC12CCCC1=CCC2	C[C@@]12CCCC1=CCC2	
InChI=1S/C9H14/c1-9-6-2-4-8(9)5-3-7-9/h4H,2-3,5-7H2,1H3	InChI=1S/C9H14/c1-9-6-2-4-8(9)5-3-7-9/h4H,2-3,5-7H2,1H3/t9-/m1/s1
