19
gdb 111086	3.59422	1.078	1.04802	3.6172	75.62	-0.2316	-0.0036	0.228	1211.6927	0.160439	-423.024802	-423.016769	-423.015825	-423.057622	31.12	
O	 0.3974911669	-0.0600482051	-1.3971971991	-0.420695
C	-0.0233047782	 0.106227206	-0.04918061	-0.132335
C	-1.4014848448	-0.5199664909	 0.0626851768	 0.043157
C	-1.5044171449	-2.0744725683	-0.0531475884	-0.020589
C	-1.1384638939	-2.1417342289	 1.4581797483	-0.252435
C	-1.9382257388	-0.79429476	 1.5153444384	-0.150938
C	-3.3298728608	-1.3103423272	 1.1683223814	 0.434793
O	-4.3874329949	-1.0425962593	 1.670147261	-0.336816
C	-3.0317139675	-2.2746181285	-0.0056484557	-0.34109
H	 1.2440690112	 0.3830616955	-1.5059487946	 0.289322
H	 0.6925105683	-0.3539629	 0.6469353745	 0.089361
H	-0.0944634672	 1.1726740721	 0.2178361214	 0.092646
H	-2.0780541194	 0.0376326539	-0.5948716709	 0.082099
H	-0.941777183	-2.618912121	-0.8090904263	 0.082346
H	-1.5230949075	-2.9837806114	 2.0407903197	 0.103759
H	-0.076682915	-2.0121437818	 1.6637693267	 0.111935
H	-1.8652294587	-0.0784312125	 2.3321081676	 0.077923
H	-3.5527478594	-1.9609517322	-0.9154613257	 0.125636
H	-3.3418030324	-3.2966710104	 0.2332575949	 0.121919
75.5733	142.7199	157.6272	245.9814	297.1603	373.1716	427.0178	490.2334	512.8761	595.5965	622.8319	765.2424	795.4821	832.3172	839.0786	900.6245	946.4395	958.7236	978.1488	1003.4424	1051.3267	1068.3545	1078.6004	1085.1364	1105.1997	1159.4314	1165.2122	1189.3761	1223.8739	1230.8067	1257.2434	1265.1829	1268.7389	1288.2585	1301.9955	1396.6401	1459.6639	1465.9389	1505.7729	1530.1435	1870.7453	2974.9082	3007.0799	3045.4106	3055.7043	3066.0176	3102.3483	3133.9491	3138.0531	3143.4133	3829.7084
OCC1C2CC1C(=O)C2	OC[C@H]1[C@H]2C[C@@H]1C(=O)C2	
InChI=1S/C7H10O2/c8-3-6-4-1-5(6)7(9)2-4/h4-6,8H,1-3H2	InChI=1S/C7H10O2/c8-3-6-4-1-5(6)7(9)2-4/h4-6,8H,1-3H2/t4-,5-,6-/m0/s1
