18
gdb 53076	4.69373	0.7874	0.70859	1.2824	86.61	-0.2345	-0.0171	0.2175	1641.7575	0.146528	-401.95128	-401.941694	-401.94075	-401.988929	33.005	
C	-0.066728082	 1.4964305826	-0.1183398333	-0.510886
C	 0.0029048759	 0.0469001423	-0.0516929757	 0.281004
C	 0.0669614231	-1.1544641048	 0.0004685431	-0.065846
C	 0.1377353338	-2.5734691355	 0.0620180448	 0.224147
N	 1.1759049559	-3.2761032297	-0.1732207747	-0.328065
C	 0.7714615658	-4.6741569638	 0.0072399155	-0.208408
C	-0.7175754455	-4.6221815476	 0.4494368985	 0.091071
C	-0.9901658799	-5.1526106346	 1.8479483927	-0.395598
O	-1.024515772	-3.2030236502	 0.4031114226	-0.264947
H	 0.9345919372	 1.939544642	-0.1133996313	 0.160225
H	-0.573659061	 1.8220008304	-1.0333451797	 0.159244
H	-0.6219439312	 1.9036921989	 0.7333977727	 0.158262
H	 0.9140291349	-5.2250518207	-0.9290713051	 0.116796
H	 1.4067509655	-5.1523678015	 0.7626817746	 0.113186
H	-1.3773802121	-5.1083085001	-0.2764515406	 0.090541
H	-0.3373244377	-4.6633757705	 2.5778455185	 0.128573
H	-2.029414871	-4.9768788406	 2.1386964152	 0.129981
H	-0.7992318598	-6.2303992166	 1.8831350923	 0.12072
6.7994	45.446	88.2672	102.7671	239.7267	253.1221	301.779	349.9004	405.0226	437.0502	489.2308	537.7845	711.8875	729.001	842.0107	894.1762	931.1348	939.2055	1000.6849	1049.119	1052.53	1056.4718	1071.1539	1119.6483	1138.0762	1226.0508	1269.8192	1332.7478	1356.0249	1393.9502	1409.571	1411.5557	1472.3942	1473.4988	1485.1898	1494.8521	1500.1917	1692.8672	2374.5524	3027.9299	3031.5015	3037.6144	3046.0782	3065.6719	3093.979	3098.6974	3110.5522	3121.1812
CC#CC1=NCC(C)O1	CC#CC1=NC[C@@H](C)O1	
InChI=1S/C7H9NO/c1-3-4-7-8-5-6(2)9-7/h6H,5H2,1-2H3	InChI=1S/C7H9NO/c1-3-4-7-8-5-6(2)9-7/h6H,5H2,1-2H3/t6-/m1/s1
