23
gdb 94831	3.49059	1.14239	1.00215	1.1726	86.28	-0.2419	0.0866	0.3285	1300.1445	0.207102	-388.298367	-388.289696	-388.288752	-388.331206	34.789	
C	 0.053581154	 1.5340326065	 0.0803170625	-0.402399
C	 0.0202873901	 0.0155439473	-0.0094047254	 0.155963
C	 0.6704805491	-0.5293106993	-1.2890643004	-0.197597
C	 0.70659574	-2.0662160921	-1.2698451287	-0.302374
C	 1.3192283741	-2.5498865744	 0.0328625321	 0.38826
C	 1.8105090872	-3.965317861	 0.1635784	-0.332465
C	 2.8007616218	-2.8245943298	 0.0953311232	-0.297124
C	 0.6582740366	-1.8973186031	 1.2307580502	-0.150209
O	 0.6893243558	-0.4824303443	 1.1456533091	-0.259188
H	 1.0873747682	 1.8930434921	 0.0610556864	 0.121954
H	-0.4860785909	 1.9825703572	-0.7592360763	 0.11061
H	-0.4076236963	 1.8708621428	 1.0125792361	 0.120997
H	-1.0314014658	-0.3274345259	 0.0182125419	 0.055779
H	 0.1207883304	-0.1654783049	-2.1648122668	 0.08931
H	 1.6920502967	-0.1345665813	-1.354041626	 0.100864
H	-0.3185534439	-2.4545807099	-1.3566716666	 0.093198
H	 1.2639576839	-2.4543108459	-2.129674317	 0.090554
H	 1.6792034132	-4.4710459215	 1.115354048	 0.108453
H	 1.7194313831	-4.6180444944	-0.6988394825	 0.108051
H	 3.3824122952	-2.7095554778	-0.8137441653	 0.108108
H	 3.3356596403	-2.5563579878	 1.0003689504	 0.112768
H	-0.388229691	-2.2439650956	 1.3104404459	 0.079724
H	 1.1711892983	-2.1623853769	 2.1608013394	 0.096765
91.0548	190.0321	213.4355	232.1142	254.1846	315.6077	359.2775	373.0484	433.6891	485.0034	489.6495	600.7822	725.9152	782.2617	801.3814	863.6511	879.2562	911.2705	946.4101	953.8387	971.2479	975.0369	1021.3536	1042.8665	1055.1493	1075.1122	1081.9973	1122.5679	1136.2395	1160.295	1185.8631	1219.1985	1231.6716	1275.5243	1323.9421	1334.1507	1355.5464	1365.612	1387.8574	1398.5924	1410.674	1421.7107	1468.734	1472.5431	1484.0789	1485.2332	1493.9102	1501.1651	1511.0756	2922.0117	2941.1894	3003.3683	3025.9904	3041.4944	3059.3213	3072.6162	3073.6432	3114.5204	3120.3576	3121.3422	3127.6004	3198.7022	3214.1253
CC1CCC2(CC2)CO1	C[C@H]1CCC2(CC2)CO1	
InChI=1S/C8H14O/c1-7-2-3-8(4-5-8)6-9-7/h7H,2-6H2,1H3	InChI=1S/C8H14O/c1-7-2-3-8(4-5-8)6-9-7/h7H,2-6H2,1H3/t7-/m0/s1
