18
gdb 81416	3.47909	1.20214	1.07939	3.6391	81.01	-0.2202	-0.0618	0.1584	1170.0824	0.147696	-401.899742	-401.89193	-401.890986	-401.932077	30.254	
C	-0.2277708588	 1.4502356983	 0.0087048694	-0.331098
N	 0.0223854701	 0.0145466505	 0.0460804476	-0.095884
C	 1.1914447583	-0.4875181737	-0.7997778044	-0.052385
C	 2.1703349798	-0.0500278072	 0.3418586525	-0.233925
C	 0.9216465703	-0.4893362627	 1.1722672812	-0.121856
C	 0.8769459116	-1.9827087189	 0.8371977227	 0.307104
C	 0.6681341919	-3.0990843022	 1.7448687374	 0.032505
O	 0.5172448707	-2.9911250255	 2.9434463512	-0.2787
C	 1.0585107338	-1.9784382802	-0.4963923499	-0.157463
H	 0.6485986046	 2.1080580771	 0.1294166149	 0.096019
H	-0.7022711661	 1.6953224298	-0.9474450864	 0.123632
H	-0.9418200098	 1.6947515328	 0.8019382551	 0.129059
H	 1.269271815	-0.1507133282	-1.8330185628	 0.077003
H	 3.1005919918	-0.6086606921	 0.4708218958	 0.104521
H	 2.3668709413	 1.0230724399	 0.3623880148	 0.111209
H	 0.7165620696	-0.1746984207	 2.1932978509	 0.094376
H	 0.6589019235	-4.0960060938	 1.2501903194	 0.068894
H	 1.0887457025	-2.8007429034	-1.1977168594	 0.126989
97.5	157.7819	205.9772	223.1745	301.5053	339.2879	477.7466	495.5173	554.3163	583.2656	699.313	733.873	787.238	829.9685	850.4092	862.5816	907.6755	923.4373	1000.776	1038.4981	1041.0115	1079.1188	1114.0817	1142.4583	1154.7399	1177.6908	1215.1271	1217.62	1240.4847	1258.8623	1279.0735	1341.8769	1415.7075	1444.133	1479.6683	1500.5486	1520.2922	1643.8632	1775.5794	2880.1477	2964.575	3060.2133	3069.5274	3098.3949	3127.2606	3132.1186	3152.8788	3234.133
CN1C2CC1C(C=O)=C2	CN1[C@H]2C[C@@H]1C(=C2)C=O	
InChI=1S/C7H9NO/c1-8-6-2-5(4-9)7(8)3-6/h2,4,6-7H,3H2,1H3	InChI=1S/C7H9NO/c1-8-6-2-5(4-9)7(8)3-6/h2,4,6-7H,3H2,1H3/t6-,7-/m1/s1
