20
gdb 110115	2.16308	1.28885	1.00264	4.0198	80.54	-0.258	0.03	0.288	1298.9919	0.169392	-403.144236	-403.134202	-403.133258	-403.179547	35.626	
C	 0.0266589206	 1.4487672377	 0.4802684989	-0.383142
C	-0.0537270031	 0.1314743783	-0.2984739624	-0.199242
C	-1.4229735803	-0.5117063303	-0.2160240197	-0.069142
C	-1.6117767333	-1.9762274727	-0.405930803	 0.099516
O	-0.4862730377	-2.731487388	-0.6543245191	-0.22646
C	-0.627725596	-4.0981563666	-0.2931494964	-0.243138
C	-1.8264121843	-1.3721512693	 0.9943538067	-0.251311
C	-0.87174668	-1.6427311595	 2.0269567247	 0.31297
N	-0.1113988657	-1.8664750928	 2.8711835519	-0.359202
H	 1.0144499184	 1.9051594679	 0.36875083	 0.118894
H	-0.7169048065	 2.1700891036	 0.1231998227	 0.11052
H	-0.1474665997	 1.2857583583	 1.5482356906	 0.134713
H	 0.1750806402	 0.3072339165	-1.3568050725	 0.10567
H	 0.701929582	-0.5696006729	 0.0645465647	 0.134935
H	-2.2358931617	 0.1105187174	-0.5822885454	 0.102287
H	-2.5189838549	-2.3286203469	-0.900554772	 0.09904
H	 0.306007256	-4.5931842018	-0.5652327263	 0.138624
H	-0.7972349975	-4.211521875	 0.7844332293	 0.13444
H	-1.457962898	-4.5680062035	-0.8400174453	 0.110232
H	-2.8488610685	-1.2887179403	 1.3475697628	 0.129795
74.6376	98.4301	109.2439	143.3545	160.8311	206.3868	232.5867	263.9647	319.2855	394.49	414.1296	591.8032	627.4044	668.2549	731.7958	797.9094	801.6593	847.7514	955.6349	984.9539	1027.7892	1035.9781	1081.2392	1104.6841	1140.2678	1142.7952	1177.8161	1188.8248	1228.5988	1269.6832	1290.8094	1331.9283	1361.5215	1392.0719	1415.3304	1438.8278	1486.6088	1487.2035	1489.9739	1501.0248	1504.5899	1506.93	2344.5201	2997.897	3034.9357	3037.5634	3066.2162	3082.8431	3091.4985	3110.4981	3115.4073	3136.1045	3141.4264	3166.5227
CCC1C(OC)C1C#N	CC[C@H]1[C@@H](OC)[C@H]1C#N	
InChI=1S/C7H11NO/c1-3-5-6(4-8)7(5)9-2/h5-7H,3H2,1-2H3	InChI=1S/C7H11NO/c1-3-5-6(4-8)7(5)9-2/h5-7H,3H2,1-2H3/t5-,6+,7-/m1/s1
