19
gdb 76535	2.65664	1.2154	1.19989	3.6584	78.66	-0.2359	0.0181	0.2541	1180.8851	0.157987	-419.170778	-419.161582	-419.160638	-419.204667	33.666	
C	-0.1363561106	 1.5352924559	 0.2663416684	-0.421945
C	 0.0369203194	 0.0383552595	 0.1287794931	-0.063257
N	 1.2959252141	-0.6027461951	-0.25008624	-0.136062
C	 2.4886826697	 0.1863694764	-0.5249677415	-0.32426
C	 0.8444623419	-0.7376238674	 1.1155189408	 0.187432
C	 1.4767346963	-0.2702931467	 2.4313776287	-0.15864
O	 1.0929668585	-1.5435443244	 3.0355826887	-0.267208
C	 0.5464766524	-2.0117084437	 1.8468275506	 0.390033
N	-0.00044056	-3.1030168	 1.5702714245	-0.553163
H	 0.6942892685	 2.0141991395	 0.7903682029	 0.121211
H	-0.2321229256	 2.0067748168	-0.7175537944	 0.132433
H	-1.0518963781	 1.7517776943	 0.8263228378	 0.133376
H	-0.8263449665	-0.4745381281	-0.2931341422	 0.115335
H	 2.6403994373	 1.0521456927	 0.1364914708	 0.103453
H	 3.3645237636	-0.4637148765	-0.4381270494	 0.13505
H	 2.4397073394	 0.5491529092	-1.5558317718	 0.132903
H	 2.5636606815	-0.1474649045	 2.4326989944	 0.122487
H	 0.998354522	 0.5683744911	 2.9443380876	 0.121407
H	-0.0201543039	-3.728562699	 2.3770796813	 0.229415
105.7256	128.8822	152.4098	164.2076	183.6917	216.8516	254.1376	318.5954	420.1782	517.2244	551.3175	598.0297	643.5785	763.4041	798.4728	817.3144	860.0966	946.9262	975.4748	996.0455	1025.4289	1065.0441	1082.403	1112.1932	1149.8956	1151.1639	1162.6849	1184.2814	1206.0728	1246.0776	1329.0259	1374.6833	1408.3199	1442.8722	1472.1484	1485.5179	1492.0502	1502.3994	1505.5742	1513.5567	1830.9592	2989.36	3039.4703	3051.7817	3075.4406	3100.0737	3106.3321	3109.8606	3110.8355	3128.0941	3482.2631
CC1N(C)C11COC1=N	C[C@H]1N(C)[C@]21CO[C]2[NH]	
InChI=1S/C6H10N2O/c1-4-6(8(4)2)3-9-5(6)7/h4,7H,3H2,1-2H3	InChI=1S/C6H10N2O/c1-4-6(8(4)2)3-9-5(6)7/h4,7H,3H2,1-2H3/t4-,6+,8?/m1/s1
