16
gdb 65596	3.54912	1.24526	1.22364	2.676	68.02	-0.2735	0.0167	0.2902	1049.5534	0.124107	-437.883974	-437.876102	-437.875158	-437.916256	30.091	
O	-0.3889916215	 1.1072759576	 0.4753434948	-0.441846
C	 0.03001991	-0.1473091943	-0.0323225341	 0.233833
C	 0.8422050941	-0.9831723566	 1.0126804952	-0.293506
C	-0.1863403264	-1.8695919086	 1.6819763629	 0.044784
O	-1.3412960334	-1.1649492059	 2.1450650221	-0.241339
C	-1.4269147262	-1.8616503677	 0.8980809382	 0.0386
C	-1.2610138102	-0.971719627	-0.3151829995	-0.268301
C	 0.8238278947	 0.0621103665	-1.262523832	 0.240712
N	 1.463161304	 0.242774224	-2.2083911107	-0.339922
H	 0.3927392844	 1.6239577379	 0.7023016106	 0.290638
H	 1.5985370261	-1.6005307079	 0.5168365287	 0.130448
H	 1.3565480368	-0.3170759545	 1.7121136493	 0.121302
H	 0.1307254056	-2.7127606856	 2.2904560782	 0.104675
H	-2.1191516714	-2.6991206169	 0.8710206353	 0.104774
H	-2.0948951728	-0.2833503627	-0.4692397603	 0.146186
H	-1.1459320239	-1.5853132881	-1.2136730386	 0.128962
98.2634	153.5148	198.8209	285.0922	301.7696	369.4384	391.8436	410.2725	538.6862	564.0593	620.6761	682.0291	786.9999	825.1133	863.5429	875.6296	929.9948	972.6362	976.124	1030.1313	1048.1484	1081.8066	1112.3445	1135.4525	1187.3948	1253.0754	1278.1635	1304.2015	1317.9754	1334.5582	1376.4116	1445.2725	1460.7304	1470.8894	2350.6356	3051.9395	3067.3511	3099.3549	3123.2552	3144.0727	3156.5664	3802.2928
OC1(CC2OC2C1)C#N	O[C@]1(C[C@H]2O[C@H]2C1)C#N	
InChI=1S/C6H7NO2/c7-3-6(8)1-4-5(2-6)9-4/h4-5,8H,1-2H2	InChI=1S/C6H7NO2/c7-3-6(8)1-4-5(2-6)9-4/h4-5,8H,1-2H2/t4-,5+,6+
