20
gdb 32583	3.17446	1.05557	0.85658	1.798	84.09	-0.1813	0.0511	0.2324	1412.3847	0.169883	-403.187312	-403.177282	-403.176337	-403.222845	36.167	
C	 0.0402385219	 1.5335564534	-0.0337523709	-0.366942
C	-0.0019015239	 0.0037037895	 0.0367424481	-0.15277
N	-1.3469478897	-0.5400231984	 0.02282377	 0.024157
C	-2.091181361	-0.85430237	 1.126791361	-0.179407
C	-3.3592124409	-1.2290771066	 0.7295734243	 0.139824
C	-4.4978795512	-1.6793411017	 1.592886545	-0.528778
C	-3.3680151135	-1.1230605585	-0.6922108551	 0.216903
O	-4.4080990926	-1.4066841769	-1.5341440184	-0.450321
C	-2.1284230515	-0.695170628	-1.1060783791	-0.191264
H	 1.076494844	 1.8865285694	-0.0188105232	 0.115663
H	-0.4322611777	 1.8942622177	-0.9517348106	 0.130753
H	-0.4880016214	 1.9751398017	 0.8162128781	 0.128042
H	 0.5512887704	-0.4281670658	-0.8046675167	 0.116853
H	 0.4865428512	-0.3468187699	 0.9514659328	 0.11522
H	-1.6634724282	-0.7919667062	 2.1159394333	 0.110206
H	-5.3763145991	-1.0263578724	 1.4990219912	 0.119801
H	-4.8275848286	-2.6989983134	 1.3506864956	 0.119554
H	-4.2119452066	-1.6793028222	 2.6484051728	 0.126564
H	-5.1550854625	-1.6951451856	-1.0018849719	 0.293393
H	-1.7431611889	-0.502332376	-2.0933022963	 0.11255
41.3196	90.4144	100.4073	180.295	203.3033	232.8293	235.337	300.7851	308.1617	397.0902	495.8754	589.3786	615.7875	625.669	628.4954	699.6461	736.9167	792.3813	795.6879	944.6646	999.3973	1032.9476	1060.2153	1096.826	1119.1598	1151.2508	1203.9832	1210.2224	1268.5403	1291.9593	1386.8746	1404.5985	1412.1615	1415.4576	1440.8983	1458.8214	1483.8484	1484.9433	1488.5452	1504.5399	1506.4301	1579.1854	1651.6412	3002.2696	3040.587	3041.0933	3041.2229	3082.3525	3103.4976	3113.8639	3124.3278	3244.6317	3269.6264	3839.5153
CCN1C=C(C)C(O)=C1	CCn1cc(C)c(O)c1	
InChI=1S/C7H11NO/c1-3-8-4-6(2)7(9)5-8/h4-5,9H,3H2,1-2H3	InChI=1S/C7H11NO/c1-3-8-4-6(2)7(9)5-8/h4-5,9H,3H2,1-2H3
