15
gdb 31917	6.20682	0.86543	0.76712	5.0334	81.38	-0.2115	-0.0135	0.198	1405.5779	0.112476	-416.80384	-416.795201	-416.794257	-416.837904	31.084	
O	 0.0620503112	 1.3248210738	 0.3514822711	-0.403102
C	 0.0047511297	-0.0392983989	-0.0215159208	-0.204481
C	-1.4300109349	-0.4539177938	-0.0167335993	 0.307964
C	-2.5962261384	 0.2724281979	-0.0918523643	-0.15569
N	-3.6893864815	-0.5504090047	-0.0756396417	-0.303575
C	-3.2085755142	-1.7797259049	 0.0065568516	 0.180713
N	-1.8328680482	-1.7636823115	 0.0468892036	-0.361576
C	-3.940001428	-2.9873139498	 0.0518328292	 0.262777
C	-4.534722874	-4.0335105828	 0.0923167364	-0.410362
H	 0.9362213596	 1.6585440749	 0.1306461839	 0.294763
H	 0.4416190915	-0.1943942271	-1.0228023966	 0.108936
H	 0.5798623686	-0.6752826139	 0.6747251561	 0.096654
H	-2.6914182113	 1.3448267131	-0.1462645138	 0.122514
H	-1.2432216291	-2.5761788262	 0.1242053302	 0.268619
H	-5.075009241	-4.946955616	 0.1273943043	 0.195846
35.5055	122.6515	136.9239	208.4978	221.3951	268.8065	403.3524	456.639	533.7282	556.446	558.419	609.6844	653.9263	683.751	710.2291	734.341	863.0925	995.9602	1032.6873	1046.0389	1093.6294	1182.2043	1189.2045	1231.7989	1255.6404	1277.4644	1392.9702	1423.4395	1469.8786	1495.4793	1516.5266	1610.7187	2233.5674	2940.5022	2958.6751	3270.1582	3502.4612	3657.4615	3837.3888
OCC1=CN=C(N1)C#C	OCc1cnc([nH]1)C#C	
InChI=1S/C6H6N2O/c1-2-6-7-3-5(4-9)8-6/h1,3,9H,4H2,(H,7,8)	InChI=1S/C6H6N2O/c1-2-6-7-3-5(4-9)8-6/h1,3,9H,4H2,(H,7,8)
