15
gdb 21238	3.38202	1.87606	1.22534	3.1902	64.82	-0.2195	-0.0068	0.2127	954.8287	0.118113	-399.784153	-399.77626	-399.775315	-399.817085	27.475	
C	 0.1570130779	 1.3908108524	 0.1737633988	-0.25431
O	 0.1263476518	-0.0254073375	 0.1316107048	-0.265861
C	 0.6622332835	-0.5934876138	-0.9753368472	 0.15409
C	 0.730228286	-1.9377990824	-1.2089742039	 0.32738
C	 0.2918612702	-3.1188648276	-0.4243020456	-0.50062
O	 1.3240792204	-2.1390770002	-2.4043750287	-0.207483
N	 1.6582258284	-0.9233681798	-2.979649451	-0.142097
C	 1.2620628799	-0.0087877376	-2.1250340509	-0.078403
H	 1.186764599	 1.7709213606	 0.1451060672	 0.126157
H	-0.4101242739	 1.8294073818	-0.6579100401	 0.126157
H	-0.3067252159	 1.6821790346	 1.1172019837	 0.140493
H	-0.4421035951	-3.7149369218	-0.9772375428	 0.147503
H	 1.1364083799	-3.773368673	-0.183254353	 0.1475
H	-0.1649658888	-2.7824295023	 0.5086827897	 0.150364
H	 1.4188499668	 1.0332878863	-2.3605817211	 0.12913
54.963	100.7033	189.3519	208.8223	240.3888	297.4272	354.0306	507.3686	618.9832	634.4317	682.5922	731.2132	881.6549	922.8163	957.1041	1014.2563	1063.9473	1074.6855	1174.7943	1180.2231	1220.5144	1247.2848	1274.9438	1404.802	1427.5145	1476.6438	1484.672	1491.0351	1494.5979	1507.2586	1512.8957	1694.8995	3002.1493	3037.0288	3060.6696	3091.3656	3136.6075	3139.0529	3251.7594
COC1=C(C)ON=C1	COc1c(C)onc1	
InChI=1S/C5H7NO2/c1-4-5(7-2)3-6-8-4/h3H,1-2H3	InChI=1S/C5H7NO2/c1-4-5(7-2)3-6-8-4/h3H,1-2H3
