20
gdb 68247	2.80814	1.8522	1.43902	1.22	77.28	-0.2273	0.0749	0.3023	974.1626	0.173546	-403.091195	-403.084093	-403.083149	-403.122236	29.618	
C	-0.0440591262	 1.5191350701	 0.1018493359	-0.519874
C	 0.0316842106	 0.0110821135	 0.0599076768	 0.303303
C	 0.8672141259	-0.8161207411	-0.9750466474	-0.215321
N	 0.8019086054	-1.9562980316	 0.0355694545	-0.145435
C	 0.8353376316	-0.8414503682	 1.0697659576	-0.225953
C	-0.6591792939	-2.2278252878	-0.0818418891	-0.036797
C	-1.4761581282	-2.4830157453	 1.1932584136	-0.112156
O	-1.9291364278	-1.1066622345	 1.2358947928	-0.307274
C	-1.2737990311	-0.8049181522	-0.0218300385	 0.093626
H	 0.953051721	 1.969659149	 0.1488407049	 0.115151
H	-0.5505906921	 1.9174023931	-0.7846022004	 0.118019
H	-0.6049102346	 1.8527250105	 0.981618551	 0.133651
H	 0.4363564748	-1.0432796882	-1.9559807083	 0.099086
H	 1.8947308147	-0.462683216	-1.0866749092	 0.108753
H	 1.8663455322	-0.502502399	 1.1926524493	 0.102938
H	 0.3965496481	-1.0624677938	 2.0428545094	 0.118339
H	-0.8494119847	-2.8788930117	-0.9347215152	 0.083958
H	-2.3168357416	-3.1724570715	 1.0504932264	 0.105095
H	-0.9193118878	-2.7765813689	 2.0904225313	 0.110301
H	-1.9811507066	-0.4481230564	-0.7770074553	 0.070593
189.0887	214.0672	243.5042	311.6388	340.9028	430.2949	502.9413	569.5661	592.9547	665.9856	799.5259	828.9852	840.1482	859.9445	881.7465	889.2697	935.3611	957.9677	985.6522	994.3898	1005.7469	1037.3825	1057.6992	1068.3962	1122.1222	1162.6872	1168.5019	1189.4437	1209.6411	1220.9549	1221.1374	1247.2721	1269.3056	1285.1806	1340.7654	1355.7032	1365.5862	1413.4478	1492.4497	1495.9683	1498.1336	1518.3241	1537.0396	3022.1921	3026.8456	3045.7493	3060.3077	3067.4261	3078.0239	3092.0006	3097.2398	3113.554	3116.8248	3140.8127
CC12CN(C1)C1COC21	C[C@@]12CN(C1)[C@H]1CO[C@@H]21	
InChI=1S/C7H11NO/c1-7-3-8(4-7)5-2-9-6(5)7/h5-6H,2-4H2,1H3	InChI=1S/C7H11NO/c1-7-3-8(4-7)5-2-9-6(5)7/h5-6H,2-4H2,1H3/t5-,6+/m0/s1
