17
gdb 93614	2.74253	1.31655	1.0485	1.5305	74.4	-0.2429	-0.0322	0.2107	1169.4982	0.133996	-421.813422	-421.804572	-421.803628	-421.847314	32.604	
C	-0.3558557245	 1.3714417448	-0.324520711	-0.401522
C	-0.1941791032	-0.0801160627	 0.1357669566	 0.016385
O	 0.1562427686	-0.9678415524	-0.9199130609	-0.261135
C	 1.5696461139	-1.1407607673	-0.925534725	-0.109825
C	 1.9720406249	-1.1848891902	 0.5629878289	-0.31137
C	 3.3504935037	-0.8655757365	 0.8639781196	 0.32549
C	 4.4956592988	-0.5852617393	 1.0946393654	-0.435527
C	 0.9270402013	-0.2143625043	 1.1744811327	 0.372411
O	 0.9814691996	 0.3380223404	 2.2358340683	-0.297272
H	 0.5656480843	 1.7499552503	-0.7772184368	 0.126292
H	-1.1583932679	 1.4407077705	-1.0627393252	 0.131804
H	-0.6005159715	 2.0030055186	 0.533896521	 0.142522
H	-1.1348961694	-0.4365937367	 0.5715442871	 0.116403
H	 1.7907511512	-2.0646133353	-1.4622042029	 0.128913
H	 2.0810857944	-0.3084614544	-1.430011555	 0.111801
H	 1.7141443566	-2.1778561057	 0.9599765484	 0.142368
H	 5.506884129	-0.3411605195	 1.3080033489	 0.202262
49.3243	128.9985	152.0239	216.9257	220.6558	241.4443	379.549	416.6353	484.9328	493.0483	560.0757	634.1396	641.9282	650.2894	654.5507	799.2998	865.342	933.1228	984.8139	1015.5239	1063.7846	1084.483	1089.2874	1108.5538	1151.882	1216.1948	1258.2948	1293.5847	1307.6459	1349.5907	1386.0373	1396.6926	1486.4179	1493.1414	1518.5504	1866.7075	2244.2247	3000.2897	3012.5369	3043.9828	3046.2579	3117.8618	3121.4492	3132.8265	3504.5298
CC1OCC(C#C)C1=O	C[C@H]1OC[C@@H](C#C)C1=O	
InChI=1S/C7H8O2/c1-3-6-4-9-5(2)7(6)8/h1,5-6H,4H2,2H3	InChI=1S/C7H8O2/c1-3-6-4-9-5(2)7(6)8/h1,5-6H,4H2,2H3/t5-,6-/m1/s1
