23
gdb 96124	2.10425	1.78464	1.21208	1.1979	85.24	-0.2419	0.0837	0.3256	1149.5601	0.206787	-388.297566	-388.288676	-388.287732	-388.330442	35.43	
C	-0.1125704525	 1.4970229284	-0.0389198492	-0.404951
C	 0.0492944749	-0.0176157573	 0.022365807	 0.063083
O	 0.7263181058	-0.4037735741	-1.168082618	-0.257999
C	 0.8731200335	-1.8094395336	-1.267937754	-0.07234
C	 1.8979676485	-2.3402232932	-0.2612458268	-0.236047
C	 1.7239138858	-1.6813122686	 1.1046180655	-0.077235
C	 2.2681741939	-0.2887322222	 1.3384883829	-0.321453
C	 0.7778708475	-0.5046077076	 1.2753106371	 0.344136
C	-0.0248848264	-0.4151114547	 2.5576154185	-0.474988
H	 0.8645481425	 1.9877014375	-0.0133486864	 0.123437
H	-0.6171565659	 1.7796387089	-0.9667117996	 0.120086
H	-0.7068724776	 1.8620642305	 0.8031276444	 0.114301
H	-0.9537034553	-0.4848419455	 0.0170558302	 0.055235
H	-0.1041567972	-2.2942045975	-1.1048932463	 0.083467
H	 1.1823116657	-2.0180448871	-2.2965480651	 0.101055
H	 1.7816663933	-3.4263202301	-0.1745940289	 0.095919
H	 2.9118886464	-2.1619233801	-0.6381942588	 0.10453
H	 1.782422159	-2.3563842759	 1.953593424	 0.077272
H	 2.7161550744	-0.058676751	 2.2996534635	 0.100647
H	 2.7398144915	 0.1965043893	 0.4896606534	 0.116599
H	-0.2696761649	 0.6216635899	 2.8148617617	 0.117771
H	-0.9681001827	-0.9690594684	 2.4766902354	 0.113466
H	 0.5355811599	-0.8363466577	 3.3980731197	 0.114008
101.0558	190.8207	214.5886	230.8486	249.3987	278.3529	334.3884	361.7539	395.1888	475.0769	483.2757	548.7421	641.1908	702.8158	779.165	850.1028	860.4599	892.8296	911.6679	942.5094	961.5593	996.8735	1035.9485	1066.6198	1093.519	1098.3982	1117.6813	1130.7846	1144.5839	1152.683	1159.1375	1242.1133	1262.3889	1295.6786	1330.5549	1356.5535	1369.113	1370.5803	1405.2343	1414.5736	1417.4034	1421.2315	1480.4897	1484.7214	1490.9862	1492.4999	1497.0469	1501.8708	1506.0267	2918.2497	2962.7653	3020.9696	3029.6294	3047.7036	3067.9005	3080.0626	3081.2044	3097.7451	3122.4799	3123.1139	3124.6734	3141.327	3210.0895
CC1OCCC2CC12C	C[C@H]1OCC[C@H]2C[C@@]12C	
InChI=1S/C8H14O/c1-6-8(2)5-7(8)3-4-9-6/h6-7H,3-5H2,1-2H3	InChI=1S/C8H14O/c1-6-8(2)5-7(8)3-4-9-6/h6-7H,3-5H2,1-2H3/t6-,7+,8+/m1/s1
