22
gdb 107062	3.94247	1.07157	0.9638	1.1822	82.11	-0.2426	0.0881	0.3307	1332.0103	0.194705	-404.343887	-404.334745	-404.3338	-404.377632	34.887	
C	 0.3252523491	 1.4917626095	 0.2355081893	-0.381928
C	-0.1528328344	 0.0773217155	-0.118268776	-0.266321
C	 0.5187532059	-0.479298324	-1.3500663199	 0.337157
C	 0.2298164414	 0.1215418969	-2.7218081065	-0.154537
O	 0.7551454217	-0.8039377961	-3.666668957	-0.273521
C	 0.629879083	-2.121581798	-3.1189296551	 0.113776
C	 1.6494606821	-3.0264272145	-3.7928073763	-0.40068
C	 0.7897478632	-1.9147539852	-1.6188430838	-0.118261
N	 1.8787847226	-1.0224715351	-1.1913448228	-0.378264
H	 1.4092610166	 1.5016396073	 0.3847007849	 0.132184
H	 0.0869037552	 2.2101381405	-0.5563432119	 0.113862
H	-0.1479103579	 1.8468438295	 1.1557989472	 0.112824
H	 0.0537331336	-0.5963571835	 0.7196309128	 0.108974
H	-1.2405922186	 0.0752381465	-0.2683678651	 0.09401
H	-0.8582854377	 0.2519732934	-2.8475806337	 0.092245
H	 0.7143959056	 1.0867870677	-2.9043628411	 0.109873
H	-0.3865923758	-2.5108112373	-3.3058946344	 0.069471
H	 2.669488166	-2.6999200045	-3.5695188991	 0.121051
H	 1.5313669531	-4.0571994811	-3.4451784571	 0.118347
H	 1.5124559246	-3.0100390226	-4.8774472801	 0.128553
H	 0.5199805325	-2.7145031246	-0.9357878556	 0.088981
H	 2.4519147179	-0.7735403401	-1.9970811589	 0.232205
71.9537	123.534	182.8174	199.2351	223.8299	255.3999	296.5938	361.8045	406.7484	407.6603	557.8424	611.7463	674.893	764.187	782.5597	826.4016	876.1219	894.0052	953.8015	958.2984	1023.1251	1034.1735	1040.8078	1062.008	1078.1048	1110.6848	1127.9284	1141.6268	1162.7357	1185.7641	1235.416	1272.6579	1292.7015	1323.7204	1344.3039	1361.0457	1371.4842	1383.9842	1407.9245	1410.3295	1455.4645	1476.3413	1486.416	1495.6251	1500.5562	1508.0246	1513.4678	2945.9948	2965.9187	3023.7108	3035.7456	3042.7067	3064.7677	3073.0084	3104.2741	3113.8329	3116.0924	3121.3163	3157.3713	3464.9352
CCC12COC(C)C1N2	CC[C@]12CO[C@@H](C)[C@H]1N2	
InChI=1S/C7H13NO/c1-3-7-4-9-5(2)6(7)8-7/h5-6,8H,3-4H2,1-2H3	InChI=1S/C7H13NO/c1-3-7-4-9-5(2)6(7)8-7/h5-6,8H,3-4H2,1-2H3/t5-,6+,7-/m0/s1
