21
gdb 110485	3.11085	1.43966	1.27938	0.4028	85.48	-0.2171	0.0171	0.2342	1097.0663	0.184318	-349.929955	-349.922255	-349.921311	-349.96208	31.429	
C	-0.141305435	 1.521720081	 0.0351229201	-0.379463
C	 0.0667803122	 0.0043101601	 0.0858044844	-0.198182
C	 0.6555327572	-0.5627802246	-1.2006577511	 0.047475
C	 0.9023471918	-2.0578343694	-1.3657405555	-0.109159
C	-0.3436118599	-2.82563927	-1.895291689	-0.075795
C	-1.6858489887	-2.1838637365	-1.8046635245	-0.079327
C	-1.6093447338	-0.9283633807	-2.2608647597	-0.092058
C	-0.1677783223	-0.6072554402	-2.5740807296	-0.124412
C	 0.5057037868	-1.9986132979	-2.820421568	-0.076991
H	 0.8000995558	 2.0462195463	-0.1653266481	 0.110225
H	-0.8466455296	 1.7992818254	-0.7560357694	 0.114225
H	-0.5388866468	 1.9030151132	 0.9808289659	 0.109722
H	 0.7487076223	-0.2452526714	 0.9101436599	 0.087879
H	-0.8806863123	-0.4953812633	 0.3124162161	 0.099026
H	 1.5970521157	-0.0485448939	-1.4276903282	 0.072963
H	 1.7049111084	-2.6193436931	-0.9004807669	 0.081001
H	-0.2362912851	-3.9044049	-1.8946048565	 0.080583
H	-2.5609642839	-2.6726041663	-1.3941632918	 0.092572
H	-2.404333704	-0.1926114366	-2.2546000968	 0.092666
H	 0.0171870852	 0.2124624323	-3.26647703	 0.063587
H	 1.0128028261	-2.3501278744	-3.7108468813	 0.083463
80.8558	150.26	196.7977	267.477	331.0684	454.0925	477.0209	564.9281	678.6166	697.6291	737.176	771.8487	780.6928	812.6883	822.5865	834.5142	879.3158	926.8826	934.776	951.1645	978.2542	984.028	1004.7189	1040.3659	1058.0058	1071.8451	1089.6399	1107.7406	1125.3764	1138.2912	1171.8106	1227.4924	1241.6692	1279.663	1289.1281	1318.2496	1331.4311	1368.1695	1375.8451	1403.4638	1411.2891	1485.0937	1499.7864	1504.6272	1641.9853	3018.7614	3027.5734	3032.0705	3070.9825	3095.5371	3100.5988	3120.4398	3166.8219	3174.0386	3187.0189	3194.5677	3219.6346
CCC1C2C3C=CC1C23	CC[C@H]1[C@H]2[C@H]3C=C[C@@H]1[C@@H]23	
InChI=1S/C9H12/c1-2-5-6-3-4-7-8(5)9(6)7/h3-9H,2H2,1H3	InChI=1S/C9H12/c1-2-5-6-3-4-7-8(5)9(6)7/h3-9H,2H2,1H3/t5-,6+,7-,8+,9-/m1/s1
