15
gdb 45912	3.01434	1.48016	1.00985	2.3988	71.75	-0.246	-0.057	0.1889	1099.8481	0.116066	-450.180219	-450.172634	-450.17169	-450.212634	28.617	
N	-0.0754871	 1.3392024594	-0.080069326	-0.50497
C	-0.0137354368	 0.0776029815	 0.0448999284	 0.403048
C	-1.2870598036	-0.7355472175	 0.1116648291	-0.230741
N	-1.1175494027	-1.9411325404	 0.9038532055	-0.342798
C	-0.0124336999	-2.7452449762	 0.7514487413	 0.266668
N	-0.0261070084	-3.9874806399	 1.0293700198	-0.5039
C	 1.2632425895	-2.0387476985	 0.3207925615	 0.38213
O	 2.321793799	-2.6201796566	 0.2433267382	-0.343787
N	 1.1556811768	-0.6853701057	 0.0584195894	-0.395757
H	 0.8489733288	 1.7644526387	-0.174253242	 0.216785
H	-2.0585950837	-0.1053757964	 0.5545136447	 0.156324
H	-1.5936975176	-0.9552514481	-0.9250080909	 0.13575
H	-1.9592992256	-2.4595380021	 1.1149813477	 0.258125
H	 0.9215400652	-4.3528396972	 0.9192303594	 0.243446
H	 2.036736479	-0.2199083809	-0.1244668762	 0.259677
80.5447	132.9328	167.9446	350.7228	385.7803	412.6953	428.7228	506.3142	561.8954	607.4218	621.142	675.0513	690.3953	800.5569	820.1182	883.8242	907.8183	922.0805	1023.6886	1052.4839	1136.0832	1196.9121	1248.2596	1276.9334	1346.2626	1390.5362	1421.3822	1446.5351	1472.0899	1505.4781	1727.6876	1748.381	1808.6456	2963.3371	3128.9102	3455.263	3475.7403	3572.0836	3594.3905
N=C1CNC(=N)C(=O)N1	[NH][C]1CN[C]([NH])C(=O)N1	
InChI=1S/C4H6N4O/c5-2-1-7-3(6)4(9)8-2/h1H2,(H2,6,7)(H2,5,8,9)	InChI=1S/C4H6N4O/c5-2-1-7-3(6)4(9)8-2/h1H2,(H2,6,7)(H2,5,8,9)
