20
gdb 120049	5.0559	0.9512	0.90073	2.2391	79.08	-0.2322	0.0827	0.3148	1367.2856	0.171064	-403.066389	-403.058161	-403.057217	-403.099891	31.204	
C	 0.0338726961	 1.4245675645	-0.0136675388	-0.384412
C	-0.1414216725	-0.0722088227	 0.1779827241	-0.041386
O	 0.8724107423	-0.5307820333	 1.0561391176	-0.269771
C	 0.8598606327	-1.9186985056	 1.2674583471	 0.156356
C	 1.9586310855	-2.2746959255	 2.2637995557	-0.071992
C	 1.025600435	-2.1788327271	 3.409919219	-0.033579
C	-0.1363929885	-2.4050381045	 2.3664443434	-0.134177
C	 0.2249895224	-3.8918508666	 2.4747363257	-0.153978
N	 1.5722923948	-3.5102947404	 3.0261046131	-0.15537
H	 1.0185332072	 1.6438743582	-0.4359401184	 0.127901
H	-0.731154696	 1.8139449867	-0.69200351	 0.114867
H	-0.0518401366	 1.9466604532	 0.9434854636	 0.12755
H	-1.1392292196	-0.2930956513	 0.5892121322	 0.087863
H	-0.0671176496	-0.5984250688	-0.7881934577	 0.088407
H	 0.8230936991	-2.4539803833	 0.3045610152	 0.058396
H	 3.0137650623	-2.0441416278	 2.2034008704	 0.10119
H	 1.1025432598	-1.7440199774	 4.3968103843	 0.098986
H	-1.1573600947	-2.0298568156	 2.3997794966	 0.076094
H	-0.3244008358	-4.4291289972	 3.2518220968	 0.110512
H	 0.2468470759	-4.4908011154	 1.5556146901	 0.096544
54.7405	98.588	129.7385	237.0925	275.9956	331.1707	382.9849	441.7745	577.4488	742.2292	775.1388	798.0138	818.8549	827.571	883.1489	904.0377	932.7057	945.6907	968.4382	987.8069	1001.6738	1048.5479	1059.8037	1074.6926	1141.3917	1150.4604	1163.2868	1174.2631	1184.2654	1190.4617	1202.7067	1225.5797	1286.7447	1296.9883	1302.7693	1336.9937	1372.5136	1402.6674	1439.7018	1482.6987	1499.3638	1510.345	1528.7936	2961.1685	2970.7346	2992.8034	3026.5231	3045.3236	3099.3953	3119.9316	3122.4759	3136.6374	3204.7662	3218.8011
CCOC1C2C3C1CN23	CCO[C@H]1[C@H]2[C@H]3[C@@H]1CN23	
InChI=1S/C7H11NO/c1-2-9-7-4-3-8-5(4)6(7)8/h4-7H,2-3H2,1H3	InChI=1S/C7H11NO/c1-2-9-7-4-3-8-5(4)6(7)8/h4-7H,2-3H2,1H3/t4-,5+,6+,7+,8?/m0/s1
