19
gdb 82737	2.891	1.92373	1.53673	1.1864	78.44	-0.2262	0.0147	0.2409	916.2331	0.162897	-385.873338	-385.866802	-385.865858	-385.903701	28.45	
O	-0.0944313152	 1.4326295311	-0.0357021779	-0.445151
C	-0.0253576013	 0.017293994	-0.0334048684	 0.151481
C	-1.421778377	-0.5747874394	-0.2549324532	-0.062303
C	-1.7455493056	-0.030161594	-1.6718761519	-0.238039
C	-0.6252963757	-1.004170792	-2.0958657726	-0.022141
C	-1.09853263	-1.9725369532	-0.9702139792	-0.045924
C	 0.1340952402	-2.7269480252	-0.5506237937	-0.102228
C	 1.1938496161	-1.9612244584	-0.8355977404	-0.095279
C	 0.6721131998	-0.619179846	-1.3111144255	-0.112836
H	 0.7996891559	 1.7684882986	 0.0791081274	 0.2805
H	 0.4486768275	-0.3411935249	 0.88806237	 0.059855
H	-2.1251348938	-0.5104860346	 0.5740965867	 0.065821
H	-2.7212981962	-0.3682097493	-2.0304443212	 0.089608
H	-1.6226505022	 1.0386261182	-1.8423648958	 0.111358
H	-0.4892371127	-1.3511268411	-3.1217015669	 0.060266
H	-2.0031831177	-2.5463894026	-1.1731631028	 0.065952
H	 0.139778484	-3.7059706521	-0.0876222992	 0.094783
H	 2.2339904233	-2.1772230639	-0.622575862	 0.092099
H	 1.3818914808	 0.0494895047	-1.8008030933	 0.052178
226.2145	287.2598	329.3404	359.0295	411.2767	454.3864	581.3309	626.0085	725.2931	740.3297	773.4482	816.8636	832.8207	870.4885	875.6686	916.0423	937.9677	943.725	973.0575	978.3664	1001.4661	1020.7337	1043.5719	1079.2184	1091.161	1122.2679	1123.6956	1167.0671	1172.2737	1221.0459	1233.534	1240.6904	1262.3871	1275.9418	1300.0091	1317.0518	1341.6705	1359.4962	1426.1587	1500.4248	1639.1292	3024.5874	3069.7376	3094.575	3102.6714	3111.2007	3126.9177	3143.706	3191.7078	3217.8154	3822.5306
OC1C2CC3C2C=CC13	O[C@H]1[C@H]2C[C@@H]3[C@H]2C=C[C@H]13	
InChI=1S/C8H10O/c9-8-5-2-1-4-6(5)3-7(4)8/h1-2,4-9H,3H2	InChI=1S/C8H10O/c9-8-5-2-1-4-6(5)3-7(4)8/h1-2,4-9H,3H2/t4-,5+,6-,7+,8-/m1/s1
