20
gdb 6471	3.13338	1.58705	1.32129	2.5095	70.93	-0.2453	0.0751	0.3205	1030.0835	0.175587	-386.135248	-386.126348	-386.125404	-386.168556	33.384	
C	 0.6294841499	 1.4483361441	 0.1800312407	-0.401476
C	 0.0497031256	 0.0547289841	 0.0392875779	 0.17371
C	 0.3685576649	-0.748438934	-1.2409065314	-0.371584
C	 1.0456307244	-1.7623714552	-0.2900963845	 0.416247
C	 0.3875415144	-3.1270770696	-0.1659786411	-0.437838
C	 2.5702334715	-1.8593072212	-0.3877479675	-0.093952
O	 3.1116073688	-2.3228096271	 0.8324405171	-0.422203
O	 0.7316742305	-0.9235486834	 0.8689183331	-0.3556
H	 1.689375569	 1.4645713585	-0.0925879519	 0.119659
H	 0.0934627456	 2.1509992481	-0.4677323728	 0.117446
H	 0.5355068914	 1.7979852915	 1.2130847425	 0.127537
H	-1.0197440135	 0.0705272949	 0.2883476911	 0.077676
H	-0.4956714339	-1.1287628589	-1.7875975879	 0.107401
H	 1.0448278164	-0.2484746457	-1.9390370136	 0.104743
H	 0.5111874139	-3.6964829534	-1.0939882243	 0.113455
H	 0.8512928405	-3.6905830595	 0.6479480115	 0.137281
H	-0.6816121734	-3.0241606866	 0.0387769048	 0.11444
H	 2.8665898196	-2.5705757439	-1.1672520188	 0.103964
H	 2.9810884549	-0.8731906474	-0.6579284507	 0.077537
H	 2.7227169495	-1.7557616954	 1.5116705058	 0.291557
57.7673	121.9489	207.6708	224.9099	254.5893	262.9667	329.6477	363.5462	383.9952	459.7889	503.7722	527.2594	675.2418	790.1889	877.2895	882.4623	902.6134	920.5999	939.12	981.244	997.4222	1066.4297	1086.5091	1110.7149	1140.6557	1196.596	1205.4285	1233.6353	1274.5018	1295.9112	1315.9911	1375.6236	1389.3923	1404.691	1410.0619	1435.1056	1479.3387	1482.8284	1490.7105	1494.4533	1495.9897	1503.6088	2971.8631	3008.7995	3032.2431	3036.1645	3064.696	3066.2934	3104.2316	3107.7957	3111.4098	3124.6528	3127.5083	3765.7396
CC1CC(C)(CO)O1	C[C@H]1C[C@@](C)(CO)O1	
InChI=1S/C6H12O2/c1-5-3-6(2,4-7)8-5/h5,7H,3-4H2,1-2H3	InChI=1S/C6H12O2/c1-5-3-6(2,4-7)8-5/h5,7H,3-4H2,1-2H3/t5-,6-/m0/s1
