16
gdb 18965	6.56177	1.4079	1.39792	2.2963	64.41	-0.2314	0.0789	0.3102	920.1917	0.129804	-383.625297	-383.618523	-383.617579	-383.656461	25.657	
C	 0.0345565561	 1.3350142256	-0.2259209372	-0.239087
O	-0.0502237743	 0.0652861125	 0.3835618506	-0.25251
C	-1.3085632099	-0.5365284682	 0.2412832735	 0.128439
C	-1.6011039837	-1.3105728793	-1.066389332	-0.140505
C	-0.7261176783	-2.5205868166	-0.59956387	 0.101116
O	-1.7662496683	-3.5159352778	-0.8333723506	-0.327515
C	-2.46966483	-2.355330226	-0.2994480063	 0.082692
C	-1.3558411611	-1.9872500772	 0.7288894377	-0.140246
H	 1.034924369	 1.7255848504	-0.0256620219	 0.129912
H	-0.1138539673	 1.2807033009	-1.3147390253	 0.107767
H	-0.7089297912	 2.0334168364	 0.188736986	 0.10649
H	-2.1077200984	 0.1324045567	 0.5949152415	 0.065366
H	-1.7505889066	-0.965944741	-2.088842641	 0.085269
H	 0.3056850973	-2.7729701431	-0.8326736904	 0.105927
H	-3.5496698033	-2.4068809406	-0.1706384727	 0.097893
H	-1.2216699001	-2.3927650327	 1.7304106979	 0.08899
89.4903	164.7311	189.9622	282.3112	409.9918	530.4825	574.71	748.9171	789.8699	801.3225	837.5609	862.9925	898.3613	919.0376	960.0506	980.2452	1017.0947	1036.5296	1106.8725	1125.7531	1135.7127	1153.3739	1165.8408	1175.3579	1181.2266	1184.9255	1227.0618	1262.5981	1290.0106	1332.8767	1401.0885	1483.2316	1489.1196	1509.3928	2976.1835	2991.3252	3025.7936	3117.5683	3123.8329	3131.9228	3138.1163	3154.6873
COC1C2C3OC2C13	CO[C@H]1[C@H]2[C@@H]3O[C@H]2[C@H]13	
InChI=1S/C6H8O2/c1-7-4-2-5-3(4)6(2)8-5/h2-6H,1H3	InChI=1S/C6H8O2/c1-7-4-2-5-3(4)6(2)8-5/h2-6H,1H3/t2-,3+,4-,5-,6+
