23
gdb 95804	2.25085	1.49706	1.06226	2.071	81.37	-0.2361	0.0599	0.296	1237.5321	0.206102	-425.441691	-425.432108	-425.431164	-425.475281	37.079	
C	-0.0469063106	 1.5612665232	-0.056022859	-0.435332
C	 0.033010412	 0.0327664866	-0.0108078201	 0.001949
C	 0.7108763415	-0.5353377971	-1.2653297267	-0.071564
O	 0.7572079932	-1.9497508452	-1.2476511201	-0.256185
C	 1.4996496002	-2.4433904592	-0.1449360955	-0.077986
C	 0.8816127859	-2.0223155577	 1.1957099794	 0.008366
C	 1.6579843803	-2.591966438	 2.385396067	-0.409807
C	 0.7632617885	-0.4892910525	 1.2464395911	 0.097128
O	 2.0889095121	 0.0335369744	 1.3436293701	-0.438893
H	 0.9475286623	 2.0138423229	-0.1460906491	 0.11346
H	-0.6320507536	 1.9007035682	-0.9165964967	 0.121801
H	-0.5233050883	 1.9619914749	 0.8459511279	 0.113401
H	-0.9878615499	-0.370826712	 0.024165368	 0.078168
H	 0.1535178647	-0.2569916517	-2.16531185	 0.098344
H	 1.7282658161	-0.1193217946	-1.3498363487	 0.091748
H	 1.5000596711	-3.5334671826	-0.2410744899	 0.098989
H	 2.5430666856	-2.0942754481	-0.1979335278	 0.099902
H	-0.1433931084	-2.4154502235	 1.2146360633	 0.075712
H	 2.6794451656	-2.2043273331	 2.4059970411	 0.135055
H	 1.1790382779	-2.3193074022	 3.3318625755	 0.108298
H	 1.7022822746	-3.6850612783	 2.3363889346	 0.108036
H	 0.1871062971	-0.2040591566	 2.1426252646	 0.053074
H	 2.0283704622	 0.9801883222	 1.4985942111	 0.286336
121.7012	156.5895	207.5921	211.1884	227.1228	263.0152	276.996	313.4538	334.2046	348.7772	425.3382	447.4069	562.9184	570.6533	652.9541	830.6508	842.6267	912.8656	925.1352	966.3931	970.7308	983.33	1001.0841	1042.9681	1083.7036	1127.2184	1130.3599	1150.5483	1165.5634	1196.4054	1222.045	1270.2477	1298.1413	1319.4145	1336.4737	1342.4278	1356.4816	1383.5189	1396.3145	1406.2076	1408.1916	1421.0904	1439.022	1487.0278	1494.0004	1496.3406	1502.247	1506.2533	1512.1914	2952.1781	2974.5613	2985.5145	3018.0913	3024.9491	3027.9492	3035.8718	3075.1843	3080.1972	3089.4049	3096.564	3098.1157	3124.2035	3838.4309
CC1COCC(C)C1O	C[C@H]1COC[C@@H](C)[C@H]1O	
InChI=1S/C7H14O2/c1-5-3-9-4-6(2)7(5)8/h5-8H,3-4H2,1-2H3	InChI=1S/C7H14O2/c1-5-3-9-4-6(2)7(5)8/h5-8H,3-4H2,1-2H3/t5-,6+,7-
