15
gdb 131907	4.17297	1.12649	0.89197	5.2352	77.94	-0.2374	-0.0728	0.1645	1235.5747	0.11309	-453.917242	-453.909297	-453.908352	-453.950285	28.834	
C	-0.0064880435	 1.4545437165	 0.1258076231	-0.503862
C	-0.0078603963	-0.0307790488	-0.0156884302	 0.320028
C	-0.0799570727	-0.8296405962	-1.1528896278	-0.215931
C	-0.0456460412	-2.1805350159	-0.7498627071	-0.189858
C	 0.0467807408	-2.1630147082	 0.6268352737	 0.420876
N	 0.0690874867	-0.8637061064	 1.0602810709	-0.350914
N	 0.1156605318	-3.2180237903	 1.5682099712	 0.335817
O	 0.1937860008	-2.8973288079	 2.7608928035	-0.410802
O	 0.0936485462	-4.3702440481	 1.1456897983	-0.376424
H	 0.9097443792	 1.8163132607	 0.6065715853	 0.143935
H	-0.0752248631	 1.9217054916	-0.8584408753	 0.1478
H	-0.854078511	 1.8066745516	 0.7250972865	 0.143907
H	-0.1497379954	-0.4608037275	-2.1647392806	 0.112221
H	-0.081882874	-3.0661465167	-1.3619143453	 0.139362
H	 0.1322711616	-0.6249182045	 2.0373604537	 0.283845
83.3514	106.1629	158.4391	185.8	285.4646	343.3058	434.8948	554.4325	570.19	614.5512	659.7021	670.0458	769.7614	804.1269	819.9394	886.7138	981.6064	1004.0098	1015.5315	1060.5836	1064.0588	1161.3201	1261.3367	1296.7248	1396.697	1417.0761	1423.4723	1463.4785	1480.502	1506.6971	1520.0358	1597.6046	1603.9611	3030.4831	3080.8857	3133.7569	3252.7034	3284.387	3657.0935
CC1=CC=C(N1)N(=O)=O	Cc1ccc([nH]1)N(=O)=O	
InChI=1S/C5H6N2O2/c1-4-2-3-5(6-4)7(8)9/h2-3,6H,1H3	InChI=1S/C5H6N2O2/c1-4-2-3-5(6-4)7(8)9/h2-3,6H,1H3
