23
gdb 118274	4.72078	0.55955	0.51895	1.0637	89.83	-0.2544	0.0576	0.312	2141.7532	0.202214	-388.253082	-388.241633	-388.240689	-388.290617	40.337	
C	-0.0263325052	 1.4021140629	 0.0468091318	-0.227607
O	-0.0097139056	-0.0035270253	 0.007579837	-0.23445
C	 0.6737840763	-0.5783665806	 1.1005702213	-0.060615
C	 0.6756100457	-2.1008617129	 0.9480782677	 0.008732
C	 1.397118284	-2.5149452401	-0.3416303874	-0.394388
C	 1.2779818499	-2.7417583793	 2.2096301589	-0.182008
C	 1.1476835014	-4.2788872085	 2.2512079448	-0.369356
C	 1.6682304972	-4.8531923728	 3.4860262992	 0.29404
C	 2.1056062589	-5.3012736024	 4.5122164868	-0.435798
H	 0.9907965123	 1.8249674068	 0.0191957257	 0.103187
H	-0.5764562681	 1.7490339185	-0.8314401537	 0.126231
H	-0.5277269173	 1.7808014639	 0.9519941402	 0.10289
H	 1.711535655	-0.2002440499	 1.1446616904	 0.081352
H	 0.1849866307	-0.290521221	 2.0474020133	 0.082267
H	-0.3768125696	-2.4091739463	 0.8717879253	 0.08167
H	 1.2897382892	-3.5839420744	-0.5465509144	 0.112101
H	 0.9898584911	-1.9647963092	-1.1925129084	 0.134657
H	 2.4692731442	-2.2921336858	-0.2749976194	 0.108558
H	 2.3390651304	-2.4747654405	 2.2929121323	 0.10701
H	 0.7860007367	-2.3329514311	 3.0999686102	 0.106153
H	 0.0914223603	-4.5568143636	 2.1358842617	 0.129022
H	 1.6736191545	-4.7246632716	 1.3988433271	 0.134235
H	 2.488531878	-5.7094103866	 5.4142211895	 0.192119
56.3261	65.7956	81.4679	105.4522	120.4122	185.0902	226.4966	244.8682	266.1107	318.2083	348.0198	367.4834	420.1481	502.48	563.8593	614.2871	634.2671	762.727	857.5337	929.4574	941.3889	958.3216	975.0274	993.785	1040.6982	1122.2646	1137.4613	1161.0835	1169.8837	1189.9359	1216.3521	1232.0121	1267.4071	1283.7611	1317.237	1333.4442	1381.334	1384.9027	1405.1192	1425.0787	1472.6014	1481.0522	1485.816	1492.8454	1495.8151	1503.4725	1509.1231	1527.3592	2238.5765	2936.0453	2966.3418	2969.2418	3009.9791	3010.8641	3017.3513	3028.7858	3032.5281	3051.7905	3075.6709	3098.7921	3112.1896	3130.019	3508.4267
COCC(C)CCC#C	COC[C@@H](C)CCC#C	
InChI=1S/C8H14O/c1-4-5-6-8(2)7-9-3/h1,8H,5-7H2,2-3H3	InChI=1S/C8H14O/c1-4-5-6-8(2)7-9-3/h1,8H,5-7H2,2-3H3/t8-/m0/s1
