21
gdb 37007	3.13424	1.14439	1.14178	1.9419	82.93	-0.2394	0.0708	0.3101	1214.4229	0.182726	-387.03786	-387.029412	-387.028468	-387.071413	32.261	
C	-0.1988012054	 1.5863043811	 0.0125090369	-0.430633
C	 1.1874691751	 1.0039576077	-0.0039651501	 0.30245
C	 2.2492696205	 1.0771053792	-1.1119480749	-0.296087
C	 3.3337763663	 0.8117521296	-0.0256343986	-0.197049
C	 2.2703776649	 1.0652272838	 1.0841305331	-0.296087
C	-0.0046301285	 0.0983161643	 0.0025945383	 0.233928
C	-0.4214122647	-0.9368124245	 1.0426365652	-0.135832
O	-0.7830821377	-1.8687132566	-0.0005624805	-0.276738
C	-0.4414335311	-0.9255458369	-1.0403797449	-0.135832
H	-0.5511899099	 2.0484754465	 0.9313663983	 0.111087
H	-0.5687381662	 2.058350327	-0.8943525919	 0.111087
H	 2.1735008469	 0.3438148732	-1.9203160289	 0.099699
H	 2.3278615337	 2.0738212779	-1.5573821735	 0.10268
H	 3.6882610638	-0.2217029771	-0.034631324	 0.106843
H	 4.2010344938	 1.4749307687	-0.0303832385	 0.1
H	 2.3576204029	 2.0570751236	 1.5387263661	 0.10268
H	 2.2100843403	 0.3232283022	 1.885826764	 0.099699
H	 0.377916553	-1.3306925515	 1.6855068216	 0.099216
H	-1.2824372105	-0.667363777	 1.669136718	 0.099836
H	-1.3143133367	-0.6494260855	-1.6472633379	 0.099836
H	 0.3453500795	-1.3123663656	-1.7027178078	 0.099216
64.4356	100.5505	154.2004	161.1595	243.8446	370.4412	409.3841	428.7982	519.4637	571.4426	712.5997	782.4846	843.2798	857.3571	876.1487	886.7214	902.2853	939.5943	955.5547	984.2134	985.9509	1029.1133	1045.4718	1057.8955	1119.1349	1139.3315	1150.7212	1157.5494	1158.2604	1182.0815	1212.1645	1235.8045	1237.7816	1254.0412	1281.9672	1283.9055	1307.9364	1358.4347	1438.1506	1476.1876	1480.3744	1496.235	1509.3074	1509.8864	1534.1049	2989.0249	3000.7066	3033.3249	3034.0697	3042.1551	3045.675	3067.3683	3086.13	3090.5945	3103.2243	3122.7398	3186.4884
C1C2(CCC2)C11COC1	C1C2(CCC2)C21COC2	
InChI=1S/C8H12O/c1-2-7(3-1)4-8(7)5-9-6-8/h1-6H2	InChI=1S/C8H12O/c1-2-7(3-1)4-8(7)5-9-6-8/h1-6H2
