17
gdb 51903	4.871	0.68926	0.62999	2.8638	76.45	-0.2479	-0.0293	0.2186	1703.4272	0.135865	-455.142117	-455.133302	-455.132358	-455.177034	30.624	
O	-0.3648799128	 1.5404981237	-1.4145142203	-0.294464
C	-0.149402038	 1.7832839509	-0.2512006154	 0.161284
N	 0.92316951	 1.3021807961	 0.464812398	-0.305915
C	 1.8990713194	 0.4688154482	-0.0671895922	 0.116573
N	 2.8539946816	 0.0623938138	 0.6573073287	-0.264611
C	 3.862982518	-0.7888148265	 0.0872151458	 0.005691
C	 4.1577259405	-2.1108751995	 0.8307762114	-0.072987
O	 4.1730515034	-2.8385612829	-0.4146947049	-0.271199
C	 3.6221197914	-1.7193160177	-1.1340022459	-0.100995
H	-0.7985443708	 2.4271037852	 0.3709927687	 0.094825
H	 1.0288887622	 1.5553810613	 1.4374103198	 0.266267
H	 1.7275575765	 0.2405763505	-1.1207297563	 0.145236
H	 4.7788216507	-0.2006454878	-0.0350565676	 0.103838
H	 5.1063610162	-2.192669542	 1.3714828538	 0.107095
H	 3.3325552692	-2.4241661572	 1.4841468397	 0.101469
H	 2.5623123901	-1.8759906885	-1.3810271284	 0.098873
H	 4.1774376525	-1.5039110876	-2.0530198349	 0.10902
50.2279	92.3494	100.863	164.8029	171.3294	252.4273	336.1661	382.5172	443.9024	553.0657	654.3151	706.2718	811.7603	877.2194	892.965	1001.8682	1008.8515	1027.6708	1030.9922	1033.5236	1099.2872	1125.9272	1139.4552	1156.5092	1185.1996	1242.9701	1263.6955	1302.5203	1336.3417	1356.934	1390.2824	1437.6007	1502.1866	1505.639	1531.2191	1750.3098	1819.6136	2964.6462	2998.171	3015.2851	3044.1271	3068.2976	3077.9719	3121.5367	3609.1108
O=CNC=NC1COC1	O=CNC=NC1COC1	
InChI=1S/C5H8N2O2/c8-4-6-3-7-5-1-9-2-5/h3-5H,1-2H2,(H,6,7,8)	InChI=1S/C5H8N2O2/c8-4-6-3-7-5-1-9-2-5/h3-5H,1-2H2,(H,6,7,8)
