21
gdb 36915	3.89031	0.98778	0.89189	1.0061	84.21	-0.2327	0.0308	0.2635	1382.0053	0.182743	-387.075724	-387.06717	-387.066225	-387.10992	32.745	
C	 0.3020289208	 1.4535579531	 0.1915044095	-0.297761
C	 1.2375343208	 0.281143591	-0.0327996085	-0.284713
C	-0.2596895405	 0.0816957123	 0.0076906808	 0.1539
O	-0.8685496092	-0.4908990023	 1.1214176799	-0.264145
C	-1.2269572696	-1.8632241177	 0.9736374695	 0.126575
C	-0.012173504	-2.8247072649	 1.1029291093	-0.273639
C	-0.0867361425	-3.298915712	 2.5339150477	-0.056519
C	-1.2417267752	-2.9704056784	 3.1086334631	-0.054525
C	-2.145124268	-2.2103816235	 2.1691746799	-0.274022
H	 0.2550081183	 1.8596989008	 1.1955515652	 0.12558
H	 0.1673368106	 2.1809749245	-0.6009253901	 0.112469
H	 1.7530771499	 0.1931100904	-0.9833350224	 0.109542
H	 1.8029571493	-0.058506384	 0.8272134115	 0.119835
H	-0.7621725545	-0.1411337225	-0.9349572396	 0.079968
H	-1.7384067956	-1.988642174	 0.0091275633	 0.061568
H	-0.1030378115	-3.667683407	 0.4033507714	 0.101196
H	 0.9243541569	-2.3175317769	 0.855393948	 0.116069
H	 0.7121302214	-3.8604758588	 3.0055817947	 0.088438
H	-1.5349069277	-3.2242779762	 4.12114309	 0.088849
H	-2.5534756902	-1.2896020552	 2.5981244624	 0.118842
H	-2.9998890993	-2.8238033686	 1.8541278044	 0.102495
45.9967	67.5492	121.8997	193.0544	324.8269	346.8527	382.0379	428.3488	494.2561	688.6456	744.4367	759.2141	789.0081	805.7603	823.8718	863.0924	886.4352	946.588	953.0765	965.5029	974.6259	981.06	1012.1431	1052.0524	1060.0973	1070.6679	1085.8864	1126.4576	1130.8017	1170.099	1195.3812	1203.0464	1228.845	1243.8331	1253.4846	1310.6048	1326.1507	1366.7333	1382.7388	1422.7795	1452.0379	1468.5006	1476.3263	1499.0472	1688.8643	2994.8857	3013.638	3023.9456	3076.3406	3085.998	3091.9877	3132.888	3140.3341	3182.1509	3207.9265	3218.7014	3233.3694
C1CC1OC1CC=CC1	C1CC1O[C@H]1CC=CC1	
InChI=1S/C8H12O/c1-2-4-7(3-1)9-8-5-6-8/h1-2,7-8H,3-6H2	InChI=1S/C8H12O/c1-2-4-7(3-1)9-8-5-6-8/h1-2,7-8H,3-6H2
