19
gdb 89317	2.71066	1.52369	1.20584	3.0309	70.61	-0.2423	0.0644	0.3068	1060.8729	0.15898	-460.14933	-460.140939	-460.139995	-460.181447	34.109	
O	-0.1447501182	 1.3751154797	-0.0720309141	-0.45242
C	-0.0120168776	-0.0365816186	 0.0348555633	 0.059343
C	 0.4722297847	-0.5725970421	 1.4175632052	-0.322048
C	-0.797648423	-1.3624102786	 1.8126487188	 0.420418
O	-0.7727476709	-2.1172097247	 2.98275019	-0.483646
C	-1.9295506807	-0.3454223097	 1.4669992502	-0.365268
C	-1.4244650371	-0.6422316371	 0.0166519969	 0.436848
O	-2.1803190615	-0.4035723554	-1.1222722697	-0.497783
C	-1.1557466178	-2.0899712433	 0.4907646697	-0.313812
H	 0.7262039483	 1.7576615599	-0.2117313054	 0.288436
H	 0.5879628939	-0.4249838532	-0.7989708374	 0.071177
H	 1.3547697698	-1.215548645	 1.3521095146	 0.10033
H	 0.682882973	 0.2540592372	 2.1048287112	 0.091194
H	-0.5800952177	-1.5268061038	 3.7192063446	 0.277595
H	-2.9229941731	-0.76293975	 1.6383555368	 0.103867
H	-1.8516313184	 0.6771312812	 1.8428808317	 0.095341
H	-2.0622753369	 0.5304626181	-1.3363693129	 0.285566
H	-0.3765069958	-2.6690578298	-0.0131666762	 0.091314
H	-2.0759547308	-2.6697701149	 0.5785405725	 0.113547
157.9859	232.2234	240.9913	270.0253	281.2588	309.5706	384.1586	415.8252	441.8137	470.6412	504.5835	547.8199	600.0201	618.6324	702.7906	826.3364	832.2172	884.807	953.1114	964.9297	988.9072	1018.4227	1035.8104	1056.2468	1113.661	1118.769	1157.3117	1158.205	1185.1256	1220.6679	1225.2408	1245.1672	1273.3633	1326.3993	1345.6061	1366.8295	1411.0555	1428.2579	1479.0391	1484.4544	1533.4444	3010.5182	3041.7957	3058.9428	3071.4526	3096.9199	3133.2075	3142.1518	3780.3158	3804.5688	3832.6562
OC1CC2(O)CC1(O)C2	O[C@H]1C[C@@]2(O)C[C@]1(O)C2	
InChI=1S/C6H10O3/c7-4-1-5(8)2-6(4,9)3-5/h4,7-9H,1-3H2	InChI=1S/C6H10O3/c7-4-1-5(8)2-6(4,9)3-5/h4,7-9H,1-3H2/t4-,5-,6+/m0/s1
