19
gdb 39286	2.35578	2.34157	1.52489	2.8264	72.21	-0.249	0.0631	0.3121	911.8496	0.163475	-423.030711	-423.024051	-423.023107	-423.062206	26.8	
C	 0.0710661723	 1.4497454209	-0.517729083	-0.254366
C	 1.5090304042	 1.5794575683	 0.0622719412	-0.039185
C	 1.6307440096	 2.2671892985	 1.4403116621	-0.102498
O	 1.9976500349	 1.2631289121	 2.3851178123	-0.254973
C	 1.5921412966	-0.0141860264	 1.9435422535	 0.202711
O	 0.3262050236	-0.4157212874	 2.42008668	-0.254872
C	-0.6989052368	-0.0708387712	 1.4897019494	-0.102541
C	-0.0408623704	 0.0239447122	 0.095135442	-0.03908
C	 1.4796231724	 0.0659266259	 0.4135453747	-0.081942
H	-0.6632143858	 2.1885425819	-0.1798180068	 0.097435
H	 0.06613961	 1.4315677248	-1.6099753768	 0.104694
H	 2.275883939	 1.9187335294	-0.6350390567	 0.076886
H	 2.4091441162	 3.0358479331	 1.4635147114	 0.107102
H	 0.6831264668	 2.7423889538	 1.7331568338	 0.095741
H	 2.3135553107	-0.7239524213	 2.3546221761	 0.089702
H	-1.4647266824	-0.8503589759	 1.5454870679	 0.107127
H	-1.1702041396	 0.8816196948	 1.7729452344	 0.095732
H	-0.3918304252	-0.7586549752	-0.5784933684	 0.076873
H	 2.1416396938	-0.6052093583	-0.1303461871	 0.075455
69.7926	128.5635	303.6509	399.481	483.6128	588.0102	633.0622	663.8971	731.6993	805.5545	844.7892	850.1814	903.1903	916.8124	933.765	950.1528	968.6209	975.532	977.9788	1023.1308	1043.9857	1074.7157	1110.2649	1144.3773	1151.0406	1182.6685	1229.1129	1229.308	1243.1702	1251.1054	1272.5414	1281.834	1314.5177	1319.9948	1341.7387	1373.6893	1393.5086	1404.221	1485.0602	1522.7949	1535.5077	2992.0646	2998.4928	3045.2957	3068.2943	3069.1847	3091.6315	3093.7377	3098.52	3110.5768	3132.625
C1C2COC3OCC1C23	C1[C@H]2CO[C@H]3OC[C@@H]1[C@@H]23	
InChI=1S/C7H10O2/c1-4-2-8-7-6(4)5(1)3-9-7/h4-7H,1-3H2	InChI=1S/C7H10O2/c1-4-2-8-7-6(4)5(1)3-9-7/h4-7H,1-3H2/t4-,5+,6+,7-
