19
gdb 104435	3.21666	1.21398	1.08101	1.9485	73.02	-0.2492	0.0066	0.2557	1169.9415	0.159413	-460.158483	-460.149815	-460.148871	-460.191489	33.473	
O	 0.1587449605	 1.4198045054	-0.0814803335	-0.427027
C	 0.1078555385	 0.0161777428	 0.063123965	-0.079264
C	-1.3415886832	-0.4840754182	 0.0995519864	 0.291752
O	-1.9095656979	 0.0181073483	-1.123492776	-0.483975
C	-1.4204905754	-2.0124874779	 0.1218471971	-0.13591
O	-2.7678828908	-2.426477317	 0.297069751	-0.259874
C	-3.2599926294	-2.0954902743	 1.5833940961	-0.129552
C	-2.9585961878	-0.6744878376	 1.9719287401	-0.091871
C	-2.0921045686	 0.07061263	 1.2892271399	-0.103224
H	-0.4393049964	 1.6241969337	-0.8116893499	 0.293238
H	 0.6347530815	-0.4923381684	-0.7606756873	 0.091301
H	 0.6166385646	-0.2327008039	 0.9995629218	 0.109684
H	-2.8388821019	-0.2372782384	-1.1216764945	 0.285192
H	-1.0944071435	-2.4171469003	-0.8396545345	 0.115805
H	-0.7788937262	-2.4237798607	 0.918776897	 0.089418
H	-4.3419309666	-2.2677000048	 1.5511810908	 0.121129
H	-2.8494922516	-2.7886237736	 2.3415817904	 0.103779
H	-3.4798342724	-0.283640691	 2.8423295551	 0.100391
H	-1.8891262435	 1.104775156	 1.5477655752	 0.109008
99.423	132.6489	191.3185	243.7584	280.1718	334.7242	353.1396	378.2638	441.1538	478.0867	500.5892	512.5406	623.4121	735.5368	756.1405	837.5968	903.8371	909.0262	965.7242	991.8809	1016.6558	1045.3769	1060.7215	1091.2884	1119.0572	1133.6342	1183.2221	1229.2155	1235.4499	1271.0318	1318.7955	1336.52	1362.5123	1394.5602	1404.4098	1426.6289	1441.2571	1478.9187	1489.2046	1497.5651	1715.4846	2933.3981	2970.4563	2975.0455	3057.5714	3082.1379	3098.9476	3158.1116	3191.1461	3778.5687	3808.137
OCC1(O)COCC=C1	OC[C@@]1(O)COCC=C1	
InChI=1S/C6H10O3/c7-4-6(8)2-1-3-9-5-6/h1-2,7-8H,3-5H2	InChI=1S/C6H10O3/c7-4-6(8)2-1-3-9-5-6/h1-2,7-8H,3-5H2/t6-/m1/s1
