16
gdb 44087	3.9469	1.46347	1.21561	2.5807	68.99	-0.249	-0.0097	0.2393	991.6778	0.125048	-437.843311	-437.83639	-437.835446	-437.874677	27.078	
O	 0.1025602101	-0.0124416395	 0.0354858414	-0.313147
C	-0.01591967	 1.1755369571	-0.0230235997	 0.385427
C	-1.1935989233	 2.1835691024	 0.0714627823	-0.502008
C	-0.0891808652	 3.2129832952	 0.3259811029	 0.310103
C	 0.1543010496	 4.6543442706	-0.0979811188	-0.150548
O	 1.0300933482	 4.8614741085	 1.0434529316	-0.288171
C	 0.7376834315	 3.5653935962	 1.5988980854	 0.046183
C	 1.7660297955	 2.4739573305	 1.1896024591	-0.214214
N	 0.9588741134	 2.2075870433	-0.0531264929	-0.154597
H	-1.7492635746	 2.3377869814	-0.8577228036	 0.144263
H	-1.8967701307	 1.9780922828	 0.8804070616	 0.145375
H	 0.6647176134	 4.7978580697	-1.0564082884	 0.121325
H	-0.7265710321	 5.3065344827	-0.0412443994	 0.111383
H	 0.3901594135	 3.615254011	 2.6338243828	 0.093305
H	 2.7674904319	 2.8553582891	 0.9824320603	 0.133406
H	 1.8230130987	 1.5995212289	 1.8445051053	 0.131917
106.7803	182.2441	259.3049	315.6926	401.6708	447.1318	508.1014	540.4687	664.0021	745.558	784.8775	805.3998	867.4894	895.4977	915.8977	976.3191	1000.2581	1016.3029	1039.1295	1077.1079	1108.3514	1138.7255	1153.5928	1167.9294	1191.3795	1203.888	1230.133	1267.6737	1291.872	1310.2662	1377.0931	1440.9476	1483.9361	1507.5797	1892.927	3018.24	3060.7779	3072.5681	3078.0478	3081.7762	3128.6536	3134.2593
O=C1CC23COC2CN13	O=C1C[C@@]23CO[C@@H]2CN13	
InChI=1S/C6H7NO2/c8-5-1-6-3-9-4(6)2-7(5)6/h4H,1-3H2	InChI=1S/C6H7NO2/c8-5-1-6-3-9-4(6)2-7(5)6/h4H,1-3H2/t4-,6-/m1/s1
