15
gdb 125279	5.34943	1.25958	1.02605	6.2457	75.11	-0.2053	0.0043	0.2096	1102.8219	0.115067	-412.995566	-412.988076	-412.987132	-413.027327	28.259	
C	-0.0155091851	 1.4829963943	 0.0577671218	-0.503225
C	-0.0019862157	-0.0049067066	-0.0455809837	 0.332787
C	-0.0458536124	-0.8232010666	-1.1471746804	-0.374243
C	-0.0043226171	-2.1690974455	-0.6549120074	 0.312444
C	 0.0627858509	-2.0930446933	 0.7283367134	 0.43239
N	 0.0998489296	-3.3671429593	 1.1597685707	-0.363951
N	 0.0566843035	-4.2122049887	 0.0609635307	-0.13192
N	-0.005396687	-3.4867545755	-1.013026911	-0.292182
N	 0.0653088151	-0.7910791329	 1.1232985049	-0.46464
H	 0.8893851295	 1.871742669	 0.5419343938	 0.130113
H	-0.0712484457	 1.921505633	-0.9406492742	 0.146108
H	-0.876750741	 1.8494669049	 0.6307587068	 0.13008
H	-0.1005619016	-0.4860092477	-2.1700229509	 0.108802
H	 0.1506790858	-3.7686212161	 2.0796259457	 0.273533
H	 0.107257241	-0.4285523889	 2.0588471698	 0.263904
128.6385	150.7256	231.1697	279.7518	305.1765	344.0326	415.678	500.971	556.2652	625.3263	678.6498	764.8156	775.6868	804.6571	833.7202	927.0762	962.529	1011.0886	1024.7855	1062.665	1160.9045	1213.3203	1243.2824	1284.4801	1374.6524	1376.7291	1416.3853	1465.1321	1477.8703	1495.6259	1516.0331	1609.7043	1650.5485	3016.1794	3060.3071	3129.2074	3261.0691	3686.2271	3687.3968
CC1=CC2=C(NN=N2)N1	Cc1cc2c([nH]nn2)[nH]1	
InChI=1S/C5H6N4/c1-3-2-4-5(6-3)8-9-7-4/h2H,1H3,(H2,6,7,8,9)	InChI=1S/C5H6N4/c1-3-2-4-5(6-3)8-9-7-4/h2H,1H3,(H2,6,7,8,9)
