24
gdb 101346	2.50818	1.04795	0.84211	1.946	87.2	-0.2148	0.0773	0.2921	1513.4181	0.214972	-405.509508	-405.498523	-405.497579	-405.546138	39.516	
C	-0.2976144585	 1.7050148248	-0.3102186084	-0.373084
C	-0.0444543236	 0.2983077807	 0.2272873342	-0.122917
N	-1.2834738261	-0.4782760571	 0.1881966672	-0.100815
C	-1.5697271522	-1.2658973123	-1.0081985562	-0.249521
C	-1.249827339	-1.9350642935	 0.2849433481	-0.009136
C	 0.0127541833	-2.7670656884	 0.4784389517	 0.106992
C	-0.3560483571	-4.2493574904	 0.6223279722	-0.404865
O	 0.8978694135	-2.5574479307	-0.6161644536	-0.238663
C	 2.2417971953	-2.9000495993	-0.3618938841	-0.239907
H	 0.609150988	 2.3146685916	-0.243460472	 0.105313
H	-0.6042854002	 1.6698565199	-1.3608984508	 0.116176
H	-1.0934134922	 2.1970908213	 0.2562001294	 0.121817
H	 0.7705634389	-0.1786484277	-0.3337116411	 0.10476
H	 0.2722488816	 0.3578371652	 1.2765307463	 0.092086
H	-2.5934529188	-1.2292375409	-1.3729820684	 0.104135
H	-0.8028443218	-1.3186221616	-1.7767361838	 0.124922
H	-2.0782058803	-2.3289653195	 0.8732691261	 0.084584
H	 0.5144339975	-2.4353235125	 1.4046758927	 0.069455
H	-0.883814402	-4.5942547256	-0.2720127937	 0.128824
H	 0.533438467	-4.8697369629	 0.7599321424	 0.115398
H	-1.0041032286	-4.403064675	 1.49048833	 0.119336
H	 2.8158186371	-2.6214008355	-1.2490702833	 0.128319
H	 2.6427976043	-2.3539384296	 0.5058951391	 0.1068
H	 2.3775497239	-3.9763890309	-0.1852408941	 0.109992
53.8319	72.2966	80.5426	139.6106	195.0018	204.5696	220.2328	237.2154	283.1642	310.2193	353.75	399.4345	444.0013	565.3557	616.3378	729.6623	793.3303	816.4849	869.1349	921.3332	956.6962	984.2768	1035.9854	1058.984	1076.3289	1107.7961	1115.1794	1119.0606	1136.8379	1145.573	1181.8972	1195.3583	1204.8708	1223.9732	1309.2861	1340.3665	1345.5266	1378.8665	1385.7436	1401.4478	1409.254	1413.9798	1478.0357	1483.524	1488.0345	1493.2972	1494.4187	1501.5483	1503.6161	1511.2003	1522.1822	2944.7829	2981.7847	3008.6833	3032.0653	3036.4711	3043.4971	3045.4106	3098.2989	3102.8365	3104.7362	3112.695	3116.5681	3116.6946	3121.0823	3187.6805
CCN1CC1C(C)OC	CCN1C[C@H]1[C@@H](C)OC	
InChI=1S/C7H15NO/c1-4-8-5-7(8)6(2)9-3/h6-7H,4-5H2,1-3H3	InChI=1S/C7H15NO/c1-4-8-5-7(8)6(2)9-3/h6-7H,4-5H2,1-3H3/t6-,7+,8?/m1/s1
