22
gdb 110711	3.54421	1.1656	1.1088	0.8862	86.8	-0.2096	0.0041	0.2137	1244.1035	0.194563	-367.161295	-367.152639	-367.151694	-367.194353	34.205	
C	-0.1323260853	 1.5691326603	 0.079031205	-0.375459
C	 0.1611169282	 0.0792014092	-0.1377852402	-0.21891
C	 0.7279821938	-0.5851497124	 1.1044109867	 0.064889
C	-0.1283886299	-0.8652023156	 2.4009450718	-0.073764
C	-1.2677185557	-1.7339572432	 1.8222148221	-0.089158
C	-0.6003967222	-2.5953235025	 1.0505664829	-0.088256
C	 0.8654102234	-2.1470740185	 1.2536835413	-0.089869
N	 0.9511477882	-1.8582883585	 2.7255175899	-0.069362
C	 0.6961364988	-2.9162603577	 3.687689921	-0.326828
H	 0.7638228983	 2.1108535161	 0.4013212334	 0.114658
H	-0.4931585845	 2.0393430495	-0.8409273823	 0.110897
H	-0.8989011224	 1.7136971514	 0.848312046	 0.11489
H	-0.7489782661	-0.4324198167	-0.4651246428	 0.097375
H	 0.8908731769	-0.0321033584	-0.9508764047	 0.093226
H	 1.6692777418	-0.1103439201	 1.396254875	 0.083766
H	-0.3596852954	-0.1014288456	 3.1446498931	 0.062193
H	-2.3285768849	-1.6293409909	 1.9994123139	 0.10134
H	-0.9606350941	-3.3948054238	 0.4190484363	 0.101575
H	 1.6716905852	-2.7221357086	 0.7956665017	 0.061298
H	 1.5368053966	-3.6180175823	 3.6724497657	 0.114986
H	 0.6490176234	-2.4781623705	 4.6903094256	 0.114972
H	-0.2321726141	-3.4814618112	 3.5107974286	 0.09554
75.8397	143.1297	191.9347	223.6967	262.6332	293.9302	314.2525	378.3293	522.9701	584.3477	616.7696	692.0547	745.101	769.019	803.1335	815.4457	833.4023	859.0015	897.1305	913.4137	947.1276	956.8329	989.2056	1055.6355	1083.0053	1117.2763	1125.5385	1128.8924	1155.2026	1188.4843	1216.6589	1221.8978	1239.4309	1243.5187	1277.5454	1291.882	1308.7687	1343.2242	1402.3509	1412.9769	1438.5965	1483.5765	1488.7411	1498.5796	1505.9693	1507.2244	1613.496	2982.2499	3021.832	3029.751	3063.3014	3067.7415	3079.0158	3095.8665	3099.3057	3103.1655	3105.6937	3109.9311	3220.3192	3248.0494
CCC1C2C=CC1N2C	CC[C@H]1[C@H]2C=C[C@@H]1N2C	
InChI=1S/C8H13N/c1-3-6-7-4-5-8(6)9(7)2/h4-8H,3H2,1-2H3	InChI=1S/C8H13N/c1-3-6-7-4-5-8(6)9(7)2/h4-8H,3H2,1-2H3/t6-,7+,8-
