20
gdb 57343	1.68778	1.65291	1.04718	2.9253	79.64	-0.2743	-0.0539	0.2204	1228.8071	0.167163	-403.180229	-403.169708	-403.168764	-403.215676	38.006	
C	-0.0438991814	 1.5430522671	-0.0615513218	-0.417323
C	 0.0068987332	 0.0084477324	 0.0247739288	 0.230339
C	 0.7539042804	-0.4283989994	 1.2977055889	-0.424666
C	-1.4276348599	-0.5476381197	 0.0446389556	-0.420704
C	 0.7383476992	-0.5483729997	-1.2624586634	-0.233634
C	 2.2006444553	-0.0829723811	-1.3457574551	 0.157366
O	 2.5263182336	 0.9480049084	-1.8676104258	-0.240788
C	 0.7032113764	-2.009005812	-1.3263855253	 0.272878
N	 0.7157656001	-3.1642481635	-1.368888102	-0.325814
H	 0.9518849794	 1.9903114973	-0.1016800868	 0.137743
H	-0.5945743054	 1.8735647626	-0.9482562356	 0.119906
H	-0.558449056	 1.9401874467	 0.8190919692	 0.11903
H	 0.2039285414	-0.0953490281	 2.1830906005	 0.125295
H	 0.8506500595	-1.5171521248	 1.3544214609	 0.139184
H	 1.7564185047	 0.0087165184	 1.3537131785	 0.121548
H	-1.9776646151	-0.2608902808	-0.8580095878	 0.118375
H	-1.439014765	-1.6386235869	 0.1184292282	 0.142548
H	-1.9686336623	-0.1452126358	 0.9069089395	 0.121055
H	 0.2259420017	-0.1414247759	-2.1410483153	 0.144088
H	 2.9399346404	-0.7628860753	-0.8740834911	 0.113575
50.023	88.9073	147.5176	173.762	218.5341	242.6924	268.8673	270.9138	307.9822	333.4726	380.8631	405.5867	423.8002	496.3178	548.2853	556.6507	744.3601	863.8671	939.3268	941.9676	957.887	970.4164	996.9245	1048.265	1060.8828	1082.0313	1188.3342	1233.2763	1244.0938	1275.098	1312.3297	1406.2223	1409.4206	1422.3699	1439.3903	1479.9017	1484.1855	1486.7572	1505.7253	1507.1295	1516.6823	1833.8423	2352.6981	2919.4091	3033.014	3035.0169	3042.0525	3061.3622	3100.964	3102.439	3106.9998	3111.2259	3118.0488	3127.9868
CC(C)(C)C(C=O)C#N	CC(C)(C)[C@@H](C=O)C#N	
InChI=1S/C7H11NO/c1-7(2,3)6(4-8)5-9/h5-6H,1-3H3	InChI=1S/C7H11NO/c1-7(2,3)6(4-8)5-9/h5-6H,1-3H3/t6-/m1/s1
