20
gdb 101883	3.80622	0.57359	0.52023	4.3468	76.46	-0.2666	0.0366	0.3031	2040.7423	0.169086	-440.295608	-440.284911	-440.283967	-440.332535	37.395	
O	 0.3397442668	 0.3705170312	 0.9943654341	-0.408071
C	-0.1227113318	 0.2651954077	-0.3419875489	-0.097432
C	-1.4918880551	-0.4222442345	-0.4546314146	 0.087591
O	-1.9448576453	-0.3944151439	-1.8034707015	-0.425138
C	-1.4776396131	-1.8372696334	 0.1293145198	-0.199367
C	-2.8648231414	-2.4822988996	 0.1635485042	-0.180869
C	-2.8131367984	-3.9355972102	 0.673928077	-0.343334
C	-4.1316513315	-4.5639440524	 0.7239143786	 0.256962
N	-5.1816220347	-5.0453756323	 0.7587021972	-0.30482
H	-0.1883031804	 1.0409666877	 1.4394571222	 0.28912
H	-0.1784550497	 1.2426229155	-0.841090922	 0.103894
H	 0.6291809541	-0.3327735224	-0.8740659454	 0.100738
H	-2.2271398178	 0.1831461228	 0.0945371277	 0.083482
H	-1.3299102846	-0.9160466312	-2.3321362466	 0.281391
H	-0.7925680877	-2.454827369	-0.4726782075	 0.085154
H	-1.0433737803	-1.7886221245	 1.1343987378	 0.118202
H	-3.5313366697	-1.9004534416	 0.8104075901	 0.118853
H	-3.3050577121	-2.4600476525	-0.8376247491	 0.132574
H	-2.1651091993	-4.5417608997	 0.0296142921	 0.149487
H	-2.374339968	-3.9716328078	 1.6782453847	 0.151584
44.3941	74.916	97.3059	131.7341	136.2211	189.0264	247.384	302.6598	309.7164	323.1812	400.4219	440.5011	453.6214	512.2662	572.8394	745.673	829.4222	865.224	948.5538	971.5875	1015.0397	1045.4073	1058.4718	1087.5153	1110.4228	1123.3289	1165.7631	1175.6203	1259.2512	1277.9216	1315.8587	1332.0354	1334.6747	1373.6024	1385.7679	1400.637	1413.2274	1419.3839	1468.8625	1483.4442	1501.8239	1506.3175	2362.4856	2990.7684	3005.0571	3013.7102	3035.8823	3049.6899	3055.235	3067.4873	3072.6688	3104.6056	3792.9578	3818.4321
OCC(O)CCCC#N	OC[C@@H](O)CCCC#N	
InChI=1S/C6H11NO2/c7-4-2-1-3-6(9)5-8/h6,8-9H,1-3,5H2	InChI=1S/C6H11NO2/c7-4-2-1-3-6(9)5-8/h6,8-9H,1-3,5H2/t6-/m0/s1
