16
gdb 10270	2.39159	1.62315	1.23971	1.9686	62.14	-0.254	-0.0546	0.1994	1021.5279	0.126063	-420.884737	-420.875244	-420.874299	-420.920519	31.882	
C	-0.0399875392	 1.4917041078	-0.1643458048	-0.430838
C	-0.0666091145	-0.0093618557	 0.1036924774	 0.117156
O	 0.5463223477	-0.3519867378	 1.3405090982	-0.43785
C	-1.5242492403	-0.5980750231	 0.0269995862	-0.164679
C	-1.4314573513	-2.1048898834	-0.1109281443	 0.137595
O	-1.6826928954	-2.7043396556	-1.1238179411	-0.243575
C	-2.2919198935	-0.192462963	 1.2740381902	 0.138098
O	-2.7886681966	 0.8946614743	 1.4309741014	-0.249576
H	 0.9843900349	 1.8600753063	-0.056464591	 0.130883
H	-0.3827455803	 1.7128669377	-1.1790958248	 0.132804
H	-0.6919955852	 2.0292582822	 0.5314371331	 0.146457
H	 0.5239799681	-0.5235852084	-0.6630284364	 0.113997
H	 0.3386214466	 0.3375654657	 1.980655202	 0.293009
H	-2.0207696249	-0.1886465823	-0.8573709199	 0.123097
H	-1.0735512214	-2.6326908358	 0.8006121705	 0.098979
H	-2.3533178547	-0.963583089	 2.0730777534	 0.094442
34.399	38.1323	88.8061	193.9653	209.3092	244.1559	261.4741	310.701	359.6629	406.9107	476.5038	523.17	623.7711	787.1699	913.7698	944.5923	989.2529	1019.3859	1073.1493	1084.9888	1110.8567	1149.8034	1233.3911	1245.0412	1313.2713	1359.9352	1409.6597	1422.8352	1424.317	1446.0238	1492.514	1496.5434	1806.7534	1842.6431	2880.1799	2898.1155	3041.7511	3045.2682	3086.049	3120.286	3121.6654	3804.9012
CC(O)C(C=O)C=O	C[C@@H](O)C(C=O)C=O	
InChI=1S/C5H8O3/c1-4(8)5(2-6)3-7/h2-5,8H,1H3	InChI=1S/C5H8O3/c1-4(8)5(2-6)3-7/h2-5,8H,1H3/t4-/m1/s1
