21
gdb 37877	2.8227	2.09749	2.04602	0.1029	83.27	-0.2599	0.0882	0.3481	852.8822	0.18856	-349.948063	-349.942422	-349.941478	-349.977514	26.565	
C	-0.0581029861	 1.559127347	-0.0004521467	-0.246952
C	 1.4859566751	 1.5476729604	-0.0172627787	-0.032951
C	 2.1160985228	 0.8656987082	 1.2612205658	-0.041946
C	 1.0058385963	 0.4636534585	 2.2444390507	-0.214535
C	 0.300058954	-0.6180234882	 1.3960680541	-0.028765
C	 1.4955640883	-1.5566143478	 1.1070928648	-0.217086
C	 2.3641247491	-0.4758765321	 0.4486638071	-0.031457
C	 1.4561501704	 0.1233360667	-0.6422240725	-0.015975
C	 0.0086494147	 0.005118052	-0.0098893401	-0.033637
H	-0.6010545627	 2.0644254958	 0.8044008129	 0.088328
H	-0.4351604958	 1.9336151114	-0.9574295798	 0.092183
H	 2.0381791228	 2.3900182338	-0.4368089067	 0.05306
H	 2.973916295	 1.3706706011	 1.7055983579	 0.057024
H	 1.4162507447	 0.0247923821	 3.1605901557	 0.085727
H	 0.3659195599	 1.2993344793	 2.5376065187	 0.093053
H	-0.570820345	-1.0768591535	 1.8683541099	 0.051933
H	 1.9198432939	-1.9965895069	 2.0156560818	 0.087315
H	 1.2527401272	-2.3646456714	 0.4076542724	 0.087737
H	 3.3915164481	-0.7271272848	 0.1860763044	 0.053856
H	 1.5757007317	-0.0924481731	-1.7045982524	 0.053161
H	-0.7599178546	-0.5408715285	-0.5599362792	 0.059927
369.7164	401.6277	438.3513	480.5088	581.9647	612.1245	694.8308	744.1617	776.0178	805.8466	823.626	847.8562	889.8411	891.6264	907.543	919.6291	936.5686	955.7456	969.292	982.4728	992.6824	1017.0968	1033.7554	1061.7167	1085.2571	1115.2956	1124.8524	1136.6227	1164.6602	1178.6458	1217.0203	1219.9732	1238.3488	1252.9376	1261.2046	1282.5408	1285.191	1292.3183	1302.1834	1316.7565	1341.2745	1344.0743	1480.5989	1497.1794	1521.432	3036.8111	3039.8092	3045.8875	3079.5304	3083.473	3086.2467	3087.5171	3093.8395	3099.2893	3100.2637	3103.2238	3119.4288
C1C2C3CC4CC3C2C14	C1[C@H]2[C@H]3C[C@@H]4C[C@H]3[C@H]2[C@H]14	
InChI=1S/C9H12/c1-4-2-7-6(1)8-3-5(4)9(7)8/h4-9H,1-3H2	InChI=1S/C9H12/c1-4-2-7-6(1)8-3-5(4)9(7)8/h4-9H,1-3H2/t4-,5-,6+,7-,8+,9-/m1/s1
