13
gdb 128947	7.60288	0.8125	0.73744	2.0992	66.21	-0.2512	-0.0142	0.237	1402.9287	0.089175	-452.730796	-452.723061	-452.722117	-452.764532	26.744	
N	-0.0508111801	-1.0952284353	-0.003293785	-0.279091
C	-0.0076001839	 0.0578773442	 0.0022948132	 0.277539
C	-0.0054125844	 1.5194094303	 0.0107357161	-0.214632
O	 1.3578868498	 1.9547705688	-0.0025878711	-0.262959
C	 1.5553813286	 3.2742171436	 0.0025852779	 0.55686
C	 2.7174086024	 3.9852770773	-0.0070551547	-0.39976
C	 2.2482487791	 5.3223289105	 0.0061575102	 0.063492
N	 0.9408649356	 5.420903151	 0.02195528	-0.156378
O	 0.4890638311	 4.0785047823	 0.0197050945	-0.223197
H	-0.540698499	 1.8973786839	-0.8672373629	 0.180052
H	-0.5201147574	 1.8871587636	 0.9052046104	 0.180075
H	 3.7249615226	 3.6104095368	-0.0210672348	 0.13481
H	 2.8304465056	 6.233715123	 0.0045128462	 0.143189
40.6119	75.4941	119.2121	235.0983	294.0472	380.2046	443.3188	525.3658	631.4193	703.0383	748.8644	775.6061	884.4856	927.225	928.891	967.7969	1005.2565	1019.8991	1048.7058	1073.2532	1227.405	1252.3287	1319.935	1380.6539	1394.9365	1485.4284	1538.3871	1658.978	2380.8551	3046.7363	3088.5308	3241.2423	3299.9324
N#CCOC1=CC=NO1	N#CCOc1ccno1	
InChI=1S/C5H4N2O2/c6-2-4-8-5-1-3-7-9-5/h1,3H,4H2	InChI=1S/C5H4N2O2/c6-2-4-8-5-1-3-7-9-5/h1,3H,4H2
