17
gdb 99498	2.43119	1.0974	0.78328	3.9863	70.26	-0.2699	-0.0497	0.2202	1411.3507	0.133555	-455.147787	-455.137684	-455.13674	-455.183834	34.734	
C	 0.5225723076	 1.4908912848	 0.320432176	-0.33057
N	 0.7494326125	 0.0468988037	 0.2344639986	-0.285699
C	 0.5723041043	-0.6641663635	 1.490411	-0.226534
C	-0.821903734	-0.6890608501	 1.9813421843	 0.295479
N	-1.934192555	-0.642592676	 2.2905602639	-0.316715
C	 1.1683602724	-2.0861913664	 1.4358176726	 0.336314
O	 0.7267532481	-2.9875782208	 2.1062673053	-0.297692
C	 2.3836100674	-2.3030281221	 0.5522786624	-0.118824
O	 2.9077837185	-3.5844192826	 0.7266928344	-0.419478
H	 1.2703115133	 1.9335066721	 0.9868407704	 0.134578
H	 0.6575437164	 1.9270647697	-0.672079389	 0.137392
H	-0.4764229187	 1.7635692053	 0.6916410739	 0.134694
H	 0.1368564023	-0.3536949566	-0.4691977462	 0.241203
H	 1.1761271581	-0.1417869268	 2.2483658456	 0.162868
H	 2.0863150153	-2.1212638375	-0.4925290513	 0.127655
H	 3.1282187132	-1.5249926301	 0.7828013469	 0.126938
H	 2.3060477881	-4.0382676533	 1.3365795421	 0.29839
39.6356	86.3083	114.5648	133.468	172.969	201.6441	265.5902	301.2722	343.5225	366.5746	421.2075	444.6495	487.7492	595.6804	730.8327	769.6128	843.9863	917.4189	1000.038	1011.1953	1103.8342	1135.6137	1153.3163	1162.9831	1190.7452	1236.3607	1285.288	1310.6854	1321.9334	1445.3208	1460.9644	1467.6537	1488.9273	1495.6594	1520.4892	1812.6637	2353.8866	2991.3539	2997.3329	3003.8645	3009.3308	3077.4285	3123.1873	3520.6317	3706.3294
CNC(C#N)C(=O)CO	CN[C@@H](C#N)C(=O)CO	
InChI=1S/C5H8N2O2/c1-7-4(2-6)5(9)3-8/h4,7-8H,3H2,1H3	InChI=1S/C5H8N2O2/c1-7-4(2-6)5(9)3-8/h4,7-8H,3H2,1H3/t4-/m0/s1
