20
gdb 89612	3.66353	1.13407	0.97164	2.5532	80.54	-0.236	-0.0204	0.2156	1275.9627	0.169445	-403.131803	-403.122604	-403.121659	-403.165737	34.441	
C	-0.2451613705	 1.5287960976	 0.0228206297	-0.405926
C	 0.2034275963	 0.1181328201	-0.3125113388	 0.085525
C	 1.6030131743	-0.1396973677	-0.9388320131	-0.346243
C	 1.8684547211	-1.0662544454	 0.242260174	 0.268964
C	 1.6979804024	-0.3283354572	 1.5212778331	-0.283815
N	 0.482145239	-0.8028600674	 0.865083774	-0.179409
C	 2.4270696324	-2.4403776096	 0.1154724551	 0.284928
C	 2.2605263629	-3.3752042329	 1.2979767009	-0.504285
O	 2.9800605662	-2.7770214916	-0.9107285911	-0.307387
H	 0.5084625185	 2.0872115865	 0.5860434778	 0.117348
H	-0.4453227623	 2.084980566	-0.8991436044	 0.125103
H	-1.1667462566	 1.5080161165	 0.6134797002	 0.13003
H	-0.5746523431	-0.3772267523	-0.8989982945	 0.094192
H	 1.5722241666	-0.6660996507	-1.8924004768	 0.132611
H	 2.2757613153	 0.71805903	-1.0280910684	 0.103909
H	 1.9050043783	-0.8525805208	 2.4485896619	 0.126097
H	 1.9417590559	 0.7311256665	 1.542132099	 0.118938
H	 1.2520773503	-3.2971029926	 1.7145959386	 0.156488
H	 2.4659101602	-4.3974370762	 0.9785144427	 0.14213
H	 2.9691380626	-3.1067378887	 2.0901530003	 0.140801
72.7418	116.9466	155.963	165.1883	216.1552	256.2967	297.7666	392.3538	420.7039	466.7066	530.717	590.7006	633.5984	698.7206	765.2851	803.8209	851.9094	883.9241	942.0336	951.8132	970.9515	1038.7039	1075.1504	1090.994	1115.1291	1129.5403	1135.4358	1151.362	1201.2112	1251.6535	1278.8267	1323.9728	1358.6568	1378.9496	1397.7152	1411.4694	1468.035	1477.6035	1485.845	1492.4033	1497.1682	1509.3628	1785.1364	3035.9391	3039.9279	3062.7531	3067.9858	3104.2391	3107.2485	3108.4439	3115.128	3141.2044	3154.8084	3201.5337
CC1CC2(CN12)C(C)=O	C[C@H]1C[C@]2(CN12)C(=O)C	
InChI=1S/C7H11NO/c1-5-3-7(6(2)9)4-8(5)7/h5H,3-4H2,1-2H3	InChI=1S/C7H11NO/c1-5-3-7(6(2)9)4-8(5)7/h5H,3-4H2,1-2H3/t5-,7-,8?/m0/s1
