19
gdb 119754	4.75178	0.8079	0.70022	5.7974	85.06	-0.2061	0.0046	0.2107	1608.529	0.159993	-419.237437	-419.228332	-419.227388	-419.271835	33.361	
C	 0.0732975036	 1.5621422032	-0.0266406328	-0.407761
C	-0.0592687796	 0.0437278553	-0.0554125961	-0.110958
N	 0.7150818636	-0.5255594377	-1.1483494635	-0.387437
C	 0.7888848971	-1.8709755546	-1.3360970917	 0.379618
C	 0.3980846301	-2.8953340184	-0.5494002382	-0.334376
C	 0.7611321786	-4.147401947	-1.1940219878	 0.429632
N	 0.5680131384	-5.328465626	-0.7768022792	-0.569304
O	 1.37896845	-3.8516608757	-2.4046942534	-0.254217
C	 1.4458382649	-2.4438689512	-2.5699618238	-0.175319
H	 1.1186123965	 1.8624259619	 0.0920330754	 0.133136
H	-0.3103811419	 2.0108668823	-0.9501821475	 0.120923
H	-0.5009563919	 1.9778861379	 0.8051002275	 0.132869
H	 0.3166808001	-0.3840672602	 0.8815369312	 0.126786
H	-1.1186006421	-0.2470109927	-0.1327324461	 0.110557
H	 0.8016673837	 0.0515772608	-1.9712696829	 0.239901
H	-0.1045953864	-2.8594184209	 0.4031934927	 0.109952
H	 0.9271311337	-6.004623271	-1.4514532781	 0.2138
H	 0.9228660743	-2.1538289886	-3.4929046414	 0.116695
H	 2.4940675473	-2.1275814474	-2.6610273846	 0.125503
56.2119	115.8599	123.6512	175.0981	214.6338	263.9379	323.9875	360.8956	410.4294	492.2378	529.9136	669.9934	690.04	725.7563	808.0575	823.3314	850.2964	888.165	917.0578	952.4046	1034.7884	1047.5907	1069.7687	1099.4625	1157.7718	1167.9132	1201.1014	1252.4574	1279.0045	1294.442	1323.4475	1386.4021	1398.5929	1418.6616	1492.8831	1500.0371	1506.9627	1527.2686	1535.5636	1693.3051	1759.9903	2984.187	2997.9592	3029.8195	3036.2671	3049.4631	3105.4144	3126.2081	3268.4017	3484.6742	3607.0647
CCNC1=CC(=N)OC1	CCN[C]1C=C([NH])OC1	
InChI=1S/C6H10N2O/c1-2-8-5-3-6(7)9-4-5/h3,7-8H,2,4H2,1H3	InChI=1S/C6H10N2O/c1-2-8-5-3-6(7)9-4-5/h3,7-8H,2,4H2,1H3
