19
gdb 60284	3.27967	0.88766	0.83112	2.0538	77.14	-0.2391	-0.0634	0.1757	1448.3304	0.15772	-456.361454	-456.351472	-456.350527	-456.396609	36.42	
C	-0.3205435583	 0.7284628635	 1.1830782531	-0.406485
C	-0.7322918288	 0.5646262419	-0.2770344949	 0.133816
O	 0.2738973679	-0.1325220037	-1.0249818465	-0.434701
C	-2.1065843289	-0.1145470827	-0.4486098655	-0.185035
N	-2.1723326246	-1.4483328694	 0.1247589266	-0.272834
C	-1.8248386419	-2.4469561838	-0.6043665267	 0.238399
N	-1.3617852331	-2.4735697711	-1.89195376	-0.550896
C	-2.005085307	-3.7990784624	 0.0230877358	 0.140209
O	-1.7012519919	-4.8287814526	-0.5299607672	-0.267224
H	 0.6636391498	 1.2006214028	 1.2503620211	 0.122661
H	-1.0408137023	 1.3505553137	 1.7226408862	 0.125548
H	-0.2870251464	-0.2450570171	 1.6837168681	 0.129321
H	-0.8009545617	 1.5517612349	-0.7499664412	 0.091868
H	 0.6303989416	-0.8218277995	-0.4540971103	 0.287503
H	-2.8539209234	 0.5080316207	 0.0580922822	 0.104263
H	-2.3507455739	-0.1185824491	-1.5220751787	 0.101467
H	-0.8071764138	-1.6860423446	-2.1958369666	 0.270621
H	-1.0690373054	-3.3882549248	-2.2065268472	 0.264892
H	-2.4430358279	-3.7546091567	 1.0376768618	 0.106608
61.9836	77.2596	128.6836	189.3545	218.7669	244.4265	288.2822	315.5241	334.3164	390.4594	434.22	463.535	558.1307	584.8282	619.0755	678.2085	710.194	803.3569	903.7289	936.3589	962.9097	985.2349	1031.6341	1061.8357	1101.3521	1145.6885	1171.1278	1276.2162	1296.9112	1331.22	1366.8508	1378.4248	1388.5941	1405.7006	1422.4925	1487.4372	1496.8356	1503.6301	1619.9681	1712.5146	1806.5778	2973.7489	2984.2301	3038.0801	3039.8411	3050.4527	3111.6133	3119.2197	3547.634	3663.7597	3808.8673
CC(O)CN=C(N)C=O	C[C@@H](O)CN=C(N)C=O	
InChI=1S/C5H10N2O2/c1-4(9)2-7-5(6)3-8/h3-4,9H,2H2,1H3,(H2,6,7)	InChI=1S/C5H10N2O2/c1-4(9)2-7-5(6)3-8/h3-4,9H,2H2,1H3,(H2,6,7)/t4-/m1/s1
