23
gdb 74691	2.78351	1.44653	1.13811	0.2616	91.39	-0.2209	0.0283	0.2491	1196.2236	0.206893	-351.171383	-351.162882	-351.161938	-351.20364	34.904	
C	 0.003915645	 1.501846532	 0.067449699	-0.479642
C	-0.0069734149	 0.0042108901	-0.0270843148	 0.311989
C	-0.0088950273	-0.6822341068	-1.1732042144	-0.157692
C	-0.0199846691	-2.1929461983	-1.1140552708	-0.060329
C	-1.0940471546	-2.637722578	-0.075418695	-0.24506
C	-0.0265471634	-2.3123228934	 1.0162392311	 0.321387
C	-0.035729324	-3.1078615357	 2.3094217205	-0.476117
C	 1.0419578072	-2.6531704383	-0.0697028388	-0.245059
C	-0.0162216763	-0.7892721438	 1.2667174788	-0.322817
H	 0.8848105548	 1.861131839	 0.6159503163	 0.118788
H	 0.0082074967	 1.9672213492	-0.9222284419	 0.118363
H	-0.8724885233	 1.8740548907	 0.6144895662	 0.118741
H	-0.0027234517	-0.1800261757	-2.1367935013	 0.074266
H	-0.0207283115	-2.6601375372	-2.0998348002	 0.053651
H	-2.0400319331	-2.0892960329	-0.0589332207	 0.087613
H	-1.2894588166	-3.713734541	-0.1222836196	 0.086866
H	-0.0431583504	-4.1848350546	 2.1103380419	 0.107124
H	 0.8485805656	-2.8853288914	 2.9190328099	 0.110398
H	-0.9197582304	-2.8722944179	 2.9145253285	 0.110395
H	 1.222031827	-3.7318980565	-0.1155624012	 0.086867
H	 1.9956762704	-2.1184856919	-0.0481309212	 0.08761
H	 0.8599259516	-0.5194591417	 1.8765670676	 0.096323
H	-0.8917286518	-0.5068027861	 1.8717348601	 0.096333
151.1969	186.9829	218.7803	249.34	270.2872	348.9629	373.2758	414.9555	423.6596	466.7705	494.7454	577.6591	656.6616	816.4853	830.0076	841.0463	855.3036	889.0421	893.657	938.5168	939.1032	999.9065	1004.6473	1018.7553	1051.0988	1052.1165	1087.9629	1105.7474	1125.6679	1158.6193	1186.9021	1229.5639	1240.9258	1255.5377	1271.0856	1288.2399	1329.8806	1352.3393	1377.019	1411.8051	1413.9044	1467.7129	1476.3903	1478.1702	1489.5339	1493.4018	1493.8276	1507.9585	1724.5069	2982.4486	3006.2533	3010.2985	3016.5141	3038.6003	3046.1288	3053.6433	3078.4372	3090.3654	3093.5167	3099.4155	3103.3251	3105.6426	3161.0957
CC1=CC2CC(C)(C2)C1	CC1=C[C@@H]2C[C@@](C)(C2)C1	
InChI=1S/C9H14/c1-7-3-8-5-9(2,4-7)6-8/h3,8H,4-6H2,1-2H3	InChI=1S/C9H14/c1-7-3-8-5-9(2,4-7)6-8/h3,8H,4-6H2,1-2H3/t8-,9+
