15
gdb 8563	4.31751	2.11122	1.81629	4.7043	62.08	-0.2427	0.0492	0.2919	751.0075	0.121213	-399.796637	-399.79068	-399.789736	-399.826708	23.934	
N	-0.0709976876	 1.2216069028	 0.4348272214	-0.559215
C	-0.0079346336	 0.0463642347	-0.0148664181	 0.468599
O	 1.1650769975	-0.6040377833	-0.2839107809	-0.280146
C	 1.0614143981	-1.9437771576	-0.7934331493	 0.114511
C	 0.0131475607	-1.96165102	-1.9322741663	-0.263311
C	-1.0081108197	-1.9726882384	-0.7678136807	 0.12276
C	 0.0487121115	-2.728076613	 0.0757332443	-0.263312
O	-1.1515222251	-0.6412971098	-0.2571025257	-0.250561
H	 0.8691635668	 1.5906731573	 0.5590394146	 0.226756
H	 2.0822437486	-2.2916206986	-0.9442800954	 0.09609
H	-0.0074429337	-1.1152131526	-2.6208155576	 0.126523
H	 0.0191946114	-2.9065189567	-2.4788068917	 0.117681
H	-2.0190265948	-2.3557608331	-0.8961220978	 0.099421
H	 0.0605017609	-3.7966984166	-0.1465693327	 0.117681
H	 0.0594021991	-2.555737815	 1.1533025159	 0.126523
99.6024	322.9767	430.0892	436.4228	477.891	506.9343	644.9582	715.6908	806.1878	807.5524	812.3238	861.1245	875.4378	929.5237	954.7059	985.0969	996.3538	1055.575	1068.0467	1111.0598	1139.0517	1172.635	1195.6673	1234.7201	1256.9228	1266.2047	1285.9989	1373.2544	1411.6299	1461.8828	1493.5286	1773.2436	3076.8084	3081.8359	3129.6245	3134.3348	3144.0529	3146.7038	3530.689
N=C1OC2CC(C2)O1	[NH][C]1O[C@@H]2C[C@@H](C2)O1	
InChI=1S/C5H7NO2/c6-5-7-3-1-4(2-3)8-5/h3-4,6H,1-2H2	InChI=1S/C5H7NO2/c6-5-7-3-1-4(2-3)8-5/h3-4,6H,1-2H2/t3-,4+
