20
gdb 31639	3.42053	1.01628	0.8344	1.142	83.9	-0.1763	0.0616	0.2379	1435.3739	0.170153	-403.187819	-403.177786	-403.176842	-403.223379	36.025	
C	 0.0901621595	 1.5379254151	-0.1950881527	-0.359769
C	-0.0170380523	 0.0360718308	 0.119696702	-0.292448
C	-1.4252884437	-0.4831939308	 0.090010137	 0.303837
C	-2.1497542217	-0.9379443348	 1.1624765034	-0.222509
N	-3.4058145279	-1.329208773	 0.7213263535	-0.043677
C	-4.493064698	-1.8095298806	 1.5461630617	-0.336561
C	-3.4690446849	-1.105277441	-0.6242535344	 0.385148
O	-4.6323282388	-1.4157583465	-1.2585229152	-0.443926
C	-2.2738902409	-0.5877366818	-1.0622520001	-0.426199
H	 1.1324902085	 1.8733950468	-0.1713186569	 0.102678
H	-0.3130937233	 1.7623194562	-1.1878313242	 0.113886
H	-0.4768122253	 2.1284256483	 0.5315191506	 0.114951
H	 0.6021755657	-0.5207645219	-0.5965700172	 0.096949
H	 0.4148075662	-0.1578989469	 1.1086436005	 0.093193
H	-1.8866232907	-1.0300057939	 2.2043134879	 0.106197
H	-5.1097391928	-0.9883156519	 1.9312085196	 0.133327
H	-5.1302240075	-2.4741320245	 0.9603409076	 0.152029
H	-4.0849954114	-2.3672547921	 2.3924079914	 0.134743
H	-4.5037845286	-1.2746506193	-2.2008644238	 0.306503
H	-2.0264189021	-0.3277733283	-2.0807553406	 0.081647
49.1022	68.321	116.9188	158.4318	194.8143	224.0391	269.2783	280.1647	313.7377	394.8946	496.1775	574.112	620.5739	657.4013	672.6961	683.342	729.7578	787.9706	816.8558	949.1616	1008.613	1062.6409	1073.5557	1087.7253	1137.293	1150.3258	1176.6191	1217.3066	1271.7541	1308.4566	1344.6143	1381.1678	1390.7294	1407.0414	1454.3113	1482.4848	1489.6431	1494.8735	1506.0859	1511.3174	1555.8575	1581.2027	1621.3936	3011.4156	3027.5368	3031.4648	3052.7237	3100.1988	3100.4254	3107.1368	3142.8845	3233.5403	3255.5647	3852.9335
CCC1=CN(C)C(O)=C1	CCc1cn(C)c(O)c1	
InChI=1S/C7H11NO/c1-3-6-4-7(9)8(2)5-6/h4-5,9H,3H2,1-2H3	InChI=1S/C7H11NO/c1-3-6-4-7(9)8(2)5-6/h4-5,9H,3H2,1-2H3
