20
gdb 110113	2.24048	1.18136	0.93842	3.7786	79.56	-0.2735	0.0227	0.2961	1340.523	0.170169	-403.152147	-403.142125	-403.14118	-403.187761	35.875	
C	 0.3719813814	 1.5255570134	-0.1603829426	-0.381212
C	-0.1638953104	 0.109991865	 0.0846627313	-0.210866
C	 0.5240822088	-0.5681405813	 1.2538343845	-0.024112
C	 0.5377048611	-2.0518882823	 1.4881933941	-0.071463
C	-0.112856198	-3.056308042	 0.5573688232	-0.088703
O	 0.5470399716	-4.3098355923	 0.5861574801	-0.420682
C	 1.832219197	-1.3427523006	 1.0797685619	-0.196993
C	 2.3622608537	-1.5834709679	-0.2312982041	 0.282214
N	 2.7795488175	-1.8082626015	-1.2882981736	-0.355156
H	 1.4366400708	 1.5048949631	-0.4134115842	 0.132363
H	-0.159408084	 2.0059001449	-0.9868901536	 0.120828
H	 0.2493819203	 2.155289402	 0.727644	 0.11542
H	-1.2410492341	 0.1519642246	 0.2890860809	 0.106836
H	-0.0436365862	-0.4828478557	-0.8267881642	 0.123838
H	 0.5154787513	 0.0323077589	 2.1609617452	 0.101985
H	 0.5332952052	-2.3730961752	 2.5260194798	 0.109386
H	-1.137095425	-3.2453594635	 0.8960646044	 0.117363
H	-0.1757565026	-2.6631750677	-0.4648385593	 0.109092
H	 1.3816325587	-4.2096018192	 0.1150381994	 0.295748
H	 2.5944726029	-1.2192432227	 1.841272397	 0.134114
60.7095	65.0533	116.1668	137.6926	176.1124	227.685	251.8435	301.6292	364.8371	386.4221	411.6974	565.6995	611.0156	622.9426	743.6932	793.7995	811.9835	842.6133	930.1384	972.0672	1000.8213	1019.137	1048.9728	1072.7079	1109.2041	1122.7894	1143.0612	1172.7899	1231.664	1255.9575	1297.6419	1337.0023	1353.522	1380.8121	1404.2211	1413.9332	1422.6325	1448.9507	1483.1303	1499.4038	1499.8747	1505.6996	2339.9718	3026.5459	3033.7886	3036.0675	3074.7149	3082.6271	3106.9165	3114.2139	3131.4345	3152.6823	3172.3205	3806.6316
CCC1C(CO)C1C#N	CC[C@H]1[C@@H](CO)[C@H]1C#N	
InChI=1S/C7H11NO/c1-2-5-6(3-8)7(5)4-9/h5-7,9H,2,4H2,1H3	InChI=1S/C7H11NO/c1-2-5-6(3-8)7(5)4-9/h5-7,9H,2,4H2,1H3/t5-,6+,7-/m1/s1
