14
gdb 127507	2.5202	1.43858	0.92115	4.8153	69.43	-0.2495	-0.0541	0.1954	1185.1297	0.101107	-470.018801	-470.010555	-470.009611	-470.052298	28.763	
C	-0.0262686683	 1.3787242524	-0.073774652	-0.311495
N	 0.0192884843	-0.0688888852	-0.0267202069	 0.158494
N	 0.1186997543	-0.8012300338	-1.149805572	-0.344063
C	 0.1294933445	-2.0448922467	-0.6862720636	 0.335094
O	 0.2181493722	-3.1232725511	-1.4746662763	-0.412873
C	 0.0349584059	-2.0297856605	 0.7239529194	 0.133887
C	 0.0110087993	-3.161277719	 1.6518417801	 0.08302
O	-0.0721185645	-3.0762778525	 2.8548733239	-0.27064
N	-0.0333093866	-0.7361652959	 1.0978001455	-0.265973
H	 0.8844413252	 1.7630918969	-0.5391475507	 0.159069
H	-0.8918120451	 1.7034693408	-0.6560975664	 0.15906
H	-0.1057553699	 1.7332354647	 0.9523400228	 0.174729
H	 0.2691844173	-2.8214429693	-2.3907177989	 0.315507
H	 0.0781139913	-4.1455826709	 1.1410011252	 0.086184
67.8075	134.1501	160.2392	174.7479	244.7009	293.4726	378.8972	411.066	424.6737	576.3597	656.1728	673.3295	711.547	755.9844	908.2454	1023.2687	1036.2572	1083.9417	1149.8754	1205.8186	1256.9734	1335.0756	1372.7987	1438.2834	1447.4146	1451.8235	1474.946	1507.5774	1557.5091	1594.2452	1799.6337	2905.1228	3061.3217	3130.4107	3183.393	3793.6481
CN1N=C(O)C(C=O)=N1	Cn1nc(O)c(C=O)n1	
InChI=1S/C4H5N3O2/c1-7-5-3(2-8)4(9)6-7/h2H,1H3,(H,6,9)	InChI=1S/C4H5N3O2/c1-7-5-3(2-8)4(9)6-7/h2H,1H3,(H,6,9)
