20
gdb 50708	2.94113	1.34438	1.01848	3.9847	80.67	-0.224	0.0312	0.2552	1192.0503	0.17371	-403.173462	-403.165476	-403.164532	-403.206391	31.038	
O	-0.0957994832	-0.0214662619	 0.0550921264	-0.350417
C	-0.0041241415	 1.1896649037	 0.0574240109	 0.145033
N	 1.1612980529	 1.8948449163	 0.0162921166	-0.047608
C	 2.4376500841	 1.1820925791	-0.0224231609	-0.170549
C	 3.4580780069	 1.8515059631	 0.8963335226	-0.201602
C	 3.7266655186	 3.3015415304	 0.4648472404	-0.228846
C	 2.4301318123	 4.0867202957	 0.2581979283	-0.051714
C	 1.7722134902	 4.1278942553	-1.1083194678	-0.314657
C	 1.1466940717	 3.3317804847	 0.0107242582	 0.039622
H	-0.8865202217	 1.8576133778	 0.1077257089	 0.069318
H	 2.223454148	 0.1550248398	 0.2762367522	 0.147881
H	 2.8223405811	 1.1478146326	-1.0527519928	 0.105323
H	 3.0759214771	 1.8307523818	 1.9238719893	 0.109121
H	 4.3879737641	 1.2736897593	 0.8842365394	 0.103171
H	 4.3417403039	 3.8040195125	 1.2173244526	 0.105212
H	 4.3157611746	 3.301035082	-0.4603973984	 0.105117
H	 2.3310922558	 4.9838820942	 0.8604251972	 0.094391
H	 1.2764377638	 5.0378715969	-1.4282255745	 0.116018
H	 2.2606355996	 3.5785474035	-1.906870751	 0.118359
H	 0.2381650219	 3.7283889135	 0.4515861625	 0.106827
50.2192	139.1645	232.083	279.1328	309.6313	355.0269	398.35	440.4443	477.1837	594.3432	679.4576	758.4479	794.8815	827.0462	857.8647	900.6929	924.3759	968.7158	986.5694	1025.7703	1042.6981	1054.6219	1068.5161	1107.5019	1129.5858	1143.2787	1196.5139	1218.4693	1229.8709	1273.5763	1313.5105	1340.8202	1364.5069	1370.8603	1385.7708	1395.8614	1441.064	1454.0948	1480.5429	1489.6523	1500.8486	1512.7002	1788.4545	2936.0664	2994.2549	3029.199	3037.1876	3076.6787	3087.0248	3125.1423	3128.7469	3153.1537	3163.086	3216.8132
O=CN1CCCC2CC12	O=CN1CCC[C@H]2C[C@@H]12	
InChI=1S/C7H11NO/c9-5-8-3-1-2-6-4-7(6)8/h5-7H,1-4H2	InChI=1S/C7H11NO/c9-5-8-3-1-2-6-4-7(6)8/h5-7H,1-4H2/t6-,7+/m0/s1
