19
gdb 124459	3.16304	1.29076	1.15123	6.0346	75.8	-0.2767	-0.0085	0.2682	1141.4979	0.158918	-415.384551	-415.37573	-415.374786	-415.418069	33.077	
C	-0.237806086	 1.5216630335	-0.1166183831	-0.395993
C	 0.004226038	 0.0114951579	 0.0390755316	 0.234397
C	 0.8515806887	-0.2729857102	 1.2844194049	-0.426617
C	-1.3283872636	-0.7521044505	 0.1060373235	-0.396004
N	 0.742966817	-0.4601327167	-1.1590910454	 0.028022
C	 1.9434772005	-1.050038685	-1.3084359171	 0.061316
N	 2.1605926901	-1.2798241796	-2.5865914113	-0.237667
N	 1.0596575802	-0.8147904217	-3.2291510489	-0.092679
N	 0.2068663357	-0.3237257857	-2.3913265115	-0.136041
H	 0.7102935853	 2.0647964258	-0.169382383	 0.126086
H	-0.8048410864	 1.7271350901	-1.0264763264	 0.153836
H	-0.8023808621	 1.894946618	 0.7424057771	 0.122681
H	 0.3084682285	 0.0738741734	 2.1671040481	 0.133587
H	 1.0418421155	-1.3431562566	 1.409473339	 0.130853
H	 1.8087853364	 0.2560464332	 1.2529659832	 0.130844
H	-1.9129101869	-0.5831033299	-0.8002500799	 0.15384
H	-1.1564729794	-1.8272512905	 0.2117471895	 0.126093
H	-1.9071757808	-0.4084593313	 0.9679651592	 0.122686
H	 2.6131408395	-1.2920094042	-0.5020691297	 0.160763
50.8136	140.7778	222.5473	222.6792	272.3507	300.8783	334.3438	339.8451	344.912	455.2554	476.5031	590.9165	695.2672	743.6122	823.6754	868.0802	929.9735	937.9363	969.1783	996.0692	1040.7505	1050.3303	1056.5459	1120.5011	1143.9317	1203.4613	1238.9645	1253.6377	1274.1895	1324.4675	1400.1972	1400.2095	1424.7829	1436.211	1472.4626	1488.2535	1488.6185	1494.8257	1500.0306	1503.0142	1522.6589	3040.9024	3046.0139	3051.3503	3113.4201	3118.9549	3118.9919	3126.0419	3139.2806	3143.5779	3304.5891
CC(C)(C)N1C=NN=N1	CC(C)(C)n1cnnn1	
InChI=1S/C5H10N4/c1-5(2,3)9-4-6-7-8-9/h4H,1-3H3	InChI=1S/C5H10N4/c1-5(2,3)9-4-6-7-8-9/h4H,1-3H3
