14
gdb 23737	3.32962	2.2086	1.33876	2.3412	66.28	-0.2538	-0.0257	0.2281	855.2033	0.108144	-386.752809	-386.746076	-386.745132	-386.783901	24.968	
C	-0.02815501	 1.5293044015	 0.0286513421	-0.498276
C	-0.0061017223	 0.0269046614	-0.015077642	 0.167489
C	-0.0354813796	-0.7141902891	-1.1958433558	-0.185608
C	-0.0117432939	-2.1057024263	-1.1443479815	 0.004922
N	 0.0387547868	-2.8033904952	-0.0074609047	-0.267868
C	 0.0673881953	-2.1084975609	 1.1314245509	-0.08888
C	 0.0464728138	-0.7222703776	 1.1575241121	 0.186711
F	 0.0773642613	-0.0853297746	 2.3352502131	-0.076093
H	 0.8631765182	 1.9210934667	 0.5296491898	 0.147006
H	-0.0717786301	 1.9496363646	-0.9782881337	 0.129596
H	-0.892065188	 1.893475827	 0.59429881	 0.146994
H	-0.0768409599	-0.2048023768	-2.1534062257	 0.102562
H	-0.034558297	-2.6859151783	-2.0631528637	 0.110399
H	 0.1085724355	-2.6610986024	 2.0665103291	 0.121045
95.1894	181.3404	268.7237	274.8856	426.9662	454.123	535.1293	581.1362	602.7583	754.5304	774.5115	856.8898	858.7837	945.9988	983.6163	1003.2541	1063.2407	1089.2146	1193.7787	1228.5655	1288.7402	1300.7616	1317.1868	1413.9263	1447.7287	1480.5469	1487.4662	1528.1219	1612.9148	1640.9062	3041.6158	3097.2383	3129.7976	3159.3101	3166.2784	3184.6498
CC1=CC=NC=C1F	Cc1ccncc1F	
InChI=1S/C6H6FN/c1-5-2-3-8-4-6(5)7/h2-4H,1H3	InChI=1S/C6H6FN/c1-5-2-3-8-4-6(5)7/h2-4H,1H3
