18
gdb 77531	3.09967	1.28346	1.07205	3.6835	78.56	-0.2774	0.0239	0.3013	1154.7891	0.147371	-401.923376	-401.914849	-401.913905	-401.956145	32.754	
C	-0.0453970086	 1.4547124182	 0.0392618456	-0.516508
C	 0.0041353022	-0.0468130242	 0.0183351351	 0.27997
C	 0.6128214066	-0.9733577968	-1.0826104618	-0.299789
C	 0.0601392612	-1.9452335393	-0.0009293047	 0.178104
C	 0.6765024293	-0.99424203	 1.0701544836	-0.294945
C	 0.0735720891	-3.3832493041	-0.0172219879	 0.137947
N	 0.0523784868	-4.5402198036	-0.0245237867	-0.35316
C	-1.2110479197	-1.0146139027	 0.0242690882	 0.091858
O	-2.0084195031	-0.9641764157	 1.167115986	-0.435135
H	 0.9624131719	 1.8821399036	 0.0595838178	 0.125033
H	-0.5591737168	 1.8436133252	-0.8464856729	 0.123502
H	-0.5828217675	 1.8093627884	 0.9244552123	 0.137865
H	 0.1150218096	-0.9886116948	-2.0561278879	 0.105894
H	 1.6992363991	-0.9535552152	-1.1832520639	 0.113836
H	 1.7678291333	-0.9753787489	 1.1114819386	 0.103196
H	 0.2228769041	-1.0290068933	 2.059169362	 0.126811
H	-1.8077272411	-1.0407727529	-0.8972717239	 0.077679
H	-2.6496923365	-1.6812487739	 1.1308014705	 0.297842
120.8423	141.0017	188.5853	208.1279	293.0919	299.5717	346.5023	384.8076	512.1632	520.9113	543.6765	562.6275	636.0206	661.3034	762.2169	821.5856	904.5603	942.9569	976.2976	1008.5824	1041.314	1061.5859	1110.8797	1123.8881	1151.123	1157.7356	1168.759	1194.5947	1210.739	1250.7394	1303.5175	1355.6284	1413.0224	1442.5094	1487.188	1489.9637	1491.2634	1538.5907	2344.419	3019.1891	3033.0202	3061.6915	3077.4869	3100.1208	3107.1171	3134.6867	3162.4547	3819.8133
CC12CC(C1)(C#N)C2O	C[C@@]12C[C@](C1)(C#N)[C@H]2O	
InChI=1S/C7H9NO/c1-6-2-7(3-6,4-8)5(6)9/h5,9H,2-3H2,1H3	InChI=1S/C7H9NO/c1-6-2-7(3-6,4-8)5(6)9/h5,9H,2-3H2,1H3/t5-,6-,7+/m0/s1
