18
gdb 55372	3.26022	1.31766	1.14922	5.8577	70.9	-0.2489	0.0247	0.2736	1094.0634	0.15072	-439.11619	-439.108713	-439.107769	-439.148354	29.199	
O	 0.3587131864	 0.4726275499	-0.8605934776	-0.334983
C	-0.0795894295	 1.1339115782	 0.041638071	 0.40454
O	 0.584322337	 1.271056069	 1.2069333037	-0.381063
C	-1.4276501166	 1.857065119	-0.0072924288	-0.126036
C	-2.4694854762	 1.1976440296	 0.9569484184	-0.24399
C	-3.3396757843	 2.3479973007	 1.5172925941	-0.220379
C	-2.4635103146	 3.5781523122	 1.4037454744	-0.031261
N	-1.0823493806	 3.3929256733	 1.914927198	-0.357591
H	-0.6736465971	 4.2958993294	 2.1377181006	 0.246012
H	 0.0942871245	 1.9006866694	 1.7790356172	 0.31353
C	-1.3587733279	 3.308162798	 0.4562860288	-0.054011
H	-1.772840885	 1.8188362252	-1.0424828478	 0.103832
H	-3.0608603235	 0.4393279187	 0.4405633882	 0.120478
H	-1.9474371283	 0.6943600169	 1.7730608883	 0.128249
H	-4.2341376721	 2.5046383961	 0.9035647803	 0.11095
H	-3.6721229249	 2.1528644019	 2.5410958009	 0.114749
H	-2.8985919553	 4.5678267516	 1.4960545501	 0.099847
H	-0.9445953721	 4.0682495707	-0.1968125099	 0.107128
97.9018	129.9613	209.0677	268.624	347.6751	410.7065	416.5435	645.52	665.3387	683.0108	743.2482	787.0787	820.8518	837.1303	869.6345	883.017	923.9351	937.6505	960.8511	993.8641	1015.497	1060.9905	1079.7386	1130.1912	1170.4412	1194.0766	1232.8643	1248.6086	1262.7989	1288.3611	1312.4824	1333.9468	1342.4697	1378.1546	1419.3571	1433.6853	1484.3975	1503.1849	1863.3639	3044.906	3080.213	3091.5057	3094.7591	3127.5574	3167.4907	3181.3641	3463.2233	3521.2096
[O-]C(=O)C1CCC2[NH2+]C12	O=C(O)[C@H]1CC[C@H]2N[C@@H]12	
InChI=1S/C6H9NO2/c8-6(9)3-1-2-4-5(3)7-4/h3-5,7H,1-2H2,(H,8,9)	InChI=1S/C6H9NO2/c8-6(9)3-1-2-4-5(3)7-4/h3-5,7H,1-2H2,(H,8,9)/t3-,4+,5-/m0/s1
