21
gdb 109262	2.98748	1.25726	1.02077	1.8344	84.41	-0.2335	0.0237	0.2572	1251.9705	0.183752	-387.092498	-387.084047	-387.083103	-387.125962	32.199	
C	 0.1483379134	 1.3995054866	 0.2265880689	-0.374059
C	-0.0644522563	-0.0851871644	-0.1189570172	-0.29332
C	-1.5073524183	-0.5024260516	-0.1134218812	 0.337909
C	-2.2264601441	-0.9116627081	-1.1641037107	-0.175433
C	-3.6583455209	-1.254571722	-0.8276343642	-0.274345
C	-3.6876364853	-1.1358790527	 0.7027963515	 0.125129
O	-3.3842147345	-2.3829665729	 1.3739292457	-0.292794
C	-2.2072278796	-1.8256045146	 1.9923658353	-0.075452
C	-2.3324890956	-0.5306843848	 1.1530839709	-0.180285
H	 1.2122185141	 1.6544169018	 0.2023602176	 0.114561
H	-0.3725938165	 2.0444472378	-0.4879108348	 0.120806
H	-0.2264479158	 1.6388169704	 1.2268855856	 0.118326
H	 0.3675808218	-0.2948660656	-1.1037271809	 0.103383
H	 0.4962155027	-0.6978366844	 0.6013448821	 0.102604
H	-1.8334439179	-0.9938441299	-2.1729786719	 0.084859
H	-4.3700966179	-0.5712929026	-1.3109847094	 0.099851
H	-3.939321635	-2.2715725171	-1.1272237736	 0.119245
H	-4.6074280308	-0.6909885381	 1.0981580454	 0.0686
H	-2.3433171481	-1.6844422383	 3.0732907338	 0.092822
H	-1.3170185538	-2.4425060677	 1.8190542772	 0.100297
H	-2.3291170716	 0.404946918	 1.7174134197	 0.077297
63.2124	110.4923	172.7255	197.0311	250.5489	279.4214	376.0366	399.8672	562.5252	604.6826	717.2119	777.9205	801.2515	813.2021	846.1436	886.5458	905.3196	949.2648	964.3297	992.1479	1011.9077	1040.4698	1054.2726	1066.2257	1067.7815	1100.7286	1164.1147	1173.5965	1182.5478	1223.9775	1256.1813	1271.7566	1294.9473	1314.696	1337.0441	1356.4419	1359.6086	1378.0162	1408.0834	1468.9202	1480.5894	1498.3361	1507.0819	1521.2918	1707.4379	3001.0547	3007.4021	3010.7954	3036.9465	3043.5658	3050.9666	3056.4419	3060.7597	3079.2783	3107.1612	3110.3146	3177.3518
CCC1=CCC2OCC12	CCC1=CC[C@H]2OC[C@@H]12	
InChI=1S/C8H12O/c1-2-6-3-4-8-7(6)5-9-8/h3,7-8H,2,4-5H2,1H3	InChI=1S/C8H12O/c1-2-6-3-4-8-7(6)5-9-8/h3,7-8H,2,4-5H2,1H3/t7-,8+/m0/s1
