13
gdb 133516	3.37631	1.03195	0.91776	4.7103	54.82	-0.264	-0.0317	0.2323	1208.9061	0.086323	-580.436024	-580.42761	-580.426666	-580.470402	29.596	
F	-0.3397804576	-0.0284719478	-0.2941992569	-0.035786
C	 0.0054095673	 1.1966687797	 0.0550834234	 0.267448
F	 1.3357433127	 1.2376975032	 0.2121504644	-0.068352
F	-0.2894572102	 2.0297804968	-0.9721015685	-0.098846
C	-0.7018618895	 1.6518459979	 1.3364644794	 0.217006
N	-1.0475995819	 0.777922683	 2.1801004553	-0.487251
N	-0.8141685658	 3.0421099367	 1.3984235875	-0.334358
C	-1.3247445598	 3.7763379522	 2.4477502826	 0.103064
N	-1.749588897	 3.2464920255	 3.5244797938	-0.446598
H	-1.4623896231	 1.2249078047	 3.0011429851	 0.265349
H	-0.5576536698	 3.548971147	 0.5664967032	 0.268971
H	-1.3120421333	 4.8502559222	 2.2314771657	 0.111291
H	-2.0766324218	 3.9587853588	 4.1721893048	 0.238061
31.8753	87.0459	190.6359	215.3054	270.762	286.5104	345.3855	423.2342	512.3267	540.4951	576.4707	585.4574	728.5696	757.6462	815.3448	887.0543	977.8141	1002.9817	1051.5362	1135.1009	1177.0303	1227.8807	1258.7583	1279.41	1385.2402	1422.4901	1555.4734	1713.1216	1766.0956	3062.1219	3452.6207	3523.9252	3645.623
FC(F)(F)C(=N)NC=N	FC(F)(F)C(=N)NC=N	
InChI=1S/C3H4F3N3/c4-3(5,6)2(8)9-1-7/h1H,(H3,7,8,9)	InChI=1S/C3H4F3N3/c4-3(5,6)2(8)9-1-7/h1H,(H3,7,8,9)
