18
gdb 125225	5.18676	1.00079	0.88165	2.4847	80.76	-0.2044	0.0303	0.2347	1335.1945	0.149004	-398.126029	-398.117489	-398.116544	-398.160206	31.161	
C	 0.0819259979	 1.5046804323	 0.0379205798	-0.503949
C	 0.0060284406	 0.0151434746	-0.046636406	 0.404902
C	 0.1057230572	-0.8480748649	-1.1181440296	-0.402758
C	-0.0526481266	-2.1427080298	-0.5629800029	 0.389047
N	-0.2357463599	-2.0970816957	 0.7527775634	-0.301658
N	-0.1988171951	-0.7718789346	 1.0405520581	-0.258535
N	-0.0924445885	-3.3475976214	-1.2790227992	-0.147222
C	 1.1753692478	-3.9739077579	-1.6688048893	-0.231249
C	 0.3250726642	-4.5659042572	-0.5987234273	-0.214903
H	 0.9219962281	 1.836002537	 0.6594334047	 0.135212
H	 0.2173663288	 1.9292322623	-0.958717299	 0.143579
H	-0.8323416726	 1.9349179893	 0.4626854185	 0.135708
H	 0.2597983425	-0.5887567411	-2.1527983194	 0.099231
H	-0.3358474328	-0.480485172	 1.9928912865	 0.265826
H	 1.1935924683	-4.4058725087	-2.6651170894	 0.115971
H	 2.0937514073	-3.4803797517	-1.3598362228	 0.118931
H	 0.6654132389	-4.4677028819	 0.4275205983	 0.136126
H	-0.282353306	-5.4416624686	-0.8068341646	 0.115741
50.3061	55.7565	136.2347	190.9558	254.0576	321.5259	396.8412	448.5933	493.4685	572.5742	662.4783	700.7547	735.8684	796.2638	822.9504	904.5793	910.3834	988.5746	1010.3512	1038.6133	1044.5451	1061.9844	1111.9112	1129.5649	1151.6803	1167.7862	1179.5464	1198.1276	1281.6636	1314.122	1413.2423	1435.9048	1463.9241	1483.0365	1491.6573	1514.5921	1516.6486	1523.7942	1615.2817	3029.6661	3079.1988	3106.219	3120.4302	3130.9929	3192.7397	3212.0707	3266.9443	3676.902
CC1=CC(=NN1)N1CC1	Cc1cc(n[nH]1)N1CC1	
InChI=1S/C6H9N3/c1-5-4-6(8-7-5)9-2-3-9/h4H,2-3H2,1H3,(H,7,8)	InChI=1S/C6H9N3/c1-5-4-6(8-7-5)9-2-3-9/h4H,2-3H2,1H3,(H,7,8)
