20
gdb 118444	2.19867	1.11319	0.85042	4.6261	71.67	-0.2413	0.0229	0.2642	1398.6325	0.170614	-477.44737	-477.437369	-477.436424	-477.482799	35.902	
C	-0.5008482274	 1.1065254069	-0.1456100294	-0.329027
N	 0.0317417823	-0.2506270394	-0.0080362994	-0.328347
H	-0.7088268017	-0.9337262084	-0.1359874519	 0.24351
H	 1.8117766495	-0.1234424729	-0.6170015066	 0.302362
C	 0.692350591	-0.498435581	 1.2768603117	-0.099231
C	 0.6619792101	-1.987555788	 1.6669942658	-0.229825
C	-0.7386661715	-2.5516769285	 1.9151020627	-0.092744
O	-1.5365457554	-2.6361137601	 0.7308789727	-0.406246
C	 2.1707561172	-0.0610909208	 1.1926693297	 0.424799
O	 2.6082788075	 0.0668362083	-0.0672349184	-0.368539
O	 2.867293458	 0.1028165531	 2.1585586168	-0.349607
H	 0.3184521211	 1.8324298591	-0.1159531416	 0.138113
H	-1.0001359273	 1.2042204632	-1.1131458287	 0.127538
H	-1.2176348714	 1.3735115204	 0.6466219244	 0.114631
H	 0.2393669726	 0.0802035139	 2.0971394572	 0.092084
H	 1.1600725713	-2.5807164681	 0.8874491339	 0.102135
H	 1.2587477511	-2.0991064944	 2.5780813351	 0.137965
H	-0.6618191048	-3.5367954332	 2.3951251295	 0.106919
H	-1.2953194684	-1.8999680946	 2.5971161585	 0.122462
H	-1.1904292338	-3.3564193756	 0.193446028	 0.291046
72.5784	74.7358	130.0531	167.7917	177.0449	213.8444	251.4048	293.0869	341.6665	377.2203	425.1094	497.9711	529.091	658.7926	727.3994	816.5255	856.5621	879.6025	921.6174	926.3147	980.7743	1045.1642	1069.3716	1082.2176	1137.13	1149.9506	1162.6529	1217.4582	1236.2712	1280.1287	1299.4725	1353.6444	1383.1532	1392.7125	1410.2295	1423.59	1465.4983	1470.8066	1491.8648	1501.425	1507.0243	1528.731	1869.8202	2983.3704	2985.9061	3011.5098	3021.0669	3072.9505	3077.8411	3090.3012	3115.9125	3410.5072	3510.0003	3814.0043
C[NH2+]C(CCO)C([O-])=O	CN[C@@H](CCO)C(=O)O	
InChI=1S/C5H11NO3/c1-6-4(2-3-7)5(8)9/h4,6-7H,2-3H2,1H3,(H,8,9)	InChI=1S/C5H11NO3/c1-6-4(2-3-7)5(8)9/h4,6-7H,2-3H2,1H3,(H,8,9)/t4-/m0/s1
