15
gdb 123474	5.37271	0.98799	0.87715	6.4096	66.33	-0.2811	-0.0148	0.2663	1255.7019	0.113766	-450.076498	-450.068996	-450.068051	-450.110032	26.402	
C	 0.075906003	 1.3437001189	 0.6004046506	-0.186889
C	-0.0492119175	-0.0671963941	 0.0782830215	 0.07732
C	-1.3402471851	-0.5891109327	-0.382879688	-0.175477
O	-0.3391249796	-0.17812165	-1.3165730809	-0.228079
N	 1.337047587	 1.9506969816	 0.1994821676	 0.022947
C	 1.8574563843	 2.1682286315	-1.0232780452	 0.063784
N	 3.0312088304	 2.7461082077	-0.8915744363	-0.220616
N	 3.2236896151	 2.880445161	 0.4486349725	-0.093334
N	 2.2228793251	 2.4102104591	 1.1127251418	-0.124961
H	-0.7529969669	 1.9532406749	 0.2279511819	 0.140893
H	 0.0635246219	 1.3634528805	 1.6924808753	 0.15854
H	 0.7052468544	-0.7663301282	 0.4385296301	 0.12336
H	-1.5294072227	-1.6596205395	-0.3411106471	 0.134072
H	-2.2252546593	 0.0436919421	-0.3371293965	 0.126518
H	 1.3672639898	 1.8902411771	-1.9414703472	 0.18192
43.0044	75.1399	117.9916	284.6406	300.2069	366.9189	463.3916	672.7579	736.8296	758.7452	802.3292	869.9609	884.2704	950.8072	954.7888	986.7904	1042.7135	1094.61	1113.3632	1121.9758	1157.5733	1166.0786	1186.2537	1200.8584	1291.3206	1303.4105	1329.8151	1358.9919	1446.025	1453.9983	1474.3841	1513.6212	1529.048	3063.9626	3093.1368	3118.2117	3131.8601	3183.8381	3293.8326
C(C1CO1)N1C=NN=N1	C([C@H]1CO1)n1cnnn1	
InChI=1S/C4H6N4O/c1(4-2-9-4)8-3-5-6-7-8/h3-4H,1-2H2	InChI=1S/C4H6N4O/c1(4-2-9-4)8-3-5-6-7-8/h3-4H,1-2H2/t4-/m0/s1
