21
gdb 31658	2.75052	1.16853	0.87918	1.7965	88.62	-0.1725	0.0528	0.2253	1394.1505	0.182776	-383.305491	-383.295314	-383.29437	-383.340875	36.942	
C	-0.0415420743	 1.5050248014	 0.1679983272	-0.363734
C	-0.0201439521	-0.0254052792	-0.0040841762	-0.308846
C	 0.6909527998	-0.4899537517	-1.2416409865	 0.230523
C	 0.1234747063	-0.8582535233	-2.4442476149	-0.195011
N	 1.112849698	-1.1961921672	-3.3260180103	 0.022007
C	 0.9164438983	-1.7523708336	-4.6437470569	-0.331213
C	 2.3350028308	-1.051948462	-2.6980624211	-0.179653
C	 2.1058885631	-0.61670049	-1.4101883967	 0.131681
N	 3.0603771563	-0.4114932815	-0.3899833202	-0.609968
H	 0.9716127325	 1.920790301	 0.210649217	 0.105224
H	-0.5508314465	 1.9830255403	-0.674712772	 0.116084
H	-0.5579976787	 1.793898195	 1.0898079117	 0.105455
H	 0.4528477475	-0.4780582417	 0.8771884369	 0.105556
H	-1.052732933	-0.3934985879	-0.0177376629	 0.095644
H	-0.9146434699	-0.9135391489	-2.7353864634	 0.106752
H	 1.6408902605	-1.3287493239	-5.3464480855	 0.133076
H	 1.0250028059	-2.8444560416	-4.651238481	 0.131849
H	-0.0868216776	-1.5018187417	-4.9958857769	 0.135534
H	 3.25380883	-1.2792139662	-3.2155896256	 0.096865
H	 4.004215775	-0.3751064982	-0.7546172782	 0.233598
H	 2.8888220781	 0.440885111	 0.1299029155	 0.238578
65.7514	76.6097	123.7885	159.7912	178.1801	189.7635	264.2308	282.1648	302.8921	405.0596	480.6044	590.6025	610.557	615.6699	623.0345	707.878	744.5565	768.3621	792.3765	814.5646	963.3048	1027.381	1060.6714	1079.9304	1087.1328	1113.0345	1148.0751	1193.9803	1210.6191	1256.0279	1304.4283	1353.1595	1397.0313	1406.4959	1437.4512	1438.134	1467.0774	1481.8216	1485.0433	1494.3797	1504.7814	1521.0109	1581.4797	1622.8921	1657.8269	3016.4565	3018.8492	3026.3872	3054.4609	3079.2465	3091.4702	3104.6408	3124.2273	3242.561	3250.9678	3521.4741	3608.8229
CCC1=CN(C)C=C1N	CCc1cn(C)cc1N	
InChI=1S/C7H12N2/c1-3-6-4-9(2)5-7(6)8/h4-5H,3,8H2,1-2H3	InChI=1S/C7H12N2/c1-3-6-4-9(2)5-7(6)8/h4-5H,3,8H2,1-2H3
