14
gdb 49010	3.16719	1.40082	1.12917	2.6383	63.25	-0.2546	-0.061	0.1936	1034.7001	0.100262	-473.812548	-473.805029	-473.804085	-473.844939	27.489	
O	-0.7081295468	 1.0864918089	 0.8545849647	-0.249236
C	 0.1519652	 0.8578814369	 0.0416121035	 0.084842
C	 1.3632293611	 1.718474727	-0.1262903689	 0.328282
C	 1.7977811503	 2.7059421729	 0.9737287432	-0.230088
N	 2.071643874	 3.7577092393	-0.0480635	-0.312997
C	 1.4961684222	 2.9237604908	-1.1199077749	-0.250265
C	 2.5856740403	 2.0423617713	-1.7590672639	 0.478422
O	 3.3326544685	 2.0733910528	-2.6759189017	-0.303226
O	 2.4536425489	 1.0388059875	-0.8084397237	-0.293963
H	 0.0982512849	 0.0016013318	-0.6628284587	 0.106915
H	 0.9500886637	 2.9225946848	 1.630956625	 0.141856
H	 2.6693701252	 2.4110272548	 1.5633784051	 0.133399
H	 1.5699684895	 4.6231252325	 0.1044966078	 0.243125
H	 0.7126968482	 3.3383856287	-1.7538777175	 0.122935
100.0892	116.5099	202.7182	239.1805	281.7787	380.3458	435.3411	491.8972	652.5544	684.556	723.387	791.9743	803.1624	851.196	958.2037	969.432	994.4182	1016.5342	1035.9961	1103.643	1138.3029	1142.7188	1194.1799	1242.4749	1274.0999	1337.2552	1386.5762	1406.0049	1495.4892	1815.3197	1957.4252	2922.4765	3055.5321	3115.636	3125.5165	3567.8114
O=CC12CNC1C(=O)O2	O=C[C@]12CN[C@H]1C(=O)O2	
InChI=1S/C5H5NO3/c7-2-5-1-6-3(5)4(8)9-5/h2-3,6H,1H2	InChI=1S/C5H5NO3/c7-2-5-1-6-3(5)4(8)9-5/h2-3,6H,1H2/t3-,5+/m0/s1
