13
gdb 12167	4.09057	1.48226	1.17128	4.0284	61.51	-0.2691	0.0015	0.2706	958.0089	0.095362	-394.772401	-394.764654	-394.76371	-394.804811	27.348	
O	 0.3157811548	 1.1055976052	 0.413084883	-0.422567
C	 0.1802574609	-0.2199171702	 0.0151882527	 0.058663
C	-1.2959680784	-0.7551208257	-0.2005642797	-0.144826
N	-0.8511220226	-1.194665794	-1.5337788709	-0.326216
C	 0.3441484782	-0.4893698619	-1.4805170058	 0.345375
N	 1.2270630545	-0.0629199366	-2.2741762439	-0.546224
C	-1.7845178085	-1.815640422	 0.6748750073	 0.288985
N	-2.1708200122	-2.6489103436	 1.3759785337	-0.313729
H	 0.7563723597	 1.5721868534	-0.3086742136	 0.307702
H	 0.7554425957	-0.8943697559	 0.6584487004	 0.130852
H	-2.0019930575	 0.0815445148	-0.2099988479	 0.14028
H	-1.4423209772	-1.3514266668	-2.33827253	 0.257036
H	 1.0373307326	-0.2934172765	-3.2499499453	 0.22467
74.7279	147.1585	163.0861	219.5765	252.979	357.0763	435.65	464.6683	509.4229	581.9799	700.7527	748.9044	835.9679	875.7811	956.2021	986.8627	1042.7406	1066.5332	1137.2335	1159.7405	1226.1767	1302.1152	1328.8335	1366.3787	1375.7998	1394.6239	1813.0257	2361.2287	3057.3063	3065.6395	3478.3053	3594.8761	3777.7147
OC1C(NC1=N)C#N	O[C@H]1[C@@H](N[C]1[NH])C#N	
InChI=1S/C4H5N3O/c5-1-2-3(8)4(6)7-2/h2-3,8H,(H2,6,7)	InChI=1S/C4H5N3O/c5-1-2-3(8)4(6)7-2/h2-3,8H,(H2,6,7)/t2-,3-/m0/s1
