20
gdb 100079	3.22886	0.98363	0.90766	3.5847	71.82	-0.26	0.058	0.318	1356.981	0.167791	-477.470201	-477.459372	-477.458428	-477.505719	39.335	
C	-0.0376996019	 1.6024243215	 0.1032883229	-0.423951
C	 0.0578542909	 0.0757275856	 0.1112347344	 0.373923
C	 0.7295339193	-0.4644434238	 1.3748155677	-0.425088
C	-1.3352241289	-0.5516471762	-0.0671678814	-0.102621
O	-2.1401313057	-0.1662653191	 1.0337178334	-0.418178
O	 0.7336716197	-0.4105357183	-1.088033077	-0.319994
C	 2.0273169282	-0.090503798	-1.3202524377	 0.4911
N	 2.4481380874	-0.7178996546	-2.4636758214	-0.552016
O	 2.7318866401	 0.6097368789	-0.6294069474	-0.404214
H	 0.942274282	 2.0541965078	 0.2528938032	 0.148226
H	-0.4464711707	 1.9502145582	-0.8510895477	 0.106746
H	-0.7146122548	 1.9202394618	 0.8996420746	 0.133779
H	 0.088545325	-0.2549864226	 2.2343006756	 0.13345
H	 0.8575153404	-1.5491613641	 1.2998382032	 0.109909
H	 1.7054888647	-0.0040170928	 1.524468749	 0.148498
H	-1.7578797186	-0.2029076601	-1.0212918396	 0.089034
H	-1.2230463303	-1.6443612798	-0.1263554696	 0.091401
H	-3.0066272737	-0.5678132082	 0.9286678873	 0.293279
H	 1.7568205807	-1.0841122058	-3.0956461411	 0.260492
H	 3.3122905862	-0.3828610103	-2.8536329683	 0.266224
76.2314	98.921	125.1614	155.976	200.1788	228.4871	243.8922	274.1842	328.7719	345.7847	353.1384	358.3603	427.7907	456.037	504.2423	567.2215	676.3943	769.936	784.337	852.0082	924.2879	971.0389	982.932	1038.2652	1051.6147	1103.1422	1114.3871	1170.4493	1204.6872	1238.8447	1295.4065	1302.8106	1366.2734	1391.5453	1404.2537	1456.5658	1479.784	1494.7618	1498.0418	1509.1145	1528.6357	1608.8976	1819.6881	2981.0465	3018.6696	3047.8815	3051.6498	3120.6489	3124.0616	3160.6202	3164.2325	3612.8774	3742.7793	3844.6422
CC(C)(CO)OC(N)=O	CC(C)(CO)OC(=O)N	
InChI=1S/C5H11NO3/c1-5(2,3-7)9-4(6)8/h7H,3H2,1-2H3,(H2,6,8)	InChI=1S/C5H11NO3/c1-5(2,3-7)9-4(6)8/h7H,3H2,1-2H3,(H2,6,8)
