25
gdb 100019	2.39672	1.18647	1.11796	1.3243	88.07	-0.2561	0.0677	0.3237	1317.5936	0.226398	-389.485031	-389.474183	-389.473239	-389.519995	42.194	
C	-0.241161692	 1.5264851939	 0.0394217508	-0.394051
C	-0.2941409903	 0.0247054306	-0.261792093	-0.199808
C	 0.7640910095	-0.4865780957	-1.2735648904	 0.271483
C	 0.610591224	 0.2048047507	-2.6308598207	-0.425322
O	 2.0795744759	-0.1015629298	-0.8424621015	-0.467643
C	 0.6799478341	-2.0322989777	-1.3622203453	 0.382734
C	 1.2520450287	-2.7695634709	-0.1588787269	-0.494374
C	-0.5180709123	-2.6746302799	-2.0242410875	-0.305215
C	 0.8388506656	-2.7540727802	-2.6807659418	-0.319534
H	 0.7744007936	 1.8342578668	 0.3034754929	 0.12249
H	-0.5601231976	 2.1299493779	-0.8153675605	 0.117449
H	-0.90229052	 1.7725227254	 0.8761499024	 0.106695
H	-0.1636309893	-0.525407715	 0.6789798655	 0.086093
H	-1.2890063285	-0.2509147156	-0.6293916146	 0.098309
H	 0.637943649	 1.288054824	-2.5007990665	 0.123558
H	 1.4413981422	-0.0668752287	-3.2852368422	 0.128251
H	-0.3301782616	-0.0576444598	-3.1218382404	 0.111447
H	 2.1922854773	-0.3934784573	 0.0678201667	 0.276649
H	 0.7704853902	-2.479775433	 0.7820095183	 0.113799
H	 1.109114324	-3.8482722879	-0.2705622936	 0.115839
H	 2.3287616127	-2.5933779281	-0.0630500945	 0.12122
H	-0.9323942795	-3.5691791226	-1.570607377	 0.104769
H	-1.2635394956	-2.0365994008	-2.4871405709	 0.108923
H	 0.9945279663	-2.1840054523	-3.5875775345	 0.112031
H	 1.3606040635	-3.705443004	-2.6677203548	 0.104207
72.2068	90.5783	190.9554	207.8579	224.4508	247.7388	276.1218	315.6772	328.2052	340.5342	363.9611	367.5176	402.582	456.5561	482.8011	514.0323	670.6138	783.9766	787.1909	809.5813	873.6313	892.8548	924.0079	945.5284	956.7472	1000.982	1004.8449	1039.4786	1058.8439	1073.765	1082.1671	1118.8056	1139.0722	1159.9024	1186.539	1198.8101	1279.131	1299.5744	1331.5169	1366.3128	1375.5647	1407.3218	1410.463	1424.7167	1466.2879	1476.2545	1487.0639	1495.7732	1497.5176	1506.4085	1510.0439	1513.0645	1518.4649	3022.5904	3030.4568	3043.3642	3057.0609	3064.7707	3089.4634	3101.7108	3106.4274	3120.2538	3126.5096	3131.4942	3137.16	3140.1457	3205.2259	3228.8754	3817.1953
CCC(C)(O)C1(C)CC1	CC[C@@](C)(O)C1(C)CC1	
InChI=1S/C8H16O/c1-4-8(3,9)7(2)5-6-7/h9H,4-6H2,1-3H3	InChI=1S/C8H16O/c1-4-8(3,9)7(2)5-6-7/h9H,4-6H2,1-3H3/t8-/m1/s1
