12
gdb 129015	4.15422	1.74668	1.22966	3.0729	73.27	-0.232	-0.1025	0.1295	891.7707	0.080839	-427.803342	-427.797574	-427.796629	-427.833424	22.789	
N	 0.0607502527	 1.2622622237	 0.0087289283	-0.088447
N	 1.1598218261	 2.0739229478	 0.0025039691	-0.105358
N	 2.3203859826	 1.517267147	-0.0117440886	-0.259877
C	 2.3755434596	 0.1679012109	-0.0196065102	 0.298361
C	 3.4030314685	-0.7480684902	-0.0345344673	-0.130575
N	 2.8983093103	-2.0287418227	-0.0365911392	-0.212732
C	 1.5667660454	-1.9845142846	-0.0234754942	-0.122653
C	 1.1397699426	-0.6368829497	-0.0120242358	 0.314807
N	-0.0350924495	-0.053783582	 0.0025091521	-0.259875
H	-0.8101371323	 1.7743754845	 0.0199335471	 0.30685
H	 4.4683232573	-0.5719753595	-0.0438903613	 0.129215
H	 0.9589028767	-2.878180965	-0.02244595	 0.130282
210.5304	235.9811	402.5092	448.3289	581.0114	596.5422	620.0725	644.1315	675.409	759.3006	796.3575	838.2682	861.6159	878.3657	920.0207	974.0722	1081.568	1144.3877	1224.5082	1259.4809	1290.1167	1379.9178	1415.6658	1433.1255	1512.7816	1568.0698	1625.3782	3236.2211	3249.1222	3621.5552
N1N=NC2=CN=CC2=N1	[nH]1nnc2cncc2n1	
InChI=1S/C4H3N5/c1-3-4(2-5-1)7-9-8-6-3/h1-2H,(H,6,9)	InChI=1S/C4H3N5/c1-3-4(2-5-1)7-9-8-6-3/h1-2H,(H,6,9)
