16
gdb 24228	4.07932	1.5613	1.23232	1.3011	74.19	-0.2086	0.0137	0.2224	977.37	0.127692	-400.739778	-400.73349	-400.732546	-400.770306	25.732	
C	 0.0612986514	 1.4796014421	-0.0354936994	-0.23334
C	 1.320819471	 0.6838500903	 0.0327916686	-0.18658
N	-0.0222740139	 0.0151862871	-0.0444533297	-0.103129
C	-0.1726870357	-0.6105101996	-1.3907854479	-0.294092
C	 1.1233331895	-0.2657099177	-2.0550574897	 0.289638
C	 1.9782592263	 0.4334622722	-1.2718384983	 0.281586
C	 3.1430595981	 0.6704998241	-2.0692033227	-0.378643
C	 2.8730618956	 0.0937225881	-3.2758377528	-0.0111
O	 1.6274728992	-0.4831761499	-3.2886582244	-0.19649
H	-0.3478936135	 1.9425987787	 0.8592498012	 0.116563
H	-0.1258042602	 2.0216382037	-0.9607805726	 0.112381
H	 1.859598326	 0.5769875166	 0.9696770214	 0.100137
H	-0.3241138638	-1.6902079799	-1.267512223	 0.125173
H	-1.0582174767	-0.2109637649	-1.89885892	 0.124885
H	 4.0508474438	 1.1910454757	-1.8070698345	 0.116831
H	 3.4325767929	 0.0023999237	-4.1920577962	 0.136178
154.9073	221.0445	351.0124	416.0191	451.0756	589.935	614.8434	684.9195	698.2144	727.9741	738.5818	792.9722	820.8658	830.6976	924.0265	958.5074	1009.8317	1030.3216	1057.6378	1068.5716	1116.6197	1118.3366	1148.6605	1160.5539	1197.1235	1248.967	1258.0247	1296.6262	1310.5848	1395.1393	1478.5114	1489.1643	1502.0239	1514.9594	1635.8356	3020.554	3056.0638	3091.8777	3149.9428	3180.7479	3253.7228	3284.5086
C1C2N1CC1=C2C=CO1	C1[C@H]2N1Cc1c2cco1	
InChI=1S/C7H7NO/c1-2-9-7-4-8-3-6(8)5(1)7/h1-2,6H,3-4H2	InChI=1S/C7H7NO/c1-2-9-7-4-8-3-6(8)5(1)7/h1-2,6H,3-4H2/t6-,8?/m1/s1
