17
gdb 55075	3.58211	0.87012	0.78757	5.5311	71.36	-0.2402	-0.0202	0.22	1438.1472	0.133567	-455.148597	-455.138884	-455.13794	-455.184738	33.5	
N	-0.124838895	 1.0070644478	-1.4507687386	-0.537945
C	-0.370867705	-0.3006359023	-1.7446883043	 0.425004
O	 0.1099111038	-0.8551892303	-2.7180437985	-0.372095
C	-1.2869042019	-0.9907266249	-0.7666032813	-0.110465
C	-2.0705413304	-2.1620509446	-1.2705820229	-0.243949
N	-1.0119693189	-2.3533668112	-0.2985129966	-0.101584
C	 0.2018890251	-3.053476922	-0.7060609106	-0.243395
C	 0.0864749935	-4.5213878817	-0.3269305836	 0.157503
O	 0.8181615289	-5.3793287388	-0.7453425875	-0.241182
H	 0.4815141239	 1.527468445	-2.0632377805	 0.267109
H	-0.4840088258	 1.4551052476	-0.6268208052	 0.264453
H	-1.7258256457	-0.353834912	-0.0005391978	 0.087818
H	-3.0843943137	-2.321447595	-0.9140840052	 0.121787
H	-1.8732758633	-2.4422381417	-2.3031981996	 0.145058
H	 0.4548609458	-2.9597164709	-1.7679817945	 0.163144
H	 1.0471448466	-2.6421402252	-0.1368086188	 0.134095
H	-0.731348318	-4.7418928399	 0.3958234554	 0.084644
45.0857	61.7765	70.7884	129.9312	160.4894	226.5393	255.2685	365.015	386.1462	463.9747	504.182	586.512	642.9779	724.3462	755.8192	791.2239	843.2377	912.4612	1002.9223	1044.5997	1054.0278	1085.8825	1097.8089	1124.6974	1129.2797	1162.6697	1258.1799	1293.5249	1328.5298	1340.9811	1406.4226	1431.8458	1461.4453	1494.0459	1617.5345	1780.9794	1839.6485	2883.0544	3021.3549	3077.0463	3102.5428	3115.5845	3197.5072	3607.237	3744.0818
NC(=O)C1CN1CC=O	NC(=O)[C@H]1CN1CC=O	
InChI=1S/C5H8N2O2/c6-5(9)4-3-7(4)1-2-8/h2,4H,1,3H2,(H2,6,9)	InChI=1S/C5H8N2O2/c6-5(9)4-3-7(4)1-2-8/h2,4H,1,3H2,(H2,6,9)/t4-,7?/m1/s1
