13
gdb 9039	5.0566	0.85999	0.75902	3.7719	73.97	-0.2751	-0.0653	0.2098	1385.2472	0.093319	-361.45916	-361.450614	-361.44967	-361.493336	28.529	
C	 0.0344520091	 1.5017002143	 0.023079394	-0.401523
C	-0.0291321654	-0.0470000446	-0.0196503376	-0.248367
C	 0.7274242363	-0.6000757195	 1.201990928	 0.170638
O	 1.8416508005	-1.0367268672	 1.1404922464	-0.225161
C	-1.3977748868	-0.5336219979	-0.0256113455	 0.135308
C	-2.5325615277	-0.9485788894	 0.0048218832	-0.009258
C	-3.8169672787	-1.4108459052	 0.0295066177	 0.215298
N	-4.910375428	-1.802459607	 0.0516051402	-0.330832
H	 1.0770984695	 1.8258947975	-0.0181525681	 0.148038
H	-0.5034215378	 1.9240534542	-0.8282603893	 0.150203
H	-0.4203072471	 1.8850444146	 0.9407036723	 0.143314
H	 0.4989400704	-0.4100700191	-0.9083677132	 0.147286
H	 0.1672704657	-0.5254915305	 2.1588279019	 0.105055
48.1494	91.8441	104.1834	222.1762	223.896	241.8685	305.2568	439.5531	471.0808	503.4583	578.3104	585.5846	741.8628	880.147	926.3492	1038.4119	1078.5551	1118.0314	1184.3756	1257.4391	1322.3965	1400.6471	1416.1722	1492.2329	1497.0135	1843.8657	2264.2379	2398.6808	2905.9045	3051.1444	3058.3689	3131.2929	3139.6251
CC(C=O)C#CC#N	C[C@@H](C=O)C#CC#N	
InChI=1S/C6H5NO/c1-6(5-8)3-2-4-7/h5-6H,1H3	InChI=1S/C6H5NO/c1-6(5-8)3-2-4-7/h5-6H,1H3/t6-/m1/s1
