17
gdb 42758	2.68854	1.55259	1.27076	2.9079	79.46	-0.2324	-0.0109	0.2215	1037.8391	0.136376	-384.664502	-384.656786	-384.655842	-384.696513	30.411	
O	-0.0086714508	-0.0032285597	 0.0402437693	-0.308492
C	-0.0319577647	 1.1856886665	-0.0180366737	 0.406142
C	-1.0882754972	 2.3004643471	 0.0471149723	-0.156986
C	-0.0410857575	 3.0132939974	 0.9616055291	-0.277867
C	 1.0306719764	 2.3336843504	 0.0278301049	 0.117201
C	 0.7227746045	 3.0244830211	-1.3307755325	-0.269989
C	-0.8455476957	 2.9981749917	-1.3100401295	-0.231437
C	 2.3955195965	 2.129301365	 0.412739256	 0.072444
C	 3.5390320957	 1.9413202384	 0.7346987971	-0.338928
H	-2.1112680838	 2.1090361123	 0.361500234	 0.091495
H	-0.0493038033	 4.1055047737	 0.9519129434	 0.112491
H	-0.0127612854	 2.6297345074	 1.9820512175	 0.12866
H	 1.1285938789	 4.0385518012	-1.3508785651	 0.117054
H	 1.1500285254	 2.4707494834	-2.169468178	 0.123815
H	-1.267381142	 2.4359282964	-2.1465458285	 0.118161
H	-1.2756740174	 4.0028276213	-1.3250035848	 0.11146
H	 4.5470337805	 1.7708156865	 1.0214232486	 0.184775
124.57	142.7544	174.9105	257.1811	372.0159	422.8981	492.1218	502.4986	563.4625	618.1244	642.446	673.5366	704.8672	775.2925	790.5881	857.6406	878.4518	906.1563	958.3256	971.4407	1016.1646	1022.5027	1070.9448	1108.4265	1139.9371	1182.526	1212.9066	1228.7448	1251.1661	1258.0213	1316.7636	1335.6641	1491.5303	1495.7187	1517.5609	1909.3715	2237.0873	3061.1751	3071.4338	3073.9852	3103.7306	3123.25	3145.6907	3155.4568	3502.9567
O=C1C2CC1(CC2)C#C	O=C1[C@H]2C[C@@]1(CC2)C#C	
InChI=1S/C8H8O/c1-2-8-4-3-6(5-8)7(8)9/h1,6H,3-5H2	InChI=1S/C8H8O/c1-2-8-4-3-6(5-8)7(8)9/h1,6H,3-5H2/t6-,8+/m1/s1
