19
gdb 41461	3.24589	1.67947	1.28394	1.225	82.89	-0.2118	0.0129	0.2247	1015.6564	0.160747	-385.849502	-385.842272	-385.841328	-385.881	29.254	
C	-0.0148683635	 1.5243618122	 0.2790359227	-0.217879
C	 1.457727307	 1.6674794953	-0.2108370665	-0.299846
C	 1.4856646949	 0.191927005	-0.6808311016	 0.399047
O	 2.0640214355	-0.0629603265	-1.9291420826	-0.315857
C	 2.941199502	-1.2027114984	-1.8009072376	-0.127177
C	 2.6698252592	-1.7731081472	-0.419477941	-0.25117
C	 1.8814785506	-0.9163114364	 0.2204037714	 0.20809
C	 0.629701711	-0.8696674581	 1.0743175101	-0.328791
C	-0.0140770566	 0.0189207876	-0.0552026576	-0.104671
H	-0.2041714553	 1.7723551799	 1.3271837778	 0.096527
H	-0.7131319654	 2.0943051539	-0.3388267134	 0.104869
H	 1.5634287797	 2.3441753412	-1.0615134256	 0.117421
H	 2.2070878881	 1.9377944627	 0.5390863814	 0.100229
H	 2.6962177683	-1.9333250573	-2.5847345753	 0.109418
H	 3.9796584316	-0.8781588539	-1.9682868717	 0.106473
H	 2.9451073875	-2.7812697501	-0.1368416851	 0.100739
H	 0.1647441914	-1.8396824871	 1.261984286	 0.116035
H	 0.7207143397	-0.3362570144	 2.0250218649	 0.10993
H	-0.8570268054	-0.4233531484	-0.5850307363	 0.076611
110.6045	167.6417	240.5963	299.3344	361.1319	431.7799	479.9668	646.8004	677.8574	740.3829	765.1272	783.5515	795.0463	840.7223	871.6564	918.8223	923.0219	952.1808	984.4024	995.6189	1023.0628	1027.2402	1059.9093	1080.5323	1103.496	1164.2684	1191.0896	1192.6086	1206.2433	1222.2671	1238.3984	1259.4446	1282.4919	1291.1549	1337.2014	1381.395	1472.4789	1475.1682	1496.4871	1518.0981	1720.8614	2983.369	3014.6581	3053.2091	3054.5043	3059.8121	3099.0991	3107.904	3119.2218	3125.3833	3212.5953
C1CC23OCC=C2CC13	C1C[C@@]23OC[CH][C]2C[C@@H]13	
InChI=1S/C8H10O/c1-3-8-6(1)5-7(8)2-4-9-8/h2,6H,1,3-5H2	InChI=1S/C8H10O/c1-3-8-6(1)5-7(8)2-4-9-8/h2,6H,1,3-5H2/t6-,8+/m1/s1
