21
gdb 84504	2.91662	1.67143	1.36031	0.2683	88.26	-0.2343	0.0143	0.2486	1036.1579	0.185117	-349.884232	-349.876923	-349.875979	-349.9155	30.803	
C	-0.1997653064	 1.6169002184	-0.1108547453	-0.402557
C	-0.0448353465	 0.0885190691	-0.0042776449	-0.105188
C	 0.6404414057	-0.5383484291	-1.2350242207	-0.049919
C	 1.8306604841	-1.1088360978	-0.9884736721	-0.260689
C	 2.1548487034	-0.8789706955	 0.4517282416	 0.334543
C	 2.6044930291	-1.5018792808	 1.8103441366	-0.302322
C	 1.9060631497	-0.1264705502	 2.1581285523	-0.097857
C	 2.7313470701	 0.4795319766	 1.0016433319	-0.245643
C	 0.8064045658	-0.5620206039	 1.1233011293	 0.020699
H	 0.735930706	 2.1259232628	-0.3505307339	 0.124691
H	-0.914671357	 1.8665932016	-0.9027882205	 0.111252
H	-0.5847127696	 2.0315759687	 0.8262106667	 0.117933
H	-1.0650414276	-0.3082333562	 0.0777431642	 0.077639
H	 0.189040521	-0.4668490307	-2.2209274007	 0.090344
H	 2.4786524935	-1.5505889245	-1.736821776	 0.095522
H	 2.0885407344	-2.4114346964	 2.1291480209	 0.093386
H	 3.6782434565	-1.5531739264	 2.0112065881	 0.088788
H	 1.7696914205	 0.2851391066	 3.1599117347	 0.067307
H	 3.815018912	 0.5200081568	 1.1457112032	 0.084649
H	 2.3659440377	 1.3961724396	 0.5431933772	 0.093912
H	 0.2807263076	-1.4653905089	 1.4524194575	 0.063511
140.0817	192.2855	255.4681	316.3913	350.4463	454.4328	526.7922	546.702	593.1513	685.0782	745.2028	765.2273	792.7574	806.2142	861.7771	881.4787	888.6257	951.6515	956.3303	961.9135	984.4828	1016.6385	1036.2956	1065.5179	1081.8635	1102.387	1107.7772	1134.8665	1158.1888	1161.4132	1164.1203	1200.2318	1219.1454	1236.9193	1260.6832	1298.2313	1354.4117	1367.5118	1402.1958	1424.467	1491.5797	1495.9394	1509.3466	1544.6468	1621.7067	3006.1543	3033.627	3037.1388	3048.2428	3060.2583	3092.7479	3096.1248	3117.1378	3125.4061	3161.515	3165.8747	3200.0155
CC1C=CC23CC(C2)C13	C[C@H]1C=C[C@@]23C[C@@H](C2)[C@@H]13	
InChI=1S/C9H12/c1-6-2-3-9-4-7(5-9)8(6)9/h2-3,6-8H,4-5H2,1H3	InChI=1S/C9H12/c1-6-2-3-9-4-7(5-9)8(6)9/h2-3,6-8H,4-5H2,1H3/t6-,7-,8+,9+/m0/s1
