18
gdb 123405	4.79858	0.91945	0.84334	4.0191	77.63	-0.2484	0.0023	0.2507	1378.4828	0.149732	-398.117502	-398.109507	-398.108563	-398.151447	29.678	
C	-0.0931390824	 1.5896507029	-0.0471843306	-0.339656
C	-0.2511257117	 0.0976456338	-0.299140141	 0.036721
C	-0.0568745873	-0.8796901031	 0.8294179202	-0.244039
C	-1.4370216412	-0.6429251821	 0.2643958105	-0.278648
C	 1.3362426971	 2.0383207892	-0.0333695951	 0.326531
C	 2.1114986717	 2.5783539258	-1.0340503834	-0.173831
N	 3.3230952463	 2.7553351625	-0.4548783322	-0.14839
N	 3.317347458	 2.358707924	 0.8299391097	-0.114774
N	 2.1176680645	 1.9244858899	 1.084440942	-0.243708
H	-0.6478983438	 2.1545959857	-0.8057799126	 0.101893
H	-0.5392889061	 1.8373029325	 0.922486984	 0.118385
H	 0.0978549158	-0.2256634337	-1.2766621382	 0.078344
H	 0.4318001219	-1.8236707518	 0.6156696605	 0.109023
H	 0.1742457075	-0.4721606468	 1.8073983212	 0.129475
H	-2.1434718944	-0.0818972425	 0.8679988805	 0.109619
H	-1.8916826598	-1.4236051331	-0.335621649	 0.108605
H	 1.9110936086	 2.8424612293	-2.0587279184	 0.14315
H	 4.167246235	 3.1380467775	-0.8493620681	 0.281299
39.0062	67.8621	115.3176	286.3038	306.7557	348.1623	412.2679	568.003	672.2659	717.9961	757.7589	772.5099	791.9665	807.9184	844.9313	895.2098	954.0066	985.952	992.0215	1036.9703	1050.9909	1059.6344	1076.9031	1117.1892	1132.9653	1139.8754	1195.79	1224.7025	1247.2967	1270.2649	1310.1035	1336.0229	1365.1657	1407.9131	1468.9645	1476.1792	1489.1594	1507.9261	1589.0433	3031.5988	3074.4838	3128.4207	3135.1732	3140.2825	3207.7931	3225.8819	3281.9801	3659.9925
C(C1CC1)C1=CNN=N1	C(C1CC1)c1c[nH]nn1	
InChI=1S/C6H9N3/c1-2-5(1)3-6-4-7-9-8-6/h4-5H,1-3H2,(H,7,8,9)	InChI=1S/C6H9N3/c1-2-5(1)3-6-4-7-9-8-6/h4-5H,1-3H2,(H,7,8,9)
