25
gdb 94542	2.29136	1.32397	1.09209	1.6031	88.44	-0.2395	0.072	0.3115	1295.5963	0.226983	-389.483159	-389.472489	-389.471545	-389.51852	40.324	
C	 0.4194849983	 1.5490182405	-0.5648871484	-0.415675
C	 0.8657821252	 0.115302758	-0.2984457958	-0.0645
C	 2.3437039041	-0.1886891997	-0.6331265826	-0.076364
O	 2.6634927954	-0.4373379873	 0.7481126946	-0.299011
C	 1.2656516832	-0.3938682128	 1.1267819638	 0.155903
C	 1.0318985631	 0.3153829819	 2.4722827108	 0.231388
C	 1.6104733766	 1.7415730911	 2.5128577889	-0.421113
C	-0.4769664396	 0.3326423454	 2.7740448399	-0.419266
C	 1.7558927097	-0.5349430651	 3.5395341323	-0.403032
H	 1.1466496675	 2.2808470267	-0.2055794374	 0.128301
H	 0.3094408053	 1.69949319	-1.6450943257	 0.114513
H	-0.5480882886	 1.7736263671	-0.1056293566	 0.120426
H	 0.1611218559	-0.5681749519	-0.780382923	 0.075912
H	 2.5082411769	-1.0769319398	-1.2578317716	 0.094695
H	 2.9254715995	 0.6466387931	-1.0426695582	 0.098323
H	 0.8914081141	-1.4240314425	 1.2493886442	 0.061513
H	 1.0074308534	 2.4498844739	 1.9409128846	 0.108507
H	 1.6439618797	 2.1042585046	 3.5457502956	 0.104144
H	 2.6296662232	 1.7516706454	 2.1171011915	 0.126585
H	-0.8975922537	-0.6793667063	 2.761677253	 0.109129
H	-0.6630494294	 0.7553008199	 3.7672009361	 0.113203
H	-1.0315262395	 0.936728859	 2.0490309279	 0.113867
H	 2.8267566807	-0.5949550543	 3.3265319119	 0.133846
H	 1.6261602628	-0.09532135	 4.533981485	 0.104032
H	 1.3598468261	-1.5560225368	 3.5692924692	 0.104673
46.6903	89.4792	167.3229	212.2491	224.228	241.3071	260.4901	271.6198	315.6875	320.6629	359.8863	372.7067	402.7037	484.8843	556.2936	732.6899	764.4638	828.487	880.0705	922.7004	931.6948	941.7659	959.2017	963.8189	1020.2263	1026.0543	1035.9624	1055.2912	1096.4572	1129.5189	1159.6188	1191.0324	1228.1344	1240.2091	1266.0448	1291.3179	1298.2136	1353.96	1379.8671	1389.8784	1395.4951	1398.6885	1415.6979	1433.3437	1478.0021	1486.8262	1490.9843	1495.5867	1499.7238	1506.3755	1514.9093	1525.3519	1526.7688	2949.8047	3003.167	3025.4398	3030.0471	3033.6638	3043.2864	3045.6363	3064.3009	3090.324	3091.7769	3095.7618	3100.1957	3106.6633	3116.517	3123.5971	3133.2071
CC1COC1C(C)(C)C	C[C@H]1CO[C@H]1C(C)(C)C	
InChI=1S/C8H16O/c1-6-5-9-7(6)8(2,3)4/h6-7H,5H2,1-4H3	InChI=1S/C8H16O/c1-6-5-9-7(6)8(2,3)4/h6-7H,5H2,1-4H3/t6-,7+/m0/s1
