22
gdb 59875	3.27694	0.88807	0.73342	4.6368	81.68	-0.2454	0.0213	0.2667	1609.3432	0.192042	-441.522253	-441.511237	-441.510293	-441.559051	38.932	
C	-0.0222588367	 1.608684654	 0.0097611824	-0.387459
C	 0.066831737	 0.0881737817	 0.0600275696	 0.146676
O	-1.2326781186	-0.40744024	 0.311119116	-0.443836
C	 0.6394381629	-0.484682526	-1.2504020065	-0.353034
C	 0.725952265	-2.0108235706	-1.2183679233	 0.441796
O	 0.2168081324	-2.6485315322	-0.2984454452	-0.405807
N	 1.3827528887	-2.6414349698	-2.2378189483	-0.087789
C	 1.5040091011	-4.0912282373	-2.2192734787	-0.346182
C	 1.9920440113	-1.9843804761	-3.3779502463	-0.338786
H	 0.9625524062	 2.0595477	-0.1483789677	 0.102908
H	-0.687358175	 1.925790761	-0.800405488	 0.11669
H	-0.4321182146	 1.9864409914	 0.9499894988	 0.125173
H	 0.7496942262	-0.2016641439	 0.8759880497	 0.068609
H	-1.1200237201	-1.3693213092	 0.3550556189	 0.293774
H	-0.0069445571	-0.1778685536	-2.0831893128	 0.128206
H	 1.6296233618	-0.0530367849	-1.435103184	 0.113998
H	 1.022707296	-4.5290211647	-3.1025950217	 0.123615
H	 2.5605846873	-4.3867261607	-2.2238925685	 0.122697
H	 1.0234101212	-4.4672950108	-1.3186382051	 0.172456
H	 1.7633648066	-0.9213951275	-3.3939899953	 0.146718
H	 3.0837032665	-2.1065358008	-3.3676731577	 0.128381
H	 1.6161844918	-2.4252122199	-4.3098527464	 0.131195
46.6391	82.5368	85.6415	134.4415	161.0454	175.7762	227.5789	239.6211	289.6398	324.0567	406.2617	422.4781	459.8145	494.3137	599.1313	631.894	645.5819	807.1397	862.8197	926.9061	947.345	985.8925	1063.0635	1080.8004	1100.5322	1130.6547	1142.7267	1177.6883	1179.81	1239.8443	1280.7541	1306.9556	1325.4419	1391.1703	1401.0158	1429.1876	1440.7667	1442.4375	1459.7963	1477.6818	1483.1681	1486.0719	1501.7599	1502.7415	1504.0177	1546.1563	1717.5332	2961.3399	3008.7769	3018.8097	3024.23	3038.1297	3054.0667	3064.8875	3072.7655	3108.4451	3121.6795	3173.1019	3177.5795	3704.4547
CC(O)CC(=O)N(C)C	C[C@@H](O)CC(=O)N(C)C	
InChI=1S/C6H13NO2/c1-5(8)4-6(9)7(2)3/h5,8H,4H2,1-3H3	InChI=1S/C6H13NO2/c1-5(8)4-6(9)7(2)3/h5,8H,4H2,1-3H3/t5-/m1/s1
