23
gdb 104168	2.49316	1.25545	1.12537	1.3768	80.94	-0.2455	0.0684	0.3139	1250.8632	0.205037	-425.442416	-425.43264	-425.431696	-425.476826	37.624	
C	 0.0545458674	 1.4899827715	 0.2290774157	-0.392389
C	-0.0498059117	-0.0263746411	 0.0414856059	-0.20985
C	-1.4828660935	-0.5757942637	-0.0598322804	 0.403293
C	-2.2260492718	-0.0474440578	-1.291741279	-0.43379
C	-1.5081531365	-2.1338556236	 0.0049828892	-0.316532
C	-2.1255752611	-2.4429310848	 1.3835596316	 0.145342
O	-1.1485075314	-2.5301816082	 2.4108881274	-0.443377
C	-3.016240142	-1.2162392522	 1.5728211844	-0.124262
O	-2.1913066948	-0.1446815383	 1.1335434423	-0.306472
H	 1.0959623092	 1.7850743737	 0.3899507315	 0.109946
H	-0.3081628687	 2.0368930128	-0.6463939171	 0.115682
H	-0.5302296496	 1.8114858736	 1.0946987362	 0.13469
H	 0.4980654365	-0.3349197155	-0.8578108303	 0.096515
H	 0.4408329823	-0.5310246093	 0.8828637851	 0.08984
H	-1.7215418907	-0.3604783737	-2.2122201765	 0.113639
H	-3.248176335	-0.4378446225	-1.3214220685	 0.113167
H	-2.2837068977	 1.0434763107	-1.280776948	 0.124838
H	-2.131845988	-2.5473016052	-0.7936975425	 0.097571
H	-0.5127378481	-2.5744525596	-0.078574177	 0.113012
H	-2.6735151318	-3.3883020063	 1.400519004	 0.082843
H	-0.8291290568	-1.6331978146	 2.5653398848	 0.286427
H	-3.9385175953	-1.2929806684	 0.9747370102	 0.087657
H	-3.2853352409	-1.0385322073	 2.6172821807	 0.11221
57.9515	110.8144	151.7346	214.0752	237.9784	253.7881	306.3225	352.1149	399.6236	410.77	422.1469	437.7449	479.1087	629.5394	746.5268	780.8112	796.3173	848.1773	875.6313	893.1706	916.7854	970.1072	998.9292	1007.4789	1025.7594	1061.7347	1071.4447	1092.6042	1154.2337	1164.4424	1197.2722	1237.3015	1260.5843	1272.8768	1303.5099	1326.9904	1333.1071	1367.7775	1376.7418	1405.3229	1407.7217	1432.6023	1477.0072	1481.6538	1490.267	1493.789	1505.7578	1509.3969	1510.8497	2975.8838	3022.0816	3036.5437	3044.0921	3055.4353	3057.015	3089.4527	3097.9054	3101.8693	3105.7926	3116.2546	3123.1108	3126.5946	3790.5409
CCC1(C)CC(O)CO1	CC[C@@]1(C)C[C@@H](O)CO1	
InChI=1S/C7H14O2/c1-3-7(2)4-6(8)5-9-7/h6,8H,3-5H2,1-2H3	InChI=1S/C7H14O2/c1-3-7(2)4-6(8)5-9-7/h6,8H,3-5H2,1-2H3/t6-,7+/m1/s1
