17
gdb 70498	2.74971	1.5358	1.10882	1.8078	82.95	-0.2306	-0.0291	0.2015	1102.236	0.134239	-384.659081	-384.650777	-384.649833	-384.691599	32.13	
C	-0.1089129184	 1.5248736094	-0.0024991739	-0.50214
C	 0.1173809551	 0.041577381	-0.0144254217	 0.286495
O	-0.7070077484	-0.7504462725	 0.8718197001	-0.291346
C	 0.7115032935	-0.7711056021	 1.0627559937	-0.02023
C	 1.4031323212	-1.9795132053	 0.4467713505	-0.287398
C	 1.1016524385	-1.8306971184	-1.0257163924	-0.197274
C	 0.4171590295	-0.7055222151	-1.2990104226	 0.18233
C	-0.0095793867	-0.2470804243	-2.5664396835	 0.227552
C	-0.3869089258	 0.1888213697	-3.625044198	-0.44081
H	 0.7531298588	 2.0526930856	-0.4228365876	 0.128383
H	-0.9844308881	 1.7840364238	-0.6061901624	 0.139476
H	-0.2762440106	 1.8738934959	 1.0189989367	 0.129975
H	 1.0632939212	-0.3458453592	 1.9993246386	 0.094325
H	 2.4833000256	-1.9651081185	 0.644088735	 0.118071
H	 1.0187608176	-2.9224034752	 0.8552253827	 0.130857
H	 1.3846007831	-2.5721057845	-1.7632172867	 0.108266
H	-0.7185371561	 0.5566485698	-4.5642794886	 0.193468
118.2148	136.4192	182.0494	241.5553	283.3316	331.2915	405.663	448.5061	514.6773	527.4575	583.6548	641.2305	650.9026	675.4954	742.5238	809.9141	826.5967	866.4792	922.8616	954.1777	992.2792	1034.9089	1066.5768	1111.0809	1134.551	1183.2127	1233.178	1295.7714	1313.8752	1323.0311	1408.6299	1442.7457	1456.4372	1481.1303	1492.7308	1654.3916	2220.5679	3023.3336	3042.2095	3058.0388	3106.5568	3129.9375	3145.0955	3208.9603	3502.0078
CC12OC1CC=C2C#C	C[C@]12O[C@H]1CC=C2C#C	
InChI=1S/C8H8O/c1-3-6-4-5-7-8(6,2)9-7/h1,4,7H,5H2,2H3	InChI=1S/C8H8O/c1-3-6-4-5-7-8(6,2)9-7/h1,4,7H,5H2,2H3/t7-,8+/m0/s1
