20
gdb 60440	4.63107	0.60265	0.55812	3.8058	72.87	-0.2618	0.0594	0.3212	1973.5231	0.168667	-477.470281	-477.459425	-477.458481	-477.508228	38.066	
C	-0.0769327751	 1.5429321211	 0.0280163117	-0.403904
C	-0.0286316327	 0.0152728257	 0.0270908051	 0.136003
O	 0.7221177116	-0.4810314307	 1.1344065709	-0.427598
C	-1.429844144	-0.607859974	-0.0251432885	-0.217172
C	-1.3840336337	-2.1257402396	-0.1037445091	-0.054082
O	-2.7420839492	-2.5974971244	-0.0914488212	-0.263703
C	-2.8882004334	-3.9343608714	-0.2586913096	 0.489213
N	-4.2186507256	-4.2572736795	-0.2744441135	-0.563252
O	-1.9789575189	-4.7163736055	-0.4061195158	-0.395127
H	 0.9348390387	 1.952348984	 0.0889127237	 0.126581
H	-0.5550380724	 1.9262749403	-0.8789907743	 0.118487
H	-0.6495416856	 1.9132294708	 0.8879344246	 0.106904
H	 0.5393372875	-0.3205300686	-0.8501113183	 0.094046
H	 0.3074334579	-0.150484144	 1.939520151	 0.276696
H	-1.9948600685	-0.3067042965	 0.8680274415	 0.092487
H	-1.9761018298	-0.2126857535	-0.8897163934	 0.105462
H	-0.8909791413	-2.4681191705	-1.0192800006	 0.121093
H	-0.836977363	-2.5488963643	 0.7423355765	 0.129426
H	-4.8798999718	-3.590618435	 0.0862486335	 0.261426
H	-4.4339855809	-5.2339744143	-0.1714332243	 0.267012
16.8005	48.0404	98.4812	117.1844	163.1573	233.1967	247.0853	263.6498	303.7724	358.9593	398.2773	445.1988	483.1901	497.8563	542.6852	673.3032	779.9448	791.5403	846.5895	929.4147	948.212	975.3089	1046.5734	1087.3868	1101.2109	1113.6046	1132.9045	1168.4224	1221.1929	1284.6831	1293.3208	1333.8569	1347.0054	1380.2621	1403.5766	1419.7846	1428.78	1482.1962	1493.0951	1496.1834	1523.1544	1611.687	1834.8636	3014.1024	3023.257	3034.1162	3056.493	3065.4017	3095.2083	3112.0335	3121.0539	3613.3843	3742.3598	3793.0744
CC(O)CCOC(N)=O	C[C@@H](O)CCOC(=O)N	
InChI=1S/C5H11NO3/c1-4(7)2-3-9-5(6)8/h4,7H,2-3H2,1H3,(H2,6,8)	InChI=1S/C5H11NO3/c1-4(7)2-3-9-5(6)8/h4,7H,2-3H2,1H3,(H2,6,8)/t4-/m1/s1
