23
gdb 87844	3.29041	1.28769	1.2095	0.1512	89.56	-0.2515	0.0961	0.3476	1174.4669	0.208046	-351.138521	-351.13053	-351.129586	-351.170614	33.121	
C	-0.0936946239	 1.5058123409	-0.0236759245	-0.408426
C	 0.006380315	-0.002112284	 0.0451220762	-0.076323
C	 1.3370386307	-0.696060372	-0.1739133764	-0.374248
C	 0.6923688101	-0.7062070428	 1.1846912796	 0.432154
C	 1.2826727649	-0.0043826347	 2.4308661048	-0.301914
C	 0.9227199326	-1.0753917134	 3.4837840769	-0.017341
C	 1.3158820422	-2.3956131997	 2.7558617031	-0.224963
C	 0.1424744322	-1.9829397079	 1.8178649189	-0.082748
C	-0.5457736549	-1.4267378479	 3.0998212489	-0.224477
H	 0.8063219123	 1.9845937218	 0.3753060027	 0.114861
H	-0.2151598401	 1.8451218556	-1.0585032467	 0.114515
H	-0.9492117858	 1.8803564105	 0.5505100196	 0.113109
H	-0.8583664627	-0.521567535	-0.364362633	 0.075784
H	 1.3549765981	-1.6176012755	-0.748435812	 0.102531
H	 2.2113915178	-0.0671572818	-0.3188275708	 0.101725
H	 2.3625751182	 0.1594849849	 2.3562261579	 0.094005
H	 0.8082371014	 0.9588461926	 2.6455416163	 0.095938
H	 1.2162821108	-0.8760346841	 4.5150222655	 0.056232
H	 2.3176174452	-2.4695659506	 2.3223580536	 0.088607
H	 1.0906454156	-3.2855931994	 3.3485507261	 0.091148
H	-0.3504473487	-2.6932864958	 1.1521784335	 0.051219
H	-0.9667291678	-2.2146196553	 3.7291135636	 0.091411
H	-1.2621840832	-0.6075942964	 2.9855893461	 0.087203
116.4327	159.996	217.7548	228.384	339.8867	392.1349	431.7942	478.8899	523.4906	530.0098	730.6283	794.5866	823.5873	838.6422	848.9515	857.1336	888.0932	909.1411	926.7401	950.7658	962.7406	998.7438	1028.9487	1035.9632	1045.233	1076.0387	1077.1611	1084.4915	1105.9997	1124.3377	1130.6789	1178.5591	1192.3948	1222.9688	1226.1903	1238.1419	1257.7885	1274.1716	1293.3264	1309.1058	1356.8364	1410.1644	1430.2954	1484.8013	1491.8382	1493.1856	1494.7087	1507.103	1523.109	3024.2956	3039.3885	3048.3155	3052.8673	3080.3144	3083.0545	3094.3111	3099.9419	3106.2629	3110.205	3110.973	3115.9955	3120.1034	3193.6591
CC1CC11CC2CC1C2	C[C@H]1C[C@]21C[C@@H]1C[C@H]2C1	
InChI=1S/C9H14/c1-6-4-9(6)5-7-2-8(9)3-7/h6-8H,2-5H2,1H3	InChI=1S/C9H14/c1-6-4-9(6)5-7-2-8(9)3-7/h6-8H,2-5H2,1H3/t6-,7-,8+,9+/m0/s1
