12
gdb 18842	4.22711	2.49183	2.05682	2.7874	57.09	-0.2391	-0.0411	0.198	650.3467	0.08542	-377.482064	-377.476754	-377.47581	-377.511355	20.984	
O	 0.0086185221	 0.0649263284	-0.0562531061	-0.311397
C	-0.0180149891	 1.2596935108	-0.0816955166	 0.453362
C	-1.1175791588	 2.2698033132	 0.1189143366	-0.172676
C	-0.0625492676	 3.208053044	 0.6793807612	-0.049564
C	 1.0788377036	 2.3655228191	 0.0258359013	-0.166458
N	 1.2515241791	 2.9061242711	-1.3378434353	-0.172873
C	 0.1632642116	 3.5074874936	-1.5840307764	 0.041188
N	-0.8068619257	 3.5996528465	-0.5083341614	-0.144149
H	-2.1468324578	 2.0911637314	 0.4011745389	 0.133534
H	-0.0847564394	 3.7885843609	 1.5927489795	 0.130664
H	 2.0079995697	 2.1346835928	 0.5386562456	 0.110239
H	-0.0848858678	 3.9753529581	-2.5297058473	 0.148128
164.8104	359.981	440.1172	501.8677	612.1089	708.2042	725.9821	809.0742	822.1449	846.8025	890.1098	909.0992	935.32	944.284	953.1965	1002.951	1029.8748	1093.1515	1132.0802	1197.9637	1222.886	1247.3069	1269.2012	1311.4925	1677.1317	1884.0986	3171.3148	3201.3847	3212.9884	3218.0928
O=C1C2C3C1N=CN23	O=C1[C@H]2[C@H]3[C@@H]1[N][CH]N23	
InChI=1S/C5H4N2O/c8-5-2-3-4(5)7(3)1-6-2/h1-4H	InChI=1S/C5H4N2O/c8-5-2-3-4(5)7(3)1-6-2/h1-4H/t2-,3+,4+,7?/m0/s1
