19
gdb 91697	3.65853	1.30545	1.23491	2.2421	75.33	-0.2329	0.0117	0.2446	1087.3822	0.160678	-423.030127	-423.022382	-423.021438	-423.062113	31.019	
C	-0.0844233249	 1.4728931197	 0.077408556	-0.509287
C	-0.0683266973	-0.013618393	-0.0156907778	 0.35001
C	-0.0647179132	-0.8274132457	-1.0737609319	-0.208285
C	 0.0815583639	-2.2331698245	-0.5199553232	-0.027133
O	-0.592678317	-2.1341701948	 0.7521253792	-0.267288
C	 0.09515796	-0.9498775766	 1.1875422887	-0.02459
C	 1.5809454199	-1.4250713552	 1.1710727906	-0.272465
C	 1.5450063796	-2.4432782264	-0.0140586241	 0.177292
O	 1.7434681089	-3.7795387313	 0.4065652779	-0.448756
H	 0.820726436	 1.8477085691	 0.5737012848	 0.13038
H	-0.1444299568	 1.9382821721	-0.9099399128	 0.130385
H	-0.9342752858	 1.8251834154	 0.6753808628	 0.133049
H	-0.0684535603	-0.5644346095	-2.1230921014	 0.102115
H	-0.3092876053	-3.0650032751	-1.1047997697	 0.081831
H	-0.295940792	-0.6092728827	 2.1464178256	 0.078272
H	 2.2877207726	-0.604630477	 1.0289966727	 0.102976
H	 1.8474231504	-1.9564818405	 2.0875851675	 0.10607
H	 2.2973518805	-2.2485336844	-0.7802295248	 0.085635
H	 1.0181095508	-3.9768696098	 1.0125695599	 0.279792
112.5457	170.3365	183.2975	281.6915	352.5522	408.6672	437.7844	455.0047	547.4643	590.5834	676.2083	744.5708	801.9257	819.9043	851.8294	866.8517	906.6872	931.3391	947.3128	962.2807	1000.0217	1013.0277	1042.0513	1063.585	1089.4413	1140.8037	1172.0759	1204.3232	1227.2767	1252.5423	1269.3386	1285.3044	1317.4287	1327.9289	1345.0576	1413.9928	1431.5325	1478.5662	1485.13	1488.2757	1703.9508	3015.0572	3061.0057	3068.5424	3101.1076	3112.2795	3117.3745	3121.7998	3132.1863	3222.5871	3776.9997
CC1=CC2OC1CC2O	CC1=C[C@@H]2O[C@H]1C[C@H]2O	
InChI=1S/C7H10O2/c1-4-2-7-5(8)3-6(4)9-7/h2,5-8H,3H2,1H3	InChI=1S/C7H10O2/c1-4-2-7-5(8)3-6(4)9-7/h2,5-8H,3H2,1H3/t5-,6+,7+/m1/s1
