18
gdb 74369	2.75147	1.32399	1.09258	1.8545	79.18	-0.2435	0.0225	0.266	1171.9279	0.14738	-401.937262	-401.928537	-401.927593	-401.970725	32.66	
C	 0.0400144564	 1.4823739684	-0.0587362978	-0.450351
C	-0.0569664373	-0.012793194	 0.0259598672	 0.401618
N	-1.1795510216	-0.606903776	-0.0294608353	-0.29987
C	-1.2034514658	-2.076527479	 0.0097996977	-0.158241
C	 0.1489384087	-2.6880375936	-0.4113632227	-0.244465
C	 1.2468412708	-1.9779702036	 0.3624609526	-0.076145
O	 1.1810029939	-0.5603981601	 0.1522674572	-0.257927
C	-1.6126312355	-2.5462520704	 1.3368691772	 0.367726
C	-1.9232726876	-2.9482862182	 2.4262698934	-0.489837
H	 0.689569356	 1.7719330368	-0.890802601	 0.137209
H	-0.9533185924	 1.9059426341	-0.1986895079	 0.14588
H	 0.4881133339	 1.8831869504	 0.8560918372	 0.139154
H	-1.9725962553	-2.3923713462	-0.7061689497	 0.11304
H	 0.1761934795	-3.7631834584	-0.2156088155	 0.117185
H	 0.2905640233	-2.5306841768	-1.4859331251	 0.113108
H	 1.1468318843	-2.1781160572	 1.4362817635	 0.126458
H	 2.2466786082	-2.2791119761	 0.0419077317	 0.117203
H	-2.2153203194	-3.2931413703	 3.3872873674	 0.198255
80.6315	117.3002	142.486	183.6304	258.1058	320.4776	343.0447	422.5245	471.6757	550.6966	580.9395	630.9192	640.9983	645.7232	718.4377	809.3655	876.5073	901.6334	931.0449	970.4655	1036.097	1063.5282	1095.7554	1096.9802	1147.6393	1227.7519	1245.7617	1272.9318	1324.5513	1336.3914	1369.8404	1404.3118	1416.3401	1473.8381	1476.9194	1477.3962	1510.8379	1733.3957	2233.6065	3020.8812	3037.0433	3049.0905	3052.2733	3103.9146	3106.6352	3108.7946	3169.8935	3503.4203
CC1=NC(CCO1)C#C	CC1=N[C@@H](CCO1)C#C	
InChI=1S/C7H9NO/c1-3-7-4-5-9-6(2)8-7/h1,7H,4-5H2,2H3	InChI=1S/C7H9NO/c1-3-7-4-5-9-6(2)8-7/h1,7H,4-5H2,2H3/t7-/m1/s1
