17
gdb 60874	2.37147	1.24862	1.10594	4.3637	74.48	-0.2634	0.0011	0.2645	1179.3862	0.134948	-418.025974	-418.016787	-418.015843	-418.060258	32.79	
C	 0.6894488559	 1.2827696125	 0.0236416799	-0.362985
N	 0.1409247952	-0.0687277187	 0.0128379051	-0.101562
C	-0.5274585473	-0.5425995446	 1.1183226134	 0.151727
O	-0.5953387823	 0.0262945328	 2.1829294173	-0.324194
C	 0.0545831668	-0.7559831237	-1.2408559382	 0.160597
C	 1.3467990308	-1.2126676336	-1.9077145566	-0.289585
C	 0.4285737929	-2.2303902616	-1.3110608714	-0.296152
C	-1.0030764403	-0.2965865497	-2.1223811569	 0.266619
N	-1.846478622	 0.0915406013	-2.8122664872	-0.338266
H	 1.72407815	 1.2786326118	-0.3317960539	 0.128508
H	 0.0997186638	 1.9498812564	-0.6155555292	 0.147127
H	 0.6526833322	 1.6429038788	 1.0511040815	 0.174498
H	-0.9877486379	-1.5287278254	 0.9267158051	 0.089239
H	 1.4059866484	-1.1271509336	-2.9856084465	 0.150417
H	 2.2580852065	-0.9759269636	-1.3715033914	 0.143851
H	 0.7215806897	-2.6953872975	-0.3780733312	 0.147256
H	-0.1609144524	-2.8549264716	-1.9709951996	 0.152904
65.0395	103.2784	146.9808	193.8986	199.8473	230.8993	318.0127	324.6006	384.2077	434.2384	514.6454	579.1099	611.1467	767.8614	792.6954	870.8799	918.0871	958.692	963.219	1036.0917	1056.9309	1076.6384	1102.1339	1160.3063	1178.3885	1198.5995	1284.0274	1331.095	1367.1136	1439.3325	1441.7428	1459.3211	1488.3431	1497.5939	1513.8337	1805.1582	2347.8202	2973.0458	3034.3895	3095.1996	3152.2254	3157.004	3166.6096	3241.0026	3254.0279
CN(C=O)C1(CC1)C#N	CN(C=O)C1(CC1)C#N	
InChI=1S/C6H8N2O/c1-8(5-9)6(4-7)2-3-6/h5H,2-3H2,1H3	InChI=1S/C6H8N2O/c1-8(5-9)6(4-7)2-3-6/h5H,2-3H2,1H3
