23
gdb 113937	3.25272	0.82987	0.75128	1.6018	84.39	-0.2291	0.0813	0.3104	1658.8145	0.202043	-425.390333	-425.379496	-425.378551	-425.426988	39.061	
C	 0.552907318	 0.9871767726	 0.4628165263	-0.227991
O	-0.2820750977	 0.1984338292	-0.3593023857	-0.226647
C	 0.4100856542	-0.4330476057	-1.3806593514	 0.084039
C	 1.1381121574	-1.7351437139	-1.0931522118	-0.358568
C	-0.1511540498	-1.7177473733	-1.9002730014	 0.096819
O	-1.3358384195	-2.1653317709	-1.338072481	-0.252293
C	-1.7136705965	-3.4966020186	-1.6942339877	 0.158563
C	-0.8278089577	-4.5528205518	-1.0292135069	-0.391588
C	-3.178233675	-3.6354821418	-1.2957294755	-0.389534
H	 1.3290835009	 0.3821537705	 0.953520708	 0.107153
H	 1.0490494825	 1.7863166961	-0.1096401529	 0.102782
H	-0.0841124937	 1.4416390725	 1.2251593107	 0.127163
H	 0.8614543944	 0.2460487959	-2.1076029116	 0.082118
H	 2.0831129821	-1.9488260545	-1.5817056474	 0.106281
H	 1.0389209099	-2.1028993814	-0.0779329688	 0.1252
H	-0.0717320835	-1.8879802326	-2.9758942637	 0.082166
H	-1.6272615745	-3.6016006173	-2.7893805603	 0.063073
H	-1.1600025061	-5.5570474544	-1.3120400112	 0.111241
H	 0.2175048827	-4.4459874332	-1.3294551561	 0.123618
H	-0.8848741662	-4.4649512006	 0.0607189301	 0.119503
H	-3.7813512467	-2.8668033424	-1.7854970138	 0.122931
H	-3.5639447039	-4.6195112189	-1.5782193194	 0.109593
H	-3.2876496914	-3.5172720453	-0.2130823284	 0.124376
40.4698	74.0811	102.1729	118.04	204.8553	210.4001	230.6549	266.3176	280.4284	317.0825	377.7861	434.2194	476.956	509.8136	627.1071	751.5651	824.7458	836.4777	884.3793	926.1978	943.6633	963.9007	1002.4135	1026.5805	1063.4094	1094.0404	1131.0591	1145.6662	1166.9502	1169.0587	1178.6669	1187.0048	1204.8291	1237.8139	1272.9384	1354.0887	1368.6661	1388.3052	1396.624	1411.8962	1419.9636	1470.1932	1479.4601	1486.1287	1486.5922	1493.1549	1494.9691	1508.9879	1512.5766	2954.0148	2978.8041	3029.6612	3036.8671	3043.5524	3066.3468	3080.3847	3105.9932	3116.5945	3118.1699	3121.2655	3124.4558	3129.7285	3227.6029
COC1CC1OC(C)C	CO[C@H]1C[C@H]1OC(C)C	
InChI=1S/C7H14O2/c1-5(2)9-7-4-6(7)8-3/h5-7H,4H2,1-3H3	InChI=1S/C7H14O2/c1-5(2)9-7-4-6(7)8-3/h5-7H,4H2,1-3H3/t6-,7+/m0/s1
