17
gdb 85066	2.38755	1.59406	1.21693	1.878	63.69	-0.2654	-0.0099	0.2555	1048.7451	0.135467	-496.139164	-496.130432	-496.129488	-496.172449	32.536	
C	 0.5562720931	 1.3893358499	-0.2037746565	-0.405855
C	-0.0424680117	 0.0328121432	 0.1329310048	 0.075258
O	 0.1424027446	-0.8845628846	-0.9777553004	-0.224837
C	 1.1465794119	-1.7572692998	-0.7454003645	 0.417144
O	 1.555190204	-2.5287607786	-1.5669501066	-0.34937
C	 1.6895044794	-1.560494095	 0.6748425225	-0.070444
O	 2.8947862557	-0.803409993	 0.6262519771	-0.441938
C	 0.6203242245	-0.6906347766	 1.3443932178	 0.11273
O	 1.1054712774	 0.1570013348	 2.3495820786	-0.436768
H	 1.6332898663	 1.3077337187	-0.3728468261	 0.132392
H	 0.0884696359	 1.7940462261	-1.1046737152	 0.131395
H	 0.3850347587	 2.0810007511	 0.6247754452	 0.137144
H	-1.1232182882	 0.1193079788	 0.2708855295	 0.100935
H	 1.8476791195	-2.5255380493	 1.1674163165	 0.10456
H	 3.5308218464	-1.2837066069	 0.0843314174	 0.308485
H	-0.1259285765	-1.347302663	 1.8038590268	 0.105603
H	 2.011882369	 0.3857010642	 2.1056231633	 0.303566
82.3953	117.0269	229.7566	241.0283	256.6842	272.0867	310.8041	371.8849	422.7647	434.4429	513.088	562.8679	661.1706	734.4458	764.1897	797.131	896.5116	926.588	985.4647	1041.6063	1086.9736	1118.999	1142.5122	1150.2845	1192.8897	1215.2581	1282.4376	1323.4555	1341.6242	1368.6632	1387.0387	1402.6156	1415.0069	1450.6934	1489.8268	1501.8975	1871.6773	3049.248	3053.1901	3061.7276	3080.3965	3132.6066	3135.8223	3773.6803	3812.8345
CC1OC(=O)C(O)C1O	C[C@H]1OC(=O)[C@@H](O)[C@H]1O	
InChI=1S/C5H8O4/c1-2-3(6)4(7)5(8)9-2/h2-4,6-7H,1H3	InChI=1S/C5H8O4/c1-2-3(6)4(7)5(8)9-2/h2-4,6-7H,1H3/t2-,3+,4+/m1/s1
