19
gdb 66858	2.50027	2.05059	1.80798	1.0322	76.92	-0.225	0.0727	0.2978	884.1834	0.161701	-385.851326	-385.844656	-385.843712	-385.881766	28.862	
O	-0.0860392573	 1.3979035263	-0.006026705	-0.501001
C	-0.0046770603	 0.0127825353	 0.0031433318	 0.43264
C	-1.343234573	-0.7538297783	 0.0443133999	-0.129265
C	-0.9392086465	-2.0909587344	-0.4980964784	-0.047666
C	 0.1855160885	-1.9443559741	-1.5124934809	-0.227105
C	 1.0080632749	-0.7741885092	-0.9524585134	-0.115767
C	 1.8072140239	-1.2294564621	 0.3053015329	-0.245452
C	 0.5743629051	-0.8708937973	 1.1603235798	-0.10534
C	-0.6723302066	-1.7691713838	 0.967990361	-0.082505
H	 0.8026903763	 1.7600138205	 0.0764045415	 0.28012
H	-2.336605517	-0.3251073985	 0.0531561938	 0.088579
H	-1.7152602382	-2.8306218575	-0.6684673203	 0.081371
H	 0.7913180462	-2.8502467243	-1.6275459156	 0.094299
H	-0.2381846322	-1.7019442687	-2.4948037076	 0.095214
H	 1.5418991965	-0.1984732817	-1.7117773146	 0.058882
H	 2.1615706921	-2.2646591558	 0.3145352625	 0.091167
H	 2.6516637849	-0.5679364442	 0.5257408232	 0.085918
H	 0.6861027027	-0.4848817851	 2.1752316351	 0.063845
H	-1.12650794	-2.3687664472	 1.7479309445	 0.082066
219.6155	255.316	310.4398	347.2417	420.2411	472.3985	573.2407	604.8721	656.7403	715.268	749.7122	793.1503	840.8403	862.3198	884.616	904.4381	935.8333	962.537	978.3295	990.6936	1016.1984	1040.6383	1045.3775	1062.322	1082.0313	1093.3477	1117.1059	1139.312	1151.8189	1220.2955	1227.6789	1240.7732	1271.1198	1288.4484	1309.6359	1325.5682	1339.7287	1392.0194	1412.9376	1484.7622	1499.1766	3024.9486	3037.9502	3065.519	3081.973	3089.3261	3094.9032	3160.9764	3176.0878	3202.9172	3805.6974
OC12C3C4CC1CC2C34	O[C@@]12[C@H]3[C@H]4C[C@@H]1C[C@@H]2[C@@H]34	
InChI=1S/C8H10O/c9-8-3-1-4-6(7(4)8)5(8)2-3/h3-7,9H,1-2H2	InChI=1S/C8H10O/c9-8-3-1-4-6(7(4)8)5(8)2-3/h3-7,9H,1-2H2/t3-,4+,5-,6+,7+,8+/m1/s1
