21
gdb 72223	3.08541	1.62628	1.31783	1.178	80.47	-0.2409	0.0763	0.3171	1030.9843	0.184765	-387.081212	-387.073601	-387.072657	-387.11299	31.378	
O	-0.0090786988	 1.4333836078	 0.1354291013	-0.487742
C	 0.0102592418	 0.04365588	-0.0384213363	 0.430655
C	 0.3221879399	-0.5192971556	-1.4432629351	-0.307716
C	-0.8541788041	-1.537231425	-1.2860586939	-0.004519
C	-0.4480049979	-2.9733050356	-0.8668931578	-0.227789
C	-0.7112723202	-3.0816872696	 0.6578534298	-0.211501
C	-0.7786732334	-1.6411790414	 1.1709285182	 0.001131
C	 0.5514373544	-0.8137508752	 1.1447423207	-0.314803
C	-1.3181618351	-0.774464415	 0.0018062977	-0.097543
H	 0.90140267	 1.7501036359	 0.1250864963	 0.27328
H	 0.0995490838	 0.2381716425	-2.1999078125	 0.100677
H	 1.321475234	-0.9301624909	-1.6275831459	 0.080927
H	-1.5525129299	-1.5323638623	-2.1237397179	 0.069263
H	-1.0145825738	-3.7291353758	-1.4183149782	 0.096078
H	 0.6073862321	-3.1524003069	-1.098484307	 0.096464
H	-1.6769881353	-3.569726672	 0.8367106367	 0.095046
H	 0.0466939651	-3.6797392882	 1.1751650546	 0.09339
H	-1.3108755872	-1.5575961969	 2.1205064153	 0.066034
H	 1.475884786	-1.3737485948	 0.9676031554	 0.084527
H	 0.6742176293	-0.2002050239	 2.0404239468	 0.101829
H	-2.3083519106	-0.3231226269	 0.0359956119	 0.062312
94.2225	199.8329	224.2267	283.1249	358.6989	388.1348	430.4403	563.0605	585.6546	649.8514	704.3154	780.8346	802.5673	827.5292	851.1688	882.2679	896.7917	926.2332	942.9147	958.5175	968.7178	998.5861	1049.4904	1075.49	1090.9232	1119.9556	1136.1319	1163.9087	1184.2279	1207.0976	1227.6054	1230.173	1251.3476	1255.2862	1270.3926	1294.3182	1312.0073	1323.0692	1339.1216	1354.9728	1371.8088	1467.5581	1479.6823	1487.5746	1507.4794	3027.4543	3030.2918	3039.7834	3043.814	3066.543	3080.0272	3081.7785	3090.7833	3101.5587	3108.1033	3126.4053	3788.6163
OC12CC3CCC(C1)C23	O[C@@]12C[C@H]3CC[C@@H](C1)[C@@H]23	
InChI=1S/C8H12O/c9-8-3-5-1-2-6(4-8)7(5)8/h5-7,9H,1-4H2	InChI=1S/C8H12O/c9-8-3-5-1-2-6(4-8)7(5)8/h5-7,9H,1-4H2/t5-,6+,7+,8+
