23
gdb 102505	1.69326	1.1943	0.88864	1.332	87.81	-0.262	0.0325	0.2944	1483.8201	0.202333	-388.260478	-388.249035	-388.248091	-388.297356	41.451	
C	 0.1366050028	 1.505325461	-0.0833216967	-0.391383
C	 0.0220394545	-0.0222678826	-0.1183792141	-0.206416
C	-1.4151728482	-0.5517316239	 0.0607787401	 0.047761
C	-2.2770686083	-0.3312202213	-1.1978025086	-0.189733
C	-3.7875512158	-0.4450842043	-0.9656601448	-0.394555
C	-1.4083911458	-2.056139747	 0.4502887457	-0.08536
O	-0.7888855995	-2.8679383657	-0.547461272	-0.42172
C	-0.8106544511	-2.2805982802	 1.7707302079	 0.310184
C	-0.2945751977	-2.4599707691	 2.8422095587	-0.446697
H	 1.177573337	 1.8207343858	-0.2052344223	 0.112937
H	-0.44405184	 1.982143635	-0.8791663379	 0.120003
H	-0.2213456366	 1.9032526186	 0.8725813224	 0.117351
H	 0.4267184542	-0.397113534	-1.0675538483	 0.095447
H	 0.6534882551	-0.4345750338	 0.6782760813	 0.101923
H	-1.8735889157	-0.0165004717	 0.9045788342	 0.075482
H	-2.062140493	 0.6625920922	-1.6049607443	 0.089999
H	-1.9586768595	-1.053285936	-1.9586356017	 0.114691
H	-4.0814518739	-1.4410655147	-0.6184998215	 0.12012
H	-4.1297100924	 0.2798920629	-0.2185295043	 0.11398
H	-4.3384787803	-0.2526838708	-1.8915568983	 0.114271
H	-2.4449186119	-2.4096509213	 0.4836520493	 0.115194
H	 0.1636229849	-2.7491213115	-0.4674942571	 0.288506
H	 0.1473840312	-2.6294432078	 3.7930454723	 0.198014
53.2671	73.8952	88.5101	146.8622	176.1237	195.2677	222.9919	255.6118	266.0156	309.7332	318.4673	352.1806	446.1532	485.2035	564.9146	623.6076	664.3458	669.9168	750.7299	782.0093	840.6798	888.9827	942.866	996.5932	1022.0533	1025.687	1052.45	1058.3108	1114.041	1145.8047	1185.4175	1249.2253	1273.5774	1297.7727	1308.5528	1334.6719	1348.7658	1386.3307	1392.3292	1412.2323	1414.5751	1421.2873	1484.3323	1494.9243	1499.0257	1503.3604	1505.5429	1508.4943	2228.227	3006.6539	3018.4648	3031.0175	3033.0991	3040.4246	3051.0312	3054.9516	3071.8962	3100.0022	3100.712	3101.8632	3104.6572	3501.7612	3815.3303
CCC(CC)C(O)C#C	CCC(CC)[C@@H](O)C#C	
InChI=1S/C8H14O/c1-4-7(5-2)8(9)6-3/h3,7-9H,4-5H2,1-2H3	InChI=1S/C8H14O/c1-4-7(5-2)8(9)6-3/h3,7-9H,4-5H2,1-2H3/t8-/m0/s1
