19
gdb 80430	2.50933	1.74688	1.30004	2.0086	69.85	-0.2467	0.0576	0.3043	1007.3635	0.160121	-460.148398	-460.140344	-460.1394	-460.180368	32.812	
O	 0.2290542611	 1.3649222283	 0.0287173729	-0.449635
C	 0.0504479013	-0.0479132385	-0.0239019138	 0.102347
C	-1.3923907448	-0.5168243291	-0.2650630412	-0.082201
C	-1.1688535506	-1.991677298	-0.7220508318	-0.281728
C	-0.5250010452	-1.3001215859	-1.9473645705	 0.431972
O	-0.3406380386	-1.9928532392	-3.1347565143	-0.496786
C	-1.601222566	-0.1810315915	-1.7712700961	-0.319498
C	 0.7242601403	-0.6635828703	-1.3088307442	 0.050388
O	 1.3154902759	 0.3028819096	-2.1444597452	-0.462109
H	-0.5646597224	 1.7831525784	-0.321552625	 0.293682
H	 0.4769795765	-0.4488134642	 0.8993262137	 0.089508
H	-2.1302529475	-0.2604540709	 0.4946132216	 0.072845
H	-0.5391540817	-2.6387671931	-0.1034450457	 0.097264
H	-2.1048235787	-2.4949481867	-0.9706401945	 0.112287
H	 0.2682438274	-1.4703509855	-3.6718831337	 0.290026
H	-2.5792767297	-0.4966518672	-2.1376708569	 0.108208
H	-1.3633434151	 0.8205421089	-2.1414912986	 0.084318
H	 1.4655756194	-1.434519352	-1.0603407325	 0.072362
H	 1.2699270583	 1.1349529169	-1.6482552343	 0.28675
122.8313	212.6202	239.7787	294.2503	315.4602	360.4386	385.8659	459.4573	478.9932	500.3915	558.1748	585.3696	676.2876	745.4256	811.0778	824.3111	865.648	910.279	940.9372	962.3984	994.6171	1018.4885	1054.4848	1076.1607	1109.193	1134.4775	1148.1878	1152.6687	1214.1394	1223.8534	1243.9112	1264.5338	1291.8002	1304.2963	1329.1844	1383.5433	1387.1528	1408.6244	1423.221	1485.3834	1522.3689	3014.8843	3054.5475	3058.5405	3074.546	3119.5933	3126.1749	3131.4849	3691.7864	3780.1453	3813.0637
OC1C2CC(O)(C2)C1O	O[C@H]1[C@@H]2C[C@@](O)(C2)[C@H]1O	
InChI=1S/C6H10O3/c7-4-3-1-6(9,2-3)5(4)8/h3-5,7-9H,1-2H2	InChI=1S/C6H10O3/c7-4-3-1-6(9,2-3)5(4)8/h3-5,7-9H,1-2H2/t3-,4-,5-,6-/m0/s1
