20
gdb 100560	3.74451	0.90646	0.81053	3.3577	77.51	-0.2522	-0.0246	0.2276	1476.7679	0.168746	-440.260444	-440.250283	-440.249339	-440.296531	35.51	
C	-0.1622288662	 1.3064822008	 0.1653292065	-0.23709
O	-0.0592367818	-0.0902683103	 0.0050924571	-0.226337
C	 0.6254843277	-0.4973478692	-1.1506835044	 0.031458
C	 2.1548524846	-0.3745758431	-1.0094829973	-0.41562
C	 0.2428861806	-1.949580451	-1.445343039	 0.364782
O	-0.3928466226	-2.6331646771	-0.6754529852	-0.321673
C	 0.7097144523	-2.5037507738	-2.759687592	-0.103574
C	 1.3856999806	-3.8419016358	-2.7139002168	-0.221011
N	 0.0353921571	-3.7176569167	-3.2415052996	-0.306424
H	 0.8115639449	 1.7887699717	 0.3340220472	 0.10763
H	-0.6369667559	 1.7816021555	-0.7076453745	 0.105851
H	-0.7895426806	 1.4782913407	 1.0429132604	 0.136048
H	 0.3002858834	 0.1025851825	-2.020639306	 0.081695
H	 2.4930085303	-0.9567698548	-0.1476958105	 0.141009
H	 2.6682115353	-0.7393614736	-1.903373791	 0.129504
H	 2.4458050286	 0.668339654	-0.8605223506	 0.127583
H	 0.9981075393	-1.7933555986	-3.5289226621	 0.097859
H	 2.1578959496	-4.0633915156	-3.4450904355	 0.125852
H	 1.522391968	-4.285818448	-1.7316187555	 0.132893
H	-0.6221153653	-3.9888170374	-2.5081455613	 0.249564
51.648	63.0016	83.4491	157.0119	189.0692	206.6093	244.8941	286.6575	309.0045	329.5289	397.3479	458.2152	672.7424	744.3849	806.3885	845.6172	862.5387	899.8594	965.1362	1004.6034	1028.1384	1055.3526	1081.6645	1118.9965	1130.7746	1140.2776	1172.9619	1183.1168	1185.0739	1234.5932	1290.8687	1317.4879	1323.5039	1377.8047	1394.9078	1407.5421	1479.1594	1482.2786	1494.2903	1497.6296	1501.9294	1511.6958	1801.1503	2936.9521	2976.7006	3026.3643	3048.9574	3111.4495	3118.8092	3123.4097	3128.0669	3152.6938	3204.928	3453.5609
COC(C)C(=O)C1CN1	CO[C@@H](C)C(=O)[C@H]1CN1	
InChI=1S/C6H11NO2/c1-4(9-2)6(8)5-3-7-5/h4-5,7H,3H2,1-2H3	InChI=1S/C6H11NO2/c1-4(9-2)6(8)5-3-7-5/h4-5,7H,3H2,1-2H3/t4-,5+/m0/s1
