22
gdb 85931	2.67337	1.25963	1.06929	3.6568	83.23	-0.2332	0.0378	0.2709	1257.7971	0.193841	-404.411724	-404.401998	-404.401054	-404.445854	36.558	
C	-0.1000201173	 1.3259411273	 0.490897016	-0.344419
N	-0.0274099828	-0.052203782	 0.0693106032	-0.063072
C	-1.0975414363	-0.7089301658	-0.6555165994	-0.198054
C	-0.687984191	-2.2094286302	-0.6661274517	 0.289267
C	-1.2680472603	-2.9088325915	 0.5753865916	-0.423354
C	-1.1579806381	-2.9162705109	-1.9404356341	-0.440737
C	 0.8506678199	-2.1231120818	-0.5489732259	-0.371822
C	 1.1305220025	-0.7848747842	 0.1336929922	 0.401234
O	 2.1759232146	-0.4134840068	 0.6269418979	-0.396943
H	 0.8438886999	 1.5705487622	 0.9812532933	 0.164682
H	-0.2461218519	 2.0009590574	-0.3631958023	 0.119512
H	-0.927431853	 1.4797067806	 1.1939836646	 0.121006
H	-2.0615051648	-0.5507930172	-0.155866392	 0.10296
H	-1.189158118	-0.3070656857	-1.6772266339	 0.094754
H	-2.362794628	-2.9248866394	 0.5422499326	 0.11197
H	-0.9186455935	-3.944838352	 0.6359466014	 0.116904
H	-0.9647086161	-2.3983748083	 1.4953261342	 0.124788
H	-0.7423315234	-2.4423757298	-2.8359075537	 0.113715
H	-0.8484345444	-3.9667243152	-1.9418954548	 0.119011
H	-2.2506328089	-2.8942078921	-2.0252062425	 0.113963
H	 1.2989428936	-2.9432283162	 0.016486026	 0.124222
H	 1.3333061676	-2.1039272687	-1.5335836029	 0.120412
83.1404	127.5594	159.7438	195.0018	230.6823	252.5771	286.9953	313.5452	328.1586	367.3199	411.5001	509.0344	537.0581	588.9119	660.4913	779.5033	807.0315	911.8409	930.5364	952.473	961.3771	995.2544	1013.7226	1050.151	1117.2126	1135.9335	1161.7199	1202.9564	1211.5283	1254.6465	1273.9875	1298.7362	1313.55	1337.01	1401.9142	1416.9378	1433.78	1452.7344	1466.0807	1484.8673	1490.8465	1493.3809	1504.8246	1506.9704	1512.7367	1541.1123	1807.1414	2973.8442	3008.5761	3023.8817	3028.7738	3035.4732	3042.6921	3059.2171	3090.3695	3097.7944	3098.9393	3102.5801	3108.1749	3141.6435
CN1CC(C)(C)CC1=O	CN1CC(C)(C)CC1=O	
InChI=1S/C7H13NO/c1-7(2)4-6(9)8(3)5-7/h4-5H2,1-3H3	InChI=1S/C7H13NO/c1-7(2)4-6(9)8(3)5-7/h4-5H2,1-3H3
