15
gdb 28915	2.41814	1.86137	1.0526	1.6105	72.39	-0.2032	0.0096	0.2128	1056.7708	0.114715	-454.019621	-454.011822	-454.010878	-454.051344	30.866	
N	 0.0227678932	 1.4197461503	-0.1001507918	-0.591924
C	 0.0352044743	 0.0389587114	-0.0544458464	 0.264517
C	-1.1698581542	-0.664727566	-0.1127582866	 0.224709
O	-2.346944513	 0.0338191562	-0.1549752997	-0.470606
C	-1.1235415922	-2.0562136614	-0.1159937145	 0.32627
O	-2.3245264489	-2.6988706082	-0.1668896264	-0.451067
N	-0.0175313933	-2.7791715419	-0.0669358816	-0.384652
C	 1.1380864065	-2.0999693332	-0.0088624425	-0.017302
C	 1.2182268164	-0.7189132081	 0.0002268239	-0.213924
H	 0.8206669281	 1.8842431698	 0.3040646375	 0.251954
H	-0.8602281026	 1.8447179418	 0.1403037378	 0.26552
H	-3.0653637515	-0.6097761351	-0.1645861127	 0.309607
H	-2.1223710797	-3.6436479799	-0.1535370223	 0.299876
H	 2.0424016405	-2.7001628044	 0.0328309267	 0.103487
H	 2.1812000563	-0.2218465113	 0.0446073585	 0.083535
148.9446	246.487	289.7189	295.7677	310.6598	362.9996	387.9328	459.0207	507.6527	532.5314	546.3587	566.3567	569.609	649.9379	722.4392	774.057	818.7089	859.4187	947.7034	1018.0414	1081.6071	1137.0792	1186.0801	1292.2292	1302.039	1346.947	1367.2009	1405.8549	1499.5232	1552.1651	1639.0343	1642.7901	1676.9911	3165.3744	3189.3099	3579.0452	3687.8172	3783.9894	3804.6021
NC1=C(O)C(O)=NC=C1	Nc1c(O)c(O)ncc1	
InChI=1S/C5H6N2O2/c6-3-1-2-7-5(9)4(3)8/h1-2,8H,(H3,6,7,9)	InChI=1S/C5H6N2O2/c6-3-1-2-7-5(9)4(3)8/h1-2,8H,(H3,6,7,9)
