17
gdb 124777	2.58743	1.39173	0.96719	2.6952	70.06	-0.2364	0.0036	0.24	1190.441	0.135986	-455.136163	-455.127359	-455.126415	-455.169705	32.892	
C	 0.1016413362	 1.4413743155	-0.2537831774	-0.407902
C	 0.0231317864	-0.0391932828	 0.1354112791	-0.015621
O	 0.5785664951	-0.2653048	 1.426551995	-0.419544
C	-1.3790314032	-0.5832671794	 0.0534217041	 0.095175
C	-2.1060496363	-1.1659424566	 1.0396830336	-0.003383
O	-3.3293393898	-1.5047212488	 0.6121569727	-0.177752
N	-3.4412082077	-1.163100084	-0.7385923347	-0.223401
C	-2.289008092	-0.6148964174	-1.0562212043	 0.319386
N	-2.0766167673	-0.0913552927	-2.3267723318	-0.589371
H	 1.1394914905	 1.7831119101	-0.217142391	 0.124611
H	-0.2994368073	 1.6124291988	-1.2564355679	 0.136156
H	-0.4942502171	 2.0452204211	 0.4410707142	 0.11549
H	 0.6717326898	-0.6129486045	-0.5414133537	 0.09774
H	 0.1856505258	 0.379914168	 2.0253737323	 0.281189
H	-1.8765616221	-1.4023688297	 2.0664696689	 0.151033
H	-2.8138497412	-0.3558618274	-2.9688313028	 0.261426
H	-1.1691143797	-0.3158998701	-2.7128396162	 0.254766
60.1473	158.2539	171.3419	253.737	272.4228	303.2897	315.3469	330.048	376.5936	490.0127	524.5597	596.2188	641.0192	692.8982	755.6598	789.6594	856.44	902.9529	923.9101	949.0334	1036.47	1064.227	1112.3038	1138.6048	1174.1062	1213.0316	1290.8504	1309.8222	1350.2475	1406.1929	1416.6165	1465.5551	1488.3682	1496.7709	1536.6419	1638.7245	1674.3836	3007.3746	3032.6236	3104.6394	3128.7982	3272.212	3538.3443	3633.4295	3796.9358
CC(O)C1=CON=C1N	C[C@@H](O)c1conc1N	
InChI=1S/C5H8N2O2/c1-3(8)4-2-9-7-5(4)6/h2-3,8H,1H3,(H2,6,7)	InChI=1S/C5H8N2O2/c1-3(8)4-2-9-7-5(4)6/h2-3,8H,1H3,(H2,6,7)/t3-/m1/s1
