20
gdb 101640	3.89186	0.74217	0.64916	5.6196	76.54	-0.2797	0.0253	0.305	1710.0843	0.168995	-440.29895	-440.288623	-440.287679	-440.33469	37.273	
C	 0.0245064657	 1.5637813083	 0.0788784952	-0.384611
C	-0.0214502543	 0.0369933744	-0.0233194273	-0.200335
C	 0.7404793206	-0.51350697	-1.2315723394	 0.114966
O	 2.1207382196	-0.1006550774	-1.2083928644	-0.431782
C	 0.6212707982	-2.0381098444	-1.358674471	-0.235639
C	 1.3007230338	-2.5827478075	-2.6341868163	-0.017106
O	 2.6972500282	-2.3893446696	-2.6445376452	-0.432784
C	 1.0393484641	-4.0277889225	-2.7641326749	 0.287846
N	 0.7914540353	-5.15202352	-2.8552380519	-0.318298
H	 1.0559741361	 1.9235406627	 0.1165719041	 0.128389
H	-0.4569176066	 2.0298664564	-0.7874338223	 0.121671
H	-0.4935917665	 1.9113415381	 0.9769254228	 0.119867
H	 0.3940332912	-0.4167901809	 0.8885708463	 0.096252
H	-1.0610571544	-0.3062012592	-0.0832845657	 0.110636
H	 0.345936506	-0.048561429	-2.1447474416	 0.10016
H	 2.491336797	-0.3647537209	-0.3569729535	 0.29037
H	 1.0719931794	-2.5258202297	-0.4853717569	 0.117327
H	-0.4383976432	-2.3155470066	-1.3754396545	 0.124932
H	 0.8277561202	-2.0988144878	-3.507364033	 0.111203
H	 2.8348341996	-1.4805241842	-2.3315434806	 0.296937
59.1788	84.2907	114.665	137.523	201.46	225.6555	278.4879	311.4675	314.487	337.4961	401.5907	460.5053	517.5134	587.3736	596.2521	649.4122	779.6276	851.6005	864.9697	942.1986	968.2555	1005.3589	1027.3189	1071.4422	1095.5074	1120.5078	1145.8074	1196.6536	1259.7838	1278.5264	1314.9973	1341.4117	1351.5677	1373.5762	1393.1116	1410.3477	1420.2876	1460.9321	1479.6545	1484.714	1497.3441	1507.903	2366.4884	2945.9456	3003.788	3027.337	3039.1333	3042.8603	3059.8069	3088.1234	3109.3225	3125.0241	3668.6401	3782.9363
CCC(O)CC(O)C#N	CC[C@@H](O)C[C@@H](O)C#N	
InChI=1S/C6H11NO2/c1-2-5(8)3-6(9)4-7/h5-6,8-9H,2-3H2,1H3	InChI=1S/C6H11NO2/c1-2-5(8)3-6(9)4-7/h5-6,8-9H,2-3H2,1H3/t5-,6-/m1/s1
