23
gdb 95472	2.42039	1.64092	1.20093	0.2643	91.55	-0.2247	0.0305	0.2552	1147.1606	0.208306	-351.1643	-351.156037	-351.155093	-351.196573	33.7	
C	-0.19577327	 1.5874906395	-0.1225184748	-0.39641
C	-0.027036681	 0.0652889005	-0.0383430361	-0.012679
C	 0.7709250852	-0.5054284203	-1.238707037	-0.21351
C	 2.2346050208	-0.0124720204	-1.3169149953	-0.235274
C	 2.9103724525	 0.0713400197	 0.0327588534	-0.238023
C	 2.2161677421	-0.1744264975	 1.1352710799	 0.36111
C	 2.3239259575	 0.0816150028	 2.6243600366	-0.321287
C	 0.7739227245	 0.3185172953	 2.6013285697	-0.258506
C	 0.7233522546	-0.4105010723	 1.2163445857	-0.033194
H	 0.7613095407	 2.110046284	-0.0263138295	 0.12062
H	-0.6376582698	 1.8731040504	-1.0832527155	 0.106522
H	-0.857130994	 1.957825908	 0.6669582433	 0.111876
H	-1.028720815	-0.3827907102	-0.0613362304	 0.06183
H	 0.7711048383	-1.5995925631	-1.156144788	 0.094983
H	 0.2581998266	-0.2658037197	-2.1773932139	 0.087289
H	 2.7987625112	-0.6688909562	-1.9928511611	 0.100503
H	 2.2729247142	 0.9810293522	-1.7880402589	 0.103779
H	 3.9460416237	 0.403065454	 0.0676402154	 0.075997
H	 2.5858499927	-0.8169807674	 3.1949162707	 0.106329
H	 2.9630128134	 0.9033264163	 2.9586597744	 0.104544
H	 0.1878636273	-0.1151175345	 3.4148880018	 0.09335
H	 0.5387921438	 1.3818102712	 2.5187749514	 0.107086
H	 0.5032409607	-1.4736792325	 1.3848429783	 0.073064
118.4035	174.9535	221.7862	259.3754	269.9738	337.9141	358.8396	411.5132	505.2575	544.8203	644.4495	680.4289	730.8363	781.5239	822.5393	845.942	879.0016	900.6124	917.1495	962.6484	968.0014	1006.1834	1021.4227	1044.4969	1083.4409	1093.2707	1106.8123	1123.3433	1137.8298	1195.1811	1215.9019	1228.2755	1238.5139	1259.5358	1276.2303	1311.923	1324.9315	1346.6009	1364.602	1378.1238	1389.9812	1415.2754	1472.9801	1475.2059	1489.308	1490.3547	1501.2916	1508.4718	1774.5115	2995.8253	2998.4758	3011.7394	3021.9458	3031.8284	3034.5701	3036.2916	3063.1587	3068.2893	3090.6302	3096.5254	3104.7497	3127.2403	3144.6671
CC1CCC=C2CCC12	C[C@H]1CCC=C2CC[C@@H]12	
InChI=1S/C9H14/c1-7-3-2-4-8-5-6-9(7)8/h4,7,9H,2-3,5-6H2,1H3	InChI=1S/C9H14/c1-7-3-2-4-8-5-6-9(7)8/h4,7,9H,2-3,5-6H2,1H3/t7-,9-/m0/s1
