22
gdb 59170	2.44677	1.25093	1.0906	1.8271	81.8	-0.2296	0.0661	0.2957	1258.5807	0.193335	-404.297492	-404.287732	-404.286788	-404.332254	36.597	
C	 0.1332884586	-0.6355312833	-2.4922022815	-0.401358
C	-0.417240271	-0.3851324191	-1.085964575	 0.111833
O	-0.6110287634	 1.0070032859	-0.8401591477	-0.43627
C	-1.711359289	-1.1493249312	-0.8699165612	-0.01132
C	-1.9363998589	-2.4451871856	-0.1871130314	-0.085763
C	-1.0903410725	-2.699796895	 1.0635947445	 0.035788
C	 0.3632501219	-3.1517687396	 0.9740823093	-0.426673
C	-1.5095023288	-1.2738804006	 1.5198519968	-0.200962
N	-2.4923881528	-1.1378277648	 0.3806185573	-0.156241
H	 1.038818725	-0.044190444	-2.6499769506	 0.124791
H	 0.3729986373	-1.6939624197	-2.6391462055	 0.118496
H	-0.6003191831	-0.3460500229	-3.2539112808	 0.109321
H	 0.3400957632	-0.6813250357	-0.3587688021	 0.084991
H	-1.4349812695	 1.272708944	-1.2632534918	 0.282555
H	-2.3957247886	-1.004292296	-1.7099935375	 0.084703
H	-2.5937073619	-3.1900363773	-0.6290818638	 0.088242
H	-1.6327024194	-3.4220266615	 1.6826010144	 0.087608
H	 0.9849537454	-2.4779474843	 0.3795055165	 0.125168
H	 0.8074297095	-3.2165523606	 1.973514053	 0.119266
H	 0.4294508104	-4.1469981845	 0.5203011303	 0.118279
H	-2.0438886536	-1.2502371489	 2.471070554	 0.106565
H	-0.7411387189	-0.4969371255	 1.5314590729	 0.12098
41.5952	136.811	151.2124	184.6832	214.8328	231.9251	258.6728	298.3498	342.1855	411.2062	464.6331	533.7181	571.9753	702.2648	749.4077	777.4807	858.3254	885.1156	895.8096	927.3732	962.3344	989.9273	1030.8784	1061.9708	1084.6719	1095.8076	1114.313	1136.3062	1141.1794	1174.4517	1196.6413	1255.9656	1261.7387	1280.6013	1297.9275	1346.2133	1370.096	1387.9371	1402.1167	1410.7747	1426.7445	1456.232	1489.0833	1495.4557	1497.6443	1497.9516	1516.1363	3029.401	3033.5541	3046.5704	3068.1933	3071.4235	3089.8802	3092.4821	3108.9372	3118.3193	3121.4117	3126.0208	3136.8519	3802.372
CC(O)C1C2C(C)CN12	C[C@@H](O)[C@H]1[C@H]2[C@@H](C)CN12	
InChI=1S/C7H13NO/c1-4-3-8-6(4)7(8)5(2)9/h4-7,9H,3H2,1-2H3	InChI=1S/C7H13NO/c1-4-3-8-6(4)7(8)5(2)9/h4-7,9H,3H2,1-2H3/t4-,5+,6+,7-,8?/m0/s1
