18
gdb 53591	2.27164	1.1638	0.92501	1.4735	85.79	-0.2277	0.0308	0.2585	1346.3851	0.14448	-364.715158	-364.705073	-364.704129	-364.751481	35.476	
C	 0.7901298422	 0.26604062	-1.0243773748	-0.498678
C	 0.2149567047	-0.7309208533	-0.133021456	 0.038321
C	-0.2369867533	-1.5660402816	 0.608451437	 0.090952
C	-0.8288768538	-2.5475487749	 1.5182822477	-0.292467
N	-1.6975128745	-3.5938914393	 0.9445304222	-0.095631
C	-2.129640756	-3.5018747796	-0.437518536	-0.244176
C	-1.144242247	-4.5562296652	-0.0276664979	-0.168129
C	 0.2249589341	-4.513727205	-0.460001189	 0.348643
C	 1.3821022164	-4.5548723881	-0.7866120893	-0.469874
H	 1.5347635812	 0.8767774203	-0.5018757249	 0.150326
H	 1.2898769812	-0.2059170135	-1.8775261816	 0.150499
H	 0.0249382428	 0.9438440876	-1.4184811324	 0.147104
H	-0.039758017	-3.0575992842	 2.0824982899	 0.141596
H	-1.4455295483	-2.0174065093	 2.254520342	 0.137444
H	-3.1618077861	-3.7828784926	-0.6302824245	 0.117549
H	-1.7415048417	-2.6846803066	-1.0396652547	 0.133465
H	-1.5209142508	-5.5650741826	 0.1306996675	 0.11545
H	 2.4004079459	-4.5658984622	-1.0869280252	 0.197603
39.2216	46.7518	88.8578	129.395	196.0467	205.5839	274.7882	331.2805	373.221	383.6868	502.8401	531.3734	596.2532	605.838	656.9326	737.4054	777.7866	807.6654	903.2416	984.8864	1030.2507	1050.7798	1054.6563	1057.888	1121.0395	1128.0151	1160.0531	1160.5336	1281.3773	1312.0447	1361.9627	1378.1691	1414.2745	1468.3226	1477.1671	1479.6391	1494.3698	2232.0971	2363.9356	3026.9305	3027.5229	3063.467	3087.757	3088.5258	3104.5834	3119.1434	3197.0913	3504.8493
CC#CCN1CC1C#C	CC#CCN1C[C@H]1C#C	
InChI=1S/C8H9N/c1-3-5-6-9-7-8(9)4-2/h2,8H,6-7H2,1H3	InChI=1S/C8H9N/c1-3-5-6-9-7-8(9)4-2/h2,8H,6-7H2,1H3/t8-,9?/m1/s1
