18
gdb 103819	2.88677	1.11248	0.94889	3.3419	69.81	-0.2364	0.0169	0.2534	1266.9939	0.146044	-476.241586	-476.231945	-476.231001	-476.276079	35.672	
N	-0.4746827695	 1.2285450312	 0.0316485486	-0.535133
C	-0.1202085695	-0.0627051061	-0.1962027325	 0.456435
O	 1.0604421589	-0.3900121754	-0.3239475142	-0.417847
C	-1.2284515095	-1.046582608	-0.2534819052	-0.215709
C	-1.1048699858	-2.2062399318	-1.2500903299	-0.358253
C	-0.9077946756	-2.4774206281	 0.2033916471	 0.397138
O	 0.3478720758	-2.7785710975	 0.7005003873	-0.473502
C	-1.9632269353	-3.2172126117	 1.0101805466	-0.134553
O	-3.2860502733	-3.0003979511	 0.5503091983	-0.411259
H	 0.2535554641	 1.9197771484	 0.1044755504	 0.264655
H	-1.4332752535	 1.5147632293	 0.1188703924	 0.264795
H	-2.2339424946	-0.6929954274	-0.0532496076	 0.097683
H	-2.022696635	-2.5059899666	-1.7438277636	 0.102788
H	-0.2151358159	-2.2057511838	-1.8702273965	 0.134573
H	 0.9539999832	-2.0875891233	 0.3679627394	 0.305452
H	-1.7004442411	-4.2843145572	 1.0216668301	 0.109363
H	-1.9244333636	-2.8614871693	 2.0446923789	 0.122414
H	-3.4365617499	-3.5758459316	-0.2050513596	 0.290959
82.5554	91.6547	154.6047	162.9944	197.9571	251.2711	304.6335	333.7622	385.906	422.0232	498.8205	525.9738	587.9008	636.9315	650.3142	687.7217	771.3797	803.5017	834.8233	933.7987	991.6035	1016.6477	1044.7631	1055.5006	1075.7453	1090.579	1121.5977	1210.5083	1215.4832	1274.02	1301.9582	1388.8659	1404.9678	1438.366	1449.9032	1496.1314	1508.636	1615.2344	1733.5072	3011.35	3081.6522	3131.9236	3170.0211	3227.9032	3543.6906	3607.3301	3745.6901	3834.0137
NC(=O)C1CC1(O)CO	NC(=O)[C@H]1C[C@]1(O)CO	
InChI=1S/C5H9NO3/c6-4(8)3-1-5(3,9)2-7/h3,7,9H,1-2H2,(H2,6,8)	InChI=1S/C5H9NO3/c6-4(8)3-1-5(3,9)2-7/h3,7,9H,1-2H2,(H2,6,8)/t3-,5+/m1/s1
