18
gdb 47770	2.01471	1.65446	1.22917	2.3149	77.6	-0.2168	-0.0254	0.1914	1092.1305	0.148367	-401.931184	-401.922712	-401.921768	-401.964383	32.23	
O	 0.030440181	-0.0346438999	-0.099782189	-0.307196
C	-0.0079832198	 1.1669219165	-0.0095806281	 0.387664
C	-1.2996775345	 1.9788504399	 0.0298274956	-0.263344
N	-1.3374438484	 3.0097090741	-1.0173469662	-0.284237
C	-0.1601446994	 3.8807849838	-0.9915441152	-0.163716
C	 1.1690262421	 3.1202487678	-1.1050552259	-0.227602
C	 1.279803515	 2.0276504339	-0.0039822324	-0.239245
C	 1.4719139662	 2.6077550003	 1.321644881	 0.326228
C	 1.6129485349	 3.0858048366	 2.4162573622	-0.485391
H	-2.1485259988	 1.3002405112	-0.0805028197	 0.125075
H	-1.3777438435	 2.4756076605	 1.00542503	 0.135858
H	-1.4026051318	 2.5562849679	-1.9246161764	 0.221763
H	-0.2501605637	 4.6073885155	-1.8053753585	 0.10809
H	-0.1797810304	 4.4457095392	-0.0513929904	 0.123588
H	 1.2238926642	 2.6257900049	-2.0830535736	 0.103729
H	 2.023666747	 3.8019368563	-1.0342710219	 0.113085
H	 2.1096710914	 1.3484746092	-0.2257260117	 0.121441
H	 1.7506045584	 3.4999028822	 3.3844980902	 0.204209
78.1983	120.1657	133.0106	219.4006	314.0359	350.7267	403.7423	447.235	483.2221	528.5488	595.7439	633.1195	638.6162	700.5991	753.1158	801.1986	859.7545	872.1908	949.6386	968.6145	1011.121	1038.4796	1098.2355	1124.3888	1166.7918	1190.2361	1234.8048	1289.3849	1302.1675	1333.1271	1341.3972	1371.0288	1385.9097	1457.9289	1476.273	1484.1326	1490.4682	1825.8199	2227.9201	3025.57	3031.6328	3034.9846	3056.5703	3075.1876	3085.2299	3113.2521	3499.637	3502.9233
O=C1CNCCC1C#C	O=C1CNCC[C@H]1C#C	
InChI=1S/C7H9NO/c1-2-6-3-4-8-5-7(6)9/h1,6,8H,3-5H2	InChI=1S/C7H9NO/c1-2-6-3-4-8-5-7(6)9/h1,6,8H,3-5H2/t6-/m1/s1
