16
gdb 32303	2.75938	1.54247	0.99568	3.4827	78.61	-0.199	-0.0308	0.1682	1142.4745	0.125101	-437.904215	-437.896358	-437.895414	-437.936718	29.686	
C	-0.1293703759	 1.3514643606	-0.0160280108	-0.246211
O	-0.0617543831	-0.0591244949	 0.0787152263	-0.229363
C	 0.6505935812	-0.5804173965	 1.0939574954	 0.29137
C	 1.3213694782	 0.1085327642	 2.0513605921	-0.24063
C	 2.0385016368	-0.6078812278	 3.0731889453	-0.173489
C	 2.0281920922	-1.9472649447	 3.0568804852	 0.05316
O	 1.3644746931	-2.6582703643	 2.1095164192	-0.239044
C	 0.6480515951	-2.051198871	 1.0885763958	 0.339486
N	 0.0387028946	-2.743981326	 0.2187627122	-0.523015
H	 0.8671175088	 1.791866872	-0.1510671688	 0.126195
H	-0.7432786161	 1.5660856241	-0.891254542	 0.144555
H	-0.5963644037	 1.790642497	 0.875160434	 0.126195
H	 1.3267709634	 1.1903127037	 2.0603576313	 0.107588
H	 2.580345687	-0.0800699305	 3.8465332399	 0.109687
H	 2.5249590932	-2.5972414426	 3.7645292542	 0.131909
H	 0.1708972551	-3.7385435133	 0.4060892907	 0.221608
97.4514	125.9085	227.655	235.4261	289.4306	360.2739	437.5405	502.0187	546.6496	554.8168	560.3828	758.3503	762.1669	768.7508	852.6459	877.0096	892.4137	906.685	974.874	1058.0081	1072.9969	1118.7221	1177.7235	1212.1439	1248.1784	1271.8825	1304.4097	1402.2869	1433.3764	1479.2312	1490.4101	1505.7312	1622.7573	1680.6271	1732.2925	3004.6154	3064.3311	3144.3763	3212.1036	3221.5332	3238.2087	3486.5825
COC1=CC=COC1=N	COC1=C(OC=CC1)[NH]	
InChI=1S/C6H7NO2/c1-8-5-3-2-4-9-6(5)7/h2-4,7H,1H3	InChI=1S/C6H8NO2/c1-8-5-3-2-4-9-6(5)7/h2,4,7H,3H2,1H3
