18
gdb 51330	4.05931	1.15512	1.06115	3.7448	75.25	-0.2328	-0.0191	0.2137	1152.1538	0.147771	-401.872531	-401.864897	-401.863953	-401.90573	29.036	
O	 0.190849408	-0.1775001811	-0.1462542269	-0.243873
C	 0.079452656	 1.0178369668	-0.2341588466	 0.182085
C	 1.1896935326	 2.0070540332	 0.0527254661	-0.330077
C	 1.3831367264	 2.9832269443	-1.1082460252	 0.050679
C	 2.6413263484	 3.8185917773	-1.2681632528	-0.113217
C	 3.637186588	 2.9434161066	-2.061683584	-0.085589
C	 2.9208479909	 1.6329117146	-2.3337353419	-0.183762
N	 1.6274144533	 2.4101135353	-2.5024007861	-0.181464
C	 2.5131700175	 3.6552767066	-2.752974062	-0.025978
H	-0.8848748778	 1.4837614764	-0.5421470802	 0.077035
H	 0.8952266043	 2.5944980869	 0.9344789216	 0.122181
H	 2.0978010006	 1.4585651286	 0.3092011077	 0.125491
H	 0.4940403536	 3.6168746573	-1.1993997509	 0.087777
H	 2.9748214153	 4.6877861016	-0.7144768966	 0.092485
H	 4.6932836306	 3.1820635816	-2.081251891	 0.094328
H	 3.1917539484	 1.2107100165	-3.3045963065	 0.114672
H	 2.8990033852	 0.8338086229	-1.5874718963	 0.113459
H	 2.4302445687	 4.3344740844	-3.5886793282	 0.103768
40.2643	89.6475	154.8502	261.9783	349.6897	458.5522	495.1223	595.4729	693.7904	750.9703	792.7558	807.7442	811.594	828.1156	862.6154	922.5975	939.8946	980.4458	1003.5681	1020.6071	1031.7995	1038.8548	1080.627	1091.6898	1120.1462	1126.2236	1170.0281	1186.7846	1206.8224	1239.106	1268.6601	1294.3701	1301.8027	1363.2922	1407.8036	1428.7427	1461.3647	1526.4139	1833.6944	2867.811	3018.9623	3043.688	3058.5134	3107.279	3120.8706	3186.4986	3194.2241	3227.6892
O=CCC1C2C3CN1C23	O=CC[C@H]1[C@H]2[C@H]3CN1[C@@H]23	
InChI=1S/C7H9NO/c9-2-1-5-6-4-3-8(5)7(4)6/h2,4-7H,1,3H2	InChI=1S/C7H9NO/c9-2-1-5-6-4-3-8(5)7(4)6/h2,4-7H,1,3H2/t4-,5+,6-,7-/m1/s1
