15
gdb 124186	5.11529	0.77862	0.68144	4.1891	74.39	-0.2599	-0.0379	0.222	1577.2139	0.111022	-416.763251	-416.75444	-416.753496	-416.79914	29.915	
C	 0.2557956874	 1.3389545914	-0.7607620226	-0.497875
C	 0.0828932029	-0.0083846009	-0.2360384963	 0.081477
C	-0.0467688045	-1.12076386	 0.2046477785	 0.054398
C	-0.2072077158	-2.4702020384	 0.7374435613	-0.471637
C	-1.4881693088	-3.1228963267	 0.3085578851	 0.260351
C	-2.5093172792	-2.6904378524	-0.4742109581	-0.024882
O	-3.4305232895	-3.6484187827	-0.5565869635	-0.166762
N	-2.9421376835	-4.7381089477	 0.2262905082	-0.007638
N	-1.8297867933	-4.3993057137	 0.7042312146	-0.176347
H	 1.2004928338	 1.7756036296	-0.4191338556	 0.154785
H	 0.2666036425	 1.342238703	-1.8560839873	 0.151244
H	-0.5526570573	 2.0015116581	-0.4332288599	 0.151229
H	 0.635617104	-3.1016995231	 0.4263186469	 0.157467
H	-0.1679392924	-2.4500939081	 1.8347097035	 0.157467
H	-2.6911016964	-1.7707824782	-1.0034620848	 0.176722
25.1834	41.9563	73.2865	200.6931	234.4564	261.0314	338.1096	378.4872	450.8527	631.539	637.615	700.1847	726.7498	780.1731	850.1726	956.6672	987.4955	1045.0075	1052.8937	1054.4821	1141.1954	1167.6691	1223.2918	1223.3705	1303.2238	1367.5629	1415.5103	1464.0938	1466.3524	1477.9383	1478.7166	1625.5296	2379.4299	3017.6364	3030.0922	3041.0053	3091.6291	3092.6917	3299.2106
CC#CCC1=CON=N1	CC#CCc1conn1	
InChI=1S/C6H6N2O/c1-2-3-4-6-5-9-8-7-6/h5H,4H2,1H3	InChI=1S/C6H6N2O/c1-2-3-4-6-5-9-8-7-6/h5H,4H2,1H3
