15
gdb 31098	2.36519	1.49071	0.92321	1.7713	65.81	-0.1807	0.0359	0.2165	1202.1551	0.111892	-491.096316	-491.087324	-491.08638	-491.130686	31.949	
C	 0.0461684383	 1.4292358296	-0.0115941152	-0.23368
O	-0.0237209315	 0.0076278825	-0.0290294871	-0.274293
C	 0.5699529011	-0.6011076799	-1.0714814597	 0.26073
C	 0.6828308498	-1.9370348649	-1.2600414717	 0.183387
O	 0.4082998752	-3.0341624676	-0.5366282134	-0.412356
O	 1.3641524998	-2.1119744015	-2.4755682744	-0.199579
C	 1.5914887434	-0.8610754103	-2.9035346106	 0.458824
N	 2.1853425593	-0.721679676	-4.1352206867	-0.584895
N	 1.1563697868	 0.0862311521	-2.126456933	-0.423871
H	 1.0838362016	 1.7776727831	 0.0227658339	 0.127967
H	-0.438125092	 1.8642656102	-0.8917066279	 0.13116
H	-0.4787199164	 1.7388080504	 0.8936453831	 0.126525
H	-0.4284874582	-3.4218545103	-0.8241983633	 0.3071
H	 2.8357751209	-1.4578792138	-4.3702930029	 0.26431
H	 2.5625532819	 0.2035423864	-4.280142001	 0.268672
33.2248	152.6604	192.4478	204.5951	231.1447	272.7034	279.9322	316.2949	379.6518	398.3657	602.5981	609.4939	629.7561	664.1897	679.1197	756.7842	851.4161	1028.9168	1033.6465	1122.3605	1149.265	1179.3026	1205.7111	1236.5808	1292.8656	1398.2262	1446.2041	1481.5236	1492.9522	1504.7716	1603.0679	1675.5108	1765.3197	3030.7044	3096.4305	3139.1353	3568.7507	3677.048	3732.3655
COC1=C(O)OC(N)=N1	COc1c(O)oc(N)n1	
InChI=1S/C4H6N2O3/c1-8-2-3(7)9-4(5)6-2/h7H,1H3,(H2,5,6)	InChI=1S/C4H6N2O3/c1-8-2-3(7)9-4(5)6-2/h7H,1H3,(H2,5,6)
