12
gdb 125793	2.05803	1.99994	1.02074	4.8438	69.71	-0.2533	-0.1	0.1533	1053.6482	0.076389	-468.793386	-468.785685	-468.784741	-468.825983	27.193	
C	-0.0062284915	 1.377510551	 0.1929093268	-0.503885
C	-0.008938118	-0.1037132056	 0.0283099625	 0.335449
N	-0.0532530978	-0.6633286358	-1.1380599748	-0.159768
O	-0.0432154471	-2.0652690323	-0.9676167104	-0.236819
C	 0.0099488147	-2.4147220543	 0.3669399532	 0.475751
C	 0.0335849135	-1.1149554391	 1.0524569298	 0.047883
N	 0.0840560597	-0.9651662115	 2.3436848992	 0.110018
N	 0.1272534437	-0.866367988	 3.4677682056	-0.186184
O	 0.0283688487	-3.54245684	 0.7654733796	-0.35306
H	 0.897054235	 1.713199814	 0.7132253745	 0.149826
H	-0.0433139119	 1.8494193927	-0.7901778815	 0.170839
H	-0.8706366791	 1.7091905489	 0.7778523256	 0.149951
115.5639	130.585	159.1888	199.0921	278.9639	347.0759	447.0205	536.9872	545.3409	597.39	608.4665	677.2428	746.9884	771.3352	907.1478	1012.2136	1055.1946	1063.3459	1127.2061	1339.3776	1414.9025	1464.005	1477.6153	1487.8778	1621.327	1870.561	2239.6449	3041.7238	3099.5023	3148.0591
CC1=NOC2=C1N=NO2	CC1=NOC(=O)[C]1[N][N]	
InChI=1S/C4H3N3O2/c1-2-3-4(8-6-2)9-7-5-3/h1H3	InChI=1S/C4H3N3O2/c1-2-3(6-5)4(8)9-7-2/h1H3
