18
gdb 51364	4.244	0.92848	0.8723	1.3157	76.51	-0.2298	-0.0277	0.2022	1336.8583	0.146769	-401.849931	-401.841904	-401.84096	-401.883538	30.24	
O	-0.7058488242	 1.8303502235	 1.588746564	-0.233302
C	-0.3390322676	 1.9047673449	 0.4466124359	 0.14719
C	 1.1064122663	 1.8021252383	-0.0078590322	-0.330879
C	 1.4250694208	 2.8623780009	-1.0627939399	-0.019498
C	 2.4277151743	 3.981028595	-1.0240873113	-0.106857
C	 3.8747751438	 3.5377793524	-0.7282408436	-0.03369
C	 4.1208269623	 2.0852852358	-0.5770303958	-0.248844
N	 3.9180903588	 2.63275788	-1.9308697028	-0.138091
C	 2.462561078	 2.9769825054	-2.1630493401	-0.04787
H	-1.0714453419	 2.049313189	-0.3840483053	 0.075644
H	 1.7336866457	 1.871177109	 0.8821161397	 0.140637
H	 1.223532751	 0.7924390562	-0.4292731209	 0.136508
H	 0.5004966223	 3.2498033497	-1.4985014791	 0.097394
H	 2.1502941174	 5.0271151935	-1.0404499282	 0.09909
H	 4.6623905096	 4.2674368217	-0.5704159654	 0.105078
H	 5.1572818084	 1.7973042592	-0.4191502262	 0.125565
H	 3.4068558374	 1.4032950665	-0.1422302783	 0.126714
H	 2.1670040474	 3.0815669091	-3.1998573704	 0.105211
49.1259	76.7608	171.3072	195.1084	299.4908	399.1933	462.8745	506.5866	667.6109	676.8721	707.3945	730.9945	754.6362	803.3877	879.3396	896.639	924.5227	962.9152	1008.5978	1019.2507	1052.7848	1066.3433	1071.4932	1074.6895	1100.3897	1121.1084	1141.4402	1207.1027	1233.3924	1247.1276	1273.4509	1280.6709	1338.0268	1366.1308	1427.3508	1455.8792	1458.1744	1503.8857	1840.7189	2842.6098	3005.042	3072.5103	3117.3134	3133.2719	3161.0679	3181.0725	3195.4179	3263.2108
O=CCC1C2C3CN3C12	O=CC[C@H]1[C@H]2[C@H]3CN3[C@@H]12	
InChI=1S/C7H9NO/c9-2-1-4-6-5-3-8(5)7(4)6/h2,4-7H,1,3H2	InChI=1S/C7H9NO/c9-2-1-4-6-5-3-8(5)7(4)6/h2,4-7H,1,3H2/t4-,5+,6-,7-,8?/m0/s1
