21
gdb 79161	2.56417	1.82714	1.33332	0.8669	90.07	-0.1943	-0.0224	0.1719	1046.8784	0.18232	-349.862759	-349.854648	-349.853704	-349.894892	32.817	
C	-0.6059268073	 1.2445887678	 0.191724992	-0.402574
C	-0.0725549072	-0.1676218721	-0.0774480196	-0.071889
C	 0.9678556324	-0.2693594751	-1.2121730501	-0.041351
C	 2.5437266526	-0.2344924705	-1.0034793931	-0.068717
C	 3.1365925231	-0.5293177248	 0.4195408446	-0.261119
C	 1.8572424447	-1.3863913902	 0.5434998014	-0.054383
C	 1.7463180976	-1.506953721	-0.9875188172	-0.118759
C	 0.7902079977	-0.7320903599	 1.066220339	 0.260727
C	 0.7514655178	-0.1929929047	 2.4613071391	-0.476398
H	 0.2045730484	 1.9415663869	 0.4271243251	 0.120321
H	-1.1164116802	 1.6218636467	-0.7004545364	 0.114123
H	-1.325190224	 1.2612187074	 1.0167727894	 0.114442
H	-0.9311324871	-0.8018683532	-0.3506704809	 0.077448
H	 0.6815652097	 0.0237981383	-2.2221974496	 0.070986
H	 3.139147292	 0.1345893712	-1.8364822594	 0.082369
H	 4.0835703312	-1.0706212205	 0.3058089882	 0.100755
H	 3.2621754407	 0.2851992279	 1.1401423717	 0.095436
H	 1.8317223374	-2.3981279126	-1.5956927252	 0.083012
H	 1.6484321892	-0.4866608168	 3.0139191562	 0.124601
H	 0.6563558547	 0.8982277628	 2.4983955245	 0.123167
H	-0.1121138834	-0.5948800876	 3.0093191202	 0.127802
109.2137	150.9127	217.4054	278.4265	285.2329	314.9299	424.5667	468.6968	537.3052	585.6016	603.602	712.9303	745.607	763.283	806.1549	848.2073	896.6118	934.9265	961.6004	968.7414	1000.0236	1023.0902	1033.1534	1037.9187	1049.4569	1085.1443	1095.3877	1102.7189	1123.0263	1135.9607	1209.6401	1231.7577	1243.9865	1276.7852	1285.3172	1331.6887	1372.114	1401.1821	1409.5804	1465.5588	1481.8448	1498.5143	1503.5017	1505.1115	1603.6903	2963.3672	3011.8465	3019.7107	3032.2979	3059.4372	3077.2955	3099.1372	3106.2894	3108.764	3112.7043	3126.3951	3191.8752
CC1C2C3CC(C23)=C1C	C[C@H]1[C@H]2[C@H]3C[C]([C@@H]23)[C]1C	
InChI=1S/C9H12/c1-4-5(2)8-7-3-6(4)9(7)8/h5,7-9H,3H2,1-2H3	InChI=1S/C9H12/c1-4-5(2)8-7-3-6(4)9(7)8/h5,7-9H,3H2,1-2H3/t5-,7-,8+,9-/m1/s1
