15
gdb 74170	2.60785	1.41176	1.00551	5.572	75.58	-0.2285	-0.0083	0.2202	1140.1805	0.112982	-416.82034	-416.812019	-416.811075	-416.853156	31.768	
N	 0.0896065684	 1.3390042086	 0.0912897716	-0.582955
C	-0.0473736824	-0.020718397	 0.0322693949	 0.380883
C	-1.1353189571	-0.8098511235	 0.0792097451	-0.362882
C	-0.7249953801	-2.2245256096	 0.023296888	 0.428726
O	-1.4086171606	-3.2205871812	-0.0621845077	-0.386031
N	 0.6761582876	-2.2252807516	 0.0903852544	-0.34595
C	 1.2183143529	-0.881303663	-0.0043261282	-0.212102
C	 2.0245448725	-0.6301982295	-1.200628393	 0.322673
C	 2.699688449	-0.4061415166	-2.1695498962	-0.472003
H	 0.9091372551	 1.7187307627	-0.3618801591	 0.262133
H	-0.7445889953	 1.8819717986	-0.0735652325	 0.263517
H	-2.1710095992	-0.5071707681	 0.119514797	 0.108009
H	 1.1793992944	-3.0074952509	-0.2975744124	 0.25276
H	 1.8283304884	-0.6420858504	 0.8802350568	 0.13281
H	 3.2925852065	-0.2247877086	-3.0325089488	 0.210412
86.2663	133.2259	175.7317	268.8242	320.7609	391.2372	416.0638	438.9998	464.7116	547.0491	562.1045	602.6277	635.197	647.1297	673.8752	725.275	742.8963	834.6122	883.1169	945.5727	1012.0217	1089.3443	1128.397	1195.2648	1242.032	1296.1576	1341.1602	1371.5326	1406.9959	1643.7635	1708.1329	1823.9761	2233.7217	2986.4139	3246.3562	3497.6752	3562.0655	3645.2	3668.0941
NC1=CC(=O)NC1C#C	NC1=CC(=O)N[C@H]1C#C	
InChI=1S/C6H6N2O/c1-2-5-4(7)3-6(9)8-5/h1,3,5H,7H2,(H,8,9)	InChI=1S/C6H6N2O/c1-2-5-4(7)3-6(9)8-5/h1,3,5H,7H2,(H,8,9)/t5-/m0/s1
