15
gdb 99471	1.92388	1.31527	1.21127	1.8135	69.06	-0.2504	-0.0992	0.1512	1160.2846	0.107215	-457.715555	-457.705531	-457.704586	-457.751404	33.62	
C	-0.6666824212	 0.0845941064	-0.6830281613	-0.236932
O	 0.682603592	-0.1789122857	-0.3396461336	-0.237306
C	 0.959101646	-0.0480549885	 1.0381287058	-0.124361
C	 0.273614515	-1.0225533415	 1.8914888929	 0.323585
C	-0.2815042445	-1.8059118277	 2.6145024003	-0.465803
C	 2.4864743955	-0.1995129209	 1.1730839258	 0.29961
O	 3.1780219088	 0.6156960892	 1.7263022568	-0.272188
C	 3.1526720843	-1.4554266082	 0.5880829863	 0.09065
O	 2.5620592751	-2.4370913294	 0.2346698733	-0.198905
H	-0.9579584077	 1.1079349508	-0.403307763	 0.111717
H	-0.7381308441	-0.0252273208	-1.7665351542	 0.138731
H	-1.3502647453	-0.6241340715	-0.1992438357	 0.129546
H	 0.7216977593	 0.9680309372	 1.3911004922	 0.119194
H	-0.7682192084	-2.5084595688	 3.2458555034	 0.211441
H	 4.2595203053	-1.3604028205	 0.5750467709	 0.11102
58.0691	81.8078	108.5413	118.7741	145.4667	175.454	225.0564	255.7526	359.9688	428.6932	478.5169	543.1885	598.2179	615.6691	635.5006	692.4502	863.9757	955.8039	971.3505	1036.7096	1135.5198	1181.174	1199.2439	1244.6463	1288.3371	1347.3596	1373.5499	1476.6631	1484.8345	1507.9945	1820.6392	1834.7899	2228.2721	2917.5011	2984.8652	2993.7961	3060.5302	3134.0149	3499.3136
COC(C#C)C(=O)C=O	CO[C@@H](C#C)C(=O)C=O	
InChI=1S/C6H6O3/c1-3-6(9-2)5(8)4-7/h1,4,6H,2H3	InChI=1S/C6H6O3/c1-3-6(9-2)5(8)4-7/h1,4,6H,2H3/t6-/m0/s1
