12
gdb 129343	5.78594	1.0196	0.86684	2.8766	67.19	-0.2699	-0.1005	0.1695	1210.2631	0.076805	-464.923079	-464.915685	-464.914741	-464.956105	25.496	
N	-0.1796438181	 1.3181745674	 0.0109494227	-0.402341
C	-0.0026527177	 0.0773313629	 0.0027144017	 0.108261
O	-1.1416606425	-0.7117613598	 0.0068239925	-0.218456
C	-1.0409783734	-2.0499474964	-0.0010880275	 0.496626
C	-2.2300232663	-2.7945073315	 0.0031038175	-0.033295
N	-2.1708277071	-4.1061498518	-0.0042082226	-0.155851
N	-0.9629317185	-4.6995165956	-0.0155671561	-0.055418
N	 0.1341637266	-4.0009658956	-0.0193249822	-0.051235
N	 0.1241946035	-2.6618154889	-0.0121926952	-0.274852
H	 0.7176916563	 1.8004184355	 0.0070870784	 0.252193
H	 0.9204733689	-0.4989335081	-0.0071535245	 0.167881
H	-3.2061876316	-2.3195047983	 0.0122867052	 0.166486
60.5524	80.9823	180.2521	180.3372	345.5113	413.5149	474.808	554.7308	661.5079	720.048	826.4108	847.2236	860.1828	956.2439	964.5483	1022.2417	1065.5073	1065.8001	1105.6504	1215.4012	1243.9696	1317.6002	1387.0768	1422.3537	1540.6805	1579.8759	1752.3079	3162.236	3187.3221	3518.4501
N=COC1=CN=NN=N1	[NH][CH]Oc1cnnnn1	
InChI=1S/C3H3N5O/c4-2-9-3-1-5-7-8-6-3/h1-2,4H	InChI=1S/C3H3N5O/c4-2-9-3-1-5-7-8-6-3/h1-2,4H
