17
gdb 24227	4.02774	1.54452	1.21751	2.5436	78.52	-0.1921	0.0399	0.232	1000.6327	0.140221	-380.873922	-380.867355	-380.866411	-380.904599	27.164	
C	 0.0656604293	 1.4829693018	-0.0354221953	-0.234774
C	 1.3224149565	 0.6814574038	 0.017887269	-0.184304
N	-0.0197776957	 0.0177016233	-0.032421556	-0.10152
C	-0.1881866909	-0.6109789939	-1.3737840375	-0.293086
C	 1.0942474712	-0.2796074505	-2.0796474836	 0.261155
C	 1.9682388422	 0.4239272267	-1.2922647471	 0.332774
C	 3.1406371633	 0.6720050715	-2.0554318263	-0.348976
C	 2.9225638326	 0.1070881249	-3.2957874146	-0.06957
N	 1.6639951448	-0.4646783472	-3.3072313112	-0.371411
H	-0.3332219101	 1.9536075237	 0.860383822	 0.110274
H	-0.1324185678	 2.0168073068	-0.9632100631	 0.107377
H	 1.8731563399	 0.5829585433	 0.9492900083	 0.092853
H	-0.3420862894	-1.6898446063	-1.2369664996	 0.113462
H	-1.0887147122	-0.2155599302	-1.8606751502	 0.112646
H	 4.0330797668	 1.1996317237	-1.7558923952	 0.095676
H	 3.5548692564	 0.0601673438	-4.168162906	 0.117063
H	 1.2707045532	-0.9719020849	-4.0804306937	 0.26036
150.6614	216.194	346.2122	413.9737	445.9373	462.3081	595.6324	629.1484	683.6171	695.1448	710.2663	738.7189	797.7577	817.4512	833.8088	932.65	961.6283	1011.419	1031.715	1065.6845	1085.5604	1095.4456	1112.6217	1150.9391	1164.0001	1202.5054	1242.1602	1256.4459	1298.8432	1316.7957	1383.913	1456.3832	1480.6124	1489.9774	1504.1086	1524.4631	1601.4328	3005.1159	3037.7244	3088.6756	3142.9979	3176.9098	3244.7318	3266.3925	3681.2126
C1C2N1CC1=C2C=CN1	C1[C@H]2N1Cc1c2cc[nH]1	
InChI=1S/C7H8N2/c1-2-8-6-3-9-4-7(9)5(1)6/h1-2,7-8H,3-4H2	InChI=1S/C7H8N2/c1-2-8-6-3-9-4-7(9)5(1)6/h1-2,7-8H,3-4H2/t7-,9?/m1/s1
