21
gdb 101890	5.95331	0.51798	0.49429	3.6447	77.09	-0.257	-0.0278	0.2293	2163.3485	0.177968	-461.353488	-461.342126	-461.341182	-461.391774	38.181	
C	-0.0149532246	 1.5624122349	 0.0559281638	-0.386953
C	 0.0513339647	 0.0325631367	-0.0089556731	 0.012887
C	 0.754633883	-0.4493036816	-1.2786725401	-0.078572
O	 0.0032964169	 0.0017447154	-2.3948924798	-0.421379
C	 0.735618528	-0.5586061967	 1.2217833906	-0.05964
O	-0.017661604	-0.2193626781	 2.3708668249	-0.250416
C	 0.5428909009	-0.6825084958	 3.5692343607	-0.143581
C	-0.3568794331	-0.2493252058	 4.7139725491	 0.13898
O	-0.1326332458	-0.4968668073	 5.8685087624	-0.237716
H	 0.9941656675	 1.9920851533	 0.092423185	 0.102744
H	-0.5184400742	 1.9582708129	-0.8280611353	 0.133441
H	-0.5523269475	 1.8879733486	 0.9491405342	 0.124384
H	-0.9714394911	-0.3651064804	-0.0363701895	 0.095493
H	 1.783474989	-0.0517581849	-1.3055527078	 0.084147
H	 0.8272565006	-1.5492556543	-1.2714079415	 0.083614
H	 0.4756371922	-0.2427084465	-3.1956467236	 0.288192
H	 0.8123486379	-1.6558770736	 1.1354773682	 0.087497
H	 1.7636377823	-0.1666059279	 1.3172045243	 0.08754
H	 0.6342257667	-1.7824167235	 3.5888992963	 0.120632
H	 1.5544046517	-0.2756344759	 3.7408108269	 0.121258
H	-1.251174991	 0.3235279605	 4.3833340844	 0.097446
40.1339	57.1493	82.1708	90.094	122.1927	130.9835	221.3546	227.1977	247.9414	277.6603	314.2547	407.3374	445.7198	519.4916	587.6073	741.6661	848.7788	926.6828	937.6422	961.8591	1010.7601	1062.2724	1081.0761	1114.348	1124.6984	1171.344	1175.1497	1181.8698	1234.3495	1245.0993	1266.4594	1287.3108	1317.3809	1347.4233	1384.363	1397.4468	1402.7762	1436.7944	1463.2974	1481.4543	1497.6344	1501.1603	1518.5947	1526.7119	1845.4863	2900.0426	2942.7742	2954.4853	2959.5334	2973.1779	2983.2516	2985.4463	3028.6638	3040.2395	3110.1186	3142.3446	3835.5625
CC(CO)COCC=O	C[C@@H](CO)COCC=O	
InChI=1S/C6H12O3/c1-6(4-8)5-9-3-2-7/h2,6,8H,3-5H2,1H3	InChI=1S/C6H12O3/c1-6(4-8)5-9-3-2-7/h2,6,8H,3-5H2,1H3/t6-/m0/s1
