18
gdb 45308	3.59732	1.34813	1.13778	3.9723	76.27	-0.2339	0.0105	0.2444	1085.4695	0.151143	-402.012167	-402.004916	-402.003972	-402.044259	28.612	
O	 0.1177469215	-0.0073458033	-0.5745438997	-0.379725
C	 0.0624832077	 1.1562462672	-0.2424467534	 0.403278
C	-1.0942132041	 1.8617461067	 0.4724433433	-0.347435
C	-0.7568779528	 3.3664057296	 0.4657678688	-0.017385
C	-0.8844191528	 4.0732320278	 1.8386207308	-0.278934
C	 0.5319777005	 4.0885247659	 2.3631321623	-0.055623
C	 1.4244319577	 3.7367772582	 1.4405519588	-0.078239
C	 0.7695059712	 3.4128370116	 0.113483917	-0.036346
N	 1.0444427058	 2.0916353317	-0.4251491315	-0.304287
H	-2.0386137327	 1.6188299548	-0.0186443253	 0.129889
H	-1.1474110043	 1.4567558009	 1.4891792517	 0.130919
H	-1.3427028197	 3.8744122955	-0.3024820968	 0.082815
H	-1.2703402851	 5.0959547619	 1.733318599	 0.110808
H	-1.5787905786	 3.5546315685	 2.5101616211	 0.10978
H	 0.7698922961	 4.3833768637	 3.3797901668	 0.099815
H	 2.4992424375	 3.6996523119	 1.5807161519	 0.09621
H	 1.0068652114	 4.1760707229	-0.639612807	 0.086911
H	 1.9350670706	 1.8216137347	-0.8116217678	 0.247549
80.54	93.5394	278.7777	331.5551	456.1257	464.0497	499.584	542.2863	604.357	679.4538	712.021	779.8546	792.0419	852.4299	877.0189	907.6491	936.3138	961.227	982.0389	1025.82	1050.5774	1081.0187	1090.1274	1131.4721	1159.6104	1211.7895	1230.8145	1255.3065	1283.8653	1304.8083	1320.1561	1347.192	1363.1172	1382.1316	1437.8083	1467.8599	1492.7383	1687.0612	1828.752	3006.748	3018.4992	3051.8117	3056.7623	3085.5723	3116.1913	3179.7577	3205.3396	3640.7336
O=C1CC2CC=CC2N1	O=C1C[C@H]2CC=C[C@H]2N1	
InChI=1S/C7H9NO/c9-7-4-5-2-1-3-6(5)8-7/h1,3,5-6H,2,4H2,(H,8,9)	InChI=1S/C7H9NO/c9-7-4-5-2-1-3-6(5)8-7/h1,3,5-6H,2,4H2,(H,8,9)/t5-,6-/m1/s1
