21
gdb 68352	2.79381	1.70882	1.27766	0.5031	89.26	-0.2066	-0.0261	0.1806	1061.5511	0.185161	-349.960897	-349.953257	-349.952313	-349.99225	32.058	
C	-0.0278923476	 1.5617076954	-0.0081468518	-0.480229
C	 0.0120380189	 0.0389296639	 0.0020560936	 0.283019
C	 1.1092848136	-0.6475228939	-0.878203713	-0.250398
C	 1.3437686501	-1.6927361187	 0.2575180339	-0.062898
C	 0.7105324733	-0.6438995475	 1.225122345	-0.250398
C	 0.5267120248	-2.9444971618	 0.1047470889	-0.09276
C	-0.792107019	-2.987547507	-0.1451988689	-0.073184
C	-1.6846601748	-1.8441263519	-0.3163385339	-0.093333
C	-1.3588562112	-0.5424147341	-0.2568123231	-0.107363
H	 0.9641512929	 1.9844541931	 0.179199726	 0.106621
H	-0.3790252	 1.9401239374	-0.9756153134	 0.11548
H	-0.708528666	 1.943131229	 0.7623974083	 0.115479
H	 0.81177107	-1.0231278523	-1.858898938	 0.103411
H	 1.9776596807	 0.0086907387	-0.9807518191	 0.09421
H	 2.3869880246	-1.94523457	 0.4557350803	 0.061472
H	 1.4815380115	 0.0131937874	 1.6362020964	 0.09421
H	 0.0744762125	-1.0164150307	 2.0301199322	 0.103411
H	 1.0581514859	-3.8871596128	 0.207075773	 0.08634
H	-1.2615903652	-3.9641421794	-0.2325542463	 0.083125
H	-2.7252929592	-2.0901348908	-0.5131658269	 0.083121
H	-2.1545746159	 0.1837689262	-0.408873053	 0.080664
178.7482	234.2811	255.3092	273.2031	352.2705	356.8315	398.1014	464.3902	552.4672	618.2923	638.8051	714.9237	787.069	812.0634	824.6147	838.1755	845.9828	901.5873	930.0304	965.3914	976.3725	999.255	1000.5434	1002.0857	1053.2299	1088.6073	1130.3853	1141.1205	1183.1602	1208.2603	1243.2534	1254.2518	1259.8717	1275.4612	1304.2346	1368.9217	1409.1155	1419.4694	1450.8022	1468.3746	1487.1864	1492.6987	1500.955	1657.6967	1699.8629	3019.646	3055.5223	3059.4865	3082.4718	3083.3171	3098.8722	3122.0947	3123.4243	3135.514	3145.599	3159.9046	3172.5809
CC12CC(C1)C=CC=C2	C[C@@]12C[C@@H](C1)C=CC=C2	
InChI=1S/C9H12/c1-9-5-3-2-4-8(6-9)7-9/h2-5,8H,6-7H2,1H3	InChI=1S/C9H12/c1-9-5-3-2-4-8(6-9)7-9/h2-5,8H,6-7H2,1H3/t8-,9+
