20
gdb 79760	2.69103	1.91101	1.78255	1.6611	79.52	-0.2293	0.0806	0.3099	911.9155	0.174928	-366.003439	-365.996735	-365.995791	-366.034101	28.471	
C	-0.2106318046	 1.5529858726	 0.0279576511	-0.404386
C	 0.0066072488	 0.0349674217	-0.0095775149	 0.004286
C	 0.6344612279	-0.5257702018	-1.27868949	-0.079493
C	 2.1378355626	-0.4158204371	-1.4536865656	-0.07266
C	 2.9407870621	 0.2449750141	-0.3464790531	-0.252295
C	 2.3936377048	-0.4086915014	 0.909879965	-0.038432
C	 0.9211071757	-0.5165822236	 1.0758052958	-0.052444
N	 1.6967237157	-1.6857658723	 0.5792511427	-0.132577
C	 1.5278187981	-1.6773365072	-0.8840378274	-0.037177
H	 0.7240475191	 2.1021166528	-0.1118580333	 0.121191
H	-0.902694438	 1.8661606761	-0.7606214553	 0.114425
H	-0.6413623967	 1.8620115141	 0.9862688034	 0.114644
H	-0.9729033651	-0.4482857837	 0.113629152	 0.078258
H	 0.0306728798	-0.5740115177	-2.1788759321	 0.081528
H	 2.522432653	-0.3952717037	-2.467407844	 0.083692
H	 4.0043237283	 0.0039326685	-0.4595542383	 0.106267
H	 2.8553805256	 1.3364497014	-0.3280375186	 0.107597
H	 3.0244029764	-0.4349825724	 1.7943780673	 0.085567
H	 0.5145332764	-0.6154304317	 2.0794423539	 0.082862
H	 1.5438955901	-2.6429735784	-1.3718848086	 0.089148
185.5268	199.5431	243.0573	346.3949	494.3804	520.2452	639.6756	660.3757	704.614	732.3157	751.3669	792.4447	801.1807	852.1981	870.889	906.7305	943.3006	971.747	996.3904	1024.1099	1050.2437	1057.5255	1066.9653	1076.3587	1101.3289	1105.4524	1120.2146	1138.2169	1151.2299	1195.7887	1224.0932	1283.9541	1296.1723	1311.176	1330.8719	1346.9086	1386.1076	1405.4483	1410.6317	1426.7176	1489.903	1496.3524	1503.8721	3002.5937	3035.6507	3037.9798	3073.2688	3097.1257	3120.7546	3130.8874	3145.1805	3159.7107	3170.9407	3198.508
CC1C2C3CC4C1N4C23	C[C@H]1[C@H]2[C@H]3C[C@H]4[C@@H]1N4[C@@H]23	
InChI=1S/C8H11N/c1-3-6-4-2-5-7(3)9(5)8(4)6/h3-8H,2H2,1H3	InChI=1S/C8H11N/c1-3-6-4-2-5-7(3)9(5)8(4)6/h3-8H,2H2,1H3/t3-,4+,5-,6-,7+,8+,9?/m0/s1
