21
gdb 114369	2.42679	1.15646	0.9248	3.4618	83.95	-0.2368	-0.019	0.2179	1353.5606	0.182019	-387.071721	-387.06266	-387.061716	-387.105953	34.011	
C	-0.2036350138	 1.7938024417	 0.5238038329	-0.379516
C	-0.0219220349	 0.2950842358	 0.2593156748	-0.205025
C	 0.475602687	-0.4611356694	 1.4880699691	 0.048339
C	-0.4283056907	-0.6616996437	 2.7582253827	-0.273087
C	-0.0906911048	-2.1621622422	 2.7306601599	-0.082903
C	-0.5589822169	-2.8352008402	 1.4557532924	-0.089567
C	-1.843046794	-2.5598613975	 0.7662480493	 0.139327
O	-2.428703072	-3.3854078467	 0.1050948246	-0.272589
C	 0.7074994474	-1.9784406621	 1.4527272776	-0.111937
H	 0.7388279437	 2.258388719	 0.8347728423	 0.11454
H	-0.5528324178	 2.3155741077	-0.3721118773	 0.116829
H	-0.9369501778	 1.9714621985	 1.3181138803	 0.11867
H	-0.9661616559	-0.1291336942	-0.0989764401	 0.100314
H	 0.7004886546	 0.1497227962	-0.5546801377	 0.100494
H	 1.4118451386	 0.0059458232	 1.8165862752	 0.081554
H	-0.0289923862	-0.1575935997	 3.6402735178	 0.110838
H	-1.4847922966	-0.3945811915	 2.6676230752	 0.106494
H	 0.1438446753	-2.7635117283	 3.6006394156	 0.098841
H	-0.3146078596	-3.8935317667	 1.4105248623	 0.108783
H	-2.2728328896	-1.546726786	 0.9063265508	 0.07341
H	 1.6345477741	-2.4547325238	 1.1540906325	 0.096192
67.0879	87.9104	146.4188	202.6956	222.4833	258.6454	307.6501	376.5335	421.6512	470.3626	561.5817	685.3815	766.2517	779.0353	806.3496	824.1052	911.46	947.059	956.2665	989.8108	1003.7799	1017.0648	1033.561	1051.32	1079.7413	1089.768	1125.1672	1135.3313	1194.0282	1215.6335	1237.2321	1263.9282	1291.5775	1296.9831	1322.925	1348.2081	1380.8437	1398.7202	1411.683	1457.4314	1484.8968	1499.6827	1501.2932	1506.9675	1803.3914	2913.9027	3025.2211	3027.639	3031.1711	3063.0527	3067.8657	3098.2737	3106.2857	3113.8897	3151.1145	3171.5257	3187.4337
CCC1CC2C(C=O)C12	CC[C@H]1C[C@H]2[C@@H](C=O)[C@@H]12	
InChI=1S/C8H12O/c1-2-5-3-6-7(4-9)8(5)6/h4-8H,2-3H2,1H3	InChI=1S/C8H12O/c1-2-5-3-6-7(4-9)8(5)6/h4-8H,2-3H2,1H3/t5-,6-,7+,8-/m0/s1
