12
gdb 133600	2.7779	1.37103	1.122	3.5537	47.51	-0.2968	-0.0123	0.2845	1011.5264	0.073984	-604.151883	-604.144323	-604.143379	-604.185077	26.53	
F	-0.008443356	 0.106548194	-0.1596976837	-0.077481
C	 0.0039077544	 1.4398054851	-0.012629742	 0.288928
F	 1.2745956518	 1.8388560692	 0.0491332415	-0.059098
F	-0.547378646	 1.972180185	-1.1147278169	-0.075703
C	-0.7635040207	 1.8607291305	 1.2228227682	-0.347361
C	-2.1487174569	 1.2274116418	 1.431637246	-0.0976
O	-1.6782604357	 0.5921097122	 2.6642298361	-0.228869
C	-0.417706177	 1.1034935874	 2.521292121	 0.460296
O	 0.5260005378	 0.9531156269	 3.220800826	-0.304125
H	-0.7138479163	 2.9457714249	 1.3209478278	 0.150105
H	-2.9667035348	 1.9183693755	 1.6365606553	 0.140424
H	-2.4427303108	 0.4757787674	 0.6982247608	 0.150486
56.4235	124.8901	127.193	252.327	312.1111	376.9199	492.5978	529.3517	556.5899	616.0019	730.9095	760.7839	825.6772	935.92	967.3239	1001.6968	1084.5516	1117.4883	1156.1884	1163.9209	1208.3699	1223.5483	1276.5375	1354.1266	1380.5233	1515.7481	1955.1265	3091.9465	3123.4351	3156.9079
FC(F)(F)C1COC1=O	FC(F)(F)[C@H]1COC1=O	
InChI=1S/C4H3F3O2/c5-4(6,7)2-1-9-3(2)8/h2H,1H2	InChI=1S/C4H3F3O2/c5-4(6,7)2-1-9-3(2)8/h2H,1H2/t2-/m0/s1
