17
gdb 11555	5.27334	1.04825	0.98985	3.4371	65.32	-0.2517	-0.0335	0.2182	1197.5646	0.141192	-400.980561	-400.972079	-400.971135	-401.014674	30.006	
O	-0.0462262431	 1.1560215447	 0.6657270536	-0.416601
C	-1.3503322022	 0.6742302058	 0.5739969216	-0.131568
C	-1.4183973279	-0.6232998247	-0.2109075128	 0.371658
O	-0.4030234454	-1.0834301832	-0.6930630868	-0.326655
C	-2.7544810626	-1.3327261454	-0.3410092242	-0.342518
C	-2.8434222852	-2.4857149826	 0.6525968394	 0.024986
C	-3.3155129307	-3.8195434333	 0.2013819445	-0.238876
N	-1.9033678546	-3.6065730627	 0.5534820455	-0.3019
H	 0.4937124763	 0.516491689	 0.173657207	 0.295497
H	-1.7886310104	 0.4945457416	 1.5713033965	 0.119631
H	-2.0178024506	 1.4004999394	 0.0772578205	 0.117153
H	-3.585012274	-0.6364436922	-0.1803928923	 0.117111
H	-2.8199960042	-1.720047881	-1.3628902079	 0.128353
H	-3.0485785285	-2.1819477212	 1.6775944121	 0.101813
H	-3.8654344663	-4.4640884067	 0.8811483259	 0.123403
H	-3.5888640195	-3.9277731753	-0.8455351938	 0.114159
H	-1.3291554312	-3.4980075422	-0.2797994286	 0.244354
42.2316	67.9761	114.2779	186.8299	262.3147	337.7795	375.2496	420.915	430.2698	535.6513	674.5631	786.3385	809.6612	836.4611	931.841	943.239	964.905	991.2793	1057.8445	1081.7348	1126.0622	1140.0358	1159.8801	1212.3032	1232.5896	1247.3466	1265.0306	1300.8706	1317.246	1330.914	1411.0406	1450.5472	1469.8145	1486.8391	1512.2999	1788.7463	2958.9046	2973.178	3041.6273	3093.1261	3106.611	3123.8405	3192.3236	3500.311	3683.3269
OCC(=O)CC1CN1	OCC(=O)C[C@H]1CN1	
InChI=1S/C5H9NO2/c7-3-5(8)1-4-2-6-4/h4,6-7H,1-3H2	InChI=1S/C5H9NO2/c7-3-5(8)1-4-2-6-4/h4,6-7H,1-3H2/t4-/m0/s1
