14
gdb 48685	3.73136	1.22076	1.09168	2.0807	63.11	-0.2769	-0.057	0.2199	1071.2418	0.101433	-473.842214	-473.834855	-473.833911	-473.874462	26.906	
O	-0.4559973474	 0.6931733931	 0.7733485757	-0.253208
C	 0.206428051	 0.9723601873	-0.1936916372	 0.112743
C	 1.3614714998	 1.9111525592	-0.1483603015	 0.192627
C	 1.871629124	 2.4351687177	 1.1813476434	-0.160318
O	 2.490420752	 3.7026929476	 0.9034341128	-0.232803
C	 2.1561921992	 4.1632045731	-0.3397129911	 0.464604
O	 2.367926444	 5.2824890355	-0.6980444265	-0.327494
C	 1.5296202257	 3.040958421	-1.1266127761	-0.23409
N	 2.3215257477	 1.8174493392	-1.248377884	-0.356116
H	 0.0119791801	 0.5486140752	-1.2005698968	 0.104654
H	 1.0424731797	 2.5751388021	 1.8801668323	 0.154633
H	 2.6201335676	 1.7841165008	 1.642077253	 0.137392
H	 0.8573241014	 3.2812307386	-1.9410409986	 0.138475
H	 3.2760240353	 1.9478368996	-0.9162366455	 0.258901
87.0035	168.4548	186.9923	214.4393	330.8652	390.6644	473.8173	496.7977	626.1662	700.7002	756.7944	789.7011	812.296	867.749	973.332	1009.0527	1032.5956	1064.8894	1069.1601	1118.8275	1148.6141	1172.4229	1216.2601	1285.2411	1320.1931	1363.095	1405.134	1433.706	1515.6571	1818.699	1887.7103	2929.4124	3063.0237	3112.8168	3200.8684	3480.5921
O=CC12COC(=O)C1N2	O=C[C@]12COC(=O)[C@H]1N2	
InChI=1S/C5H5NO3/c7-1-5-2-9-4(8)3(5)6-5/h1,3,6H,2H2	InChI=1S/C5H5NO3/c7-1-5-2-9-4(8)3(5)6-5/h1,3,6H,2H2/t3-,5+/m1/s1
