21
gdb 77903	2.16444	1.49285	1.40268	2.8053	78.45	-0.2429	0.0625	0.3054	1110.8798	0.18166	-424.20097	-424.191553	-424.190609	-424.234272	36.513	
C	-0.2601873164	 1.5691559219	-0.0117098299	-0.414051
C	 0.0199643173	 0.0709894094	-0.0663507573	-0.010639
C	 0.7485794746	-0.5454390645	-1.266176321	-0.187066
C	 2.2093770242	-0.2084647403	-1.3068870809	 0.040504
O	 2.7683369507	 1.0157698168	-0.8706001857	-0.432112
C	 1.786184885	-1.2358400732	-0.318164768	 0.273066
C	 2.3348111529	-2.6352704059	-0.2934192399	-0.504497
C	 1.108313778	-0.5557645737	 0.8876391039	 0.062471
O	 1.8859829093	 0.2797836983	 1.703963296	-0.44077
H	 0.655465185	 2.1605281041	-0.0707329077	 0.105032
H	-0.9161288389	 1.8721527361	-0.8356882864	 0.106852
H	-0.76001778	 1.8312269752	 0.9264681915	 0.122182
H	-0.9214325467	-0.4668619812	 0.0896084035	 0.072173
H	 0.25600213	-0.963377999	-2.1384324477	 0.080479
H	 2.7306005448	-0.623212274	-2.1706880941	 0.091844
H	 2.507142608	 1.7063687705	-1.4889770349	 0.291928
H	 2.623982767	-2.973974029	-1.2937007846	 0.115122
H	 3.2230623754	-2.6917796176	 0.3469461696	 0.132232
H	 1.5981055949	-3.3445926112	 0.1001164981	 0.118698
H	 0.6572347201	-1.2946812082	 1.5561806956	 0.081718
H	 2.389968205	 0.8497627554	 1.1082145499	 0.294833
142.4545	167.8106	182.8086	205.9597	228.0682	245.5047	253.2515	327.7403	360.8715	382.7253	488.3809	553.92	577.5872	621.4349	677.1849	732.7579	792.0684	830.8043	869.3801	944.5386	964.0307	988.2366	1002.5501	1059.0218	1069.1796	1102.8829	1139.9797	1144.1346	1167.726	1211.5618	1236.5573	1261.1581	1300.0765	1310.4648	1324.1277	1352.3677	1371.738	1405.5651	1414.7057	1469.3527	1478.7542	1487.969	1493.0329	1500.1401	1504.5767	3022.8138	3034.0526	3039.3603	3068.878	3084.208	3093.3734	3096.0302	3098.2901	3129.4922	3161.0508	3758.7465	3807.8788
CC1C2C(O)C2(C)C1O	C[C@H]1[C@H]2[C@@H](O)[C@@]2(C)[C@H]1O	
InChI=1S/C7H12O2/c1-3-4-6(9)7(4,2)5(3)8/h3-6,8-9H,1-2H3	InChI=1S/C7H12O2/c1-3-4-6(9)7(4,2)5(3)8/h3-6,8-9H,1-2H3/t3-,4-,5-,6+,7+/m0/s1
