25
gdb 104302	2.67865	1.2471	1.17088	0.1341	91.26	-0.2596	0.0814	0.341	1257.5342	0.230236	-352.369329	-352.360068	-352.359123	-352.402612	37.309	
C	-0.1431091551	 1.5516352544	-0.078281467	-0.393829
C	 0.0208368641	 0.0296188295	 0.0123206669	-0.207412
C	 0.7699280858	-0.494188051	 1.2558045504	 0.314324
C	 2.2287798395	 0.0023351134	 1.2712061308	-0.431321
C	 0.0565540312	-0.1176302874	 2.5885812585	-0.260447
C	 0.386315467	-1.2505417582	 3.5887364675	-0.226757
C	 0.576918225	-2.4873288864	 2.7229025603	-0.029487
C	-0.4735382394	-2.7624597382	 1.6747427805	-0.314684
C	 0.7902196023	-2.0271771796	 1.298408282	-0.034827
H	 0.8212243235	 2.0654171499	-0.1393726294	 0.115586
H	-0.7145810593	 1.8244551947	-0.9712680078	 0.109792
H	-0.6786434985	 1.9522264526	 0.7888976515	 0.115179
H	-0.9715094357	-0.4375815527	-0.0102128599	 0.090423
H	 0.5424567831	-0.3283077668	-0.8856448077	 0.086146
H	 2.2849262727	 1.0936977894	 1.3291086182	 0.110206
H	 2.77438847	-0.4026705027	 2.1295299255	 0.112927
H	 2.7601258115	-0.3124074438	 0.3656144626	 0.106914
H	 0.3656849601	 0.8631776622	 2.9605818324	 0.093418
H	-1.0252958534	-0.060451398	 2.42697573	 0.095436
H	 1.3188895418	-1.0333372076	 4.122679704	 0.098017
H	-0.3941543643	-1.3683422781	 4.348844736	 0.092944
H	 1.1270238666	-3.3282595772	 3.1313486204	 0.075396
H	-0.5686393915	-3.784961006	 1.3253763503	 0.105499
H	-1.4170896555	-2.2271857475	 1.7147352951	 0.10555
H	 1.4953726384	-2.5340863848	 0.6465747288	 0.071007
97.8583	150.4946	186.9891	225.505	245.9997	282.5279	324.325	357.9966	384.4408	408.0213	467.585	587.376	638.6553	719.3227	782.6443	807.2996	827.2611	836.6506	895.4146	921.2528	931.9085	957.4873	981.9971	1007.056	1016.4924	1030.9438	1045.2689	1070.9185	1080.112	1090.5249	1113.8352	1164.9412	1184.1915	1208.3352	1227.4813	1241.7941	1246.9593	1310.9968	1325.324	1333.9111	1360.7269	1373.0199	1391.8754	1407.3734	1414.7778	1480.5535	1484.4804	1492.1722	1495.724	1503.1633	1507.1412	1509.7965	1516.5934	3013.1914	3027.9418	3031.6632	3036.1448	3043.402	3049.0904	3065.693	3088.9567	3093.9395	3099.4828	3101.2973	3108.5312	3126.7363	3148.0779	3164.6934	3207.7375
CCC1(C)CCC2CC12	CC[C@@]1(C)CC[C@H]2C[C@@H]12	
InChI=1S/C9H16/c1-3-9(2)5-4-7-6-8(7)9/h7-8H,3-6H2,1-2H3	InChI=1S/C9H16/c1-3-9(2)5-4-7-6-8(7)9/h7-8H,3-6H2,1-2H3/t7-,8+,9-/m0/s1
