23
gdb 93952	3.85218	0.98574	0.91827	1.4698	85.6	-0.2449	0.085	0.3299	1406.0089	0.206885	-388.290589	-388.281465	-388.280521	-388.325572	34.694	
C	-0.2565853067	 1.3940262728	-0.1620305887	-0.411234
C	 0.0625979088	-0.0975076614	-0.0973097336	 0.038356
C	 1.1175645353	-0.5710902968	-1.1051579469	-0.083
O	 1.5844114655	-1.8099826667	-0.6034025324	-0.265078
C	 1.6604878478	-1.7153590652	 0.8224949121	 0.113567
C	 0.6836590796	-0.5762815528	 1.2345779648	-0.266717
C	 1.3504275007	-3.0637546869	 1.4372048404	-0.005821
C	 0.2639349663	-3.9415211112	 0.8711750791	-0.259121
C	 1.7145162348	-4.3414867398	 0.7308721394	-0.27033
H	 0.6431685109	 1.9957347012	 0.011747538	 0.114636
H	-0.6621842543	 1.6739083218	-1.1404701842	 0.114844
H	-0.9960720683	 1.6758824031	 0.5942344389	 0.118399
H	-0.8535603758	-0.6704781177	-0.2832235751	 0.07997
H	 0.7273856727	-0.7406091201	-2.1130182702	 0.104686
H	 1.9403750036	 0.1628645872	-1.1732571357	 0.079966
H	 2.6890591343	-1.4315709247	 1.0988393604	 0.065234
H	 1.2282380343	 0.2412996454	 1.7184939652	 0.095475
H	-0.0745286223	-0.9299306133	 1.9376804725	 0.105723
H	 1.4579158248	-3.0628097592	 2.5189625264	 0.080077
H	-0.3645088207	-4.4948491881	 1.5602438506	 0.10239
H	-0.2347695367	-3.5971125832	-0.0271881263	 0.116735
H	 2.1539744843	-4.2524370427	-0.2554008792	 0.127831
H	 2.0842132512	-5.1703443816	 1.3245900847	 0.103411
21.6609	87.5164	161.7456	195.5207	235.4896	256.9965	295.7284	392.4126	439.3991	539.1003	597.1766	674.1405	762.9173	794.493	825.3986	854.6715	881.2756	919.1955	934.7377	960.2588	964.7072	983.2575	1049.0085	1061.987	1085.0558	1093.086	1103.8981	1128.4795	1140.0264	1145.8499	1169.196	1201.4393	1209.8614	1233.2207	1267.9598	1292.8697	1322.194	1347.146	1348.6449	1380.7613	1399.9845	1410.3362	1416.0845	1456.5996	1492.2926	1497.8348	1501.4751	1502.3405	1517.5031	2946.5299	2959.0074	3026.7271	3031.0871	3048.2716	3082.5323	3092.2698	3099.0619	3101.8136	3135.7664	3136.7327	3143.4589	3221.0508	3234.8469
CC1COC(C1)C1CC1	C[C@H]1CO[C@@H](C1)C1CC1	
InChI=1S/C8H14O/c1-6-4-8(9-5-6)7-2-3-7/h6-8H,2-5H2,1H3	InChI=1S/C8H14O/c1-6-4-8(9-5-6)7-2-3-7/h6-8H,2-5H2,1H3/t6-,8+/m1/s1
