17
gdb 98743	2.77022	1.28583	1.15891	2.8245	71.79	-0.242	-0.0485	0.1935	1138.1299	0.13413	-455.124122	-455.1149	-455.113956	-455.158834	32.27	
C	-0.2142230939	 1.0396691939	 0.5739027198	-0.224515
O	-0.2472049165	-0.3199514919	 0.1345547914	-0.230047
C	-1.4588742151	-0.7931360176	-0.1943418675	 0.490115
N	-2.5113949417	-0.0888670397	-0.1443741614	-0.574923
N	-1.3464379883	-2.1059034001	-0.7016911071	-0.13536
C	-0.4414299246	-3.0776337594	-0.1593390448	-0.2229
C	-1.9387981821	-3.2661396982	-0.0389705893	-0.118802
C	-2.5086556498	-3.1479264892	 1.3397149018	 0.14006
O	-2.1494669862	-2.331818311	 2.1510150488	-0.245408
H	 0.834761045	 1.2550375746	 0.7811961511	 0.125228
H	-0.5995087062	 1.7050887888	-0.2029348354	 0.140156
H	-0.8204603682	 1.1650152842	 1.4744467085	 0.146885
H	-3.3191423307	-0.6218967724	-0.4571580079	 0.218758
H	 0.1065107752	-3.6763086254	-0.8814523082	 0.1317
H	 0.0807756875	-2.8263554214	 0.7590721123	 0.156234
H	-2.4469269215	-3.9639920349	-0.6998425699	 0.110364
H	-3.299391883	-3.8928478002	 1.575030748	 0.092455
48.4833	114.2472	120.5515	160.972	175.3121	212.9037	274.0165	335.6036	368.3751	501.3837	542.1181	725.4287	765.6202	790.7034	802.914	834.2992	914.497	962.4148	1001.4593	1031.7521	1059.1661	1104.2438	1118.9028	1133.2187	1164.032	1182.6399	1218.3794	1299.5535	1363.2198	1405.0839	1421.0058	1475.4732	1478.79	1496.0548	1499.6818	1729.4335	1816.9153	2898.2864	3049.979	3114.9823	3126.9539	3145.0841	3151.9139	3214.6745	3525.5832
COC(=N)N1CC1C=O	CO[C]([NH])N1C[C@H]1C=O	
InChI=1S/C5H8N2O2/c1-9-5(6)7-2-4(7)3-8/h3-4,6H,2H2,1H3	InChI=1S/C5H8N2O2/c1-9-5(6)7-2-4(7)3-8/h3-4,6H,2H2,1H3/t4-,7?/m0/s1
