18
gdb 55127	2.65396	1.33592	1.22368	3.2531	71.96	-0.2347	0.0277	0.2624	1108.6159	0.146978	-439.091665	-439.082966	-439.082022	-439.12523	32.937	
C	-0.6251522218	 1.1505022753	 0.4035124352	-0.502118
C	 0.0825216326	-0.1203699033	 0.0693687616	 0.393811
O	-0.3593901481	-1.3319705376	 0.7174396133	-0.290271
C	 1.0339992785	-0.9769595348	 0.8015911306	-0.042682
C	 1.7018118699	-1.4552780355	-0.4902327644	-0.273393
C	 0.701302592	-0.5365508094	-1.2923563119	-0.153375
C	-0.1984910632	-1.1484396701	-2.3623776665	 0.381639
N	-0.9990371699	-2.1611351946	-1.9255704289	-0.528632
O	-0.1739625218	-0.7652937274	-3.5176852304	-0.374035
H	-0.809798446	 1.2128609427	 1.4790947213	 0.136812
H	-0.0308067065	 2.0159239778	 0.0947553496	 0.133758
H	-1.5890458701	 1.2035350292	-0.1146658447	 0.140727
H	 1.4475859613	-0.8865601807	 1.7996519212	 0.110448
H	 2.7366439543	-1.1246199436	-0.5984765358	 0.119412
H	 1.6380800147	-2.5292943652	-0.6764370857	 0.121339
H	 1.2244345529	 0.2970551477	-1.7618362036	 0.103517
H	-1.0838362116	-2.3440887909	-0.9366450419	 0.269246
H	-1.6676533571	-2.5430220396	-2.574278219	 0.253795
49.3528	131.3477	180.8767	215.5263	271.4509	304.3129	368.4302	397.4784	438.623	494.0629	595.9941	610.2941	667.0907	729.0671	751.5042	810.7202	860.8679	911.0466	922.1288	964.5596	1001.6074	1041.3677	1050.7464	1086.9957	1120.8706	1158.116	1194.5122	1214.1932	1262.0399	1270.8668	1313.5889	1361.7476	1405.6978	1456.9803	1477.0076	1484.7542	1494.7904	1608.3742	1792.7043	3038.108	3075.6683	3102.4372	3113.8696	3124.829	3135.4606	3185.8613	3558.4598	3709.2787
CC12OC1CC2C(N)=O	C[C@]12O[C@H]1C[C@H]2C(=O)N	
InChI=1S/C6H9NO2/c1-6-3(5(7)8)2-4(6)9-6/h3-4H,2H2,1H3,(H2,7,8)	InChI=1S/C6H9NO2/c1-6-3(5(7)8)2-4(6)9-6/h3-4H,2H2,1H3,(H2,7,8)/t3-,4-,6+/m0/s1
