13
gdb 25042	5.71807	1.05236	0.88879	4.2075	80.54	-0.2333	-0.0795	0.1538	1194.4394	0.09237	-411.833415	-411.826341	-411.825397	-411.865195	26.499	
N	-0.1186803978	 1.2618406425	-0.4758984231	-0.542222
C	 0.0182789307	 0.0695940927	-0.0368426395	 0.359621
N	-1.133821938	-0.6627693763	 0.2806806798	-0.317827
C	-1.1052464216	-1.927798639	 0.751073907	-0.017664
C	 0.0951260522	-2.5552854828	 0.938521719	 0.156334
N	 1.288950126	-1.9127405783	 0.6528642737	-0.270879
C	 1.2434559842	-0.705208307	 0.204559572	-0.071397
C	 0.146271555	-3.8909810327	 1.4343781163	 0.226795
N	 0.1616976881	-4.9763146162	 1.838302749	-0.333286
H	 0.7890062091	 1.6819751769	-0.6675801995	 0.228736
H	-2.0110520147	-0.1815261032	 0.1352419116	 0.28176
H	-2.0559503934	-2.3996814898	 0.9637206783	 0.167793
H	 2.1862596505	-0.207258875	-0.0174916198	 0.132234
84.3728	158.2286	217.2886	402.1493	403.8675	446.5377	454.2719	556.6056	558.1501	653.3583	706.9892	737.8321	767.4648	809.6414	830.923	923.3493	946.122	984.7356	1090.1709	1206.447	1266.2158	1317.804	1367.8933	1399.2731	1491.1801	1586.433	1645.7176	1711.0086	2342.4945	3143.8473	3224.3262	3507.2206	3603.6166
N=C1NC=C(N=C1)C#N	[NH]c1[nH]cc(nc1)C#N	
InChI=1S/C5H4N4/c6-1-4-2-9-5(7)3-8-4/h2-3H,(H2,7,9)	InChI=1S/C5H9N4/c6-1-4-2-9-5(7)3-8-4/h4-5,7-9H,2-3H2
