19
gdb 128265	3.11519	1.2427	0.94146	2.9222	79.58	-0.2169	0.0302	0.2471	1288.4436	0.160353	-415.421192	-415.411582	-415.410637	-415.455925	33.719	
C	-0.5846609393	 0.7092743538	 0.3508793732	-0.341653
N	 0.7686783802	 0.176408919	 0.1492972195	-0.388279
C	 1.0308397163	-0.4949532043	-1.0388377379	 0.384755
N	 1.893693928	-0.1179870845	-1.9683703826	-0.376695
C	 1.82798981	-1.1358166554	-2.8790411656	 0.348644
C	 2.6426309623	-1.1616624407	-4.1283332267	-0.482504
N	 0.9755271806	-2.0986740042	-2.5708559844	-0.315747
N	 0.4725969357	-1.6826089833	-1.3679214603	 0.007551
C	-0.4325018162	-2.5194716399	-0.6150830009	-0.32904
H	-0.893053361	 1.4162505272	-0.4324249297	 0.125969
H	-1.311752897	-0.1052859967	 0.3824359809	 0.134262
H	-0.616875988	 1.2182892988	 1.3171359904	 0.132403
H	 1.4612356012	 0.9095711774	 0.243986127	 0.250788
H	 2.4293855296	-0.2866475874	-4.7507612952	 0.133985
H	 3.7117369649	-1.1385995766	-3.8937636988	 0.134526
H	 2.4240614823	-2.0650492072	-4.7003651909	 0.135652
H	-0.2095453647	-3.5604862904	-0.8517556694	 0.157512
H	-0.2745416092	-2.3452555801	 0.4518200756	 0.151221
H	-1.4804827658	-2.3182020452	-0.8646160043	 0.136648
70.8286	111.3317	140.8021	166.7769	172.2262	182.9969	259.6716	273.4999	301.0581	413.8766	514.0193	612.9931	659.7919	702.4137	763.697	802.3068	819.206	1004.534	1031.2492	1065.202	1068.7909	1069.4479	1148.7115	1153.5199	1159.2985	1263.0624	1307.6624	1376.5936	1404.7437	1425.5971	1438.2543	1457.2275	1477.7556	1481.0289	1489.6561	1492.9435	1503.1063	1512.8327	1534.2171	1584.5119	1594.9517	3003.5838	3034.6823	3043.6983	3095.1393	3098.2829	3109.368	3130.7835	3141.8651	3152.5048	3564.4692
CNC1=NC(C)=NN1C	CNc1nc(C)nn1C	
InChI=1S/C5H10N4/c1-4-7-5(6-2)9(3)8-4/h1-3H3,(H,6,7,8)	InChI=1S/C5H10N4/c1-4-7-5(6-2)9(3)8-4/h1-3H3,(H,6,7,8)
