15
gdb 126327	2.94377	1.42929	1.03647	4.2861	71.1	-0.2776	-0.1039	0.1737	1117.0695	0.111254	-453.932918	-453.924747	-453.923803	-453.96608	29.502	
C	-0.156712379	 1.5475922318	-0.0224838184	-0.38629
C	 0.0827426613	 0.0258530819	 0.0310573439	-0.283883
C	 0.7645232614	-0.4950250776	-1.198083786	 0.10847
C	 2.0384563423	-0.9301595295	-1.2358055537	-0.054725
N	 2.6507945841	-1.3918249278	-2.3967585264	-0.109923
N	 2.0722344298	-1.4479713685	-3.4810396368	 0.061066
O	 0.6853026725	-1.0154457345	-3.542965789	-0.260097
C	-0.0011075022	-0.5404626	-2.4530408911	 0.444028
O	-1.1500017693	-0.2071684615	-2.5809846915	-0.329593
H	 0.7888528134	 2.0921222176	-0.1032288905	 0.12311
H	-0.7843270755	 1.8065050559	-0.877342496	 0.158282
H	-0.6623085413	 1.8760741717	 0.8894998433	 0.127994
H	 0.6820578584	-0.2313259931	 0.9102643815	 0.113262
H	-0.8841043507	-0.4804419609	 0.124823375	 0.142736
H	 2.6803324948	-0.9501004254	-0.3627134542	 0.145565
82.192	101.0233	170.5307	209.5684	262.4567	303.6213	386.4478	454.3123	536.6338	576.1208	621.4747	626.0653	786.6178	808.5821	816.4308	908.9475	943.5226	966.9779	1048.1339	1078.0859	1095.5011	1136.957	1261.0399	1280.5909	1346.5402	1397.15	1410.2584	1473.6872	1495.6362	1511.2134	1591.3049	1671.2504	1824.4799	3044.3607	3049.3034	3089.3486	3119.7092	3144.2478	3204.6865
CCC1=CN=NOC1=O	CCc1cnnoc1=O	
InChI=1S/C5H6N2O2/c1-2-4-3-6-7-9-5(4)8/h3H,2H2,1H3	InChI=1S/C5H6N2O2/c1-2-4-3-6-7-9-5(4)8/h3H,2H2,1H3
