17
gdb 65157	3.52329	1.15128	1.01708	3.8275	68.22	-0.2743	0.0082	0.2825	1176.7965	0.134665	-458.971706	-458.963346	-458.962402	-459.005077	31.499	
O	 0.2619488766	 1.4248883205	 0.0226197638	-0.461285
C	 0.0751661991	 0.0344869386	-0.0351682152	 0.379013
C	 0.900248303	-0.6832822946	-1.0574025019	-0.303599
C	 1.1875988874	-0.8686415972	 0.421726933	-0.329626
C	-1.3677520738	-0.3368730953	 0.2050746539	 0.059001
C	-2.3790718551	-0.0334110259	-0.9163241627	-0.420675
C	-2.5427473741	-1.5512215654	-0.9542315718	 0.446875
O	-3.1729792372	-2.3650257173	-1.5451084755	-0.310342
O	-1.624490361	-1.7737719699	 0.0513689209	-0.252435
H	 0.2807129809	 1.6873503699	 0.9501181819	 0.286758
H	 0.4591225009	-1.5163461124	-1.5918574672	 0.134405
H	 1.5862003564	-0.0710906672	-1.6304911942	 0.128244
H	 2.0727055085	-0.3886720658	 0.8243428369	 0.118083
H	 0.9247732739	-1.819699776	 0.870533355	 0.135453
H	-1.688158497	-0.0162259556	 1.2024790631	 0.091459
H	-3.2823821006	 0.5082238219	-0.6327563309	 0.143907
H	-1.9558917579	 0.3987338415	-1.8241517591	 0.154764
67.7591	84.7863	184.7518	251.2043	291.3415	331.9531	377.2253	438.272	497.319	521.1308	543.6186	679.8086	776.9519	778.6502	866.5238	899.1422	937.2473	938.3452	960.0476	989.5061	1034.9477	1051.6943	1057.1043	1087.8329	1109.6751	1136.8237	1193.6374	1221.294	1261.8535	1282.081	1294.1036	1379.7831	1401.2758	1443.2669	1453.0212	1497.2593	1944.4548	3049.7191	3095.3205	3138.4441	3147.2192	3153.681	3228.1547	3242.6738	3790.0139
OC1(CC1)C1CC(=O)O1	OC1(CC1)[C@H]1CC(=O)O1	
InChI=1S/C6H8O3/c7-5-3-4(9-5)6(8)1-2-6/h4,8H,1-3H2	InChI=1S/C6H8O3/c7-5-3-4(9-5)6(8)1-2-6/h4,8H,1-3H2/t4-/m1/s1
