23
gdb 96022	2.53815	1.14383	0.89616	0.8412	90.67	-0.2565	0.0578	0.3142	1392.5343	0.205855	-351.14436	-351.134626	-351.133682	-351.179146	37.016	
C	-0.55115166	 1.4516616875	-0.0844660275	-0.420479
C	-0.0206852592	 0.0193701701	-0.0259524295	 0.040577
C	 1.0585167574	-0.3062046808	-1.0858540316	-0.209524
C	 1.8676899786	-1.5050381109	-0.5168791525	-0.207529
C	 1.2983057596	-1.7614583478	 0.9032486099	-0.21545
C	 0.6124089222	-0.443351841	 1.3110407046	 0.003482
C	 1.6125808718	 0.5831861638	 1.9008338211	-0.372783
C	 2.2164652202	 0.1364249228	 3.1504882056	 0.300767
C	 2.6985028042	-0.2462295329	 4.1835752022	-0.437896
H	 0.2533043347	 2.1879494891	 0.017228558	 0.115646
H	-1.0435984747	 1.6424023052	-1.0439214119	 0.112194
H	-1.2849341455	 1.6430223585	 0.7063676971	 0.112222
H	-0.8694648397	-0.6568117422	-0.1988278288	 0.069804
H	 0.6100359862	-0.5248654378	-2.0593633985	 0.094539
H	 1.7089661405	 0.5631685481	-1.2369955923	 0.093826
H	 1.7801578707	-2.3954775807	-1.1452143564	 0.09711
H	 2.9341971578	-1.2646737359	-0.472918681	 0.100958
H	 0.5459440481	-2.5569114435	 0.8663944218	 0.093698
H	 2.0608266829	-2.0756096645	 1.6204387986	 0.108418
H	-0.1601795122	-0.6169892633	 2.0676116742	 0.07275
H	 2.4062961009	 0.7974195376	 1.1732728789	 0.127305
H	 1.0994351404	 1.5357392343	 2.0774393947	 0.129204
H	 3.1298962252	-0.5736698857	 5.0966210834	 0.191161
61.1572	90.4981	133.9622	141.3305	219.5411	256.9557	315.1657	340.8014	354.1938	482.6914	510.1415	586.4921	613.7552	631.0835	652.2948	778.9939	817.9299	839.9504	872.6775	896.5389	945.4085	948.2417	981.529	1003.1838	1022.6389	1050.4372	1072.3254	1117.6084	1164.5956	1179.7017	1216.1679	1223.7588	1253.3131	1287.1222	1299.7633	1317.0763	1335.763	1337.8967	1349.4599	1380.5361	1388.7219	1411.5857	1471.6596	1490.7956	1495.3401	1499.6818	1505.7512	1517.5325	2235.2581	3000.1464	3022.2444	3027.4245	3035.4817	3038.1246	3049.6583	3056.8219	3063.8205	3073.2509	3091.9895	3093.0459	3096.6123	3104.88	3507.2741
CC1CCCC1CC#C	C[C@H]1CCC[C@H]1CC#C	
InChI=1S/C9H14/c1-3-5-9-7-4-6-8(9)2/h1,8-9H,4-7H2,2H3	InChI=1S/C9H14/c1-3-5-9-7-4-6-8(9)2/h1,8-9H,4-7H2,2H3/t8-,9+/m0/s1
