17
gdb 33372	5.93292	0.60953	0.57145	1.3388	90.25	-0.2461	-0.0164	0.2297	1863.3405	0.134355	-384.611688	-384.602491	-384.601547	-384.647147	32.553	
C	 0.0035481224	-3.7400733125	-0.211827485	-0.549484
C	 0.0001181276	-2.5357272053	-0.1236683683	 0.290851
C	-0.0043294815	-1.1786193414	-0.0238704927	-0.22899
C	-0.0094485859	 0.0285822611	 0.0647206819	 0.361843
C	 0.012561748	 1.4794410111	 0.1720861974	-0.409806
C	 1.4352111354	 2.0570175525	 0.1500847218	-0.02005
C	 2.1603591508	 2.0268464331	-1.2132580402	-0.073063
O	 2.1115577111	 3.4657043957	-1.3206541882	-0.269472
C	 1.5245979564	 3.5908618117	-0.0112475689	-0.089351
H	 0.0065449868	-4.7988168421	-0.2898580298	 0.191707
H	-0.5673625598	 1.9173018268	-0.65210993	 0.143391
H	-0.4914358796	 1.7867536545	 1.0985821249	 0.139503
H	 2.0139556686	 1.648248542	 0.9802681988	 0.09508
H	 3.190948144	 1.6524108174	-1.189188208	 0.105778
H	 1.6215927787	 1.5311981235	-2.0303166183	 0.109673
H	 0.5658059582	 4.1259065484	-0.0369141254	 0.100781
H	 2.1943025389	 4.0987912935	 0.6942604299	 0.101607
48.0909	52.937	80.4951	159.2948	200.5605	310.9563	350.4203	363.6545	460.0382	534.3897	539.1859	593.4407	596.7461	732.4667	781.9806	865.6041	884.9672	889.4115	972.089	1040.3582	1052.521	1093.4873	1133.8199	1159.1172	1164.0384	1176.525	1237.0079	1265.8843	1311.185	1322.5773	1367.857	1392.0396	1464.5241	1513.6781	1538.5802	2182.3466	2364.1	3002.7287	3008.8399	3019.0586	3040.5989	3045.7236	3058.3992	3097.3715	3505.8348
C#CC#CCC1COC1	C#CC#CCC1COC1	
InChI=1S/C8H8O/c1-2-3-4-5-8-6-9-7-8/h1,8H,5-7H2	InChI=1S/C8H8O/c1-2-3-4-5-8-6-9-7-8/h1,8H,5-7H2
