18
gdb 83048	2.30959	1.84972	1.4528	1.9537	71.53	-0.2399	0.0127	0.2525	976.8316	0.148591	-439.070877	-439.062882	-439.061938	-439.10315	31.027	
C	 0.2378257535	 1.5216336845	-0.0914396805	-0.385865
C	 0.0472835134	 0.003244681	 0.0001925116	 0.00796
N	 0.4133431077	-0.621242493	-1.2756713714	-0.289277
C	 0.9579055271	-1.7653881942	-1.2864102872	 0.098306
O	 1.377696861	-2.5334796423	-0.2570777512	-0.207749
C	 1.3847371427	-1.9539669227	 1.0298347023	 0.036737
C	 2.254267549	-0.7315075825	 1.2468114385	 0.092777
O	 3.0899332493	-0.2377607593	 0.2484632178	-0.421528
C	 0.7452077503	-0.5986084123	 1.2145807551	-0.154127
H	 1.2973164129	 1.7800667604	-0.1736224591	 0.126048
H	-0.2848239151	 1.9112646048	-0.968759437	 0.126956
H	-0.1600466316	 2.0112057641	 0.8032498198	 0.110845
H	-1.0279620202	-0.1896608345	 0.1221323871	 0.101717
H	 1.1630004209	-2.2740322284	-2.2266732521	 0.131746
H	 1.3089880496	-2.7307786096	 1.781145869	 0.11291
H	 2.7427516554	-0.6447879529	 2.2122941241	 0.113531
H	 2.5921300914	-0.1347348191	-0.5708323173	 0.302584
H	 0.2496716727	-0.408241294	 2.1629737405	 0.096428
101.1802	158.1767	213.6069	244.5979	298.8866	337.8688	375.885	456.7409	517.4304	574.7131	646.4713	705.5678	723.9508	779.7519	808.0777	879.901	893.6843	964.7394	994.3852	1012.4777	1056.502	1095.199	1105.9349	1120.9379	1137.3846	1147.3618	1206.9039	1239.7461	1312.8815	1328.4761	1344.6114	1355.0427	1382.267	1405.3332	1420.4357	1462.4839	1490.7008	1498.3663	1709.5577	3000.1971	3041.3871	3113.1235	3127.2063	3137.2816	3159.7952	3161.8858	3183.5113	3791.1021
CC1N=COC2C(O)C12	C[C@H]1N=CO[C@H]2[C@@H](O)[C@@H]12	
InChI=1S/C6H9NO2/c1-3-4-5(8)6(4)9-2-7-3/h2-6,8H,1H3	InChI=1S/C6H9NO2/c1-3-4-5(8)6(4)9-2-7-3/h2-6,8H,1H3/t3-,4-,5+,6-/m1/s1
