16
gdb 44155	4.1372	0.97602	0.94409	2.2513	76.44	-0.2656	0.0097	0.2752	1266.1491	0.123147	-400.680021	-400.671897	-400.670953	-400.713378	30.634	
N	 0.1896997427	 1.1444443925	-0.0178592339	-0.552629
C	 0.0483974734	-0.0963020546	 0.068771476	 0.449592
O	 0.990003886	-1.0954865174	 0.3386192877	-0.271182
C	-0.0090926694	-2.1114340419	 0.0620128363	 0.083675
C	-1.1146678058	-2.0354386773	 1.0509379167	-0.037198
C	-0.9319193637	-1.6305387406	 2.5077170251	-0.382795
C	-0.6914295236	-2.7843963	 3.3675088309	 0.305529
C	-0.5027582831	-3.7516767883	 4.0550587607	-0.448849
C	-1.0806043109	-1.053189814	-0.128968797	-0.244623
H	 1.1572856437	 1.4213748684	 0.1560933596	 0.233406
H	 0.2995420082	-2.9531132364	-0.5422814794	 0.127318
H	-1.8694527392	-2.8034691288	 0.8961381532	 0.117833
H	-0.0963763876	-0.9278853849	 2.5892133006	 0.154571
H	-1.8262542585	-1.0942650196	 2.8477887471	 0.141006
H	-0.328752939	-4.5966105958	 4.6741945239	 0.198777
H	-1.8861237533	-0.9567322413	-0.8417205277	 0.125567
51.2859	93.888	162.0922	243.2499	337.0957	346.7463	424.2997	482.5779	591.1922	622.3603	648.8825	681.7268	732.3432	783.2616	833.415	865.5636	892.4981	916.3653	952.742	970.9781	987.9133	1013.5967	1040.2837	1058.7974	1087.9872	1161.6939	1197.0281	1251.2189	1288.4209	1316.6555	1345.1935	1436.6287	1462.5574	1832.6524	2241.0571	3036.2838	3081.1296	3145.5971	3217.8218	3233.9285	3480.7553	3505.607
N=C1OC2C(CC#C)C12	[NH][C]1O[C@H]2[C@@H](CC#C)[C@@H]12	
InChI=1S/C7H7NO/c1-2-3-4-5-6(4)9-7(5)8/h1,4-6,8H,3H2	InChI=1S/C7H7NO/c1-2-3-4-5-6(4)9-7(5)8/h1,4-6,8H,3H2/t4-,5+,6-/m0/s1
