19
gdb 44065	3.20671	1.51218	1.40172	3.2607	80.38	-0.225	-0.0047	0.2202	999.4764	0.161299	-385.825009	-385.818205	-385.817261	-385.855898	28.993	
O	-0.0043853425	 0.0051324905	 0.1965018567	-0.339335
C	 0.0325996433	 1.2045186373	 0.1269485309	 0.451579
C	-1.1249590507	 2.2146654317	 0.1785964639	-0.366002
C	-0.3088326265	 3.5246151759	 0.0151996966	 0.298907
C	-0.9627423607	 4.5367733052	-0.977883032	-0.32287
C	-0.3540050984	 3.6181483504	-2.1345969492	-0.299498
C	 0.7079254535	 3.2062683537	-1.0554881856	 0.034869
C	 1.2283621889	 2.1194323214	-0.0318049542	-0.199748
C	 0.8385517103	 3.2592711571	 1.0530064197	-0.335854
H	-1.8554342759	 2.0192588868	-0.6102945592	 0.121348
H	-1.6542582832	 2.1675326436	 1.1361034704	 0.120783
H	-2.048283453	 4.6609528128	-0.9436025183	 0.103761
H	-0.4838001546	 5.5192175738	-0.9719983355	 0.111596
H	-1.0460801373	 2.8348160876	-2.4451460537	 0.121678
H	 0.0295528315	 4.1237383931	-3.0228894185	 0.105748
H	 1.4653700853	 3.9974992208	-1.0692730189	 0.086429
H	 2.214636507	 1.6595531085	-0.070305489	 0.084306
H	 1.6018688184	 4.0384128665	 1.0910756793	 0.115659
H	 0.5836707846	 2.9189052833	 2.0618933166	 0.106645
117.8439	289.3876	341.4009	360.0207	463.2523	473.8984	539.5081	554.407	641.0737	653.2579	722.9046	770.8022	806.337	821.2931	851.8896	872.5105	919.2931	952.068	965.9238	1012.5509	1027.3142	1051.8689	1074.8225	1095.0421	1110.2786	1149.3896	1164.949	1179.9108	1205.2944	1210.375	1221.6043	1233.9225	1253.3801	1263.489	1298.7806	1411.4695	1457.6929	1482.8007	1494.3569	1505.7808	1866.837	3033.9771	3049.7369	3056.2339	3059.4019	3081.866	3105.975	3116.2827	3128.7914	3136.6482	3144.2936
O=C1CC23CCC2C1C3	O=C1C[C@]23CC[C@@H]2[C@H]1C3	
InChI=1S/C8H10O/c9-7-4-8-2-1-6(8)5(7)3-8/h5-6H,1-4H2	InChI=1S/C8H10O/c9-7-4-8-2-1-6(8)5(7)3-8/h5-6H,1-4H2/t5-,6-,8-/m1/s1
