15
gdb 46310	3.33145	1.36213	1.26124	5.3234	66.1	-0.2373	-0.0016	0.2357	1011.8959	0.114771	-453.973358	-453.966068	-453.965124	-454.005536	26.997	
O	-0.1972120619	 0.12117237	 0.380035757	-0.328277
C	-0.0809375914	 1.2534786772	 0.0413965162	 0.434858
O	-1.0250596833	 2.0795329078	-0.5046623578	-0.243576
C	-0.0974077827	 3.213691291	-0.5414423322	-0.11228
C	 1.0229702361	 2.3344563489	 0.062120279	 0.129317
C	 1.6302621377	 2.6717467774	 1.4499345827	-0.266064
N	 3.0367382781	 2.8989467337	 1.0984042493	-0.299485
C	 3.2045721876	 2.3960465789	-0.1732302858	 0.063887
N	 2.1535043811	 2.0851603936	-0.8349420061	-0.285275
H	 0.0831120384	 3.5380797194	-1.5665883024	 0.137053
H	-0.4655924045	 4.0321388168	 0.0817402333	 0.119004
H	 1.1812448869	 3.5553023534	 1.911891922	 0.12477
H	 1.5173243968	 1.8207566464	 2.1329135653	 0.13681
H	 3.7517770887	 2.7421905626	 1.7926662202	 0.253244
H	 4.2058731623	 2.3252101729	-0.5877649307	 0.136014
90.4474	129.0945	171.1396	272.9596	349.3939	413.9499	493.363	534.6849	643.5296	719.6241	768.8774	815.3141	865.3334	892.9547	944.8716	961.5415	972.3986	1016.8595	1087.786	1123.4222	1132.6159	1145.0648	1165.2748	1198.9769	1244.075	1307.1644	1343.4623	1353.6298	1446.1298	1504.3273	1514.0871	1674.0921	1940.1412	3027.8327	3071.1785	3085.612	3146.9472	3191.9081	3618.4372
O=C1OCC11CNC=N1	O=C1OC[C@]21CN[CH][N]2	
InChI=1S/C5H6N2O2/c8-4-5(2-9-4)1-6-3-7-5/h3H,1-2H2,(H,6,7)	InChI=1S/C5H6N2O2/c8-4-5(2-9-4)1-6-3-7-5/h3H,1-2H2,(H,6,7)/t5-/m0/s1
