17
gdb 62437	3.76476	1.22482	1.20137	4.7406	79.03	-0.2334	-0.0112	0.2222	1079.5446	0.137543	-380.872444	-380.864553	-380.863609	-380.904556	30.663	
N	-0.0158934877	 1.4728722099	 0.0860238321	-0.5684
C	-0.0362761572	 0.0362073578	-0.0259467567	 0.147204
C	 1.0492850063	-0.5874997211	 0.6931965852	 0.267643
N	 1.9309709635	-1.096763106	 1.242433913	-0.342331
C	-1.3430378781	-0.7295654082	-0.0172103871	-0.078638
C	-2.6111064037	 0.0627330199	-0.3414570087	-0.2936
C	-2.4007449912	 0.5014796577	-1.7765213349	-0.099784
C	-1.259784439	 0.0217070338	-2.2856479395	-0.081183
C	-0.4981551076	-0.7652177501	-1.2826682291	-0.128078
H	 0.8995796002	 1.8223462113	-0.1839086643	 0.242513
H	-0.6839517713	 1.8725885157	-0.5674846512	 0.240899
H	-1.4138660114	-1.5878181137	 0.6391243608	 0.113707
H	-3.5053222899	-0.5639517283	-0.2365927057	 0.123552
H	-2.748699456	 0.9131060287	 0.339294385	 0.132403
H	-3.1038727901	 1.1393444051	-2.2997868941	 0.107025
H	-0.8967264746	 0.1952803577	-3.2917322639	 0.106561
H	 0.0906137076	-1.6268008299	-1.5743303608	 0.110507
134.4324	149.227	194.9373	239.319	249.0964	368.284	436.0716	483.669	563.3566	597.4484	669.0441	703.9992	767.051	795.2869	824.3621	867.6072	912.8731	928.2207	964.5648	972.0409	1002.9286	1003.8008	1031.3311	1086.471	1104.8953	1132.4309	1184.838	1268.7308	1291.6141	1297.55	1326.6667	1373.3996	1407.1699	1474.2839	1653.2223	1656.5145	2350.823	3025.1618	3052.6699	3181.4481	3191.7632	3193.7429	3216.8443	3482.3514	3563.0231
NC1(C#N)C2CC=CC12	N[C@@]1(C#N)[C@H]2CC=C[C@@H]12	
InChI=1S/C7H8N2/c8-4-7(9)5-2-1-3-6(5)7/h1-2,5-6H,3,9H2	InChI=1S/C7H8N2/c8-4-7(9)5-2-1-3-6(5)7/h1-2,5-6H,3,9H2/t5-,6+,7-/m1/s1
