25
gdb 60450	4.07259	0.52162	0.51275	2.7691	86.55	-0.2565	0.0715	0.328	2288.9154	0.225536	-426.636721	-426.6248	-426.623856	-426.67483	42.93	
C	 0.0407600976	 1.5825371089	 0.0231641745	-0.401601
C	 0.027477937	 0.0535893023	 0.0296896474	 0.138399
O	 0.7573672156	-0.4601700497	 1.1441675015	-0.427918
C	-1.39418523	-0.5214203434	-0.0254094179	-0.19656
C	-1.4286771622	-2.0491810072	-0.1200018363	-0.172198
C	-2.8440132612	-2.6315612053	-0.0770145304	-0.19656
C	-2.8826749869	-4.1534207574	-0.2700080096	 0.138399
C	-4.2929622735	-4.7259280482	-0.1243108704	-0.401604
O	-2.2997833814	-4.5383777692	-1.5153164905	-0.427916
H	 1.0670703968	 1.9537702008	 0.0892591505	 0.122711
H	-0.4160854243	 1.9808224006	-0.8887084311	 0.113852
H	-0.5224048792	 1.9802671968	 0.8773689078	 0.103459
H	 0.5857267054	-0.3104608682	-0.8425607869	 0.088013
H	 0.3308913917	-0.1318249522	 1.943933989	 0.273468
H	-1.9399188713	-0.1872815838	 0.8712587658	 0.077015
H	-1.9225757109	-0.0799764474	-0.8814003304	 0.089141
H	-0.9423730669	-2.3737667285	-1.0472089647	 0.106122
H	-0.8316887198	-2.4662599315	 0.6992721585	 0.10612
H	-3.323719538	-2.3828743756	 0.8794514919	 0.089141
H	-3.4667088359	-2.1657081549	-0.8572179943	 0.077015
H	-2.2311724258	-4.6176590744	 0.4816710271	 0.088012
H	-4.9749564679	-4.2711206977	-0.854409359	 0.10346
H	-4.2837954069	-5.8060822114	-0.2936575343	 0.122711
H	-4.6999557713	-4.5328587891	 0.8736527872	 0.113853
H	-2.8620147509	-4.1898209245	-2.2165455353	 0.273468
37.697	54.4011	91.371	132.6306	134.6234	218.9251	234.0622	244.3921	249.5522	284.4533	291.3352	370.8306	393.2502	461.1542	465.6522	495.3211	527.369	743.5659	829.0051	829.2662	869.0537	935.7065	938.6238	968.0793	1010.0624	1031.5905	1064.7535	1072.3437	1099.1889	1106.7499	1151.2398	1154.1119	1179.9495	1251.2889	1270.0559	1303.4983	1319.4046	1339.1047	1342.2057	1362.4822	1392.3363	1396.1654	1402.9515	1405.4167	1421.152	1422.3859	1474.8563	1475.1207	1491.9601	1492.3327	1494.9866	1495.1165	1507.4646	2983.3418	2987.133	3020.2471	3020.4001	3027.5675	3028.0983	3037.0517	3038.7384	3040.7615	3082.7938	3091.3113	3091.9376	3116.8679	3116.9443	3792.523	3792.5749
CC(O)CCCC(C)O	C[C@@H](O)CCC[C@@H](C)O	
InChI=1S/C7H16O2/c1-6(8)4-3-5-7(2)9/h6-9H,3-5H2,1-2H3	InChI=1S/C7H16O2/c1-6(8)4-3-5-7(2)9/h6-9H,3-5H2,1-2H3/t6-,7-/m1/s1
