16
gdb 19179	3.75375	1.8129	1.44193	2.982	60.48	-0.2401	0.064	0.3041	863.9937	0.130822	-420.810333	-420.803222	-420.802278	-420.841065	28.584	
O	-0.0529586472	 1.4671113332	-0.1219575423	-0.454275
C	 0.0037004403	 0.051655245	-0.0132265031	 0.134443
C	-0.020487829	-0.6236121383	 1.3987355403	-0.221681
C	-1.5149880116	-0.1663257606	 1.5250781198	 0.189313
O	-1.8562257962	 1.146437932	 1.8239220099	-0.453154
C	-1.3702786162	-0.6685612698	 0.0422868646	-0.160037
C	-0.6073543216	-1.8669439973	 0.6556474912	 0.143181
O	 0.1968841077	-2.5947959411	-0.2388401157	-0.438388
H	 0.8414545774	 1.8120247146	-0.0368957448	 0.291476
H	 0.7249227557	-0.3581981189	-0.7221898813	 0.095571
H	 0.7556767499	-0.6110689129	 2.1664901135	 0.066253
H	-2.13528943	-0.8056971987	 2.1613091123	 0.076717
H	-1.3274626107	 1.7104549101	 1.240915175	 0.288165
H	-2.1307495651	-0.7037840398	-0.7377424171	 0.08063
H	-1.217603635	-2.5305747394	 1.2801886109	 0.075059
H	 0.7587113516	-3.1817528781	 0.2764530469	 0.286726
246.9004	257.8335	279.4596	292.8348	314.9149	335.2692	446.0533	468.5339	531.2847	625.2739	686.4413	716.4916	828.9107	837.4361	912.207	926.4141	935.8474	1040.0211	1061.4752	1073.5253	1093.7181	1135.1949	1146.3819	1184.273	1208.353	1215.5676	1240.3301	1260.3005	1308.0505	1320.2112	1349.8773	1428.2524	1454.2204	1504.5328	3026.6749	3059.9613	3092.2069	3099.6609	3121.6963	3713.5047	3821.718	3822.2374
OC1C2C(O)C1C2O	O[C@H]1[C@H]2[C@@H](O)[C@@H]1[C@H]2O	
InChI=1S/C5H8O3/c6-3-1-4(7)2(3)5(1)8/h1-8H	InChI=1S/C5H8O3/c6-3-1-4(7)2(3)5(1)8/h1-8H/t1-,2+,3-,4-,5+
