16
gdb 131790	5.06072	0.90325	0.77539	3.2409	72.98	-0.238	-0.0746	0.1634	1399.4979	0.124998	-434.068988	-434.060794	-434.05985	-434.10296	29.197	
O	 0.0179413009	 1.4748886061	 0.2408671758	-0.418023
C	-0.1121508359	 0.0930569097	 0.5369659356	-0.065413
C	-1.0189736749	-0.6103970657	-0.4762913111	-0.294279
C	-1.1725401697	-2.0951258129	-0.2817671721	 0.392284
N	-2.058143061	-2.7277792216	-1.0752129199	-0.262842
C	-2.1551078817	-4.0315958356	-0.8835600453	-0.00767
C	-1.3795376703	-4.6713365741	 0.0861145347	 0.015818
N	-0.5270000932	-3.993155524	 0.8442085875	-0.163733
N	-0.4206505494	-2.6795097999	 0.6565673394	-0.236892
H	-0.8357098492	 1.8934206288	 0.3902580796	 0.280991
H	 0.89601971	-0.3253046994	 0.4946248386	 0.132669
H	-0.4797827192	-0.0748232449	 1.5587811001	 0.103851
H	-2.0235212462	-0.1665240457	-0.4633845355	 0.118606
H	-0.6363236482	-0.4299904122	-1.4887065011	 0.140871
H	-2.8583079281	-4.5833621348	-1.5039973589	 0.13146
H	-1.4402349339	-5.7401801739	 0.2640479025	 0.132302
38.2088	94.19	145.939	188.3248	297.4952	349.9255	377.8766	411.2794	473.6538	638.6141	676.6199	750.8696	831.7099	861.1138	890.0704	1011.7029	1024.1777	1036.2604	1065.033	1078.8527	1082.9	1123.77	1158.9429	1188.6875	1264.1987	1302.2356	1341.1415	1392.3697	1396.0748	1417.885	1455.6563	1464.2138	1504.0745	1570.7854	1594.8466	3013.1344	3026.3426	3060.014	3110.2904	3152.039	3190.3596	3815.8558
OCCC1=NC=CN=N1	OCCc1nccnn1	
InChI=1S/C5H7N3O/c9-4-1-5-6-2-3-7-8-5/h2-3,9H,1,4H2	InChI=1S/C5H7N3O/c9-4-1-5-6-2-3-7-8-5/h2-3,9H,1,4H2
