16
gdb 126249	1.92282	1.68987	0.96005	2.2079	78.64	-0.2601	-0.0416	0.2185	1199.5263	0.126235	-396.974241	-396.965805	-396.964861	-397.009308	30.011	
C	 0.0706131435	 1.5842323158	-0.1475687192	-0.369288
C	-0.0593065894	 0.0594907909	 0.019419994	-0.320279
C	 0.6648867831	-0.4630863008	 1.2232977364	 0.103064
C	 0.1299238474	-0.7868231354	 2.4662119251	 0.219346
N	 1.1743670197	-1.1904967923	 3.2505767072	-0.274411
N	 2.3425077974	-1.1554197056	 2.6086655193	-0.19918
C	 2.0438812771	-0.7160595407	 1.3861514467	-0.066912
C	-1.2025484384	-0.7517271192	 2.9347577886	 0.220752
N	-2.2952217746	-0.7243986665	 3.319563532	-0.345231
H	 1.1192221215	 1.8825682004	-0.2424064216	 0.122982
H	-0.4610265619	 1.9196483416	-1.0429691883	 0.120986
H	-0.3497292521	 2.1090796505	 0.7154005077	 0.129691
H	-1.1183666729	-0.2102153998	 0.0885803599	 0.124606
H	 0.3299822636	-0.4378625381	-0.8763137034	 0.117644
H	 1.1353589979	-1.5039390738	 4.2068614957	 0.290647
H	 2.829673758	-0.5989408272	 0.6540812098	 0.125581
11.1354	129.5365	153.3013	172.7845	218.3342	325.602	384.896	501.2863	530.4192	552.5017	595.9618	673.1313	698.8644	742.1509	789.5091	889.6939	951.267	978.9961	1061.3098	1081.0533	1157.2264	1180.9094	1241.8516	1284.6657	1295.7693	1353.2058	1386.2556	1410.3205	1438.4203	1485.3227	1494.357	1496.3778	1508.5136	1598.3137	2341.7847	3038.1869	3040.4054	3076.5521	3113.7393	3116.9681	3246.3432	3663.6387
CCC1=C(NN=C1)C#N	CCc1c([nH]nc1)C#N	
InChI=1S/C6H7N3/c1-2-5-4-8-9-6(5)3-7/h4H,2H2,1H3,(H,8,9)	InChI=1S/C6H7N3/c1-2-5-4-8-9-6(5)3-7/h4H,2H2,1H3,(H,8,9)
