18
gdb 34740	2.97209	1.67082	1.49305	1.3369	79.93	-0.2221	0.0296	0.2517	952.7249	0.149404	-364.733815	-364.726698	-364.725754	-364.765047	29.261	
C	-0.199760523	-1.2788014871	-0.1946188646	-0.452
C	-0.0905528145	-0.0888148174	-0.0543998782	 0.329302
C	-0.0007615253	 1.3550686796	 0.0862465229	-0.151387
C	-0.2517393662	 2.0315274651	 1.4330551629	-0.099451
C	 0.9866487241	 1.9307174214	 2.3194325563	-0.039974
C	 2.019004767	 0.8411900142	 2.0454516986	-0.254454
C	 2.4174960877	 1.149463571	 0.5707385208	-0.161825
N	 1.3693849203	 2.0345326285	 0.0181745133	-0.142926
C	 0.9586903155	 2.8934669253	 1.1713285365	-0.047355
H	-0.2944627553	-2.3301290404	-0.3126489906	 0.198901
H	-0.6208063446	 1.8181050564	-0.6894577151	 0.114292
H	-1.2221722972	 2.3075875338	 1.8282237208	 0.093019
H	 0.8509539103	 2.3131058044	 3.3251341468	 0.088877
H	 2.8705738605	 0.9288472466	 2.7277226492	 0.095939
H	 1.6057834521	-0.1644097462	 2.1564227402	 0.11585
H	 3.3622341986	 1.7013460252	 0.5321669057	 0.10296
H	 2.5169227284	 0.2555810372	-0.0482039672	 0.116464
H	 1.1152723315	 3.9638950923	 1.1788538215	 0.093767
133.283	153.8162	249.0755	359.2974	377.6426	525.7654	545.2693	612.2054	649.4084	661.6093	693.4807	766.2204	795.8266	812.4098	821.6965	865.5625	909.5634	922.5851	963.254	980.1138	1010.2234	1048.3503	1052.3105	1073.6017	1089.3525	1102.8798	1136.6542	1220.1867	1221.0404	1240.6654	1265.4815	1296.4228	1297.6806	1345.7259	1353.101	1398.5352	1484.0901	1501.7665	2225.164	3037.7657	3048.3837	3057.3308	3097.1403	3120.9337	3173.8151	3180.6579	3203.0897	3500.5588
C#CC1C2C3CCN1C23	C#C[C@H]1[C@H]2[C@H]3CCN1[C@@H]23	
InChI=1S/C8H9N/c1-2-6-7-5-3-4-9(6)8(5)7/h1,5-8H,3-4H2	InChI=1S/C8H9N/c1-2-6-7-5-3-4-9(6)8(5)7/h1,5-8H,3-4H2/t5-,6+,7-,8-/m1/s1
