12
gdb 129201	3.67144	1.28905	0.95407	2.7266	73.49	-0.2503	-0.1191	0.1313	1108.3924	0.079979	-427.857058	-427.84997	-427.849026	-427.889137	25.772	
N	-0.117131313	 1.3359849655	 0.0080204972	-0.547669
C	 0.016168641	 0.0726499671	 0.0012297929	 0.437458
N	-1.1506149517	-0.7190871553	 0.0036203453	-0.217782
N	-1.2110371674	-2.0374627471	-0.0024520535	-0.127715
C	-0.0759861151	-2.6740545195	-0.0115956552	-0.059302
C	 1.1602441178	-1.931801173	-0.0146085675	 0.216923
N	 1.2224733743	-0.6366872243	-0.0086540062	-0.349746
C	 2.3984324766	-2.6752701013	-0.0247866335	 0.255621
N	 3.3609147708	-3.3154054351	-0.0330039452	-0.296548
H	 0.8009456953	 1.7758789391	 0.0052314411	 0.239003
H	-2.037237052	-0.2328019811	 0.0107013926	 0.29462
H	-0.1024168066	-3.7551426051	-0.0166855279	 0.155137
90.1754	140.7408	150.9834	371.8938	416.6552	446.7449	470.5927	578.7535	583.6825	684.9715	725.3105	728.25	768.5735	842.3012	866.0207	928.7131	1007.4553	1099.9698	1180.6386	1224.9028	1312.1212	1417.6333	1438.4992	1553.2437	1630.7002	1733.6386	2356.2507	3231.5945	3524.391	3601.3501
N=C1NN=CC(=N1)C#N	[NH]c1[nH]ncc(n1)C#N	
InChI=1S/C4H3N5/c5-1-3-2-7-9-4(6)8-3/h2H,(H2,6,8,9)	InChI=1S/C4H8N5/c5-1-3-2-7-9-4(6)8-3/h3-4,6-9H,2H2
