25
gdb 104172	2.73439	1.06311	1.00757	1.3068	88.53	-0.2454	0.0792	0.3246	1400.9945	0.228831	-389.513449	-389.50337	-389.502426	-389.548288	38.823	
C	-0.0883171597	 1.4975317643	 0.1840863794	-0.400681
C	 0.05739809	-0.0140423519	-0.0231167422	-0.210652
C	 0.7231292395	-0.4670374714	-1.3456378904	 0.334301
C	 0.0297424578	 0.1396311644	-2.57123509	-0.456593
C	 2.2393139296	-0.1480189728	-1.3225380277	-0.121814
O	 2.8534976037	-1.2345635009	-0.6567020764	-0.261642
C	 2.2400335044	-2.4088163545	-1.1855001567	 0.168205
C	 2.4972295528	-3.5707723624	-0.2425962834	-0.409834
C	 0.753318684	-2.0278235178	-1.3923602392	-0.306941
H	 0.8737906913	 2.0173927172	 0.1247637482	 0.116815
H	-0.7554443676	 1.9488700326	-0.5565761698	 0.117349
H	-0.5084140674	 1.707056062	 1.1728269814	 0.114015
H	 0.6409476053	-0.4394914414	 0.8026961163	 0.104857
H	-0.9371341232	-0.4754345916	 0.0362422805	 0.089841
H	 0.1391848919	 1.2285549918	-2.6037782837	 0.116345
H	 0.4547268681	-0.2608481251	-3.4977721667	 0.109573
H	-1.042834595	-0.084619757	-2.5717601705	 0.11315
H	 2.6254399281	-0.0554460195	-2.3528265145	 0.075192
H	 2.4939664883	 0.7666407286	-0.7810997074	 0.101718
H	 2.694506555	-2.6288562735	-2.1674240167	 0.058895
H	 2.0518696851	-3.3720734329	 0.7373962714	 0.120336
H	 2.0617300388	-4.4920725631	-0.6419658602	 0.114107
H	 3.5712045263	-3.7279155594	-0.1080396044	 0.123882
H	 0.1318275663	-2.4517259241	-0.5971579807	 0.096121
H	 0.3732738665	-2.4144685215	-2.3421008967	 0.093454
40.4449	126.0278	174.6835	232.0663	241.1456	248.886	260.5271	296.0685	336.8514	365.236	401.838	450.9927	475.3141	591.5189	642.4283	763.9475	794.3421	838.5337	877.8408	910.2867	919.2033	929.8719	1005.3129	1012.5569	1035.106	1051.0153	1074.3938	1084.9749	1123.7744	1150.8189	1190.4033	1198.4163	1222.6163	1258.9578	1283.0434	1314.8597	1329.5179	1361.0875	1367.7863	1385.4715	1400.2285	1411.5181	1413.7282	1421.104	1483.5348	1485.2087	1495.3583	1496.3639	1499.487	1502.9188	1504.7315	1513.9654	1517.9642	2939.3075	2952.8207	3015.3844	3027.882	3037.7059	3038.2894	3049.234	3054.5425	3090.5013	3092.0132	3094.682	3098.2552	3101.8734	3109.6599	3112.2163	3116.7569
CCC1(C)COC(C)C1	CC[C@@]1(C)CO[C@@H](C)C1	
InChI=1S/C8H16O/c1-4-8(3)5-7(2)9-6-8/h7H,4-6H2,1-3H3	InChI=1S/C8H16O/c1-4-8(3)5-7(2)9-6-8/h7H,4-6H2,1-3H3/t7-,8+/m0/s1
