20
gdb 62056	4.10122	0.657	0.59059	3.5093	80.4	-0.2833	0.0128	0.296	1851.7339	0.169905	-403.145368	-403.135493	-403.134549	-403.181259	35.53	
O	 0.1289856724	 1.4878078856	 0.1078663232	-0.406186
C	 0.0268065413	 0.0796960931	-0.0134580311	-0.025802
C	 0.6386025073	-0.4679230536	-1.3145272602	-0.196211
C	-0.0202361293	 0.1255759797	-2.5660114222	-0.214062
C	 0.6024031297	-0.3866827482	-3.8470737266	 0.026822
C	 0.1593993994	-1.7014806325	-4.441155912	-0.256417
C	-0.1861739015	-0.4035963652	-5.1304841322	-0.276582
C	 0.618670368	-0.5939153218	 1.1624468926	 0.256551
N	 1.1148521312	-1.1075054556	 2.0710556052	-0.315792
H	 1.0638886795	 1.7175961685	 0.1665491998	 0.294752
H	-1.0498986772	-0.1270297007	-0.0072432107	 0.139374
H	 1.7156218902	-0.2525505287	-1.3114035094	 0.106038
H	 0.5430725124	-1.5597898659	-1.3158396566	 0.124795
H	-1.0914160705	-0.118505601	-2.5603404249	 0.095415
H	 0.0446091103	 1.2185648889	-2.5218997389	 0.114773
H	 1.6612046758	-0.1587312958	-3.9489520945	 0.08233
H	 0.903662695	-2.3463214605	-4.8948782157	 0.114216
H	-0.6437913629	-2.2359795709	-3.9433228415	 0.109561
H	-1.2186722822	-0.0714227012	-5.0948388536	 0.112452
H	 0.3252837312	-0.1578613043	-6.0544346407	 0.113972
50.2251	66.4988	96.5459	139.8304	191.1958	230.3865	273.078	327.6744	373.519	402.7146	444.2219	578.9727	592.9788	763.4042	773.5729	823.1618	837.0316	869.6656	929.6454	961.3828	972.8995	1032.2108	1059.1532	1071.0649	1080.6586	1104.9587	1129.0278	1141.6548	1197.8782	1225.517	1232.5924	1261.9816	1293.3382	1324.1834	1341.8031	1383.2487	1418.578	1421.9608	1468.9415	1477.9751	1496.7431	1508.6733	2353.8695	3015.0353	3025.165	3052.6293	3061.8431	3082.3243	3128.0093	3129.2568	3134.3978	3206.7445	3221.9151	3797.5473
OC(CCC1CC1)C#N	O[C@@H](CCC1CC1)C#N	
InChI=1S/C7H11NO/c8-5-7(9)4-3-6-1-2-6/h6-7,9H,1-4H2	InChI=1S/C7H11NO/c8-5-7(9)4-3-6-1-2-6/h6-7,9H,1-4H2/t7-/m0/s1
