15
gdb 21943	6.88404	1.07093	0.98112	2.5196	63.49	-0.2547	-0.0098	0.2449	1144.4836	0.119246	-399.790492	-399.782884	-399.78194	-399.823451	26.681	
O	-0.0901800732	 1.4540229322	-0.0988657116	-0.41722
C	 0.0483124698	 0.0442650959	-0.0962364609	-0.070555
C	-1.3479527461	-0.5387475597	 0.146479994	-0.297663
C	-1.3541309921	-2.0275285563	 0.1821187725	 0.424203
C	-1.6352881803	-2.9449947764	 1.1483023595	-0.340416
C	-1.4288435545	-4.1900535993	 0.4981577489	 0.036506
N	-1.0542243798	-4.0441575287	-0.7481699707	-0.14024
O	-1.0057043927	-2.6661620667	-0.9527142349	-0.210956
H	 0.768910699	 1.8414395239	-0.2897140988	 0.29078
H	 0.438504197	-0.3305444221	-1.0532092982	 0.111856
H	 0.7312499283	-0.2960736336	 0.6977507619	 0.095495
H	-1.7353927081	-0.1567626737	 1.0948238165	 0.128432
H	-2.012934373	-0.1784588651	-0.6466888618	 0.138243
H	-1.9440924235	-2.7605071598	 2.1634871237	 0.119459
H	-1.5416447507	-5.1887972106	 0.8962540299	 0.132074
52.4521	93.2091	121.5403	250.0213	312.6516	350.0237	374.5455	648.7565	670.9679	761.867	796.969	814.141	918.1259	922.4146	944.8049	1000.4921	1019.2405	1052.8926	1066.858	1085.3812	1205.7783	1213.8719	1242.0686	1265.1462	1307.4601	1330.6032	1383.8881	1456.9473	1480.7814	1515.2443	1530.7349	1637.6048	2980.1353	3020.7308	3049.9218	3106.7403	3242.8066	3280.9904	3834.12
OCCC1=CC=NO1	OCCc1ccno1	
InChI=1S/C5H7NO2/c7-4-2-5-1-3-6-8-5/h1,3,7H,2,4H2	InChI=1S/C5H7NO2/c7-4-2-5-1-3-6-8-5/h1,3,7H,2,4H2
