18
gdb 72803	2.73456	1.7263	1.31504	4.3463	77.76	-0.2402	-0.0342	0.206	1007.6599	0.149073	-401.978889	-401.971246	-401.970301	-402.010721	30.031	
C	-0.0314636345	 1.5287698507	-0.0792811285	-0.442347
C	-0.0502759995	 0.0022924843	-0.026867362	 0.287657
C	 0.7072688463	-0.6914483543	-1.220755182	-0.291615
C	 1.8160438038	-1.0638784255	-0.2044538872	-0.180421
N	 0.9446637819	-0.5861477561	 0.9087785714	-0.134761
C	 0.3105788787	-1.5432016837	 1.7177096008	 0.349118
O	 0.8692496201	-2.3962215076	 2.370114632	-0.365401
C	-1.1572438196	-1.3515888324	 1.5107744454	-0.190734
C	-1.3609484226	-0.5469460119	 0.4630718512	-0.134565
H	 0.9651679665	 1.8958277992	-0.3407754021	 0.126032
H	-0.737787368	 1.8910201016	-0.8343179359	 0.119654
H	-0.3106050018	 1.9525740682	 0.8894235593	 0.132445
H	 0.177283143	-1.5564625465	-1.6218995819	 0.119334
H	 0.9917061805	-0.0268216904	-2.0386107077	 0.110868
H	 2.0719229108	-2.1215323836	-0.1114159965	 0.134821
H	 2.7347530692	-0.4780459556	-0.2886063111	 0.117263
H	-1.8951113634	-1.8763042375	 2.1021569348	 0.12573
H	-2.3171560515	-0.248966929	 0.04769048	 0.11692
115.7978	201.6031	231.9998	239.2208	303.4016	328.0132	400.1093	538.0535	579.0019	653.0589	712.021	756.116	765.37	786.5822	847.9465	889.1443	942.2366	945.3886	977.6638	984.8879	1011.8313	1044.6871	1090.5083	1143.2547	1167.456	1193.3813	1222.0928	1227.0358	1253.3387	1289.6526	1311.3448	1358.0214	1406.0073	1481.1088	1486.6002	1492.804	1516.206	1638.0828	1810.6483	3035.41	3063.8312	3077.9843	3107.0262	3115.0719	3119.246	3140.2264	3195.6535	3239.4788
CC12CCN1C(=O)C=C2	C[C@@]12CCN1C(=O)C=C2	
InChI=1S/C7H9NO/c1-7-3-2-6(9)8(7)5-4-7/h2-3H,4-5H2,1H3	InChI=1S/C7H9NO/c1-7-3-2-6(9)8(7)5-4-7/h2-3H,4-5H2,1H3/t7-/m1/s1
