19
gdb 116977	8.2038	0.40046	0.39592	2.7441	84.49	-0.2468	-0.0277	0.2192	2691.6919	0.155223	-422.990596	-422.979599	-422.978655	-423.02992	35.906	
C	-0.1212547273	 1.312473413	 0.4693207029	-0.218954
O	-0.1487930286	-0.0948223923	 0.41118006	-0.228438
C	-1.1613351996	-0.5693655806	-0.4553803178	-0.202391
C	-1.1527807415	-2.0257107427	-0.4878110407	 0.057624
C	-1.1553489157	-3.2280875215	-0.5364794629	 0.10132
C	-1.171582641	-4.6843813064	-0.5629063271	-0.369013
C	-2.0646162964	-5.2946768582	 0.5431877709	-0.261325
C	-1.9645120041	-6.803246143	 0.5745085322	 0.155301
O	-2.9010224258	-7.5581537292	 0.5534684205	-0.231496
H	 0.6821365455	 1.59161633	 1.1544325358	 0.131805
H	 0.0798544827	 1.7598212982	-0.5173677516	 0.105331
H	-1.0707026204	 1.7262605703	 0.8454376343	 0.105251
H	-2.1508209678	-0.2083144331	-0.1231612978	 0.114229
H	-1.0114354604	-0.172176664	-1.4749730249	 0.114927
H	-1.5195439838	-5.0313930309	-1.5442087937	 0.144054
H	-0.1462691582	-5.0628059051	-0.4538488468	 0.138564
H	-1.7216132248	-4.9168012213	 1.5157251328	 0.137072
H	-3.1104920372	-5.0062478769	 0.4160142662	 0.133955
H	-0.9183493057	-7.1905404863	 0.623970528	 0.072184
16.1459	52.9003	59.2323	74.2673	100.9217	125.5075	233.1365	264.4808	286.1798	305.1707	382.2575	439.6994	518.8485	551.7433	755.4161	810.7502	851.4671	977.4377	990.4582	1027.5057	1075.9055	1092.3781	1137.6003	1179.8028	1182.6711	1198.3262	1220.7298	1253.2451	1263.8661	1304.748	1364.257	1411.5678	1431.1397	1461.2826	1477.4254	1477.9918	1484.9972	1496.3113	1516.8002	1839.5792	2376.4217	2845.6492	2942.5646	2959.1758	2968.7447	3011.2462	3015.951	3031.4653	3050.1284	3117.9984	3121.3943
COCC#CCCC=O	COCC#CCCC=O	
InChI=1S/C7H10O2/c1-9-7-5-3-2-4-6-8/h6H,2,4,7H2,1H3	InChI=1S/C7H10O2/c1-9-7-5-3-2-4-6-8/h6H,2,4,7H2,1H3
