25
gdb 59655	2.23964	1.26603	1.01224	1.3454	88.83	-0.2507	0.0739	0.3246	1350.1784	0.226808	-389.496104	-389.485445	-389.484501	-389.530927	41.088	
C	-0.2417459305	 1.5098433766	-0.890286504	-0.389886
C	-0.0640897697	 0.0984174405	-0.3119703553	 0.000475
C	 0.6347216385	 0.1525429525	 1.0552758103	-0.38901
C	-1.4076611727	-0.6226266748	-0.2118716962	 0.052881
C	-2.2964424472	-0.8387990156	-1.4684916932	-0.262481
C	-2.7490842906	-2.1948731521	-0.866773811	-0.279505
C	-1.4949839086	-2.1556216476	 0.0604995927	 0.386118
C	-0.3396013401	-2.9923400346	-0.4848819026	-0.45056
O	-1.7009716297	-2.4217327729	 1.4379825116	-0.481098
H	 0.7216776544	 2.023468183	-0.9770858854	 0.106813
H	-0.6985835568	 1.4839374489	-1.8847143941	 0.11208
H	-0.8849307074	 2.1186085375	-0.2434548768	 0.110582
H	 0.5769503212	-0.4649823307	-1.0047762085	 0.063499
H	 0.0643192223	 0.7765282878	 1.7535486783	 0.112333
H	 0.7206355187	-0.8396754252	 1.5068459823	 0.123981
H	 1.6389923011	 0.581429127	 0.9699544374	 0.102314
H	-2.0143356534	-0.1417280843	 0.5660392842	 0.076702
H	-3.068810306	-0.0947696793	-1.6721748827	 0.098707
H	-1.6977659748	-0.9713551304	-2.37562589	 0.096944
H	-3.6582133215	-2.0906668695	-0.2693160579	 0.104092
H	-2.8556555965	-3.0483478129	-1.5424777733	 0.085497
H	-0.1526255536	-2.7888950765	-1.543628575	 0.120781
H	 0.5838968336	-2.8064003543	 0.070489835	 0.125768
H	-0.5804846529	-4.0599396531	-0.3991539161	 0.102107
H	-1.7167720481	-3.3771450799	 1.5625310303	 0.270866
80.0627	119.9499	152.8373	213.7111	229.1866	252.4625	272.9486	282.6096	290.3668	321.176	351.1214	392.3618	431.6121	472.9244	528.7376	616.1362	728.6037	793.4495	879.2418	894.0611	896.847	929.5882	950.426	955.0157	972.6653	983.3302	1005.5629	1077.8305	1095.1893	1133.1136	1161.6668	1191.0692	1196.8049	1210.3791	1221.0879	1248.2796	1270.6399	1299.5282	1320.1647	1348.415	1368.8744	1398.9544	1401.9693	1408.7465	1422.4367	1478.0212	1485.2141	1489.1456	1494.6792	1497.1265	1500.3025	1504.4763	1509.4756	3001.7482	3021.2158	3023.419	3027.4677	3032.7671	3050.0137	3055.3199	3086.5298	3087.6083	3093.478	3100.0262	3103.794	3111.7985	3115.504	3119.7777	3796.2056
CC(C)C1CCC1(C)O	CC(C)[C@H]1CC[C@]1(C)O	
InChI=1S/C8H16O/c1-6(2)7-4-5-8(7,3)9/h6-7,9H,4-5H2,1-3H3	InChI=1S/C8H16O/c1-6(2)7-4-5-8(7,3)9/h6-7,9H,4-5H2,1-3H3/t7-,8+/m1/s1
