19
gdb 115735	2.82697	1.28725	1.05239	1.9825	71.93	-0.2458	0.0648	0.3106	1202.8047	0.157826	-460.098613	-460.089647	-460.088702	-460.132981	32.002	
C	 0.2100762523	 1.3447583246	 0.1744833528	-0.238916
O	-0.3701456388	 0.2098608044	-0.4317309901	-0.233318
C	 0.5211697424	-0.5126859638	-1.223325144	 0.096744
C	 1.5414186631	-1.4684640513	-0.5580531836	-0.109691
O	 1.093159935	-2.5542337603	-1.4044085538	-0.287154
C	-0.0627558994	-1.8069211191	-1.835646702	 0.02388
C	-1.3428722329	-2.3114202525	-1.2127127018	 0.078359
C	-1.4633869673	-3.7132879423	-0.7934847384	-0.176192
O	-1.2899960904	-2.6642201907	 0.1646714806	-0.229603
H	 1.0167146464	 1.0709477176	 0.8704761408	 0.113549
H	 0.6202325314	 2.0385072693	-0.576129056	 0.106442
H	-0.5790902787	 1.8512607449	 0.7340274031	 0.134512
H	 0.9919793355	 0.1373897441	-1.9757689466	 0.075149
H	 2.6067315915	-1.2589977139	-0.6988020339	 0.100791
H	 1.3208512687	-1.6605448991	 0.4979727271	 0.121269
H	-0.1657278059	-1.8132612724	-2.9287246055	 0.083986
H	-2.2401714935	-1.7688374159	-1.5127541779	 0.098941
H	-2.4415623114	-4.191593036	-0.7913288996	 0.110937
H	-0.604854158	-4.3694793876	-0.9118372212	 0.130316
75.0547	98.9289	120.9168	132.5916	194.9425	250.3576	271.2508	353.8175	442.0719	547.4788	603.6831	760.3132	790.0657	876.6324	891.6919	928.6591	973.8902	990.9643	1020.0006	1055.2296	1078.9334	1102.8017	1107.1375	1161.1353	1165.333	1167.9129	1180.4117	1186.2805	1237.3164	1268.0822	1279.4698	1286.7698	1334.1547	1364.3063	1402.1781	1423.8294	1483.2945	1488.7422	1502.3518	1507.6159	1516.8112	2975.8822	2989.4812	3023.1493	3026.2751	3032.6531	3089.4439	3092.7215	3109.3172	3123.5778	3191.4987
COC1COC1C1CO1	CO[C@H]1CO[C@H]1[C@H]1CO1	
InChI=1S/C6H10O3/c1-7-4-2-9-6(4)5-3-8-5/h4-6H,2-3H2,1H3	InChI=1S/C6H10O3/c1-7-4-2-9-6(4)5-3-8-5/h4-6H,2-3H2,1H3/t4-,5+,6+/m0/s1
