18
gdb 73794	2.18467	1.79466	1.02488	6.4123	77.59	-0.2159	-0.0133	0.2026	1142.4866	0.148442	-439.147614	-439.138841	-439.137896	-439.180878	33.003	
C	 0.0092508334	 1.5358930264	-0.0887890399	-0.522138
C	-0.0156848949	 0.0290032331	-0.0800038701	 0.046272
C	-1.1743133248	-0.6760856571	-0.0382892128	 0.277528
N	-2.4135725772	-0.0865607029	-0.0398343818	-0.568743
C	-1.1474310745	-2.1800661915	-0.0058023575	-0.323487
C	 0.1375597111	-2.662458199	-0.6626614696	-0.079217
O	 1.2847982962	-2.032284239	-0.102616954	-0.23813
C	 1.2773228585	-0.6638111736	 0.0063593263	 0.375951
O	 2.3316181744	-0.1085831788	 0.2060049272	-0.355645
H	 1.0438638353	 1.8795230252	-0.0975884627	 0.162629
H	-0.5039278779	 1.9485932999	-0.9664608638	 0.119134
H	-0.4720929408	 1.9630423019	 0.8027812662	 0.111708
H	-2.4727413999	 0.8887643407	 0.2078087781	 0.261315
H	-3.1987414844	-0.6429255915	 0.2570350042	 0.256586
H	-1.2065436587	-2.5337868276	 1.0324342566	 0.13096
H	-2.0113699267	-2.5923092231	-0.5403563706	 0.114796
H	 0.2852805392	-3.7353827234	-0.5187760289	 0.118818
H	 0.0992845416	-2.4598152198	-1.7417332669	 0.111663
100.3733	116.5332	154.2177	225.4498	293.754	308.3105	349.6559	393.6605	444.4069	463.6779	492.6911	547.0658	600.2827	674.8266	685.9982	773.2817	873.6558	926.7098	951.7361	1048.5461	1059.6555	1076.0308	1087.3513	1123.2043	1205.3324	1234.4437	1282.483	1286.3882	1343.0998	1390.6084	1423.7483	1430.1351	1466.3156	1491.7887	1501.0814	1506.1738	1648.188	1691.9863	1799.0471	3000.7162	3013.6174	3020.5601	3049.6651	3066.3991	3101.79	3147.6435	3587.0872	3698.9541
CC1=C(N)CCOC1=O	CC1=C(N)CCOC1=O	
InChI=1S/C6H9NO2/c1-4-5(7)2-3-9-6(4)8/h2-3,7H2,1H3	InChI=1S/C6H9NO2/c1-4-5(7)2-3-9-6(4)8/h2-3,7H2,1H3
