14
gdb 50684	2.22234	1.7618	1.18603	3.3867	61.49	-0.2711	-0.0522	0.2189	1007.6915	0.100229	-473.820678	-473.812625	-473.811681	-473.854541	27.805	
O	 0.5705758515	-0.1725976788	-0.0254633393	-0.22452
C	 0.204830747	 0.968975319	-0.073023969	 0.140444
C	 1.1564493054	 2.163827131	 0.0702338394	-0.039881
O	 2.4546339132	 1.7821899886	 0.4427708337	-0.215835
C	 3.1502003116	 1.5752216675	-0.7623920689	 0.010599
O	 2.7246129762	 2.6143332391	-1.6366907469	-0.242196
C	 1.3951559714	 2.94285438	-1.2817755094	-0.050379
C	 0.4439183463	 2.5878175487	-2.3495027133	 0.279368
N	-0.3159977316	 2.3278995776	-3.1799829837	-0.314084
H	-0.8626007854	 1.2468845657	-0.2096291304	 0.108094
H	 0.7508481996	 2.8352634921	 0.8348537456	 0.130072
H	 4.2211797421	 1.6859081101	-0.5821249294	 0.13932
H	 2.9153378042	 0.5908402745	-1.1890370598	 0.130034
H	 1.3339887584	 4.0241244551	-1.1201984586	 0.148965
39.9387	85.6855	162.0297	195.8969	243.8734	314.4737	334.6431	497.0636	562.8511	684.9693	732.2129	759.5389	814.1445	888.6824	957.6139	983.2209	1037.8809	1041.6773	1093.824	1145.9128	1189.7398	1224.9656	1245.2181	1295.0957	1346.7723	1367.276	1406.1075	1426.4402	1544.923	1844.5054	2358.1456	2904.5331	3021.7162	3053.7623	3066.8887	3123.3519
O=CC1OCOC1C#N	O=C[C@H]1OCO[C@H]1C#N	
InChI=1S/C5H5NO3/c6-1-4-5(2-7)9-3-8-4/h2,4-5H,3H2	InChI=1S/C5H5NO3/c6-1-4-5(2-7)9-3-8-4/h2,4-5H,3H2/t4-,5+/m0/s1
