16
gdb 50334	3.94275	1.37357	1.2526	4.531	69.34	-0.2244	0.0276	0.252	1000.0723	0.125945	-437.861051	-437.854277	-437.853333	-437.89287	26.34	
O	-0.023575128	-0.006673105	-0.0044204785	-0.338765
C	 0.0408555143	 1.205481294	 0.0062607495	 0.142186
N	 1.1949261343	 1.9150581713	 0.0806225541	-0.034164
C	 2.5235681789	 1.2949539464	-0.0041127135	-0.160951
C	 3.3599646967	 2.4669023544	-0.5028095668	 0.05603
O	 2.8292096694	 2.8548855868	-1.8135496001	-0.296643
C	 2.0985620231	 3.9064313528	-1.1914741458	 0.08144
C	 2.7571959523	 3.7387367535	 0.147917916	-0.186055
C	 1.3121582202	 3.350418094	-0.0033250837	-0.045301
H	-0.8502178669	 1.8641015275	-0.0239125932	 0.069133
H	 2.8639948292	 0.926874559	 0.9732549694	 0.116932
H	 2.5072362428	 0.4617680044	-0.7095530113	 0.149804
H	 4.4398879742	 2.3233190967	-0.5214363509	 0.097987
H	 1.8279040966	 4.7726812079	-1.7837984025	 0.116711
H	 3.1968053781	 4.4160705828	 0.8663011609	 0.111398
H	 0.5238782847	 3.9444086135	 0.4421531764	 0.120259
46.7197	219.0441	247.8417	353.8819	386.2924	510.8763	552.378	685.3795	746.1344	782.7453	801.959	824.9193	858.1771	892.2658	917.6366	989.0438	998.5526	1018.9782	1029.3383	1037.6561	1050.4124	1082.6238	1111.821	1178.588	1212.8409	1223.13	1254.3762	1277.1942	1315.0397	1356.891	1364.043	1422.6715	1456.2032	1495.524	1791.8418	2931.7096	3019.1639	3117.1338	3125.8702	3184.6258	3198.0586	3213.6766
O=CN1CC2OC3C2C13	O=CN1C[C@H]2O[C@@H]3[C@H]2[C@H]13	
InChI=1S/C6H7NO2/c8-2-7-1-3-4-5(7)6(4)9-3/h2-6H,1H2	InChI=1S/C6H7NO2/c8-2-7-1-3-4-5(7)6(4)9-3/h2-6H,1H2/t3-,4-,5+,6-/m1/s1
