21
gdb 73690	2.27378	1.7402	1.35541	2.0804	76.48	-0.2422	0.0746	0.3168	1050.5218	0.185033	-424.245552	-424.237617	-424.236673	-424.277714	31.989	
O	-0.0873663436	 1.3953492191	 0.0306709973	-0.489279
C	 0.0296751853	-0.0232242702	 0.0030587241	 0.408246
C	 0.7115723063	-0.5537664871	-1.2765120624	-0.28942
C	-0.0456764705	-1.8492119942	-1.6124566039	-0.206563
C	-1.5070367151	-1.5034652116	-1.2637106549	-0.236632
C	-1.4051299171	-0.6365933729	 0.0070217569	-0.035399
C	-1.4589344921	-1.4137396839	 1.3403131212	-0.098935
O	-0.4612724971	-0.8427688038	 2.1732092951	-0.240397
C	 0.6330349275	-0.5688373899	 1.3189390131	-0.134396
H	 0.8006906864	 1.767902886	 0.0178530859	 0.273055
H	 0.5566700441	 0.1872296659	-2.0685976601	 0.104218
H	 1.7912751363	-0.6992489855	-1.1600097376	 0.088567
H	 0.0866142717	-2.1661015812	-2.6507258348	 0.099163
H	 0.3104030207	-2.6708583476	-0.9791442224	 0.101748
H	-1.9513626625	-0.9211937774	-2.0783993639	 0.103211
H	-2.1348415618	-2.3893501484	-1.1229351838	 0.095383
H	-2.1321098535	 0.1770440397	 0.0164031861	 0.091425
H	-2.4171720794	-1.3308591445	 1.8590416861	 0.109816
H	-1.2516440097	-2.4850486049	 1.1699686868	 0.080145
H	 1.2153083278	-1.4872641398	 1.1266124713	 0.078052
H	 1.2832653163	 0.1587508921	 1.8135103097	 0.097993
95.7644	185.0229	255.8951	267.6068	287.4291	368.2235	383.284	437.5688	544.1284	585.5308	610.0281	651.7831	786.9654	829.7324	863.5498	912.3615	931.6957	949.0244	972.0421	974.8736	985.7185	1037.7598	1062.5921	1071.1612	1114.6982	1134.2739	1146.4583	1196.3526	1210.2129	1234.0332	1264.2473	1273.4727	1288.7094	1324.6926	1326.6609	1334.0268	1348.6517	1360.5784	1370.548	1411.3419	1484.5104	1489.4043	1495.7063	1505.5058	1517.6231	2943.4165	2951.8235	3033.9393	3035.7472	3040.4943	3078.9756	3079.2618	3082.5146	3088.3768	3094.7955	3104.7825	3804.7375
OC12CCCC1COC2	O[C@]12CCC[C@H]1COC2	
InChI=1S/C7H12O2/c8-7-3-1-2-6(7)4-9-5-7/h6,8H,1-5H2	InChI=1S/C7H12O2/c8-7-3-1-2-6(7)4-9-5-7/h6,8H,1-5H2/t6-,7-/m0/s1
