23
gdb 40945	3.32199	1.2377	1.08984	0.2397	91.84	-0.2317	0.0278	0.2595	1231.5828	0.208571	-351.168528	-351.160377	-351.159432	-351.200999	33.19	
C	 0.1410110183	 1.3525081846	-0.6068760169	-0.212958
C	 1.4168282038	 1.6207354824	 0.2326315707	-0.273242
C	 1.3170845097	 0.1781165484	 0.832954742	 0.357674
C	-0.1661523995	 0.1430285533	 0.312478104	-0.25674
C	 2.2302330067	-0.8172726072	 0.0993001163	-0.26515
C	 2.1817692028	-2.2067175356	 0.7457034787	-0.216147
C	 2.6716640329	-2.1450587997	 2.199220734	-0.245442
C	 2.0957757402	-0.960721622	 2.9304356236	-0.067984
C	 1.4897953897	 0.0576124184	 2.3184950557	-0.12061
H	-0.6055194454	 2.1488828492	-0.6477823158	 0.094617
H	 0.3721055327	 1.0510466449	-1.6319327173	 0.101559
H	 2.3389303775	 1.8616347548	-0.3044036257	 0.092599
H	 1.2524395058	 2.3870877278	 0.9964872771	 0.094055
H	-0.875587324	 0.3977677904	 1.1050558264	 0.096205
H	-0.4961179827	-0.7886430123	-0.1568893669	 0.093985
H	 1.9547438529	-0.8741598095	-0.960276351	 0.087149
H	 3.2616206282	-0.4401339281	 0.1349341334	 0.092285
H	 1.1490403247	-2.5781407817	 0.7281106825	 0.099876
H	 2.7822695684	-2.9197631439	 0.1707886334	 0.088829
H	 2.413242458	-3.0704278849	 2.7295416002	 0.099508
H	 3.7709301787	-2.09246769	 2.2258930362	 0.105277
H	 2.1864577759	-0.9577061521	 4.0146335807	 0.080469
H	 1.0732855347	 0.8690823429	 2.9141054989	 0.074186
100.849	124.5705	207.1953	258.2115	318.7879	361.7299	403.0504	461.6753	512.1822	606.5221	691.8224	711.0285	745.1302	798.5326	843.333	868.7445	875.9811	896.3178	944.8231	959.6384	970.6272	984.0777	999.1949	1007.5279	1048.4112	1070.4027	1107.934	1121.336	1158.3362	1197.2485	1208.2703	1221.3272	1254.8958	1256.649	1271.969	1277.6251	1294.1499	1322.1872	1364.1309	1371.4347	1375.3897	1425.2464	1471.1425	1473.6537	1483.8786	1486.2301	1494.8555	1506.324	1715.2313	2991.9736	3010.1331	3020.8918	3039.0582	3043.2916	3047.6996	3056.8272	3063.585	3069.9321	3089.4582	3096.4787	3116.2305	3123.4826	3153.2301
C1CC2(C1)CCCC=C2	C1CC2(C1)CCCC=C2	
InChI=1S/C9H14/c1-2-5-9(6-3-1)7-4-8-9/h2,5H,1,3-4,6-8H2	InChI=1S/C9H14/c1-2-5-9(6-3-1)7-4-8-9/h2,5H,1,3-4,6-8H2
