20
gdb 32438	3.08149	1.19308	0.87563	1.5762	84.16	-0.1819	0.0388	0.2207	1358.1502	0.169973	-403.182007	-403.172072	-403.171128	-403.216834	35.885	
C	 0.0838027936	 1.4193545461	 0.0570028605	-0.324602
N	-0.1291444282	-0.0120310674	-0.0567209931	-0.382816
C	 0.5895197713	-0.6840002687	-1.0447810197	 0.203935
C	 1.303452806	-0.1681959069	-2.0848422732	-0.12859
O	 1.7886174363	-1.1864384453	-2.8668904074	-0.198719
C	 1.3885109524	-2.3574173557	-2.3037843749	 0.29058
C	 1.82236989	-3.6006559546	-2.9957887395	-0.491044
C	 0.646701259	-2.121458642	-1.1839718537	 0.066587
C	-0.0065774194	-3.1037239123	-0.2636884538	-0.523237
H	 1.1416448922	 1.6972563024	 0.1979785066	 0.108298
H	-0.2715993545	 1.9135577324	-0.854223365	 0.132155
H	-0.49676331	 1.8081788156	 0.8969428042	 0.120255
H	-0.0947604079	-0.4860006139	 0.8354249772	 0.231513
H	 1.5355310247	 0.8296282907	-2.4121217533	 0.11867
H	 1.4794851473	-3.6176764395	-4.0366336366	 0.136322
H	 2.9148703549	-3.6922227945	-3.0116109143	 0.135041
H	 1.4175741734	-4.4802543311	-2.4906803733	 0.129481
H	 0.4257219629	-3.0739482795	 0.7457804224	 0.118373
H	-1.0783562057	-2.8969889376	-0.1580766828	 0.132616
H	 0.0996065214	-4.1290428982	-0.6273444902	 0.125184
85.9392	93.0465	136.7626	154.1225	175.7956	224.0209	258.3768	279.8595	323.4673	374.7833	501.0226	542.5383	610.9315	631.3317	640.653	708.6619	731.3574	764.08	929.5312	968.0066	1057.5709	1059.9886	1065.8483	1127.3267	1155.126	1158.331	1175.8067	1208.9168	1261.0819	1325.4288	1396.2084	1419.9513	1423.9377	1457.8063	1471.4692	1480.5476	1481.2042	1490.5745	1498.0354	1506.7064	1525.4297	1620.4322	1693.1678	2965.5212	3010.5425	3027.4665	3058.4941	3058.8286	3075.6849	3110.2002	3116.1749	3127.447	3291.8174	3572.3553
CNC1=COC(C)=C1C	CNc1coc(C)c1C	
InChI=1S/C7H11NO/c1-5-6(2)9-4-7(5)8-3/h4,8H,1-3H3	InChI=1S/C7H11NO/c1-5-6(2)9-4-7(5)8-3/h4,8H,1-3H3
