17
gdb 16406	3.5455	2.20146	1.73705	3.9074	67.83	-0.2361	0.0362	0.2723	793.8521	0.146248	-363.897879	-363.891547	-363.890603	-363.928179	25.482	
O	-0.0063382156	-0.0431951655	 0.0226653566	-0.386794
C	 0.0075311635	 1.1717627688	 0.01671041	 0.398035
N	-1.134042079	 1.9318994882	 0.048880219	-0.299786
C	-1.1417628432	 3.3900994868	 0.0407063219	-0.163327
C	 0.2988998766	 3.9027412564	-0.0097599729	-0.015282
C	 1.0892680065	 3.1326307492	-1.1033626814	-0.228234
C	 1.2731417694	 2.0174214109	-0.0307997596	-0.113585
C	 1.1602529023	 3.1453408492	 1.0382234031	-0.228265
H	-2.0040185488	 1.4224829168	 0.0802441801	 0.245405
H	-1.701407406	 3.7621769647	-0.8290671793	 0.107986
H	-1.6431670358	 3.7723917988	 0.9410316866	 0.107938
H	 0.3129087308	 4.9944463912	-0.0167131964	 0.070327
H	 0.5739755381	 2.8743086824	-2.0323968178	 0.105078
H	 2.0384213509	 3.6223386588	-1.3343235657	 0.104852
H	 2.1467541604	 1.3686989733	-0.0559448886	 0.085797
H	 2.1224834448	 3.6372696216	 1.199973717	 0.104814
H	 0.7077106152	 2.8982821783	 2.0023459773	 0.105041
122.3843	234.7651	368.2621	398.2395	447.4811	480.6718	544.3523	640.9013	754.2691	771.262	833.3657	840.3149	884.6374	921.5945	944.8388	953.0297	1007.822	1043.9479	1094.2569	1098.3932	1111.2396	1132.8974	1149.1521	1226.2801	1251.2142	1261.7778	1296.8458	1300.4493	1327.2752	1344.7755	1393.291	1474.4472	1481.8495	1515.0509	1528.3813	1805.6868	2995.6452	3023.4499	3055.6386	3058.9396	3089.7181	3113.3748	3114.7018	3135.1048	3623.3397
O=C1NCC2CC1C2	O=C1NC[C@@H]2C[C@H]1C2	
InChI=1S/C6H9NO/c8-6-5-1-4(2-5)3-7-6/h4-5H,1-3H2,(H,7,8)	InChI=1S/C6H9NO/c8-6-5-1-4(2-5)3-7-6/h4-5H,1-3H2,(H,7,8)/t4-,5+
