22
gdb 77928	2.18468	1.39518	1.33632	1.6354	83.2	-0.2341	0.072	0.3061	1173.6866	0.192481	-404.271197	-404.261139	-404.260195	-404.305611	37.781	
C	 0.4739028356	 1.4543170521	-1.1750639201	-0.45154
C	 0.3621335996	-0.0118142128	-0.7779769509	 0.018001
N	 1.5754758923	-0.9783144128	-0.8736904869	-0.189795
C	 2.0396764881	-0.4279980479	 0.501421445	 0.06291
C	 2.849761365	 0.8669568805	 0.5631742127	-0.46034
C	 0.5122100935	-0.5659507479	 0.6652298538	 0.288297
O	-0.1737298744	-0.2290547906	 1.8243632899	-0.466599
C	 0.7238533929	-1.9527317305	-0.0230967818	 0.036341
C	-0.3611516697	-2.7812592991	-0.6876376164	-0.460883
H	 1.0202502418	 1.5481929803	-2.1201250808	 0.13097
H	-0.5332257234	 1.8503267412	-1.3431166093	 0.112177
H	 0.9522121701	 2.0934692843	-0.4359772411	 0.128923
H	-0.4700367574	-0.4321158416	-1.3443532805	 0.065997
H	 2.5869261934	-1.207352152	 1.0403355981	 0.072528
H	 2.3750232701	 1.6139080169	 1.2063471494	 0.133633
H	 3.8380696897	 0.6593062208	 0.9824801663	 0.115608
H	 3.0052967838	 1.3065454837	-0.422968974	 0.135827
H	-1.1142438656	-0.3858986161	 1.6847450646	 0.279428
H	 1.381670302	-2.6266816202	 0.5347379204	 0.072695
H	-1.1598099816	-2.2060703314	-1.1611210574	 0.119148
H	 0.0833301379	-3.4253174849	-1.4537747197	 0.135894
H	-0.8230333137	-3.4334292519	 0.0617195288	 0.120781
84.2658	128.4825	144.8428	194.2182	200.0086	215.2675	254.7398	268.2601	334.5009	389.8134	421.7278	474.0296	532.6927	619.5673	653.8988	730.5312	772.782	810.695	854.1482	887.2137	912.9071	1001.9314	1034.0888	1071.1894	1073.2778	1107.856	1117.4485	1139.5689	1165.4028	1180.2454	1188.3407	1208.7004	1247.1978	1294.3631	1355.5172	1398.0546	1403.9035	1407.9318	1423.0301	1443.6843	1482.012	1486.6694	1495.281	1499.1285	1505.0027	1511.9341	1523.0178	3036.9534	3040.1743	3041.2169	3049.7528	3055.4713	3084.1462	3096.3259	3098.3714	3108.5718	3121.549	3138.3229	3166.1517	3803.0516
CC1N2C(C)C1(O)C2C	C[C@H]1N2[C@@H](C)[C@]1(O)[C@H]2C	
InChI=1S/C7H13NO/c1-4-7(9)5(2)8(4)6(7)3/h4-6,9H,1-3H3	InChI=1S/C7H13NO/c1-4-7(9)5(2)8(4)6(7)3/h4-6,9H,1-3H3/t4-,5-,6+/m1/s1
