18
gdb 102893	3.02712	0.76657	0.63175	4.8485	77.95	-0.2612	0.0063	0.2676	1696.6287	0.146885	-398.142543	-398.132398	-398.131453	-398.17894	34.725	
C	-0.2414628575	 1.5295662461	-0.0936554885	-0.332572
N	 0.1143798656	 0.1208483974	 0.0708471801	-0.28922
C	 0.7488780999	-0.4769262654	-1.099647309	-0.119918
C	 1.2205155848	-1.9185710821	-0.8173822644	-0.198443
C	 2.3931714086	-1.973370165	 0.183446365	-0.368943
C	 2.9118955315	-3.3305486413	 0.3388298834	 0.264808
N	 3.3131424525	-4.4078556364	 0.4519980905	-0.291264
C	-0.2124168166	-0.5004705464	-2.2179064344	 0.30896
N	-0.947317132	-0.5217321167	-3.1086930701	-0.319949
H	 0.6042369869	 2.1722344375	-0.3926873381	 0.104217
H	-1.0220150094	 1.6229906581	-0.8541138923	 0.157281
H	-0.6450987446	 1.9047782013	 0.8497711013	 0.132668
H	 0.7380803068	 0.024803224	 0.8635631654	 0.228514
H	 1.6185013885	 0.1090861907	-1.4600951297	 0.105217
H	 0.3758763107	-2.499297063	-0.4379111559	 0.152807
H	 1.5372150242	-2.3728072924	-1.7595738694	 0.148639
H	 3.2121462809	-1.3261012891	-0.1532756987	 0.158832
H	 2.0902013193	-1.6177606474	 1.1745991248	 0.158368
52.1264	66.2687	92.7755	112.7558	176.7994	204.0707	236.6266	288.1788	311.386	394.4807	453.3338	482.8915	575.9767	611.3854	723.2731	772.7359	858.843	947.2708	982.8984	1036.6835	1043.544	1070.1976	1138.7849	1161.0851	1180.0127	1234.9025	1280.1974	1314.2645	1349.5813	1359.5581	1392.1463	1461.5033	1466.3159	1483.0141	1485.6299	1494.6949	1519.0228	2363.8224	2367.2271	2896.2696	2961.7466	3037.7467	3074.6374	3076.2564	3082.995	3126.1239	3126.6108	3546.2034
CNC(CCC#N)C#N	CN[C@@H](CCC#N)C#N	
InChI=1S/C6H9N3/c1-9-6(5-8)3-2-4-7/h6,9H,2-3H2,1H3	InChI=1S/C6H9N3/c1-9-6(5-8)3-2-4-7/h6,9H,2-3H2,1H3/t6-/m0/s1
