21
gdb 65567	3.32537	1.03682	0.98297	2.147	78.58	-0.2446	0.077	0.3216	1317.7858	0.180899	-424.177846	-424.16866	-424.167716	-424.212481	34.495	
C	 0.2216996269	 1.5926330394	-0.2284587503	-0.46046
C	-0.0631154277	 0.1143787226	 0.0081646441	 0.370243
C	 0.8993864135	-0.8404467546	-0.7545155975	-0.116646
O	 1.6628181798	-1.0640080072	 0.4482460051	-0.275396
C	 0.6312066691	-0.4625612844	 1.2579341428	-0.116732
O	-1.4393456814	-0.2114771221	 0.003128498	-0.296978
C	-2.1880430705	 0.2152838886	-1.0960400165	 0.127775
C	-2.181297834	-0.5792584661	-2.3803698992	-0.295112
C	-3.3731088667	-0.6244640663	-1.4444843861	-0.285869
H	 1.2877493231	 1.7874572525	-0.0808195059	 0.132232
H	-0.034402816	 1.8972757637	-1.2475229611	 0.123565
H	-0.3448241163	 2.2109477206	 0.4755386716	 0.124193
H	 0.4077440207	-1.7574383332	-1.1029205741	 0.095243
H	 1.5105029092	-0.4162428382	-1.5590994094	 0.099091
H	 1.0354877175	 0.2473675279	 1.9878113977	 0.100702
H	 0.0106408701	-1.210873556	 1.7669867559	 0.105094
H	-2.298655036	 1.2946423873	-1.1783600808	 0.090767
H	-2.2707613287	-0.0432685568	-3.3191152267	 0.114092
H	-1.5579674039	-1.4642511886	-2.4215423882	 0.12227
H	-3.505788976	-1.5296279396	-0.8632316648	 0.126916
H	-4.2921787927	-0.1290645195	-1.7357744545	 0.115011
40.6593	97.0077	111.4892	180.5234	263.258	299.6099	334.0409	381.4817	400.7192	417.1381	500.3867	677.4605	758.1757	818.065	828.9048	837.5433	905.5878	925.2226	937.7291	959.574	995.9408	1011.5954	1025.1376	1027.0012	1055.1854	1073.3382	1135.5772	1152.0707	1171.411	1186.113	1191.4436	1195.152	1235.0692	1249.4097	1274.8052	1300.1103	1374.6739	1399.813	1406.2799	1454.1757	1488.9255	1494.1514	1498.6505	1504.6171	1526.9774	3010.1249	3022.0021	3037.6731	3069.6662	3073.8782	3109.2363	3115.8045	3121.0828	3138.9878	3143.7549	3223.6724	3237.442
CC1(COC1)OC1CC1	CC1(COC1)OC1CC1	
InChI=1S/C7H12O2/c1-7(4-8-5-7)9-6-2-3-6/h6H,2-5H2,1H3	InChI=1S/C7H12O2/c1-7(4-8-5-7)9-6-2-3-6/h6H,2-5H2,1H3
