25
gdb 103177	1.81419	1.46809	1.11483	1.286	88.61	-0.2468	0.0719	0.3187	1308.0419	0.226834	-389.494787	-389.484004	-389.48306	-389.529618	41.311	
C	-0.2019091153	 1.0020918318	-1.4257072452	-0.421069
C	-0.4991860576	-0.5002553095	-1.3237452889	-0.21185
C	-1.9002889616	-0.8499877156	-0.8012978388	 0.362262
O	-2.1685012074	-0.1879335677	 0.4258521563	-0.488158
C	-3.0638536376	-0.8153271446	-1.8635529807	-0.001373
C	-3.0326439813	 0.0580096519	-3.1101421059	-0.425175
C	-2.9013160137	-2.3493063194	-2.0210004607	-0.262976
C	-2.164391121	-2.3806968075	-0.6577803154	 0.02446
C	-1.0273845562	-3.3658587251	-0.4333748153	-0.426736
H	 0.8045526064	 1.1670960715	-1.8219083984	 0.118089
H	-0.9032658348	 1.5236555724	-2.0832763222	 0.122166
H	-0.2351811757	 1.4808471779	-0.4408855612	 0.114791
H	-0.3488921569	-0.970464873	-2.3026297912	 0.09565
H	 0.2365355986	-0.952932982	-0.6490448025	 0.104131
H	-2.1013300366	 0.7615851812	 0.2810136984	 0.273852
H	-3.9789989203	-0.6128119862	-1.2960704496	 0.07599
H	-2.1123223922	-0.0832342248	-3.6869289909	 0.112788
H	-3.8706616933	-0.1953978571	-3.7698706658	 0.113956
H	-3.1211604433	 1.123593017	-2.8709439452	 0.110158
H	-3.8093421978	-2.9484270928	-2.1237497282	 0.093309
H	-2.2283776522	-2.5989586828	-2.8496146349	 0.091231
H	-2.901525208	-2.4840503709	 0.1455337957	 0.082815
H	-0.2786934813	-3.3178590178	-1.2310078319	 0.10974
H	-0.5188070448	-3.1794626769	 0.5189195385	 0.120669
H	-1.4108291661	-4.3918822001	-0.406231936	 0.111283
96.7701	122.2519	165.1782	203.4251	215.0963	234.6813	243.6936	257.4939	291.3998	306.8924	325.3598	407.8825	439.3898	488.0049	529.5422	591.6009	677.1681	776.5719	829.358	876.6434	894.3109	908.7031	932.3259	964.1355	1007.2654	1039.2523	1055.7514	1070.9618	1114.1682	1152.0932	1161.8256	1166.685	1195.1905	1213.3192	1251.7784	1256.3934	1302.8229	1311.27	1328.8519	1356.883	1388.3912	1397.8869	1405.1921	1409.5378	1413.6911	1474.8433	1494.0829	1494.5193	1496.8899	1498.2602	1501.3376	1505.9647	1514.7336	3023.4657	3026.0235	3031.282	3037.3744	3037.8551	3043.3261	3052.0877	3066.2203	3083.2594	3090.9869	3093.9042	3096.5069	3099.0571	3102.7421	3116.0097	3810.5806
CCC1(O)C(C)CC1C	CC[C@@]1(O)[C@@H](C)C[C@H]1C	
InChI=1S/C8H16O/c1-4-8(9)6(2)5-7(8)3/h6-7,9H,4-5H2,1-3H3	InChI=1S/C8H16O/c1-4-8(9)6(2)5-7(8)3/h6-7,9H,4-5H2,1-3H3/t6-,7+,8+
