16
gdb 34161	3.93185	1.57398	1.38526	1.1951	78.11	-0.2228	0.0316	0.2544	935.6538	0.124978	-363.479175	-363.472613	-363.471669	-363.50986	27.393	
C	 0.0361628598	-1.1717142488	-0.0163876326	-0.353506
C	 0.0052047025	 0.0313776949	 0.0018673234	 0.039504
C	-0.05833174	 1.4620170943	 0.0274269324	 0.259179
C	-1.0339805033	 2.2922091376	 0.9014587493	-0.226396
N	-0.8569779283	 3.4245012672	-0.0735499196	-0.164827
C	 0.6126281693	 3.7018130215	-0.0562763025	-0.03589
C	 0.912838484	 2.9782219177	-1.3352496187	-0.103359
C	 1.2473655832	 2.3111012089	-0.0124680982	-0.140315
C	-0.507462353	 2.4008480778	-1.1676545256	-0.067347
H	 0.0680820836	-2.2328467262	-0.0324707256	 0.181227
H	-2.0604854403	 1.9191543861	 0.8512120884	 0.118269
H	-0.7543588113	 2.5109522981	 1.9356526133	 0.107544
H	 1.0432407873	 4.5933883137	 0.3798053163	 0.097701
H	 1.5178269074	 3.2377544016	-2.1920337582	 0.099491
H	 2.2091982243	 2.0826447572	 0.424092273	 0.099156
H	-1.2509610052	 2.1490950681	-1.9204848251	 0.089568
144.408	155.4712	407.8695	444.992	506.043	526.6409	579.2223	617.7494	636.1943	750.7879	759.9618	790.1513	810.9028	836.2163	855.5184	889.5885	904.972	920.8621	975.4073	1005.8069	1025.9367	1038.2082	1052.9524	1077.1985	1107.3764	1120.0325	1176.3173	1189.7229	1216.1306	1231.3384	1256.5023	1308.8751	1351.2017	1494.9687	2229.9335	3055.8721	3120.6162	3143.8205	3200.6018	3213.5344	3226.7171	3502.3483
C#CC12CN3C4C(C14)C23	C#C[C@@]12CN3[C@@H]4[C@@H]([C@H]14)[C@@H]23	
InChI=1S/C8H7N/c1-2-8-3-9-6-4(5(6)8)7(8)9/h1,4-7H,3H2	InChI=1S/C8H7N/c1-2-8-3-9-6-4(5(6)8)7(8)9/h1,4-7H,3H2/t4-,5+,6-,7+,8-/m1/s1
