19
gdb 53519	1.931	1.08397	0.72614	3.9146	81.33	-0.2553	0.0145	0.2698	1575.6361	0.155462	-423.035023	-423.024146	-423.023201	-423.072905	36.606	
C	-0.2638361021	 1.4178940827	 0.1299680632	-0.499816
C	-0.1634035855	-0.0338040746	 0.0773513979	 0.12139
C	-0.0674465355	-1.2337771092	 0.0421416122	 0.009546
C	 0.0022676686	-2.6891831402	 0.0063557745	-0.345972
C	-1.3863866412	-3.3566109239	-0.0470141968	 0.111263
C	-1.3021958598	-4.8720978395	-0.1628933487	-0.397557
O	-2.0994808257	-3.056227111	 1.1637472934	-0.187298
C	-2.9969292361	-2.0510683689	 1.1473545603	 0.175846
O	-3.5858468938	-1.6982989988	 2.1247689954	-0.28272
H	 0.6683322559	 1.8650649413	 0.4920319181	 0.151876
H	-0.4731695352	 1.8411310792	-0.8585109902	 0.1476
H	-1.0665270077	 1.733536044	 0.80506871	 0.158142
H	 0.5760333297	-3.0217931703	-0.8680890872	 0.128845
H	 0.5293039862	-3.0680052609	 0.8911018999	 0.141004
H	-1.9438213201	-2.9437528602	-0.8981305747	 0.096705
H	-0.7595548209	-5.2925566557	 0.6889859104	 0.136358
H	-2.3034485401	-5.3093533112	-0.1803478594	 0.131472
H	-0.7818970324	-5.1566838421	-1.082095435	 0.122637
H	-3.1345370343	-1.6144500207	 0.1406213266	 0.080678
34.4174	43.1055	70.1023	100.3789	169.0068	209.7623	218.5828	247.8016	276.5774	306.159	384.3366	402.3852	483.9136	523.8258	611.9564	773.1511	879.516	906.0988	951.4329	1035.664	1052.1048	1054.6485	1078.0357	1120.8072	1140.1418	1169.9961	1195.3595	1253.8274	1307.8352	1375.9377	1378.9286	1411.0463	1415.2653	1443.2506	1459.5578	1478.0411	1478.755	1485.964	1497.4541	1862.6251	2373.0554	2965.1493	3019.4452	3024.6384	3029.5887	3046.4907	3061.0568	3090.5952	3093.0954	3120.9523	3128.1788
CC#CCC(C)OC=O	CC#CC[C@@H](C)OC=O	
InChI=1S/C7H10O2/c1-3-4-5-7(2)9-6-8/h6-7H,5H2,1-2H3	InChI=1S/C7H10O2/c1-3-4-5-7(2)9-6-8/h6-7H,5H2,1-2H3/t7-/m1/s1
