20
gdb 58611	2.32768	1.40399	1.12195	2.0512	74.7	-0.2447	0.0193	0.2639	1186.9766	0.169119	-440.309617	-440.299694	-440.29875	-440.344324	36.977	
C	-0.1380251662	 1.5675957189	 0.6306051473	-0.400945
C	-0.0522730187	 0.1465354584	 0.045941679	-0.031455
C	 0.9635744051	-0.7048391726	 0.8142944943	-0.42186
C	-1.4466005977	-0.465283259	 0.0001806762	 0.303486
C	-1.7453698724	-1.8648880522	 0.3612696498	-0.218844
O	-2.0636128997	-0.7977123307	 1.2596654291	-0.289187
C	-2.3862565764	 0.1839109471	-1.0099665636	 0.340942
N	-3.6826660145	 0.2330342103	-0.606375222	-0.528392
O	-1.9838685354	 0.5863219262	-2.0855878228	-0.373191
H	 0.8468914017	 2.0436979967	 0.6257153454	 0.113374
H	-0.8152809734	 2.197425218	 0.0467717346	 0.129302
H	-0.4967339855	 1.5396607375	 1.6650136588	 0.123096
H	 0.2604588688	 0.2285077133	-1.000445275	 0.110406
H	 1.1609704044	-1.6590614827	 0.3168100546	 0.113819
H	 1.9158299736	-0.1719319309	 0.8905957877	 0.115467
H	 0.6138707597	-0.9100764395	 1.8318878223	 0.128301
H	-2.6018163976	-2.3594009336	-0.0936263973	 0.122504
H	-0.9449248202	-2.5217570214	 0.6903320785	 0.126737
H	-3.9062664561	 0.021440431	 0.3522240175	 0.273824
H	-4.3522158793	 0.6981414153	-1.1961973342	 0.262618
60.5118	73.3501	179.015	210.1926	235.7745	261.7231	305.8913	309.91	339.4889	357.2979	408.3159	465.2335	516.3733	583.1109	640.2463	667.7073	768.434	840.3399	858.3218	920.1812	930.7684	956.8266	981.723	1085.9128	1108.3459	1117.2808	1133.5184	1164.5044	1174.7493	1209.8424	1339.7931	1346.0667	1367.6523	1390.6075	1398.8713	1419.2176	1491.0695	1494.0344	1506.3526	1513.4011	1523.2703	1592.3676	1795.1838	3034.3283	3038.4386	3060.153	3099.0749	3104.7478	3107.4481	3111.7471	3115.3981	3193.4203	3593.7442	3733.4336
CC(C)C1(CO1)C(N)=O	CC(C)[C@]1(CO1)C(=O)N	
InChI=1S/C6H11NO2/c1-4(2)6(3-9-6)5(7)8/h4H,3H2,1-2H3,(H2,7,8)	InChI=1S/C6H11NO2/c1-4(2)6(3-9-6)5(7)8/h4H,3H2,1-2H3,(H2,7,8)/t6-/m1/s1
