17
gdb 38212	3.3822	1.76275	1.42155	1.1044	72.28	-0.2305	0.0092	0.2397	917.0594	0.139749	-417.919297	-417.912954	-417.91201	-417.949956	26.13	
C	-0.0426847494	 1.5334236004	 0.1023390974	-0.214529
N	 1.4672268499	 1.2589013436	 0.0469489579	-0.172914
C	 1.127037628	 0.0765604747	 0.9993103323	-0.233197
C	 0.0076122919	-0.0084336374	-0.0662002423	 0.351261
N	-1.0614829423	-0.8945366642	-0.3714604335	-0.378833
C	-1.2151214215	-1.0021050452	-1.6332879569	 0.1162
O	-0.545010063	-0.4190357889	-2.6591234493	-0.243517
C	 0.5451414671	 0.5274092993	-2.4348249107	-0.13024
C	 1.1318160086	 0.2313991578	-1.0700325322	 0.002544
H	-0.3741999135	 1.9273857449	 1.0654447023	 0.108447
H	-0.4249534444	 2.14625747	-0.7149622376	 0.102943
H	 1.8867254111	-0.708840733	 1.0070459578	 0.108461
H	 0.8712701329	 0.406670728	 2.0086025126	 0.108818
H	-1.9831038464	-1.6530520192	-2.047099825	 0.129491
H	 1.2420623539	 0.3497903444	-3.2562528725	 0.12781
H	 0.1402513603	 1.5363990282	-2.5432626059	 0.131594
H	 1.8972587269	-0.5466001033	-1.1324497644	 0.085661
110.0134	283.3619	373.8026	402.5087	437.1298	561.0565	600.459	614.8407	639.4155	752.8027	794.5822	833.0994	876.6575	894.1121	923.0496	959.2027	985.8495	989.9676	1037.9812	1069.003	1099.7519	1127.0768	1148.5931	1164.4796	1177.05	1186.8709	1200.5451	1238.3725	1255.8503	1320.563	1379.0289	1415.2586	1424.9469	1501.2561	1523.4157	1560.4779	1654.9494	3059.9477	3065.506	3071.3444	3078.0821	3117.7384	3132.9046	3138.1071	3161.7211
C1N2CC11N=COCC21	C1N2C[C@]31[N][CH]OC[C@@H]23	
InChI=1S/C6H8N2O/c1-5-6(7-4-9-1)2-8(5)3-6/h4-5H,1-3H2	InChI=1S/C6H8N2O/c1-5-6(7-4-9-1)2-8(5)3-6/h4-5H,1-3H2/t5-/m1/s1
