20
gdb 109624	2.02667	1.30696	1.03746	5.4839	81.37	-0.2343	0.0378	0.2721	1270.6441	0.170485	-399.31287	-399.302535	-399.30159	-399.347967	37.308	
C	 0.7596500962	 2.0473436514	-0.2446630117	-0.318208
N	 1.4608858618	 0.7800542422	-0.0470386974	-0.288353
C	 1.4520335908	-0.0821712248	-1.1872805134	-0.073435
C	 1.7160480646	-1.5463046754	-0.9400927321	-0.047136
N	 1.9614252055	-2.0803344186	 0.3727811255	-0.519859
C	 0.2946091702	-1.1068421885	-1.2985688095	 0.129952
C	-0.7996633047	-1.1759607157	-0.244942039	-0.459943
C	-0.1328852185	-1.4018791221	-2.6405826251	 0.240836
N	-0.4702690607	-1.6339289968	-3.7237520088	-0.354342
H	 1.125888555	 2.6246646412	-1.109138586	 0.109375
H	-0.3055026545	 1.8527368621	-0.4006902184	 0.13712
H	 0.8631028103	 2.6638113277	 0.652591127	 0.123308
H	 2.4202190716	 0.9540009679	 0.2357299545	 0.225644
H	 1.780725778	 0.3337766984	-2.1434650227	 0.090145
H	 2.2447592182	-2.0828054373	-1.7202529825	 0.117277
H	 2.938191164	-2.339797345	 0.4596641849	 0.237026
H	 1.7741797637	-1.3694741186	 1.0736581672	 0.240349
H	-0.4709520127	-0.6918664131	 0.6752336982	 0.136685
H	-1.7044254807	-0.6724386118	-0.5959766862	 0.131239
H	-1.0493111781	-2.2164252233	-0.0204949545	 0.14232
97.295	105.6238	140.1839	158.2299	169.0852	197.9657	211.666	261.154	297.8234	323.377	455.2865	485.4144	565.1819	567.7143	601.3222	670.2788	752.7313	841.5645	861.0928	883.1041	956.7697	1017.6261	1053.5264	1094.195	1106.2938	1136.1883	1140.545	1179.0157	1198.9851	1231.6177	1281.1143	1301.7764	1380.2413	1409.1472	1452.8367	1462.8628	1473.8065	1490.894	1493.8065	1499.9015	1517.367	1656.3745	2340.4635	2974.6792	3053.4112	3056.4829	3075.9573	3117.3258	3119.6218	3148.5076	3175.1793	3498.4956	3510.3491	3582.8541
CNC1C(N)C1(C)C#N	CN[C@H]1[C@@H](N)[C@]1(C)C#N	
InChI=1S/C6H11N3/c1-6(3-7)4(8)5(6)9-2/h4-5,9H,8H2,1-2H3	InChI=1S/C6H11N3/c1-6(3-7)4(8)5(6)9-2/h4-5,9H,8H2,1-2H3/t4-,5+,6+/m1/s1
