18
gdb 44932	2.64977	1.81937	1.5639	2.9733	76.37	-0.2483	-0.002	0.2463	934.4074	0.151687	-401.98398	-401.977258	-401.976314	-402.014892	27.816	
N	-0.0680156603	 1.2783300293	-0.1391855546	-0.555375
C	-0.0287138763	 0.0206972147	-0.0410397194	 0.425579
O	 1.117226117	-0.7307274063	 0.0138951113	-0.250673
C	 0.726948457	-2.1159870261	 0.2532319747	 0.045102
C	-0.6084407992	-2.2126905629	-0.4959546721	-0.241076
C	-1.2307708165	-0.9094981521	 0.0346302352	-0.113444
C	-1.6591726406	-1.1059027046	 1.5090771453	-0.261465
C	-0.6105140936	-1.8503531035	 2.3015263432	-0.04998
C	 0.4983694606	-2.3288942007	 1.7365167094	-0.062693
H	 0.8778879009	 1.6653697409	-0.1483554029	 0.219896
H	 1.5283269622	-2.7389317584	-0.1439934245	 0.085555
H	-0.4516500881	-2.1709863102	-1.5775799652	 0.111458
H	-1.1747559729	-3.1118726858	-0.245861727	 0.109254
H	-2.0560684801	-0.5152272341	-0.5576832028	 0.098044
H	-1.8582852537	-0.1311660952	 1.9696707188	 0.134866
H	-2.6092805929	-1.6581175013	 1.5438933944	 0.111546
H	-0.7922107997	-1.9809973757	 3.365322972	 0.097743
H	 1.2572741663	-2.8439024483	 2.3160565942	 0.095663
118.7926	241.3933	296.6928	394.8033	443.7638	482.8244	494.1045	628.5448	662.5165	713.962	765.1599	803.7976	849.8149	866.6713	901.1562	920.021	926.2504	959.0538	971.469	997.5223	1021.6514	1050.9649	1061.2546	1098.0429	1136.3092	1176.7961	1192.3913	1257.3342	1275.461	1308.3772	1323.619	1338.1543	1372.4126	1381.7569	1406.1693	1468.8482	1493.2156	1705.5955	1779.6667	3009.0161	3058.18	3062.7834	3115.7913	3119.2845	3122.0317	3157.4072	3188.0818	3464.0784
N=C1OC2CC1CC=C2	[NH][C]1O[C@@H]2C[C@H]1CC=C2	
InChI=1S/C7H9NO/c8-7-5-2-1-3-6(4-5)9-7/h1,3,5-6,8H,2,4H2	InChI=1S/C7H9NO/c8-7-5-2-1-3-6(4-5)9-7/h1,3,5-6,8H,2,4H2/t5-,6+/m1/s1
