15
gdb 123468	5.14325	0.95486	0.84218	4.2324	66.58	-0.2859	-0.043	0.243	1296.3311	0.112716	-453.880013	-453.872473	-453.871529	-453.913417	26.939	
C	 0.0866721235	 1.3578886148	 0.6511748424	-0.349317
C	-0.0786439988	-0.0477842412	 0.1097767676	 0.089518
C	-1.3628484677	-0.5299912572	-0.40925784	-0.178866
O	-0.310261227	-0.144963996	-1.2982483582	-0.232958
C	 1.394206641	 1.9609785836	 0.2397970665	 0.331989
N	 2.2549876919	 2.4423781476	 1.0971578199	-0.148418
O	 3.3094450902	 2.8994155632	 0.3575622627	-0.148632
N	 3.1047384049	 2.6968225333	-0.9788255493	-0.059451
C	 1.9385529816	 2.1232573003	-1.0693310724	-0.099268
H	-0.7351260855	 1.9780388885	 0.27543378	 0.130431
H	 0.0273689621	 1.3520919363	 1.7436706597	 0.139996
H	 0.6321273721	-0.7808581541	 0.4926703809	 0.111986
H	-1.590019053	-1.5941939075	-0.3893135749	 0.125822
H	-2.2280095587	 0.131456041	-0.3952760352	 0.121015
H	 1.5193207831	 1.8359377073	-2.0204210498	 0.166154
52.633	73.1857	124.7883	293.2493	314.1027	360.3101	463.4812	651.037	679.9764	758.113	795.8565	866.0087	890.3327	913.295	931.3478	937.9353	956.9228	1026.8726	1056.1126	1097.6228	1106.1387	1159.8316	1170.4996	1194.6313	1243.8142	1292.9068	1323.6959	1421.0134	1442.7741	1461.28	1469.9016	1528.4157	1615.2727	3045.3393	3088.4766	3097.4372	3114.5018	3177.7712	3279.8719
C(C1CO1)C1=NON=C1	C([C@H]1CO1)c1nonc1	
InChI=1S/C5H6N2O2/c1(5-3-8-5)4-2-6-9-7-4/h2,5H,1,3H2	InChI=1S/C5H6N2O2/c1(5-3-8-5)4-2-6-9-7-4/h2,5H,1,3H2/t5-/m0/s1
