18
gdb 103534	2.39892	1.54626	1.26563	3.8611	74.03	-0.2229	-0.0153	0.2075	1079.0596	0.146101	-439.112121	-439.102869	-439.101925	-439.146347	33.826	
C	 0.0151790814	 1.3810362571	 0.1470817331	-0.240575
O	-0.046745117	-0.0111677597	-0.0767901374	-0.275161
C	 0.6655095254	-0.4990952925	-1.2125352955	 0.233633
C	-0.0204733112	-0.1093100616	-2.526962158	-0.439628
C	 2.1572525293	-0.2204442304	-1.1863750242	-0.19988
C	 2.8103025755	-1.3767632886	-1.0465235474	-0.022612
N	 1.9317142346	-2.4669021235	-0.9669575412	-0.346368
C	 0.6172830548	-2.0527422265	-1.0499228464	 0.41823
O	-0.3630326385	-2.7524794445	-1.015607721	-0.365023
H	 1.0424244619	 1.7283581427	 0.3251360991	 0.105908
H	-0.4134984227	 1.9640611281	-0.6801313083	 0.10686
H	-0.5769677951	 1.5730096578	 1.0450749591	 0.132483
H	 0.0021386025	 0.9726987318	-2.6833034141	 0.115574
H	 0.4832280364	-0.5791969166	-3.3768317244	 0.125095
H	-1.0587985434	-0.4506870967	-2.5002999588	 0.146187
H	 2.613693789	 0.750185335	-1.3033834886	 0.108837
H	 3.8755466007	-1.558429668	-1.0084334826	 0.133359
H	 2.1944253564	-3.427549514	-0.8237152235	 0.263081
52.0643	89.7367	175.8409	206.1027	232.5493	256.917	276.5664	355.2216	359.7874	441.8302	554.8496	597.8015	608.1641	713.0991	728.6195	761.9237	797.8591	900.7363	919.3295	945.3283	1067.6275	1077.8986	1098.1619	1134.1028	1163.3373	1178.1455	1209.2482	1212.9714	1268.0634	1375.8821	1391.1301	1414.438	1472.553	1482.8184	1485.8658	1500.9265	1509.0278	1670.3106	1853.8217	2992.6373	3040.7643	3046.5463	3114.4292	3116.1338	3129.0279	3227.9955	3256.9783	3665.6033
COC1(C)C=CNC1=O	CO[C@@]1(C)C=CNC1=O	
InChI=1S/C6H9NO2/c1-6(9-2)3-4-7-5(6)8/h3-4H,1-2H3,(H,7,8)	InChI=1S/C6H9NO2/c1-6(9-2)3-4-7-5(6)8/h3-4H,1-2H3,(H,7,8)/t6-/m0/s1
