12
gdb 128859	9.45712	0.67836	0.63296	3.2907	89.23	-0.2578	-0.0755	0.1823	1598.2324	0.080291	-394.540463	-394.533178	-394.532234	-394.572991	25.997	
N	 0.181794514	-3.7081716164	-0.0200810228	-0.330253
C	 0.1057816792	-2.547920256	-0.0126709568	 0.164657
C	 0.0203952566	-1.1886896222	-0.0040382587	 0.225092
C	-0.0593419349	 0.0207897385	 0.0036894495	 0.005141
C	-0.1342377718	 1.4200576606	 0.0123961155	 0.179256
C	-1.2207867899	 2.2891123436	 0.0314950041	-0.313594
C	-0.6502473053	 3.5715903308	 0.0310542189	-0.013932
N	 0.6838540022	 3.5221992667	 0.013230995	-0.188204
N	 0.9760791916	 2.2212670433	 0.0022036643	-0.278929
H	-2.2614692757	 2.0118592065	 0.0436609727	 0.131233
H	-1.1498335133	 4.5284108938	 0.0429062952	 0.129891
H	 1.9385344872	 1.9241824507	-0.0120742568	 0.289644
77.6573	85.7284	220.4904	232.3442	433.5456	455.8218	502.4955	537.7822	578.4763	590.9791	677.1397	705.5605	824.0097	905.4329	926.7542	943.6153	1057.0537	1087.5405	1156.4996	1267.157	1295.976	1367.5693	1431.114	1461.1896	1585.1095	2258.3413	2375.838	3256.9739	3284.718	3660.6884
N#CC#CC1=CC=NN1	N#CC#Cc1ccn[nH]1	
InChI=1S/C6H3N3/c7-4-1-2-6-3-5-8-9-6/h3,5H,(H,8,9)	InChI=1S/C6H3N3/c7-4-1-2-6-3-5-8-9-6/h3,5H,(H,8,9)
