13
gdb 18974	4.83022	2.41407	1.94961	1.1942	56.16	-0.2421	-0.0021	0.24	662.7463	0.098013	-398.534746	-398.529635	-398.52869	-398.56376	20.797	
O	-0.0580291108	 1.5027999812	 0.0269082941	-0.297545
C	 1.3799793394	 1.206026246	-0.0152043715	-0.004334
C	 1.1375150819	 0.1190824382	 1.0660328266	 0.111416
O	 2.057673042	-0.9574722872	 1.1617454071	-0.234153
C	 2.4449377931	-1.4310777341	-0.0478207744	 0.129365
N	 2.0572396152	-0.9952823547	-1.1719659762	-0.286923
C	 1.1189237239	 0.1055035562	-1.0870124207	 0.020681
C	 0.0085932997	 0.0355711187	 0.0040216477	-0.004334
H	 2.0852281068	 2.0350545154	-0.0262734597	 0.106765
H	 0.8699283575	 0.44905404	 2.06724066	 0.114491
H	 3.1477596042	-2.2528774338	 0.0536785965	 0.138918
H	 0.7963847563	 0.4673943663	-2.0621570417	 0.098889
H	-0.9209389991	-0.5306580435	 0.0158674221	 0.106765
277.2964	354.7654	441.1063	572.5706	580.8498	609.8422	775.2397	828.1172	869.4619	897.5044	903.9139	909.5049	967.3715	993.3634	1017.1214	1019.4286	1098.2886	1132.5926	1147.0219	1176.9996	1177.6859	1213.8906	1254.4084	1260.2404	1305.3829	1372.0137	1395.4726	1706.6564	3131.204	3138.5717	3143.1991	3160.3176	3191.1189
O1C2C3OC=NC2C13	O1[C@H]2[C@@H]3O[CH][N][C@H]2[C@H]13	
InChI=1S/C5H5NO2/c1-6-2-3-5(7-1)4(2)8-3/h1-5H	InChI=1S/C5H5NO2/c1-6-2-3-5(7-1)4(2)8-3/h1-5H/t2-,3-,4+,5+
