16
gdb 87948	4.16219	1.09307	0.9834	5.9639	65.8	-0.2449	0.054	0.2989	1180.0168	0.124548	-475.046018	-475.037939	-475.036995	-475.078956	30.299	
O	-0.0627558722	 1.4277453682	 0.0407534132	-0.416951
C	 0.023507254	 0.0346477518	 0.0231400916	 0.031162
C	-0.4676084733	-0.7678280408	 1.2192795924	-0.389825
C	-1.277583498	-0.6879122107	-0.055524907	 0.336908
C	-2.600493616	 0.0722800103	-0.1542371145	-0.134347
O	-3.5261184622	-0.8758534756	-0.7016418277	-0.241514
C	-2.8655837541	-1.98422766	-1.1507544639	 0.473341
O	-3.4060656952	-2.9203344078	-1.6673780213	-0.389596
N	-1.514518629	-1.8075727154	-0.9164695559	-0.434434
H	 0.6150695899	 1.7676748462	 0.6348348217	 0.294918
H	 0.8618644955	-0.3770718447	-0.5404632574	 0.096628
H	 0.0469040394	-1.6942787026	 1.4556755905	 0.118971
H	-0.8359261953	-0.2136862277	 2.0774162831	 0.125942
H	-2.9759274651	 0.4121280674	 0.812849487	 0.128079
H	-2.5193320005	 0.9298723652	-0.8290805006	 0.139726
H	-0.9338430081	-2.6299907636	-0.9133089612	 0.26099
66.1456	140.47	174.1293	248.5002	294.3541	355.874	427.453	445.4735	472.1702	536.6222	587.7577	711.7018	764.3607	791.8268	874.9287	914.2531	921.0606	940.6987	998.8752	1027.5855	1075.0486	1089.769	1092.7351	1171.9505	1217.7938	1229.3251	1272.5766	1278.3917	1323.7206	1392.7685	1409.3223	1439.7254	1506.6863	1520.9273	1895.2592	3058.8285	3094.7073	3112.4749	3120.6488	3213.9118	3657.5035	3802.0697
OC1CC11COC(=O)N1	O[C@H]1C[C@]21COC(=O)N2	
InChI=1S/C5H7NO3/c7-3-1-5(3)2-9-4(8)6-5/h3,7H,1-2H2,(H,6,8)	InChI=1S/C5H7NO3/c7-3-1-5(3)2-9-4(8)6-5/h3,7H,1-2H2,(H,6,8)/t3-,5+/m0/s1
