18
gdb 13561	2.85279	1.48839	1.11394	1.2857	68.83	-0.25	-0.0291	0.221	1100.0618	0.150585	-384.933444	-384.924221	-384.923276	-384.968389	32.027	
C	-0.2949806603	 1.382985883	 0.2107138399	-0.411695
C	 0.0997332053	-0.0507906084	-0.1955375897	-0.101923
C	 0.871327251	-0.0185027221	-1.5023278543	 0.163849
O	 0.5080116038	-0.5223493139	-2.5327827442	-0.245711
C	 0.9625095064	-0.6781876109	 0.8872476769	 0.055203
O	 0.3153761365	-1.0029525122	 2.1187135664	-0.266021
C	 0.8700998891	-2.0763718897	 1.3418169613	 0.073875
C	-0.0816120774	-3.1087076057	 0.795952596	-0.42238
H	 0.5873003004	 2.0265707614	 0.3021924293	 0.121676
H	-0.9675823858	 1.8294620784	-0.5267780411	 0.130474
H	-0.7999301961	 1.3615166021	 1.1796695255	 0.148135
H	-0.7986756073	-0.6487778714	-0.360593619	 0.100966
H	 1.836427978	 0.5409424332	-1.4478827457	 0.072104
H	 1.9257443433	-0.1772114968	 1.0216421509	 0.090388
H	 1.7780294458	-2.4952251589	 1.7815532569	 0.092157
H	-0.9867766002	-2.6567294159	 0.386699105	 0.134746
H	 0.4038171023	-3.6945457613	 0.0082564838	 0.131741
H	-0.3794935349	-3.7987981908	 1.5920781322	 0.132416
34.6405	60.5724	142.9047	190.5464	204.0436	221.4307	287.3066	329.8519	385.6428	443.2852	540.6263	547.4884	778.9515	822.086	897.7542	932.3741	949.5766	992.2975	1006.3303	1066.2273	1117.1231	1143.0257	1148.872	1180.165	1194.1664	1260.5907	1304.0893	1319.7222	1397.5074	1403.1484	1419.3613	1432.0378	1466.8481	1490.0286	1495.754	1499.2012	1511.1715	1836.6489	2841.1983	3036.7282	3042.4215	3060.8449	3085.2416	3095.6082	3103.9224	3112.5123	3128.2423	3139.2584
CC(C=O)C1OC1C	C[C@@H](C=O)[C@H]1O[C@H]1C	
InChI=1S/C6H10O2/c1-4(3-7)6-5(2)8-6/h3-6H,1-2H3	InChI=1S/C6H10O2/c1-4(3-7)6-5(2)8-6/h3-6H,1-2H3/t4-,5-,6+/m0/s1
