16
gdb 18677	3.17263	2.27164	1.51105	1.9534	64.99	-0.2394	-0.0165	0.2229	830.0429	0.131853	-383.747243	-383.740562	-383.739618	-383.778151	25.926	
O	 0.0140633087	-0.034614824	-0.0865388629	-0.326564
C	-0.0179218373	 1.173027605	-0.0007780861	 0.392174
C	-1.321811216	 1.9594230767	 0.0374820867	-0.318582
C	-1.1846877204	 3.2244452674	-0.8211113102	-0.084788
O	-0.1726746772	 4.0721710879	-0.2980818943	-0.255224
C	 1.1011385832	 3.5003474928	-0.2377072687	 0.095137
C	 1.5462262711	 2.9953157881	 1.0920143498	-0.307337
C	 1.2245653956	 1.9992926434	-0.0278010995	-0.151076
H	-2.1269260756	 1.3069910681	-0.3103963431	 0.125743
H	-1.5485030289	 2.2607333752	 1.0676719037	 0.12871
H	-0.9674213942	 2.9546248964	-1.8657888973	 0.103536
H	-2.1054771121	 3.8133143725	-0.8082368608	 0.11875
H	 1.8224066094	 3.9761021522	-0.8981508911	 0.105817
H	 2.5886233506	 3.0775564667	 1.3772362945	 0.12812
H	 0.8360669143	 3.0899121731	 1.9052989339	 0.132254
H	 2.0738352589	 1.4852602985	-0.4633375945	 0.113329
95.3098	192.429	259.4696	406.8316	433.3046	455.9226	490.3949	575.2339	712.0202	755.551	781.0228	827.4475	870.9798	914.9794	959.076	1003.425	1031.5476	1047.8772	1071.4735	1083.743	1122.4846	1172.1995	1202.4745	1228.7961	1256.1408	1274.8089	1333.7821	1364.1459	1371.3531	1412.9326	1453.0548	1475.0361	1508.7165	1801.1868	2993.7012	3040.1068	3096.3528	3109.6159	3131.9847	3143.0402	3181.1447	3235.7167
O=C1CCOC2CC12	O=C1CCO[C@H]2C[C@@H]12	
InChI=1S/C6H8O2/c7-5-1-2-8-6-3-4(5)6/h4,6H,1-3H2	InChI=1S/C6H8O2/c7-5-1-2-8-6-3-4(5)6/h4,6H,1-3H2/t4-,6-/m0/s1
