19
gdb 38741	2.77361	2.01295	1.89603	1.5516	77.28	-0.235	0.0149	0.2499	855.4005	0.164287	-385.899117	-385.89316	-385.892215	-385.928921	26.618	
C	 0.0055251173	 1.5678036013	-0.0032545907	-0.213793
C	 1.4654211447	 2.0223212107	 0.0163783582	 0.085472
O	 2.010045394	 1.7452704532	 1.3320285511	-0.299165
C	 2.306124516	 0.399548326	 0.8785098057	 0.085472
C	 1.0548625159	-0.4576858764	 1.0728304164	-0.213792
C	 0.0194711931	 0.0056706855	-0.0012851257	-0.074777
C	 0.5503920288	-0.4323133893	-1.3434173875	-0.087025
C	 1.7650149661	 0.0361726105	-1.6460296646	-0.072811
C	 2.3791658326	 0.907448929	-0.6049319778	-0.081798
H	-0.4895958745	 1.9659582362	 0.8884584798	 0.105824
H	-0.5226827329	 1.9372094833	-0.8875794292	 0.09584
H	 1.6206948932	 3.060208969	-0.2882713344	 0.075528
H	 3.2093088228	-0.0062208007	 1.3408321303	 0.075528
H	 1.2702647481	-1.5236466425	 0.9510779043	 0.095841
H	 0.6806304323	-0.292872391	 2.0885130914	 0.105825
H	-0.9734081897	-0.4008958697	 0.2016463838	 0.063992
H	-0.0271889102	-1.0782518126	-1.9960288758	 0.088502
H	 2.2857385602	-0.1856100928	-2.5712709741	 0.090665
H	 3.3693456623	 1.2921395103	-0.8464035515	 0.07467
316.148	335.3746	364.7027	453.0191	485.2098	541.5633	635.2125	667.2925	722.539	742.4391	818.1964	843.5572	852.7952	883.5884	896.9505	919.3928	954.9454	972.0128	1007.8535	1009.1345	1040.6469	1048.9044	1067.4357	1087.2296	1096.883	1129.8484	1167.6813	1187.8964	1236.8011	1255.9565	1278.8451	1308.8985	1319.7573	1331.5737	1354.1412	1362.1716	1376.1436	1406.6578	1467.3015	1478.7073	1678.1567	3044.5477	3045.0062	3078.4706	3078.8741	3084.0383	3094.3911	3095.9113	3119.4388	3172.9618	3196.2945
C1C2OC3CC1C=CC23	C1[C@H]2O[C@H]3C[C@@H]1C=C[C@@H]23	
InChI=1S/C8H10O/c1-2-6-7-3-5(1)4-8(6)9-7/h1-2,5-8H,3-4H2	InChI=1S/C8H10O/c1-2-6-7-3-5(1)4-8(6)9-7/h1-2,5-8H,3-4H2/t5-,6+,7-,8+
