16
gdb 79600	2.33436	1.90137	1.27938	4.4313	69.34	-0.2454	-0.0213	0.2241	979.7304	0.124008	-437.822129	-437.814399	-437.813454	-437.854411	29.397	
O	-0.3087532117	 1.3464857909	-0.2038246035	-0.412138
C	-0.2398025424	-0.0384739077	-0.0728474407	 0.115018
C	-0.4642263541	-0.7536695299	 1.2374381167	-0.158238
C	-1.48878396	-0.0307853779	 2.083440636	-0.093677
N	-2.7345718842	-0.7515467174	 2.2397774104	-0.364241
C	-2.497955338	-0.0989557085	 0.9400721244	 0.243681
C	-3.454437082	 0.9427708668	 0.5134655045	 0.099306
O	-3.6344747311	 1.2617357263	-0.6350099512	-0.260445
C	-1.4989155979	-0.8271293393	 0.0713867945	-0.188053
H	 0.5201468834	 1.7200536369	 0.1144910567	 0.288929
H	 0.5060709295	-0.5183959209	-0.7103999709	 0.095612
H	 0.1978424486	-1.5350266726	 1.5951765741	 0.098599
H	-1.3071943118	 0.8103700703	 2.7417382629	 0.113729
H	-2.6142938718	-1.7598512846	 2.1703877254	 0.237717
H	-4.0121233136	 1.4060864112	 1.3558516425	 0.080256
H	-1.7305142127	-1.6660997237	-0.5742496818	 0.103946
95.2016	148.4046	197.1841	235.2923	294.7722	350.1235	445.156	493.0192	541.9488	684.3926	711.5212	746.9132	780.751	804.1409	907.5556	933.5456	970.3502	989.9841	1001.7298	1035.2634	1057.368	1076.7613	1091.3716	1110.9508	1139.4923	1210.6182	1258.4163	1274.5515	1291.3722	1306.3675	1329.7817	1391.0486	1431.0159	1462.5589	1817.9663	2903.1982	3082.944	3167.9295	3185.5249	3190.8348	3481.2455	3804.7511
OC1C2C3NC3(C=O)C12	O[C@H]1[C@H]2[C@@H]3N[C@]3(C=O)[C@@H]12	
InChI=1S/C6H7NO2/c8-1-6-3-2(4(3)9)5(6)7-6/h1-5,7,9H	InChI=1S/C6H7NO2/c8-1-6-3-2(4(3)9)5(6)7-6/h1-5,7,9H/t2-,3+,4-,5-,6+/m0/s1
