20
gdb 58600	2.14116	1.26366	1.05991	2.1534	80.16	-0.2447	0.0537	0.2984	1259.208	0.168406	-403.084326	-403.074291	-403.073347	-403.119213	37.673	
C	 1.0065618425	-0.8811511036	 0.5800527814	-0.440418
C	 0.0277931035	-0.1948040207	-0.3741271674	 0.063813
O	 0.4186816049	-0.3732468159	-1.7366475073	-0.427384
C	-1.4437638942	-0.5838417165	-0.2163814963	 0.30473
C	-2.4039714368	 0.3657496141	-0.9364772179	-0.40131
C	-2.3964845504	 1.7130313902	-0.3754429804	 0.319502
C	-2.371893952	 2.8197260752	 0.0932882862	-0.459028
C	-1.8173732922	-2.0226623328	-0.1314652412	-0.303028
N	-1.9801241353	-1.1345061799	 1.032980114	-0.343442
H	 2.0220475576	-0.581815173	 0.3093632676	 0.135482
H	 0.8376939841	-0.58422893	 1.6201222132	 0.125631
H	 0.9562360556	-1.9745230023	 0.5176742264	 0.113063
H	 0.1005600878	 0.8867082989	-0.2149691634	 0.110639
H	 0.293442096	-1.3050172372	-1.9503778429	 0.275875
H	-2.1219240373	 0.4067988863	-1.9952502751	 0.140418
H	-3.4164826361	-0.0476455579	-0.8801690611	 0.131057
H	-2.3641007074	 3.7987073967	 0.5040389276	 0.194619
H	-2.7453791549	-2.3672824428	-0.5803481689	 0.119732
H	-1.0296425529	-2.7720208654	-0.1088922453	 0.108115
H	-1.2355468724	-1.3043887737	 1.7031530409	 0.231934
61.1188	76.9454	126.1107	226.365	243.0748	274.4968	316.9781	331.7734	338.5231	354.2764	399.9514	471.7253	477.991	611.6642	616.3995	642.7228	705.0561	838.3589	875.946	903.9198	929.3992	960.5491	986.3973	995.6467	1027.999	1059.0304	1095.0131	1111.4352	1134.0659	1220.1784	1253.681	1290.5798	1299.5252	1325.1989	1380.6832	1394.2093	1412.5379	1428.0768	1455.0049	1491.724	1495.4453	1517.1364	2236.8652	3028.9535	3037.35	3056.7382	3079.8719	3097.3267	3103.7407	3121.6119	3183.2612	3506.7081	3517.8277	3794.4959
CC(O)C1(CC#C)CN1	C[C@@H](O)[C@@]1(CC#C)CN1	
InChI=1S/C7H11NO/c1-3-4-7(5-8-7)6(2)9/h1,6,8-9H,4-5H2,2H3	InChI=1S/C7H11NO/c1-3-4-7(5-8-7)6(2)9/h1,6,8-9H,4-5H2,2H3/t6-,7-/m1/s1
