19
gdb 113306	2.5525	1.0372	0.83972	2.4587	77.38	-0.2674	0.0113	0.2787	1411.0791	0.158504	-419.193751	-419.183823	-419.182879	-419.22923	35.44	
C	-0.0710201604	 1.4898161763	-0.5083766628	-0.393229
C	 0.0047236026	 0.1448032285	 0.2219583275	-0.250944
C	-1.3374089675	-0.5740851788	 0.2554556078	 0.155743
N	-1.7458425052	-1.2849027316	-0.9794090933	-0.366235
C	-1.5151273067	-2.0672094253	 0.2423784094	-0.074962
C	-0.3822123442	-3.0678665066	 0.1831365124	-0.078703
O	-0.7632117849	-4.1963130604	-0.5831780631	-0.413048
C	-2.3819231056	 0.1500885983	 0.9551337007	 0.250264
N	-3.2123509676	 0.7392403209	 1.504795923	-0.343371
H	 0.9107620924	 1.9706479096	-0.5292879889	 0.121501
H	-0.4034452746	 1.3476389328	-1.541004018	 0.1328
H	-0.7699724714	 2.1725947161	-0.0156392592	 0.141174
H	 0.7280247237	-0.5030646611	-0.2777449564	 0.11804
H	 0.3526409404	 0.2876786355	 1.2515203721	 0.117829
H	-2.7397575261	-1.1624113536	-1.1551347238	 0.253568
H	-2.3969732114	-2.4379271282	 0.7612227537	 0.115659
H	 0.5277880154	-2.6023862586	-0.2158890392	 0.09879
H	-0.1591071479	-3.4384042915	 1.1886939381	 0.12206
H	-0.9517679512	-3.8757866725	-1.4727778899	 0.293064
54.0332	79.1294	136.6575	148.8693	163.1486	215.9118	267.0944	308.1905	367.0861	410.6685	449.0674	485.6197	587.7176	651.1866	668.9117	781.9939	834.8963	874.1426	961.8403	976.0457	1004.5951	1042.2746	1069.7562	1090.8472	1114.3235	1129.5524	1189.3172	1256.133	1265.2546	1311.8731	1326.8173	1368.6412	1375.4254	1412.6364	1416.5627	1463.6468	1474.0008	1496.6075	1499.0706	1508.1215	2344.9289	3024.498	3043.454	3048.4521	3085.309	3102.1136	3118.8821	3123.2469	3136.0914	3511.9661	3798.452
CCC1(NC1CO)C#N	CC[C@]1(N[C@H]1CO)C#N	
InChI=1S/C6H10N2O/c1-2-6(4-7)5(3-9)8-6/h5,8-9H,2-3H2,1H3	InChI=1S/C6H10N2O/c1-2-6(4-7)5(3-9)8-6/h5,8-9H,2-3H2,1H3/t5-,6-/m0/s1
