22
gdb 96681	3.33993	0.73895	0.64424	2.0505	82.63	-0.2456	0.0327	0.2783	1811.1338	0.190231	-441.493098	-441.481459	-441.480514	-441.531329	40.115	
C	-0.1537956636	 1.4912715042	 0.3484578762	-0.32566
N	-0.1142901789	 0.0482687231	 0.4439237404	-0.284733
C	-0.9439492059	-0.6622960492	-0.1943615877	 0.411637
C	-2.0638011112	-0.2346390959	-1.1169820801	-0.488802
O	-0.9043566987	-2.0146611021	-0.1028308857	-0.256852
C	 0.0982248566	-2.5773479707	 0.7462460203	-0.06599
C	-0.0195095507	-4.0998679337	 0.6681323028	 0.106529
C	 0.2337653915	-4.643972707	-0.7353191038	-0.397358
O	 0.8492286186	-4.6829533019	 1.6333341081	-0.429495
H	 0.8175471383	 1.8595009224	-0.0031811715	 0.124463
H	-0.9289240219	 1.8996352973	-0.3147320118	 0.099638
H	-0.3061645202	 1.9185216806	 1.3470385216	 0.125745
H	-1.6736520807	 0.3357818636	-1.9649342667	 0.143689
H	-2.5888783257	-1.1115791311	-1.4950793715	 0.140734
H	-2.7789655606	 0.4044283717	-0.5910833543	 0.144681
H	 1.0911850665	-2.2396811342	 0.4213805475	 0.099601
H	-0.0437449742	-2.2355335641	 1.7758021743	 0.120258
H	-1.028617577	-4.3823429328	 0.9896592751	 0.097489
H	 1.2484894383	-4.3900964107	-1.0691714061	 0.102628
H	 0.1314544917	-5.7323539892	-0.7461111898	 0.122708
H	-0.4706250872	-4.2124089145	-1.451107541	 0.130655
H	 1.754922605	-4.5406454559	 1.3360724635	 0.278434
43.3696	59.1353	71.936	82.8438	114.2811	181.617	229.2772	254.9014	279.8877	284.4344	316.8687	347.538	421.9829	449.3895	540.2303	576.3543	631.9235	816.9224	858.0516	919.5789	967.315	981.4933	1053.6077	1066.2648	1080.434	1119.851	1134.5602	1150.0008	1158.6242	1168.4229	1238.9292	1292.9218	1298.1196	1359.3352	1391.0485	1398.2593	1407.6242	1420.3659	1448.6598	1479.2374	1479.8062	1489.9951	1495.5231	1499.961	1506.8814	1509.8791	1758.5206	2998.5389	3022.6802	3025.0622	3051.2309	3052.4329	3061.3424	3066.7154	3090.2913	3101.423	3113.5856	3130.0189	3154.9391	3797.3663
CN=C(C)OCC(C)O	CN=C(C)OC[C@@H](C)O	
InChI=1S/C6H13NO2/c1-5(8)4-9-6(2)7-3/h5,8H,4H2,1-3H3	InChI=1S/C6H13NO2/c1-5(8)4-9-6(2)7-3/h5,8H,4H2,1-3H3/t5-/m1/s1
