25
gdb 118834	3.9989	0.7154	0.67579	0.9579	91.28	-0.25	0.0846	0.3346	1828.0931	0.226356	-389.477404	-389.466074	-389.46513	-389.514244	40.753	
C	 0.4081255323	 1.5434891733	 0.0982485222	-0.369294
C	-0.127484281	 0.1214948195	-0.1088530539	-0.205674
C	 0.5131981452	-0.5686169172	-1.2970302888	-0.030955
C	 1.8251668719	-1.3091599781	-1.1690499575	-0.31809
C	 0.5557897045	-2.0742598549	-1.4700226488	 0.315563
C	-0.0244733178	-3.0047765516	-0.4209538982	-0.467666
C	 0.3859688542	-2.577825754	-2.8857448176	-0.116534
O	 1.0807942196	-3.8014259468	-3.0349079903	-0.233695
C	 0.9172963724	-4.3713413015	-4.3092786	-0.222506
H	 1.4891618562	 1.5340344396	 0.2722655927	 0.118367
H	 0.2212786162	 2.168664709	-0.7820078063	 0.112111
H	-0.0689411771	 2.0265571353	 0.9568141057	 0.108546
H	 0.0425944296	-0.4632194708	 0.8015210505	 0.09576
H	-1.2162633086	 0.1593582255	-0.248030341	 0.09483
H	 0.3899478601	-0.011439638	-2.2250866528	 0.072512
H	 2.5685514066	-1.2079304256	-1.952659891	 0.107321
H	 2.2449920278	-1.4148082955	-0.1730232905	 0.104117
H	 0.2003195433	-2.6736129313	 0.5954304948	 0.111195
H	-1.1148266269	-3.0785205384	-0.5164980171	 0.107884
H	 0.3901953457	-4.0087266932	-0.5480669462	 0.13381
H	-0.6856511441	-2.7262648595	-3.1123656431	 0.079305
H	 0.7691163969	-1.8347318339	-3.605843278	 0.076996
H	-0.140557231	-4.5884508191	-4.5299648104	 0.100893
H	 1.3014909713	-3.7134073192	-5.1058861471	 0.100231
H	 1.4800732226	-5.3081183035	-4.3259146575	 0.124971
63.2623	73.1606	97.0042	122.1094	150.4572	201.86	221.8651	240.2933	269.2905	304.641	318.2805	372.2924	414.235	433.9782	589.0205	722.6049	782.1503	814.1838	885.6438	931.2601	943.5643	956.9461	989.0125	1002.5913	1026.5285	1056.6343	1068.2514	1106.1711	1122.9105	1146.2823	1156.4126	1184.7371	1199.1678	1225.9149	1255.2963	1271.8949	1304.902	1345.221	1360.2423	1407.2944	1410.2232	1422.1239	1434.0931	1478.4545	1481.6548	1485.7336	1489.6114	1494.2177	1497.8579	1503.0077	1506.3379	1511.9529	1522.5613	2934.5858	2964.0174	2970.77	3004.8632	3017.5804	3029.074	3030.6948	3061.9377	3095.9953	3098.0309	3104.0815	3110.2254	3110.5065	3121.1289	3124.2809	3205.8038
CCC1CC1(C)COC	CC[C@H]1C[C@]1(C)COC	
InChI=1S/C8H16O/c1-4-7-5-8(7,2)6-9-3/h7H,4-6H2,1-3H3	InChI=1S/C8H16O/c1-4-7-5-8(7,2)6-9-3/h7H,4-6H2,1-3H3/t7-,8+/m0/s1
