13
gdb 61325	6.98971	0.58484	0.5516	2.2764	77.61	-0.3005	-0.0575	0.2429	1818.7426	0.08782	-415.596016	-415.586851	-415.585907	-415.631053	31.166	
O	-0.0887298305	 1.4336660581	 0.0331524076	-0.392981
C	 0.0172579389	 0.0323067734	 0.0280085151	-0.006441
C	 0.6671703562	-0.5266944703	-1.2699183996	-0.401816
C	-0.0662600467	-0.1312831064	-2.4580901436	 0.067589
C	-0.6844883797	 0.1936734465	-3.4425939879	 0.092306
C	-1.3805672508	 0.5605105226	-4.5587265501	 0.212907
N	-1.9717406265	 0.8715485406	-5.5087752989	-0.328797
C	 0.7649062178	-0.4680724961	 1.1997776525	 0.256415
N	 1.3818664044	-0.8399638363	 2.1028945279	-0.300112
H	 0.7948022027	 1.8174587551	 0.0854735551	 0.302933
H	-1.0098248627	-0.3408244983	 0.0917450296	 0.163361
H	 1.7034180679	-0.1707171296	-1.3317034892	 0.161063
H	 0.7160201188	-1.6204286593	-1.2034974885	 0.173574
46.5186	63.4335	156.0041	161.5892	201.4808	249.5623	334.7169	360.9335	367.1324	455.2838	544.5219	576.4836	583.1441	589.8337	738.9419	853.7382	933.9044	1018.0424	1098.5173	1175.9844	1192.2909	1280.9966	1318.4039	1355.5064	1421.4439	1455.343	2271.5676	2358.8644	2407.2778	3030.6012	3066.6058	3082.2088	3797.5922
OC(CC#CC#N)C#N	O[C@@H](CC#CC#N)C#N	
InChI=1S/C6H4N2O/c7-4-2-1-3-6(9)5-8/h6,9H,3H2	InChI=1S/C6H4N2O/c7-4-2-1-3-6(9)5-8/h6,9H,3H2/t6-/m0/s1
