13
gdb 132570	3.13931	1.37277	0.96077	2.702	63.08	-0.27	-0.0563	0.2137	1090.5801	0.088233	-502.059487	-502.052017	-502.051073	-502.09252	26.796	
C	-0.0307235385	 1.5056865027	-0.0111501043	-0.489629
C	-0.0026922459	 0.0068227903	-0.0095307667	 0.209287
N	-0.0253441246	-0.6477819814	-1.1749874002	-0.347766
C	 0.0011639871	-1.9683701163	-1.111641162	 0.345444
F	-0.0225990337	-2.58971794	-2.2752783583	-0.055507
N	 0.0472839011	-2.749506219	-0.049142688	-0.302984
C	 0.0702688333	-2.1045689209	 1.1206916512	-0.085141
C	 0.0463798163	-0.7239002468	 1.1784359459	 0.195833
F	 0.0696893854	-0.0882106478	 2.3521185751	-0.066871
H	 0.8539135417	 1.9108780537	 0.4912086553	 0.150651
H	-0.0644045733	 1.8703618916	-1.0376220062	 0.154192
H	-0.9028142933	 1.8779089513	 0.5366967625	 0.15074
H	 0.1084838643	-2.6979109575	 2.0300837955	 0.141749
38.4081	131.2917	216.1633	263.4693	363.2841	401.5108	466.3738	492.6778	545.9412	589.7641	655.4681	758.7246	790.6712	816.1319	972.4447	973.7849	1036.4071	1057.986	1202.8003	1277.6102	1291.0947	1373.1815	1400.8424	1436.947	1477.1729	1480.1208	1486.2427	1614.3824	1637.7687	3045.2084	3099.9409	3159.5174	3176.6262
CC1=NC(F)=NC=C1F	Cc1nc(F)ncc1F	
InChI=1S/C5H4F2N2/c1-3-4(6)2-8-5(7)9-3/h2H,1H3	InChI=1S/C5H4F2N2/c1-3-4(6)2-8-5(7)9-3/h2H,1H3
