17
gdb 70004	3.0622	1.74541	1.6299	1.9319	65.4	-0.2471	0.0766	0.3237	886.2866	0.137972	-458.933496	-458.926888	-458.925944	-458.964038	27.842	
O	 0.0314576137	 1.3954768469	-0.0999955054	-0.462047
C	 0.0327322072	 0.0084786613	-0.1339719083	 0.423372
C	-0.2669271806	-0.70370552	-1.4044275204	-0.332198
C	-1.2078998287	-0.8627688573	-0.2103885407	-0.159566
C	-0.9317624297	-1.900762568	 0.8907960413	 0.038778
C	 0.1703649642	-2.8807651281	 0.4641836207	-0.102467
O	 1.3173073896	-2.0089483768	 0.4261657338	-0.268437
C	 0.8381163513	-0.766190839	 0.942327685	 0.067065
O	-0.1700009239	-1.133520953	 1.8675002502	-0.255856
H	-0.3452820686	 1.6690468769	 0.7446935178	 0.287694
H	-0.6566659763	-0.0861499075	-2.2073877916	 0.122133
H	 0.3785406307	-1.5140898145	-1.7196811902	 0.135317
H	-2.1967777226	-0.4254581951	-0.2769774752	 0.097494
H	-1.8096141204	-2.3380463631	 1.3618047064	 0.090203
H	 0.3258177701	-3.6670117903	 1.2101526286	 0.111425
H	 0.0052596532	-3.3311689057	-0.5187675314	 0.10982
H	 1.6484305808	-0.2157710867	 1.4188100296	 0.09727
200.738	287.5131	318.7124	372.2857	377.3085	467.6853	503.2164	583.8077	628.826	727.0713	765.672	796.8302	855.05	896.0472	905.2425	925.1848	938.2847	951.6995	981.0448	988.0467	1020.4075	1051.0985	1087.9556	1099.0901	1109.3608	1194.7574	1219.6096	1237.4353	1254.0225	1288.6044	1307.618	1318.0918	1333.125	1370.8238	1417.1666	1489.6364	1521.7913	3043.9351	3093.8887	3139.2358	3141.161	3148.3677	3187.0141	3231.4655	3786.6516
OC12CC1C1COC2O1	O[C@]12C[C@H]1[C@H]1CO[C@@H]2O1	
InChI=1S/C6H8O3/c7-6-1-3(6)4-2-8-5(6)9-4/h3-5,7H,1-2H2	InChI=1S/C6H8O3/c7-6-1-3(6)4-2-8-5(6)9-4/h3-5,7H,1-2H2/t3-,4+,5+,6+/m0/s1
