25
gdb 78112	2.49694	1.28948	1.04765	0.233	93.71	-0.2379	0.0897	0.3276	1327.0732	0.226986	-352.347718	-352.33742	-352.336476	-352.381766	40.201	
C	-0.1495558811	 1.4297331781	-0.0266656949	-0.427955
C	 0.0160476503	-0.0714803954	 0.090072027	-0.064702
C	 1.3826985558	-0.6485824385	-0.1898115942	-0.136016
C	 0.806764413	-0.6578613095	 1.2336235094	 0.367847
C	 1.20642519	 0.0851303387	 2.4779359477	-0.503215
C	 0.6847861335	-2.1906492445	 1.1703028268	-0.35064
C	 1.3705109324	-2.188636209	-0.2467204399	 0.339135
C	 0.5959335146	-2.8406069629	-1.3920335777	-0.444955
C	 2.7925211816	-2.7497770663	-0.175648649	-0.438207
H	 0.7691855627	 1.9636439165	 0.2348500974	 0.115439
H	-0.4058091822	 1.7092896654	-1.0544192038	 0.116686
H	-0.9470833619	 1.8002293258	 0.627240845	 0.115109
H	-0.8585506207	-0.6268582064	-0.2499094267	 0.067593
H	 2.1713369802	-0.0250868393	-0.6024341566	 0.0668
H	 1.3808819728	 1.1477404799	 2.2875347263	 0.117461
H	 0.424998226	 0.0134004235	 3.245482273	 0.115732
H	 2.125013239	-0.3293662474	 2.9095036869	 0.113611
H	 1.2850916169	-2.7096919295	 1.9232449843	 0.092908
H	-0.3379116257	-2.5826254569	 1.2126587579	 0.084835
H	-0.4212244226	-2.4469918091	-1.4763981233	 0.110337
H	 1.0993221074	-2.6713305404	-2.3511783231	 0.108596
H	 0.5203525696	-3.9244724277	-1.2447267741	 0.108413
H	 2.7797102083	-3.8323198421	-0.0038670646	 0.107828
H	 3.3343017009	-2.5657498515	-1.1111166248	 0.107512
H	 3.3619578191	-2.2847786117	 0.6359171708	 0.109848
129.5138	165.6717	176.1644	187.5482	207.9132	235.4618	267.8826	285.8686	326.5719	338.3655	357.8163	417.0039	450.5583	497.4728	586.4506	682.0793	766.0445	824.8168	874.5331	917.3939	932.8052	945.623	950.5857	963.6456	989.9275	1021.0451	1035.0485	1053.446	1099.3043	1105.7822	1145.9178	1153.764	1198.5509	1206.8823	1229.7699	1257.6224	1271.9409	1306.2058	1356.9971	1400.5905	1413.899	1417.7541	1421.8806	1440.6107	1482.5095	1484.1285	1486.516	1489.1623	1492.5508	1500.5785	1502.0672	1507.6446	1511.0108	3017.1867	3017.7272	3022.8465	3028.5189	3031.5948	3070.0423	3079.7986	3084.1142	3085.2545	3087.125	3087.6883	3095.2484	3100.3861	3103.4042	3109.8561	3143.4613
CC1C2C1(C)CC2(C)C	C[C@H]1[C@H]2[C@]1(C)CC2(C)C	
InChI=1S/C9H16/c1-6-7-8(2,3)5-9(6,7)4/h6-7H,5H2,1-4H3	InChI=1S/C9H16/c1-6-7-8(2,3)5-9(6,7)4/h6-7H,5H2,1-4H3/t6-,7+,9+/m0/s1
