19
gdb 61963	2.86101	0.7545	0.62108	5.518	79.6	-0.2737	0.0108	0.2845	1745.898	0.157469	-419.228601	-419.21834	-419.217396	-419.26523	35.362	
C	-0.105583861	 1.5598840021	 0.0018880462	-0.399078
C	-0.005026442	 0.0371989887	-0.0059920476	 0.103203
C	 0.7407275843	-0.5044177014	 1.211811927	-0.191021
C	 0.831357807	-2.0425979824	 1.2074332949	-0.349031
C	 1.5794685048	-2.5559689651	 2.3516592479	 0.257382
N	 2.1785525024	-2.9440441468	 3.2603466565	-0.303518
O	-1.3169756726	-0.5497292475	 0.0208983549	-0.195211
C	-1.9605948742	-0.6860195387	-1.1563481831	 0.127758
N	-3.153628286	-1.0939399269	-1.1794903849	-0.438236
H	 0.8912626475	 2.0110661101	-0.0015551016	 0.126772
H	-0.6452168455	 1.9188403525	-0.8792236701	 0.126331
H	-0.6415971493	 1.9003110499	 0.8925705336	 0.141114
H	 0.5080653141	-0.296229731	-0.9211971654	 0.085381
H	 1.7459944003	-0.072280905	 1.2297020494	 0.125364
H	 0.2296308406	-0.1728757797	 2.1214645689	 0.137003
H	-0.1758320473	-2.469838766	 1.2163095601	 0.179416
H	 1.3191859884	-2.3943689668	 0.2901354445	 0.146779
H	-1.3406769095	-0.4275698627	-2.0268230831	 0.087496
H	-3.479956832	-1.1641396933	-2.140985168	 0.232096
52.8689	60.4865	102.1937	122.6367	131.9238	209.9053	231.2154	247.6804	342.1232	397.2398	457.3454	480.4501	562.8155	598.8556	773.3724	820.5066	875.8539	938.449	943.3071	962.9546	1031.6124	1043.4415	1086.1432	1116.8814	1129.7826	1156.4363	1221.5959	1282.1141	1291.5801	1320.4639	1355.2141	1378.8069	1402.4189	1412.1737	1427.5289	1469.6569	1482.676	1488.9811	1495.9222	1746.6318	2364.0212	2986.1557	3015.6085	3040.5424	3042.6065	3058.3299	3090.6761	3109.2109	3117.2809	3123.4731	3520.7153
CC(CCC#N)OC=N	C[C@@H](CCC#N)O[CH][NH]	
InChI=1S/C6H10N2O/c1-6(9-5-8)3-2-4-7/h5-6,8H,2-3H2,1H3	InChI=1S/C6H10N2O/c1-6(9-5-8)3-2-4-7/h5-6,8H,2-3H2,1H3/t6-/m0/s1
