19
gdb 81746	3.11399	1.29014	1.0882	4.8637	81.43	-0.2265	0.0121	0.2386	1166.4386	0.158689	-382.041341	-382.032442	-382.031498	-382.074566	33.592	
C	-0.3683142233	 1.6038786618	 0.3496695938	-0.414214
C	-0.1185223263	 0.1099373522	 0.2026897441	 0.05119
C	 0.1928589509	-0.4494025124	-1.1925153542	-0.152983
C	 1.5162278266	 0.0498586568	-1.6980815562	-0.333405
C	 1.4968972903	-1.0004915192	-0.6043601785	 0.246718
C	 2.1122599936	-2.2843411983	-0.7582772918	 0.219348
N	 2.6224483066	-3.3153522768	-0.8848463299	-0.353444
N	 1.1720758816	-0.472098097	 0.712630707	-0.143804
C	 2.1647072683	 0.3287288887	 1.4071009329	-0.341997
H	 0.3924150675	 2.2104329074	-0.1487674856	 0.121503
H	-1.3394964549	 1.8549550971	-0.0889581337	 0.128032
H	-0.3980201043	 1.8942564671	 1.4046947956	 0.128365
H	-0.9489457502	-0.4374735873	 0.6640480373	 0.09676
H	-0.5061931534	-0.9770375542	-1.8271475059	 0.118151
H	 1.7977129154	-0.3143830761	-2.6804069314	 0.140164
H	 1.8716427792	 1.0491949703	-1.4681095051	 0.12315
H	 2.54383011	 1.1963348701	 0.842081791	 0.099096
H	 1.7441997542	 0.6913923589	 2.3495497147	 0.127606
H	 3.0179451281	-0.3122790691	 1.650559536	 0.139762
102.2961	138.7218	181.1691	210.6213	227.903	250.4763	283.3257	368.574	463.5005	491.2252	535.6005	590.4323	643.8534	659.0804	772.9706	833.3873	851.3919	941.5394	959.0951	972.1671	1018.7213	1067.9277	1076.9669	1092.2032	1126.4196	1153.6919	1163.1022	1224.0882	1236.4832	1296.621	1307.2085	1353.5804	1383.164	1410.1022	1448.6715	1476.2355	1486.292	1492.2582	1501.5799	1509.3917	2347.2351	2970.7158	3028.2842	3041.2357	3069.8785	3104.9379	3111.2619	3119.3657	3130.6516	3210.0142	3220.7708
CC1C2CC2(C#N)N1C	C[C@H]1[C@H]2C[C@@]2(C#N)N1C	
InChI=1S/C7H10N2/c1-5-6-3-7(6,4-8)9(5)2/h5-6H,3H2,1-2H3	InChI=1S/C7H10N2/c1-5-6-3-7(6,4-8)9(5)2/h5-6H,3H2,1-2H3/t5-,6+,7-/m0/s1
