19
gdb 31079	2.37269	1.33723	0.86849	0.5239	81.29	-0.1709	0.053	0.2239	1343.8453	0.158879	-419.230312	-419.22024	-419.219296	-419.265759	35.735	
C	 0.0723774053	 1.3721232905	 0.0296201076	-0.239996
O	 0.0342272595	-0.0383055971	 0.0277460059	-0.275825
C	-1.2118540687	-0.5961382638	 0.0206123168	 0.311733
C	-1.401983153	-1.9629517524	 0.0172639273	 0.125747
N	-0.5202718838	-3.0663733628	 0.019244408	-0.616749
N	-2.7699487664	-2.1660806541	 0.0094854745	-0.308505
C	-3.4407063489	-0.9752892131	 0.0086454164	 0.322066
C	-4.9318379699	-0.8956141327	 0.0037743239	-0.501499
C	-2.4906604928	 0.0310077686	 0.014732727	-0.379237
H	 1.1264219106	 1.6579851377	 0.0352949889	 0.12393
H	-0.4091552586	 1.7925095281	-0.8643553056	 0.115478
H	-0.4181629267	 1.7903839215	 0.919689585	 0.115471
H	 0.0927248386	-3.0489313829	-0.7906646731	 0.241948
H	 0.0845267186	-3.0525837142	 0.8353581166	 0.241963
H	-3.1805114273	-3.0841631303	 0.005583412	 0.253365
H	-5.3775834162	-1.3606602111	 0.8925770182	 0.123969
H	-5.2468022368	 0.1504885042	-0.0118085944	 0.133104
H	-5.3722391232	-1.385509047	-0.8741424946	 0.123593
H	-2.7054832602	 1.0878440108	 0.0152470097	 0.089446
60.5253	81.5794	107.8929	171.7445	183.0962	206.1581	257.8754	260.0923	340.3643	356.1065	473.7717	559.6487	577.7047	640.7263	646.217	686.6856	762.2552	799.9459	847.2455	999.4322	1020.5605	1059.1457	1083.3382	1166.9123	1180.4385	1205.0059	1216.508	1216.6376	1249.7275	1341.0549	1416.2975	1436.682	1467.8043	1479.083	1484.3491	1506.6898	1509.7946	1512.5978	1550.1724	1649.5877	1674.0023	2991.2749	3011.7443	3043.7591	3053.7485	3118.9087	3121.3196	3252.8712	3485.9811	3541.2084	3673.7349
COC1=C(N)NC(C)=C1	COc1c(N)[nH]c(C)c1	
InChI=1S/C6H10N2O/c1-4-3-5(9-2)6(7)8-4/h3,8H,7H2,1-2H3	InChI=1S/C6H10N2O/c1-4-3-5(9-2)6(7)8-4/h3,8H,7H2,1-2H3
