14
gdb 20662	3.41863	2.28972	1.38283	0.9975	68.86	-0.2337	-0.0664	0.1673	841.5116	0.10894	-374.890327	-374.883486	-374.882542	-374.921267	25.644	
C	-0.0302032603	 1.5178841369	 0.018860686	-0.479781
C	-0.007962379	 0.0243817793	 0.0047725253	 0.246647
C	-0.0345972434	-0.7283097841	-1.1196500992	-0.051452
N	-0.0147034164	-2.1162173288	-1.1568164192	-0.218977
N	 0.0320598915	-2.7607115169	-0.0662786352	-0.035499
N	 0.0607350251	-2.0677318483	 1.0922767046	-0.30264
C	 0.0459655636	-0.6787584225	 1.2805181895	 0.353478
N	 0.074996435	-0.0740050721	 2.4090511544	-0.5451
H	 0.8560940277	 1.9049404791	 0.5325127533	 0.15499
H	-0.071039092	 1.9251821147	-0.9936802016	 0.122638
H	-0.8906473623	 1.8783605173	 0.5923177396	 0.155003
H	-0.0748750668	-0.2703043247	-2.1022847283	 0.126046
H	 0.0973637791	-2.6735837877	 1.9007243923	 0.269898
H	 0.1115400983	-0.7243027422	 3.1955240184	 0.204751
131.2529	170.3598	237.0502	290.5889	393.3711	443.8417	536.6646	571.9025	607.9372	687.3398	757.8041	768.7205	811.9318	921.2727	944.7306	1016.7342	1064.766	1066.9679	1099.6163	1158.4306	1230.5775	1285.9738	1386.2736	1411.626	1448.2544	1463.8345	1477.1277	1548.4747	1645.7721	1714.4591	3041.5415	3097.4735	3132.5908	3190.9647	3462.1728	3600.6204
CC1=CN=NNC1=N	Cc1cnn[nH]c1[NH]	
InChI=1S/C4H6N4/c1-3-2-6-8-7-4(3)5/h2H,1H3,(H2,5,6,7)	InChI=1S/C4H11N4/c1-3-2-6-8-7-4(3)5/h3-8H,2H2,1H3
