22
gdb 8032	3.1991	1.81442	1.44264	0.1566	81.65	-0.255	0.0836	0.3387	994.0922	0.200588	-313.056139	-313.047857	-313.046913	-313.08837	32.632	
C	 0.140616623	 1.6508156405	-0.0486834478	-0.413757
C	 0.0571204361	 0.1327710779	 0.0203750886	 0.058552
C	 0.9372064896	-0.7260528018	-0.9395244867	-0.308662
C	 1.3001250582	-1.6850360528	 0.2407304676	 0.397727
C	 0.8525225604	-3.1241076906	 0.1092268662	-0.495191
C	 2.6905656083	-1.3917593914	 0.8586170721	-0.275082
C	 2.0702089754	-0.2401589048	 1.7045433006	-0.230688
C	 0.6434134095	-0.6433932263	 1.2286388521	-0.079638
H	 1.1732235342	 2.0064669852	 0.0327100651	 0.113312
H	-0.2560327692	 2.0197899774	-1.001399038	 0.112112
H	-0.4379106533	 2.1196090458	 0.7556137933	 0.111378
H	-0.9906964774	-0.1677962842	-0.0965716383	 0.068359
H	 0.4057134615	-1.1902025672	-1.7750658589	 0.092693
H	 1.8022852011	-0.1906256338	-1.3455400407	 0.089205
H	 1.4357646797	-3.6488393805	-0.6584388193	 0.113132
H	 0.9787211948	-3.6698311542	 1.0513740842	 0.109156
H	-0.2033126014	-3.1924564487	-0.1779877475	 0.110258
H	 3.0494639764	-2.217326073	 1.4815252579	 0.092127
H	 3.4878913508	-1.1232291697	 0.1579800217	 0.088473
H	 2.2265027067	-0.3375625794	 2.781252204	 0.098467
H	 2.3851669183	 0.7660428057	 1.4162233664	 0.097048
H	-0.0523042826	-0.932577484	 2.0199290374	 0.05102
74.0798	207.2998	223.1527	231.1069	248.7202	302.7755	365.9609	378.3912	481.6967	581.4944	609.8183	740.5019	763.3937	829.4108	864.8416	871.5826	898.7972	938.6221	949.1728	966.427	986.0671	1021.7143	1052.6154	1102.5644	1124.6449	1157.3985	1161.2524	1192.4085	1217.9407	1240.6858	1246.2689	1256.6411	1276.3549	1287.7109	1326.0888	1338.2381	1369.5506	1409.5995	1410.0866	1476.5167	1483.3883	1489.9872	1492.217	1493.9761	1499.3625	1506.003	3012.1153	3023.8688	3027.4533	3036.321	3039.5911	3061.0301	3073.3106	3074.307	3080.877	3084.99	3087.7278	3091.2673	3096.4511	3112.0361
CC1CC2(C)CCC12	C[C@H]1C[C@@]2(C)CC[C@@H]12	
InChI=1S/C8H14/c1-6-5-8(2)4-3-7(6)8/h6-7H,3-5H2,1-2H3	InChI=1S/C8H14/c1-6-5-8(2)4-3-7(6)8/h6-7H,3-5H2,1-2H3/t6-,7-,8+/m0/s1
