15
gdb 61104	2.38991	1.26692	1.03737	3.1408	77.03	-0.2676	0.0016	0.2693	1177.9242	0.109155	-379.595367	-379.585634	-379.584689	-379.62977	35.466	
N	-0.0843048398	 1.5076382687	 0.1141079944	-0.512777
C	-0.0369114117	 0.0430568102	 0.0365002912	-0.20565
C	 0.7098155787	-0.4717626473	 1.1952475144	 0.367156
C	 1.3667641585	-0.8968274072	 2.1053996591	-0.432783
C	-1.4126611604	-0.4778979209	 0.0462598112	 0.407066
C	-2.5306039245	-0.9120392672	 0.0081848275	-0.464274
C	 0.6964585544	-0.5028155157	-1.2545724059	-0.358975
C	 0.117867114	 0.0465333581	-2.4753454789	 0.264685
N	-0.3434819518	 0.5149788043	-3.4257105663	-0.304344
H	 0.8604038219	 1.8815719518	 0.1097521961	 0.238565
H	-0.5745276557	 1.8742610441	-0.697603344	 0.254599
H	 1.9251107907	-1.2689667268	 2.9292784224	 0.209008
H	-3.5239104318	-1.2886383102	-0.012576603	 0.211979
H	 1.7516965233	-0.2176376827	-1.1955087699	 0.156615
H	 0.6465093741	-1.5951262792	-1.2765423985	 0.16913
74.5868	114.2928	124.3024	177.2726	189.0928	243.1438	308.4023	355.4492	399.5745	447.7847	496.0502	504.0894	549.8333	603.6339	656.5955	659.9738	669.2384	670.2709	735.4168	848.0606	896.6886	943.9727	1002.3658	1032.2232	1133.2381	1240.6536	1296.2228	1360.1805	1456.0609	1640.821	2244.3625	2249.3162	2361.529	3059.2815	3108.6672	3484.571	3498.5515	3499.6797	3578.2731
NC(C#C)(C#C)CC#N	NC(C#C)(C#C)CC#N	
InChI=1S/C7H6N2/c1-3-7(9,4-2)5-6-8/h1-2H,5,9H2	InChI=1S/C7H6N2/c1-3-7(9,4-2)5-6-8/h1-2H,5,9H2
