17
gdb 9526	2.81067	1.85429	1.54167	2.4573	64.6	-0.2427	0.0252	0.2678	910.8667	0.141114	-401.021929	-401.013271	-401.012326	-401.054927	31.259	
C	-0.0894815434	 1.5657634197	 0.090431889	-0.405289
C	 0.0256434463	 0.0379113257	 0.054033861	-0.226742
C	 0.7452938332	-0.4716758276	-1.1929502844	 0.271664
O	 2.067684201	 0.0187082113	-1.2971950432	-0.482039
C	 0.6769222576	-2.0102765602	-1.4441245363	-0.202813
N	-0.1453240112	-1.7131443024	-2.6259859267	-0.332718
C	-0.0446385829	-0.3518500377	-2.5327858755	 0.381484
O	-0.3898280504	 0.5625008853	-3.2374596031	-0.376303
H	 0.9022049643	 2.0277079226	 0.1219826663	 0.117515
H	-0.6143850136	 1.9416892744	-0.7927633251	 0.145329
H	-0.6345622883	 1.8940450234	 0.9797450925	 0.115664
H	 0.5760834363	-0.3198584178	 0.9331640109	 0.105501
H	-0.9720854507	-0.416614025	 0.0931756015	 0.10203
H	 2.0206457324	 0.880141839	-1.7276292511	 0.297372
H	 1.6544165073	-2.442646099	-1.6723013002	 0.124966
H	 0.163870836	-2.598651758	-0.6778997841	 0.111619
H	-0.4775681037	-2.3030112338	-3.3750090315	 0.25276
97.6778	109.0847	163.2142	202.1443	238.1142	254.8586	308.6132	357.9191	424.4452	492.5114	552.9028	709.6363	741.974	773.6195	807.0895	915.5305	930.291	989.8356	1002.2697	1044.5638	1107.3761	1153.8583	1183.847	1209.9594	1223.1622	1282.9963	1320.2553	1337.7473	1379.6183	1396.763	1409.6169	1475.9759	1500.3882	1514.5548	1518.5216	1881.6692	3023.3962	3042.6133	3051.9419	3062.1743	3109.6626	3111.4966	3120.5863	3604.5144	3802.7324
CCC1(O)CNC1=O	CC[C@@]1(O)CNC1=O	
InChI=1S/C5H9NO2/c1-2-5(8)3-6-4(5)7/h8H,2-3H2,1H3,(H,6,7)	InChI=1S/C5H9NO2/c1-2-5(8)3-6-4(5)7/h8H,2-3H2,1H3,(H,6,7)/t5-/m1/s1
