18
gdb 50219	4.2403	1.20835	1.10566	3.513	76.57	-0.2355	-0.0214	0.2142	1115.0151	0.149363	-401.893397	-401.886308	-401.885364	-401.92541	27.735	
O	-0.0066364592	-0.0605108254	 0.0168617691	-0.255746
C	 0.027798661	 1.1431786341	 0.0558297998	 0.149757
C	 1.2941544306	 1.9677633843	 0.0258612875	-0.094125
C	 1.2838419106	 3.0617716359	-1.0868000156	-0.280901
C	 1.4257101049	 4.2990532581	-0.213410515	 0.03359
C	 2.409418077	 4.0510048807	 0.9598284595	-0.082075
C	 1.4702356877	 4.9257873206	 1.8002935366	-0.176124
N	 0.4671545226	 4.1016270917	 0.9878493685	-0.161906
C	 1.4112715824	 2.8983887189	 1.2394815326	 0.004442
H	-0.904196775	 1.7481083696	 0.1217402724	 0.094917
H	 2.1452425749	 1.2858102725	-0.0467373177	 0.09364
H	 2.1054157672	 2.9408336602	-1.7969786029	 0.116548
H	 0.3463711496	 3.0780541251	-1.6523332155	 0.119272
H	 1.3694037619	 5.2819409298	-0.6847958178	 0.078382
H	 3.5046785824	 4.014261179	 0.9409659709	 0.067356
H	 1.4151778583	 4.7419624707	 2.8769248808	 0.104097
H	 1.4293884579	 5.9972003921	 1.5847242255	 0.10374
H	 1.3413569552	 2.4597697323	 2.2367608013	 0.085136
71.884	113.776	255.0793	344.146	411.8587	435.1923	464.1359	679.8143	717.9261	765.9758	796.3307	846.9254	876.873	898.8669	926.672	950.2858	978.3642	985.21	1018.0983	1042.6747	1068.1222	1078.406	1119.4825	1123.8596	1151.9269	1164.0851	1208.9082	1222.589	1239.0538	1252.6519	1271.4254	1294.5779	1296.7702	1310.5492	1370.0663	1424.1735	1481.9662	1532.9479	1828.069	2887.8568	3034.5788	3053.1818	3054.3013	3082.2386	3102.542	3106.1097	3109.5181	3112.5294
O=CC1CC2C3CN2C13	O=C[C@H]1C[C@@H]2[C@H]3CN2[C@@H]13	
InChI=1S/C7H9NO/c9-3-4-1-6-5-2-8(6)7(4)5/h3-7H,1-2H2	InChI=1S/C7H9NO/c9-3-4-1-6-5-2-8(6)7(4)5/h3-7H,1-2H2/t4-,5-,6-,7+/m1/s1
