16
gdb 64631	2.29373	1.59502	1.37593	3.3093	76.31	-0.224	-0.0108	0.2132	1021.1595	0.122983	-400.757027	-400.748356	-400.747412	-400.790074	32.725	
C	-0.0371293704	 1.5510772133	 0.0297954988	-0.416818
C	-0.0209257494	 0.0051508277	-0.0383581795	-0.054101
C	 0.8305785912	-0.5401122548	-1.174369882	-0.174843
C	 1.8503648379	-1.2307124638	-0.6618620302	-0.029998
N	 1.8117841619	-1.2404531775	 0.7407913131	-0.333786
C	 0.7337699997	-0.530693795	 1.2266206942	 0.404805
O	 0.4588904717	-0.3361637171	 2.3840351336	-0.366772
C	-1.3799772568	-0.5280116695	-0.073117548	 0.349768
C	-2.5007684833	-0.9592078072	-0.1183016754	-0.495679
H	 0.9850290014	 1.9397190988	 0.0176591788	 0.123469
H	-0.5809990088	 1.961674329	-0.8242015451	 0.126555
H	-0.5275044652	 1.8680370519	 0.953240146	 0.150095
H	 0.6098278451	-0.3906798587	-2.2195519519	 0.116831
H	 2.6489359826	-1.7509054151	-1.1711910282	 0.13617
H	 2.4879001988	-1.6764655734	 1.3454769047	 0.265732
H	-3.4906843565	-1.3424981284	-0.1465298388	 0.198572
83.1919	132.325	176.8308	232.3049	237.3441	273.0272	396.1508	439.1123	475.149	552.9314	567.6502	616.8107	628.468	631.9961	705.1845	719.6904	764.893	796.9437	908.0273	933.4807	962.8056	1066.3228	1088.2565	1120.964	1159.3573	1213.7801	1219.8624	1367.2093	1397.1759	1412.3319	1487.8945	1489.5604	1671.6018	1844.838	2235.098	3045.9687	3125.7238	3136.535	3236.4234	3264.6786	3501.8655	3663.3187
CC1(C=CNC1=O)C#C	C[C@]1(C=CNC1=O)C#C	
InChI=1S/C7H7NO/c1-3-7(2)4-5-8-6(7)9/h1,4-5H,2H3,(H,8,9)	InChI=1S/C7H7NO/c1-3-7(2)4-5-8-6(7)9/h1,4-5H,2H3,(H,8,9)/t7-/m1/s1
