18
gdb 84732	2.30757	1.68784	1.29234	2.8113	81.7	-0.2102	-0.0256	0.1846	1047.0153	0.149961	-402.002515	-401.994453	-401.993509	-402.034923	31.184	
C	-0.3103153086	 1.5148051215	 0.0459624501	-0.403386
C	-0.0078380716	 0.000743492	-0.0154870411	-0.125291
C	 0.742081263	-0.4000147489	-1.2637540711	-0.130228
C	 2.0044545808	-0.0515751892	-1.5619612442	-0.06612
C	 2.9326244718	 0.6274460467	-0.6852296411	-0.116605
C	 2.9086681153	 0.6034033941	 0.6616528938	-0.010022
N	 1.99489272	-0.0442527772	 1.4784354202	-0.311082
C	 0.6888406956	-0.4694178554	 1.2621726511	 0.375182
O	 0.1317684703	-1.1424480952	 2.1046700824	-0.359372
H	 0.6063941392	 2.10808985	 0.0295595609	 0.134503
H	-0.9151905434	 1.8048711136	-0.8178005259	 0.12153
H	-0.8697451479	 1.7571990892	 0.9548527582	 0.125509
H	-0.9596267525	-0.5345388296	 0.0064156378	 0.106678
H	 0.1819867199	-0.9844257013	-1.9882097063	 0.098159
H	 2.3887912779	-0.3138264375	-2.5453634355	 0.09485
H	 3.7662963096	 1.1518378279	-1.1405373779	 0.095489
H	 3.6958814652	 1.0982041253	 1.2216252343	 0.114789
H	 2.2985844456	-0.2581890559	 2.4185535243	 0.255419
98.6315	150.0216	229.4772	234.1879	256.918	371.1569	402.4727	430.9867	498.6658	608.1013	633.0441	704.893	737.3761	739.5839	785.7837	833.4427	886.9502	916.1622	952.3517	960.846	989.9628	1020.7476	1067.4989	1096.5425	1147.273	1234.0309	1257.4299	1322.1977	1336.5627	1355.722	1396.8802	1422.0493	1464.2161	1490.8247	1494.356	1501.9321	1659.4276	1701.2464	1785.613	3043.8336	3085.1167	3112.9849	3133.5082	3143.5457	3169.5779	3173.0382	3191.3168	3596.8105
CC1C=CC=CNC1=O	C[C@H]1C=CC=CNC1=O	
InChI=1S/C7H9NO/c1-6-4-2-3-5-8-7(6)9/h2-6H,1H3,(H,8,9)	InChI=1S/C7H9NO/c1-6-4-2-3-5-8-7(6)9/h2-6H,1H3,(H,8,9)/t6-/m0/s1
