17
gdb 31790	3.14864	1.31573	0.98712	2.5525	71.27	-0.1923	0.0543	0.2467	1182.9914	0.13567	-455.169463	-455.160123	-455.159178	-455.204674	32.503	
C	 0.4952644276	 0.9945207975	 0.5103836511	-0.248907
O	-0.3081405388	 0.3916313179	-0.5079495012	-0.273948
C	-1.3035761661	-0.4045057245	-0.0548721333	 0.310245
C	-1.349446071	-1.6891627612	 0.3962554997	-0.203303
N	-2.6602020459	-2.0454887186	 0.6925770815	-0.375013
C	-3.3621786868	-0.9840199223	 0.4108647291	 0.437227
O	-4.6981974754	-0.8467678482	 0.5211552758	-0.430415
N	-2.6254430433	 0.0622299591	-0.0449390534	-0.117248
C	-3.0988961436	 1.3612878355	-0.4747414555	-0.343933
H	 1.2560981326	 1.5855498644	-0.0035306111	 0.13234
H	-0.1043632493	 1.6497255884	 1.1543858465	 0.118021
H	 0.9781626427	 0.231029073	 1.1298671369	 0.130563
H	-0.5314827672	-2.3805198353	 0.5202938668	 0.109842
H	-5.0273495544	-1.7012660545	 0.8277590083	 0.311568
H	-3.3999919136	 1.9801253894	 0.3769791421	 0.138897
H	-2.2867970623	 1.8561948446	-1.0090396378	 0.152912
H	-3.9557589152	 1.2485206747	-1.1432023656	 0.15115
31.1766	90.963	124.5356	145.208	183.6761	262.1419	281.0052	327.9779	408.1475	446.4518	565.1536	593.7179	672.7211	722.5071	741.5144	778.4293	809.0037	967.7944	1037.6184	1121.0931	1156.4596	1173.3945	1197.8293	1213.776	1225.1027	1286.1632	1290.6419	1375.9108	1443.7953	1472.2393	1486.3931	1492.2405	1501.3958	1512.6472	1578.6813	1608.7575	1631.151	3014.8947	3042.3626	3084.8413	3108.8824	3132.2339	3150.9395	3259.2734	3801.4194
COC1=CN=C(O)N1C	COc1cnc(O)n1C	
InChI=1S/C5H8N2O2/c1-7-4(9-2)3-6-5(7)8/h3H,1-2H3,(H,6,8)	InChI=1S/C5H8N2O2/c1-7-4(9-2)3-6-5(7)8/h3H,1-2H3,(H,6,8)
