19
gdb 80770	3.59393	1.03267	0.92792	3.0731	77.94	-0.2382	0.0265	0.2647	1296.2336	0.159683	-419.178295	-419.169629	-419.168685	-419.212493	32.246	
C	 0.5094483223	 1.7403845346	-0.7813109045	-0.325973
N	 0.6064177548	 0.3240259443	-0.466979631	-0.068875
C	 1.8411007384	-0.4189095838	-0.4840131032	-0.040498
C	 3.0327728219	 0.3787142318	 0.0775523949	-0.290056
C	 2.2554867498	 0.5021935223	 1.435071797	 0.047044
N	 2.054922374	 1.7816495584	 2.0781622144	-0.296755
C	 2.6192315009	 2.1034987603	 3.2761207948	 0.153941
O	 3.3534055687	 1.3858723673	 3.9207910923	-0.321296
C	 1.0524940326	-0.2178511441	 0.7969457051	-0.091954
H	 1.3875741697	 2.3472453251	-0.5166632652	 0.100575
H	 0.3528094979	 1.8477672287	-1.8593137602	 0.131352
H	-0.3680846628	 2.1550858721	-0.2741895145	 0.1253
H	 1.9101616665	-1.3024610459	-1.1084362029	 0.100722
H	 3.9435003843	-0.2140423667	 0.1793640778	 0.119134
H	 3.2790866239	 1.3104158173	-0.4384115881	 0.104727
H	 2.7280383775	-0.1335213766	 2.1847325355	 0.131108
H	 1.4477933862	 2.46014214	 1.6491568753	 0.248827
H	 2.3252389593	 3.1196713445	 3.6070575254	 0.074037
H	 0.3869455041	-0.8939000596	 1.3240085572	 0.098639
30.5793	116.8217	177.0141	208.4244	243.9259	287.9964	330.0299	421.9665	452.8461	530.184	607.1716	677.9896	720.4009	816.7034	824.3615	895.2036	901.0968	966.5424	996.0146	1026.2015	1032.6052	1041.8128	1071.6114	1100.8751	1139.7464	1165.2652	1185.1741	1213.1902	1225.7973	1255.6745	1272.6944	1288.6825	1368.5242	1388.4651	1432.2981	1450.0697	1478.4727	1501.5706	1509.8037	1532.6696	1806.3928	2933.4142	2995.0364	3066.1272	3069.1602	3100.4688	3113.4864	3127.7076	3162.4117	3179.4811	3652.5912
CN1C2CC(NC=O)C12	CN1[C@H]2C[C@@H](NC=O)[C@@H]12	
InChI=1S/C6H10N2O/c1-8-5-2-4(6(5)8)7-3-9/h3-6H,2H2,1H3,(H,7,9)	InChI=1S/C6H10N2O/c1-8-5-2-4(6(5)8)7-3-9/h3-6H,2H2,1H3,(H,7,9)/t4-,5+,6-,8?/m1/s1
