19
gdb 24145	4.7758	0.9206	0.83209	3.4499	81.63	-0.2163	0.0361	0.2524	1405.0063	0.161689	-382.097935	-382.089767	-382.088823	-382.131859	30.839	
C	-0.0910650902	 1.5785186093	-0.0717003074	-0.340652
C	-0.2309902433	 0.0776343727	-0.2751162403	 0.044666
C	-0.0711769535	-0.8611953815	 0.8902193408	-0.239692
C	-1.4321739997	-0.6537058162	 0.2696918394	-0.281154
C	 1.3331111191	 2.0461143752	-0.0421956089	 0.295049
C	 2.0412243283	 2.7008633188	-1.0180192433	-0.191578
N	 3.3083403151	 2.8789544725	-0.5032274374	-0.229729
C	 3.3118173464	 2.3351610856	 0.7455661196	 0.010243
N	 2.143459165	 1.8260810428	 1.0556877736	-0.296756
H	-0.6311253384	 2.1087460897	-0.8658615988	 0.094385
H	-0.5719639265	 1.8534498569	 0.8749980207	 0.106486
H	 0.1547164876	-0.275804626	-1.2281178545	 0.075187
H	 0.4302264097	-1.8085450324	 0.7252795697	 0.103686
H	 0.1249298363	-0.4195884654	 1.8607027851	 0.125098
H	-2.1633923366	-0.0783234371	 0.8288460982	 0.105672
H	-1.8603016815	-1.457563012	-0.3194073012	 0.104214
H	 1.7719480013	 3.0500598643	-2.0011295627	 0.123877
H	 4.0784913281	 3.336632454	-0.9603890084	 0.264679
H	 4.1882329227	 2.3467086988	 1.3766598659	 0.126321
42.5082	69.8161	113.5912	288.2465	300.8979	347.2563	412.4477	508.5786	656.0064	682.7838	721.0148	763.7537	772.0237	803.3949	818.0986	843.4644	897.2341	947.4775	952.047	973.7582	997.8603	1055.1189	1072.377	1093.3522	1114.5065	1135.1402	1141.0446	1195.2703	1221.9093	1238.0843	1257.9665	1300.3247	1328.5782	1364.7691	1407.7758	1455.3846	1467.5297	1475.1345	1507.4321	1527.759	1597.23	3022.3763	3062.2894	3126.1555	3134.1719	3140.1905	3205.6047	3225.4517	3247.4533	3271.4411	3669.1279
C(C1CC1)C1=CNC=N1	C(C1CC1)c1c[nH]cn1	
InChI=1S/C7H10N2/c1-2-6(1)3-7-4-8-5-9-7/h4-6H,1-3H2,(H,8,9)	InChI=1S/C7H10N2/c1-2-6(1)3-7-4-8-5-9-7/h4-6H,1-3H2,(H,8,9)
