18
gdb 39533	4.01065	1.53929	1.28706	1.275	82.43	-0.2048	0.0072	0.212	1000.8555	0.150028	-364.800245	-364.793611	-364.792667	-364.830798	28.012	
C	-0.0260964104	 1.4956375973	-0.1399045043	-0.299097
C	 1.3829201226	 1.9660138699	 0.1795822185	-0.064701
C	 2.2302266977	 0.9514215722	 0.3717215547	-0.18884
C	 1.5178775337	-0.3500132993	 0.2580726495	 0.342544
C	 2.042058688	-1.6938100241	-0.0764498745	-0.186148
C	 1.3113633851	-2.6388229478	 0.5166145884	-0.091307
C	 0.2341157926	-2.0160159756	 1.3806014529	-0.220815
N	 0.3929192828	-0.5478483529	 1.2546245131	-0.160802
C	 0.094097744	-0.0246258013	-0.0831309287	-0.061145
H	-0.7527246337	 1.8712008616	 0.5906571135	 0.121956
H	-0.3552938391	 1.8386889571	-1.1293035892	 0.105428
H	 1.6347710505	 3.0165028045	 0.2712259463	 0.096908
H	 3.2813481531	 1.0376693231	 0.6191556981	 0.096335
H	 2.8830026102	-1.8523992095	-0.740066096	 0.102322
H	 1.4271720458	-3.7088529696	 0.3899239998	 0.099706
H	-0.7758417423	-2.3256414407	 1.0769135937	 0.110174
H	 0.3438750928	-2.2950363067	 2.4370760473	 0.1134
H	-0.4646165235	-0.6512414381	-0.7736070828	 0.084081
211.1837	221.2408	299.1547	337.1369	443.5643	505.3807	514.0639	671.3554	719.9479	731.1484	743.4249	787.5925	795.1076	863.594	906.7918	916.8496	928.4728	949.0769	953.6064	988.8084	989.339	1038.6196	1042.0424	1062.6025	1120.4927	1129.6725	1182.2837	1197.0915	1234.4729	1258.759	1306.2741	1328.0456	1342.094	1366.6813	1413.2485	1460.4843	1489.0793	1657.6466	1669.1965	3004.1872	3022.5231	3029.0479	3059.8131	3141.808	3190.1979	3195.187	3215.167	3220.961
C1C=CC23C=CCN2C13	C1C=C[C@@]23C=CCN2[C@@H]13	
InChI=1S/C8H9N/c1-3-7-8(4-1)5-2-6-9(7)8/h1-2,4-5,7H,3,6H2	InChI=1S/C8H9N/c1-3-7-8(4-1)5-2-6-9(7)8/h1-2,4-5,7H,3,6H2/t7-,8-,9?/m0/s1
