20
gdb 13346	4.9614	1.07556	0.94208	2.8247	75.31	-0.2466	-0.0177	0.2288	1247.1155	0.177499	-349.034938	-349.026412	-349.025468	-349.069676	30.293	
O	-0.6595087404	 0.672829725	 0.5574633486	-0.242814
C	 0.0700502602	 0.9716476024	-0.3524939845	 0.164519
C	 1.3375477128	 1.7849931553	-0.2271287108	-0.296585
C	 1.3515014857	 2.9948144981	-1.1722172283	 0.031446
C	 0.3071030862	 4.0792181943	-0.8425885356	-0.201524
C	 0.7956739279	 5.3445043357	-1.5885666858	-0.205727
C	 2.3128949853	 5.1168092267	-1.8661118832	-0.207658
C	 2.669023921	 3.7887702875	-1.1672215242	-0.210044
H	-0.1593518236	 0.6486748179	-1.3969606127	 0.066603
H	 1.4569388648	 2.0914406603	 0.8171861104	 0.116644
H	 2.1746170975	 1.1186051951	-0.4842549025	 0.115369
H	 1.1717317929	 2.6368118142	-2.1973972053	 0.072939
H	-0.7122017932	 3.7909729652	-1.1165976813	 0.10068
H	 0.305790149	 4.2512860008	 0.2410919448	 0.10311
H	 0.2509576096	 5.4760340235	-2.5281789849	 0.100947
H	 0.6174522117	 6.2472536932	-0.9982988217	 0.101583
H	 2.4906739522	 5.0321271709	-2.9430299497	 0.100103
H	 2.9314004907	 5.9455107212	-1.5115607806	 0.099408
H	 2.9717914417	 3.9727657115	-0.128161012	 0.097672
H	 3.4917295581	 3.2549611811	-1.6528975306	 0.093331
36.9201	57.1495	79.9979	145.792	215.0453	338.6751	402.3868	483.7497	575.7896	627.9231	751.0276	799.4573	820.4675	880.137	895.547	937.4176	955.2801	982.0858	1014.1654	1035.0837	1050.8969	1090.3912	1125.9436	1180.5507	1204.6127	1215.2871	1250.7951	1259.1874	1284.5144	1306.1807	1326.0232	1338.384	1342.0531	1355.89	1392.4528	1430.4202	1459.7756	1485.9668	1495.3098	1496.8284	1518.9759	1835.4896	2839.4586	2989.106	3005.933	3023.6969	3031.9754	3045.0709	3058.4104	3075.2653	3081.9377	3087.6126	3088.3706	3106.3327
O=CCC1CCCC1	O=CCC1CCCC1	
InChI=1S/C7H12O/c8-6-5-7-3-1-2-4-7/h6-7H,1-5H2	InChI=1S/C7H12O/c8-6-5-7-3-1-2-4-7/h6-7H,1-5H2
