22
gdb 106144	2.48144	1.52019	1.21884	1.5653	86.28	-0.2257	0.0886	0.3143	1163.3887	0.194182	-367.164594	-367.15569	-367.154746	-367.198017	34.435	
C	 0.265951766	 1.4593933123	 0.251102683	-0.37963
C	-0.0894335289	-0.002510953	-0.0535381812	-0.335083
C	 0.5093976771	-0.5067760061	-1.3254101816	 0.332064
C	 0.4294560779	-0.0686727891	-2.8498141248	-0.12855
C	 1.9494151146	 0.1106582108	-2.7451013937	-0.151046
N	 1.9667096494	-0.7858235364	-1.5440863056	-0.227198
C	 0.9169235583	-1.8443295053	-1.831889778	 0.287189
C	 1.0627215922	-3.1584714157	-1.1316833634	-0.497192
C	 0.3074024394	-1.5717373009	-3.208223261	-0.288016
H	 1.3499869373	 1.5825781509	 0.3328380137	 0.132547
H	-0.0921339698	 2.1280193933	-0.5389849813	 0.115509
H	-0.1859513709	 1.7844193686	 1.1930920536	 0.111781
H	 0.2585500623	-0.6443185938	 0.7651618658	 0.110431
H	-1.180583221	-0.1191567242	-0.097551103	 0.100425
H	-0.2272074294	 0.6733007648	-3.3020119195	 0.067975
H	 2.5680148025	-0.2201055282	-3.5888250943	 0.089814
H	 2.2572263638	 1.1124122785	-2.4338680462	 0.103945
H	 1.4362636009	-3.016613568	-0.1140625339	 0.130235
H	 0.1037617186	-3.6858465476	-1.0804702775	 0.114279
H	 1.7745316417	-3.8037272249	-1.6593540701	 0.122917
H	-0.7334126673	-1.9067682571	-3.2375701186	 0.09963
H	 0.8328717055	-1.9223861186	-4.1048599124	 0.087973
72.0356	126.4603	187.2507	193.1515	233.2397	283.3048	317.7287	367.7892	436.6942	536.1898	586.3326	633.8501	689.0813	766.6043	792.1029	852.1159	867.03	927.7343	938.415	969.0737	978.9909	984.5777	1017.1163	1032.2563	1093.9035	1098.3453	1133.9323	1144.432	1149.2058	1186.7228	1196.3243	1225.6254	1263.0795	1290.1774	1317.6548	1322.8163	1355.4339	1404.7983	1412.5996	1461.0273	1470.1997	1486.8666	1492.613	1496.569	1497.1793	1510.8375	1517.2516	3016.5748	3021.4867	3027.833	3031.3876	3035.7592	3055.0015	3087.8502	3092.351	3094.7293	3103.6957	3114.0483	3115.5868	3122.9087
CCC12C3CN1C2(C)C3	CC[C@@]12[C@H]3CN1[C@]2(C)C3	
InChI=1S/C8H13N/c1-3-8-6-4-7(8,2)9(8)5-6/h6H,3-5H2,1-2H3	InChI=1S/C8H13N/c1-3-8-6-4-7(8,2)9(8)5-6/h6H,3-5H2,1-2H3/t6-,7-,8+,9?/m1/s1
