17
gdb 86533	4.23918	0.87538	0.77326	2.5404	73.02	-0.2385	-0.0733	0.1652	1425.4811	0.134953	-455.126491	-455.117506	-455.116562	-455.161056	31.979	
O	 0.5625979754	 1.077640138	-0.4915330037	-0.419656
C	-0.0018874013	-0.1089334146	-0.0200472045	 0.137108
C	 0.1032865748	-0.4535494332	 1.4929769529	-0.207907
N	-1.3232179944	-0.7947603553	 1.471634397	-0.087656
C	-1.5517743406	-0.1967593211	 0.1417164963	-0.235222
C	-2.1301213636	-0.7715672517	 2.5783539512	 0.240898
N	-1.6506586428	-0.7019152292	 3.7620311543	-0.504008
C	-3.613676939	-0.9063491125	 2.301909646	 0.11003
O	-4.4331536832	-0.8827597109	 3.1834161732	-0.237636
H	 0.3118819784	 1.7955660139	 0.10040412	 0.284797
H	 0.3870229774	-0.9037282488	-0.6593542158	 0.113278
H	 0.7652942599	-1.2698182485	 1.7932605629	 0.129164
H	 0.3167652039	 0.4206776326	 2.1243944292	 0.115872
H	-2.0191008464	 0.7979280895	 0.1723030738	 0.107442
H	-2.0948845249	-0.8280542782	-0.5678569752	 0.124079
H	-2.4262507789	-0.7630564343	 4.4256049811	 0.237135
H	-3.9089422246	-1.0396186757	 1.2401929113	 0.092282
54.3229	88.4215	125.9339	160.8337	213.9651	291.4871	320.6472	395.9439	410.6113	468.4843	534.5225	568.3129	729.2308	825.1898	866.0564	877.8757	926.4416	991.6222	996.357	1032.4845	1057.6468	1120.9438	1141.7649	1149.7619	1167.0089	1238.4679	1267.9565	1278.175	1312.2884	1341.6463	1389.3076	1439.3432	1469.729	1497.0911	1518.4401	1681.8698	1825.2798	2915.678	3000.4142	3013.045	3075.5543	3089.8167	3106.7222	3459.7886	3801.1127
OC1CN(C1)C(=N)C=O	O[C@H]1CN(C1)[C]([NH])C=O	
InChI=1S/C5H8N2O2/c6-5(3-8)7-1-4(9)2-7/h3-4,6,9H,1-2H2	InChI=1S/C5H8N2O2/c6-5(3-8)7-1-4(9)2-7/h3-4,6,9H,1-2H2
