22
gdb 88572	3.29442	1.00559	0.96354	1.305	89.96	-0.2165	0.026	0.2425	1375.4162	0.195602	-367.207394	-367.198381	-367.197437	-367.24166	34.122	
C	-0.1039670099	 1.5609368196	-0.2088377478	-0.402391
C	-0.0612665937	 0.0723315871	 0.0321529416	 0.020086
N	 1.2193091499	-0.6224706359	-0.130630479	-0.340061
C	 0.6029868524	-0.5772455551	 1.2115998762	-0.175503
C	 1.3274153552	 0.1447889192	 2.285591087	 0.383418
C	 0.9722198656	 0.168464285	 3.5743098819	-0.180938
C	 1.9567417522	 0.917715394	 4.4379803325	-0.243324
C	 2.8444818814	 1.644781394	 3.3956621284	-0.209736
C	 2.6467286414	 0.8653351925	 2.0737330448	-0.293873
H	 0.7959463482	 2.0537658643	 0.1619784829	 0.131583
H	-0.1888954636	 1.7750996165	-1.2798752044	 0.11825
H	-0.9701637912	 2.0053665973	 0.2932518054	 0.117322
H	-0.9476050771	-0.4549139689	-0.3225092136	 0.079843
H	 1.088648992	-1.5362316741	-0.5547498077	 0.230237
H	 0.1006039609	-1.4811872154	 1.5545299941	 0.079748
H	 0.10133357	-0.3348695853	 3.9829233146	 0.076775
H	 1.4763534997	 1.6116581097	 5.1377024675	 0.097523
H	 2.5398046567	 0.2188296781	 5.0562094625	 0.100746
H	 2.4837789712	 2.6708276677	 3.2683292608	 0.100862
H	 3.8927811415	 1.7075422172	 3.6987900331	 0.093244
H	 3.4419073379	 0.125806745	 1.904767753	 0.106271
H	 2.6584799192	 1.5110855376	 1.1917082463	 0.109916
51.4011	102.0003	143.4632	181.4203	192.957	243.6195	370.5703	412.1901	439.2925	548.7172	608.0036	682.8004	772.2223	814.2098	826.2341	863.4848	869.5916	905.4073	919.2203	949.4541	962.3429	991.5956	1019.2305	1037.7975	1061.5389	1070.2168	1122.1299	1151.162	1158.3467	1194.7812	1226.8818	1238.1232	1247.6722	1270.1745	1289.835	1323.5189	1331.5721	1368.7572	1398.4111	1423.2362	1458.9809	1483.5799	1486.5219	1488.4743	1500.0201	1507.6734	1704.7207	2995.7383	3014.4315	3037.6573	3040.2568	3054.1155	3083.0606	3091.6031	3095.0144	3099.0231	3106.5202	3142.1409	3176.9611	3509.2468
CC1NC1C1=CCCC1	C[C@H]1N[C@H]1C1=CCCC1	
InChI=1S/C8H13N/c1-6-8(9-6)7-4-2-3-5-7/h4,6,8-9H,2-3,5H2,1H3	InChI=1S/C8H13N/c1-6-8(9-6)7-4-2-3-5-7/h4,6,8-9H,2-3,5H2,1H3/t6-,8-/m1/s1
