21
gdb 122333	4.92579	0.62129	0.58957	2.9377	82.45	-0.2249	0.0233	0.2482	1898.5541	0.181861	-424.223206	-424.213309	-424.212365	-424.259533	34.679	
O	-0.0180046028	 1.4186889834	 0.3020028457	-0.421093
C	 0.0324254664	 0.0285568973	 0.022783165	-0.071913
C	-1.3851751482	-0.5197168293	 0.1192838337	-0.164594
C	-1.4482459135	-2.0342835222	-0.1514840298	-0.325739
C	-2.8354623407	-2.5974066986	-0.0918071353	 0.321214
C	-3.5473485585	-3.160192605	-1.0651556824	-0.214555
C	-4.8874520045	-3.5971530601	-0.550418914	-0.101122
O	-4.8914999426	-3.2389441391	 0.829810847	-0.26513
C	-3.6598899185	-2.6157364424	 1.1741630561	-0.148714
H	 0.8738893916	 1.7719816726	 0.2369431842	 0.285998
H	 0.4368466542	-0.1625766126	-0.9852104857	 0.084371
H	 0.6842752142	-0.4998861043	 0.738457353	 0.083929
H	-1.7753940535	-0.2910448117	 1.1173316963	 0.112839
H	-2.0203303268	 0.0134078173	-0.5969112842	 0.113041
H	-1.0157948019	-2.2485729595	-1.1358741432	 0.10426
H	-0.8156034345	-2.5509340976	 0.5853876	 0.105319
H	-3.2310300834	-3.3045890194	-2.091182874	 0.094959
H	-5.7238841105	-3.099279638	-1.0674941465	 0.102225
H	-5.0472307879	-4.6826812747	-0.654964705	 0.101539
H	-3.1622540565	-3.1821368191	 1.9795352062	 0.098203
H	-3.852322992	-1.6047591869	 1.5673307428	 0.104964
47.5111	72.8468	87.7715	112.1757	124.8382	238.0187	260.0997	282.9602	324.8509	415.4674	518.7375	661.7904	756.6163	777.8635	820.793	865.2272	912.6788	927.4301	972.7136	1012.4426	1027.6779	1034.5318	1060.2996	1081.5946	1098.0316	1117.482	1173.5659	1205.7333	1212.2583	1225.7801	1231.6101	1282.2061	1306.128	1313.165	1325.5473	1372.5271	1377.6476	1397.4117	1463.8599	1480.5599	1499.5186	1516.3415	1528.0957	1529.5646	1729.7583	2955.2343	2958.0919	2967.7279	2978.571	2980.1963	2981.6202	2999.4067	3042.7133	3053.2563	3089.5443	3207.2986	3830.462
OCCCC1=CCOC1	OCCCC1=CCOC1	
InChI=1S/C7H12O2/c8-4-1-2-7-3-5-9-6-7/h3,8H,1-2,4-6H2	InChI=1S/C7H12O2/c8-4-1-2-7-3-5-9-6-7/h3,8H,1-2,4-6H2
