16
gdb 5687	4.6296	2.03672	1.45827	3.4956	70.44	-0.2039	0.0349	0.2388	837.5649	0.135161	-342.83172	-342.82547	-342.824526	-342.86205	24.421	
C	 0.0350397534	 1.4978740924	-0.067808803	-0.193204
C	 1.5388325539	 1.9448402381	 0.037658345	-0.349957
C	 2.1324480744	 0.7226935513	 0.6524435397	 0.304222
C	 1.3118732006	-0.3639289595	 0.6666839303	 0.27928
C	-0.0245871812	-0.0638871989	 0.0566947372	-0.337053
N	 1.9413692588	-1.4689537193	 1.1843059061	-0.342008
C	 3.1493856299	-1.0380364888	 1.4837068643	-0.015906
N	 3.3279835564	 0.2907747584	 1.1733968744	-0.374327
H	-0.5186100457	 1.9423959815	 0.7640995529	 0.111485
H	-0.4281245254	 1.8581648783	-0.9895466953	 0.100269
H	 1.9669375486	 2.1627746148	-0.9506036811	 0.109086
H	 1.6451503548	 2.8579768634	 0.6344899636	 0.104792
H	-0.8748917832	-0.3874367402	 0.665568256	 0.110055
H	-0.1397741215	-0.5432801872	-0.9241421187	 0.107924
H	 3.9373668809	-1.6255970328	 1.9316728132	 0.123295
H	 4.1641679653	 0.8275286685	 1.3296193755	 0.262048
123.1686	217.1425	248.8431	426.5915	497.0307	573.613	656.8092	687.5942	713.8481	730.6074	787.5804	830.3241	895.0943	912.7209	966.5892	991.1909	1060.773	1078.9846	1114.3941	1156.4895	1211.0108	1214.1849	1249.3679	1277.2656	1302.4945	1330.5408	1376.099	1381.2967	1459.0778	1484.315	1495.8999	1509.4833	1521.4831	1627.327	3005.4114	3019.9565	3043.8619	3059.2567	3069.9369	3107.2107	3245.9856	3668.0839
C1CC2=C(C1)N=CN2	C1Cc2c(C1)nc[nH]2	
InChI=1S/C6H8N2/c1-2-5-6(3-1)8-4-7-5/h4H,1-3H2,(H,7,8)	InChI=1S/C6H8N2/c1-2-5-6(3-1)8-4-7-5/h4H,1-3H2,(H,7,8)
