17
gdb 23421	3.3963	1.29341	1.05924	2.1812	71.8	-0.2318	-0.0091	0.2227	1124.3661	0.137605	-455.074463	-455.06676	-455.065816	-455.106958	29.432	
O	-0.2096095278	 1.3126126453	-0.0459068039	-0.388704
N	-0.0404712133	-0.0711485699	 0.1200518353	-0.223934
C	-1.1425879336	-0.6921482099	-0.0068384397	 0.412291
C	-2.5460851492	-0.1510948619	-0.2088828169	-0.281695
N	-3.4436625855	-1.1464514376	 0.416050594	-0.299324
C	-2.7479457116	-2.4323880922	 0.3968377363	-0.061445
C	-2.7250485132	-3.150787572	-0.9686494391	-0.072205
O	-1.3243953102	-2.8478396573	-1.1621102659	-0.290592
C	-1.2306271644	-2.1853483658	 0.1256906557	 0.010263
H	 0.6805159298	 1.64787878	 0.1076754487	 0.309119
H	-2.6744796343	 0.8396229053	 0.2299066373	 0.135748
H	-2.763655684	-0.0617498764	-1.2811705609	 0.137065
H	-3.6075286651	-0.8772630215	 1.3795014736	 0.226588
H	-3.0325750037	-3.0457028502	 1.2512629667	 0.086318
H	-2.9032524039	-4.2323652015	-0.9377632425	 0.103482
H	-3.3649537697	-2.6976217719	-1.7345445955	 0.110135
H	-0.4579883202	-2.6231219725	 0.7615498268	 0.08689
80.143	146.9584	186.3335	230.197	358.9856	394.9513	418.4655	462.5967	588.3192	672.8936	687.8455	771.4443	804.0066	839.7187	851.2708	911.0604	962.1688	973.4651	1005.1198	1009.8684	1018.4495	1078.1893	1131.4357	1162.5647	1193.6062	1221.3081	1234.2901	1245.4164	1296.3007	1314.2948	1340.7266	1372.1289	1410.3661	1466.5715	1487.2571	1518.4712	1758.7598	3020.6726	3026.4949	3070.3103	3090.3032	3118.5326	3120.7957	3534.9991	3813.4276
ON=C1CNC2COC12	ON=C1CN[C@H]2CO[C@@H]12	
InChI=1S/C5H8N2O2/c8-7-3-1-6-4-2-9-5(3)4/h4-6,8H,1-2H2	InChI=1S/C5H8N2O2/c8-7-3-1-6-4-2-9-5(3)4/h4-6,8H,1-2H2/t4-,5-/m0/s1
