17
gdb 79844	2.73249	1.71352	1.46474	2.5233	66.31	-0.2387	0.0656	0.3043	938.6074	0.136982	-458.921412	-458.914079	-458.913134	-458.952766	29.573	
O	 0.1205447985	 1.3840753249	 0.1928559105	-0.454863
C	-0.0154915926	-0.0009890335	 0.0265237897	 0.167406
C	-1.4049979011	-0.6517431177	-0.032824014	-0.177034
C	-2.0440463613	-0.4548953967	-1.411566118	-0.159839
C	-1.521161929	 0.6483540716	-2.3127947172	-0.116971
O	-0.0910072262	 0.4493182865	-2.3665242257	-0.285656
C	 0.2496231062	-0.5572583648	-1.408113057	-0.069551
C	-0.974228142	-1.4863368813	-1.2270233274	 0.385648
O	-1.0547856994	-2.8481540119	-1.4036383522	-0.46173
H	 0.2269767267	 1.7452911722	-0.6978294294	 0.291078
H	 0.599081965	-0.5140479797	 0.7746271115	 0.08806
H	-2.0160208448	-0.9456111284	 0.8121810372	 0.095365
H	-3.0725518765	-0.7841079663	-1.5018553352	 0.100444
H	-1.9242761735	 0.5683441234	-3.3300542449	 0.106949
H	-1.7382905847	 1.6538223158	-1.9328037954	 0.10987
H	 1.2301443112	-0.9623374828	-1.6525178645	 0.089235
H	-1.1729585865	-3.0307562713	-2.342857868	 0.291588
156.0281	231.872	267.198	285.2444	293.21	372.0311	459.4252	531.0576	577.0206	628.9524	668.7739	709.8141	799.9729	823.287	878.7715	910.0471	939.6655	971.1747	993.3813	1020.3207	1043.6189	1072.2737	1089.0504	1119.8975	1156.8077	1171.391	1203.9165	1224.9952	1266.7341	1298.5676	1309.4433	1326.6995	1343.1899	1380.2268	1418.175	1485.3742	1528.4407	3017.5068	3048.4267	3053.1032	3137.1656	3185.8612	3195.1994	3745.8491	3789.0198
OC1C2C3COC1C23O	O[C@H]1[C@H]2[C@H]3CO[C@@H]1[C@@]23O	
InChI=1S/C6H8O3/c7-4-3-2-1-9-5(4)6(2,3)8/h2-5,7-8H,1H2	InChI=1S/C6H8O3/c7-4-3-2-1-9-5(4)6(2,3)8/h2-5,7-8H,1H2/t2-,3-,4+,5+,6+/m1/s1
