15
gdb 10471	3.50242	1.68871	1.25091	1.5855	64.03	-0.2502	-0.0361	0.2141	937.1202	0.118111	-399.82278	-399.815083	-399.814139	-399.854909	28.026	
O	 0.3700164235	 2.3086115748	-1.4245219072	-0.342552
C	 0.100418751	 1.8128357741	-0.3467135459	 0.150154
N	 0.9683669895	 1.1563098483	 0.4587169831	-0.360535
C	 2.3551428897	 0.9134780139	 0.2116793171	 0.291772
C	 2.9130980275	 0.629115286	-1.1812891581	-0.303612
C	 3.2589368728	 1.9151134001	-0.5038715893	-0.303581
C	 2.9716554193	 0.1603030385	 1.3257888325	 0.13208
O	 2.3661941299	-0.1961678553	 2.3097875543	-0.293325
H	-0.9132919664	 1.8508741552	 0.0964444455	 0.088243
H	 0.6483731427	 0.7757946748	 1.3402891457	 0.263608
H	 3.6649114211	-0.1484835376	-1.26573982	 0.124571
H	 2.1898402129	 0.6787645681	-1.9838847991	 0.168423
H	 2.7622660869	 2.8059682215	-0.8636688709	 0.16842
H	 4.2578977427	 2.0556798499	-0.1045575971	 0.124556
H	 4.0515802969	-0.0580332923	 1.1893968994	 0.091778
86.7645	157.3514	192.6924	253.0173	255.1299	352.0185	354.1793	482.0651	547.808	617.7063	757.0752	779.1016	815.6567	851.3653	919.0814	957.5497	1029.7472	1032.2357	1043.9142	1073.9527	1097.9677	1194.2931	1200.4743	1303.7877	1330.2723	1422.4676	1439.2432	1445.4772	1478.8171	1541.8714	1782.146	1806.0985	2918.2783	2950.4987	3144.0762	3145.2453	3249.796	3258.8059	3576.5013
O=CNC1(CC1)C=O	O=CNC1(CC1)C=O	
InChI=1S/C5H7NO2/c7-3-5(1-2-5)6-4-8/h3-4H,1-2H2,(H,6,8)	InChI=1S/C5H7NO2/c7-3-5(1-2-5)6-4-8/h3-4H,1-2H2,(H,6,8)
