18
gdb 41281	2.87909	2.08282	1.84969	1.3957	74.4	-0.2216	0.0682	0.2898	841.6817	0.150244	-401.853919	-401.847727	-401.846782	-401.884002	27.022	
C	 0.0272130721	 1.5279113163	-0.1618623429	-0.310317
C	 1.5816352378	 1.5726789429	 0.1145363489	-0.342239
C	 1.5269661922	 0.1223105302	 0.6307728392	 0.419414
O	 1.6331850522	-0.3188124189	 1.9767160874	-0.318536
C	 0.9199411612	-1.4983846165	 1.4864417874	 0.0437
C	-0.5072489237	-0.9138313193	 1.2359894797	-0.29915
C	 0.0320893287	 0.0138205111	 0.1414109284	 0.236322
N	 0.5278000107	-0.8955062938	-0.9420805223	-0.350957
C	 1.5681458615	-1.2764554693	 0.0174628705	-0.122209
H	-0.5448012358	 2.1046428284	 0.5696433584	 0.111026
H	-0.2929707974	 1.806383887	-1.1675054357	 0.110574
H	 2.2016257664	 1.7060404416	-0.7738257619	 0.123567
H	 1.8969572277	 2.2890345498	 0.8758438845	 0.122028
H	 1.0689789457	-2.385291689	 2.1007791331	 0.081445
H	-1.2515128654	-1.6377853659	 0.890455361	 0.091733
H	-0.8672418899	-0.4130686544	 2.1368778445	 0.115024
H	-0.1257363523	-1.6332791557	-1.2024500334	 0.209909
H	 2.4288766681	-1.8759407845	-0.2873419769	 0.078666
189.2025	296.9941	384.4424	466.561	492.7248	551.1582	627.9512	678.2377	700.5736	725.1404	758.2488	806.6912	844.6874	864.3745	879.9594	904.1789	918.6819	938.2693	971.4358	995.2879	1035.212	1055.6071	1067.6429	1119.1108	1151.9453	1175.0247	1188.7914	1208.9362	1226.9019	1249.516	1252.8941	1272.3363	1286.9234	1306.4872	1334.6585	1361.8539	1449.5129	1467.8508	1476.2815	3057.4253	3065.9303	3077.3885	3090.703	3120.9127	3123.6245	3137.5948	3138.4383	3455.0894
C1CC23OC4CC12NC34	C1C[C@@]23O[C@H]4C[C@@]12N[C@@H]34	
InChI=1S/C7H9NO/c1-2-7-5-4(9-7)3-6(1,7)8-5/h4-5,8H,1-3H2	InChI=1S/C7H9NO/c1-2-7-5-4(9-7)3-6(1,7)8-5/h4-5,8H,1-3H2/t4-,5+,6-,7-/m0/s1
