14
gdb 130391	2.16087	1.72523	0.97927	3.5001	70.48	-0.2634	-0.0439	0.2195	1120.8524	0.102156	-432.867003	-432.85889	-432.857946	-432.90094	28.611	
N	 0.3853494474	 0.8165504028	-0.8753208375	-0.498217
C	-0.2232619274	 0.3282547971	 0.3528554525	-0.286795
C	-1.436850272	-0.4921142233	 0.0488548915	 0.379846
C	-2.313204751	-0.5434238692	-1.0067031055	-0.040966
C	-3.24873092	-1.5487347013	-0.6068723658	-0.024952
N	-2.965149846	-2.0508026359	 0.562025689	-0.127739
O	-1.8086709439	-1.3790860854	 0.9754956013	-0.209368
C	-2.3419400621	 0.2008484683	-2.209949251	 0.227842
N	-2.4373844157	 0.7683688999	-3.2143182337	-0.347929
H	 1.0436877245	 1.5598715149	-0.6756220298	 0.245964
H	 0.8922418095	 0.078207801	-1.3511223127	 0.244185
H	 0.4277405327	-0.2715372947	 1.0095033584	 0.127243
H	-0.5398369243	 1.1957268672	 0.9467402856	 0.150941
H	-4.1107006816	-1.9056719415	-1.1516875324	 0.159946
27.3188	133.7921	181.8873	194.0574	234.6138	282.1565	413.5769	526.0035	539.6325	600.8244	637.8462	688.544	721.4134	819.5892	906.9049	921.8587	953.5476	971.861	1092.5403	1164.7047	1178.1162	1202.5111	1241.3058	1330.5886	1375.9716	1436.2164	1484.0879	1520.9614	1637.2481	1667.8508	2355.888	2973.8955	3041.0944	3256.3791	3520.7241	3605.9699
NCC1=C(C=NO1)C#N	NCc1c(cno1)C#N	
InChI=1S/C5H5N3O/c6-1-4-3-8-9-5(4)2-7/h3H,2,7H2	InChI=1S/C5H5N3O/c6-1-4-3-8-9-5(4)2-7/h3H,2,7H2
