16
gdb 133112	2.52475	1.54321	0.96584	2.5163	76.79	-0.2078	-0.0097	0.198	1160.2098	0.125581	-442.084706	-442.076798	-442.075854	-442.117245	29.669	
C	 0.0240025235	 1.4390874391	 0.1130660139	-0.325999
N	-0.1293718958	 0.0146001267	-0.1004692521	-0.383761
C	 0.5516423902	-0.6417426753	-1.1049478079	 0.185871
C	 1.1781566496	-0.0106028806	-2.1911047436	-0.073573
N	 1.7961413103	-0.6568744323	-3.1829851795	-0.267355
C	 1.8332051307	-1.9869102551	-3.1419063132	-0.01121
C	 1.2610109058	-2.7324714637	-2.1088715421	-0.250278
C	 0.6261518084	-2.0419990551	-1.1018595001	 0.250441
F	 0.0622299698	-2.6929676703	-0.0714428111	-0.089804
H	 1.071771082	 1.747528085	 0.2500746734	 0.122994
H	-0.3863111051	 2.0038618801	-0.7313307755	 0.139894
H	-0.5400096628	 1.7219451715	 1.0040030302	 0.130862
H	-0.2823590035	-0.5426205435	 0.7244333412	 0.247863
H	 1.1729375003	 1.073260356	-2.2562858152	 0.104011
H	 2.3418856027	-2.4887323726	-3.9599605941	 0.107994
H	 1.306106624	-3.8145899899	-2.0838034444	 0.112052
99.9755	162.8064	200.9707	218.6451	308.6337	321.6865	426.0191	464.7466	518.4024	553.2294	608.785	622.8431	763.1047	794.2911	842.8047	856.5445	914.2252	952.0295	1055.647	1090.0714	1147.2537	1159.0441	1217.7772	1239.1165	1301.177	1321.745	1366.1512	1446.7506	1474.5352	1483.186	1489.1151	1524.542	1557.6193	1608.7654	1652.0677	2987.27	3062.7931	3126.6555	3166.3806	3171.9445	3209.4056	3635.0117
CNC1=CN=CC=C1F	CNc1cnccc1F	
InChI=1S/C6H7FN2/c1-8-6-4-9-3-2-5(6)7/h2-4,8H,1H3	InChI=1S/C6H7FN2/c1-8-6-4-9-3-2-5(6)7/h2-4,8H,1H3
