16
gdb 126054	3.78751	1.08712	1.04465	4.2821	70.79	-0.2691	-0.0426	0.2265	1182.1355	0.124949	-434.003108	-433.995327	-433.994382	-434.036199	28.51	
C	 1.064110168	 1.17507364	-0.6121306669	-0.403338
C	 0.115317613	 0.1424461979	-0.0582705927	 0.017689
N	 0.6781305478	-1.1254970373	 0.4153259543	-0.337195
C	 0.0315984082	-0.2331521222	 1.391993729	-0.16207
C	 0.9155966668	 0.3318989604	 2.4304210284	 0.376004
N	 0.4598771183	 1.0323965564	 3.4370461277	-0.168913
O	 1.5536475909	 1.3679040823	 4.1859037719	-0.147095
N	 2.7023013865	 0.8663897724	 3.6428301125	-0.066149
C	 2.3309377736	 0.2275658944	 2.5696437611	-0.109038
H	 1.9945528392	 1.2138524127	-0.0417731123	 0.130919
H	 1.3159470027	 0.9409218102	-1.6515506708	 0.128436
H	 0.6051646329	 2.1687009129	-0.5893102278	 0.129942
H	-0.840151162	 0.0867376472	-0.5791489944	 0.097214
H	 0.0740176782	-1.9112169009	 0.1935004361	 0.242608
H	-0.9596404677	-0.4867520553	 1.7582089865	 0.109266
H	 3.0366667336	-0.2899449013	 1.9408588972	 0.161718
57.0555	118.1329	160.8202	202.1257	283.3502	386.1699	443.5389	509.5605	644.6064	666.4113	755.7949	786.1099	857.9054	891.8718	915.3286	928.17	945.5207	991.6573	1020.5098	1029.0144	1061.4113	1069.41	1133.7145	1166.6783	1208.4746	1246.1814	1256.6853	1383.2572	1415.9531	1432.8612	1449.801	1483.8402	1486.75	1501.9333	1612.5175	3042.7871	3105.9695	3108.1009	3134.016	3147.3683	3285.8868	3518.9592
CC1NC1C1=NON=C1	C[C@H]1N[C@H]1c1nonc1	
InChI=1S/C5H7N3O/c1-3-5(7-3)4-2-6-9-8-4/h2-3,5,7H,1H3	InChI=1S/C5H7N3O/c1-3-5(7-3)4-2-6-9-8-4/h2-3,5,7H,1H3/t3-,5-/m1/s1
