18
gdb 36361	4.95434	0.74691	0.68874	2.2262	79.08	-0.2507	0.0481	0.2989	1602.1698	0.145885	-401.857092	-401.847969	-401.847025	-401.892127	33.177	
C	 0.1103552212	-1.2242752333	 0.101994543	-0.435349
C	 0.0458623234	-0.0280264479	 0.1960395932	 0.292669
C	 0.0013071596	 1.4254366669	 0.3181103929	-0.356441
C	 1.3460137087	 2.0695041633	 0.0063113168	-0.014148
N	 1.5979766222	 2.4491473718	-1.3849087197	-0.332161
C	 1.5064599516	 3.5048911843	-0.363015824	-0.060184
C	 0.372100828	 4.4685635761	-0.4859538521	 0.094829
C	 0.1925272983	 5.5619866103	 0.4787030691	-0.183062
O	 0.7304309746	 5.8142439685	-0.8188539241	-0.238405
H	 0.1545592063	-2.2812203957	 0.0119197636	 0.196112
H	-0.7583829527	 1.8283952365	-0.3596585511	 0.139336
H	-0.3036674125	 1.6979163095	 1.337159231	 0.131946
H	 2.1718459192	 1.6335540495	 0.5660442448	 0.097399
H	 2.5623155896	 2.2751019612	-1.6514924414	 0.239038
H	 2.4285938698	 3.9842327238	-0.0367947145	 0.093752
H	-0.5005115976	 4.0962271106	-1.0205760512	 0.105271
H	-0.8031545329	 5.9627847015	 0.663582553	 0.11748
H	 0.8950687933	 5.6701605532	 1.3047472406	 0.111919
44.5717	62.5243	102.3648	164.4182	238.4761	322.6232	336.5343	367.9192	426.2516	504.3753	580.3902	618.7056	643.4163	802.3569	826.0367	866.3747	871.5334	909.1605	952.4369	970.336	978.2886	1021.2776	1053.8706	1097.3129	1140.9391	1156.2368	1170.1873	1189.9045	1237.0238	1261.629	1267.729	1291.1158	1318.4732	1347.6441	1431.3437	1458.6406	1492.8301	1532.5724	2240.6149	3024.3924	3074.4322	3079.7218	3114.7803	3122.3432	3129.095	3166.0437	3507.2157	3519.6617
C#CCC1NC1C1CO1	C#CC[C@H]1N[C@H]1[C@H]1CO1	
InChI=1S/C7H9NO/c1-2-3-5-7(8-5)6-4-9-6/h1,5-8H,3-4H2	InChI=1S/C7H9NO/c1-2-3-5-7(8-5)6-4-9-6/h1,5-8H,3-4H2/t5-,6-,7-/m1/s1
