21
gdb 63973	3.2061	1.29584	1.14666	1.6205	85.4	-0.2248	0.0093	0.2341	1175.3328	0.182238	-387.068655	-387.060038	-387.059094	-387.101351	33.845	
C	 0.0873809878	 1.4710502376	 0.1901071352	-0.443822
C	-0.0365864793	-0.0412950585	 0.0396913838	 0.224073
C	-1.5042358743	-0.485829467	 0.0960254405	-0.434364
C	 0.734069935	-0.709003516	-1.1794516849	-0.303156
C	 1.2127328073	-1.8478359679	-0.2082347802	 0.092083
O	 2.5671969793	-2.222986229	-0.0496777208	-0.282552
C	 2.9753109836	-1.8131683212	 1.2704310795	-0.105858
C	 1.9405026397	-0.788441956	 1.7157946466	-0.272359
C	 0.9035400097	-0.886631453	 0.8924835404	 0.228281
H	 1.1338705368	 1.7866765953	 0.1511861521	 0.116077
H	-0.456519951	 1.9857233729	-0.610139623	 0.115112
H	-0.3333876083	 1.8066913696	 1.1448139815	 0.116063
H	-2.0746204395	-0.0197137565	-0.7149116997	 0.114331
H	-1.6079670792	-1.5704586791	-0.0003785069	 0.119365
H	-1.9637849073	-0.189277933	 1.044771191	 0.118797
H	 0.1254914666	-1.0055504102	-2.0382182208	 0.096606
H	 1.5773694954	-0.0954206595	-1.502595045	 0.111388
H	 0.577928105	-2.7403789489	-0.2935764099	 0.077261
H	 3.0442376709	-2.6923966873	 1.9317484291	 0.101453
H	 3.9786176871	-1.3715651606	 1.2075391828	 0.109861
H	 2.1414568148	-0.0393336918	 2.4712749688	 0.101362
127.9171	140.6037	215.8878	235.9516	256.8938	291.6589	326.325	356.3688	408.1492	475.974	580.899	688.726	730.3369	771.014	806.2929	846.9583	898.893	926.8621	932.1666	959.7808	974.7373	981.1874	1019.3285	1034.378	1051.2855	1103.8884	1130.6214	1157.3446	1194.4927	1208.2549	1228.2866	1254.8974	1274.0494	1302.6868	1347.5196	1387.1239	1402.422	1420.0352	1467.8539	1483.0341	1488.125	1501.7873	1507.3062	1518.8282	1716.953	2967.7481	3003.9362	3025.185	3028.7357	3031.3184	3057.6092	3088.8656	3097.2701	3107.4644	3109.3876	3131.3727	3210.3468
CC1(C)CC2OCC=C12	CC1(C)C[C@H]2OC[CH][C]12	
InChI=1S/C8H12O/c1-8(2)5-7-6(8)3-4-9-7/h3,7H,4-5H2,1-2H3	InChI=1S/C8H12O/c1-8(2)5-7-6(8)3-4-9-7/h3,7H,4-5H2,1-2H3/t7-/m1/s1
