20
gdb 8332	5.49055	1.23987	1.2312	1.621	75.25	-0.2358	0.0788	0.3146	1089.5946	0.177031	-348.985139	-348.977125	-348.976181	-349.01788	30.369	
C	-0.9224950055	 1.1045289489	-0.027940162	-0.405714
C	 0.1468204672	 0.0314189426	 0.1050968612	 0.057098
C	 1.3276854072	 0.0192105683	-0.9090787997	-0.30646
C	 2.2720026559	-0.3446810774	 0.2565376577	 0.470151
C	 2.8573331412	-1.7694197394	 0.383226027	-0.344369
C	 4.2192762564	-1.0512433866	 0.4187220447	-0.0758
O	 3.5865754991	 0.2391228387	 0.2977126082	-0.315754
C	 1.1986581296	 0.1577663678	 1.2456287735	-0.306459
H	-0.4714601069	 2.1026920137	-0.0650987611	 0.11317
H	-1.5109789864	 0.9703521258	-0.9426099365	 0.113471
H	-1.6165426917	 1.0836636854	 0.819880546	 0.113471
H	-0.3224598667	-0.9580897447	 0.1406238132	 0.069947
H	 1.2813772415	-0.6603642576	-1.76485208	 0.091018
H	 1.553423158	 1.0293137227	-1.2670958204	 0.108037
H	 2.5841667066	-2.3043233755	 1.2950947472	 0.108468
H	 2.690561614	-2.4183186509	-0.4789605804	 0.108469
H	 4.7848069324	-1.143857732	 1.3537892512	 0.1011
H	 4.8914280151	-1.2581887973	-0.4227853422	 0.101103
H	 1.387956327	 1.2069940056	 1.4960852443	 0.108036
H	 1.0457804159	-0.4073758283	 2.1695106382	 0.091017
62.7197	75.4369	227.5625	251.1882	291.9015	318.2671	427.4539	439.3789	475.4315	698.4206	782.4137	820.0198	841.1373	865.2269	883.0752	928.4406	940.6917	953.6988	975.6175	1027.2297	1028.0397	1070.0782	1123.0785	1159.7005	1176.7797	1190.5096	1204.5938	1220.2399	1226.1058	1246.822	1264.4292	1285.5588	1312.9045	1358.8511	1375.9684	1410.6607	1463.6344	1484.2888	1491.6184	1495.9027	1498.0013	1531.3513	3016.6248	3022.3995	3037.71	3041.8832	3048.5407	3055.2414	3070.8462	3089.4065	3091.1043	3099.5083	3104.717	3125.2212
CC1CC2(CCO2)C1	C[C@H]1C[C@]2(CCO2)C1	
InChI=1S/C7H12O/c1-6-4-7(5-6)2-3-8-7/h6H,2-5H2,1H3	InChI=1S/C7H12O/c1-6-4-7(5-6)2-3-8-7/h6H,2-5H2,1H3/t6-,7+
