17
gdb 124822	4.4754	0.91869	0.78849	4.3391	70.03	-0.2631	-0.0327	0.2304	1405.3786	0.134638	-455.125847	-455.117139	-455.116195	-455.160075	31.647	
C	 0.1961202855	 1.4971954719	 0.0972653744	-0.405199
C	 0.0485996157	-0.0085822295	 0.3033799851	 0.126722
O	 0.0541936977	-0.3445552031	 1.6924676558	-0.426535
C	-1.1992191753	-0.5682925489	-0.3987306739	-0.330915
C	-1.3340076932	-2.053963244	-0.2910107749	 0.251861
C	-0.985403772	-2.9362898802	 0.6844487545	-0.034453
O	-1.3152120822	-4.1670746359	 0.2996633875	-0.163914
N	-1.9066780222	-4.03663107	-0.9929645619	-0.010048
N	-1.8991781775	-2.8163878746	-1.2958271687	-0.181184
H	 1.076820071	 1.8655954617	 0.6294164612	 0.130752
H	 0.3015088607	 1.7437653096	-0.9637134792	 0.125874
H	-0.6841477112	 2.0309152713	 0.4774311055	 0.111128
H	 0.931657406	-0.5184293001	-0.0988176894	 0.102199
H	-0.6422094738	 0.1669450081	 2.1204985022	 0.28072
H	-2.0888635047	-0.0734923151	 0.0188652846	 0.111549
H	-1.177585769	-0.3033882312	-1.460945282	 0.13075
H	-0.5126722155	-2.8115174599	 1.6427338591	 0.180692
42.9751	89.1012	141.4305	241.3622	289.1573	300.9528	314.9921	332.4995	457.5062	482.6105	637.1547	642.6756	704.3836	748.9412	844.6235	878.8484	909.8138	942.8545	989.145	1046.7694	1059.7064	1079.9223	1139.5138	1154.6062	1191.096	1230.3101	1301.5835	1321.9461	1350.5474	1386.0556	1404.8009	1422.8186	1459.9326	1474.4503	1493.1432	1495.1838	1612.0208	2999.8939	3026.7614	3051.0572	3079.3803	3099.5964	3124.3443	3310.9095	3791.9612
CC(O)CC1=CON=N1	C[C@@H](O)Cc1conn1	
InChI=1S/C5H8N2O2/c1-4(8)2-5-3-9-7-6-5/h3-4,8H,2H2,1H3	InChI=1S/C5H8N2O2/c1-4(8)2-5-3-9-7-6-5/h3-4,8H,2H2,1H3/t4-/m1/s1
