17
gdb 7969	3.52051	1.69155	1.21154	5.8174	73.8	-0.2149	-0.0083	0.2066	990.7447	0.142953	-363.919276	-363.911268	-363.910323	-363.95161	30.179	
C	-0.1172233138	 1.5462481053	 0.0170834247	-0.394593
C	 0.0617742112	 0.0276819849	-0.0223605473	-0.087956
C	 0.8856065452	-0.515855603	-1.2071757118	-0.331543
C	 1.9528463986	-1.3751030181	-0.5647615602	 0.39546
N	 2.8015855549	-2.0838662329	-1.3534094141	-0.575423
C	 1.8966811088	-1.3425798462	 0.7908221972	-0.331266
C	 0.8071485071	-0.4878349055	 1.2345236252	 0.402778
O	 0.4950743333	-0.1918011398	 2.3712048586	-0.379183
H	 0.850957578	 2.0563929116	-0.0441059768	 0.111822
H	-0.7410903101	 1.9021809192	-0.8089934985	 0.105733
H	-0.5865669146	 1.8327515274	 0.9616952679	 0.141941
H	-0.9291878957	-0.4419277262	-0.011552938	 0.097953
H	 0.2902425285	-1.1031665091	-1.9161752543	 0.117316
H	 1.3529391015	 0.2925596742	-1.7856093107	 0.113512
H	 2.878752338	-1.8464439791	-2.3280759836	 0.26049
H	 3.6109844468	-2.5200880908	-0.9434266657	 0.264291
H	 2.5627250222	-1.8554328918	 1.4726194173	 0.088668
62.7676	162.5677	227.4758	250.6659	305.3876	331.0853	380.5877	450.9303	513.3184	556.138	581.6824	616.1242	712.7572	779.8759	856.2461	895.561	915.564	927.5937	1040.0092	1075.7489	1101.1256	1127.208	1195.095	1210.9167	1249.2475	1283.1679	1311.7517	1344.2651	1401.6902	1410.5276	1477.575	1494.8092	1500.9853	1636.6268	1680.5601	1791.6586	3018.4085	3030.532	3034.0792	3059.504	3096.1235	3123.1573	3214.9309	3599.7254	3713.2641
CC1CC(N)=CC1=O	C[C@H]1CC(=CC1=O)N	
InChI=1S/C6H9NO/c1-4-2-5(7)3-6(4)8/h3-4H,2,7H2,1H3	InChI=1S/C6H9NO/c1-4-2-5(7)3-6(4)8/h3-4H,2,7H2,1H3/t4-/m0/s1
