16
gdb 82003	2.55708	1.45619	1.31433	2.3848	68.85	-0.2746	0.0008	0.2753	1031.6744	0.122237	-437.85037	-437.841791	-437.840847	-437.883336	31.821	
C	-0.0830403294	 1.5673421609	-0.088224859	-0.412233
C	 0.0016405712	 0.0511410734	-0.0406281825	-0.111118
C	 0.7016754697	-0.6591793983	-1.2092733897	 0.043298
O	 2.0421593493	-0.1610508596	-1.2575386181	-0.234269
C	 1.7575682769	-1.2140770275	-0.3472581566	-0.009646
C	 1.1326829369	-0.5775830418	 0.9104102749	 0.244411
O	 2.0066258622	 0.2834439334	 1.5850839468	-0.450078
C	 0.5664918032	-1.5909223489	 1.8107037945	 0.219758
N	 0.1140084562	-2.3696056236	 2.5359063279	-0.331976
H	 0.8927830107	 1.9974565624	-0.3199302969	 0.153129
H	-0.798123234	 1.8845083786	-0.8541432236	 0.125154
H	-0.423864219	 1.9739442226	 0.8696715361	 0.115699
H	-0.9664122564	-0.4046358314	 0.1833686761	 0.104304
H	 0.2777989458	-1.0525571626	-2.1249071107	 0.117519
H	 2.3461898752	-2.1213189533	-0.403249705	 0.128322
H	 1.5540007617	 0.6512915657	 2.3527476858	 0.297725
108.7096	152.6997	188.8545	202.8685	225.6684	260.4611	285.2599	407.0167	487.2732	504.1927	558.4369	610.7733	672.8659	762.057	842.808	863.5966	877.489	953.4132	1007.2949	1019.7235	1041.5672	1060.209	1082.8451	1139.7014	1183.5591	1233.3659	1239.4438	1264.9185	1351.564	1364.3859	1382.9875	1409.1176	1490.3253	1498.2526	2347.1359	3040.859	3081.0481	3101.0308	3143.2236	3194.6723	3208.6963	3805.5819
CC1C2OC2C1(O)C#N	C[C@H]1[C@H]2O[C@H]2[C@]1(O)C#N	
InChI=1S/C6H7NO2/c1-3-4-5(9-4)6(3,8)2-7/h3-5,8H,1H3	InChI=1S/C6H7NO2/c1-3-4-5(9-4)6(3,8)2-7/h3-5,8H,1H3/t3-,4+,5+,6-/m0/s1
