22
gdb 115102	2.59385	1.2624	0.99788	2.4031	82.06	-0.2412	0.0334	0.2746	1288.2826	0.195135	-404.374306	-404.365	-404.364056	-404.408365	34.998	
C	 0.022254972	 1.5906582022	 0.1075302016	-0.390677
C	 0.0037828422	 0.0668284185	-0.0607618435	-0.195137
C	-1.4086311073	-0.5362643244	-0.0804056015	-0.010993
C	-2.2287623392	-0.1582986492	-1.3231818093	-0.167313
N	-3.4978063988	-0.8720772731	-1.4263225937	-0.273562
C	-3.6397407751	-1.9276564353	-0.7454958317	 0.123066
O	-2.7616667325	-2.5600095843	 0.0691592324	-0.238842
C	-1.4017611045	-2.0673513634	 0.0595785432	 0.107239
C	-0.6120944832	-2.830602087	-1.0035419422	-0.4033
H	 1.0491193864	 1.9653123728	 0.1569694447	 0.115037
H	-0.4725798389	 2.0977963976	-0.7262278073	 0.125211
H	-0.4874004997	 1.8921847104	 1.0292292517	 0.118241
H	 0.5313492662	-0.2027565167	-0.9843399137	 0.101126
H	 0.5736928837	-0.3896483965	 0.7598813875	 0.094058
H	-1.9514137487	-0.1574354358	 0.797242724	 0.083848
H	-2.4528179301	 0.9135361366	-1.3218380833	 0.111525
H	-1.6466011351	-0.3393023144	-2.2385274296	 0.106705
H	-4.5844707692	-2.4694077827	-0.7539681383	 0.11949
H	-1.0149386377	-2.3358271862	 1.0485100943	 0.090003
H	-0.9543376839	-2.5867649214	-2.0134645829	 0.132245
H	 0.4548574959	-2.6010391851	-0.9351776749	 0.123035
H	-0.7407051323	-3.9055658227	-0.8526371774	 0.128997
85.3206	109.3417	135.9614	196.8326	230.8946	236.3731	296.3571	345.4964	414.1306	449.2966	487.9715	543.6577	598.2785	753.7207	788.2589	846.7708	886.6472	933.1222	945.6142	978.6269	986.8843	998.6383	1031.9602	1063.2189	1092.951	1144.7646	1157.8143	1168.1326	1191.8919	1249.6288	1289.4803	1320.2676	1341.2775	1356.9863	1375.2136	1392.0536	1402.2585	1412.3413	1412.6354	1415.1377	1485.1282	1488.5785	1490.7829	1500.2618	1503.8993	1508.5257	1735.2471	2998.6378	3008.5808	3012.9038	3035.8696	3045.584	3048.2625	3051.2649	3061.8242	3103.1171	3110.114	3123.4501	3123.9353	3151.9743
CCC1CN=COC1C	CC[C@H]1CN=CO[C@H]1C	
InChI=1S/C7H13NO/c1-3-7-4-8-5-9-6(7)2/h5-7H,3-4H2,1-2H3	InChI=1S/C7H13NO/c1-3-7-4-8-5-9-6(7)2/h5-7H,3-4H2,1-2H3/t6-,7-/m0/s1
