18
gdb 90577	3.73416	1.23621	1.02158	3.2775	79.93	-0.2061	-0.0048	0.2013	1177.4176	0.148962	-401.963973	-401.956096	-401.955152	-401.996251	30.673	
C	-0.3567056326	 1.5329162639	 0.0439186221	-0.389957
C	 0.0489445041	 0.0628110338	 0.1325013393	-0.061635
C	 0.8217441194	-0.4720506704	-1.133416871	-0.244754
C	 2.1940190863	-0.2712519038	-0.3823887677	-0.178453
C	 1.3447021647	-0.2427496922	 0.8661920163	 0.135329
C	 1.7728943198	-1.205198766	 1.6954417975	-0.128263
N	 2.9672980381	-1.7589089529	 1.2008797876	-0.311309
C	 3.2508809338	-1.3440689047	-0.1025914113	 0.392441
O	 4.1973460681	-1.7046405297	-0.7621736698	-0.370224
H	 0.4865545782	 2.1634092435	-0.2569694886	 0.119269
H	-1.1594238688	 1.6695929853	-0.6885743001	 0.113913
H	-0.7156825303	 1.8976161838	 1.0114430967	 0.120958
H	-0.8091285151	-0.5437979706	 0.4369779234	 0.076979
H	 0.6094410065	-1.5241991384	-1.3293937064	 0.120374
H	 0.7063414728	 0.1069165936	-2.053150961	 0.111521
H	 2.6931202175	 0.6490277627	-0.6950759589	 0.112093
H	 1.2757066812	-1.6731873332	 2.5349121123	 0.122939
H	 3.5591880064	-2.4117242447	 1.6885153598	 0.25878
103.5893	165.3694	189.2439	245.562	311.5549	355.3228	410.4054	485.5408	516.8647	639.0004	673.6383	710.063	738.8176	783.5914	827.7143	855.719	894.4848	915.5225	982.766	1010.171	1051.6605	1060.7012	1093.6681	1134.9751	1166.7321	1182.5704	1199.4458	1230.5641	1260.527	1282.827	1321.9569	1367.2665	1390.1366	1409.6884	1473.8063	1494.3953	1497.0124	1676.1651	1829.3849	3031.2504	3056.5155	3065.2369	3084.547	3101.0564	3105.4122	3134.3238	3216.2609	3653.5396
CC1CC2C1=CNC2=O	C[C@H]1C[C@H]2[C]1[CH]NC2=O	
InChI=1S/C7H9NO/c1-4-2-5-6(4)3-8-7(5)9/h3-5H,2H2,1H3,(H,8,9)	InChI=1S/C7H9NO/c1-4-2-5-6(4)3-8-7(5)9/h3-5H,2H2,1H3,(H,8,9)/t4-,5-/m0/s1
