16
gdb 51852	2.94662	1.17993	0.9484	3.4536	67.51	-0.2412	-0.0446	0.1966	1214.0725	0.124082	-475.055644	-475.047185	-475.046241	-475.0904	29.774	
O	-0.2143370509	 0.201503469	-0.7092723215	-0.312465
C	-0.0928971165	 1.2526537639	-0.121236454	 0.160086
N	 1.0922250203	 1.7789950676	 0.3040549548	-0.285078
C	 2.3540644904	 1.0840040803	 0.1316679385	-0.078221
C	 3.4296815118	 1.9273415324	-0.5570995652	-0.11842
O	 4.0583152584	 2.667545255	 0.4960521145	-0.254189
C	 4.213524668	 1.778974475	 1.5862394481	-0.18826
C	 3.018971696	 0.822342641	 1.5117837672	 0.355741
O	 2.6574011796	 0.0468777445	 2.3509471308	-0.281321
H	-0.9447952353	 1.9139132272	 0.1276376484	 0.08612
H	 1.0846955292	 2.6616541366	 0.7914125167	 0.257862
H	 2.122737034	 0.1446419969	-0.3726823598	 0.149704
H	 4.1627671234	 1.2778921796	-1.060487623	 0.108274
H	 3.0293164321	 2.6408729094	-1.2787980061	 0.128474
H	 5.1469662733	 1.194436406	 1.5169055577	 0.126581
H	 4.2287597463	 2.3421599656	 2.5228933829	 0.145113
33.8388	51.1338	173.1745	180.8918	222.2733	287.9335	389.2361	473.0351	522.9215	558.4682	628.9559	701.1407	740.2066	843.3155	895.7007	941.0466	966.893	1025.5037	1040.672	1096.9434	1099.7409	1159.2787	1189.1397	1217.281	1244.6601	1267.4065	1319.7418	1330.0201	1382.4756	1426.0022	1472.7985	1502.8854	1518.1151	1806.0443	1871.4596	2953.1958	2967.9577	2988.9271	3100.5378	3121.4383	3123.7631	3629.4641
O=CNC1COCC1=O	O=CN[C@H]1COCC1=O	
InChI=1S/C5H7NO3/c7-3-6-4-1-9-2-5(4)8/h3-4H,1-2H2,(H,6,7)	InChI=1S/C5H7NO3/c7-3-6-4-1-9-2-5(4)8/h3-4H,1-2H2,(H,6,7)/t4-/m0/s1
