21
gdb 109201	3.55235	0.8528	0.73974	3.0738	86.54	-0.2383	-0.0176	0.2207	1574.854	0.181881	-387.123834	-387.114353	-387.113408	-387.159216	34.422	
C	-0.0746370337	 1.5396008692	 0.3748915686	-0.375476
C	-0.0681341718	 0.0861316548	-0.1312458625	-0.290896
C	-1.4188482934	-0.5666954873	-0.103807501	 0.348478
C	-2.1177954621	-1.0187293047	-1.1458049735	-0.176565
C	-3.4584080331	-1.5897033105	-0.7572855966	-0.285517
C	-3.3616962614	-1.7052284418	 0.7949647614	-0.052737
C	-2.1906753426	-0.7592463408	 1.1891419611	-0.337741
C	-4.6539637974	-1.3332217393	 1.4781713629	 0.153751
O	-5.3013662052	-2.0500588871	 2.1963193323	-0.252218
H	 0.9299300398	 1.9702617706	 0.3261574507	 0.116768
H	-0.7408198512	 2.1618936983	-0.2309554548	 0.120857
H	-0.4117080362	 1.6014567483	 1.4144202289	 0.121254
H	 0.3265548759	 0.0556999079	-1.1528173675	 0.104038
H	 0.6275342999	-0.4969204747	 0.4891082371	 0.10482
H	-1.7910045649	-0.9631808728	-2.1790909636	 0.089458
H	-4.2756200647	-0.9186965241	-1.0642417734	 0.107917
H	-3.6733285029	-2.5600468011	-1.217247838	 0.117031
H	-3.1200328692	-2.7332304376	 1.0748920543	 0.096926
H	-1.5817546418	-1.1847080696	 1.9949732321	 0.113713
H	-2.5613970657	 0.205986716	 1.5655389452	 0.109604
H	-4.9878029884	-0.2887972338	 1.2587546664	 0.066536
54.2754	66.191	78.8728	161.2115	211.8864	292.6636	306.5312	345.5568	383.3194	409.6926	502.7274	624.1091	680.551	786.2893	836.0172	868.5499	871.8259	923.4734	938.6561	965.326	1000.2775	1009.0884	1067.0956	1081.5052	1094.5373	1111.2498	1158.6999	1198.636	1212.7671	1262.2982	1283.1207	1297.8057	1319.5731	1336.1008	1350.9839	1358.5958	1407.813	1427.8322	1480.4046	1484.5958	1491.5895	1499.3986	1507.9326	1723.179	1834.3527	2828.2601	2989.5634	2997.1804	3006.7706	3037.5495	3053.4476	3060.3613	3062.2422	3089.5902	3108.8062	3110.3828	3185.1346
CCC1=CCC(C1)C=O	CCC1=CC[C@@H](C1)C=O	
InChI=1S/C8H12O/c1-2-7-3-4-8(5-7)6-9/h3,6,8H,2,4-5H2,1H3	InChI=1S/C8H12O/c1-2-7-3-4-8(5-7)6-9/h3,6,8H,2,4-5H2,1H3/t8-/m0/s1
