19
gdb 76381	2.49122	1.19565	1.14335	5.4338	72.27	-0.2426	0.0265	0.2691	1198.5324	0.15977	-456.366458	-456.356941	-456.355997	-456.400446	35.691	
C	-0.0851405371	 1.6171783027	 0.0445664713	-0.436026
C	 0.0254687154	 0.1096431999	 0.0310866817	-0.041885
C	 1.2423499371	-0.6032170504	-0.4767128455	-0.064243
N	 2.3968682158	 0.1612074863	-0.8674891456	-0.519065
H	 2.5989122576	 0.445663912	 1.3879460344	 0.248666
H	 3.1623644046	-0.4530996191	-1.1223239881	 0.244162
H	 2.1968006968	 0.7440168615	-1.6735278178	 0.244094
C	 0.9200996567	-0.6181298154	 1.029880162	 0.103741
N	 1.8136201285	 0.0789271802	 1.9233752464	-0.604671
C	 0.4229550304	-1.9371146835	 1.5576881132	 0.424369
O	 0.9743174946	-2.2856171291	 2.7289585442	-0.382314
O	-0.3757216741	-2.6296662631	 0.9756660698	-0.368142
H	 0.8772698099	 2.097470772	 0.2353548728	 0.124008
H	-0.4553842614	 1.9845786043	-0.9187118436	 0.125027
H	-0.7930087561	 1.9498234025	 0.8115155353	 0.126289
H	-0.9009239537	-0.4233907823	-0.1601762258	 0.121027
H	 1.0562999553	-1.5530861726	-0.9740509996	 0.11054
H	 1.3577979593	 0.8671532563	 2.3726016714	 0.242641
H	 1.5941173603	-1.554001512	 2.9391600434	 0.301782
88.0799	142.8435	157.0741	196.5402	216.5063	244.157	262.3717	335.8587	384.819	393.534	487.0044	521.9735	578.4422	633.3233	703.5315	749.576	815.6803	829.4774	851.9755	906.4009	911.5977	996.0424	1025.8811	1044.0574	1077.6183	1142.9758	1169.9494	1205.7168	1236.2664	1254.1214	1264.765	1331.0699	1371.5414	1414.4538	1423.1986	1450.7473	1497.2123	1504.6061	1655.6863	1662.7658	1846.0624	3035.6239	3090.9402	3121.3909	3123.5123	3164.9183	3463.2509	3502.9383	3508.7197	3549.5371	3584.7014
CC1C([NH3+])C1(N)C([O-])=O	C[C@H]1[C@@H](N)[C@]1(N)C(=O)O	
InChI=1S/C5H10N2O2/c1-2-3(6)5(2,7)4(8)9/h2-3H,6-7H2,1H3,(H,8,9)	InChI=1S/C5H10N2O2/c1-2-3(6)5(2,7)4(8)9/h2-3H,6-7H2,1H3,(H,8,9)/t2-,3+,5-/m0/s1
