18
gdb 23134	1.90503	1.61937	0.91925	1.5192	71.93	-0.2475	-0.0079	0.2396	1249.585	0.146357	-476.163421	-476.154281	-476.153336	-476.197989	32.811	
C	 0.0508797417	 1.4171416082	-0.0351384424	-0.2436
O	-0.091268913	 0.0150845555	 0.1047040176	-0.241352
C	 0.6688013783	-0.547325448	 1.1469142326	 0.008091
C	 0.1659779786	-1.9824286451	 1.403893104	-0.107574
O	 1.2991912878	-2.7425634254	 1.7936139022	-0.252537
C	 2.4048604079	-2.2815321537	 1.0302950603	-0.168386
C	 2.1346296044	-0.8124220872	 0.8172761446	 0.360754
N	 2.9387838794	 0.0981374466	 0.4474274335	-0.212133
O	 4.208076887	-0.43871122	 0.1656366521	-0.391439
H	 1.0772130881	 1.6967252071	-0.2983523236	 0.135916
H	-0.628624427	 1.7233345758	-0.8339500345	 0.125294
H	-0.2299352264	 1.9396371008	 0.8926393691	 0.103505
H	 0.5927897064	 0.0729604853	 2.0535371365	 0.088858
H	-0.5765959107	-2.0507780291	 2.200737962	 0.117281
H	-0.2759659651	-2.3550417503	 0.4669616172	 0.109524
H	 3.3281984524	-2.4644781627	 1.5857468793	 0.139048
H	 2.481022392	-2.8039973403	 0.0619931606	 0.119783
H	 4.7187289282	 0.3450074728	-0.0646085609	 0.308967
43.3953	121.0383	158.2232	192.7381	212.0938	233.3759	277.7772	364.8835	385.7436	454.2657	497.1271	589.974	661.7122	670.3108	817.8222	953.3933	958.482	982.3769	1011.3272	1038.7157	1090.5026	1121.3237	1155.7831	1184.6129	1195.232	1216.9433	1230.0212	1258.5037	1292.759	1327.5129	1354.2731	1384.3867	1411.8426	1478.2445	1483.6643	1488.0784	1512.32	1515.0802	1763.23	2970.0771	2979.9713	2986.3295	2997.0741	3068.4063	3096.4184	3115.8631	3122.4678	3817.6813
COC1COCC1=NO	CO[C@H]1COCC1=NO	
InChI=1S/C5H9NO3/c1-8-5-3-9-2-4(5)6-7/h5,7H,2-3H2,1H3	InChI=1S/C5H9NO3/c1-8-5-3-9-2-4(5)6-7/h5,7H,2-3H2,1H3/t5-/m0/s1
