19
gdb 44620	3.84768	1.39389	1.32283	3.2927	79.04	-0.2308	-0.0026	0.2282	1023.3781	0.162946	-385.916608	-385.910008	-385.909064	-385.947411	27.663	
O	 0.0483902173	 0.0573525925	-0.0426482397	-0.338491
C	 0.0255960004	 1.259435925	-0.0042862258	 0.421237
C	-1.1986774143	 2.1967421018	 0.0100935362	-0.355216
C	-0.4428429975	 3.5257877237	 0.0619433297	-0.025651
C	 0.7330992271	 3.3682833961	-0.9569501108	-0.022606
C	 1.6790681572	 4.536859186	-0.6590050383	-0.231562
C	 1.65964206	 4.4872309018	 0.8984663954	-0.231564
C	 0.7074599672	 3.3028200835	 1.0977622065	-0.022615
C	 1.178757791	 2.2328937768	 0.0410075887	-0.130583
H	-1.8099631234	 2.0623609733	-0.8882584678	 0.121844
H	-1.8322979772	 2.00596401	 0.8823834297	 0.121823
H	-1.0269428981	 4.4478801272	 0.0840235028	 0.06581
H	 0.5340688669	 3.1281456184	-2.0033574771	 0.070636
H	 2.6772318224	 4.3817261769	-1.0778328618	 0.103694
H	 1.294126336	 5.4811162744	-1.0562992419	 0.10157
H	 2.64718146	 4.3049441911	 1.3313079266	 0.103694
H	 1.2641849289	 5.4045923937	 1.345349923	 0.101565
H	 0.4825899443	 2.9967380791	 2.1214786555	 0.070632
H	 2.1870668518	 1.8204416288	 0.0404364288	 0.075783
133.5047	270.8734	283.7692	313.9187	460.3993	548.5503	599.7586	631.2505	685.0979	758.6628	815.4093	833.6591	884.5234	898.5859	909.0703	929.8974	954.9951	964.5639	984.321	1014.9161	1023.0808	1039.801	1077.9016	1109.5487	1128.1228	1155.9246	1194.5523	1199.2408	1231.1929	1240.8018	1256.833	1258.959	1269.9029	1285.4914	1305.6014	1314.1831	1370.184	1465.5621	1491.8001	1510.9056	1861.9705	3048.0832	3050.4549	3057.0423	3085.1259	3091.0528	3093.6459	3095.8688	3101.5067	3103.9211	3131.0631
O=C1CC2C3CCC2C13	O=C1C[C@@H]2[C@H]3CC[C@@H]2[C@@H]13	
InChI=1S/C8H10O/c9-7-3-6-4-1-2-5(6)8(4)7/h4-6,8H,1-3H2	InChI=1S/C8H10O/c9-7-3-6-4-1-2-5(6)8(4)7/h4-6,8H,1-3H2/t4-,5+,6-,8+
