21
gdb 103757	3.25454	1.00825	0.89308	1.297	75.7	-0.2356	0.0651	0.3007	1385.943	0.178953	-461.340829	-461.330125	-461.329181	-461.376131	39.772	
C	 0.2540181366	 1.4633846183	 0.2563172797	-0.39668
C	-0.1727262885	 0.0414823234	-0.1254378456	-0.216165
C	 0.5837442163	-0.4970020322	-1.3245421251	 0.326344
O	 0.3510386356	 0.2036670601	-2.5256456772	-0.475528
C	 1.9637495212	-1.1109073427	-1.1390515881	-0.414492
C	 0.7580586737	-1.9712883347	-1.499241805	 0.390533
O	 0.2071778205	-2.7837655616	-0.5025725276	-0.481349
C	 0.6761944957	-2.6049423145	-2.8653455022	-0.14394
O	 1.3277953441	-3.8737525778	-2.7466694371	-0.437354
H	 1.3193500446	 1.5044313922	 0.5089201848	 0.115374
H	 0.0727020466	 2.1677802967	-0.563323272	 0.107251
H	-0.3097552399	 1.8227638136	 1.1220545235	 0.116457
H	-0.027764575	-0.6397921444	 0.7167469806	 0.118475
H	-1.2434941781	 0.0272146744	-0.3620194851	 0.103813
H	 0.8492989698	 1.0268826335	-2.4845459116	 0.283029
H	 2.7069255651	-0.9309150536	-1.9086741204	 0.108065
H	 2.3451479596	-1.2007581636	-0.1278406192	 0.113138
H	 0.5833788767	-3.6599828454	-0.6594037495	 0.288275
H	-0.3799087758	-2.7361769577	-3.1407500491	 0.099232
H	 1.153828845	-1.9709039177	-3.6195289934	 0.103688
H	 1.0538545961	-4.4239945563	-3.4853035302	 0.291833
70.0138	95.2676	151.5972	155.2617	229.9	239.6186	252.5756	288.8646	299.4958	332.7879	398.6921	406.8679	429.2358	449.9789	476.7573	659.6294	709.7146	770.4949	787.3741	899.9458	910.6605	935.3772	980.0362	1001.0247	1029.2926	1043.4433	1048.8524	1089.1057	1136.7558	1201.7971	1226.256	1237.1177	1280.5334	1305.3268	1311.0496	1342.7041	1374.0812	1403.7805	1416.2131	1446.0191	1478.3744	1499.6947	1509.511	1510.2606	1519.2713	3003.916	3029.0997	3040.2232	3070.7479	3085.2107	3106.7339	3110.0514	3127.4751	3223.7393	3765.6741	3804.4114	3843.1761
CCC1(O)CC1(O)CO	CC[C@@]1(O)C[C@]1(O)CO	
InChI=1S/C6H12O3/c1-2-5(8)3-6(5,9)4-7/h7-9H,2-4H2,1H3	InChI=1S/C6H12O3/c1-2-5(8)3-6(5,9)4-7/h7-9H,2-4H2,1H3/t5-,6+/m1/s1
