21
gdb 108179	3.08272	1.46721	1.31037	1.4358	81.74	-0.2424	0.0142	0.2566	1086.8692	0.18415	-387.101739	-387.093781	-387.092837	-387.133916	32.201	
C	 0.036291841	 1.5538464519	-0.0566896955	-0.382993
C	 0.0363059809	 0.0245020098	 0.0337672098	-0.283267
C	 0.7000054201	-0.5094945113	 1.2869585138	 0.373805
C	 0.8509108767	-2.0691380325	 1.393746808	-0.253118
C	 2.0532941857	-2.1954297604	 2.3706354089	-0.216377
C	 2.3535628936	-0.6850803839	 2.6499023309	 0.008642
O	 2.0817478862	-0.1080410379	 1.3699906257	-0.279699
C	 1.1989131376	-0.1572837277	 3.4928562842	-0.087545
C	 0.1719834025	-0.0545135696	 2.6504833727	-0.114692
H	 1.0582646359	 1.9386231193	-0.0157792036	 0.137476
H	-0.4234991932	 1.8891425147	-0.9911194068	 0.106946
H	-0.5205915642	 2.0031528143	 0.7720189547	 0.114259
H	-0.9910460872	-0.3600062957	 0.0005962083	 0.096481
H	 0.5541607642	-0.3998565338	-0.8346368201	 0.103587
H	-0.0594955836	-2.552946791	 1.7547947991	 0.096814
H	 1.0926985049	-2.4832927944	 0.411173546	 0.100786
H	 1.8250660588	-2.7558289052	 3.2800935585	 0.097804
H	 2.912859799	-2.6631898992	 1.884621048	 0.104234
H	 3.3674007103	-0.4522937976	 2.9738515673	 0.07566
H	 1.2118680345	-0.0277271809	 4.5668243835	 0.101102
H	-0.8615297338	 0.1824485413	 2.8669058165	 0.100095
97.9447	168.0698	192.6962	242.8	331.9603	364.6114	409.2197	484.7908	598.6124	621.3901	713.3003	726.9345	773.3732	797.9405	830.093	850.4122	878.3317	909.6256	937.034	941.2442	949.7283	970.911	995.7146	1022.0829	1040.6638	1095.63	1114.9634	1127.105	1179.0161	1196.1256	1231.1478	1253.1055	1285.3025	1298.1728	1322.5493	1337.737	1357.6918	1385.1579	1409.1185	1475.1455	1481.9083	1494.6231	1499.3225	1507.9669	1645.4607	3027.2476	3041.6095	3058.3279	3062.4784	3070.156	3103.2484	3106.1544	3120.1957	3126.47	3126.8765	3208.2709	3234.607
CCC12CCC(O1)C=C2	CC[C@@]12CC[C@@H](O1)C=C2	
InChI=1S/C8H12O/c1-2-8-5-3-7(9-8)4-6-8/h3,5,7H,2,4,6H2,1H3	InChI=1S/C8H12O/c1-2-8-5-3-7(9-8)4-6-8/h3,5,7H,2,4,6H2,1H3/t7-,8+/m0/s1
