18
gdb 22997	3.087	1.04158	0.92102	2.044	71.81	-0.2491	-0.0093	0.2398	1301.4049	0.145134	-476.151925	-476.142438	-476.141494	-476.186564	34.519	
C	 0.4804251984	 0.1113728553	-0.9102224317	-0.423419
C	 0.1381261935	-0.0393674332	 0.5714999685	 0.13053
O	-0.018950716	 1.2232057498	 1.2040635309	-0.433116
C	-1.1318968622	-0.8554678562	 0.8359239679	 0.01829
O	-2.3027030356	-0.211691305	 0.2431948425	-0.311939
C	-2.6312851015	-1.3810667308	-0.5499328629	-0.160606
C	-1.4327162835	-2.0918470353	 0.0245888737	 0.350129
N	-0.8620255187	-3.214331899	-0.0633503215	-0.231531
O	-1.536203598	-4.0496930313	-0.9684481739	-0.388672
H	 1.3511939746	 0.7625553054	-1.0171594184	 0.127021
H	 0.708341488	-0.8563789045	-1.3668699602	 0.12627
H	-0.3560928413	 0.564340482	-1.4527104275	 0.12074
H	 0.9660086983	-0.5332187203	 1.0938412637	 0.099105
H	-0.822060791	 1.6136123864	 0.8365801088	 0.290902
H	-1.2623722602	-0.9696739124	 1.9194093855	 0.108195
H	-3.6065650642	-1.8072071722	-0.2850560553	 0.13352
H	-2.6012948768	-1.1853869775	-1.628603791	 0.132229
H	-1.0119195038	-4.8573516312	-0.9341473593	 0.312352
63.5307	92.6563	118.7592	200.4304	243.4481	261.2459	288.4759	338.5754	371.6505	419.538	444.6846	484.3868	584.868	652.9482	742.1117	814.1384	903.9019	917.7922	976.9639	986.9999	1003.6934	1020.0976	1066.8432	1113.5375	1130.6975	1140.1656	1183.0083	1252.4395	1295.1419	1315.0328	1320.9523	1370.112	1402.6524	1414.5858	1421.6653	1491.0098	1494.5477	1503.144	1812.9168	3021.5362	3031.8418	3041.0194	3050.4949	3066.2538	3113.8523	3127.5442	3778.6378	3815.8093
CC(O)C1OCC1=NO	C[C@@H](O)[C@H]1OCC1=NO	
InChI=1S/C5H9NO3/c1-3(7)5-4(6-8)2-9-5/h3,5,7-8H,2H2,1H3	InChI=1S/C5H9NO3/c1-3(7)5-4(6-8)2-9-5/h3,5,7-8H,2H2,1H3/t3-,5-/m1/s1
