17
gdb 29863	3.19687	1.36631	0.9639	6.0408	83.2	-0.1855	-0.007	0.1785	1185.6454	0.138021	-418.067074	-418.058727	-418.057782	-418.100363	31.574	
C	-0.0194276534	 1.4967028021	 0.0057388778	-0.344526
N	-0.0024605381	 0.0419132453	-0.0095140307	-0.06291
C	-0.0291445368	-0.6564675711	-1.172332108	 0.024819
C	-0.0006749957	-2.0199498002	-1.1997902683	-0.285963
C	 0.0587803327	-2.8005789385	 0.0078719096	 0.35875
O	 0.0593957172	-4.035285092	 0.0724912787	-0.432863
C	 0.1055694065	-1.996833258	 1.2490287097	 0.125193
N	 0.2252279489	-2.7438761341	 2.4015652453	-0.578451
C	 0.06670287	-0.6359663705	 1.1942430486	-0.080547
H	 0.9065032675	 1.8941795292	 0.4357221216	 0.14596
H	-0.1176062366	 1.8676204651	-1.0148722971	 0.145086
H	-0.8653687743	 1.8666788062	 0.5946294523	 0.144129
H	-0.0788918046	-0.0588373068	-2.0747455081	 0.124285
H	-0.0383929744	-2.5412541876	-2.1480347404	 0.105206
H	 0.0251253344	-3.7194869433	 2.2052654743	 0.262541
H	-0.1936834201	-2.381993639	 3.2435047812	 0.24162
H	 0.0922320166	-0.0096521767	 2.0779470936	 0.107671
44.0134	130.9217	187.3002	300.8383	316.0556	355.5858	385.677	428.3585	452.1422	524.5228	541.1267	592.9286	654.1447	729.2195	755.3873	805.7675	817.467	846.3796	930.2671	989.738	1077.5605	1142.2025	1150.6877	1181.6167	1214.8948	1240.0386	1332.7208	1396.7769	1438.7912	1472.1348	1480.2337	1488.3528	1532.5082	1590.1109	1618.1953	1683.4874	1705.3178	3030.9724	3087.3383	3146.1665	3193.7181	3197.4814	3217.6695	3514.2599	3663.2121
CN1C=CC(=O)C(N)=C1	Cn1ccc(=O)c(N)c1	
InChI=1S/C6H8N2O/c1-8-3-2-6(9)5(7)4-8/h2-4H,7H2,1H3	InChI=1S/C6H8N2O/c1-8-3-2-6(9)5(7)4-8/h2-4H,7H2,1H3
