12
gdb 123292	2.01193	1.88726	0.9738	2.7403	80.49	-0.2428	-0.0627	0.1801	1103.1063	0.07605	-398.277849	-398.270232	-398.269288	-398.310113	28.362	
C	 0.1332218786	-1.1859958613	-0.0053930815	-0.363275
C	 0.0393391732	 0.0136302285	 0.0029269495	 0.228617
C	-0.0805882092	 1.4122081755	 0.0122721187	 0.270651
C	-1.1785622872	 2.2460710756	 0.0323359101	-0.084203
C	-0.5881970455	 3.5459372703	 0.0311569509	-0.040724
N	 0.7170565478	 3.4993705569	 0.0124454854	-0.123748
O	 1.0490808322	 2.1532355464	 0.00036061	-0.215367
C	-2.5446885148	 1.9053355729	 0.0497568357	 0.153203
C	-3.7178679087	 1.636860215	 0.0649197286	-0.379672
H	 0.2152835935	-2.2454239402	-0.0131764446	 0.209308
H	-1.0923558842	 4.5013268275	 0.0435399042	 0.150465
H	-4.7511263257	 1.3914419028	 0.0784046631	 0.194746
102.7855	160.4226	182.7732	196.7105	416.2667	450.8053	497.6238	510.1706	584.1177	614.2347	628.4302	648.5649	652.3461	670.1867	695.9999	757.9437	911.8283	939.0579	958.6984	1146.769	1194.4578	1234.1228	1392.0294	1494.4393	1610.6994	2233.3124	2244.9241	3254.6033	3496.3839	3501.1981
C#CC1=C(C=NO1)C#C	C#Cc1c(cno1)C#C	
InChI=1S/C7H3NO/c1-3-6-5-8-9-7(6)4-2/h1-2,5H	InChI=1S/C7H3NO/c1-3-6-5-8-9-7(6)4-2/h1-2,5H
