21
gdb 107148	4.24369	1.00022	0.94404	2.5461	83.54	-0.2359	0.0764	0.3123	1345.0829	0.183159	-383.205972	-383.197209	-383.196264	-383.239555	33.792	
C	 0.2431179405	 1.50398639	 0.2398726944	-0.379899
C	-0.1115073837	 0.0377246576	-0.0417152859	-0.277056
C	 0.4949328431	-0.4657625752	-1.3196699001	 0.365383
C	 0.0529902563	-0.0732603226	-2.749478974	-0.400554
C	 0.4113888143	-1.511791184	-3.1856921419	 0.361134
C	-0.3049092086	-2.349873946	-4.1653442769	-0.313139
N	 1.1057307642	-1.9563924264	-4.3949799614	-0.368904
C	 0.8516380152	-1.8569134849	-1.7786472974	-0.171074
N	 1.8823793171	-0.9224845625	-1.3222494837	-0.362476
H	 1.327455451	 1.6297997475	 0.3184520685	 0.128728
H	-0.1151345168	 2.1620304855	-0.559530786	 0.113443
H	-0.2069092906	 1.8447131024	 1.1771080836	 0.11273
H	 0.2441267791	-0.593094715	 0.7798570278	 0.111344
H	-1.2018667603	-0.0795631316	-0.0889354857	 0.094466
H	-1.0164105958	 0.1411300046	-2.8363623087	 0.110571
H	 0.6181342938	 0.7449808088	-3.2115698176	 0.095931
H	-0.4519575484	-3.4099884742	-3.9747965229	 0.121066
H	-1.0841615517	-1.8869303296	-4.7662761376	 0.11104
H	 1.1403164653	-1.1978616713	-5.0725781976	 0.228904
H	 0.7624547287	-2.816087515	-1.2807918179	 0.091314
H	 2.4328789271	-0.5554967182	-2.0971246488	 0.227048
68.0482	91.3562	173.4625	218.3249	271.7972	299.3423	355.29	391.0796	426.3334	504.6088	591.1502	675.6093	780.7551	806.596	834.1421	842.6244	900.4065	928.0919	951.8637	964.4444	979.3076	986.785	1006.1055	1031.1385	1068.9866	1106.5159	1119.1469	1135.5593	1153.8241	1166.1002	1230.7802	1234.2504	1251.4739	1269.2083	1284.4364	1330.7804	1346.709	1405.8565	1419.962	1441.3126	1475.1515	1483.4524	1498.462	1508.384	1516.1038	3024.9503	3028.1931	3033.9074	3072.0895	3088.8153	3100.4797	3102.6343	3111.6428	3176.7084	3184.3308	3459.193	3489.6377
CCC12CC3(CN3)C1N2	CC[C@]12C[C@]3(CN3)[C@H]1N2	
InChI=1S/C7H12N2/c1-2-6-3-7(4-8-7)5(6)9-6/h5,8-9H,2-4H2,1H3	InChI=1S/C7H12N2/c1-2-6-3-7(4-8-7)5(6)9-6/h5,8-9H,2-4H2,1H3/t5-,6-,7-/m0/s1
