27
gdb 122880	3.77251	0.61336	0.60626	0.8513	94.07	-0.2495	0.0791	0.3286	2082.4768	0.248469	-390.704855	-390.692648	-390.691704	-390.742874	44.016	
C	-0.0353463219	 1.5215155276	 0.0421327666	-0.382025
C	 0.0182101287	-0.0065402479	-0.0255542249	-0.183703
C	 0.7288151894	-0.5100182176	-1.2744745744	-0.027469
O	 0.7352453231	-1.9203831541	-1.2604791792	-0.255141
C	 1.3739065356	-2.4939148166	-2.3809617314	-0.050138
C	 1.3340313156	-4.0265829363	-2.2802054338	 0.237654
C	-0.1289357253	-4.5032203144	-2.2420940204	-0.397663
C	 2.0390811407	-4.6030271563	-3.5197415247	-0.410992
C	 2.066633637	-4.4790475041	-1.0044856405	-0.397672
H	 0.9701341906	 1.9567720125	 0.0519056385	 0.115904
H	-0.5689599135	 1.9413532158	-0.8178269928	 0.115902
H	-0.5500344979	 1.8572012527	 0.9469773053	 0.116811
H	 0.5344164824	-0.4084564584	 0.8539025205	 0.105666
H	-0.9952579672	-0.4237891321	-0.0102487866	 0.105666
H	 0.2194978868	-0.138260475	-2.1814536107	 0.080851
H	 1.7626872811	-0.122615949	-1.3097580564	 0.080855
H	 0.8748224494	-2.1664007885	-3.3101714012	 0.076423
H	 2.4216568837	-2.1492241563	-2.4373658829	 0.076426
H	-0.6614891349	-4.2128074179	-3.1550064853	 0.101973
H	-0.1802933693	-5.5940318866	-2.1582613757	 0.103628
H	-0.6567794834	-4.0659323966	-1.3912294725	 0.126857
H	 3.0837522573	-4.2764259024	-3.5748244847	 0.108044
H	 2.0348456001	-5.6976968042	-3.4910201483	 0.111654
H	 1.5401077757	-4.2932811511	-4.4450112383	 0.10805
H	 1.6045236544	-4.0412496301	-0.1164611691	 0.126829
H	 2.0399382433	-5.5696098735	-0.907037266	 0.10364
H	 3.1183320384	-4.1709823397	-1.0242237511	 0.101972
47.3306	50.9784	96.4477	126.2141	154.6515	208.955	219.994	241.6332	251.1521	251.3569	285.3406	331.9085	354.9435	403.498	414.4775	463.716	549.2386	759.2043	764.1462	899.2371	904.1577	929.1283	933.6775	944.77	957.9244	963.3819	1008.4782	1050.9211	1068.5899	1085.1028	1151.0105	1160.0005	1191.2573	1231.757	1246.7974	1269.5071	1285.7143	1311.202	1313.3198	1331.5244	1391.6857	1395.1357	1398.5883	1413.2415	1424.7962	1454.5982	1476.9342	1486.6639	1490.0666	1491.0126	1495.8791	1501.8947	1504.5573	1506.1474	1513.5797	1521.9347	1534.0146	2932.7961	2945.817	2962.8874	2967.5414	3022.146	3027.1196	3031.7161	3033.7283	3037.6466	3070.4771	3087.1583	3090.9696	3091.2765	3097.4836	3099.6155	3108.0296	3120.843	3124.6174
CCCOCC(C)(C)C	CCCOCC(C)(C)C	
InChI=1S/C8H18O/c1-5-6-9-7-8(2,3)4/h5-7H2,1-4H3	InChI=1S/C8H18O/c1-5-6-9-7-8(2,3)4/h5-7H2,1-4H3
