19
gdb 63316	2.61581	1.59341	1.32389	4.3374	76.57	-0.2519	0.032	0.2839	1052.3833	0.15915	-419.210756	-419.202383	-419.201439	-419.243346	32.685	
C	 0.1136617324	 1.4922732277	-0.1499453132	-0.423469
C	-0.0624293422	-0.009924329	 0.0503208323	 0.33251
C	-1.5399387222	-0.4032466143	 0.1310075441	-0.423164
O	 0.5308399529	-0.6930850181	-1.0835002719	-0.273232
C	 1.2711962608	-1.7739668096	-0.6751550057	 0.413637
N	 1.759074871	-2.6522493657	-1.4341387092	-0.54531
N	 1.43368469	-1.7887926263	 0.7423934554	-0.133057
C	 2.1880651734	-0.5873193483	 1.1932626873	-0.268456
C	 0.7109732974	-0.5997255666	 1.2275786667	-0.049963
H	 1.1692154568	 1.7567247101	-0.2452543806	 0.125025
H	-0.4073436088	 1.8198989668	-1.0539662689	 0.131724
H	-0.3042990586	 2.0376797999	 0.7017062482	 0.123811
H	-2.0549695481	-0.1231849968	-0.791664886	 0.130419
H	-1.6450018068	-1.4826399381	 0.2730304497	 0.13663
H	-2.0284761721	 0.1050315238	 0.96847837	 0.12034
H	 1.5082354749	-2.4532958293	-2.4023412714	 0.22559
H	 2.7511838076	-0.7385520064	 2.1078907764	 0.134111
H	 2.6913340285	-0.0008576698	 0.4301978327	 0.136676
H	 0.1847278531	-0.7099090699	 2.1707309842	 0.106178
87.5855	188.1026	202.3656	244.5766	262.2046	329.9853	339.6991	379.8421	480.941	505.1762	600.6314	679.295	746.5979	757.8457	807.7357	854.0828	876.0254	913.0806	934.006	942.4802	995.8024	1000.221	1027.1656	1059.4822	1090.8571	1115.7466	1163.6763	1188.6005	1214.3305	1238.4798	1277.4546	1331.5574	1386.4389	1400.2684	1420.2132	1475.1213	1482.3839	1495.6138	1502.91	1506.5878	1781.1637	3039.8122	3047.0304	3112.901	3118.5993	3123.6266	3125.6575	3129.065	3159.5088	3216.601	3499.8544
CC1(C)OC(=N)N2CC12	CC1(C)O[C]([NH])N2C[C@@H]12	
InChI=1S/C6H10N2O/c1-6(2)4-3-8(4)5(7)9-6/h4,7H,3H2,1-2H3	InChI=1S/C6H10N2O/c1-6(2)4-3-8(4)5(7)9-6/h4,7H,3H2,1-2H3/t4-,8?/m0/s1
