17
gdb 30857	2.46579	1.36361	0.92495	0.5796	73.97	-0.1863	0.0166	0.2029	1267.8749	0.135251	-455.175969	-455.166529	-455.165585	-455.210811	33.256	
C	 0.035792066	 1.3675131008	-0.308770463	-0.330191
N	-0.2425081273	 0.2823148224	 0.6398486685	-0.396611
C	-1.2516876903	-0.6035069911	 0.3002044828	 0.243618
C	-1.3192248937	-1.8966675213	-0.108972271	 0.23943
O	-0.2840835584	-2.7249026235	-0.3852706159	-0.444401
N	-2.6323948643	-2.3079639936	-0.1925653384	-0.37897
C	-3.323083439	-1.2574379603	 0.1429111989	 0.385
C	-4.800051822	-1.1052022882	 0.1832182765	-0.487295
O	-2.5644137669	-0.188511319	 0.4693020779	-0.194974
H	 0.821332212	 2.0061508338	 0.1037672894	 0.122276
H	 0.3483505062	 1.013325106	-1.3024663784	 0.112865
H	-0.8645349229	 1.9756274896	-0.4278507484	 0.140113
H	 0.5972020417	-0.2236624289	 0.8891271621	 0.245428
H	-0.6699413519	-3.5799847014	-0.6078702818	 0.303279
H	-5.1409294554	-0.8024453814	 1.1788150535	 0.144772
H	-5.1388605645	-0.3417201286	-0.5257329077	 0.14315
H	-5.2614644195	-2.0582531652	-0.0770246351	 0.152509
51.7306	97.2765	130.7844	161.0067	212.8868	267.3855	275.657	293.7869	320.949	448.6486	528.5192	609.5518	647.6081	660.3825	692.1256	728.8432	830.9414	990.9687	1030.8811	1047.3068	1062.9167	1106.2083	1146.6783	1151.1393	1223.2214	1326.632	1347.0724	1411.9223	1417.1095	1465.483	1474.386	1476.1347	1483.4659	1494.5735	1516.0403	1613.6283	1744.5754	2991.3528	3039.4905	3086.8977	3091.9274	3124.9395	3154.051	3576.3114	3815.1375
CNC1=C(O)N=C(C)O1	CNc1c(O)nc(C)o1	
InChI=1S/C5H8N2O2/c1-3-7-4(8)5(6-2)9-3/h6,8H,1-2H3	InChI=1S/C5H8N2O2/c1-3-7-4(8)5(6-2)9-3/h6,8H,1-2H3
