17
gdb 91725	2.70317	1.59453	1.49209	3.3046	66.99	-0.2355	-0.0232	0.2123	966.8032	0.136878	-458.986333	-458.979032	-458.978088	-459.018076	28.663	
C	-0.2293072707	 1.5554440206	-0.0477331364	-0.417522
C	 0.0389767087	 0.0629079117	 0.0207052045	 0.144773
O	 0.7725124397	-0.3778661809	-1.1482319775	-0.293571
C	 1.8073747513	-1.2247978292	-0.6406861941	 0.055138
O	 1.3096592591	-1.751781056	 0.5647014298	-0.248372
C	 0.9432750427	-0.4759169064	 1.1502574488	 0.015718
C	 2.2976782734	 0.2519869088	 1.1835372143	-0.358862
C	 2.9028444755	-0.2610798456	-0.1410314568	 0.440617
O	 3.9485721316	 0.0269286285	-0.6504877256	-0.315408
H	 0.6943702672	 2.131506812	-0.1414699201	 0.13153
H	-0.8511131522	 1.7795654616	-0.9185110994	 0.139405
H	-0.7666091977	 1.8892396433	 0.8462567503	 0.121204
H	-0.9126231214	-0.4834398389	 0.0533501158	 0.092887
H	 2.0822402673	-1.9944050972	-1.3588328318	 0.111942
H	 0.4520900112	-0.6383059814	 2.1077754318	 0.099895
H	 2.2633013498	 1.3414619177	 1.2208205932	 0.136923
H	 2.9004020444	-0.1034047986	 2.0241173333	 0.143701
95.436	182.2156	234.8717	288.3461	362.8362	424.8453	494.7503	543.3584	567.2096	616.0447	733.6058	764.557	825.4571	836.6784	867.4165	930.05	940.5898	960.9064	989.6721	1065.645	1086.1955	1115.3011	1127.398	1153.3667	1162.4474	1236.8635	1249.7774	1281.7757	1318.8302	1332.0167	1355.2312	1387.7825	1413.9159	1448.8882	1483.6306	1503.3417	1877.8953	3019.7001	3045.0329	3076.1761	3115.6864	3127.59	3136.7188	3143.2048	3159.0658
CC1OC2OC1CC2=O	C[C@H]1O[C@@H]2O[C@H]1CC2=O	
InChI=1S/C6H8O3/c1-3-5-2-4(7)6(8-3)9-5/h3,5-6H,2H2,1H3	InChI=1S/C6H8O3/c1-3-5-2-4(7)6(8-3)9-5/h3,5-6H,2H2,1H3/t3-,5+,6-/m1/s1
