18
gdb 8071	3.27486	1.82285	1.47055	3.0279	67.89	-0.2525	0.0658	0.3183	907.3308	0.154455	-384.881947	-384.874396	-384.873451	-384.913624	29.618	
O	 0.3121042371	 0.5635356607	 0.9498757272	-0.427661
C	-0.141019385	 0.3985993084	-0.3875933135	-0.119989
C	-1.4831996051	-0.3147964373	-0.4027638879	 0.006089
C	-2.0584870907	-1.0957517121	-1.6324666328	-0.082704
C	-0.9897909305	-2.203540559	-1.3981862965	-0.298448
C	-1.5464843664	-1.8104449046	 0.0055769857	 0.38245
O	-1.1142416509	-2.2337530318	 1.2557709587	-0.4802
C	-2.9726912269	-1.8563265404	-0.6230533008	-0.281687
H	 0.2524779811	-0.3002066778	 1.3756127792	 0.293598
H	-0.2444289418	 1.407924178	-0.8013532627	 0.103828
H	 0.611817897	-0.1197675918	-0.9988750421	 0.084837
H	-2.2241828967	 0.3026969661	 0.1165523503	 0.075137
H	-2.3634794193	-0.6802429922	-2.5895814796	 0.085255
H	-1.2523160663	-3.2027268895	-1.7578052152	 0.087526
H	 0.0501464949	-1.9669731873	-1.6227655356	 0.101323
H	-1.1244216551	-3.1966043755	 1.2860485833	 0.286733
H	-3.7475853285	-1.2707922705	-0.1225283469	 0.097722
H	-3.3405321767	-2.8335645535	-0.9481156009	 0.08619
91.2892	142.4223	258.0055	311.683	354.7435	390.6661	428.009	448.5032	566.7514	587.9663	654.9657	771.2765	802.3902	846.2977	924.0323	947.4285	958.5926	991.5519	1031.9805	1038.7873	1068.1654	1097.3352	1110.4028	1133.7119	1145.922	1155.6251	1205.4541	1206.4913	1222.2789	1243.149	1289.2975	1343.1716	1371.7817	1424.6752	1448.815	1493.2778	1516.8114	1547.8324	2994.5118	3047.6643	3051.949	3062.3564	3065.639	3123.0634	3136.5966	3149.25	3786.837	3808.3898
OCC1C2CC1(O)C2	OC[C@H]1[C@H]2C[C@]1(O)C2	
InChI=1S/C6H10O2/c7-3-5-4-1-6(5,8)2-4/h4-5,7-8H,1-3H2	InChI=1S/C6H10O2/c7-3-5-4-1-6(5,8)2-4/h4-5,7-8H,1-3H2/t4-,5-,6-/m0/s1
