20
gdb 8241	4.56979	1.06954	1.0214	2.3339	71.77	-0.2447	0.0686	0.3132	1242.5061	0.175129	-386.114123	-386.104983	-386.104039	-386.148929	32.387	
C	-0.4675880268	 1.3785023154	-0.0689682179	-0.389589
C	 0.0460217413	-0.061483875	 0.0101118084	 0.144809
C	 0.9528745268	-0.4142547732	-1.1631972639	-0.388338
O	 0.8194570882	-0.2734629021	 1.195483373	-0.266179
C	 0.0796689815	-0.4869704452	 2.3625825873	 0.087051
C	-0.477518215	-1.9112417044	 2.6218295632	-0.093034
O	 0.2583128959	-2.0031467185	 3.8592463045	-0.273577
C	 0.9590278212	-0.7704370347	 3.5903065476	-0.097426
H	 0.3746157523	 2.077530331	-0.0799703437	 0.12465
H	-1.0531109774	 1.5261885136	-0.9819739731	 0.115888
H	-1.110188782	 1.6302338623	 0.7797481654	 0.117412
H	-0.8132500741	-0.7515367609	 0.0168760792	 0.070457
H	 1.831333787	 0.2388733884	-1.1699521608	 0.125194
H	 1.2974238211	-1.4484771829	-1.0834096272	 0.121701
H	 0.4234850208	-0.292215014	-2.1127456667	 0.113276
H	-0.6645575412	 0.3024105215	 2.5260863155	 0.076103
H	-1.5571159121	-2.0156445341	 2.7797432923	 0.099559
H	-0.1385965895	-2.6465370633	 1.8795502218	 0.099496
H	 2.0094735931	-0.9356110466	 3.3196404577	 0.109508
H	 0.8979346089	-0.0682387272	 4.4288014973	 0.103039
44.5728	62.6743	99.4929	177.884	206.0536	245.5775	307.7502	399.3527	400.0382	449.4802	504.4357	734.2517	831.8643	871.8692	888.9425	925.5851	938.6844	949.6054	1012.5156	1025.6676	1044.1792	1121.0122	1143.6094	1156.3876	1159.9256	1163.0982	1193.6205	1214.9146	1277.1805	1302.0384	1344.0345	1365.3755	1376.5402	1396.9744	1414.8049	1426.9929	1480.5599	1484.5474	1494.8252	1499.005	1509.1919	1526.8027	2969.7747	3005.8729	3019.7107	3024.0972	3037.6521	3043.1972	3063.6611	3075.5949	3108.0287	3111.6764	3117.8974	3123.7616
CC(C)OC1COC1	CC(C)OC1COC1	
InChI=1S/C6H12O2/c1-5(2)8-6-3-7-4-6/h5-6H,3-4H2,1-2H3	InChI=1S/C6H12O2/c1-5(2)8-6-3-7-4-6/h5-6H,3-4H2,1-2H3
