16
gdb 24971	4.60664	1.27718	1.01851	3.64	73.35	-0.1754	0.0499	0.2253	1121.0992	0.127533	-434.071828	-434.064433	-434.063488	-434.103734	28.434	
N	-0.0770155757	 1.2557082058	-0.0698711569	-0.595324
C	-0.0210781876	-0.0064422713	-0.016505591	 0.436589
N	-1.1261282914	-0.8641028049	 0.0600721236	-0.447923
C	-0.6365432277	-2.160217934	-0.0258660928	 0.329227
C	 0.6885052311	-2.1136191673	-0.0518922051	 0.258584
C	 1.3108892749	-3.4604123158	 0.0640260539	-0.353679
C	 0.0057516627	-4.3173956863	-0.1788132786	-0.163383
N	-1.2129697716	-3.4392423452	-0.0286987212	-0.41541
O	 1.1244748382	-0.7942613648	-0.0282062638	-0.263174
H	 0.855715942	 1.6553423722	-0.1289169913	 0.227059
H	-2.0321872884	-0.5383527376	-0.2316136298	 0.275012
H	 2.0606568049	-3.6964839871	-0.6978597529	 0.121134
H	 1.7747369389	-3.6442589477	 1.0445502905	 0.110675
H	 0.013053788	-4.6964184663	-1.2039062202	 0.130882
H	-0.0677834122	-5.1706997223	 0.4978171586	 0.115463
H	-1.701934026	-3.6352880573	 0.8425313069	 0.234268
106.6837	142.5716	215.1665	288.374	316.6851	392.6432	528.5428	546.0046	617.0723	708.4687	713.6168	730.3776	754.0549	788.5505	855.5321	893.0865	915.8876	932.5427	964.0895	1023.8081	1065.5254	1118.7009	1177.0355	1234.9448	1256.9239	1278.9043	1306.6858	1358.2092	1368.2969	1391.81	1486.107	1502.3527	1516.0018	1769.8547	1803.5637	2988.4694	3057.3663	3071.9456	3121.579	3459.554	3542.3446	3670.6311
N=C1NC2=C(CCN2)O1	[NH][C@H]1NC2=C(CCN2)O1	
InChI=1S/C5H7N3O/c6-5-8-4-3(9-5)1-2-7-4/h7H,1-2H2,(H2,6,8)	InChI=1S/C5H8N3O/c6-5-8-4-3(9-5)1-2-7-4/h5-8H,1-2H2/t5-/m0/s1
