14
gdb 33560	2.20031	1.66705	1.22951	4.5717	73.84	-0.2757	-0.0202	0.2555	1036.9475	0.099277	-399.510812	-399.502616	-399.501672	-399.54397	29.909	
C	 0.0167950893	-1.1430925907	 0.1462750746	-0.435283
C	-0.0298706354	 0.0523633458	 0.0501278855	 0.332238
C	-0.0488238387	 1.516219104	-0.0661490526	 0.03226
O	-0.6867656429	 2.1086141332	 1.0652664754	-0.279354
C	 0.1910855128	 3.0449620984	 1.7005468906	-0.135463
C	 1.4716612819	 2.970405988	 0.925651681	-0.086518
C	 1.3538647501	 2.1151525245	-0.0787232071	-0.112979
C	-0.7877246587	 1.9031579194	-1.2994220012	 0.280085
N	-1.3374623891	 2.2261793109	-2.2625245891	-0.335652
H	 0.0454831187	-2.2018690548	 0.2321272123	 0.213169
H	-0.258156764	 4.0478107502	 1.6731984036	 0.129944
H	 0.3154864124	 2.7624188723	 2.7548542157	 0.128168
H	 2.3505178016	 3.5498354074	 1.1770458569	 0.129506
H	 2.0835671021	 1.8342241714	-0.8239498455	 0.139879
66.0834	124.1641	154.8715	174.2556	254.364	370.2925	485.8442	511.7535	519.8862	567.7753	582.0727	649.2439	682.6766	744.4189	774.3082	827.2581	950.4713	957.4586	973.1464	1042.2079	1081.2459	1085.4405	1120.0309	1146.3001	1200.1863	1330.9292	1378.1394	1513.5586	1693.5599	2243.3263	2357.0025	3004.8315	3033.0359	3222.3626	3256.2295	3498.9949
C#CC1(OCC=C1)C#N	C#C[C@]1(OCC=C1)C#N	
InChI=1S/C7H5NO/c1-2-7(6-8)4-3-5-9-7/h1,3-4H,5H2	InChI=1S/C7H5NO/c1-2-7(6-8)4-3-5-9-7/h1,3-4H,5H2/t7-/m1/s1
