18
gdb 54812	2.87138	1.46134	1.35725	1.0669	76.29	-0.2238	-0.0247	0.199	1038.8268	0.146896	-401.937325	-401.929004	-401.92806	-401.970984	30.955	
C	-1.0435634467	-0.4161790508	 1.1276538055	-0.47744
C	 0.0473869175	 0.0574159937	 0.1820540774	 0.358424
O	 0.7803952285	 0.9780502389	 0.4549588036	-0.28918
C	 0.0946936088	-0.6951821731	-1.132766438	-0.098225
C	 1.2808514859	-0.7654080487	-2.0295591195	-0.097972
C	 2.6143671886	-0.4095958945	-1.4665292767	-0.047528
C	 2.9526510267	-1.2672468755	-0.5065094715	-0.078902
C	 1.8661893825	-2.2987426108	-0.3126553478	-0.217821
N	 0.8133441007	-1.982885264	-1.3129223111	-0.124065
H	-2.0277199128	-0.2219727549	 0.684692774	 0.143462
H	-0.9791297533	-1.498784006	 1.2825088638	 0.145712
H	-0.9656500343	 0.1087504293	 2.0803520886	 0.141689
H	-0.8915735704	-0.7486092716	-1.5968115517	 0.102276
H	 1.1266126721	-0.7335043545	-3.1062731213	 0.096861
H	 3.1937486773	 0.4360750334	-1.8121478788	 0.108067
H	 3.850190099	-1.2308800593	 0.0989893908	 0.103067
H	 2.2199117324	-3.3209918834	-0.5001853988	 0.118171
H	 1.4564944475	-2.2959867184	 0.7065987613	 0.113403
38.9627	119.0245	138.4409	161.8087	270.7075	343.8485	420.9379	475.9281	591.3646	630.1053	710.8355	715.4304	763.311	767.9853	847.1778	856.5459	928.5678	950.8401	957.5091	976.3269	1013.8647	1035.7037	1071.7426	1094.8027	1105.549	1129.4525	1174.7648	1204.2683	1268.4425	1313.114	1346.7548	1375.055	1378.0588	1407.0332	1461.9175	1472.3732	1494.4636	1676.6217	1811.4508	3012.0989	3034.4381	3035.1628	3086.1263	3095.5206	3126.1166	3152.8969	3203.707	3232.6815
CC(=O)C1C2C=CCN12	CC(=O)[C@H]1[C@H]2C=CCN12	
InChI=1S/C7H9NO/c1-5(9)7-6-3-2-4-8(6)7/h2-3,6-7H,4H2,1H3	InChI=1S/C7H9NO/c1-5(9)7-6-3-2-4-8(6)7/h2-3,6-7H,4H2,1H3/t6-,7+,8?/m1/s1
