16
gdb 15215	2.61032	1.6525	1.29074	3.0678	72.43	-0.2442	-0.0244	0.2198	997.4276	0.127962	-346.56997	-346.561478	-346.560534	-346.602956	30.795	
C	-0.1260210588	 1.5692155925	 0.0877799209	-0.418101
C	 0.0318629599	 0.0685186275	-0.0191411629	-0.029259
C	 0.669246534	-0.6189451783	-1.2195130921	-0.136164
C	 1.235296668	 0.1512217844	-2.3536218814	 0.161089
O	 1.1234512253	-0.1919835007	-3.5059592303	-0.269038
C	 1.3685859839	-0.6121587856	 0.1564854282	-0.224402
C	 2.5676462624	 0.1455315459	 0.3733916541	 0.335232
C	 3.5754623335	 0.7671688668	 0.5856403456	-0.458129
H	 0.7808573796	 2.1017714138	-0.2048591366	 0.138553
H	-0.9512740758	 1.9211969431	-0.5391985644	 0.129731
H	-0.3477928708	 1.847229066	 1.1230671992	 0.129726
H	-0.8035888193	-0.4927608864	 0.3900904769	 0.108611
H	 0.2376487111	-1.5655293211	-1.5263927243	 0.113758
H	 1.7843662261	 1.0756603313	-2.0808786661	 0.087325
H	 1.3557945817	-1.5758087278	 0.6575027711	 0.12738
H	 4.4694583593	 1.3114486686	 0.765449012	 0.203687
83.1757	127.035	152.7195	187.8378	233.9411	299.948	344.6369	426.5038	462.3349	569.299	593.1595	618.5517	660.5628	739.6712	808.9484	891.799	941.66	962.5439	1015.34	1049.7468	1096.7334	1131.6266	1148.8247	1181.0174	1240.5745	1335.6091	1365.2828	1407.8991	1422.8507	1447.0314	1492.7021	1504.7815	1811.0878	2234.8927	2922.2575	3044.2812	3104.0235	3130.0873	3144.9232	3152.2544	3178.0898	3502.4279
CC1C(C=O)C1C#C	C[C@H]1[C@@H](C=O)[C@H]1C#C	
InChI=1S/C7H8O/c1-3-6-5(2)7(6)4-8/h1,4-7H,2H3	InChI=1S/C7H8O/c1-3-6-5(2)7(6)4-8/h1,4-7H,2H3/t5-,6+,7-/m1/s1
