23
gdb 93949	3.8263	0.98359	0.8783	1.4022	85.96	-0.2366	0.0826	0.3192	1433.3015	0.206498	-388.293372	-388.284192	-388.283248	-388.328155	34.961	
C	 0.3259181626	 1.4786335648	-0.2410592628	-0.387792
C	-0.1139806067	 0.0422314817	 0.0408657808	 0.149657
C	 0.2978644812	-0.9623252397	-1.0507897592	-0.239553
C	 1.6444350959	-1.4860809746	-0.5303242501	-0.247309
C	 1.4400247369	-1.4754854007	 0.9963258741	 0.115549
O	 0.4960901283	-0.4267780201	 1.250009855	-0.289826
C	 0.9373612176	-2.7890507235	 1.5544291916	 0.03158
C	 1.9259272269	-3.8183678595	 2.0456169487	-0.273969
C	 1.0598315866	-3.0692377452	 3.0275152941	-0.266674
H	 1.3938193625	 1.526465195	-0.4796330398	 0.111427
H	-0.2344100289	 1.8976748807	-1.0840697972	 0.106983
H	 0.1472478605	 2.1049869846	 0.6373119534	 0.123513
H	-1.2003688306	 0.030031762	 0.1969664338	 0.072793
H	-0.4317140204	-1.7759056107	-1.1147468173	 0.103
H	 0.3674650884	-0.5010092262	-2.0390592228	 0.099708
H	 1.9003013574	-2.4785071132	-0.9079984855	 0.105162
H	 2.4540275157	-0.8037384132	-0.8074000715	 0.101893
H	 2.3705116837	-1.2140435117	 1.5190215145	 0.064918
H	 0.0451397526	-3.171265583	 1.064221803	 0.075777
H	 1.7149820532	-4.8657415935	 1.8608062338	 0.10902
H	 2.9814989987	-3.5675911284	 2.0066851829	 0.108602
H	 1.5301833427	-2.3107904135	 3.6445837176	 0.115707
H	 0.2552079153	-3.603902862	 3.5196291128	 0.109832
36.5078	73.8969	128.8433	200.8629	240.8159	285.4007	312.2233	371.9545	403.9295	487.9008	652.9107	729.4227	760.9567	798.308	826.5917	832.3094	878.695	899.3983	923.4354	944.6228	955.9669	977.7559	1029.8543	1037.8614	1058.3713	1066.2857	1076.6166	1096.1332	1125.7235	1133.428	1184.9629	1195.6276	1209.0236	1227.5424	1232.6993	1301.9828	1320.6038	1323.9308	1337.085	1363.2971	1388.3227	1406.2373	1435.4629	1469.9406	1482.566	1491.2754	1497.0811	1503.8289	1505.4429	3003.2899	3014.7063	3032.0009	3054.6102	3056.9268	3099.9351	3102.8727	3112.2094	3116.6282	3128.1744	3132.1272	3136.6878	3206.2194	3221.7514
CC1CCC(O1)C1CC1	C[C@H]1CC[C@@H](O1)C1CC1	
InChI=1S/C8H14O/c1-6-2-5-8(9-6)7-3-4-7/h6-8H,2-5H2,1H3	InChI=1S/C8H14O/c1-6-2-5-8(9-6)7-3-4-7/h6-8H,2-5H2,1H3/t6-,8+/m0/s1
