14
gdb 125482	5.98424	1.04959	0.89792	2.2494	82.84	-0.2368	-0.0777	0.1591	1234.2596	0.100023	-395.712983	-395.704988	-395.704044	-395.74596	28.953	
C	-0.023697701	 1.4884594087	 0.0150573539	-0.461537
C	-0.0050979051	-0.0093725633	 0.0004831035	 0.392545
N	 0.1445651932	-0.6247462856	-1.1868426256	-0.262773
C	 0.1546989983	-1.9423364224	-1.1478964507	-0.05654
C	 0.0164045462	-2.6354569638	 0.0681899908	 0.161078
N	-0.1294787252	-1.9572841253	 1.2174470295	-0.242142
N	-0.1397374407	-0.6341164647	 1.1784484921	-0.216428
C	 0.026724325	-4.0575497916	 0.1158271753	 0.259774
C	 0.0405786799	-5.2604306457	 0.1136688609	-0.367153
H	 0.9082516157	 1.881067738	-0.4039042794	 0.148341
H	-0.8381293427	 1.8614053758	-0.6140687798	 0.148342
H	-0.1504081076	 1.853958341	 1.033919325	 0.149572
H	 0.2733722794	-2.4822627557	-2.0842113665	 0.137771
H	 0.0507745546	-6.3227467453	 0.1290574412	 0.209152
72.8563	88.5091	143.206	231.002	352.2095	374.9478	434.7513	465.1409	536.8494	576.9958	638.7711	661.8173	671.4495	729.2317	809.129	863.5279	979.7911	1001.8582	1068.0672	1070.2436	1117.7085	1240.1916	1310.9207	1337.7446	1401.72	1435.2574	1477.0833	1477.3297	1525.6805	1596.4178	2235.0853	3049.0457	3106.3939	3161.2648	3163.0669	3499.8238
CC1=NC=C(N=N1)C#C	Cc1ncc(nn1)C#C	
InChI=1S/C6H5N3/c1-3-6-4-7-5(2)8-9-6/h1,4H,2H3	InChI=1S/C6H5N3/c1-3-6-4-7-5(2)8-9-6/h1,4H,2H3
