20
gdb 59908	3.44028	0.71418	0.69112	3.8354	78.64	-0.2463	-0.0256	0.2207	1726.5945	0.167706	-440.337505	-440.326703	-440.325759	-440.376237	37.216	
C	-0.0065136458	 1.6377949955	 0.7852082038	-0.387836
C	-0.0863811578	 0.3136967313	 0.01946584	 0.048904
C	 0.6561222206	-0.8183187844	 0.7399105251	-0.381382
N	-1.4830105808	-0.0486936699	-0.2211051158	-0.31905
C	-1.9723562403	-0.3599280407	-1.4509248583	 0.403387
O	-1.3048041886	-0.354824458	-2.4717180997	-0.380278
C	-3.4523148509	-0.7421151411	-1.4876705413	-0.393005
C	-3.6384707958	-2.0872204973	-2.1738679552	 0.166269
O	-4.3945737074	-2.9376249806	-1.7841930344	-0.239596
H	 1.0366802153	 1.9319665173	 0.9337384999	 0.124882
H	-0.5159656114	 2.4373354953	 0.2404836709	 0.126165
H	-0.4687035251	 1.550020955	 1.7761920721	 0.110181
H	 0.3419215549	 0.4419280954	-0.9778758221	 0.12912
H	 0.2225635892	-1.0075255903	 1.7290373617	 0.109465
H	 0.6057062953	-1.7444520428	 0.1612654347	 0.131528
H	 1.7096759073	-0.5579300888	 0.8814490564	 0.12165
H	-2.0985830835	-0.1134619408	 0.574377702	 0.243901
H	-3.9450466053	-0.7621584437	-0.5126360324	 0.1158
H	-3.9502221455	 0.0079645977	-2.1164364903	 0.15747
H	-3.0115762542	-2.2168143992	-3.079141937	 0.112422
11.4988	33.4967	75.4718	104.7959	172.0256	218.1278	236.757	260.2293	295.1209	419.9875	423.5727	450.8552	471.0177	485.3963	615.1706	730.8785	803.8486	850.7157	922.7234	932.4758	950.2096	987.0638	1046.1525	1060.1047	1146.7612	1158.9601	1185.3064	1191.9565	1239.3719	1308.6043	1359.9291	1378.9385	1400.1019	1404.1691	1419.5392	1444.0197	1483.8521	1487.3258	1495.2602	1506.2053	1539.0093	1765.4977	1835.5015	2939.4738	3027.8829	3032.1179	3035.179	3083.9638	3095.1893	3110.6093	3111.7379	3119.1171	3121.8374	3629.3683
CC(C)NC(=O)CC=O	CC(C)NC(=O)CC=O	
InChI=1S/C6H11NO2/c1-5(2)7-6(9)3-4-8/h4-5H,3H2,1-2H3,(H,7,9)	InChI=1S/C6H11NO2/c1-5(2)7-6(9)3-4-8/h4-5H,3H2,1-2H3,(H,7,9)
