23
gdb 53671	6.24874	0.51508	0.49941	0.1339	96.05	-0.2384	0.0653	0.3037	2284.1786	0.204738	-351.129318	-351.118718	-351.117773	-351.167152	37.341	
C	 0.039018405	 1.5235239767	-0.0528052622	-0.497015
C	 0.0295107556	 0.0697302856	 0.0325485012	 0.108075
C	 0.0322077664	-1.132379038	 0.1055902585	 0.02578
C	-0.0018354743	-2.5886764691	 0.1855306448	-0.357819
C	-1.3915738197	-3.1848802615	-0.1236069334	-0.201633
C	-1.4169677233	-4.7025676782	-0.0164887997	 0.067117
C	-1.2811617468	-5.3734326912	 1.3834144841	-0.21711
C	-2.3402339947	-6.4192022849	 0.9423311848	-0.211867
C	-2.7720523831	-5.446347542	-0.1877746714	-0.242767
H	 0.6366279761	 1.870805533	-0.9032142312	 0.144215
H	-0.9738317501	 1.9228763576	-0.1777974848	 0.144391
H	 0.4609855586	 1.9747240396	 0.8523528849	 0.144354
H	 0.7347142589	-3.0141012408	-0.5099900836	 0.120889
H	 0.3130594766	-2.9101926293	 1.1874858122	 0.126655
H	-2.1258579662	-2.7537173834	 0.56828356	 0.0995
H	-1.6961236278	-2.8751070765	-1.1309522707	 0.103006
H	-0.6745027469	-5.1329094635	-0.7008740116	 0.066229
H	-0.2969742867	-5.7383293352	 1.6878854034	 0.093363
H	-1.6673461081	-4.7181770492	 2.1721048242	 0.097482
H	-1.8725777639	-7.3229512271	 0.5409178135	 0.100737
H	-3.0954615325	-6.7172312778	 1.6733076874	 0.095211
H	-3.6108929957	-4.814432536	 0.1234490061	 0.097679
H	-3.0027001175	-5.8672077189	-1.1697638665	 0.093526
25.1526	45.9576	70.1019	93.486	143.1952	192.4712	220.4978	277.9163	360.5214	382.4776	406.2082	500.8917	632.6297	745.7572	764.802	779.4853	802.025	894.3531	931.3323	936.4535	971.3872	979.8506	1001.8862	1052.6658	1054.2167	1075.7231	1117.3286	1137.0372	1168.5031	1198.258	1210.3007	1254.0174	1256.5801	1260.9258	1270.4346	1287.3238	1304.2756	1321.0334	1365.2493	1391.629	1415.5831	1473.401	1477.384	1479.7167	1480.0689	1485.9812	1493.5628	1510.7022	2373.2129	3007.1235	3017.7417	3023.9272	3026.2704	3032.9127	3041.5379	3046.7343	3057.4186	3068.7359	3083.0392	3083.1524	3093.7661	3097.8586	3115.3639
CC#CCCC1CCC1	CC#CCCC1CCC1	
InChI=1S/C9H14/c1-2-3-4-6-9-7-5-8-9/h9H,4-8H2,1H3	InChI=1S/C9H14/c1-2-3-4-6-9-7-5-8-9/h9H,4-8H2,1H3
