17
gdb 57070	3.00792	1.16545	1.02756	7.2695	68.46	-0.2519	0.0305	0.2824	1184.3341	0.135881	-455.116697	-455.107594	-455.106649	-455.150875	32.819	
N	-0.1304649955	 1.6035003535	-0.143259132	-0.512252
C	-0.0187480231	 0.1507423496	-0.0647349223	-0.140898
C	-1.3426710034	-0.4325938984	 0.2150524955	 0.294006
N	-2.372114604	-0.9165627509	 0.4158612137	-0.319765
C	 0.5841365503	-0.5438709885	-1.3124395144	 0.105049
O	 0.0818312535	 0.0145837055	-2.5432961254	-0.283132
C	 1.3919332841	 0.4813833796	-2.9361815136	-0.101634
C	 2.0354304671	-0.153279675	-1.6826172437	 0.026549
O	 2.6412760016	 0.7070124832	-0.7438614812	-0.420522
H	 0.8088033398	 1.9853472807	-0.1934715901	 0.246707
H	-0.6034080607	 1.841377498	-1.0111797811	 0.245423
H	 0.6306858577	-0.0968777357	 0.7837789652	 0.1427
H	 0.4033869002	-1.6240847504	-1.2604277466	 0.103301
H	 1.6960197615	 0.0725971166	-3.9062303198	 0.112424
H	 1.4543048911	 1.5762030329	-2.9563905823	 0.106067
H	 2.6757857938	-1.0155374803	-1.8968645116	 0.09623
H	 3.568309436	 0.8219921297	-0.97278599	 0.299747
67.5266	95.7156	145.1602	211.9246	219.2714	250.9576	273.3516	363.6251	394.9331	431.2013	519.5296	583.3509	667.61	777.218	818.2375	879.1182	908.7347	934.7482	961.2676	1022.1312	1058.5546	1071.2928	1134.6194	1155.2123	1181.6663	1190.6677	1220.3243	1251.8887	1298.1489	1308.9001	1348.0623	1357.3313	1413.3794	1439.8543	1510.1658	1668.1571	2362.9348	3021.6807	3034.0394	3049.1121	3051.9768	3078.4061	3496.843	3584.3304	3831.8377
NC(C#N)C1OCC1O	N[C@@H](C#N)[C@H]1OC[C@H]1O	
InChI=1S/C5H8N2O2/c6-1-3(7)5-4(8)2-9-5/h3-5,8H,2,7H2	InChI=1S/C5H8N2O2/c6-1-3(7)5-4(8)2-9-5/h3-5,8H,2,7H2/t3-,4+,5+/m0/s1
