21
gdb 101501	2.52908	0.83145	0.69966	1.9018	86.44	-0.2475	-0.0188	0.2287	1685.8782	0.181035	-420.444874	-420.434337	-420.433393	-420.481237	37.294	
C	 0.0578194276	 1.4801824911	 0.0769530494	-0.388749
C	 0.0439509047	-0.0392760864	-0.1205906143	-0.184916
C	 1.0633714154	-0.5584741496	-1.1516465337	 0.076734
C	 1.1593359937	-2.0921767873	-1.1221575982	-0.381758
N	 0.8821824065	-0.1495096367	-2.5469445392	-0.26234
C	-0.2472705131	 0.2244082701	-2.9733139503	 0.113596
N	-0.4019085071	 0.5548000841	-4.3187547629	-0.306005
C	-1.5787921085	 0.9911374864	-4.8761449595	 0.158629
O	-2.6171022428	 1.1381825471	-4.2746580618	-0.300502
H	 1.0498313002	 1.8227198114	 0.3913289625	 0.116556
H	-0.1980896257	 2.0188298286	-0.8398145992	 0.12359
H	-0.6577291933	 1.7811178135	 0.8481410232	 0.115412
H	 0.2777267413	-0.5244706816	 0.8347472714	 0.095171
H	-0.9658100374	-0.3835798987	-0.3798342734	 0.10034
H	 2.0485652727	-0.1643383278	-0.8645483051	 0.082914
H	 1.8785709905	-2.4451390025	-1.8656039468	 0.123497
H	 1.4760713401	-2.4419400248	-0.1347411015	 0.111983
H	 0.1868669501	-2.5423062907	-1.3508939378	 0.114925
H	-1.1760136854	 0.3342455737	-2.4122847256	 0.139807
H	 0.422124065	 0.4643397683	-4.8966260067	 0.261874
H	-1.4657147843	 1.1951173219	-5.9577934303	 0.08924
41.5151	89.4312	129.2869	140.47	171.5332	200.6202	226.1889	257.7449	301.4883	335.9284	389.9293	415.1461	510.8853	575.3068	657.783	756.7938	796.1029	833.2928	941.5462	974.46	1011.0425	1013.2326	1031.1469	1035.8569	1090.3509	1129.3177	1156.166	1181.8381	1242.4349	1290.2827	1320.0389	1352.2323	1369.3357	1397.2448	1404.3177	1416.3424	1437.667	1485.9865	1491.561	1497.5735	1498.4413	1505.2871	1509.6609	1748.8802	1816.2562	2956.4954	3000.4613	3024.1235	3034.8188	3037.6018	3054.3653	3101.6052	3104.5291	3113.1705	3121.2955	3129.8607	3608.7327
CCC(C)N=CNC=O	CC[C@@H](C)N=CNC=O	
InChI=1S/C6H12N2O/c1-3-6(2)8-4-7-5-9/h4-6H,3H2,1-2H3,(H,7,8,9)	InChI=1S/C6H12N2O/c1-3-6(2)8-4-7-5-9/h4-6H,3H2,1-2H3,(H,7,8,9)/t6-/m1/s1
