14
gdb 99456	3.20659	0.71351	0.60921	3.8119	74.47	-0.2837	-0.082	0.2017	1711.6975	0.098325	-436.659514	-436.649744	-436.6488	-436.696667	32.059	
O	 0.178500262	 1.3641170365	-0.1081637132	-0.401222
C	 0.0985669544	-0.0325919793	-0.0689933616	-0.066025
C	-1.3870047308	-0.5180965253	 0.0795293867	-0.347094
C	-2.1677329157	-0.012521284	-1.0591186465	 0.285053
N	-2.7262344859	 0.4375569682	-1.9646128122	-0.312001
C	-1.4587991174	-1.9682361065	 0.2044365072	 0.110566
C	-1.4625896689	-3.1696140436	 0.3119564926	 0.05771
C	-1.4670427258	-4.6058166813	 0.4757297909	 0.024938
O	-1.8091829622	-5.3837745313	-0.3820190265	-0.213394
H	-0.1621370285	 1.6706876567	-0.9567029132	 0.306594
H	 0.537488346	-0.514393203	-0.9518258186	 0.130377
H	 0.6448296802	-0.3660858419	 0.8164040257	 0.14033
H	-1.782252334	-0.0468350122	 0.9886284743	 0.174717
H	-1.1234880035	-4.9482951828	 1.4720682343	 0.109451
17.121	65.9913	91.7053	114.6473	166.9377	206.5501	256.2448	346.7072	371.9688	392.5194	460.4547	526.2489	575.7727	674.4711	811.6929	873.6644	1003.0785	1020.0923	1023.9051	1100.4588	1156.3303	1191.7001	1265.7538	1329.9092	1390.4821	1412.727	1421.5659	1502.1459	1774.2891	2338.2452	2363.391	2930.8406	3026.8043	3041.2146	3114.0229	3799.9327
OCC(C#N)C#CC=O	OC[C@@H](C#N)C#CC=O	
InChI=1S/C6H5NO2/c7-4-6(5-9)2-1-3-8/h3,6,9H,5H2	InChI=1S/C6H5NO2/c7-4-6(5-9)2-1-3-8/h3,6,9H,5H2/t6-/m1/s1
