16
gdb 25968	4.93562	1.05158	0.87156	1.3875	75.1	-0.197	-0.0078	0.1892	1286.5829	0.124307	-437.955944	-437.94758	-437.946635	-437.990021	30.309	
C	-0.1816485181	 1.4933795194	 0.0383627292	-0.483568
C	 0.1401149567	 0.0230684043	-0.0233139749	 0.423564
O	 1.2511210514	-0.4516575595	-0.0189288021	-0.358328
O	-1.0040002366	-0.6982044316	-0.0850560903	-0.256431
C	-1.020868691	-2.0708887305	-0.1498867553	 0.406968
C	-2.144574091	-2.8567731462	-0.2125197878	-0.275292
C	-1.6811277273	-4.202570503	-0.2652979434	-0.136953
C	-0.3072110058	-4.1770110375	-0.2329133142	-0.09905
N	 0.0925600103	-2.8631999585	-0.1621502431	-0.293839
H	 0.745453724	 2.0626227824	 0.0874170174	 0.152949
H	-0.7567528446	 1.7891712577	-0.8435725069	 0.157853
H	-0.7987828828	 1.7061697387	 0.9158194793	 0.157854
H	-3.1625256119	-2.5029302252	-0.2191888535	 0.100738
H	-2.2959218704	-5.0872663518	-0.3210054136	 0.096798
H	 0.4208815506	-4.9709983656	-0.2537156397	 0.119289
H	 1.0250675563	-2.4866719833	-0.1220680912	 0.287446
53.0214	64.9643	98.4136	195.0774	312.1812	353.8817	375.7599	562.6398	590.2454	594.5785	633.6194	657.4853	709.6432	743.7947	783.6497	841.9398	893.9409	918.5243	991.0619	1033.8434	1048.5223	1059.1379	1101.5329	1148.5298	1257.7162	1276.6969	1287.7771	1396.0814	1423.3024	1468.2707	1474.7062	1477.7592	1508.5493	1610.6761	1803.6442	3058.5015	3123.2185	3172.7037	3250.3266	3267.604	3277.8973	3663.0154
CC(=O)OC1=CC=CN1	CC(=O)Oc1ccc[nH]1	
InChI=1S/C6H7NO2/c1-5(8)9-6-3-2-4-7-6/h2-4,7H,1H3	InChI=1S/C6H7NO2/c1-5(8)9-6-3-2-4-7-6/h2-4,7H,1H3
