16
gdb 65833	3.12009	1.21502	1.15347	4.7911	70.97	-0.2651	0.0162	0.2813	1118.0164	0.12347	-437.904519	-437.896034	-437.89509	-437.937545	31.905	
C	 0.0707644643	 1.437493572	 0.0903726651	-0.420753
C	-0.0432623585	-0.086951744	-0.0304551714	 0.192714
C	 0.7542593534	-0.6407942999	-1.2508102502	-0.220919
N	 2.0158549341	-0.9504366962	-0.6137484491	-0.368718
C	 1.861331986	-1.1571448379	 0.741278916	 0.468265
O	 2.6419833116	-1.64067227	 1.5104178458	-0.385762
O	 0.6300735953	-0.6836772103	 1.1091585487	-0.263577
C	-1.4368836151	-0.5187473481	-0.0405835824	 0.305125
C	-2.5901508175	-0.851120433	-0.0777604549	-0.446276
H	 1.1231227482	 1.7318034148	 0.0492481364	 0.136344
H	-0.4701739464	 1.9243721019	-0.7255602644	 0.130178
H	-0.3541406818	 1.7660406571	 1.040754189	 0.147036
H	 0.2616817691	-1.5234425524	-1.6758424487	 0.125916
H	 0.8556339862	 0.1185409633	-2.0310780216	 0.127679
H	 2.7337430729	-1.4815136559	-1.0793508326	 0.26494
H	-3.6089331618	-1.1518817514	-0.0979286357	 0.207809
83.1728	148.0946	182.839	184.3814	259.6739	334.7365	397.5309	449.444	489.3471	509.6799	575.5153	595.6015	637.0671	679.4502	723.7006	768.7416	808.1397	934.3707	952.9042	962.2703	982.3146	1092.0905	1133.7711	1154.0994	1207.5526	1231.8682	1290.0312	1353.4447	1403.9392	1434.9643	1484.6182	1488.6154	1531.8618	1896.2295	2245.3991	3028.8744	3049.7124	3086.6457	3127.8357	3142.9625	3499.441	3654.2315
CC1(CNC(=O)O1)C#C	C[C@]1(CNC(=O)O1)C#C	
InChI=1S/C6H7NO2/c1-3-6(2)4-7-5(8)9-6/h1H,4H2,2H3,(H,7,8)	InChI=1S/C6H7NO2/c1-3-6(2)4-7-5(8)9-6/h1H,4H2,2H3,(H,7,8)/t6-/m1/s1
