18
gdb 95564	2.46122	1.59929	1.03839	2.578	72.89	-0.2399	-0.0234	0.2164	1134.3672	0.147931	-439.107565	-439.099015	-439.098071	-439.141577	31.362	
C	-0.1594158322	 1.4627585521	-0.0718449478	-0.40567
C	 0.1835639607	-0.031659447	-0.0532826994	-0.11045
C	 1.208414957	-0.3972405924	-1.1332017308	-0.096296
O	 1.1103848517	-1.7532931947	-1.5804743515	-0.220435
C	 1.1995568067	-2.7698167028	-0.6889235746	 0.131804
N	 1.3697757666	-2.816709614	 0.5585993669	-0.263101
C	 1.5540028403	-1.6982555382	 1.4613547415	-0.272532
C	 0.6360509323	-0.4741268612	 1.3442123685	 0.373767
O	 0.3100401844	 0.1313924358	 2.3366100614	-0.299387
H	 0.7432886221	 2.0740321835	 0.0350731964	 0.123338
H	-0.6486374231	 1.7360176811	-1.0108747376	 0.116199
H	-0.8199834692	 1.7065287084	 0.7607731857	 0.149832
H	-0.726765575	-0.607583843	-0.2772990493	 0.124878
H	 1.0233761162	 0.1928108754	-2.033436546	 0.12672
H	 2.233504618	-0.1844495605	-0.8042554409	 0.116927
H	 1.0869352035	-3.7038913674	-1.2394342636	 0.126932
H	 1.4458749368	-2.0583082946	 2.4879447579	 0.139687
H	 2.586299683	-1.3210614305	 1.3893696634	 0.137784
32.7207	105.4012	193.3477	207.2338	294.2529	304.018	319.8497	396.529	475.4138	518.0328	544.9319	641.6927	706.0348	800.9801	892.0198	918.6524	955.1184	971.1899	981.6386	1011.605	1077.6485	1092.3479	1146.3922	1156.3454	1211.8605	1240.1524	1267.5098	1309.3073	1341.7229	1349.9095	1401.2839	1416.55	1435.8981	1463.7728	1492.1701	1499.7389	1512.8441	1769.7442	1808.7642	2989.5181	3008.3667	3032.256	3044.2084	3088.1214	3105.6447	3109.6381	3142.282	3149.5292
CC1COC=NCC1=O	C[C@H]1COC=NCC1=O	
InChI=1S/C6H9NO2/c1-5-3-9-4-7-2-6(5)8/h4-5H,2-3H2,1H3	InChI=1S/C6H9NO2/c1-5-3-9-4-7-2-6(5)8/h4-5H,2-3H2,1H3/t5-/m0/s1
