23
gdb 118977	2.64223	1.00606	0.92292	1.2068	87.2	-0.2369	0.0257	0.2626	1420.8373	0.205435	-388.300518	-388.290601	-388.289657	-388.335587	37.232	
C	 0.0431515295	 1.5959758404	-0.0390170018	-0.440136
C	 0.0096189241	 0.0591397887	 0.0194848957	 0.257804
C	-1.4509715988	-0.462990457	 0.0551299361	-0.193655
C	-2.2574902805	-0.1222108994	 1.3035080258	-0.091319
O	-3.5439342456	-0.7075486536	 1.1441810793	-0.420218
C	 0.7592321317	-0.5767271949	-1.1949707316	-0.25037
C	 1.538522113	-1.7944449982	-0.6389466851	-0.257735
C	 1.626650808	-1.4860937283	 0.8366163915	-0.079402
C	 0.816255755	-0.490408913	 1.1874211055	-0.084406
H	 1.0747837681	 1.9570983726	-0.0985014961	 0.112466
H	-0.4964544991	 1.9668650786	-0.918072552	 0.111996
H	-0.4134572962	 2.0512566517	 0.8458504139	 0.110407
H	-1.9921976293	-0.0733529254	-0.8164204888	 0.098671
H	-1.4430680245	-1.5549445595	-0.0422820747	 0.103321
H	-1.753262187	-0.5186248761	 2.1986324437	 0.085397
H	-2.3381467519	 0.9687295319	 1.4274611674	 0.083857
H	-4.0639154051	-0.5040445134	 1.9269472803	 0.283522
H	 0.0759523471	-0.8420164714	-2.006766425	 0.093519
H	 1.4706431949	 0.1520996588	-1.5975197032	 0.094738
H	 1.0074477773	-2.7415464876	-0.8084154992	 0.106979
H	 2.5213668072	-1.9105989875	-1.109721264	 0.100793
H	 2.2618526679	-2.0447572247	 1.5159984557	 0.089103
H	 0.7003370241	-0.1090728524	 2.1969726364	 0.084669
67.3059	71.4686	127.3744	173.3518	225.3454	254.2115	265.5777	323.0417	334.6185	392.8437	407.9458	525.8974	618.5573	722.3448	764.042	793.6135	806.5443	848.6036	912.0446	932.2969	957.9572	976.348	985.0982	1008.6148	1024.6881	1045.6236	1069.9487	1117.3218	1129.5233	1187.0718	1189.519	1217.3716	1242.8098	1258.015	1269.7706	1316.6092	1318.9716	1331.2478	1347.6407	1384.953	1409.8523	1458.9091	1480.4554	1486.722	1493.8492	1499.7058	1503.4031	1528.0423	1686.8168	2970.1466	2996.5794	3010.7025	3023.9113	3027.4214	3041.4958	3056.3233	3070.9666	3091.8807	3093.0162	3100.8295	3170.9962	3197.9906	3829.2818
CC1(CCO)CCC=C1	C[C@@]1(CCO)CCC=C1	
InChI=1S/C8H14O/c1-8(6-7-9)4-2-3-5-8/h2,4,9H,3,5-7H2,1H3	InChI=1S/C8H14O/c1-8(6-7-9)4-2-3-5-8/h2,4,9H,3,5-7H2,1H3/t8-/m0/s1
