15
gdb 48175	3.82122	0.79658	0.68881	2.8086	64.	-0.2685	-0.0876	0.1809	1555.1363	0.109589	-494.896481	-494.887435	-494.886491	-494.932507	30.146	
O	-0.9354689037	 1.7639250704	-0.2039552399	-0.207827
C	 0.1144846891	 1.2207524992	-0.3964819776	 0.0942
C	 1.4832752173	 1.9032560915	-0.2849557637	 0.345684
O	 2.5057254962	 1.2832942669	-0.4428754475	-0.339777
O	 1.385843265	 3.1998222191	-0.0005757984	-0.218862
C	 2.6393422064	 3.9049090825	 0.1280290466	-0.094924
C	 2.32352307	 5.344011203	 0.4065557647	 0.074824
C	 3.2690722827	 6.4002623697	 0.0257218995	-0.180218
O	 2.0777042971	 6.1754514732	-0.7255060218	-0.221363
H	 0.2209408474	 0.152160724	-0.6706908404	 0.117548
H	 3.214174176	 3.4556775702	 0.9452376748	 0.132763
H	 3.2116874616	 3.8010730877	-0.7978199169	 0.138146
H	 1.6548289978	 5.5171676568	 1.2496076689	 0.112798
H	 3.2989605435	 7.3227434872	 0.6026970361	 0.125661
H	 4.1978440136	 6.1384663286	-0.4799838645	 0.121348
31.5578	55.7374	105.0424	114.4983	185.4726	227.1433	275.218	407.1334	457.5061	514.4468	602.7495	714.1515	804.1898	871.1887	911.9838	954.7213	991.2852	1029.0835	1030.8182	1100.6626	1152.3005	1163.7699	1173.3454	1267.8727	1290.8109	1303.8019	1371.4478	1379.1207	1457.717	1485.2855	1532.5311	1807.3732	1844.1415	2948.0752	3050.977	3086.742	3105.2852	3124.0796	3174.7592
O=CC(=O)OCC1CO1	O=CC(=O)OC[C@H]1CO1	
InChI=1S/C5H6O4/c6-1-5(7)9-3-4-2-8-4/h1,4H,2-3H2	InChI=1S/C5H6O4/c6-1-5(7)9-3-4-2-8-4/h1,4H,2-3H2/t4-/m1/s1
