25
gdb 60161	4.00143	0.75873	0.69006	0.9783	91.	-0.2396	0.0814	0.321	1778.0462	0.226797	-389.490399	-389.479721	-389.478776	-389.526809	39.779	
C	-0.0039037918	 1.5571353062	 0.0788422779	-0.388424
C	 0.0252725928	 0.034118754	 0.0045711878	 0.144766
C	 0.6057322365	-0.592245412	 1.2765564106	-0.386947
O	-1.3147974704	-0.3805087444	-0.2398964241	-0.26627
C	-1.4907191527	-1.6963249732	-0.6937094805	 0.166639
C	-1.7928969073	-2.8357035827	 0.3236530132	-0.262235
C	-2.8730239021	-3.3632556293	-0.6635794283	 0.047117
C	-4.1810845996	-3.9016385835	-0.1051918124	-0.403774
C	-2.8648634025	-1.9625138137	-1.3410107358	-0.267975
H	 1.0045799943	 1.9576980406	 0.2188403939	 0.109574
H	-0.4238808741	 1.9757683771	-0.8393827841	 0.119697
H	-0.6251847819	 1.8838473918	 0.9189809879	 0.121149
H	 0.6487661666	-0.270816571	-0.8537803	 0.062635
H	-0.0117025872	-0.3317876267	 2.1424303036	 0.119209
H	 0.6518551416	-1.682077953	 1.2031909709	 0.117901
H	 1.6219514809	-0.2246671427	 1.4536343442	 0.109788
H	-0.6676114109	-1.9800947047	-1.3672785156	 0.060635
H	-0.9832592356	-3.5095818189	 0.6162881783	 0.089004
H	-2.2531261066	-2.414285755	 1.2232329985	 0.102391
H	-2.4268851732	-4.1028748153	-1.3382550011	 0.068532
H	-4.6451982475	-3.1760781533	 0.5724357542	 0.111811
H	-4.898347777	-4.1160383905	-0.9056706936	 0.112764
H	-4.0237287332	-4.8293289937	 0.4566945433	 0.112229
H	-3.6123592887	-1.3028048746	-0.8884638557	 0.107131
H	-2.9456659001	-1.9002012716	-2.428933233	 0.092653
34.9647	63.4442	91.3466	197.1378	216.1926	228.0575	260.3162	275.6449	308.7487	350.0838	403.4781	435.0878	474.7081	482.2722	618.7554	779.4629	805.4161	835.8808	888.5877	921.5736	924.8547	941.0285	949.4087	954.4655	976.9098	1053.0643	1086.5634	1139.6868	1141.077	1144.3047	1176.176	1183.7203	1206.355	1220.1265	1246.199	1261.9358	1271.222	1304.4148	1354.9896	1367.3222	1378.3212	1396.1272	1408.9684	1412.1142	1426.4362	1469.7758	1479.4944	1486.5675	1493.6566	1494.9656	1496.6886	1501.2736	1510.7332	2949.7187	2981.6309	3021.9429	3035.0716	3035.2014	3041.8106	3046.7739	3054.4087	3088.3092	3091.1971	3104.546	3105.2221	3111.9535	3114.0147	3117.9619	3122.5633
CC(C)OC1CC(C)C1	CC(C)O[C@H]1C[C@@H](C)C1	
InChI=1S/C8H16O/c1-6(2)9-8-4-7(3)5-8/h6-8H,4-5H2,1-3H3	InChI=1S/C8H16O/c1-6(2)9-8-4-7(3)5-8/h6-8H,4-5H2,1-3H3/t7-,8+
