12
gdb 130725	2.64612	1.82876	1.12604	2.7635	68.33	-0.2656	-0.117	0.1486	973.4787	0.078562	-468.805776	-468.798648	-468.797704	-468.83811	25.627	
O	-0.038492246	-0.0815117236	-0.1321577211	-0.308471
C	-0.0026330929	 1.1194980424	-0.0304081636	 0.34006
N	-1.1830412163	 1.8632954835	-0.0924780986	-0.26981
N	-1.5175842805	 3.1126561315	 0.3025842394	-0.178619
C	-0.6886991703	 4.103289311	 0.2761712965	 0.089697
N	 0.5797013681	 4.2240316466	-0.2425441425	-0.197013
C	 1.4260869242	 3.2771737849	-0.3891449842	-0.05551
C	 1.3359179886	 1.863320858	 0.0804387447	 0.25435
O	 2.322487507	 1.2621345083	 0.4260439029	-0.261063
H	-1.9937443032	 1.2550806315	-0.1260963815	 0.282381
H	-1.1115875771	 5.0385140223	 0.6291236339	 0.148334
H	 2.3818838083	 3.5161040835	-0.859217886	 0.155663
56.5088	114.344	292.1293	318.2813	345.5472	404.3072	453.3058	545.8543	624.0333	659.6322	709.5395	790.2184	808.1515	846.9945	924.3814	957.0453	1068.6135	1100.7201	1176.955	1284.1054	1387.7637	1426.352	1462.8893	1586.1182	1679.8941	1791.5261	1798.1227	3121.1313	3189.5272	3560.6872
O=C1NN=CN=CC1=O	O=c1[nH]ncncc1=O	
InChI=1S/C4H3N3O2/c8-3-1-5-2-6-7-4(3)9/h1-2H,(H,7,8,9)	InChI=1S/C4H3N3O2/c8-3-1-5-2-6-7-4(3)9/h1-2H,(H,7,8,9)
