19
gdb 105718	2.37802	1.41224	1.17835	3.2229	81.43	-0.2451	-0.0046	0.2405	1154.1549	0.160202	-382.083533	-382.074585	-382.073641	-382.117321	33.219	
C	 0.0972079288	 1.4820946854	-0.0444395223	-0.339913
N	-0.0222513918	 0.0269179382	 0.0529833327	-0.312051
C	-1.3870740942	-0.5080492731	 0.0485860775	 0.123548
C	-1.3552093693	-2.0671975483	 0.1054872601	-0.273768
C	-2.4911657035	-2.4854094066	 1.0674574988	-0.263622
C	-2.7618608979	-1.2202756836	 1.8402921245	-0.057619
C	-2.1755026365	-0.1546279309	 1.3032945942	-0.079633
C	-2.1429120151	-0.0472188565	-1.1504182176	 0.24778
N	-2.6891576495	 0.3351897075	-2.0963014747	-0.356352
H	 1.1574886608	 1.7376138243	-0.1160071641	 0.126684
H	-0.4267502864	 1.9214797253	-0.9074658975	 0.127674
H	-0.2911698034	 1.948878888	 0.8656613794	 0.129845
H	 0.4892816113	-0.4004215272	-0.7135120679	 0.227886
H	-1.4349122819	-2.5223480153	-0.8834870895	 0.118019
H	-0.3849489215	-2.333724387	 0.5330799826	 0.123716
H	-3.3902761279	-2.8067234793	 0.5255700066	 0.125681
H	-2.2015206109	-3.3235312522	 1.7101420821	 0.114895
H	-3.3955553939	-1.1968529264	 2.7200681339	 0.106511
H	-2.2645337773	 0.8659945977	 1.6520178511	 0.110718
74.0911	106.6239	155.7495	171.5856	223.9295	261.3945	306.1534	411.578	465.6337	485.8025	572.5762	639.9954	687.7649	763.0564	774.8805	805.2994	852.3027	926.5938	944.4718	977.663	983.149	1042.0612	1076.8999	1087.0922	1130.376	1159.857	1182.8687	1193.1951	1230.3805	1258.2802	1310.9668	1323.7361	1379.4466	1460.1829	1479.2617	1483.8805	1495.1564	1495.7672	1521.0472	1690.3649	2329.267	2987.8434	3026.1917	3062.539	3072.9776	3079.7551	3117.4524	3124.5876	3192.6211	3226.0333	3510.2839
CNC1(CCC=C1)C#N	CN[C@]1(CCC=C1)C#N	
InChI=1S/C7H10N2/c1-9-7(6-8)4-2-3-5-7/h2,4,9H,3,5H2,1H3	InChI=1S/C7H10N2/c1-9-7(6-8)4-2-3-5-7/h2,4,9H,3,5H2,1H3/t7-/m1/s1
