15
gdb 131879	5.69071	0.81901	0.74977	1.2489	63.2	-0.2734	-0.025	0.2485	1445.2874	0.113005	-491.066819	-491.058753	-491.057809	-491.100779	28.354	
O	-0.0574152232	 1.4431270714	-0.0256238229	-0.416366
C	-0.0098668999	 0.0321926252	-0.0146732048	-0.071001
C	-1.3935689682	-0.5870297273	 0.0536448498	-0.083137
O	-2.0716206507	-0.1812971327	-1.1551799139	-0.265546
C	-3.3341708187	-0.5576162725	-1.2783437012	 0.471352
N	-3.9813486112	-1.2936770304	-0.4044117957	-0.226285
O	-5.2557842778	-1.4086590005	-0.9938992304	-0.16315
C	-5.1984842397	-0.7268671303	-2.1358508774	 0.120887
N	-4.0554842767	-0.1745644862	-2.3847592726	-0.324097
H	-0.5886721001	 1.6995991628	-0.7876466848	 0.295826
H	 0.5207609262	-0.3658035931	-0.8935551937	 0.103515
H	 0.5517516996	-0.2627248035	 0.8773900185	 0.120886
H	-1.3528568065	-1.680859204	 0.1002363495	 0.127349
H	-1.9537505798	-0.2140978623	 0.9171219459	 0.138268
H	-6.0952014534	-0.6983662666	-2.7378695961	 0.171499
46.9096	78.8543	142.5429	180.4987	290.5656	346.3799	394.4481	485.3862	495.4515	614.9197	748.8768	776.7692	896.9887	903.542	912.0541	931.7404	976.6134	1032.7588	1061.0743	1099.6382	1127.3446	1158.2273	1235.0004	1266.3716	1311.7248	1368.9641	1393.8493	1415.9178	1435.2767	1491.9633	1495.6284	1567.6331	1621.7154	2991.358	3044.306	3086.9435	3101.07	3265.3046	3808.7037
OCCOC1=NOC=N1	OCCOc1nocn1	
InChI=1S/C4H6N2O3/c7-1-2-8-4-5-3-9-6-4/h3,7H,1-2H2	InChI=1S/C4H6N2O3/c7-1-2-8-4-5-3-9-6-4/h3,7H,1-2H2
