18
gdb 8334	5.40632	1.31186	1.28388	2.559	67.71	-0.2474	0.0644	0.3118	1018.1531	0.153099	-384.906395	-384.898614	-384.89767	-384.939047	28.701	
C	-0.7051591642	 1.3496488937	 0.1915254331	-0.397956
C	 0.0499043394	 0.0447533892	 0.0497268859	 0.159577
C	 0.7952405064	-0.2370919915	-1.2730436235	-0.375849
C	 2.0544912839	-0.298687013	-0.3928474779	 0.379972
C	 2.9793509917	-1.5313036646	-0.3351257733	-0.128508
O	 4.1075025152	-0.7501218398	-0.7798236838	-0.274743
C	 3.350956288	 0.4746918258	-0.6908415199	-0.128119
O	 1.3085088543	 0.0496404973	 0.7782846002	-0.321491
H	-0.0975679583	 2.1909844067	-0.1564310568	 0.118698
H	-1.6306362391	 1.3206908194	-0.3942087428	 0.117892
H	-0.9691234914	 1.526796818	 1.2387988517	 0.13007
H	-0.5744593148	-0.7938245757	 0.3856370775	 0.078701
H	 0.5326688562	-1.1607501836	-1.7919918847	 0.112819
H	 0.7814525124	 0.5926322251	-1.9841969406	 0.110955
H	 3.111370728	-1.9181056411	 0.6838036852	 0.109095
H	 2.7522102384	-2.3585290641	-1.0188795397	 0.099502
H	 3.3829657279	 1.0525215724	-1.6228601976	 0.099892
H	 3.671436406	 1.1073559858	 0.1474320472	 0.109494
56.4353	83.4601	228.5164	232.6958	316.9138	354.2979	399.4527	433.1584	517.8971	769.8228	822.8137	866.8159	888.7098	914.945	926.7633	936.4972	966.1013	994.6796	1030.2879	1079.323	1110.1867	1148.2173	1150.1666	1178.0994	1196.2463	1215.609	1232.6629	1281.9811	1296.3455	1321.4702	1372.141	1394.0446	1411.8823	1481.7792	1486.7816	1494.1508	1496.2386	1521.671	3002.7183	3012.0188	3015.4229	3033.19	3058.5339	3060.0033	3068.0509	3105.855	3112.7339	3124.8105
CC1CC2(COC2)O1	C[C@H]1CC2(COC2)O1	
InChI=1S/C6H10O2/c1-5-2-6(8-5)3-7-4-6/h5H,2-4H2,1H3	InChI=1S/C6H10O2/c1-5-2-6(8-5)3-7-4-6/h5H,2-4H2,1H3/t5-/m0/s1
