17
gdb 44543	3.50851	1.46748	1.37928	4.4874	70.28	-0.2633	0.015	0.2783	973.7289	0.13834	-421.843458	-421.836771	-421.835827	-421.874686	27.024	
O	 0.022410329	 0.0704017329	-0.6688576995	-0.331884
C	-0.0355901317	 1.1518221737	-0.1635249877	 0.41532
C	-1.2955957111	 1.9778051286	 0.1374445525	-0.390292
C	-0.7859861415	 3.2370392684	 0.831422605	-0.049601
C	-0.7380981943	 3.3212049641	 2.3694854102	-0.063342
C	-0.085025414	 2.1111966668	 2.9666663958	-0.299486
C	 0.794890258	 3.1632625407	 2.3556587796	-0.056639
C	 0.7644176721	 3.0849025244	 0.8281018282	 0.080241
O	 1.0857526244	 1.8295735654	 0.2284316221	-0.218219
H	-1.8000211056	 2.1813561497	-0.8111725961	 0.140714
H	-1.9756644639	 1.3715467324	 0.7411802003	 0.144173
H	-1.1342545973	 4.1607402194	 0.3700181277	 0.088108
H	-1.3378916334	 4.0003390183	 2.9620897866	 0.096075
H	-0.0687378247	 2.090218628	 4.0512974375	 0.122805
H	-0.1785437223	 1.1266950772	 2.5179051843	 0.130558
H	 1.5467165324	 3.68823528	 2.9307685556	 0.094814
H	 1.3340381639	 3.86600605	 0.3231760676	 0.096654
93.107	170.5496	295.3078	390.2556	493.8548	535.3095	564.6531	634.4218	680.7867	749.0538	767.0474	804.6333	836.021	877.2229	912.6404	929.7727	986.1834	1004.8155	1016.8674	1051.1042	1065.4844	1076.5226	1088.3494	1102.5801	1144.2004	1165.0588	1192.9956	1198.8345	1265.5432	1280.7144	1310.191	1336.2723	1362.7027	1373.6873	1459.9576	1502.5615	1880.499	3070.6081	3100.7774	3109.4483	3118.2878	3129.323	3188.0354	3196.4949	3211.3765
O=C1CC2C3CC3C2O1	O=C1C[C@H]2[C@H]3C[C@H]3[C@H]2O1	
InChI=1S/C7H8O2/c8-6-2-5-3-1-4(3)7(5)9-6/h3-5,7H,1-2H2	InChI=1S/C7H8O2/c8-6-2-5-3-1-4(3)7(5)9-6/h3-5,7H,1-2H2/t3-,4+,5-,7+/m0/s1
