15
gdb 128453	4.65364	1.14612	0.925	0.0627	70.44	-0.2587	-0.0286	0.2301	1209.1719	0.113797	-453.995582	-453.987624	-453.98668	-454.028842	28.009	
C	 0.0406269021	 1.3356550553	 0.0092023947	-0.23736
O	-0.0313888949	-0.0977774928	 0.0023870981	-0.22245
C	-1.2655910449	-0.5880881678	 0.0091925596	 0.569357
O	-2.2905248803	 0.0445201422	 0.0201665381	-0.390855
N	-1.2568180317	-1.9956603968	 0.0018709947	-0.098189
C	-2.390269838	-2.7689863788	 0.006410596	 0.011235
C	-1.9717136062	-4.0701597767	-0.0033977919	-0.251427
C	-0.5517971015	-3.9899260525	-0.0137199931	 0.014137
N	-0.1180445767	-2.7435071292	-0.0105565323	-0.241217
H	 1.1041284603	 1.5707397996	 0.0014263089	 0.145311
H	-0.4519769804	 1.7482656751	-0.8743218847	 0.147292
H	-0.4368579446	 1.7390114311	 0.9052239384	 0.147259
H	-3.3624428109	-2.3066488574	 0.0161088591	 0.164191
H	-2.5884347496	-4.9539815175	-0.0032791621	 0.117671
H	 0.1630794472	-4.8004571539	-0.0232766935	 0.125045
83.1463	102.4891	128.7714	179.1969	209.478	325.9736	423.7602	529.1856	612.3264	664.9107	780.7167	790.3689	824.5531	875.0407	911.9808	927.2404	948.8983	1014.795	1058.6737	1091.8729	1181.3638	1196.4625	1226.2853	1250.9991	1300.8939	1385.0035	1430.4137	1450.832	1483.4212	1483.5112	1498.5962	1580.1993	1827.1229	3056.8714	3134.1589	3169.9691	3241.1305	3272.3132	3298.2756
COC(=O)N1C=CC=N1	COC(=O)n1cccn1	
InChI=1S/C5H6N2O2/c1-9-5(8)7-4-2-3-6-7/h2-4H,1H3	InChI=1S/C5H6N2O2/c1-9-5(8)7-4-2-3-6-7/h2-4H,1H3
