21
gdb 114743	2.82645	1.32934	1.04746	1.7172	78.21	-0.2341	0.066	0.3	1222.0617	0.1825	-424.213332	-424.204475	-424.203531	-424.246822	34.216	
C	 0.1290634847	 1.5234853525	 0.1209341196	-0.385406
C	 0.0837653085	-0.0060905817	 0.0612083773	-0.211566
C	 0.7114984399	-0.5707670001	-1.2047899797	 0.137894
O	 2.0937015765	-0.1890868433	-1.2574300137	-0.275567
C	 2.7772304791	-1.1223728213	-2.0547138945	 0.09495
C	 3.2692879325	-2.3473724294	-1.3451117691	-0.296924
C	 1.9706775512	-2.3895639893	-2.1310192436	-0.076335
C	 0.6900211779	-2.1194349614	-1.3500029959	 0.041202
O	 0.720718002	-2.8250955516	-0.11590911	-0.419779
H	 1.1621000356	 1.875946811	 0.0701013054	 0.140954
H	-0.4198373438	 1.9691218629	-0.7160184027	 0.11148
H	-0.31645122	 1.8943438714	 1.0488915418	 0.109041
H	 0.6070553878	-0.4326836235	 0.9232785581	 0.113266
H	-0.9600319589	-0.3477683998	 0.1105307469	 0.083641
H	 0.1983160049	-0.1513446514	-2.0883942502	 0.060168
H	 3.3061579857	-0.697435977	-2.9025357569	 0.09056
H	 4.1134907448	-2.8823453379	-1.7672880082	 0.107514
H	 3.2010180356	-2.3589507827	-0.2645644021	 0.136132
H	 1.9175809965	-2.9868580527	-3.0323292497	 0.089411
H	-0.1888230887	-2.4251593874	-1.9354331845	 0.065688
H	-0.0990646719	-2.6411866174	 0.3539239418	 0.283677
80.5719	110.0538	175.6615	219.5291	239.449	301.6932	322.9216	397.6381	407.682	488.4899	546.7363	692.4224	752.164	777.5781	801.99	816.3386	829.4617	917.8313	943.4533	968.0193	994.9034	1022.3225	1045.7658	1048.8952	1058.1536	1100.2889	1123.7189	1141.5577	1152.8301	1176.4599	1195.7839	1227.3607	1296.2562	1307.5961	1319.7726	1328.6451	1367.7574	1391.0415	1399.3795	1409.6137	1422.9835	1472.5101	1482.566	1497.8256	1509.5816	2941.2173	2998.9855	3009.5551	3037.7884	3074.7068	3103.5911	3127.2397	3138.3886	3150.6078	3187.4811	3238.3848	3817.0632
CCC1OC2CC2C1O	CC[C@H]1O[C@H]2C[C@H]2[C@H]1O	
InChI=1S/C7H12O2/c1-2-5-7(8)4-3-6(4)9-5/h4-8H,2-3H2,1H3	InChI=1S/C7H12O2/c1-2-5-7(8)4-3-6(4)9-5/h4-8H,2-3H2,1H3/t4-,5-,6+,7-/m1/s1
