17
gdb 92399	2.27187	1.77516	1.23249	2.382	73.59	-0.2361	-0.0027	0.2334	1039.3185	0.13574	-417.961796	-417.95358	-417.952636	-417.994593	30.394	
C	-0.1269892402	 1.565093049	 0.011054027	-0.339879
N	 0.0176748414	 0.125823174	 0.0967955365	-0.118849
C	-1.1978760825	-0.7007363435	 0.2916620587	-0.193092
C	-0.4479908893	-1.5594019896	 1.3238301594	 0.055587
O	 0.4199946631	-2.5549399622	 0.7665034433	-0.288133
C	 1.5772286573	-1.6885923065	 0.8382815937	-0.098583
C	 0.6926734814	-0.494463123	 1.2665440313	 0.170685
C	 1.1044065717	 0.3588861664	 2.3568823041	 0.194461
N	 1.4345637277	 1.0555007314	 3.2194805626	-0.341589
H	 0.8588517321	 2.036715446	-0.0346771045	 0.138682
H	-0.6591904344	 1.8072025367	-0.9140754021	 0.13159
H	-0.6824782192	 2.0083399899	 0.855398506	 0.113435
H	-2.0286461093	-0.1479770578	 0.7578458956	 0.103427
H	-1.5529287216	-1.2120923862	-0.6078402085	 0.121669
H	-0.9663012227	-1.8919310338	 2.2239075245	 0.107314
H	 2.2835188739	-2.0286728074	 1.6046009204	 0.119164
H	 2.0742798805	-1.5627742932	-0.127278018	 0.124111
102.6921	136.3249	168.1177	204.6975	260.1595	303.411	370.1408	401.0596	509.3579	546.0572	593.2915	654.264	780.436	845.8752	910.7105	967.1853	984.6816	1007.7046	1053.5215	1075.0257	1092.628	1138.6676	1151.4917	1171.762	1181.1583	1205.0126	1253.7942	1263.9725	1318.1828	1328.1853	1360.0384	1453.4213	1483.2671	1498.745	1500.3262	1503.2589	2345.0433	2959.4441	2983.7285	3031.1793	3071.4126	3084.4992	3105.6071	3109.5023	3114.0752
CN1CC2OCC12C#N	CN1C[C@H]2OC[C@@]12C#N	
InChI=1S/C6H8N2O/c1-8-2-5-6(8,3-7)4-9-5/h5H,2,4H2,1H3	InChI=1S/C6H8N2O/c1-8-2-5-6(8,3-7)4-9-5/h5H,2,4H2,1H3/t5-,6-/m1/s1
