15
gdb 30562	7.04933	0.79358	0.71644	1.7729	73.19	-0.234	-0.0052	0.2288	1524.2801	0.112415	-453.965949	-453.957738	-453.956793	-454.000124	28.61	
C	 0.0799695241	 1.3565589008	-0.033184129	-0.319845
N	 0.0146006301	-0.0814804424	-0.2058061711	-0.189588
C	-1.1010530477	-0.627243011	-0.060075391	 0.112393
O	-1.178897055	-1.995855949	-0.2212671657	-0.22517
C	-2.3763649974	-2.5644383807	-0.0631540734	 0.514751
N	-3.5194632607	-2.0355560184	 0.2259836523	-0.377426
C	-4.3792817705	-3.1359336766	 0.2504182192	-0.104722
C	-3.6843308147	-4.2575445656	-0.0285029154	-0.045782
O	-2.367758857	-3.893638503	-0.2361594443	-0.181721
H	 0.7958629374	 1.5902106884	 0.7619636562	 0.137911
H	 0.4638998633	 1.8111032785	-0.9526149991	 0.13791
H	-0.8850959052	 1.8243013873	 0.2139153583	 0.108757
H	-2.0587695488	-0.1622993503	 0.1852834713	 0.146747
H	-5.4292037261	-3.024016259	 0.4678568467	 0.132474
H	-3.9081272117	-5.305039709	-0.1202655949	 0.153312
37.9894	75.3079	128.7652	207.825	280.2228	324.7646	340.0452	405.0183	570.8853	620.3607	715.4022	757.5029	812.2778	860.2996	930.2359	979.162	992.9056	1054.5908	1090.2602	1132.8237	1141.8374	1144.3138	1185.7138	1190.7974	1287.384	1376.9934	1426.4848	1451.022	1480.9916	1502.1901	1578.9518	1629.3727	1786.6073	2987.3211	3073.4433	3091.7282	3109.44	3269.1546	3314.0606
CN=COC1=NC=CO1	CN=COc1ncco1	
InChI=1S/C5H6N2O2/c1-6-4-9-5-7-2-3-8-5/h2-4H,1H3	InChI=1S/C5H6N2O2/c1-6-4-9-5-7-2-3-8-5/h2-4H,1H3
