19
gdb 35774	3.67776	1.19119	0.99357	1.6959	81.44	-0.2433	0.0394	0.2828	1213.0094	0.15956	-385.842227	-385.834099	-385.833155	-385.874809	32.098	
C	 0.0581816635	-1.2017841399	-0.043738098	-0.412439
C	 0.048613614	-0.0013864135	-0.0063848914	 0.301683
C	-0.0131862413	 1.4554167181	 0.05539512	-0.052574
C	-0.8338964892	 1.9532316915	 1.2575020311	-0.214705
C	-0.9678906503	 3.483162238	 1.194464779	-0.246902
C	 0.3257614026	 4.1678770739	 0.7850614917	-0.036186
C	 1.6276897832	 3.9782685584	 1.5333126477	-0.305679
C	 1.4355420704	 3.3440757328	 0.1797805478	 0.101599
O	 1.3260909012	 1.9468590402	 0.1387044296	-0.266652
H	 0.0779471608	-2.2627613921	-0.0853177976	 0.195377
H	-0.4843753089	 1.8279049998	-0.8707013792	 0.093514
H	-1.8219481164	 1.4837230524	 1.2544838172	 0.110385
H	-0.3204521645	 1.627291243	 2.1682591851	 0.116807
H	-1.7331363757	 3.7308177172	 0.4475639254	 0.102865
H	-1.3313577158	 3.8743055169	 2.1518181777	 0.103403
H	 0.1870104348	 5.1518920182	 0.3465180239	 0.088566
H	 2.2945265749	 4.8282023369	 1.6284385048	 0.110025
H	 1.6421126836	 3.2923992422	 2.3734224825	 0.120012
H	 1.984167273	 3.741006436	-0.6713900673	 0.090899
88.3634	145.0852	162.1166	271.448	320.7971	379.0626	448.1792	470.6544	530.8302	536.9301	621.6008	646.9732	670.6214	746.8946	817.1819	822.0939	864.6007	915.3221	947.728	973.7764	1036.0788	1043.4504	1048.6498	1079.7207	1100.2312	1120.8186	1128.2644	1184.5602	1213.8444	1245.2905	1247.1009	1319.9621	1343.3712	1365.6979	1372.4232	1391.2995	1408.862	1477.6759	1481.1925	1496.5228	2245.3771	2950.5443	3020.1151	3047.589	3060.2196	3098.5689	3123.9213	3133.8901	3145.4598	3223.053	3504.8709
C#CC1CCC2CC2O1	C#C[C@H]1CC[C@H]2C[C@H]2O1	
InChI=1S/C8H10O/c1-2-7-4-3-6-5-8(6)9-7/h1,6-8H,3-5H2	InChI=1S/C8H10O/c1-2-7-4-3-6-5-8(6)9-7/h1,6-8H,3-5H2/t6-,7-,8+/m0/s1
