21
gdb 77955	3.22145	1.177	0.9705	0.8128	90.76	-0.2507	0.0481	0.2987	1288.3306	0.181227	-349.865493	-349.856123	-349.855178	-349.89978	35.645	
C	-0.0481117913	 1.5600321707	-0.2899443009	-0.455086
C	 0.0653197423	 0.0414689821	-0.1689941978	 0.058198
C	 1.1848150629	-0.7873869846	-0.8765387545	-0.091229
C	 2.1885038258	-0.4426367272	 0.280552148	 0.063478
C	 2.9357530656	 0.8781119237	 0.4511193937	-0.457456
C	 0.8183880987	-0.7375254443	 0.968849195	-0.09193
C	 0.7438449989	-1.9971216748	 0.0282294511	-0.176982
C	-0.5144948686	-2.6739034829	-0.2073779679	 0.310588
C	-1.5342132043	-3.2845203929	-0.3960811279	-0.447136
H	 0.8756207341	 2.0598466182	-0.5793081367	 0.123306
H	-0.7931955634	 1.8032256442	-1.0550543909	 0.115453
H	-0.3964061341	 2.0081142195	 0.6478961104	 0.116994
H	-0.9289110502	-0.3822655128	-0.3340030857	 0.087004
H	 1.3977683029	-0.8414373664	-1.9465360951	 0.070593
H	 2.9109705553	-1.2552361567	 0.4246549287	 0.065513
H	 2.3058235113	 1.712809737	 0.7548567134	 0.126413
H	 3.700841824	 0.759188372	 1.2258254217	 0.114677
H	 3.4559065081	 1.1630536832	-0.4707142678	 0.117795
H	 0.5955410669	-0.7313938324	 2.0381673649	 0.070675
H	 1.5375295502	-2.7281317683	 0.2089106361	 0.0915
H	-2.437971115	-3.8158628871	-0.5637498479	 0.187631
54.3437	110.188	132.2945	142.9551	233.2267	325.67	328.39	348.6238	425.4825	486.5531	515.4189	608.0657	637.6463	663.4038	735.567	780.7024	789.5756	797.1188	887.4506	890.7453	1011.288	1020.984	1030.6939	1049.9062	1053.0682	1076.7927	1107.0245	1127.9919	1145.5822	1157.1363	1190.2969	1218.0303	1224.8322	1247.1201	1287.4702	1371.8962	1405.2697	1417.7621	1432.9016	1469.3971	1495.127	1498.1046	1499.4597	1529.0741	2227.3975	3015.3175	3035.0389	3037.3078	3058.5249	3062.1969	3084.8071	3086.8497	3087.4977	3091.604	3138.2788	3159.4865	3504.4158
CC1C2C(C)C1C2C#C	C[C@H]1[C@H]2[C@@H](C)[C@@H]1[C@H]2C#C	
InChI=1S/C9H12/c1-4-7-8-5(2)9(7)6(8)3/h1,5-9H,2-3H3	InChI=1S/C9H12/c1-4-7-8-5(2)9(7)6(8)3/h1,5-9H,2-3H3/t5-,6+,7-,8-,9+
