21
gdb 110699	2.46583	1.3474	1.17395	1.7736	82.71	-0.2299	0.0055	0.2354	1185.6533	0.183243	-387.083209	-387.074401	-387.073457	-387.116631	34.143	
C	-0.2328804346	 1.5499334325	 0.1719031063	-0.380452
C	 0.1453954862	 0.0918484824	-0.1176277945	-0.224272
C	 0.7781203067	-0.5833153526	 1.0846326469	 0.011077
C	 0.004472458	-1.2741664342	 2.201020829	-0.106807
C	-1.3693497111	-1.758898687	 1.8630884766	-0.075673
C	-1.3435093674	-2.7179148454	 0.9364219128	-0.128384
C	 0.0776039915	-3.0792528968	 0.5271106441	 0.091986
O	 0.2919017102	-3.1259307401	-0.8793147538	-0.437301
C	 0.9365612356	-2.0736602331	 1.3069521213	-0.124349
H	 0.6432164011	 2.1323297021	 0.477727184	 0.115267
H	-0.6627378619	 2.0322301995	-0.7113326807	 0.111751
H	-0.9682529237	 1.6083422613	 0.9809233981	 0.120144
H	-0.7518031196	-0.4502389731	-0.4348213768	 0.099102
H	 0.8519675614	 0.0606690726	-0.9579853791	 0.100059
H	 1.6352425984	-0.0250659044	 1.4591252361	 0.08531
H	 0.2508397658	-1.0362543745	 3.2301074434	 0.086265
H	-2.2640195329	-1.3370434919	 2.3086006786	 0.096781
H	-2.2021776792	-3.1970533914	 0.4797394138	 0.098631
H	 0.320124057	-4.0971495486	 0.8586113576	 0.093315
H	 0.1063848325	-2.2496874461	-1.2313480781	 0.282733
H	 1.8985513962	-2.4170237014	 1.6685966744	 0.084818
73.4757	125.2395	178.6353	208.9509	241.2489	279.9046	329.2678	376.4963	461.6388	553.7442	583.1068	719.8231	737.0357	748.767	785.8666	819.6168	831.4454	893.2055	924.8174	959.6066	975.6444	988.9435	1019.138	1047.1227	1071.1507	1078.6299	1098.8151	1115.7017	1133.406	1141.6703	1230.6272	1255.3966	1292.2892	1306.4232	1315.306	1338.4076	1367.462	1376.1081	1408.122	1429.4779	1437.604	1492.7789	1498.0629	1505.9113	1669.5458	3015.554	3023.1511	3032.4599	3062.0831	3100.4046	3106.9814	3113.8088	3162.9337	3176.9952	3181.4358	3208.4017	3824.5985
CCC1C2C=CC(O)C12	CC[C@H]1[C@H]2C=C[C@@H](O)[C@@H]12	
InChI=1S/C8H12O/c1-2-5-6-3-4-7(9)8(5)6/h3-9H,2H2,1H3	InChI=1S/C8H12O/c1-2-5-6-3-4-7(9)8(5)6/h3-9H,2H2,1H3/t5-,6+,7+,8-/m0/s1
