15
gdb 93600	5.00876	0.99751	0.85656	5.6182	69.18	-0.2775	-0.0496	0.2279	1261.6257	0.113397	-453.956274	-453.948159	-453.947214	-453.989151	29.505	
O	-0.0513146727	 1.4288170379	 0.0792560723	-0.419343
C	 0.0306021264	 0.0181404318	 0.009580794	 0.059849
C	 0.7358394585	-0.547806331	 1.2440631766	-0.1125
O	 0.6912460849	-1.9845970595	 1.2522200894	-0.253894
C	-0.4839864498	-2.5162493921	 0.8366221477	 0.297909
N	-1.4751492882	-1.9566198764	 0.2839938041	-0.304199
C	-1.39340281	-0.5342076444	-0.0249011954	-0.168493
C	-0.5219233248	-3.9405762095	 1.0988820257	 0.297905
N	-0.5503567459	-5.0766250039	 1.3053407416	-0.316875
H	 0.8032908267	 1.8030859611	-0.1570661282	 0.294248
H	 0.5698174002	-0.3112550436	-0.8906508696	 0.093917
H	 1.7956687948	-0.2845495525	 1.2738701177	 0.123476
H	 0.2500952451	-0.1650024751	 2.1495728309	 0.13311
H	-2.0075186835	 0.0217260853	 0.6951354669	 0.141133
H	-1.8475268615	-0.3729725982	-1.0071245337	 0.133756
81.5545	159.5988	173.3808	211.5198	264.7035	331.8506	405.3029	430.077	451.5211	484.4932	595.8342	651.0691	723.9245	818.0356	895.6448	937.8495	1022.7779	1057.8484	1101.7596	1113.0169	1143.5289	1209.0034	1234.0692	1242.0975	1304.4522	1345.7721	1359.384	1395.2516	1443.5682	1479.2469	1509.6601	1729.0765	2368.8758	2998.7216	3035.7858	3045.2245	3084.8053	3112.4478	3822.631
OC1COC(=NC1)C#N	O[C@H]1COC(=NC1)C#N	
InChI=1S/C5H6N2O2/c6-1-5-7-2-4(8)3-9-5/h4,8H,2-3H2	InChI=1S/C5H6N2O2/c6-1-5-7-2-4(8)3-9-5/h4,8H,2-3H2/t4-/m1/s1
