18
gdb 85572	2.73871	1.38304	0.96822	1.3824	72.68	-0.2462	-0.0312	0.215	1190.6824	0.14816	-439.156186	-439.147619	-439.146674	-439.190003	31.97	
C	-0.6279996843	 1.2615289648	 0.0338426908	-0.404232
C	 0.1349915011	-0.0640226106	-0.0005896015	-0.057593
N	 1.0284386602	-0.1164638645	-1.1514549747	-0.316137
C	 2.0761861869	-0.9865989453	-1.3158917935	 0.391901
O	 2.6411686491	-1.1325654024	-2.3812193589	-0.3675
C	 2.4834966936	-1.7086521506	-0.038139763	-0.338273
C	 2.3144165495	-0.8108582672	 1.1957076611	-0.316198
C	 0.8927148695	-0.2976163206	 1.3202395767	 0.398979
O	 0.3476333863	-0.099022357	 2.3785240816	-0.312089
H	 0.0674714038	 2.1059065692	 0.0546206595	 0.131323
H	-1.2706300855	 1.3617589651	-0.8462324812	 0.120469
H	-1.2491446711	 1.2957798706	 0.9298881621	 0.154558
H	-0.6056194879	-0.8817547146	-0.0463437029	 0.116466
H	 0.710350248	 0.3169663454	-2.0074334685	 0.247763
H	 1.8656093822	-2.6107046475	 0.0624880973	 0.132203
H	 3.515211138	-2.0407247903	-0.1616768203	 0.140875
H	 2.5861318777	-1.3125019739	 2.1272239247	 0.134584
H	 2.9683443628	 0.0669168296	 1.0976081506	 0.142898
40.6614	110.7	174.0477	225.3545	270.8002	349.6544	378.7021	425.27	449.9741	528.6477	569.4156	621.	641.4907	688.0582	748.8581	796.2421	902.7128	961.717	978.9962	1013.2894	1055.8896	1104.4109	1146.8976	1167.1367	1200.7287	1234.3439	1314.4429	1319.623	1326.223	1348.1203	1381.464	1402.2535	1453.058	1458.9391	1476.7422	1495.1152	1499.3758	1803.9583	1822.3691	2947.164	3023.3919	3036.8215	3045.6258	3109.0012	3114.1832	3125.9427	3150.3859	3595.4178
CC1NC(=O)CCC1=O	C[C@H]1NC(=O)CCC1=O	
InChI=1S/C6H9NO2/c1-4-5(8)2-3-6(9)7-4/h4H,2-3H2,1H3,(H,7,9)	InChI=1S/C6H9NO2/c1-4-5(8)2-3-6(9)7-4/h4H,2-3H2,1H3,(H,7,9)/t4-/m1/s1
