21
gdb 84115	2.47374	1.64075	1.22032	1.6216	84.	-0.2272	0.0138	0.241	1123.069	0.183418	-387.088295	-387.080029	-387.079084	-387.120635	32.904	
C	-0.0786802058	 1.5595943291	 0.0569282012	-0.398416
C	 0.0021575455	 0.0253896941	 0.0228937823	-0.018548
C	 0.7259445632	-0.4726300982	-1.215960977	-0.182075
C	 1.843591139	-1.193257186	-1.0932403752	 0.350763
C	 2.6562933043	-1.7471817032	-2.2228987702	-0.50483
C	 2.2735308157	-1.4585439788	 0.342733365	-0.008227
C	 1.0742088859	-2.0224164425	 1.1407313503	-0.257309
C	 0.7469094054	-0.5181348372	 1.2569465233	 0.085755
O	 2.1665777479	-0.2169442388	 1.1051618341	-0.295082
H	 0.9266626147	 1.9809887296	 0.1444313909	 0.136157
H	-0.5377909702	 1.9528668644	-0.8556640284	 0.109371
H	-0.6749714037	 1.9040167298	 0.9091487114	 0.107061
H	-1.0216004113	-0.3785302481	 0.0319565431	 0.074542
H	 0.3234920334	-0.2025663618	-2.1899238374	 0.080854
H	 2.2195761984	-1.4963093898	-3.1935895007	 0.122571
H	 3.683047056	-1.3594275547	-2.1988494931	 0.12934
H	 2.7366995378	-2.8406626304	-2.1607274541	 0.123582
H	 3.2605585887	-1.9181217953	 0.4367075509	 0.069987
H	 0.3734534102	-2.6820098327	 0.625677538	 0.099245
H	 1.3751987138	-2.4413571637	 2.1027074612	 0.105199
H	 0.3419102812	-0.1314977059	 2.1970660044	 0.070061
143.3661	155.8304	198.7187	237.7037	257.6249	316.0303	392.1372	448.5399	459.0571	503.7204	584.015	689.7013	759.2166	810.3592	849.9117	879.3677	919.911	922.6566	940.1623	949.4124	1005.8793	1026.5711	1035.257	1065.1995	1074.818	1109.7732	1116.7036	1136.4062	1187.124	1208.8207	1250.1321	1284.0448	1299.2659	1313.5688	1344.0223	1364.7283	1368.9872	1402.0154	1412.9152	1477.9325	1484.3191	1488.5674	1493.4986	1505.9792	1725.1635	2989.9322	3011.2962	3031.3939	3056.5034	3061.44	3071.5364	3083.3678	3097.4581	3107.4725	3119.27	3135.0739	3147.4311
CC1C=C(C)C2CC1O2	C[C@H]1C=C(C)[C@@H]2C[C@H]1O2	
InChI=1S/C8H12O/c1-5-3-6(2)8-4-7(5)9-8/h3,5,7-8H,4H2,1-2H3	InChI=1S/C8H12O/c1-5-3-6(2)8-4-7(5)9-8/h3,5,7-8H,4H2,1-2H3/t5-,7+,8-/m0/s1
