17
gdb 130185	3.17765	1.55309	1.06623	2.2144	75.48	-0.1842	0.0362	0.2204	1091.2957	0.140717	-414.192509	-414.184853	-414.183909	-414.224392	29.742	
N	-0.0492522143	 1.3944375956	-0.1658975515	-0.596892
C	 0.046813132	 0.0067111741	-0.0407189657	 0.238263
N	-1.0417068731	-0.7674982371	-0.01274239	-0.312298
N	-0.5713435592	-2.0519648388	 0.0150648947	-0.350232
C	 0.7778511486	-2.0849154855	 0.0368004071	 0.357985
C	 1.2140571112	-0.7887487584	-0.0128113859	 0.171738
N	 2.6316521121	-0.6565939082	 0.0126204748	-0.426172
C	 3.093931469	-2.0475335737	 0.3069529293	-0.159153
C	 1.9189848783	-3.0534947945	 0.0117020939	-0.363189
H	 0.628243382	 1.8799694669	 0.4088169597	 0.24735
H	-0.9853950561	 1.7166024244	 0.0469000404	 0.247226
H	-1.2339421413	-2.7995063088	 0.1141386091	 0.265408
H	 2.9857047571	-0.3516841792	-0.8904121426	 0.22713
H	 4.0017118405	-2.2781526654	-0.2554213085	 0.10556
H	 3.3385430952	-2.1030807704	 1.3731562612	 0.119149
H	 1.8792186592	-3.8389990036	 0.7723079498	 0.114795
H	 2.0174763289	-3.5483496574	-0.9645338557	 0.113332
137.2238	172.1629	239.3703	261.5254	299.1048	322.441	396.343	510.8674	594.3525	626.6661	652.3252	694.2522	743.0859	781.7176	801.8987	837.4548	904.9345	931.5949	981.326	1058.112	1071.317	1098.7187	1173.8441	1184.6826	1238.5856	1251.341	1291.5951	1345.6082	1371.2051	1407.1817	1446.9655	1486.9552	1502.223	1546.9888	1574.2433	1625.5817	1647.8108	3006.6814	3042.0811	3075.7479	3105.927	3475.0873	3529.8665	3626.3272	3694.2673
NC1=NNC2=C1NCC2	Nc1n[nH]c2c1NCC2	
InChI=1S/C5H8N4/c6-5-4-3(8-9-5)1-2-7-4/h7H,1-2H2,(H3,6,8,9)	InChI=1S/C5H8N4/c6-5-4-3(8-9-5)1-2-7-4/h7H,1-2H2,(H3,6,8,9)
