16
gdb 115444	4.03026	1.06116	1.02928	2.7782	65.	-0.267	0.0058	0.2727	1175.0291	0.1245	-475.021604	-475.013208	-475.012264	-475.055368	30.026	
O	-0.3217443255	 1.4453135177	 0.4167374323	-0.414963
C	-0.0802114847	 0.0734447868	 0.1834818567	-0.097829
C	-1.3653129575	-0.6868662764	-0.1373126906	 0.207278
O	-2.2715972268	-0.7257612752	 0.944269636	-0.255407
C	-3.2734566163	 0.2460443787	 0.7116182323	-0.109705
C	-3.3641807954	 0.2481963055	-0.8251192041	-0.051493
O	-2.0233994334	-0.0022277902	-1.2145186914	-0.280109
C	-4.2788453638	-0.788127076	-1.3436901648	 0.280481
N	-5.0060993483	-1.5879525041	-1.7507326743	-0.312372
H	-0.6607560078	 1.8037966461	-0.4111685612	 0.290466
H	 0.6389765523	-0.0888545292	-0.6341935492	 0.102574
H	 0.3475616997	-0.3422878818	 1.1002119293	 0.130727
H	-1.1469633316	-1.7239866957	-0.4255828085	 0.103551
H	-4.1928031554	-0.0686490295	 1.2078607705	 0.141208
H	-2.9648012375	 1.2359162129	 1.0665541429	 0.125762
H	-3.6675109681	 1.2173481806	-1.2311220759	 0.13983
54.3706	103.489	142.3673	185.6626	256.5654	294.8729	344.6835	425.9807	480.539	562.1176	669.9885	773.3876	776.2332	843.6342	853.8607	891.2995	979.8914	1009.4982	1026.5781	1039.4994	1100.5351	1107.9284	1175.1326	1219.4265	1234.6065	1273.0749	1332.3414	1366.6887	1375.8299	1383.6852	1412.8419	1424.2782	1486.0248	1504.1886	2359.6624	2992.2295	3027.1794	3041.3952	3081.9878	3099.9069	3129.1678	3806.3598
OCC1OCC(O1)C#N	OC[C@H]1OC[C@@H](O1)C#N	
InChI=1S/C5H7NO3/c6-1-4-3-8-5(2-7)9-4/h4-5,7H,2-3H2	InChI=1S/C5H7NO3/c6-1-4-3-8-5(2-7)9-4/h4-5,7H,2-3H2/t4-,5-/m0/s1
