20
gdb 28448	2.98339	1.31836	0.93008	2.1275	91.02	-0.2336	-0.0112	0.2223	1299.6824	0.170951	-366.096157	-366.086889	-366.085944	-366.130345	34.165	
C	-0.0473928327	 1.5299751619	 0.000766145	-0.497365
C	-0.0207154992	 0.0235544214	 0.003460974	 0.268267
C	-0.0638726111	-0.7121263065	-1.177556953	-0.081103
N	-0.0431357981	-2.0458460232	-1.2353661939	-0.321397
C	 0.0232909899	-2.7361490426	-0.0937119836	 0.245897
C	 0.0439017853	-4.2384678888	-0.2152282412	-0.483389
C	 0.0719463425	-2.103426286	 1.1654017928	 0.252466
C	 0.1465678903	-2.9013141942	 2.4418185861	-0.500154
C	 0.0485270219	-0.7138640761	 1.187380616	-0.230887
H	 0.8498075199	 1.9484922098	 0.4707831865	 0.131351
H	-0.1027124962	 1.9208283016	-1.0189181592	 0.127021
H	-0.9101672289	 1.9175077922	 0.5543759696	 0.131351
H	-0.118488973	-0.1954036626	-2.1346132879	 0.09542
H	 0.9529042151	-4.6672276031	 0.2237523787	 0.124714
H	-0.8040546672	-4.6980436337	 0.3068765309	 0.124721
H	-0.0011130399	-4.515365366	-1.2690636912	 0.139109
H	 1.0389732811	-3.5375671228	 2.470021363	 0.132542
H	 0.1767344277	-2.2440793068	 3.3149089499	 0.120904
H	-0.7165823061	-3.5680124659	 2.5536014777	 0.132545
H	 0.0847999387	-0.1955816587	 2.14319322	 0.087988
55.5148	126.7312	140.2058	170.7482	210.6079	274.6278	300.8062	340.804	454.6361	459.4898	484.0178	557.6927	559.6578	724.4052	756.971	762.5384	910.172	956.5789	960.4237	1002.483	1013.2505	1038.7209	1044.0894	1068.1215	1077.143	1158.7934	1236.9979	1271.6157	1299.331	1318.8403	1404.1668	1413.9754	1418.6328	1431.3873	1467.9565	1478.7136	1482.3104	1484.5738	1494.2571	1497.7677	1513.6141	1601.3287	1646.3236	3025.8575	3026.3529	3029.1193	3072.9691	3076.5651	3081.9418	3111.7212	3111.8884	3135.7789	3145.2812	3150.3244
CC1=CN=C(C)C(C)=C1	Cc1cnc(C)c(C)c1	
InChI=1S/C8H11N/c1-6-4-7(2)8(3)9-5-6/h4-5H,1-3H3	InChI=1S/C8H11N/c1-6-4-7(2)8(3)9-5-6/h4-5H,1-3H3
