17
gdb 32684	3.72706	1.29712	1.01748	2.6181	75.77	-0.2216	0.0304	0.252	1156.7674	0.137564	-417.992602	-417.984706	-417.983762	-418.02577	28.651	
C	-0.0416881008	 1.327343733	 0.3302910284	-0.247702
O	-0.1451113075	 0.1343435619	-0.4270823888	-0.228487
C	-1.3010913546	-0.591413732	-0.132786972	-0.042663
C	-1.2923362312	-2.0145748694	-0.8102364698	-0.199424
N	-1.3383653726	-2.573273754	 0.5572960481	 0.01031
C	-1.5239864961	-3.5476644447	 1.5040439136	-0.172917
C	-1.6134180981	-2.8261365866	 2.6839799494	-0.092841
N	-1.5272518595	-1.4579751061	 2.4814375887	-0.377298
C	-1.3604005871	-1.377089661	 1.1815382366	 0.363966
H	 0.8879027003	 1.8154818263	 0.0309694341	 0.131443
H	-0.8848598011	 2.0053260999	 0.1280861551	 0.109041
H	-0.0120016433	 1.1156145063	 1.4075075548	 0.139645
H	-2.2043667092	 0.000306669	-0.34492299	 0.09113
H	-2.1675890847	-2.2557227813	-1.418014362	 0.132613
H	-0.3688975264	-2.234454673	-1.3493608603	 0.141347
H	-1.5501120376	-4.6035884688	 1.2968114752	 0.133337
H	-1.7308695405	-3.2293205998	 3.6791572988	 0.1085
73.2365	93.6214	136.6901	200.7112	244.3247	376.5575	441.9332	530.9008	625.7674	689.6923	726.3083	776.4614	804.2088	839.244	879.2915	942.021	1006.756	1056.6303	1072.7974	1113.4622	1137.4403	1148.6002	1167.3176	1184.7456	1227.726	1238.7215	1257.4511	1281.6436	1366.091	1398.3787	1435.9289	1464.2778	1483.5832	1488.8564	1505.2642	1509.6303	1563.9899	2986.0797	2994.7657	3049.7737	3069.3137	3127.9553	3133.633	3244.1775	3287.5278
COC1CN2C=CN=C12	CO[C@H]1Cn2ccnc12	
InChI=1S/C6H8N2O/c1-9-5-4-8-3-2-7-6(5)8/h2-3,5H,4H2,1H3	InChI=1S/C6H8N2O/c1-9-5-4-8-3-2-7-6(5)8/h2-3,5H,4H2,1H3/t5-/m0/s1
