25
gdb 122670	3.95797	0.71014	0.6812	0.836	89.92	-0.2424	0.0839	0.3263	1832.8043	0.229462	-389.509373	-389.499111	-389.498167	-389.546414	37.261	
C	 0.147268943	 1.135214276	 0.4431631088	-0.382194
C	 0.107623836	-0.3339085672	 0.016274475	-0.179541
C	 0.8030480919	-0.5730816074	-1.3179119056	-0.039262
O	 0.7111406052	-1.944563864	-1.6349629497	-0.266219
C	 1.2770906944	-2.3069573546	-2.889913735	 0.146174
C	 2.8241449485	-2.4368862723	-2.8199636713	-0.2221
C	 3.1244333009	-3.9519125708	-2.6313560556	-0.193895
C	 1.751240021	-4.6160595383	-2.4009451188	-0.191625
C	 0.7902003556	-3.7263166192	-3.2031147888	-0.219374
H	 1.1774396609	 1.4923825723	 0.5518058393	 0.115114
H	-0.3495175564	 1.7786696361	-0.2915729572	 0.115377
H	-0.3560957476	 1.2799126856	 1.4034556961	 0.116068
H	 0.5865706599	-0.9635758353	 0.7750405688	 0.104252
H	-0.9291964924	-0.6796812675	-0.0655542328	 0.104785
H	 0.3291769729	 0.0324730184	-2.1110968766	 0.079555
H	 1.8550164722	-0.2461662447	-1.2561254063	 0.081644
H	 0.9597321773	-1.5764487385	-3.6489502421	 0.052187
H	 3.2887198474	-2.0510876002	-3.7324681455	 0.0943
H	 3.2100199046	-1.8371068626	-1.9915828959	 0.1038
H	 3.586263235	-4.3571072839	-3.5383567069	 0.095521
H	 3.8226088	-4.1409228391	-1.811627788	 0.095021
H	 1.7290517724	-5.665661304	-2.7067425859	 0.087491
H	 1.480929449	-4.5708349952	-1.34100307	 0.111066
H	-0.2630807328	-3.8518584265	-2.9416368768	 0.101312
H	 0.9029935411	-3.9180565076	-4.2772922891	 0.090542
27.7068	61.8893	67.168	120.8702	161.0177	208.0798	229.1361	313.3162	335.6075	452.8975	466.6748	583.5205	714.9144	764.4732	788.354	846.4302	864.4884	897.5174	901.0059	907.584	909.2801	946.419	984.0947	1017.4734	1046.9815	1051.6926	1089.0338	1122.696	1148.8728	1191.8134	1193.9604	1207.2568	1223.7074	1254.032	1267.6831	1292.121	1312.5721	1316.0819	1331.9547	1341.5235	1349.9221	1356.6775	1383.1818	1412.5734	1442.4775	1473.8713	1478.9266	1491.6661	1492.7401	1499.9416	1507.6854	1511.7972	1528.2195	2942.8247	2970.5876	2986.4613	3031.0616	3037.4853	3038.2341	3040.8917	3052.0999	3058.9019	3070.3073	3082.7647	3097.3582	3098.6947	3105.1746	3107.0026	3110.6721
CCCOC1CCCC1	CCCOC1CCCC1	
InChI=1S/C8H16O/c1-2-7-9-8-5-3-4-6-8/h8H,2-7H2,1H3	InChI=1S/C8H16O/c1-2-7-9-8-5-3-4-6-8/h8H,2-7H2,1H3
