18
gdb 9612	3.15703	1.49833	1.20415	1.7414	74.91	-0.2566	0.0224	0.279	1066.8933	0.150347	-347.760741	-347.751582	-347.750638	-347.794385	33.491	
C	-0.4126344053	 1.3988418792	 0.090810532	-0.382362
C	 0.4104022727	 0.1275486008	-0.1549567804	-0.254212
C	 0.9469691153	-0.4841733448	 1.1269177254	 0.411311
C	 2.0373318732	 0.2817781684	 1.8469283761	-0.461543
O	-0.0523677611	-1.0481855338	 1.988541045	-0.282546
C	 0.8661732995	-1.9521356595	 1.3489936286	-0.230202
C	 0.3354399557	-2.8745462012	 0.3813834696	 0.339626
C	-0.0787076695	-3.6752848258	-0.414412085	-0.41925
H	 0.1901977021	 2.2025809516	 0.5250184517	 0.115491
H	-0.8314087682	 1.7721558202	-0.8481325717	 0.115244
H	-1.241228198	 1.1896855965	 0.7737038746	 0.135911
H	-0.2082809698	-0.6155640438	-0.665208356	 0.119314
H	 1.2560597156	 0.3468636252	-0.8189017839	 0.09864
H	 1.6903445967	 1.2824654167	 2.1223229395	 0.132481
H	 2.3334591857	-0.2350716708	 2.7628900116	 0.1284
H	 2.9181425835	 0.3949869229	 1.2062501228	 0.124383
H	 1.5955139408	-2.3902984405	 2.0313883364	 0.108381
H	-0.4519647687	-4.3781876012	-1.1177379762	 0.200934
63.6801	128.343	139.9205	190.2968	215.7913	254.2771	323.7693	359.6113	381.3025	453.2958	565.0566	592.7613	622.8596	666.0907	692.1623	780.5079	810.3704	901.9667	968.9208	1001.5628	1006.0447	1062.3244	1064.1766	1127.2187	1134.6434	1245.4076	1302.0297	1325.6492	1377.3762	1406.3476	1411.5262	1438.8522	1474.5356	1487.9547	1497.0332	1504.2738	1509.3965	2236.929	3033.2007	3040.4003	3042.9557	3089.6638	3098.6592	3106.4621	3112.6824	3119.5077	3124.4874	3502.4499
CCC1(C)OC1C#C	CC[C@@]1(C)O[C@H]1C#C	
InChI=1S/C7H10O/c1-4-6-7(3,5-2)8-6/h1,6H,5H2,2-3H3	InChI=1S/C7H10O/c1-4-6-7(3,5-2)8-6/h1,6H,5H2,2-3H3/t6-,7+/m0/s1
