17
gdb 34808	4.13357	1.29891	1.2264	5.7002	75.88	-0.2514	0.0329	0.2843	1037.4081	0.139496	-380.823389	-380.816711	-380.815767	-380.854328	27.381	
N	 0.0101117288	-1.1994504965	-0.0139778961	-0.332438
C	 0.0171193416	-0.043907599	 0.0159990654	 0.285296
C	-0.0414449338	 1.4067877006	-0.0159776775	-0.165865
C	-0.0825388203	 2.0842897924	 1.3904414164	-0.020004
N	 1.3813647886	 1.7279879497	 1.4637884485	-0.29835
C	 1.3519035092	 2.1116548588	 0.0052683372	-0.020007
C	 1.015050064	 3.6218821594	 0.0273777726	-0.053258
C	-0.3725654638	 4.1118447188	-0.3054346466	-0.305337
C	-0.0785553086	 3.6010200822	 1.0834209024	-0.053257
H	-0.7695817629	 1.7128983378	-0.7639662002	 0.116254
H	-0.7322221664	 1.7140551971	 2.1819926282	 0.094826
H	 1.9104537524	 2.3976058116	 2.024925287	 0.211089
H	 2.1727021515	 1.7694697958	-0.6231539417	 0.094826
H	 1.8419648991	 4.3225510796	 0.0474596893	 0.101524
H	-0.4742868983	 5.1902240857	-0.3894712311	 0.118609
H	-1.0223043812	 3.5783077203	-0.9888245282	 0.124567
H	-0.1010478699	 4.2854858656	 1.9237357146	 0.101524
155.2387	158.6999	332.7915	362.8733	444.5417	521.9773	535.206	574.1053	665.2424	781.9712	803.066	832.1616	866.6273	868.9876	909.3139	916.072	943.2558	989.1559	1016.8217	1033.8589	1045.8501	1086.2198	1091.2009	1101.3243	1128.3163	1129.4085	1190.5289	1196.1654	1226.6959	1260.1378	1278.334	1302.0185	1338.4242	1352.0058	1388.9877	1505.4188	2360.6399	3127.9361	3134.955	3135.3069	3140.8579	3172.8877	3180.8696	3208.6606	3436.6392
N#CC1C2NC1C1CC21	N#C[C@H]1[C@H]2N[C@@H]1[C@H]1C[C@@H]21	
InChI=1S/C7H8N2/c8-2-5-6-3-1-4(3)7(5)9-6/h3-7,9H,1H2	InChI=1S/C7H8N2/c8-2-5-6-3-1-4(3)7(5)9-6/h3-7,9H,1H2/t3-,4+,5+,6+,7-
