19
gdb 113451	4.90483	0.79002	0.74847	2.376	72.56	-0.2583	0.0581	0.3164	1522.8916	0.157206	-460.119756	-460.110467	-460.109523	-460.15452	34.384	
O	 0.0519706185	 1.2229424528	-0.6008579804	-0.41791
C	 0.0605818335	 0.0842481774	 0.2434813576	-0.080189
C	-1.3181497405	-0.5118895964	 0.3721629468	-0.073141
O	-1.8005271454	-1.161628092	-0.8268801894	-0.302429
C	-1.5663800106	-1.9523464066	 0.3357350689	 0.418078
C	-0.6210269609	-3.1591784845	 0.3035372498	-0.315592
C	-1.8480290919	-4.0635385433	 0.5816326111	 0.130805
O	-1.6053194499	-5.0184808732	 1.5859670635	-0.430425
C	-2.6850441296	-2.7962335222	 0.9538239953	-0.346786
H	-0.3280163148	 0.9374254997	-1.4397377991	 0.292647
H	 0.7600966405	-0.6833600988	-0.1198126484	 0.092555
H	 0.4150425348	 0.4273379334	 1.2217746791	 0.111675
H	-2.0607507533	 0.132894475	 0.8454922454	 0.095329
H	-0.0678974639	-3.3254334861	-0.6223049105	 0.116251
H	 0.0659764107	-3.1798515525	 1.1546310808	 0.121027
H	-2.2214242012	-4.5324106036	-0.3383650634	 0.078041
H	-2.4036852036	-5.542195808	 1.7073699316	 0.285376
H	-2.7470116073	-2.6771130494	 2.0397497357	 0.11226
H	-3.6757079354	-2.6843152115	 0.5077028356	 0.112428
47.2415	72.0861	126.2321	199.6831	278.6524	304.263	317.5762	354.7073	413.5718	444.2429	462.0374	493.8858	615.7171	732.5566	798.393	807.9448	883.3502	923.0004	956.389	998.0469	1006.6255	1047.9483	1069.539	1097.6994	1109.8999	1150.4175	1176.8701	1203.8023	1209.8712	1223.9426	1248.3086	1257.3572	1321.3317	1332.3411	1378.9867	1421.8729	1426.8846	1448.6959	1467.5115	1492.3255	1519.7057	2995.0028	3010.9537	3056.2151	3064.9834	3069.9522	3100.7739	3121.976	3129.1969	3798.1874	3816.8915
OCC1OC11CC(O)C1	OC[C@H]1O[C@]21C[C@@H](O)C2	
InChI=1S/C6H10O3/c7-3-5-6(9-5)1-4(8)2-6/h4-5,7-8H,1-3H2	InChI=1S/C6H10O3/c7-3-5-6(9-5)1-4(8)2-6/h4-5,7-8H,1-3H2/t4-,5-,6-/m1/s1
