18
gdb 22922	2.77126	1.31962	1.09468	1.417	75.88	-0.244	-0.0004	0.2436	1152.7064	0.146073	-439.010133	-439.001481	-439.000537	-439.043474	32.485	
C	-0.161675929	 1.4935352711	-0.1853316895	-0.493766
C	 0.0231078731	 0.0006336377	-0.0347973451	 0.185194
C	-1.1850346273	-0.8679168333	 0.4065471148	-0.114915
O	-0.4084366675	-1.5425878324	 1.4212184603	-0.290323
C	 0.7609409789	-0.7607454157	 1.1269178425	 0.069017
C	 1.7028854188	-1.4572276053	 0.1082616542	-0.34097
C	 0.9425404276	-0.7357731079	-0.9924786634	 0.373529
N	 1.0289609694	-0.6304028818	-2.2510032127	-0.248324
O	 2.0504522425	-1.4523072649	-2.7595811834	-0.388458
H	 0.8011194011	 2.0049066963	-0.2796172872	 0.124841
H	-0.7416642192	 1.7183422337	-1.0868133983	 0.137091
H	-0.6927232666	 1.9128638794	 0.67543609	 0.120143
H	-1.999567032	-0.2830784554	 0.8536199348	 0.102689
H	-1.5989512022	-1.5561612779	-0.3385521129	 0.112253
H	 1.1961319127	-0.2913614881	 2.0123054143	 0.081216
H	 2.7515029822	-1.1458236549	 0.16796688	 0.127903
H	 1.6556405162	-2.5488264973	 0.1079560821	 0.135615
H	 2.0122148113	-1.2642995632	-3.7035796707	 0.307267
71.103	152.8942	172.6677	204.7542	234.3538	307.2141	348.9777	396.8875	421.8424	488.3448	519.8673	644.2035	692.874	791.7493	834.4632	860.7939	920.4649	952.6495	984.8082	1000.2619	1016.5443	1039.4883	1106.9386	1119.8349	1143.4026	1161.1149	1177.8858	1216.1911	1247.7662	1283.6733	1318.9724	1363.3762	1407.6298	1411.3557	1438.9221	1487.6163	1492.5956	1521.3384	1777.7572	3009.6625	3033.1884	3050.7272	3068.2317	3085.3028	3101.58	3107.2709	3112.4892	3816.5203
CC12COC1CC2=NO	C[C@]12CO[C@H]1CC2=NO	
InChI=1S/C6H9NO2/c1-6-3-9-5(6)2-4(6)7-8/h5,8H,2-3H2,1H3	InChI=1S/C6H9NO2/c1-6-3-9-5(6)2-4(6)7-8/h5,8H,2-3H2,1H3/t5-,6+/m0/s1
