22
gdb 107687	2.93753	1.24881	1.04548	1.913	81.37	-0.2193	0.0731	0.2925	1235.3658	0.19613	-404.329496	-404.320824	-404.31988	-404.362672	34.103	
O	 0.2196085904	 1.3575626326	 0.2075233532	-0.415622
C	 0.0191140603	 0.0071160218	-0.1875498078	-0.12703
C	-1.4159337342	-0.4481905907	 0.0124358524	 0.285917
C	-1.7697790425	-1.1098213944	 1.3017064837	-0.295033
N	-1.5513069781	-1.9120298	 0.0984558936	-0.125499
C	-2.7236495367	-2.5826303473	-0.4976809568	-0.145589
C	-3.5200320607	-1.7327434541	-1.4946836096	-0.191148
C	-3.7869430707	-0.3338180849	-0.9337126357	-0.217461
C	-2.4527236169	 0.3922974625	-0.7243183853	-0.253312
H	 0.0253094956	 1.4141256521	 1.1490955891	 0.282032
H	 0.2756471845	-0.0287206521	-1.2527484485	 0.106226
H	 0.6936346446	-0.6830613727	 0.3387872363	 0.093703
H	-1.0275115861	-1.2301296833	 2.0900203061	 0.100742
H	-2.7907734971	-1.0031442537	 1.6653721851	 0.104305
H	-2.3633912833	-3.4917282755	-0.9929827557	 0.104299
H	-3.3876310256	-2.9114037642	 0.312160157	 0.098748
H	-2.9575845513	-1.6382359918	-2.4330769982	 0.100018
H	-4.4532181139	-2.2520965915	-1.7385719113	 0.095605
H	-4.4142052159	 0.2472555214	-1.6175916799	 0.097424
H	-4.3454912036	-0.4089461118	 0.0082568322	 0.095068
H	-2.5884138373	 1.3461497779	-0.2048519149	 0.104569
H	-2.0389821616	 0.6443645596	-1.7101713851	 0.102037
84.1844	120.2764	164.8553	268.2072	304.2758	325.8567	375.6139	387.5621	414.7365	466.0858	526.1411	607.7235	694.0504	768.2733	822.5709	856.7616	910.6416	914.9055	936.7647	943.4575	980.193	1002.7466	1061.3644	1071.1827	1085.5722	1109.1881	1126.7264	1153.104	1182.5531	1192.2334	1229.6694	1264.5737	1287.9285	1296.6387	1351.1112	1359.3198	1379.0555	1388.9063	1390.5471	1410.1788	1416.3189	1483.8445	1491.0286	1496.8178	1499.2161	1505.1399	1524.7544	3003.04	3015.456	3018.2037	3018.597	3027.3201	3051.5345	3064.7169	3070.871	3071.2764	3075.6143	3078.3972	3155.981	3807.0797
OCC12CN1CCCC2	OC[C@]12CN1CCCC2	
InChI=1S/C7H13NO/c9-6-7-3-1-2-4-8(7)5-7/h9H,1-6H2	InChI=1S/C7H13NO/c9-6-7-3-1-2-4-8(7)5-7/h9H,1-6H2/t7-,8?/m0/s1
