21
gdb 109304	2.30543	1.34963	1.05653	2.3221	80.96	-0.2235	0.0281	0.2517	1240.0042	0.180153	-424.233115	-424.223053	-424.222109	-424.268142	36.881	
C	 0.1147869214	 1.4821207034	-0.1466232207	-0.410131
C	-0.061832206	-0.0310938244	 0.058781691	 0.286107
C	-1.5522008606	-0.3993005442	 0.1391291077	-0.410101
O	 0.5057725945	-0.7070110429	-1.0795936923	-0.310644
C	 1.5587229741	-1.5799846917	-0.6832037675	-0.133393
C	 1.6496931955	-1.4342335268	 0.8058961466	-0.205503
C	 0.741940542	-0.5646285727	 1.2341462522	 0.282357
C	 0.4974640253	-0.1334890374	 2.6435347205	-0.18487
O	 1.3986087235	-0.8068230176	 3.5045198538	-0.41568
H	 1.1762112508	 1.7382663592	-0.2029629662	 0.118466
H	-0.3637682406	 1.7851440522	-1.082502009	 0.122423
H	-0.3399202577	 2.0539479724	 0.6692148187	 0.106183
H	-2.05091759	-0.1210466467	-0.7939062079	 0.122437
H	-1.6719655242	-1.4759916309	 0.2867666952	 0.118489
H	-2.0514995931	 0.123900343	 0.9614907674	 0.106193
H	 1.3277476279	-2.6119628379	-0.9932399508	 0.101003
H	 2.4936209812	-1.2965078898	-1.1931723044	 0.100984
H	 2.3572569309	-1.9672445689	 1.4258585095	 0.116768
H	 0.6166669016	 0.9614496298	 2.7185805022	 0.099494
H	-0.550581505	-0.3474231197	 2.9166361895	 0.099433
H	 1.2280893087	-0.5122864284	 4.4035299346	 0.289984
59.7323	78.846	181.286	185.3354	209.0166	241.6166	246.5014	258.2965	312.8437	337.4295	399.2323	487.9811	576.0923	597.1973	726.4024	780.929	825.0591	855.266	919.2732	947.8719	973.0352	1002.8549	1046.8939	1050.2487	1061.746	1093.1388	1147.3706	1179.6336	1188.684	1210.0364	1217.646	1257.8064	1260.7226	1328.7669	1377.2354	1392.1416	1411.989	1467.6031	1474.9105	1481.8986	1495.258	1501.3522	1509.6836	1527.5287	1737.5105	2947.2816	2960.4697	2967.9128	2980.6653	3033.4926	3039.1301	3104.0788	3111.0733	3118.4623	3121.1305	3235.7048	3836.9279
CC1(C)OCC=C1CO	CC1(C)OCC=C1CO	
InChI=1S/C7H12O2/c1-7(2)6(5-8)3-4-9-7/h3,8H,4-5H2,1-2H3	InChI=1S/C7H12O2/c1-7(2)6(5-8)3-4-9-7/h3,8H,4-5H2,1-2H3
