20
gdb 13421	3.16698	1.18947	1.08627	0.2271	84.96	-0.2227	0.0568	0.2795	1238.4522	0.174815	-311.844639	-311.834626	-311.833682	-311.881319	34.837	
C	 0.0960940211	 1.5248094805	-0.070349661	-0.498216
C	 0.0426850094	 0.0701476722	-0.0282380091	 0.040458
C	 0.0046578166	-1.1349591006	 0.0035532076	 0.106886
C	-0.0205738518	-2.5689178941	 0.0273294242	-0.224254
C	-0.4846915532	-3.3295266447	 1.2720631964	-0.01746
C	-0.8655323292	-2.6051291405	 2.5431503688	-0.407407
C	-1.345906691	-3.3350670764	 0.0360411594	-0.017543
C	-2.6732081013	-2.616692556	-0.0514829743	-0.407423
H	 1.1309739496	 1.8837027842	-0.107776711	 0.145961
H	-0.4227734366	 1.9231140829	-0.949869333	 0.144234
H	-0.3715931995	 1.9672691995	 0.8165260947	 0.144492
H	 0.7854118492	-3.0361721411	-0.5322530187	 0.101208
H	 0.0651131807	-4.2513162092	 1.4461568119	 0.084165
H	-1.3136592226	-1.6304337485	 2.3398632636	 0.129036
H	-1.57851988	-3.1934470258	 3.1314804024	 0.112992
H	 0.0185917676	-2.4322443003	 3.1660894054	 0.11844
H	-1.3147378339	-4.2601918881	-0.5344323776	 0.084184
H	-2.6396154008	-1.6358539994	 0.4270526457	 0.129023
H	-2.9550021711	-2.4575234179	-1.0978535766	 0.118279
H	-3.4686168533	-3.2021848467	 0.4229820713	 0.112946
9.6239	88.9706	97.6631	157.5164	165.6565	219.5413	226.6827	269.7946	360.0769	395.7146	474.3958	519.849	600.9625	734.8348	737.6013	788.0697	924.5893	933.6374	967.9361	1038.5971	1052.3698	1053.004	1073.9035	1080.8036	1133.3233	1152.2916	1188.4913	1190.6811	1264.4489	1374.3116	1375.2821	1415.1419	1418.6256	1422.7448	1434.6011	1478.1093	1480.4744	1484.8049	1492.2816	1499.8303	1511.0301	2361.2074	3022.2901	3033.0507	3036.429	3079.9069	3082.419	3089.9002	3091.4583	3114.9983	3123.5645	3131.6143	3133.1189	3146.6951
CC#CC1C(C)C1C	CC#C[C@H]1[C@@H](C)[C@H]1C	
InChI=1S/C8H12/c1-4-5-8-6(2)7(8)3/h6-8H,1-3H3	InChI=1S/C8H12/c1-4-5-8-6(2)7(8)3/h6-8H,1-3H3/t6-,7+,8-
