18
gdb 11124	6.33519	1.03506	0.96161	2.1374	68.76	-0.2427	-0.0303	0.2124	1228.9511	0.151763	-384.935917	-384.927235	-384.926291	-384.97031	30.259	
C	 0.3995082709	 1.3890449505	-0.0515680787	-0.38276
C	 0.1635837415	-0.1137693932	 0.1231030602	-0.188826
C	-1.2469759231	-0.5287438172	-0.25069041	 0.170653
C	-1.7174446687	-1.9470115596	 0.1449153233	-0.323779
C	-2.7886224725	-1.2088400336	 0.9642091268	 0.060574
O	-2.2503210593	 0.0834595742	 0.6181665488	-0.315837
C	-4.2212694125	-1.3330173678	 0.4801550589	 0.131104
O	-4.6968685387	-2.3347178592	 0.0122203995	-0.23594
H	 1.4113582254	 1.66859341	 0.2555619811	 0.114307
H	 0.271016055	 1.6915325187	-1.0966807945	 0.115256
H	-0.3114390646	 1.959159724	 0.5530470426	 0.137646
H	 0.8634274946	-0.6873459199	-0.499465271	 0.099882
H	 0.3511572827	-0.4062691022	 1.1638496168	 0.09868
H	-1.4548273672	-0.2672588702	-1.2977367574	 0.080554
H	-2.1126345474	-2.578283712	-0.6512634356	 0.131002
H	-0.9948837562	-2.510700834	 0.7371295004	 0.112896
H	-2.777335322	-1.3794452201	 2.051741096	 0.103299
H	-4.8051026378	-0.3911005784	 0.5879094827	 0.091291
36.8415	80.9089	109.1601	147.9488	224.3004	257.2476	319.7548	425.5997	470.4751	584.2902	720.3431	781.624	808.5437	897.9235	910.2854	935.2302	979.3468	1011.0348	1038.1037	1054.8575	1100.1462	1109.0304	1140.7617	1198.4158	1251.9764	1253.1485	1284.0158	1310.4328	1341.4127	1350.2293	1400.8121	1407.6796	1412.9929	1473.0528	1495.9073	1497.9552	1509.0071	1832.0895	2887.2359	2988.6469	3004.8046	3018.7517	3037.4841	3058.6249	3087.1324	3104.837	3120.0131	3145.819
CCC1CC(O1)C=O	CC[C@H]1C[C@@H](O1)C=O	
InChI=1S/C6H10O2/c1-2-5-3-6(4-7)8-5/h4-6H,2-3H2,1H3	InChI=1S/C6H10O2/c1-2-5-3-6(4-7)8-5/h4-6H,2-3H2,1H3/t5-,6+/m0/s1
