20
gdb 7488	3.71405	1.20449	1.10348	2.2258	70.63	-0.2434	0.0745	0.318	1161.5826	0.175765	-386.122417	-386.11327	-386.112326	-386.156596	33.101	
C	-0.0578636095	 1.7385948524	-0.2500017765	-0.436533
C	-0.0243177656	 0.2219448479	-0.1071997023	 0.429602
C	-1.3958956904	-0.3973653435	 0.169849352	-0.24087
C	-2.0457848113	 0.0692636786	 1.4764171747	-0.070756
O	-3.2586543148	-0.6183834998	 1.7494849867	-0.420972
C	 0.8121529229	-0.5233718434	-1.1825623354	-0.334207
C	 1.7400129611	-0.8972827716	-0.0121823666	-0.063457
O	 0.9290829403	-0.1710598469	 0.9312527044	-0.324041
H	 0.9398251922	 2.1209643258	-0.4833568266	 0.116283
H	-0.7403405122	 2.039034317	-1.0527512875	 0.116243
H	-0.3887396413	 2.2131260097	 0.6782531037	 0.130288
H	-2.0709634862	-0.1908752294	-0.6700663227	 0.102175
H	-1.2714971492	-1.4877627244	 0.2175178431	 0.082128
H	-1.324380036	-0.0369953888	 2.2990979612	 0.109684
H	-2.3222734781	 1.1261324169	 1.4156348054	 0.110075
H	-3.0407662264	-1.5426474431	 1.9062341692	 0.279553
H	 0.303448159	-1.3576014738	-1.6690376688	 0.106464
H	 1.2556984169	 0.1201916866	-1.944466545	 0.107041
H	 1.7938022927	-1.9662241968	 0.2292721767	 0.09954
H	 2.7609945359	-0.5000588335	-0.0649447456	 0.10176
62.3568	96.762	101.7199	172.9011	228.9424	292.4812	328.7582	341.1772	353.5506	428.2274	481.6025	705.9371	779.4507	787.1369	860.3621	888.2728	935.6845	966.6689	985.911	1006.7462	1032.6561	1052.4685	1074.3787	1124.0846	1163.0009	1168.8806	1209.2379	1222.8579	1266.2937	1280.7765	1312.8436	1343.39	1355.1527	1398.663	1410.4777	1422.9307	1471.1753	1486.5168	1490.3424	1501.131	1516.1144	1532.3294	3007.2775	3012.2876	3013.973	3036.3818	3049.9501	3057.6777	3075.2137	3088.4982	3107.8563	3117.077	3129.9266	3815.2915
CC1(CCO)CCO1	C[C@@]1(CCO)CCO1	
InChI=1S/C6H12O2/c1-6(2-4-7)3-5-8-6/h7H,2-5H2,1H3	InChI=1S/C6H12O2/c1-6(2-4-7)3-5-8-6/h7H,2-5H2,1H3/t6-/m1/s1
