17
gdb 46944	2.78396	1.86761	1.38507	3.1719	71.26	-0.2204	-0.0308	0.1896	936.1274	0.139102	-417.967296	-417.960525	-417.959581	-417.998466	27.4	
O	 0.0541487138	-0.0524013183	 0.0481001303	-0.319029
C	-0.0258498947	 1.1546756865	-0.0175278269	 0.392171
C	-1.3880342366	 1.8452196259	-0.1483412253	-0.300696
N	-1.3882758518	 3.2224671916	-0.6543859776	-0.292895
C	-0.216348357	 3.981988094	-0.2558987947	-0.03383
C	 0.1905854139	 3.8352302505	 1.2345455435	-0.165587
N	 1.4908119546	 3.1676004256	 0.8819602626	-0.146283
C	 1.1742308171	 3.3830936187	-0.5696727388	-0.06654
C	 1.2104302412	 2.0030406962	-0.0205745392	-0.120792
H	-2.0126463383	 1.2134547885	-0.7846441225	 0.136187
H	-1.8552205136	 1.8178951257	 0.846609306	 0.140495
H	-1.4611138031	 3.2174000931	-1.6663731766	 0.223999
H	-0.3316451198	 5.0173162486	-0.5824486272	 0.092006
H	 0.4164119383	 4.7937437235	 1.70509904	 0.124273
H	-0.4617911055	 3.2632645828	 1.8985287553	 0.11726
H	 1.9107388539	 3.7506162704	-1.2776915946	 0.101246
H	 2.1119092874	 1.4179242867	-0.1707562343	 0.118016
89.4819	234.3643	316.3961	372.2313	432.8333	476.5337	507.9645	568.2175	660.7274	722.6241	748.3432	770.1849	804.4135	871.6268	885.5146	937.5772	946.8257	1002.8989	1014.0802	1047.6743	1058.9568	1092.3951	1152.1066	1182.6524	1197.0595	1242.1796	1253.531	1267.0716	1286.7882	1319.8875	1336.7511	1375.5453	1389.6451	1459.2241	1479.1425	1505.5891	1793.5243	3009.5062	3072.9252	3089.2731	3103.5031	3126.469	3157.4129	3175.1529	3521.8159
O=C1CNC2CN3C2C13	O=C1CN[C@H]2CN3[C@H]2[C@H]13	
InChI=1S/C6H8N2O/c9-4-1-7-3-2-8-5(3)6(4)8/h3,5-7H,1-2H2	InChI=1S/C6H8N2O/c9-4-1-7-3-2-8-5(3)6(4)8/h3,5-7H,1-2H2/t3-,5+,6-,8?/m0/s1
