14
gdb 124105	3.70156	1.60402	1.15437	2.3669	62.9	-0.2382	-0.0179	0.2203	971.2618	0.103575	-473.801185	-473.794844	-473.7939	-473.832046	24.638	
C	 0.0246243326	 1.4249235393	 0.0009223115	-0.006011
O	 1.3168011163	 1.9437985434	-0.0290588651	-0.230038
C	 2.0494916992	 1.6872251168	 1.1742564569	-0.195472
C	 1.8770123994	 0.2380191893	 1.5118276002	 0.262206
N	 2.5764982735	-0.4894993246	 2.3439345658	-0.214771
O	 2.0235761302	-1.7631415598	 2.2693445053	-0.168649
C	 0.9963271178	-1.7665065615	 1.3912247237	-0.05151
C	 0.8535562738	-0.5176622401	 0.8778776846	 0.196898
O	-0.0029216569	-0.0084278056	-0.0385397832	-0.269739
H	-0.5133656414	 1.7556868377	 0.9047362948	 0.101514
H	-0.4855811516	 1.7574259027	-0.9026275381	 0.137005
H	 3.0907262777	 1.9409390781	 0.9653488583	 0.152981
H	 1.6911943275	 2.3355763057	 1.9875592088	 0.127821
H	 0.4922456617	-2.7058164815	 1.2395895065	 0.157764
125.3623	226.4558	346.5058	386.4854	421.5636	475.1502	587.2864	598.8837	689.2402	712.9055	785.2127	793.6984	917.3736	938.3741	961.557	994.0392	1025.7401	1098.3803	1131.1105	1151.7715	1234.5753	1258.9872	1292.2637	1319.7803	1370.0626	1433.1085	1450.9287	1487.0383	1508.4461	1546.0737	1682.9693	2970.4723	2999.7929	3112.9298	3143.5787	3286.0228
C1OCC2=NOC=C2O1	C1OCc2nocc2O1	
InChI=1S/C5H5NO3/c1-4-5(2-9-6-4)8-3-7-1/h2H,1,3H2	InChI=1S/C5H5NO3/c1-4-5(2-9-6-4)8-3-7-1/h2H,1,3H2
