19
gdb 58669	1.91672	1.4627	1.13738	0.9838	78.4	-0.2597	0.0185	0.2781	1205.5222	0.154744	-422.974918	-422.964579	-422.963635	-423.009989	37.87	
C	 0.12712829	 1.3279462026	-0.5843998003	-0.411114
C	 0.0790183739	 0.0350026468	 0.2299471018	 0.036843
O	 0.5188689233	 0.2150799991	 1.5665535353	-0.428846
C	-1.3239006482	-0.5815952273	 0.2154876123	 0.17447
O	-1.7689911484	-1.1079488075	-1.0474454159	-0.290575
C	-1.5730877043	-2.0319503964	 0.0288141023	 0.031475
C	-0.5090640791	-3.0866456205	-0.1228055728	-0.429332
C	-2.3018134732	 0.1911945218	 0.9545905708	 0.281163
C	-3.0697897083	 0.8615359153	 1.5938526697	-0.42627
H	 1.1377498302	 1.7433109507	-0.5585771624	 0.123158
H	-0.1536933398	 1.1362324221	-1.6241152746	 0.134446
H	-0.5658203493	 2.0712481239	-0.1754436111	 0.12085
H	 0.7732105075	-0.6863684458	-0.2066009926	 0.09471
H	-0.101000796	 0.818320602	 1.9951095558	 0.283126
H	-2.5106652939	-2.3975646923	 0.4515104376	 0.09904
H	 0.3965260977	-2.6973588542	-0.5902283086	 0.134753
H	-0.2497149563	-3.5045645536	 0.8551979356	 0.135904
H	-0.8871440675	-3.9017307538	-0.7486504365	 0.132999
H	-3.7689104084	 1.4388963471	 2.1476122234	 0.203199
59.6297	128.3891	135.5795	147.8679	190.4426	216.3621	251.4945	321.3047	353.7049	357.4312	388.4022	477.2495	503.1906	564.5119	599.4231	618.1635	675.3939	684.8117	797.1078	892.5853	930.8573	972.1667	1000.7087	1042.6758	1089.2216	1116.3086	1128.9658	1164.1473	1240.8941	1283.0996	1319.576	1363.8052	1399.0246	1406.8138	1419.0737	1451.9197	1485.1588	1490.616	1495.5697	1502.5395	2226.5225	3038.9077	3043.6963	3088.9087	3094.4691	3106.4847	3115.1409	3127.1844	3141.0573	3497.5408	3778.8739
CC(O)C1(OC1C)C#C	C[C@@H](O)[C@]1(O[C@H]1C)C#C	
InChI=1S/C7H10O2/c1-4-7(5(2)8)6(3)9-7/h1,5-6,8H,2-3H3	InChI=1S/C7H10O2/c1-4-7(5(2)8)6(3)9-7/h1,5-6,8H,2-3H3/t5-,6+,7-/m1/s1
