16
gdb 54670	2.76833	1.4518	0.96361	4.014	73.15	-0.2469	-0.0667	0.1803	1165.5805	0.123761	-437.958109	-437.949464	-437.94852	-437.992389	30.824	
C	 0.0108813533	 1.5036642227	 0.0103998152	-0.475828
C	 0.0314487152	-0.0052975257	 0.0029169261	 0.295617
O	 1.0640965397	-0.6443303918	-0.0092296947	-0.307029
C	-1.2797781395	-0.7248812794	 0.0117706993	 0.097045
C	-1.408095108	-2.0590004026	 0.0083851632	-0.14874
C	-2.854762578	-2.4560135363	 0.0194531845	-0.212689
N	-3.5188530519	-1.1749654742	 0.0297320102	-0.335625
C	-2.6509663761	-0.1066121024	 0.0255683941	 0.353753
O	-2.9610392769	 1.0675318193	 0.0318756813	-0.387044
H	 1.0352593437	 1.8771380435	 0.0026873651	 0.128868
H	-0.5474868397	 1.8801434369	-0.8522669913	 0.154877
H	-0.5311484257	 1.8717482786	 0.8870227793	 0.154752
H	-0.5917782963	-2.7687734684	-0.0009877188	 0.147112
H	-3.1106005185	-3.0592095296	-0.8644625945	 0.138057
H	-3.0953867363	-3.0654950536	 0.9033238464	 0.138049
H	-4.516083985	-1.0451207469	 0.0378885347	 0.258826
34.664	113.9559	133.1574	192.4971	194.8442	355.4818	373.6676	378.7486	429.3232	592.0382	594.1722	605.2267	734.5579	786.2132	800.921	856.29	945.2513	980.6138	1020.5867	1047.5506	1052.6579	1088.0183	1186.6952	1194.6726	1256.7382	1317.5079	1349.7824	1392.8651	1424.0065	1442.2134	1464.1993	1490.0453	1659.7517	1778.4143	1814.0539	2996.2231	3016.9028	3050.307	3111.7023	3159.7652	3236.7619	3671.8856
CC(=O)C1=CCNC1=O	CC(=O)C1=CCNC1=O	
InChI=1S/C6H7NO2/c1-4(8)5-2-3-7-6(5)9/h2H,3H2,1H3,(H,7,9)	InChI=1S/C6H7NO2/c1-4(8)5-2-3-7-6(5)9/h2H,3H2,1H3,(H,7,9)
