14
gdb 49872	2.30396	1.679	1.08514	2.4477	67.11	-0.2588	-0.0443	0.2145	1063.5298	0.101268	-470.039236	-470.031357	-470.030413	-470.072459	28.443	
N	-0.0629677561	 1.3073960558	 0.0174317973	-0.577648
C	-0.0069956801	 0.05118948	-0.0060369437	 0.480519
N	-1.1147527032	-0.7894620566	 0.0280202739	-0.376392
C	-0.7817489087	-2.124541776	-0.0155616279	 0.379864
N	-1.4680416291	-3.1900761188	-0.0165866698	-0.546548
C	 0.7438174935	-2.1079935051	-0.0272450477	-0.067539
O	 1.1078528238	-0.7348941582	-0.0825611684	-0.227966
C	 1.2829043374	-2.7918973473	 1.2334751956	 0.144437
O	 1.8969705301	-2.222082369	 2.0894980809	-0.219237
H	 0.8698108449	 1.7125998847	-0.0107637535	 0.240507
H	-2.047350446	-0.4150242759	 0.0849014821	 0.280795
H	-2.4716148569	-3.0103714844	 0.0184776439	 0.223667
H	 1.1293578314	-2.6345796961	-0.9082110187	 0.147711
H	 1.027702609	-3.870463063	 1.2767136559	 0.117832
63.9783	109.8121	124.2257	224.6834	295.4921	369.6903	480.054	505.2874	621.5449	630.6725	665.2583	711.5382	765.4939	811.3123	816.0886	853.232	954.2648	969.815	1030.5116	1060.3036	1104.3496	1141.8467	1230.5191	1286.8503	1339.4866	1359.6607	1393.5044	1422.2412	1770.3774	1814.3016	1852.9832	2933.8751	3052.4349	3480.8786	3536.4775	3668.6462
N=C1NC(=N)C(O1)C=O	[NH][C]1N[C]([NH])[C@@H](O1)C=O	
InChI=1S/C4H5N3O2/c5-3-2(1-8)9-4(6)7-3/h1-2H,(H3,5,6,7)	InChI=1S/C4H5N3O2/c5-3-2(1-8)9-4(6)7-3/h1-2H,(H3,5,6,7)/t2-/m0/s1
