15
gdb 42231	3.57234	1.16868	0.93444	5.3439	73.87	-0.268	-0.0632	0.2047	1203.7034	0.112491	-416.787303	-416.779394	-416.778449	-416.820429	28.603	
O	-0.107122638	 0.0249981699	 0.350236781	-0.318291
C	-0.1174405345	 1.1804898034	-0.0058247499	 0.292119
C	 1.1057516569	 2.0074594271	 0.0304538741	 0.238303
N	 2.0711996089	 2.6388403262	 0.1008190917	-0.3225
N	-1.1806626761	 1.8477059354	-0.5590857931	-0.092358
C	-1.8064634967	 3.0584628129	-0.0313135644	-0.046711
C	-2.6847512225	 3.6305954168	-1.1500816197	-0.237911
C	-3.4572037774	 2.2619142347	-1.1981974483	-0.243775
C	-2.5463631777	 1.7394956491	-0.0782125008	-0.034974
H	-1.3547837071	 3.5686469922	 0.8110605813	 0.13211
H	-3.3170038323	 4.4500001783	-0.804051256	 0.122461
H	-2.1522011335	 3.9356372503	-2.052528262	 0.127445
H	-4.4950367487	 2.3624338012	-0.8765746732	 0.122773
H	-3.4165423735	 1.6991702065	-2.1323742951	 0.126801
H	-2.7685378179	 1.0366397261	 0.7146591642	 0.134506
75.4576	105.3701	135.4921	222.9355	286.8242	321.435	395.0902	517.2823	587.2898	692.2491	749.8548	765.0937	784.9136	846.6414	889.5103	928.0068	956.9772	983.8653	1009.7593	1055.7117	1086.709	1130.9867	1181.2331	1220.159	1239.2014	1252.781	1291.6468	1306.9197	1428.9749	1469.2164	1489.2192	1773.5614	2346.806	3079.183	3085.1379	3131.7644	3147.1211	3195.5406	3212.0519
O=C(C#N)N1C2CCC12	O=C(C#N)N1[C@H]2CC[C@@H]12	
InChI=1S/C6H6N2O/c7-3-6(9)8-4-1-2-5(4)8/h4-5H,1-2H2	InChI=1S/C6H6N2O/c7-3-6(9)8-4-1-2-5(4)8/h4-5H,1-2H2/t4-,5+,8?
