19
gdb 110544	3.5539	1.35081	1.30071	1.8353	72.32	-0.2384	0.0848	0.3232	1065.0245	0.161159	-423.016163	-423.008915	-423.00797	-423.048041	29.019	
C	-0.1433927051	 1.582080606	 0.0210469164	-0.388144
C	 0.000514059	 0.0564358907	-0.0148092369	-0.195175
C	 0.7611973497	-0.5082889457	 1.1851038084	 0.012583
C	 0.9399775322	-2.024169132	 1.1959716787	-0.194701
C	 2.2560920788	-2.2499323046	 0.4566875774	 0.039418
O	 2.7719344673	-0.984428355	 0.0835958955	-0.24814
C	 2.2908628148	-0.241235494	 1.1991505501	 0.133871
O	 2.7400254475	-0.9698743536	 2.3370023151	-0.248357
C	 2.2364989256	-2.2408983503	 1.9641644302	 0.026688
H	 0.8312999945	 2.0807079267	-0.0051973222	 0.118271
H	-0.7186938911	 1.9429594755	-0.8368283278	 0.115321
H	-0.6592187934	 1.9116357066	 0.9299321521	 0.115127
H	-0.9965226423	-0.4000018718	-0.0447994485	 0.094541
H	 0.5112824284	-0.2515303282	-0.9332653519	 0.1139
H	 0.3287221183	-0.1530018531	 2.1266577114	 0.082247
H	 0.1216448136	-2.7303150392	 1.1886838988	 0.095971
H	 2.5132082973	-3.0689637265	-0.1977842009	 0.113358
H	 2.6834137998	 0.7713059558	 1.1988338032	 0.099232
H	 2.4778974249	-3.0522503173	 2.634228561	 0.113988
84.8373	162.2281	195.9536	270.1244	370.0219	509.0249	588.3026	607.3422	721.2857	744.5545	772.897	797.7653	803.0812	840.5568	885.8347	899.9995	935.6489	985.5718	1007.3791	1013.7406	1018.6693	1037.0823	1041.8321	1068.9447	1089.9867	1093.0595	1107.9336	1150.4678	1220.4799	1233.5296	1250.427	1282.9504	1302.4912	1341.571	1353.0697	1375.0189	1393.8685	1414.8229	1486.5959	1501.7716	1505.2591	3030.354	3032.4092	3054.9371	3075.7212	3101.3692	3105.1729	3181.3984	3216.8443	3233.2243	3243.2133
CCC1C2C3OC1OC23	CC[C@H]1[C@H]2[C@H]3O[C@@H]1O[C@@H]23	
InChI=1S/C7H10O2/c1-2-3-4-5-6(4)9-7(3)8-5/h3-7H,2H2,1H3	InChI=1S/C7H10O2/c1-2-3-4-5-6(4)9-7(3)8-5/h3-7H,2H2,1H3/t3-,4-,5+,6-,7+/m0/s1
