16
gdb 55582	4.90281	0.84133	0.72132	5.6592	71.17	-0.2591	-0.0222	0.2368	1514.6543	0.122983	-471.250635	-471.241064	-471.240119	-471.286435	32.718	
C	-0.3901577897	 1.3644655704	-0.6329002823	-0.445194
C	 0.1912492253	 0.0426775245	-0.2310224251	 0.405502
N	 1.4165931265	-0.2259542435	-0.2531705295	-0.482302
O	-0.8753551414	-0.7966351176	 0.1590228428	-0.30654
C	-0.6829511423	-2.0868857706	 0.5876637386	 0.542191
O	 0.3642749245	-2.6608023488	 0.689373433	-0.34384
N	-1.9383905989	-2.5891969266	 0.8775401953	-0.364429
C	-2.2720959625	-3.8582969957	 1.3474816983	 0.085916
N	-1.432893106	-4.7739396444	 1.5860919422	-0.39406
H	 0.4160042016	 2.0291193047	-0.940031239	 0.15549
H	-1.09839705	 1.236614819	-1.4577431313	 0.139543
H	-0.9392853341	 1.8110512598	 0.2022043409	 0.139634
H	 1.6024000732	-1.1782071616	 0.0587975131	 0.264495
H	-2.6970239174	-1.9444931006	 0.7245691363	 0.266478
H	-3.3590693348	-3.9337456801	 1.4742939539	 0.10265
H	-1.916674994	-5.6062265987	 1.918711733	 0.234466
49.4122	53.2455	103.6487	139.7347	167.2352	187.7589	260.6941	347.0763	397.0539	495.5112	540.3135	580.2439	621.1384	766.5161	789.8183	823.9403	876.8475	962.2581	967.9654	1009.0318	1063.7122	1078.2679	1081.7605	1128.5563	1183.3364	1257.9888	1315.9858	1406.3951	1431.0407	1474.5621	1477.2689	1543.155	1738.9836	1764.0965	1866.9572	3042.1167	3048.6019	3106.3023	3170.2216	3504.9944	3509.2039	3650.2273
CC(=N)OC(=O)NC=N	C[C]([NH])OC(=O)NC=N	
InChI=1S/C4H7N3O2/c1-3(6)9-4(8)7-2-5/h2,6H,1H3,(H2,5,7,8)	InChI=1S/C4H7N3O2/c1-3(6)9-4(8)7-2-5/h2,6H,1H3,(H2,5,7,8)
