17
gdb 103037	2.44635	1.63966	1.147	1.1281	74.6	-0.2456	0.03	0.2756	1072.3824	0.134138	-421.703284	-421.694988	-421.694044	-421.736076	32.084	
O	 0.0608722747	 1.4596561706	 0.02784586	-0.415495
C	 0.0618293019	 0.0549594733	 0.1852176129	-0.156984
C	-1.351185824	-0.5325948124	 0.0389108552	 0.114638
C	-2.2178146327	 0.0632665173	 1.0455907329	 0.271429
C	-2.8297835942	 0.6350059591	 1.9100266428	-0.432958
C	-2.0116897902	-0.7314125876	-1.3721522022	 0.026224
C	-1.0525154547	-1.9025902162	-1.6846372628	-0.247099
C	-1.5947392959	-2.058636292	-0.2448385146	 0.003557
O	-2.936556965	-1.7122968882	-0.7589168639	-0.299064
H	-0.5606939005	 1.8142729748	 0.6757686581	 0.287848
H	 0.7375171696	-0.3321645336	-0.5790557427	 0.112304
H	 0.4623445286	-0.2450512575	 1.1663196023	 0.098503
H	-3.4135289938	 1.1049356346	 2.662947712	 0.198326
H	-2.4377528766	 0.0261251654	-2.0286307309	 0.11005
H	-1.463006121	-2.6283244107	-2.3859059352	 0.118296
H	 0.0071599754	-1.7108140447	-1.853547688	 0.106165
H	-1.5207484718	-2.8948013423	 0.4506573238	 0.10426
89.1695	145.3098	155.1465	203.0494	306.911	394.766	431.8975	467.4079	503.3055	516.5809	634.5153	651.6257	656.8851	673.1484	764.1641	812.1925	879.2815	887.4	919.8929	975.0302	1023.6995	1040.2508	1080.6583	1088.0673	1132.4487	1157.5156	1166.5686	1189.5381	1204.1891	1238.9336	1273.7303	1302.9467	1378.6287	1431.9295	1490.7865	1510.5138	2223.4943	2983.1308	3085.5215	3113.9197	3121.6783	3134.9439	3164.2898	3499.0784	3775.849
OCC1(C#C)C2CC1O2	OC[C@@]1(C#C)[C@H]2C[C@@H]1O2	
InChI=1S/C7H8O2/c1-2-7(4-8)5-3-6(7)9-5/h1,5-6,8H,3-4H2	InChI=1S/C7H8O2/c1-2-7(4-8)5-3-6(7)9-5/h1,5-6,8H,3-4H2/t5-,6+,7+
