18
gdb 87180	2.98094	1.09932	1.04454	2.9325	68.8	-0.2525	0.0563	0.3087	1232.8888	0.145076	-476.246945	-476.237158	-476.236214	-476.281506	36.107	
C	-0.1073579747	 1.6516832492	-0.6087463519	-0.46269
C	-0.0580699831	 0.2235147104	-0.1301396176	 0.431837
C	 1.2054185274	-0.5945474678	-0.2375778165	-0.386036
C	 0.6753789921	-0.161603864	 1.1169300414	 0.066214
O	 1.3122821354	 0.8605037952	 1.8198699779	-0.416082
O	-1.2206877136	-0.541184618	-0.4284603907	-0.30675
C	-2.3341266224	-0.282651676	 0.3162884953	 0.470821
N	-3.3412883648	-1.1195443871	-0.0793439587	-0.560074
O	-2.4101256995	 0.5295323899	 1.2052353066	-0.38977
H	 0.8163518708	 2.1654629411	-0.3372902866	 0.132951
H	-0.2284682174	 1.6877462991	-1.696302127	 0.112364
H	-0.9401105395	 2.1771511199	-0.1361624604	 0.150503
H	 1.1095138298	-1.6382491535	-0.514389832	 0.11926
H	 2.0844057827	-0.085448454	-0.6181099837	 0.115764
H	 0.2053437771	-0.9297044313	 1.7293303127	 0.100011
H	 2.1441641689	 0.5131328806	 2.158157821	 0.289952
H	-3.2575120476	-1.5918391919	-0.9634398811	 0.263608
H	-4.2636164015	-0.8821341218	 0.2429702614	 0.268117
69.6899	92.6864	142.5256	197.4786	227.3171	259.969	286.8318	347.6916	360.4548	395.4283	447.8928	462.5228	506.5035	539.2285	651.2341	754.6072	784.1319	812.9636	869.7245	939.4382	949.4951	1018.2684	1033.9323	1051.8407	1102.3564	1111.3653	1138.3003	1184.27	1238.6098	1292.7385	1332.4988	1361.9194	1411.1927	1418.6684	1477.7857	1488.5156	1514.1884	1609.7649	1839.0815	3047.2011	3115.0616	3122.5412	3134.7304	3145.9551	3229.9484	3613.1916	3742.7056	3806.6066
CC1(CC1O)OC(N)=O	C[C@]1(C[C@H]1O)OC(=O)N	
InChI=1S/C5H9NO3/c1-5(2-3(5)7)9-4(6)8/h3,7H,2H2,1H3,(H2,6,8)	InChI=1S/C5H9NO3/c1-5(2-3(5)7)9-4(6)8/h3,7H,2H2,1H3,(H2,6,8)/t3-,5-/m1/s1
