16
gdb 78147	2.16428	1.86681	1.31955	2.9036	70.92	-0.2751	-0.0257	0.2493	1000.1767	0.125191	-437.93334	-437.92573	-437.924786	-437.965502	29.003	
C	-0.0802382626	 1.5605085633	 0.0326333592	-0.42602
C	 0.055661115	 0.0565024835	-0.0521731151	-0.022715
C	 0.6777696193	-0.6896358512	-1.2110095659	-0.140906
C	 1.3530352084	-0.7087356887	 0.1485852893	-0.218417
C	 2.6075701807	 0.0801902409	-0.0219588109	 0.438264
O	 3.5049511443	 0.2649773616	 0.7394572096	-0.318808
O	 2.6232610243	 0.6192681849	-1.3074500253	-0.228773
C	 1.5908727626	 0.0959328544	-2.081662916	 0.418041
N	 1.489054798	 0.2620894138	-3.323434373	-0.529456
H	 0.7782288935	 2.0856647736	-0.391891323	 0.145927
H	-0.9733478887	 1.8880041063	-0.5085868363	 0.135525
H	-0.1836251067	 1.8741948988	 1.0760195017	 0.134387
H	-0.7903568729	-0.4806023699	 0.3689039616	 0.115219
H	 0.1730475508	-1.5399630358	-1.6480645601	 0.129788
H	 1.3882562265	-1.5631336843	 0.8104505926	 0.130048
H	 2.2608815777	 0.8255181087	-3.6832148984	 0.237898
117.2647	139.6472	189.5985	211.0226	352.8371	374.5392	456.6107	498.9778	626.4159	637.2918	724.1557	743.9347	784.5062	839.9662	866.0361	906.2553	918.7721	936.5921	954.966	1028.7089	1070.0861	1073.5549	1108.6604	1133.1792	1161.0076	1215.1062	1310.0822	1329.6026	1348.3865	1418.2489	1431.1208	1495.2194	1501.8127	1791.0375	1911.6747	3045.0442	3108.1644	3125.4707	3149.7668	3212.8527	3220.2397	3484.1543
CC1C2C1C(=O)OC2=N	C[C@H]1[C@@H]2[C@H]1C(=O)O[C]2[NH]	
InChI=1S/C6H7NO2/c1-2-3-4(2)6(8)9-5(3)7/h2-4,7H,1H3	InChI=1S/C6H7NO2/c1-2-3-4(2)6(8)9-5(3)7/h2-4,7H,1H3/t2-,3+,4-/m0/s1
