21
gdb 63060	3.14982	1.66652	1.41078	1.5138	81.43	-0.2356	0.0875	0.3231	1012.4095	0.183405	-387.053824	-387.046138	-387.045194	-387.085302	31.936	
C	-0.0709489959	 1.5727658317	-0.0234429533	-0.461826
C	-0.0115350991	 0.0490636089	 0.0129695903	 0.330976
C	-1.3836539593	-0.5537866565	-0.302250534	-0.453798
C	 1.1637959651	-0.6456803717	-0.75221032	 0.036739
O	 2.312469219	 0.078799067	-0.2910308925	-0.269006
C	 2.2334840939	-0.325983749	 1.089743455	 0.063685
C	 2.5126398195	-1.8389431448	 0.9871397096	-0.2499
C	 1.1400190705	-1.8370791827	 0.2996432897	-0.074356
C	 0.6792477636	-0.6407524991	 1.2125665374	-0.097825
H	 0.9168611372	 2.0132976844	 0.1186772593	 0.130536
H	-0.464492217	 1.9261949045	-0.9839886212	 0.107876
H	-0.738181489	 1.9497210305	 0.7604961658	 0.106343
H	-1.720333614	-0.2384538186	-1.2965765623	 0.113684
H	-1.3869459301	-1.6464408406	-0.2797050992	 0.113633
H	-2.1309797746	-0.2069858286	 0.4201649053	 0.114999
H	 1.1875757937	-0.7743008232	-1.8344102548	 0.070398
H	 2.7821679315	 0.3609016668	 1.731706324	 0.077644
H	 3.4061124534	-2.1381697385	 0.4336323169	 0.100324
H	 2.46083481	-2.3468316905	 1.954259351	 0.098512
H	 0.5548169358	-2.7291600943	 0.0942553872	 0.076441
H	 0.241070986	-0.7567812455	 2.203543886	 0.064922
178.1032	201.7166	218.6562	248.0562	309.5658	358.9379	462.8566	502.1367	551.7788	599.6062	698.0992	763.0113	801.8915	825.2534	855.1769	882.0853	925.9986	932.4855	938.4325	954.3352	969.9967	993.313	1015.0338	1033.9021	1047.9266	1080.5308	1097.7612	1164.7593	1165.8388	1185.2917	1190.747	1216.8541	1222.528	1244.7342	1262.7843	1283.0565	1313.9554	1340.9821	1398.3633	1419.8579	1481.3365	1483.3808	1486.6976	1505.8507	1510.9187	3025.3815	3030.9436	3056.844	3080.3958	3086.6474	3113.745	3118.6615	3118.9886	3119.8722	3136.6471	3137.7751	3155.1496
CC1(C)C2OC3CC2C13	CC1(C)[C@H]2O[C@@H]3C[C@H]2[C@H]13	
InChI=1S/C8H12O/c1-8(2)6-4-3-5(6)9-7(4)8/h4-7H,3H2,1-2H3	InChI=1S/C8H12O/c1-8(2)6-4-3-5(6)9-7(4)8/h4-7H,3H2,1-2H3/t4-,5+,6-,7-/m0/s1
