19
gdb 115042	1.99574	1.4623	0.91973	1.8826	77.26	-0.2385	-0.0295	0.2091	1263.1644	0.158631	-423.036659	-423.02757	-423.026625	-423.071366	32.954	
O	-0.3747763097	 1.5302667866	 0.2399800063	-0.423422
C	-0.2145913971	 0.1491329674	 0.5276083562	-0.112819
C	-1.3864006779	-0.5804749546	-0.1146397702	 0.018647
C	-1.4649573508	-0.4566459676	-1.658800637	-0.255713
C	-2.101457272	-1.7615069876	-2.069051251	-0.063369
C	-2.1309751229	-2.6466265419	-1.0731728384	-0.095498
C	-1.4658582521	-2.1161506829	 0.1831389077	-0.154372
C	-0.0992158504	-2.7678949443	 0.3470152745	 0.159218
O	 0.2846052055	-3.3169238141	 1.3477503132	-0.254687
H	 0.362332635	 2.0083693724	 0.6308608635	 0.289324
H	 0.7396586178	-0.2285519976	 0.1248709411	 0.087972
H	-0.2070021457	-0.0376800204	 1.6130450744	 0.101089
H	-2.3007403485	-0.1414482426	 0.2991362694	 0.100725
H	-2.0379803334	 0.421602142	-1.9708877136	 0.119548
H	-0.4684355882	-0.3437370514	-2.1094538328	 0.109194
H	-2.4769407348	-1.9425120868	-3.070496436	 0.100647
H	-2.5172401166	-3.6576370388	-1.1342771045	 0.106073
H	-2.0225651814	-2.3243116333	 1.1018482475	 0.09202
H	 0.5420607031	-2.7168424144	-0.5635711402	 0.075425
52.1678	81.1944	114.2415	171.063	238.7033	274.913	296.6342	409.6842	431.7433	449.2747	478.4303	678.4523	742.871	792.7225	828.8677	920.9998	936.8935	970.9519	979.8174	989.4426	1030.7687	1075.0385	1082.7681	1091.0429	1124.906	1135.5449	1178.7765	1246.3069	1254.2003	1273.1276	1286.461	1309.0766	1322.9908	1358.5934	1379.9081	1420.9285	1463.9517	1487.3571	1521.3981	1677.6592	1823.9266	2858.4574	2963.6695	2995.1774	3009.389	3047.5308	3068.655	3079.3452	3184.0895	3209.7263	3831.1258
OCC1CC=CC1C=O	OC[C@H]1CC=C[C@H]1C=O	
InChI=1S/C7H10O2/c8-4-6-2-1-3-7(6)5-9/h1-2,4,6-7,9H,3,5H2	InChI=1S/C7H10O2/c8-4-6-2-1-3-7(6)5-9/h1-2,4,6-7,9H,3,5H2/t6-,7+/m0/s1
