19
gdb 117524	2.35046	1.05227	0.77945	1.1813	78.76	-0.2458	-0.0218	0.224	1495.8547	0.154269	-422.997743	-422.986796	-422.985852	-423.035306	37.431	
C	-0.1178657058	 1.4292417721	-0.0244582756	-0.228296
O	 0.0374386958	 0.0301421061	 0.0073728976	-0.235929
C	 0.5972413843	-0.4809651414	-1.1788011463	-0.055103
C	 0.6747910359	-2.006956349	-1.0388141882	-0.289478
C	-0.6434852226	-2.6278249308	-0.9553926556	 0.340468
C	-1.7294113955	-3.1422034147	-0.9258134201	-0.478133
C	 1.5188851592	-2.6300803238	-2.1791364448	 0.38122
C	 1.6517520582	-4.1373103209	-2.1788033085	-0.478401
O	 2.053672162	-1.9286078797	-3.0030882279	-0.289227
H	 0.8459774916	 1.9447637215	-0.1609488124	 0.105386
H	-0.7932447828	 1.7460755867	-0.8345191132	 0.107909
H	-0.5481758495	 1.7311443723	 0.9332930482	 0.128344
H	-0.0124147808	-0.215834103	-2.0557303056	 0.103948
H	 1.6078285997	-0.0832048331	-1.3485601471	 0.106431
H	 1.2150890569	-2.2211789299	-0.1035981762	 0.133506
H	-2.6923139465	-3.5876566814	-0.8793979746	 0.201381
H	 0.6734421816	-4.5954152265	-2.3516488773	 0.163162
H	 2.3504611304	-4.4423648526	-2.9581612429	 0.142896
H	 1.9980087279	-4.4926172219	-1.2021108195	 0.139917
26.7024	70.4456	91.8485	113.3745	130.1617	157.3691	216.1427	240.6561	313.0772	325.3837	415.9971	424.2546	540.8995	572.591	614.8712	627.8152	646.1465	804.6343	885.4196	941.7467	992.1598	1044.1843	1086.2064	1110.5451	1164.5995	1179.839	1188.6829	1233.8613	1245.7501	1265.0279	1326.3178	1384.304	1410.5557	1462.4633	1471.9792	1481.8246	1486.4023	1502.4929	1522.424	1815.9414	2234.3023	2970.7809	2990.5453	2998.6252	3017.1617	3031.9824	3046.8017	3112.424	3116.5736	3158.5216	3503.5851
COCC(C#C)C(C)=O	COC[C@@H](C#C)C(=O)C	
InChI=1S/C7H10O2/c1-4-7(5-9-3)6(2)8/h1,7H,5H2,2-3H3	InChI=1S/C7H10O2/c1-4-7(5-9-3)6(2)8/h1,7H,5H2,2-3H3/t7-/m1/s1
