19
gdb 113738	3.58363	0.88956	0.77438	2.9224	78.03	-0.2467	0.0067	0.2534	1487.9436	0.157591	-419.179169	-419.16928	-419.168335	-419.214504	35.318	
C	-0.532216947	 1.6277499946	-0.7476395321	-0.384959
C	-0.6080120179	 0.1178443789	-0.539594941	-0.115036
N	 0.4597876082	-0.5432401282	-1.2905538986	-0.080912
C	 1.7032903188	-0.8594931495	-0.6029077414	-0.253611
C	 0.7803420998	-1.9417279188	-1.0543687933	-0.01849
C	 0.0232070861	-2.7840846337	-0.0384507154	-0.042703
O	-1.2660526534	-3.1607095066	-0.4904797581	-0.411246
C	 0.833155281	-3.9691629102	 0.3195682565	 0.26458
N	 1.4665338648	-4.9043191461	 0.56394313	-0.313308
H	 0.415248216	 2.0276504812	-0.3719122134	 0.120176
H	-0.6045022185	 1.8728427796	-1.8106297766	 0.130494
H	-1.3462459138	 2.1291724973	-0.2156111133	 0.116334
H	-0.5657202519	-0.1010430785	 0.5407339114	 0.083953
H	-1.5612250012	-0.2750784948	-0.9079484002	 0.121855
H	 2.6256319216	-0.6633997863	-1.1418865437	 0.12799
H	 1.7546275433	-0.6725346241	 0.4704643575	 0.114393
H	 1.0292940158	-2.4980939374	-1.958846	 0.104611
H	-0.1489590568	-2.2122285722	 0.8773280938	 0.140349
H	-1.1660966347	-3.6559361752	-1.312330682	 0.295529
53.9426	88.8959	106.741	165.7487	211.8811	237.4996	249.527	294.5595	347.0512	366.0911	444.2799	511.3973	577.7252	616.3752	735.9911	813.6148	861.867	913.9036	947.4779	975.2325	1043.2848	1061.0719	1083.5458	1103.1928	1124.4181	1138.2721	1161.8417	1197.5683	1251.4651	1293.1426	1317.3991	1338.5852	1390.2339	1412.0196	1417.166	1419.1744	1488.2666	1489.5249	1505.2081	1516.9277	2353.6799	2954.988	3040.9533	3072.0652	3082.3028	3085.4382	3101.7809	3111.3607	3123.4705	3180.3427	3796.0295
CCN1CC1C(O)C#N	CCN1C[C@H]1[C@@H](O)C#N	
InChI=1S/C6H10N2O/c1-2-8-4-5(8)6(9)3-7/h5-6,9H,2,4H2,1H3	InChI=1S/C6H10N2O/c1-2-8-4-5(8)6(9)3-7/h5-6,9H,2,4H2,1H3/t5-,6-,8?/m0/s1
