20
gdb 41800	2.33777	1.98714	1.52171	2.2883	78.44	-0.2374	0.0259	0.2633	964.7323	0.17544	-403.17054	-403.163258	-403.162313	-403.202434	29.065	
C	 0.1188207423	 1.6292544469	 0.1913909338	-0.221578
C	 1.4886856995	 2.050843378	-0.4064366796	-0.206917
C	 2.2743424137	 0.731446594	-0.6218161198	 0.033135
C	 1.1551956484	-0.2616291593	-0.9689264801	-0.238572
C	 0.0525998981	 0.0808021186	 0.0474264463	-0.014496
C	 0.2676746342	-0.6458859844	 1.372725604	-0.078029
O	 1.3811099845	-0.2279790206	 2.1718183417	-0.232902
C	 2.6252791152	 0.0169329241	 1.672404165	 0.122965
N	 3.0632378093	 0.3872696987	 0.5503879303	-0.256603
H	 0.025034149	 1.926934989	 1.2393630163	 0.1103
H	-0.704088951	 2.1037572038	-0.3491099831	 0.099125
H	 1.3469834485	 2.5412972736	-1.3749516056	 0.097327
H	 2.0452437739	 2.7414462006	 0.2302439388	 0.108915
H	 2.9820926291	 0.8360322403	-1.4492226076	 0.073636
H	 0.8084013058	-0.0679820856	-1.9909499656	 0.094643
H	 1.4821795603	-1.3047232398	-0.9195414403	 0.097364
H	-0.9297766055	-0.2473647631	-0.309702333	 0.073845
H	-0.593937372	-0.4963519057	 2.0303019062	 0.11455
H	 0.3689637584	-1.7242541592	 1.1883193627	 0.10667
H	 3.3336534783	-0.1122872298	 2.4923737397	 0.116623
67.1529	159.8085	266.1098	304.1402	356.9473	410.2061	505.3629	562.6903	702.325	735.8986	776.4262	785.0647	817.3044	861.4786	891.5516	906.5677	936.8061	962.795	981.8522	998.5898	1023.8615	1047.2244	1087.4987	1116.5612	1146.0216	1195.5417	1208.9846	1223.8857	1248.6121	1288.9822	1298.1174	1320.557	1347.6028	1356.2526	1364.5206	1385.149	1420.6093	1440.7482	1482.1023	1486.9555	1500.9018	1507.763	1750.6064	3012.3839	3031.6294	3044.8062	3048.8766	3059.3348	3067.124	3082.7777	3089.1177	3095.6516	3115.8067	3123.5063
C1CC2CC1COC=N2	C1C[C@@H]2C[C@H]1COC=N2	
InChI=1S/C7H11NO/c1-2-7-3-6(1)4-9-5-8-7/h5-7H,1-4H2	InChI=1S/C7H11NO/c1-2-7-3-6(1)4-9-5-8-7/h5-7H,1-4H2/t6-,7+/m0/s1
