18
gdb 64521	2.96793	1.6301	1.40561	2.3792	74.7	-0.246	-0.0266	0.2194	978.6492	0.146819	-401.887488	-401.879612	-401.878668	-401.920024	30.303	
C	 0.0892044951	 1.6345897017	 0.1833994075	-0.478188
C	 0.0694741258	 0.1215943828	 0.0044609517	 0.254306
C	-1.3032231495	-0.4121903428	 0.3924413105	 0.134541
O	-2.0179896397	-1.060684947	-0.3264493548	-0.255977
C	 0.6327527846	-0.572667198	-1.2535619599	-0.109162
C	 2.0893324406	-0.0461334935	-1.3376347802	-0.269095
C	 2.3007581973	-0.7557238254	 0.0000866534	-0.043129
C	 1.1606363495	-1.665829119	-0.2456205175	-0.041791
N	 1.0511075584	-0.6600177782	 0.8510277807	-0.186899
H	 1.1024163206	 2.0346404269	 0.1142555143	 0.133898
H	-0.5313714131	 2.123761123	-0.5753029057	 0.130564
H	-0.3025610126	 1.9049566141	 1.1701195135	 0.130064
H	-1.6042610973	-0.1524418461	 1.4323342897	 0.086941
H	 0.0216049181	-0.7245325528	-2.1388227726	 0.091728
H	 2.6459781188	-0.5631470759	-2.1236299953	 0.112592
H	 2.2581082819	 1.0312090057	-1.4215169658	 0.098685
H	 3.2186706609	-0.9356583456	 0.543889102	 0.103957
H	 1.0074308906	-2.72869813	-0.1211525317	 0.106965
61.0717	157.608	191.8214	219.2722	312.0589	331.63	437.3896	483.3765	604.7569	673.1944	734.0362	778.4287	790.7205	839.6178	890.2942	907.8809	924.5388	936.6879	968.2062	990.9938	996.2602	1014.5113	1065.4519	1109.2743	1135.1491	1146.9404	1164.8106	1193.5531	1210.7043	1233.5421	1272.2326	1302.2455	1329.5031	1401.2781	1416.6529	1481.8435	1490.3112	1515.222	1831.2105	2883.1546	3036.7598	3056.7737	3100.2243	3107.7931	3132.0674	3160.8105	3203.7528	3220.3546
CC1(C=O)C2CC3C2N13	C[C@@]1(C=O)[C@H]2C[C@@H]3[C@H]2N13	
InChI=1S/C7H9NO/c1-7(3-9)4-2-5-6(4)8(5)7/h3-6H,2H2,1H3	InChI=1S/C7H9NO/c1-7(3-9)4-2-5-6(4)8(5)7/h3-6H,2H2,1H3/t4-,5+,6-,7+,8?/m0/s1
