15
gdb 51969	5.33716	0.70864	0.64512	4.8695	69.5	-0.2704	-0.0546	0.2158	1629.6009	0.109935	-453.957139	-453.947672	-453.946728	-453.99328	31.685	
N	-0.0543654532	 1.0772458041	-0.1520914334	-0.434471
C	-0.3056466199	-0.1199613492	 0.1385782728	 0.147301
O	-0.3517596996	-1.0462796434	-0.8555863226	-0.165132
C	-0.6835889108	-2.3575700255	-0.4891536353	-0.198097
C	-2.1633374208	-2.5316107754	-0.137358389	 0.370264
O	-2.8784524665	-1.6076173187	 0.1334077637	-0.24747
C	-2.6439382871	-3.9947287977	-0.1527298015	-0.460743
C	-3.9015782606	-4.2011879139	 0.5521734342	 0.292139
N	-4.891420177	-4.3825556532	 1.1174341522	-0.285343
H	-0.035782499	 1.6472295726	 0.6907015009	 0.236829
H	-0.4822356347	-0.5383959749	 1.1367754109	 0.094905
H	-0.4216394641	-2.998758839	-1.3371094913	 0.149324
H	-0.0943609465	-2.7124908623	 0.373277155	 0.138004
H	-2.7580190068	-4.2926982797	-1.2037198441	 0.19007
H	-1.8698183734	-4.649873154	 0.2647900376	 0.17242
35.9276	64.0559	68.6221	140.7331	154.2132	259.365	294.9643	362.2827	369.6801	427.194	451.3661	623.7654	731.8344	791.508	818.0332	894.6533	928.678	978.3576	1030.5681	1034.2115	1063.9262	1184.5331	1209.0561	1252.2119	1320.122	1331.3707	1390.5735	1420.3006	1436.0916	1467.0608	1754.9092	1849.5961	2378.006	2976.379	3033.8347	3046.11	3071.5414	3083.8933	3526.4912
N=COCC(=O)CC#N	[NH][CH]OCC(=O)CC#N	
InChI=1S/C5H6N2O2/c6-2-1-5(8)3-9-4-7/h4,7H,1,3H2	InChI=1S/C5H6N2O2/c6-2-1-5(8)3-9-4-7/h4,7H,1,3H2
