25
gdb 104400	2.33073	1.30427	1.13674	1.3487	87.58	-0.2598	0.0694	0.3291	1274.7438	0.228971	-389.512491	-389.502196	-389.501252	-389.547376	39.447	
C	 0.1110151463	 1.66828806	-0.1124308707	-0.39837
C	 0.1748181481	 0.1361452954	-0.1247042101	-0.219264
C	 0.6777679687	-0.5184461509	 1.1784374545	 0.299912
C	 2.1464525274	-0.1331409463	 1.4426184517	-0.442171
C	-0.2026855197	-0.1942001471	 2.4125464392	-0.224604
C	 0.0450053462	-1.3427649848	 3.4236713749	-0.207801
C	 0.6547075558	-2.509932152	 2.5972038814	-0.242923
C	 0.5650830958	-2.0644940758	 1.1252799513	 0.112479
O	-0.7119031052	-2.3886334087	 0.5752881318	-0.44948
H	 1.0945841234	 2.1283946555	 0.0259072695	 0.111449
H	-0.2882071528	 2.0385518743	-1.0621803058	 0.109427
H	-0.5437461827	 2.0380598519	 0.6834978098	 0.115426
H	-0.8188383003	-0.2617498289	-0.3445856288	 0.117243
H	 0.8217833472	-0.188660343	-0.9513332913	 0.08162
H	 2.2503513377	 0.9490483345	 1.560154991	 0.11687
H	 2.5393562856	-0.5937501747	 2.3537190893	 0.111244
H	 2.7896539833	-0.4412402884	 0.6105635697	 0.109153
H	 0.0211149479	 0.7877788851	 2.8391497206	 0.087202
H	-1.2531756935	-0.1858096552	 2.1067749059	 0.10479
H	 0.7332325282	-1.0328669268	 4.2153503725	 0.0975
H	-0.8828119322	-1.6379027489	 3.9200317899	 0.099507
H	 1.6966421835	-2.6929841526	 2.8770635578	 0.09949
H	 0.124465309	-3.4567417323	 2.7460597659	 0.082297
H	 1.3623639142	-2.5049340203	 0.5071629401	 0.049794
H	-0.8309568418	-3.3398250299	 0.65201096	 0.279211
69.9217	86.7157	138.2544	194.7654	211.5696	241.7639	280.1676	312.0418	333.8797	354.1852	379.2875	454.3433	481.8658	596.3293	702.7865	740.8915	785.3724	802.4572	859.6867	891.2772	907.8578	918.2853	962.7495	983.255	1014.6651	1034.8559	1046.7365	1056.9537	1099.5374	1138.1298	1167.5952	1180.2893	1234.5493	1248.0993	1250.4278	1263.2534	1294.6657	1322.5302	1329.6408	1346.529	1363.888	1372.4707	1406.8952	1412.851	1423.3398	1479.7065	1481.8715	1488.0008	1500.1294	1501.7479	1508.4887	1511.8578	1515.0836	2979.5274	3014.2594	3033.8005	3036.5438	3042.936	3049.5961	3060.04	3074.6251	3086.35	3088.6571	3099.3431	3100.158	3106.54	3109.2443	3114.2474	3826.4119
CCC1(C)CCCC1O	CC[C@@]1(C)CCC[C@H]1O	
InChI=1S/C8H16O/c1-3-8(2)6-4-5-7(8)9/h7,9H,3-6H2,1-2H3	InChI=1S/C8H16O/c1-3-8(2)6-4-5-7(8)9/h7,9H,3-6H2,1-2H3/t7-,8+/m1/s1
