14
gdb 42208	3.40181	1.24451	0.92168	4.3066	71.85	-0.2608	-0.0896	0.1711	1193.1826	0.099951	-436.664993	-436.6567	-436.655756	-436.699205	28.809	
O	 0.4679079676	 1.6745133169	 1.8851362025	-0.254023
C	 0.1386959706	 1.8597041038	 0.7371631007	 0.135164
C	 1.0524099303	 1.6796133688	-0.3721752483	 0.311034
C	 1.8493827401	 1.5162847079	-1.2587761055	-0.416594
C	-1.2609623941	 2.2954679584	 0.3796247356	 0.351823
N	-2.1856188774	 2.4993139355	 1.2239309302	-0.290178
C	-3.3648356282	 2.9037906346	 0.4445135928	-0.191361
C	-2.8929034525	 2.8811273102	-1.0341479348	-0.120288
O	-1.5067180747	 2.4700951526	-0.9439671914	-0.263196
H	 2.5504107744	 1.3731777009	-2.0451166637	 0.219682
H	-4.1876578413	 2.2082401248	 0.6386061796	 0.130948
H	-3.695636409	 3.8953967111	 0.7697729124	 0.130949
H	-3.4230770032	 2.1542088602	-1.6547310742	 0.128019
H	-2.9263598426	 3.8584608142	-1.522323386	 0.128021
36.1538	96.1513	123.084	171.2076	246.1092	261.6411	430.7056	484.5661	558.0325	658.0816	674.0853	719.0325	752.3666	805.6999	829.2121	904.1887	965.2714	984.6396	1007.633	1102.9386	1114.4042	1212.4656	1246.1792	1251.6092	1343.5903	1383.4271	1495.3599	1525.9166	1706.2414	1771.3377	2216.9787	3047.9624	3062.7206	3077.6135	3112.4657	3494.5049
O=C(C#C)C1=NCCO1	O=C(C#C)C1=NCCO1	
InChI=1S/C6H5NO2/c1-2-5(8)6-7-3-4-9-6/h1H,3-4H2	InChI=1S/C6H5NO2/c1-2-5(8)6-7-3-4-9-6/h1H,3-4H2
