19
gdb 54196	2.91076	1.30659	1.25202	2.4452	74.91	-0.2298	0.0306	0.2604	1101.7346	0.158923	-419.196283	-419.187193	-419.186249	-419.230234	34.346	
C	-0.0747796847	 1.5454607424	 0.1868579821	-0.455722
C	 0.0042062389	 0.0221439542	 0.0484365541	 0.220097
C	 1.0824899419	-0.5508781503	-0.9616075587	-0.296665
C	 1.7434264426	-1.268035488	 0.2184668137	-0.031672
N	 2.1325755577	-0.2123504233	 1.1849293358	-0.351139
C	 0.7428787238	-0.7264699687	 1.1735436691	-0.07767
C	-1.3926036331	-0.5651085594	-0.154787844	 0.34466
N	-1.9264886576	-0.3839955887	-1.3997056074	-0.52332
O	-1.9993605153	-1.1388041044	 0.7306127133	-0.367221
H	 0.9127955496	 1.9366266021	 0.4405114089	 0.146423
H	-0.4087113479	 2.0194209792	-0.7427152261	 0.101277
H	-0.7776466105	 1.8275430904	 0.9778977728	 0.127143
H	 0.6490383788	-1.2347600376	-1.6944987061	 0.108928
H	 1.7067553299	 0.1909107497	-1.4676467435	 0.10303
H	 2.2481225412	-2.2258637125	 0.2081562245	 0.09372
H	 2.6101759765	-0.6732027225	 1.9589432632	 0.229739
H	 0.2830399944	-1.1700436263	 2.0455138258	 0.109049
H	-1.4665000907	 0.1637036877	-2.1052800433	 0.259607
H	-2.8828850956	-0.6604067242	-1.5496091242	 0.259736
39.7605	159.2206	176.4816	194.696	236.9239	256.1403	296.0533	358.6975	419.6426	496.7553	550.9194	584.4421	629.7491	764.8268	777.3618	820.1761	842.7349	862.5009	904.3122	929.7195	957.4795	992.5615	1016.0889	1082.8823	1088.7611	1098.7788	1145.9397	1163.0463	1171.5581	1212.1507	1238.5834	1296.1075	1321.9095	1360.2164	1375.4931	1404.7093	1475.3751	1487.47	1503.4134	1614.837	1783.7418	3032.8358	3057.2436	3096.0481	3119.4768	3130.2312	3191.6452	3222.3121	3475.1936	3602.7855	3738.9809
CC1(CC2NC12)C(N)=O	C[C@]1(C[C@H]2N[C@@H]12)C(=O)N	
InChI=1S/C6H10N2O/c1-6(5(7)9)2-3-4(6)8-3/h3-4,8H,2H2,1H3,(H2,7,9)	InChI=1S/C6H10N2O/c1-6(5(7)9)2-3-4(6)8-3/h3-4,8H,2H2,1H3,(H2,7,9)/t3-,4-,6-/m1/s1
