14
gdb 123688	4.23432	1.62793	1.27782	4.6199	66.44	-0.2574	-0.0146	0.2428	914.9643	0.104476	-432.841675	-432.835712	-432.834768	-432.872084	23.438	
C	-0.0387112621	 1.4678246075	 0.0070737379	-0.206813
C	 1.4345302768	 1.8841874808	-0.0301789767	 0.047899
O	 2.1842046789	 1.4826831878	 1.1108611102	-0.237237
C	 2.2827702522	 0.6710686807	-0.0811381257	-0.166787
C	 1.347798524	-0.4727959684	-0.0581985741	 0.396354
C	 1.1726926609	-1.8354260551	-0.0360094169	-0.214408
N	-0.1664677413	-2.0894102035	 0.058217558	-0.188602
N	-0.8290756065	-0.958015189	 0.0998524809	-0.163495
N	 0.083240839	 0.0127764308	 0.0180742833	 0.052059
H	-0.551055295	 1.8250109099	 0.9038739389	 0.15974
H	-0.582170991	 1.8078697403	-0.8793725607	 0.145206
H	 1.71114384	 2.8335949374	-0.4787900837	 0.120637
H	 3.2590747241	 0.6272577797	-0.5485864383	 0.124428
H	 1.89488841	-2.633725159	-0.0765978332	 0.131017
151.556	214.8323	356.7635	431.4104	453.2309	621.2013	706.0292	716.5992	755.5061	795.6802	847.2521	859.694	865.3357	913.048	990.0738	1014.7976	1051.1541	1101.1676	1125.4005	1171.5113	1210.7225	1239.9208	1244.1697	1261.4924	1296.2473	1335.8735	1348.5561	1395.7398	1466.1701	1501.5069	1594.1458	3065.6099	3116.8395	3164.7458	3197.1234	3278.5117
C1C2OC2C2=CN=NN12	C1[C@H]2O[C@H]2c2cnnn12	
InChI=1S/C5H5N3O/c1-3-5-4(9-5)2-8(3)7-6-1/h1,4-5H,2H2	InChI=1S/C5H5N3O/c1-3-5-4(9-5)2-8(3)7-6-1/h1,4-5H,2H2/t4-,5+/m1/s1
