15
gdb 8024	3.4852	2.04853	1.55855	4.6781	61.57	-0.2379	0.0083	0.2462	827.2463	0.118784	-399.792159	-399.785086	-399.784142	-399.823262	26.679	
C	-0.0409653451	 1.5741786586	-0.0432720078	-0.480031
C	 0.038508367	 0.0698847399	 0.0372836105	 0.312765
C	-1.2303568187	-0.769383626	 0.3356782947	-0.111953
O	-0.5401482861	-1.5462671281	 1.3403392082	-0.283314
C	 0.6755923618	-0.7863555703	 1.1754257271	-0.106983
C	 1.5663203835	-1.4141093478	 0.066982709	 0.43685
O	 2.3836477049	-2.2872562731	-0.0127937657	-0.352919
N	 0.9790669596	-0.5875741972	-0.8797287931	-0.37559
H	 0.9591656637	 2.0160511046	-0.02817915	 0.134991
H	-0.535069865	 1.8901392653	-0.9696956901	 0.126994
H	-0.6166099294	 1.9788439121	 0.7941289666	 0.132391
H	-2.052287466	-0.1971806432	 0.7826784381	 0.108988
H	-1.6110067856	-1.3827573413	-0.4885299032	 0.107219
H	 1.1073546058	-0.4279107963	 2.1104791036	 0.103548
H	 0.9230642897	-0.7113882073	-1.8825303378	 0.247044
125.7938	205.5212	216.8807	272.9385	325.3591	405.4992	471.8833	506.5378	623.4015	692.9079	760.6553	817.9411	858.6289	920.6685	969.4785	981.6674	1000.3465	1022.1574	1120.287	1139.8083	1165.5623	1168.0558	1247.4636	1266.2444	1281.0043	1337.6277	1386.1123	1416.9379	1487.446	1493.2309	1509.2732	1898.8547	3021.2527	3034.1245	3075.5486	3098.7394	3116.2245	3122.1109	3576.056
CC12COC1C(=O)N2	C[C@]12CO[C@H]1C(=O)N2	
InChI=1S/C5H7NO2/c1-5-2-8-3(5)4(7)6-5/h3H,2H2,1H3,(H,6,7)	InChI=1S/C5H7NO2/c1-5-2-8-3(5)4(7)6-5/h3H,2H2,1H3,(H,6,7)/t3-,5-/m0/s1
