17
gdb 10739	2.52594	1.91314	1.56931	4.2259	67.75	-0.2803	0.0338	0.3141	916.9467	0.140321	-363.858962	-363.850318	-363.849373	-363.891834	31.305	
C	-0.0958723774	 1.453887839	-0.1857336769	-0.408582
C	 0.0284670067	-0.0665217017	 0.064087421	 0.04161
C	 0.7485634977	-0.3487571798	 1.4018149522	-0.412668
C	-1.3197871321	-0.6535476935	 0.1143362158	 0.289913
N	-2.3761817076	-1.1171905869	 0.1823376691	-0.354158
C	 0.8319621262	-0.6894199417	-1.0806445324	 0.098304
C	 0.5204715725	-1.9753043157	-1.7137161133	-0.198399
O	 0.2203656037	-0.7301455251	-2.359901735	-0.236773
H	 0.9013224398	 1.904535273	-0.2053503454	 0.1224
H	-0.5842870422	 1.644352966	-1.1437054143	 0.15509
H	-0.6760198809	 1.9322013541	 0.6073903675	 0.134752
H	 0.2052695741	 0.1043860367	 2.2345347787	 0.140296
H	 0.8318017253	-1.4226293925	 1.5874545231	 0.138344
H	 1.7553673949	 0.0792253398	 1.3753941934	 0.125773
H	 1.8699926008	-0.3490136172	-1.0866146259	 0.098291
H	 1.3219962524	-2.5536711278	-2.1698568163	 0.121351
H	-0.3469190939	-2.5425216768	-1.3843247912	 0.144458
80.6391	146.8449	191.0659	211.1953	233.0359	252.9069	314.9535	316.2198	420.8405	466.4643	587.0689	624.9258	665.3254	832.5213	879.8593	935.7875	951.4567	956.4626	1020.4728	1041.1947	1098.556	1164.8163	1166.6184	1178.7795	1212.804	1260.6379	1312.1414	1397.5237	1408.1904	1432.5199	1482.2599	1485.81	1498.4229	1509.4789	1526.2152	2356.1454	3044.0046	3046.8437	3084.6961	3097.2292	3118.7241	3121.8284	3130.7955	3138.9634	3190.4037
CC(C)(C#N)C1CO1	CC(C)(C#N)[C@H]1CO1	
InChI=1S/C6H9NO/c1-6(2,4-7)5-3-8-5/h5H,3H2,1-2H3	InChI=1S/C6H9NO/c1-6(2,4-7)5-3-8-5/h5H,3H2,1-2H3/t5-/m1/s1
