21
gdb 89490	2.69911	1.62707	1.41708	1.3012	77.6	-0.2366	0.0876	0.3242	1042.2722	0.183365	-424.243825	-424.235684	-424.23474	-424.275853	32.852	
C	-0.1647147663	 1.5242061312	-0.0563237045	-0.406858
C	 0.0344040793	 0.0194104944	 0.0055944326	 0.14278
O	 0.8508867662	-0.4378217395	-1.1023167838	-0.335807
C	 1.9478777504	-1.1867996731	-0.5362290507	 0.38321
C	 2.5970700913	-2.0246306113	-1.6111706786	-0.478341
C	 2.8450343703	-0.1627846475	 0.1824567317	-0.101158
O	 2.0511099771	 0.2385142214	 1.3176983358	-0.281512
C	 0.8283571001	-0.5056663693	 1.2173917188	 0.058554
C	 1.2915159279	-1.8653608044	 0.6822652289	-0.274514
H	 0.7781582917	 2.0460013675	 0.1208528277	 0.133097
H	-0.5521802853	 1.8106039913	-1.0379127051	 0.122155
H	-0.8865789259	 1.8443877958	 0.7029916527	 0.10915
H	-0.9419987181	-0.4857928736	-0.0509586175	 0.068867
H	 2.9959527348	-1.3882368784	-2.407177304	 0.128497
H	 3.4193457724	-2.6157453687	-1.1971101752	 0.118177
H	 1.8658943712	-2.7043631752	-2.056935675	 0.127909
H	 3.7953150681	-0.5894178342	 0.5301388272	 0.093231
H	 3.0485545846	 0.699299807	-0.462069889	 0.103848
H	 0.311334869	-0.4629292156	 2.1759167751	 0.079174
H	 0.4804875877	-2.5393266785	 0.3988194304	 0.105221
H	 1.9958966636	-2.367898639	 1.3482412925	 0.104319
146.555	206.6859	217.5288	232.7276	287.5302	294.3437	395.4998	443.4354	483.7224	515.6121	592.0878	635.2614	766.8719	813.9529	840.9094	863.7727	898.9234	918.0062	939.2248	962.5268	981.4049	1013.5388	1023.2223	1060.8328	1068.823	1137.658	1145.1568	1166.5998	1210.7375	1232.5086	1237.8699	1274.8356	1289.3424	1320.7453	1343.871	1385.9091	1392.6109	1406.244	1416.8143	1481.9928	1483.9471	1487.9579	1495.2694	1498.3414	1513.6809	2982.2967	3010.7603	3042.0897	3042.7762	3067.3799	3075.3293	3109.9237	3112.7163	3120.576	3125.7846	3135.7423	3137.2938
CC1OC2(C)COC1C2	C[C@H]1O[C@@]2(C)CO[C@@H]1C2	
InChI=1S/C7H12O2/c1-5-6-3-7(2,9-5)4-8-6/h5-6H,3-4H2,1-2H3	InChI=1S/C7H12O2/c1-5-6-3-7(2,9-5)4-8-6/h5-6H,3-4H2,1-2H3/t5-,6-,7-/m1/s1
