21
gdb 111865	2.01747	1.51135	1.23886	2.0973	77.88	-0.2444	0.0683	0.3127	1151.3046	0.183139	-424.214366	-424.205196	-424.204252	-424.248655	34.851	
O	 0.7254697587	-0.4870309086	 1.2704989201	-0.423229
C	 0.169727872	-0.1181583086	 0.0073467557	-0.122853
C	-1.2499049474	-0.6205360371	-0.0292985127	-0.075175
C	-1.9674132657	-1.2388855729	-1.2263394106	-0.118774
C	-1.1773229694	-1.7754872979	-2.4121547958	-0.221287
C	-0.1492437424	-2.7869358268	-1.8300447686	-0.226456
C	-0.6457998576	-3.1505343431	-0.4077366584	-0.282773
C	-1.6541787156	-2.075739344	-0.0157236338	 0.407517
O	-2.6900323077	-2.458090057	 0.8430491038	-0.474172
H	 1.6019007011	-0.0950202566	 1.3353382634	 0.283938
H	 0.1698268917	 0.9767270909	-0.1135042627	 0.087542
H	 0.7687568922	-0.5270389593	-0.8158140601	 0.089605
H	-1.9224829989	-0.0242352858	 0.5828833903	 0.090504
H	-2.9826141649	-0.8983550139	-1.39774011	 0.08894
H	-1.8742712493	-2.2838015032	-3.0877198046	 0.103859
H	-0.6894900813	-0.9904624256	-3.0006996062	 0.094868
H	-0.0621550988	-3.6744000444	-2.4629187992	 0.099205
H	 0.8499077066	-2.3460473615	-1.7898694976	 0.105798
H	-1.183793272	-4.1043807951	-0.408670669	 0.104727
H	 0.1782856232	-3.2361490887	 0.3078690716	 0.105248
H	-2.3411465345	-2.4461422006	 1.7411046545	 0.282968
38.636	118.199	156.9408	201.2854	249.1277	285.3276	303.791	377.1125	399.3662	484.5073	512.5587	577.768	668.8746	723.2476	773.6127	829.6436	866.2648	906.0094	914.5219	974.3881	1004.2531	1008.6893	1046.7059	1052.1795	1080.2926	1108.0228	1119.7606	1172.7334	1206.9848	1236.6227	1240.4964	1247.8091	1264.2696	1284.3973	1313.1326	1319.5929	1339.7416	1350.4535	1359.9887	1445.2162	1475.8788	1492.6696	1493.7929	1511.8869	1530.1677	2976.1504	3033.9234	3034.6437	3042.8746	3060.7546	3066.212	3080.2133	3102.7404	3136.2168	3172.2721	3797.3727	3818.3995
OCC1C2CCCC12O	OC[C@H]1[C@H]2CCC[C@@]12O	
InChI=1S/C7H12O2/c8-4-6-5-2-1-3-7(5,6)9/h5-6,8-9H,1-4H2	InChI=1S/C7H12O2/c8-4-6-5-2-1-3-7(5,6)9/h5-6,8-9H,1-4H2/t5-,6+,7+/m1/s1
