16
gdb 43112	2.71954	2.0958	1.58737	3.9427	67.55	-0.2427	-0.0095	0.2333	862.5272	0.127343	-437.876972	-437.870599	-437.869655	-437.907786	25.352	
O	-0.0432173499	 0.1065312992	 0.5012275746	-0.330657
C	-0.075594035	 1.2362013312	 0.1129818098	 0.410094
C	-1.1503211812	 2.3075117943	-0.1742420898	-0.053768
O	-1.3985432449	 2.9583885529	 1.1047841939	-0.305806
C	-0.2930921416	 3.8963824703	 0.9246967818	 0.114778
C	 0.910092098	 3.6196232037	 1.8435633342	-0.247975
C	 1.7824431608	 2.5653202188	 1.0847715977	-0.197749
N	 0.9745605189	 2.1789879943	-0.0848915931	-0.119017
C	 0.0326343607	 3.2644662423	-0.4382160915	-0.066888
H	-2.0552089531	 2.1350372412	-0.7543189749	 0.10347
H	-0.6622627474	 4.9239382324	 0.9640930871	 0.09203
H	 1.4701708528	 4.539696748	 2.0344637581	 0.110512
H	 0.5536753567	 3.2398805162	 2.8043593854	 0.135382
H	 2.7349987589	 2.9942090123	 0.7614631604	 0.116349
H	 1.9925706818	 1.6695071034	 1.672464889	 0.14299
H	 0.2450293445	 3.8362637595	-1.3380818728	 0.096257
119.1353	204.4566	261.8315	368.9665	477.3355	620.5966	670.5802	704.1531	736.7311	785.9343	819.5616	850.1819	887.7948	900.317	923.1598	938.9792	973.9084	1003.6106	1036.1216	1053.8004	1101.5497	1147.5613	1195.1021	1207.0649	1226.5164	1244.6255	1258.4223	1269.7151	1291.9497	1319.9685	1332.8131	1355.7217	1475.821	1507.8342	1895.9421	3058.9411	3066.2846	3085.266	3109.1693	3127.8944	3133.5452	3148.3533
O=C1C2OC3CCN1C23	O=C1[C@H]2O[C@H]3CCN1[C@@H]23	
InChI=1S/C6H7NO2/c8-6-5-4-3(9-5)1-2-7(4)6/h3-5H,1-2H2	InChI=1S/C6H7NO2/c8-6-5-4-3(9-5)1-2-7(4)6/h3-5H,1-2H2/t3-,4+,5-/m0/s1
