15
gdb 128030	5.25455	0.91036	0.77966	3.6029	74.23	-0.2269	-0.0233	0.2036	1403.991	0.113998	-446.283854	-446.275573	-446.274628	-446.31815	28.86	
C	-0.2021001454	 1.6427017856	-0.1054944046	-0.310762
N	 0.0894630656	 0.2265766027	-0.1105751871	-0.16912
C	-0.8688273509	-0.5647866779	 0.1019963605	 0.089648
N	-0.7651678689	-1.9473408138	 0.1317002224	-0.412463
C	 0.339277811	-2.7452401452	-0.0508309072	 0.52008
N	 0.2246479086	-4.0732537941	 0.019708071	-0.308633
N	 1.4853979452	-4.4321489001	-0.2087322144	-0.066537
N	 2.32178773	-3.4333356307	-0.405537463	-0.091732
N	 1.6096280616	-2.3360269387	-0.3091518832	-0.251317
H	 0.4083670941	 2.1414450201	 0.6561946101	 0.12951
H	 0.0778735071	 2.0796179262	-1.0710404324	 0.129515
H	-1.2619257234	 1.8810658454	 0.0887882387	 0.090341
H	-1.9056929532	-0.2475882371	 0.2896209889	 0.081398
H	-1.6128746966	-2.4592383185	 0.3134954727	 0.268266
H	 1.7802157451	-5.396401654	-0.2299852125	 0.301807
26.5605	119.8839	120.5603	203.0536	286.1822	306.5043	368.5703	386.7962	490.5219	542.8013	689.1194	723.4514	778.174	796.0792	973.7572	1022.8025	1032.4899	1068.9513	1140.9915	1147.3414	1147.832	1182.0635	1218.3589	1269.58	1355.064	1412.6179	1446.8852	1473.375	1478.2924	1503.5109	1521.5046	1626.7172	1778.9546	2956.4445	3001.5994	3055.7074	3075.8005	3654.6697	3655.8217
CN=CNC1=NNN=N1	CN=CNc1n[nH]nn1	
InChI=1S/C3H6N6/c1-4-2-5-3-6-8-9-7-3/h2H,1H3,(H2,4,5,6,7,8,9)	InChI=1S/C3H6N6/c1-4-2-5-3-6-8-9-7-3/h2H,1H3,(H2,4,5,6,7,8,9)
