19
gdb 72816	2.65016	1.68837	1.29109	4.4153	74.91	-0.2336	0.0517	0.2853	1034.2216	0.161325	-419.24344	-419.235277	-419.234333	-419.276412	31.217	
C	-0.118931654	 1.4809290333	 0.1701762042	-0.450588
C	-0.0180897153	-0.0201855817	-0.0552971392	 0.353133
C	 0.7680019705	-0.436120851	-1.3373318687	-0.295752
C	 1.9166984936	-0.892324604	-0.39646319	-0.177255
N	 1.0321377796	-0.6754823828	 0.7828782776	-0.162088
C	 0.4895319011	-1.830432655	 1.3764835898	 0.406489
O	 1.1138308771	-2.7375563009	 1.8778898502	-0.397973
N	-0.8848016529	-1.7347094415	 1.2731382223	-0.337438
C	-1.3375996029	-0.7681672051	 0.2902285967	-0.244535
H	 0.8447068728	 1.9697569213	-0.0013056419	 0.123223
H	-0.8528699502	 1.9228597912	-0.513578171	 0.117304
H	-0.4304784192	 1.6943585739	 1.1972679857	 0.129349
H	 0.30319864	-1.2629709284	-1.880442585	 0.110342
H	 0.9958313924	 0.3683099294	-2.0401668913	 0.107152
H	 2.2610932056	-1.9247738807	-0.4882712194	 0.132859
H	 2.7839761446	-0.2272299688	-0.381733103	 0.115428
H	-1.4404905634	-2.5198769793	 1.5677852861	 0.254394
H	-2.0833175564	-0.0830983168	 0.7105009251	 0.110017
H	-1.7821056229	-1.2438427631	-0.5953507082	 0.105939
54.8164	114.5342	227.1861	248.6698	295.1284	331.1989	363.7864	447.4398	520.3196	578.2951	650.0049	717.1506	773.3625	777.2365	796.6841	886.0594	938.1031	948.6043	980.1336	984.7489	1014.8078	1069.5149	1108.0429	1154.2316	1186.4893	1190.2525	1212.342	1223.9343	1254.3019	1274.4691	1305.9599	1315.3228	1357.5962	1410.3251	1439.8722	1482.5525	1486.274	1492.607	1519.0194	1537.2839	1836.3801	2996.762	3030.2202	3040.6837	3061.2035	3064.5374	3101.3968	3109.217	3113.3053	3126.1787	3664.9754
CC12CCN1C(=O)NC2	C[C@@]12CCN1C(=O)NC2	
InChI=1S/C6H10N2O/c1-6-2-3-8(6)5(9)7-4-6/h2-4H2,1H3,(H,7,9)	InChI=1S/C6H10N2O/c1-6-2-3-8(6)5(9)7-4-6/h2-4H2,1H3,(H,7,9)/t6-/m0/s1
