19
gdb 68669	2.69441	1.90689	1.53975	1.4147	79.75	-0.2298	0.0004	0.2302	950.8121	0.160515	-385.901225	-385.893914	-385.89297	-385.932263	30.547	
C	 0.0317096442	 1.5231359954	-0.0408585433	-0.472536
C	-0.0258612307	 0.0084767588	 0.0263918206	 0.298249
O	 0.5697190133	-0.5413746721	-1.1614891755	-0.279453
C	 0.1128640733	-1.8938062416	-1.1611116459	 0.013866
C	 0.9529755869	-2.6756235404	-0.1196536601	-0.267923
C	 1.1639423188	-1.8454532202	 1.1279325197	-0.06361
C	 0.7133322735	-0.5939068487	 1.2198183256	-0.071057
C	-1.3340973188	-1.7543267916	-0.7067319719	-0.086943
C	-1.4227784687	-0.6289183229	-0.0052519612	-0.111787
H	 1.0705061585	 1.8615044727	-0.0944153542	 0.128917
H	-0.4995877165	 1.8834690732	-0.9253633181	 0.12611
H	-0.4281417266	 1.9628195597	 0.8499793057	 0.113296
H	 0.2375801125	-2.3038806002	-2.1671974905	 0.077776
H	 0.4631143794	-3.6259186002	 0.1362470417	 0.104303
H	 1.924994809	-2.9403698207	-0.5558680194	 0.114894
H	 1.6894214066	-2.3128648324	 1.956836811	 0.089371
H	 0.8349847589	-0.0008967526	 2.1216281836	 0.08365
H	-2.1005593946	-2.5019529848	-0.8655910487	 0.100934
H	-2.273798319	-0.2447593516	 0.542423651	 0.101943
199.0753	211.7621	263.5313	315.6637	327.1607	407.5621	478.9207	506.468	587.6805	644.3528	682.6748	719.097	753.3199	832.6149	843.7569	881.0683	888.667	896.7577	928.3264	936.4036	974.5169	985.3685	1021.3717	1041.1682	1089.2199	1153.0717	1172.541	1188.3519	1195.3073	1249.5546	1291.1135	1319.7407	1348.1892	1360.5188	1400.4789	1406.3493	1458.6526	1481.2743	1494.2119	1660.9947	1696.5158	3009.7548	3041.136	3041.4802	3071.6354	3113.3643	3125.3898	3149.9926	3176.3153	3204.7209	3230.9484
CC12OC(CC=C1)C=C2	C[C@@]12O[C@@H](CC=C1)C=C2	
InChI=1S/C8H10O/c1-8-5-2-3-7(9-8)4-6-8/h2,4-7H,3H2,1H3	InChI=1S/C8H10O/c1-8-5-2-3-7(9-8)4-6-8/h2,4-7H,3H2,1H3/t7-,8+/m0/s1
