25
gdb 86190	1.84893	1.61538	1.02761	0.1911	96.08	-0.216	0.0371	0.253	1327.7967	0.227876	-352.394814	-352.384126	-352.383182	-352.430174	40.005	
C	 0.4525732186	 1.528867867	-0.1725336649	-0.396244
C	 0.0331322048	 0.0648034364	 0.0541499188	-0.047452
C	 0.4247915843	-0.8797365642	-1.114032471	-0.251022
C	 1.5997701985	-1.7543097524	-0.5994909663	-0.047455
C	 2.9595850504	-1.3821477915	-1.2185227128	-0.396243
C	 1.5536802562	-1.5499403949	 0.9061336983	 0.215651
C	 2.4056645327	-2.4000377221	 1.7999931651	-0.500702
C	 0.7098418063	-0.5701064139	 1.2582036617	 0.215639
C	 0.3993661905	-0.0702815735	 2.6370843423	-0.5007
H	 1.5339342649	 1.6079456452	-0.3296783573	 0.114969
H	-0.0477359928	 1.9432998485	-1.0543511184	 0.110105
H	 0.1919874877	 2.162003256	 0.6820572556	 0.109889
H	-1.0571026587	 0.0605256634	 0.1968385745	 0.062941
H	-0.4247093556	-1.5161127605	-1.379038865	 0.09463
H	 0.6953007849	-0.3224162775	-2.0167346106	 0.088332
H	 1.4172667289	-2.8125926453	-0.8355418911	 0.062941
H	 3.2043320541	-0.3316457947	-1.026603099	 0.11497
H	 3.7712725325	-1.9940665572	-0.8113258056	 0.109888
H	 2.9458067569	-1.5326476861	-2.3033385155	 0.110104
H	 3.4732828056	-2.2598511492	 1.5887513986	 0.125146
H	 2.2505087989	-2.1853501735	 2.8598144919	 0.11965
H	 2.1969423832	-3.466180368	 1.6399075826	 0.120084
H	 0.9150185465	-0.6354647271	 3.4168639055	 0.119652
H	 0.6802686098	 0.9839478753	 2.7544948209	 0.12515
H	-0.6784739792	-0.1266878303	 2.8393853316	 0.120078
60.4747	102.5405	131.9827	164.9189	202.6918	223.6711	252.0563	267.394	304.7792	337.4261	341.9421	427.9825	452.0352	562.729	626.3143	637.8074	706.1763	820.9226	830.6665	912.2287	924.7028	966.305	1007.0649	1018.6147	1030.811	1039.4245	1067.4745	1107.9976	1114.0338	1128.9419	1146.8859	1196.075	1229.9768	1252.999	1299.0078	1325.7494	1346.6556	1352.2643	1360.8588	1404.0283	1404.7196	1406.9086	1420.1427	1478.1189	1481.8663	1486.4312	1491.3779	1493.6649	1494.2594	1499.5441	1501.3607	1504.2621	1739.0458	2989.4545	2990.0931	3015.1161	3017.3859	3026.7715	3028.159	3047.5726	3058.3978	3058.7769	3084.2711	3095.4581	3096.866	3097.1676	3101.3245	3111.7759	3118.9682
CC1CC(C)C(C)=C1C	C[C@H]1C[C@@H](C)C(=C1C)C	
InChI=1S/C9H16/c1-6-5-7(2)9(4)8(6)3/h6-7H,5H2,1-4H3	InChI=1S/C9H16/c1-6-5-7(2)9(4)8(6)3/h6-7H,5H2,1-4H3/t6-,7+
