15
gdb 25827	4.25939	1.10139	0.87664	2.7995	73.23	-0.2034	-0.0141	0.1893	1244.0123	0.114885	-450.205512	-450.196958	-450.196013	-450.23885	31.216	
N	-0.0291836534	 1.2976161915	 0.0343399929	-0.536369
C	 0.0224237123	-0.0574031031	-0.0085290359	 0.3324
O	 1.0528832218	-0.7173299249	-0.049057886	-0.402652
C	-1.2990644858	-0.7081896643	-0.0036364893	 0.269287
N	-2.4912057553	-0.1514798944	 0.0426361844	-0.319348
C	-3.3841047421	-1.1912826468	 0.0425868137	-0.163217
C	-2.7132421274	-2.4004334451	-0.0140772744	 0.314434
N	-3.1483584209	-3.7221278182	-0.1177258476	-0.60946
N	-1.3866374033	-2.0740297268	-0.0464947947	-0.316294
H	 0.8275630976	 1.8225836078	 0.0203425381	 0.26193
H	-0.9214338047	 1.763077773	 0.0569506604	 0.276707
H	-4.4511304814	-1.0315546653	 0.0820821519	 0.102452
H	-4.1565398122	-3.7851184244	-0.0650294972	 0.257277
H	-2.7427258952	-4.337415952	 0.578962647	 0.253308
H	-0.5855340599	-2.6805082371	-0.1272721632	 0.279544
83.8632	138.0011	156.6244	186.9655	201.1329	319.338	347.8237	403.9613	539.6007	580.1346	606.1503	642.8502	666.6886	689.2771	719.6185	770.8902	795.6805	809.1258	1001.1432	1042.5444	1087.8693	1110.5593	1168.3203	1194.8848	1302.8823	1358.3124	1450.8934	1488.6499	1523.3085	1601.14	1623.2002	1659.2867	1768.0459	3244.5708	3520.8484	3602.8134	3621.3889	3652.2016	3747.9462
NC(=O)C1=NC=C(N)N1	NC(=O)c1ncc(N)[nH]1	
InChI=1S/C4H6N4O/c5-2-1-7-4(8-2)3(6)9/h1H,5H2,(H2,6,9)(H,7,8)	InChI=1S/C4H6N4O/c5-2-1-7-4(8-2)3(6)9/h1H,5H2,(H2,6,9)(H,7,8)
