19
gdb 70829	2.26059	1.73757	1.46864	0.4438	75.91	-0.2343	0.0727	0.307	1033.4279	0.155314	-422.942372	-422.933368	-422.932424	-422.975298	34.405	
C	 0.0908057558	 1.4260223794	-0.1626482513	-0.538615
C	 0.0269491691	-0.0588256259	-0.0371487405	 0.379866
O	 0.5916731174	-0.9091602379	-1.0834548271	-0.378839
C	 0.0850113098	-1.8931242183	-0.1285451992	 0.379867
C	 0.2419802867	-3.3511662134	-0.4007185881	-0.538614
C	 0.4301500503	-1.0241047423	 1.1208458859	-0.053345
O	-0.9081857633	-1.0946845882	 1.6870669143	-0.362978
C	-1.1751219468	-1.031491709	 0.2492507388	 0.327891
C	-2.5784771537	-1.0507482683	-0.2564675606	-0.541182
H	 1.1287256719	 1.7667549421	-0.2268102706	 0.136717
H	-0.4384813551	 1.763114788	-1.0593472205	 0.134229
H	-0.3752602058	 1.8868352409	 0.7137501213	 0.139572
H	 1.2990550893	-3.6173082845	-0.4969170028	 0.136734
H	-0.189710796	-3.9252150776	 0.4249621577	 0.139576
H	-0.2693070586	-3.630624337	-1.3271822396	 0.134209
H	 1.2904067405	-1.0302303933	 1.7906026545	 0.093968
H	-3.1449695203	-0.1991146697	 0.13303586	 0.135964
H	-2.5727255355	-0.9963469998	-1.3496418157	 0.13901
H	-3.0889668757	-1.9707035151	 0.0451760734	 0.135971
171.318	185.9301	196.0969	198.7436	203.142	212.838	260.9382	264.1297	434.5584	529.0626	559.7355	597.9266	689.2091	723.6534	744.4951	763.262	769.5603	801.6426	859.5454	924.2741	953.4327	1045.2858	1073.9411	1099.0119	1104.8654	1112.0916	1164.548	1204.4177	1249.4702	1274.7389	1324.4458	1389.5215	1404.8464	1405.8159	1463.9139	1473.9838	1475.7446	1476.273	1488.208	1488.9335	1496.017	3037.2251	3038.7172	3039.2331	3109.0725	3110.439	3110.6536	3114.9339	3116.9292	3117.0642	3121.0712
CC12OC3(C)C1OC23C	C[C@@]12O[C@@]3(C)[C@@H]1O[C@@]23C	
InChI=1S/C7H10O2/c1-5-4-6(2,9-5)7(5,3)8-4/h4H,1-3H3	InChI=1S/C7H10O2/c1-5-4-6(2,9-5)7(5,3)8-4/h4H,1-3H3/t4-,5-,6+,7+
