17
gdb 58858	2.64042	1.47569	1.08335	1.7757	68.76	-0.2493	-0.0342	0.2151	1118.1973	0.133473	-458.938786	-458.930055	-458.929111	-458.972314	32.448	
C	-0.0186365223	 1.5710045315	 0.2508238762	-0.412607
C	 0.0602564723	 0.057500956	 0.0281259648	-0.015767
O	 0.7298706466	-0.6171365285	 1.0790587047	-0.428868
C	-1.3132801714	-0.5296777069	-0.1584324408	 0.296004
O	-2.0663060487	-0.8228422116	 1.0521086468	-0.292391
C	-1.8702265384	-1.8794735031	 0.108377662	-0.054341
C	-2.9979800102	-1.7331062373	-0.9227705717	-0.370481
C	-2.3945376805	-0.3255296003	-1.224038943	 0.375986
O	-2.5879266627	 0.5039891966	-2.0609027556	-0.29693
H	 0.9865401149	 1.9783677237	 0.382548514	 0.126855
H	-0.4959456645	 2.0601314236	-0.6040721747	 0.141434
H	-0.6070945074	 1.7961558487	 1.1467650003	 0.123196
H	 0.6454251921	-0.1444720356	-0.8770503429	 0.106893
H	 0.1244785393	-0.6148942291	 1.8316726627	 0.289515
H	-1.3392566398	-2.7634328014	 0.4363063243	 0.132085
H	-2.9119229588	-2.3817078776	-1.7999202309	 0.138271
H	-4.0129284505	-1.7726685587	-0.5234480263	 0.141147
70.1446	120.7289	169.8887	185.5528	255.4972	294.4495	361.0826	394.1394	434.6776	498.5285	566.6902	581.3526	674.5316	701.9364	815.2265	869.0114	899.0187	919.5152	963.0174	986.42	1031.1464	1055.7764	1100.166	1120.2067	1139.9259	1166.0825	1213.0042	1246.2611	1302.3036	1344.7389	1401.3428	1413.5298	1436.6874	1450.6073	1491.3659	1499.5186	1894.9471	3037.5	3045.6906	3068.669	3111.6313	3129.9526	3133.2133	3216.6476	3775.3526
CC(O)C12OC1CC2=O	C[C@@H](O)[C@]12O[C@H]1CC2=O	
InChI=1S/C6H8O3/c1-3(7)6-4(8)2-5(6)9-6/h3,5,7H,2H2,1H3	InChI=1S/C6H8O3/c1-3(7)6-4(8)2-5(6)9-6/h3,5,7H,2H2,1H3/t3-,5+,6-/m1/s1
