17
gdb 54202	2.69868	1.50302	1.27207	4.6586	68.58	-0.2228	0.0249	0.2477	1034.9681	0.135697	-455.119851	-455.111444	-455.1105	-455.152795	32.637	
N	 0.146685603	 0.9831279664	 0.8614795427	-0.53237
C	 0.1311382613	 0.0164848192	-0.1032102972	 0.384879
O	 1.0896675208	-0.2713417097	-0.7892859348	-0.356402
C	-1.1989443567	-0.7365474378	-0.1960936031	 0.313941
O	-2.2425443937	 0.1858140647	 0.0847993912	-0.492585
C	-1.4364115097	-1.6041407584	-1.4785878426	-0.274847
C	-1.645078752	-2.8262886252	-0.5687855844	-0.062474
N	-0.3660422881	-3.0139902615	 0.1490338043	-0.301163
C	-1.3414100985	-2.0244500571	 0.6517858159	-0.144102
H	 0.9535461915	 1.58565027	 0.8913315851	 0.256244
H	-0.7327614753	 1.3339329999	 1.2032963311	 0.266248
H	-3.0599623841	-0.3142454083	 0.1906119661	 0.281278
H	-2.3367281273	-1.2716946116	-2.0003409579	 0.100494
H	-0.5907694628	-1.6719150423	-2.1627221431	 0.140055
H	-2.3329279903	-3.6514679461	-0.7044325775	 0.096035
H	-0.4610046447	-3.8419243353	 0.7376468845	 0.231945
H	-1.7282167833	-2.0696897069	 1.6640001597	 0.092823
61.4373	133.5885	201.6711	288.8679	320.1885	363.5143	392.9367	430.9864	450.3324	465.9622	539.2087	590.5092	653.1521	751.9976	783.3776	814.9129	837.2266	899.979	932.5059	964.827	990.1454	1024.5975	1055.5128	1076.5722	1104.3872	1124.7719	1155.9716	1196.0889	1223.6791	1272.446	1297.5659	1317.7521	1374.8505	1425.0524	1463.2686	1602.246	1808.7941	3078.4556	3152.8645	3173.4023	3194.6804	3467.9959	3590.2218	3723.6914	3792.0291
NC(=O)C1(O)CC2NC12	NC(=O)[C@@]1(O)C[C@H]2N[C@@H]12	
InChI=1S/C5H8N2O2/c6-4(8)5(9)1-2-3(5)7-2/h2-3,7,9H,1H2,(H2,6,8)	InChI=1S/C5H8N2O2/c6-4(8)5(9)1-2-3(5)7-2/h2-3,7,9H,1H2,(H2,6,8)/t2-,3-,5-/m1/s1
