15
gdb 46016	4.87717	1.03656	0.88085	3.599	76.24	-0.2353	-0.0304	0.2048	1242.2576	0.112183	-416.796336	-416.788054	-416.78711	-416.829922	30.327	
O	-0.0311885343	-0.0240104556	-0.3835137199	-0.299845
C	-0.017388879	 1.108848625	 0.0276267532	 0.379905
C	-1.3096990993	 1.8160437253	 0.4298979003	-0.274917
N	-1.0864244133	 3.2186690248	 0.7497858342	-0.359542
C	 0.1050723479	 3.5665739518	 1.3735966859	 0.205541
N	 1.2290334932	 2.9780230974	 1.1965521074	-0.301175
C	 1.2584865052	 1.9227225487	 0.1981304381	-0.274246
C	 0.0211933046	 4.7050467267	 2.2473068139	 0.253484
C	-0.0977531883	 5.6632760345	 2.9636345029	-0.365257
H	-2.0266015429	 1.7230154428	-0.3918451439	 0.147552
H	-1.7183762031	 1.2533095441	 1.2837866526	 0.14245
H	-1.8973709416	 3.7256955197	 1.0717589738	 0.253316
H	 2.0853395878	 1.2351299903	 0.3962368404	 0.141215
H	 1.4632537799	 2.3726739639	-0.7888978131	 0.144562
H	-0.1741703968	 6.5088811606	 3.6023757542	 0.206955
41.3061	118.27	156.1287	159.8213	360.1732	417.3183	425.0954	448.2411	506.2836	563.6771	605.0877	639.971	668.7135	680.3058	729.4491	746.143	821.9325	951.234	1024.6217	1064.1532	1132.5069	1181.5139	1214.63	1254.1583	1264.4757	1294.5789	1347.4049	1441.7858	1464.2629	1519.5824	1696.4864	1830.4675	2238.1491	2970.2547	2988.6885	3079.1065	3089.7732	3499.2261	3607.6456
O=C1CNC(=NC1)C#C	O=C1CNC(=NC1)C#C	
InChI=1S/C6H6N2O/c1-2-6-7-3-5(9)4-8-6/h1H,3-4H2,(H,7,8)	InChI=1S/C6H6N2O/c1-2-6-7-3-5(9)4-8-6/h1H,3-4H2,(H,7,8)
