16
gdb 6679	5.49998	0.86136	0.81338	5.6204	62.5	-0.2379	-0.0208	0.2171	1363.2774	0.128451	-417.084419	-417.074967	-417.074022	-417.120236	31.503	
N	-0.3042432675	 1.1363964269	-0.4449846133	-0.517097
C	-0.1120977991	-0.1887036368	-0.2029834416	 0.400341
O	 0.68111835	-0.8703880509	-0.8243851651	-0.36066
C	-0.9458059713	-0.7785221576	 0.9512500759	-0.273614
N	-0.9663883936	-2.2277491466	 0.9657453684	-0.28391
C	-1.7986665695	-2.8212582705	-0.0754612943	-0.23082
C	-1.9864220206	-4.3089109072	 0.1736066372	 0.150359
O	-2.2698844864	-5.109096972	-0.6783556782	-0.238278
H	 0.2621923793	 1.5891786895	-1.1438231777	 0.265862
H	-0.951836039	 1.6920290223	 0.0858392854	 0.262198
H	-0.506618672	-0.4124199268	 1.8896971431	 0.130699
H	-1.9728591871	-0.3957404225	 0.9166471777	 0.114275
H	-0.0080737454	-2.5369809742	 0.8211437778	 0.234819
H	-2.8026642999	-2.3742120416	-0.0119300334	 0.127463
H	-1.4418623114	-2.6712978858	-1.1044851129	 0.134482
H	-1.8541422565	-4.5998687861	 1.2407074514	 0.083881
48.9747	57.3395	76.8895	97.2446	149.0231	239.4777	258.1229	339.4643	486.2857	494.3093	520.0638	634.2646	656.9777	719.7629	786.1023	859.9729	969.2402	1021.0136	1072.538	1083.4377	1133.7346	1181.8784	1224.1765	1292.8708	1306.4378	1342.1777	1389.894	1404.8363	1461.0137	1469.8958	1528.2141	1619.3865	1796.1311	1840.6025	2880.1101	2995.1212	3013.8152	3035.35	3063.2235	3499.9855	3599.593	3734.6109
NC(=O)CNCC=O	NC(=O)CNCC=O	
InChI=1S/C4H8N2O2/c5-4(8)3-6-1-2-7/h2,6H,1,3H2,(H2,5,8)	InChI=1S/C4H8N2O2/c5-4(8)3-6-1-2-7/h2,6H,1,3H2,(H2,5,8)
