12
gdb 27403	2.09037	2.02587	1.02881	4.7422	60.76	-0.2515	-0.0178	0.2337	1036.7128	0.079132	-505.991552	-505.984516	-505.983571	-506.023339	26.391	
O	-0.1364917373	 1.2720829342	 0.02347112	-0.380452
C	 0.0534453199	-0.0400376849	-0.0270481914	 0.49375
N	 1.1719683028	-0.6118162616	 0.1059790217	-0.374133
C	 1.2084435347	-2.0187026219	 0.0267799187	 0.373664
N	 2.3213930561	-2.6158150062	 0.1575034997	-0.504146
N	-0.0120798014	-2.7054208705	-0.1973224501	-0.36156
C	-1.0636308758	-2.0214965256	-0.3135520972	 0.497568
O	-2.2590848374	-2.5546556171	-0.5246358168	-0.381922
O	-1.1516544651	-0.6446798543	-0.2438253253	-0.242664
H	 0.7349878117	 1.6659867234	 0.1776384691	 0.328924
H	 2.1590699638	-3.6202154101	 0.0727495483	 0.228421
H	-2.914398572	-1.8460403553	-0.5801828969	 0.322551
101.619	187.8001	212.452	356.0486	385.1429	434.2162	546.879	555.903	559.9381	610.644	671.2148	710.3398	720.6315	781.7296	916.316	917.4555	979.1081	997.835	1123.2142	1240.4394	1268.5622	1308.8475	1377.8849	1457.7951	1709.4893	1726.2461	1831.8065	3486.2568	3769.834	3789.0939
OC1=NC(=N)N=C(O)O1	OC1=N[C@H]([NH])N=C(O)O1	
InChI=1S/C3H3N3O3/c4-1-5-2(7)9-3(8)6-1/h(H3,4,5,6,7,8)	InChI=1S/C3H4N3O3/c4-1-5-2(7)9-3(8)6-1/h1,4H,(H,5,7)(H,6,8)
