27
gdb 101436	2.64554	0.96714	0.82237	0.0512	95.96	-0.2755	0.0786	0.3541	1591.2484	0.251256	-353.560952	-353.550028	-353.549084	-353.596784	41.183	
C	 0.2078690558	 1.3890404214	 1.0765645886	-0.391655
C	 0.0033455167	-0.1194502194	 0.9010867121	-0.166521
C	-1.3664058058	-0.5232339025	 0.3200849346	 0.01401
C	-1.5636147339	 0.0076719339	-1.1087349128	-0.399972
C	-1.5342189455	-2.0433679019	 0.3555033094	 0.06624
C	-1.4395809955	-2.8125484068	 1.7033640046	-0.244283
C	-2.5297761055	-3.7837087296	 1.1802946271	-0.228954
C	-2.9315740314	-2.7201466593	 0.1155786316	-0.006752
C	-4.1567902119	-1.9042675777	 0.5258666584	-0.396151
H	 1.1697062543	 1.5999265841	 1.5549373877	 0.109661
H	 0.1958605143	 1.9206831724	 0.120181061	 0.116656
H	-0.5771427047	 1.822879949	 1.7066087799	 0.111248
H	 0.796079734	-0.524672609	 0.2562635379	 0.088279
H	 0.1284893075	-0.6066520732	 1.8756493232	 0.096385
H	-2.140140161	-0.0772528278	 0.9623649665	 0.063039
H	-0.7710104448	-0.3622156385	-1.7709808852	 0.108627
H	-2.520354492	-0.3187222047	-1.5278148341	 0.114544
H	-1.5448851681	 1.1005844561	-1.1464539493	 0.111973
H	-0.8174762616	-2.4855766298	-0.3497980943	 0.061121
H	-0.4715495305	-3.2364666467	 1.9813655765	 0.092411
H	-1.8008602268	-2.2083400805	 2.5422366624	 0.096583
H	-2.0953043815	-4.6787168394	 0.7262725709	 0.095556
H	-3.3081523678	-4.0948557162	 1.8829697367	 0.089413
H	-3.0822205468	-3.1088099646	-0.8965055915	 0.060417
H	-4.065925635	-1.5160610386	 1.5462685351	 0.113674
H	-4.3277649988	-1.0511524013	-0.1385279963	 0.114558
H	-5.0543069339	-2.5320711593	 0.4954858592	 0.10989
73.0252	84.2305	128.9975	134.523	204.1425	217.7916	239.0733	247.9589	277.9855	337.7055	353.2882	396.8926	448.5333	516.0341	670.6519	761.137	787.1563	801.1815	844.1306	887.1508	911.2699	946.2038	953.4024	966.3118	982.7463	997.9129	1031.5504	1048.1551	1069.3433	1105.2457	1143.8475	1165.8562	1186.4674	1199.1365	1216.8157	1249.1805	1263.1784	1276.9631	1283.7187	1295.7753	1309.2248	1351.2215	1366.5662	1375.0274	1398.1712	1408.0708	1411.0736	1416.4458	1480.6445	1482.9219	1493.8942	1495.3975	1495.9302	1499.8162	1502.7556	1505.5021	1511.8654	2990.6453	3005.8186	3013.5366	3027.4043	3028.2302	3031.5595	3043.0091	3044.1307	3050.9802	3054.9473	3090.1599	3091.8383	3092.7773	3095.4693	3096.618	3102.8515	3108.533	3110.7429
CCC(C)C1CCC1C	CC[C@@H](C)[C@H]1CC[C@H]1C	
InChI=1S/C9H18/c1-4-7(2)9-6-5-8(9)3/h7-9H,4-6H2,1-3H3	InChI=1S/C9H18/c1-4-7(2)9-6-5-8(9)3/h7-9H,4-6H2,1-3H3/t7-,8-,9-/m1/s1
