20
gdb 88570	3.45037	1.09005	1.00772	0.9344	81.51	-0.2334	0.0255	0.259	1286.6001	0.172212	-403.162513	-403.153791	-403.152846	-403.196716	32.061	
C	-0.3025151913	 1.4266390114	-0.1283449475	-0.41786
C	-0.0011550881	-0.0475352472	 0.010382815	 0.012429
C	 1.3734551135	-0.5917098721	-0.227340649	-0.290828
C	 0.8122458061	-0.6129209388	 1.179252962	-0.125645
C	 1.3917736777	 0.262507987	 2.2113520279	 0.425526
N	 2.1321087988	 1.2845126583	 2.0390694061	-0.326036
C	 2.4218435261	 1.8297429327	 3.3710414843	-0.184935
C	 1.7289098527	 0.8501691662	 4.3540354709	-0.112171
O	 1.0687066784	-0.0974298476	 3.4888660051	-0.260462
H	 0.5325684185	 2.0323788005	 0.2299349403	 0.151545
H	-0.4870940116	 1.6782274567	-1.1785341329	 0.114139
H	-1.1959382121	 1.7032335823	 0.4424923625	 0.112003
H	-0.8185975602	-0.7014448908	-0.2833884809	 0.089865
H	 1.4911488157	-1.5423935813	-0.7354874721	 0.111805
H	 2.1684925987	 0.1260356625	-0.3970465289	 0.140265
H	 0.4731116931	-1.562413106	 1.5760624781	 0.10071
H	 3.5040518512	 1.8856226155	 3.5298836123	 0.113571
H	 2.0309461356	 2.8502252671	 3.4543007002	 0.112957
H	 2.4304692316	 0.3031111383	 4.99112258	 0.116089
H	 0.9727371556	 1.3224932353	 4.9871679966	 0.117034
51.6209	89.4179	125.3161	180.5508	219.1337	264.0804	345.5002	419.7781	445.8725	651.2396	733.2431	760.2486	775.6808	832.9131	856.2464	879.9767	918.3541	944.2443	974.6747	995.3761	1016.6034	1040.4105	1080.079	1099.9682	1121.7803	1132.9159	1150.385	1190.3088	1209.1988	1215.8008	1236.004	1245.8291	1326.9961	1368.7116	1393.0083	1425.4395	1444.1591	1486.0876	1502.2587	1504.143	1506.6453	1528.2736	1724.1126	3031.9903	3033.7114	3050.7684	3061.5963	3088.5912	3098.4942	3124.426	3136.2738	3142.2559	3182.3909	3229.178
CC1CC1C1=NCCO1	C[C@H]1C[C@H]1C1=NCCO1	
InChI=1S/C7H11NO/c1-5-4-6(5)7-8-2-3-9-7/h5-6H,2-4H2,1H3	InChI=1S/C7H11NO/c1-5-4-6(5)7-8-2-3-9-7/h5-6H,2-4H2,1H3/t5-,6+/m0/s1
