13
gdb 133179	3.0921	1.38945	0.96431	4.5914	64.18	-0.2712	-0.0898	0.1814	1102.2481	0.087387	-497.859828	-497.852261	-497.851317	-497.892153	27.736	
C	-0.0402114632	 1.4998660918	-0.0164668729	-0.476839
C	-0.0593743608	 0.0062894016	 0.0036872241	 0.146927
C	-1.1563319895	-0.7622019897	-0.1427936249	-0.305483
C	-0.9953301827	-2.1844529549	-0.0976799074	 0.367404
F	-2.0846478726	-2.9230078499	-0.2433054593	-0.05065
N	 0.0981251206	-2.8299809327	 0.0697235756	-0.133844
O	 1.2335446196	-2.0497144119	 0.22141816	-0.257373
C	 1.2368205292	-0.6638079675	 0.2013480909	 0.428539
O	 2.2899666521	-0.1031463808	 0.3453604231	-0.321362
H	 0.6240579883	 1.8575543522	-0.8099281085	 0.164376
H	-1.0400961921	 1.9111401042	-0.1675933232	 0.131699
H	 0.373766578	 1.8843774859	 0.9213222348	 0.164396
H	-2.149616937	-0.3532149083	-0.2924446425	 0.142209
103.0202	144.531	197.362	276.0078	374.3156	374.729	379.6267	473.9602	498.0688	587.9646	628.6622	686.0322	775.0002	802.4783	907.9152	941.3165	1012.4627	1050.0232	1065.8144	1125.3342	1185.2549	1334.8112	1414.9613	1430.9439	1464.8541	1480.0561	1628.371	1702.4665	1829.7145	3045.3365	3102.8908	3138.7755	3195.437
CC1=CC(F)=NOC1=O	Cc1cc(F)noc1=O	
InChI=1S/C5H4FNO2/c1-3-2-4(6)7-9-5(3)8/h2H,1H3	InChI=1S/C5H4FNO2/c1-3-2-4(6)7-9-5(3)8/h2H,1H3
