21
gdb 94618	3.4736	0.98193	0.84846	2.0708	79.1	-0.2435	0.0764	0.3199	1424.7243	0.181018	-424.181169	-424.171796	-424.170851	-424.216534	34.223	
C	-0.4238791313	 1.3853932354	-0.0405878744	-0.387187
C	 0.1648248066	-0.0118641251	-0.0631181604	 0.112054
O	 1.5194989456	-0.0428069835	-0.58383964	-0.29372
C	 2.0603839994	-0.4825220539	 0.6773180074	-0.096881
C	 0.6435987813	-0.6100848626	 1.281859214	 0.0717
O	 0.3235019125	 0.1738283461	 2.4028934398	-0.251354
C	 0.6155375684	-0.4340550093	 3.6256834256	 0.141029
C	 1.9793428709	-0.2658136862	 4.2490212246	-0.289832
C	 0.7740321094	 0.4741405025	 4.7985490913	-0.291364
H	 0.1827591449	 2.0600993161	 0.5672465357	 0.126859
H	-0.4719912978	 1.7761449663	-1.0615677896	 0.121191
H	-1.4370580805	 1.3678538504	 0.3730977369	 0.119279
H	-0.4792214432	-0.68685534	-0.6420576613	 0.075554
H	 2.6419713041	-1.4067880798	 0.5788787398	 0.098851
H	 2.6776765776	 0.2885218334	 1.1550476638	 0.100241
H	 0.3263737077	-1.648799993	 1.4405069503	 0.074636
H	 0.1056676553	-1.3869922763	 3.7738358556	 0.087436
H	 2.3944236214	-1.089536474	 4.819560899	 0.114606
H	 2.7065552084	 0.3222039252	 3.7017996331	 0.122279
H	 0.7143753727	 1.5369035674	 4.5939628346	 0.128028
H	 0.3565926466	 0.1688758608	 5.7511520542	 0.116594
45.9939	70.714	85.8453	134.8916	202.2318	251.1814	346.3393	377.6411	397.6752	486.7579	522.5653	753.5239	756.6405	811.365	827.0921	846.898	877.2505	924.8234	975.9535	981.8451	1015.5024	1031.864	1054.03	1071.4006	1074.2094	1092.6865	1125.5993	1152.475	1160.6692	1187.3928	1195.8321	1205.0179	1247.2945	1271.9085	1289.7715	1345.0436	1374.8363	1381.1434	1402.9644	1428.3317	1453.9215	1483.1715	1487.3878	1499.242	1515.9738	3006.4624	3013.3592	3024.6861	3044.4716	3063.6857	3091.1858	3113.6301	3133.4048	3138.3188	3143.5087	3223.1911	3236.9187
CC1OCC1OC1CC1	C[C@H]1OC[C@H]1OC1CC1	
InChI=1S/C7H12O2/c1-5-7(4-8-5)9-6-2-3-6/h5-7H,2-4H2,1H3	InChI=1S/C7H12O2/c1-5-7(4-8-5)9-6-2-3-6/h5-7H,2-4H2,1H3/t5-,7-/m1/s1
