20
gdb 79708	2.92688	1.70885	1.38741	1.3745	77.41	-0.2131	0.0731	0.2862	1009.0029	0.17144	-403.06983	-403.061914	-403.06097	-403.101868	31.573	
C	-0.3168329618	 1.6128881124	-0.0401323478	-0.419986
C	 0.0649169448	 0.13179594	 0.0085939895	 0.068111
C	 1.1855707865	-0.5468084933	-0.8457000496	-0.093816
C	 2.4905435018	 0.1578312346	-0.3876182636	 0.032272
O	 2.3148937064	 1.3895195257	 0.3317243373	-0.246186
C	 2.2851605927	 0.1526066738	 1.0628335373	 0.032273
C	 0.9050166603	-0.5539416396	 1.135619815	-0.093816
N	 1.0545349594	-1.6824183548	 0.1421920689	-0.075196
C	 2.1283190989	-2.6545263024	 0.29073323	-0.334015
H	 0.1892929155	 2.1410789542	-0.8504468106	 0.125901
H	-1.3961331166	 1.7153937685	-0.1926507157	 0.097778
H	-0.0562068459	 2.1348091381	 0.8825994025	 0.125898
H	-0.819400479	-0.4920500313	-0.1188681227	 0.097342
H	 1.0664467112	-0.785713757	-1.9035158404	 0.065835
H	 3.4433051683	 0.0328472637	-0.8903817099	 0.105621
H	 3.0610095968	 0.0231208836	 1.8094517272	 0.10562
H	 0.4971297518	-0.8001886609	 2.1170631093	 0.065835
H	 1.9021005423	-3.2970074933	 1.1484960229	 0.121594
H	 2.1498246265	-3.2906454135	-0.6006724104	 0.121594
H	 3.1368183905	-2.2377406184	 0.4350756175	 0.097342
103.5032	204.8263	212.0458	234.7161	290.4477	291.5837	430.7715	483.2603	545.1537	652.7588	707.1951	731.2372	764.6035	781.8168	840.8495	878.1206	879.3616	920.9965	933.6899	979.2301	1040.6024	1075.2806	1075.6469	1089.6811	1098.7654	1123.2581	1153.1897	1191.3475	1210.9445	1216.9445	1242.8211	1266.9726	1272.2792	1283.7744	1303.6883	1379.1875	1407.5049	1428.6063	1442.3678	1484.1484	1489.5674	1500.4397	1510.0585	2984.0198	3044.8684	3060.8766	3095.2855	3099.4625	3106.1241	3108.683	3120.509	3130.8016	3168.6536	3180.7527
CC1C2C3OC3C1N2C	C[C@H]1[C@H]2[C@H]3O[C@H]3[C@@H]1N2C	
InChI=1S/C7H11NO/c1-3-4-6-7(9-6)5(3)8(4)2/h3-7H,1-2H3	InChI=1S/C7H11NO/c1-3-4-6-7(9-6)5(3)8(4)2/h3-7H,1-2H3/t3-,4-,5+,6+,7-
