25
gdb 110139	1.40799	1.38934	0.8168	1.8143	89.31	-0.254	0.0679	0.3219	1560.9733	0.227662	-389.479932	-389.468703	-389.467759	-389.51678	40.742	
C	 0.7109522398	 1.175130757	 0.5917922611	-0.377357
C	-0.2357140175	 0.4145808415	-0.3458247337	-0.201719
C	 0.5093119813	-0.3605573519	-1.4183688635	-0.038304
C	 1.0678250098	-1.7526931559	-1.2032507503	-0.021907
C	 0.9397086714	-2.525560253	 0.0976408794	-0.198591
C	 1.0519268748	-4.0421502811	-0.1046535288	-0.376414
C	-0.083421366	-1.5417502339	-2.1703492448	-0.080193
C	-1.4893665028	-2.0364879707	-1.9171193923	-0.074174
O	-2.4598214918	-1.2831165998	-2.6356132836	-0.425669
H	 1.3708687244	 0.4859337881	 1.1280713614	 0.122273
H	 1.3452727646	 1.8698752652	 0.0304550646	 0.115177
H	 0.1541523106	 1.7562985797	 1.3335452704	 0.110858
H	-0.8751263186	-0.2472274467	 0.246681022	 0.099719
H	-0.9122459103	 1.1348462779	-0.8276513193	 0.088229
H	 1.1383342482	 0.2872388824	-2.0266962592	 0.079283
H	 2.0238228179	-1.9351030941	-1.6910818998	 0.079389
H	 1.7320836074	-2.194772579	 0.7821434755	 0.097038
H	-0.0041590035	-2.2969252951	 0.6019373244	 0.096807
H	 0.9999253433	-4.5747854569	 0.8501504202	 0.110423
H	 0.2464310201	-4.4170703416	-0.7442910448	 0.121644
H	 2.0016214739	-4.3063811707	-0.5827812048	 0.114591
H	 0.1759135447	-1.5922577736	-3.2252399791	 0.086418
H	-1.5963854728	-3.0647196712	-2.2801576869	 0.10803
H	-1.7229507836	-2.0531501242	-0.84335785	 0.082994
H	-2.3292499354	-0.3580805622	-2.4034611582	 0.281458
69.0842	73.4906	77.641	141.4146	150.9128	207.0923	208.7302	237.6555	276.9373	306.233	330.6482	359.192	527.3284	529.9133	547.4253	753.081	764.7983	808.5808	816.5334	837.2329	945.6797	959.707	983.1196	999.0932	1037.7009	1050.269	1065.8012	1071.4871	1108.9749	1129.4661	1156.7211	1169.5408	1197.8512	1230.278	1269.5947	1292.9515	1296.1137	1336.8532	1339.2146	1361.6499	1394.3086	1404.8305	1410.6224	1415.4732	1429.1654	1465.9812	1487.1593	1489.0489	1498.0917	1498.3069	1505.3802	1507.3403	1512.1346	3000.8732	3004.7889	3020.3808	3032.2268	3033.1817	3060.6468	3064.0972	3075.1932	3099.7418	3102.1831	3105.8224	3107.1604	3110.8706	3117.893	3137.2749	3816.0223
CCC1C(CC)C1CO	CC[C@H]1[C@@H](CC)[C@H]1CO	
InChI=1S/C8H16O/c1-3-6-7(4-2)8(6)5-9/h6-9H,3-5H2,1-2H3	InChI=1S/C8H16O/c1-3-6-7(4-2)8(6)5-9/h6-9H,3-5H2,1-2H3/t6-,7+,8-
