13
gdb 48454	1.8886	1.71351	1.27314	3.3503	65.49	-0.2704	-0.0603	0.2102	1024.5673	0.086483	-456.550147	-456.541769	-456.540825	-456.58372	29.397	
O	-0.6085660893	 0.6237585687	 0.5965998246	-0.230737
C	 0.1697135733	 0.9143480376	-0.2683501271	 0.124351
C	 1.3211891856	 1.9145163169	-0.0706611632	-0.176066
C	 1.4039887638	 2.5185761	 1.3455672423	-0.112168
O	 2.5853530768	 1.7000652401	 1.6462211678	-0.230879
C	 2.6197987717	 1.1603500348	 0.4023995834	 0.444903
O	 3.3875953641	 0.3932638336	-0.0688151786	-0.304388
C	 1.4699597222	 2.7738189156	-1.2210507641	 0.24932
C	 1.5636889185	 3.467653326	-2.1976127126	-0.406608
H	 0.1327347343	 0.475193619	-1.2838508549	 0.12326
H	 1.6490994251	 3.5789403379	 1.3867910319	 0.144653
H	 0.5730744103	 2.253833921	 1.998107529	 0.160278
H	 1.6633286537	 4.0866288489	-3.0555752084	 0.21408
77.4728	117.9347	119.7528	166.9809	214.1049	304.1024	377.254	492.4503	499.6238	610.5599	634.7299	662.4246	672.4049	709.4315	806.9414	883.6815	927.0066	967.7096	1053.7739	1100.057	1153.6066	1180.387	1230.9225	1334.6969	1410.0321	1502.7955	1829.6349	1948.5683	2239.6836	2955.2589	3102.0544	3178.2469	3497.2129
O=CC1(COC1=O)C#C	O=C[C@]1(COC1=O)C#C	
InChI=1S/C6H4O3/c1-2-6(3-7)4-9-5(6)8/h1,3H,4H2	InChI=1S/C6H4O3/c1-2-6(3-7)4-9-5(6)8/h1,3H,4H2/t6-/m0/s1
