25
gdb 121827	3.78548	0.62327	0.61412	2.6423	85.68	-0.2619	0.071	0.3329	1930.5526	0.225643	-426.623552	-426.611513	-426.610568	-426.661032	43.256	
C	-0.0749440169	 1.5823335812	 0.1139945663	-0.410617
C	 0.0199754377	 0.0458312137	 0.073834145	 0.256361
C	 0.6925925015	-0.4752956376	 1.3573808688	-0.410598
C	-1.4021631447	-0.5385080414	-0.0151958893	-0.084088
O	-2.1538673759	-0.1338329069	 1.1208193973	-0.427357
C	 0.7746670042	-0.4362229819	-1.189661527	-0.210823
C	 2.230288869	 0.0233673753	-1.3295283994	-0.188106
C	 2.8798678208	-0.5049556648	-2.6025379145	-0.069528
O	 4.2170616974	-0.028494456	-2.6426517004	-0.422401
H	 0.9069937225	 2.042387399	 0.2561091688	 0.111284
H	-0.4982666983	 1.974620062	-0.8183050761	 0.100073
H	-0.7213461682	 1.8999896035	 0.9353367465	 0.130931
H	 0.0776360094	-0.2399838979	 2.2290481621	 0.131001
H	 0.8207378272	-1.5636213734	 1.320068045	 0.100099
H	 1.678801808	-0.0263727634	 1.5054133993	 0.111257
H	-1.8802595622	-0.1877247536	-0.9444712521	 0.078575
H	-1.3392579131	-1.6377293552	-0.0698543787	 0.078557
H	-3.0369899026	-0.5049838955	 1.0452366	 0.286911
H	 0.7492367739	-1.5353086176	-1.2097287761	 0.086498
H	 0.2142327274	-0.1039465942	-2.0754106748	 0.086482
H	 2.2942880588	 1.1165897588	-1.3453967478	 0.109448
H	 2.8298339927	-0.3152347744	-0.4778371734	 0.109433
H	 2.8497595678	-1.6073607861	-2.6063785656	 0.081351
H	 2.3088417151	-0.1629335748	-3.4818487236	 0.081336
H	 4.6308136986	-0.3606585789	-3.4444629903	 0.283921
55.4271	74.8853	109.7164	127.0164	139.9815	216.7548	238.1006	239.5792	250.1374	265.1353	286.4543	325.4245	336.2788	381.7234	409.1312	493.4333	579.0727	750.225	758.4262	862.9248	892.5897	932.8996	958.729	983.9237	1012.2753	1025.8699	1044.3552	1077.7353	1094.2648	1105.3632	1196.2118	1203.4267	1203.6389	1235.0232	1250.555	1288.4097	1293.4232	1315.7204	1320.3496	1353.5775	1392.1856	1393.4482	1408.2217	1454.1222	1462.2174	1480.9996	1484.5976	1495.5782	1499.8292	1501.931	1513.7864	1519.9905	1529.6795	2954.3828	2954.9957	2979.9789	2986.2827	2994.8797	3027.0222	3029.9634	3034.336	3047.2999	3090.5887	3098.128	3100.4995	3124.3915	3128.0463	3829.8026	3840.2922
CC(C)(CO)CCCO	CC(C)(CO)CCCO	
InChI=1S/C7H16O2/c1-7(2,6-9)4-3-5-8/h8-9H,3-6H2,1-2H3	InChI=1S/C7H16O2/c1-7(2,6-9)4-3-5-8/h8-9H,3-6H2,1-2H3
