27
gdb 58100	2.09986	1.20404	1.06767	1.4192	91.36	-0.2604	0.0679	0.3283	1377.5636	0.248776	-390.700766	-390.688802	-390.687858	-390.736689	45.722	
C	-0.1300832407	 1.5247652723	-0.0771284475	-0.40829
C	 0.0561542578	-0.0025561983	-0.0343201571	 0.018686
C	 0.7299717047	-0.4577279837	-1.3415082312	-0.40763
C	 0.775767398	-0.5371359074	 1.2513939821	 0.291663
C	 0.8031209836	-2.0816706503	 1.2307437264	-0.433017
C	 2.2273856669	-0.0208634366	 1.3461803214	-0.427793
C	 0.0259038443	-0.0578590628	 2.5318161166	 0.117506
C	-1.4523317442	-0.4476658204	 2.6217477837	-0.423408
O	 0.7369265102	-0.5961083657	 3.6514721568	-0.443394
H	 0.8307406166	 2.0500108145	-0.0735726202	 0.117305
H	-0.6508837211	 1.8105975107	-0.9971996819	 0.108007
H	-0.7208782504	 1.9063738854	 0.759868265	 0.111647
H	-0.9459140012	-0.4515477033	-0.0329965643	 0.069719
H	 1.7227296162	-0.0123664772	-1.4635750478	 0.115826
H	 0.8381685597	-1.5433661069	-1.3999576554	 0.114208
H	 0.1268739773	-0.1416563053	-2.1991843557	 0.107557
H	 1.5365860951	-2.4559592805	 0.5117894295	 0.108398
H	 1.0768946038	-2.463711995	 2.2162615028	 0.132067
H	-0.1697922151	-2.5043387769	 0.9576705547	 0.101718
H	 2.2676172923	 1.0719721999	 1.4031855176	 0.103025
H	 2.7059365074	-0.4133344508	 2.245109424	 0.132724
H	 2.8184308648	-0.3347117315	 0.4814940805	 0.105136
H	 0.0978574256	 1.0396164228	 2.5661291204	 0.062055
H	-2.0500724787	 0.0042683335	 1.8257272874	 0.121689
H	-1.5787463592	-1.5328200693	 2.5811557371	 0.126856
H	-1.8694533875	-0.0982589615	 3.5741154843	 0.099293
H	 0.2886042741	-0.3041798157	 4.4505952509	 0.278445
65.6475	97.8345	193.9297	201.2183	227.3234	239.0692	245.5731	247.7189	260.8762	292.0963	302.0271	340.0396	352.0684	371.1589	391.6471	459.3363	466.9117	486.1914	586.2748	693.9798	804.0415	888.4756	919.1496	927.2676	942.9898	945.521	967.8264	1004.928	1021.106	1064.2189	1089.4478	1118.3676	1137.5119	1176.6309	1200.1999	1223.2292	1251.1967	1290.5787	1357.806	1358.8986	1383.7983	1390.0275	1397.6007	1405.62	1409.4942	1415.8923	1432.9321	1482.1848	1488.7826	1489.1897	1495.8858	1498.3546	1505.4085	1509.9897	1513.4684	1514.5445	1521.7358	2981.6737	3010.3993	3031.5404	3034.8285	3038.4061	3039.3737	3046.1098	3092.3035	3095.7813	3099.7429	3102.4262	3108.016	3110.908	3120.7434	3128.3817	3131.63	3135.248	3827.4628
CC(C)C(C)(C)C(C)O	CC(C)C(C)(C)[C@@H](C)O	
InChI=1S/C8H18O/c1-6(2)8(4,5)7(3)9/h6-7,9H,1-5H3	InChI=1S/C8H18O/c1-6(2)8(4,5)7(3)9/h6-7,9H,1-5H3/t7-/m1/s1
