20
gdb 53936	2.10235	1.43469	1.19897	2.0714	75.57	-0.2442	-0.0328	0.2115	1168.2506	0.168029	-440.35004	-440.33959	-440.338645	-440.385867	38.477	
C	 0.5423527036	 0.89282566	 0.3826719188	-0.484092
C	-0.0875236509	-0.2554891982	-0.3758632393	 0.379057
O	 0.4835845782	-0.7385660694	-1.3349131261	-0.329484
C	-1.4690997463	-0.7913076695	 0.0643848591	 0.021953
C	-2.040197419	-0.0950331727	 1.3060880748	-0.421991
C	-2.4338272905	-0.5904101691	-1.1362098932	-0.399144
C	-1.3831883482	-2.3230339969	 0.3617024157	 0.387581
N	-0.8205849092	-3.0766652824	-0.619184004	-0.518335
O	-1.854179375	-2.7929114995	 1.3795000441	-0.367364
H	 1.5097799692	 1.1254074283	-0.0629130354	 0.143231
H	-0.1007711439	 1.7783675162	 0.3517743223	 0.147992
H	 0.6690368113	 0.6348892122	 1.438904409	 0.152104
H	-2.1736939252	 0.9761136647	 1.1297688398	 0.102405
H	-3.0110417352	-0.528581561	 1.5501815375	 0.139361
H	-1.4045550756	-0.2341349248	 2.1831596404	 0.126527
H	-2.0367487252	-1.0443703687	-2.0449857956	 0.13696
H	-3.404013929	-1.0421537668	-0.9111138195	 0.133153
H	-2.5919488206	 0.4770376426	-1.3228876268	 0.118074
H	-0.249732149	-2.6212724868	-1.3177086813	 0.275903
H	-0.6719082997	-4.0514492281	-0.4119609403	 0.256109
26.7534	64.9389	161.7758	214.6736	229.496	245.4433	274.6712	291.1559	339.841	359.7794	392.8134	424.7528	483.0328	527.626	583.9035	601.8703	649.3393	687.8247	758.9781	804.041	916.197	963.0337	971.5071	1027.7269	1042.777	1127.2029	1143.7998	1178.3712	1216.7453	1253.3437	1335.6159	1382.3471	1399.0816	1424.3744	1455.259	1470.6907	1483.0581	1489.3526	1501.6811	1507.3489	1609.7486	1770.383	1792.5018	3041.0456	3045.7235	3055.3077	3108.445	3109.3794	3127.6014	3141.4019	3146.473	3157.3281	3545.3485	3693.4351
CC(=O)C(C)(C)C(N)=O	CC(=O)C(C)(C)C(=O)N	
InChI=1S/C6H11NO2/c1-4(8)6(2,3)5(7)9/h1-3H3,(H2,7,9)	InChI=1S/C6H11NO2/c1-4(8)6(2,3)5(7)9/h1-3H3,(H2,7,9)
