21
gdb 59903	3.63918	0.80368	0.73489	4.5158	81.8	-0.2495	-0.0228	0.2267	1613.2582	0.181429	-420.451587	-420.441132	-420.440188	-420.48857	37.16	
C	 0.4113387327	 1.3515358202	 0.0839283784	-0.394954
C	 0.2074759935	-0.1653475002	 0.1776811129	 0.059985
C	 0.304921725	-0.6432707641	 1.6326069773	-0.397447
C	-1.1296700645	-0.566545452	-0.4879168921	-0.268691
C	-1.302155236	-2.0648830838	-0.6320777667	 0.353012
N	-0.7367528446	-2.6903250079	-1.5788980233	-0.493512
N	-2.1087969823	-2.6507211975	 0.3782068482	-0.331844
C	-2.424024201	-3.9790133654	 0.5202443438	 0.165516
O	-2.059337563	-4.8770497135	-0.2046763597	-0.297194
H	 1.3759172012	 1.643893691	 0.5112531326	 0.114739
H	 0.3860954709	 1.6945358351	-0.9553673871	 0.117457
H	-0.3702750319	 1.8908865749	 0.6331275141	 0.109609
H	 0.9989671756	-0.6588156527	-0.399483324	 0.104681
H	-0.4806212215	-0.1880305435	 2.250215464	 0.101539
H	 0.2134923866	-1.7305088339	 1.7142411667	 0.120051
H	 1.2672365154	-0.3602941092	 2.0707601541	 0.120212
H	-1.9667595385	-0.1271491287	 0.071905394	 0.085224
H	-1.1594536356	-0.1486839823	-1.4973125427	 0.133345
H	-0.9266442084	-3.6910602172	-1.5232342773	 0.250391
H	-2.4918512502	-2.0277512107	 1.0729552422	 0.255525
H	-3.0737487635	-4.1471837986	 1.4012213647	 0.092358
23.3314	58.5411	68.4518	180.1092	225.9894	239.4067	255.6035	261.0862	291.109	366.3967	407.8233	418.0356	519.3371	583.252	659.186	806.0567	829.5363	873.9015	930.68	932.4394	961.8806	966.6023	978.4756	1024.8022	1047.9928	1134.4538	1143.9946	1182.5336	1195.6368	1247.9029	1304.8843	1346.4374	1369.0513	1374.2597	1400.7583	1421.1511	1440.2766	1479.4246	1487.876	1494.2696	1503.849	1505.3014	1509.7831	1731.4274	1812.7813	2943.537	3015.4204	3017.6784	3024.0954	3040.3083	3085.4256	3092.0657	3100.6626	3104.3086	3107.7216	3490.9378	3620.0834
CC(C)CC(=N)NC=O	CC(C)CC(=N)NC=O	
InChI=1S/C6H12N2O/c1-5(2)3-6(7)8-4-9/h4-5H,3H2,1-2H3,(H2,7,8,9)	InChI=1S/C6H12N2O/c1-5(2)3-6(7)8-4-9/h4-5H,3H2,1-2H3,(H2,7,8,9)
