19
gdb 102756	2.29248	1.02123	0.78842	2.3082	73.38	-0.2464	-0.0335	0.2129	1475.2838	0.155586	-460.131109	-460.121004	-460.12006	-460.167917	34.422	
C	-0.0487107084	 1.4394970573	 0.2436216894	-0.245706
O	 0.0319984192	 0.0280784847	 0.2858410607	-0.247934
C	 0.5552735447	-0.5444851099	-0.8948647102	 0.038879
C	 1.0527900527	-1.9602592556	-0.5634221676	-0.25414
C	 2.183603629	-1.9288743906	 0.4360250638	 0.089606
C	 3.3341134273	-2.8337151634	 0.3335463423	-0.178531
O	 3.4427039263	-1.4644872783	-0.0615049474	-0.238851
C	-0.519137765	-0.6213903795	-1.9781023037	 0.132275
O	-0.2975769376	-0.8475878177	-3.1382269942	-0.243661
H	 0.9442509505	 1.894031773	 0.1139861024	 0.12133
H	-0.699316856	 1.7944873751	-0.5696881693	 0.112519
H	-0.4704833163	 1.7663903556	 1.196551872	 0.134414
H	 1.4041480439	 0.0395618192	-1.2821741368	 0.111124
H	 0.2200389976	-2.5482819309	-0.1582660398	 0.113889
H	 1.3836516131	-2.4312322851	-1.4936304529	 0.127834
H	 1.9232838849	-1.533179181	 1.4167078005	 0.107774
H	 3.8903418087	-3.1088718926	 1.2285254747	 0.11696
H	 3.3756480135	-3.5583329982	-0.4788953369	 0.115805
H	-1.553320848	-0.4853377923	-1.5830046568	 0.086413
41.4223	58.3028	82.9878	102.9422	164.5242	191.4577	239.3312	275.8135	342.8626	380.5869	463.6127	526.7387	576.9117	784.8491	835.9347	881.7195	912.149	961.252	1002.0144	1058.553	1077.7339	1109.4592	1131.4835	1152.0902	1160.1811	1172.6172	1184.714	1215.2965	1255.7351	1280.7981	1295.7978	1343.1264	1355.912	1400.0649	1439.9177	1463.3265	1482.9847	1489.1076	1507.3743	1530.4937	1836.4053	2863.2614	2983.0034	3000.2558	3035.245	3039.4596	3082.4053	3100.6126	3123.1754	3128.886	3169.4656
COC(CC1CO1)C=O	CO[C@@H](C[C@H]1CO1)C=O	
InChI=1S/C6H10O3/c1-8-5(3-7)2-6-4-9-6/h3,5-6H,2,4H2,1H3	InChI=1S/C6H10O3/c1-8-5(3-7)2-6-4-9-6/h3,5-6H,2,4H2,1H3/t5-,6-/m0/s1
