17
gdb 48038	9.23483	0.45741	0.45089	4.3507	81.69	-0.2646	-0.0595	0.2051	2300.334	0.133275	-421.780365	-421.770574	-421.76963	-421.818356	32.491	
O	-0.0099133979	-0.0958303009	 0.0980203333	-0.228843
C	 0.0237768459	 1.1136697565	 0.0950204361	 0.016503
C	 1.2296038423	 1.8993237613	 0.1129046121	 0.064825
C	 2.2265475907	 2.58191367	 0.1291094817	 0.064687
C	 3.4211422046	 3.4100322525	 0.1419797336	-0.354883
C	 3.1669456741	 4.8634351833	-0.3151335101	-0.214372
C	 4.438165786	 5.6750560091	-0.2850543628	 0.088961
C	 4.4689935829	 7.0694998058	 0.1704249691	-0.179822
O	 4.9363551843	 6.013983322	 1.0128382566	-0.23525
H	-0.9080386681	 1.7156186519	 0.0770847743	 0.096302
H	 3.8358153325	 3.4259784629	 1.1578909995	 0.165034
H	 4.1883532548	 2.9456667564	-0.491724609	 0.143272
H	 2.7548296813	 4.863681629	-1.3307020261	 0.118675
H	 2.4221313561	 5.3239668301	 0.3411352944	 0.120358
H	 5.2158663184	 5.3528104556	-0.9811059544	 0.09649
H	 5.2367521466	 7.7454266405	-0.2028337736	 0.120237
H	 3.5445652555	 7.5483802941	 0.4907416452	 0.117826
11.3927	48.388	69.1202	92.7414	163.1823	190.4698	218.5216	366.6473	406.0869	453.2444	501.8826	603.9893	755.9346	805.8612	833.7142	879.2549	946.5696	993.2853	1021.9148	1027.9202	1099.2285	1116.7113	1159.9922	1162.1746	1171.1716	1217.8239	1277.7946	1297.2377	1313.8872	1371.5409	1423.2931	1447.717	1460.8895	1480.2768	1531.0187	1766.9664	2330.4219	2913.3477	3022.6586	3045.9524	3057.6686	3081.7115	3086.112	3102.9548	3172.1002
O=CC#CCCC1CO1	O=CC#CCC[C@H]1CO1	
InChI=1S/C7H8O2/c8-5-3-1-2-4-7-6-9-7/h5,7H,2,4,6H2	InChI=1S/C7H8O2/c8-5-3-1-2-4-7-6-9-7/h5,7H,2,4,6H2/t7-/m0/s1
