19
gdb 82910	2.82444	1.51489	1.45522	1.7001	73.78	-0.2317	0.0795	0.3112	1013.2749	0.159523	-422.98212	-422.974287	-422.973343	-423.013922	31.729	
C	 0.0553873127	 1.5396061355	 0.0159117109	-0.485535
C	-0.0033933894	 0.0294378452	 0.0251019853	 0.322439
C	-0.6640040085	-0.7093969926	 1.1803994794	-0.38258
C	 0.8238977482	-0.8243942459	 0.946832039	 0.050597
O	 1.3376662071	-1.9404962994	 0.2355024608	-0.27974
C	 1.1273963191	-1.7684090562	-1.1539944323	 0.008822
C	-0.2578292639	-2.1310574277	-1.5909669255	 0.097441
O	-1.0544478287	-2.9322896562	-0.7760004449	-0.428122
C	 0.0988061311	-0.6638450518	-1.3228212175	-0.195926
H	 0.9034550569	 1.9037887489	-0.5754749855	 0.118439
H	-0.8592297701	 1.9690462282	-0.4085361032	 0.124158
H	 0.1622367744	 1.9330366191	 1.0315197595	 0.116933
H	-0.9564832758	-0.1007131932	 2.0313526415	 0.105846
H	-1.3177875006	-1.5415764441	 0.9672658785	 0.143201
H	 1.5276110312	-0.4308382233	 1.6741723892	 0.09921
H	 2.0171947838	-1.929553684	-1.7550143612	 0.095994
H	-0.3958940621	-2.3590125263	-2.6458364004	 0.102812
H	-0.4730873416	-3.266339587	-0.0789737043	 0.295879
H	 0.1157729161	-0.0186273693	-2.1940338492	 0.090131
139.3851	209.0207	219.8562	249.8641	295.0453	330.2118	439.4538	477.9589	568.0369	595.6061	669.9196	684.1479	740.678	754.379	824.6607	845.2461	848.4008	945.4983	972.1755	1010.4506	1011.7603	1039.6794	1057.8311	1063.5779	1090.7945	1093.2242	1103.7132	1128.5806	1149.1553	1222.0977	1238.2759	1290.1926	1316.6423	1346.3051	1368.0693	1397.089	1418.4809	1439.1979	1480.9863	1489.9562	1501.3777	3023.9649	3084.9772	3100.1698	3127.1775	3135.6695	3150.0093	3154.8791	3173.9708	3258.9024	3745.9402
CC12CC1OC1C(O)C21	C[C@]12C[C@H]1O[C@H]1[C@@H](O)[C@@H]21	
InChI=1S/C7H10O2/c1-7-2-3(7)9-6-4(7)5(6)8/h3-6,8H,2H2,1H3	InChI=1S/C7H10O2/c1-7-2-3(7)9-6-4(7)5(6)8/h3-6,8H,2H2,1H3/t3-,4-,5+,6-,7+/m1/s1
