21
gdb 120602	4.03565	0.69151	0.66843	3.8185	81.45	-0.2468	-0.0137	0.2331	1726.0978	0.179793	-424.226116	-424.215603	-424.214659	-424.262287	37.34	
C	-0.0363568529	 1.557640411	-0.0801969063	-0.46661
C	-0.0492262311	 0.0527444627	 0.0779636713	 0.212755
C	 1.2443507127	-0.7551465553	-0.0205457852	-0.329561
C	 0.5527546018	-0.6512798784	 1.2999424929	-0.04346
C	 1.1353537157	 0.122008099	 2.4630072558	-0.210606
C	 2.0925759157	-0.7302153695	 3.2923733501	-0.064449
O	 2.572089447	 0.0771237185	 4.3551684407	-0.42
C	-1.2470572922	-0.6277664955	-0.476171486	 0.126024
O	-2.1748471553	-0.0694515852	-1.0081527628	-0.270564
H	 0.9036184419	 1.9954035703	 0.2617656579	 0.115133
H	-0.1747612842	 1.8235042765	-1.131989142	 0.13449
H	-0.8558317552	 2.0180396012	 0.4797850883	 0.133057
H	 1.2248584137	-1.6990375295	-0.5559493789	 0.119649
H	 2.1470087508	-0.172414271	-0.173509127	 0.12455
H	 0.0084490087	-1.544642888	 1.6031659473	 0.090568
H	 1.6797930666	 1.0055139593	 2.1160800095	 0.111544
H	 0.3353215703	 0.4828959168	 3.1201100372	 0.115685
H	 1.5646831116	-1.6206581932	 3.671994344	 0.085664
H	 2.9160983003	-1.0881624976	 2.6538862623	 0.08989
H	 3.1752152068	-0.4498416972	 4.8871763657	 0.287362
H	-1.2335333426	-1.738928375	-0.3630483549	 0.058879
60.2882	85.3209	102.8117	118.9807	150.6981	237.982	258.7665	260.1768	293.9563	318.2141	389.6588	446.8792	485.7149	589.4959	760.2785	794.851	812.474	881.2845	915.1212	943.8327	988.9871	1013.0912	1040.2963	1064.319	1080.2546	1107.3803	1118.0059	1133.7268	1184.5147	1232.6783	1239.8447	1272.2901	1311.8205	1331.8098	1344.152	1416.816	1424.2262	1441.8453	1463.0781	1481.4242	1485.1658	1495.5823	1501.3158	1528.266	1815.957	2838.1079	2962.025	2989.8791	3041.5344	3049.6052	3088.0724	3111.9494	3113.9712	3125.8669	3130.7327	3212.1953	3832.2134
CC1(CC1CCO)C=O	C[C@]1(C[C@H]1CCO)C=O	
InChI=1S/C7H12O2/c1-7(5-9)4-6(7)2-3-8/h5-6,8H,2-4H2,1H3	InChI=1S/C7H12O2/c1-7(5-9)4-6(7)2-3-8/h5-6,8H,2-4H2,1H3/t6-,7+/m1/s1
