17
gdb 44027	3.14327	1.7145	1.55111	2.7136	77.54	-0.2397	-0.031	0.2087	912.1956	0.136121	-384.565508	-384.558802	-384.557858	-384.596494	27.577	
O	 0.0159052289	 0.017949266	-0.254829418	-0.279639
C	 0.0008825729	 1.1949200709	-0.070369278	 0.328967
C	-1.1302053272	 2.2273219062	 0.3028968806	-0.44152
C	-0.0028018368	 3.1100871883	 0.8883578445	 0.229243
C	 0.7544733472	 2.8508535698	 2.2072716206	-0.295653
C	 1.8758318718	 3.0725410095	 1.1746322012	-0.086501
C	 1.0393092832	 4.1792852795	 0.3887009524	-0.090682
C	 1.221846927	 3.4777107276	-0.9653859363	-0.291539
C	 1.0681905922	 2.319126737	 0.0517782391	 0.092521
H	-1.6081090827	 2.6342331235	-0.5936836297	 0.139135
H	-1.9073338842	 1.8713258586	 0.9833688324	 0.134299
H	 0.6441355982	 3.6012519785	 2.9959956145	 0.097435
H	 0.6833149136	 1.8414516777	 2.6270900302	 0.104849
H	 2.9593558585	 3.0833986938	 1.3209853873	 0.078835
H	 1.0489682816	 5.249764169	 0.6147170043	 0.075281
H	 0.4174123107	 3.6082250095	-1.6955556065	 0.100901
H	 2.1965437752	 3.5642171446	-1.4537908288	 0.104069
85.1439	278.8147	323.5382	380.5202	423.4163	450.7194	555.9543	573.0703	686.4433	716.6886	787.2	832.0558	861.0689	881.7547	894.9782	907.6606	944.7671	992.8396	1004.9536	1020.3676	1031.2138	1056.6808	1113.2711	1131.2404	1145.8649	1154.7711	1178.9785	1188.8046	1217.6387	1223.4809	1236.02	1260.6793	1274.9378	1431.4347	1509.1816	1510.7945	1880.0208	3036.9332	3045.57	3060.6576	3062.6946	3078.2606	3094.8137	3103.6847	3120.7516
O=C1CC23CC4C2CC134	O=C1C[C@]23C[C@@H]4[C@H]2C[C@]134	
InChI=1S/C8H8O/c9-6-3-7-1-5-4(7)2-8(5,6)7/h4-5H,1-3H2	InChI=1S/C8H8O/c9-6-3-7-1-5-4(7)2-8(5,6)7/h4-5H,1-3H2/t4-,5-,7-,8+/m1/s1
