16
gdb 35411	3.10243	1.60762	1.34563	4.4697	71.43	-0.2658	-0.0019	0.264	959.2352	0.125571	-400.691545	-400.684621	-400.683677	-400.722915	27.335	
N	-0.3117443637	-1.1731777983	-0.3195081032	-0.326183
C	-0.1682622698	-0.0415653639	-0.13265145	 0.292921
C	 0.0076882132	 1.3986630073	 0.0571124887	-0.044797
O	-0.1635462587	 1.8479236404	 1.4222695566	-0.301061
C	 1.0840231515	 2.6086195569	 1.3705366322	 0.106893
C	 2.3275299186	 1.9507598264	 1.9949391123	-0.060481
C	 2.2777438457	 0.4642327716	 1.8254176209	-0.291623
C	 2.631771692	 1.2960203662	 0.6251194404	-0.070019
C	 1.4281381915	 2.0247157945	-0.0074819436	-0.089462
H	-0.69820536	 1.9144194352	-0.6073127565	 0.127105
H	 0.9281538737	 3.6710694446	 1.5624126227	 0.092573
H	 2.9968871877	 2.4395700073	 2.6916243256	 0.094996
H	 3.122287761	-0.0664488357	 2.252839578	 0.122432
H	 1.3372135122	-0.0669731614	 1.9067294554	 0.148901
H	 3.5845354825	 1.1828237934	 0.1241701924	 0.101218
H	 1.6547194323	 2.6471816655	-0.8702362619	 0.096585
119.7456	142.4072	263.511	305.1623	403.2602	503.7486	557.3028	587.859	696.2532	737.4871	747.663	810.1905	879.4783	889.171	920.3943	934.9318	962.1438	983.9886	1013.7539	1033.5775	1046.5941	1072.6966	1075.7679	1098.5304	1175.7039	1196.2273	1212.8453	1244.603	1285.7344	1300.0411	1319.3129	1349.1547	1379.3914	1498.6234	2353.2914	3019.607	3103.4713	3139.6921	3142.6117	3188.4625	3198.2222	3226.5639
N#CC1OC2C3CC3C12	N#C[C@H]1O[C@H]2[C@H]3C[C@H]3[C@@H]12	
InChI=1S/C7H7NO/c8-2-5-6-3-1-4(3)7(6)9-5/h3-7H,1H2	InChI=1S/C7H7NO/c8-2-5-6-3-1-4(3)7(6)9-5/h3-7H,1H2/t3-,4+,5-,6+,7+/m1/s1
