19
gdb 80964	2.67523	1.19367	1.10925	2.9661	77.67	-0.2409	-0.0245	0.2163	1201.9997	0.15782	-422.983116	-422.974238	-422.973294	-423.016727	33.524	
C	-0.1290178335	 1.6112699151	 0.0485964337	-0.448296
C	 0.0232974168	 0.0969783969	 0.0156126573	 0.011529
C	 1.1946904925	-0.6057082419	-0.7524942164	-0.090911
C	 2.1620018163	-0.1524101789	 0.3803278693	-0.301702
C	 0.8629004138	-0.6587685415	 1.0807550055	 0.375094
O	 0.5440680391	-0.6663667532	 2.4189422587	-0.463686
C	 0.9372388578	-1.9011018848	 0.0899544867	-0.124138
C	-0.2435912588	-2.7905937817	-0.1482064241	 0.118558
O	-0.1895086889	-3.9898002256	-0.0055839336	-0.261911
H	 0.8089576306	 2.1494538324	 0.2000089097	 0.121134
H	-0.5664632775	 1.9662145209	-0.8906580822	 0.119857
H	-0.8092642456	 1.8993931625	 0.8567560336	 0.131976
H	-0.9572760737	-0.3467938592	-0.1659950285	 0.074719
H	 1.3900706596	-0.5790071031	-1.82206241	 0.090491
H	 3.0586568356	-0.762450085	 0.5176732971	 0.095448
H	 2.3926139249	 0.9094145481	 0.454038979	 0.103455
H	 1.2193868178	-1.1567821428	 2.9009003991	 0.290229
H	 1.8156642632	-2.5358620859	 0.238063712	 0.08083
H	-1.19244544	-2.3115751923	-0.4681511172	 0.077323
64.8751	157.2303	167.1073	199.7075	219.7035	276.6781	349.8339	399.1331	415.0816	436.4319	552.4731	629.4754	644.9688	732.9911	794.771	817.6586	903.7103	949.758	969.7163	1009.4163	1018.2768	1053.9364	1071.9737	1103.2769	1114.9578	1135.7167	1150.6353	1158.6544	1196.6096	1221.5504	1223.653	1290.1653	1328.8378	1369.6277	1413.8237	1430.2939	1464.8632	1495.9164	1502.2875	1533.1832	1804.6311	2901.7856	3041.245	3068.0032	3075.6843	3088.2893	3098.9884	3125.791	3145.2799	3150.7011	3805.5363
CC1C2CC1(O)C2C=O	C[C@H]1[C@H]2C[C@]1(O)[C@H]2C=O	
InChI=1S/C7H10O2/c1-4-5-2-7(4,9)6(5)3-8/h3-6,9H,2H2,1H3	InChI=1S/C7H10O2/c1-4-5-2-7(4,9)6(5)3-8/h3-6,9H,2H2,1H3/t4-,5+,6-,7+/m0/s1
