17
gdb 116121	2.66294	1.30508	0.91994	4.9986	65.41	-0.2781	0.0361	0.3142	1224.0699	0.13654	-496.141971	-496.133602	-496.132658	-496.175873	30.384	
O	 0.008296556	 1.4084337452	 0.0011250637	-0.418756
C	 0.0340371169	 0.0051897387	 0.1130944834	-0.067805
C	-1.3407223185	-0.6093509048	-0.1279925828	 0.11757
C	-1.3945992291	-2.1206829342	-0.0148830551	-0.259523
C	-2.8554903314	-2.5289197564	-0.0027163223	-0.073577
O	-3.5634199564	-1.8681281171	 1.0567065912	-0.252933
C	-3.273349322	-0.6037014961	 1.426290229	 0.477658
O	-3.9275637087	-0.0374199707	 2.2482991218	-0.359031
O	-2.2055742256	 0.0044946519	 0.8595791749	-0.290549
H	-0.6552023136	 1.7249566098	 0.6257350358	 0.300599
H	 0.7311456607	-0.3649068477	-0.6464040396	 0.114276
H	 0.3998330164	-0.3239783725	 1.0991951261	 0.098424
H	-1.7045178624	-0.2856642481	-1.1120190897	 0.104004
H	-0.8788755271	-2.5818406704	-0.8626359229	 0.125807
H	-0.903518135	-2.4548242973	 0.9061682135	 0.12718
H	-3.3383560137	-2.2835261055	-0.9572370884	 0.123044
H	-2.9897814066	-3.5963129647	 0.1840280014	 0.133613
54.1749	106.7212	125.3969	184.1899	260.6545	366.6341	432.4573	443.3866	486.6743	518.4632	556.6604	673.5588	763.4896	777.2654	907.1701	930.9404	961.913	986.2073	1063.3562	1096.9343	1104.549	1140.8711	1161.9561	1187.751	1228.1092	1247.0146	1268.811	1315.0332	1377.105	1396.0166	1402.4973	1428.2683	1438.8982	1473.6544	1495.3776	1518.4317	1881.7644	2978.1722	3026.5612	3030.2089	3048.6947	3076.6363	3102.0643	3111.1709	3798.0514
OCC1CCOC(=O)O1	OC[C@H]1CCOC(=O)O1	
InChI=1S/C5H8O4/c6-3-4-1-2-8-5(7)9-4/h4,6H,1-3H2	InChI=1S/C5H8O4/c6-3-4-1-2-8-5(7)9-4/h4,6H,1-3H2/t4-/m1/s1
