14
gdb 17144	4.27306	2.0025	1.6194	1.7346	68.93	-0.2314	0.0196	0.2511	787.4112	0.107697	-341.424383	-341.418141	-341.417196	-341.454559	24.935	
C	-0.0153171719	-1.1333142285	 0.0270343171	-0.376245
C	-0.0167583837	 0.0691377007	 0.0328003061	 0.096193
C	-0.040801396	 1.4972684626	 0.0407204685	 0.308424
N	-0.6900022607	 2.3335903907	 1.1135385997	-0.380258
C	-0.1549837583	 3.3454271049	 0.1488290975	-0.062875
C	 1.143302409	 2.5153988183	-0.1042705678	-0.053373
N	 1.0457705898	 2.5161878936	-1.5980119926	-0.341209
C	-0.3797287019	 2.485062328	-1.1426462781	-0.084701
H	-0.0065502484	-2.1952911858	 0.0228087548	 0.185967
H	-1.7084741179	 2.2662501808	 1.0327309758	 0.21361
H	-0.2592084687	 4.4221317367	 0.2862300218	 0.088467
H	 2.0802877899	 2.5191657927	 0.4511733944	 0.102222
H	 1.2769763718	 3.4443395515	-1.9619774411	 0.212597
H	-1.2346685729	 2.450391014	-1.820715966	 0.091179
145.3083	172.1883	399.2973	449.1412	517.7757	528.0776	599.7539	623.5797	665.4972	741.9104	785.8352	830.5258	853.3116	898.8114	903.5531	938.0904	986.772	1038.9654	1081.0642	1096.7122	1101.7991	1149.7476	1189.0345	1207.9836	1257.1546	1263.598	1290.1512	1300.0414	1356.6277	2237.3202	3100.975	3117.9047	3136.0951	3401.8421	3406.0687	3501.2182
C#CC12NC3C1NC23	C#C[C@@]12N[C@H]3[C@@H]1N[C@@H]23	
InChI=1S/C6H6N2/c1-2-6-4-3(8-6)5(6)7-4/h1,3-5,7-8H	InChI=1S/C6H6N2/c1-2-6-4-3(8-6)5(6)7-4/h1,3-5,7-8H/t3-,4-,5+,6+
