21
gdb 73688	2.11871	1.94849	1.47318	2.5579	76.53	-0.2447	0.0688	0.3134	1022.0633	0.184685	-424.258078	-424.250006	-424.249062	-424.291362	31.672	
C	-0.177162803	 1.5996246904	 0.1549339534	-0.430761
C	 0.0738872893	 0.1039375471	 0.0708984736	 0.482415
O	-1.1856603242	-0.5324311562	-0.0869748109	-0.278897
C	-1.1804303873	-1.7984942714	 0.5570594269	-0.093004
C	-0.2743681282	-1.6146393906	 1.7811237921	-0.230499
C	 0.7664361955	-0.5832196228	 1.2992399477	-0.113949
C	 2.071090402	-1.1604703663	 0.7128100206	-0.230496
C	 1.7819154367	-1.2252560113	-0.7922642908	-0.092996
O	 0.9199254413	-0.1251764066	-1.046288256	-0.278924
H	 0.766962262	 2.1374469969	 0.2706761362	 0.115793
H	-0.6617093225	 1.9389457416	-0.7639446893	 0.135123
H	-0.8317864792	 1.8281490105	 0.9994878495	 0.115793
H	-2.2141947386	-2.0494376741	 0.8116470206	 0.106219
H	-0.7994136283	-2.5825168806	-0.1146979077	 0.095329
H	-0.8555231574	-1.2012136468	 2.6109089005	 0.108137
H	 0.1750025616	-2.5506066298	 2.1235388985	 0.099955
H	 0.9819826789	 0.1452663688	 2.0821857633	 0.08113
H	 2.9020599154	-0.4734424984	 0.8990727403	 0.108133
H	 2.3404392132	-2.1311859546	 1.1375204155	 0.099957
H	 2.6731354421	-1.1035868343	-1.4146643474	 0.106221
H	 1.3031796608	-2.1758525313	-1.0720935167	 0.095321
25.5969	195.2272	220.3438	229.0716	270.5051	344.2868	406.1294	515.1377	559.1196	626.9469	634.0908	667.6887	792.0793	828.442	885.4028	892.9048	895.9076	929.331	950.0108	988.7924	1013.2579	1051.6	1064.348	1107.9945	1137.0838	1142.3202	1154.2302	1192.1355	1218.6197	1227.832	1237.6782	1268.7279	1307.4953	1317.5588	1344.0862	1352.2895	1390.4553	1391.0895	1409.1782	1481.2982	1485.2123	1489.8819	1498.8499	1521.7937	1538.6449	2982.6202	2995.5531	3052.2254	3053.3964	3053.635	3080.2231	3082.1623	3092.7624	3100.6716	3108.7476	3131.7544	3132.9407
CC12OCCC1CCO2	C[C@]12OCC[C@H]1CCO2	
InChI=1S/C7H12O2/c1-7-6(2-4-8-7)3-5-9-7/h6H,2-5H2,1H3	InChI=1S/C7H12O2/c1-7-6(2-4-8-7)3-5-9-7/h6H,2-5H2,1H3/t6-,7+
