16
gdb 15238	3.0934	1.56748	1.37436	3.8735	66.36	-0.2274	0.0223	0.2497	966.2468	0.129956	-379.899092	-379.890511	-379.889567	-379.932425	30.442	
C	 0.3293749917	 1.3368249863	 0.1880229438	-0.318933
N	-0.2958560892	 0.1243096957	-0.3416565759	-0.282487
C	 0.4872513635	-0.51365329	-1.3482188565	 0.010619
C	 1.6009927671	-1.4773392157	-1.0272215325	 0.067425
O	 1.815604579	-1.7012372876	 0.3241395944	-0.405899
C	 0.2884351276	-1.9958197323	-1.6518316476	-0.282866
C	-0.5695849369	-2.7873308507	-0.8229828828	 0.291312
N	-1.2355954481	-3.4363268789	-0.1332337208	-0.344589
H	 1.322151125	 1.1699605574	 0.6326457693	 0.118519
H	 0.435131121	 2.0719848464	-0.6176188063	 0.121218
H	-0.3259246015	 1.7702270507	 0.9481252433	 0.126165
H	-0.4807673491	-0.5249888695	 0.4152069938	 0.243196
H	 0.6307929267	 0.105677315	-2.2303381904	 0.111642
H	 2.4824132847	-1.5182143472	-1.6666641968	 0.10216
H	 1.9161908069	-2.6473236677	 0.4799012165	 0.305039
H	 0.3114729214	-2.2959013318	-2.6938601215	 0.137478
74.8179	100.6161	132.9994	187.0909	252.3511	282.5175	311.757	379.5156	411.8023	602.9706	645.1977	678.9608	716.5482	766.7683	792.5415	902.6947	995.0117	1020.0578	1055.0523	1111.1639	1127.0509	1147.4591	1161.1585	1217.7482	1262.0277	1303.8791	1348.7593	1370.1745	1424.9206	1458.9916	1488.679	1507.9818	1534.1388	2346.3673	2989.6335	3066.6554	3104.9757	3112.3517	3141.1237	3172.655	3541.8409	3795.0227
CNC1C(O)C1C#N	CN[C@H]1[C@@H](O)[C@H]1C#N	
InChI=1S/C5H8N2O/c1-7-4-3(2-6)5(4)8/h3-5,7-8H,1H3	InChI=1S/C5H8N2O/c1-7-4-3(2-6)5(4)8/h3-5,7-8H,1H3/t3-,4+,5-/m0/s1
