23
gdb 60066	2.90869	1.01095	0.96342	2.3653	81.51	-0.2467	0.051	0.2978	1391.7457	0.204464	-425.420139	-425.410163	-425.409219	-425.454883	38.402	
C	-0.2527538594	 1.5637754432	 0.468260683	-0.399458
C	-0.1206966475	 0.1455066876	-0.0788509196	 0.120533
O	 0.9713579186	-0.5507272085	 0.5426145183	-0.439059
C	-1.4374913001	-0.6470802171	-0.0005219191	-0.283759
C	-1.2542695998	-2.1678919685	-0.1882543341	 0.445851
O	-0.3002682279	-2.4535814261	-1.1887339638	-0.492747
C	-1.0999857605	-2.9525647088	 1.1582131597	-0.269428
C	-2.6063404066	-3.3146094049	 1.0851416631	-0.215844
C	-2.5902475539	-2.9208424551	-0.4161757989	-0.259551
H	 0.6911847526	 2.1053292951	 0.3626062608	 0.124875
H	-1.0336950218	 2.1172928471	-0.0632969585	 0.120889
H	-0.5235617704	 1.5474985921	 1.5313579462	 0.107193
H	 0.1805830652	 0.1944630596	-1.1301909955	 0.103658
H	 0.7742018471	-0.6456307224	 1.4811114111	 0.282845
H	-1.9392184282	-0.4545540796	 0.9577728815	 0.088075
H	-2.1028985689	-0.2598070169	-0.7821265406	 0.103872
H	 0.5435142217	-2.1263707284	-0.8476035397	 0.286356
H	-0.4606394155	-3.8253949478	 1.0037381288	 0.10632
H	-0.7504862963	-2.4072551186	 2.0400025074	 0.067441
H	-2.8830793119	-4.3420616013	 1.3290362175	 0.100329
H	-3.2263113322	-2.6415750511	 1.6837323591	 0.099733
H	-3.4331335367	-2.3430768893	-0.8047195976	 0.090113
H	-2.4169164474	-3.7818703704	-1.0660049891	 0.111765
71.7563	91.7191	116.7577	179.852	247.9458	285.5523	307.0364	329.1909	345.6755	420.6552	436.5666	460.9733	513.8004	606.3589	657.6228	751.6022	789.1659	823.8471	865.5165	878.5119	916.3429	937.364	957.2772	983.2363	995.8852	1032.7924	1064.4142	1092.5168	1117.09	1163.6259	1190.9054	1198.9605	1228.5472	1248.6838	1269.2057	1279.8263	1297.2335	1307.8336	1331.7159	1372.293	1400.3948	1404.4427	1437.0174	1465.6999	1478.9019	1481.6505	1491.6952	1494.881	1503.3839	3011.2667	3025.694	3045.9292	3048.6704	3057.4476	3064.9533	3066.2814	3096.9277	3100.7314	3112.5674	3118.4902	3125.9345	3748.4731	3802.0105
CC(O)CC1(O)CCC1	C[C@@H](O)CC1(O)CCC1	
InChI=1S/C7H14O2/c1-6(8)5-7(9)3-2-4-7/h6,8-9H,2-5H2,1H3	InChI=1S/C7H14O2/c1-6(8)5-7(9)3-2-4-7/h6,8-9H,2-5H2,1H3/t6-/m1/s1
