25
gdb 108576	2.30491	1.31161	1.1344	0.0986	92.12	-0.2482	0.0796	0.3277	1290.3124	0.230089	-352.369793	-352.360057	-352.359113	-352.404099	37.419	
C	 0.2664864211	 1.4734395263	 0.2592893475	-0.374927
C	-0.0789953485	 0.0277253519	-0.1218429994	-0.271705
C	 0.6585152523	-0.4696955428	-1.3497324711	 0.358101
C	 0.3086768957	 0.1795622857	-2.6911967028	-0.273057
C	 0.5611753475	-0.879859779	-3.796808572	-0.225903
C	 0.6559788542	-2.2518456172	-3.0788763374	-0.219273
C	 0.8972864754	-1.9470214201	-1.6075887475	-0.116348
C	 2.0478111044	-1.0557559677	-1.1821244689	-0.040528
C	 3.2759580091	-0.7217254186	-2.0050025224	-0.427857
H	 1.3381055088	 1.5810251591	 0.4587775736	 0.114558
H	 0.0081164717	 2.1703318974	-0.5449123284	 0.116101
H	-0.2761486755	 1.7872491388	 1.1567022823	 0.107515
H	 0.1469785679	-0.6324906555	 0.7248741891	 0.088965
H	-1.1619720942	-0.0535683968	-0.2922506959	 0.087724
H	-0.7509915667	 0.4623108658	-2.6675911785	 0.094087
H	 0.8700249445	 1.1013119095	-2.881284406	 0.095206
H	-0.2355295677	-0.8728322719	-4.5463544753	 0.094874
H	 1.4849895724	-0.6634379995	-4.338969436	 0.105785
H	-0.2877494575	-2.8013670055	-3.1722252945	 0.097343
H	 1.4314339648	-2.8886880882	-3.5198474828	 0.094982
H	 0.5596303597	-2.6868100126	-0.8871265257	 0.070383
H	 2.3024509979	-1.2006796226	-0.1326280915	 0.074503
H	 3.0533141599	-0.4826624774	-3.0460125359	 0.119231
H	 3.7966490192	 0.1436394861	-1.5792637285	 0.114962
H	 3.9826871734	-1.5597112952	-2.0046028918	 0.115278
80.3695	137.3242	146.2056	163.1079	175.2085	229.2692	253.7734	313.6538	359.8193	453.3297	498.1131	584.8143	669.8142	700.4003	749.532	782.9442	823.738	846.2897	894.7905	907.4255	944.5314	972.8356	996.3226	1010.6705	1037.6328	1065.9916	1084.4715	1099.9927	1116.6534	1130.2896	1139.3976	1191.2675	1218.8352	1252.0566	1260.0137	1265.8731	1309.07	1327.1265	1329.4332	1353.4945	1367.2464	1371.1104	1407.5316	1417.271	1458.0409	1480.4967	1487.1919	1492.1234	1499.1874	1501.2367	1507.351	1508.8056	1520.3963	3003.4804	3023.7394	3030.0617	3031.389	3032.3434	3042.6107	3054.1941	3060.8181	3062.2195	3080.8347	3097.0547	3099.993	3101.3054	3102.1677	3137.949	3143.313
CCC12CCCC1C2C	CC[C@]12CCC[C@H]1[C@H]2C	
InChI=1S/C9H16/c1-3-9-6-4-5-8(9)7(9)2/h7-8H,3-6H2,1-2H3	InChI=1S/C9H16/c1-3-9-6-4-5-8(9)7(9)2/h7-8H,3-6H2,1-2H3/t7-,8+,9-/m1/s1
