18
gdb 45163	2.89698	1.78835	1.53668	3.4212	74.81	-0.2354	-0.0205	0.2149	921.1762	0.151463	-401.972895	-401.966416	-401.965472	-402.003654	27.031	
O	 0.0204055697	 0.0136369711	-0.4294924779	-0.3355
C	-0.0094138205	 1.169678141	-0.0708034562	 0.41714
C	-1.3083505176	 1.9331447473	 0.1795120358	-0.330117
C	-1.0001278678	 3.3617303179	 0.6452641892	-0.062026
C	-0.1062330318	 3.2980769319	 1.9033370967	-0.239536
C	 1.2461714724	 2.9579104582	 1.2950520415	-0.032291
C	 1.2406086882	 1.9507963949	 0.1742134487	-0.13649
N	 1.2953391481	 3.4155819459	-0.0942799952	-0.112169
C	-0.035882404	 3.9981053096	-0.3771663959	-0.163819
H	-1.8922813902	 1.9254232234	-0.7481438802	 0.129812
H	-1.8928286989	 1.3762863834	 0.9211305023	 0.129111
H	-1.912599949	 3.9417139839	 0.7977995983	 0.078453
H	-0.0506550228	 4.2697948871	 2.4058300974	 0.111081
H	-0.4508892364	 2.5616138309	 2.6357840236	 0.111417
H	 2.1512720346	 3.066932672	 1.8846008469	 0.102697
H	 2.1568087295	 1.4207730721	-0.0652771313	 0.107322
H	-0.3202288489	 3.809677476	-1.4170286207	 0.112926
H	 0.0489456153	 5.0807326433	-0.237321753	 0.111991
100.9102	327.4169	348.2015	408.7292	440.9153	484.5102	559.4783	594.4495	679.3842	735.5252	743.4507	844.7496	849.6425	892.9312	910.3246	917.4875	934.1794	993.4838	1009.9841	1050.9053	1062.8401	1083.6973	1097.3594	1163.5225	1179.2302	1203.7611	1227.0052	1255.3123	1272.5808	1294.6512	1320.4508	1339.4889	1342.7574	1364.607	1387.7608	1445.9485	1490.8459	1507.5768	1800.4865	3039.5269	3045.3921	3048.7388	3079.2106	3089.3966	3091.5232	3095.0385	3158.2261	3170.9669
O=C1CC2CC3C1N3C2	O=C1C[C@H]2C[C@H]3[C@@H]1N3C2	
InChI=1S/C7H9NO/c9-6-2-4-1-5-7(6)8(5)3-4/h4-5,7H,1-3H2	InChI=1S/C7H9NO/c9-6-2-4-1-5-7(6)8(5)3-4/h4-5,7H,1-3H2/t4-,5+,7+,8?/m1/s1
