17
gdb 77047	3.21142	1.03224	0.84382	3.883	74.48	-0.2777	0.0111	0.2887	1338.8269	0.135545	-418.025889	-418.016965	-418.016021	-418.060316	31.875	
C	-0.2474949072	 1.556774457	 0.1552010969	-0.412684
C	-0.0796840855	 0.0470347506	 0.034518453	-0.162448
C	 0.5798321931	-0.5960712381	-1.2190544296	 0.120661
C	 1.1730296661	 0.3282262449	-2.2821784058	-0.361564
C	 1.9136929046	-0.4084992585	-3.3045380976	 0.268838
N	 2.4873373308	-0.9967058203	-4.1162821827	-0.292684
O	 1.6189913885	-1.1790659329	-0.3756586192	-0.26266
C	 1.0920530655	-0.5883721454	 0.760363766	 0.441839
N	 1.4904480429	-0.5954820945	 1.9463570029	-0.539017
H	 0.6768607038	 2.0951083249	-0.0716973384	 0.127848
H	-1.0358075226	 1.923134346	-0.509844435	 0.124967
H	-0.5265391004	 1.8080519568	 1.1817121252	 0.151768
H	-1.0185494316	-0.4547245991	 0.285726645	 0.11992
H	-0.0065900401	-1.3892938708	-1.6898900604	 0.115693
H	 0.3647566968	 0.8870653269	-2.7683798062	 0.160872
H	 1.8416589419	 1.057982076	-1.8155620399	 0.163351
H	 2.3460681934	-1.1419241337	 2.0570097358	 0.2353
59.1933	85.7681	121.3407	191.3298	213.4774	240.5795	350.8509	390.08	427.2007	497.1503	537.4299	645.2734	738.1216	806.7934	845.0946	871.0098	904.836	944.3337	985.2378	1022.3974	1035.8488	1076.1649	1129.9525	1154.1479	1218.2995	1235.1048	1241.3854	1292.1876	1343.4341	1365.0318	1399.2556	1414.7646	1450.1624	1493.8183	1500.7498	1832.5351	2368.3976	3043.7214	3050.2074	3069.0591	3082.2807	3100.9299	3115.9318	3124.6959	3481.6929
CC1C(CC#N)OC1=N	C[C@H]1[C@@H](CC#N)O[C]1[NH]	
InChI=1S/C6H8N2O/c1-4-5(2-3-7)9-6(4)8/h4-5,8H,2H2,1H3	InChI=1S/C6H8N2O/c1-4-5(2-3-7)9-6(4)8/h4-5,8H,2H2,1H3/t4-,5+/m0/s1
