21
gdb 66644	3.84039	1.50753	1.38059	0.2546	85.1	-0.2253	0.0959	0.3212	1031.8996	0.18549	-349.927406	-349.920238	-349.919293	-349.958553	29.971	
C	 0.0383313838	 1.5513380157	 0.0281085335	-0.528788
C	-0.0099907785	 0.0601668906	 9.4537*^-6	 0.348997
C	 0.9213282051	-0.9852247573	-0.5688539523	-0.126468
C	 0.539250682	-1.0009494601	 0.9253137993	-0.126471
C	-0.7791169045	-1.78403229	 0.9769378027	-0.00947
C	-0.6767982618	-3.269155871	 0.601093073	-0.227702
C	-0.2895043019	-3.2532733912	-0.9128252606	-0.227708
C	-0.2064718104	-1.760524834	-1.262355953	-0.009475
C	-1.1598092707	-0.9773659713	-0.3049320801	-0.139233
H	 1.043544463	 1.9015724134	 0.2886183927	 0.119303
H	-0.2190224355	 1.9834913359	-0.9464295144	 0.117564
H	-0.6570710698	 1.9653799594	 0.7681740185	 0.117564
H	 1.9521652399	-0.8682388893	-0.88174269	 0.073779
H	 1.292799451	-0.8953562278	 1.6968206311	 0.073779
H	-1.3796951502	-1.5641830085	 1.8620822516	 0.057349
H	 0.0627264504	-3.7904910274	 1.2173637104	 0.094653
H	-1.6343658085	-3.778806828	 0.7545225956	 0.090851
H	 0.6578449028	-3.7658829792	-1.1083784425	 0.094658
H	-1.0530691596	-3.7551846529	-1.5171967149	 0.090851
H	-0.3095911566	-1.5202765109	-2.3226164451	 0.057349
H	-2.1933469902	-0.757318496	-0.5669259092	 0.058616
164.8754	207.8135	215.6976	223.3351	383.3276	492.6358	542.0872	652.0927	696.7424	750.5278	758.1141	791.2913	843.8645	855.3965	887.2475	889.5992	910.4952	919.5409	933.0915	990.4988	998.3711	1026.1236	1034.1534	1049.9804	1061.4011	1105.9508	1127.2509	1141.5988	1153.1905	1184.9835	1215.8939	1218.4709	1240.5977	1262.1363	1264.4288	1292.5775	1320.349	1340.7062	1356.8702	1411.9755	1465.0974	1483.6034	1484.2512	1498.4448	1504.0072	3015.475	3032.0212	3044.2029	3066.2054	3071.7488	3085.2683	3086.9115	3087.6721	3090.598	3127.7415	3175.9469	3186.4127
CC12C3C1C1CCC3C21	C[C@@]12[C@H]3[C@@H]1[C@@H]1CC[C@H]3[C@H]21	
InChI=1S/C9H12/c1-9-6-4-2-3-5(6)8(9)7(4)9/h4-8H,2-3H2,1H3	InChI=1S/C9H12/c1-9-6-4-2-3-5(6)8(9)7(4)9/h4-8H,2-3H2,1H3/t4-,5+,6-,7+,8-,9+
