16
gdb 128219	6.65671	0.86158	0.76974	5.7333	78.71	-0.2085	-0.0406	0.1679	1424.8927	0.125238	-434.087554	-434.079152	-434.078208	-434.121022	30.158	
C	-0.0126298976	 1.4477423367	 0.1443093632	-0.330148
N	 0.0174223958	 0.0344698635	-0.1974527116	-0.392516
C	-1.1515062351	-0.7043287675	-0.089634214	 0.212553
C	-1.3050277649	-2.0665174364	-0.0120550726	-0.132962
N	-2.6675457209	-2.3110855679	 0.0165113564	-0.011091
C	-3.2625544435	-3.5735723409	 0.095857062	 0.190763
O	-4.4406708422	-3.7858315251	 0.125950454	-0.265308
N	-3.3938821272	-1.1688368406	-0.0349038548	-0.227364
C	-2.4958244457	-0.2055013152	-0.0973219016	-0.023329
H	 0.9955787694	 1.8553892561	 0.0438231185	 0.129994
H	-0.656038214	 1.9897999552	-0.5562437719	 0.139565
H	-0.3720370319	 1.649851748	 1.1653332152	 0.11817
H	 0.8313141534	-0.4458060715	 0.1557669032	 0.239134
H	-0.5885737481	-2.871028797	 0.0206401433	 0.136689
H	-2.4841021492	-4.3590479764	 0.1273485716	 0.092706
H	-2.8204611583	 0.8236438289	-0.1461732307	 0.123142
65.4881	108.4208	165.7605	195.8629	264.2331	272.9389	345.7182	391.8693	492.9107	617.4451	622.8516	672.3637	705.4228	735.6744	829.3478	882.0289	977.3911	1001.7894	1022.3053	1081.6759	1147.7525	1157.6427	1205.2384	1256.0918	1301.3275	1386.1608	1402.1649	1441.7605	1457.4902	1479.4933	1489.8534	1504.1429	1524.8537	1664.1929	1847.3737	2961.4788	2983.2712	3072.2916	3123.8522	3246.8198	3265.5905	3602.8002
CNC1=CN(C=O)N=C1	CNc1cn(C=O)nc1	
InChI=1S/C5H7N3O/c1-6-5-2-7-8(3-5)4-9/h2-4,6H,1H3	InChI=1S/C5H7N3O/c1-6-5-2-7-8(3-5)4-9/h2-4,6H,1H3
