23
gdb 58756	2.40641	1.33384	1.13704	1.2689	85.85	-0.2552	0.0732	0.3284	1235.1064	0.20508	-388.246365	-388.236823	-388.235878	-388.280537	36.94	
C	-0.029410917	 1.8445910015	 0.7749169373	-0.405955
C	-0.0706940745	 0.325967694	 0.5944376928	-0.021172
O	 0.2810461344	-0.0515843101	-0.7369555736	-0.429225
C	 0.785886789	-0.4129443003	 1.5985144435	 0.357686
C	 2.339580414	-0.3189763016	 1.7715778538	-0.279323
C	 1.8599295359	-1.3588445735	 2.8233613181	-0.063948
C	 0.7069502725	-0.3703943771	 3.1580817868	-0.285563
C	 0.9651691236	-1.9685839115	 1.6972586586	 0.028347
C	-0.2041090267	-2.8933452421	 1.9990556436	-0.449866
H	 0.9955128483	 2.2211407232	 0.6726685486	 0.108135
H	-0.6488921168	 2.3287481942	 0.0153652187	 0.122216
H	-0.3958884497	 2.1372033228	 1.7639385647	 0.11867
H	-1.107497116	-0.0170587335	 0.7075421989	 0.08728
H	 1.2012978498	 0.2013952779	-0.8717986848	 0.276925
H	 2.95328313	-0.7042836103	 0.9510614198	 0.083824
H	 2.7358282928	 0.6219245106	 2.1634282522	 0.087427
H	 2.4869340415	-1.9002119438	 3.533638288	 0.067023
H	 1.0020420267	 0.5707037447	 3.6310217537	 0.088091
H	-0.1902401627	-0.7724706661	 3.6307863991	 0.092161
H	 1.5459480333	-2.3768164561	 0.8623110331	 0.062236
H	-0.8324649801	-2.5511944968	 2.8254828556	 0.114157
H	-0.8442286474	-2.9963071388	 1.1159368143	 0.12527
H	 0.1589212093	-3.8949233176	 2.2555952972	 0.115604
53.2958	137.6604	167.3879	190.1851	239.1604	259.5184	285.9393	328.2224	370.0447	442.6435	487.9223	544.2758	582.7717	653.8694	769.0355	797.4127	821.9412	881.7696	906.4258	942.7062	961.4294	997.5071	1006.4232	1021.4588	1045.8125	1081.6041	1087.6207	1108.1011	1119.0749	1141.4674	1148.4799	1157.6418	1180.1479	1216.1617	1237.1515	1248.2661	1290.3372	1307.8038	1361.7494	1400.5533	1405.979	1416.0533	1425.3904	1489.9382	1490.6455	1494.706	1495.4844	1509.8111	1543.1114	3024.7055	3030.5522	3031.961	3035.6989	3040.5396	3059.0302	3089.957	3097.674	3098.337	3104.567	3110.2437	3119.7929	3126.8989	3797.4422
CC(O)C12CC(C1)C2C	C[C@@H](O)[C@@]12C[C@@H](C1)[C@H]2C	
InChI=1S/C8H14O/c1-5-7-3-8(5,4-7)6(2)9/h5-7,9H,3-4H2,1-2H3	InChI=1S/C8H14O/c1-5-7-3-8(5,4-7)6(2)9/h5-7,9H,3-4H2,1-2H3/t5-,6-,7-,8-/m1/s1
