24
gdb 116802	4.60072	0.55495	0.51952	2.6232	91.6	-0.2426	0.0301	0.2726	2250.8991	0.21437	-405.555722	-405.544177	-405.543233	-405.594258	40.542	
C	 0.2718694502	 0.7448130554	-0.8700548513	-0.396168
C	-0.3157723789	 0.2415205647	 0.4529979129	-0.10923
N	-1.5099184671	-0.5858207198	 0.4248775621	-0.228713
C	-2.0466537615	-0.9003305086	-0.6669114207	 0.126897
O	-3.1562941701	-1.6712272888	-0.6763344313	-0.211356
C	-3.7065926928	-1.962708496	-1.9619078673	-0.063272
C	-4.8977626336	-2.9001451166	-1.7802230505	 0.019973
C	-5.596317017	-3.1233029965	-3.127234516	-0.394751
C	-4.4730968429	-4.2244703321	-1.1338445222	-0.38459
H	 1.1584805876	 1.3534371055	-0.6681313032	 0.114915
H	 0.57844395	-0.0798096039	-1.5227645393	 0.117865
H	-0.4397766273	 1.368787815	-1.4215803848	 0.11796
H	 0.4529350172	-0.3252023299	 0.9956456226	 0.111627
H	-0.5403878937	 1.102835751	 1.0964626053	 0.111729
H	-1.7022460865	-0.608176549	-1.6672689724	 0.073714
H	-4.023888552	-1.0303311939	-2.4500289435	 0.09945
H	-2.9439297293	-2.4362063703	-2.5988419547	 0.098486
H	-5.5976446104	-2.3937028494	-1.1026741751	 0.090689
H	-4.9255162277	-3.612091803	-3.8438856839	 0.114574
H	-6.4727374221	-3.7668226004	-3.0059893937	 0.119085
H	-5.9325209897	-2.1803161955	-3.5715438203	 0.112728
H	-3.7885570338	-4.7763654997	-1.789901281	 0.107239
H	-3.9641798619	-4.0500275763	-0.1832434467	 0.140277
H	-5.3423310368	-4.8633232818	-0.9487862152	 0.110872
15.9505	53.8832	91.4077	137.519	157.0444	189.0125	220.8665	242.6424	247.0415	310.2282	325.8571	340.4335	412.0566	442.7428	494.1869	627.4042	778.9042	834.6197	890.0144	923.3293	935.6502	964.2931	975.8858	982.4783	1043.9465	1091.5388	1094.4376	1147.1764	1156.4395	1186.4823	1202.0544	1248.1219	1277.2361	1313.9211	1330.0396	1374.7028	1377.2166	1393.4838	1400.0825	1404.7286	1420.2949	1438.8254	1484.5661	1489.1262	1491.4969	1494.621	1504.375	1506.6672	1510.682	1514.9907	1779.2268	2981.2128	3012.7489	3017.2075	3026.074	3028.3456	3029.9163	3031.8893	3035.986	3038.673	3090.4791	3096.0203	3098.2549	3106.0916	3106.2586	3128.3656
CCN=COCC(C)C	CCN=COCC(C)C	
InChI=1S/C7H15NO/c1-4-8-6-9-5-7(2)3/h6-7H,4-5H2,1-3H3	InChI=1S/C7H15NO/c1-4-8-6-9-5-7(2)3/h6-7H,4-5H2,1-3H3
