15
gdb 29173	2.29044	1.83251	1.02452	6.5065	70.38	-0.2138	-0.0251	0.1887	1091.2065	0.112804	-454.023851	-454.015613	-454.014669	-454.056693	30.034	
C	-0.0267828365	 1.5090166133	 0.0631335894	-0.500504
C	-0.0102085414	 0.0219177122	-0.021904704	 0.314198
C	-0.0282845231	-0.7709976774	-1.1069827026	-0.166468
N	-0.0010704709	-2.0999365002	-0.692407392	-0.376904
C	 0.0364726397	-2.2030733928	 0.6858639179	 0.488553
O	 0.0654920599	-3.2000591274	 1.3592149573	-0.37769
N	 0.0297271329	-0.8328520382	 1.1102785626	-0.220689
C	 0.0579398374	-0.4064293758	 2.4378048424	 0.16154
O	 0.091325696	-1.1189986169	 3.4027532385	-0.265679
H	 0.8650697736	 1.9082190826	 0.5604308663	 0.143347
H	-0.0578418	 1.9236089013	-0.9472864241	 0.139725
H	-0.9018074125	 1.8859956068	 0.6056252987	 0.143361
H	-0.0586727035	-0.4986292684	-2.1483782571	 0.149075
H	-0.0070036178	-2.9164477209	-1.2774966009	 0.274154
H	 0.0448087761	 0.6968955218	 2.4988129976	 0.093983
92.2332	157.8763	214.8624	228.6818	235.4619	283.1789	295.9705	449.5403	477.7191	539.4692	606.0636	609.9704	740.206	771.8774	786.1396	798.9255	996.6602	1024.4406	1064.2786	1068.9508	1092.0919	1154.4718	1294.5031	1314.7646	1379.5788	1408.0134	1423.2039	1457.4323	1476.8803	1499.9484	1707.7427	1805.3019	1890.2645	2970.594	3025.3601	3073.7191	3122.0901	3281.2677	3695.4071
CC1=CNC(=O)N1C=O	Cc1c[nH]c(=O)n1C=O	
InChI=1S/C5H6N2O2/c1-4-2-6-5(9)7(4)3-8/h2-3H,1H3,(H,6,9)	InChI=1S/C5H6N2O2/c1-4-2-6-5(9)7(4)3-8/h2-3H,1H3,(H,6,9)
