17
gdb 126489	1.95723	1.67238	1.00074	2.5414	70.06	-0.2907	-0.0418	0.2488	1181.9746	0.135607	-455.110079	-455.101294	-455.100349	-455.144178	31.453	
C	 0.1103167475	 1.5682169615	 0.1233474203	-0.394434
C	-0.1146743094	 0.0611737692	-0.0950707402	-0.298361
C	 0.6998651045	-0.4894464491	-1.2238727403	 0.2704
N	 0.1783509849	-0.7811372199	-2.3850634542	-0.142757
O	 1.2093401913	-1.2380138196	-3.1647425973	-0.156129
N	 2.3849399659	-1.2323236966	-2.4761706618	-0.137022
C	 2.1043090025	-0.7804225521	-1.2834578051	 0.232944
C	 3.1701852519	-0.6114087497	-0.2417665716	-0.181729
O	 3.4439109318	 0.7554044801	 0.0407731822	-0.396571
H	 1.1643163483	 1.7744518467	 0.3246457423	 0.148405
H	-0.1908965541	 2.1348840767	-0.7627277821	 0.129111
H	-0.4840011252	 1.9198665764	 0.9713649264	 0.120152
H	 0.1384806464	-0.4833602974	 0.8224496752	 0.117159
H	-1.1682701762	-0.1400221159	-0.3073085332	 0.134086
H	 2.842416566	-1.0473339666	 0.7068901541	 0.130312
H	 4.068313112	-1.1499125796	-0.5685017846	 0.130094
H	 3.7804443018	 1.1587934159	-0.7670039701	 0.294341
64.9706	93.5203	158.4377	168.4844	210.5553	275.4006	345.4224	367.4642	419.0371	495.4981	633.8261	649.9891	708.5977	800.2695	812.1887	908.2621	940.3895	967.7982	978.095	1038.6478	1071.4681	1086.6503	1107.1825	1202.039	1239.8067	1287.4223	1353.9902	1373.4073	1411.5183	1418.708	1443.415	1480.5321	1495.4898	1499.8421	1507.7265	1523.4764	1617.8106	3033.2493	3039.3443	3045.8124	3090.3462	3095.23	3118.1667	3135.6585	3809.3262
CCC1=NON=C1CO	CCc1nonc1CO	
InChI=1S/C5H8N2O2/c1-2-4-5(3-8)7-9-6-4/h8H,2-3H2,1H3	InChI=1S/C5H8N2O2/c1-2-4-5(3-8)7-9-6-4/h8H,2-3H2,1H3
