18
gdb 32533	2.57665	1.26184	0.85614	1.3091	75.54	-0.1869	0.0576	0.2445	1321.8681	0.147342	-439.096484	-439.087009	-439.086065	-439.131702	33.895	
C	-0.0383053943	 1.3423090181	 0.0585002915	-0.24273
O	-0.0037065358	-0.0676983173	 0.0125670389	-0.267826
C	 0.6175700795	-0.5983322777	-1.0770263849	 0.255376
C	 1.2180845304	 0.0366828917	-2.1441585357	-0.21705
N	 1.6957476713	-0.9586217758	-2.9735369795	-0.263459
C	 1.4059436496	-2.1885322161	-2.4490301973	-0.140438
C	 0.7328941776	-2.0061485832	-1.2635638692	 0.150136
C	 0.2176674531	-3.0633878765	-0.341969072	-0.193724
O	 0.5419997448	-4.3356276137	-0.8875643238	-0.423418
H	 0.9758303833	 1.7663613809	 0.0749756413	 0.114829
H	-0.577404656	 1.7569289308	-0.8052345204	 0.114818
H	-0.5602343348	 1.6189505744	 0.9765041754	 0.12787
H	 1.3458766649	 1.0780108757	-2.3819487189	 0.115178
H	 2.1836467332	-0.7990730126	-3.8355900792	 0.258066
H	 1.6921804128	-3.1012866819	-2.9426731197	 0.132774
H	 0.6598688078	-2.9371356379	 0.6606292285	 0.096532
H	-0.8723477032	-2.9530039166	-0.2138633917	 0.096459
H	 0.2043148457	-5.0072848124	-0.2890198533	 0.286608
28.8184	95.7803	141.9747	205.7409	222.7571	251.502	253.7226	318.523	353.0309	394.5077	568.2936	614.624	624.7602	633.1619	700.4766	755.7234	760.0377	912.1318	1046.9889	1051.1134	1070.0235	1087.4238	1144.9108	1182.7041	1195.6527	1212.0539	1230.9426	1238.8837	1270.9508	1346.5537	1414.6283	1467.7456	1473.4688	1484.3628	1485.0757	1510.4183	1520.5021	1579.7004	1638.6864	2953.3495	2965.6148	2989.5422	3041.1122	3127.3289	3282.4057	3286.7073	3701.5728	3839.8713
COC1=CNC=C1CO	COc1c[nH]cc1CO	
InChI=1S/C6H9NO2/c1-9-6-3-7-2-5(6)4-8/h2-3,7-8H,4H2,1H3	InChI=1S/C6H9NO2/c1-9-6-3-7-2-5(6)4-8/h2-3,7-8H,4H2,1H3
