20
gdb 119496	4.16446	1.00021	0.93355	2.3808	79.44	-0.2191	0.0709	0.29	1345.4662	0.169681	-403.046503	-403.037884	-403.036939	-403.080285	32.961	
C	 0.0124332873	 1.5102097334	 0.0952108887	-0.388067
C	-0.153744521	 0.0026145176	 0.1538311238	-0.060357
O	 0.8456254023	-0.5214348601	 1.0280771191	-0.285454
C	 0.8133427111	-1.8882973167	 1.1433979701	 0.444696
C	-0.1674845479	-2.6415593764	 2.0022477064	-0.371985
C	 1.3252554171	-2.7512078124	 2.2542205647	-0.103433
N	 2.1455473605	-3.6150489312	 1.3086991113	-0.136954
C	 1.2817868674	-4.2506987789	 0.2917825264	-0.248223
C	 1.5863069633	-2.8102531965	 0.1663908957	-0.109921
H	 1.0024953471	 1.7737993847	-0.2872462353	 0.12918
H	-0.7430195601	 1.9506933229	-0.5622048702	 0.116522
H	-0.0964935599	 1.9470106441	 1.0919777985	 0.128322
H	-1.150959049	-0.2720519919	 0.5284674135	 0.09542
H	-0.0462845711	-0.4410138014	-0.8477062121	 0.09554
H	-0.6408316637	-1.9995294086	 2.7399441272	 0.12298
H	-0.800516612	-3.4533110387	 1.6603389108	 0.111701
H	 1.7746812567	-2.5085485885	 3.2079741245	 0.113511
H	 1.8453989476	-4.9288729921	-0.3438073083	 0.123383
H	 0.2912039547	-4.6109114535	 0.5440550851	 0.120183
H	 2.2496423897	-2.4001376359	-0.5890768597	 0.102954
59.0017	82.4011	129.5718	245.3695	276.2652	332.5462	368.4544	424.3094	470.3341	531.7439	671.2314	683.542	758.7039	800.6902	817.972	852.8001	891.4536	906.9309	964.3014	980.2261	1008.0077	1025.5092	1041.6246	1062.0587	1075.3876	1097.8436	1110.865	1137.7761	1147.4708	1184.8232	1198.8293	1225.1382	1254.8145	1292.1793	1324.8129	1380.7909	1404.8008	1430.7544	1483.739	1485.4484	1499.2648	1522.6326	1527.527	2983.2842	3015.8348	3045.7136	3118.8182	3120.484	3122.8889	3130.5299	3157.5201	3199.1266	3204.5692	3212.6108
CCOC12CC1N1CC21	CCO[C@]12C[C@H]1N1C[C@@H]21	
InChI=1S/C7H11NO/c1-2-9-7-3-5(7)8-4-6(7)8/h5-6H,2-4H2,1H3	InChI=1S/C7H11NO/c1-2-9-7-3-5(7)8-4-6(7)8/h5-6H,2-4H2,1H3/t5-,6+,7-,8?/m1/s1
