20
gdb 64045	2.48742	1.68346	1.36734	1.5051	79.22	-0.2318	0.0066	0.2383	1035.2489	0.171933	-403.140357	-403.132097	-403.131153	-403.172446	33.521	
C	 0.0907187022	 1.5652598107	 0.0050626167	-0.413182
C	 0.0216674871	 0.0412528435	-0.026964965	 0.353738
O	-1.3704338367	-0.2929763043	 0.0272307136	-0.469802
C	 0.6510342415	-0.5144065749	-1.3265897054	-0.287952
C	 0.7842650071	-2.016338743	-1.3070414025	-0.110825
C	 1.0257114889	-2.6874205162	-0.1782466553	-0.02483
C	 1.163409809	-1.9773415298	 1.1180756627	-0.090632
N	 2.1189936617	-0.8312071099	 1.1544253132	-0.344623
C	 0.6783880337	-0.5693136931	 1.204172962	-0.063909
H	 1.1315960276	 1.8981284093	 0.0427516874	 0.123069
H	-0.3846972928	 1.9890689095	-0.8843870433	 0.118393
H	-0.4341808954	 1.9488560883	 0.8850249775	 0.116652
H	-1.4287452354	-1.2532059222	-0.0449378615	 0.277567
H	 0.0242978848	-0.191238457	-2.1640243288	 0.104854
H	 1.6394303684	-0.0622039547	-1.4685295536	 0.1294
H	 0.6974345812	-2.548553591	-2.2501942687	 0.092103
H	 1.1258101927	-3.7688139824	-0.1792002247	 0.088663
H	 1.1008309988	-2.586491279	 2.01532591	 0.085263
H	 2.5183885328	-0.7531439168	 2.08658181	 0.232148
H	 0.2374392426	-0.243455697	 2.1442095956	 0.083902
123.2988	197.3798	230.8147	285.9271	300.6463	336.828	375.1902	409.3184	472.28	485.9024	548.5329	585.9945	699.2639	724.8279	823.759	848.1696	863.8342	911.6569	923.1855	943.9146	966.9905	976.0404	988.5742	1020.0014	1077.5395	1092.7455	1141.5409	1151.558	1167.9088	1198.5634	1254.3612	1258.8237	1278.0908	1322.4562	1361.2205	1393.4228	1411.8073	1426.0267	1451.3671	1460.4073	1485.8491	1498.5854	1704.0328	3037.2511	3042.5612	3080.2971	3113.3313	3123.3123	3127.1917	3145.4621	3158.3071	3180.9043	3496.9968	3785.6602
CC1(O)CC=CC2NC12	C[C@@]1(O)CC=C[C@H]2N[C@@H]12	
InChI=1S/C7H11NO/c1-7(9)4-2-3-5-6(7)8-5/h2-3,5-6,8-9H,4H2,1H3	InChI=1S/C7H11NO/c1-7(9)4-2-3-5-6(7)8-5/h2-3,5-6,8-9H,4H2,1H3/t5-,6-,7-/m1/s1
