18
gdb 112475	2.45992	1.41082	0.98702	2.5132	75.54	-0.2553	0.0008	0.2561	1199.3333	0.148243	-439.097804	-439.089204	-439.08826	-439.132489	31.733	
O	 0.0264661318	 1.3021552158	-0.2269860148	-0.41845
C	-0.0324083104	-0.1052521514	-0.2435824978	-0.056419
C	-1.3823785019	-0.6233246274	 0.2769531046	 0.049073
O	-2.4072200922	-0.0043554426	-0.5317536722	-0.285853
C	-3.1998549629	-0.6875381924	-1.408196164	 0.386515
N	-4.147040775	-0.1080630123	-2.0154501085	-0.506747
C	-2.9175295255	-2.1524702524	-1.6612377633	-0.339453
C	-2.14166064	-2.8192733947	-0.5653221332	-0.07801
C	-1.4487677086	-2.1145383537	 0.3208206754	-0.082878
H	-0.7553416189	 1.6128625425	-0.6985945375	 0.291496
H	 0.1341824014	-0.5168688912	-1.252334008	 0.092506
H	 0.772839054	-0.4687471268	 0.4034099999	 0.113182
H	-1.5340330252	-0.2023809918	 1.2791066823	 0.109428
H	-4.1963459447	 0.8748022296	-1.7397747115	 0.216272
H	-3.8785813446	-2.6429307203	-1.8367523259	 0.149287
H	-2.3713856636	-2.2357084915	-2.6121558086	 0.146
H	-2.1589089424	-3.9041657623	-0.5248239335	 0.106872
H	-0.8753065313	-2.5931831571	 1.1087235668	 0.107177
34.6876	49.7613	130.3274	194.0833	314.9803	404.5531	434.403	448.1828	479.7693	517.5242	546.4794	579.2674	705.9182	741.6287	879.1381	899.9667	907.1041	965.4498	974.1959	1004.1023	1005.7329	1071.6198	1084.0421	1096.6972	1128.6465	1199.2108	1203.7809	1237.8021	1287.5107	1306.2311	1345.8962	1381.5943	1408.5473	1415.9384	1433.8041	1460.1974	1495.8782	1741.8951	1745.4597	2976.2617	3010.8572	3031.4346	3079.0913	3093.1147	3167.1388	3188.4491	3465.0126	3797.5846
OCC1OC(=N)CC=C1	OC[C@H]1O[C]([NH])CC=C1	
InChI=1S/C6H9NO2/c7-6-3-1-2-5(4-8)9-6/h1-2,5,7-8H,3-4H2	InChI=1S/C6H9NO2/c7-6-3-1-2-5(4-8)9-6/h1-2,5,7-8H,3-4H2/t5-/m0/s1
