20
gdb 36345	3.07644	1.19542	1.01614	0.9227	84.74	-0.2293	0.0401	0.2693	1241.991	0.169609	-365.931616	-365.922601	-365.921657	-365.965472	34.318	
C	-0.9297400874	 0.5265329589	-1.1052009878	-0.472907
C	-0.1486405542	 0.6060534065	-0.1938069835	 0.310057
C	 0.8305754861	 0.6828209716	 0.8957760137	-0.290964
N	 1.8514087047	 1.7338496835	 0.8319360972	-0.146367
C	 2.233340658	 2.3082569066	-0.4607340713	-0.325492
C	 1.4819267585	 3.1046966386	 0.5450773678	 0.39183
C	 0.095971112	 3.7478517406	 0.3555396499	-0.289708
C	 0.7274966329	 5.0953858479	 0.8154107341	-0.217061
C	 1.9704448724	 4.3187427867	 1.3424281344	-0.28934
H	-1.6300208309	 0.4547092667	-1.9004442619	 0.199967
H	 0.3029202213	 0.7961794821	 1.850797984	 0.136051
H	 1.3601519313	-0.2765447445	 0.9514395181	 0.140485
H	 3.3014803196	 2.4549495619	-0.6047558407	 0.109774
H	 1.6853737099	 1.9874039004	-1.3446722721	 0.120985
H	-0.3483023952	 3.7072527657	-0.6401831537	 0.10964
H	-0.6375950095	 3.3692560445	 1.0745417014	 0.104628
H	 0.973099757	 5.742660174	-0.0299339843	 0.105086
H	 0.1637068998	 5.6771444178	 1.5470552992	 0.099031
H	 1.9274270823	 4.1366886291	 2.4206998421	 0.104277
H	 2.9579430015	 4.7155932816	 1.0937571233	 0.100027
72.9024	104.2184	119.5259	194.6542	215.2643	332.2796	353.1397	382.2508	420.9523	560.0248	609.648	614.5767	663.2068	702.1946	758.1921	792.2953	880.6923	896.4129	904.7085	930.8261	932.0491	960.6336	995.3868	1048.4748	1084.3441	1115.6349	1129.5063	1169.5483	1175.6371	1212.0422	1235.3196	1250.5221	1271.9644	1277.6693	1292.414	1353.4397	1413.9901	1467.7827	1471.5656	1481.0227	1500.0019	1509.2318	2224.1341	3024.58	3051.6283	3054.5616	3056.3944	3068.8192	3091.0245	3100.9883	3113.4355	3127.5822	3177.7617	3502.6081
C#CCN1CC11CCC1	C#CCN1CC21CCC2	
InChI=1S/C8H11N/c1-2-6-9-7-8(9)4-3-5-8/h1H,3-7H2	InChI=1S/C8H11N/c1-2-6-9-7-8(9)4-3-5-8/h1H,3-7H2
