13
gdb 13046	4.33348	1.38828	1.11067	3.9306	56.7	-0.2846	-0.0144	0.2702	994.7119	0.094661	-435.741903	-435.734436	-435.733492	-435.775016	25.265	
N	-0.2675027779	 1.1852809205	-0.2053807174	-0.535887
C	-0.112695044	-0.0353632926	 0.0153759757	 0.429197
O	 0.9728590612	-0.7738521416	 0.4313803454	-0.246144
C	 0.1726340169	-1.9982099215	 0.5113649687	-0.109008
C	-1.0422715175	-1.2414000703	-0.0486729309	-0.0199
O	-2.15521336	-1.2379271026	 0.8269994649	-0.194284
C	-3.2142049394	-0.4666555524	 0.4629824225	 0.175771
O	-4.1937361528	-0.3916312915	 1.13675313	-0.26109
H	 0.5802582086	 1.7258792783	-0.027714509	 0.241765
H	 0.5953067432	-2.788111249	-0.1112276978	 0.135078
H	 0.0506061594	-2.3261475293	 1.5450150739	 0.148742
H	-1.3362027218	-1.5241154496	-1.0638644211	 0.127536
H	-3.0585141658	 0.0583936216	-0.4954061648	 0.108227
43.0348	110.683	116.9568	210.8202	278.5024	383.9356	460.4156	568.3489	709.737	760.0847	867.5766	885.9014	950.5347	964.0488	1010.6931	1037.7951	1076.2763	1138.0282	1166.6078	1169.3573	1224.0732	1248.6385	1339.4552	1386.0667	1439.1031	1507.6129	1836.2596	1875.4285	2995.8509	3070.4846	3082.7107	3150.1193	3486.1243
N=C1OCC1OC=O	[NH][C]1OC[C@H]1OC=O	
InChI=1S/C4H5NO3/c5-4-3(1-7-4)8-2-6/h2-3,5H,1H2	InChI=1S/C4H5NO3/c5-4-3(1-7-4)8-2-6/h2-3,5H,1H2/t3-/m1/s1
