15
gdb 47386	2.86786	1.32817	1.08892	4.435	65.87	-0.2791	0.0051	0.2842	1093.4296	0.114763	-454.00194	-453.994124	-453.99318	-454.035048	28.459	
O	 0.019187023	-0.0525596654	 0.0971684893	-0.376814
C	 0.0024898335	 1.1474324572	 0.0289070195	 0.478096
N	-1.1745286854	 1.8694543069	 0.0198405396	-0.350842
C	-1.330014081	 3.310144502	-0.0341682983	-0.137825
C	-0.0053509784	 3.9595569081	 0.3952206895	-0.238258
C	 1.1306370076	 3.2518394508	-0.3242783771	-0.080519
O	 1.1569069308	 1.8566582873	 0.0006098436	-0.237423
C	-1.7333496203	 3.7681672623	-1.3840208553	 0.285895
N	-2.0545676995	 4.1249552442	-2.4350298851	-0.31122
H	-1.9962650125	 1.2879186701	-0.0256776391	 0.272068
H	-2.1270084728	 3.6122825984	 0.6553635585	 0.142446
H	-0.0115471167	 5.0259862693	 0.1590852623	 0.140949
H	 0.1085580093	 3.8415707049	 1.476718792	 0.13692
H	 1.0372791656	 3.3709091216	-1.4114335657	 0.139865
H	 2.1041107667	 3.6399295621	-0.0194011036	 0.136662
54.9757	105.9343	179.7237	227.1811	324.1485	415.3538	463.6481	477.9763	516.0506	590.2694	617.2881	731.7043	757.4607	808.2038	863.8111	919.6554	982.2816	1008.2888	1087.1006	1116.0772	1147.1475	1224.7109	1249.0309	1301.7135	1319.1948	1370.8101	1383.3129	1436.6899	1465.1469	1474.842	1514.9883	1855.5156	2354.891	3032.9735	3040.1244	3068.9083	3117.6612	3125.5047	3644.9429
O=C1NC(CCO1)C#N	O=C1N[C@@H](CCO1)C#N	
InChI=1S/C5H6N2O2/c6-3-4-1-2-9-5(8)7-4/h4H,1-2H2,(H,7,8)	InChI=1S/C5H6N2O2/c6-3-4-1-2-9-5(8)7-4/h4H,1-2H2,(H,7,8)/t4-/m0/s1
