21
gdb 59046	2.50738	1.26167	0.96228	2.0797	80.99	-0.2297	0.0111	0.2408	1300.3299	0.181203	-424.234687	-424.224941	-424.223996	-424.269588	36.049	
C	-1.0849568951	 0.7161714401	-0.0077337796	-0.407165
C	 0.3625241133	 0.2497612436	-0.1546134747	 0.027569
O	 1.1901398582	 1.2809174123	-0.7078201332	-0.427204
C	 0.9744599317	-0.2821356804	 1.1125846409	 0.287538
C	 0.424308733	-0.4553634117	 2.3119891358	-0.237618
C	 1.4408492417	-0.9907117596	 3.2777175345	-0.113837
O	 2.6278660458	-1.1591342549	 2.5133500753	-0.281891
C	 2.4330508375	-0.6950030454	 1.1714475761	 0.065873
C	 2.8292911799	-1.7889901175	 0.1807658647	-0.40095
H	-1.1680590988	 1.5024579152	 0.751117819	 0.111313
H	-1.4373313301	 1.118532511	-0.9606258862	 0.126086
H	-1.7401744994	-0.1095772568	 0.2860023138	 0.121707
H	 0.3976571183	-0.5405021782	-0.9162604502	 0.100791
H	 1.2318042655	 1.9927326714	-0.0588516961	 0.279551
H	-0.601422296	-0.252109066	 2.5925771862	 0.100841
H	 1.6197606502	-0.2968277718	 4.1164300941	 0.100303
H	 1.1412830606	-1.9537896692	 3.7205073797	 0.104508
H	 3.0825138687	 0.177865342	 0.9992920396	 0.079908
H	 2.1683481746	-2.6562582145	 0.2752042436	 0.112876
H	 2.7810866785	-1.4121245318	-0.8455916861	 0.125037
H	 3.854697472	-2.1127386577	 0.3790721627	 0.124764
50.2791	81.5792	162.1981	174.4861	242.0124	259.8763	275.1704	299.4126	347.2304	394.9746	453.1852	480.6768	545.219	700.1728	760.5334	802.5526	844.4326	871.9621	891.5754	956.1273	1011.7333	1039.3332	1046.3866	1052.8405	1086.8993	1111.3424	1122.3319	1127.2225	1197.9512	1206.4247	1275.2903	1278.6712	1325.7458	1374.0044	1376.2719	1388.1374	1399.4433	1404.6515	1415.8735	1489.383	1493.3806	1494.5446	1496.1997	1523.2894	1722.0125	2959.5399	2973.2357	2983.1694	3023.0554	3035.7537	3038.4742	3105.143	3114.8702	3119.3215	3125.2638	3213.9683	3794.2138
CC(O)C1=CCOC1C	C[C@@H](O)C1=CCO[C@H]1C	
InChI=1S/C7H12O2/c1-5(8)7-3-4-9-6(7)2/h3,5-6,8H,4H2,1-2H3	InChI=1S/C7H12O2/c1-5(8)7-3-4-9-6(7)2/h3,5-6,8H,4H2,1-2H3/t5-,6+/m1/s1
