20
gdb 118733	3.11261	0.88514	0.80022	4.4655	76.26	-0.2455	0.0376	0.2832	1479.2644	0.169161	-440.307464	-440.297532	-440.296587	-440.342835	36.33	
C	 0.0533503956	 1.6107882539	-0.0694665867	-0.441575
C	-0.0327915058	 0.0838491777	-0.0398157816	 0.332307
C	-1.4704390446	-0.4473549631	-0.0148340419	-0.210199
C	-2.2850920454	-0.0412122754	 1.2090911656	-0.083821
O	-3.5347302093	-0.7067035252	 1.1205052357	-0.415493
C	 0.8834686661	-0.6293272361	-1.0905418649	-0.451285
C	 1.7011552812	-1.1423703161	 0.1177843288	 0.43842
O	 2.6922064729	-1.8028216314	 0.2775858377	-0.363108
N	 0.8399464753	-0.5262820242	 0.991801611	-0.354574
H	 1.0938485702	 1.934096737	-0.1655772962	 0.124031
H	-0.5135541643	 2.01449636	-0.914778309	 0.125573
H	-0.3503582863	 2.0568377511	 0.8452919188	 0.119637
H	-1.9963325014	-0.1088393247	-0.9154556744	 0.109896
H	-1.4448221152	-1.5418773155	-0.0497204548	 0.113054
H	-1.7450588414	-0.3304987701	 2.1263385716	 0.08062
H	-2.4209688012	 1.0507159553	 1.2387929938	 0.088822
H	-4.0685561949	-0.4507213193	 1.8782751945	 0.287626
H	 0.4015679184	-1.4152207659	-1.6749769886	 0.129321
H	 1.4380059613	 0.036921287	-1.7538489937	 0.127148
H	 0.885695189	-0.4114686148	 1.9940851642	 0.243601
51.0002	85.7793	97.9801	170.1352	241.3446	268.1326	321.0635	337.5676	345.6297	366.1832	380.6433	485.7591	531.7637	562.3772	681.376	788.0346	806.3626	886.7986	912.1009	960.162	979.641	1008.2824	1034.6885	1074.6142	1085.1886	1123.868	1174.3335	1196.595	1219.6691	1252.0888	1272.1992	1279.1	1328.2919	1345.2417	1381.4175	1412.4178	1458.4761	1464.4653	1480.7139	1494.3694	1500.5015	1526.3565	1894.0758	2958.4819	2992.8225	3034.7191	3039.6246	3083.7008	3085.9347	3102.8688	3113.2631	3142.5018	3602.4027	3829.9669
CC1(CCO)CC(=O)N1	C[C@@]1(CCO)CC(=O)N1	
InChI=1S/C6H11NO2/c1-6(2-3-8)4-5(9)7-6/h8H,2-4H2,1H3,(H,7,9)	InChI=1S/C6H11NO2/c1-6(2-3-8)4-5(9)7-6/h8H,2-4H2,1H3,(H,7,9)/t6-/m1/s1
