17
gdb 70038	4.20603	1.07694	0.94881	3.2601	81.91	-0.2483	-0.054	0.1943	1232.2516	0.137198	-380.882144	-380.874204	-380.87326	-380.914493	30.465	
C	 0.0246750844	 1.5056796512	-0.0459478722	-0.468103
C	-0.0504183596	 0.0058512703	 0.0812105799	 0.32091
C	-1.3885905225	-0.6947114528	-0.179020596	-0.387307
C	-1.3273456022	-1.9321876934	 0.7055476834	 0.16678
C	-0.2147948889	-1.943129332	 1.462736754	-0.165238
C	 0.6639210144	-0.7921108962	 1.1380958574	-0.099387
N	 1.1647821365	-0.737662674	-0.2601704497	-0.35646
C	-2.3337054275	-2.9325446672	 0.690618783	 0.207379
N	-3.1767190733	-3.7274611011	 0.6600818194	-0.334714
H	 1.0280641762	 1.8585366106	 0.2028902994	 0.135862
H	-0.1957395695	 1.8199028885	-1.0724008	 0.127203
H	-0.6963684802	 1.9929819513	 0.6186509919	 0.121653
H	-2.2345538582	-0.0571302987	 0.1049884969	 0.133746
H	-1.5288798444	-0.9475501942	-1.2367680182	 0.13432
H	 0.0325192028	-2.7048279404	 2.1918824478	 0.129771
H	 1.3245869144	-0.3650435271	 1.8847304503	 0.103229
H	 0.9482669577	-1.6118550747	-0.7365464672	 0.230356
109.035	148.583	196.4741	240.096	311.415	361.768	396.2425	466.3559	541.3349	564.8954	576.2527	638.0115	738.8828	799.0288	882.0136	895.1183	919.0154	951.8319	963.942	1011.0542	1072.5053	1090.3658	1120.0456	1169.6476	1178.849	1195.2752	1255.8588	1282.6275	1315.0347	1334.5875	1403.5484	1430.9845	1472.4639	1486.5232	1495.5809	1649.9205	2332.5576	3032.8361	3036.6729	3068.6877	3096.2516	3127.9737	3171.9933	3216.6827	3474.0352
CC12CC(=CC1N2)C#N	C[C@]12CC(=C[C@H]1N2)C#N	
InChI=1S/C7H8N2/c1-7-3-5(4-8)2-6(7)9-7/h2,6,9H,3H2,1H3	InChI=1S/C7H8N2/c1-7-3-5(4-8)2-6(7)9-7/h2,6,9H,3H2,1H3/t6-,7+/m1/s1
