18
gdb 18834	3.9814	2.16539	1.84169	1.469	69.96	-0.224	0.0894	0.3135	790.7244	0.155734	-347.777651	-347.771231	-347.770287	-347.807802	26.391	
C	-0.1191705678	 1.5553036551	-0.036497982	-0.40689
C	 0.04261808	 0.0468454178	 0.0319191969	 0.150267
O	 0.826586995	-0.4041526844	-1.0912959227	-0.283546
C	 1.52651923	-1.5512421328	-0.6631628216	 0.116015
C	 2.5892273565	-1.4050848314	 0.4103496528	-0.097073
C	 2.3086271847	-0.1342800744	 1.2097300382	-0.236885
C	 0.7932747753	-0.5323833894	 1.2380416132	-0.076758
C	 1.1897446888	-1.9486691897	 0.7311362321	-0.127966
H	 0.8440217534	 2.0665223918	 0.040833058	 0.123343
H	-0.5796797177	 1.8419649452	-0.9861390201	 0.127773
H	-0.7664584375	 1.9038701027	 0.7747618681	 0.11197
H	-0.9538413848	-0.4251515764	-0.0221471506	 0.063684
H	 1.6759918004	-2.2880487468	-1.4433859301	 0.098042
H	 3.5303429048	-1.9413211645	 0.3596495229	 0.080332
H	 2.7474520746	-0.1822113311	 2.2092437818	 0.101237
H	 2.5735669331	 0.8218961038	 0.747911106	 0.099426
H	 0.2704868733	-0.4363229448	 2.1889932868	 0.071044
H	 0.8476453479	-2.9146092608	 1.0775269402	 0.085985
170.7474	219.0031	267.4474	364.1113	473.8639	517.7718	600.6116	724.4363	747.5784	786.172	804.1737	818.8857	866.1659	901.6987	941.016	977.9611	996.8611	1011.0255	1021.4684	1034.1863	1062.417	1101.9626	1110.105	1128.7205	1139.5673	1163.8644	1204.4331	1227.7531	1275.5006	1290.0143	1315.7015	1357.7483	1382.522	1404.0473	1412.1615	1483.6636	1492.1422	1502.0405	2948.1324	3042.6076	3049.7286	3102.0205	3112.9648	3121.3197	3123.802	3169.2471	3187.3495	3202.5875
CC1OC2C3CC1C23	C[C@H]1O[C@H]2[C@H]3C[C@@H]1[C@@H]23	
InChI=1S/C7H10O/c1-3-4-2-5-6(4)7(5)8-3/h3-7H,2H2,1H3	InChI=1S/C7H10O/c1-3-4-2-5-6(4)7(5)8-3/h3-7H,2H2,1H3/t3-,4+,5+,6-,7+/m1/s1
