18
gdb 101466	4.14116	0.94486	0.91741	2.4419	68.08	-0.2536	0.0042	0.2577	1301.6947	0.148757	-476.226264	-476.217666	-476.216721	-476.260103	31.563	
O	 0.0133217891	 1.4601291512	-0.0277959326	-0.427111
C	 0.059066824	 0.0616014799	 0.1653237025	-0.073455
C	-1.3272055665	-0.5532677663	-0.0455799202	 0.086126
O	-1.8391355447	-0.1538155681	-1.3155483645	-0.448198
C	-1.3404635456	-2.0820813662	 0.0851344939	-0.011328
C	-2.7641642283	-2.6952111243	 0.0417938213	-0.126183
O	-2.6850935243	-3.6981205677	-1.0057502892	-0.212105
C	-1.4687664534	-3.5364874674	-1.5593227848	 0.124501
N	-0.6494060136	-2.6980342835	-1.0713905929	-0.292751
H	-0.5275112617	 1.5909025211	-0.8173958616	 0.284807
H	 0.77601172	-0.4242501452	-0.5156909314	 0.102849
H	 0.400858821	-0.1162933467	 1.1913689455	 0.102019
H	-2.0139967536	-0.1197218782	 0.6916109439	 0.095253
H	-1.3501862609	-0.6700610423	-1.9720714285	 0.289863
H	-0.8080225233	-2.3619822277	 1.0023559653	 0.095009
H	-3.0646451401	-3.1930965486	 0.965026933	 0.125856
H	-3.5214198496	-1.9634590134	-0.2525009726	 0.135467
H	-1.2758710584	-4.1756103065	-2.4144875273	 0.149381
75.3989	93.0425	123.0814	184.4346	267.8205	301.5786	350.1424	434.3361	474.7534	510.4587	560.665	716.798	723.3103	832.3882	884.3804	895.6711	959.5858	971.6756	991.8814	1013.5461	1048.0875	1090.0057	1101.9715	1137.2006	1151.6121	1201.2578	1229.6042	1263.5773	1292.7149	1314.4684	1328.1874	1356.5565	1385.8886	1396.4233	1431.9993	1442.8493	1508.5702	1511.8083	1693.4227	2984.1213	3029.8988	3042.9684	3066.6406	3068.2059	3126.6804	3213.1302	3743.4696	3770.3653
OCC(O)C1COC=N1	OC[C@@H](O)[C@H]1COC=N1	
InChI=1S/C5H9NO3/c7-1-5(8)4-2-9-3-6-4/h3-5,7-8H,1-2H2	InChI=1S/C5H9NO3/c7-1-5(8)4-2-9-3-6-4/h3-5,7-8H,1-2H2/t4-,5-/m1/s1
