18
gdb 67856	2.41976	1.69129	1.31494	3.4366	77.41	-0.243	-0.0062	0.2368	1035.0665	0.147481	-401.960277	-401.952132	-401.951188	-401.99275	31.047	
C	-0.1587418548	 1.6853771357	 0.0786026374	-0.482145
C	 0.0452202509	 0.1927037034	 0.0962549185	 0.268392
C	-1.0118870614	-0.7382934242	-0.4300254954	-0.138041
C	-1.0193553168	-1.8980105859	 0.2313893253	-0.068944
C	 0.010180882	-1.9362736746	 1.3404190781	-0.289692
C	 0.7219700434	-0.5922148407	 1.2085891565	-0.083214
N	 1.4185803784	-0.3109792469	-0.0280512535	-0.105935
C	 1.8817669271	-1.2456769515	-0.9322926891	 0.153214
O	 2.467531672	-2.2612800321	-0.6400209198	-0.300538
H	 0.6820551763	 2.1953369061	 0.5547582055	 0.134113
H	-0.2403593046	 2.056735057	-0.9490818125	 0.126416
H	-1.0795709022	 1.9548334716	 0.6058535027	 0.127852
H	-1.6588828518	-0.4727074314	-1.2580093496	 0.101993
H	-1.6489250235	-2.7484911238	-0.0040326309	 0.10711
H	-0.4579974006	-2.0315332568	 2.3275837745	 0.11519
H	 0.7059229628	-2.7745098399	 1.2262299385	 0.153808
H	 1.1219751634	-0.1039228531	 2.092115657	 0.101749
H	 1.7202284792	-0.9213034733	-1.9787899232	 0.078672
109.1531	165.9074	198.6218	225.2342	233.4725	299.3063	362.2337	410.8486	525.5583	605.418	639.3035	721.8173	773.1454	797.9322	877.4837	889.2859	933.4146	951.3764	964.8176	1005.8915	1014.8427	1040.5208	1072.8298	1099.8303	1123.8962	1190.1318	1226.4648	1242.2411	1299.5591	1324.5237	1366.6677	1411.4496	1418.6283	1436.1834	1458.7078	1485.5967	1495.6299	1663.4775	1790.9277	2944.3867	3035.7408	3037.916	3083.0943	3097.6907	3126.3017	3155.9232	3189.5609	3213.5439
CC12C=CCC1N2C=O	C[C@]12C=CC[C@H]1N2C=O	
InChI=1S/C7H9NO/c1-7-4-2-3-6(7)8(7)5-9/h2,4-6H,3H2,1H3	InChI=1S/C7H9NO/c1-7-4-2-3-6(7)8(7)5-9/h2,4-6H,3H2,1H3/t6-,7+,8?/m1/s1
