15
gdb 62383	2.68752	1.87957	1.39269	4.7173	69.48	-0.2487	-0.0238	0.2249	916.0238	0.113987	-416.761944	-416.754943	-416.753998	-416.793088	28.145	
O	 0.174711652	 1.3527526677	-0.1085252302	-0.475851
C	 0.0804109753	-0.0272434115	-0.0428871601	 0.348981
C	 1.0088558181	-0.5967197025	-1.0215840776	 0.262726
N	 1.7464719781	-1.0277367375	-1.7984264761	-0.33444
C	 0.0403700535	-0.6540127837	 1.4305503753	-0.114347
N	-1.3549920963	-0.0935009913	 1.4479462675	-0.344882
C	-1.4046741052	-0.6213719036	 0.0406788265	-0.114346
C	-1.1126672684	-2.1120665514	 0.1819840839	-0.091252
C	-0.1470721367	-2.1338805547	 1.1107652094	-0.091249
H	-0.4571254419	 1.6704047016	 0.555860182	 0.298122
H	 0.7379704549	-0.3296917662	 2.2012700211	 0.093033
H	-1.9709576882	-0.6100707592	 2.0762323613	 0.21901
H	-2.1939482301	-0.2634658403	-0.6187066106	 0.093032
H	-1.5357378216	-2.9121980976	-0.4069308458	 0.125732
H	 0.4387916065	-2.9568059099	 1.4923113733	 0.125731
148.6572	160.4663	295.7744	339.8022	449.5743	458.8082	526.9772	561.4938	585.5568	602.9907	653.6731	727.0924	790.8019	823.2311	863.7292	911.0651	935.011	936.1693	982.4702	987.1259	1047.0693	1083.1875	1129.2583	1145.9713	1167.336	1236.0999	1242.1491	1289.0562	1304.8868	1318.761	1411.7514	1603.5612	2369.1044	3137.6069	3139.8671	3236.7504	3261.5294	3458.9267	3711.2416
OC1(C#N)C2NC1C=C2	O[C@@]1(C#N)[C@H]2N[C@@H]1C=C2	
InChI=1S/C6H6N2O/c7-3-6(9)4-1-2-5(6)8-4/h1-2,4-5,8-9H	InChI=1S/C6H6N2O/c7-3-6(9)4-1-2-5(6)8-4/h1-2,4-5,8-9H/t4-,5+,6-
