18
gdb 67992	3.06856	1.68802	1.29068	4.0883	74.88	-0.2396	-0.0087	0.2308	999.6158	0.148557	-401.932962	-401.925617	-401.924672	-401.964509	29.447	
C	-0.0433985795	 1.4607277201	-0.018632221	-0.486138
C	-0.0067812212	-0.0481106206	-0.0138921315	 0.330378
C	 0.9975966001	-0.7793960629	-0.8831562663	-0.421127
C	 0.365693441	-2.1730761321	-1.0643210795	 0.389664
O	 0.8081503377	-3.0885788702	-1.6925475759	-0.301183
N	-0.843137153	-2.2442907115	-0.2528667399	-0.178473
C	-0.3269807113	-2.2473798149	 1.1880406972	-0.208469
C	-0.527837429	-0.7402638124	 1.2561386536	-0.12304
C	-1.2878646587	-0.8331971162	-0.0459241645	-0.077871
H	 0.8583168565	 1.8834084206	 0.4379873123	 0.126283
H	-0.1112319707	 1.8474782373	-1.0416556383	 0.123457
H	-0.9056559612	 1.8396233529	 0.5399326318	 0.121507
H	 1.1206262264	-0.2856041779	-1.8541299382	 0.131598
H	 1.9990246863	-0.8967094063	-0.4553822568	 0.13338
H	-1.0255099543	-2.8039245916	 1.8169555376	 0.128911
H	 0.6802229196	-2.66030619	 1.3167827153	 0.118117
H	-0.761544982	-0.1607703701	 2.1414398291	 0.093536
H	-2.2668606867	-0.4954991442	-0.361503315	 0.099469
104.5588	217.8077	250.3311	295.506	306.4205	406.7342	489.6491	560.2318	572.5062	637.6067	691.8666	776.129	793.8673	864.2334	875.6459	901.3671	948.0234	961.1906	994.0189	1014.5115	1023.9255	1053.5761	1080.9345	1093.2327	1118.5434	1159.3994	1187.7677	1200.7191	1223.8011	1258.8267	1299.1408	1331.9945	1396.8293	1421.6104	1462.2563	1490.8579	1501.9222	1514.602	1875.8451	3026.3924	3036.6887	3043.2448	3080.7769	3088.7384	3098.0178	3101.9346	3179.3105	3195.809
CC12CC(=O)N3CC1C23	C[C@@]12CC(=O)N3C[C@@H]1[C@@H]23	
InChI=1S/C7H9NO/c1-7-2-5(9)8-3-4(7)6(7)8/h4,6H,2-3H2,1H3	InChI=1S/C7H9NO/c1-7-2-5(9)8-3-4(7)6(7)8/h4,6H,2-3H2,1H3/t4-,6+,7-/m1/s1
