17
gdb 126991	3.30111	1.0842	0.82709	3.5349	72.48	-0.2051	0.0089	0.214	1366.0784	0.136598	-451.313544	-451.304389	-451.303445	-451.348392	32.204	
C	-0.0914564271	 1.4933854317	 0.0726622331	-0.39204
C	-0.0277195762	-0.0208101275	 0.0168798848	-0.043122
O	 0.6890443606	-0.46562022	 1.1775713411	-0.295413
C	 0.8320896126	-1.7984514419	 1.302302888	 0.367084
C	 1.4292143188	-2.4356625515	 2.3745488273	 0.189626
N	 1.9779379979	-1.9939133743	 3.5854844345	-0.615679
N	 1.3085540227	-3.7467138548	 2.0396119964	-0.188188
N	 0.7076505708	-3.9167267531	 0.8508307738	-0.147114
N	 0.4048435066	-2.7180048776	 0.4076725847	-0.281993
H	 0.9134507577	 1.9253904009	 0.0734335682	 0.12606
H	-0.63105005	 1.875553409	-0.7987966806	 0.122277
H	-0.6111241308	 1.8284918425	 0.974969218	 0.125584
H	-1.0281266588	-0.4694010617	 0.0142906884	 0.118657
H	 0.487892424	-0.3722159327	-0.8843287921	 0.120316
H	 2.9939866856	-1.991906584	 3.5770215607	 0.253203
H	 1.6704417393	-1.0469941263	 3.7768163559	 0.26075
H	 1.6009314963	-4.5491250887	 2.574559248	 0.279992
62.4788	69.8168	113.5049	141.4261	246.0299	260.7762	288.4055	348.4971	358.9675	531.6675	563.855	667.0361	694.2196	738.072	793.1652	812.298	832.4151	926.5105	1004.3298	1072.7604	1097.31	1130.7983	1149.7326	1183.3159	1234.4165	1291.1494	1293.1531	1357.0799	1383.0006	1396.9535	1421.2271	1484.3826	1498.3998	1520.6902	1545.4129	1651.5727	1675.1326	3031.4003	3044.6011	3067.6299	3120.4395	3121.2217	3494.2569	3585.5918	3654.3583
CCOC1=C(N)NN=N1	CCOc1c(N)[nH]nn1	
InChI=1S/C4H8N4O/c1-2-9-4-3(5)6-8-7-4/h2H2,1H3,(H3,5,6,7,8)	InChI=1S/C4H8N4O/c1-2-9-4-3(5)6-8-7-4/h2H2,1H3,(H3,5,6,7,8)
