16
gdb 30639	4.48732	1.04959	0.85518	3.6909	73.76	-0.225	-0.0316	0.1934	1282.1973	0.12463	-437.931059	-437.922792	-437.921847	-437.964403	30.2	
O	-0.0030854414	 1.4202415423	 0.0103633631	-0.392078
C	-0.0026229213	 0.0188134173	 0.003564723	-0.202776
C	-1.4543254008	-0.454490934	 0.01214801	 0.430665
O	-2.3969518225	 0.2920098543	 0.0231203105	-0.30232
N	-1.6250383861	-1.8518903466	 0.0078671879	-0.086652
C	-0.6480125044	-2.845109755	-0.0037871115	-0.076369
C	-1.2753515498	-4.0563471321	-0.0038387904	-0.174061
C	-2.6885357266	-3.8118812873	 0.0081708826	-0.180031
C	-2.8744799318	-2.4614394079	 0.0151453989	-0.053866
H	 0.9118156003	 1.71648231	 0.0027802234	 0.295544
H	 0.4902754877	-0.4014372434	-0.8884998022	 0.12131
H	 0.5036125026	-0.4099885695	 0.8840408958	 0.121343
H	 0.4000504825	-2.6002656942	-0.0109364557	 0.129617
H	-0.7861935029	-5.018451318	-0.0115738019	 0.107671
H	-3.4700208645	-4.5559777235	 0.0112259463	 0.109196
H	-3.7571812609	-1.8460908125	 0.0245330101	 0.152809
75.925	112.2097	155.6272	183.3914	219.6006	313.1158	387.7185	518.4243	553.1894	616.1867	635.4533	695.618	751.2649	772.1198	845.8015	876.5647	883.1457	927.8393	1016.4365	1033.5479	1074.1152	1095.9284	1118.2757	1163.5831	1231.9299	1264.9386	1286.2784	1325.3744	1349.0306	1432.9973	1457.1272	1505.6048	1513.45	1592.79	1831.4544	2965.9596	2993.4837	3245.9817	3259.3183	3288.0048	3300.1045	3837.1285
OCC(=O)N1C=CC=C1	OCC(=O)n1cccc1	
InChI=1S/C6H7NO2/c8-5-6(9)7-3-1-2-4-7/h1-4,8H,5H2	InChI=1S/C6H7NO2/c8-5-6(9)7-3-1-2-4-7/h1-4,8H,5H2
