23
gdb 121093	3.74207	0.80681	0.70474	1.0648	90.75	-0.2325	0.0271	0.2596	1712.0063	0.204817	-388.309828	-388.299724	-388.298779	-388.345672	36.794	
C	-0.0706737275	 1.532903231	 0.0729781923	-0.383174
C	-0.0202157679	 0.0255964614	-0.1184906324	-0.035495
O	-1.3156854304	-0.4937415971	 0.0966269369	-0.256988
C	-1.4035900047	-1.9122142509	 0.0271834842	 0.118033
C	-2.7585657213	-2.3537077059	 0.6229136043	-0.24751
C	-3.2713457225	-3.4906344633	-0.289566382	-0.301348
C	-2.4524931176	-3.3338871155	-1.5550133815	 0.333495
C	-2.7782003916	-4.1065269627	-2.7939844333	-0.488501
C	-1.4430625452	-2.4800169656	-1.3740668866	-0.199853
H	 0.919623375	 1.9722280114	-0.081030013	 0.110894
H	-0.7663931129	 1.9860864232	-0.6390077861	 0.125536
H	-0.4085032665	 1.77914081	 1.0837098463	 0.124184
H	 0.3388154674	-0.2151730765	-1.1325293486	 0.084397
H	 0.6937342673	-0.4300418041	 0.5895093797	 0.081642
H	-0.5538436913	-2.3356843717	 0.5924761294	 0.059769
H	-2.6834221285	-2.6424316843	 1.6737012514	 0.095942
H	-3.4241188058	-1.4878876835	 0.5641220879	 0.119629
H	-3.0980500254	-4.4806350358	 0.1556418928	 0.103394
H	-4.3499780603	-3.4312575279	-0.4807471289	 0.099899
H	-3.7951913641	-3.8822748158	-3.1406924882	 0.125659
H	-2.0828784293	-3.8829932108	-3.6075452397	 0.122268
H	-2.7473524746	-5.187691746	-2.6065408713	 0.124461
H	-0.6999494422	-2.2345333896	-2.1252954733	 0.083666
52.3749	68.1641	99.2111	163.248	186.2171	192.8503	250.183	296.9248	348.6118	417.6831	429.8814	532.2434	604.6613	656.5414	819.509	836.5875	852.64	883.7993	895.731	912.7905	975.5733	1004.4644	1026.4792	1036.5294	1063.6247	1090.9423	1123.7638	1152.8644	1178.6296	1187.4491	1198.4155	1252.1491	1283.7049	1296.2146	1299.5096	1324.0598	1349.9922	1375.4854	1401.5568	1412.7547	1436.172	1479.1456	1482.2326	1483.0546	1488.0315	1499.5919	1500.3332	1529.3159	1721.4766	2929.5509	2953.0372	2981.0629	3007.3901	3016.5828	3041.0573	3043.5009	3061.5667	3067.5096	3110.6143	3113.5712	3117.5018	3120.2225	3187.7318
CCOC1CCC(C)=C1	CCO[C@H]1CCC(=C1)C	
InChI=1S/C8H14O/c1-3-9-8-5-4-7(2)6-8/h6,8H,3-5H2,1-2H3	InChI=1S/C8H14O/c1-3-9-8-5-4-7(2)6-8/h6,8H,3-5H2,1-2H3/t8-/m0/s1
