13
gdb 129997	3.32519	1.27797	0.92853	7.4661	75.84	-0.2262	-0.0585	0.1678	1146.474	0.089518	-448.95447	-448.946278	-448.945334	-448.987801	28.804	
N	 0.1236677561	 1.2751868001	 0.0070333132	-0.557617
C	-0.0694854248	-0.0546090798	 0.0004313517	 0.44041
N	-1.2445510925	-0.5966889969	 0.0033877677	-0.347675
C	-1.0978544118	-2.0071685069	-0.0050863686	 0.344795
C	 0.3665698603	-2.2882192042	-0.0130868815	 0.21494
C	 1.1284881008	-1.0011249239	-0.0110432897	-0.451796
N	 0.860373021	-3.4795988444	-0.0232327143	 0.111431
N	 1.2428506801	-4.5501650795	-0.0269371416	-0.24576
O	-1.99373542	-2.8119177093	-0.0057868009	-0.351164
H	 1.0428285825	 1.6784381785	 0.0047872321	 0.271926
H	-0.6778598718	 1.8841458525	 0.0147182154	 0.280928
H	 1.7514614273	-0.8358535881	-0.8996404443	 0.144828
H	 1.761610313	-0.8448254482	 0.8719857775	 0.144754
90.0314	98.0665	140.7968	188.4261	221.0197	333.5582	455.9169	485.2679	510.2619	547.6894	619.4306	626.1695	679.2924	757.0339	790.136	864.0333	977.1377	1053.0058	1144.9748	1170.6631	1185.2248	1255.8504	1426.5201	1441.3047	1476.9253	1611.8314	1676.0706	1830.464	2207.8157	3016.7855	3048.8104	3614.8161	3748.4257
NC1=NC2=C(C1)N=NO2	NC1=NC(=O)[C](C1)[N][N]	
InChI=1S/C4H4N4O/c5-3-1-2-4(6-3)9-8-7-2/h1H2,(H2,5,6)	InChI=1S/C4H4N4O/c5-3-1-2(8-6)4(9)7-3/h1H2,(H2,5,7,9)
