21
gdb 63483	3.10039	1.05182	0.92126	1.785	85.05	-0.2503	0.0593	0.3095	1353.706	0.178296	-387.048658	-387.038099	-387.037155	-387.083611	39.88	
C	-0.0172271185	 1.4731957721	-0.2851858357	-0.443116
C	 0.0514857423	-0.0052513556	 0.0299525726	 0.333775
O	-1.0891133658	-0.702946547	-0.417918566	-0.458702
C	 1.3667812104	-0.7532064372	 0.0014429356	-0.38362
C	 0.6397667933	-0.5361125061	 1.3195387992	 0.303827
C	 1.2412864064	 0.4108073235	 2.3409218871	-0.466027
C	-0.0448548174	-1.7542925774	 1.9483018458	-0.424825
C	 0.8912449201	-2.6441854234	 2.6291298656	 0.322136
C	 1.6741995948	-3.3678224882	 3.1853460459	-0.460832
H	 0.8669979295	 2.0142180672	 0.0573830131	 0.119536
H	-0.0912988847	 1.6215541235	-1.3697954965	 0.107626
H	-0.9025846857	 1.9239424103	 0.1746121265	 0.126335
H	-1.0530101923	-0.736030303	-1.3801614782	 0.282024
H	 1.3580215703	-1.7548812658	-0.4159889802	 0.113028
H	 2.2813493403	-0.1961044059	-0.1772352813	 0.105015
H	 1.8109337612	 1.218300893	 1.8757252715	 0.112575
H	 0.4646912032	 0.8644658223	 2.968293083	 0.115149
H	 1.9222314211	-0.1386403464	 2.9990441447	 0.134752
H	-0.8026866563	-1.4100842679	 2.665473709	 0.124546
H	-0.5889194071	-2.3039045879	 1.1762586756	 0.146061
H	 2.356402345	-4.0159295101	 3.6766864327	 0.190737
59.4478	113.6986	171.9904	178.9146	203.5975	242.6942	274.0717	311.3921	340.1622	356.877	385.5397	400.694	447.0933	479.0809	568.3565	610.2409	633.2678	698.5697	743.5025	882.2032	903.636	915.7011	948.505	962.9219	973.5366	1014.2316	1042.9556	1081.4885	1110.2981	1152.4312	1212.9343	1238.3785	1296.2354	1321.7489	1335.4863	1401.9404	1411.6321	1421.4048	1469.4298	1480.1757	1486.1475	1491.2386	1500.9039	1515.2822	2234.4691	3017.7636	3026.1941	3030.8065	3088.3731	3092.3386	3098.0344	3116.5737	3121.6824	3132.1958	3210.7592	3507.1187	3796.3334
CC1(O)CC1(C)CC#C	C[C@@]1(O)C[C@]1(C)CC#C	
InChI=1S/C8H12O/c1-4-5-7(2)6-8(7,3)9/h1,9H,5-6H2,2-3H3	InChI=1S/C8H12O/c1-4-5-7(2)6-8(7,3)9/h1,9H,5-6H2,2-3H3/t7-,8+/m0/s1
