21
gdb 83257	1.79171	1.73287	1.59138	1.9206	78.26	-0.2312	0.0659	0.2972	1069.0284	0.181448	-424.211556	-424.202099	-424.201155	-424.24573	35.478	
C	-0.4056231254	 1.4969770276	 0.0115493188	-0.398747
C	-0.0640777944	 0.0258751467	 0.0951531656	-0.077047
C	 1.2865575318	-0.5123210812	-0.3025033584	 0.030289
O	 2.3167761794	 0.4416870544	-0.3931313632	-0.259379
C	 2.8628345771	 0.6476349004	 0.9074195753	-0.094924
C	 1.7932457258	 0.226038958	 1.9446309692	-0.001859
O	 1.0959015279	 1.3094207367	 2.5486384587	-0.425427
C	 0.839537435	-0.6472436636	 1.1313086981	 0.305815
C	 0.400286248	-1.9587996008	 1.7416514256	-0.494047
H	 0.4831452425	 2.1215480392	 0.0976894868	 0.128217
H	-0.8756030925	 1.7089587046	-0.9555459311	 0.104519
H	-1.1008331554	 1.7904947843	 0.8024047887	 0.120436
H	-0.8900986714	-0.6270243635	-0.1831604982	 0.078387
H	 1.4014161348	-1.3558635965	-0.9785343166	 0.087563
H	 3.7713782846	 0.0375329276	 1.0299302378	 0.09079
H	 3.1356612934	 1.7039002314	 1.0083904395	 0.099373
H	 2.2621293672	-0.3876083832	 2.7281715836	 0.067765
H	 1.7138088978	 1.7853712864	 3.1125136643	 0.282548
H	-0.2373454833	-1.7906568627	 2.6171159033	 0.127242
H	-0.1729254521	-2.5565882187	 1.0262884673	 0.116056
H	 1.2589335592	-2.5603470972	 2.0636084348	 0.112431
45.0098	155.3592	184.747	197.8818	214.4806	245.462	267.7309	302.7984	331.857	397.1474	533.5563	563.1896	617.8527	690.3921	767.2605	808.2144	847.8135	891.9497	951.1873	965.3942	1007.0796	1035.0272	1042.0649	1067.6253	1104.6466	1122.7551	1133.6425	1147.3867	1162.4375	1216.1336	1244.9514	1257.2469	1295.1982	1331.2441	1343.4666	1381.71	1413.8239	1415.87	1422.6577	1460.436	1484.8023	1490.6575	1496.6332	1500.5744	1501.1043	2971.5408	2992.8898	3020.5993	3039.2664	3065.4126	3080.6547	3097.7163	3103.3735	3113.7239	3136.6262	3151.5161	3814.761
CC1C2OCC(O)C12C	C[C@H]1[C@H]2OC[C@@H](O)[C@@]12C	
InChI=1S/C7H12O2/c1-4-6-7(4,2)5(8)3-9-6/h4-6,8H,3H2,1-2H3	InChI=1S/C7H12O2/c1-4-6-7(4,2)5(8)3-9-6/h4-6,8H,3H2,1-2H3/t4-,5+,6+,7+/m0/s1
