20
gdb 104376	2.157	1.58655	1.37966	1.8419	76.13	-0.2512	0.0208	0.272	1085.2126	0.170694	-440.300892	-440.291697	-440.290753	-440.334507	34.38	
C	-0.1373825689	 1.2747853225	 0.109766559	-0.251939
O	-0.0373372592	-0.1236242395	-0.110586332	-0.29656
C	 0.7688353481	-0.552711277	-1.2171677292	 0.303678
C	 2.2010622379	-0.0415594438	-1.1460662688	-0.460782
C	 0.6130324406	-2.0793027861	-1.230265623	-0.265
C	-0.7356124853	-2.2571566718	-1.9311952239	-0.092623
O	-0.8166925066	-1.1630754658	-2.8681067629	-0.247985
C	 0.0469624435	-0.1735073292	-2.5139945598	 0.398998
N	 0.2059172416	 0.9100887727	-3.1464856074	-0.54345
H	 0.8045921524	 1.6994038037	 0.4809129874	 0.109341
H	-0.4335201989	 1.8150577587	-0.7962599047	 0.138125
H	-0.9038893022	 1.404749857	 0.8778049662	 0.122766
H	 2.6329633622	-0.270294878	-0.1671091422	 0.119099
H	 2.8116639919	-0.515859729	-1.9190242412	 0.121588
H	 2.2382717682	 1.0360868309	-1.3170155108	 0.147441
H	 1.4148385699	-2.5336485487	-1.8194620285	 0.111511
H	 0.6308176775	-2.4913318596	-0.2203149711	 0.120993
H	-0.8259098842	-3.1855495154	-2.4990422889	 0.11738
H	-1.5709135828	-2.1793213491	-1.2284431003	 0.126208
H	-0.4186822057	 0.9495911976	-3.9549580578	 0.221212
98.7593	123.7373	172.0095	198.4165	213.5272	250.6168	302.0737	307.8755	370.2399	430.9224	504.0451	611.5815	673.7964	706.6212	713.0184	824.1629	886.2669	909.2796	931.2315	961.6838	1013.4234	1020.7839	1081.2246	1106.9328	1165.7782	1172.4179	1186.5009	1203.0202	1231.1052	1253.2899	1257.7248	1305.8839	1353.6905	1407.2723	1412.9078	1473.3427	1474.5938	1483.0379	1486.6704	1505.1074	1516.4202	1518.3488	1763.4846	3010.1863	3048.5799	3057.3113	3067.3561	3076.2065	3112.8584	3117.792	3120.2853	3135.2499	3138.5725	3458.8789
COC1(C)CCOC1=N	CO[C@@]1(C)CCO[C]1[NH]	
InChI=1S/C6H11NO2/c1-6(8-2)3-4-9-5(6)7/h7H,3-4H2,1-2H3	InChI=1S/C6H11NO2/c1-6(8-2)3-4-9-5(6)7/h7H,3-4H2,1-2H3/t6-/m0/s1
