25
gdb 60252	2.88752	0.92561	0.85185	0.962	89.8	-0.2389	0.0788	0.3176	1558.3065	0.227016	-389.488127	-389.477414	-389.47647	-389.524443	39.724	
C	-0.9788946785	 1.1539715015	-0.1632939832	-0.388809
C	 0.0108324825	-0.0084557636	-0.0413759787	 0.151732
C	 1.0415426121	-0.0034178855	-1.1653669594	-0.388772
O	 0.7446411572	 0.0590114364	 1.1812540383	-0.27054
C	 0.0758236136	-0.4188771552	 2.3171716137	 0.161624
C	-0.1002299085	-1.9528817153	 2.5072977942	-0.25195
C	 0.29895562	-1.754335302	 3.9962402805	-0.230201
C	 0.9067402092	-0.3655797814	 3.6291451672	-0.02962
C	 2.4189248312	-0.3843281472	 3.4208115613	-0.380413
H	-0.4431103209	 2.1083680649	-0.1409490611	 0.12097
H	-1.5333159653	 1.089210471	-1.1051592596	 0.111546
H	-1.7085693444	 1.15226066	 0.6515366353	 0.116009
H	-0.5456175867	-0.9587619959	-0.0725692091	 0.069047
H	 1.6314012216	 0.9183230371	-1.1315546019	 0.121924
H	 1.7258119243	-0.8494720517	-1.0606708775	 0.11779
H	 0.5528633639	-0.065670221	-2.1423936122	 0.109629
H	-0.8874158825	 0.0943174898	 2.4547797719	 0.061003
H	-1.0778616361	-2.3917357339	 2.2945005784	 0.090971
H	 0.6639877042	-2.5009882985	 1.9494832149	 0.106441
H	-0.5715244352	-1.6706377089	 4.65209572	 0.09827
H	 0.9870067481	-2.4864003363	 4.4261360836	 0.097123
H	 0.6404092499	 0.4562244098	 4.3007532943	 0.063856
H	 2.7277969349	-1.2097778887	 2.7721786635	 0.114598
H	 2.7630858556	 0.5428388251	 2.9545832311	 0.122997
H	 2.9317562096	-0.4999334003	 4.3817592647	 0.104774
36.0474	75.7082	113.5992	144.0274	206.6652	223.9759	236.7948	245.7007	330.9587	351.8327	401.5128	433.9052	456.2153	550.7323	681.7258	763.5322	821.0818	838.2993	883.6375	919.2076	925.6125	933.7905	945.361	953.6373	974.7401	1023.8904	1081.0838	1122.6471	1145.1677	1156.7727	1171.9566	1180.0515	1201.2966	1214.553	1247.2946	1261.4261	1284.0715	1300.4489	1359.7813	1366.4237	1368.3905	1395.9135	1407.2986	1413.7643	1419.1481	1477.756	1480.4179	1484.9172	1494.1779	1494.9563	1496.8544	1498.3876	1509.2625	2974.6828	2986.1296	3036.2037	3036.3688	3041.375	3049.8018	3057.31	3064.6492	3102.4185	3103.3297	3106.3107	3111.5037	3114.7015	3115.7127	3120.5274	3121.2212
CC(C)OC1CCC1C	CC(C)O[C@H]1CC[C@H]1C	
InChI=1S/C8H16O/c1-6(2)9-8-5-4-7(8)3/h6-8H,4-5H2,1-3H3	InChI=1S/C8H16O/c1-6(2)9-8-5-4-7(8)3/h6-8H,4-5H2,1-3H3/t7-,8+/m1/s1
