21
gdb 50661	2.12487	1.58772	1.05155	2.9425	82.84	-0.2423	-0.0158	0.2265	1197.9203	0.183109	-387.104097	-387.095463	-387.094519	-387.138295	32.954	
O	-0.0596537694	-0.0664878798	 0.0626434507	-0.262705
C	 0.0331101289	 1.1315185029	-0.0172304712	 0.16448
C	 1.3230188934	 1.9171951711	 0.0352968297	-0.134941
C	 1.4584646644	 2.8694494848	-1.1868925443	-0.235855
C	 2.0212893695	 4.1844988918	-0.6181061892	-0.206382
C	 1.3248189984	 4.2944479199	 0.7450543248	-0.280423
C	 1.3507189459	 2.8597831756	 1.2674298687	 0.355348
C	 0.7129578186	 2.4852258235	 2.5837594574	-0.334564
C	 2.2143141936	 2.501433856	 2.4532444339	-0.303236
H	-0.8762019797	 1.7712203144	-0.1260371892	 0.067245
H	 2.1443237129	 1.1969766227	 0.0771452056	 0.089266
H	 2.0726819217	 2.4339688106	-1.9783868585	 0.110126
H	 0.4657140777	 3.0565557665	-1.6176311796	 0.101944
H	 3.1052895403	 4.1007355898	-0.4775997844	 0.105136
H	 1.8373331688	 5.0413167283	-1.2720986482	 0.097929
H	 1.8075488164	 4.9981271829	 1.4295455979	 0.097673
H	 0.2893658429	 4.6335102548	 0.6063556547	 0.098757
H	 0.2368069655	 3.27489836	 3.1561332585	 0.112733
H	 0.2237715281	 1.5202351824	 2.668182209	 0.128595
H	 2.7317532847	 1.5474805525	 2.4390746352	 0.117775
H	 2.7643342974	 3.3011886793	 2.9391135485	 0.111097
36.7793	66.0927	184.2083	236.2454	287.7188	312.0097	370.0169	420.6553	466.3368	517.4746	575.2171	743.96	783.6061	848.5599	868.3335	884.4144	912.5635	926.2984	938.0195	977.5649	978.7058	1014.8104	1028.2526	1061.0642	1080.9144	1090.6249	1124.5227	1164.8543	1190.6918	1196.0001	1231.0077	1269.3531	1275.292	1294.2891	1316.2453	1341.6843	1350.3307	1366.5874	1426.2689	1467.3932	1485.9165	1490.1327	1502.9367	1505.8348	1828.6647	2838.462	3016.0136	3019.8228	3040.7315	3073.7577	3083.051	3094.8693	3103.8732	3122.1945	3126.6961	3201.4197	3216.0753
O=CC1CCCC11CC1	O=C[C@H]1CCCC21CC2	
InChI=1S/C8H12O/c9-6-7-2-1-3-8(7)4-5-8/h6-7H,1-5H2	InChI=1S/C8H12O/c9-6-7-2-1-3-8(7)4-5-8/h6-7H,1-5H2/t7-/m1/s1
