18
gdb 126540	3.29039	0.99504	0.80958	2.0706	74.16	-0.2527	0.0006	0.2533	1422.0273	0.147551	-439.09168	-439.08283	-439.081886	-439.126101	32.246	
C	-0.0110231981	 1.5928318967	 0.0644292772	-0.380351
C	-0.0042424705	 0.0629167696	 0.0792493158	-0.162565
C	-1.4138545286	-0.5366561626	-0.0871029587	-0.321278
C	-1.4315414172	-2.0330623009	-0.0503561059	 0.071971
C	-1.6699089499	-2.9390679027	-1.0329839068	 0.003368
O	-1.5754207332	-4.200677622	-0.5819016057	-0.176719
N	-1.2554344922	-4.1633655292	 0.7778408225	-0.253872
C	-1.1767745142	-2.8884456228	 1.0665932861	 0.395322
O	-0.886523886	-2.45256925	 2.3045282902	-0.419168
H	 0.9998287554	 1.9950336496	 0.1813102993	 0.114987
H	-0.4165834708	 1.9799238463	-0.8772389311	 0.113418
H	-0.6252606219	 1.9942130679	 0.878127487	 0.117027
H	 0.6405902056	-0.3175655153	-0.7221383519	 0.099709
H	 0.4255539489	-0.2997908817	 1.0198719421	 0.116983
H	-2.060546061	-0.1463298567	 0.7092867232	 0.116119
H	-1.84880081	-0.1935067666	-1.0331004629	 0.103592
H	-1.9190538166	-2.8338989582	-2.0784060858	 0.148823
H	-0.7661074599	-3.2279471913	 2.8690306955	 0.312633
53.5299	80.9876	114.2997	234.1726	246.6127	287.5392	313.5943	390.4726	466.477	471.0683	593.6451	679.9917	739.9679	745.973	774.1978	848.6593	875.3373	900.012	919.0118	957.8236	1043.9654	1097.5248	1112.8797	1155.4525	1213.576	1247.2421	1264.3822	1307.264	1321.5767	1340.9408	1388.4581	1411.3614	1479.2535	1492.3445	1495.7691	1499.7829	1509.4246	1558.6185	1679.0269	3020.4291	3028.9601	3035.9697	3054.6378	3074.9712	3099.2161	3104.7331	3255.5983	3780.8358
CCCC1=CON=C1O	CCCc1conc1O	
InChI=1S/C6H9NO2/c1-2-3-5-4-9-7-6(5)8/h4H,2-3H2,1H3,(H,7,8)	InChI=1S/C6H9NO2/c1-2-3-5-4-9-7-6(5)8/h4H,2-3H2,1H3,(H,7,8)
