18
gdb 19559	3.9484	2.06946	1.88028	0.1434	76.	-0.2206	0.0162	0.2368	797.3196	0.155512	-310.613799	-310.607488	-310.606544	-310.643722	26.705	
C	 0.0139653421	 1.4946694123	 0.0101477503	-0.360982
C	 1.3384216528	 0.7377029929	-0.0071926102	-0.366459
C	 0.0458900151	 0.0023786639	 0.0016575562	 0.469286
C	-0.5796206889	-0.9837847114	 1.0278468955	-0.156152
C	-1.775647365	-1.0619675471	 0.0139838067	-0.20486
C	-0.6000495695	-0.9725532069	-1.0225986365	-0.156154
C	 0.1611722328	-2.2638576688	-0.6801734131	-0.079687
C	 0.1744281115	-2.2712121968	 0.6561987939	-0.079689
H	-0.2658017047	 2.0061966791	 0.9263522409	 0.110382
H	-0.2839385433	 2.0161719818	-0.8946445106	 0.110382
H	 1.9199238078	 0.7552238597	-0.9236545893	 0.110433
H	 1.938074897	 0.7452482036	 0.8976350554	 0.110434
H	-0.7144442552	-0.7298900074	 2.0793595992	 0.058089
H	-2.3684648886	-1.9796503445	 0.0148662063	 0.089037
H	-2.4116331546	-0.1720140954	 0.0252004437	 0.095526
H	-0.7557732051	-0.7071724126	-2.0683720342	 0.058089
H	 0.5821555079	-2.9667949812	-1.3847184437	 0.096163
H	 0.6092382979	-2.9818083313	 1.3444754597	 0.096162
191.926	244.9394	266.8711	431.855	539.5394	539.6361	588.3853	722.5784	731.2352	769.891	824.7219	834.0163	862.2337	906.5928	909.5515	923.1278	927.8033	949.7024	992.3133	1001.9319	1042.1294	1046.2123	1074.4363	1090.5072	1112.6429	1133.7996	1179.7739	1202.9366	1203.5557	1222.1948	1241.8554	1248.3968	1323.4514	1386.2564	1460.4947	1487.2466	1509.5628	1622.1454	3051.7293	3114.5121	3116.5272	3117.1091	3121.8433	3124.0023	3193.6764	3209.4519	3219.6232	3246.8396
C1CC11C2CC1C=C2	C1CC21[C@H]1C[C@@H]2C=C1	
InChI=1S/C8H10/c1-2-7-5-6(1)8(7)3-4-8/h1-2,6-7H,3-5H2	InChI=1S/C8H10/c1-2-7-5-6(1)8(7)3-4-8/h1-2,6-7H,3-5H2/t6-,7+
