19
gdb 48594	2.48295	1.51847	1.23968	2.7667	81.45	-0.2464	-0.0308	0.2157	1088.8904	0.158826	-385.826947	-385.818921	-385.817976	-385.859808	31.105	
O	 0.0235717784	-0.0694909809	-0.2344892204	-0.245585
C	 0.0693965654	 1.1310679117	-0.1238697341	 0.026939
C	 1.325939425	 1.9253617686	-0.0682645434	 0.174759
C	 1.7585566325	 2.9302278375	 1.0583862465	-0.26425
C	 2.9017356772	 2.9666661758	-0.0017394049	-0.133989
C	 2.7929478462	 1.4107287032	-0.080318786	-0.257204
C	 1.7926869159	 3.02270819	-1.0681767262	 0.414529
C	 1.8199492353	 3.0742388153	-2.5531294392	-0.369828
C	 1.0911091207	 4.1488600989	-1.7405434887	-0.375131
H	-0.8647032325	 1.7372219574	-0.0569281085	 0.069387
H	 1.1571201287	 3.8352268035	 1.1653100514	 0.102826
H	 2.0006317871	 2.4784883931	 2.0237866733	 0.100295
H	 3.8128565269	 3.5645915041	 0.0340118703	 0.079281
H	 3.1115859366	 0.8557925145	 0.8050426763	 0.098444
H	 3.1328905036	 0.9389651266	-1.0034610793	 0.106351
H	 2.7443129126	 3.3555344517	-3.0482784345	 0.117768
H	 1.2124296646	 2.3725465844	-3.1162404315	 0.121762
H	 0.0062117294	 4.1545357766	-1.7775296383	 0.116403
H	 1.5360048265	 5.1383760379	-1.6981175326	 0.117245
56.6766	152.0389	189.7822	226.0453	265.0252	334.5451	466.6894	477.2139	596.548	609.4142	715.6376	744.8757	779.9923	826.7205	896.2908	910.7279	926.0992	958.4159	970.3372	988.6901	1024.389	1046.5157	1059.1648	1073.0097	1079.7302	1083.5853	1143.4834	1154.0309	1164.5032	1179.48	1206.2858	1213.6964	1239.2853	1310.4115	1396.861	1424.0563	1461.8814	1490.4069	1507.8076	1537.4482	1814.781	2852.2698	3058.7699	3068.2738	3111.0713	3120.3882	3124.0394	3131.5707	3139.9875	3196.9438	3210.7849
O=CC12CC(C1)C21CC1	O=C[C@@]12C[C@@H](C1)C12CC1	
InChI=1S/C8H10O/c9-5-7-3-6(4-7)8(7)1-2-8/h5-6H,1-4H2	InChI=1S/C8H10O/c9-5-7-3-6(4-7)8(7)1-2-8/h5-6H,1-4H2/t6-,7+
