17
gdb 23227	2.74785	1.58002	1.15237	1.0577	76.4	-0.2292	0.0141	0.2433	1070.9369	0.135415	-417.895772	-417.887801	-417.886857	-417.928055	30.741	
C	-0.0203337318	 1.518435255	 0.0524474726	-0.509984
C	-0.0799246926	 0.0276544472	 0.0016266009	 0.260604
C	 0.0590994084	-1.0182564832	 1.0705479921	-0.096989
C	-0.4810986305	-2.0756886883	 0.0197581664	-0.196896
C	 0.9682854807	-2.0859384969	-0.5021245734	-0.152609
N	 1.2078896097	-0.7598773924	 0.1754473223	-0.187245
C	-1.037511269	-0.8626797353	-0.7112259027	 0.433621
N	-2.0228412522	-0.5821835181	-1.4538820852	-0.30406
O	-2.7623638824	-1.7427005693	-1.7779640501	-0.39799
H	 0.7093331168	 1.8437119949	 0.7979867569	 0.134804
H	 0.2792583066	 1.9265567348	-0.9179432852	 0.136754
H	-0.9999296582	 1.9338268793	 0.3067419879	 0.133493
H	 0.063434022	-0.9521315727	 2.1506874774	 0.110919
H	-1.0835249645	-2.9633253742	 0.1862104747	 0.101449
H	 1.604399067	-2.8310802406	-0.0181541725	 0.115373
H	 1.1264541353	-2.0966836373	-1.5857568656	 0.11296
H	-3.4682013254	-1.3815292929	-2.3244081367	 0.305798
127.1593	162.4771	181.3082	240.035	278.548	312.4449	390.2161	480.6483	510.3141	595.8007	695.6031	706.0483	753.0591	809.2047	829.9843	864.2043	927.6422	936.8962	970.2537	1000.3272	1029.0528	1032.5738	1073.6611	1107.8132	1143.6294	1155.2104	1186.5873	1218.8105	1261.8744	1304.8301	1379.0243	1411.406	1453.9814	1480.2517	1491.6518	1507.5309	1795.8799	3043.8814	3046.2055	3109.3106	3110.9112	3127.5231	3171.6537	3203.4747	3821.5015
CC12C3C(CN13)C2=NO	C[C@]12[C@H]3[C@H](CN13)C2=NO	
InChI=1S/C6H8N2O/c1-6-4(7-9)3-2-8(6)5(3)6/h3,5,9H,2H2,1H3	InChI=1S/C6H8N2O/c1-6-4(7-9)3-2-8(6)5(3)6/h3,5,9H,2H2,1H3/t3-,5-,6+,8?/m1/s1
