19
gdb 61204	3.73469	0.80998	0.76977	2.6944	76.91	-0.2457	-0.0402	0.2055	1501.1469	0.156294	-419.209239	-419.198924	-419.19798	-419.245133	35.935	
C	 0.2843439805	 1.4723323463	-0.049071839	-0.405247
C	-0.0381354521	-0.0273026013	-0.0324902999	-0.061312
C	 0.694724197	-0.7630564509	 1.0909512945	 0.149085
O	 1.6159729862	-0.3101199242	 1.7165762408	-0.237999
N	-1.4480014937	-0.4184184147	 0.0177524828	-0.072358
C	-2.1871694546	 0.1008378142	 1.1651900842	-0.351787
C	-2.1544431925	-0.2242302598	-1.2390075967	-0.289517
C	-3.3893531787	-1.0199991275	-1.2950114652	 0.280096
N	-4.3670160426	-1.6330705791	-1.3423900965	-0.303381
H	 1.3668107934	 1.6130677684	-0.0815864721	 0.145216
H	-0.1563808246	 1.9638907738	-0.9211050625	 0.115854
H	-0.0812315241	 1.9694308524	 0.8531294062	 0.133863
H	 0.3698330023	-0.4836673988	-0.9493620765	 0.108583
H	 0.3022135456	-1.7887196529	 1.2682625412	 0.096434
H	-2.3854644796	 1.1842376386	 1.1085266833	 0.111297
H	-3.1473100448	-0.416625895	 1.2421444592	 0.153711
H	-1.6267937846	-0.094865796	 2.0836541779	 0.137963
H	-2.429262664	 0.8282292266	-1.4385061069	 0.135944
H	-1.5108343387	-0.54553913	-2.0650636149	 0.153554
57.4418	79.2107	89.5737	150.5121	200.6682	248.8816	254.9141	259.879	282.838	346.9168	388.8758	421.8781	465.0205	587.3923	648.7956	792.1875	859.263	918.7469	944.0535	986.0204	1015.009	1081.6599	1116.9578	1127.3361	1155.1275	1201.0634	1229.4859	1317.4798	1318.4556	1355.4064	1387.7904	1403.6629	1411.7828	1466.6476	1474.735	1486.8036	1490.1928	1496.7951	1518.6119	1837.463	2365.7354	2897.1747	2935.1305	2969.1811	2981.2039	3052.7351	3069.1366	3078.7659	3120.4713	3123.6692	3136.4288
CC(C=O)N(C)CC#N	C[C@@H](C=O)N(C)CC#N	
InChI=1S/C6H10N2O/c1-6(5-9)8(2)4-3-7/h5-6H,4H2,1-2H3	InChI=1S/C6H10N2O/c1-6(5-9)8(2)4-3-7/h5-6H,4H2,1-2H3/t6-/m0/s1
