25
gdb 58085	2.14097	1.25771	1.1202	2.4015	88.31	-0.2361	-0.0084	0.2277	1318.9434	0.224956	-389.524486	-389.512909	-389.511965	-389.56065	43.277	
C	 0.1420015622	 1.5323005266	 0.0133579689	-0.422078
C	 0.0135778037	 0.0069340592	 0.1406662301	 0.054501
C	 0.725290746	-0.4723271969	 1.4168165625	-0.413024
C	-1.4532638838	-0.520214603	 0.0412279715	 0.16169
C	-2.3144076447	-0.0939065195	 1.2451854576	-0.441579
C	-2.1275670544	-0.0131830986	-1.259740001	-0.42754
C	-1.410152608	-2.0604080738	-0.1296620033	 0.38509
C	-2.5910612987	-2.8858020189	 0.3586901044	-0.488563
O	-0.4795832064	-2.6012874336	-0.6846753859	-0.319215
H	 1.1983366563	 1.8172515632	 0.0583076998	 0.113755
H	-0.2553981621	 1.9103095603	-0.9322326667	 0.11281
H	-0.3660885357	 2.059485435	 0.8288251601	 0.11056
H	 0.5381297666	-0.4458489098	-0.7067237693	 0.096859
H	 1.786032826	-0.204177806	 1.3790664673	 0.112026
H	 0.3071373291	-0.007675413	 2.3166446779	 0.108089
H	 0.6667274164	-1.558033304	 1.5309203319	 0.120984
H	-2.3062902559	 0.9951263675	 1.349489366	 0.120516
H	-3.3583857991	-0.3940961051	 1.1198492909	 0.112739
H	-1.9551612668	-0.5191822168	 2.1864023394	 0.119468
H	-1.4923372199	-0.2048742322	-2.1293586293	 0.130528
H	-3.0891925242	-0.5101265565	-1.4279908214	 0.111706
H	-2.3258057336	 1.060421434	-1.2018322951	 0.121695
H	-3.5437789042	-2.4829869765	 0.0013600225	 0.136554
H	-2.4703351863	-3.9129671204	 0.0129746105	 0.13951
H	-2.6341351227	-2.8758619013	 1.4532119209	 0.14292
43.9024	78.9105	182.2304	190.086	212.7485	224.1648	243.1814	254.1829	281.0908	291.1778	330.9828	342.9362	356.2474	403.5055	453.858	487.4944	574.6337	610.3704	660.6945	777.9093	894.9692	926.3895	931.9934	946.3667	961.4252	970.9883	1004.7306	1028.4738	1085.5178	1111.2331	1143.2739	1182.0741	1199.6731	1248.5687	1259.9932	1353.5904	1368.1889	1379.2395	1392.7193	1400.2217	1414.9769	1427.7004	1459.8348	1476.8062	1486.1612	1486.6812	1487.6795	1501.4113	1509.2641	1511.2461	1516.3745	1517.9413	1793.3895	3030.8531	3034.3384	3035.2601	3042.1305	3047.0253	3056.7817	3089.5866	3097.9226	3099.6082	3105.3983	3110.257	3112.6004	3114.5823	3116.1203	3120.077	3152.4381
CC(C)C(C)(C)C(C)=O	CC(C)C(C)(C)C(=O)C	
InChI=1S/C8H16O/c1-6(2)8(4,5)7(3)9/h6H,1-5H3	InChI=1S/C8H16O/c1-6(2)8(4,5)7(3)9/h6H,1-5H3
