18
gdb 18268	4.25001	1.60644	1.32946	1.2093	67.18	-0.2316	0.0791	0.3107	958.3332	0.154244	-384.90956	-384.90201	-384.901065	-384.941567	28.295	
C	 0.0317206403	 1.3077123071	-0.1583690377	-0.237958
O	-0.006117602	-0.0625560965	 0.1720303291	-0.2404
C	-1.308136831	-0.6133276982	 0.1619307732	 0.104178
C	-1.8554641165	-0.8483239028	-1.2787490627	-0.118479
O	-2.5845415245	-2.0690977904	-1.2660149949	-0.255768
C	-2.1255738125	-2.8412168105	-0.1845987078	 0.116523
C	-0.6504595008	-3.0931988943	-0.0437169374	-0.320544
C	-1.3287153568	-1.9997774289	 0.7681001773	-0.105898
H	 1.0673872366	 1.6383781523	-0.0488960033	 0.12934
H	-0.2883355969	 1.5006784744	-1.1936675372	 0.107454
H	-0.6043690249	 1.9048717379	 0.5143113203	 0.104865
H	-1.9860229088	 0.0443452308	 0.7292262199	 0.068622
H	-2.5296862552	-0.0629020559	-1.6311647845	 0.108828
H	-0.9972914325	-0.9025636449	-1.9645001916	 0.104544
H	-2.8540628064	-3.5818634812	 0.1226766616	 0.101876
H	-0.3482826308	-3.9850566853	 0.4941953457	 0.114229
H	 0.0196598269	-2.8037179347	-0.8450223977	 0.127176
H	-1.4091763942	-2.0960150889	 1.8435398475	 0.091413
96.9096	114.5946	192.2883	222.3172	298.7424	406.715	436.4841	494.2432	655.0713	690.8047	773.0151	810.4913	872.543	944.2635	968.3926	982.5871	1015.8548	1033.965	1044.9689	1075.8971	1102.8405	1121.7716	1155.3563	1171.061	1183.0052	1200.997	1228.6318	1241.3387	1315.0715	1320.7376	1354.3706	1386.6025	1408.4219	1478.8271	1480.8447	1492.5165	1509.4474	1521.8543	2968.3043	2975.6857	2999.8798	3018.4586	3084.7302	3114.1794	3139.2437	3182.9005	3191.4389	3226.8095
COC1COC2CC12	CO[C@H]1CO[C@H]2C[C@@H]12	
InChI=1S/C6H10O2/c1-7-6-3-8-5-2-4(5)6/h4-6H,2-3H2,1H3	InChI=1S/C6H10O2/c1-7-6-3-8-5-2-4(5)6/h4-6H,2-3H2,1H3/t4-,5+,6+/m1/s1
