16
gdb 17723	4.51078	2.58603	2.09968	1.4072	67.64	-0.2297	0.0894	0.3191	683.3857	0.132703	-346.501197	-346.495897	-346.494953	-346.530168	22.841	
C	-0.1096985788	 1.5574276035	 0.0078981926	-0.332103
C	 1.4483158464	 1.2966852329	-0.0184453882	-0.114101
C	 1.3370450967	 0.1438158525	 1.0211608966	-0.070822
C	 1.8163664883	-1.0315062856	 0.1361380589	-0.14416
C	 0.6375112974	-2.0510245384	 0.2423984266	-0.105242
O	-0.5557105729	-1.1986625081	 0.2162703303	-0.346422
C	 0.0824344258	 0.0392278143	 0.1100794819	 0.457649
C	 1.2824143194	 0.0091531192	-0.8769369208	-0.070822
H	-0.5061671792	 2.0726663353	 0.8877219416	 0.104138
H	-0.5579563609	 1.9450057288	-0.9116649168	 0.104138
H	 2.231689482	 2.0472051795	-0.0942386053	 0.083373
H	 1.3121552062	 0.2304088567	 2.1075732505	 0.07341
H	 2.8257273213	-1.4466110862	 0.1365366964	 0.068475
H	 0.5943657425	-2.7462517549	-0.6031020015	 0.10954
H	 0.6456449788	-2.6198501092	 1.1785845409	 0.10954
H	 1.1950402769	-0.0582756403	-1.9614777138	 0.07341
271.6742	409.6587	433.8107	449.8395	686.2511	725.6416	725.9565	804.669	830.3795	843.4597	878.9848	892.2149	913.1967	931.5463	959.0662	971.7115	1001.8846	1007.1504	1047.3271	1111.4585	1115.8248	1126.7688	1127.2541	1166.2079	1167.8998	1188.5013	1221.8377	1243.0057	1258.151	1292.2577	1321.0521	1364.3252	1503.4357	1511.0482	3035.0746	3047.8653	3083.0715	3097.6353	3111.005	3111.2689	3116.363	3144.278
C1C2C3C4COC13C24	C1[C@H]2[C@@H]3[C@H]4CO[C@@]13[C@@H]24	
InChI=1S/C7H8O/c1-3-5-4-2-8-7(1,5)6(3)4/h3-6H,1-2H2	InChI=1S/C7H8O/c1-3-5-4-2-8-7(1,5)6(3)4/h3-6H,1-2H2/t3-,4+,5+,6-,7-
