23
gdb 110852	2.12913	1.24621	1.08691	1.8734	86.	-0.2397	0.0777	0.3174	1300.5274	0.204961	-388.26201	-388.252059	-388.251115	-388.296462	37.719	
C	 0.792844103	 0.6026293624	-1.7801526887	-0.423166
C	 1.2861932409	-0.7036112001	-1.1651876852	-0.004113
C	 2.7929179776	-1.124018644	-1.2342165229	-0.265778
C	 2.7626038758	-1.415963016	 0.2730605472	-0.135607
C	 2.4242418074	-0.1771958517	 1.0684146398	-0.074226
C	 2.9916435779	 1.2031527828	 0.8148930778	-0.100491
O	 4.2259625434	 1.3835202995	 1.5011022801	-0.420046
C	 1.3086070124	-0.9116991685	 0.3634914864	 0.302944
C	 0.1374385456	-1.4744113106	 1.1226437186	-0.495575
H	 1.3504101298	 1.4734133452	-1.4260487556	 0.121535
H	 0.8815180247	 0.5738579278	-2.8721653082	 0.113332
H	-0.2640094869	 0.7683743922	-1.5418907348	 0.114587
H	 0.6934447402	-1.5219626848	-1.5912240366	 0.072899
H	 2.9559181784	-2.0131944591	-1.8467721095	 0.101032
H	 3.4998128352	-0.3545143314	-1.5631284022	 0.093463
H	 3.1979985047	-2.2918126516	 0.7415158128	 0.081435
H	 2.4006301645	-0.3826072746	 2.1385749607	 0.088545
H	 3.1122181936	 1.4033590131	-0.257258915	 0.089052
H	 2.3198387542	 1.9712182524	 1.2137598343	 0.108292
H	 4.8096448436	 0.6698726759	 1.222311971	 0.280753
H	-0.6619213672	-0.7310649986	 1.2335020855	 0.119677
H	-0.2900050305	-2.342302793	 0.6064422546	 0.113537
H	 0.4282953915	-1.7926358273	 2.1291123199	 0.117921
76.7476	148.2259	173.0243	181.5987	187.8676	212.3686	264.1747	283.9485	329.4482	376.6315	402.9485	522.38	548.9023	623.8537	705.4166	758.7188	845.4859	862.173	900.7229	925.3613	951.3143	985.581	1015.2404	1036.3777	1050.6125	1087.2337	1097.8134	1116.2694	1127.7794	1163.7684	1180.1755	1204.854	1245.3251	1246.863	1267.6369	1304.2794	1329.55	1369.1306	1384.5296	1409.8153	1414.9703	1415.5599	1473.7819	1485.4165	1492.779	1496.9228	1497.4909	1499.769	1518.3092	3016.0637	3018.7472	3023.8829	3032.2138	3045.2288	3066.826	3072.5179	3087.9396	3093.1521	3103.234	3114.8194	3119.1423	3167.6619	3807.0041
CC1CC2C(CO)C12C	C[C@H]1C[C@H]2[C@@H](CO)[C@@]12C	
InChI=1S/C8H14O/c1-5-3-6-7(4-9)8(5,6)2/h5-7,9H,3-4H2,1-2H3	InChI=1S/C8H14O/c1-5-3-6-7(4-9)8(5,6)2/h5-7,9H,3-4H2,1-2H3/t5-,6-,7+,8-/m0/s1
