18
gdb 53586	4.47652	0.66881	0.61834	4.3959	86.29	-0.2522	0.0246	0.2768	1800.8842	0.146232	-364.79558	-364.785658	-364.784713	-364.832651	34.205	
C	-0.0255100827	 1.4136846483	-0.3237419525	-0.4969
C	-0.0380635757	-0.0114960226	-0.025833758	 0.099246
C	-0.0366139881	-1.1897008833	 0.2212164845	 0.044374
C	-0.0611093637	-2.6189035696	 0.5190142398	-0.393507
C	-1.4135446455	-3.2464636917	 0.2128958079	 0.011176
C	-1.7397328239	-3.731357213	-1.1630324725	-0.272829
C	-1.5360153563	-4.745103743	-0.0426178501	-0.190582
C	-0.3665100247	-5.5776704942	-0.0434846487	 0.288644
N	 0.5781535671	-6.2465153314	-0.0391919633	-0.343953
H	 0.8007945949	 1.6724854141	-0.9949468196	 0.149872
H	-0.9562629119	 1.7265767947	-0.809758175	 0.147466
H	 0.088669348	 2.0108986209	 0.5876202531	 0.148758
H	 0.7200411661	-3.1373569152	-0.0507274983	 0.14698
H	 0.1827219259	-2.784797893	 1.5765172064	 0.139043
H	-2.2362679507	-2.8265499981	 0.7831717948	 0.112286
H	-2.7482749239	-3.6175300022	-1.5425898713	 0.13115
H	-0.9614101686	-3.6737659851	-1.9155358286	 0.143621
H	-2.4214955864	-5.2356774258	 0.3468631313	 0.135157
22.2601	43.842	71.3986	127.9256	205.1276	209.8669	269.691	341.2664	364.1899	382.6965	483.2222	554.359	607.8685	765.4478	788.6316	815.3195	876.8429	882.6518	955.5492	1024.051	1053.1023	1054.4321	1076.7972	1109.167	1120.5703	1159.2151	1169.4034	1225.6017	1255.7166	1331.2132	1371.7663	1415.3879	1416.3117	1468.5262	1478.4144	1479.2971	1491.6892	2349.923	2375.9243	3021.6725	3027.4987	3054.5395	3087.9844	3088.5673	3144.8762	3160.4714	3172.4898	3235.4865
CC#CCC1CC1C#N	CC#CC[C@H]1C[C@H]1C#N	
InChI=1S/C8H9N/c1-2-3-4-7-5-8(7)6-9/h7-8H,4-5H2,1H3	InChI=1S/C8H9N/c1-2-3-4-7-5-8(7)6-9/h7-8H,4-5H2,1H3/t7-,8-/m0/s1
