19
gdb 80724	3.49609	1.02278	0.94377	1.8343	80.93	-0.2446	0.0538	0.2984	1297.5695	0.158386	-385.819052	-385.810287	-385.809342	-385.852587	33.82	
O	 0.0797108123	 1.388831164	 0.1879777871	-0.419714
C	-0.0338401795	-0.0070853606	 0.1009547696	 0.113677
C	-0.4485597051	-0.7895749688	 1.2915216539	-0.090097
C	-1.5369970637	-0.048709244	 2.0802825764	-0.246141
C	-2.4647450644	-0.0963148297	 0.824247726	 0.036025
C	-3.095048841	 1.2061133719	 0.3007876422	-0.377848
C	-4.1616401252	 1.6945828063	 1.1669941515	 0.299535
C	-5.034203384	 2.0694543308	 1.9046565761	-0.450878
C	-1.3371313213	-0.7524236084	 0.0137717815	-0.162674
H	-0.0299833846	 1.7502704029	-0.6979682673	 0.286221
H	 0.7643995533	-0.4783398326	-0.4744475828	 0.089096
H	 0.1559440768	-1.600983084	 1.6790450622	 0.088749
H	-1.9330550597	-0.6226072603	 2.9191174596	 0.104251
H	-1.2553638017	 0.9470930594	 2.4302716097	 0.117178
H	-3.2622246408	-0.8249854271	 0.9929784061	 0.087071
H	-2.3151744912	 1.9686091181	 0.2092558284	 0.133898
H	-3.4931250361	 1.0344626519	-0.7087264833	 0.119371
H	-5.8055786459	 2.4136825588	 2.5475806308	 0.191462
H	-1.4912767282	-1.5202074185	-0.7373814577	 0.080819
65.0823	109.0474	163.5469	220.3643	298.3875	328.912	357.9323	376.2261	466.5886	502.402	613.4054	614.5331	634.4441	720.3972	754.8347	811.576	840.9031	876.0506	943.7367	961.354	985.6323	993.0396	1015.9385	1047.2939	1072.2228	1093.538	1117.9659	1157.5872	1212.1468	1233.8862	1244.8916	1265.1346	1290.9179	1297.5952	1316.9295	1357.7369	1380.873	1461.0305	1476.1045	1494.2002	2235.0643	3016.521	3061.5878	3074.0766	3084.0535	3093.6194	3128.2752	3159.8015	3181.6084	3508.0557	3806.3887
OC1C2CC(CC#C)C12	O[C@H]1[C@H]2C[C@@H](CC#C)[C@@H]12	
InChI=1S/C8H10O/c1-2-3-5-4-6-7(5)8(6)9/h1,5-9H,3-4H2	InChI=1S/C8H10O/c1-2-3-5-4-6-7(5)8(6)9/h1,5-9H,3-4H2/t5-,6+,7-,8+/m1/s1
