17
gdb 128283	3.59253	1.17816	0.9085	3.3604	74.73	-0.187	0.0392	0.2262	1276.3995	0.136173	-451.333645	-451.32431	-451.323366	-451.368536	32.517	
C	-0.1009949079	 1.4129424235	 0.2778764093	-0.335659
N	-0.0896923145	 0.0245234156	-0.1720446163	-0.382328
C	-1.2063410703	-0.7479023433	-0.0419763415	 0.502208
N	-1.2611266672	-2.0200714555	 0.1464940782	-0.355515
N	-2.6304715563	-2.2964888141	 0.0472860444	-0.054927
C	-3.1440771417	-3.6058593991	 0.3475255429	-0.320959
C	-3.3689419078	-1.1599715317	-0.1019531825	 0.448683
N	-4.6285416873	-1.0326345512	-0.1472089231	-0.616729
O	-2.4141171405	-0.1378619129	-0.2016687178	-0.234285
H	 0.8174712269	 1.8948664539	-0.0628971881	 0.13689
H	-0.9476755389	 1.9311076662	-0.1746588038	 0.16019
H	-0.1718398694	 1.5163480848	 1.3697853337	 0.126844
H	 0.7470219724	-0.497677879	 0.0463220668	 0.261504
H	-2.6760856526	-4.3533472536	-0.2996198002	 0.137249
H	-2.9608283677	-3.8783529191	 1.3939520312	 0.13017
H	-4.2189374256	-3.5810805233	 0.1637962106	 0.171103
H	-4.8999309016	-0.0660488713	-0.2954894337	 0.225562
56.957	88.0826	115.5942	146.226	182.0453	207.5772	279.4246	319.4661	395.0076	553.8134	588.6263	662.4588	674.5461	692.6365	710.9988	737.6198	839.4952	978.3598	1001.4129	1033.4691	1073.4096	1150.6792	1159.9559	1178.603	1192.3486	1276.6915	1424.543	1428.5545	1445.3868	1453.6605	1482.8032	1485.6659	1495.9096	1517.0181	1518.8651	1716.4767	1809.0544	3006.2532	3025.9238	3089.9059	3105.8905	3149.1531	3155.0809	3559.5687	3607.724
CNC1=NN(C)C(=N)O1	CNC1=NN(C)[C@H]([NH])O1	
InChI=1S/C4H8N4O/c1-6-4-7-8(2)3(5)9-4/h5H,1-2H3,(H,6,7)	InChI=1S/C4H9N4O/c1-6-4-7-8(2)3(5)9-4/h3,5H,1-2H3,(H,6,7)/t3-/m0/s1
