22
gdb 17374	3.66915	1.49858	1.22986	0.2251	81.34	-0.2485	0.0847	0.3332	1084.8728	0.200431	-313.048782	-313.04031	-313.039366	-313.081403	32.926	
C	 0.0255966503	 1.5188431935	-0.0605078144	-0.389262
C	 0.0721864163	-0.0087209234	 0.0824799276	 0.02481
C	 0.7496049392	-0.4231948534	 1.3955480964	-0.389266
C	-1.3323571787	-0.6093024233	-0.0189162944	 0.053753
C	-2.1163404566	-0.5344064254	-1.3785216337	-0.268821
C	-2.3069716151	-2.0554895191	-1.3335388629	-0.040838
C	-0.9721605058	-2.7414734651	-1.3100281689	-0.275357
C	-1.5015504096	-2.1392754313	-0.0354436167	-0.068905
H	 1.0314159933	 1.9511012124	-0.0329098107	 0.107513
H	-0.4424135624	 1.8213558433	-1.0029653598	 0.113199
H	-0.551079417	 1.9697068358	 0.7564569029	 0.108623
H	 0.6743608939	-0.4057636794	-0.7468080695	 0.066805
H	 0.1896416034	-0.0471911802	 2.2608018817	 0.107502
H	 0.8104668515	-1.5124391254	 1.4846557676	 0.116607
H	 1.766957965	-0.0232152187	 1.4618227117	 0.106822
H	-1.9526611393	-0.1804325422	 0.777546093	 0.064778
H	-3.0471731473	 0.0309106387	-1.2972774478	 0.09965
H	-1.5569835644	-0.1572408143	-2.2425381413	 0.090484
H	-3.2150851478	-2.5812670261	-1.6022177475	 0.081644
H	-1.0041504403	-3.8258096138	-1.3485211251	 0.10724
H	-0.1203975143	-2.3079868034	-1.8291686452	 0.1038
H	-1.6885252045	-2.7539734791	 0.8373187369	 0.079219
80.1262	148.197	184.2085	222.5588	243.3468	314.6759	361.0777	380.7882	444.7493	512.4951	676.7734	778.3274	791.5632	803.9041	890.4776	920.5245	928.0682	948.7846	955.822	971.0221	1008.0606	1014.8537	1030.1761	1056.582	1068.4696	1085.6827	1129.9049	1147.1167	1178.8706	1196.9242	1226.0346	1243.2932	1265.5073	1301.0424	1310.1826	1347.6063	1366.2433	1395.2738	1398.6627	1420.4061	1483.0469	1487.7348	1491.8168	1499.2947	1504.6452	1509.8025	3002.4436	3021.0736	3023.8406	3031.083	3035.0826	3084.5808	3091.0032	3099.1375	3101.8385	3103.1505	3109.4876	3170.6467	3181.9113	3198.8676
CC(C)C1CC2CC12	CC(C)[C@H]1C[C@H]2C[C@@H]12	
InChI=1S/C8H14/c1-5(2)7-3-6-4-8(6)7/h5-8H,3-4H2,1-2H3	InChI=1S/C8H14/c1-5(2)7-3-6-4-8(6)7/h5-8H,3-4H2,1-2H3/t6-,7+,8+/m0/s1
