15
gdb 32042	2.89389	1.47795	0.98443	4.048	76.57	-0.2112	-0.0551	0.156	1136.45	0.112662	-453.957465	-453.949453	-453.948509	-453.990593	29.023	
C	-0.100705848	 1.4450937346	 0.0097959713	-0.247186
O	-0.0448232035	 0.0138573132	 0.0052668825	-0.250023
C	-1.1814370108	-0.6757665005	 0.0116347571	 0.452324
C	-1.2284306945	-2.0314750888	 0.0084031481	-0.194747
N	-2.4360245052	-2.6864036859	 0.0152991942	-0.210817
C	-3.5260001982	-1.9948749814	 0.0249293865	-0.039947
C	-3.5694598333	-0.5403420156	 0.0291242408	 0.347692
N	-4.6250540977	 0.158493461	 0.0385367151	-0.519961
O	-2.2993703885	 0.0714771861	 0.0216224087	-0.260523
H	 0.9392588325	 1.7699896209	 0.0032230971	 0.149344
H	-0.616454641	 1.8218600841	-0.877514044	 0.144675
H	-0.6035723465	 1.8167170696	 0.9066198393	 0.144672
H	-0.3194856543	-2.6156872557	 0.0003629183	 0.123388
H	-4.4865067573	-2.5004897398	 0.0304411627	 0.136652
H	-4.4177613838	 1.1568071383	 0.0396986924	 0.224458
69.2518	129.6372	155.841	206.2225	211.0895	408.7487	440.7498	487.6575	513.1384	600.4185	674.1831	718.721	733.8163	811.0709	836.8336	903.6553	914.3041	981.438	1033.6283	1063.39	1160.3491	1173.5478	1194.2153	1247.8956	1318.1687	1377.0344	1402.2484	1484.331	1488.3923	1498.0218	1567.4992	1660.5669	1740.4014	3047.3932	3121.8017	3162.496	3184.9968	3231.2492	3498.5295
COC1=CN=CC(=N)O1	COC1=C[N]C=C([NH])O1	
InChI=1S/C5H6N2O2/c1-8-5-3-7-2-4(6)9-5/h2-3,6H,1H3	InChI=1S/C5H6N2O2/c1-8-5-3-7-2-4(6)9-5/h2-3,6H,1H3
