19
gdb 75636	1.97309	1.85247	1.14873	3.0959	76.75	-0.2325	-0.0211	0.2114	1136.5176	0.155622	-423.025837	-423.016127	-423.015183	-423.060026	35.373	
C	-0.0460449289	 1.6083458269	 0.0675112277	-0.415363
C	-0.0022566519	 0.0888525039	-0.0188187904	-0.187889
C	 1.0481444184	-0.5940150626	-0.9505878763	 0.392329
O	 1.2013597527	-0.6279743427	-2.1363545844	-0.308762
C	 1.6708957507	-1.3410700513	 0.2269478367	 0.204821
C	 2.4456518611	-2.6143241074	 0.2643168392	-0.516392
O	 2.0254238375	-0.2727996951	 1.1493166991	-0.316302
C	 0.6619525479	-0.7072320772	 1.1287954602	 0.341437
C	 0.0419855503	-1.2067308039	 2.3924966766	-0.506173
H	 0.9185304637	 1.9974778935	 0.4028573263	 0.137802
H	-0.2671775533	 2.0374980886	-0.9143902966	 0.134168
H	-0.8201617315	 1.9473579818	 0.7637765545	 0.116899
H	-0.986212561	-0.3245258545	-0.2784614191	 0.097808
H	 3.4454813064	-2.4669904917	-0.1564663273	 0.147623
H	 2.5567810463	-2.9712132898	 1.2918542555	 0.134736
H	 1.9427160645	-3.3853116667	-0.327266621	 0.13704
H	-0.2070050565	-0.3722787576	 3.0572718023	 0.139142
H	-0.8818601477	-1.7534759514	 2.178789179	 0.130398
H	 0.7297483713	-1.8684759226	 2.925634418	 0.136678
87.6316	151.4898	178.76	183.426	187.3445	202.3399	209.2183	255.3123	343.6836	373.7363	518.0991	576.9405	593.0701	630.2533	691.9192	752.0396	781.3085	814.6898	902.2873	963.5797	1020.3127	1058.5409	1075.4099	1092.0359	1126.3564	1148.9358	1194.2531	1212.3315	1296.8984	1339.1446	1399.8857	1406.5002	1411.7185	1463.6443	1473.1727	1485.4786	1487.9798	1494.8761	1499.9771	1506.9424	1891.0457	3028.9271	3036.6495	3039.5204	3041.2569	3099.9971	3104.356	3108.4873	3119.9656	3121.7001	3126.7209
CC1C(=O)C2(C)OC12C	C[C@H]1C(=O)[C@@]2(C)O[C@@]12C	
InChI=1S/C7H10O2/c1-4-5(8)7(3)6(4,2)9-7/h4H,1-3H3	InChI=1S/C7H10O2/c1-4-5(8)7(3)6(4,2)9-7/h4H,1-3H3/t4-,6-,7+/m0/s1
