21
gdb 118860	2.87134	0.86652	0.73839	2.3993	76.52	-0.2575	0.0756	0.3331	1601.1369	0.179066	-461.326516	-461.315738	-461.314793	-461.36331	37.765	
C	 0.3074442442	 1.3297291203	-0.2205093614	-0.224952
O	 0.3390612574	-0.0740812097	-0.1251804926	-0.23435
C	 0.4344046369	-0.5301404946	 1.2064301167	-0.119697
C	 0.4572199123	-2.0456334944	 1.1993171369	 0.373436
C	-0.6107883932	-2.6963336709	 0.3459943103	-0.461539
O	 1.760332951	-2.6489065187	 1.0973681791	-0.302518
C	 1.0318127654	-2.8036324043	 2.3269431418	-0.025588
C	 1.6975589303	-2.2343053086	 3.5570787454	-0.093578
O	 2.8127382856	-3.0282275759	 3.9281750994	-0.417343
H	 1.2219560157	 1.7876799379	 0.1881142006	 0.107623
H	 0.2289462958	 1.5831250922	-1.2802475965	 0.130968
H	-0.5570018989	 1.7560823619	 0.3133888052	 0.104087
H	 1.3442526009	-0.1370631345	 1.68012397	 0.094637
H	-0.4320691693	-0.1773108929	 1.7947153999	 0.08789
H	-0.5158532223	-2.3645211267	-0.6898849306	 0.148558
H	-0.5166341371	-3.7838776968	 0.3827791411	 0.124087
H	-1.6096188604	-2.4173178725	 0.6989976449	 0.117689
H	 0.6492903734	-3.8155161342	 2.4789705749	 0.091918
H	 1.9895847995	-1.1876796707	 3.3997947446	 0.091875
H	 1.0030973099	-2.266060228	 4.4039846267	 0.112719
H	 3.392968173	-3.0637630288	 3.1588982036	 0.294077
45.1501	78.0488	83.3485	129.5266	168.4098	193.7067	229.2605	251.3476	315.3677	341.8001	373.0694	412.5452	466.4187	505.1298	589.8418	733.2901	823.9181	896.3031	954.5321	957.062	994.6175	1052.4817	1065.4108	1108.8543	1120.6595	1127.0854	1160.036	1186.1982	1218.8242	1225.6755	1262.4386	1293.613	1333.1587	1368.2229	1406.6258	1418.2284	1424.8671	1471.9348	1476.4865	1484.7801	1486.1627	1492.7354	1497.6429	1509.9352	1521.3378	2943.5977	2970.3088	3009.3379	3014.3962	3028.7441	3044.6803	3069.849	3090.5603	3116.0395	3117.5813	3140.8074	3798.754
COCC1(C)OC1CO	COC[C@@]1(C)O[C@H]1CO	
InChI=1S/C6H12O3/c1-6(4-8-2)5(3-7)9-6/h5,7H,3-4H2,1-2H3	InChI=1S/C6H12O3/c1-6(4-8-2)5(3-7)9-6/h5,7H,3-4H2,1-2H3/t5-,6+/m0/s1
