19
gdb 108488	2.15841	1.58824	1.21019	1.3092	70.27	-0.2496	0.0509	0.3004	1095.8192	0.158633	-460.113191	-460.104356	-460.103412	-460.14712	33.053	
O	-0.2292645564	 1.5047583408	 0.2946886167	-0.421909
C	-0.0173175374	 0.1098482652	 0.1124818944	-0.185969
C	-1.3354216736	-0.6113391929	-0.0314760672	 0.272882
C	-2.2565567417	-0.6352516126	 1.2044737619	-0.134931
O	-2.4233173372	-2.0707231947	 1.1311277419	-0.287323
C	-1.6164963238	-2.1484003299	-0.0580876257	 0.040498
C	-2.4642873058	-1.9933249042	-1.346310098	-0.289902
C	-2.0772847843	-0.4818677682	-1.3960399095	 0.061611
O	-3.0569931983	 0.5127167383	-1.5677629789	-0.43263
H	-0.8078052001	 1.8074315799	-0.4147635984	 0.293695
H	 0.6258808861	-0.088943413	-0.761035918	 0.086646
H	 0.5251362735	-0.231272014	 1.0013828109	 0.111419
H	-1.7635579047	-0.3304828303	 2.1346111743	 0.118351
H	-3.2113913785	-0.0956867302	 1.1318135644	 0.085321
H	-0.8614161707	-2.9361273444	-0.0097234128	 0.080254
H	-2.1451250021	-2.5743267737	-2.2145330173	 0.109704
H	-3.5231209668	-2.1888575107	-1.1559227064	 0.111098
H	-1.3460443247	-0.2977526676	-2.1908551256	 0.094346
H	-3.7791503836	 0.3401436323	-0.9540861266	 0.286841
58.3629	87.9773	136.9895	243.8555	285.7286	305.4036	329.7543	380.1374	424.0464	449.4014	516.74	628.2502	701.4175	777.2898	862.7728	907.9994	945.1711	951.4011	996.5629	1004.6547	1021.1189	1042.1518	1070.9295	1114.285	1133.1941	1144.8044	1158.5474	1175.2286	1201.4857	1256.0524	1281.3335	1293.8325	1307.0772	1324.5394	1368.912	1375.6458	1427.798	1434.2239	1462.3621	1510.2471	1530.3796	2965.0593	2998.8352	3047.8991	3054.5356	3061.2929	3063.3616	3086.7636	3121.7216	3796.6662	3807.5867
OCC12COC1CC2O	OC[C@]12CO[C@H]1C[C@H]2O	
InChI=1S/C6H10O3/c7-2-6-3-9-5(6)1-4(6)8/h4-5,7-8H,1-3H2	InChI=1S/C6H10O3/c7-2-6-3-9-5(6)1-4(6)8/h4-5,7-8H,1-3H2/t4-,5+,6-/m1/s1
