13
gdb 44980	3.68603	1.33583	1.11759	4.5104	64.94	-0.2733	-0.0148	0.2584	1034.1253	0.089455	-452.744955	-452.737884	-452.736939	-452.77675	26.631	
N	-0.1744436712	 1.1598522854	-0.5222850546	-0.553729
C	-0.0501369172	 0.0403109327	 0.0195579288	 0.482836
O	 1.1172578051	-0.6288931857	 0.305484732	-0.244569
C	 0.8220859095	-1.8256744931	 0.9747712985	 0.025964
C	 0.1342482111	-1.7201658831	 2.3056140061	-0.36521
C	-0.6848177058	-1.8830110591	 1.0346228767	 0.26014
O	-1.1291730421	-0.6890126169	 0.4376328201	-0.250695
C	-1.4889662265	-3.0387803081	 0.7673986568	 0.249548
N	-2.1136088749	-3.9932936841	 0.5817316035	-0.326383
H	 0.7323114798	 1.5551852951	-0.7561581796	 0.245687
H	 1.4619402806	-2.6536957374	 0.7014890628	 0.15525
H	 0.1959100934	-2.5866985815	 2.9540284051	 0.160277
H	 0.0820488482	-0.7555825442	 2.7985082139	 0.160884
100.1473	157.04	176.1971	332.6198	433.7046	458.7237	499.18	554.3873	601.9408	704.891	716.776	784.3237	797.9722	855.0176	881.531	926.5307	977.7198	1006.1885	1039.7858	1048.8254	1087.8913	1156.9448	1218.1258	1260.078	1300.3357	1394.8539	1455.5128	1818.2091	2364.7802	3142.5136	3217.4314	3243.8707	3552.0068
N=C1OC2CC2(O1)C#N	[NH][C]1O[C@H]2C[C@]2(O1)C#N	
InChI=1S/C5H4N2O2/c6-2-5-1-3(5)8-4(7)9-5/h3,7H,1H2	InChI=1S/C5H4N2O2/c6-2-5-1-3(5)8-4(7)9-5/h3,7H,1H2/t3-,5-/m0/s1
