19
gdb 80904	2.05861	1.74341	1.45504	2.7942	71.7	-0.2411	0.051	0.2922	1031.7729	0.156491	-460.103493	-460.094492	-460.093547	-460.136252	35.363	
C	-0.0762555445	 1.5404789431	-0.0326352004	-0.477582
C	-0.032895716	 0.0250032304	-0.0325060133	 0.379503
O	-1.3057360215	-0.5226269763	-0.3633250557	-0.493562
C	 1.248580456	-0.679774965	-0.5872990707	-0.089973
O	 1.9583770863	-0.1919803546	 0.6099093359	-0.33316
C	 0.6764394021	-0.7089774291	 1.152349567	 0.301924
C	 0.4153048606	-0.6152083029	 2.6211087758	-0.530344
C	 0.9142560206	-1.9665745984	 0.2362016513	 0.129715
O	-0.0697685614	-2.8810852044	-0.0990227676	-0.440685
H	 0.8932992791	 1.950629798	 0.2495464409	 0.151273
H	-0.3321130824	 1.9166147647	-1.031647585	 0.106904
H	-0.839998335	 1.9000323304	 0.6644054642	 0.12609
H	-1.6387053234	-0.0692741731	-1.1452250536	 0.28845
H	 1.7504965751	-0.5601833924	-1.5487622719	 0.083456
H	 0.3833145264	 0.4266427599	 2.9552555408	 0.129838
H	-0.5461418869	-1.0840578596	 2.8528783521	 0.139585
H	 1.1966825094	-1.1372550631	 3.1813302297	 0.137966
H	 1.8175163529	-2.5075645644	 0.5241639474	 0.09942
H	-0.8569864273	-2.3669096234	-0.3293009272	 0.291184
166.0616	185.7941	197.9756	207.201	240.351	270.4429	306.8665	360.257	415.8103	448.5978	460.9066	574.3084	612.6966	659.651	675.4979	686.072	745.3309	842.6374	865.768	884.1815	937.6648	962.0761	1062.0613	1087.4728	1105.498	1140.6667	1169.959	1178.4263	1204.4561	1226.5922	1245.7062	1307.1941	1334.5488	1390.101	1398.9837	1418.2596	1472.8475	1477.1488	1484.636	1492.0182	1502.9865	3025.751	3038.7924	3089.6496	3104.3569	3111.0564	3112.7759	3116.8532	3154.7208	3724.0623	3807.7566
CC1(O)C2OC1(C)C2O	C[C@@]1(O)[C@H]2O[C@]1(C)[C@H]2O	
InChI=1S/C6H10O3/c1-5(8)4-3(7)6(5,2)9-4/h3-4,7-8H,1-2H3	InChI=1S/C6H10O3/c1-5(8)4-3(7)6(5,2)9-4/h3-4,7-8H,1-2H3/t3-,4-,5+,6+/m0/s1
