19
gdb 87909	2.47537	1.47489	1.16501	1.2668	76.58	-0.2461	0.016	0.2621	1115.5889	0.159214	-423.013048	-423.004512	-423.003568	-423.046211	33.254	
O	-0.3370037756	 1.4307828694	-0.2368132064	-0.424487
C	-0.1730074785	 0.0430631794	-0.1610721428	 0.060293
C	-0.3428526449	-0.6650449502	 1.1558265322	-0.384814
C	-1.4154707741	-0.7655183648	 0.0917110009	 0.280732
C	-2.7689294121	-0.0640778251	 0.2588240139	-0.338856
C	-3.7100283057	-0.9537640416	-0.5126239638	-0.06838
C	-3.1136593205	-2.0384870836	-1.0037808398	-0.109774
C	-1.6375674942	-2.0811290907	-0.6915185619	 0.008223
O	-0.8233816835	-2.2346650491	-1.8530029735	-0.426343
H	 0.430055498	 1.8431617371	 0.1732682047	 0.289169
H	 0.5414024047	-0.3777385179	-0.8665247296	 0.098014
H	 0.2732280982	-1.5373009423	 1.3543939121	 0.111824
H	-0.5648153226	-0.0512759468	 2.0239326041	 0.107136
H	-3.0674015691	 0.0052821028	 1.3133948165	 0.107677
H	-2.7523416931	 0.9633445878	-0.1224319302	 0.128858
H	-4.7629638112	-0.7163617901	-0.6243212355	 0.097196
H	-3.5876514291	-2.8230574686	-1.5828948916	 0.097538
H	-1.3761523686	-2.953058195	-0.0789297218	 0.090368
H	-1.0708366981	-1.5309616707	-2.4642994275	 0.275625
53.9805	162.9668	212.5576	256.669	269.9683	285.8598	377.4029	436.4497	462.8082	492.5716	542.696	569.514	726.1173	779.377	802.2927	822.8354	892.0608	918.0492	965.3791	980.9092	992.4263	1018.9477	1036.3005	1045.6806	1070.9756	1098.2159	1135.1883	1164.796	1190.9905	1233.1919	1258.3271	1268.7481	1290.1203	1304.9201	1351.5473	1370.005	1422.823	1429.748	1483.3284	1491.3567	1687.715	3017.8415	3028.7007	3058.606	3113.3629	3121.0838	3179.3948	3203.6011	3207.0133	3791.0149	3810.3137
OC1CC11CC=CC1O	O[C@H]1C[C@]21CC=C[C@H]2O	
InChI=1S/C7H10O2/c8-5-2-1-3-7(5)4-6(7)9/h1-2,5-6,8-9H,3-4H2	InChI=1S/C7H10O2/c8-5-2-1-3-7(5)4-6(7)9/h1-2,5-6,8-9H,3-4H2/t5-,6+,7-/m1/s1
