18
gdb 9702	3.57893	1.56373	1.52873	2.6786	72.67	-0.2409	-0.0173	0.2235	930.2889	0.152954	-347.831192	-347.823091	-347.822146	-347.865155	29.743	
C	 0.0587662836	 1.5336945942	 0.0158680557	-0.447843
C	 0.0119949643	 0.0059646152	 0.0048809517	 0.230218
C	 0.7946888693	-0.6278631577	-1.2001398532	-0.312604
C	 1.641871336	-1.7073131157	-0.5797005024	-0.05672
C	 1.5676272973	-1.7146447097	 0.7485346931	-0.056729
C	 0.6558817962	-0.6415684257	 1.2825167343	-0.312637
C	-1.4219208696	-0.4885844583	-0.0781621506	 0.129987
O	-2.4023351458	 0.2079720349	-0.129830224	-0.259596
H	 1.0945835763	 1.8821433314	 0.0752510484	 0.10991
H	-0.3951440103	 1.9471454437	-0.8890717348	 0.126887
H	-0.4926533251	 1.9375267349	 0.8695493427	 0.126842
H	 0.1178885514	-1.0227702888	-1.9703174427	 0.110108
H	 1.4064034797	 0.1315295376	-1.7042707176	 0.114678
H	 2.2530780051	-2.3755393354	-1.1764585445	 0.097312
H	 2.1089264365	-2.3897795198	 1.4022973214	 0.097313
H	 1.2070776392	 0.1118330624	 1.8600776509	 0.114672
H	-0.102344055	-1.0445763387	 1.9679880082	 0.110089
H	-1.5084781491	-1.6015636645	-0.0885907066	 0.078114
13.4109	87.0617	228.2814	257.2774	286.2856	367.3647	378.4841	392.7838	463.1333	681.4049	717.6361	773.1001	776.6829	891.0271	902.4891	945.3873	972.755	979.9391	988.4402	991.1258	1045.5795	1123.724	1129.2515	1160.3486	1171.4274	1180.6156	1300.6974	1305.1596	1340.6597	1364.5302	1407.8214	1427.5499	1483.4054	1489.0439	1489.1113	1495.08	1697.6091	1829.9679	2848.6694	3009.358	3011.8732	3036.1479	3036.5093	3041.4263	3112.5389	3118.0013	3181.8709	3207.0894
CC1(CC=CC1)C=O	C[C@]1(CC=CC1)C=O	
InChI=1S/C7H10O/c1-7(6-8)4-2-3-5-7/h2-3,6H,4-5H2,1H3	InChI=1S/C7H10O/c1-7(6-8)4-2-3-5-7/h2-3,6H,4-5H2,1H3
