14
gdb 129162	4.44033	1.09988	0.936	3.4074	65.95	-0.23	-0.0156	0.2144	1188.0771	0.101471	-469.969661	-469.962212	-469.961268	-470.002128	27.513	
N	-0.0443310428	 0.9396481804	 0.9407172172	-0.600318
C	 0.0495949819	-0.1270810557	 0.2730605857	 0.49208
N	-0.5715645445	-1.3367637867	 0.5500178331	-0.389395
C	-0.2476407102	-2.2084980405	-0.4500389596	 0.440754
N	 0.5545765754	-1.698558825	-1.3230563254	-0.201685
O	 0.7767201038	-0.3652667436	-0.8704424327	-0.241207
C	-0.7499007941	-3.5941981123	-0.4966397601	-0.035178
C	-0.7175722647	-4.4516284535	 0.7021487858	-0.177079
O	-1.9297725193	-3.828491636	 0.2764944744	-0.233653
H	 0.5034594582	 1.6843301927	 0.5172006146	 0.236402
H	-1.3156636218	-1.4564465866	 1.2160135165	 0.294433
H	-0.718348403	-4.0546873934	-1.4805025665	 0.138485
H	-0.6742473995	-5.5308794373	 0.5719247915	 0.141161
H	-0.2896224091	-4.0668917626	 1.6254788555	 0.135197
88.0993	126.8143	153.5947	238.1841	386.7868	430.3529	481.4232	500.5159	647.0675	687.8445	731.8448	748.5558	770.6731	860.6072	894.6139	909.7425	953.988	991.5552	1039.7836	1075.6986	1093.1279	1156.666	1166.6922	1248.2688	1269.7963	1309.995	1399.9927	1516.869	1523.3807	1663.0891	1798.4805	3098.8439	3159.6994	3193.8819	3540.0407	3684.1866
N=C1NC(=NO1)C1CO1	[NH][C@@H]1NC(=NO1)[C@H]1CO1	
InChI=1S/C4H5N3O2/c5-4-6-3(7-9-4)2-1-8-2/h2H,1H2,(H2,5,6,7)	InChI=1S/C4H6N3O2/c5-4-6-3(7-9-4)2-1-8-2/h2,4-5H,1H2,(H,6,7)/t2-,4-/m1/s1
