14
gdb 10472	3.02759	1.76076	1.26115	5.4492	60.5	-0.2721	-0.0424	0.2297	938.659	0.104618	-419.689374	-419.681608	-419.680663	-419.721819	27.41	
O	 0.060244613	 0.0079277203	 0.0410853463	-0.264951
C	 0.0789032249	 1.1929242352	 0.1551467609	 0.171638
O	 1.1574967788	 1.9305426476	-0.2301731056	-0.224813
C	 1.0467251347	 3.3221493491	-0.1177758846	 0.318184
C	 1.3416273645	 3.9746511181	 1.2303844936	-0.318837
C	 2.3486333426	 4.0486727469	 0.128280829	-0.308725
C	 0.0309839256	 3.9655845212	-0.9922366394	 0.123368
O	-0.7686265918	 3.3616520444	-1.6590260765	-0.259283
H	-0.7281642432	 1.8044627495	 0.5917720117	 0.094673
H	 0.7838659949	 4.8652271897	 1.4986784978	 0.138042
H	 1.527310433	 3.2840842852	 2.0445569044	 0.150588
H	 3.2192651819	 3.4069124905	 0.1870844464	 0.156994
H	 2.5029589553	 4.992979928	-0.3818118116	 0.137656
H	 0.0636635957	 5.0781559543	-0.9689560825	 0.085468
89.0725	140.1703	158.0426	210.1342	265.4858	321.9533	355.2856	503.0611	519.2796	610.4609	774.2856	829.5107	880.1204	924.7194	969.8952	1017.7302	1033.9393	1044.0588	1069.7994	1093.2104	1147.0609	1198.8534	1285.5606	1326.7484	1424.8301	1430.4052	1455.3099	1487.5383	1824.8484	1878.5595	2882.9405	3002.7303	3142.6122	3147.1181	3231.3678	3245.3761
O=COC1(CC1)C=O	O=COC1(CC1)C=O	
InChI=1S/C5H6O3/c6-3-5(1-2-5)8-4-7/h3-4H,1-2H2	InChI=1S/C5H6O3/c6-3-5(1-2-5)8-4-7/h3-4H,1-2H2
