15
gdb 54748	2.74927	1.40831	1.2615	3.2332	65.67	-0.2532	-0.0322	0.221	1025.7269	0.112009	-453.937847	-453.92975	-453.928806	-453.971565	29.916	
N	-0.0591688069	 1.2840819959	-0.0247241038	-0.510876
C	 0.065692632	-0.0645613632	 0.117944122	 0.367415
O	 1.1082826268	-0.6164943336	 0.4060013007	-0.350202
C	-1.2481128177	-0.8218568687	-0.0261784512	-0.107432
C	-2.0601642474	-0.9054264031	-1.2820626221	-0.19845
N	-1.3648330744	-2.1243325834	-0.6542634805	-0.125859
C	-0.3728975084	-2.1445499262	-1.7984047184	-0.295654
C	-1.1454592598	-0.9969379485	-2.4751965503	 0.404278
O	-1.1707016736	-0.5264360683	-3.5744829664	-0.302325
H	 0.774261137	 1.8469064737	 0.0426398775	 0.270231
H	-0.8865084776	 1.6965197224	-0.4202855819	 0.270175
H	-1.8512734776	-0.7548633179	 0.8787428736	 0.140972
H	-3.1360375139	-0.7673720906	-1.2934430774	 0.124784
H	 0.6644650251	-1.998498728	-1.4985817592	 0.169055
H	-0.4804218435	-3.0701701007	-2.3696494824	 0.14389
27.9806	91.9208	204.6704	247.6134	297.6312	406.6438	447.7168	449.7816	513.8489	575.4992	610.8477	661.4797	702.5389	772.0369	809.0348	874.1316	915.4428	971.109	1018.6253	1036.8897	1048.8417	1095.072	1110.5972	1158.7133	1214.7317	1243.1386	1302.0326	1314.7377	1412.4301	1464.7032	1615.8337	1796.449	1893.813	3081.1966	3121.2126	3154.6579	3179.7672	3593.6723	3729.421
NC(=O)C1C2N1CC2=O	NC(=O)[C@H]1[C@@H]2N1CC2=O	
InChI=1S/C5H6N2O2/c6-5(9)4-3-2(8)1-7(3)4/h3-4H,1H2,(H2,6,9)	InChI=1S/C5H6N2O2/c6-5(9)4-3-2(8)1-7(3)4/h3-4H,1H2,(H2,6,9)/t3-,4-,7?/m1/s1
