15
gdb 24459	3.63682	1.62082	1.15712	1.0823	66.76	-0.2084	0.0141	0.2226	987.9492	0.115519	-457.777463	-457.770945	-457.77	-457.808439	25.58	
C	 0.0298164061	 1.3987348434	 0.0238287848	-0.000958
O	 1.3214353905	 1.936266532	 0.0047628582	-0.238159
C	 2.0900922991	 1.6134197169	 1.1715079677	-0.196281
C	 1.8185352383	 0.1806051419	 1.4646985602	 0.190295
C	 0.8688852643	-0.551428335	 0.8281900795	 0.293891
O	 0.0088111322	-0.0249199422	-0.0842472362	-0.268013
C	 0.9691132287	-1.8928606299	 1.3134340819	-0.324853
C	 1.9840578162	-1.8588008111	 2.219601556	-0.002422
O	 2.5149713569	-0.6076578042	 2.3292041832	-0.188699
H	-0.4941897969	 1.6781887425	 0.952470843	 0.096457
H	-0.4895863987	 1.7812816137	-0.8548033615	 0.128873
H	 3.1357705468	 1.7997528636	 0.904456141	 0.136561
H	 1.8318606241	 2.285986039	 2.0057441053	 0.112165
H	 0.3736920523	-2.746020324	 1.0321478856	 0.122473
H	 2.4297453101	-2.6084656166	 2.8516790815	 0.138672
123.3748	211.5176	311.697	388.405	403.6337	477.3618	580.5453	606.8917	680.8468	719.5323	735.0189	778.4005	816.5376	909.314	944.0949	993.2921	1035.1202	1049.5127	1096.6782	1113.4253	1166.3168	1197.2886	1232.257	1281.8752	1305.196	1319.8524	1373.4766	1441.2361	1483.6969	1504.6466	1511.2558	1533.38	1681.9303	2965.9208	2974.1278	3065.5274	3138.1991	3265.5624	3289.8749
C1OCC2=C(O1)C=CO2	C1OCc2c(O1)cco2	
InChI=1S/C6H6O3/c1-2-8-6-3-7-4-9-5(1)6/h1-2H,3-4H2	InChI=1S/C6H6O3/c1-2-8-6-3-7-4-9-5(1)6/h1-2H,3-4H2
