15
gdb 77834	2.50027	1.54203	1.35276	4.1863	60.88	-0.26	-0.0045	0.2555	983.3494	0.112032	-494.912148	-494.90421	-494.903266	-494.94442	30.053	
O	 0.1170715514	 1.3337930121	-0.0662624584	-0.419079
C	-0.0213543615	-0.044954905	 0.0325453564	 0.054241
C	-0.4681230052	-0.788768394	 1.2976121803	-0.315654
C	-1.1725059785	 0.0515773987	 2.3059453871	 0.448135
O	-0.9232536718	 0.2242306417	 3.4605028699	-0.329412
O	-2.2227141371	 0.701675553	 1.6856438436	-0.24573
C	-2.528261938	 0.1015595605	 0.4153498753	-0.168597
C	-1.3283114629	-0.7613594163	 0.0408641087	 0.300776
O	-1.5683036448	-1.9108844454	-0.6983664855	-0.455425
H	-0.5096706555	 1.765619173	 0.5270497329	 0.306231
H	 0.7875998687	-0.5433519001	-0.4921061013	 0.129539
H	 0.0933863363	-1.6483206645	 1.6360056959	 0.133279
H	-3.4207008701	-0.5251404431	 0.5117329786	 0.138422
H	-2.7263067518	 0.9067553374	-0.2992237537	 0.126399
H	-1.4540169392	-1.7044959081	-1.6325178198	 0.296875
123.7494	173.4641	212.5294	221.9827	295.1377	338.6353	357.8337	468.2888	504.7761	540.6128	565.3402	680.1785	721.0108	788.673	822.3489	914.6247	944.1785	954.6192	1034.4019	1051.5198	1076.6018	1129.8842	1149.4486	1192.0729	1224.4656	1282.3508	1308.2234	1331.8478	1345.2565	1406.891	1474.6314	1517.2087	1891.1301	3047.0584	3096.0507	3174.218	3222.8613	3787.6644	3804.5178
OC1C2C(=O)OCC12O	O[C@H]1[C@H]2C(=O)OC[C@@]12O	
InChI=1S/C5H6O4/c6-3-2-4(7)9-1-5(2,3)8/h2-3,6,8H,1H2	InChI=1S/C5H6O4/c6-3-2-4(7)9-1-5(2,3)8/h2-3,6,8H,1H2/t2-,3-,5-/m0/s1
