21
gdb 74710	2.88485	1.4779	1.17964	1.9168	83.8	-0.2274	0.0104	0.2379	1132.4794	0.184507	-387.088555	-387.080599	-387.079655	-387.120665	31.991	
C	 0.3007612429	 1.4880277162	-0.0109156584	-0.468137
C	-0.0121471501	 0.0135774417	-0.031090589	 0.318078
C	 0.0806354577	-0.6921577687	-1.1644014068	-0.146997
C	-0.2359764643	-2.1565079635	-1.2950552062	 0.060691
C	 0.2926815631	-3.0640717346	-0.156710849	-0.283049
C	-1.1299398158	-2.8868135211	 0.412045853	 0.111938
C	-1.3150758912	-1.7715624363	 1.4401256876	-0.208134
C	-0.3511621489	-0.5690152416	 1.3325994026	-0.306724
O	-1.6069735263	-2.4514872666	-0.8858853804	-0.292406
H	 1.0837094934	 1.7158230082	 0.7245299664	 0.120849
H	 0.6353613646	 1.8472720784	-0.9872612451	 0.120324
H	-0.5801459992	 2.0722201472	 0.2855469998	 0.125418
H	 0.3778414131	-0.1758953814	-2.0743175836	 0.074787
H	-0.0537853217	-2.5048034025	-2.3159119927	 0.069973
H	 0.480994756	-4.0842421347	-0.4957659306	 0.105835
H	 1.1397888054	-2.7073658093	 0.4307845391	 0.102644
H	-1.6493975088	-3.7952296186	 0.7375240035	 0.071121
H	-2.3494483471	-1.4252136477	 1.3324371192	 0.114689
H	-1.2258463332	-2.1875370692	 2.4518788001	 0.09133
H	 0.6034137155	-0.8352860863	 1.8115244948	 0.116183
H	-0.7542164151	 0.2353660806	 1.9595850958	 0.101585
121.2038	158.2499	214.955	295.3509	328.6832	338.2964	380.3757	421.0205	501.5528	572.6549	648.8426	729.2057	807.5099	822.9705	851.4006	866.517	900.7307	919.9028	953.1238	992.0605	1009.2233	1025.0051	1044.7406	1060.0609	1082.0548	1127.9	1141.1071	1172.6284	1205.6857	1241.0414	1260.9076	1277.3138	1317.5626	1345.2515	1364.1024	1370.5324	1395.1401	1403.2581	1412.1937	1466.1609	1474.3725	1480.5393	1488.6343	1495.9102	1721.5497	2993.7337	3012.7694	3020.3925	3041.0856	3047.0848	3058.0538	3059.8024	3071.1132	3080.1346	3113.9828	3135.3064	3148.168
CC1=CC2CC(CC1)O2	CC1=C[C@H]2C[C@@H](CC1)O2	
InChI=1S/C8H12O/c1-6-2-3-7-5-8(4-6)9-7/h4,7-8H,2-3,5H2,1H3	InChI=1S/C8H12O/c1-6-2-3-7-5-8(4-6)9-7/h4,7-8H,2-3,5H2,1H3/t7-,8+/m1/s1
