14
gdb 19608	3.30032	2.424	1.82429	3.7084	60.64	-0.2362	0.0078	0.2441	735.3346	0.107451	-382.503165	-382.49682	-382.495876	-382.533512	24.765	
O	-0.089763457	 1.4712246376	-0.1698801322	-0.430465
C	-0.0160945369	 0.0724929475	-0.1034428855	 0.140346
C	-1.3516994311	-0.6598905376	-0.1107255991	-0.089568
C	-0.7941929041	-1.7555753006	-0.9623385465	-0.085052
C	-1.818691562	-0.776212341	-1.5679603426	-0.194448
C	-0.7123206294	-0.2214343208	-2.4141976688	 0.468537
O	-0.6401392631	 0.2070366185	-3.5292436996	-0.340893
C	 0.3301401224	-0.7321660795	-1.3948227878	-0.26034
H	 0.8027689075	 1.8293854256	-0.2145822617	 0.289289
H	 0.5954662466	-0.2716579291	 0.7421034286	 0.078042
H	-2.0753868951	-0.7290311499	 0.6911241737	 0.104176
H	-0.8277103275	-2.8318359016	-0.9171965771	 0.117449
H	-2.8539689256	-0.9603371071	-1.8186515049	 0.113112
H	 1.3516429753	-0.953168092	-1.6921288664	 0.089815
131.5983	222.4151	249.8395	368.0766	435.9315	583.9785	620.8329	699.6504	778.1545	778.7405	826.6812	835.7573	853.5608	890.2468	931.8986	988.849	1025.0406	1027.7368	1051.4228	1084.7971	1136.8653	1139.3747	1149.5495	1181.6858	1214.8248	1289.7494	1328.1651	1348.8935	1427.3309	1890.3045	3010.157	3162.6111	3200.8252	3223.3245	3258.0877	3818.4825
OC1C2C3C2C(=O)C13	O[C@H]1[C@@H]2[C@H]3[C@@H]2C(=O)[C@@H]13	
InChI=1S/C6H6O2/c7-5-2-1-3(2)6(8)4(1)5/h1-5,7H	InChI=1S/C6H6O2/c7-5-2-1-3(2)6(8)4(1)5/h1-5,7H/t1-,2+,3-,4+,5-/m0/s1
