19
gdb 105911	2.13403	1.90298	1.24114	1.0715	75.47	-0.2375	0.0722	0.3096	1062.4591	0.158558	-422.936395	-422.928068	-422.927124	-422.969324	31.872	
C	-0.0004240695	 1.3257782088	-0.0207326246	-0.265986
O	-0.0886734061	-0.0875954513	-0.0998139802	-0.294034
C	-1.3751004272	-0.5671148464	-0.0821179146	 0.399905
C	-2.5491396844	-0.3184190948	-1.0587752867	 0.073505
O	-2.4198195517	-0.6370381079	-2.4190528656	-0.44819
C	-3.0881407686	-1.3587213284	-0.0510198284	-0.099632
C	-1.7004557132	-2.0892429755	 0.0754300787	-0.130569
C	-1.7175825988	-1.9995919089	 1.6145452428	-0.271806
C	-2.3599632	-0.6749785977	 1.1533391917	-0.11721
H	 1.06121768	 1.5797671054	-0.0424263642	 0.130672
H	-0.5014570732	 1.8089447858	-0.8699186823	 0.123888
H	-0.4411634732	 1.7046330935	 0.9119118619	 0.112315
H	-3.0231154307	 0.667558976	-1.0181927798	 0.082603
H	-1.9226335534	-1.459194394	-2.4931517023	 0.284256
H	-4.0652061255	-1.8351376837	-0.0113126593	 0.081131
H	-1.329865405	-2.8988447213	-0.5558433867	 0.07013
H	-2.3686965116	-2.7048341855	 2.1397336528	 0.092569
H	-0.7452200056	-1.9271804032	 2.1091988548	 0.104283
H	-2.7558893224	 0.1507423188	 1.7454221218	 0.07217
72.2806	162.3948	201.6936	215.0598	230.534	301.9296	315.0057	438.3358	519.4814	559.6716	656.4582	747.2487	792.131	855.3155	883.9403	900.5467	913.4639	942.249	967.1275	1028.655	1034.7165	1073.838	1086.3405	1092.5992	1112.9375	1147.2597	1156.8348	1166.564	1180.3945	1202.5438	1226.6558	1237.2826	1259.146	1283.6592	1293.918	1343.2373	1450.933	1487.7129	1489.0389	1505.5781	1508.4149	2998.2263	3048.0142	3055.0937	3067.1269	3094.7546	3107.4013	3108.366	3126.6246	3147.0125	3803.1813
COC12C(O)C3C1CC23	CO[C@@]12[C@@H](O)[C@H]3[C@@H]1C[C@@H]23	
InChI=1S/C7H10O2/c1-9-7-3-2-4(7)5(3)6(7)8/h3-6,8H,2H2,1H3	InChI=1S/C7H10O2/c1-9-7-3-2-4(7)5(3)6(7)8/h3-6,8H,2H2,1H3/t3-,4+,5-,6-,7-/m0/s1
