15
gdb 133669	2.69801	1.20071	1.01276	0.7771	54.2	-0.261	0.0622	0.3232	1148.7198	0.108376	-585.417354	-585.408579	-585.407635	-585.451867	31.273	
O	 0.7145732952	 1.7497650408	 0.4275219602	-0.421032
C	 0.3378293066	 0.4658068761	-0.0246394673	-0.055095
C	 1.0473148234	 0.0490897304	-1.2941296629	 0.0003
C	 0.3012403626	-0.652279303	-2.3678462547	-0.23658
N	 0.7352821353	 0.7405078003	-2.5491887665	-0.323096
C	 0.5653763008	-0.5583659652	 1.0928693009	 0.269512
F	-0.1426555347	-0.2643971436	 2.1845375718	-0.064425
F	 0.229559983	-1.7941534985	 0.7015656493	-0.072022
F	 1.8670892691	-0.5776697853	 1.444548601	-0.096622
H	 1.6669257293	 1.7434159297	 0.5811866785	 0.294051
H	-0.7428896913	 0.5134473749	-0.1983857452	 0.112611
H	 2.1058420772	-0.1705488122	-1.1640347062	 0.105008
H	 0.8113225288	-1.3789299447	-2.9927191883	 0.129064
H	-0.7526604391	-0.8606859882	-2.2014700271	 0.118663
H	-0.0423777663	 1.3819574484	-2.4086850234	 0.239663
50.2836	66.6658	152.5387	216.8581	247.0281	305.2418	321.0728	375.3393	409.9025	503.6977	550.431	587.1614	702.5167	814.9038	857.1034	885.4588	934.652	957.3657	1055.3005	1089.8418	1134.3298	1150.245	1160.1795	1194.7681	1230.5649	1242.0506	1269.706	1283.1245	1302.249	1352.8379	1426.1596	1433.966	1515.4855	3065.0136	3112.8792	3123.9237	3199.2341	3493.5179	3798.012
OC(C1CN1)C(F)(F)F	O[C@@H]([C@H]1CN1)C(F)(F)F	
InChI=1S/C4H6F3NO/c5-4(6,7)3(9)2-1-8-2/h2-3,8-9H,1H2	InChI=1S/C4H6F3NO/c5-4(6,7)3(9)2-1-8-2/h2-3,8-9H,1H2/t2-,3+/m1/s1
