19
gdb 113095	2.33888	1.35504	0.97856	1.9727	73.57	-0.25	0.0001	0.2501	1245.8742	0.158467	-460.154815	-460.145689	-460.144745	-460.189329	33.185	
C	 0.5760800709	 1.2662547698	 0.2123497618	-0.240521
O	 0.4675933629	-0.1365989464	 0.0499070939	-0.237657
C	 0.6539814553	-0.568374478	-1.2717765359	 0.176479
O	 2.00713364	-0.4587972224	-1.7012081486	-0.287265
C	 2.6147621504	-1.7610083926	-1.7553851012	 0.036204
C	 3.6740675595	-1.8657584662	-0.652050441	-0.056668
O	 4.6511571979	-0.8558428976	-0.795033434	-0.422386
C	 1.4636007241	-2.7135654181	-1.6065591637	-0.096305
C	 0.3496191267	-2.0408059063	-1.3468113941	-0.119175
H	 1.5860919486	 1.6241976403	-0.0230074473	 0.117712
H	-0.1426466553	 1.8005625634	-0.4272371169	 0.107635
H	 0.352396546	 1.4857622013	 1.2583839805	 0.129823
H	 0.0511882275	 0.0635517309	-1.9444946009	 0.072692
H	 3.1157416308	-1.8446898801	-2.729501264	 0.094972
H	 3.1674948693	-1.8124688411	 0.3236684283	 0.097711
H	 4.1946284796	-2.8276965192	-0.7179798712	 0.103235
H	 4.1626422305	-0.026367618	-0.8582758356	 0.288919
H	 1.5741671504	-3.7878840927	-1.6811975736	 0.116295
H	-0.6379274252	-2.4375716872	-1.1558332865	 0.118299
60.9061	106.8869	115.317	161.4705	180.3544	258.4895	328.3413	412.6072	446.8647	475.093	521.2867	555.1746	721.2952	792.4461	816.1703	847.5825	951.2098	970.7607	990.3891	996.2771	1033.5806	1065.3472	1084.6977	1093.9981	1121.242	1145.6971	1175.7492	1213.1842	1223.6282	1273.8018	1330.5245	1358.9532	1374.5321	1390.999	1401.8156	1430.5238	1476.7165	1484.8156	1498.0199	1510.3947	1689.6356	2969.9312	2990.8454	2991.4361	3020.0368	3055.4266	3072.2687	3125.2241	3213.5494	3241.3553	3792.1342
COC1OC(CO)C=C1	CO[C@H]1O[C@@H](CO)C=C1	
InChI=1S/C6H10O3/c1-8-6-3-2-5(4-7)9-6/h2-3,5-7H,4H2,1H3	InChI=1S/C6H10O3/c1-8-6-3-2-5(4-7)9-6/h2-3,5-7H,4H2,1H3/t5-,6+/m1/s1
