14
gdb 131081	4.95519	0.83576	0.75135	3.198	64.19	-0.2736	-0.0242	0.2494	1407.16	0.100752	-473.826887	-473.819011	-473.818067	-473.861452	26.922	
O	 0.2658827143	 0.2511863389	 0.8241159164	-0.262203
C	 0.4559637138	 1.2034180667	 0.1335001822	 0.176255
O	 0.5924235002	 2.4502826646	 0.6375142011	-0.17309
C	 0.8800120391	 3.5123575076	-0.2759119244	-0.220359
C	 2.305409026	 3.9450602942	-0.1433532254	 0.129851
C	 3.2326998748	 3.539760075	 0.7645622412	 0.007673
O	 4.3972002906	 4.1713891115	 0.5611840492	-0.159184
N	 4.2627239407	 5.0372445477	-0.515191099	-0.122839
C	 3.026130426	 4.896277461	-0.9219234413	-0.050512
H	 0.5307922273	 1.1781638978	-0.971306317	 0.086403
H	 0.6574324595	 3.1977561467	-1.3049490514	 0.127263
H	 0.1906504141	 4.326706218	-0.0291079573	 0.148057
H	 3.2037253139	 2.8361165951	 1.5807415018	 0.175459
H	 2.6831540398	 5.4799888951	-1.765124336	 0.137225
32.7723	46.758	139.7152	211.3232	254.193	359.3037	388.5166	610.2644	652.3284	677.4591	723.9802	856.5357	903.9225	908.6931	940.6061	1008.5801	1027.0445	1042.3903	1063.4628	1150.2792	1160.6942	1200.676	1287.9943	1308.0287	1344.3053	1418.1191	1443.8028	1478.6009	1501.2391	1656.8211	1875.0482	2949.7622	3012.6328	3068.5099	3239.9175	3280.9543
O=COCC1=CON=C1	O=COCc1conc1	
InChI=1S/C5H5NO3/c7-4-8-2-5-1-6-9-3-5/h1,3-4H,2H2	InChI=1S/C5H5NO3/c7-4-8-2-5-1-6-9-3-5/h1,3-4H,2H2
