19
gdb 114499	2.60041	1.42316	1.08674	3.7521	76.25	-0.2354	-0.0172	0.2182	1165.9919	0.158033	-423.005406	-422.996788	-422.995843	-423.039626	31.892	
C	 0.1525769818	 1.5623761477	 0.2214488325	-0.239634
O	 0.6079410152	 0.261412013	-0.0807874726	-0.230478
C	 0.7731402836	-0.5482920498	 1.0495542555	 0.147905
C	-0.5006327884	-1.1885202944	 1.6925261015	-0.271133
C	 0.0581767705	-2.6022376111	 1.3885823006	-0.027479
C	-0.3929976925	-3.1802486016	 0.0188387332	-0.357914
C	 0.8427984211	-2.5216749195	-0.6285922255	 0.432932
O	 1.3021719319	-2.5400836554	-1.7312818905	-0.29463
C	 1.334980312	-1.955881348	 0.7132142859	-0.216318
H	 0.8518973811	 2.0886691839	 0.8897802776	 0.107006
H	 0.0846867907	 2.1079553334	-0.7221764061	 0.134436
H	-0.8390472049	 1.5531230808	 0.6979633674	 0.108667
H	 1.3929806879	-0.0358200247	 1.8007046263	 0.072465
H	-0.6174408742	-0.96387387	 2.7551200735	 0.103903
H	-1.4353909367	-0.9473219578	 1.1784743995	 0.105493
H	 0.1307806662	-3.3053289414	 2.2160380311	 0.077724
H	-0.3342837027	-4.2721827387	-0.0487114995	 0.131202
H	-1.3685878917	-2.8638545325	-0.3618481262	 0.126216
H	 2.3749285892	-2.1536847039	 0.9750398757	 0.089637
38.87	95.7704	109.8397	191.9694	271.2598	342.2934	402.6144	419.0572	445.954	542.1041	603.7467	704.4813	763.5151	813.6964	849.7072	902.2458	917.9141	964.6986	1012.248	1037.743	1050.2192	1065.1356	1086.1483	1127.4747	1151.9488	1176.1679	1184.1161	1193.9973	1218.2772	1234.9038	1249.5944	1270.6315	1295.8054	1310.356	1382.4859	1433.4674	1472.244	1480.6326	1488.7483	1507.5175	1893.2917	2974.4806	2983.3919	3025.7635	3047.8882	3057.4619	3100.9402	3109.8085	3111.7566	3122.131	3132.1192
COC1CC2CC(=O)C12	CO[C@H]1C[C@H]2CC(=O)[C@@H]12	
InChI=1S/C7H10O2/c1-9-6-3-4-2-5(8)7(4)6/h4,6-7H,2-3H2,1H3	InChI=1S/C7H10O2/c1-9-6-3-4-2-5(8)7(4)6/h4,6-7H,2-3H2,1H3/t4-,6+,7+/m1/s1
