17
gdb 65820	2.53333	1.34989	1.19777	1.9483	73.81	-0.246	-0.0268	0.2192	1112.9245	0.133203	-421.815804	-421.807037	-421.806092	-421.849187	33.138	
C	-0.0195372913	 1.5490152564	 0.0646537113	-0.434326
C	 0.0240979485	 0.0266009867	-0.040372074	 0.153655
C	 0.8321807119	-0.5126400032	-1.24122355	-0.370531
C	 1.4324667848	-1.8089890228	-0.6946601754	 0.383088
O	 1.9433922863	-2.6985051348	-1.3182575568	-0.294987
C	 1.2473745838	-1.7510450093	 0.8248320362	-0.191316
O	 0.7601674116	-0.4530904784	 1.1077609798	-0.268571
C	-1.3346621901	-0.5420014755	-0.0391266151	 0.370801
C	-2.4386094515	-1.0173613851	-0.0391033869	-0.505386
H	 0.9999996238	 1.9430775933	 0.0834169663	 0.124828
H	-0.5569729591	 1.9759360015	-0.785732174	 0.131308
H	-0.529080812	 1.8441162274	 0.9847085939	 0.141081
H	 0.2492261362	-0.6890762948	-2.1451515185	 0.14494
H	 1.6519704119	 0.175236898	-1.4795743505	 0.136686
H	 0.54076705	-2.53815632	 1.130229248	 0.132686
H	 2.1917371715	-1.9066890645	 1.3537617199	 0.140101
H	-3.4160560664	-1.4337169348	-0.0345236542	 0.205944
66.9904	133.1468	181.1544	210.7063	237.6104	292.3623	398.8403	439.7484	457.6238	485.5945	563.7671	602.6423	640.3206	650.0424	671.9658	751.3259	780.4536	837.4704	886.9619	929.508	1007.4589	1075.0133	1092.8452	1124.9473	1174.435	1190.6551	1226.6572	1258.4311	1276.2383	1335.2175	1405.2183	1441.0215	1475.2544	1478.7803	1493.0243	1864.874	2230.043	2996.567	3049.5429	3052.0258	3094.7014	3131.3139	3136.7026	3141.1911	3499.0145
CC1(CC(=O)CO1)C#C	C[C@]1(CC(=O)CO1)C#C	
InChI=1S/C7H8O2/c1-3-7(2)4-6(8)5-9-7/h1H,4-5H2,2H3	InChI=1S/C7H8O2/c1-3-7(2)4-6(8)5-9-7/h1H,4-5H2,2H3/t7-/m1/s1
