19
gdb 84277	3.14288	1.47362	1.18889	1.6254	76.86	-0.2319	0.019	0.2509	1081.5229	0.160905	-419.183937	-419.175858	-419.174914	-419.216186	31.848	
C	-0.1698664017	 1.516035505	-0.0649841984	-0.384333
C	 0.0638362191	 0.0157137472	 0.0321577698	 0.012348
N	 0.9305797868	-0.4774159549	-1.0962764941	-0.332335
C	 1.4786092059	-1.5103696432	-0.5973448213	 0.359454
N	 2.5992413986	-2.3142467898	-0.7733047428	-0.368058
C	 2.7575786255	-2.3824094721	 0.726702432	-0.213715
C	 1.2927099456	-1.8497793548	 0.8506260018	-0.111334
C	 0.8224770911	-0.4559075421	 1.337849049	 0.082349
O	 1.883526948	 0.4128134537	 1.6854840008	-0.430716
H	 0.7715524391	 2.0712137859	-0.0328081679	 0.110361
H	-0.6702203238	 1.7556173709	-1.0066328702	 0.125746
H	-0.795377705	 1.8648324348	 0.7629652771	 0.112596
H	-0.9097803533	-0.4955932173	-0.0008401845	 0.07923
H	 3.3551450855	-2.0218849773	-1.3825836722	 0.240954
H	 2.9517156287	-3.3903597234	 1.0975194352	 0.119939
H	 3.4992733964	-1.678852487	 1.1157183423	 0.124423
H	 0.5650084424	-2.6325827276	 1.0732765158	 0.101264
H	 0.1704350355	-0.49824731	 2.2145086677	 0.084684
H	 2.3413709055	 0.6544087217	 0.8713146598	 0.287143
108.9417	182.4781	208.3488	255.3002	272.8412	342.772	385.1484	434.5302	479.7411	552.2851	652.5505	708.6966	730.1448	776.0867	812.1491	836.4102	893.3487	928.6018	942.1802	988.2371	1020.3508	1054.9182	1077.8344	1126.2794	1141.1523	1145.2573	1165.8581	1217.2315	1227.3564	1258.7048	1284.5097	1320.6473	1324.2662	1360.871	1369.0982	1412.3834	1427.5168	1484.2011	1493.97	1508.8447	1752.0716	2990.9258	3044.3469	3059.5101	3079.0633	3097.7651	3113.9081	3123.972	3125.3533	3545.9546	3784.2519
CC1N=C2NCC2C1O	C[C@H]1[N][C]2NC[C@H]2[C@H]1O	
InChI=1S/C6H10N2O/c1-3-5(9)4-2-7-6(4)8-3/h3-5,9H,2H2,1H3,(H,7,8)	InChI=1S/C6H10N2O/c1-3-5(9)4-2-7-6(4)8-3/h3-5,9H,2H2,1H3,(H,7,8)/t3-,4+,5+/m1/s1
