14
gdb 129704	2.43369	1.93452	1.07871	1.0521	72.85	-0.2004	-0.0497	0.1507	1022.1085	0.102979	-466.177184	-466.169592	-466.168648	-466.208919	29.595	
N	 0.0130042832	 1.3672760299	 0.1503541633	-0.565754
C	-0.0342285843	-0.0068198357	 0.0566344194	 0.310601
C	-1.1989912789	-0.7200874561	 0.0408008257	 0.285982
O	-2.4147203313	-0.1453887534	 0.0514379017	-0.441916
C	-1.1525702577	-2.1537078926	 0.0019204854	 0.352047
N	-2.258259817	-2.8161835359	-0.0173627105	-0.613833
N	 0.1519041139	-2.6302283422	-0.0109525893	-0.322048
N	 1.2917112782	-1.9000742066	-0.0125207202	-0.067672
N	 1.1974922247	-0.6355227272	 0.0206499285	-0.260932
H	 0.8808664166	 1.7708432952	-0.1699259137	 0.262217
H	-0.8165034936	 1.8505933838	-0.1592600769	 0.268071
H	-3.0374148114	-0.8996115002	 0.0249232237	 0.310821
H	-2.1387941415	-3.8252129466	-0.0476348535	 0.2105
H	 0.3270487191	-3.6242050023	-0.0406698936	 0.271914
137.0488	190.1483	269.3513	298.1431	311.5124	376.5238	511.4371	521.7711	539.8247	559.839	585.4889	620.2194	629.915	682.7908	707.7332	715.9915	766.3935	928.0997	1024.6102	1055.4099	1123.6062	1161.9069	1306.3046	1360.2529	1377.6133	1411.4247	1479.0542	1539.984	1625.5087	1694.5888	1715.6671	3521.1832	3572.2935	3574.0038	3618.412	3688.6973
NC1=C(O)C(=N)NN=N1	Nc1c(O)c([NH])[nH]nn1	
InChI=1S/C3H5N5O/c4-2-1(9)3(5)7-8-6-2/h(H,8,9)(H4,4,5,6,7)	InChI=1S/C3H10N5O/c4-2-1(9)3(5)7-8-6-2/h1-4,6-9H,5H2
