18
gdb 48540	2.79917	1.54653	1.50511	2.7753	75.79	-0.2209	-0.0351	0.1858	978.9737	0.148643	-401.892163	-401.884797	-401.883853	-401.924416	28.48	
O	-0.5607483944	 0.6127526276	-0.6481918172	-0.256101
C	 0.0527859585	 1.1454158293	 0.2452924919	 0.01128
C	 1.2973758266	 1.9290161432	 0.0417947836	 0.31223
C	 2.7658398971	 1.3368794039	 0.0415085431	-0.096786
C	 2.9915643982	 2.0067379958	-1.3385594583	-0.232038
C	 1.6905149826	 2.8335431881	-1.1694905126	-0.100374
C	 1.8335596074	 3.9614063244	-0.1269093724	-0.174869
N	 1.7218729901	 3.0064297269	 1.0344215854	-0.193856
C	 3.0283743899	 2.2870978512	 1.2255887562	-0.172483
H	-0.2708297761	 1.0676857348	 1.3080768236	 0.082586
H	 3.0043383793	 0.2784283069	 0.1475130482	 0.085011
H	 3.9284329071	 2.5539505731	-1.4855602175	 0.096452
H	 2.8793008882	 1.2746744085	-2.1425895716	 0.119004
H	 1.0606155514	 2.9926287694	-2.0437739609	 0.089732
H	 2.7543595599	 4.5545541339	-0.1391562821	 0.101741
H	 0.9760025807	 4.6413059784	-0.1195986254	 0.11451
H	 3.023276846	 1.7716504426	 2.1912135547	 0.112142
H	 3.9165258374	 2.9270237621	 1.176509361	 0.101818
55.4564	149.7071	197.5719	320.2859	344.4791	390.6364	496.4313	585.5031	657.7444	691.448	815.3345	820.9528	844.7541	869.5243	931.7639	950.5149	961.8911	975.8545	1014.8297	1038.93	1052.5781	1099.313	1115.6939	1127.465	1164.0883	1169.0365	1213.0355	1215.8063	1256.9271	1278.7018	1293.3573	1314.5351	1322.6644	1332.4384	1408.5136	1479.8506	1491.6629	1508.378	1805.3744	2876.784	3030.5869	3036.7931	3045.181	3081.0672	3087.2233	3099.5618	3107.6625	3118.8476
O=CC12C3CC1CN2C3	O=C[C@@]12[C@H]3C[C@@H]1CN2C3	
InChI=1S/C7H9NO/c9-4-7-5-1-6(7)3-8(7)2-5/h4-6H,1-3H2	InChI=1S/C7H9NO/c9-4-7-5-1-6(7)3-8(7)2-5/h4-6H,1-3H2/t5-,6+,7+
