17
gdb 92412	2.22357	1.63678	1.28997	3.7137	72.73	-0.2391	-0.0003	0.2388	1041.0215	0.136725	-417.968676	-417.960637	-417.959692	-418.001463	30.466	
O	 0.4083828607	 1.1999927795	-0.5322909376	-0.410736
C	 0.1655760823	-0.0899388442	-0.0469715388	 0.049261
C	 0.1955883294	-0.1856981127	 1.4921818242	-0.194549
N	-1.1657169692	-0.8145019581	 1.5447300022	-0.15955
C	-2.2469120585	 0.1929132652	 1.8107420389	-0.164682
C	-2.3805477993	 0.5388198467	 0.3053222474	-0.306089
C	-1.3268392118	-0.5702544796	 0.0463612119	 0.177296
C	-1.7112036562	-1.6764533743	-0.8095343051	 0.216764
N	-1.9964358352	-2.5392289331	-1.5254864102	-0.339896
H	 0.4831730728	 1.1648333878	-1.4918671134	 0.297007
H	 0.7925080039	-0.83927009	-0.5428405132	 0.09918
H	 0.9721193913	-0.8297600563	 1.9109134842	 0.121302
H	 0.2489686085	 0.7984573142	 1.9692205507	 0.118772
H	-3.1297878467	-0.28991395	 2.2378640828	 0.121559
H	-1.9369361914	 1.0060006123	 2.4737528308	 0.113402
H	-3.3584536281	 0.3575358223	-0.1408445364	 0.128842
H	-2.0208982424	 1.5264772101	 0.0122843516	 0.132119
71.9991	133.4561	173.5322	238.7504	322.0693	366.7098	385.6969	481.5754	536.5883	550.7489	599.7486	663.5578	757.1532	812.1028	861.974	905.681	935.3535	953.2852	994.0642	1028.1447	1037.5856	1137.244	1146.1186	1171.3351	1188.943	1213.2567	1236.7151	1252.4754	1262.6596	1299.8631	1304.9265	1327.7169	1438.2321	1480.6158	1491.1735	1513.1567	2343.3988	3042.2318	3048.055	3053.0104	3086.3538	3100.1648	3108.0203	3147.9332	3812.011
OC1CN2CCC12C#N	O[C@H]1CN2CC[C@@]12C#N	
InChI=1S/C6H8N2O/c7-4-6-1-2-8(6)3-5(6)9/h5,9H,1-3H2	InChI=1S/C6H8N2O/c7-4-6-1-2-8(6)3-5(6)9/h5,9H,1-3H2/t5-,6+/m0/s1
