20
gdb 109437	2.09113	1.41363	1.05908	3.4597	75.58	-0.2271	0.0084	0.2355	1244.9217	0.169068	-440.31222	-440.30225	-440.301306	-440.347178	36.121	
C	 0.2192165668	 1.5785465338	-0.0384751471	-0.327255
N	-0.2003216535	 0.1998805585	-0.2997505866	-0.289911
C	 0.6540831175	-0.5057570967	-1.2178955686	-0.200536
C	 1.9508775165	-1.1923162385	-0.7405810531	 0.421158
O	 2.9243075916	-0.9112152697	-0.1134533937	-0.336474
O	 1.6139233692	-2.4124188682	-1.2637951895	-0.286625
C	 0.2680614296	-1.9430317608	-1.6847862266	 0.396537
C	-0.8042337543	-2.6384729271	-0.8645922097	-0.433606
C	 0.0933132816	-2.1314284815	-3.1805849393	-0.438651
H	 1.2424366307	 1.6689869627	 0.3544863777	 0.13153
H	 0.159504872	 2.1548591432	-0.968349203	 0.126077
H	-0.4712528044	 2.0304390122	 0.6789372503	 0.123363
H	-0.2652614868	-0.3026368661	 0.5786622195	 0.227403
H	 0.8605211183	 0.1473529472	-2.0724506648	 0.108896
H	-0.579510515	-2.59694716	 0.2048077363	 0.121058
H	-1.7738650312	-2.1612695671	-1.0322052011	 0.137324
H	-0.8767970735	-3.6921148379	-1.1492305382	 0.130666
H	 0.0839149417	-3.1945752474	-3.4392234211	 0.131959
H	-0.8545113118	-1.6915140437	-3.5071473309	 0.130429
H	 0.9070020652	-1.6518584731	-3.7319293907	 0.126659
64.3046	91.159	149.2268	177.3436	206.8428	225.1336	252.7144	301.3314	325.1149	343.0977	424.6837	462.7699	566.0332	620.3803	713.6115	756.9504	831.7038	850.9096	930.0288	946.5107	984.2871	1010.8293	1037.3213	1084.3617	1133.7604	1156.5183	1181.3062	1215.1116	1247.6497	1279.1465	1284.6981	1365.2343	1405.7723	1418.6654	1457.2873	1473.1924	1480.9017	1486.8953	1493.1753	1503.7314	1509.0738	1524.4676	1917.4569	2996.6671	3038.5418	3045.8543	3060.1571	3068.9293	3110.0259	3111.9404	3116.2997	3118.4	3125.2281	3529.7219
CNC1C(=O)OC1(C)C	CN[C@H]1C(=O)OC1(C)C	
InChI=1S/C6H11NO2/c1-6(2)4(7-3)5(8)9-6/h4,7H,1-3H3	InChI=1S/C6H11NO2/c1-6(2)4(7-3)5(8)9-6/h4,7H,1-3H3/t4-/m0/s1
