16
gdb 104275	2.33521	1.3468	1.09971	4.0603	65.11	-0.2782	-0.0056	0.2726	1129.8661	0.122668	-474.99876	-474.989758	-474.988814	-475.032834	32.384	
O	-0.1389772128	 1.4696761785	-0.0542485144	-0.437979
C	-0.005878928	 0.0570256446	-0.174128109	-0.153567
C	-1.4185659326	-0.4912241822	-0.0202978852	 0.337698
O	-1.9962582374	-0.0415390771	 1.1675307774	-0.476076
C	-2.286801389	-0.4201781391	-1.3060640595	-0.117194
O	-2.1308783556	-1.8462808163	-1.5231496957	-0.281882
C	-1.5599302393	-2.0278172303	-0.2175813753	-0.041324
C	-0.347848119	-2.8471560515	-0.2229713291	 0.285218
N	 0.6253591556	-3.4704532285	-0.2100014848	-0.331754
H	 0.7352045533	 1.8570087386	 0.0453206596	 0.303852
H	 0.4184626223	-0.2347722121	-1.1439087317	 0.121059
H	 0.6304337474	-0.3553929006	 0.6208547775	 0.120411
H	-1.6648621335	 0.8574832022	 1.3014161008	 0.296087
H	-3.3272284567	-0.1510214168	-1.0948734015	 0.116913
H	-1.9025067386	 0.1645253488	-2.1464575844	 0.122291
H	-2.279306786	-2.4452808582	 0.4986901052	 0.136246
71.5497	103.0852	127.0441	188.7745	257.5357	274.7694	327.1132	365.1195	410.1982	444.5054	488.8696	545.9951	605.7343	721.3488	798.4116	921.945	943.048	984.4273	1014.6414	1044.0525	1065.1047	1083.5671	1144.9462	1164.4882	1190.2708	1225.4532	1266.8119	1292.4645	1335.1933	1362.3429	1413.251	1455.9463	1506.8752	1516.9604	2355.3275	3005.7962	3031.2159	3042.215	3050.9625	3103.7475	3750.5923	3843.1926
OCC1(O)COC1C#N	OC[C@@]1(O)CO[C@H]1C#N	
InChI=1S/C5H7NO3/c6-1-4-5(8,2-7)3-9-4/h4,7-8H,2-3H2	InChI=1S/C5H7NO3/c6-1-4-5(8,2-7)3-9-4/h4,7-8H,2-3H2/t4-,5+/m0/s1
