19
gdb 36895	3.61011	1.19969	1.10803	1.5494	75.09	-0.2272	0.0722	0.2994	1166.6538	0.15894	-422.943677	-422.935724	-422.93478	-422.976627	30.604	
C	-0.4614964865	 1.0173351982	 0.6415081182	-0.289475
C	 1.0177889683	 0.8772041168	 0.3377851366	-0.289876
C	 0.0747449188	-0.2259517661	-0.0139110696	 0.136693
O	 0.195265132	-1.3995822344	 0.7447334464	-0.250966
C	-0.9893757567	-2.1166394155	 0.867034402	 0.111427
C	-1.2027191571	-2.9846819644	 2.0712366681	-0.203801
C	-0.740905001	-2.2241849287	 3.3122165391	-0.081925
O	-1.5631604404	-1.072387567	 2.9757942699	-0.277732
C	-2.077612933	-1.7515370247	 1.8342817581	 0.05006
H	-0.7660438878	 0.9131190377	 1.6760281849	 0.145919
H	-1.0532709764	 1.7034480099	 0.0450358407	 0.106492
H	 1.450263806	 1.4627218945	-0.4656722908	 0.111087
H	 1.6797282456	 0.6943038063	 1.1764440859	 0.124177
H	-0.1546019313	-0.4036871739	-1.0647169166	 0.081978
H	-1.3619826214	-2.5540427351	-0.062295237	 0.089414
H	-1.4124774071	-4.0447311811	 2.0215676138	 0.102191
H	-1.0856439587	-2.6715542988	 4.2499201439	 0.110024
H	 0.3215437644	-1.9712409156	 3.3748338235	 0.120451
H	-3.1260317976	-1.612827168	 1.5928442428	 0.103862
78.6666	97.6612	151.9125	231.9826	271.5634	390.4371	428.6899	508.8853	678.6238	728.9554	756.4605	794.6255	818.9159	827.4688	847.8817	923.7717	962.9538	973.4271	981.4615	996.6797	1043.5237	1047.8029	1058.1089	1067.5213	1077.5018	1087.6583	1124.7783	1135.9952	1170.4799	1191.2711	1198.3554	1210.9437	1244.4038	1262.8324	1314.0347	1348.0179	1389.4156	1446.5066	1455.8106	1498.3618	1507.6725	3043.0971	3080.598	3098.4575	3099.391	3136.6412	3141.2098	3170.3035	3201.696	3224.2728	3238.9324
C1CC1OC1C2COC12	C1CC1O[C@H]1[C@H]2CO[C@@H]12	
InChI=1S/C7H10O2/c1-2-4(1)9-7-5-3-8-6(5)7/h4-7H,1-3H2	InChI=1S/C7H10O2/c1-2-4(1)9-7-5-3-8-6(5)7/h4-7H,1-3H2/t5-,6+,7-/m0/s1
