23
gdb 121306	3.21452	0.93279	0.76456	2.6211	86.2	-0.2323	-0.0134	0.2189	1576.8622	0.205822	-388.339907	-388.330218	-388.329274	-388.375136	36.002	
C	 0.1080864813	 1.6003279424	 0.232031658	-0.381337
C	 0.0483671928	 0.0754646031	 0.11306804	-0.175148
C	-1.3838844239	-0.4484374555	-0.0520093054	-0.182824
C	-1.4906431841	-1.97387075	-0.1776697895	-0.081919
C	-2.9016443631	-2.5678853866	-0.0126229137	-0.236228
C	-2.8184789849	-3.9545486993	-0.6838668847	-0.221663
C	-1.9338436425	-3.7111471505	-1.9160613407	-0.306288
C	-1.0188969109	-2.5432952928	-1.5264583564	 0.399231
O	-0.0971476826	-2.1339163657	-2.1877922172	-0.318835
H	 1.137489838	 1.9493226648	 0.3600478664	 0.111103
H	-0.295861509	 2.0827420034	-0.6651388025	 0.114249
H	-0.4739160447	 1.9585110851	 1.0892529258	 0.107507
H	 0.6482704576	-0.2605718078	-0.7372385046	 0.132447
H	 0.4932887268	-0.3797783053	 1.0086941008	 0.085615
H	-1.9882274376	-0.1286668869	 0.8079040981	 0.090143
H	-1.8438822601	 0.0149043576	-0.935474169	 0.095547
H	-0.8338545724	-2.438885448	 0.5762932278	 0.097953
H	-3.2200358026	-2.6172896551	 1.0319468569	 0.101796
H	-3.6276948122	-1.9379901111	-0.5436630903	 0.102002
H	-2.3318024748	-4.6653021833	-0.0057350858	 0.105242
H	-3.7998891096	-4.365340902	-0.9329182984	 0.103114
H	-1.3492361388	-4.5708327737	-2.2527463591	 0.126721
H	-2.5306635027	-3.3787967328	-2.7756811666	 0.131575
53.2254	83.1474	106.8494	147.7731	216.759	247.3722	262.4375	330.6799	370.8159	473.3133	546.1281	586.5055	623.1008	703.2653	749.3944	820.8517	867.3936	896.4111	914.0264	924.865	945.2747	1006.8255	1020.9172	1044.203	1061.7202	1083.4383	1149.3248	1159.0465	1171.5903	1194.2345	1229.4942	1254.14	1283.0312	1297.7557	1315.6482	1330.3498	1339.3092	1341.8265	1360.0457	1395.9185	1411.651	1448.3274	1483.5944	1494.3494	1496.0897	1500.3783	1505.9593	1512.8258	1832.7008	2975.5723	3005.7765	3015.2871	3025.4269	3026.5455	3034.1966	3042.0964	3043.3756	3080.7037	3091.9911	3097.8248	3100.2337	3105.9706	3106.153
CCCC1CCCC1=O	CCC[C@H]1CCCC1=O	
InChI=1S/C8H14O/c1-2-4-7-5-3-6-8(7)9/h7H,2-6H2,1H3	InChI=1S/C8H14O/c1-2-4-7-5-3-6-8(7)9/h7H,2-6H2,1H3/t7-/m0/s1
