16
gdb 115094	2.59991	1.51748	1.12111	2.149	65.17	-0.2743	-0.039	0.2353	1070.5009	0.125053	-475.057982	-475.049879	-475.048935	-475.091274	29.486	
O	-0.0760312798	 1.5030419378	-0.2293647953	-0.422075
C	 0.0319300595	 0.1154456198	-0.0382479335	-0.05673
C	-1.3533112367	-0.5849677853	 0.0390721654	-0.188078
C	-1.2684497341	-2.1196185553	-0.0117738924	-0.194447
N	-1.016331057	-2.7571439898	 1.2735944536	-0.228409
C	-1.3778999069	-2.1445780853	 2.3065350264	 0.132018
O	-1.9874550307	-0.9023565724	 2.3952223798	-0.208964
C	-2.0268650763	-0.0817869842	 1.2951638606	 0.427809
O	-2.5013618744	 1.0144473712	 1.4171452619	-0.32314
H	-0.7380285214	 1.8436854866	 0.3868036015	 0.299844
H	 0.5647890401	-0.2851460404	-0.9072570827	 0.118932
H	 0.6268878675	-0.1370425393	 0.8552946926	 0.103126
H	-1.9346805995	-0.2045455977	-0.8054771177	 0.128483
H	-2.2036682973	-2.5371552098	-0.4065539524	 0.134585
H	-0.4818654256	-2.4271357729	-0.7088511775	 0.127612
H	-1.2578044773	-2.5557195132	 3.3044927998	 0.149436
58.41	132.2389	137.7967	204.7566	283.6271	383.073	413.1418	449.8838	479.1751	532.261	624.9381	740.7927	759.9218	861.5755	908.7057	938.7299	952.6724	1010.8773	1047.749	1087.9233	1103.2328	1115.3115	1177.2516	1222.6915	1257.3605	1290.8515	1326.7204	1375.0523	1388.2196	1408.1642	1446.7153	1489.226	1515.5174	1760.3414	1842.2635	2968.5669	3027.8729	3064.3211	3069.9334	3082.7043	3192.0192	3759.4723
OCC1CN=COC1=O	OC[C@H]1CN=COC1=O	
InChI=1S/C5H7NO3/c7-2-4-1-6-3-9-5(4)8/h3-4,7H,1-2H2	InChI=1S/C5H7NO3/c7-2-4-1-6-3-9-5(4)8/h3-4,7H,1-2H2/t4-/m1/s1
