17
gdb 8072	3.66368	1.60974	1.37049	3.1848	64.69	-0.2533	0.0584	0.3117	934.7646	0.142644	-400.908589	-400.901046	-400.900102	-400.940504	28.911	
O	-0.0110255902	 1.3845514074	-0.1765403495	-0.420502
C	 0.1110971026	 0.0181445936	 0.1852782274	-0.114144
C	-1.2545833376	-0.641697755	 0.1539294008	 0.021918
N	-1.957169481	-0.6822661375	-1.2315168577	-0.164413
C	-1.1009696021	-1.9221940786	-1.5317044326	-0.2498
C	-1.5356745876	-2.1412354964	-0.0587587469	 0.32836
O	-1.1932364662	-3.130834396	 0.8435668149	-0.462865
C	-2.927698768	-1.6624093248	-0.5580624298	-0.23179
H	-0.5517193565	 1.4072259738	-0.9754417407	 0.294485
H	 0.8479247322	-0.4979427449	-0.4453793498	 0.091353
H	 0.4971566462	-0.0047147838	 1.2100427474	 0.118055
H	-1.8975327792	-0.1473641699	 0.889813734	 0.085369
H	-1.5438362193	-2.566933292	-2.2956269217	 0.099902
H	-0.0565909395	-1.7120676516	-1.758331443	 0.110827
H	-1.4814810692	-3.9829545296	 0.4978412038	 0.284691
H	-3.6009515728	-1.1896647823	 0.1607754391	 0.10952
H	-3.466932902	-2.2904434425	-1.2722341557	 0.099033
74.327	145.5713	250.1708	279.454	332.905	394.6333	413.8673	498.8067	588.2125	606.8616	645.9467	749.2187	803.9464	868.3991	909.6837	965.188	977.1887	1032.2228	1054.2069	1063.7286	1098.0774	1110.7651	1154.5066	1172.2532	1181.984	1190.0543	1221.4741	1253.5597	1294.2902	1349.8229	1359.6128	1419.7971	1454.5367	1500.5691	1519.5709	1555.4249	3005.3797	3052.608	3056.2393	3069.9129	3074.4836	3128.0931	3146.3672	3784.795	3804.9787
OCC1N2CC1(O)C2	OC[C@H]1N2C[C@]1(O)C2	
InChI=1S/C5H9NO2/c7-1-4-5(8)2-6(4)3-5/h4,7-8H,1-3H2	InChI=1S/C5H9NO2/c7-1-4-5(8)2-6(4)3-5/h4,7-8H,1-3H2/t4-/m1/s1
