25
gdb 105522	2.09385	1.32345	1.17954	1.0478	88.27	-0.2405	0.0759	0.3164	1286.8022	0.226826	-389.478479	-389.467792	-389.466848	-389.51374	40.166	
C	-0.0263328017	 1.4308158925	 0.0895209088	-0.251728
O	-0.1409275028	 0.0284000613	 0.0507856481	-0.302769
C	-1.4377959335	-0.5510570369	 0.0997896878	 0.446281
C	-2.3619644117	-0.049274915	 1.2616691333	-0.281964
C	-3.2399692835	 0.7154371585	 0.2339104012	-0.218848
C	-2.4757686337	 0.0204376096	-0.9258042421	-0.281963
C	-1.2086876639	-2.0693726909	 0.0394831263	 0.00046
C	-0.5397391165	-2.4865416353	-1.2777946624	-0.396943
C	-0.4081692474	-2.5671364087	 1.2511532109	-0.396943
H	 1.0422525201	 1.6563006514	 0.0411062265	 0.126214
H	-0.5193409574	 1.9206588107	-0.7618967548	 0.106687
H	-0.4267881684	 1.8639663928	 1.0168457113	 0.106687
H	-2.8867895862	-0.8757107094	 1.7482313584	 0.100032
H	-1.8786798031	 0.5443992156	 2.0407338094	 0.103202
H	-4.3143696611	 0.5255030318	 0.2837535675	 0.097452
H	-3.0864745614	 1.7974781354	 0.2604082887	 0.099533
H	-2.0738905513	 0.6639786917	-1.7114910065	 0.103202
H	-3.0509330603	-0.7751620358	-1.4068317727	 0.100032
H	-2.2069305778	-2.5268072861	 0.0768392958	 0.061832
H	 0.4540810272	-2.0391902013	-1.36169285	 0.128814
H	-0.4325609883	-3.5748557467	-1.3292886662	 0.103657
H	-1.1255439489	-2.1683482218	-2.1465302327	 0.107302
H	-0.8997058778	-2.3066882974	 2.1943787253	 0.107302
H	-0.2998263537	-3.6561639208	 1.2220451111	 0.103657
H	 0.590466173	-2.1227345451	 1.2598120368	 0.128814
84.5781	97.617	110.5913	184.234	202.2246	212.8301	240.1086	244.2123	314.6278	329.5304	354.0671	454.2518	486.0357	487.5905	630.6519	713.3162	761.9282	818.251	856.2892	902.8602	929.625	950.4659	961.8448	967.1252	1018.528	1044.8457	1050.2744	1116.3204	1134.2215	1152.8433	1180.6101	1192.2304	1206.4483	1208.8826	1231.6386	1253.3337	1274.5819	1275.6415	1303.5148	1349.4019	1370.3179	1394.655	1415.1435	1460.956	1470.7059	1483.7647	1486.7745	1493.6249	1497.8955	1501.5628	1505.1184	1510.6141	1515.7494	2991.2111	3007.1982	3033.8903	3038.0847	3039.1757	3059.0574	3060.6558	3066.3503	3095.8435	3098.2705	3098.5901	3106.1458	3111.9872	3118.3262	3121.4106	3123.7746	84.5767	97.6154	110.5881	184.233	202.224	212.829	240.1078	244.2116	314.6277	329.5302	354.0669	454.2517	486.0357	487.5905	630.6516	713.316	761.9282	818.2507	856.2891	902.86	929.6251	950.4659	961.8449	967.1251	1018.528	1044.8456	1050.2743	1116.3202	1134.2206	1152.8435	1180.6107	1192.2307	1206.4484	1208.8829	1231.639	1253.3339	1274.5819	1275.6412	1303.515	1349.4026	1370.3182	1394.6552	1415.1437	1460.9563	1470.7062	1483.765	1486.775	1493.6255	1497.8961	1501.5633	1505.1186	1510.6145	1515.75	2991.2109	3007.1982	3033.8902	3038.0846	3039.1755	3059.0574	3060.6557	3066.3502	3095.8435	3098.2705	3098.5901	3106.1456	3111.9872	3118.3262	3121.4106	3123.7746
COC1(CCC1)C(C)C	COC1(CCC1)C(C)C	
InChI=1S/C8H16O/c1-7(2)8(9-3)5-4-6-8/h7H,4-6H2,1-3H3	InChI=1S/C8H16O/c1-7(2)8(9-3)5-4-6-8/h7H,4-6H2,1-3H3
