18
gdb 38470	3.62767	1.63963	1.51661	1.9532	75.07	-0.2373	0.0635	0.3008	917.5077	0.149903	-401.81456	-401.808229	-401.807285	-401.844784	27.374	
C	-0.0449091281	 1.4024195382	-0.1883810459	-0.251459
C	 1.2809285125	 0.7282748144	-0.1189890391	-0.08999
C	 2.03952837	 0.4410629835	 1.1543732693	 0.020949
C	 2.4508558425	 1.1091289328	 2.522424643	-0.017294
C	 1.0574363325	 1.7095583755	 2.6937315936	-0.267363
C	 0.9294233046	 0.2399770253	 2.1728815026	 0.380671
C	-0.1988717546	-0.4692785779	 1.4476636978	-0.29896
N	-0.0295485171	-0.0498741386	 0.0165394031	-0.110912
O	 1.9554899802	-0.1372474526	 3.1915497513	-0.360069
H	-0.4006659965	 2.0456445013	 0.6071226329	 0.118597
H	-0.3972023932	 1.7021869324	-1.1729144828	 0.118818
H	 1.7962584619	 0.5521609607	-1.0583592092	 0.100838
H	 2.6297796667	-0.4682783648	 1.0105965936	 0.096027
H	 3.4241558283	 1.4711582042	 2.8535454595	 0.098367
H	 0.7449816905	 1.8502904009	 3.7289335784	 0.109078
H	 0.7776883546	 2.5418429298	 2.0494858528	 0.103825
H	-0.0758463097	-1.5550902477	 1.4986755892	 0.131432
H	-1.202874635	-0.2092731275	 1.7933762101	 0.117444
240.452	270.5606	355.3902	401.0503	424.9419	521.3397	576.6185	669.0845	685.3276	714.2883	742.8932	779.378	825.694	881.6206	903.7799	937.073	960.7216	974.9794	1011.5728	1021.6399	1055.0858	1066.1731	1116.8099	1126.4138	1140.279	1152.5399	1169.775	1197.6053	1201.1542	1216.146	1245.7784	1263.9501	1296.0122	1310.9021	1362.1498	1399.4075	1483.2277	1490.1815	1514.7486	3058.4212	3074.1986	3087.1574	3109.2644	3115.5541	3121.3175	3153.3542	3162.0729	3211.632
C1C2C3C4CC3(CN12)O4	C1[C@H]2[C@H]3[C@H]4C[C@]3(CN12)O4	
InChI=1S/C7H9NO/c1-5-6-4-2-8(4)3-7(1,6)9-5/h4-6H,1-3H2	InChI=1S/C7H9NO/c1-5-6-4-2-8(4)3-7(1,6)9-5/h4-6H,1-3H2/t4-,5+,6-,7+,8?/m0/s1
