19
gdb 13859	4.22781	1.30655	1.22663	3.3708	71.54	-0.2416	0.0354	0.277	1064.461	0.167112	-365.120206	-365.111522	-365.110577	-365.155583	30.709	
N	 0.0204551467	 1.2416965764	 0.546609712	-0.526922
C	-0.0008486653	 0.1112580675	-0.2178031139	 0.39378
O	 0.9560327813	-0.235714339	-0.886089819	-0.373927
C	-1.3079516702	-0.6743167919	-0.1957424973	-0.066814
C	-2.0117745042	-0.6615608202	-1.570431401	-0.200611
C	-2.9799329372	-1.8488301381	-1.4811139779	-0.20475
C	-2.1789780655	-2.9393506296	-0.7312730207	-0.204065
C	-1.0857710432	-2.1834895331	 0.0785898242	-0.210827
H	 0.8540611599	 1.8064995017	 0.5437054471	 0.258261
H	-0.7656591026	 1.5365755717	 1.0970986059	 0.256599
H	-1.9901549418	-0.2553726379	 0.5548301508	 0.052832
H	-2.5056208998	 0.2899284418	-1.789852264	 0.09131
H	-1.2560699018	-0.8350142105	-2.3447716932	 0.122676
H	-3.8629982205	-1.5594347721	-0.8984291028	 0.093127
H	-3.3373363702	-2.180561308	-2.4601628175	 0.095633
H	-2.8244240831	-3.5450762186	-0.0892858398	 0.094959
H	-1.7108494603	-3.6267302907	-1.4422295414	 0.105144
H	-0.0873041454	-2.4508443583	-0.2754337447	 0.12966
H	-1.1255128869	-2.4067406611	 1.1482241332	 0.093937
17.4023	44.7716	96.8196	164.2873	205.1571	299.0962	369.979	538.5947	587.0571	618.0198	627.3274	753.8328	785.6167	818.9428	870.125	899.37	945.626	961.6229	970.9288	1006.6055	1047.7096	1080.9563	1084.8937	1185.2205	1204.0767	1223.2988	1272.216	1287.0985	1290.669	1317.2539	1332.1674	1341.8795	1353.1098	1413.6996	1488.2568	1492.9647	1495.4628	1516.8924	1614.2302	1788.7309	3016.7335	3030.6047	3045.4401	3051.5346	3064.1853	3081.0221	3090.8611	3097.8555	3116.2178	3603.6071	3743.7816
NC(=O)C1CCCC1	NC(=O)C1CCCC1	
InChI=1S/C6H11NO/c7-6(8)5-3-1-2-4-5/h5H,1-4H2,(H2,7,8)	InChI=1S/C6H11NO/c7-6(8)5-3-1-2-4-5/h5H,1-4H2,(H2,7,8)
