19
gdb 39574	2.50918	2.00025	1.53646	1.3025	79.72	-0.2281	0.0085	0.2367	943.9634	0.162677	-385.905215	-385.898218	-385.897274	-385.936789	28.692	
C	-0.014246817	 1.5448358495	-0.013353581	-0.273275
C	 1.3712014475	 2.1365991473	-0.0456425304	-0.054453
C	 2.4615578333	 1.381732074	-0.1332819484	-0.060322
C	 2.3292730412	-0.1269230198	-0.1837200612	-0.005162
O	 1.0815440902	-0.4984944975	-0.7636727507	-0.264185
C	-0.0133743593	-0.0035480754	 0.0031626467	 0.087534
C	-0.0164506629	-0.6582497139	 1.4066138547	-0.273461
C	 1.3677945745	-0.9385139273	 1.9319632394	-0.054216
C	 2.4593554199	-0.7082365584	 1.209596583	-0.060442
H	-0.5698319435	 1.9300532128	 0.8508449606	 0.105296
H	-0.5666928811	 1.8946529405	-0.8966082461	 0.112137
H	 1.4458348444	 3.2206426928	-0.0164613845	 0.087949
H	 3.4597328073	 1.8089046978	-0.1385692459	 0.089233
H	 3.0911478396	-0.5530331694	-0.8456901226	 0.087699
H	-0.9030409164	-0.3476376543	-0.5320390122	 0.08096
H	-0.5687566896	-0.0277188555	 2.1146471956	 0.105399
H	-0.5733306238	-1.6045392738	 1.3608201918	 0.112121
H	 1.4403088905	-1.3628723579	 2.9300809895	 0.08796
H	 3.4566948553	-0.8941963414	 1.5963339618	 0.089228
53.9734	215.7484	349.3389	359.7341	442.5418	483.3225	504.0721	526.4104	658.1557	663.6746	732.9712	776.3396	817.7525	833.299	883.8558	934.423	943.4917	980.2337	982.3958	993.7978	995.9022	1037.4088	1071.3658	1079.2376	1091.7104	1169.8074	1212.0153	1215.8799	1233.3241	1286.2195	1331.0302	1337.1386	1361.6259	1365.3509	1396.3585	1400.9628	1415.5145	1462.814	1479.3372	1716.7383	1728.7573	3009.0112	3009.1717	3038.674	3047.3575	3049.7879	3064.1004	3151.4169	3152.419	3178.9416	3182.0093
C1C=CC2OC1CC=C2	C1C=C[C@@H]2O[C@H]1CC=C2	
InChI=1S/C8H10O/c1-3-7-5-2-6-8(4-1)9-7/h1-3,5,7-8H,4,6H2	InChI=1S/C8H10O/c1-3-7-5-2-6-8(4-1)9-7/h1-3,5,7-8H,4,6H2/t7-,8+
