12
gdb 133573	3.62176	1.10155	1.04098	3.2185	47.76	-0.2966	-0.0088	0.2878	1082.7559	0.073616	-604.154856	-604.147335	-604.146391	-604.187936	26.746	
F	-0.2027372061	 0.0483508787	 0.1639614056	-0.073406
C	-0.0475543354	 1.3729190204	 0.0688328753	 0.275958
F	 1.256617864	 1.6454161976	 0.1210463742	-0.062282
F	-0.5107755913	 1.763109957	-1.1282481203	-0.073385
C	-0.8089947003	 2.1012825663	 1.1643885528	-0.01434
C	-2.2465855724	 1.6226618228	 1.4243655044	-0.436633
C	-1.6685353514	 1.1784678271	 2.7700738475	 0.459483
O	-2.0356343088	 0.6554943743	 3.7657372062	-0.293526
O	-0.3955900646	 1.6399407388	 2.4787729058	-0.241408
H	-0.6560908278	 3.1763023586	 1.0537102548	 0.132561
H	-3.0029017903	 2.4043996369	 1.4958867678	 0.158904
H	-2.6053782356	 0.8083408215	 0.794761046	 0.168074
66.6613	82.5412	191.6813	262.8656	346.1604	389.8054	504.0622	519.2806	525.5822	586.4507	656.7303	769.4197	800.4403	928.339	976.5465	987.1303	1043.3775	1104.2514	1126.8296	1189.2718	1219.0316	1230.9865	1287.2443	1306.5643	1411.6782	1455.4051	1964.0654	3104.0378	3111.5458	3165.7213
FC(F)(F)C1CC(=O)O1	FC(F)(F)[C@H]1CC(=O)O1	
InChI=1S/C4H3F3O2/c5-4(6,7)2-1-3(8)9-2/h2H,1H2	InChI=1S/C4H3F3O2/c5-4(6,7)2-1-3(8)9-2/h2H,1H2/t2-/m1/s1
