21
gdb 31713	3.59051	0.91664	0.80584	3.1598	87.02	-0.2064	0.0389	0.2453	1536.3654	0.18339	-383.331787	-383.322079	-383.321135	-383.367993	35.15	
C	 0.0782274174	 1.4902832107	-0.3606676973	-0.36454
C	 0.0286116338	-0.0068187594	-0.017043221	-0.289188
C	-1.3648399898	-0.5550329956	-0.0032790014	 0.286649
C	-1.9202627111	-1.5113135717	-0.8127124058	-0.205893
N	-3.2300860301	-1.6348760662	-0.3933668586	-0.278799
C	-3.4179042843	-0.7595033088	 0.6386141703	 0.340199
C	-4.7058851747	-0.6419408085	 1.391132684	-0.289981
C	-4.7395404952	-1.5105619479	 2.6615019065	-0.367376
N	-2.3099141826	-0.0969869919	 0.8941878816	-0.347323
H	 1.1031219463	 1.8718407724	-0.3111016172	 0.102262
H	-0.3059325919	 1.6735372692	-1.3694780966	 0.109371
H	-0.5376185759	 2.0597494546	 0.3405460299	 0.135923
H	 0.63265661	-0.5770770036	-0.732107462	 0.092055
H	 0.4834130021	-0.1602812766	 0.9697910485	 0.108252
H	-1.5238374575	-2.0942079234	-1.6276616163	 0.120075
H	-3.9219092958	-2.2530387986	-0.7823818651	 0.258578
H	-4.8376939567	 0.4089762489	 1.6647436339	 0.131056
H	-5.5436445441	-0.90845817	 0.7350436811	 0.094526
H	-5.6833406047	-1.3777639516	 3.1993871315	 0.112515
H	-4.6337670906	-2.5728290505	 2.4183347514	 0.111789
H	-3.9187930645	-1.2358775916	 3.3293541923	 0.139849
18.5328	60.9689	115.8515	159.415	197.8746	224.2707	300.8152	355.693	400.693	425.4046	521.5046	599.8008	686.6921	701.9544	732.0709	762.0585	781.616	795.6753	956.1862	964.1578	1010.1612	1015.0136	1065.8231	1078.825	1090.6972	1096.0938	1112.02	1225.3457	1273.8146	1278.4722	1312.0997	1349.6139	1360.5202	1384.9971	1404.3573	1406.9839	1468.687	1477.0813	1479.2005	1495.0082	1496.1217	1506.0151	1508.414	1564.5943	1607.5383	3023.8973	3033.5924	3035.9149	3037.8288	3062.9313	3086.5188	3103.057	3108.636	3121.571	3124.198	3268.5275	3663.4965
CCC1=CNC(CC)=N1	CCc1c[nH]c(CC)n1	
InChI=1S/C7H12N2/c1-3-6-5-8-7(4-2)9-6/h5H,3-4H2,1-2H3,(H,8,9)	InChI=1S/C7H12N2/c1-3-6-5-8-7(4-2)9-6/h5H,3-4H2,1-2H3,(H,8,9)
