24
gdb 121470	3.9131	0.63413	0.62501	2.6274	92.06	-0.2419	0.0285	0.2705	1989.8542	0.2133	-405.559994	-405.548379	-405.547435	-405.597798	41.73	
C	-0.0685901752	 1.5200217235	-0.101575202	-0.383531
C	-0.1959349487	 0.101897202	 0.4232675542	-0.054037
O	-1.2553559896	-0.536841736	-0.2921651892	-0.207347
C	-1.5080948825	-1.8197015758	 0.0517932415	 0.110912
N	-2.4232421538	-2.4554426069	-0.5279320726	-0.244158
C	-2.7338177122	-3.8480457109	-0.1889440526	 0.281455
C	-1.8677362475	-4.4752879867	 0.9192066069	-0.420236
C	-4.21300184	-3.8675270379	 0.2420608273	-0.378009
C	-2.5676378954	-4.6561540507	-1.4902797125	-0.378008
H	 0.7351992129	 2.0449415249	 0.4228816915	 0.118814
H	 0.157650973	 1.5145016828	-1.1711788702	 0.135159
H	-1.0013183849	 2.070138601	 0.0489472719	 0.13516
H	 0.7413535682	-0.4530741983	 0.2767996944	 0.104786
H	-0.4198512572	 0.1036382868	 1.4992856111	 0.104787
H	-0.8538248763	-2.2004286724	 0.8464811885	 0.072793
H	-1.9690451975	-3.9376580405	 1.8682204967	 0.110115
H	-2.1799981237	-5.5093059098	 1.0934685074	 0.112427
H	-0.8073552085	-4.4946177395	 0.6450607349	 0.110114
H	-4.8371020284	-3.4134255757	-0.5318375514	 0.123549
H	-4.5551923139	-4.8933784847	 0.4143415388	 0.10325
H	-4.3533809764	-3.2980056347	 1.1663533889	 0.107603
H	-1.5220809378	-4.6550691624	-1.8146073358	 0.107602
H	-2.8825709915	-5.6950726013	-1.346717341	 0.10325
H	-3.1686819431	-4.2130908369	-2.2884461766	 0.123549
25.6767	51.9852	111.2327	115.3072	212.2283	222.6935	252.2795	252.573	275.2197	296.8255	312.9155	347.9611	363.7511	441.3694	495.0013	518.4599	560.4195	765.9544	817.0206	892.9024	917.9303	920.3475	956.1399	971.6441	987.0608	1041.5585	1047.3663	1071.2045	1145.6452	1182.8023	1207.2607	1243.4864	1251.3981	1270.0422	1300.6978	1387.0095	1391.5766	1395.7232	1412.2461	1421.806	1437.0539	1472.5755	1483.5681	1485.3533	1486.4351	1496.2512	1499.1281	1502.3532	1518.6635	1523.5015	1771.2271	2993.1167	3024.1574	3031.0443	3032.3483	3034.5006	3038.9169	3048.2803	3093.7268	3099.8737	3101.3104	3107.7684	3117.8974	3122.754	3123.1918	3128.0116
CCOC=NC(C)(C)C	CCOC=NC(C)(C)C	
InChI=1S/C7H15NO/c1-5-9-6-8-7(2,3)4/h6H,5H2,1-4H3	InChI=1S/C7H15NO/c1-5-9-6-8-7(2,3)4/h6H,5H2,1-4H3
