18
gdb 36817	11.39884	0.45265	0.44014	3.2916	80.21	-0.2717	0.0288	0.3005	2329.609	0.144964	-401.921963	-401.911642	-401.910698	-401.958886	35.058	
C	-0.1095063099	-1.1592998281	-0.0030681297	-0.442161
C	-0.0599200215	 0.0411956822	 0.0030122758	 0.284368
C	 0.0370586406	 1.494245803	 0.0100449536	-0.351172
C	 1.492082002	 1.9729866606	-0.0021021699	-0.055245
O	 1.4751748254	 3.3864028958	 0.0058259566	-0.245517
C	 2.7593232276	 3.9596135704	-0.0039403161	-0.053526
C	 2.5641892632	 5.48081483	 0.006514826	-0.340259
C	 3.8355731438	 6.1969042676	-0.0023970682	 0.24787
N	 4.8515323984	 6.7468693474	-0.0094789654	-0.299772
H	-0.1684449501	-2.219492035	-0.0082530469	 0.200309
H	-0.4782406025	 1.9154683234	-0.8612570756	 0.142303
H	-0.4603957979	 1.9057725441	 0.8962203654	 0.142303
H	 2.0266328781	 1.5844425139	 0.8782270127	 0.107908
H	 2.0085917833	 1.5941788174	-0.8973180699	 0.107909
H	 3.3421889776	 3.6466398761	 0.8762672544	 0.113774
H	 3.3242538092	 3.6565537798	-0.8991815641	 0.113773
H	 1.9737743991	 5.7764890877	-0.8668908159	 0.163566
H	 1.9916307036	 5.7666603436	 0.8949532773	 0.16357
39.4757	61.9455	67.6601	121.4807	145.7631	149.1961	213.9377	353.4962	355.588	399.3572	409.2039	538.0667	559.2605	628.3563	655.3909	794.2519	800.4826	947.7014	968.6118	1032.2019	1042.6847	1083.4688	1097.372	1100.0833	1165.4779	1220.1608	1241.6815	1298.5575	1300.5904	1303.4961	1314.3535	1397.3887	1448.3551	1471.0295	1477.4373	1515.3328	1537.4343	2243.7805	2367.2011	2975.6556	2986.0468	3011.8755	3016.1033	3035.8502	3057.4645	3073.9453	3100.6037	3506.7936
C#CCCOCCC#N	C#CCCOCCC#N	
InChI=1S/C7H9NO/c1-2-3-6-9-7-4-5-8/h1H,3-4,6-7H2	InChI=1S/C7H9NO/c1-2-3-6-9-7-4-5-8/h1H,3-4,6-7H2
