18
gdb 5079	3.21773	1.919	1.22818	0.928	75.29	-0.1877	0.0594	0.2471	994.5622	0.153921	-344.029094	-344.01999	-344.019046	-344.06313	32.57	
C	 0.0419684556	 1.5171734901	-0.0005892857	-0.503347
C	 0.0071916031	 0.0189878346	 0.0003214762	 0.198523
C	-0.0702791461	-0.7995791957	-1.1045342903	-0.182361
N	-0.0775023772	-2.0997305269	-0.6718619366	-0.254049
C	-0.0057909862	-2.1351495302	 0.7002855454	 0.157395
N	-0.0010512275	-3.3975813577	 1.3446175895	-0.61434
C	 0.048475528	-0.8306278143	 1.1533012758	 0.170949
C	 0.1343283212	-0.3926450678	 2.5829096749	-0.510875
H	 0.9568464726	 1.9074913043	 0.4631290054	 0.117847
H	-0.0024990717	 1.9116719025	-1.0202590283	 0.115217
H	-0.8001608427	 1.9483447494	 0.5555562764	 0.117849
H	-0.1200783583	-0.5557425021	-2.1541530612	 0.108755
H	-0.1271850485	-2.9271862305	-1.2400521163	 0.255331
H	 0.8422645771	-3.5400714831	 1.8908486945	 0.241125
H	-0.7875735339	-3.5020300816	 1.9773259205	 0.241125
H	 1.039750415	 0.1947249504	 2.7814391832	 0.120431
H	-0.7172667089	 0.2349606147	 2.8746450974	 0.12043
H	 0.1502818984	-1.2556977261	 3.2563117592	 0.099995
38.1348	119.1698	133.5483	163.639	228.8396	266.179	282.0096	311.3664	486.7531	494.6366	564.2377	646.1002	675.8551	701.274	710.2494	762.0879	801.8573	942.5078	1001.218	1049.5616	1073.0993	1091.1714	1124.0664	1205.4327	1213.5209	1255.9944	1343.2432	1408.5919	1418.3778	1423.2697	1479.6268	1479.7759	1488.3123	1496.6991	1506.7214	1554.7573	1632.0684	1663.8022	3012.65	3013.8561	3055.5941	3056.9736	3091.3269	3098.1456	3254.2136	3497.9646	3560.9638	3684.2203
CC1=CNC(N)=C1C	Cc1c[nH]c(N)c1C	
InChI=1S/C6H10N2/c1-4-3-8-6(7)5(4)2/h3,8H,7H2,1-2H3	InChI=1S/C6H10N2/c1-4-3-8-6(7)5(4)2/h3,8H,7H2,1-2H3
