15
gdb 70167	2.59661	1.73512	1.18382	3.4282	66.91	-0.2429	-0.0916	0.1513	1002.5529	0.111383	-457.782211	-457.774337	-457.773393	-457.814665	29.75	
O	 0.1286911573	 1.3518561113	-0.4057942902	-0.469164
C	 0.0072685106	 0.0190604102	-0.0748311356	 0.348938
C	-0.4037709119	-0.9820648077	-1.1500304803	-0.344636
C	-1.3252894978	-0.7326281023	 0.0063623927	-0.125261
C	-1.2562768303	-1.7651460953	 1.1269078806	-0.344233
C	 0.2005539942	-1.7669104755	 1.5952338175	 0.304971
O	 0.7430764552	-2.5581055517	 2.3149994783	-0.272627
C	 0.8670503074	-0.489315974	 1.0124267021	 0.238423
O	 1.8372155639	 0.0793551242	 1.4538666772	-0.325541
H	 0.9092480153	 1.6694883654	 0.0723195045	 0.301871
H	-0.6444272211	-0.4972588373	-2.0895437943	 0.147171
H	 0.1020127853	-1.9385539117	-1.2445647286	 0.131474
H	-2.2433556246	-0.1838214898	-0.1655229978	 0.119066
H	-1.8737537501	-1.4649783643	 1.9828937535	 0.149117
H	-1.5759399333	-2.7689610616	 0.8293962103	 0.14043
79.0663	128.6658	271.8534	284.0744	307.6832	323.1066	414.1047	439.4034	509.2924	539.3831	594.7914	661.1386	730.058	828.8565	862.0468	883.4268	917.2624	988.121	1007.9312	1051.252	1064.0873	1078.0964	1124.8161	1179.0121	1210.4135	1277.0656	1321.3814	1394.8377	1423.4029	1448.4892	1484.5584	1814.8563	1857.0021	3039.1737	3086.6845	3123.816	3190.3146	3222.9133	3728.9196
OC12CC1CC(=O)C2=O	O[C@]12C[C@H]1CC(=O)C2=O	
InChI=1S/C6H6O3/c7-4-1-3-2-6(3,9)5(4)8/h3,9H,1-2H2	InChI=1S/C6H6O3/c7-4-1-3-2-6(3,9)5(4)8/h3,9H,1-2H2/t3-,6-/m1/s1
