21
gdb 63890	2.74057	1.73858	1.54569	1.3237	81.51	-0.233	0.0098	0.2428	988.2788	0.183601	-387.097527	-387.089663	-387.088718	-387.129071	32.822	
C	-0.0753424858	 1.5437013498	-0.0252099272	-0.428592
C	-0.003912723	 0.0149725277	 0.0336324532	 0.405888
C	-1.4220143373	-0.5634706871	-0.056202643	-0.424935
O	 0.7764358732	-0.4623975528	-1.0907171274	-0.329451
C	 1.8887749768	-1.2249791608	-0.5399709181	 0.072093
C	 1.2342956744	-1.9260500889	 0.6584692977	-0.233424
C	 0.8051140343	-0.5598241711	 1.2623989445	-0.109159
C	 2.1504721745	 0.1506666931	 1.2665286191	-0.092004
C	 2.8139626551	-0.2483799601	 0.1756409236	-0.079121
H	 0.9208039053	 1.9876168777	-0.0280666619	 0.12019
H	-0.5863713418	 1.8529013865	-0.9422106873	 0.117929
H	-0.6381796182	 1.9424124448	 0.8261511818	 0.103795
H	-1.8763853263	-0.2767979158	-1.0093500692	 0.122781
H	-1.4316257078	-1.6534705147	 0.0024861766	 0.113446
H	-2.0495818236	-0.1694310493	 0.7504894243	 0.108651
H	 2.3081242902	-1.8287792917	-1.3432724935	 0.071177
H	 0.4143030803	-2.5876104474	 0.3742487052	 0.100093
H	 1.9434833915	-2.4579055572	 1.2941535473	 0.100711
H	 0.245211759	-0.5649132095	 2.1975519172	 0.062374
H	 2.4432489239	 0.9138135035	 1.9765250531	 0.09922
H	 3.7587680651	 0.1179597535	-0.2042283361	 0.098338
169.93	197.0509	227.0285	253.5012	362.0372	369.199	432.1406	460.9147	503.5885	538.3608	614.4411	705.3706	765.4641	807.9937	823.6079	850.2055	894.2673	910.1615	925.537	930.4678	942.9585	962.665	975.0397	993.007	1011.9921	1037.0004	1111.7301	1127.4065	1162.142	1191.6692	1201.9345	1249.3218	1272.7736	1284.8659	1287.1122	1320.1083	1353.5407	1396.8254	1414.7261	1474.8874	1484.2435	1492.0193	1502.7564	1509.5028	1634.3797	3035.7309	3042.4679	3081.8793	3099.9215	3108.437	3117.7092	3126.2408	3134.1839	3140.9603	3141.5186	3200.1052	3226.6292
CC1(C)OC2CC1C=C2	CC1(C)O[C@@H]2C[C@H]1C=C2	
InChI=1S/C8H12O/c1-8(2)6-3-4-7(5-6)9-8/h3-4,6-7H,5H2,1-2H3	InChI=1S/C8H12O/c1-8(2)6-3-4-7(5-6)9-8/h3-4,6-7H,5H2,1-2H3/t6-,7+/m1/s1
