16
gdb 36636	6.44487	0.78364	0.7105	4.3259	71.86	-0.2328	0.004	0.2368	1514.5473	0.126032	-434.086107	-434.077746	-434.076802	-434.120406	29.416	
N	 0.0857565311	-1.1064596647	 0.0656301721	-0.290354
C	 0.0691213403	 0.0475157672	 0.0437977815	 0.271677
C	-0.003372879	 1.5078414622	 0.0241488019	-0.201853
O	 1.322072627	 2.0140985744	-0.1299607207	-0.261106
C	 1.3944984947	 3.3547186309	-0.101884534	 0.49966
N	 0.4105862858	 4.1508206287	 0.0547865172	-0.362324
C	 0.9970029346	 5.5005801404	-0.0071410158	-0.159128
C	 2.5383617774	 5.2964216158	 0.095609544	-0.182464
N	 2.656072942	 3.8848234686	-0.298950223	-0.367633
H	-0.6397239932	 1.8460626306	-0.8004652083	 0.172795
H	-0.4491027843	 1.8800249872	 0.9525449463	 0.173741
H	 0.725954589	 5.9740431652	-0.9593481455	 0.114298
H	 0.6068165519	 6.1336476031	 0.7942386571	 0.114297
H	 3.1042292611	 5.9473179448	-0.5751100572	 0.118779
H	 2.897988205	 5.4574458553	 1.1209339356	 0.108532
H	 3.4396701364	 3.3443809003	 0.0384857687	 0.251082
30.9359	115.9396	122.0121	182.9317	244.6931	279.9838	380.1721	429.8839	526.4868	564.7769	704.3295	749.9113	768.2976	867.3053	918.4189	958.5817	997.7086	1016.2471	1040.2134	1064.9032	1111.137	1118.7648	1210.6482	1242.5109	1244.065	1300.3879	1316.8332	1348.1445	1388.9296	1478.1911	1496.402	1506.2312	1534.919	1719.553	2376.5328	3009.3423	3024.6332	3054.8687	3082.4187	3092.6499	3095.4793	3605.1357
N#CCOC1=NCCN1	N#CCO[C]1[N]CCN1	
InChI=1S/C5H7N3O/c6-1-4-9-5-7-2-3-8-5/h2-4H2,(H,7,8)	InChI=1S/C5H7N3O/c6-1-4-9-5-7-2-3-8-5/h2-4H2,(H,7,8)
