19
gdb 109005	3.9674	1.01975	0.97866	1.0119	77.52	-0.2138	0.0256	0.2393	1267.0469	0.159268	-422.981271	-422.972792	-422.971848	-423.014423	32.613	
O	-0.0564593295	 1.3698677287	-0.0704605309	-0.413617
C	-0.0618719382	-0.0451178897	-0.0014554897	-0.219416
C	-1.4659312459	-0.5297629234	 0.0544527847	 0.345723
C	-2.6283868385	 0.1357430195	 0.0762325367	-0.195479
C	-3.6741129112	-0.9767665435	 0.0797331593	-0.12146
C	-3.0514946351	-1.9760719355	 1.1101599876	-0.213801
C	-1.899696391	-1.9989497489	 0.0497696253	-0.150529
C	-3.0330857869	-1.9103048188	-1.0309061378	 0.167474
O	-3.6472667548	-3.1545187461	-1.2585524425	-0.445484
H	 0.8580557173	 1.6654813032	-0.0534325812	 0.289117
H	 0.4462650698	-0.4936454367	-0.8746461017	 0.095328
H	 0.4886958855	-0.4058726808	 0.8864103032	 0.095918
H	-2.8010569409	 1.2008415543	 0.0465102883	 0.109961
H	-4.7322317862	-0.7132878223	 0.0781730664	 0.053658
H	-2.8106674267	-1.583204219	 2.1004790285	 0.087816
H	-3.5899245779	-2.9233973942	 1.1704451884	 0.108372
H	-1.1409747917	-2.7814298762	 0.0149235596	 0.059986
H	-2.7641910261	-1.4081062279	-1.9696209848	 0.062722
H	-4.3995118519	-3.0147181326	-1.8422892693	 0.283712
68.2265	155.7498	176.3395	233.8656	261.1795	316.9091	319.7948	400.3957	483.6698	559.2526	572.6313	658.6027	789.4429	812.6407	850.1827	862.3458	893.5697	932.6229	944.4742	1001.1605	1036.6421	1046.108	1069.2032	1082.2413	1103.1085	1114.1335	1166.1959	1188.8229	1202.2889	1231.4964	1233.5847	1243.2639	1254.691	1258.9989	1284.3587	1321.8195	1406.6626	1465.6441	1487.694	1506.1407	1686.994	2932.567	2941.4402	3017.0596	3068.2701	3111.4113	3114.4939	3139.4934	3248.9732	3817.1655	3836.6691
OCC1=CC2CC1C2O	OCC1=C[C@@H]2C[C@H]1[C@H]2O	
InChI=1S/C7H10O2/c8-3-5-1-4-2-6(5)7(4)9/h1,4,6-9H,2-3H2	InChI=1S/C7H10O2/c8-3-5-1-4-2-6(5)7(4)9/h1,4,6-9H,2-3H2/t4-,6-,7+/m1/s1
