18
gdb 35576	2.83341	1.48087	1.24929	3.2682	74.37	-0.2601	0.0261	0.2862	1042.3399	0.150222	-401.961815	-401.95431	-401.953365	-401.994259	28.929	
N	-0.3733325769	-1.1267241203	-0.6215301324	-0.341917
C	-0.2519626639	-0.0172367959	-0.3166612893	 0.286097
C	-0.0609873571	 1.3667420757	 0.0798109628	-0.163061
C	 0.0080590963	 1.661804419	 1.6158511101	-0.272314
C	 1.3902319893	 2.3526254818	 1.4216167348	 0.121306
O	 2.4926013635	 1.7154704301	 2.0238301013	-0.250958
C	 2.8281085926	 0.5770508718	 1.230483158	-0.100624
C	 2.559853077	 0.9982259034	-0.2248937509	-0.242771
C	 1.3821162582	 1.9722298998	-0.0952084613	-0.060227
H	-0.8132547272	 1.978348976	-0.4238230239	 0.125323
H	-0.7941277328	 2.3045720068	 1.9820085489	 0.117802
H	 0.0598552335	 0.7700569684	 2.2422244875	 0.133565
H	 1.423995099	 3.4098223654	 1.6906939095	 0.087952
H	 3.8722962032	 0.328355345	 1.4328567374	 0.117567
H	 2.2095129095	-0.2897076437	 1.5064776029	 0.109905
H	 3.4247074929	 1.5330543864	-0.6271686845	 0.112728
H	 2.3486664698	 0.1465536957	-0.8760193371	 0.132287
H	 1.421114263	 2.7835007646	-0.8216240438	 0.08734
57.6673	143.881	219.6415	229.621	359.3321	415.4403	515.8992	565.7765	588.4687	676.574	727.3228	757.7234	843.4238	873.5554	895.3613	915.8413	956.1928	980.8156	1020.6983	1027.491	1057.1711	1081.5483	1126.5567	1135.5039	1199.271	1204.8227	1230.4215	1246.9672	1257.3707	1274.9534	1301.2156	1329.0407	1340.8823	1359.761	1397.1561	1472.2696	1482.125	1527.2693	2347.3399	2999.0685	3062.766	3079.9703	3082.9225	3094.2508	3103.2886	3112.901	3119.2473	3143.1656
N#CC1CC2OCCC12	N#C[C@H]1C[C@H]2OCC[C@@H]12	
InChI=1S/C7H9NO/c8-4-5-3-7-6(5)1-2-9-7/h5-7H,1-3H2	InChI=1S/C7H9NO/c8-4-5-3-7-6(5)1-2-9-7/h5-7H,1-3H2/t5-,6+,7-/m1/s1
