20
gdb 57730	3.46819	0.83009	0.82142	1.346	76.26	-0.2446	-0.034	0.2107	1468.6706	0.166559	-440.289881	-440.279224	-440.27828	-440.326556	37.615	
C	 0.3209888583	 1.6122416892	 0.218095148	-0.413571
C	-0.1607690289	 0.1814237344	-0.0521297756	 0.158696
C	 0.2489452342	-0.7707514161	 1.0872016889	-0.427046
N	-1.6103094789	 0.0802362083	-0.3105403032	-0.326127
C	-2.5204151872	 0.2373463095	 0.8167446426	-0.261938
C	-2.8395569383	-1.0911179106	 1.4920933738	 0.176378
O	-3.120318648	-1.2098546174	 2.6551879745	-0.240008
C	 0.4883955552	-0.3786858539	-1.3249254457	 0.150243
O	 1.354566325	 0.1633583965	-1.9584481703	-0.247546
H	 1.4070986142	 1.6448185934	 0.3349303965	 0.134173
H	 0.0644835104	 2.269988309	-0.6177832188	 0.119168
H	-0.1353252621	 2.0102069924	 1.1293188476	 0.115857
H	-0.1917177883	-0.4617494239	 2.0389782533	 0.143602
H	-0.0689580611	-1.7973415351	 0.8797151385	 0.129909
H	 1.3356322239	-0.7638571721	 1.207678758	 0.1357
H	-1.8553340289	 0.7382826256	-1.0405959768	 0.228818
H	-2.207863062	 0.9571970566	 1.5866859017	 0.121466
H	-3.4802980456	 0.5993213568	 0.4229488712	 0.134484
H	-2.8114155568	-1.9575928448	 0.7926888936	 0.083193
H	 0.0662449348	-1.3637967978	-1.6249452977	 0.084548
41.8428	55.9395	72.8763	148.1438	197.4217	246.4874	266.3629	286.9607	304.8314	333.2687	388.896	397.1706	428.4588	564.3198	601.8259	713.9072	750.4337	782.9294	884.0056	940.4369	944.0044	1010.5105	1034.606	1050.1737	1106.6401	1115.1908	1198.8985	1223.0683	1251.0355	1282.5111	1340.6175	1393.5072	1395.1615	1399.7886	1421.5126	1454.4504	1477.8651	1481.6597	1500.8164	1506.1096	1517.6872	1836.0657	1838.3181	2880.5427	2889.8459	3001.5612	3041.5586	3045.0254	3047.9954	3114.349	3116.6728	3120.4151	3125.5987	3540.6538
CC(C)(NCC=O)C=O	CC(C)(NCC=O)C=O	
InChI=1S/C6H11NO2/c1-6(2,5-9)7-3-4-8/h4-5,7H,3H2,1-2H3	InChI=1S/C6H11NO2/c1-6(2,5-9)7-3-4-8/h4-5,7H,3H2,1-2H3
