15
gdb 25256	3.27238	1.66409	1.11078	3.01	74.04	-0.2189	-0.0048	0.214	1014.9598	0.116569	-416.884713	-416.877597	-416.876653	-416.916788	27.044	
O	 0.0096189593	-0.0653571624	 0.0046614881	-0.406084
C	 0.0348362489	 1.1493794467	 0.0103018024	 0.345279
N	-1.0627623906	 1.9994236931	 0.0287678267	-0.355769
C	-0.7518458904	 3.4287352488	 0.0302969596	-0.291408
C	 0.7514325021	 3.3982236687	 0.0093222789	 0.285361
C	 1.1624698334	 2.0894685523	-0.0018287162	 0.189674
N	 2.5245219883	 2.0496376634	-0.0214042661	-0.385682
C	 2.9867202832	 3.3441572154	-0.0221682149	-0.056983
C	 1.9074095404	 4.2137199695	-0.0032329237	-0.33522
H	-1.9980495695	 1.6306135633	 0.0389597843	 0.252039
H	-1.1799968576	 3.9320941884	-0.8472535242	 0.125048
H	-1.1555409875	 3.9248658099	 0.9234067999	 0.125043
H	 3.0894435805	 1.2177743459	-0.0329579941	 0.27703
H	 4.0453528824	 3.5506770323	-0.0361279763	 0.128012
H	 1.9736965172	 5.2907143647	 0.0004727856	 0.10366
51.5636	168.5341	248.8141	289.0399	386.4983	513.7756	542.567	627.5191	631.178	644.5423	666.3199	732.1114	775.012	779.6215	828.0493	937.1496	1015.1981	1039.0027	1051.3459	1083.4519	1132.2015	1176.293	1185.2488	1280.1763	1305.5679	1359.9262	1422.3152	1457.0208	1474.4917	1506.4456	1547.8294	1588.7661	1815.5641	3006.5182	3030.6031	3247.1744	3267.6161	3675.3294	3677.4165
O=C1NCC2=C1NC=C2	O=C1NCc2c1[nH]cc2	
InChI=1S/C6H6N2O/c9-6-5-4(3-8-6)1-2-7-5/h1-2,7H,3H2,(H,8,9)	InChI=1S/C6H6N2O/c9-6-5-4(3-8-6)1-2-7-5/h1-2,7H,3H2,(H,8,9)
