23
gdb 57357	2.34582	1.35677	1.25716	3.3548	80.57	-0.2341	0.0578	0.292	1179.9478	0.203052	-425.410409	-425.400078	-425.399134	-425.444874	39.516	
C	-1.497547819	-0.2355805161	-0.3881915026	-0.424443
C	-0.0269939394	 0.017325076	-0.0188909962	 0.270183
C	 0.2011149811	 1.5003554291	 0.3149719344	-0.424451
O	 0.306062997	-0.774401222	 1.1310724648	-0.462192
C	 0.9312552236	-0.4706987785	-1.1290085191	 0.318192
C	 0.7506721149	 0.247896495	-2.4668484264	-0.482011
C	 2.4267306759	-0.5903885056	-0.7252711867	-0.121512
O	 2.4645223303	-1.9780015747	-1.1119508698	-0.279257
C	 1.0363561151	-2.0112240757	-1.3007883808	-0.12151
H	-1.8206542166	 0.3724512266	-1.2374252916	 0.120111
H	-1.6614383669	-1.2897313753	-0.629699272	 0.126506
H	-2.1442973104	 0.0189923391	 0.459617049	 0.102837
H	-0.4134635849	 1.7878045955	 1.1760985267	 0.102838
H	 1.2477959147	 1.6833378388	 0.5745771503	 0.126506
H	-0.0739076528	 2.1575336426	-0.5143507278	 0.120114
H	-0.2702719308	-0.5025849322	 1.8525270661	 0.276258
H	 0.9363381291	 1.3233254095	-2.383841807	 0.116363
H	 1.4619661531	-0.1530097928	-3.1955479135	 0.128815
H	-0.2543179256	 0.1066155958	-2.8766597805	 0.116364
H	 3.1327907074	 0.0170228482	-1.3055128489	 0.087492
H	 2.6189530631	-0.4616340442	 0.3449773518	 0.107651
H	 0.5363973176	-2.5898064164	-0.5170512424	 0.107653
H	 0.7615694036	-2.4061480824	-2.2870320979	 0.087492
80.7419	95.5188	199.3407	227.4963	261.0864	262.9702	268.2226	275.1265	320.7717	350.7734	370.5307	398.346	412.4507	501.1052	506.043	603.0148	815.3045	849.3629	913.7838	917.4635	924.5121	950.2359	965.1919	967.2413	1014.4531	1022.1281	1040.9789	1124.6051	1163.895	1169.8617	1173.087	1181.7206	1229.8791	1233.0768	1279.6503	1317.4377	1372.1197	1383.9251	1397.9897	1409.6367	1422.5512	1479.2071	1480.7589	1493.4589	1500.3031	1505.197	1510.8593	1511.1891	1532.6663	3010.3609	3019.1573	3029.2315	3033.2158	3038.2998	3072.632	3074.1945	3093.3554	3099.6595	3105.1309	3106.0579	3120.6677	3124.0495	3816.3006
CC(C)(O)C1(C)COC1	CC(C)(O)C1(C)COC1	
InChI=1S/C7H14O2/c1-6(2,8)7(3)4-9-5-7/h8H,4-5H2,1-3H3	InChI=1S/C7H14O2/c1-6(2,8)7(3)4-9-5-7/h8H,4-5H2,1-3H3
