17
gdb 79593	2.2935	1.84698	1.24256	2.6761	72.84	-0.2595	-0.0394	0.2201	1021.4638	0.134345	-421.777366	-421.769325	-421.768381	-421.810051	30.291	
C	 0.3338397293	 1.7461719232	 0.038476978	-0.414333
C	 0.2128148119	 0.2364270318	 0.0379566685	-0.008261
C	 1.3422753294	-0.7433153437	-0.1776290902	-0.112271
C	 2.6052766668	-0.3072994224	 0.5294125422	-0.049222
O	 2.911098566	-1.2080708062	 1.5809026043	-0.275183
C	 1.8716253744	-0.2405617282	 1.8373803526	 0.311291
C	 2.1021368645	 0.709546526	 2.9413170842	 0.064811
O	 1.2219495513	 1.3342114267	 3.4816977143	-0.258076
C	 0.5893273027	-0.6800063826	 1.1757370337	-0.156637
H	 1.2577868802	 2.0928525518	 0.5046595241	 0.123083
H	 0.3094966594	 2.1310331095	-0.9867177906	 0.117811
H	-0.4994362473	 2.1945781018	 0.5882242912	 0.13469
H	-0.6980884274	-0.1095970412	-0.4499889181	 0.09829
H	 1.2969281732	-1.5359280263	-0.9142839869	 0.107596
H	 3.4113043117	 0.3262205573	 0.176066314	 0.119021
H	 3.1705404229	 0.8076959902	 3.2299027692	 0.089111
H	-0.090191309	-1.4172843876	 1.5830939094	 0.108278
87.7598	141.8167	181.9674	206.5178	237.8206	323.333	441.9597	481.4168	506.0149	645.3372	691.7009	735.5258	794.8026	826.3934	873.6128	896.6921	927.0681	954.4754	982.3021	998.2566	1035.9047	1070.2193	1072.4506	1097.7253	1138.6173	1198.0891	1206.8659	1279.6111	1296.1143	1320.2873	1369.2823	1413.0977	1423.609	1438.0068	1489.8415	1497.6672	1806.995	2909.2981	3041.5858	3102.7517	3113.8732	3135.5179	3182.9431	3192.0861	3203.5153
CC1C2C3OC3(C=O)C12	C[C@H]1[C@H]2[C@@H]3O[C@]3(C=O)[C@@H]12	
InChI=1S/C7H8O2/c1-3-4-5(3)7(2-8)6(4)9-7/h2-6H,1H3	InChI=1S/C7H8O2/c1-3-4-5(3)7(2-8)6(4)9-7/h2-6H,1H3/t3-,4+,5-,6-,7+/m0/s1
