20
gdb 70622	2.362	1.86417	1.2934	1.3166	78.07	-0.2424	0.0701	0.3125	1043.3034	0.171799	-403.124855	-403.116731	-403.115787	-403.157149	32.303	
C	-0.5161529405	 1.3116878258	 0.1827013771	-0.516419
C	 0.0076309018	-0.0885114554	 0.0124547924	 0.343951
O	-0.2800137879	-1.0068227033	 1.0897744025	-0.305434
C	 1.0914646565	-0.679299269	 0.8155763858	-0.012921
C	 1.8171284967	-1.7420575596	 0.0146591135	-0.250886
C	 0.8329793247	-2.0709113016	-1.1362029529	-0.291047
C	-0.002069795	-0.8029613417	-1.3209703762	 0.305706
C	-1.1157843264	-0.6932099472	-2.2891470527	-0.296594
N	 0.1808482277	-0.0465422803	-2.5751233224	-0.363489
H	 0.0476587314	 2.0329585446	-0.4182990789	 0.124796
H	-1.5717642922	 1.3787110634	-0.1029925337	 0.130723
H	-0.4359204398	 1.6086049738	 1.2307614334	 0.139067
H	 1.6009416226	-0.1232220923	 1.5998186493	 0.088207
H	 2.7539554168	-1.319787398	-0.3679517995	 0.108269
H	 2.0715848633	-2.6201920056	 0.6156067828	 0.10898
H	 1.3378774718	-2.3414947221	-2.0652361571	 0.113488
H	 0.182355704	-2.8986739131	-0.8434840714	 0.117292
H	-1.3551474021	-1.5384926758	-2.9290157334	 0.119035
H	-1.9675609194	-0.0669089852	-2.0361498467	 0.110769
H	 0.106835706	 0.9538565423	-2.4057596721	 0.226508
96.5111	175.3553	225.1834	254.5847	272.6221	353.9653	382.1485	443.5731	461.3414	562.9591	617.0209	682.261	773.9846	816.4509	844.3515	873.0388	908.1328	922.5867	930.3287	975.2681	986.0635	1015.6343	1038.4532	1071.1107	1102.1038	1112.1048	1121.2686	1182.6277	1201.8754	1229.1625	1263.759	1290.0246	1318.3991	1323.309	1344.8796	1402.7988	1409.561	1451.8053	1474.7203	1486.7453	1490.3304	1496.6621	1516.2726	3036.0403	3040.991	3070.6451	3088.8282	3095.9601	3104.9949	3125.3572	3126.8723	3136.6129	3187.3082	3496.2673
CC12OC1CCC21CN1	C[C@]12O[C@H]1CC[C@]12CN1	
InChI=1S/C7H11NO/c1-6-5(9-6)2-3-7(6)4-8-7/h5,8H,2-4H2,1H3	InChI=1S/C7H11NO/c1-6-5(9-6)2-3-7(6)4-8-7/h5,8H,2-4H2,1H3/t5-,6-,7+/m0/s1
