16
gdb 88891	3.78474	0.77168	0.67892	3.5194	72.52	-0.2493	-0.0367	0.2127	1587.0947	0.121703	-475.016009	-475.00695	-475.006005	-475.050904	31.925	
O	-0.2135776011	 1.4117810985	-0.5356221369	-0.427454
C	-0.1307068399	 0.1281254394	-0.0114958579	 0.136353
C	-0.6975746799	-0.1955905825	 1.3395612411	-0.342271
C	-1.385707756	-0.7208807384	 0.0805178531	-0.001133
N	-2.5767700248	-0.0512775504	-0.3111515506	-0.237707
C	-3.5587030775	-0.7279433051	-0.7141144691	 0.12748
O	-4.7361041868	-0.1734025099	-1.128565949	-0.192242
C	-4.7354654098	 1.1055946754	-1.6360346396	 0.186525
O	-5.7525250645	 1.6899417226	-1.8273477303	-0.243727
H	-1.1539645083	 1.62800089	-0.5877234734	 0.289361
H	 0.7854741865	-0.365642333	-0.3190999067	 0.111765
H	-0.193558003	-0.9194452826	 1.9704547621	 0.12256
H	-1.2070522978	 0.6034699013	 1.8662038312	 0.130526
H	-1.3186068678	-1.7878989364	-0.1304275644	 0.090457
H	-3.6193295804	-1.8177538092	-0.7578800557	 0.130845
H	-3.721115379	 1.4676344103	-1.8518751739	 0.118662
61.5588	76.0167	107.7992	173.1197	218.6161	254.4552	330.4853	364.1696	397.6689	459.5626	533.668	644.6314	722.2544	777.6464	814.3269	908.14	965.3339	997.4193	1022.1417	1034.4118	1044.2194	1061.4831	1113.3475	1122.5096	1183.6131	1198.6994	1229.2235	1345.4416	1360.211	1397.5398	1416.0955	1432.892	1479.233	1735.8194	1879.8505	3057.724	3099.0153	3106.2908	3136.9733	3165.2832	3232.0822	3760.6643
OC1CC1N=COC=O	O[C@H]1C[C@H]1N=COC=O	
InChI=1S/C5H7NO3/c7-3-9-2-6-4-1-5(4)8/h2-5,8H,1H2	InChI=1S/C5H7NO3/c7-3-9-2-6-4-1-5(4)8/h2-5,8H,1H2/t4-,5+/m1/s1
