16
gdb 62465	3.8035	1.19721	1.17599	2.8548	69.79	-0.2599	0.0098	0.2697	1076.8431	0.12454	-437.876555	-437.868509	-437.867565	-437.909114	29.819	
O	-0.0943200663	 1.4005744454	-0.0674628946	-0.442265
C	-0.0348910923	 0.0124115684	 0.0112515666	 0.249007
C	 1.0526749723	-0.5834795676	-0.7412710408	 0.250521
N	 1.9367647809	-1.0468720886	-1.3256654737	-0.337448
C	-0.4685415036	-0.7490909757	 1.2618530801	-0.146382
C	-1.2303511231	 0.0415237799	 2.3111330527	-0.101068
O	-2.2976346451	 0.6961629505	 1.643913189	-0.246698
C	-2.5773293269	 0.0545435831	 0.4064364904	-0.095225
C	-1.3423678627	-0.7492041239	 0.0334820832	-0.120778
H	 0.6323900963	 1.7732768798	 0.4448120076	 0.299973
H	 0.1103313963	-1.6127228504	 1.565636689	 0.120615
H	-1.5985053219	-0.6544018576	 3.0813878539	 0.105087
H	-0.6305224228	 0.8110092366	 2.8110188819	 0.10939
H	-3.4337380149	-0.6314334511	 0.4952086048	 0.102674
H	-2.8278518669	 0.8333788461	-0.3200894214	 0.12949
H	-1.4498158393	-1.6143040749	-0.6085908788	 0.123108
127.8571	148.5736	170.0689	199.7487	229.6916	273.8143	419.4635	428.7092	565.2596	585.1115	690.4688	719.7057	746.937	854.3657	859.0464	924.3116	997.1834	1001.5586	1015.6915	1025.3529	1081.133	1124.877	1133.4598	1151.4398	1230.6983	1233.0138	1256.7969	1303.6282	1328.2737	1357.6116	1375.3281	1436.3086	1509.4049	1521.8604	2347.8309	2980.9026	2989.7847	3051.3812	3080.8492	3190.986	3200.6975	3797.7619
OC1(C#N)C2COCC12	O[C@@]1(C#N)[C@H]2COC[C@@H]12	
InChI=1S/C6H7NO2/c7-3-6(8)4-1-9-2-5(4)6/h4-5,8H,1-2H2	InChI=1S/C6H7NO2/c7-3-6(8)4-1-9-2-5(4)6/h4-5,8H,1-2H2/t4-,5+,6-
