23
gdb 79866	2.75689	1.52556	1.32275	0.1745	89.52	-0.2727	0.0883	0.3611	1116.5236	0.207153	-351.13693	-351.12853	-351.127586	-351.169251	33.901	
C	-0.1962304766	 1.5793929124	-0.0135198878	-0.43871
C	 0.003978905	 0.0703780688	 0.0061416871	-0.003332
C	 1.2421344605	-0.5885578009	-0.656535924	-0.075427
C	 2.1358024201	-0.1559428379	 0.5485158331	-0.044034
C	 3.1956216249	-1.230655088	 0.799626917	-0.243654
C	 2.3436519161	-2.5076839755	 0.5515526598	-0.250303
C	 1.0012511192	-1.8573136145	 0.2200002607	-0.032853
C	 0.7703934907	-0.6282061951	 1.1695499853	 0.333814
C	 0.397209504	-0.6646371799	 2.6291954637	-0.526011
H	 0.7155712312	 2.1335188061	 0.2255964515	 0.114129
H	-0.5343840054	 1.9115090336	-1.00170706	 0.113403
H	-0.9646906364	 1.8790416182	 0.7084591469	 0.112625
H	-0.9404370936	-0.4299118711	-0.2466543041	 0.051931
H	 1.5224397164	-0.5742994576	-1.7126354782	 0.055931
H	 2.4411115672	 0.8859132585	 0.650429762	 0.055091
H	 4.0411611553	-1.1450085226	 0.1092726713	 0.09372
H	 3.6009549902	-1.1820013618	 1.8159360793	 0.093077
H	 2.7235990038	-3.1164071189	-0.2752963365	 0.094124
H	 2.2847169383	-3.1563021749	 1.4319742219	 0.093389
H	 0.1490627695	-2.5006391548	-0.0133279898	 0.051741
H	 1.1248202881	-1.2390987282	 3.2140370329	 0.117199
H	 0.3550932202	 0.3449866324	 3.0534987532	 0.117807
H	-0.5853427087	-1.1281306881	 2.7743088147	 0.116344
175.8249	183.1154	193.4791	201.9397	221.5331	248.078	335.2772	451.949	501.5574	623.7886	653.42	722.0052	742.7888	792.0823	811.8437	837.1787	889.6175	913.4389	934.2761	972.9898	984.3181	994.1374	1016.2569	1022.5173	1073.7751	1074.9921	1096.7052	1115.8052	1144.5827	1163.6356	1197.3227	1205.7372	1223.5824	1249.6547	1250.8526	1259.8444	1283.3275	1309.0316	1316.6397	1376.1635	1405.1195	1410.6782	1431.9693	1484.1303	1489.7335	1492.8268	1495.1134	1500.7022	1511.413	3009.9371	3021.2849	3029.6278	3037.0064	3046.7564	3068.354	3076.4203	3083.3687	3086.4965	3086.7131	3087.3547	3089.1651	3104.0147	3116.4091
CC1C2C3CCC2C13C	C[C@H]1[C@H]2[C@@H]3CC[C@H]2[C@]13C	
InChI=1S/C9H14/c1-5-8-6-3-4-7(8)9(5,6)2/h5-8H,3-4H2,1-2H3	InChI=1S/C9H14/c1-5-8-6-3-4-7(8)9(5,6)2/h5-8H,3-4H2,1-2H3/t5-,6-,7+,8-,9+/m0/s1
