18
gdb 91140	2.73784	1.85812	1.55138	2.2161	69.89	-0.221	0.0377	0.2587	915.0762	0.149984	-438.99876	-438.991996	-438.991052	-439.029801	27.859	
O	 0.0689413653	 1.4250139245	 0.4124965102	-0.436955
C	 0.0279837285	 0.0732573275	 0.069246722	 0.131079
C	 0.435968692	-1.0088181935	 1.1241672364	-0.228713
N	-0.8569408837	-1.7469386009	 0.9299812506	-0.150942
C	-1.9904153734	-1.4709302918	 1.8844040124	-0.036726
C	-1.8125266015	-0.419344626	 2.9823134572	-0.100104
O	-2.0493520451	 0.6625183511	 2.0389961873	-0.311954
C	-2.4558130301	-0.2821650294	 1.0033121414	 0.084876
C	-1.3475983782	-0.6546571087	 0.0021812847	-0.04312
H	-0.5479538605	 1.5368009357	 1.1512997334	 0.292768
H	 0.5884987522	-0.029634271	-0.863938103	 0.094672
H	 1.2956437295	-1.6298355526	 0.855762902	 0.108678
H	 0.6084390367	-0.6019294966	 2.1246398144	 0.104014
H	-2.5740515889	-2.3612190805	 2.1199687652	 0.093968
H	-2.6104999517	-0.4540809443	 3.7345752503	 0.113754
H	-0.8476164742	-0.3342712611	 3.490497141	 0.120785
H	-3.4701223844	-0.0823103899	 0.6506587992	 0.089363
H	-1.7114924224	-0.9684828726	-0.9817816049	 0.074555
107.9932	229.5473	333.1892	333.7888	406.8718	455.5193	585.6845	635.0015	651.6363	720.4677	765.9402	800.3735	853.1686	867.4111	912.283	921.3976	973.5149	984.9178	993.387	1021.6939	1027.1948	1071.0477	1109.5209	1159.6888	1169.7694	1178.7154	1202.1018	1210.3222	1228.7423	1238.1725	1285.2318	1302.5979	1305.655	1321.4349	1344.3763	1363.3017	1475.9404	1489.5988	1526.1139	3025.2653	3046.2251	3050.2728	3072.4644	3082.7325	3085.5831	3100.4186	3105.4563	3703.6162
OC1CN2C3COC3C12	O[C@H]1CN2[C@H]3CO[C@H]3[C@@H]12	
InChI=1S/C6H9NO2/c8-4-1-7-3-2-9-6(3)5(4)7/h3-6,8H,1-2H2	InChI=1S/C6H9NO2/c8-4-1-7-3-2-9-6(3)5(4)7/h3-6,8H,1-2H2/t3-,4-,5+,6+/m0/s1
