18
gdb 50919	1.78645	1.51056	0.91001	3.243	79.4	-0.2529	0.0201	0.2729	1291.3406	0.146043	-401.922124	-401.912627	-401.911683	-401.957174	34.343	
O	 0.4015390232	 0.2706357644	 1.2728745439	-0.328597
C	 0.2189909601	 1.1788551303	 0.4878321191	 0.16298
N	 1.1592025629	 1.6883735984	-0.3487751698	-0.276841
C	 2.5152728079	 1.1346413862	-0.4283340989	-0.18274
C	 2.9338753458	 1.0561727298	-1.8288872084	 0.308736
C	 3.2828709402	 1.0346134576	-2.9785045395	-0.424556
C	 3.5170556963	 1.9133684883	 0.4144273925	 0.026854
C	 3.5386873393	 1.6978456581	 1.9052285237	-0.281113
C	 4.6692920233	 1.1808154887	 1.0510386954	-0.262106
H	-0.7559456736	 1.6914471431	 0.3738386015	 0.083656
H	 0.9024011789	 2.4210790851	-0.9909593031	 0.253981
H	 2.4335725275	 0.1241296885	-0.0107177238	 0.141094
H	 3.5953306736	 0.9912964892	-3.9927325032	 0.201183
H	 3.7127353471	 2.9175812704	 0.0498712834	 0.085843
H	 3.7238343584	 2.5580537525	 2.5386859208	 0.11098
H	 2.8338867587	 0.9809541489	 2.3109637231	 0.146481
H	 4.737141378	 0.1094208469	 0.8930374304	 0.119502
H	 5.6291006121	 1.6824756537	 1.096288993	 0.114661
55.7991	74.3967	137.5978	143.1528	168.5904	266.0137	290.7873	331.4394	460.985	503.4416	520.4312	538.9224	631.5944	660.803	739.2464	787.1219	833.6836	882.0416	940.5691	943.9057	1023.8527	1036.4256	1050.6223	1064.2235	1087.7393	1132.7691	1171.8804	1193.3767	1201.1245	1226.3727	1298.5056	1333.7458	1415.2244	1425.0294	1473.6135	1501.2711	1515.6958	1793.2169	2239.368	2945.4089	3048.8859	3134.9756	3140.9713	3150.1134	3215.663	3232.9798	3502.3039	3639.4009
O=CNC(C#C)C1CC1	O=CN[C@@H](C#C)C1CC1	
InChI=1S/C7H9NO/c1-2-7(8-5-9)6-3-4-6/h1,5-7H,3-4H2,(H,8,9)	InChI=1S/C7H9NO/c1-2-7(8-5-9)6-3-4-6/h1,5-7H,3-4H2,(H,8,9)/t7-/m0/s1
