15
gdb 16635	3.13103	2.39014	1.57736	3.2703	59.71	-0.2443	0.0017	0.246	799.2582	0.120694	-399.81599	-399.809215	-399.808271	-399.846894	25.999	
N	 0.1762022963	 1.3898381666	 0.4084464375	-0.509774
C	-0.0616623046	 0.0011321221	 0.0331080997	-0.129158
C	-1.5092713073	-0.4009832844	-0.1270005684	-0.058672
C	-2.2773021346	 0.1493087367	-1.3199411156	-0.325767
C	-1.5756770931	-1.1708900351	-1.4156827874	 0.089397
O	-0.3096566197	-1.1423415892	-2.05667623	-0.214436
C	 0.5738700367	-0.4110680009	-1.3160937809	 0.402763
O	 1.6682020941	-0.1292207092	-1.7083712524	-0.337078
H	 1.1672929706	 1.5874864382	 0.2853468345	 0.244927
H	-0.313226647	 2.0028054934	-0.2387162105	 0.228848
H	 0.4033357251	-0.6337850519	 0.7993914483	 0.118353
H	-2.0674268204	-0.7154746944	 0.7450708846	 0.110669
H	-3.3587737834	 0.1455756356	-1.2453588014	 0.130234
H	-1.8664072132	 0.9738351119	-1.8945557678	 0.129454
H	-2.0903437097	-2.1118138195	-1.5564500802	 0.120241
106.7827	211.1901	252.6294	274.8507	410.8942	475.7619	508.4264	611.9812	684.6132	722.3888	795.5333	822.0462	836.2762	935.7885	954.8524	985.2954	1016.3705	1053.5482	1061.5806	1093.7214	1136.3375	1152.276	1165.946	1201.2123	1230.808	1304.1659	1346.6015	1386.737	1413.719	1477.7765	1657.9881	1880.491	3020.8519	3131.7911	3196.1103	3207.215	3224.4292	3475.7202	3553.68
NC1C2CC2OC1=O	N[C@H]1[C@H]2C[C@H]2OC1=O	
InChI=1S/C5H7NO2/c6-4-2-1-3(2)8-5(4)7/h2-4H,1,6H2	InChI=1S/C5H7NO2/c6-4-2-1-3(2)8-5(4)7/h2-4H,1,6H2/t2-,3+,4-/m0/s1
