20
gdb 126623	3.10928	1.08703	0.86767	3.2031	82.24	-0.2009	0.0426	0.2436	1386.1403	0.172468	-399.353948	-399.344547	-399.343602	-399.389019	34.266	
C	-0.0228840924	 1.5187261038	 0.0684230198	-0.381062
C	-0.0684019013	-0.0080489688	-0.0234058648	-0.175938
C	 0.7301728723	-0.5383669226	-1.2205064587	-0.144281
N	 0.7280571243	-1.985443756	-1.3107480341	 0.000689
N	 1.75681053	-2.6935278932	-0.7628585608	-0.283709
C	 1.4021944679	-3.9622331959	-0.9135569207	 0.004986
C	 0.1562340091	-4.09971446	-1.5595367761	-0.306386
C	-0.2480161666	-2.7973058859	-1.7964063568	 0.372021
N	-1.433351232	-2.2787531278	-2.3301771565	-0.605427
H	 1.0047147818	 1.8813386946	 0.1822885845	 0.11961
H	-0.4410230894	 1.986383926	-0.8304704952	 0.112184
H	-0.5988348051	 1.8784184748	 0.9258638319	 0.119406
H	 0.3428134679	-0.458252447	 0.8866842868	 0.120901
H	-1.1051314112	-0.3521970249	-0.1087902934	 0.11781
H	 0.337919189	-0.1172198102	-2.1550370913	 0.098289
H	 1.7793374979	-0.2416561778	-1.1468299886	 0.135375
H	 2.061340229	-4.7443787626	-0.5646113945	 0.103891
H	-0.3687392458	-5.0023779198	-1.8276134798	 0.088493
H	-1.9940040446	-3.0060425385	-2.7540542184	 0.254308
H	-1.2802682009	-1.5428540782	-3.0104110033	 0.248841
40.5942	90.8336	94.543	180.5017	235.6517	264.151	283.0631	306.7103	386.5399	457.719	656.1978	671.6918	678.4775	737.6723	750.9438	784.1453	788.3526	877.9818	881.3257	902.4684	940.8277	1042.4838	1052.9375	1066.8927	1113.2762	1123.7504	1219.7109	1248.3566	1269.482	1303.4947	1329.4948	1345.4056	1380.5713	1403.268	1414.9225	1455.1773	1479.1488	1494.0891	1500.8881	1509.9728	1553.7904	1593.6141	1657.1822	3023.8802	3029.964	3044.4551	3074.4997	3096.2174	3108.2018	3113.0511	3235.7043	3262.6828	3524.7653	3623.1329
CCCN1N=CC=C1N	CCCn1nccc1N	
InChI=1S/C6H11N3/c1-2-5-9-6(7)3-4-8-9/h3-4H,2,5,7H2,1H3	InChI=1S/C6H11N3/c1-2-5-9-6(7)3-4-8-9/h3-4H,2,5,7H2,1H3
