15
gdb 12650	3.328	1.97885	1.29727	5.7011	62.21	-0.2332	-0.0619	0.1713	906.8194	0.119496	-399.857415	-399.849844	-399.848899	-399.889609	27.359	
C	-0.2239399818	 1.5531467768	 0.0064440687	-0.403236
C	 0.1039395643	 0.0625628555	-0.0162125426	-0.10014
C	 0.9264099297	-0.4362095706	-1.2263459018	-0.187294
N	 1.7975558734	-1.4610258865	-0.663834016	-0.317052
C	 1.9142025415	-1.4770271718	 0.6966975695	 0.316164
O	 2.6397720833	-2.1682593304	 1.3713027959	-0.351051
C	 0.9118063823	-0.4077339584	 1.1904667157	 0.303232
O	 0.8138140222	-0.0264320381	 2.3238850097	-0.289351
H	 0.6871574231	 2.1563164522	-0.0605358165	 0.128164
H	-0.8778795016	 1.8289301385	-0.8259736645	 0.121125
H	-0.7246543924	 1.8075739842	 0.9437112487	 0.148602
H	-0.8304550842	-0.5154807687	 0.0231503697	 0.125598
H	 0.2952761395	-0.8514714594	-2.0181010372	 0.122913
H	 1.5100551142	 0.3857445683	-1.6627089208	 0.120769
H	 2.4041710966	-2.0306479818	-1.2334679386	 0.261558
63.484	151.3312	198.1516	229.7678	321.6513	327.2957	449.044	535.2901	561.0616	609.2586	669.7186	733.2809	799.5637	894.4083	943.6329	993.4035	1059.6877	1083.7778	1133.1179	1154.6278	1217.3661	1262.2698	1286.0532	1328.6831	1351.5477	1408.301	1448.4019	1495.033	1497.4657	1532.9382	1842.1484	1863.3073	3008.7285	3015.4025	3042.8481	3070.2025	3110.832	3129.0692	3630.5926
CC1CNC(=O)C1=O	C[C@H]1CNC(=O)C1=O	
InChI=1S/C5H7NO2/c1-3-2-6-5(8)4(3)7/h3H,2H2,1H3,(H,6,8)	InChI=1S/C5H7NO2/c1-3-2-6-5(8)4(3)7/h3H,2H2,1H3,(H,6,8)/t3-/m0/s1
