19
gdb 81545	4.262	1.22225	1.08042	3.3846	75.99	-0.236	0.0758	0.3117	1165.1212	0.158514	-422.935155	-422.927214	-422.926269	-422.967603	30.856	
C	-0.1030797761	 1.6139965746	 0.1697015824	-0.432794
C	-0.0234890003	 0.1037100867	 0.0464209926	 0.027281
C	 1.2133814263	-0.5213720367	-0.6608132628	-0.05895
O	 2.0537524603	-0.1242763191	 0.4938938267	-0.313711
C	 0.8181457985	-0.6851593541	 1.0905003551	-0.058953
C	 0.921180016	-1.8503613729	 0.0768703253	 0.547398
C	-0.1340206514	-2.9165294729	-0.260994633	-0.385447
C	 1.0392283885	-3.9001299591	-0.088298012	-0.086568
O	 1.9506457348	-2.8209166621	 0.2184301612	-0.31918
H	 0.8746181206	 2.0246097395	 0.4288088682	 0.141775
H	-0.434830197	 2.0638777488	-0.7720743415	 0.114895
H	-0.8220958995	 1.9034399958	 0.9434132801	 0.114894
H	-0.9881594189	-0.3463856755	-0.2133787686	 0.071958
H	 1.6136233969	-0.3468252742	-1.6608717736	 0.092483
H	 0.7469934415	-0.7059592142	 2.1792068074	 0.092483
H	-0.9446346563	-3.0173974656	 0.4628535081	 0.118116
H	-0.5545034413	-2.8555944758	-1.2663325003	 0.118115
H	 0.9521178735	-4.6064387739	 0.7449405356	 0.108103
H	 1.3435548438	-4.4440363993	-0.9895756806	 0.108102
83.8884	162.3361	209.8633	235.5539	252.7548	327.7808	427.1734	432.7655	559.2489	706.8553	738.343	777.7278	796.3469	801.6803	870.1376	882.6572	892.2442	967.6629	1020.2739	1023.7268	1029.8718	1071.9778	1102.2691	1104.8078	1131.5251	1154.3758	1166.0234	1166.752	1186.6547	1209.4104	1219.7551	1245.459	1263.5218	1337.9752	1354.6583	1393.653	1411.489	1483.7355	1495.1042	1505.9501	1531.7331	3027.5024	3036.7502	3049.0016	3069.3607	3077.4368	3094.4993	3106.4594	3112.9353	3131.6467	3138.0969
CC1C2OC1C21CCO1	C[C@H]1[C@H]2O[C@@H]1[C@]12CCO1	
InChI=1S/C7H10O2/c1-4-5-7(2-3-8-7)6(4)9-5/h4-6H,2-3H2,1H3	InChI=1S/C7H10O2/c1-4-5-7(2-3-8-7)6(4)9-5/h4-6H,2-3H2,1H3/t4-,5+,6-,7+
