19
gdb 95253	2.71207	1.59875	1.26901	2.5987	71.33	-0.2464	0.0716	0.318	1040.276	0.160211	-460.131652	-460.123794	-460.12285	-460.163668	31.293	
O	 0.064399755	 1.3922861542	-0.0434068018	-0.433834
C	 0.0129804589	-0.0212922753	 0.0187988596	 0.122436
C	 0.8299198434	-0.5225390546	 1.217015336	-0.101019
O	 0.326828102	-0.0023888434	 2.447060872	-0.256857
C	-0.7164582471	-0.7573202262	 2.9794259209	 0.079877
C	-1.8731404914	 0.009371378	 3.559462355	-0.347181
C	-2.0521573219	-0.7400201688	 2.2677447437	 0.079879
O	-2.1768175226	 0.0300180911	 1.113066284	-0.25686
C	-1.4469974932	-0.4930941156	 0.0038350888	-0.101025
H	-0.3626517981	 1.701045104	 0.7653736525	 0.288692
H	 0.4960884052	-0.3890374591	-0.8968302718	 0.08308
H	 0.867732078	-1.6214728218	 1.2437945323	 0.088014
H	 1.8506650921	-0.140376923	 1.1240983426	 0.117339
H	-0.4025244743	-1.6827940611	 3.4638539733	 0.089007
H	-2.3557910631	-0.3609582022	 4.4562960702	 0.119504
H	-1.8131475288	 1.0881267343	 3.4731068816	 0.134586
H	-2.6478869534	-1.6537121891	 2.2675027382	 0.089007
H	-1.9313136269	-0.0914858724	-0.8910119278	 0.117339
H	-1.5124456038	-1.5906917491	-0.0243738593	 0.088017
130.5009	158.6608	264.1377	283.0558	304.6707	354.9868	401.0427	401.2465	495.8388	499.4914	709.4077	759.9501	764.4742	791.2155	802.7793	870.9006	914.2373	953.901	995.6786	1033.2732	1054.4061	1077.207	1079.6585	1119.3944	1124.7161	1137.3802	1168.0844	1168.7093	1240.5143	1279.6105	1291.5839	1340.6884	1341.0006	1358.9046	1388.774	1405.7599	1413.94	1431.5676	1471.3959	1480.0521	1491.7074	2997.8104	3001.9396	3030.5528	3086.0754	3090.4646	3092.3072	3097.6424	3145.2805	3238.487	3789.2708
OC1COC2CC2OC1	O[C@H]1CO[C@H]2C[C@H]2OC1	
InChI=1S/C6H10O3/c7-4-2-8-5-1-6(5)9-3-4/h4-7H,1-3H2	InChI=1S/C6H10O3/c7-4-2-8-5-1-6(5)9-3-4/h4-7H,1-3H2/t4-,5-,6+
