18
gdb 14689	9.87057	0.59889	0.57374	0.884	83.09	-0.2462	0.0411	0.2873	1929.4683	0.150838	-310.613091	-310.603193	-310.602248	-310.650228	34.043	
C	 0.0039070848	 1.5789492076	 0.0828221168	-0.381769
C	 0.048853855	 0.0502254933	 0.0488372828	-0.153688
C	 0.6167913107	-0.4902726372	-1.2796538834	-0.334105
C	 0.6630327766	-1.9471959564	-1.3356381432	 0.034411
C	 0.6903604053	-3.1500085515	-1.3568346017	 0.123635
C	 0.7238261946	-4.6139701871	-1.3880887429	-0.491724
C	 1.5219192618	-5.1607245189	-2.4879376666	 0.320084
C	 2.1721136397	-5.6217644961	-3.3857452586	-0.447719
H	 1.0041482853	 2.0091567141	-0.0403346207	 0.116286
H	-0.6276867738	 1.9760001088	-0.719758174	 0.116162
H	-0.3990544109	 1.9413726515	 1.0332491879	 0.114869
H	 0.6611779613	-0.3281232127	 0.875005692	 0.108509
H	-0.956194467	-0.3604418073	 0.1968255996	 0.108152
H	 0.0115245835	-0.1096720834	-2.1135576934	 0.125695
H	 1.6263920035	-0.0855593427	-1.432658514	 0.12673
H	 1.1175914722	-4.9945072607	-0.4351930894	 0.157995
H	-0.3005262804	-5.0057439796	-1.4591067066	 0.157896
H	 2.7486923181	-6.0235213716	-4.1816170447	 0.19858
7.8208	63.4417	79.9986	130.1436	212.0539	233.2206	295.5296	320.3852	323.7095	382.3948	493.1894	546.0267	620.2189	646.1726	742.9079	796.0736	872.7426	892.9181	935.279	947.8833	1041.8166	1108.3173	1122.431	1159.8048	1230.0842	1259.1598	1307.5229	1322.3479	1334.9709	1382.7145	1412.2677	1454.6111	1473.7779	1491.4023	1497.7721	1508.3536	2246.5767	2375.9893	3005.2493	3010.5455	3028.3049	3029.6014	3037.3709	3041.182	3073.0625	3100.0514	3105.4767	3507.2606
CCCC#CCC#C	CCCC#CCC#C	
InChI=1S/C8H10/c1-3-5-7-8-6-4-2/h1H,4-6H2,2H3	InChI=1S/C8H10/c1-3-5-7-8-6-4-2/h1H,4-6H2,2H3
