23
gdb 41719	3.04313	1.64867	1.62732	0.0908	86.73	-0.2756	0.0791	0.3546	990.7654	0.212239	-351.195394	-351.188733	-351.187788	-351.22593	29.42	
C	-0.0155961467	 1.5984276599	-0.0291695948	-0.216908
C	 1.5029397789	 1.9601038452	-0.0139907809	-0.237025
C	 2.1920114713	 0.5967817421	-0.2183677286	 0.009333
C	 2.1754979587	-0.3017951011	 1.0484661035	 0.001847
C	 2.5342847407	-1.6788267147	 0.4625618726	-0.216906
C	 1.6704727653	-1.7238039774	-0.8369712275	-0.237025
C	 1.1508415392	-0.2785214337	-0.964965714	 0.009332
C	 0.0118173825	 0.0611043417	 0.0349667521	 0.001848
C	 0.6574928692	-0.3313269836	 1.3973240137	-0.221876
H	-0.5706132692	 2.0405091388	 0.8038836737	 0.089001
H	-0.4882165292	 1.9414311668	-0.9559591697	 0.08894
H	 1.7568425369	 2.6568824147	-0.8181324316	 0.093565
H	 1.8102003745	 2.434655682	 0.9237495217	 0.093954
H	 3.1804768983	 0.6569956879	-0.6816192234	 0.050423
H	 2.8201298527	 0.0204234279	 1.8697023895	 0.049601
H	 3.6016765187	-1.7341148788	 0.222601541	 0.08894
H	 2.3119459761	-2.4969386698	 1.1544540775	 0.089001
H	 2.2699022236	-2.0078292667	-1.7068127481	 0.093565
H	 0.8505278993	-2.4463257647	-0.7690047901	 0.093954
H	 0.9204668501	 0.0279607284	-1.9888243328	 0.050423
H	-0.9517715921	-0.4154044534	-0.1605801433	 0.049602
H	 0.3498470841	-1.3230114433	 1.7433501018	 0.088206
H	 0.3881611972	 0.3812657118	 2.1831292675	 0.088206
206.9601	223.0626	318.7709	340.427	430.091	494.7442	621.9726	707.3427	728.4565	774.9885	795.3371	815.1608	857.6751	865.463	899.0878	906.8892	924.9141	944.6613	952.1183	969.1889	985.5838	996.67	1038.0422	1041.7911	1075.2406	1089.7041	1111.1949	1144.4491	1150.5668	1186.2538	1187.107	1226.3715	1249.6204	1261.1257	1280.2853	1284.7869	1299.2136	1304.9539	1315.5561	1315.9074	1326.9731	1346.2576	1349.4535	1379.9987	1488.8112	1488.835	1496.687	1508.6322	1518.0432	3036.0855	3036.7119	3041.882	3046.1545	3046.6811	3067.3763	3070.9303	3075.9857	3076.1179	3076.2997	3085.2825	3089.3812	3093.3954	3094.3586
C1CC2C3CCC2C1C3	C1C[C@H]2[C@@H]3CC[C@H]2[C@H]1C3	
InChI=1S/C9H14/c1-3-8-7-2-4-9(8)6(1)5-7/h6-9H,1-5H2	InChI=1S/C9H14/c1-3-8-7-2-4-9(8)6(1)5-7/h6-9H,1-5H2/t6-,7-,8+,9+/m1/s1
