19
gdb 80720	3.59358	1.01723	0.93245	4.6497	80.37	-0.2249	0.0242	0.2491	1302.5893	0.159272	-382.029897	-382.021188	-382.020244	-382.063823	32.395	
C	 0.1792601313	 1.6458705483	-0.529992268	-0.428854
C	 0.2994513606	 0.154768282	-0.293324819	-0.000385
C	 1.561564281	-0.6613924904	-0.4373334806	-0.108037
C	 2.7630405727	 0.0465524793	 0.2015936606	-0.19286
N	 2.0605515054	 0.0315905854	 1.5121390732	-0.072679
C	 1.9695749623	 1.215789598	 2.3461869569	-0.295563
C	 3.2548782915	 1.496267047	 3.0013205207	 0.275285
N	 4.2705267789	 1.7333719569	 3.4977563567	-0.304705
C	 0.8635255043	-0.5534856408	 0.9180520639	-0.044966
H	 1.0996492104	 2.1867064196	-0.2986203822	 0.121974
H	-0.051046733	 1.8437173151	-1.5825872667	 0.123463
H	-0.625415897	 2.0812447065	 0.0723678781	 0.12101
H	-0.5579397224	-0.4018610579	-0.671773968	 0.093567
H	 1.6368970979	-1.5232912135	-1.0862428608	 0.099389
H	 3.6780615411	-0.5520100246	 0.2277827006	 0.123781
H	 3.0078643582	 1.0421499867	-0.1916744348	 0.104837
H	 1.656841393	 2.1345175145	 1.8221879609	 0.131949
H	 1.2209223231	 1.0272715925	 3.1247100694	 0.154878
H	 0.2983452307	-1.2958950044	 1.473337179	 0.097914
47.1227	103.2236	164.2533	223.1444	238.948	281.3001	348.7255	383.6473	448.9599	489.1361	618.7344	714.3292	720.473	802.1202	850.6416	869.3663	933.5955	958.3243	977.8311	998.8404	1015.7054	1049.8607	1076.5009	1095.4412	1124.6255	1146.821	1155.6844	1209.8171	1233.6177	1264.8459	1275.3722	1314.2127	1349.7087	1382.0179	1415.0733	1438.7856	1468.2884	1495.2804	1501.4456	1518.748	2364.8893	2965.5713	3015.5473	3035.7812	3061.0416	3079.2007	3091.1263	3107.4732	3126.8315	3153.5591	3206.5818
CC1C2CN(CC#N)C12	C[C@H]1[C@H]2CN(CC#N)[C@@H]12	
InChI=1S/C7H10N2/c1-5-6-4-9(3-2-8)7(5)6/h5-7H,3-4H2,1H3	InChI=1S/C7H10N2/c1-5-6-4-9(3-2-8)7(5)6/h5-7H,3-4H2,1H3/t5-,6+,7-/m0/s1
