16
gdb 52198	3.63814	0.72829	0.6443	3.1239	71.22	-0.2614	-0.033	0.2284	1642.1807	0.121832	-437.879463	-437.870241	-437.869296	-437.915398	31.301	
O	-0.3087572813	 0.424488539	 0.7195875581	-0.229459
C	 0.1177955172	 0.9528610678	-0.2731938852	 0.154485
C	 1.3976293901	 1.7578104144	-0.3402130803	-0.271483
C	 1.1497049319	 3.1748421332	-0.8927611885	-0.256076
C	 2.4435613329	 3.9311455076	-1.0589600604	 0.075108
O	 3.3068318301	 3.5144277765	-2.1171521076	-0.229715
C	 2.7280959449	 4.8176763679	-2.2103692984	-0.105056
C	 1.7508999172	 5.0209861385	-3.2584681151	 0.305469
N	 0.9699244047	 5.2060689292	-4.0901348277	-0.322795
H	-0.4276551502	 0.8800284384	-1.2432308869	 0.081554
H	 1.8474106075	 1.7817542795	 0.6565499911	 0.12572
H	 2.0867718587	 1.2380369719	-1.020097461	 0.142584
H	 0.634308489	 3.1166524268	-1.8571307464	 0.137996
H	 0.5006579005	 3.7366885904	-0.2104153165	 0.129944
H	 2.9723398924	 4.1732592751	-0.1353936296	 0.11672
H	 3.4248817144	 5.6442142937	-2.0842849755	 0.145003
49.1363	57.6768	75.987	119.9763	173.1704	236.3397	305.5713	364.2309	465.0056	512.9736	580.0768	619.2889	760.2778	809.4988	821.5548	872.1047	968.4881	998.9393	1015.1384	1069.3015	1086.2129	1148.7211	1151.1721	1214.1844	1266.076	1282.6611	1311.7364	1358.7422	1387.2984	1429.0373	1459.2482	1464.5599	1484.0551	1839.434	2361.321	2861.5256	3024.9521	3042.0835	3082.9778	3100.4403	3110.1963	3136.7787
O=CCCC1OC1C#N	O=CCC[C@H]1O[C@H]1C#N	
InChI=1S/C6H7NO2/c7-4-6-5(9-6)2-1-3-8/h3,5-6H,1-2H2	InChI=1S/C6H7NO2/c7-4-6-5(9-6)2-1-3-8/h3,5-6H,1-2H2/t5-,6+/m1/s1
