20
gdb 86803	3.78892	0.82968	0.77579	1.735	76.39	-0.2321	-0.0153	0.2168	1508.8103	0.168494	-440.269421	-440.259586	-440.258641	-440.305436	35.178	
C	 0.3328700797	 0.1931723972	 0.9541305758	-0.464207
C	-0.1884448228	 0.3583696431	-0.4593848508	 0.373393
O	 0.2294943163	 1.2069145792	-1.2115457837	-0.291622
C	-1.3189571659	-0.5786703008	-0.8995199373	-0.255366
N	-1.2278603323	-1.9097632871	-0.3449447462	-0.096325
C	-0.2692131344	-2.8741378157	-0.9338698955	-0.208978
C	-1.3002889541	-3.9998840303	-0.6579602746	 0.147534
O	-1.0989724683	-4.724865513	 0.5300517216	-0.434465
C	-2.344532159	-2.8551703984	-0.5697030632	-0.202913
H	 0.9902652787	 1.0281674995	 1.1994338796	 0.137452
H	-0.4931015409	 0.1288018117	 1.6693566908	 0.136169
H	 0.887807209	-0.747039606	 1.0395234364	 0.145472
H	-2.2513527676	-0.1216763194	-0.5360878717	 0.126338
H	-1.3577325746	-0.5592716449	-2.0029480662	 0.103608
H	-0.0979663812	-2.7135506045	-2.0105141835	 0.096862
H	 0.6968907476	-2.9526566262	-0.4230465531	 0.104663
H	-1.4452798879	-4.7374691168	-1.4473169479	 0.097633
H	-0.9739042117	-4.0874244303	 1.2424951562	 0.287283
H	-3.0797535081	-2.9123723658	 0.240501818	 0.105144
H	-2.8678056826	-2.6941694614	-1.5258144647	 0.092323
43.0057	67.0674	83.9667	112.8895	157.2213	291.1237	309.6593	379.0605	396.4431	433.1732	442.4618	484.0883	540.1794	736.6273	790.7626	843.7317	857.9344	873.0579	935.6182	996.7239	1004.1685	1019.4569	1033.1463	1112.143	1125.8655	1138.3793	1174.1109	1221.3964	1231.5279	1240.2883	1265.9538	1291.5148	1318.2296	1328.9668	1364.341	1381.7754	1440.6206	1452.1581	1460.6483	1470.9817	1493.4124	1519.9433	1817.3014	2953.9346	2972.0201	2981.5408	3024.2045	3045.4235	3060.6719	3063.403	3107.2801	3118.5816	3153.6854	3798.4182
CC(=O)CN1CC(O)C1	CC(=O)CN1CC(O)C1	
InChI=1S/C6H11NO2/c1-5(8)2-7-3-6(9)4-7/h6,9H,2-4H2,1H3	InChI=1S/C6H11NO2/c1-5(8)2-7-3-6(9)4-7/h6,9H,2-4H2,1H3
