17
gdb 36101	3.71711	1.1541	1.04916	2.9962	77.6	-0.2031	0.0423	0.2454	1170.2399	0.134715	-380.717046	-380.709067	-380.708122	-380.749883	31.277	
C	-0.0955431379	-1.1774885642	 0.3189463911	-0.444724
C	-0.0712978822	 0.006031766	 0.1143533586	 0.314617
C	-0.018841656	 1.4437783097	-0.1449504053	-0.492563
C	 1.3825727264	 1.993641259	-0.1643732129	 0.369186
N	 2.1678278622	 2.2956177899	 1.0488237804	-0.339563
C	 1.8912396156	 3.3660914978	 0.0523545748	-0.143442
C	 2.8751029717	 3.1979682441	-1.1506592518	-0.057847
N	 3.7638071014	 2.0426400492	-0.8819456185	-0.304361
C	 2.3814288238	 1.8195522187	-1.3640820597	-0.107229
H	-0.1162904442	-2.2222683026	 0.5070292622	 0.199243
H	-0.5038371547	 1.6560512342	-1.1080540006	 0.136042
H	-0.6050397171	 1.9809198322	 0.6130196379	 0.12892
H	 1.4960481376	 2.4280414509	 1.8065990992	 0.225571
H	 1.3662836278	 4.2737691814	 0.321653118	 0.094916
H	 3.1335298505	 3.9693935525	-1.8638220102	 0.09546
H	 4.3679100273	 1.9512212266	-1.6999938135	 0.228789
H	 2.1694539979	 1.2782763546	-2.2770573396	 0.096984
57.0091	98.3546	239.2249	276.0504	344.8889	411.3046	426.6358	438.265	617.8494	625.6968	645.433	686.7187	744.4692	797.3445	810.661	825.5876	860.2413	903.8923	914.7262	927.5601	961.2183	974.8064	1016.1487	1028.2349	1074.6914	1104.5719	1139.5558	1187.1959	1228.9375	1252.7012	1286.6677	1328.3525	1342.4361	1363.2909	1435.199	1456.6311	2241.3425	3005.4697	3037.7267	3191.086	3196.7297	3207.8693	3454.0781	3459.4846	3506.7232
C#CCC12NC1C1NC21	C#CC[C@]12N[C@H]1[C@H]1N[C@@H]21	
InChI=1S/C7H8N2/c1-2-3-7-5-4(8-5)6(7)9-7/h1,4-6,8-9H,3H2	InChI=1S/C7H8N2/c1-2-3-7-5-4(8-5)6(7)9-7/h1,4-6,8-9H,3H2/t4-,5+,6-,7+/m0/s1
