20
gdb 8578	3.81158	1.87462	1.6357	1.2951	74.21	-0.2335	0.0846	0.3181	888.1094	0.179385	-349.000023	-348.993027	-348.992083	-349.030803	28.644	
C	 0.1747091219	 1.5525965918	 0.0664885008	-0.403164
C	 0.0419487596	 0.0396723118	-0.0154120054	 0.166004
C	 0.6681682534	-0.5654111723	-1.2954051245	-0.23309
C	 1.1292164869	-2.0075038469	-1.0278385045	-0.021156
C	 0.1965580461	-2.6582524922	 0.0384904335	-0.255271
C	 1.0357322227	-1.8543703016	 1.071852273	 0.140041
C	 2.2221689267	-1.9652247265	 0.078699637	-0.225865
O	 0.6165601588	-0.501527885	 1.181444042	-0.292773
H	 1.2299955604	 1.8428239082	 0.0723900364	 0.119052
H	-0.3131206965	 2.0271312227	-0.7911071665	 0.110521
H	-0.290029263	 1.9285891574	 0.9821721654	 0.122739
H	-1.0290967725	-0.2144776504	-0.0165785287	 0.070725
H	-0.0789260933	-0.5305216946	-2.0970879278	 0.095066
H	 1.5243615536	 0.0352186589	-1.6281700887	 0.096124
H	 1.3375074478	-2.5530521492	-1.9510194361	 0.060321
H	-0.8814029132	-2.4874092015	-0.0122139911	 0.097222
H	 0.3863980323	-3.7295122951	 0.1401887163	 0.098514
H	 1.1447017306	-2.2292495055	 2.0916651037	 0.07069
H	 2.7515018066	-2.9171960318	 0.1758262985	 0.092904
H	 2.9359138712	-1.137118178	 0.0715320366	 0.091397
118.806	234.4532	288.9035	325.0996	409.7393	433.4894	463.4124	494.9587	572.1875	776.7577	804.5853	823.2579	864.4758	887.4487	907.3924	923.9759	937.8453	981.3844	993.8004	1038.3728	1057.6479	1087.2639	1113.0376	1139.8549	1157.8853	1160.8485	1200.054	1232.6662	1245.8387	1260.679	1296.8477	1320.6875	1344.3184	1373.7369	1387.8657	1395.6254	1408.0581	1471.1049	1481.6849	1489.0626	1498.5106	1506.3943	2968.7288	3019.6404	3037.8653	3051.7188	3062.2133	3062.9099	3078.7787	3089.4449	3110.7919	3113.3136	3117.596	3118.112
CC1CC2CC(C2)O1	C[C@H]1C[C@@H]2C[C@@H](C2)O1	
InChI=1S/C7H12O/c1-5-2-6-3-7(4-6)8-5/h5-7H,2-4H2,1H3	InChI=1S/C7H12O/c1-5-2-6-3-7(4-6)8-5/h5-7H,2-4H2,1H3/t5-,6-,7+/m0/s1
