20
gdb 75827	2.49918	1.62303	1.20385	2.8982	79.48	-0.2456	0.0257	0.2713	1103.527	0.170936	-403.165494	-403.156822	-403.155878	-403.198457	33.621	
C	-0.5414629849	 1.2739572264	-0.0243510891	-0.394711
C	 0.0312222505	-0.1447724938	-0.0007023821	-0.159075
C	 1.0164492791	-0.4066116656	-1.1353405084	 0.398312
N	 0.8601077734	-0.0363723059	-2.3312918013	-0.536902
O	 2.1002657847	-1.111017567	-0.6778254597	-0.239652
C	 2.0604411776	-1.1917900333	 0.7358790725	 0.042009
C	 2.1428153723	 0.1179844163	 1.4683530039	-0.366246
C	 0.7983793838	-0.5634871488	 1.2509831944	 0.319504
C	 0.0282617626	-1.1066960977	 2.4298869006	-0.48575
H	 0.2392559394	 2.0172434514	 0.1627976706	 0.118232
H	-0.9753517777	 1.4804220802	-1.0052123243	 0.147297
H	-1.3172259061	 1.3937837905	 0.738023629	 0.111556
H	-0.7983301476	-0.853192583	-0.135479979	 0.103605
H	 1.6526627714	-0.3259005608	-2.9066226584	 0.222939
H	 2.4995906382	-2.1080412436	 1.1108605919	 0.10845
H	 2.5412893606	 0.1080566313	 2.4774665685	 0.117701
H	 2.4005695875	 0.999087805	 0.8890331224	 0.126179
H	-0.5972027555	-0.3308825766	 2.8859747997	 0.126672
H	-0.6286114091	-1.9304094713	 2.1276311262	 0.121782
H	 0.70164542	-1.4824206736	 3.2066312825	 0.118098
81.7161	191.5416	202.4701	207.6349	233.6593	271.9641	303.2166	441.3137	463.2118	478.6901	552.7824	636.4485	696.4681	720.1558	804.4127	858.9967	881.9346	894.8276	917.5179	963.3434	1023.5622	1028.9198	1045.2168	1047.3145	1089.5561	1102.569	1116.7194	1138.2094	1159.2193	1231.8184	1258.74	1305.3295	1344.5936	1350.3971	1406.0627	1408.9965	1421.4226	1482.5914	1488.1617	1493.9297	1496.2259	1502.3616	1773.406	3009.9838	3024.7886	3043.042	3086.0003	3099.3507	3110.8193	3126.8275	3132.7472	3189.6611	3215.9512	3475.2663
CC1C(=N)OC2CC12C	C[C@H]1[C]([NH])O[C@H]2C[C@@]12C	
InChI=1S/C7H11NO/c1-4-6(8)9-5-3-7(4,5)2/h4-5,8H,3H2,1-2H3	InChI=1S/C7H11NO/c1-4-6(8)9-5-3-7(4,5)2/h4-5,8H,3H2,1-2H3/t4-,5-,7-/m0/s1
