18
gdb 112375	2.64622	1.25912	0.91275	2.5154	73.67	-0.2454	-0.0369	0.2086	1273.5688	0.146939	-439.154178	-439.145194	-439.14425	-439.18901	32.15	
C	-0.1997180522	 1.5550516761	-0.0773460451	-0.38284
C	 0.1347269191	 0.0620174337	-0.0193657023	-0.155493
N	 0.766032411	-0.4366713359	-1.230330735	-0.090475
C	 0.0438541131	-0.6188858711	-2.4716239837	-0.282559
C	 1.0894646937	-1.2022156581	-3.4314897296	 0.395949
O	 0.8745366293	-1.5037010919	-4.5740968009	-0.293499
C	 2.3993712809	-1.3161710164	-2.6711923513	-0.467397
C	 2.0881399049	-0.8131911518	-1.2642642642	 0.415448
O	 2.8583203088	-0.7532602947	-0.329533027	-0.387146
H	 0.7072240267	 2.1483608358	-0.2243695264	 0.135611
H	-0.8974768714	 1.7857150003	-0.8888444868	 0.119158
H	-0.6670536826	 1.8701401679	 0.8604444356	 0.125824
H	 0.8390223437	-0.1387820544	 0.7909432836	 0.149979
H	-0.7754726752	-0.5227125674	 0.1691378306	 0.105856
H	-0.802297326	-1.3134727432	-2.36882031	 0.137904
H	-0.3530815367	 0.3193153888	-2.8823957344	 0.140939
H	 2.7623776449	-2.3482808754	-2.6486930048	 0.166466
H	 3.1845098481	-0.714186902	-3.1394606081	 0.166276
54.1615	58.4816	110.8185	165.0909	205.5254	312.6611	350.3146	412.8098	464.9068	544.8202	553.2738	578.1006	647.4624	776.1409	803.5646	817.2016	828.5166	942.8463	1023.1437	1039.1301	1093.5607	1121.1838	1140.5834	1196.6133	1207.3106	1236.3796	1263.924	1270.9209	1346.4533	1397.1243	1411.8387	1414.4811	1435.1814	1481.4465	1493.4508	1499.7717	1508.3782	1805.8691	1868.1675	3003.7353	3019.4198	3034.2574	3040.804	3067.3476	3101.0303	3106.9456	3118.245	3125.2355
CCN1CC(=O)CC1=O	CCN1CC(=O)CC1=O	
InChI=1S/C6H9NO2/c1-2-7-4-5(8)3-6(7)9/h2-4H2,1H3	InChI=1S/C6H9NO2/c1-2-7-4-5(8)3-6(7)9/h2-4H2,1H3
