21
gdb 78882	2.50144	2.0744	1.43771	0.0573	83.99	-0.2142	0.0873	0.3015	990.7213	0.183544	-349.920995	-349.913313	-349.912368	-349.952471	31.953	
C	 0.1256100046	 1.5924489717	-0.0206695116	-0.399803
C	 0.0266652682	 0.0652451226	 0.0082373044	-0.051212
C	 0.8112588025	-0.6191231351	-1.096981916	-0.075337
C	 2.2416880868	-0.8796812403	-0.656417238	-0.089307
C	 1.2359876928	-2.0131823556	-0.6848071021	-0.104505
C	 1.1629868065	-1.9879803934	 0.8615752449	-0.138574
C	 2.1708302778	-0.8530793516	 0.8906403721	-0.124646
C	 0.7076525841	-0.5823532682	 1.2125805584	 0.336746
C	 0.2868277136	-0.2597328324	 2.6234825116	-0.502454
H	 1.1715908447	 1.9137639956	 0.0271374566	 0.11759
H	-0.3090536528	 1.9981899593	-0.9402436513	 0.108017
H	-0.406924655	 2.0454874552	 0.8222062468	 0.110065
H	-1.0300795032	-0.2343744317	-0.0299171575	 0.065533
H	 0.6110169442	-0.4135135951	-2.1426010275	 0.077947
H	 3.1162512976	-0.7152015236	-1.2706137226	 0.081143
H	 1.191715418	-2.8842379478	-1.3240656388	 0.08212
H	 1.0633917806	-2.8386624329	 1.5227234261	 0.078544
H	 2.98792997	-0.6739062662	 1.5766818294	 0.077739
H	 0.4109550108	 0.8056627731	 2.8472948945	 0.118825
H	-0.7656929478	-0.5157912481	 2.7923448961	 0.115905
H	 0.8833156558	-0.8195031856	 3.3512944743	 0.115664
166.7471	206.7021	218.5563	243.7624	277.1765	332.0302	522.2569	562.5038	585.8557	697.8571	712.6661	745.0817	755.9231	808.0213	848.2512	853.9893	878.8674	921.9616	938.7897	944.8517	952.8288	977.8021	1020.9279	1031.9861	1037.0156	1053.3763	1076.0356	1107.2492	1121.9542	1139.249	1157.0635	1208.0901	1235.4673	1267.3027	1280.6855	1314.466	1350.5803	1374.6534	1402.7519	1407.5356	1418.8163	1489.3752	1494.9749	1499.3391	1504.6379	3009.4167	3023.589	3030.058	3083.1001	3093.4654	3096.0057	3101.3798	3178.1301	3189.5269	3201.078	3201.5937	3213.1656
CC1C2C3C2C2C3C12C	C[C@H]1[C@H]2[C@@H]3[C@H]2[C@H]2[C@@H]3[C@@]12C	
InChI=1S/C9H12/c1-3-4-5-6(4)8-7(5)9(3,8)2/h3-8H,1-2H3	InChI=1S/C9H12/c1-3-4-5-6(4)8-7(5)9(3,8)2/h3-8H,1-2H3/t3-,4-,5+,6-,7+,8-,9+/m0/s1
