14
gdb 123994	4.70896	1.16591	1.00186	5.9311	70.55	-0.2525	-0.085	0.1675	1125.0243	0.101589	-428.96094	-428.953762	-428.952818	-428.993273	26.071	
C	 1.0742499598	 0.9371202221	-0.0582769963	-0.22848
N	 0.1594747473	 0.1462641669	-0.8762576397	-0.310761
C	-0.3137149799	 0.645946019	 0.4246747596	-0.106429
C	-0.5651660027	-0.3730282196	 1.4670552373	 0.396172
C	-0.11143592	-1.6930325432	 1.3874043521	-0.021061
N	-0.3381181234	-2.539806893	 2.3759207495	-0.164847
N	-1.0169637822	-2.1049532979	 3.4417936189	-0.057556
N	-1.4807864127	-0.8807039747	 3.5036134698	-0.061925
N	-1.2701671815	 0.0025931677	 2.5300637651	-0.251809
H	 1.9114990081	 0.3857424561	 0.3604179188	 0.137017
H	 1.2946555788	 1.9633026933	-0.3387075399	 0.137303
H	-0.2346291369	 0.7007904141	-1.6305730807	 0.251622
H	-1.0033149513	 1.4842673813	 0.4623549982	 0.118861
H	 0.4203623767	-2.0641569022	 0.5173372571	 0.161892
71.2608	115.1494	190.3315	261.5343	324.0908	409.6747	566.9328	592.9889	680.2199	812.5936	832.6208	860.4383	872.494	905.2857	949.6284	977.0039	992.3042	1070.1992	1089.1617	1093.2502	1124.6539	1168.84	1191.7084	1225.4093	1284.7894	1320.2077	1350.4897	1438.5397	1510.8324	1527.6368	1588.1896	3113.5669	3160.045	3193.7321	3203.8099	3522.8658
C1NC1C1=CN=NN=N1	C1N[C@H]1c1cnnnn1	
InChI=1S/C4H5N5/c1-3(5-1)4-2-6-8-9-7-4/h2-3,5H,1H2	InChI=1S/C4H5N5/c1-3(5-1)4-2-6-8-9-7-4/h2-3,5H,1H2/t3-/m1/s1
