21
gdb 81784	2.12098	1.80857	1.21499	1.7267	82.51	-0.2421	0.0749	0.317	1111.5723	0.181738	-387.050665	-387.04175	-387.040806	-387.083613	35.117	
C	 0.011737098	 1.5621867213	 0.0916804422	-0.500989
C	 0.0586356394	 0.0639612326	 0.0095651527	 0.290965
C	-0.8778555497	-0.8493830087	 0.7496070522	-0.347522
C	 0.6048271658	-0.9620704772	 1.0196250075	-0.144866
C	 1.3202058301	-1.7169726489	-0.1040205456	 0.061827
O	 1.1275966463	-3.1039796169	-0.2557692202	-0.434271
C	 0.6850421295	-0.7392158022	-1.1222596439	 0.287226
C	 0.0936646757	-1.1089311847	-2.4513195832	-0.330421
C	 1.3287980184	-0.2369353829	-2.3751668411	-0.352096
H	 0.9910579857	 2.0043741703	-0.1217846285	 0.121395
H	-0.7049705594	 1.9803238133	-0.6259716523	 0.119189
H	-0.2964498676	 1.8913070487	 1.0893543461	 0.11864
H	-1.4478935012	-0.3943880101	 1.5542051561	 0.110415
H	-1.4220062486	-1.6283691316	 0.2179966259	 0.095344
H	 1.0078514663	-0.7890652648	 2.0108709206	 0.084509
H	 2.4042721269	-1.5794432635	-0.0500417969	 0.091654
H	 0.1813216124	-3.2761971508	-0.2004735156	 0.279395
H	 0.2197107107	-2.1372362514	-2.7759234385	 0.117141
H	-0.8413972833	-0.6477507332	-2.7537874129	 0.108347
H	 1.2199106821	 0.8145561618	-2.6232704036	 0.109951
H	 2.2822049528	-0.6660876412	-2.6687339512	 0.114168
110.5737	186.1221	198.806	213.8039	224.3106	242.0373	303.3973	354.6812	447.9585	485.507	567.0926	586.067	654.0809	737.0336	785.2622	814.0896	891.7041	906.792	925.4708	951.1826	971.6508	985.7545	998.0424	1031.5524	1047.5524	1071.0894	1076.5661	1082.379	1102.7761	1116.2915	1188.9993	1192.5306	1236.6142	1275.2551	1276.7691	1281.7166	1377.4966	1397.2144	1421.3092	1435.3425	1460.8639	1483.9158	1495.7664	1499.9598	1506.7091	3020.5484	3069.1059	3078.7004	3094.0916	3097.8507	3117.7601	3121.5115	3174.0294	3187.9521	3195.7841	3211.5461	3804.9435
CC12CC1C(O)C21CC1	C[C@]12C[C@H]1[C@@H](O)C12CC1	
InChI=1S/C8H12O/c1-7-4-5(7)6(9)8(7)2-3-8/h5-6,9H,2-4H2,1H3	InChI=1S/C8H12O/c1-7-4-5(7)6(9)8(7)2-3-8/h5-6,9H,2-4H2,1H3/t5-,6+,7-/m0/s1
