18
gdb 22914	3.32155	1.11618	0.93249	2.1691	71.29	-0.2529	-0.0088	0.244	1246.9759	0.147086	-476.189784	-476.180802	-476.179858	-476.223436	34.016	
O	-0.0974001786	 1.2888528534	 0.2376998578	-0.388229
N	 0.0115007346	-0.1093897159	 0.2105974269	-0.235209
C	-1.1155915285	-0.657733849	-0.0102965371	 0.390835
C	-2.473254087	-0.0154480882	-0.2017609232	-0.31227
C	-3.399515483	-1.1978644537	-0.5478104211	-0.249901
C	-2.7216686048	-2.421281268	 0.11300948	 0.148184
O	-3.1505483293	-3.6732225113	-0.3571314005	-0.447536
C	-1.2174868986	-2.162464638	-0.118094441	-0.005873
O	-0.9588885281	-2.5998046662	-1.4567897906	-0.449877
H	 0.8070821872	 1.563339359	 0.4238889949	 0.308156
H	-2.7659883904	 0.481647596	 0.7315863945	 0.130422
H	-2.4445421954	 0.7674588011	-0.9646189106	 0.132825
H	-4.4273635871	-1.0605066535	-0.206341732	 0.104601
H	-3.4233407106	-1.3598969549	-1.6299711472	 0.112225
H	-2.9134786883	-2.405418115	 1.1928993551	 0.090994
H	-2.6921588444	-3.8138170508	-1.1956784752	 0.292481
H	-0.5669734717	-2.6856868873	 0.5910462689	 0.08331
H	-0.067343546	-2.3216454777	-1.6895362994	 0.294861
60.9393	161.7428	173.9211	216.0172	259.6273	291.3611	354.0662	372.4505	430.766	440.8237	457.5651	540.1552	574.6924	653.3399	711.6727	822.3612	845.505	861.5628	952.6579	984.6366	994.5964	1053.9923	1081.8736	1126.406	1144.1093	1183.2492	1215.6301	1243.3616	1272.3469	1303.3824	1307.7279	1336.9376	1361.2482	1397.9997	1406.6501	1446.7385	1464.9905	1490.6394	1749.6787	3036.5952	3038.5433	3053.6051	3061.583	3090.1661	3118.0726	3774.9582	3815.3454	3826.9464
ON=C1CCC(O)C1O	ON=C1CC[C@@H](O)[C@H]1O	
InChI=1S/C5H9NO3/c7-4-2-1-3(6-9)5(4)8/h4-5,7-9H,1-2H2	InChI=1S/C5H9NO3/c7-4-2-1-3(6-9)5(4)8/h4-5,7-9H,1-2H2/t4-,5+/m1/s1
