18
gdb 56837	3.12802	1.1916	1.0136	4.3166	76.92	-0.2431	0.0223	0.2654	1203.4026	0.149657	-398.042611	-398.03444	-398.033496	-398.076114	30.779	
N	 0.4400015291	 1.2276579061	-0.3905918305	-0.496557
C	-0.0884131947	-0.1101913991	-0.1007526381	-0.210866
C	 0.0969675947	-1.0657553319	-1.2161897114	 0.277641
N	 0.2717861074	-1.7583817086	-2.125293161	-0.324764
C	 0.6007495919	-0.6374163969	 1.1606609845	 0.123265
C	 0.2270841154	-0.1557468556	 2.5817896054	-0.078338
C	-1.021477469	-1.0508697135	 2.4336397512	-0.181045
N	 0.0776250497	-1.9364549334	 1.8073823393	-0.152179
C	 0.9130690241	-1.4703879917	 3.0190499592	-0.170834
H	 1.4235489275	 1.1612629101	-0.6400607368	 0.2428
H	-0.0317755384	 1.6165678185	-1.2018209424	 0.247475
H	-1.1646477586	-0.0048294797	 0.0581364953	 0.130374
H	 1.6757188007	-0.7059639938	 0.9544975735	 0.082191
H	 0.3166265738	 0.8481087608	 3.0071762339	 0.080079
H	-1.4461686655	-1.481251748	 3.3437512491	 0.109156
H	-1.8192144044	-0.7619925611	 1.7483139906	 0.105859
H	 1.9915291456	-1.5694412595	 2.8697528625	 0.107523
H	 0.5946500807	-1.9263329627	 3.9591266757	 0.10822
40.0465	113.8892	203.3767	217.3101	262.5839	334.0823	393.7596	469.9039	588.5982	606.7311	625.8359	762.6318	785.1693	857.223	861.0074	902.7828	911.779	933.6949	962.843	1023.1806	1031.588	1078.0347	1084.9745	1121.8091	1151.4659	1162.7927	1178.1803	1195.1803	1209.935	1224.6047	1248.7801	1283.8116	1313.8574	1390.7684	1437.4743	1520.7856	1560.0339	1664.7835	2346.6772	3032.9518	3054.2786	3062.7291	3075.4719	3085.0568	3126.8191	3132.352	3490.6373	3569.4746
NC(C#N)C1C2CN1C2	N[C@@H](C#N)[C@H]1[C@H]2CN1C2	
InChI=1S/C6H9N3/c7-1-5(8)6-4-2-9(6)3-4/h4-6H,2-3,8H2	InChI=1S/C6H9N3/c7-1-5(8)6-4-2-9(6)3-4/h4-6H,2-3,8H2/t5-,6+/m0/s1
