22
gdb 13816	3.96756	1.13627	1.02683	1.4136	78.86	-0.2574	0.0764	0.3338	1268.5457	0.198991	-350.197849	-350.1882	-350.187255	-350.232347	35.803	
C	 0.28005257	 1.5752214663	 0.1128865276	-0.372644
C	-0.1885659829	 0.1341077447	-0.1198171659	-0.205913
C	 0.5099333835	-0.5173755682	-1.2981065426	 0.009392
C	 1.8646421603	-1.1691016844	-1.1383802636	-0.307765
C	 0.6484774153	-2.0136951041	-1.4500692068	-0.026182
C	 0.0846389062	-3.0301885255	-0.4565982587	 0.104817
C	 0.3880542444	-4.4632850869	-0.9026922823	-0.40326
O	 0.5239188791	-2.8187976891	 0.8841163155	-0.418079
H	 1.3542094465	 1.60954978	 0.324078265	 0.113846
H	 0.09785193	 2.2009457375	-0.7683968404	 0.107799
H	-0.2440204259	 2.0314813489	 0.9587344173	 0.107614
H	-0.0216758225	-0.4660663335	 0.7789175904	 0.124417
H	-1.2728214457	 0.1302865107	-0.2967888008	 0.088939
H	 0.3656004596	 0.0168674064	-2.2358859155	 0.07439
H	 2.6199574795	-1.0340723786	-1.9048752909	 0.105443
H	 2.2589445402	-1.2121661215	-0.1279300644	 0.102248
H	 0.5864249513	-2.3702630381	-2.4756141834	 0.078387
H	-1.0039133027	-2.9042419608	-0.3995017695	 0.091927
H	 1.4702709982	-4.6166720066	-0.998508044	 0.110069
H	-0.0001963484	-5.1770065674	-0.1710976275	 0.120915
H	-0.0645864924	-4.6800209039	-1.8756423175	 0.116331
H	 1.4666858964	-3.016953246	 0.9110746776	 0.27731
47.9944	88.0151	134.5636	210.6163	237.9526	264.0372	273.6616	303.3092	337.4267	394.4951	430.5553	568.2839	593.9004	744.8727	768.577	802.7999	851.0826	899.8525	949.7802	960.8912	974.8285	1031.9837	1057.5323	1065.0831	1071.791	1092.4165	1121.2559	1146.0361	1177.5719	1200.651	1244.7116	1294.608	1306.3403	1336.979	1348.3668	1394.988	1403.1824	1408.4641	1421.8493	1430.9835	1483.8548	1492.2416	1493.7538	1496.9078	1498.1231	1510.5579	3015.5474	3024.0602	3027.8992	3031.5133	3081.7277	3094.5704	3100.3507	3101.4995	3115.8151	3118.1733	3125.8376	3133.1338	3209.7869	3799.3893
CCC1CC1C(C)O	CC[C@H]1C[C@H]1[C@@H](C)O	
InChI=1S/C7H14O/c1-3-6-4-7(6)5(2)8/h5-8H,3-4H2,1-2H3	InChI=1S/C7H14O/c1-3-6-4-7(6)5(2)8/h5-8H,3-4H2,1-2H3/t5-,6+,7+/m1/s1
