14
gdb 42239	3.74522	1.04396	0.82904	2.6333	71.64	-0.2634	-0.0523	0.2111	1279.546	0.098307	-436.668688	-436.660118	-436.659174	-436.702933	30.16	
O	-0.0555332005	-0.0511805193	 0.1805504117	-0.352693
C	-0.0551997585	 1.1653183118	 0.1286616317	 0.268819
C	 1.1624569276	 1.9640456675	 0.1230598551	 0.226888
C	 2.1880986098	 2.5915949164	 0.1101238955	-0.413386
N	-1.1991964906	 1.9017888024	 0.0869464772	-0.102847
C	-1.4669194962	 3.2985639389	-0.2889386632	-0.297505
C	-2.9278834431	 2.8472812313	-0.5320050277	 0.386989
O	-3.9273214015	 3.4007937537	-0.8645190271	-0.261273
C	-2.5547086324	 1.3959037557	-0.1617506132	-0.292144
H	 3.102853022	 3.1330097697	 0.1016746638	 0.214984
H	-1.335440474	 4.0293790127	 0.516277211	 0.15284
H	-0.9398825354	 3.6470999202	-1.1845426258	 0.153969
H	-2.6212277146	 0.6709087117	-0.9813428568	 0.159354
H	-3.0649173025	 0.9886754373	 0.7177659877	 0.156006
44.0822	100.5395	118.9981	176.1213	226.0466	288.9621	438.8854	442.1607	455.3618	551.8116	659.2109	667.1522	686.9223	727.7416	755.2178	767.3804	910.3072	1030.1214	1046.5022	1063.0746	1099.6783	1156.7096	1169.4385	1263.0906	1280.0652	1424.4267	1462.7681	1485.2646	1744.7771	1936.5664	2225.512	3034.3121	3043.3463	3086.6391	3088.0935	3494.7053
O=C(C#C)N1CC(=O)C1	O=C(C#C)N1CC(=O)C1	
InChI=1S/C6H5NO2/c1-2-6(9)7-3-5(8)4-7/h1H,3-4H2	InChI=1S/C6H5NO2/c1-2-6(9)7-3-5(8)4-7/h1H,3-4H2
