20
gdb 87521	3.40344	1.33886	1.25072	1.8723	79.09	-0.2337	0.0822	0.3159	1098.8419	0.172332	-403.098227	-403.090424	-403.08948	-403.130318	31.144	
C	-0.026587515	 1.522069338	-0.1221088223	-0.393652
C	 0.0140890946	 0.021899653	 0.0397380621	-0.129725
N	 1.3489684923	-0.6239802584	-0.0910732404	-0.418881
C	 0.6557472717	-0.6533794089	 1.1789824243	 0.458109
C	 1.1753487053	-0.1468045202	 2.5428606502	-0.166173
C	-0.1179585656	-0.7975350171	 3.1328290084	-0.236381
C	 0.1861011376	-1.8400222267	 2.0273014253	-0.004606
O	 1.4238628412	-2.4317005307	 2.4603232913	-0.285946
C	 2.1979818407	-1.2580131074	 2.8257028185	-0.0756
H	 0.8559937763	 1.9808983205	 0.3305377227	 0.126815
H	-0.0439111673	 1.7972428005	-1.1819569995	 0.122314
H	-0.9207249188	 1.9432763183	 0.3506630816	 0.115106
H	-0.8248281106	-0.5072002101	-0.4137537526	 0.084058
H	 1.2804968216	-1.5239848061	-0.5613139182	 0.232743
H	 1.4685172894	 0.8841008709	 2.7316955102	 0.077653
H	-0.08509579	-1.1581111697	 4.1631817215	 0.100649
H	-1.0152943099	-0.2073799411	 2.9420520839	 0.104997
H	-0.5025430066	-2.6148907801	 1.6926730549	 0.077722
H	 3.0874337827	-1.1849873208	 2.1904906671	 0.112981
H	 2.4998468103	-1.3249578136	 3.8768365908	 0.09782
129.0958	145.2866	181.9345	237.3431	321.795	389.3555	449.6252	455.7986	565.295	627.6653	695.5404	810.5979	833.8087	848.3456	886.2599	901.7699	917.745	943.8714	953.6187	1008.7601	1020.3233	1037.2812	1053.5075	1065.2635	1082.5754	1100.71	1121.4057	1136.3701	1188.0776	1207.5838	1233.2598	1240.0698	1252.8083	1258.2256	1289.9695	1341.5499	1376.2932	1410.6573	1474.4595	1483.2045	1491.528	1513.7888	1525.9096	3030.779	3034.0988	3072.823	3077.1368	3095.8648	3096.2231	3124.7386	3132.6106	3139.5937	3143.1067	3489.6626
CC1NC11C2CC1OC2	C[C@H]1N[C@]21[C@H]1C[C@@H]2OC1	
InChI=1S/C7H11NO/c1-4-7(8-4)5-2-6(7)9-3-5/h4-6,8H,2-3H2,1H3	InChI=1S/C7H11NO/c1-4-7(8-4)5-2-6(7)9-3-5/h4-6,8H,2-3H2,1H3/t4-,5+,6+,7-/m1/s1
