18
gdb 56790	2.94879	1.20315	0.95927	1.3282	78.68	-0.2463	0.0193	0.2656	1265.3981	0.146875	-401.934875	-401.925681	-401.924737	-401.969802	32.877	
C	 0.0314889999	 1.6260737323	 0.1635354268	-0.380578
C	-0.0597645937	 0.099221134	-0.0051762026	-0.242302
C	 0.691372798	-0.6087848885	 1.0344578377	 0.339036
C	 1.3183376959	-1.1572734025	 1.8998827149	-0.48162
C	-1.4936637311	-0.3785941801	-0.0326955879	 0.430116
N	-2.522874684	 0.3203341621	 0.2119952666	-0.313277
C	-3.6806720153	-0.5719065975	 0.0461661592	-0.186727
C	-3.0654336414	-1.9503919705	-0.3122669161	-0.111564
O	-1.6455020917	-1.6866653485	-0.3724429751	-0.254809
H	 1.078532656	 1.937162825	 0.1527902781	 0.121197
H	-0.5029351537	 2.126862724	-0.6464324569	 0.127875
H	-0.4203674101	 1.9319065449	 1.108457341	 0.145417
H	 0.3725256837	-0.1811480553	-0.9763550409	 0.129408
H	 1.870627198	-1.6534871021	 2.6589647738	 0.198685
H	-4.2651500719	-0.6012546478	 0.9712340083	 0.120005
H	-4.3374364104	-0.1858467038	-0.7407740451	 0.117426
H	-3.2390979388	-2.7165430704	 0.448676103	 0.121966
H	-3.3830359794	-2.3374359454	-1.2840424048	 0.119747
38.201	86.0288	112.4744	180.2492	210.3961	223.017	271.4146	395.1389	434.6384	546.622	608.2032	629.9368	645.4107	753.6319	769.5202	831.4036	864.0645	922.7091	973.5402	997.1918	1005.7166	1039.9548	1098.8654	1120.5213	1132.2789	1208.8854	1215.4938	1246.8155	1310.6545	1315.3699	1352.2489	1391.4212	1411.0933	1486.5579	1493.1726	1502.185	1526.083	1739.6967	2240.2095	3010.8361	3042.2647	3056.8044	3060.479	3071.9291	3105.6011	3138.1726	3148.2389	3505.5109
CC(C#C)C1=NCCO1	C[C@@H](C#C)C1=NCCO1	
InChI=1S/C7H9NO/c1-3-6(2)7-8-4-5-9-7/h1,6H,4-5H2,2H3	InChI=1S/C7H9NO/c1-3-6(2)7-8-4-5-9-7/h1,6H,4-5H2,2H3/t6-/m0/s1
