22
gdb 62628	2.17733	1.88148	1.58196	1.7078	84.62	-0.2289	0.0793	0.3082	1023.1195	0.193339	-367.161416	-367.152669	-367.151725	-367.193776	35.321	
C	-0.0739054058	 1.578682101	 0.0836725906	-0.517118
C	 0.0234516226	 0.0752016625	 0.0668537061	 0.277083
C	-1.2528356214	-0.8024658355	 0.2056544371	-0.301504
C	-0.3211103751	-1.8854998323	 0.7434484713	-0.046486
C	 0.7004889407	-0.8875999672	 1.1318979372	-0.107362
N	 1.0076881149	-1.8381062901	 0.0335525935	-0.166888
C	 0.8884966349	-0.7145103426	-0.9702200862	 0.317198
C	 0.3018461065	-1.1195586261	-2.3187198854	-0.459822
C	 2.274201312	-0.100118322	-1.1582033024	-0.433607
H	 0.9132096412	 2.0518479393	 0.0766958398	 0.12128
H	-0.6235489758	 1.9415735796	-0.7931925892	 0.120576
H	-0.6068921313	 1.931025639	 0.9734446559	 0.118145
H	-1.8934132732	-0.4273321361	 1.0095647197	 0.100041
H	-1.862971616	-0.9881891126	-0.6832896455	 0.09232
H	-0.5724054684	-2.8267190833	 1.2145442312	 0.094723
H	 1.3070216378	-0.7489813277	 2.0175454902	 0.091215
H	-0.612038852	-1.7072117603	-2.2177936738	 0.120236
H	 0.0778262645	-0.2360377568	-2.9273024222	 0.112308
H	 1.0248569883	-1.7296304191	-2.8702948683	 0.121638
H	 2.9531479872	-0.8331469704	-1.6042590381	 0.121788
H	 2.2268491071	 0.769417604	-1.8221973742	 0.109821
H	 2.7059789712	 0.2202654265	-0.2055817672	 0.114415
161.6045	178.4497	201.5708	235.673	255.6514	290.1741	314.2599	363.4276	408.5515	487.6401	546.0403	620.4516	633.155	749.02	776.2225	797.6993	848.0796	862.2337	911.3091	941.6623	948.4574	971.7212	978.4884	1003.0682	1011.8483	1030.3758	1102.6131	1122.3748	1149.3568	1185.6567	1194.1504	1197.8276	1239.0647	1250.5646	1265.3746	1328.3932	1341.544	1400.3404	1412.1344	1419.2244	1475.0894	1482.9712	1487.5834	1493.9592	1500.5904	1502.3176	1522.6913	3024.8481	3033.4751	3038.6078	3046.885	3086.1207	3093.6279	3096.0766	3098.4581	3105.8403	3111.673	3132.2822	3190.733	3206.9106
CC12CC3C1N3C2(C)C	C[C@]12C[C@@H]3[C@H]1N3C2(C)C	
InChI=1S/C8H13N/c1-7(2)8(3)4-5-6(8)9(5)7/h5-6H,4H2,1-3H3	InChI=1S/C8H13N/c1-7(2)8(3)4-5-6(8)9(5)7/h5-6H,4H2,1-3H3/t5-,6-,8+,9?/m1/s1
