19
gdb 111396	2.21032	1.64827	1.11267	2.5398	75.91	-0.2432	-0.0282	0.2151	1133.1855	0.157782	-422.990163	-422.981281	-422.980337	-423.024266	32.427	
C	-0.0541302003	 1.3604445768	 0.2644680358	-0.256636
O	-0.040295241	 0.018065933	-0.1989339544	-0.240794
C	-1.2556019735	-0.6461020895	-0.0445549349	 0.133793
C	-1.3503275161	-1.9788120327	-0.7694770071	-0.077667
C	-0.4031011344	-2.9789846946	-0.1744938259	-0.284193
C	-1.6984137851	-2.6979817197	 0.5384102337	-0.079246
C	-1.578711194	-1.3971305624	 1.3335670687	-0.161464
C	-0.5527486526	-1.3474604163	 2.4408185785	 0.155608
O	-0.2521678596	-0.3467955652	 3.0438240642	-0.255185
H	 0.9381240978	 1.773024106	 0.0692185726	 0.126958
H	-0.8005372371	 1.9570778308	-0.2819678981	 0.101372
H	-0.2638281009	 1.4127326183	 1.3383875898	 0.142456
H	-2.0949620134	 0.0164548814	-0.2959290427	 0.074698
H	-1.778634244	-2.1104270928	-1.7549028927	 0.092981
H	-0.3568360577	-3.9304888606	-0.693295087	 0.117743
H	 0.5471041219	-2.6507574661	 0.2365729368	 0.127325
H	-2.4473271727	-3.4630787934	 0.6971573697	 0.094415
H	-2.5269889718	-1.0317217198	 1.7386034783	 0.104682
H	-0.0762639355	-2.3241834433	 2.6856960045	 0.083153
55.0431	120.0421	149.8102	156.4066	200.565	228.8748	310.7024	405.9767	460.6153	547.5075	597.9585	677.9934	794.0778	799.6255	841.5904	916.4978	948.3936	995.3629	999.9109	1031.0453	1046.4149	1061.6631	1068.5825	1082.765	1095.9358	1147.2004	1164.0053	1189.3721	1200.1803	1240.678	1263.2636	1309.9272	1314.4333	1360.9488	1393.581	1420.8424	1483.1615	1491.5631	1495.5762	1515.3319	1814.5554	2868.7763	2987.8947	3006.9895	3070.9131	3074.2707	3125.5613	3126.6964	3188.7729	3196.7237	3213.5054
COC1C2CC2C1C=O	CO[C@H]1[C@H]2C[C@H]2[C@H]1C=O	
InChI=1S/C7H10O2/c1-9-7-5-2-4(5)6(7)3-8/h3-7H,2H2,1H3	InChI=1S/C7H10O2/c1-9-7-5-2-4(5)6(7)3-8/h3-7H,2H2,1H3/t4-,5+,6-,7+/m1/s1
