22
gdb 118255	5.27437	0.62546	0.58402	1.1583	79.99	-0.2306	0.0667	0.2973	1911.7942	0.192159	-441.438839	-441.428246	-441.427302	-441.475344	37.924	
O	 0.0724072183	 1.3674092778	 0.0035339055	-0.42416
C	 0.0849801387	-0.0511084249	 0.0839381865	-0.075658
C	-1.3488731538	-0.5371582578	-0.086043279	-0.193231
C	-1.4812126424	-2.0594929982	 0.0209885478	 0.113473
O	-0.9739404136	-2.5448604562	 1.2649096825	-0.427954
C	-2.92212977	-2.5228197896	-0.2179605183	-0.158536
N	-2.9982741207	-3.9668520007	-0.3714223461	-0.057737
C	-3.1796220234	-4.7535438297	 0.8405339295	-0.198562
C	-4.2977027194	-4.5850693388	-0.1273901278	-0.228352
H	 0.9699144678	 1.6820413359	 0.1447800637	 0.285286
H	 0.717941356	-0.4906258057	-0.7044611433	 0.085666
H	 0.4790409779	-0.3996267286	 1.048652476	 0.096053
H	-1.9764422252	-0.0536704824	 0.6762783958	 0.094305
H	-1.7251891568	-0.1989175375	-1.058476786	 0.10801
H	-0.8485831622	-2.5399815607	-0.7347526128	 0.100401
H	-1.4674150323	-2.1071140486	 1.9683099716	 0.275035
H	-3.5605694661	-2.1506528011	 0.6093213179	 0.064812
H	-3.2980489582	-2.065570831	-1.1412790409	 0.104116
H	-2.6194751787	-5.6825106305	 0.8895163916	 0.117563
H	-3.255549598	-4.2226141099	 1.787100409	 0.099023
H	-5.121831833	-3.939136946	 0.1734302216	 0.104992
H	-4.5742476149	-5.3870429159	-0.8059001448	 0.115455
51.9109	78.2586	85.8396	115.8093	142.6497	231.5005	268.123	283.1364	314.3911	348.4092	375.1117	408.9867	490.1578	592.7991	765.6526	799.4925	837.2532	876.7444	913.1429	958.2689	997.921	1027.8755	1043.5751	1061.6173	1080.1742	1105.2562	1112.4176	1119.6292	1126.701	1167.7484	1173.7191	1209.7073	1237.0707	1257.85	1295.0947	1302.1991	1328.8152	1354.7148	1361.7437	1400.8333	1423.1023	1461.3557	1476.3433	1488.8409	1491.8842	1520.7271	1531.3551	2894.1605	2968.1746	3012.774	3020.5577	3047.5496	3051.9808	3074.7427	3090.8773	3103.9687	3176.1299	3192.5274	3788.5576	3830.011
OCCC(O)CN1CC1	OCC[C@@H](O)CN1CC1	
InChI=1S/C6H13NO2/c8-4-1-6(9)5-7-2-3-7/h6,8-9H,1-5H2	InChI=1S/C6H13NO2/c8-4-1-6(9)5-7-2-3-7/h6,8-9H,1-5H2/t6-/m1/s1
