21
gdb 99664	2.4628	1.09515	0.80827	1.7356	84.11	-0.2456	0.0476	0.2932	1452.9527	0.180639	-387.037314	-387.027265	-387.02632	-387.073295	36.06	
C	-0.0072818032	 1.5772838586	 0.106936224	-0.391527
C	-0.0373144919	 0.0486554428	 0.063114262	-0.179191
C	-1.4620356491	-0.5427332616	-0.0474265023	-0.184226
C	-2.1252245727	-0.1309553634	-1.2848854023	 0.338263
C	-2.6587100827	 0.1777886257	-2.3176726479	-0.470993
C	-1.4434924131	-2.0756996027	 0.054092125	-0.022916
C	-1.1533030947	-2.6877111803	 1.444070261	-0.092603
O	-2.4338007883	-3.3453694225	 1.474916142	-0.273157
C	-2.8046413454	-2.7914225308	 0.1943944563	-0.089973
H	 1.0201877364	 1.9457948726	 0.1801631523	 0.114724
H	-0.4580992019	 2.0030363431	-0.7941051695	 0.133574
H	-0.5614444406	 1.9596264237	 0.9713550341	 0.115089
H	 0.5567858508	-0.3136853955	-0.7843297352	 0.106458
H	 0.4270824535	-0.3575574634	 0.9698960741	 0.101088
H	-2.053759565	-0.1601507836	 0.7983614465	 0.104498
H	-3.1377583567	 0.4598529828	-3.2225010656	 0.196903
H	-0.8187058385	-2.483941831	-0.7440573384	 0.087747
H	-0.3223356881	-3.4017469498	 1.4939208814	 0.101192
H	-1.0438220549	-1.9619202211	 2.262459168	 0.096076
H	-3.6738206312	-2.1250787005	 0.2673410078	 0.104958
H	-3.0180950328	-3.5723738631	-0.5445167134	 0.104016
44.9877	76.025	100.5174	126.2501	162.8271	195.4555	260.7667	314.4599	361.3262	411.8626	496.638	551.056	629.9802	643.1986	759.2585	806.4339	852.905	891.6374	906.0812	949.7637	979.4727	1027.5411	1041.1613	1047.4789	1080.2786	1119.3485	1126.3443	1152.2502	1163.4489	1186.4689	1262.7735	1270.5237	1285.9528	1310.3799	1343.574	1366.651	1370.3134	1395.7502	1411.4249	1483.5321	1498.2878	1507.0541	1513.2374	1537.7062	2230.2034	2988.5594	2996.0242	3016.1126	3027.6079	3036.169	3044.1873	3057.1889	3065.4623	3083.9672	3103.7135	3117.1596	3502.7524
CCC(C#C)C1COC1	CC[C@@H](C#C)C1COC1	
InChI=1S/C8H12O/c1-3-7(4-2)8-5-9-6-8/h1,7-8H,4-6H2,2H3	InChI=1S/C8H12O/c1-3-7(4-2)8-5-9-6-8/h1,7-8H,4-6H2,2H3/t7-/m1/s1
