18
gdb 33423	2.69124	1.09235	0.81796	1.1793	83.87	-0.239	0.0338	0.2728	1391.2446	0.14463	-364.700831	-364.691255	-364.690311	-364.735685	35.229	
C	 0.168919388	-1.2259322963	-0.0262909866	-0.474245
C	 0.1034143954	-0.0266359119	-0.0183798367	 0.358299
C	 0.0197245027	 1.4380791178	-0.0157321428	-0.349819
C	 1.4196848297	 2.1136470205	-0.0257806715	-0.146722
N	 2.1205218876	 1.861020483	 1.2210558679	-0.064407
C	 3.0528668046	 0.7361345257	 1.2411247595	-0.211525
C	 3.5554818826	 2.1354601132	 1.2129510017	-0.229966
C	-0.7854727592	 1.9232058384	-1.1406844358	 0.327682
C	-1.42161312	 2.3483557001	-2.066275035	-0.445603
H	 0.2200058191	-2.286626392	-0.0311546093	 0.199983
H	-0.4602566012	 1.7504711502	 0.9220469033	 0.148274
H	 1.9751714257	 1.7751457934	-0.9164080398	 0.099783
H	 1.2624187345	 3.1926939124	-0.1201450581	 0.119055
H	 3.0716969158	 0.1601123184	 2.1611734733	 0.119989
H	 3.1560878417	 0.1473129276	 0.3327043814	 0.120199
H	 4.0016314029	 2.4852409529	 0.2831555279	 0.111281
H	 3.9486276553	 2.6040483718	 2.1104363071	 0.118906
H	-1.9960357052	 2.7137181748	-2.8812829564	 0.198839
57.1319	92.8441	126.4363	130.8947	197.5832	257.6242	339.7302	367.6321	396.5975	476.6644	564.5954	571.55	631.1125	638.0511	642.7688	653.4503	771.049	831.2902	837.5385	902.5698	985.2069	1024.8545	1026.9021	1063.3451	1095.0169	1116.5039	1119.699	1171.1252	1178.917	1248.515	1280.0568	1322.2619	1340.1773	1380.4991	1486.3923	1495.6688	1522.8358	2238.7672	2244.9659	2964.5698	3017.4365	3077.6332	3097.5333	3109.3154	3182.0208	3199.4904	3503.311	3504.9859
C#CC(CN1CC1)C#C	C#CC(CN1CC1)C#C	
InChI=1S/C8H9N/c1-3-8(4-2)7-9-5-6-9/h1-2,8H,5-7H2	InChI=1S/C8H9N/c1-3-8(4-2)7-9-5-6-9/h1-2,8H,5-7H2
