17
gdb 89213	2.7696	1.50363	1.18205	2.787	70.02	-0.2445	0.0138	0.2583	1053.973	0.135818	-455.112497	-455.104196	-455.103252	-455.145123	32.221	
O	 0.487113079	 0.9133881416	-0.8284677982	-0.434423
C	 0.0728859778	-0.2486401302	-0.169254961	 0.160474
C	 0.290259269	-0.3573851229	 1.3802650295	-0.332546
C	-1.2233776154	-0.6363202622	 1.5985169636	 0.362536
O	-1.5434999682	-1.747551078	 2.3555783672	-0.472772
C	-1.4553377341	-0.4187041857	 0.0399979648	-0.126978
N	-2.0655518094	 0.8883058333	 0.4008410962	-0.359637
C	-2.1156965839	 0.5869728326	 1.767813806	 0.299069
N	-2.7364437064	 0.9926401444	 2.7899000128	-0.552408
H	-0.0693224206	 1.6253488183	-0.4838341426	 0.278536
H	 0.5134252032	-1.0946842045	-0.7025944861	 0.097617
H	 0.8945126919	-1.2167168574	 1.678552826	 0.122183
H	 0.6824089877	 0.540439152	 1.8631303913	 0.111305
H	-2.3134288023	-1.5164589908	 2.8910310976	 0.297826
H	-2.0585969793	-1.0618527616	-0.6005892927	 0.084434
H	-2.8109510361	 1.3380169984	-0.1125325468	 0.246914
H	-3.3703049129	 1.7674217529	 2.5883499124	 0.217869
90.776	155.9209	200.7985	252.1518	306.4311	344.7152	375.6908	411.4937	457.2645	494.0784	597.5405	631.744	698.5188	737.1264	807.1585	848.8743	851.0998	872.9311	925.6206	982.7996	1013.8228	1035.2964	1048.7893	1105.8184	1123.2719	1141.9013	1193.6431	1243.6153	1259.4951	1308.9856	1318.7222	1327.8218	1377.8607	1392.9639	1440.9961	1468.913	1794.924	3071.0155	3082.1868	3117.7099	3131.9164	3466.4337	3590.831	3744.5384	3773.0699
OC1CC2(O)C1NC2=N	O[C@H]1C[C@]2(O)[C@H]1N[C]2[NH]	
InChI=1S/C5H8N2O2/c6-4-5(9)1-2(8)3(5)7-4/h2-3,8-9H,1H2,(H2,6,7)	InChI=1S/C5H8N2O2/c6-4-5(9)1-2(8)3(5)7-4/h2-3,8-9H,1H2,(H2,6,7)/t2-,3-,5-/m0/s1
