18
gdb 13252	7.36828	0.7871	0.75549	1.0309	69.07	-0.2519	-0.0255	0.2264	1454.1293	0.152481	-384.924761	-384.916105	-384.91516	-384.95998	29.268	
O	-0.6411344758	 0.7121257194	 0.6963011792	-0.234174
C	 0.0437548849	 0.9926158679	-0.2526534059	 0.159821
C	 1.3329952602	 1.7794381451	-0.191419112	-0.274974
C	 1.2816180189	 3.0345127652	-1.0818704738	-0.221879
C	 2.6070314249	 3.7860608362	-1.1185896472	-0.020256
C	 3.76135051	 3.1567282849	-1.935043437	-0.075263
O	 3.8100437897	 4.2859735372	-2.8283719608	-0.268827
C	 2.7281708028	 4.9422340992	-2.137936739	-0.091542
H	-0.2507502306	 0.6804824776	-1.2831084198	 0.071602
H	 1.5376683907	 2.0347651246	 0.8525207875	 0.123505
H	 2.1384767662	 1.1195456067	-0.5466163043	 0.121701
H	 0.9995813083	 2.7494387253	-2.104611442	 0.108448
H	 0.4928389023	 3.7049821823	-0.7176976444	 0.11597
H	 2.9044410405	 4.0722072674	-0.1059163491	 0.08436
H	 4.7097634281	 3.0123817954	-1.4034524078	 0.104285
H	 3.5086291015	 2.2262736153	-2.4635291772	 0.094678
H	 1.8527112765	 5.0853606567	-2.7860111877	 0.099022
H	 3.0299845809	 5.9149365737	-1.7309297286	 0.103523
39.7046	54.4792	81.0726	118.8748	154.0782	296.6365	357.6623	419.1315	523.739	746.9208	779.3261	847.7531	879.3138	893.0267	959.7357	986.7132	1011.263	1029.9935	1045.9831	1101.2236	1119.95	1152.9882	1165.5973	1173.0035	1227.9889	1251.6042	1280.6743	1312.9594	1318.8657	1348.0598	1382.6319	1401.66	1431.3024	1463.2277	1492.3329	1513.1053	1538.4495	1837.8463	2849.2968	2994.6802	3005.4817	3009.0445	3016.589	3043.2194	3047.5451	3052.3186	3076.4216	3098.0835
O=CCCC1COC1	O=CCCC1COC1	
InChI=1S/C6H10O2/c7-3-1-2-6-4-8-5-6/h3,6H,1-2,4-5H2	InChI=1S/C6H10O2/c7-3-1-2-6-4-8-5-6/h3,6H,1-2,4-5H2
