14
gdb 25607	7.43971	0.74428	0.67945	2.702	64.5	-0.2302	-0.0353	0.1949	1516.7307	0.099668	-473.840965	-473.832768	-473.831823	-473.876058	27.642	
O	-0.1794347974	 0.1880206727	 0.5462006662	-0.234365
C	 0.0653965133	 1.1104534982	-0.1834424415	 0.139873
C	 1.3776046618	 1.871416418	-0.1425816907	-0.159797
O	 1.306315506	 2.8815612103	-1.1407170615	-0.280741
C	 2.3793608858	 3.6802888427	-1.2684861391	 0.35513
C	 2.5337637833	 4.703824196	-2.1500395547	-0.154543
O	 3.7804389974	 5.235624659	-1.9215660464	-0.134466
C	 4.2908571149	 4.5005143899	-0.9228142023	 0.088662
N	 3.5113622626	 3.5592689088	-0.4873499513	-0.336634
H	-0.652480268	 1.4807774946	-0.9479212619	 0.099598
H	 1.5258003986	 2.3022834695	 0.855312623	 0.15206
H	 2.2116516247	 1.1829262872	-0.3265452255	 0.151751
H	 1.9354375773	 5.1472238037	-2.923372923	 0.154013
H	 5.2814963397	 4.7531263294	-0.5798781015	 0.159459
38.5035	42.5195	86.051	121.8756	305.5457	326.0456	397.5171	577.302	639.4932	674.5185	725.9006	739.1726	751.1304	833.8309	937.3752	995.4925	1051.0963	1084.3788	1094.6384	1108.2163	1168.1619	1233.3542	1250.8671	1334.3026	1343.3009	1354.4395	1409.2653	1473.0078	1547.0881	1657.1272	1847.9284	2900.8684	3030.2331	3070.3568	3280.0436	3318.2631
O=CCOC1=COC=N1	O=CCOc1cocn1	
InChI=1S/C5H5NO3/c7-1-2-9-5-3-8-4-6-5/h1,3-4H,2H2	InChI=1S/C5H5NO3/c7-1-2-9-5-3-8-4-6-5/h1,3-4H,2H2
