21
gdb 105200	1.90663	1.40046	1.10415	2.4755	79.46	-0.2406	0.0179	0.2584	1259.6092	0.18146	-420.424445	-420.41405	-420.413106	-420.460305	37.959	
C	 0.3539383323	 1.4855211577	-0.219402744	-0.390426
C	 0.1151252572	 0.086179368	 0.359643023	-0.232091
C	-1.3064322739	-0.3980692443	 0.1270514449	 0.21411
N	-1.6301729641	-0.8446751854	-1.2441968259	-0.387899
C	-1.6417539295	-1.8311787896	-0.1494748059	-0.020818
C	-0.6393602789	-2.9586121709	-0.1910760393	-0.40582
C	-2.3213009323	 0.3482221948	 0.9745477166	 0.314969
N	-3.4347154874	 0.8236623907	 0.3176477349	-0.533595
O	-2.1704223743	 0.4789892692	 2.1728844135	-0.35568
H	 1.387751902	 1.8043546931	-0.0574740852	 0.114634
H	 0.1606481995	 1.4942481061	-1.2968806808	 0.123537
H	-0.296985782	 2.2297467727	 0.2524209926	 0.118386
H	 0.8169611359	-0.6178462833	-0.09301719	 0.100044
H	 0.2947630309	 0.0865705822	 1.4392015633	 0.125854
H	-2.5877354187	-0.6194773413	-1.4996896291	 0.222146
H	-2.6277492229	-2.1352447858	 0.2020934635	 0.093725
H	 0.3101181658	-2.6394347343	-0.6240252387	 0.131393
H	-0.4537049615	-3.3504008685	 0.81451269	 0.126409
H	-1.0250394202	-3.7789916546	-0.8059494274	 0.121768
H	-3.3608560183	 1.0841542195	-0.6528104303	 0.259046
H	-4.0397983796	 1.404778584	 0.8799314142	 0.260309
38.8718	72.2127	136.8737	150.4347	195.8711	210.3498	230.522	303.9353	342.5618	402.1546	440.1226	496.4312	524.4576	546.1886	587.8618	679.8739	747.9419	786.0889	833.6775	862.6242	921.258	988.4422	1009.976	1043.9927	1075.2394	1085.7375	1101.5737	1116.7583	1145.0756	1242.8127	1247.8321	1301.0824	1318.8225	1371.5735	1377.4173	1404.2412	1408.21	1457.3957	1470.3211	1489.1829	1499.2576	1501.3885	1507.3487	1617.5653	1791.273	3033.6383	3039.1116	3063.0821	3093.3701	3098.4218	3104.0914	3109.71	3118.3487	3139.5133	3504.4354	3571.3908	3693.6923
CCC1(NC1C)C(N)=O	CC[C@]1(N[C@H]1C)C(=O)N	
InChI=1S/C6H12N2O/c1-3-6(5(7)9)4(2)8-6/h4,8H,3H2,1-2H3,(H2,7,9)	InChI=1S/C6H12N2O/c1-3-6(5(7)9)4(2)8-6/h4,8H,3H2,1-2H3,(H2,7,9)/t4-,6+/m0/s1
