23
gdb 58984	3.35623	0.92141	0.88471	1.7529	89.2	-0.2244	0.0241	0.2485	1493.3022	0.204402	-388.309932	-388.299748	-388.298803	-388.3456	37.46	
C	-0.0275434592	 1.5671855309	 0.1086247697	-0.389108
C	-0.0201866145	 0.0277856557	 0.0435817187	-0.081271
C	 0.7997710265	-0.5643146365	 1.2063388513	-0.387714
C	-1.416167234	-0.5341342716	 0.004311001	 0.333756
C	-1.9783519505	-1.2681414584	-0.952822489	-0.250586
C	-3.3934681378	-1.6322788428	-0.596599235	 0.11015
C	-3.6795119313	-3.1337177783	-0.5490687831	-0.385653
O	-3.588138348	-1.0601491198	 0.7034592463	-0.281223
C	-2.4377461191	-0.3250965618	 1.100411058	-0.164782
H	 0.9946291896	 1.9573753531	 0.0694076609	 0.11315
H	-0.5891470639	 1.9965848182	-0.7263865398	 0.118876
H	-0.481944991	 1.9245164576	 1.0391147642	 0.118565
H	 0.4708191682	-0.2651498276	-0.8929975976	 0.07795
H	 0.3810743045	-0.2783608512	 2.1772999583	 0.117985
H	 0.8220733515	-1.6570399153	 1.158002181	 0.11868
H	 1.8316115598	-0.1997660505	 1.1719637137	 0.113082
H	-1.5087831945	-1.5794322286	-1.8786689924	 0.093289
H	-4.1075399767	-1.1648262088	-1.2975240229	 0.075528
H	-2.9721221544	-3.6373998556	 0.1163130383	 0.115731
H	-4.6934422465	-3.3111554242	-0.1791630738	 0.123798
H	-3.5964566308	-3.5739780902	-1.5486050062	 0.108048
H	-2.0903799338	-0.6866086774	 2.0804091042	 0.102509
H	-2.695092864	 0.7395497432	 1.2270315742	 0.09924
37.3565	82.6537	114.3786	187.7463	225.5402	235.7873	245.5307	258.8396	308.818	358.387	457.5036	507.9093	544.4706	591.5291	729.5952	839.9902	857.2714	861.371	912.0011	926.9685	929.9664	962.8455	1011.9305	1034.8231	1040.5702	1087.0977	1111.4876	1118.3427	1135.9842	1173.6774	1210.2499	1228.4507	1287.6382	1336.477	1340.3196	1362.2497	1376.6727	1391.8157	1396.2492	1398.2697	1418.9829	1485.198	1488.1492	1491.8717	1494.5193	1503.0806	1509.8139	1524.1279	1723.1024	2938.9236	2965.4102	2988.9984	3022.0628	3030.9299	3034.6592	3035.2559	3097.1311	3103.4079	3108.2889	3108.4718	3110.3656	3119.457	3201.1093
CC(C)C1=CC(C)OC1	CC(C)C1=C[C@@H](C)OC1	
InChI=1S/C8H14O/c1-6(2)8-4-7(3)9-5-8/h4,6-7H,5H2,1-3H3	InChI=1S/C8H14O/c1-6(2)8-4-7(3)9-5-8/h4,6-7H,5H2,1-3H3/t7-/m1/s1
