19
gdb 86969	2.43618	1.43502	1.18441	1.0638	82.37	-0.2454	0.0192	0.2645	1145.2194	0.158513	-385.863541	-385.854824	-385.85388	-385.896717	33.585	
C	 0.068798505	 1.574290973	-0.0496443948	-0.397207
C	 0.019443426	 0.0531363803	 0.073089911	 0.095497
O	 0.555528042	-0.463278761	-1.1450643996	-0.268441
C	 0.8553643901	-1.8539208732	-1.1207826484	-0.069098
C	 1.9594959301	-2.1458263425	-0.0843388902	-0.266428
C	 1.6612743239	-1.4349073612	 1.2077549386	-0.07897
C	 0.7680761432	-0.4519986139	 1.2781374602	-0.046774
C	-0.340626447	-2.6797586813	-0.9005018658	 0.35145
C	-1.3204485407	-3.3548320939	-0.7293946226	-0.496242
H	 1.1046049835	 1.9183835074	-0.119132842	 0.124886
H	-0.4667585584	 1.894284069	-0.9472784579	 0.125938
H	-0.3991334319	 2.0425922245	 0.8215165052	 0.113373
H	-1.0361468032	-0.2589873069	 0.1583099572	 0.087603
H	 1.2350210183	-2.0678677064	-2.1260252488	 0.112986
H	 2.0395777873	-3.2267933568	 0.0756614368	 0.116734
H	 2.9241337541	-1.8157116676	-0.491626906	 0.115132
H	 2.1967548507	-1.7593929416	 2.0958386472	 0.091208
H	 0.5353040025	 0.0284505648	 2.2249517872	 0.089102
H	-2.1856876155	-3.9529811229	-0.5823096574	 0.199253
86.4561	111.7093	182.8208	232.4474	280.0346	285.2645	353.1177	415.2643	442.0815	529.4827	595.088	625.036	656.5216	671.0269	705.9339	786.8468	822.2744	886.9982	909.0254	935.6654	994.1017	1001.1133	1048.1842	1055.4065	1087.2755	1121.2932	1152.0964	1211.3509	1222.0591	1299.1853	1340.1393	1357.594	1361.124	1380.2627	1401.6535	1417.814	1469.4398	1484.9088	1498.5784	1727.7125	2230.0265	2950.888	3020.5911	3043.6097	3048.8012	3066.8663	3119.2592	3125.442	3151.7963	3174.54	3502.7505
CC1OC(CC=C1)C#C	C[C@H]1O[C@@H](CC=C1)C#C	
InChI=1S/C8H10O/c1-3-8-6-4-5-7(2)9-8/h1,4-5,7-8H,6H2,2H3	InChI=1S/C8H10O/c1-3-8-6-4-5-7(2)9-8/h1,4-5,7-8H,6H2,2H3/t7-,8-/m1/s1
