16
gdb 131368	3.30723	1.51946	1.05959	2.8937	71.29	-0.1898	0.0502	0.2401	1073.5979	0.128321	-434.077572	-434.070127	-434.069183	-434.109332	28.703	
O	 0.2411815032	 1.3467874683	-0.0039815642	-0.431349
C	 0.139815146	 0.0016885231	 0.0607607732	 0.265821
N	 0.1261138944	-0.7371642924	-1.0441644184	-0.355269
N	-0.0018220997	-2.0354856583	-0.5834263684	-0.35611
C	-0.0323683262	-2.060584663	 0.7600069092	 0.438188
C	 0.0568563037	-0.77488744	 1.2322645357	 0.123727
C	-0.0835281646	-0.7965653693	 2.7278049749	-0.362446
C	 0.0779035647	-2.3290316459	 3.0157620679	-0.165876
N	-0.2406321411	-3.0356273299	 1.7328651549	-0.410594
H	 0.2881620856	 1.5754273224	-0.9411031773	 0.29902
H	-0.0204596637	-2.7871479655	-1.2478800199	 0.266593
H	 0.6664074084	-0.2162963816	 3.2734806164	 0.115049
H	-1.0678306016	-0.4410491905	 3.0582084993	 0.115985
H	 1.1120413522	-2.5410209517	 3.3163095745	 0.107576
H	-0.5865558511	-2.6807051107	 3.8085509452	 0.114573
H	 0.2785682398	-3.896937495	 1.6135010669	 0.235114
132.406	201.7037	216.331	258.2945	282.4976	408.0851	447.2744	539.3205	567.7316	621.7241	666.3551	701.8375	723.0282	795.7392	843.1525	862.835	935.9016	1016.75	1064.9501	1077.7802	1114.0899	1193.0896	1198.5672	1240.6692	1267.0032	1302.1826	1326.4811	1351.7512	1415.5892	1461.9714	1499.9722	1516.8146	1576.8112	1606.9738	1647.6104	3016.6667	3020.2011	3072.2739	3096.104	3547.7386	3700.3992	3789.8291
OC1=NNC2=C1CCN2	Oc1n[nH]c2c1CCN2	
InChI=1S/C5H7N3O/c9-5-3-1-2-6-4(3)7-8-5/h1-2H2,(H3,6,7,8,9)	InChI=1S/C5H7N3O/c9-5-3-1-2-6-4(3)7-8-5/h1-2H2,(H3,6,7,8,9)
