17
gdb 68987	3.38019	1.08993	0.97242	4.7468	73.23	-0.2347	0.0345	0.2692	1224.2963	0.135706	-417.97167	-417.963076	-417.962132	-418.005407	31.982	
O	-0.2549640189	 1.3805405949	 0.1545609039	-0.458715
C	-0.0881145125	 0.0202643707	 0.0022306168	 0.305185
C	-0.3966930871	-0.9794017024	 1.0934289215	-0.388401
C	-1.1678272368	-1.0216959858	-0.2104393414	 0.308049
C	-2.6669061704	-0.8882393737	-0.3070775414	-0.423579
C	-3.3659082864	-2.1180112358	 0.0750575931	 0.257229
N	-3.8961570329	-3.0983033753	 0.3801323775	-0.309703
N	-0.4025648019	-1.6443262202	-1.2945491423	-0.353795
C	 0.7063364326	-0.6487755658	-1.1211004283	-0.228889
H	 0.3443379784	 1.6914891674	 0.841715159	 0.293686
H	 0.2976239839	-1.7764876669	 1.3509971047	 0.109325
H	-0.9416246763	-0.5562379267	 1.9325441605	 0.121998
H	-3.0073980154	-0.0718321522	 0.3394752513	 0.158955
H	-2.9431409417	-0.6309370555	-1.335265808	 0.162951
H	-0.1248355347	-2.602577629	-1.0945242471	 0.223443
H	 0.8101706923	-0.0172206869	-2.008589959	 0.121836
H	 1.6848921478	-1.063621867	-0.8515915908	 0.100426
48.4417	98.2761	182.2288	231.1244	269.9577	353.5769	377.7119	387.9848	423.2612	468.7869	537.0499	635.3304	711.8226	810.7958	839.7449	874.5674	915.7417	934.6475	945.527	968.1934	1001.783	1043.4802	1066.9547	1118.4821	1161.9437	1203.84	1256.2435	1276.0022	1311.8232	1320.9795	1352.4321	1365.4687	1421.1149	1447.6155	1490.1929	1517.7673	2361.6725	3027.8385	3047.8082	3086.1137	3091.5795	3101.5865	3197.7953	3483.1385	3799.7088
OC12CC1(CC#N)NC2	O[C@@]12C[C@]1(CC#N)NC2	
InChI=1S/C6H8N2O/c7-2-1-5-3-6(5,9)4-8-5/h8-9H,1,3-4H2	InChI=1S/C6H8N2O/c7-2-1-5-3-6(5,9)4-8-5/h8-9H,1,3-4H2/t5-,6+/m0/s1
