14
gdb 131166	3.32888	1.31528	0.94278	5.2634	69.29	-0.2036	-0.0092	0.1943	1146.1747	0.103178	-466.184789	-466.176975	-466.176031	-466.217318	28.85	
O	 0.0896344944	 1.4067854777	-0.015867763	-0.450991
C	 0.0693632767	 0.0535009663	-0.016778676	 0.271385
C	 0.035783329	-0.7655381961	-1.1267240498	 0.384017
N	 0.0137179509	-0.4655428055	-2.4799100462	-0.403159
C	-0.0172546787	-1.3836874401	-3.4924887037	 0.091633
N	-0.0306400869	-2.6438720844	-3.2722984235	-0.486832
N	 0.0276027974	-2.0125177347	-0.595916274	-0.220208
N	 0.0538572966	-1.9771097093	 0.7448036963	-0.141076
N	 0.0794891116	-0.7088298221	 1.0922408388	-0.277129
H	 0.1080620532	 1.6847633912	 0.9083878021	 0.30909
H	 0.0243200074	 0.5135487107	-2.7127165955	 0.278054
H	-0.0288587094	-0.9091219072	-4.4781240198	 0.108945
H	-0.0538348081	-3.1643517057	-4.1436800246	 0.234344
H	 0.005253096	-2.8652003907	-1.142865971	 0.301927
82.9913	175.6878	194.1594	270.2051	313.8883	316.4836	385.7649	450.8361	466.453	620.6015	641.7854	718.7224	720.0675	767.6234	786.6165	857.8877	1013.6747	1026.665	1075.8809	1118.5172	1166.8083	1225.8518	1249.9142	1281.5084	1361.9934	1396.0822	1416.8517	1540.6815	1561.8596	1697.6325	1723.6038	3082.1154	3542.9859	3575.9599	3661.5584	3799.9092
OC1=C(NC=N)NN=N1	Oc1c(NC=N)[nH]nn1	
InChI=1S/C3H5N5O/c4-1-5-2-3(9)7-8-6-2/h1H,(H4,4,5,6,7,8,9)	InChI=1S/C3H5N5O/c4-1-5-2-3(9)7-8-6-2/h1H,(H4,4,5,6,7,8,9)
