18
gdb 100448	3.97487	0.61947	0.54989	5.4688	79.79	-0.2592	-0.038	0.2212	1968.5917	0.145927	-439.082415	-439.072006	-439.071062	-439.119722	36.128	
C	-0.0868184623	 1.6259040149	 0.1270192166	-0.397847
C	 0.0683018182	 0.1054012441	 0.0642133127	-0.166452
C	 0.6211058817	-0.3961956163	-1.2964112527	-0.183157
N	 1.9549790231	 0.0945648	-1.6740822242	-0.506038
H	 2.620354384	-0.1275052554	-0.9377983954	 0.230916
H	 2.2208038682	-4.4044432061	-2.2388385434	 0.311588
H	 1.9323381746	 1.1066635812	-1.7509223773	 0.2364
C	 0.615654509	-1.8597927487	-1.3260057321	 0.124683
C	 0.5947915419	-3.0656574353	-1.3105011913	-0.041578
C	 0.5635673971	-4.513836221	-1.3025357434	 0.335904
O	 1.6347804671	-5.0934830713	-1.899471089	-0.358336
O	-0.3122149984	-5.1767856992	-0.8202617081	-0.295929
H	 0.8734618082	 2.138566337	 0.0083682705	 0.111832
H	-0.7619407605	 1.9901625315	-0.6557409414	 0.121244
H	-0.5018251101	 1.9321661842	 1.091280144	 0.125991
H	 0.7390907177	-0.2426871896	 0.859479116	 0.105987
H	-0.8997076825	-0.3764309678	 0.2413528548	 0.120521
H	-0.0687327067	-0.0560340723	-2.0827597261	 0.124271
22.5892	64.0264	76.9289	126.7875	180.1173	228.3491	232.8159	291.2361	313.5354	366.8061	483.797	514.1068	521.2813	598.065	611.5835	749.0501	766.8051	787.7164	829.1277	917.0638	986.4485	1030.8309	1059.7905	1098.8767	1146.3478	1198.8643	1210.3623	1282.4143	1317.9703	1319.3602	1362.6074	1403.7255	1417.1533	1482.937	1500.3836	1507.4121	1653.5032	1847.8889	2342.3758	3005.6476	3032.0905	3034.9995	3072.0821	3101.2763	3111.4338	3485.526	3574.0232	3786.2995
CCC([NH3+])C#CC([O-])=O	CC[C@@H](N)C#CC(=O)O	
InChI=1S/C6H9NO2/c1-2-5(7)3-4-6(8)9/h5H,2,7H2,1H3,(H,8,9)	InChI=1S/C6H9NO2/c1-2-5(7)3-4-6(8)9/h5H,2,7H2,1H3,(H,8,9)/t5-/m1/s1
