21
gdb 75028	2.5585	1.58291	1.16385	0.699	91.99	-0.1984	-0.0134	0.185	1140.3931	0.184633	-349.962945	-349.954785	-349.953841	-349.995339	32.727	
C	 0.2751445548	 1.5015560183	 0.2484026382	-0.477446
C	 0.0125001522	 0.0437827668	-0.0147546212	 0.279969
C	 0.2064394359	-0.4932751001	-1.2313643494	-0.157015
C	 0.0334960709	-1.8890583837	-1.6171548206	-0.100206
C	 0.1663774789	-2.986114005	-0.8500895675	-0.072163
C	 0.5695741328	-3.0850095852	 0.569934506	-0.05602
C	 1.6963454328	-2.2330176674	 1.1522309307	-0.296906
C	 0.2816465306	-1.9853866721	 1.5767015241	-0.014478
C	-0.5226481478	-0.7564915757	 1.1545355415	-0.319736
H	 1.0301070087	 1.6264861991	 1.0369098508	 0.123978
H	 0.6288793251	 2.0216583363	-0.6458126938	 0.118062
H	-0.6286775394	 2.0123384531	 0.6064003601	 0.122786
H	 0.5104226344	 0.1759385291	-2.0353812311	 0.074505
H	-0.1924755852	-2.0509033937	-2.6694547681	 0.081843
H	-0.0063848356	-3.94518467	-1.33303345	 0.085121
H	 0.5142490291	-4.0949492695	 0.9637981901	 0.079426
H	 2.3747709899	-2.708126849	 1.8522746741	 0.10767
H	 2.1632281749	-1.5222279615	 0.4812068911	 0.126521
H	 0.0219854302	-2.3392109652	 2.5723404023	 0.082461
H	-0.6127445531	-0.0932012854	 2.0223906116	 0.096703
H	-1.54335714	-1.0925945793	 0.9191670811	 0.114927
86.5318	170.1877	221.6975	269.0738	287.9606	339.4484	374.0012	446.0362	494.1255	576.7767	643.226	719.7552	756.16	766.7552	798.8693	857.8778	878.1468	905.9437	939.3802	959.7301	978.0847	998.4632	1021.9282	1055.2189	1066.9986	1077.2036	1114.3687	1133.1214	1152.7733	1177.5251	1229.8951	1260.1579	1287.7218	1346.6357	1367.4605	1400.0238	1410.9205	1421.5994	1451.5447	1477.4954	1483.5544	1490.9256	1492.7526	1676.119	1709.7118	2996.1149	3006.2872	3048.7475	3052.0525	3108.4479	3120.194	3123.5611	3134.8784	3139.5496	3147.8999	3162.607	3230.1039
CC1=CC=CC2CC2C1	CC1=CC=C[C@H]2C[C@H]2C1	
InChI=1S/C9H12/c1-7-3-2-4-8-6-9(8)5-7/h2-4,8-9H,5-6H2,1H3	InChI=1S/C9H12/c1-7-3-2-4-8-6-9(8)5-7/h2-4,8-9H,5-6H2,1H3/t8-,9+/m0/s1
