17
gdb 5065	3.28389	1.9534	1.2443	1.9686	72.5	-0.1707	0.0586	0.2294	963.4187	0.143167	-360.070753	-360.061847	-360.060902	-360.103798	32.534	
C	-0.0471560928	 1.5151157559	 0.1001680744	-0.509662
C	-0.0100708713	 0.0288763903	-0.0022211304	 0.310528
C	-0.0347946455	-0.775103649	-1.1256500089	 0.07972
N	-0.1294864195	-0.2980238382	-2.466208639	-0.620417
C	 0.0138262349	-2.1385259214	-0.6893121232	 0.188543
N	-0.0802255431	-3.2452237744	-1.5616198819	-0.610943
C	 0.0688298266	-2.1258523827	 0.6846697076	-0.181639
N	 0.054323982	-0.8009436378	 1.0857555433	-0.316008
H	 0.9059523743	 1.9425949344	 0.4390140202	 0.117464
H	-0.2653849347	 1.9255634141	-0.8885588852	 0.151239
H	-0.823999939	 1.8607229678	 0.7934616407	 0.116509
H	 0.768715418	-0.3077180638	-2.9418032781	 0.227144
H	-0.7543666327	-0.8875044313	-3.008245091	 0.235137
H	 0.5447787286	-3.1453920507	-2.3544722114	 0.227745
H	 0.1390507883	-4.1170531309	-1.0954693848	 0.23496
H	 0.104555534	-2.9293104975	 1.4024072852	 0.098294
H	 0.0859688618	-0.4917241149	 2.0401686625	 0.251386
77.7233	135.6649	168.9894	228.5811	251.8861	261.4786	283.4544	295.2668	403.5787	509.2177	572.0157	621.7216	636.9339	693.2111	728.7489	752.0087	820.0863	841.2391	972.2383	1050.1993	1063.0745	1104.3023	1121.2266	1218.8238	1247.7917	1289.0272	1346.9874	1406.7209	1445.6559	1482.0687	1488.1772	1513.3534	1584.4915	1625.9924	1650.9994	1681.9169	3009.8864	3054.4485	3124.7466	3258.9865	3475.3562	3505.3055	3545.809	3599.9108	3693.7208
CC1=C(N)C(N)=CN1	Cc1c(N)c(N)c[nH]1	
InChI=1S/C5H9N3/c1-3-5(7)4(6)2-8-3/h2,8H,6-7H2,1H3	InChI=1S/C5H9N3/c1-3-5(7)4(6)2-8-3/h2,8H,6-7H2,1H3
