15
gdb 48826	2.65187	1.60702	1.14205	2.2674	66.71	-0.254	-0.04	0.214	1031.2991	0.111441	-457.773974	-457.766191	-457.765247	-457.806588	28.527	
O	-1.0009384181	 1.3925752348	 0.0467327704	-0.273764
C	 0.1124843163	 0.9706860206	 0.2558373983	 0.070956
C	 1.3440308026	 1.750254057	-0.005219208	 0.073251
C	 1.2415584701	 3.2923271446	-0.0827578863	-0.348093
C	 1.5738752852	 2.5497122246	-1.3067044306	 0.092022
O	 2.9120282373	 2.4536198888	-1.7004775821	-0.254127
C	 3.683431087	 1.8564261043	-0.6645863814	-0.198008
C	 2.693866495	 1.2071295511	 0.3170817679	 0.305054
O	 2.9658249708	 0.3688447077	 1.1388446194	-0.310111
H	 0.2889643077	-0.047790085	 0.6555102057	 0.107747
H	 0.2181987849	 3.6354027797	 0.0271211585	 0.164183
H	 2.0054339168	 3.875788322	 0.4185902058	 0.139351
H	 0.8752124052	 2.4724990049	-2.1312792944	 0.141685
H	 4.3481738259	 1.1034295237	-1.0972294079	 0.152615
H	 4.3021764534	 2.5986570312	-0.1404837854	 0.137239
96.7366	135.3477	163.1453	211.8811	253.9731	362.784	437.8504	524.7489	573.0852	625.1181	650.9052	731.6648	810.6264	859.0443	898.4589	979.4797	999.0566	1023.9431	1042.5477	1065.2418	1087.1204	1098.756	1170.7883	1209.135	1266.9061	1298.8455	1326.7167	1389.8771	1422.7764	1461.5289	1486.7918	1798.5976	1837.1414	2939.4215	3012.7645	3092.9302	3137.1008	3196.7408	3237.524
O=CC12CC1OCC2=O	O=C[C@]12C[C@H]1OCC2=O	
InChI=1S/C6H6O3/c7-3-6-1-5(6)9-2-4(6)8/h3,5H,1-2H2	InChI=1S/C6H6O3/c7-3-6-1-5(6)9-2-4(6)8/h3,5H,1-2H2/t5-,6+/m1/s1
