14
gdb 129618	3.30351	1.29457	0.96369	0.9531	68.27	-0.2247	-0.021	0.2038	1132.2386	0.10184	-432.86755	-432.859515	-432.858571	-432.900787	28.974	
N	-0.1635754614	 1.3187677824	-0.4694425325	-0.621234
C	-0.0669519571	-0.0393996693	-0.1737382295	 0.076023
C	-1.0398579535	-0.989081713	-0.0384509608	 0.379141
C	-2.5293134486	-0.9953878197	-0.1948923821	-0.459425
C	-2.9739904578	-0.0230882796	-1.1942937131	 0.274117
N	-3.2866913077	 0.7733767763	-1.9709232341	-0.310745
O	-0.4866567168	-2.1675842376	 0.3446066188	-0.221581
N	 0.8783789518	-2.0101029869	 0.4673645592	-0.133597
C	 1.1189777186	-0.7595325948	 0.1638137777	-0.003425
H	 0.6614655794	 1.6852546969	-0.9244766895	 0.25428
H	-0.9903682736	 1.5677616868	-0.9985167067	 0.269625
H	-2.8550281694	-1.9964917782	-0.4987461145	 0.185316
H	-3.0390274931	-0.7743658818	 0.7530615048	 0.178968
H	 2.1358707691	-0.3925406516	 0.1907224522	 0.132538
47.8992	117.8648	209.5529	255.6111	265.6782	335.555	377.3161	411.0819	484.7794	619.6743	661.5729	700.5783	737.7626	765.3933	891.5572	933.9784	942.3324	952.0135	983.8119	1078.2339	1175.5636	1233.5408	1252.1796	1263.7157	1338.3959	1455.6259	1461.0628	1514.8909	1663.3273	1704.8481	2363.1409	3018.7683	3075.3256	3238.7535	3539.3786	3631.7966
NC1=C(CC#N)ON=C1	Nc1c(CC#N)onc1	
InChI=1S/C5H5N3O/c6-2-1-5-4(7)3-8-9-5/h3H,1,7H2	InChI=1S/C5H5N3O/c6-2-1-5-4(7)3-8-9-5/h3H,1,7H2
