17
gdb 10629	2.48223	1.79703	1.27399	4.5395	69.27	-0.2788	0.0312	0.31	1003.9745	0.140834	-363.864629	-363.855873	-363.854929	-363.897797	31.708	
C	 0.0589175201	 1.5140327804	-0.3496771435	-0.388667
C	-0.0165925625	 0.0966013261	 0.2251034219	-0.25215
C	-1.4112326142	-0.5157569675	 0.1286690623	 0.150369
C	-1.8676811398	-1.1320812805	-1.1974251623	-0.353013
C	-1.570648035	-2.020278892	-0.0246038295	 0.06349
O	-0.3950813321	-2.7649895949	 0.01086624	-0.415184
C	-2.4255292295	 0.1472601721	 0.9109330032	 0.250199
N	-3.2324760774	 0.6855022005	 1.5421212546	-0.351477
H	 1.072711294	 1.9132944758	-0.2534594492	 0.119227
H	-0.209456367	 1.5266958023	-1.4112448814	 0.117099
H	-0.6209348487	 2.1923919389	 0.1751204869	 0.13984
H	 0.6766094634	-0.5701115758	-0.2932637388	 0.120502
H	 0.2891117022	 0.1027438015	 1.2774299485	 0.119379
H	-2.8972039083	-0.9958072953	-1.5063244605	 0.138201
H	-1.1324427763	-1.1050815687	-1.9945766493	 0.129132
H	-2.4177478673	-2.4672858171	 0.4936105102	 0.11603
H	-0.4776981718	-3.4863798158	-0.621946293	 0.297023
81.9618	150.1827	159.4145	185.3598	224.6719	248.1015	298.4676	357.3444	431.2005	504.6505	572.2578	607.3181	653.8688	786.6314	822.4702	901.8704	918.397	977.4751	1018.8988	1054.7684	1063.0884	1101.3952	1123.9914	1185.5849	1249.2039	1265.0506	1308.1383	1332.708	1363.4575	1414.6502	1423.7202	1475.345	1489.7458	1498.6073	1508.3074	2347.1038	3037.7699	3049.0732	3096.6608	3110.9016	3117.1152	3118.985	3139.8236	3235.8058	3807.6192
CCC1(CC1O)C#N	CC[C@]1(C[C@H]1O)C#N	
InChI=1S/C6H9NO/c1-2-6(4-7)3-5(6)8/h5,8H,2-3H2,1H3	InChI=1S/C6H9NO/c1-2-6(4-7)3-5(6)8/h5,8H,2-3H2,1H3/t5-,6+/m1/s1
