18
gdb 64312	2.33084	1.7728	1.26238	4.3311	76.04	-0.2154	-0.0296	0.1858	1036.4093	0.148072	-439.122947	-439.114266	-439.113322	-439.155785	33.369	
C	-0.0320163866	 1.5564918656	-0.0425669971	-0.427358
C	 0.0155096986	 0.0307642626	 0.0097968127	 0.250512
O	-1.3073409606	-0.5163777175	 0.0784303777	-0.469915
C	 0.6421674965	-0.5346391761	-1.2659188129	-0.184749
N	 0.9386892046	-1.951627127	-1.1425243421	-0.287141
C	 1.450823274	-2.4231841969	 0.0155590981	 0.040741
C	 1.444355384	-1.7250241596	 1.1838566837	-0.244895
C	 0.7528876969	-0.4616545396	 1.2902647095	 0.34199
O	 0.6121047099	 0.1661489528	 2.3313872221	-0.384769
H	 0.9655296997	 1.9847328937	-0.1836477665	 0.114739
H	-0.6804687619	 1.8841454062	-0.860357628	 0.111771
H	-0.420886898	 1.935634188	 0.9047245471	 0.13845
H	-1.6645926161	-0.2689683026	 0.9396896939	 0.289183
H	-0.0505835087	-0.3842416409	-2.098581821	 0.124751
H	 1.5662461993	 0.0257234944	-1.4752045655	 0.109517
H	 1.0944626305	-2.4757142636	-1.9862678164	 0.255471
H	 1.862897706	-3.427087005	-0.0356577801	 0.1229
H	 1.861163602	-2.1593418045	 2.0831681248	 0.098802
81.4911	180.5608	215.8024	245.8653	286.436	322.752	350.7958	364.6529	383.8597	481.0124	495.9859	515.9764	580.234	682.3494	744.0129	828.8918	853.3243	882.5324	928.4874	980.3884	994.9	1011.0529	1107.8237	1132.0989	1151.7355	1163.3825	1239.1848	1269.0912	1312.1184	1365.1522	1390.9101	1400.4845	1435.4587	1473.0138	1482.9004	1498.8933	1548.2758	1661.0048	1734.6013	2991.0514	3042.5152	3089.7857	3113.1791	3136.4493	3173.9259	3218.1689	3659.8046	3793.7899
CC1(O)CNC=CC1=O	C[C@@]1(O)CNC=CC1=O	
InChI=1S/C6H9NO2/c1-6(9)4-7-3-2-5(6)8/h2-3,7,9H,4H2,1H3	InChI=1S/C6H9NO2/c1-6(9)4-7-3-2-5(6)8/h2-3,7,9H,4H2,1H3/t6-/m1/s1
