21
gdb 70441	2.60266	1.39016	1.19134	1.6917	81.48	-0.2276	0.0719	0.2994	1159.6122	0.181883	-387.034324	-387.025616	-387.024672	-387.067786	33.69	
C	 0.6536064766	 1.4325673467	-0.4086134516	-0.496975
C	 0.2100504932	 0.013620843	-0.1999474751	 0.233792
C	-1.1349287057	-0.3757747721	 0.4018377751	-0.346118
C	 0.1290721281	-0.8494268081	 1.0405238235	 0.06498
O	 0.6187822321	-2.0120862992	 0.3721208676	-0.311227
C	 0.8675095377	-1.2234470619	-0.8332822099	 0.08641
C	 0.3811861872	-1.8726870426	-2.1016759527	-0.01476
C	-0.9169661171	-1.5227483511	-2.7822241753	-0.264292
C	 0.3933882302	-1.0977992574	-3.3966902251	-0.275305
H	 1.7467718446	 1.509864262	-0.4227874622	 0.120295
H	 0.2775534317	 1.8409159857	-1.3546282496	 0.12279
H	 0.2846659543	 2.0811184664	 0.392639146	 0.120609
H	-1.6387784208	 0.4437080794	 0.9067509928	 0.108831
H	-1.7891033689	-1.1003201912	-0.0718917953	 0.119987
H	 0.4288878506	-0.6859735219	 2.0696877342	 0.0996
H	 1.9532811086	-1.059946118	-0.9067528228	 0.077453
H	 0.6918446254	-2.912292519	-2.1705048328	 0.096534
H	-1.4740875168	-2.3229160901	-3.2571002903	 0.111899
H	-1.5345118363	-0.7485887005	-2.3430377215	 0.120329
H	 0.6475913671	-0.0433314175	-3.3529129707	 0.112592
H	 0.7397729283	-1.5979842527	-4.2942267043	 0.112577
64.0213	121.2797	165.067	198.6602	259.6913	300.2419	328.4213	390.2678	464.3908	565.4978	649.5222	723.6102	781.0965	809.4752	825.0657	844.7934	893.4864	924.9916	936.9152	958.7776	1000.3691	1011.2004	1026.1486	1050.5819	1055.1291	1077.0464	1088.5347	1098.3655	1107.8761	1137.4208	1158.8992	1201.3901	1226.863	1246.5222	1269.7534	1298.1037	1369.3196	1398.3592	1407.4059	1424.6353	1466.8158	1484.7908	1486.8213	1498.3289	1507.4676	2985.9112	3019.425	3077.0075	3095.295	3119.7648	3129.0568	3138.5983	3143.94	3173.8395	3208.8133	3210.6674	3231.6173
CC12CC1OC2C1CC1	C[C@]12C[C@H]1O[C@H]2C1CC1	
InChI=1S/C8H12O/c1-8-4-6(8)9-7(8)5-2-3-5/h5-7H,2-4H2,1H3	InChI=1S/C8H12O/c1-8-4-6(8)9-7(8)5-2-3-5/h5-7H,2-4H2,1H3/t6-,7+,8+/m1/s1
