19
gdb 52927	5.84132	0.77247	0.77207	1.7222	88.49	-0.229	0.0281	0.2571	1582.7862	0.156592	-385.81156	-385.802116	-385.801172	-385.847332	34.481	
C	 0.0198096284	 1.3753660918	-0.1006303675	-0.519287
C	 0.009193714	-0.0770887935	-0.0340416733	 0.40763
C	 0.0030290763	-1.2808109542	 0.0145807856	-0.419556
C	-0.01366095	-2.7080761652	 0.0956198476	 0.352886
C	 0.8006576814	-3.6528307318	 1.0237793759	-0.288184
C	 0.0571745994	-4.5135655587	-0.0311305635	 0.380152
C	 0.2039810059	-5.9651535894	-0.3570831622	-0.512123
C	-1.2254034218	-3.6752755558	 0.2112121008	-0.288185
O	 0.4612333081	-3.5208194092	-1.0660349793	-0.370068
H	 0.6563693077	 1.8056049206	 0.6802779214	 0.151929
H	 0.4028948898	 1.7181429182	-1.0680647783	 0.157114
H	-0.9876903383	 1.7874738777	 0.0228326321	 0.151929
H	 1.8821970296	-3.5932033424	 0.89603803	 0.108051
H	 0.4917288301	-3.7280091953	 2.0697184288	 0.092998
H	-0.1273185965	-6.5797313499	 0.4859582466	 0.125814
H	-0.3987601332	-6.2246583036	-1.232692889	 0.133926
H	 1.2494923775	-6.2063989641	-0.5716492334	 0.133926
H	-1.7233468551	-3.752548036	 1.1813454081	 0.092998
H	-1.9199105432	-3.6353233391	-0.6288261705	 0.108051
15.4846	85.9843	86.931	192.4024	252.0538	255.4291	339.7646	357.6361	435.6112	496.8504	499.9876	545.7906	606.5205	634.5504	700.8783	782.3874	898.9173	937.6937	943.7025	973.7694	986.2653	1052.2457	1054.8563	1062.6663	1083.3341	1110.1663	1154.4213	1161.1632	1174.5304	1201.2487	1284.2347	1379.0654	1412.5469	1419.2592	1464.3782	1474.5522	1476.6068	1477.1465	1489.003	1521.522	2368.1882	3027.8938	3038.521	3055.1701	3065.064	3089.7836	3091.3978	3112.1412	3114.005	3143.6533	3148.337	15.5091	85.9853	86.9318	192.402	252.0537	255.4296	339.7647	357.6359	435.6114	496.8512	499.987	545.7919	606.5201	634.5503	700.878	782.387	898.917	937.6937	943.7025	973.7694	986.2656	1052.245	1054.8557	1062.6666	1083.3341	1110.1669	1154.4216	1161.1636	1174.5306	1201.2488	1284.2349	1379.0657	1412.5464	1419.2593	1464.3788	1474.5512	1476.6055	1477.1469	1489.0034	1521.5225	2368.188	3027.8939	3038.5209	3055.1701	3065.064	3089.7837	3091.3979	3112.1412	3114.005	3143.6533	3148.337
CC#CC12CC(C)(C1)O2	CC#C[C@@]12C[C@@](C)(C1)O2	
InChI=1S/C8H10O/c1-3-4-8-5-7(2,6-8)9-8/h5-6H2,1-2H3	InChI=1S/C8H10O/c1-3-4-8-5-7(2,6-8)9-8/h5-6H2,1-2H3/t7-,8+
