18
gdb 124852	3.60078	1.27902	1.02629	3.8983	78.22	-0.2332	0.0022	0.2354	1166.5223	0.149124	-398.124063	-398.116062	-398.115118	-398.156839	30.699	
C	 0.0546108465	 1.5211667423	-0.0689209977	-0.48161
C	 0.0236524483	 0.0064207664	-0.0357490539	 0.256796
C	 1.3376508906	-0.7451665332	-0.1626111514	-0.294219
C	 0.6327482054	-0.7013254102	 1.1625726289	-0.294184
C	-1.1703784869	-0.6147313145	-0.6502351248	 0.302094
C	-2.2621046155	-0.0262210127	-1.2496372515	-0.204243
N	-3.0362858184	-1.0744422574	-1.6267204748	-0.158505
N	-2.4767702674	-2.2468561587	-1.2909886957	-0.109158
N	-1.3501328935	-1.971199792	-0.701311042	-0.275584
H	 0.9663246653	 1.8988226749	 0.4023360985	 0.116829
H	 0.0317269569	 1.8998207366	-1.0976848658	 0.116352
H	-0.7989779522	 1.9510017993	 0.4685815372	 0.116388
H	 1.3174313773	-1.6802689454	-0.7096425966	 0.135162
H	 2.2377493225	-0.1531492718	-0.2919333453	 0.10686
H	 1.0452229674	-0.0788919551	 1.9498701378	 0.106856
H	 0.1424574908	-1.6070072822	 1.4993215742	 0.135145
H	-2.5411946954	 0.9968430038	-1.4317102644	 0.144143
H	-3.9256107718	-1.0688881501	-2.0997312828	 0.280877
57.8057	174.4768	180.8057	237.7122	302.5675	323.2381	439.4919	458.5769	537.9192	562.3373	696.0907	745.0798	785.5198	792.1469	839.2089	848.4307	956.1185	958.6177	989.8884	1019.6806	1046.2864	1062.1528	1073.9894	1087.5943	1119.8533	1133.7729	1199.4559	1202.1029	1281.3219	1293.1276	1355.3225	1369.5936	1414.647	1457.853	1487.8578	1489.3715	1497.7673	1504.8403	1594.8573	3021.1469	3079.0521	3106.1271	3131.8451	3134.9977	3221.6609	3234.6343	3291.1802	3659.5919
CC1(CC1)C1=CNN=N1	CC1(CC1)c1c[nH]nn1	
InChI=1S/C6H9N3/c1-6(2-3-6)5-4-7-9-8-5/h4H,2-3H2,1H3,(H,7,8,9)	InChI=1S/C6H9N3/c1-6(2-3-6)5-4-7-9-8-5/h4H,2-3H2,1H3,(H,7,8,9)
