19
gdb 87798	2.79268	1.4857	1.24005	2.6466	75.52	-0.2342	0.0584	0.2926	1077.4926	0.157846	-422.956598	-422.948175	-422.947231	-422.98926	33.011	
C	 0.0541365005	 1.5928626973	 0.0924546155	-0.423299
C	 0.1681759861	 0.0853106988	 0.0602542024	-0.031698
C	 1.4550888397	-0.6664270497	-0.0892833601	 0.077666
O	 2.5591363821	 0.0037155624	 0.5498986899	-0.329853
C	 1.8922225024	-0.1383294147	 1.8218279771	 0.424045
C	 2.7109374281	-0.4643140907	 3.0339729022	-0.407988
C	 2.1377271382	 0.934745416	 2.8288147764	 0.064355
O	 2.9673434455	 1.9902505655	 2.4485256578	-0.440284
C	 0.6765215511	-0.7826924355	 1.2054024785	-0.260285
H	 0.9222041312	 2.0525925642	 0.5683155215	 0.138505
H	-0.0232782154	 1.9928502524	-0.924203348	 0.117936
H	-0.8385077378	 1.905313546	 0.6441745595	 0.118609
H	-0.6402253332	-0.4179299947	-0.4690471774	 0.092407
H	 1.7034465574	-1.3780215892	-0.8675955704	 0.108405
H	 2.2713125578	-1.0918860553	 3.8032568732	 0.116526
H	 3.7769768753	-0.5942376114	 2.877307493	 0.128393
H	 1.3323351161	 1.2547746073	 3.4836373594	 0.10402
H	 3.2086720977	 1.832641206	 1.5251529944	 0.299426
H	 0.1281402673	-1.6154081547	 1.6242674849	 0.103111
109.9599	147.4019	180.9661	223.4817	270.5591	300.6149	390.9158	417.9067	471.3683	528.6647	618.3142	646.5617	724.2905	797.9049	812.1449	852.7686	881.8076	892.5366	944.9623	990.6919	995.2639	1024.468	1035.9319	1055.3241	1056.4389	1090.3138	1097.318	1130.018	1153.0744	1175.6764	1197.9728	1265.8184	1304.1403	1326.0498	1388.253	1415.4008	1421.3936	1433.893	1494.7189	1497.6696	1501.4031	3039.2737	3095.9306	3119.7259	3122.6709	3141.2598	3149.7598	3184.0569	3205.3844	3218.4794	3745.3922
CC1C2OC3(CC3O)C12	C[C@H]1[C@H]2O[C@]3(C[C@H]3O)[C@@H]12	
InChI=1S/C7H10O2/c1-3-5-6(3)9-7(5)2-4(7)8/h3-6,8H,2H2,1H3	InChI=1S/C7H10O2/c1-3-5-6(3)9-7(5)2-4(7)8/h3-6,8H,2H2,1H3/t3-,4-,5+,6-,7+/m1/s1
