18
gdb 56327	2.70764	0.90173	0.72747	3.6193	71.2	-0.2649	0.0068	0.2718	1544.2015	0.144897	-476.253347	-476.243057	-476.242112	-476.291414	34.151	
C	-0.7303453529	 1.3104846323	-0.1984059276	-0.481238
C	-0.2500543594	-0.1164179546	-0.108190267	 0.435472
O	 0.8951811625	-0.4832446954	-0.1429635059	-0.342127
O	-1.2984361382	-0.9669437044	 0.0178009709	-0.245504
C	-0.9672878697	-2.3625190184	 0.0588161644	-0.061637
C	-2.2685319591	-3.1405129366	 0.068402478	-0.106694
O	-2.9554704552	-3.0365816211	-1.171862261	-0.180069
C	-3.8555541004	-2.0380765653	-1.300305983	 0.136032
N	-4.3888716028	-1.8163086637	-2.4213475301	-0.441128
H	 0.1282431256	 1.9797357337	-0.230637066	 0.152454
H	-1.3354034744	 1.4401761432	-1.1006081435	 0.15769
H	-1.365104343	 1.5524158819	 0.6582989216	 0.148008
H	-0.3619233579	-2.6234812632	-0.8134164926	 0.142651
H	-0.3828549429	-2.5806580808	 0.9595488227	 0.122785
H	-2.0500992598	-4.2024191879	 0.2126159272	 0.129791
H	-2.9070040136	-2.8042225923	 0.8957818638	 0.115915
H	-4.0522852222	-1.5046154466	-0.3615146337	 0.089502
H	-5.0630386367	-1.0582523009	-2.3391751482	 0.228096
25.8144	46.8404	63.1928	78.1455	132.7029	177.2372	193.4185	282.1724	373.7985	408.7311	484.9301	602.8868	615.8619	641.1348	817.0001	846.9259	892.5714	963.8297	999.5328	1017.9129	1039.3569	1065.1941	1088.3579	1130.3305	1154.9487	1247.9722	1259.1984	1275.4932	1341.8752	1388.3303	1401.0241	1412.4139	1427.9592	1469.671	1475.215	1488.4827	1497.1074	1746.9463	1833.0647	3023.9898	3039.5379	3051.2041	3057.6471	3098.823	3110.7572	3122.8524	3171.2381	3518.7852
CC(=O)OCCOC=N	CC(=O)OCCO[CH][NH]	
InChI=1S/C5H9NO3/c1-5(7)9-3-2-8-4-6/h4,6H,2-3H2,1H3	InChI=1S/C5H9NO3/c1-5(7)9-3-2-8-4-6/h4,6H,2-3H2,1H3
