20
gdb 70301	3.55197	1.29903	1.18072	1.6803	78.61	-0.2285	0.0822	0.3107	1126.4734	0.171183	-403.11804	-403.109973	-403.109028	-403.150217	32.215	
C	 0.0880836263	 1.492641601	 0.011146339	-0.476517
C	-0.0377200179	-0.0095512082	-0.0082922735	 0.342049
C	-0.8618077829	-0.7323605891	 0.997892321	-0.297906
N	 0.6106038663	-0.7732136889	 1.091486252	-0.139895
C	 1.1847213945	-1.9937670783	 0.5007951469	-0.229945
C	 0.5810831287	-2.1457273414	-0.8936925157	 0.393336
C	 0.8470996767	-3.2634608887	-1.7990113972	-0.258403
O	-0.3876260977	-3.1911751685	-1.0797059268	-0.271527
C	 0.1821579561	-0.7429646488	-1.3289973653	-0.349404
H	 1.0535483271	 1.8115145609	-0.3982539202	 0.115714
H	-0.701519028	 1.958305438	-0.5895652379	 0.117157
H	 0.0113853106	 1.8731546376	 1.0327504091	 0.128298
H	-1.3444835396	-0.1725298542	 1.7942043323	 0.11033
H	-1.388240875	-1.6332836191	 0.692126682	 0.13651
H	 2.2712367543	-1.8583978349	 0.4384489716	 0.108728
H	 0.9811488899	-2.8714283301	 1.1209625009	 0.120044
H	 0.7708563951	-3.1185473562	-2.8763936641	 0.112897
H	 1.5227096363	-4.0614445926	-1.4910283618	 0.113172
H	-0.7004874063	-0.7660239612	-1.9735899915	 0.119844
H	 0.9971913354	-0.2631925474	-1.885761171	 0.105516
106.8674	187.458	210.1686	261.5114	315.2394	385.2757	389.986	410.5533	434.5497	520.4906	608.2952	717.3564	770.7886	780.0271	838.8582	879.638	898.5614	919.076	967.3214	974.7401	986.9815	1025.4409	1073.2421	1097.5473	1118.5107	1125.534	1161.7519	1178.8931	1192.9971	1235.7011	1239.008	1247.7021	1306.7395	1329.1822	1381.1508	1419.4564	1432.3768	1473.2728	1484.4452	1488.738	1493.9935	1514.1429	1534.5431	3026.6178	3029.5975	3034.8443	3074.6735	3087.7817	3095.1916	3097.7971	3106.3061	3119.2958	3157.4855	3192.8193
CC12CN1CC1(CO1)C2	C[C@]12CN1C[C@]1(CO1)C2	
InChI=1S/C7H11NO/c1-6-2-7(5-9-7)4-8(6)3-6/h2-5H2,1H3	InChI=1S/C7H11NO/c1-6-2-7(5-9-7)4-8(6)3-6/h2-5H2,1H3/t6-,7-,8?/m0/s1
