16
gdb 123884	5.16708	1.07233	0.91416	4.9747	72.17	-0.2279	-0.0295	0.1983	1226.5171	0.125883	-434.003144	-433.995732	-433.994788	-434.03585	26.983	
C	-0.1257985935	 1.5567388745	 0.0202117247	-0.235121
C	 1.4132931994	 1.5283393433	-0.1808099303	-0.165276
N	 1.4145188195	 0.1423814527	 0.3190851296	-0.152071
C	-0.0538109299	 0.0235190989	 0.2576678913	-0.179265
C	 2.3047873716	-0.8149875121	-0.0656038259	 0.391025
N	 3.4779891057	-0.545196519	-0.5935555713	-0.197549
O	 4.0774499022	-1.7759739313	-0.788242359	-0.15672
N	 3.2680789626	-2.7926282631	-0.3938545073	-0.056787
C	 2.1797008518	-2.2363696985	 0.0538030911	-0.11363
H	-0.4395962793	 2.1166907067	 0.9018944132	 0.123569
H	-0.7148812957	 1.8772137467	-0.8383768204	 0.121252
H	 1.7345956031	 1.6008196419	-1.2271476284	 0.123635
H	 2.0113525424	 2.2191013203	 0.4196872488	 0.124955
H	-0.5132393221	-0.3592316929	 1.1745245302	 0.118404
H	-0.4069787464	-0.5724515172	-0.5944347455	 0.112322
H	 1.3643245885	-2.8282912608	 0.4385618994	 0.141258
88.1678	92.3222	155.8904	174.5691	357.4411	443.2428	490.3241	618.9568	725.9515	753.6134	847.4486	865.4711	878.9568	907.1903	923.4414	942.5936	947.9528	1011.7578	1040.873	1092.1162	1138.1771	1142.8315	1161.3431	1205.0262	1230.0517	1254.6453	1270.9897	1298.9993	1349.2509	1435.4144	1490.5031	1510.6338	1519.798	1534.6333	1637.7922	3011.5447	3030.9867	3069.6537	3086.9772	3096.856	3152.257	3269.8065
C1CN(C1)C1=NON=C1	C1CN(C1)c1nonc1	
InChI=1S/C5H7N3O/c1-2-8(3-1)5-4-6-9-7-5/h4H,1-3H2	InChI=1S/C5H7N3O/c1-2-8(3-1)5-4-6-9-7-5/h4H,1-3H2
