23
gdb 117975	2.72325	0.85423	0.77874	1.2553	78.12	-0.2482	0.0649	0.3131	1589.9338	0.201516	-462.559056	-462.547368	-462.546424	-462.595645	42.773	
C	-0.0277930275	 1.5386630961	-0.0108635437	-0.423715
C	 0.0150567309	 0.007259999	 0.0399358659	 0.328711
C	 0.632545386	-0.4743164863	 1.3544874081	-0.41164
O	-1.3160396468	-0.5226669805	 0.0282731144	-0.455406
C	 0.7787639328	-0.5343268733	-1.2051309954	 0.093427
O	 2.0901303411	 0.0236095237	-1.3028334584	-0.43763
C	 0.8041727541	-2.060549673	-1.3036504817	-0.201076
C	 1.2917878746	-2.5500004061	-2.6616918012	-0.081269
O	 1.3502386749	-3.9685876544	-2.6159450097	-0.423264
H	 0.9804326014	 1.9579675979	-0.0214873279	 0.132567
H	-0.5338201951	 1.879203301	-0.923266292	 0.098807
H	-0.5751025058	 1.9312748735	 0.8506743749	 0.115689
H	 0.093047408	-0.0389125795	 2.1996267979	 0.124149
H	 0.5721749358	-1.5617181744	 1.4423291922	 0.129217
H	 1.6804579022	-0.1686097731	 1.4293278512	 0.105723
H	-1.7935202372	-0.1048049683	-0.6968766032	 0.276183
H	 0.2512812467	-0.1354324219	-2.0847191235	 0.068078
H	 2.6528350793	-0.4445482598	-0.6764703386	 0.28145
H	 1.4652472041	-2.4761646861	-0.5314256903	 0.095234
H	-0.1973247526	-2.4523143084	-1.1065082866	 0.124976
H	 0.6007531811	-2.2046756567	-3.448849893	 0.08119
H	 2.2771595433	-2.1123763613	-2.8792239528	 0.094027
H	 1.6916261886	-4.2811750782	-3.4587179867	 0.284573
65.4314	93.2998	95.5166	145.8534	210.12	239.6694	261.3741	267.8643	286.3444	299.6046	307.7976	312.3822	353.8684	382.7478	427.0033	493.1929	536.3194	568.9444	775.1844	802.156	902.097	931.7651	946.8859	991.9195	999.6727	1027.0574	1075.5736	1093.0901	1097.9145	1129.5332	1203.4016	1215.3837	1232.283	1243.2678	1288.2113	1301.206	1322.9717	1356.5412	1384.5131	1404.0172	1412.9629	1424.4316	1458.9742	1481.1167	1486.0161	1493.5058	1502.0066	1508.3565	1531.6237	2960.6971	2992.9446	3007.413	3025.6646	3028.9959	3048.2439	3097.2934	3104.3828	3117.9261	3127.8308	3136.927	3801.4101	3805.3677	3829.4458
CC(C)(O)C(O)CCO	CC(C)(O)[C@@H](O)CCO	
InChI=1S/C6H14O3/c1-6(2,9)5(8)3-4-7/h5,7-9H,3-4H2,1-2H3	InChI=1S/C6H14O3/c1-6(2,9)5(8)3-4-7/h5,7-9H,3-4H2,1-2H3/t5-/m0/s1
