17
gdb 125873	3.6256	1.09026	1.04654	3.8014	74.	-0.2563	-0.0364	0.2199	1201.3283	0.135708	-417.976389	-417.968304	-417.96736	-418.010204	29.817	
C	-0.0906150409	 1.5346463404	-0.1828756355	-0.409285
C	-0.0205961154	 0.0369451804	 0.0028783429	 0.021493
C	 1.2652240286	-0.7129527627	-0.220778694	-0.308293
C	 0.7118509508	-0.5943042129	 1.1810616473	-0.133829
C	 1.3927661655	 0.2160268421	 2.2049705472	 0.262334
C	 2.6440034016	 0.7450833598	 2.2812737439	-0.053303
O	 2.7839054578	 1.3965711407	 3.4333583497	-0.164862
N	 1.5367547505	 1.2502839846	 4.1219293108	-0.005092
N	 0.7720779472	 0.5757730935	 3.3912352098	-0.177725
H	 0.8350606928	 2.0220467691	 0.1369359457	 0.116338
H	-0.2537086011	 1.7874428954	-1.235911834	 0.12076
H	-0.9108192088	 1.9684084139	 0.3987582156	 0.130158
H	-0.9262763688	-0.4917815493	-0.2812233801	 0.094622
H	 1.2400133211	-1.6873218891	-0.6952815478	 0.11973
H	 2.1432112762	-0.1248358084	-0.4693665011	 0.111454
H	 0.2391191875	-1.4828024965	 1.5884913129	 0.109618
H	 3.4948116755	 0.727269699	 1.6208481169	 0.165882
29.3377	107.0351	165.7265	208.8759	279.0655	349.837	418.7571	508.0394	617.7014	621.4806	662.6384	745.4415	779.8673	841.2981	855.3278	884.0579	929.8853	978.3061	1019.7775	1040.7624	1079.5111	1091.1764	1117.3806	1146.4633	1151.2012	1196.0707	1204.8441	1244.6359	1318.0231	1385.5782	1405.8621	1423.0851	1475.1974	1490.0596	1494.7333	1503.186	1624.3761	3034.6175	3097.3971	3106.7465	3132.0649	3144.5858	3154.9651	3216.2489	3287.6104
CC1CC1C1=CON=N1	C[C@H]1C[C@H]1c1conn1	
InChI=1S/C6H8N2O/c1-4-2-5(4)6-3-9-8-7-6/h3-5H,2H2,1H3	InChI=1S/C6H8N2O/c1-4-2-5(4)6-3-9-8-7-6/h3-5H,2H2,1H3/t4-,5+/m0/s1
