20
gdb 22134	3.36157	0.93564	0.85632	1.3906	78.8	-0.2411	0.0115	0.2526	1413.7186	0.167326	-440.234794	-440.224463	-440.223519	-440.270941	37.164	
C	 1.7156264631	-2.1588350512	-0.5778060401	-0.482738
C	 0.7267871216	-1.063977052	-0.2791210107	 0.360435
C	 0.1335649358	-0.9494073004	 1.1044309892	-0.344819
C	 1.1457915074	-0.5467619126	 2.173034503	 0.417696
C	 1.8051848934	 0.8032212252	 2.0004175475	-0.453548
C	 1.0305324781	-1.1385731929	 3.5143778349	-0.234183
O	 2.0265725937	-1.6026512644	 2.5988621834	-0.270342
N	 0.3196010974	-0.2020609401	-1.1324310464	-0.171688
O	 0.9082208882	-0.3999901369	-2.3930804216	-0.398417
H	 1.2426879722	-2.9334861454	-1.1933278806	 0.139821
H	 2.5553022342	-1.7690893842	-1.1591068684	 0.145734
H	 2.0811843712	-2.6133844322	 0.3431038741	 0.150737
H	-0.67210731	-0.2093665284	 1.075209929	 0.118194
H	-0.3005396375	-1.9153799815	 1.389294831	 0.10857
H	 1.0580988159	 1.6033774663	 2.0308505079	 0.125078
H	 2.5374689194	 0.9744201504	 2.7927656096	 0.124944
H	 2.3160246879	 0.8661757313	 1.0350080002	 0.136362
H	 1.4106329659	-0.59469802	 4.3782495728	 0.11239
H	 0.2276512858	-1.842948966	 3.7300315815	 0.111043
H	 0.5208206563	 0.3144352849	-2.9093143563	 0.30473
39.6862	67.7546	83.6678	141.4057	186.4126	279.9511	301.7324	318.7153	343.9567	385.3259	399.7449	404.6223	473.4538	544.1132	665.6633	732.0827	818.8239	834.8397	903.4136	925.4118	930.937	988.2718	1013.9005	1051.4385	1065.817	1104.266	1135.2014	1161.4293	1207.6297	1261.1947	1295.7506	1322.1172	1396.5803	1400.1135	1402.864	1423.4223	1458.9029	1482.8724	1483.4293	1486.8871	1494.7229	1532.2074	1726.4151	3032.9676	3040.5528	3042.1791	3078.8054	3093.7835	3102.9964	3107.6974	3128.9242	3156.423	3164.1059	3821.905
CC(CC1(C)CO1)=NO	CC(=NO)C[C@@]1(C)CO1	
InChI=1S/C6H11NO2/c1-5(7-8)3-6(2)4-9-6/h8H,3-4H2,1-2H3	InChI=1S/C6H11NO2/c1-5(7-8)3-6(2)4-9-6/h8H,3-4H2,1-2H3/t6-/m0/s1
