24
gdb 119043	1.72461	1.43012	1.02345	1.2767	86.14	-0.2209	0.0822	0.3031	1355.1771	0.214926	-405.508259	-405.497166	-405.496222	-405.545084	39.759	
C	-1.7316439884	-1.3495736766	 0.8421204802	-0.387212
C	-0.5774149184	-0.4327568669	 0.4139236875	-0.246931
C	 0.5718153609	-0.400885948	 1.4120949514	 0.300805
C	 0.2222968441	 0.1648595079	 2.782639543	-0.120593
O	-0.4388059283	 1.4149830352	 2.7372279941	-0.235157
C	 0.4012667866	 2.5012186506	 2.4072746059	-0.231002
C	 1.6223533006	-1.4636421784	 1.3636641975	-0.297516
N	 1.952120759	-0.0922066704	 0.9970200624	-0.116375
C	 2.2825079425	 0.1819472509	-0.392501043	-0.318924
H	-2.2024977905	-0.9989793052	 1.764799336	 0.130739
H	-2.5061163562	-1.3789947434	 0.0695193019	 0.112081
H	-1.3834686127	-2.3746121061	 1.0084635037	 0.11392
H	-0.2106941389	-0.7592766766	-0.5630509468	 0.094126
H	-0.9597132724	 0.5864280992	 0.2863046698	 0.112274
H	-0.4686114766	-0.5108252732	 3.2988410371	 0.103884
H	 1.1463020989	 0.2336980405	 3.3761327179	 0.089893
H	-0.1961710624	 3.4101734199	 2.51781276	 0.119888
H	 1.2694225312	 2.5581355972	 3.0809358115	 0.1077
H	 0.7767100297	 2.446678013	 1.3764562683	 0.11239
H	 2.082825963	-1.8448295046	 2.2731645432	 0.107247
H	 1.5382629243	-2.197712476	 0.5616780328	 0.101778
H	 1.8036382261	-0.4843620507	-1.1262517129	 0.102363
H	 2.0096410909	 1.2138464192	-0.6383353377	 0.120948
H	 3.3662264171	 0.0832806626	-0.5147958135	 0.123676
38.6213	72.8035	91.9814	150.8941	163.899	212.1815	219.15	240.0608	259.4297	309.1402	389.1192	408.2766	441.9657	506.792	538.8528	711.1293	752.0408	805.6339	893.9369	907.4913	952.5474	996.1774	1026.94	1038.9846	1073.1274	1103.7964	1119.5863	1144.3873	1152.8936	1175.1506	1182.7578	1207.0899	1223.6769	1279.7476	1297.6347	1330.0091	1360.3332	1377.978	1408.5394	1426.9132	1450.8587	1470.8951	1476.401	1482.7196	1488.6069	1489.9284	1499.1653	1504.4391	1507.0274	1509.8888	1513.7909	2980.8641	2985.8439	2995.576	3036.5199	3039.5886	3045.0384	3061.2951	3068.5691	3075.8813	3086.8462	3094.6554	3103.6547	3107.7082	3116.8406	3157.4185
CCC1(COC)CN1C	CC[C@@]1(COC)CN1C	
InChI=1S/C7H15NO/c1-4-7(6-9-3)5-8(7)2/h4-6H2,1-3H3	InChI=1S/C7H15NO/c1-4-7(6-9-3)5-8(7)2/h4-6H2,1-3H3/t7-,8?/m0/s1
