18
gdb 111169	4.21296	1.02189	0.95156	1.3059	72.79	-0.241	0.072	0.313	1256.9462	0.147797	-438.969652	-438.961583	-438.960639	-439.002494	30.894	
O	 0.1037307822	 1.421144818	-0.1533742693	-0.421002
C	 0.0739471298	 0.0304242238	 0.151174335	-0.11992
C	-1.3421581307	-0.5190542357	 0.1063917458	 0.0424
C	-2.0041957686	-0.8240031711	-1.2759573288	-0.172857
N	-1.0342455472	-1.9960905044	-1.4001430887	-0.334784
C	-1.5640898961	-2.060615436	 0.033032803	-0.17721
C	-2.9658453133	-1.7487777651	-0.5144674205	 0.552479
C	-4.343605933	-1.7468528329	-0.046894646	-0.311516
O	-3.8699956679	-2.6612411249	-1.0734919262	-0.301412
H	-0.0607390974	 1.513416482	-1.0968877652	 0.283472
H	 0.7269414959	-0.5479000628	-0.5102234502	 0.11993
H	 0.4615005796	-0.0545634576	 1.1724340288	 0.1061
H	-1.9914617615	 0.0102010458	 0.8091410839	 0.079609
H	-2.2082991563	-0.1480226803	-2.1074110767	 0.086084
H	-1.4775555563	-2.7365075204	-1.951304757	 0.227598
H	-1.2456423262	-2.8319852235	 0.7345948362	 0.090929
H	-4.6032262425	-2.2180755503	 0.8995272196	 0.12498
H	-5.0428626507	-0.9895359848	-0.3971118238	 0.125119
78.7687	129.9024	178.3621	284.2632	288.7367	332.6443	347.9895	431.7385	506.8523	619.7314	700.3669	749.021	788.9065	836.7302	863.8635	885.6128	909.806	1003.426	1011.7166	1064.4612	1067.1917	1094.3621	1108.5655	1114.2038	1130.1249	1139.4764	1162.3548	1174.497	1193.9566	1208.4605	1242.7083	1286.5031	1292.1747	1367.2905	1406.6363	1423.0288	1457.8251	1506.5604	1552.2887	3042.0635	3075.2567	3089.079	3094.0067	3109.8509	3119.386	3176.7359	3406.5755	3821.3085
OCC1C2NC1C21CO1	OC[C@H]1[C@H]2N[C@@H]1[C@]12CO1	
InChI=1S/C6H9NO2/c8-1-3-4-6(2-9-6)5(3)7-4/h3-5,7-8H,1-2H2	InChI=1S/C6H9NO2/c8-1-3-4-6(2-9-6)5(3)7-4/h3-5,7-8H,1-2H2/t3-,4+,5-,6+
