16
gdb 30931	2.33658	1.36994	0.90279	4.5423	68.87	-0.2138	0.0137	0.2275	1243.5008	0.123957	-475.081678	-475.07286	-475.071916	-475.115535	31.801	
C	 0.197585004	 1.5294416633	 0.0854112451	-0.490822
C	-0.0462923683	 0.0676275195	 0.0445434775	 0.2599
C	-1.154150756	-0.6922925476	-0.0118511019	 0.171255
C	-2.605060333	-0.3636731586	-0.0738725774	-0.185729
O	-3.2662086472	-1.0496502403	-1.1326274803	-0.412017
N	-0.7147092619	-2.0232459238	 0.0146911363	-0.409792
C	 0.6573382726	-2.076820692	 0.0496098699	 0.472567
O	 1.4015435941	-3.017647007	 0.0434338724	-0.398124
O	 1.0679835202	-0.751862943	 0.0973653045	-0.247286
H	 0.8625267551	 1.8379341195	-0.7289377283	 0.147617
H	-0.7422580372	 2.0779689474	-0.0078166003	 0.134957
H	 0.6750042292	 1.8263193094	 1.0262272442	 0.149327
H	-3.1168742986	-0.6971625905	 0.836695675	 0.130808
H	-2.7328171535	 0.7254205629	-0.1392159084	 0.109223
H	-2.8547655387	-0.7756759964	-1.9598532778	 0.288551
H	-1.2890155107	-2.8309455129	-0.1538260104	 0.279565
74.3932	121.1486	158.7072	195.0167	233.966	258.0551	302.6978	392.2987	417.1338	483.6252	568.0765	616.2019	630.1349	697.5561	765.3049	833.896	931.0113	971.5222	984.1288	1045.475	1064.6812	1094.8636	1188.5998	1236.469	1274.8771	1310.6463	1373.7542	1411.253	1423.5866	1436.2732	1465.848	1490.1291	1496.8759	1749.5969	1901.5294	3013.7356	3032.8765	3059.2758	3084.1854	3129.7973	3688.0053	3803.7631
CC1=C(CO)NC(=O)O1	Cc1c(CO)[nH]c(=O)o1	
InChI=1S/C5H7NO3/c1-3-4(2-7)6-5(8)9-3/h7H,2H2,1H3,(H,6,8)	InChI=1S/C5H7NO3/c1-3-4(2-7)6-5(8)9-3/h7H,2H2,1H3,(H,6,8)
