22
gdb 105397	1.92347	1.19589	0.85558	1.4278	83.71	-0.2434	-0.0296	0.2138	1447.7513	0.191361	-404.338599	-404.327996	-404.327052	-404.374922	38.009	
C	-0.6498984236	 1.4694801568	 0.5649202856	-0.385251
C	 0.0931161747	 0.2397524664	 0.0283014448	-0.225056
C	 0.9011898972	-0.4903073691	 1.0928376196	 0.290752
C	 2.0900365167	 0.3246095161	 1.612273265	-0.34686
C	 3.0171640455	-0.3793296952	 2.5762947658	 0.147674
O	 4.2159858379	-0.4135775894	 2.4687973392	-0.240288
N	 0.0873855733	-1.2781855172	 2.0383788408	-0.367447
C	 0.9993454162	-1.9827202233	 1.1185396631	-0.038617
C	 0.3921926732	-2.9307669169	 0.1115562107	-0.410496
H	 0.0353290118	 2.2487518318	 0.9142457685	 0.113461
H	-1.2759883227	 1.9137837836	-0.2144724458	 0.114973
H	-1.2973167999	 1.1853052284	 1.4001567163	 0.132203
H	-0.6387936279	-0.4521777557	-0.3950404331	 0.106538
H	 0.7632959657	 0.5302051022	-0.7911785826	 0.095938
H	 2.6960950311	 0.6865118465	 0.7756945187	 0.128711
H	 1.7072204823	 1.2102777037	 2.1428139957	 0.127838
H	 2.5200281518	-0.8604297464	 3.4521522541	 0.069651
H	 0.4589379785	-1.2487730898	 2.984151082	 0.224714
H	 1.9236411291	-2.3655556507	 1.5545420445	 0.087226
H	-0.571139233	-2.5712395935	-0.2541291531	 0.130912
H	 1.0617359398	-3.0733923067	-0.7435058365	 0.12027
H	 0.2244813626	-3.9099795315	 0.5727618467	 0.123154
59.0697	64.509	92.8402	140.5099	192.8724	212.4816	222.3842	225.3901	296.136	361.242	450.6953	469.2917	509.2839	532.9191	678.7895	760.5916	790.5641	829.6077	874.2178	931.9597	977.3569	1014.7471	1026.0659	1036.0393	1051.7247	1092.8182	1096.9691	1120.4017	1152.8286	1219.7771	1232.2254	1273.2478	1284.1233	1332.1591	1343.3129	1390.955	1406.2201	1410.3544	1439.954	1454.6254	1467.3023	1477.5323	1491.6516	1499.9893	1503.2552	1509.6979	1831.6591	2840.7916	3000.2166	3029.4851	3037.8861	3038.2916	3084.5576	3086.4202	3090.7793	3097.1118	3109.2303	3115.3781	3136.7675	3498.6561
CCC1(CC=O)NC1C	CC[C@@]1(CC=O)N[C@H]1C	
InChI=1S/C7H13NO/c1-3-7(4-5-9)6(2)8-7/h5-6,8H,3-4H2,1-2H3	InChI=1S/C7H13NO/c1-3-7(4-5-9)6(2)8-7/h5-6,8H,3-4H2,1-2H3/t6-,7-/m0/s1
