19
gdb 78809	2.40597	1.70755	1.43017	1.7399	74.14	-0.2485	0.0708	0.3193	1008.0806	0.158904	-422.97504	-422.966935	-422.965991	-423.007025	32.806	
C	 0.0007162277	 1.6120244146	-0.0376790098	-0.431116
C	 0.0916331765	 0.0906244077	-0.0227245471	-0.022336
C	 0.8417462224	-0.6918968435	-1.1129740347	-0.079997
C	 2.3178450892	-0.8151020391	-0.7054544833	-0.114344
C	 1.2709996283	-1.7717453706	-0.1602928548	-0.215135
C	 1.0351257234	-0.6318213448	 0.9626889567	 0.371489
O	 0.6832970096	-0.7835859177	 2.2805553004	-0.482457
C	 2.4700824284	-0.1314503192	 0.6433889418	 0.069839
O	 3.4082308786	-0.7446016886	 1.5199416271	-0.458093
H	 0.9670859525	 2.0831789557	-0.2392579829	 0.117573
H	-0.6959623382	 1.9502938665	-0.8120898752	 0.114021
H	-0.3657007885	 1.9857745584	 0.9243818864	 0.126951
H	-0.908997086	-0.3447486947	 0.0830193153	 0.081157
H	 0.5542263968	-0.8147313491	-2.1492996216	 0.089126
H	 3.0922852047	-1.0115069113	-1.4364751522	 0.090705
H	 1.1604049967	-2.8454930243	-0.2022796878	 0.094731
H	 1.5141415718	-0.9134332501	 2.7625473029	 0.284162
H	 2.6729486511	 0.9417611425	 0.7019136984	 0.079791
H	 3.4521962849	-1.6788631425	 1.2795811305	 0.283935
160.9458	190.3795	201.933	238.0348	270.7742	373.0843	388.8403	432.5904	534.9111	558.6292	579.8787	669.4466	677.8446	768.0595	801.6556	818.014	889.8789	914.8962	920.4524	942.1672	965.678	996.3747	1027.8296	1029.6357	1085.6204	1117.4813	1119.4012	1134.7897	1151.9311	1209.9033	1229.1028	1274.7053	1282.6761	1336.8453	1357.3212	1380.8069	1408.536	1425.7573	1431.4239	1495.0367	1500.5003	3033.7327	3041.2613	3072.0421	3098.2069	3109.6653	3190.3229	3198.0793	3224.3999	3714.6684	3774.7012
CC1C2C3C2C1(O)C3O	C[C@H]1[C@H]2[C@@H]3[C@H]2[C@@]1(O)[C@H]3O	
InChI=1S/C7H10O2/c1-2-3-4-5(3)7(2,9)6(4)8/h2-6,8-9H,1H3	InChI=1S/C7H10O2/c1-2-3-4-5(3)7(2,9)6(4)8/h2-6,8-9H,1H3/t2-,3-,4+,5-,6-,7+/m0/s1
