25
gdb 118493	2.26429	0.94331	0.70872	1.0764	90.12	-0.2454	0.0919	0.3373	1713.2662	0.226998	-389.475983	-389.464926	-389.463982	-389.512857	39.924	
C	 1.0117683464	 1.9238031124	 0.7614326858	-0.381362
C	 0.6386560347	 0.4898444139	 0.3769609929	-0.168727
C	 0.9921381959	-0.5298003244	 1.4643522542	-0.171087
C	 0.6521391907	-1.9746477897	 1.0880885326	 0.099059
O	 1.4322857821	-2.2802645565	-0.0619973579	-0.247018
C	 1.0692831896	-3.4572586179	-0.7449728443	-0.233254
C	 0.91274431	-2.9359983233	 2.2329463088	 0.01601
C	-0.0810843698	-3.0411512928	 3.3631529601	-0.272395
C	 0.0957353567	-4.1937418955	 2.410619878	-0.277195
H	 2.0885229331	 2.0172377961	 0.9425704987	 0.113151
H	 0.7462141047	 2.631600972	-0.0302787821	 0.108758
H	 0.4963762283	 2.2392804013	 1.6759536219	 0.1089
H	-0.4386573996	 0.4351455806	 0.1682041783	 0.085501
H	 1.1458364802	 0.2051006452	-0.550209392	 0.113433
H	 2.0665832704	-0.4780728598	 1.6852335383	 0.097349
H	 0.4676352107	-0.2832379479	 2.3953001187	 0.093455
H	-0.4206737373	-2.0344800506	 0.8225882923	 0.051195
H	 1.2850159704	-4.3647946803	-0.1656501931	 0.113231
H	-0.0011833582	-3.4623386736	-1.0066115479	 0.096785
H	 1.6539146756	-3.4837398885	-1.6686781769	 0.1212
H	 1.9626842717	-3.0005961598	 2.5075763835	 0.086912
H	 0.2972002371	-3.1378660604	 4.3744540848	 0.112821
H	-0.9954600071	-2.4607406471	 3.2870095189	 0.110781
H	-0.7030385131	-4.3853487344	 1.7013158412	 0.110533
H	 0.5969915769	-5.087842679	 2.7651125653	 0.111964
64.9301	80.1598	88.0428	105.5497	132.583	200.2416	241.7474	245.8029	264.4962	309.1767	360.6146	395.801	472.8483	566.0535	741.7864	773.9815	826.7352	831.2054	869.3317	903.1726	931.3626	943.307	984.0401	1037.9107	1059.6375	1065.9843	1083.0488	1109.3965	1137.5971	1140.7191	1153.9774	1179.6838	1190.2544	1199.6425	1221.9694	1226.692	1266.2719	1288.2385	1326.494	1332.264	1364.6224	1396.1414	1411.0401	1421.2077	1470.5374	1473.7617	1479.0252	1489.4727	1494.2897	1499.8426	1506.0401	1510.8172	1512.0494	2919.4384	2975.1212	3013.1876	3022.8128	3027.3179	3038.6137	3059.5646	3076.328	3097.5781	3099.5714	3104.616	3127.4052	3131.305	3140.841	3205.132	3220.3558
CCCC(OC)C1CC1	CCC[C@@H](OC)C1CC1	
InChI=1S/C8H16O/c1-3-4-8(9-2)7-5-6-7/h7-8H,3-6H2,1-2H3	InChI=1S/C8H16O/c1-3-4-8(9-2)7-5-6-7/h7-8H,3-6H2,1-2H3/t8-/m1/s1
