19
gdb 83709	2.45747	1.71455	1.23812	3.2005	74.39	-0.2389	-0.0182	0.2207	1056.6065	0.159854	-423.045308	-423.037218	-423.036274	-423.078251	30.723	
C	-0.1902111296	 1.561061134	-0.0395683572	-0.403828
C	 0.1060765231	 0.0643251462	-0.0065311773	-0.108921
C	 0.7834168243	-0.5175567416	-1.2427599278	 0.110245
O	 1.9030916172	 0.2833397631	-1.6902497557	-0.29068
C	 2.8285529013	-0.8049074487	-1.4789012622	-0.075342
C	 1.7465166353	-1.6649924605	-0.7977404759	-0.089133
C	 1.7620102441	-1.6491194679	 0.7344390919	-0.337767
C	 1.0336262629	-0.3605466814	 1.1443630766	 0.384797
O	 1.1596420783	 0.2151990971	 2.192686357	-0.308136
H	 0.6979917436	 2.1097607697	-0.3610592263	 0.143188
H	-1.0063842242	 1.7901978872	-0.7306101651	 0.111064
H	-0.4660004193	 1.9058256108	 0.959991624	 0.135614
H	-0.8280320087	-0.4994786581	 0.1531473252	 0.098481
H	 0.0935521515	-0.7304603913	-2.0668006119	 0.074645
H	 3.2024941374	-1.2077897833	-2.4288496809	 0.102885
H	 3.6812013081	-0.5054111612	-0.8572474982	 0.108862
H	 1.5867716252	-2.6543318109	-1.2252402369	 0.082853
H	 1.1963042651	-2.4935751722	 1.1480197842	 0.130029
H	 2.7603156945	-1.6853823309	 1.1778264665	 0.131145
79.7134	95.9988	193.1935	217.7535	248.911	357.5743	446.3236	467.2523	541.7011	590.3306	680.4013	731.0768	830.45	843.776	876.928	888.5324	916.9639	967.7445	994.4557	1023.3304	1040.6418	1081.0546	1112.5816	1129.031	1154.3518	1163.6175	1176.7607	1224.9329	1254.4797	1274.9918	1286.2606	1317.0924	1347.3815	1360.9636	1367.3389	1403.6467	1453.6513	1490.2464	1506.133	1525.9946	1848.0013	2980.5874	3010.8362	3038.1605	3042.8221	3050.9788	3056.3031	3104.0276	3113.355	3122.6051	3136.709
CC1C2OCC2CC1=O	C[C@H]1[C@H]2OC[C@H]2CC1=O	
InChI=1S/C7H10O2/c1-4-6(8)2-5-3-9-7(4)5/h4-5,7H,2-3H2,1H3	InChI=1S/C7H10O2/c1-4-6(8)2-5-3-9-7(4)5/h4-5,7H,2-3H2,1H3/t4-,5-,7-/m1/s1
