19
gdb 85755	3.2394	1.1872	1.01024	1.3348	80.66	-0.2513	0.0525	0.3038	1209.5297	0.159463	-385.851602	-385.843149	-385.842205	-385.884497	33.242	
O	-0.0572087343	 1.4455565984	 0.01948583	-0.436866
C	-0.0037209249	 0.0261578954	 0.0003807267	 0.120174
C	 0.6777950262	-0.5831178419	 1.2483990426	-0.287521
C	 0.0053874419	-1.9690344459	 1.4486452914	-0.181023
C	 0.0580393006	-2.4585800945	 2.821395565	 0.32345
C	 0.1003137479	-2.8552431637	 3.9557292419	-0.45681
C	-1.4102587335	-1.7780902686	 0.8860567994	-0.037886
C	-2.1637340813	-0.542538664	 1.2968536614	-0.28123
C	-1.4027231443	-0.5583720846	-0.0060116642	-0.04348
H	 0.843279448	 1.7785780106	-0.0487173359	 0.280913
H	 0.5162569681	-0.3164407155	-0.9090713301	 0.064768
H	 1.7629337578	-0.6663845423	 1.1467122226	 0.101393
H	 0.4788691676	 0.0635883105	 2.1067206691	 0.125248
H	 0.5162203689	-2.6992998976	 0.8063774127	 0.103622
H	 0.134424877	-3.208515502	 4.9563404834	 0.191813
H	-1.9694455559	-2.6696073515	 0.6270729272	 0.090219
H	-3.2448510962	-0.585697822	 1.2289636781	 0.112439
H	-1.8002629474	 0.0620098774	 2.1201002945	 0.124691
H	-1.9591248363	-0.5333433183	-0.9357802158	 0.086086
88.5918	129.4274	166.5379	271.5346	280.79	331.1709	393.1723	459.7037	517.8125	564.1037	583.4267	613.048	628.968	631.7616	783.9152	824.1059	841.2605	908.0651	962.4458	981.0928	999.5698	1012.5701	1037.651	1060.2012	1081.1873	1097.0886	1112.6495	1137.9422	1189.7479	1205.0881	1247.0519	1263.3446	1297.9568	1335.1382	1353.1661	1357.1562	1398.6071	1433.2804	1485.4055	1508.3367	2234.2383	2963.3783	3009.4562	3066.0009	3112.0335	3141.1669	3171.7055	3180.6355	3222.8513	3504.6436	3816.0865
OC1CC(C#C)C2CC12	O[C@H]1C[C@@H](C#C)[C@H]2C[C@@H]12	
InChI=1S/C8H10O/c1-2-5-3-8(9)7-4-6(5)7/h1,5-9H,3-4H2	InChI=1S/C8H10O/c1-2-5-3-8(9)7-4-6(5)7/h1,5-9H,3-4H2/t5-,6-,7-,8+/m1/s1
