12
gdb 133380	3.10325	1.50621	1.01517	2.8853	63.03	-0.2375	-0.0822	0.1553	1045.0267	0.07728	-510.069289	-510.061902	-510.060958	-510.101413	27.525	
N	 0.0914138223	 1.3966013981	 0.0896110127	-0.54696
C	-0.028097618	 0.0373412414	-0.0330609378	 0.469925
N	-1.2138200705	-0.4820089338	-0.0839411097	-0.187924
O	-1.2568474853	-1.8760420837	-0.3332919213	-0.273854
C	-0.1327995332	-2.6313827895	-0.4660625831	 0.309851
N	-0.1395814131	-3.876980144	-0.6960018773	-0.512616
C	 1.1210099307	-1.8755055591	-0.3146075911	 0.301369
F	 2.2189399555	-2.5795544969	-0.391177677	-0.010497
N	 1.1967858607	-0.6263929948	-0.1173329	-0.336913
H	 0.9469888412	 1.7122138181	 0.518688993	 0.273014
H	-0.7467130039	 1.8890836691	 0.3577398938	 0.272956
H	-1.0970510264	-4.2265433948	-0.7682901021	 0.241649
72.2661	197.255	262.6437	322.6355	334.6386	414.5518	428.863	492.2576	539.7612	542.8418	582.6579	694.0711	720.0055	785.403	830.5742	886.0077	929.2575	1036.6883	1091.2459	1157.0384	1259.0057	1400.4902	1452.0937	1605.4984	1650.0782	1715.4267	1743.4828	3478.417	3588.5459	3708.3298
NC1=NOC(=N)C(F)=N1	NC1=NOC(=C(F)[N]1)[NH]	
InChI=1S/C3H3FN4O/c4-1-2(5)9-8-3(6)7-1/h5H,(H2,6,8)	InChI=1S/C3H3FN4O/c4-1-2(5)9-8-3(6)7-1/h5H,(H2,6,8)
