23
gdb 121103	4.75594	0.7087	0.65731	1.3485	82.73	-0.2403	0.0831	0.3234	1772.3903	0.205464	-425.435507	-425.425308	-425.424364	-425.471687	36.849	
C	-0.588083984	 1.4150611474	-0.0138475208	-0.412212
C	 0.184461411	 0.0987701182	-0.0277808876	 0.014696
C	 1.2920332001	 0.0248936077	-1.0891501228	-0.067408
O	 2.2364043148	-0.9373801493	-0.6324533544	-0.282316
C	 2.0140334004	-1.2394378784	 0.7558620739	 0.135973
C	 3.3423454783	-1.2317718403	 1.5026221684	-0.183822
C	 4.33319158	-2.2549218133	 0.9625593524	-0.077505
O	 5.5092373063	-2.1813485542	 1.7577094181	-0.424464
C	 0.9880115127	-0.2097135747	 1.2451849335	-0.251371
H	 0.0831124686	 2.2610838081	 0.173286621	 0.11692
H	-1.0906546357	 1.5925494382	-0.970765926	 0.1165
H	-1.3550164185	 1.4175023523	 0.7672255869	 0.117654
H	-0.5165262839	-0.7277542951	-0.2038177252	 0.077671
H	 0.9214991156	-0.2813033756	-2.0744177034	 0.098982
H	 1.7799781523	 1.0066095729	-1.2042951674	 0.085223
H	 1.5760557225	-2.2503154382	 0.8145864816	 0.063706
H	 3.7904957926	-0.2334245697	 1.4386780749	 0.103366
H	 3.1608724161	-1.4409696365	 2.5642154727	 0.100531
H	 3.8866064397	-3.2626847996	 1.0069112507	 0.078047
H	 4.5430851503	-2.0340447961	-0.0929678774	 0.106436
H	 6.1670708055	-2.7661030828	 1.3709873857	 0.283831
H	 1.4990622311	 0.6962691545	 1.595889567	 0.098321
H	 0.3735488842	-0.5874968556	 2.0665834483	 0.101242
36.014	91.6102	97.1019	114.26	188.8277	230.8822	260.0832	277.5425	326.4386	385.4658	430.4919	496.7501	564.9009	672.9035	789.4764	851.987	866.6506	901.6212	945.0736	959.8879	998.8446	1018.8364	1036.5552	1068.8462	1078.222	1122.2757	1131.7287	1166.1939	1169.8083	1197.4546	1226.471	1243.8823	1264.2986	1282.1592	1312.8266	1327.0873	1336.8626	1357.0995	1370.333	1406.3741	1410.9294	1416.6759	1459.8726	1478.9304	1491.3934	1497.5365	1500.8678	1528.0326	1530.4187	2950.7222	2961.3895	2968.8236	3015.2443	3023.1328	3027.0976	3030.3187	3034.8882	3051.3044	3079.8111	3094.0482	3098.9806	3101.6945	3831.8367
CC1COC(CCO)C1	C[C@H]1CO[C@@H](CCO)C1	
InChI=1S/C7H14O2/c1-6-4-7(2-3-8)9-5-6/h6-8H,2-5H2,1H3	InChI=1S/C7H14O2/c1-6-4-7(2-3-8)9-5-6/h6-8H,2-5H2,1H3/t6-,7+/m1/s1
