13
gdb 128734	2.80873	1.33487	0.91006	4.8394	63.04	-0.2778	-0.092	0.1859	1183.0847	0.087748	-489.832024	-489.823999	-489.823055	-489.865349	27.439	
C	-0.0374816702	 1.3317387127	 0.0549230348	-0.254511
O	 0.0121465464	-0.1026747455	-0.0160823792	-0.255174
C	 0.618965379	-0.6092102274	-1.0796238147	 0.376239
N	 1.1635194696	 0.0801370518	-2.0476098209	-0.186543
O	 1.6609847479	-0.8796048903	-2.9125660576	-0.148227
N	 1.4207204678	-2.1324031182	-2.4748911745	-0.105224
C	 0.7760265716	-2.0108487932	-1.3401763191	 0.147449
C	 0.3145055175	-3.14987885	-0.5138404591	 0.097491
O	 0.4831830236	-4.3082291842	-0.795275066	-0.23725
H	 0.9743104709	 1.7460832387	 0.0738082722	 0.155056
H	-0.5770449795	 1.7359615259	-0.8060309828	 0.155048
H	-0.5637887261	 1.5619516475	 0.9802605217	 0.149928
H	-0.2131772285	-2.8360654678	 0.4094202351	 0.105716
91.3624	132.4991	142.6436	170.4843	238.343	253.1212	384.5774	385.251	565.9944	631.2286	706.9921	757.2548	816.5944	907.8595	967.8891	1032.3368	1035.2594	1084.1047	1179.0621	1212.0463	1261.4986	1407.2338	1455.493	1465.0008	1482.6042	1495.9654	1538.1123	1625.8194	1816.3827	2932.0651	3048.1616	3124.5227	3169.2997
COC1=NON=C1C=O	COc1nonc1C=O	
InChI=1S/C4H4N2O3/c1-8-4-3(2-7)5-9-6-4/h2H,1H3	InChI=1S/C4H4N2O3/c1-8-4-3(2-7)5-9-6-4/h2H,1H3
