15
gdb 69021	2.90631	1.3679	1.14735	4.0362	74.64	-0.2457	-0.0192	0.2265	1072.1307	0.113557	-412.961251	-412.953126	-412.952182	-412.993841	30.778	
N	-0.1268340449	 1.4513762833	-0.1863104152	-0.58364
C	-0.0357510636	 0.0617198578	-0.0138893221	 0.198222
C	-0.319806415	-0.8847461911	-1.1625508444	-0.348337
C	-1.1787758622	-1.011062421	 0.0687244037	 0.173122
N	-0.4634244702	-1.6668040404	 1.1685184919	-0.390413
C	 0.6095432159	-0.7254922821	 1.1022477365	 0.328735
N	 1.6691367413	-0.5322849091	 1.7536861397	-0.537234
C	-2.5900421821	-0.8295844305	 0.0995108211	 0.244265
N	-3.7381327523	-0.6837255128	 0.1146215882	-0.345589
H	-0.0503719792	 1.9441706651	 0.6961398382	 0.25619
H	 0.5853641954	 1.802959074	-0.8158987079	 0.25267
H	-0.7934455601	-0.399957809	-2.0108049939	 0.153438
H	 0.3688335482	-1.6881015433	-1.4090333716	 0.128958
H	-0.2635019794	-2.6601427916	 1.0971766349	 0.242888
H	 1.8175390083	-1.2502280293	 2.4652721009	 0.226726
106.4646	121.6788	178.2201	271.8175	279.6062	338.4408	412.1423	466.6385	526.9205	558.965	629.8087	651.6019	663.6141	701.465	738.2645	808.092	865.5548	873.1834	937.8617	973.0031	1025.3417	1075.7378	1098.9671	1168.0779	1253.6911	1285.2459	1324.4555	1353.3937	1411.316	1483.6465	1665.1382	1805.2492	2348.9387	3118.4657	3216.091	3465.655	3518.1562	3522.4074	3602.3922
NC12CC1(NC2=N)C#N	N[C@]12C[C@]1(N[C]2[NH])C#N	
InChI=1S/C5H6N4/c6-2-4-1-5(4,8)3(7)9-4/h1,8H2,(H2,7,9)	InChI=1S/C5H6N4/c6-2-4-1-5(4,8)3(7)9-4/h1,8H2,(H2,7,9)/t4-,5-/m0/s1
