16
gdb 39708	4.45913	1.55652	1.52205	1.2899	70.65	-0.2356	0.0642	0.2998	889.1612	0.125618	-400.622453	-400.616399	-400.615455	-400.652706	25.285	
C	-0.0679416753	 1.5220860485	-0.0034598965	-0.284575
O	 1.1362229762	 0.7247685954	-0.0039798004	-0.290172
C	-0.1159979629	 0.0663110997	 0.0115949413	 0.52481
C	-0.475621545	-0.9917167481	 1.0586420069	-0.199148
C	-1.9327797603	-1.3676501346	 0.7324315617	-0.047443
C	-1.5817506313	-2.582801091	-0.0371460219	-0.06355
C	-0.1013782882	-2.12031717	 0.0027194337	-0.06126
C	-0.4746332781	-0.9977424845	-1.0206223312	-0.122531
N	-1.9383228259	-1.3388256252	-0.7848975379	-0.156734
H	-0.2494489136	 2.0822566504	 0.9126975895	 0.117726
H	-0.2644019812	 2.0637652574	-0.9272907069	 0.122152
H	-0.1272937007	-0.9653978532	 2.0880332455	 0.086061
H	-2.8488083447	-1.0858926891	 1.2351570699	 0.102305
H	-2.086221913	-3.5295139711	-0.1835497956	 0.10083
H	 0.8164627768	-2.6995450974	 0.0269964617	 0.086718
H	-0.1888961427	-0.9466049873	-2.0690671798	 0.084812
141.6713	269.3845	314.3901	469.458	555.0555	595.5419	731.8392	753.7007	791.388	808.5438	842.3103	870.306	879.1771	887.0613	910.529	928.5263	954.0946	981.8564	1003.1112	1030.6073	1053.8216	1067.2636	1114.6021	1134.5862	1146.0263	1154.977	1170.1255	1194.821	1218.6292	1224.1389	1237.5163	1265.2022	1329.4805	1455.4075	1542.4197	3085.5106	3142.5498	3153.9542	3165.9945	3172.5622	3188.7372	3202.9429
C1OC11C2C3C4C2C1N34	C1O[C@]21[C@H]1[C@@H]3[C@@H]4[C@H]1[C@H]2N34	
InChI=1S/C7H7NO/c1-7(9-1)3-2-4-5(3)8(4)6(2)7/h2-6H,1H2	InChI=1S/C7H7NO/c1-7(9-1)3-2-4-5(3)8(4)6(2)7/h2-6H,1H2/t2-,3+,4-,5+,6+,7+,8?/m0/s1
