14
gdb 16201	3.27282	2.49773	1.59262	2.0785	63.72	-0.2407	-0.017	0.2237	777.0071	0.109124	-378.762693	-378.756193	-378.755249	-378.793231	24.867	
O	 0.0361166514	-0.0267725795	 0.0052161355	-0.380224
C	 0.0284565117	 1.1823552018	 0.0105720818	 0.381609
N	-1.0879374001	 2.0204868176	 0.0287698778	-0.353434
C	-0.6534929357	 3.3412191958	 0.0291160972	 0.042614
N	 0.6180843602	 3.4993243176	 0.0136171107	-0.298597
C	 1.1581274102	 2.1680572583	 0.0007975742	 0.222472
C	 2.4534005095	 1.844337694	 0.7276419291	-0.291774
C	 2.4345838674	 1.8510596437	-0.7614297605	-0.291785
H	-2.0407790101	 1.6957686083	 0.0395475431	 0.26909
H	-1.3729082036	 4.1518962112	 0.0419875836	 0.140039
H	 2.9171072339	 2.676105345	 1.2435909793	 0.137307
H	 2.476302203	 0.8874650464	 1.2371490314	 0.142693
H	 2.4444885193	 0.8988306085	-1.2799750999	 0.142689
H	 2.8851938228	 2.6875064613	-1.2814030732	 0.137301
134.1459	218.877	236.998	296.9248	476.7818	497.8232	577.0483	627.4852	726.8942	746.0109	790.2159	850.7747	885.2947	926.4616	929.661	974.1531	1011.3987	1060.353	1064.3692	1091.0203	1134.4711	1205.8425	1278.2	1342.4	1357.6451	1394.5297	1445.3164	1481.7477	1653.2996	1840.6772	3144.0678	3144.4806	3207.275	3236.4712	3250.4975	3660.3556
O=C1NC=NC11CC1	O=C1NC=NC21CC2	
InChI=1S/C5H6N2O/c8-4-5(1-2-5)7-3-6-4/h3H,1-2H2,(H,6,7,8)	InChI=1S/C5H6N2O/c8-4-5(1-2-5)7-3-6-4/h3H,1-2H2,(H,6,7,8)
