17
gdb 29282	5.58055	0.93235	0.84407	0.4156	78.33	-0.1761	0.0332	0.2093	1345.6402	0.137455	-418.0119	-418.003605	-418.002661	-418.044935	31.391	
N	-0.0920294693	 1.473102821	-0.0517804742	-0.606369
C	 0.0148940864	 0.0687848424	-0.0015774198	 0.267842
C	-0.9985406677	-0.8387735181	 0.2300916489	-0.167679
N	-0.4264299839	-2.0925977654	 0.3120667559	-0.310676
C	 0.919460146	-2.0022917036	 0.0966649576	 0.356885
C	 1.230620533	-0.6706619728	-0.0920741487	-0.335022
C	 1.764495572	-3.2069219055	 0.1289093645	-0.042008
C	 1.7249474562	-4.1787793323	 1.2397649617	-0.178971
O	 1.0672873329	-4.4586415898	 0.0011626734	-0.249314
H	 0.5499139666	 1.877817116	-0.7221466127	 0.238601
H	-1.0294136705	 1.7785412009	-0.2818368762	 0.236036
H	-2.0607749088	-0.6971989656	 0.3454737847	 0.103859
H	-0.9149325651	-2.9717558787	 0.3231495501	 0.264754
H	 2.2189369168	-0.2642265979	-0.2481423467	 0.084429
H	 2.6881528874	-3.1420786649	-0.4451283346	 0.103121
H	 2.5972848267	-4.7956023395	 1.4528980668	 0.117989
H	 1.0673797612	-3.9843248761	 2.0852123294	 0.116524
73.6683	142.3476	163.7335	183.7609	294.1686	326.9726	401.2158	458.4138	538.5439	627.8819	635.6439	669.0881	685.0267	717.71	766.913	802.7691	834.6934	889.92	979.0216	993.3638	1021.1831	1093.8507	1103.1206	1125.5986	1145.6622	1170.1041	1183.4137	1262.8685	1300.858	1335.2762	1389.3544	1462.002	1486.164	1518.7462	1556.441	1639.8746	1659.7316	3082.3528	3118.7494	3175.9053	3239.4376	3263.0232	3527.3537	3614.7764	3675.1422
NC1=CNC(=C1)C1CO1	Nc1c[nH]c(c1)[C@H]1CO1	
InChI=1S/C6H8N2O/c7-4-1-5(8-2-4)6-3-9-6/h1-2,6,8H,3,7H2	InChI=1S/C6H8N2O/c7-4-1-5(8-2-4)6-3-9-6/h1-2,6,8H,3,7H2/t6-/m1/s1
