24
gdb 100264	1.9086	1.28729	1.15467	3.246	84.71	-0.2384	0.0343	0.2727	1302.2141	0.214754	-405.596656	-405.584971	-405.584027	-405.634002	42.539	
C	-0.0907225516	 1.5373829189	 0.1641615908	-0.39905
C	 0.0274450876	 0.0144745297	 0.0460910581	-0.189426
C	 0.7189933434	-0.5036882569	-1.2436857646	 0.132831
C	 0.7976269183	-2.0459511617	-1.1867538404	-0.426109
C	-0.0240919185	-0.0563633918	-2.5273659702	-0.171361
C	-1.5072062316	-0.4322712654	-2.6143427579	-0.415728
C	 2.1590726919	 0.0627648071	-1.3280918736	 0.397428
N	 2.9752689542	-0.2191888797	-0.2657894466	-0.522707
O	 2.5580448532	 0.73311747	-2.2616024731	-0.372585
H	 0.8898477884	 2.0206800852	 0.1102412	 0.132641
H	-0.7121902739	 1.9599030789	-0.6305318899	 0.12488
H	-0.5461543821	 1.8127236658	 1.1204516867	 0.110357
H	 0.5698650127	-0.3683430061	 0.9194654045	 0.078746
H	-0.9695856726	-0.4375823723	 0.1039976745	 0.100256
H	-0.2049321183	-2.4827110807	-1.1646018849	 0.122329
H	 1.3213825277	-2.4475085452	-2.0600930762	 0.124944
H	 1.3189823418	-2.4019327417	-0.2921014131	 0.097354
H	 0.0864224786	 1.0256040358	-2.6345029001	 0.114648
H	 0.5094411712	-0.4783633211	-3.3851747678	 0.103805
H	-1.6716976281	-1.5126143962	-2.5484925311	 0.11271
H	-2.1043182708	 0.0427719969	-1.829350414	 0.115894
H	-1.9168123778	-0.1026113025	-3.5742933735	 0.11604
H	 2.7220079846	-0.8680749	 0.4570817546	 0.254707
H	 3.9388658417	 0.0637179329	-0.3383902223	 0.257396
20.3175	82.0552	107.7674	171.2404	182.2494	209.3477	216.0861	225.0217	275.9038	306.4022	334.8529	358.796	381.4945	445.0154	478.3053	560.6354	581.9793	678.4589	751.9412	778.4904	785.4044	860.938	901.4037	984.9523	1013.8739	1019.2632	1048.1407	1068.2124	1079.8331	1097.7212	1188.9736	1194.3375	1234.9061	1296.4018	1312.0242	1337.1372	1371.3343	1377.998	1410.2305	1415.2066	1418.8071	1476.7705	1481.0758	1496.7737	1499.5321	1501.7695	1504.7082	1509.8475	1513.9463	1613.6489	1782.4353	3024.001	3032.8496	3037.765	3040.4885	3055.5896	3057.071	3086.9378	3096.3832	3101.1401	3106.2824	3108.2365	3111.8556	3115.3378	3605.8095	3742.1873
CCC(C)(CC)C(N)=O	CCC(C)(CC)C(=O)N	
InChI=1S/C7H15NO/c1-4-7(3,5-2)6(8)9/h4-5H2,1-3H3,(H2,8,9)	InChI=1S/C7H15NO/c1-4-7(3,5-2)6(8)9/h4-5H2,1-3H3,(H2,8,9)
