21
gdb 91329	2.84272	1.45362	1.17251	1.2397	78.07	-0.2386	0.0765	0.3151	1126.3902	0.183106	-424.222145	-424.213867	-424.212923	-424.254352	33.729	
C	 0.1921074997	 1.5565531448	 0.0689437818	-0.404076
C	 0.0445477883	 0.0447941563	-0.0098896853	 0.159224
C	 0.6612223356	-0.5700981068	-1.2917777284	-0.306268
C	 1.1190652937	-2.0145751502	-1.0276559957	 0.408753
O	 1.3193229716	-2.7660846617	-2.1962169018	-0.483709
C	 0.184788619	-2.6566470091	 0.0263593377	-0.293103
C	 1.0268866644	-1.8578132897	 1.0615433268	 0.120967
C	 2.2190430796	-1.972009871	 0.07463	-0.289285
O	 0.6188715799	-0.5021835359	 1.1814495232	-0.290414
H	 1.2498611948	 1.8376637218	 0.0729071367	 0.119374
H	-0.2938995228	 2.0344050058	-0.7876808576	 0.112505
H	-0.2672241848	 1.9367698758	 0.985458605	 0.125387
H	-1.028309771	-0.2003470177	-0.0109771079	 0.075457
H	-0.0901655315	-0.5637464967	-2.0893094706	 0.10399
H	 1.5173424263	 0.0269206431	-1.6356284795	 0.088742
H	 1.8838597608	-2.258967068	-2.7902102053	 0.274193
H	-0.8920682123	-2.4864871742	-0.0356147229	 0.100047
H	 0.3842783223	-3.7270479023	 0.1121368473	 0.109283
H	 1.1333798882	-2.2469161512	 2.0744209018	 0.079684
H	 2.7298601896	-2.9349649326	 0.1561607523	 0.100699
H	 2.9390111384	-1.1494283206	 0.0703120424	 0.088549
116.4675	225.0229	238.7706	255.3228	290.8549	360.2333	414.9168	423.7645	439.8513	454.2715	495.5863	571.4672	662.1984	800.124	828.8433	878.9114	888.8528	898.7042	935.3808	944.7691	981.5984	990.3716	1002.8661	1050.4021	1078.4077	1141.2144	1151.5353	1159.2544	1184.7767	1196.2942	1232.0801	1238.4123	1250.4004	1275.1548	1329.4656	1357.7755	1380.1069	1388.4106	1401.0209	1408.5284	1467.4354	1481.9802	1487.9347	1498.6492	1509.2062	2973.8723	3008.02	3038.7657	3055.3859	3069.5173	3071.795	3108.6878	3112.1576	3119.3901	3121.3985	3129.1933	3798.2577
CC1CC2(O)CC(C2)O1	C[C@H]1C[C@]2(O)C[C@@H](C2)O1	
InChI=1S/C7H12O2/c1-5-2-7(8)3-6(4-7)9-5/h5-6,8H,2-4H2,1H3	InChI=1S/C7H12O2/c1-5-2-7(8)3-6(4-7)9-5/h5-6,8H,2-4H2,1H3/t5-,6-,7-/m0/s1
