21
gdb 106521	3.09279	1.3953	1.21273	1.0163	77.99	-0.2391	0.0814	0.3205	1114.9994	0.183869	-424.20385	-424.19564	-424.194696	-424.236423	32.22	
C	-0.2127598503	 1.3608394474	 0.0206581442	-0.261584
O	 0.2316289189	 0.0226882901	-0.0783842482	-0.299298
C	 0.7360643395	-0.536175853	 1.1041758008	 0.40825
C	-0.1046449803	-0.570810617	 2.4180264364	-0.28681
C	 0.6415458187	-1.9115822255	 2.6811271003	-0.051386
C	 0.7516561792	-2.0757697602	 1.1409704479	-0.275112
C	 2.0291524207	-1.6012413384	 3.2553660633	-0.068162
O	 2.5115485566	-0.3468497396	 2.7892798609	-0.257155
C	 2.1576468052	-0.0362978563	 1.4485762953	-0.124204
H	 0.6031486902	 2.0663836535	 0.2308882227	 0.110153
H	-0.6516636541	 1.6191700629	-0.9458741086	 0.128366
H	-0.9789138732	 1.4774831591	 0.8001203738	 0.112315
H	 0.0188296857	 0.2377600022	 3.1412630258	 0.104337
H	-1.1622822289	-0.737183976	 2.2003286347	 0.102073
H	 0.1374293115	-2.6945585005	 3.250461296	 0.071503
H	-0.1604525196	-2.4866427357	 0.7014527315	 0.102236
H	 1.628392023	-2.5885727737	 0.733382617	 0.092021
H	 1.9977980709	-1.5163395684	 4.3471287276	 0.105933
H	 2.7309545997	-2.4124995104	 2.999426365	 0.088652
H	 2.8734381043	-0.4692414413	 0.731344847	 0.093637
H	 2.2212240624	 1.0536755112	 1.3720067468	 0.104236
94.0754	173.6974	177.6454	214.7248	304.275	336.6638	409.8594	440.6205	461.598	504.6474	594.8545	657.2421	823.8056	862.1993	886.8553	896.3545	927.9544	933.7549	974.2591	1005.0734	1023.2544	1071.9619	1090.3136	1109.698	1121.5524	1157.0743	1173.7743	1181.6127	1219.1479	1229.5243	1238.616	1260.8802	1267.1933	1282.5449	1305.4714	1339.1256	1379.6567	1411.5756	1473.3366	1478.9384	1491.9596	1502.4387	1506.7239	1509.3921	1518.9276	2965.4555	2977.7006	2993.5508	3042.8731	3049.0235	3061.1975	3066.9858	3075.6613	3092.8523	3112.9301	3116.6884	3129.4591
COC12CC(C1)COC2	CO[C@@]12C[C@@H](C1)COC2	
InChI=1S/C7H12O2/c1-8-7-2-6(3-7)4-9-5-7/h6H,2-5H2,1H3	InChI=1S/C7H12O2/c1-8-7-2-6(3-7)4-9-5-7/h6H,2-5H2,1H3/t6-,7-
