18
gdb 94022	4.41831	1.01013	0.88051	5.0201	78.83	-0.2718	-0.0078	0.264	1316.8838	0.148125	-401.964012	-401.955581	-401.954637	-401.997271	31.583	
C	-0.1547400536	 1.4988026723	-0.0049789994	-0.404403
C	 0.010559078	-0.027053981	 0.0176603908	-0.043392
C	 0.7478868512	-0.5248059969	-1.2291838198	-0.08307
O	 1.0663858856	-1.9080096489	-1.1348500625	-0.264052
C	 1.9888926884	-2.1847767514	-0.1011159297	-0.03998
C	 1.6797682753	-1.4550573764	 1.191340193	-0.096857
C	 0.7627951334	-0.4943484858	 1.2387219676	-0.057714
C	 1.9797421611	-3.6430191267	 0.1174181821	 0.269835
N	 2.0071129057	-4.7791976327	 0.3208623715	-0.31446
H	 0.8181882604	 2.002246216	-0.0083678827	 0.123405
H	-0.7062013322	 1.8214356004	-0.8940359508	 0.121795
H	-0.7069100114	 1.8443384803	 0.8743653964	 0.123658
H	-0.9906876381	-0.4812359949	 0.02826733	 0.103541
H	 0.1314332356	-0.426760272	-2.1263230425	 0.11911
H	 1.6655294874	 0.0680876971	-1.3779708739	 0.095122
H	 3.0129552952	-1.9206749629	-0.4267377746	 0.125034
H	 2.2449141291	-1.7638874322	 2.0646230485	 0.120452
H	 0.5494806088	 0.0032991859	 2.181985936	 0.101975
57.9997	140.1154	188.1273	228.4135	285.9925	302.917	341.6815	414.2266	467.1525	501.7886	581.2123	616.71	705.4695	766.3674	854.2708	901.1544	934.1178	959.5631	994.5906	1018.2773	1041.5625	1093.5309	1111.0321	1130.754	1166.2384	1223.2251	1282.1816	1300.4116	1313.2974	1348.1858	1355.8095	1386.5259	1406.2817	1428.5762	1493.687	1499.0995	1501.1414	1722.5638	2368.3731	2925.6932	2973.0918	3005.6141	3032.7931	3097.1065	3103.5152	3106.9651	3151.8182	3190.1472
CC1COC(C=C1)C#N	C[C@H]1CO[C@@H](C=C1)C#N	
InChI=1S/C7H9NO/c1-6-2-3-7(4-8)9-5-6/h2-3,6-7H,5H2,1H3	InChI=1S/C7H9NO/c1-6-2-3-7(4-8)9-5-6/h2-3,6-7H,5H2,1H3/t6-,7+/m1/s1
