16
gdb 93193	2.95772	1.44914	1.01458	4.7155	67.44	-0.2765	-0.057	0.2195	1132.1195	0.124769	-475.064832	-475.056759	-475.055815	-475.097792	29.763	
C	-0.2265576406	 1.4531300754	 0.0386633748	-0.407759
C	 0.0009225164	-0.0434449951	-0.0852300084	 0.092616
C	 1.0096151665	-0.4094495167	-1.153620802	-0.087877
O	 1.1863469611	-1.8335214819	-1.2201252854	-0.225355
C	 1.2125675637	-2.5275024885	-0.0669545032	 0.34328
O	 1.4422101082	-3.7050684191	-0.0665380639	-0.317942
C	 0.9545425945	-1.7730932378	 1.2407745638	 0.258512
N	 1.1953700861	-2.2943636139	 2.3645663391	-0.468477
O	 0.4876507898	-0.5044438421	 1.1842934853	-0.236809
H	 0.7153669996	 1.9731193358	 0.2356060911	 0.13808
H	-0.6658743158	 1.8504370821	-0.8805911236	 0.129554
H	-0.9091029255	 1.6559468602	 0.8668120395	 0.149421
H	-0.9478973494	-0.5546066706	-0.3034370511	 0.106795
H	 0.6694685231	-0.106634352	-2.1460568674	 0.138872
H	 1.9754947566	 0.067569716	-0.9474507989	 0.132647
H	 1.5454801857	-3.2412363617	 2.2093122605	 0.254444
84.5189	99.8957	215.62	223.2244	274.1235	368.5395	416.673	452.299	468.4478	498.442	593.1541	655.4229	756.8482	799.7848	894.45	927.639	944.8717	960.9523	1076.685	1088.8069	1153.0012	1155.8372	1169.3937	1208.2872	1274.3084	1354.0888	1373.8235	1395.1918	1415.9096	1433.5269	1484.9256	1499.2257	1502.927	1734.501	1840.9059	3007.6666	3041.6386	3051.7904	3117.8524	3127.442	3136.7177	3488.0916
CC1COC(=O)C(=N)O1	C[C@H]1COC(=O)[C]([NH])O1	
InChI=1S/C5H7NO3/c1-3-2-8-5(7)4(6)9-3/h3,6H,2H2,1H3	InChI=1S/C5H7NO3/c1-3-2-8-5(7)4(6)9-3/h3,6H,2H2,1H3/t3-/m0/s1
