19
gdb 98624	4.5819	0.96409	0.85872	2.8567	78.58	-0.2266	0.0395	0.2661	1390.6742	0.159214	-419.19706	-419.187923	-419.186979	-419.23268	32.714	
C	-0.1491977629	 1.3969323161	 0.0873845913	-0.32779
N	 0.3477846631	 0.0463114633	-0.0662639249	-0.325456
C	 0.6757532323	-0.7363400662	 1.0014126551	 0.443325
O	 0.5249106941	-0.4110432573	 2.1641702662	-0.38602
N	 1.2593899435	-1.9655563715	 0.5706273413	-0.19649
C	 0.3103668277	-3.100597356	 0.4121344297	-0.041166
C	 1.1054769824	-4.2449448231	-0.2238928071	-0.242608
C	 2.0903266467	-4.1785652489	 1.0006243135	-0.245099
C	 1.2430603411	-3.0360214225	 1.5750753447	-0.007284
H	 0.6083589088	 2.1466223717	-0.1734463646	 0.12417
H	-1.0329022413	 1.5625743922	-0.5379673414	 0.12168
H	-0.42087782	 1.5292253469	 1.1352596924	 0.16821
H	 0.6614335663	-0.2685313813	-0.9693040308	 0.249353
H	-0.7528927227	-2.8985378266	 0.3628894721	 0.106995
H	 0.5458651414	-5.1824320113	-0.2573463916	 0.107786
H	 1.5261531059	-4.0356314718	-1.210325705	 0.105392
H	 2.052393619	-5.0833924249	 1.6104522775	 0.107917
H	 3.1305233179	-3.9258241207	 0.7838550199	 0.110474
H	 1.0470468767	-2.7687718181	 2.6040459418	 0.126611
19.4436	74.3317	104.1744	145.6236	206.6772	283.2062	311.786	349.4286	485.7998	502.7706	653.0117	722.0654	774.2987	780.9284	836.564	877.0802	890.4219	928.779	936.2871	989.217	1009.0083	1035.3755	1082.1139	1121.6347	1155.2785	1163.8793	1174.9595	1201.9289	1219.8576	1242.0416	1247.5341	1261.2588	1298.3694	1371.6842	1442.2775	1466.2349	1486.8349	1492.7872	1499.9074	1556.719	1781.4982	3020.5714	3064.4387	3073.3268	3074.515	3115.8371	3133.6123	3152.291	3190.6576	3227.1888	3651.3955
CNC(=O)N1C2CCC12	CNC(=O)N1[C@H]2CC[C@@H]12	
InChI=1S/C6H10N2O/c1-7-6(9)8-4-2-3-5(4)8/h4-5H,2-3H2,1H3,(H,7,9)	InChI=1S/C6H10N2O/c1-7-6(9)8-4-2-3-5(4)8/h4-5H,2-3H2,1H3,(H,7,9)/t4-,5+,8?
