23
gdb 84377	1.86369	1.80046	1.30742	0.0628	90.39	-0.2351	0.0278	0.263	1149.458	0.205993	-351.160724	-351.151632	-351.150688	-351.194131	35.997	
C	-0.3178665137	 1.5186154154	-0.0514260006	-0.389215
C	-0.0536056729	 0.0027361628	 0.0057155137	-0.112839
C	 0.8078661301	-0.4632273089	-1.1463501423	-0.073354
C	 2.007787738	-0.8851509509	-0.7544360067	-0.073164
C	 2.2013152492	-0.7901704094	 0.7422427794	-0.112829
C	 3.2635614619	 0.2592890557	 1.1180098531	-0.389171
C	 0.7663003626	-0.4787734982	 1.2240841243	 0.36517
C	 0.480407871	 0.005827908	 2.6208711842	-0.321869
C	 0.1144657904	-1.4025298106	 2.2245535114	-0.312827
H	 0.6178461422	 2.0845732189	-0.0094842662	 0.119026
H	-0.8301292842	 1.786642151	-0.9819914234	 0.10874
H	-0.950325598	 1.8454298961	 0.7801479509	 0.110632
H	-1.0295049513	-0.5022148	-0.0118150586	 0.071968
H	 0.4674539245	-0.4086459197	-2.1755018852	 0.087216
H	 2.7984181713	-1.2283150563	-1.4140942309	 0.087236
H	 2.5326203036	-1.7546540998	 1.1517566745	 0.071954
H	 2.9798955779	 1.2539394274	 0.7605168168	 0.119015
H	 3.4041714478	 0.3149210017	 2.2021871625	 0.110606
H	 4.2313649437	 0.0061550023	 0.6713915886	 0.108741
H	 1.3149181368	 0.1456944393	 3.3002484918	 0.107267
H	-0.3222583444	 0.7216214076	 2.765357937	 0.107254
H	-0.936927917	-1.6395782063	 2.0930059479	 0.105225
H	 0.7061487803	-2.2176445662	 2.6300183178	 0.105218
58.8514	186.4292	201.9894	219.9351	247.3278	260.2072	310.7168	324.5986	390.2747	522.7695	533.2666	558.9893	707.7902	759.8285	769.5771	779.978	833.9968	894.8705	920.4846	931.3152	940.7132	975.2466	978.2407	1023.8514	1042.7118	1056.2467	1079.8591	1089.9681	1095.1456	1098.527	1121.4008	1144.304	1189.7173	1263.0804	1264.52	1282.8736	1332.1028	1333.914	1373.0902	1377.6447	1405.9614	1408.8428	1468.2491	1491.0615	1493.7451	1494.4467	1498.3212	1508.3032	1689.5562	2998.5652	3000.4152	3030.1404	3031.6566	3095.8316	3096.8146	3106.307	3110.35	3115.9585	3128.0616	3169.7935	3194.6282	3195.7543	3211.5065
CC1C=CC(C)C11CC1	C[C@H]1C=C[C@@H](C)C21CC2	
InChI=1S/C9H14/c1-7-3-4-8(2)9(7)5-6-9/h3-4,7-8H,5-6H2,1-2H3	InChI=1S/C9H14/c1-7-3-4-8(2)9(7)5-6-9/h3-4,7-8H,5-6H2,1-2H3/t7-,8+
