14
gdb 125365	3.35323	1.66603	1.12075	5.074	71.45	-0.2304	-0.0389	0.1915	1006.86	0.102148	-432.856975	-432.849697	-432.848753	-432.888645	27.32	
C	-0.0161640935	 1.5404581543	 0.0172729899	-0.506125
C	-0.0057350363	 0.0440899431	 0.0315645517	 0.074314
C	-0.033142491	-0.8044088986	-1.0673333089	-0.114063
N	-0.012792383	-2.1348136485	-0.6917073032	-0.392173
C	 0.0284970319	-2.1440557796	 0.6765090966	 0.317559
C	 0.0336242536	-0.8457032993	 1.1385900007	 0.329049
O	 0.0738617637	-0.8801808796	 2.4666373685	-0.261378
N	 0.0937498613	-2.3307404286	 2.8019122139	-0.048623
N	 0.0659032693	-2.9939073623	 1.7265177612	-0.219688
H	 0.8777927561	 1.9544182146	 0.4964478937	 0.139463
H	-0.0513668821	 1.9188442586	-1.0079047557	 0.125913
H	-0.8832465031	 1.9425980784	 0.5525788344	 0.139471
H	-0.0665193408	-0.5401991341	-2.1136038453	 0.135991
H	-0.0261876961	-2.9253123382	-1.3105625875	 0.280289
116.2321	180.6899	237.4551	265.0462	305.7253	407.4095	469.6313	557.0037	607.1812	613.1142	642.2017	696.6681	762.0719	780.4972	822.5965	986.8369	1002.3057	1066.6915	1108.0261	1135.9481	1256.0491	1285.3192	1372.9786	1397.3656	1424.8123	1464.9784	1480.9113	1505.6525	1511.4889	1578.4608	1613.5741	3033.1828	3085.1854	3114.0789	3252.1004	3698.1304
CC1=CNC2=C1ON=N2	Cc1c[nH]c2c1onn2	
InChI=1S/C5H5N3O/c1-3-2-6-5-4(3)9-8-7-5/h2,6H,1H3	InChI=1S/C5H5N3O/c1-3-2-6-5-4(3)9-8-7-5/h2,6H,1H3
