14
gdb 6637	6.42776	0.72357	0.67643	2.9157	70.32	-0.2627	-0.0585	0.2042	1580.6667	0.102946	-382.538056	-382.528837	-382.527893	-382.574352	29.784	
C	-0.0447578834	 1.5150312143	 0.1163085767	-0.478891
C	 0.0565657683	 0.0403634367	-0.2125294273	 0.254447
O	 1.0962565655	-0.5011729645	-0.5206931393	-0.272351
C	-1.189105355	-0.7043084931	-0.1353210548	 0.051184
C	-2.2277980819	-1.3168740836	-0.0775470584	 0.034526
C	-3.4344599448	-2.1197092682	 0.006366148	-0.423408
C	-3.1549570863	-3.5586447424	 0.4632089365	 0.170412
O	-3.8958042358	-4.1726399775	 1.1785822437	-0.221907
H	 0.9386822274	 1.9780880134	 0.0246932333	 0.146079
H	-0.7550884951	 2.0033041586	-0.5595892869	 0.147686
H	-0.4292454573	 1.647216619	 1.1334519363	 0.148849
H	-4.185204862	-1.6828110457	 0.672442719	 0.163737
H	-3.8941610607	-2.192153134	-0.9915194414	 0.169997
H	-2.2157748889	-3.993356403	 0.0612845146	 0.109639
22.624	53.9283	84.7719	119.9731	141.7889	183.2589	354.2681	379.0247	455.4608	485.1852	599.4207	609.6684	674.6997	753.1596	961.5773	1023.0446	1037.0942	1043.8269	1058.4229	1206.4043	1241.9754	1286.7225	1382.606	1412.3905	1433.4333	1460.2889	1468.6061	1770.289	1844.2886	2331.4706	2919.009	3006.7054	3039.7872	3085.4366	3103.9896	3153.2706
CC(=O)C#CCC=O	CC(=O)C#CCC=O	
InChI=1S/C6H6O2/c1-6(8)4-2-3-5-7/h5H,3H2,1H3	InChI=1S/C6H6O2/c1-6(8)4-2-3-5-7/h5H,3H2,1H3
