16
gdb 52267	4.28986	0.93338	0.81451	3.0673	66.13	-0.2658	0.0015	0.2673	1344.1673	0.124546	-475.052097	-475.043824	-475.04288	-475.086523	28.622	
O	 0.5488637885	 0.1443905099	 0.4413611381	-0.269303
C	 0.6441523104	 1.3205087426	 0.6111330442	 0.182526
O	 0.6132181844	 2.2043972372	-0.4120287364	-0.181026
C	 0.8233839859	 3.5804985451	-0.1061673373	-0.106544
C	 2.2801591216	 3.9757274391	-0.2946359896	 0.083811
C	 2.5640293775	 5.4705673997	 0.0175972421	-0.207091
N	 3.4333374069	 5.4533842551	 1.2064503554	-0.25238
C	 3.6450167985	 4.2324659105	 1.4616486911	 0.120766
O	 3.0886980592	 3.2684905716	 0.6829883718	-0.230503
H	 0.7486689009	 1.8100181852	 1.5970593144	 0.082836
H	 0.1928108246	 4.1524936853	-0.7931221077	 0.134468
H	 0.5074835242	 3.8045399674	 0.9213141326	 0.123684
H	 2.6211488689	 3.6625833548	-1.2845007212	 0.116621
H	 3.0711523191	 5.981478454	-0.806265836	 0.130528
H	 1.6472653094	 6.0321127991	 0.2327428166	 0.12039
H	 4.2559606501	 3.8525683834	 2.2726350119	 0.151217
53.2394	73.6178	93.8568	158.0814	228.5098	354.682	371.9763	435.1807	536.3599	666.1591	749.0502	831.7238	882.0139	918.1765	963.7462	977.4552	1021.7292	1036.7559	1049.5966	1070.3466	1109.9002	1121.1659	1166.6832	1226.8632	1298.413	1307.6957	1322.4618	1330.6455	1378.3121	1408.7166	1430.5639	1488.3863	1502.2674	1712.6769	1873.1308	2967.7953	3026.1605	3038.3777	3074.2741	3088.7732	3101.4322	3222.3512
O=COCC1CN=CO1	O=COC[C@H]1CN=CO1	
InChI=1S/C5H7NO3/c7-4-8-2-5-1-6-3-9-5/h3-5H,1-2H2	InChI=1S/C5H7NO3/c7-4-8-2-5-1-6-3-9-5/h3-5H,1-2H2/t5-/m1/s1
