18
gdb 85405	1.92052	1.76171	0.95199	2.6308	75.81	-0.236	-0.0023	0.2337	1214.6587	0.149482	-435.337244	-435.328753	-435.327809	-435.370178	32.732	
C	-0.0430934665	 1.5479800842	 0.0207313913	-0.387473
C	 0.0671814114	 0.0244110268	 0.0319947878	 0.043435
C	 0.7350230168	-0.508540021	-1.2481725545	-0.326176
C	 0.9619513096	-2.005534909	-1.1743085108	 0.397579
O	 0.9248815357	-2.7746429092	-2.1076555091	-0.353424
N	 1.2568806773	-2.4359890209	 0.1107089092	-0.369691
C	 1.2675550594	-1.5808192802	 1.2206149564	 0.423379
N	 1.8077151579	-2.1666781397	 2.3570394655	-0.568965
N	 0.784380582	-0.4031132614	 1.2343650455	-0.313472
H	 0.9517985211	 2.0026744404	-0.0313485452	 0.114806
H	-0.628982663	 1.8945929738	-0.8366297386	 0.107996
H	-0.5240124236	 1.8965378947	 0.9383058647	 0.123156
H	-0.9539488503	-0.3903051512	 0.0789681152	 0.083993
H	 0.1510562369	-0.2972701171	-2.1463308736	 0.129672
H	 1.7167996405	-0.0294344883	-1.3701731392	 0.126802
H	 1.4175612142	-3.4261100254	 0.2301187589	 0.256175
H	 2.66822872	-2.6779038966	 2.2101463016	 0.250232
H	 1.8810949106	-1.4968527	 3.110912685	 0.261977
117.4405	120.4887	188.455	247.3791	275.3558	339.4715	397.4119	442.9583	466.1424	499.517	537.6377	561.3366	625.888	648.9731	678.4754	759.2966	871.8467	881.5545	927.4727	945.5409	1027.3184	1068.1756	1117.4421	1145.1712	1192.7392	1207.792	1276.5136	1302.9555	1319.2657	1353.7682	1372.4061	1407.9503	1457.0311	1481.156	1487.0576	1497.8171	1626.6053	1751.2509	1823.4341	2957.6452	3022.0674	3036.1515	3105.6103	3115.8844	3120.849	3545.958	3609.1431	3653.025
CC1CC(=O)NC(N)=N1	C[C@H]1CC(=O)NC(=N1)N	
InChI=1S/C5H9N3O/c1-3-2-4(9)8-5(6)7-3/h3H,2H2,1H3,(H3,6,7,8,9)	InChI=1S/C5H9N3O/c1-3-2-4(9)8-5(6)7-3/h3H,2H2,1H3,(H3,6,7,8,9)/t3-/m0/s1
