20
gdb 119784	4.88112	0.94079	0.90694	1.0429	81.16	-0.2313	0.0315	0.2628	1388.5611	0.172516	-403.131391	-403.123246	-403.122302	-403.164755	31.172	
C	-0.1090936798	 1.4448700902	-0.0109336727	-0.39146
C	-0.0324674802	-0.0688605739	-0.0126346554	-0.047267
O	-1.3825615272	-0.5768770415	 0.0169666127	-0.284807
C	-1.4918617867	-1.899510191	 0.0185047455	 0.443276
N	-0.5513789667	-2.7707367437	-0.0029939027	-0.326945
C	-1.3918540528	-4.02169642	 0.0148037642	 0.017995
C	-2.5034811403	-3.7011099289	-1.0292024942	-0.210652
C	-2.8378265302	-2.6062737042	 0.0475626084	-0.164442
C	-2.4564394063	-3.7024504574	 1.1071573948	-0.210654
H	 0.9001241536	 1.8668109286	-0.0327423236	 0.122631
H	-0.6542166411	 1.8095248723	-0.8861189496	 0.129005
H	-0.6158482175	 1.8094283918	 0.8870545778	 0.129009
H	 0.4677995655	-0.4582060668	-0.9055924658	 0.122956
H	 0.5064409597	-0.4581713565	 0.8575740502	 0.122907
H	-0.8030179028	-4.9367060119	 0.0012547698	 0.07159
H	-2.1786170826	-3.3612571339	-2.0153197204	 0.101684
H	-3.2779086627	-4.4684710833	-1.1109709639	 0.097947
H	-3.7567441183	-2.0234035161	 0.0681639127	 0.077601
H	-3.2265621074	-4.4699109948	 1.2219671969	 0.097945
H	-2.0884664561	-3.363833009	 2.0784439152	 0.101683
49.3607	109.3041	157.6009	233.0812	286.979	339.519	414.4576	495.4269	535.1436	697.9862	720.767	806.3786	807.3897	827.9523	844.5897	880.1407	897.7805	927.28	954.551	999.4402	1027.4941	1053.261	1059.2002	1100.323	1110.9575	1111.3265	1139.2811	1182.9652	1220.7342	1220.8162	1243.6778	1255.3194	1274.7907	1287.6225	1371.0322	1408.9482	1439.281	1476.7955	1485.5095	1496.9567	1514.9105	1519.4209	1672.0302	3046.0495	3046.6042	3054.8616	3062.4852	3083.8919	3120.5991	3123.1447	3125.364	3128.256	3137.1749	3139.6252
CCOC1=NC2CC1C2	CCO[C]1[N][C@@H]2C[C@H]1C2	
InChI=1S/C7H11NO/c1-2-9-7-5-3-6(4-5)8-7/h5-6H,2-4H2,1H3	InChI=1S/C7H11NO/c1-2-9-7-5-3-6(4-5)8-7/h5-6H,2-4H2,1H3/t5-,6+
