18
gdb 7359	3.7345	1.06449	0.88471	2.1585	65.18	-0.2659	-0.0268	0.239	1287.7035	0.150592	-422.091726	-422.081981	-422.081037	-422.126905	33.767	
C	 0.0168477134	 1.4134944472	 0.1029710125	-0.482033
C	 0.0478535434	-0.0882353758	-0.0542836866	 0.368765
O	 1.079404969	-0.701934527	-0.2331686689	-0.31928
C	-1.2691701564	-0.8682050446	 0.0106977481	 0.031059
O	-1.0166634399	-2.2333726496	-0.1914662728	-0.43884
C	-2.004457623	-0.6356046453	 1.3411511544	-0.194173
C	-3.3023539679	-1.4305968498	 1.4159051349	-0.073913
O	-3.9223730521	-1.1178422878	 2.6546376089	-0.42479
H	 0.9589643442	 1.8384855162	-0.2454181364	 0.150103
H	-0.8234723239	 1.8554807134	-0.4407789709	 0.14144
H	-0.1138726673	 1.6679733886	 1.1610100574	 0.160293
H	-1.9046153044	-0.4813624015	-0.8077641605	 0.086002
H	-0.0528475589	-2.2957725922	-0.3020614783	 0.292281
H	-1.3568769284	-0.9334600901	 2.1738291547	 0.114323
H	-2.2378323618	 0.4279252362	 1.464324086	 0.105217
H	-3.9504105839	-1.1592306768	 0.5652319243	 0.081436
H	-3.075924552	-2.501105852	 1.330518115	 0.11525
H	-4.6795787401	-1.699928099	 2.7650089182	 0.28686
62.7784	92.7411	106.4623	121.1538	139.5035	254.3217	262.7567	330.3131	354.7978	413.7596	472.165	478.4104	595.3217	639.4114	803.6395	826.7321	944.5279	972.4937	993.9414	1049.078	1078.5644	1119.6674	1147.0469	1204.9891	1229.343	1233.8625	1281.428	1313.1971	1328.6005	1368.5415	1387.3308	1439.0076	1459.5082	1463.718	1473.8989	1482.9356	1529.9803	1794.3848	2934.9186	2959.5024	3036.0424	3039.3496	3043.5601	3089.1335	3106.5502	3153.0484	3657.5102	3832.4546
CC(=O)C(O)CCO	CC(=O)[C@@H](O)CCO	
InChI=1S/C5H10O3/c1-4(7)5(8)2-3-6/h5-6,8H,2-3H2,1H3	InChI=1S/C5H10O3/c1-4(7)5(8)2-3-6/h5-6,8H,2-3H2,1H3/t5-/m0/s1
