22
gdb 106708	2.42081	1.47307	1.16498	1.4058	85.89	-0.245	0.0937	0.3386	1192.5928	0.194196	-367.169467	-367.160413	-367.159469	-367.20304	35.143	
C	 0.2410507828	 1.4861676269	 0.225875289	-0.377688
C	-0.1578537556	 0.0381162128	-0.0908802	-0.268309
C	 0.5034657905	-0.4801649612	-1.3378627411	 0.296112
N	 1.9056418964	-0.9199394976	-1.2621412988	-0.420857
C	 0.9064754904	-1.8807573361	-1.7514826423	 0.263295
C	 0.7619724525	-3.1998304192	-1.0507016392	-0.479022
C	 0.507019558	-1.581124254	-3.1863527239	-0.120133
C	-0.935052703	-1.1458856784	-3.253301381	-0.290632
C	 0.101506945	-0.1634864036	-2.7695266429	-0.123716
H	 1.3233477584	 1.5626721242	 0.3682018464	 0.128018
H	-0.0411597218	 2.1633267115	-0.5876776418	 0.112644
H	-0.2485041202	 1.840110256	 1.1383044828	 0.109394
H	 0.117111584	-0.6078338956	 0.7499701866	 0.10503
H	-1.247045127	-0.0304607752	-0.2062154142	 0.094141
H	 2.4689342762	-0.5368319109	-2.0190243051	 0.217696
H	 0.8883312354	-3.0814294706	 0.0285173801	 0.129778
H	-0.2210859405	-3.6421937176	-1.2437584688	 0.115685
H	 1.5220400523	-3.91040478	-1.3967766146	 0.120046
H	 1.0596101796	-1.8752054047	-4.0725433009	 0.084023
H	-1.3309302769	-0.9668449036	-4.2493893836	 0.109311
H	-1.6601827531	-1.557947707	-2.5563434757	 0.11048
H	 0.3070358662	 0.7605908538	-3.2991197708	 0.084704
68.9405	137.8297	189.7248	193.6399	225.6674	252.4816	274.824	394.4898	446.471	540.1724	568.281	593.7745	705.2731	756.1663	781.7111	806.5092	824.8563	856.4081	938.9568	948.5464	973.6994	986.6069	1029.3323	1044.894	1070.2603	1081.4142	1091.9254	1103.646	1111.9775	1151.0571	1162.5673	1186.6706	1237.2793	1257.3425	1305.59	1329.9833	1339.9799	1368.8309	1403.5152	1413.1875	1457.1441	1473.7289	1486.483	1487.8575	1495.4874	1498.2373	1509.3408	3025.8963	3029.0516	3033.8736	3069.5776	3087.176	3102.1913	3109.8469	3111.8887	3118.4789	3161.3542	3170.872	3194.5128	3464.5492
CCC12NC1(C)C1CC21	CC[C@@]12N[C@]1(C)[C@H]1C[C@@H]21	
InChI=1S/C8H13N/c1-3-8-6-4-5(6)7(8,2)9-8/h5-6,9H,3-4H2,1-2H3	InChI=1S/C8H13N/c1-3-8-6-4-5(6)7(8,2)9-8/h5-6,9H,3-4H2,1-2H3/t5-,6+,7+,8-/m0/s1
