17
gdb 38149	3.02517	1.85955	1.33005	1.0231	71.68	-0.2516	-0.0106	0.241	949.438	0.137975	-421.810996	-421.804252	-421.803308	-421.842112	27.106	
C	-0.0256039328	 1.4611235696	-0.1144304912	-0.071386
C	 1.42038546	 1.8987849806	 0.2448575243	-0.37725
C	 2.1726171547	 0.5937516677	 0.0716640878	 0.435742
O	 3.521311595	 0.4504628455	-0.327483488	-0.307435
C	 3.1049972264	-0.111592471	 0.9562957996	-0.094036
C	 2.715698691	-1.5533885416	 0.9243415499	-0.074896
C	 1.6337304472	-1.7359102101	 0.1577137574	-0.123336
C	 1.1851878266	-0.4402277423	-0.472766541	 0.023365
O	-0.0740529866	 0.0352211565	-0.009805138	-0.268802
H	-0.783347247	 1.8633547805	 0.5612294762	 0.114908
H	-0.2739205646	 1.7742510952	-1.1399541301	 0.097503
H	 1.7974822014	 2.6686294123	-0.4334035337	 0.1232
H	 1.4897702794	 2.2824702101	 1.2655575512	 0.11918
H	 3.5856897461	 0.3424632508	 1.8173269343	 0.101925
H	 3.2503169241	-2.329027283	 1.4598587984	 0.10836
H	 1.1641561265	-2.6879179877	-0.0606712876	 0.111123
H	 1.2017612626	-0.4959625432	-1.5741915294	 0.081834
109.9261	195.0858	284.7402	366.5078	386.8643	494.5781	582.2534	612.1671	693.2813	728.9866	784.718	822.8847	835.693	901.7936	922.889	956.9284	959.4535	971.9165	997.9846	1010.0413	1069.3753	1085.3679	1105.3363	1136.2373	1192.2953	1214.1104	1247.2448	1268.4442	1293.3671	1311.5253	1336.5844	1372.7879	1380.9327	1464.4897	1488.2937	1516.4874	1648.4694	2967.3098	2988.3487	3066.0202	3100.1464	3115.2744	3165.4263	3194.0738	3217.3278
C1CC23OC2C=CC3O1	C1C[C@@]23O[C@@H]2C=C[C@H]3O1	
InChI=1S/C7H8O2/c1-2-6-7(9-6)3-4-8-5(1)7/h1-2,5-6H,3-4H2	InChI=1S/C7H8O2/c1-2-6-7(9-6)3-4-8-5(1)7/h1-2,5-6H,3-4H2/t5-,6-,7+/m1/s1
