15
gdb 18102	4.8437	2.08485	1.50189	2.8545	67.84	-0.214	-0.0042	0.2097	804.4763	0.122616	-358.865809	-358.859511	-358.858567	-358.896612	23.303	
C	 0.0050284736	 1.4212565847	 0.0161651952	-0.169615
C	 1.5128992877	 1.8758749828	-0.0190344276	-0.211859
N	 2.1593615093	 0.5821491388	 0.1476750377	-0.076666
C	 3.4059176183	 0.0007663283	 0.0139956944	 0.051951
N	 3.4125287954	-1.2784172521	-0.0790876248	-0.267091
C	 1.9943297347	-1.7065591957	-0.0494884293	-0.277375
C	 1.2007167727	-0.4208749071	 0.004742061	 0.386031
N	-0.0135563822	-0.0559205343	-0.0933376858	-0.352183
H	-0.4743235524	 1.7216424586	 0.9552506835	 0.119349
H	-0.5729306919	 1.8670903895	-0.7982247284	 0.119942
H	 1.784702706	 2.339888129	-0.9750826751	 0.120752
H	 1.7656787363	 2.5700917758	 0.7867269735	 0.124095
H	 4.3029363333	 0.610787904	 0.0203255303	 0.136701
H	 1.7529707094	-2.3074187868	-0.9316777516	 0.149222
H	 1.8105618598	-2.3366725253	 0.8285558172	 0.146746
89.1701	133.1871	237.1736	432.1133	469.2634	614.1527	628.6004	716.0027	787.8137	845.9961	908.8318	915.5391	928.9156	945.3158	990.5376	996.5151	1102.0145	1114.6438	1183.7945	1204.5839	1232.1182	1249.1686	1280.6602	1288.2337	1332.3386	1362.2673	1400.2204	1454.281	1497.5047	1525.1198	1649.6132	1746.4956	3023.5776	3036.5509	3046.9165	3076.9294	3085.786	3092.0634	3198.3091
C1CN2C=NCC2=N1	C1CN2C=NC[C]2[N]1	
InChI=1S/C5H7N3/c1-2-8-4-6-3-5(8)7-1/h4H,1-3H2	InChI=1S/C5H7N3/c1-2-8-4-6-3-5(8)7-1/h4H,1-3H2
