21
gdb 58018	1.85048	1.44325	0.9419	2.1711	85.18	-0.2428	-0.0209	0.2219	1341.9115	0.177841	-387.086318	-387.075266	-387.074322	-387.122579	39.806	
C	-0.2031589008	 1.6035862048	 0.076801165	-0.405472
C	-0.1076123419	 0.0825502777	-0.088050897	 0.043908
C	 0.4163396259	-0.2808169797	-1.4845086809	-0.407329
C	 0.7857334781	-0.5558834577	 1.0076966355	-0.257221
C	 0.4227155791	-0.1556366908	 2.3661344741	 0.314356
C	 0.1096274999	 0.12370216	 3.4935157938	-0.450351
C	 0.7364062713	-2.1106387645	 0.9855940093	 0.385552
C	 1.9104763153	-2.8146987347	 1.632992175	-0.479303
O	-0.1886793198	-2.7035377122	 0.4893314655	-0.29339
H	 0.781521202	 2.0753963989	-0.0293067083	 0.108381
H	-0.8560687922	 2.0276244982	-0.6926122006	 0.112611
H	-0.6039292472	 1.8796528969	 1.0550427318	 0.12877
H	-1.1049707575	-0.3537229573	 0.030726007	 0.10379
H	 1.4287485546	 0.1133808658	-1.6383045438	 0.105335
H	 0.4371113351	-1.3614803007	-1.6407841366	 0.132154
H	-0.2249074472	 0.1552821231	-2.256670583	 0.114656
H	 1.8297707174	-0.2548989053	 0.8333949948	 0.105307
H	-0.1648797108	 0.389143446	 4.4845753556	 0.199753
H	 2.8025863191	-2.6760818018	 1.009978862	 0.142583
H	 2.1292611038	-2.3790580673	 2.6121814162	 0.151899
H	 1.7011795157	-3.8806839494	 1.7279108247	 0.144012
55.1345	70.2313	130.8845	142.2308	166.4165	184.4713	224.3448	251.0342	318.1404	338.8511	395.1498	405.5378	426.2232	519.319	577.2939	609.6322	620.8052	645.3065	804.03	859.4956	929.8207	938.3906	958.4124	969.5494	993.908	1061.6905	1138.9352	1142.5528	1180.2263	1193.1565	1274.6927	1284.3572	1344.1068	1368.8222	1380.0518	1399.7666	1420.876	1462.763	1476.0616	1487.8102	1494.3442	1504.4564	1515.0773	1822.4438	2224.8513	2994.983	3025.7595	3029.8097	3037.768	3059.4232	3089.9995	3099.1359	3106.094	3122.3997	3128.1229	3156.0356	3501.8019
CC(C)C(C#C)C(C)=O	CC(C)[C@@H](C#C)C(=O)C	
InChI=1S/C8H12O/c1-5-8(6(2)3)7(4)9/h1,6,8H,2-4H3	InChI=1S/C8H12O/c1-5-8(6(2)3)7(4)9/h1,6,8H,2-4H3/t8-/m1/s1
