16
gdb 54530	3.25135	1.43514	1.15277	2.7445	64.91	-0.2417	0.0251	0.2668	1046.1624	0.124394	-475.032182	-475.024104	-475.02316	-475.064965	30.254	
N	 0.1936680446	 0.9678646158	-0.7316426848	-0.53901
C	-0.0397113949	 0.1083260281	 0.2915780483	 0.332652
O	 0.6345042011	 0.039676321	 1.304380452	-0.382464
C	-1.2127877755	-0.7957122492	 0.0829932746	 0.304733
C	-1.913109648	-1.4483209307	 1.2627096405	-0.382774
C	-1.1364165871	-2.2875931685	 0.2848024659	 0.050393
O	-1.8042099437	-2.8673712181	-0.8061866597	-0.250456
C	-2.5699505704	-1.845072929	-1.4089933139	-0.00104
O	-1.9568732886	-0.5995319399	-1.0987881964	-0.318383
H	 0.9898879255	 1.5800993015	-0.6776466945	 0.263723
H	-0.386490175	 0.9529694871	-1.5525006297	 0.273222
H	-1.4308975403	-1.2702637208	 2.2170217937	 0.155587
H	-2.9964155113	-1.4831619877	 1.2743468703	 0.126921
H	-0.2332473769	-2.8139696232	 0.5623967907	 0.135597
H	-2.5779741963	-1.9876026868	-2.4938796237	 0.127369
H	-3.6004504735	-1.8544243095	-1.0211976035	 0.103932
74.8233	149.6605	187.8871	225.7233	243.7632	339.0717	411.5888	463.9484	493.7616	599.6298	649.8161	717.2491	737.0339	773.7361	845.2668	881.5362	941.6862	963.3472	1015.9689	1028.8906	1068.0977	1081.3936	1094.0346	1152.828	1161.267	1214.6611	1222.2107	1252.8004	1351.1336	1414.3015	1437.2848	1456.4225	1547.3146	1602.068	1789.2315	2977.3709	3080.7323	3143.6405	3214.405	3242.2837	3606.9184	3747.8815
NC(=O)C12CC1OCO2	NC(=O)[C@]12C[C@H]1OCO2	
InChI=1S/C5H7NO3/c6-4(7)5-1-3(5)8-2-9-5/h3H,1-2H2,(H2,6,7)	InChI=1S/C5H7NO3/c6-4(7)5-1-3(5)8-2-9-5/h3H,1-2H2,(H2,6,7)/t3-,5+/m1/s1
