16
gdb 25964	5.02179	0.97944	0.82405	6.8032	75.11	-0.2019	0.004	0.2059	1339.2838	0.125129	-434.132851	-434.124101	-434.123157	-434.167913	30.882	
C	 0.0069588601	 1.5537739144	-0.1489784048	-0.497528
C	 0.0103296213	 0.0557823083	 0.1072742768	 0.403668
O	 0.0638629355	-0.4256443298	 1.2194080731	-0.34042
N	-0.0266192174	-0.7175479563	-1.0344465693	-0.456414
C	 0.0232053396	-2.1121359027	-1.0448654751	 0.408474
C	 0.1390718245	-3.0667152195	-0.064151396	-0.149042
N	 0.1343449941	-4.324152232	-0.6329653962	-0.244085
C	 0.018375484	-4.1399428878	-1.9211501751	 0.011371
N	-0.0546226526	-2.8057147996	-2.2351990927	-0.344316
H	 1.0324258266	 1.9327115304	-0.0855227542	 0.156682
H	-0.4036177881	 1.8299129687	-1.1243193163	 0.115089
H	-0.574244522	 2.0376875949	 0.6373551048	 0.160575
H	-0.0520108722	-0.2433674043	-1.9222120884	 0.246944
H	 0.2204644263	-2.9060025862	 0.9952437462	 0.141287
H	-0.0179534001	-4.905727964	-2.6810062595	 0.129121
H	-0.1575265195	-2.4139533845	-3.1562357632	 0.258595
37.48	42.943	97.0315	160.7446	321.7459	351.2318	361.5196	378.2109	438.5456	574.7257	608.5325	673.0265	681.3248	776.1833	782.5676	843.4061	924.299	962.2362	997.6603	1041.2527	1047.4444	1107.1701	1135.126	1235.4178	1257.7052	1272.9702	1366.6884	1396.3434	1429.7725	1468.7352	1487.6195	1518.6148	1562.4186	1620.3725	1792.1973	3045.6224	3112.3799	3147.5531	3255.16	3310.9764	3641.2266	3659.31
CC(=O)NC1=CN=CN1	CC(=O)Nc1cnc[nH]1	
InChI=1S/C5H7N3O/c1-4(9)8-5-2-6-3-7-5/h2-3H,1H3,(H,6,7)(H,8,9)	InChI=1S/C5H7N3O/c1-4(9)8-5-2-6-3-7-5/h2-3H,1H3,(H,6,7)(H,8,9)
