21
gdb 114661	3.44669	1.08042	0.99476	1.637	77.4	-0.2516	0.0828	0.3344	1292.6237	0.183539	-424.204999	-424.196614	-424.19567	-424.23789	33.125	
C	-0.0572693867	 1.591873629	 0.1006941345	-0.379177
C	 0.0112757339	 0.0611649283	 0.0807921365	-0.206099
C	-1.3646812512	-0.5973434614	-0.0483734376	 0.044407
C	-2.0839095422	-0.4435504698	-1.4362737349	-0.250123
C	-2.3204146266	-1.9359570462	-1.7141796827	 0.025735
O	-2.7684258474	-2.4408581927	-0.4052580431	-0.332118
C	-1.3848392777	-2.1379390625	-0.0024853472	-0.008183
C	-0.9516118271	-2.6020925255	-1.4195592896	 0.192243
O	-0.9128126196	-3.9894067502	-1.5999645139	-0.456495
H	 0.9391874201	 2.0317463088	 0.2049134693	 0.11414
H	-0.499305184	 1.983815589	-0.8214315377	 0.119361
H	-0.6692912577	 1.9474214924	 0.9368855256	 0.116942
H	 0.6628924546	-0.2636652176	-0.7403121286	 0.098498
H	 0.4889090708	-0.2906769681	 1.004937549	 0.097977
H	-2.01290328	-0.2239334495	 0.7518609069	 0.08049
H	-3.0207697175	 0.1132660546	-1.3751493537	 0.110632
H	-1.449754103	 0.0253324085	-2.1958101019	 0.101302
H	-2.9525424268	-2.2405835181	-2.5488584464	 0.081179
H	-1.0645286401	-2.6502017524	 0.9059391578	 0.079035
H	-0.0489697572	-2.1860627868	-1.8722352945	 0.083816
H	-1.7200150446	-4.3306237997	-1.1917332577	 0.286438
97.1285	126.0136	198.2168	253.3558	267.0833	320.3821	375.2185	427.4155	485.225	517.3375	609.6359	665.4053	774.2368	824.5516	842.1204	860.0565	909.9142	917.9495	942.0814	959.9007	976.0604	983.626	1053.5831	1057.4786	1071.5409	1121.3168	1132.0416	1180.4661	1192.5757	1210.5806	1231.8489	1250.9708	1281.5671	1295.2929	1297.3701	1315.3656	1331.7694	1356.4495	1389.6847	1414.6653	1449.2559	1482.8735	1493.0413	1501.7383	1508.1683	3015.1463	3033.067	3037.5148	3054.5773	3056.0614	3094.7164	3100.7251	3105.8433	3113.1497	3115.031	3122.7898	3763.2163
CCC1CC2OC1C2O	CC[C@H]1C[C@@H]2O[C@H]1[C@H]2O	
InChI=1S/C7H12O2/c1-2-4-3-5-6(8)7(4)9-5/h4-8H,2-3H2,1H3	InChI=1S/C7H12O2/c1-2-4-3-5-6(8)7(4)9-5/h4-8H,2-3H2,1H3/t4-,5-,6-,7+/m0/s1
