25
gdb 120651	4.24659	0.72214	0.68063	0.0709	94.47	-0.2512	0.0914	0.3426	1810.9467	0.228525	-352.341267	-352.331147	-352.330203	-352.377106	37.837	
C	-0.3629065843	 1.5631476442	-0.0498287529	-0.38064
C	-0.3340454863	 0.0406527904	-0.2065653051	-0.152911
C	 0.9058645302	-0.4648895117	-0.9564349464	-0.191866
C	 0.9455823014	-1.9717427568	-1.1036011548	-0.072844
C	 0.215538048	-2.6566775336	-2.241284555	-0.350157
C	 1.7191733108	-2.627881097	-2.2084586068	 0.369508
C	 2.6239369266	-1.9836291144	-3.2720282678	-0.289007
C	 3.3347959167	-3.3603743085	-3.4334957816	-0.205514
C	 2.6318021368	-3.8612811491	-2.1371595628	-0.293909
H	 0.5128156431	 1.92125881	 0.5032386687	 0.11196
H	-0.3614659044	 2.0625372862	-1.0254247659	 0.111912
H	-1.2553274995	 1.8937367281	 0.4909511516	 0.10966
H	-0.3716232034	-0.4310369722	 0.7843951079	 0.092227
H	-1.2345197815	-0.2963050264	-0.735384488	 0.097753
H	 0.9421184097	-0.0009329095	-1.95130397	 0.090739
H	 1.8088622924	-0.1217088862	-0.4312014702	 0.089875
H	 0.9422810884	-2.5119411343	-0.1573784115	 0.073309
H	-0.2881294745	-3.5985760139	-2.0451830935	 0.103811
H	-0.2878347171	-2.0264179599	-2.9700677549	 0.103116
H	 2.134392088	-1.5762529269	-4.1609659844	 0.094958
H	 3.2848181066	-1.2137534586	-2.8596670627	 0.098008
H	 2.9980210872	-3.8987747963	-4.3227414778	 0.102961
H	 4.4269023894	-3.3518370091	-3.4278522425	 0.095628
H	 3.29490725	-3.8487173927	-1.2654787112	 0.096324
H	 2.1452689757	-4.8396866417	-2.1863273924	 0.095098
56.8486	77.9599	85.8568	107.6985	198.0879	241.8597	256.4215	294.4978	359.2522	413.2495	456.0989	600.2748	705.6451	743.5253	789.3218	824.9171	852.6166	872.4001	886.8706	900.7511	913.2692	939.8625	948.9366	971.1748	1037.4543	1043.2064	1055.9975	1087.6715	1098.0127	1130.0531	1146.4135	1185.8398	1196.1074	1221.6028	1229.62	1252.825	1262.9465	1272.0036	1281.7623	1301.416	1327.3485	1340.4529	1386.95	1411.7953	1430.6186	1476.7004	1478.2885	1480.2597	1491.7514	1494.7924	1499.2496	1506.2254	1509.3898	3000.3566	3017.506	3027.2915	3031.8646	3038.1544	3042.6828	3055.4192	3064.5627	3085.0705	3089.6172	3093.2844	3099.5638	3108.374	3110.0486	3119.5538	3193.4081
CCCC1CC11CCC1	CCC[C@H]1CC21CCC2	
InChI=1S/C9H16/c1-2-4-8-7-9(8)5-3-6-9/h8H,2-7H2,1H3	InChI=1S/C9H16/c1-2-4-8-7-9(8)5-3-6-9/h8H,2-7H2,1H3/t8-/m0/s1
