16
gdb 23365	1.93801	1.70301	0.96928	5.8361	75.47	-0.1766	-0.0389	0.1376	1170.3807	0.12335	-471.137692	-471.12881	-471.127866	-471.171407	32.963	
N	-0.0522896552	 1.2726898021	 0.3243614943	-0.536095
C	-0.106465026	-0.0752497716	 0.1284611849	 0.363381
N	 1.0582745321	-0.7268633241	-0.0598022601	-0.565093
H	 1.8933570898	-0.2172320454	-0.2911796939	 0.261083
H	 1.0043933369	-1.7260716071	-0.2238852462	 0.290822
C	-1.3442671932	-0.7352169434	 0.1135903171	 0.211025
N	-2.3915786239	 0.0301813399	 0.5470602327	-0.098768
O	-3.5197136462	-0.4913174523	 0.5384327436	-0.366565
C	-1.5579462345	-2.1504935443	-0.2748424726	-0.014204
C	-1.1544843988	-2.7367341792	-1.5634549877	-0.181716
O	-0.4065739474	-3.032665492	-0.3733986249	-0.264587
H	 0.7479313289	 1.6295872099	 0.825351624	 0.254492
H	-0.9533935801	 1.6458066126	 0.607021334	 0.273094
H	-2.4195353554	-2.5904970362	 0.2207139144	 0.128371
H	-1.7084917532	-3.5784582817	-1.9743077759	 0.129894
H	-0.6369720238	-2.1166368973	-2.2936270336	 0.114867
64.3211	119.8374	180.8183	240.1844	245.9038	299.6923	341.4101	359.2306	435.0565	450.4192	530.9737	555.5038	670.4837	673.8099	714.7957	722.8048	763.831	821.1161	917.3326	996.8515	1080.2078	1098.7241	1109.2556	1152.5741	1176.8544	1252.7212	1273.9694	1298.0085	1410.103	1479.049	1513.1956	1531.9357	1582.6596	1631.6314	1678.529	3089.6686	3153.669	3182.1675	3494.9552	3504.8146	3646.3654	3698.9064
NC(=[NH2+])C(=N[O-])C1CO1	NC(=[NH2])C(=N[O])[C@H]1CO1	
InChI=1S/C4H7N3O2/c5-4(6)3(7-8)2-1-9-2/h2,8H,1H2,(H3,5,6)	InChI=1S/C4H7N3O2/c5-4(6)3(7-8)2-1-9-2/h2H,1,5-6H2/t2-/m1/s1
