18
gdb 75775	2.3825	1.31297	1.12289	3.4044	79.18	-0.2462	0.0235	0.2696	1178.3406	0.14482	-401.944101	-401.934468	-401.933524	-401.978352	35.771	
C	-0.1238755332	 1.5855490764	-0.0827986633	-0.416244
C	 0.023695397	 0.0742095896	-0.0026641355	-0.201703
C	 1.1324041846	-0.5799710942	-0.8595418766	 0.44524
O	 1.400057468	-0.6220893654	-2.0299423998	-0.365408
N	 1.7322713544	-1.1175823371	 0.2544707375	-0.354549
C	 0.7561590601	-0.6008695806	 1.2369430514	 0.124236
C	 1.3729962341	 0.3344195086	 2.2809978631	-0.433517
C	-0.0333224447	-1.6488148902	 1.8807225936	 0.315598
C	-0.6774087451	-2.5063979267	 2.4240448043	-0.464115
H	 0.8280199291	 2.1032296026	 0.061864273	 0.126905
H	-0.4978543086	 1.8575283875	-1.0742746061	 0.142924
H	-0.835952589	 1.9577911318	 0.6603313008	 0.124631
H	-0.9358925168	-0.4155379581	-0.1868976347	 0.114474
H	 2.4384814474	-1.8339742575	 0.3499245791	 0.250507
H	 1.9920195615	 1.0942859687	 1.7991636674	 0.126137
H	 0.5906009593	 0.8266742192	 2.8653377263	 0.133658
H	 2.0000839279	-0.2351506527	 2.9729897239	 0.128736
H	-1.2499586661	-3.2673164118	 2.8947006155	 0.202491
57.0121	136.1009	180.781	194.1112	204.0275	227.3474	276.6102	339.0131	391.3888	435.8287	471.7156	513.3732	587.1089	621.2017	630.8407	653.5398	694.1935	760.8333	833.7667	889.1354	931.583	1027.4293	1069.7474	1089.7674	1131.6923	1162.8337	1187.572	1223.2236	1267.6823	1346.4336	1362.4341	1404.1015	1414.837	1480.7228	1487.5527	1498.6411	1503.6299	1893.9465	2231.8514	3041.513	3048.1035	3083.6415	3111.4141	3117.7593	3119.6296	3135.5991	3499.8131	3597.5742
CC1C(=O)NC1(C)C#C	C[C@H]1C(=O)N[C@]1(C)C#C	
InChI=1S/C7H9NO/c1-4-7(3)5(2)6(9)8-7/h1,5H,2-3H3,(H,8,9)	InChI=1S/C7H9NO/c1-4-7(3)5(2)6(9)8-7/h1,5H,2-3H3,(H,8,9)/t5-,7+/m0/s1
