18
gdb 42953	2.55701	1.91983	1.35314	2.4353	74.54	-0.2334	-0.0269	0.2066	969.7323	0.149831	-401.929301	-401.922323	-401.921379	-401.960621	28.234	
O	-0.0468401788	 0.1958827184	-0.9006068106	-0.323491
C	-0.0517555492	 1.2454083571	-0.308835009	 0.40172
C	-1.2699703694	 2.0742713986	 0.0132055262	-0.138875
C	-1.4844624066	 2.3347006517	 1.4685239012	-0.250788
N	-0.8646339995	 3.3535218986	 0.6314898605	-0.1051
C	 0.6275520821	 3.3978278463	 0.659297696	 0.006261
C	 1.3295451567	 3.2000073419	 2.0301652898	-0.230127
C	 1.7376044343	 1.7551913683	 1.6124746327	-0.243063
C	 1.1690607693	 2.0293969947	 0.1783004806	-0.130414
H	-2.1016702093	 2.0619096651	-0.6833650029	 0.114258
H	-2.4866246335	 2.5747025391	 1.8123885088	 0.130991
H	-0.8906900986	 1.7753764398	 2.1857691835	 0.124939
H	 0.9286710185	 4.2826320937	 0.0956879755	 0.087989
H	 2.1867107201	 3.8647240016	 2.1575246973	 0.111221
H	 0.6897109845	 3.299977939	 2.9099240249	 0.111398
H	 2.8090297955	 1.5496031793	 1.6352010253	 0.114713
H	 1.2307994105	 0.9512463947	 2.1528435702	 0.114053
H	 1.9281348033	 2.0380351821	-0.6051488399	 0.104318
108.7982	215.3023	229.1836	294.6609	429.8832	461.7677	558.8395	619.9937	687.8474	722.1498	744.0217	785.4237	824.496	846.7075	901.1999	903.9236	937.2695	969.9109	980.9509	1031.4275	1069.8799	1076.93	1104.796	1117.8328	1156.2068	1182.0017	1201.0193	1219.6403	1247.9469	1254.8966	1268.8571	1275.6364	1293.1917	1321.8243	1351.9419	1480.0061	1491.8497	1516.5456	1835.0506	3065.4545	3070.018	3084.7428	3102.7009	3112.8051	3115.0788	3129.0704	3171.3498	3197.1936
O=C1C2CN2C2CCC12	O=C1[C@H]2CN2[C@H]2CC[C@@H]12	
InChI=1S/C7H9NO/c9-7-4-1-2-5(4)8-3-6(7)8/h4-6H,1-3H2	InChI=1S/C7H9NO/c9-7-4-1-2-5(4)8-3-6(7)8/h4-6H,1-3H2/t4-,5+,6-,8?/m1/s1
