14
gdb 133269	3.93384	1.1138	0.8728	1.1542	72.17	-0.2371	-0.0675	0.1696	1229.0573	0.099208	-477.936104	-477.928139	-477.927195	-477.969781	28.392	
C	-0.0416963168	 1.4509898381	 0.0599055352	-0.332908
N	-0.01569206	-0.0023753898	 0.0292987092	-0.301863
C	 0.5452185585	-0.609196963	-0.9502402129	 0.31109
C	 1.2025214245	 0.02400591	-2.112360823	-0.015741
N	 1.7712046644	-0.5556404396	-3.1058634275	-0.064385
O	 1.779300452	-1.9604314438	-3.1051232126	-0.250383
C	 1.2020230881	-2.6092542176	-2.0836735355	 0.438561
F	 1.3176388222	-3.9021686358	-2.2732822218	-0.033095
C	 0.5976663401	-2.0548689739	-1.0272811629	-0.413863
H	 0.9649926589	 1.8934715232	 0.0805666638	 0.120712
H	-0.5791694148	 1.8841689724	-0.7963250725	 0.120746
H	-0.5585644071	 1.7739272328	 0.9666453115	 0.131458
H	 1.2413411172	 1.1057450496	-2.1921900031	 0.148612
H	 0.160711813	-2.6686904726	-0.252844948	 0.141056
36.1448	105.2569	163.1925	222.2871	306.4089	382.4969	402.513	464.7569	531.6516	585.8328	651.7003	721.7523	725.4769	856.0854	900.9001	950.8061	955.055	996.5766	1027.2741	1093.921	1152.237	1234.1927	1302.0818	1337.0244	1386.5653	1432.607	1488.9545	1509.9127	1641.2879	1696.9954	1728.5827	2982.1723	3034.0461	3103.7065	3194.7992	3241.8357
CN=C1C=NOC(F)=C1	CN=c1cnoc(F)c1	
InChI=1S/C5H5FN2O/c1-7-4-2-5(6)9-8-3-4/h2-3H,1H3	InChI=1S/C5H5FN2O/c1-7-4-2-5(6)9-8-3-4/h2-3H,1H3
