17
gdb 117445	5.64432	0.60214	0.54963	0.0824	72.45	-0.2711	0.0087	0.2798	1919.7054	0.132068	-458.950263	-458.939855	-458.938911	-458.987924	35.123	
O	-0.2595939258	 1.4516565217	 0.0122905777	-0.422226
C	-0.0185928811	 0.0535624822	 0.0030173505	-0.068951
C	-1.3798612889	-0.6281732219	 0.0116200675	-0.310734
C	-1.2669620745	-2.1338723972	 0.0026551205	 0.458127
O	-0.2372275227	-2.7628541735	-0.0109550063	-0.355654
O	-2.488727595	-2.7085464798	 0.0110854217	-0.243843
C	-2.4759666864	-4.1513167077	 0.0028971419	-0.231181
C	-3.846814324	-4.630922525	 0.0142664352	 0.287462
C	-4.967464021	-5.0610993902	 0.0231519943	-0.411936
H	 0.5902395676	 1.9011310954	 0.007201065	 0.289187
H	 0.5451171809	-0.2587802021	-0.8876055266	 0.10376
H	 0.5608224752	-0.2677798621	 0.8802666973	 0.103719
H	-1.9543831322	-0.3202569996	 0.8921788919	 0.145082
H	-1.969906466	-0.3110615197	-0.8553223375	 0.145119
H	-1.9385966319	-4.5023774203	-0.8846890743	 0.153057
H	-1.9206313017	-4.5122073704	 0.8753410904	 0.15307
H	-5.9600910827	-5.4388315097	 0.0303905008	 0.205941
25.1687	43.7756	81.6189	88.0919	170.7199	183.6769	270.2303	286.2028	327.7555	338.8901	407.2778	544.076	588.7965	618.7393	685.3647	725.5755	807.3887	934.63	974.1045	1013.7229	1021.4819	1052.4619	1077.5588	1091.6853	1195.8025	1209.8099	1248.2871	1262.145	1301.014	1354.0048	1402.9433	1457.7993	1470.84	1488.127	1524.2823	1810.956	2252.0369	2995.6416	3025.3341	3045.5871	3055.0497	3079.8059	3092.2708	3505.0175	3835.5259
OCCC(=O)OCC#C	OCCC(=O)OCC#C	
InChI=1S/C6H8O3/c1-2-5-9-6(8)3-4-7/h1,7H,3-5H2	InChI=1S/C6H8O3/c1-2-5-9-6(8)3-4-7/h1,7H,3-5H2
