22
gdb 101596	3.26497	0.75421	0.71614	2.1545	80.18	-0.2593	0.0321	0.2914	1689.403	0.192091	-441.491467	-441.48034	-441.479396	-441.528734	38.992	
C	-1.5623739594	 1.4326403113	 0.8194118717	-0.225399
O	-1.6221878019	 0.0062361754	 0.8411829359	-0.227703
C	-1.0703483414	-0.6324466721	-0.2113781602	 0.398516
N	-0.5167520247	 0.0161725772	-1.1534852927	-0.537535
C	-1.2376647709	-2.1273522951	-0.0601457206	-0.294135
C	-2.7094330899	-2.5821232822	-0.1632501955	 0.044362
C	-3.300376853	-2.314942833	-1.5522413528	-0.397359
C	-2.8210514213	-4.059516671	 0.2143597341	-0.084864
O	-4.1951860491	-4.4151694972	 0.2218277817	-0.422556
H	-2.0605071841	 1.7637187734	 1.7317694687	 0.123681
H	-0.5247138636	 1.7771387804	 0.8007869493	 0.136162
H	-2.0713264437	 1.8293427414	-0.0633483824	 0.136172
H	-0.1599302385	-0.6216004118	-1.8613390222	 0.21908
H	-0.6342497092	-2.6272825264	-0.8256782669	 0.099947
H	-0.8361232671	-2.4164944184	 0.9186337585	 0.116221
H	-3.2851077769	-2.0170444985	 0.5791177622	 0.102715
H	-2.7382297141	-2.8550807613	-2.324817012	 0.102873
H	-4.337475734	-2.6531120544	-1.5939057371	 0.136048
H	-3.2684281311	-1.2504968725	-1.8017543525	 0.122085
H	-2.2560391709	-4.6698287646	-0.511160426	 0.080889
H	-2.365910495	-4.2215696237	 1.2049384441	 0.083397
H	-4.2628658103	-5.3572025169	 0.4008140247	 0.287401
39.6279	61.8787	95.1156	125.8244	176.2605	193.0837	228.0366	236.8363	249.3078	310.8708	327.2142	411.1912	423.0681	479.8653	631.7998	712.9358	844.5699	861.5706	865.7345	915.698	932.8681	953.2441	1029.0887	1076.8193	1097.0341	1114.7681	1127.657	1169.3115	1180.6293	1216.6941	1221.1816	1246.0892	1274.1523	1304.9801	1359.7579	1375.8301	1393.5402	1408.4514	1459.2737	1473.6383	1476.1932	1480.0701	1492.8517	1499.6052	1505.9923	1521.0515	1721.8108	2950.8204	2982.2649	3026.1485	3030.8	3045.0301	3049.1784	3080.8148	3099.0653	3117.3127	3135.7592	3147.6427	3515.0882	3835.1891
COC(=N)CC(C)CO	CO[C]([NH])C[C@@H](C)CO	
InChI=1S/C6H13NO2/c1-5(4-8)3-6(7)9-2/h5,7-8H,3-4H2,1-2H3	InChI=1S/C6H13NO2/c1-5(4-8)3-6(7)9-2/h5,7-8H,3-4H2,1-2H3/t5-/m1/s1
