19
gdb 41751	3.67462	1.52424	1.40899	0.513	73.86	-0.2363	0.0752	0.3115	971.5134	0.163078	-423.00342	-422.996904	-422.99596	-423.034056	27.118	
C	 0.0000930238	 1.5297555885	-0.025255016	-0.09917
O	 1.4275015945	 1.7793371621	-0.0398310004	-0.28558
C	 1.9522175905	 0.4488713729	 0.0080120475	 0.104338
C	 1.1017024827	-0.3396670759	-1.0191989791	-0.041331
C	 1.4171205629	-1.8336254348	-1.0846271018	-0.110601
O	 1.0841679559	-2.4970314664	 0.1214041352	-0.244044
C	 1.4257718018	-1.7454656319	 1.2720265799	-0.110601
C	 1.109476467	-0.2604846199	 1.0974764589	-0.041331
C	-0.013559441	 0.0022893778	 0.0319375835	-0.075306
H	-0.4550870773	 2.0061364817	 0.851370899	 0.100509
H	-0.4616317681	 1.9394327494	-0.931663274	 0.100509
H	 3.0423398664	 0.4746930217	 0.0030410673	 0.077436
H	 1.0227528608	 0.1030858516	-2.0164753757	 0.07222
H	 0.8245644512	-2.3184109872	-1.8675574066	 0.111409
H	 2.4820820486	-1.9831418593	-1.3357520382	 0.089261
H	 0.8391002687	-2.1702355119	 2.0933103599	 0.111409
H	 2.4925853089	-1.8760983587	 1.5258090222	 0.089261
H	 1.0377228738	 0.2555632646	 2.0594377303	 0.07222
H	-0.9752631111	-0.5087657644	 0.0545874979	 0.079394
192.534	238.5534	316.3735	340.2944	359.0253	448.3565	582.0843	677.0916	729.7796	803.0324	857.2173	860.2056	905.0529	932.1552	947.1183	979.1027	988.119	998.5218	1011.246	1042.2665	1051.1035	1077.8591	1104.2152	1125.6229	1164.5989	1167.4978	1212.3607	1215.5954	1245.9179	1256.6028	1266.8333	1270.3437	1307.8921	1314.6026	1350.6869	1381.3228	1382.3054	1431.401	1504.0271	1514.0061	1529.2865	2947.3749	2953.9248	3020.3263	3058.3124	3061.6627	3061.8947	3072.841	3075.1456	3119.4406	3129.6703
C1OC2C3COCC2C13	C1O[C@@H]2[C@H]3COC[C@@H]2[C@@H]13	
InChI=1S/C7H10O2/c1-5-4-3-9-7(5)6(4)2-8-1/h4-7H,1-3H2	InChI=1S/C7H10O2/c1-5-4-3-9-7(5)6(4)2-8-1/h4-7H,1-3H2/t4-,5-,6+,7+
