17
gdb 106544	2.29239	1.52979	1.13597	2.2297	68.35	-0.2448	-0.0098	0.235	1097.0069	0.13464	-458.912995	-458.904251	-458.903307	-458.946806	32.297	
O	 0.0187074108	 1.3930223814	-0.0025004578	-0.417263
C	 0.0109383862	-0.0226426431	-0.1065004418	-0.208264
C	-1.3907781843	-0.564124048	-0.0632290819	 0.12656
C	-2.5961812422	-0.2951585286	-1.0455189772	-0.301137
C	-3.2528435221	-1.1836265379	 0.0750142849	-0.230611
C	-1.9323810892	-2.0483330761	 0.0350143568	 0.130704
O	-1.7075106948	-2.9567079147	-0.9986072558	-0.440267
C	-2.4468601816	-0.2793493452	 1.007472372	 0.433273
O	-2.5615293929	 0.3731871285	 2.0029227662	-0.343453
H	-0.3853266257	 1.6199004921	 0.843139314	 0.299415
H	 0.4996621029	-0.265235068	-1.0559281919	 0.118767
H	 0.6048731476	-0.4941452954	 0.6927893349	 0.102517
H	-2.9412428184	 0.734482459	-1.1390071664	 0.13287
H	-2.513208145	-0.7549762677	-2.0329348176	 0.097234
H	-4.2821410887	-1.5264408261	 0.1427727788	 0.101748
H	-1.6848731449	-2.5811391313	 0.9550317315	 0.108583
H	-1.9604794978	-2.569587249	-1.842842859	 0.289324
53.7106	128.0692	161.3101	170.6508	241.74	278.3644	367.1827	399.091	443.1402	539.6832	550.862	661.9775	724.2724	755.2624	779.819	810.4806	894.0191	919.6124	979.4417	1014.2038	1046.1811	1059.9952	1080.4188	1110.1772	1132.8745	1169.4084	1206.8573	1212.6701	1238.4983	1276.0858	1348.4624	1384.541	1426.4248	1460.4619	1498.774	1534.2981	1900.8496	2980.3861	3070.074	3071.8178	3101.5178	3141.862	3158.2798	3798.5296	3817.7738
OCC12CC(C1O)C2=O	OC[C@@]12C[C@@H]([C@H]1O)C2=O	
InChI=1S/C6H8O3/c7-2-6-1-3(4(6)8)5(6)9/h3-4,7-8H,1-2H2	InChI=1S/C6H8O3/c7-2-6-1-3(4(6)8)5(6)9/h3-4,7-8H,1-2H2/t3-,4+,6-/m0/s1
