23
gdb 110902	2.38293	1.47316	1.11204	1.5771	84.59	-0.2418	0.0832	0.325	1220.6573	0.206924	-388.278485	-388.269726	-388.268782	-388.311653	34.561	
C	-0.0050458767	 1.640740146	-0.0309768351	-0.3925
C	 0.0061321376	 0.1078648885	-0.0050340508	-0.189885
C	 0.7452568927	-0.5058566264	-1.1978772117	 0.020868
C	 2.28676345	-0.3801796044	-1.1001428453	 0.075525
C	 2.8143399779	-1.268721074	-2.2447644395	-0.247386
C	 2.227076925	-2.3167472703	-1.2787222214	 0.080768
O	 2.6267331729	-1.4545263755	-0.1639455292	-0.301689
C	 0.699130719	-2.0821753033	-1.3407912832	-0.008039
C	-0.0603812592	-2.8608146477	-0.2684009197	-0.410366
H	 1.0080488924	 2.0558434474	-0.006650715	 0.115879
H	-0.4936830932	 2.0184564166	-0.9364856463	 0.111584
H	-0.5448641174	 2.0451322776	 0.8308810621	 0.112434
H	 0.4705083037	-0.2453051362	 0.9223720039	 0.111848
H	-1.0289702689	-0.2525757042	 0.0100029798	 0.092481
H	 0.3833082088	-0.0316480544	-2.1181993493	 0.062833
H	 2.7241576783	 0.584164582	-0.8406867757	 0.075343
H	 2.3859464873	-1.1637851914	-3.2452964418	 0.091034
H	 3.903979322	-1.2989831159	-2.2729785641	 0.10774
H	 2.5945382533	-3.3410700081	-1.2003606113	 0.073043
H	 0.3116910125	-2.3613469877	-2.3269884476	 0.067193
H	 0.3631070186	-2.6805731535	 0.7231968577	 0.132423
H	-1.1209721504	-2.5934585923	-0.2413551615	 0.113118
H	-0.0002576362	-3.9362545127	-0.469411565	 0.105753
99.6939	123.3784	187.7693	220.8968	257.7461	280.3982	294.0137	411.5919	459.6484	476.9147	609.2908	712.7127	747.5233	802.2573	824.6663	849.3689	868.8977	876.3108	910.7669	957.4207	964.3504	1010.4231	1035.6068	1048.4178	1051.8597	1074.3292	1084.4173	1110.3665	1149.406	1165.1712	1200.3742	1223.8691	1229.8665	1267.6191	1281.3649	1297.4188	1312.8308	1326.2374	1352.1053	1373.0049	1393.9632	1409.4623	1412.8592	1486.4902	1487.1285	1500.0037	1500.5896	1505.8726	1511.7122	3023.6274	3029.7669	3032.3983	3037.914	3043.2845	3063.1426	3070.7441	3095.7278	3098.3957	3102.1304	3110.4161	3119.1056	3123.015	3141.2668
CCC1C2CC(O2)C1C	CC[C@H]1[C@@H]2C[C@@H](O2)[C@H]1C	
InChI=1S/C8H14O/c1-3-6-5(2)7-4-8(6)9-7/h5-8H,3-4H2,1-2H3	InChI=1S/C8H14O/c1-3-6-5(2)7-4-8(6)9-7/h5-8H,3-4H2,1-2H3/t5-,6+,7+,8-/m0/s1
