20
gdb 65608	3.09579	1.26918	1.15585	4.1591	82.62	-0.2851	0.0362	0.3213	1153.9532	0.171702	-366.006938	-365.998449	-365.997505	-366.040204	32.718	
C	 0.0976478867	 1.4878674307	-0.098803147	-0.452949
C	 0.0343032563	-0.0405476573	-0.024596845	 0.143202
C	 1.0013602614	-0.8566544804	-0.9641469515	-0.281571
C	 1.4855784436	-1.7078637506	 0.2405639646	-0.000639
C	 2.8063479491	-1.2283597217	 0.8893610793	-0.22369
C	 2.0036492029	-0.2179641901	 1.7663265123	-0.253145
C	 0.6667839285	-0.7852991692	 1.2089580649	-0.044277
C	-1.3488264443	-0.4809055466	-0.2001379662	 0.249596
N	-2.442632322	-0.833498305	-0.3327340283	-0.350338
H	 1.1306905689	 1.8357555274	-0.0228625	 0.123416
H	-0.3068038786	 1.8409513694	-1.0520704176	 0.137295
H	-0.4831090111	 1.9474197147	 0.7065677948	 0.135811
H	 0.4964122586	-1.4062219571	-1.7594975975	 0.126286
H	 1.7786084252	-0.2313436373	-1.4131703993	 0.104856
H	 1.3149739168	-2.7812751481	 0.1618184038	 0.078097
H	 3.2978618911	-2.0027170355	 1.4833470809	 0.1071
H	 3.5465203293	-0.804086903	 0.2044087101	 0.098531
H	 2.1170690027	-0.3745072054	 2.8410527834	 0.111395
H	 2.1935034432	 0.8389627459	 1.5672067655	 0.104199
H	-0.0425330684	-1.1604602011	 1.9460179627	 0.086825
50.8748	150.2759	174.1626	213.0513	278.19	311.3183	365.64	400.5826	494.032	568.6572	619.5864	710.8986	741.438	774.7023	828.7009	842.4222	889.3793	909.4327	932.4605	962.8002	992.7712	999.7512	1046.9587	1090.1031	1129.1546	1148.4865	1169.3294	1182.5192	1209.8361	1242.7534	1245.281	1265.5738	1272.2342	1292.4521	1308.1576	1326.4486	1410.4069	1475.2626	1478.5047	1489.0709	1493.0235	1504.501	2344.8597	3042.1299	3053.0316	3059.6216	3071.6356	3096.254	3107.6075	3112.1849	3114.5857	3120.1073	3124.7458	3130.4176
CC1(CC2CCC12)C#N	C[C@]1(C[C@H]2CC[C@@H]12)C#N	
InChI=1S/C8H11N/c1-8(5-9)4-6-2-3-7(6)8/h6-7H,2-4H2,1H3	InChI=1S/C8H11N/c1-8(5-9)4-6-2-3-7(6)8/h6-7H,2-4H2,1H3/t6-,7-,8+/m1/s1
