20
gdb 62888	3.15976	1.50988	1.18849	2.7603	79.91	-0.2322	0.0738	0.3061	1087.9068	0.170502	-403.059786	-403.051462	-403.050518	-403.091901	33.729	
C	-0.1370407091	 1.5711421059	-0.0335226049	-0.488135
C	-0.0046537509	 0.0533557614	-0.0032943353	 0.467745
O	-1.2893979659	-0.5241647015	-0.1404789827	-0.480448
C	 1.1739639984	-0.6525523509	-0.7809802152	-0.227929
C	 2.126256106	-0.1599994031	 0.3571130137	-0.252844
C	 0.8436288581	-0.6551251689	 1.0982267256	-0.169632
C	 0.9111665466	-1.8619101421	 0.136619025	 0.479138
C	 0.2167843529	-3.1366727855	-0.0093478729	-0.338515
N	 1.6751153766	-3.0810143307	 0.3216476873	-0.422111
H	 0.8057077056	 2.1026912852	 0.0963180979	 0.12593
H	-0.5582427146	 1.8893643638	-0.9963181477	 0.107322
H	-0.8268370198	 1.8937197367	 0.7524912619	 0.129848
H	-1.7486959594	-0.0634237465	-0.8497384689	 0.275323
H	 1.3606370419	-0.6532784573	-1.8573236634	 0.063314
H	 3.0130041078	-0.7724972396	 0.5217811018	 0.111423
H	 2.3666131561	 0.9014566908	 0.4012485147	 0.090837
H	 0.6521779139	-0.6654547091	 2.1712873529	 0.076624
H	-0.4153228766	-3.517804613	 0.7875530997	 0.120397
H	-0.0761589543	-3.4543680776	-1.0071552166	 0.106217
H	 2.2248116767	-3.2919644879	-0.5086736831	 0.2255
172.2924	177.9401	204.3412	248.7058	260.6318	344.7719	372.5428	406.1957	440.2939	491.3041	582.3816	648.8107	697.7411	758.7233	795.8632	871.4604	887.7067	907.9594	923.4832	956.5478	964.0507	1001.9376	1025.9904	1052.9604	1077.3009	1083.6211	1107.671	1109.5018	1150.0887	1160.4284	1193.0942	1201.6477	1214.6456	1232.675	1255.6875	1265.6272	1380.7566	1410.2222	1447.4447	1491.8869	1494.9243	1522.6237	1543.2144	3024.7185	3083.6721	3090.3859	3094.9652	3106.2376	3119.5236	3139.8393	3157.1843	3189.4804	3483.7605	3814.2078
CC1(O)C2CC1C21CN1	C[C@@]1(O)[C@H]2C[C@@H]1[C@]12CN1	
InChI=1S/C7H11NO/c1-6(9)4-2-5(6)7(4)3-8-7/h4-5,8-9H,2-3H2,1H3	InChI=1S/C7H11NO/c1-6(9)4-2-5(6)7(4)3-8-7/h4-5,8-9H,2-3H2,1H3/t4-,5+,6-,7-
