19
gdb 82526	2.30808	1.67712	1.3555	1.826	75.26	-0.2235	0.0652	0.2887	1047.7746	0.157463	-422.962488	-422.953917	-422.952973	-422.995158	33.519	
C	-0.0402529956	 1.616152076	 0.0404067325	-0.506445
C	-0.0051180474	 0.117622567	 0.0141862434	 0.122848
C	-0.900073971	-0.7973765825	 0.8478931771	 0.0725
O	-1.6847478441	-1.8195559835	 0.3277568876	-0.436472
C	 0.5814553114	-0.9284600164	 0.967919355	-0.024546
O	 1.0517854978	-1.7473442167	-0.1200525827	-0.3399
C	 0.6231515412	-0.7389861925	-1.0602786133	 0.419426
C	 0.1942982205	-1.0844868759	-2.444070323	-0.332931
C	 1.5004178079	-0.3356673359	-2.1960970408	-0.348951
H	 0.9423915	 2.0465744592	-0.1826731502	 0.124622
H	-0.7553824191	 2.0094572427	-0.6921198327	 0.127302
H	-0.3492122153	 1.9829369003	 1.0242333912	 0.124629
H	-1.3960829966	-0.2853238909	 1.6686783679	 0.104493
H	-1.0670456948	-2.4632823305	-0.0452822225	 0.295692
H	 1.2001677212	-0.8781414456	 1.8571635918	 0.103702
H	 0.2717392019	-2.1251513357	-2.7409321992	 0.123989
H	-0.6436730885	-0.5497184413	-2.8781183746	 0.123778
H	 1.5560545499	 0.7150576727	-2.4614644728	 0.118321
H	 2.4249774509	-0.8879082204	-2.3236145147	 0.127941
116.6795	180.9059	194.926	207.6983	222.8677	295.125	354.2504	410.7412	425.2786	544.8804	591.0528	629.4341	678.3954	754.4092	790.9489	848.7399	882.016	894.0371	927.5853	963.9029	976.5004	1000.3484	1026.6316	1049.7361	1063.51	1069.5576	1114.2898	1145.6648	1170.6099	1185.674	1249.0349	1264.3537	1294.9546	1376.8979	1403.3638	1419.4597	1446.6269	1469.6409	1486.9033	1498.8853	1507.8818	3023.1512	3082.1153	3099.6877	3130.2501	3132.5562	3149.9782	3172.3548	3212.9558	3226.8158	3753.8202
CC12C(O)C1OC21CC1	C[C@]12[C@@H](O)[C@H]1OC12CC1	
InChI=1S/C7H10O2/c1-6-4(8)5(6)9-7(6)2-3-7/h4-5,8H,2-3H2,1H3	InChI=1S/C7H10O2/c1-6-4(8)5(6)9-7(6)2-3-7/h4-5,8H,2-3H2,1H3/t4-,5+,6-/m0/s1
