17
gdb 87936	3.07437	1.24101	1.05388	3.2238	69.01	-0.2403	-0.0219	0.2184	1152.2969	0.134378	-458.959743	-458.951502	-458.950558	-458.992757	31.375	
O	-0.3458702503	 1.1971820671	-0.577165203	-0.417696
C	-0.2012266363	-0.140816871	-0.2062966942	 0.025167
C	-0.1450408903	-0.5175976836	 1.2661442247	-0.402703
C	-1.3780024344	-0.7938843243	 0.4670553761	 0.417174
C	-2.70449252	-0.0834330467	 0.61202993	-0.422406
C	-3.6285846235	-0.9566147875	-0.2426518662	 0.374497
O	-4.7622841168	-0.7279037036	-0.5649402769	-0.295771
C	-2.8141728697	-2.2006886438	-0.620942083	-0.196667
O	-1.6375402386	-2.1528155697	 0.167596338	-0.287644
H	 0.4688283305	 1.6624900758	-0.3599980792	 0.293058
H	 0.3672889768	-0.7667278536	-0.8933798113	 0.099717
H	 0.4684553466	-1.3670142711	 1.5462736212	 0.129222
H	-0.193056286	 0.2870944457	 1.9926809214	 0.121263
H	-3.0728527647	-0.0886722084	 1.644811108	 0.138008
H	-2.690324548	 0.947266663	 0.2543011829	 0.160213
H	-3.3597270377	-3.1240560715	-0.4090819224	 0.138843
H	-2.5925202976	-2.1649965068	-1.6999151162	 0.125724
71.3446	126.1971	208.8394	213.2343	283.8543	379.478	439.6133	460.2723	470.4981	502.7373	511.478	640.2476	774.0858	784.8962	818.6957	849.2676	894.0029	923.6234	1003.4095	1029.7999	1062.5735	1076.3484	1096.2322	1118.3263	1174.4783	1177.1806	1213.7087	1232.8147	1244.6858	1292.2336	1336.7779	1353.9255	1412.0574	1449.333	1475.2198	1491.5492	1864.9982	2982.7596	3046.3235	3097.6576	3112.1723	3129.3388	3130.971	3225.5833	3802.2617
OC1CC11CC(=O)CO1	O[C@H]1C[C@]21CC(=O)CO2	
InChI=1S/C6H8O3/c7-4-1-6(9-3-4)2-5(6)8/h5,8H,1-3H2	InChI=1S/C6H8O3/c7-4-1-6(9-3-4)2-5(6)8/h5,8H,1-3H2/t5-,6-/m0/s1
