17
gdb 34687	4.53303	1.10194	1.09439	4.188	77.48	-0.2364	0.021	0.2574	1138.588	0.137965	-380.809138	-380.802066	-380.801122	-380.840637	27.999	
N	 0.0103095052	-1.0762491811	-0.0635814906	-0.326813
C	 0.0073531268	 0.0794084039	-0.0023338272	 0.266894
C	 0.0096773464	 1.5133427043	 0.0638731559	-0.222883
C	 0.5360015005	 2.1312340574	 1.3485848096	-0.088112
C	 1.391012848	 2.1749022891	 0.0959127123	-0.010823
N	 1.367416849	 3.6431120986	 0.0482352614	-0.126199
C	 0.2922154326	 4.3077943258	-0.7699211887	-0.177007
C	-0.6369757362	 4.404143487	 0.4772781071	-0.265936
C	 0.4793542486	 3.6643937148	 1.2632670703	 0.017586
H	-0.8161851552	 1.9722700275	-0.4686966503	 0.131386
H	 0.6467080005	 1.5401038925	 2.2481558496	 0.119609
H	 2.2691977068	 1.6095127734	-0.1929473632	 0.124439
H	 0.6339462199	 5.2682980737	-1.1626871024	 0.116593
H	-0.078083623	 3.7045877413	-1.6041949824	 0.114218
H	-0.8157590666	 5.4222363919	 0.826952761	 0.116659
H	-1.5975753346	 3.8882079455	 0.4095271472	 0.11633
H	 0.8859339415	 4.1652258645	 2.1455806603	 0.09406
138.2631	144.93	232.2967	275.8368	398.8513	490.4845	515.4548	533.3828	674.6308	749.2928	773.1063	822.376	859.2754	874.4833	906.6148	927.6484	952.1215	988.5704	1009.1389	1034.8278	1045.2594	1063.9271	1096.6614	1119.3592	1179.5352	1184.9949	1201.6964	1219.9233	1253.5906	1264.7465	1276.5747	1301.4674	1336.6756	1385.0924	1485.3489	1507.5367	2350.9556	3054.0871	3070.9379	3076.2233	3100.5075	3129.7115	3166.0576	3182.3878	3204.8939
N#CC1C2C1N1CCC21	N#C[C@H]1[C@H]2[C@@H]1N1CC[C@@H]21	
InChI=1S/C7H8N2/c8-3-4-6-5-1-2-9(5)7(4)6/h4-7H,1-2H2	InChI=1S/C7H8N2/c8-3-4-6-5-1-2-9(5)7(4)6/h4-7H,1-2H2/t4-,5-,6+,7+/m0/s1
