18
gdb 65981	2.74401	1.28804	1.16366	2.2425	72.3	-0.2496	0.0287	0.2782	1129.0504	0.146991	-439.082553	-439.073712	-439.072768	-439.116492	32.304	
C	-0.0145883314	 1.5211002594	 0.1130575082	-0.480233
C	 0.0238804869	-0.0009956844	 0.0296853443	 0.132996
C	 0.9403179377	-0.6032002488	-1.0931675187	-0.207619
N	 1.7529317222	-1.1934708088	-0.0264186633	-0.327395
C	 1.0385761157	-0.6642382098	 1.0171842179	 0.394158
O	 1.1697942138	-0.7001611078	 2.2109216204	-0.364503
C	-1.3351547917	-0.6638507263	 0.0884123477	 0.058166
C	-2.5051895406	-0.0908542732	 0.7620129204	-0.186556
O	-2.3959815011	-0.0693863072	-0.6652721651	-0.245405
H	 0.9680781562	 1.9471470565	-0.1078392744	 0.120881
H	-0.7412797553	 1.9249920344	-0.5970018358	 0.1414
H	-0.2914481321	 1.8419605094	 1.1212613216	 0.139229
H	 0.4602221009	-1.335170162	-1.7498970494	 0.118955
H	 1.4640662727	 0.1447056275	-1.6965848976	 0.115011
H	 2.6262616596	-1.6994451025	-0.0448871985	 0.252617
H	-1.2975658016	-1.7519612755	 0.0037713164	 0.096505
H	-3.2671987429	-0.7576278384	 1.1621253541	 0.120643
H	-2.4368571689	 0.8790399474	 1.2484056816	 0.12115
59.1377	100.3971	149.9608	209.0489	234.2562	261.5483	309.8929	375.8282	423.9177	481.5091	599.0521	675.7075	721.2924	780.8117	852.2712	869.3793	884.0675	961.7397	981.8723	999.1511	1025.4304	1099.9257	1135.7252	1155.2887	1158.3637	1172.717	1178.1229	1214.9503	1255.3569	1296.6812	1316.919	1389.896	1404.6037	1438.2777	1490.8072	1506.9889	1530.3586	1532.214	1892.2174	3041.9988	3045.8638	3085.0666	3092.0398	3097.3651	3115.5115	3125.1657	3185.4802	3607.6084
CC1(CNC1=O)C1CO1	C[C@]1(CNC1=O)[C@H]1CO1	
InChI=1S/C6H9NO2/c1-6(4-2-9-4)3-7-5(6)8/h4H,2-3H2,1H3,(H,7,8)	InChI=1S/C6H9NO2/c1-6(4-2-9-4)3-7-5(6)8/h4H,2-3H2,1H3,(H,7,8)/t4-,6+/m1/s1
