23
gdb 114892	2.94236	1.22015	1.11829	1.5608	84.88	-0.2391	0.0828	0.3219	1250.0921	0.207852	-388.302363	-388.29381	-388.292865	-388.335553	33.58	
C	-0.0392355417	 1.4439238133	-0.399881368	-0.380869
C	 0.0417817562	-0.0488944693	-0.0611409668	-0.201982
C	-1.3337401516	-0.6598442746	 0.1352833953	 0.170629
O	-2.166843004	-0.5925662481	-1.0515610639	-0.325486
C	-2.6055242744	-1.9622375681	-0.8741113049	 0.143426
C	-2.2384044946	-2.8543238858	-2.0536066928	-0.217497
C	-0.7173799247	-3.0549970501	-1.9098260026	-0.210265
C	-0.4883254826	-3.1204756768	-0.382602296	-0.219784
C	-1.5471395324	-2.1907528849	 0.2405648384	-0.108692
H	 0.9564202119	 1.8686142347	-0.5588169428	 0.108671
H	-0.6262716095	 1.5966593541	-1.3098384388	 0.137686
H	-0.5198106756	 2.0078913364	 0.407194847	 0.112219
H	 0.5767754114	-0.5776461877	-0.8574197855	 0.101095
H	 0.6178926022	-0.1970256583	 0.8621358176	 0.094232
H	-1.837232106	-0.1368199919	 0.9648807774	 0.062997
H	-3.6639424219	-2.0046907292	-0.5919705282	 0.064018
H	-2.7667086404	-3.811072918	-1.9519826282	 0.093695
H	-2.5330841801	-2.4098075209	-3.008664092	 0.106888
H	-0.3534895025	-3.9470252969	-2.4268994367	 0.092945
H	-0.195217152	-2.1941342833	-2.3379608544	 0.113069
H	-0.6663290179	-4.1416777824	-0.0259778469	 0.096179
H	 0.5347113156	-2.8599272562	-0.0952020409	 0.099314
H	-1.8927878453	-2.536604956	 1.2157722837	 0.067512
86.1471	122.951	157.2747	229.624	238.5601	292.8669	363.6225	439.717	485.9029	570.4211	630.2981	763.0171	785.8708	829.469	849.2588	859.4775	888.0667	907.1617	934.9401	956.0902	962.8116	977.0686	1032.9164	1046.4982	1079.9773	1108.9811	1113.0269	1139.0932	1175.0147	1193.0428	1204.1087	1260.2491	1278.2771	1287.2464	1292.1941	1320.5276	1321.5374	1336.5598	1354.6728	1364.3178	1368.0133	1407.4137	1425.1431	1467.87	1473.8562	1491.5073	1498.9754	1503.3411	1510.102	2961.011	3023.3656	3024.8158	3036.1427	3037.0857	3041.1621	3056.3558	3072.253	3083.2334	3091.014	3096.9984	3103.3336	3105.4265	3119.3491
CCC1OC2CCCC12	CC[C@H]1O[C@H]2CCC[C@@H]12	
InChI=1S/C8H14O/c1-2-7-6-4-3-5-8(6)9-7/h6-8H,2-5H2,1H3	InChI=1S/C8H14O/c1-2-7-6-4-3-5-8(6)9-7/h6-8H,2-5H2,1H3/t6-,7+,8-/m0/s1
