21
gdb 92463	2.56512	1.65062	1.62539	1.5474	81.23	-0.2329	0.0148	0.2477	995.9543	0.185771	-387.104532	-387.097029	-387.096085	-387.136063	31.054	
C	-0.1599088237	 1.558952528	 0.0011927175	-0.422148
C	 0.0208200702	 0.0378553457	-0.0061900525	 0.057021
C	 0.7780430342	-0.4723346449	-1.2687157624	-0.225319
C	 1.9306082814	-1.3893857856	-0.8096777165	 0.058011
O	 2.8498303376	-0.5754887339	-0.0491105179	-0.276493
C	 2.2658624057	-0.0778437979	 1.152212861	-0.06271
C	 0.7833293664	-0.5073403548	 1.2433468045	-0.08702
C	 0.7750695965	-2.0150310099	 1.1624635555	-0.089867
C	 1.379380927	-2.4860295805	 0.0703783546	-0.067753
H	 0.7989471236	 2.0847002615	-0.055092821	 0.123571
H	-0.7556804747	 1.8783649523	-0.8604006953	 0.115745
H	-0.6775340318	 1.8954297814	 0.9064292562	 0.108443
H	-0.9761533967	-0.4145354692	 0.0164793063	 0.071372
H	 0.1096403024	-1.0065363489	-1.9510833728	 0.095737
H	 1.2144841909	 0.3662572544	-1.8216334409	 0.098883
H	 2.510569953	-1.7650758879	-1.6542424752	 0.070998
H	 2.8233214561	-0.4683838928	 2.014603459	 0.091985
H	 2.3608060499	 1.0158777157	 1.1592577059	 0.094755
H	 0.3384407413	-0.1278083641	 2.1669917035	 0.061043
H	 0.3342228799	-2.6301571922	 1.9393825877	 0.090434
H	 1.4961407409	-3.5352560665	-0.1758855573	 0.093315
102.5204	237.1624	270.7626	308.6369	355.9934	372.6443	430.078	471.3791	609.6561	623.4631	671.5572	716.7449	777.5201	828.0905	858.8443	894.2431	937.8491	959.0626	963.4881	980.5851	998.8193	1013.259	1044.7635	1066.47	1085.2277	1121.009	1122.8997	1155.3621	1214.218	1233.9323	1248.6438	1292.1056	1308.7912	1333.228	1341.7263	1359.658	1376.9982	1392.1025	1400.6505	1411.7898	1482.5515	1495.7717	1498.7972	1524.6192	1680.5574	2999.9885	3027.5351	3032.3949	3035.2131	3042.206	3074.4118	3085.6696	3094.4043	3098.3653	3102.0191	3176.2537	3201.4675
CC1CC2OCC1C=C2	C[C@H]1C[C@H]2OC[C@@H]1C=C2	
InChI=1S/C8H12O/c1-6-4-8-3-2-7(6)5-9-8/h2-3,6-8H,4-5H2,1H3	InChI=1S/C8H12O/c1-6-4-8-3-2-7(6)5-9-8/h2-3,6-8H,4-5H2,1H3/t6-,7-,8-/m0/s1
