18
gdb 30491	3.76866	1.13994	0.8848	3.0897	88.3	-0.2022	-0.0359	0.1663	1320.6738	0.14721	-401.987286	-401.978468	-401.977524	-402.020985	32.275	
C	-0.0479024247	 1.4591268626	 0.083646803	-0.316999
N	 0.0243433614	 0.0102199802	 0.1260171489	-0.321608
C	-1.0502492524	-0.6592851823	 0.055043689	 0.40622
O	-2.2846616415	 0.0020993949	-0.0624867816	-0.249435
C	-3.4368007278	-0.695884181	-0.1390816183	 0.076825
C	-3.4966538115	-2.0355657866	-0.1102572417	-0.251931
C	-2.2672702808	-2.7918113466	 0.0092494459	 0.308913
C	-2.3293924604	-4.2923660753	 0.0419343992	-0.488044
C	-1.1043652599	-2.105527809	 0.0870191493	-0.269224
H	 0.9624274261	 1.8691908523	 0.1558868673	 0.115176
H	-0.5022279835	 1.8254657209	-0.8478028813	 0.115085
H	-0.6458320603	 1.8696942521	 0.9095578497	 0.115086
H	-4.2936260203	-0.0381583322	-0.2256604495	 0.133778
H	-4.4564614948	-2.5319021291	-0.1762079717	 0.105297
H	-2.9404414613	-4.6390822198	 0.8839084363	 0.136385
H	-2.7970987829	-4.6832116379	-0.8696597209	 0.136386
H	-1.3345200664	-4.7333795617	 0.1343569153	 0.132968
H	-0.1457824489	-2.6014351316	 0.1778422708	 0.115123
83.9483	110.2434	155.2171	166.1248	199.8532	296.5296	316.4366	391.9072	453.8342	487.7573	609.6682	633.305	727.1385	742.6938	789.8401	832.7584	890.6363	931.6555	963.9463	1011.8073	1043.1989	1064.2817	1104.5704	1107.8693	1136.4475	1205.3565	1226.0557	1285.3305	1349.1842	1412.2226	1437.0244	1454.6086	1478.0943	1484.7349	1488.9218	1498.1158	1612.5583	1698.4312	1744.0617	2991.5426	3026.483	3037.6353	3077.0817	3101.2401	3125.6087	3200.3467	3210.4295	3220.9315	83.9492	110.2436	155.2164	166.1247	199.8534	296.5296	316.4365	391.9072	453.8342	487.7573	609.6687	633.3051	727.1388	742.6938	789.8402	832.7583	890.6363	931.656	963.9464	1011.8076	1043.1991	1064.2818	1104.5705	1107.8691	1136.4472	1205.3564	1226.0557	1285.3307	1349.1844	1412.2228	1437.0242	1454.6089	1478.0946	1484.7346	1488.922	1498.1154	1612.5582	1698.4313	1744.062	2991.5427	3026.483	3037.6354	3077.0817	3101.2402	3125.6087	3200.3468	3210.4295	3220.9315
CN=C1OC=CC(C)=C1	CN=c1occc(C)c1	
InChI=1S/C7H9NO/c1-6-3-4-9-7(5-6)8-2/h3-5H,1-2H3	InChI=1S/C7H9NO/c1-6-3-4-9-7(5-6)8-2/h3-5H,1-2H3
