19
gdb 55867	3.13939	1.02665	0.94371	4.2767	72.76	-0.2356	0.0546	0.2901	1315.2832	0.15783	-456.36706	-456.357146	-456.356202	-456.401893	37.077	
C	-0.194491224	 1.4170882465	 0.349867169	-0.45075
C	 0.0772226197	-0.0461560444	 0.103431141	 0.431251
O	-1.0450805269	-0.794746222	-0.2822895177	-0.460729
C	 1.4150104992	-0.5112244556	-0.4343810837	-0.392724
C	 1.0002281732	-0.8310234106	 0.9888523902	 0.002277
N	 1.7112727189	-0.1820515581	 2.0502335585	-0.354169
C	 1.0786690643	 0.0451052893	 3.2625499853	 0.447301
N	 1.9512976493	 0.4138736996	 4.282221455	-0.566108
O	-0.117296099	-0.0801584044	 3.4288724784	-0.378687
H	 0.7045758207	 1.9320004623	 0.6959177149	 0.115312
H	-0.5314965419	 1.9075329239	-0.5716136335	 0.099275
H	-0.9720342216	 1.5238880101	 1.1106797665	 0.149048
H	-1.3196850591	-0.4833285427	-1.15191079	 0.279796
H	 1.4177620486	-1.3302716177	-1.1441813607	 0.11539
H	 2.1957157488	 0.2297406964	-0.5725777182	 0.108036
H	 0.6676692953	-1.8486505227	 1.1816970127	 0.11075
H	 2.7009445792	-0.3783702264	 2.0916146701	 0.238761
H	 2.7773159291	 0.9334228734	 4.024219816	 0.24574
H	 1.4654696061	 0.7935919031	 5.0808373563	 0.26023
57.4348	89.7659	113.6378	220.0998	244.428	273.7719	301.0184	351.8216	390.391	403.975	415.4224	475.6453	504.1924	536.2824	583.0247	678.6335	735.6419	782.7367	818.9301	903.8144	914.8753	966.5471	1012.8748	1040.6503	1052.795	1092.4063	1109.9747	1117.6296	1214.5684	1242.4148	1301.4362	1318.0991	1362.976	1410.7275	1416.246	1471.9093	1488.2227	1505.7593	1522.2283	1626.1205	1812.8927	3030.12	3102.8028	3129.5903	3131.3422	3134.4904	3226.4846	3570.4621	3592.5106	3684.679	3794.7617
CC1(O)CC1NC(N)=O	C[C@@]1(O)C[C@H]1NC(=O)N	
InChI=1S/C5H10N2O2/c1-5(9)2-3(5)7-4(6)8/h3,9H,2H2,1H3,(H3,6,7,8)	InChI=1S/C5H10N2O2/c1-5(9)2-3(5)7-4(6)8/h3,9H,2H2,1H3,(H3,6,7,8)/t3-,5-/m1/s1
