14
gdb 42614	2.57811	2.13726	1.46449	5.806	65.45	-0.2692	-0.0396	0.2296	868.4915	0.102025	-436.693426	-436.686982	-436.686038	-436.724458	25.27	
O	-0.0888978646	 0.0776611884	 0.3450499924	-0.293128
C	-0.1183802647	 1.2357952394	 0.0903966838	 0.417424
C	-1.1358305166	 2.283175168	-0.200906139	-0.221469
C	-0.7167469186	 3.6055303086	 0.5200495168	-0.059121
C	 0.2281788302	 3.573292544	 1.7034803165	-0.362534
C	 1.3792925509	 2.6742949098	 1.2068789033	 0.380555
O	 2.3469491217	 2.3291310698	 1.8098939357	-0.278928
N	 1.0156201811	 2.1968325192	-0.1291899326	-0.221505
C	 0.0176612706	 3.1540069834	-0.6818728756	-0.037234
H	-2.1372822253	 2.1563535695	-0.5910570664	 0.126546
H	-1.4619342073	 4.3885600615	 0.4363845989	 0.12038
H	 0.5980977495	 4.5765301682	 1.9385024476	 0.146539
H	-0.1815635475	 3.1470648185	 2.6240537538	 0.152704
H	 0.1736996504	 3.6309908417	-1.6383697653	 0.129772
108.4506	141.1929	339.8398	436.0658	478.3965	571.5525	576.3783	656.7941	717.8702	752.5051	788.9118	804.4753	833.5628	867.1975	910.3407	977.1079	984.669	1004.3677	1037.9706	1060.5531	1075.093	1094.5693	1112.1427	1185.8527	1251.3383	1277.1608	1294.7563	1383.5817	1460.5721	1873.5244	1939.4645	3059.3389	3102.2452	3186.3547	3208.2724	3231.5394
O=C1C2C3CC(=O)N1C23	O=C1[C@H]2[C@H]3CC(=O)N1[C@@H]23	
InChI=1S/C6H5NO2/c8-3-1-2-4-5(2)7(3)6(4)9/h2,4-5H,1H2	InChI=1S/C6H5NO2/c8-3-1-2-4-5(2)7(3)6(4)9/h2,4-5H,1H2/t2-,4+,5-/m1/s1
