17
gdb 67013	2.23159	1.72272	1.62627	3.0026	72.8	-0.2396	0.0071	0.2466	962.2326	0.135181	-421.804275	-421.796257	-421.795313	-421.836507	30.981	
C	-0.0842308676	 1.5489806735	-0.0419059104	-0.52321
C	 0.0641217407	 0.0660393599	-0.0014361269	 0.252892
C	 0.5948467011	-1.0079043929	-0.8864280856	-0.12568
C	 1.3819029396	-1.6887947791	 0.2421770958	-0.291851
C	 0.4129612853	-0.9742104744	 1.2022909358	 0.259484
O	 0.7351207467	-0.7157968031	 2.5058161135	-0.469617
C	-0.9799475427	-1.5116239548	 0.8801980632	 0.360654
O	-1.8648168778	-1.8224293881	 1.6392368851	-0.372203
C	-0.898540246	-1.0461417129	-0.5263827848	-0.235534
H	 0.856418253	 2.0428135493	 0.2244782645	 0.138052
H	-0.3742577075	 1.889960284	-1.0409506483	 0.131102
H	-0.8496913657	 1.8878213118	 0.6642931982	 0.138363
H	 0.8754341887	-0.9217896556	-1.9283726337	 0.103537
H	 1.4142701657	-2.7831101908	 0.2865779715	 0.104444
H	 2.3921193027	-1.277133983	 0.3144459852	 0.116634
H	-0.0687562802	-0.8689820167	 3.025017575	 0.297954
H	-1.6854661164	-0.9337202771	-1.258717988	 0.114979
119.3385	171.1916	173.5962	212.6238	267.3414	394.7791	435.1929	447.2103	503.2256	592.5819	635.8859	672.9652	719.5666	760.6424	801.252	842.7695	884.638	952.7547	960.6325	999.2291	1023.336	1062.4704	1077.0113	1121.0666	1128.8949	1175.1126	1191.7428	1252.5566	1285.2354	1367.9591	1405.7067	1414.9831	1444.4107	1482.3206	1492.1807	1500.7325	1847.1584	3029.9333	3041.1879	3094.282	3101.026	3107.8379	3199.1062	3225.1205	3718.7548
CC12C3CC1(O)C(=O)C23	C[C@@]12[C@H]3C[C@]1(O)C(=O)[C@@H]23	
InChI=1S/C7H8O2/c1-6-3-2-7(6,9)5(8)4(3)6/h3-4,9H,2H2,1H3	InChI=1S/C7H8O2/c1-6-3-2-7(6,9)5(8)4(3)6/h3-4,9H,2H2,1H3/t3-,4-,6-,7-/m0/s1
