17
gdb 65637	3.4465	1.27642	1.18773	3.5401	72.53	-0.232	0.0017	0.2337	1080.5641	0.136132	-417.963678	-417.955512	-417.954568	-417.997111	30.615	
O	-0.1136644265	 1.2643567434	 0.3137659656	-0.45182
C	 0.0357112278	-0.1145908921	 0.0685551619	 0.235978
C	 0.3423840254	-1.0307298217	 1.3044635698	-0.232462
N	-0.9681298685	-1.7283319676	 1.1808060283	-0.12009
C	-2.0620801826	-1.0786611093	 1.9798266707	-0.167372
C	-2.5055679534	-0.2179742251	 0.7646601093	-0.255617
C	-1.3340383858	-0.8594742447	-0.0039251884	-0.009932
C	 0.9150128945	-0.3452049871	-1.0845169445	 0.226833
N	 1.6299255786	-0.512275734	-1.9776709691	-0.333463
H	 0.7607658625	 1.6651286376	 0.3799535612	 0.297372
H	 1.1903940947	-1.7079786737	 1.1726158238	 0.126855
H	 0.4723788931	-0.4567935654	 2.2282557525	 0.113366
H	-2.797463079	-1.810794599	 2.3242113719	 0.114293
H	-1.6983285696	-0.5193061462	 2.848511202	 0.106908
H	-3.4835710031	-0.4760511341	 0.3554479557	 0.113799
H	-2.441996891	 0.8627851177	 0.888414242	 0.135658
H	-1.547213787	-1.3517431489	-0.9548177127	 0.099693
32.3891	140.162	168.4754	259.5747	273.5784	349.2876	410.7158	429.9925	516.2807	563.8423	639.0718	728.1584	769.9994	782.3229	879.0063	900.7685	939.2706	945.9286	985.5879	1000.8564	1045.355	1074.9405	1113.4184	1173.1217	1180.4536	1217.3759	1224.5526	1238.1293	1268.6608	1288.3925	1310.7496	1320.3294	1370.0548	1477.1382	1479.0874	1511.7214	2348.0762	3038.0058	3041.7374	3083.0102	3089.3023	3093.7602	3100.9657	3148.5822	3802.6525
OC1(CN2CCC12)C#N	O[C@]1(CN2CC[C@@H]12)C#N	
InChI=1S/C6H8N2O/c7-3-6(9)4-8-2-1-5(6)8/h5,9H,1-2,4H2	InChI=1S/C6H8N2O/c7-3-6(9)4-8-2-1-5(6)8/h5,9H,1-2,4H2/t5-,6-/m0/s1
