17
gdb 46564	3.17401	1.73277	1.36798	4.0319	74.21	-0.238	0.0073	0.2453	947.4161	0.138693	-417.906531	-417.899936	-417.898992	-417.937364	27.023	
N	 0.0489332837	 1.3379974351	-0.1995750113	-0.535689
C	-0.0114370215	 0.0912003112	-0.0309679714	 0.368321
O	 1.1068704364	-0.7365611274	 0.0353101158	-0.265284
C	 0.7841785613	-2.1333900303	 0.3228415453	-0.207799
C	-0.6377804922	-1.9933130102	 0.8124964871	 0.247733
C	-2.0998390675	-2.5081396888	 0.8592586755	-0.253844
N	-2.2639856588	-0.9990811638	 1.1932711231	-0.159403
C	-1.0328009374	-1.2090793099	 2.0899877865	-0.202223
C	-1.2124591166	-0.8147673893	 0.0474787574	-0.032031
H	 1.0216300323	 1.6469602776	-0.2622971203	 0.22579
H	 0.8769175307	-2.7197530914	-0.5982830068	 0.120877
H	 1.5105088259	-2.4879112572	 1.0578988868	 0.124685
H	-2.5703851148	-2.8032801191	-0.0814786441	 0.115092
H	-2.3963174926	-3.1572235629	 1.6859578946	 0.113247
H	-1.2468295564	-1.785542788	 2.9929931277	 0.103231
H	-0.5067298019	-0.2820000916	 2.3244174675	 0.133678
H	-1.6571839706	-0.983744954	-0.9372490336	 0.10362
138.8292	219.4712	292.4256	344.603	484.9768	546.3249	566.6096	593.2385	643.5291	742.6934	771.7944	846.5405	885.0524	903.6444	909.3745	917.4169	937.348	976.9034	995.9491	1014.3375	1057.4671	1079.0901	1096.6632	1151.3113	1164.3484	1188.9178	1194.4192	1231.5717	1241.0743	1265.4429	1309.5922	1356.6465	1374.223	1507.3074	1511.8745	1550.5912	1783.1943	3041.4197	3062.1498	3066.9001	3074.793	3106.6014	3134.6277	3137.4699	3460.22
N=C1OCC23CN(C2)C13	[NH][C]1OC[C@@]23CN(C2)[C@@H]13	
InChI=1S/C6H8N2O/c7-5-4-6(3-9-5)1-8(4)2-6/h4,7H,1-3H2	InChI=1S/C6H8N2O/c7-5-4-6(3-9-5)1-8(4)2-6/h4,7H,1-3H2/t4-/m0/s1
