16
gdb 49080	2.90547	1.75501	1.25737	2.8336	68.72	-0.241	-0.0337	0.2073	964.1774	0.125605	-437.818451	-437.811615	-437.810671	-437.849828	26.726	
O	-0.0341726666	-0.0198345315	 0.1312610757	-0.258208
C	 0.0285049528	 1.1738105186	-0.0510438696	 0.050205
C	 1.3121632472	 1.9288115884	-0.0419398733	 0.234703
C	 2.6254281867	 1.2018346619	 0.2024321919	-0.152672
O	 3.5732167378	 2.2899816386	 0.1258335205	-0.278112
C	 2.7487274672	 3.393037834	-0.1290147153	 0.130681
C	 1.5974745709	 3.0392824419	-1.122742279	-0.125929
N	 0.6280105711	 3.9562189091	-0.4278378497	-0.337581
C	 1.4180614614	 3.3227963672	 0.6848728598	-0.125934
H	-0.8738423668	 1.788850765	-0.2356521755	 0.107478
H	 2.6761855881	 0.7263299638	 1.1869845158	 0.124319
H	 2.8498345934	 0.4519195676	-0.5626110324	 0.124299
H	 3.3152271935	 4.3205873423	-0.2182776429	 0.096703
H	 1.6196826194	 2.9088326083	-2.2051470821	 0.096476
H	 0.9264716155	 4.9286011365	-0.5507306357	 0.217086
H	 1.2282143484	 3.5274627984	 1.7389980418	 0.096487
105.3725	185.5874	246.8486	346.0561	379.4228	420.7509	548.5148	653.9907	699.9941	730.4231	773.1835	812.6848	889.8079	898.6243	947.0585	968.6572	1019.8925	1041.3103	1059.2762	1071.1033	1119.4994	1135.9054	1140.6123	1152.9899	1196.4911	1199.9399	1238.7609	1260.3564	1289.9879	1295.3367	1339.8543	1391.6853	1414.3094	1518.5055	1804.2226	2948.5109	3049.523	3092.6091	3113.0534	3113.4892	3130.8021	3389.1623
O=CC12COC3C1NC23	O=C[C@@]12CO[C@H]3[C@@H]1N[C@@H]23	
InChI=1S/C6H7NO2/c8-1-6-2-9-3-4(6)7-5(3)6/h1,3-5,7H,2H2	InChI=1S/C6H7NO2/c8-1-6-2-9-3-4(6)7-5(3)6/h1,3-5,7H,2H2/t3-,4-,5+,6+
