16
gdb 13367	5.76743	1.02557	0.96016	1.8891	69.3	-0.2488	0.0339	0.2827	1234.1154	0.130101	-383.7089	-383.70053	-383.699586	-383.743951	28.164	
C	-0.0419178191	 1.4932549166	-0.076654025	-0.497659
C	 0.0133977451	 0.04030833	-0.0162275114	 0.032618
C	 0.0539181572	-1.1624123522	 0.0264640332	 0.114323
C	 0.1199846815	-2.6178432001	 0.0840234735	-0.081363
C	 0.5746314884	-3.1593066725	 1.4750920648	-0.12271
O	-0.2832303391	-4.2627703792	 1.7013065197	-0.22909
C	-1.494429325	-3.8819675871	 1.1005721547	 0.021959
O	-1.160592106	-3.2409395039	-0.1116236654	-0.247406
H	 0.5662714559	 1.8807708759	-0.9011904402	 0.15152
H	-1.0696596233	 1.8393721147	-0.2316046589	 0.154913
H	 0.3244997276	 1.9464334964	 0.8509227031	 0.149778
H	 0.7784647939	-2.9900956433	-0.7097728695	 0.111641
H	 1.6081546142	-3.5093660908	 1.4818125424	 0.124784
H	 0.4431952424	-2.3854017573	 2.2435671193	 0.107615
H	-2.0861417149	-4.7757654779	 0.8854737951	 0.122009
H	-2.0582350486	-3.1958321795	 1.7588647445	 0.087068
25.3677	40.2578	103.1347	150.3629	278.3441	303.273	330.6227	458.7632	518.7572	663.396	738.2112	790.2159	920.0313	964.9876	978.5613	1040.8976	1050.7619	1054.6336	1093.4608	1107.4945	1175.9301	1183.1845	1215.3432	1266.0972	1307.2781	1348.4699	1373.6227	1413.9342	1427.0605	1476.32	1478.0526	1511.671	1540.2668	2370.4065	2936.4439	3013.7343	3029.2283	3032.2685	3090.7987	3092.0443	3094.7018	3119.2808
CC#CC1COCO1	CC#C[C@H]1COCO1	
InChI=1S/C6H8O2/c1-2-3-6-4-7-5-8-6/h6H,4-5H2,1H3	InChI=1S/C6H8O2/c1-2-3-6-4-7-5-8-6/h6H,4-5H2,1H3/t6-/m0/s1
