26
gdb 88949	2.85333	0.91901	0.86324	1.1921	93.55	-0.2206	0.0792	0.2998	1562.5252	0.238	-369.596508	-369.585429	-369.584485	-369.632259	42.079	
C	 0.071143651	 1.55945956	-0.3533424931	-0.412641
C	 0.0184633354	 0.0758383721	-0.0585114166	 0.031448
C	 1.2487207123	-0.7637173736	-0.0844807376	-0.251973
N	 0.5531001784	-0.5099695319	 1.1730582816	-0.086527
C	 1.1902758652	 0.3481402761	 2.1679731734	-0.142856
C	 1.7173111974	-0.454477066	 3.380382638	 0.261798
C	 2.7562588051	-1.49225836	 2.9204881943	-0.3999
C	 2.3793193965	 0.5374981845	 4.3524139904	-0.409052
C	 0.5475349522	-1.1657192583	 4.0817093975	-0.396116
H	 1.0403909565	 1.9983416079	-0.1049790763	 0.120577
H	-0.1110782485	 1.7342484433	-1.4190165748	 0.120904
H	-0.7001384449	 2.1019162946	 0.2051359669	 0.122091
H	-0.9140149184	-0.3951163479	-0.3695825524	 0.086448
H	 1.2274050978	-1.7871757544	-0.4512986868	 0.109866
H	 2.1933955625	-0.2451735055	-0.2517402686	 0.102963
H	 2.0235988149	 0.9357600208	 1.7461824325	 0.07459
H	 0.4407575194	 1.0661187119	 2.5250120487	 0.092713
H	 3.594942757	-1.0128962184	 2.4020814387	 0.099238
H	 3.1649429832	-2.036449527	 3.7789677571	 0.104656
H	 2.3099877596	-2.2230760679	 2.240667346	 0.124285
H	 1.6679164624	 1.2999559869	 4.689792693	 0.105871
H	 2.7560833872	 0.0191823102	 5.2406273981	 0.108947
H	 3.2259533728	 1.0527944887	 3.8842936849	 0.104777
H	 0.0223458525	-1.821211198	 3.3829743422	 0.12801
H	 0.9046874083	-1.7664709608	 4.9253098562	 0.100329
H	-0.1760429661	-0.4406416274	 4.4722946667	 0.099557
54.3486	92.3715	135.8991	195.1456	218.6345	223.3731	267.1255	276.5017	289.4333	328.1308	346.9084	390.5943	410.5217	451.7182	461.1821	525.7102	750.5555	763.9088	822.2167	901.264	914.1861	925.5742	939.4915	947.2275	959.1351	967.7097	1034.2987	1044.8848	1058.9398	1087.2791	1117.0792	1148.5127	1161.3521	1187.7854	1236.5787	1240.1474	1277.9	1325.9677	1335.998	1381.2363	1395.6711	1396.5111	1405.3809	1422.0523	1431.44	1476.9466	1479.2187	1487.3577	1490.7426	1491.9306	1500.4574	1504.9584	1507.5884	1514.2053	1522.636	2947.4139	3020.1574	3024.5617	3030.5902	3034.4845	3038.5739	3078.1378	3084.8652	3088.1051	3089.1806	3091.6513	3095.3805	3096.2703	3112.1663	3123.4546	3126.2369	3164.6144
CC1CN1CC(C)(C)C	C[C@H]1CN1CC(C)(C)C	
InChI=1S/C8H17N/c1-7-5-9(7)6-8(2,3)4/h7H,5-6H2,1-4H3	InChI=1S/C8H17N/c1-7-5-9(7)6-8(2,3)4/h7H,5-6H2,1-4H3/t7-,9?/m0/s1
