17
gdb 54690	3.49168	1.23168	0.94026	3.839	70.96	-0.2397	-0.0251	0.2146	1216.1092	0.137665	-455.196508	-455.188095	-455.187151	-455.230139	30.952	
N	-0.0598241319	 1.3052464747	-0.0666389617	-0.527571
C	 0.0498832424	-0.0422270369	 0.0197957329	 0.348563
O	 1.0917989642	-0.6623756575	 0.0517050465	-0.349683
C	-1.3141562248	-0.7309457181	 0.0706596724	 0.318042
N	-2.3792768451	-0.0367292384	 0.0635897687	-0.330107
C	-3.6687315041	-0.7201584374	 0.0496623948	-0.157825
C	-3.5597453804	-2.1781742678	-0.4056908811	-0.237237
C	-2.3829889701	-2.821220694	 0.3158624143	-0.071048
O	-1.1777393404	-2.0673587969	 0.115354796	-0.235146
H	 0.7757080485	 1.8635980631	-0.0757519557	 0.262239
H	-0.976753032	 1.7213593804	-0.0608560627	 0.27176
H	-4.1032039906	-0.6613001857	 1.0570786523	 0.117112
H	-4.342438574	-0.1558843473	-0.604160826	 0.116127
H	-4.4789799747	-2.7331635893	-0.1941717443	 0.109628
H	-3.387847597	-2.2209071848	-1.4868999243	 0.121236
H	-2.573200539	-2.8818217155	 1.3954257236	 0.117227
H	-2.1628155209	-3.8258625586	-0.0507365858	 0.126683
46.3399	112.3203	188.0182	214.1865	260.4517	300.2358	368.1428	469.42	507.1218	523.5082	563.719	653.9858	660.0509	816.6307	825.4904	869.1768	888.4857	949.1445	957.2481	1071.8846	1101.2625	1109.1516	1142.0019	1208.496	1236.3797	1256.998	1301.0565	1348.1044	1368.411	1397.5734	1416.3605	1479.4117	1487.656	1513.8208	1581.221	1723.5911	1815.4197	3015.0855	3025.9346	3044.7023	3062.9504	3095.0218	3110.5687	3596.2481	3745.106
NC(=O)C1=NCCCO1	NC(=O)C1=NCCCO1	
InChI=1S/C5H8N2O2/c6-4(8)5-7-2-1-3-9-5/h1-3H2,(H2,6,8)	InChI=1S/C5H8N2O2/c6-4(8)5-7-2-1-3-9-5/h1-3H2,(H2,6,8)
