21
gdb 102419	1.84499	0.94399	0.65186	1.1532	101.48	-0.2398	-0.0088	0.231	1759.8233	0.179341	-349.917197	-349.906212	-349.905268	-349.953781	39.437	
C	-1.5394549212	-0.2320685382	-0.0365139759	-0.391303
C	-0.0207299174	-0.0676321794	 0.0374610239	-0.174231
C	 0.7327564053	-0.6073680046	-1.2034061454	-0.173853
C	 2.2441691998	-0.2766305215	-1.1323459239	-0.174231
C	 3.023512241	-0.6531210891	-2.3932653992	-0.391304
C	 0.5117258532	-2.039749653	-1.3754401384	 0.495945
C	 0.3350965642	-3.2314398504	-1.5044553808	-0.353186
C	 0.1385388436	-4.5708155494	-1.6456180485	 0.300638
C	-0.0365925484	-5.7591359363	-1.7722595296	-0.567659
H	-1.9527346213	 0.2938513897	-0.9044748768	 0.113851
H	-1.8196250238	-1.2861131072	-0.1205223658	 0.13449
H	-2.0190785491	 0.1750054706	 0.8586696787	 0.114575
H	 0.2335028195	 0.9941592236	 0.1406185636	 0.097275
H	 0.3684702263	-0.5721560127	 0.9297101626	 0.107257
H	 0.322075452	-0.0983814825	-2.0894724542	 0.105488
H	 2.3369094658	 0.8000621069	-0.9457751832	 0.097274
H	 2.6727128463	-0.7847873039	-0.2604191351	 0.107257
H	 2.9621275594	-1.7273530919	-2.5902942258	 0.134489
H	 2.6314321116	-0.129141468	-3.2721661047	 0.113851
H	 4.0800937735	-0.3878199167	-2.2915185313	 0.114576
H	-0.1896822703	-6.8037985461	-1.8818302804	 0.188801
60.2484	78.7306	107.3582	115.2821	174.678	207.8094	215.0809	252.3683	279.8306	371.6793	383.9861	474.4508	508.3731	529.9696	558.2463	590.1333	605.8722	651.7868	778.5006	833.5922	871.9472	929.1564	1025.5013	1038.8072	1048.605	1097.6603	1107.8512	1151.0924	1192.8139	1267.4736	1279.8577	1302.4321	1357.476	1367.3204	1379.4611	1411.5898	1415.974	1479.7177	1489.877	1497.4725	1497.7311	1506.2153	1507.9869	2178.0939	2355.3221	2984.3328	3025.1251	3031.6982	3034.7825	3035.4788	3062.7352	3070.3331	3101.9497	3102.6503	3115.2532	3115.8612	3506.1791
CCC(CC)C#CC#C	CCC(CC)C#CC#C	
InChI=1S/C9H12/c1-4-7-8-9(5-2)6-3/h1,9H,5-6H2,2-3H3	InChI=1S/C9H12/c1-4-7-8-9(5-2)6-3/h1,9H,5-6H2,2-3H3
