18
gdb 92797	3.28033	1.06016	0.88318	4.05	78.42	-0.2211	-0.0079	0.2132	1310.5602	0.14826	-439.123856	-439.115217	-439.114273	-439.157919	32.119	
O	 0.1659804707	 1.4365121889	 0.0042887402	-0.43323
C	 0.0850943514	 0.0175473844	 0.0248993914	 0.122353
C	 0.6381570534	-0.5640130715	 1.3517749412	-0.26456
C	-0.6066629909	-0.7549086361	 2.1819129579	-0.228026
C	-1.7098914896	-0.714660942	 1.4207652424	 0.423897
C	-1.3848129433	-0.467839211	-0.0363283485	-0.315734
N	-3.0105389504	-0.9098100008	 1.8959589348	-0.402015
C	-4.1805003013	-0.93219971	 1.1797610553	 0.144223
O	-4.2966523079	-0.7768315814	-0.0136243723	-0.302067
H	-0.3372766085	 1.7636349585	 0.7589287926	 0.277867
H	 0.6602350343	-0.3077142553	-0.8447534943	 0.086134
H	 1.1591715518	-1.5183179962	 1.1876945285	 0.105871
H	 1.3692952506	 0.1246975803	 1.7886328221	 0.108677
H	-0.5928019719	-0.9508027176	 3.2487131239	 0.080746
H	-2.0279305208	 0.272648044	-0.5136142756	 0.139798
H	-1.492897916	-1.3936478264	-0.614195597	 0.121674
H	-3.101066612	-1.0771190534	 2.8877690841	 0.251792
H	-5.0420050295	-1.1178687644	 1.851373453	 0.082599
42.6413	94.4215	173.3967	190.1904	302.367	341.3635	353.4421	385.7814	443.9948	515.2525	575.954	612.7035	762.9491	808.5143	832.8	846.1199	883.0714	892.8935	945.153	990.3379	1020.6949	1046.0159	1071.766	1109.0998	1161.8696	1175.7774	1223.9136	1274.064	1287.9231	1307.3739	1320.4409	1375.9695	1432.6567	1447.6762	1467.1669	1482.8354	1514.7571	1704.3498	1814.5148	2938.2886	3002.5329	3042.709	3065.3103	3092.7285	3125.6164	3184.7075	3603.7611	3790.7671
OC1CC=C(C1)NC=O	O[C@H]1CC=C(C1)NC=O	
InChI=1S/C6H9NO2/c8-4-7-5-1-2-6(9)3-5/h1,4,6,9H,2-3H2,(H,7,8)	InChI=1S/C6H9NO2/c8-4-7-5-1-2-6(9)3-5/h1,4,6,9H,2-3H2,(H,7,8)/t6-/m0/s1
