16
gdb 50183	2.11863	1.87637	1.29313	1.6579	74.31	-0.2364	-0.0257	0.2107	1003.1016	0.122499	-400.665236	-400.656987	-400.656043	-400.698443	30.449	
O	-0.4010719869	 0.4766862682	 0.7204687343	-0.244552
C	 0.0748929885	 1.0530745163	-0.2226228504	 0.149756
C	 1.2429666857	 2.0060058942	-0.1338154575	-0.119426
C	 1.2424204727	 3.3799071734	-0.8685398528	-0.19626
N	 1.594653836	 4.1061196018	 0.4057366525	-0.147963
C	 0.4667621677	 3.8687013175	 1.3540529641	-0.201707
C	-0.9030595428	 3.8070445924	 0.9311723525	 0.358088
C	-2.0542895895	 3.7989597409	 0.5822731869	-0.447732
C	 1.4720040541	 2.7919593335	 1.1508046164	-0.037123
H	-0.306897691	 0.8876966762	-1.2572347183	 0.074497
H	 2.136096066	 1.4365033101	-0.418248676	 0.12117
H	 2.0497909816	 3.4987447559	-1.5913349776	 0.120437
H	 0.2978423141	 3.7041071675	-1.3128024705	 0.127355
H	 0.6226555572	 4.4477041557	 2.2612503153	 0.127758
H	-3.0749699119	 3.7712986767	 0.2895482397	 0.206769
H	 2.1563392685	 2.5164909997	 1.9460933914	 0.108932
75.3432	101.076	137.9693	186.3175	253.07	373.8121	388.5594	509.1354	574.4013	611.4977	674.6073	679.5687	710.6952	761.842	768.5455	880.405	917.1638	924.398	980.3168	1016.2699	1048.0801	1070.2354	1095.8353	1127.5617	1181.9349	1219.2071	1229.8816	1288.9102	1326.2346	1354.5515	1404.007	1419.3938	1497.6667	1828.3048	2233.2491	2858.2494	3043.6109	3072.0476	3134.4083	3140.2632	3171.4243	3500.8204
O=CC1CN2C(C#C)C12	O=C[C@H]1CN2[C@@H](C#C)[C@@H]12	
InChI=1S/C7H7NO/c1-2-6-7-5(4-9)3-8(6)7/h1,4-7H,3H2	InChI=1S/C7H7NO/c1-2-6-7-5(4-9)3-8(6)7/h1,4-7H,3H2/t5-,6+,7-,8?/m1/s1
