18
gdb 71708	2.31537	2.09773	1.78567	2.3697	73.79	-0.2259	0.0656	0.2915	891.4874	0.147471	-401.86853	-401.861	-401.860056	-401.899962	30.314	
C	-0.1123148884	 1.5240325952	 0.0445454006	-0.528016
C	-0.014630624	 0.035354882	 0.0148459928	 0.350935
C	 0.7248474974	-0.8733439829	-1.0327939969	-0.131564
C	 1.8382398335	-1.1825428551	-0.0009419166	-0.318923
C	 0.7282608324	-0.8802894704	 1.043410287	 0.356263
O	 0.9739666376	-0.4440907471	 2.3365252753	-0.483138
C	-0.4436313663	-1.8481013281	 0.7474792875	-0.136753
C	-0.443920106	-1.8344131513	-0.7390640976	-0.034288
N	-1.2834527077	-0.8414628248	 0.01472174	-0.205874
H	 0.8822162886	 1.9818622853	 0.0153278761	 0.124111
H	-0.6869888024	 1.8901806485	-0.8127879969	 0.127573
H	-0.6134841177	 1.8554691665	 0.9597018852	 0.139442
H	 0.9333992662	-0.5785311089	-2.0586435954	 0.076509
H	 2.299052922	-2.1751414836	-0.0124698971	 0.090041
H	 2.6083961423	-0.4048827821	 0.013141853	 0.105543
H	 1.2746168486	-1.1913085149	 2.8656786434	 0.282946
H	-0.8813956032	-2.6144074455	 1.3770852961	 0.091333
H	-0.8883739928	-2.5948994326	-1.3701826267	 0.093861
178.9696	183.6973	196.728	233.0203	337.9637	366.039	438.5775	561.2753	601.3983	640.5376	737.0272	769.1215	796.6019	817.7355	844.9172	854.7214	889.2354	919.3117	957.2054	986.6498	1012.046	1032.8286	1064.742	1092.2197	1126.6018	1145.8757	1159.9357	1171.5354	1206.6161	1236.546	1266.185	1285.9834	1319.1781	1356.6817	1397.0751	1416.2643	1475.8041	1482.1281	1488.1163	3031.133	3043.6565	3101.5046	3104.8041	3106.1588	3142.8364	3172.6447	3185.5833	3796.9147
CC12C3CC1(O)C1C3N21	C[C@@]12[C@H]3C[C@]1(O)[C@@H]1[C@H]3N21	
InChI=1S/C7H9NO/c1-6-3-2-7(6,9)5-4(3)8(5)6/h3-5,9H,2H2,1H3	InChI=1S/C7H9NO/c1-6-3-2-7(6,9)5-4(3)8(5)6/h3-5,9H,2H2,1H3/t3-,4-,5-,6+,7-,8?/m0/s1
