19
gdb 114022	3.06045	0.75231	0.64753	2.9412	73.07	-0.2549	-0.0323	0.2226	1695.9037	0.15589	-460.130245	-460.120156	-460.119212	-460.16707	34.88	
O	 0.1743469318	 1.1503599206	-0.0291704431	-0.420292
C	-0.0390559137	-0.1816316042	 0.4143601466	-0.077722
C	-1.4433070265	-0.6651744689	 0.1354527487	-0.063602
C	-1.7844866394	-1.1619006885	-1.2642662432	-0.340757
C	-1.7422119347	-2.1251662411	-0.1250408822	 0.123157
O	-0.7084031191	-3.0636832163	-0.1461295918	-0.251247
C	-0.4370434609	-3.6345548983	 1.1146189492	-0.153608
C	 0.6722575848	-4.6567597003	 0.9366783559	 0.13949
O	 1.1279386637	-5.3064228802	 1.8389410928	-0.235321
H	-0.0450388494	 1.1778991799	-0.9666186125	 0.281141
H	 0.6843156646	-0.8783039743	-0.0340396542	 0.0948
H	 0.1512110541	-0.159114437	 1.4930086384	 0.110913
H	-2.2203491505	-0.1050000012	 0.6484953202	 0.096419
H	-2.7423832113	-0.9105578897	-1.7045002044	 0.121539
H	-0.9639772926	-1.2382070874	-1.9715607975	 0.125713
H	-2.6844441368	-2.5208223253	 0.2561266485	 0.092897
H	-0.1170310086	-2.8822664195	 1.8520492276	 0.130468
H	-1.3223200131	-4.1420456815	 1.5317778731	 0.127349
H	 1.0273142577	-4.750965587	-0.1131924021	 0.098664
41.1798	54.8454	100.058	106.3567	138.301	185.1138	252.8805	332.6071	351.2908	385.0551	449.7371	562.0968	611.8386	740.4303	791.268	821.2045	885.5204	901.5605	1015.7618	1026.8601	1063.1606	1066.8506	1072.064	1113.304	1120.826	1135.1453	1159.4407	1187.2612	1235.4582	1239.3142	1251.0258	1341.7017	1350.7424	1389.0844	1406.3249	1423.756	1433.3586	1476.3725	1488.9428	1514.3412	1846.1732	2900.1716	2976.8888	2999.4049	3012.8888	3065.7519	3093.4508	3131.6053	3148.8526	3221.708	3808.2734
OCC1CC1OCC=O	OC[C@H]1C[C@H]1OCC=O	
InChI=1S/C6H10O3/c7-1-2-9-6-3-5(6)4-8/h1,5-6,8H,2-4H2	InChI=1S/C6H10O3/c7-1-2-9-6-3-5(6)4-8/h1,5-6,8H,2-4H2/t5-,6-/m1/s1
