23
gdb 64084	2.94478	1.15442	1.05621	3.0475	85.21	-0.2327	-0.0096	0.2231	1273.385	0.205904	-388.341759	-388.332475	-388.331531	-388.375285	36.573	
C	 0.0410648036	 1.5425971026	 0.0096585328	-0.421455
C	-0.0746651287	 0.0086931386	 0.0028639839	 0.278584
C	-1.5693406685	-0.3663796615	 0.0194170114	-0.415379
C	 0.6218219052	-0.5410313037	-1.2638698856	-0.217839
C	 0.733431106	-2.0783019698	-1.2999692577	-0.314773
C	 1.3606067241	-2.6348069375	-0.0291482496	 0.398492
O	 2.2578488359	-3.4453678295	-0.0446416935	-0.310663
C	 0.7652595325	-2.0920543434	 1.2627550591	-0.314773
C	 0.6529960887	-0.5544993194	 1.2459359334	-0.217838
H	 1.0887205309	 1.8623853374	-0.0016327431	 0.11125
H	-0.4514672919	 1.9782666717	-0.8665578357	 0.110441
H	-0.4295036909	 1.9687738045	 0.9024573911	 0.110441
H	-2.0806960213	 0.0484732967	-0.8560883028	 0.11327
H	-1.7397996912	-1.4467957412	 0.015733678	 0.111269
H	-2.0587367189	 0.0389819421	 0.911756877	 0.11327
H	 0.0962082881	-0.1909538098	-2.1602562073	 0.096466
H	 1.6332797501	-0.1172852298	-1.3156368893	 0.101277
H	-0.2674087359	-2.5210860239	-1.395789997	 0.117977
H	 1.3219990313	-2.4187483826	-2.1554359674	 0.117131
H	-0.2329519843	-2.5359721256	 1.378644609	 0.117977
H	 1.3748450848	-2.441583158	 2.0996387072	 0.117131
H	 1.6654848589	-0.1311997955	 1.2771079855	 0.101277
H	 0.1498562112	-0.2141291123	 2.1588054192	 0.096466
70.283	160.2855	207.5707	222.5	253.9841	283.1418	323.6486	386.9651	398.6305	428.9755	441.1277	498.7702	504.6608	692.3494	702.093	756.1988	762.9215	880.262	913.5073	928.9748	942.1242	970.6005	1007.8362	1018.4977	1020.9489	1045.2523	1130.5282	1147.6715	1165.2802	1189.2791	1241.1465	1255.814	1289.1958	1299.6956	1334.0664	1357.1026	1359.8461	1380.5081	1402.6679	1427.1791	1460.1263	1470.2918	1482.5476	1486.6573	1489.2408	1503.4475	1507.3414	1511.9008	1817.2207	3015.4354	3018.6128	3021.3028	3023.1076	3026.9869	3033.1501	3057.6513	3061.3506	3091.0849	3095.2685	3097.3905	3101.3176	3102.2605	3105.4136
CC1(C)CCC(=O)CC1	CC1(C)CCC(=O)CC1	
InChI=1S/C8H14O/c1-8(2)5-3-7(9)4-6-8/h3-6H2,1-2H3	InChI=1S/C8H14O/c1-8(2)5-3-7(9)4-6-8/h3-6H2,1-2H3
