20
gdb 101531	2.49354	0.92854	0.79174	3.2543	83.75	-0.2485	-0.0395	0.209	1529.8707	0.169792	-399.355999	-399.345449	-399.344505	-399.392206	37.501	
C	 0.0319645717	 1.5589993392	-0.0184476941	-0.383377
C	-0.0041236184	 0.0300997755	 0.0482171928	-0.193781
C	-1.4170359453	-0.5681630419	 0.0143063053	 0.061706
C	-1.4024943937	-2.0982426805	-0.1022192726	-0.399856
N	-2.1583329339	-0.1289669662	 1.1979681312	-0.312921
C	-3.5186265758	-0.0597262864	 1.2287919796	 0.30342
N	-4.2585010468	-0.2815164411	 0.2054284541	-0.527808
C	-4.0561960887	 0.3168451845	 2.5302322408	 0.220287
N	-4.5207354477	 0.6058569858	 3.5490245679	-0.32176
H	 1.0609060856	 1.9285631937	 0.0176799391	 0.117704
H	-0.4219977634	 1.9218372842	-0.9466947997	 0.123378
H	-0.5171728679	 2.0086569494	 0.813983755	 0.121016
H	 0.5562771822	-0.3919604953	-0.7934637393	 0.108405
H	 0.5100771721	-0.3215888514	 0.9547798381	 0.093261
H	-1.9620585535	-0.1605747109	-0.8434636821	 0.122189
H	-0.901377303	-2.4056939897	-1.0254293827	 0.119101
H	-0.8692233987	-2.551060296	 0.7412374734	 0.1096
H	-2.422903125	-2.4877405833	-0.1207284477	 0.143022
H	-1.672467458	-0.112656478	 2.0806533525	 0.257518
H	-5.2392556318	-0.1276188315	 0.4227831782	 0.238895
51.1675	65.2391	120.2462	127.8474	208.6522	220.6633	238.2862	264.6786	315.3568	372.766	388.7152	420.3614	483.5339	519.3828	607.7603	725.3836	785.0964	812.7787	834.6518	909.0011	939.5467	984.2563	1013.8344	1038.95	1128.4817	1159.6359	1178.8961	1187.3831	1275.7942	1321.5909	1331.3182	1384.1838	1393.6799	1406.5188	1417.9518	1482.3158	1489.2779	1498.0779	1502.6303	1508.5354	1547.3241	1679.7863	2346.8252	3005.8877	3034.8035	3040.2123	3061.1311	3069.6645	3104.7054	3107.9263	3115.5933	3129.2998	3536.7807	3635.6945
CCC(C)NC(=N)C#N	CC[C@@H](C)NC(=N)C#N	
InChI=1S/C6H11N3/c1-3-5(2)9-6(8)4-7/h5H,3H2,1-2H3,(H2,8,9)	InChI=1S/C6H11N3/c1-3-5(2)9-6(8)4-7/h5H,3H2,1-2H3,(H2,8,9)/t5-/m1/s1
