16
gdb 34735	3.39402	1.54258	1.33618	3.9872	78.94	-0.2317	-0.0563	0.1754	966.0248	0.125479	-363.522779	-363.515998	-363.515053	-363.553905	27.193	
N	 0.560527307	-1.0616319089	-0.0912099563	-0.33258
C	 0.3061418105	 0.0661660618	-0.0814946215	 0.284663
C	-0.0174854644	 1.4876768094	-0.0583396766	-0.185971
C	-0.2466904396	 2.2364553027	 1.314481137	-0.080271
C	 0.9795392757	 2.9247787552	 2.0423326915	-0.03933
C	 2.4569305583	 2.5863635281	 1.7629228055	-0.264171
C	 2.3220259821	 2.1206031837	 0.3181072376	-0.098248
C	 1.1297453178	 2.5141879422	-0.1741842134	 0.032754
C	 0.4123277777	 3.4782891637	 0.7882250528	-0.116485
H	-0.8901453115	 1.6720526453	-0.6953135157	 0.128169
H	-1.1895941238	 2.1756925361	 1.8510209426	 0.107227
H	 0.691136246	 3.342452044	 3.0054223128	 0.090778
H	 3.0919475065	 3.4598179839	 1.9660524425	 0.118001
H	 2.8566510313	 1.7542120624	 2.3537978184	 0.126517
H	 2.8077430956	 1.2057173111	-0.0065765698	 0.128027
H	-0.0034505592	 4.4524222294	 0.5689459527	 0.100918
116.2997	156.3958	291.292	391.5468	400.3152	523.7111	541.9184	614.3154	695.3387	753.0039	763.2567	806.268	831.7012	878.962	894.1134	904.3809	945.9029	960.2125	986.9735	1013.2316	1052.8877	1063.8861	1066.9322	1100.5074	1151.6131	1187.2692	1218.4863	1270.7404	1276.6166	1301.4934	1344.881	1375.8478	1471.4085	1586.7592	2352.6512	3010.0084	3043.482	3064.1362	3133.5152	3151.5869	3181.0918	3204.1123
N#CC1C2C3CC=C1C23	N#C[C@H]1[C@H]2[C@H]3C[CH][C]1[C@@H]23	
InChI=1S/C8H7N/c9-3-6-4-1-2-5-7(4)8(5)6/h1,5-8H,2H2	InChI=1S/C8H7N/c9-3-6-4-1-2-5-7(4)8(5)6/h1,5-8H,2H2/t5-,6+,7+,8+/m0/s1
