12
gdb 131333	3.6751	1.73928	1.18057	2.7842	60.77	-0.216	-0.0177	0.1983	918.4779	0.080635	-464.978214	-464.971649	-464.970705	-465.009101	24.799	
O	 0.058940259	 1.3536691181	 0.1324521628	-0.424541
C	 0.069897953	 0.0187718682	 0.0216704089	 0.438369
N	 0.0922344661	-0.7044723121	-1.0601484129	-0.326144
N	 0.0958345964	-2.0661300605	-0.7049705365	-0.365068
C	 0.0749292684	-2.0555096719	 0.5981310836	 0.530173
N	 0.0628555334	-2.8866274085	 1.6830902909	-0.366779
N	 0.0393938598	-2.1734070578	 2.8527508208	-0.188477
C	 0.0361811126	-0.9170017412	 2.5157607853	 0.018376
N	 0.0575440673	-0.7818207586	 1.1384444982	-0.110758
H	 0.0708747021	 1.7054552425	-0.7676839188	 0.323047
H	 0.0705934168	-3.8896980298	 1.7074222596	 0.294802
H	 0.0193523951	-0.0957070583	 3.210979608	 0.177001
172.8997	207.753	288.6973	296.9472	368.5933	432.9233	575.1182	645.3459	662.8565	668.9159	716.6436	748.4107	802.3331	842.4818	973.1864	1030.357	1084.5362	1139.9727	1207.6345	1257.2076	1343.7643	1363.8896	1402.6207	1493.7923	1569.5349	1617.2817	1672.9125	3299.9265	3714.0496	3794.0927
OC1=NN=C2NN=CN12	Oc1nnc2[nH]ncn12	
InChI=1S/C3H3N5O/c9-3-7-6-2-5-4-1-8(2)3/h1H,(H,5,6)(H,7,9)	InChI=1S/C3H3N5O/c9-3-7-6-2-5-4-1-8(2)3/h1H,(H,5,6)(H,7,9)
