18
gdb 31720	4.01816	0.96804	0.82771	0.8386	75.92	-0.2062	0.0096	0.2158	1421.4664	0.147153	-439.118239	-439.109044	-439.108099	-439.153541	32.292	
C	 0.0596127744	 1.4945232348	 0.3504037809	-0.378582
C	-0.0516163653	 0.0408924216	-0.1404911994	-0.286001
C	-1.4541661555	-0.461027896	-0.172400273	 0.399493
N	-2.1524602602	-0.8354560401	-1.2054527369	-0.392762
C	-3.3797882012	-1.1949980219	-0.6827150961	 0.346298
O	-4.3992367683	-1.6462364045	-1.4297400193	-0.272639
C	-4.1573065543	-1.7436424474	-2.8309663212	-0.234742
C	-3.374278327	-1.0189550256	 0.6643143005	-0.179277
O	-2.1247116986	-0.5426959961	 0.9951339242	-0.17658
H	 1.106382953	 1.8106641531	 0.371336436	 0.1189
H	-0.4894025014	 2.1730128091	-0.3091035231	 0.129097
H	-0.3489341702	 1.597356006	 1.3592514108	 0.134363
H	 0.3458499604	-0.0571749846	-1.1534139558	 0.132881
H	 0.5464343118	-0.6098182461	 0.5094514707	 0.12397
H	-5.0843479584	-2.1224590684	-3.263818441	 0.128213
H	-3.914838773	-0.766839859	-3.26129424	 0.132316
H	-3.3346706223	-2.4331324701	-3.0452552279	 0.132561
H	-4.0800524438	-1.1627894148	 1.4605717208	 0.142493
33.1181	64.9347	135.8646	169.2586	181.0941	232.1296	296.8257	363.0074	408.3063	519.6737	608.5425	651.8345	705.7558	733.262	752.7533	795.7587	958.0607	985.8463	997.9924	1077.387	1082.8709	1097.8859	1136.8433	1179.5102	1204.6103	1227.4623	1280.8325	1342.5407	1350.1965	1377.0944	1411.1967	1473.9159	1476.0918	1482.3375	1497.0529	1502.1177	1506.4751	1604.8197	1662.1012	3034.4981	3036.0437	3045.1094	3101.9905	3104.3312	3117.7321	3128.4055	3142.9617	3314.4722
CCC1=NC(OC)=CO1	CCc1nc(OC)co1	
InChI=1S/C6H9NO2/c1-3-5-7-6(8-2)4-9-5/h4H,3H2,1-2H3	InChI=1S/C6H9NO2/c1-3-5-7-6(8-2)4-9-5/h4H,3H2,1-2H3
