20
gdb 109279	2.76823	1.13583	0.85848	3.6978	82.7	-0.2367	0.0174	0.2541	1379.3628	0.172019	-403.206958	-403.197791	-403.196847	-403.241898	33.535	
C	 0.0409686481	 1.5065597193	-0.2397169201	-0.375877
C	-0.0408438157	-0.0051562875	 0.0371381971	-0.268759
C	 0.6662334598	-0.4358150472	 1.3001585169	 0.311178
C	 0.0052219481	-0.912763216	 2.3534451357	-0.158253
C	 0.6481744361	-1.3563710559	 3.6299835292	-0.201919
N	 2.0929417265	-1.2369812604	 3.5988920924	-0.318238
C	 2.8782196571	-0.7782376329	 2.5835075155	 0.398332
O	 4.0916026002	-0.7373625904	 2.6789623388	-0.381586
C	 2.1677141204	-0.3118255142	 1.3199834146	-0.421063
H	 1.0744629053	 1.8418860304	-0.3686033854	 0.123938
H	-0.5030709034	 1.759230137	-1.1547819122	 0.117353
H	-0.3969892716	 2.0781570522	 0.5846241167	 0.120874
H	-1.0928636046	-0.3049443858	 0.094942975	 0.10154
H	 0.3917729554	-0.5438292522	-0.8177796287	 0.104002
H	-1.0772902767	-1.0050986256	 2.3259280355	 0.087328
H	 0.2423768469	-0.7682261021	 4.4690208097	 0.118015
H	 0.3660575195	-2.4010516281	 3.8374581239	 0.118116
H	 2.6131977135	-1.530333494	 4.4130398677	 0.245494
H	 2.6113771887	-0.8699990086	 0.4844748186	 0.13767
H	 2.4819567065	 0.7267166819	 1.1562129091	 0.141854
48.3531	63.3764	112.7716	173.1881	202.715	296.4787	339.8965	435.8051	475.0298	495.131	523.7457	551.6178	661.3978	716.1692	786.202	836.0285	844.5806	926.5036	961.2534	972.303	983.2577	1029.9	1073.6577	1098.937	1132.91	1174.2073	1216.4113	1247.5197	1278.4589	1314.1448	1343.8174	1354.1091	1389.6702	1404.9295	1408.8359	1450.8064	1481.0066	1491.0007	1498.7004	1507.6057	1529.3947	1757.4328	1789.5774	2969.537	2978.5816	3008.9616	3025.8094	3038.6749	3050.8492	3063.4148	3109.7076	3111.8584	3161.5137	3609.8529
CCC1=CCNC(=O)C1	CCC1=CCNC(=O)C1	
InChI=1S/C7H11NO/c1-2-6-3-4-8-7(9)5-6/h3H,2,4-5H2,1H3,(H,8,9)	InChI=1S/C7H11NO/c1-2-6-3-4-8-7(9)5-6/h3H,2,4-5H2,1H3,(H,8,9)
