18
gdb 87200	2.89651	1.06579	1.01234	5.7531	68.25	-0.2445	0.0269	0.2714	1250.3902	0.147571	-476.241359	-476.232542	-476.231598	-476.275228	33.516	
N	 0.4528064383	 0.8932519437	 0.4017129132	-0.525537
H	 0.0491265148	-0.5481346663	 1.7396119668	 0.292265
H	 1.4104698133	 1.2000473505	 0.5383721858	 0.251676
H	 0.23713731	 0.9852311901	-0.5852612202	 0.248017
C	-0.4575922007	 1.6575295154	 1.2235216944	-0.088914
C	-1.8950025795	 1.1737808482	 1.2760055425	-0.351763
C	-0.9708569824	 0.8994349135	 2.4316123244	 0.423081
O	-0.4752213277	-0.4154460306	 2.5553801696	-0.476861
C	-1.1559239866	 1.5620927404	 3.7771446545	-0.407052
C	 0.1334305789	 1.7261412544	 4.5914925522	 0.405407
O	 0.9743070432	 0.6777570944	 4.5506626576	-0.37346
O	 0.3761611683	 2.7061178531	 5.2430350533	-0.328966
H	-0.290078513	 2.7286958356	 1.3250446858	 0.100949
H	-2.6757310783	 1.9182430545	 1.3860699096	 0.124971
H	-2.1554273862	 0.3226088289	 0.6555199377	 0.124452
H	 0.6090980839	 0.0090191386	 3.9343953152	 0.308364
H	-1.5949536297	 2.5542222806	 3.6614645522	 0.132426
H	-1.8564850267	 0.9640660152	 4.3752127653	 0.140946
70.0525	75.6467	164.762	254.1549	292.4075	322.092	337.586	385.4674	435.71	503.1901	551.4628	618.5976	669.8763	699.481	762.7902	819.1011	849.7614	863.9963	880.0016	905.9671	939.1985	985.8496	1004.0624	1049.5986	1107.1354	1140.7596	1172.2694	1220.3399	1262.6964	1275.3217	1312.9841	1329.1451	1386.051	1439.9052	1451.1003	1458.6944	1496.599	1654.6248	1865.3349	3033.2032	3111.0287	3125.1926	3133.1592	3224.5935	3495.1939	3505.8907	3551.1482	3583.1991
[NH3+]C1CC1(O)CC([O-])=O	N[C@H]1C[C@]1(O)CC(=O)O	
InChI=1S/C5H9NO3/c6-3-1-5(3,9)2-4(7)8/h3,9H,1-2,6H2,(H,7,8)	InChI=1S/C5H9NO3/c6-3-1-5(3,9)2-4(7)8/h3,9H,1-2,6H2,(H,7,8)/t3-,5-/m0/s1
