22
gdb 79584	2.10585	1.66467	1.51916	1.2163	86.13	-0.2293	0.0864	0.3158	1080.8187	0.193114	-367.159577	-367.1504	-367.149455	-367.192555	35.883	
C	-0.1638100043	 1.4729501627	-0.0765725219	-0.317565
N	 0.0951501409	 0.0487608733	 0.0677362821	-0.132796
C	 1.4128955904	-0.5160555193	-0.155065989	-0.111708
C	 2.5501566059	 0.3290465584	 0.3846880018	-0.12511
C	 3.2047506759	-0.4037858448	 1.5292661124	-0.337604
C	 1.899633023	 0.3166441047	 1.7763194237	 0.305676
C	 1.767539885	 1.4056872212	 2.8078390978	-0.503802
C	 0.7618186127	-0.5422968734	 1.2191355054	 0.263763
C	 0.07942103	-1.655569211	 1.9631354875	-0.49007
H	 0.6704417241	 2.1252215075	 0.2144119275	 0.108153
H	-0.4043216285	 1.6772945226	-1.125325908	 0.11778
H	-1.0387638698	 1.7399485799	 0.5252554118	 0.116677
H	 1.5121571732	-1.3261253178	-0.8714135481	 0.088029
H	 3.0324757636	 1.1617438846	-0.1150019744	 0.087079
H	 3.2474365257	-1.4903474846	 1.5212720076	 0.105284
H	 4.0875731099	 0.0681518581	 1.9540705784	 0.104799
H	 2.6846656329	 2.0009341909	 2.8714709033	 0.117344
H	 0.9406212806	 2.0868323127	 2.5851133359	 0.120132
H	 1.5853470167	 0.9814726344	 3.8026538115	 0.120574
H	-0.6075244528	-1.2584125453	 2.7203992094	 0.117672
H	-0.5045208295	-2.2731954099	 1.2764369398	 0.129896
H	 0.8084462946	-2.2905078846	 2.4779659256	 0.115795
162.9592	176.6681	187.2699	192.5883	220.9185	244.746	249.1918	322.9146	372.5405	433.9614	538.8714	608.9333	618.9877	672.1065	740.3103	799.8287	836.4384	884.791	915.6287	955.7406	974.6494	981.8979	1004.1097	1050.7978	1076.7951	1093.5489	1104.6384	1125.5784	1134.5239	1155.1965	1182.4572	1190.1793	1239.2481	1281.4957	1287.8077	1369.2111	1391.7211	1414.1141	1429.3154	1452.7296	1483.696	1486.4027	1489.6503	1496.0873	1497.4101	1498.1057	1511.036	3006.9234	3025.126	3027.6345	3071.0857	3083.1318	3084.9769	3095.3611	3101.1179	3102.9782	3121.635	3154.0121	3170.8081	3184.452
CN1C2C3CC3(C)C12C	CN1[C@H]2[C@@H]3C[C@]3(C)[C@@]12C	
InChI=1S/C8H13N/c1-7-4-5(7)6-8(7,2)9(6)3/h5-6H,4H2,1-3H3	InChI=1S/C8H13N/c1-7-4-5(7)6-8(7,2)9(6)3/h5-6H,4H2,1-3H3/t5-,6-,7-,8-,9?/m0/s1
