16
gdb 79176	2.73436	1.96488	1.50232	2.8939	66.99	-0.2408	-0.0218	0.2191	889.4938	0.125898	-437.851613	-437.844713	-437.843769	-437.883053	27.333	
O	-0.0611089982	 1.4743155694	-0.0440346489	-0.438301
C	-0.0334431212	 0.0628236381	 0.0228999281	 0.025113
C	-1.3819625402	-0.6022036152	-0.0830089614	-0.072403
C	-2.1254136287	-0.7178007803	-1.4190867489	-0.080616
C	-1.1909059184	-0.5099923061	-2.6029263472	-0.196471
N	-0.155769627	-1.4188211219	-1.9195529022	-0.17464
C	-1.2179718561	-1.8209697307	-0.942917736	-0.052365
C	 0.6964972014	-0.4890884636	-1.2269575539	 0.348557
O	 1.7403040839	-0.0641415644	-1.6388498575	-0.324063
H	 0.8252008401	 1.7492193261	-0.3151062378	 0.293851
H	 0.4687737643	-0.2788681619	 0.9435664298	 0.090239
H	-2.0165741808	-0.6712317498	 0.7925160121	 0.105849
H	-3.2075466418	-0.6902062592	-1.4410295327	 0.10303
H	-1.5393479292	-0.9910872115	-3.5192690532	 0.129807
H	-0.8361230697	 0.500792291	-2.8251281924	 0.135299
H	-1.3752705085	-2.8577244098	-0.678752458	 0.107111
72.6673	216.9028	256.3315	348.369	395.3864	490.9709	519.1943	628.4552	651.08	698.0929	778.6382	802.2567	819.3914	879.7179	891.2109	946.0737	986.5322	1006.3516	1016.053	1046.4833	1067.3049	1083.877	1093.744	1126.3289	1141.6819	1183.6302	1233.9642	1239.0953	1306.7878	1315.8984	1337.5163	1400.7337	1424.1023	1512.4431	1856.381	2960.6597	3056.3582	3115.6597	3188.2864	3194.3441	3212.0569	3761.6846
OC1C2C3CN(C23)C1=O	O[C@H]1[C@H]2[C@H]3CN([C@@H]23)C1=O	
InChI=1S/C6H7NO2/c8-5-3-2-1-7(4(2)3)6(5)9/h2-5,8H,1H2	InChI=1S/C6H7NO2/c8-5-3-2-1-7(4(2)3)6(5)9/h2-5,8H,1H2/t2-,3+,4-,5+/m1/s1
