20
gdb 114433	3.78436	1.30668	1.16132	1.7954	77.46	-0.2318	0.078	0.3098	1121.8404	0.172959	-403.104896	-403.097163	-403.096219	-403.13726	30.209	
C	 0.0915777597	 1.3783647044	 0.0716407489	-0.236275
O	-0.1972055571	 0.015946606	-0.1446475049	-0.247074
C	 0.5650366329	-0.5722934791	-1.1734459235	 0.159222
C	 2.0569907154	-0.8467238211	-0.8238253927	-0.28371
C	 2.2863485519	-2.2291059713	-1.4116711533	-0.0216
C	 1.4733133483	-3.3806491353	-0.9433357581	-0.03274
C	 0.1794568332	-2.9347951946	-0.2764713379	-0.248164
C	 0.0275263309	-1.9679039865	-1.4779265477	-0.03657
N	 1.1367009928	-2.6794849263	-2.2456350879	-0.162859
H	 1.1276078854	 1.5356990757	 0.4068300102	 0.107938
H	-0.0698388555	 1.9760548425	-0.8392759278	 0.106071
H	-0.5859909803	 1.7340635785	 0.8516233861	 0.128086
H	 0.5071641216	 0.0476064971	-2.0831060525	 0.071679
H	 2.733383491	-0.1117705619	-1.2677391009	 0.105078
H	 2.2000334791	-0.8210461304	 0.261699363	 0.113143
H	 3.252780365	-2.4637024146	-1.846802188	 0.089793
H	 1.8725033254	-4.3909653497	-0.937873037	 0.088161
H	-0.5739831272	-3.7244231529	-0.2964255714	 0.110206
H	 0.221298515	-2.5013052477	 0.7262587635	 0.109589
H	-0.9270125377	-1.9733061627	-2.0022810582	 0.080024
96.5798	112.6804	191.9886	235.6798	332.3038	408.0999	418.1461	494.3901	622.7449	698.0277	746.9011	779.181	799.138	837.9639	897.4487	936.3632	971.3924	986.1041	991.3788	1024.8591	1045.7273	1076.5464	1098.8015	1109.3502	1139.7948	1155.7136	1181.4723	1184.7926	1201.7646	1221.4077	1244.7804	1263.149	1283.2505	1317.4067	1336.6074	1371.6317	1384.3551	1411.9981	1481.3576	1485.255	1490.5696	1503.6399	1509.6797	2966.9609	2977.2689	3023.9751	3048.4495	3063.6927	3094.977	3114.1492	3114.9012	3125.701	3146.2436	3163.3062
COC1CC2C3CC1N23	CO[C@H]1C[C@H]2[C@H]3C[C@@H]1N23	
InChI=1S/C7H11NO/c1-9-7-3-5-4-2-6(7)8(4)5/h4-7H,2-3H2,1H3	InChI=1S/C7H11NO/c1-9-7-3-5-4-2-6(7)8(4)5/h4-7H,2-3H2,1H3/t4-,5+,6+,7+,8?/m1/s1
