20
gdb 14177	3.50233	1.64558	1.63152	1.3841	74.05	-0.2396	0.0746	0.3142	927.0893	0.177699	-349.00592	-348.997839	-348.996895	-349.037867	31.422	
C	 0.009328977	 1.6321399273	 0.0385024014	-0.466305
C	 0.0689513548	 0.1215312049	 0.041684188	 0.399665
O	-1.1686779802	-0.4578458939	-0.3225036781	-0.468729
C	 1.2701405516	-0.7101289277	-0.362132738	-0.111077
C	 2.6764561774	-0.1238152437	-0.3670152982	-0.225231
C	 2.9106868463	 0.4785664248	 1.0453554303	-0.221282
C	 1.8381997592	-0.1474859521	 1.9781991211	-0.227986
C	 0.7588350274	-0.7271303637	 1.0740328337	-0.074701
H	 0.9370682017	 2.102787987	 0.3648405655	 0.121704
H	-0.2064657656	 2.0017300023	-0.9723766759	 0.104977
H	-0.7984502932	 1.9719624893	 0.6947172844	 0.126563
H	-1.3235876198	-0.2518185347	-1.2514048546	 0.275144
H	 1.0583167417	-1.5438578552	-1.0235938517	 0.078104
H	 3.3870424684	-0.9358816119	-0.5584058633	 0.101042
H	 2.8350759985	 0.6202023625	-1.1560495096	 0.094278
H	 3.9233914014	 0.2758072093	 1.404938788	 0.097222
H	 2.8139439313	 1.5669501746	 1.0216091733	 0.106467
H	 2.2716267549	-0.966642083	 2.5625939629	 0.101756
H	 1.4524446619	 0.580684617	 2.70028422	 0.098442
H	 0.1782006653	-1.567615543	 1.4376992508	 0.089948
132.4545	153.9718	166.126	231.7974	266.4307	332.1448	408.2195	432.9443	450.8039	652.2325	676.7444	680.0374	796.8485	829.3642	864.5116	896.5096	906.2028	959.8393	971.7365	989.2465	1051.061	1051.7462	1076.3183	1100.731	1113.3003	1176.3169	1180.7767	1214.6354	1253.3196	1285.6934	1294.6971	1307.7726	1322.932	1342.229	1353.0652	1414.6241	1447.0463	1482.5807	1486.9804	1495.0702	1505.2371	1516.3369	3024.5285	3031.8762	3035.7776	3056.8882	3064.2219	3067.1485	3086.3267	3098.0965	3143.2017	3160.1635	3174.9443	3787.1352
CC1(O)C2CCCC12	C[C@@]1(O)[C@H]2CCC[C@@H]12	
InChI=1S/C7H12O/c1-7(8)5-3-2-4-6(5)7/h5-6,8H,2-4H2,1H3	InChI=1S/C7H12O/c1-7(8)5-3-2-4-6(5)7/h5-6,8H,2-4H2,1H3/t5-,6+,7+
