15
gdb 31441	2.96811	1.3881	0.95133	3.7282	72.22	-0.2449	-0.0619	0.183	1156.7092	0.115214	-450.169425	-450.161748	-450.160804	-450.201978	28.467	
O	 0.1161102935	 1.3834657153	-0.0521774452	-0.423031
C	 0.0210570344	-0.0101644013	-0.0435752716	-0.113844
C	-1.4000417059	-0.5093826087	-0.0146863777	 0.323226
N	-2.3425880473	 0.3836247832	-0.000761331	-0.361997
C	-3.6683440657	-0.0331624028	 0.0258120815	 0.418384
N	-4.7150912056	 0.6873037446	 0.0408959336	-0.557115
N	-3.8334211805	-1.4370678436	 0.0369544748	-0.288983
C	-2.7832692119	-2.2743851108	 0.0198964743	 0.113814
N	-1.5460060488	-1.882469579	-0.0062024043	-0.314985
H	-0.7977157685	 1.7075094405	-0.0361600486	 0.292964
H	 0.5060703864	-0.451266852	-0.9295753093	 0.12457
H	 0.5383015707	-0.4430373583	 0.8281914322	 0.124514
H	-4.4470203685	 1.6695788158	 0.0306704863	 0.229788
H	-4.7851126708	-1.7759058432	 0.0563506232	 0.283049
H	-3.0157240515	-3.3370767097	 0.0293874618	 0.149645
89.8	146.8319	177.2219	203.0023	361.9681	418.3618	423.6068	480.5872	572.4668	593.2954	628.4338	710.7121	773.82	788.1917	855.6731	949.9257	989.5143	989.5839	1034.4922	1110.8804	1122.3588	1178.8622	1241.6652	1248.9215	1313.042	1354.3736	1405.6294	1470.705	1475.3476	1496.0222	1578.9002	1670.6902	1749.5769	2980.5559	2994.9706	3166.4455	3519.3422	3612.4497	3694.7346
OCC1=NC(=N)NC=N1	OC[C@H]1N=C([NH])NC=N1	
InChI=1S/C4H6N4O/c5-4-7-2-6-3(1-9)8-4/h2,9H,1H2,(H2,5,6,7,8)	InChI=1S/C4H7N4O/c5-4-7-2-6-3(1-9)8-4/h2-3,5,9H,1H2,(H,6,7,8)/t3-/m1/s1
