18
gdb 20183	3.27637	2.59438	1.96436	1.3259	69.69	-0.2381	0.085	0.3231	756.0795	0.157691	-347.775639	-347.769655	-347.768711	-347.805375	25.12	
C	 0.0243832486	 1.6113726306	-0.0407144113	-0.276159
C	 1.5496377209	 1.5852422301	-0.1216580751	-0.073695
C	 2.1947843504	 0.7511599965	 0.9661525361	-0.02167
C	 1.6939436898	 0.4939779834	 2.3799963764	-0.24338
C	 0.1809723314	 0.2168569041	 2.4633668768	-0.076491
O	-0.3314666973	-0.5049006184	 1.3525331342	-0.263551
C	 0.0372475434	 0.0464017349	 0.1036832874	 0.1075
C	 1.5481917936	 0.0521275584	-0.1908051331	-0.085572
H	-0.4497053432	 2.2067839563	 0.7435815666	 0.098242
H	-0.4230523793	 1.8908195677	-0.9982874808	 0.102844
H	 2.1491799435	 2.273208279	-0.7062179284	 0.082562
H	 3.2800676991	 0.7822132302	 0.8975580258	 0.084253
H	 2.2387965142	-0.3809236445	 2.7564144448	 0.105362
H	 1.9390214192	 1.3285318579	 3.0484747765	 0.097436
H	-0.0426147731	-0.3949083348	 3.341878264	 0.104487
H	-0.3681092251	 1.1614598863	 2.5808361536	 0.094144
H	-0.5750712757	-0.4664250099	-0.6389637999	 0.083901
H	 2.0712723393	-0.6198463178	-0.8597635137	 0.079787
172.9905	302.3555	370.3629	412.2573	505.3186	537.1635	681.1714	717.1061	750.6348	797.6487	824.7162	863.6128	915.7851	928.0094	962.2071	974.0093	999.9095	1030.6124	1035.1902	1070.0155	1077.9012	1107.5894	1136.7116	1165.3448	1179.9048	1225.5952	1258.1613	1262.6295	1287.0091	1301.832	1339.7208	1367.4829	1375.773	1416.3781	1446.2978	1484.5314	1490.5376	1521.926	3001.0258	3019.53	3055.6476	3060.3763	3083.9954	3097.9868	3108.5963	3130.3179	3175.2914	3188.981
C1C2C3CCOC1C23	C1[C@H]2[C@H]3CCO[C@@H]1[C@@H]23	
InChI=1S/C7H10O/c1-2-8-6-3-5-4(1)7(5)6/h4-7H,1-3H2	InChI=1S/C7H10O/c1-2-8-6-3-5-4(1)7(5)6/h4-7H,1-3H2/t4-,5+,6+,7-/m1/s1
