16
gdb 55520	3.55852	1.02631	0.79832	4.5867	71.48	-0.2265	-0.0464	0.1801	1359.1866	0.125354	-467.44612	-467.436752	-467.435807	-467.480722	34.303	
N	 1.2378052472	-0.5356288658	-0.1977410242	-0.526577
C	 0.0198443892	 0.0537120632	-0.0194676333	 0.442617
N	-0.1104192393	 1.3139307089	 0.1437512482	-0.558187
N	-1.0788044783	-0.8399522266	-0.0788085991	-0.3867
C	-1.0841094488	-2.1944160469	-0.0780987659	 0.447947
O	-0.1096474528	-2.935940943	-0.0428440161	-0.411567
C	-2.4995932309	-2.7736409198	-0.1156898162	 0.287037
N	-2.4779811702	-4.1262781565	-0.172346666	-0.532305
N	-3.484077773	-1.9548730102	-0.1011255646	-0.544363
H	 2.0237438198	 0.0486379335	 0.0328435296	 0.261122
H	 1.305305061	-1.5334374895	-0.0595816158	 0.278801
H	-1.0871318927	 1.5864305369	 0.2181715739	 0.209343
H	-2.0129101119	-0.4414849616	-0.0760799203	 0.276328
H	-1.5784173359	-4.575061262	-0.0956669045	 0.280307
H	-3.3187730952	-4.6699841551	-0.0966302067	 0.261117
H	-4.3907763782	-2.4204164255	-0.1276593088	 0.21508
64.2351	85.3274	111.7043	174.1246	198.4769	315.1868	369.7869	427.4724	453.0523	460.7845	506.204	537.5364	571.8738	584.1068	643.5544	722.0023	733.5128	791.5038	818.8356	851.8762	937.5095	947.2667	1079.6893	1130.8919	1140.0479	1167.285	1224.7598	1418.4199	1424.704	1536.078	1597.017	1611.7198	1727.4893	1747.4804	1777.4176	3481.3709	3520.9308	3529.3508	3561.3371	3594.3524	3711.0423	3736.7053
NC(=N)NC(=O)C(N)=N	NC(=N)NC(=O)C(=N)N	
InChI=1S/C3H7N5O/c4-1(5)2(9)8-3(6)7/h(H3,4,5)(H4,6,7,8,9)	InChI=1S/C3H7N5O/c4-1(5)2(9)8-3(6)7/h(H3,4,5)(H4,6,7,8,9)
