19
gdb 71062	2.3881	1.73141	1.54859	1.368	83.03	-0.2078	-0.036	0.1718	993.2747	0.158382	-385.786966	-385.778841	-385.777897	-385.818903	32.434	
C	-0.1447650367	 1.3993680588	-0.1162804905	-0.488734
C	-0.0441955755	-0.1042829787	-0.0871781617	 0.228761
C	 0.6228842073	-0.9406111869	-1.2460615689	-0.311919
C	-0.128703778	-2.1053506931	-0.5790475618	-0.04066
C	 0.5569937312	-2.8043757917	 0.3496530766	-0.091042
C	 0.3036523083	-2.2090580868	 1.7318903355	-0.271918
C	-0.3426661632	-0.875822852	 1.3080238607	-0.136994
C	-1.1279446361	-1.128661641	 0.0912472477	 0.333476
O	-2.5033931877	-1.0841198827	-0.0124222073	-0.466007
H	 0.8046566452	 1.8763134455	 0.1521123329	 0.121967
H	-0.4177905197	 1.7499737281	-1.118824806	 0.114483
H	-0.9100488874	 1.758828048	 0.5785572111	 0.128047
H	 0.2397894907	-0.5750873939	-2.2077000763	 0.094833
H	 1.7126422881	-1.0286212056	-1.2929128634	 0.098675
H	 1.5131449298	-3.2746270211	 0.1327237163	 0.09562
H	-0.3556524007	-2.7574494522	 2.420309588	 0.115227
H	 1.2720274266	-2.1069763335	 2.2375897009	 0.109161
H	-0.7264490979	-0.1895511646	 2.0604369798	 0.081843
H	-2.7369676743	-1.0707763665	-0.9476272436	 0.28518
161.8936	180.145	223.3112	264.1946	273.3527	306.9034	323.1352	448.9992	507.8903	552.2314	609.934	627.01	708.225	793.3047	805.5708	847.7297	897.8643	921.9276	943.5301	975.3326	1005.0579	1011.4089	1032.989	1057.348	1113.0342	1120.357	1144.4489	1170.0329	1191.4622	1249.3453	1262.2497	1291.7702	1296.7154	1352.2698	1409.5218	1464.0598	1478.0547	1487.0119	1497.0679	1508.5188	1585.9327	2999.1225	3011.2813	3022.3911	3046.2607	3078.6149	3082.6768	3100.515	3137.7759	3152.191	3789.8389
CC12CC3=CCC1C23O	C[C@@]12C[C]3[CH]C[C@@H]1[C@@]23O	
InChI=1S/C8H10O/c1-7-4-5-2-3-6(7)8(5,7)9/h2,6,9H,3-4H2,1H3	InChI=1S/C8H10O/c1-7-4-5-2-3-6(7)8(5,7)9/h2,6,9H,3-4H2,1H3/t6-,7+,8+/m0/s1
