20
gdb 124438	3.10665	1.23436	1.0983	3.0207	80.84	-0.2508	-0.0053	0.2455	1200.796	0.170003	-403.160509	-403.151414	-403.15047	-403.194246	34.493	
C	 0.1859377614	 1.5144792004	 0.178860808	-0.414314
C	 0.0474482831	-0.0106312285	 0.0385097252	 0.125021
C	 0.5652658499	-0.70322527	 1.3195097813	-0.404767
C	-1.4354273719	-0.3829408176	-0.1878175062	-0.404775
C	 0.8588291968	-0.4834824894	-1.1389342587	 0.475165
C	 1.6511181409	 0.1357935359	-2.0591470846	-0.37024
C	 2.103308839	-0.9271263878	-2.8849060222	 0.027025
N	 1.6318349791	-2.0878387117	-2.5053577172	-0.142538
O	 0.8388549827	-1.8074790698	-1.3933112862	-0.230426
H	 1.2271387167	 1.8078490473	 0.3454986811	 0.119434
H	-0.1786870184	 2.0330166135	-0.7133866886	 0.119427
H	-0.401801957	 1.8634275836	 1.0333232586	 0.117166
H	-0.0270698154	-0.3844988895	 2.1832487792	 0.112791
H	 0.4931174818	-1.790276494	 1.234228763	 0.135542
H	 1.611906577	-0.4460513957	 1.5097228261	 0.119111
H	-1.8308759123	 0.1051540607	-1.0840085953	 0.11911
H	-1.5548073807	-1.4624246668	-0.308734925	 0.135541
H	-2.037087032	-0.0628216203	 0.6689481115	 0.112791
H	 1.8798557854	 1.1842796973	-2.1403795919	 0.118546
H	 2.7577947339	-0.8845468975	-3.7444026281	 0.130391
50.6169	145.9296	195.9047	221.8589	273.2897	281.407	326.6658	330.5353	331.429	422.1442	470.6466	587.3594	647.4567	739.777	815.9348	825.7956	917.2308	923.2324	933.581	938.579	951.7228	964.1285	996.692	1045.3459	1050.3272	1060.238	1163.6128	1220.4964	1226.5964	1246.8604	1296.056	1367.4113	1395.7666	1398.3099	1429.0162	1476.2864	1488.4621	1489.967	1501.283	1501.685	1505.1052	1528.6126	1622.5734	3033.4042	3035.5238	3041.1209	3103.9623	3105.6813	3107.9071	3111.4917	3122.0672	3126.0087	3242.0438	3287.6313
CC(C)(C)C1=CC=NO1	CC(C)(C)c1ccno1	
InChI=1S/C7H11NO/c1-7(2,3)6-4-5-8-9-6/h4-5H,1-3H3	InChI=1S/C7H11NO/c1-7(2,3)6-4-5-8-9-6/h4-5H,1-3H3
