17
gdb 131535	3.80974	1.38377	1.16004	3.0633	74.51	-0.2292	0.0313	0.2605	1056.9695	0.139536	-418.03395	-418.026763	-418.025819	-418.065776	27.931	
O	-0.0552316631	 1.3959863976	-0.007077297	-0.427588
C	-0.0023974703	-0.0199487727	 0.0503557166	 0.109879
C	 0.5551969357	-0.5234562685	 1.412415333	-0.188961
N	-0.6595150524	-0.7160332278	 2.1743736588	 0.056615
N	-0.8360168964	-0.9381359667	 3.4849015699	-0.303017
C	-2.1601460455	-1.0929106912	 3.5892220681	 0.012298
C	-2.8225838809	-0.9767940397	 2.3439944248	-0.397864
C	-1.8007896671	-0.7305596572	 1.4480933061	 0.423618
C	-1.4761044143	-0.5155944535	 0.0026709848	-0.361874
H	 0.8433432421	 1.7372286859	 0.044928283	 0.286442
H	 0.5877803943	-0.4216847468	-0.7833275159	 0.076468
H	 1.1089551475	-1.4648797511	 1.309889512	 0.120466
H	 1.2086646011	 0.21563745	 1.8846949874	 0.123468
H	-2.5975813766	-1.2778801329	 4.5598719689	 0.107592
H	-3.8787311174	-1.0528262962	 2.1444554333	 0.101652
H	-2.0949526305	 0.2394580837	-0.4872577278	 0.140226
H	-1.559622436	-1.4440165229	-0.574001746	 0.120581
76.8308	180.727	230.1271	300.9294	379.9371	391.1341	485.2654	647.9105	660.7254	666.9019	732.8263	783.6348	812.8204	873.432	883.75	901.7816	952.3692	961.5452	1021.1344	1055.0287	1098.1877	1112.2186	1182.2076	1207.1339	1220.3564	1232.4953	1294.9089	1304.5585	1339.403	1349.3023	1369.3757	1416.4519	1438.0074	1474.6918	1490.498	1520.6449	1583.889	3013.239	3032.0244	3045.0987	3089.315	3107.3983	3239.7373	3271.6838	3817.5606
OC1CN2N=CC=C2C1	O[C@H]1Cn2nccc2C1	
InChI=1S/C6H8N2O/c9-6-3-5-1-2-7-8(5)4-6/h1-2,6,9H,3-4H2	InChI=1S/C6H8N2O/c9-6-3-5-1-2-7-8(5)4-6/h1-2,6,9H,3-4H2/t6-/m1/s1
