21
gdb 90223	2.56238	1.65024	1.47827	1.8055	80.83	-0.2267	0.058	0.2848	1030.9342	0.182761	-387.018249	-387.010224	-387.00928	-387.050446	32.399	
C	 0.2823969568	 1.6187297138	-0.0879733103	-0.408793
C	 0.0024891752	 0.1315568634	 0.0694434865	-0.030979
C	 0.7450754577	-0.8413267167	-0.9367428	-0.322784
C	 1.343867987	-1.5762978986	 0.2859238192	 0.411366
C	 2.748066747	-1.2753501094	 0.8698818318	-0.294798
C	 2.0587207617	-0.2547479918	 1.8588919759	-0.30451
C	 0.6713152084	-0.6349859043	 1.2622407136	 0.186555
C	-0.0269151652	-1.9086204441	 1.7788988523	-0.152333
O	 0.6493083126	-2.7403191922	 0.7788520112	-0.340132
H	 1.3567913033	 1.8309171306	-0.1187274274	 0.114193
H	-0.1493225703	 1.9949663086	-1.0219414557	 0.116847
H	-0.148199925	 2.1949182569	 0.7383693583	 0.116541
H	-1.0806289973	-0.0303891058	 0.0661133434	 0.075466
H	 0.0978374579	-1.46005456	-1.5615610197	 0.111661
H	 1.4831465662	-0.3444761139	-1.5745079154	 0.097708
H	 3.2051622532	-2.1423602916	 1.3511502049	 0.114638
H	 3.4681717917	-0.8380261212	 0.1728183172	 0.099769
H	 2.1791170413	-0.4812996185	 2.9217382336	 0.103996
H	 2.3504104294	 0.7862580612	 1.7032256005	 0.10686
H	 0.2301694566	-2.218790071	 2.8000103268	 0.099083
H	-1.1175411383	-1.9443664555	 1.6594136232	 0.099648
79.2278	212.1877	241.1788	256.9213	296.6143	344.4811	352.2648	423.528	539.1809	644.143	697.7251	700.8979	717.9456	802.9688	845.4139	863.5773	882.1402	907.3111	920.6375	951.5854	968.4157	994.5291	1032.4417	1075.9332	1143.1459	1145.6175	1163.2057	1185.8844	1190.0553	1224.956	1239.4861	1249.1459	1257.8283	1261.1529	1282.9563	1287.3135	1341.5046	1352.7205	1411.56	1456.4158	1463.7656	1477.541	1494.2571	1501.785	1515.1848	3001.8136	3025.9805	3039.2078	3049.2054	3050.2702	3057.2886	3062.0568	3092.5214	3094.8796	3108.1858	3118.027	3126.8534
CC1CC23CCC12CO3	C[C@H]1C[C@@]23CC[C@@]12CO3	
InChI=1S/C8H12O/c1-6-4-8-3-2-7(6,8)5-9-8/h6H,2-5H2,1H3	InChI=1S/C8H12O/c1-6-4-8-3-2-7(6,8)5-9-8/h6H,2-5H2,1H3/t6-,7+,8-/m0/s1
