22
gdb 59966	2.91652	0.86107	0.78087	15.4536	82.5	-0.1631	-0.0042	0.1589	1560.8936	0.192533	-441.448746	-441.437845	-441.4369	-441.486336	38.552	
C	 0.0162726816	 1.464027287	-0.3240607028	-0.405106
C	-0.0359784278	-0.0401337189	-0.0703146942	-0.169193
C	 0.6773677009	-0.4845477483	 1.1806773346	-0.165935
N	 2.1878004182	-0.1314304599	 1.1822888315	-0.070907
H	 2.231021394	 0.8350571078	 0.849511122	 0.293596
C	 2.7724164219	-0.1862371249	 2.5519326188	-0.346156
C	 2.9570922887	-0.973051557	 0.2211033459	-0.348774
C	-1.5640673582	-0.5776948864	 0.0875114138	 0.371501
O	-2.3890046308	 0.0609871283	-0.5686505079	-0.449068
O	-1.6519709281	-1.5643418574	 0.8429657107	-0.480617
H	 0.9874597737	 1.8371352157	-0.6927235047	 0.055799
H	-0.747359121	 1.6923367407	-1.0711102403	 0.169546
H	-0.2447876004	 2.0293736374	 0.5800471593	 0.105633
H	 0.3523329165	-0.5820476137	-0.9434554197	 0.078913
H	 0.2743452794	 0.0225645831	 2.0609219408	 0.138438
H	 0.5909835155	-1.5604028073	 1.3287849442	 0.167801
H	 2.6533239612	-1.2012052983	 2.9339522686	 0.184236
H	 3.8307525186	 0.0792284659	 2.516940349	 0.16004
H	 2.2307757678	 0.5097191158	 3.1927505597	 0.179937
H	 3.9956901205	-0.6394287593	 0.1931888437	 0.157921
H	 2.9027169116	-2.0094235894	 0.5574424423	 0.180854
H	 2.5009396061	-0.8828015607	-0.7632296552	 0.191543
19.9681	59.1313	74.4407	144.7235	198.6379	212.2475	234.4183	246.6254	301.2226	344.1346	391.1477	418.8466	448.452	493.8395	612.3049	718.3704	781.6494	790.3842	868.7089	895.1777	910.485	1011.1964	1037.2389	1053.6901	1057.0254	1132.5532	1156.4351	1179.2604	1218.4936	1241.938	1263.1494	1304.185	1332.1113	1362.4082	1382.6978	1397.6533	1435.0333	1447.0346	1457.9705	1469.8556	1481.5498	1486.7896	1492.3436	1499.1826	1501.9945	1510.8977	1803.8575	2949.2102	3010.6843	3048.4594	3067.796	3075.0308	3083.9085	3125.579	3158.3504	3162.7946	3165.7574	3171.2057	3184.6923	3427.3178
CC(C[NH+](C)C)C([O-])=O	C[C@@H](C[NH](C)C)C(=O)[O]	
InChI=1S/C6H13NO2/c1-5(6(8)9)4-7(2)3/h5H,4H2,1-3H3,(H,8,9)	InChI=1S/C6H13NO2/c1-5(6(8)9)4-7(2)3/h5,7H,4H2,1-3H3/t5-/m0/s1
