18
gdb 32095	3.01334	1.16189	0.89806	3.5495	82.49	-0.2283	-0.0188	0.2094	1309.1889	0.149032	-402.015745	-402.007402	-402.006458	-402.049166	31.524	
C	-0.0725525713	 1.5622638879	 0.0047315155	-0.365893
C	 0.0152789676	 0.0259263675	 0.0135117908	-0.29345
C	 0.7371172093	-0.5117257004	 1.2261475916	 0.286511
C	 2.0994231865	-0.8165557298	 1.1845269222	-0.082467
N	 2.7976503941	-1.2621175198	 2.2318212098	-0.261367
C	 2.1597534633	-1.4298128528	 3.3860307182	-0.053387
C	 0.7957047207	-1.1627333644	 3.5426088867	 0.345802
O	 0.2421510643	-1.3784082046	 4.7666772963	-0.435185
C	 0.0807596021	-0.6973771836	 2.4435469508	-0.310196
H	 0.9258825027	 2.0100924988	 0.0116798024	 0.126811
H	-0.6001306794	 1.9175841312	-0.885858255	 0.115988
H	-0.607265896	 1.9316378373	 0.8857914152	 0.118187
H	-0.9962181589	-0.3951312163	-0.0283511003	 0.104032
H	 0.5314532519	-0.3119197448	-0.8918427603	 0.110123
H	 2.6512701011	-0.6972648833	 0.2544072452	 0.097008
H	 2.731394239	-1.7947000088	 4.2352887926	 0.113335
H	-0.6949960787	-1.1585677236	 4.73597373	 0.298597
H	-0.9830378783	-0.4840772807	 2.5326690984	 0.085551
46.2478	132.7538	212.5113	234.7958	300.4007	321.6124	357.07	438.7028	485.3434	533.3713	554.423	633.3819	725.195	743.3654	790.603	898.6282	913.9984	935.9418	954.4865	1005.8181	1035.3423	1079.1254	1083.9383	1170.1726	1193.7138	1216.8841	1273.998	1318.4675	1326.83	1356.8837	1359.5276	1410.3057	1479.5215	1486.4102	1496.9013	1507.1842	1512.9721	1623.4336	1637.0225	3032.5456	3036.2694	3069.7081	3108.0527	3112.9515	3140.6095	3146.7584	3165.8295	3817.3115
CCC1=CN=CC(O)=C1	CCc1cncc(O)c1	
InChI=1S/C7H9NO/c1-2-6-3-7(9)5-8-4-6/h3-5,9H,2H2,1H3	InChI=1S/C7H9NO/c1-2-6-3-7(9)5-8-4-6/h3-5,9H,2H2,1H3
