23
gdb 103070	2.0677	1.30594	1.10678	2.0314	82.86	-0.2314	0.0619	0.2934	1284.5023	0.202189	-425.415711	-425.404468	-425.403524	-425.45119	41.588	
C	-0.0547267814	 1.4879319975	 0.1227103559	-0.42121
C	 0.0405614855	-0.0151553623	-0.0151267648	-0.114375
C	 0.7112515678	-0.710722978	-1.2002214621	 0.232397
C	 0.0459181578	-1.9618846585	-1.7516770266	-0.456009
C	 1.3716940226	 0.1231059431	-2.2857110438	-0.446758
C	 1.3667537662	-0.7405344875	 0.1603861571	 0.390955
O	 2.528246581	 0.0385064504	 0.2872643602	-0.476824
C	 1.4589110324	-1.9830288892	 1.0121031786	-0.158117
O	 1.7133542292	-1.529081798	 2.3459439652	-0.434189
H	 0.9081563748	 1.9667093373	-0.0659267923	 0.130765
H	-0.7917019498	 1.9119150734	-0.5685355323	 0.110627
H	-0.3621448123	 1.7584715827	 1.1389151815	 0.11405
H	-0.8227678303	-0.5502123157	 0.3766846507	 0.071432
H	-0.6820684207	-1.6887717545	-2.5249255167	 0.115037
H	 0.7783580101	-2.6337110017	-2.2154782289	 0.112555
H	-0.492119751	-2.5273268606	-0.9864417158	 0.110224
H	 1.9401095844	 0.959171493	-1.8804082165	 0.13822
H	 2.0656092458	-0.4934889819	-2.8688654046	 0.110449
H	 0.6175898923	 0.5141942959	-2.9787525352	 0.107199
H	 2.6944306791	 0.0841306744	 1.2382473711	 0.287242
H	 0.5323956106	-2.5689777686	 0.9706902381	 0.09025
H	 2.286470399	-2.6152011376	 0.6575378361	 0.094251
H	 2.0688887967	-2.2631086638	 2.8542907152	 0.291829
90.8608	140.2763	143.2676	157.1098	183.5062	197.9084	219.1319	246.2222	271.1098	297.8608	323.8764	376.9304	399.8503	456.7135	485.839	558.9685	570.5009	688.2953	754.8062	816.0883	952.7653	965.1555	970.7267	1012.2201	1020.552	1041.96	1055.3058	1097.7193	1119.7999	1155.8067	1173.7573	1205.0115	1236.2594	1265.9295	1297.6696	1310.2148	1375.6745	1402.8575	1410.6726	1418.5158	1441.0306	1475.6019	1481.6734	1486.6512	1494.9505	1499.0366	1506.676	1508.749	1524.5148	2990.1321	3020.8481	3027.8454	3032.3309	3042.3623	3075.7723	3079.6742	3084.8085	3107.215	3113.9802	3130.9897	3154.5827	3762.522	3841.1382
CC1C(C)(C)C1(O)CO	C[C@H]1C(C)(C)[C@]1(O)CO	
InChI=1S/C7H14O2/c1-5-6(2,3)7(5,9)4-8/h5,8-9H,4H2,1-3H3	InChI=1S/C7H14O2/c1-5-6(2,3)7(5,9)4-8/h5,8-9H,4H2,1-3H3/t5-,7-/m0/s1
