18
gdb 35898	2.81488	1.56135	1.23906	0.8222	77.11	-0.2241	0.0436	0.2676	1045.3527	0.148403	-401.87461	-401.866757	-401.865812	-401.906993	30.719	
C	-0.2550839688	-1.2547490025	-0.3703349378	-0.492397
C	-0.1255026655	-0.076478144	-0.1718588872	 0.365664
C	 0.0039053685	 1.3578892317	 0.0736703275	-0.154561
C	-0.7232188012	 1.7808668923	 1.3736053414	-0.09517
O	 0.080955091	 1.5615619533	 2.5132211913	-0.234392
C	 1.1669338304	 2.4689206616	 2.5247191937	-0.115965
C	 2.0198087215	 2.3355820247	 1.278475277	-0.011983
C	 2.3975020372	 0.9879618954	 0.7918160833	-0.239559
N	 1.4267951662	 1.7927386115	 0.0420475097	-0.106067
H	-0.3676611112	-2.2952503965	-0.5505714251	 0.199987
H	-0.4899278977	 1.8829527881	-0.7554545115	 0.114921
H	-0.9905930471	 2.8476591432	 1.3029720249	 0.091838
H	-1.6390381426	 1.2000951541	 1.5018503175	 0.124311
H	 0.7885843123	 3.5020083321	 2.6075596246	 0.094703
H	 1.7543284523	 2.2522842163	 3.4227300938	 0.11841
H	 2.6936001986	 3.173944863	 1.1060691548	 0.092285
H	 3.3455266306	 0.8244788423	 0.2862970864	 0.113226
H	 2.0208166054	 0.1364544136	 1.3519262757	 0.134751
70.9986	148.246	207.4161	285.4198	361.183	373.0829	440.1246	456.0958	541.4958	618.6519	641.9112	655.2846	710.7203	790.7888	816.0288	830.9303	919.6419	940.4417	976.6998	982.9091	1078.5364	1093.2791	1105.9457	1120.5757	1128.2336	1162.4708	1170.9875	1261.2691	1273.405	1309.9616	1330.7271	1354.4598	1382.6885	1400.123	1427.6753	1487.2405	1499.4223	1505.4724	2235.5323	2961.9532	2973.3125	3007.2674	3074.5783	3107.3077	3108.4543	3112.8384	3196.0985	3503.5706
C#CC1COCC2CN12	C#C[C@H]1COC[C@H]2CN12	
InChI=1S/C7H9NO/c1-2-6-4-9-5-7-3-8(6)7/h1,6-7H,3-5H2	InChI=1S/C7H9NO/c1-2-6-4-9-5-7-3-8(6)7/h1,6-7H,3-5H2/t6-,7+,8?/m0/s1
