20
gdb 100337	2.51737	1.12102	0.95284	3.8912	75.3	-0.2828	0.0321	0.3149	1314.5933	0.167926	-440.298912	-440.288076	-440.287132	-440.334881	38.739	
C	 0.1049852039	 1.5358640103	 0.09671384	-0.401446
C	-0.018212454	 0.0111874682	 0.0376729115	-0.204154
C	-1.467386888	-0.5089834863	-0.0514290313	 0.334426
O	-2.2509225854	-0.0620142722	 1.0459937511	-0.460108
C	-2.2070655605	 0.031363849	-1.2816253495	-0.106682
O	-1.453023981	-0.321445938	-2.4321304861	-0.425914
C	-1.4261242726	-2.0625151474	-0.103820693	-0.383454
C	-2.7486253174	-2.6779036963	-0.0351550677	 0.273902
N	-3.7931287794	-3.1701979636	 0.0100805812	-0.319328
H	 1.1350550089	 1.8271428077	 0.3214757155	 0.114575
H	-0.1645838883	 1.9946579885	-0.8587121536	 0.129639
H	-0.5456421544	 1.9513018119	 0.8711284033	 0.126456
H	 0.5462935566	-0.3763259141	-0.8161175472	 0.122313
H	 0.4355146464	-0.428891439	 0.9374912921	 0.08317
H	-1.824696276	-0.34155093	 1.8633755881	 0.283976
H	-3.2147077503	-0.4036845371	-1.3022900451	 0.124087
H	-2.3120978921	 1.1188840756	-1.1776512199	 0.106142
H	-1.9853337842	-0.1390696126	-3.2110714169	 0.298247
H	-0.9414317305	-2.3707752545	-1.0353359018	 0.169069
H	-0.8182922218	-2.4452683203	 0.7246747894	 0.135082
56.1847	75.5907	128.0872	146.4504	217.9586	223.4311	233.3201	272.4016	294.812	332.8292	349.5284	395.021	414.5709	439.0022	518.073	619.7243	768.0452	783.1061	874.1214	907.9139	968.1627	994.8128	1025.145	1065.8783	1082.3867	1136.3927	1142.2468	1164.1082	1217.4769	1248.7181	1267.3569	1298.8564	1338.349	1375.6412	1395.9426	1408.1313	1453.3755	1461.0317	1485.6208	1496.7975	1508.2634	1531.553	2361.8426	3005.1449	3014.6368	3043.2106	3045.6985	3053.7496	3080.7715	3098.7347	3113.1214	3123.3404	3809.316	3845.0962
CCC(O)(CO)CC#N	CC[C@@](O)(CO)CC#N	
InChI=1S/C6H11NO2/c1-2-6(9,5-8)3-4-7/h8-9H,2-3,5H2,1H3	InChI=1S/C6H11NO2/c1-2-6(9,5-8)3-4-7/h8-9H,2-3,5H2,1H3/t6-/m0/s1
