18
gdb 36309	3.79134	1.00915	0.96962	5.3519	75.68	-0.2558	0.0401	0.2959	1262.256	0.1492	-401.948337	-401.940303	-401.939359	-401.981862	29.874	
N	 0.0501349611	-1.1517837657	 0.2012317992	-0.307589
C	 0.0113988487	-0.0044125118	 0.0702664859	 0.258879
C	-0.0237875417	 1.4469300565	-0.1095948863	-0.362994
C	 1.3704145209	 2.0533840104	-0.071004257	-0.044329
C	 1.6126545278	 3.5551850437	-0.1129415067	-0.114369
C	 0.4585014024	 4.5118803825	 0.1927206133	-0.259328
C	 0.3426568692	 4.4183452121	 1.7290295891	-0.065721
O	 0.8671850037	 3.1333264349	 2.0896491635	-0.256339
C	 1.8569448684	 2.784466721	 1.1571186351	 0.080849
H	-0.5257674128	 1.6612903596	-1.0605945751	 0.149316
H	-0.634660373	 1.8747007991	 0.6915217979	 0.164026
H	 2.1227995033	 1.4677412854	-0.5910225972	 0.109711
H	 2.432225878	 3.9092839872	-0.7263385759	 0.100846
H	 0.6925712266	 5.5277867737	-0.1345749636	 0.113095
H	-0.4738180384	 4.2191913559	-0.3015093755	 0.110545
H	 0.9337483271	 5.209996935	 2.2118947878	 0.104224
H	-0.6829221297	 4.4740825524	 2.1036883658	 0.114646
H	 2.8374750883	 2.5927335581	 1.58092332	 0.104534
43.601	111.6714	152.6353	213.0763	245.2543	384.4343	436.8124	522.3642	570.9634	647.3785	721.8791	778.6264	804.6953	857.2624	909.97	926.5426	943.4529	958.075	993.0324	1016.4421	1058.3358	1068.7533	1108.4446	1130.293	1141.8715	1202.5757	1222.2993	1243.7382	1250.843	1299.3794	1305.3425	1320.1602	1363.0338	1393.875	1427.1399	1461.6255	1498.6479	1520.8739	2363.2967	3000.7357	3039.3188	3049.7059	3087.7078	3092.2126	3104.2382	3152.9531	3161.1853	3184.4827
N#CCC1C2CCOC12	N#CC[C@H]1[C@H]2CCO[C@@H]12	
InChI=1S/C7H9NO/c8-3-1-5-6-2-4-9-7(5)6/h5-7H,1-2,4H2	InChI=1S/C7H9NO/c8-3-1-5-6-2-4-9-7(5)6/h5-7H,1-2,4H2/t5-,6+,7-/m0/s1
