18
gdb 53541	2.59219	0.95685	0.80239	1.707	86.55	-0.2458	0.0372	0.283	1502.2251	0.144665	-364.723862	-364.713697	-364.712753	-364.760982	35.825	
C	 0.1799806109	 1.4401656011	 0.4692586208	-0.496753
C	 0.0953147473	 0.0234426737	 0.1458372287	 0.070464
C	 0.0213212605	-1.1462474366	-0.1278818399	 0.084403
C	-0.0823812327	-2.568017415	-0.4410311591	-0.44855
C	-1.4583563762	-3.1634144208	-0.1164946555	 0.095307
C	-1.50036054	-4.5441599427	 0.4562027552	-0.273233
N	-1.8099098048	-3.3874702054	 1.3030032509	-0.324848
C	-2.5345962859	-2.7088915619	-0.9629591012	 0.359007
C	-3.4055160486	-2.3411501905	-1.7048573045	-0.450397
H	 0.9499428733	 1.6327945658	 1.2245475995	 0.146122
H	 0.4268221585	 2.0366524084	-0.4159066086	 0.148419
H	-0.7719508687	 1.811741473	 0.864073244	 0.152744
H	 0.1320026885	-2.7366714004	-1.5037647298	 0.139912
H	 0.6772084353	-3.129308201	 0.1193305579	 0.120099
H	-2.3469658789	-5.1859945762	 0.2338247537	 0.131445
H	-0.5520711269	-5.0612446194	 0.5830162618	 0.113832
H	-1.0100200726	-3.1422311653	 1.8830089458	 0.237105
H	-4.1846024889	-2.0088976068	-2.3451548597	 0.194922
18.5482	42.4735	77.9072	159.1319	208.5316	215.0574	265.501	337.649	365.3722	385.2229	456.5735	549.7711	559.0934	610.8483	652.4199	708.9028	772.7661	850.8117	893.6773	925.7272	963.5182	993.0834	1052.3113	1054.7316	1080.7378	1139.2955	1169.4314	1207.1171	1242.7743	1292.4214	1340.8945	1379.2908	1414.8919	1462.6514	1478.174	1478.5561	1506.5489	2241.7445	2376.3245	3012.9358	3027.1179	3050.4456	3087.3098	3089.351	3106.8838	3199.989	3491.7714	3504.2803
CC#CCC1(CN1)C#C	CC#CC[C@]1(CN1)C#C	
InChI=1S/C8H9N/c1-3-5-6-8(4-2)7-9-8/h2,9H,6-7H2,1H3	InChI=1S/C8H9N/c1-3-5-6-8(4-2)7-9-8/h2,9H,6-7H2,1H3/t8-/m0/s1
