14
gdb 127769	3.62685	1.69783	1.16503	7.4965	69.94	-0.2284	-0.0105	0.2179	974.7112	0.104075	-429.04254	-429.035525	-429.034581	-429.074073	26.033	
C	-0.0135677982	 1.4593814267	-0.0543959559	-0.351529
N	-0.0064599943	 0.0217211036	 0.0719406104	-0.123006
N	-0.0416613364	-0.7776722229	-1.0702678904	-0.156617
N	-0.0279002208	-2.0287769924	-0.7267956191	-0.274812
C	 0.0164681699	-2.0849767001	 0.6321076121	 0.321695
C	 0.029973455	-0.7976611158	 1.1348993117	 0.442448
N	 0.0743222362	-0.9085816735	 2.495901195	-0.425668
C	 0.0852180557	-2.290074731	 2.7297475668	 0.00736
N	 0.05134515	-3.0184219631	 1.6449027031	-0.317587
H	 0.8931003174	 1.8971011574	 0.3755924846	 0.142404
H	-0.0494474491	 1.6835705552	-1.1209402638	 0.176817
H	-0.8914890196	 1.8934357425	 0.4348663535	 0.14239
H	 0.0956445313	-0.1860707777	 3.1941915707	 0.275542
H	 0.1189673129	-2.667872379	 3.7413220014	 0.140563
116.8283	154.9919	247.6245	261.981	345.6606	387.9645	545.704	622.6355	626.859	663.8487	722.242	781.7881	819.4288	831.3362	935.7874	957.6772	1043.0636	1152.6989	1153.3737	1205.3507	1260.9342	1318.6324	1357.2497	1364.8695	1436.8951	1449.6877	1484.8167	1497.7917	1516.2662	1534.5133	1665.6196	3036.6391	3097.3568	3156.192	3250.4127	3679.0592
CN1N=NC2=C1NC=N2	Cn1nnc2c1[nH]cn2	
InChI=1S/C4H5N5/c1-9-4-3(7-8-9)5-2-6-4/h2H,1H3,(H,5,6)	InChI=1S/C4H5N5/c1-9-4-3(7-8-9)5-2-6-4/h2H,1H3,(H,5,6)
