18
gdb 36600	5.52715	0.81915	0.80536	1.372	79.58	-0.247	0.0286	0.2757	1446.1057	0.14663	-401.818707	-401.810306	-401.809362	-401.852754	31.469	
C	 0.0641080435	-1.17660982	 0.0012058594	-0.41192
C	 0.0536649269	 0.0239057385	-0.0059402036	 0.277515
C	 0.0058781713	 1.4783905135	-0.0151110421	-0.245555
O	 1.3284503751	 2.0040153372	 0.0101640289	-0.292783
C	 1.3774371984	 3.3842093379	 0.0028815162	 0.412808
C	 0.8509626856	 4.4209558522	 1.0334105305	-0.237337
N	 1.5774975337	 5.2891835618	-0.004222449	-0.137337
C	 2.6707475537	 4.2036916884	 0.0268956915	-0.22528
C	 0.8979363691	 4.4082024973	-1.0627193182	-0.237326
H	 0.0804230403	-2.238493932	 0.0077640412	 0.202877
H	-0.526067473	 1.8278184479	-0.9137863314	 0.128006
H	-0.5638039688	 1.8377572004	 0.8560964209	 0.128029
H	-0.2226837758	 4.6188354948	 1.0835980679	 0.102751
H	 1.3145985177	 4.4440391586	 2.0225845351	 0.10807
H	 3.2615255945	 4.2060302531	 0.9457665091	 0.108327
H	 3.3021099759	 4.1950301227	-0.8645371722	 0.108331
H	 1.4054107491	 4.4193568226	-2.0303435625	 0.108074
H	-0.1723278673	 4.6051846451	-1.1633554418	 0.102749
43.6753	75.9533	111.3107	217.7696	327.4273	375.4557	387.6968	470.9212	592.7446	593.1675	613.3118	677.893	691.9869	787.7836	794.8399	893.5736	945.826	962.7052	967.5109	994.3905	1022.9124	1031.6486	1033.1652	1061.9896	1152.1199	1170.6062	1173.6241	1189.2285	1190.7737	1200.3687	1252.6381	1253.568	1306.4839	1413.6837	1499.383	1507.5921	1510.9093	1565.9556	2249.8071	2976.9132	3001.6315	3054.3736	3057.4921	3066.9382	3124.4811	3129.265	3133.8701	3505.6397
C#CCOC12CN(C1)C2	C#CCO[C@@]12CN(C1)C2	
InChI=1S/C7H9NO/c1-2-3-9-7-4-8(5-7)6-7/h1H,3-6H2	InChI=1S/C7H9NO/c1-2-3-9-7-4-8(5-7)6-7/h1H,3-6H2
