15
gdb 24003	3.34638	1.43005	1.01483	5.2975	82.16	-0.2238	-0.0154	0.2084	1104.5674	0.115519	-379.694458	-379.687233	-379.686289	-379.72664	26.855	
N	-0.0155851878	-1.1943426779	-0.1140996789	-0.361256
C	-0.0582495836	-0.0386944424	-0.0229933336	 0.218173
C	-0.0936801869	 1.3646357581	 0.0906960162	 0.145925
C	-1.1545710606	 2.2680072541	-0.0477062089	-0.21987
C	-0.6842252967	 3.5911561868	 0.1617009549	-0.311359
C	 0.666664556	 3.453260109	 0.4258742519	 0.335118
C	 2.0864606511	 3.8876010031	 0.7543847519	-0.377928
C	 2.4270798162	 2.346993941	 0.6918133189	-0.170129
N	 1.000405008	 2.1452517244	 0.3814382401	-0.056445
H	-2.1684258781	 1.9792634361	-0.2795083672	 0.123083
H	-1.2705473733	 4.4946098313	 0.1195726959	 0.114489
H	 2.5893893027	 4.4937030105	-0.0025385697	 0.136618
H	 2.2328115402	 4.3441799579	 1.7358858732	 0.136626
H	 3.0983292647	 2.0410192652	-0.1137338724	 0.143466
H	 2.7393850281	 1.8908174328	 1.6338743977	 0.143489
89.2637	136.8446	138.5107	253.5056	416.5083	512.1185	559.549	597.7961	629.4743	651.7281	723.4426	768.3822	809.5585	833.2241	843.5477	899.5217	1038.0212	1052.6269	1059.3309	1141.7908	1147.2651	1177.0288	1226.0715	1235.887	1270.7947	1325.1827	1406.9042	1459.8385	1475.1737	1489.3126	1521.7925	1568.3956	2332.3456	3069.9597	3074.0232	3117.0621	3132.0623	3253.3681	3269.6764
N#CC1=CC=C2CCN12	N#Cc1ccc2CCn12	
InChI=1S/C7H6N2/c8-5-7-2-1-6-3-4-9(6)7/h1-2H,3-4H2	InChI=1S/C7H6N2/c8-5-7-2-1-6-3-4-9(6)7/h1-2H,3-4H2
