15
gdb 127692	3.19632	1.52406	1.04612	6.8564	75.47	-0.2286	-0.0588	0.1698	1084.5411	0.113738	-446.28675	-446.278562	-446.277618	-446.319945	30.125	
C	-0.0879886846	 1.4403051729	-0.0371625555	-0.344585
N	-0.025294222	-0.0058474949	 0.0563661073	-0.080002
N	 0.1973613724	-0.6581419087	-1.1469081322	-0.060129
N	 0.2450027789	-1.9021723761	-1.1618419542	-0.210609
C	 0.0396928929	-2.6693210126	 0.0494513076	 0.392511
N	-0.1375875394	-3.9275089059	-0.032833768	-0.504442
N	 0.0807940079	-2.0082789702	 1.2639469949	-0.346041
C	 0.0258194962	-0.7193960753	 1.2316788848	 0.496188
N	-0.0324991454	-0.0019634936	 2.3981860058	-0.574823
H	 0.8190833922	 1.9186179801	 0.3541187554	 0.137596
H	-0.1782988336	 1.6865909334	-1.0952248906	 0.172933
H	-0.9596864214	 1.8199335103	 0.5027999985	 0.155654
H	-0.0941628428	-4.193963115	-1.0176101633	 0.224648
H	 0.1427288148	-0.575958958	 3.2111218395	 0.277069
H	 0.3847300238	 0.9148407236	 2.4245402501	 0.264031
45.342	151.0508	181.896	201.51	321.1108	363.2821	390.7682	453.0653	515.1293	535.4695	570.5122	599.0202	722.0485	729.2743	786.2344	807.1357	891.0376	918.0589	951.464	1071.7142	1151.046	1185.8691	1222.1897	1287.7284	1329.9825	1428.1448	1474.239	1490.1962	1509.7651	1577.2593	1627.1295	1694.1658	1722.2987	3019.5385	3096.7357	3157.5986	3479.9371	3574.0974	3692.34
CN1N=NC(=N)N=C1N	CN1N=NC(=N[C@@H]1N)[NH]	
InChI=1S/C3H6N6/c1-9-3(5)6-2(4)7-8-9/h1H3,(H3,4,5,6)	InChI=1S/C3H7N6/c1-9-3(5)6-2(4)7-8-9/h3-4H,5H2,1H3/t3-/m0/s1
