23
gdb 109579	1.94268	1.47065	1.06479	2.4619	81.23	-0.2503	0.0589	0.3093	1261.4525	0.204452	-425.41124	-425.400862	-425.399918	-425.445836	39.233	
C	-0.9820145475	 0.5371609897	-1.5401647218	-0.437853
C	 0.066969284	-0.3842157236	-0.9313308956	 0.028148
C	 1.5443637646	-0.2426884418	-1.3807978804	 0.078535
O	 1.8017072065	 1.1077714035	-1.734798796	-0.425792
C	 1.9752245889	-0.6081078169	 0.0727514698	 0.003641
C	 3.2083896077	 0.0587665763	 0.6675420264	-0.437715
C	 0.5328860945	-0.2356777962	 0.5586606811	-0.052522
C	 0.3861635912	 1.1529241823	 1.1796594228	-0.085546
O	-0.9514558352	 1.4283186066	 1.581062579	-0.430204
H	-0.7107163805	 1.5907514764	-1.4315704766	 0.133072
H	-1.090903897	 0.3464224675	-2.6131727635	 0.117389
H	-1.9632191475	 0.3690854092	-1.0808446267	 0.112757
H	-0.2333845197	-1.4251245556	-1.093386446	 0.074241
H	 1.8854786719	-0.9173796226	-2.1787553038	 0.054141
H	 2.7512038125	 1.2091788234	-1.8543938659	 0.286685
H	 2.090570659	-1.6965597658	 0.1297277498	 0.072264
H	 3.1698105177	 1.1474924092	 0.5699407131	 0.123088
H	 3.3119286459	-0.1759146772	 1.7319751171	 0.12281
H	 4.1202468033	-0.2918937365	 0.1689227579	 0.107104
H	 0.0794978088	-0.9526987849	 1.2501346477	 0.066896
H	 0.9820314823	 1.2045095712	 2.0977970766	 0.101539
H	 0.7669440734	 1.9258312964	 0.4996347786	 0.105457
H	-1.4741620049	 1.5501797892	 0.7835573762	 0.281865
89.3348	134.8174	178.7246	210.6397	222.0007	228.4636	249.1131	254.1586	304.8327	308.3869	334.3389	431.427	470.2231	504.4586	581.2118	726.9736	739.9718	833.1518	872.7783	903.6351	970.1257	982.6728	987.7307	1008.6263	1055.2781	1068.8493	1120.01	1140.9846	1157.6739	1171.641	1190.0333	1216.6797	1231.4753	1268.7885	1296.2065	1313.3412	1337.8809	1358.9692	1384.3989	1399.2767	1403.0091	1404.7815	1420.0719	1424.5459	1495.2042	1497.6521	1503.8892	1507.8149	1519.5197	2990.8807	3019.749	3026.0395	3027.4559	3036.5853	3042.1643	3057.56	3072.8765	3087.6264	3087.6849	3108.7344	3112.4871	3819.9009	3838.4802
CC1C(O)C(C)C1CO	C[C@H]1[C@@H](O)[C@@H](C)[C@H]1CO	
InChI=1S/C7H14O2/c1-4-6(3-8)5(2)7(4)9/h4-9H,3H2,1-2H3	InChI=1S/C7H14O2/c1-4-6(3-8)5(2)7(4)9/h4-9H,3H2,1-2H3/t4-,5+,6+,7-
