19
gdb 53324	3.15653	1.03188	0.89416	1.6732	84.47	-0.2296	0.0278	0.2574	1381.446	0.157326	-385.820789	-385.811337	-385.810393	-385.85668	33.857	
C	 0.2197906022	 1.5793962937	-0.2165344996	-0.500722
C	 0.0951632758	 0.132871307	-0.1216739095	 0.107625
C	-0.014713941	-1.0634737184	-0.0318952303	 0.068887
C	-0.1136582964	-2.5110713542	 0.0247892527	-0.075343
O	 0.1653179077	-3.1117327867	 1.3320704627	-0.292089
C	-1.0163880142	-3.9154544661	 1.2274953421	 0.07347
C	-2.2541472917	-3.0756117155	 1.2515227249	-0.021056
C	-2.4102434342	-1.8140903086	 2.0705186299	-0.417014
C	-1.4693114997	-3.2268521036	-0.04271788	-0.165605
H	 0.8697007974	 1.9680384137	 0.5751967424	 0.154917
H	 0.6537679582	 1.8787765454	-1.1768272235	 0.150485
H	-0.7533684875	 2.0731259592	-0.1200870199	 0.150134
H	 0.5784072204	-2.9537858807	-0.7038250667	 0.107877
H	-0.9346467055	-4.9589861707	 1.5096462226	 0.100801
H	-3.1496442682	-3.6948890831	 1.2037105913	 0.088153
H	-1.4463051881	-1.3287578521	 2.2289960827	 0.145204
H	-3.0772062928	-1.0992912615	 1.5779357474	 0.114314
H	-2.8362129667	-2.052675808	 3.0512677812	 0.110573
H	-1.8994374755	-3.6238909497	-0.9522844502	 0.099387
18.4432	78.1555	97.3881	173.6362	208.6155	241.7887	294.3693	333.4492	412.6579	477.9586	514.2197	608.4381	724.4136	754.8593	809.725	844.7196	876.461	947.5436	976.9382	1000.5287	1036.8927	1050.3023	1053.9694	1057.1119	1066.9338	1087.7227	1131.7198	1189.4079	1204.4672	1248.395	1278.1587	1331.5174	1364.5387	1412.2525	1414.1879	1441.4473	1475.5396	1477.9324	1493.1838	1500.2251	2364.8894	3010.8528	3027.7168	3036.6756	3089.2971	3090.3305	3093.6097	3114.0225	3144.5301	3174.871	3201.0009	18.4517	78.1554	97.3881	173.6359	208.6155	241.7886	294.3688	333.4485	412.6571	477.9584	514.2193	608.438	724.4135	754.8593	809.725	844.7197	876.4611	947.5436	976.9381	1000.5288	1036.8928	1050.302	1053.9692	1057.1121	1066.9338	1087.7228	1131.7198	1189.4078	1204.4675	1248.3952	1278.1589	1331.5177	1364.5388	1412.2525	1414.1878	1441.4475	1475.5392	1477.9321	1493.184	1500.2252	2364.8891	3010.8529	3027.7168	3036.6756	3089.2972	3090.3306	3093.6096	3114.0225	3144.5301	3174.8711	3201.0009
CC#CC1OC2C(C)C12	CC#C[C@H]1O[C@H]2[C@@H](C)[C@@H]12	
InChI=1S/C8H10O/c1-3-4-6-7-5(2)8(7)9-6/h5-8H,1-2H3	InChI=1S/C8H10O/c1-3-4-6-7-5(2)8(7)9-6/h5-8H,1-2H3/t5-,6+,7-,8-/m0/s1
