20
gdb 85175	2.31044	1.39517	0.95223	2.7506	80.47	-0.257	0.0298	0.2868	1270.676	0.170803	-403.141084	-403.132137	-403.131192	-403.175345	33.407	
C	-0.3806612203	 1.4159596454	 0.0231852301	-0.402238
C	 0.0975910613	-0.01866273	 0.0351875807	 0.125754
O	 1.2885853122	-0.2060633929	-0.8086087186	-0.272481
C	 2.0389750191	-0.6440756368	 0.2612143104	 0.421775
N	 3.2463475808	-0.9767669487	 0.3287954407	-0.545588
C	 0.8971146928	-0.5575783837	 1.2608018477	-0.168432
C	 1.0909185441	 0.2955435811	 2.4848832235	 0.028411
C	 0.1334662096	 0.1772878603	 3.6489389721	-0.2797
C	 1.5416616432	-0.343765488	 3.7734715351	-0.263775
H	 0.4167708143	 2.1047167914	 0.3136894534	 0.128698
H	-0.7216736848	 1.6915830623	-0.9790785008	 0.130386
H	-1.2177436307	 1.5402880634	 0.7174243975	 0.128492
H	-0.6908386398	-0.6967703407	-0.3063115194	 0.090817
H	 3.7031173678	-0.8954080198	-0.5816660228	 0.224512
H	 0.5561775715	-1.5547553957	 1.5575924801	 0.098533
H	 1.4882359503	 1.2870561048	 2.2920671202	 0.08914
H	-0.133914718	 1.0807373798	 4.185395764	 0.114721
H	-0.6715430841	-0.5466114506	 3.5729294199	 0.11063
H	 1.6919827153	-1.4177232085	 3.7785994314	 0.121879
H	 2.2430206853	 0.2032219469	 4.3926855248	 0.118465
61.9753	82.6419	133.2235	186.3768	215.9354	281.3565	330.309	379.7525	452.6925	523.559	623.2911	726.7313	766.0195	810.461	837.5441	866.8071	872.9131	889.3676	920.1206	958.8866	1018.9147	1033.9322	1043.8935	1061.7521	1069.106	1080.1679	1135.2087	1152.6359	1193.6582	1197.7681	1222.4763	1230.4934	1240.4403	1297.0039	1339.7599	1382.8478	1411.0267	1432.4105	1471.5833	1481.0183	1495.6678	1506.3517	1819.2941	3043.3708	3051.2915	3064.9657	3115.0591	3124.8241	3131.0889	3141.1507	3155.5696	3210.8983	3228.3106	3469.7874
CC1OC(=N)C1C1CC1	C[C@H]1O[C]([NH])[C@H]1C1CC1	
InChI=1S/C7H11NO/c1-4-6(5-2-3-5)7(8)9-4/h4-6,8H,2-3H2,1H3	InChI=1S/C7H11NO/c1-4-6(5-2-3-5)7(8)9-4/h4-6,8H,2-3H2,1H3/t4-,6-/m1/s1
