19
gdb 51794	4.11415	0.93317	0.83218	2.7774	75.62	-0.2479	-0.022	0.2259	1373.9679	0.159335	-423.031227	-423.022895	-423.021951	-423.065209	30.837	
O	-0.0344419719	-0.0898226582	-0.2914661986	-0.240557
C	 0.0644890165	 1.092706646	-0.0834920492	 0.154689
C	 1.3531923554	 1.8762455155	-0.1750976091	-0.288848
C	 1.3205761238	 2.9500774667	-1.2819992735	-0.015395
C	 0.2334561119	 4.0463728582	-1.0977200177	-0.236164
C	 0.8057713144	 5.328176661	-1.7503656215	-0.248411
C	 2.3057423226	 5.1574156254	-1.6251086906	 0.051053
O	 2.7298316943	 4.7305554274	-0.3196008228	-0.263477
C	 2.6119711738	 3.7487424627	-1.3593863039	 0.037164
H	-0.8310083614	 1.696405869	 0.1917670058	 0.075326
H	 1.5228220104	 2.3831426357	 0.7847926039	 0.130102
H	 2.1694963253	 1.1677328499	-0.3452281201	 0.117573
H	 1.1856202278	 2.4502692263	-2.2511197706	 0.08892
H	-0.7283227345	 3.7563818254	-1.5268319331	 0.106791
H	 0.0758168304	 4.2232020097	-0.0305936086	 0.118245
H	 0.5465492957	 5.3873775322	-2.8146016798	 0.107444
H	 0.438017469	 6.2410667715	-1.2723034617	 0.113415
H	 2.9938031096	 5.8215411943	-2.1419141351	 0.096536
H	 3.5414869968	 3.2706512614	-1.6601239339	 0.095593
52.1908	78.6458	132.189	191.5774	260.2749	361.9194	396.7775	435.9626	546.2916	649.5151	670.3963	815.1994	823.6331	841.8087	859.9499	877.5952	933.7917	958.4987	987.4939	1017.094	1034.8651	1052.4201	1092.4999	1116.9693	1129.2419	1180.0042	1220.4674	1238.8746	1259.5701	1281.8753	1311.8833	1326.3191	1332.8847	1346.0559	1373.6982	1432.865	1440.0929	1468.4123	1482.6364	1496.823	1831.8718	2864.5966	3014.0083	3026.1762	3038.2761	3066.7331	3087.1484	3095.9749	3113.8796	3138.3808	3153.6436
O=CCC1CCC2OC12	O=CC[C@H]1CC[C@H]2O[C@@H]12	
InChI=1S/C7H10O2/c8-4-3-5-1-2-6-7(5)9-6/h4-7H,1-3H2	InChI=1S/C7H10O2/c8-4-3-5-1-2-6-7(5)9-6/h4-7H,1-3H2/t5-,6-,7+/m1/s1
