16
gdb 20825	3.27988	1.78936	1.26076	3.4626	66.57	-0.2301	0.0075	0.2377	964.1134	0.1314	-379.923385	-379.91557	-379.914625	-379.955696	28.767	
C	-0.1404624757	 1.5447027516	-0.0068212632	-0.371101
C	 0.0528716805	 0.0174553179	-0.0208103527	-0.320972
C	 0.7522255261	-0.5129487725	 1.1936597106	 0.11023
C	 2.0376073588	-0.9179670089	 1.3513472559	-0.00034
O	 2.2751020764	-1.3356668488	 2.6013093211	-0.176613
N	 1.0973076343	-1.2029267741	 3.3474361973	-0.227925
C	 0.2068331716	-0.7281045643	 2.5046678046	 0.335389
N	-1.1176697307	-0.5601933638	 2.8801424402	-0.590219
H	 0.8241757258	 2.0591968725	 0.0347700886	 0.126538
H	-0.6700244536	 1.8791124695	-0.9042084344	 0.11879
H	-0.7211022158	 1.8726184126	 0.8625733588	 0.110598
H	-0.9250618306	-0.4714504121	-0.1141175887	 0.116841
H	 0.6201752029	-0.2634245965	-0.914571184	 0.111851
H	 2.8737736808	-0.973234783	 0.6698958219	 0.14254
H	-1.2471284863	-0.6245746616	 3.8815787383	 0.260358
H	-1.5526880445	 0.2708007914	 2.5052223457	 0.254034
71.614	147.8889	182.9227	265.3706	278.9417	301.3101	430.825	451.4896	592.3812	621.5515	685.3241	730.0014	767.258	793.6373	847.749	913.2134	941.0734	968.6952	1065.6279	1087.2512	1135.3953	1173.7055	1234.1674	1275.0761	1330.0439	1362.1951	1410.4143	1469.7254	1482.8526	1494.4029	1503.438	1544.6457	1639.9661	1677.7506	3028.3428	3033.5337	3067.7183	3100.6548	3114.357	3251.6641	3552.4064	3651.143
CCC1=CON=C1N	CCc1conc1N	
InChI=1S/C5H8N2O/c1-2-4-3-8-7-5(4)6/h3H,2H2,1H3,(H2,6,7)	InChI=1S/C5H8N2O/c1-2-4-3-8-7-5(4)6/h3H,2H2,1H3,(H2,6,7)
