17
gdb 108099	2.63651	1.48308	1.22613	2.7054	68.	-0.2379	0.0622	0.3001	1059.1401	0.135002	-458.878386	-458.870233	-458.869289	-458.911337	31.157	
O	 0.0432940964	 1.2445490571	-0.4625549721	-0.411854
C	-0.0955148405	-0.0055750286	 0.1961013834	-0.198606
C	-1.4784297983	-0.5535359852	 0.1054554275	 0.396355
O	-2.5214080131	 0.0834543953	 0.8494127925	-0.328965
C	-3.3732258719	-1.0412067532	 0.5005842636	-0.009587
C	-3.6239537854	-0.8495480166	-1.0166743177	-0.230643
C	-2.1366835128	-1.1487445366	-1.1844073482	-0.229946
C	-2.0779221198	-1.9099455635	 0.1366842093	 0.251011
O	-1.5634489871	-3.1148540172	 0.5240599898	-0.448969
H	-0.6150335323	 1.8364669692	-0.0827017802	 0.292748
H	 0.5993658117	-0.6977069532	-0.2898020833	 0.121402
H	 0.1932497009	 0.0668218278	 1.2556221569	 0.105857
H	-4.1616853689	-1.2337864288	 1.2248765086	 0.091329
H	-4.2502700023	-1.6424417226	-1.4349440285	 0.099336
H	-4.0017483315	 0.1337089402	-1.3112816166	 0.105416
H	-1.5549683894	-1.2975934229	-2.0852218477	 0.100863
H	-1.9454850157	-3.8088158711	-0.0260363573	 0.294256
62.7777	115.3751	226.6168	270.4611	294.5354	354.2009	359.5152	410.0817	492.4112	582.0924	608.4295	697.6645	775.0436	806.9186	847.1156	895.9602	920.7376	934.5891	968.7129	1005.0297	1015.6032	1051.8314	1067.2764	1106.6634	1131.009	1132.1092	1213.6742	1230.6371	1260.5753	1289.9334	1303.9452	1332.7803	1378.89	1425.0002	1486.7812	1487.0909	1528.6575	2994.2023	3052.658	3084.6012	3111.1129	3148.8585	3204.4773	3781.2409	3811.0184
OCC12OC3CC1C23O	OC[C@@]12O[C@H]3C[C@@H]1[C@@]23O	
InChI=1S/C6H8O3/c7-2-5-3-1-4(9-5)6(3,5)8/h3-4,7-8H,1-2H2	InChI=1S/C6H8O3/c7-2-5-3-1-4(9-5)6(3,5)8/h3-4,7-8H,1-2H2/t3-,4-,5+,6-/m0/s1
