22
gdb 103898	2.29626	1.11146	1.02047	3.3342	83.38	-0.2432	0.0272	0.2704	1348.7535	0.192631	-404.370729	-404.360327	-404.359383	-404.406675	37.84	
C	 0.1700479566	 1.3140022552	 0.0024036359	-0.387142
C	-0.1008661119	-0.1615175835	 0.3212099507	-0.238408
C	-1.5269006771	-0.6036435211	 0.0307476104	 0.376342
C	-2.6005197861	 0.0463070491	 0.8831336673	-0.462518
C	-1.8792566282	-0.9647013448	-1.3983887442	-0.374452
C	-1.7803815581	-2.0478873678	-0.3549052928	-0.011945
N	-0.7084863815	-2.9960725435	-0.4471401501	-0.28073
C	-0.1741818983	-3.6005301912	 0.6510451907	 0.150167
O	-0.4511067118	-3.3274516223	 1.7984239222	-0.320319
H	 1.2195206021	 1.5630227192	 0.1877660347	 0.112004
H	-0.0474766068	 1.5384127153	-1.0476739002	 0.111978
H	-0.4384290695	 1.9841102631	 0.6175378001	 0.118226
H	 0.5898229979	-0.7847660472	-0.256002146	 0.089034
H	 0.1189078141	-0.3628305313	 1.3766210065	 0.116037
H	-2.639941238	 1.1290951884	 0.7249522394	 0.117692
H	-3.591964668	-0.3541257046	 0.6488222893	 0.110225
H	-2.4093010869	-0.1353276817	 1.9465494937	 0.131264
H	-2.8618423787	-0.7189765428	-1.7868968745	 0.113871
H	-1.0828387182	-0.9139875631	-2.1352208168	 0.108162
H	-2.712325241	-2.4725943335	 0.0119393585	 0.102219
H	-0.4793156566	-3.3785447416	-1.3517509637	 0.24716
H	 0.565867946	-4.3784400403	 0.371980479	 0.071134
37.8643	81.6258	110.36	158.6803	208.0142	222.6247	253.9083	277.0059	306.4904	368.853	412.8835	437.0275	507.8145	583.2739	683.7946	780.0003	793.7417	831.2076	873.1811	910.0207	960.2049	1021.0811	1027.7401	1034.8547	1053.0555	1065.1307	1086.6955	1120.125	1137.8557	1146.2534	1238.527	1264.5542	1314.8857	1333.956	1378.3926	1409.8167	1413.9885	1419.8421	1430.6239	1479.8757	1485.3165	1495.8552	1501.0755	1502.1151	1506.4415	1511.2677	1809.0021	2924.0155	3028.9092	3034.0281	3037.3308	3072.427	3095.4964	3099.1219	3101.4919	3108.1829	3120.9294	3123.1814	3208.2868	3614.7804
CCC1(C)CC1NC=O	CC[C@@]1(C)C[C@H]1NC=O	
InChI=1S/C7H13NO/c1-3-7(2)4-6(7)8-5-9/h5-6H,3-4H2,1-2H3,(H,8,9)	InChI=1S/C7H13NO/c1-3-7(2)4-6(7)8-5-9/h5-6H,3-4H2,1-2H3,(H,8,9)/t6-,7+/m1/s1
