18
gdb 93989	2.62009	1.36249	1.07495	3.1347	73.79	-0.2462	-0.0316	0.2146	1162.9903	0.147803	-439.145474	-439.136493	-439.135549	-439.180078	31.496	
C	-0.1127986401	 1.3466199852	-0.1823825007	-0.345992
N	 0.0062951869	-0.0844783088	-0.0254491642	-0.064821
C	-1.0962456216	-0.9910429635	-0.3016278047	-0.169546
C	-0.5690175621	-2.3785596108	 0.1351283063	-0.249072
C	 0.9526801677	-2.216057516	 0.1893568106	-0.215046
C	 1.6948783976	-2.7850191376	-1.0120716049	 0.147334
O	 1.1700213377	-3.3908037742	-1.9102503504	-0.239197
C	 1.1998107702	-0.6943023498	 0.2255719966	 0.39011
O	 2.2693383393	-0.1503081518	 0.4108239151	-0.39538
H	 0.8562647678	 1.7891424404	 0.0536922377	 0.167138
H	-0.3894155902	 1.6114890837	-1.2110527614	 0.12785
H	-0.8742901551	 1.7521868524	 0.4940194905	 0.126624
H	-1.9896532143	-0.6911617995	 0.2581661045	 0.112344
H	-1.3557876983	-0.9682902156	-1.3693237627	 0.118782
H	-0.9604302064	-2.6387170838	 1.1207167777	 0.114916
H	-0.8568877959	-3.1591890779	-0.5703961641	 0.138727
H	 1.4224403155	-2.6447326938	 1.0817152648	 0.124765
H	 2.7856555913	-2.5821872688	-1.0005391006	 0.110465
46.2924	97.9649	139.9664	153.6689	185.1413	241.9388	288.5243	306.197	465.7222	564.107	636.2504	696.9215	720.3655	775.635	811.014	921.7501	947.9073	1005.0609	1017.2895	1088.1371	1096.2413	1129.4706	1152.6969	1201.6135	1221.2122	1256.4736	1290.1884	1297.5703	1336.4577	1343.1874	1408.7356	1435.4654	1453.7598	1488.157	1492.0644	1513.8399	1545.4858	1796.9034	1828.7766	2928.0918	3005.0505	3016.0708	3047.6134	3055.2741	3067.1104	3081.943	3133.362	3145.4863
CN1CCC(C=O)C1=O	CN1CC[C@@H](C=O)C1=O	
InChI=1S/C6H9NO2/c1-7-3-2-5(4-8)6(7)9/h4-5H,2-3H2,1H3	InChI=1S/C6H9NO2/c1-7-3-2-5(4-8)6(7)9/h4-5H,2-3H2,1H3/t5-/m0/s1
