17
gdb 45635	3.5859	0.95486	0.81756	2.6217	80.35	-0.2421	-0.0172	0.225	1383.6396	0.134062	-384.691535	-384.682854	-384.68191	-384.725747	32.175	
O	 0.0952358932	 0.0566988036	 0.1414209764	-0.300235
C	 0.000623301	 1.2529939542	 0.0770305913	 0.39682
C	-1.2917792123	 2.0431714223	-0.1960177109	-0.365812
C	-0.8271612239	 3.4727774745	-0.1938046755	-0.183404
C	 0.4822974751	 3.597009257	 0.0399146111	 0.335925
C	 1.2553975536	 4.8908532292	 0.0924232556	-0.454376
C	 1.9523420427	 5.0867311162	 1.363323687	 0.309945
C	 2.5208925938	 5.2264892012	 2.4127094265	-0.458623
C	 1.1484651723	 2.2604673939	 0.2462908078	-0.416953
H	-1.7355713386	 1.7188496151	-1.1462231204	 0.137436
H	-2.0369809438	 1.8194202593	 0.5786664733	 0.139524
H	-1.49916025	 4.3074657742	-0.3623149054	 0.09794
H	 1.9963455261	 4.9082667776	-0.7207151555	 0.13958
H	 0.5765560751	 5.7319921374	-0.0924071259	 0.137432
H	 3.0243135629	 5.3609228132	 3.3379651407	 0.200865
H	 1.6055212799	 2.1568033365	 1.2383715126	 0.149819
H	 1.9461791728	 2.0490588148	-0.4784294986	 0.134117
54.2663	66.2329	112.8225	246.3698	278.5393	341.9568	399.8499	456.5206	483.513	484.0003	609.1708	623.5382	647.6793	697.8785	784.4467	805.8605	845.3541	877.9999	938.9807	958.207	1004.3124	1008.8302	1121.4278	1125.9114	1169.4731	1181.2782	1214.0031	1274.8133	1284.5136	1327.913	1360.5447	1439.7783	1445.0068	1458.7453	1712.9162	1856.0086	2239.0174	2998.8797	3024.4594	3027.5691	3052.648	3053.3282	3058.7598	3187.3064	3505.7465
O=C1CC=C(CC#C)C1	O=C1CC=C(CC#C)C1	
InChI=1S/C8H8O/c1-2-3-7-4-5-8(9)6-7/h1,4H,3,5-6H2	InChI=1S/C8H8O/c1-2-3-7-4-5-8(9)6-7/h1,4H,3,5-6H2
