19
gdb 89659	2.98162	1.24502	1.05361	1.243	84.83	-0.2134	0.0423	0.2558	1207.1091	0.156568	-385.832153	-385.822714	-385.821769	-385.865873	35.96	
C	-0.1678593436	 1.5674879142	 0.0240392985	-0.41864
C	 0.0705646749	 0.0629772766	-0.0187017688	-0.007146
C	 1.1973735248	-0.5232763913	-0.9376738992	-0.313357
C	 1.7883490326	-1.2860137847	 0.2590509744	 0.134143
C	 2.1549685539	-0.2684935689	 1.3417587399	-0.406638
C	 0.716803341	-0.6160158328	 1.1850456223	 0.360929
O	-0.0871569636	-1.12065473	 2.1814652422	-0.452519
C	 2.3089214779	-2.6050154852	 0.2442940453	 0.148029
C	 2.7257091466	-3.7356783891	 0.2297005067	-0.405578
H	 0.7566080366	 2.1177407823	 0.2291008505	 0.112941
H	-0.5619077446	 1.9274214657	-0.9322792227	 0.117517
H	-0.8930420469	 1.8253260741	 0.8028933632	 0.125024
H	-0.8686697003	-0.4559239358	-0.234185495	 0.091597
H	 0.8160775872	-1.1788271502	-1.7216619991	 0.116138
H	 1.8706066739	 0.2156138251	-1.3860961749	 0.096236
H	 2.6405104516	-0.7146759357	 2.2060216235	 0.118105
H	 2.55868938	 0.7040975668	 1.0630849527	 0.111608
H	 0.4415571187	-1.281286793	 2.9691085375	 0.291398
H	 3.0989007793	-4.7290852283	 0.213745153	 0.180213
102.2406	115.519	161.565	182.5474	214.7936	250.3094	336.1516	343.2782	443.0706	445.6444	524.4916	530.605	549.3503	624.5995	643.5301	700.0832	735.3993	780.9939	843.1483	894.4024	943.1924	959.6172	1023.6783	1078.4845	1084.7823	1110.0281	1121.6939	1164.4207	1179.872	1234.7619	1246.8934	1319.0129	1343.6919	1398.3033	1413.3982	1414.6419	1482.1555	1497.1162	1497.6364	1507.7705	2223.3858	3031.1258	3043.4216	3058.7883	3087.7973	3099.1154	3102.4824	3122.1594	3181.0201	3504.5345	3828.8672
CC1CC2(CC12O)C#C	C[C@H]1C[C@]2(C[C@@]12O)C#C	
InChI=1S/C8H10O/c1-3-7-4-6(2)8(7,9)5-7/h1,6,9H,4-5H2,2H3	InChI=1S/C8H10O/c1-3-7-4-6(2)8(7,9)5-7/h1,6,9H,4-5H2,2H3/t6-,7-,8+/m0/s1
