18
gdb 28443	3.0718	1.3118	0.92533	1.1663	84.66	-0.1924	0.0176	0.21	1237.6501	0.148869	-402.025589	-402.017114	-402.01617	-402.057978	33.622	
C	-0.028774979	 1.5240929081	-0.0118895867	-0.516842
C	 0.0086459826	 0.0176447862	-0.0015700656	 0.247089
C	-0.0135916739	-0.7191363952	-1.1816640338	-0.164979
C	 0.0348855277	-2.1108840818	-1.1952605072	-0.293753
C	 0.1080643835	-2.7918422651	 0.0188052482	 0.397927
O	 0.1582421923	-4.1545150342	 0.0972314151	-0.448396
C	 0.1267968362	-2.0852208189	 1.217591736	-0.279475
C	 0.0801491459	-0.6889297203	 1.2190236253	 0.254181
N	 0.1650570333	 0.0096319488	 2.4262732163	-0.591523
H	 0.8370222679	 1.9568440073	 0.5049989435	 0.13143
H	-0.0317263992	 1.9066112476	-1.0356439607	 0.122663
H	-0.9265796941	 1.9235619912	 0.482280024	 0.115097
H	-0.0689813678	-0.185670083	-2.1264802475	 0.084387
H	 0.0181279942	-2.656622276	-2.1340978901	 0.074239
H	 0.1374127113	-4.5147460258	-0.7951036373	 0.29386
H	 0.1817652537	-2.6383050492	 2.1496078422	 0.084482
H	-0.0782107883	-0.534212846	 3.2414232422	 0.244457
H	-0.2941447162	 0.9083680261	 2.4337997061	 0.245155
139.8799	177.9702	224.6854	294.3939	314.5348	329.059	356.7918	362.4391	452.6483	462.5178	505.6101	568.924	604.3727	659.5603	728.9438	747.7295	764.678	774.3291	857.0622	909.4648	974.666	1015.0252	1059.8512	1097.2183	1159.2682	1185.6019	1224.3984	1241.8309	1318.8119	1342.7727	1371.6203	1414.455	1483.2576	1483.8166	1514.0963	1548.1509	1628.8978	1653.4474	1673.044	2997.8329	3048.7525	3111.0277	3155.881	3173.1512	3180.3323	3564.9101	3663.2147	3824.8204
CC1=CC=C(O)C=C1N	Cc1ccc(O)cc1N	
InChI=1S/C7H9NO/c1-5-2-3-6(9)4-7(5)8/h2-4,9H,8H2,1H3	InChI=1S/C7H9NO/c1-5-2-3-6(9)4-7(5)8/h2-4,9H,8H2,1H3
