20
gdb 104512	2.49968	1.15468	0.91129	4.9732	79.31	-0.2757	0.0296	0.3053	1342.583	0.168564	-403.15723	-403.147081	-403.146137	-403.192964	36.336	
C	 0.8919741826	-0.1353348721	 0.1366310565	-0.392278
C	 0.1128498886	-0.6618643007	-1.0757510029	-0.270376
C	-1.3397103663	-0.9843052866	-0.7783381954	 0.387375
C	-2.2320046917	 0.2064805901	-0.4084308825	-0.407064
C	-2.200816584	 1.2762555698	-1.4060582271	 0.273109
N	-2.1596008937	 2.1223300977	-2.1918912497	-0.311506
O	-1.973690894	-1.9076045954	-1.6691298395	-0.292907
C	-1.7880679627	-2.3093944615	-0.3038749481	 0.023352
C	-0.8967027744	-3.4941874022	-0.0339811736	-0.428355
H	 1.9371734894	 0.0431900364	-0.130410387	 0.127835
H	 0.4861379593	 0.8130061775	 0.5030192884	 0.125357
H	 0.8750827102	-0.8509164523	 0.9653781791	 0.119128
H	 0.1400483167	 0.0780959608	-1.8844024953	 0.134779
H	 0.5904371832	-1.5610048688	-1.4716472978	 0.115468
H	-3.2635089186	-0.1412766825	-0.3005012913	 0.159375
H	-1.9252153654	 0.625842567	 0.5565034645	 0.154992
H	-2.7205949588	-2.325413789	 0.2666943591	 0.085572
H	 0.0419363317	-3.4415578329	-0.5875059202	 0.13286
H	-0.6711316679	-3.5628096549	 1.0356094999	 0.125704
H	-1.4092558642	-4.4166410605	-0.3258975969	 0.137582
39.4026	77.1318	125.3659	159.4737	192.2468	224.2004	253.1915	293.9347	360.6906	386.7885	411.534	460.1075	484.6358	596.6225	722.5575	778.825	801.0268	893.2612	917.1028	946.1565	991.8448	1005.0289	1012.8224	1076.9013	1126.4548	1135.0103	1170.6494	1216.3465	1252.6806	1288.5838	1311.2037	1356.8381	1388.9484	1411.7699	1416.0531	1449.3887	1467.8975	1483.035	1498.9442	1502.6949	1505.3513	1516.7265	2362.3673	3037.9446	3042.6299	3049.6127	3051.2254	3069.4604	3093.4261	3099.6284	3102.387	3112.2867	3116.1083	3144.3476
CCC1(CC#N)OC1C	CC[C@@]1(CC#N)O[C@H]1C	
InChI=1S/C7H11NO/c1-3-7(4-5-8)6(2)9-7/h6H,3-4H2,1-2H3	InChI=1S/C7H11NO/c1-3-7(4-5-8)6(2)9-7/h6H,3-4H2,1-2H3/t6-,7-/m0/s1
