19
gdb 90261	3.4682	1.47927	1.24005	1.949	74.69	-0.2381	0.0624	0.3005	1050.1551	0.15941	-422.966137	-422.958491	-422.957547	-422.998171	30.22	
C	-0.1117680756	 1.5285954174	-0.060176158	-0.402086
C	 0.0472638572	 0.026795329	 0.0482393001	 0.114493
O	 1.0724245275	-0.4951389799	-0.8676797499	-0.338078
C	 1.8239413471	-0.970992161	 0.2216141998	 0.419881
C	 2.7678273987	-2.1521560417	 0.3107162599	-0.177258
O	 3.5296967496	-1.4412651215	 1.3270100536	-0.296154
C	 2.8772714297	-0.1748844348	 1.0429550697	 0.04887
C	 1.8014023104	 0.2134687425	 2.0882593879	-0.270119
C	 0.760135784	-0.6153324028	 1.2819951936	-0.154965
H	 0.8302623278	 2.0509622237	 0.127343356	 0.125261
H	-0.4508169917	 1.7957248028	-1.0656447174	 0.131649
H	-0.8576773447	 1.8865975069	 0.6578975764	 0.121036
H	-0.9060119718	-0.4684280434	-0.1702206104	 0.08675
H	 2.3719331231	-3.1073000655	 0.673806763	 0.107005
H	 3.3647420748	-2.3204699938	-0.5964995203	 0.109505
H	 3.5708208397	 0.5757402209	 0.653399917	 0.076147
H	 2.0118642846	-0.1830044793	 3.0839816112	 0.116973
H	 1.5985257041	 1.2849936012	 2.1700090663	 0.103308
H	 0.1702547754	-1.3636993908	 1.8111022015	 0.077781
83.6214	192.0523	229.9041	244.8433	336.3791	386.6089	414.2633	462.271	541.5001	675.3175	732.6438	755.2993	824.5736	858.0242	886.4685	917.4814	946.5472	974.0649	986.4999	1009.8725	1058.6078	1072.2768	1085.6257	1118.3469	1131.679	1149.9859	1165.6696	1177.3448	1234.3347	1262.5211	1270.2446	1305.3719	1318.2114	1322.637	1361.0142	1393.5492	1409.9789	1459.2219	1482.4523	1495.379	1515.129	3005.5482	3031.3163	3038.0613	3059.1717	3065.5016	3071.8899	3106.3199	3108.3191	3116.9174	3121.9497
CC1OC23COC2CC13	C[C@H]1O[C@@]23CO[C@@H]2C[C@@H]13	
InChI=1S/C7H10O2/c1-4-5-2-6-7(5,9-4)3-8-6/h4-6H,2-3H2,1H3	InChI=1S/C7H10O2/c1-4-5-2-6-7(5,9-4)3-8-6/h4-6H,2-3H2,1H3/t4-,5+,6-,7-/m1/s1
