14
gdb 20606	3.31584	2.06664	1.28497	2.7712	60.69	-0.2099	0.0259	0.2358	890.3838	0.107129	-415.864254	-415.85637	-415.855426	-415.896576	28.539	
C	-0.0172426018	 1.5751878231	 0.0379133135	-0.525784
C	 0.0207145407	 0.0809855669	-0.0010319094	-0.014879
C	 0.1010032641	-0.7685190386	-1.0704644032	 0.415616
N	 0.2157728378	-0.54464603	-2.4234228599	-0.593298
O	 0.1319063396	-2.0512499366	-0.6815599509	-0.224257
N	 0.0742282209	-2.0976125876	 0.7342358155	-0.287517
C	 0.0068735523	-0.835782089	 1.0848744104	 0.415946
O	-0.0587760456	-0.4689678819	 2.3765386494	-0.422231
H	 0.5268581085	 2.0077809254	-0.8085215215	 0.122986
H	-1.0388087459	 1.9754647233	 0.0161094352	 0.128441
H	 0.4524429951	 1.9455400874	 0.9535147845	 0.145402
H	-0.2638682072	 0.2793632858	-2.7546719706	 0.264309
H	 0.0135111481	-1.359317113	-2.9862434104	 0.266112
H	-0.0248017566	-1.2749964851	 2.9088466375	 0.309154
62.0134	170.2353	217.4833	223.2445	285.1414	312.2909	391.3549	455.4379	536.8653	577.8346	610.5659	677.268	715.1101	752.0867	796.9835	947.5132	960.7103	1064.226	1072.4656	1179.907	1233.8704	1283.232	1390.5376	1424.9755	1487.1769	1495.8698	1552.1076	1571.789	1642.3792	1715.4171	3019.2148	3073.5457	3108.9823	3566.8418	3669.0312	3780.4217
CC1=C(N)ON=C1O	Cc1c(N)onc1O	
InChI=1S/C4H6N2O2/c1-2-3(5)8-6-4(2)7/h5H2,1H3,(H,6,7)	InChI=1S/C4H6N2O2/c1-2-3(5)8-6-4(2)7/h5H2,1H3,(H,6,7)
