18
gdb 65548	2.99043	1.52952	1.31556	1.421	77.17	-0.2221	0.0299	0.2521	1015.1231	0.14802	-401.869993	-401.862119	-401.861174	-401.901914	31.722	
O	-0.0834377275	 1.3814164765	-0.0100243456	-0.481226
C	-0.0215642166	-0.043588495	-0.0084650641	 0.222707
C	 0.4225912053	-0.6415485029	 1.3966404929	-0.229074
N	-0.8127144727	-1.308682083	 1.8790238445	-0.122454
C	-1.2311189434	-2.0127680924	 0.5985229144	-0.191856
C	-1.4630939158	-0.5953859122	 0.0254149657	-0.056976
C	-1.8478720162	-0.2687836318	 1.4903735932	-0.192165
C	 0.7787446521	-0.5245119426	-1.1301949968	 0.261164
C	 1.4729428664	-0.8960357185	-2.0399688849	-0.447885
H	 0.7952368398	 1.7148505253	-0.2189416965	 0.283801
H	 1.2374207914	-1.3635423282	 1.3151530258	 0.114564
H	 0.7133575766	 0.1701575323	 2.0677176382	 0.111468
H	-0.4686942475	-2.652906343	 0.1468772662	 0.112304
H	-2.1534121124	-2.5743226896	 0.7608080623	 0.111593
H	-2.0835974528	-0.3737617673	-0.8429266273	 0.078459
H	-2.8461370138	-0.6160721254	 1.7646673968	 0.106609
H	-1.6675357887	 0.7379369171	 1.8696651589	 0.122008
H	 2.0748322858	-1.2268443194	-2.8502643537	 0.19696
129.2928	149.3137	225.8607	249.1743	329.2538	452.7487	464.264	492.7891	514.144	561.7056	613.841	628.171	669.2556	749.8303	823.3029	848.4375	855.2785	875.6442	934.4191	975.0475	1007.0906	1019.7177	1028.5307	1066.4039	1068.5827	1134.473	1170.5974	1208.6563	1217.2818	1237.6939	1257.5182	1264.7441	1287.8411	1304.5922	1373.6578	1487.5843	1498.4501	1532.2119	2225.4202	3061.5834	3068.1116	3075.5272	3119.2676	3125.0397	3129.5143	3141.8349	3499.6158	3819.8384
OC1(CN2CC1C2)C#C	O[C@]1(CN2C[C@H]1C2)C#C	
InChI=1S/C7H9NO/c1-2-7(9)5-8-3-6(7)4-8/h1,6,9H,3-5H2	InChI=1S/C7H9NO/c1-2-7(9)5-8-3-6(7)4-8/h1,6,9H,3-5H2/t7-/m0/s1
