19
gdb 61891	5.45018	0.67559	0.63634	4.7745	73.31	-0.2406	-0.0156	0.225	1714.3938	0.156645	-460.145412	-460.135693	-460.134748	-460.181487	34.235	
O	 0.4816751614	 1.3890003578	 0.2333448162	-0.448928
C	 0.1397130614	 0.0267252209	 0.041147639	 0.130521
C	 0.7874815913	-0.4132800467	-1.2786430349	-0.280015
C	 0.3067118786	 0.405429229	-2.4594482138	 0.151281
O	-0.1112896174	-0.0717520102	-3.4846450136	-0.246726
C	 0.6130620098	-0.8310617852	 1.2282423101	-0.256558
C	-0.180324058	-0.5392588095	 2.4825116534	 0.075549
C	 0.4518874989	-0.1757176956	 3.7564537368	-0.176218
O	-0.1626096421	 0.8286865921	 2.9420426338	-0.245154
H	 0.279245688	 1.614482889	 1.1513535273	 0.301583
H	-0.9553893391	-0.0854262244	-0.0535529702	 0.075498
H	 1.8723547739	-0.2633477238	-1.1854620094	 0.123574
H	 0.5926760033	-1.4690324439	-1.4858669998	 0.113119
H	 0.3676605121	 1.5035092442	-2.3136861555	 0.102413
H	 0.5101855303	-1.8961132101	 0.9894099611	 0.110234
H	 1.6771138279	-0.6262537413	 1.3927474256	 0.110418
H	-1.1765970102	-0.9812512533	 2.5213065713	 0.107576
H	-0.0596900467	-0.3764856713	 4.695689481	 0.12654
H	 1.5377485666	-0.1272207477	 3.8168596215	 0.125293
44.9284	64.9266	71.6573	131.3613	151.1163	253.9958	289.9233	369.6423	437.9827	447.5037	487.4507	494.046	562.3073	782.0101	822.6881	866.0895	876.0863	918.6808	950.1079	1020.4501	1027.5792	1061.1066	1097.108	1133.7758	1138.0786	1162.0592	1175.3175	1217.1279	1257.8777	1275.2785	1295.9426	1322.3984	1336.787	1386.0196	1422.0052	1437.8522	1447.1367	1454.5957	1468.0444	1525.5398	1827.6769	2928.6352	2938.884	3021.7934	3035.3148	3080.4199	3092.7015	3106.4328	3111.4524	3183.1298	3748.1261
OC(CC=O)CC1CO1	O[C@@H](CC=O)C[C@H]1CO1	
InChI=1S/C6H10O3/c7-2-1-5(8)3-6-4-9-6/h2,5-6,8H,1,3-4H2	InChI=1S/C6H10O3/c7-2-1-5(8)3-6-4-9-6/h2,5-6,8H,1,3-4H2/t5-,6-/m0/s1
