20
gdb 62812	2.30889	1.48915	1.31908	1.257	86.09	-0.2355	0.0367	0.2722	1109.7231	0.169488	-365.899915	-365.890747	-365.889802	-365.933757	35.207	
C	-0.0779070437	 1.5130097637	-0.0051858964	-0.47398
C	 0.0233928547	-0.0155565102	 0.0246774308	 0.334225
C	-1.3518617719	-0.5632025926	-0.3575035562	-0.475711
N	 1.2371683211	-0.6263392253	-0.7542643987	-0.199217
C	 2.1007465096	-0.124937034	 0.4145525244	-0.215099
C	 0.8695860417	-0.7124107244	 1.1596466892	 0.219211
C	 1.0557602194	-1.8662348994	 0.1398899192	-0.216126
C	 0.5965517813	-0.7742656359	 2.5716983309	 0.009311
C	 0.3530865277	-0.8164486533	 3.7495532444	-0.348967
H	-0.0507901109	 1.8570115398	-1.0449261136	 0.133693
H	-1.0354429203	 1.8254711455	 0.4210658303	 0.122726
H	 0.703170492	 2.0366622019	 0.5452444467	 0.122259
H	-1.6811614644	-0.0935848053	-1.2903324118	 0.128313
H	-1.4014722952	-1.6413945844	-0.4994658675	 0.122124
H	-2.0761568577	-0.2964218098	 0.4192220293	 0.128785
H	 3.0393506859	-0.6735988134	 0.5173675489	 0.105075
H	 2.2799293239	 0.947033191	 0.4311129278	 0.108724
H	 0.2120303336	-2.5056812267	-0.1057693062	 0.10716
H	 1.9693682087	-2.4572275999	 0.2327240677	 0.105396
H	 0.1408698443	-0.8552179174	 4.7894176607	 0.182097
73.4651	107.5909	125.3662	144.9248	227.4917	332.4936	417.2973	438.0895	473.8694	513.7348	561.3075	566.4951	617.4538	640.9138	644.6642	700.8057	758.2368	809.4075	882.2529	953.21	957.6064	976.3509	987.438	991.9227	1061.827	1068.3534	1123.9873	1141.1155	1168.1888	1189.5085	1232.6395	1237.4254	1257.8871	1297.4001	1404.593	1417.9468	1475.2843	1483.1198	1501.4609	1508.7099	1536.7636	1572.2346	2225.7952	3042.0422	3048.312	3079.0685	3087.2799	3099.7821	3108.3441	3136.5693	3146.5004	3169.417	3172.8214	3499.8648
CC1(C)N2CC1(C2)C#C	CC1(C)N2C[C@@]1(C2)C#C	
InChI=1S/C8H11N/c1-4-8-5-9(6-8)7(8,2)3/h1H,5-6H2,2-3H3	InChI=1S/C8H11N/c1-4-8-5-9(6-8)7(8,2)3/h1H,5-6H2,2-3H3
