15
gdb 133115	2.63419	1.59313	0.99951	2.2099	73.66	-0.2153	-0.0328	0.1826	1116.0191	0.113592	-458.147628	-458.139633	-458.138689	-458.180647	28.894	
C	 0.0028484144	 1.4725737946	 0.0419598859	-0.315414
N	-0.044931887	 0.0293992334	-0.0814641625	-0.360557
C	-1.2148493303	-0.6637110493	-0.0244627258	 0.295137
N	-2.3794424671	-0.0231048709	-0.0116721122	-0.3364
C	-3.4911864801	-0.7786768015	 0.008302252	-0.023713
C	-3.4546662329	-2.1577053948	 0.0268519032	-0.056377
N	-2.2725352809	-2.8161329346	 0.027077614	-0.287899
C	-1.2098086072	-2.0845357308	 0.0012136851	 0.273513
F	-0.0130812674	-2.6899220647	 0.0058235829	-0.083217
H	 1.0273867396	 1.8041320517	-0.1372687051	 0.126241
H	-0.6548164292	 1.9347734433	-0.6982660115	 0.152301
H	-0.3165830462	 1.8191067201	 1.0335701196	 0.13101
H	 0.7949426333	-0.5013610453	 0.0717244327	 0.257684
H	-4.437291156	-0.2452102029	 0.0142967204	 0.112585
H	-4.3554992428	-2.7603473282	 0.0459432513	 0.115106
87.9462	104.1531	163.5719	194.2546	327.4027	338.3048	389.226	499.1274	534.6763	580.1277	599.5644	610.4111	794.0129	801.1396	857.1214	901.328	958.5029	1074.7454	1111.2784	1141.0493	1156.9578	1211.3794	1261.3217	1311.3885	1370.9051	1440.3016	1459.8206	1477.3044	1486.8085	1515.6651	1568.2298	1592.1047	1651.2938	3018.7118	3094.2653	3137.9787	3169.3744	3198.2583	3671.1395
CNC1=NC=CN=C1F	CNc1nccnc1F	
InChI=1S/C5H6FN3/c1-7-5-4(6)8-2-3-9-5/h2-3H,1H3,(H,7,9)	InChI=1S/C5H6FN3/c1-7-5-4(6)8-2-3-9-5/h2-3H,1H3,(H,7,9)
