22
gdb 122590	3.72842	0.69351	0.62941	3.648	85.55	-0.2381	0.0403	0.2783	1860.0628	0.193881	-404.382529	-404.37242	-404.371476	-404.419097	35.717	
C	-0.1809634674	 1.5598840905	 0.0231620739	-0.381044
C	 0.0475614136	 0.0461749026	 0.0119118375	-0.15983
C	 0.6850498394	-0.4541029998	-1.2883739088	-0.172459
C	 0.9086098108	-1.9720269965	-1.2881308888	-0.180855
N	 1.5134338366	-2.4696137549	-2.5008967568	-0.066263
C	 1.0257206135	-2.5909923454	-3.8786673637	-0.172784
C	 2.3902869819	-3.2481068497	-4.2327268545	-0.370769
C	 2.7360752611	-3.0522458589	-2.7374415789	 0.403491
O	 3.6671462243	-3.2921376993	-2.0129707783	-0.373874
H	 0.762805204	 2.1032431808	-0.0955817653	 0.117867
H	-0.8435293982	 1.8665701433	-0.7938425808	 0.113908
H	-0.6374837832	 1.8868695561	 0.9623900354	 0.114403
H	 0.6868452925	-0.2350183832	 0.8590287728	 0.102674
H	-0.9087572844	-0.470246919	 0.1698339233	 0.096323
H	 0.045908651	-0.1791196702	-2.1382502339	 0.094839
H	 1.6487122928	 0.0448169884	-1.4499078076	 0.108371
H	 1.5854946965	-2.2561694626	-0.4752650018	 0.138277
H	-0.0461593673	-2.4892073908	-1.1138406969	 0.103684
H	 0.1507720993	-3.2431454545	-3.9826818762	 0.108933
H	 0.8233498877	-1.634227153	-4.371655937	 0.111587
H	 2.3427973437	-4.2911337719	-4.5502687489	 0.132003
H	 3.0224930819	-2.683921452	-4.9205028646	 0.131517
40.7887	70.187	77.068	120.6542	186.5211	200.5785	234.7324	257.7532	315.7347	413.5941	519.1163	565.4183	735.4918	743.3994	776.5777	802.6082	822.8446	910.1099	934.9278	947.6805	1008.7269	1032.8318	1045.1035	1063.2662	1097.0164	1129.2119	1153.7678	1185.7417	1194.3038	1226.9371	1267.5988	1284.323	1301.4177	1330.5742	1344.1544	1384.0724	1405.1277	1415.1188	1426.9572	1463.9748	1477.3622	1487.2112	1498.5097	1499.7571	1512.5001	1531.1048	1874.3091	2999.2233	3012.1739	3019.9082	3029.2241	3031.237	3039.9283	3061.5785	3071.7143	3086.1554	3088.2987	3098.0692	3103.9703	3145.5213
CCCCN1CCC1=O	CCCCN1CCC1=O	
InChI=1S/C7H13NO/c1-2-3-5-8-6-4-7(8)9/h2-6H2,1H3	InChI=1S/C7H13NO/c1-2-3-5-8-6-4-7(8)9/h2-6H2,1H3
