18
gdb 24733	3.49871	1.61089	1.14542	3.2849	78.7	-0.1771	0.0514	0.2285	1049.3591	0.151441	-401.987976	-401.980886	-401.979942	-402.01946	28.38	
C	-0.0189901813	 1.5261256145	-0.0392618831	-0.228869
C	 1.4113528638	 2.0562070484	 0.0272743061	-0.080789
O	 2.0354970818	 1.6866312451	 1.2553526643	-0.275861
C	 1.9280186626	 0.3704469148	 1.5718573393	 0.406192
C	 2.6794752081	-0.3638813434	 2.455458467	-0.312028
C	 2.1120302314	-1.6735446377	 2.4720435559	-0.150248
C	 1.050345041	-1.6883207711	 1.6047423774	-0.120915
N	 0.9293447024	-0.4227986517	 1.0560128604	-0.066979
C	 0.002419367	-0.0037502722	 0.0202789205	-0.161461
H	-0.5865776497	 1.931062931	 0.8053386576	 0.12481
H	-0.5036754384	 1.8576649477	-0.9622937444	 0.110633
H	 2.0018052469	 1.6731715959	-0.819460159	 0.104065
H	 1.4383348118	 3.1476096518	 0.0006113985	 0.118531
H	 3.5156624594	 0.0051468415	 3.0264424885	 0.095519
H	 2.453709304	-2.5092786775	 3.0633011684	 0.091711
H	 0.3730574539	-2.4743902883	 1.3122086245	 0.106667
H	-0.9920310205	-0.404060729	 0.2418211738	 0.121655
H	 0.3125517658	-0.4131217199	-0.9513386658	 0.117367
104.4135	151.1751	290.0515	337.461	394.1008	466.332	526.4998	607.2224	618.9483	679.2129	690.438	707.8375	748.6649	817.6963	888.6114	899.7274	903.4704	948.0044	997.0696	1043.746	1082.513	1102.5648	1139.592	1204.3096	1222.6972	1230.0695	1262.2447	1302.2588	1322.1008	1348.8514	1374.214	1399.7169	1421.5421	1476.3414	1481.474	1505.3272	1518.9304	1543.3751	1613.9939	2989.247	3004.1732	3050.4228	3071.2175	3102.3553	3107.5659	3243.4499	3263.0029	3270.865
C1COC2=CC=CN2C1	C1COc2cccn2C1	
InChI=1S/C7H9NO/c1-3-7-8(4-1)5-2-6-9-7/h1,3-4H,2,5-6H2	InChI=1S/C7H9NO/c1-3-7-8(4-1)5-2-6-9-7/h1,3-4H,2,5-6H2
