15
gdb 128563	6.95403	0.88207	0.78673	3.782	78.83	-0.2196	0.0004	0.22	1387.8209	0.112366	-416.780407	-416.771946	-416.771002	-416.81373	30.916	
C	 0.0103588972	 1.4313578409	-0.0362956101	-0.269059
O	-0.006137242	 0.0122467613	 0.0127014664	-0.262494
C	 0.5751642783	-0.643823101	-1.0050972046	 0.526036
C	 0.6882595421	-2.003613025	-1.1867395367	-0.476897
C	 1.3855724869	-2.1337434283	-2.4163082291	 0.237951
N	 1.6825894396	-0.9460238901	-2.956690658	-0.313517
N	 1.1758181432	-0.0520088886	-2.0737194095	-0.300735
C	 1.7565658842	-3.3450310405	-3.0553301024	 0.274388
C	 2.0545595551	-4.3921464779	-3.5676309848	-0.418396
H	 1.0373397796	 1.8195514658	-0.0340817146	 0.130913
H	-0.5239848712	 1.8071547214	-0.918699664	 0.13093
H	-0.5018181108	 1.7738410436	 0.8628763213	 0.154139
H	 0.3261280476	-2.780737016	-0.5370292411	 0.120259
H	 1.2797170408	 0.9278286181	-2.2694646078	 0.277224
H	 2.3225177995	-5.3100839335	-4.0286265349	 0.189259
58.2564	137.2691	143.935	217.3995	248.1778	318.9343	421.1755	429.1732	507.5614	556.8297	583.2215	587.2082	661.6869	680.5145	712.8505	724.8317	792.0826	994.3645	1021.6903	1074.6907	1158.7233	1175.6996	1187.7498	1214.4435	1299.7089	1413.2396	1462.982	1468.6925	1493.3051	1493.6601	1509.6383	1630.7737	2240.9838	3003.2827	3064.4445	3149.3259	3290.0837	3505.8205	3688.4811
COC1=CC(=NN1)C#C	COc1cc(n[nH]1)C#C	
InChI=1S/C6H6N2O/c1-3-5-4-6(9-2)8-7-5/h1,4H,2H3,(H,7,8)	InChI=1S/C6H6N2O/c1-3-5-4-6(9-2)8-7-5/h1,4H,2H3,(H,7,8)
