18
gdb 113913	3.86356	0.81569	0.71634	3.5395	69.56	-0.2613	0.0538	0.315	1547.1945	0.146159	-476.238933	-476.229091	-476.228147	-476.275259	34.878	
N	-0.2180175135	 1.2882255358	 0.143572893	-0.565748
C	-0.0192784146	-0.0603304948	 0.2475200658	 0.496245
O	 0.8857047417	-0.5932490104	 0.8410382717	-0.390357
O	-1.0171754157	-0.7178315721	-0.4077600932	-0.266726
C	-0.9806529956	-2.1281027973	-0.2984283606	 0.12853
C	-1.9038440344	-2.793496871	 0.6765695695	-0.304456
C	-2.1796868985	-2.8622699412	-0.8146384514	-0.045449
C	-3.3586121141	-2.1240429144	-1.3923876686	-0.092942
O	-4.5096672628	-2.941113428	-1.2194772329	-0.419692
H	 0.5656475657	 1.8687734687	 0.3883286329	 0.269208
H	-0.8570856636	 1.6303584915	-0.5537121883	 0.263271
H	 0.0102280764	-2.5364362733	-0.4545493743	 0.121561
H	-1.5582171162	-3.6781632702	 1.1986266274	 0.12116
H	-2.5499779991	-2.143653116	 1.2568070359	 0.124455
H	-1.9754336876	-3.8093780441	-1.3057072774	 0.098043
H	-3.4730907862	-1.1539449937	-0.8884579318	 0.091474
H	-3.1775948733	-1.918465477	-2.4597825596	 0.08659
H	-5.2523192186	-2.4996023226	-1.6420823582	 0.284834
23.8625	79.317	99.3462	106.5906	216.2962	250.1459	275.7741	345.759	358.6815	450.1141	478.5771	517.6882	566.6976	658.5609	779.8377	794.1758	829.4419	879.9284	915.1614	983.3094	1026.5832	1053.3344	1073.7865	1079.7779	1110.6815	1128.9631	1167.0777	1178.1104	1240.1819	1255.9656	1279.7341	1336.9491	1380.9994	1419.9291	1467.1738	1490.9222	1524.1643	1611.9656	1843.4587	2970.5477	3016.9451	3138.8017	3151.8092	3188.7142	3228.662	3613.4698	3742.2393	3826.2632
NC(=O)OC1CC1CO	NC(=O)O[C@H]1C[C@H]1CO	
InChI=1S/C5H9NO3/c6-5(8)9-4-1-3(4)2-7/h3-4,7H,1-2H2,(H2,6,8)	InChI=1S/C5H9NO3/c6-5(8)9-4-1-3(4)2-7/h3-4,7H,1-2H2,(H2,6,8)/t3-,4-/m0/s1
