16
gdb 97258	2.3337	1.18155	0.81471	4.2626	74.91	-0.244	-0.0315	0.2125	1361.8355	0.121487	-434.095189	-434.085195	-434.084251	-434.131083	34.588	
C	-0.6155160551	 1.1340210604	 0.2680648473	-0.49116
C	 0.156380224	-0.1335446646	 0.000334844	 0.396001
O	 0.9225943719	-0.6294967094	 0.783111588	-0.277957
C	-0.0007486101	-0.8046829655	-1.416424588	-0.238149
N	 0.1266744824	-2.2350195533	-1.3415089441	-0.219317
C	 1.3148531688	-2.6987626141	-1.3309803554	 0.136588
N	 1.5728013544	-4.0337391912	-1.2496831421	-0.503491
C	-1.2644517946	-0.4357846304	-2.06998086	 0.294771
N	-2.2533810046	-0.1143492727	-2.5733261022	-0.333431
H	-0.4884265642	 1.8478577192	-0.5527872616	 0.152667
H	-1.6864754883	 0.9093792947	 0.3168753303	 0.173642
H	-0.2838434867	 1.5740029793	 1.2087770915	 0.14608
H	 0.8059000752	-0.3224197597	-2.0036575559	 0.132524
H	 2.2167904573	-2.0829662701	-1.4353415853	 0.099283
H	 0.8052274854	-4.6252906562	-0.9686725804	 0.267027
H	 2.4900761143	-4.3264274663	-0.9595331261	 0.264922
40.7155	66.4755	138.6652	150.5768	161.1824	179.3549	320.203	333.3949	359.8404	382.9444	466.9037	504.229	510.4019	576.9974	594.9352	656.9378	769.1237	955.127	978.4716	1007.2467	1030.9214	1054.0781	1168.2497	1181.8804	1232.1448	1292.9424	1330.107	1386.1587	1420.5485	1454.9707	1470.0935	1628.5325	1751.2878	1834.5006	2360.8638	2910.3007	3044.1692	3047.5966	3105.7838	3158.5346	3590.6683	3718.6239
CC(=O)C(N=CN)C#N	CC(=O)[C@@H](N=CN)C#N	
InChI=1S/C5H7N3O/c1-4(9)5(2-6)8-3-7/h3,5H,1H3,(H2,7,8)	InChI=1S/C5H7N3O/c1-4(9)5(2-6)8-3-7/h3,5H,1H3,(H2,7,8)/t5-/m0/s1
