16
gdb 126105	6.81235	0.65951	0.6058	4.2917	84.91	-0.228	-0.0064	0.2216	1794.9948	0.125262	-396.910506	-396.901952	-396.901008	-396.945515	30.14	
C	 0.073067568	 1.5330772236	 0.0091582105	-0.366757
C	-0.0199426935	-0.0037755226	 0.0031841932	-0.325843
C	-1.3925619229	-0.494127329	 0.0129636677	 0.196965
C	-2.5323486409	-0.8885588933	 0.0210432233	-0.051713
C	-3.8626231642	-1.3646101304	 0.0301782111	 0.201724
C	-5.0426078324	-0.6461547541	 0.0419003932	-0.200423
N	-6.0034435274	-1.5940627895	 0.0467859031	-0.157453
N	-5.47557924	-2.8353554142	 0.0387892292	-0.114118
N	-4.1861988709	-2.7046975902	 0.0287898796	-0.264982
H	 1.1200857035	 1.8494892576	 0.001412269	 0.117833
H	-0.4213512901	 1.9562862484	-0.8694033124	 0.128536
H	-0.4059068014	 1.9484907551	 0.8999120232	 0.128548
H	 0.4988380808	-0.4003428325	-0.8792398255	 0.135349
H	 0.5140924381	-0.4080802571	 0.8729047944	 0.135357
H	-5.2513684661	 0.4094731641	 0.0468436037	 0.15132
H	-7.0048660706	-1.483363096	 0.0552433568	 0.285657
24.8383	73.6227	104.8238	189.0089	220.5858	317.8803	418.9657	490.4798	506.5848	572.0376	576.1596	693.5061	737.7098	786.4732	805.5146	887.4296	979.4221	1001.1221	1038.9031	1068.7351	1096.0917	1103.0922	1128.1134	1256.5297	1283.6729	1300.1818	1343.5773	1361.5778	1410.1469	1474.1693	1486.9176	1495.5203	1505.6547	1575.6378	2362.5489	3019.4239	3045.6479	3046.4397	3119.7157	3123.7778	3293.0877	3658.2442
CCC#CC1=CNN=N1	CCC#Cc1c[nH]nn1	
InChI=1S/C6H7N3/c1-2-3-4-6-5-7-9-8-6/h5H,2H2,1H3,(H,7,8,9)	InChI=1S/C6H7N3/c1-2-3-4-6-5-7-9-8-6/h5H,2H2,1H3,(H,7,8,9)
