15
gdb 129955	2.99163	1.35436	1.02242	1.6576	68.41	-0.2146	-0.0497	0.1649	1115.5521	0.112565	-453.942141	-453.933886	-453.932942	-453.976025	29.632	
N	 0.2902927119	 1.4067586454	-0.0859657333	-0.621492
C	 0.1135686885	 0.0245418371	-0.070936091	 0.06725
C	-1.0092899963	-0.7452002377	-0.0328893998	 0.000793
O	-0.6773540484	-2.0551189576	 0.0613107016	-0.169326
N	 0.6946956715	-2.1716510599	 0.0786265134	-0.202701
C	 1.1629133219	-0.9468173857	 0.0101409986	 0.353287
C	 2.6422953273	-0.6871332033	 0.0202786901	-0.391288
C	 3.0946610577	-0.1386925507	-1.3278766503	 0.142103
O	 2.8184340015	 0.9689870749	-1.7210254118	-0.234016
H	 1.0899571179	 1.6817803657	-0.6476663327	 0.268103
H	-0.5357006202	 1.9185470802	-0.3636487155	 0.246278
H	-2.0642974316	-0.5252886754	-0.0559273606	 0.139307
H	 2.876605236	 0.0669993985	 0.781487021	 0.151005
H	 3.1698650605	-1.6139060309	 0.2551034523	 0.141394
H	 3.6893931618	-0.8294525906	-1.960709822	 0.109302
38.1228	89.2251	151.9366	226.4627	274.7812	333.0943	392.2363	429.4449	537.1421	603.6257	628.5628	718.0502	728.46	761.0701	793.4966	903.3604	928.9341	972.7613	982.1546	1049.648	1129.9822	1140.8363	1197.7284	1258.5787	1305.6551	1320.2251	1418.2069	1459.6375	1467.0686	1523.304	1656.0827	1685.3662	1811.9488	2921.7131	3041.3628	3123.8214	3272.9479	3508.7032	3624.7312
NC1=CON=C1CC=O	Nc1conc1CC=O	
InChI=1S/C5H6N2O2/c6-4-3-9-7-5(4)1-2-8/h2-3H,1,6H2	InChI=1S/C5H6N2O2/c6-4-3-9-7-5(4)1-2-8/h2-3H,1,6H2
