23
gdb 111591	3.67173	1.19304	1.14957	0.1059	88.96	-0.2653	0.0898	0.3551	1217.4535	0.208835	-351.129255	-351.1215	-351.120555	-351.161544	31.923	
C	-1.6700131653	-0.077474011	-0.1617161751	-0.37896
C	-0.1585210532	 0.0314372284	 0.0751546165	-0.220373
C	 0.6510490584	-0.5704315279	-1.0691313864	 0.062859
C	 2.2112343513	-0.5979284888	-1.0895432314	-0.082007
C	 2.5604054682	-1.3717223264	 0.1966999408	-0.208567
C	 1.8706198292	-2.6815647074	-0.2468998021	-0.04079
C	 2.7497998752	-3.071723785	-1.4652354961	-0.23757
C	 2.11114713	-1.8282907572	-2.0996248612	-0.025383
C	 0.8071913232	-2.0871264283	-1.2804383035	-0.042092
H	-1.9665673958	 0.4456190221	-1.0778158642	 0.112377
H	-1.9792000652	-1.1233161691	-0.265158355	 0.116427
H	-2.2370604647	 0.3562024466	 0.6678681424	 0.109418
H	 0.1175778247	 1.0880987939	 0.1950588929	 0.091735
H	 0.0885725181	-0.4593954213	 1.0226613805	 0.095862
H	 0.3001185046	-0.1389334123	-2.0168939009	 0.061436
H	 2.7881256767	 0.2962595508	-1.3273622669	 0.053042
H	 3.6359780462	-1.5072040527	 0.3452002314	 0.088268
H	 2.1491672564	-0.9161721544	 1.0997412505	 0.091426
H	 1.5926853632	-3.4077259007	 0.5163799235	 0.05667
H	 3.8343228808	-3.1236397547	-1.3200916668	 0.084391
H	 2.4007633096	-3.9808419061	-1.9644811469	 0.092358
H	 2.1137211128	-1.6082627947	-3.1667435807	 0.060831
H	 0.0118722357	-2.7505776037	-1.6203093412	 0.058641
74.8669	164.13	178.7014	256.251	337.5079	457.744	484.2471	515.9521	649.3141	693.0319	755.8093	799.8523	826.6443	829.2815	841.4044	895.939	919.3475	934.1213	952.8776	963.8539	976.5019	992.9067	1010.0976	1025.7059	1062.9639	1072.5841	1086.9229	1094.8988	1143.4967	1151.2344	1167.3595	1188.1195	1202.9478	1220.4541	1231.7893	1263.0365	1270.2314	1286.6371	1292.4018	1324.3657	1328.9705	1346.5918	1407.407	1418.8224	1486.7383	1493.4525	1499.8792	1506.8476	1519.9822	3009.4113	3016.2934	3029.4469	3035.3221	3056.075	3064.5951	3091.7774	3096.6863	3101.0193	3104.953	3106.5075	3108.9874	3117.5473	3124.9648
CCC1C2CC3CC2C13	CC[C@H]1[C@H]2C[C@@H]3C[C@H]2[C@H]13	
InChI=1S/C9H14/c1-2-6-7-3-5-4-8(7)9(5)6/h5-9H,2-4H2,1H3	InChI=1S/C9H14/c1-2-6-7-3-5-4-8(7)9(5)6/h5-9H,2-4H2,1H3/t5-,6+,7-,8-,9+/m1/s1
