20
gdb 110321	2.0022	1.48639	1.03314	1.5334	76.11	-0.2016	0.0659	0.2675	1225.4514	0.169187	-440.214143	-440.204519	-440.203575	-440.24852	35.768	
C	-0.6038411119	 1.3550054078	-0.157654339	-0.330426
N	-0.0218240486	 0.031624841	-0.0683735287	-0.057025
C	 1.1468976642	-0.3572174875	-0.8996915089	-0.257055
C	 1.8220605711	-0.9374683762	 0.3546312954	 0.348653
O	 2.4009696998	-2.1912115507	 0.3977282367	-0.461069
C	 2.0361033016	 0.115417638	 1.4101139188	-0.110866
C	 2.5902328097	 1.5022963241	 1.1740773418	-0.10307
O	 4.0092950916	 1.4881080914	 1.0335842331	-0.420463
C	 0.6299028896	-0.4319036851	 1.1454108274	-0.10998
H	 0.0980244623	 2.1895779572	 0.0107257746	 0.096788
H	-1.0524354458	 1.4874080725	-1.1480616651	 0.121766
H	-1.4064802691	 1.4415316101	 0.5825000224	 0.122358
H	 0.8906086659	-1.1254939513	-1.6369260126	 0.113203
H	 1.6709871733	 0.4653015214	-1.4046688227	 0.097497
H	 3.3502985449	-2.0832581692	 0.2733156777	 0.289019
H	 2.4276870732	-0.3478400592	 2.3185928916	 0.081178
H	 2.215503098	 1.9267911409	 0.240672255	 0.113287
H	 2.2791102591	 2.1806081903	 1.9837241307	 0.08889
H	 4.3824994892	 1.2057082361	 1.8747489657	 0.279094
H	 0.0561530018	-0.9018320515	 1.9379764262	 0.098221
67.268	123.8126	162.8045	175.7127	224.4581	252.4021	296.1216	311.9883	339.0061	402.9414	412.6086	503.3205	590.1765	618.3852	702.1011	797.2889	880.8853	914.2662	965.3322	974.4865	988.4593	1038.9006	1054.7875	1078.2759	1099.845	1114.866	1160.0913	1189.7506	1213.6975	1229.9653	1239.2367	1276.8204	1291.4397	1338.7012	1351.5931	1382.0065	1415.5242	1451.2291	1479.9209	1487.9659	1498.9901	1503.9632	1517.9824	2958.1689	2984.0408	3008.2489	3056.0627	3067.154	3087.7706	3096.5214	3116.1991	3159.6783	3797.6619	3813.72
CN1CC2(O)C(CO)C12	CN1C[C@@]2(O)[C@@H](CO)[C@@H]12	
InChI=1S/C6H11NO2/c1-7-3-6(9)4(2-8)5(6)7/h4-5,8-9H,2-3H2,1H3	InChI=1S/C6H11NO2/c1-7-3-6(9)4(2-8)5(6)7/h4-5,8-9H,2-3H2,1H3/t4-,5+,6+/m0/s1
