21
gdb 10612	2.65862	1.61216	1.19786	1.4647	75.01	-0.2406	0.0625	0.3031	1104.5666	0.187623	-366.239701	-366.230083	-366.229139	-366.273828	35.28	
C	-1.8928875107	 0.2663577482	-0.9841769416	-0.40044
C	-1.2504182272	-1.0680428273	-1.3878084524	-0.238323
C	 0.1149397535	-0.9085914707	-2.0383035282	 0.308947
C	 0.1415695954	-0.0867932723	-3.3279026026	-0.161497
O	 0.4461001337	 1.2885236875	-3.1134109887	-0.415117
N	 1.2363848805	-0.6694713227	-1.1081646232	-0.367807
C	 1.1983724325	-1.9270587235	-1.8691029733	-0.042459
C	 1.076852569	-3.2142359504	-1.0875641789	-0.405459
H	-1.2243854388	 0.8294004162	-0.3245258078	 0.134358
H	-2.1308139219	 0.8884368879	-1.8559240855	 0.10829
H	-2.8333860846	 0.1047500754	-0.4489079061	 0.117166
H	-1.1515764048	-1.6919497943	-0.4962942811	 0.106435
H	-1.9150743898	-1.604767134	-2.0778398793	 0.094007
H	 0.9328208771	-0.4446966279	-3.9936246824	 0.109027
H	-0.8132863786	-0.2022490066	-3.8630244235	 0.091879
H	-0.2226225201	 1.6538967073	-2.5258391752	 0.287119
H	 1.8759825789	 0.0029723866	-1.5262961211	 0.234118
H	 1.8800028138	-2.002267347	-2.7171477038	 0.07654
H	 0.4617110003	-3.088031208	-0.194627703	 0.128062
H	 0.6420663878	-4.0089944097	-1.7037540508	 0.114204
H	 2.0669414739	-3.5490630045	-0.7593562313	 0.120949
73.0094	100.4652	148.4774	182.4461	207.1053	252.3249	261.5765	333.4457	347.0696	384.5032	437.5679	496.2306	566.6302	718.1998	781.3875	826.3958	875.3802	926.6281	951.4936	1005.5929	1010.697	1045.7912	1057.3306	1086.9994	1101.7491	1112.168	1152.2512	1202.768	1247.3211	1267.2111	1327.4619	1329.3417	1377.4131	1393.1839	1402.118	1409.7175	1426.8901	1461.7728	1474.1711	1491.2544	1500.5759	1502.1914	1509.7337	1514.1511	2988.9023	3023.3293	3024.543	3035.5054	3074.8244	3080.3805	3092.167	3094.2765	3103.369	3107.9823	3133.7653	3490.6427	3827.3017
CCC1(CO)NC1C	CC[C@@]1(CO)N[C@H]1C	
InChI=1S/C6H13NO/c1-3-6(4-8)5(2)7-6/h5,7-8H,3-4H2,1-2H3	InChI=1S/C6H13NO/c1-3-6(4-8)5(2)7-6/h5,7-8H,3-4H2,1-2H3/t5-,6-/m0/s1
