19
gdb 117304	4.39557	0.74986	0.64835	4.1445	75.75	-0.2526	-0.004	0.2486	1737.0486	0.157339	-456.401611	-456.391095	-456.390151	-456.439017	35.915	
C	-1.2489232692	 1.2317522753	 0.0079311686	-0.392257
C	-0.2292309756	 0.1131258479	 0.104729687	-0.027772
O	 0.2170562887	-0.1806838507	-1.2294202306	-0.277128
C	 1.1375373279	-1.1626459277	-1.3383381561	 0.505369
N	 1.6016904775	-1.8052941623	-0.3563610207	-0.574971
N	 1.439546343	-1.2954800035	-2.705744145	-0.4007
C	 2.3352377374	-2.1868739414	-3.2611438079	 0.420645
C	 2.4401990904	-2.0841230753	-4.7728192478	-0.498498
O	 2.9803109985	-2.9789209019	-2.6039481205	-0.341687
H	-0.80656616	 2.1291857001	-0.4342777328	 0.125762
H	-2.1041227911	 0.9316470049	-0.6045926764	 0.125763
H	-1.6142873813	 1.485491003	 1.0073695907	 0.124106
H	 0.6355790257	 0.3940667558	 0.7141017963	 0.124774
H	-0.6528940086	-0.7950881817	 0.5449729656	 0.124778
H	 2.2787447406	-2.4927971526	-0.6814885582	 0.254199
H	 0.9390273938	-0.6664390273	-3.3147168529	 0.258942
H	 2.7685085993	-1.0834949954	-5.0728648577	 0.14525
H	 3.1620454243	-2.8209701291	-5.1223590126	 0.158426
H	 1.4702610886	-2.2735871381	-5.2443571191	 0.144997
34.2685	49.56	79.301	110.7	128.1864	157.2398	253.0852	257.8869	331.9929	383.3725	436.8131	541.3744	571.937	616.8306	729.8965	735.9607	806.6975	874.8346	900.3097	946.9644	987.349	1032.5064	1052.5445	1089.0047	1124.9527	1136.6138	1185.439	1238.6059	1288.7001	1351.7044	1385.7997	1400.4827	1421.9537	1468.2935	1482.1023	1485.9553	1496.9642	1513.2547	1527.5561	1741.9114	1809.2348	3043.9878	3044.6445	3052.524	3088.4591	3107.2763	3120.2609	3122.9027	3168.0156	3518.6698	3628.7474
CCOC(=N)NC(C)=O	CCOC(=N)NC(=O)C	
InChI=1S/C5H10N2O2/c1-3-9-5(6)7-4(2)8/h3H2,1-2H3,(H2,6,7,8)	InChI=1S/C5H10N2O2/c1-3-9-5(6)7-4(2)8/h3H2,1-2H3,(H2,6,7,8)
