16
gdb 128375	2.66946	1.57794	0.99789	1.3786	78.57	-0.2142	-0.0364	0.1778	1141.1358	0.125287	-434.051383	-434.043064	-434.04212	-434.084789	30.398	
C	-0.1475079252	 1.3789483623	 0.0061877664	-0.314581
N	-0.016111646	-0.0552222296	 0.1108214646	-0.326165
C	 0.6730919587	-0.6718736344	 1.0886582268	 0.407411
N	 1.2601706027	 0.0593979814	 1.9998654278	-0.228313
O	 1.9680669405	-0.6306948046	 3.0007833294	-0.229121
C	 2.0227334086	-1.9593882999	 2.9985162351	 0.108076
C	 1.436445077	-2.7587862136	 2.0841272267	-0.256459
C	 0.6867864987	-2.1588225599	 1.0161745863	 0.257608
N	 0.0488674573	-2.7056054596	 0.0415413122	-0.562689
H	 0.8317384956	 1.8613187576	-0.0954332808	 0.140163
H	-0.7523903503	 1.6138118108	-0.8711590525	 0.126464
H	-0.6302670791	 1.7996896906	 0.8960432366	 0.140167
H	-0.4394126619	-0.6876246132	-0.552821224	 0.271026
H	 2.6080135487	-2.3170707757	 3.839208865	 0.141803
H	 1.5339301199	-3.8346995086	 2.1606763704	 0.108996
H	 0.1181614048	-3.7231761536	 0.0803131299	 0.215614
70.6131	98.9135	139.7575	198.8022	273.0528	364.3991	426.9796	472.1016	502.3057	538.5842	549.505	608.5223	740.1958	764.9953	819.6693	883.6119	893.2782	949.7544	954.3832	1047.7661	1092.9222	1152.9131	1162.6008	1200.8171	1276.485	1295.0503	1390.3818	1452.1518	1457.6231	1474.9723	1515.8541	1582.6512	1609.8168	1640.7451	1684.2761	3024.6165	3072.3156	3135.3151	3192.4323	3213.4245	3465.174	3605.0166
CNC1=NOC=CC1=N	CNC1=NO[CH]C=C1[NH]	
InChI=1S/C5H7N3O/c1-7-5-4(6)2-3-9-8-5/h2-3,6H,1H3,(H,7,8)	InChI=1S/C5H7N3O/c1-7-5-4(6)2-3-9-8-5/h2-3,6H,1H3,(H,7,8)
