20
gdb 89420	2.62414	1.55337	1.29163	2.5218	80.39	-0.222	-0.0063	0.2158	1073.7373	0.17255	-403.141676	-403.133396	-403.132452	-403.173843	33.206	
C	-0.033793883	 1.5129881827	 0.0290207838	-0.453261
C	 0.0078988951	-0.0001221138	 0.0356921569	 0.318837
C	-1.2273082518	-0.679465225	-0.5361789106	-0.271511
C	-1.2219150267	-2.211459406	-0.4550103508	 0.036144
O	-0.3786358389	-2.6771054997	-1.5326189956	-0.424287
C	-0.7370780347	-2.7096474152	 0.8823397809	-0.142502
C	 0.1562456937	-2.0181854519	 1.5970679057	-0.023625
C	 0.7088707139	-0.720659498	 1.1492134996	-0.100377
N	 1.3291779895	-0.5832139716	-0.2008542305	-0.374066
H	 0.8871663744	 1.9213734414	 0.4521043608	 0.126452
H	-0.128209166	 1.8922986988	-0.9951227194	 0.118494
H	-0.8841958293	 1.8897762505	 0.60829288	 0.110563
H	-2.1096295191	-0.3087426341	-0.0001677483	 0.104241
H	-1.3529163663	-0.3998801468	-1.5888748017	 0.115446
H	-2.2444333591	-2.5732968409	-0.6347246597	 0.075079
H	-0.2008734693	-3.611652328	-1.380969603	 0.281599
H	-1.116948371	-3.6623164263	 1.2412523448	 0.090085
H	 0.5002364668	-2.396728956	 2.5562993301	 0.095907
H	 1.2205370028	-0.1365125552	 1.909509314	 0.080734
H	 1.222223479	-1.4606256348	-0.7082965769	 0.236049
152.9853	166.5907	206.2977	289.8351	295.9715	334.3449	363.9371	388.8198	440.1388	472.8241	598.6872	620.2439	683.5521	754.7668	802.07	832.7194	856.2185	912.5137	945.7947	952.4112	986.922	1021.4076	1037.8247	1057.0209	1076.0404	1112.1469	1157.5455	1195.3058	1214.9718	1237.5649	1256.6375	1307.9506	1344.7502	1356.5804	1370.9776	1411.2551	1417.1901	1423.7596	1444.8715	1471.1512	1487.8149	1497.7634	1697.1621	2991.533	3026.9548	3033.5137	3070.0926	3089.2383	3120.8048	3136.5167	3152.5697	3174.1677	3479.1938	3810.762
CC12CC(O)C=CC1N2	C[C@]12C[C@@H](O)C=C[C@H]1N2	
InChI=1S/C7H11NO/c1-7-4-5(9)2-3-6(7)8-7/h2-3,5-6,8-9H,4H2,1H3	InChI=1S/C7H11NO/c1-7-4-5(9)2-3-6(7)8-7/h2-3,5-6,8-9H,4H2,1H3/t5-,6+,7-/m0/s1
