21
gdb 96232	2.26993	1.5355	1.06689	0.2777	80.33	-0.2444	0.0187	0.2632	1187.5715	0.183048	-424.219669	-424.210585	-424.209641	-424.253486	34.743	
C	-0.5085457272	 1.4263675141	 0.1363732996	-0.389519
C	-0.0491764061	-0.0455119656	 0.0287012909	-0.031483
C	 0.5970439283	-0.2766917443	-1.3160230413	-0.080867
C	 1.8812033719	-0.2800496121	-1.6761485416	-0.062152
C	 3.1291519514	-0.0956277654	-0.8464219407	-0.130914
O	 3.1004339503	-0.5550507196	 0.4870178608	-0.233379
C	 2.1885509169	 0.1028204894	 1.3394862433	-0.108329
C	 0.7788930082	-0.4992712498	 1.2407482194	 0.089072
O	 0.010581217	-0.1708377153	 2.3956523944	-0.43544
H	 0.3398046588	 2.115965704	 0.0869694952	 0.113893
H	-1.1781546641	 1.6740809167	-0.6928721102	 0.109481
H	-1.0384247638	 1.5918762928	 1.0760528008	 0.137335
H	-0.9604487631	-0.656998149	 0.0611681623	 0.086454
H	-0.1268595144	-0.3903844287	-2.1218497126	 0.088843
H	 2.0965618038	-0.3905042026	-2.7383881442	 0.087706
H	 3.9500633512	-0.6462748834	-1.3184227394	 0.114297
H	 3.4170106632	 0.9728011401	-0.8700629612	 0.098823
H	 2.5598213403	-0.0548073724	 2.36007889	 0.089871
H	 2.1794345747	 1.1884987446	 1.1593158503	 0.095808
H	 0.9189346767	-1.5884115865	 1.1644519144	 0.075984
H	 0.4377392259	-0.5685499371	 3.1606582298	 0.284516
49.7241	124.411	230.0025	240.1382	279.9331	281.892	309.1074	333.1294	377.607	406.9497	473.9742	564.1492	598.0557	713.3675	774.2879	790.1672	870.1471	924.2852	985.2972	994.8092	1004.9467	1017.8682	1039.3373	1066.5758	1090.1701	1113.766	1151.374	1188.3158	1243.5221	1261.6236	1286.3854	1317.1958	1337.6862	1343.6845	1368.6382	1396.5112	1407.3074	1422.0151	1424.0267	1441.4114	1477.9853	1488.4055	1500.7666	1503.6757	1733.1239	2924.6962	2982.8045	2994.387	3017.7203	3043.2793	3046.3621	3061.9886	3105.8385	3119.8266	3138.2812	3144.1207	3821.8513
CC1C=CCOCC1O	C[C@H]1C=CCOC[C@H]1O	
InChI=1S/C7H12O2/c1-6-3-2-4-9-5-7(6)8/h2-3,6-8H,4-5H2,1H3	InChI=1S/C7H12O2/c1-6-3-2-4-9-5-7(6)8/h2-3,6-8H,4-5H2,1H3/t6-,7+/m0/s1
