18
gdb 30384	3.8421	1.123	0.87845	5.7456	89.22	-0.1951	-0.01	0.1851	1326.8231	0.148457	-398.172534	-398.163594	-398.16265	-398.206496	32.485	
C	-0.1758622531	 1.4336590485	 0.064002249	-0.324896
N	-0.138008921	-0.0141479069	 0.0985753231	-0.325766
C	 0.6169234659	-0.6113312388	 0.9430994209	 0.361763
C	 0.647488604	-2.0738909565	 0.9694036428	-0.238467
C	 1.4232210356	-2.7485333906	 1.8367693503	 0.371405
C	 1.5295157502	-4.2374628094	 1.9478062437	-0.495417
N	 2.2055350069	-2.0052827616	 2.7192922232	-0.370066
C	 2.1623952855	-0.6375228906	 2.6785310273	 0.087965
N	 1.4471175987	 0.0598617501	 1.8791125903	-0.319716
H	 0.4739653336	 1.9245748944	 0.7966000624	 0.120314
H	 0.1025942914	 1.776036717	-0.9414546643	 0.110125
H	-1.2086322798	 1.7696252174	 0.2259101572	 0.110124
H	 0.0204110274	-2.6017319453	 0.2623348857	 0.107524
H	 2.5576387434	-4.5771272821	 1.7707772143	 0.136496
H	 1.2378549253	-4.5836159169	 2.9472360223	 0.136461
H	 0.8799306134	-4.7201590455	 1.2164234258	 0.150699
H	 2.800664353	-2.4694780806	 3.3853041934	 0.258785
H	 2.8068629195	-0.1420940726	 3.4049484427	 0.122667
67.7334	97.1673	152.5805	165.5775	226.8274	290.8799	333.3953	371.0691	460.4371	482.0193	511.0606	575.8037	641.8543	768.4976	772.6218	869.4879	891.659	959.5415	970.4485	1016.6124	1063.7598	1067.3531	1127.5269	1128.6487	1163.0835	1213.8767	1245.7271	1358.9405	1416.0927	1424.7353	1427.4313	1476.0657	1476.8313	1487.8963	1496.894	1505.189	1666.1955	1696.5932	1732.756	3002.7315	3022.1181	3047.2588	3071.0308	3083.2126	3128.8208	3142.1311	3216.8798	3649.8374
CN=C1C=C(C)NC=N1	C[N]C1=C[C@@H](C)NC=N1	
InChI=1S/C6H9N3/c1-5-3-6(7-2)9-4-8-5/h3-4H,1-2H3,(H,7,8,9)	InChI=1S/C6H10N3/c1-5-3-6(7-2)9-4-8-5/h3-5H,1-2H3,(H,8,9)/t5-/m1/s1
