20
gdb 91579	2.94021	1.14449	0.96771	3.2006	81.63	-0.2531	0.0227	0.2758	1294.3444	0.170108	-403.117917	-403.108906	-403.107962	-403.152032	33.714	
C	-0.1488862312	 1.5865318906	-0.1614410808	-0.418714
C	 0.0575888298	 0.0777715013	-0.1622316616	-0.036899
C	 1.3001714419	-0.543503923	-0.8984016994	-0.250953
C	 1.6785177332	-1.2876316974	 0.3888104338	-0.131117
C	 1.9426303736	-0.2876624335	 1.4929770592	-0.341939
C	 0.5269446556	-0.6242793122	 1.1192729495	 0.427506
O	-0.3586792038	-1.220968264	 2.0159832451	-0.227525
C	-0.6871843743	-0.5092534069	 3.1199657678	 0.101431
N	-1.5531474583	-0.9586466219	 3.9190795914	-0.440557
H	 0.742680209	 2.1166423008	 0.1901232458	 0.114216
H	-0.373575745	 1.9508413084	-1.1696299218	 0.120504
H	-0.9863165119	 1.8704512515	 0.4856708961	 0.120181
H	-0.8499742873	-0.4237608893	-0.5120570264	 0.09314
H	 1.0202560254	-1.1971292518	-1.7265065063	 0.110331
H	 2.0461599033	 0.1756890942	-1.2526645829	 0.098425
H	 2.0284475045	-2.3093683292	 0.4587520771	 0.104018
H	 2.2701935014	-0.7293640891	 2.4287897145	 0.124205
H	 2.3804835572	 0.6839064247	 1.2755692534	 0.110456
H	-0.1260079318	 0.4290372809	 3.2107436286	 0.094133
H	-1.6717414913	-0.3133237341	 4.6974615568	 0.229157
59.575	112.9871	126.9257	196.6575	215.3161	264.07	348.8583	372.9606	441.3048	460.5017	557.6814	659.1455	753.8412	806.2685	823.969	849.0712	877.5976	936.0016	944.1624	978.8126	1017.4582	1024.446	1049.8299	1065.3591	1078.9378	1097.3071	1114.0086	1146.2051	1184.9688	1228.7139	1231.7112	1253.5338	1287.126	1296.5914	1362.6098	1387.4801	1408.7711	1415.1854	1479.3331	1495.1676	1496.4624	1503.5515	1743.272	3028.4264	3044.3862	3048.3623	3060.24	3094.2316	3099.4843	3107.6187	3114.394	3196.6597	3205.146	3516.0479
CC1CC2CC12OC=N	C[C@H]1C[C@H]2C[C@@]12O[CH][NH]	
InChI=1S/C7H11NO/c1-5-2-6-3-7(5,6)9-4-8/h4-6,8H,2-3H2,1H3	InChI=1S/C7H11NO/c1-5-2-6-3-7(5,6)9-4-8/h4-6,8H,2-3H2,1H3/t5-,6-,7+/m0/s1
