15
gdb 27370	2.0279	1.87173	0.97991	6.8652	72.18	-0.2314	-0.0243	0.2071	1141.4183	0.11274	-454.01218	-454.003942	-454.002998	-454.045035	30.579	
C	-0.0183522053	 1.451507137	 0.1440012186	-0.469588
C	-0.0078350276	-0.0311660137	-0.0463080724	 0.39762
N	-0.088761237	-0.6041675902	-1.1724778517	-0.334852
C	-0.0749651868	-2.0352237894	-1.2510985032	 0.378543
O	-0.1596000473	-2.5827863877	-2.3293681812	-0.357423
C	 0.0381439244	-2.7291062675	 0.0183690224	-0.348064
C	 0.1295621459	-2.0274623867	 1.1698036597	 0.444448
N	 0.3089359358	-2.5149338123	 2.4361406655	-0.572323
O	 0.1026515233	-0.6694595644	 1.1748101132	-0.245438
H	 0.9007740329	 1.7778005036	 0.6412259313	 0.149777
H	-0.1046213537	 1.9355717218	-0.8272419003	 0.164725
H	-0.8573568973	 1.7481627112	 0.7817403917	 0.147044
H	 0.0540475795	-3.8109074635	 0.0249783713	 0.106705
H	 0.0828823102	-3.4876725963	 2.5708042897	 0.271914
H	 0.012933383	-1.9059489621	 3.1840175354	 0.266912
115.6333	127.4003	171.6178	202.0266	286.992	336.4293	368.5035	486.7213	511.1339	535.4629	586.8906	590.4087	626.8361	694.7577	771.0609	843.5325	901.2505	903.7242	993.533	1063.4647	1076.9252	1110.4581	1156.6227	1265.5064	1303.1693	1404.4795	1433.6476	1470.7094	1475.9734	1622.5351	1670.891	1747.0442	1795.4815	3048.8983	3106.8589	3175.6247	3219.1803	3586.0248	3699.69
CC1=NC(=O)C=C(N)O1	Cc1nc(=O)cc(N)o1	
InChI=1S/C5H6N2O2/c1-3-7-5(8)2-4(6)9-3/h2H,6H2,1H3	InChI=1S/C5H6N2O2/c1-3-7-5(8)2-4(6)9-3/h2H,6H2,1H3
