16
gdb 13912	3.05351	1.69895	1.54919	5.4323	61.41	-0.2367	0.0241	0.2608	889.9464	0.132279	-417.067858	-417.060034	-417.05909	-417.099912	29.339	
N	 0.945471696	 1.3899610681	-0.3882943848	-0.528475
C	 0.5436915555	 0.0087287605	-0.3293780488	 0.010347
C	-0.8282241428	-0.3561761717	 0.1340953261	-0.052297
N	-1.7443366168	 0.7437138127	 0.3616921667	-0.53586
H	-1.7595290098	 1.3012797601	-1.2829748758	 0.315763
H	-2.6692515135	 0.4118234706	 0.6108168913	 0.255781
H	-1.4042594583	 1.3460290145	 1.1051688803	 0.260828
C	-0.4271647844	-0.6707925752	-1.314476796	-0.214762
C	-0.939752712	 0.0827547938	-2.5065915426	 0.408415
O	-0.7761146675	-0.31653034	-3.6305632977	-0.342328
O	-1.5490189909	 1.2590352414	-2.2548811667	-0.395644
H	 1.8498218299	 1.4562499642	-0.8446860776	 0.244493
H	 0.3027377731	 1.9328645536	-0.9577089903	 0.244957
H	 1.345281789	-0.6308192832	 0.0252154634	 0.113924
H	-0.9219317077	-1.2157625946	 0.7949462025	 0.100506
H	-0.2208387498	-1.7078105749	-1.54979412	 0.114353
100.6708	153.2131	180.5757	237.6516	305.2888	364.3731	406.2198	437.9775	513.9026	587.1027	691.246	731.8799	794.1838	802.381	862.7432	909.1719	923.7767	1000.2784	1008.6057	1037.1845	1045.2004	1105.2051	1144.1179	1212.7439	1251.4253	1275.2476	1294.7707	1347.6815	1389.2452	1473.9005	1495.8861	1640.5754	1672.1473	1845.8115	3112.1041	3165.9622	3182.2174	3190.7098	3500.337	3505.2748	3574.3225	3590.5191
NC1C([NH3+])C1C([O-])=O	N[C@H]1[C@@H](N)[C@H]1C(=O)O	
InChI=1S/C4H8N2O2/c5-2-1(3(2)6)4(7)8/h1-3H,5-6H2,(H,7,8)	InChI=1S/C4H8N2O2/c5-2-1(3(2)6)4(7)8/h1-3H,5-6H2,(H,7,8)/t1-,2+,3-
