18
gdb 67231	3.10794	1.3169	1.12123	2.5031	77.24	-0.2494	-0.0239	0.2255	1124.2105	0.147301	-401.893982	-401.886062	-401.885118	-401.926574	30.169	
C	-0.2874504062	 1.5651656037	-0.0550266515	-0.533588
C	 0.0167975024	 0.1088526258	 0.0202159457	 0.35466
C	 0.6565668815	-0.8764650699	-0.8914061915	-0.099807
C	 1.4811016937	-1.5102173696	 0.2370663323	-0.104424
C	 2.8059000062	-0.8206728493	 0.3972487355	 0.157775
O	 3.8714337799	-1.3801015022	 0.4551685004	-0.261729
C	 0.3975042592	-0.8968554234	 1.186364062	-0.145032
C	-0.8623442119	-1.6626271637	 0.7581684699	-0.161304
N	-0.8140545073	-0.9778715943	-0.571890373	-0.187119
H	 0.587090781	 2.1695133882	 0.2085431064	 0.129751
H	-0.593384161	 1.8275887973	-1.0722504607	 0.142054
H	-1.1035219769	 1.8370785489	 0.623557295	 0.130539
H	 0.9151585814	-0.7888820512	-1.9384100522	 0.110519
H	 1.6192051628	-2.594795203	 0.2534205261	 0.089028
H	 2.7351961138	 0.2907271937	 0.4646085929	 0.070893
H	 0.6373252898	-0.668547993	 2.2235798595	 0.087785
H	-0.8236405387	-2.7572592713	 0.7287324455	 0.105396
H	-1.7641290094	-1.335396077	 1.2818495677	 0.114605
90.8247	123.0962	198.7829	253.6356	284.7143	311.3824	409.8404	473.2061	511.6448	618.266	738.5107	767.8723	819.0632	848.7847	887.9649	934.973	959.4763	979.8378	1009.2114	1033.3673	1063.4589	1076.0007	1101.5011	1121.3613	1143.404	1174.9279	1175.7257	1210.3614	1238.7907	1247.8103	1297.8901	1312.6125	1401.2666	1428.8556	1447.7229	1479.5172	1490.8344	1511.3991	1826.3794	2852.792	3030.4899	3041.0428	3079.4969	3092.8557	3106.257	3111.8004	3131.6516	3206.9303
CC12C3C(C=O)C1CN23	C[C@@]12[C@H]3[C@@H](C=O)[C@@H]1CN23	
InChI=1S/C7H9NO/c1-7-5-2-8(7)6(7)4(5)3-9/h3-6H,2H2,1H3	InChI=1S/C7H9NO/c1-7-5-2-8(7)6(7)4(5)3-9/h3-6H,2H2,1H3/t4-,5-,6+,7-,8?/m0/s1
