21
gdb 121797	3.3319	0.71214	0.67116	2.44	81.46	-0.2631	0.0372	0.3004	1736.2772	0.17811	-424.186084	-424.17479	-424.173846	-424.222711	40.763	
C	 0.1632703467	 1.5868211612	 0.0150526522	-0.399464
C	 0.0071583492	 0.0601730002	-0.002400781	 0.143479
O	 0.6620117747	-0.4025301339	 1.1854695203	-0.443571
C	-1.4794016886	-0.3855254189	-0.0119452979	-0.208014
C	-2.2863588288	 0.0858446917	 1.2005138186	-0.179108
C	-3.6663659479	-0.5569196831	 1.2577144029	-0.081664
O	-4.343959679	-0.0329018524	 2.3896612768	-0.420798
C	 0.6722221185	-0.5033114937	-1.1892277225	 0.317316
C	 1.2034472833	-1.0010316667	-2.1463557281	-0.472594
H	 1.2214971577	 1.8500068421	-0.0384799233	 0.132559
H	-0.3566592398	 2.0374629336	-0.8339076319	 0.121136
H	-0.2472625417	 1.9902776076	 0.9431715879	 0.132815
H	 0.7543102258	-1.3590226626	 1.1142494981	 0.282419
H	-1.9400237362	-0.0371557185	-0.9442327753	 0.106141
H	-1.490240035	-1.4828781203	-0.0598678659	 0.092307
H	-1.7426359632	-0.1529454557	 2.1197660148	 0.121394
H	-2.4209683777	 1.1725996323	 1.1819172261	 0.109162
H	-4.2189872688	-0.3412728343	 0.3278845834	 0.082382
H	-3.5641414516	-1.6528996215	 1.3256413317	 0.082178
H	-5.2179427671	-0.4318242268	 2.4286206505	 0.28492
H	 1.6827185594	-1.4287544702	-2.9922796774	 0.197005
62.1572	77.065	98.8288	148.6528	176.1806	186.8476	240.8193	261.266	284.8502	297.9287	355.2508	386.3019	400.6682	496.8988	567.4065	584.6293	629.8315	662.7264	750.5358	761.4725	859.3094	917.6638	951.8375	1006.4836	1033.6144	1051.594	1081.3305	1124.0643	1175.365	1185.1305	1221.6014	1240.9091	1297.372	1304.7018	1318.6504	1368.5096	1388.5493	1410.975	1463.6432	1474.4958	1484.8003	1497.4691	1504.0647	1529.5002	2228.2616	2954.1254	2978.9819	3015.4407	3051.1395	3056.4101	3059.1326	3101.7917	3136.8997	3140.1564	3500.1182	3806.9605	3829.9491
CC(O)(CCCO)C#C	C[C@@](O)(CCCO)C#C	
InChI=1S/C7H12O2/c1-3-7(2,9)5-4-6-8/h1,8-9H,4-6H2,2H3	InChI=1S/C7H12O2/c1-3-7(2,9)5-4-6-8/h1,8-9H,4-6H2,2H3/t7-/m0/s1
