15
gdb 97344	8.47884	0.61611	0.57846	4.0125	72.29	-0.2799	-0.0396	0.2404	1825.4704	0.109749	-453.983831	-453.974202	-453.973258	-454.019902	31.953	
C	-0.1178086797	 1.3380107379	 0.2005808504	-0.321765
N	 0.0730701513	-0.0973832428	 0.1121641358	-0.183917
C	 0.5423490511	-0.5512875245	-0.954294616	 0.111826
O	 0.7282244001	-1.9198430159	-1.0481394656	-0.225527
C	 1.2398657836	-2.416941178	-2.2078327233	 0.48206
O	 1.5487287922	-1.773353548	-3.1670118962	-0.31035
C	 1.3465961267	-3.9313709753	-2.0629053356	-0.483584
C	 1.8880081317	-4.5837606634	-3.2481857451	 0.292448
N	 2.3138394675	-5.1294389822	-4.1714363849	-0.289206
H	 0.4566011269	 1.7220463697	 1.0499254138	 0.142206
H	 0.1791754213	 1.8874279741	-0.7050267116	 0.112384
H	-1.1727778479	 1.544882914	 0.4080959627	 0.142198
H	 0.8375024696	-0.0077487757	-1.8535864293	 0.143443
H	 1.9701680353	-4.1544824841	-1.1900373704	 0.193883
H	 0.3521281003	-4.3297398857	-1.8328562947	 0.193902
32.1132	81.4538	91.9565	97.1404	188.176	212.8168	298.5118	326.3809	372.9946	381.5924	438.5339	569.4707	572.3152	740.2309	919.5467	954.7788	982.4775	982.5153	1061.454	1101.4611	1140.8893	1174.162	1188.757	1218.1861	1347.3158	1373.8386	1433.7322	1446.949	1480.107	1501.3318	1782.3742	1857.922	2382.4589	2992.1328	3057.3645	3078.4232	3093.3007	3096.3196	3122.6162
CN=COC(=O)CC#N	CN=COC(=O)CC#N	
InChI=1S/C5H6N2O2/c1-7-4-9-5(8)2-3-6/h4H,2H2,1H3	InChI=1S/C5H6N2O2/c1-7-4-9-5(8)2-3-6/h4H,2H2,1H3
