21
gdb 102994	1.9666	1.36037	1.12596	5.0576	84.26	-0.241	0.0286	0.2696	1255.1701	0.180378	-383.260021	-383.249552	-383.248608	-383.295121	37.883	
C	 0.4366868043	 1.0577438755	 0.2476985963	-0.394222
C	 0.2033675824	-0.4235085191	-0.0769263977	-0.259107
C	-1.259467342	-0.8454843309	 0.0394957244	 0.122585
C	-2.1338854267	-0.0853898488	-0.8407740627	 0.285591
N	-2.805865929	 0.511025089	-1.568973972	-0.355195
C	-1.6706428482	-2.2710881903	 0.3373523416	-0.037331
C	-0.6733141042	-3.3943204075	 0.5230479493	-0.425947
N	-1.9081727247	-1.2152035968	 1.3112946026	-0.118136
C	-1.1724023889	-1.1601222611	 2.5661306692	-0.323138
H	 1.4912272189	 1.3158459313	 0.1154471992	 0.119595
H	-0.1542391957	 1.7027195736	-0.4088761539	 0.149546
H	 0.160368685	 1.288901554	 1.2809229149	 0.124007
H	 0.5298279074	-0.6309367993	-1.1029051095	 0.121315
H	 0.8217476736	-1.0461312883	 0.572336987	 0.106404
H	-2.592205025	-2.6030117769	-0.140142751	 0.110068
H	 0.2696504096	-3.0785913153	 0.9703666697	 0.125049
H	-1.1045454165	-4.1701486812	 1.1646849364	 0.134181
H	-0.4493891646	-3.8552162654	-0.4442259914	 0.1363
H	-0.1088075441	-1.4282879618	 2.5135304089	 0.10611
H	-1.2497064233	-0.1475795876	 2.9725957506	 0.138292
H	-1.6569280387	-1.8415087729	 3.272160598	 0.134033
85.0131	123.6609	144.3013	154.109	184.7958	191.7893	215.2154	246.8936	299.409	314.1392	418.5748	430.5775	534.5338	564.924	580.5946	659.7806	759.6606	783.1284	817.4279	950.7626	983.3983	1010.5178	1057.4528	1088.1116	1123.9345	1140.2131	1155.5158	1162.9439	1182.7	1246.8735	1295.0488	1346.7719	1371.7778	1406.1431	1416.2332	1423.9379	1452.1663	1472.8516	1486.7972	1495.6398	1500.1363	1503.0146	1506.3876	1510.6253	2349.3916	3008.657	3042.7014	3044.8263	3046.03	3080.0403	3101.4955	3102.7786	3105.6147	3110.8175	3115.8902	3125.2968	3144.7506
CCC1(C#N)C(C)N1C	CC[C@@]1(C#N)[C@@H](C)N1C	
InChI=1S/C7H12N2/c1-4-7(5-8)6(2)9(7)3/h6H,4H2,1-3H3	InChI=1S/C7H12N2/c1-4-7(5-8)6(2)9(7)3/h6H,4H2,1-3H3/t6-,7-,9?/m1/s1
