19
gdb 64097	3.22062	1.25749	1.14845	3.8895	71.55	-0.2526	0.0081	0.2607	1140.6117	0.15815	-460.202664	-460.193763	-460.192819	-460.236	33.562	
C	-0.1271667119	 1.5233384687	 0.042370061	-0.420305
C	-0.0399403719	-0.000496484	-0.0120636858	 0.31231
C	-1.4412704261	-0.629667472	-0.0363927015	-0.432149
C	 0.8068684635	-0.4283077467	-1.2099430421	-0.076157
O	 1.1084757627	-1.8354620776	-1.2103206194	-0.229331
C	 1.3092925976	-2.4850480978	-0.0442452579	 0.380906
O	 1.6826715944	-3.6256290154	-0.0440850217	-0.323424
C	 0.97305779	-1.7577765857	 1.2544033473	-0.221637
O	 0.6897622528	-0.3785207697	 1.1626013766	-0.283728
H	 0.8713687996	 1.959821176	 0.1281666858	 0.128661
H	-0.6116970844	 1.9199075395	-0.8546158774	 0.119995
H	-0.7095578185	 1.8308603051	 0.9147727066	 0.132013
H	-2.0247881895	-0.2231314458	-0.8677429197	 0.123433
H	-1.4106857391	-1.7155460193	-0.1584583692	 0.132668
H	-1.9643354145	-0.4005492614	 0.8961569561	 0.129982
H	 0.2927329242	-0.2419789335	-2.1565127954	 0.122782
H	 1.7513336323	 0.1273355244	-1.2071850209	 0.118964
H	 0.139137003	-2.3177132283	 1.7048644463	 0.133883
H	 1.8299933559	-1.8693883965	 1.9239050712	 0.151135
78.0197	145.9378	202.4196	210.9862	243.451	270.5085	328.8808	373.1882	426.5653	456.431	498.9815	534.6148	564.9481	715.0189	767.0573	816.745	883.978	919.3018	943.8447	996.6172	1017.0972	1048.3993	1086.8584	1127.4209	1199.5317	1221.841	1236.0242	1266.0252	1285.0901	1310.9306	1379.5607	1398.9357	1411.1152	1432.5511	1469.7013	1478.6455	1485.9969	1499.447	1502.6906	1510.9603	1849.6403	2996.0213	3040.3789	3044.7259	3049.983	3098.5196	3102.0548	3116.3295	3122.8252	3126.1541	3127.0177
CC1(C)COC(=O)CO1	CC1(C)COC(=O)CO1	
InChI=1S/C6H10O3/c1-6(2)4-8-5(7)3-9-6/h3-4H2,1-2H3	InChI=1S/C6H10O3/c1-6(2)4-8-5(7)3-9-6/h3-4H2,1-2H3
