22
gdb 108476	2.04152	1.68597	1.16076	2.3426	82.2	-0.2053	0.0701	0.2754	1179.9348	0.193363	-404.29815	-404.288864	-404.28792	-404.332076	35.022	
C	-1.5994909148	 0.8435164798	-0.958474789	-0.394138
C	-0.090284371	 0.8829257596	-0.6897850994	-0.298383
C	 0.7233521621	-0.062868671	-1.5509100356	 0.297195
C	 0.5879124206	-0.0687117982	-3.0924118684	-0.098071
O	 0.529313168	-1.5179737534	-3.1149640985	-0.298494
C	 0.5365870693	-1.601950061	-1.6806095593	 0.061285
C	 1.9343167195	-1.7607583387	-1.0578406615	-0.19547
N	 2.1541739895	-0.3056495579	-1.1902162893	-0.109644
C	 2.8031377793	 0.3906303605	-0.1048899306	-0.330671
H	-1.8425124597	 1.1628394926	-1.9758538843	 0.124876
H	-2.0007460868	-0.1658693587	-0.8216485188	 0.123082
H	-2.1280192319	 1.508794941	-0.2693773338	 0.116878
H	 0.2811433065	 1.9064579797	-0.8367965025	 0.105081
H	 0.0909252605	 0.6453689556	 0.3651813469	 0.10552
H	-0.3344258665	 0.3642560692	-3.5003186911	 0.091546
H	 1.4581538733	 0.3243182445	-3.6276085947	 0.102626
H	-0.2888229121	-2.1993330025	-1.2865490361	 0.077055
H	 1.8746683828	-2.0976552944	-0.0087426831	 0.082335
H	 2.6476300015	-2.3914427383	-1.5994684523	 0.106551
H	 3.8518219285	 0.0760355258	-0.0570472854	 0.122436
H	 2.7942044529	 1.470316237	-0.2845903701	 0.119951
H	 2.3588358286	 0.2039704389	 0.8916067469	 0.088452
82.7013	102.4954	157.5908	211.0994	225.1735	258.9738	290.575	314.7159	388.478	423.982	460.7345	614.3164	651.2008	762.3149	794.335	845.4937	897.8734	955.5813	962.8682	977.0102	1004.459	1019.4918	1040.1742	1068.9219	1124.7032	1138.5088	1161.1208	1172.1587	1174.5231	1184.5781	1214.659	1255.3451	1279.5927	1312.0343	1324.6478	1326.5562	1373.2415	1378.0121	1413.634	1453.3244	1478.6617	1485.8578	1495.6947	1499.7936	1504.2006	1509.662	1512.2444	2917.8885	2955.9866	3013.5161	3015.767	3041.096	3050.1433	3055.4355	3061.3446	3080.4279	3082.0511	3096.7695	3108.074	3114.9378
CCC12COC1CN2C	CC[C@]12CO[C@H]1CN2C	
InChI=1S/C7H13NO/c1-3-7-5-9-6(7)4-8(7)2/h6H,3-5H2,1-2H3	InChI=1S/C7H13NO/c1-3-7-5-9-6(7)4-8(7)2/h6H,3-5H2,1-2H3/t6-,7-/m0/s1
