19
gdb 67607	2.64342	2.17542	1.64977	1.8267	76.69	-0.2353	0.0903	0.3256	895.7325	0.162187	-385.870974	-385.864441	-385.863496	-385.901466	27.84	
C	-0.0253781237	 1.4667474503	 0.0489157894	-0.51442
C	 0.0447381394	-0.0334029244	 0.0105531006	 0.354446
C	-0.4000512032	-0.9060356393	-1.1465362163	-0.117382
C	 0.5172086613	-2.115439167	-1.2467211316	-0.256101
C	 0.8243820505	-2.2507562151	 0.2321363688	-0.06254
C	-0.4692033191	-2.0262022918	 1.0776911077	 0.065131
O	 0.3048942655	-1.2475031353	 2.0399005163	-0.29993
C	 1.0583606692	-0.8441289182	 0.8589641621	 0.00215
C	-1.1416319122	-0.9712555404	 0.1767764935	-0.1288
H	 0.8605538435	 1.9242741448	-0.4072671087	 0.115683
H	-0.901987851	 1.8369552327	-0.4926430622	 0.116575
H	-0.095275377	 1.827552684	 1.0811783011	 0.129826
H	-0.8676881573	-0.4649877391	-2.0201261227	 0.080723
H	 0.0126395419	-2.9975404522	-1.6572860727	 0.100577
H	 1.4123605797	-1.9191622578	-1.8480685918	 0.099985
H	 1.4844023476	-3.0402739784	 0.5834298534	 0.079717
H	-1.0661444169	-2.8179473304	 1.5283143336	 0.075918
H	 2.0331046612	-0.4100520717	 1.0821354212	 0.0717
H	-2.1567021395	-0.6246034307	 0.3153417182	 0.08674
197.1484	209.249	275.26	372.8623	498.8228	529.7568	595.7092	678.3461	724.4989	747.768	823.0991	833.3435	851.1858	870.1098	880.1181	915.6852	919.6554	944.7979	977.3586	986.8253	1003.3679	1039.4033	1049.265	1062.9292	1099.6979	1120.1765	1170.2158	1205.9778	1212.2479	1229.1167	1249.1627	1257.5162	1274.8686	1299.2533	1316.0442	1348.1378	1414.8932	1436.4274	1488.2602	1489.7535	1499.5905	3022.4423	3034.6922	3076.3897	3082.2709	3096.1264	3120.0167	3129.5031	3153.9486	3171.1616	3207.6202
CC12C3CC4C(OC14)C23	C[C@@]12[C@H]3C[C@@H]4[C@@H](O[C@H]14)[C@@H]23	
InChI=1S/C8H10O/c1-8-4-2-3-6(5(4)8)9-7(3)8/h3-7H,2H2,1H3	InChI=1S/C8H10O/c1-8-4-2-3-6(5(4)8)9-7(3)8/h3-7H,2H2,1H3/t3-,4+,5+,6-,7+,8+/m1/s1
