17
gdb 69388	3.27188	1.32081	1.04539	4.6876	76.82	-0.2517	-0.0185	0.2332	1148.8255	0.135369	-418.006313	-417.997784	-417.996839	-418.039645	31.251	
C	-0.1399499461	 1.5585326221	 0.0471440838	-0.489226
C	 0.063659434	 0.0742350627	-0.0084297343	 0.232094
C	-0.7688450779	-0.9390656014	 0.7761904644	-0.332306
C	 0.7165286403	-0.9042271465	 0.9714477864	-0.068701
N	 1.3739275051	-1.5671117568	-0.1585253233	-0.097498
C	 1.930385353	-2.8051487956	-0.3121374567	 0.131214
O	 2.2675889092	-3.2686715215	-1.3795121016	-0.309001
C	 0.794259921	-0.6641262428	-1.1070512969	 0.348262
N	 0.8876466034	-0.5102095791	-2.3495559177	-0.548534
H	 0.7881744516	 2.0926484153	-0.1772998883	 0.136949
H	-0.8888052815	 1.8693161923	-0.6882483488	 0.146771
H	-0.4888708658	 1.8717461786	 1.0355878821	 0.121596
H	-1.362701505	-0.4985763146	 1.5722512108	 0.128834
H	-1.2277083858	-1.7902828974	 0.2823179822	 0.132711
H	 1.2453481718	-0.7088794096	 1.8946368312	 0.127382
H	 2.0696909127	-3.3255645924	 0.6561683285	 0.087322
H	 1.49547612	-1.2236217534	-2.7557801819	 0.252132
73.6155	151.7578	160.0329	175.9283	245.2144	256.5513	299.1798	454.139	462.5992	523.5826	652.38	679.1508	742.3573	824.0099	868.3532	891.7296	929.2581	936.6208	976.3354	994.061	1029.7551	1073.9067	1099.2104	1112.2171	1151.0748	1211.3538	1237.577	1289.4934	1387.5409	1398.015	1423.296	1434.3258	1481.7755	1487.215	1497.3371	1761.6342	1826.4604	2939.1925	3039.5411	3106.6721	3112.9594	3118.8867	3206.1106	3213.2602	3484.2474
CC12CC1N(C=O)C2=N	C[C@]12C[C@H]1N(C=O)[C]2[NH]	
InChI=1S/C6H8N2O/c1-6-2-4(6)8(3-9)5(6)7/h3-4,7H,2H2,1H3	InChI=1S/C6H8N2O/c1-6-2-4(6)8(3-9)5(6)7/h3-4,7H,2H2,1H3/t4-,6+/m1/s1
