19
gdb 63074	3.09854	1.43191	1.33738	1.8311	74.31	-0.2433	0.0746	0.3179	1035.452	0.158976	-422.996336	-422.988347	-422.987403	-423.028259	32.134	
C	-0.2283166611	 1.6112587255	 0.0272555454	-0.468177
C	 0.0158733742	 0.1210440335	 0.0611177558	 0.399844
O	-1.1057221074	-0.6148470265	-0.3862484953	-0.469661
C	 1.3251019914	-0.5676430709	-0.2639050412	-0.127135
C	 2.694258609	 0.1186497443	-0.1388208004	-0.280539
C	 2.9034354673	 0.3903117455	 1.3479234497	 0.039699
O	 1.9995314896	 1.3461585917	 1.9149725919	-0.253616
C	 1.709964466	-0.0512714974	 2.0921097873	 0.019375
C	 0.717480125	-0.670376484	 1.1406252753	-0.109525
H	 0.633320565	 2.1827041887	 0.3617554486	 0.151327
H	-0.4787768583	 1.9120373431	-0.9992638365	 0.093697
H	-1.0812519657	 1.8635625337	 0.6650673584	 0.124676
H	-1.2923647438	-0.3342525661	-1.2896012935	 0.276975
H	 1.2431423635	-1.4076068699	-0.9453959683	 0.088231
H	 3.4755902124	-0.5624869058	-0.4933429631	 0.108937
H	 2.7797211279	 1.0391599168	-0.7271982493	 0.115097
H	 3.9071620645	 0.4072486096	 1.7670622068	 0.09573
H	 1.7435846701	-0.3944703257	 3.12245831	 0.098839
H	 0.2142703207	-1.5728182861	 1.4671351286	 0.096228
151.0656	171.5033	244.9626	261.7549	292.858	353.0839	380.2436	409.9108	451.8868	568.7922	672.5903	712.4666	716.0232	797.7977	837.7451	859.482	879.7746	915.0809	959.3125	970.0353	989.5143	1017.7153	1047.115	1060.9561	1088.4307	1097.6087	1119.5636	1167.4765	1204.5403	1256.6486	1275.7424	1288.8763	1305.9628	1331.143	1341.083	1408.8274	1421.9973	1444.7172	1471.4589	1488.0286	1507.8985	3017.7903	3041.1452	3078.6479	3088.9124	3135.7665	3153.3078	3164.7919	3184.8592	3186.1924	3789.1612
CC1(O)C2CC3OC3C12	C[C@@]1(O)[C@H]2C[C@H]3O[C@H]3[C@@H]12	
InChI=1S/C7H10O2/c1-7(8)3-2-4-6(9-4)5(3)7/h3-6,8H,2H2,1H3	InChI=1S/C7H10O2/c1-7(8)3-2-4-6(9-4)5(3)7/h3-6,8H,2H2,1H3/t3-,4+,5-,6+,7+/m0/s1
