16
gdb 30625	4.56369	1.03872	0.85065	4.0163	74.32	-0.2219	-0.0057	0.2162	1306.7719	0.125616	-437.959231	-437.95093	-437.949986	-437.992736	29.887	
C	-0.042026279	 1.3307490347	 0.0529647858	-0.238869
O	 0.018748599	-0.0944108154	-0.028505885	-0.244325
C	 0.6475866098	-0.5791617767	-1.1305916853	 0.374364
O	 1.122942855	 0.1345891839	-1.9837293647	-0.391398
C	 0.6700792963	-2.0417133268	-1.1439891234	 0.149799
C	 0.1428702756	-2.9012066537	-0.1970031604	-0.15416
N	 0.3920574588	-4.1728184639	-0.6142801537	-0.245304
C	 1.0712787047	-4.1543345211	-1.815059278	-0.062586
C	 1.2579062924	-2.8447674341	-2.1682166428	-0.242542
H	 0.9620288828	 1.7633884916	 0.070456007	 0.136838
H	-0.5832874849	 1.7472924694	-0.8009589829	 0.136758
H	-0.568179958	 1.554469497	 0.981734751	 0.124601
H	-0.3792593253	-2.6943337716	 0.7218628734	 0.141554
H	 0.1199530493	-5.003991213	-0.1183660519	 0.267408
H	 1.3565666258	-5.0721327291	-2.3027410572	 0.127721
H	 1.7528557576	-2.4705519812	-3.049496222	 0.12014
81.1183	107.3449	133.2107	149.3262	233.5925	318.3412	395.9394	501.0971	525.4241	629.0798	646.7925	709.5562	768.6229	798.9207	819.924	873.889	904.2658	940.7469	1012.9737	1069.3158	1097.5622	1156.8166	1178.877	1179.7871	1212.9618	1268.9984	1354.0257	1419.4301	1456.4011	1473.5894	1480.5999	1499.7163	1532.5946	1591.3749	1797.295	3046.3254	3117.848	3149.8955	3263.0675	3280.9772	3283.3939	3677.9613
COC(=O)C1=CNC=C1	COC(=O)c1c[nH]cc1	
InChI=1S/C6H7NO2/c1-9-6(8)5-2-3-7-4-5/h2-4,7H,1H3	InChI=1S/C6H7NO2/c1-9-6(8)5-2-3-7-4-5/h2-4,7H,1H3
