17
gdb 7380	3.96459	1.12257	0.96635	4.6708	61.41	-0.2533	0.0192	0.2725	1207.2886	0.141806	-438.156489	-438.147572	-438.146628	-438.190649	31.067	
C	 0.0045465003	 1.4030292576	-0.0368020755	-0.235969
O	 0.0512222236	-0.0063876954	 0.0266702099	-0.24363
C	-1.2148758231	-0.6083434233	-0.1363116012	-0.057357
C	-1.0362740751	-2.1203855588	 0.0127904869	-0.139706
N	-0.4674420636	-2.4260274988	 1.3326723158	-0.540189
H	-2.2218042913	-3.0316492795	 1.6887344759	 0.306316
H	 0.103842544	-3.263668164	 1.2917407514	 0.248449
H	 0.142848954	-1.6633748674	 1.6116707416	 0.254204
C	-2.4231349887	-2.7768460836	-0.132858577	 0.417417
O	-3.0067533168	-2.8424888755	-1.1816761784	-0.345276
O	-2.9224957601	-3.2252649957	 1.0243305464	-0.363902
H	 1.0235075338	 1.7688006415	 0.1078005174	 0.132801
H	-0.3653433145	 1.7510451258	-1.0125247046	 0.116544
H	-0.6424926718	 1.8232097697	 0.7482608435	 0.112213
H	-1.9171227956	-0.2364227945	 0.629361859	 0.099696
H	-1.643284218	-0.3935419853	-1.1245684464	 0.12753
H	-0.4161956672	-2.4715028728	-0.8204426647	 0.110857
64.5757	105.9197	112.9809	141.23	228.8276	282.9543	334.3197	345.8571	362.2112	444.0252	561.908	660.1174	735.5247	859.0638	882.2179	907.0616	973.1559	1004.4028	1036.6038	1129.868	1155.4973	1180.0657	1212.5032	1227.728	1242.8132	1282.8506	1319.3925	1364.9277	1417.9707	1436.4536	1479.6812	1485.7801	1501.709	1525.796	1659.5338	1869.58	2963.4815	2983.1799	3031.7571	3034.8154	3048.0768	3121.7897	3442.7875	3504.9232	3579.9125
COCC([NH3+])C([O-])=O	COC[C@@H](N)C(=O)O	
InChI=1S/C4H9NO3/c1-8-2-3(5)4(6)7/h3H,2,5H2,1H3,(H,6,7)	InChI=1S/C4H9NO3/c1-8-2-3(5)4(6)7/h3H,2,5H2,1H3,(H,6,7)/t3-/m1/s1
