19
gdb 119123	2.49483	1.24421	0.92219	6.9605	72.96	-0.2482	0.0189	0.2671	1296.866	0.159797	-456.341949	-456.33282	-456.331876	-456.376172	33.473	
C	 0.1152795626	 1.4413702876	 0.2220164957	-0.323488
N	 0.3023610824	-0.0053456629	 0.1182772171	-0.299403
H	 1.046553465	-0.3030261627	 0.7428001176	 0.239033
H	-0.9579781336	-1.2528801736	 0.2699895299	 0.304852
C	 0.5944276645	-0.4750752644	-1.2432451131	-0.256436
C	 0.6494278599	-1.9893021839	-1.2926413932	 0.133787
C	 1.5045084304	-2.6472179272	-2.3091634796	-0.265365
N	 1.9144829562	-2.6724799531	-0.8986966497	-0.334878
C	-0.5927173814	-2.7595021447	-0.8409182256	 0.413531
O	-0.840527485	-3.8672703636	-1.236567141	-0.33555
O	-1.3850714962	-2.1141848121	 0.0231139846	-0.385111
H	 0.9737202097	 2.0189697734	-0.1548968082	 0.113276
H	-0.7684178525	 1.7338188958	-0.3533670655	 0.14138
H	-0.055350059	 1.7124194773	 1.2666928327	 0.136992
H	-0.2128445918	-0.1101484301	-1.8910385074	 0.131709
H	 1.5354689852	-0.0587434758	-1.6416937367	 0.095137
H	 1.1714774865	-3.6035841688	-2.6961047772	 0.156124
H	 2.0501489571	-2.0122209186	-3.0023737029	 0.109849
H	 2.6362576097	-1.9690451424	-0.7451159676	 0.224562
71.4325	97.3998	144.4015	194.4897	252.7056	273.7064	298.9025	339.8194	362.4221	403.0489	509.1996	617.93	746.7449	763.5676	808.8471	848.9738	902.6625	929.7775	974.253	977.629	996.7241	1018.4902	1079.5435	1128.7601	1145.0642	1157.3925	1186.644	1220.7575	1269.4944	1277.3365	1327.7563	1370.7742	1406.6169	1460.1905	1474.0634	1491.3952	1494.5218	1497.3562	1506.8599	1516.764	1857.5624	2955.8961	2986.0719	3046.4884	3080.1912	3117.0869	3123.9838	3222.5367	3236.8438	3463.8944	3507.8634
C[NH2+]CC1(CN1)C([O-])=O	CNC[C@]1(CN1)C(=O)O	
InChI=1S/C5H10N2O2/c1-6-2-5(3-7-5)4(8)9/h6-7H,2-3H2,1H3,(H,8,9)	InChI=1S/C5H10N2O2/c1-6-2-5(3-7-5)4(8)9/h6-7H,2-3H2,1H3,(H,8,9)/t5-/m0/s1
