17
gdb 41729	3.45068	1.76474	1.75497	2.3504	65.43	-0.2386	0.0901	0.3287	847.1951	0.140017	-458.963245	-458.957344	-458.9564	-458.993271	24.931	
C	-0.0145837605	 1.5842835993	-0.006457787	-0.076989
O	 1.3832257892	 1.9368028958	-0.0031406643	-0.285222
C	 2.1040521886	 0.7258858887	-0.1540548919	 0.080496
C	 2.0270992531	-0.199184833	 1.0838751985	 0.179675
O	 2.4964987338	-1.4368128014	 0.6139886279	-0.254321
C	 1.8285347531	-1.6172154255	-0.6563862511	-0.102918
C	 1.2014753734	-0.2496484887	-0.943809591	-0.113959
C	 0.0363685913	 0.060156452	 0.0276730467	 0.054324
O	 0.616173241	-0.2769480201	 1.3118291179	-0.286913
H	-0.4992683882	 1.9870189768	 0.8874766769	 0.117603
H	-0.5035729637	 1.9882186625	-0.9038714392	 0.095052
H	 3.1091519847	 0.9302196827	-0.5184697414	 0.095816
H	 2.5425803971	 0.0659060163	 2.0047921588	 0.097977
H	 2.5706034702	-1.9035433052	-1.4089052287	 0.111631
H	 1.084893756	-2.4191493725	-0.5745015703	 0.111258
H	 1.0162784205	-0.0152307756	-1.9911613563	 0.08858
H	-0.9067396097	-0.4702999621	-0.1045282555	 0.08791
243.5218	273.9042	363.1981	380.2288	519.7172	552.9514	655.6707	751.2256	779.4638	855.8294	874.9425	900.4416	924.0898	939.6738	955.9368	964.2723	970.1196	1007.4845	1016.3435	1032.4865	1075.9484	1106.1694	1112.2358	1169.1727	1192.3869	1223.2938	1249.8984	1261.9178	1272.7571	1284.4667	1310.7496	1330.2275	1353.1929	1375.498	1400.9755	1510.2354	1522.9043	3008.4573	3027.3382	3071.445	3088.2234	3120.838	3131.5838	3143.1409	3155.9414
C1OC2C3OCC2C1O3	C1O[C@H]2[C@@H]3OC[C@H]2[C@H]1O3	
InChI=1S/C6H8O3/c1-3-4-2-7-5(3)6(8-1)9-4/h3-6H,1-2H2	InChI=1S/C6H8O3/c1-3-4-2-7-5(3)6(8-1)9-4/h3-6H,1-2H2/t3-,4-,5+,6+/m0/s1
