17
gdb 73765	2.14541	1.91301	1.09911	3.7134	75.95	-0.2396	-0.0604	0.1792	1096.7832	0.134321	-421.842346	-421.833634	-421.83269	-421.876074	31.56	
C	-0.111584937	 1.5084983648	 0.1495923284	-0.504328
C	-0.0580502889	 0.0251878141	-0.003002907	 0.217584
C	-0.0036342223	-0.7131865351	-1.130941702	 0.081609
C	 0.0472683441	-0.2858054655	-2.5615548633	-0.497498
C	 0.03770396	-2.1671987054	-0.7842957291	 0.362848
O	-0.0004758632	-3.094470611	-1.5581023607	-0.320258
C	 0.0887872909	-2.2543888901	 0.7376826922	-0.095561
O	 1.2514149231	-1.6058000015	 1.2880941281	-0.249734
C	 0.0110027147	-0.8738220069	 1.2078308041	-0.056062
H	 0.783321569	 1.8719147164	 0.6709206046	 0.149606
H	-0.1808068241	 2.0243687357	-0.8099723033	 0.136012
H	-0.971022086	 1.8069271145	 0.7626781257	 0.138014
H	 1.0345410937	-0.4920733596	-2.991696084	 0.145797
H	-0.6729655848	-0.8598719959	-3.1529735281	 0.147789
H	-0.1626107961	 0.7786681653	-2.6867708376	 0.12269
H	-0.2822022786	-3.126940895	 1.2650120444	 0.115586
H	-0.4273433845	-0.5845099851	 2.1583083976	 0.105906
61.6175	113.6934	149.7248	195.6075	221.766	267.5349	294.8858	420.983	476.2658	540.2442	582.7846	661.3582	674.5602	802.7955	829.0766	849.4557	895.6256	962.8668	991.1686	1037.6027	1066.9401	1071.7062	1115.4457	1130.2699	1194.7912	1234.989	1298.4688	1327.4448	1400.5511	1415.5596	1419.21	1472.7941	1477.0787	1480.9722	1485.783	1700.1012	1818.8332	3022.8703	3036.6318	3069.3158	3090.9995	3125.7601	3130.9994	3162.4024	3180.7104
CC1=C(C)C(=O)C2OC12	CC1=C(C)C(=O)[C@H]2O[C@@H]12	
InChI=1S/C7H8O2/c1-3-4(2)6-7(9-6)5(3)8/h6-7H,1-2H3	InChI=1S/C7H8O2/c1-3-4(2)6-7(9-6)5(3)8/h6-7H,1-2H3/t6-,7+/m0/s1
