15
gdb 7072	2.22139	1.75978	1.03887	5.846	62.89	-0.2872	-0.0024	0.2848	1086.1043	0.116709	-399.840501	-399.831772	-399.830828	-399.874805	29.524	
C	-0.1356428375	 1.6492751258	 0.072540271	-0.399686
C	-0.0014213542	 0.134637667	-0.0125815954	 0.104397
C	-1.3740049019	-0.5587097813	-0.1317011955	-0.333354
C	-1.2637100662	-2.0139085917	-0.079572563	 0.260733
N	-1.1452000991	-3.1616280268	-0.0215575275	-0.295518
O	 0.7674092674	-0.1816255317	-1.1783940904	-0.191712
C	 1.823407329	-1.0215473388	-1.0576840662	 0.176232
O	 2.5133884012	-1.3130317965	-1.9837379204	-0.263502
H	 0.852801254	 2.1102153041	 0.1353025605	 0.141397
H	-0.6402169375	 2.0409821915	-0.8154987581	 0.142433
H	-0.7100433322	 1.9364304591	 0.9580497161	 0.128819
H	 0.515140232	-0.2494962464	 0.8765764146	 0.10974
H	-2.0274112097	-0.2223484812	 0.6802691862	 0.157794
H	-1.8420369771	-0.2639777357	-1.0768862794	 0.169947
H	 1.9658884118	-1.3853382476	-0.0226315926	 0.09228
45.9944	81.4566	149.3559	156.9956	214.1244	267.8823	305.9647	390.3057	392.6388	489.3274	563.9644	614.0394	875.8618	900.7832	940.2376	975.8442	1037.2292	1084.7424	1119.3163	1140.7185	1181.5944	1252.8588	1306.8626	1376.4971	1380.2841	1415.9514	1439.2925	1453.5032	1486.5447	1497.4211	1874.7483	2366.0721	2963.1298	3027.8634	3047.698	3055.6736	3100.1735	3123.9436	3132.6249
CC(CC#N)OC=O	C[C@@H](CC#N)OC=O	
InChI=1S/C5H7NO2/c1-5(2-3-6)8-4-7/h4-5H,2H2,1H3	InChI=1S/C5H7NO2/c1-5(2-3-6)8-4-7/h4-5H,2H2,1H3/t5-/m0/s1
