16
gdb 126074	3.99689	1.11806	1.00589	1.6535	71.29	-0.2537	-0.0134	0.2403	1184.5431	0.125964	-434.050453	-434.042684	-434.04174	-434.08352	28.376	
C	-0.1087698285	 1.5196461566	-0.2283017121	-0.434963
C	-0.0524749762	 0.041450683	 0.0458618365	 0.077538
O	 1.210235525	-0.6139268674	-0.0852826213	-0.248502
C	 0.6221426552	-0.5688252963	 1.2157525756	-0.067548
C	 1.320733599	 0.1765474462	 2.2827829825	 0.331298
N	 2.1374866967	 1.2160963743	 2.0742998737	-0.280586
N	 2.5159550717	 1.5544198696	 3.2983694578	-0.062281
N	 2.0321626873	 0.8316646374	 4.2975225374	-0.195997
C	 1.2636698334	-0.0587197798	 3.6711921492	-0.129499
H	 0.7156582517	 2.0429604736	 0.2577724284	 0.157565
H	-0.0523301156	 1.7004534717	-1.3069024852	 0.128634
H	-1.0579840928	 1.9323515016	 0.1306092374	 0.118262
H	-0.8820646578	-0.5360479446	-0.3698671596	 0.0905
H	 0.2312832159	-1.5272450029	 1.5620923691	 0.092147
H	 3.163721265	 2.3093923307	 3.4577406741	 0.296247
H	 0.7191701199	-0.8084679937	 4.2229393863	 0.127185
49.2031	138.2965	171.8463	201.0405	290.7295	386.9175	428.652	513.0547	539.1031	716.8385	727.1057	754.5473	797.7285	868.3772	882.3351	977.5507	995.5555	1016.1635	1047.601	1091.3181	1153.1766	1167.1965	1174.7828	1207.1448	1239.9169	1287.9602	1348.1173	1380.7036	1402.0107	1423.4985	1443.9675	1488.6901	1497.7732	1521.0221	1569.4401	3038.9953	3074.7543	3094.9163	3099.0727	3149.8169	3268.6354	3666.3301
CC1OC1C1=NNN=C1	C[C@H]1O[C@H]1c1n[nH]nc1	
InChI=1S/C5H7N3O/c1-3-5(9-3)4-2-6-8-7-4/h2-3,5H,1H3,(H,6,7,8)	InChI=1S/C5H7N3O/c1-3-5(9-3)4-2-6-8-7-4/h2-3,5H,1H3,(H,6,7,8)/t3-,5-/m1/s1
