25
gdb 109923	2.0459	1.29426	1.03781	1.2751	88.52	-0.2595	0.0733	0.3328	1342.6193	0.227195	-389.485792	-389.475058	-389.474114	-389.520805	40.909	
C	-0.4124967668	 1.127461666	-1.4620231296	-0.409493
C	 0.0940961866	-0.2177981378	-0.9483278206	 0.027432
C	 1.5528786122	-0.5891577298	-1.34999696	-0.281244
C	 2.0292278847	-0.396563501	 0.1275946181	 0.322385
C	 2.7774560089	-1.5857006394	 0.7290654793	-0.445512
C	 2.8473642598	 0.88545269	 0.3185665311	-0.447573
C	 0.5195548824	-0.2984306744	 0.5539726816	-0.000083
C	 0.0699844417	 0.7807674246	 1.5203985856	-0.109756
O	-1.3368423482	 0.6349252787	 1.6954205473	-0.423819
H	 0.3092352141	 1.9346187721	-1.2953356133	 0.10845
H	-0.5982706774	 1.0791579429	-2.5406879049	 0.107164
H	-1.3468728115	 1.4039268433	-0.9639120586	 0.12597
H	-0.6389616648	-0.984630208	-1.2136871492	 0.068726
H	 1.6593762498	-1.6196225585	-1.7010592922	 0.089946
H	 2.0236727147	 0.0713037211	-2.0854030391	 0.087591
H	 3.7656547359	-1.7043292384	 0.2684732983	 0.108471
H	 2.9287831277	-1.4564246849	 1.8077090886	 0.108279
H	 2.2249700504	-2.5193566862	 0.5793630628	 0.108769
H	 2.3596055813	 1.7610787799	-0.1192795436	 0.114334
H	 3.027581211	 1.0968975114	 1.3790561478	 0.108754
H	 3.8250559386	 0.7810823158	-0.1662873479	 0.109988
H	 0.1944680211	-1.2554446172	 0.9762297412	 0.071321
H	 0.6007924321	 0.6630734453	 2.4797748681	 0.082454
H	 0.311812726	 1.7824546188	 1.1372844538	 0.083284
H	-1.6419074906	 1.3435634555	 2.2696849153	 0.28416
74.7642	107.2153	174.6653	214.2639	228.4358	246.8289	252.118	281.8124	286.1315	314.3954	333.361	352.7955	400.1805	483.4838	529.5925	629.2329	769.3914	802.9055	842.1486	895.0016	904.3381	951.2667	971.1781	999.607	1008.0915	1016.9679	1037.9079	1069.8795	1109.2542	1132.7749	1183.6675	1192.7644	1210.1677	1235.3903	1256.9117	1264.0949	1285.406	1287.196	1319.162	1366.8199	1372.5468	1399.9538	1407.208	1420.0444	1459.925	1483.6189	1484.5933	1489.2012	1494.5143	1499.7903	1505.7652	1510.0899	1522.8701	2961.954	3005.005	3015.5033	3024.7398	3028.7931	3041.2138	3042.6234	3058.4973	3078.463	3085.2181	3089.161	3090.6395	3095.6687	3103.9293	3107.9809	3825.7791
CC1CC(C)(C)C1CO	C[C@H]1CC(C)(C)[C@H]1CO	
InChI=1S/C8H16O/c1-6-4-8(2,3)7(6)5-9/h6-7,9H,4-5H2,1-3H3	InChI=1S/C8H16O/c1-6-4-8(2,3)7(6)5-9/h6-7,9H,4-5H2,1-3H3/t6-,7-/m0/s1
