16
gdb 51810	3.48271	1.22675	1.1175	6.4004	65.36	-0.2544	0.0183	0.2726	1100.7958	0.125129	-475.014866	-475.007193	-475.006249	-475.047729	28.095	
O	 0.6060571501	 0.1450011502	 0.2371103749	-0.280515
C	 0.7338964945	 1.319689219	 0.4132172709	 0.168237
O	 0.6130011094	 2.1939611331	-0.6264121026	-0.216737
C	 0.8721399019	 3.5674141549	-0.4153208239	 0.244247
O	 0.2080944982	 4.019131223	 0.749780765	-0.269963
C	 0.9623654626	 5.0443527696	 1.3972252511	-0.080945
C	 2.3884586865	 4.8727710044	 0.9140411703	-0.05266
N	 2.8556140049	 3.483971582	 1.0697724811	-0.332239
C	 2.3336078073	 3.9409394867	-0.232343556	-0.099455
H	 0.9415542775	 1.8065491799	 1.3720733673	 0.122401
H	 0.466341335	 4.0511511912	-1.3140052004	 0.099642
H	 0.5855913606	 6.0382762234	 1.1165746745	 0.107558
H	 0.846610455	 4.9117657954	 2.4771833518	 0.127183
H	 3.0902649055	 5.6969812421	 0.9700124646	 0.108065
H	 3.8712978296	 3.4525623405	 1.0324616355	 0.245102
H	 2.9816224613	 4.0099588446	-1.0977747042	 0.110079
79.1418	96.0997	169.1827	244.4594	266.8145	374.161	456.5564	465.9241	665.051	736.5632	793.6949	816.5963	875.681	883.3185	918.5412	977.6145	998.0168	1024.5396	1030.3676	1068.1384	1076.7165	1106.0776	1139.2182	1158.881	1180.3012	1234.2875	1256.7565	1326.9746	1369.4067	1391.9126	1417.2323	1430.0033	1436.7906	1510.8698	1854.5308	3007.576	3020.9752	3084.2984	3095.2862	3181.352	3194.4318	3510.9904
O=COC1OCC2NC12	O=CO[C@H]1OC[C@H]2N[C@@H]12	
InChI=1S/C5H7NO3/c7-2-9-5-4-3(6-4)1-8-5/h2-6H,1H2	InChI=1S/C5H7NO3/c7-2-9-5-4-3(6-4)1-8-5/h2-6H,1H2/t3-,4-,5-/m1/s1
