18
gdb 37093	2.26305	1.99762	1.33551	2.2881	76.13	-0.2356	0.0759	0.3115	998.9279	0.147211	-401.856644	-401.849094	-401.84815	-401.888415	30.131	
C	 0.0694555819	 1.4390218722	-0.0759598965	-0.246341
C	 1.3050053169	 0.6275260918	-0.0191364682	-0.145621
N	-0.0701369368	-0.0297966131	-0.0022398769	-0.17434
C	 0.2068525691	-0.5258041828	-1.3819713652	 0.288508
C	-0.1793442835	-1.8958877357	-1.8204596886	-0.327816
C	-0.8209972357	-0.6791529866	-2.4588502201	-0.337506
C	 1.6028469902	 0.0594957117	-1.3882844517	 0.402293
C	 2.5261648738	 0.4827572111	-2.4407227618	-0.274202
O	 2.7505980003	-0.7140283662	-1.6721401131	-0.274408
H	-0.2446052159	 1.9420453271	 0.8336626691	 0.124997
H	-0.2017235766	 1.9465342129	-0.9989486481	 0.117702
H	 1.9722666361	 0.5884650334	 0.8344209028	 0.114276
H	 0.5535151912	-2.4590103144	-2.3880426772	 0.128926
H	-0.7799401053	-2.4780402939	-1.1306186282	 0.129487
H	-1.8499553532	-0.4568252331	-2.1960903275	 0.124053
H	-0.5468895185	-0.4185673657	-3.4761231993	 0.115061
H	 2.2697232773	 0.3197219261	-3.4868510647	 0.116216
H	 3.2269969286	 1.2957447551	-2.2554176048	 0.118713
124.7143	182.9411	195.4102	265.0078	315.3963	371.1358	506.942	555.3504	584.4406	587.6546	756.7794	765.0994	793.8924	862.478	868.3341	909.1214	921.2901	972.0474	981.2474	991.6159	1036.5941	1046.3653	1051.5631	1073.6214	1113.9527	1120.7022	1129.0452	1150.5835	1163.4276	1188.8402	1222.5771	1242.7242	1310.8578	1365.0271	1452.7739	1458.5662	1492.294	1502.0322	1543.8256	3079.7744	3106.5116	3127.6644	3137.3745	3166.8112	3180.7701	3200.3316	3211.5392	3231.2063
C1C2N1C1(CC1)C21CO1	C1[C@H]2N1C1(CC1)[C@]12CO1	
InChI=1S/C7H9NO/c1-2-6(1)7(4-9-7)5-3-8(5)6/h5H,1-4H2	InChI=1S/C7H9NO/c1-2-6(1)7(4-9-7)5-3-8(5)6/h5H,1-4H2/t5-,7-,8?/m1/s1
