17
gdb 22839	2.93489	1.30677	0.99417	1.788	73.71	-0.2433	-0.0128	0.2305	1169.8973	0.13689	-455.100148	-455.091849	-455.090905	-455.133776	30.637	
O	-0.0969029934	 1.3627137313	-0.1442716712	-0.391901
N	 0.026950824	-0.0303931022	-0.1041883929	-0.168757
C	-1.0890554617	-0.6347441289	 0.0515887246	 0.34798
C	-1.0620059737	-2.1324385591	 0.0940875716	-0.295428
C	-1.7567220653	-2.7705828715	-1.1237804076	-0.152378
N	-3.1753127744	-2.533880791	-1.3179483834	-0.243685
C	-3.7663424511	-1.4265259322	-1.2202753632	 0.122693
O	-3.3532126604	-0.1773512039	-0.8563006326	-0.228377
C	-2.4280765577	 0.0348692084	 0.2195834776	-0.159898
H	 0.8171180598	 1.6430357294	-0.2592570135	 0.311188
H	-0.0234703118	-2.4731227532	 0.1261008708	 0.122051
H	-1.5615822603	-2.4794225311	 1.00850008	 0.111132
H	-1.2337461624	-2.4425534659	-2.0331752064	 0.125857
H	-1.6165606612	-3.8548170163	-1.0615218756	 0.112372
H	-4.8133157477	-1.3637321152	-1.5218154272	 0.119866
H	-2.8869640661	-0.3322756145	 1.14828294	 0.115716
H	-2.3148853666	 1.1145376559	 0.2814823692	 0.15157
42.0869	119.0883	148.3772	287.2931	303.9145	320.6301	389.8664	399.7592	459.7792	524.0033	574.6399	667.9467	734.7979	831.1358	849.3945	925.1393	952.5344	970.0328	977.3943	1007.8406	1048.5355	1084.1643	1152.3796	1206.7589	1271.638	1280.5764	1301.4758	1344.0682	1384.5813	1398.3861	1428.6053	1432.7576	1471.9157	1489.5729	1493.8088	1729.0455	1758.9511	3009.4629	3013.0571	3024.1695	3064.192	3099.3198	3124.0493	3167.1512	3823.4
ON=C1CCN=COC1	ON=C1CCN=COC1	
InChI=1S/C5H8N2O2/c8-7-5-1-2-6-4-9-3-5/h4,8H,1-3H2	InChI=1S/C5H8N2O2/c8-7-5-1-2-6-4-9-3-5/h4,8H,1-3H2
