17
gdb 10351	2.5844	1.75072	1.1355	3.5181	61.58	-0.2334	0.0264	0.2598	1045.0727	0.140792	-438.149544	-438.140385	-438.139441	-438.183485	32.626	
C	 0.2839834169	 1.369105615	 0.4087022573	-0.243617
O	 0.2430621692	-0.0130340473	 0.0934564191	-0.232497
C	-1.0375703681	-0.5451387136	-0.0894754635	 0.001515
C	-0.8390923502	-1.8730820915	-0.8489638109	-0.111565
O	-2.0564591883	-2.4170982692	-1.3535722674	-0.408058
C	-1.7930491695	-0.731052114	 1.2520563731	 0.361094
N	-2.9782957021	-1.3953557039	 1.1342029498	-0.518216
O	-1.3747148819	-0.2828675556	 2.3010623464	-0.357311
H	 1.3395469079	 1.6485392344	 0.4440504247	 0.125007
H	-0.2128326292	 1.965297881	-0.3734301467	 0.09376
H	-0.1827015011	 1.5723905779	 1.3759178375	 0.147068
H	-1.6525513367	 0.120848788	-0.7252159905	 0.072486
H	-0.1145927091	-1.6935243392	-1.6515116596	 0.118707
H	-0.4191021983	-2.6287478438	-0.1795908966	 0.137311
H	-2.3402516864	-1.8718740072	-2.0949945219	 0.29376
H	-3.1488836416	-1.9496081252	 0.3056342875	 0.265334
H	-3.4495178117	-1.6356499958	 1.9925569518	 0.25522
57.4862	122.0084	142.1317	195.0436	234.9449	242.1426	304.1642	342.1768	391.4304	436.084	478.5397	527.4494	608.9831	650.6241	736.5044	788.8889	999.5642	1018.6121	1058.7323	1076.8895	1136.7278	1156.2711	1176.2832	1196.9255	1233.5652	1299.3021	1328.444	1359.7107	1392.7	1414.4095	1474.4785	1479.5805	1504.9585	1518.785	1617.9631	1801.155	2917.637	2979.8951	3041.0451	3089.2299	3106.5664	3132.0431	3533.4547	3682.8702	3814.2034
COC(CO)C(N)=O	CO[C@@H](CO)C(=O)N	
InChI=1S/C4H9NO3/c1-8-3(2-6)4(5)7/h3,6H,2H2,1H3,(H2,5,7)	InChI=1S/C4H9NO3/c1-8-3(2-6)4(5)7/h3,6H,2H2,1H3,(H2,5,7)/t3-/m0/s1
