19
gdb 90323	2.5582	1.72409	1.25388	1.9883	76.2	-0.2309	0.0225	0.2534	1042.054	0.160806	-419.18247	-419.174301	-419.173357	-419.215033	31.958	
C	-0.4335361455	 1.3935677108	-0.1254265563	-0.384666
C	-0.0522812841	-0.0759159759	-0.054120082	 0.006327
N	 1.2703776691	-0.4204602418	-0.7111435351	-0.38451
C	 1.8434857174	-0.5915277148	 0.539465786	 0.380811
N	 2.9372328097	-0.3876224535	 1.1567155116	-0.326145
C	 2.5192867237	-0.4457641747	 2.5903525113	-0.201455
C	 1.0025056363	-0.0252270996	 2.6200616552	 0.080263
O	 0.8583094808	 1.3808217408	 2.7044331532	-0.430297
C	 0.5490715018	-0.6718149867	 1.2820094173	-0.130554
H	 0.3752680221	 2.042753329	 0.2151036972	 0.11394
H	-0.6836419906	 1.6666978655	-1.1566547027	 0.116281
H	-1.3076375307	 1.5929101167	 0.500348477	 0.138227
H	-0.8592484244	-0.6936191676	-0.458402768	 0.090899
H	 1.6971630556	 0.17732866	-1.4103872791	 0.238122
H	 2.6651088229	-1.4512051695	 3.007561825	 0.106247
H	 3.1198826472	 0.2486143044	 3.1867168101	 0.109578
H	 0.4661097412	-0.4300976436	 3.4823419399	 0.087633
H	 1.5528256747	 1.7780713004	 2.1671266602	 0.289682
H	 0.1827577228	-1.68644297	 1.4588425192	 0.099618
71.4038	175.6472	229.2409	238.2079	288.1572	367.5496	376.3275	420.6294	441.2408	562.326	635.0157	694.2791	756.5544	772.338	810.9291	826.7825	859.1741	925.1854	973.1942	977.3072	1004.5515	1050.52	1078.8597	1119.5278	1122.7435	1152.8761	1191.2428	1228.783	1248.9246	1276.1669	1290.1794	1310.2347	1340.093	1361.789	1387.1448	1413.9293	1432.3039	1480.8051	1491.4407	1494.2658	1757.2031	3017.5597	3041.1266	3059.5576	3073.9831	3079.414	3087.9009	3110.2311	3136.9097	3544.5228	3799.2702
CC1NC2=NCC(O)C12	C[C@H]1N[C]2[N]C[C@@H](O)[C@@H]12	
InChI=1S/C6H10N2O/c1-3-5-4(9)2-7-6(5)8-3/h3-5,9H,2H2,1H3,(H,7,8)	InChI=1S/C6H10N2O/c1-3-5-4(9)2-7-6(5)8-3/h3-5,9H,2H2,1H3,(H,7,8)/t3-,4-,5-/m1/s1
