19
gdb 73116	2.64184	1.44378	1.2499	2.4123	74.38	-0.238	-0.0164	0.2216	1077.8165	0.159131	-423.050292	-423.042139	-423.041195	-423.083238	32.035	
O	-0.0574635664	 1.4179852966	-0.1690563412	-0.483209
C	 0.0254708933	 0.017904564	-0.0059581031	 0.403267
C	 0.3680927571	-0.8171514259	-1.2719483954	-0.286989
C	-0.8561136825	-1.7263483211	-0.975354448	-0.240457
C	-1.3770157354	-0.678289269	 0.0537092456	-0.035113
C	-1.6147864068	-1.1649697901	 1.4771568048	-0.344409
C	-0.2049350182	-1.3351829	 2.0559143771	 0.394793
O	 0.1116253816	-2.0683711737	 2.9547610602	-0.304982
C	 0.7498336459	-0.4055911443	 1.2864421878	-0.400717
H	 0.8364201807	 1.7653432552	-0.263849626	 0.275881
H	 0.2202569348	-0.2097674263	-2.1681827064	 0.108788
H	 1.3526203387	-1.2910080315	-1.316777097	 0.095639
H	-1.5146805467	-1.9495788892	-1.8164070224	 0.108449
H	-0.5788764083	-2.6728917301	-0.5011253923	 0.109305
H	-2.1696616462	-0.045556576	-0.3463515602	 0.084585
H	-2.1303176469	-0.4035848159	 2.0784287412	 0.131225
H	-2.1851498203	-2.0932902931	 1.5638203236	 0.125824
H	 1.7179333311	-0.8922643804	 1.1405593161	 0.123779
H	 0.9133997646	 0.4795134907	 1.9131291458	 0.134341
52.8783	113.8334	252.2032	271.1453	337.497	370.8747	403.9017	437.2776	488.9151	568.1436	604.6101	654.6831	736.1108	774.9701	802.3393	825.0201	881.9683	899.4448	944.7973	961.3906	1013.2099	1045.7194	1059.5739	1121.1365	1131.6613	1160.5534	1200.3782	1213.5545	1223.2806	1237.7162	1251.5329	1274.5038	1285.5416	1304.8141	1340.1195	1365.8347	1435.1165	1450.9508	1478.4922	1501.349	1847.3548	3026.9239	3043.0252	3054.0938	3059.83	3101.7253	3102.7762	3103.7147	3111.5602	3124.805	3797.5648
OC12CCC1CC(=O)C2	O[C@]12CC[C@H]1CC(=O)C2	
InChI=1S/C7H10O2/c8-6-3-5-1-2-7(5,9)4-6/h5,9H,1-4H2	InChI=1S/C7H10O2/c8-6-3-5-1-2-7(5,9)4-6/h5,9H,1-4H2/t5-,7-/m0/s1
