21
gdb 77401	2.24338	1.98976	1.27617	1.3446	83.2	-0.2088	0.0818	0.2905	1071.7853	0.181263	-383.166467	-383.157599	-383.156655	-383.199098	34.787	
C	 0.0248850954	 1.5157802313	-0.1608831428	-0.336495
N	 0.0100531325	 0.0614161598	-0.0330054773	-0.178786
C	-1.137723165	-0.5084648907	 0.7433295355	 0.363281
C	-2.5621654303	-0.4763272789	 0.2781117933	-0.53369
C	-0.267898441	-1.7264347272	 1.1997247925	-0.142683
N	-0.5474434842	-1.5902813154	 2.6642127476	-0.35081
C	-0.5306721735	-0.1764991377	 2.1682963114	-0.150816
C	 0.6704732502	-0.4853778644	 1.1965205105	 0.399002
C	 2.140969037	-0.4250557899	 1.4714288315	-0.536308
H	 1.0181793344	 1.841728407	-0.486187512	 0.119981
H	-0.6891068062	 1.820037971	-0.9331918738	 0.117947
H	-0.2247119557	 2.0586802385	 0.7676601118	 0.092622
H	-2.6578331811	-0.9457886274	-0.7062098084	 0.133826
H	-3.20632408	-1.0169809557	 0.9806611849	 0.119823
H	-2.9362685691	 0.5504545589	 0.204914349	 0.126317
H	-0.1173033231	-2.679072919	 0.6901131643	 0.080266
H	-1.506918033	-1.8817864442	 2.8704156224	 0.205438
H	-0.698385446	 0.6736196	 2.8317634326	 0.077624
H	 2.3621441732	-0.9612888488	 2.3989855869	 0.143633
H	 2.7059570113	-0.8865482831	 0.6551680931	 0.128686
H	 2.4854661643	 0.6086032058	 1.5830043572	 0.121142
181.166	205.7484	213.1199	215.5183	218.4427	223.9627	268.9888	288.9097	380.435	553.2209	574.3856	590.8211	677.8699	737.0182	753.5896	792.5978	810.4616	860.49	898.9174	911.1626	1009.4792	1043.2751	1073.9925	1099.2197	1110.7511	1114.9101	1142.7913	1154.9865	1168.1867	1184.3266	1188.1256	1251.4539	1274.3869	1286.8504	1292.9967	1389.1413	1404.3922	1434.3664	1449.4419	1477.9648	1483.1582	1490.0139	1492.6437	1496.8051	1497.9871	2952.6606	3028.8528	3034.4745	3062.2346	3094.2118	3097.5175	3098.1931	3100.1906	3103.3245	3111.2921	3117.1029	3396.5161
CN1C2(C)C3NC2C13C	CN1[C@@]2(C)[C@@H]3N[C@H]2[C@]13C	
InChI=1S/C7H12N2/c1-6-4-7(2,9(6)3)5(6)8-4/h4-5,8H,1-3H3	InChI=1S/C7H12N2/c1-6-4-7(2,9(6)3)5(6)8-4/h4-5,8H,1-3H3/t4-,5+,6-,7+
