22
gdb 73358	2.40951	1.89504	1.54669	1.585	83.49	-0.2193	0.08	0.2993	1000.2956	0.197586	-367.215016	-367.207487	-367.206543	-367.246562	31.452	
C	-0.0478546719	 1.5068289126	 0.0261179926	-0.469512
C	 0.0000906384	-0.0192437261	-0.0153758403	 0.290478
C	-1.4156792122	-0.6612741033	 0.0179747851	-0.230375
C	-1.261080042	-2.0521819062	 0.681241605	-0.253785
C	 0.050453828	-1.9741697893	 1.4525819251	-0.018979
C	 0.7209460252	-0.6743798444	 1.186055499	-0.088648
N	 1.340380287	-1.9243059871	 0.7264770821	-0.107643
C	 1.2836030851	-1.9639266498	-0.750946154	-0.176981
C	 0.8230872788	-0.5655902681	-1.2101419994	-0.233551
H	 0.9598415785	 1.9360867939	 0.0340173037	 0.113913
H	-0.5723875836	 1.9095864487	-0.8474175467	 0.113916
H	-0.5732496842	 1.8631267234	 0.9188773988	 0.113327
H	-2.0684218413	-0.0386263265	 0.6402169136	 0.096356
H	-1.8728408999	-0.7070722976	-0.9763765085	 0.091149
H	-2.0856303955	-2.2642885835	 1.3682818707	 0.099619
H	-1.256519486	-2.8673744898	-0.0517039114	 0.104903
H	 0.1185948914	-2.4825765883	 2.4108810487	 0.085003
H	 1.2493302612	-0.0762133013	 1.923723595	 0.076439
H	 2.2822946669	-2.2096519411	-1.1236304518	 0.103964
H	 0.6115681496	-2.7573353749	-1.096969794	 0.100321
H	 0.2543438527	-0.5828579386	-2.1453530598	 0.093497
H	 1.6975934235	 0.0752180976	-1.3715792036	 0.096591
101.222	222.9528	264.139	297.8689	333.4965	392.9423	452.2994	536.3166	570.9395	676.2407	711.7638	739.9333	767.8629	810.251	863.4635	866.6235	905.4118	914.1721	946.9501	967.6796	995.7932	999.943	1035.3016	1057.2607	1077.0639	1106.4928	1147.4781	1155.733	1178.9858	1225.4927	1232.1346	1240.972	1261.2701	1284.8438	1300.2581	1306.6918	1326.2393	1339.7658	1371.6237	1390.6952	1413.7954	1478.1466	1493.908	1495.0993	1499.5838	1501.9783	1526.2445	3024.3955	3030.5573	3034.3912	3036.6093	3041.353	3068.1307	3073.4945	3083.5119	3089.8065	3092.3899	3095.2261	3131.9219	3142.8995
CC12CCC3C1N3CC2	C[C@]12CC[C@@H]3[C@H]1N3CC2	
InChI=1S/C8H13N/c1-8-3-2-6-7(8)9(6)5-4-8/h6-7H,2-5H2,1H3	InChI=1S/C8H13N/c1-8-3-2-6-7(8)9(6)5-4-8/h6-7H,2-5H2,1H3/t6-,7-,8-,9?/m1/s1
