17
gdb 88711	3.53892	0.97912	0.83217	5.3166	74.46	-0.2756	0.0105	0.2861	1369.339	0.135036	-417.96861	-417.959725	-417.95878	-418.003274	31.821	
C	-0.2914817036	 1.4593880546	 0.0243829555	-0.423413
C	-0.0776899127	-0.0268717944	 0.1528658748	 0.075029
O	 1.2329081931	-0.5391370381	-0.11740351	-0.258517
C	 0.7140221214	-0.686267689	 1.2065896414	 0.063174
C	 1.4357278998	 0.06139814	 2.2794177111	-0.05431
N	 0.9319131682	-0.1170762153	 3.6416145168	-0.318916
C	 2.2680049101	-0.6453665496	 3.3108738717	-0.19587
C	 2.4140562316	-2.0816186558	 3.3254080376	 0.341961
N	 2.5532301059	-3.2291139374	 3.3283640827	-0.334283
H	 0.5226398105	 2.0341146572	 0.4707676059	 0.12222
H	-0.3572031891	 1.7378171494	-1.0322976869	 0.136887
H	-1.2309022712	 1.7503803571	 0.5063341439	 0.130028
H	-0.8737527963	-0.6325572308	-0.2850592024	 0.09938
H	 0.4428807256	-1.705153285	 1.4839956825	 0.119257
H	 1.8153780517	 1.0373093505	 1.9889696345	 0.10949
H	 1.021453087	 0.7358623828	 4.1866865009	 0.251365
H	 3.1435729981	-0.1145282064	 3.6748201801	 0.136518
35.5829	92.731	142.3411	180.164	213.8273	254.4976	332.9173	394.8995	445.5399	514.9065	582.4717	634.9287	771.8216	795.7697	861.1687	863.8779	922.5677	964.9787	971.6629	996.8478	1037.5407	1092.0885	1122.3642	1162.7486	1168.7217	1198.7944	1215.4492	1247.0491	1300.2385	1342.626	1408.5473	1413.5758	1439.0621	1478.4295	1490.8159	1519.686	2362.0707	3041.9879	3087.0676	3104.5982	3116.2387	3130.229	3146.7546	3155.4947	3518.3826
CC1OC1C1NC1C#N	C[C@H]1O[C@H]1[C@H]1N[C@H]1C#N	
InChI=1S/C6H8N2O/c1-3-6(9-3)5-4(2-7)8-5/h3-6,8H,1H3	InChI=1S/C6H8N2O/c1-3-6(9-3)5-4(2-7)8-5/h3-6,8H,1H3/t3-,4+,5+,6-/m1/s1
