15
gdb 49211	4.49822	1.02587	0.85068	3.6117	70.84	-0.2707	-0.0752	0.1955	1261.4869	0.112165	-457.817739	-457.809668	-457.808724	-457.851785	28.494	
O	-0.0748387193	-0.0500106294	-0.0569238267	-0.268717
C	-0.0423897436	 1.1575331712	 0.012849589	 0.101035
C	 1.1978408669	 1.9492450702	-0.0282535987	 0.170245
C	 1.1656018165	 3.2822967139	 0.0436920468	-0.140256
C	 2.4172351173	 4.0906728209	-0.0311121928	-0.410212
C	 3.7018619011	 3.3109832941	 0.2344310482	 0.41461
O	 4.738210338	 3.8629840584	 0.4785194618	-0.317156
O	 3.655798682	 1.9618548956	 0.2084503421	-0.223869
C	 2.494547375	 1.210106225	-0.1682924169	-0.153126
H	-0.9709980478	 1.7617496688	 0.1116049665	 0.081277
H	 0.2162144821	 3.8032776109	 0.1481623352	 0.119783
H	 2.5150290035	 4.5484848689	-1.0265707182	 0.165673
H	 2.4062479809	 4.9319053048	 0.6687042249	 0.161992
H	 2.4895572107	 0.319086163	 0.4647852603	 0.156582
H	 2.6302031968	 0.8623423437	-1.2008644112	 0.142139
29.9122	103.3554	131.5444	189.7465	291.9342	382.4583	420.842	466.8146	545.6579	576.9071	622.5047	753.5897	781.2635	830.9194	917.9935	981.0183	1010.3692	1037.5405	1049.2421	1102.4111	1188.1266	1203.0102	1216.1967	1253.9172	1339.8699	1372.4014	1419.6114	1432.2812	1441.0004	1499.5113	1729.9115	1789.2628	1849.9924	2891.1885	3016.6185	3026.6951	3085.1177	3099.1889	3155.0047
O=CC1=CCC(=O)OC1	O=CC1=CCC(=O)OC1	
InChI=1S/C6H6O3/c7-3-5-1-2-6(8)9-4-5/h1,3H,2,4H2	InChI=1S/C6H6O3/c7-3-5-1-2-6(8)9-4-5/h1,3H,2,4H2
