17
gdb 110488	3.98643	1.39516	1.21032	1.3305	71.28	-0.2379	-0.0118	0.2261	1037.2473	0.137158	-417.942062	-417.934866	-417.933922	-417.973797	27.804	
C	-0.1353286973	 1.3319140363	 0.1745158445	-0.243903
O	-0.1146850064	-0.005716694	-0.2835336301	-0.2526
C	-1.3429827349	-0.6631507872	-0.1314579307	 0.142337
C	-1.1619035813	-2.1008967416	-0.6271293475	-0.071585
C	-0.9850572434	-2.6015302334	 0.7584388804	-0.040712
C	-1.5775443371	-1.2662132434	 1.3106372557	-0.091917
N	-3.0304803336	-1.4776893411	 1.4222385381	-0.187596
C	-3.2708796503	-2.4192716178	 0.6036496145	 0.037538
N	-2.1437337406	-3.0659426922	-0.0212010143	-0.164028
H	 0.8566534717	 1.7485130557	-0.0127613722	 0.13233
H	-0.88389005	 1.9297684993	-0.3660833034	 0.113978
H	-0.3519137997	 1.3984496734	 1.2501740048	 0.113951
H	-2.1739054348	-0.060563564	-0.5259670348	 0.074284
H	-0.7048184884	-2.3967310432	-1.5628233006	 0.112739
H	-0.2951526024	-3.3136534988	 1.1950127727	 0.105683
H	-1.1354085723	-0.7501469735	 2.158996541	 0.086809
H	-4.2647446792	-2.7811918247	 0.362701292	 0.132691
111.5075	154.5117	179.0856	283.5638	379.8632	403.1893	470.0504	587.3818	720.8676	753.3798	824.9	836.2462	878.0953	897.0401	919.2857	955.8323	966.6559	983.3506	1016.595	1019.2923	1040.7745	1090.0414	1140.788	1161.6897	1184.1113	1207.7602	1212.8776	1233.4581	1259.1068	1275.4733	1297.1398	1341.607	1377.3359	1481.7314	1488.2684	1508.793	1666.8431	2987.2793	3001.731	3039.1878	3123.4944	3153.7504	3184.5434	3201.7926	3205.1255
COC1C2C3C1N=CN23	CO[C@H]1[C@H]2[C@H]3[C@@H]1[N][CH]N23	
InChI=1S/C6H8N2O/c1-9-6-3-4-5(6)8(4)2-7-3/h2-6H,1H3	InChI=1S/C6H8N2O/c1-9-6-3-4-5(6)8(4)2-7-3/h2-6H,1H3/t3-,4+,5+,6+,8?/m0/s1
