16
gdb 125692	3.1858	1.25666	0.90628	3.0117	75.81	-0.2122	0.0031	0.2153	1233.6199	0.126007	-430.253777	-430.245048	-430.244103	-430.288501	30.795	
C	 0.0821197467	 1.5142371396	 0.0807635355	-0.524585
C	 0.0599855025	 0.0236116475	 0.0081802203	 0.245493
N	 0.0207368226	-0.6443182179	-1.144468006	-0.256837
N	 0.0132316755	-1.9137170895	-0.7696219607	-0.080514
N	 0.0442270677	-2.1582348096	 0.5411357355	-0.262268
C	 0.0744159602	-0.9317515998	 1.0570969627	 0.347502
N	 0.1140061333	-0.6245139856	 2.4100731473	-0.388031
C	 0.1307190104	-1.4649839445	 3.5044426842	 0.068644
N	 0.1112048033	-2.7330912379	 3.4356179722	-0.417566
H	 0.9853552976	 1.8848543609	 0.5809747657	 0.130083
H	 0.0610037518	 1.9330506727	-0.9270639357	 0.154236
H	-0.7828933917	 1.9087604615	 0.6280182449	 0.13007
H	-0.0142457754	-2.6657607323	-1.4370670504	 0.292253
H	 0.1330228274	 0.3594899366	 2.6166986041	 0.254343
H	 0.1630918286	-0.8757592885	 4.4302470294	 0.084734
H	 0.1301318995	-3.1273955731	 4.373898331	 0.222442
22.133	110.6366	154.3109	174.4584	235.6571	260.1527	369.3417	426.8759	431.1869	447.8282	597.9182	685.5194	702.9978	747.671	803.5677	861.2819	972.2819	1015.4598	1044.1609	1067.7203	1087.3835	1186.8574	1199.0161	1243.3292	1263.9258	1381.0766	1411.94	1419.0793	1463.1884	1483.5253	1493.3941	1496.5237	1594.6731	1611.3363	1737.1229	3021.0477	3028.7779	3067.2863	3134.4344	3506.7296	3664.3056	3684.7354
CC1=NNN=C1NC=N	Cc1n[nH]nc1NC=N	
InChI=1S/C4H7N5/c1-3-4(6-2-5)8-9-7-3/h2H,1H3,(H3,5,6,7,8,9)	InChI=1S/C4H7N5/c1-3-4(6-2-5)8-9-7-3/h2H,1H3,(H3,5,6,7,8,9)
