16
gdb 33668	3.23575	1.46279	1.38015	0.4288	75.7	-0.2192	0.0309	0.2501	981.638	0.125567	-400.663984	-400.65698	-400.656036	-400.695256	28.163	
C	-0.0308303837	-1.1953602154	 0.0288982217	-0.353446
C	-0.0215017655	 0.0083919035	 0.0119873642	 0.045444
C	-0.0011742244	 1.4222546997	-0.0147971077	 0.199261
C	-0.6900315565	 2.5064932737	 0.8249319232	-0.115565
N	 0.5733951481	 3.2077336448	 1.0488538877	-0.311588
C	 1.217335262	 2.3949021772	-0.0326267683	-0.086875
C	 1.0772753088	 3.0845980024	-1.3837998297	-0.095065
O	-0.3389484699	 3.2854621777	-1.5265523214	-0.270145
C	-0.9753258007	 2.3792512125	-0.6590581877	 0.041189
H	-0.0413323995	-2.2567051457	 0.0483630665	 0.180512
H	-1.4349864147	 2.3970632987	 1.60580363	 0.107991
H	 0.5199501735	 4.1999204238	 0.8163042178	 0.220349
H	 2.2065495303	 2.007248209	 0.211311987	 0.096497
H	 1.5682197735	 4.0628768721	-1.4227463884	 0.113608
H	 1.4644549002	 2.4580072761	-2.2018234111	 0.107093
H	-1.9419213616	 2.0331284599	-1.0040305638	 0.120741
131.2962	154.0419	255.8108	378.4797	438.2426	492.1016	533.1124	567.1532	577.2519	658.1556	675.6667	742.4588	783.76	836.9565	893.3849	914.2355	940.6303	972.9023	997.0046	1013.9607	1042.8973	1074.1702	1092.0143	1123.8043	1147.042	1180.9343	1238.7786	1253.2851	1276.3327	1307.7163	1366.6258	1381.7548	1435.3968	1508.7057	2234.877	2991.3911	3072.589	3115.959	3171.5223	3200.7148	3441.4203	3503.0798
C#CC12C3NC1COC23	C#C[C@@]12[C@H]3N[C@@H]1CO[C@@H]23	
InChI=1S/C7H7NO/c1-2-7-4-3-9-6(7)5(7)8-4/h1,4-6,8H,3H2	InChI=1S/C7H7NO/c1-2-7-4-3-9-6(7)5(7)8-4/h1,4-6,8H,3H2/t4-,5+,6-,7+/m1/s1
