17
gdb 52294	3.6572	0.85959	0.74857	4.6547	71.41	-0.2474	-0.0356	0.2119	1473.1839	0.135649	-455.156702	-455.147643	-455.146699	-455.193141	31.464	
O	 0.0727178652	 0.9252282891	-1.2642622545	-0.320445
C	 0.0606423133	 1.4062078232	-0.1511566625	 0.151704
N	 1.0837307446	 1.3380378743	 0.743172387	-0.271448
C	 2.3663358226	 0.7347725885	 0.431392952	-0.158746
C	 3.4240518193	 1.7945934929	 0.1169305674	-0.102728
N	 3.6983373524	 2.7364382002	 1.2450869182	-0.339976
C	 5.1665489859	 2.478127486	 1.2089069434	-0.283012
C	 4.9006545387	 1.3590668424	 0.1892265979	 0.38548
O	 5.5472465197	 0.4875066614	-0.3061525551	-0.278974
H	-0.8107006633	 1.9505234506	 0.2643455031	 0.075909
H	 1.0102306171	 1.8527761457	 1.6066380942	 0.254669
H	 2.6935875812	 0.1304079822	 1.2835348882	 0.113624
H	 2.2233535002	 0.0800354421	-0.4304100202	 0.159592
H	 3.1835801487	 2.2854615706	-0.8359054839	 0.115037
H	 3.4616846624	 3.6970444333	 1.0277703075	 0.229603
H	 5.7828636324	 3.285767285	 0.792311807	 0.130958
H	 5.5985516096	 2.1672172726	 2.1662131103	 0.138753
14.3811	51.8518	99.7005	136.3546	204.6342	266.8344	354.363	387.6495	502.256	557.1115	557.8396	659.5485	739.858	788.0471	817.1815	900.828	947.5346	998.888	1018.2605	1032.5437	1061.4756	1083.3509	1102.579	1136.853	1212.5949	1222.4043	1255.0532	1286.227	1341.206	1370.0092	1393.6083	1429.5881	1466.6277	1472.1464	1527.455	1805.1635	1914.3399	2936.5076	3018.9247	3023.7274	3055.1282	3075.0494	3132.4538	3549.3111	3635.4809
O=CNCC1NCC1=O	O=CNC[C@H]1NCC1=O	
InChI=1S/C5H8N2O2/c8-3-6-1-4-5(9)2-7-4/h3-4,7H,1-2H2,(H,6,8)	InChI=1S/C5H8N2O2/c8-3-6-1-4-5(9)2-7-4/h3-4,7H,1-2H2,(H,6,8)/t4-/m1/s1
