17
gdb 67214	2.72805	1.7217	1.32593	0.9575	67.3	-0.2289	0.0694	0.2983	982.5724	0.133851	-458.880406	-458.872353	-458.871409	-458.912278	32.174	
C	 0.0307473142	 1.564162877	-0.016636629	-0.465997
C	 0.0441859078	 0.0458710006	 0.0026748115	 0.430892
O	-1.2533183426	-0.5039063726	 0.1591387264	-0.47262
C	 0.7458047246	-0.7232277796	-1.1121313528	-0.196305
C	 2.2306441916	-0.8166712195	-0.6487991931	-0.028919
O	 2.3519174549	-0.1065533343	 0.5850826129	-0.281064
C	 1.0666892934	-0.6659879373	 0.9551172053	-0.100984
C	 1.2184942866	-1.7985607506	-0.1628222774	 0.332916
O	 1.0437574543	-3.1488411524	-0.2259270758	-0.444665
H	 1.0481117179	 1.9544623438	-0.0832326958	 0.139068
H	-0.5529575787	 1.9296104477	-0.8671765108	 0.122756
H	-0.4250653031	 1.9592955727	 0.9005655152	 0.100554
H	-1.6461793074	-0.104000911	 0.9431046298	 0.276146
H	 0.4581306971	-0.8177295606	-2.1515044135	 0.098197
H	 3.0755033432	-0.8697087015	-1.3223603567	 0.115783
H	 0.9037293367	-0.7515305558	 2.029081352	 0.079132
H	 1.7652128096	-3.5746318667	 0.2523361519	 0.295109
158.2432	201.7058	223.2087	301.4694	310.8211	345.2548	368.4574	390.2695	417.4556	525.3853	599.5725	606.1433	655.0841	775.7132	812.2589	878.6481	887.4444	922.2721	932.3533	965.2082	983.3328	1034.6137	1042.0047	1089.4303	1101.7025	1151.5238	1157.8288	1190.2921	1213.8829	1256.7095	1280.9253	1317.1556	1392.7065	1403.7497	1485.9038	1496.1852	1500.3514	3023.0964	3092.8627	3129.5139	3137.8646	3203.0668	3215.0686	3781.7831	3795.2652
CC1(O)C2C3OC1C23O	C[C@@]1(O)[C@H]2[C@H]3O[C@@H]1[C@@]23O	
InChI=1S/C6H8O3/c1-5(7)2-3-6(2,8)4(5)9-3/h2-4,7-8H,1H3	InChI=1S/C6H8O3/c1-5(7)2-3-6(2,8)4(5)9-3/h2-4,7-8H,1H3/t2-,3-,4+,5-,6-/m1/s1
