18
gdb 81532	3.22625	1.34542	1.07924	2.3254	73.5	-0.2314	-0.0457	0.1857	1133.6725	0.146098	-439.01327	-439.004634	-439.00369	-439.046382	32.72	
C	-0.1175684334	 1.5869027901	 0.0910309938	-0.435859
C	-0.0176522384	 0.0738067846	 0.0510306604	 0.048623
C	 1.1704908289	-0.6014375508	-0.7058132519	-0.112969
N	 2.0755544553	-0.0848794209	 0.3959909903	-0.336962
C	 0.8711091549	-0.6658286123	 1.1005243543	-0.084575
C	 0.9031285174	-1.9012571581	 0.1284342318	 0.311161
O	-0.3152051523	-2.6040139467	-0.0029514237	-0.473774
C	 2.0134261014	-2.9176169534	 0.3314469115	 0.083235
O	 3.1836751058	-2.7777728128	 0.0705156012	-0.256489
H	 0.8570566521	 2.0431955922	 0.2682408473	 0.145034
H	-0.5174240797	 1.9673595918	-0.8555651979	 0.112409
H	-0.8043003481	 1.9033936651	 0.8838203574	 0.113858
H	-0.9811562776	-0.4036038251	-0.1208239799	 0.090993
H	 1.4472053857	-0.5334344197	-1.7599018811	 0.08393
H	 2.8871411621	-0.696666811	 0.4883396599	 0.236702
H	 0.781910383	-0.6874721373	 2.1881400748	 0.088823
H	-0.3214328641	-3.0591773249	-0.8522709879	 0.289545
H	 1.6244526369	-3.8722205308	 0.7514965396	 0.096316
74.8579	165.6625	205.819	211.7697	246.0812	295.1807	305.8054	385.5691	405.8528	477.6557	581.7991	660.1892	722.4535	758.8783	788.357	807.6389	880.5606	894.8602	1029.7815	1046.419	1049.6747	1065.3971	1093.0149	1096.5035	1138.6843	1159.9582	1197.235	1210.0063	1221.8025	1245.1193	1299.0425	1309.0545	1318.0623	1396.763	1408.3648	1416.2008	1491.792	1506.941	1811.2346	2888.8472	3035.4856	3089.3795	3095.6701	3102.704	3126.0987	3148.2546	3462.1472	3801.1867
CC1C2NC1C2(O)C=O	C[C@H]1[C@H]2N[C@@H]1[C@]2(O)C=O	
InChI=1S/C6H9NO2/c1-3-4-6(9,2-8)5(3)7-4/h2-5,7,9H,1H3	InChI=1S/C6H9NO2/c1-3-4-6(9,2-8)5(3)7-4/h2-5,7,9H,1H3/t3-,4+,5-,6-
