16
gdb 6115	2.96258	1.82583	1.51268	2.7464	60.84	-0.2491	-0.0305	0.2186	884.9555	0.127148	-420.878314	-420.86973	-420.868786	-420.91089	31.691	
C	 0.3690231289	 1.4495841056	-0.0273830263	-0.44278
C	-0.0785830806	-0.0049149433	-0.0104215206	 0.341152
O	-1.4809957178	-0.1405314822	-0.0566968729	-0.474618
C	 0.7391060011	-0.9322143747	-0.9889673783	-0.400654
C	 1.5850453313	-1.3008067256	 0.2296638332	 0.344886
O	 2.7429918901	-1.5609458077	 0.4119878567	-0.31088
C	 0.5096313208	-0.8193371121	 1.1977715817	 0.029685
O	 0.9138717016	-0.1879024853	 2.3730624042	-0.429247
H	 1.4586451892	 1.5359142807	 0.0282581728	 0.125431
H	 0.0456374403	 1.9407006724	-0.9528457479	 0.109518
H	-0.0578888169	 1.9816493536	 0.8259497426	 0.145051
H	-1.8140136727	 0.3913763419	-0.7875577048	 0.280633
H	 0.1229410444	-1.7666431172	-1.3360252035	 0.137403
H	 1.2670289589	-0.4804242794	-1.831051736	 0.127696
H	-0.2111822242	-1.6214789069	 1.413634281	 0.118551
H	 1.8785906957	-0.2251744696	 2.3956319479	 0.298175
89.4704	173.0555	216.6178	231.7433	244.5958	273.918	315.5676	361.9971	385.7213	425.1169	549.4809	607.8319	658.6559	768.2674	771.3517	849.3009	891.4607	973.3035	1006.9685	1079.5687	1102.5213	1123.1015	1172.7281	1188.6329	1210.0322	1269.386	1342.5194	1373.2072	1400.2744	1413.0521	1440.0493	1486.0836	1491.9617	1876.043	3012.5729	3031.2444	3067.2041	3097.6891	3129.4706	3132.8301	3772.377	3804.6133
CC1(O)CC(=O)C1O	C[C@@]1(O)CC(=O)[C@H]1O	
InChI=1S/C5H8O3/c1-5(8)2-3(6)4(5)7/h4,7-8H,2H2,1H3	InChI=1S/C5H8O3/c1-5(8)2-3(6)4(5)7/h4,7-8H,2H2,1H3/t4-,5-/m1/s1
