19
gdb 77659	2.19043	1.39611	1.2418	2.9453	78.64	-0.242	-0.0241	0.2179	1146.8623	0.156889	-423.008067	-422.998823	-422.997879	-423.041842	33.98	
C	 0.005538658	 1.5741210803	 0.0321751669	-0.426586
C	 0.0724244818	 0.0632245172	 0.0603878376	-0.136372
C	 1.302903112	-0.7249162105	-0.2021871917	 0.40694
C	 1.502005479	-1.7963359221	-1.2242144725	-0.48319
O	 2.4685931561	-0.0525776951	 0.2661389383	-0.313426
C	 1.9986944581	-0.1009010294	 1.6440869682	-0.156746
C	 0.6767369661	-0.7245361688	 1.2311720239	 0.120945
C	-0.0123378005	-1.7995615467	 1.9395602144	 0.053858
O	 0.3257489536	-2.2343194396	 3.0182398366	-0.276899
H	 0.9839940029	 2.0116690486	 0.2405483681	 0.142057
H	-0.3069481525	 1.9194029185	-0.9586916223	 0.125083
H	-0.7132987318	 1.9552271322	 0.7640956538	 0.125071
H	-0.8194081031	-0.4412826813	-0.3109168617	 0.097162
H	 1.8802460887	-1.3522108265	-2.1523700035	 0.142015
H	 2.2305409622	-2.5366023774	-0.8821019869	 0.140367
H	 0.5590979072	-2.300804417	-1.4506123593	 0.129563
H	 2.6135066086	-0.781451232	 2.2389671225	 0.134943
H	 1.9756939554	 0.8898315201	 2.1092745274	 0.112748
H	-0.8952390617	-2.2165506004	 1.4012502402	 0.062466
89.1444	161.3152	174.0668	189.8401	213.6517	222.8553	250.0962	282.6308	359.3202	454.0343	519.4522	571.8073	634.6774	708.9649	755.7851	803.9687	922.8281	963.9632	981.6401	1002.5874	1032.9675	1058.5762	1092.4893	1101.3537	1126.47	1147.5268	1175.6312	1222.8241	1281.6404	1318.7816	1363.7183	1409.4547	1410.6385	1425.8628	1472.4267	1478.1619	1491.9532	1495.538	1512.4502	1525.0749	1787.5423	2855.1753	3036.3564	3041.9411	3048.5772	3102.0101	3102.6343	3105.9351	3116.7812	3126.7113	3136.5183
CC1C2(C)OCC12C=O	C[C@H]1[C@@]2(C)OC[C@@]12C=O	
InChI=1S/C7H10O2/c1-5-6(2)7(5,3-8)4-9-6/h3,5H,4H2,1-2H3	InChI=1S/C7H10O2/c1-5-6(2)7(5,3-8)4-9-6/h3,5H,4H2,1-2H3/t5-,6+,7-/m0/s1
