18
gdb 22706	2.37057	1.38422	1.04582	1.5302	76.67	-0.2426	0.0129	0.2555	1200.1848	0.145357	-438.966841	-438.957927	-438.956983	-439.000619	33.239	
C	-0.0534976675	 1.5443639543	 0.0135122301	-0.387869
C	-0.0411936222	 0.0110505581	-0.0015044436	-0.326604
C	-1.4148373461	-0.5725072784	-0.1044034122	 0.332683
C	-1.913565876	-2.0470547092	-0.0042478837	-0.274763
C	-3.1664085533	-1.1343923951	 0.0256496624	-0.039949
O	-2.4328697219	-0.2333635386	 0.9570562226	-0.347585
C	-2.5410135019	-0.3277314318	-1.1015511011	 0.4921
N	-2.7241184634	 0.2964911833	-2.1776204875	-0.328464
O	-4.0649977199	 0.1902646141	-2.6140370086	-0.395478
H	 0.9623043451	 1.938041761	 0.1074080947	 0.112699
H	-0.4924360042	 1.9380758546	-0.9075229072	 0.14132
H	-0.6464649255	 1.9152081525	 0.8537176915	 0.139408
H	 0.5444414394	-0.3620552898	-0.8506155555	 0.117696
H	 0.4326531522	-0.3811139787	 0.9060826113	 0.115591
H	-1.7648742493	-2.7043076019	-0.8647868326	 0.111264
H	-1.6937998138	-2.5213446179	 0.9542377694	 0.11385
H	-4.203917926	-1.3657660385	 0.2493332915	 0.116597
H	-4.0516402356	 0.7150549919	-3.4215810515	 0.307503
72.2075	125.4688	147.0701	190.3679	226.2266	288.2172	317.4602	377.7673	434.6528	488.4221	562.8345	635.9957	699.8308	757.9336	780.5545	793.3086	855.6192	918.3346	941.5102	957.7346	993.4191	1018.632	1045.982	1073.8686	1102.6386	1155.3498	1193.9946	1210.4321	1217.0709	1290.7032	1323.54	1391.723	1412.2044	1421.6756	1469.4166	1478.4823	1497.4462	1509.9101	1830.1124	3034.0864	3048.1017	3060.828	3070.3053	3120.9218	3127.1189	3144.3563	3171.281	3819.336
CCC12CC(O1)C2=NO	CC[C@@]12C[C@@H](O1)C2=NO	
InChI=1S/C6H9NO2/c1-2-6-3-4(9-6)5(6)7-8/h4,8H,2-3H2,1H3	InChI=1S/C6H9NO2/c1-2-6-3-4(9-6)5(6)7-8/h4,8H,2-3H2,1H3/t4-,6+/m1/s1
