18
gdb 98154	2.62946	1.10951	0.97056	6.7428	72.78	-0.2634	-0.0322	0.2312	1281.6111	0.143698	-439.10288	-439.092397	-439.091453	-439.138549	36.955	
C	-0.1981721619	 1.5696973302	-0.0455910693	-0.406189
C	 0.0196938991	 0.0319281397	-0.0239601905	-0.045738
C	 0.8496717151	-0.380231924	 1.2126675593	-0.428486
C	-1.2914770815	-0.6288013084	 0.0511364067	 0.300593
N	-2.3183778156	-1.1434771768	 0.1722425034	-0.335263
C	 0.6781664711	-0.3462386866	-1.3843147252	 0.384819
O	 0.0087979333	-0.5799295009	-2.3527650639	-0.26777
C	 2.2036431849	-0.3436739266	-1.4310913963	-0.188234
O	 2.6154987089	-0.4743621058	-2.7632248187	-0.39055
H	 0.7641836647	 2.0865097625	-0.1045242801	 0.126685
H	-0.8074277526	 1.8589242521	-0.9041724702	 0.159758
H	-0.7051110214	 1.8879396504	 0.8689189774	 0.142902
H	 0.3125557065	-0.1058470141	 2.1239787865	 0.145665
H	 1.0246204223	-1.4587765001	 1.2376339374	 0.143793
H	 1.813192219	 0.1357765112	 1.2247798533	 0.127438
H	 2.5704133376	 0.5850332055	-0.9611034034	 0.111555
H	 2.5546666379	-1.1727328968	-0.7933598323	 0.122299
H	 3.5737307125	-0.5553586314	-2.773667164	 0.296723
38.6146	109.7845	145.5191	191.1579	210.9594	226.0611	246.0863	253.5291	269.8611	306.9993	336.6018	416.0403	448.1799	541.8687	595.6357	635.598	745.9871	826.8018	930.7889	958.2506	997.0857	1013.8854	1048.1657	1148.3045	1148.9287	1209.0681	1234.6575	1259.5719	1265.7418	1397.3305	1421.7052	1441.0913	1478.2424	1486.2127	1492.7741	1502.2828	1507.8327	1836.4493	2362.7449	2957.5368	2980.1416	3046.9988	3050.4865	3122.0079	3126.5926	3128.4803	3141.4071	3835.8731
CC(C)(C#N)C(=O)CO	CC(C)(C#N)C(=O)CO	
InChI=1S/C6H9NO2/c1-6(2,4-7)5(9)3-8/h8H,3H2,1-2H3	InChI=1S/C6H9NO2/c1-6(2,4-7)5(9)3-8/h8H,3H2,1-2H3
