20
gdb 63706	3.32549	1.16231	1.02709	4.4943	84.94	-0.2671	0.0219	0.2889	1234.1902	0.170486	-366.013987	-366.005118	-366.004174	-366.047006	34.515	
C	-0.0982754492	 1.5688119603	 0.0670488051	-0.446057
C	 0.0334080624	 0.0475792372	 0.0275798088	 0.327319
C	-1.3248590203	-0.611033344	-0.2218409784	-0.442452
C	 1.1365273509	-0.5415554031	-0.9289602454	-0.349006
C	 1.7819692422	-1.259798474	 0.2692443353	 0.238675
C	 2.1951502678	-0.247166229	 1.3144964792	-0.339844
C	 0.7506558603	-0.618329994	 1.2236889691	-0.11867
C	 2.2825887547	-2.5938664169	 0.2571543551	 0.176462
N	 2.6805934555	-3.6812413397	 0.2322906682	-0.354706
H	 0.8592307538	 2.0620337839	 0.2584863914	 0.114004
H	-0.48010513	 1.9468563369	-0.887917177	 0.119762
H	-0.797736398	 1.88002124	 0.8509481704	 0.119075
H	-1.7467878086	-0.2836178424	-1.1781530256	 0.11818
H	-1.2397026294	-1.702319904	-0.2446964051	 0.124068
H	-2.0372970187	-0.3460169469	 0.5675984586	 0.116686
H	 0.7256694064	-1.2251413814	-1.673507385	 0.123801
H	 1.7884989329	 0.1800532041	-1.4302385547	 0.105621
H	 2.7275460458	-0.6558173197	 2.1663764582	 0.139161
H	 2.5521801539	 0.7244919206	 0.9847915527	 0.12153
H	 0.2421053377	-1.103079098	 2.0493121489	 0.106391
96.4073	145.8989	217.2194	240.3496	252.9516	277.8937	336.761	372.4851	410.6906	469.3317	512.7922	558.5595	581.8291	661.5412	788.2015	832.2094	850.0498	905.0919	953.1372	959.257	972.4834	988.7469	1013.8626	1036.3753	1046.8366	1091.2119	1121.7314	1196.7237	1205.7873	1232.2285	1250.8299	1275.551	1317.4908	1375.993	1404.743	1424.6072	1479.5015	1483.7794	1487.3071	1498.1822	1505.4896	1508.3547	2342.2101	3024.6431	3030.767	3056.1405	3090.7647	3096.2598	3101.5621	3105.4811	3123.2203	3124.5095	3181.73	3216.9104
CC1(C)CC2(CC12)C#N	CC1(C)C[C@]2(C[C@@H]12)C#N	
InChI=1S/C8H11N/c1-7(2)4-8(5-9)3-6(7)8/h6H,3-4H2,1-2H3	InChI=1S/C8H11N/c1-7(2)4-8(5-9)3-6(7)8/h6H,3-4H2,1-2H3/t6-,8+/m0/s1
