17
gdb 133815	3.43668	2.19661	1.94831	1.3775	75.35	-0.1928	-0.0783	0.1145	771.9737	0.138486	-384.545107	-384.539579	-384.538635	-384.57446	24.968	
C	 1.3718638695	-0.9003447934	 0.1940658882	-0.256058
C	 0.6609268354	 0.0458620063	-0.8947382362	-0.068678
C	 0.6426488859	 1.386143368	-0.138247646	 0.101928
O	-0.5324608433	 2.1037808959	-0.5600560263	-0.305312
C	-1.261242848	 1.0557005451	 0.1268255709	 0.089008
C	-0.0905786269	 0.8295385145	 1.1277387781	-0.083399
C	 0.1766081635	-0.6834228639	 1.1593445983	-0.012201
C	-0.8068549418	-1.2949005376	 0.4091659356	-0.103744
C	-0.9910105374	-0.2421629172	-0.6534359407	-0.088156
H	 2.3382911537	-0.4868074741	 0.5043338334	 0.105168
H	 1.5082408563	-1.9317441291	-0.1341274115	 0.114312
H	 1.0587624921	 0.0760474775	-1.911737178	 0.073251
H	 1.5562005424	 1.9795480311	-0.1064014083	 0.085827
H	-2.2880841676	 1.3144068214	 0.3792059445	 0.08745
H	-0.0479787102	 1.4130904896	 2.0437273033	 0.079278
H	-0.7029753174	-2.3401368738	 0.1187069692	 0.103032
H	-1.5941924263	-0.4474745004	-1.5362230848	 0.078296
373.5389	387.5845	435.273	464.081	593.8523	622.0054	661.2855	679.2869	770.0456	833.3379	850.1121	871.9075	880.4196	894.033	902.2159	928.3636	953.7148	963.0092	989.728	993.7222	1034.5431	1057.6757	1075.0232	1118.502	1122.7997	1184.9378	1191.6153	1215.1482	1224.6051	1230.7001	1246.9666	1266.7539	1278.5028	1309.9011	1321.6791	1454.8292	1497.3405	3038.9148	3092.0374	3109.8936	3122.2272	3124.8663	3129.9641	3139.2245	3152.1296
C1C2C3OC4C3C1=CC24	C1[C@@H]2[C@H]3O[C@@H]4[C@H]3[C]1[CH][C@H]24	
InChI=1S/C8H8O/c1-3-2-5-4(1)7-6(3)8(5)9-7/h1,4-8H,2H2	InChI=1S/C8H8O/c1-3-2-5-4(1)7-6(3)8(5)9-7/h1,4-8H,2H2/t4-,5+,6-,7+,8-/m1/s1
