21
gdb 115533	2.65244	1.07217	1.02792	3.2484	83.32	-0.2475	0.0252	0.2727	1324.7861	0.182165	-383.272367	-383.262544	-383.2616	-383.306926	36.262	
C	 0.0410298007	 1.621212455	 0.003698312	-0.390399
C	-0.1094962596	 0.0993482489	-0.1002096837	-0.200962
C	 0.7241265775	-0.4834230293	-1.2382571685	-0.012723
C	 2.2417650838	-0.6267154908	-0.9436880691	-0.180372
N	 2.0309907421	-2.0676999594	-0.6683398605	-0.331286
C	 0.7218848957	-2.0588656586	-1.3691978209	 0.141482
C	-0.3693114785	-2.8893583532	-0.6965423834	-0.441064
C	 0.8410438427	-2.4486813941	-2.7867963653	 0.246973
N	 0.9661553991	-2.7636427748	-3.8931121734	-0.346994
H	 1.0830415408	 1.911479234	 0.1752098276	 0.121698
H	-0.2937372436	 2.1150268558	-0.9150029617	 0.120222
H	-0.5531019189	 2.0178436044	 0.8321651784	 0.119033
H	 0.1858188471	-0.3664889237	 0.8472620452	 0.11366
H	-1.1661428637	-0.1498012151	-0.2566378612	 0.10382
H	 0.4865337561	 0.0277104117	-2.1735348098	 0.092547
H	 2.8662226104	-0.4149631988	-1.8204887747	 0.110186
H	 2.6329749254	-0.0693824406	-0.0861537025	 0.106547
H	 2.7251932208	-2.7048749951	-1.0448400833	 0.230072
H	-0.4533428232	-2.6104783227	 0.3547974484	 0.132615
H	-1.335243261	-2.7442676251	-1.1895137038	 0.131815
H	-0.1175488637	-3.9527074385	-0.7508342898	 0.133129
81.8618	114.8317	133.3718	194.1592	199.4346	219.5803	238.0193	288.208	353.8397	397.2575	422.1653	540.282	589.6049	637.7357	719.9303	780.4599	841.7683	871.9448	899.0108	959.8345	962.3278	989.9461	1029.6312	1063.3845	1096.4966	1126.108	1155.7357	1170.7149	1201.4132	1217.3339	1246.0431	1292.1805	1319.436	1341.6702	1382.9024	1389.6405	1407.4465	1414.105	1479.801	1485.4038	1494.1447	1500.5476	1507.4174	1520.6378	2336.6934	3019.4122	3027.6375	3033.6207	3047.3271	3061.507	3068.2797	3089.2507	3102.6341	3108.5416	3115.6	3144.483	3528.3352
CCC1CNC1(C)C#N	CC[C@H]1CN[C@]1(C)C#N	
InChI=1S/C7H12N2/c1-3-6-4-9-7(6,2)5-8/h6,9H,3-4H2,1-2H3	InChI=1S/C7H12N2/c1-3-6-4-9-7(6,2)5-8/h6,9H,3-4H2,1-2H3/t6-,7+/m0/s1
