13
gdb 129442	2.93748	1.53163	1.00672	6.369	61.57	-0.2581	-0.0476	0.2105	1062.8593	0.089684	-489.916815	-489.908958	-489.908014	-489.950331	28.149	
N	 0.0865823538	 1.2613271384	 0.0261397849	-0.546578
C	 0.0050040558	-0.0904378427	-0.0189341413	 0.382696
O	 1.0141685544	-0.7980011546	-0.0726996671	-0.413696
C	-1.319138461	-0.7185478215	-0.0039461573	-0.061396
C	-2.6075847823	-0.2815819002	 0.0475347676	-0.019109
O	-3.4519720795	-1.3059837509	 0.0349787417	-0.166434
N	-2.732276195	-2.520274595	-0.0279999688	-0.232593
C	-1.4736483459	-2.1512667477	-0.049952863	 0.433094
O	-0.4790066808	-3.0233348458	-0.1080119528	-0.400153
H	 1.0015641991	 1.6812920072	 0.0147353479	 0.274531
H	-0.7214786075	 1.8558486097	 0.0694332556	 0.268037
H	-3.0629385683	 0.6972930951	 0.0947563817	 0.155219
H	 0.3396585973	-2.4747172719	-0.1110692793	 0.326381
31.6991	118.7771	182.4256	214.2247	325.2923	356.5129	460.3294	538.8344	543.9312	593.217	676.9664	712.8532	747.088	751.5758	799.7423	851.156	907.5447	921.1694	1084.3334	1162.989	1188.7294	1304.716	1338.343	1431.3845	1510.9663	1559.4993	1617.2199	1667.0896	1745.2112	3242.6715	3422.6805	3610.722	3746.9186
NC(=O)C1=CON=C1O	NC(=O)c1conc1O	
InChI=1S/C4H4N2O3/c5-3(7)2-1-9-6-4(2)8/h1H,(H2,5,7)(H,6,8)	InChI=1S/C4H4N2O3/c5-3(7)2-1-9-6-4(2)8/h1H,(H2,5,7)(H,6,8)
