23
gdb 116325	2.83997	1.26659	0.97579	1.1287	85.64	-0.2421	0.0784	0.3205	1298.7346	0.2077	-388.285277	-388.276442	-388.275498	-388.318848	34.318	
C	 0.0113397092	 1.3768974233	-0.055154265	-0.236714
O	-9.8735*^-6	-0.0190869643	 0.124189522	-0.248632
C	-1.2892664157	-0.6185114566	 0.0460342077	 0.13159
C	-1.8212967657	-0.7006080416	-1.394378663	-0.233665
C	-3.1074545631	-1.5336983628	-1.4448535068	-0.196209
C	-2.843463953	-3.0007183475	-1.0722973921	-0.215861
C	-1.9762023616	-3.1552921601	 0.1783324044	-0.032246
C	-0.4718122839	-3.1165525216	 0.0661038525	-0.277681
C	-1.1970781873	-1.9700628243	 0.7199538176	-0.027624
H	 1.0297373909	 1.7192372062	 0.1472392259	 0.12364
H	-0.2574347569	 1.6801475839	-1.0779401472	 0.103325
H	-0.6751307102	 1.8838596617	 0.6424732912	 0.098595
H	-1.9981235498	-0.0000692272	 0.6261659842	 0.056296
H	-2.0096487344	 0.3088857163	-1.7737401697	 0.092679
H	-1.0511325489	-1.1404786489	-2.0405583317	 0.102108
H	-3.8360111999	-1.1031426464	-0.744466926	 0.094749
H	-3.5620233015	-1.476211981	-2.4399364523	 0.091092
H	-3.7982627482	-3.5139192233	-0.9170728961	 0.095453
H	-2.362796046	-3.5059345194	-1.9198537713	 0.099001
H	-2.3736580294	-3.8312951753	 0.9290722621	 0.080424
H	 0.1177667542	-3.7703142571	 0.6994164127	 0.105786
H	-0.0460166547	-2.9574389252	-0.9193187252	 0.112436
H	-1.0992708705	-1.9043873387	 1.7993837462	 0.081458
76.9706	101.9197	177.6407	203.1174	259.6215	297.8544	365.3847	384.5153	421.1954	469.2832	585.2502	621.4036	752.4828	785.783	833.8479	864.2582	889.3366	921.6347	934.3086	971.9346	1007.058	1040.4471	1058.6701	1062.7681	1103.7441	1120.7112	1133.7703	1144.2348	1162.1338	1182.2678	1198.3052	1217.2154	1227.7553	1246.6732	1285.1566	1341.1263	1356.5242	1368.7896	1380.08	1388.6803	1399.5541	1420.4049	1478.1581	1483.2211	1491.4466	1494.1237	1496.6677	1507.6715	1513.045	2931.4979	2970.5224	3014.6311	3018.3035	3020.6329	3031.5032	3063.0241	3069.7827	3076.901	3105.5035	3130.3398	3142.7813	3153.2219	3213.0411
COC1CCCC2CC12	CO[C@H]1CCC[C@H]2C[C@@H]12	
InChI=1S/C8H14O/c1-9-8-4-2-3-6-5-7(6)8/h6-8H,2-5H2,1H3	InChI=1S/C8H14O/c1-9-8-4-2-3-6-5-7(6)8/h6-8H,2-5H2,1H3/t6-,7+,8-/m0/s1
