16
gdb 57030	2.23929	1.45236	1.24482	3.1343	69.36	-0.2699	0.0049	0.2748	1074.5123	0.12543	-434.065547	-434.057023	-434.056079	-434.09912	30.906	
N	 0.1345370022	 1.5267066911	 0.106595927	-0.505097
C	 0.0096716701	 0.0791607417	-0.0316949097	-0.142338
C	 0.5387306376	-0.4553167325	-1.3098100679	 0.263331
N	 0.9355879074	-0.8468598059	-2.3228812317	-0.329538
C	 0.7025500017	-0.5745519626	 1.1735022876	-0.134001
C	 1.0008938537	-2.0895179999	 1.1950002304	-0.116318
O	 2.4344407996	-1.8054037917	 1.301880021	-0.248334
C	 2.2145103411	-0.4527673322	 1.2118730383	 0.458841
N	 3.0037947319	 0.5192343309	 1.139242414	-0.546876
H	 1.1210647259	 1.7735166316	 0.1654575055	 0.269428
H	-0.2575866804	 1.9977073237	-0.7023159765	 0.245266
H	-1.0561832356	-0.181109219	-0.0024956441	 0.135154
H	 0.2232682168	-0.1951034967	 2.077852306	 0.136156
H	 0.6443559893	-2.6428952861	 2.0655417299	 0.129793
H	 0.7871133074	-2.6331072514	 0.2721550519	 0.145856
H	 3.9814617713	 0.2255032389	 1.1492575982	 0.238677
76.1942	100.1335	145.2249	179.6936	256.4748	312.5944	354.2584	387.132	470.9973	536.9397	593.2159	720.1686	753.3904	768.3074	861.36	873.8007	924.3835	943.8951	967.6934	1024.8348	1078.9834	1089.0682	1132.0368	1162.8896	1189.2272	1233.2804	1261.9569	1304.6692	1346.808	1386.9002	1392.4881	1513.106	1664.9025	1820.4465	2343.8007	3031.7327	3073.7287	3105.0845	3137.6006	3477.5871	3486.1455	3574.1586
NC(C#N)C1COC1=N	N[C@@H](C#N)[C@H]1CO[C]1[NH]	
InChI=1S/C5H7N3O/c6-1-4(7)3-2-9-5(3)8/h3-4,8H,2,7H2	InChI=1S/C5H7N3O/c6-1-4(7)3-2-9-5(3)8/h3-4,8H,2,7H2/t3-,4+/m1/s1
