18
gdb 52428	2.44294	0.86898	0.67301	3.6532	76.9	-0.2559	0.0213	0.2772	1632.1023	0.144432	-439.025882	-439.01569	-439.014745	-439.062881	34.839	
N	-0.7973237104	 1.0665039895	-0.408121482	-0.444924
C	-0.7963102337	-0.1843253682	-0.572109198	 0.133346
O	-0.7519462535	-0.9967111679	 0.5082388345	-0.1845
C	-0.8912717217	-2.3918663215	 0.2760333079	-0.10112
C	-2.3478067359	-2.8143497976	 0.1919559257	-0.048801
O	-2.8759226587	-2.3305192979	-1.0251405993	-0.247664
C	-4.2772332523	-2.5115436127	-1.1307277914	-0.204764
C	-4.7456338171	-2.0120047727	-2.4157948592	 0.278162
C	-5.1579222715	-1.6088175919	-3.4687807789	-0.410409
H	-0.8065414418	 1.5302090752	-1.3142635686	 0.227358
H	-0.8170619789	-0.7239484479	-1.5254981731	 0.100813
H	-0.3676714448	-2.6902631911	-0.6416170248	 0.118687
H	-0.4134042921	-2.888567374	 1.1246866409	 0.124294
H	-2.4161626028	-3.9146102938	 0.240542714	 0.094304
H	-2.8982761855	-2.4014744904	 1.05184709	 0.11034
H	-4.5340839151	-3.579902257	-1.0319124124	 0.121337
H	-4.7938418354	-1.9831198797	-0.3123990566	 0.129214
H	-5.5188642291	-1.2489031305	-4.4005619787	 0.204327
37.819	54.9406	97.1051	114.1931	133.3818	159.2914	265.922	330.2886	335.7782	365.9237	491.1549	544.6801	612.469	617.7994	681.9411	817.9425	877.425	917.0733	971.4572	1009.3018	1030.7291	1035.9972	1059.2867	1136.3185	1148.4951	1158.9253	1247.2601	1255.8775	1277.7597	1341.1005	1382.4504	1402.62	1424.7149	1442.742	1488.0649	1492.2527	1514.0544	1744.3869	2249.705	2956.8215	2965.3985	2982.4092	3005.5	3031.1763	3062.1077	3104.0225	3505.5491	3516.7908
N=COCCOCC#C	[NH][CH]OCCOCC#C	
InChI=1S/C6H9NO2/c1-2-3-8-4-5-9-6-7/h1,6-7H,3-5H2	InChI=1S/C6H9NO2/c1-2-3-8-4-5-9-6-7/h1,6-7H,3-5H2
