19
gdb 70835	2.47509	1.89532	1.39131	0.9752	74.53	-0.2262	0.0713	0.2974	988.3778	0.15934	-422.990133	-422.982197	-422.981253	-423.021993	31.596	
C	 0.0138164381	 1.5000586228	-0.0009313318	-0.520959
C	 0.030113086	-0.0019631774	-0.0414757875	 0.300657
C	 0.6019633427	-0.9374302877	-1.1437605102	-0.335431
C	 0.0339038552	-1.8913677772	-0.0868479665	 0.381623
O	 0.0660717817	-3.2690206342	-0.1650037766	-0.477467
C	 0.606506294	-0.9692793477	 1.0548986812	-0.159835
C	-0.4091836474	-1.0029590284	 2.1871188544	-0.126311
O	-1.6454058653	-1.0019208107	 1.4442847074	-0.289884
C	-1.1929157779	-0.9587995319	 0.0987027324	 0.017695
H	 1.0292779189	 1.9107740028	 0.0060919869	 0.120738
H	-0.5073620105	 1.9122453995	-0.8717246469	 0.122718
H	-0.5023477761	 1.8597951742	 0.8956620772	 0.128431
H	 0.0986888235	-0.9206597324	-2.1154742025	 0.092978
H	 1.6884306507	-0.9342337097	-1.2615921416	 0.098442
H	-0.5791881878	-3.6202623898	 0.4591411717	 0.290477
H	 1.6733318357	-0.9710324695	 1.2794139587	 0.072545
H	-0.3416845321	-1.9070241678	 2.8071187887	 0.096955
H	-0.368618121	-0.1277384236	 2.8476401545	 0.103502
H	-2.0316036685	-0.9422079209	-0.5972250498	 0.083126
190.9368	197.245	213.5859	229.357	244.8413	279.472	410.2702	456.031	517.3231	597.7225	663.748	697.9444	736.4262	773.8367	832.8359	913.4957	947.922	977.4565	986.3198	1002.3442	1015.8335	1036.3026	1077.7006	1082.0092	1099.7428	1125.7641	1144.9975	1175.196	1191.7015	1197.4288	1269.7452	1271.8198	1313.0255	1345.5235	1371.6658	1410.5441	1426.4831	1490.0618	1492.3095	1524.352	1528.7972	3008.4278	3028.2846	3043.6236	3047.9279	3093.5293	3097.4075	3110.7909	3120.6483	3131.1072	3800.5287
CC12CC3(O)C1COC23	C[C@@]12C[C@@]3(O)[C@@H]1CO[C@@H]23	
InChI=1S/C7H10O2/c1-6-3-7(8)4(6)2-9-5(6)7/h4-5,8H,2-3H2,1H3	InChI=1S/C7H10O2/c1-6-3-7(8)4(6)2-9-5(6)7/h4-5,8H,2-3H2,1H3/t4-,5+,6-,7-/m1/s1
