15
gdb 66656	2.87401	2.21769	1.51937	2.0445	68.57	-0.2464	-0.0059	0.2405	844.933	0.113676	-416.738157	-416.731621	-416.730677	-416.768716	26.956	
O	-0.0387124035	 1.3440297995	 0.051399862	-0.482529
C	-0.0082744046	-0.0282131193	 0.0233367826	 0.383439
C	-0.2732542963	-0.8592451314	-1.2209291026	-0.168017
C	 0.2460550965	-2.2701928035	-0.8146000095	-0.069538
C	-0.7006921996	-2.3141930384	 0.3194728322	-0.069601
C	-1.2471693875	-0.9046394289	-0.0547685972	-0.167989
N	 0.7672925533	-2.1547939506	 0.5880959516	-0.194289
C	 0.9941850749	-0.765410549	 0.8316472065	 0.354521
N	 1.8472355812	-0.1974760646	 1.5659749802	-0.568228
H	 0.6745098605	 1.5984486336	 0.6570211095	 0.302186
H	-0.4004687069	-0.4473271014	-2.2106877634	 0.111311
H	 0.6625655473	-3.0432923956	-1.4471045889	 0.110027
H	-1.218294034	-3.130694467	 0.8059331634	 0.110021
H	-2.2587463377	-0.5339454669	 0.0143732562	 0.111316
H	 2.4464817263	-0.8746496765	 2.0399717475	 0.237372
148.2515	259.2186	307.2927	350.8656	445.2269	514.6234	597.3384	655.2656	732.1258	735.0172	764.8948	789.932	793.7295	837.0142	869.4603	908.3044	924.7486	944.0106	952.9016	974.6115	990.9554	1016.4468	1051.8727	1118.5705	1181.6495	1193.8708	1232.9538	1240.907	1292.5347	1326.5659	1412.4246	1470.6355	1796.9262	3193.0524	3205.7552	3231.53	3240.6987	3479.1968	3716.6964
OC12C3C4C(C13)N4C2=N	O[C@]12[C@H]3[C@@H]4[C@H]([C@@H]13)N4[C]2[NH]	
InChI=1S/C6H6N2O/c7-5-6(9)1-2(6)4-3(1)8(4)5/h1-4,7,9H	InChI=1S/C6H6N2O/c7-5-6(9)1-2(6)4-3(1)8(4)5/h1-4,7,9H/t1-,2+,3-,4+,6-,8?
