19
gdb 78563	2.65557	1.463	1.14444	2.9898	75.63	-0.2313	0.0729	0.3042	1115.7134	0.157769	-422.968653	-422.959874	-422.95893	-423.001796	34.081	
O	-0.0353333925	 1.42325307	 0.000054209	-0.436364
C	-0.0689061844	 0.0264066587	-0.0844106001	 0.09322
C	-1.3283918311	-0.7999550816	-0.0096558912	-0.307142
C	-2.4268910012	-0.0937172308	-0.7787421655	 0.377869
C	-3.8875843071	-0.4017740677	-0.7023794388	-0.348803
C	-3.3825768038	 0.9575095107	-0.2631583746	-0.335781
C	-1.5800202771	-0.0460650101	-2.0688205649	-0.389936
C	-0.4452495059	-0.7377752071	-1.3043031617	 0.353188
O	 0.4453845735	-1.637436255	-1.8492353876	-0.453321
H	-0.940895697	 1.7323661304	 0.1053120828	 0.295049
H	 0.7756907302	-0.4205425059	 0.4353049979	 0.107513
H	-1.4786298545	-1.5785739234	 0.7303377608	 0.087889
H	-4.4479569533	-0.4579149772	-1.6303360265	 0.114235
H	-4.2270005959	-1.0897298398	 0.0655790059	 0.116153
H	-3.3903468296	 1.1784853209	 0.7999568194	 0.116848
H	-3.6059064893	 1.8080392224	-0.8996203263	 0.118232
H	-1.9991890343	-0.6794589643	-2.8573250735	 0.097522
H	-1.341689666	 0.9380079531	-2.4848070589	 0.109696
H	-0.0543136906	-2.3325703133	-2.2926065161	 0.283935
85.7728	130.2697	185.8683	240.1841	262.1561	295.1737	344.7506	386.4861	410.9192	487.312	524.0931	626.5485	664.4527	785.0166	803.4853	831.9481	858.4133	900.0068	918.4508	951.6154	962.0815	996.7123	1019.1088	1048.6338	1071.413	1080.884	1099.5217	1140.8475	1186.4236	1191.3364	1214.7282	1244.3061	1253.9346	1298.842	1332.7486	1381.2077	1393.9905	1464.0372	1466.6437	1498.0641	1508.0023	3040.3301	3091.3378	3119.2004	3123.7359	3145.1601	3171.2456	3198.4356	3213.1917	3786.1962	3817.2649
OC1C2C3(CC3)CC12O	O[C@H]1[C@H]2C3(CC3)C[C@@]12O	
InChI=1S/C7H10O2/c8-5-4-6(1-2-6)3-7(4,5)9/h4-5,8-9H,1-3H2	InChI=1S/C7H10O2/c8-5-4-6(1-2-6)3-7(4,5)9/h4-5,8-9H,1-3H2/t4-,5-,7-/m0/s1
