17
gdb 69167	2.20271	1.71204	1.3832	1.8569	68.98	-0.2384	-0.0312	0.2072	1016.8144	0.132081	-458.943096	-458.933872	-458.932928	-458.976569	34.073	
C	-0.0808911964	 1.5201501269	 0.0790151035	-0.512214
C	 0.1183228555	 0.044037508	 0.0024745319	 0.421148
O	-0.7265406991	-0.8450471082	 0.7216047998	-0.279285
C	 0.6956295209	-0.913151082	 0.9947841328	-0.214975
C	 1.2671195826	-1.7342468996	-0.1409329973	 0.39292
O	 2.0916523804	-2.5957480117	-0.2427691954	-0.318664
C	 0.6183536742	-0.778960056	-1.2121299321	 0.203954
C	-0.4083128323	-1.3244599593	-2.1851314249	-0.46456
O	 1.666597142	-0.0674950059	-1.8482645743	-0.472453
H	 0.8018952941	 2.0308490517	-0.3134989315	 0.153557
H	-0.9455000733	 1.8226951937	-0.5215281909	 0.138523
H	-0.2535338872	 1.8338257378	 1.1114676647	 0.137294
H	 1.0158993655	-0.7739402786	 2.020676278	 0.125048
H	-1.257517676	-1.7536523835	-1.6484363222	 0.141666
H	-0.7616551797	-0.5282877838	-2.8478749234	 0.126956
H	 0.0393564568	-2.1099413991	-2.8038266826	 0.125353
H	 2.2483741121	-0.7136424706	-2.2662734962	 0.29573
89.9045	173.8075	188.7642	202.1912	218.4434	237.8429	263.1849	308.799	368.6454	402.7656	514.6865	538.6367	594.0599	691.7107	724.5347	760.4676	827.0431	840.1108	958.2542	984.1047	1018.8989	1050.3403	1078.9755	1107.1877	1174.7449	1188.33	1226.4354	1254.5202	1348.8309	1396.8971	1400.4636	1448.9187	1478.9662	1488.2091	1493.1805	1495.3867	1888.263	3036.712	3044.1782	3102.9461	3111.807	3132.2559	3136.7501	3193.1666	3792.6647
CC12OC1C(=O)C2(C)O	C[C@]12O[C@H]1C(=O)[C@]2(C)O	
InChI=1S/C6H8O3/c1-5(8)3(7)4-6(5,2)9-4/h4,8H,1-2H3	InChI=1S/C6H8O3/c1-5(8)3(7)4-6(5,2)9-4/h4,8H,1-2H3/t4-,5-,6-/m0/s1
