19
gdb 41342	2.96649	1.8802	1.54888	1.2016	73.04	-0.2398	0.068	0.3079	916.3984	0.162711	-422.999422	-422.992972	-422.992028	-423.029823	27.712	
C	 0.0139363204	 1.4924147738	-0.1624488916	-0.159135
O	 1.4552954256	 1.4678240149	 0.0929294553	-0.366461
C	 1.3144158657	 0.1950564319	 0.7389833352	 0.454161
C	 2.1899613573	-1.0430138713	 0.6132260326	-0.310959
C	 1.2427681266	-2.0358521886	 1.3992912139	-0.225546
C	 0.1508437263	-1.1169400736	 2.0406980469	 0.099712
C	 0.9308741013	 0.1808225166	 2.2438990381	-0.290063
O	-0.8396302919	-0.7199610349	 1.0528881133	-0.287735
C	-0.0454226412	-0.0393115099	 0.0931503603	 0.057187
H	-0.5222546907	 2.1064523682	 0.5695719595	 0.111587
H	-0.2038901953	 1.8367420254	-1.1765865601	 0.11232
H	 2.3460383756	-1.3466158587	-0.4246629433	 0.106009
H	 3.1662968542	-0.938933805	 1.0958703523	 0.103783
H	 0.7832430665	-2.7791201891	 0.7437055573	 0.115486
H	 1.7882141787	-2.570534913	 2.181274111	 0.108077
H	-0.380677716	-1.558781121	 2.8823150339	 0.080929
H	 1.7981415765	 0.094139862	 2.9033245744	 0.098513
H	 0.2998152396	 1.0130939883	 2.5562838268	 0.108546
H	-0.0190447593	-0.595760666	-0.8499014357	 0.083591
205.8676	277.2843	341.9224	404.4377	421.0235	459.8886	530.3685	637.895	707.6897	735.4886	785.4782	813.8745	858.2274	877.9722	915.8657	928.0169	940.8074	957.9237	998.4661	1010.8182	1054.5428	1068.2167	1093.6663	1121.1522	1130.2793	1157.7428	1183.2785	1214.1161	1224.971	1239.2053	1258.7734	1290.2847	1307.6816	1325.6851	1333.5233	1344.6324	1391.6215	1476.9438	1489.0149	1510.3174	1515.6073	3039.425	3043.0093	3053.5197	3067.3661	3074.7091	3101.6127	3106.1013	3121.1036	3132.4173	3142.0438
C1OC23CCC(C2)OC13	C1O[C@@]23CC[C@@H](C2)O[C@@H]13	
InChI=1S/C7H10O2/c1-2-7-3-5(1)9-6(7)4-8-7/h5-6H,1-4H2	InChI=1S/C7H10O2/c1-2-7-3-5(1)9-6(7)4-8-7/h5-6H,1-4H2/t5-,6-,7-/m0/s1
