18
gdb 90477	2.72394	1.36139	1.19931	2.2628	72.	-0.2509	0.0034	0.2542	1089.7356	0.14846	-439.088543	-439.080399	-439.079455	-439.121362	30.77	
O	 0.077553309	 1.2193009372	-0.1141194331	-0.439479
C	 0.1132698844	-0.1984370618	-0.0691016261	 0.107833
C	 0.7074412664	-0.7680067969	 1.2484257701	-0.264164
C	-0.1035419094	-2.0126305795	 1.5546985968	-0.03439
C	-1.355943775	-1.9907332524	 0.7034939094	-0.060282
C	-1.3388768415	-0.7241613844	-0.1334181098	-0.236176
N	-0.3024317532	-2.963888467	 0.4871625185	-0.060866
C	 0.4769004059	-3.2178307044	-0.6155735792	 0.146068
O	 1.6861033041	-3.2559296777	-0.6187930386	-0.308978
H	 0.9768351132	 1.5373871321	-0.2408746202	 0.285615
H	 0.6880341745	-0.582114722	-0.9212053435	 0.092544
H	 1.7780725202	-0.9731043063	 1.1677303151	 0.127703
H	 0.5500711005	-0.0352253712	 2.0476479147	 0.113641
H	-0.1000058452	-2.4253714873	 2.5592605751	 0.10552
H	-2.3030133297	-2.3859457722	 1.059388784	 0.103645
H	-1.9952101543	 0.0192238263	 0.3330912661	 0.126028
H	-1.6861472782	-0.8681565734	-1.1603478153	 0.113927
H	-0.1382027615	-3.4576638991	-1.505316824	 0.08181
99.1511	131.0858	149.2089	241.4434	285.9291	336.1979	377.7605	418.3609	470.2653	584.4903	659.3081	700.5185	811.7151	844.5009	879.7452	904.7603	911.1841	1020.72	1024.2249	1034.1833	1047.7701	1071.0545	1113.9663	1120.915	1138.3001	1186.5343	1222.4129	1279.4476	1292.0623	1301.9129	1318.2236	1354.8601	1370.1976	1418.8798	1440.6538	1455.4278	1475.0463	1491.0964	1785.235	2939.2277	3019.8387	3049.2259	3052.4316	3097.0535	3107.0574	3150.4311	3159.3796	3823.0617
OC1CC2C(C1)N2C=O	O[C@H]1C[C@H]2[C@@H](C1)N2C=O	
InChI=1S/C6H9NO2/c8-3-7-5-1-4(9)2-6(5)7/h3-6,9H,1-2H2	InChI=1S/C6H9NO2/c8-3-7-5-1-4(9)2-6(5)7/h3-6,9H,1-2H2/t4-,5-,6+,7?
