17
gdb 24295	3.94241	1.63314	1.26894	3.8758	77.59	-0.2074	0.0323	0.2397	974.5422	0.140724	-380.904406	-380.898022	-380.897078	-380.935047	26.115	
C	-0.0214379246	 1.4671445888	 0.1007878506	-0.284175
C	 1.3004600369	 0.750819116	 0.0292381231	-0.042198
C	 2.0286819777	 0.4319241924	 1.3414309199	-0.205136
N	 1.0790153607	-0.4365947271	 2.0230886738	 0.002578
C	 0.9763660525	-1.0991096607	 3.2243728808	-0.158926
C	-0.2020132885	-1.8016407551	 3.1321126602	-0.097181
N	-0.828347639	-1.5814240962	 1.9201084717	-0.369013
C	-0.0248526905	-0.7593058625	 1.2875781565	 0.391248
C	-0.0003088337	-0.0457498931	-0.0076380244	-0.172411
H	-0.336799002	 1.903361708	 1.0434288777	 0.125816
H	-0.3246470895	 2.024904678	-0.7787804775	 0.119925
H	 1.906567783	 0.8673607861	-0.8601515983	 0.101086
H	 2.9739832202	-0.0918793985	 1.1572279442	 0.124485
H	 2.2459361827	 1.3275531071	 1.9338511348	 0.12629
H	 1.7205312496	-1.02321654	 3.9993393591	 0.12302
H	-0.6361681874	-2.4555726902	 3.8736651406	 0.10307
H	-0.3644999281	-0.532123843	-0.9029152128	 0.111522
147.1333	190.2261	320.9612	417.5539	435.7416	606.7949	635.0033	709.9849	717.7702	745.3304	778.804	806.0207	821.7385	841.3939	897.6131	945.7591	971.1727	1002.1461	1047.5365	1072.058	1083.7931	1100.1444	1113.5298	1148.6672	1185.3489	1195.0372	1221.6856	1293.1176	1295.8574	1325.4117	1365.9314	1415.0972	1449.0344	1484.6119	1502.7874	1529.0849	1588.7683	3030.8033	3067.7954	3127.5471	3191.5473	3202.7742	3218.3169	3244.1218	3279.2652
C1C2CN3C=CN=C3C12	C1[C@H]2Cn3ccnc3[C@@H]12	
InChI=1S/C7H8N2/c1-2-9-4-5-3-6(5)7(9)8-1/h1-2,5-6H,3-4H2	InChI=1S/C7H8N2/c1-2-9-4-5-3-6(5)7(9)8-1/h1-2,5-6H,3-4H2/t5-,6-/m0/s1
