15
gdb 67363	3.03829	1.96131	1.37918	2.8562	66.45	-0.2515	0.0046	0.2561	892.0274	0.114363	-453.882209	-453.875645	-453.874701	-453.912876	26.851	
O	 0.0628863604	 1.399222959	-0.0208943048	-0.476574
C	 0.0097577741	 0.0358147316	-0.005014435	 0.382118
C	 0.0687525755	-0.8372694025	 1.3084997814	-0.123057
N	-1.3823361563	-0.5238971806	 1.5713975644	-0.331218
C	-1.327547818	-0.7971716922	 0.0897458467	-0.123079
C	-0.3163600567	-1.9560075661	 0.3030023145	 0.071781
O	 0.6307039423	-2.0161609289	-0.7840224263	-0.246746
C	 0.8627951812	-0.6889909193	-1.0062526201	 0.369806
N	 1.6137689104	-0.1309233579	-1.848398584	-0.583676
H	 0.6856458914	 1.6321015417	-0.727311357	 0.303004
H	 0.8305355023	-0.8383936503	 2.0879708895	 0.099752
H	-1.8238519248	-1.3159459156	 2.0511720186	 0.212135
H	-2.2020958629	-0.7512886424	-0.5590602259	 0.09975
H	-0.6258114331	-2.9466725335	 0.6249498238	 0.109789
H	 2.1114722344	-0.7949972832	-2.4405819457	 0.236214
155.1611	273.2647	336.7851	360.1596	415.735	427.9043	548.1215	622.9732	652.3969	703.6765	706.6637	835.3249	850.693	887.0902	888.4887	914.0334	927.4062	990.6945	999.4862	1041.1209	1065.3853	1121.8287	1137.8715	1143.7998	1147.0108	1225.6054	1241.6478	1286.2607	1290.3551	1332.9439	1410.3711	1443.4213	1809.9646	3123.3415	3125.94	3173.9431	3373.4453	3501.3948	3707.8104
OC12C3NC1C3OC2=N	O[C@@]12[C@H]3N[C@@H]1[C@H]3O[C]2[NH]	
InChI=1S/C5H6N2O2/c6-4-5(8)2-1(9-4)3(5)7-2/h1-3,6-8H	InChI=1S/C5H6N2O2/c6-4-5(8)2-1(9-4)3(5)7-2/h1-3,6-8H/t1-,2-,3+,5-
