17
gdb 45993	4.24034	1.00184	0.86487	2.9307	80.18	-0.2381	-0.0345	0.2036	1315.5609	0.137833	-418.001256	-417.99342	-417.992475	-418.034698	29.161	
N	 0.2121904769	 1.0391965835	-0.8066257052	-0.554483
C	 0.132962821	-0.1240880051	-0.3136593824	 0.430664
O	 0.6442364376	-0.5002291776	 0.910678961	-0.252525
C	 0.3676587173	-1.8795827182	 1.1368544554	-0.175255
C	-0.3850618261	-2.3441685798	-0.0859122608	 0.332087
C	-0.4999070356	-1.2994721434	-0.915821205	-0.335339
C	-0.8577808458	-3.7330816984	-0.2136357259	-0.119049
C	-2.3087476561	-4.0098633116	-0.471638009	-0.226565
N	-1.309585218	-4.279308552	-1.5038197036	-0.306913
H	 0.7099634209	 1.664701116	-0.1717686852	 0.222735
H	 1.3115776995	-2.4243347462	 1.2766804405	 0.131015
H	-0.2208087284	-1.9878578395	 2.0582432302	 0.131067
H	-0.9657495743	-1.2532429918	-1.8895416051	 0.122357
H	-0.3135043079	-4.4556589117	 0.3909125482	 0.10068
H	-2.7703138742	-4.8903106785	-0.0331487973	 0.130334
H	-2.9609366178	-3.147604432	-0.5779242588	 0.127115
H	-1.3156004291	-3.5447826137	-2.207261147	 0.242074
36.2768	126.6341	168.306	202.8589	301.5802	376.0673	458.1548	538.5714	619.5206	688.4679	706.6063	814.3119	856.1393	871.459	896.4405	901.5773	927.0545	959.7095	992.1278	1033.0653	1036.5967	1079.3534	1103.6342	1135.6736	1164.233	1191.2181	1200.3944	1244.228	1258.0801	1301.6093	1318.6585	1387.1633	1430.4954	1500.7776	1506.1491	1688.7325	1759.1845	3007.8771	3037.6608	3111.0201	3128.1548	3203.0053	3241.5438	3483.7537	3507.6271
N=C1OCC(=C1)C1CN1	[NH]C1=C[C](CO1)[C@H]1CN1	
InChI=1S/C6H8N2O/c7-6-1-4(3-9-6)5-2-8-5/h1,5,7-8H,2-3H2	InChI=1S/C6H8N2O/c7-6-1-4(3-9-6)5-2-8-5/h1,5,7-8H,2-3H2/t5-/m1/s1
