13
gdb 123981	3.86442	1.66203	1.17054	1.8161	63.99	-0.2405	-0.0259	0.2145	942.6833	0.092167	-452.736247	-452.730076	-452.729132	-452.767067	23.591	
C	-0.0076399665	 1.4957500326	-0.0510812738	-0.280085
N	 1.3584374347	 2.0117185431	 0.1108705137	-0.254615
C	 2.3524679789	 1.2515701414	 0.2548182001	 0.117808
O	 2.4096498087	-0.1256858227	 0.2937600974	-0.242726
C	 1.1754905776	-0.6962658132	 0.1498942501	 0.204893
C	 0.0328515887	 0.0092829292	-0.0117091412	 0.303341
O	-1.001457961	-0.8333182075	-0.1239196765	-0.21565
N	-0.5252513685	-2.1469744758	-0.0329746194	-0.129727
C	 0.7752712196	-2.0526285239	 0.1302229889	-0.086397
H	-0.6386668341	 1.9153564087	 0.7433827583	 0.145663
H	-0.4172767623	 1.8753042217	-0.9963719978	 0.145663
H	 3.3551947839	 1.6515253621	 0.373202876	 0.143374
H	 1.3679772303	-2.9499365457	 0.2263076942	 0.148457
103.1596	226.6044	339.9001	398.3751	482.4082	526.1021	633.0845	634.784	680.5958	736.7962	869.1903	889.052	897.1702	946.417	950.3116	964.9139	1033.1101	1084.9995	1183.5403	1205.2839	1233.807	1276.9689	1360.0597	1400.003	1450.1822	1494.1953	1517.845	1689.5168	1746.3853	3015.61	3034.8161	3192.3277	3258.9842
C1N=COC2=C1ON=C2	C1N=COc2c1onc2	
InChI=1S/C5H4N2O2/c1-5-4(2-7-9-5)8-3-6-1/h2-3H,1H2	InChI=1S/C5H4N2O2/c1-5-4(2-7-9-5)8-3-6-1/h2-3H,1H2
