18
gdb 7473	3.93688	1.40903	1.30879	1.1134	73.19	-0.253	0.0405	0.2934	1008.2429	0.152145	-347.763597	-347.755256	-347.754312	-347.796106	32.006	
O	 0.065239022	 1.549811576	-0.2815334867	-0.481479
C	-0.0193410474	 0.1798189667	 0.0277799606	 0.428669
C	 0.867543886	-0.6484999574	-0.929123361	-0.397673
C	 2.2624720872	-0.2281819033	-0.861004376	 0.266349
C	 3.3894814575	 0.1837833814	-0.7718364639	-0.430213
C	 0.1442361047	-0.230869175	 1.5250644701	-0.273026
C	-1.1376738517	-1.0974330464	 1.3895046705	-0.215749
C	-1.4789161379	-0.3310585653	 0.0818196721	-0.264051
H	 1.0019965515	 1.780606483	-0.3325815988	 0.27921
H	 0.7825657701	-1.7151244969	-0.689462569	 0.129787
H	 0.4910668838	-0.516493678	-1.95100728	 0.135992
H	 4.3962438921	 0.5160762263	-0.7090003397	 0.20015
H	 1.0754815882	-0.7232478111	 1.816258093	 0.099782
H	-0.0165483187	 0.6403946218	 2.1644604384	 0.107686
H	-0.9139796526	-2.1525845037	 1.2104106827	 0.102112
H	-1.8648785159	-1.0361997148	 2.2009373378	 0.103343
H	-2.1528486581	 0.5097653763	 0.2607741183	 0.115236
H	-1.8440022209	-0.9033078897	-0.7755338582	 0.093873
81.3272	129.7789	149.6789	282.2079	328.0717	364.0013	379.6204	396.733	436.4139	521.4883	625.1403	653.0633	658.0383	738.0921	791.7848	848.9966	893.5484	918.6912	933.747	969.9113	981.6377	1033.9952	1057.0406	1123.9013	1190.0553	1195.1975	1243.4054	1249.7653	1262.2884	1274.5134	1305.0442	1313.2734	1396.6011	1460.1124	1471.6534	1485.1741	1507.2189	2229.0413	3027.927	3057.9395	3061.333	3066.636	3068.6889	3107.1223	3119.0209	3129.8999	3504.1226	3761.1888
OC1(CC#C)CCC1	OC1(CC#C)CCC1	
InChI=1S/C7H10O/c1-2-4-7(8)5-3-6-7/h1,8H,3-6H2	InChI=1S/C7H10O/c1-2-4-7(8)5-3-6-7/h1,8H,3-6H2
