13
gdb 25517	5.51306	1.01086	0.8596	3.2807	69.53	-0.2676	-0.0683	0.1993	1230.0528	0.090493	-452.811916	-452.804775	-452.803831	-452.844391	25.324	
O	 0.033021875	-0.0460798617	 0.1343673349	-0.248157
C	-0.0060502636	 1.1274813313	-0.053503169	 0.167853
O	 1.0729286626	 1.9228058	 0.2560015103	-0.23168
C	 0.9694597707	 3.2824209659	 0.1411139079	 0.428131
C	 2.161305026	 3.9987420586	-0.0302617664	-0.076213
N	 2.1537031743	 5.3220166606	-0.1101500252	-0.222302
C	 0.9607496445	 5.9259435784	-0.0306948658	-0.013685
C	-0.2123830679	 5.2022402963	 0.1319127855	-0.018147
N	-0.2105683868	 3.8668700116	 0.2290949259	-0.316152
H	-0.8416001118	 1.6959816529	-0.4810198641	 0.131601
H	 3.1112930852	 3.4774051636	-0.096388639	 0.140636
H	 0.9475968312	 7.0093710006	-0.096115889	 0.127128
H	-1.1774467894	 5.6962671119	 0.1979685638	 0.130985
71.5475	106.4436	173.8399	251.635	403.0222	436.6888	505.3704	552.9403	623.3397	731.0711	783.3904	877.0246	915.7491	961.3836	988.6428	1024.6294	1039.3996	1077.6945	1091.0538	1200.6861	1243.7722	1302.0389	1325.2852	1403.1515	1438.8116	1501.3204	1585.6682	1618.5988	1875.3489	3072.6411	3169.0123	3181.1892	3189.4171
O=COC1=CN=CC=N1	O=COc1cnccn1	
InChI=1S/C5H4N2O2/c8-4-9-5-3-6-1-2-7-5/h1-4H	InChI=1S/C5H4N2O2/c8-4-9-5-3-6-1-2-7-5/h1-4H
