17
gdb 53182	3.23257	1.15188	1.05149	1.996	81.33	-0.2296	-0.003	0.2267	1217.0424	0.136334	-380.826959	-380.81854	-380.817596	-380.86137	30.24	
C	 0.0131901153	 1.4997204266	-0.0691056025	-0.500561
C	 0.0004165334	 0.0452898724	-0.0399987599	 0.060987
C	-0.0190186392	-1.1594195024	-0.015866189	 0.136927
C	-0.0129775009	-2.5918981249	 0.0019715817	-0.226035
C	-0.4613218912	-3.3732312101	 1.1962077682	-0.04802
C	-1.2932869836	-2.6653373238	 2.2643915078	-0.192537
N	-2.5263171594	-2.2406136362	 1.5740645658	-0.1916
C	-2.4307181113	-2.6332055509	 0.3704400412	 0.045495
N	-1.2905389364	-3.4019597459	-0.0280494538	-0.148676
H	 0.853299732	 1.9012782695	 0.5082064307	 0.152032
H	 0.1012871188	 1.8779349588	-1.093433598	 0.152053
H	-0.9089895875	 1.9066635797	 0.3594700221	 0.15881
H	 0.7493532698	-3.0532867556	-0.6207587992	 0.120933
H	 0.0669364537	-4.2890863449	 1.441594892	 0.104269
H	-1.5446487448	-3.3421197691	 3.0880711573	 0.12021
H	-0.7997788074	-1.7873899503	 2.6959335277	 0.127666
H	-3.1930072615	-2.4443804333	-0.3789869521	 0.128046
31.8214	79.9634	101.052	230.517	235.5054	336.4424	371.4585	451.9935	528.4396	587.2305	722.3965	733.007	790.5957	833.8635	866.0175	947.37	953.6262	971.3468	1000.2035	1033.8713	1050.9744	1052.642	1086.509	1102.3718	1173.1698	1214.4585	1264.5003	1310.6823	1320.0631	1355.5938	1388.1416	1413.6569	1475.4047	1477.0204	1479.111	1682.7089	2365.2931	3028.9167	3042.393	3076.7527	3089.576	3093.9237	3136.4019	3161.2924	3195.6086
CC#CC1C2CN=CN12	CC#C[C@H]1[C@H]2CN=CN12	
InChI=1S/C7H8N2/c1-2-3-6-7-4-8-5-9(6)7/h5-7H,4H2,1H3	InChI=1S/C7H8N2/c1-2-3-6-7-4-8-5-9(6)7/h5-7H,4H2,1H3/t6-,7+,9?/m0/s1
