19
gdb 6366	4.62367	0.94604	0.93373	4.3663	69.6	-0.2531	0.0242	0.2773	1336.8833	0.163548	-402.239413	-402.229622	-402.228677	-402.276137	34.276	
C	-0.0379898532	 1.3571567572	-0.2312869241	-0.384931
C	 0.0426388805	-0.1252880109	 0.1470628859	 0.046173
C	 0.770671029	-0.3437669457	 1.4782952044	-0.382044
N	-1.2960949764	-0.7155783817	 0.1857935658	-0.317718
C	-1.6789604732	-1.774669757	-0.5636860679	 0.391858
O	-0.9539710437	-2.3535625705	-1.3620179448	-0.393224
C	-3.1254652409	-2.252896463	-0.3788731013	-0.146435
O	-3.3720614827	-3.3451279436	-1.2118306188	-0.419831
H	 0.964160315	 1.7911570714	-0.2976098018	 0.124302
H	-0.5352747869	 1.488017188	-1.1960979036	 0.128723
H	-0.5960763633	 1.9266151099	 0.5220072946	 0.109817
H	 0.5643685426	-0.6730620911	-0.6415427269	 0.129713
H	 0.8397236427	-1.4090791119	 1.7140346039	 0.130317
H	 1.7845526208	 0.0656873871	 1.4339472167	 0.122974
H	 0.245728692	 0.156144006	 2.3012358431	 0.109273
H	-1.9686244055	-0.3158808514	 0.8235166622	 0.244299
H	-3.2815172164	-2.5163647812	 0.6800902404	 0.106144
H	-3.8077492609	-1.4169252898	-0.604484584	 0.106551
H	-2.5297322295	-3.4813525919	-1.6801455236	 0.294038
9.3355	65.1623	83.2331	156.7086	227.6257	258.4014	291.4622	344.3106	393.0446	438.3407	468.104	472.9165	486.3923	611.0482	716.9199	844.6003	921.8602	932.3554	949.1975	982.2805	1036.5871	1137.4825	1146.7174	1176.5835	1190.6744	1246.0554	1254.4923	1314.421	1360.7838	1373.9819	1400.9923	1420.3156	1464.5718	1484.1764	1488.3725	1498.3436	1506.5129	1511.1115	1559.2107	1764.3629	2968.8494	2986.8316	3027.8517	3031.7061	3085.3372	3095.2235	3112.4936	3119.4569	3122.2425	3609.9172	3640.0975
CC(C)NC(=O)CO	CC(C)NC(=O)CO	
InChI=1S/C5H11NO2/c1-4(2)6-5(8)3-7/h4,7H,3H2,1-2H3,(H,6,8)	InChI=1S/C5H11NO2/c1-4(2)6-5(8)3-7/h4,7H,3H2,1-2H3,(H,6,8)
