16
gdb 11837	3.40134	1.92554	1.5528	2.7985	60.46	-0.2582	0.0527	0.3109	846.641	0.129628	-420.834001	-420.826542	-420.825598	-420.865804	28.504	
O	 0.1345559223	 1.327945447	-0.1538014891	-0.441903
C	 0.1074383719	-0.0655446043	-0.0004149346	 0.101753
C	 0.2511777386	-0.5060250858	 1.490793135	-0.327083
C	-1.2606590835	-0.7243451705	 1.530233012	 0.37154
C	-2.1914692924	-1.2993643051	 2.4968739225	-0.264938
O	-2.1247296245	 0.1256185507	 2.2856942833	-0.272893
C	-1.3702778452	-0.6090801146	 0.0030621156	 0.038183
O	-2.3411839707	 0.29979153	-0.4501820407	-0.439568
H	-0.7175660632	 1.5616040462	-0.5524850242	 0.287285
H	 0.7912778832	-0.5547583026	-0.7046760201	 0.067458
H	 0.8246340987	-1.4273274352	 1.6259070212	 0.10833
H	 0.6297917967	 0.2713769848	 2.1562704458	 0.13143
H	-3.1063356252	-1.7777890365	 2.1503511811	 0.123788
H	-1.8297450016	-1.631456935	 3.468463348	 0.127295
H	-1.4823208285	-1.566052658	-0.5171921302	 0.087263
H	-2.7336737765	 0.6797860791	 0.3517994745	 0.302062
57.6961	215.134	258.6889	285.2308	335.6789	341.3428	409.058	504.2478	583.016	605.6171	672.7999	772.0089	818.6271	846.3873	878.8781	918.3664	945.1874	1021.5586	1088.2683	1114.2002	1123.6237	1160.7038	1169.12	1178.0461	1204.5643	1246.5496	1267.1649	1328.0058	1368.1339	1400.8536	1417.1662	1432.6986	1461.5074	1530.932	3021.9784	3054.4045	3067.6309	3086.9008	3135.2829	3175.8838	3691.5784	3705.588
OC1CC2(CO2)C1O	O[C@H]1C[C@]2(CO2)[C@H]1O	
InChI=1S/C5H8O3/c6-3-1-5(2-8-5)4(3)7/h3-4,6-7H,1-2H2	InChI=1S/C5H8O3/c6-3-1-5(2-8-5)4(3)7/h3-4,6-7H,1-2H2/t3-,4-,5-/m0/s1
