17
gdb 83187	2.81005	1.50092	1.26722	3.5713	67.52	-0.2621	0.0067	0.2689	1025.2944	0.137048	-458.982811	-458.975123	-458.974179	-459.015172	29.654	
O	 0.207491638	 1.2324120196	 0.3220359595	-0.419827
C	 0.0382000355	-0.1301123189	 0.1026654492	 0.087748
C	-1.3774292936	-0.6829270572	 0.037665148	-0.111369
C	-2.5647094996	 0.2599247595	 0.1179659595	-0.248816
C	-3.1344825709	 0.4735976181	-1.2945005764	-0.335405
C	-2.0855642123	 0.9903868053	-2.2595695958	 0.414448
O	-2.2754598832	 1.8149655855	-3.1063572853	-0.311349
O	-0.8171425619	 0.4813388133	-2.1193790919	-0.238827
C	-0.5436920297	-0.569104289	-1.2148682515	 0.024305
H	 0.3495194599	 1.6521426838	-0.5358979656	 0.304309
H	 0.8062888047	-0.7509100239	 0.5576728545	 0.102368
H	-1.5216754421	-1.6890161794	 0.4177246758	 0.100198
H	-3.3360981071	-0.1462903819	 0.7766204305	 0.112288
H	-2.2464685427	 1.2184173995	 0.5391777587	 0.135896
H	-3.513337298	-0.4789467511	-1.6868920995	 0.133723
H	-3.9595732861	 1.1876176927	-1.3170101033	 0.136971
H	-0.1661259307	-1.4478830556	-1.7264937365	 0.113337
76.7369	143.0014	209.7973	284.1306	312.0496	411.2273	434.7131	506.1179	567.4297	636.6262	637.48	725.8188	766.1981	786.2923	799.4777	924.3904	934.327	977.2366	1007.1408	1063.3639	1070.2802	1111.6137	1120.3474	1162.0262	1164.7553	1213.6489	1242.0624	1262.5295	1339.055	1350.1869	1352.6105	1366.9271	1381.7412	1428.0611	1468.5751	1497.5154	1863.3747	3036.7274	3060.7977	3104.7192	3122.0056	3132.8118	3158.3481	3169.2835	3773.458
OC1C2CCC(=O)OC12	O[C@H]1[C@H]2CCC(=O)O[C@@H]12	
InChI=1S/C6H8O3/c7-4-2-1-3-5(8)6(3)9-4/h3,5-6,8H,1-2H2	InChI=1S/C6H8O3/c7-4-2-1-3-5(8)6(3)9-4/h3,5-6,8H,1-2H2/t3-,5+,6-/m1/s1
