21
gdb 55777	3.166	0.98551	0.88336	2.4468	85.75	-0.2249	-0.017	0.2079	1416.1055	0.181944	-387.133829	-387.12432	-387.123376	-387.169589	34.431	
C	 0.558995029	 0.5687709234	 0.7475132222	-0.473219
C	-0.0609081329	 0.0009234145	-0.5145799875	 0.38493
O	 0.4722241012	 0.0856241547	-1.5959698279	-0.299641
C	-1.3967691077	-0.7359969564	-0.3383164853	-0.399122
C	-1.1376816861	-2.1937813817	-0.0663191911	 0.334264
C	-1.3529923416	-2.8490134058	 1.0775120992	-0.174521
C	-1.0053834707	-4.3145232101	 0.9783576349	-0.242505
C	-0.2088054464	-4.3934863065	-0.3507996577	-0.205591
C	-0.5999197638	-3.1200119201	-1.1399534097	-0.294969
H	 1.5663835239	 0.932603871	 0.5426438539	 0.140679
H	-0.0580463506	 1.3944944169	 1.1217985544	 0.139831
H	 0.5822928977	-0.1937405169	 1.5329641243	 0.143262
H	-1.9692521244	-0.294329144	 0.4835178595	 0.104455
H	-1.9581736493	-0.6160890667	-1.2713582916	 0.123463
H	-1.7793537743	-2.4058519444	 1.972140845	 0.082699
H	-0.4268222461	-4.677053442	 1.8357823556	 0.101303
H	-1.9184156033	-4.9268311365	 0.9470574827	 0.10483
H	 0.8633233851	-4.3683108594	-0.1313291729	 0.105713
H	-0.4015874046	-5.3140177127	-0.9071772041	 0.097253
H	-1.3855661248	-3.3207573715	-1.8831853171	 0.103064
H	 0.2366338599	-2.6835744659	-1.6946850269	 0.123822
32.8917	65.2927	92.6826	150.5058	157.4474	248.9424	292.4651	383.9784	466.544	495.3973	557.8314	617.6943	693.6238	780.1709	816.8316	848.3443	870.4483	897.8577	903.9842	922.3456	954.4876	1024.3674	1031.4623	1041.8236	1072.2931	1139.327	1151.3	1167.3216	1227.0041	1228.6728	1250.9863	1284.3399	1302.5214	1320.3874	1329.4991	1368.5229	1379.2573	1461.308	1471.7336	1476.9155	1483.9538	1488.9328	1506.6655	1708.2925	1812.6009	3001.8549	3003.0187	3034.6946	3038.465	3044.7321	3058.005	3075.8412	3094.3776	3099.1384	3102.5919	3153.8194	3178.4008
CC(=O)CC1=CCCC1	CC(=O)CC1=CCCC1	
InChI=1S/C8H12O/c1-7(9)6-8-4-2-3-5-8/h4H,2-3,5-6H2,1H3	InChI=1S/C8H12O/c1-7(9)6-8-4-2-3-5-8/h4H,2-3,5-6H2,1H3
