23
gdb 70088	2.09189	1.80637	1.42122	0.23	89.89	-0.2229	0.0243	0.2472	1089.8808	0.205514	-351.164066	-351.155026	-351.154082	-351.196615	36.88	
C	-0.1327106756	 1.4899546737	 0.0505477432	-0.489409
C	 0.0389804813	-0.0132469549	 0.0189452412	 0.332156
C	-0.7643853364	-0.820903617	 1.012233843	-0.331754
C	 0.7482702265	-0.7582985629	 1.141955669	-0.123197
C	 1.4490230197	-1.8974717965	 0.485641762	-0.096663
C	 1.2241842761	-1.9155967448	-0.8289014818	-0.107756
C	 0.4260750554	-0.712817501	-1.3142069356	 0.182454
C	-0.8034814301	-1.1176600491	-2.1483455028	-0.420561
C	 1.3452877774	 0.1756104818	-2.1803204891	-0.42441
H	 0.7696084473	 2.0182171864	-0.2729472556	 0.118069
H	-0.9569921726	 1.8127236485	-0.5974506607	 0.115066
H	-0.3663671702	 1.8292538266	 1.0644198158	 0.110856
H	-1.3580931025	-0.253125449	 1.7225440511	 0.102345
H	-1.1960069128	-1.7728707052	 0.7232682751	 0.10819
H	 1.1887414242	-0.2473822965	 1.9919088807	 0.079705
H	 2.017549234	-2.6375108229	 1.0382452817	 0.092131
H	 1.5690501948	-2.6793465926	-1.5187289971	 0.085776
H	-1.4710192777	-1.7801615388	-1.5915545069	 0.114425
H	-1.3768403285	-0.2333849248	-2.4488088337	 0.110518
H	-0.4997152675	-1.6390808648	-3.0629178552	 0.10716
H	 1.7184115207	-0.3941359006	-3.0381494605	 0.107688
H	 0.813141153	 1.0497241744	-2.570427232	 0.110486
H	 2.2115576338	 0.52350071	-1.609919852	 0.116726
131.9494	217.8888	223.7047	243.0336	272.5733	289.9935	310.8432	339.8676	383.0042	426.6867	455.7191	575.3597	584.255	626.7592	740.3843	781.8246	805.7993	847.6881	888.3266	917.8139	942.0608	956.1958	962.6221	970.4766	1017.4358	1028.5352	1053.6114	1071.4638	1078.7211	1114.1497	1132.2636	1173.2566	1197.4591	1230.1281	1260.1579	1298.5006	1367.4442	1381.6754	1396.6552	1415.9578	1423.7377	1480.9276	1482.4415	1487.6602	1493.5436	1499.8724	1508.8309	1510.7224	1670.3728	3022.9749	3026.5672	3031.556	3083.3787	3088.42	3095.1162	3101.7552	3107.5236	3113.7422	3122.873	3159.8943	3174.0043	3200.4654	3211.7704
CC12CC1C=CC2(C)C	C[C@]12C[C@H]1C=CC2(C)C	
InChI=1S/C9H14/c1-8(2)5-4-7-6-9(7,8)3/h4-5,7H,6H2,1-3H3	InChI=1S/C9H14/c1-8(2)5-4-7-6-9(7,8)3/h4-5,7H,6H2,1-3H3/t7-,9+/m1/s1
