19
gdb 38598	3.15302	2.12737	1.82871	1.4086	76.61	-0.2328	0.0941	0.3269	835.4225	0.164325	-385.875482	-385.869897	-385.868953	-385.905002	25.403	
C	-0.0272065529	 1.5146988476	 0.0688632485	-0.255546
C	 1.5146037616	 1.4852023744	-0.0031166439	 0.08658
O	 2.0438862055	 1.290739417	 1.3087525115	-0.272272
C	 1.8770570578	-0.0803114104	 1.5683241165	 0.129217
C	 0.4488994354	-0.7118323706	 1.3401350273	-0.085075
C	 1.2107672705	-1.9565419868	 0.7976761951	-0.246785
C	 2.2413282437	-0.9044862692	 0.307850676	-0.070949
C	 1.4487714091	 0.0321698684	-0.6212991342	-0.060739
C	 0.0131273163	-0.029921811	 0.0262353434	-0.020551
H	-0.4584188595	 2.0091421299	 0.9435369225	 0.097783
H	-0.4719837886	 1.9251850639	-0.8428010373	 0.09507
H	 2.0572799701	 2.2993192575	-0.4869662463	 0.070842
H	 2.3577969245	-0.343564638	 2.5098319245	 0.082284
H	-0.2883035027	-0.7863354159	 2.1402022387	 0.060618
H	 1.6137673709	-2.5911170423	 1.5913071018	 0.098664
H	 0.7013083837	-2.5728461147	 0.0525684397	 0.095688
H	 3.2711723536	-1.1512829787	 0.0527363286	 0.064084
H	 1.5489879357	-0.0674526711	-1.699872637	 0.067233
H	-0.7933500347	-0.5617329098	-0.4830534853	 0.063854
311.1566	383.7002	411.7375	475.8882	616.2049	639.2502	682.9488	771.1712	810.3635	835.5391	854.2243	854.9656	884.6181	889.4332	915.9349	939.6053	956.933	973.7061	1004.9349	1014.8489	1035.0742	1055.2178	1087.0722	1092.5854	1119.8588	1134.5129	1146.5616	1183.8161	1213.2101	1216.6067	1231.3876	1242.1099	1253.7449	1269.5334	1288.7431	1305.9841	1314.5135	1346.0913	1380.9573	1475.6144	1504.8699	3049.0611	3058.7793	3079.1277	3093.0106	3106.6886	3109.2948	3114.3026	3119.6747	3131.8444	3143.126
C1C2OC3C4CC3C2C14	C1[C@H]2O[C@H]3[C@@H]4C[C@H]3[C@H]2[C@H]14	
InChI=1S/C8H10O/c1-4-3-2-6-7(3)5(1)8(4)9-6/h3-8H,1-2H2	InChI=1S/C8H10O/c1-4-3-2-6-7(3)5(1)8(4)9-6/h3-8H,1-2H2/t3-,4-,5+,6-,7-,8+/m1/s1
