21
gdb 96594	2.37136	1.54677	1.08777	0.7902	75.73	-0.2407	0.0922	0.3329	1177.4797	0.183438	-461.352099	-461.343421	-461.342477	-461.385098	33.377	
C	 0.0214664909	 1.5744680947	 0.0325116934	-0.400828
C	-0.0201333966	 0.0483037467	 0.0155831245	 0.107387
C	 0.660149353	-0.486683527	-1.2616815124	-0.070707
O	 1.0284879632	-1.8548707471	-1.2240862361	-0.222321
C	-0.0129769468	-2.7825524441	-1.1995849726	-0.004965
O	-0.7699836746	-2.7664110975	-0.0150355999	-0.243359
C	 0.0027550904	-2.8200959908	 1.1825518641	-0.084511
C	 0.0025371521	-1.4628155793	 1.8840124347	-0.075194
O	 0.6544501874	-0.4293680932	 1.1766347123	-0.255773
H	 1.0568619804	 1.9222162282	 0.104499584	 0.126546
H	-0.4221137573	 1.9913501572	-0.8780344182	 0.112163
H	-0.5297648693	 1.9623609641	 0.8929160418	 0.121133
H	-1.0621246103	-0.2909403974	 0.0361488671	 0.086089
H	 0.0066005835	-0.2869848213	-2.1268476933	 0.087098
H	 1.6017884188	 0.0497814147	-1.4165281924	 0.109126
H	-0.7411663051	-2.6051530206	-2.0047822838	 0.096057
H	 0.477108977	-3.7563856757	-1.3405401211	 0.099733
H	-0.4603170541	-3.561671106	 1.8467735306	 0.098906
H	 1.031357697	-3.1309603064	 0.9694961393	 0.115572
H	-1.0403179673	-1.1813427686	 2.1018450963	 0.094134
H	 0.5310202576	-1.5581697505	 2.8398545916	 0.103714
115.2326	146.7476	216.7448	227.69	236.1302	301.7984	325.5927	356.0932	412.098	459.061	513.267	551.3123	651.9141	792.6867	856.8302	875.365	920.4438	925.26	979.6564	1001.6711	1072.4049	1074.6885	1122.4487	1144.9439	1147.8565	1167.0958	1175.4314	1209.057	1278.6452	1309.0345	1318.6045	1337.1295	1341.2002	1392.0174	1400.846	1408.2184	1419.9635	1424.0719	1443.0515	1476.1683	1481.6838	1486.8999	1488.1862	1497.8555	1509.25	2973.9007	2978.3413	2988.5868	3018.0268	3036.4032	3037.2345	3040.0345	3063.9392	3079.9321	3080.9507	3108.8893	3121.1768
CC1COCOCCO1	C[C@H]1COCOCCO1	
InChI=1S/C6H12O3/c1-6-4-8-5-7-2-3-9-6/h6H,2-5H2,1H3	InChI=1S/C6H12O3/c1-6-4-8-5-7-2-3-9-6/h6H,2-5H2,1H3/t6-/m0/s1
