16
gdb 76005	2.75047	1.18109	1.07991	4.2982	77.57	-0.2669	-0.0025	0.2645	1167.7636	0.121324	-400.714083	-400.70454	-400.703596	-400.748224	34.586	
C	-0.0834791181	 1.5581950172	-0.0860106815	-0.450384
C	-0.0021431287	 0.0438864736	-0.044449479	 0.075145
C	-1.1492202134	-0.654811687	-0.5628851728	 0.250294
N	-2.0654922842	-1.2238127471	-0.9826261143	-0.341626
C	 1.3484994235	-0.6498338096	-0.2335459647	 0.104127
O	 2.4755810665	 0.1175635644	-0.4491658982	-0.418999
C	 0.7029911329	-0.6761664155	 1.1377764256	-0.320586
C	 1.3133911491	 0.0965163194	 2.1748031313	 0.281418
C	 1.8955640773	 0.7409482639	 3.0088985645	-0.390793
H	 0.87828651	 1.9949267181	 0.182200765	 0.13767
H	-0.3387543264	 1.8890112492	-1.0961188133	 0.144327
H	-0.8457280593	 1.9291140724	 0.6040672593	 0.140936
H	 1.3436870654	-1.5779623485	-0.797854579	 0.133054
H	 2.8533359197	 0.3580596278	 0.4079282791	 0.298507
H	 0.2550583176	-1.6145407335	 1.4476898361	 0.144299
H	 2.3712912281	 1.3083613552	 3.7709715319	 0.21261
103.3287	114.4984	138.2006	161.6093	178.2707	236.2755	293.3352	329.1089	380.2402	469.1966	482.151	562.9234	582.0552	622.9879	643.9327	676.2219	698.9525	833.6085	836.2861	952.6529	997.4326	1051.8914	1094.2714	1120.4153	1169.4716	1231.8553	1288.8265	1350.5958	1359.5972	1410.8972	1429.0669	1483.2859	1495.3911	2228.8098	2345.9783	3057.9402	3124.7634	3153.7094	3157.7972	3168.0393	3497.855	3741.5389
CC1(C#N)C(O)C1C#C	C[C@@]1(C#N)[C@@H](O)[C@H]1C#C	
InChI=1S/C7H7NO/c1-3-5-6(9)7(5,2)4-8/h1,5-6,9H,2H3	InChI=1S/C7H7NO/c1-3-5-6(9)7(5,2)4-8/h1,5-6,9H,2H3/t5-,6+,7+/m1/s1
