17
gdb 52920	5.78275	0.90868	0.88968	0.0378	88.37	-0.2054	0.0393	0.2447	1366.1741	0.134791	-347.420867	-347.412884	-347.411939	-347.454768	29.996	
C	-0.0374196557	 1.4459443097	-0.0161133461	-0.516623
C	-0.004351574	-0.0083068212	-0.0081749791	 0.366151
C	 0.0228039074	-1.2152488143	-0.0018863995	-0.473097
C	 0.0674719325	-2.6262400358	 0.0153262281	 0.403559
C	 1.0148616316	-3.6541919812	 0.7235672703	-0.183265
C	 0.7991603007	-4.6449771473	-0.4081551578	-0.091167
C	-0.121928578	-4.6593607056	 0.8030777471	-0.091167
C	-1.0732570715	-3.6570166046	 0.0868249076	-0.159163
C	-0.1567087657	-3.6427033057	-1.1184368206	-0.159161
H	 0.7680965717	 1.8596458843	 0.6013250795	 0.148538
H	 0.0865230117	 1.8470292281	-1.0287204821	 0.145658
H	-0.9845612797	 1.8303733009	 0.3797928194	 0.145657
H	 1.8674575803	-3.5137759222	 1.3735958913	 0.091171
H	 1.4598417109	-5.4125821785	-0.7865811084	 0.090791
H	-0.301207181	-5.440082691	 1.5292018276	 0.09079
H	-2.1353504735	-3.4659520442	 0.1572597392	 0.095663
H	-0.3748783275	-3.4384666715	-2.1577628665	 0.095663
25.309	98.3328	101.3635	270.6166	302.2724	428.7269	488.0364	503.387	657.9745	745.4131	745.8591	781.7364	788.3375	844.2647	847.4509	883.9644	893.3667	937.2692	960.6973	961.7975	1007.9391	1008.4417	1016.0234	1051.7378	1054.8974	1058.8389	1109.1729	1169.9436	1216.1935	1251.7399	1259.8434	1328.8452	1404.4095	1428.7571	1475.482	1479.6931	2352.5518	3020.9918	3078.2394	3082.4155	3196.6575	3202.6842	3209.3087	3214.4745	3221.077
CC#CC12C3C4C3C1C24	CC#C[C@@]12[C@@H]3[C@H]4[C@@H]3[C@@H]1[C@@H]24	
InChI=1S/C9H8/c1-2-3-9-6-4-5(6)8(9)7(4)9/h4-8H,1H3	InChI=1S/C9H8/c1-2-3-9-6-4-5(6)8(9)7(4)9/h4-8H,1H3/t4-,5+,6-,7+,8-,9+
