16
gdb 131138	3.72518	1.2935	1.04426	2.5309	72.26	-0.242	-0.011	0.231	1117.5608	0.124303	-437.863271	-437.855564	-437.85462	-437.895772	29.474	
O	 0.0085952967	 1.3881891791	 0.0541312733	-0.449898
C	 0.0132495652	-0.0091960133	-0.0060602434	 0.269478
C	-0.5195097666	-0.7879820438	 1.1814973805	-0.321194
C	-1.3493903054	-0.6527748393	-0.0686300618	-0.285691
C	 1.1202114619	-0.5616072764	-0.8083715437	 0.41155
C	 2.080018224	 0.0363411542	-1.5683802078	-0.371107
C	 2.8300734286	-1.0606304943	-2.0680332556	 0.035217
N	 2.3727442019	-2.2151094594	-1.6530364423	-0.144119
O	 1.2769815061	-1.8968708877	-0.8418136309	-0.227058
H	 0.7247428156	 1.6613803368	 0.6392634451	 0.288786
H	-0.0667982882	-1.7475938895	 1.4010268861	 0.140279
H	-0.8071277013	-0.193097525	 2.0409445539	 0.123212
H	-2.1871964222	 0.0341201988	-0.0496366279	 0.134388
H	-1.4645469292	-1.520251547	-0.7072992565	 0.138801
H	 2.211163109	 1.0877357194	-1.7549283355	 0.124713
H	 3.6916334939	-1.0476150224	-2.7212263336	 0.132644
66.026	154.269	176.7569	313.9487	325.2428	351.7213	446.8744	478.129	540.2485	643.0202	727.6461	777.6708	810.7012	862.8965	896.0187	910.7744	919.1739	935.3791	940.8798	986.6279	1014.1417	1046.1471	1060.9983	1085.6731	1156.4198	1198.2606	1231.5184	1261.4524	1332.7428	1349.6511	1380.0762	1447.4508	1484.7034	1524.4511	1629.0561	3142.066	3148.1009	3233.744	3241.9997	3248.102	3293.4442	3788.6916
OC1(CC1)C1=CC=NO1	OC1(CC1)c1ccno1	
InChI=1S/C6H7NO2/c8-6(2-3-6)5-1-4-7-9-5/h1,4,8H,2-3H2	InChI=1S/C6H7NO2/c8-6(2-3-6)5-1-4-7-9-5/h1,4,8H,2-3H2
