14
gdb 5551	3.47804	2.01692	1.3242	2.1639	60.22	-0.1839	0.0372	0.2211	878.1124	0.107824	-415.876825	-415.869137	-415.868193	-415.909213	27.487	
C	 0.4675869437	 0.8344336783	 0.3346526884	-0.255157
O	-0.5594872046	 0.599937182	-0.6309513753	-0.273681
C	-1.4518598044	-0.3555171802	-0.2871610101	 0.286296
C	-1.3778972062	-1.6158824365	 0.2527196034	 0.224738
O	-0.2556126442	-2.2660556733	 0.6601521427	-0.447909
N	-2.6183324671	-2.1756772888	 0.3517432357	-0.331482
C	-3.4554459775	-1.2803711271	-0.1331952142	 0.000908
N	-2.8000897579	-0.155424126	-0.5272164534	-0.30562
H	 1.109680315	 1.6102235932	-0.085960895	 0.130857
H	 0.0384164444	 1.1819573884	 1.2824954681	 0.118287
H	 1.051644337	-0.072645123	 0.5172539532	 0.152047
H	-0.5546618336	-3.105409183	 1.0298936968	 0.29927
H	-4.5233400766	-1.3970525648	-0.2279955512	 0.131397
H	-3.1893291579	 0.6767908609	-0.937432669	 0.27005
50.136	160.2092	182.0794	274.8772	312.0683	317.6803	415.8617	477.4709	485.4822	649.7236	677.5468	711.1159	746.1559	753.972	951.1736	1044.87	1100.4804	1125.0038	1182.2507	1213.8093	1246.5894	1303.5271	1352.3484	1398.2914	1467.3497	1485.124	1508.201	1512.9333	1523.4733	1705.7315	3020.7422	3097.0406	3139.7526	3262.7286	3668.5898	3805.0087
COC1=C(O)N=CN1	COc1c(O)nc[nH]1	
InChI=1S/C4H6N2O2/c1-8-4-3(7)5-2-6-4/h2,7H,1H3,(H,5,6)	InChI=1S/C4H6N2O2/c1-8-4-3(7)5-2-6-4/h2,7H,1H3,(H,5,6)
