19
gdb 78951	2.44253	2.09391	1.54656	1.637	77.02	-0.2314	0.0826	0.314	932.0593	0.159985	-385.820339	-385.813027	-385.812083	-385.851526	30.37	
C	-0.0087983525	 1.4958043295	 0.0110073808	-0.519327
C	 0.0792588463	-0.0071825344	-0.0176309416	 0.297024
C	-1.1480879715	-0.8519402535	 0.4215888919	-0.135704
C	-0.5715291152	-2.2736354871	 0.3247711551	-0.094475
C	-0.440018373	-1.4759444171	 1.6013655485	-0.099848
C	 0.884152231	-0.9004080446	 1.0128285775	-0.110805
C	 0.8646077577	-1.9575858994	-0.1572794537	-0.112689
C	 0.7405272603	-0.8018048577	-1.1767287142	 0.111471
O	 0.0597702226	-0.9839346348	-2.3903074018	-0.446121
H	 0.9744236685	 1.9549034908	-0.1389252082	 0.114867
H	-0.6702570518	 1.8608961885	-0.7837615186	 0.122448
H	-0.4069404055	 1.855065373	 0.9667226514	 0.116947
H	-2.2013287587	-0.6306698116	 0.3016887076	 0.083054
H	-1.1832821597	-3.1454558754	 0.132631496	 0.087135
H	-0.7820549458	-1.6841946991	 2.6061924666	 0.088137
H	 1.7751980347	-0.5761048382	 1.5436150424	 0.068022
H	 1.5803087976	-2.7711688114	-0.2629919193	 0.064135
H	 1.7226605041	-0.3833159926	-1.4237447154	 0.083486
H	-0.7964854691	-1.3723192447	-2.1761371948	 0.282244
180.9358	195.3701	232.8443	281.7605	309.512	380.8098	560.8025	574.3026	644.3142	757.864	769.2607	780.3923	786.5415	814.1037	839.6525	852.3688	867.5976	892.3633	944.1762	981.8395	998.3215	1002.7181	1032.0081	1035.1237	1069.443	1106.1906	1138.5484	1147.5985	1171.8952	1189.2268	1205.4976	1235.2648	1242.6185	1266.1157	1299.1133	1324.3617	1370.0969	1411.452	1434.1262	1491.0387	1491.931	3021.0427	3059.1834	3084.5065	3091.1136	3128.8663	3151.5455	3186.193	3192.4104	3207.561	3793.5487
CC12C3C4C3C1C4C2O	C[C@]12[C@H]3[C@@H]4[C@H]3[C@H]1[C@@H]4[C@H]2O	
InChI=1S/C8H10O/c1-8-5-2-3(5)6(8)4(2)7(8)9/h2-7,9H,1H3	InChI=1S/C8H10O/c1-8-5-2-3(5)6(8)4(2)7(8)9/h2-7,9H,1H3/t2-,3-,4-,5+,6+,7-,8+/m1/s1
