17
gdb 38538	3.14444	1.80542	1.2927	2.3269	75.02	-0.2258	0.0164	0.2421	967.0946	0.138421	-417.954194	-417.947329	-417.946384	-417.985178	27.921	
C	-0.0585817442	 1.382479787	 0.2245612482	-0.362631
C	 1.2979688744	 0.7775464698	-0.0402670057	-0.113226
N	 1.7835024135	-0.0110157749	 1.1172310324	-0.376408
C	 0.6383935498	-0.8575667335	 1.0181694067	 0.371562
N	 0.3437908003	-1.9968889265	 1.4702471998	-0.35213
C	-0.7708644589	-2.6029413628	 0.7152763068	-0.167276
C	-1.5349602388	-1.6800110589	-0.2650579934	-0.118442
O	-0.6743703613	-0.8077971006	-1.0326388083	-0.294037
C	 0.0502952678	-0.0994764459	-0.1032274801	 0.357731
H	-0.3242579369	 1.7389520091	 1.2175719312	 0.112116
H	-0.4658430818	 1.9647173445	-0.5983809565	 0.128208
H	 1.9863897348	 1.094115373	-0.8127999982	 0.124703
H	 1.9772865921	 0.4763705659	 1.9869243875	 0.237515
H	-0.3472757916	-3.4544499283	 0.1674666273	 0.120817
H	-1.5004206419	-3.0210152903	 1.4193564317	 0.111502
H	-2.083852334	-2.2798366708	-0.9943655117	 0.116051
H	-2.2558703733	-1.0597826768	 0.2864764725	 0.103944
146.5282	222.7178	261.0662	371.4706	417.8124	442.2206	481.3495	564.9875	633.7726	680.4808	718.1191	794.9994	853.6575	866.2924	890.3289	895.9052	922.5061	982.3362	1018.6004	1041.6409	1051.5489	1083.0682	1086.8579	1103.0355	1175.6743	1256.865	1260.2375	1271.3721	1306.6254	1316.436	1357.324	1374.9052	1422.8174	1478.6376	1486.5184	1501.338	1809.4538	3002.9542	3023.6591	3058.0997	3098.5319	3108.9848	3192.6346	3207.3966	3517.8153
C1C2NC3=NCCOC123	C1[C@H]2N[C]3[N]CCO[C@]123	
InChI=1S/C6H8N2O/c1-2-9-6-3-4(6)8-5(6)7-1/h4H,1-3H2,(H,7,8)	InChI=1S/C6H8N2O/c1-2-9-6-3-4(6)8-5(6)7-1/h4H,1-3H2,(H,7,8)/t4-,6-/m1/s1
