20
gdb 103130	2.83538	1.12801	1.05643	1.3	78.02	-0.2355	-0.0392	0.1962	1240.1084	0.167974	-440.259345	-440.249113	-440.248169	-440.294336	36.909	
C	-0.3819860287	 1.3485055379	 0.0525478386	-0.334326
N	 0.0096067708	-0.0541471348	 0.1887139563	-0.136804
C	 1.3003237784	-0.5345456047	-0.3407300304	-0.172899
C	 2.3389377101	 0.3429699705	-0.9379732685	 0.150205
O	 2.5326218306	 1.5139684721	-0.6949996997	-0.278264
C	 0.9956936618	-0.4906400479	 1.1537725474	 0.273927
C	 1.69851	 0.4711147295	 2.0884530933	-0.475558
C	 0.5994715101	-1.8162327657	 1.7960678049	-0.096352
O	-0.4387980862	-1.6237840378	 2.7404308803	-0.417123
H	 0.4447515762	 2.0631689943	 0.0646076965	 0.153957
H	-0.9189234736	 1.4590632003	-0.8944412251	 0.126723
H	-1.0785020355	 1.5831740571	 0.8634401074	 0.122159
H	 1.2367146535	-1.5017799763	-0.8377016367	 0.092847
H	 2.9739830574	-0.1880347817	-1.6822539742	 0.084697
H	 1.9707730141	 1.4074547268	 1.6041109412	 0.155549
H	 1.0470844849	 0.6752072293	 2.9435364017	 0.136986
H	 2.6134441307	 0.0108596905	 2.475612767	 0.122966
H	 0.3009062387	-2.5290964811	 1.0148483024	 0.091318
H	 1.4436521709	-2.2435259619	 2.3471716226	 0.109704
H	-1.1922689342	-1.2838262465	 2.2435189948	 0.290286
63.7533	142.0879	144.5655	168.8334	184.223	208.7975	234.1282	269.3341	304.3005	342.4122	386.7739	448.596	470.2288	550.1382	717.4269	731.7097	765.2393	865.3709	938.6793	959.08	984.003	1037.4932	1065.4991	1083.497	1109.5193	1147.6667	1153.2801	1170.899	1212.5916	1290.2175	1340.5909	1389.7089	1400.8997	1414.2147	1422.3263	1432.0316	1451.3238	1480.2696	1488.1873	1498.1705	1501.9642	1520.695	1791.8928	2878.3017	3004.2664	3036.2043	3048.3118	3080.9401	3105.1578	3107.2726	3114.1639	3117.4954	3163.3101	3793.8928
CN1C(C=O)C1(C)CO	CN1[C@@H](C=O)[C@]1(C)CO	
InChI=1S/C6H11NO2/c1-6(4-9)5(3-8)7(6)2/h3,5,9H,4H2,1-2H3	InChI=1S/C6H11NO2/c1-6(4-9)5(3-8)7(6)2/h3,5,9H,4H2,1-2H3/t5-,6-,7?/m0/s1
