15
gdb 101991	3.59908	0.71486	0.62484	4.3636	82.12	-0.25	-0.0684	0.1816	1702.4319	0.11051	-416.780753	-416.771072	-416.770128	-416.816434	32.67	
C	-0.0012634946	 1.5209460205	-0.0418547706	-0.326885
N	 0.0187283691	 0.0658053759	 0.1201274355	-0.264208
C	-1.2921948484	-0.5458413029	 0.0386533929	-0.27634
C	-1.8613802278	-0.6710818141	-1.403363631	 0.157538
O	-1.218701132	-0.3766047523	-2.3717843181	-0.224677
C	-1.3121508771	-1.8862807313	 0.6247483299	 0.049329
C	-1.3396799714	-3.0163483434	 1.0510666351	 0.134307
C	-1.3660826796	-4.2867831224	 1.5507473322	 0.207785
N	-1.3921906438	-5.3680541676	 1.9742003279	-0.329515
H	 1.0269632129	 1.8886915986	-0.0035483011	 0.134702
H	-0.4574159526	 1.8676868734	-0.9803573137	 0.121174
H	-0.5440038612	 1.9701400223	 0.797121422	 0.128219
H	 0.6099878722	-0.3482397184	-0.5940139376	 0.238316
H	-2.0071754462	 0.0752270386	 0.6008115479	 0.141541
H	-2.8969638593	-1.0671191069	-1.4699085614	 0.108715
57.4005	78.2525	100.9534	144.1638	181.2147	224.5529	237.4041	284.5277	349.1182	423.086	488.0531	569.7968	583.259	657.223	755.9614	770.8885	848.2611	997.528	1020.6122	1123.5543	1153.5284	1173.6957	1212.8291	1248.433	1328.8751	1397.4851	1458.329	1488.92	1498.9833	1523.4964	1839.9505	2263.732	2399.311	2910.9465	2996.6936	3001.3364	3072.0317	3118.4762	3525.5493
CNC(C=O)C#CC#N	CN[C@@H](C=O)C#CC#N	
InChI=1S/C6H6N2O/c1-8-6(5-9)3-2-4-7/h5-6,8H,1H3	InChI=1S/C6H6N2O/c1-8-6(5-9)3-2-4-7/h5-6,8H,1H3/t6-/m1/s1
