19
gdb 81340	2.70287	1.38698	1.13373	1.8541	77.95	-0.2253	0.0129	0.2381	1157.3879	0.158329	-422.992631	-422.984013	-422.983069	-423.025555	33.054	
C	-0.0440637666	 1.4587494314	 0.133909458	-0.519342
C	-0.0142494553	-0.0261455152	 0.0179279441	 0.239041
C	-0.0083163105	-0.8555096484	-1.0410837049	 0.239042
C	-0.0295038218	-0.6123766129	-2.5106704041	-0.519347
C	 0.0671685846	-2.218228229	-0.3563685344	-0.094547
O	-0.8791535697	-2.0776165179	 0.7654267398	-0.313395
C	 0.058607087	-1.017118973	 1.1773258469	-0.094543
C	 1.2103046328	-1.9789553915	 0.69982086	 0.198249
O	 1.504141701	-3.0471920604	 1.538042835	-0.447764
H	 0.8352447297	 1.8375615515	 0.6703045789	 0.130432
H	-0.0662623048	 1.9397660832	-0.8480857441	 0.126905
H	-0.9237938216	 1.7986394213	 0.6948801191	 0.133556
H	-0.0527634007	 0.45620604	-2.7425600514	 0.126892
H	 0.8538997306	-1.0403479555	-3.0013963062	 0.130416
H	-0.9052131358	-1.077649422	-2.9805875533	 0.133589
H	-0.0404580691	-3.1407100509	-0.9274497992	 0.078021
H	-0.0579691094	-0.6843889771	 2.2090190202	 0.078019
H	 2.1493711468	-1.5376710796	 0.3594725638	 0.088743
H	 0.6478974029	-3.4045461841	 1.8131313317	 0.286033
140.306	155.1607	167.6942	176.7653	234.3194	274.2116	314.7529	417.7036	498.2858	567.8437	582.6455	595.9443	616.366	757.5723	832.5549	835.1792	863.2028	917.8383	928.9693	949.0253	1036.3259	1041.1455	1068.088	1112.1676	1120.8998	1158.7241	1180.1762	1204.6228	1205.8971	1213.6632	1296.4282	1299.4009	1341.7422	1413.1175	1420.6068	1433.8493	1478.4705	1479.2245	1487.2337	1489.819	1720.0971	3016.2443	3017.5171	3062.0547	3062.2815	3102.3719	3104.3868	3106.9663	3122.7948	3126.7365	3748.8949
CC1=C(C)C2OC1C2O	CC1=C(C)[C@@H]2O[C@H]1[C@H]2O	
InChI=1S/C7H10O2/c1-3-4(2)7-5(8)6(3)9-7/h5-8H,1-2H3	InChI=1S/C7H10O2/c1-3-4(2)7-5(8)6(3)9-7/h5-8H,1-2H3/t5-,6-,7+
