13
gdb 128937	3.82615	1.04982	0.92638	4.1305	63.92	-0.245	-0.0459	0.1991	1196.899	0.089691	-448.896144	-448.888407	-448.887463	-448.929754	27.185	
N	 0.1127153365	 0.2446597851	-1.553347212	-0.287974
C	-0.0027138943	 0.7451438789	-0.5185068244	 0.252971
C	-0.1233983849	 1.3947169732	 0.8049489134	-0.310335
N	 1.0277435823	 2.1699110097	 1.2138790013	-0.370873
C	 1.3849179678	 3.2775119623	 0.4608599716	 0.320458
C	 0.7407644953	 3.9924958173	-0.5023011671	-0.041762
O	 1.532784201	 5.0251417012	-0.8393210214	-0.153916
N	 2.6948202321	 4.9204616385	-0.068642108	 0.008247
N	 2.5896959274	 3.9053507254	 0.6783392335	-0.197596
H	-1.00823857	 2.0420236366	 0.7924088451	 0.170517
H	-0.3114439659	 0.6231745508	 1.5565777677	 0.173521
H	 1.8282967733	 1.6220443354	 1.4989371113	 0.26726
H	-0.1956368307	 3.8992805055	-1.022840911	 0.169481
49.138	61.5449	174.9551	219.7169	339.8781	380.3099	422.5176	549.339	620.2382	640.5244	715.4293	720.529	756.2745	769.6836	894.9137	973.6341	1016.8209	1059.8377	1125.9507	1130.0648	1260.6071	1285.5663	1351.0378	1374.8713	1429.4827	1459.5161	1518.9868	1665.4668	2356.6179	3048.0608	3102.2701	3304.6749	3591.2088
N#CCNC1=CON=N1	N#CCNc1conn1	
InChI=1S/C4H4N4O/c5-1-2-6-4-3-9-8-7-4/h3,6H,2H2	InChI=1S/C4H4N4O/c5-1-2-6-4-3-9-8-7-4/h3,6H,2H2
