16
gdb 61317	6.31341	0.58731	0.55204	3.3031	92.12	-0.2571	-0.0293	0.2278	1890.0437	0.121811	-363.580054	-363.570265	-363.56932	-363.615388	34.626	
C	 0.0498542227	 1.5849103851	-0.0357459464	-0.391371
C	 0.0172739145	 0.0464114344	-0.044233942	-0.136774
C	-1.4315623652	-0.522505316	 0.040221383	-0.392405
C	-2.0984268349	-0.1634557896	 1.2802435209	 0.346092
C	-2.64065985	 0.1345088955	 2.3203898834	-0.200337
C	-3.2541590258	 0.4669843259	 3.4886444133	 0.28853
C	-3.7976511661	 0.7625496164	 4.5253998316	-0.545986
C	 0.6752250892	-0.4844057807	-1.2421485904	 0.267781
N	 1.1816776353	-0.9015245788	-2.1935680425	-0.316595
H	 1.0786551591	 1.9507032134	-0.0642675547	 0.14165
H	-0.4815696115	 1.9883598554	-0.9024555484	 0.13844
H	-0.4309061734	 1.9555340678	 0.8724685991	 0.146185
H	 0.5727131099	-0.3258619559	 0.8244953567	 0.143076
H	-2.0075218483	-0.1534565922	-0.8177426259	 0.155755
H	-1.3944828054	-1.6137840543	-0.0577419081	 0.15941
H	-4.2773578401	 1.0211464435	 5.4367619103	 0.19655
47.0701	65.2334	157.9697	164.3787	205.1234	226.0763	271.9906	335.8821	354.5902	442.9889	521.7027	538.6435	549.2688	563.7943	597.5573	607.2604	744.8793	821.5237	888.9433	918.7776	1060.6914	1093.6832	1129.8153	1181.1264	1240.5559	1294.9798	1331.6259	1363.6707	1412.5854	1465.9158	1495.1076	1498.7039	2183.8048	2357.967	2365.18	3029.0931	3046.9366	3052.8801	3069.2835	3128.7795	3138.6	3504.0756
CC(CC#CC#C)C#N	C[C@@H](CC#CC#C)C#N	
InChI=1S/C8H7N/c1-3-4-5-6-8(2)7-9/h1,8H,6H2,2H3	InChI=1S/C8H7N/c1-3-4-5-6-8(2)7-9/h1,8H,6H2,2H3/t8-/m0/s1
