15
gdb 67348	2.92816	1.94297	1.34742	2.2243	63.84	-0.2546	-0.0126	0.2419	908.6224	0.112397	-457.733115	-457.726239	-457.725295	-457.764251	27.004	
C	-0.051740542	 1.5540213975	 0.0282001124	-0.511324
C	-0.0296393651	 0.0519263631	 0.0262614868	 0.139406
C	 1.0997002671	-0.791700613	-0.6780416661	-0.000729
O	 2.0413674159	-0.5419521033	 0.4161659944	-0.315247
C	 0.7651253109	-0.7988904661	 1.0881658999	-0.000724
C	 0.4659061512	-1.9642748793	 0.1119399733	 0.064203
O	-0.9316503617	-2.0495836558	-0.1531200691	-0.240176
C	-1.310656128	-0.7246154391	-0.219630088	 0.423773
O	-2.4256957617	-0.3579922022	-0.4291552291	-0.331116
H	 0.9520032273	 1.9417367984	 0.220096977	 0.14067
H	-0.4020404235	 1.9377289922	-0.9344000201	 0.139515
H	-0.7306696581	 1.9306599002	 0.7987438555	 0.139523
H	 1.4640035939	-0.7322537968	-1.703385495	 0.113937
H	 0.7290957383	-0.7480431846	 2.1761444018	 0.113939
H	 0.9381790454	-2.9379685113	 0.1974527263	 0.12435
148.2991	196.3587	232.6916	311.2063	387.532	417.8932	541.6658	642.7078	681.7268	686.513	726.447	783.7923	857.4208	859.4186	895.2942	898.1961	937.5805	1025.6018	1036.5535	1076.0756	1101.6258	1139.5112	1151.5565	1172.8335	1196.9457	1213.9441	1277.6094	1330.1022	1370.4855	1413.5541	1487.9991	1490.9156	1909.5656	3047.3512	3115.4774	3127.5186	3128.2625	3130.6678	3187.5611
CC12C3OC1C3OC2=O	C[C@@]12[C@H]3O[C@@H]1[C@H]3OC2=O	
InChI=1S/C6H6O3/c1-6-3-2(4(6)9-3)8-5(6)7/h2-4H,1H3	InChI=1S/C6H6O3/c1-6-3-2(4(6)9-3)8-5(6)7/h2-4H,1H3/t2-,3-,4+,6+
