19
gdb 41284	2.86576	2.02773	1.83506	1.7252	77.91	-0.2402	0.0745	0.3147	861.1206	0.162252	-385.803856	-385.797715	-385.796771	-385.833803	27.246	
C	-0.0387852521	 1.5232275005	-0.026018812	-0.220085
O	 1.4238815199	 1.4960116796	 0.1173384619	-0.352457
C	 1.3545292035	 0.0988531059	 0.4106115579	 0.418816
C	 0.9760444335	-0.3801312392	 1.8477644808	-0.302004
C	-0.1069039266	-1.1316130376	 1.0669340153	-0.088072
C	 0.6221893075	-1.899089784	-0.1551499339	-0.031024
C	-0.2439858473	-1.055080027	-1.1399294942	-0.295523
C	-0.1283036143	-0.0195138877	-0.0315139261	 0.21871
C	 1.9929842568	-1.1344345291	-0.2245403198	-0.297037
H	-0.5128463841	 2.042867926	 0.8142754741	 0.109773
H	-0.3297979171	 2.0059741034	-0.9642352493	 0.115472
H	 1.7154742423	-0.9412763269	 2.4258602068	 0.090422
H	 0.5617521185	 0.4290327661	 2.4533513737	 0.105625
H	-0.9782414118	-1.6212846644	 1.5049251472	 0.066665
H	 0.6346761674	-2.9884309879	-0.1960710827	 0.068119
H	 0.1743571981	-0.8432627259	-2.1296383208	 0.094657
H	-1.2618420759	-1.4448710233	-1.2423712631	 0.096413
H	 2.3264442117	-0.9996715141	-1.2558094415	 0.10612
H	 2.79943331	-1.5820491944	 0.3616780458	 0.095411
254.2331	327.2948	371.2791	430.4706	470.7289	528.4695	584.6548	645.9957	722.7426	772.6513	791.5167	834.2452	857.3868	889.1804	899.2079	928.3952	933.1873	960.3478	979.1425	989.2608	1027.8208	1059.0639	1079.0798	1098.4177	1131.7647	1142.7816	1163.395	1185.1968	1198.5294	1205.3674	1219.2949	1247.5951	1266.2284	1280.7331	1293.0138	1299.9875	1337.2092	1483.8204	1498.0429	1503.2212	1516.8576	3030.6849	3037.2992	3055.2162	3064.3934	3084.8799	3090.6919	3096.1738	3114.9993	3117.8829	3120.5113
C1OC23CC4C(CC124)C3	C1O[C@@]23C[C@@H]4[C@@H](C[C@]124)C3	
InChI=1S/C8H10O/c1-5-2-8-3-6(5)7(1,8)4-9-8/h5-6H,1-4H2	InChI=1S/C8H10O/c1-5-2-8-3-6(5)7(1,8)4-9-8/h5-6H,1-4H2/t5-,6+,7+,8-/m0/s1
