17
gdb 6813	3.07573	1.74966	1.44452	4.4165	68.18	-0.278	0.0002	0.2782	930.4054	0.14091	-363.860668	-363.852265	-363.85132	-363.893887	30.329	
C	-0.270236774	 1.5543315614	 0.027555018	-0.45581
C	-0.0647402103	 0.0447631963	 0.0008020238	 0.250728
C	-1.3305910725	-0.6965562279	-0.4235122339	-0.448429
C	 1.2207990312	-0.4468880525	-0.7148358324	-0.102589
O	 1.6998115838	-1.1062547355	 0.4810350697	-0.273681
C	 0.604691403	-0.6070174158	 1.2637779067	-0.046579
C	 1.0403877819	 0.2977662189	 2.3327241594	 0.290144
N	 1.3673091518	 1.0189092772	 3.1748178765	-0.330267
H	 0.6301671104	 2.0821321101	 0.3526263579	 0.141169
H	-0.5336207966	 1.9136859494	-0.973101808	 0.120944
H	-1.0837694509	 1.8306365586	 0.7062206737	 0.130702
H	-1.6428804295	-0.3805432802	-1.4244823802	 0.125547
H	-1.1709399809	-1.7792994475	-0.4464759379	 0.127824
H	-2.1561943145	-0.4878179226	 0.2653226399	 0.127037
H	 1.0741789818	-1.1573685234	-1.535805024	 0.110049
H	 1.9046611889	 0.3471506424	-1.037405225	 0.11251
H	 0.0246852664	-1.4208862589	 1.7164395958	 0.120703
36.7797	144.9716	200.8197	212.3641	258.1667	303.1791	338.9049	372.5748	397.0646	536.784	558.0132	655.0194	841.5943	873.3752	932.1848	963.4334	969.3921	980.5059	1030.1454	1041.4754	1054.804	1156.8846	1206.0459	1208.0008	1267.9554	1285.5896	1353.357	1361.933	1406.7115	1426.2464	1482.7684	1485.7763	1502.1144	1504.0769	1528.3664	2352.393	3023.3046	3028.4027	3032.0045	3037.7797	3075.2729	3098.9189	3104.0619	3104.4916	3118.2326
CC1(C)COC1C#N	CC1(C)CO[C@H]1C#N	
InChI=1S/C6H9NO/c1-6(2)4-8-5(6)3-7/h5H,4H2,1-2H3	InChI=1S/C6H9NO/c1-6(2)4-8-5(6)3-7/h5H,4H2,1-2H3/t5-/m0/s1
