23
gdb 115350	2.06623	1.44521	1.17812	1.9087	81.91	-0.2368	0.0744	0.3112	1228.5188	0.204856	-425.428519	-425.418474	-425.41753	-425.463468	37.014	
C	 0.4029168583	 0.8928949211	-0.6254518988	-0.236129
O	 0.1074402679	-0.4210115934	-0.213601382	-0.240806
C	-1.2581441349	-0.6416113478	 0.1011999415	 0.094619
C	-2.130783808	-0.8803528529	-1.1374829182	-0.089207
O	-2.0468239677	-2.2657164714	-1.4426093059	-0.277804
C	-1.4543434234	-2.9955410842	-0.3553228477	 0.135498
C	-0.1171875145	-3.5777223433	-0.8094152218	-0.3964
C	-1.3964660397	-1.9923765274	 0.8232737506	-0.029707
C	-0.3648519538	-2.2651379584	 1.9146802239	-0.417177
H	 1.4822594115	 0.9458394427	-0.7871640547	 0.129281
H	-0.1040340694	 1.165949702	-1.5627654247	 0.108011
H	 0.1213172544	 1.629160999	 0.1439091559	 0.104973
H	-1.6343524304	 0.1947941734	 0.7096604249	 0.060162
H	-3.173838365	-0.5962797765	-0.9258622157	 0.086659
H	-1.7951819291	-0.3021788292	-2.005876903	 0.102063
H	-2.135016985	-3.8213057317	-0.1076003053	 0.068861
H	 0.5969983864	-2.7806730137	-1.027499656	 0.134205
H	 0.3078251224	-4.2361521165	-0.0446042186	 0.104681
H	-0.2719709025	-4.1679280064	-1.7171603173	 0.116837
H	-2.3949789358	-1.9825152181	 1.2786301228	 0.079426
H	 0.6522619643	-2.1961975495	 1.526305646	 0.139386
H	-0.4626359705	-1.5374702571	 2.7269493182	 0.110196
H	-0.5070681256	-3.2617202808	 2.3452132859	 0.112372
64.9955	96.6484	127.5612	188.1303	221.102	223.1538	251.9514	268.2944	316.4396	378.9684	399.3313	462.2722	526.7094	691.2108	744.9323	787.0159	850.3334	870.0722	937.6365	964.2331	999.986	1023.283	1052.1217	1077.8859	1094.906	1132.1694	1152.3164	1164.1322	1183.6663	1189.8626	1215.8088	1248.2677	1266.0956	1326.121	1334.5936	1367.1796	1382.8951	1390.2952	1401.5201	1409.8863	1416.4621	1479.7863	1484.726	1489.6969	1496.6288	1500.9969	1507.7264	1509.7159	1514.7565	2972.663	2974.4102	2993.4855	3001.9885	3024.1787	3028.9765	3040.4705	3043.5478	3056.8767	3098.114	3109.3955	3114.6151	3136.6073	3141.7408
COC1COC(C)C1C	CO[C@H]1CO[C@@H](C)[C@H]1C	
InChI=1S/C7H14O2/c1-5-6(2)9-4-7(5)8-3/h5-7H,4H2,1-3H3	InChI=1S/C7H14O2/c1-5-6(2)9-4-7(5)8-3/h5-7H,4H2,1-3H3/t5-,6+,7+/m1/s1
