16
gdb 20064	5.49942	1.3968	1.18959	1.354	66.76	-0.2379	0.0103	0.2482	993.8278	0.130647	-383.712013	-383.704868	-383.703924	-383.744124	26.041	
C	 0.1633992578	 1.4706458356	-0.0434141644	-0.175468
O	 1.0466523012	 0.3916956758	-0.3636671266	-0.238509
C	-0.2904829771	 0.0791599696	 0.0298693953	 0.078262
C	-0.4266383373	-0.6415366898	 1.3581329471	 0.058792
O	-1.7800472562	-0.5504692752	 1.8091260577	-0.276887
C	-2.3142540228	-1.8517988898	 2.0505093732	-0.114913
C	-1.2193147061	-2.8027532455	 1.6578400386	-0.097272
C	-0.1479703743	-2.1197878316	 1.273685617	-0.094713
H	 0.3951676699	 2.0063465562	 0.8762414031	 0.117322
H	-0.136785196	 2.0932737501	-0.884389488	 0.117312
H	-0.926620632	-0.3096592305	-0.7663127774	 0.09417
H	 0.2443139642	-0.1455302959	 2.0791351461	 0.085564
H	-2.5946474162	-1.9520409711	 3.1112214556	 0.107508
H	-3.2320832501	-1.9909991948	 1.4591934899	 0.10885
H	-1.3247874107	-3.8791773254	 1.7053826969	 0.109697
H	 0.8024886158	-2.5133345578	 0.938576466	 0.120286
68.52	90.9609	181.4552	279.8249	339.2991	432.6783	504.2105	716.8361	769.0352	816.3033	856.4427	872.1009	921.9498	939.3024	956.6891	963.8299	1037.9975	1046.7708	1090.6211	1111.3611	1117.2325	1144.9253	1159.107	1175.5249	1198.7861	1280.0366	1291.0503	1311.8961	1352.0152	1381.9343	1445.7547	1521.2568	1527.2072	1690.476	2963.9611	2976.6855	2997.4991	3085.6575	3107.5086	3174.4444	3210.9881	3237.358
C1OC1C1OCC=C1	C1O[C@H]1[C@H]1OCC=C1	
InChI=1S/C6H8O2/c1-2-5(7-3-1)6-4-8-6/h1-2,5-6H,3-4H2	InChI=1S/C6H8O2/c1-2-5(7-3-1)6-4-8-6/h1-2,5-6H,3-4H2/t5-,6+/m0/s1
