18
gdb 11956	3.52717	1.60689	1.3731	1.9584	68.5	-0.2261	0.073	0.299	976.0133	0.152145	-384.89694	-384.888632	-384.887688	-384.929604	31.083	
C	 0.143391764	 1.4970317522	 0.1041497829	-0.378307
C	-0.1147712559	-0.004726861	-0.0814446051	-0.284721
C	 0.6322809379	-0.5741128759	-1.2445535934	 0.434276
C	 2.0787778111	-1.0193936626	-1.2700925615	-0.401585
C	 0.9811002267	-1.9567583697	-1.7343713029	 0.242664
O	 0.7216127085	-3.1882245282	-1.1675632998	-0.455861
C	 0.4547887017	-1.4878918275	-3.0871881897	-0.136253
O	 0.2527076806	-0.1458880197	-2.5654521831	-0.326313
H	 1.2017279869	 1.6922936566	 0.3045930361	 0.117148
H	-0.1350697313	 2.0498956744	-0.7976406292	 0.136374
H	-0.4404251138	 1.8930268134	 0.9402986912	 0.110601
H	 0.1757383639	-0.5571125361	 0.8195269818	 0.108006
H	-1.1863801153	-0.1821409358	-0.2321245095	 0.110114
H	 2.7807842677	-0.5740581304	-1.970804792	 0.109516
H	 2.4843730939	-1.2792038734	-0.2962975046	 0.114387
H	 1.4998286074	-3.745549922	-1.278129095	 0.289362
H	 1.1330879658	-1.5047220786	-3.9488833358	 0.098323
H	-0.5023938696	-1.9525258658	-3.3505745505	 0.112267
71.7558	124.4048	197.8543	237.3257	269.655	299.9996	377.0517	383.9632	444.03	547.8404	609.2457	718.0432	762.6626	794.6635	870.0545	915.1316	968.7206	983.8907	990.3116	994.3229	1049.7509	1056.153	1103.4949	1143.815	1166.9989	1207.7182	1267.2385	1287.8153	1325.9675	1332.9821	1380.1247	1407.3856	1421.937	1472.4778	1494.7891	1500.6231	1509.0509	1528.9598	3020.1225	3032.6946	3039.6136	3071.0284	3074.4123	3105.6679	3109.5527	3117.8033	3203.0416	3791.9889
CCC12CC1(O)CO2	CC[C@@]12C[C@]1(O)CO2	
InChI=1S/C6H10O2/c1-2-6-3-5(6,7)4-8-6/h7H,2-4H2,1H3	InChI=1S/C6H10O2/c1-2-6-3-5(6,7)4-8-6/h7H,2-4H2,1H3/t5-,6+/m0/s1
