21
gdb 91318	2.42699	1.53746	1.21535	1.7118	78.09	-0.2446	0.0662	0.3108	1114.4418	0.181325	-424.19492	-424.185837	-424.184893	-424.228292	35.776	
C	 0.3820269778	 1.4494559628	-0.4286012955	-0.441223
C	 0.065776994	 0.0034036967	-0.0744331742	 0.404315
O	-1.3400306545	-0.1643647136	 0.0914968003	-0.475688
C	 0.6873753172	-1.1057002546	-0.9942567577	-0.287856
C	 1.4096715198	-1.7197703924	 0.2251411883	-0.01085
C	 2.7920672057	-1.0783050463	 0.5419704711	-0.290446
C	 2.1156975105	-0.235844649	 1.6659549278	 0.127199
O	 2.3572874912	 1.1511679821	 1.7501592704	-0.429876
C	 0.7211330681	-0.6688172561	 1.1759473331	-0.076458
H	 1.4543766453	 1.6275524867	-0.5150377946	 0.125985
H	-0.0877734242	 1.6999269429	-1.389841781	 0.08869
H	-0.0105696452	 2.1247158272	 0.3361103588	 0.126407
H	-1.7669081518	 0.1612496422	-0.709196144	 0.270118
H	-0.0969615181	-1.7475449656	-1.4031343762	 0.096833
H	 1.3343062967	-0.7644327741	-1.8090003861	 0.086937
H	 1.3285972183	-2.7949088394	 0.3800021773	 0.065379
H	 3.5789054439	-1.7594035694	 0.8758363219	 0.094094
H	 3.1841732207	-0.4683424853	-0.2777263724	 0.09825
H	 2.2958776232	-0.7150444614	 2.6397256499	 0.071345
H	 3.2368472398	 1.2814081248	 2.1184423002	 0.282869
H	-0.0179702582	-0.9211482982	 1.9356240425	 0.073975
58.4457	173.347	239.1402	244.7525	254.6777	283.6326	325.2072	364.623	388.7754	408.2285	453.2044	549.8943	608.4157	663.8037	760.8205	824.2482	834.8676	867.5688	917.1513	928.9371	958.98	972.7094	1016.432	1032.5981	1073.4409	1104.7253	1133.2108	1144.4581	1158.8396	1181.9034	1201.0738	1225.6891	1241.2444	1259.4052	1271.9826	1299.1598	1318.1958	1337.1012	1372.4599	1413.7147	1427.1042	1464.1376	1479.6137	1485.1968	1488.1711	2981.6536	3014.6887	3042.8618	3050.2351	3099.5807	3101.7826	3103.7446	3112.8954	3120.8636	3145.2555	3791.8241	3815.8617
CC1(O)CC2CC(O)C12	C[C@@]1(O)C[C@H]2C[C@@H](O)[C@@H]12	
InChI=1S/C7H12O2/c1-7(9)3-4-2-5(8)6(4)7/h4-6,8-9H,2-3H2,1H3	InChI=1S/C7H12O2/c1-7(9)3-4-2-5(8)6(4)7/h4-6,8-9H,2-3H2,1H3/t4-,5-,6+,7-/m1/s1
