18
gdb 97627	3.02813	0.70848	0.60411	3.5289	83.35	-0.2711	-0.0049	0.2662	1878.0983	0.14464	-401.916606	-401.905935	-401.904991	-401.954648	35.826	
C	-0.5190599274	 1.3886959311	 0.1527026822	-0.369254
C	 0.4289916648	 0.2169796957	-0.1606602288	-0.322799
C	 1.0395342256	-0.3630045301	 1.0293799858	 0.216757
C	 1.5319708449	-0.8371761842	 2.0190118217	-0.021766
C	 2.1416397936	-1.3878392713	 3.2249034585	-0.183403
O	 1.5654313512	-2.6418922411	 3.522421161	-0.226333
C	 1.9377084707	-3.1472244121	 4.7953025058	-0.244958
C	 3.6179396571	-1.499047992	 3.0599032012	 0.280999
N	 4.7648570959	-1.6012359467	 2.9678835816	-0.327704
H	 0.0153305531	 2.1974977588	 0.6580362743	 0.131838
H	-0.9486123707	 1.784417386	-0.7718944535	 0.121269
H	-1.3364945588	 1.0647090453	 0.802178736	 0.132445
H	-0.1165401558	-0.5695868034	-0.6968727974	 0.141499
H	 1.2224526883	 0.5513441611	-0.8406913041	 0.141369
H	 1.9772367504	-0.6907673318	 4.0662291986	 0.136461
H	 3.0176378002	-3.3348958424	 4.8592715716	 0.137323
H	 1.6481920416	-2.4554852095	 5.6003572716	 0.113961
H	 1.4013025554	-4.0888723535	 4.9213992839	 0.142296
14.0245	71.0831	85.8355	114.9151	149.4427	189.1054	216.6081	255.2816	314.2174	325.1191	377.0415	468.5747	529.6936	542.1929	601.6579	783.4771	809.8225	894.5636	978.208	982.6237	1080.0272	1103.7621	1118.6332	1178.3874	1183.5567	1212.9934	1285.2376	1329.174	1343.2392	1352.6075	1410.7623	1469.6452	1476.8962	1488.2606	1495.8502	1505.4147	1507.8244	2355.4755	2377.7826	2943.6815	2991.5963	3027.8528	3047.9187	3054.5638	3057.22	3122.7515	3126.985	3138.0598
CCC#CC(OC)C#N	CCC#C[C@@H](OC)C#N	
InChI=1S/C7H9NO/c1-3-4-5-7(6-8)9-2/h7H,3H2,1-2H3	InChI=1S/C7H9NO/c1-3-4-5-7(6-8)9-2/h7H,3H2,1-2H3/t7-/m1/s1
