18
gdb 52523	3.35261	0.93347	0.78877	3.8159	84.89	-0.2496	-0.0569	0.1927	1483.7969	0.145185	-401.922119	-401.91201	-401.911066	-401.959094	34.953	
C	-0.2941855344	 1.2663708759	 0.8805534966	-0.505306
C	-0.0932978287	-0.0680977125	 0.3440552436	 0.127693
C	 0.0687931389	-1.1754527414	-0.1087944004	 0.006612
C	 0.2394578155	-2.4982568186	-0.6625376379	 0.174853
O	-0.5452137882	-2.9546788629	-1.47714563	-0.331063
C	 1.4235736431	-3.3016220824	-0.1869804217	 0.226979
C	 2.5958278011	-2.5798220949	 0.4366621922	-0.480185
C	 1.0540085045	-4.6896732488	 0.2557908197	-0.251476
N	 1.7330573728	-4.4766804681	-1.0170230056	-0.338122
H	 0.4688161056	 1.9535393727	 0.4985446299	 0.164922
H	-1.2760038184	 1.6635979938	 0.6037751116	 0.164461
H	-0.2207681336	 1.2650378964	 1.9733649058	 0.162096
H	 2.2940612024	-2.0373523039	 1.3370499619	 0.124024
H	 3.3701347875	-3.3022092623	 0.7042068592	 0.130869
H	 3.0335977122	-1.8597405614	-0.2621775752	 0.127073
H	 1.6513935924	-5.1555280119	 1.0353307012	 0.120502
H	 0.0011786832	-4.9566891784	 0.2454089299	 0.129556
H	 1.0338301842	-4.5092076611	-1.7604561209	 0.246512
19.3662	46.8371	82.5604	150.0467	182.1459	253.2113	281.3367	327.3283	343.4883	369.3	400.0348	432.6646	558.1807	655.0168	764.968	814.881	840.0249	946.8294	950.2308	1006.2013	1044.0917	1044.8821	1053.11	1106.3582	1109.2341	1133.7256	1212.3522	1298.757	1343.3952	1366.4073	1409.4843	1420.6744	1468.6155	1473.4024	1484.014	1494.1816	1498.2502	1723.5273	2338.0916	3032.8516	3043.562	3095.9849	3102.0093	3107.211	3109.671	3129.8236	3201.2241	3459.4753
CC#CC(=O)C1(C)CN1	CC#CC(=O)[C@@]1(C)CN1	
InChI=1S/C7H9NO/c1-3-4-6(9)7(2)5-8-7/h8H,5H2,1-2H3	InChI=1S/C7H9NO/c1-3-4-6(9)7(2)5-8-7/h8H,5H2,1-2H3/t7-/m1/s1
