21
gdb 86409	2.62284	1.30931	0.98766	2.5357	78.38	-0.2456	0.0661	0.3117	1242.3112	0.182554	-424.218162	-424.209044	-424.2081	-424.25317	35.226	
O	-0.1669620538	 1.4526261701	 0.0145771007	-0.435302
C	 0.0518928117	 0.0524240885	 0.0665784819	 0.131876
C	 0.4415035965	-0.4957330641	 1.4487748056	-0.289213
C	 0.0837225626	-1.9854411452	 1.337026598	 0.050549
O	-0.0625330181	-2.666659811	 2.5715042701	-0.437533
C	-1.237021284	-1.9726396667	 0.5586640083	 0.366827
C	-1.8486736068	-3.2579051715	 0.0720589365	-0.328276
C	-2.4948469464	-2.4986425181	 1.2038140061	-0.29893
C	-1.2644467519	-0.6790149058	-0.2666328118	-0.303168
H	 0.6724206769	 1.8927062527	 0.1814194219	 0.279771
H	 0.8262023675	-0.2338698917	-0.6635977809	 0.063481
H	 1.4903150402	-0.3162952834	 1.7110949701	 0.075109
H	-0.1940037471	-0.0319637874	 2.2118618061	 0.114609
H	 0.8497015547	-2.4932204756	 0.7260955076	 0.062777
H	 0.81291383	-2.7909673179	 2.9493884574	 0.283332
H	-2.3342767717	-3.2560050413	-0.8988304731	 0.104028
H	-1.3383737559	-4.1839968562	 0.3190224007	 0.109935
H	-2.4134643133	-2.913203344	 2.2006817634	 0.13206
H	-3.4169965996	-1.9633512008	 1.0009301165	 0.103134
H	-2.091379741	-0.0293889167	 0.0388268656	 0.115819
H	-1.3685602304	-0.856955064	-1.3408596708	 0.099118
11.9777	130.6288	232.8523	246.8887	268.5767	283.178	310.1492	354.4533	439.5269	454.6458	499.9811	513.7193	564.5057	716.4348	787.9531	845.6663	876.8193	905.7951	930.7942	956.4421	976.6465	1011.431	1043.9634	1059.663	1083.6494	1088.4136	1099.6745	1128.0012	1157.3543	1195.5427	1207.3879	1234.7177	1250.783	1268.4391	1282.2834	1294.3398	1338.6912	1369.788	1391.774	1430.918	1435.2458	1462.0157	1486.1459	1500.6942	1501.6431	2942.9438	2962.4243	3033.9979	3046.4823	3086.1317	3089.8171	3118.5658	3135.5554	3202.2143	3233.8974	3818.6094	3830.9561
OC1CC(O)C2(CC2)C1	O[C@H]1C[C@@H](O)C2(CC2)C1	
InChI=1S/C7H12O2/c8-5-3-6(9)7(4-5)1-2-7/h5-6,8-9H,1-4H2	InChI=1S/C7H12O2/c8-5-3-6(9)7(4-5)1-2-7/h5-6,8-9H,1-4H2/t5-,6+/m0/s1
