15
gdb 31462	6.65142	0.90003	0.80034	2.5866	79.05	-0.2029	-0.0047	0.1982	1379.2355	0.112333	-416.805599	-416.797022	-416.796078	-416.839093	31.009	
C	-0.0859074868	 1.429782545	 0.1803750984	-0.333479
N	-0.0592496402	 0.0168807155	-0.163306899	-0.39735
C	-1.175188474	-0.7578020846	-0.0745288198	 0.501416
N	-1.2355889822	-2.0523838607	 0.0069818477	-0.41231
C	-2.6125062144	-2.3199079771	-0.0046844707	 0.127717
C	-3.2954175251	-1.1494024013	-0.0835202887	-0.138168
O	-2.3749971527	-0.1260289899	-0.1268797408	-0.179179
C	-3.14364023	-3.6287164493	 0.0625892345	 0.218788
C	-3.6014148274	-4.740216172	 0.1202180134	-0.407538
H	 0.8763721192	 1.8700590313	-0.0879297939	 0.135524
H	-0.8642348025	 1.9329225004	-0.3968418993	 0.154447
H	-0.2740941966	 1.6144974916	 1.2473432496	 0.127438
H	 0.7791120788	-0.4943829775	 0.0656960351	 0.263972
H	-4.3334262479	-0.872132008	-0.1086641185	 0.149911
H	-4.0021106181	-5.7220519534	 0.170070352	 0.188812
71.5817	117.8437	137.0289	164.9258	226.7194	305.7887	423.5286	464.2301	507.5111	555.0519	570.4369	636.4265	661.3474	662.7995	729.8636	747.083	760.8027	959.2382	1001.7938	1075.0925	1117.6517	1153.732	1185.8408	1235.0649	1282.3024	1403.9553	1440.3275	1479.8398	1491.8332	1516.4988	1594.9121	1689.6714	2240.5833	3006.3556	3100.6225	3141.207	3309.8883	3505.1896	3633.938
CNC1=NC(=CO1)C#C	CNc1nc(co1)C#C	
InChI=1S/C6H6N2O/c1-3-5-4-9-6(7-2)8-5/h1,4H,2H3,(H,7,8)	InChI=1S/C6H6N2O/c1-3-5-4-9-6(7-2)8-5/h1,4H,2H3,(H,7,8)
