23
gdb 118143	3.08302	0.80807	0.67843	2.6122	82.48	-0.2414	0.0814	0.3228	1703.026	0.204478	-425.405122	-425.394595	-425.393651	-425.441622	37.501	
C	-0.0237859182	 1.6926697298	 0.027389561	-0.40547
C	 0.0355661076	 0.157759461	 0.0363298527	-0.002957
C	 0.680461168	-0.4319056221	-1.2290795062	-0.172314
C	-0.138841201	-0.2413802796	-2.4996389972	-0.086699
O	 0.5492683348	-0.8968825919	-3.5558998863	-0.419905
C	 0.7902795135	-0.3249838465	 1.2711737577	 0.166674
C	 0.1143801514	-0.1797774325	 2.6545113174	-0.29971
C	 0.2998522503	-1.7064969291	 2.7441995695	-0.064622
O	 0.80155046	-1.7697449964	 1.3940141288	-0.29505
H	 0.9791319853	 2.1220303767	-0.0817411389	 0.11718
H	-0.6361463901	 2.0686183779	-0.7964966716	 0.119031
H	-0.4534023127	 2.0814656929	 0.9567798388	 0.114508
H	-0.9885967743	-0.235547438	 0.1172724843	 0.067526
H	 1.6734637032	 0.0106755077	-1.3823151177	 0.096655
H	 0.8302712002	-1.5060377719	-1.0814323955	 0.130424
H	-1.1461146329	-0.6674662486	-2.3561704456	 0.082434
H	-0.2674186635	 0.8293326843	-2.7231143914	 0.081722
H	 0.0465856962	-0.7695053025	-4.3655695911	 0.283514
H	 1.820974835	 0.0623477051	 1.2467378857	 0.068105
H	 0.6438351726	 0.4188416174	 3.3968202209	 0.108632
H	-0.9269181221	 0.1469266926	 2.6044795144	 0.107468
H	 1.050556481	-2.0383523665	 3.4732396124	 0.099678
H	-0.6073340944	-2.3080315299	 2.8739887577	 0.103179
64.6742	71.6969	94.4388	110.3684	135.4007	212.6782	237.2083	265.8176	308.8099	334.2675	382.6313	466.0164	527.9568	746.1936	794.7506	821.2371	863.8743	901.6493	949.0823	965.8869	978.7111	1008.115	1026.4609	1037.2303	1071.0457	1087.7114	1120.6743	1164.6254	1179.1995	1180.786	1213.7152	1238.5675	1249.9197	1257.5752	1289.4871	1298.415	1316.1523	1344.1119	1359.7277	1372.5044	1404.5799	1412.4385	1462.1755	1489.1603	1491.4915	1500.8971	1504.7601	1529.0009	1532.7638	2957.7126	2975.5478	2987.9714	2999.8362	3012.3951	3028.2578	3033.1696	3054.1641	3073.2323	3091.031	3093.8123	3111.2986	3130.6396	3829.7976
CC(CCO)C1CCO1	C[C@@H](CCO)[C@H]1CCO1	
InChI=1S/C7H14O2/c1-6(2-4-8)7-3-5-9-7/h6-8H,2-5H2,1H3	InChI=1S/C7H14O2/c1-6(2-4-8)7-3-5-9-7/h6-8H,2-5H2,1H3/t6-,7+/m0/s1
