17
gdb 90317	2.82153	1.60578	1.08257	2.9908	77.07	-0.2091	-0.0177	0.1914	1090.4503	0.136991	-417.989941	-417.98217	-417.981226	-418.022148	29.745	
C	-0.1298868442	 1.454165651	-0.1141884294	-0.327134
N	-0.0799217636	 0.0206013064	 0.1145853829	-0.090776
C	-1.2770078061	-0.6188196447	 0.756996666	-0.228245
C	-0.2847823723	-1.4403631829	 1.5526819373	 0.059229
C	 0.2278428469	-2.6752496264	 1.4652078205	-0.076524
N	 1.6243687491	-2.6039272402	 1.3333916414	-0.319286
C	 2.0637711474	-1.3125948453	 1.0209099951	 0.412487
O	 3.202163635	-0.9962302756	 0.7802135648	-0.35996
C	 0.8001419982	-0.4486824919	 1.2289349031	-0.122912
H	 0.844545035	 1.7959339728	-0.4755563196	 0.138107
H	-0.8745672601	 1.673504004	-0.8860484175	 0.123791
H	-0.388766978	 2.034031733	 0.7908976602	 0.09522
H	-1.8603252608	 0.0955416015	 1.359004617	 0.096906
H	-1.9448371088	-1.1419013784	 0.0660782571	 0.114243
H	-0.267705083	-3.6316602928	 1.3621571909	 0.128106
H	 2.2536270289	-3.3904767218	 1.340713172	 0.261432
H	 1.0224206165	 0.3408408014	 1.9614059583	 0.095314
106.195	162.0163	221.8203	249.4964	272.9863	359.1947	396.9854	496.5985	521.3633	603.4524	664.2792	708.6663	743.2097	832.285	864.6003	903.7002	958.2911	964.3607	994.6514	1083.475	1107.0663	1121.5607	1146.2475	1174.7177	1177.0659	1193.9084	1246.1407	1292.8342	1318.6586	1345.4181	1391.2642	1446.1448	1485.9922	1496.4885	1510.6483	1687.0228	1840.694	2937.0231	2977.4611	3003.1499	3066.4831	3075.3101	3111.2157	3219.7243	3652.2069
CN1CC2=CNC(=O)C12	CN1C[C]2[CH]NC(=O)[C@@H]12	
InChI=1S/C6H8N2O/c1-8-3-4-2-7-6(9)5(4)8/h2,5H,3H2,1H3,(H,7,9)	InChI=1S/C6H8N2O/c1-8-3-4-2-7-6(9)5(4)8/h2,5H,3H2,1H3,(H,7,9)/t5-/m0/s1
