18
gdb 84798	2.66466	1.4381	1.16381	3.0327	72.32	-0.2459	-0.0262	0.2196	1111.815	0.146452	-439.118642	-439.109579	-439.108634	-439.153435	32.289	
C	 0.136165386	 1.5184396246	-0.3211968309	-0.402277
C	 0.0177723764	 0.0350278926	 0.0338516426	 0.002636
N	 0.4565604755	-0.7941864899	-1.1030022056	-0.262927
C	 1.3986346302	-1.5230569494	-0.6792513275	 0.122004
O	 1.7765290551	-1.456259355	 0.6191499212	-0.209182
C	 0.9174278931	-0.4782516999	 1.2313166608	-0.014947
C	 1.7703181361	 0.6027591791	 1.8999570577	 0.372948
C	 1.1525240239	 1.2644025288	 3.1162902753	-0.488988
O	 2.8575492517	 0.8997325252	 1.4706456342	-0.292271
H	 1.1755092191	 1.7922456988	-0.5176209129	 0.147742
H	-0.448407579	 1.7163189027	-1.2227432211	 0.134963
H	-0.2487233697	 2.1557286407	 0.4816204208	 0.111673
H	-1.0316514814	-0.1950641532	 0.2472317025	 0.095669
H	 1.9628550863	-2.2355094845	-1.2701808859	 0.146738
H	 0.3103963846	-0.9900065185	 1.9856010035	 0.097844
H	 0.0987016594	 1.5109570183	 2.9479220008	 0.138197
H	 1.1832576096	 0.5647166785	 3.9607113142	 0.150355
H	 1.7130740529	 2.1627915009	 3.3763181302	 0.149824
41.7154	65.7262	119.0443	173.7767	235.9249	256.6436	330.9364	358.3393	380.3638	560.1153	573.8799	607.4452	727.0689	790.8929	845.9354	877.1979	937.179	947.0152	965.7617	1007.581	1041.4724	1073.7528	1104.9589	1134.0756	1139.416	1188.4921	1269.1716	1302.3386	1329.5478	1359.7635	1377.0541	1390.1592	1412.293	1461.431	1472.2974	1491.1577	1500.3641	1714.4598	1825.3895	3032.3698	3036.7893	3044.7621	3056.3939	3093.8015	3117.3705	3136.2381	3155.2359	3221.6808
CC1N=COC1C(C)=O	C[C@H]1N=CO[C@H]1C(=O)C	
InChI=1S/C6H9NO2/c1-4-6(5(2)8)9-3-7-4/h3-4,6H,1-2H3	InChI=1S/C6H9NO2/c1-4-6(5(2)8)9-3-7-4/h3-4,6H,1-2H3/t4-,6-/m1/s1
