17
gdb 33030	4.71411	0.89955	0.80736	2.6534	76.95	-0.2468	-0.0382	0.2086	1401.1011	0.137803	-418.057155	-418.048861	-418.047917	-418.091514	29.665	
O	-0.0691294141	 1.4263325432	 0.0096900487	-0.418274
C	 0.0194112676	 0.0110443102	 0.0018180505	-0.070526
C	-1.4101528726	-0.5371617442	 0.0129163042	-0.247309
C	-1.4163661164	-2.0418264228	 0.0047982489	 0.321776
N	-1.4100778408	-2.6480016361	-1.1910248121	-0.272059
C	-1.3938983919	-3.9812257396	-1.1850976234	 0.008081
C	-1.381492048	-4.7232001746	-0.0103264848	-0.132553
C	-1.3801583374	-3.9943388809	 1.1726589329	 0.00812
N	-1.3961947544	-2.6612309243	 1.1936318189	-0.272125
H	 0.8241033702	 1.7823028181	 0.0023444341	 0.286339
H	 0.5423302985	-0.3566155634	-0.8947332789	 0.097548
H	 0.5596323665	-0.3653732176	 0.8843938084	 0.097373
H	-1.9157730117	-0.1748996539	 0.9111332617	 0.123734
H	-1.9329161209	-0.1651279025	-0.8714279037	 0.123752
H	-1.3924033796	-4.4692991034	-2.1577013928	 0.117719
H	-1.3732713335	-5.8063456906	-0.0163882157	 0.110683
H	-1.3673193713	-4.4931823376	 2.1396979433	 0.117722
29.5616	99.9968	101.0418	239.8325	251.041	343.7917	370.6366	411.7651	521.3775	644.5955	652.2248	809.0818	814.1774	832.2377	879.639	1000.8411	1009.145	1010.2969	1016.3676	1041.6927	1081.5957	1096.4598	1131.7776	1212.4745	1238.3017	1248.3995	1287.9648	1296.5771	1325.3512	1352.9901	1450.1344	1463.4479	1467.3264	1484.9378	1528.2465	1599.5715	1619.7104	2974.0114	3007.4539	3072.1227	3130.561	3149.3494	3151.1078	3209.398	3829.8247
OCCC1=NC=CC=N1	OCCc1ncccn1	
InChI=1S/C6H8N2O/c9-5-2-6-7-3-1-4-8-6/h1,3-4,9H,2,5H2	InChI=1S/C6H8N2O/c9-5-2-6-7-3-1-4-8-6/h1,3-4,9H,2,5H2
