16
gdb 35386	4.09313	1.28968	1.16671	3.4569	71.78	-0.2479	0.026	0.2739	1039.2379	0.12626	-400.70277	-400.696081	-400.695137	-400.734115	26.459	
N	-0.0910817866	-1.1810384918	-0.1078287307	-0.324354
C	-0.0633302489	-0.0263737605	-0.0563865425	 0.270309
C	-0.0144569818	 1.4308124606	 0.0213107672	-0.182949
C	-0.5310051875	 2.0063731695	 1.3928466917	-0.274292
C	 0.7071527377	 2.7671642696	 1.8440187606	-0.027687
C	 1.4058714288	 3.4235434331	 0.6169588721	 0.036016
O	 2.7296082224	 3.2142387285	 1.2129992671	-0.310793
C	 1.9911594295	 1.9696425988	 1.4666724861	 0.057794
C	 1.4168105841	 1.9863019007	 0.0202182537	-0.033195
H	-0.5910901437	 1.8309124758	-0.8191301681	 0.129579
H	-1.3997101009	 2.6544764499	 1.2510693328	 0.12081
H	-0.8146602649	 1.2121333573	 2.0871449214	 0.134723
H	 0.6975919223	 3.3135668901	 2.7854645098	 0.091875
H	 1.207850434	 4.376063815	 0.1245746164	 0.099969
H	 2.4997402605	 1.167849872	 2.0008902891	 0.109365
H	 2.079130015	 1.7626811615	-0.8134809968	 0.102828
92.7377	158.6067	286.0158	361.0862	475.2341	484.8918	570.698	672.1824	714.9431	771.0433	789.3237	830.8387	890.5657	899.5617	904.4966	958.6	971.9709	995.125	1003.8166	1045.6348	1055.9055	1129.8232	1131.8664	1166.2574	1175.9615	1224.6778	1229.4728	1237.3072	1266.1889	1271.5664	1308.6417	1339.5427	1370.2331	1495.4064	2355.1844	3056.8128	3069.1684	3115.281	3115.7025	3127.9155	3146.3404	3155.2237
N#CC1CC2C3OC2C13	N#C[C@H]1C[C@@H]2[C@H]3O[C@@H]2[C@@H]13	
InChI=1S/C7H7NO/c8-2-3-1-4-6-5(3)7(4)9-6/h3-7H,1H2	InChI=1S/C7H7NO/c8-2-3-1-4-6-5(3)7(4)9-6/h3-7H,1H2/t3-,4-,5+,6-,7+/m1/s1
