19
gdb 100851	2.52764	1.06181	0.89102	4.8782	77.	-0.251	-0.0489	0.202	1376.5778	0.156161	-419.208095	-419.197614	-419.19667	-419.24431	36.08	
C	-0.0351208562	 1.6496569718	 0.0001650263	-0.396646
C	-0.0104491843	 0.1224111519	-0.0159145933	-0.122748
N	-1.3531726046	-0.470486408	-0.081116897	-0.064241
C	-2.0496326425	-0.2019369373	-1.3400223127	-0.349919
C	-1.3710581956	-1.8789652564	 0.2724124599	-0.235791
C	-2.799687469	-2.3035961637	 0.6621666677	 0.154622
O	-3.2992115954	-3.3614863706	 0.4089676213	-0.215858
C	-0.7786758069	-2.783718454	-0.737132228	 0.303853
N	-0.282671174	-3.4185822021	-1.5652860471	-0.326347
H	 0.9740527521	 2.0303720863	 0.1825377234	 0.125516
H	-0.3733201884	 2.0701218485	-0.95075762	 0.127547
H	-0.6930427324	 2.0168363745	 0.7932633976	 0.127457
H	 0.6257974656	-0.2342089836	-0.8449593227	 0.1079
H	 0.4524764416	-0.2328579312	 0.9116646223	 0.10588
H	-1.5125364717	-0.5920820162	-2.2199503659	 0.130414
H	-3.0430215977	-0.6605353809	-1.3200225504	 0.135505
H	-2.186984582	 0.8735281392	-1.4625109344	 0.135409
H	-0.7886020696	-1.9957860364	 1.1989783501	 0.148725
H	-3.314465489	-1.5053409019	 1.2379941629	 0.10872
60.7763	75.0636	85.3925	134.8039	170.1136	207.6816	218.4654	257.0715	315.7078	360.4868	381.3192	390.7708	470.5329	632.8152	699.9913	759.5901	810.5801	838.2376	973.6371	1006.1624	1056.6373	1069.8885	1087.9366	1123.4839	1162.1756	1196.5696	1254.7822	1281.724	1332.4302	1343.5819	1387.3583	1400.4572	1420.7564	1463.8268	1483.9748	1491.0613	1501.211	1510.1955	1515.1487	1851.5434	2352.1343	2917.8997	2955.1213	2980.1464	3005.9373	3045.9634	3052.5419	3081.6107	3116.5751	3120.9734	3133.9248
CCN(C)C(C=O)C#N	CCN(C)[C@@H](C=O)C#N	
InChI=1S/C6H10N2O/c1-3-8(2)6(4-7)5-9/h5-6H,3H2,1-2H3	InChI=1S/C6H10N2O/c1-3-8(2)6(4-7)5-9/h5-6H,3H2,1-2H3/t6-/m1/s1
