16
gdb 85697	2.19107	1.53024	1.14971	3.4169	69.16	-0.2849	-0.0082	0.2768	1102.4964	0.122519	-437.8523	-437.843808	-437.842864	-437.885911	30.714	
C	-0.6521563871	 1.3938506686	-0.0215430371	-0.40894
C	-0.001000466	 0.0287130805	-0.021094422	 0.073354
O	 1.2402863028	-0.0024994734	-0.7934266611	-0.303368
C	 1.9967826954	-0.5661310953	 0.2928927887	-0.083046
C	 3.180918964	 0.2187579251	 0.6426351032	 0.282826
N	 4.1067446011	 0.8367092341	 0.9532591614	-0.320331
C	 0.7718288667	-0.4348789149	 1.2148775519	 0.338279
C	 0.6769972245	-0.0899596117	 2.6283690798	-0.251213
O	 0.3605065017	-1.4076114645	 2.1309146725	-0.254263
H	 0.029125686	 2.1527161217	 0.3727775078	 0.134287
H	-0.9325043916	 1.6749535139	-1.0409213376	 0.14175
H	-1.5618220257	 1.3797349912	 0.5881002538	 0.128851
H	-0.6912183607	-0.7440217836	-0.3838924843	 0.103748
H	 2.2866983939	-1.6078353727	 0.1048683788	 0.140019
H	 1.5835419986	-0.0231108976	 3.2264702635	 0.145272
H	-0.1731439636	 0.4860237886	 2.9879832107	 0.132776
54.1251	121.8551	189.7428	207.3502	216.3382	294.5958	344.0539	388.028	498.6681	523.6245	537.9941	612.9654	783.4076	851.9368	885.8419	908.9268	961.0732	973.0553	1031.525	1085.2894	1107.4897	1117.1992	1133.9834	1164.1761	1176.1064	1229.629	1291.6918	1337.4425	1389.732	1409.743	1447.2007	1485.2791	1492.5675	1542.8915	2356.86	3026.6934	3033.9013	3040.756	3096.856	3113.4125	3125.3691	3190.2125
CC1OC(C#N)C11CO1	C[C@H]1O[C@@H](C#N)[C@]21CO2	
InChI=1S/C6H7NO2/c1-4-6(3-8-6)5(2-7)9-4/h4-5H,3H2,1H3	InChI=1S/C6H7NO2/c1-4-6(3-8-6)5(2-7)9-4/h4-5H,3H2,1H3/t4-,5+,6-/m1/s1
