12
gdb 42169	2.37904	1.36602	0.93748	3.0623	71.75	-0.2857	-0.0988	0.1869	1170.7037	0.073041	-398.279767	-398.270537	-398.269593	-398.314643	31.825	
O	 0.1583393552	-0.0070422201	 0.5362290111	-0.237514
C	-0.0145207781	 1.1161689066	 0.1607278729	 0.310741
C	 1.1116684848	 1.9504089962	-0.3002129251	 0.242546
N	 2.0094355017	 2.6048826232	-0.6198796003	-0.293558
C	-1.386435272	 1.8404600236	 0.1257907248	-0.469068
C	-1.6471445696	 2.2832256043	-1.2461674264	 0.32355
C	-1.8242983323	 2.6310632788	-2.3809767764	-0.423407
C	-2.4501876491	 1.0091600684	 0.678279092	 0.338945
C	-3.3257520887	 0.3345767645	 1.1431347335	-0.40012
H	-1.2570275751	 2.7349802462	 0.7572612994	 0.174573
H	-1.9905981243	 2.9447545993	-3.3826115284	 0.220083
H	-4.1012495925	-0.2666611111	 1.5506091928	 0.21323
35.6225	107.0082	124.2545	146.4567	188.9563	274.0073	324.8529	363.1057	425.5363	478.7021	551.0339	589.0425	648.5465	656.1229	672.8288	680.3485	695.6329	852.5242	932.4471	1035.7769	1096.2758	1237.2181	1298.9767	1823.2549	2244.7006	2256.2169	2340.4863	2979.6951	3499.7608	3501.8128
O=C(C#N)C(C#C)C#C	O=C(C#N)C(C#C)C#C	
InChI=1S/C7H3NO/c1-3-6(4-2)7(9)5-8/h1-2,6H	InChI=1S/C7H3NO/c1-3-6(4-2)7(9)5-8/h1-2,6H
