21
gdb 96189	2.29758	1.75455	1.14744	1.6947	78.35	-0.2444	0.0751	0.3195	1111.5819	0.184681	-424.219773	-424.21175	-424.210806	-424.252011	32.197	
O	 0.0255682425	 1.4435977252	-0.1476384614	-0.43997
C	 0.0393064867	 0.0284140558	-0.0053328361	 0.09827
C	 0.8355854055	-0.4419541591	 1.2172413445	-0.24496
C	 0.564125892	-1.9264608038	 1.4715964289	-0.076553
O	-0.8049638707	-2.1361909562	 1.7659300283	-0.262789
C	-1.6728867772	-1.8439382473	 0.6827299814	 0.097087
C	-2.9904297468	-1.2847423957	 1.2626076268	-0.233301
C	-2.4149389671	 0.1498930772	 1.0878365647	-0.226267
C	-1.4074894337	-0.4395024991	 0.0597904578	 0.01407
H	 0.9385104732	 1.7492811087	-0.1684217132	 0.278607
H	 0.4988637366	-0.4355045631	-0.8966214196	 0.058644
H	 1.908742526	-0.2732119335	 1.0587620231	 0.082817
H	 0.5348139196	 0.1339325155	 2.099251067	 0.113302
H	 0.8741184072	-2.5291930639	 0.5998550586	 0.083609
H	 1.1221207776	-2.2887768525	 2.3396746496	 0.107675
H	-1.7169430184	-2.701162367	-0.0042912847	 0.05654
H	-3.8368725623	-1.4734700022	 0.596792092	 0.098725
H	-3.2366246023	-1.625738724	 2.2697884371	 0.106618
H	-3.0863456438	 0.9294458093	 0.7249366035	 0.100285
H	-1.9241329585	 0.5053852334	 1.995690548	 0.111657
H	-1.850427686	-0.3954611177	-0.9400629263	 0.075936
123.3334	157.9442	220.878	280.6335	293.1189	361.9422	380.3331	418.0644	472.8233	577.0015	612.5077	708.837	747.1286	824.7914	874.4681	900.2207	914.3761	938.6508	949.0491	985.3844	1023.3152	1049.9704	1095.3781	1103.9825	1115.1114	1139.2893	1161.5052	1203.3671	1215.447	1243.2659	1251.0152	1261.7869	1276.1591	1287.6291	1293.8918	1339.8891	1357.7874	1362.7074	1398.6036	1413.076	1437.2697	1471.012	1482.39	1496.8007	1501.8292	2931.4932	2955.1097	2993.2926	3024.3804	3057.428	3067.5827	3078.0869	3080.9682	3086.2417	3121.7264	3137.2797	3807.8446
OC1CCOC2CCC12	O[C@H]1CCO[C@H]2CC[C@@H]12	
InChI=1S/C7H12O2/c8-6-3-4-9-7-2-1-5(6)7/h5-8H,1-4H2	InChI=1S/C7H12O2/c8-6-3-4-9-7-2-1-5(6)7/h5-8H,1-4H2/t5-,6-,7-/m0/s1
