17
gdb 41515	3.01341	2.05239	1.52537	2.2239	71.57	-0.2331	-0.0116	0.2215	877.8572	0.139129	-417.951474	-417.945136	-417.944192	-417.981912	26.284	
C	 0.0263814049	 1.594657349	 0.0025476541	-0.111082
O	 1.4160913291	 2.0243763627	 0.0590442026	-0.249065
C	 1.9858327032	 0.9588132615	 0.7226070839	 0.301108
N	 2.4050836615	 1.0676454529	 1.9098078121	-0.221938
C	 2.2344380792	-0.1960052087	 2.6354112071	-0.163047
C	 0.732639936	-0.5484272584	 2.454693561	-0.164289
N	 0.4799490477	-0.8657275359	 1.0337966199	-0.095661
C	 0.0434067005	 0.0548546045	-0.0561578591	-0.056498
C	 1.4649829426	-0.3207871763	 0.109099368	-0.165567
H	-0.5022059945	 1.9958190559	 0.8762469304	 0.121915
H	-0.4165816123	 2.0027321636	-0.9088943824	 0.128596
H	 2.8464193429	-1.0256869966	 2.255098398	 0.112904
H	 2.4865555157	-0.046026871	 3.6877400392	 0.113544
H	 0.4636941056	-1.4325293491	 3.0420027654	 0.11402
H	 0.1268253181	 0.294043632	 2.8102433269	 0.114054
H	-0.6287805728	-0.4224102002	-0.761636367	 0.112565
H	 2.0622093726	-0.978137606	-0.51428244	 0.108442
174.5612	216.8186	347.3412	436.7315	477.6045	516.4871	550.1859	615.8668	715.3656	723.0124	784.1226	838.4125	865.3342	887.0256	922.3364	955.5186	959.0873	989.2281	1018.2499	1067.0365	1083.8689	1094.4915	1119.6793	1156.2711	1209.1056	1221.6656	1246.8382	1276.2818	1308.5673	1327.9759	1335.3199	1350.0651	1384.9593	1491.6951	1499.1195	1501.7879	1723.0547	3011.9787	3027.9261	3030.5522	3076.6138	3099.7746	3107.9865	3155.743	3168.756
C1OC2=NCCN3C1C23	C1O[C]2[N]CCN3[C@@H]1[C@@H]23	
InChI=1S/C6H8N2O/c1-2-8-4-3-9-6(7-1)5(4)8/h4-5H,1-3H2	InChI=1S/C6H8N2O/c1-2-8-4-3-9-6(7-1)5(4)8/h4-5H,1-3H2/t4-,5-,8?/m0/s1
