21
gdb 91101	3.07554	1.65445	1.32234	0.525	87.54	-0.2195	0.0006	0.2201	1043.9893	0.185276	-349.923892	-349.916595	-349.915651	-349.955071	30.723	
C	-0.0990630442	 1.5280237482	 0.210761555	-0.413842
C	-0.0370508886	 0.0159728186	 0.0397759859	-0.00851
C	 1.0472184838	-0.4846752784	-1.0014276059	-0.230392
C	 1.405908087	-1.932487384	-0.5734859205	-0.044802
C	 2.1301914959	-2.4188904565	 0.7279911833	-0.04611
C	 2.6747885876	-1.5055227316	 1.8291869978	-0.264848
C	 1.5815924375	-0.4536525236	 1.9151606175	-0.123919
C	 0.5140970693	-0.8092626318	 1.1843425811	 0.118763
C	 0.6489041014	-2.2372396977	 0.6827555023	-0.125099
H	 0.873099955	 1.9367320478	 0.5052817661	 0.11546
H	-0.3911176479	 2.013113415	-0.7265377818	 0.113213
H	-0.8300591755	 1.8115751973	 0.9746736395	 0.117318
H	-1.0181792686	-0.3557701272	-0.2813133495	 0.072738
H	 0.6547731282	-0.4905867234	-2.0253289968	 0.09342
H	 1.9027006219	 0.1997530779	-0.9810950759	 0.098938
H	 1.4599472484	-2.6696907288	-1.3697427219	 0.079624
H	 2.5591323497	-3.4126320658	 0.628329734	 0.075025
H	 2.8594938873	-2.081781473	 2.7479710544	 0.102556
H	 3.6257219179	-1.0176908636	 1.5752598165	 0.104459
H	 1.8012535347	 0.5626303124	 2.2256667953	 0.08833
H	-0.1183565908	-2.9916121219	 0.8180133834	 0.077676
164.815	222.199	237.8712	275.5615	363.928	421.131	487.1236	584.5674	620.6361	649.5262	748.8981	758.9017	816.9949	836.6036	842.8607	852.1388	909.4269	929.9181	964.0543	978.2895	992.4762	1018.5683	1020.4466	1068.0915	1088.1474	1093.1673	1103.7529	1143.1977	1150.8931	1188.126	1199.9905	1252.2878	1279.2469	1292.9575	1298.5518	1316.9344	1343.3037	1369.8646	1397.3912	1413.549	1476.764	1485.8557	1497.5381	1500.4363	1655.4873	2994.1264	3021.4173	3026.6181	3029.872	3034.0268	3072.1385	3099.34	3104.2823	3138.3408	3147.0734	3165.3607	3181.5465
CC1CC2C3CC=C1C23	C[C@H]1C[C@H]2[C@H]3C[CH][C]1[C@@H]23	
InChI=1S/C9H12/c1-5-4-8-7-3-2-6(5)9(7)8/h2,5,7-9H,3-4H2,1H3	InChI=1S/C9H12/c1-5-4-8-7-3-2-6(5)9(7)8/h2,5,7-9H,3-4H2,1H3/t5-,7+,8-,9+/m0/s1
