16
gdb 56374	2.04491	1.47064	1.2603	5.2471	72.87	-0.2854	-0.0208	0.2647	1094.1068	0.123655	-396.917843	-396.908685	-396.907741	-396.951781	33.105	
N	 0.141690886	 1.4162979351	 0.0739779574	-0.513718
C	-0.0221784128	-0.0449989074	 0.006789465	-0.088726
C	 0.6618130513	-0.624832054	 1.1862338607	 0.33424
N	 1.2414833602	-1.0821783162	 2.0734741646	-0.334082
C	-1.4700049692	-0.3393808325	 0.1157317594	 0.329428
N	-2.6021965402	-0.5629102045	 0.1371387528	-0.317744
C	 0.5053093264	-0.6880648703	-1.2879770211	-0.002935
C	 1.9671467362	-1.0126609784	-1.4607634084	-0.299392
C	 0.9496217437	-2.1229407735	-1.3696342624	-0.269572
H	 1.1170325111	 1.6382979137	-0.1085484271	 0.25223
H	-0.4097335488	 1.8442113776	-0.6647798702	 0.252131
H	-0.0174704974	-0.2882031218	-2.1518193953	 0.110054
H	 2.4184072259	-0.7908470289	-2.4208870814	 0.127616
H	 2.6275903487	-0.8789522443	-0.6106421461	 0.142446
H	 0.9418803873	-2.7123386552	-0.4595753468	 0.148484
H	 0.6922180416	-2.6749166794	-2.2657575211	 0.129539
75.1875	131.2308	146.5471	165.0348	212.2947	243.5953	273.0183	349.4464	420.9348	496.9867	531.1565	575.4082	611.6344	661.7573	783.9968	837.0194	840.5759	911.8463	941.0753	979.5548	1016.7579	1068.2189	1095.677	1117.8518	1134.3233	1187.0928	1198.3685	1237.1146	1319.6118	1392.0988	1468.5143	1503.7444	1648.421	2367.4224	2372.0673	3139.9091	3145.2313	3155.129	3222.558	3236.5517	3487.0765	3576.4382
NC(C#N)(C#N)C1CC1	NC(C#N)(C#N)C1CC1	
InChI=1S/C6H7N3/c7-3-6(9,4-8)5-1-2-5/h5H,1-2,9H2	InChI=1S/C6H7N3/c7-3-6(9,4-8)5-1-2-5/h5H,1-2,9H2
