19
gdb 29689	2.44595	1.52842	0.9559	1.2584	81.08	-0.1618	0.055	0.2168	1230.8084	0.158527	-419.235745	-419.22563	-419.224685	-419.270417	36.538	
C	-0.0117984328	 1.4124332692	 0.0227761116	-0.346183
N	 0.0368070626	-0.0308078094	-0.0158780374	-0.088872
C	 0.034281819	-0.8251776821	-1.1406739286	 0.298028
C	-0.0010291896	-0.251111842	-2.5176188399	-0.50045
C	 0.0582303944	-2.1419698941	-0.7288072777	-0.316466
C	 0.0642410814	-2.1640505456	 0.6958143547	 0.169579
N	 0.1520052844	-3.2924471548	 1.542644704	-0.619523
C	 0.0544399711	-0.8531163409	 1.103217141	 0.212258
O	 0.0062950156	-0.3285712799	 2.3683967858	-0.445172
H	 0.8780013912	 1.8593388213	-0.4360516105	 0.127613
H	-0.8965343703	 1.7965459095	-0.4969020698	 0.132291
H	-0.0623329304	 1.721971232	 1.0673100102	 0.148658
H	 0.8603195688	 0.3966636226	-2.7278130642	 0.121257
H	 0.0111579065	-1.06123278	-3.2506135597	 0.131592
H	-0.9031773954	 0.3471678588	-2.7028943871	 0.121775
H	 0.0714658322	-3.0014217089	-1.3830798575	 0.080538
H	-0.3715668974	-4.0755751299	 1.1691570763	 0.236825
H	-0.2219158691	-3.0769329109	 2.4606331929	 0.235758
H	 0.8957730078	-0.3186085248	 2.742559206	 0.300493
79.7331	134.4095	151.3356	157.184	185.9145	252.2151	266.0444	270.0509	300.9322	306.6428	334.3936	560.4905	589.0237	597.186	621.4099	654.4777	741.5825	749.6667	838.0571	882.9399	1009.1717	1058.2671	1062.6257	1122.4528	1151.1386	1181.491	1199.8577	1241.515	1294.405	1397.1902	1420.0128	1430.7082	1465.9298	1478.1179	1480.1899	1497.12	1512.9563	1521.4348	1565.2249	1645.1865	1676.9393	3006.477	3023.4723	3045.4631	3072.9927	3118.4064	3146.2102	3235.222	3508.3805	3595.7328	3747.2802
CN1C(C)=CC(N)=C1O	Cn1c(C)cc(N)c1O	
InChI=1S/C6H10N2O/c1-4-3-5(7)6(9)8(4)2/h3,9H,7H2,1-2H3	InChI=1S/C6H10N2O/c1-4-3-5(7)6(9)8(4)2/h3,9H,7H2,1-2H3
