17
gdb 127013	3.36651	1.05516	0.81155	2.8209	71.83	-0.1974	0.0333	0.2307	1382.4805	0.135918	-455.152183	-455.143109	-455.142165	-455.186459	32.656	
C	-0.0082421535	 1.5506852722	 0.0488250987	-0.391258
C	-0.0129662983	 0.0337054008	 0.0094241086	-0.047357
O	 0.7091018568	-0.4406501626	 1.1369220894	-0.26824
C	 0.7977597382	-1.7868171342	 1.2474471149	 0.209702
C	 0.3055510515	-2.8038512852	 0.4509735156	-0.147013
N	 0.6960985084	-3.9666621607	 1.0407437103	-0.215053
N	 1.4124275079	-3.7709970626	 2.172094259	-0.321584
C	 1.4743978014	-2.4562239983	 2.2983699848	 0.322846
O	 2.1149253955	-1.8501165873	 3.3199946915	-0.428855
H	 1.0158008084	 1.9323221321	 0.0152624644	 0.133535
H	-0.5582453395	 1.9521094862	-0.8073695418	 0.117025
H	-0.4799842594	 1.912056643	 0.9666062526	 0.133561
H	-1.0414359761	-0.3584411061	 0.0379561092	 0.098041
H	 0.4577915377	-0.3384700703	-0.9137271333	 0.098044
H	-0.2720147883	-2.7884259999	-0.4575845269	 0.131441
H	 0.5154180454	-4.9046665359	 0.7345374232	 0.273253
H	 2.478023304	-2.550456101	 3.8763061598	 0.301912
65.9978	94.1407	133.8544	210.5815	241.89	279.4143	298.4415	351.4795	357.0632	428.9279	548.2211	633.9509	658.4661	712.4434	745.8218	805.2954	829.9756	922.4231	939.4208	1071.8459	1085.7799	1137.4651	1153.1226	1187.896	1254.5295	1279.2811	1295.6248	1333.7985	1401.9173	1428.0728	1461.4436	1483.1552	1492.2959	1500.8669	1526.9813	1593.9796	1654.5243	2975.8244	3007.1207	3048.1205	3122.8641	3127.0222	3276.3386	3706.0185	3797.4048
CCOC1=CNN=C1O	CCOc1c[nH]nc1O	
InChI=1S/C5H8N2O2/c1-2-9-4-3-6-7-5(4)8/h3H,2H2,1H3,(H2,6,7,8)	InChI=1S/C5H8N2O2/c1-2-9-4-3-6-7-5(4)8/h3H,2H2,1H3,(H2,6,7,8)
