15
gdb 21133	5.05648	1.64746	1.2524	1.4358	74.45	-0.2061	-0.0525	0.1536	935.6419	0.121075	-358.850669	-358.843691	-358.842746	-358.881789	26.136	
C	-0.005776315	 1.4296565778	 0.0077728862	-0.342996
N	 0.0524317121	-0.017312606	 0.0026454188	-0.321303
C	-1.0559920553	-0.6646030537	 0.0088077492	 0.411172
N	-2.3340870882	-0.0834223474	 0.0203368969	-0.308513
N	-3.5272976141	-0.7083503085	 0.0270891117	-0.178929
C	-3.5037483929	-2.0059326721	 0.0225598029	-0.003898
C	-2.2844814772	-2.7659442781	 0.0109842544	-0.109005
C	-1.1015774665	-2.1145515724	 0.0043585111	-0.120576
H	 1.0097132993	 1.833616109	 0.001109982	 0.12618
H	-0.5249090618	 1.8435875547	-0.8749735343	 0.104291
H	-0.5109530063	 1.8377904945	 0.9012429563	 0.104313
H	-2.4122297784	 0.9204222587	 0.0243017688	 0.271228
H	-4.4722847519	-2.4929118329	 0.028117462	 0.124821
H	-2.3322924003	-3.8493716331	 0.0077506105	 0.114096
H	-0.1440825136	-2.6208320705	-0.0044408563	 0.129119
113.4627	184.5556	230.3218	241.4148	383.098	457.6793	498.0826	590.4967	613.5294	641.1003	732.7882	800.4265	837.363	918.4885	998.3845	1018.3912	1019.6485	1056.6076	1104.0654	1118.9326	1170.0834	1186.4634	1288.1277	1391.6741	1420.2418	1432.4383	1461.8862	1502.8246	1504.8663	1595.1767	1661.6545	1710.1163	2934.4942	2972.2415	3096.2422	3187.1195	3201.7777	3219.39	3650.2115
CN=C1NN=CC=C1	C[N]C1=CCC=NN1	
InChI=1S/C5H7N3/c1-6-5-3-2-4-7-8-5/h2-4H,1H3,(H,6,8)	InChI=1S/C5H8N3/c1-6-5-3-2-4-7-8-5/h3-4,8H,2H2,1H3
