19
gdb 71596	2.11851	1.96305	1.71761	1.254	74.51	-0.2356	0.0629	0.2985	944.3574	0.159472	-422.986055	-422.978212	-422.977268	-423.017762	31.492	
C	-0.0210084564	 1.4994639157	-0.0465953146	-0.529821
C	 0.0223090019	-0.0034682635	-0.0462759602	 0.267249
C	 0.6067459622	-0.9668411928	-1.1131993503	-0.306061
C	 0.0527845963	-1.9162545402	-0.0269851232	-0.169928
C	 0.5833129179	-0.9485559256	 1.0606691048	 0.104509
O	-0.2698644065	-0.9425819541	 2.1996139849	-0.281926
C	-1.5701597396	-0.9615322523	 1.6032272212	-0.156503
C	-1.1976364822	-0.9738313435	 0.1178240749	 0.34726
O	-2.2087163813	-0.9051429984	-0.8343449559	-0.486585
H	 0.9816324047	 1.9221348797	-0.171776419	 0.1198
H	-0.6497752882	 1.8738015136	-0.8613405027	 0.130035
H	-0.4267915682	 1.8792155025	 0.8973785376	 0.126728
H	 0.087051154	-0.9829310127	-2.0722415346	 0.108795
H	 1.6924321414	-0.950356687	-1.2475642292	 0.087451
H	 0.0633043325	-3.0067147881	-0.0016875396	 0.068188
H	 1.6312335247	-0.929896421	 1.3542566902	 0.087915
H	-2.1254141317	-1.856143538	 1.9184316239	 0.090386
H	-2.1451613588	-0.0716663957	 1.8882077639	 0.10607
H	-2.7553614426	-1.6951750686	-0.763632132	 0.286439
175.7882	190.6298	217.4474	258.4818	275.4511	324.1084	433.0055	452.622	456.6725	650.692	661.5185	692.1241	736.7322	741.2346	833.0239	910.558	926.4441	957.4226	965.8329	1014.8335	1024.8749	1054.6037	1073.0318	1095.4656	1118.4013	1148.9855	1173.1409	1189.1838	1206.5011	1219.4119	1233.12	1264.0338	1295.6658	1326.953	1353.275	1404.0477	1413.4625	1488.2056	1490.6518	1515.2955	1522.128	3002.4195	3029.1772	3047.7628	3055.4667	3096.6567	3099.314	3105.4212	3128.4424	3146.2378	3804.1532
CC12CC3C1OCC23O	C[C@@]12C[C@H]3[C@@H]1OC[C@@]23O	
InChI=1S/C7H10O2/c1-6-2-4-5(6)9-3-7(4,6)8/h4-5,8H,2-3H2,1H3	InChI=1S/C7H10O2/c1-6-2-4-5(6)9-3-7(4,6)8/h4-5,8H,2-3H2,1H3/t4-,5-,6+,7-/m0/s1
