20
gdb 77418	1.89083	1.6515	1.59297	0.9535	79.14	-0.2028	0.0735	0.2762	1061.9839	0.168725	-403.053894	-403.044557	-403.043613	-403.08765	35.542	
C	-0.0861407592	 1.6204229398	 0.0600091945	-0.394929
C	 0.1584893023	 0.1159921092	-0.0340090981	-0.139023
C	 0.6981169807	-0.7325510728	-1.1814168566	 0.258815
C	-0.0819987928	-1.8238688898	-1.8561128744	-0.494028
C	 1.9974293193	-0.1540249957	-1.8258737789	-0.107231
N	 2.3818065021	 1.1324781733	-1.1812378636	-0.342362
C	 2.691965441	-0.1615634641	-0.5259891591	-0.131396
C	 1.4076716909	-0.7116788331	 0.1667162461	 0.323985
O	 1.4895527913	-1.7523404922	 1.0787919267	-0.461147
H	 0.6362362829	 2.1107369871	 0.7165160896	 0.11849
H	-0.0120775811	 2.1069633094	-0.9124066764	 0.129964
H	-1.0891719487	 1.8042108186	 0.461637168	 0.092362
H	-0.6524877577	-0.4587729151	 0.4168438003	 0.088582
H	-0.6986912511	-1.4297381146	-2.6733894889	 0.11762
H	 0.5823632924	-2.5861553357	-2.2804687283	 0.117105
H	-0.7468978293	-2.3240126719	-1.1456899449	 0.126269
H	 2.3624981234	-0.4187774085	-2.8103167609	 0.090739
H	 3.2384554473	 1.4463188826	-1.6397493894	 0.226313
H	 3.701426638	-0.4597970048	-0.2731909833	 0.09498
H	 1.4978312783	-1.3758748119	 1.9662466174	 0.284894
60.6062	155.7092	177.8593	196.4228	237.015	265.7232	274.0787	325.8832	352.7542	418.1525	552.4168	587.997	602.1812	721.2526	747.3711	768.0656	815.6081	854.581	866.8923	907.9069	951.2156	1010.2988	1040.4461	1073.0665	1082.5056	1100.4511	1106.2094	1115.9258	1165.0013	1193.8836	1243.797	1265.8225	1309.4706	1331.5533	1344.6062	1359.3218	1413.7937	1418.9275	1480.5872	1485.5151	1488.9121	1495.2744	1505.045	3017.4331	3035.3377	3071.6561	3091.47	3102.6979	3110.1976	3143.5555	3185.8817	3200.6689	3451.5019	3781.0707
CC1C2(C)C3NC3C12O	C[C@H]1[C@@]2(C)[C@H]3N[C@H]3[C@@]12O	
InChI=1S/C7H11NO/c1-3-6(2)4-5(8-4)7(3,6)9/h3-5,8-9H,1-2H3	InChI=1S/C7H11NO/c1-3-6(2)4-5(8-4)7(3,6)9/h3-5,8-9H,1-2H3/t3-,4-,5+,6-,7-/m0/s1
