23
gdb 110349	2.1293	1.29742	1.20669	2.0249	85.28	-0.2476	0.0708	0.3184	1233.703	0.205448	-388.253598	-388.243737	-388.242793	-388.288006	37.356	
C	 0.1956293056	 1.4087381965	-0.4489281632	-0.420653
C	 0.4473151468	-0.0830126704	-0.2479399568	 0.014057
C	 1.1054892258	-0.9459253877	-1.339704387	-0.116374
C	 2.5824053269	-0.7498299492	-1.5423618682	-0.01346
C	 3.3886057578	 0.5312012331	-1.5926446351	-0.10074
O	 4.738980936	 0.3161353152	-1.2011453741	-0.425072
C	 2.1171890166	-1.4980531211	-0.314794372	-0.115081
C	 1.4983445413	-0.6327352777	 0.796964777	 0.010869
C	 2.3728276582	 0.2954268118	 1.637832346	-0.427446
H	 1.1048537605	 1.9828295071	-0.6386179987	 0.123037
H	-0.4749462992	 1.5682945951	-1.3008826995	 0.116156
H	-0.2886651566	 1.8405411298	 0.4343753249	 0.11254
H	-0.5171953004	-0.5432556001	-0.0079854414	 0.07746
H	 0.5315391004	-1.506759575	-2.0696085534	 0.082334
H	 2.9595795703	-1.4610057385	-2.2777592574	 0.093952
H	 3.4349404136	 0.8926379318	-2.6260458554	 0.106522
H	 2.9317909066	 1.3290361561	-0.9987419189	 0.088082
H	 4.7140756938	-0.1431844957	-0.3547960571	 0.282114
H	 2.4096215415	-2.5323172565	-0.1689213744	 0.082759
H	 0.9652175072	-1.2924739322	 1.4893726316	 0.076733
H	 2.9760030019	 0.9844324667	 1.042366267	 0.123465
H	 1.7610427305	 0.8983246989	 2.3182336703	 0.115899
H	 3.0606210449	-0.2931268682	 2.2565155756	 0.112849
76.0662	143.6252	158.5473	174.3316	190.5827	204.2735	256.518	300.9865	333.1789	375.3095	474.774	536.4815	614.9853	674.3501	722.2169	763.1812	778.8025	870.392	901.5395	952.4542	967.2588	1010.1717	1020.2372	1040.237	1050.0487	1062.5914	1086.1837	1088.633	1122.8574	1169.8886	1175.6208	1198.5131	1238.5456	1251.7642	1288.2634	1309.2511	1343.0656	1364.782	1372.0553	1385.6607	1406.7514	1414.4076	1420.7565	1462.3009	1489.6974	1492.784	1497.2521	1503.3547	1520.1891	3026.6593	3030.8449	3033.0183	3043.0833	3050.7686	3072.1899	3084.5439	3088.9739	3108.9421	3122.0686	3129.0299	3158.1578	3169.9239	3807.4132
CC1C2C(CO)C2C1C	C[C@H]1[C@H]2[C@@H](CO)[C@H]2[C@H]1C	
InChI=1S/C8H14O/c1-4-5(2)8-6(3-9)7(4)8/h4-9H,3H2,1-2H3	InChI=1S/C8H14O/c1-4-5(2)8-6(3-9)7(4)8/h4-9H,3H2,1-2H3/t4-,5+,6-,7+,8-
