16
gdb 13173	2.95642	1.85092	1.43205	2.6401	64.03	-0.2624	0.0264	0.2888	908.8842	0.13157	-379.905476	-379.897481	-379.896536	-379.938329	28.457	
N	 0.1589827537	 1.4829416448	 0.023593567	-0.503476
C	-0.0200375238	 0.0336715004	-0.0121085599	-0.136857
C	 0.6187524474	-0.6133188698	-1.1811238734	 0.265549
N	 1.1144540048	-1.0923039963	-2.1096738998	-0.33754
C	 0.5241337718	-0.5424311736	 1.3022610819	 0.16411
C	 0.7530640351	-2.0630049396	 1.4191456663	-0.315682
C	 2.2416963267	-1.682281415	 1.5615736181	-0.058799
O	 1.9334864557	-0.2709931727	 1.4357254508	-0.296992
H	 1.1495042065	 1.6796935083	 0.1440845242	 0.256696
H	-0.1257522641	 1.9004893394	-0.8565557441	 0.245011
H	-1.0939364311	-0.1886831315	-0.0605916499	 0.129346
H	-0.0484318517	-0.0795981875	 2.1148532062	 0.0992
H	 0.2992780991	-2.5287939858	 2.2941281557	 0.118323
H	 0.5058859249	-2.6418743808	 0.5282346611	 0.133381
H	 2.6998498779	-1.9061156586	 2.5311339459	 0.110593
H	 2.901444477	-2.0243253017	 0.75810325	 0.127136
75.572	89.1461	153.6521	204.0349	255.0765	329.2265	382.0585	418.6028	597.2428	668.6847	736.6799	795.7257	845.6343	885.0594	935.1492	950.9453	987.2711	1023.1623	1077.2205	1109.9055	1133.291	1164.9591	1187.9653	1220.7519	1265.502	1288.5862	1322.9373	1359.2543	1379.621	1386.0087	1488.457	1527.5615	1657.0119	2343.402	3032.0513	3036.0397	3043.0674	3085.5237	3089.2484	3146.1372	3495.6095	3579.4107
NC(C#N)C1CCO1	N[C@@H](C#N)[C@H]1CCO1	
InChI=1S/C5H8N2O/c6-3-4(7)5-1-2-8-5/h4-5H,1-2,7H2	InChI=1S/C5H8N2O/c6-3-4(7)5-1-2-8-5/h4-5H,1-2,7H2/t4-,5+/m0/s1
