18
gdb 73077	2.45973	1.87114	1.39149	3.766	78.58	-0.217	-0.0342	0.1828	983.0054	0.148852	-401.969304	-401.961535	-401.96059	-402.001357	30.173	
C	-0.1656731808	 1.4662735752	 0.1018089431	-0.445659
C	 0.0059067375	-0.0354093606	-0.0524132207	 0.204326
C	-1.040521619	-0.9235444162	 0.6971176319	-0.284107
C	 0.096552321	-1.3669505715	 1.6477653255	-0.176278
N	 1.093472402	-0.6441108838	 0.7830836082	-0.105305
C	 1.8764004072	-1.3897762832	-0.0830222365	-0.032582
C	 1.5845000894	-1.2190302938	-1.3951820289	-0.257502
C	 0.3679416035	-0.4109134713	-1.5019719003	 0.349526
O	-0.246400801	-0.056896813	-2.4876209518	-0.367488
H	 0.7546768733	 1.991460292	-0.1700575488	 0.130616
H	-0.9593748766	 1.7989002802	-0.5739702992	 0.145071
H	-0.4289927394	 1.7383929813	 1.1280730957	 0.112458
H	-1.8588694862	-0.367809445	 1.1573343478	 0.1184
H	-1.452840288	-1.7273937568	 0.0857538394	 0.126819
H	 0.054454825	-0.9348089072	 2.6502453377	 0.121573
H	 0.2764055255	-2.4417632109	 1.7257099625	 0.118164
H	 2.6343379797	-2.0415779259	 0.3405647044	 0.126304
H	 2.1222285867	-1.6315762395	-2.2358895001	 0.115664
97.6671	195.4845	224.8985	230.7585	282.6152	308.7671	398.2849	519.7164	590.4082	643.2759	719.8307	750.4002	779.1947	800.4068	834.3408	853.5965	925.3683	950.8779	969.4298	992.6768	1001.9686	1101.9212	1119.0481	1140.4227	1152.2161	1190.3883	1206.8024	1254.531	1259.0176	1290.4612	1307.4171	1390.841	1401.3315	1481.563	1485.3439	1493.2125	1509.5212	1588.3748	1791.2851	3039.2671	3061.8652	3082.6153	3112.215	3114.2442	3120.8015	3141.2988	3183.0507	3249.4556
CC12CCN1C=CC2=O	C[C@]12CCN1C=CC2=O	
InChI=1S/C7H9NO/c1-7-3-5-8(7)4-2-6(7)9/h2,4H,3,5H2,1H3	InChI=1S/C7H9NO/c1-7-3-5-8(7)4-2-6(7)9/h2,4H,3,5H2,1H3/t7-/m1/s1
