13
gdb 14504	3.86071	2.07036	1.58149	3.9633	58.75	-0.2684	0.0072	0.2756	777.6468	0.094629	-398.527697	-398.52094	-398.519996	-398.558397	25.617	
O	 0.0149167254	 1.436375313	-0.1036875255	-0.466711
C	 0.0179409118	 0.0442585247	-0.0083406997	 0.302967
C	 0.9725515032	-0.5703278754	-0.9362859212	 0.230302
N	 1.7774332867	-0.9516172075	-1.6726554434	-0.331971
C	-0.1101052279	-0.6740633897	 1.3872964249	-0.00566
C	-1.5292625136	-0.0802324747	 1.5351821104	-0.244896
C	-1.3732115888	-0.6423029354	 0.1019028404	 0.020038
O	-0.6840669925	-1.8225375505	 0.6620671572	-0.295392
H	 0.9248266	 1.7527507382	-0.1336490599	 0.303922
H	 0.6617743863	-0.8745837958	 2.1294117104	 0.114896
H	-2.1931205426	-0.662661334	 2.1731179295	 0.122526
H	-1.6293122374	 0.9974882192	 1.6578228623	 0.130047
H	-2.1085364707	-0.803495862	-0.6848324456	 0.119935
159.127	168.3071	269.6387	314.5341	345.372	480.8181	511.7172	538.247	634.0522	674.4169	777.3858	819.3514	889.6727	919.9261	934.207	1006.2582	1043.647	1072.7898	1135.5207	1159.533	1174.2632	1199.0213	1209.7373	1253.7422	1275.6367	1373.142	1478.3904	2356.2448	3096.7679	3133.9733	3142.6618	3178.9624	3810.1097
OC1(C#N)C2CC1O2	O[C@@]1(C#N)[C@H]2C[C@@H]1O2	
InChI=1S/C5H5NO2/c6-2-5(7)3-1-4(5)8-3/h3-4,7H,1H2	InChI=1S/C5H5NO2/c6-2-5(7)3-1-4(5)8-3/h3-4,7H,1H2/t3-,4+,5+
