21
gdb 41866	3.18171	1.45937	1.06049	0.1471	89.91	-0.2233	0.0294	0.2526	1167.8181	0.185946	-349.991554	-349.983907	-349.982963	-350.023879	30.684	
C	-0.0895571147	 1.5386411267	 0.2062191484	-0.250524
C	 1.3703692793	 1.9467839795	-0.129344171	-0.236427
C	 2.2068824899	 0.6426887263	-0.047869749	-0.06788
C	 3.243739844	 0.4528924879	-1.1707277329	-0.262837
C	 3.642777719	-0.9919642064	-1.3399255493	-0.067587
C	 2.9175856399	-2.0213130596	-0.9038662335	-0.036028
C	 1.602648477	-1.8830094694	-0.1765023218	-0.381814
C	 1.1579915662	-0.452507965	-0.0717592788	 0.369035
C	-0.0758157793	 0.0378635856	 0.0394116696	-0.212877
H	-0.3640032896	 1.812707202	 1.2350664133	 0.101043
H	-0.8208402088	 2.0349237634	-0.4427027297	 0.098715
H	 1.4149430938	 2.3400338419	-1.1508518815	 0.098805
H	 1.749199045	 2.7321669699	 0.5298775798	 0.094949
H	 2.7503422278	 0.5893506514	 0.9081898369	 0.073674
H	 2.8279074794	 0.8247134282	-2.1194181968	 0.106342
H	 4.1320582462	 1.0679005088	-0.9785948989	 0.098464
H	 4.5758913312	-1.1840278712	-1.8647369184	 0.081899
H	 3.2716178009	-3.0367147068	-1.0660568636	 0.082475
H	 0.8319620535	-2.4914712975	-0.6681907988	 0.113971
H	 1.7101914259	-2.3206970431	 0.8298641016	 0.117322
H	-0.9822799665	-0.5594822828	 0.0595192643	 0.079282
69.2443	119.5568	236.3637	322.9964	355.0107	387.4679	470.4155	544.9146	572.4428	662.3383	685.8876	769.4981	812.9937	839.6923	862.9257	910.9302	929.5262	947.5584	959.0077	975.496	1005.0254	1006.2399	1041.6492	1070.5222	1089.3989	1153.4901	1173.0969	1191.6541	1204.5609	1223.1812	1248.1841	1275.8089	1308.6548	1314.328	1328.4179	1345.3388	1360.7919	1378.2605	1411.541	1459.4754	1477.3297	1487.3988	1504.1946	1724.025	1728.4287	2970.0901	2975.8401	2995.123	3002.6705	3027.8323	3037.8937	3038.9918	3051.8936	3094.8096	3140.1558	3164.1968	3176.0747
C1CC2CC=CCC2=C1	C1C[C@@H]2CC=CCC2=C1	
InChI=1S/C9H12/c1-2-5-9-7-3-6-8(9)4-1/h1-2,6,9H,3-5,7H2	InChI=1S/C9H12/c1-2-5-9-7-3-6-8(9)4-1/h1-2,6,9H,3-5,7H2/t9-/m0/s1
