21
gdb 56530	2.27229	1.27905	1.08271	2.147	84.32	-0.251	-0.0251	0.2259	1242.0824	0.177783	-387.07603	-387.065184	-387.06424	-387.111273	39.983	
C	-0.1426205097	 1.4871931247	 0.0236291144	-0.417583
C	 0.0332713377	-0.0466759902	 0.0774667639	-0.172496
C	 0.5682444489	-0.5320065544	-1.1946222251	 0.319297
C	 1.0181491737	-0.8996743255	-2.2479199403	-0.458213
C	 0.8881071108	-0.5463441066	 1.2840198557	 0.152397
C	 1.0319406087	-2.087498695	 1.2465631723	-0.427497
C	 2.2886787125	 0.0911887392	 1.3335816858	-0.435006
C	 0.1673806265	-0.2572404089	 2.5955728498	 0.150052
O	-0.9839667656	 0.0751957226	 2.7146252488	-0.263697
H	 0.8078746223	 1.9920500004	-0.1667192862	 0.123346
H	-0.8232673668	 1.7499061726	-0.790082995	 0.127521
H	-0.5671880554	 1.8562670597	 0.9587183692	 0.137919
H	-0.9645955391	-0.4802857419	 0.2185890585	 0.120289
H	 1.3982661977	-1.2320003902	-3.1821402208	 0.19287
H	 1.6230860589	-2.3849051928	 0.3772386365	 0.142601
H	 1.5359745781	-2.4556545826	 2.1465088588	 0.115688
H	 0.0538423439	-2.5740432992	 1.1801654352	 0.129343
H	 2.2447710052	 1.1770940033	 1.4543613733	 0.126091
H	 2.8681949507	-0.3146735811	 2.1692673436	 0.117655
H	 2.8307869723	-0.1276342502	 0.4093995687	 0.139016
H	 0.8072329988	-0.4236084737	 3.4947418627	 0.080407
71.142	100.1982	146.6112	198.4276	209.7186	218.8354	243.8009	275.491	280.6724	327.2575	348.7335	362.6801	418.1337	527.7872	557.8322	622.2647	628.0818	639.396	715.0965	884.2123	890.706	933.3859	953.3875	968.6452	1016.6684	1051.7855	1084.6664	1109.9884	1189.7294	1215.8434	1257.5725	1325.4788	1338.1615	1392.3991	1404.0216	1408.9933	1429.9248	1482.2506	1487.4634	1496.553	1503.2461	1505.4239	1515.7449	1825.4431	2229.017	2849.5745	3032.1071	3035.3719	3040.459	3056.4981	3103.5779	3107.1779	3119.7858	3125.4231	3126.1108	3145.9763	3502.8305
CC(C#C)C(C)(C)C=O	C[C@@H](C#C)C(C)(C)C=O	
InChI=1S/C8H12O/c1-5-7(2)8(3,4)6-9/h1,6-7H,2-4H3	InChI=1S/C8H12O/c1-5-7(2)8(3,4)6-9/h1,6-7H,2-4H3/t7-/m0/s1
