16
gdb 23507	4.43429	1.2781	1.13088	1.6038	84.45	-0.2054	-0.0615	0.1439	1066.4053	0.124598	-400.608317	-400.601379	-400.600435	-400.639463	28.186	
O	-0.2135272692	 1.3648468783	-0.0812060781	-0.385874
N	-0.0571797805	-0.0237252796	-0.224562426	-0.264457
C	-1.1246285396	-0.6414043741	 0.1249310358	 0.412726
C	-2.4991016116	-0.1548130729	 0.3178203411	-0.18941
C	-3.2676615995	-1.2414784449	 0.5922968245	 0.048773
C	-3.8765062875	-2.0014064707	-0.5895316299	-0.261794
C	-2.5632883881	-2.8619064562	-0.4227666928	-0.072226
C	-2.4164239338	-2.4519641477	 1.0041031914	-0.112429
C	-1.2508609724	-2.1345356221	 0.1223687117	-0.131636
H	 0.6174101375	 1.6993521271	-0.4351626525	 0.306599
H	-2.8406926565	 0.7175298183	-0.2289222779	 0.119477
H	-4.7317667652	-2.64971187	-0.3700107649	 0.116886
H	-4.0505357053	-1.4342107052	-1.5075052994	 0.1126
H	-2.4487492328	-3.8613396171	-0.8346123859	 0.100613
H	-2.4362227089	-3.0175769771	 1.9260834046	 0.10183
H	-0.3645208366	-2.7608642061	 0.1032894484	 0.098323
122.3444	214.1083	265.2677	379.1829	415.3826	438.7887	468.8475	626.703	662.5698	685.8942	728.9118	771.1459	798.1961	816.0524	864.4559	916.1079	918.0743	960.733	983.9473	989.2892	1038.7929	1043.1927	1048.4712	1086.8257	1118.4555	1195.3749	1210.0162	1219.0709	1271.0893	1281.9031	1336.0448	1407.8968	1496.3175	1547.1116	1695.2699	3038.3793	3106.3526	3144.7972	3172.2879	3190.2631	3200.9473	3817.437
ON=C1C=C2CC3C2C13	ON=C1[CH][C]2C[C@@H]3[C@H]2[C@H]13	
InChI=1S/C7H7NO/c9-8-5-2-3-1-4-6(3)7(4)5/h2,4,6-7,9H,1H2	InChI=1S/C7H7NO/c9-8-5-2-3-1-4-6(3)7(4)5/h2,4,6-7,9H,1H2/t4-,6+,7+/m1/s1
