20
gdb 59186	3.54422	1.02068	0.96865	2.0363	80.49	-0.2477	0.0022	0.2499	1314.3423	0.170467	-403.097761	-403.088928	-403.087984	-403.131375	33.488	
C	 0.0170356795	 1.4863390734	-0.117962236	-0.392275
C	 0.0576272161	-0.0338391864	 0.0971184896	-0.004979
C	 0.7487616657	-0.3825182204	 1.4236199163	-0.392275
C	-1.3572640185	-0.6116651829	 0.0682138419	 0.06296
C	-2.1022187893	-0.7484664512	-1.2998440248	-0.184909
N	-1.1556759467	-1.9107617686	-1.602375924	-0.313878
C	-1.5541715386	-2.1481930517	-0.145246354	-0.184909
C	-2.9882828157	-1.8154564983	-0.6169629005	 0.440878
O	-4.0968702797	-2.2523235054	-0.6203723546	-0.327455
H	 1.0274358528	 1.907462147	-0.1035142459	 0.114441
H	-0.4387112136	 1.7462912012	-1.0785334881	 0.113911
H	-0.5594343309	 1.9833605145	 0.6718408831	 0.111502
H	 0.6250655543	-0.4865808825	-0.7210798899	 0.101453
H	 1.7649687171	 0.0237738117	 1.4503006127	 0.114441
H	 0.2027133644	 0.0368067543	 2.2775137474	 0.111502
H	 0.8185912647	-1.4649133951	 1.5703238127	 0.113911
H	-1.9705452678	-0.1891959735	 0.871478557	 0.082526
H	-2.332259679	 0.0152409455	-2.0403540708	 0.100661
H	-1.6003462955	-2.5949940834	-2.2208055284	 0.231831
H	-1.1587637694	-2.9818995381	 0.4319096663	 0.100661
72.0499	130.1179	145.9331	223.4893	238.9988	264.2216	328.7453	381.7458	437.7509	501.2353	528.3835	686.7715	769.4973	793.9134	807.5502	850.5075	885.8668	908.3997	933.8046	966.5943	994.0899	1009.6311	1061.918	1090.5642	1128.6717	1140.4984	1142.4544	1176.4354	1191.7111	1200.8697	1206.0395	1267.1318	1278.2455	1314.8091	1360.4102	1400.6153	1409.8796	1426.6819	1486.9161	1493.2431	1505.2632	1509.7785	1905.5444	3023.9267	3027.6403	3053.8297	3068.2366	3088.7977	3100.711	3102.1916	3105.0181	3142.3749	3146.1447	3410.4789
CC(C)C1C2NC1C2=O	CC(C)[C@H]1[C@H]2N[C@@H]1C2=O	
InChI=1S/C7H11NO/c1-3(2)4-5-7(9)6(4)8-5/h3-6,8H,1-2H3	InChI=1S/C7H11NO/c1-3(2)4-5-7(9)6(4)8-5/h3-6,8H,1-2H3/t4-,5+,6-
