17
gdb 35175	3.67572	1.26743	1.12204	3.441	78.25	-0.2533	0.026	0.2793	1099.4731	0.137233	-380.78377	-380.776435	-380.77549	-380.815696	28.71	
N	-0.0947109859	-1.1583902671	-0.0036842686	-0.339051
C	-0.0588295393	-0.0015868025	 0.0028974599	 0.291138
C	 0.0119641856	 1.4313804499	 0.0094644574	-0.315928
C	 0.5089664403	 2.1612537918	 1.278803198	-0.399413
C	 1.3484667608	 2.1162201453	 0.067782552	 0.466373
C	 2.7789285429	 1.7100995312	-0.2755245108	-0.150882
C	 2.3992411954	 2.1969416658	-1.6942219968	-0.168326
N	 1.7522068361	 3.2858303398	-0.8043145001	-0.188883
C	 3.0760997453	 3.2061211715	-0.0065139724	-0.169697
H	-0.7676970398	 1.9333631991	-0.5548107407	 0.145538
H	-0.0056405161	 3.0853148885	 1.5192340116	 0.142341
H	 0.7760993087	 1.5423070041	 2.1283061522	 0.145293
H	 3.3326961015	 0.8197800601	 0.0333081496	 0.091503
H	 3.1984463678	 2.5853621788	-2.329555207	 0.109343
H	 1.6744121354	 1.6120240521	-2.2636408601	 0.118204
H	 2.9902776163	 3.575864562	 1.0173920864	 0.112343
H	 3.9185807651	 3.6589936695	-0.5342603905	 0.110103
99.267	125.7451	243.883	287.4488	318.9934	445.7941	528.6111	569.0956	634.0046	674.0152	760.3023	779.0383	808.4635	838.2844	896.9358	924.3868	941.9544	961.066	1017.8055	1042.9238	1073.5123	1079.5077	1092.9967	1108.5916	1115.5443	1138.479	1169.353	1195.2538	1218.3901	1225.4184	1269.8065	1327.6368	1416.897	1486.8285	1507.9297	1547.5751	2351.0442	3062.9354	3064.987	3081.6318	3135.0303	3136.5449	3139.2526	3165.5777	3229.4249
N#CC1CC11C2CN1C2	N#C[C@H]1C[C@]21[C@H]1CN2C1	
InChI=1S/C7H8N2/c8-2-5-1-7(5)6-3-9(7)4-6/h5-6H,1,3-4H2	InChI=1S/C7H8N2/c8-2-5-1-7(5)6-3-9(7)4-6/h5-6H,1,3-4H2/t5-,7+/m1/s1
