20
gdb 6539	3.11629	1.65967	1.33803	1.6159	72.08	-0.2393	0.0772	0.3165	1016.1615	0.173229	-386.11928	-386.109543	-386.108599	-386.15283	36.065	
C	 0.0524754485	 1.2585310356	-0.2941828461	-0.245964
O	-0.0850702036	-0.0116914779	 0.3109563989	-0.281998
C	-1.3565974827	-0.5900003198	 0.1763565166	 0.399272
C	-2.447133342	 0.0658391565	 0.9943930273	-0.453097
C	-1.6856582245	-1.2023002028	-1.1798253076	-0.415041
C	-1.3308446905	-2.0840140924	 0.0078729612	 0.332623
C	-0.0231097806	-2.8407898492	 0.0235578761	-0.438864
O	-2.3895519857	-2.7571289242	 0.6441300582	-0.466763
H	 1.1063218442	 1.535361472	-0.2115119996	 0.124831
H	-0.2294332492	 1.235267308	-1.3567246051	 0.105993
H	-0.5510290541	 2.0272610867	 0.2077225126	 0.110817
H	-2.692921365	 1.060804645	 0.6089114806	 0.110222
H	-3.3511481168	-0.5433297875	 0.979805533	 0.137654
H	-2.1206752944	 0.1713414138	 2.0340629216	 0.123481
H	-2.7217084843	-1.1862873818	-1.5016786654	 0.108599
H	-0.9502403408	-1.1013781743	-1.9712257112	 0.110682
H	 0.7863965478	-2.2344131983	-0.3839815152	 0.131527
H	 0.2367046452	-3.1209371913	 1.0491374885	 0.125637
H	-0.1050783244	-3.7594499147	-0.5705498598	 0.099888
H	-2.6101976571	-3.5251240933	 0.1056898953	 0.280501
102.7751	151.9255	180.0387	192.9397	198.2298	226.9463	275.2704	294.6606	340.4718	395.5919	421.1221	430.778	455.8616	572.2486	696.6887	733.3888	888.1757	909.1661	919.5826	945.9424	991.6724	1020.9835	1071.8816	1102.9212	1126.9721	1175.7556	1182.4129	1213.8588	1230.9553	1287.4473	1299.8537	1396.3247	1403.5805	1416.9803	1471.1315	1474.6791	1484.059	1485.411	1492.3788	1501.2545	1509.8219	1517.565	2991.7287	3027.8739	3038.1898	3045.7199	3093.4613	3099.7802	3114.3645	3125.8824	3147.0174	3149.8565	3219.6771	3795.3577
COC1(C)CC1(C)O	CO[C@@]1(C)C[C@]1(C)O	
InChI=1S/C6H12O2/c1-5(7)4-6(5,2)8-3/h7H,4H2,1-3H3	InChI=1S/C6H12O2/c1-5(7)4-6(5,2)8-3/h7H,4H2,1-3H3/t5-,6-/m0/s1
