23
gdb 88944	2.71367	1.10533	0.99808	2.1292	82.4	-0.2261	0.0659	0.2921	1344.9553	0.20214	-425.406054	-425.395564	-425.39462	-425.441014	40.205	
C	 0.1043302327	 1.443263264	-0.3919749262	-0.41185
C	 0.1181869364	-0.0509985491	-0.0408682196	 0.347324
C	 0.580039095	-0.2747047815	 1.4063060598	-0.398995
C	-1.2646527995	-0.6701571791	-0.2579416145	-0.40216
O	 0.9744573418	-0.807126257	-0.9373436851	-0.307506
C	 2.2627510198	-0.3092999856	-1.1690584182	 0.076248
C	 3.050810702	-1.0531569249	-2.2176607825	-0.363111
C	 2.4794637384	 0.3158731754	-2.5256306899	 0.118663
O	 1.3751588189	 0.4286390176	-3.3703229308	-0.431624
H	 1.065231573	 1.9181753968	-0.1755390103	 0.114963
H	-0.1137960502	 1.5923840609	-1.4526823528	 0.129772
H	-0.6613891916	 1.9561292697	 0.1979336643	 0.113378
H	-0.1041880474	 0.2156395551	 2.1057647124	 0.115414
H	 0.6045153293	-1.3435872277	 1.6357258696	 0.122377
H	 1.577933845	 0.1382789825	 1.5812777835	 0.1144
H	-1.6097533402	-0.4968243784	-1.2816748206	 0.113655
H	-1.2264047111	-1.7495647985	-0.0876698955	 0.123553
H	-1.9953421964	-0.234239708	 0.4292479107	 0.114412
H	 2.7883010535	 0.0710167492	-0.2969451693	 0.090284
H	 4.1197309596	-1.1691168199	-2.0737953423	 0.112512
H	 2.5546498214	-1.8983423942	-2.6835120133	 0.123632
H	 3.1526198302	 1.1600747537	-2.6350188322	 0.099478
H	 0.6812605397	-0.1070756309	-2.9606326374	 0.285183
63.2015	96.0854	176.005	192.8277	215.8745	257.4169	259.1241	307.1421	336.8368	345.8126	400.3493	447.9254	460.2999	481.1194	507.0188	662.8298	734.9203	776.3505	792.6895	845.1137	913.4179	921.9198	934.0744	961.5515	1017.7739	1038.9141	1043.5856	1060.1046	1075.8655	1107.7828	1128.3812	1160.2738	1217.0829	1223.1427	1257.0393	1280.2238	1334.5356	1378.0386	1400.2366	1402.9047	1428.2186	1431.2449	1472.1687	1479.0453	1482.8005	1485.3429	1499.2443	1500.7015	1517.0374	3038.7009	3040.9801	3048.229	3106.3812	3112.6379	3115.6621	3117.747	3123.7508	3126.0626	3128.5392	3133.5221	3163.1667	3222.0403	3740.2183
CC(C)(C)OC1CC1O	CC(C)(C)O[C@H]1C[C@H]1O	
InChI=1S/C7H14O2/c1-7(2,3)9-6-4-5(6)8/h5-6,8H,4H2,1-3H3	InChI=1S/C7H14O2/c1-7(2,3)9-6-4-5(6)8/h5-6,8H,4H2,1-3H3/t5-,6+/m1/s1
