18
gdb 80275	2.51658	1.50596	1.24143	3.5338	71.67	-0.2409	0.0251	0.2661	1071.6719	0.147323	-439.114552	-439.105881	-439.104937	-439.147687	32.929	
C	-0.0157102	 1.5330150791	 0.0168202622	-0.484111
C	-0.0161652625	 0.023537146	 0.0166499086	 0.269551
C	-1.3161663739	-0.7185627206	-0.2683338352	-0.411497
C	-1.3314053679	-1.9410732117	 0.664461378	 0.395209
O	-2.1809926079	-2.7956803836	 0.7517683861	-0.3647
N	-0.1494167033	-1.9077869824	 1.3775763773	-0.317803
C	 0.6937365079	-0.7835329323	 1.0977254951	-0.127475
C	 1.2615366788	-0.736326703	-0.3059924503	 0.074231
O	 1.2460802437	-1.8646497943	-1.1201642671	-0.430104
H	 0.9656278082	 1.9306575807	 0.2955842424	 0.117647
H	-0.2612044504	 1.9259017364	-0.9762985013	 0.12865
H	-0.7497895614	 1.9321024714	 0.7263337401	 0.121616
H	-2.1956429135	-0.1003870668	-0.0649784299	 0.129913
H	-1.3886443662	-1.0717614564	-1.3012827002	 0.147484
H	 0.0695246987	-2.6257241124	 2.0496709251	 0.255845
H	 1.2014218906	-0.3269675404	 1.9406408583	 0.102624
H	 2.1511298701	-0.1281332991	-0.4544816763	 0.100069
H	 1.0199165789	-2.6254625806	-0.570955073	 0.292852
72.9723	165.8648	201.1677	220.929	249.7279	266.0372	293.5921	444.3468	463.7162	510.9804	560.8149	590.4597	619.0393	702.6277	766.2564	845.4597	860.5174	870.7282	955.4364	981.176	1002.9742	1062.4022	1099.8804	1110.9791	1159.8476	1181.939	1218.0951	1238.9127	1297.7257	1310.0601	1335.6793	1368.4062	1399.9388	1420.517	1443.0783	1463.376	1490.7655	1500.3723	1835.3939	3023.6951	3061.8045	3086.5653	3096.0773	3104.8015	3132.5663	3164.1793	3643.9397	3771.6384
CC12CC(=O)NC1C2O	C[C@]12CC(=O)N[C@H]1[C@H]2O	
InChI=1S/C6H9NO2/c1-6-2-3(8)7-4(6)5(6)9/h4-5,9H,2H2,1H3,(H,7,8)	InChI=1S/C6H9NO2/c1-6-2-3(8)7-4(6)5(6)9/h4-5,9H,2H2,1H3,(H,7,8)/t4-,5+,6-/m0/s1
