19
gdb 67458	2.17771	1.88121	1.82577	0.8417	73.49	-0.2404	0.0619	0.3024	929.3883	0.161105	-423.007067	-422.99976	-422.998815	-423.038718	29.646	
O	-0.1043744152	 1.397219908	 0.0865579774	-0.481002
C	 0.0171371335	 0.0209463327	-0.0168975835	 0.335008
C	-1.3071901716	-0.7996610163	 0.0286097116	-0.049468
C	-0.9133320846	-1.4604246707	-1.3362948457	-0.242364
C	 0.4930624488	-0.8492909775	-1.2260609724	 0.032812
O	 1.3343193231	-1.6198321787	-0.3356056735	-0.318364
C	 0.992534247	-0.8206410929	 0.8311750248	 0.059134
C	 0.181302493	-1.5881089634	 1.8681838976	-0.227606
C	-1.2520509834	-1.7177924402	 1.2741709361	-0.229507
H	 0.7716030498	 1.7908970136	 0.006058317	 0.284019
H	-2.2128804352	-0.1942155287	-0.0183620006	 0.080108
H	-0.9526631494	-2.5514369299	-1.391901186	 0.102044
H	-1.4768576901	-1.0331948886	-2.1713270366	 0.101443
H	 1.0253936386	-0.5136703536	-2.1194509653	 0.071567
H	 1.882413935	-0.3204563045	 1.2354741767	 0.06187
H	 0.6426457374	-2.553780615	 2.0938532638	 0.111304
H	 0.1639274135	-1.0116154301	 2.8002815664	 0.10198
H	-2.000627097	-1.4201783316	 2.0139436942	 0.101409
H	-1.4801983132	-2.7513055925	 0.9983263078	 0.105613
76.4266	213.3628	270.5587	326.7263	373.6118	394.4318	410.8766	592.4845	636.091	662.662	705.78	782.6883	805.8959	846.7162	881.0904	902.973	945.2698	974.3631	987.3953	1003.8089	1040.9885	1069.7497	1081.2262	1098.2757	1132.7098	1143.6211	1180.0934	1195.5447	1226.0327	1259.5279	1270.2057	1286.3152	1294.401	1319.6906	1328.2608	1348.147	1358.0268	1404.5746	1464.3073	1472.0542	1503.1847	3016.1634	3043.8599	3049.963	3056.9123	3079.701	3082.7558	3099.7364	3104.3335	3114.2052	3799.0136
OC12C3CC1OC2CC3	O[C@@]12[C@H]3C[C@@H]1O[C@@H]2CC3	
InChI=1S/C7H10O2/c8-7-4-1-2-5(7)9-6(7)3-4/h4-6,8H,1-3H2	InChI=1S/C7H10O2/c8-7-4-1-2-5(7)9-6(7)3-4/h4-6,8H,1-3H2/t4-,5-,6+,7-/m1/s1
