25
gdb 115711	2.5571	1.06188	0.91226	1.3806	88.79	-0.257	0.0656	0.3226	1462.7253	0.227929	-389.488233	-389.477654	-389.47671	-389.523529	39.869	
C	-0.2286500388	 1.7670548013	 0.0530796756	-0.386302
C	-0.1636540036	 0.2959829381	 0.4794000672	-0.206316
C	-1.3502385538	-0.5133790724	-0.0335243459	 0.055769
C	-1.4867736287	-0.7825742088	-1.5598610274	-0.220231
C	-1.9768456104	-2.2186114269	-1.2367494235	-0.246851
C	-1.4394508609	-2.0588069128	 0.2192991935	-0.024486
C	-0.1267600631	-2.7939002552	 0.5215529831	 0.117872
C	-0.3445635416	-4.2918091568	 0.7481919347	-0.410802
O	 0.8786807989	-2.5741858828	-0.471826246	-0.429253
H	 0.6319498733	 2.3286214121	 0.429970373	 0.10886
H	-0.2342851665	 1.8639012331	-1.038157086	 0.116503
H	-1.1354905182	 2.2527749155	 0.4316075888	 0.10793
H	 0.7658586107	-0.1549828177	 0.1174264833	 0.122024
H	-0.1331481618	 0.2400621917	 1.5764236544	 0.085379
H	-2.2762414578	-0.0523867064	 0.3338059866	 0.06174
H	-2.1640408642	-0.1402378069	-2.1282812818	 0.089601
H	-0.5102871273	-0.7861474815	-2.0517324794	 0.101294
H	-3.065750312	-2.3084486476	-1.2638225401	 0.100928
H	-1.5666399698	-3.0345037648	-1.8420820761	 0.077108
H	-2.1537468618	-2.3380292905	 1.001641743	 0.061016
H	 0.3045162392	-2.3623992496	 1.4331035427	 0.089257
H	-0.8068309844	-4.7593280375	-0.1300682575	 0.110784
H	 0.6120457278	-4.7876366308	 0.9346589796	 0.121786
H	-1.0031009181	-4.4720097372	 1.6037311656	 0.116224
H	 0.6099623429	-3.0420355953	-1.2696221076	 0.280167
84.1064	107.7432	121.5146	139.3225	214.13	226.2498	251.0718	267.5278	289.3001	301.421	397.3683	421.1775	519.3067	562.8931	702.4967	742.6193	758.9064	799.3563	883.6591	911.6028	940.8346	945.0459	959.4348	981.1205	1004.6414	1030.6759	1063.7343	1077.7344	1090.7811	1135.4755	1149.111	1187.6184	1213.5645	1252.174	1260.987	1266.7913	1278.3266	1293.013	1308.1907	1345.1794	1347.213	1370.1162	1398.0008	1402.0435	1410.9653	1424.0728	1476.7097	1490.9748	1493.2047	1495.4842	1499.4725	1501.3874	1510.554	3009.8187	3014.0347	3025.5356	3027.0982	3034.4422	3036.8922	3044.865	3057.0371	3074.5141	3088.3679	3095.5243	3097.5972	3099.7502	3112.6725	3116.9959	3807.7246
CCC1CCC1C(C)O	CC[C@H]1CC[C@H]1[C@@H](C)O	
InChI=1S/C8H16O/c1-3-7-4-5-8(7)6(2)9/h6-9H,3-5H2,1-2H3	InChI=1S/C8H16O/c1-3-7-4-5-8(7)6(2)9/h6-9H,3-5H2,1-2H3/t6-,7+,8+/m1/s1
