21
gdb 107254	2.73656	1.53538	1.15476	0.9048	82.45	-0.1925	0.0903	0.2828	1144.034	0.180894	-387.006975	-386.99803	-386.997086	-387.040306	34.858	
C	-1.0364076696	 1.6912173204	-2.0458000375	-0.255391
O	-1.1399810719	 1.2561939668	-0.7088541138	-0.274346
C	-1.9449354741	 0.15603603	-0.4795272202	 0.400879
C	-2.1246892405	-1.0367775008	-1.3680212916	-0.380239
C	-3.3457419342	-0.2325725792	-0.9238118236	-0.157571
C	-3.739343134	-0.45973045	 0.5612839577	-0.093006
C	-2.8647072319	-1.4521626223	 1.2867500305	-0.353555
C	-2.3438754404	-0.0645076321	 1.0149854049	 0.27731
C	-1.9131028107	 0.8971057358	 2.0844546087	-0.483676
H	-0.4734783779	 2.6269801284	-2.0287476642	 0.129493
H	-0.4986712859	 0.9680534799	-2.6748494509	 0.114188
H	-2.0248612094	 1.8781579861	-2.490096717	 0.110918
H	-1.8782983333	-0.8547278581	-2.4102632146	 0.109724
H	-1.9339439189	-2.0622298146	-1.0664477453	 0.109072
H	-4.0162288972	 0.2070173326	-1.6508386702	 0.089368
H	-4.6870527729	-0.1265762057	 0.9664061777	 0.084981
H	-3.1453174697	-1.615104059	 2.3240717009	 0.10767
H	-2.4700092642	-2.3426119393	 0.8106750186	 0.108795
H	-0.8631103035	 0.7465141079	 2.3622958168	 0.120164
H	-2.0179678264	 1.9337851199	 1.7509313509	 0.125411
H	-2.5193743934	 0.7624372034	 2.9861891322	 0.109811
67.6242	147.2848	191.6437	203.1271	225.95	305.2647	337.7443	407.0713	447.5799	460.7021	491.7978	616.5974	623.7451	759.2672	793.205	837.8384	877.374	900.7639	922.8118	951.1032	962.1418	982.4058	1000.9456	1036.2642	1056.4867	1085.7152	1099.2092	1104.0756	1124.8525	1176.8634	1178.8543	1213.0297	1249.6519	1262.4212	1306.7556	1345.7885	1385.4659	1418.5958	1475.5585	1479.5698	1489.3879	1493.6423	1504.6246	1507.6035	1516.5104	2988.336	3026.2375	3040.7731	3085.6377	3106.8584	3113.0093	3120.1079	3128.5887	3179.6191	3189.9056	3196.4017	3202.6856
COC12CC1C1CC21C	CO[C@]12C[C@H]1[C@H]1C[C@@]21C	
InChI=1S/C8H12O/c1-7-3-5(7)6-4-8(6,7)9-2/h5-6H,3-4H2,1-2H3	InChI=1S/C8H12O/c1-7-3-5(7)6-4-8(6,7)9-2/h5-6H,3-4H2,1-2H3/t5-,6+,7-,8-/m1/s1
