16
gdb 35612	2.32478	1.80826	1.17512	1.3007	75.51	-0.238	0.0116	0.2497	1041.1529	0.123789	-400.708259	-400.700391	-400.699446	-400.741105	30.023	
C	-0.0842930088	-1.1793819507	-0.3705964347	-0.454653
C	-0.0536752243	-0.005296052	-0.1176280665	 0.350853
C	-0.0059464307	 1.4247033736	 0.1451484789	-0.168944
O	-0.3791153622	 1.6983114148	 1.5277973404	-0.228219
C	 0.65589268	 2.4053185463	 2.0511011635	 0.102129
N	 1.6627762302	 2.6742616761	 1.3317327759	-0.295512
C	 1.3953466902	 2.0864058608	 0.0390577762	 0.338324
C	 2.535057904	 1.5157675551	-0.755583531	-0.313995
C	 1.8657703061	 2.7936073983	-1.2019734207	-0.311436
H	-0.1161079213	-2.2196327426	-0.5838272716	 0.20751
H	-0.7380833019	 1.9398751248	-0.4877220909	 0.124356
H	 0.5217348525	 2.6901664786	 3.087920824	 0.145863
H	 3.5188810627	 1.5848282444	-0.3067158754	 0.129902
H	 2.3446574568	 0.6088903468	-1.3185254423	 0.12798
H	 1.2232718491	 2.7576348244	-2.0765623018	 0.116404
H	 2.3953832877	 3.728354001	-1.0595042039	 0.129439
45.0915	140.6307	201.3884	280.8672	308.2354	351.294	479.502	507.6718	569.5593	607.4875	623.961	678.6801	772.1232	800.1465	839.6787	899.5833	928.5303	946.6088	953.8603	976.2315	1000.0182	1049.6221	1056.2401	1079.356	1112.4576	1191.588	1235.3176	1277.9949	1333.4881	1351.6158	1364.9604	1452.9323	1493.2066	1701.8138	2240.1319	3033.6466	3128.581	3141.7456	3219.7405	3224.6416	3237.1426	3499.9088
C#CC1OC=NC11CC1	C#C[C@H]1OC=NC21CC2	
InChI=1S/C7H7NO/c1-2-6-7(3-4-7)8-5-9-6/h1,5-6H,3-4H2	InChI=1S/C7H7NO/c1-2-6-7(3-4-7)8-5-9-6/h1,5-6H,3-4H2/t6-/m1/s1
