19
gdb 52684	1.9302	1.27205	0.87925	1.9984	79.54	-0.2336	0.0277	0.2613	1376.6959	0.156429	-422.972895	-422.96253	-422.961586	-423.009211	36.934	
C	 0.913884979	 0.4886224006	 0.9082693026	-0.50334
C	 0.2956222037	-0.7128909248	 0.363727365	 0.07214
C	-0.2355705798	-1.7022363293	-0.0782363376	 0.024405
C	-0.9204233785	-2.8686839059	-0.660881352	-0.047209
O	-1.9002220511	-2.4543179639	-1.6135348753	-0.409794
C	 0.0154510238	-3.905024856	-1.2693125901	-0.086024
C	 1.2837570936	-3.49137586	-2.0105282001	-0.357405
C	 1.3761141535	-4.2592091223	-0.7179090599	 0.135265
O	 1.9103056074	-3.7227571934	 0.4510647675	-0.429355
H	 1.9689056415	 0.5610946097	 0.6239858152	 0.155662
H	 0.4062785775	 1.3867968597	 0.5405788243	 0.158566
H	 0.8595462807	 0.4999234426	 2.0019622846	 0.158568
H	-1.5062160272	-3.3540123827	 0.1296135227	 0.124665
H	-1.4215532959	-2.0634343567	-2.3540134814	 0.282781
H	-0.5532540231	-4.7248235915	-1.6991747887	 0.099367
H	 1.5314820765	-3.9798842495	-2.9468709956	 0.112624
H	 1.5501703371	-2.4394341327	-1.9646368762	 0.118247
H	 1.6542306828	-5.3062218942	-0.7872398139	 0.106337
H	 1.5575681985	-2.8308785396	 0.5674389089	 0.284502
43.3963	59.8387	86.1403	134.761	194.617	237.9323	274.2323	315.1248	357.3283	364.5791	382.3208	440.6967	533.2703	550.6086	644.1636	743.4913	776.4214	817.1626	890.0748	984.1852	1013.4032	1040.1677	1051.4663	1054.7326	1057.8176	1087.3307	1133.0594	1145.7955	1175.4318	1243.3031	1260.0202	1321.4461	1356.6235	1376.7209	1413.2679	1418.5833	1448.3776	1476.0427	1477.6996	1489.0365	2351.3855	3032.7088	3035.8569	3096.5296	3097.0101	3123.6565	3145.5533	3162.0993	3212.3572	3742.0966	3794.6755
CC#CC(O)C1CC1O	CC#C[C@@H](O)[C@H]1C[C@H]1O	
InChI=1S/C7H10O2/c1-2-3-6(8)5-4-7(5)9/h5-9H,4H2,1H3	InChI=1S/C7H10O2/c1-2-3-6(8)5-4-7(5)9/h5-9H,4H2,1H3/t5-,6-,7-/m1/s1
