19
gdb 82656	4.13689	1.3158	1.27038	3.3799	78.91	-0.2313	-0.0008	0.2305	1054.3534	0.161258	-385.878311	-385.871096	-385.870152	-385.909767	29.295	
C	-0.1868342254	 1.617468071	-0.0419981019	-0.435068
C	 0.0453816361	 0.1139251796	-0.0043632892	 0.042087
C	 1.1093655755	-0.605885351	-0.8918321124	-0.062598
C	 2.4244506926	 0.1103652444	-0.5122228768	-0.231012
C	 2.3781327723	-0.289096099	 0.9863943495	-0.171703
C	 0.8137270839	-0.5634858694	 1.1428613986	-0.053827
C	 1.1262351139	-1.7835987909	 0.1731697537	-0.169202
C	 2.4928610721	-1.8149068641	 0.8305097905	 0.440574
O	 3.2219519359	-2.6669052089	 1.2496306215	-0.336186
H	 0.7160905553	 2.1905358453	 0.1853964237	 0.120386
H	-0.5499355246	 1.9356037233	-1.026040471	 0.118882
H	-0.9456382883	 1.9024135803	 0.6950083109	 0.120036
H	-0.912789307	-0.4047040324	-0.1258925137	 0.078328
H	 0.9231819295	-0.8076354944	-1.9465531065	 0.069303
H	 3.3048755216	-0.2971888541	-1.0183398123	 0.110622
H	 2.3948315652	 1.185930057	-0.6953377036	 0.104627
H	 2.9625829168	 0.2683138282	 1.7140516449	 0.083755
H	 0.4325229004	-0.7000614981	 2.1532760332	 0.083172
H	 0.4744475144	-2.6427243567	 0.0355368709	 0.087823
132.2783	160.5102	198.206	305.9777	395.791	459.2877	520.1402	599.4261	669.8249	692.4559	758.4767	786.5953	798.387	829.8711	888.8346	912.5608	939.5393	954.0646	971.2944	992.382	1029.9515	1058.7983	1079.8367	1085.7125	1111.7143	1134.4252	1150.4101	1171.9022	1191.0132	1208.3058	1228.3491	1244.6522	1276.845	1310.9921	1322.0027	1397.0152	1412.5598	1491.3941	1494.7408	1522.8731	1887.6211	3031.2237	3039.1791	3059.6851	3091.6822	3105.6797	3116.1748	3117.4664	3133.501	3154.7192	3157.6014
CC1C2CC3C1C2C3=O	C[C@H]1[C@H]2C[C@H]3[C@@H]1[C@@H]2C3=O	
InChI=1S/C8H10O/c1-3-4-2-5-6(3)7(4)8(5)9/h3-7H,2H2,1H3	InChI=1S/C8H10O/c1-3-4-2-5-6(3)7(4)8(5)9/h3-7H,2H2,1H3/t3-,4+,5-,6+,7+/m0/s1
