15
gdb 44806	2.83265	1.51182	1.17693	2.0274	65.94	-0.2501	-0.0343	0.2158	1038.4223	0.110775	-457.706802	-457.699099	-457.698154	-457.739619	28.316	
O	-0.0976368311	-0.0358851418	 0.1425970684	-0.298932
C	-0.0694860847	 1.1569136595	 0.1030388469	 0.387613
C	-1.1578240276	 2.2736169425	 0.0814713956	-0.368812
C	-0.0039664047	 3.2545792619	-0.1670755612	-0.052544
O	 0.8673741505	 3.1388162752	 0.9542449384	-0.282016
C	 1.0390647148	 2.1918519547	-0.1265590471	 0.32004
C	 2.3704404845	 2.0616612702	-0.7570299484	-0.081491
C	 3.0261874019	 0.7483827506	-0.8636693549	-0.182674
O	 2.3908890924	 1.349440276	-1.9946540698	-0.231438
H	-1.8327718507	 2.1296352271	-0.7676971227	 0.141688
H	-1.7310102932	 2.4373674471	 0.995748656	 0.141637
H	 0.0061146818	 4.1782530904	-0.7318787678	 0.128973
H	 2.9794672963	 2.9646295458	-0.723690025	 0.106615
H	 4.1128042611	 0.7024462954	-0.9077679611	 0.123123
H	 2.5209286686	-0.1266165645	-0.4619278273	 0.148218
70.9957	128.5847	142.6139	186.6503	363.0708	411.6148	448.6459	496.5324	591.0006	666.0403	698.7279	813.4674	862.897	872.8105	893.4468	921.0348	959.013	989.0734	1014.2066	1042.0137	1097.8146	1136.688	1166.2789	1171.151	1184.8668	1233.6216	1258.7056	1282.0931	1361.8188	1441.5393	1478.6035	1521.0361	1896.3451	3069.25	3096.2823	3118.9709	3133.2994	3196.1871	3207.4902
O=C1CC2OC12C1CO1	O=C1C[C@H]2O[C@@]12[C@H]1CO1	
InChI=1S/C6H6O3/c7-3-1-4-6(3,9-4)5-2-8-5/h4-5H,1-2H2	InChI=1S/C6H6O3/c7-3-1-4-6(3,9-4)5-2-8-5/h4-5H,1-2H2/t4-,5-,6+/m1/s1
