20
gdb 71948	2.55087	1.96207	1.43731	2.4009	76.6	-0.2075	0.0694	0.2769	968.4689	0.173279	-403.111894	-403.104499	-403.103555	-403.143558	30.336	
O	-0.0428702124	 1.4164738285	 0.076084659	-0.491116
C	 0.0307573645	 0.0101360901	 0.0174292359	 0.403876
C	 0.2821463798	-0.6195794906	-1.3880067959	-0.234372
N	-0.972162458	-1.4304323037	-1.3124000283	-0.135227
C	-0.7935162936	-2.68237838	-0.5009668826	-0.184993
C	-1.2094363424	-1.9697846591	 0.8195202629	-0.026082
C	-0.0963707753	-1.6924819736	 1.8379366875	-0.223373
C	 0.8315697841	-0.6327152777	 1.1838519537	-0.294151
C	-1.3512841367	-0.6938489532	-0.0379592062	-0.033477
H	 0.8536446552	 1.7677943848	 0.0492740499	 0.276057
H	 0.1957610294	 0.1304319619	-2.1805031655	 0.105923
H	 1.200954804	-1.1995744192	-1.5346721628	 0.088936
H	-1.4883439812	-3.4613760971	-0.827931071	 0.10661
H	 0.2218942436	-3.0974064405	-0.5257298856	 0.091907
H	-2.1164384917	-2.3693044866	 1.2767309829	 0.070553
H	-0.5387776021	-1.2831593485	 2.7527577289	 0.105154
H	 0.4401667009	-2.6027636206	 2.1246658071	 0.099063
H	 1.7618555064	-1.0805938543	 0.8198988071	 0.096358
H	 1.1056664309	 0.1447801169	 1.9027331627	 0.101541
H	-2.2494395952	-0.0747133275	-0.0325742997	 0.076812
77.8028	238.5184	255.1092	303.4056	366.454	392.4349	439.0006	555.5291	609.4431	626.297	767.7113	780.2981	790.0364	851.8774	879.5795	901.4525	927.5358	938.8684	964.79	980.9315	991.7177	1012.5662	1065.9312	1083.1031	1138.4653	1155.4138	1178.0503	1193.7877	1207.3975	1213.6124	1244.7228	1262.4664	1270.1165	1291.7441	1298.6643	1306.0071	1325.2274	1357.0789	1387.9565	1477.8506	1485.4389	1496.4146	1507.6819	3020.2353	3026.3592	3038.0561	3046.7474	3074.9879	3075.1923	3084.8545	3090.7006	3096.6271	3105.9595	3802.4404
OC12CN3CC(CC1)C23	O[C@@]12CN3C[C@@H](CC1)[C@@H]23	
InChI=1S/C7H11NO/c9-7-2-1-5-3-8(4-7)6(5)7/h5-6,9H,1-4H2	InChI=1S/C7H11NO/c9-7-2-1-5-3-8(4-7)6(5)7/h5-6,9H,1-4H2/t5-,6+,7-/m1/s1
