16
gdb 39002	2.95899	2.3322	1.55531	2.5318	72.67	-0.2519	-0.023	0.2289	842.128	0.12825	-396.890562	-396.884501	-396.883557	-396.92067	25.019	
C	-0.1363972645	 1.5044253125	-0.0562624335	-0.333277
C	 1.4254666547	 1.7519811081	 0.0555011198	-0.022109
C	 2.1649114978	 1.9230141071	 1.4238357936	-0.189028
N	 2.3703730401	 0.5524130498	 1.9694584597	-0.223908
C	 2.0524042908	-0.2650777387	 1.0559053973	 0.198497
C	 1.2715246576	-1.5772671589	 1.1042534592	-0.224421
N	-0.0672537512	-1.0135216689	 0.6789720641	-0.281954
C	 0.2545388539	 0.0295276911	 0.0154442221	 0.278888
N	 1.642268524	 0.2979105905	-0.2080341434	-0.110119
H	-0.7791480478	 1.8336831116	 0.7616346749	 0.143493
H	-0.540142931	 1.8506713713	-1.0094994204	 0.137855
H	 1.82482745	 2.4072444042	-0.7183356107	 0.100979
H	 3.1225311742	 2.4343180565	 1.2743938823	 0.12556
H	 1.6010699106	 2.4998385253	 2.1641863066	 0.125605
H	 1.6510843661	-2.3346313315	 0.411905017	 0.131739
H	 1.1861834548	-1.9910255598	 2.1080698516	 0.1422
202.342	289.8634	324.6782	368.3495	461.8537	599.6397	643.744	714.1302	726.7415	743.5162	813.9769	856.9996	878.2028	893.9639	936.7921	973.4576	991.6297	1008.5689	1047.458	1075.2625	1113.1083	1147.4705	1163.0561	1192.4919	1210.9284	1223.5531	1253.4641	1284.0684	1322.6866	1337.9669	1459.7067	1473.3101	1488.1958	1677.7283	1718.4918	3041.6154	3067.1451	3079.5642	3081.595	3111.7815	3143.566	3152.5857
C1C2CN=C3CN=C1N23	C1[C@H]2C[N][C]3C[N][C]1N23	
InChI=1S/C6H7N3/c1-4-2-7-6-3-8-5(1)9(4)6/h4H,1-3H2	InChI=1S/C6H7N3/c1-4-2-7-6-3-8-5(1)9(4)6/h4H,1-3H2/t4-/m0/s1
