20
gdb 71579	3.11226	1.49496	1.48715	0.5981	78.17	-0.226	0.0718	0.2977	1007.1632	0.171985	-403.105023	-403.097408	-403.096464	-403.136348	31.852	
C	-0.036383101	 1.4892279006	 0.0893673932	-0.494394
C	 0.0123737483	-0.0115321781	-0.0070983419	 0.355698
C	 0.9355879612	-0.769976864	-0.9956955634	-0.276653
C	 0.8283952463	-1.8472305596	 0.0766104634	-0.071218
N	 0.7435004164	-0.7701277866	 1.1506119502	-0.178389
C	-0.2942641102	-1.5920516099	 1.8574229881	-0.235967
C	-0.6992418182	-2.1020414947	 0.4581592969	 0.379026
O	-1.4224345934	-3.2598289067	 0.1978750417	-0.484736
C	-1.3004834887	-0.8191227831	-0.1322314607	-0.29613
H	 0.9686656001	 1.9018769652	 0.2148412938	 0.125401
H	-0.4798263238	 1.9220477535	-0.8146899678	 0.116723
H	-0.6429281941	 1.8069102565	 0.9446918192	 0.118084
H	 0.5602020483	-0.9659776289	-2.0026309039	 0.09746
H	 1.942884004	-0.3478555173	-1.0325983346	 0.107559
H	 1.5439076792	-2.660244538	 0.2190686595	 0.065798
H	 0.2187530206	-2.3356791913	 2.4778018585	 0.095329
H	-1.0306204181	-1.0497147215	 2.4600119271	 0.097792
H	-0.9956195974	-3.9941118516	 0.6514337314	 0.280154
H	-2.1296803345	-0.4338638523	 0.4678570568	 0.095655
H	-1.635725145	-0.9300648424	-1.1664649176	 0.102808
196.7282	210.1443	243.1812	301.7484	339.9114	378.6556	453.6278	467.0648	497.4332	564.2736	642.0663	661.2357	722.2791	803.1748	829.0936	886.5889	912.3527	931.9919	946.97	977.8088	988.2057	1004.8077	1028.9773	1051.4657	1087.4635	1113.7246	1145.2162	1170.569	1183.1826	1207.9013	1228.4694	1234.1568	1252.6916	1283.3552	1317.8414	1341.9294	1395.371	1412.9625	1478.634	1483.2459	1491.4736	1496.1092	1522.0981	3028.9966	3031.0811	3058.213	3062.5977	3087.7079	3090.3219	3093.0081	3107.5797	3111.723	3123.623	3811.5022
CC12CC3N1CC3(O)C2	C[C@@]12C[C@H]3N1C[C@@]3(O)C2	
InChI=1S/C7H11NO/c1-6-2-5-7(9,3-6)4-8(5)6/h5,9H,2-4H2,1H3	InChI=1S/C7H11NO/c1-6-2-5-7(9,3-6)4-8(5)6/h5,9H,2-4H2,1H3/t5-,6+,7+/m1/s1
