21
gdb 99650	2.24702	1.17816	0.88954	0.9262	85.34	-0.26	0.0385	0.2985	1402.413	0.179398	-387.029369	-387.018937	-387.017993	-387.065124	37.871	
C	 0.0774461772	 1.3915303452	-0.0109383755	-0.238921
O	-0.1877309692	 0.0307485964	-0.279114303	-0.23121
C	 0.7500929063	-0.5790317005	-1.1554308642	-0.081008
C	 2.0940417974	-0.6512047266	-0.5576060795	 0.348031
C	 3.1876987245	-0.716323394	-0.062167129	-0.482468
C	 0.2195343355	-1.9590307793	-1.4842445432	 0.006291
C	-0.8103278503	-2.1375833694	-2.5712081126	-0.312231
C	 0.5827325054	-2.6879963913	-2.7578220137	 0.009424
C	 1.5225904107	-2.1242379846	-3.8030319101	-0.411743
H	 1.0416710242	 1.5300921936	 0.4965236073	 0.119231
H	 0.0802093259	 1.9921347982	-0.9345554273	 0.10054
H	-0.7243147265	 1.7480572308	 0.6397318551	 0.127258
H	 0.819947561	 0.020420769	-2.0783101452	 0.084448
H	 4.1554715844	-0.7748524979	 0.3714909295	 0.197477
H	 0.1072481884	-2.572980716	-0.5960404206	 0.097439
H	-1.6355043355	-2.8186457205	-2.3957152976	 0.111864
H	-1.0782573612	-1.2571194017	-3.1479128451	 0.110021
H	 0.6768476616	-3.7637692207	-2.6326988801	 0.086015
H	 1.3531605788	-1.0578003379	-3.9785529911	 0.1156
H	 2.569968482	-2.2503196079	-3.5090541068	 0.126702
H	 1.3786292494	-2.6354082351	-4.7611287174	 0.11724
48.0002	99.4395	114.2437	157.1652	175.5583	202.2356	240.0998	262.9894	311.9488	378.0464	430.2429	470.3229	541.3664	598.7396	628.2775	667.9141	774.9138	845.7073	860.7645	897.809	944.9529	990.579	1013.7189	1049.7053	1068.9059	1108.1094	1129.8235	1150.5319	1171.2941	1184.0112	1198.1368	1223.0578	1250.3043	1298.385	1350.3315	1393.7711	1418.3243	1432.6195	1476.9006	1484.7125	1492.9973	1495.3554	1505.982	1511.8688	2227.3917	2962.1145	2977.9548	3033.8438	3041.3932	3093.5856	3104.4029	3119.2794	3126.9717	3136.4349	3158.9728	3211.9191	3502.2158
COC(C#C)C1CC1C	CO[C@@H](C#C)[C@H]1C[C@H]1C	
InChI=1S/C8H12O/c1-4-8(9-3)7-5-6(7)2/h1,6-8H,5H2,2-3H3	InChI=1S/C8H12O/c1-4-8(9-3)7-5-6(7)2/h1,6-8H,5H2,2-3H3/t6-,7+,8+/m1/s1
