23
gdb 97918	4.40823	0.53548	0.50184	1.2523	92.47	-0.2407	0.0364	0.2771	2260.7283	0.202687	-388.265135	-388.253376	-388.252432	-388.304691	40.778	
C	 0.1566240177	 1.613081719	 0.1269463309	-0.396313
C	-0.0224151421	 0.1069534056	-0.0869893148	-0.163681
C	 0.7663803362	-0.4703839526	-1.2756734581	 0.052359
C	 2.2842496686	-0.3386363765	-1.1022892344	-0.392968
C	 0.362073369	-1.9504833042	-1.4958671873	-0.365692
C	 0.9351884317	-2.5513463537	-2.6946119922	 0.01597
C	 1.4184489126	-3.0208022855	-3.6927996166	 0.153134
C	 1.9806674422	-3.6011892378	-4.9048957834	-0.217568
O	 3.3988861963	-3.6680308663	-4.7925691161	-0.410136
H	 1.1880669094	 1.8699668467	 0.3855539446	 0.120495
H	-0.1093744488	 2.1743477468	-0.7759664371	 0.113994
H	-0.4837272984	 1.9700274376	 0.9396732744	 0.112121
H	 0.2657254422	-0.4302538878	 0.8276713639	 0.092481
H	-1.0893270629	-0.1043749546	-0.2381288831	 0.089777
H	 0.473847327	 0.0820704476	-2.1793482509	 0.078818
H	 2.8121636067	-0.8013044017	-1.9406014663	 0.136958
H	 2.5952756449	 0.7081326858	-1.0464330868	 0.112513
H	 2.6151112161	-0.8357002237	-0.1817009408	 0.107978
H	 0.6571434003	-2.5371895099	-0.6142775119	 0.123997
H	-0.7323751387	-2.0198437506	-1.5510542671	 0.121687
H	 1.5478168897	-4.6033868567	-5.0597073072	 0.113685
H	 1.6811898972	-2.9900752831	-5.7723481594	 0.112629
H	 3.7317006931	-4.0534666144	-5.6095799707	 0.287762
10.4852	46.6234	68.584	95.5301	151.0125	211.0955	221.5233	237.1249	265.1468	281.0824	329.0125	351.0848	394.4994	416.1641	505.0434	574.6038	771.9334	777.74	828.6518	883.8619	912.2769	976.1649	1009.5013	1028.981	1040.7314	1049.8092	1124.6282	1144.1971	1153.881	1180.2985	1244.3428	1246.9425	1256.7572	1287.4301	1307.7845	1355.0717	1376.289	1382.9369	1411.9318	1414.9103	1459.7743	1466.2285	1484.7601	1496.3689	1499.7866	1504.4718	1507.1839	1512.2759	2369.2454	2959.4159	2976.1942	3003.2589	3004.0035	3013.7672	3028.9991	3033.1112	3036.5535	3046.4619	3098.1527	3098.6697	3108.6026	3119.9664	3816.5872
CCC(C)CC#CCO	CC[C@@H](C)CC#CCO	
InChI=1S/C8H14O/c1-3-8(2)6-4-5-7-9/h8-9H,3,6-7H2,1-2H3	InChI=1S/C8H14O/c1-3-8(2)6-4-5-7-9/h8-9H,3,6-7H2,1-2H3/t8-/m1/s1
