18
gdb 30138	3.73507	1.06078	1.02743	2.428	79.01	-0.2056	0.04	0.2456	1235.5617	0.14867	-401.968112	-401.959912	-401.958967	-402.001342	31.143	
C	-0.0841102338	 1.5009594718	-0.2490850084	-0.424336
C	-0.0380401629	 0.0218695701	 0.0216130801	 0.089812
O	 1.2349227256	-0.6279610692	-0.061675409	-0.261367
C	 0.5938701903	-0.5818146566	 1.2193998788	-0.083146
C	 1.2735308303	 0.1831328335	 2.2855206892	 0.28054
C	 2.4418977576	 0.903932928	 2.1562768134	-0.172583
N	 2.7431122226	 1.4390694647	 3.3819940682	-0.240891
C	 1.7906122692	 1.0730209405	 4.2984067276	-0.066575
C	 0.8660438614	 0.28997141	 3.6499756351	-0.26849
H	 0.6680132114	 2.0317018725	 0.3383286442	 0.130207
H	 0.0939857841	 1.7008563031	-1.3110799817	 0.123272
H	-1.0721699337	 1.8994765677	 0.0060976848	 0.11774
H	-0.8437269577	-0.5545565489	-0.4396227334	 0.083007
H	 0.18584098	-1.5427306835	 1.5412916174	 0.086009
H	 3.0792637042	 1.0450410351	 1.2997428056	 0.13299
H	 3.5517907752	 2.0006748099	 3.5815141273	 0.262416
H	 1.8509526254	 1.3973868487	 5.3247355911	 0.119931
H	-0.0095539092	-0.1572695876	 4.0958007899	 0.091463
56.5948	120.7802	163.8465	206.1157	279.2899	384.3808	427.4575	481.9126	519.9599	637.9173	654.3473	694.1361	725.263	786.5238	795.995	827.4915	862.1105	905.6291	958.3783	986.8291	1028.9794	1082.7155	1092.1561	1095.4366	1158.4827	1161.052	1172.9836	1244.6889	1274.4343	1306.977	1383.9364	1403.4989	1426.7474	1456.9558	1468.4616	1489.8753	1497.2772	1527.6694	1610.4285	3036.4681	3070.4894	3083.6922	3097.618	3132.9329	3243.093	3269.4723	3280.0143	3687.2551
CC1OC1C1=CNC=C1	C[C@H]1O[C@H]1c1c[nH]cc1	
InChI=1S/C7H9NO/c1-5-7(9-5)6-2-3-8-4-6/h2-5,7-8H,1H3	InChI=1S/C7H9NO/c1-5-7(9-5)6-2-3-8-4-6/h2-5,7-8H,1H3/t5-,7-/m1/s1
