13
gdb 25460	2.73698	1.40421	0.92806	1.604	69.97	-0.2696	-0.0904	0.1792	1139.2021	0.089792	-452.803717	-452.796185	-452.795241	-452.83633	26.271	
O	-0.0278439707	-0.057281879	-0.001777925	-0.262557
C	-0.030741878	 1.1417292125	 0.0079958007	 0.177669
N	 1.1474554506	 1.9077116962	 0.0005366298	-0.147016
C	 2.419088645	 1.379738523	-0.0183098833	 0.052555
N	 3.3431186986	 2.3065049936	-0.0212969627	-0.261955
C	 2.6651426839	 3.5010339176	-0.0039586999	-0.107773
C	 1.3044898161	 3.3073440372	 0.0099735985	 0.185433
C	 0.2344399162	 4.2981588263	 0.030019354	 0.08063
O	 0.4428095076	 5.4909282784	 0.0370340778	-0.259761
H	-0.942654739	 1.7580165143	 0.0234246758	 0.124712
H	 2.5734854502	 0.3121530888	-0.0286566768	 0.180074
H	 3.1776835036	 4.4505474312	-0.0021562268	 0.160508
H	-0.8042083641	 3.90368032	 0.038239268	 0.077481
112.9509	156.6913	171.4735	176.1989	249.7353	279.9722	433.1577	563.4068	631.2883	659.3212	763.1794	840.129	884.5986	919.9041	941.2885	1017.5297	1031.5443	1135.8205	1166.7475	1239.4276	1290.134	1316.841	1389.2016	1428.7622	1476.3172	1478.848	1584.0803	1781.1198	1832.4587	2890.3873	3025.4781	3268.4225	3277.6217
O=CN1C=NC=C1C=O	O=Cn1cncc1C=O	
InChI=1S/C5H4N2O2/c8-2-5-1-6-3-7(5)4-9/h1-4H	InChI=1S/C5H4N2O2/c8-2-5-1-6-3-7(5)4-9/h1-4H
