23
gdb 59299	2.2103	1.46801	0.97813	1.3046	86.87	-0.2337	0.023	0.2567	1286.4345	0.205425	-388.305409	-388.295706	-388.294762	-388.339613	37.419	
C	-0.0573258319	 1.5737571389	-0.2366212524	-0.408106
C	-0.0251519337	 0.0438575329	-0.2015040273	 0.130456
O	 0.9941480358	-0.4053596113	 0.6905608561	-0.428601
C	-1.396407687	-0.5842135224	 0.1508472343	-0.063443
C	-2.5152814954	-0.0428975113	-0.7187478107	-0.073198
C	-2.9343124307	-0.9329843263	-1.6169598488	-0.077242
C	-2.2095719404	-2.248054078	-1.480720475	-0.257855
C	-1.5274444933	-2.1274502358	-0.0919087226	 0.022951
C	-0.2835562664	-3.0020751653	 0.0648430372	-0.392027
H	 0.9549088151	 1.9577618463	-0.3890762752	 0.121861
H	-0.6963898272	 1.9489590621	-1.0404473922	 0.121016
H	-0.4367709297	 1.9785115405	 0.7110400629	 0.102094
H	 0.2898586083	-0.3236249946	-1.1854752818	 0.089567
H	 0.7722539977	-0.0769771156	 1.5691250815	 0.273021
H	-1.5706951939	-0.3516821399	 1.2131218227	 0.052091
H	-2.885044766	 0.9724666601	-0.6302339256	 0.090911
H	-3.6926513407	-0.7501378395	-2.3708265137	 0.090282
H	-2.8759596029	-3.1167753598	-1.5357549104	 0.099487
H	-1.4723101507	-2.3784131947	-2.2872610755	 0.101458
H	-2.2698311279	-2.4693894401	 0.6405693422	 0.074575
H	 0.4999232041	-2.7346780412	-0.6499964484	 0.119537
H	 0.1505843857	-2.9184717291	 1.0635237609	 0.112583
H	-0.547227159	-4.0518599057	-0.1083307981	 0.098582
73.1594	97.9694	189.5884	228.0165	244.5716	253.5041	279.313	308.718	363.9945	384.8478	457.4402	478.6251	531.6822	621.1302	734.3274	773.8991	811.9061	871.2978	914.9201	932.2796	955.1399	979.8759	983.9128	1006.9885	1033.5557	1070.5283	1093.3368	1113.1952	1131.3638	1138.6531	1172.0617	1192.4602	1235.4581	1271.8687	1303.877	1329.6213	1344.7658	1369.6152	1372.9583	1377.4997	1398.1452	1415.9862	1420.3611	1484.9121	1490.5959	1493.2783	1495.0351	1500.093	1685.6641	2973.0261	2996.1194	3015.8405	3020.9836	3034.6942	3044.4894	3052.7047	3097.2602	3099.0807	3122.9864	3124.1886	3178.0978	3204.1352	3795.4258
CC(O)C1C=CCC1C	C[C@@H](O)[C@H]1C=CC[C@H]1C	
InChI=1S/C8H14O/c1-6-4-3-5-8(6)7(2)9/h3,5-9H,4H2,1-2H3	InChI=1S/C8H14O/c1-6-4-3-5-8(6)7(2)9/h3,5-9H,4H2,1-2H3/t6-,7-,8+/m1/s1
