19
gdb 85745	3.16686	1.24097	1.04209	4.624	79.66	-0.2452	0.0298	0.275	1191.1196	0.161098	-382.077238	-382.069025	-382.068081	-382.109955	31.803	
C	 0.1498362196	 1.5432651153	-0.1274567083	-0.395226
C	 0.1038002747	 0.0247110137	 0.02001482	 0.043346
N	 0.8029507613	-0.6358950789	-1.0944978576	-0.319315
C	 1.1471028453	-1.9972925323	-0.6749855814	-0.136669
C	 2.2497134095	-2.5356084974	-1.488411755	 0.289278
N	 3.1004605613	-2.9845152717	-2.1283464481	-0.327605
C	 1.4828699707	-1.8314044745	 0.8069221578	-0.036997
C	 2.325754758	-0.6385027188	 1.1745062729	-0.287583
C	 0.8214627415	-0.5445846526	 1.2377819775	-0.038462
H	 1.1843009264	 1.8956920076	-0.151408669	 0.129653
H	-0.3415947401	 1.8621972006	-1.0528484696	 0.113032
H	-0.3680616784	 2.0260751106	 0.7072896864	 0.115475
H	-0.9537001663	-0.2911275803	 0.0883747183	 0.062773
H	 0.2876599308	-0.61177314	-1.9654937796	 0.231943
H	 0.3096641924	-2.7128863264	-0.756479766	 0.105953
H	 1.494476029	-2.722180398	 1.4216963864	 0.10211
H	 2.8562091416	-0.6931991092	 2.1182651354	 0.116491
H	 2.8518533887	-0.1153695108	 0.3841560108	 0.140133
H	 0.3323729741	-0.460205627	 2.2008707191	 0.091671
96.4433	135.0778	185.0007	224.8576	284.2817	335.4567	377.8051	471.9885	529.9796	553.4217	606.2924	623.7192	778.9272	795.854	842.2724	849.3961	922.898	953.5153	978.1716	1011.1209	1034.083	1049.7311	1079.0477	1085.5272	1106.5663	1111.3269	1141.7353	1161.3631	1201.831	1270.6822	1325.4961	1345.9554	1354.1126	1376.052	1401.9483	1410.8725	1435.5469	1478.3728	1493.4837	1495.6903	2360.2751	2921.0786	2939.0107	3037.1371	3102.0239	3123.7466	3142.0663	3181.9505	3196.744	3230.5695	3563.3047
CC1NC(C#N)C2CC12	C[C@H]1N[C@@H](C#N)[C@H]2C[C@@H]12	
InChI=1S/C7H10N2/c1-4-5-2-6(5)7(3-8)9-4/h4-7,9H,2H2,1H3	InChI=1S/C7H10N2/c1-4-5-2-6(5)7(3-8)9-4/h4-7,9H,2H2,1H3/t4-,5+,6+,7+/m1/s1
