20
gdb 41227	3.28698	1.81889	1.68187	1.7272	80.56	-0.2309	0.0868	0.3176	903.1288	0.175863	-365.969741	-365.963645	-365.9627	-365.999669	27.319	
C	-0.0067297943	 1.5512998475	 0.3098564094	-0.293289
C	 1.510986373	 1.4704731815	-0.1083288668	-0.335946
C	 1.1308607998	 0.231948061	-0.9549992854	 0.294428
C	 1.5828416444	-1.2084968747	-1.2220810558	-0.336901
C	 0.1771593148	-1.6781175557	-1.677850583	-0.026893
C	-0.8938903872	-0.8488667373	-1.0004159501	-0.104977
C	-0.0971005608	 0.0323487258	-0.0556553736	 0.040808
N	-0.5065572627	-0.5772079104	-2.4033181802	-0.121743
C	 0.4474874926	 0.5474393782	-2.3078628613	-0.185084
H	-0.2166156416	 1.8057428547	 1.3504776112	 0.098918
H	-0.5873305993	 2.2134846955	-0.333825863	 0.114424
H	 1.943401121	 2.3259353945	-0.6334720792	 0.099238
H	 2.1453889039	 1.2263745379	 0.7480896132	 0.106441
H	 2.3279974429	-1.3359458389	-2.01417355	 0.098648
H	 1.9252400609	-1.7311695936	-0.3242008634	 0.099982
H	 0.000306684	-2.6849630766	-2.0373631197	 0.089768
H	-1.8962727132	-1.2228391921	-0.8285663583	 0.084371
H	 0.1686079614	-0.5415959471	 0.8399698506	 0.07751
H	-0.0901937019	 1.4977873417	-2.3373696706	 0.102141
H	 1.1503467724	 0.5192492481	-3.1473838141	 0.098155
282.8272	287.7142	371.7948	442.2337	487.8721	552.9019	646.3291	678.1905	720.2957	780.7375	799.5204	807.9466	856.7014	866.1733	901.0521	911.4096	934.3915	972.7393	978.6423	1005.6194	1015.3964	1056.3741	1074.2324	1102.4335	1108.4519	1127.0177	1169.9889	1173.1714	1203.6569	1213.2619	1227.8768	1243.0374	1244.3946	1269.5237	1276.1556	1302.2362	1313.3622	1353.1539	1373.1811	1481.1993	1490.9124	1496.096	1518.443	3033.3049	3044.8614	3051.0243	3058.0791	3079.2469	3096.6715	3104.7533	3106.8514	3136.9678	3177.5681	3187.1477
C1CC23CC4C(C12)N4C3	C1C[C@@]23C[C@H]4[C@@H]([C@H]12)N4C3	
InChI=1S/C8H11N/c1-2-8-3-6-7(5(1)8)9(6)4-8/h5-7H,1-4H2	InChI=1S/C8H11N/c1-2-8-3-6-7(5(1)8)9(6)4-8/h5-7H,1-4H2/t5-,6-,7+,8-,9?/m0/s1
