14
gdb 125348	3.36559	1.79016	1.17714	0.2957	70.	-0.2207	-0.0322	0.1885	967.7441	0.103723	-429.037752	-429.030834	-429.02989	-429.069081	25.951	
C	-0.0271147873	 1.5097684776	 0.093605317	-0.494102
C	-0.009853235	 0.0266463972	-0.0115261786	 0.249686
C	-0.0421787235	-0.8537038511	-1.0749357474	-0.151863
N	-0.0062696095	-2.1942031678	-0.7061107817	-0.396663
C	 0.0480317508	-2.1095382239	 0.5970697078	 0.539999
N	 0.1077494116	-2.8522566978	 1.7370781601	-0.362971
N	 0.1412494752	-2.036210761	 2.8248465901	-0.068386
N	 0.1065800541	-0.8115371176	 2.4404800229	-0.14353
N	 0.0495409827	-0.8287848451	 1.0804823933	-0.015534
H	 0.8719620358	 1.8957439707	 0.5877259015	 0.142112
H	-0.0759848222	 1.9451766913	-0.9070501702	 0.140623
H	-0.8919439748	 1.8699763697	 0.6626388794	 0.142104
H	-0.0908645484	-0.5804246968	-2.1193674957	 0.117897
H	 0.1268618406	-3.8491571954	 1.8627271315	 0.300627
139.3108	186.9385	233.8014	241.2286	360.6227	429.8705	534.2968	622.2082	625.418	680.6289	716.3753	745.8408	824.15	858.765	999.1931	1026.6319	1051.1209	1068.8268	1130.514	1184.3615	1237.6226	1273.1664	1313.998	1363.5734	1419.623	1427.1248	1442.75	1475.3572	1497.2801	1587.1959	1659.7818	3028.6172	3077.3146	3126.6977	3240.7176	3698.4295
CC1=CN=C2NN=NN12	Cc1cnc2[nH]nnn12	
InChI=1S/C4H5N5/c1-3-2-5-4-6-7-8-9(3)4/h2H,1H3,(H,5,6,8)	InChI=1S/C4H5N5/c1-3-2-5-4-6-7-8-9(3)4/h2H,1H3,(H,5,6,8)
