19
gdb 6778	7.47448	0.70993	0.65944	2.5774	69.69	-0.2467	0.0323	0.279	1688.8154	0.162961	-402.232238	-402.221922	-402.220978	-402.269877	34.384	
C	 0.0355862425	 1.5336523958	-0.0766861515	-0.384892
C	 0.0059570602	 0.0151436895	-0.0331009894	-0.027846
O	 0.6772262206	-0.4823719626	-1.1722926148	-0.251068
C	 0.7070287858	-1.8925379604	-1.2250140466	-0.04533
C	 1.4583571993	-2.2927720824	-2.4865091747	-0.331951
C	 1.577567005	-3.806280334	-2.6248532557	 0.413147
N	 2.0905045572	-4.2304774089	-3.8180381005	-0.525296
O	 1.239164971	-4.5820567611	-1.7510961603	-0.358029
H	 1.0671167624	 1.8974590641	-0.0791916889	 0.124486
H	-0.4588407088	 1.9013996029	-0.9804197512	 0.124309
H	-0.4779514657	 1.9508757241	 0.7946660633	 0.114065
H	 0.4908133229	-0.3555928276	 0.8860506764	 0.086256
H	-1.0346748511	-0.3513457473	-0.0145578169	 0.085617
H	 1.2059025975	-2.3132771309	-0.33964463	 0.106062
H	-0.3126421137	-2.3079071049	-1.2409956599	 0.099359
H	 0.9579685646	-1.8738027932	-3.3673364884	 0.123687
H	 2.4633167528	-1.8527233944	-2.465774039	 0.129864
H	 2.4472201744	-3.5905798855	-4.5056934922	 0.257821
H	 2.265980223	-5.2147719632	-3.9357769997	 0.25974
14.2685	51.2739	99.1323	103.2414	136.9788	141.9835	227.8145	248.0782	324.1683	428.8054	502.4879	507.2872	619.5712	640.3968	813.7628	823.6763	851.2464	910.0008	1037.914	1069.8493	1081.9634	1100.4709	1149.5455	1170.2618	1185.2253	1221.5959	1257.7931	1296.1226	1302.4183	1372.4693	1396.763	1411.282	1452.4075	1472.1272	1483.5964	1499.8287	1515.4586	1535.9379	1617.4472	1794.1895	2952.4612	2976.9964	2985.0875	3016.3152	3034.776	3043.5898	3074.7954	3118.2049	3119.2691	3602.3615	3738.8172
CCOCCC(N)=O	CCOCCC(=O)N	
InChI=1S/C5H11NO2/c1-2-8-4-3-5(6)7/h2-4H2,1H3,(H2,6,7)	InChI=1S/C5H11NO2/c1-2-8-4-3-5(6)7/h2-4H2,1H3,(H2,6,7)
