23
gdb 53946	2.44409	1.21268	1.09907	2.4717	85.23	-0.2362	-0.008	0.2282	1284.0973	0.202701	-388.302002	-388.291405	-388.290461	-388.337753	39.59	
C	-0.4269593871	 1.422164894	 0.0728814571	-0.487915
C	 0.0000481291	-0.0370289607	 0.0147652653	 0.38718
O	 0.3423146928	-0.6128566916	 1.0223532442	-0.310606
C	 0.0360081822	-0.7432564868	-1.3650056071	 0.117759
C	-1.0767964382	-0.2255433096	-2.2929270575	-0.450444
C	 1.4168374014	-0.3978409602	-1.9812011233	-0.407629
C	-0.0226122159	-2.2539479174	-1.1320610631	 0.046742
C	-1.2814514226	-3.0772631806	-1.2200868894	-0.284195
C	-0.1879718306	-3.2526757131	-2.2476737724	-0.295996
H	 0.0796600904	 2.0257056809	-0.6863856282	 0.13561
H	-1.5023311221	 1.5090396987	-0.1170815592	 0.143909
H	-0.2080912844	 1.8145860806	 1.0665373633	 0.140424
H	-0.9326106689	 0.8307422718	-2.5344494515	 0.116052
H	-1.0728123586	-0.7717654752	-3.2409767743	 0.122679
H	-2.0699813609	-0.3347778943	-1.8478265026	 0.122639
H	 2.2280344541	-0.7675338596	-1.3473843499	 0.129483
H	 1.5101248704	-0.8698250405	-2.9639460533	 0.122112
H	 1.5488110315	 0.6814610142	-2.1110742213	 0.109717
H	 0.6539603238	-2.5545971954	-0.3403435209	 0.105229
H	-1.4311199893	-3.8549271477	-0.4794182857	 0.113132
H	-2.1993653362	-2.6038825772	-1.54989536	 0.106892
H	-0.3856643549	-2.8923356039	-3.2521040822	 0.106654
H	 0.4160844039	-4.1531417764	-2.219990168	 0.110572
36.8981	67.2345	164.8649	186.8746	214.5756	237.9919	246.8565	273.	316.136	344.4139	362.272	438.3272	464.5189	570.2772	606.4893	653.8083	772.4449	794.3967	834.6132	900.4638	931.3043	942.3585	959.9926	969.9995	1010.8213	1037.3103	1059.7164	1080.9076	1092.0834	1130.8935	1152.5253	1169.4139	1199.5973	1228.1261	1254.2888	1282.9251	1377.0151	1392.089	1394.7553	1424.8556	1458.8287	1468.4756	1476.5473	1487.292	1490.0907	1503.4286	1511.9079	1514.0063	1799.3309	3032.0156	3041.3003	3045.4289	3100.4325	3105.8193	3109.6374	3114.274	3116.137	3129.4415	3139.1461	3152.2829	3174.0241	3205.0142	3223.374
CC(=O)C(C)(C)C1CC1	CC(=O)C(C)(C)C1CC1	
InChI=1S/C8H14O/c1-6(9)8(2,3)7-4-5-7/h7H,4-5H2,1-3H3	InChI=1S/C8H14O/c1-6(9)8(2,3)7-4-5-7/h7H,4-5H2,1-3H3
