14
gdb 24832	2.75143	1.73259	1.06313	3.4664	75.62	-0.2583	-0.0656	0.1927	1038.1139	0.10358	-432.874587	-432.867363	-432.866418	-432.908004	26.675	
N	-0.0995715721	 1.0409203956	-0.9495419555	-0.471291
C	-0.0174811904	 0.0213714719	-0.1836285642	 0.218743
C	-1.2625885855	-0.5172829874	 0.3504893067	-0.126752
C	-1.5104469504	-1.5495744018	 1.1591998653	 0.036606
O	-0.6557712826	-2.4370359403	 1.7470573139	-0.195763
C	 0.6904936666	-2.4357495596	 1.6113452797	 0.141286
N	 1.5080951991	-1.7099962678	 0.9783918212	-0.335694
C	 1.3285790697	-0.597316997	 0.1509729109	 0.291357
N	 2.3463511944	-0.0391147931	-0.3755341754	-0.464823
H	 0.8489365486	 1.300270653	-1.2418327581	 0.248317
H	-2.1376132651	 0.0324880275	 0.0209940587	 0.132116
H	-2.5222778267	-1.801025718	 1.4518342049	 0.143516
H	 1.0726167454	-3.2654032472	 2.2030941218	 0.146554
H	 3.1910157791	-0.5339616658	-0.0843604199	 0.235827
15.182	111.9546	338.6988	348.6465	386.8064	403.9143	440.6573	524.4812	580.1083	660.11	769.9039	792.6812	857.9248	867.8148	941.792	947.1576	970.739	985.7379	1000.6447	1004.4333	1115.3837	1191.3926	1295.2211	1358.5693	1392.0297	1442.0832	1464.7312	1653.9498	1684.159	1699.7082	1742.5425	3162.3507	3195.0157	3222.544	3418.9665	3478.1314
N=C1C=COC=NC1=N	[NH]C1=C(N=COC=C1)[NH]	
InChI=1S/C5H5N3O/c6-4-1-2-9-3-8-5(4)7/h1-3,6-7H	InChI=1S/C5H5N3O/c6-4-1-2-9-3-8-5(4)7/h1-3,6-7H
