16
gdb 19268	3.27089	1.80367	1.32038	4.3511	65.87	-0.2195	-0.0209	0.1986	940.1193	0.130658	-379.869811	-379.862178	-379.861234	-379.902021	27.951	
C	 0.165877069	 1.1852133386	-0.6197178412	-0.317889
N	-0.1444184751	 0.2993076098	 0.4966831874	-0.276563
C	-1.3965382356	-0.3865920843	 0.3805665961	-0.086846
C	-1.5665655998	-1.6193471702	-0.5562148974	-0.067109
N	-0.5956832063	-2.5977484789	-0.0573442653	-0.339527
C	-1.9568918442	-2.5098808463	 0.5887276062	-0.18998
C	-1.8354166252	-1.346433904	 1.5473909543	 0.429505
O	-2.1121361449	-1.1721828734	 2.6954631518	-0.301706
H	 1.1406483221	 1.6517330735	-0.4513360848	 0.124425
H	 0.1905110987	 0.6896558937	-1.6057309775	 0.096426
H	-0.5819695598	 1.9848799178	-0.6673136815	 0.123057
H	 0.593055155	-0.3870239414	 0.6200378375	 0.234803
H	-2.2059075086	 0.3385216065	 0.2252283593	 0.10428
H	-1.9492198683	-1.6534543944	-1.5682453665	 0.107468
H	-0.6245482234	-3.4199721405	-0.6599006424	 0.242269
H	-2.6062920837	-3.3747546464	 0.6233465642	 0.117388
90.7744	126.7278	175.9576	205.151	274.8736	307.801	519.4514	560.9123	621.7019	682.1825	776.5613	803.7196	829.0259	853.9668	898.1198	951.3066	989.0738	1025.088	1051.5105	1091.9985	1098.5618	1132.9739	1159.9378	1178.7622	1228.1496	1276.1787	1308.6468	1336.0561	1351.1065	1458.1195	1489.1145	1501.7852	1524.4815	1903.1232	2953.4749	3040.0075	3057.6711	3106.0925	3197.418	3212.0555	3475.1454	3527.6849
CNC1C2NC2C1=O	CN[C@H]1[C@H]2N[C@H]2C1=O	
InChI=1S/C5H8N2O/c1-6-3-2-4(7-2)5(3)8/h2-4,6-7H,1H3	InChI=1S/C5H8N2O/c1-6-3-2-4(7-2)5(3)8/h2-4,6-7H,1H3/t2-,3+,4-/m1/s1
