17
gdb 81201	2.93808	1.35881	0.99236	3.7784	76.84	-0.2491	-0.0632	0.1859	1170.3585	0.135388	-421.885646	-421.877358	-421.876414	-421.918861	30.965	
C	 0.9281727449	 1.514829788	-0.2917469706	-0.402846
C	 0.151282038	 0.2705779047	 0.1518698806	-0.148294
C	 0.1235102578	-0.8076038436	-0.9055636231	-0.038364
O	 1.4718526851	 0.2805366904	 2.1635105346	-0.297288
C	 0.6715186759	-0.3025839534	 1.4755360604	 0.370093
C	 0.1126495384	-1.6660160514	 1.8364477281	-0.413605
C	 0.2362034959	-2.6837446779	 0.6955411637	 0.37391
O	 0.3707401824	-3.8672776925	 0.915037342	-0.320004
C	 0.1644638281	-2.1248210782	-0.6685466005	-0.17096
H	 1.9726441094	 1.2671218419	-0.4999505867	 0.135954
H	 0.4854404116	 1.9406539986	-1.1968940096	 0.115035
H	 0.918180205	 2.2709968868	 0.4948141873	 0.141595
H	-0.895455837	 0.5629286487	 0.3447557453	 0.122897
H	 0.086469249	-0.4519474316	-1.9332088133	 0.119196
H	 0.5808704801	-2.0547680598	 2.7413408297	 0.148494
H	-0.964268114	-1.5457044073	 2.0266404701	 0.147237
H	 0.1647025495	-2.8490306734	-1.476586268	 0.116952
66.0842	102.1471	191.5449	241.064	275.0333	356.27	394.8571	417.2219	476.5474	580.9774	596.1727	606.6817	688.5163	760.1336	823.8989	852.991	923.2317	930.3527	1015.3687	1038.1884	1069.0064	1100.8544	1139.7626	1154.811	1201.3251	1255.41	1262.2386	1285.36	1320.8918	1398.3121	1415.791	1434.9071	1489.6754	1496.1331	1675.1684	1783.332	1829.0686	2964.7686	3017.9927	3050.8134	3120.5158	3136.8761	3142.3799	3151.4071	3194.3505
CC1C2OC11CC(=O)C21	C[C@H]1C=CC(=O)CC1=O	
InChI=1S/C7H8O2/c1-3-6-5-4(8)2-7(3,5)9-6/h3,5-6H,2H2,1H3	InChI=1S/C7H8O2/c1-5-2-3-6(8)4-7(5)9/h2-3,5H,4H2,1H3/t5-/m0/s1
