15
gdb 42709	3.31504	1.9017	1.80214	3.9804	66.8	-0.2398	-0.0183	0.2215	804.7171	0.114271	-420.559896	-420.554157	-420.553213	-420.589887	24.151	
O	 0.0015553875	 0.0448966729	 0.0763279365	-0.321699
C	-0.014198576	 1.2405524346	 0.0779416015	 0.480167
C	-1.1155622777	 2.2964562011	-0.0293266317	-0.231949
C	-1.0305223621	 3.2374769243	 1.2546380885	 0.102159
O	-0.0038898857	 2.7941337278	 2.1643275988	-0.288933
C	 0.9833870514	 3.2640514403	 1.2248991707	 0.102159
C	-0.0466189216	 4.1818843288	 0.5107893377	-0.104783
C	-0.0523902214	 3.2383637139	-0.7231604079	-0.05493
C	 1.0552795464	 2.3251019847	-0.061382611	-0.231948
H	-2.1035236654	 2.0535581864	-0.4161980495	 0.090286
H	-1.9626709521	 3.5039477046	 1.7509773936	 0.097481
H	 1.9224278008	 3.5552130714	 1.6936076707	 0.097481
H	-0.06047558	 5.2684585888	 0.5434038366	 0.086903
H	-0.0714711205	 3.508060756	-1.7742822785	 0.087321
H	 2.0374527564	 2.1082004145	-0.4773467362	 0.090286
139.5176	353.222	422.5383	492.3168	573.3586	633.3675	741.3624	776.9106	803.9475	807.4643	823.8188	829.9008	871.5271	873.4843	916.0008	924.1301	944.9089	1010.5754	1010.9678	1072.7771	1074.8209	1102.6299	1141.681	1169.5905	1175.0748	1188.056	1201.1158	1209.6699	1252.6708	1275.7608	1292.483	1329.065	1888.4456	3121.8212	3122.8411	3137.7456	3138.3834	3146.725	3168.5748
O=C1C2C3OC4C3C2C14	O=C1[C@H]2[C@H]3O[C@@H]4[C@H]3[C@H]2[C@H]14	
InChI=1S/C7H6O2/c8-5-2-1-3(5)7-4(1)6(2)9-7/h1-4,6-7H	InChI=1S/C7H6O2/c8-5-2-1-3(5)7-4(1)6(2)9-7/h1-4,6-7H/t1-,2+,3-,4+,6-,7+
