18
gdb 16021	3.84954	1.88515	1.52679	0.1857	68.05	-0.2353	0.0915	0.3268	876.2474	0.155254	-384.920408	-384.913462	-384.912517	-384.951248	27.639	
C	 0.0121432606	 1.4992615905	-0.0134154803	-0.335283
C	 1.3224758654	 0.7315267391	-0.0338985697	-0.319202
C	-0.000201414	 0.0084485475	 0.0250922021	 0.438373
C	-0.4187566579	-0.748750131	 1.2635974045	-0.148116
O	 0.0290113446	-2.0968968959	 1.2068523854	-0.249499
C	-0.4398502604	-2.7331812376	 0.0292219873	-0.075951
C	 0.0124623214	-1.9683759759	-1.2103855595	-0.091894
O	-0.4444650702	-0.6202573379	-1.1523442972	-0.2939
H	-0.2609960423	 2.0431671613	 0.884747304	 0.113896
H	-0.311445197	 1.9573837653	-0.9410687415	 0.126424
H	 1.858652324	 0.6978862727	-0.9754275211	 0.11969
H	 1.9488542719	 0.7474940408	 0.8513563734	 0.115645
H	 0.0165857859	-0.3083552991	 2.1647736664	 0.105894
H	-1.518156326	-0.7220407112	 1.3524578255	 0.091616
H	-0.0327256418	-3.7489778653	 0.0331938907	 0.107312
H	-1.5411029604	-2.793631515	 0.0405399579	 0.092063
H	 1.1105964774	-1.993851318	-1.2805006666	 0.097277
H	-0.4119052812	-2.4057057103	-2.1191211216	 0.105656
133.4206	208.0363	275.349	321.1916	371.7052	422.2086	473.1883	509.9279	600.5457	745.8195	772.6987	861.2377	879.6227	895.181	937.3961	947.6882	982.4919	1027.1865	1045.6655	1063.8195	1078.8414	1110.8047	1132.5204	1141.1775	1186.6735	1238.184	1275.0054	1309.6856	1314.1406	1348.8874	1385.1795	1409.2754	1424.1025	1451.3118	1479.5932	1481.5489	1491.0904	1501.0462	2963.2073	2970.7149	2995.1283	3084.8786	3089.1221	3091.6506	3133.5779	3136.7838	3218.2788	3231.8709
C1CC11COCCO1	C1CC21COCCO2	
InChI=1S/C6H10O2/c1-2-6(1)5-7-3-4-8-6/h1-5H2	InChI=1S/C6H10O2/c1-2-6(1)5-7-3-4-8-6/h1-5H2
