23
gdb 42116	2.02772	1.68972	1.04986	0.3045	92.28	-0.2273	0.012	0.2393	1223.868	0.208756	-351.160992	-351.152555	-351.151611	-351.193461	34.322	
C	-0.0736250738	 1.6017760137	 0.0442556453	-0.189806
C	 1.3569585995	 2.1615459558	-0.045877686	-0.171267
C	 2.1908126008	 1.6551661218	-1.2650833667	-0.248455
C	 3.5210429617	 1.0632987653	-0.8637418943	-0.04333
C	 3.7253643924	-0.1870145187	-0.4435138412	-0.042142
C	 2.6538412788	-1.2547112903	-0.3123340852	-0.30857
C	 1.8870068905	-1.1335758864	 0.9888405442	-0.033441
C	 0.6875829971	-0.5726745297	 1.1585473271	-0.035705
C	-0.1721839662	 0.0563637397	 0.0938430584	-0.248565
H	-0.5464257836	 2.0192775733	 0.9427671819	 0.093049
H	-0.6706646085	 1.9546434992	-0.8068203947	 0.092808
H	 1.2983582559	 3.2553824422	-0.0681673083	 0.090495
H	 1.8885473341	 1.9025470846	 0.8740960104	 0.11125
H	 1.6098939206	 0.9129315093	-1.8222679967	 0.100421
H	 2.3580944476	 2.4817627499	-1.9628525274	 0.095613
H	 4.3717502229	 1.7423608487	-0.877002361	 0.083036
H	 4.7274727824	-0.4723952339	-0.1306530011	 0.08285
H	 1.9668283588	-1.1955576437	-1.1614289753	 0.109104
H	 3.124561366	-2.2432917755	-0.3614749251	 0.100787
H	 2.4084279539	-1.5085211039	 1.8678401615	 0.083425
H	 0.2919032889	-0.5187839102	 2.1722486458	 0.079262
H	-1.2220510944	-0.2099348656	 0.2684305066	 0.097681
H	 0.0792771344	-0.3545000156	-0.8881475781	 0.1015
153.0313	173.3474	190.7015	207.546	291.3213	320.6704	362.6288	431.0972	498.5549	522.5315	558.0743	623.8835	730.7573	734.9265	753.6714	830.3738	857.7288	897.6658	933.0775	968.2393	969.9789	997.0467	1011.9924	1018.6663	1040.1397	1051.168	1087.9711	1097.0554	1183.988	1201.6636	1220.3618	1248.412	1282.0445	1292.2905	1308.2685	1309.0639	1326.337	1351.9767	1376.0251	1382.8974	1412.9927	1427.8839	1477.9666	1482.5038	1488.5273	1494.3247	1514.8072	1711.8146	1719.7378	3012.1016	3031.1893	3037.3927	3039.5772	3045.0322	3049.4717	3072.6473	3078.4001	3088.2233	3091.6257	3122.4193	3131.2743	3149.0517	3157.2396
C1CCC=CCC=CC1	C1CCC=CCC=CC1	
InChI=1S/C9H14/c1-2-4-6-8-9-7-5-3-1/h1-2,5,7H,3-4,6,8-9H2/b2-1-,7-5-	InChI=1S/C9H14/c1-2-4-6-8-9-7-5-3-1/h1-2,5,7H,3-4,6,8-9H2/b2-1-,7-5-
