19
gdb 117383	3.19482	0.82775	0.73693	3.2313	72.54	-0.2413	-0.0231	0.2182	1580.9299	0.155907	-460.136168	-460.126132	-460.125188	-460.173218	34.339	
C	-0.4513205194	 0.6001736211	-1.0869251442	-0.241594
O	 0.8810715532	 0.1544917695	-1.2435319757	-0.219394
C	 1.3240540158	-0.6657020981	-0.1878949356	-0.176737
C	 0.8879097314	-2.1327376125	-0.2929226467	 0.351531
O	 0.7627079496	-2.8094616983	 0.7001162749	-0.294363
C	 0.6660080204	-2.6849452652	-1.6987565407	-0.341779
C	 0.8330717554	-4.1828996641	-1.7629872862	 0.110663
C	 1.1533865084	-4.8647337543	-3.0213689101	-0.18749
O	 2.1570717681	-4.6549440742	-2.026908901	-0.23416
H	-1.1713179216	-0.2318704425	-1.0593090199	 0.108866
H	-0.5711956188	 1.1881012202	-0.1650966577	 0.117806
H	-0.6807472175	 1.2339084514	-1.9463073747	 0.135746
H	 2.4217663025	-0.6633524112	-0.2270011166	 0.139976
H	 1.023337611	-0.2834974197	 0.7975459684	 0.118587
H	-0.3566017401	-2.4083221313	-1.9949008095	 0.134133
H	 1.3311610401	-2.1870124967	-2.410032616	 0.136609
H	 0.3114624898	-4.7374339568	-0.9851935197	 0.113578
H	 0.8477047482	-5.8994926499	-3.1700133927	 0.116652
H	 1.2717663234	-4.2823956473	-3.9348689062	 0.11137
31.6824	52.3813	75.1099	113.5961	144.3502	184.0136	244.9487	360.4307	391.5965	399.8494	442.6498	521.7027	606.9555	780.2364	808.103	845.5857	885.2332	962.3526	968.7755	1013.2837	1086.7418	1106.7963	1131.937	1158.7707	1162.0891	1173.3906	1184.8033	1216.9656	1232.1322	1296.8904	1299.9376	1329.8125	1363.4184	1427.9329	1446.9882	1456.6758	1484.5903	1489.6525	1507.5884	1532.1989	1814.2457	2980.8789	3007.8829	3017.0514	3031.8136	3058.2527	3080.1173	3096.8006	3123.3571	3136.4611	3166.2006
COCC(=O)CC1CO1	COCC(=O)C[C@H]1CO1	
InChI=1S/C6H10O3/c1-8-3-5(7)2-6-4-9-6/h6H,2-4H2,1H3	InChI=1S/C6H10O3/c1-8-3-5(7)2-6-4-9-6/h6H,2-4H2,1H3/t6-/m0/s1
