23
gdb 80383	2.10304	1.58592	1.34559	1.3721	85.51	-0.2394	0.0764	0.3157	1138.8509	0.203984	-388.269724	-388.259894	-388.258949	-388.303119	38.719	
C	-0.126728213	 1.5416970028	-0.0039795011	-0.501687
C	-0.0004275011	 0.0408514876	-0.0233171875	 0.28816
C	-0.8438133389	-0.8104481501	 0.8757022104	 0.044239
O	-1.6683480551	-1.8386272748	 0.3929144548	-0.419632
C	 0.6427633188	-0.9360642827	 1.0030856873	-0.170828
C	 1.1838336203	-1.8033381051	-0.1381302039	-0.279896
C	 0.6415298639	-0.7689532006	-1.1868407307	 0.287651
C	-0.2914516372	-1.284968293	-2.2846132268	-0.460507
C	 1.8092128482	 0.0019823581	-1.8129167039	-0.439042
H	 0.8172415118	 2.0377316711	-0.2510089944	 0.11857
H	-0.8786494716	 1.8827367026	-0.7265001405	 0.122336
H	-0.4382256887	 1.8979863612	 0.9833102341	 0.114376
H	-1.3070963587	-0.2314366403	 1.6770613578	 0.080256
H	-1.6579172693	-2.5518727726	 1.0403105429	 0.284527
H	 1.1612404899	-0.7206957481	 1.9314793295	 0.077256
H	 2.2727607946	-1.8861146863	-0.1518331849	 0.093742
H	 0.7531084976	-2.8074479007	-0.1970894805	 0.087181
H	-1.1122807814	-1.8671474124	-1.866740535	 0.141592
H	-0.7174006029	-0.4501959045	-2.8543851233	 0.103081
H	 0.2611422237	-1.9128186803	-2.9943472063	 0.100207
H	 2.3807097191	-0.6566344942	-2.4764465901	 0.108961
H	 1.4575214129	 0.8501430254	-2.410948873	 0.110131
H	 2.4953011173	 0.3884848567	-1.0516540849	 0.109326
147.6724	180.3153	197.2282	208.9958	237.4337	270.3498	279.0538	296.2628	299.1578	362.9535	387.3716	419.9488	532.0464	570.7504	631.4964	652.6905	764.6294	834.1471	862.8939	899.3184	936.1661	956.3388	974.48	991.9229	1006.7613	1038.1162	1042.904	1103.7838	1122.4212	1164.345	1175.6851	1234.8251	1237.3303	1252.411	1273.4772	1299.861	1316.585	1346.8573	1397.28	1411.9122	1420.8033	1462.6242	1482.6016	1484.236	1493.6233	1495.6671	1496.1631	1506.4354	1516.8607	3019.7275	3022.1152	3026.2448	3050.3296	3075.5209	3080.0245	3084.654	3089.2159	3093.1797	3099.6545	3105.6276	3153.0137	3162.031	3799.9664
CC12C(O)C1CC2(C)C	C[C@]12[C@@H](O)[C@H]1CC2(C)C	
InChI=1S/C8H14O/c1-7(2)4-5-6(9)8(5,7)3/h5-6,9H,4H2,1-3H3	InChI=1S/C8H14O/c1-7(2)4-5-6(9)8(5,7)3/h5-6,9H,4H2,1-3H3/t5-,6+,8-/m1/s1
