13
gdb 125483	5.96566	1.05311	0.90007	4.2435	75.54	-0.2599	-0.1012	0.1588	1205.2402	0.08957	-411.813525	-411.805867	-411.804923	-411.846379	26.947	
C	-0.0180656648	 1.4834362378	 0.0228000006	-0.459853
C	-0.0053496695	-0.0124954079	-0.0006693905	 0.4019
N	 0.143449441	-0.6222054666	-1.1899545046	-0.259807
C	 0.148804433	-1.9411360982	-1.1619313811	-0.040652
C	 0.0054798785	-2.626175247	 0.0531969761	 0.213466
N	-0.1394476614	-1.9634307864	 1.2073540068	-0.226899
N	-0.1446981178	-0.6431650757	 1.1781143678	-0.209629
C	 0.0091342892	-4.0583039159	 0.1016396101	 0.264077
N	 0.0183041956	-5.2146737824	 0.0899026134	-0.307975
H	 0.9162769794	 1.8718963632	-0.3944821886	 0.156285
H	-0.8294000437	 1.8604406657	-0.6077587487	 0.156279
H	-0.1450017434	 1.8450045689	 1.0427300976	 0.156186
H	 0.2666066738	-2.4766568856	-2.1005632889	 0.156623
69.5612	87.208	153.456	243.4415	357.9449	374.8307	453.913	458.5377	562.0034	598.4532	665.3769	723.7191	807.9139	864.083	982.9369	1002.6948	1068.1975	1069.78	1121.1454	1232.7937	1312.1609	1340.0946	1402.3121	1433.9403	1475.5248	1476.2059	1533.426	1593.4547	2355.3302	3051.2908	3109.4771	3165.7102	3169.8086
CC1=NC=C(N=N1)C#N	Cc1ncc(nn1)C#N	
InChI=1S/C5H4N4/c1-4-7-3-5(2-6)9-8-4/h3H,1H3	InChI=1S/C5H4N4/c1-4-7-3-5(2-6)9-8-4/h3H,1H3
