17
gdb 19620	4.68813	1.9749	1.81473	1.6841	71.39	-0.2316	0.079	0.3106	787.658	0.144117	-326.646678	-326.640562	-326.639617	-326.676564	25.213	
C	-0.0977087019	 1.5020690744	-0.0444152189	-0.347197
C	 1.2247204424	 0.7555300242	 0.0134234675	-0.342725
C	-0.0686028669	 0.006265704	-0.004107702	 0.44835
C	-0.5269852536	-0.9893076476	 1.0220224282	-0.144223
C	-1.7273721663	-1.6957521528	 0.4703706754	-0.04361
C	-2.0327030475	-1.1380057568	-0.9095194687	-0.238558
C	-0.4976251912	-1.0358323294	-1.0298694844	-0.108491
N	-0.3489518884	-2.1461129123	 0.0712207479	-0.158758
H	-0.4217855666	 2.0367283117	 0.8426057041	 0.114317
H	-0.3671839905	 1.9864499449	-0.977916631	 0.112758
H	 1.8405206966	 0.741121008	-0.8803404387	 0.114984
H	 1.7889610283	 0.7877730016	 0.9400967322	 0.116071
H	-0.2322737882	-1.0660008351	 2.0630790174	 0.092658
H	-2.3592701503	-2.3207728197	 1.0920937061	 0.094268
H	-2.4348528715	-1.9177738796	-1.5613800377	 0.109716
H	-2.6235213465	-0.2216152262	-1.0089875963	 0.098255
H	 0.0175158421	-1.1464886693	-1.982738241	 0.082186
170.3212	241.2782	274.0801	434.672	498.2091	587.2207	748.4612	766.8681	773.1117	805.0477	814.0391	882.9585	910.0562	925.5245	942.4574	966.1879	996.7702	1003.6999	1026.6491	1042.7835	1053.4705	1072.0944	1077.543	1122.7403	1144.233	1184.386	1189.0067	1232.2415	1247.1441	1284.3684	1290.0226	1356.1678	1432.0777	1463.2542	1492.9257	1514.2189	3044.8774	3106.1571	3122.1656	3125.8552	3131.7744	3168.4703	3180.1495	3199.8011	3214.3618
C1CC11C2C3CC1N23	C1CC21[C@H]1[C@H]3C[C@@H]2N13	
InChI=1S/C7H9N/c1-2-7(1)5-3-4-6(7)8(4)5/h4-6H,1-3H2	InChI=1S/C7H9N/c1-2-7(1)5-3-4-6(7)8(4)5/h4-6H,1-3H2/t4-,5+,6-,8?/m1/s1
