18
gdb 117428	5.9903	0.59943	0.5663	7.3567	77.39	-0.2665	0.008	0.2745	1920.1096	0.147199	-435.276373	-435.266485	-435.265541	-435.313182	34.048	
C	-0.0808804887	 1.3808490729	-0.1319803449	-0.319995
N	-0.2046026785	 0.0075347861	 0.3561021187	-0.313058
H	-1.0904939599	-0.099235698	 0.8409134556	 0.239532
H	 0.0580536369	-1.7616575997	-0.3844147359	 0.298958
C	 0.8849172638	-0.4298359452	 1.2321086739	-0.244265
C	 0.956678406	-1.9483022538	 1.2258603947	 0.400678
O	 0.4783893251	-2.5082572751	 0.0976939613	-0.397836
N	 1.4566965105	-2.5823626821	 2.2014826463	-0.3086
C	 1.5286344138	-4.0326078018	 2.0793316617	-0.289141
C	 1.5369985452	-4.6662804545	 3.4040815715	 0.272437
N	 1.5378965318	-5.192868228	 4.4319160109	-0.312288
H	 0.817067485	 1.4642834548	-0.7520965387	 0.13714
H	-0.9455878764	 1.6221610603	-0.7556620193	 0.133006
H	-0.0113660243	 2.1306417512	 0.6707240315	 0.117587
H	 1.822660231	-0.0456899256	 0.8114647668	 0.139446
H	 0.8237458211	-0.0735526202	 2.2669711312	 0.135869
H	 0.7003027119	-4.4578347347	 1.496867685	 0.155514
H	 2.4524434958	-4.3268863564	 1.5620495898	 0.155018
16.9394	62.7805	105.9906	140.4262	179.9706	243.7216	267.8562	290.1543	359.7797	380.569	415.5756	561.4945	617.5542	693.5293	762.2749	880.9803	897.4469	942.3051	967.5951	993.0438	1004.6592	1047.7544	1133.7848	1152.9769	1175.9322	1242.3644	1253.2149	1286.8941	1356.8435	1366.7106	1416.9864	1460.0565	1461.0344	1479.2262	1491.0546	1497.0289	1518.5784	1793.9674	2368.6319	2990.8316	3010.717	3030.5814	3043.0734	3071.4835	3078.0154	3119.0012	3466.8116	3514.788
C[NH2+]CC(=O)[N-]CC#N	CNCC(=NCC#N)O	
InChI=1S/C5H9N3O/c1-7-4-5(9)8-3-2-6/h7H,3-4H2,1H3,(H,8,9)	InChI=1S/C5H9N3O/c1-7-4-5(9)8-3-2-6/h7H,3-4H2,1H3,(H,8,9)
