16
gdb 94131	1.92158	1.62256	1.24688	4.5393	75.35	-0.2827	-0.0243	0.2584	1093.9434	0.121803	-400.699484	-400.690347	-400.689403	-400.734017	32.795	
C	-0.3989970063	 1.4169319531	-0.0153203889	-0.419303
C	 0.0549942502	-0.0286654583	-0.0897372062	-0.084257
C	 1.3986193631	-0.3409206103	-0.7786013806	-0.082753
O	 1.9264521924	-0.9738274852	 0.4126527417	-0.293133
C	 0.7421717682	-0.6689577703	 1.1826724063	 0.087853
C	 1.0088622967	 0.2154382216	 2.3098973429	 0.328022
C	 1.2308267815	 0.9577001132	 3.2275712444	-0.43591
C	 0.0806960075	-1.9004063346	 1.6505808322	 0.263925
N	-0.4631687446	-2.8640217524	 1.9830080419	-0.335279
H	 0.3954760331	 2.0672274589	 0.3602158118	 0.136536
H	-0.68735325	 1.7664300666	-1.0121426257	 0.127581
H	-1.2661409753	 1.5264661376	 0.642630709	 0.137
H	-0.7543048318	-0.6711746094	-0.440471797	 0.116737
H	 1.3628299545	-1.0370362243	-1.6221429599	 0.122326
H	 1.9893443565	 0.5400263365	-1.0556093235	 0.115769
H	 1.4314050542	 1.6036990472	 4.0472956114	 0.214885
33.5284	126.9714	141.44	162.0043	221.8393	236.1099	307.1808	381.4018	492.0783	495.1114	550.907	586.5942	589.6375	655.3601	683.3014	754.5975	897.468	926.039	976.9293	1003.4045	1019.2137	1063.8246	1136.6859	1147.6646	1158.8084	1207.2599	1282.3941	1339.2509	1378.1344	1414.805	1490.3223	1493.3116	1526.4988	2239.1722	2356.2291	3033.1005	3041.9205	3082.49	3099.0565	3110.0912	3126.2107	3497.0225
CC1COC1(C#C)C#N	C[C@H]1CO[C@]1(C#C)C#N	
InChI=1S/C7H7NO/c1-3-7(5-8)6(2)4-9-7/h1,6H,4H2,2H3	InChI=1S/C7H7NO/c1-3-7(5-8)6(2)4-9-7/h1,6H,4H2,2H3/t6-,7+/m0/s1
