23
gdb 101684	2.90879	0.7564	0.69536	3.0562	79.13	-0.2539	0.0619	0.3158	1743.3369	0.202647	-462.550729	-462.539357	-462.538413	-462.588014	40.567	
C	 0.0229379661	 1.3933694414	 0.10081026	-0.237339
O	-0.0643096429	-0.0056510254	-0.0402122306	-0.24691
C	 0.6173546053	-0.5358273785	-1.1720485492	 0.144084
C	 2.1254395379	-0.6349721157	-0.9286730751	-0.404757
C	-0.0112936791	-1.9043421621	-1.4455885276	-0.228211
C	-1.4782291386	-1.8219195174	-1.8626087197	 0.093184
O	-1.6485538598	-1.1077701385	-3.0979335821	-0.443117
C	-2.1466413716	-3.1916551488	-1.9915796247	-0.063595
O	-3.4771720285	-3.0658128586	-2.4432915845	-0.425709
H	 1.0482034151	 1.736071574	 0.3037443138	 0.104806
H	-0.3440861499	 1.9152179098	-0.7962822015	 0.109716
H	-0.6060709171	 1.6701064942	 0.9507586097	 0.127265
H	 0.42723519	 0.1141256913	-2.0410299474	 0.073979
H	 2.5626781589	 0.3451892382	-0.7182371975	 0.117798
H	 2.3315493501	-1.2911594752	-0.076887319	 0.122808
H	 2.6333444186	-1.0404646203	-1.8098265904	 0.112119
H	 0.565121456	-2.4196385107	-2.2265834349	 0.083596
H	 0.0727052268	-2.5124672352	-0.5362423244	 0.111274
H	-2.0279835793	-1.226394294	-1.1279395675	 0.114233
H	-1.0980402197	-1.541443753	-3.7617217255	 0.278705
H	-1.5467774339	-3.8222293219	-2.6760503452	 0.065087
H	-2.1702124461	-3.6983645775	-1.0203557571	 0.10772
H	-3.4547431984	-2.3547255661	-3.0973556195	 0.283262
48.3959	68.522	82.8621	128.7678	154.1428	199.9376	222.8217	256.8522	290.8398	327.7306	343.035	371.2011	450.0747	461.9174	516.8224	530.7519	595.1826	807.1299	851.3381	879.5455	930.0166	989.3645	1038.6991	1075.2452	1093.004	1103.7524	1120.3353	1138.4551	1172.1538	1181.7173	1188.9923	1214.7073	1251.3447	1271.4504	1318.7213	1345.0688	1377.7642	1389.9256	1400.9548	1406.9064	1425.9775	1446.5843	1463.5676	1479.4191	1482.9747	1494.3234	1501.8851	1507.1705	1512.7922	2917.6642	2976.7165	2983.4083	3013.9052	3027.0288	3037.8404	3060.5339	3065.2827	3089.8325	3107.2452	3110.4331	3113.2814	3759.8864	3777.37
COC(C)CC(O)CO	CO[C@@H](C)C[C@@H](O)CO	
InChI=1S/C6H14O3/c1-5(9-2)3-6(8)4-7/h5-8H,3-4H2,1-2H3	InChI=1S/C6H14O3/c1-5(9-2)3-6(8)4-7/h5-8H,3-4H2,1-2H3/t5-,6+/m0/s1
