16
gdb 26581	2.42287	1.85973	1.06001	1.1056	78.96	-0.1986	-0.0347	0.1639	1080.6732	0.125359	-434.112073	-434.103833	-434.102889	-434.144865	31.123	
C	 0.0228406971	 1.5081055877	-0.0654385057	-0.50411
C	 0.0069097527	 0.0070587195	-0.0533726787	 0.222592
C	-1.1544023056	-0.7061727973	 0.004510136	 0.202023
N	-2.4229491724	-0.1642753845	 0.0182022036	-0.589237
C	-1.1017641291	-2.1645283139	 0.0144365652	 0.367685
N	-2.1486985093	-2.8818612106	 0.094055141	-0.563113
O	 0.1605863477	-2.7170303988	-0.062302158	-0.216401
C	 1.2514980609	-1.907128055	-0.1178842124	 0.092602
N	 1.2391702986	-0.6367005884	-0.1128515725	-0.308818
H	 1.0251255774	 1.8637358435	-0.3083683502	 0.145575
H	-0.6837421808	 1.9066324266	-0.8032695008	 0.134361
H	-0.2554389989	 1.929374704	 0.9107029547	 0.127056
H	-2.5252580343	 0.7435097581	 0.4435770144	 0.252155
H	-3.1355255906	-0.8363235419	 0.2706555761	 0.272191
H	-1.9240923581	-3.8754293538	 0.0929431754	 0.226466
H	 2.1648283747	-2.4883870352	-0.1687129482	 0.138974
83.9722	126.3161	172.6176	281.6862	291.9735	342.0585	387.7004	503.0477	514.3578	529.5341	530.3219	599.5152	618.8607	698.4156	778.1647	830.6076	869.1689	884.4619	933.1558	998.9262	1052.5984	1055.1717	1133.8419	1224.886	1261.3614	1284.7338	1390.4135	1411.8696	1437.6761	1484.2284	1492.5257	1612.775	1639.3901	1673.1073	1729.1663	3010.4488	3062.7439	3140.905	3210.7019	3510.5578	3554.9076	3677.1842
CC1=C(N)C(=N)OC=N1	C[C@H]1C(=C([NH])OC=N1)N	
InChI=1S/C5H7N3O/c1-3-4(6)5(7)9-2-8-3/h2,7H,6H2,1H3	InChI=1S/C5H8N3O/c1-3-4(6)5(7)9-2-8-3/h2-3,7H,6H2,1H3/t3-/m0/s1
