15
gdb 69180	2.24357	1.90669	1.25715	2.9371	66.44	-0.2425	-0.0428	0.1997	996.4312	0.109795	-457.70788	-457.699809	-457.698864	-457.740522	29.71	
C	-0.0725720577	 1.5296691209	 0.0367484263	-0.513513
C	 0.1241634343	 0.0529737766	-0.0077629388	 0.330269
O	-0.7545406993	-0.8313316593	 0.6951865293	-0.271718
C	 0.6574142234	-0.905671015	 1.0029712849	-0.223874
C	 1.2424668466	-1.7742000444	-0.1148742683	 0.386518
O	 1.9949135907	-2.6974216815	-0.1712366451	-0.295394
C	 0.636219321	-0.8099210672	-1.1645650617	 0.278297
C	 0.1701825328	-0.9894707306	-2.5360406069	-0.255797
O	 1.410108664	-0.3248523189	-2.2411778865	-0.265942
H	 0.821120106	 2.0383383616	-0.3353377311	 0.150508
H	-0.9174010966	 1.824478674	-0.594836384	 0.141298
H	-0.2765596446	 1.8611061127	 1.057656736	 0.143975
H	 0.9640832534	-0.7586033528	 2.0314760589	 0.127571
H	 0.2697870534	-1.9647850654	-3.007966239	 0.139923
H	-0.6224744274	-0.3502571406	-2.920879724	 0.127878
98.6325	166.4134	189.6154	199.732	230.1587	273.0639	379.6919	474.6313	523.7969	599.1537	644.4255	717.8946	758.994	809.1842	839.3025	904.2831	972.9397	983.5933	1006.7158	1038.3377	1084.1262	1111.6691	1123.5916	1162.4191	1218.6646	1228.9258	1393.5855	1428.0456	1460.6967	1478.6533	1492.0545	1528.4625	1907.2396	3043.6116	3092.4801	3109.9219	3133.5408	3186.4477	3199.8123
CC12OC1C(=O)C21CO1	C[C@]12O[C@H]1C(=O)[C@]12CO1	
InChI=1S/C6H6O3/c1-5-4(9-5)3(7)6(5)2-8-6/h4H,2H2,1H3	InChI=1S/C6H6O3/c1-5-4(9-5)3(7)6(5)2-8-6/h4H,2H2,1H3/t4-,5-,6-/m0/s1
