20
gdb 82035	2.27698	1.43987	1.3697	3.3092	78.65	-0.2368	-0.0286	0.2082	1099.784	0.169174	-403.112918	-403.10377	-403.102826	-403.146615	34.398	
C	-0.2423666887	 1.545210939	 0.1025905522	-0.41699
C	 0.0522840791	 0.057526194	 0.1644205305	 0.013871
N	 0.8244616086	-0.5391318779	-0.995297801	-0.135289
C	 2.1942868554	 0.0039267504	-0.9385707246	-0.259172
C	 1.8327860625	-1.0728085312	 0.0009455265	-0.061863
C	 1.0467902712	-0.535786453	 1.2137787408	 0.169456
C	 1.7945289696	 0.3656523988	 2.1996203714	-0.469918
C	 0.4464996893	-1.6973171288	 1.9913793318	 0.120887
O	-0.7018545806	-2.0539103066	 1.961602715	-0.242672
H	 0.6562796745	 2.1680118334	 0.0795049773	 0.112197
H	-0.8270135818	 1.7654389805	-0.7964512551	 0.13372
H	-0.8355946737	 1.8499268209	 0.9710288712	 0.124968
H	-0.8882115575	-0.493269311	 0.2289845793	 0.116194
H	 2.7863841989	-0.2742448416	-1.8054551297	 0.12585
H	 2.3708853186	 1.0159046034	-0.5869322767	 0.112196
H	 2.234254497	-2.0791978532	-0.0796147702	 0.098055
H	 2.3583395007	 1.1463982137	 1.684855638	 0.126659
H	 1.0993988164	 0.8528252634	 2.8918675368	 0.130565
H	 2.5064327386	-0.216926343	 2.7959355136	 0.123354
H	 1.1902371718	-2.2292289713	 2.6312384431	 0.077934
62.6038	162.3313	188.456	204.4824	210.4998	237.1617	294.6071	329.8214	375.7543	439.2028	538.8832	585.47	670.7599	731.6037	773.4457	782.9158	880.6529	914.5956	929.5456	987.9357	1011.2549	1041.9123	1056.4468	1098.9347	1111.8997	1115.3217	1155.1675	1171.0573	1199.6716	1228.7893	1239.4434	1293.0833	1359.3992	1393.2775	1407.4631	1411.1422	1426.8912	1486.4364	1489.1439	1492.0527	1503.4096	1515.23	1831.7481	2850.3313	3031.4424	3039.0123	3089.3055	3093.6025	3106.3613	3113.6889	3120.2316	3126.1659	3146.2628	3202.473
CC1N2CC2C1(C)C=O	C[C@H]1N2C[C@H]2[C@]1(C)C=O	
InChI=1S/C7H11NO/c1-5-7(2,4-9)6-3-8(5)6/h4-6H,3H2,1-2H3	InChI=1S/C7H11NO/c1-5-7(2,4-9)6-3-8(5)6/h4-6H,3H2,1-2H3/t5-,6+,7-,8?/m1/s1
