17
gdb 44511	4.52051	1.41786	1.24049	3.9071	72.23	-0.2354	0.059	0.2944	997.2289	0.139668	-418.013201	-418.006382	-418.005438	-418.044346	27.782	
O	-0.0016396632	-0.064704705	 0.0500896802	-0.415864
C	-0.0153389365	 1.1502127897	-0.0075872755	 0.44088
N	-1.1611963217	 1.9181353736	-0.0387899257	-0.375084
C	-1.0962422351	 3.35242729	 0.0696328327	 0.071044
C	-0.0579632754	 4.0705864413	-0.8508265602	-0.093815
C	-0.0562444784	 5.233113862	 0.1715780129	-0.232021
C	-0.030653509	 3.958248209	 1.0472409886	-0.111232
C	 1.0202635956	 3.3749100851	 0.0405108055	 0.071044
N	 1.1126579322	 1.9422897236	-0.0700745832	-0.375084
H	-2.0211741683	 1.4246710211	 0.1292568056	 0.25152
H	-2.1006373927	 3.7781371305	 0.1060662501	 0.080732
H	-0.0735024818	 4.1231749148	-1.9395600913	 0.080973
H	 0.8403178192	 5.8570211079	 0.1946193431	 0.098314
H	-0.9648822121	 5.8378452828	 0.2194579521	 0.098314
H	-0.0148770905	 3.8818947679	 2.1348691298	 0.078025
H	 2.0160127333	 3.8218665961	 0.0494234526	 0.080732
H	 1.9872214944	 1.4672499895	 0.0740939527	 0.25152
83.4297	279.1683	339.3708	351.3885	387.3452	466.2889	498.6965	522.6805	650.0652	767.6799	771.668	797.6319	805.4408	857.2169	886.7259	900.5176	910.4483	999.5469	1023.8449	1037.8237	1074.6576	1100.1583	1109.0232	1111.5716	1162.932	1182.66	1193.705	1237.4605	1248.5286	1252.3873	1280.8169	1397.3142	1408.37	1453.356	1468.2705	1520.8819	1824.7024	3060.4622	3095.2998	3095.3676	3109.9857	3119.3152	3124.175	3668.6994	3670.2999
O=C1NC2C3CC2C3N1	O=C1N[C@@H]2[C@H]3C[C@@H]2[C@H]3N1	
InChI=1S/C6H8N2O/c9-6-7-4-2-1-3(4)5(2)8-6/h2-5H,1H2,(H2,7,8,9)	InChI=1S/C6H8N2O/c9-6-7-4-2-1-3(4)5(2)8-6/h2-5H,1H2,(H2,7,8,9)/t2-,3+,4-,5+
