21
gdb 86778	2.76588	1.05165	0.94294	1.4031	84.4	-0.2521	0.0609	0.313	1352.0229	0.180441	-387.046422	-387.036513	-387.035569	-387.081087	37.347	
C	-0.6090932872	 1.3767733447	-0.1870788456	-0.413044
C	-0.0460749034	-0.034121014	-0.10396584	 0.012331
C	 1.3073822463	-0.3600197125	-0.7932560437	 0.10615
O	 2.1181097813	 0.8054883506	-0.8226675893	-0.42904
C	 1.6354794285	-1.3126835276	 0.388894899	-0.257438
C	 0.5310372786	-0.612790321	 1.2326329148	-0.003226
C	 1.0772733542	 0.4343462442	 2.2200717441	-0.378642
C	 1.7736578102	-0.1793864343	 3.3453165557	 0.296347
C	 2.3455812933	-0.7120491109	 4.2592810595	-0.439491
H	 0.1301990194	 2.1257089623	 0.1037620369	 0.134627
H	-0.9223326336	 1.6066460528	-1.2110476517	 0.112625
H	-1.4869544601	 1.485690345	 0.4593872812	 0.109998
H	-0.7904994272	-0.7445852852	-0.480710428	 0.073485
H	 1.2496199655	-0.8125001605	-1.7927618099	 0.058633
H	 3.0181127309	 0.5340998197	-1.0301883815	 0.284203
H	 1.3929483643	-2.3540263218	 0.1602905357	 0.098711
H	 2.6557187424	-1.2662880519	 0.7806190855	 0.101155
H	-0.1413661805	-1.2865163265	 1.7702019306	 0.073397
H	 1.7585186375	 1.1096464445	 1.6904354764	 0.144476
H	 0.2525203266	 1.0531986987	 2.5961610589	 0.12488
H	 2.8503190732	-1.1680513765	 5.0742204515	 0.189865
64.3532	113.0969	129.3556	188.4669	209.7493	244.5443	294.7863	324.3535	358.8432	402.262	429.21	511.7971	542.6209	612.2813	629.7853	709.8813	812.3103	836.1847	860.5436	904.8472	921.9014	952.0824	993.7693	1003.5736	1054.2826	1078.2651	1140.3637	1148.1915	1161.1147	1194.4821	1226.1372	1249.1628	1267.6904	1288.7229	1314.2101	1332.4231	1371.4753	1379.2976	1404.9323	1417.8228	1470.1325	1480.1332	1490.7046	1503.4486	2234.8128	2997.2312	3025.337	3034.0691	3041.2871	3052.6709	3063.18	3078.1359	3092.8255	3109.2134	3130.0882	3507.9588	3814.2344
CC1C(O)CC1CC#C	C[C@H]1[C@@H](O)C[C@H]1CC#C	
InChI=1S/C8H12O/c1-3-4-7-5-8(9)6(7)2/h1,6-9H,4-5H2,2H3	InChI=1S/C8H12O/c1-3-4-7-5-8(9)6(7)2/h1,6-9H,4-5H2,2H3/t6-,7-,8+/m1/s1
