19
gdb 117276	3.03553	0.76281	0.64807	2.0346	80.99	-0.2437	0.0152	0.2589	1782.7733	0.155884	-423.043368	-423.032387	-423.031443	-423.083367	36.422	
C	-0.4748297802	 0.7399612877	-0.5369312077	-0.387225
C	-0.3065502356	-0.6715255964	 0.0043468143	-0.052815
O	 0.3994348895	-1.5155715173	-0.9319159435	-0.226782
C	 1.7384434505	-1.4692792243	-0.8849787715	 0.454962
O	 2.3774829596	-0.7790872073	-0.1313244031	-0.36605
C	 2.3805058427	-2.3654982766	-1.9450569386	-0.477046
C	 1.6669020592	-3.5914284827	-2.2706698463	 0.092849
C	 1.1011085351	-4.617151039	-2.5443208071	 0.05695
C	 0.4062710317	-5.8539124144	-2.8703054903	-0.496415
H	 0.4963960309	 1.2286184148	-0.6434600411	 0.144788
H	-0.975830556	 0.7267649067	-1.5091535374	 0.126772
H	-1.0828335199	 1.3311603567	 0.1552739445	 0.121695
H	 0.2368493582	-0.6674363866	 0.9519291865	 0.13293
H	-1.2712880475	-1.1655728048	 0.1400461665	 0.115635
H	 2.4915651247	-1.7414587344	-2.8436202278	 0.156578
H	 3.3959840867	-2.5719885945	-1.5936741165	 0.158172
H	 0.9514010351	-6.7282751631	-2.4979457897	 0.147921
H	-0.5948836161	-5.8738552141	-2.4256664976	 0.14946
H	 0.2896440015	-5.9725404103	-3.9532227736	 0.147623
11.6369	17.5224	68.1653	79.2136	116.2875	197.8912	209.8319	242.138	318.2863	370.7507	380.5763	439.5891	462.5978	580.4306	700.0802	777.4589	808.0849	870.0347	923.855	953.1344	1052.2476	1053.0158	1055.7374	1117.5891	1172.3343	1196.9429	1210.6157	1273.8572	1324.1276	1333.1737	1398.8796	1415.1847	1420.6847	1448.6458	1478.2266	1478.8575	1485.1518	1487.8401	1507.6849	1814.6662	2381.6388	3014.6793	3026.5332	3045.3935	3071.1818	3083.0259	3087.1033	3087.6063	3112.8319	3120.902	3141.1006
CCOC(=O)CC#CC	CCOC(=O)CC#CC	
InChI=1S/C7H10O2/c1-3-5-6-7(8)9-4-2/h4,6H2,1-2H3	InChI=1S/C7H10O2/c1-3-5-6-7(8)9-4-2/h4,6H2,1-2H3
