15
gdb 54058	2.52728	1.14656	0.82518	2.9745	67.14	-0.2747	-0.0637	0.211	1302.8426	0.110915	-454.003382	-453.994115	-453.993171	-454.0386	32.215	
N	-0.201673892	 1.3359056313	 0.0142928935	-0.526277
C	-0.0185994695	-0.0051578852	-0.028776498	 0.404228
O	 1.0586994859	-0.5536458642	-0.1473082449	-0.350757
C	-1.3290081291	-0.8368070584	 0.0102076105	-0.213876
C	-0.9867769368	-2.3371947873	 0.0639847025	-0.360038
C	-2.1651519259	-3.1803103014	-0.1195434884	 0.249381
N	-3.1118018977	-3.8275988066	-0.2628290344	-0.299353
C	-2.2922772246	-0.4160475958	 1.1159513842	 0.155655
O	-2.5923030958	 0.7287920053	 1.3522218706	-0.253667
H	 0.624891632	 1.9091627865	 0.0808166046	 0.2668
H	-1.0860281998	 1.7005598862	 0.3418251856	 0.280845
H	-1.8573278702	-0.619394212	-0.9286545643	 0.164561
H	-0.2448927368	-2.5592235163	-0.7059217043	 0.187147
H	-0.5113447268	-2.5834512459	 1.0194304009	 0.167897
H	-2.730328543	-1.2483806563	 1.703781332	 0.127454
54.6171	61.4477	104.7358	131.2544	243.7195	278.9155	316.7551	384.5785	405.5357	459.21	496.4083	589.6719	611.2295	639.5312	727.9847	778.662	871.0059	948.1532	1012.3284	1064.6925	1087.2342	1146.6625	1201.0349	1208.4721	1299.6147	1341.591	1350.7497	1432.2999	1457.5928	1620.9437	1803.2717	1810.8947	2361.9452	2932.6345	3028.6083	3067.8929	3121.2866	3543.0697	3689.6851
NC(=O)C(CC#N)C=O	NC(=O)[C@@H](CC#N)C=O	
InChI=1S/C5H6N2O2/c6-2-1-4(3-8)5(7)9/h3-4H,1H2,(H2,7,9)	InChI=1S/C5H6N2O2/c6-2-1-4(3-8)5(7)9/h3-4H,1H2,(H2,7,9)/t4-/m0/s1
