17
gdb 133665	2.57622	1.22991	1.01834	0.9583	60.93	-0.2554	0.0832	0.3386	1181.9442	0.132594	-549.500981	-549.492043	-549.491099	-549.535218	32.929	
N	-0.0688475346	 1.6379194151	-0.1164409784	-0.513113
C	-0.0737072544	 0.1828775082	 0.0024346322	-0.147083
C	-1.4813196626	-0.3426149603	 0.1756434328	 0.041692
C	-1.7283360507	-1.6377112393	 0.9069513694	-0.264646
C	-2.1216980498	-0.3267853699	 1.5372176866	-0.277869
C	 0.6120764497	-0.5021156576	-1.1871189266	 0.273789
F	 1.8570438986	-0.0196017973	-1.3653808333	-0.087896
F	 0.7199282789	-1.8274227713	-1.0202048857	-0.072371
F	-0.06136448	-0.2882655929	-2.3314999723	-0.090045
H	 0.8752952716	 1.9656293999	-0.2993950238	 0.236738
H	-0.6307616666	 1.9155364845	-0.916817673	 0.233431
H	 0.5232305446	-0.0894078371	 0.8818627939	 0.102247
H	-2.1304778033	-0.1355215447	-0.6710058367	 0.092468
H	-2.508604283	-2.2910831049	 0.5337746646	 0.117092
H	-0.8687078656	-2.1621235988	 1.308959687	 0.119014
H	-1.5271812287	 0.0428079719	 2.3656288801	 0.120595
H	-3.1746678442	-0.0776882255	 1.6016603331	 0.115956
60.6553	82.5934	156.2409	222.8734	251.0309	290.0994	313.124	368.4969	406.446	487.6425	543.1216	581.5791	686.2035	765.7667	817.8565	836.5847	862.2471	917.0207	955.3015	974.7964	1060.8244	1076.2879	1081.2045	1134.3622	1149.1627	1160.4051	1195.6441	1205.9364	1230.6114	1256.0363	1275.9698	1345.1349	1391.0583	1437.0291	1475.0708	1511.4402	1664.528	3040.4617	3138.0193	3140.7147	3145.1543	3216.0854	3230.5155	3490.2091	3570.4107
NC(C1CC1)C(F)(F)F	N[C@@H](C1CC1)C(F)(F)F	
InChI=1S/C5H8F3N/c6-5(7,8)4(9)3-1-2-3/h3-4H,1-2,9H2	InChI=1S/C5H8F3N/c6-5(7,8)4(9)3-1-2-3/h3-4H,1-2,9H2/t4-/m0/s1
