21
gdb 89806	3.01075	1.35044	1.11204	1.3228	82.13	-0.2444	0.0752	0.3196	1163.4403	0.183871	-387.073426	-387.065286	-387.064342	-387.105768	33.117	
O	-0.0780894835	 1.4579848537	 0.037458719	-0.437475
C	-0.00611936	 0.0388787894	-0.000987833	 0.125986
C	 0.7065189243	-0.5841076668	 1.2283478755	-0.367471
C	 0.0308235092	-1.9378145465	 1.431054295	 0.40393
C	 0.7819920342	-3.2256096902	 1.1945692671	-0.31964
C	 0.3625244871	-2.8336577548	 2.5935539514	-0.321958
C	-1.3718522951	-1.7888687672	 0.895306154	-0.109225
C	-2.1461541168	-0.5637683863	 1.3170226589	-0.297864
C	-1.3987183218	-0.564054809	 0.0066173029	-0.03702
H	 0.8169025117	 1.8023213654	-0.0446387526	 0.279299
H	 0.5019542939	-0.2856511839	-0.9230617149	 0.064713
H	 1.7889089294	-0.6677931785	 1.0906679718	 0.089998
H	 0.5376472145	 0.0751768374	 2.0875320034	 0.110048
H	 0.2571084682	-4.0463168481	 0.7156275538	 0.108317
H	 1.8358463975	-3.1662141126	 0.941269764	 0.10603
H	 1.1335864	-2.5118569715	 3.2864380598	 0.106861
H	-0.4462001774	-3.3887724578	 3.0577231163	 0.110215
H	-1.9211828268	-2.687537149	 0.634678554	 0.077292
H	-3.2274797228	-0.6204187363	 1.257859701	 0.107852
H	-1.7813114978	 0.0455634156	 2.1363538684	 0.118156
H	-1.967194708	-0.540259523	-0.9157711359	 0.081957
99.9826	160.2441	231.7689	271.5434	292.6593	340.0177	413.5622	425.1264	498.1903	573.4636	600.8503	738.8042	778.0593	811.2269	830.7985	860.4455	897.2711	914.3373	947.1726	973.041	989.6097	997.7877	1025.9128	1044.0135	1055.3333	1061.9333	1077.2835	1093.154	1108.4994	1128.8715	1184.6681	1187.3225	1203.0707	1246.4718	1265.5922	1280.6162	1310.753	1351.6419	1376.7316	1413.9876	1434.3164	1463.5471	1485.6978	1502.6993	1508.5875	2968.8446	3039.3232	3083.0469	3119.6692	3124.9707	3136.6261	3158.984	3176.2379	3197.6575	3213.0707	3219.5475	3815.5867
OC1CC2(CC2)C2CC12	O[C@H]1CC2(CC2)[C@H]2C[C@@H]12	
InChI=1S/C8H12O/c9-7-4-8(1-2-8)6-3-5(6)7/h5-7,9H,1-4H2	InChI=1S/C8H12O/c9-7-4-8(1-2-8)6-3-5(6)7/h5-7,9H,1-4H2/t5-,6+,7+/m1/s1
