17
gdb 95727	2.87656	1.37296	1.1045	5.3582	64.6	-0.2724	0.024	0.2964	1100.4923	0.136487	-496.128521	-496.120304	-496.119359	-496.161842	30.4	
O	-0.3756548566	 1.3199954224	-0.8096076452	-0.429816
C	-0.0755880334	 0.2225410195	 0.0357175267	 0.123331
C	-1.3730905651	-0.5785420166	 0.1561901814	-0.237556
C	-1.1983093675	-1.9514535425	 0.7893300068	-0.08975
O	-0.2979867419	-2.8454425615	 0.0979425358	-0.260446
C	-0.0213425229	-2.6856973113	-1.2250838606	 0.4526
O	-0.2366221301	-3.5285593485	-2.0408363115	-0.3462
O	 0.6027063195	-1.5321959627	-1.5563631057	-0.234513
C	 1.052213058	-0.6616317631	-0.5114246989	-0.099701
H	 0.3951298171	 1.8943857975	-0.8567204003	 0.286504
H	 0.2402586485	 0.573806224	 1.0324703037	 0.072823
H	-2.1004700649	-0.0160822132	 0.7493334613	 0.120781
H	-1.7973748772	-0.6755791559	-0.8487106024	 0.14707
H	-0.7982560716	-1.8718136864	 1.8054316772	 0.121828
H	-2.1692404691	-2.4552987801	 0.8475039669	 0.132443
H	 1.8324711729	-0.0465149437	-0.9684984427	 0.114324
H	 1.4987967044	-1.2518051981	 0.2944946475	 0.12628
72.6673	79.9843	202.041	255.8914	276.9739	322.6635	352.441	416.4799	534.2084	538.7081	605.9575	696.1795	762.4338	826.1614	840.1011	902.011	910.3796	979.0779	1052.6092	1078.7018	1093.633	1126.6131	1135.2326	1170.1679	1213.9148	1263.6726	1289.697	1302.9246	1362.2795	1374.2789	1406.3619	1424.3337	1444.5939	1483.7868	1486.5918	1517.4647	1879.9882	2961.0829	3041.6488	3054.7879	3057.0357	3083.7493	3103.2275	3107.5025	3820.4974
OC1CCOC(=O)OC1	O[C@H]1CCOC(=O)OC1	
InChI=1S/C5H8O4/c6-4-1-2-8-5(7)9-3-4/h4,6H,1-3H2	InChI=1S/C5H8O4/c6-4-1-2-8-5(7)9-3-4/h4,6H,1-3H2/t4-/m0/s1
