18
gdb 92794	4.96969	0.82661	0.75358	4.0996	74.04	-0.2498	-0.0214	0.2284	1503.3505	0.146309	-439.12115	-439.111971	-439.111027	-439.15703	31.91	
C	-0.4908746063	 1.4170677687	-0.1034225133	-0.397902
C	 0.0148630784	-0.0037797163	 0.0808973125	 0.102974
C	 0.8384114798	-0.5715452758	-1.1095398334	-0.200293
N	 2.1722172735	-0.846818867	-0.5600641261	-0.313514
C	 2.1261324238	-0.5261312345	 0.6683585906	 0.417904
C	 3.2552018044	-0.6398573508	 1.6422965817	-0.401597
C	 4.562683093	-1.050089342	 0.9837633531	 0.18133
O	 5.3328304938	-1.8311048876	 1.4766189223	-0.243036
O	 0.967791367	-0.0403580036	 1.1828738429	-0.268469
H	 0.3319100894	 2.0872299519	-0.3722889294	 0.12753
H	-1.2343788373	 1.4472044405	-0.9066603341	 0.125303
H	-0.9584710089	 1.7898833571	 0.8118679878	 0.131878
H	-0.8092338614	-0.6675582225	 0.3608836181	 0.096132
H	 0.4065813022	-1.490686101	-1.518354284	 0.120059
H	 0.9135793979	 0.1469286441	-1.9344134516	 0.114456
H	 3.4013702067	 0.3377490638	 2.1242572309	 0.150218
H	 3.0117821324	-1.3479213605	 2.4404374551	 0.153736
H	 4.7692235616	-0.5519550644	 0.0157090171	 0.103292
32.1563	52.4664	64.4854	178.4128	205.235	235.5833	321.37	384.5146	452.6136	464.1883	599.0195	694.5005	722.8274	804.9709	838.171	911.1107	936.8011	970.3797	1015.9714	1054.093	1059.7903	1082.579	1123.0379	1141.661	1191.8189	1205.0748	1232.0077	1307.3532	1337.5843	1368.2379	1400.4388	1411.2473	1428.087	1443.1275	1484.6754	1494.7612	1504.263	1736.9178	1838.8033	2941.4567	3023.8321	3034.3591	3039.2436	3051.2073	3075.2739	3093.3344	3111.6458	3121.4355
CC1CN=C(CC=O)O1	C[C@H]1CN=C(CC=O)O1	
InChI=1S/C6H9NO2/c1-5-4-7-6(9-5)2-3-8/h3,5H,2,4H2,1H3	InChI=1S/C6H9NO2/c1-5-4-7-6(9-5)2-3-8/h3,5H,2,4H2,1H3/t5-/m0/s1
