21
gdb 86671	2.04429	1.49158	1.28807	3.4543	78.86	-0.242	-0.0302	0.2118	1149.9774	0.179112	-424.226158	-424.216164	-424.21522	-424.260829	36.806	
C	-0.4320323069	 1.4530257502	-0.0990753677	-0.413723
C	-0.0353163263	-0.0093877153	-0.0234976872	 0.124496
O	 1.0785706855	-0.3071447591	-0.9050617103	-0.287839
C	 1.9423199277	-0.6301083775	 0.1801719347	 0.008399
C	 3.0746856173	 0.3524675491	 0.3889887098	 0.139501
O	 3.1504801516	 1.4429097596	-0.1141148988	-0.24324
C	 0.7611778268	-0.5369366167	 1.2154984428	 0.227769
C	 0.9218688001	 0.3950527896	 2.4138191318	-0.465013
C	 0.2834245829	-1.9193325326	 1.6596638416	-0.444006
H	 0.4346372963	 2.1015889024	 0.0459407648	 0.144788
H	-0.848534672	 1.6660254147	-1.0884728412	 0.128008
H	-1.1963757111	 1.6906334446	 0.6488007978	 0.111019
H	-0.8955634537	-0.6453886384	-0.271935682	 0.074032
H	 2.3773797016	-1.6371360646	 0.0880747709	 0.083692
H	 3.8570936606	-0.0189205196	 1.0935813323	 0.071723
H	 1.2917690822	 1.3839718717	 2.133965506	 0.138066
H	-0.0400431945	 0.528075115	 2.9208168428	 0.120813
H	 1.6170436234	-0.0290697516	 3.1470372338	 0.117937
H	 0.9925799032	-2.377654607	 2.3578359488	 0.116108
H	-0.6848628403	-1.8461369939	 2.1680105642	 0.119036
H	 0.1657619857	-2.5917479004	 0.8042019951	 0.128434
63.5951	87.7458	199.6448	208.2755	227.7319	237.0055	257.7361	272.4034	312.1588	329.9698	388.9968	433.3846	495.3859	616.3539	748.039	793.7229	801.1969	894.2807	922.5677	952.5114	974.1484	983.9943	1014.604	1053.4546	1083.0811	1112.5038	1132.328	1192.0133	1207.6191	1241.1433	1271.7999	1317.9459	1352.4986	1388.3413	1404.3728	1410.1702	1417.7257	1425.5378	1478.048	1483.8708	1488.1243	1498.871	1507.1574	1512.5381	1832.3896	2843.9387	2990.2668	3009.5674	3025.1356	3033.5468	3040.1368	3089.4869	3094.4008	3104.4059	3106.8952	3121.0164	3135.3477
CC1OC(C=O)C1(C)C	C[C@H]1O[C@@H](C=O)C1(C)C	
InChI=1S/C7H12O2/c1-5-7(2,3)6(4-8)9-5/h4-6H,1-3H3	InChI=1S/C7H12O2/c1-5-7(2,3)6(4-8)9-5/h4-6H,1-3H3/t5-,6+/m1/s1
