18
gdb 79543	2.47052	1.70528	1.20979	2.0861	82.49	-0.2456	0.0321	0.2777	1061.344	0.147301	-364.718548	-364.710447	-364.709502	-364.75085	32.032	
C	-0.0636718342	 1.5270278731	-0.0240496171	-0.42115
C	 0.0962148857	 0.0228173749	 0.0449015873	 0.002839
C	 1.3814322011	-0.7294311307	-0.2063869823	-0.109632
C	 2.5828830373	-0.0237365926	 0.3801956486	-0.111581
N	 3.1864540998	-0.7561915641	 1.4872817517	-0.362608
C	 1.9365712755	-0.0240939454	 1.758754363	 0.14614
C	 1.9214079419	 0.9776019964	 2.7752980838	 0.295392
C	 1.8663521572	 1.8173860064	 3.6346917572	-0.439017
C	 0.7211627521	-0.7392577899	 1.1887755308	-0.181169
H	 0.7815953227	 2.0534506631	 0.4229631264	 0.137828
H	-0.1589554358	 1.8554336012	-1.0648483268	 0.115779
H	-0.9675050899	 1.840731886	 0.5088321757	 0.121286
H	-0.7613673319	-0.5134414367	-0.3622538526	 0.088715
H	 1.4376327095	-1.5525585267	-0.9105260814	 0.093403
H	 3.1694553486	 0.7666388463	-0.0727064222	 0.110966
H	 3.0130952004	-1.7576372615	 1.4171454206	 0.229598
H	 1.8321235305	 2.5580889937	 4.3946024716	 0.190198
H	 0.2126607194	-1.5611107034	 1.6811224856	 0.093015
112.9374	147.4074	195.2663	223.1989	267.6688	408.49	440.2658	501.8915	559.0857	582.4197	603.9787	647.6563	657.5489	735.592	776.4066	813.7239	852.5178	899.7638	953.0122	973.7607	996.3867	1012.6941	1060.5306	1073.0344	1078.9611	1116.7311	1135.7171	1140.3285	1205.8766	1238.3871	1268.3138	1303.3388	1326.6402	1388.7019	1414.9492	1439.001	1494.0095	1500.3192	2239.3557	3036.9205	3094.2787	3106.44	3135.5641	3164.7275	3175.8004	3190.881	3464.4497	3502.9354
CC1C2C3NC3(C#C)C12	C[C@H]1[C@H]2[C@@H]3N[C@]3(C#C)[C@@H]12	
InChI=1S/C8H9N/c1-3-8-6-4(2)5(6)7(8)9-8/h1,4-7,9H,2H3	InChI=1S/C8H9N/c1-3-8-6-4(2)5(6)7(8)9-8/h1,4-7,9H,2H3/t4-,5+,6-,7-,8+/m0/s1
