15
gdb 15748	5.52992	1.17184	1.00797	2.3065	67.49	-0.254	-0.0083	0.2457	1127.0371	0.119771	-395.993204	-395.985344	-395.9844	-396.026183	27.579	
N	 0.4243920906	 1.1892683621	-0.8424624482	-0.471066
C	-0.3390569505	 0.6476146357	 0.0164499026	 0.108535
N	-1.4562469938	-0.0595422832	-0.3904199559	-0.320289
C	-2.3159224398	-0.6985958837	 0.4843691448	 0.453953
O	-2.1636137952	-0.7150588809	 1.6862372542	-0.36628
N	-3.3438524381	-1.3724961648	-0.1984631272	-0.140625
C	-4.6254297771	-1.5290268545	 0.4585372751	-0.209374
C	-4.494999895	-0.635607709	-0.730796657	-0.23922
H	 1.1933105784	 1.6671106184	-0.3766832916	 0.231672
H	-0.2369614386	 0.6587919291	 1.1035415291	 0.138385
H	-1.6057292429	-0.1502215758	-1.3851715301	 0.26668
H	-5.0840341285	-2.50710095	 0.3519299956	 0.130559
H	-4.7308293584	-1.0657361594	 1.4348981791	 0.147378
H	-4.5276589549	 0.4371902419	-0.5582778646	 0.137805
H	-4.8467455962	-0.957729976	-1.7064416159	 0.131885
60.0035	105.5506	158.6098	188.0381	252.4403	291.53	444.803	505.1949	627.1213	637.1171	780.6931	825.2712	830.404	872.6506	939.9465	1009.16	1047.232	1087.922	1102.9176	1126.6933	1138.5317	1172.7232	1179.6082	1189.7477	1309.0579	1347.6574	1395.9272	1492.783	1496.6174	1523.3381	1731.5279	1800.7806	3111.6895	3120.5088	3125.3758	3199.1212	3218.266	3509.6192	3617.1717
N=CNC(=O)N1CC1	N=CNC(=O)N1CC1	
InChI=1S/C4H7N3O/c5-3-6-4(8)7-1-2-7/h3H,1-2H2,(H2,5,6,8)	InChI=1S/C4H7N3O/c5-3-6-4(8)7-1-2-7/h3H,1-2H2,(H2,5,6,8)
