22
gdb 57049	2.35739	1.25094	0.93064	3.9267	85.96	-0.296	0.0378	0.3338	1337.7818	0.194042	-367.229258	-367.219485	-367.218541	-367.263925	36.382	
C	-0.0250214694	 1.5771076415	 0.036291578	-0.399302
C	 0.0850363729	 0.0434419909	-0.0775568554	-0.16864
C	 0.8477858012	-0.3289920658	-1.2750561892	 0.278254
N	 1.4621873275	-0.6257106584	-2.2085826229	-0.335752
C	 0.7207662066	-0.5808873906	 1.175205407	 0.056562
C	-0.0413185191	-0.4675093215	 2.5229196699	-0.250519
C	 0.4567956919	-1.8951431456	 2.8739477293	-0.227264
C	 0.7743515205	-2.1344210285	 1.3666318896	-0.002522
C	-0.296154429	-2.94093351	 0.6346997897	-0.409917
H	 0.9642092917	 2.0296551005	 0.1496403779	 0.135977
H	-0.4971999338	 2.0057707225	-0.8510536582	 0.13546
H	-0.6270125261	 1.8395863984	 0.9103297678	 0.130036
H	-0.9244520349	-0.3672641375	-0.20466908	 0.121195
H	 1.7308292693	-0.1712584621	 1.2845840203	 0.086317
H	 0.2362247046	 0.3492498996	 3.1928333503	 0.102465
H	-1.126038903	-0.4377038485	 2.3760817225	 0.101703
H	 1.3595126424	-1.8739713093	 3.4900156692	 0.104093
H	-0.2633769605	-2.5747947775	 3.3368195743	 0.098456
H	 1.754843081	-2.5722358302	 1.1610571887	 0.079709
H	-1.3055988371	-2.5653926515	 0.8386998794	 0.110065
H	-0.1413220266	-2.9291428491	-0.4488654876	 0.135196
H	-0.2681973901	-3.9854300473	 0.9624186595	 0.118428
65.0603	107.3627	130.4038	202.6792	211.7419	228.7213	272.6284	290.833	355.2769	379.728	440.945	531.3752	590.7202	676.0264	772.8089	793.054	852.3011	887.9214	914.7662	949.5604	959.2547	983.8085	1025.6436	1052.3594	1076.662	1109.4264	1124.1611	1168.898	1184.9406	1220.1168	1249.9681	1264.3577	1284.8627	1286.6948	1294.5753	1333.1903	1369.0712	1381.8806	1410.2111	1414.9859	1482.0091	1492.9778	1498.4125	1499.352	1502.1097	1504.5384	2351.6303	3026.3769	3032.7482	3044.9705	3048.4416	3052.1293	3057.0116	3066.6359	3093.9886	3100.3402	3103.772	3116.5296	3124.0858	3127.4936
CC(C#N)C1CCC1C	C[C@@H](C#N)[C@H]1CC[C@H]1C	
InChI=1S/C8H13N/c1-6-3-4-8(6)7(2)5-9/h6-8H,3-4H2,1-2H3	InChI=1S/C8H13N/c1-6-3-4-8(6)7(2)5-9/h6-8H,3-4H2,1-2H3/t6-,7+,8+/m1/s1
