17
gdb 97594	3.45934	0.72631	0.6483	1.2392	73.65	-0.261	0.025	0.286	1710.2815	0.133707	-458.890115	-458.880336	-458.879392	-458.926603	34.016	
O	 0.1047365935	 1.1001746344	 0.7495300993	-0.400631
C	-0.1082196711	 0.1505126358	-0.2845613974	-0.194187
C	-1.4297862713	-0.4744297216	-0.2417143449	 0.070407
C	-2.5110780523	-1.0000163385	-0.1602501593	 0.051327
C	-3.8354026512	-1.6254951414	-0.0464014133	-0.097318
O	-3.7653113319	-2.9920243375	 0.3167498635	-0.413163
C	-4.6970691981	-0.8493906153	 0.9532459156	 0.068526
C	-5.8112195688	-1.5015299204	 1.6444086614	-0.184667
O	-4.5514037073	-1.2853507399	 2.3052411516	-0.243574
H	-0.1039572853	 0.6691129902	 1.5850189359	 0.28943
H	 0.0176636435	 0.6997578331	-1.2242142056	 0.142407
H	 0.6615406076	-0.6378493268	-0.2739487033	 0.122737
H	-4.329363444	-1.597830566	-1.02607726	 0.126265
H	-3.5326767536	-2.998551202	 1.2559942463	 0.292995
H	-4.7078982846	 0.2311636097	 0.8173310643	 0.113237
H	-6.6357481617	-0.8990243	 2.0196419938	 0.122832
H	-6.0358325734	-2.5405463539	 1.4194118121	 0.133377
28.5167	55.0857	89.551	141.6041	204.5018	260.7213	287.752	321.5536	359.8506	389.1784	460.464	547.6387	582.1748	681.893	774.3108	817.7944	891.2902	939.1136	985.5758	1004.9885	1048.6813	1098.2748	1102.69	1147.3813	1165.1859	1169.5574	1215.6543	1254.5265	1292.1399	1311.683	1358.7939	1415.4275	1418.5522	1431.3128	1489.3322	1514.3642	2355.1414	2977.3926	3035.2284	3063.8459	3103.4888	3128.2665	3201.2642	3753.1621	3815.7835
OCC#CC(O)C1CO1	OCC#C[C@@H](O)[C@H]1CO1	
InChI=1S/C6H8O3/c7-3-1-2-5(8)6-4-9-6/h5-8H,3-4H2	InChI=1S/C6H8O3/c7-3-1-2-5(8)6-4-9-6/h5-8H,3-4H2/t5-,6-/m1/s1
