23
gdb 116467	2.50918	1.34929	1.03218	1.4642	82.19	-0.2469	0.0847	0.3316	1271.1806	0.206367	-425.43906	-425.429609	-425.428665	-425.473011	35.785	
C	 0.0900409115	 1.3921459889	 0.0071409553	-0.240446
O	 0.0409549157	-0.023828996	-0.0174316008	-0.246936
C	 0.680368715	-0.5977266641	-1.1049698467	 0.236589
O	 2.0711556807	-0.3136772857	-1.0156327663	-0.266565
C	 2.7872804685	-0.7748326989	-2.1516927863	-0.067427
C	 2.6743811308	-2.2937895529	-2.3000212368	-0.198426
C	 1.1957384873	-2.7116576561	-2.307827983	-0.222965
C	 0.4229813318	-2.109945562	-1.1134045002	-0.009363
C	 0.7852149797	-2.7561834913	 0.2300123204	-0.389671
H	 1.117748187	 1.7573921703	 0.1018734987	 0.130118
H	-0.3555191751	 1.8202808669	-0.9038443091	 0.101917
H	-0.4937757173	 1.7134046181	 0.8723284197	 0.124514
H	 0.3027561276	-0.1498302952	-2.0496670108	 0.041069
H	 2.4056586167	-0.2797628245	-3.0624202248	 0.083552
H	 3.8241510859	-0.4572510033	-2.0092927357	 0.105961
H	 3.1703017237	-2.6126264483	-3.2240309807	 0.093165
H	 3.2035081391	-2.773852903	-1.4695925301	 0.108636
H	 0.7345129941	-2.3638131856	-3.2421888437	 0.09176
H	 1.1017936617	-3.8029354252	-2.3019823481	 0.095386
H	-0.6507423406	-2.2501308796	-1.2884993104	 0.074255
H	 1.8304450366	-2.5733133939	 0.4922513272	 0.123728
H	 0.1683493264	-2.3436850226	 1.0309041584	 0.130529
H	 0.6245447234	-3.838461256	 0.1901345037	 0.100619
103.3468	124.6272	168.0263	174.2457	204.5355	223.9315	315.8284	327.8247	368.7742	396.3584	482.2011	513.4125	590.9555	674.9191	805.5929	868.4624	874.5947	901.8387	916.7584	976.1226	1017.3817	1033.0671	1055.1921	1073.6995	1102.9725	1135.1891	1166.3854	1171.7109	1182.0737	1221.9	1239.2612	1247.0541	1302.2597	1324.6022	1356.1313	1370.7681	1375.3141	1389.3264	1397.5004	1418.549	1422.4144	1477.6679	1480.4728	1482.8904	1488.3989	1491.9931	1502.8987	1512.0884	1514.6493	2864.3725	2950.9406	2991.255	3012.7594	3034.5406	3037.4387	3045.4334	3065.2736	3076.2189	3079.3711	3086.8325	3113.9339	3127.3717	3132.7554
COC1OCCCC1C	CO[C@H]1OCCC[C@H]1C	
InChI=1S/C7H14O2/c1-6-4-3-5-9-7(6)8-2/h6-7H,3-5H2,1-2H3	InChI=1S/C7H14O2/c1-6-4-3-5-9-7(6)8-2/h6-7H,3-5H2,1-2H3/t6-,7+/m1/s1
