17
gdb 54488	2.49092	1.62034	1.09819	1.9703	74.62	-0.2434	-0.0264	0.217	1097.3676	0.133916	-421.844614	-421.835926	-421.834982	-421.878817	31.594	
C	 0.0780051231	 1.374176929	-0.4868878961	-0.483956
C	 0.0016138761	 0.0271302676	 0.1948842458	 0.280989
O	 0.9197180593	-0.4415962154	 0.8356320096	-0.318816
C	-1.2720923409	-0.7307367078	 0.0306877358	 0.115822
C	-1.6957875925	-1.7325231676	 1.1195670656	-0.307577
C	-1.4392012017	-2.2825276798	-0.2173029387	-0.080473
C	-2.6426739897	-2.0324597542	-1.1372887781	-0.353935
C	-2.4094281159	-0.5129172332	-0.9231673902	 0.337844
O	-2.8387782725	 0.461042667	-1.4766919175	-0.319048
H	 1.0466077007	 1.8325087398	-0.2853133079	 0.136926
H	-0.0712592411	 1.2610340911	-1.5662078447	 0.151307
H	-0.7336912611	 2.0215295013	-0.1393426048	 0.155139
H	-0.9121223651	-1.8606604582	 1.858581101	 0.159183
H	-2.7083964433	-1.678607057	 1.5092222606	 0.1289
H	-0.6036837037	-2.9340757788	-0.4340473389	 0.129693
H	-2.4768413608	-2.2922936781	-2.1862418817	 0.139492
H	-3.599260581	-2.4494082956	-0.80959006	 0.12851
37.4457	111.5003	123.177	177.9332	198.5343	351.3936	364.9774	409.6098	550.3082	565.3837	584.7098	643.7554	662.0064	766.8246	848.0768	860.8401	935.3791	955.5053	982.2936	1007.3461	1024.7966	1050.0272	1066.3836	1096.1874	1134.9363	1179.3637	1212.8764	1264.4224	1303.7007	1365.4958	1393.2884	1449.5162	1454.4232	1468.8596	1482.9758	1782.2497	1868.2924	3044.3784	3060.6851	3104.9946	3117.1393	3121.8447	3158.1626	3215.8459	3224.6847
CC(=O)C12CC1CC2=O	CC(=O)[C@]12C[C@H]1CC2=O	
InChI=1S/C7H8O2/c1-4(8)7-3-5(7)2-6(7)9/h5H,2-3H2,1H3	InChI=1S/C7H8O2/c1-4(8)7-3-5(7)2-6(7)9/h5H,2-3H2,1H3/t5-,7-/m1/s1
