23
gdb 59775	3.07601	1.06277	0.96649	1.3941	87.95	-0.2306	0.0337	0.2643	1366.4239	0.206597	-388.311554	-388.302151	-388.301207	-388.345624	36.356	
C	-0.1915409262	 1.5538430782	-0.0335679025	-0.418069
C	 0.0170123573	 0.0377662337	-0.0266730927	 0.120352
O	 0.7086373215	-0.3926029026	-1.1967440375	-0.430989
C	 0.8087426032	-0.4830242321	 1.1893700105	-0.01262
C	 0.7418494451	-2.0188400176	 1.2682691258	-0.210055
C	 1.694931954	-2.5693862371	 2.3338945096	-0.217072
C	 3.1499819901	-2.2004913496	 2.0116465045	-0.235415
C	 3.2768290711	-0.7679110817	 1.5642351267	-0.071057
C	 2.243935585	-0.0062865702	 1.2067718382	-0.019718
H	 0.7596305467	 2.0877221039	-0.1081579708	 0.129392
H	-0.8074705151	 1.8499760398	-0.8909347074	 0.102755
H	-0.7091689093	 1.8844182119	 0.8730285413	 0.115241
H	-0.9771547789	-0.4405928051	 0.0146306498	 0.058268
H	 0.2041389187	-0.1038211107	-1.9633000783	 0.280036
H	 0.2960606184	-0.0683362157	 2.0725644245	 0.072843
H	-0.2881466366	-2.33232271	 1.4763212999	 0.080902
H	 1.0089732729	-2.4255380849	 0.2863567897	 0.116041
H	 1.4249487094	-2.1498763909	 3.3122019531	 0.093394
H	 1.5886181315	-3.6563804735	 2.41904101	 0.087609
H	 3.7909396172	-2.3764856231	 2.8851355676	 0.096186
H	 3.5424546857	-2.8620189795	 1.224482436	 0.107105
H	 4.2811525538	-0.350342659	 1.5353367654	 0.07809
H	 2.4268048145	 1.0230395959	 0.9101401064	 0.07678
74.5885	82.5016	209.019	225.5659	242.1426	274.6915	278.8546	324.2279	394.8241	451.5348	465.7503	520.1213	618.4583	677.3924	736.429	800.2048	853.1698	885.4581	906.3339	933.3526	955.3447	1002.0027	1011.4359	1026.6203	1064.1593	1076.2208	1081.7886	1129.2056	1142.6984	1162.1615	1218.8115	1223.1417	1256.9798	1275.0292	1316.8971	1343.0533	1363.5416	1373.6038	1377.7952	1388.6057	1405.14	1417.9143	1430.3289	1474.999	1491.9939	1492.6875	1499.6974	1502.3612	1724.6428	2942.0917	2969.0408	2994.8334	3015.7756	3028.4856	3030.1104	3037.1026	3064.0833	3079.3011	3091.823	3120.736	3138.9865	3166.8034	3822.7675
CC(O)C1CCCC=C1	C[C@@H](O)[C@H]1CCCC=C1	
InChI=1S/C8H14O/c1-7(9)8-5-3-2-4-6-8/h3,5,7-9H,2,4,6H2,1H3	InChI=1S/C8H14O/c1-7(9)8-5-3-2-4-6-8/h3,5,7-9H,2,4,6H2,1H3/t7-,8-/m1/s1
