20
gdb 6216	3.24225	1.73111	1.55822	1.5732	70.67	-0.239	0.0694	0.3084	938.9974	0.175992	-386.154833	-386.146192	-386.145248	-386.187561	33.012	
C	 0.1772021238	 1.525795495	-0.3690806146	-0.416189
C	 0.0688503367	 0.0252529097	-0.0800497862	 0.40892
C	-1.3701489838	-0.3733300833	 0.25443797	-0.423528
C	 0.671687409	-0.8393764344	-1.2181682648	-0.278249
C	 2.0962409615	-1.136053982	-0.7480573449	 0.109931
O	 2.922705098	-0.0497016427	-1.1514129545	-0.430185
C	 1.8916933023	-1.2018567742	 0.7684161003	-0.098217
O	 0.8949243591	-0.2488569871	 1.0797201731	-0.298617
H	 1.2062891034	 1.7803346478	-0.629663569	 0.134057
H	-0.4786178182	 1.8126938155	-1.198143246	 0.102959
H	-0.1165718519	 2.0985165707	 0.5156988129	 0.113902
H	-2.0306199029	-0.2056014188	-0.6032025844	 0.110286
H	-1.4251737379	-1.4314020348	 0.5288382353	 0.109357
H	-1.7445729148	 0.2174585693	 1.095631286	 0.119768
H	 0.1183886859	-1.777659389	-1.3238490689	 0.097197
H	 0.6711619272	-0.3300056665	-2.1836580923	 0.116266
H	 2.4825491004	-2.0843712902	-1.1482686776	 0.064491
H	 3.7652268787	-0.1257832295	-0.6925427231	 0.282643
H	 1.5809351152	-2.2197774405	 1.0600715043	 0.083773
H	 2.8020449682	-0.957828635	 1.3308218943	 0.091433
62.5477	149.4942	226.4122	264.3096	284.6572	295.0204	337.1755	381.1442	391.6552	417.2924	450.0165	619.0894	759.5834	798.3297	847.8593	870.4139	901.1607	927.9197	960.267	983.3669	1008.0637	1026.3409	1064.1005	1104.3879	1160.4514	1182.1618	1214.1655	1236.494	1261.047	1287.5714	1331.2353	1353.6484	1383.9376	1395.3838	1413.3318	1417.0848	1475.2852	1480.9669	1485.9441	1497.1864	1508.8881	1510.9751	2954.2803	3000.5742	3031.245	3038.4272	3039.129	3060.9064	3101.4239	3106.1674	3112.9902	3121.6926	3138.7336	3819.4156
CC1(C)CC(O)CO1	CC1(C)C[C@@H](O)CO1	
InChI=1S/C6H12O2/c1-6(2)3-5(7)4-8-6/h5,7H,3-4H2,1-2H3	InChI=1S/C6H12O2/c1-6(2)3-5(7)4-8-6/h5,7H,3-4H2,1-2H3/t5-/m1/s1
