19
gdb 31725	5.3722	0.8405	0.76895	1.6716	80.93	-0.1756	0.0542	0.2298	1521.4091	0.159654	-419.216369	-419.206853	-419.205909	-419.251288	34.503	
C	 0.3591296769	 0.9893693751	 0.586649605	-0.324716
N	-0.1260975752	 0.1637829211	-0.5275670941	-0.386169
C	-1.346153475	-0.5006765564	-0.3052109852	 0.339496
C	-2.6423142213	-0.2118588092	-0.677090371	-0.377183
C	-3.4544191159	-1.2834960235	-0.2059057131	 0.376865
O	-4.7999494767	-1.3137024572	-0.3964400034	-0.264122
C	-5.4562940218	-2.4465224902	 0.1299640134	-0.239765
C	-2.6464191259	-2.188326206	 0.4484410353	-0.234915
N	-1.3560990736	-1.6844627151	 0.382618943	-0.286592
H	 1.3166325963	 1.4390745817	 0.3079965945	 0.117838
H	-0.338586459	 1.7890986158	 0.8788505912	 0.111216
H	 0.5279376185	 0.3561310072	 1.4620426441	 0.125422
H	-0.1933246441	 0.7217097144	-1.369521572	 0.233534
H	-2.9863776435	 0.6663750878	-1.199988899	 0.089288
H	-5.3263776582	-2.5142498796	 1.2196293575	 0.113279
H	-6.5174478661	-2.3347051747	-0.1003544634	 0.126946
H	-5.0810396747	-3.3741303215	-0.3254832811	 0.113555
H	-2.8627306621	-3.1118768365	 0.9551044096	 0.110276
H	-0.5214391586	-2.1845865234	 0.6327979487	 0.255746
42.4175	77.873	154.5296	170.4261	219.3805	229.8196	310.3213	333.4856	358.1054	472.0167	494.3311	609.2717	622.0613	668.1789	692.9978	706.9442	770.6412	789.9586	974.0928	991.3805	1047.0943	1085.8249	1119.4688	1144.8759	1160.3946	1182.5861	1201.3459	1216.585	1277.2782	1327.4116	1421.404	1433.7145	1453.4111	1474.587	1482.9492	1488.2774	1507.3555	1511.6977	1523.5783	1574.5398	1635.7846	2985.6277	2988.3127	3039.3105	3077.7276	3115.4406	3127.2639	3256.3081	3286.318	3559.7246	3685.6196
CNC1=CC(OC)=CN1	CNc1cc(OC)c[nH]1	
InChI=1S/C6H10N2O/c1-7-6-3-5(9-2)4-8-6/h3-4,7-8H,1-2H3	InChI=1S/C6H10N2O/c1-7-6-3-5(9-2)4-8-6/h3-4,7-8H,1-2H3
