17
gdb 112349	2.33959	1.50867	0.96077	4.493	76.25	-0.2185	-0.0081	0.2104	1204.3716	0.13656	-455.166999	-455.158356	-455.157412	-455.200412	32.155	
C	-0.0809459513	 1.3333857317	 0.0351122326	-0.242696
O	 0.0612215913	-0.0799275347	 0.0090498817	-0.242752
C	 0.6524051744	-0.608095144	 1.1557858443	 0.14045
O	-0.1679932027	-0.4885111314	 2.3075884913	-0.266532
C	-0.4418351713	-1.7557895043	 2.8171015035	 0.415763
N	-1.1395843807	-1.9611158908	 3.8523390385	-0.559132
C	 0.2063292778	-2.7402581159	 1.961862324	-0.315097
C	 0.838362985	-2.0973400627	 0.9656294049	 0.332363
N	 1.6001738602	-2.5297466626	-0.0845500964	-0.592152
H	 0.8908048762	 1.8266027824	 0.1840837279	 0.112121
H	-0.4889921206	 1.6283282377	-0.9333274124	 0.133231
H	-0.765109073	 1.646931644	 0.8308512722	 0.138802
H	 1.59931906	-0.0810398902	 1.3632570098	 0.087013
H	-1.4775303706	-1.0776119297	 4.2351054597	 0.217814
H	 0.1261657439	-3.8022495614	 2.1345298667	 0.114574
H	 1.5234984895	-3.5064200917	-0.3260389744	 0.261378
H	 1.5857377521	-1.9173170965	-0.888239284	 0.264853
90.9966	128.5368	170.7745	180.8552	215.5804	290.5636	401.3981	419.161	451.5236	549.7921	575.1182	598.7756	651.9887	689.6924	741.6434	829.0571	864.1641	895.7056	961.0331	1012.4819	1035.6536	1066.5486	1105.2834	1143.784	1180.4179	1219.8743	1252.5482	1274.8462	1369.4809	1388.4358	1430.3308	1478.1105	1485.497	1511.1182	1640.4086	1723.7152	1767.5814	2962.5302	2999.4066	3078.2518	3134.3882	3257.5763	3486.2953	3563.5656	3668.4975
COC1OC(=N)C=C1N	CO[C@H]1OC(=C[C]1N)[NH]	
InChI=1S/C5H8N2O2/c1-8-5-3(6)2-4(7)9-5/h2,5,7H,6H2,1H3	InChI=1S/C5H8N2O2/c1-8-5-3(6)2-4(7)9-5/h2,5,7H,6H2,1H3/t5-/m0/s1
