16
gdb 105963	3.23548	1.49684	1.20954	2.9384	67.35	-0.2162	0.0507	0.2669	1016.4571	0.12347	-437.744859	-437.737308	-437.736364	-437.776801	29.564	
O	-0.0395605652	 1.3973146397	-0.0666272643	-0.416614
C	 0.0658001548	-0.006184786	 0.0639565004	-0.19829
C	-1.3036311247	-0.6050748597	 0.1848146349	 0.224362
C	-2.5284934799	-0.1218610389	 0.8779162076	-0.09357
C	-3.2051675533	-1.5080080777	 0.7581063696	-0.218651
C	-3.0577363709	-1.3753361362	-0.7494479266	-0.056896
N	-2.4267105382	 0.0082208978	-0.6238268284	-0.231127
C	-1.9549166704	-2.0255618454	 0.0245238082	 0.31025
O	-1.4479554829	-3.2845013448	-0.1136605632	-0.441721
H	-0.7406007137	 1.5466471137	-0.7169986114	 0.29731
H	 0.5894417059	-0.4622215672	-0.7930481254	 0.099261
H	 0.6668823856	-0.2043865915	 0.9589269274	 0.110806
H	-2.6913944819	 0.7332141059	 1.5234788776	 0.105639
H	-3.935291918	-2.0441828456	 1.3469964523	 0.102884
H	-3.6742758641	-1.7067162541	-1.5749789396	 0.110638
H	-1.1966146031	-3.61878763	 0.755553691	 0.295718
104.956	148.6382	237.6571	272.2124	323.6025	379.5926	480.4427	503.4938	598.1377	655.4161	681.0694	752.3616	802.496	813.9005	859.2426	879.2961	922.6398	925.8563	946.9163	997.6662	1023.1097	1036.3138	1066.8088	1095.3767	1165.033	1178.6794	1211.9999	1233.7123	1257.338	1296.4271	1368.4473	1399.8514	1451.0744	1477.1767	1509.8782	2964.4955	3055.5148	3180.5045	3197.605	3224.4741	3740.3061	3777.3874
OCC12C3C4C(N13)C24O	OC[C@@]12[C@@H]3[C@H]4[C@@H](N13)[C@@]24O	
InChI=1S/C6H7NO2/c8-1-5-3-2-4(7(3)5)6(2,5)9/h2-4,8-9H,1H2	InChI=1S/C6H7NO2/c8-1-5-3-2-4(7(3)5)6(2,5)9/h2-4,8-9H,1H2/t2-,3-,4+,5-,6+,7?/m0/s1
