23
gdb 116482	2.87964	1.12387	0.88348	1.0821	87.96	-0.2376	0.0185	0.2561	1400.8211	0.206893	-388.294919	-388.28573	-388.284786	-388.328825	35.292	
C	 0.1802651323	 1.3409793085	 0.1601263356	-0.240304
O	 0.0772312383	-0.0471515868	-0.0520236342	-0.247986
C	-1.2609652997	-0.5293303484	-0.0672748845	 0.090323
C	-1.2402952218	-1.8904709734	-0.776583477	-0.198262
C	-2.6174495453	-2.3700072053	-1.2593500227	-0.198646
C	-3.655332848	-2.6920486491	-0.1732063774	-0.174853
C	-4.0978438139	-1.488608264	 0.684218895	-0.247454
C	-3.0504946441	-1.0049656878	 1.6606377984	-0.070226
C	-1.8257682099	-0.596176085	 1.3361321355	-0.062562
H	 1.2430164498	 1.5949786732	 0.1345206125	 0.124702
H	-0.3407206417	 1.9103476997	-0.6265918376	 0.101601
H	-0.2314349657	 1.6522547148	 1.1321070378	 0.104666
H	-1.8772272704	 0.15884772	-0.6767485858	 0.065901
H	-0.5760929253	-1.7871080736	-1.6414723067	 0.101055
H	-0.786371069	-2.63360967	-0.1106156456	 0.099629
H	-3.0385470331	-1.6120441049	-1.9357548664	 0.091124
H	-2.4690163549	-3.2672894747	-1.8716598657	 0.094622
H	-4.5423314556	-3.1096068823	-0.6652984147	 0.090401
H	-3.2675107279	-3.4773397772	 0.4878485275	 0.096628
H	-4.3955864977	-0.6688766521	 0.0126922799	 0.104361
H	-5.0015571907	-1.7630834481	 1.2376899067	 0.096474
H	-3.3255635972	-1.0183489107	 2.7127386784	 0.085615
H	-1.1307602884	-0.3044743727	 2.1198675711	 0.09319
76.461	111.2742	176.6491	196.672	220.6759	294.8181	332.7943	339.4285	407.5924	445.7556	487.1316	551.5574	651.9082	704.923	792.7846	842.6507	861.1043	902.0042	935.2754	979.7864	995.4354	1005.5759	1040.0062	1074.7513	1102.9703	1125.145	1148.1643	1168.5008	1185.7429	1209.3628	1234.1708	1249.6353	1264.1424	1293.8699	1333.6285	1350.8643	1362.7848	1375.6187	1385.8222	1394.7898	1420.6322	1477.9949	1480.6433	1482.5909	1485.964	1487.8637	1494.6071	1511.9296	1722.7731	2913.7423	2970.5978	2994.2808	3005.1258	3017.4884	3018.9721	3033.8985	3054.8081	3061.8277	3067.8722	3080.9794	3110.5964	3141.5756	3166.3602
COC1CCCCC=C1	CO[C@H]1CCCCC=C1	
InChI=1S/C8H14O/c1-9-8-6-4-2-3-5-7-8/h4,6,8H,2-3,5,7H2,1H3	InChI=1S/C8H14O/c1-9-8-6-4-2-3-5-7-8/h4,6,8H,2-3,5,7H2,1H3/t8-/m1/s1
