18
gdb 79476	2.18636	1.90809	1.21556	4.2362	81.4	-0.2964	0.0207	0.3171	1055.6425	0.148369	-364.75967	-364.752007	-364.751062	-364.791684	29.973	
C	-0.1621425916	 1.5984550533	 0.0029026852	-0.426757
C	-0.0344893907	 0.0847474205	 0.0057378838	-0.05542
C	 1.184801397	-0.5923966824	-0.6591193787	-0.073699
C	 2.1394150045	-0.3013097693	 0.5556000219	-0.082945
C	 2.5830724459	-1.7728905506	 0.6545719608	-0.275388
C	 1.0940587235	-1.8517101302	 0.271857602	-0.078358
C	 0.7172332943	-0.6121272555	 1.1709839362	 0.25248
C	 0.3771757793	-0.6396846985	 2.5678806098	 0.152259
N	 0.0914718633	-0.6509677228	 3.689365353	-0.353067
H	 0.7885102517	 2.0884529838	 0.2357023295	 0.11997
H	-0.4912414121	 1.9558002415	-0.9786392303	 0.122713
H	-0.8998490324	 1.9298724418	 0.74095943	 0.133379
H	-0.9919958835	-0.3937044536	-0.2327057749	 0.080363
H	 1.4788511125	-0.6002612156	-1.7084518951	 0.08339
H	 2.7174267723	 0.6043354159	 0.7351767924	 0.092408
H	 3.296265643	-2.1152332405	-0.1006197478	 0.102817
H	 2.8598719808	-2.1404625734	 1.6465526369	 0.115704
H	 0.4536993923	-2.7210171545	 0.1200393253	 0.090149
118.9949	163.1007	212.0633	222.4684	266.0374	405.1339	495.6844	545.3036	550.8518	562.4347	723.9455	741.7847	843.5718	876.6335	890.0941	911.4144	914.0311	937.8502	1018.6724	1029.5923	1053.8587	1064.3232	1099.2099	1105.2674	1121.2776	1156.8042	1167.798	1184.0554	1222.201	1238.1512	1246.7949	1264.7167	1307.7758	1398.6533	1416.6935	1493.7856	1497.5796	1509.6455	2341.675	3034.5149	3037.8414	3052.0748	3100.6438	3106.6709	3112.3692	3113.4046	3120.1966	3128.8781
CC1C2C3CC2C13C#N	C[C@H]1[C@H]2[C@@H]3C[C@H]2[C@]13C#N	
InChI=1S/C8H9N/c1-4-7-5-2-6(7)8(4,5)3-9/h4-7H,2H2,1H3	InChI=1S/C8H9N/c1-4-7-5-2-6(7)8(4,5)3-9/h4-7H,2H2,1H3/t4-,5-,6+,7-,8+/m0/s1
