18
gdb 51347	5.02165	0.93657	0.90431	2.0351	77.09	-0.2386	-0.0251	0.2135	1307.0205	0.147161	-401.850514	-401.842803	-401.841858	-401.883927	28.893	
O	-0.5629785081	 0.9385578842	 0.8889313493	-0.23608
C	 0.0044388759	 1.0751155913	-0.1636384787	 0.16409
C	 1.3814923933	 1.6804297315	-0.3335488051	-0.319558
C	 1.3528474601	 2.8783843191	-1.2807935056	-0.01605
C	 0.8837918724	 4.2482063293	-0.7651055365	-0.008868
C	 2.2290825411	 4.5802289518	-0.0464895538	-0.072363
C	 2.2955801363	 5.8900565026	-0.821440273	-0.184288
N	 1.6848962622	 4.9756913855	-1.8804373128	-0.163192
C	 2.5703182734	 3.809525691	-1.3595957086	-0.027372
H	-0.4768188642	 0.7578688999	-1.1189257551	 0.074783
H	 1.7680100954	 1.9477642005	 0.653922534	 0.121951
H	 2.0337262177	 0.9050483567	-0.7613338935	 0.121961
H	 0.9404289255	 2.6176169874	-2.2626584642	 0.089441
H	-0.1165491767	 4.5911713249	-0.494289039	 0.090249
H	 2.529242622	 4.344648982	 0.9792365223	 0.07432
H	 1.6320468887	 6.7059311272	-0.5169829916	 0.10447
H	 3.2807788226	 6.279343739	-1.0984876242	 0.102729
H	 3.5572441725	 3.6311395962	-1.791922874	 0.083777
44.6602	73.8572	161.0792	233.1878	320.7511	443.1924	463.1967	569.6165	712.8386	740.9781	800.3814	831.5652	847.0515	872.997	895.6602	914.3801	939.6407	1022.8513	1026.8066	1030.0948	1047.1331	1083.8862	1105.9447	1112.3172	1139.8642	1166.3313	1168.3767	1190.1899	1208.2625	1233.1017	1259.9478	1277.1019	1294.2228	1318.9177	1401.636	1429.8606	1460.3011	1519.4309	1836.5886	2854.8345	3012.2741	3036.409	3045.2505	3054.8422	3093.5539	3097.1825	3100.8963	3102.677
O=CCC1C2C3CN2C13	O=CC[C@H]1[C@H]2[C@@H]3CN2[C@H]13	
InChI=1S/C7H9NO/c9-2-1-4-6-5-3-8(6)7(4)5/h2,4-7H,1,3H2	InChI=1S/C7H9NO/c9-2-1-4-6-5-3-8(6)7(4)5/h2,4-7H,1,3H2/t4-,5-,6-,7+
