20
gdb 109037	2.79985	1.32016	0.9967	2.265	80.85	-0.2114	0.0203	0.2317	1224.9687	0.170896	-403.122649	-403.113799	-403.112855	-403.156121	33.587	
C	-0.2309201176	 1.5521281057	 0.0705115356	-0.396589
C	 0.0334052162	 0.0446386601	 0.0196350876	-0.056568
N	 0.6725028989	-0.3792329643	-1.2531407501	-0.107623
C	 2.032716331	 0.1263195355	-1.488101147	-0.243533
C	 1.8311436696	-1.2240624939	-0.8868127431	-0.065064
C	 1.8934169028	-1.2665935482	 0.6007573363	-0.184088
C	 0.9182576452	-0.521592622	 1.1241575781	 0.292545
C	 0.6556642315	-0.257624618	 2.569493749	-0.182648
O	 1.588751679	-0.9690496179	 3.3624895188	-0.413693
H	 0.6993362517	 2.1275425733	 0.0910345557	 0.117186
H	-0.8053960924	 1.8587838207	-0.8079756361	 0.129926
H	-0.8103026557	 1.814553268	 0.9614474098	 0.114299
H	-0.9468378202	-0.4563895399	 0.0543996377	 0.085976
H	 2.2847796833	 0.2324125505	-2.5402214067	 0.111698
H	 2.4432835831	 0.8925985913	-0.8356537531	 0.110057
H	 2.0044738796	-2.1242518423	-1.4710939575	 0.091291
H	 2.6389413279	-1.811178462	 1.1637921191	 0.114068
H	 0.7136791667	 0.8284908322	 2.761344673	 0.098084
H	-0.3827354664	-0.5528727707	 2.8085570681	 0.094951
H	 1.4020863457	-0.779355448	 4.2861992046	 0.289723
80.3539	138.4956	174.2819	209.1272	232.5222	267.7441	268.7689	388.6794	452.8145	494.2162	547.2095	683.5749	716.6844	746.1602	811.1229	832.7658	859.8345	902.7068	973.8192	1018.1082	1045.3682	1055.6691	1071.5886	1086.1215	1105.5724	1111.4051	1123.7932	1157.5194	1198.6646	1219.1641	1250.7122	1261.5678	1294.0193	1336.0262	1352.1891	1358.9398	1401.9292	1466.4583	1488.2746	1496.2814	1496.8712	1508.7236	1712.5901	2932.682	2949.4601	2970.7243	3039.5218	3100.8045	3107.882	3118.6767	3137.8761	3189.9309	3232.3135	3836.2052
CC1N2CC2C=C1CO	C[C@H]1N2C[C@H]2C=C1CO	
InChI=1S/C7H11NO/c1-5-6(4-9)2-7-3-8(5)7/h2,5,7,9H,3-4H2,1H3	InChI=1S/C7H11NO/c1-5-6(4-9)2-7-3-8(5)7/h2,5,7,9H,3-4H2,1H3/t5-,7-,8?/m1/s1
