19
gdb 93334	1.84713	1.74501	1.00831	4.5539	76.36	-0.2466	-0.0463	0.2004	1198.1607	0.157897	-423.070654	-423.061587	-423.060643	-423.105224	33.071	
C	-0.2011543338	 1.5376313027	-0.0016288967	-0.416185
C	 0.0663340712	 0.0326854763	 0.0277560521	 0.004422
C	 0.92276375	-0.4965532607	-1.1464914026	-0.228165
C	 1.3424253836	-1.9051853988	-0.7094797253	-0.322995
C	 1.4214475121	-1.8401792339	 0.8185133652	 0.381988
O	 1.8913273167	-2.6749286471	 1.5422845882	-0.296978
C	 0.787181552	-0.5042230225	 1.2951798363	-0.198646
C	 1.8899561701	 0.4102811813	 1.8017282606	 0.168355
O	 1.9845024226	 0.7882625697	 2.9393961016	-0.24329
H	 0.7277438607	 2.1174275496	 0.0157408871	 0.123237
H	-0.7435154227	 1.812571908	-0.9121220151	 0.120081
H	-0.8048252743	 1.8518775264	 0.8553838791	 0.130151
H	-0.9010067947	-0.485486739	-0.0132211048	 0.090509
H	 0.3725949913	-0.4836359445	-2.0909522562	 0.110118
H	 1.8056936202	 0.1399428813	-1.2823385085	 0.109643
H	 0.5756165655	-2.648901348	-0.962899175	 0.13822
H	 2.2847311776	-2.2671604177	-1.1279338816	 0.135195
H	 0.121622616	-0.6937298046	 2.140176176	 0.114857
H	 2.6375104559	 0.7174302814	 1.0358964298	 0.079483
51.2181	62.0601	168.1578	198.1916	231.5785	247.332	285.113	421.8548	445.4888	509.0657	520.7928	569.0535	621.0206	778.7945	800.3706	859.3912	922.1317	943.2613	984.637	1001.8466	1017.6013	1064.5229	1088.5411	1143.5471	1151.9212	1175.8793	1220.004	1235.1918	1273.5257	1302.1064	1316.3288	1349.5165	1376.3042	1416.3414	1433.3845	1450.7816	1497.0473	1498.0699	1504.5715	1815.5012	1855.4072	2870.2331	3012.0458	3033.7992	3035.9458	3040.8997	3094.7052	3096.9529	3101.9595	3106.9382	3107.7166
CC1CCC(=O)C1C=O	C[C@H]1CCC(=O)[C@H]1C=O	
InChI=1S/C7H10O2/c1-5-2-3-7(9)6(5)4-8/h4-6H,2-3H2,1H3	InChI=1S/C7H10O2/c1-5-2-3-7(9)6(5)4-8/h4-6H,2-3H2,1H3/t5-,6-/m0/s1
