19
gdb 57438	2.63669	1.29248	1.09565	5.7281	76.46	-0.2652	0.0118	0.2769	1181.4923	0.15746	-419.198875	-419.189263	-419.188319	-419.232999	36.04	
C	 0.2137622146	 1.6129800122	 0.3049367264	-0.403649
C	 0.0184211338	 0.1176475843	 0.0485457707	 0.338867
C	 0.6342206064	-0.7287759517	 1.1771466925	-0.412877
O	-1.3790608001	-0.1068876033	-0.0192740765	-0.456643
C	 0.6741815576	-0.28893795	-1.2732422901	-0.03362
N	 0.0308707567	-1.3970398834	-1.9781399668	-0.345819
C	 0.0591645801	-0.0650431324	-2.6193631802	-0.190242
C	-1.1990338767	 0.6052991816	-2.8530200576	 0.336896
N	-2.1658702454	 1.1741548619	-3.1318058991	-0.33829
H	 1.2766704994	 1.8692010023	 0.3557246993	 0.107506
H	-0.255934286	 2.1999975955	-0.4880929105	 0.139469
H	-0.2527309185	 1.8878420831	 1.2547330812	 0.130606
H	 0.136444333	-0.4931589352	 2.1211554262	 0.129671
H	 0.4965153594	-1.7962028261	 0.9746832192	 0.115756
H	 1.7065676239	-0.5361275143	 1.2917101794	 0.107801
H	-1.5049376933	-0.9670756604	-0.443935698	 0.291703
H	 1.7626876266	-0.2572997549	-1.2665619075	 0.096895
H	 0.6977933611	-2.0197126771	-2.4241867324	 0.250692
H	 0.7590021275	 0.0782767881	-3.4393822261	 0.135279
64.3772	117.4104	192.5364	208.9836	237.3536	250.6227	283.6315	319.7899	368.1389	388.6084	463.694	478.3653	544.183	588.3587	645.8196	731.4292	828.0005	852.97	913.3289	928.8141	960.921	978.8059	982.0451	1017.1872	1078.7478	1143.6478	1167.601	1205.3132	1215.393	1240.6073	1274.7791	1363.3114	1393.7021	1414.3658	1421.8005	1445.1842	1475.8378	1486.2634	1500.0617	1507.4023	2361.4366	3030.8466	3044.9752	3099.5098	3116.497	3121.3677	3124.6813	3129.847	3139.9882	3523.1884	3745.3663
CC(C)(O)C1NC1C#N	CC(C)(O)[C@H]1N[C@H]1C#N	
InChI=1S/C6H10N2O/c1-6(2,9)5-4(3-7)8-5/h4-5,8-9H,1-2H3	InChI=1S/C6H10N2O/c1-6(2,9)5-4(3-7)8-5/h4-5,8-9H,1-2H3/t4-,5-/m0/s1
