17
gdb 15894	2.68263	1.99603	1.27309	4.4454	64.77	-0.2362	0.0088	0.245	975.4842	0.141701	-401.014822	-401.006443	-401.005499	-401.047863	29.818	
C	-0.182140183	 1.5214189472	-0.1213030696	-0.327225
N	 0.3705641669	 0.1894883209	 0.1321979511	-0.291032
C	 0.9347419779	-0.420475215	-1.0533296767	-0.187924
C	 1.3039262343	-1.9253108192	-0.9731914504	 0.120217
C	 1.030685699	-2.6786049031	 0.3083865054	-0.407224
O	 0.2898859084	-2.2199188851	-2.0052060739	-0.252098
C	-0.107424265	-0.9142551099	-2.0697707081	 0.480877
O	-0.9822118158	-0.448297317	-2.7285042452	-0.329991
H	 0.5540014859	 2.2378302206	-0.5256523215	 0.098341
H	-0.9994790854	 1.4398025317	-0.8416598121	 0.162399
H	-0.5827625473	 1.9258343056	 0.8118919077	 0.122111
H	 1.090470102	 0.2524236028	 0.8455434128	 0.224229
H	 1.7145290901	 0.1835794767	-1.5504312214	 0.087051
H	 2.2919275921	-2.1574064691	-1.3800797874	 0.096605
H	 0.0587523167	-2.4026166615	 0.7208711604	 0.149139
H	 1.0522027482	-3.7556980129	 0.1200509932	 0.135582
H	 1.8025751548	-2.4509920627	 1.0517716758	 0.118943
92.2192	102.4328	162.8832	201.6144	210.5771	259.4194	337.3508	384.4162	478.8571	541.8098	698.2505	742.6335	792.0856	853.8818	883.5366	908.9409	1013.346	1052.2157	1066.0085	1128.8268	1147.5546	1150.9144	1181.5423	1207.0358	1264.4793	1321.7916	1365.2599	1383.2675	1413.6054	1458.3172	1475.3479	1485.6257	1490.5565	1495.9046	1520.28	1929.0188	2940.8432	2956.7594	3043.5338	3075.6922	3084.4277	3110.326	3132.7273	3146.4068	3506.932
CNC1C(C)OC1=O	CN[C@H]1[C@@H](C)OC1=O	
InChI=1S/C5H9NO2/c1-3-4(6-2)5(7)8-3/h3-4,6H,1-2H3	InChI=1S/C5H9NO2/c1-3-4(6-2)5(7)8-3/h3-4,6H,1-2H3/t3-,4+/m1/s1
