18
gdb 91524	2.5689	1.51255	1.19939	4.8799	72.63	-0.244	0.0033	0.2473	1082.7762	0.147702	-439.079269	-439.070961	-439.070016	-439.112149	31.465	
C	-0.0982359698	 1.5006031307	 0.0326228416	-0.342579
N	 0.1183498736	 0.0590623196	-0.0085678421	-0.158766
H	-1.4180270153	-0.9056265115	 0.9594506294	 0.298454
C	 1.155219228	-0.4803930169	-0.9434897108	-0.183384
C	 1.8363637667	-1.2113845824	 0.2163326565	-0.114921
C	 2.237041539	-0.2429673148	 1.2887706499	-0.331944
C	 0.7803482462	-0.5790117817	 1.1364621199	 0.188805
C	-0.0447842896	-1.2544985873	 2.1786446017	 0.381267
O	-1.3521227651	-1.2948587386	 1.8531560975	-0.383433
O	 0.3933442886	-1.7377006924	 3.1887658341	-0.350826
H	 0.8248893223	 2.0833361446	 0.1783353973	 0.11056
H	-0.5623370291	 1.8230999636	-0.904360448	 0.12972
H	-0.785241996	 1.7364621672	 0.8512094553	 0.135607
H	 0.7167108919	-1.1302055047	-1.7055764181	 0.122898
H	 1.7640800001	 0.2899463232	-1.4336609752	 0.108377
H	 2.1499439703	-2.2461552512	 0.2142429184	 0.120371
H	 2.691208526	-0.6869651981	 2.1675528808	 0.154249
H	 2.5964044824	 0.7497815607	 1.0319555318	 0.115544
99.6989	132.295	188.2856	214.7938	217.1634	310.7018	387.9897	419.8284	511.0491	545.625	660.3499	717.7634	741.955	770.7786	843.7087	859.382	904.4289	934.8599	949.0586	1018.1042	1026.4803	1078.4153	1092.8206	1126.048	1154.3141	1179.2003	1201.0657	1217.9962	1243.1554	1285.1228	1329.2972	1345.1311	1417.3365	1451.4161	1473.7131	1488.6241	1502.34	1510.0974	1863.6234	2979.54	3023.1888	3072.6484	3089.0034	3111.5673	3122.6095	3214.4041	3225.6912	3581.1499
C[NH+]1CC2CC12C([O-])=O	CN1C[C@H]2C[C@@]12C(=O)O	
InChI=1S/C6H9NO2/c1-7-3-4-2-6(4,7)5(8)9/h4H,2-3H2,1H3,(H,8,9)	InChI=1S/C6H9NO2/c1-7-3-4-2-6(4,7)5(8)9/h4H,2-3H2,1H3,(H,8,9)/t4-,6-/m1/s1
