19
gdb 107499	2.04456	1.84868	1.24303	2.4337	75.94	-0.2323	0.0583	0.2906	1068.441	0.160196	-419.121846	-419.113587	-419.112642	-419.154453	32.292	
O	 0.275868097	 1.2961970474	 0.3577989737	-0.401585
C	 0.0359522969	-0.0464393866	-0.0492585362	-0.202538
C	-1.4153737717	-0.4150776917	-0.0155249963	 0.220877
N	-1.9185736809	-1.6430841431	-0.6896068358	-0.372226
C	-2.4981001539	-0.3251437059	-1.0464763025	-0.120151
C	-3.5610514825	-0.0252066011	 0.0225463208	-0.29707
C	-2.4314185992	-0.1041553977	 1.0769259417	 0.339296
C	-2.4072783755	-0.5014048918	 2.4962099596	-0.305503
N	-2.2637685038	 0.9189031852	 2.1026978356	-0.379404
H	-0.2660045148	 1.8689633653	-0.1962849853	 0.287601
H	 0.4402982096	-0.2440659481	-1.0561898926	 0.092699
H	 0.6070050199	-0.6663681306	 0.6520886239	 0.124383
H	-1.2418435908	-1.8800391134	-1.4181612438	 0.22405
H	-2.4577719188	 0.0369041103	-2.067093438	 0.094836
H	-3.973430267	 0.9844923237	-0.0368375201	 0.113544
H	-4.3642477292	-0.7619755076	 0.0939017259	 0.111947
H	-3.3339219458	-0.7379830618	 3.0122025458	 0.118574
H	-1.5358907483	-1.037859865	 2.8647916762	 0.109573
H	-1.286873351	 1.2027665625	 2.1379965274	 0.241097
104.4278	158.8782	175.6205	209.3265	307.092	376.5752	379.8568	423.9737	445.4964	517.3003	597.287	659.3448	781.3463	835.7533	864.661	883.1245	907.4461	941.6748	945.2306	979.0272	1006.6265	1041.0497	1050.2036	1062.1208	1079.5272	1114.7344	1138.4199	1172.3347	1193.3606	1230.8358	1248.5726	1278.7771	1313.0213	1324.1074	1368.7206	1408.9348	1426.9074	1441.3115	1476.0188	1500.0186	1517.0278	2965.9553	3056.4162	3067.9912	3102.3836	3129.2647	3182.7546	3186.0021	3439.0453	3497.97	3804.1658
OCC12NC1CC21CN1	OC[C@]12N[C@H]1C[C@]12CN1	
InChI=1S/C6H10N2O/c9-3-6-4(8-6)1-5(6)2-7-5/h4,7-9H,1-3H2	InChI=1S/C6H10N2O/c9-3-6-4(8-6)1-5(6)2-7-5/h4,7-9H,1-3H2/t4-,5+,6-/m0/s1
