23
gdb 119716	2.92586	1.03064	0.90396	1.0917	87.34	-0.2378	0.0886	0.3264	1441.0342	0.204971	-388.253518	-388.243686	-388.242742	-388.288484	36.386	
C	-0.0984720759	 1.4499717504	-0.7968609064	-0.219556
O	-0.0619041605	 0.0824947454	-1.1226159441	-0.232642
C	 0.7406552925	-0.6732068193	-0.2402547328	-0.179847
C	 0.707680604	-2.120053595	-0.6400501596	 0.326471
C	 1.7057597005	-3.1566583673	-0.0991050896	-0.304293
C	 1.7829427927	-3.8046160995	-1.5191285238	-0.223215
C	 0.7833222091	-2.7611719103	-2.0337681108	-0.113441
C	-0.5032231067	-2.7822732972	-1.2403141929	-0.038408
C	-1.1894149373	-4.0236329094	-0.7096801238	-0.42307
H	-0.5112770261	 1.6196429868	 0.2104995019	 0.103183
H	 0.9032120021	 1.9071468204	-0.8361747007	 0.102967
H	-0.7407422456	 1.9448320173	-1.5295391119	 0.126005
H	 1.78062698	-0.2988618603	-0.2587501182	 0.080484
H	 0.380995236	-0.5537365569	 0.799156731	 0.083044
H	 2.6565948855	-2.7040710822	 0.1955410858	 0.097884
H	 1.358473936	-3.7876354117	 0.7254431634	 0.092927
H	 2.7745182787	-3.6951985637	-1.9636997381	 0.099774
H	 1.4843624837	-4.8545559565	-1.6053319343	 0.094242
H	 0.8368160737	-2.268909934	-2.997950741	 0.083643
H	-1.1954578063	-2.0314566245	-1.6132965259	 0.100158
H	-0.4830591429	-4.7736023508	-0.3437017117	 0.116126
H	-1.8609160705	-3.7739886658	 0.1196171186	 0.113095
H	-1.7933868425	-4.4972558656	-1.4918009749	 0.11447
68.021	78.3503	143.7988	178.017	207.6118	237.0067	244.1787	264.4994	345.4741	384.0324	450.6733	550.8332	684.0837	724.014	751.8827	795.7568	887.1051	925.0926	947.8102	975.7511	986.8048	993.9964	1038.4336	1058.0234	1103.8976	1123.795	1136.2935	1153.5828	1166.4876	1186.5524	1209.3035	1220.3419	1236.3505	1243.4875	1268.1032	1269.7212	1294.0829	1344.2807	1413.9353	1424.3394	1468.8462	1476.1277	1481.0698	1484.8089	1500.9288	1503.2226	1508.449	1511.2675	1526.9022	2922.3388	2943.9286	2968.704	3010.8056	3029.7545	3042.5283	3049.5553	3085.4358	3086.8593	3105.3304	3108.8711	3112.6435	3150.4491	3177.1949
COCC12CCC1C2C	COC[C@]12CC[C@H]1[C@H]2C	
InChI=1S/C8H14O/c1-6-7-3-4-8(6,7)5-9-2/h6-7H,3-5H2,1-2H3	InChI=1S/C8H14O/c1-6-7-3-4-8(6,7)5-9-2/h6-7H,3-5H2,1-2H3/t6-,7+,8+/m1/s1
