21
gdb 9265	5.49554	0.77384	0.71228	4.2918	79.88	-0.3105	0.0391	0.3496	1598.9655	0.187391	-329.158997	-329.149012	-329.148068	-329.194527	35.137	
C	 0.0968586443	 1.5421294904	 0.0889562959	-0.393607
C	-0.0258370194	 0.0181415856	-0.0083981419	-0.172863
C	-1.4717486666	-0.5141044388	-0.0651221082	 0.038269
C	-2.205614907	-0.0464413377	-1.3307700819	-0.395912
C	-1.4587753389	-2.0485423382	 0.0618975875	-0.180279
C	-2.8593926483	-2.6747579053	 0.2285493012	-0.355589
C	-2.7984772934	-4.1185719088	 0.4455297281	 0.259338
N	-2.7313186538	-5.2596503793	 0.616053572	-0.306489
H	 1.1439709417	 1.8392733163	 0.2016345691	 0.117108
H	-0.2902919914	 2.0461536411	-0.8015190375	 0.120365
H	-0.4518781753	 1.9283632188	 0.9554166026	 0.114971
H	 0.5199573819	-0.3392614148	-0.8925742482	 0.097054
H	 0.475555157	-0.4313372654	 0.858021675	 0.096313
H	-2.0067879662	-0.1115079461	 0.8089867237	 0.071654
H	-3.247236395	-0.3808996835	-1.3513292048	 0.113563
H	-2.2219748441	 1.044071951	-1.4035453623	 0.122514
H	-1.7129052765	-0.4333265125	-2.2310895981	 0.117259
H	-0.9736915603	-2.4901634019	-0.8172361751	 0.116397
H	-0.8508860742	-2.3348126229	 0.9270768488	 0.116593
H	-3.3782521359	-2.218866934	 1.0805287169	 0.149593
H	-3.4812001986	-2.4899108942	-0.6533732129	 0.153748
54.988	74.8339	93.1192	112.7198	204.6656	228.9105	254.9978	297.367	359.3894	394.0152	427.6183	449.1691	566.9032	757.8197	775.6403	827.3879	916.6591	944.2538	947.3263	979.633	1018.2157	1025.4648	1057.5101	1139.5942	1147.6539	1180.535	1224.3143	1271.8579	1300.2944	1317.0896	1331.7453	1377.1019	1383.4316	1388.169	1414.4833	1418.8914	1467.1331	1481.407	1492.3692	1496.6431	1498.3908	1508.2655	1515.5621	2361.5832	2984.1021	3012.364	3029.7015	3034.1554	3035.0181	3044.3064	3047.5918	3069.6887	3091.6953	3097.8128	3100.1463	3107.3558	3116.1984
CCC(C)CCC#N	CC[C@@H](C)CCC#N	
InChI=1S/C7H13N/c1-3-7(2)5-4-6-8/h7H,3-5H2,1-2H3	InChI=1S/C7H13N/c1-3-7(2)5-4-6-8/h7H,3-5H2,1-2H3/t7-/m1/s1
