17
gdb 27529	5.60131	0.91399	0.83128	2.1691	76.6	-0.2137	0.0168	0.2305	1381.5863	0.135662	-421.836774	-421.828511	-421.827566	-421.870303	30.134	
C	 0.1131050293	 1.502097477	 0.0805281241	-0.48822
C	-0.0629981786	 0.0287805325	-0.0060338143	 0.387348
C	-1.1387043209	-0.7951717517	 0.1156541918	-0.414547
C	-0.6577365183	-2.136482396	-0.0796936683	 0.264777
C	 0.6790871766	-2.0184971169	-0.2983007695	-0.116451
O	 1.0551815797	-0.7110047682	-0.2583551501	-0.181236
C	-1.4365683545	-3.3907659662	-0.0480467557	-0.050355
C	-1.589990643	-4.2535215971	-1.2358061223	-0.167349
O	-0.6926916809	-4.6046164155	-0.1838051996	-0.230359
H	 0.8185687665	 1.7760069064	 0.8731256665	 0.140045
H	 0.4987312903	 1.9171086624	-0.8576782972	 0.139192
H	-0.8457550799	 1.9784225926	 0.2961270341	 0.135347
H	-2.1546619015	-0.4904018677	 0.3156383489	 0.106248
H	 1.4596013907	-2.7396576557	-0.4686724913	 0.146675
H	-2.2289193684	-3.4349816711	 0.700714299	 0.097532
H	-2.4679596068	-4.8913184591	-1.3340761873	 0.114683
H	-1.1197071304	-3.9471294855	-2.1684963088	 0.11667
60.6518	116.5242	140.9594	156.2723	248.5853	312.9219	406.5299	456.5176	630.1356	637.5798	671.3762	711.1721	758.8323	810.5419	859.5143	893.1779	941.564	980.2734	1011.2125	1039.4586	1064.6196	1095.618	1141.5582	1160.5555	1168.7851	1176.1296	1229.962	1274.915	1290.6758	1367.1802	1415.4777	1449.7169	1472.4967	1489.8181	1519.1338	1591.5197	1658.4562	3031.2161	3080.8831	3081.8129	3097.1669	3129.9138	3175.0231	3249.3626	3292.7836
CC1=CC(=CO1)C1CO1	Cc1cc(co1)[C@H]1CO1	
InChI=1S/C7H8O2/c1-5-2-6(3-8-5)7-4-9-7/h2-3,7H,4H2,1H3	InChI=1S/C7H8O2/c1-5-2-6(3-8-5)7-4-9-7/h2-3,7H,4H2,1H3/t7-/m1/s1
