16
gdb 97733	6.1855	0.64545	0.59425	1.9525	79.6	-0.2429	-0.0265	0.2164	1814.9972	0.124201	-437.859779	-437.850682	-437.849738	-437.896068	30.703	
O	 0.1292073075	 1.348815847	-0.2066460255	-0.396301
C	 0.0259191675	-0.0417110907	 0.0456086958	-0.206669
C	-1.3472193153	-0.5419365831	-0.0038630745	 0.279843
C	-2.4956559149	-0.9062691027	-0.0115148205	-0.069775
C	-3.8500905977	-1.3416668124	-0.027921213	 0.224533
N	-4.8635479563	-0.611175679	 0.2222937881	-0.322479
C	-6.0401453978	-1.4786706197	 0.0744658845	-0.198829
C	-5.4647361208	-2.8730195313	-0.2862516087	-0.118879
O	-4.0366234751	-2.6563223987	-0.3434368591	-0.255564
H	-0.4775821237	 1.801256937	 0.3890878809	 0.294709
H	 0.6293157764	-0.535293168	-0.7242172475	 0.150522
H	 0.4675490293	-0.3152704967	 1.0177467736	 0.128098
H	-6.6137806874	-1.487989761	 1.0071921119	 0.122341
H	-6.6973518116	-1.0791871921	-0.7055237641	 0.123103
H	-5.6635331009	-3.6368645489	 0.4707928705	 0.122057
H	-5.7919986693	-3.2449894397	-1.2607568624	 0.12329
21.0549	71.1123	78.5343	99.6803	188.6878	249.4984	329.0883	405.731	435.4822	520.1295	619.2119	713.9359	759.0313	828.3189	895.1387	948.87	977.3186	986.9043	1015.8591	1035.1347	1074.4499	1116.9779	1213.3068	1216.1326	1245.8337	1264.447	1346.8886	1357.941	1385.9583	1418.1461	1484.9768	1499.4555	1526.4838	1696.4636	2363.5608	2975.0391	3040.5832	3056.7286	3066.6153	3068.6502	3105.2971	3815.1674
OCC#CC1=NCCO1	OCC#CC1=NCCO1	
InChI=1S/C6H7NO2/c8-4-1-2-6-7-3-5-9-6/h8H,3-5H2	InChI=1S/C6H7NO2/c8-4-1-2-6-7-3-5-9-6/h8H,3-5H2
