15
gdb 50190	5.04679	1.08334	0.97981	5.0573	69.25	-0.2437	-0.0405	0.2032	1159.2139	0.112044	-453.902585	-453.894873	-453.893928	-453.93544	28.231	
N	 0.1563192306	 1.0896965173	 0.5995495888	-0.537836
C	 0.0713171201	-0.0420066456	 0.0526053045	 0.390524
N	 0.9618711052	-0.9905844891	-0.4832412391	-0.336674
C	-0.0656582782	-1.9835767708	-0.7663341925	-0.063982
C	-0.5709831904	-2.8273789342	 0.4491558288	 0.008965
O	-1.4621262157	-1.7870530061	 0.8610016328	-0.271197
C	-1.1197566604	-0.9524446763	-0.2659892125	 0.028658
C	-1.2723635732	-4.1011456302	 0.026523894	 0.142495
O	-2.457838301	-4.2217361019	-0.1181016109	-0.223214
H	 1.125524631	 1.3849108733	 0.7313755584	 0.215601
H	 1.91142059	-1.1702431217	-0.1845776765	 0.24333
H	-0.0287822411	-2.4472299499	-1.751317342	 0.110628
H	 0.1989166654	-3.0641018612	 1.1974230648	 0.100586
H	-1.9850590858	-0.5741405837	-0.8074330734	 0.117963
H	-0.5614141566	-4.9362293799	-0.1835149252	 0.074152
65.161	108.5019	154.1358	263.1999	311.6179	345.8648	430.7012	472.092	648.1264	727.563	764.8736	804.6255	826.425	845.3439	901.1553	907.7647	977.4972	990.5602	1034.9149	1051.4415	1076.723	1092.7956	1155.7399	1195.8842	1215.969	1263.4847	1284.7448	1332.2272	1348.9307	1364.4023	1412.563	1803.7473	1844.3919	2845.654	3012.9595	3119.1234	3142.6849	3459.5726	3578.6068
N=C1NC2C(OC12)C=O	[NH][C]1N[C@H]2[C@@H](O[C@@H]12)C=O	
InChI=1S/C5H6N2O2/c6-5-4-3(7-5)2(1-8)9-4/h1-4H,(H2,6,7)	InChI=1S/C5H6N2O2/c6-5-4-3(7-5)2(1-8)9-4/h1-4H,(H2,6,7)/t2-,3-,4+/m0/s1
