18
gdb 106132	3.36519	1.43201	1.36311	1.3608	75.37	-0.23	-0.0008	0.2292	1009.3935	0.14931	-401.896347	-401.888952	-401.888007	-401.928325	29.471	
O	 0.0504679016	 1.2692713823	-0.5709276693	-0.415572
C	 0.028619232	 0.0726243331	 0.1935260991	-0.200821
C	-1.3570352034	-0.4797044202	 0.3087064888	 0.329741
C	-1.8035356016	-1.8884432392	 0.3105924794	-0.120205
C	-2.8205365424	-2.0679444666	 1.3754157627	-0.081817
C	-3.2532327432	-0.865929163	 1.7810524391	-0.096005
C	-2.6356724276	 0.1937488017	 0.9067741564	-0.165649
C	-3.2204800996	-0.0511732599	-0.5297577223	-0.141219
N	-2.1082511233	-0.9715464451	-0.8974013942	-0.214207
H	-0.2926468951	 1.0393653012	-1.442328976	 0.29169
H	 0.686613181	-0.6967040249	-0.2395988371	 0.096619
H	 0.4240786255	 0.3324212983	 1.1814705867	 0.117145
H	-1.1370266074	-2.6873971464	 0.0088099238	 0.097023
H	-3.1705097915	-3.0356028433	 1.7105885738	 0.102994
H	-4.0554430928	-0.672382785	 2.482874606	 0.102172
H	-2.5996199239	 1.2152476601	 1.2790025296	 0.084207
H	-4.2313396441	-0.4651824682	-0.601278632	 0.100759
H	-3.1276176243	 0.8354657951	-1.1609406245	 0.113145
68.5266	143.1821	256.3101	344.443	364.8606	432.9396	450.8578	552.3878	618.9985	678.776	731.7567	759.0903	810.1868	832.411	874.3622	899.5041	926.6938	944.416	960.8444	984.3987	1020.8321	1034.6583	1063.6944	1105.2353	1124.7616	1158.0649	1174.0284	1184.3569	1234.3343	1259.4395	1278.2734	1301.1459	1355.0865	1377.5971	1411.0445	1443.1302	1485.5279	1487.6234	1634.1695	2986.5145	3046.0899	3073.0933	3112.4145	3140.6773	3189.6345	3200.5774	3227.0758	3795.654
OCC12C3C=CC1CN23	OC[C@@]12[C@H]3C=C[C@@H]1CN23	
InChI=1S/C7H9NO/c9-4-7-5-1-2-6(7)8(7)3-5/h1-2,5-6,9H,3-4H2	InChI=1S/C7H9NO/c9-4-7-5-1-2-6(7)8(7)3-5/h1-2,5-6,9H,3-4H2/t5-,6-,7+,8?/m1/s1
