19
gdb 93137	2.56182	1.70239	1.2007	3.4171	76.79	-0.2329	0.0324	0.2652	1072.9551	0.161027	-419.18422	-419.17613	-419.175186	-419.216909	31.033	
C	 0.2016349977	 1.5834905699	-0.0016884273	-0.401595
C	 0.0629862129	 0.064803473	-0.0273971135	 0.115632
O	 0.8431976461	-0.365828385	-1.1488182606	-0.227462
C	 0.9345905382	-1.664624898	-1.5312112107	 0.148156
N	 0.7029324485	-2.771115045	-0.9796420416	-0.266431
C	 0.2861675636	-3.0327872598	 0.3806163428	-0.171967
C	 0.5845968901	-2.0258336834	 1.4756706906	-0.039627
N	 1.7986617315	-1.201297288	 1.3612664616	-0.327101
C	 0.4775223494	-0.5625164129	 1.2916830305	-0.037619
H	 1.2394303817	 1.8628980863	 0.2024485635	 0.135552
H	-0.0893743762	 2.0082072731	-0.965275457	 0.127625
H	-0.437645447	 2.0124243876	 0.7757164717	 0.114623
H	-0.9866767909	-0.2024344052	-0.2219871459	 0.088373
H	 1.3073867218	-1.6687852841	-2.5568248164	 0.114947
H	-0.7955344326	-3.2355020138	 0.3855810935	 0.112214
H	 0.7549991943	-3.983943329	 0.6666156045	 0.115405
H	 0.3304750304	-2.4030625379	 2.466930511	 0.081563
H	 2.224573121	-1.0535152009	 2.2712525362	 0.234455
H	 0.1421537695	 0.0139427431	 2.1531073171	 0.083256
79.4214	122.9101	225.6828	263.2381	282.0274	303.3965	376.7903	445.6394	470.0002	613.3877	659.7566	753.1015	781.6234	827.9986	844.0823	885.0706	939.778	965.6243	970.5054	1007.1184	1040.5046	1049.7595	1092.5049	1123.9152	1155.9938	1171.0661	1181.0884	1226.3891	1256.9766	1305.0257	1345.3275	1369.7632	1392.4466	1407.1445	1409.6607	1446.2928	1476.9437	1484.625	1492.9333	1499.3969	1780.0865	2990.5329	2997.9535	3023.5634	3045.4479	3095.6758	3112.3447	3121.149	3124.1464	3129.6947	3517.3802
CC1OC=NCC2NC12	C[C@H]1OC=NC[C@H]2N[C@@H]12	
InChI=1S/C6H10N2O/c1-4-6-5(8-6)2-7-3-9-4/h3-6,8H,2H2,1H3	InChI=1S/C6H10N2O/c1-4-6-5(8-6)2-7-3-9-4/h3-6,8H,2H2,1H3/t4-,5-,6+/m1/s1
