17
gdb 73182	2.4081	1.47132	1.34147	3.7196	72.15	-0.2529	0.018	0.2709	1039.2138	0.136725	-417.978482	-417.970298	-417.969353	-418.011519	30.74	
N	 0.2774265798	 1.3630941212	-0.0002219369	-0.596136
C	-0.0211511141	-0.0397453907	-0.0365068817	 0.249317
C	 0.1096090004	-0.89817917	-1.31949659	-0.139113
O	-1.2209523419	-1.4388078522	-1.1417901809	-0.28582
C	-1.4584980597	-0.6441900123	 0.032124403	 0.087734
C	-1.1144676455	-1.4043176425	 1.3309951093	-0.254946
C	 0.3345375287	-0.7956029442	 1.2910436501	-0.18032
C	 1.4649680716	-1.705910327	 1.2671243094	 0.274204
N	 2.3636879847	-2.4329071389	 1.2223364972	-0.336825
H	 1.278562012	 1.5136159229	 0.0979641353	 0.239959
H	-0.004601029	 1.8147403292	-0.8658887885	 0.236972
H	 0.1777322821	-0.2935106954	-2.2344889471	 0.096604
H	 0.883809898	-1.6737243118	-1.338972855	 0.129057
H	-2.3858958003	-0.0691265906	-0.0168594799	 0.087097
H	-1.672917845	-1.0908602788	 2.2146057814	 0.121612
H	-1.170020379	-2.4877888682	 1.2234285954	 0.136679
H	 0.4772494373	-0.0648123408	 2.090429519	 0.133924
59.5487	136.854	176.5351	220.4657	292.4588	363.8151	373.7714	413.7075	522.5501	549.6745	645.1035	656.346	764.4987	839.9687	854.973	904.7001	918.0601	986.5316	1003.3364	1018.5062	1041.6031	1075.6378	1118.6313	1137.7997	1156.2661	1183.768	1189.9035	1262.5576	1286.5372	1314.3257	1324.1983	1332.0925	1387.5414	1464.0887	1518.3935	1652.9662	2349.4597	3003.0819	3066.8866	3080.1712	3086.8067	3091.9737	3150.3491	3479.4135	3559.344
NC12COC1CC2C#N	N[C@]12CO[C@H]1C[C@H]2C#N	
InChI=1S/C6H8N2O/c7-2-4-1-5-6(4,8)3-9-5/h4-5H,1,3,8H2	InChI=1S/C6H8N2O/c7-2-4-1-5-6(4,8)3-9-5/h4-5H,1,3,8H2/t4-,5-,6-/m0/s1
