19
gdb 44202	3.81541	1.12977	1.103	3.473	80.83	-0.2359	-0.0069	0.2291	1181.1354	0.159486	-385.870216	-385.862381	-385.861437	-385.902859	30.635	
O	 0.0272918506	 0.0580035424	 0.0869807981	-0.320569
C	 0.0357077998	 1.2519411754	-0.0211470783	 0.422873
C	-1.0995759825	 2.3128998381	-0.0686195052	-0.369124
C	-0.0083770948	 3.3830458566	 0.0884926734	-0.131646
C	 1.10910932	 2.2907575152	 0.0720593157	-0.259951
C	 0.9483490042	 3.3158361799	-1.0402746124	 0.368034
C	 0.6620393951	 3.154752233	-2.5439178126	-0.300049
C	 1.440121634	 4.4827936818	-2.7818451879	-0.207088
C	 1.9909319049	 4.4093933387	-1.3275461727	-0.306208
H	-1.7237032327	 2.3581037484	-0.9654897293	 0.118786
H	-1.7433518979	 2.2027525883	 0.8089470106	 0.131481
H	-0.06227634	 4.2304623804	 0.7608967835	 0.10142
H	 2.0410199588	 2.215106475	 0.6205732512	 0.103076
H	 1.1652821995	 2.2854957835	-2.9765769174	 0.115013
H	-0.3867814088	 3.1367344799	-2.8503861179	 0.105601
H	 2.1807998261	 4.4782487129	-3.5834797077	 0.10511
H	 0.7724004674	 5.3346672833	-2.929899077	 0.10856
H	 1.9311832151	 5.3179772064	-0.7222110292	 0.10468
H	 3.0169595613	 4.031899021	-1.2863875848	 0.11
77.1232	104.9484	195.2458	223.206	353.6742	402.6118	466.1207	504.7794	603.9794	650.8735	703.7737	785.1115	811.4743	838.5458	859.6919	877.9104	927.2226	939.6004	954.6774	972.8174	988.5622	1017.0911	1045.5352	1062.2853	1108.7158	1142.3916	1160.2291	1197.3047	1214.1517	1228.8168	1231.617	1255.1675	1265.0163	1279.817	1290.2421	1413.1184	1461.4336	1474.9657	1481.7818	1505.6413	1877.0493	3050.3519	3055.7096	3059.725	3071.3149	3096.6898	3103.9537	3111.4649	3128.4297	3181.9144	3192.6037
O=C1CC2C1C21CCC1	O=C1C[C@H]2[C@@H]1C12CCC1	
InChI=1S/C8H10O/c9-6-4-5-7(6)8(5)2-1-3-8/h5,7H,1-4H2	InChI=1S/C8H10O/c9-6-4-5-7(6)8(5)2-1-3-8/h5,7H,1-4H2/t5-,7-/m0/s1
