17
gdb 19186	3.22455	2.26487	1.78685	2.093	69.17	-0.1942	0.0144	0.2086	800.2323	0.142006	-363.788043	-363.780852	-363.779908	-363.818842	28.569	
C	 0.0098482045	 1.4876732464	-0.1012518223	-0.333519
N	 0.0256977143	 0.027891681	-0.0317220609	-0.089478
C	-1.1455196552	-0.6753798709	 0.6307655581	-0.119523
C	-0.7303245135	-2.1227863119	 0.3928574802	-0.069809
C	 0.5711478938	-2.1013635816	 0.7077059385	-0.07073
C	 0.7870098859	-0.6394901126	 1.0985381008	-0.088151
C	-0.4513892045	-0.4705675997	 2.0496105096	 0.160388
O	-0.5309595182	 0.7850429418	 2.6698752017	-0.432166
H	 1.0030607861	 1.8198294992	-0.4247922804	 0.112748
H	-0.6962209743	 1.777953231	-0.8883126261	 0.109731
H	-0.251917369	 2.0180259611	 0.8203356122	 0.121754
H	-2.1576388214	-0.3431436588	 0.398167042	 0.063621
H	-1.3635570953	-2.9383877081	 0.0757289798	 0.103172
H	 1.3081834715	-2.8906704564	 0.7164899448	 0.104399
H	 1.7816201234	-0.2742279402	 1.3530629131	 0.070595
H	-0.6161630014	-1.2792767932	 2.7747438934	 0.070594
H	-1.3141544966	 0.7955229329	 3.2288046853	 0.286376
159.5577	230.5304	261.6164	283.7162	306.6359	350.1671	461.4607	537.9874	614.9063	645.508	706.7845	779.7983	860.3847	863.6633	901.9381	910.1809	913.8997	953.088	1001.633	1090.9667	1127.7531	1131.2681	1143.226	1160.3103	1173.8692	1185.9874	1229.3828	1234.1158	1277.235	1298.736	1324.4248	1421.6282	1444.7586	1484.9428	1518.6732	1608.1327	3002.528	3017.1833	3079.9486	3087.7696	3118.633	3128.507	3226.854	3253.0779	3820.0016
CN1C2C=CC1C2O	CN1[C@H]2C=C[C@@H]1[C@H]2O	
InChI=1S/C6H9NO/c1-7-4-2-3-5(7)6(4)8/h2-6,8H,1H3	InChI=1S/C6H9NO/c1-7-4-2-3-5(7)6(4)8/h2-6,8H,1H3/t4-,5+,6-
