17
gdb 73230	2.22302	1.97299	1.4227	4.9908	67.32	-0.25	-0.0031	0.2469	967.1744	0.136375	-458.988968	-458.981114	-458.98017	-459.021463	29.334	
C	-0.1554132981	 1.5029815792	 0.0348364419	-0.462128
C	 0.0413149496	 0.0082247819	 0.0579377522	 0.285271
O	-1.1848729723	-0.7236223984	 0.3270584806	-0.312724
C	-0.5460332905	-1.4905837709	 1.3724309559	-0.087969
C	 0.787682997	-0.7405347192	 1.1829421271	-0.154313
C	 1.9117157339	-1.498609722	 0.4744951741	-0.102335
O	 1.6069014388	-1.4784701833	-0.9318132477	-0.229003
C	 0.6635463722	-0.5453192403	-1.2361293996	 0.421014
O	 0.3747905139	-0.2599971023	-2.3603819226	-0.338525
H	 0.8049852258	 2.0208878946	-0.0579416536	 0.125321
H	-0.7700175015	 1.7710231646	-0.8290175011	 0.157967
H	-0.6539859871	 1.8364870152	 0.9483375944	 0.124573
H	-1.0409226015	-1.3422543186	 2.3382636505	 0.113527
H	-0.5190331257	-2.5627389662	 1.1415825486	 0.112656
H	 1.1339894518	-0.1617781858	 2.0383908944	 0.096782
H	 2.8850669408	-1.0175124438	 0.6208759639	 0.122523
H	 1.990806143	-2.5444981547	 0.7836420108	 0.127363
85.7181	145.291	207.1208	224.777	270.2363	293.7683	374.743	493.5046	590.4753	655.7028	710.8755	760.3164	794.843	863.5143	898.3437	902.9907	954.3412	1017.4108	1021.4423	1088.9251	1090.2362	1130.6806	1132.5536	1165.9151	1178.5855	1237.3174	1243.432	1301.1413	1333.5558	1352.415	1405.6607	1407.7556	1477.5692	1485.7298	1517.2683	1525.0905	1882.8796	3021.4975	3042.0966	3042.8327	3070.0876	3094.3244	3115.7574	3121.5188	3131.4779
CC12OCC1COC2=O	C[C@]12OC[C@H]1COC2=O	
InChI=1S/C6H8O3/c1-6-4(3-9-6)2-8-5(6)7/h4H,2-3H2,1H3	InChI=1S/C6H8O3/c1-6-4(3-9-6)2-8-5(6)7/h4H,2-3H2,1H3/t4-,6+/m1/s1
