16
gdb 54003	3.49854	0.95994	0.82047	2.4456	72.78	-0.2617	-0.0671	0.1946	1369.1422	0.122498	-434.106202	-434.096487	-434.095543	-434.14167	33.835	
C	 0.1682002776	 1.3612305439	-0.3203525546	-0.473944
C	-0.0288367468	-0.0382900289	 0.1968604699	 0.375509
O	 0.8811876352	-0.7585994448	 0.5461104941	-0.308585
C	-1.4586890469	-0.5670808501	 0.2859128925	 0.271853
N	-1.5141925214	-1.8633466073	 0.6900416717	-0.54722
N	-2.4062157829	 0.2324922923	-0.0524525486	-0.294641
C	-3.7753439346	-0.2625162243	-0.0465315449	-0.290491
C	-4.2375492432	-0.785948485	 1.2509411039	 0.24957
N	-4.5478785238	-1.2233486492	 2.2756353328	-0.315129
H	 1.2336244252	 1.5912489472	-0.3390366068	 0.139206
H	-0.265462199	 1.4583448259	-1.3194713073	 0.156822
H	-0.3676567899	 2.0733897157	 0.3134553531	 0.161359
H	-0.6311444773	-2.2356988693	 1.012744133	 0.277528
H	-2.3522456693	-2.2329688566	 1.1098439961	 0.279625
H	-4.4437868538	 0.5526782209	-0.3395986898	 0.16204
H	-3.9078905692	-1.0672416704	-0.7872197552	 0.156497
51.9919	76.5235	100.9602	121.3487	184.7062	229.3784	314.713	373.4561	391.3651	433.3448	459.4131	520.0633	576.0394	621.0255	649.7823	724.5949	783.5546	904.5463	975.9994	981.8985	1003.6286	1043.1735	1155.2313	1201.3211	1263.435	1343.2208	1374.645	1398.1706	1452.2999	1459.1979	1464.8052	1613.3893	1723.0371	1798.9084	2345.1729	2990.2797	3058.1964	3079.4313	3122.862	3163.8615	3558.0017	3683.3364
CC(=O)C(N)=NCC#N	CC(=O)C(=NCC#N)N	
InChI=1S/C5H7N3O/c1-4(9)5(7)8-3-2-6/h3H2,1H3,(H2,7,8)	InChI=1S/C5H7N3O/c1-4(9)5(7)8-3-2-6/h3H2,1H3,(H2,7,8)
