19
gdb 76152	2.09562	1.46105	1.18854	4.3145	77.07	-0.2423	0.0267	0.269	1148.2107	0.157144	-419.201251	-419.191012	-419.190068	-419.235604	37.866	
C	 0.0056016212	 1.5213660495	 0.0467592852	-0.45191
C	 0.0287079265	 0.0063278718	 0.0056808143	 0.22605
C	-1.2199286768	-0.6185954298	-0.5895388377	-0.462043
C	 1.3262957307	-0.69798693	-0.2341977914	 0.033175
O	 2.4658805103	 0.0787603205	-0.4344780962	-0.419242
C	 0.7340517455	-0.7276945729	 1.1874512692	 0.046363
N	 1.4672673246	-0.0314007333	 2.208930702	-0.571191
C	 0.1592726187	-1.9760781823	 1.633046148	 0.292028
N	-0.3191236634	-2.974488941	 1.9714014966	-0.36055
H	 0.9246363114	 1.9465890084	 0.4495442235	 0.125631
H	-0.124924082	 1.918456388	-0.965392185	 0.129977
H	-0.8367827741	 1.873930446	 0.6520939944	 0.121099
H	-1.3506360288	-0.2878262625	-1.6259472136	 0.121141
H	-1.1785133247	-1.7101763555	-0.5834105837	 0.14209
H	-2.1092712984	-0.3187680238	-0.0249504499	 0.128353
H	 1.2981579842	-1.6306338569	-0.7941821032	 0.112586
H	 3.238874141	-0.4868188979	-0.3261038909	 0.302904
H	 2.2325751421	 0.4818479858	 1.7848386783	 0.241673
H	 0.8825983923	 0.624267436	 2.7155505401	 0.241864
114.4035	127.7319	154.0001	192.7004	202.5475	225.0395	255.8682	284.3571	306.9786	356.4501	401.2206	428.7799	461.3652	548.2527	578.6468	595.7354	681.3774	723.9767	827.7712	863.1491	966.7428	977.5578	1015.7088	1061.0995	1080.958	1144.8123	1158.7126	1215.7101	1254.9203	1291.8689	1312.4847	1332.1896	1411.054	1424.672	1468.8472	1480.1723	1487.8398	1500.4634	1514.5212	1649.7446	2340.3871	3032.3361	3039.4181	3093.34	3096.7957	3122.3865	3127.9418	3147.4637	3506.4614	3590.091	3801.1342
CC1(C)C(O)C1(N)C#N	CC1(C)[C@@H](O)[C@]1(N)C#N	
InChI=1S/C6H10N2O/c1-5(2)4(9)6(5,8)3-7/h4,9H,8H2,1-2H3	InChI=1S/C6H10N2O/c1-5(2)4(9)6(5,8)3-7/h4,9H,8H2,1-2H3/t4-,6-/m1/s1
