18
gdb 87741	4.71917	0.9118	0.87654	4.4837	77.53	-0.2504	0.0018	0.2522	1361.1307	0.146467	-401.92797	-401.919182	-401.918238	-401.962017	32.376	
C	 0.2304939262	 1.479062395	-0.3594905158	-0.409577
C	 0.0704411542	 0.0144751853	-0.0194124134	-0.075076
C	 1.2854018521	-0.9041229256	 0.0942223908	-0.357103
C	 0.4978776593	-0.5268361514	 1.3031427301	 0.451375
C	 0.9239220401	 0.1852218977	 2.5827446566	-0.379555
C	 0.051374443	-0.8947970772	 3.2787982625	-0.011558
O	-0.2973350942	-1.4922069294	 2.015737725	-0.299427
C	 0.7586087965	-1.8217808306	 4.1667503895	 0.278949
N	 1.3225765179	-2.537906376	 4.8769219681	-0.316086
H	 1.1252365906	 1.900940355	 0.1109407899	 0.116387
H	 0.3309635782	 1.6228490845	-1.4404744844	 0.12751
H	-0.6314477257	 2.0657361006	-0.0228814943	 0.122209
H	-0.8187644802	-0.462969054	-0.424285741	 0.104226
H	 1.18584762	-1.9236334368	-0.2621590647	 0.131904
H	 2.273847256	-0.4708192638	-0.0296934934	 0.117476
H	 1.9865036325	 0.1415593374	 2.8220575722	 0.139567
H	 0.5561853925	 1.2048534677	 2.7063634579	 0.128892
H	-0.8329997691	-0.5110711786	 3.7997647044	 0.129887
40.2042	111.8582	187.3957	199.0683	224.5972	246.6295	348.8836	407.9631	456.961	486.8999	558.7259	617.2835	772.4322	787.3851	858.8899	884.9926	898.6885	917.7859	996.8456	999.6195	1027.7857	1051.8576	1069.5771	1108.0678	1124.0955	1162.9947	1177.8183	1197.1893	1247.4203	1268.8728	1340.3465	1363.341	1410.5099	1422.5696	1482.2938	1492.7336	1495.9232	1508.767	2357.7584	3028.0263	3046.461	3086.9836	3092.5485	3095.1675	3123.895	3142.6431	3146.1262	3216.7388
CC1CC11CC(O1)C#N	C[C@H]1C[C@]21C[C@@H](O2)C#N	
InChI=1S/C7H9NO/c1-5-2-7(5)3-6(4-8)9-7/h5-6H,2-3H2,1H3	InChI=1S/C7H9NO/c1-5-2-7(5)3-6(4-8)9-7/h5-6H,2-3H2,1H3/t5-,6+,7+/m0/s1
