22
gdb 64505	3.31896	1.26133	1.13682	1.1295	86.33	-0.2155	0.0943	0.3097	1191.6055	0.19444	-367.144382	-367.135828	-367.134884	-367.177137	34.129	
C	 0.0843024787	 1.3861327265	-0.3245093121	-0.448329
C	 0.1520050674	-0.0821930621	 0.0424639269	 0.33871
C	 1.4274492824	-0.8985012295	-0.0195281465	-0.109333
C	 2.6541735957	-0.0895163825	 0.4235776515	-0.24584
C	 1.9532037875	 0.2038142524	 1.7915274568	-0.24381
C	 0.7363085978	-0.6038802175	 1.3276240304	-0.089219
N	-1.1027648286	-0.7187008345	-0.3313297885	-0.115688
C	-1.2282721035	-1.2925610071	-1.667915249	-0.223017
C	-1.2315071678	-2.1636063294	-0.4594553566	-0.234007
H	 0.9781117297	 1.9370115019	-0.0276029079	 0.116121
H	-0.0327881563	 1.5003775846	-1.4080771576	 0.113507
H	-0.783640529	 1.8489574266	 0.1545815404	 0.124664
H	 1.4873295797	-1.829161409	-0.5714757677	 0.077992
H	 3.5417864949	-0.7144357397	 0.5465129052	 0.101926
H	 2.9265071376	 0.7706600971	-0.1960053107	 0.096566
H	 2.4745705593	-0.270480637	 2.6258615569	 0.10306
H	 1.7756962647	 1.2522410998	 2.0510017667	 0.097698
H	 0.1520549768	-1.2699539416	 1.9524743945	 0.084445
H	-2.1514946956	-1.0712202493	-2.1964333941	 0.113128
H	-0.3376071267	-1.3267185951	-2.2929620509	 0.110588
H	-0.365567397	-2.7999858043	-0.2972094554	 0.116717
H	-2.1637981677	-2.5747014305	-0.0809772123	 0.11412
95.2123	171.9853	182.7876	221.1383	263.1798	295.7635	337.6688	410.5274	477.0879	501.3559	631.507	700.1375	768.2311	794.3444	830.2375	873.6339	888.6104	909.8334	927.9504	976.6796	980.2198	990.2423	1012.9859	1033.8936	1038.1303	1094.8309	1097.267	1112.4784	1120.2971	1124.3782	1167.9881	1177.9041	1192.9526	1222.646	1250.6737	1258.292	1275.5567	1287.5144	1335.1992	1411.6004	1417.6142	1473.4761	1492.918	1497.2637	1498.2717	1509.2332	1521.7151	3039.0241	3047.0562	3054.222	3092.1449	3095.9305	3099.4311	3106.7287	3111.0766	3136.1489	3168.1614	3176.2136	3178.032	3191.556
CC1(C2CCC12)N1CC1	C[C@]1([C@H]2CC[C@@H]12)N1CC1	
InChI=1S/C8H13N/c1-8(9-4-5-9)6-2-3-7(6)8/h6-7H,2-5H2,1H3	InChI=1S/C8H13N/c1-8(9-4-5-9)6-2-3-7(6)8/h6-7H,2-5H2,1H3/t6-,7+,8+
