18
gdb 78004	3.09661	1.27123	1.05968	1.7943	81.59	-0.206	0.0309	0.2369	1174.1451	0.145541	-401.857346	-401.848337	-401.847393	-401.890512	34.33	
C	-0.2729477328	 1.4782172442	 0.0305341314	-0.330079
N	 0.1436890171	 0.0861606903	 0.0263560972	-0.063929
C	 1.2420637179	-0.3587795678	-0.8627230416	-0.23015
C	 1.9147009362	-1.090043315	 0.315759134	 0.118526
C	 2.4597286205	-2.4010104649	 0.2663859088	 0.163017
C	 2.924765508	-3.5097170608	 0.2047239701	-0.390101
C	 2.2163437271	-0.0941518329	 1.4020116969	 0.037119
O	 2.7449630891	 1.1483655672	 1.0438370715	-0.418376
C	 0.776981722	-0.4862387355	 1.1994150164	-0.135406
H	 0.5556845104	 2.1938281174	 0.1430712599	 0.102095
H	-0.795671407	 1.7023126224	-0.905669367	 0.122158
H	-0.9840185757	 1.6341610949	 0.8489569357	 0.118387
H	 0.8922374237	-1.0351684433	-1.6476683196	 0.115476
H	 1.8468284974	 0.4433077155	-1.3005236384	 0.114648
H	 3.3353853274	-4.4872245972	 0.1533537023	 0.183785
H	 2.6775923544	-0.559660279	 2.2747353114	 0.101279
H	 2.4713961471	 1.7908296356	 1.7072782067	 0.290187
H	 0.183960857	-0.9586293011	 1.9777644443	 0.101365
118.7325	144.2473	169.5362	208.6695	232.2768	280.5546	320.5183	360.0503	419.9374	488.9179	511.2345	572.4189	592.685	643.3472	658.0001	689.7751	824.4931	883.4135	912.1123	977.8083	990.5598	1045.0436	1054.7741	1107.6273	1136.9439	1165.0832	1209.4673	1226.4091	1245.5059	1285.2995	1289.7677	1302.9434	1354.9254	1444.4044	1460.5649	1479.0534	1506.5701	1515.4209	2233.2346	2985.752	3035.6573	3062.035	3089.4782	3095.1385	3095.7056	3148.8857	3504.3648	3805.8068
CN1CC2(C#C)C(O)C12	CN1C[C@@]2(C#C)[C@@H](O)[C@@H]12	
InChI=1S/C7H9NO/c1-3-7-4-8(2)5(7)6(7)9/h1,5-6,9H,4H2,2H3	InChI=1S/C7H9NO/c1-3-7-4-8(2)5(7)6(7)9/h1,5-6,9H,4H2,2H3/t5-,6+,7-/m1/s1
