21
gdb 110096	1.69059	1.36412	0.94561	1.7766	75.28	-0.2443	0.0637	0.308	1338.5632	0.179674	-461.329956	-461.319084	-461.31814	-461.366076	39.372	
C	 1.2680410442	 1.3152666754	-0.3921932215	-0.451226
C	 0.7784266051	-0.079446522	-0.073590142	 0.372088
O	-0.037874558	-0.6211205318	-1.0869758915	-0.465743
C	 1.6231195482	-1.0699482373	 0.6970023301	-0.119418
C	 2.9973692405	-0.7405284715	 1.2342372264	-0.084124
O	 3.9817224362	-0.6775003271	 0.2040512186	-0.42238
C	 0.3372182469	-0.5095028309	 1.3011489153	-0.105005
C	 0.3428672991	 0.3896696827	 2.5173745903	-0.095868
O	 0.8305552081	-0.2611931504	 3.6864447065	-0.413675
H	 1.8658811126	 1.7491889774	 0.4111999064	 0.124259
H	 1.9041567079	 1.2943016704	-1.2846149851	 0.119037
H	 0.4189505924	 1.9767186209	-0.5906709649	 0.123059
H	 0.5004603557	-0.695961974	-1.8833876421	 0.277649
H	 1.5257811878	-2.0924608203	 0.3350855983	 0.077204
H	 3.0181868971	 0.2404406049	 1.7134435618	 0.112169
H	 3.2787354953	-1.4697829356	 2.0080634229	 0.096301
H	 4.0348364519	-1.5492814676	-0.2002278508	 0.277609
H	-0.4985041859	-1.2052664913	 1.2732928096	 0.091954
H	 0.9972504567	 1.2536983305	 2.3790441903	 0.109033
H	-0.6717541636	 0.7849299184	 2.6809132494	 0.095466
H	 0.297684532	-1.0508879109	 3.824641952	 0.281608
61.7321	63.9947	134.7247	142.911	204.1485	226.0518	251.79	279.3717	301.0895	325.1764	341.4059	390.4293	421.1615	476.5468	522.0678	605.9309	718.6456	829.1126	846.1025	956.6436	972.3815	995.3872	1005.2743	1040.3492	1053.3811	1074.9101	1102.5204	1112.7092	1146.5155	1168.0056	1240.1045	1257.8855	1286.0144	1342.5223	1353.7384	1373.0438	1384.4691	1414.2818	1424.9409	1428.9959	1458.428	1488.1742	1502.3385	1506.1721	1517.5643	2984.9542	2998.8522	3035.2675	3095.3876	3096.5279	3104.8664	3118.4538	3131.8073	3136.6359	3786.8068	3814.2577	3814.6742
CC1(O)C(CO)C1CO	C[C@@]1(O)[C@@H](CO)[C@H]1CO	
InChI=1S/C6H12O3/c1-6(9)4(2-7)5(6)3-8/h4-5,7-9H,2-3H2,1H3	InChI=1S/C6H12O3/c1-6(9)4(2-7)5(6)3-8/h4-5,7-9H,2-3H2,1H3/t4-,5+,6+
