15
gdb 128919	6.90275	0.76362	0.72199	3.7098	71.84	-0.2725	-0.0198	0.2527	1474.9116	0.114372	-412.999457	-412.991473	-412.990529	-413.033851	27.713	
N	-0.0232107075	-1.1542445151	-0.0672285351	-0.292167
C	-0.0314620904	-0.0021314513	 0.0167561923	 0.258678
C	-0.0056219014	 1.4533066818	 0.1232851961	-0.334198
C	 1.4142375635	 2.0107569578	-0.1139689467	-0.162302
N	 1.4304048927	 3.4552484057	 0.0119278798	 0.075156
C	 1.9548049153	 4.2328770427	 0.990828201	-0.10298
C	 1.6415033607	 5.5134162872	 0.6057788428	-0.064577
N	 0.9506268262	 5.4588615189	-0.5662000264	-0.179802
N	 0.8221068434	 4.2140693888	-0.9245612896	-0.153171
H	-0.6881247304	 1.8898794678	-0.6120053802	 0.189828
H	-0.3621749175	 1.748421759	 1.1158662229	 0.164445
H	 2.1179480971	 1.5962833716	 0.6099887111	 0.149406
H	 1.7559576204	 1.7449557443	-1.1166198348	 0.166457
H	 2.4877746369	 3.8243890508	 1.832900876	 0.151401
H	 1.8709187211	 6.44985594	 1.0871717007	 0.133826
33.9247	64.5845	94.4204	183.7314	325.2774	370.9833	403.7743	505.4444	652.0717	716.9011	762.0791	774.1611	786.0437	862.9047	956.6505	962.2855	1025.6584	1033.7704	1046.6363	1091.778	1141.8798	1163.2337	1257.5755	1293.9675	1307.2064	1324.86	1359.9505	1402.9258	1469.5206	1487.2651	1499.1957	1522.4976	2367.2479	3058.7645	3085.5906	3104.365	3141.4422	3271.3846	3291.5068
N#CCCN1C=CN=N1	N#CCCn1ccnn1	
InChI=1S/C5H6N4/c6-2-1-4-9-5-3-7-8-9/h3,5H,1,4H2	InChI=1S/C5H6N4/c6-2-1-4-9-5-3-7-8-9/h3,5H,1,4H2
