19
gdb 62627	2.29485	1.87722	1.62347	0.7228	73.8	-0.2224	0.0681	0.2905	958.2341	0.156953	-422.96572	-422.957276	-422.956332	-422.99783	33.768	
C	 0.0090828466	 1.5461082229	 0.0397953956	-0.47429
C	 0.0442786515	 0.0288165183	-0.0178886715	 0.390977
O	-1.2543107745	-0.5396988455	 0.0872284157	-0.480377
C	 0.7742304759	-0.6732339182	-1.1571953814	-0.157052
C	 2.2296309277	-0.7822703708	-0.681207028	 0.07932
O	 2.3424468197	-0.1145691057	 0.5788673559	-0.329288
C	 1.0603352158	-0.7327212238	 0.9175176469	 0.371013
C	 0.8242898336	-0.9477399761	 2.3775540365	-0.533749
C	 1.2433108507	-1.7962899745	-0.2356873321	-0.19922
H	 1.0223994855	 1.950400283	 0.0095962722	 0.141072
H	-0.564814217	 1.9471311513	-0.8015922532	 0.121291
H	-0.4666618383	 1.8930667914	 0.9668664051	 0.100205
H	-1.7066127916	-0.0958633646	 0.8125886529	 0.276334
H	 0.4800865172	-0.7338657642	-2.1973262447	 0.090406
H	 3.0911963367	-0.827637048	-1.3338860537	 0.109923
H	 0.8797949656	 0.004958017	 2.9159971873	 0.130413
H	-0.1669115805	-1.3839980139	 2.5335468341	 0.127758
H	 1.5731520076	-1.6219163838	 2.8021641583	 0.134694
H	 1.179167048	-2.8730590148	-0.2947749762	 0.100572
179.2089	201.4939	212.8538	233.1895	241.1249	297.896	323.4959	382.1969	427.2877	535.6672	598.5713	638.7513	653.9054	778.616	793.5943	800.958	809.8252	859.0112	908.7262	946.8373	955.161	993.3638	1028.5367	1034.2177	1050.902	1115.9551	1121.7553	1134.1357	1167.9135	1185.5317	1200.6652	1273.1094	1332.5934	1367.9633	1389.0647	1404.5648	1413.9367	1480.2505	1486.6399	1490.7698	1500.1641	3019.6322	3036.4446	3089.4455	3106.3311	3119.1564	3139.6791	3198.0887	3206.2136	3223.621	3805.504
CC1(O)C2C3OC1(C)C23	C[C@@]1(O)[C@H]2[C@H]3O[C@]1(C)[C@@H]23	
InChI=1S/C7H10O2/c1-6(8)3-4-5(3)9-7(4,6)2/h3-5,8H,1-2H3	InChI=1S/C7H10O2/c1-6(8)3-4-5(3)9-7(4,6)2/h3-5,8H,1-2H3/t3-,4+,5-,6-,7-/m1/s1
