20
gdb 23179	2.25733	1.56868	1.03119	0.8479	82.81	-0.2261	0.0111	0.2372	1194.6915	0.171537	-403.11805	-403.109529	-403.108584	-403.151172	33.3	
O	-0.1204520749	 1.3135802082	 0.139394119	-0.396902
N	 0.0130196417	-0.0886586423	 0.1997837347	-0.2532
C	-1.1105957335	-0.6672464745	 0.0446298666	 0.355394
C	-2.470676072	-0.0355186165	-0.1642337723	-0.30194
C	-3.3747491592	-1.2190352012	-0.5673816838	-0.221085
C	-2.7405090214	-2.4364251861	 0.1368333194	-0.300892
C	-1.2429536251	-2.1555159876	 0.0523109893	 0.298918
C	-0.3266425792	-2.9861174505	-0.834599753	-0.295261
C	-0.1907821619	-3.043295971	 0.6605526202	-0.321248
H	 0.7879439251	 1.6074056763	 0.2634942823	 0.303484
H	-2.8004803216	 0.4192608558	 0.7790345468	 0.124913
H	-2.4311744886	 0.7728042857	-0.8984948886	 0.12773
H	-4.4221624748	-1.0663476941	-0.2956522281	 0.098337
H	-3.3340491287	-1.3603063198	-1.6531245641	 0.106891
H	-3.058261189	-2.4680260655	 1.1873404817	 0.101911
H	-3.0206770372	-3.3906905845	-0.3176922062	 0.09806
H	-0.7621441721	-3.8375935071	-1.3479142354	 0.10966
H	 0.4322102042	-2.4487635459	-1.3921401476	 0.124983
H	 0.6616554756	-2.5473059001	 1.1110426113	 0.131023
H	-0.5286218073	-3.9384597292	 1.1729316178	 0.109224
68.5319	165.11	183.4224	207.1239	288.1721	314.8174	363.2234	431.0702	495.0728	516.4958	561.762	602.9042	733.1787	788.4716	821.9374	847.2725	897.6406	907.8896	931.1771	944.0945	978.8888	981.7675	1018.9374	1057.4606	1079.4957	1085.8023	1123.2732	1162.6253	1197.9319	1203.4874	1241.2155	1283.3484	1309.8309	1315.4415	1340.6839	1365.6447	1417.8601	1457.813	1466.4899	1488.6593	1494.5042	1503.4594	1745.5557	3021.2444	3031.6852	3046.0719	3086.9547	3096.4748	3104.3739	3126.3116	3130.0038	3213.8876	3228.164	3821.1476
ON=C1CCCC11CC1	ON=C1CCCC21CC2	
InChI=1S/C7H11NO/c9-8-6-2-1-3-7(6)4-5-7/h9H,1-5H2	InChI=1S/C7H11NO/c9-8-6-2-1-3-7(6)4-5-7/h9H,1-5H2
