18
gdb 35134	5.20519	0.87509	0.84576	1.4546	76.75	-0.2488	0.0074	0.2562	1368.3028	0.149788	-398.088914	-398.080626	-398.079682	-398.122493	30.607	
N	-0.3223657844	-1.1557675942	-0.1027413224	-0.320229
C	-0.0741423363	-0.0270736982	-0.0577735915	 0.264599
C	 0.2811420505	 1.393588667	-0.0020113353	-0.107119
C	-0.1284905701	 2.0923631359	 1.3295203142	-0.261903
C	 1.3604543296	 1.9425202909	 1.754192686	 0.013225
N	 1.7026043864	 1.6588592732	 0.3340722941	-0.324348
C	 2.0536279894	 3.1465212156	 2.3421745911	 0.010376
C	 3.4501449252	 3.4729826823	 1.9707030688	-0.241722
N	 2.3341301503	 4.3143020048	 1.4977006061	-0.318625
H	-0.0495126397	 1.8722363173	-0.9291570138	 0.128143
H	-0.4173475534	 3.1315029125	 1.1664837022	 0.134657
H	-0.8778198293	 1.5858832046	 1.9351843498	 0.134116
H	 1.4958675713	 1.0760418454	 2.4158994851	 0.089577
H	 2.3386616643	 0.8863242994	 0.1690797272	 0.239912
H	 1.712561545	 3.3973636251	 3.3457035727	 0.095144
H	 4.1119227328	 3.9404562216	 2.6938125815	 0.1205
H	 3.9437850651	 2.8329472239	 1.2439145191	 0.110295
H	 2.1418542832	 4.0470873627	 0.531847385	 0.2334
64.457	95.0762	139.5239	189.2664	240.0187	296.5895	419.2378	505.1696	563.8489	606.5964	681.8088	759.6984	805.3895	846.4404	862.6256	918.7836	964.8616	972.2327	985.0806	1007.9648	1049.2661	1074.6149	1090.4758	1130.6478	1143.2868	1158.5784	1191.0555	1226.1478	1257.4486	1281.0021	1294.5767	1313.1782	1331.8245	1370.9592	1400.5024	1420.1992	1484.601	1506.4678	2347.0209	3008.7921	3057.3296	3097.194	3110.348	3118.8883	3164.0607	3196.9148	3461.5338	3537.7614
N#CC1CC(N1)C1CN1	N#C[C@H]1C[C@@H](N1)[C@H]1CN1	
InChI=1S/C6H9N3/c7-2-4-1-5(9-4)6-3-8-6/h4-6,8-9H,1,3H2	InChI=1S/C6H9N3/c7-2-4-1-5(9-4)6-3-8-6/h4-6,8-9H,1,3H2/t4-,5-,6-/m1/s1
