17
gdb 22895	2.1835	1.67972	0.98296	3.7233	73.97	-0.234	-0.0385	0.1955	1167.8043	0.136349	-455.144805	-455.136109	-455.135165	-455.178349	32.163	
C	-0.2469000722	 1.5019641769	 0.0811926652	-0.398899
C	 0.0817729411	 0.0126685167	 0.0140709032	-0.062342
C	 0.9762889607	-0.3965230704	-1.1837797945	-0.17954
N	 1.7409210568	-1.516294391	-0.6627736486	-0.330576
C	 1.8129777005	-1.5956320494	 0.7084373295	 0.360897
O	 2.5064931906	-2.3588935596	 1.340719966	-0.362046
C	 0.8452116945	-0.5416450226	 1.2001352178	 0.265525
N	 0.6403090485	-0.100811118	 2.3782280823	-0.222013
O	 1.4063270564	-0.7087113787	 3.3568724448	-0.350298
H	 0.6663101582	 2.0999329164	 0.1615617375	 0.122767
H	-0.7899498585	 1.8209731381	-0.8143353633	 0.113528
H	-0.864545619	 1.7176902049	 0.9556629257	 0.140303
H	-0.855297001	-0.5554213567	-0.0672057873	 0.1093
H	 0.3852453143	-0.688662747	-2.0571613215	 0.116655
H	 1.6286179276	 0.4370929393	-1.4824517184	 0.111161
H	 2.3960003956	-2.0419711704	-1.2200316303	 0.25417
H	 1.124582136	-0.2429633985	 4.1526413619	 0.311407
59.1735	153.014	187.6235	207.2836	235.7109	285.3951	325.4872	429.3103	467.5128	494.385	515.0768	541.9331	636.9681	696.6	751.6834	801.5072	894.8771	958.6738	1002.4877	1036.526	1069.8071	1127.5985	1140.8881	1175.8443	1223.8544	1264.2854	1308.7056	1338.099	1362.8391	1409.8625	1421.5798	1448.1792	1491.8234	1500.031	1533.5578	1734.1921	1825.7104	2993.8614	3009.0784	3040.7992	3070.4245	3107.8701	3130.1372	3638.3004	3801.765
CC1CNC(=O)C1=NO	C[C@H]1CNC(=O)C1=NO	
InChI=1S/C5H8N2O2/c1-3-2-6-5(8)4(3)7-9/h3,9H,2H2,1H3,(H,6,8)	InChI=1S/C5H8N2O2/c1-3-2-6-5(8)4(3)7-9/h3,9H,2H2,1H3,(H,6,8)/t3-/m0/s1
