19
gdb 115226	4.31479	0.96981	0.82889	3.9439	72.75	-0.2377	0.0609	0.2987	1373.0979	0.161085	-456.382455	-456.373342	-456.372398	-456.416858	32.942	
C	 0.0962641154	 1.3624274171	-0.0920071843	-0.242534
O	 0.001687783	-0.0317243966	 0.109251886	-0.239088
C	-1.3120447127	-0.544303665	 0.0805581455	 0.116473
C	-1.8278577992	-0.7429182389	-1.3518179535	-0.183455
N	-3.1101331376	-1.4198132932	-1.3006085394	-0.344814
C	-3.4068484834	-2.4480701891	-0.426736515	 0.44241
O	-4.3830435539	-3.1638665167	-0.5680091004	-0.417588
N	-2.5557929394	-2.5611258505	 0.6509987865	-0.350048
C	-1.2718109076	-1.8983432839	 0.7865250891	-0.177811
H	 1.1479253783	 1.6310162499	 0.0310930525	 0.133765
H	-0.2250727574	 1.6670986768	-1.0982623169	 0.11113
H	-0.5017031689	 1.918266082	 0.6458199405	 0.111914
H	-2.0036841965	 0.1231362613	 0.6175622278	 0.085744
H	-1.9600792033	 0.2222818022	-1.8505895538	 0.109236
H	-1.0665753949	-1.3048654776	-1.9155965527	 0.109986
H	-3.683684493	-1.4386492002	-2.1284070293	 0.250891
H	-2.7537320634	-3.3635187038	 1.2259001059	 0.252283
H	-0.4454138175	-2.4837353332	 0.3553397567	 0.114063
H	-1.0468897683	-1.7493772907	 1.8470862747	 0.117444
70.9866	89.992	108.147	182.3971	184.2139	281.614	359.392	404.6254	435.7265	469.7499	500.6791	550.4619	585.0196	733.5157	761.8631	840.1244	918.0642	952.5595	1029.238	1053.7065	1131.0595	1146.63	1166.6837	1171.087	1184.1167	1215.1742	1230.342	1283.1112	1288.8832	1329.2587	1377.2858	1410.2196	1418.9163	1469.2606	1477.441	1482.7854	1493.9451	1509.2224	1529.5532	1531.549	1807.3302	2976.7588	2982.7956	2985.9292	3000.1157	3034.4221	3070.6941	3074.2731	3119.2911	3644.5477	3653.256
COC1CNC(=O)NC1	COC1CNC(=O)NC1	
InChI=1S/C5H10N2O2/c1-9-4-2-6-5(8)7-3-4/h4H,2-3H2,1H3,(H2,6,7,8)	InChI=1S/C5H10N2O2/c1-9-4-2-6-5(8)7-3-4/h4H,2-3H2,1H3,(H2,6,7,8)
