17
gdb 67064	2.9751	1.73659	1.46001	2.7661	75.61	-0.2287	0.0017	0.2304	936.6731	0.136263	-417.873651	-417.866272	-417.865328	-417.905033	30.119	
O	 0.4222210193	 1.3175769147	-0.1745141256	-0.470133
C	 0.1868231152	-0.058250277	-0.0986066377	 0.414454
C	-0.0633141011	-0.7030198982	-1.496398675	-0.128242
C	-0.6808683643	-1.9160003554	-0.7751825506	-0.262693
C	-1.2304530152	-0.6660085418	-0.0328266872	 0.237956
C	-1.5184687672	-0.0129139863	-1.4222495434	-0.30518
N	-1.1971328688	-0.600282649	 1.432912698	-0.418463
C	 0.2455835196	-0.5697502013	 1.3831020048	 0.20167
N	 1.1685278526	-0.7186055801	 2.2269781767	-0.533859
H	 0.4647906041	 1.6773497792	 0.7178939669	 0.293695
H	 0.5881218315	-0.7123543307	-2.3729591388	 0.085393
H	-1.4056931197	-2.500436847	-1.3445475625	 0.096556
H	 0.0089453809	-2.5532149047	-0.2157990546	 0.10619
H	-1.5306796877	 1.0734085722	-1.4638476443	 0.130637
H	-2.2914667041	-0.4705604363	-2.0446637878	 0.097462
H	-1.6849621216	-1.2673904088	 2.0231781641	 0.234402
H	 0.8080230367	-0.9588320196	 3.153638677	 0.220157
112.84	226.2763	271.0103	308.7763	336.763	416.668	493.7839	529.0524	586.2767	611.0291	633.8875	723.5328	750.3706	785.6348	851.8315	861.4243	894.3584	924.2465	978.3701	986.0295	1009.8528	1027.5067	1065.0601	1083.8445	1122.9961	1148.21	1175.5411	1193.4451	1204.9163	1209.7734	1238.7461	1269.0886	1329.4675	1362.3934	1486.4675	1524.8982	1769.4194	3061.2027	3071.5608	3092.114	3130.4323	3178.8168	3443.7609	3517.7122	3813.3138
OC12C3CC1(C3)NC2=N	O[C@]12[C@H]3C[C@@]1(C3)N[C]2[NH]	
InChI=1S/C6H8N2O/c7-4-6(9)3-1-5(6,2-3)8-4/h3,9H,1-2H2,(H2,7,8)	InChI=1S/C6H8N2O/c7-4-6(9)3-1-5(6,2-3)8-4/h3,9H,1-2H2,(H2,7,8)/t3-,5-,6-/m0/s1
