19
gdb 94209	2.89436	1.28177	1.10015	2.5919	71.19	-0.2475	0.0669	0.3145	1160.5372	0.158433	-460.12552	-460.116892	-460.115948	-460.158849	33.247	
O	 0.08058242	 1.3860259739	-0.0939770208	-0.434631
C	 0.0860411631	-0.0075787539	-0.0264569785	 0.115898
C	 0.4543240055	-0.7120380705	 1.3120314687	-0.268057
C	-0.738713004	-1.681918622	 1.0917955885	-0.266163
C	-1.3214844585	-0.7094530309	 0.0362092223	 0.349658
O	-2.2632128995	 0.1641849364	 0.6383732714	-0.495363
C	-1.8980367561	-1.2927329312	-1.2331790345	-0.007101
C	-3.3066440588	-1.694841279	-1.3246049714	-0.185549
O	-2.8567688282	-0.4570980341	-1.9005732492	-0.250721
H	-0.6650139884	 1.6638806166	 0.4563171034	 0.27991
H	 0.6908423012	-0.3768581206	-0.8613644205	 0.082036
H	 1.4540688135	-1.1431917492	 1.393841012	 0.100398
H	 0.2863213997	-0.0435021981	 2.1601816009	 0.11071
H	-0.4394231794	-2.6355469793	 0.6475925376	 0.102446
H	-1.3973225023	-1.8748335739	 1.9402490074	 0.115916
H	-2.7473434843	 0.5601326252	-0.1038126533	 0.295038
H	-1.1788922982	-1.7695469963	-1.8990645108	 0.101374
H	-3.606312642	-2.4528305286	-2.0451648963	 0.124802
H	-3.9457535032	-1.5883109743	-0.4513498068	 0.129398
89.6113	89.6881	176.1875	231.7229	297.0475	322.2298	357.502	413.0827	449.0026	475.0664	608.0569	639.3692	668.8895	743.5907	771.1626	848.6629	891.5747	911.8098	936.8411	958.9248	999.1958	1043.3508	1081.4863	1101.5861	1107.3217	1144.6011	1164.8392	1167.7891	1181.8097	1226.5233	1245.0645	1259.9005	1272.5541	1302.6266	1334.5268	1381.2051	1438.1519	1446.9779	1467.2784	1487.7111	1517.1979	3056.5284	3063.9586	3068.6889	3100.0771	3117.0424	3118.5616	3132.4449	3194.0661	3695.7182	3745.2035
OC1CCC1(O)C1CO1	O[C@H]1CC[C@]1(O)[C@H]1CO1	
InChI=1S/C6H10O3/c7-4-1-2-6(4,8)5-3-9-5/h4-5,7-8H,1-3H2	InChI=1S/C6H10O3/c7-4-1-2-6(4,8)5-3-9-5/h4-5,7-8H,1-3H2/t4-,5+,6+/m0/s1
