19
gdb 113018	2.95187	1.06538	0.96946	3.5888	78.85	-0.2394	-0.0293	0.2101	1299.8542	0.158267	-423.033174	-423.024135	-423.023191	-423.06787	32.517	
C	 0.1188960434	 0.6850541703	-0.5737016029	-0.238024
O	-0.0583596084	-0.4816780305	 0.1976127691	-0.245464
C	 0.6277389104	-0.4665692055	 1.4495853128	 0.09036
C	 0.2495649226	-1.7533362386	 2.20943599	-0.272984
C	 1.4010074372	-2.7583504501	 1.9440456613	-0.118037
C	 1.0880208149	-3.6863070633	 0.7734555456	 0.15259
O	 1.302615955	-4.8700045122	 0.760899587	-0.252643
C	 2.5430822107	-1.8396783152	 1.5572419503	-0.08474
C	 2.1315072227	-0.5993812943	 1.2959672453	-0.082917
H	 1.1562750003	 0.8088015808	-0.9169083282	 0.107651
H	-0.5279845723	 0.5929503716	-1.4494742156	 0.130675
H	-0.170075767	 1.5884831974	-0.013541223	 0.103556
H	 0.3361443619	 0.4443461267	 1.9952899958	 0.066897
H	 0.2002759324	-1.5497150102	 3.2821338967	 0.114898
H	-0.7317586907	-2.1114390879	 1.8881676486	 0.121241
H	 1.6363077986	-3.3872495101	 2.8073393577	 0.0927
H	 0.6448424866	-3.1570317215	-0.099350499	 0.095946
H	 3.5619053853	-2.2011297897	 1.4720368098	 0.114175
H	 2.7710050963	 0.2160020424	 0.9788684289	 0.104119
53.8061	78.6573	103.526	175.445	232.122	259.881	321.2573	366.0233	410.6168	474.2289	557.0887	756.1916	761.5994	801.3105	827.8683	907.481	943.5944	962.0027	969.6843	986.1521	1040.3161	1081.8921	1096.136	1125.2781	1140.4482	1181.5316	1202.7436	1226.3379	1252.9295	1273.4776	1314.6232	1327.6272	1360.382	1383.4469	1416.8007	1472.9476	1477.8502	1490.0981	1509.9056	1671.6508	1829.4225	2894.2812	2973.6721	2980.3927	3026.3244	3065.37	3076.2923	3114.0813	3116.4314	3187.5141	3212.6135
COC1CC(C=O)C=C1	CO[C@H]1C[C@@H](C=O)C=C1	
InChI=1S/C7H10O2/c1-9-7-3-2-6(4-7)5-8/h2-3,5-7H,4H2,1H3	InChI=1S/C7H10O2/c1-9-7-3-2-6(4-7)5-8/h2-3,5-7H,4H2,1H3/t6-,7+/m0/s1
