17
gdb 43717	4.73993	1.05787	0.99688	2.9562	73.18	-0.2425	-0.0243	0.2182	1187.7482	0.134772	-421.779841	-421.772236	-421.771292	-421.812516	29.276	
O	-0.0341189884	 0.1397439493	-0.5052618862	-0.283721
C	-0.041200077	 1.2469529486	-0.0562797241	 0.409555
C	-1.1566988684	 2.2076272359	 0.4000360167	-0.425836
C	-0.041562787	 3.1860733493	 0.8074098071	 0.331602
C	 1.0742878798	 2.2589090035	 0.289828739	-0.443322
C	 0.0121437422	 4.6916855212	 0.7324281828	-0.220176
C	-1.3054616106	 5.2601730314	 1.2503531114	-0.088536
O	-1.2214305732	 4.4637933674	 2.4661546204	-0.283632
C	 0.0595227779	 3.9737304045	 2.068389995	 0.027167
H	-1.8042850078	 2.532932827	-0.4218808897	 0.130622
H	-1.7870926189	 1.8339687837	 1.2122712765	 0.144742
H	 1.8020557731	 1.9009658956	 1.0254003651	 0.133676
H	 1.6182293267	 2.6129265094	-0.5928624598	 0.133028
H	 0.7749722288	 5.2315457678	 0.1865590676	 0.102754
H	-1.2588828802	 6.3273430178	 1.4920827087	 0.115338
H	-2.214357475	 5.0474790081	 0.6752412102	 0.109132
H	 0.825421898	 3.8602603596	 2.8283664393	 0.10761
45.1505	151.6183	200.5754	271.3064	384.247	413.1346	437.2493	477.7528	590.6533	681.3192	712.9475	763.8889	817.0805	870.1008	901.1871	941.7145	953.791	989.3745	1010.169	1029.521	1033.4228	1063.902	1086.1596	1102.2197	1145.0956	1157.213	1191.8914	1200.5769	1216.0411	1239.4199	1269.0757	1332.3026	1427.5744	1430.298	1448.6851	1512.4242	1900.707	3027.0597	3042.5603	3048.5831	3078.4274	3093.3211	3102.4293	3168.978	3197.0073
O=C1CC2(C1)C1COC21	O=C1CC2(C1)[C@H]1CO[C@@H]21	
InChI=1S/C7H8O2/c8-4-1-7(2-4)5-3-9-6(5)7/h5-6H,1-3H2	InChI=1S/C7H8O2/c8-4-1-7(2-4)5-3-9-6(5)7/h5-6H,1-3H2/t5-,6+/m0/s1
