16
gdb 73775	2.43871	1.67447	0.99949	2.7401	78.18	-0.2165	-0.0517	0.1648	1129.0406	0.124966	-434.145257	-434.136257	-434.135312	-434.179115	32.795	
C	 0.0182391917	 1.54728779	 0.0201775544	-0.531607
C	-0.0245705871	 0.0537533365	 0.0164321389	 0.073611
C	-1.087288124	-0.7892137858	 0.043748003	 0.241346
N	-2.4213304119	-0.56825511	 0.1152677264	-0.601128
C	-0.6061550113	-2.2054946821	 0.0200988847	 0.368348
N	-1.408732143	-3.1936478891	-0.0082927933	-0.552233
N	 0.7702155235	-2.1219353783	 0.0229659878	-0.430626
C	 1.1956061553	-0.771655202	-0.0101130047	 0.374979
O	 2.3553801673	-0.4286407244	-0.0524224464	-0.368606
H	 1.0582898651	 1.8773932945	-0.0398400838	 0.156987
H	-0.5219080852	 1.9796889737	-0.8317303895	 0.120426
H	-0.4194866858	 1.9710360877	 0.9324920083	 0.12821
H	-2.7933009862	 0.3363514198	-0.1173784416	 0.263413
H	-3.0092747888	-1.3727780478	-0.0460889557	 0.277103
H	-0.9245651243	-4.0913541465	-0.0293007917	 0.221151
H	 1.4093435347	-2.8948220063	-0.0550124069	 0.258627
65.7163	104.7907	137.1597	226.9569	250.8707	287.6082	323.3009	372.5741	393.4746	493.694	535.4672	552.1629	647.3507	650.3562	712.2301	752.9311	784.3944	865.1421	873.1743	992.0459	1058.0108	1064.581	1135.32	1218.0663	1241.255	1334.1843	1377.1106	1406.088	1449.0862	1491.5432	1493.835	1618.99	1720.4708	1754.925	1825.9658	3014.7284	3059.8363	3121.0075	3481.0353	3581.4903	3670.9844	3713.7751
CC1=C(N)C(=N)NC1=O	C[C]1C(=C([NH])NC1=O)N	
InChI=1S/C5H7N3O/c1-2-3(6)4(7)8-5(2)9/h1H3,(H4,6,7,8,9)	InChI=1S/C5H7N3O/c1-2-3(6)4(7)8-5(2)9/h1H3,(H4,6,7,8,9)
