16
gdb 67315	3.20163	1.47799	1.23746	4.1491	74.1	-0.2548	0.0076	0.2624	1015.1114	0.125418	-396.839259	-396.831842	-396.830898	-396.87101	28.952	
N	-0.0580292471	 1.430472687	 0.0442339387	-0.620794
C	 0.0128961926	 0.0181852988	-0.0380077703	 0.292492
C	 0.3910653871	-0.9704545072	 1.1060063919	-0.026108
C	-1.0353498721	-1.038348749	 1.6556987544	-0.265401
C	-1.1737530938	-0.9793107367	 0.1323559855	-0.032008
N	 0.0370810901	-1.9346048403	-0.058465221	-0.153944
C	 0.6742253906	-0.9617350665	-1.0499948246	-0.187073
C	 0.1554816242	-1.0071849626	-2.407713681	 0.279112
N	-0.2759251893	-0.9915518712	-3.4808815356	-0.326707
H	 0.8623309238	 1.8553414699	 0.0966777874	 0.238423
H	-0.5415783382	 1.8278507657	-0.7553308011	 0.247146
H	 1.3530111673	-1.0596714431	 1.6139078732	 0.090771
H	-1.3261775621	-1.9772551521	 2.1317256814	 0.117341
H	-1.383594917	-0.1653181246	 2.2089610001	 0.122482
H	-2.0537363267	-1.0781093472	-0.5033537961	 0.108639
H	 1.7677049204	-1.0183135711	-1.054379973	 0.115628
127.1687	133.6946	254.0737	278.7834	349.1026	403.3549	411.6058	525.0955	577.0201	653.4229	746.1777	778.5546	820.3704	863.8945	887.1502	904.4983	914.1593	936.5111	982.001	1028.5618	1032.7709	1060.3548	1098.9212	1141.7648	1150.2402	1184.6475	1209.4849	1223.6544	1278.3052	1290.1176	1337.9802	1393.3175	1483.7983	1651.1863	2346.5361	3063.7427	3075.087	3103.7505	3122.7409	3147.1904	3500.1339	3581.3159
NC12C3CC1N3C2C#N	N[C@@]12[C@H]3C[C@@H]1N3[C@H]2C#N	
InChI=1S/C6H7N3/c7-2-5-6(8)3-1-4(6)9(3)5/h3-5H,1,8H2	InChI=1S/C6H7N3/c7-2-5-6(8)3-1-4(6)9(3)5/h3-5H,1,8H2/t3-,4+,5-,6+/m0/s1
