21
gdb 107002	2.83902	1.20946	1.01275	1.8035	77.96	-0.2516	0.0609	0.3125	1244.0058	0.18153	-424.192567	-424.182899	-424.181955	-424.226862	36.382	
C	-0.2468449136	 1.5409929001	-0.0219769609	-0.411407
C	-0.0173201691	 0.0359962285	-0.0325093322	-0.086688
C	 1.137145607	-0.5612491981	-0.9317515409	 0.125272
O	 1.9184710978	 0.2974801896	-1.7294752994	-0.429549
C	 1.7664747347	-1.1957480347	 0.3080974083	-0.161216
C	 2.0465157312	-0.151999757	 1.3609851544	-0.363443
C	 0.6336886751	-0.6435545433	 1.1864084314	 0.346641
C	-0.1274954358	-1.3147818225	 2.2897153266	-0.17854
O	-0.8236367964	-0.3839360025	 3.1121530359	-0.412631
H	 0.6705510636	 2.1027211659	 0.1806393995	 0.099993
H	-0.6253977302	 1.881437209	-0.9907217622	 0.123763
H	-0.9782077903	 1.8079413201	 0.7475040531	 0.124592
H	-0.9590303533	-0.4682290455	-0.2743615538	 0.074142
H	 0.7414574367	-1.3139177942	-1.6178833274	 0.091163
H	 2.4855050892	 0.814816949	-1.1486583128	 0.28042
H	 2.2443135313	-2.1681317689	 0.3468602564	 0.089325
H	 2.5692773064	-0.5286523969	 2.2355133813	 0.114705
H	 2.3289662085	 0.8656620379	 1.1001174846	 0.099617
H	-0.9035782918	-1.9690991165	 1.8765956119	 0.109214
H	 0.5523633611	-1.9474294292	 2.8841570833	 0.083281
H	-0.1730600122	 0.2433200193	 3.4452237028	 0.281347
81.3212	100.277	169.282	176.266	218.4287	252.8174	279.8635	311.8741	356.5749	381.2427	438.7839	538.1123	590.2239	681.6453	703.7151	780.948	858.5257	903.0391	920.6263	965.1243	975.1143	993.4351	1034.8015	1047.9644	1069.8476	1085.3012	1104.0502	1125.8013	1131.6927	1179.9983	1210.0967	1263.3212	1269.2704	1270.8706	1315.5217	1355.4212	1373.8139	1397.7776	1413.3614	1430.3345	1436.8222	1488.7418	1497.3185	1500.7549	1508.9126	2966.3673	3037.737	3043.5212	3060.9683	3082.7839	3101.0174	3106.043	3109.0824	3172.9591	3187.0445	3808.0851	3817.7011
CC1C(O)C2CC12CO	C[C@H]1[C@@H](O)[C@H]2C[C@@]12CO	
InChI=1S/C7H12O2/c1-4-6(9)5-2-7(4,5)3-8/h4-6,8-9H,2-3H2,1H3	InChI=1S/C7H12O2/c1-4-6(9)5-2-7(4,5)3-8/h4-6,8-9H,2-3H2,1H3/t4-,5+,6+,7+/m0/s1
