17
gdb 47795	2.40866	1.93698	1.3435	2.9279	69.86	-0.2465	0.0039	0.2505	967.8157	0.137953	-455.11054	-455.103234	-455.10229	-455.142491	28.426	
N	-0.0026808178	 1.2890488451	 0.3532988543	-0.465123
C	 0.0326649772	 0.0590568207	 0.0723492946	 0.379484
O	 1.2260804606	-0.6461692138	-0.0413448132	-0.251218
C	 1.6449657104	-0.9576399026	-1.363555127	-0.003681
O	 0.9228829341	-1.9887313146	-1.9582164731	-0.217531
C	-0.3847852689	-1.6315563024	-2.3759608463	-0.130778
C	-1.3982318057	-1.5069919862	-1.2535455946	-0.012434
C	-1.1643274136	-2.1302495814	 0.068335271	-0.241979
N	-1.1740100837	-0.6624505512	-0.0622507277	-0.132156
H	 0.9523326521	 1.6458591807	 0.4149356728	 0.226633
H	 1.5980557744	-0.0441011801	-1.9789577002	 0.097246
H	 2.6728573885	-1.3091985886	-1.2676388433	 0.130289
H	-0.3531856249	-0.6950186294	-2.9560885133	 0.111694
H	-0.7150855694	-2.4276905675	-3.0512048226	 0.127499
H	-2.417660543	-1.4246934963	-1.6276406959	 0.109697
H	-1.9949461363	-2.5263009833	 0.644458011	 0.12664
H	-0.2062566742	-2.6158525091	 0.2164655536	 0.145717
71.6814	180.3159	238.9235	308.4465	363.7174	405.2905	471.77	527.7356	603.1802	652.4595	720.1461	738.9722	822.9578	876.8761	929.9075	937.421	947.8182	985.0611	1020.2398	1052.0367	1073.6405	1113.5278	1124.2594	1160.743	1172.4447	1200.6034	1269.4896	1293.2484	1339.8322	1350.8099	1390.2002	1415.2664	1448.8981	1484.5037	1499.1387	1507.7333	1740.986	2970.5009	2982.1012	3076.4374	3122.1182	3127.7863	3130.5024	3224.8627	3479.9204
N=C1OCOCC2CN12	[NH][C]1OCOC[C@H]2CN12	
InChI=1S/C5H8N2O2/c6-5-7-1-4(7)2-8-3-9-5/h4,6H,1-3H2	InChI=1S/C5H8N2O2/c6-5-7-1-4(7)2-8-3-9-5/h4,6H,1-3H2/t4-,7?/m1/s1
