18
gdb 47727	2.49099	1.68805	1.14067	4.0192	72.22	-0.2408	-0.0251	0.2158	1076.0612	0.14891	-439.078196	-439.070333	-439.069389	-439.110795	30.213	
O	 0.0258733638	 0.0227135842	 0.3266287437	-0.304797
C	-0.0183583063	 1.2084137412	 0.1064549766	 0.307416
C	-1.3242354009	 1.9729863205	-0.0683462927	-0.285614
C	-1.2098103989	 3.132864543	-1.0669468299	-0.177495
N	-0.0778611283	 3.974767291	-0.6877546252	-0.300202
C	 1.1887036607	 3.271368151	-0.8680601521	-0.269063
C	 1.2381971999	 2.0615981701	 0.0511756908	 0.350078
C	 2.110599089	 2.0354400659	 1.2440502021	-0.207021
O	 2.4688006557	 1.3509795149	 0.0504778126	-0.257668
H	-2.1072706553	 1.2618095453	-0.3427548898	 0.124406
H	-1.5759743195	 2.3894789781	 0.9162406833	 0.135359
H	-1.1131749725	 2.7253179337	-2.0910865309	 0.090872
H	-2.1238180908	 3.7336838661	-1.0424276912	 0.108466
H	-0.0760717321	 4.8279027447	-1.2351823725	 0.227176
H	 1.3374038128	 2.908963809	-1.9033904912	 0.098215
H	 2.0202102946	 3.9433009371	-0.6362804909	 0.109809
H	 2.6984482318	 2.9208640229	 1.4837139476	 0.118677
H	 1.8460846763	 1.3928537615	 2.0820184896	 0.131385
65.7313	137.3426	245.6306	284.9085	304.457	384.1611	394.1497	434.2217	503.9235	581.4141	639.6234	669.6765	798.4455	855.9775	875.7416	898.8137	931.7317	970.3335	1003.7423	1029.935	1097.2267	1121.8553	1132.7562	1159.0056	1175.3746	1179.4363	1211.0805	1283.9366	1297.2727	1329.3399	1342.0762	1392.018	1427.3512	1445.9606	1481.3409	1499.4783	1509.6047	1516.5357	1818.8184	2920.2472	2924.4163	3030.5435	3076.0848	3078.2264	3082.3033	3109.4171	3177.7793	3534.6636
O=C1CCNCC11CO1	O=C1CCNC[C@]21CO2	
InChI=1S/C6H9NO2/c8-5-1-2-7-3-6(5)4-9-6/h7H,1-4H2	InChI=1S/C6H9NO2/c8-5-1-2-7-3-6(5)4-9-6/h7H,1-4H2/t6-/m1/s1
