14
gdb 21216	7.02608	1.3272	1.12602	4.7246	61.94	-0.2131	0.034	0.2471	1009.7952	0.108208	-412.029642	-412.022067	-412.021123	-412.061515	27.432	
C	 0.0134685428	 1.4177733483	 0.0301105335	-0.324824
N	-0.0043556859	-0.0406780318	 0.1013584555	-0.398021
C	-1.216946537	-0.6664106807	 0.0124862856	 0.526397
N	-2.3652396994	-0.0618891525	 0.0008985609	-0.228652
O	-3.3272356665	-1.135050068	 0.0058908902	-0.248308
C	-2.6874238036	-2.3400984185	 0.0043794545	 0.492851
N	-3.1827392283	-3.5029066344	 0.0331686506	-0.607082
N	-1.3326899796	-2.0333509119	-0.0379451709	-0.409312
H	 1.0343179326	 1.761218943	 0.2066394656	 0.13017
H	-0.3413584225	 1.8020091241	-0.9343547533	 0.137829
H	-0.6358604057	 1.8167311158	 0.8118030773	 0.165719
H	 0.7317355697	-0.4987482988	-0.4170861148	 0.250681
H	-4.1982352857	-3.4595784447	 0.0680740591	 0.231883
H	-0.6185984308	-2.7095029399	 0.1696702062	 0.280668
94.6456	150.9679	195.9941	198.8567	347.1808	372.0902	380.6024	507.6207	536.9361	673.2559	710.767	731.0687	763.5213	770.2937	914.6363	976.1234	1011.4462	1072.6847	1107.8137	1151.8236	1183.163	1283.5137	1321.9588	1432.0208	1456.108	1483.6827	1512.6987	1580.2667	1684.5671	1792.2771	3027.382	3108.5078	3147.1804	3536.9084	3594.0556	3685.2174
CNC1=NOC(=N)N1	CNC1=NO[C@@H]([NH])N1	
InChI=1S/C3H6N4O/c1-5-3-6-2(4)8-7-3/h1H3,(H3,4,5,6,7)	InChI=1S/C3H7N4O/c1-5-3-6-2(4)8-7-3/h2,4H,1H3,(H2,5,6,7)/t2-/m0/s1
