15
gdb 10936	4.24384	1.56531	1.38452	4.2681	65.74	-0.2609	0.0029	0.2637	915.1306	0.118127	-362.633974	-362.626637	-362.625693	-362.665522	27.317	
C	 0.0586405112	 1.5027416542	-0.0156486124	-0.489062
C	 0.0595766485	 0.0150940176	 0.0857278635	 0.469085
C	-0.8953455858	-0.863192223	 0.8298663783	-0.343033
C	 0.5955052114	-0.9925932194	 1.082698673	-0.172934
C	 1.2234719874	-1.6744277446	-0.1340775799	-0.039504
O	 0.6001881206	-0.7260482278	-1.0344755721	-0.313465
C	 2.6855582858	-1.5847983819	-0.1893448391	 0.291155
N	 3.8391019598	-1.5255733109	-0.2128989156	-0.316755
H	 1.0633124029	 1.8817798497	-0.2235757116	 0.142649
H	-0.6058436075	 1.828193178	-0.8236095372	 0.140377
H	-0.3006143319	 1.9468764155	 0.9169007595	 0.130206
H	-1.4392323533	-0.3873562623	 1.6400564945	 0.125737
H	-1.4391087064	-1.6439616228	 0.3049247216	 0.122466
H	 1.0666893394	-0.8702745277	 2.0474461474	 0.124457
H	 0.9158341381	-2.7058782746	-0.3435019198	 0.128618
98.4791	165.0429	203.4174	276.4828	315.1022	388.09	446.3092	494.4511	550.7986	662.1322	806.5469	829.8714	872.0577	916.8493	941.35	970.6385	977.7808	1025.9158	1045.4437	1071.6845	1101.0059	1126.0111	1197.3068	1245.4218	1268.5231	1357.9708	1387.6696	1429.5061	1473.4796	1488.7324	1502.0302	2360.6393	3038.6149	3042.7646	3105.4947	3116.3094	3123.3588	3208.436	3220.247
CC12CC1C(O2)C#N	C[C@]12C[C@H]1[C@@H](O2)C#N	
InChI=1S/C6H7NO/c1-6-2-4(6)5(3-7)8-6/h4-5H,2H2,1H3	InChI=1S/C6H7NO/c1-6-2-4(6)5(3-7)8-6/h4-5H,2H2,1H3/t4-,5-,6-/m0/s1
