18
gdb 44007	3.66905	1.38793	1.25616	1.7126	75.23	-0.2277	-0.0272	0.2005	1034.9316	0.148929	-401.927763	-401.920524	-401.919579	-401.959356	29.357	
O	-0.0238975738	 0.5392058162	-1.3134586662	-0.286917
C	-0.0218728083	 1.3395026565	-0.420831936	 0.371685
C	-1.2973877589	 1.9169256174	 0.2710060052	-0.428257
C	-0.7733006878	 3.0687277866	 1.0744808243	 0.256823
C	-0.795361389	 3.42597182	 2.5697617006	-0.272736
C	 0.7805040208	 3.447050606	 2.547262712	-0.272737
C	 0.7253416114	 3.0888151189	 1.0530712767	 0.25682
C	 1.2569495386	 1.9511737265	 0.2345038887	-0.428253
N	-0.0481235576	 4.1527674132	 0.3817309696	-0.396143
H	-2.0540491599	 2.149306872	-0.4854271591	 0.134113
H	-1.7197354506	 1.1314483034	 0.911162188	 0.134688
H	-1.3005332291	 4.3607285753	 2.8227719404	 0.111634
H	-1.1893108014	 2.6207109027	 3.1942434121	 0.10419
H	 1.2675063941	 4.3950775809	 2.7861202622	 0.111632
H	 1.2135141339	 2.6528458854	 3.159930907	 0.104194
H	 1.7183116158	 1.1775420459	 0.8620314105	 0.134687
H	 1.9851956201	 2.2034642232	-0.5431444066	 0.134114
H	-0.0601039082	 3.9754413498	-0.6216581193	 0.230462
80.2873	209.4525	292.5794	301.6892	426.6553	433.5616	474.7012	550.6581	584.5944	660.0274	714.4796	724.1945	762.4012	808.2778	814.5783	850.5945	927.5726	963.8619	974.137	1014.8294	1050.4978	1066.948	1093.3959	1114.8031	1176.3022	1180.9682	1215.4271	1228.5002	1236.0485	1254.1883	1259.7119	1359.9345	1374.6808	1384.6055	1454.3529	1461.9536	1466.2715	1488.3451	1853.2348	3033.3726	3036.724	3062.5385	3069.5255	3077.6677	3078.0166	3113.2471	3130.6372	3481.4215
O=C1CC23CCC2(C1)N3	O=C1C[C@@]23CC[C@]2(C1)N3	
InChI=1S/C7H9NO/c9-5-3-6-1-2-7(6,4-5)8-6/h8H,1-4H2	InChI=1S/C7H9NO/c9-5-3-6-1-2-7(6,4-5)8-6/h8H,1-4H2/t6-,7+
