17
gdb 14979	4.55723	1.4601	1.17478	2.4493	65.25	-0.2447	0.0243	0.269	1011.9131	0.143212	-400.995984	-400.988194	-400.98725	-401.028581	27.841	
C	-0.0870259284	 1.386523008	-0.0028654544	-0.241768
O	 0.0720455896	-0.0170126406	-0.0169433219	-0.239908
C	 0.7120744864	-0.5538284883	 1.122727788	 0.073838
C	-0.2791582304	-0.7732746184	 2.2703523418	-0.094176
O	 0.3525869129	-1.4373778729	 3.3727241281	-0.222811
C	 1.2361849634	-2.4102842249	 3.0328765768	 0.134228
N	 1.701311425	-2.7135605275	 1.8985623729	-0.272891
C	 1.310387847	-1.9080373672	 0.7446868564	-0.173344
H	 0.8799357451	 1.9006597753	 0.1040451378	 0.111907
H	-0.5315799102	 1.6665115478	-0.9607298164	 0.13343
H	-0.7521042063	 1.7302461724	 0.8024897454	 0.109196
H	 1.5127049665	 0.1194378178	 1.4681393685	 0.0794
H	-0.6736452764	 0.1630674985	 2.6703276295	 0.116414
H	-1.1178857359	-1.3819625313	 1.9094122547	 0.120445
H	 1.5395462792	-2.9558066096	 3.9244781758	 0.125222
H	 0.5776268509	-2.4613412435	 0.1434753934	 0.124665
H	 2.1894256315	-1.7681754856	 0.1074448034	 0.116154
70.5235	126.708	166.3204	174.5591	281.4377	374.6089	439.4671	486.5528	491.3137	538.0698	797.5587	897.6216	931.4191	958.3956	967.8954	983.3449	1043.029	1125.3597	1127.8415	1157.8205	1172.5508	1183.11	1214.5925	1234.3814	1287.1615	1332.4485	1349.5029	1374.6523	1404.0259	1421.9935	1481.028	1485.7597	1492.6327	1507.9853	1512.7765	1740.9205	2977.4013	2986.2197	3028.9615	3033.255	3037.2195	3074.0878	3110.22	3118.2703	3161.8656
COC1COC=NC1	CO[C@H]1COC=NC1	
InChI=1S/C5H9NO2/c1-7-5-2-6-4-8-3-5/h4-5H,2-3H2,1H3	InChI=1S/C5H9NO2/c1-7-5-2-6-4-8-3-5/h4-5H,2-3H2,1H3/t5-/m1/s1
