19
gdb 7993	2.77725	1.94379	1.47891	2.1869	70.7	-0.2077	-0.0185	0.1892	938.4014	0.165279	-365.077596	-365.069227	-365.068283	-365.110569	30.89	
C	 0.4056871957	 1.4707398687	-0.278949566	-0.401155
C	 0.0483888912	 0.0016548981	-0.0101289705	-0.092485
C	 0.3511980743	-0.9949073896	-1.1553441463	-0.196221
N	 1.581264775	-1.7405282567	-0.8058472697	-0.064718
C	 2.8063556317	-1.1539158645	-1.3403426532	-0.332193
C	 1.5794633387	-1.8266320404	 0.6533389186	-0.287751
C	 0.866370743	-0.5653294865	 1.1630792565	 0.3907
O	 0.937879543	-0.094148128	 2.2682764742	-0.314717
H	 1.442389172	 1.5801575598	-0.6124686973	 0.124284
H	-0.2418910125	 1.8920657009	-1.0536744236	 0.117626
H	 0.2826804538	 2.0574007839	 0.6358497761	 0.139833
H	-1.0069614365	-0.0444176693	 0.2840581634	 0.10379
H	-0.4729716305	-1.7121988029	-1.2559601204	 0.104415
H	 0.4756524744	-0.5035886357	-2.1234908935	 0.105733
H	 3.0474608206	-0.1463952105	-0.9548809409	 0.100391
H	 3.6521196612	-1.808047218	-1.1062510413	 0.124909
H	 2.7293998839	-1.0882055384	-2.4295660353	 0.123172
H	 0.9979230463	-2.6993459879	 0.9895637112	 0.124844
H	 2.5834060447	-1.9213549332	 1.0723477978	 0.129544
56.7532	107.6451	208.947	221.8864	235.1216	307.1008	372.7468	396.7357	466.2554	531.0211	628.8182	663.5754	750.4535	827.8456	876.265	916.981	944.9752	1013.1371	1034.236	1071.5324	1098.1436	1120.8651	1158.5482	1171.0613	1212.066	1257.5202	1265.2983	1295.7356	1329.9887	1348.4974	1361.9616	1405.4831	1452.1324	1467.2577	1488.4844	1496.3256	1499.1283	1501.9835	1508.3811	1845.4059	2937.3865	2989.0174	3018.1226	3038.5901	3040.4942	3063.5868	3096.6363	3107.5499	3109.0355	3113.4962	3118.8994
CC1CN(C)CC1=O	C[C@H]1CN(C)CC1=O	
InChI=1S/C6H11NO/c1-5-3-7(2)4-6(5)8/h5H,3-4H2,1-2H3	InChI=1S/C6H11NO/c1-5-3-7(2)4-6(5)8/h5H,3-4H2,1-2H3/t5-/m0/s1
