20
gdb 75449	1.92982	1.59761	1.33433	3.9459	84.91	-0.2503	0.0056	0.2559	1126.2891	0.170845	-366.056155	-366.046904	-366.045959	-366.089842	34.745	
C	-0.1085828065	 1.472514985	 0.0199055034	-0.504593
C	 0.015617191	-0.0168095426	-0.0437061297	 0.313221
C	 0.051383341	-0.7875932776	-1.1308078042	-0.166353
C	 0.0935426076	-2.2612318537	-0.8219491876	-0.262076
C	 0.4277879547	-2.2867343937	 0.6860918368	-0.249527
C	 0.0441414991	-0.8740434483	 1.2333274684	 0.043358
C	 1.0349282325	-0.3711080075	 2.3033314162	-0.437396
C	-1.3109228374	-0.891560627	 1.8152725284	 0.259863
N	-2.3757969328	-0.8930349292	 2.2670158723	-0.352445
H	 0.7491236797	 1.9321216437	 0.5252696769	 0.129262
H	-0.1803376013	 1.9037162816	-0.9816354594	 0.129073
H	-1.0031638694	 1.7670647725	 0.5827068714	 0.146273
H	 0.0109761916	-0.4047346342	-2.1454130876	 0.095894
H	-0.8769569701	-2.7297343259	-1.0345950963	 0.122679
H	 0.8351494337	-2.8046734121	-1.4174212366	 0.109115
H	-0.0699484363	-3.090799526	 1.2314503895	 0.119769
H	 1.5060467137	-2.4119638661	 0.8235433173	 0.109872
H	 2.034450122	-0.292784778	 1.8655605443	 0.12415
H	 0.745378038	 0.6087716694	 2.6913139583	 0.135053
H	 1.0771726091	-1.0676803305	 3.1453993381	 0.134808
77.0641	134.9669	182.8378	191.9078	234.1401	258.1862	261.6813	329.1496	364.396	487.287	507.1865	599.876	613.3685	651.1743	693.5937	811.0662	851.2419	906.4963	923.2029	932.4243	997.269	1030.8229	1041.0586	1069.0959	1097.9885	1122.9952	1159.5336	1218.1977	1225.4158	1256.6604	1305.2272	1326.2842	1351.6875	1405.9974	1416.2583	1478.0073	1483.5202	1486.3817	1491.9193	1499.2879	1502.8924	1725.9589	2342.4119	3018.9582	3023.8459	3042.346	3054.3346	3067.5936	3073.1934	3117.248	3117.293	3119.6463	3124.7328	3186.7948
CC1=CCCC1(C)C#N	CC1=CCC[C@]1(C)C#N	
InChI=1S/C8H11N/c1-7-4-3-5-8(7,2)6-9/h4H,3,5H2,1-2H3	InChI=1S/C8H11N/c1-7-4-3-5-8(7,2)6-9/h4H,3,5H2,1-2H3/t8-/m1/s1
