20
gdb 93631	3.19459	1.18852	0.98924	3.4836	79.15	-0.2818	0.0264	0.3082	1240.393	0.171788	-403.185338	-403.176134	-403.17519	-403.219492	34.226	
C	-0.4702019156	 1.470080445	 0.0915556289	-0.416603
C	 0.0005305972	 0.0174524732	 0.0964351371	 0.029811
C	 0.6868685349	-0.4456597043	-1.2097270103	-0.213293
C	 1.5983841325	-1.6409581783	-0.8214338695	-0.226573
C	 1.5206752815	-1.7273762203	 0.735288745	-0.162096
C	 2.7730889638	-2.097768472	 1.3810183654	 0.24825
N	 3.7729993969	-2.3329555142	 1.9131191093	-0.332875
C	 1.0374507459	-0.3160589093	 1.1783040046	 0.105397
O	 2.0803504725	 0.6346929078	 1.0982304938	-0.433869
H	 0.3776259252	 2.1478374761	-0.0336744796	 0.140222
H	-1.1765764739	 1.6442813306	-0.7263794042	 0.113081
H	-0.9743176217	 1.7283621576	 1.0285911569	 0.112755
H	-0.8621246392	-0.6356401622	 0.287238213	 0.073481
H	-0.044712279	-0.71458913	-1.9761004721	 0.101003
H	 1.2926206124	 0.3709284885	-1.611618714	 0.119551
H	 1.274739349	-2.583510772	-1.2682636673	 0.114615
H	 2.6282177512	-1.4713937668	-1.1396801844	 0.130401
H	 0.7585724999	-2.4569933433	 1.031827125	 0.122813
H	 0.6016983235	-0.3431812519	 2.1871474101	 0.074127
H	 2.778909953	 0.377704736	 1.7111740622	 0.299802
57.1991	113.9065	133.5128	205.541	224.2885	254.278	319.3114	361.9514	386.2418	466.6604	535.6638	571.9875	616.1835	704.5016	823.2327	835.0538	851.611	911.9887	960.8037	986.9314	1003.7983	1009.3575	1044.3646	1086.8204	1133.456	1160.5077	1185.4502	1221.1697	1267.0744	1275.8387	1303.402	1307.8979	1310.1854	1355.7543	1358.8212	1387.7637	1407.4701	1428.1854	1487.1799	1494.2365	1503.0148	1509.0434	2348.6666	3000.5259	3013.7337	3039.0612	3049.4332	3061.2206	3079.1735	3099.8997	3101.1789	3126.6637	3128.6453	3796.4414
CC1CCC(C#N)C1O	C[C@H]1CC[C@@H](C#N)[C@H]1O	
InChI=1S/C7H11NO/c1-5-2-3-6(4-8)7(5)9/h5-7,9H,2-3H2,1H3	InChI=1S/C7H11NO/c1-5-2-3-6(4-8)7(5)9/h5-7,9H,2-3H2,1H3/t5-,6-,7-/m0/s1
