20
gdb 58170	2.08827	1.32258	1.00861	2.7105	82.81	-0.2153	-0.0554	0.1599	1284.262	0.166647	-403.109342	-403.09848	-403.097536	-403.146078	38.492	
C	 0.5408943584	 1.6433485137	 0.0089252963	-0.40672
C	-0.0407945077	 0.2572202625	-0.2979462179	-0.068144
N	 0.6000361425	-0.8900604569	 0.3410856585	-0.046658
C	 1.8491733591	-1.3019318978	-0.2743180735	-0.321517
C	 0.6956197895	-0.8069592244	 1.7910130116	-0.331958
C	-1.5457170662	 0.2030429595	 0.0127306591	 0.20192
O	-2.1598314296	 1.1362417455	 0.4815688449	-0.294986
C	-2.2072340957	-1.0515212121	-0.309997783	 0.299838
C	-2.8061387919	-2.0514660404	-0.6110318194	-0.41153
H	 1.6111296438	 1.6661070554	-0.2154738525	 0.112769
H	 0.0458435239	 2.4062486719	-0.5968168281	 0.129795
H	 0.3937659311	 1.9153999325	 1.0564382722	 0.133373
H	 0.0308517101	 0.0755416938	-1.380025033	 0.100995
H	 2.6811050993	-0.5890669937	-0.1240918988	 0.097354
H	 2.1610682204	-2.2630209238	 0.1482307197	 0.120883
H	 1.7077918597	-1.4380494077	-1.3508663668	 0.119579
H	-0.2687528379	-0.5173768157	 2.2187042403	 0.132819
H	 0.956756168	-1.7920627474	 2.1911850345	 0.121569
H	 1.4549665105	-0.0883836766	 2.1465288542	 0.100446
H	-3.3314797674	-2.9385222183	-0.8693342581	 0.210173
20.2826	79.035	122.6463	177.4916	192.1904	224.0881	247.5422	255.4226	272.7598	281.218	376.9582	399.3329	457.3255	524.9816	595.3832	635.7485	686.0329	704.2328	800.9145	815.6793	960.469	1038.7631	1062.7086	1075.6843	1121.6667	1122.8494	1155.0624	1185.8067	1221.2167	1313.7172	1340.0971	1372.0423	1404.6915	1447.4192	1474.3038	1478.7777	1483.9929	1488.7336	1497.1982	1508.9662	1521.5615	1766.9395	2209.6988	2934.0376	2952.4782	3008.9062	3052.9361	3055.3427	3061.4577	3101.3444	3107.4738	3123.9853	3133.6645	3496.2559
CC(N(C)C)C(=O)C#C	C[C@@H](N(C)C)C(=O)C#C	
InChI=1S/C7H11NO/c1-5-7(9)6(2)8(3)4/h1,6H,2-4H3	InChI=1S/C7H11NO/c1-5-7(9)6(2)8(3)4/h1,6H,2-4H3/t6-/m1/s1
