19
gdb 68250	2.82935	1.80678	1.43179	1.9757	73.52	-0.2449	0.0686	0.3136	953.1306	0.161634	-422.99119	-422.984287	-422.983343	-423.022011	29.226	
O	-0.0293301467	 1.3911449457	 0.1215405849	-0.48953
C	 0.0786160907	 0.0050708976	 0.0802312511	 0.400942
C	 0.8540288618	-0.7913740921	-1.0320422113	-0.292702
C	 0.7556551774	-1.9353588766	 0.0259026335	-0.058483
C	 0.9077176065	-0.8306597051	 1.1047557838	-0.302153
C	-0.7658237971	-2.1744936984	 0.0118300638	 0.140832
O	-1.3900957688	-2.43735368	 1.2899132436	-0.304315
C	-1.9897588569	-1.1179849303	 1.3191461114	-0.111978
C	-1.2783516008	-0.7118008603	 0.0167385998	-0.085309
H	 0.8554132398	 1.7645087629	 0.188687142	 0.279899
H	 0.3665746844	-0.9290570407	-2.0023388436	 0.09539
H	 1.8788551274	-0.4366137451	-1.1688034487	 0.092635
H	 1.4153610718	-2.8007888792	-0.0009495269	 0.07016
H	 1.9380197175	-0.4705987092	 1.172200893	 0.085546
H	 0.5048241491	-1.0213847843	 2.0998123526	 0.116283
H	-1.1009605299	-2.8753580905	-0.7591804825	 0.073626
H	-3.0816876688	-1.1767950211	 1.2364595165	 0.101496
H	-1.7280001746	-0.5591678329	 2.2253862237	 0.105539
H	-1.9031186227	-0.3457844802	-0.7981127068	 0.082123
187.1279	264.985	298.8637	318.3736	381.9126	447.5913	485.8776	552.7049	582.3983	665.6048	783.7367	825.678	855.1432	867.493	903.1331	932.2683	937.3907	970.4365	977.5393	1001.3476	1013.1275	1037.5344	1058.8715	1072.9198	1114.9368	1130.7996	1149.7353	1164.248	1180.2869	1216.728	1223.6762	1253.4575	1274.4918	1300.2203	1317.0246	1346.9899	1358.2943	1403.8557	1483.0556	1518.7681	1525.8969	3018.515	3048.7111	3057.54	3062.1481	3067.5924	3111.2274	3113.51	3132.8191	3137.2783	3815.0766
OC12CC(C1)C1OCC21	O[C@@]12C[C@@H](C1)[C@H]1OC[C@@H]21	
InChI=1S/C7H10O2/c8-7-1-4(2-7)6-5(7)3-9-6/h4-6,8H,1-3H2	InChI=1S/C7H10O2/c8-7-1-4(2-7)6-5(7)3-9-6/h4-6,8H,1-3H2/t4-,5-,6-,7-/m1/s1
