17
gdb 17831	4.26103	1.65096	1.4549	1.8575	69.59	-0.2377	-0.0244	0.2133	915.8624	0.141852	-363.830823	-363.823213	-363.822269	-363.863201	28.238	
C	 0.0394215843	 1.4073325619	 0.7382139398	-0.483016
C	 0.0131132609	 0.2617786775	-0.2594022146	 0.384717
O	 0.9847792343	-0.0127246087	-0.9338489922	-0.32418
C	-1.2936245321	-0.4707005708	-0.3302736712	-0.098526
C	-1.9380762332	-0.9565372441	-1.5874880326	-0.041085
C	-0.9490294203	-1.4693277001	-2.6320749782	-0.244014
C	-0.4497151352	-2.4345768261	-1.5296994776	-0.144996
N	-1.4853787173	-1.9358312073	-0.5428349732	-0.155536
H	 0.9950110851	 1.9284465732	 0.6751520422	 0.142064
H	-0.7814407628	 2.1073285073	 0.5446369497	 0.140206
H	-0.1047090221	 1.022861061	 1.7548502607	 0.146784
H	-2.0094053095	-0.1309942644	 0.414374742	 0.096298
H	-2.9906576364	-0.7483767837	-1.7597120428	 0.098998
H	-1.4485586329	-1.9792966082	-3.4579048915	 0.108511
H	-0.231618038	-0.7482175992	-3.0245307613	 0.128131
H	-0.6665339296	-3.4848710967	-1.7337794433	 0.110097
H	 0.5814802348	-2.3220044615	-1.200107206	 0.135547
43.4881	146.4866	196.1664	229.0944	327.5892	342.9538	409.4395	598.2906	623.2707	743.8754	767.7673	780.3697	791.6068	852.9143	935.0513	956.4468	962.6597	1011.1496	1042.6455	1053.578	1074.939	1120.801	1164.2587	1189.9449	1219.6221	1243.9083	1268.857	1291.9289	1357.7502	1376.6928	1421.5349	1463.3225	1473.9671	1475.5472	1495.0255	1786.9813	3033.0062	3079.0783	3085.4487	3092.9876	3134.398	3137.1781	3149.6183	3155.2479	3158.9105
CC(=O)C1C2CCN12	CC(=O)[C@H]1[C@H]2CCN12	
InChI=1S/C6H9NO/c1-4(8)6-5-2-3-7(5)6/h5-6H,2-3H2,1H3	InChI=1S/C6H9NO/c1-4(8)6-5-2-3-7(5)6/h5-6H,2-3H2,1H3/t5-,6+,7?/m1/s1
