18
gdb 90592	2.21466	1.79096	1.33122	3.9266	72.01	-0.2361	0.0019	0.238	1023.6908	0.14758	-439.068526	-439.060098	-439.059154	-439.10165	31.584	
C	-0.4713731849	 1.560278611	 0.1859600375	-0.40789
C	-0.0637308087	 0.1058182673	-0.0057707355	-0.127021
C	 0.6180732455	-0.4691315779	-1.2836426721	-0.027479
C	 1.7592062275	 0.2672377517	-2.0491738269	 0.093646
O	 1.7526640972	 1.6629687864	-1.8692122111	-0.415423
C	 2.7811923825	-0.5447934271	-1.1883662265	-0.225486
N	 1.6510979902	-1.1522757588	-0.4155452944	-0.142515
C	 1.2137278995	-0.3888461592	 0.7073212937	 0.372206
O	 1.76281713	-0.1505443504	 1.7432135811	-0.325097
H	 0.3579226793	 2.2357919442	-0.0184082151	 0.147955
H	-1.3009862075	 1.8221396889	-0.477904888	 0.116753
H	-0.8027181428	 1.7094220297	 1.2180160251	 0.12874
H	-0.907803496	-0.549935177	 0.2411523619	 0.112023
H	 0.0013409474	-1.1171887633	-1.9093935238	 0.083877
H	 1.7829668695	 0.0070418981	-3.1159473458	 0.079071
H	 2.5442459344	 2.0264637963	-2.2797959767	 0.291435
H	 3.3548417336	-1.2955108895	-1.7379103766	 0.114925
H	 3.4517138733	 0.0550543797	-0.5666948567	 0.130281
62.1467	170.9571	188.2173	216.0186	235.9537	278.9353	305.2508	409.8778	476.74	602.6026	622.5041	674.8606	737.4291	799.9442	833.5029	849.9371	943.4117	964.653	985.3282	1030.1613	1053.8983	1075.5895	1122.3728	1160.4771	1166.6836	1189.9811	1201.9766	1225.5803	1252.6315	1290.3271	1312.0289	1338.8405	1350.6338	1407.877	1427.1041	1490.0791	1492.9515	1503.9455	1886.5939	3006.9833	3035.0921	3049.6535	3056.3284	3090.2588	3110.025	3116.3883	3165.5858	3811.8288
CC1C2C(O)CN2C1=O	C[C@H]1[C@H]2[C@@H](O)CN2C1=O	
InChI=1S/C6H9NO2/c1-3-5-4(8)2-7(5)6(3)9/h3-5,8H,2H2,1H3	InChI=1S/C6H9NO2/c1-3-5-4(8)2-7(5)6(3)9/h3-5,8H,2H2,1H3/t3-,4-,5-/m0/s1
