18
gdb 105215	2.1071	1.51939	1.03738	14.4696	70.41	-0.1934	-0.0391	0.1543	1166.6976	0.147362	-476.167185	-476.158114	-476.157169	-476.201227	33.142	
N	-0.0798260221	 1.0599569178	 0.0133043426	-0.422909
H	 0.3898089598	 0.157099832	 0.1369507543	 0.325923
H	 0.6270992096	 1.7361509259	-0.2870097118	 0.336296
H	-0.7733832007	 0.9639679977	-0.7329040703	 0.328163
C	-0.7028287655	 1.4831721914	 1.3181086229	-0.111392
C	-1.3571945532	 0.4149968276	 2.134501365	-0.31619
C	-0.0498130016	 1.0343880179	 2.5831752799	 0.133453
C	 1.2290958428	 0.2047023265	 2.5735014404	-0.13234
O	 1.4377385851	-0.4038017897	 3.8063841089	-0.419024
C	-0.172757978	 2.1001523722	 3.7355218441	 0.371244
O	 0.5715798052	 1.8762219511	 4.7170299952	-0.479114
O	-1.0000971238	 2.9961384894	 3.5221814201	-0.46319
H	-1.1028880645	 2.4905392994	 1.2847505778	 0.164239
H	-2.2666092391	 0.7020062652	 2.6495608912	 0.162637
H	-1.3330133995	-0.6089849568	 1.7649228363	 0.1062
H	 1.1853213174	-0.6025075583	 1.8103328246	 0.033903
H	 2.072013123	 0.8649382877	 2.2858297654	 0.071583
H	 1.230954375	 0.3407164131	 4.4374175036	 0.310518
75.14	113.1459	156.1995	184.7617	211.0046	265.9869	299.4745	332.8145	399.9802	443.178	550.6256	582.8354	726.4667	787.383	807.0167	873.3757	879.2976	902.0784	928.1316	955.2963	985.8937	1052.592	1072.9191	1120.0048	1140.0116	1159.8323	1184.4581	1269.2296	1287.4957	1330.6325	1381.4491	1395.1233	1452.249	1470.7659	1497.2825	1549.9954	1646.7283	1652.687	1775.7035	2843.2154	2893.9516	3103.7728	3190.8725	3197.8362	3215.8938	3384.6476	3467.5143	3487.3631
[NH3+]C1CC1(CO)C([O-])=O	[NH3][C@H]1C[C@]1(CO)C(=O)[O]	
InChI=1S/C5H9NO3/c6-3-1-5(3,2-7)4(8)9/h3,7H,1-2,6H2,(H,8,9)	InChI=1S/C5H9NO3/c6-3-1-5(3,2-7)4(8)9/h3,7H,1-2H2,6H3/t3-,5+/m0/s1
