15
gdb 54449	3.70573	0.68486	0.58335	3.2656	68.93	-0.2179	-0.0804	0.1376	1753.6782	0.106576	-453.92131	-453.910938	-453.909994	-453.961303	33.59	
O	 1.6596329177	 0.6114851519	 0.8819422375	-0.293003
C	 1.505615027	 1.2327686375	-0.0878048544	 0.575537
O	 1.4258915944	 1.8507387299	-1.0726122876	-0.313876
C	-1.4843182047	 1.5806738381	 0.1836243194	-0.07788
C	-2.7188378721	 1.5196875767	 1.0140352935	-0.204643
N	-3.8870511015	 2.0972100309	 0.3367725519	-0.283239
C	-3.4819653949	 2.4702188564	-0.819790891	 0.350368
N	-4.2943054007	 2.9917173769	-1.7919782125	-0.561287
H	-5.2056669139	 3.2934176646	-1.4799129025	 0.261696
H	-3.8684360011	 3.586359094	-2.4844121115	 0.254612
C	-2.001763479	 2.2060542701	-1.0685680606	-0.338743
H	-2.8759148235	 0.4614374849	 1.29349951	 0.15212
H	-2.5193559671	 2.0003886619	 1.9873407668	 0.14964
H	-1.4005613623	 3.0959162176	-1.3104454211	 0.16078
H	-1.8028821084	 1.5273576785	-1.9130392378	 0.167919
11.6791	26.0302	31.5496	72.8909	128.051	140.8192	206.4477	337.9157	374.5373	426.5463	538.1327	625.288	644.7005	671.0023	690.3049	801.0262	834.2967	876.0218	914.0234	972.5799	1010.4633	1090.7885	1159.0804	1164.1344	1230.4154	1268.6395	1345.9035	1368.2506	1373.7092	1402.6044	1628.9991	1714.7416	2427.5303	2966.9857	2988.2887	3012.2726	3034.0085	3578.185	3692.6808
[O-]C(=O)C12CN1C(=[NH2+])C2	O=C=O.[C]1CN=C(N)C1	
InChI=1S/C5H6N2O2/c6-3-1-5(4(8)9)2-7(3)5/h6H,1-2H2,(H,8,9)	InChI=1S/C4H6N2.CO2/c5-4-2-1-3-6-4;2-1-3/h2-3H2,(H2,5,6);
