25
gdb 105509	2.13785	1.24799	1.13056	1.4243	88.26	-0.2608	0.0752	0.3361	1308.7772	0.227441	-389.48212	-389.471414	-389.470469	-389.517348	40.418	
C	 0.0617033429	 1.603610094	-0.0310644117	-0.403205
C	 0.0611579947	 0.0796934835	 0.1723033168	-0.033477
C	 0.7292022174	-0.2949453044	 1.5053603255	-0.403204
C	-1.3333377681	-0.5596380668	-0.0118653802	 0.37361
C	-2.3369692524	-0.0690881176	 1.0302576973	-0.147737
O	-3.5945853103	-0.6979004059	 0.7993404575	-0.425403
C	-1.9018317445	-0.4806426079	-1.4700134223	-0.26223
C	-2.1440750324	-2.0129903307	-1.4554453429	-0.205219
C	-1.3250448278	-2.1212184524	-0.1422591776	-0.262219
H	 1.0873903224	 1.9856335252	-0.0660943729	 0.109046
H	-0.4304047193	 1.8852807837	-0.9673690235	 0.116844
H	-0.4493219415	 2.1247690274	 0.7857613705	 0.112115
H	 0.6812011915	-0.3496254797	-0.6275769851	 0.067799
H	 0.2338955457	 0.1814366449	 2.3584080007	 0.11211
H	 0.7164591208	-1.3766655933	 1.6723788664	 0.116841
H	 1.7745550907	 0.0311446244	 1.5156273516	 0.109048
H	-1.9720988006	-0.3080966034	 2.0408555037	 0.084534
H	-2.4404783775	 1.0246491304	 0.9624383495	 0.084535
H	-4.2131534795	-0.3799366766	 1.4623881413	 0.287002
H	-2.7862683058	 0.1451326157	-1.6084587232	 0.098567
H	-1.1393149856	-0.1729051378	-2.1919807454	 0.086511
H	-3.1952798533	-2.2619569118	-1.306418121	 0.114502
H	-1.7637090707	-2.5733321629	-2.3130388361	 0.084583
H	-0.3158552403	-2.5151166632	-0.29637874	 0.086511
H	-1.7948707267	-2.6747553447	 0.6737392211	 0.098539
82.6721	101.9696	112.0893	195.1563	211.1173	241.7579	245.3715	257.2354	286.163	311.5946	319.749	453.4661	456.9362	507.7129	611.5333	713.5355	783.0111	838.3173	858.0625	903.9679	923.0463	928.8677	957.2322	965.7966	967.2157	1050.7209	1053.4744	1092.0244	1111.1607	1115.178	1165.8995	1195.5382	1214.1409	1223.9516	1250.7794	1257.3761	1273.5696	1293.5183	1296.0132	1300.5082	1350.6285	1377.6983	1398.9697	1419.8738	1451.376	1462.1693	1468.1384	1487.17	1494.9992	1496.0483	1506.1348	1510.1749	1516.3585	2972.6289	2992.6345	3004.5751	3029.3633	3033.1657	3045.2998	3048.7364	3068.1546	3091.794	3097.115	3101.2183	3101.4875	3103.0025	3106.2311	3133.3944	3839.1952
CC(C)C1(CO)CCC1	CC(C)C1(CO)CCC1	
InChI=1S/C8H16O/c1-7(2)8(6-9)4-3-5-8/h7,9H,3-6H2,1-2H3	InChI=1S/C8H16O/c1-7(2)8(6-9)4-3-5-8/h7,9H,3-6H2,1-2H3
