20
gdb 27757	2.18605	1.74901	0.9959	1.8532	89.8	-0.1832	0.059	0.2422	1228.9989	0.171201	-366.029626	-366.020357	-366.019413	-366.065192	33.161	
C	-0.0539726304	 1.5729117208	-0.0428200813	-0.494999
C	 0.1067351893	 0.0902143168	-0.079971683	 0.240198
C	-0.0025092118	-0.8183113248	-1.1255391066	-0.297374
C	 0.2433531724	-2.1590679919	-0.6643821113	 0.076289
C	 0.2192690639	-3.4146828495	-1.4824697849	-0.500566
C	 0.4991029536	-2.0035001608	 0.6787119266	 0.275921
C	 0.832497104	-2.4183753066	 2.1042609732	-0.384015
C	 0.7232195861	-0.8776710698	 2.4322994821	-0.171537
N	 0.4163769224	-0.6825096359	 1.0077345061	-0.037756
H	 0.8613382461	 2.082891878	 0.2835808159	 0.122358
H	-0.3000979075	 1.9442249148	-1.0405676136	 0.133038
H	-0.8576720231	 1.887722516	 0.6349579349	 0.122279
H	-0.240106948	-0.5447087448	-2.1448462015	 0.082378
H	 0.9567915106	-3.3894448077	-2.2938831445	 0.120335
H	 0.441582212	-4.290795513	-0.8659427081	 0.112891
H	-0.7596139365	-3.5815821111	-1.9481524207	 0.120324
H	 0.0936374186	-3.0407931645	 2.6170378469	 0.119116
H	 1.826457543	-2.8439421522	 2.2692061814	 0.119072
H	-0.0906870659	-0.5978738753	 3.1081786072	 0.121061
H	 1.6513648211	-0.3996225384	 2.7602491509	 0.120988
21.4607	67.0389	114.8942	176.8548	205.7837	235.8432	248.9034	333.7622	554.0189	580.5203	613.3959	642.5082	667.6204	711.2919	764.4416	808.0639	899.3727	934.6574	988.5618	1007.5791	1050.9908	1060.4823	1061.8399	1138.7427	1140.6837	1178.3023	1189.9752	1194.5817	1226.345	1276.9734	1340.9071	1406.2265	1414.9119	1424.0505	1430.4496	1479.7657	1484.1225	1487.2523	1498.6172	1506.1437	1516.102	1546.355	1640.4491	3013.5197	3018.7943	3043.835	3054.4149	3055.3835	3063.7873	3087.0326	3099.1906	3102.7175	3118.3229	3220.7137
CC1=CC(C)=C2CCN12	Cc1cc(C)c2CCn12	
InChI=1S/C8H11N/c1-6-5-7(2)9-4-3-8(6)9/h5H,3-4H2,1-2H3	InChI=1S/C8H11N/c1-6-5-7(2)9-4-3-8(6)9/h5H,3-4H2,1-2H3
