19
gdb 80549	2.91017	1.39418	1.23186	2.2121	70.81	-0.2257	0.0508	0.2765	1086.8928	0.159626	-460.129167	-460.121105	-460.120161	-460.161113	32.52	
C	-0.0987217435	 1.4864198706	-0.0058851583	-0.41315
C	 0.0988558103	-0.0155088129	 0.114082548	 0.145846
O	 0.9446993912	-0.5204962509	-0.9719312442	-0.295525
C	 1.9444546569	-1.2592656373	-0.2651306929	-0.003354
C	 1.1145967435	-2.0356067104	 0.809494719	 0.168641
O	 1.7637643564	-2.9370881382	 1.6526959196	-0.458735
C	 0.885827872	-0.5569083892	 1.3160480986	-0.155907
C	 2.3460927113	-0.2579687174	 0.8593685744	 0.105843
O	 3.2917778116	-0.7104782254	 1.8197844261	-0.449465
H	 0.8334383671	 2.0401676353	 0.1325335802	 0.119437
H	-0.4916433156	 1.7276122037	-0.9981970623	 0.131037
H	-0.8221123474	 1.8323397431	 0.7400791492	 0.116797
H	-0.8806507599	-0.5075770904	 0.0443572022	 0.082756
H	 2.6463029156	-1.7238391918	-0.9583073424	 0.077044
H	 0.2288556657	-2.5394352613	 0.4125985016	 0.087999
H	 2.5154403456	-2.4641144347	 2.0372642976	 0.286131
H	 0.5293750351	-0.3227373757	 2.3185987524	 0.081108
H	 2.5831688804	 0.7590116262	 0.5296785463	 0.079059
H	 4.161266084	-0.7083114634	 1.4051369648	 0.294438
187.0893	198.7828	233.6973	279.1175	288.2824	335.0664	361.1837	395.8315	465.4772	483.8078	590.0632	604.6603	642.3746	810.3334	856.7297	885.1819	902.4179	926.8911	950.4056	986.5429	1029.0062	1048.3419	1077.4987	1087.7864	1109.6402	1140.2143	1164.9117	1195.0292	1207.7071	1238.0849	1259.9209	1265.8689	1297.5773	1328.4195	1340.677	1398.7021	1412.8789	1426.03	1477.8838	1489.2925	1494.5794	3006.5808	3039.7826	3051.0801	3076.7031	3109.6983	3121.0677	3122.2998	3131.0364	3726.7203	3808.8766
CC1OC2C(O)C1C2O	C[C@H]1O[C@@H]2[C@@H](O)[C@H]1[C@H]2O	
InChI=1S/C6H10O3/c1-2-3-4(7)6(9-2)5(3)8/h2-8H,1H3	InChI=1S/C6H10O3/c1-2-3-4(7)6(9-2)5(3)8/h2-8H,1H3/t2-,3-,4-,5+,6+/m1/s1
