15
gdb 14939	4.79488	1.50403	1.19377	0.3674	61.98	-0.2562	-0.0416	0.2146	951.8886	0.119299	-399.817703	-399.810419	-399.809475	-399.850378	25.772	
O	-0.9436988991	 1.0851384952	 0.2763330918	-0.244247
C	 0.2004115961	 0.8375906481	 0.0039859452	 0.131488
C	 1.3045156669	 1.8829323633	 0.0443758546	 0.048947
C	 1.4860069993	 2.4897952797	 1.4377293897	-0.237787
C	 2.7078184351	 3.4121089953	 1.4057925735	-0.168703
N	 3.8666383604	 2.8041806078	 0.7552596431	-0.258427
C	 3.6745647833	 1.8249803619	-0.0168482008	 0.131822
O	 2.504722922	 1.2412201942	-0.399538766	-0.245132
H	 0.5455414065	-0.1779798505	-0.2889745862	 0.101345
H	 1.0458849963	 2.6759265411	-0.6722055289	 0.121007
H	 0.5706813282	 3.0145110309	 1.7225529422	 0.13065
H	 1.6472486655	 1.6825331348	 2.1614648554	 0.119294
H	 2.4708288868	 4.3508537809	 0.8876860623	 0.119044
H	 3.0013808871	 3.6909141763	 2.4232230003	 0.120448
H	 4.5072717356	 1.311558801	-0.4932827862	 0.130252
36.4785	101.2499	204.2631	218.0692	395.275	414.6403	497.686	536.4884	583.7887	795.7404	830.8935	882.8236	922.9784	951.5352	967.0487	1015.3605	1072.3405	1108.3557	1128.4748	1157.2747	1228.5435	1248.9729	1308.4728	1337.678	1364.158	1368.9197	1402.5989	1409.7645	1480.0577	1490.7673	1739.1814	1840.9768	2904.1436	3007.9942	3022.7071	3045.6173	3069.0706	3110.6491	3164.9637
O=CC1CCN=CO1	O=C[C@H]1CCN=CO1	
InChI=1S/C5H7NO2/c7-3-5-1-2-6-4-8-5/h3-5H,1-2H2	InChI=1S/C5H7NO2/c7-3-5-1-2-6-4-8-5/h3-5H,1-2H2/t5-/m1/s1
