17
gdb 65296	2.659	1.39336	1.14486	4.6287	74.22	-0.2427	0.0253	0.2679	1112.6225	0.135843	-417.976325	-417.96772	-417.966776	-418.009665	32.006	
N	-0.1248142903	 1.4340716251	-0.1316626195	-0.55602
C	-0.0434808349	-0.000318438	-0.0229217042	 0.041238
C	-0.3795890852	-0.5912795033	 1.3537763716	-0.386516
C	-1.355585679	-0.7333508036	 0.2486659768	 0.459212
C	-2.759560463	-0.1888369308	 0.0416982162	-0.349607
C	-2.9888962496	-1.5355961909	-0.6815733697	-0.076348
O	-1.6479754639	-1.9834465214	-0.3440598732	-0.292389
C	 0.9521490535	-0.6833990676	-0.818576189	 0.249309
N	 1.7610506178	-1.1707689946	-1.4879787492	-0.348594
H	 0.7240471975	 1.8669160376	 0.2219306888	 0.245096
H	-0.2186755123	 1.7140602985	-1.103630435	 0.244706
H	 0.1644201295	-1.4807909386	 1.6509497183	 0.148873
H	-0.5795139467	 0.1316441786	 2.1369059709	 0.136332
H	-3.3351198827	-0.055624939	 0.9592073712	 0.123996
H	-2.8310928068	 0.7140365851	-0.5647654001	 0.125485
H	-3.7478594171	-2.1952227481	-0.2510616262	 0.117571
H	-3.1285577369	-1.4723470192	-1.7658635477	 0.117658
83.9166	120.0021	140.7105	213.1993	244.201	290.0857	381.3003	401.2881	439.4346	532.3385	581.0798	653.9158	690.8206	786.4331	835.7102	866.5778	877.2906	898.3244	936.7149	972.0729	1008.8762	1062.3698	1104.0021	1133.1465	1161.4364	1189.4554	1203.3388	1244.3481	1262.1076	1282.1076	1355.7044	1391.6164	1464.3657	1491.818	1531.6069	1663.2935	2338.003	3041.8261	3085.988	3093.0479	3138.7815	3143.3329	3237.5008	3488.8321	3565.6556
NC1(CC11CCO1)C#N	N[C@]1(C[C@]21CCO2)C#N	
InChI=1S/C6H8N2O/c7-4-5(8)3-6(5)1-2-9-6/h1-3,8H2	InChI=1S/C6H8N2O/c7-4-5(8)3-6(5)1-2-9-6/h1-3,8H2/t5-,6+/m1/s1
