19
gdb 93701	3.05674	1.23042	1.13568	1.8443	77.31	-0.2491	0.0423	0.2914	1158.735	0.15715	-422.995268	-422.985986	-422.985042	-423.029213	35.302	
C	 0.3789176014	 1.25471913	-0.0945346867	-0.427808
C	-0.0771826362	-0.2087786264	-0.0534157446	 0.20346
C	 0.3715507323	-1.0181119224	-1.3133981698	-0.287172
C	 1.5689854808	-1.8309275752	-0.8192209106	 0.10777
O	 2.7273584021	-1.0204373774	-0.9733202047	-0.429513
C	 1.1881064302	-2.0459173293	 0.6470594159	-0.105785
O	 0.5950113576	-0.8307316976	 1.0654978762	-0.278101
C	-1.5301727003	-0.2993266891	 0.1414063205	 0.337239
C	-2.7211373983	-0.367885344	 0.2899096441	-0.490062
H	 1.4549507037	 1.2827024094	-0.2797310391	 0.13624
H	-0.1426104364	 1.7986271537	-0.887141305	 0.118786
H	 0.1632105989	 1.7381506311	 0.8612152503	 0.129714
H	-0.4271929577	-1.6838642978	-1.6450806788	 0.117229
H	 0.6502841438	-0.3654386037	-2.141839814	 0.126842
H	 1.6800201393	-2.781331738	-1.3601101459	 0.069311
H	 3.4513134911	-1.4300247929	-0.489027292	 0.284088
H	 0.4880682444	-2.8930501001	 0.7367547436	 0.094212
H	 2.0495325322	-2.2443380038	 1.2948746972	 0.098654
H	-3.7719991389	-0.4287655866	 0.4305804232	 0.194895
49.3343	129.9311	170.6834	204.7497	266.4129	282.4414	323.4369	384.8564	390.9179	403.3229	522.3517	545.8662	607.8014	621.8947	656.5219	749.8739	799.9663	863.9777	875.7463	901.3767	944.5197	976.4899	1004.4092	1040.9536	1095.3222	1127.9887	1165.5796	1195.1711	1216.3283	1238.0187	1270.23	1322.7738	1351.6338	1379.8154	1399.147	1413.3207	1477.2778	1486.1836	1493.3753	1507.156	2231.0246	2968.2968	3005.3303	3048.2295	3061.1239	3084.9825	3126.6008	3138.1967	3141.3932	3501.2819	3817.3488
CC1(CC(O)CO1)C#C	C[C@]1(C[C@@H](O)CO1)C#C	
InChI=1S/C7H10O2/c1-3-7(2)4-6(8)5-9-7/h1,6,8H,4-5H2,2H3	InChI=1S/C7H10O2/c1-3-7(2)4-6(8)5-9-7/h1,6,8H,4-5H2,2H3/t6-,7-/m1/s1
