22
gdb 103610	2.34343	1.20037	1.07115	2.46	83.12	-0.2347	-0.0194	0.2153	1309.8613	0.191832	-404.359943	-404.349509	-404.348565	-404.39529	38.204	
C	 0.520397328	 2.2741035084	-0.1381748245	-0.39635
C	 0.0608064165	 0.8157495792	-0.2255048114	-0.19095
C	 0.9350071821	-0.0542570925	-1.1395405311	 0.196026
C	 0.8641203978	 0.3522838492	-2.6159420205	-0.450148
N	 2.3299282167	-0.2449008611	-0.6140315733	-0.368123
C	 2.2397054167	-1.7348277567	-0.6513880363	-0.068396
C	 2.6404518998	-2.4646236476	 0.6225527537	-0.388299
C	 0.7401050407	-1.5727564214	-0.9502076149	 0.349952
O	-0.2015216906	-2.3093480934	-0.97425174	-0.309152
H	 1.5654905401	 2.3236091117	 0.1831045866	 0.128459
H	 0.4319129682	 2.7930380091	-1.0978933724	 0.113371
H	-0.0824181431	 2.8257707026	 0.5893571444	 0.116037
H	 0.0782507401	 0.3762721175	 0.7778928289	 0.1007
H	-0.9762293843	 0.7556324332	-0.5770060419	 0.105447
H	 1.2688530851	 1.3592317915	-2.7620117687	 0.125583
H	 1.4386229704	-0.3353027175	-3.245458694	 0.116861
H	-0.1711246427	 0.3480953535	-2.9704713799	 0.135609
H	 3.0446428394	 0.132308953	-1.2268887893	 0.215009
H	 2.747578451	-2.1861666629	-1.5179811482	 0.093365
H	 2.141553388	-2.0252225069	 1.4904804895	 0.125796
H	 2.3621074821	-3.521064624	 0.5549238182	 0.129319
H	 3.721282058	-2.4020245649	 0.7828221752	 0.119885
62.7538	91.76	135.5683	184.7193	202.2711	205.3183	225.0263	268.8834	302.5582	321.1566	374.2677	429.3179	554.1767	606.9713	688.0021	738.1558	766.3839	798.1648	841.4116	920.3686	950.8144	976.6203	1001.6737	1016.2736	1042.5434	1060.5253	1083.1377	1127.6132	1174.9695	1197.7729	1232.3948	1269.1052	1303.2002	1349.4615	1366.1531	1377.9838	1399.6355	1404.2786	1407.1151	1474.5302	1484.2123	1491.7915	1492.8863	1494.8266	1506.5638	1509.9431	1902.9008	2982.4733	3030.3143	3035.2802	3039.027	3039.529	3071.0962	3097.4772	3107.0667	3110.3111	3110.733	3113.252	3121.9997	3529.7888
CCC1(C)NC(C)C1=O	CC[C@@]1(C)N[C@@H](C)C1=O	
InChI=1S/C7H13NO/c1-4-7(3)6(9)5(2)8-7/h5,8H,4H2,1-3H3	InChI=1S/C7H13NO/c1-4-7(3)6(9)5(2)8-7/h5,8H,4H2,1-3H3/t5-,7+/m0/s1
