16
gdb 26599	2.31892	1.85853	1.03822	4.5318	77.97	-0.2001	-0.0306	0.1695	1091.6556	0.124412	-437.927904	-437.919632	-437.918688	-437.960653	31.222	
C	-0.0339346797	 1.533005752	 0.0060209104	-0.480384
C	-0.0454990139	 0.032434521	 0.0030473987	 0.101357
C	-1.1800443876	-0.7128494397	-0.0785696539	 0.311817
O	-2.3878934483	-0.0963651942	-0.1635481621	-0.427196
C	-1.1186819941	-2.1536819244	-0.076212088	-0.305116
C	 0.0857395546	-2.7381970837	 0.0085056253	 0.07994
O	 1.2325049072	-2.046452184	 0.0908868169	-0.236929
C	 1.2381090092	-0.6392880061	 0.0932185481	 0.32285
N	 2.3486869428	-0.0251151322	 0.1728895543	-0.53913
H	 0.5649130987	 1.9128415203	-0.8283543582	 0.140698
H	-1.0454247396	 1.9338358727	-0.0648748259	 0.128906
H	 0.4415368342	 1.9102989752	 0.9174248748	 0.140708
H	-3.083704744	-0.7587038416	-0.2134398424	 0.30241
H	-2.0145112591	-2.7596231203	-0.1406924499	 0.103481
H	 0.2547748651	-3.8079944808	 0.0190211947	 0.139662
H	 3.1237059345	-0.6849363243	 0.2270023371	 0.216926
104.2146	124.3115	174.0602	262.3092	296.3185	319.7068	357.4563	467.8959	493.0908	514.2384	539.1641	665.0795	682.693	735.307	748.4327	826.9785	844.9325	898.7622	914.0415	1008.3512	1063.5368	1075.4064	1136.6815	1190.7371	1253.7523	1286.2658	1305.0675	1380.0304	1412.5679	1461.7773	1477.2692	1484.2137	1635.0944	1705.2499	1732.1675	3042.1572	3090.4194	3148.5391	3195.1219	3219.7697	3501.1441	3836.1787
CC1=C(O)C=COC1=N	CC1=C(OC=C[C@@H]1O)[NH]	
InChI=1S/C6H7NO2/c1-4-5(8)2-3-9-6(4)7/h2-3,7-8H,1H3	InChI=1S/C6H8NO2/c1-4-5(8)2-3-9-6(4)7/h2-3,5,7-8H,1H3/t5-/m0/s1
