20
gdb 9545	3.31021	1.56164	1.37441	2.5504	70.36	-0.2453	0.0749	0.3202	1006.9329	0.175748	-386.128481	-386.119506	-386.118562	-386.162003	33.302	
C	-0.2346406187	 1.480630375	-0.0956585734	-0.415292
C	 0.0447054227	-0.0145535378	-0.0223246872	-0.092286
C	 1.3401783408	-0.5099029916	-0.7010640193	-0.079914
O	 1.8991926869	-0.9531467722	 0.5542033039	-0.337092
C	 0.6720876143	-0.6085019095	 1.2756616732	 0.394804
C	 0.9704067778	 0.3100200639	 2.4479402483	-0.441307
C	 0.0318624092	-1.924757887	 1.7313796617	-0.088039
O	 0.9470203039	-2.6844150745	 2.494069948	-0.423589
H	 0.6450447419	 2.0734502319	 0.1726960119	 0.123736
H	-0.5253570283	 1.7628771105	-1.1133514974	 0.119046
H	-1.0522797996	 1.7697418698	 0.5727162739	 0.12091
H	-0.8455222746	-0.5684919039	-0.336295934	 0.075598
H	 1.2223406097	-1.3344928589	-1.4148308637	 0.100782
H	 1.957446871	 0.2708201338	-1.163159881	 0.101369
H	 1.5804030757	 1.1619042985	 2.1403429233	 0.11711
H	 0.0418586408	 0.6845248534	 2.8922596304	 0.114467
H	 1.5119888897	-0.2505084357	 3.2145137346	 0.137759
H	-0.841756565	-1.7336867419	 2.3651206324	 0.103669
H	-0.310324555	-2.4853990697	 0.8461613637	 0.077615
H	 1.7524189868	-2.7164943939	 1.9604993107	 0.290654
48.2985	121.4073	191.784	223.1832	235.8005	280.7401	311.4043	343.8944	381.4388	435.4653	508.7363	550.1045	683.2658	780.8522	870.6409	890.6554	918.8932	921.1984	962.3765	1015.3073	1043.6814	1069.8631	1100.7598	1129.9393	1154.575	1180.1094	1207.3211	1220.8153	1277.0339	1286.816	1341.5317	1376.4568	1383.4684	1407.2996	1414.158	1431.5051	1478.0999	1490.0706	1499.1717	1501.7655	1506.0858	1526.1165	2967.409	3011.3131	3033.3032	3042.4738	3045.9244	3059.9606	3064.8531	3097.4221	3108.0131	3115.5708	3133.1747	3762.8607
CC1COC1(C)CO	C[C@H]1CO[C@]1(C)CO	
InChI=1S/C6H12O2/c1-5-3-8-6(5,2)4-7/h5,7H,3-4H2,1-2H3	InChI=1S/C6H12O2/c1-5-3-8-6(5,2)4-7/h5,7H,3-4H2,1-2H3/t5-,6+/m0/s1
