19
gdb 34853	3.72083	1.24905	1.15274	1.5077	81.32	-0.2346	0.05	0.2846	1121.5405	0.160832	-385.842177	-385.834531	-385.833587	-385.873987	30.931	
C	-0.0341017793	-1.175450523	-0.0780035755	-0.423229
C	-0.0298862145	 0.0267732168	-0.0245077393	 0.294043
C	-0.0046002259	 1.4715767298	 0.0437679766	-0.207584
C	-0.1267860767	 2.0719454762	 1.4925854667	-0.020814
C	 1.4182519935	 1.923042072	 1.6082638739	-0.274628
C	 1.4340533968	 2.1111078654	 0.0687570084	 0.128691
O	 1.3424821818	 3.4672896972	-0.3250343663	-0.274379
C	 0.6539368632	 4.2937120666	 0.6149494686	-0.067072
C	-0.4901221478	 3.5577794453	 1.3469334098	-0.246899
H	-0.0466672467	-2.2357102776	-0.1323950464	 0.190799
H	-0.6654806014	 1.9129785522	-0.7088144604	 0.095307
H	-0.7655085263	 1.5451543975	 2.2029949121	 0.077076
H	 1.9784219976	 2.6274755133	 2.2267662075	 0.100376
H	 1.7028247381	 0.9023480572	 1.8680788402	 0.121633
H	 2.2182744888	 1.6507594212	-0.5334131717	 0.088451
H	 1.3728612607	 4.6724038452	 1.3545412791	 0.10019
H	 0.2859762973	 5.1555845684	 0.0520213229	 0.110643
H	-1.4365875114	 3.6511785816	 0.8021710417	 0.106373
H	-0.6356026079	 4.0214866049	 2.329160102	 0.101021
133.9841	138.6095	234.6966	302.8705	366.7769	423.4943	459.2873	477.4094	519.6329	613.7836	621.3272	637.7774	804.9751	822.5627	852.6875	881.0269	909.3183	922.0316	938.0532	956.973	1036.7276	1038.8602	1081.2852	1092.0189	1111.7507	1122.8515	1169.389	1213.7648	1232.6439	1245.9958	1272.0188	1290.317	1290.6919	1332.3005	1349.4515	1380.9084	1412.6926	1485.3503	1491.6769	1525.7792	2228.6201	3002.8191	3031.9338	3056.8324	3071.4935	3076.3388	3090.2284	3098.3782	3107.4638	3134.7109	3504.3191
C#CC1C2CC1OCC2	C#C[C@H]1[C@H]2C[C@@H]1OCC2	
InChI=1S/C8H10O/c1-2-7-6-3-4-9-8(7)5-6/h1,6-8H,3-5H2	InChI=1S/C8H10O/c1-2-7-6-3-4-9-8(7)5-6/h1,6-8H,3-5H2/t6-,7+,8+/m1/s1
