18
gdb 75220	3.80464	1.14855	1.02987	1.1958	85.85	-0.2258	0.0133	0.239	1213.0853	0.147119	-364.76964	-364.761233	-364.760289	-364.802255	32.775	
C	 0.0145889258	 1.5057310194	 0.0763435455	-0.501483
C	-0.012912938	 0.013041696	-0.0085723291	 0.377866
C	 0.0342446925	-0.7527852868	-1.1035793159	-0.183108
C	-0.0216902566	-2.2335521514	-0.8015659858	-0.324012
C	-0.0575292527	-2.2752258549	 0.730725461	 0.185008
N	 1.1644083601	-1.6911409085	 1.3558162374	-0.368517
C	-0.0515988132	-0.8532981697	 1.2126202007	-0.210515
C	-0.7532586129	-3.3220493657	 1.41311534	 0.178159
C	-1.3254819379	-4.221604493	 1.9717521917	-0.392216
H	 0.897127634	 1.8542005403	 0.6272295035	 0.134339
H	 0.0301751444	 1.9624565897	-0.9167684025	 0.12587
H	-0.8624685933	 1.8902531798	 0.6123645157	 0.125005
H	 0.1313962423	-0.3753337799	-2.1159420149	 0.091902
H	-0.9157766626	-2.7082917914	-1.2238951127	 0.116866
H	 0.8480145407	-2.7750385758	-1.1908296727	 0.124762
H	 1.2086782021	-2.0403718412	 2.3129849945	 0.233458
H	-0.5842822758	-0.5485184761	 2.1079799562	 0.097317
H	-1.8338070788	-5.0106107208	 2.4680085874	 0.189298
109.2062	144.9216	181.4866	218.3764	292.073	323.493	376.9809	464.9015	530.4708	556.8689	585.4039	593.5496	626.6946	660.0803	751.4352	810.0563	833.5868	878.3633	937.4787	961.678	985.8158	1014.3098	1035.5871	1063.4699	1068.8937	1157.7285	1186.5482	1193.6589	1254.5434	1269.5022	1318.587	1355.837	1412.7331	1414.5225	1468.0349	1479.3167	1489.7167	1710.485	2233.1663	3018.6052	3031.8228	3065.6641	3068.7664	3112.5165	3165.1671	3190.1622	3471.9184	3503.5216
CC1=CCC2(NC12)C#C	CC1=CC[C@]2(N[C@@H]12)C#C	
InChI=1S/C8H9N/c1-3-8-5-4-6(2)7(8)9-8/h1,4,7,9H,5H2,2H3	InChI=1S/C8H9N/c1-3-8-5-4-6(2)7(8)9-8/h1,4,7,9H,5H2,2H3/t7-,8+/m0/s1
