16
gdb 68180	4.40684	1.13079	1.03974	4.5794	77.52	-0.2574	-0.06	0.1974	1155.5596	0.124374	-400.726845	-400.719239	-400.718295	-400.758847	29.403	
C	 0.0580446365	 1.5383441415	 0.0607250736	-0.508771
C	 0.0092939364	 0.0404533991	-0.0232924812	 0.370241
C	 0.6324983443	-0.8223834583	-1.1755353084	-0.2567
C	 0.6287345278	-1.8103830714	 0.0214608454	-0.048897
O	 0.9071038015	-0.6837382247	 0.8955161685	-0.301895
C	-0.8995344748	-1.9947475446	 0.2486109661	 0.281227
C	-1.3136980146	-0.7200955436	 0.2179316322	-0.251743
C	-1.6000963327	-3.2044286078	 0.4153378585	 0.174848
N	-2.141705923	-4.2213644415	 0.5459613932	-0.344188
H	 1.0721917838	 1.9012904925	-0.1222849297	 0.138232
H	-0.6110754078	 1.9825742699	-0.6828582124	 0.131454
H	-0.2568055733	 1.8767776383	 1.0525551803	 0.142388
H	 0.0285797143	-1.0509881934	-2.0556179994	 0.110953
H	 1.6384874615	-0.4873480341	-1.4375196836	 0.117573
H	 1.2921721007	-2.6650706419	 0.1323246841	 0.104908
H	-2.3058025706	-0.3053008201	 0.3197738529	 0.140369
118.2115	145.1709	188.036	293.475	302.334	439.0376	477.1047	503.0687	553.2386	602.3654	648.2815	668.3856	790.9095	794.4097	854.7571	865.1974	880.5134	929.9327	985.9855	1030.7434	1071.9103	1101.7189	1119.4104	1174.6851	1206.3692	1222.6927	1241.2784	1275.3503	1342.4441	1418.8716	1478.2033	1487.3627	1493.8235	1649.0781	2332.0406	3044.9762	3069.3496	3115.2176	3128.3361	3143.3934	3158.0883	3248.0136
CC12CC(O1)C(=C2)C#N	C[C@@]12C[C@@H](O1)C(=C2)C#N	
InChI=1S/C7H7NO/c1-7-2-5(4-8)6(3-7)9-7/h2,6H,3H2,1H3	InChI=1S/C7H7NO/c1-7-2-5(4-8)6(3-7)9-7/h2,6H,3H2,1H3/t6-,7-/m1/s1
