14
gdb 64645	2.39757	1.61868	1.36161	6.1022	69.92	-0.2316	-0.0394	0.1923	978.5951	0.100373	-432.875495	-432.866967	-432.866022	-432.908908	30.888	
O	-0.0863650428	 1.4194006485	 0.0110092802	-0.434561
C	 0.0213272483	 0.0029538779	 0.011874996	 0.169052
C	 0.6147298788	-0.5784431891	 1.2829495971	-0.207281
C	-0.3462911309	-1.237635485	 1.9363320091	-0.012706
N	-1.5607695448	-1.2095916994	 1.2499615239	-0.359009
C	-1.4333185898	-0.5479385844	 0.0365880887	 0.390265
N	-2.2557586724	-0.35659625	-0.9035547154	-0.501666
C	 0.7510508028	-0.4596984501	-1.1857042969	 0.25396
N	 1.3792722791	-0.8044761926	-2.0923685988	-0.340217
H	 0.8047900479	 1.7835190475	 0.073153034	 0.292589
H	 1.6420736411	-0.4517007811	 1.5842977864	 0.124088
H	-0.2882173516	-1.7548713843	 2.8838815991	 0.144164
H	-2.3855991956	-1.714223927	 1.5237674622	 0.262844
H	-3.1750942601	-0.7539509409	-0.7031389557	 0.218479
52.396	140.3331	164.0534	200.6142	266.9167	277.197	336.8489	402.4766	504.75	554.0505	580.087	631.9782	687.8306	707.768	745.6689	816.4175	863.4402	920.7064	999.3691	1065.0914	1084.7366	1101.6857	1118.8462	1157.6806	1273.6165	1344.0557	1391.1214	1430.6631	1668.8237	1769.9891	2352.8947	3235.9837	3269.6914	3464.1026	3679.2166	3797.6427
OC1(C=CNC1=N)C#N	O[C@]1(C=CN[C]1[NH])C#N	
InChI=1S/C5H5N3O/c6-3-5(9)1-2-8-4(5)7/h1-2,9H,(H2,7,8)	InChI=1S/C5H5N3O/c6-3-5(9)1-2-8-4(5)7/h1-2,9H,(H2,7,8)/t5-/m1/s1
