16
gdb 8521	4.26335	1.86291	1.62578	2.3052	64.01	-0.2412	0.0734	0.3146	813.2214	0.12975	-383.679391	-383.672354	-383.67141	-383.70999	28.322	
O	-0.1224328404	 1.3221990335	-0.0877425919	-0.461773
C	 0.0519436934	-0.045197987	-0.0445645193	 0.402758
C	 0.9911702799	-0.8890643502	-0.9046602796	-0.368774
C	 0.1017706913	-2.0872246893	-0.4417305709	 0.389458
O	-0.1173618435	-3.1861460873	-1.2558924678	-0.476215
C	 0.4021283188	-2.2257372089	 1.0811572625	-0.299132
C	-0.2973377896	-0.8731678057	 1.2090425113	-0.134992
C	-1.0485883308	-1.0617720527	-0.0979840232	-0.178179
H	 0.548841969	 1.7313813986	 0.4697774978	 0.284728
H	 0.8360562905	-0.6826375754	-1.9670662654	 0.108331
H	 2.0623044347	-0.9199100351	-0.6677111598	 0.077207
H	 0.7276023797	-3.6234534951	-1.4106952347	 0.280894
H	-0.1959659401	-3.0284466296	 1.5222893366	 0.104793
H	 1.4501975553	-2.3206463188	 1.3915370755	 0.080418
H	-0.6677803586	-0.3806242586	 2.0989775933	 0.088418
H	-2.0950097597	-1.0046342682	-0.3556015743	 0.10206
175.4749	231.3559	284.295	328.3143	353.2193	410.3378	447.7186	470.0649	582.5012	632.3815	741.2321	746.0764	824.0909	873.8498	904.0709	917.1967	952.3748	963.8558	1009.011	1054.9202	1080.3451	1103.994	1115.9076	1145.586	1186.1685	1220.4608	1232.1139	1257.1043	1301.3459	1321.192	1378.7463	1440.1544	1491.8302	1511.4975	3016.4005	3024.7603	3094.5374	3104.6487	3198.6881	3240.3039	3789.3965	3795.9603
OC12CC3(O)CC1C23	O[C@@]12C[C@@]3(O)C[C@@H]1[C@@H]23	
InChI=1S/C6H8O2/c7-5-1-3-4(5)6(3,8)2-5/h3-4,7-8H,1-2H2	InChI=1S/C6H8O2/c7-5-1-3-4(5)6(3,8)2-5/h3-4,7-8H,1-2H2/t3-,4-,5+,6+/m1/s1
