21
gdb 72280	3.085	1.54741	1.30058	1.4614	81.45	-0.237	0.0846	0.3216	1064.3281	0.185266	-387.0707	-387.063121	-387.062177	-387.102232	31.201	
C	-0.1333992638	 1.5904293555	-0.0024082064	-0.495611
C	-0.0231226083	 0.0927863919	-0.0485036123	 0.334174
C	 0.6514535695	-0.6759209405	-1.1882205193	-0.334398
C	-0.3649393887	-1.8510142772	-0.9683228837	 0.111612
O	 0.1344523926	-3.0687716883	-0.4486436757	-0.264774
C	 1.101926749	-2.8915364629	 0.5753182709	-0.0773
C	 0.6593730698	-1.9212897366	 1.6869580721	-0.247364
C	-0.1973547749	-0.7643665533	 1.1909721816	-0.074168
C	-1.1305762642	-0.9722568462	 0.0332754862	-0.133417
H	 0.8348595016	 2.0541907549	 0.223564563	 0.11871
H	-0.4733473893	 1.992195255	-0.9643140832	 0.114667
H	-0.8416671856	 1.9171803293	 0.7662349629	 0.116397
H	 0.4606867526	-0.194323686	-2.15218419	 0.0983
H	 1.7225507941	-0.884391231	-1.120107884	 0.095111
H	-0.9235076079	-2.1205327787	-1.8654954052	 0.08288
H	 1.2777795985	-3.8873201287	 0.9918700999	 0.103875
H	 2.0521572139	-2.5544823596	 0.1377919276	 0.093155
H	 0.0559142611	-2.4708143103	 2.4203189221	 0.105352
H	 1.5487472447	-1.5615869907	 2.2189375339	 0.096399
H	-0.6423667828	-0.1916125464	 2.0023578238	 0.079763
H	-2.2067961917	-0.8624221903	 0.0990567059	 0.076636
154.2185	202.3709	227.7053	283.3192	318.0813	397.3179	423.8946	513.929	527.8574	622.2733	677.361	727.4123	783.9672	830.4306	870.7592	902.1331	931.3858	952.9593	956.9937	980.8766	995.7014	1013.3002	1048.7707	1090.0398	1101.7988	1133.971	1159.6459	1178.5265	1219.5211	1230.584	1240.3524	1263.5992	1290.0121	1314.9405	1328.9463	1371.7544	1375.1668	1415.531	1420.6215	1460.6496	1485.2011	1486.776	1493.5542	1501.2808	1524.8167	3000.4328	3016.9329	3019.5476	3050.8625	3056.3194	3073.8368	3083.293	3092.0547	3093.2215	3104.3679	3124.952	3176.2631
CC12CC3OCCC1C23	C[C@@]12C[C@H]3OCC[C@@H]1[C@@H]23	
InChI=1S/C8H12O/c1-8-4-6-7(8)5(8)2-3-9-6/h5-7H,2-4H2,1H3	InChI=1S/C8H12O/c1-8-4-6-7(8)5(8)2-3-9-6/h5-7H,2-4H2,1H3/t5-,6-,7-,8-/m1/s1
