21
gdb 68053	1.94299	1.78919	1.11705	0.6258	90.27	-0.2485	0.0468	0.2953	1183.3747	0.180666	-349.890518	-349.881285	-349.880341	-349.923741	36.305	
C	-0.0078669323	 1.4664482543	 0.0383457791	-0.513091
C	 0.0366640581	-0.0365445869	 0.0103599382	 0.331718
C	 0.5969736774	-0.9630277505	-1.1099136168	-0.304384
C	 0.0637326667	-1.9353238441	-0.0155582947	 0.33173
C	 0.0620138197	-3.4391827075	-0.0286120979	-0.513103
C	 0.7302675967	-0.9903335424	 1.029829361	-0.308837
C	-1.2055030133	-1.0046080349	 0.0543306132	-0.241842
C	-2.0566315736	-1.0327690215	 1.224825781	 0.306873
C	-2.7819774959	-1.056254033	 2.1853201897	-0.451855
H	 1.0028278253	 1.8887248796	 0.0200807855	 0.118801
H	-0.5535811631	 1.8624091754	-0.8251662748	 0.117777
H	-0.5071355267	 1.8226196372	 0.9456915606	 0.128902
H	 0.0673999765	-0.9575172953	-2.0683352841	 0.083733
H	 1.6811687714	-0.9456114786	-1.252211774	 0.08669
H	 1.0843460763	-3.8318968902	-0.0562771177	 0.118802
H	-0.4280690844	-3.8340269027	 0.8676717557	 0.12891
H	-0.4710900816	-3.8267935781	-0.9037125201	 0.117773
H	 1.8243890596	-0.9748487561	 1.0361997455	 0.083202
H	 0.3221429396	-1.0099458412	 2.0424944873	 0.105213
H	-1.8071690533	-1.0006555367	-0.8618674957	 0.083954
H	-3.4210219531	-1.0769427068	 3.032947889	 0.189033
107.0798	161.4081	206.3939	211.0692	214.3461	224.6787	332.7858	360.95	429.1968	510.1574	516.1089	580.8981	597.4137	609.5695	634.9604	672.3186	745.9513	806.0253	880.165	914.1583	920.6739	1010.2014	1013.0436	1015.3895	1056.8078	1061.9553	1110.1548	1118.2774	1139.4157	1178.8691	1190.823	1202.2909	1213.665	1296.2575	1336.1545	1381.7698	1408.303	1413.0511	1487.3491	1488.1593	1490.7187	1491.2463	1496.2411	1543.2297	2224.3485	3027.031	3027.1132	3035.4232	3040.6859	3052.5936	3094.0954	3094.3962	3098.7976	3098.8441	3105.1827	3121.5872	3503.2848
CC12CC(C)(C1)C2C#C	C[C@@]12C[C@@](C)(C1)[C@H]2C#C	
InChI=1S/C9H12/c1-4-7-8(2)5-9(7,3)6-8/h1,7H,5-6H2,2-3H3	InChI=1S/C9H12/c1-4-7-8(2)5-9(7,3)6-8/h1,7H,5-6H2,2-3H3/t7-,8-,9+
