17
gdb 50239	3.90079	1.2492	1.17928	2.8616	73.36	-0.2407	0.0174	0.2581	1070.0989	0.137359	-417.948004	-417.940746	-417.939802	-417.980646	27.805	
O	-0.0134850575	-0.0256573509	-0.0902979058	-0.326544
C	 0.0327702194	 1.1834137439	-0.0015503699	 0.128048
N	 1.1750526967	 1.9089141054	-0.0039991161	-0.034437
C	 2.5762440839	 1.4849597567	-0.1609443866	-0.208183
C	 2.9749803568	 2.9836373389	-0.0701475734	 0.004864
C	 1.478967794	 3.3431735672	 0.0301598607	-0.035041
C	 1.7992710481	 3.9699540481	 1.4047754528	-0.032443
C	 2.439419807	 3.0120884758	 2.3185963825	-0.255662
N	 3.2834395024	 3.6235680798	 1.2731795459	-0.14869
H	-0.8650946577	 1.8298183098	 0.0874217656	 0.069794
H	 2.9465804462	 0.8174853936	 0.6227916045	 0.133448
H	 2.7750985116	 1.0286812742	-1.1364529427	 0.129692
H	 3.6341241872	 3.3800713789	-0.8384146126	 0.103799
H	 0.9451733808	 3.9690975973	-0.6857590471	 0.098497
H	 1.4793606026	 4.9614694547	 1.7093391261	 0.103554
H	 2.7040723069	 3.3732335438	 3.3075148821	 0.131895
H	 2.1777324115	 1.9598446127	 2.2830965839	 0.13741
30.3953	178.8247	222.6115	304.2207	350.2988	417.1538	478.5177	610.3211	711.0635	717.0519	736.7107	810.2734	856.2771	888.8878	927.8363	949.4377	986.7618	1013.1149	1034.0436	1057.3122	1071.6647	1113.5926	1139.8541	1144.6939	1155.9834	1203.8657	1217.963	1239.0074	1288.8315	1304.1472	1315.3232	1358.3598	1393.7266	1440.1162	1499.6707	1517.0302	1791.6848	2919.3412	3044.639	3091.7523	3106.1412	3131.2928	3147.2139	3162.1016	3214.6477
O=CN1CC2C1C1CN21	O=CN1C[C@H]2[C@@H]1[C@H]1CN21	
InChI=1S/C6H8N2O/c9-3-7-1-4-6(7)5-2-8(4)5/h3-6H,1-2H2	InChI=1S/C6H8N2O/c9-3-7-1-4-6(7)5-2-8(4)5/h3-6H,1-2H2/t4-,5+,6+,8?/m0/s1
