17
gdb 69289	3.914	1.20173	1.0532	1.8929	82.42	-0.2424	-0.037	0.2053	1166.2682	0.135455	-380.825918	-380.817754	-380.816809	-380.858344	31.446	
C	-0.0008148813	 1.5084011039	 0.011890711	-0.479256
C	 0.0116792186	 0.001465137	 0.0154398434	 0.305584
C	 0.3237117418	-0.766895997	 1.2457845991	-0.292279
N	 1.3246261422	-0.685815736	 0.1438587477	-0.183748
C	 1.1742169417	-1.8113567503	-0.7379262093	 0.169778
N	 0.1031076675	-1.9069100421	-1.4322651451	-0.273478
C	-0.7410574724	-0.7570771658	-1.0848834099	-0.245015
C	 2.2458822411	-2.7477767053	-0.7982547876	 0.275643
C	 3.1633199995	-3.5244588373	-0.8227587892	-0.361069
H	 0.693541356	 1.9077815388	 0.7554652889	 0.132255
H	 0.2890026894	 1.8969952357	-0.9700918488	 0.128204
H	-1.0033899636	 1.8854306739	 0.2423851314	 0.124569
H	 0.614017207	-0.2411702858	 2.1505050701	 0.123752
H	-0.1609379122	-1.727118123	 1.4039518756	 0.129622
H	-1.7370700228	-1.1042893763	-0.7872610507	 0.121807
H	-0.8767014247	-0.1260618027	-1.9731292154	 0.120281
H	 3.9696329522	-4.2152587876	-0.8550712312	 0.203351
109.8914	146.4648	191.9801	222.1587	309.9259	358.7046	382.8179	415.2249	536.8587	549.2228	629.55	649.9305	652.8555	723.018	786.4404	816.8555	843.2114	930.353	960.4975	987.9723	1005.4051	1044.2675	1102.2467	1119.5473	1129.2826	1202.4767	1226.4796	1269.026	1333.5475	1385.2144	1420.5918	1481.0355	1488.2155	1493.7094	1508.3692	1655.1585	2241.2019	3023.3359	3034.6228	3060.1044	3097.9547	3108.9059	3120.8627	3200.6877	3501.8431
CC12CN1C(=NC2)C#C	C[C@]12CN1C(=NC2)C#C	
InChI=1S/C7H8N2/c1-3-6-8-4-7(2)5-9(6)7/h1H,4-5H2,2H3	InChI=1S/C7H8N2/c1-3-6-8-4-7(2)5-9(6)7/h1H,4-5H2,2H3/t7-,9?/m0/s1
