19
gdb 128806	5.67442	0.79632	0.72245	1.5807	80.89	-0.2319	0.0249	0.2569	1600.1855	0.159244	-419.216535	-419.207002	-419.206058	-419.252854	32.741	
C	 0.3554104859	 1.3634788248	-0.065771283	-0.218764
O	 0.3586989647	-0.0416319204	-0.1260819381	-0.233355
C	 0.4967302245	-0.638202608	 1.1493489049	-0.170066
C	 0.4165173665	-2.1238399312	 1.0015898291	 0.34232
N	 1.2378950487	-2.9165117377	 1.6892769557	-0.339674
N	 0.8712825274	-4.170226803	 1.3576893004	 0.059758
C	 1.6019410636	-5.2960822617	 1.8958132549	-0.316549
C	-0.1511663001	-4.185730523	 0.4660522096	-0.022644
C	-0.4812035493	-2.8727754013	 0.2098933285	-0.296832
H	 1.297255815	 1.7589310245	 0.3472161462	 0.103685
H	 0.2352767777	 1.7345836851	-1.0865746339	 0.125231
H	-0.4735165451	 1.7458465907	 0.5521504971	 0.100797
H	 1.4563534589	-0.3702730925	 1.6176789401	 0.104809
H	-0.3033298235	-0.2712285086	 1.8174585202	 0.092585
H	 1.0603551512	-6.2147924595	 1.6636281577	 0.136479
H	 2.6066081395	-5.3525034974	 1.4649906037	 0.145564
H	 1.6901095436	-5.1926980437	 2.979579684	 0.15126
H	-0.5525415249	-5.114244692	 0.0906962327	 0.126354
H	-1.2458758042	-2.5011705651	-0.4512185401	 0.109043
32.6136	40.4001	87.9266	117.168	194.0574	230.2754	282.2248	343.3562	350.1301	447.739	626.9874	675.0101	715.4002	764.8354	779.0336	836.1299	981.0155	1011.0315	1018.3928	1036.9328	1065.9976	1092.6619	1151.2625	1155.988	1184.0619	1222.5757	1237.4149	1249.4758	1325.9827	1387.5757	1419.9599	1443.0926	1458.2457	1476.658	1478.7522	1484.7911	1500.9112	1505.6924	1521.9265	1531.7906	1572.391	2937.5498	2965.1575	3000.436	3007.4749	3045.2942	3111.9348	3113.9859	3145.1068	3252.9468	3282.4002
COCC1=NN(C)C=C1	COCc1nn(C)cc1	
InChI=1S/C6H10N2O/c1-8-4-3-6(7-8)5-9-2/h3-4H,5H2,1-2H3	InChI=1S/C6H10N2O/c1-8-4-3-6(7-8)5-9-2/h3-4H,5H2,1-2H3
