15
gdb 33344	5.31408	0.75054	0.7166	6.9343	85.	-0.2517	-0.0359	0.2158	1526.7099	0.113721	-379.608368	-379.600576	-379.599632	-379.64149	28.712	
N	 0.0207698404	-3.7724247177	-0.1485958798	-0.34247
C	 0.0220382106	-2.6115364289	-0.0931624461	 0.205668
C	 0.0202984414	-1.2487432964	-0.0310514857	-0.008451
C	 0.0202737356	-0.040868715	 0.0250321267	 0.181806
C	 0.0148458634	 1.4028654124	 0.0804315137	-0.214601
C	-0.2239347871	 2.1174367868	 1.4763801782	-0.235516
C	 1.1203444932	 2.8262980052	 1.2906296181	-0.038465
N	 2.1335751377	 1.7502986536	 1.2042799777	-0.317359
C	 1.3742875832	 2.1351227115	-0.0007889288	-0.055272
H	-0.6829375735	 1.7986336115	-0.6634503552	 0.122735
H	-1.0900436977	 2.779588705	 1.4407043109	 0.118476
H	-0.2856007552	 1.4579228518	 2.3430305069	 0.129554
H	 1.3896547744	 3.8256190281	 1.606860579	 0.106924
H	 3.0502369089	 2.190796962	 1.1350712296	 0.238193
H	 1.8705965948	 2.4643375902	-0.9045982052	 0.10878
70.6752	87.5371	172.3683	226.7889	313.791	417.7659	452.4161	529.4379	573.3534	592.6494	679.1465	746.2202	813.9363	834.0374	900.0123	913.5735	959.186	968.3552	988.1001	1045.6011	1096.3411	1116.8166	1152.6774	1182.1283	1200.7774	1243.832	1274.054	1316.3311	1351.0015	1381.1209	1474.3345	2261.6348	2395.4654	3067.3544	3084.7386	3148.1848	3194.5729	3207.9647	3483.5569
N#CC#CC1CC2NC12	N#CC#C[C@H]1C[C@H]2N[C@@H]12	
InChI=1S/C7H6N2/c8-3-1-2-5-4-6-7(5)9-6/h5-7,9H,4H2	InChI=1S/C7H6N2/c8-3-1-2-5-4-6-7(5)9-6/h5-7,9H,4H2/t5-,6+,7-/m0/s1
