17
gdb 49576	2.00102	1.67932	1.0964	3.0198	77.89	-0.2407	-0.027	0.2137	1123.3399	0.134382	-384.628078	-384.619637	-384.618692	-384.661766	31.52	
O	 0.0875688018	-0.1524252043	 0.1287910619	-0.253247
C	 0.0271158347	 1.0323560891	-0.085995487	 0.157096
C	 1.2188930739	 1.9555057474	-0.0286632176	-0.10541
C	 1.4536736865	 2.9010971861	-1.2193102654	-0.070388
C	 0.3714306499	 3.9438937304	-1.3350937975	-0.290363
C	 1.445078438	 4.1259333025	-0.3082620201	-0.046337
C	 1.1662682532	 3.2344744896	 0.9212623036	-0.223116
C	-0.0380078275	 3.4920955449	 1.6905772391	 0.334927
C	-1.045421387	 3.6990072848	 2.3142303026	-0.45684
H	-0.9361363974	 1.5133215321	-0.3595304918	 0.08264
H	 2.097430527	 1.3526452962	 0.2065155261	 0.100197
H	 2.1138150984	 2.6719578547	-2.0461956519	 0.101711
H	 0.4577314409	 4.5827284127	-2.2077880954	 0.121597
H	-0.6519354826	 3.748867441	-1.0301627154	 0.127158
H	 2.1065898838	 4.9824249588	-0.2965770791	 0.100491
H	 2.0299186633	 3.1981335407	 1.5899669639	 0.118141
H	-1.9287229069	 3.8840660334	 2.8741171039	 0.201739
48.8813	110.3027	131.881	196.1091	276.6536	343.7825	424.2472	447.0918	519.8328	577.5156	631.7031	642.3311	712.5689	786.3471	791.0882	836.5186	911.2436	956.6499	987.8359	1015.4367	1036.5768	1051.1336	1064.5231	1081.0502	1090.9974	1110.42	1166.8041	1205.3585	1255.5056	1280.9305	1299.5966	1330.4418	1363.5447	1438.3625	1497.5202	1822.1167	2230.718	2904.2209	3072.467	3104.258	3129.3972	3188.6368	3197.7285	3214.108	3502.3466
O=CC1C2CC2C1C#C	O=C[C@H]1[C@H]2C[C@H]2[C@H]1C#C	
InChI=1S/C8H8O/c1-2-5-6-3-7(6)8(5)4-9/h1,4-8H,3H2	InChI=1S/C8H8O/c1-2-5-6-3-7(6)8(5)4-9/h1,4-8H,3H2/t5-,6+,7+,8-/m1/s1
