17
gdb 81317	3.92527	1.12463	1.0403	3.8648	81.56	-0.2399	-0.0559	0.184	1181.6176	0.138105	-380.843641	-380.836114	-380.83517	-380.875602	29.365	
C	-0.146595057	 1.5078049965	 0.0214635188	-0.428349
C	 0.0110651115	-0.0023971197	 0.0330003071	 0.057599
C	 1.2720043152	-0.6076512993	-0.709666956	-0.0637
N	 2.0469373361	-0.1824095153	 0.5033119021	-0.29119
C	 0.8223852722	-0.6415046105	 1.2245393831	-0.127282
C	 0.7255393124	-2.1431143275	 0.8324317469	 0.236631
C	 1.0325259427	-2.1049128087	-0.4767948716	-0.196242
C	 0.3476870288	-3.2144494839	 1.6646535348	 0.171786
N	 0.0391610455	-4.0705955758	 2.3838174084	-0.348725
H	 0.7978165378	 2.0064579486	 0.2448639478	 0.144701
H	-0.501174612	 1.8473604744	-0.9579358146	 0.118841
H	-0.8914985278	 1.8181240046	 0.7624966016	 0.121696
H	-0.9309801683	-0.5057151967	-0.192631025	 0.084823
H	 1.6107140421	-0.2684230299	-1.6879800463	 0.081329
H	 2.8556811122	-0.7786913009	 0.6825394447	 0.212901
H	 0.6900403881	-0.3657042507	 2.2699019221	 0.088873
H	 1.0541999105	-2.9050788952	-1.2022779638	 0.136308
113.7419	151.9064	219.1644	280.6824	294.4413	443.6146	473.4134	504.4291	573.4778	614.469	643.486	778.602	791.9179	833.4532	864.8163	874.1874	903.1379	943.3561	1027.5481	1040.9694	1060.6509	1113.1903	1122.6496	1138.6107	1168.0906	1218.9181	1237.0211	1242.1394	1260.2519	1286.3901	1332.5521	1383.5933	1406.7508	1489.9986	1504.3876	1634.2621	2328.0526	3036.0182	3092.7345	3093.8929	3129.0824	3134.6117	3143.7169	3245.608	3447.0738
CC1C2NC1C(=C2)C#N	C[C@H]1[C@H]2N[C@@H]1C(=C2)C#N	
InChI=1S/C7H8N2/c1-4-6-2-5(3-8)7(4)9-6/h2,4,6-7,9H,1H3	InChI=1S/C7H8N2/c1-4-6-2-5(3-8)7(4)9-6/h2,4,6-7,9H,1H3/t4-,6-,7-/m0/s1
