21
gdb 104133	2.98536	1.11996	1.0164	2.3565	78.47	-0.237	-0.0164	0.2206	1275.0214	0.180619	-424.256353	-424.246857	-424.245913	-424.290671	35.765	
C	-0.245613	 1.5781482611	 0.2281692276	-0.250686
O	-0.1268585278	 0.1838986455	 0.0453770892	-0.287152
C	 0.692969829	-0.5183015877	 0.9735367327	 0.387655
C	 0.1663312207	-0.3886723623	 2.4096641881	-0.43717
C	 0.6835561807	-1.9966321516	 0.5081233463	-0.260823
C	 1.9908649917	-2.6078957537	 1.028779512	-0.329273
C	 2.9608019625	-1.4266993916	 1.1581828477	 0.406338
O	 4.1288567302	-1.5029144346	 1.4359836362	-0.313677
C	 2.1880325725	-0.134619464	 0.8814294249	-0.371917
H	 0.7311536645	 2.0832831555	 0.2372557906	 0.106853
H	-0.8210285463	 1.9548845013	-0.6211301538	 0.129105
H	-0.7804845187	 1.8410097645	 1.1511416247	 0.109168
H	-0.8906230566	-0.6684889896	 2.4492346443	 0.125534
H	 0.719997095	-1.0472457773	 3.0867020152	 0.121288
H	 0.2723185663	 0.6294948076	 2.7947799334	 0.120156
H	-0.212514034	-2.5215755305	 0.8478598006	 0.104661
H	 0.6672890367	-1.9916671913	-0.5859573775	 0.115721
H	 1.8775467096	-3.0559395965	 2.0235225977	 0.133756
H	 2.4158461562	-3.3837656487	 0.3868661856	 0.132392
H	 2.4143107145	 0.1676876634	-0.1498597532	 0.136258
H	 2.5188532732	 0.6674799505	 1.5449494578	 0.121811
63.3502	101.413	150.744	189.0356	211.8556	280.9692	337.4014	342.1919	405.125	423.5347	470.351	513.3845	563.6687	597.6692	735.455	762.2861	808.8326	883.7853	902.2275	948.8633	992.5312	997.3465	1012.8733	1092.88	1136.2313	1158.7492	1176.4156	1181.4706	1202.6046	1211.3417	1251.1559	1273.5113	1276.8295	1310.4535	1336.2988	1403.9286	1442.9197	1451.6041	1475.8586	1485.5172	1487.6367	1499.6643	1508.4257	1512.5338	1847.084	2991.2701	3032.6224	3037.6031	3043.4079	3045.1803	3060.1288	3099.1515	3105.9141	3108.5167	3111.5351	3112.0266	3117.2613
COC1(C)CCC(=O)C1	CO[C@@]1(C)CCC(=O)C1	
InChI=1S/C7H12O2/c1-7(9-2)4-3-6(8)5-7/h3-5H2,1-2H3	InChI=1S/C7H12O2/c1-7(9-2)4-3-6(8)5-7/h3-5H2,1-2H3/t7-/m0/s1
