19
gdb 78983	2.69123	1.93954	1.49177	1.2623	77.83	-0.2329	0.0754	0.3083	944.0594	0.159787	-385.816459	-385.809124	-385.80818	-385.84761	30.485	
C	 0.033724004	 1.5805217599	-0.0994372608	-0.5385
C	 0.0346709786	 0.0831011046	-0.0793088274	 0.399899
C	 0.6202023214	-0.8985232681	-1.1502295093	-0.177478
C	-0.4647335138	-1.8682837011	-0.7429738492	-0.079059
C	 0.8896927113	-1.8553864553	-0.0126205601	-0.078919
C	 0.5961199969	-0.8248308808	 1.0928419627	-0.116747
C	-0.8408539592	-1.0989078077	 1.5822694117	 0.118035
O	-1.2387704019	-0.0679819036	 2.4695474965	-0.44359
C	-1.2398398875	-0.8426093588	 0.1045480137	-0.157296
H	 1.0550473868	 1.9777247354	-0.1417913626	 0.11508
H	-0.5082722972	 1.9673128746	-0.9710169954	 0.111973
H	-0.4455384989	 1.9670496991	 0.8047660301	 0.135098
H	 1.1277456558	-0.7544950836	-2.095106083	 0.083444
H	-0.832416674	-2.7393020614	-1.2688871317	 0.083583
H	 1.5442348134	-2.7163767075	 0.0128649747	 0.083981
H	 1.3842138943	-0.5174261682	 1.7791061922	 0.066797
H	-1.0540062394	-2.0949884479	 1.9978273326	 0.056724
H	-2.1984924343	-0.0912819407	 2.5392944219	 0.281832
H	-2.2511679365	-0.5534520687	-0.1858686266	 0.055142
173.3742	232.93	248.6106	291.4441	312.4614	344.1282	493.3806	529.8937	602.4171	739.3056	742.2933	800.7557	807.7761	843.006	861.6243	870.9116	916.3864	919.4025	945.7732	969.4284	994.8869	997.8837	1034.8195	1066.6665	1077.193	1093.6319	1144.807	1154.303	1156.4643	1182.3321	1208.4181	1215.4905	1252.2175	1266.4399	1318.1883	1346.6525	1356.2071	1404.0176	1412.9427	1489.618	1492.602	2988.4957	3019.071	3076.0318	3100.9318	3109.4598	3126.0797	3190.5295	3194.7805	3209.2428	3812.6031
CC12C3C4C3C1C(O)C24	C[C@@]12[C@@H]3[C@H]4[C@@H]3[C@@H]1[C@@H](O)[C@@H]24	
InChI=1S/C8H10O/c1-8-4-2-3(4)6(8)7(9)5(2)8/h2-7,9H,1H3	InChI=1S/C8H10O/c1-8-4-2-3(4)6(8)7(9)5(2)8/h2-7,9H,1H3/t2-,3+,4-,5+,6-,7+,8+
