17
gdb 55409	2.62403	1.39645	1.02856	1.6891	69.49	-0.2555	-0.0433	0.2123	1158.4102	0.134302	-459.002558	-458.993863	-458.992919	-459.036645	31.254	
C	-0.1593252409	 1.5073662528	-0.0694988754	-0.488315
C	 0.0403646465	 0.0202502386	 0.0955230392	 0.379689
O	 0.1760760961	-0.5182942788	 1.1690236705	-0.293333
C	 0.0303857915	-0.7961501808	-1.2009831165	-0.238566
C	 0.4902520099	-2.2513054888	-1.0727220181	-0.109228
O	-0.2577477943	-2.987878988	-2.0469183544	-0.247567
C	-1.5550274587	-2.4448360454	-2.088047928	-0.176711
C	-1.4046134325	-0.9588441676	-1.759630696	 0.362724
O	-2.2327166992	-0.1000277422	-1.8989957641	-0.294885
H	 0.6758040203	 1.9357157206	-0.6362708839	 0.139029
H	-1.0685483259	 1.6840870032	-0.6548358239	 0.174079
H	-0.2261587239	 1.9886915881	 0.9065487792	 0.14256
H	 0.5932855683	-0.2541552051	-1.9709376871	 0.125369
H	 1.5480181541	-2.3993225307	-1.294798265	 0.123631
H	 0.2860167121	-2.6111526552	-0.0559344812	 0.129327
H	-1.9937378796	-2.5981871049	-3.0776712072	 0.144118
H	-2.2273476936	-2.8950449358	-1.3361597778	 0.12808
62.621	74.5586	170.2756	185.1458	197.8971	267.1164	348.7428	436.8142	487.5528	569.5521	577.8367	608.3809	680.7906	737.4307	889.2323	933.7034	944.9923	961.803	987.5875	1075.0925	1098.8006	1102.3662	1153.318	1175.2412	1203.1152	1212.0469	1262.4201	1304.8283	1333.2421	1384.0989	1385.8802	1467.4855	1472.1423	1476.2505	1518.6134	1808.6857	1851.7002	2958.0643	3030.8256	3034.665	3045.928	3096.7112	3099.5524	3121.6073	3157.172
CC(=O)C1COCC1=O	CC(=O)[C@H]1COCC1=O	
InChI=1S/C6H8O3/c1-4(7)5-2-9-3-6(5)8/h5H,2-3H2,1H3	InChI=1S/C6H8O3/c1-4(7)5-2-9-3-6(5)8/h5H,2-3H2,1H3/t5-/m1/s1
