19
gdb 43104	2.74873	1.80858	1.40455	3.0896	77.65	-0.2311	-0.0156	0.2155	972.3511	0.161969	-385.899283	-385.892217	-385.891272	-385.931166	28.322	
O	-0.0032069109	 0.0280289093	-0.0830355619	-0.315404
C	-0.0344277774	 1.2249072431	-0.0289542656	 0.411581
C	-1.1586722131	 2.2555965861	-0.0556453113	-0.159083
C	-1.4529661735	 2.8379940396	 1.3669241657	-0.253193
C	-0.337495877	 3.9188238138	 1.1902727032	-0.007285
C	 0.9494410693	 3.7456919963	 2.0055685592	-0.214791
C	 1.7170619069	 2.5495629768	 1.3774001929	-0.238807
C	 1.0687782403	 2.3064352937	-0.0122536926	-0.140731
C	-0.0539265751	 3.3699145978	-0.2345142197	-0.054159
H	-2.010439155	 2.0721680544	-0.7107012225	 0.086205
H	-2.4516823183	 3.2759582271	 1.4171948391	 0.114558
H	-1.3444780519	 2.1428630765	 2.2046506899	 0.10851
H	-0.7267873071	 4.9373475918	 1.2449144029	 0.070583
H	 1.5515034589	 4.6575350099	 1.9218374972	 0.10073
H	 0.7482589737	 3.5965478406	 3.0716533867	 0.101955
H	 2.783016965	 2.7713115585	 1.2822533752	 0.107312
H	 1.6427958841	 1.6482048509	 1.9933774297	 0.117677
H	 1.7990757036	 2.1744819666	-0.8139561394	 0.09497
H	 0.0079562377	 4.0303266473	-1.0969063686	 0.069373
56.3379	164.9628	219.6466	321.7999	432.8039	517.4763	592.2157	668.8067	699.2805	737.2422	791.0816	814.3205	831.0149	854.1523	891.5953	907.2857	925.5152	956.5316	987.1875	1006.015	1023.621	1078.7084	1085.2519	1123.9896	1128.4442	1157.1267	1172.1609	1190.5577	1217.9514	1238.2892	1252.6628	1266.3256	1286.9068	1289.5895	1305.4722	1338.5239	1353.1423	1481.814	1487.2513	1509.3978	1878.5072	3035.9722	3055.4162	3057.5517	3073.0352	3083.5707	3085.6888	3100.2352	3109.0495	3118.2536	3136.2251
O=C1C2CC3CCC1C23	O=C1[C@H]2C[C@H]3CC[C@@H]1[C@@H]23	
InChI=1S/C8H10O/c9-8-5-2-1-4-3-6(8)7(4)5/h4-7H,1-3H2	InChI=1S/C8H10O/c9-8-5-2-1-4-3-6(8)7(4)5/h4-7H,1-3H2/t4-,5-,6+,7+/m1/s1
