15
gdb 125364	3.25227	1.66817	1.11019	4.7073	74.48	-0.2149	-0.0101	0.2048	1030.3178	0.1149	-416.815007	-416.807736	-416.806792	-416.846693	27.603	
C	-0.0154058172	 1.5214365475	 0.0503241752	-0.507201
C	-0.0060031136	 0.0251472835	 0.0237716006	 0.074897
C	-0.0325834439	-0.7961004663	-1.0916562866	-0.125107
N	-0.0126998824	-2.1319771237	-0.7347012489	-0.424208
C	 0.0274206501	-2.190135023	 0.636917947	 0.202581
C	 0.0318798202	-0.8931787335	 1.10676309	 0.357692
O	 0.0706978409	-0.8853037829	 2.4511223719	-0.248145
N	 0.0924431538	-2.2280069291	 2.881687663	-0.149311
C	 0.0666459666	-2.9852953222	 1.8022848968	-0.100707
H	 0.8802294188	 1.922401197	 0.5378815413	 0.136152
H	-0.0539448199	 1.9281375011	-0.9639295148	 0.122802
H	-0.8800558056	 1.909946788	 0.5998545932	 0.136196
H	-0.0649462473	-0.5134940788	-2.1332012814	 0.127591
H	-0.026130434	-2.9032415994	-1.3764550271	 0.268035
H	 0.0778436436	-4.0579677081	 1.9297913299	 0.128734
116.7659	176.263	230.6495	260.3552	297.2841	400.1436	516.394	603.3842	609.3395	617.5195	683.298	748.8281	762.0985	813.437	874.5627	878.6717	960.5615	1003.5856	1066.4663	1102.8742	1124.2317	1207.8954	1241.688	1292.1505	1382.4922	1417.1037	1423.4992	1461.7719	1480.9105	1504.8629	1527.2255	1608.2262	1620.8952	3030.7033	3081.2651	3111.7626	3246.1037	3249.2199	3700.8018
CC1=CNC2=C1ON=C2	Cc1c[nH]c2c1onc2	
InChI=1S/C6H6N2O/c1-4-2-7-5-3-8-9-6(4)5/h2-3,7H,1H3	InChI=1S/C6H6N2O/c1-4-2-7-5-3-8-9-6(4)5/h2-3,7H,1H3
