20
gdb 51736	2.64699	1.16528	0.96311	3.6206	81.51	-0.248	0.0295	0.2774	1294.3936	0.171392	-403.15192	-403.143068	-403.142124	-403.186344	33.146	
O	 0.2720399826	-0.4155864468	 0.4159366169	-0.32038
C	 0.1311265199	 0.7873550028	 0.3699009983	 0.150895
N	 1.0998030231	 1.6859866917	 0.0363196839	-0.28434
C	 2.4498930794	 1.3240344908	-0.3162495628	-0.010944
C	 3.0678030175	 1.9357233446	-1.6067157835	-0.243991
C	 4.3985663891	 2.1619447393	-0.8305936493	-0.306656
C	 3.6221360792	 1.9387676883	 0.4740514854	 0.355899
C	 3.476974236	 2.9318199496	 1.5923126183	-0.322597
C	 4.1191955449	 1.5840979341	 1.8387512495	-0.329668
H	-0.8290900624	 1.2917203996	 0.599766814	 0.071783
H	 0.854982837	 2.6643093263	 0.0396612504	 0.244191
H	 2.4838673694	 0.2329211309	-0.3165951038	 0.123511
H	 3.0929379248	 1.2989381547	-2.4931747973	 0.109422
H	 2.5848263896	 2.8823376962	-1.8677499386	 0.097487
H	 5.132880988	 1.3738910626	-1.0232938075	 0.108771
H	 4.885590925	 3.1315594224	-0.9596225841	 0.102234
H	 4.1124715588	 3.8117835477	 1.5820387982	 0.112156
H	 2.4859570822	 3.0974848934	 2.0042702451	 0.105334
H	 3.5581311355	 0.8518276325	 2.4110132459	 0.123396
H	 5.1922707602	 1.5500617694	 1.9986668109	 0.113498
37.6487	87.2635	166.2373	185.1109	250.2842	264.6426	337.3922	408.7029	490.4764	555.02	556.9623	687.1155	756.6659	785.5105	843.7055	864.7636	893.6956	919.6594	935.861	967.976	995.0991	1031.97	1051.9437	1071.6682	1080.9101	1123.1979	1126.8469	1191.4968	1193.0902	1219.9151	1237.1297	1254.4318	1279.8165	1283.7948	1360.3175	1377.1041	1433.2265	1461.0465	1479.1812	1497.3944	1504.4697	1531.3227	1807.1394	2929.6022	3052.7651	3056.7778	3099.7015	3105.3392	3119.186	3122.5366	3124.4959	3198.5394	3213.3618	3622.8272
O=CNC1CCC11CC1	O=CN[C@H]1CCC21CC2	
InChI=1S/C7H11NO/c9-5-8-6-1-2-7(6)3-4-7/h5-6H,1-4H2,(H,8,9)	InChI=1S/C7H11NO/c9-5-8-6-1-2-7(6)3-4-7/h5-6H,1-4H2,(H,8,9)/t6-/m0/s1
