15
gdb 131566	6.94728	0.63866	0.60865	3.2833	83.73	-0.2292	-0.0231	0.2061	1761.8671	0.113824	-416.791639	-416.783098	-416.782154	-416.826629	29.795	
O	 0.3465117788	 0.7299945592	 0.9674635186	-0.407365
C	-0.0587909432	 0.1404270349	-0.2616436903	-0.230011
C	-1.4246655107	-0.3496341957	-0.147703908	 0.223097
C	-2.5577054896	-0.7593845489	-0.0810583417	-0.041258
C	-3.8750660863	-1.2497424387	 0.0085103555	 0.235805
C	-5.093431319	-0.7405847808	-0.4249123839	-0.324338
C	-6.0438262339	-1.7007749557	-0.0377327188	-0.015215
N	-5.4812035552	-2.7341780862	 0.590365297	-0.207038
N	-4.1751478962	-2.4427981153	 0.605300389	-0.27673
H	 1.2489902584	 1.0448507168	 0.8508644991	 0.291626
H	-0.0133191313	 0.8662085592	-1.0899728806	 0.123791
H	 0.599779437	-0.6992070392	-0.5387257437	 0.120709
H	-5.2478399028	 0.1912128166	-0.9426600593	 0.113194
H	-7.1131243786	-1.6855400206	-0.1876403679	 0.115173
H	-3.5255513875	-3.0768922554	 1.0403952652	 0.278561
25.7598	79.282	95.9988	199.01	225.1834	307.3337	392.7745	469.4459	521.9497	536.038	606.7457	682.308	709.1221	817.0647	897.6499	925.534	940.5787	1022.8232	1045.8621	1060.0338	1085.5158	1149.7033	1246.5888	1247.5861	1265.6439	1290.59	1361.3682	1427.739	1453.3319	1472.7619	1498.1207	1592.9177	2353.1027	2963.1402	2982.9733	3248.551	3280.4267	3667.2317	3815.1575
OCC#CC1=CC=NN1	OCC#Cc1ccn[nH]1	
InChI=1S/C6H6N2O/c9-5-1-2-6-3-4-7-8-6/h3-4,9H,5H2,(H,7,8)	InChI=1S/C6H6N2O/c9-5-1-2-6-3-4-7-8-6/h3-4,9H,5H2,(H,7,8)
