18
gdb 81206	2.83248	1.67429	1.42586	1.9718	77.98	-0.2212	-0.0309	0.1903	972.3432	0.146191	-401.816807	-401.809214	-401.80827	-401.848411	30.639	
C	 0.0312091502	 1.363470308	-0.4049330381	-0.360339
N	 0.0591262028	-0.0483640025	-0.023278342	-0.117859
C	-1.0563142364	-0.5590824368	 0.837858205	-0.056928
C	-0.1297191689	-1.8134802172	 1.1063503783	-0.295523
C	 0.7090606181	-0.5185961784	 1.2863691581	 0.301838
C	 1.7839812027	 0.3874988776	 1.8962519612	-0.449487
C	 0.5674022944	 1.2802742278	 2.386670676	 0.351389
O	 0.50404503	 2.3452090435	 2.9153563857	-0.283208
C	-0.4296752728	 0.091930684	 2.1294173156	-0.158886
H	 1.0382409686	 1.6727816741	-0.7022601367	 0.125164
H	-0.6084122797	 1.4494323981	-1.2896520661	 0.125856
H	-0.3453299713	 2.0747407256	 0.3430401204	 0.130471
H	-2.097643628	-0.5667358032	 0.5031873964	 0.09003
H	-0.3317283845	-2.3950293539	 2.0065921061	 0.10503
H	 0.0803845625	-2.4215231331	 0.2263352074	 0.114743
H	 2.2769196172	-0.0523014398	 2.7697644756	 0.142803
H	 2.5356163778	 0.8446087072	 1.2485791747	 0.134793
H	-0.6904091727	-0.3758836208	 3.0859999525	 0.100112
123.937	199.541	226.0426	291.8017	353.6187	379.3647	444.3676	480.0441	546.7681	622.9038	652.3921	709.8414	754.8585	785.9473	810.3208	856.4536	891.3665	963.3843	969.2112	1008.5512	1021.6271	1058.4685	1087.273	1117.1352	1135.8762	1152.5067	1174.0919	1188.6793	1189.6937	1202.9881	1242.8663	1268.1628	1288.6331	1433.9725	1450.6941	1484.3504	1490.9077	1509.7435	1887.8024	3002.7263	3042.1576	3058.0846	3068.8275	3071.2586	3085.119	3100.1447	3121.094	3164.7152
CN1C2CC11CC(=O)C21	CN1[C@H]2C[C@]31CC(=O)[C@@H]23	
InChI=1S/C7H9NO/c1-8-4-2-7(8)3-5(9)6(4)7/h4,6H,2-3H2,1H3	InChI=1S/C7H9NO/c1-8-4-2-7(8)3-5(9)6(4)7/h4,6H,2-3H2,1H3/t4-,6+,7-/m0/s1
