15
gdb 44409	3.73213	1.54051	1.4999	4.2623	70.04	-0.2499	-0.0283	0.2216	902.9311	0.11324	-420.528234	-420.521881	-420.520937	-420.558763	26.155	
O	-0.2353454511	 0.0890605423	-0.4983289183	-0.305758
C	-0.1020245815	 1.1806863043	-0.066576526	 0.372342
O	-1.1308262289	 2.0761807939	 0.3261775177	-0.27688
C	-0.1171698881	 2.8610292192	 1.0679075831	 0.140836
C	 0.7511954326	 4.1821661193	 0.9594734683	-0.155457
C	 1.9642531677	 3.1122614972	 1.1458284353	-0.30709
C	 0.9664814487	 2.2698621848	 0.2241704269	 0.014292
C	 0.9492278303	 3.1895814401	-1.028731215	-0.101865
C	 0.8190843984	 4.4194097233	-0.5371669331	-0.064408
H	-0.1610766583	 2.5177622157	 2.1037495184	 0.106834
H	 0.627781462	 5.0178307706	 1.6472049205	 0.085334
H	 2.9156640981	 3.4063805342	 0.7020987822	 0.127953
H	 2.0891697518	 2.7383921985	 2.1645106719	 0.123576
H	 1.0487902906	 2.8305858651	-2.0424568407	 0.122343
H	 0.7747078678	 5.3750624313	-1.038296001	 0.117948
140.0919	273.3739	291.9478	441.5025	471.2846	548.0157	619.0009	681.5653	711.839	724.6841	732.9826	799.9716	808.2424	840.6443	890.6181	917.1572	946.7779	953.7417	1004.0866	1034.3239	1049.5735	1054.4672	1115.3712	1130.654	1157.7409	1192.8832	1212.0586	1254.7469	1318.1085	1397.4936	1481.0924	1633.5254	1941.9707	3071.8066	3085.6648	3131.576	3157.0038	3230.9593	3257.9989
O=C1OC2C3CC12C=C3	O=C1O[C@@H]2[C@H]3C[C@@]12C=C3	
InChI=1S/C7H6O2/c8-6-7-2-1-4(3-7)5(7)9-6/h1-2,4-5H,3H2	InChI=1S/C7H6O2/c8-6-7-2-1-4(3-7)5(7)9-6/h1-2,4-5H,3H2/t4-,5-,7-/m1/s1
