19
gdb 36350	4.82521	0.82002	0.77948	4.9439	81.02	-0.2569	0.0382	0.295	1484.5492	0.15983	-382.051449	-382.04272	-382.041776	-382.085718	32.273	
N	-0.0035101212	-1.0700967611	-0.6867521597	-0.306271
C	-0.0200035489	 0.0062078598	-0.2667998217	 0.262955
C	-0.0139263989	 1.3635135298	 0.2798363695	-0.341507
C	 1.3754115341	 1.9811726701	 0.2646864535	-0.098277
N	 1.7604810902	 2.656725595	-0.9844660937	-0.374233
C	 1.5837193909	 3.4482627293	 0.2264128606	 0.361107
C	 0.5594851589	 4.5747977711	 0.4149859732	-0.289739
C	 1.4929432918	 5.1620207546	 1.515577638	-0.205619
C	 2.638316384	 4.2264946022	 1.0243459473	-0.307744
H	-0.6935124839	 1.9849664711	-0.3110216414	 0.16073
H	-0.4050782045	 1.3268257129	 1.3038699122	 0.148659
H	 2.1323448127	 1.3920141977	 0.7794806003	 0.102559
H	 2.7458701069	 2.5109440639	-1.1903907576	 0.235994
H	 0.4962706145	 5.2105627588	-0.4725514534	 0.116446
H	-0.4537307737	 4.2960158082	 0.7161582449	 0.102022
H	 1.6862679491	 6.2349068045	 1.4727703023	 0.107627
H	 1.1568777072	 4.9072029349	 2.523149547	 0.109119
H	 3.2049441141	 3.6771153078	 1.7808035035	 0.105978
H	 3.3436393168	 4.7469572895	 0.367791375	 0.110193
48.9345	89.9138	109.7439	192.189	222.8477	349.8912	387.7351	421.8865	444.7846	524.2802	583.1398	714.527	784.6856	837.7423	844.5225	888.6844	929.099	937.3977	945.1427	974.465	991.5874	1015.8658	1050.8721	1086.1802	1136.4915	1181.0176	1202.3317	1218.3796	1249.5317	1252.8351	1262.1639	1275.703	1295.5648	1317.8006	1359.5712	1452.3511	1471.941	1477.1805	1480.8702	1507.9909	2362.9906	3042.8132	3045.6569	3057.833	3073.846	3094.9572	3097.5129	3105.6306	3126.7688	3131.6914	3499.5779
N#CCC1NC11CCC1	N#CC[C@H]1NC21CCC2	
InChI=1S/C7H10N2/c8-5-2-6-7(9-6)3-1-4-7/h6,9H,1-4H2	InChI=1S/C7H10N2/c8-5-2-6-7(9-6)3-1-4-7/h6,9H,1-4H2/t6-/m1/s1
