18
gdb 54384	3.93219	1.12086	1.02028	10.9386	74.34	-0.1902	0.0229	0.213	1202.3741	0.147576	-439.028975	-439.020446	-439.019502	-439.062811	31.973	
C	-0.1785824676	 1.4367964914	 0.0117011176	-0.507595
C	 0.0692570405	-0.0433262471	-0.0019331732	 0.27773
C	 0.7040861828	-0.9445797464	-1.0950479106	-0.280616
C	 0.1703365382	-1.9347194465	-0.0156985236	 0.19171
C	 0.7405702097	-0.9582630869	 1.0574671616	-0.280488
N	-1.1152279623	-1.0374281521	 0.0117978001	-0.268392
H	-1.6694673898	-1.162465089	 0.8575494848	 0.289693
H	-1.6978850274	-1.1513122876	-0.8162348988	 0.289671
C	-0.0922851478	-3.4672824187	-0.0202749545	 0.287241
O	 0.9373869247	-4.1423852782	-0.0429874686	-0.456295
O	-1.3152817152	-3.7060822604	 0.0012494711	-0.500999
H	 0.7810820877	 1.9620101896	 0.000971784	 0.155346
H	-0.7476576897	 1.7545062615	-0.867603954	 0.139813
H	-0.7211657553	 1.7424865115	 0.9117707138	 0.139794
H	 0.2149381725	-0.9651474118	-2.0725814457	 0.119569
H	 1.7868180173	-0.8945417296	-1.1831953478	 0.142102
H	 1.8256842049	-0.909132513	 1.1094826412	 0.142097
H	 0.2848031768	-0.9914441865	 2.0506567626	 0.119618
38.4407	127.5664	127.8476	206.5214	301.2028	310.8131	346.2645	467.7189	534.9413	566.4685	589.5448	654.1708	722.818	770.7338	803.8113	838.2132	927.9744	942.4408	943.0763	968.621	1008.3041	1047.228	1056.5703	1081.9067	1123.8129	1133.5711	1149.9165	1178.4877	1227.0326	1260.7126	1318.6615	1328.5527	1416.103	1483.3859	1484.7015	1494.8521	1528.1834	1655.8512	1812.9118	3039.6511	3074.4997	3077.8372	3112.5141	3119.0477	3173.6655	3179.5713	3462.2497	3559.5599
CC12CC(C1)([NH2+]2)C([O-])=O	C[C@@]12C[C@@](C1)([NH2]2)C(=O)[O]	
InChI=1S/C6H9NO2/c1-5-2-6(3-5,7-5)4(8)9/h7H,2-3H2,1H3,(H,8,9)	InChI=1S/C6H9NO2/c1-5-2-6(3-5,7-5)4(8)9/h2-3,7H2,1H3/t5-,6+
