15
gdb 25841	3.90803	1.33068	0.9938	4.5821	76.38	-0.2258	-0.0552	0.1706	1121.5062	0.11629	-413.05421	-413.046857	-413.045913	-413.086192	28.099	
N	-0.078740147	 1.3246470937	 0.1641734868	-0.529569
C	 0.0553561254	-0.0314903281	 0.0365214887	 0.284973
N	 1.195915122	-0.6016249232	-0.0514053174	-0.52045
C	-1.2548360241	-0.7768262838	 0.0368877235	 0.340111
N	-2.3790982011	-0.0510351827	 0.0246527292	-0.300787
C	-3.5289139545	-0.7273831872	 0.0120792541	 0.010957
C	-3.5711323735	-2.1152321468	 0.0139065062	-0.137152
C	-2.3426829148	-2.769450959	 0.023905454	 0.013433
N	-1.1862981845	-2.111503192	 0.0335561204	-0.282694
H	 0.7393772903	 1.8737664567	-0.0413987502	 0.255561
H	-0.9841282179	 1.718299976	-0.030473766	 0.262133
H	 1.0533518725	-1.6105388516	-0.0869210527	 0.228604
H	-4.4408895151	-0.1349976464	 1.0359*^-6	 0.126398
H	-4.5077773736	-2.6586889138	 0.0059214109	 0.120625
H	-2.2837056042	-3.8555732218	 0.0231404066	 0.127858
83.4465	145.2194	230.4223	373.5843	395.9932	413.5428	443.6379	500.7978	519.9349	617.1857	645.347	688.0003	793.9521	830.5556	844.8218	901.6941	1009.7569	1010.6245	1013.093	1089.3716	1113.1643	1129.2495	1161.5	1257.3748	1269.1164	1297.4152	1430.4366	1464.4093	1478.8406	1596.1818	1600.7533	1618.3775	1721.6368	3157.5288	3159.8843	3215.1561	3495.8897	3599.1287	3728.509
NC(=N)C1=NC=CC=N1	NC(=N)c1ncccn1	
InChI=1S/C5H6N4/c6-4(7)5-8-2-1-3-9-5/h1-3H,(H3,6,7)	InChI=1S/C5H6N4/c6-4(7)5-8-2-1-3-9-5/h1-3H,(H3,6,7)
