21
gdb 100714	2.77593	0.9366	0.85411	1.6843	75.14	-0.2582	-0.0288	0.2294	1445.8906	0.178738	-461.381636	-461.370555	-461.369611	-461.418235	39.273	
C	-0.261282382	 1.4300405976	-0.114164174	-0.416049
C	 0.0301423753	-0.0716569198	-0.0148145297	-0.006418
C	 0.7809203424	-0.589661666	-1.2546344354	-0.080104
O	 0.0484017039	-0.4125711152	-2.4580501864	-0.42496
C	 0.8551477358	-0.4155669074	 1.2490778947	 0.028485
O	 2.0915894716	 0.2494920797	 1.2381918682	-0.440954
C	 0.1090793473	-0.0859931313	 2.5448719498	 0.368291
C	-1.2242417451	-0.7453337876	 2.8082063676	-0.482812
O	 0.6152252437	 0.6909199371	 3.3285008669	-0.32405
H	 0.6731137765	 1.9988942425	-0.1207417764	 0.134046
H	-0.8192830578	 1.6516756059	-1.0282207842	 0.111851
H	-0.8630678597	 1.7890452872	 0.7272876453	 0.117441
H	-0.9177528321	-0.6228970386	 0.0358174537	 0.079106
H	 1.7697554724	-0.1153115461	-1.3074835459	 0.11563
H	 0.9404925259	-1.6696268772	-1.1551803585	 0.103589
H	 0.1703249631	 0.4945517229	-2.7510098029	 0.28674
H	 1.0208691023	-1.5087860247	 1.2557967099	 0.08568
H	 2.1105774341	 0.7558179772	 2.0678924152	 0.292886
H	-2.0001919143	-0.2599891298	 2.2051614064	 0.15851
H	-1.2103100374	-1.8019253242	 2.5247959883	 0.142798
H	-1.4833800758	-0.6395675922	 3.8623868075	 0.150294
66.5246	72.6755	99.4799	114.02	151.3142	206.9122	238.95	247.153	288.8895	318.4962	352.8351	414.0399	433.6358	504.9846	535.8537	610.5312	692.5378	808.7396	843.7355	910.8269	949.3477	971.8261	1011.2597	1019.3815	1071.1205	1113.0293	1133.8055	1151.2562	1212.1153	1239.0806	1266.3705	1303.8553	1333.0202	1374.758	1384.952	1391.6368	1402.5908	1421.9793	1438.6067	1463.331	1474.0174	1497.5139	1506.3806	1508.6435	1790.8036	2936.9822	3016.7978	3028.6537	3039.5132	3043.9287	3069.8432	3101.3874	3106.9847	3120.7528	3152.9623	3656.364	3839.8466
CC(CO)C(O)C(C)=O	C[C@@H](CO)[C@@H](O)C(=O)C	
InChI=1S/C6H12O3/c1-4(3-7)6(9)5(2)8/h4,6-7,9H,3H2,1-2H3	InChI=1S/C6H12O3/c1-4(3-7)6(9)5(2)8/h4,6-7,9H,3H2,1-2H3/t4-,6+/m0/s1
