19
gdb 119216	1.91611	1.5613	1.0424	3.8425	77.47	-0.2537	0.0178	0.2715	1217.6494	0.157305	-419.16871	-419.15874	-419.157796	-419.204107	35.104	
C	-0.1596139911	 0.7844152104	-0.3556051791	-0.249395
O	-0.0984901796	 0.3926019262	 1.0062008598	-0.232582
C	 0.9644164169	-0.4674706626	 1.3414508091	-0.164135
C	 0.6843843424	-1.9438690558	 1.0521168965	 0.143268
C	 1.0352087415	-2.9708575562	 2.098818236	-0.27116
N	-0.346579558	-2.6952235185	 1.7805585661	-0.095351
C	-1.1795807575	-2.0072679835	 2.7628855013	-0.314584
C	 0.8118973884	-2.3324477472	-0.3405523649	 0.271625
N	 0.9487122131	-2.6272941365	-1.4505192619	-0.350137
H	-0.4317147408	-0.0443513157	-1.0195612135	 0.142335
H	-0.9259067358	 1.5600149506	-0.4224026198	 0.131447
H	 0.8007862794	 1.2015392044	-0.6925194842	 0.11277
H	 1.8914963564	-0.1753052965	 0.825075396	 0.113414
H	 1.1288882797	-0.3427068038	 2.4147031196	 0.114197
H	 1.4191871581	-3.9412160567	 1.7976556508	 0.139675
H	 1.4459618578	-2.5768293834	 3.0288367998	 0.118462
H	-0.6268190731	-1.3493064044	 3.4480362652	 0.10892
H	-1.9285185086	-1.4092440294	 2.2405022076	 0.14877
H	-1.6878118693	-2.7701253014	 3.3597188056	 0.132461
45.6082	97.9195	137.3688	157.7754	169.1888	198.9784	239.5919	285.9115	350.0321	388.7318	440.9728	490.6274	571.3628	583.3613	709.7621	826.283	874.3164	909.9819	952.4112	1016.6608	1064.8383	1120.6942	1124.8069	1145.3843	1160.7044	1180.2683	1200.1726	1218.3156	1253.377	1319.1793	1369.9085	1403.1053	1449.3173	1473.4977	1480.3905	1486.1449	1499.6796	1503.249	1509.2041	1512.9448	2350.3152	2993.7945	2998.6055	3003.3057	3068.2519	3082.746	3086.855	3097.0628	3122.7476	3137.4243	3185.6723
COCC1(CN1C)C#N	COC[C@]1(CN1C)C#N	
InChI=1S/C6H10N2O/c1-8-4-6(8,3-7)5-9-2/h4-5H2,1-2H3	InChI=1S/C6H10N2O/c1-8-4-6(8,3-7)5-9-2/h4-5H2,1-2H3/t6-,8?/m1/s1
