16
gdb 36148	4.06619	1.1041	1.00556	3.658	68.08	-0.2479	0.0287	0.2766	1167.7851	0.124376	-437.870572	-437.862713	-437.861768	-437.903557	29.079	
N	 0.0012794335	-1.1865578539	 0.3176119082	-0.304025
C	-0.0272052214	-0.0518421178	 0.1044520505	 0.277054
C	-0.0673740004	 1.3905693374	-0.1524096621	-0.428576
C	 1.3048727004	 2.0119562421	-0.2365412822	 0.416099
C	 2.1571154701	 2.3436360174	 0.9734620993	-0.38735
C	 1.6593730111	 3.4378089738	 0.0425552792	 0.017194
O	 2.4936427171	 3.8620102847	-1.0026028699	-0.252728
C	 2.9393876143	 2.6872805826	-1.6587388755	 0.005854
O	 1.9783994134	 1.6713272769	-1.4253281523	-0.289039
H	-0.6035658266	 1.5691924621	-1.0908990578	 0.165886
H	-0.6386683101	 1.8689199882	 0.6498653584	 0.156174
H	 1.6729267445	 2.2815347878	 1.9426400954	 0.129479
H	 3.2060198624	 2.0707505784	 0.9786446298	 0.137478
H	 0.9742992792	 4.209260958	 0.3708987113	 0.120771
H	 3.0131317411	 2.8765417092	-2.7334726686	 0.130794
H	 3.9195631813	 2.3788507132	-1.2629760239	 0.104935
57.7825	106.5093	208.7082	242.4144	305.292	383.5953	394.0082	435.7192	478.327	707.6618	732.0334	745.2951	843.4901	876.353	911.1687	930.6654	969.8886	988.3107	1016.4432	1022.2164	1073.575	1081.5563	1154.4794	1158.0168	1194.3776	1221.3184	1268.9111	1293.3898	1341.5784	1401.8819	1435.7185	1445.8275	1475.7055	1550.6282	2367.7554	2977.56	3050.592	3087.0964	3095.1788	3138.5539	3196.651	3228.6966
N#CCC12CC1OCO2	N#CC[C@]12C[C@H]1OCO2	
InChI=1S/C6H7NO2/c7-2-1-6-3-5(6)8-4-9-6/h5H,1,3-4H2	InChI=1S/C6H7NO2/c7-2-1-6-3-5(6)8-4-9-6/h5H,1,3-4H2/t5-,6+/m1/s1
