22
gdb 109834	2.54668	1.07712	0.88617	3.6064	83.72	-0.2432	0.0279	0.2711	1415.0516	0.193262	-404.367122	-404.356725	-404.35578	-404.402973	37.384	
C	-0.2027389942	 1.5390537603	-0.0086852469	-0.377191
C	 0.1510072533	 0.0512417336	 0.1197165845	-0.207884
C	 0.7756606076	-0.5090257903	-1.1439053387	-0.049838
C	 0.8571668125	-1.9894978468	-1.4471258958	-0.025905
C	 0.3240022199	-3.0587539483	-0.5195328993	-0.409544
C	-0.0567745624	-1.1009288578	-2.264866153	 0.009794
N	-1.4784575231	-1.1965530928	-2.0994753759	-0.28299
C	-2.2160935962	-2.2079839182	-2.6399557679	 0.152615
O	-1.7640680317	-3.1825292382	-3.199058832	-0.318413
H	 0.6865593441	 2.1370387263	-0.2351638403	 0.120508
H	-0.9227913695	 1.7151149795	-0.8164095186	 0.107335
H	-0.6386217042	 1.9260334882	 0.9174866066	 0.115698
H	 0.8526071899	-0.0820584261	 0.9528163535	 0.10522
H	-0.7450915631	-0.5165495074	 0.388927498	 0.099872
H	 1.622644194	 0.0798959205	-1.490156492	 0.084582
H	 1.7524657471	-2.2940514284	-1.9828430095	 0.088892
H	-0.5946286702	-2.7511862657	-0.0154363391	 0.116322
H	 0.0979295159	-3.9664666765	-1.0856631829	 0.142449
H	 1.061459038	-3.3061854351	 0.2516158485	 0.110589
H	 0.2548724407	-0.8924071833	-3.2857026968	 0.100565
H	-1.9812270882	-0.3873208376	-1.7677233528	 0.247419
H	-3.3036127001	-2.0399302061	-2.4967925698	 0.069906
55.5271	78.1469	130.7217	144.5602	177.4151	207.6747	211.152	250.778	300.3911	322.8503	476.1204	514.4141	529.6729	593.921	744.627	769.4124	802.111	831.3495	877.8482	959.5528	992.8287	1003.6211	1031.5315	1037.1683	1067.0204	1105.5179	1130.1524	1151.1712	1159.8705	1194.7683	1222.768	1286.9397	1295.5025	1337.3172	1380.702	1400.3429	1414.7222	1422.7393	1432.0307	1452.594	1488.0033	1493.7962	1495.5966	1504.1181	1507.2166	1508.1389	1811.485	2919.9268	3027.5323	3031.3337	3042.7022	3071.7534	3094.6007	3105.4879	3107.6316	3118.1679	3122.6853	3128.3165	3146.655	3609.6889
CCC1C(C)C1NC=O	CC[C@H]1[C@@H](C)[C@H]1NC=O	
InChI=1S/C7H13NO/c1-3-6-5(2)7(6)8-4-9/h4-7H,3H2,1-2H3,(H,8,9)	InChI=1S/C7H13NO/c1-3-6-5(2)7(6)8-4-9/h4-7H,3H2,1-2H3,(H,8,9)/t5-,6+,7-/m1/s1
