15
gdb 24325	3.9506	1.60953	1.14361	0.3088	82.62	-0.193	-0.0403	0.1527	993.5999	0.116607	-383.560624	-383.554543	-383.553599	-383.590845	25.28	
O	-0.036411461	 1.349069547	 0.0099206806	-0.124877
C	 1.2272177038	 1.8332163189	 0.0001960768	-0.137131
C	 2.1235297397	 0.7930684633	-0.014406055	 0.20506
C	 3.546178407	 0.7011886195	-0.0288601515	-0.228334
C	 4.1185584284	-0.5372288273	-0.0414283496	-0.113621
C	 3.3267181281	-1.7349794876	-0.0404024737	-0.113621
C	 1.9630659729	-1.6934519711	-0.0268047599	-0.228334
C	 1.3212468188	-0.4204760755	-0.0133591271	 0.205061
C	 0.013127761	-0.0032364483	 0.0018341186	-0.137132
H	 1.3226298127	 2.9060662963	 0.0052634114	 0.142558
H	 4.1539303	 1.5997353667	-0.0297746408	 0.09831
H	 5.1993913046	-0.6314056272	-0.052554461	 0.095595
H	 3.8367521724	-2.6925544244	-0.0507830206	 0.095595
H	 1.3744062258	-2.6046215155	-0.0261532328	 0.09831
H	-0.9366005241	-0.5112805946	 0.0082980646	 0.142559
209.547	251.3953	397.3733	441.2953	543.7531	558.5052	603.4538	624.3517	667.99	702.6557	754.9016	770.5558	773.8892	860.5214	903.3043	906.0827	939.7853	975.4656	1004.5457	1087.4306	1156.1017	1178.4049	1183.5889	1241.273	1255.8592	1306.0386	1383.3607	1396.0595	1453.2698	1504.6562	1583.5664	1585.9245	1682.689	3170.8596	3179.0591	3190.5827	3199.2767	3275.8003	3281.3425
O1C=C2C=CC=CC2=C1	o1cc2ccccc2c1	
InChI=1S/C8H6O/c1-2-4-8-6-9-5-7(8)3-1/h1-6H	InChI=1S/C8H6O/c1-2-4-8-6-9-5-7(8)3-1/h1-6H
