14
gdb 16326	3.23162	1.97801	1.40974	3.2077	57.29	-0.2764	-0.005	0.2714	856.6278	0.106701	-419.66292	-419.65568	-419.654735	-419.695081	26.247	
O	 0.1391097499	 1.4505319163	 0.3687046365	-0.408159
C	 0.091355358	 0.0959293296	-0.0431858647	-0.181361
C	-1.3117308145	-0.4421532856	-0.0180663972	 0.094447
C	-2.0344550292	-1.0290998422	 1.2060339033	-0.326777
C	-1.9560418957	-1.8089030663	-0.0525260242	 0.038717
O	-2.9940590669	-1.3424363952	-0.9651909771	-0.264425
C	-2.3751079798	-0.1012366279	-1.0292646601	 0.442161
O	-2.6442709074	 0.8162367306	-1.7367699302	-0.337137
H	-0.3818747784	 1.9617570765	-0.2611353037	 0.299734
H	 0.5182374394	-0.0317710737	-1.0494089049	 0.107359
H	 0.7226237706	-0.463327312	 0.6547783977	 0.117212
H	-1.35783966	-1.3231775096	 2.0037552871	 0.136502
H	-2.9914759302	-0.6332487392	 1.5301603187	 0.143034
H	-1.5516300758	-2.7950475612	-0.2291230712	 0.138694
48.0944	140.9457	211.2791	253.5423	381.6754	399.8926	472.5338	493.8351	681.4712	739.6538	796.8532	840.1091	887.2925	925.4819	935.2384	990.2677	1032.7993	1053.0155	1071.5734	1080.214	1091.892	1193.4864	1256.3757	1297.6865	1379.3513	1395.6779	1428.8726	1482.2262	1501.3176	1929.9876	2992.2369	3077.2255	3123.4803	3215.7899	3231.9668	3803.0536
OCC12CC1OC2=O	OC[C@]12C[C@H]1OC2=O	
InChI=1S/C5H6O3/c6-2-5-1-3(5)8-4(5)7/h3,6H,1-2H2	InChI=1S/C5H6O3/c6-2-5-1-3(5)8-4(5)7/h3,6H,1-2H2/t3-,5-/m1/s1
