25
gdb 59991	3.02773	0.77542	0.74079	1.3947	89.52	-0.2582	0.0745	0.3327	1730.2988	0.226774	-389.485837	-389.474715	-389.473771	-389.522766	41.013	
C	 0.9706699161	-0.3711135109	-1.0295227927	-0.387152
C	 0.017239912	 0.0187572601	 0.1086225972	 0.049206
C	-0.087048291	 1.545195962	 0.2254640716	-0.392764
C	-1.3789739029	-0.6066276033	-0.0619619555	-0.190171
C	-1.4314704911	-2.1347135561	 0.0833046856	 0.095596
O	-0.8900866724	-2.5579665555	 1.3369240885	-0.430823
C	-2.8315904723	-2.6699170273	-0.133355943	 0.013061
C	-3.2866680189	-3.0776375251	-1.5136023668	-0.266117
C	-3.0401576406	-4.1246918336	-0.4567703459	-0.273186
H	 1.9550000721	 0.086803632	-0.8866280115	 0.10927
H	 1.1197883947	-1.4531935818	-1.088993781	 0.117887
H	 0.5848177123	-0.0308022591	-1.9986119786	 0.106261
H	 0.4316951301	-0.3722755673	 1.0459358668	 0.084038
H	-0.5121255654	 1.9826191737	-0.6863687837	 0.108532
H	-0.7273150558	 1.8407903259	 1.0637326133	 0.104792
H	 0.8978401198	 1.9984769175	 0.3803249502	 0.108271
H	-2.0594789173	-0.1739266772	 0.687404022	 0.074333
H	-1.7946743517	-0.331555369	-1.0411289503	 0.094251
H	-0.7714412559	-2.5977005848	-0.6603975824	 0.080404
H	-1.4767328527	-2.2347319338	 2.0298503255	 0.273506
H	-3.5867448049	-2.20162008	 0.4967954777	 0.071146
H	-4.3090242669	-2.8629648375	-1.804074434	 0.110317
H	-2.5709767837	-2.9982050515	-2.32591864	 0.111571
H	-2.1558813634	-4.7461780669	-0.5506113031	 0.118552
H	-3.8953195102	-4.6327551704	-0.0250804198	 0.109218
38.012	61.5793	102.2272	127.2348	210.8167	219.277	242.1929	257.4724	284.458	321.8956	349.8538	414.2653	437.5597	487.1608	542.4929	772.5187	810.6247	830.2088	845.613	880.4818	928.1268	937.236	941.5588	966.5299	968.5254	1005.5451	1057.9263	1077.2653	1085.8029	1115.0041	1125.3022	1133.8314	1182.6967	1191.9771	1196.6828	1224.7183	1236.0516	1286.7235	1298.9841	1346.6548	1377.1245	1383.7347	1400.5319	1408.9063	1421.6241	1429.2811	1472.498	1473.5025	1487.787	1494.7498	1504.8024	1507.6067	1510.9656	2989.1964	3019.5949	3023.7375	3027.6016	3036.9235	3048.105	3084.0129	3091.6278	3095.2294	3104.8136	3111.5212	3129.8021	3135.8194	3207.5389	3222.8069	3797.933
CC(C)CC(O)C1CC1	CC(C)C[C@@H](O)C1CC1	
InChI=1S/C8H16O/c1-6(2)5-8(9)7-3-4-7/h6-9H,3-5H2,1-2H3	InChI=1S/C8H16O/c1-6(2)5-8(9)7-3-4-7/h6-9H,3-5H2,1-2H3/t8-/m1/s1
