18
gdb 78403	3.22682	1.32833	1.19872	2.3305	75.67	-0.233	-0.0313	0.2017	1099.3247	0.147372	-401.890994	-401.883324	-401.88238	-401.923077	30.107	
C	-0.0586288676	 1.4563580119	 0.0005208604	-0.425793
C	 0.0138514684	-0.0549428342	-0.0642910364	-0.039786
C	 0.747507169	-0.6481208382	-1.2417777467	-0.081628
C	 1.3750739096	-0.6678769019	 0.1513372449	-0.020484
N	 1.430946086	-2.1515964567	 0.1770104652	-0.132723
C	 0.2843774116	-2.8661794232	 0.8252849346	-0.313657
C	-0.4311323862	-2.9387912158	-0.5457290782	 0.38875
O	-1.4508161107	-3.4110448524	-0.9469865061	-0.284095
C	 0.7653393464	-2.1836362168	-1.1779429153	-0.128169
H	 0.8636984546	 1.912802313	-0.3746746554	 0.12057
H	-0.8874216546	 1.8378032896	-0.6047176477	 0.127066
H	-0.2055324238	 1.7991848963	 1.0299158727	 0.124159
H	-0.8766667452	-0.5547143252	 0.3097410383	 0.094059
H	 1.01284603	-0.0659598854	-2.1149499595	 0.097929
H	 2.2017624864	-0.0934197147	 0.5553841673	 0.097349
H	 0.5784673742	-3.847202521	 1.2134984409	 0.137091
H	-0.2457750045	-2.3198624092	 1.6117879087	 0.134656
H	 1.2965954564	-2.6937229761	-1.9862434376	 0.104706
92.1806	199.8008	215.5926	253.5321	281.6828	375.0237	415.5267	504.4274	563.4103	636.2652	723.3274	782.0508	795.2326	859.4319	878.2304	914.3345	930.266	972.3245	993.942	1025.0525	1050.31	1053.5838	1075.7523	1090.7345	1131.067	1140.6919	1168.2678	1184.5034	1202.2727	1242.8081	1244.7607	1269.4018	1306.7764	1415.6553	1419.2312	1449.8723	1494.0617	1503.1454	1902.0144	3031.394	3043.4684	3074.4113	3094.9405	3097.3223	3099.68	3131.7719	3164.5754	3194.7537
CC1C2C1N1CC(=O)C21	C[C@H]1[C@H]2[C@@H]1N1CC(=O)[C@@H]21	
InChI=1S/C7H9NO/c1-3-5-6(3)8-2-4(9)7(5)8/h3,5-7H,2H2,1H3	InChI=1S/C7H9NO/c1-3-5-6(3)8-2-4(9)7(5)8/h3,5-7H,2H2,1H3/t3-,5-,6+,7-/m0/s1
