18
gdb 9170	8.25912	0.79338	0.73365	1.8829	76.48	-0.246	-0.0101	0.2359	1563.0991	0.152211	-381.167919	-381.15834	-381.157396	-381.203417	32.657	
C	-0.3457633704	 1.4337053752	 0.4363938496	-0.370139
C	-0.2916858195	 0.0721923646	-0.2517633711	-0.313934
C	 0.7299005609	 0.0285395452	-1.3821504681	 0.432233
O	 1.4242933968	 0.9712056065	-1.7005324015	-0.349015
N	 0.8027782696	-1.1942245345	-2.0272091281	-0.346867
C	 1.6604557072	-1.4638534017	-3.0840467253	 0.115297
N	 1.6749971185	-2.6059854136	-3.6284311357	-0.237748
C	 2.5985820473	-2.8090845296	-4.7259572947	-0.310656
H	 0.6263583052	 1.6933692979	 0.8619178734	 0.135914
H	-0.6095539118	 2.2191961271	-0.2755990945	 0.135908
H	-1.0876530816	 1.4272983846	 1.2395113919	 0.11084
H	-0.0432457	-0.7207126612	 0.4662132939	 0.125931
H	-1.2726442787	-0.1977920589	-0.6649769673	 0.125913
H	 0.2087702586	-1.956710676	-1.7344819002	 0.257385
H	 2.2794126103	-0.6051231665	-3.3593782537	 0.130472
H	 3.2791361378	-3.6342553365	-4.4855473059	 0.127522
H	 2.043492166	-3.108701282	-5.622586821	 0.127519
H	 3.2019066738	-1.9209385906	-4.9710726017	 0.103424
27.0088	79.4715	117.7873	135.6617	192.0172	213.8644	255.2552	330.426	351.0756	373.6522	563.7946	571.898	648.2973	668.2485	813.9085	909.7303	1012.0723	1012.1165	1065.2023	1070.4122	1098.3868	1143.0642	1143.1827	1178.0584	1256.5793	1283.68	1347.9423	1376.6483	1415.2829	1446.8225	1462.8082	1479.7853	1490.5806	1491.1498	1498.979	1515.0472	1758.6655	1800.9068	2978.6138	3021.279	3052.1067	3054.8941	3059.927	3074.462	3097.5666	3126.8094	3133.5851	3614.3302
CCC(=O)NC=NC	CCC(=O)NC=NC	
InChI=1S/C5H10N2O/c1-3-5(8)7-4-6-2/h4H,3H2,1-2H3,(H,6,7,8)	InChI=1S/C5H10N2O/c1-3-5(8)7-4-6-2/h4H,3H2,1-2H3,(H,6,7,8)
