19
gdb 62886	3.16999	1.47965	1.15965	3.2566	75.8	-0.2437	0.0702	0.3138	1094.1965	0.156731	-422.924695	-422.91631	-422.915365	-422.957031	33.046	
C	 0.0089676697	 1.5538912305	-0.0334014471	-0.462043
C	-0.0816623316	 0.0307525764	-0.01639293	 0.345919
C	-1.4836306678	-0.4383365691	-0.3972505541	-0.479723
C	 1.1748717655	-0.7200394277	-0.5868596761	-0.121942
O	 1.9633368224	-0.2123434985	 0.5650639859	-0.310439
C	 0.6832250043	-0.6712348152	 1.1626554003	-0.121939
C	 0.8337057481	-1.9306171285	 0.2955605103	 0.56716
C	 0.2755496995	-3.2697896546	 0.176105947	-0.312662
O	 1.6504865697	-3.0296521895	 0.5557683068	-0.281326
H	 1.0079982603	 1.8934978268	 0.2380180719	 0.143307
H	-0.2364540445	 1.9388426201	-1.0295836081	 0.112464
H	-0.7137042227	 1.986193246	 0.6677825427	 0.112462
H	-1.7448499366	-0.0714943298	-1.3960941619	 0.122371
H	-1.5954799172	-1.5232110877	-0.3989033376	 0.123218
H	-2.2210983146	-0.0249658753	 0.2997188257	 0.122375
H	 1.634625724	-0.6713177759	-1.5744173097	 0.097293
H	 0.562385841	-0.5648706837	 2.2411276303	 0.097294
H	-0.3592291138	-3.6713503404	 0.964779558	 0.123106
H	 0.1382964345	-3.7207956238	-0.8057070845	 0.123105
163.69	171.9185	180.7371	225.0109	275.5093	343.9411	344.8739	375.3664	431.4902	480.596	601.3742	640.0368	738.6393	742.9522	774.2992	862.3006	866.2581	889.4602	949.1209	960.2262	1010.6389	1014.0889	1087.1978	1112.3494	1116.2337	1123.771	1133.6348	1141.9714	1190.747	1191.2492	1235.4262	1254.0434	1314.0002	1394.0753	1416.5155	1460.7571	1484.2301	1489.3998	1503.5792	1514.2815	1556.874	3032.255	3038.5439	3083.4191	3085.9399	3092.5453	3118.0697	3123.3307	3137.102	3153.4297	3169.2708
CC1(C)C2OC1C21CO1	CC1(C)[C@H]2O[C@@H]1[C@]12CO1	
InChI=1S/C7H10O2/c1-6(2)4-7(3-8-7)5(6)9-4/h4-5H,3H2,1-2H3	InChI=1S/C7H10O2/c1-6(2)4-7(3-8-7)5(6)9-4/h4-5H,3H2,1-2H3/t4-,5+,7-
