23
gdb 114869	3.90135	1.00477	0.89496	1.0944	85.53	-0.2442	0.0736	0.3178	1399.2307	0.20723	-388.284107	-388.275216	-388.274272	-388.318624	33.816	
C	 0.0966552636	 1.6594706774	-0.3565501279	-0.237808
O	-0.2319432847	 0.295593996	-0.2364121145	-0.24363
C	 0.5539143489	-0.5628065743	-1.0359744552	 0.163941
C	 1.9996858034	-0.7909952091	-0.5397218959	-0.26077
C	 2.4282182295	-2.0872811731	-1.2458691977	-0.0022
C	 3.0443519026	-3.2086783976	-0.3656196299	-0.230942
C	 1.6391475658	-3.8643738083	-0.2404863824	-0.22776
C	 1.1030507915	-2.9190563758	-1.3606860121	 0.011492
C	-0.0693262393	-1.9721327656	-1.0463911979	-0.266036
H	 1.1086173449	 1.8822001546	 0.0129806959	 0.105088
H	 0.0300963417	 2.0034327052	-1.4013685098	 0.10077
H	-0.6240024748	 2.2208787749	 0.2437337625	 0.124067
H	 0.5895926232	-0.1670195943	-2.0667536474	 0.05728
H	 2.6688805442	 0.0495457198	-0.74321106	 0.092727
H	 1.9629480664	-0.9286371596	 0.5484945826	 0.100904
H	 2.9554148521	-1.8747369964	-2.1797576368	 0.060774
H	 3.7475053368	-3.8342976567	-0.922041201	 0.097123
H	 3.5306295679	-2.8919923892	 0.5614323667	 0.093874
H	 1.5868418089	-4.9368592976	-0.4432399218	 0.096077
H	 1.1605027014	-3.6801149671	 0.7258182206	 0.098989
H	 0.9818911502	-3.4358398876	-2.3151422315	 0.062261
H	-0.4854052369	-2.1630716766	-0.0508654227	 0.107135
H	-0.8941307373	-2.044044559	-1.7600596539	 0.096644
38.589	86.9854	106.6087	189.0045	244.8076	326.3025	365.2324	426.9409	457.0006	533.6027	617.8537	679.5518	761.6505	823.4759	858.3883	860.4823	893.5433	930.036	954.6756	985.2922	1005.3735	1013.9241	1048.6576	1080.3564	1094.2884	1123.9958	1156.4288	1180.3551	1187.5036	1201.4069	1223.7816	1228.2606	1253.9511	1263.4137	1269.1015	1275.6329	1282.4396	1310.1855	1329.386	1343.312	1363.3483	1397.497	1477.7835	1480.0489	1486.7582	1488.7415	1493.2285	1503.2402	1510.6654	2939.0002	2972.0269	3019.7483	3029.919	3046.2425	3049.7081	3054.0329	3059.8174	3074.0271	3090.296	3094.0036	3099.0176	3108.4919	3113.8466
COC1CC2CCC2C1	CO[C@H]1C[C@H]2CC[C@H]2C1	
InChI=1S/C8H14O/c1-9-8-4-6-2-3-7(6)5-8/h6-8H,2-5H2,1H3	InChI=1S/C8H14O/c1-9-8-4-6-2-3-7(6)5-8/h6-8H,2-5H2,1H3/t6-,7+,8+
