20
gdb 83524	2.76668	1.72126	1.57941	1.5844	76.45	-0.2278	0.0765	0.3042	951.6403	0.175115	-403.131638	-403.1246	-403.123656	-403.162496	29.936	
O	-0.0797828663	 1.4251853132	 0.0302821151	-0.456789
C	 0.0106665781	 0.0098198739	 0.0223736057	 0.128754
C	 0.4291275535	-0.6172960707	 1.3795105432	-0.079541
C	-0.6955635588	-0.0804148251	 2.3058374021	-0.194772
C	-1.9569322876	-0.082499775	 1.3749476191	-0.202227
C	-1.3995943986	-0.6109687849	 0.023451272	-0.043216
C	-1.093172521	-2.0872788259	 0.2699154915	-0.032235
N	 0.2117411278	-2.5699439886	-0.2423508819	-0.360231
C	 0.0994951971	-2.0917676943	 1.1572924122	-0.028962
H	 0.8152301232	 1.7757493759	 0.0001795564	 0.281199
H	 0.6226710546	-0.3423600857	-0.8092364722	 0.090928
H	 1.4463002484	-0.3988305953	 1.714134312	 0.050495
H	-0.8248887669	-0.7086793774	 3.1920960699	 0.086156
H	-0.4651389299	 0.9316115535	 2.6438080401	 0.100516
H	-2.7586681205	-0.7214039994	 1.7570274337	 0.085471
H	-2.3581807382	 0.9254079998	 1.2577485694	 0.111253
H	-2.0136518826	-0.3827781132	-0.8490578197	 0.063926
H	-1.9094916326	-2.792231401	 0.3898624339	 0.085603
H	 0.2004943168	-3.5869332306	-0.23215918	 0.228328
H	 0.2165799233	-2.8010070691	 1.9706668976	 0.085343
234.6864	240.3068	266.9881	324.7802	326.2054	371.9281	502.9038	589.2996	599.7461	755.5423	761.8956	809.987	831.6406	859.9445	880.8608	887.0754	893.0574	930.5741	953.9704	978.1575	1011.9296	1017.8613	1038.6542	1090.2866	1108.7084	1114.6266	1146.6887	1164.4592	1176.6614	1201.4837	1232.2297	1235.5296	1265.444	1292.0672	1304.5677	1323.1763	1330.7122	1339.4383	1368.3904	1412.1513	1435.425	1479.219	1503.509	3053.4013	3064.067	3078.9993	3096.4749	3103.4078	3106.1871	3122.7606	3153.5608	3165.3542	3501.5061	3828.1474
OC1C2CCC1C1NC21	O[C@H]1[C@H]2CC[C@@H]1[C@H]1N[C@@H]21	
InChI=1S/C7H11NO/c9-7-3-1-2-4(7)6-5(3)8-6/h3-9H,1-2H2	InChI=1S/C7H11NO/c9-7-3-1-2-4(7)6-5(3)8-6/h3-9H,1-2H2/t3-,4+,5-,6+,7-
