17
gdb 48638	3.41692	1.50677	1.32794	2.8308	76.31	-0.2334	-0.0273	0.2061	984.8737	0.137022	-384.68449	-384.677488	-384.676544	-384.715957	28.368	
O	-0.0944466006	-0.0135568517	 0.0910936533	-0.252073
C	 0.0088890818	 1.1853885335	 0.0164770395	 0.051461
C	 1.3054591928	 1.9370474768	-0.0051339775	 0.167168
C	 1.5859702929	 2.8959021824	 1.2092737069	-0.235829
C	 2.9475518961	 3.3465726366	 0.5997283517	-0.124543
C	 3.5822450069	 1.9518402198	 0.4062184549	-0.09632
C	 2.6075307215	 1.1180693064	 0.0495112548	-0.104741
C	 2.43206263	 3.818489223	-0.7729187019	-0.082753
C	 1.4493349539	 2.9945601089	-1.13191497	-0.12159
H	-0.8964403843	 1.8341366308	-0.0396472182	 0.073415
H	 0.8569205084	 3.7059400619	 1.295971758	 0.101614
H	 1.6886036233	 2.3564640659	 2.1540715544	 0.110259
H	 3.5363764537	 4.0680993233	 1.1653372692	 0.067772
H	 4.63906599	 1.7433756958	 0.5037210296	 0.105159
H	 2.6551305932	 0.0689603557	-0.2028353684	 0.122422
H	 2.8552133047	 4.6361928294	-1.3407802937	 0.107854
H	 0.8849800058	 2.9763433017	-2.0545651925	 0.110726
73.9105	191.9236	272.365	423.5218	436.2146	460.9219	512.501	555.0003	691.2373	693.2547	742.9312	760.4759	791.7425	809.3225	886.6189	904.3368	909.3962	928.8991	941.5455	953.013	993.8813	1059.4036	1087.3431	1091.2357	1100.3257	1155.118	1204.7438	1253.8399	1256.4496	1272.1724	1292.8414	1344.507	1426.3535	1491.4986	1614.487	1658.0431	1823.808	2859.4764	3058.4314	3120.8761	3123.9067	3210.3133	3218.7324	3236.4705	3252.4681
O=CC12CC(C=C1)C=C2	O=C[C@@]12C[C@@H](C=C1)C=C2	
InChI=1S/C8H8O/c9-6-8-3-1-7(5-8)2-4-8/h1-4,6-7H,5H2	InChI=1S/C8H8O/c9-6-8-3-1-7(5-8)2-4-8/h1-4,6-7H,5H2/t7-,8-
