17
gdb 116583	3.40345	1.06183	0.82057	5.8159	81.81	-0.2293	-0.0742	0.1551	1381.7355	0.135616	-418.040536	-418.031686	-418.030742	-418.074998	31.848	
C	 0.0579004017	 1.6375374265	 0.3107114397	-0.372197
C	-0.1040986795	 0.2977200304	-0.4029536587	-0.143489
N	-1.5063904981	-0.0940159312	-0.4465778706	-0.272742
C	-1.8742521207	-0.9901055589	-1.2592633842	 0.294868
N	-1.1191013165	-1.7247326425	-2.1842649783	-0.359685
C	-1.9355371465	-2.6580278312	-2.8073279328	-0.005813
C	-3.2297809766	-2.5603840664	-2.4326035443	-0.260143
C	-3.3235829532	-1.4977904917	-1.4268729914	 0.329353
O	-4.2833729855	-1.0664463925	-0.8317941659	-0.314826
H	 1.1130593429	 1.9219659082	 0.3699598325	 0.107353
H	-0.4838062211	 2.4235579914	-0.2228486913	 0.128807
H	-0.348185927	 1.5784179376	 1.3238927633	 0.133464
H	 0.3288398704	 0.3581419061	-1.4153850284	 0.091906
H	 0.4640144348	-0.4765706063	 0.1364090547	 0.11021
H	-0.1171390078	-1.7951391385	-2.1639676954	 0.267018
H	-1.4934919648	-3.3423043803	-3.5200079384	 0.141983
H	-4.0560117224	-3.1451252308	-2.8027296406	 0.123932
35.426	128.7857	134.9634	162.1721	257.1371	262.878	319.3423	356.3159	421.5407	587.1464	613.7927	626.2263	741.6395	784.7188	802.462	817.0835	833.6113	904.2064	945.3598	1036.8536	1072.3425	1094.956	1115.4872	1129.9454	1140.4009	1249.9083	1300.508	1353.5179	1386.271	1413.2593	1424.2761	1474.3367	1487.7371	1503.3789	1620.7485	1755.7811	1812.317	2959.0117	2997.2916	3044.6371	3117.1288	3126.4739	3222.4491	3273.1913	3681.5427
CCN=C1NC=CC1=O	CCN=C1NC=CC1=O	
InChI=1S/C6H8N2O/c1-2-7-6-5(9)3-4-8-6/h3-4H,2H2,1H3,(H,7,8,9)	InChI=1S/C6H8N2O/c1-2-7-6-5(9)3-4-8-6/h3-4H,2H2,1H3,(H,7,8,9)
