20
gdb 33206	5.4393	0.6817	0.65408	1.9361	83.46	-0.1975	0.0456	0.2431	1757.0018	0.171591	-403.175674	-403.166321	-403.165377	-403.211176	33.571	
C	 0.0621988788	 1.3789657202	 0.114137117	-0.22822
O	 0.0076584467	-0.0236178546	 0.0218164883	-0.227824
C	 0.6428916024	-0.52378365	-1.1330871349	-0.039042
C	 0.5041594921	-2.0494543444	-1.1377381165	-0.332704
C	 1.1701364426	-2.695477618	-2.3100216529	 0.288907
C	 0.6604773359	-3.1599234774	-3.5039727061	-0.223208
C	 1.7447288585	-3.6486314903	-4.2854699734	-0.134937
C	 2.8913631466	-3.4704059463	-3.5491917384	-0.099467
N	 2.5331833918	-2.8899211246	-2.357520866	-0.281148
H	 1.1001974858	 1.7467348871	 0.1573711587	 0.10112
H	-0.4357446968	 1.8658046421	-0.7396038618	 0.104556
H	-0.452273921	 1.6681279594	 1.0339318013	 0.126379
H	 0.1888681387	-0.103072072	-2.0455397116	 0.0943
H	 1.7086756571	-0.2344375518	-1.1439394759	 0.076512
H	 0.9089260716	-2.4329668761	-0.1924148825	 0.106386
H	-0.5606876154	-2.2997328498	-1.1444277688	 0.123258
H	-0.3833154764	-3.150098953	-3.7805365372	 0.087315
H	 1.6876605308	-4.0857186282	-5.2704964992	 0.090082
H	 3.9204756813	-3.7100697361	-3.7634026646	 0.111928
H	 3.1687280991	-2.6641402358	-1.6120597756	 0.255806
40.867	79.6828	89.5219	110.2701	226.2716	246.334	323.7623	336.0836	441.5395	485.1299	629.9793	668.5421	708.5258	742.4704	792.9366	797.7143	851.3268	896.2267	973.5752	996.1003	1036.3928	1053.9362	1060.0643	1119.2356	1144.5257	1161.8754	1179.8537	1224.0657	1224.7219	1255.5426	1286.5668	1314.6331	1323.6756	1415.7995	1439.2514	1459.2322	1480.0531	1484.6042	1485.7757	1501.8799	1505.0649	1530.889	1617.0497	2945.7669	2968.2605	2983.3541	3009.6976	3029.6437	3093.1002	3112.0156	3238.1317	3251.2712	3270.7938	3676.0092
COCCC1=CC=CN1	COCCc1ccc[nH]1	
InChI=1S/C7H11NO/c1-9-6-4-7-3-2-5-8-7/h2-3,5,8H,4,6H2,1H3	InChI=1S/C7H11NO/c1-9-6-4-7-3-2-5-8-7/h2-3,5,8H,4,6H2,1H3
