12
gdb 43566	2.18978	1.64587	1.06418	4.2113	65.15	-0.2983	-0.0269	0.2714	1061.327	0.076038	-435.4739	-435.465949	-435.465005	-435.50706	28.093	
O	 0.0185260212	 0.0911425686	-0.6002118798	-0.290484
C	 0.0220798632	 1.177239343	-0.1345457629	 0.478278
O	-1.0180472788	 1.8940810638	 0.3813117668	-0.227856
C	-0.1644087194	 3.0460377051	 0.7324403226	-0.079789
C	-0.1378460142	 3.3213436522	 2.1470775659	 0.367762
C	-0.0987063222	 3.5650254249	 3.3217409409	-0.417155
C	 1.0608808831	 2.3068250298	 0.0982796684	-0.384154
C	 2.2093729291	 2.00596003	 0.9259127349	 0.316357
N	 3.1273721188	 1.7659648772	 1.5845098365	-0.306937
H	-0.4846488292	 3.9150693384	 0.1533540194	 0.144614
H	-0.0606367409	 3.7736627087	 4.3634529177	 0.226444
H	 1.3789090893	 2.7519091183	-0.8480778905	 0.172921
76.2214	101.12	146.1653	200.6429	264.2408	404.8182	434.6163	490.1808	510.4468	602.0896	664.3682	703.6407	708.4175	787.5588	812.4872	887.9925	929.5611	1057.3015	1109.341	1115.8065	1154.014	1269.4626	1310.441	1368.7124	1963.8602	2250.765	2369.2823	3088.5146	3097.4163	3497.3628
O=C1OC(C#C)C1C#N	O=C1O[C@@H](C#C)[C@H]1C#N	
InChI=1S/C6H3NO2/c1-2-5-4(3-7)6(8)9-5/h1,4-5H	InChI=1S/C6H3NO2/c1-2-5-4(3-7)6(8)9-5/h1,4-5H/t4-,5+/m1/s1
