20
gdb 97006	3.80952	1.13385	0.99047	2.3692	81.71	-0.2448	0.033	0.2778	1269.8224	0.172575	-403.16291	-403.154466	-403.153522	-403.196646	31.351	
C	-0.0024885559	 1.4591507613	 0.3863512493	-0.338952
N	-0.0437650097	 0.004233028	 0.4416644608	-0.333883
C	-1.0504208314	-0.5944465729	 0.00431879	 0.459449
O	-2.2201241318	-0.0983741263	-0.560614888	-0.286498
C	-2.7624255671	-1.4546640288	-0.7113546247	 0.125736
C	-2.8732160776	-1.9380279261	-2.163530835	-0.238689
C	-1.9723979573	-3.1908075074	-2.2143410892	-0.19628
C	-0.8006942803	-2.8700703995	-1.2601896779	-0.23237
C	-1.4554551418	-2.047669622	-0.1250697181	-0.180417
H	 0.8744657508	 1.7706699502	-0.1920927742	 0.124525
H	-0.8953893831	 1.9176335255	-0.0545399825	 0.124974
H	 0.1298761548	 1.8527178292	 1.4003704123	 0.125355
H	-3.6786443678	-1.5504662949	-0.1254535238	 0.090481
H	-3.9031057136	-2.1412442828	-2.46756769	 0.103557
H	-2.4825342051	-1.1522237569	-2.8182655695	 0.120569
H	-2.5279204241	-4.0582776547	-1.8373980179	 0.103428
H	-1.6422903326	-3.4374816504	-3.2273417026	 0.104464
H	-0.300932285	-3.7678450878	-0.8896578465	 0.107722
H	-0.0434100296	-2.26749405	-1.7713298789	 0.117983
H	-1.5302608719	-2.5864622136	 0.8199697265	 0.098846
74.4354	79.2158	128.7347	189.8253	202.4127	306.0039	411.3971	465.4146	547.8601	665.5671	691.7827	729.3886	821.383	827.1559	864.7124	900.0062	917.8338	935.4062	986.7067	1018.718	1039.3526	1078.2429	1099.3983	1117.2064	1131.4747	1151.188	1182.1443	1193.3848	1198.3831	1250.7394	1277.0543	1306.6773	1320.2286	1337.284	1345.2602	1362.6483	1439.3239	1482.3779	1493.7501	1495.1678	1497.3988	1506.5113	1844.2678	3016.0774	3034.7926	3055.5838	3058.2098	3080.1551	3085.7521	3086.0774	3091.8734	3102.8683	3108.7778	3118.1813
CN=C1OC2CCCC12	CN=C1O[C@H]2CCC[C@@H]12	
InChI=1S/C7H11NO/c1-8-7-5-3-2-4-6(5)9-7/h5-6H,2-4H2,1H3	InChI=1S/C7H11NO/c1-8-7-5-3-2-4-6(5)9-7/h5-6H,2-4H2,1H3/t5-,6+/m1/s1
