15
gdb 21638	6.42444	1.63147	1.33091	2.4251	69.68	-0.193	0.0365	0.2295	893.9267	0.121952	-358.826357	-358.819618	-358.818673	-358.857331	25.548	
N	 0.0204655854	 1.3656404417	 0.3367587234	-0.58099
C	 0.0496515932	 0.007999094	 0.0190843506	 0.391315
N	-1.0911954557	-0.6995360334	-0.0058699484	-0.376749
N	-0.6225717406	-1.9578491429	-0.1721384238	 0.077149
C	-0.955121827	-3.2793564172	-0.7208965449	-0.165266
C	 0.6092500602	-3.4970165206	-0.8105275284	-0.366427
C	 0.7047172291	-2.0501391367	-0.3433714231	 0.381008
C	 1.2247936917	-0.7792091331	-0.2175885815	-0.466233
H	 0.6957319569	 1.9122311252	-0.1802164916	 0.243492
H	-0.9092307603	 1.7512809886	 0.2309333097	 0.249777
H	-1.5143963188	-3.9262127768	-0.0393925622	 0.126018
H	-1.4534426876	-3.2405405629	-1.694045671	 0.130883
H	 1.0108682707	-4.2537121069	-0.1326841356	 0.128565
H	 0.9745237273	-3.6881410024	-1.8219885854	 0.130047
H	 2.2453794755	-0.4367184667	-0.251288268	 0.097412
74.1585	219.1553	265.8114	312.2463	328.2647	515.1381	601.6318	639.0956	671.884	742.5967	768.0063	806.6542	829.6317	832.1393	922.6196	992.1439	1056.432	1082.688	1106.7154	1135.1157	1170.6789	1184.521	1218.0952	1274.3977	1325.5856	1419.0935	1472.8169	1488.5499	1503.0335	1527.5528	1595.47	1643.2289	3051.997	3071.8796	3102.946	3123.9083	3271.6448	3542.7257	3640.5826
NC1=NN2CCC2=C1	Nc1nn2CCc2c1	
InChI=1S/C5H7N3/c6-5-3-4-1-2-8(4)7-5/h3H,1-2H2,(H2,6,7)	InChI=1S/C5H7N3/c6-5-3-4-1-2-8(4)7-5/h3H,1-2H2,(H2,6,7)
