14
gdb 20718	5.72616	1.61735	1.27108	3.2641	69.94	-0.2198	-0.0747	0.1451	914.9862	0.10917	-374.915497	-374.908505	-374.907561	-374.946975	25.708	
C	-0.0211424926	 1.5182494036	-0.0068388781	-0.482411
C	-0.000609869	 0.0184794669	-0.0210326671	 0.30264
N	-0.0542504834	-0.6050825804	-1.1641372611	-0.203105
N	-0.0332115944	-1.9337677798	-1.122709513	-0.237214
C	 0.0406953392	-2.7412420032	 0.0207718179	 0.436113
N	 0.0505470245	-4.0065156512	-0.1298979666	-0.557809
N	 0.0974605934	-2.0484865977	 1.2376595736	-0.286939
C	 0.0769160161	-0.7582359635	 1.1956681692	-0.027269
H	 0.881546506	 1.9249781828	 0.4635876731	 0.137918
H	-0.0816310271	 1.8962724704	-1.0285879371	 0.149212
H	-0.8791750197	 1.899989936	 0.5585343338	 0.137936
H	-0.0753633674	-2.4025571385	-2.0163960749	 0.282298
H	 0.1069664312	-4.4469108193	 0.7864531978	 0.226021
H	 0.1215282631	-0.2292662461	 2.1494111123	 0.122608
67.4214	133.9039	283.7314	301.7872	387.0742	449.9368	493.9077	515.405	650.6758	695.2224	758.3885	779.2168	837.4625	838.6286	975.4573	984.8159	1026.9354	1068.0438	1083.5017	1250.9244	1294.311	1321.0435	1414.3691	1435.7511	1439.3931	1479.9325	1483.6482	1569.4368	1673.2887	1728.8447	3031.0259	3081.5696	3114.2204	3142.7574	3516.422	3611.6891
CC1=NNC(=N)N=C1	Cc1n[nH]c([NH])nc1	
InChI=1S/C4H6N4/c1-3-2-6-4(5)8-7-3/h2H,1H3,(H2,5,6,8)	InChI=1S/C4H11N4/c1-3-2-6-4(5)8-7-3/h3-8H,2H2,1H3
