18
gdb 28455	3.11749	1.32433	0.94033	2.4545	83.28	-0.2377	-0.0017	0.236	1243.5834	0.147908	-402.028643	-402.019857	-402.018913	-402.062284	32.669	
C	-0.0313779797	 1.5231637434	-0.0198377256	-0.465286
C	 0.0076235137	 0.0173474929	 0.016207449	 0.32938
N	 0.0519324505	-0.606702344	-1.1715496368	-0.342773
C	 0.086944057	-1.9375682392	-1.1638646295	-0.065554
C	 0.0815936207	-2.7427355064	-0.0256138946	 0.144923
C	 0.1232454878	-4.2460435208	-0.1057108973	-0.542895
C	 0.0350810537	-2.070813072	 1.2028074883	 0.329693
O	 0.0244005896	-2.7206489557	 2.394312499	-0.429452
C	-0.0021715972	-0.6789390447	 1.2216624001	-0.252335
H	 0.8505354144	 1.9131447987	-0.5380648686	 0.138026
H	-0.9068763671	 1.8665313903	-0.5801971152	 0.138033
H	-0.0668553394	 1.9536992581	 0.9837591824	 0.115483
H	 0.1225524998	-2.4184541138	-2.1411226608	 0.096928
H	 1.0086391533	-4.6646451541	 0.3917968614	 0.131613
H	-0.7610721527	-4.7114694001	 0.3503856774	 0.131612
H	 0.1563157037	-4.57465983	-1.1474108686	 0.141023
H	 0.0531198525	-3.6709536152	 2.2411275732	 0.301385
H	-0.0380973806	-0.1625499073	 2.1737908362	 0.100197
54.3339	130.3573	158.4793	219.1103	282.9156	305.4953	317.9783	392.048	448.3495	465.3615	516.8131	567.9547	634.8852	745.4859	766.0544	782.5658	889.1425	951.2566	954.5162	1014.7647	1027.4762	1058.6984	1063.6385	1159.0153	1180.4288	1262.9034	1317.842	1332.2436	1335.0502	1406.1968	1410.823	1442.4898	1475.4621	1486.9546	1487.6188	1506.5562	1524.6602	1608.7015	1659.4198	3004.8851	3040.6664	3049.2692	3100.6373	3112.7634	3125.1375	3127.7707	3198.2126	3820.7379
CC1=NC=C(C)C(O)=C1	Cc1ncc(C)c(O)c1	
InChI=1S/C7H9NO/c1-5-4-8-6(2)3-7(5)9/h3-4H,1-2H3,(H,8,9)	InChI=1S/C7H9NO/c1-5-4-8-6(2)3-7(5)9/h3-4H,1-2H3,(H,8,9)
