16
gdb 64621	2.90771	1.43492	1.35394	4.3233	73.48	-0.2486	-0.0215	0.2271	1003.8577	0.126245	-396.907245	-396.899573	-396.898628	-396.939162	29.957	
N	 0.1075620547	 1.4789642312	-0.0219493334	-0.543703
C	 0.0430485292	 0.0128808907	-0.0131741069	 0.102942
C	 0.6447094086	-0.5305177784	 1.2883768529	-0.090282
C	-0.2070519471	-1.2992855483	 1.964069028	-0.058319
C	-1.5171898843	-1.3999125791	 1.2529149527	-0.079375
N	-2.1821213907	-0.0666512598	 1.1236118429	-0.347668
C	-1.381063306	-0.6063043796	 0.0115997119	-0.098536
C	 0.7841478778	-0.4999313885	-1.17864	 0.268352
N	 1.3348904997	-0.9227909942	-2.1022742944	-0.336636
H	-0.2086876969	 1.8312173603	-0.9217864482	 0.237139
H	-0.5604839725	 1.8004046745	 0.6762544777	 0.250268
H	 1.6368240119	-0.2242397237	 1.5932823566	 0.126535
H	-0.0132200218	-1.7601433346	 2.9247615026	 0.116291
H	-2.1342865108	-2.2886077473	 1.3181421375	 0.10576
H	-3.1687242193	-0.2016688847	 0.9083900397	 0.237217
H	-1.8600445327	-0.8756549684	-0.9225290997	 0.110016
120.5008	150.0193	221.0658	269.842	313.0057	396.1784	462.1985	500.6914	529.1207	572.0258	647.0641	739.4512	783.5173	800.8745	842.0215	865.9084	903.3274	923.9891	960.9514	978.4663	993.2672	1041.5358	1087.2707	1141.7348	1150.4831	1166.2203	1171.1351	1253.295	1313.2879	1324.7447	1387.7946	1405.9752	1650.5449	1672.3866	2357.8198	3177.3079	3186.6765	3207.6555	3234.3421	3470.7234	3482.4522	3558.0716
NC1(C=CC2NC12)C#N	N[C@]1(C=C[C@H]2N[C@@H]12)C#N	
InChI=1S/C6H7N3/c7-3-6(8)2-1-4-5(6)9-4/h1-2,4-5,9H,8H2	InChI=1S/C6H7N3/c7-3-6(8)2-1-4-5(6)9-4/h1-2,4-5,9H,8H2/t4-,5-,6-/m1/s1
