15
gdb 25611	4.95725	0.84671	0.78083	3.125	67.82	-0.2512	-0.0089	0.2423	1397.3697	0.11427	-453.997514	-453.989531	-453.988587	-454.032297	27.809	
O	-0.0606075177	 0.4587480361	 0.7973315112	-0.32605
C	 0.0258093662	 1.3619973907	-0.0084460524	 0.159504
N	 1.1499773833	 1.6967966086	-0.6936677929	-0.270446
C	 2.4315971865	 1.0465375492	-0.4635880115	-0.274668
C	 3.4930774942	 2.0437680707	-0.1239446729	 0.255154
C	 4.3585175496	 2.0923500289	 0.9155524787	-0.114354
O	 5.1428848209	 3.2040445526	 0.7671928284	-0.136162
C	 4.6945640455	 3.7783709554	-0.368864221	 0.081262
N	 3.7262357145	 3.1474887104	-0.9461599957	-0.314427
H	-0.827504331	 2.0140486799	-0.2799112989	 0.077368
H	 1.1428727805	 2.5090731409	-1.2909090344	 0.262418
H	 2.2832627682	 0.3334880429	 0.3493837357	 0.155675
H	 2.7277117922	 0.4815030235	-1.357324615	 0.127921
H	 4.5460901719	 1.4794113478	 1.7798339801	 0.159511
H	 5.1803568052	 4.6907896823	-0.6771240895	 0.157295
22.6003	51.2428	132.5156	234.877	274.8683	323.6542	423.9376	559.7525	637.4759	666.0286	724.9647	776.1318	818.1176	853.2054	937.782	975.4864	982.492	1033.0057	1043.7235	1095.8354	1136.087	1211.5413	1232.1457	1258.2923	1288.1725	1345.2232	1381.642	1427.5088	1488.3926	1528.9541	1558.8842	1635.6571	1802.9571	2941.8093	3017.0928	3126.7252	3277.3158	3298.5076	3634.1985
O=CNCC1=COC=N1	O=CNCc1cocn1	
InChI=1S/C5H6N2O2/c8-3-6-1-5-2-9-4-7-5/h2-4H,1H2,(H,6,8)	InChI=1S/C5H6N2O2/c8-3-6-1-5-2-9-4-7-5/h2-4H,1H2,(H,6,8)
