18
gdb 97820	5.10473	0.67586	0.64936	3.0072	82.15	-0.2311	0.0367	0.2679	1733.4289	0.147427	-401.858896	-401.849885	-401.84894	-401.894763	32.421	
O	 0.2626199433	 1.1898091238	 0.7135578488	-0.404735
C	 0.0975525283	 0.057247191	-0.1319251019	-0.192437
C	-1.2659718074	-0.4678186109	-0.1494615137	 0.050085
C	-2.40445672	-0.8638116089	-0.1706982904	 0.088225
C	-3.7696007819	-1.3509737771	-0.1866753847	-0.177716
C	-4.5156288469	-1.5501179607	-1.5715822982	-0.23573
C	-4.7627955091	-3.0087339736	-1.1780642785	-0.042739
N	-3.4193537055	-3.6121286436	-1.0064958518	-0.320666
C	-4.0258834996	-2.8460123798	 0.10276166	-0.053232
H	-0.4293472412	 1.8186820152	 0.4841788954	 0.284833
H	 0.4147864894	 0.2810185395	-1.1634364573	 0.11552
H	 0.7895512576	-0.701421268	 0.2508113353	 0.138642
H	-4.3928089257	-0.7367865127	 0.4711469129	 0.103875
H	-5.4204204158	-0.9433217038	-1.6373587033	 0.105996
H	-3.9017705963	-1.4109885548	-2.4628901161	 0.117231
H	-5.6238015642	-3.6221392907	-1.4113570087	 0.096253
H	-3.5549840185	-4.5995925718	-0.7908831244	 0.229943
H	-4.1805033665	-3.2964717432	 1.0753938365	 0.096652
15.9293	72.8787	103.722	143.2482	258.6705	281.2256	328.5086	425.8895	467.7929	515.9138	590.1568	676.7977	760.9838	812.4672	833.9016	901.6936	915.1524	958.9985	973.5437	987.6789	992.565	1040.5329	1049.9662	1096.1948	1117.4916	1154.0617	1176.555	1197.9942	1214.0108	1244.1976	1276.9421	1318.6518	1350.3176	1355.5567	1381.6062	1418.5072	1474.1542	1492.7102	2356.1596	2971.9513	3054.5958	3059.4382	3077.6954	3139.6618	3185.6712	3200.1421	3473.1673	3817.1908
OCC#CC1CC2NC12	OCC#C[C@H]1C[C@H]2N[C@@H]12	
InChI=1S/C7H9NO/c9-3-1-2-5-4-6-7(5)8-6/h5-9H,3-4H2	InChI=1S/C7H9NO/c9-3-1-2-5-4-6-7(5)8-6/h5-9H,3-4H2/t5-,6+,7-/m0/s1
