19
gdb 33197	6.37519	0.73141	0.66424	2.2785	78.62	-0.1988	0.0533	0.252	1699.6911	0.160234	-419.249343	-419.240259	-419.239315	-419.284247	32.692	
C	 0.06768289	 1.4804113806	 0.008154207	-0.383401
C	-0.0331835812	-0.0475783928	 0.0022161233	-0.189714
C	-1.4778752498	-0.5183211637	 0.012737281	-0.040693
O	-1.4703571286	-1.9550027522	 0.006574982	-0.282492
C	-2.6779632299	-2.5302740571	 0.0136359928	 0.487618
N	-3.8513591339	-1.9534983501	 0.0256402675	-0.361585
C	-4.7556359942	-3.0054064401	 0.0281474301	-0.093279
C	-4.1101659686	-4.2056146984	 0.0175663015	-0.110112
N	-2.7563753324	-3.8884348835	 0.0081152021	-0.336114
H	 1.1124477772	 1.8031978917	 0.0003570036	 0.118621
H	-0.4222461747	 1.9158716724	-0.8694036853	 0.121033
H	-0.4066215331	 1.9079619395	 0.898096209	 0.121031
H	 0.4667245655	-0.4571864414	-0.8831596835	 0.106871
H	 0.4820674116	-0.4650267215	 0.8750459039	 0.106875
H	-2.0142022424	-0.1660667446	 0.901556849	 0.119632
H	-2.0295457129	-0.1585808519	-0.8635917814	 0.11968
H	-5.8189909211	-2.8226738072	 0.0374963116	 0.105092
H	-4.4542276386	-5.2257132668	 0.0157363924	 0.125174
H	-1.9759947629	-4.521944653	-0.0009825267	 0.265764
49.4021	67.5893	111.13	143.9635	232.4363	290.2933	307.2237	337.2693	467.2897	521.8604	634.4889	681.9072	741.4258	763.1452	763.459	838.458	893.4531	913.7526	922.604	997.904	1045.7319	1069.9855	1082.0304	1137.35	1143.631	1190.9402	1196.1935	1268.7821	1288.7196	1311.274	1334.2665	1376.5679	1411.9497	1420.3551	1492.5357	1501.2394	1501.9076	1506.4786	1523.1958	1551.337	1617.774	3030.6256	3034.7792	3040.5832	3060.6696	3082.309	3104.7723	3111.7324	3252.1312	3286.7229	3678.9074
CCCOC1=NC=CN1	CCCOc1ncc[nH]1	
InChI=1S/C6H10N2O/c1-2-5-9-6-7-3-4-8-6/h3-4H,2,5H2,1H3,(H,7,8)	InChI=1S/C6H10N2O/c1-2-5-9-6-7-3-4-8-6/h3-4H,2,5H2,1H3,(H,7,8)
