15
gdb 30448	3.93221	1.23145	0.94322	3.6107	75.79	-0.2269	-0.0413	0.1856	1193.3554	0.113382	-450.172678	-450.164135	-450.163191	-450.206364	30.095	
C	-0.0502501922	 1.3708315014	-0.1259290288	-0.327302
N	 0.0784296343	-0.0703520042	-0.0255730518	-0.308426
C	 0.6223030436	-0.5616278483	 0.9952951759	 0.440258
O	 0.6844711448	-1.9931855898	 0.9652124132	-0.234023
C	 1.2408465282	-2.6231830918	 1.9958333098	 0.533253
N	 1.2401773902	-3.9557738432	 1.8523978663	-0.556764
N	 1.7482367465	-2.0542854652	 3.0577113677	-0.373344
C	 1.6605477431	-0.6926821915	 3.0299279623	 0.069932
N	 1.1503132642	 0.0582140031	 2.1032201693	-0.317869
H	 0.4565773213	 1.7105265934	-1.0368037944	 0.12264
H	-1.1100288888	 1.6258926805	-0.2432657196	 0.122638
H	 0.3558746026	 1.9140940884	 0.7337636914	 0.132646
H	 0.8462325841	-4.3775377586	 1.0300431352	 0.284992
H	 1.6406423423	-4.5173897976	 2.5826534697	 0.286626
H	 2.0755181657	-0.1901719066	 3.9023137338	 0.124743
69.4311	108.3488	144.9116	174.0536	223.9142	250.0314	354.5302	419.6629	498.6864	560.3963	575.2235	627.462	743.7412	791.2933	797.9355	926.9503	974.0734	1004.7255	1019.9243	1061.4981	1136.6246	1150.2904	1166.8854	1312.7566	1420.4686	1434.1999	1451.7422	1492.7216	1496.8319	1554.3102	1632.4561	1677.543	1785.5807	3016.8659	3071.8323	3095.042	3150.222	3628.3352	3767.4753
CN=C1OC(N)=NC=N1	C[N]C1=NC=N[C@H](O1)N	
InChI=1S/C4H6N4O/c1-6-4-8-2-7-3(5)9-4/h2H,1H3,(H2,5,6,7,8)	InChI=1S/C4H7N4O/c1-6-4-8-2-7-3(5)9-4/h2-3H,5H2,1H3/t3-/m1/s1
