17
gdb 35868	2.12353	1.76684	1.17581	3.1444	71.98	-0.2638	0.0208	0.2847	1063.7886	0.137661	-417.989879	-417.981948	-417.981003	-418.023227	29.483	
N	 0.0318199369	-1.2539196156	 0.2552119362	-0.330713
C	 0.0277943818	-0.1019920301	 0.1575438842	 0.289325
C	 0.0225911187	 1.3527417738	 0.0148246353	-0.265775
C	-0.6089178378	 2.057578937	 1.2450103212	-0.092849
O	 0.4577054688	 2.2252284902	 2.152313105	-0.237952
C	 1.5828499281	 2.6399803279	 1.3908849068	-0.130042
C	 1.4487734499	 1.9516583873	 0.0258418317	 0.301311
C	 2.5722423748	 1.3416736317	-0.7192635261	-0.282181
N	 2.0137217472	 2.6438021784	-1.1324671647	-0.357429
H	-0.5102662862	 1.6057328193	-0.9074264081	 0.126457
H	-1.0239326998	 3.0265202618	 0.9243827214	 0.103846
H	-1.3921212778	 1.4744583356	 1.731366264	 0.138027
H	 1.588371661	 3.7302929002	 1.2441481749	 0.111715
H	 2.4829368315	 2.3506269451	 1.9382057231	 0.125402
H	 3.5769888682	 1.3842045925	-0.3076786093	 0.129959
H	 2.3668097717	 0.4620665424	-1.3238947111	 0.135221
H	 1.4261045528	 2.5308368326	-1.9549887646	 0.235678
34.2133	141.7245	160.8128	271.0547	314.2903	341.534	403.6672	460.3944	524.9308	566.7113	717.3922	806.0906	841.0797	867.7871	925.9261	931.5404	963.682	974.4812	996.9421	1055.472	1087.5025	1096.1881	1127.486	1140.8875	1196.8984	1219.4597	1257.1624	1274.9334	1292.2192	1330.0619	1342.4527	1383.4047	1413.368	1502.4274	1516.0537	1518.8469	2355.0869	2979.4732	2999.5599	3063.3236	3101.6851	3109.1108	3125.0313	3195.9052	3497.9137
N#CC1COCC11CN1	N#C[C@H]1COC[C@]21CN2	
InChI=1S/C6H8N2O/c7-1-5-2-9-4-6(5)3-8-6/h5,8H,2-4H2	InChI=1S/C6H8N2O/c7-1-5-2-9-4-6(5)3-8-6/h5,8H,2-4H2/t5-,6-/m0/s1
