17
gdb 103042	2.53335	1.65506	1.17631	3.2621	73.09	-0.2569	-0.0001	0.2568	1050.7694	0.136749	-417.921179	-417.913172	-417.912228	-417.953924	30.424	
O	 0.5010955698	 0.5855398909	-0.7996536396	-0.412317
C	-0.0761485332	 0.3314538945	 0.4637362409	-0.161304
C	-1.4213011963	-0.409032845	 0.3274487498	 0.204122
C	-2.2653278513	 0.4367954437	-0.5257444225	 0.233836
N	-2.8426062757	 1.1578082944	-1.2221998702	-0.349914
C	-1.521765454	-1.9517398297	 0.1162200773	-0.088192
C	-1.1118046227	-2.0577916373	 1.5986925962	-0.186572
N	-2.1253147709	-0.889879197	 1.6339924142	-0.176382
C	-2.9472413071	-1.8022369877	 0.6915389298	-0.191681
H	-0.0488785142	 1.2298516274	-1.2606482233	 0.301945
H	 0.6522840536	-0.2692053419	 1.0076058833	 0.123551
H	-0.2491073598	 1.2513979293	 1.0408584343	 0.122095
H	-1.1745570177	-2.5249533786	-0.7476171119	 0.093988
H	-1.4681605972	-2.9308341552	 2.1482471813	 0.116751
H	-0.1010159835	-1.799115678	 1.9083100909	 0.11578
H	-3.7003195328	-1.2723559318	 0.1064170374	 0.140439
H	-3.3754644669	-2.6623433879	 1.208947662	 0.113855
72.2197	144.8467	162.5176	218.5027	320.1454	394.3649	400.8426	501.7602	520.2077	550.3324	643.1038	687.5291	776.8344	786.5739	870.6481	902.2597	918.0537	942.7486	1011.2585	1051.7484	1071.0875	1080.8351	1091.4831	1135.0704	1167.137	1188.2801	1199.1551	1224.2366	1231.9241	1259.3998	1285.4479	1378.5924	1424.4868	1496.9041	1526.5783	1563.8651	2339.969	3007.3944	3069.7656	3079.4301	3091.9361	3132.3084	3146.3369	3161.9781	3795.7616
OCC1(C#N)C2CN1C2	OC[C@@]1(C#N)[C@H]2CN1C2	
InChI=1S/C6H8N2O/c7-3-6(4-9)5-1-8(6)2-5/h5,9H,1-2,4H2	InChI=1S/C6H8N2O/c7-3-6(4-9)5-1-8(6)2-5/h5,9H,1-2,4H2/t6-/m0/s1
