16
gdb 130935	6.2689	0.70169	0.66565	2.3915	72.92	-0.2551	-0.0345	0.2206	1605.8097	0.123569	-437.89153	-437.883118	-437.882173	-437.926607	29.04	
O	-0.3088951859	 0.0548339028	 0.0930974213	-0.22923
C	-0.1054785834	 1.2374389197	 0.0116160657	 0.15633
C	 1.263140884	 1.8789758897	-0.0447276344	-0.271918
C	 1.4068353836	 2.8016378144	-1.2768732585	-0.333958
C	 2.6843420223	 3.569952854	-1.273704423	 0.445366
C	 3.7741647677	 3.5871144255	-2.088811311	-0.341276
C	 4.6244338587	 4.5526059011	-1.4867698164	 0.0385
N	 4.1000813613	 5.0722204319	-0.4054662323	-0.136573
O	 2.861036425	 4.4469476673	-0.2671166898	-0.212941
H	-0.9518933115	 1.9639063092	-0.0291503145	 0.075656
H	 1.386453697	 2.4864154744	 0.8615664957	 0.146966
H	 2.0253123642	 1.0958816185	-0.0401454391	 0.132822
H	 1.359436038	 2.2113615846	-2.1963808919	 0.135261
H	 0.5645992929	 3.5050824689	-1.3023239971	 0.136138
H	 3.9439344033	 3.0045200011	-2.9786054787	 0.122985
H	 5.6015599729	 4.8869610967	-1.8061677262	 0.135871
41.1734	64.1805	71.8476	120.8548	275.7043	305.9241	359.826	511.5527	647.4132	664.9324	732.446	775.3445	815.1493	848.282	919.3816	923.4732	944.3928	988.8645	1017.5565	1053.8866	1069.7237	1086.7963	1184.5338	1213.991	1260.7035	1267.0635	1304.0421	1361.2881	1389.6803	1428.7097	1463.5204	1481.8128	1515.0957	1637.9556	1839.8965	2851.1055	3029.7692	3036.6884	3092.9043	3117.0116	3244.5268	3281.5578
O=CCCC1=CC=NO1	O=CCCc1ccno1	
InChI=1S/C6H7NO2/c8-5-1-2-6-3-4-7-9-6/h3-5H,1-2H2	InChI=1S/C6H7NO2/c8-5-1-2-6-3-4-7-9-6/h3-5H,1-2H2
