19
gdb 89684	2.76382	1.29345	1.04954	3.0148	78.36	-0.2545	-0.0369	0.2176	1205.2965	0.156298	-423.015061	-423.0058	-423.004856	-423.048864	34.223	
C	-0.0771955246	 1.5812508965	 0.0996808948	-0.410775
C	 0.0198019217	 0.0686511702	-0.0414906178	-0.028416
C	 1.1125824991	-0.5241251612	-1.0041462642	-0.325931
C	 1.7144920847	-1.2625928673	 0.1878607067	 0.254786
O	 2.0378612198	-0.2844585236	 1.1964146364	-0.3073
C	 0.68231417	-0.702306121	 1.1257347512	 0.325672
C	 0.0317537852	-1.2405403238	 2.3598455634	-0.500293
C	 2.3940635891	-2.5659216732	 0.2483923143	 0.061747
O	 2.5008386639	-3.3098863748	-0.6976657108	-0.262623
H	 0.894308542	 2.0009914762	 0.3755099767	 0.134808
H	-0.3929954153	 2.0400732614	-0.8428475416	 0.120494
H	-0.8047623428	 1.8656510862	 0.8677003345	 0.115648
H	-0.9584816966	-0.3665247222	-0.2693127623	 0.082484
H	 0.7075423947	-1.2010204578	-1.7575665412	 0.129526
H	 1.784283776	 0.1960773652	-1.477016373	 0.114127
H	-0.288225251	-0.415748381	 3.007128307	 0.139002
H	-0.8541345946	-1.8302345053	 2.1056645534	 0.134336
H	 0.7239688572	-1.8663840413	 2.9277081298	 0.139788
H	 2.7930194615	-2.8206235432	 1.2540570426	 0.082919
96.1211	135.9836	163.1223	183.6898	208.4494	228.3767	278.1758	306.0452	388.2494	464.9831	490.6253	587.8392	618.7449	702.2058	770.2077	794.0984	835.0582	891.2666	916.3044	1003.6008	1027.2914	1069.4522	1082.9468	1105.7723	1119.4125	1182.276	1206.6589	1226.5125	1248.9825	1320.0731	1348.053	1390.2655	1405.8048	1407.8608	1455.9053	1478.2523	1482.061	1493.6244	1496.6443	1503.7131	1801.3487	2900.5453	3033.8672	3036.9523	3058.1843	3075.4588	3097.713	3100.3087	3117.9098	3129.9476	3139.7856
CC1CC2(OC12C)C=O	C[C@H]1C[C@]2(O[C@@]12C)C=O	
InChI=1S/C7H10O2/c1-5-3-7(4-8)6(5,2)9-7/h4-5H,3H2,1-2H3	InChI=1S/C7H10O2/c1-5-3-7(4-8)6(5,2)9-7/h4-5H,3H2,1-2H3/t5-,6-,7-/m0/s1
