19
gdb 90190	4.28877	1.53114	1.37329	1.8268	79.46	-0.2109	0.0799	0.2908	982.634	0.161234	-381.934293	-381.927482	-381.926537	-381.965145	28.329	
C	 0.0744045696	 1.476002188	-0.135172413	-0.323442
N	-0.0299972983	 0.0391029755	 0.0608733537	-0.083696
C	-1.4393544394	-0.4502654809	 0.2790030437	-0.301978
C	-1.1520865062	-1.2704980463	 1.5223224087	 0.261348
C	-1.4423899719	-2.2316152602	 2.6841691771	-0.270035
N	 0.0527550817	-1.9360422892	 2.9143336806	-0.192561
C	 0.252970538	-1.9172478863	 1.3806671216	-0.018395
C	 0.7369558037	-0.4813910726	 1.2253132521	-0.039405
C	-0.1921186803	-0.4777037284	 2.4517237055	-0.021986
H	 1.127123053	 1.7516568717	-0.2558197292	 0.120415
H	-0.4494898919	 1.7634637639	-1.0523466661	 0.121892
H	-0.3422038028	 2.0786376779	 0.6936396687	 0.091844
H	-2.1321305045	 0.3824512531	 0.4547101732	 0.097489
H	-1.7907702654	-1.02720113	-0.5824467578	 0.109646
H	-2.0868661877	-1.8832496574	 3.4973625906	 0.105429
H	-1.6476764099	-3.2799696719	 2.4461625728	 0.106829
H	 0.5116556361	-2.8180066955	 0.823631918	 0.082172
H	 1.780436836	-0.1645859548	 1.21904377	 0.075206
H	-0.4583061898	 0.3002990835	 3.1684112898	 0.079229
128.604	228.9359	296.1464	363.8473	394.1661	464.6541	487.7237	613.1148	711.0213	769.5759	806.5782	817.8234	851.455	860.1497	881.3595	903.9338	938.0244	956.2217	1018.1829	1019.5776	1036.9051	1094.7421	1099.9129	1120.4654	1143.9227	1158.2613	1178.7463	1182.2562	1185.9213	1216.9713	1221.746	1244.2453	1259.761	1303.1846	1326.8191	1351.8382	1455.2623	1488.5461	1505.7698	1514.7562	1517.1925	2929.8953	3019.332	3041.614	3058.6497	3069.2743	3099.4537	3102.3315	3104.6781	3108.6395	3121.4501
CN1CC23CN4C2C1C34	CN1C[C@@]23CN4[C@@H]2[C@@H]1[C@@H]34	
InChI=1S/C7H10N2/c1-8-2-7-3-9-5(7)4(8)6(7)9/h4-6H,2-3H2,1H3	InChI=1S/C7H10N2/c1-8-2-7-3-9-5(7)4(8)6(7)9/h4-6H,2-3H2,1H3/t4-,5-,6+,7-
