21
gdb 58517	2.57521	1.33162	1.24499	1.4923	77.54	-0.2475	0.07	0.3175	1147.6392	0.180336	-424.188209	-424.178798	-424.177854	-424.221775	36.285	
C	 0.1403808893	 1.497713089	-0.1237161921	-0.419776
C	 0.0090166725	-0.0157343007	 0.05928137	 0.082223
O	 0.5567906668	-0.4337518873	 1.312467721	-0.448694
C	-1.4332866893	-0.529847479	 0.0407287604	 0.327058
C	-2.2959975917	 0.0341314977	 1.168709061	-0.469413
C	-2.1637789978	-0.4915686325	-1.3599154234	-0.331402
C	-2.245850457	-2.0218043145	-1.3105743002	 0.034181
O	-0.9005902674	-2.5135761069	-1.2292091447	-0.253972
C	-1.5353792533	-2.0742761347	-0.0252373616	-0.003918
H	 1.1973451181	 1.7860787983	-0.1579119655	 0.104911
H	-0.3192274829	 1.8280269443	-1.0609608577	 0.118482
H	-0.3276140236	 2.0367666312	 0.7046352779	 0.124458
H	 0.5351756869	-0.5220902823	-0.7623007136	 0.081558
H	 1.4929625383	-0.2127030871	 1.3165835703	 0.281771
H	-2.4867146468	 1.1030815448	 1.0313408188	 0.115611
H	-3.2674202198	-0.4712437531	 1.2017545903	 0.108932
H	-1.8017910161	-0.1056124163	 2.133574514	 0.138549
H	-3.1350854241	 0.0061861609	-1.3049005523	 0.104276
H	-1.5976614232	-0.0938048487	-2.2065069663	 0.105252
H	-2.9867162282	-2.6848298295	-1.7420306803	 0.101617
H	-1.5880496007	-2.7778461436	 0.7976872641	 0.098298
86.9808	154.7809	190.9474	234.896	245.8775	253.1772	286.5323	301.7688	337.409	424.8792	441.0509	491.7075	567.8179	674.6362	789.1436	838.5528	860.3386	871.7755	889.5317	920.9938	948.5087	965.5741	992.1097	1032.232	1048.9746	1091.3406	1107.1545	1127.9714	1154.3949	1172.7101	1224.0646	1231.9938	1261.0921	1273.1472	1314.9883	1379.4321	1387.4537	1402.1973	1406.7636	1427.1509	1472.4752	1490.6928	1493.3982	1503.3244	1510.2407	3004.7194	3031.0496	3035.8331	3058.6568	3093.5804	3097.2525	3114.9694	3119.7773	3123.6582	3178.5315	3194.0475	3824.0376
CC(O)C1(C)CC2OC12	C[C@@H](O)[C@@]1(C)C[C@H]2O[C@@H]12	
InChI=1S/C7H12O2/c1-4(8)7(2)3-5-6(7)9-5/h4-6,8H,3H2,1-2H3	InChI=1S/C7H12O2/c1-4(8)7(2)3-5-6(7)9-5/h4-6,8H,3H2,1-2H3/t4-,5-,6-,7-/m1/s1
