17
gdb 124183	4.51903	0.76967	0.69427	2.0566	82.05	-0.2327	0.0238	0.2565	1618.6047	0.136779	-380.868074	-380.858981	-380.858037	-380.904902	31.447	
C	 0.1296033403	 1.5235207545	-0.3389643878	-0.49613
C	 0.0763237595	 0.0821664428	-0.138975321	 0.056133
C	 0.0331123403	-1.1084207757	 0.0326116537	 0.077526
C	-0.029474415	-2.5571140471	 0.2242963446	-0.482166
C	-1.4300846926	-3.1157465342	 0.1823386596	 0.227067
C	-1.9877023136	-4.0538542995	 1.0267875295	-0.134777
N	-3.2509062863	-4.2703918359	 0.5835935451	-0.179603
N	-3.5660726575	-3.5317389686	-0.4962235344	-0.224867
C	-2.4631599292	-2.8313345362	-0.7416814143	-0.070318
H	 0.7202386622	 2.0129322146	 0.4435206147	 0.145921
H	 0.5838715545	 1.7775606954	-1.3031753942	 0.145558
H	-0.8732319599	 1.9644717648	-0.3195551996	 0.148491
H	 0.589409497	-3.0434579874	-0.5436217706	 0.138257
H	 0.4347929334	-2.8213893088	 1.1828328343	 0.128956
H	-1.5894629849	-4.5675242571	 1.8879997789	 0.130732
H	-3.9434463158	-4.887698972	 0.9713820493	 0.273644
H	-2.4394922124	-2.1341580295	-1.5662055679	 0.115573
19.8128	22.1639	69.6073	194.4486	219.6236	284.9879	331.0395	377.7924	450.1014	504.0676	636.3544	692.3938	726.78	769.2075	794.346	887.4878	939.835	953.0346	1008.7171	1053.4462	1054.5436	1064.9232	1160.5897	1168.5226	1212.7161	1242.1153	1293.6014	1352.6275	1391.4198	1415.4406	1422.7412	1468.0978	1479.1011	1479.6314	1493.9031	1612.3615	2376.2943	2998.4085	3025.369	3037.5728	3084.9207	3086.0947	3248.7853	3255.8596	3678.1953
CC#CCC1=CNN=C1	CC#CCc1c[nH]nc1	
InChI=1S/C7H8N2/c1-2-3-4-7-5-8-9-6-7/h5-6H,4H2,1H3,(H,8,9)	InChI=1S/C7H8N2/c1-2-3-4-7-5-8-9-6-7/h5-6H,4H2,1H3,(H,8,9)
