20
gdb 123215	10.24129	0.40357	0.39302	3.9825	78.28	-0.2717	0.0108	0.2824	2620.3564	0.168548	-440.277481	-440.26656	-440.265615	-440.315358	36.444	
O	-0.0501620429	 1.4070508143	 0.0100022222	-0.42098
C	 0.0211821964	-0.0098145622	 0.0019591447	-0.074693
C	-1.4042117575	-0.5466192723	 0.0124972876	-0.17067
C	-1.4586078275	-2.0765552327	 0.0051430728	-0.206765
C	-2.8860032332	-2.6011126052	 0.0158090008	-0.052262
O	-2.8415261405	-4.020636296	 0.0080366609	-0.238878
C	-4.1208311423	-4.5966536764	 0.0171677269	-0.18486
C	-3.995358219	-6.0576849929	 0.0083139684	 0.264389
N	-3.9292714585	-7.2101459287	 0.0015000901	-0.292455
H	 0.8464142278	 1.7543134039	 0.0029824833	 0.287326
H	 0.5504170389	-0.3792118038	-0.891819592	 0.087597
H	 0.5670014973	-0.3884369862	 0.8817990033	 0.087595
H	-1.9151727408	-0.1501227662	 0.8985339865	 0.108718
H	-1.9315845873	-0.1410846152	-0.8597229538	 0.108713
H	-0.949435537	-2.4735343833	-0.8811493306	 0.113868
H	-0.9329627978	-2.4825731939	 0.8776159737	 0.113868
H	-3.4244988343	-2.2456397771	 0.9104149929	 0.095886
H	-3.441146613	-2.2364435054	-0.8648119808	 0.095888
H	-4.6958200849	-4.3006421945	 0.9106239136	 0.138855
H	-4.712679034	-4.2913397964	-0.8620354105	 0.138861
37.0364	67.7976	70.1747	101.219	129.9438	158.3021	158.8965	261.313	265.6372	303.9234	385.8387	427.5401	499.1183	587.6706	755.824	816.3546	946.3276	946.3511	997.8849	1026.9025	1035.2546	1058.7136	1070.5005	1110.2764	1155.3677	1182.5832	1221.5239	1235.35	1253.8972	1288.1744	1298.3437	1314.5988	1322.2567	1371.4825	1394.5701	1449.5539	1467.5313	1491.1997	1494.1277	1502.8581	1527.0217	1531.4688	2374.1769	2956.1783	2960.2757	2968.0666	2985.0286	2986.0993	2991.1217	3027.0036	3037.193	3060.6304	3085.5765	3831.9132
OCCCCOCC#N	OCCCCOCC#N	
InChI=1S/C6H11NO2/c7-3-6-9-5-2-1-4-8/h8H,1-2,4-6H2	InChI=1S/C6H11NO2/c7-3-6-9-5-2-1-4-8/h8H,1-2,4-6H2
