18
gdb 67521	2.43267	1.79697	1.49941	3.6452	75.06	-0.2318	0.0288	0.2606	969.1468	0.148284	-401.932734	-401.925025	-401.924081	-401.96452	30.622	
C	-0.0337325729	 1.5441163007	 0.0109681741	-0.495961
C	 0.0066889078	 0.0356446065	 0.0223991914	 0.182745
C	-1.2261739799	-0.7013128617	 0.6291609885	-0.087257
C	-1.1425763459	-2.1937533323	 0.5150467445	-0.312822
C	-0.316708047	-1.5053158791	 1.5636198337	-0.060444
C	 0.928318019	-0.803028434	 0.9549057624	-0.040347
N	 1.5481343583	-1.3629390715	-0.2474223251	-0.327679
C	 0.7171935467	-0.7077701454	-1.1456606612	 0.357607
O	 0.6272323586	-0.7507616941	-2.3428894462	-0.362728
H	 0.9561058967	 1.967434117	-0.1865189751	 0.127413
H	-0.7115559486	 1.8983122377	-0.7731996508	 0.138672
H	-0.391371396	 1.9368731219	 0.9688904264	 0.119758
H	-2.1559896632	-0.1927430415	 0.8530525515	 0.092998
H	-2.0066358942	-2.7254849691	 0.9006374461	 0.116787
H	-0.6814887217	-2.6708212417	-0.3448192993	 0.127668
H	-0.4362124398	-1.7116016146	 2.6199583132	 0.089851
H	 1.6138287141	-0.3336041731	 1.6610996084	 0.088261
H	 2.1076769381	-2.1934639856	-0.3853644626	 0.245476
130.5484	196.7834	217.2287	252.5909	260.5338	360.4882	445.5943	501.6936	553.9065	668.2824	686.3395	733.5683	766.1543	782.1753	840.9807	890.2198	900.1173	936.4408	963.4622	987.7611	1018.2049	1038.1655	1059.4062	1089.6687	1109.5055	1132.8069	1169.8655	1198.3981	1213.6436	1249.0437	1294.7753	1326.7345	1345.632	1371.6398	1410.0695	1489.7419	1492.1364	1495.4593	1882.2603	3030.1023	3097.6943	3104.4936	3107.3893	3123.1321	3180.5796	3188.8079	3206.9604	3588.1011
CC12C3CC3C1NC2=O	C[C@]12[C@H]3C[C@H]3[C@H]1NC2=O	
InChI=1S/C7H9NO/c1-7-4-2-3(4)5(7)8-6(7)9/h3-5H,2H2,1H3,(H,8,9)	InChI=1S/C7H9NO/c1-7-4-2-3(4)5(7)8-6(7)9/h3-5H,2H2,1H3,(H,8,9)/t3-,4+,5-,7+/m1/s1
