14
gdb 130131	3.21582	1.46277	1.00731	4.7169	69.49	-0.2178	-0.0336	0.1842	1084.9728	0.104358	-466.226202	-466.218595	-466.217651	-466.258239	29.102	
N	 0.0394370234	 1.363847355	-0.239374459	-0.573739
C	-0.0305783727	-0.0055059141	-0.0163586526	 0.490216
N	-1.1472355935	-0.6297109892	-0.1701670896	-0.31721
N	-1.0722736168	-2.0069446895	-0.0407116942	-0.302948
C	-0.0042102738	-2.7645739994	 0.3317818536	 0.387568
O	-0.0425409624	-3.9734293109	 0.4726569339	-0.379423
C	 1.2707224157	-1.9829977086	 0.539695079	 0.290136
N	 2.3815698548	-2.5004652673	 0.8663533477	-0.519332
N	 1.1542472777	-0.6171459367	 0.3130954796	-0.392604
H	 0.5130452498	 1.8789691994	 0.4930077471	 0.258168
H	-0.8811092415	 1.7453718748	-0.4147559464	 0.269925
H	-1.9494390138	-2.4833367623	-0.1903311633	 0.273111
H	 2.2387434583	-3.5076940394	 0.9647721733	 0.248152
H	 2.0128711546	-0.0840427918	 0.3259114808	 0.267979
116.1165	126.8743	309.8614	327.6522	336.5256	361.0416	421.542	484.7029	530.4343	570.6966	615.0803	643.5561	661.5951	712.9587	764.8384	788.8487	829.5564	916.0286	1004.6703	1079.6649	1161.396	1245.1581	1295.3565	1328.8484	1428.3347	1450.9335	1540.9749	1634.8187	1718.6151	1740.6102	1788.7431	3473.8932	3536.387	3599.4466	3623.6253	3638.5773
NC1=NNC(=O)C(=N)N1	NC1=NNC(=O)[C]([NH])N1	
InChI=1S/C3H5N5O/c4-1-2(9)7-8-3(5)6-1/h(H,7,9)(H4,4,5,6,8)	InChI=1S/C3H5N5O/c4-1-2(9)7-8-3(5)6-1/h(H,7,9)(H4,4,5,6,8)
