17
gdb 10897	2.94237	2.02607	1.5341	4.1132	68.27	-0.2413	-0.008	0.2333	892.3261	0.141065	-363.855516	-363.847526	-363.846582	-363.887554	29.659	
C	-0.0552411357	 1.6433620353	-0.0111393858	-0.416839
C	 0.0708950122	 0.1266272045	 0.0590626598	-0.185398
C	 1.1352822935	-0.6064335264	-0.7790418703	 0.398273
O	 1.4221274596	-0.6542484397	-1.934281655	-0.301654
N	 1.6766970366	-1.3709738367	 0.3328463075	-0.212095
C	 2.1731431859	-0.3244991153	 1.2870449721	-0.289992
C	 0.7261766011	-0.5822232227	 1.2574065826	 0.333204
C	-0.0257349972	-1.2635962367	 2.3605343691	-0.489606
H	 0.8851785941	 2.1432104009	 0.23787513	 0.122939
H	-0.3364580089	 1.9484344884	-1.0234560959	 0.141545
H	-0.8243860544	 2.0065320341	 0.67778098	 0.123919
H	-0.8978320662	-0.3403577247	-0.1593571334	 0.112695
H	 2.75228371	-0.7571467021	 2.0968182031	 0.13584
H	 2.5950315271	 0.5897016724	 0.8772037806	 0.131458
H	-0.4477237967	-0.5262360224	 3.0529164677	 0.129094
H	-0.8507956945	-1.8634021265	 1.9626695274	 0.130478
H	 0.6325463636	-1.9245350327	 2.9311061505	 0.136139
115.9364	176.8968	187.6898	195.2407	240.3359	284.4695	361.571	488.2425	521.5467	624.3541	652.2419	703.9278	726.6682	803.2754	886.0618	949.9561	1001.5362	1007.9266	1052.9099	1071.9713	1104.7333	1125.6463	1142.2729	1155.6706	1214.3428	1285.3356	1343.0287	1392.6284	1409.8275	1427.6516	1484.1818	1492.3577	1494.5394	1496.4673	1516.2509	1914.2864	3032.8382	3038.9387	3040.6063	3096.0365	3109.1682	3114.1139	3116.0928	3117.5806	3203.0361
CC1C(=O)N2CC12C	C[C@H]1C(=O)N2C[C@@]12C	
InChI=1S/C6H9NO/c1-4-5(8)7-3-6(4,7)2/h4H,3H2,1-2H3	InChI=1S/C6H9NO/c1-4-5(8)7-3-6(4,7)2/h4H,3H2,1-2H3/t4-,6-,7?/m0/s1
