21
gdb 73373	2.40914	2.11231	1.56781	1.4992	80.34	-0.2329	0.0831	0.3161	953.9379	0.185778	-387.09093	-387.083896	-387.082951	-387.121769	30.032	
C	-0.0011218469	 1.4656395718	 0.0064846026	-0.496925
C	 0.0174621145	-0.0514908879	 0.0235330938	 0.297091
C	 0.7460446214	-0.715101266	-1.1561003962	-0.106774
O	 0.7942206711	-2.1047265489	-0.7992455211	-0.284405
C	 0.5169351644	-2.1565752813	 0.5866146477	 0.146601
C	-0.9715419059	-1.9258886433	 1.0452220268	-0.071409
C	-0.3711458485	-1.1442304826	 2.2456434198	-0.255208
C	 0.723920918	-0.7648217153	 1.2250048383	-0.091829
C	-1.3742372497	-0.7690698876	 0.1121901871	-0.249281
H	 1.0135494099	 1.877078595	-0.0422413889	 0.114279
H	-0.5564124445	 1.847176893	-0.8581485817	 0.116398
H	-0.481032026	 1.8643789193	 0.9064795833	 0.11779
H	 0.2095857609	-0.605792285	-2.1055565019	 0.099922
H	 1.7671534177	-0.3227145348	-1.2855925195	 0.084137
H	 1.0173258775	-3.0125233846	 1.0403229177	 0.078679
H	-1.6782260782	-2.7446997668	 1.1816202161	 0.059939
H	-0.9790803278	-0.3479467821	 2.6839157877	 0.093082
H	 0.0132998722	-1.7928997207	 3.0371305337	 0.098564
H	 1.705604163	-0.3862486811	 1.5128947145	 0.059783
H	-2.1461457826	-0.1352783557	 0.5601646443	 0.090221
H	-1.7286026806	-1.1015111455	-0.8675422741	 0.099344
214.3702	227.611	255.7041	317.6799	406.2864	423.3673	455.8136	581.1226	602.9827	696.5229	754.199	802.9959	823.2161	861.9453	870.097	928.3015	938.8449	954.545	974.5411	988.4552	1011.8739	1025.183	1043.4727	1061.7649	1079.4679	1090.8965	1168.5412	1173.3979	1181.2479	1208.2668	1219.6037	1231.9658	1243.3772	1269.0318	1279.3134	1303.368	1323.54	1348.8574	1396.7158	1411.6469	1492.6817	1494.6185	1495.3951	1512.9932	1524.7818	2976.6544	3023.2935	3046.0325	3054.5662	3056.6283	3086.3456	3092.7941	3095.6887	3103.7617	3108.738	3110.0208	3122.1362
CC12COC3C(CC13)C2	C[C@@]12CO[C@@H]3[C@@H](C[C@H]13)C2	
InChI=1S/C8H12O/c1-8-3-5-2-6(8)7(5)9-4-8/h5-7H,2-4H2,1H3	InChI=1S/C8H12O/c1-8-3-5-2-6(8)7(5)9-4-8/h5-7H,2-4H2,1H3/t5-,6-,7+,8+/m0/s1
