20
gdb 61207	1.77542	1.40005	0.95106	3.9313	81.68	-0.2406	0.0322	0.2728	1319.7279	0.168006	-403.142766	-403.132148	-403.131203	-403.179255	37.625	
C	-0.0755319174	 1.5987461411	 0.0204206178	-0.402815
C	-0.0126708018	 0.0673071902	-0.0462245396	 0.010199
C	-1.4383356532	-0.5442633583	 0.0460502449	-0.363066
C	-1.4348431027	-1.9994921389	 0.0685417771	 0.291606
C	-1.3969338315	-3.2005221306	 0.0870829269	-0.424972
N	 0.7220597812	-0.4090468043	-1.210275599	-0.022936
C	 0.2700057328	-0.0805622433	-2.552840726	-0.355199
C	 1.7940816235	-1.245925648	-1.0624019704	 0.162393
O	 2.4498931903	-1.7215909711	-1.9644934599	-0.347698
H	 0.9281878594	 2.0264174761	-0.0484328878	 0.129274
H	-0.6823389923	 2.0160640312	-0.7890692925	 0.125627
H	-0.5218080673	 1.918305533	 0.9668337138	 0.123872
H	 0.5467037801	-0.2915693536	 0.8244445383	 0.104753
H	-1.9153501978	-0.1574419557	 0.9549044123	 0.134665
H	-2.0485371278	-0.1820737848	-0.7908326308	 0.132927
H	-1.3730182808	-4.2621205273	 0.0994604722	 0.201568
H	 0.2685585403	 1.0011120606	-2.7217698284	 0.124163
H	 0.9653167789	-0.5505262812	-3.2483213318	 0.172136
H	-0.73702573	-0.4683453546	-2.7434742411	 0.128714
H	 2.0148938762	-1.4408748005	 0.004530544	 0.074787
36.104	58.9655	102.8342	145.3341	183.9701	231.8899	265.7529	292.9265	329.1636	345.3087	357.4185	405.9233	496.9291	552.9382	626.6743	635.8688	650.0806	843.3019	884.6817	905.1113	975.7974	1020.0315	1025.8064	1083.4519	1104.7247	1127.8905	1158.7148	1217.6719	1273.8054	1303.8243	1343.0288	1357.875	1408.0558	1435.3206	1440.1669	1456.6312	1468.8138	1491.8166	1500.3516	1507.9581	1515.6122	1795.1134	2240.8194	2945.4056	3025.3013	3032.0559	3042.7849	3048.7056	3063.8456	3085.8995	3112.748	3122.86	3156.2049	3505.7309
CC(CC#C)N(C)C=O	C[C@@H](CC#C)N(C)C=O	
InChI=1S/C7H11NO/c1-4-5-7(2)8(3)6-9/h1,6-7H,5H2,2-3H3	InChI=1S/C7H11NO/c1-4-5-7(2)8(3)6-9/h1,6-7H,5H2,2-3H3/t7-/m0/s1
