17
gdb 29873	3.18164	1.36704	0.96369	7.4632	80.81	-0.2021	-0.0005	0.2016	1177.8783	0.138132	-418.062781	-418.05456	-418.053615	-418.095372	31.46	
C	 0.0418675596	 1.4916635937	 0.0014397871	-0.359132
N	 0.0026491043	 0.0361294631	 0.011386931	-0.126928
C	-0.0739393851	-0.6663084238	-1.1739836139	 0.028012
C	-0.0562444646	-2.0127818912	-1.2304239606	-0.283022
C	 0.0380223248	-2.8307294442	-0.0160228536	 0.385779
O	 0.0585796861	-4.0596063506	-0.0316333606	-0.415033
C	 0.0812619429	-2.0340251795	 1.1997732405	-0.351755
C	 0.0691826731	-0.6705966851	 1.1969955479	 0.428892
N	 0.1999718952	 0.10439163	 2.3530315645	-0.585333
H	 0.8617975239	 1.8549355676	 0.6257433939	 0.161584
H	 0.199896214	 1.831943694	-1.0220966248	 0.148235
H	-0.8974987739	 1.9307470582	 0.3621981457	 0.134504
H	-0.1434988984	-0.044445589	-2.0587430249	 0.123452
H	-0.1136864215	-2.5173932841	-2.1869630691	 0.10744
H	 0.1167375463	-2.5616728874	 2.1464342159	 0.089467
H	 0.1791546095	-0.465905029	 3.1872764524	 0.261627
H	-0.4640913063	 0.8642473673	 2.4346776886	 0.25221
102.8283	151.4437	196.9523	232.1407	319.3678	358.8441	362.3907	428.9801	461.1404	518.2801	583.7133	630.0036	713.25	742.163	761.2376	776.3217	824.8236	864.0554	937.9084	948.7113	1045.6319	1130.9941	1148.3851	1169.6771	1238.6635	1244.2466	1269.9995	1343.6877	1426.8732	1468.2815	1485.7504	1495.1591	1528.8267	1595.7602	1652.813	1694.4037	1730.1496	3016.9516	3098.1642	3150.0483	3191.0162	3194.0509	3217.8539	3541.1636	3639.7228
CN1C=CC(=O)C=C1N	Cn1ccc(=O)cc1N	
InChI=1S/C6H8N2O/c1-8-3-2-5(9)4-6(8)7/h2-4H,7H2,1H3	InChI=1S/C6H8N2O/c1-8-3-2-5(9)4-6(8)7/h2-4H,7H2,1H3
