16
gdb 43222	2.96881	1.84397	1.62672	2.3472	66.84	-0.227	-0.0298	0.1972	863.0405	0.127212	-437.849038	-437.842751	-437.841806	-437.879567	25.866	
O	 0.0095225501	 0.0325923974	 0.2048654487	-0.314243
C	 0.0035817868	 1.2275189647	 0.1475895537	 0.452683
C	-1.1092371509	 2.2941324284	-0.0276121565	-0.193289
N	-1.4265586591	 2.8803917565	 1.2759512458	-0.273457
C	-0.1702353181	 3.1812879504	 1.9944379243	-0.204249
C	 0.9248533563	 3.4761053125	 0.9651112092	 0.092713
O	 0.3293060299	 4.3451008121	-0.0440121889	-0.298843
C	 0.00500273	 3.1646053797	-0.7820468699	 0.109165
C	 1.0714889739	 2.2863743314	-0.0645414417	-0.231847
H	-2.0118636919	 2.00969807	-0.5693798182	 0.095162
H	-1.9028437046	 3.7607248883	 1.1026000766	 0.23369
H	-0.3306879545	 4.0424128127	 2.6484732825	 0.117466
H	 0.1192388101	 2.3286435383	 2.6225822577	 0.123302
H	 1.8509880577	 3.8850560485	 1.3736966123	 0.094462
H	-0.0806408759	 3.3082873787	-1.8589324483	 0.097959
H	 2.0707884602	 2.0513025505	-0.4257060374	 0.099327
134.7711	276.4275	325.2374	412.8952	469.4445	537.8101	588.0538	667.5956	739.5348	768.07	779.2667	825.105	841.2649	863.9165	918.6344	925.0501	989.1111	1022.2936	1044.6099	1057.8446	1077.2426	1099.6784	1131.4025	1138.091	1193.1743	1228.2502	1237.3821	1255.9747	1307.2304	1316.1076	1338.1033	1369.7742	1480.9586	1489.2098	1888.8688	3024.4125	3091.961	3100.3267	3110.9581	3120.9873	3140.1326	3512.4988
O=C1C2NCC3OC2C13	O=C1[C@H]2NC[C@@H]3O[C@H]2[C@H]13	
InChI=1S/C6H7NO2/c8-5-3-2-1-7-4(5)6(3)9-2/h2-4,6-7H,1H2	InChI=1S/C6H7NO2/c8-5-3-2-1-7-4(5)6(3)9-2/h2-4,6-7H,1H2/t2-,3-,4+,6-/m0/s1
