18
gdb 61995	4.06037	0.79477	0.7654	7.1263	73.19	-0.2425	0.0134	0.256	1499.7627	0.146495	-435.301949	-435.291668	-435.290724	-435.338374	36.046	
C	 0.3077665744	 1.2712920715	 0.8549658361	-0.387157
C	 0.0543577235	-0.0757175317	 0.1432372945	-0.107295
N	 0.6211526992	-1.2747085033	 0.7674413959	-0.276211
C	 2.0701089186	-1.3211465328	 0.8172169913	-0.278304
C	 2.654626166	-0.7631091137	 2.1274173898	 0.410026
N	 4.0042961971	-0.5878530365	 2.1324151291	-0.520641
O	 1.9493803255	-0.5240801999	 3.0892231108	-0.359967
C	-1.395550698	-0.2863431216	-0.019951663	 0.278038
N	-2.5365981124	-0.4229390052	-0.1370566595	-0.319621
H	 1.3792747113	 1.4844612061	 0.8863843463	 0.121972
H	-0.1890834726	 2.0859561716	 0.3201599841	 0.131275
H	-0.0644468615	 1.2400038589	 1.8811289971	 0.151954
H	 0.4718363582	-0.0174256112	-0.8710679015	 0.128419
H	 0.2759803633	-1.350634469	 1.7218597835	 0.241831
H	 2.4065281352	-2.3654331553	 0.7374877002	 0.135546
H	 2.4980358925	-0.7955039676	-0.0442640395	 0.118858
H	 4.5818912682	-0.8766043894	 1.3617465347	 0.2636
H	 4.4525681413	-0.3415673709	 3.0003375001	 0.267677
36.7731	48.0008	93.5754	163.553	218.3008	229.8729	245.6411	258.7615	333.9668	367.6243	471.8033	486.6098	559.6926	567.4352	630.651	652.2841	747.1204	803.62	864.6087	918.9317	990.5042	1066.4791	1085.8799	1097.3234	1161.4496	1169.7488	1268.6597	1302.9686	1329.175	1352.3341	1393.9001	1408.0214	1472.8635	1484.0547	1490.2398	1527.3329	1620.7377	1797.4596	2362.9895	3001.1532	3023.1818	3049.0476	3063.9353	3122.0907	3141.5337	3497.2995	3595.9194	3728.7289
CC(NCC(N)=O)C#N	C[C@@H](NCC(=O)N)C#N	
InChI=1S/C5H9N3O/c1-4(2-6)8-3-5(7)9/h4,8H,3H2,1H3,(H2,7,9)	InChI=1S/C5H9N3O/c1-4(2-6)8-3-5(7)9/h4,8H,3H2,1H3,(H2,7,9)/t4-/m1/s1
