21
gdb 75577	2.37006	1.47369	1.0921	2.0171	85.9	-0.2345	0.0043	0.2388	1197.5149	0.183655	-387.082374	-387.073658	-387.072714	-387.115869	33.684	
C	-0.2553103404	 1.5802626846	 0.1156663424	-0.475479
C	-0.0171694556	 0.0978641683	-0.0283260112	 0.32466
C	 0.0725334431	-0.466522647	-1.2372214265	-0.175597
C	 0.3504908492	-1.9197048666	-1.5107659052	-0.115767
O	 1.7469523814	-2.2134294736	-1.5973750213	-0.255492
C	 2.5095956915	-1.7601294052	-0.4792892396	-0.111131
C	 1.9994339571	-2.2725174183	 0.8469339986	-0.094128
C	 0.9574071911	-1.8125660828	 1.5422987633	-0.024954
C	 0.0234082002	-0.6479199736	 1.2993486635	-0.342921
H	 0.5674729433	 2.0600044097	 0.6614737024	 0.126326
H	-0.3568595921	 2.0722848566	-0.8546566909	 0.12251
H	-1.1663893111	 1.7780726884	 0.6958234583	 0.123769
H	 0.0184192591	 0.1832113248	-2.1084613967	 0.079312
H	-0.1222357735	-2.5558043557	-0.751682509	 0.095778
H	-0.0522082814	-2.2108358489	-2.4850370002	 0.104264
H	 3.5185557295	-2.1381517555	-0.6640160861	 0.103868
H	 2.5612881502	-0.6646240022	-0.4728431907	 0.096638
H	 2.5099627739	-3.1464121039	 1.2450981661	 0.087548
H	 0.7231973533	-2.3307139047	 2.4725220624	 0.087917
H	 0.219434321	 0.0871650878	 2.0944373775	 0.116736
H	-0.9980546599	-0.9961937123	 1.5221468329	 0.126142
46.5798	139.575	220.8267	255.8187	274.5621	282.4512	349.761	370.4747	440.0409	467.8575	544.5156	597.3384	689.2396	731.0624	794.7491	865.8335	883.543	918.4533	937.6895	977.7427	1016.4533	1018.0709	1042.9906	1065.1224	1083.3429	1093.2658	1111.6828	1187.9492	1257.8817	1261.1808	1293.0152	1312.8899	1352.3478	1383.0288	1397.514	1403.9095	1413.2328	1433.2277	1460.5666	1481.5468	1490.3389	1499.015	1504.9493	1721.124	1734.7538	2981.3842	3002.1475	3013.9369	3019.7247	3026.7696	3059.0243	3084.7553	3089.9453	3116.0828	3116.8069	3142.7407	3154.6098
CC1=CCOCC=CC1	CC1=CCOCC=CC1	
InChI=1S/C8H12O/c1-8-4-2-3-6-9-7-5-8/h2-3,5H,4,6-7H2,1H3/b3-2-,8-5-	InChI=1S/C8H12O/c1-8-4-2-3-6-9-7-5-8/h2-3,5H,4,6-7H2,1H3/b3-2-,8-5-
