20
gdb 62036	4.0587	0.65853	0.6141	4.8867	80.32	-0.2752	0.0361	0.3112	1811.03	0.169565	-403.146723	-403.136774	-403.13583	-403.18297	35.045	
C	-0.0156531537	 1.5775767053	-0.1207764757	-0.390771
C	-0.050756199	 0.0477500595	 0.0695579695	-0.145595
C	 0.806220469	-0.4505274639	 1.2577705671	-0.175446
C	 2.3135321821	-0.2398054473	 1.0606333471	-0.240166
C	 3.1072801833	-0.8043847707	 2.2145366347	 0.096345
C	 4.3332469415	-0.1703110062	 2.7125132315	-0.18136
O	 3.1001612432	-0.0380473887	 3.4222824238	-0.233895
C	-1.4371118945	-0.4042668111	 0.2355464014	 0.264815
N	-2.5286170128	-0.7579628162	 0.3754912123	-0.322357
H	 1.0004895548	 1.9121979049	-0.3421113305	 0.128424
H	-0.6613604572	 1.8810243235	-0.948270595	 0.139401
H	-0.3586164329	 2.0864082759	 0.7846304571	 0.140857
H	 0.3247242949	-0.4262592443	-0.8476582974	 0.124287
H	 0.4833488786	 0.0571236743	 2.173318717	 0.1345
H	 0.6083736548	-1.518229121	 1.4057936282	 0.118487
H	 2.64021989	-0.7273454465	 0.1316607908	 0.104048
H	 2.5471591248	 0.8258183219	 0.9676801348	 0.111222
H	 2.9918871854	-1.8782741539	 2.3774027163	 0.095166
H	 5.0953016717	-0.7726938458	 3.2048052823	 0.118429
H	 4.6977813859	 0.7391800804	 2.236129545	 0.113607
41.0698	64.0892	97.8034	126.6817	192.1854	210.8889	248.9387	298.979	354.5791	413.7202	459.7351	557.8903	584.9568	763.0987	788.6296	834.0719	874.1552	916.4546	955.2977	956.3246	1043.7642	1047.7069	1067.7558	1107.7325	1126.1132	1159.84	1164.0042	1181.8089	1230.3549	1271.8516	1296.7243	1315.1207	1339.3432	1344.7588	1389.6911	1413.497	1448.0685	1471.7549	1492.4542	1496.2482	1503.1226	1530.7922	2356.2195	3017.6818	3019.3864	3041.5263	3051.6241	3069.0406	3082.0143	3086.0983	3096.984	3127.3103	3131.7543	3168.9441
CC(CCC1CO1)C#N	C[C@@H](CC[C@H]1CO1)C#N	
InChI=1S/C7H11NO/c1-6(4-8)2-3-7-5-9-7/h6-7H,2-3,5H2,1H3	InChI=1S/C7H11NO/c1-6(4-8)2-3-7-5-9-7/h6-7H,2-3,5H2,1H3/t6-,7-/m0/s1
