17
gdb 79995	2.28147	2.07013	1.65992	2.039	71.44	-0.2259	-0.004	0.2218	895.0997	0.136214	-421.805348	-421.797916	-421.796972	-421.83645	30.882	
O	-0.260461899	 1.3794392355	-0.1339515499	-0.442931
C	-0.135118715	-0.0134104118	 0.0127358175	 0.090579
C	 0.2557233047	-0.5857057736	 1.4298538352	-0.185578
C	-0.9532971909	-0.0748367666	 2.230360489	-0.061605
C	-2.015997132	-0.1507511845	 1.4342172689	-0.147811
C	-1.5369708145	-0.703088362	 0.074670656	 0.349784
O	-2.3855396259	-0.5385770022	-1.0232764775	-0.523935
C	-1.0405980485	-2.1329376324	 0.288192563	-0.099301
C	 0.0250674447	-2.0661337145	 1.0899504372	-0.093532
H	 0.5569897574	 1.7195548562	-0.5075709903	 0.288326
H	 0.4861236282	-0.4398301703	-0.7826143959	 0.074304
H	 1.2390788446	-0.3315352967	 1.8257028926	 0.058717
H	-0.9085734777	 0.2390429688	 3.26436112	 0.099816
H	-3.0527151729	 0.0726921514	 1.6468727094	 0.101206
H	-2.4344619557	 0.4102573821	-1.1903100498	 0.282751
H	-1.514299838	-2.9969958077	-0.1568981174	 0.108242
H	 0.6331870204	-2.8809831016	 1.4587612122	 0.10097
202.4259	218.9034	251.1141	340.5619	358.0493	389.837	437.2974	471.6545	545.4789	597.3241	650.018	682.5166	727.0168	760.1169	808.4525	810.7283	888.121	903.2003	923.4551	940.7508	958.4556	998.159	1049.5563	1069.6263	1081.7316	1127.1425	1175.9188	1215.8536	1246.0875	1256.3673	1283.8384	1293.9345	1339.1057	1383.8779	1432.1309	1615.1347	1659.782	3049.7852	3113.023	3210.525	3213.2809	3236.9114	3240.1057	3792.4163	3841.2618
OC1C2C=CC1(O)C=C2	O[C@H]1[C@H]2C=C[C@]1(O)C=C2	
InChI=1S/C7H8O2/c8-6-5-1-3-7(6,9)4-2-5/h1-6,8-9H	InChI=1S/C7H8O2/c8-6-5-1-3-7(6,9)4-2-5/h1-6,8-9H/t5-,6-,7-/m0/s1
