19
gdb 119321	2.21429	1.20726	0.92037	2.2493	71.91	-0.2467	-0.0357	0.211	1316.9051	0.15659	-460.14317	-460.133276	-460.132332	-460.179076	34.379	
O	-0.0904801566	 1.6137724547	-0.1639501041	-0.422068
C	 0.0329911625	 0.2000185451	-0.2290193957	-0.088467
C	-1.3158946091	-0.3857365356	 0.1777581731	-0.235261
C	-1.3798689251	-1.8993546752	 0.0390836457	 0.316845
C	-2.8065255081	-2.5285331299	-0.0121873358	-0.339939
C	-2.432813361	-2.9144027133	-1.4553883852	-0.068261
O	-1.1045884078	-2.3662670046	-1.3077763338	-0.321716
C	-0.4839820668	-2.6341519473	 1.0278781319	 0.12464
O	-0.1603154	-2.212377787	 2.1074768996	-0.25123
H	 0.7572491763	 1.9981928891	-0.4046677146	 0.286303
H	 0.2814604704	-0.1365308357	-1.2462195318	 0.103512
H	 0.8187403562	-0.1626472616	 0.4498693104	 0.100878
H	-1.5276631006	-0.1236613646	 1.2196509831	 0.12742
H	-2.0919226265	 0.067414042	-0.4480418152	 0.105765
H	-2.9703450836	-3.3692208561	 0.6650035781	 0.1223
H	-3.6168116404	-1.8087598653	 0.1076947069	 0.127959
H	-2.4079208985	-3.9881360829	-1.6721954132	 0.111428
H	-2.9977508913	-2.4053859754	-2.2449504785	 0.112344
H	-0.1680913	-3.6381704465	 0.662652179	 0.087546
63.4006	71.0868	92.3373	106.9154	153.5391	246.7406	255.1508	273.4233	342.7642	404.9091	436.0266	524.948	760.8062	781.9738	821.2176	857.9178	911.0904	935.7812	968.4162	1012.324	1028.5086	1040.1075	1067.3295	1109.137	1162.0741	1164.3833	1206.7123	1231.2973	1249.9482	1257.2755	1286.9286	1325.4923	1337.3489	1354.8703	1400.405	1459.32	1472.4413	1487.7908	1531.3951	1532.2981	1828.2705	2878.707	2987.8678	3021.9121	3026.5062	3048.3814	3068.0183	3079.6095	3099.09	3138.1479	3832.9054
OCCC1(CCO1)C=O	OCC[C@]1(CCO1)C=O	
InChI=1S/C6H10O3/c7-3-1-6(5-8)2-4-9-6/h5,7H,1-4H2	InChI=1S/C6H10O3/c7-3-1-6(5-8)2-4-9-6/h5,7H,1-4H2/t6-/m0/s1
