17
gdb 126045	3.73273	1.04001	1.0363	3.9696	74.19	-0.2444	-0.0093	0.2351	1220.4729	0.137168	-417.976096	-417.968201	-417.967257	-418.009261	29.297	
C	-0.1255978376	 1.5197183049	-0.1970475434	-0.399115
C	-0.0309652708	 0.0298505225	 0.0085505632	 0.020586
N	 1.2931929232	-0.5904815695	-0.1379072244	-0.337654
C	 0.6482608843	-0.6055386585	 1.1863240192	-0.201585
C	 1.323679284	 0.1570273043	 2.2559414887	 0.194722
C	 2.5166196228	 0.8109807251	 2.2168903054	-0.002612
O	 2.7892972098	 1.3768200297	 3.4017304849	-0.164576
N	 1.751616212	 1.0990688426	 4.2849822818	-0.132753
C	 0.8976714951	 0.382246842	 3.5982647029	-0.059178
H	 0.7181940335	 2.0346945152	 0.2671130127	 0.130832
H	-0.1252858519	 1.7600537806	-1.2652650282	 0.123523
H	-1.0509170453	 1.9113744633	 0.2386932406	 0.119591
H	-0.8775594832	-0.535575372	-0.3802130939	 0.087238
H	 1.2246858925	-1.5036374296	-0.577415985	 0.236224
H	 0.2086458223	-1.5447697594	 1.5190559601	 0.090117
H	 3.2491120928	 0.9409512584	 1.4371223539	 0.164892
H	-0.0067704537	 0.0403574304	 4.0827235815	 0.129746
58.0347	114.5571	159.8838	199.9942	283.0215	384.5774	425.4473	519.7256	620.1568	651.2954	724.2706	788.5305	851.0231	867.585	900.809	911.4579	931.4393	943.474	990.5205	1017.3716	1034.2724	1076.5232	1141.2768	1144.9987	1181.6558	1193.7649	1245.9028	1249.3278	1292.5563	1347.356	1402.6068	1436.0649	1460.9687	1485.9552	1490.0501	1499.8864	1655.4663	3039.5331	3101.1318	3103.0278	3114.6894	3134.1942	3237.7285	3282.878	3514.6007
CC1NC1C1=CON=C1	C[C@H]1N[C@H]1c1conc1	
InChI=1S/C6H8N2O/c1-4-6(8-4)5-2-7-9-3-5/h2-4,6,8H,1H3	InChI=1S/C6H8N2O/c1-4-6(8-4)5-2-7-9-3-5/h2-4,6,8H,1H3/t4-,6-/m1/s1
