16
gdb 60718	3.33361	1.09405	0.84977	13.1541	71.19	-0.1989	-0.0746	0.1243	1293.6552	0.123369	-471.210465	-471.201103	-471.200159	-471.245507	33.249	
C	-0.3829973955	 1.4921778303	 0.1009830982	-0.394062
N	-0.0809471896	 0.0539444337	 0.0354499779	-0.048979
C	 0.3217532432	-0.5932634933	 1.0927157579	 0.224105
N	 0.4824824962	-0.0530754623	 2.2943471379	-0.50413
H	 0.8354461451	-0.6120828242	 3.0524041533	 0.303604
H	 0.2656561327	 0.9134779172	 2.4793028829	 0.295838
C	-0.2671667974	-0.7236342323	-1.205627314	 0.1664
N	-0.4280021789	-1.9636635279	-1.0434277929	-0.465312
C	-0.1684168371	-0.0188996495	-2.6326554471	 0.346189
O	-0.3234566097	-0.852620641	-3.5256694053	-0.432144
O	 0.0628197985	 1.2025363514	-2.6313009539	-0.470254
H	 0.4541628284	 2.0233609905	 0.5665793958	 0.133575
H	-0.4819322331	 1.8281218813	-0.9362230039	 0.242911
H	-1.2966247426	 1.6486231231	 0.6853433034	 0.135049
H	 0.5158194819	-1.6533611616	 0.9609100981	 0.205269
H	-0.4854724321	-2.3381575456	-2.0002871382	 0.261941
36.8442	66.6053	143.5708	205.3625	237.4855	286.2562	342.7628	363.1036	380.7512	411.9582	443.9292	463.7001	598.6237	650.0892	694.8538	770.083	801.3519	889.5741	1009.6072	1026.5512	1050.9875	1094.184	1156.9459	1237.6751	1305.4632	1311.0351	1337.4719	1412.2944	1425.9402	1483.4442	1523.2349	1629.551	1698.3685	1745.752	1817.2286	2997.7049	3089.9276	3095.6377	3203.5514	3382.6748	3604.501	3726.2854
CN(C=[NH2+])C(=N)C([O-])=O	CN(C=[NH2])C(=N)C(=O)[O]	
InChI=1S/C4H7N3O2/c1-7(2-5)3(6)4(8)9/h2,5-6H,1H3,(H,8,9)	InChI=1S/C4H7N3O2/c1-7(2-5)3(6)4(8)9/h2,6H,5H2,1H3
