18
gdb 51643	3.79205	1.0162	0.99973	5.019	74.06	-0.2555	0.0247	0.2802	1255.8726	0.148059	-439.072167	-439.06405	-439.063106	-439.106032	30.	
N	-0.7938325031	 1.2145024682	 0.5285068037	-0.440716
C	-0.413624229	 0.0536497462	 0.2097612523	 0.123823
O	-1.3056586322	-0.9477837098	 0.1026582858	-0.179997
C	-0.7928167309	-2.2639479105	-0.1243279659	 0.098586
C	-0.6319921587	-3.0471281403	 1.2064831935	-0.259916
C	-1.8941781461	-3.8762042192	 1.3247955928	 0.056113
O	-3.0933380996	-3.1164140385	 1.1445466455	-0.24395
C	-2.6010183428	-3.8779855534	 0.0374545349	 0.05078
C	-1.8255116922	-3.0495276196	-0.9665876603	-0.261247
H	 0.0019472715	 1.8491328285	 0.5324186089	 0.226906
H	 0.6182238709	-0.2521697887	-0.0194389548	 0.078456
H	 0.1650536426	-2.1771882179	-0.6498906932	 0.083414
H	 0.2399168296	-3.7107115406	 1.1597439146	 0.105164
H	-0.4899606322	-2.3627735785	 2.0474151829	 0.129138
H	-1.9566544827	-4.6939583728	 2.0386165826	 0.095914
H	-3.2353410535	-4.697621683	-0.2907408516	 0.095677
H	-2.4556578196	-2.3591341266	-1.5324172249	 0.135822
H	-1.3200517021	-3.7127813935	-1.6779173968	 0.106033
42.4275	89.5501	108.644	247.5163	303.6078	355.2174	413.4746	435.7333	590.9261	675.9393	771.2134	813.1685	821.3253	858.7194	863.2913	901.1963	953.6145	957.8767	964.2093	1034.8028	1044.122	1056.9477	1095.527	1109.0762	1133.6015	1191.0411	1236.6023	1239.302	1269.6358	1296.8941	1321.2405	1332.9517	1360.9481	1390.0292	1431.6708	1448.4459	1461.1378	1472.6886	1744.5685	3001.1854	3030.417	3043.0222	3053.4604	3100.9233	3111.1644	3140.6328	3153.3577	3517.1432
N=COC1CC2OC2C1	[NH][CH]O[C@H]1C[C@H]2O[C@H]2C1	
InChI=1S/C6H9NO2/c7-3-8-4-1-5-6(2-4)9-5/h3-7H,1-2H2	InChI=1S/C6H9NO2/c7-3-8-4-1-5-6(2-4)9-5/h3-7H,1-2H2/t4-,5+,6-
