18
gdb 22253	2.23907	1.37337	1.0123	6.079	76.25	-0.1776	-0.0336	0.144	1212.9017	0.144719	-472.367608	-472.357982	-472.357038	-472.401533	36.527	
C	 0.4337159707	 0.7604183897	-0.2572022369	-0.413795
C	-0.1892431019	-0.5145099206	 0.3243436828	 0.021464
O	 0.2548250782	-0.7134075111	 1.6889632132	-0.445948
C	-1.6971502624	-0.5192019184	 0.2937741168	 0.266504
N	-2.2303038818	-1.2929269231	-0.6696591025	-0.103439
O	-3.4891789284	-1.3053625026	-0.8556838991	-0.430129
C	-2.4796060211	 0.2407868741	 1.2155110066	 0.359806
N	-3.7981504714	 0.2781317613	 1.047153044	-0.540399
N	-1.8871402798	 0.9168781024	 2.232515438	-0.552384
H	-2.4660504294	 1.2711988743	 2.977864877	 0.249851
H	-0.9586489572	 0.5863810857	 2.4755967609	 0.279464
H	 1.5296966247	 0.7128767089	-0.2228486251	 0.100585
H	 0.1380817346	 0.8739182152	-1.3038401241	 0.138133
H	 0.1090325355	 1.6490545341	 0.2925420961	 0.122337
H	 0.117707671	-1.37204962	-0.2863875762	 0.10186
H	 1.2134459893	-0.6233170914	 1.6978314484	 0.285766
H	-4.0946936634	-0.3321309344	 0.240438103	 0.313941
H	-4.4046155172	 0.6887792758	 1.7385369172	 0.246385
85.2838	119.0257	172.5746	241.5571	281.5453	307.5502	320.4372	346.7628	363.7564	399.9863	425.1216	444.0231	468.334	531.1952	536.4625	664.4512	695.2679	766.5805	783.5986	892.8545	920.416	997.6692	1077.6821	1098.7479	1107.5263	1128.5179	1207.6642	1257.8461	1281.6967	1340.643	1360.4476	1405.3175	1418.1255	1486.8947	1490.2023	1501.017	1546.3864	1649.5446	1660.255	2859.6185	3022.1068	3036.772	3094.5035	3123.1121	3489.825	3642.5464	3659.1739	3813.7347
CC(O)C(=N[O-])C(N)=[NH2+]	C[C@@H](O)C(=N[O])C(=[NH2])N	
InChI=1S/C4H9N3O2/c1-2(8)3(7-9)4(5)6/h2,8-9H,1H3,(H3,5,6)	InChI=1S/C4H9N3O2/c1-2(8)3(7-9)4(5)6/h2,8H,5-6H2,1H3/t2-/m1/s1
