20
gdb 93515	2.37358	1.50021	1.12653	5.331	75.29	-0.2492	0.0505	0.2997	1154.6657	0.172073	-440.345831	-440.336869	-440.335925	-440.379452	33.783	
C	-0.0847961109	 1.6154817095	-0.0802377608	-0.399133
C	 0.0060299215	 0.0855022126	-0.0058966194	-0.025949
C	 0.7640831368	-0.4945001334	-1.1984622587	-0.077787
O	 2.1333031303	-0.0714621515	-1.2216475079	-0.245422
C	 2.8544517375	-0.078967193	-0.067405239	 0.462213
O	 4.048061121	 0.0899663033	-0.0979048834	-0.394954
N	 2.1456983276	-0.2462261061	 1.0934076137	-0.370853
C	 0.7097028041	-0.4599469903	 1.2511645304	 0.063988
C	 0.235091871	 0.1410213393	 2.5734969759	-0.420624
H	 0.9012465109	 2.0824490377	-0.0151454538	 0.144481
H	-0.5335531546	 1.9195540486	-1.0310086365	 0.119265
H	-0.7069471637	 2.0202622685	 0.7219552525	 0.11946
H	-1.0071789197	-0.3340404423	-0.0250419557	 0.083369
H	 0.7276696557	-1.5922845195	-1.1815009061	 0.1086
H	 0.3443141935	-0.1553213323	-2.1487872903	 0.118733
H	 2.7335138654	-0.2778070144	 1.9113642365	 0.252653
H	 0.5025784872	-1.5418587585	 1.2869721262	 0.082619
H	 0.4361048079	 1.2142575962	 2.6211932616	 0.134698
H	-0.8391070633	-0.0220900446	 2.7037607363	 0.124033
H	 0.7463844616	-0.3374685799	 3.4159245585	 0.120612
82.3812	101.8531	187.3464	200.8899	243.9535	288.62	317.5235	366.3289	433.4711	498.4083	511.1866	562.9532	595.9939	734.503	763.8007	799.3262	852.7007	891.071	966.8412	987.8937	1011.1303	1044.5678	1066.0086	1101.6208	1147.884	1164.5977	1223.4444	1265.3019	1292.7216	1315.9051	1347.5104	1381.6026	1393.0782	1412.0202	1416.5363	1439.5886	1459.7026	1491.4502	1497.533	1500.469	1507.9492	1517.2375	1843.7124	2956.0661	3014.9302	3037.6943	3040.2869	3048.048	3096.763	3102.9598	3111.8309	3126.2885	3128.8496	3638.9563
CC1COC(=O)NC1C	C[C@H]1COC(=O)N[C@H]1C	
InChI=1S/C6H11NO2/c1-4-3-9-6(8)7-5(4)2/h4-5H,3H2,1-2H3,(H,7,8)	InChI=1S/C6H11NO2/c1-4-3-9-6(8)7-5(4)2/h4-5H,3H2,1-2H3,(H,7,8)/t4-,5-/m0/s1
