16
gdb 42696	4.2696	1.67409	1.53822	3.9052	71.36	-0.2308	-0.0141	0.2167	865.5544	0.127136	-400.684996	-400.679223	-400.678279	-400.714976	24.533	
O	 0.0718084732	 0.0022320203	 0.1209764486	-0.324188
C	-0.0084458236	 1.1853271136	-0.0238060269	 0.47385
C	-1.1211975305	 2.2231431036	 0.0325655424	-0.205968
C	-0.1042235316	 3.1503607415	 0.8309930047	-0.060844
C	-0.360862254	 4.3589183313	-0.1258864465	-0.073041
C	 0.9068843884	 4.4992351456	-0.9624056291	-0.179288
N	 0.746423	 3.0383121357	-1.3266889939	-0.145054
C	-0.7917370909	 3.2271790133	-1.0958023495	 0.002516
C	 0.9833152724	 2.3569745234	-0.0246767329	-0.157263
H	-2.1532752436	 2.0215175014	 0.3058746788	 0.093343
H	-0.0413097965	 3.1917152928	 1.9144244703	 0.090953
H	-0.9956392402	 5.1758200194	 0.2148838277	 0.078892
H	 0.7663586403	 5.1083862672	-1.8600807676	 0.115124
H	 1.8561391411	 4.7548970965	-0.4808506318	 0.106725
H	-1.3673731787	 3.3402720135	-2.0116179467	 0.092321
H	 2.0300538944	 2.2493733009	 0.2493299524	 0.091921
148.4689	329.6775	412.3505	532.5767	562.5406	665.6643	709.5973	739.9341	768.1764	802.0481	830.5799	848.2018	879.6859	897.8094	920.9571	947.9048	960.007	996.7239	1016.0676	1036.4402	1056.9391	1096.6079	1132.4076	1150.2932	1169.4525	1173.2375	1191.1729	1215.822	1222.2081	1247.8125	1269.6827	1276.9076	1296.0078	1498.3435	1900.1898	3046.9675	3106.1946	3124.249	3143.0161	3152.7039	3161.502	3169.0659
O=C1C2C3C4CN(C24)C13	O=C1[C@H]2[C@@H]3[C@H]4CN([C@@H]24)[C@H]13	
InChI=1S/C7H7NO/c9-7-4-3-2-1-8(5(2)4)6(3)7/h2-6H,1H2	InChI=1S/C7H7NO/c9-7-4-3-2-1-8(5(2)4)6(3)7/h2-6H,1H2/t2-,3+,4+,5-,6+/m1/s1
