23
gdb 59661	2.36879	1.24618	1.02168	2.0636	81.32	-0.2403	0.0653	0.3056	1307.2221	0.202881	-425.419873	-425.409316	-425.408372	-425.455053	39.491	
C	 0.0079169932	 1.5698558968	-0.0274882402	-0.408265
C	-0.0267238823	 0.0685599685	 0.2623412384	 0.116858
O	 0.3425862489	-0.2094900858	 1.61432238	-0.433714
C	-1.3815144463	-0.5472191369	-0.0643347871	-0.092173
C	-1.8173853881	-0.6748153764	-1.536581248	-0.100725
O	-2.1368858652	-2.0663231239	-1.375929733	-0.325363
C	-1.5756810121	-2.0964921941	-0.024425479	 0.423362
C	-0.309486923	-2.9451710799	 0.0040173278	-0.433798
C	-2.6098489045	-2.5928881001	 0.9748721341	-0.432726
H	 0.9853859382	 1.9834349439	 0.2347091027	 0.12638
H	-0.1834579938	 1.7761169808	-1.0858186452	 0.122172
H	-0.7566094298	 2.0965795799	 0.557648675	 0.106824
H	 0.7500676409	-0.422430275	-0.334526027	 0.09083
H	-0.2804191313	 0.2512268647	 2.1878011408	 0.276033
H	-2.1467509828	-0.0475671243	 0.5427396048	 0.060115
H	-2.6843703583	-0.0824985578	-1.8510830012	 0.099714
H	-1.0065090902	-0.5197215124	-2.2641184477	 0.091079
H	 0.382470103	-2.6511204522	-0.7897608316	 0.114067
H	 0.2027196332	-2.8449724187	 0.9648439323	 0.134093
H	-0.5675900846	-3.9970380934	-0.1541737742	 0.114181
H	-2.865211443	-3.638763049	 0.7756512706	 0.121769
H	-2.2172352957	-2.5235505461	 1.9952982408	 0.116571
H	-3.5266418064	-1.9997063783	 0.910716357	 0.112717
62.5755	94.1147	151.2311	198.6281	227.3357	247.5762	250.5471	286.9583	298.2214	338.3253	360.8066	391.7408	453.7764	473.8785	528.1316	661.0538	769.218	858.2935	889.4544	923.0668	939.564	970.3604	997.8215	1002.0181	1027.6185	1062.8954	1069.9588	1108.3747	1156.7717	1174.237	1178.1983	1209.89	1265.398	1271.6282	1294.7025	1330.0736	1350.4875	1396.1717	1402.9644	1408.1067	1411.3415	1418.9874	1476.5485	1483.0046	1490.4497	1494.7244	1496.0996	1508.3069	1525.5082	2985.7049	3020.1895	3023.8623	3031.3415	3041.7482	3049.058	3056.3918	3093.7327	3103.7983	3110.5372	3112.595	3118.2581	3125.7647	3794.2706
CC(O)C1COC1(C)C	C[C@@H](O)[C@H]1COC1(C)C	
InChI=1S/C7H14O2/c1-5(8)6-4-9-7(6,2)3/h5-6,8H,4H2,1-3H3	InChI=1S/C7H14O2/c1-5(8)6-4-9-7(6,2)3/h5-6,8H,4H2,1-3H3/t5-,6-/m1/s1
