17
gdb 76450	3.18479	0.97985	0.92366	2.1559	64.78	-0.2457	-0.0272	0.2185	1293.3755	0.132798	-496.075017	-496.065667	-496.064723	-496.109963	34.063	
O	-0.0291933682	 1.3588959076	 0.0578003771	-0.436445
C	 0.0011134044	-0.0339235053	-0.0362113012	 0.000176
C	-0.3884488181	-0.767034179	 1.2357338981	-0.010896
O	-0.780207229	 0.0389297369	 2.307037368	-0.43692
C	-1.3350483815	-0.7551227394	 0.0480415718	 0.32043
O	-2.4357537078	 0.1028531685	 0.1854938542	-0.478761
C	-1.6176317673	-2.0016047113	-0.7603235588	-0.349043
C	-1.9886776163	-1.6866623256	-2.1987539689	 0.161708
O	-1.4824068158	-2.209877769	-3.1575361606	-0.238419
H	-0.9336951258	 1.6209833154	-0.1732582066	 0.297364
H	 0.7960322833	-0.4214637047	-0.6667217518	 0.11627
H	 0.1126217164	-1.6865356472	 1.5243981062	 0.108441
H	-0.3966966442	 0.913080422	 2.1299391198	 0.299103
H	-2.5167870818	 0.2722035782	 1.138728331	 0.296631
H	-0.7544704996	-2.6733334456	-0.7645829034	 0.123623
H	-2.4637175803	-2.5297521083	-0.2980095902	 0.130557
H	-2.7838999083	-0.9180578134	-2.3110015647	 0.096181
43.3365	67.2633	137.7876	211.0764	237.9364	283.9123	293.3659	359.0053	427.9634	443.4954	460.6333	582.3682	619.1343	685.4221	700.9925	720.2401	818.255	854.7779	879.0611	1016.727	1019.8966	1061.2187	1074.5151	1126.3282	1149.5176	1196.7913	1220.4842	1284.2726	1306.2875	1322.761	1368.7913	1378.3973	1385.6306	1424.3068	1445.5204	1454.8104	1833.1544	2902.3434	3017.6988	3100.8218	3147.4522	3156.1464	3672.6495	3689.9627	3709.2123
OC1C(O)C1(O)CC=O	O[C@H]1[C@@H](O)[C@]1(O)CC=O	
InChI=1S/C5H8O4/c6-2-1-5(9)3(7)4(5)8/h2-4,7-9H,1H2	InChI=1S/C5H8O4/c6-2-1-5(9)3(7)4(5)8/h2-4,7-9H,1H2/t3-,4+,5-
