15
gdb 32509	2.1891	1.49849	0.89451	1.637	75.78	-0.2213	-0.0059	0.2154	1218.6667	0.111552	-420.614041	-420.605478	-420.604534	-420.647834	31.148	
O	-0.0315241768	 1.3947889665	 0.0080992624	-0.419441
C	 0.0017890624	-0.0228877604	 0.0017180992	-0.212698
C	-1.4033581871	-0.525794666	 0.0120833497	 0.147094
C	-2.5435519334	 0.205957881	 0.0240599094	-0.083157
O	-3.6398538594	-0.6084900561	 0.0307077739	-0.14371
C	-3.1908276933	-1.8805217003	 0.0227749991	-0.112469
C	-1.8232062809	-1.9113630122	 0.0113337439	 0.03186
C	-0.9863394384	-3.0501618239	 0.0007401758	 0.255021
C	-0.2457513961	-4.0002110422	-0.0084341398	-0.470036
H	 0.8745742819	 1.7151065715	 0.0010578391	 0.292837
H	 0.5251343114	-0.4112397337	-0.8874410221	 0.109214
H	 0.5408662545	-0.4188989619	 0.8779952828	 0.109221
H	-2.7340377473	 1.2643434464	 0.0291113755	 0.15766
H	-3.9367710871	-2.6574512712	 0.0265235805	 0.148996
H	 0.3968494097	-4.8452431675	-0.0164347995	 0.189606
54.6425	109.9283	169.5255	214.6171	215.1735	267.5692	392.8	469.3778	547.8687	555.431	594.1732	614.3496	658.0801	667.2402	729.8865	764.3465	787.7407	903.3279	1047.2104	1071.4422	1085.344	1158.9685	1184.6273	1221.3863	1243.8843	1253.3957	1309.1728	1364.7006	1472.3311	1514.2151	1568.9875	1643.1451	2232.6991	2963.6223	2981.0116	3282.4442	3304.2192	3504.0619	3842.5061
OCC1=COC=C1C#C	OCc1cocc1C#C	
InChI=1S/C7H6O2/c1-2-6-4-9-5-7(6)3-8/h1,4-5,8H,3H2	InChI=1S/C7H6O2/c1-2-6-4-9-5-7(6)3-8/h1,4-5,8H,3H2
