19
gdb 63297	1.81277	1.70631	1.10406	2.7598	76.91	-0.2463	-0.0347	0.2117	1167.2698	0.155443	-423.050284	-423.040732	-423.039788	-423.08484	35.043	
C	-0.3120661868	 1.5072706355	 0.1643577329	-0.434695
C	-0.0239832147	 0.0074880237	 0.0452883374	 0.295083
C	-1.2929720665	-0.7803270149	-0.2668593979	-0.45612
C	 1.1894139557	-0.2576083503	-0.9178923626	-0.378327
C	 2.0728789628	-0.4942439515	 0.3070954809	 0.382505
O	 3.2506447077	-0.5322050293	 0.5075674297	-0.289324
C	 0.8338824883	-0.569046309	 1.2313715437	-0.245892
C	 0.9146339324	 0.051267943	 2.6004784532	 0.144222
O	 0.1047487355	 0.8095091826	 3.0709233102	-0.247356
H	 0.5969317881	 2.0784519113	 0.3814626414	 0.115898
H	-0.7199985742	 1.8794266044	-0.7818767182	 0.111125
H	-1.0263099522	 1.7125092495	 0.9632713404	 0.1456
H	-1.7526545069	-0.4278479067	-1.196708105	 0.121179
H	-1.0839745355	-1.84974546	-0.3822305195	 0.109496
H	-2.0304593563	-0.6645077695	 0.5343109449	 0.131536
H	 1.0840621158	-1.1764046516	-1.5058041026	 0.130415
H	 1.4949874076	 0.5531739262	-1.5845998898	 0.132519
H	 0.6223998343	-1.6386899958	 1.3861147239	 0.130266
H	 1.8166890548	-0.2589339076	 3.1726553371	 0.101868
53.7669	89.2719	159.5341	203.9292	234.1193	263.3058	280.1884	330.0523	368.6742	372.8097	428.552	546.5142	599.7261	639.5318	708.3274	800.8244	828.7133	908.5355	931.2333	962.3604	998.1399	1004.6398	1051.7282	1069.6433	1115.3876	1136.8337	1182.6544	1215.5962	1243.4104	1276.3796	1319.1793	1405.2854	1415.7323	1423.9943	1441.053	1482.8053	1486.6104	1502.3876	1505.098	1816.8447	1889.2637	2892.4947	3004.2236	3024.9933	3034.0225	3048.5433	3091.2862	3094.8377	3100.188	3109.2733	3139.2561
CC1(C)CC(=O)C1C=O	CC1(C)CC(=O)[C@H]1C=O	
InChI=1S/C7H10O2/c1-7(2)3-6(9)5(7)4-8/h4-5H,3H2,1-2H3	InChI=1S/C7H10O2/c1-7(2)3-6(9)5(7)4-8/h4-5H,3H2,1-2H3/t5-/m1/s1
