19
gdb 126198	1.92355	1.70784	0.97393	3.3588	79.	-0.2246	0.0119	0.2365	1241.254	0.158807	-419.222868	-419.213236	-419.212292	-419.257719	34.818	
C	 0.1427040251	 1.5209414714	-0.2082928519	-0.36943
C	 0.0273921637	 0.0027991166	 0.0224898156	-0.324655
C	-1.3841684299	-0.4986892713	 0.058622707	 0.024415
C	-2.1770848554	-0.8113699634	 1.1213885676	 0.36381
C	-1.9639115873	-0.7818197641	 2.5939610646	-0.494568
O	-3.3821574222	-1.2372727752	 0.701880546	-0.227416
N	-3.4220923379	-1.204786329	-0.7000154418	-0.23853
C	-2.2342571466	-0.7778100183	-1.0624757372	 0.340538
N	-1.8740421185	-0.7105418633	-2.4013397268	-0.591712
H	 1.1910167699	 1.8329959612	-0.2488788653	 0.116514
H	-0.3315345726	 1.8234361485	-1.1485815288	 0.110765
H	-0.3499268149	 2.0765066275	 0.5954153525	 0.123479
H	 0.5738247214	-0.5260747592	-0.7687056242	 0.115352
H	 0.5316478999	-0.25510381	 0.9604001791	 0.107494
H	-2.6168157146	-0.0438324956	 3.0726883516	 0.147752
H	-2.189127741	-1.756552281	 3.038300466	 0.149855
H	-0.9284924071	-0.5245532102	 2.8266288846	 0.13556
H	-2.6702524581	-0.807960894	-3.0183678316	 0.258386
H	-1.323777154	 0.1025184194	-2.6400381169	 0.252389
60.6871	78.7846	135.2321	177.743	188.1713	268.9291	273.7714	291.8857	360.6334	437.451	493.3196	579.4252	620.169	670.4752	698.6271	762.8227	775.8744	809.012	934.0072	969.2744	995.1143	1022.0828	1060.5928	1082.0251	1143.8748	1155.6097	1232.6524	1299.314	1314.0297	1364.7453	1410.5322	1412.2516	1472.5036	1477.7127	1488.3073	1493.9588	1500.1876	1504.8171	1558.2189	1642.7147	1693.3155	3025.8691	3032.2396	3040.2146	3062.3936	3096.5836	3098.9889	3112.0495	3132.6194	3549.2258	3647.2962
CCC1=C(C)ON=C1N	CCc1c(C)onc1N	
InChI=1S/C6H10N2O/c1-3-5-4(2)9-8-6(5)7/h3H2,1-2H3,(H2,7,8)	InChI=1S/C6H10N2O/c1-3-5-4(2)9-8-6(5)7/h3H2,1-2H3,(H2,7,8)
