19
gdb 69160	2.12141	1.70248	1.39087	2.584	76.43	-0.2347	-0.0123	0.2224	1051.9001	0.156728	-423.024738	-423.015415	-423.014471	-423.058205	35.329	
C	-0.0010492395	 1.5311889267	 0.0345089516	-0.492021
C	 0.006648223	 0.0316858348	-0.0038232044	 0.322776
C	-0.8392771947	-0.8418500889	 0.8470449195	-0.346424
C	 0.6693441489	-0.9563742356	 1.0279865539	-0.231855
C	 1.2623941282	-1.6857237072	-0.118684407	 0.376346
O	 2.1795752655	-2.4541451068	-0.2477861217	-0.349055
C	 0.5634330519	-0.7898525284	-1.1927430936	 0.233077
C	-0.3868803042	-1.384826605	-2.2194602065	-0.456795
O	 1.5911734723	-0.0463215795	-1.8356985964	-0.477638
H	 0.9518516445	 1.9268035899	-0.3240001951	 0.147308
H	-0.7955782142	 1.9323880301	-0.605533576	 0.127493
H	-0.1774346489	 1.8968754031	 1.0507735773	 0.118777
H	-1.3322016835	-0.3458086892	 1.6778884471	 0.127768
H	-1.4059152769	-1.6737948076	 0.4406837843	 0.122728
H	 1.1423435724	-0.7649102461	 1.9837044907	 0.11123
H	-1.2344578286	-1.8998177807	-1.7594321074	 0.116252
H	-0.7687244112	-0.5955278966	-2.8744003366	 0.128468
H	 0.1493767713	-2.1105651034	-2.8399269593	 0.127448
H	 2.2854256939	-0.6740068797	-2.0719458804	 0.294116
82.3085	174.5017	189.1217	204.6952	239.5159	253.2198	283.7984	316.5163	358.2286	404.5826	483.5427	520.0608	585.0941	680.3738	698.7747	736.6391	779.8236	894.7685	920.8829	962.161	975.3113	992.9722	1044.1203	1070.9791	1092.2759	1110.3266	1134.7365	1161.801	1206.4542	1249.8224	1292.9831	1336.5285	1392.4438	1404.5353	1420.6672	1480.758	1485.6121	1487.7277	1501.3826	1507.3174	1859.1917	3033.3772	3038.3338	3094.714	3106.4379	3117.8723	3123.7909	3129.201	3190.0677	3202.8839	3782.2613
CC12CC1C(=O)C2(C)O	C[C@]12C[C@H]1C(=O)[C@]2(C)O	
InChI=1S/C7H10O2/c1-6-3-4(6)5(8)7(6,2)9/h4,9H,3H2,1-2H3	InChI=1S/C7H10O2/c1-6-3-4(6)5(8)7(6,2)9/h4,9H,3H2,1-2H3/t4-,6-,7-/m0/s1
