23
gdb 119571	2.94838	1.01528	0.87138	1.7148	86.06	-0.2429	0.0791	0.322	1468.9788	0.204289	-388.269799	-388.259942	-388.258998	-388.304861	36.852	
C	 0.1812479779	 1.5826698175	 0.1316439901	-0.382551
C	 0.1671932708	 0.0544333529	 0.0531060336	-0.16331
C	 0.5338258821	-0.4712501006	-1.344549866	-0.314105
C	 0.5646235816	-1.9663701517	-1.4298012662	 0.431276
O	 1.660609441	-2.6525684384	-0.7966965321	-0.297849
C	 1.4173989648	-2.8964451314	-2.1909503363	-0.051932
C	 0.3097096248	-3.9495240822	-2.2782613951	-0.26474
C	-0.6166483408	-2.9731546823	-1.4605583866	-0.03767
C	-1.1698342822	-3.4629162479	-0.1294333809	-0.409799
H	 1.1722647898	 1.9823249551	-0.1110179903	 0.115881
H	-0.5333733475	 2.0237131453	-0.572566583	 0.112067
H	-0.0816226284	 1.9320730233	 1.1348419689	 0.112809
H	 0.8713253327	-0.3647118533	 0.7809816887	 0.115511
H	-0.8255406744	-0.3179607714	 0.3346082292	 0.100252
H	-0.1825951702	-0.0870057018	-2.0831355447	 0.096366
H	 1.5212789041	-0.0883305925	-1.6306103866	 0.105278
H	 2.239465107	-2.7038514368	-2.8721341068	 0.096879
H	-0.0503749301	-4.1252734142	-3.2948938871	 0.101386
H	 0.5456650239	-4.9057333479	-1.8035015881	 0.106085
H	-1.4196029509	-2.5940236562	-2.1019376936	 0.070867
H	-0.3513741351	-3.7669046397	 0.52906727	 0.132613
H	-1.7486244004	-2.6841526273	 0.378665272	 0.113419
H	-1.8303100105	-4.3247998885	-0.2740285791	 0.111268
62.3465	83.2351	106.6738	184.1726	235.0755	244.1056	255.8679	307.2036	325.805	373.4278	475.2262	563.9697	701.5968	711.5974	740.8347	788.4609	858.55	864.6928	891.2165	905.1552	942.1549	954.5378	1006.5228	1042.7277	1048.5578	1079.025	1102.8881	1116.6906	1127.4003	1188.1049	1199.6807	1223.9097	1251.2996	1264.4705	1290.1003	1312.0623	1334.5836	1359.1603	1386.0654	1403.6	1412.478	1454.1936	1470.0477	1482.1333	1491.8705	1494.61	1499.498	1504.9993	1509.4637	3014.3855	3027.8135	3030.0735	3033.1984	3048.3235	3051.9724	3060.6383	3071.5052	3093.4249	3097.7387	3102.8583	3115.348	3118.9874	3174.2271
CCCC12OC1CC2C	CCC[C@]12O[C@H]1C[C@H]2C	
InChI=1S/C8H14O/c1-3-4-8-6(2)5-7(8)9-8/h6-7H,3-5H2,1-2H3	InChI=1S/C8H14O/c1-3-4-8-6(2)5-7(8)9-8/h6-7H,3-5H2,1-2H3/t6-,7+,8-/m1/s1
