18
gdb 22111	3.08264	1.15054	1.02527	2.6051	72.63	-0.2175	-0.0093	0.2083	1217.1253	0.146745	-472.331082	-472.321373	-472.320429	-472.366012	35.155	
N	-0.0827725564	 1.245946528	-0.2616636622	-0.50733
C	-0.2209144495	-0.1523074916	-0.4864624374	 0.293913
N	 1.0416926777	-0.8042235469	-0.4036205517	-0.508276
H	 1.6898572874	-0.4181345358	-1.0847003968	 0.245913
H	 0.9476741872	-1.7935958373	-0.6077758327	 0.247464
C	-1.4026999049	-0.8546487958	 0.2612656216	-0.399885
C	-2.0025410392	-1.1097313729	-1.1049684464	 0.244418
C	-3.2058592559	-1.7565681813	-1.7081477046	-0.177751
O	-2.9545070677	-2.2002261099	-3.0230509965	-0.426101
N	-1.0474933841	-0.5181805902	-1.775457622	 0.286308
O	-0.8224490793	-0.3042466332	-2.9972464145	-0.564032
H	 0.5987173829	 1.6504747628	-0.8972221578	 0.245274
H	-0.9634207823	 1.7250307929	-0.4168480087	 0.245394
H	-1.101077789	-1.7375800454	 0.8335555916	 0.125763
H	-1.9591554296	-0.1834392886	 0.9230708599	 0.124505
H	-3.5029043623	-2.6255209826	-1.1060679604	 0.120387
H	-4.0590359481	-1.0518522628	-1.6686819103	 0.104011
H	-2.3450479268	-1.5609616894	-3.4296043611	 0.300023
52.4544	87.7796	129.646	183.8841	188.761	231.1212	297.9012	320.0665	374.6315	409.1416	483.6197	546.9043	576.8912	667.0394	684.131	732.028	798.1001	845.6512	895.8076	949.6412	974.5899	996.1721	1059.7062	1075.1435	1087.714	1115.3417	1186.8642	1225.7362	1256.807	1336.8175	1370.803	1404.1303	1441.9957	1492.2076	1497.7118	1502.7566	1643.827	1682.3889	1706.0215	2912.3678	3030.5873	3047.2224	3089.149	3502.317	3506.6484	3584.9522	3588.7458	3639.7152
NC(=[NH2+])CC(CO)=N[O-]	NC1(N)C[C](CO)N1[O]	
InChI=1S/C4H9N3O2/c5-4(6)1-3(2-8)7-9/h8-9H,1-2H2,(H3,5,6)	InChI=1S/C4H9N3O2/c5-4(6)1-3(2-8)7(4)9/h8H,1-2,5-6H2
