15
gdb 47618	2.91542	1.45581	1.00113	6.6316	76.74	-0.2706	-0.0701	0.2005	1120.0967	0.114521	-416.843335	-416.835708	-416.834764	-416.875707	28.371	
N	-0.0625980767	 1.2689511799	 0.2752955104	-0.505251
C	-0.0039782912	 0.0343578488	-0.0019525717	 0.356494
O	 1.1746548167	-0.6099990196	-0.2256936766	-0.25337
C	 1.1352262186	-1.8571536395	-0.9326500473	-0.093199
C	 0.1391758738	-2.8270708712	-0.3084326251	-0.274966
C	-1.1735963819	-2.1343847221	-0.1137454132	-0.149657
C	-1.2337029042	-0.7951536495	-0.0102755748	 0.093572
C	-2.4881300483	-0.1270963283	 0.1534598456	 0.259021
N	-3.5294895202	 0.3618047946	 0.273884359	-0.331607
H	 0.8717334896	 1.6818960881	 0.2565008768	 0.231366
H	 0.8681264184	-1.6677222009	-1.9803353942	 0.123596
H	 2.1565369674	-2.2403975973	-0.8992304684	 0.130945
H	 0.0208477404	-3.7035391318	-0.9551207784	 0.131902
H	 0.5109694367	-3.1998730977	 0.6563482625	 0.144854
H	-2.0823261091	-2.7235742134	-0.0501187145	 0.1363
88.8386	159.0719	167.4912	266.6644	329.1283	373.9528	446.7883	516.7111	528.6585	575.0646	621.7298	735.3892	773.8042	888.6084	901.658	912.4905	933.7795	971.7728	1066.3334	1079.8987	1133.0706	1166.3887	1230.2593	1263.943	1306.8547	1365.6763	1390.9143	1437.5738	1461.0027	1508.6021	1671.7404	1730.8675	2354.5026	3016.9405	3029.2653	3073.0056	3118.5934	3193.811	3478.2168
N=C1OCCC=C1C#N	[NH]C1=C([CH]CCO1)C#N	
InChI=1S/C6H6N2O/c7-4-5-2-1-3-9-6(5)8/h2,8H,1,3H2	InChI=1S/C6H6N2O/c7-4-5-2-1-3-9-6(5)8/h2,8H,1,3H2
