19
gdb 73709	2.71905	1.91457	1.32824	2.0054	73.85	-0.2455	0.0649	0.3105	978.6875	0.161428	-422.977822	-422.970904	-422.96996	-423.008672	29.394	
O	 0.1503334345	 1.394620849	 0.1294533251	-0.499511
C	 0.1011203165	 0.0087324513	 0.037362138	 0.484946
C	 1.1017354216	-0.6193606321	 0.9949092393	-0.284846
C	 1.4496479018	-2.0472622094	 0.552388947	-0.211003
C	 0.1914315254	-2.7965241812	 0.0861005415	-0.243671
C	-0.6936078055	-1.8768135468	-0.7525629391	-0.001441
C	-1.319196514	-0.6292307145	-0.0866696882	-0.027626
O	-1.4415098576	 0.0036644399	-1.426739632	-0.344838
C	-0.085340304	-0.6034672899	-1.4021636029	-0.049321
H	-0.5303642633	 1.7080649225	-0.4848441693	 0.284399
H	 1.9965019008	 0.0098552344	 1.027221165	 0.115142
H	 0.6759688868	-0.6097207312	 2.006129566	 0.106031
H	 2.1516921493	-1.9901931911	-0.288802549	 0.104779
H	 1.9636242713	-2.5922708708	 1.3499853955	 0.097583
H	 0.471263335	-3.6832951355	-0.4926857634	 0.103047
H	-0.3859479384	-3.1601865071	 0.9464202023	 0.103004
H	-1.3979324868	-2.3882744325	-1.4107695388	 0.085146
H	-2.1780051331	-0.5528488816	 0.5832727154	 0.088461
H	 0.5204055198	-0.4906388634	-2.3027504922	 0.08972
196.1718	211.1107	339.3978	357.8326	409.2533	420.8333	485.3972	592.1255	605.516	662.98	692.7129	762.3744	776.5794	827.5348	877.7655	887.8084	905.5924	917.2546	933.6614	1002.4521	1024.18	1076.1809	1098.4209	1123.3641	1133.515	1149.7988	1175.8515	1195.2148	1212.4281	1218.3053	1260.0668	1280.9641	1300.205	1346.4718	1362.0224	1376.1426	1391.1467	1431.5931	1487.3177	1490.1967	1505.9042	3021.3448	3027.258	3033.064	3066.7134	3079.382	3087.2854	3098.0045	3101.9522	3113.0784	3727.0329
OC12CCCC3C1OC23	O[C@@]12CCC[C@H]3[C@@H]1O[C@@H]23	
InChI=1S/C7H10O2/c8-7-3-1-2-4-5(7)9-6(4)7/h4-6,8H,1-3H2	InChI=1S/C7H10O2/c8-7-3-1-2-4-5(7)9-6(4)7/h4-6,8H,1-3H2/t4-,5-,6+,7-
