18
gdb 93312	2.05859	1.64125	1.1164	4.8268	75.9	-0.2608	-0.0437	0.2171	1134.8431	0.147663	-402.002167	-401.993469	-401.992525	-402.03588	32.114	
C	-0.3014455068	 1.5157090799	-0.0295712164	-0.419657
C	 0.0472226037	 0.0314774839	 0.013348566	 0.0127
C	 0.9066872175	-0.468269062	-1.1701426283	-0.227726
C	 1.3974155099	-1.8569779857	-0.7374356608	-0.324952
C	 1.4536018651	-1.8125664166	 0.790148151	 0.405502
O	 1.8496404853	-2.6690317048	 1.5263617533	-0.288405
C	 0.8491553839	-0.4437434134	 1.2561033438	-0.268495
C	 1.9414243999	 0.460231312	 1.6048640615	 0.286252
N	 2.8154420373	 1.1758507024	 1.8533038432	-0.328736
H	 0.6008699394	 2.1343220697	-0.0094014314	 0.146497
H	-0.8534321976	 1.749272981	-0.9454619928	 0.121325
H	-0.9267832752	 1.8052911315	 0.8207410934	 0.124071
H	-0.8833444014	-0.5519112619	 0.0241244114	 0.09126
H	 0.3409117261	-0.4850137193	-2.104607231	 0.112356
H	 1.75626559	 0.2094300382	-1.3134057476	 0.127503
H	 0.6873686119	-2.6464839382	-1.0138112019	 0.141838
H	 2.3689132251	-2.1520598681	-1.1416627826	 0.146325
H	 0.231385206	-0.6055587385	 2.1435509392	 0.142341
55.0308	134.4006	154.8287	179.0005	232.6872	277.3306	402.9748	424.9313	451.5698	515.1795	547.7397	611.8142	633.4701	777.5249	818.2979	853.2605	910.7111	948.0703	976.4766	1003.7643	1044.9376	1087.8588	1125.0678	1151.9231	1168.8155	1207.1774	1236.0023	1290.0455	1305.887	1316.1081	1355.5484	1376.0009	1419.1512	1448.2259	1495.3702	1499.0394	1501.1695	1865.539	2347.293	3015.4288	3038.4063	3043.6254	3049.338	3084.571	3102.1688	3106.6459	3110.2185	3116.0798
CC1CCC(=O)C1C#N	C[C@H]1CCC(=O)[C@H]1C#N	
InChI=1S/C7H9NO/c1-5-2-3-7(9)6(5)4-8/h5-6H,2-3H2,1H3	InChI=1S/C7H9NO/c1-5-2-3-7(9)6(5)4-8/h5-6H,2-3H2,1H3/t5-,6-/m0/s1
