20
gdb 30662	3.03041	1.26	0.99316	3.5807	82.4	-0.1765	0.0573	0.2338	1250.5291	0.171888	-399.361863	-399.352431	-399.351487	-399.396627	34.38	
C	-0.5533605822	 0.5623034572	 0.2958823727	-0.383392
C	 0.4333986578	-0.5488929315	-0.093748382	-0.168692
N	 1.0419733559	-0.4088109058	-1.4085238849	-0.154824
C	 2.1284986473	 0.5503871158	-1.537993461	-0.329678
C	 0.2680948979	-0.6024338089	-2.5359772157	 0.497192
N	 0.5452170638	-0.1408804036	-3.7381959723	-0.362029
C	-0.4464793318	-0.6431834387	-4.5601140882	-0.085388
C	-1.3328026913	-1.3976891562	-3.8549263268	-0.124814
N	-0.8721340397	-1.362121151	-2.5409225886	-0.335008
H	-0.0615668707	 1.5394040841	 0.3015253222	 0.129762
H	-1.3902048926	 0.6105036911	-0.4071160425	 0.129301
H	-0.9568871519	 0.3817666025	 1.2975727108	 0.115781
H	 1.2506961443	-0.5900137774	 0.6340340594	 0.11329
H	-0.059898029	-1.5277429589	-0.0316976214	 0.095932
H	 2.6265238406	 0.3932535307	-2.4946526644	 0.161327
H	 1.7892053926	 1.5964945403	-1.5072661361	 0.113925
H	 2.8414760704	 0.3876083476	-0.7242848884	 0.111649
H	-0.4592504768	-0.4166973192	-5.6153869366	 0.100127
H	-2.2284188437	-1.9309470583	-4.1246215773	 0.118173
H	-1.2745900013	-1.8555394997	-1.764622189	 0.257364
48.861	80.7754	134.6978	159.112	205.4578	263.1965	279.5275	387.6988	391.5649	441.4833	519.9993	611.3673	623.769	666.3471	746.2283	789.6927	843.8962	882.7404	924.98	968.1999	1023.8078	1082.2335	1089.0845	1106.5625	1137.6589	1155.897	1185.8023	1204.1944	1279.3109	1291.8676	1353.5162	1379.8504	1387.6855	1404.4685	1448.2249	1476.8556	1487.7813	1490.9469	1492.7337	1511.1316	1512.3093	1561.9551	1623.9285	2993.1442	3015.8645	3040.0435	3066.2245	3079.3979	3110.4774	3119.3873	3150.7575	3247.5282	3283.8613	3686.0075
CCN(C)C1=NC=CN1	CCN(C)c1ncc[nH]1	
InChI=1S/C6H11N3/c1-3-9(2)6-7-4-5-8-6/h4-5H,3H2,1-2H3,(H,7,8)	InChI=1S/C6H11N3/c1-3-9(2)6-7-4-5-8-6/h4-5H,3H2,1-2H3,(H,7,8)
