18
gdb 109415	2.2674	1.53297	1.08465	3.4566	73.86	-0.2215	-0.0232	0.1983	1165.2944	0.145361	-439.039952	-439.030784	-439.02984	-439.074066	33.123	
C	-0.2792625121	 1.3298015075	 0.1070672401	-0.244657
O	 0.3518674992	 0.0833886448	-0.1340454217	-0.246118
C	 0.7593107127	-0.5573549039	 1.0300033369	 0.002215
C	-0.2626589206	-1.2380250946	 2.0144514032	 0.430457
O	-1.145654857	-0.8264752716	 2.7094443921	-0.31868
C	 0.4485125004	-2.5582764317	 1.8507508987	-0.258239
N	 0.3518531269	-2.8217840986	 0.3667077145	-0.347863
C	 1.4110655776	-1.9370217537	 0.8625414557	 0.285692
C	 2.8670888176	-2.2037032249	 0.6402652055	-0.50993
H	 0.3993445792	 2.0291597404	 0.6204571249	 0.104059
H	-0.5454496085	 1.743945483	-0.8675843408	 0.12964
H	-1.1853759733	 1.2146997199	 0.7139673962	 0.139102
H	 1.404542303	 0.0939722744	 1.6501570661	 0.082767
H	 0.5886698553	-3.3713321128	 2.5517126044	 0.115885
H	 0.7691941757	-3.7437229365	 0.2260357918	 0.234489
H	 3.1549877125	-1.942919892	-0.3838464191	 0.146674
H	 3.4849872592	-1.6127481242	 1.3237774404	 0.131864
H	 3.1018649221	-3.2619386556	 0.7970739911	 0.122642
80.3253	101.1273	150.1627	178.3218	209.2514	240.8804	261.5237	345.8879	372.3928	500.9388	542.4199	584.1862	654.983	715.7208	812.3207	855.6891	930.6125	957.5931	998.2751	1017.3416	1037.7058	1078.0534	1103.5548	1117.9464	1170.1935	1180.6361	1198.6098	1240.445	1292.4164	1324.7768	1358.5994	1411.3081	1444.4245	1480.3415	1482.4039	1488.2476	1498.5012	1512.0104	1891.7925	2929.8519	2983.2255	3031.0333	3059.8169	3098.1923	3103.7778	3126.9683	3202.6207	3448.5232
COC1C(=O)C2NC12C	CO[C@H]1C(=O)[C@H]2N[C@@]12C	
InChI=1S/C6H9NO2/c1-6-4(7-6)3(8)5(6)9-2/h4-5,7H,1-2H3	InChI=1S/C6H9NO2/c1-6-4(7-6)3(8)5(6)9-2/h4-5,7H,1-2H3/t4-,5+,6-/m1/s1
