16
gdb 46965	2.86134	1.76197	1.28553	3.5887	67.92	-0.2376	-0.0311	0.2065	960.666	0.126649	-437.93038	-437.923425	-437.922481	-437.962247	26.594	
O	-0.0172916051	 0.0743138293	 0.0494525349	-0.299244
C	-0.0347177942	 1.2728757058	 0.0051261835	 0.414105
C	-1.2654468238	 2.1797961723	 0.0621358109	-0.329814
C	-0.8692016399	 3.4038158427	-0.7798154479	-0.243584
C	 0.6530044165	 3.5599582362	-0.5990529475	 0.075015
O	 0.9564060395	 4.4229301661	 0.5335147188	-0.230407
C	 1.6006286956	 3.6409302927	 1.4280114752	 0.116541
N	 1.8154374645	 2.4168076686	 1.1712336437	-0.262624
C	 1.209519374	 2.1813409089	-0.1558170736	-0.118251
H	-2.1577393619	 1.6540402868	-0.2799344567	 0.132025
H	-1.4257911533	 2.4608789576	 1.1108642392	 0.143087
H	-1.0782326347	 3.216505023	-1.8387279813	 0.117453
H	-1.3903700044	 4.3210254587	-0.4984216921	 0.126107
H	 1.1364757184	 4.0002276365	-1.4729468406	 0.101805
H	 1.9036868975	 4.1503442715	 2.3361668725	 0.148828
H	 1.9335408612	 1.7163003534	-0.8280004088	 0.108957
72.083	136.1912	211.5345	359.0587	429.0185	468.3461	555.2952	590.4352	678.7653	744.562	790.8261	828.7404	875.8848	896.5822	931.8577	957.8952	963.156	979.2577	1035.3335	1070.2629	1126.4238	1150.3533	1158.3685	1190.4954	1251.2332	1263.1231	1292.0474	1303.185	1332.418	1347.899	1367.7122	1457.1011	1483.8874	1689.7248	1860.7178	3041.1014	3053.0143	3087.473	3099.5079	3114.7226	3129.3301	3217.4229
O=C1CCC2OC=NC12	O=C1CC[C@H]2OC=N[C@@H]12	
InChI=1S/C6H7NO2/c8-4-1-2-5-6(4)7-3-9-5/h3,5-6H,1-2H2	InChI=1S/C6H7NO2/c8-4-1-2-5-6(4)7-3-9-5/h3,5-6H,1-2H2/t5-,6+/m1/s1
