17
gdb 100249	2.93134	1.09882	0.96038	1.4454	70.31	-0.2498	-0.0426	0.2072	1250.405	0.132266	-458.928277	-458.918505	-458.917561	-458.962969	35.617	
O	 0.1535501045	 1.2978015184	-0.3057949201	-0.436434
C	 0.0948252282	-0.0865714676	-0.0035587361	-0.118078
C	-1.3670957222	-0.5569104368	 0.0086758597	 0.245911
O	-2.0231783511	-0.1126038332	-1.1732693801	-0.456189
C	-1.4582303806	-2.0918297756	 0.0637116441	-0.396156
C	-2.8149255522	-2.6182534101	 0.1586224522	 0.303786
C	-3.9263424178	-3.0662892585	 0.2444714013	-0.434037
C	-2.1406145105	 0.1183507458	 1.1495988379	 0.132856
O	-1.6911350359	 1.010998354	 1.8315899663	-0.278134
H	-0.1885719396	 1.747366626	 0.479612334	 0.30255
H	 0.6354692437	-0.6072148281	-0.8003321548	 0.118168
H	 0.5783636018	-0.3161715858	 0.9548616724	 0.109293
H	-1.6211268344	 0.7493397602	-1.3663104648	 0.295768
H	-0.9811186341	-2.4724316099	-0.8476968807	 0.148587
H	-0.8613667916	-2.4521149321	 0.9119942025	 0.137875
H	-4.9100034206	-3.4607934082	 0.3120118546	 0.202071
H	-3.1898868076	-0.2190081085	 1.2531026416	 0.122164
63.117	100.6232	129.5409	168.4022	229.5145	274.9182	319.9788	337.9809	344.2869	373.7853	423.9286	516.8451	539.5444	625.0214	644.349	656.8831	687.3102	810.3944	872.0232	938.9572	960.6671	998.7734	1066.4433	1093.615	1114.9935	1185.6259	1216.3964	1299.8513	1327.7208	1378.7347	1393.3401	1423.5999	1440.1687	1452.5157	1489.276	1802.0466	2241.7419	2960.7863	3018.9551	3025.0168	3061.443	3088.0397	3504.5591	3702.6383	3753.895
OCC(O)(CC#C)C=O	OC[C@@](O)(CC#C)C=O	
InChI=1S/C6H8O3/c1-2-3-6(9,4-7)5-8/h1,4,8-9H,3,5H2	InChI=1S/C6H8O3/c1-2-3-6(9,4-7)5-8/h1,4,8-9H,3,5H2/t6-/m1/s1
