18
gdb 51315	3.69176	1.08821	0.86899	3.9849	79.13	-0.221	-0.0055	0.2156	1301.5717	0.149246	-439.116694	-439.108459	-439.107515	-439.150098	30.724	
O	 1.9325154679	 4.1597662889	-0.0680031631	-0.311318
C	 1.0531896522	 3.3303248474	 0.0072939963	 0.149346
N	 1.2120166223	 1.9720616417	 0.0004817195	-0.365866
C	 2.3990256415	 1.2201941464	-0.1009215656	 0.362112
C	 2.348180181	-0.112039035	-0.2114489032	-0.197459
C	 3.590372995	-0.9449336846	-0.3657005488	-0.242946
C	 4.7695666278	-0.0451322527	-0.7363009871	-0.079809
O	 4.8146256509	 1.0843211349	 0.1165997778	-0.244937
C	 3.7227665309	 1.9603381029	-0.0687337484	-0.152649
H	-0.0189946178	 3.5956760472	 0.093432906	 0.084058
H	 0.3580202367	 1.4329151798	 0.0308358073	 0.250246
H	 1.3866447496	-0.6214049084	-0.1991374223	 0.072086
H	 3.8109169237	-1.4896141147	 0.5630624802	 0.115029
H	 3.4457450192	-1.706562643	-1.1429231123	 0.102747
H	 5.724992217	-0.5625441782	-0.6141625733	 0.107335
H	 4.6834769548	 0.2719961881	-1.7888266139	 0.090145
H	 3.8399724242	 2.5551942633	-0.9881153843	 0.11874
H	 3.744317623	 2.667263926	 0.7623016655	 0.143141
47.1079	137.656	189.4216	226.7666	292.6801	338.288	353.2791	448.7465	480.5482	523.6842	611.2843	634.1165	804.2393	835.6905	848.9162	895.2625	938.652	994.7159	1018.0247	1027.4647	1055.4633	1092.6761	1129.4099	1145.896	1224.6488	1254.3319	1269.3042	1315.1405	1344.6731	1364.6243	1398.6924	1423.3943	1445.5101	1467.3428	1474.3143	1500.5783	1530.2437	1729.4501	1807.005	2940.3322	2970.753	2989.1846	3007.1033	3042.7244	3089.7037	3117.0081	3139.9364	3595.6066
O=CNC1=CCCOC1	O=CNC1=CCCOC1	
InChI=1S/C6H9NO2/c8-5-7-6-2-1-3-9-4-6/h2,5H,1,3-4H2,(H,7,8)	InChI=1S/C6H9NO2/c8-5-7-6-2-1-3-9-4-6/h2,5H,1,3-4H2,(H,7,8)
