23
gdb 86179	2.23166	1.48707	1.19521	2.6021	81.59	-0.2357	0.0601	0.2958	1198.2249	0.203782	-425.449636	-425.439505	-425.438561	-425.483968	38.858	
C	 0.5220821082	 1.5154518732	 0.0718522237	-0.394245
C	-0.0401642756	 0.0987511103	 0.1221190794	 0.148476
C	 0.2548831596	-0.7505624801	-1.1355360752	-0.2939
C	 1.4349453262	-1.6442263903	-0.7076610386	 0.354575
C	 1.5561104957	-2.9476439315	-1.4940562683	-0.453867
O	 2.6640383076	-0.9135293301	-0.7641312744	-0.466674
C	 1.1046698835	-1.8422756248	 0.7870397389	 0.150763
C	 2.2662861657	-2.2195411829	 1.6906001335	-0.405371
O	 0.5676973738	-0.5974749138	 1.2186476967	-0.294195
H	 1.5916761052	 1.4827580488	-0.1507722528	 0.128933
H	 0.0127764943	 2.108339294	-0.6958728064	 0.101103
H	 0.381751879	 2.0105791898	 1.0369968709	 0.120494
H	-1.1240709614	 0.1447288674	 0.3004671449	 0.065093
H	-0.6078188862	-1.3704091185	-1.3995092236	 0.098368
H	 0.5028218522	-0.1394796838	-2.008783504	 0.090845
H	 1.7207279273	-2.7440118019	-2.5588233518	 0.106917
H	 2.404120037	-3.5353298377	-1.1304360266	 0.128179
H	 0.6489008903	-3.5537448739	-1.4095833351	 0.118162
H	 2.8535949559	-0.7318549459	-1.6903118387	 0.276185
H	 0.3258020708	-2.6234665086	 0.8478186829	 0.052763
H	 3.0659654732	-1.4826328086	 1.6049432652	 0.140819
H	 1.9280196408	-2.2599231082	 2.7294627021	 0.118947
H	 2.661406787	-3.2043434126	 1.4216905274	 0.107628
69.3551	119.8543	210.4658	226.7906	238.6132	250.7757	269.7924	273.9138	312.6939	365.8791	401.9766	417.17	442.8642	541.9923	604.346	703.7621	755.2816	823.8743	848.4988	901.1358	931.1628	943.0734	969.532	1018.3684	1055.5051	1059.0419	1112.482	1123.5722	1140.6558	1163.1954	1192.3931	1201.1343	1231.6018	1304.6478	1337.4223	1356.4675	1373.918	1391.0148	1401.0037	1402.527	1409.0674	1412.8838	1479.7871	1484.6396	1489.1487	1492.3578	1496.8544	1497.4266	1502.5297	2934.8292	2988.8664	3027.9789	3035.9696	3048.0721	3049.2224	3090.0311	3094.5658	3107.4029	3113.2452	3116.066	3129.1409	3148.8348	3813.3873
CC1CC(C)(O)C(C)O1	C[C@H]1C[C@@](C)(O)[C@@H](C)O1	
InChI=1S/C7H14O2/c1-5-4-7(3,8)6(2)9-5/h5-6,8H,4H2,1-3H3	InChI=1S/C7H14O2/c1-5-4-7(3,8)6(2)9-5/h5-6,8H,4H2,1-3H3/t5-,6+,7+/m0/s1
