18
gdb 92925	2.44387	1.34479	1.02244	3.9795	77.28	-0.2683	-0.0034	0.2648	1186.9022	0.149	-401.977491	-401.96912	-401.968175	-402.01057	31.771	
O	-0.0812895742	 1.4782836046	 0.0887935117	-0.43716
C	 0.0342440576	 0.0649355445	 0.0354776906	 0.119682
C	 0.7452498838	-0.5029706179	 1.2712257279	-0.28191
C	 0.5419807582	-1.9879139513	 1.4147758786	-0.048561
C	-0.3831011665	-2.6787438513	 0.7528536781	-0.057308
C	-1.3636382382	-2.0313791188	-0.2109126574	-0.209605
C	-1.3825658647	-0.4930930609	-0.0602971098	-0.22004
C	-1.0551422959	-2.4352145374	-1.5920860393	 0.276444
N	-0.8068030458	-2.7533409383	-2.6754792934	-0.330156
H	 0.8050399805	 1.853626616	 0.0881395861	 0.284033
H	 0.5885788203	-0.2417171774	-0.8661175329	 0.090754
H	 1.8194469132	-0.2789273654	 1.2275181892	 0.103982
H	 0.363941035	 0.0190088423	 2.1605786113	 0.123184
H	 1.1969682996	-2.5105929329	 2.1074130364	 0.101303
H	-0.4706923849	-3.7533366706	 0.8791284191	 0.109531
H	-2.3708131978	-2.4134264729	 0.0005721162	 0.132611
H	-1.9268608719	-0.240442888	 0.8560796124	 0.115049
H	-1.9085968083	-0.0289789442	-0.8978678946	 0.128167
83.2056	115.3963	189.5795	254.701	270.088	344.3471	392.4585	421.7347	448.1148	470.4154	567.0962	615.2468	725.3707	770.3428	816.1208	897.6776	923.21	950.229	967.7082	1007.1588	1054.3478	1082.2555	1096.5148	1111.8111	1167.5841	1190.0343	1232.5864	1271.2495	1309.3739	1316.058	1333.9732	1348.1392	1385.3747	1410.0117	1446.0921	1474.6242	1493.8026	1723.9602	2351.6265	2974.5491	3008.8065	3024.9739	3041.1563	3055.0369	3111.3108	3155.5858	3184.3155	3817.8999
OC1CC=CC(C1)C#N	O[C@H]1CC=C[C@@H](C1)C#N	
InChI=1S/C7H9NO/c8-5-6-2-1-3-7(9)4-6/h1-2,6-7,9H,3-4H2	InChI=1S/C7H9NO/c8-5-6-2-1-3-7(9)4-6/h1-2,6-7,9H,3-4H2/t6-,7-/m0/s1
