21
gdb 121854	2.41303	0.76189	0.59993	2.3235	85.45	-0.2492	0.0392	0.2884	1893.3091	0.178954	-424.190348	-424.178928	-424.177984	-424.229491	38.911	
C	 0.0428435552	 1.4437062265	-0.1588969686	-0.499622
C	 0.0769858558	-0.0106956225	-0.1134089769	 0.105594
C	 0.1134614768	-1.213234339	-0.0819275376	 0.046003
C	 0.1336242593	-2.6736742344	-0.0197287842	-0.037197
C	-1.2659707287	-3.2467599678	 0.2510013577	-0.393276
O	 0.6719395412	-3.1571265926	-1.2516749146	-0.271024
C	 1.180677833	-4.4809140215	-1.2155122713	-0.073581
C	 2.0257597182	-4.6423284922	-2.4711959897	-0.056612
O	 3.0677828532	-3.6904080244	-2.5125965118	-0.422068
H	 0.7470390071	 1.882245243	 0.5565332249	 0.150059
H	 0.3109815903	 1.8109383613	-1.155552014	 0.153619
H	-0.9557589339	 1.8269468341	 0.0775961268	 0.149593
H	 0.8053450101	-2.9825714332	 0.7991564438	 0.094379
H	-1.2293214834	-4.3365001914	 0.3359676785	 0.117499
H	-1.663599832	-2.8430851024	 1.1860264523	 0.127473
H	-1.9418693656	-2.976370412	-0.5640206973	 0.133848
H	 1.8084453165	-4.6214909738	-0.3213380735	 0.095702
H	 0.3739681099	-5.2295700635	-1.1945782532	 0.090289
H	 2.4862532178	-5.6359100649	-2.4811247005	 0.105869
H	 1.3711266764	-4.5645903928	-3.3542427882	 0.093294
H	 2.6476129626	-2.8439129066	-2.3158115227	 0.290155
25.6656	35.0129	51.4389	97.8645	136.1476	170.0163	217.9292	247.6105	288.9745	322.4436	355.7279	401.372	454.3112	488.3895	537.1329	573.376	756.603	836.3641	909.3517	932.5729	1017.2369	1051.6467	1053.3532	1069.8407	1084.6356	1100.2217	1128.9777	1144.0328	1190.4064	1238.6828	1257.905	1346.0986	1356.9304	1385.8941	1398.7357	1414.4018	1416.342	1441.8263	1476.8024	1478.6883	1487.9198	1490.852	1500.1954	1508.6551	2376.5037	2956.0393	2973.2809	2977.2558	3016.6969	3028.9746	3047.7107	3076.5045	3090.1939	3091.5622	3121.7787	3133.382	3783.167
CC#CC(C)OCCO	CC#C[C@@H](C)OCCO	
InChI=1S/C7H12O2/c1-3-4-7(2)9-6-5-8/h7-8H,5-6H2,1-2H3	InChI=1S/C7H12O2/c1-3-4-7(2)9-6-5-8/h7-8H,5-6H2,1-2H3/t7-/m1/s1
