20
gdb 90179	3.44865	1.30804	1.22555	1.8515	77.97	-0.2134	0.0653	0.2787	1098.9354	0.173053	-403.101696	-403.09397	-403.093026	-403.133492	31.604	
O	-0.034050495	 1.456072018	-0.0352478663	-0.427341
C	 0.0600241334	 0.0415177845	-0.0394725011	 0.110475
C	 0.7136853248	-0.5522830962	 1.2588691641	-0.353425
C	-0.0445984301	-1.8331358454	 1.4891288574	 0.260012
C	-0.7856891568	-2.4306072755	 2.7001555308	-0.270473
C	-2.1042925724	-2.4275456483	 1.8368364813	-0.270951
C	-1.2895931584	-1.8303897704	 0.6743273391	 0.254778
C	-1.3813701495	-0.5503330513	-0.1134952714	-0.321033
N	-0.207946694	-2.7948740904	 0.3767009449	-0.403937
H	 0.8514523613	 1.8183516014	-0.1377974577	 0.284058
H	 0.6363363055	-0.2818238079	-0.9197368165	 0.068747
H	 1.8007559976	-0.6588990751	 1.1588519999	 0.094116
H	 0.5242906238	 0.1474840896	 2.0812615402	 0.112349
H	-0.4220296952	-3.4015954907	 3.0441908637	 0.105193
H	-0.8422800772	-1.7431926798	 3.5473890712	 0.100803
H	-2.5679830382	-3.3967628991	 1.6395794009	 0.105436
H	-2.8559035314	-1.7385363191	 2.2289738084	 0.101734
H	-2.058370059	 0.1525287343	 0.3853638535	 0.119076
H	-1.7222216637	-0.6528097429	-1.1491835291	 0.104004
H	 0.3195435744	-2.4708546356	-0.4304558134	 0.226381
112.5113	204.0894	271.9495	291.3465	309.2073	360.9375	426.8375	481.6943	514.095	583.7932	662.0852	715.5082	760.4709	793.8959	830.7416	849.3832	898.4387	927.9677	951.0715	996.9283	1011.325	1027.1951	1064.1387	1075.2036	1095.4063	1128.6761	1176.6781	1205.7653	1215.4444	1233.3712	1235.6783	1258.6679	1275.6101	1286.1754	1341.4894	1361.8619	1372.9387	1393.0699	1437.5798	1464.6081	1485.8605	1486.1448	1498.71	2973.475	3024.658	3040.2378	3060.6112	3067.4098	3070.3247	3081.4981	3111.4867	3128.7745	3507.2493	3821.1621
OC1CC23CCC2(C1)N3	O[C@H]1C[C@@]23CC[C@]2(C1)N3	
InChI=1S/C7H11NO/c9-5-3-6-1-2-7(6,4-5)8-6/h5,8-9H,1-4H2	InChI=1S/C7H11NO/c9-5-3-6-1-2-7(6,4-5)8-6/h5,8-9H,1-4H2/t5-,6-,7+
