18
gdb 91786	2.44686	1.70148	1.21781	2.0035	72.11	-0.2171	-0.0264	0.1907	1053.619	0.147173	-439.083157	-439.074581	-439.073637	-439.116162	32.858	
C	-0.559264624	 1.37357161	 0.1568701921	-0.378407
C	 0.0739272552	-0.0106543132	-0.0286196233	-0.09459
N	 0.8419194254	-0.1533000879	-1.290861396	-0.316232
C	 2.2355153493	-0.4298590013	-0.9559667141	-0.080086
C	 2.9505241323	 0.6680934038	-0.2307518099	-0.341486
C	 2.4144362769	-0.5255271986	 0.552930687	 0.321186
O	 3.2751521782	-1.3552061337	 1.2482352988	-0.474021
C	 1.0437881468	-0.3792939547	 1.1033922018	 0.330013
O	 0.7530193211	-0.6312038867	 2.2521057982	-0.360745
H	 0.1946413484	 2.1642741038	 0.114700721	 0.126087
H	-1.2878637299	 1.5634057507	-0.6353676809	 0.12505
H	-1.0666569242	 1.4243213207	 1.1248186071	 0.134469
H	-0.7258238907	-0.7599075062	 0.004629669	 0.113223
H	 0.4723526035	-0.9342259408	-1.8193761503	 0.228757
H	 2.7821395001	-1.0634607822	-1.6438396182	 0.111969
H	 4.0330427979	 0.6621769155	-0.3012888388	 0.136197
H	 2.4961971625	 1.6498881367	-0.1470820222	 0.12367
H	 2.8684802513	-1.464988006	 2.1215741989	 0.294945
73.9733	143.4086	207.1681	223.8705	280.8067	320.1611	348.5331	385.1922	436.6829	485.8586	583.2602	602.0755	634.3019	777.2485	793.6242	836.7725	880.1135	898.5858	913.057	979.8082	997.69	1041.3295	1070.4456	1079.7724	1092.7716	1140.264	1154.2515	1208.6897	1254.9094	1319.1232	1351.3683	1397.4168	1405.2648	1413.1666	1446.5618	1486.2336	1492.9188	1499.028	1809.8712	3038.5906	3045.5996	3123.329	3124.7753	3129.5861	3190.7393	3224.3788	3544.9598	3713.8707
CC1NC2CC2(O)C1=O	C[C@H]1N[C@H]2C[C@@]2(O)C1=O	
InChI=1S/C6H9NO2/c1-3-5(8)6(9)2-4(6)7-3/h3-4,7,9H,2H2,1H3	InChI=1S/C6H9NO2/c1-3-5(8)6(9)2-4(6)7-3/h3-4,7,9H,2H2,1H3/t3-,4+,6+/m1/s1
