18
gdb 6915	4.85098	1.06027	0.9928	1.6902	74.32	-0.2501	0.0538	0.3038	1211.4342	0.150662	-347.756048	-347.746976	-347.746032	-347.789527	33.929	
C	 0.0783331186	 1.5616557355	-0.1995177888	-0.448148
C	 0.0131711588	 0.064456357	 0.0043771019	 0.381631
O	-1.1591230021	-0.5195052853	-0.5113496547	-0.465518
C	 1.2696299522	-0.7781338387	-0.0301067585	-0.341943
C	 0.4870711361	-0.6116573694	 1.2585181565	-0.016783
C	 1.0629347402	 0.1423875879	 2.4486378437	-0.391807
C	 1.9082348545	-0.7013624796	 3.2893746021	 0.312236
C	 2.5969269706	-1.4110532183	 3.9723394605	-0.447567
H	 0.9830802013	 1.999404025	 0.229763579	 0.117972
H	 0.0810218775	 1.7985409524	-1.2707955545	 0.108511
H	-0.792852702	 2.0503773592	 0.2487976517	 0.12726
H	-1.1312645824	-0.4337868236	-1.4711796678	 0.278724
H	 1.2176983046	-1.7391954204	-0.5290762229	 0.113226
H	 2.226540895	-0.2711845098	-0.1124661256	 0.109155
H	-0.1170638687	-1.469893864	 1.5354244959	 0.108673
H	 1.6485535652	 1.0041658244	 2.1066750267	 0.126071
H	 0.2458264346	 0.5545235136	 3.0557537706	 0.134627
H	 3.2084496659	-2.0318887559	 4.5786492943	 0.193678
57.3816	112.5391	204.8251	207.201	252.1379	308.0796	338.5908	374.1474	384.8814	424.8932	455.5248	546.8066	615.6194	636.3937	706.0051	848.6389	866.5839	899.14	925.1451	958.6183	983.6634	1021.3448	1055.5147	1087.8439	1120.4943	1149.9854	1226.8368	1259.0249	1292.6012	1319.7287	1360.4967	1413.3756	1423.2652	1465.8271	1484.7288	1488.5803	1511.853	2239.2427	3017.895	3025.7781	3052.8806	3086.6363	3119.1096	3125.9821	3163.8024	3217.9785	3507.3905	3787.9495
CC1(O)CC1CC#C	C[C@@]1(O)C[C@H]1CC#C	
InChI=1S/C7H10O/c1-3-4-6-5-7(6,2)8/h1,6,8H,4-5H2,2H3	InChI=1S/C7H10O/c1-3-4-6-5-7(6,2)8/h1,6,8H,4-5H2,2H3/t6-,7-/m1/s1
