20
gdb 80644	2.73864	1.53217	1.20024	4.1426	80.48	-0.2322	0.0351	0.2673	1092.8282	0.172859	-403.162966	-403.155022	-403.154078	-403.195518	31.121	
C	-0.1147636951	 1.5658893841	 0.0132328566	-0.417869
C	 0.0741773622	 0.052845098	-0.0137481757	 0.051177
C	 0.9841480294	-0.5203236468	-1.1297068444	-0.055084
C	 1.2042834967	-1.9841793278	-0.6308768583	-0.232752
C	 1.9461762573	-1.2333171616	 0.5131735495	-0.005885
C	 2.4186243354	-0.2349119166	-0.5774152632	-0.228063
N	 0.8487301307	-0.4809949205	 1.1320799217	-0.021
C	 0.4077274848	-0.5563675319	 2.4062495957	 0.129314
O	-0.6240124483	-0.0589816895	 2.8179414386	-0.350916
H	 0.8410661899	 2.0972709032	 0.0079590703	 0.114522
H	-0.6910986778	 1.8853124739	-0.8614648265	 0.113566
H	-0.6638036704	 1.8493510961	 0.9134606452	 0.157384
H	-0.91293477	-0.4248518319	-0.0336797614	 0.096253
H	 0.6956866682	-0.289751016	-2.1542909886	 0.075799
H	 0.327551241	-2.577044673	-0.3578344042	 0.104539
H	 1.8765888365	-2.5542525194	-1.2741274074	 0.10631
H	 2.6083027906	-1.7119739259	 1.2333375926	 0.083233
H	 3.1990411312	-0.6479091229	-1.2183489587	 0.106932
H	 2.6756522084	 0.7764630633	-0.2579874843	 0.106333
H	 1.1120441595	-1.113385205	 3.0579786627	 0.066205
65.5173	189.215	217.2725	225.3717	285.91	320.216	450.4981	491.9231	519.3062	566.7857	687.5564	775.7099	822.5418	834.416	843.2646	886.5035	909.27	978.3218	1015.9262	1027.8637	1038.4127	1046.8903	1056.225	1075.8176	1118.1732	1126.7817	1146.7677	1186.3824	1218.1553	1242.0797	1248.9178	1273.1824	1302.2972	1322.1565	1387.6096	1405.0447	1416.4193	1453.6844	1479.7817	1490.06	1506.0811	1518.8973	1779.0873	2917.9511	3032.1349	3042.5896	3066.0691	3077.9757	3111.3979	3128.8284	3132.4746	3134.6313	3137.8026	3142.1607
CC1C2CC(C2)N1C=O	C[C@H]1[C@@H]2C[C@@H](C2)N1C=O	
InChI=1S/C7H11NO/c1-5-6-2-7(3-6)8(5)4-9/h4-7H,2-3H2,1H3	InChI=1S/C7H11NO/c1-5-6-2-7(3-6)8(5)4-9/h4-7H,2-3H2,1H3/t5-,6-,7+/m0/s1
