19
gdb 94472	2.9316	1.30102	1.18028	2.8889	70.96	-0.2453	0.0585	0.3038	1122.1621	0.159345	-460.14047	-460.13195	-460.131006	-460.174446	31.562	
O	 0.1202938881	 1.2211148227	-0.4456692582	-0.421176
C	 0.0741061551	-0.0902458437	 0.0532796431	-0.00786
C	-0.0292516219	-0.3109841118	 1.5771850758	-0.111693
O	-1.191118946	-1.144360911	 1.39752642	-0.321024
C	-1.3266413974	-0.7429998181	 0.0038651042	 0.380103
C	-2.5290662661	 0.1769696845	-0.2530271561	-0.266952
C	-3.5794343269	-0.8072204891	-0.7721878065	-0.090977
O	-2.839582307	-1.7209343817	-1.5744273291	-0.251748
C	-1.6007557693	-1.9478923469	-0.9191460254	-0.135012
H	 1.0386190155	 1.5013397293	-0.5005441987	 0.292387
H	 0.8389855218	-0.7259394258	-0.4117645258	 0.079691
H	 0.7857645957	-0.8436506617	 2.0797041596	 0.100793
H	-0.2576029996	 0.6168734223	 2.1186816103	 0.101119
H	-2.8245406393	 0.7129852264	 0.6507453629	 0.110165
H	-2.2700728806	 0.9040357067	-1.0275016615	 0.126763
H	-4.0748237489	-1.3289709855	 0.0627222506	 0.096502
H	-4.3473766694	-0.3533580247	-1.4034866047	 0.108074
H	-0.8298956721	-2.0805388613	-1.6858119236	 0.103641
H	-1.6342397316	-2.8510835308	-0.2920000169	 0.107206
39.4186	89.1021	192.2748	214.0201	237.8962	261.0983	399.4224	405.7711	477.0243	549.7805	631.7127	733.7152	770.4929	861.5206	882.2514	915.3873	946.2084	970.7003	1014.4234	1024.0763	1060.6863	1086.9327	1119.3	1137.505	1150.2761	1173.4601	1183.5644	1224.5897	1238.7886	1254.3558	1268.9024	1304.6115	1319.519	1333.8179	1360.1081	1400.0411	1443.434	1468.1177	1500.094	1515.1489	1520.2262	2975.2817	2998.2495	3009.9284	3013.2803	3066.3767	3069.7287	3072.5704	3097.1206	3130.3879	3831.7498
OC1COC11CCOC1	O[C@H]1CO[C@]21CCOC2	
InChI=1S/C6H10O3/c7-5-3-9-6(5)1-2-8-4-6/h5,7H,1-4H2	InChI=1S/C6H10O3/c7-5-3-9-6(5)1-2-8-4-6/h5,7H,1-4H2/t5-,6+/m0/s1
