16
gdb 69718	3.937	1.33124	1.21884	3.5487	68.02	-0.2372	0.0238	0.2609	1015.8712	0.124482	-437.854082	-437.84666	-437.845716	-437.885713	29.447	
O	-0.1456332423	 1.4034854138	-0.0074985622	-0.457763
C	-0.0750692169	 0.0236492542	 0.0133430728	 0.382216
C	-0.309185026	-0.8385534008	-1.1890711835	-0.369864
C	-1.2303196893	-0.971036756	 0.0050975228	-0.111301
C	-0.5738133878	-1.7732422081	 1.1586590532	-0.183016
C	 0.6008136538	-0.7618115001	 1.1804133435	-0.069456
N	 1.5028352551	-1.8767629642	 0.8834140273	-0.323763
C	 0.4996342092	-2.8324704556	 0.7766648069	 0.39696
O	 0.5238519382	-3.9951113665	 0.4813215252	-0.35378
H	 0.5476244647	 1.7381967128	-0.587349625	 0.288283
H	-0.7590003688	-0.3036735455	-2.0197896444	 0.120601
H	 0.3698139588	-1.6359134373	-1.4780293699	 0.12689
H	-2.2941212132	-0.7952556298	-0.0821150094	 0.106476
H	-1.1877834581	-1.9610251935	 2.036416372	 0.103583
H	 0.8398595187	-0.162257033	 2.0589768347	 0.097702
H	 2.4455102738	-1.8995865505	 0.5197360959	 0.246232
113.0159	181.2911	258.2918	304.3957	337.017	437.492	449.1181	478.9428	521.2706	626.3647	707.7061	732.3505	782.87	812.3132	881.9835	898.6289	922.7314	961.6625	978.7845	981.2162	1034.989	1065.6578	1079.5957	1130.2709	1143.9869	1185.5235	1216.3769	1228.8428	1254.8964	1303.2563	1315.9004	1348.8008	1405.0156	1494.0196	1888.9178	3115.592	3118.4123	3149.2798	3202.5398	3210.2391	3591.9489	3789.7404
OC12CC1C1C2NC1=O	O[C@]12C[C@H]1[C@@H]1[C@H]2NC1=O	
InChI=1S/C6H7NO2/c8-5-3-2-1-6(2,9)4(3)7-5/h2-4,9H,1H2,(H,7,8)	InChI=1S/C6H7NO2/c8-5-3-2-1-6(2,9)4(3)7-5/h2-4,9H,1H2,(H,7,8)/t2-,3+,4+,6+/m0/s1
