25
gdb 97643	1.74422	0.88937	0.63189	0.1769	99.1	-0.2403	0.0563	0.2965	1925.2189	0.226489	-352.351306	-352.339301	-352.338357	-352.391218	42.06	
C	-0.5418701621	 1.8360836892	 0.5793446756	-0.362314
C	-0.0608280173	 0.4144144831	 0.2359234964	-0.313881
C	 0.6795132171	-0.218872528	 1.3239160399	 0.029486
C	 1.2823852986	-0.7167035782	 2.2421927163	 0.103528
C	 2.0348739749	-1.3473572381	 3.329029256	-0.127914
C	 1.7694501912	-2.8702969939	 3.3886792756	-0.169661
C	 0.3075653785	-3.235993755	 3.6502075485	-0.387685
C	 3.5487278982	-1.050384137	 3.21301663	-0.169715
C	 3.8974660844	 0.4363712601	 3.2973689562	-0.387587
H	 0.3054492052	 2.4869044611	 0.8121205575	 0.126295
H	-1.0885763716	 2.2695049012	-0.2636770001	 0.111933
H	-1.2038082138	 1.82225563	 1.4495206715	 0.126846
H	-0.9248888702	-0.2087316711	-0.0290675125	 0.125859
H	 0.5685120863	 0.4494970871	-0.6628944328	 0.125606
H	 1.6860652982	-0.9145987651	 4.279858384	 0.09246
H	 2.1034057835	-3.3205335301	 2.4459566033	 0.10069
H	 2.4030958718	-3.2912156243	 4.1792611469	 0.090571
H	 0.1746499858	-4.3217782727	 3.6839025012	 0.109113
H	-0.0369479421	-2.8284994398	 4.6075091921	 0.110238
H	-0.3424118214	-2.8378381771	 2.86568459	 0.128393
H	 4.0610105664	-1.5965538183	 4.014783376	 0.090496
H	 3.9149402775	-1.4661571607	 2.2664407516	 0.100567
H	 4.9767696221	 0.5924760249	 3.2055568843	 0.109088
H	 3.4028500238	 0.9998339114	 2.5009609558	 0.127361
H	 3.5795044148	 0.8634999515	 4.2553022868	 0.110228
6.616	71.2401	85.6919	108.3034	125.169	167.1096	196.0979	209.2998	245.2481	252.4513	309.6281	384.7311	392.0629	494.9072	501.3163	564.8809	667.8221	779.769	785.5187	831.8123	865.6583	930.3416	956.0162	1025.1964	1042.7379	1048.166	1076.597	1101.795	1103.1556	1112.0429	1154.1038	1188.1751	1271.3828	1283.1493	1286.4532	1304.7356	1350.3485	1362.4476	1370.2125	1379.323	1407.9782	1408.5557	1413.4927	1477.1195	1479.803	1489.5779	1494.0079	1496.2202	1497.4302	1505.5885	1507.1929	1508.8177	2355.3386	2980.3177	3017.1553	3020.0818	3027.0931	3032.7789	3033.4919	3042.8231	3043.0776	3057.4464	3065.4335	3098.4399	3099.1228	3114.0328	3115.3005	3115.6426	3122.1476
CCC#CC(CC)CC	CCC#CC(CC)CC	
InChI=1S/C9H16/c1-4-7-8-9(5-2)6-3/h9H,4-6H2,1-3H3	InChI=1S/C9H16/c1-4-7-8-9(5-2)6-3/h9H,4-6H2,1-3H3
