16
gdb 46754	2.97008	1.78478	1.43714	2.735	66.47	-0.2445	0.0001	0.2446	912.106	0.1268	-437.870884	-437.864281	-437.863337	-437.901947	26.141	
O	-0.0711851097	 0.0581345598	-0.351530052	-0.334924
C	-0.022631763	 1.2025599839	-0.0099701281	 0.433364
O	-1.1349379448	 1.8824934039	 0.4085935944	-0.229428
C	-0.8342589113	 3.2090196536	 0.8891140623	-0.109868
C	 0.6328288878	 3.4840084472	 0.5453193207	-0.002104
C	 1.1665567056	 2.1479097635	 0.0126116675	-0.194524
C	 1.453702409	 2.8914108128	-1.3063426002	-0.021554
C	 0.2511121385	 3.5450080002	-1.8498995528	-0.261095
N	 0.9648498423	 4.2171994338	-0.7421521148	-0.146287
H	-1.5219056654	 3.9129362464	 0.411781129	 0.135204
H	-1.0094211551	 3.2242229026	 1.9695186024	 0.126634
H	 1.1788102808	 3.9517850144	 1.3634578295	 0.103115
H	 2.0362706598	 1.7030672712	 0.4918437277	 0.115538
H	 2.384926103	 2.8115120714	-1.8555929583	 0.11106
H	 0.3670774446	 4.0829117847	-2.7854061359	 0.132869
H	-0.737500472	 3.1204735309	-1.6997509514	 0.142
122.4967	179.2659	257.4005	337.6254	471.5929	508.5586	618.7014	694.411	714.4638	735.623	767.0767	810.2363	840.5841	898.7958	933.5796	981.9601	995.1435	1020.8046	1058.2306	1071.945	1085.8216	1123.9866	1153.4205	1162.695	1207.5802	1219.1024	1229.2904	1270.5595	1277.1272	1332.6476	1359.7081	1393.24	1508.3524	1514.0699	1883.0734	3050.4467	3098.0707	3120.3601	3122.9365	3141.351	3177.9101	3208.6981
O=C1OCC2C1C1CN21	O=C1OC[C@H]2[C@@H]1[C@H]1CN21	
InChI=1S/C6H7NO2/c8-6-5-3-1-7(3)4(5)2-9-6/h3-5H,1-2H2	InChI=1S/C6H7NO2/c8-6-5-3-1-7(3)4(5)2-9-6/h3-5H,1-2H2/t3-,4+,5+,7?/m1/s1
