15
gdb 27003	3.23437	1.29498	0.96499	2.6166	72.1	-0.2031	0.0094	0.2125	1152.4392	0.113723	-416.844523	-416.83634	-416.835396	-416.877829	30.048	
N	-0.0865327181	 1.3636721197	-0.3561883444	-0.620622
C	-0.0256698235	-0.013714023	-0.1387241974	 0.157284
C	-1.0540471705	-0.9083481387	-0.0173076942	 0.303648
C	-2.5442053107	-0.8062028934	-0.1008936609	-0.458446
C	-2.96955818	 0.1873537021	-1.0897385197	 0.271981
N	-3.2684274518	 1.0004006067	-1.8550274263	-0.319037
O	-0.5616869824	-2.1572897594	 0.2775819683	-0.189265
C	 0.7844896937	-2.0455984049	 0.3387703219	-0.013432
C	 1.1759400072	-0.7697712587	 0.095102	-0.232318
H	 0.7330912827	 1.722700131	-0.8266733162	 0.248198
H	-0.921834068	 1.667782946	-0.8413027527	 0.263675
H	-2.953490354	-1.7822731823	-0.3853131903	 0.174232
H	-3.0071664376	-0.5438619727	 0.8620126627	 0.16584
H	 1.3224779116	-2.9523940809	 0.5610473635	 0.137828
H	 2.1875898413	-0.3943674015	 0.0817464456	 0.110433
47.2809	114.8134	203.9973	262.2682	273.7222	321.0342	377.591	417.7341	485.2867	601.8278	653.3219	691.3671	735.6546	746.0501	772.081	814.3607	904.2992	934.6833	944.9331	1052.6346	1084.2709	1139.2162	1205.7197	1250.5929	1263.021	1322.5205	1339.1917	1458.2976	1473.1115	1546.4367	1661.35	1690.9778	2359.2501	2997.7383	3069.0262	3251.0225	3283.4794	3537.9643	3630.4563
NC1=C(CC#N)OC=C1	Nc1c(CC#N)occ1	
InChI=1S/C6H6N2O/c7-3-1-6-5(8)2-4-9-6/h2,4H,1,8H2	InChI=1S/C6H6N2O/c7-3-1-6-5(8)2-4-9-6/h2,4H,1,8H2
