18
gdb 113645	3.44604	0.88638	0.82721	2.1395	75.61	-0.2469	-0.0965	0.1504	1453.3971	0.14552	-439.077518	-439.067964	-439.06702	-439.11294	33.472	
C	-0.5980643912	 1.5260725015	 0.2919207861	-0.379864
C	-0.041569249	 0.1856425469	-0.2041768402	-0.19706
C	 0.9089509151	-0.4200808917	 0.8014752577	 0.010053
N	 0.3270456842	-1.1446537208	 1.9199067707	-0.313594
C	 1.1460722549	-1.9064297935	 0.9525683192	-0.178099
C	 0.4459777827	-2.9071925719	 0.1065464119	 0.316785
O	-0.726179229	-2.8963557782	-0.1985954098	-0.289285
C	 1.3117535105	-4.0502266958	-0.4452574992	 0.090613
O	 2.4843180249	-4.1844186279	-0.2109291175	-0.222121
H	 0.2024282927	 2.2535231417	 0.4686271187	 0.109406
H	-1.2849648944	 1.9586988694	-0.4410782478	 0.1177
H	-1.1446356753	 1.3906432355	 1.2301151842	 0.132398
H	-0.8587934666	-0.515712702	-0.3863931357	 0.142023
H	 0.4901282368	 0.3273909599	-1.1535648971	 0.097207
H	 1.7967485056	 0.180459125	 1.0062824438	 0.095253
H	 0.8660839112	-1.0064038374	 2.7710415472	 0.242203
H	 2.1504851331	-2.2040272295	 1.2366690273	 0.115914
H	 0.729921454	-4.7475140712	-1.0843419296	 0.110469
43.9048	84.2992	126.819	140.6815	178.9542	223.2572	247.3585	283.0379	408.3834	454.2164	524.4675	632.944	642.172	754.5741	786.9634	846.7662	872.9733	923.3763	964.4306	1025.6885	1037.0644	1050.9729	1098.7172	1144.8989	1166.8833	1199.6815	1225.74	1254.2061	1312.263	1347.4852	1363.8986	1406.7302	1432.0832	1473.6765	1485.0959	1499.3576	1508.3978	1792.5131	1821.1873	2926.4718	3033.3008	3034.179	3090.9153	3095.9357	3114.9251	3123.184	3167.9545	3502.8375
CCC1NC1C(=O)C=O	CC[C@H]1N[C@H]1C(=O)C=O	
InChI=1S/C6H9NO2/c1-2-4-6(7-4)5(9)3-8/h3-4,6-7H,2H2,1H3	InChI=1S/C6H9NO2/c1-2-4-6(7-4)5(9)3-8/h3-4,6-7H,2H2,1H3/t4-,6-/m1/s1
