25
gdb 85846	2.27697	1.30493	1.05807	0.2445	95.29	-0.2251	0.0334	0.2585	1336.5858	0.22767	-352.39159	-352.381235	-352.380291	-352.425986	40.143	
C	-0.0884855085	 1.594332002	-0.0012829933	-0.396017
C	 0.0096857839	 0.0646295334	 0.0206674646	-0.011077
C	 0.7976719282	-0.5307813002	-1.1726123908	-0.254994
C	 1.5497756972	-1.7801319322	-0.630430291	 0.214179
C	 0.7316394691	-3.0667473574	-0.8765682795	-0.422303
C	 2.9393819528	-1.9289832404	-1.2702429244	-0.435682
C	 1.6092862872	-1.4786204196	 0.8706552045	 0.309948
C	 2.4773558477	-2.2592906815	 1.8101245366	-0.501463
C	 0.7665722879	-0.4986870012	 1.2013274849	-0.186981
H	 0.9086179186	 2.0486846787	 0.0056183995	 0.112033
H	-0.6122227637	 1.9434831199	-0.8978846947	 0.109821
H	-0.634555603	 1.970877523	 0.8705729504	 0.108633
H	-1.0179045368	-0.332303874	 0.0280347167	 0.072538
H	 0.1607351522	-0.7676109042	-2.0309339753	 0.086571
H	 1.5320744333	 0.2101638491	-1.5113145585	 0.08893
H	 0.6652484845	-3.2833734529	-1.9488716653	 0.108117
H	 1.1925254668	-3.9352527346	-0.3934891671	 0.108657
H	-0.2862564736	-2.9684062809	-0.4862160692	 0.11419
H	 3.5662519201	-1.055318466	-1.0624386504	 0.110132
H	 3.4631662042	-2.8170765364	-0.9001397689	 0.108834
H	 2.8535295764	-2.0290017465	-2.3581383494	 0.110139
H	 3.5404408752	-2.1479027733	 1.5638790652	 0.125752
H	 2.3358792562	-1.9333153678	 2.8442306142	 0.120408
H	 2.2594440127	-3.3339435024	 1.7638836817	 0.123237
H	 0.6012665412	-0.1461279346	 2.2159088893	 0.076397
78.2846	142.7436	187.9344	216.1472	234.6135	248.6019	263.7326	271.8997	286.0452	331.8371	363.4203	450.7782	454.811	557.3472	584.0451	621.7216	700.6412	854.0969	858.6347	867.7026	912.7496	940.0502	944.054	973.879	1010.4347	1014.8186	1043.6889	1065.639	1079.8377	1123.8032	1140.3873	1192.2585	1226.9763	1244.422	1254.7875	1302.3948	1321.878	1333.5263	1370.8425	1393.781	1407.2645	1412.2113	1419.5293	1476.4576	1482.5811	1485.6374	1487.9065	1496.6407	1498.3422	1499.5671	1504.4534	1509.2316	1718.2114	2969.2831	3018.548	3022.1664	3023.6287	3025.8416	3031.2145	3064.5586	3076.3862	3088.3347	3092.798	3093.5876	3095.0245	3096.4126	3101.7794	3108.0215	3164.5428
CC1CC(C)(C)C(C)=C1	C[C@H]1CC(C)(C)C(=C1)C	
InChI=1S/C9H16/c1-7-5-8(2)9(3,4)6-7/h5,7H,6H2,1-4H3	InChI=1S/C9H16/c1-7-5-8(2)9(3,4)6-7/h5,7H,6H2,1-4H3/t7-/m1/s1
