18
gdb 56308	4.01664	0.7081	0.63004	5.9763	75.49	-0.2507	0.0184	0.2691	1708.7648	0.146513	-439.078256	-439.068706	-439.067762	-439.113801	34.054	
O	-1.7509320741	 1.7203958387	-1.7992660228	-0.372866
C	-0.7562371251	 1.7423779498	-0.9001656479	 0.408402
O	 0.4003697159	 1.7625850469	-1.2280537378	-0.329168
C	-1.1940475145	 1.7692287719	 0.570898638	-0.3532
C	-2.4465345671	 0.9460958586	 0.8931453001	-0.155617
N	-3.6115176978	 1.4772775182	 0.1701330962	-0.309239
H	-3.8383056668	 2.4054032498	 0.5176711634	 0.23905
H	-2.6163432429	 1.6877887203	-1.3194087053	 0.304377
C	-4.8072747363	 0.6268446428	 0.2766968557	-0.2866
C	-5.9678387238	 1.2648211973	-0.3308915129	 0.26201
C	-6.9211105233	 1.8104194681	-0.8163060216	-0.400949
H	-0.3466297477	 1.4227047299	 1.1651768474	 0.140474
H	-1.3638906036	 2.8188951761	 0.8482778114	 0.128337
H	-2.3031988931	-0.0908378674	 0.5662255706	 0.129992
H	-2.6096570218	 0.917221899	 1.9819065178	 0.10679
H	-4.5924627435	-0.3215996992	-0.2313904258	 0.15204
H	-5.0367237677	 0.3729422318	 1.3259297609	 0.127533
H	-7.7659022568	 2.2825981174	-1.2541823774	 0.208634
52.1044	65.4453	101.0924	140.1362	209.4162	263.3087	309.5667	339.8029	342.9058	500.4056	534.0618	578.0985	626.895	677.7763	703.5747	795.5946	826.8	894.5117	956.1558	972.5912	977.3445	1009.3639	1046.9572	1102.1197	1130.0957	1202.9241	1231.978	1282.1075	1296.7379	1348.1976	1358.4404	1413.893	1457.2151	1477.5657	1489.3272	1494.6088	1515.3293	1860.4872	2247.8393	2956.6095	2980.7044	3024.9469	3042.8669	3058.8752	3121.0133	3284.8655	3504.2801	3504.7158
[O-]C(=O)CC[NH2+]CC#C	OC(=O)CCNCC#C	
InChI=1S/C6H9NO2/c1-2-4-7-5-3-6(8)9/h1,7H,3-5H2,(H,8,9)	InChI=1S/C6H9NO2/c1-2-4-7-5-3-6(8)9/h1,7H,3-5H2,(H,8,9)
