15
gdb 56561	2.94279	1.16691	0.8684	4.9783	62.76	-0.2808	-0.0114	0.2694	1238.2081	0.111394	-491.117408	-491.108165	-491.107221	-491.151765	33.419	
N	 0.0901521057	 1.2834285944	 0.1212559422	-0.514942
C	 0.0956458033	-0.0611058485	 0.0067894676	 0.368303
O	 1.0993799044	-0.7408149517	-0.1359078305	-0.373626
C	-1.2781204607	-0.7729264594	 0.020520924	 0.028931
O	-1.0642999861	-2.146762064	-0.0059912399	-0.42129
C	-2.1113675169	-0.3955322273	 1.2771068063	-0.059298
O	-2.5112947584	 0.9728243725	 1.2618495092	-0.415454
C	-3.2849148685	-1.2732338577	 1.4026132802	 0.282264
N	-4.2515334543	-1.9002383187	 1.4846897244	-0.308394
H	 0.9777729995	 1.7562018214	 0.1876714873	 0.270203
H	-0.7515333592	 1.750958131	 0.4250721382	 0.276208
H	-1.8501413985	-0.4388206323	-0.8619731797	 0.1002
H	-0.0966110489	-2.2416131046	-0.0894857581	 0.303828
H	-1.4873861188	-0.5236073158	 2.1675572711	 0.155587
H	-3.2781903524	 1.0577160507	 0.6826523376	 0.307483
67.592	76.9233	136.6892	242.2996	251.6267	290.5305	334.9624	348.435	389.8559	457.7994	489.9533	529.0856	550.6951	609.1036	620.066	670.3448	733.0264	863.947	940.6775	1061.9818	1069.0832	1131.0889	1167.5337	1227.7199	1267.0773	1302.6104	1348.6482	1381.8798	1407.2157	1459.4161	1618.5805	1790.6394	2362.2077	2961.907	3074.4343	3560.1427	3600.8445	3699.9468	3799.6168
NC(=O)C(O)C(O)C#N	NC(=O)[C@@H](O)[C@@H](O)C#N	
InChI=1S/C4H6N2O3/c5-1-2(7)3(8)4(6)9/h2-3,7-8H,(H2,6,9)	InChI=1S/C4H6N2O3/c5-1-2(7)3(8)4(6)9/h2-3,7-8H,(H2,6,9)/t2-,3-/m0/s1
