17
gdb 7327	4.23064	1.15367	0.96952	1.3578	67.31	-0.2386	-0.0596	0.179	1228.3496	0.140065	-401.059241	-401.049789	-401.048845	-401.094832	32.078	
C	-0.0504107032	 1.3223624281	-0.4069122905	-0.373611
C	-0.0789967925	 0.1211166812	 0.5404459049	-0.145651
N	-1.3524282948	-0.5758719487	 0.5214985546	-0.303063
C	-1.5085728836	-1.8405526001	 0.076857391	 0.300592
O	-0.6295301644	-2.5763021605	-0.3414478767	-0.372554
C	-2.9827914941	-2.3069591457	 0.1485100584	 0.312417
C	-3.2366396233	-3.714391646	-0.317069596	-0.470184
O	-3.8408131331	-1.5564686914	 0.5571952752	-0.30471
H	 0.920156871	 1.8249444596	-0.3520317924	 0.123341
H	-0.2177902291	 1.0064089781	-1.4405048139	 0.132676
H	-0.8220523713	 2.0541566087	-0.1448506027	 0.118242
H	 0.6752818111	-0.6163136344	 0.2558886401	 0.148365
H	 0.1410209889	 0.4441026533	 1.5656679853	 0.113014
H	-2.2003030479	-0.1133129268	 0.820179523	 0.262011
H	-2.89334188	-3.8289429548	-1.350020826	 0.160799
H	-2.6369010146	-4.4124786523	 0.2755357856	 0.160706
H	-4.297529069	-3.9502676984	-0.2337602699	 0.13761
34.1831	67.7746	86.031	109.8288	172.3328	249.4493	318.3725	337.2405	401.9906	461.3731	523.6418	605.2476	632.1913	732.0077	776.3567	873.1197	896.9182	971.1284	1032.7174	1067.2705	1115.8115	1178.6256	1192.04	1273.9588	1323.4856	1384.4447	1392.3851	1411.7722	1449.5742	1456.6251	1488.5825	1492.4616	1504.5621	1556.9049	1779.0832	1805.7022	3028.1371	3036.8465	3051.0345	3098.2069	3112.1186	3116.1273	3123.4712	3163.3055	3597.0037
CCNC(=O)C(C)=O	CCNC(=O)C(=O)C	
InChI=1S/C5H9NO2/c1-3-6-5(8)4(2)7/h3H2,1-2H3,(H,6,8)	InChI=1S/C5H9NO2/c1-3-6-5(8)4(2)7/h3H2,1-2H3,(H,6,8)
