17
gdb 20796	3.08456	1.82644	1.24916	2.3345	70.89	-0.1969	0.0285	0.2255	986.8664	0.144075	-360.064178	-360.055799	-360.054855	-360.097738	29.963	
C	 0.1011125379	 1.5523471699	 0.2017107131	-0.365963
C	 0.003754372	 0.0262074413	 0.0158643889	-0.310937
C	-1.3954963133	-0.4904282602	-0.0723988292	 0.341853
C	-2.1952428807	-0.7631769918	-1.1720317926	 0.07789
N	-1.8066037154	-0.6542114568	-2.5284541013	-0.614675
C	-3.4135518921	-1.2307807342	-0.6279502999	-0.064727
N	-3.3883433148	-1.2527277269	 0.7033744682	-0.233654
N	-2.16682643	-0.7873424853	 1.0125019192	-0.256427
H	 1.146393768	 1.873627966	 0.2494749927	 0.115734
H	-0.3788566354	 2.0811600782	-0.6276575535	 0.118287
H	-0.3940459156	 1.8711018454	 1.124446591	 0.11722
H	 0.5227902683	-0.264892171	-0.9041878595	 0.12785
H	 0.5307398915	-0.4732487771	 0.8389177641	 0.105026
H	-1.6172863831	 0.3041611778	-2.800148518	 0.240883
H	-2.5283707472	-1.0087002774	-3.1439978863	 0.239542
H	-4.2970687712	-1.5613978284	-1.156341279	 0.096521
H	-1.9067335786	-0.7117698096	 1.981227062	 0.265577
42.5089	87.9119	148.0025	189.2762	265.5377	292.8903	388.368	434.4223	483.2497	633.0353	696.602	703.1475	721.1075	784.417	814.333	861.4482	948.8507	972.3907	1057.5067	1080.3927	1100.6663	1151.8271	1230.1676	1256.2898	1270.7549	1343.7412	1356.7882	1399.3266	1408.3445	1447.7696	1480.0382	1496.5063	1503.5202	1534.8295	1637.0913	1658.4235	3023.7624	3035.1507	3068.7414	3107.6443	3109.3064	3231.5768	3514.4704	3599.4577	3670.125
CCC1=C(N)C=NN1	CCc1c(N)cn[nH]1	
InChI=1S/C5H9N3/c1-2-5-4(6)3-7-8-5/h3H,2,6H2,1H3,(H,7,8)	InChI=1S/C5H9N3/c1-2-5-4(6)3-7-8-5/h3H,2,6H2,1H3,(H,7,8)
