23
gdb 59058	2.07296	1.25156	1.01066	2.1964	82.33	-0.2297	0.0629	0.2925	1340.7236	0.202012	-425.41372	-425.402607	-425.401663	-425.449294	41.47	
C	-0.6233022405	 0.2802933795	-2.7238290398	-0.387946
C	-0.2452978907	-0.5897696984	-1.5148531796	 0.02044
C	 0.8504293955	 0.0756829866	-0.6691864597	-0.390904
C	-1.4757982941	-0.8793750123	-0.6710883167	-0.051187
C	-2.4934913057	-1.9259206673	-1.0644780249	-0.021897
O	-2.2107943577	-2.6595864487	-2.2249339937	-0.411796
C	-1.6522432787	-2.1081972156	 0.188381665	 0.314588
C	-0.6228146144	-3.2111461386	 0.2643250815	-0.462224
O	-2.2892119849	-1.8226504153	 1.4118730078	-0.460702
H	 0.2557430517	 0.4970772813	-3.34025525	 0.103059
H	-1.3646785656	-0.224667949	-3.3489289201	 0.129516
H	-1.0462400841	 1.2389761733	-2.4000118996	 0.105895
H	 0.1446667654	-1.5364425309	-1.9025760065	 0.081232
H	 1.1424414957	-0.5524372744	 0.1780687	 0.114252
H	 1.7447591962	 0.2709957474	-1.2706054368	 0.106507
H	 0.5051597705	 1.0352568479	-0.2664056631	 0.111621
H	-1.9172684733	 0.0085538621	-0.2227294662	 0.092727
H	-3.5450492018	-1.6800607826	-0.9129409219	 0.084515
H	-2.5701204755	-3.5463141367	-2.1171724144	 0.287939
H	-0.2022442488	-3.4388372449	-0.716812122	 0.134038
H	 0.1900775031	-2.9416955773	 0.9454125832	 0.128823
H	-1.082781608	-4.1319284372	 0.6481960862	 0.09758
H	-2.7775561443	-2.6092505792	 1.6816200915	 0.273924
57.6759	119.4804	152.8951	197.9406	222.6783	227.431	234.3034	254.639	294.915	301.5629	317.2392	377.6958	402.2561	417.9407	499.9127	512.4496	601.7141	728.4855	815.7295	874.8509	898.1778	928.3789	961.117	972.3568	989.6395	1034.7813	1069.0785	1109.5895	1134.5837	1152.942	1183.2254	1198.6391	1238.766	1276.539	1290.1532	1305.4854	1340.4779	1357.634	1387.2714	1397.071	1411.6514	1418.9587	1460.961	1487.4024	1490.5616	1493.143	1500.374	1507.7624	1512.7316	3017.1228	3023.8873	3027.882	3051.5945	3084.9937	3086.7592	3093.0766	3095.5555	3102.7144	3115.6213	3131.2434	3136.4461	3780.677	3804.3326
CC(C)C1C(O)C1(C)O	CC(C)[C@H]1[C@@H](O)[C@]1(C)O	
InChI=1S/C7H14O2/c1-4(2)5-6(8)7(5,3)9/h4-6,8-9H,1-3H3	InChI=1S/C7H14O2/c1-4(2)5-6(8)7(5,3)9/h4-6,8-9H,1-3H3/t5-,6+,7+/m0/s1
