17
gdb 34819	5.08418	1.08294	1.00089	2.0708	80.61	-0.2406	0.0393	0.2798	1198.7336	0.134125	-384.555206	-384.54738	-384.546436	-384.587298	30.961	
C	-0.0610985775	-1.2350505304	-0.080513688	-0.42281
C	-0.0198834998	-0.0352276351	-0.0196920964	 0.322171
C	-0.0128553695	 1.4097411886	 0.0130168858	-0.227483
C	 0.1239297836	 2.1309134802	 1.3967106122	-0.045249
O	 1.5235920795	 1.6558047957	 1.4799502867	-0.305869
C	 1.3627193211	 2.1543445333	 0.0952896316	-0.04526
C	 0.6316990809	 3.3773293535	 0.661976639	 0.466707
C	-0.0005999572	 4.5949051079	 0.0820945058	-0.361981
C	 1.1031317297	 4.6994181786	 1.1345836633	-0.372462
H	-0.0832337205	-2.2958493026	-0.1206651015	 0.19127
H	-0.7421627407	 1.8498367369	-0.6732680773	 0.105426
H	-0.503542502	 2.032668969	 2.2823776259	 0.105281
H	 2.2179006011	 2.0841430341	-0.5766597361	 0.105281
H	 0.2437515522	 4.8725800936	-0.938337069	 0.120075
H	-1.0125478545	 4.8487373897	 0.3814637301	 0.120075
H	 0.8233373263	 5.0231607299	 2.1317097965	 0.122415
H	 2.0791903872	 5.046986817	 0.8123086914	 0.122414
117.6443	129.5509	218.9491	252.3307	290.9374	400.816	461.8091	509.9	590.4368	629.4205	637.4777	729.0964	740.0979	766.6363	775.3616	870.3255	885.3166	922.0121	922.2127	951.2042	1003.8305	1048.8259	1074.8809	1082.3622	1094.8317	1118.9352	1129.0045	1167.3474	1179.8184	1192.0102	1204.8424	1256.2464	1362.9906	1426.2459	1462.0069	1524.8532	2238.9468	3069.9718	3123.6493	3125.4635	3128.6065	3130.5475	3203.7039	3217.7704	3504.979
C#CC1C2OC1C21CC1	C#C[C@H]1[C@H]2O[C@@H]1C12CC1	
InChI=1S/C8H8O/c1-2-5-6-8(3-4-8)7(5)9-6/h1,5-7H,3-4H2	InChI=1S/C8H8O/c1-2-5-6-8(3-4-8)7(5)9-6/h1,5-7H,3-4H2/t5-,6+,7-
