21
gdb 111619	2.9617	1.21882	1.14736	1.1847	81.1	-0.2406	0.0709	0.3115	1183.7693	0.184475	-387.052926	-387.044771	-387.043827	-387.085664	32.468	
O	-0.2723287169	 1.5945851062	 0.1740539555	-0.430003
C	 0.0578273609	 0.2099569915	 0.0998057702	-0.124631
C	-1.2591384072	-0.5282409997	-0.0067416958	 0.017156
C	-1.8222425848	-1.1700849872	-1.2516914654	-0.065115
C	-0.8871401562	-1.6640235797	-2.3667426058	-0.256611
C	-0.1534573257	-2.9057212108	-1.8359265918	-0.026356
C	 0.8818107879	-2.7847270106	-0.7449230777	-0.304032
C	-0.5505523711	-3.1006008437	-0.3854521265	-0.027867
C	-1.5470662726	-2.0191659942	-0.0185713966	-0.090407
H	 0.5493933426	 2.0921490879	 0.2223870976	 0.282828
H	 0.7013225113	 0.0207581356	-0.7696448178	 0.090421
H	 0.6091193354	-0.1093604596	 0.9988439203	 0.091518
H	-2.006074509	 0.0207219392	 0.5636810123	 0.096514
H	-2.8326314455	-0.9011462097	-1.5425037785	 0.08079
H	-1.4928406492	-1.949185566	-3.232542933	 0.103271
H	-0.1974539037	-0.8867278729	-2.718516512	 0.104006
H	-0.0621455535	-3.7524243418	-2.5083150171	 0.080861
H	 1.5918863197	-3.6025738959	-0.6656975743	 0.104624
H	 1.31062091	-1.8253665376	-0.4938083694	 0.112579
H	-0.7614262781	-4.0884513959	 0.0088208836	 0.080205
H	-2.3617289043	-2.3411731451	 0.621462282	 0.080251
74.7999	158.2655	193.8481	246.4434	257.417	331.186	389.2407	464.4458	607.2039	663.6601	694.5766	700.3944	774.0615	798.3311	821.6589	846.7688	886.2203	945.3057	961.8826	987.435	1014.0571	1041.8191	1059.3536	1062.4353	1070.2235	1077.3898	1107.1049	1112.1511	1124.5573	1133.6273	1200.1609	1215.8484	1227.9698	1260.9569	1273.3303	1303.6348	1319.3942	1358.8356	1365.0247	1386.4076	1421.1406	1468.7305	1485.1337	1499.3822	1526.9196	2967.8008	3013.2168	3030.6701	3073.8553	3123.842	3138.172	3149.3585	3155.9737	3159.3427	3173.8852	3244.2978	3826.1021
OCC1C2CC3CC3C12	OC[C@H]1[C@H]2C[C@H]3C[C@H]3[C@@H]12	
InChI=1S/C8H12O/c9-3-7-6-2-4-1-5(4)8(6)7/h4-9H,1-3H2	InChI=1S/C8H12O/c9-3-7-6-2-4-1-5(4)8(6)7/h4-9H,1-3H2/t4-,5-,6-,7+,8-/m1/s1
