19
gdb 110621	2.79129	1.56965	1.21135	3.1168	74.72	-0.2374	0.059	0.2964	1059.2823	0.159379	-422.966161	-422.95782	-422.956876	-422.998917	32.61	
O	 0.5114536079	 0.3006767217	 0.6869043494	-0.432013
C	-0.1631866284	 0.2815253401	-0.5582564494	-0.087674
C	-1.5227735409	-0.4002183638	-0.4803956163	-0.046978
C	-2.0101302479	-1.4614779905	-1.4401852914	-0.07763
C	-0.8858965397	-2.3524422185	-1.9084628202	-0.151872
C	-1.0444832436	-3.7704786294	-1.3685198074	-0.35959
C	-0.5741388433	-2.6981952314	-0.4382164447	 0.418014
O	 0.6216763125	-2.7073085218	 0.2767619552	-0.470916
C	-1.6909547288	-1.8138092887	 0.0267830425	-0.136051
H	 0.7409902681	-0.6173860274	 0.8816805541	 0.292134
H	-0.2979744251	 1.3284843375	-0.8505580588	 0.100146
H	 0.4537846123	-0.192234814	-1.3333050064	 0.086205
H	-2.3222542977	 0.2464474178	-0.1237953709	 0.090395
H	-3.0012970481	-1.4254308725	-1.8787815856	 0.089247
H	-0.190795734	-2.1426488256	-2.7133530413	 0.092894
H	-2.0252905921	-4.2290767415	-1.2628872823	 0.112178
H	-0.2728553162	-4.4594569563	-1.7086925045	 0.1019
H	 1.1988193874	-3.4002031459	-0.0582307534	 0.290887
H	-2.3914070024	-2.0595478498	 0.8168617113	 0.088723
96.4997	145.813	151.6271	201.9638	283.0072	365.0795	403.5584	454.0162	499.9557	549.9036	624.1154	647.1514	748.0043	776.3375	838.0871	856.137	901.5127	918.9769	949.813	983.4464	996.2085	1030.8886	1044.1379	1070.95	1073.0475	1086.4952	1097.9443	1102.6719	1146.6393	1176.8003	1239.6393	1252.8781	1283.2072	1323.1617	1363.1827	1391.0552	1407.9367	1431.1399	1452.1238	1493.8496	1501.7489	3012.5618	3067.8289	3092.5658	3133.763	3166.7254	3170.0293	3177.8924	3181.0194	3764.2541	3831.92
OCC1C2C3CC3(O)C12	OC[C@H]1[C@H]2[C@@H]3C[C@]3(O)[C@@H]12	
InChI=1S/C7H10O2/c8-2-3-5-4-1-7(4,9)6(3)5/h3-6,8-9H,1-2H2	InChI=1S/C7H10O2/c8-2-3-5-4-1-7(4,9)6(3)5/h3-6,8-9H,1-2H2/t3-,4-,5-,6-,7+/m0/s1
