20
gdb 82072	2.55912	1.46281	1.0369	3.9464	81.32	-0.2227	0.0359	0.2586	1197.0082	0.169658	-403.147724	-403.138437	-403.137493	-403.182331	34.192	
C	-0.1235135695	 1.6103050774	-0.0511816556	-0.406021
C	 0.0610594785	 0.1013356547	-0.0066277412	 0.035338
C	 0.7370928463	-0.6127346574	-1.1967902496	-0.11566
C	 2.2082504247	-0.2737171328	-1.296573848	-0.292264
C	 1.7441468442	-1.204714316	-0.2178633699	 0.014045
N	 1.1408350768	-0.4409965468	 0.8577611387	-0.078422
C	 1.3203343216	-0.615297995	 2.1950463994	 0.360841
C	 0.389009674	 0.1832711368	 3.0944904187	-0.492948
O	 2.1862009753	-1.3570082375	 2.6296583314	-0.373799
H	 0.811547616	 2.1191954637	-0.2993949178	 0.125906
H	-0.8683751961	 1.8664625314	-0.8119327474	 0.124742
H	-0.4800924977	 1.9985149418	 0.9074750345	 0.124336
H	-0.8933754517	-0.3878841257	 0.2287360226	 0.092405
H	 0.1973470921	-1.0999651755	-1.9964880345	 0.10221
H	 2.715107472	-0.7459239141	-2.1324134524	 0.121129
H	 2.5843028008	 0.7108010084	-1.0353173295	 0.117547
H	 2.0929599683	-2.2150460492	-0.0546269307	 0.125869
H	-0.6585906977	 0.0883600019	 2.7910974355	 0.126863
H	 0.5063858901	-0.1812224602	 4.1148425169	 0.146376
H	 0.648185072	 1.2466551738	 3.0667658389	 0.141508
48.6838	99.003	111.8541	170.5687	217.0757	228.3516	300.8493	358.6428	465.2476	516.8806	576.035	590.0788	635.3271	729.0471	775.153	814.1752	912.4351	922.7198	962.397	980.8295	998.0415	1048.3963	1052.0717	1065.6539	1076.5637	1105.0289	1109.9082	1139.0056	1187.7307	1195.6272	1259.9068	1299.4167	1353.1864	1376.3374	1382.8055	1411.4846	1451.5792	1471.717	1477.9869	1484.1389	1492.4953	1500.5804	1758.9107	3015.3839	3041.5048	3043.4189	3105.8729	3109.1004	3119.9536	3124.049	3158.0869	3206.8949	3210.6289	3222.5155
CC1C2CC2N1C(C)=O	C[C@H]1[C@H]2C[C@H]2N1C(=O)C	
InChI=1S/C7H11NO/c1-4-6-3-7(6)8(4)5(2)9/h4,6-7H,3H2,1-2H3	InChI=1S/C7H11NO/c1-4-6-3-7(6)8(4)5(2)9/h4,6-7H,3H2,1-2H3/t4-,6+,7+/m0/s1
