19
gdb 82880	2.72923	1.74248	1.39404	0.6923	74.31	-0.2425	0.0755	0.318	978.2525	0.161055	-422.990792	-422.983483	-422.982538	-423.021919	30.72	
O	 0.0781049564	 1.4882530099	-0.0558946318	-0.443757
C	 0.0195586238	 0.0847477063	 0.023839414	 0.142087
C	 0.1368805935	-0.6396539869	 1.404350933	-0.139133
C	-0.9210510118	 0.1109731236	 2.2328691993	-0.204533
C	-2.1090344766	-0.3428948589	 1.354413302	-0.047365
C	-2.0816894886	-1.8836821176	 1.5759300991	-0.303703
C	-0.7734122607	-1.7791421152	 0.7852294519	 0.419651
O	-0.0616842679	-2.8494050664	 0.2590621324	-0.487767
C	-1.3591224553	-0.558897259	-0.0293898503	-0.134798
H	 1.0029030224	 1.7551539807	-0.0402344453	 0.281202
H	 0.676390624	-0.3913171706	-0.7154764103	 0.07584
H	 1.1018347901	-0.8789407634	 1.8499854644	 0.06202
H	-1.0084244097	-0.2389407794	 3.2649600469	 0.087553
H	-0.7521388422	 1.1893624684	 2.2255460127	 0.106602
H	-3.0417710841	 0.2142440058	 1.404314253	 0.068206
H	-2.0771355186	-2.2639163048	 2.6028201804	 0.091193
H	-2.8492158235	-2.4014609837	 0.9894721672	 0.084877
H	-0.66823037	-3.3916810234	-0.25650618	 0.279858
H	-1.9610193412	-0.6552842152	-0.9323111387	 0.061968
184.332	277.2167	280.4826	294.4609	328.1003	365.4476	465.1922	494.8988	567.1844	601.8799	680.1747	724.3524	791.554	829.5144	880.8603	896.2567	908.881	957.4142	969.0992	987.3654	990.7774	1042.0428	1054.4267	1067.0688	1102.2806	1130.2145	1151.9563	1167.8859	1173.8037	1198.5303	1233.1266	1245.2189	1261.7865	1281.9383	1296.3169	1326.3065	1343.068	1377.8659	1438.8194	1487.2681	1508.8508	3026.013	3031.7138	3063.3704	3086.9228	3119.1204	3121.0303	3123.9058	3141.4701	3804.566	3812.8054
OC1C2CC3CC2(O)C13	O[C@H]1[C@H]2C[C@@H]3C[C@@]2(O)[C@H]13	
InChI=1S/C7H10O2/c8-6-4-1-3-2-7(4,9)5(3)6/h3-6,8-9H,1-2H2	InChI=1S/C7H10O2/c8-6-4-1-3-2-7(4,9)5(3)6/h3-6,8-9H,1-2H2/t3-,4-,5+,6+,7+/m1/s1
