19
gdb 61569	2.81654	1.09447	0.8466	3.1843	72.06	-0.2585	0.017	0.2755	1349.8312	0.159761	-456.3492	-456.339985	-456.339041	-456.383569	34.53	
N	-1.1766839993	 1.1008461522	-0.1254055618	-0.52411
C	-0.4092663666	-0.0051265832	 0.0102494123	 0.367039
O	 0.8127531953	 0.0332422434	 0.0352670933	-0.380701
C	-1.1159149469	-1.3771664997	 0.0795127613	 0.037779
O	-0.1245201272	-2.3664980274	 0.1163835204	-0.437896
C	-2.062637456	-1.5631143832	 1.2871764104	-0.236142
C	-3.3805143194	-0.8359602834	 1.1692814163	 0.010278
C	-4.2316853865	-0.536630477	 2.3421756144	-0.254658
N	-3.5358224923	 0.5621145295	 1.6413137934	-0.332637
H	-0.7056486475	 1.9914150449	-0.1469704892	 0.26463
H	-2.1792749581	 1.0900657153	-0.0099519194	 0.289472
H	-1.71731446	-1.4783812185	-0.8409560045	 0.089584
H	 0.7137041276	-1.8704811256	 0.0898970547	 0.293911
H	-2.2468103429	-2.6419037365	 1.3485142127	 0.130186
H	-1.545738301	-1.2812039518	 2.2133059995	 0.101284
H	-3.8998080793	-1.0067194229	 0.2264390494	 0.099813
H	-5.3131602008	-0.5345443414	 2.2451570394	 0.126731
H	-3.8645615758	-0.8224565533	 3.3242461481	 0.121527
H	-2.7136578833	 0.8187490387	 2.1846031194	 0.233911
61.9394	91.3483	147.1899	172.5623	231.1353	330.1416	345.0498	398.2745	432.6222	454.4774	485.1073	536.9159	592.5746	660.2139	731.3993	771.4299	806.6314	838.8979	940.3722	959.4713	1006.6036	1031.9065	1069.6886	1113.6028	1128.3075	1139.8831	1148.1311	1185.2151	1256.075	1267.3983	1283.484	1304.8983	1316.2688	1358.7321	1384.4675	1435.3244	1468.1943	1480.3071	1511.1599	1634.5856	1773.7133	2950.448	3028.7928	3073.0356	3111.1136	3114.3581	3200.8176	3483.7219	3562.5392	3619.5598	3696.8659
NC(=O)C(O)CC1CN1	NC(=O)[C@@H](O)C[C@H]1CN1	
InChI=1S/C5H10N2O2/c6-5(9)4(8)1-3-2-7-3/h3-4,7-8H,1-2H2,(H2,6,9)	InChI=1S/C5H10N2O2/c6-5(9)4(8)1-3-2-7-3/h3-4,7-8H,1-2H2,(H2,6,9)/t3-,4-/m0/s1
