19
gdb 78191	2.15883	1.6247	1.42162	1.6388	80.44	-0.2459	0.0362	0.2821	1047.6175	0.157897	-385.822544	-385.813627	-385.812683	-385.855528	34.58	
C	-0.2607767447	 1.5873807164	-0.1125744279	-0.41822
C	 0.0259760915	 0.092569263	-0.0596995743	 0.009042
C	 0.683614146	-0.5994150405	-1.262309355	-0.111243
C	 2.1258589236	-0.2240670804	-1.438334269	 0.120785
O	 2.633306012	 1.0646674787	-1.2411822164	-0.429871
C	 1.7893459642	-1.1912775382	-0.3506599276	-0.142298
C	 1.1771336757	-0.4811116386	 0.8733991799	-0.212271
C	 2.0309561119	 0.4272248824	 1.623272236	 0.323537
C	 2.7459075779	 1.1743313713	 2.2411323099	-0.468484
H	 0.6297401024	 2.1537631601	-0.3854960562	 0.144782
H	-1.0357334574	 1.7914005743	-0.8598175051	 0.111259
H	-0.6272317935	 1.9476828969	 0.8547103014	 0.111274
H	-0.8906922947	-0.4422887712	 0.2066303972	 0.080704
H	 0.1307679932	-1.0884500363	-2.0564191627	 0.08666
H	 2.5779473825	-0.7065618626	-2.3045703066	 0.097226
H	 3.0120777262	 1.1153887219	-0.3555162515	 0.293846
H	 2.2057222244	-2.1910634288	-0.3113979547	 0.092677
H	 0.7500405828	-1.2106436168	 1.5671121625	 0.10894
H	 3.3670987461	 1.8295638284	 2.8005639701	 0.201656
121.2555	131.3098	196.0308	208.7784	236.4526	252.9202	328.0905	363.623	448.0969	528.866	552.287	626.4542	633.0226	678.1647	718.7081	745.529	786.8878	807.0688	907.0271	954.1988	983.1911	998.008	1009.5527	1053.4549	1081.5867	1103.4214	1120.4561	1135.0478	1199.2793	1209.5764	1274.8837	1287.5888	1330.3424	1342.4397	1371.0076	1374.7758	1408.6354	1445.8693	1489.4147	1507.5942	2217.7894	3035.8017	3048.3552	3068.0442	3093.9045	3111.1239	3154.1752	3169.7449	3180.8366	3499.9581	3778.2396
CC1C2C(O)C2C1C#C	C[C@H]1[C@H]2[C@@H](O)[C@H]2[C@H]1C#C	
InChI=1S/C8H10O/c1-3-5-4(2)6-7(5)8(6)9/h1,4-9H,2H3	InChI=1S/C8H10O/c1-3-5-4(2)6-7(5)8(6)9/h1,4-9H,2H3/t4-,5+,6-,7+,8-/m1/s1
