20
gdb 17844	4.38209	1.81239	1.56515	0.1125	78.97	-0.2776	0.0955	0.3731	894.9607	0.179188	-311.807365	-311.800616	-311.799672	-311.838139	27.725	
C	 0.0809701314	 1.4351272452	-0.486788054	-0.215169
C	 1.4008661025	 1.6570415218	 0.3025535205	-0.319159
C	 1.3141684731	 0.1874051368	 0.7871439252	 0.455806
C	-0.1594383144	 0.1236510644	 0.3111251268	-0.319159
C	 2.3713101552	-0.8904749785	 0.3965223855	-0.102599
C	 3.2850581407	-0.2818417263	 1.4998245049	-0.225801
C	 1.8641313497	-0.3646985998	 2.1309884592	-0.114055
C	 1.7530617182	-1.7874124777	 1.5082405932	-0.225801
H	-0.6820995606	 2.2120573999	-0.4032239346	 0.095067
H	 0.2626181261	 1.2443599689	-1.5477977383	 0.101125
H	 2.2820999282	 1.9478393374	-0.2756205564	 0.096682
H	 1.279143607	 2.3717138084	 1.1233528272	 0.098106
H	-0.8672881638	 0.2623062093	 1.1351443535	 0.098106
H	-0.4687369634	-0.7555478909	-0.2605087	 0.096682
H	 2.6626865336	-1.1926018533	-0.6117625878	 0.064178
H	 4.0428967485	-0.9472771748	 1.9228237163	 0.085473
H	 3.6907641514	 0.7156207701	 1.316618129	 0.091958
H	 1.5674400757	-0.0571808278	 3.1361812614	 0.061133
H	 0.7476894537	-2.1766883225	 1.3327860353	 0.091958
H	 2.4075774149	-2.5543886025	 1.9318074131	 0.085473
90.6185	224.9801	245.3609	327.4972	444.0072	549.0654	578.7766	694.2914	759.3422	774.4906	814.4051	854.5513	872.9133	900.0924	903.1331	945.2301	959.8225	986.0704	1015.3058	1026.8952	1039.0027	1047.7124	1102.2845	1114.0621	1132.3613	1150.2125	1182.8371	1187.508	1195.3021	1208.0778	1229.1815	1252.5312	1255.1315	1256.8277	1279.0442	1280.3185	1326.1144	1472.2938	1481.1711	1499.0308	1504.3721	1535.3313	3040.7028	3044.3676	3051.6006	3052.8078	3061.0068	3082.8688	3087.8988	3091.0292	3093.0423	3116.4207	3116.4278	3118.8772
C1CC2(C1)C1CC2C1	C1CC2(C1)[C@H]1C[C@@H]2C1	
InChI=1S/C8H12/c1-2-8(3-1)6-4-7(8)5-6/h6-7H,1-5H2	InChI=1S/C8H12/c1-2-8(3-1)6-4-7(8)5-6/h6-7H,1-5H2/t6-,7+
