21
gdb 114666	3.29717	1.17654	1.05815	1.6185	78.58	-0.2424	0.0895	0.3319	1247.7779	0.182696	-424.196616	-424.187988	-424.187044	-424.229784	33.11	
C	 0.0075644417	 1.3143599767	-0.1265398681	-0.235281
O	-0.039163312	-0.0425226687	 0.2510985366	-0.250677
C	-1.3139215187	-0.6268509045	 0.1125514894	 0.14178
C	-1.7071475737	-1.0410471524	-1.3496995047	-0.264126
C	-1.7915873588	-2.5564990637	-1.0931538348	 0.066977
O	-2.5466416739	-2.5934709066	 0.1654284335	-0.307665
C	-1.316666561	-2.0428812218	 0.7255849696	 0.026875
C	-0.5034167122	-2.8820369566	-0.2904633783	 0.034746
C	-0.3099574275	-4.3451298358	 0.0764258449	-0.428507
H	 1.0249010151	 1.668311734	 0.057329448	 0.12709
H	-0.2288202808	 1.4575580205	-1.1916866859	 0.107212
H	-0.6937217084	 1.9232954671	 0.465106779	 0.106599
H	-2.0781900813	 0.0086289258	 0.5802482128	 0.071029
H	-2.6676979092	-0.6324829845	-1.6697780314	 0.105758
H	-0.9358898389	-0.7627955584	-2.0733913831	 0.103805
H	-2.1898710528	-3.2091155851	-1.8711421201	 0.074987
H	-1.2241970251	-2.1402808979	 1.8073765123	 0.076606
H	 0.4212618744	-2.4240634106	-0.6512028082	 0.081895
H	-1.2435478242	-4.7787491926	 0.4440365772	 0.133704
H	 0.0207298923	-4.9254201763	-0.7918066302	 0.111873
H	 0.4518730151	-4.4547501187	 0.8555920816	 0.115323
100.3862	121.5149	182.3791	232.089	251.2327	273.6684	290.4885	382.6413	457.3701	491.7475	597.0187	712.5379	792.1182	834.1666	847.0938	873.7838	916.5684	944.2949	971.4604	999.6888	1023.2996	1046.4618	1069.8852	1083.2881	1096.3903	1144.9426	1165.7772	1184.6717	1209.9875	1224.1761	1233.8096	1235.0688	1257.9209	1303.0049	1306.0465	1318.3204	1379.7574	1399.5842	1407.8597	1474.7658	1481.509	1488.4175	1497.3245	1505.3121	1509.3882	2975.4396	3011.438	3023.0127	3034.2514	3064.8081	3077.9144	3093.5223	3112.7738	3113.8058	3120.4427	3123.2189	3124.4596
COC1CC2OC1C2C	CO[C@H]1C[C@@H]2O[C@H]1[C@H]2C	
InChI=1S/C7H12O2/c1-4-5-3-6(8-2)7(4)9-5/h4-7H,3H2,1-2H3	InChI=1S/C7H12O2/c1-4-5-3-6(8-2)7(4)9-5/h4-7H,3H2,1-2H3/t4-,5-,6-,7-/m0/s1
