17
gdb 67997	2.88746	1.84652	1.34408	3.8748	73.1	-0.2267	0.0179	0.2446	964.4917	0.137603	-417.967581	-417.960482	-417.959538	-417.998759	28.767	
C	 0.0359882731	 1.437440311	 0.0283835517	-0.48339
C	-0.0421521851	-0.058306739	-0.0103772894	 0.446835
O	 0.901899629	-0.6406307919	-0.9107794269	-0.280818
C	 0.4395501732	-1.8821630785	-1.2795810739	 0.481558
N	 0.9102343603	-2.6068074759	-2.1956618263	-0.560814
C	-0.6928490006	-2.2086784401	-0.3377854075	-0.152321
N	-0.0175290417	-2.2616805417	 1.0288427347	-0.328304
C	-0.4267935124	-0.8586277803	 1.2221669414	-0.098425
C	-1.3272512195	-0.8278884219	-0.0129001365	-0.181035
H	 1.0259949891	 1.7650719529	 0.3594904713	 0.139823
H	-0.1537800724	 1.8597851459	-0.9629764053	 0.134929
H	-0.7074904187	 1.8384327153	 0.723259525	 0.126512
H	 1.7043515544	-2.1476368085	-2.6461370897	 0.223808
H	-1.2919074203	-3.0717211914	-0.6106220626	 0.103296
H	-0.6031578014	-2.8428425187	 1.6245816286	 0.228959
H	-0.5221077655	-0.4115091202	 2.205691553	 0.098719
H	-2.3176904817	-0.4482422069	-0.2332407375	 0.100669
154.813	208.83	251.0266	280.319	356.5298	428.28	522.8803	580.2117	612.5396	711.8339	727.2108	805.707	823.9452	862.6165	866.9596	889.1147	906.2976	934.4715	949.7625	993.3573	1019.3684	1044.3529	1072.6357	1088.8388	1130.98	1150.6808	1180.2608	1211.3938	1247.7895	1302.8705	1321.1742	1373.2299	1416.9827	1437.6866	1478.4398	1503.9883	1795.3567	3042.1059	3112.3507	3118.7578	3170.3059	3175.4662	3185.076	3467.8765	3485.9954
CC12OC(=N)C3NC1C23	C[C@@]12O[C]([NH])[C@H]3N[C@@H]1[C@@H]23	
InChI=1S/C6H8N2O/c1-6-2-3(5(7)9-6)8-4(2)6/h2-4,7-8H,1H3	InChI=1S/C6H8N2O/c1-6-2-3(5(7)9-6)8-4(2)6/h2-4,7-8H,1H3/t2-,3-,4+,6-/m0/s1
