18
gdb 37784	2.69468	2.04566	1.48902	1.3992	75.4	-0.2318	-0.0097	0.2221	913.9722	0.150774	-401.892448	-401.885763	-401.884819	-401.923151	27.692	
C	 0.0121556147	 1.4609263447	-0.24554194	-0.193564
C	 1.5307558122	 1.3892286268	 0.0791668507	 0.12401
O	 2.1101783892	 2.2681503099	 1.0152885822	-0.265704
C	 2.0677193382	 1.8651874675	 2.37919577	-0.123748
C	 0.685143713	 1.5984613088	 2.9379567122	-0.085522
C	-0.1123824578	 0.6219461567	 2.5037412317	-0.067672
C	 0.2093587211	-0.2984912131	 1.3863053553	-0.036965
C	 1.3052619889	-0.087993172	 0.4076980011	-0.128413
N	-0.1505511198	-0.0220121811	-0.0361296589	-0.154123
H	-0.59497898	 2.0861118421	 0.4117552296	 0.111669
H	-0.2009875094	 1.7049499002	-1.2878299695	 0.109678
H	 2.122244485	 1.5017151644	-0.8334330511	 0.098332
H	 2.6931530838	 0.9709654153	 2.5217987546	 0.107131
H	 2.5429726951	 2.6837479276	 2.9249691009	 0.112722
H	 0.3487959423	 2.2381556962	 3.7497899678	 0.099802
H	-1.0835933704	 0.4722544044	 2.9715076495	 0.096404
H	-0.0032016382	-1.3451834029	 1.5973077031	 0.103033
H	 1.9549649422	-0.9019651657	 0.100839581	 0.09293
178.6913	217.3266	314.6566	343.4673	408.2583	444.2079	522.5625	623.8395	696.9715	734.9245	759.4976	786.3264	823.991	873.4234	906.348	951.4745	978.3466	995.7444	1010.3982	1020.9857	1038.7341	1058.7381	1076.5822	1111.7881	1153.6694	1192.2593	1216.1099	1250.3804	1257.3387	1291.8428	1299.2179	1351.5209	1383.4665	1405.6781	1414.833	1437.9873	1489.6048	1496.0999	1715.5841	2988.1499	3069.992	3075.8067	3096.635	3121.0385	3132.0849	3141.0649	3155.8085	3168.708
C1C2OCC=CC3C2N13	C1[C@H]2OCC=C[C@@H]3[C@H]2N13	
InChI=1S/C7H9NO/c1-2-5-7-6(9-3-1)4-8(5)7/h1-2,5-7H,3-4H2	InChI=1S/C7H9NO/c1-2-5-7-6(9-3-1)4-8(5)7/h1-2,5-7H,3-4H2/t5-,6-,7-,8?/m1/s1
