17
gdb 28107	4.94387	1.2403	1.00385	0.7771	85.34	-0.1837	-0.0095	0.1741	1168.7944	0.137266	-384.733474	-384.726036	-384.725092	-384.76524	28.963	
C	 0.1022311366	 1.4566072445	 0.022273611	-0.490606
C	-0.0730202176	-0.0182104435	-0.0017513508	 0.356251
C	-1.1708720176	-0.828141915	-0.130850395	-0.475157
C	-0.6802947787	-2.1668052895	-0.0773328102	 0.267702
C	 0.6695700131	-2.0604791906	 0.0792367143	 0.309887
O	 1.0758043542	-0.7723773364	 0.129440184	-0.237233
C	 1.3242190365	-3.3490300942	 0.1518196439	-0.213966
C	 0.3507822894	-4.280421188	 0.0367971199	-0.082918
C	-1.0197793536	-3.6286021559	-0.1202079888	-0.41578
H	 0.7528841728	 1.8015247535	-0.7901614218	 0.136116
H	-0.8688445477	 1.9444059428	-0.0891919587	 0.133724
H	 0.5493206804	 1.7971526733	 0.9638195472	 0.136116
H	-2.1859243037	-0.4794786187	-0.2475806157	 0.107225
H	 2.383897471	-3.5251807982	 0.2741191854	 0.108183
H	 0.4915670704	-5.3527433957	 0.0504478175	 0.100072
H	-1.6992391947	-3.9398279925	 0.6842792953	 0.130199
H	-1.4977284409	-3.935669266	-1.0598615575	 0.130186
124.5006	135.1268	259.5054	267.9651	275.8091	423.2848	475.432	546.0115	623.4708	669.3844	722.9739	726.538	761.576	802.6855	878.05	920.6453	923.6528	932.4118	952.743	1011.2761	1062.0271	1074.667	1129.523	1138.5639	1162.5655	1235.1015	1252.8005	1308.4293	1404.398	1419.8713	1436.5731	1468.2632	1470.3596	1496.4694	1527.2632	1592.1084	1629.9746	3024.2159	3028.1306	3055.3683	3071.4494	3126.4201	3218.8785	3240.9856	3245.501
CC1=CC2=C(O1)C=CC2	Cc1cc2c(o1)C=CC2	
InChI=1S/C8H8O/c1-6-5-7-3-2-4-8(7)9-6/h2,4-5H,3H2,1H3	InChI=1S/C8H8O/c1-6-5-7-3-2-4-8(7)9-6/h2,4-5H,3H2,1H3
