18
gdb 26229	1.71791	1.3442	0.76065	3.1696	85.56	-0.2386	-0.0705	0.168	1479.9144	0.143394	-439.13415	-439.122885	-439.121941	-439.17221	37.617	
C	 0.1905630681	 1.4396873146	-0.1803623767	-0.470365
C	-1.0102520139	 0.9766294629	-0.9372273058	-0.153342
N	 0.7989964064	-0.7708695886	 2.6499102215	-0.723706
H	 1.4960507338	-1.5101919997	 2.6864443698	 0.232765
H	 0.5510979683	-0.5791181574	 3.6171723531	 0.232762
H	-0.0274989792	-1.1866519857	 2.2267045623	 0.264785
C	-1.7720107457	-0.0858502453	-0.6481119805	 0.389895
C	-2.9449361976	-0.5895647644	-1.3363345851	-0.176359
C	-3.3830321462	-1.6829013949	-0.6878053632	-0.237829
C	-2.4896269379	-1.9204289158	 0.4579563187	 0.403619
O	-2.4795353315	-2.7626552742	 1.3108100196	-0.350943
O	-1.5264388062	-0.9124880557	 0.4286495038	-0.246181
H	 0.4173273274	 0.8079524911	 0.682344732	 0.193005
H	 1.0679810064	 1.4626522714	-0.8395394541	 0.132108
H	 0.04457288	 2.4705036311	 0.1675444559	 0.132103
H	-1.311495022	 1.5459750903	-1.8130805997	 0.103528
H	-3.3589677508	-0.1259340641	-2.2210417371	 0.135855
H	-4.2261741994	-2.3185278956	-0.9089484045	 0.138302
32.1265	61.4235	103.2446	105.6192	132.6149	145.6352	174.1003	204.02	222.7171	235.6936	374.1504	444.71	526.9807	641.5761	642.3508	743.5204	746.4797	819.8318	860.0016	890.6163	921.255	953.5998	1014.9841	1060.0589	1085.2704	1103.6082	1110.2376	1129.5643	1250.0764	1360.8672	1368.9821	1418.4938	1488.8645	1496.2252	1607.1228	1676.2133	1696.353	1738.8182	1865.5048	3014.7291	3060.8581	3120.129	3165.9616	3234.8069	3268.1563	3463.6739	3578.269	3582.7255
CC([NH3+])C1=CC=C([O-])O1	C[CH]C1=C[CH]C(=O)O1.N	
InChI=1S/C6H9NO2/c1-4(7)5-2-3-6(8)9-5/h2-4,8H,7H2,1H3	InChI=1S/C6H6O2.H3N/c1-2-5-3-4-6(7)8-5;/h2-4H,1H3;1H3
