17
gdb 30167	3.90676	1.36343	1.13528	2.3243	74.03	-0.191	0.0067	0.1977	1078.388	0.13907	-418.027521	-418.020251	-418.019307	-418.059403	28.171	
C	 0.1692659176	 1.4727172908	 0.0750242167	-0.39571
C	-0.0164487981	-0.0406418397	-0.0349807692	 0.046376
C	 0.7340992253	-0.6256126562	-1.3056661283	-0.372289
C	 1.9089292506	-1.2163407464	-0.617303113	 0.273021
C	 1.7690800121	-1.2613471824	 0.7186837416	 0.292741
N	 0.5470122749	-0.7512024995	 1.1700357201	-0.411648
N	 2.8349085435	-1.9125344689	 1.3014194974	-0.348434
C	 3.5611513161	-2.2362248976	 0.2689100347	 0.03848
O	 3.0654473971	-1.8683763671	-0.9455230863	-0.194864
H	 1.233579977	 1.7287411587	 0.1165029156	 0.129404
H	-0.2725159858	 1.9817734129	-0.7878606322	 0.12139
H	-0.3157366065	 1.8638735429	 0.9760380861	 0.118023
H	-1.0831792931	-0.2712579647	-0.1005169349	 0.089951
H	 0.11650919	-1.3730092673	-1.8202256264	 0.12047
H	 0.9568188957	 0.1674581298	-2.028710902	 0.114925
H	 0.6133746141	-0.1424301239	 1.9786692867	 0.232192
H	 4.5093761093	-2.7497615016	 0.2616782832	 0.145972
76.2482	176.8061	256.348	278.1486	348.4225	405.4226	463.4954	616.6763	636.5158	675.3514	731.7924	748.6385	793.3121	802.9535	860.9862	925.2741	928.7316	953.6022	1043.2782	1082.3465	1107.1146	1109.1176	1143.5205	1198.6565	1262.8283	1271.8465	1319.3981	1327.05	1373.7272	1392.1968	1405.4243	1459.2761	1492.6506	1494.8904	1502.3094	1516.8445	1694.0272	3013.6526	3028.0863	3049.1218	3063.8802	3098.9755	3106.917	3279.0761	3529.5817
CC1CC2=C(N1)N=CO2	C[C@H]1Cc2c(N1)nco2	
InChI=1S/C6H8N2O/c1-4-2-5-6(8-4)7-3-9-5/h3-4,8H,2H2,1H3	InChI=1S/C6H8N2O/c1-4-2-5-6(8-4)7-3-9-5/h3-4,8H,2H2,1H3/t4-/m0/s1
