18
gdb 64966	3.18086	1.29993	1.04056	2.1349	74.46	-0.2424	-0.0003	0.2421	1171.8242	0.146392	-439.065906	-439.05707	-439.056126	-439.099661	32.972	
O	 0.2091121673	 1.4130412508	 0.4027486265	-0.462564
C	 0.1357932518	 0.0449644669	 0.1304732549	 0.298019
C	-0.6183272039	-0.8539779964	 1.0999461723	-0.299434
C	-1.2383201029	-0.4710529071	-0.2124530324	-0.28185
C	 1.2978302645	-0.5803368471	-0.5852586292	 0.308133
O	 1.3251525716	-1.7536056928	-0.8939177349	-0.355902
N	 2.3839181613	 0.2813226666	-0.769854933	-0.112513
C	 2.387741104	 1.3506771052	-1.7612412592	-0.219602
C	 3.2524334009	 0.1382728886	-1.9186473418	-0.221083
H	 0.9849579125	 1.5573477231	 0.9568242989	 0.288116
H	-0.2521436532	-1.8668079412	 1.21550179	 0.138763
H	-0.986799787	-0.3648087291	 1.9940841182	 0.120423
H	-2.0265144423	 0.272618448	-0.2047412059	 0.127907
H	-1.2957929566	-1.225411166	-0.9877359338	 0.137651
H	 1.5176187857	 1.4398930138	-2.405203834	 0.139177
H	 2.8175130169	 2.2945042188	-1.4389115168	 0.126026
H	 4.3166516896	 0.2074872487	-1.7148405245	 0.126729
H	 2.96502318	-0.6097195206	-2.6520218752	 0.142005
62.6365	96.1154	170.2138	205.8761	277.3232	281.5846	314.1577	368.3941	424.5918	468.4292	543.284	690.1653	765.4744	782.8565	812.2906	836.1544	902.193	934.9402	946.7415	959.9951	1006.5026	1048.1242	1056.7746	1089.1788	1117.5045	1132.3599	1135.0689	1175.1965	1179.2264	1205.0207	1256.1576	1309.7576	1375.3433	1394.9928	1437.1114	1477.8352	1496.2414	1522.0759	1773.5124	3116.6824	3121.4244	3144.3542	3146.4468	3200.9342	3214.945	3237.8704	3251.1015	3793.5814
OC1(CC1)C(=O)N1CC1	OC1(CC1)C(=O)N1CC1	
InChI=1S/C6H9NO2/c8-5(7-3-4-7)6(9)1-2-6/h9H,1-4H2	InChI=1S/C6H9NO2/c8-5(7-3-4-7)6(9)1-2-6/h9H,1-4H2
