17
gdb 38092	2.82193	2.21382	1.86575	1.7695	75.18	-0.2281	-0.0077	0.2204	815.6353	0.139553	-384.666401	-384.660574	-384.65963	-384.696098	25.684	
O	-0.0493304934	 1.4208023571	 0.0671851361	-0.290254
C	 1.4149376624	 1.4412388132	-0.0014414972	 0.010603
C	 1.892334523	 1.2651275821	 1.4101042127	-0.046172
C	 1.3504112761	 0.2319875141	 2.0632047864	-0.055691
C	 0.5201159759	-0.7437306939	 1.2413909088	-0.175517
C	 1.5686420546	-1.6904797637	 0.6553087648	-0.078282
C	 2.0828915126	-1.1739356998	-0.468093945	-0.077949
C	 1.3386755217	 0.0638299236	-0.8397019271	-0.083845
C	 0.0175748802	-0.0041837471	-0.0586031445	 0.104489
H	 1.7877598452	 2.3268000296	-0.5171811703	 0.076065
H	 2.5904266918	 1.9624827484	 1.8595733735	 0.091805
H	 1.5553744073	 0.0114300337	 3.1059423098	 0.096827
H	-0.2670914684	-1.2313970532	 1.8202937284	 0.070603
H	 1.9169703326	-2.5778605065	 1.171173481	 0.100254
H	 2.9126316593	-1.5832624432	-1.0315189574	 0.096411
H	 1.2502087167	 0.282090127	-1.9045431098	 0.081213
H	-0.8883380477	-0.4418190912	-0.4862780203	 0.079439
287.7769	312.2756	433.5502	453.9228	530.9785	604.8749	666.1307	687.075	714.0239	740.1693	777.6004	805.1096	844.7948	911.5441	919.1482	946.5187	961.6204	966.4733	986.9734	996.0204	1009.2747	1017.9371	1073.1174	1112.104	1130.4884	1175.1039	1218.4481	1233.0433	1258.8462	1294.4	1300.4914	1325.5903	1339.9688	1378.5317	1389.2127	1641.1119	1666.8236	3074.076	3086.3933	3102.1475	3111.8475	3170.7328	3189.9092	3195.9164	3214.8004
O1C2C=CC3C=CC2C13	O1[C@H]2C=C[C@@H]3C=C[C@H]2[C@H]13	
InChI=1S/C8H8O/c1-3-6-7-4-2-5(1)8(6)9-7/h1-8H	InChI=1S/C8H8O/c1-3-6-7-4-2-5(1)8(6)9-7/h1-8H/t5-,6+,7-,8+/m0/s1
