19
gdb 116101	2.24948	1.60061	1.12174	2.859	73.14	-0.2301	0.0252	0.2553	1138.2929	0.160955	-456.341444	-456.332716	-456.331772	-456.375409	32.085	
C	 0.6131909108	 1.1132346603	-0.2773486649	-0.245439
O	 0.6321740605	-0.2766300959	 0.0128975084	-0.233014
C	 0.3959878164	-0.5874946866	 1.3534667824	 0.1834
C	 0.2481344155	-2.1247648461	 1.4591262566	-0.198747
N	 1.4630260784	-2.8083227343	 1.8978741964	-0.287275
C	 2.6569030003	-2.0695700498	 1.4838252309	-0.256956
C	 2.6713495253	-0.6901976276	 2.1004851129	 0.394523
N	 3.7135731554	-0.1594477762	 2.5795013162	-0.522834
O	 1.4385058618	-0.0858049304	 2.1972985782	-0.253144
H	 1.4189631551	 1.6464556639	 0.2387680737	 0.131323
H	 0.745963389	 1.2113634093	-1.3563034993	 0.134352
H	-0.3488613141	 1.5618557499	 0.0099022426	 0.111758
H	-0.4972014721	-0.0594122255	 1.7142579904	 0.082154
H	-0.5643321068	-2.3681814103	 2.1480151643	 0.112705
H	-0.0408773896	-2.4774881179	 0.4625528048	 0.128048
H	 1.4635854041	-2.8788979238	 2.9101097813	 0.227947
H	 3.5640608314	-2.5936824908	 1.7873369127	 0.135536
H	 2.655967886	-1.9925860815	 0.3906674339	 0.139676
H	 3.4956740624	 0.7612757233	 2.9683252684	 0.215987
68.5862	83.2636	127.6785	192.9831	250.7797	276.542	383.3849	411.3371	462.8103	474.9373	592.3794	658.6135	774.7206	803.3113	830.7216	849.7793	916.5095	933.6999	991.3941	1009.7196	1045.837	1081.8768	1120.1905	1147.205	1160.8981	1180.4221	1205.5766	1240.916	1308.4586	1323.7515	1349.3856	1374.7604	1386.7966	1420.4444	1469.0858	1478.6141	1484.5729	1487.6352	1497.2798	1509.3643	1761.1714	2999.7471	3012.5749	3043.8066	3053.0711	3075.0214	3103.6647	3130.4339	3133.4475	3451.4789	3520.5101
COC1CNCC(=N)O1	CO[C@H]1CNC[C]([NH])O1	
InChI=1S/C5H10N2O2/c1-8-5-3-7-2-4(6)9-5/h5-7H,2-3H2,1H3	InChI=1S/C5H10N2O2/c1-8-5-3-7-2-4(6)9-5/h5-7H,2-3H2,1H3/t5-/m1/s1
