13
gdb 9814	3.22156	1.94766	1.3361	4.0202	59.87	-0.2944	-0.0956	0.1987	878.5823	0.093007	-398.596642	-398.588665	-398.587721	-398.62932	27.658	
C	-0.1630968116	 1.4714227161	-0.8670201423	-0.4697
C	-0.091741441	 0.2238730389	-0.0252885334	 0.286816
C	 0.9103790186	-0.8390139041	-0.2835203627	-0.22332
O	 1.0578544761	 0.0476817108	 0.8137131551	-0.241414
C	-1.3750126794	-0.1885502317	 0.636608661	 0.267067
O	-2.4499658825	 0.2868314829	 0.371743919	-0.268424
C	-1.2549740275	-1.2391566876	 1.6723348029	 0.239921
N	-1.2146560161	-2.0791691178	 2.4654987838	-0.311866
H	 0.819479416	 1.6923491135	-1.2882651324	 0.13648
H	-0.8838447256	 1.3433187059	-1.6784632366	 0.149414
H	-0.4878842242	 2.3231670502	-0.2632893744	 0.149257
H	 0.702355241	-1.8752550494	-0.0244967886	 0.147149
H	 1.5954598461	-0.6839891077	-1.1154267012	 0.138619
59.652	141.4294	160.7984	227.6706	266.4629	336.5958	352.9331	376.5494	466.9101	571.2826	670.834	760.8896	810.5532	862.0477	939.4837	1004.5545	1078.8886	1101.4215	1140.4264	1169.9725	1315.3723	1367.2416	1417.4785	1476.3114	1489.8145	1519.0958	1790.9209	2341.4716	3056.5569	3092.3979	3128.182	3143.816	3187.2544
CC1(CO1)C(=O)C#N	C[C@]1(CO1)C(=O)C#N	
InChI=1S/C5H5NO2/c1-5(3-8-5)4(7)2-6/h3H2,1H3	InChI=1S/C5H5NO2/c1-5(3-8-5)4(7)2-6/h3H2,1H3/t5-/m0/s1
