19
gdb 99264	4.21758	0.79587	0.74764	3.1512	69.2	-0.2709	-0.004	0.2668	1565.0786	0.156445	-497.33005	-497.3197	-497.318756	-497.366134	36.494	
C	 0.0728905635	 1.2666413097	 0.3808230536	-0.397546
C	-0.1663636619	-0.21662658	 0.0842764795	 0.134892
O	-0.1556915392	-1.0009510363	 1.2646413595	-0.432867
C	-1.4632275048	-0.3943613879	-0.7070312203	-0.11701
O	-1.7261179993	-1.7836016776	-0.9953738133	-0.231258
C	-2.4242843869	-2.4706517825	-0.0914023095	 0.430886
O	-2.8631035855	-2.025106414	 0.9483663369	-0.398088
C	-2.6355722316	-3.914163301	-0.5049356324	-0.140949
O	-3.4208399512	-4.5959251298	 0.4302242127	-0.418684
H	 0.9935720102	 1.3783191635	 0.9580492527	 0.135137
H	 0.1675923517	 1.8522107368	-0.5401572917	 0.114266
H	-0.750572309	 1.6847982408	 0.9708627357	 0.117918
H	 0.6627102096	-0.6005450663	-0.5237432851	 0.096017
H	-1.0402156428	-0.9849426331	 1.651092234	 0.292448
H	-2.3132980037	 0.0204458525	-0.1568124523	 0.131496
H	-1.3906041201	 0.0926354071	-1.6818697488	 0.126083
H	-3.103263595	-3.9250832186	-1.4999234717	 0.127989
H	-1.6426126823	-4.3762743158	-0.6175754294	 0.131933
H	-3.5808300218	-3.9674178875	 1.1490721999	 0.297338
58.389	68.3696	79.6773	130.1277	225.6904	233.0115	256.8093	307.269	334.8699	361.9316	373.9483	432.2989	475.7726	559.8917	598.0166	696.4147	844.0371	888.8303	928.5007	948.5457	1023.6682	1040.2373	1101.0924	1115.3698	1131.0216	1171.5518	1243.8122	1252.6483	1282.375	1316.658	1338.6784	1364.3126	1403.2389	1416.0983	1440.1704	1464.3209	1481.3702	1493.8541	1497.1385	1497.3606	1783.3432	2996.0255	3023.4679	3031.0108	3033.6965	3063.3387	3099.1245	3125.9474	3127.1303	3730.8878	3779.8699
CC(O)COC(=O)CO	C[C@@H](O)COC(=O)CO	
InChI=1S/C5H10O4/c1-4(7)3-9-5(8)2-6/h4,6-7H,2-3H2,1H3	InChI=1S/C5H10O4/c1-4(7)3-9-5(8)2-6/h4,6-7H,2-3H2,1H3/t4-/m1/s1
