21
gdb 104418	2.01651	1.6097	1.32872	1.3399	74.03	-0.251	0.0842	0.3352	1118.3816	0.181279	-461.371406	-461.361651	-461.360707	-461.405946	36.122	
C	 0.0943091474	 1.1550770175	 0.3127357583	-0.256522
O	 0.135676019	-0.2304932319	 0.0214224775	-0.305658
C	 0.6822040508	-0.6003184708	-1.2463972894	 0.44807
C	-0.1351261706	-0.0560185843	-2.4074780931	-0.448068
O	 2.0115377839	-0.1658843749	-1.375765088	-0.291502
C	 2.9172872698	-1.1377646756	-0.8121395159	-0.086666
C	 2.0651397896	-2.3286119151	-0.3564336758	-0.272333
C	 0.7647712191	-2.1423131188	-1.1620692733	 0.100792
O	-0.3832390603	-2.7421148417	-0.6205605909	-0.444995
H	 1.0518613085	 1.6339837576	 0.0803837236	 0.129312
H	-0.7070954559	 1.6683712354	-0.2348119656	 0.112658
H	-0.1028670171	 1.2463868849	 1.3836014957	 0.124289
H	-0.1170903578	 1.0361027468	-2.4297647874	 0.124224
H	 0.2788824636	-0.4184472101	-3.3512925672	 0.125289
H	-1.1697635413	-0.3968818037	-2.3182016932	 0.132234
H	 3.6312507979	-1.4150915305	-1.5961978255	 0.106387
H	 3.4779078136	-0.6763131673	 0.0076524699	 0.107313
H	 2.5452695854	-3.2908377996	-0.5437894816	 0.106987
H	 1.8279799281	-2.2625064366	 0.7086742416	 0.111814
H	 0.8842603112	-2.5415183915	-2.1749888935	 0.088238
H	-0.6515276351	-2.1690957996	 0.1103046038	 0.288137
75.5792	91.8084	139.8017	177.626	208.5303	213.3667	278.0189	329.9432	369.2803	414.9598	462.7256	526.6691	574.7241	609.5495	669.4779	746.5515	844.3079	886.2401	898.808	962.5327	1004.1591	1027.216	1083.0535	1108.0155	1126.7833	1137.1468	1178.1301	1184.1824	1202.0897	1213.939	1236.4221	1254.6712	1285.5202	1331.4336	1360.2821	1392.4511	1405.0376	1447.773	1469.2278	1481.8748	1486.2441	1487.253	1505.0265	1513.1523	1529.9547	3009.984	3031.8212	3053.0271	3056.9357	3063.9655	3074.2854	3077.6824	3118.1892	3124.9198	3131.2053	3135.2306	3763.5125
COC1(C)OCCC1O	CO[C@@]1(C)OCC[C@H]1O	
InChI=1S/C6H12O3/c1-6(8-2)5(7)3-4-9-6/h5,7H,3-4H2,1-2H3	InChI=1S/C6H12O3/c1-6(8-2)5(7)3-4-9-6/h5,7H,3-4H2,1-2H3/t5-,6+/m1/s1
