20
gdb 86882	3.19465	1.06759	0.90321	4.1993	79.51	-0.2822	0.0368	0.319	1322.1242	0.171816	-403.183974	-403.174821	-403.173877	-403.21824	34.268	
C	-0.2941496802	 1.6029180865	 0.0528142875	-0.412939
C	-0.0375054295	 0.1076196327	 0.2296202897	 0.041803
C	 0.5632184116	-0.5892041492	-1.0204011538	-0.237931
C	 1.5340113887	-1.6900154383	-0.4730171191	-0.121441
C	 1.289604845	-1.7144072743	 1.0608363022	-0.251223
C	 0.9311207805	-0.2561467152	 1.3682870949	 0.091702
O	 2.07270142	 0.5890403963	 1.2542671836	-0.434043
C	 1.3636077966	-2.9939065872	-1.1029476875	 0.257092
N	 1.2179389722	-4.0290251032	-1.5974996709	-0.331659
H	 0.6403943627	 2.1347587992	-0.1411004291	 0.137154
H	-0.9753925092	 1.7826023066	-0.7850144895	 0.114185
H	-0.7482859095	 2.0352698273	 0.9504649593	 0.112875
H	-0.9867938751	-0.3860399595	 0.4722372626	 0.079911
H	-0.2156488814	-1.0211600294	-1.6519573834	 0.122983
H	 1.1225089723	 0.1207888639	-1.6342691371	 0.119711
H	 2.5638573941	-1.3681638723	-0.6498004551	 0.130964
H	 0.4447322043	-2.3668381371	 1.3042656271	 0.121971
H	 2.1597804112	-2.0749470396	 1.6171413656	 0.104227
H	 0.4625845489	-0.1415322156	 2.3558668216	 0.067787
H	 2.6912276567	 0.3561834585	 1.953498121	 0.286871
40.2087	139.9804	151.5953	231.8056	246.6265	253.4671	296.9274	333.7772	396.6295	467.2851	545.9301	555.121	605.2563	685.1246	810.7438	851.1864	877.1852	906.1007	940.465	982.8931	1017.047	1036.1924	1049.0498	1069.0574	1117.0157	1156.6653	1184.792	1202.009	1249.7401	1281.4767	1303.1776	1307.0411	1326.4473	1347.6768	1356.3877	1385.5852	1406.0476	1425.468	1485.6012	1495.2569	1499.8734	1502.7694	2353.7933	3002.8843	3027.742	3039.3894	3055.1789	3068.683	3074.3728	3101.095	3102.4194	3119.2587	3127.6762	3823.2278
CC1CC(CC1O)C#N	C[C@H]1C[C@@H](C[C@H]1O)C#N	
InChI=1S/C7H11NO/c1-5-2-6(4-8)3-7(5)9/h5-7,9H,2-3H2,1H3	InChI=1S/C7H11NO/c1-5-2-6(4-8)3-7(5)9/h5-7,9H,2-3H2,1H3/t5-,6-,7+/m0/s1
