16
gdb 53480	6.11733	0.62228	0.5688	5.2949	77.1	-0.2487	-0.0304	0.2183	1880.1571	0.121	-437.908429	-437.898056	-437.897112	-437.946944	33.796	
C	 0.2471876654	 1.5530035071	 0.0065615641	-0.498161
C	 0.1159308972	 0.1038993645	-0.0001489789	 0.125189
C	-0.0026637132	-1.0925269563	-0.0054611961	 0.063155
C	-0.1438797	-2.5366514518	-0.0106675268	-0.524318
C	-1.6085209659	-3.0196351536	 0.0014302265	 0.452168
O	-2.5660140844	-2.3001335846	 0.015962587	-0.278156
N	-1.6825295387	-4.424857913	-0.0071065096	-0.359524
C	-2.8262107907	-5.2212614594	 0.0000508154	 0.167812
O	-3.9630571739	-4.8429159791	 0.0144619406	-0.248498
H	 1.2995885742	 1.8572229433	-0.0013958372	 0.147784
H	-0.2349456112	 1.9972570538	-0.870814574	 0.154058
H	-0.2187954413	 1.9876180063	 0.8973902445	 0.154087
H	 0.3463095317	-2.972582968	-0.8933661027	 0.150898
H	 0.3629366026	-2.9805718926	 0.8585795641	 0.151096
H	-0.8072877013	-4.92888211	-0.0199067018	 0.257081
H	-2.5384499705	-6.2931511266	-0.0107103351	 0.085327
18.6734	28.7745	65.3864	68.835	187.2291	199.3677	216.8491	278.8967	308.844	369.4935	418.6909	543.6399	565.5757	628.6126	781.0511	792.3597	947.9378	952.8921	1027.9821	1052.3431	1053.754	1071.0387	1151.8992	1187.652	1223.3699	1339.7002	1414.3248	1446.284	1451.7471	1476.2777	1478.3023	1505.0739	1824.8913	1883.8335	2387.161	2916.4569	3000.1666	3028.2921	3030.159	3091.584	3093.8896	3603.7347
CC#CCC(=O)NC=O	CC#CCC(=O)NC=O	
InChI=1S/C6H7NO2/c1-2-3-4-6(9)7-5-8/h5H,4H2,1H3,(H,7,8,9)	InChI=1S/C6H7NO2/c1-2-3-4-6(9)7-5-8/h5H,4H2,1H3,(H,7,8,9)
