14
gdb 67192	3.04728	1.59335	1.52218	3.413	62.35	-0.2418	-0.0029	0.2389	901.8767	0.101405	-473.765957	-473.759252	-473.758308	-473.796905	26.664	
O	-0.1549841779	 1.4346785176	-0.0290304231	-0.450504
C	 0.016370123	 0.0776485301	-0.0046288636	 0.288357
C	-0.9515956018	-1.0748997155	 0.0207063982	 0.01648
O	-0.330393429	-1.77267765	-1.0449635306	-0.278842
C	 0.8093336388	-0.8457566884	-0.9870436189	-0.104732
C	 1.8204948969	-1.5426025629	-0.1156816523	 0.466439
N	 2.9578704353	-1.9685441077	-0.4485133635	-0.552693
O	 1.2411104547	-1.6698011985	 1.1321598501	-0.240601
C	 0.0714704637	-0.8722891138	 1.1532503366	-0.046851
H	 0.5267562766	 1.8487536429	 0.5135253722	 0.298933
H	-2.0213556933	-1.1720102413	 0.1598617137	 0.127472
H	 1.1400418794	-0.5091803812	-1.9653731797	 0.120596
H	 3.4193799827	-2.4293046556	 0.338312849	 0.229029
H	-0.2635849491	-0.6064674557	 2.1473413818	 0.126916
139.2738	241.8012	320.2597	328.8915	360.9303	433.1213	543.6061	588.19	642.9465	723.0875	769.7022	792.8915	846.3383	868.7814	908.0718	926.9893	934.8201	994.403	1030.3903	1047.0157	1085.694	1090.6604	1147.62	1183.2611	1231.2406	1250.6716	1289.6019	1325.322	1337.3553	1497.1732	1789.3181	3175.5307	3198.404	3215.1431	3470.1135	3782.8551
OC12C3OC1C(=N)OC23	O[C@@]12[C@H]3O[C@@H]1[C]([NH])O[C@@H]23	
InChI=1S/C5H5NO3/c6-4-3-5(7)1(8-3)2(5)9-4/h1-3,6-7H	InChI=1S/C5H5NO3/c6-4-3-5(7)1(8-3)2(5)9-4/h1-3,6-7H/t1-,2+,3+,5+/m0/s1
