16
gdb 14077	3.78706	1.64832	1.362	3.9265	67.88	-0.2363	0.0155	0.2517	939.8087	0.129965	-379.891777	-379.883997	-379.883053	-379.923728	28.812	
C	-0.0374322779	 1.4801009298	-0.1631023992	-0.420025
C	 0.0332020211	-0.0137202067	 0.0094624676	-0.016489
O	 1.3408359722	-0.6152525341	-0.0290438412	-0.279082
C	 0.6313701776	-0.6474757035	 1.1862851369	 0.354
C	 1.1201910331	-0.0688441402	 2.529751071	-0.25043
N	 0.7558694593	-1.3745712865	 3.1178863364	-0.354198
C	 0.2059189211	-1.8923090682	 1.9386590996	 0.315633
N	-0.4212123834	-2.9305826411	 1.5872414873	-0.549582
H	 0.7449297479	 1.9807298473	 0.4133103986	 0.126798
H	 0.0885951876	 1.7493041272	-1.2167393615	 0.136497
H	-1.0124693782	 1.8565576706	 0.164587239	 0.126512
H	-0.7222013542	-0.5966495803	-0.5184090109	 0.117909
H	 2.1891248385	 0.1560679237	 2.582169767	 0.125489
H	 0.5394830886	 0.7831669983	 2.9013502566	 0.112742
H	 0.3930620211	-1.517825063	 4.0489511915	 0.242254
H	-0.5824934744	-3.5661130633	 2.3702616814	 0.211974
128.9911	145.2347	183.8692	190.5291	284.5801	335.3159	418.0553	456.1094	533.5788	610.5602	678.8127	781.9728	804.8526	840.3851	900.5793	949.6804	995.602	1032.056	1055.8639	1067.4116	1120.5771	1130.2955	1150.9547	1193.9364	1233.1902	1320.0085	1334.3418	1375.6338	1409.7333	1475.0344	1489.9517	1514.4173	1529.1566	1799.5864	3034.2525	3038.1069	3091.6742	3103.4231	3108.3364	3128.1372	3464.4014	3608.7291
CC1OC11CNC1=N	C[C@H]1O[C@]21CN[C]2[NH]	
InChI=1S/C5H8N2O/c1-3-5(8-3)2-7-4(5)6/h3H,2H2,1H3,(H2,6,7)	InChI=1S/C5H8N2O/c1-3-5(8-3)2-7-4(5)6/h3H,2H2,1H3,(H2,6,7)/t3-,5+/m1/s1
