21
gdb 54112	2.50303	1.55792	1.17899	2.6001	83.13	-0.2288	-0.0089	0.2198	1143.5541	0.181344	-387.083301	-387.074171	-387.073227	-387.11786	34.982	
C	-0.0224705769	 1.5152105067	-0.0692317328	-0.487329
C	 0.0997191154	 0.0018989819	-0.1921608471	 0.313
O	 1.1835150139	-0.5010371289	-0.4066105176	-0.315095
C	-1.1719264844	-0.8018616359	-0.0838464474	 0.241385
C	-2.3076114675	-0.159470154	 0.7061398709	-0.477977
C	-1.6785693522	-1.5857250378	-1.2974196308	-0.089424
C	-0.5533289942	-2.2394813782	-2.1115861195	-0.239781
C	-0.1161608128	-3.0325123522	-0.8383876141	-0.228087
C	-1.2176966292	-2.3181748951	-0.0418081555	-0.096382
H	 0.9496549779	 1.9628463991	-0.2781692221	 0.138352
H	-0.7697714308	 1.9074954877	-0.767410426	 0.136922
H	-0.3448568644	 1.8017254054	 0.9374422683	 0.139423
H	-2.6226058853	 0.7967061213	 0.277845919	 0.120462
H	-3.1817201599	-0.8171975699	 0.7120833617	 0.121137
H	-2.0221449881	 0.0156877387	 1.7492060328	 0.122905
H	-2.6840841473	-1.3921642905	-1.6558985021	 0.084249
H	-0.9432475556	-2.8881528436	-2.8990337719	 0.100166
H	 0.1914262783	-1.5669343855	-2.5424709515	 0.112902
H	-0.3402493339	-4.0979444871	-0.9358458185	 0.093059
H	 0.9078333096	-2.8994926159	-0.4971663388	 0.127538
H	-1.8248092126	-2.7853214963	 0.7264191431	 0.082577
16.6131	175.2828	187.2092	223.802	232.9442	295.6383	310.8672	331.5746	398.7036	415.3601	569.8252	601.9754	632.9476	731.6907	774.6795	826.9086	831.7814	896.8659	942.9696	956.091	973.5588	1000.6624	1028.5883	1038.6307	1052.296	1091.6606	1093.7016	1115.6727	1158.0321	1194.5145	1225.4105	1252.0871	1261.3015	1295.1814	1326.4526	1373.794	1386.6467	1418.9534	1460.98	1471.0057	1476.3409	1491.9557	1500.0393	1505.3982	1782.0468	3032.7438	3039.5636	3066.0494	3072.7462	3096.5957	3101.9997	3107.0177	3118.1651	3152.287	3156.8331	3158.7426	3169.2772
CC(=O)C1(C)C2CCC12	CC(=O)[C@@]1(C)[C@H]2CC[C@@H]12	
InChI=1S/C8H12O/c1-5(9)8(2)6-3-4-7(6)8/h6-7H,3-4H2,1-2H3	InChI=1S/C8H12O/c1-5(9)8(2)6-3-4-7(6)8/h6-7H,3-4H2,1-2H3/t6-,7+,8-
