18
gdb 69416	4.69777	0.90536	0.83318	4.2701	76.53	-0.2634	0.0372	0.3006	1382.8009	0.146613	-401.936391	-401.9277	-401.926755	-401.970126	32.162	
C	 0.0670600171	 1.5295430844	-0.0817417337	-0.50016
C	-0.1027560763	 0.0604697625	 0.1205813294	 0.423121
C	-1.4041857024	-0.7599188066	 0.1762206099	-0.308685
C	-0.6620014615	-1.7922634414	 1.1006114867	-0.009181
C	-0.5109785274	-3.2321852063	 0.5929172939	-0.351656
C	-1.7915302792	-3.9289629558	 0.499468	 0.257306
N	-2.8161818057	-4.4596291824	 0.4333174266	-0.310304
C	 0.5967663758	-0.9160556554	 0.9768939446	-0.072058
O	 0.8987321986	-0.8217529132	-0.42173847	-0.285443
H	 1.1080200621	 1.8200358388	 0.0821707791	 0.137405
H	-0.2103205397	 1.8143712726	-1.1028261961	 0.136549
H	-0.5698115766	 2.0922636262	 0.6081425197	 0.128621
H	-2.2220763595	-0.2527739108	 0.6922627485	 0.116552
H	-1.7581506257	-1.1324762517	-0.7882096094	 0.119657
H	-1.0709987942	-1.7824010214	 2.1138312448	 0.098549
H	-0.0407982299	-3.2109289167	-0.3958700208	 0.167907
H	 0.1501888726	-3.803814102	 1.255060011	 0.148231
H	 1.4223590418	-0.8028671708	 1.6714866458	 0.103586
63.5939	102.816	155.3074	198.0638	233.8739	316.0494	367.7813	398.9954	413.2673	524.1034	552.7506	658.7644	724.9876	816.1731	848.588	884.2298	909.3531	940.7358	953.879	996.7651	1015.8007	1053.6896	1065.1923	1118.447	1157.9848	1206.1289	1214.6305	1240.3622	1261.0737	1269.4459	1322.6225	1365.8187	1405.8043	1455.9991	1469.6867	1478.5227	1485.7729	1497.5524	2360.2255	3036.4339	3042.6693	3068.9656	3079.5261	3094.9059	3099.2535	3123.5517	3128.5117	3176.8104
CC12CC(CC#N)C1O2	C[C@]12C[C@@H](CC#N)[C@H]1O2	
InChI=1S/C7H9NO/c1-7-4-5(2-3-8)6(7)9-7/h5-6H,2,4H2,1H3	InChI=1S/C7H9NO/c1-7-4-5(2-3-8)6(7)9-7/h5-6H,2,4H2,1H3/t5-,6-,7+/m1/s1
