19
gdb 103142	2.29776	1.438	1.14465	3.7396	70.99	-0.2711	0.0056	0.2767	1153.155	0.157654	-460.196109	-460.186578	-460.185634	-460.230227	34.89	
C	-0.2672233502	 1.5033611199	-0.0792450969	-0.411591
C	 0.1034137206	 0.0398616464	-0.011807987	 0.097766
O	 1.368684392	-0.2409158523	-0.7281206347	-0.26409
C	 1.9330933683	-0.7830762791	 0.3880192703	 0.457278
O	 3.0043197586	-1.3013284728	 0.4962979418	-0.354826
C	 0.7147109343	-0.5662629079	 1.2847312404	 0.041572
C	 0.9263320071	 0.3384980996	 2.4952248777	-0.455562
C	 0.142589011	-1.9372220805	 1.6989751192	-0.10773
O	 1.0244989574	-2.6255337452	 2.5590750287	-0.417739
H	 0.5316269802	 2.1402820828	 0.3075478502	 0.133937
H	-0.4643458389	 1.7920893262	-1.1156179035	 0.139678
H	-1.1751377757	 1.6895812171	 0.5035862232	 0.130334
H	-0.6811290549	-0.5845162301	-0.4511542325	 0.098588
H	 1.4934131387	 1.2401159817	 2.2519957098	 0.125951
H	-0.0377536062	 0.6415694003	 2.9178096987	 0.122261
H	 1.4720926847	-0.2153459475	 3.2619548094	 0.153061
H	-0.7926216085	-1.7998747923	 2.2538145866	 0.113185
H	-0.0891651785	-2.527556377	 0.7977421256	 0.096893
H	 1.8752417497	-2.6974638592	 2.106101553	 0.301034
95.76	111.7289	158.0252	197.5813	218.4362	237.0813	267.2107	289.3594	317.7053	428.8583	477.3519	479.434	568.2358	701.488	751.3115	767.849	847.5683	859.9014	955.3935	979.4303	1038.0942	1052.6379	1075.2564	1099.7819	1150.7822	1173.6011	1204.8694	1216.1889	1282.2576	1337.5374	1382.227	1385.7033	1412.9215	1414.4051	1438.7196	1478.0018	1489.4262	1496.092	1506.3145	1510.3137	1902.7258	2972.442	3041.5565	3046.8301	3060.4547	3061.3599	3112.0408	3116.0774	3131.7583	3138.204	3763.6145
CC1OC(=O)C1(C)CO	C[C@H]1OC(=O)[C@]1(C)CO	
InChI=1S/C6H10O3/c1-4-6(2,3-7)5(8)9-4/h4,7H,3H2,1-2H3	InChI=1S/C6H10O3/c1-4-6(2,3-7)5(8)9-4/h4,7H,3H2,1-2H3/t4-,6-/m1/s1
