22
gdb 118351	2.77497	0.88305	0.73184	2.1075	82.97	-0.2485	-0.0391	0.2094	1628.3194	0.19234	-404.330349	-404.319936	-404.318992	-404.367017	36.811	
C	-0.0177765678	 1.6600565344	-0.0588499859	-0.381244
C	 0.0493616097	 0.1329150329	 0.0178580154	-0.180775
C	 0.6728933048	-0.5021067824	-1.2308740385	-0.191611
C	 0.7394834517	-2.0378193668	-1.172237494	-0.085973
C	-0.6600227094	-2.6372661187	-1.1784984753	 0.131616
O	-0.9565868844	-3.6981590458	-0.6908082176	-0.250418
C	 1.5730692	-2.6094780507	-2.3225606836	 0.0007
C	 1.5479417449	-4.0451335792	-2.6855161367	-0.25388
N	 0.9886124875	-3.0379574426	-3.6081521859	-0.324475
H	 0.9810432628	 2.0940009643	-0.1792595381	 0.117693
H	-0.6242070357	 1.9875922465	-0.910420869	 0.117397
H	-0.4589782961	 2.0851441624	 0.8476170845	 0.116965
H	 0.6294735481	-0.1686339117	 0.8998530969	 0.103261
H	-0.9614445547	-0.268198189	 0.1738699856	 0.10187
H	 0.1085531665	-0.1999364748	-2.1245429364	 0.103999
H	 1.6871523415	-0.1091635277	-1.3708909421	 0.103095
H	 1.2148253158	-2.3534113029	-0.2341103645	 0.105455
H	-1.4278387474	-2.0217907974	-1.7055917711	 0.08232
H	 2.51250181	-2.0745092819	-2.4538133036	 0.09558
H	 2.4557007559	-4.5284662579	-3.0352276192	 0.11898
H	 0.8630008648	-4.6897772164	-2.1422421783	 0.138308
H	-0.0275197185	-3.0561182249	-3.5589521627	 0.231137
51.6553	67.5188	82.6949	98.1217	144.5621	235.9554	244.6244	263.8226	307.3791	344.4159	413.9377	519.4302	585.8103	737.654	774.6381	828.1707	851.0718	904.136	915.8229	956.3809	982.6691	992.9283	1041.1654	1056.6243	1072.9846	1115.0822	1138.3421	1148.8886	1158.5194	1195.6557	1243.3312	1254.7702	1276.2789	1301.4729	1317.644	1335.2872	1346.5525	1392.0425	1401.583	1414.8977	1432.5602	1483.9096	1492.4932	1499.4401	1509.4469	1513.2846	1823.6789	2843.214	3009.3708	3014.6742	3028.6828	3031.8527	3038.2182	3062.7534	3097.6059	3106.2284	3112.973	3117.1588	3204.147	3491.1211
CCCC(C=O)C1CN1	CCC[C@@H](C=O)[C@H]1CN1	
InChI=1S/C7H13NO/c1-2-3-6(5-9)7-4-8-7/h5-8H,2-4H2,1H3	InChI=1S/C7H13NO/c1-2-3-6(5-9)7-4-8-7/h5-8H,2-4H2,1H3/t6-,7+/m0/s1
