21
gdb 72605	2.08724	1.86554	1.57999	1.4034	81.46	-0.2344	0.0767	0.3112	1013.9149	0.182439	-387.059733	-387.051282	-387.050338	-387.092036	34.112	
C	-0.0567968833	 1.5778154235	-0.039793249	-0.490853
C	-0.0292553498	 0.0666147453	 0.0229852504	 0.271324
C	 1.0840581243	-0.6640768308	-0.7828986789	-0.277299
C	 1.5516884151	-1.4249979119	 0.4905088824	-0.266922
C	 0.4151284166	-0.7950284653	 1.313106135	 0.382182
O	 0.85022005	-0.2814164148	 2.5388823969	-0.480125
C	-0.9020625051	-1.5446271635	 1.2440636643	-0.123386
C	-2.0605093619	-0.5812790689	 1.3194194908	-0.329724
C	-1.3320685216	-0.7266838406	 0.0163893952	-0.079576
H	 0.9122657634	 1.997536895	 0.2517969158	 0.119972
H	-0.2761193843	 1.924874936	-1.057313962	 0.113753
H	-0.8164231635	 2.0038303074	 0.6240561831	 0.10891
H	 0.7172566966	-1.2918661668	-1.5995490656	 0.093435
H	 1.8408286626	 0.0121388547	-1.1884010921	 0.09761
H	 1.5668158849	-2.5175849813	 0.447793212	 0.093532
H	 2.5212898017	-1.0773071372	 0.8537014268	 0.110903
H	 0.0739113549	-0.0408109346	 3.0559788835	 0.277687
H	-1.0312264933	-2.6058005854	 1.4306878281	 0.082781
H	-3.039785822	-1.0463561094	 1.364792759	 0.114654
H	-1.9919746782	 0.3413166656	 1.8927507977	 0.098821
H	-1.8270086773	-1.100681927	-0.8733547634	 0.082319
133.2811	169.5177	187.2137	257.8579	272.0771	322.9799	341.5387	404.0759	489.0309	517.8534	586.5991	634.864	687.861	754.5524	790.8074	811.2458	876.4909	929.3461	938.2417	958.3127	964.1048	972.9518	1016.4993	1042.025	1069.987	1080.5067	1090.3172	1106.0411	1140.8746	1172.768	1197.3545	1210.2335	1245.147	1250.845	1276.2383	1297.6856	1329.8221	1354.0282	1386.6382	1411.7142	1475.2566	1485.1339	1491.1228	1494.4627	1496.3396	3019.6128	3052.9233	3060.6913	3080.8912	3093.7862	3098.2645	3102.6966	3120.0958	3158.8119	3169.5828	3198.484	3803.7509
CC12CCC1(O)C1CC21	C[C@@]12CC[C@]1(O)[C@H]1C[C@@H]21	
InChI=1S/C8H12O/c1-7-2-3-8(7,9)6-4-5(6)7/h5-6,9H,2-4H2,1H3	InChI=1S/C8H12O/c1-7-2-3-8(7,9)6-4-5(6)7/h5-6,9H,2-4H2,1H3/t5-,6+,7+,8+/m1/s1
