16
gdb 38169	2.71752	2.0459	1.37684	1.6385	68.68	-0.2235	0.0137	0.2372	914.7261	0.126141	-437.849634	-437.842914	-437.84197	-437.880734	26.639	
C	 0.0442418947	 1.4941141624	 0.0685647907	-0.374789
C	 1.3066041247	 0.6290018756	-0.0352602172	-0.074282
N	 2.1898397462	 0.4437804286	 1.0829183848	-0.2613
C	 1.8865702919	-0.4425555717	 1.9340900882	 0.126536
O	 0.7896440352	-1.248757107	 2.0124882765	-0.237684
C	-0.311590216	-0.9512931055	 1.1659194008	-0.00096
C	-0.6471919862	-1.9285576866	 0.0174678937	-0.111151
O	-0.6590789445	-0.8312158288	-0.9355300839	-0.312386
C	-0.0473937229	 0.0139970821	 0.0342913593	 0.400537
H	-0.1768930169	 2.0069679132	 1.0003715316	 0.123977
H	-0.2209867882	 2.0385549022	-0.8316005628	 0.133727
H	 1.8203532462	 0.6853200581	-0.9896191995	 0.11457
H	 2.552043261	-0.6655610149	 2.7647665868	 0.130313
H	-1.1677122117	-0.7162148485	 1.805692223	 0.105324
H	 0.1584224225	-2.6437131907	-0.1852770834	 0.118678
H	-1.6118343261	-2.4400490284	 0.0607953114	 0.11889
112.7635	194.0129	295.2693	362.1078	412.541	486.4503	534.4249	560.2484	596.4486	742.564	812.2883	863.638	882.178	918.8031	952.6779	979.8198	985.1544	1011.9762	1035.33	1068.6941	1085.179	1092.4708	1117.6853	1154.046	1184.4483	1204.6854	1256.928	1317.5181	1346.8868	1395.0934	1402.7947	1420.665	1478.7833	1516.6428	1710.0108	3037.222	3058.2313	3108.0604	3122.4521	3162.4711	3172.6189	3217.3421
C1C2N=COC3COC123	C1[C@H]2N=CO[C@@H]3CO[C@]123	
InChI=1S/C6H7NO2/c1-4-6(1)5(2-9-6)8-3-7-4/h3-5H,1-2H2	InChI=1S/C6H7NO2/c1-4-6(1)5(2-9-6)8-3-7-4/h3-5H,1-2H2/t4-,5-,6-/m1/s1
