19
gdb 126680	3.06704	1.24678	0.9752	4.0185	80.03	-0.1993	0.0184	0.2176	1247.29	0.159232	-419.199968	-419.190815	-419.189871	-419.234561	32.946	
C	-0.0644988318	 1.4798525127	 0.0868807893	-0.383369
C	-0.0168256992	-0.0519674169	 0.0449978343	-0.166746
N	-1.3298505521	-0.6951471226	 0.003454967	-0.163064
C	-2.0595469913	-0.7141496812	-1.2506175654	-0.341153
C	-2.0529603845	-0.8342842005	 1.1482757175	 0.557175
C	-3.3677247692	-1.1631328628	 1.3883893592	-0.393093
C	-3.4341563746	-1.1827429111	 2.800946146	 0.041572
N	-2.300165787	-0.8891490872	 3.3858043298	-0.168701
O	-1.4035027559	-0.6587828598	 2.3114393259	-0.242745
H	 0.9511021401	 1.8879273528	 0.1017506568	 0.121418
H	-0.5783632598	 1.889235458	-0.7887238052	 0.117885
H	-0.5826949219	 1.8252145232	 0.9856903796	 0.14282
H	 0.532835907	-0.3905359719	-0.8397645023	 0.10688
H	 0.5145034703	-0.4324188533	 0.9198935436	 0.143019
H	-1.3460536336	-0.7939766521	-2.0740786228	 0.132165
H	-2.7161464079	-1.5887428888	-1.2867224372	 0.140492
H	-2.6747507798	 0.1840724196	-1.4074192908	 0.125278
H	-4.1529601062	-1.3509872685	 0.6785194609	 0.106415
H	-4.2910055926	-1.4027020397	 3.4239494439	 0.123753
62.283	70.4001	132.1646	154.612	210.5659	257.5542	274.2529	381.9389	417.6469	513.0848	607.584	623.9824	711.8548	727.6927	794.1723	877.8949	886.5694	920.5892	932.2275	976.8946	1035.5946	1070.1199	1090.0989	1108.5354	1152.432	1200.6211	1221.8474	1273.6429	1305.8953	1385.5413	1396.1249	1402.9285	1409.971	1459.3864	1483.9823	1486.8269	1493.7844	1505.1654	1514.6105	1566.3207	1646.0447	2995.4437	3039.7192	3050.6848	3075.2656	3101.0611	3115.3259	3121.6569	3127.6286	3232.0425	3292.458
CCN(C)C1=CC=NO1	CCN(C)c1ccno1	
InChI=1S/C6H10N2O/c1-3-8(2)6-4-5-7-9-6/h4-5H,3H2,1-2H3	InChI=1S/C6H10N2O/c1-3-8(2)6-4-5-7-9-6/h4-5H,3H2,1-2H3
