18
gdb 19076	3.86608	1.73903	1.4708	1.4159	71.42	-0.2025	0.072	0.2745	917.3583	0.153464	-347.721993	-347.714549	-347.713605	-347.753099	29.632	
C	 0.0008350692	 1.5214464836	 0.0351904196	-0.418976
C	 0.0089190676	 0.0066190452	 0.0350480327	-0.026649
C	 1.3464806601	-0.6438150827	-0.2340688169	-0.071924
C	 0.7627181697	-0.647588917	 1.1668812623	-0.064187
C	 0.7595804038	-2.1988803978	 1.1797013015	-0.109697
C	 0.064827325	-2.8957598126	 0.0598729661	 0.087999
O	-1.2241757513	-2.5841412492	-0.3971199463	-0.413735
C	 1.3580341316	-2.1946396827	-0.2530013436	-0.145922
H	 0.9421422207	 1.9260595508	 0.4244843514	 0.10997
H	-0.1361142498	 1.9155984413	-0.9777851841	 0.114641
H	-0.8114234721	 1.9101666854	 0.6588578737	 0.118228
H	-0.8958528662	-0.4585448716	-0.3294176202	 0.109263
H	 2.1905363483	-0.0711392497	-0.5981116383	 0.081908
H	 1.1000173892	-0.0821365384	 2.0266058176	 0.082435
H	 1.1018387151	-2.7501158245	 2.0477322483	 0.087928
H	 0.2315583592	-3.9748447883	 0.1274066941	 0.090808
H	-1.2479279816	-2.770264206	-1.3423639081	 0.283912
H	 2.2142527814	-2.7479483158	-0.6219767498	 0.083998
185.5654	203.2301	238.524	267.3841	275.9692	299.454	430.3015	521.3514	635.6447	682.4342	702.0408	767.9143	801.0131	833.2945	894.0996	903.4333	972.5267	977.9411	1010.0083	1017.7048	1025.7725	1043.0084	1079.1548	1113.0348	1117.9145	1156.5407	1196.246	1239.2879	1256.2283	1276.1002	1289.4875	1307.534	1358.6706	1414.7719	1415.6123	1465.2958	1496.3514	1500.9049	3024.3726	3056.4681	3088.8274	3091.5158	3165.5222	3175.9117	3180.7449	3191.4538	3217.2031	3799.286
CC1C2C1C1C(O)C21	C[C@H]1[C@H]2[C@@H]1[C@H]1[C@@H](O)[C@@H]21	
InChI=1S/C7H10O/c1-2-3-4(2)6-5(3)7(6)8/h2-8H,1H3	InChI=1S/C7H10O/c1-2-3-4(2)6-5(3)7(6)8/h2-8H,1H3/t2-,3-,4+,5-,6+,7-
