19
gdb 15227	2.37854	1.82373	1.30098	1.1554	78.06	-0.221	0.0354	0.2564	1039.7119	0.163148	-327.864378	-327.855119	-327.854175	-327.898164	33.753	
C	 0.3579340633	-0.2107604467	-1.8444252761	-0.381183
C	 0.1348085859	-0.4596055528	-0.3476731652	-0.209935
C	-1.3010185711	-0.8492064865	-0.060070298	 0.012213
C	-1.7477942359	-2.29148239	-0.0263823191	-0.21102
C	-0.7942671411	-3.352056265	-0.1999738885	 0.357916
C	-0.0236681202	-4.2657215826	-0.3440272155	-0.480287
N	-1.7582090677	-1.4469676061	 1.185260899	-0.116477
C	-0.8151231067	-1.7268113173	 2.2609263176	-0.31595
H	 1.3833821575	 0.1165692394	-2.0395080607	 0.114118
H	 0.1787603177	-1.1234042706	-2.4212142685	 0.129338
H	-0.3175650712	 0.5640862279	-2.2232547743	 0.11555
H	 0.8206613251	-1.2376647216	-0.0035586154	 0.114761
H	 0.3737799885	 0.4501480303	 0.2183493609	 0.101129
H	-2.0261590122	-0.1462654853	-0.4738851715	 0.091254
H	-2.7443480752	-2.5305823238	-0.3929514891	 0.111611
H	 0.6547270341	-5.0720108181	-0.4756486342	 0.199241
H	 0.1426747315	-2.1568611232	 1.9419169052	 0.118506
H	-0.6204023577	-0.7954392826	 2.801524976	 0.122476
H	-1.2841303645	-2.4298621854	 2.9559306273	 0.126739
63.3675	136.5082	144.0982	165.537	198.1561	229.707	289.4269	351.2074	378.7133	512.6952	581.1533	593.5399	604.5679	658.62	707.9601	786.0235	847.0132	853.2542	972.6225	1013.4252	1040.1388	1066.3245	1126.005	1145.3597	1162.9522	1171.3151	1197.4146	1288.8376	1332.7847	1341.4275	1366.892	1409.5774	1427.6573	1455.2351	1480.3275	1490.366	1499.0272	1506.0338	1507.0121	2225.9278	3014.1203	3027.6721	3035.0135	3080.3466	3083.418	3092.999	3106.6995	3110.5748	3113.8421	3118.5065	3502.1312
CCC1C(C#C)N1C	CC[C@H]1[C@@H](C#C)N1C	
InChI=1S/C7H11N/c1-4-6-7(5-2)8(6)3/h1,6-7H,5H2,2-3H3	InChI=1S/C7H11N/c1-4-6-7(5-2)8(6)3/h1,6-7H,5H2,2-3H3/t6-,7+,8?/m1/s1
