20
gdb 65211	3.41778	1.23412	1.16192	0.2881	78.45	-0.2271	0.0743	0.3014	1150.5811	0.171309	-403.077718	-403.069478	-403.068534	-403.110606	32.74	
O	 0.4380324999	 1.2866774431	 0.4934650298	-0.465379
C	 0.1651178918	 0.0342964498	-0.0908675515	 0.394249
C	 1.0533043427	-0.3900783234	-1.2352303211	-0.323363
C	 1.2369009032	-0.995279981	 0.1400656671	-0.292563
C	-1.2706799361	-0.4239853278	-0.0740505079	 0.015194
C	-2.1086314337	-0.439253719	 1.2369499494	-0.290878
C	-3.1573775685	 0.3501732358	 0.4536453071	-0.013566
C	-2.5912430208	 1.6230895098	-0.016470849	-0.249511
N	-2.3116317794	 0.3990993148	-0.8094910978	-0.169171
H	 0.2641661653	 1.9595193862	-0.1732190799	 0.288605
H	 0.6260285015	-0.9997147156	-2.0235244672	 0.122027
H	 1.8000912345	 0.3236937775	-1.5651012312	 0.113604
H	 2.091479278	-0.6653658247	 0.718592617	 0.124227
H	 0.9438086007	-2.0270923967	 0.3001701485	 0.114218
H	-1.2989428119	-1.4132399921	-0.5403954033	 0.080343
H	-2.4166860706	-1.4420369046	 1.5368535534	 0.105869
H	-1.6845807655	 0.0784137504	 2.1011477751	 0.115784
H	-4.2173657701	 0.1231869074	 0.4110031101	 0.09232
H	-3.2466134867	 2.3037141614	-0.5513318878	 0.116601
H	-1.8041776043	 2.0952961486	 0.5611286092	 0.12139
52.2054	166.8202	192.6789	267.9596	317.4461	341.2888	383.3757	421.0222	497.589	538.5148	697.1733	757.7477	768.9823	773.8059	794.565	876.1474	902.5917	929.0879	934.6957	968.1466	987.4695	1002.74	1033.3432	1054.2205	1059.9549	1078.3579	1090.9652	1116.0232	1136.9974	1163.2267	1188.5037	1229.1306	1256.8475	1266.5396	1282.6425	1307.7458	1350.4076	1361.2017	1416.4035	1454.7543	1484.411	1493.4852	1504.7538	3057.2028	3067.3778	3124.1706	3126.0098	3134.1569	3140.2708	3167.2206	3216.732	3219.2143	3234.8793	3806.5414
OC1(CC1)C1CC2CN12	OC1(CC1)[C@H]1C[C@H]2CN12	
InChI=1S/C7H11NO/c9-7(1-2-7)6-3-5-4-8(5)6/h5-6,9H,1-4H2	InChI=1S/C7H11NO/c9-7(1-2-7)6-3-5-4-8(5)6/h5-6,9H,1-4H2/t5-,6+,8?/m0/s1
