15
gdb 5715	4.83676	2.04207	1.46821	1.9328	67.19	-0.1852	0.0448	0.23	815.42	0.122293	-362.68804	-362.681722	-362.680778	-362.718346	24.678	
C	 0.0490955583	 1.3613132413	-0.1994167704	-0.087068
C	 1.4612724889	 1.9015398732	 0.1935489113	-0.384492
C	 2.1145028416	 0.6278735065	 0.6461109372	 0.199547
C	 3.296655811	 0.0540202451	 1.0441961989	-0.229493
N	 3.0098084055	-1.243007399	 1.4028255204	-0.242264
C	 1.6577382361	-1.522304862	 1.2352730755	-0.241177
C	 1.1108370978	-0.3554108768	 0.7725386963	 0.331503
O	-0.1395863929	 0.0741713094	 0.4401851409	-0.291089
H	-0.7703723876	 2.0104385925	 0.1171096302	 0.112546
H	-0.0162727869	 1.2150010373	-1.284984543	 0.107919
H	 1.9425782913	 2.3892967464	-0.6593587322	 0.112859
H	 1.3945200504	 2.6437218955	 0.998819857	 0.114828
H	 4.303168854	 0.4346673864	 1.1089449031	 0.11839
H	 3.6938443471	-1.919144668	 1.6903259576	 0.258511
H	 1.2470305253	-2.4907783378	 1.4606545673	 0.119479
124.2188	221.8759	291.5576	383.6549	457.5738	609.8139	625.0674	638.6201	687.0976	713.8019	736.223	759.531	852.1871	934.3263	941.9497	1002.2636	1054.1563	1075.7008	1093.4281	1169.0703	1200.4928	1222.7123	1256.1211	1297.758	1332.3701	1381.8994	1445.1308	1467.3543	1493.8216	1513.3482	1575.5956	1659.8182	3021.156	3023.0197	3074.3613	3104.6702	3259.831	3282.4145	3696.2854
C1CC2=CNC=C2O1	C1Cc2c[nH]cc2O1	
InChI=1S/C6H7NO/c1-2-8-6-4-7-3-5(1)6/h3-4,7H,1-2H2	InChI=1S/C6H7NO/c1-2-8-6-4-7-3-5(1)6/h3-4,7H,1-2H2
