17
gdb 20920	3.1018	1.98022	1.33875	4.8987	70.21	-0.2439	0.0065	0.2504	943.8134	0.143019	-360.057154	-360.04912	-360.048176	-360.090019	28.576	
C	-0.015017427	 1.5791488485	 0.0146272015	-0.380203
C	 0.0218919383	 0.0497104639	 0.0263969043	-0.146696
N	 0.6499711291	-0.4882086003	 1.2236461223	 0.005041
N	 1.9859285876	-0.7012791001	 1.2321014431	-0.156938
N	 2.3078429151	-1.1328109232	 2.416778083	-0.193576
C	 1.1842641665	-1.1971520021	 3.1794029347	-0.149647
C	 0.1023475421	-0.7850753599	 2.4328701499	 0.312698
C	-1.3490456962	-0.6671139463	 2.7549013044	-0.507522
H	 0.998480105	 1.9813907048	 0.0875623344	 0.15046
H	-0.4657326307	 1.9351740985	-0.9165257656	 0.125648
H	-0.6026304041	 1.9714010693	 0.8498413378	 0.126665
H	-0.9864219003	-0.3682494461	-0.046619903	 0.121484
H	 0.6033886983	-0.3264150139	-0.8180569981	 0.146642
H	 1.2089549112	-1.5365797202	 4.2028944819	 0.117782
H	-1.7065207273	 0.3662757622	 2.6838085663	 0.140756
H	-1.9676727541	-1.2758924421	 2.0854912944	 0.140641
H	-1.5287595036	-1.010741423	 3.7757503888	 0.146764
61.1457	120.4718	144.5256	205.019	253.122	276.8876	397.4988	423.5755	643.6344	677.8871	707.8942	720.7543	793.2403	839.2251	973.9444	984.4069	1008.3319	1060.3371	1066.2353	1102.9811	1146.0817	1205.5615	1243.1255	1293.3929	1343.1094	1355.2403	1390.5515	1410.9877	1421.7422	1456.4645	1477.8108	1483.5396	1491.0078	1505.2823	1512.4652	1594.2	3030.6212	3046.2835	3066.2156	3080.8682	3110.1687	3123.8106	3127.7988	3137.0566	3263.3874
CCN1N=NC=C1C	CCn1nncc1C	
InChI=1S/C5H9N3/c1-3-8-5(2)4-6-7-8/h4H,3H2,1-2H3	InChI=1S/C5H9N3/c1-3-8-5(2)4-6-7-8/h4H,3H2,1-2H3
