23
gdb 108257	2.34077	1.37473	1.36095	0.8805	85.44	-0.2352	0.0871	0.3223	1168.8147	0.204464	-388.265998	-388.256288	-388.255343	-388.301904	36.516	
C	-0.1798238313	 1.3999134462	-0.0933107436	-0.261605
O	-0.1986853628	-0.0112232712	-0.1533807232	-0.294185
C	 0.656982779	-0.5470170441	-1.119581283	 0.422631
C	 2.1844878002	-0.4840347941	-0.8474874277	-0.290795
C	 2.2772012896	-2.0249408361	-1.0752636049	-0.279814
C	 0.7368221826	-2.1083364026	-1.2920357084	 0.302365
C	-0.0467014545	-3.0798282407	-0.4390704898	-0.488301
C	 0.3260706246	-1.9431742528	-2.7835360538	-0.27865
C	 0.2421687012	-0.3945973115	-2.6104158701	-0.290706
H	 0.8187225749	 1.786670307	 0.158675167	 0.107737
H	-0.4963031769	 1.8556864625	-1.043232592	 0.1075
H	-0.8801551914	 1.6995000651	 0.6900406223	 0.124978
H	 2.7774293466	 0.1481661883	-1.5143725516	 0.090147
H	 2.3967805036	-0.2002121004	 0.186434223	 0.104383
H	 2.8805048608	-2.3386404335	-1.9315917797	 0.093999
H	 2.6243933716	-2.5739034499	-0.1960498293	 0.098977
H	 0.2078253241	-2.9749077349	 0.6208621957	 0.116787
H	-1.1249769751	-2.9169739789	-0.53851823	 0.117367
H	 0.1657718804	-4.1149246012	-0.7345342209	 0.110036
H	 1.0594764039	-2.3015975802	-3.5111577209	 0.09349
H	-0.638208473	-2.4015008906	-3.0188794614	 0.098535
H	-0.7761924269	-0.011515767	-2.7122107702	 0.104633
H	 0.906369639	 0.2030432905	-3.2409590275	 0.09049
9.7376	112.3628	146.3541	188.8952	199.0792	244.594	313.0687	327.787	360.3631	405.3361	508.7428	568.1509	610.7536	699.6994	757.7326	761.5766	848.3482	886.6063	933.4762	946.2679	955.3041	959.6646	1011.5101	1022.9586	1042.5757	1126.7423	1163.8928	1169.0606	1183.2923	1197.9331	1224.4668	1225.9041	1227.9332	1242.7632	1247.9944	1254.2302	1277.6857	1312.1625	1336.1882	1408.8249	1464.0998	1474.0269	1480.9052	1481.4148	1487.5089	1488.7494	1493.	1502.1636	1508.2514	2982.7341	3019.8142	3030.1514	3047.1331	3049.0095	3053.402	3057.6575	3083.9028	3091.1286	3095.2045	3097.8557	3111.5981	3113.2119	3116.4546
COC12CCC1(C)CC2	CO[C@@]12CC[C@]1(C)CC2	
InChI=1S/C8H14O/c1-7-3-5-8(7,9-2)6-4-7/h3-6H2,1-2H3	InChI=1S/C8H14O/c1-7-3-5-8(7,9-2)6-4-7/h3-6H2,1-2H3/t7-,8-
