21
gdb 74383	2.9136	1.59134	1.21331	0.2589	88.07	-0.2076	0.0269	0.2345	1112.1511	0.183101	-349.940412	-349.932313	-349.931369	-349.972387	32.896	
C	-0.0324262148	 1.5173156116	 0.0964558434	-0.497832
C	-0.080741875	 0.0264798632	 0.0052320408	 0.324724
C	-0.0005303271	-0.7502730965	-1.0824097634	-0.267154
C	-0.0128156494	-2.196013265	-0.6996154207	 0.342362
C	-0.3977800855	-3.2554996154	-1.7044563685	-0.496309
C	 0.9486830895	-2.6407743724	 0.4392888629	-0.101769
C	 1.4397575829	-1.4717373887	 1.2833450117	-0.237494
C	-0.0242914158	-0.8749396575	 1.226071472	-0.160057
C	-0.4942264649	-2.2784177366	 0.7244844954	-0.109026
H	 0.8560986898	 1.8590502331	 0.6439484219	 0.124241
H	-0.014146599	 1.9804221624	-0.8941251981	 0.121705
H	-0.9005592753	 1.9114405782	 0.6407544054	 0.121335
H	 0.1017750405	-0.4070100842	-2.1060787194	 0.082238
H	 0.3258854332	-3.3105576126	-2.5258724483	 0.117022
H	-0.443052603	-4.2454418066	-1.2385186363	 0.113676
H	-1.3812976825	-3.046695117	-2.1403436955	 0.117825
H	 1.408267461	-3.6216230173	 0.3868079242	 0.078249
H	 1.6786233711	-1.8108471157	 2.2949807915	 0.099598
H	 2.251880919	-0.8408567549	 0.9047596798	 0.087524
H	-0.4204274686	-0.4664673456	 2.1557871419	 0.061373
H	-1.325814536	-2.8781115726	 1.0771804592	 0.077771
159.9314	180.9852	204.7106	242.5346	263.5702	317.6086	379.9238	469.2714	550.9704	565.4987	599.3885	710.7709	781.623	809.2227	843.4781	854.3455	869.2346	889.5999	909.3898	954.5335	988.2033	997.3571	1015.3855	1040.9836	1067.7838	1079.6614	1097.0134	1100.0453	1140.2891	1181.8846	1206.8144	1226.012	1247.3098	1268.1427	1328.9562	1337.5106	1385.5028	1411.9866	1417.5042	1477.9922	1485.716	1489.1976	1489.5936	1502.0375	1696.2546	3010.9292	3023.1927	3032.947	3053.6504	3083.1975	3094.4	3095.0242	3105.3379	3109.7771	3163.422	3175.7772	3188.7505
CC1=CC2(C)C3CC1C23	CC1=C[C@@]2(C)[C@H]3C[C@@H]1[C@@H]23	
InChI=1S/C9H12/c1-5-4-9(2)7-3-6(5)8(7)9/h4,6-8H,3H2,1-2H3	InChI=1S/C9H12/c1-5-4-9(2)7-3-6(5)8(7)9/h4,6-8H,3H2,1-2H3/t6-,7-,8+,9-/m0/s1
