17
gdb 81981	2.48247	1.46967	1.3373	4.0758	72.48	-0.2574	0.0206	0.278	1038.2045	0.135145	-417.967729	-417.959113	-417.958169	-418.000646	32.389	
C	-0.1711498381	 1.6133023295	 0.0409994243	-0.448991
C	 0.0055845488	 0.0979092828	 0.0094413849	 0.098723
C	-1.2879769576	-0.5589871683	-0.1823703475	 0.276491
N	-2.3039620835	-1.0710071831	-0.3864974717	-0.341346
C	 1.1004429006	-0.5163842683	-0.967722299	 0.048761
O	 1.9119397144	 0.3680636862	-1.6911845567	-0.417729
C	 1.7628192856	-1.0845518595	 0.2726911693	-0.028666
C	 2.0662043796	-0.0221236325	 1.2462641626	-0.247015
N	 0.6860645584	-0.5424355832	 1.2071928643	-0.145077
H	 0.7888380056	 2.123838643	-0.0391578663	 0.140315
H	-0.7946650701	 1.9386859891	-0.7964993085	 0.13708
H	-0.6650390708	 1.9107453722	 0.9702733167	 0.148307
H	 0.6647595652	-1.2905762087	-1.6064659205	 0.10555
H	 1.4912047661	 0.5565830103	-2.5364567045	 0.295469
H	 2.13835615	-2.0968964146	 0.365096556	 0.108658
H	 2.5797502575	-0.3207425587	 2.1543053612	 0.134756
H	 2.2926638183	 0.9824542138	 0.9080101055	 0.134715
124.5457	150.8117	158.0384	193.1145	226.5168	307.8158	324.6812	400.4056	460.6313	508.8662	559.5013	589.9518	641.581	766.285	774.053	827.2052	886.5779	930.6439	972.262	1004.542	1063.8216	1093.5407	1111.1778	1132.8747	1143.9612	1178.5701	1197.606	1223.92	1246.9611	1310.6358	1372.9458	1403.2195	1444.3624	1480.0268	1489.0667	1513.0273	2354.6617	3053.5554	3062.5729	3122.0844	3137.0793	3150.1352	3184.698	3225.6866	3817.3844
CC1(C#N)C(O)C2CN12	C[C@@]1(C#N)[C@@H](O)[C@H]2CN12	
InChI=1S/C6H8N2O/c1-6(3-7)5(9)4-2-8(4)6/h4-5,9H,2H2,1H3	InChI=1S/C6H8N2O/c1-6(3-7)5(9)4-2-8(4)6/h4-5,9H,2H2,1H3/t4-,5+,6-,8?/m1/s1
