20
gdb 36883	4.45898	0.97762	0.95248	1.5783	80.51	-0.2165	0.0969	0.3134	1314.3065	0.171331	-403.038826	-403.030923	-403.029979	-403.072168	30.608	
C	-0.1418177069	 1.5520479785	 0.039837348	-0.194494
C	-0.8861072246	 1.933946095	-1.216196016	 0.107955
C	-2.3505659046	 1.9989225187	-1.2619427984	-0.182484
O	-1.5711590662	 3.1933231733	-1.1844547225	-0.235694
N	 1.1654928689	 2.2038056503	 0.0339699993	-0.110375
C	 2.0041627852	 2.1971685121	 1.302010243	-0.012166
C	 2.7772349385	 3.3830923233	 0.6686435848	-0.207207
C	 1.2619056597	 3.6576162897	 0.4870075135	-0.006051
C	 1.0618711895	 3.2379280644	 1.972447985	-0.238557
H	-0.7876221758	 1.77380198	 0.9039395326	 0.085367
H	 0.0348678451	 0.4679844294	 0.0341436402	 0.102463
H	-0.3430763242	 1.7519405425	-2.1436719553	 0.098839
H	-2.87031365	 1.8382946675	-2.2054595314	 0.113879
H	-2.9284219528	 1.759440346	-0.3697934202	 0.110722
H	 2.4068036349	 1.2701769969	 1.7156134686	 0.076721
H	 3.3208671714	 4.0391625884	 1.3502344057	 0.092471
H	 3.3262123252	 3.1517338438	-0.2443285165	 0.102676
H	 0.7755447084	 4.4595459	-0.0674002425	 0.099999
H	 0.0700214851	 2.9046460157	 2.2760013304	 0.102428
H	 1.4994906031	 3.8867739046	 2.7362224718	 0.093506
56.8889	70.0576	147.0365	290.4139	343.1197	362.452	455.5147	558.6106	603.0138	742.2967	781.8554	795.8214	809.6452	864.9192	880.2835	899.3078	905.2591	959.2303	985.9805	1000.4051	1008.4168	1063.2757	1070.7198	1096.4301	1117.9832	1122.4626	1142.6653	1156.4773	1171.5467	1183.1288	1186.108	1193.6717	1223.5584	1261.5633	1269.8988	1281.0882	1294.9474	1349.2965	1445.0901	1472.4045	1486.0943	1527.54	1533.8169	2974.3365	3035.6449	3063.9886	3077.0358	3080.8768	3095.0592	3116.5794	3126.6863	3140.9628	3157.6535	3166.2885
C(C1CO1)N1C2CC1C2	C([C@H]1CO1)N1[C@H]2C[C@@H]1C2	
InChI=1S/C7H11NO/c1-5-2-6(1)8(5)3-7-4-9-7/h5-7H,1-4H2	InChI=1S/C7H11NO/c1-5-2-6(1)8(5)3-7-4-9-7/h5-7H,1-4H2/t5-,6+,7-/m0/s1
