18
gdb 37090	2.17052	2.0132	1.31436	2.0242	75.74	-0.2411	0.0644	0.3055	1008.262	0.147376	-401.853086	-401.845488	-401.844544	-401.885001	30.264	
C	-0.0379868035	 1.5186086306	 0.0953187164	-0.317413
C	 1.2716838494	 0.775925382	-0.0512161704	-0.33675
C	-0.0262585534	 0.025237813	-0.0032474401	 0.296959
C	-0.4468496453	-0.9945468338	 1.0445100636	-0.093292
O	-1.8617513458	-1.1918923529	 0.9042762729	-0.248358
C	-0.9869379149	-1.8930034109	 0.008912949	-0.067119
C	-0.5880357382	-0.9109926402	-1.0854928481	 0.2782
C	-1.205304807	-0.6114077027	-2.3898269183	-0.299712
N	 0.0855373199	-1.3350619902	-2.3042372033	-0.370483
H	-0.2755462706	 1.9682587153	 1.0536470977	 0.122661
H	-0.4007511953	 2.0799233506	-0.7600861013	 0.116665
H	 1.7933837708	 0.8418149696	-1.0019696384	 0.109228
H	 1.9322768213	 0.7127027008	 0.8075380711	 0.120993
H	 0.0024958141	-1.2101544949	 2.0068898106	 0.107816
H	-1.0518261419	-2.9730046335	-0.0412415991	 0.113175
H	-2.0394424749	-1.2024983047	-2.7573602251	 0.12482
H	-1.2014740699	 0.4236424553	-2.7240071263	 0.112504
H	 0.8608042652	-0.7112359733	-2.5185893011	 0.230107
104.8722	195.0115	198.6429	247.9163	310.5545	356.3385	512.4708	536.121	594.9621	614.6977	770.7147	824.6404	850.2996	866.8626	875.1535	886.9831	918.5011	945.831	963.489	976.7492	982.2746	994.1604	1034.613	1053.0887	1065.6734	1076.0519	1121.1954	1183.9352	1191.9949	1199.4964	1230.6363	1250.51	1264.8173	1359.7128	1387.4333	1437.2784	1464.122	1502.8825	1519.3519	3103.3035	3117.5677	3127.7165	3183.9154	3188.7386	3196.8612	3202.1579	3214.62	3485.5094
C1CC11C2OC2C11CN1	C1CC21[C@H]1O[C@H]1[C@]12CN1	
InChI=1S/C7H9NO/c1-2-6(1)4-5(9-4)7(6)3-8-7/h4-5,8H,1-3H2	InChI=1S/C7H9NO/c1-2-6(1)4-5(9-4)7(6)3-8-7/h4-5,8H,1-3H2/t4-,5+,7-/m0/s1
