18
gdb 9761	3.88414	1.5205	1.42211	2.2027	69.15	-0.2391	0.0264	0.2654	954.1057	0.153757	-384.946468	-384.93832	-384.937376	-384.978981	30.83	
O	-0.0512550709	 1.4303834448	-0.1573394413	-0.437888
C	 0.0106886574	 0.0200371683	 0.0478004576	-0.136936
C	-1.4333617467	-0.4855519135	 0.0538547043	 0.387231
O	-2.0489655291	-0.0789411776	-1.1722049077	-0.485111
C	-1.5251616901	-2.0255133522	 0.1702281315	-0.266255
C	-2.6611101913	-2.3255286172	 1.1803613954	-0.260393
C	-2.9010920403	-0.9902352531	 1.8402419726	-0.071183
C	-2.232132693	-0.0024776345	 1.2516461466	-0.106613
H	 0.8257223906	 1.7505799227	-0.3841517553	 0.294615
H	 0.5593448902	-0.4727198087	-0.7681647047	 0.094101
H	 0.5029693292	-0.2223615531	 1.0008500414	 0.09163
H	-1.7895953195	 0.8432804238	-1.2971717332	 0.280297
H	-1.7001385247	-2.4557422856	-0.817549597	 0.116164
H	-0.5770286442	-2.4265568909	 0.5438579045	 0.095963
H	-3.5725960735	-2.6834075116	 0.6839986613	 0.113937
H	-2.3803310083	-3.1040548884	 1.8992646648	 0.10113
H	-3.574082877	-0.8733485135	 2.6836164208	 0.091559
H	-2.2631513687	 1.0455638103	 1.5259705183	 0.097752
64.4987	130.5308	215.6594	237.6626	269.1505	350.8394	383.662	445.1673	464.6192	506.5164	676.8022	728.9067	773.597	808.7102	832.6698	921.6509	947.3883	968.4013	985.9459	1003.813	1051.97	1089.2921	1109.1713	1137.2861	1143.4624	1196.0296	1240.0416	1247.4586	1285.0464	1309.6098	1322.3881	1369.7008	1410.1226	1442.2281	1472.8867	1494.2033	1504.4389	1688.6097	2984.6352	3022.6991	3028.4237	3044.6286	3059.0179	3118.0711	3178.3017	3210.601	3769.5102	3845.3649
OCC1(O)CCC=C1	OC[C@@]1(O)CCC=C1	
InChI=1S/C6H10O2/c7-5-6(8)3-1-2-4-6/h1,3,7-8H,2,4-5H2	InChI=1S/C6H10O2/c7-5-6(8)3-1-2-4-6/h1,3,7-8H,2,4-5H2/t6-/m0/s1
