21
gdb 109744	2.56761	1.11611	1.01866	2.6177	81.56	-0.2185	0.0169	0.2354	1321.5003	0.180955	-420.416994	-420.406481	-420.405537	-420.452607	37.978	
C	-1.2817392451	-0.7104691355	-3.3719522054	-0.378462
C	-0.7115981467	-0.2877242875	-2.019536836	-0.120472
N	-1.5189345775	-0.8794207151	-0.9476053014	-0.106609
C	-1.1946112902	-2.1672317055	-0.3638273991	 0.004539
C	-0.0128605968	-3.0223445193	-0.7675229059	-0.433394
C	-1.0625176741	-0.8953964845	 0.4448704158	-0.141688
C	 0.283065342	-0.379100097	 0.8711924816	 0.423442
N	 0.2783315108	 0.187177473	 2.1161773105	-0.534312
O	 1.3052035859	-0.4454738575	 0.2062087906	-0.379501
H	-0.7367026985	-0.2207255413	-4.1849605564	 0.111139
H	-1.1968101308	-1.7925507876	-3.5161144194	 0.116496
H	-2.33973605	-0.4433797454	-3.4484582028	 0.120713
H	 0.3528235176	-0.5300960488	-1.9493820303	 0.129321
H	-0.7928059026	 0.799869254	-1.9078480244	 0.098839
H	-2.0875687932	-2.7514188999	-0.135815289	 0.090298
H	 0.9119423015	-2.4506188677	-0.8266578077	 0.167491
H	 0.1251956065	-3.8195351372	-0.0292381028	 0.116844
H	-0.2057746065	-3.5025653011	-1.7331297441	 0.118836
H	-1.8596222289	-0.67276574	 1.154718013	 0.074779
H	-0.566616986	 0.3491657388	 2.6340372642	 0.260589
H	 1.1360956726	 0.596623605	 2.4477159588	 0.261112
63.5991	84.0454	143.223	146.0362	166.7895	212.3465	221.7241	277.7949	278.1879	345.2389	398.0059	474.7215	514.3704	588.2246	667.7266	709.9278	777.0655	792.5959	815.5986	825.2071	939.3699	1001.8681	1026.9015	1052.6029	1083.5362	1099.3221	1135.2729	1143.7966	1168.168	1194.514	1288.9207	1300.7476	1354.5178	1373.0362	1399.938	1408.8613	1421.6077	1434.622	1488.1508	1492.2979	1497.9953	1507.0287	1525.8048	1614.4242	1768.4361	3036.3577	3038.7282	3039.5076	3080.4456	3081.7963	3091.2226	3093.0345	3107.3561	3118.2023	3166.5195	3607.8574	3744.9816
CCN1C(C)C1C(N)=O	CCN1[C@@H](C)[C@H]1C(=O)N	
InChI=1S/C6H12N2O/c1-3-8-4(2)5(8)6(7)9/h4-5H,3H2,1-2H3,(H2,7,9)	InChI=1S/C6H12N2O/c1-3-8-4(2)5(8)6(7)9/h4-5H,3H2,1-2H3,(H2,7,9)/t4-,5-,8?/m0/s1
