16
gdb 46927	3.42282	1.40017	1.08595	3.4301	64.48	-0.2582	0.0409	0.2992	1060.6037	0.126333	-475.031615	-475.024157	-475.023213	-475.063884	28.259	
O	-0.0328847873	-0.101347268	 0.2822002734	-0.375491
C	-0.0075548752	 1.0756885983	 0.0217922626	 0.456309
N	-1.1440632474	 1.8503351753	 0.1156367672	-0.360921
C	-1.4360767739	 3.2436579215	-0.2062433954	-0.213302
C	-0.8623643052	 3.6611808457	-1.5488262883	 0.054157
O	-0.0450136161	 4.8343733739	-1.554143036	-0.246659
C	 0.5905443182	 3.5648014057	-1.7194639091	 0.038516
C	 1.3821695179	 3.0318083996	-0.5467994513	-0.115073
O	 1.1725824818	 1.6251968627	-0.3825176583	-0.242471
H	-1.9103617094	 1.2899195598	 0.4514041927	 0.261818
H	-2.5248541483	 3.3386757516	-0.2153618558	 0.124132
H	-1.0668309395	 3.9360638814	 0.5592895708	 0.132974
H	-1.5035836426	 3.5485338336	-2.4207533302	 0.111749
H	 0.9997564445	 3.3805097357	-2.7109719285	 0.113495
H	 2.4574926672	 3.1276598701	-0.7112558358	 0.131316
H	 1.1305780953	 3.5831558231	 0.363674022	 0.12945
77.9537	128.9056	252.309	281.0239	366.9832	374.1867	466.785	505.757	519.929	644.5653	716.0431	756.6973	774.8438	838.8978	843.8933	958.1945	980.4492	1037.964	1071.5082	1080.629	1128.8853	1146.8505	1164.7002	1259.8335	1273.7129	1281.3205	1284.4497	1380.2662	1390.5474	1418.907	1470.2013	1485.6383	1506.622	1525.4828	1828.6019	3033.4331	3067.1144	3092.9278	3114.7799	3130.925	3142.6481	3648.4356
O=C1NCC2OC2CO1	O=C1NC[C@H]2O[C@H]2CO1	
InChI=1S/C5H7NO3/c7-5-6-1-3-4(9-3)2-8-5/h3-4H,1-2H2,(H,6,7)	InChI=1S/C5H7NO3/c7-5-6-1-3-4(9-3)2-8-5/h3-4H,1-2H2,(H,6,7)/t3-,4+/m1/s1
