17
gdb 82619	2.41747	2.09239	1.55703	1.739	65.23	-0.2355	0.0853	0.3208	902.9232	0.137087	-458.94711	-458.939973	-458.939029	-458.978311	28.772	
C	-0.0407591401	 1.4965326044	 0.0218071047	-0.508211
C	-0.0431132879	-0.0036712095	-0.0209216193	 0.193089
C	 1.1350873	-0.8963969374	-0.3731280222	-0.005403
O	 0.6447215065	-2.0819436621	-0.9877890209	-0.244935
C	-0.5656427836	-2.1928923173	-0.2646168996	 0.092931
O	-0.1926268082	-2.1106777419	 1.1136990117	-0.268307
C	 0.5817885811	-0.9182467835	 1.0310062735	-0.022314
C	-1.253641061	-0.8227629301	-0.4858196759	 0.101032
O	-2.4178417539	-0.636549074	 0.279010637	-0.447858
H	 0.8676797214	 1.8864121724	 0.4924957032	 0.117972
H	-0.1022989246	 1.9228571647	-0.9856440177	 0.126614
H	-0.9005861182	 1.8598263137	 0.594316367	 0.136167
H	 2.1219407142	-0.5884057555	-0.6870261646	 0.118015
H	-1.0928884926	-3.1177260405	-0.4804699363	 0.105378
H	 1.0821850202	-0.6262999771	 1.9425741401	 0.116059
H	-1.5100393922	-0.6556054022	-1.5342444086	 0.100218
H	-2.211778081	-0.961849454	 1.1652438778	 0.289551
189.2638	190.7233	222.554	261.6296	354.0367	448.9678	530.691	559.0461	594.257	649.0102	717.4413	781.6498	824.1212	867.6865	886.2977	903.011	920.9753	972.7737	1011.1479	1026.8409	1037.438	1057.5698	1077.8112	1119.014	1127.951	1193.3832	1218.6755	1235.0716	1270.3209	1286.6578	1302.176	1335.5352	1414.5335	1426.7778	1436.3141	1488.1092	1500.4703	3028.4511	3092.2218	3100.0235	3100.4606	3181.7718	3225.3688	3234.8782	3771.2823
CC12C3OC(OC13)C2O	C[C@@]12[C@@H]3O[C@@H](O[C@H]13)[C@H]2O	
InChI=1S/C6H8O3/c1-6-2(7)5-8-3(6)4(6)9-5/h2-5,7H,1H3	InChI=1S/C6H8O3/c1-6-2(7)5-8-3(6)4(6)9-5/h2-5,7H,1H3/t2-,3-,4+,5+,6-/m1/s1
