19
gdb 83756	2.45866	1.86276	1.46112	2.7332	74.66	-0.2189	0.071	0.2899	980.1335	0.159834	-422.997061	-422.989148	-422.988204	-423.029001	31.281	
C	-0.0368013973	 1.5082938707	-0.0035108374	-0.512971
C	-0.0140809543	 0.007203934	-0.0383933978	 0.273625
C	-0.8865819355	-0.8584056209	 0.8544755324	 0.07837
O	-1.5337633593	-1.9999296866	 0.3497837886	-0.265912
C	-0.5146864214	-2.884517937	-0.1308467848	-0.062192
C	 0.7495728882	-2.0282916005	-0.2029662198	-0.154849
C	 0.586165154	-1.0180760839	 0.9613972443	-0.174995
C	 0.5239743078	-0.8283293772	-1.1870216876	 0.088222
O	-0.3409247642	-0.9788586869	-2.2914449415	-0.431488
H	 0.9440840453	 1.9294289524	-0.254806347	 0.113394
H	-0.7644094994	 1.9018872285	-0.7220426666	 0.134991
H	-0.3138371748	 1.8813565355	 0.9880618124	 0.117082
H	-1.4605013736	-0.3523232091	 1.6225156011	 0.099188
H	-0.3954691149	-3.735263456	 0.5560897175	 0.087219
H	-0.8170563252	-3.2542110558	-1.1155017694	 0.105233
H	 1.6790728536	-2.5883453273	-0.3024315568	 0.068179
H	 1.2129521878	-0.8809480869	 1.8321082881	 0.089082
H	 1.4962398247	-0.4238678758	-1.5031763803	 0.065895
H	 0.1628487785	-1.3338760972	-3.0303173953	 0.281926
156.7174	177.9847	216.0206	250.0345	266.6235	267.7909	362.6726	503.6922	552.603	581.8361	712.4311	732.1212	800.9579	841.995	855.3037	874.1475	898.3585	926.0573	975.172	1012.536	1020.8562	1029.1413	1067.7888	1092.1611	1111.4059	1130.3043	1171.1152	1199.2789	1219.0621	1242.5032	1260.788	1273.3425	1287.9362	1340.8345	1377.2975	1409.919	1415.3403	1461.9392	1485.7414	1497.5794	1504.4706	2994.162	2996.1605	3021.7038	3079.3711	3082.6385	3095.9903	3117.479	3182.5217	3204.6555	3820.5579
CC12C3OCC(C13)C2O	C[C@]12[C@H]3OC[C@H]([C@@H]13)[C@H]2O	
InChI=1S/C7H10O2/c1-7-4-3(5(7)8)2-9-6(4)7/h3-6,8H,2H2,1H3	InChI=1S/C7H10O2/c1-7-4-3(5(7)8)2-9-6(4)7/h3-6,8H,2H2,1H3/t3-,4-,5-,6+,7+/m1/s1
