19
gdb 81396	2.95221	1.35472	1.15453	3.5688	79.47	-0.2445	0.0291	0.2735	1122.0804	0.161978	-382.054086	-382.046349	-382.045405	-382.086221	30.452	
C	-0.1433502667	 1.5325696487	 0.0778057758	-0.434341
C	 0.0243843795	 0.0257014467	 0.0016608337	 0.070252
C	 0.7171483503	-0.5971952606	-1.2468038871	-0.041214
C	 2.0230120112	-0.2745370071	-0.4847339845	-0.200586
N	 1.2204084844	-0.5291506789	 0.7770033878	-0.12189
C	 0.9684202333	-1.980621968	 0.6250303626	-0.192297
C	 0.5930674602	-2.1064020463	-0.9201247265	-0.175003
C	-0.7252222161	-2.6699272302	-1.1718714573	 0.268717
N	-1.7766600331	-3.1140209799	-1.3603616145	-0.333821
H	 0.7370615351	 2.0876074108	-0.2544507409	 0.122173
H	-0.9879648378	 1.8404177193	-0.546870239	 0.127493
H	-0.3583407959	 1.8293043955	 1.1084417411	 0.135745
H	-0.9156620029	-0.4505750313	 0.3002175729	 0.093512
H	 0.5116493103	-0.2930705692	-2.2739946109	 0.083739
H	 2.887700149	-0.9312187638	-0.6193031119	 0.104377
H	 2.3406199198	 0.764852475	-0.5436304273	 0.119603
H	 1.8646237305	-2.5541977471	 0.8689541316	 0.118651
H	 0.1524239115	-2.2997303661	 1.2751809736	 0.133256
H	 1.3313904073	-2.6992811074	-1.4676701191	 0.121632
109.6005	162.2604	193.4065	273.3074	302.2077	357.5062	477.2715	485.5957	537.6473	582.0819	696.6652	778.2967	816.0496	823.1581	844.8157	854.7506	942.7608	967.6489	984.5322	1012.2182	1051.697	1060.4425	1086.2992	1107.5893	1123.3596	1173.809	1203.0301	1212.5592	1243.0423	1253.3738	1265.9082	1299.5669	1318.393	1349.6225	1407.4469	1422.6555	1490.0945	1494.9495	1504.9282	1531.3345	2348.6062	3045.4318	3050.083	3064.6269	3069.6095	3081.1069	3110.8087	3112.656	3123.1444	3136.9186	3155.1199
CC1C2CN1CC2C#N	C[C@H]1[C@H]2CN1C[C@H]2C#N	
InChI=1S/C7H10N2/c1-5-7-4-9(5)3-6(7)2-8/h5-7H,3-4H2,1H3	InChI=1S/C7H10N2/c1-5-7-4-9(5)3-6(7)2-8/h5-7H,3-4H2,1H3/t5-,6+,7+/m0/s1
