13
gdb 25467	3.31167	1.57847	1.06896	6.858	69.7	-0.2606	-0.088	0.1727	1019.4708	0.09019	-452.810865	-452.803652	-452.802708	-452.843934	25.957	
O	-0.2638385392	 0.0200402914	 0.0043327113	-0.231673
C	-0.0870128772	 1.197590735	 0.0102746673	 0.179856
N	 1.1690841618	 1.8716631676	 0.0012528491	-0.190047
C	 1.1316587475	 3.2424655932	 0.0122981658	 0.073538
C	 2.2668617462	 3.9731344612	 0.0059561846	-0.210642
C	 3.4936264667	 3.2408332736	-0.0122590454	 0.03894
N	 3.5883739588	 1.9478933434	-0.0236409007	-0.312221
C	 2.4466569294	 1.1522418249	-0.0189079283	 0.459952
O	 2.4688333461	-0.0461626264	-0.0303157147	-0.313788
H	-0.9085453983	 1.9420153834	 0.024256392	 0.098067
H	 0.1394579256	 3.6829597223	 0.0263232575	 0.148089
H	 2.2459101775	 5.0535284136	 0.0145957942	 0.125775
H	 4.4341401152	 3.793144797	-0.0171645527	 0.134155
21.8387	144.9815	243.9894	252.182	403.6767	441.1411	507.6658	520.4016	582.6521	676.2358	724.75	789.1984	808.9275	932.4309	973.0924	984.8548	1013.1021	1022.1601	1094.3709	1156.7552	1192.4547	1299.9522	1415.8025	1464.0346	1477.7039	1568.6375	1696.2514	1818.4332	1888.9074	2926.6435	3125.9941	3180.7074	3239.1145
O=CN1C=CC=NC1=O	O=Cn1cccnc1=O	
InChI=1S/C5H4N2O2/c8-4-7-3-1-2-6-5(7)9/h1-4H	InChI=1S/C5H4N2O2/c8-4-7-3-1-2-6-5(7)9/h1-4H
