21
gdb 38575	2.67584	2.08666	1.93691	0.108	83.28	-0.2506	0.0857	0.3363	877.349	0.188446	-349.965556	-349.959558	-349.958613	-349.995346	27.342	
C	-0.0304348812	 1.5544042589	 0.05603516	-0.226792
C	 1.5224358422	 1.5025105915	-0.0088618446	-0.025951
C	 2.1062207203	 1.3303698406	 1.4018848337	-0.2279
C	 1.569054206	 0.0423787007	 2.0155337812	-0.042759
C	 1.7604493253	-1.2396680771	 1.2370431868	-0.057547
C	 2.2748062347	-1.0346506398	-0.1815644068	-0.244674
C	 1.3878528254	 0.0992268568	-0.7021577328	-0.019635
C	-0.0022719249	 0.0051412393	 0.0053490613	-0.029632
C	 0.3775659467	-0.6173598327	 1.3455080644	-0.061367
H	-0.487720539	 2.0328178376	 0.9278435897	 0.085474
H	-0.4600544446	 1.9807939024	-0.8549338703	 0.090028
H	 2.03222696	 2.2949220289	-0.5626970532	 0.0535
H	 3.2037029703	 1.3032632368	 1.3664338126	 0.091729
H	 1.8356620196	 2.1954939216	 2.019853131	 0.092409
H	 1.6263944917	-0.0376214326	 3.0966270754	 0.075217
H	 2.012503347	-2.148622763	 1.7725235139	 0.072459
H	 3.3426812616	-0.7840495796	-0.2179834207	 0.093773
H	 2.1351678593	-1.9439138039	-0.7787580046	 0.093044
H	 1.3420633667	 0.1797595766	-1.789916763	 0.06222
H	-0.8232035615	-0.5241899709	-0.4847891865	 0.053254
H	-0.3930266457	-1.063930602	 1.9636767223	 0.073151
275.6799	343.9905	371.4412	448.3932	510.77	614.1981	625.9265	688.0131	765.9059	781.7366	797.9865	820.0637	853.4407	882.8244	902.3895	924.0251	944.5767	954.9151	994.1624	1022.2321	1037.8513	1046.1991	1060.8403	1071.7716	1090.9458	1107.5156	1113.7576	1137.7744	1151.6663	1180.5575	1218.0074	1242.9888	1254.1559	1263.9944	1285.5177	1310.2406	1318.5796	1329.6186	1348.5154	1363.7402	1374.5727	1425.599	1482.6935	1491.3751	1501.4264	3008.6995	3021.7181	3041.6531	3045.5596	3055.4489	3067.3012	3069.194	3091.4868	3098.8107	3149.1198	3161.7707	3174.9467
C1C2CC3C4CC2C1C34	C1[C@H]2C[C@@H]3[C@@H]4C[C@H]2[C@H]1[C@H]34	
InChI=1S/C9H12/c1-4-2-7-8-3-5(4)6(1)9(7)8/h4-9H,1-3H2	InChI=1S/C9H12/c1-4-2-7-8-3-5(4)6(1)9(7)8/h4-9H,1-3H2/t4-,5+,6-,7+,8-,9+/m0/s1
