18
gdb 53064	5.94218	0.7805	0.73565	1.7591	93.42	-0.2087	-0.0181	0.1906	1576.1676	0.147866	-364.775777	-364.767184	-364.76624	-364.810367	31.447	
C	-0.066754815	 1.4451451435	 0.0267967001	-0.507429
C	-0.0044750388	-0.0072802328	-0.0012171916	 0.195662
C	 0.0662584176	-1.2130083641	-0.0269853142	-0.131519
C	 0.0693682791	-2.6244555562	-0.0579133087	 0.186575
C	 1.1184934443	-3.4536017059	-0.1941767908	-0.194645
C	 0.6800179565	-4.8681182961	-0.0956934662	-0.063755
C	 0.0518915491	-5.2524326333	 1.2045264909	-0.23447
N	-0.7946160745	-4.8646884458	 0.0744891995	-0.100114
C	-1.211544263	-3.4485794851	 0.0764072387	-0.273609
H	 0.4897355996	 1.8519878727	 0.8789911508	 0.151149
H	 0.3627007583	 1.8780659428	-0.8839198058	 0.152259
H	-1.1008364275	 1.7980712784	 0.1060754168	 0.150837
H	 2.1471983211	-3.1494889076	-0.3363864602	 0.103607
H	 1.113965418	-5.6242318734	-0.7447288671	 0.096517
H	-0.0294124299	-6.2996128697	 1.4844085576	 0.115797
H	 0.1726470023	-4.557671195	 2.0334584219	 0.113151
H	-1.7679514442	-3.2088821094	 0.9899454132	 0.119995
H	-1.885095443	-3.2653928029	-0.769954745	 0.119989
27.5499	87.7819	94.1974	214.3565	295.8275	345.6862	377.0967	434.4421	513.3736	525.3402	542.1079	702.8769	773.4321	803.8384	870.0634	872.9097	929.3473	969.4706	1001.0293	1031.6976	1048.4881	1052.9602	1055.7433	1084.2909	1108.9257	1154.1122	1211.997	1256.4378	1269.758	1280.6205	1325.7025	1360.2332	1413.5047	1475.4222	1476.1492	1486.6333	1499.955	1663.735	2345.3994	3023.6634	3024.3133	3062.8916	3082.1441	3087.851	3094.0537	3141.3865	3185.0277	3221.7044
CC#CC1=CC2CN2C1	CC#CC1=C[C@H]2CN2C1	
InChI=1S/C8H9N/c1-2-3-7-4-8-6-9(8)5-7/h4,8H,5-6H2,1H3	InChI=1S/C8H9N/c1-2-3-7-4-8-6-9(8)5-7/h4,8H,5-6H2,1H3/t8-,9?/m0/s1
