21
gdb 66306	4.28084	0.64822	0.61776	2.8741	80.93	-0.2516	-0.0249	0.2267	1841.3963	0.178929	-424.214669	-424.204353	-424.203409	-424.251433	36.611	
C	 0.0670410768	 1.6073192628	 0.3516672377	-0.45768
C	-0.0262369522	 0.1242510201	 0.0654300034	 0.450225
C	 1.1883511532	-0.640375282	-0.4049705451	-0.31755
C	 0.6261680851	-0.8590364285	 0.9874629826	-0.310895
O	-1.2717183825	-0.3121805809	-0.4201470523	-0.287852
C	-1.5745845684	 0.0909051988	-1.7426298158	-0.081452
C	-2.8415722778	-0.6511263153	-2.1703792028	-0.277903
C	-3.4031618557	-0.1197504797	-3.4683409487	 0.153121
O	-3.6429448335	-0.7860644165	-4.4415701462	-0.233604
H	 1.0262647342	 1.8479996679	 0.8179645616	 0.12036
H	-0.0132202166	 2.2068788479	-0.5614917117	 0.118541
H	-0.7327603976	 1.9143426771	 1.0337752245	 0.125483
H	 1.0287415123	-1.4317327794	-1.1286370134	 0.118227
H	 2.1292027042	-0.1111074991	-0.5111260622	 0.112995
H	 1.1788331293	-0.4784099298	 1.8393658107	 0.112001
H	 0.09129138	-1.7846537629	 1.1647640034	 0.12412
H	-1.7413425846	 1.1784516264	-1.7957016916	 0.094285
H	-0.7411422604	-0.1467494648	-2.4202095315	 0.104501
H	-2.6621904242	-1.7245878086	-2.2633349987	 0.128447
H	-3.5968914482	-0.4919906936	-1.3878240023	 0.132668
H	-3.5969925032	 0.9794570401	-3.4682956817	 0.071961
44.1715	54.0031	72.1275	139.6506	143.7405	221.4517	269.5175	289.8804	337.6139	395.3111	413.4429	502.3961	542.9504	718.6442	776.7924	789.0722	860.9846	869.0435	920.4275	930.6501	961.6179	1012.8971	1034.6465	1057.4188	1078.8331	1095.8755	1109.8667	1139.7679	1141.7617	1189.3574	1226.6414	1275.7525	1286.1951	1304.535	1340.7917	1413.4343	1426.3156	1432.0693	1453.4352	1466.3697	1485.507	1492.0463	1507.6263	1527.4285	1838.033	2848.2383	2974.6113	3011.8391	3027.4782	3034.4439	3096.7333	3115.1756	3117.4308	3133.6226	3139.5834	3218.1489	3233.4551
CC1(CC1)OCCC=O	CC1(CC1)OCCC=O	
InChI=1S/C7H12O2/c1-7(3-4-7)9-6-2-5-8/h5H,2-4,6H2,1H3	InChI=1S/C7H12O2/c1-7(3-4-7)9-6-2-5-8/h5H,2-4,6H2,1H3
