21
gdb 82473	2.61559	1.72887	1.50389	1.4505	81.39	-0.2346	0.0927	0.3273	1015.5985	0.183525	-387.063838	-387.056044	-387.0551	-387.095489	32.033	
C	 0.0113289893	 1.522128328	-0.023783702	-0.424634
C	 0.0783605148	-0.0001194072	 0.0306308678	 0.053148
C	 1.0894617997	-0.6439948191	-0.9475991856	 0.051881
O	 2.3402136179	-0.0089189518	-0.547191196	-0.328151
C	 2.2314452897	-0.8400231062	 0.6188216085	 0.479611
C	 3.4606098641	-0.9486609155	 1.4678912077	-0.512414
C	 1.4794323877	-1.9530113287	-0.1559946569	-0.121111
C	 0.5148275534	-2.1390304072	 1.0260417486	-0.262593
C	 0.7665711641	-0.6283302356	 1.2681333599	-0.131106
H	 1.0081271288	 1.95826516	 0.0662717902	 0.134757
H	-0.4235366255	 1.8626964734	-0.9704641623	 0.108048
H	-0.6146960106	 1.9107089754	 0.786413792	 0.107487
H	-0.9245418633	-0.4224234365	-0.1010792903	 0.065824
H	 0.9091005996	-0.6141212093	-2.0218290337	 0.072827
H	 3.7070969104	 0.0248730757	 1.9055488819	 0.130409
H	 3.3045180545	-1.6570998826	 2.2872245764	 0.124062
H	 4.3158151654	-1.28402403	 0.8736840758	 0.128494
H	 1.9779778885	-2.7569764125	-0.6962529965	 0.07164
H	-0.5156254361	-2.4552548314	 0.8410005844	 0.093484
H	 0.9614184085	-2.7800772923	 1.7914565583	 0.098094
H	 0.6169374991	-0.1608170466	 2.2411330318	 0.060243
171.4396	198.308	202.8268	263.0879	289.3357	317.8522	448.8301	488.7867	566.0879	600.4033	703.5224	724.3428	782.6323	823.8826	844.4627	865.4009	884.9218	922.5648	932.378	965.445	993.5222	1002.4731	1035.2171	1066.6854	1078.6541	1106.3475	1131.6068	1148.5813	1157.9905	1170.8994	1212.2807	1218.5834	1253.7599	1269.9736	1299.0621	1312.3295	1354.1606	1382.1703	1405.3267	1415.9015	1476.3658	1492.9159	1493.3111	1504.0371	1506.8999	3031.5992	3035.5912	3038.8942	3052.2722	3090.8907	3102.5546	3104.3179	3114.2388	3118.4983	3119.8781	3130.2617	3133.6874
CC1C2OC3(C)C2CC13	C[C@H]1[C@H]2O[C@]3(C)[C@H]2C[C@H]13	
InChI=1S/C8H12O/c1-4-5-3-6-7(4)9-8(5,6)2/h4-7H,3H2,1-2H3	InChI=1S/C8H12O/c1-4-5-3-6-7(4)9-8(5,6)2/h4-7H,3H2,1-2H3/t4-,5-,6+,7-,8+/m1/s1
