18
gdb 74104	2.49445	1.63097	1.08133	5.6832	80.89	-0.2051	-0.0203	0.1848	1123.9016	0.148954	-401.982177	-401.974068	-401.973124	-402.014726	31.403	
C	 0.0251896889	 1.5076439059	 0.0939953933	-0.487925
C	-0.0064444917	 0.0096949455	-0.0313645017	 0.382031
C	 0.0262227923	-0.6267853119	-1.2349105862	-0.320456
C	-0.0289409345	-2.072487355	-1.3600282172	 0.392154
O	-0.1844370433	-2.6605009276	-2.4197058328	-0.375171
C	 0.0915433611	-2.8478795273	-0.0733063259	-0.153038
C	 1.3569151932	-2.7170865461	 0.7588651901	-0.310926
C	 0.0768530185	-2.0847370764	 1.2342698395	 0.001574
N	-0.1099442324	-0.6660427047	 1.1530518747	-0.354717
H	 0.9301472386	 1.8373554413	 0.6188915965	 0.135514
H	 0.009393515	 1.9794102765	-0.8886836454	 0.147867
H	-0.8363145281	 1.8675755025	 0.6681206938	 0.139206
H	 0.0272162344	-0.0476556781	-2.1494230801	 0.091731
H	-0.3796408314	-3.8231935932	-0.1098693469	 0.109714
H	 1.7094248688	-3.6021941819	 1.2755052359	 0.123844
H	 2.1350534758	-2.0628713862	 0.3814314429	 0.127782
H	-0.4316999003	-2.5297688571	 2.0831547406	 0.106632
H	 0.067952525	-0.1422820462	 1.9957788189	 0.244185
116.4565	120.883	174.7364	236.2623	312.2451	390.3077	429.6352	462.6157	487.3466	521.2007	588.9508	655.1514	742.6602	768.4512	818.4922	827.7476	875.7832	953.8177	988.8141	1000.6038	1031.5331	1056.2516	1061.9293	1065.8911	1122.0119	1167.0457	1187.3112	1236.7558	1254.0672	1350.3889	1379.5562	1404.233	1414.998	1471.7359	1480.0727	1482.9774	1545.8423	1654.7844	1743.897	3029.2778	3081.9995	3137.9429	3148.266	3157.9408	3182.8789	3212.6339	3230.0678	3618.8134
CC1=CC(=O)C2CC2N1	CC1=CC(=O)[C@H]2C[C@H]2N1	
InChI=1S/C7H9NO/c1-4-2-7(9)5-3-6(5)8-4/h2,5-6,8H,3H2,1H3	InChI=1S/C7H9NO/c1-4-2-7(9)5-3-6(5)8-4/h2,5-6,8H,3H2,1H3/t5-,6+/m0/s1
