16
gdb 17934	3.16726	2.5207	2.01829	1.2579	71.27	-0.2108	-0.0369	0.1739	740.6563	0.130709	-346.493152	-346.486722	-346.485777	-346.523136	26.329	
O	-0.1105052756	 1.4982672694	 0.4370253573	-0.465676
C	 0.0543730658	 0.1602463332	 0.1544188171	 0.369378
C	-0.8948266312	-0.9819787049	-0.0555639303	-0.151653
C	-0.3977663724	-1.209353875	-1.5292495345	-0.263263
C	 0.8631979775	-0.5039557491	-0.9923384668	-0.038021
C	 1.8266912011	-1.3057589519	-0.4928996982	-0.087342
C	 1.6275557566	-1.4810752388	 1.0102566842	-0.267882
C	 0.1960529531	-0.9255840019	 1.1317327331	-0.085381
H	-0.4370194088	 1.9394708452	-0.3554260908	 0.285628
H	-1.9356395906	-1.0444527797	 0.2535598103	 0.093248
H	-0.2604270152	-2.2283470688	-1.901613902	 0.102231
H	-1.0365398063	-0.6442060199	-2.2186396244	 0.099797
H	 2.2680568102	-2.1119342658	-1.07401266	 0.096713
H	 1.7252615555	-2.549202659	 1.2405503906	 0.110988
H	 2.3076221804	-0.9472504312	 1.6894357491	 0.116289
H	-0.2844305199	-0.836739772	 2.1043975653	 0.084946
223.0268	260.5476	275.2263	320.9209	442.1815	489.2357	565.6744	597.5978	687.7187	741.6257	798.4426	831.2714	872.4435	905.0471	926.1256	949.3725	979.2592	982.2895	1009.9908	1046.5097	1065.0311	1089.3031	1135.0191	1165.3791	1175.2245	1232.4159	1264.0018	1282.2253	1293.0579	1341.7285	1464.6732	1485.5694	1502.6538	1585.6169	3002.9253	3022.8898	3049.8016	3091.1687	3133.9673	3143.5907	3152.6427	3791.3023
OC12C3CC1=CCC23	O[C@@]12[C@H]3C[C]1[CH]C[C@@H]23	
InChI=1S/C7H8O/c8-7-4-1-2-5(7)6(7)3-4/h1,5-6,8H,2-3H2	InChI=1S/C7H8O/c8-7-4-1-2-5(7)6(7)3-4/h1,5-6,8H,2-3H2/t5-,6+,7+/m1/s1
