21
gdb 104156	3.16322	1.09359	1.06718	1.1435	81.88	-0.2437	0.0188	0.2626	1296.8015	0.179948	-424.238591	-424.228667	-424.227723	-424.273155	36.533	
C	 0.0066438723	 1.2534501877	-0.2453050222	-0.249395
O	-0.1506181079	-0.1416610943	-0.056074957	-0.271429
C	-1.4712331204	-0.5902796557	 0.209132403	 0.442042
C	-2.046945232	 0.0320017393	 1.4816359514	-0.438096
O	-2.3475911089	-0.2746540398	-0.8724309214	-0.293182
C	-2.5636096262	-1.4280786865	-1.6750004705	-0.170718
C	-2.0078750719	-2.5834491435	-0.8805574386	 0.302478
C	-2.1390583611	-3.9999410243	-1.3362698427	-0.494454
C	-1.4080485494	-2.098282329	 0.2016038866	-0.250125
H	 1.0165861802	 1.401172886	-0.6359309491	 0.120978
H	-0.7181291607	 1.6425535567	-0.9696910719	 0.123672
H	-0.0872020913	 1.8179829044	 0.6929258155	 0.10341
H	-2.2277629119	 1.1008746315	 1.3442770091	 0.126478
H	-2.9998411625	-0.4430692702	 1.7254245131	 0.121921
H	-1.3546769682	-0.1056178022	 2.3170426898	 0.119937
H	-3.6412228336	-1.5251880115	-1.8694401113	 0.105918
H	-2.0629042899	-1.3327602817	-2.6521813711	 0.105852
H	-3.1922705348	-4.288887396	-1.4410007138	 0.129546
H	-1.6763578117	-4.1406651379	-2.3211311941	 0.132918
H	-1.6633391528	-4.6915418676	-0.6367976428	 0.131311
H	-0.8821089974	-2.6569597554	 0.964672148	 0.10094
85.0211	110.3597	145.3862	166.9179	180.3312	227.2912	275.5768	294.704	354.6048	370.5858	407.6698	485.2487	546.5135	617.1506	659.8561	824.0364	835.6925	881.1033	904.5121	932.0338	995.0648	1012.9734	1073.9202	1085.7229	1093.0478	1098.6499	1141.968	1175.877	1196.2605	1208.0938	1218.5509	1266.0923	1339.6024	1380.4587	1399.8919	1415.3939	1466.7837	1480.6487	1482.2831	1485.7977	1488.7311	1502.4213	1511.7894	1513.4664	1736.4994	2974.601	3000.2613	3015.2557	3022.4037	3050.4319	3068.1983	3068.8161	3114.0307	3118.7486	3128.2225	3131.3327	3221.0691
COC1(C)OCC(C)=C1	CO[C@@]1(C)OCC(=C1)C	
InChI=1S/C7H12O2/c1-6-4-7(2,8-3)9-5-6/h4H,5H2,1-3H3	InChI=1S/C7H12O2/c1-6-4-7(2,8-3)9-5-6/h4H,5H2,1-3H3/t7-/m0/s1
