23
gdb 84027	2.58619	1.36408	1.10899	1.3567	85.33	-0.2394	0.0804	0.3198	1217.8794	0.208319	-388.284391	-388.275872	-388.274927	-388.317101	34.07	
C	-0.150761635	 1.585355187	 0.1137770633	-0.409499
C	 0.0392411985	 0.0855003779	 0.0215561725	-0.046045
C	 0.5763920679	-0.6215344897	-1.2055646659	-0.017693
C	 1.0777625444	 0.0892886412	-2.4528910691	-0.235071
C	 2.4416801787	-0.4430956724	-2.9285312526	-0.186404
C	 3.6371459465	 0.0332898217	-2.0915965734	-0.06273
O	 3.6858548056	-0.4278839508	-0.7545111342	-0.240229
C	 2.7103896341	 0.1441072597	 0.1068553543	-0.106262
C	 1.3929086624	-0.6025834413	 0.0686885401	-0.037602
H	 0.6211556828	 2.1515164119	-0.4124491892	 0.119593
H	-1.1160922854	 1.8773973077	-0.3147713919	 0.117229
H	-0.1406068901	 1.9148203519	 1.1587652694	 0.117424
H	-0.7461585631	-0.4596878363	 0.5402894185	 0.082591
H	 0.1087853757	-1.57812792	-1.4270354155	 0.079958
H	 0.3365939178	-0.0351498491	-3.2514446393	 0.095139
H	 1.1560711947	 1.1708602469	-2.2910576524	 0.092804
H	 2.4289203246	-1.5399154244	-2.9454677558	 0.101433
H	 2.6239005194	-0.1129977829	-3.9602095736	 0.088252
H	 4.5647528373	-0.32244227	-2.5533287521	 0.101336
H	 3.6667121603	 1.1379044982	-2.1049941839	 0.077957
H	 3.135295727	 0.0927562055	 1.1154998917	 0.102296
H	 2.5821810482	 1.209158054	-0.1338045528	 0.083393
H	 1.424554158	-1.5402002568	 0.6172005118	 0.08213
112.5844	153.0147	205.8581	255.0025	269.8969	319.3981	337.5674	398.3744	462.6845	484.583	556.0022	592.1806	748.6211	762.0739	821.1545	848.9335	902.7634	922.0002	939.6028	960.8237	991.7648	1025.6628	1048.9953	1062.7741	1095.5074	1115.1768	1127.7541	1153.695	1170.4344	1188.9127	1234.9336	1259.0756	1270.1472	1289.7744	1335.61	1347.7095	1374.8171	1381.8135	1395.7582	1407.0263	1420.0953	1425.5047	1452.9737	1475.2167	1486.5745	1489.6068	1498.2138	1499.2553	1509.5779	2942.0694	2998.5662	3014.3079	3027.8415	3033.5602	3055.1956	3059.6953	3062.7155	3068.6555	3086.6429	3110.9623	3122.0187	3127.7434	3143.9837
CC1C2CCCOCC12	C[C@H]1[C@H]2CCCOC[C@@H]12	
InChI=1S/C8H14O/c1-6-7-3-2-4-9-5-8(6)7/h6-8H,2-5H2,1H3	InChI=1S/C8H14O/c1-6-7-3-2-4-9-5-8(6)7/h6-8H,2-5H2,1H3/t6-,7+,8-/m0/s1
