15
gdb 47263	2.44553	1.74837	1.18075	6.0122	69.5	-0.2408	-0.0315	0.2093	1017.8036	0.114769	-454.000294	-453.992567	-453.991622	-454.032799	28.95	
O	 0.0009564283	-0.0644004188	-0.0595449899	-0.342748
C	-0.0302000253	 1.1447234578	 0.0178124973	 0.325221
N	-1.1811581943	 1.8649044925	 0.1067419075	-0.302951
C	-1.2605965026	 3.3214761909	 0.029535449	-0.248539
C	-0.7045439104	 3.8726670045	-1.2584128488	-0.099996
C	 0.5802950966	 3.7008250039	-1.5739691582	 0.024969
N	 1.4970167868	 2.9898028514	-0.7954429615	-0.325194
C	 1.313224715	 1.9201025154	 0.0684314842	 0.284646
O	 2.2231760408	 1.5146252946	 0.7530486996	-0.33021
H	-2.0242721723	 1.3162403459	 0.0123314682	 0.253671
H	-2.307643322	 3.5992780718	 0.1566597319	 0.127682
H	-0.7139692414	 3.7527013229	 0.8801433855	 0.140614
H	-1.3543108317	 4.3986842692	-1.9466842611	 0.109596
H	 1.0077158241	 4.1237058761	-2.4773963178	 0.122429
H	 2.4699609685	 3.263596592	-0.8494288159	 0.26081
74.2896	120.0632	222.5183	290.8622	334.7935	373.8821	412.0634	509.1715	544.2754	603.7892	651.403	665.5899	691.8455	779.3234	805.5633	822.1564	922.5263	953.0937	1021.8421	1071.3007	1115.8	1198.096	1269.6886	1293.694	1368.5109	1400.9414	1422.5842	1457.5411	1475.6435	1488.6234	1716.0397	1793.7964	1800.0933	3009.217	3120.9464	3181.1891	3213.4768	3578.7241	3602.7851
O=C1NCC=CNC1=O	O=C1NCC=CNC1=O	
InChI=1S/C5H6N2O2/c8-4-5(9)7-3-1-2-6-4/h1-2H,3H2,(H,6,8)(H,7,9)	InChI=1S/C5H6N2O2/c8-4-5(9)7-3-1-2-6-4/h1-2H,3H2,(H,6,8)(H,7,9)
