17
gdb 54780	3.70995	1.28497	1.15197	2.371	72.16	-0.2353	-0.0304	0.2049	1086.9956	0.134993	-421.788033	-421.780199	-421.779254	-421.8214	29.813	
C	 0.7061019542	 0.7972584451	 0.4186310691	-0.486638
C	-0.5160462065	 0.2644099042	-0.2969287347	 0.356164
O	-1.6363505497	 0.6326557284	-0.0187873797	-0.301193
C	-0.3570547712	-0.7708563362	-1.4091129382	-0.071332
C	 1.0644083138	-1.1717023544	-1.9316662433	-0.020166
O	 1.2391284175	-1.9610231524	-0.7055349091	-0.284486
C	-0.1802673677	-2.2576546639	-0.9168472702	 0.010357
C	-0.1460371055	-3.0126062851	-2.2577197208	-0.082074
C	 0.7120923951	-2.2665473739	-2.9556392768	-0.076815
H	 1.3402558558	 1.346068506	-0.2885716739	 0.133604
H	 0.3947421427	 1.468809637	 1.2194208459	 0.13476
H	 1.3082983091	-0.0286064291	 0.8047221607	 0.163965
H	-1.1413986073	-0.6063614515	-2.1492219048	 0.100948
H	 1.8659593081	-0.4630956011	-2.1345040856	 0.087557
H	-0.6995441684	-2.6701605368	-0.0536170474	 0.096302
H	-0.6966875623	-3.9037643577	-2.5182604458	 0.12021
H	 1.0814651421	-2.3587805386	-3.9657413154	 0.118835
24.9436	163.1846	170.9906	202.8596	331.2582	404.8704	516.4476	540.1872	582.0262	621.5642	715.2265	750.1341	828.2014	836.1092	864.0009	871.5574	901.1041	911.4758	946.453	961.8554	1011.1205	1024.413	1052.3587	1144.3144	1147.0708	1177.8097	1213.4129	1235.8445	1247.6719	1294.9594	1295.9533	1331.204	1379.7844	1468.7647	1469.9401	1615.844	1796.0422	3037.9818	3108.5724	3111.4302	3136.9819	3145.6862	3160.4549	3238.0786	3264.989
CC(=O)C1C2OC1C=C2	CC(=O)[C@H]1[C@H]2O[C@@H]1C=C2	
InChI=1S/C7H8O2/c1-4(8)7-5-2-3-6(7)9-5/h2-3,5-7H,1H3	InChI=1S/C7H8O2/c1-4(8)7-5-2-3-6(7)9-5/h2-3,5-7H,1H3/t5-,6+,7-
