18
gdb 46968	3.01775	1.60759	1.18939	3.8027	76.3	-0.23	0.0115	0.2415	1038.9266	0.151476	-402.010758	-402.003535	-402.00259	-402.042673	28.36	
O	 0.1393005931	 0.015588291	-0.796421579	-0.387535
C	 0.0656094093	 1.149727667	-0.3763663676	 0.399036
N	-1.0772548736	 1.8884982177	-0.2378341459	-0.303002
C	-0.9205585566	 3.1542003948	 0.4550329621	-0.181413
C	 0.6092017837	 3.4276604052	 0.3919191086	-0.018836
C	 1.2109568089	 3.8929297233	 1.7398435779	-0.28034
C	 1.739790346	 2.6097376293	 2.3397715427	-0.064374
C	 1.7615787276	 1.6093548799	 1.4603782396	-0.070381
C	 1.2241330965	 2.0306974431	 0.1103601157	-0.169944
H	-1.9734615182	 1.447997702	-0.3765026217	 0.249052
H	-1.4984896915	 3.9470534893	-0.0313807088	 0.110764
H	-1.2623192897	 3.084886983	 1.4973983098	 0.107427
H	 0.8165615325	 4.1327222209	-0.4150710134	 0.082205
H	 2.0233822563	 4.6168627596	 1.5912445375	 0.110596
H	 0.4712889619	 4.3923831798	 2.3777144321	 0.104824
H	 2.088842477	 2.5460563875	 3.3646301582	 0.096933
H	 2.1208620271	 0.6033984905	 1.6417949779	 0.112321
H	 2.0085060098	 2.0211238762	-0.6545695258	 0.102668
82.966	148.3238	193.2113	314.4546	413.0021	469.5507	521.7704	564.8347	683.7657	701.7701	723.6554	762.2036	808.1843	851.526	904.5027	931.7854	946.3019	979.7445	991.6796	1029.2008	1047.2702	1076.6161	1089.2056	1126.1789	1195.3444	1220.0066	1236.5139	1260.4755	1271.0944	1286.3961	1321.3244	1337.1674	1351.6519	1373.3849	1452.0463	1488.3961	1532.3409	1679.271	1826.6938	3000.51	3016.3896	3045.8307	3047.3518	3055.6737	3092.1961	3188.2416	3216.66	3633.5065
O=C1NCC2CC=CC12	O=C1NC[C@H]2CC=C[C@@H]12	
InChI=1S/C7H9NO/c9-7-6-3-1-2-5(6)4-8-7/h1,3,5-6H,2,4H2,(H,8,9)	InChI=1S/C7H9NO/c9-7-6-3-1-2-5(6)4-8-7/h1,3,5-6H,2,4H2,(H,8,9)/t5-,6-/m1/s1
