17
gdb 56777	3.04263	1.17141	1.08637	1.9586	73.78	-0.2367	0.0226	0.2594	1165.7874	0.133492	-421.730386	-421.721493	-421.720549	-421.764414	32.88	
O	 0.1319243383	 1.551948545	-0.0301564635	-0.412488
C	 0.0590767226	 0.1271749316	 0.0271421157	-0.175146
C	 0.5967927745	-0.4826556091	-1.1944619685	 0.292445
C	 1.0903684438	-0.9519382955	-2.1852870301	-0.458403
C	 0.7407782644	-0.4289721088	 1.2533600983	 0.306589
C	 0.2577582533	-1.6441138833	 2.0203781363	-0.349868
C	 0.3929006463	-0.3269362275	 2.7206187461	 0.04184
O	 1.7472925455	-0.0903666364	 3.1062053296	-0.284279
C	 2.158423422	-0.0933683497	 1.7111123463	-0.135253
H	 0.9449073452	 1.7861518422	-0.4895191218	 0.289819
H	-1.0113402897	-0.1054293003	 0.0990570924	 0.116952
H	 1.5067505495	-1.3752812685	-3.0661644074	 0.20491
H	-0.7593814895	-1.9472206606	 1.7880116314	 0.117839
H	 0.9377410038	-2.4564794324	 2.2616881801	 0.117944
H	-0.3912737643	 0.1951138513	 3.2562913056	 0.113403
H	 2.9506327775	-0.822163514	 1.5066541614	 0.109118
H	 2.481544687	 0.9097397761	 1.4110682183	 0.104578
48.6558	104.1709	165.58	188.6012	220.3689	284.2396	325.9257	419.3489	457.5313	479.1879	595.3594	638.1133	675.5762	725.4442	773.9674	845.1017	899.7842	931.4019	944.3789	986.9122	1004.2464	1014.2796	1055.6947	1063.0095	1084.1911	1106.0231	1162.2497	1211.4062	1252.4979	1284.0869	1300.0924	1354.12	1403.505	1409.3521	1481.7362	1509.3659	2231.4228	3026.0037	3027.1914	3079.2324	3113.3229	3185.2743	3204.5879	3500.9764	3822.8404
OC(C#C)C12CC1OC2	O[C@@H](C#C)[C@]12C[C@H]1OC2	
InChI=1S/C7H8O2/c1-2-5(8)7-3-6(7)9-4-7/h1,5-6,8H,3-4H2	InChI=1S/C7H8O2/c1-2-5(8)7-3-6(7)9-4-7/h1,5-6,8H,3-4H2/t5-,6+,7+/m0/s1
