21
gdb 121819	2.94905	0.73464	0.67921	2.0724	75.67	-0.2512	-0.0257	0.2256	1713.6333	0.177832	-461.366039	-461.354588	-461.353644	-461.403746	39.751	
C	 0.2706972095	 1.5644705942	 0.1815412556	-0.435496
C	 0.0668358037	 0.0425364816	 0.0685051038	 0.244619
O	 0.7501934626	-0.6386147481	 1.1179360062	-0.471415
C	-1.4161830695	-0.3699958312	-0.0114077814	-0.199913
C	-2.259330856	 0.0294014557	 1.2021416483	-0.200481
C	-3.6817439563	-0.5109788715	 1.1200199826	-0.074658
O	-4.3750954313	-0.0841561823	 2.2825430279	-0.422339
C	 0.7876062032	-0.4093022098	-1.2043743632	 0.15756
O	 0.3378089983	-0.295271608	-2.3139424186	-0.26342
H	 1.3379055763	 1.8059661137	 0.1770533589	 0.128391
H	-0.2094185577	 2.0828318359	-0.6527740573	 0.139259
H	-0.1564702983	 1.9432475084	 1.1158789612	 0.12065
H	 0.4912103506	-0.2427440172	 1.9555985574	 0.286931
H	-1.8338611088	 0.0531403421	-0.9312084746	 0.118273
H	-1.4436666428	-1.460409337	-0.1278318581	 0.105094
H	-1.8082794926	-0.3543069777	 2.1260089101	 0.09707
H	-2.3177942633	 1.1188311815	 1.3032855381	 0.110948
H	-4.1678080818	-0.1372188238	 0.2039950572	 0.089022
H	-3.6573753736	-1.6106290725	 1.049366269	 0.088828
H	-5.2741747622	-0.4221155598	 2.2382633854	 0.286821
H	 1.7947514301	-0.8386259745	-1.0081089886	 0.094259
49.8252	59.2666	71.2664	113.4909	143.424	219.0983	233.411	258.957	264.4725	277.1268	287.6747	357.8455	418.1343	462.0078	497.1817	632.4167	756.9241	774.1614	865.4306	913.824	952.327	981.1134	1021.4257	1041.2877	1066.1935	1081.8503	1109.4883	1184.4188	1218.3687	1230.0845	1236.0795	1302.7217	1313.3233	1329.0758	1346.4248	1388.8285	1400.6615	1405.5368	1460.3093	1476.3519	1491.6177	1499.1441	1500.1029	1528.2695	1838.2369	2898.7668	2961.4747	2987.7283	3026.3383	3034.5085	3037.3266	3069.7183	3091.2292	3106.7053	3125.1963	3828.9611	3831.9189
CC(O)(CCCO)C=O	C[C@@](O)(CCCO)C=O	
InChI=1S/C6H12O3/c1-6(9,5-8)3-2-4-7/h5,7,9H,2-4H2,1H3	InChI=1S/C6H12O3/c1-6(9,5-8)3-2-4-7/h5,7,9H,2-4H2,1H3/t6-/m1/s1
