19
gdb 118698	2.42879	1.08038	0.99138	2.099	68.84	-0.2355	0.0492	0.2848	1316.7269	0.155828	-497.24803	-497.237798	-497.236854	-497.283315	37.092	
C	 0.0143483976	 1.3473922984	 0.0715045829	-0.225648
O	-0.0680286979	-0.050202608	 0.2225547776	-0.256356
C	-1.34249275	-0.5738772122	-0.117663393	-0.118946
C	-1.2109677644	-2.0725066837	-0.0593179753	 0.309027
O	-0.1634996573	-2.5754849864	-0.8374567302	-0.471046
C	-1.5139157546	-2.835510389	 1.21791227	-0.046354
O	-2.0419498373	-2.1034617528	 2.2971798939	-0.426697
C	-2.4239323278	-2.9633107419	 0.0067733164	 0.037791
O	-3.6995034685	-2.4049288208	 0.0993486406	-0.432982
H	 1.0290345031	 1.6474402287	 0.3442981063	 0.127617
H	-0.1835016057	 1.6572787297	-0.9665306481	 0.10819
H	-0.698909819	 1.8690580308	 0.7278778624	 0.109506
H	-2.1130981159	-0.2078088258	 0.5718102791	 0.100953
H	-1.6186742726	-0.2677127111	-1.1394419029	 0.099041
H	 0.6075387611	-2.0391112004	-0.609330125	 0.288963
H	-0.8388070822	-3.6486095113	 1.473313772	 0.101125
H	-2.4452355938	-2.7308032189	 2.9079471477	 0.298512
H	-2.3959030479	-3.8736281371	-0.5850723165	 0.113496
H	-3.760313157	-2.0281220283	 0.9885822921	 0.283806
64.2052	95.7408	113.6719	191.574	223.2611	231.3409	258.0235	288.8778	314.173	358.0669	408.5237	452.2914	496.7964	510.5348	569.5984	655.3103	780.0429	856.1348	900.6147	982.246	993.9813	1027.5295	1070.618	1126.7974	1145.4637	1155.772	1183.4917	1204.5669	1220.5262	1230.7433	1279.2666	1287.5358	1332.6779	1364.1905	1399.5292	1423.3846	1477.6631	1485.4927	1496.502	1500.5064	1516.8462	2972.5316	2983.0878	3022.3254	3049.5112	3114.4817	3136.1183	3157.0919	3733.3263	3764.1533	3794.0588
COCC1(O)C(O)C1O	COC[C@@]1(O)[C@@H](O)[C@H]1O	
InChI=1S/C5H10O4/c1-9-2-5(8)3(6)4(5)7/h3-4,6-8H,2H2,1H3	InChI=1S/C5H10O4/c1-9-2-5(8)3(6)4(5)7/h3-4,6-8H,2H2,1H3/t3-,4+,5+
