18
gdb 54769	2.72519	1.52789	1.17593	5.9537	72.01	-0.2488	0.0224	0.2712	1066.7721	0.149204	-439.069282	-439.061469	-439.060525	-439.101713	30.791	
N	-0.0507540011	 1.2022418341	 0.0216441045	-0.631827
H	 0.2269514951	 0.2279613394	-0.0436790129	 0.245174
H	 1.0759357925	 2.7589374396	 0.6313354561	 0.311256
H	-0.596897489	 1.4240350703	-0.806020902	 0.243681
C	-0.7885014989	 1.468287402	 1.226639693	 0.291445
C	-2.2568059439	 1.1732238355	 1.6839938335	-0.278605
C	-1.5854521266	 1.9606107782	 2.8506309261	-0.034934
C	-0.3372418169	 1.0500375091	 2.6555959666	-0.261466
C	-0.9858877603	 2.9111966448	 1.7711688457	-0.147407
C	 0.2523215829	 3.7442525174	 2.0603874706	 0.382073
O	 0.3164130811	 4.5799544214	 2.920813992	-0.333795
O	 1.2915764871	 3.5031754417	 1.2315774389	-0.38502
H	-3.0550167532	 1.6849268764	 1.1388290048	 0.093949
H	-2.5077504428	 0.1289850262	 1.8878321126	 0.094777
H	-2.0429876478	 2.2568105121	 3.7906184028	 0.099191
H	-0.4625624787	-0.0056212638	 2.9115773069	 0.091681
H	 0.6219874313	 1.434634944	 3.0082417552	 0.124678
H	-1.7208371107	 3.5249191616	 1.2379201554	 0.09515
69.0786	174.371	196.3818	278.147	331.9483	374.1941	425.4576	501.639	571.9424	610.8084	664.9273	733.6589	771.0391	812.6033	835.9772	875.5816	898.6792	920.7936	948.0756	964.6121	1008.7768	1039.8154	1043.2988	1065.5632	1113.5125	1130.7833	1150.9514	1206.9044	1218.5492	1226.8261	1233.075	1310.3068	1320.5854	1369.3194	1418.4983	1499.4466	1545.2482	1642.5546	1862.6063	3046.6076	3050.1996	3059.1655	3117.9604	3126.5396	3158.9617	3489.961	3500.9049	3576.2068
[NH3+]C12CC(C1)C2C([O-])=O	N[C@@]12C[C@@H](C1)[C@H]2C(=O)O	
InChI=1S/C6H9NO2/c7-6-1-3(2-6)4(6)5(8)9/h3-4H,1-2,7H2,(H,8,9)	InChI=1S/C6H9NO2/c7-6-1-3(2-6)4(6)5(8)9/h3-4H,1-2,7H2,(H,8,9)/t3-,4-,6-/m0/s1
