18
gdb 54662	3.33495	1.26983	0.98908	4.446	81.68	-0.1961	-0.0225	0.1736	1196.0006	0.147877	-401.967287	-401.95888	-401.957936	-402.000416	31.823	
C	 0.0128132297	 1.5248115274	-0.0117902059	-0.490733
C	 0.057828612	 0.0027908388	-0.0039670453	 0.276641
O	 1.1249653995	-0.5944099856	-0.0013900637	-0.348993
C	-1.2231865743	-0.6956247556	 0.0093831717	 0.174007
C	-1.341822188	-2.0521421485	 0.0016201861	-0.087425
N	-2.6377751981	-2.4639843508	-0.111910156	-0.274204
C	-3.5271822299	-1.334268142	-0.0285944385	 0.00168
C	-3.4826144416	-0.4734163658	 1.2105391065	-0.304164
C	-2.6053346582	-0.1147173051	 0.0226567181	-0.176143
H	 1.0309838399	 1.9153309622	-0.0115385108	 0.133253
H	-0.5175095777	 1.892863745	-0.8982228958	 0.127706
H	-0.5277984645	 1.9031929779	 0.863228604	 0.131543
H	-0.5340663927	-2.7688950937	 0.0549958026	 0.150555
H	-2.9344716937	-3.3993275416	 0.1100863765	 0.255428
H	-4.4298181688	-1.390987674	-0.6264320353	 0.104456
H	-4.3538110995	 0.1480812989	 1.3845099755	 0.116002
H	-3.0053352445	-0.8635362282	 2.1030434774	 0.115799
H	-2.8310316997	 0.7882194608	-0.5331423569	 0.094592
83.8709	129.961	145.6553	182.1737	285.6576	357.7705	401.6275	402.6348	478.4725	560.693	616.0269	654.2993	743.5657	754.9398	812.8977	872.3944	936.0971	937.1505	962.0079	997.1536	1038.4547	1046.5677	1056.9779	1082.8809	1100.9212	1114.2892	1151.5923	1204.2607	1261.1094	1330.7994	1358.05	1372.276	1396.0268	1451.5349	1464.9922	1475.9429	1477.4411	1605.2623	1740.603	3029.8738	3088.8927	3131.4082	3150.0378	3165.7944	3173.4652	3225.0263	3243.685	3657.0777
CC(=O)C1=CNC2CC12	CC(=O)C1=CN[C@H]2C[C@@H]12	
InChI=1S/C7H9NO/c1-4(9)6-3-8-7-2-5(6)7/h3,5,7-8H,2H2,1H3	InChI=1S/C7H9NO/c1-4(9)6-3-8-7-2-5(6)7/h3,5,7-8H,2H2,1H3/t5-,7-/m0/s1
