19
gdb 119934	2.16105	1.24755	1.00614	4.5074	77.1	-0.2403	0.0275	0.2678	1288.1278	0.158029	-419.190957	-419.180881	-419.179936	-419.226738	35.405	
C	-0.291906179	 1.4480579975	-0.0059412666	-0.389141
C	-0.3163065582	-0.033038043	-0.3335962298	-0.045529
O	-1.272443985	-0.662495002	 0.5238408252	-0.245492
C	-1.4161927632	-2.0149289011	 0.3136903527	 0.088381
C	-2.7365384564	-2.6009112102	 0.7167939989	-0.029774
N	-3.8088104379	-1.8201398183	 1.2626980809	-0.508735
C	-2.4097951696	-2.4937103645	-0.774220647	-0.261493
C	-3.0785893629	-1.5069024077	-1.5665729469	 0.310871
N	-3.6104656492	-0.697622334	-2.2013737395	-0.3547
H	 0.4422268507	 1.95998037	-0.6347458155	 0.121954
H	-1.2734353937	 1.8944070905	-0.1865138469	 0.139524
H	-0.0239110202	 1.608304152	 1.0422103348	 0.126718
H	-0.5961257879	-0.198204873	-1.3822901857	 0.117109
H	 0.6719348027	-0.4903145669	-0.1711399687	 0.093463
H	-0.5066238289	-2.6097206723	 0.4144848668	 0.096814
H	-2.7150603182	-3.6160301257	 1.1020647563	 0.113359
H	-3.6802228975	-1.7309568735	 2.2668573683	 0.239184
H	-3.7769893456	-0.8766013008	 0.8872598819	 0.253908
H	-2.1775022001	-3.413302967	-1.3004714791	 0.133578
51.7686	91.083	108.9823	135.6776	145.4142	172.7988	252.6535	273.8033	346.2387	400.3105	445.0472	584.5227	646.7384	678.2565	732.0894	774.6274	822.7557	879.2108	890.5489	951.5063	987.1143	1031.4326	1065.077	1102.8283	1126.204	1146.0911	1175.8721	1187.4418	1249.9303	1281.2732	1299.8363	1344.67	1364.6725	1404.4062	1431.3214	1463.2484	1484.3156	1498.8852	1522.9656	1666.2459	2344.906	2986.5855	3040.6017	3047.9876	3085.7811	3122.9235	3127.6335	3155.5337	3170.8664	3494.5161	3571.4627
CCOC1C(N)C1C#N	CCO[C@H]1[C@@H](N)[C@H]1C#N	
InChI=1S/C6H10N2O/c1-2-9-6-4(3-7)5(6)8/h4-6H,2,8H2,1H3	InChI=1S/C6H10N2O/c1-2-9-6-4(3-7)5(6)8/h4-6H,2,8H2,1H3/t4-,5+,6-/m1/s1
