19
gdb 80431	3.09964	1.30945	1.12244	2.4292	75.69	-0.2475	-0.0199	0.2276	1126.9373	0.157546	-423.000882	-422.992007	-422.991063	-423.034195	33.726	
C	-0.199827746	 1.7283850371	 0.3402454341	-0.480167
C	-0.0302677517	 0.2182513947	 0.1514340591	 0.222831
C	 0.9642061314	-0.3326026699	-0.9149047767	-0.294749
C	 1.6460547909	-1.1913034824	 0.1586205051	-0.104503
C	 2.1992145145	-0.3283593303	 1.2496977211	 0.086415
O	 2.7202447993	 0.9538520418	 1.0333681954	-0.41659
C	 0.7261615716	-0.5789488324	 1.2455397918	-0.134268
C	-1.405709314	-0.4154849479	 0.0079657024	 0.123944
O	-1.7534969645	-1.1804328207	-0.8537712735	-0.250624
H	 0.7666758754	 2.1963418008	 0.5233528298	 0.155749
H	-0.6521151684	 2.1823813439	-0.5491457999	 0.118039
H	-0.8537350965	 1.9447334146	 1.193367709	 0.113786
H	 0.4435978379	-0.9170836555	-1.6736982591	 0.131846
H	 1.6032508689	 0.4156528891	-1.3901998993	 0.091877
H	 1.950803383	-2.2231289481	 0.0297725397	 0.090073
H	 2.7135498173	-0.8847009425	 2.0354255261	 0.093629
H	 3.5496762829	 0.8584139012	 0.5528230981	 0.289006
H	 0.2406704838	-1.0580492532	 2.0898228627	 0.089095
H	-2.1137092459	-0.1092763002	 0.814484524	 0.074612
76.1942	149.0362	186.9437	219.9537	254.1132	284.786	313.5879	327.3945	363.0055	494.0407	553.0579	630.4373	689.2555	735.2121	798.8158	838.5835	870.4617	917.0613	956.241	986.617	998.3314	1011.559	1026.0307	1044.1031	1081.5666	1145.1153	1168.4798	1201.3517	1229.905	1248.7556	1262.3303	1290.5032	1302.9792	1349.2003	1399.0302	1425.6338	1448.573	1481.676	1492.3298	1509.9589	1828.6637	2851.6448	3028.1607	3068.3642	3085.6216	3089.3275	3139.242	3157.5674	3158.6566	3182.4571	3802.9185
CC1(CC2C(O)C12)C=O	C[C@]1(C[C@H]2[C@@H](O)[C@@H]12)C=O	
InChI=1S/C7H10O2/c1-7(3-8)2-4-5(7)6(4)9/h3-6,9H,2H2,1H3	InChI=1S/C7H10O2/c1-7(3-8)2-4-5(7)6(4)9/h3-6,9H,2H2,1H3/t4-,5+,6-,7+/m1/s1
