13
gdb 9471	3.25995	1.7531	1.56526	4.3324	56.68	-0.2542	-0.0526	0.2016	837.2513	0.094379	-435.75696	-435.749508	-435.748564	-435.788835	26.748	
O	 0.0289260237	 1.4773405721	 0.0765746204	-0.46488
C	-0.012699072	 0.1023153979	 0.0068897283	 0.197728
C	-1.4248036695	-0.5746814152	-0.0967699402	-0.218325
N	-0.9471010191	-1.2550828044	-1.3018270321	-0.319212
C	 0.2371408999	-0.5701868803	-1.4143973128	 0.354465
O	 1.088724889	-0.5121252851	-2.2520498787	-0.333521
C	 0.8631031372	-0.527215443	 1.0638428424	 0.119694
O	 1.55008051	 0.1515600404	 1.7877141175	-0.272099
H	 0.6909333283	 1.687749684	 0.7569396033	 0.301151
H	-1.7210691787	-1.2459500717	 0.7155030716	 0.120358
H	-2.198377395	 0.1781844298	-0.2698717933	 0.140919
H	-1.4456241032	-1.8036181851	-1.9873123524	 0.261922
H	 0.8442710595	-1.6325975494	 1.1268592959	 0.1118
100.554	130.9036	195.1041	264.4803	311.665	340.2185	470.2036	491.7416	526.792	609.7452	710.0382	753.6403	843.2187	886.1967	914.4537	1003.622	1058.7239	1099.6875	1149.7559	1166.5047	1272.1845	1303.5352	1377.3854	1386.882	1443.7849	1521.2206	1804.2029	1911.2495	2951.2233	3046.8752	3105.5189	3612.3873	3663.7584
OC1(CNC1=O)C=O	O[C@]1(CNC1=O)C=O	
InChI=1S/C4H5NO3/c6-2-4(8)1-5-3(4)7/h2,8H,1H2,(H,5,7)	InChI=1S/C4H5NO3/c6-2-4(8)1-5-3(4)7/h2,8H,1H2,(H,5,7)/t4-/m1/s1
