20
gdb 58684	2.04526	1.50045	1.2235	1.6354	76.92	-0.2202	-0.0228	0.1974	1143.0932	0.168366	-440.261024	-440.251258	-440.250313	-440.29507	36.429	
C	 0.2243877401	 1.1635159015	-0.4063788422	-0.333652
N	-0.0319701373	-0.1613354825	 0.1579151089	-0.146258
C	 0.5451036337	-0.3181691541	 1.5003587309	-0.346552
C	-1.3990660056	-0.592056885	 0.0658291166	 0.185485
C	-1.8661004939	-1.0886069034	-1.3162648814	-0.375996
C	-1.5393840585	-2.0964555409	-0.275991096	 0.110054
O	-0.3706267661	-2.8330584742	-0.3332776661	-0.420029
C	-2.4453214916	 0.012023958	 0.9217399892	 0.123289
O	-2.271093296	 0.9155308206	 1.7058603325	-0.281814
H	 1.3053900292	 1.3306472539	-0.4518431674	 0.118602
H	-0.1705606938	 1.2134415573	-1.4248717515	 0.118334
H	-0.2289287385	 1.9713919608	 0.1852284396	 0.13121
H	 0.1273469466	 0.3868383965	 2.2294342201	 0.140013
H	 0.3677326697	-1.3386944788	 1.8496344653	 0.13184
H	 1.6269438039	-0.1619707746	 1.4381033164	 0.11633
H	-2.9030101281	-0.9166043614	-1.5847050717	 0.127075
H	-1.152635535	-0.9533589856	-2.1213600491	 0.133933
H	-2.3459538217	-2.6518563097	 0.1916015947	 0.116646
H	 0.335570966	-2.1736767185	-0.4435748123	 0.285845
H	-3.455403213	-0.4468393198	 0.7910458734	 0.065644
104.8439	120.2691	175.7493	196.1462	237.8402	241.486	258.4922	270.7033	361.8031	378.6066	408.1225	462.7565	545.9658	562.4213	627.3801	747.0603	785.1915	847.8546	912.2085	965.5843	1027.3404	1053.6754	1057.7434	1064.7617	1098.2496	1119.4133	1142.1686	1192.4008	1223.6497	1247.1905	1248.5864	1341.5032	1368.4496	1429.545	1436.7471	1442.0087	1470.6696	1474.5059	1479.9275	1496.3528	1510.7895	1527.7505	1801.1571	2834.7492	3005.0988	3022.5162	3075.2596	3086.9349	3109.5554	3117.3523	3134.959	3169.0547	3228.8129	3654.6598
CN(C)C1(CC1O)C=O	CN(C)[C@]1(C[C@H]1O)C=O	
InChI=1S/C6H11NO2/c1-7(2)6(4-8)3-5(6)9/h4-5,9H,3H2,1-2H3	InChI=1S/C6H11NO2/c1-7(2)6(4-8)3-5(6)9/h4-5,9H,3H2,1-2H3/t5-,6-/m1/s1
