13
gdb 20644	4.1033	1.87777	1.29854	1.7913	63.67	-0.2565	-0.0762	0.1802	876.0839	0.096512	-394.796104	-394.789342	-394.788397	-394.827208	24.697	
C	 0.0303110244	 1.4903438003	 0.0243170601	-0.456591
C	-0.046293281	-0.0062163127	 0.0339187757	 0.388167
C	-1.1934869756	-0.703967543	-0.1732261358	-0.323241
C	-1.1729295844	-2.1477037842	-0.1463618279	 0.480925
O	-2.0869985747	-2.9296246686	-0.3078995542	-0.378363
N	 0.1356125694	-2.6104469064	 0.1100213868	-0.269824
N	 1.2471733118	-1.8960231644	 0.3104450667	-0.037236
N	 1.1771868144	-0.6256188472	 0.2768603165	-0.261145
H	 0.7379321321	 1.8249137563	-0.7410575578	 0.154878
H	-0.944829576	 1.9409696462	-0.1684210049	 0.132656
H	 0.4095645137	 1.8526749345	 0.9852269118	 0.154876
H	-2.1419891541	-0.21547543	-0.3614927215	 0.13079
H	 0.2743472901	-3.6129126009	 0.1524147543	 0.284109
118.0493	170.6032	185.1029	311.0835	426.4656	469.2322	532.2915	556.4542	614.6835	763.1521	767.5653	775.3029	905.4253	934.5866	998.3996	1049.7262	1066.7256	1101.7531	1210.0884	1226.7671	1350.5351	1391.2987	1413.9072	1470.0565	1478.9362	1533.5148	1641.1956	1813.6491	3045.4228	3104.9783	3140.7823	3209.4935	3586.4999
CC1=CC(=O)NN=N1	CC1=N[N]NC(=O)[CH]1	
InChI=1S/C4H5N3O/c1-3-2-4(8)6-7-5-3/h2H,1H3,(H,5,6,8)	InChI=1S/C4H5N3O/c1-3-2-4(8)6-7-5-3/h2H,1H3,(H,5,6,8)
