15
gdb 128198	3.91608	1.12673	0.87985	7.9386	74.81	-0.2318	-0.0642	0.1676	1250.2561	0.112452	-453.949404	-453.941042	-453.940098	-453.983185	29.932	
C	 0.0180346915	 1.4958174681	 0.0090669531	-0.333102
N	-0.0491279867	 0.0473888888	 0.0034666325	-0.376443
C	-1.1859063615	-0.6972703231	 0.011068843	 0.391717
C	-1.1983572758	-2.0645196342	 0.0082031098	-0.387074
C	-2.4288354337	-2.7985694832	 0.0160209076	 0.450783
O	-2.5834239546	-3.9907116725	 0.0147252381	-0.348747
O	-3.6132560058	-2.0146122248	 0.0269992778	-0.264673
N	-3.6130854139	-0.6495057548	 0.0301267586	-0.049952
C	-2.4781967903	-0.0406593769	 0.0226342303	-0.020619
H	 1.0685363638	 1.7902865901	 0.0002555356	 0.144197
H	-0.4597024615	 1.9348698378	-0.875005005	 0.144829
H	-0.4429826782	 1.9276730689	 0.9055368732	 0.144684
H	 0.8210207681	-0.4574070112	-0.0026000133	 0.258786
H	-0.2881858711	-2.6527473281	-0.0001093982	 0.112372
H	-2.5607157203	 1.0402192349	 0.0257941868	 0.133242
42.3037	126.9683	151.7816	197.8375	217.0616	366.432	397.4456	438.1434	460.4626	565.2106	581.8259	697.3923	718.9398	724.5428	848.2231	851.3957	897.7421	964.116	1006.8305	1077.0089	1156.0298	1175.4913	1203.3684	1300.1019	1348.8194	1440.6994	1482.4885	1488.3089	1495.0107	1525.5108	1605.8235	1685.1105	1845.4326	3017.8722	3068.788	3136.389	3199.6974	3202.7437	3651.4804
CNC1=CC(=O)ON=C1	CNc1cc(=O)onc1	
InChI=1S/C5H6N2O2/c1-6-4-2-5(8)9-7-3-4/h2-3,6H,1H3	InChI=1S/C5H6N2O2/c1-6-4-2-5(8)9-7-3-4/h2-3,6H,1H3
