17
gdb 71265	2.54658	2.08359	1.46449	4.2412	70.39	-0.2601	0.0112	0.2712	919.4818	0.137118	-421.840948	-421.833872	-421.832928	-421.872135	28.398	
C	-0.0464261921	 1.5411411931	 0.0527075418	-0.492216
C	-0.0803139932	 0.0319133235	 0.0396909899	 0.137271
C	 0.2870590465	-0.7347812185	-1.2936542849	-0.270253
C	-0.8430026092	-1.7157911862	-1.0030824949	-0.103464
C	-0.8348601107	-2.0868412735	 0.4651302174	 0.093565
O	 0.3568619495	-1.9407511688	 1.2232996598	-0.228307
C	 0.7768888795	-0.6403439428	 1.1104985546	 0.43105
O	 1.7080372741	-0.2029212082	 1.7199480816	-0.34973
C	-1.4099987066	-0.775319233	 0.0702832491	-0.162196
H	 0.9877852368	 1.8939123493	 0.0031085868	 0.143655
H	-0.6004433771	 1.9555989242	-0.7947244866	 0.116571
H	-0.4846694555	 1.9358762063	 0.9749331527	 0.13024
H	 0.0505275156	-0.1006006443	-2.1510345376	 0.117099
H	 1.3056369258	-1.1229258865	-1.3975318624	 0.117699
H	-1.3688553128	-2.3247410095	-1.7288903561	 0.096493
H	-1.4431671331	-2.910865186	 0.8113926435	 0.12077
H	-2.4087965375	-0.4101585291	 0.2701854152	 0.101753
149.9349	194.6393	242.2206	304.8694	327.6474	441.3768	519.3104	587.6445	649.7367	722.1779	748.7535	760.8545	802.8878	828.1305	876.3249	894.3105	961.3316	977.1124	1014.0525	1017.3007	1026.8058	1065.2263	1086.1964	1127.7195	1134.4555	1167.2784	1202.2213	1227.6874	1255.4356	1313.2481	1353.4916	1403.8041	1415.7693	1485.7764	1491.4483	1498.2712	1882.8756	3039.6784	3048.2328	3107.3301	3111.571	3118.446	3182.2343	3199.8539	3222.195
CC12CC3C(OC1=O)C23	C[C@@]12C[C@H]3[C@@H](OC1=O)[C@@H]23	
InChI=1S/C7H8O2/c1-7-2-3-4(7)5(3)9-6(7)8/h3-5H,2H2,1H3	InChI=1S/C7H8O2/c1-7-2-3-4(7)5(3)9-6(7)8/h3-5H,2H2,1H3/t3-,4+,5-,7+/m1/s1
