18
gdb 36265	4.55681	0.98837	0.91864	1.6973	81.39	-0.2207	0.0459	0.2666	1293.4641	0.146833	-364.670282	-364.662228	-364.661284	-364.70332	31.583	
C	 0.0295331234	-1.2236213389	-0.4232088645	-0.395506
C	-0.0321592374	-0.0760737097	-0.0720875067	 0.260717
C	-0.0865296511	 1.3220451471	 0.3432511009	-0.425303
C	 1.2925327539	 1.9980298367	 0.2290030467	 0.013523
C	 1.681927446	 3.381473433	-0.1337347705	-0.072658
C	 0.8959864629	 4.5643527166	 0.4581093906	-0.067162
C	-0.2668189218	 4.1613786962	 1.320292519	-0.296354
C	 1.1414835536	 3.9428214176	 1.8114990029	-0.005654
N	 1.9905976615	 2.8201775278	 1.2442939182	-0.167768
H	 0.0744599454	-2.2398652384	-0.7275350941	 0.194797
H	-0.8286793762	 1.8424726583	-0.2719756748	 0.148695
H	-0.4399769909	 1.3725573692	 1.3786597169	 0.153886
H	 2.0261817532	 1.2882723014	-0.1489718812	 0.120013
H	 2.4918779207	 3.5621132066	-0.8355445032	 0.099322
H	 1.0642734622	 5.5811269247	 0.1301956541	 0.098267
H	-0.7343470689	 5.0091851863	 1.8148530052	 0.114865
H	-0.9702709463	 3.3854607234	 1.0627996923	 0.119334
H	 1.5047684199	 4.3804966122	 2.7320566184	 0.106986
42.9636	136.6988	192.1595	241.5408	349.5209	390.8315	457.6125	470.7034	614.3331	626.0637	649.2631	671.2474	693.1855	741.1089	779.0993	861.4753	888.2122	916.6527	952.3979	981.0796	988.8784	1012.9663	1023.4124	1059.2042	1071.0116	1081.3097	1086.0014	1141.7797	1191.2913	1245.4412	1266.3706	1285.5149	1302.3838	1341.7401	1376.1412	1437.7651	1468.7076	1499.1531	2240.989	3034.9102	3073.6618	3122.845	3139.6668	3141.9341	3193.6915	3206.7121	3256.4763	3506.2729
C#CCC1C2C3CC3N12	C#CC[C@H]1[C@H]2[C@H]3C[C@H]3N12	
InChI=1S/C8H9N/c1-2-3-6-8-5-4-7(5)9(6)8/h1,5-8H,3-4H2	InChI=1S/C8H9N/c1-2-3-6-8-5-4-7(5)9(6)8/h1,5-8H,3-4H2/t5-,6-,7+,8+,9?/m0/s1
