20
gdb 122868	5.85815	0.50366	0.48964	3.5645	74.28	-0.2432	0.0284	0.2717	2210.8352	0.168409	-477.432112	-477.42073	-477.419786	-477.471473	37.945	
O	-0.270921939	 1.3616682679	-0.4712055873	-0.42084
C	-0.0590852687	 0.0142300891	-0.080230396	-0.069615
C	-1.4201433716	-0.665265425	-0.0007484015	-0.17337
C	-1.3196366273	-2.1198649627	 0.4680073941	-0.164849
N	-2.6151784584	-2.7724011087	 0.5446641814	-0.327032
C	-2.9449523909	-3.856692961	-0.2191592441	 0.407816
O	-2.1754918831	-4.4057055392	-0.9797213527	-0.352566
C	-4.4102320416	-4.2890199275	-0.0702092293	-0.183334
O	-4.4912468756	-5.6785328782	-0.2679444882	-0.389608
H	 0.5865435786	 1.7877891054	-0.5590917055	 0.287023
H	 0.5792640019	-0.5180820223	-0.8036733651	 0.09432
H	 0.4443010593	-0.0421613741	 0.899557505	 0.084582
H	-2.054239886	-0.0877941434	 0.6842395798	 0.09879
H	-1.8982318826	-0.6274432688	-0.9854687405	 0.118181
H	-0.7273184119	-2.7172384211	-0.2295735339	 0.152205
H	-0.8233906164	-2.1673190556	 1.4469712899	 0.10476
H	-3.3026037178	-2.3966001614	 1.1777172749	 0.240864
H	-4.7951669068	-3.9895061392	 0.9194740192	 0.084464
H	-4.9843075695	-3.7275293901	-0.8252886062	 0.115399
H	-5.4101808726	-5.903520394	-0.436895174	 0.29281
20.0881	39.2429	65.0825	78.0629	113.899	164.5469	206.5166	237.3318	266.6465	297.3962	323.7409	435.1911	462.1145	513.0345	601.228	715.7001	766.8398	858.0262	935.903	1002.3148	1023.4942	1043.4537	1070.0843	1092.0566	1139.4527	1167.1983	1212.7254	1225.1491	1234.4054	1244.8644	1292.3534	1311.0876	1317.5609	1326.6036	1405.3771	1454.9852	1465.4273	1490.2384	1497.95	1502.6111	1529.3269	1544.641	1802.3844	2952.5569	2957.706	2986.4986	2987.4748	3011.4323	3029.8076	3080.9435	3113.034	3635.2474	3830.7498	3841.1112
OCCCNC(=O)CO	OCCCNC(=O)CO	
InChI=1S/C5H11NO3/c7-3-1-2-6-5(9)4-8/h7-8H,1-4H2,(H,6,9)	InChI=1S/C5H11NO3/c7-3-1-2-6-5(9)4-8/h7-8H,1-4H2,(H,6,9)
