13
gdb 52464	159.87117	0.37933	0.37933	1.9087	143.53	-0.2266	-0.0676	0.1589	2708.1537	0.085798	-345.074477	-345.064771	-345.063827	-345.108868	33.347	
C	-0.018357503	 1.4846660387	 0.0102033388	-0.519134
C	 0.0017148817	 0.0353965868	 0.0021180142	 0.281677
C	 0.0183367781	-1.178197974	-0.0045576346	-0.213418
C	 0.0368727406	-2.5261922296	-0.0119214606	 0.166825
C	 0.0535349751	-3.7485606173	-0.0186035823	-0.244664
C	 0.0716171033	-5.0899556453	-0.0258949326	-0.033122
C	 0.0879451361	-6.3117358492	-0.0325558152	 0.166976
C	 0.1059479415	-7.661698468	-0.0399144924	 0.25218
C	 0.1220130096	-8.8721966851	-0.0466102444	-0.548442
H	 0.9985523304	 1.8931618816	 0.0027233757	 0.16409
H	-0.5434562236	 1.8766893241	-0.868215984	 0.164096
H	-0.5265520567	 1.8669878051	 0.9027201874	 0.1641
H	 0.1358567467	-9.9339377177	-0.0528922	 0.198836
48.571	48.7756	129.9901	130.1701	239.8218	239.9627	349.049	349.1769	422.4152	466.8464	466.8633	521.0349	521.0384	550.0354	550.045	585.9679	585.9694	792.2832	1043.882	1044.0179	1110.4834	1395.5323	1419.4446	1467.1184	1467.2893	2137.3043	2253.1267	2279.1549	2342.3139	3024.2943	3088.1967	3088.3242	3502.585
CC#CC#CC#CC#C	CC#CC#CC#CC#C	
InChI=1S/C9H4/c1-3-5-7-9-8-6-4-2/h1H,2H3	InChI=1S/C9H4/c1-3-5-7-9-8-6-4-2/h1H,2H3
