16
gdb 99417	1.7021	1.48052	1.30484	0.8975	82.71	-0.2403	0.0066	0.2469	1147.6462	0.119169	-363.471295	-363.461097	-363.460152	-363.505853	37.454	
C	-0.0863772729	 1.4708097829	-0.0636501338	-0.331367
N	 0.0551558492	 0.0162238506	-0.0143819694	-0.29254
C	 0.7323558861	-0.504522229	 1.1942724221	-0.3251
C	 0.7074835629	-1.9788873277	 1.1213351369	 0.327114
C	 0.6595687379	-3.1759932349	 1.058190744	-0.419228
C	 2.1351894679	-0.0392147885	 1.2075664237	 0.409832
C	 3.274063535	 0.3379473796	 1.2271373221	-0.470954
C	 0.0723143687	-0.0821836611	 2.4568887319	 0.360545
C	-0.5120186843	 0.2873967665	 3.439501796	-0.480177
H	 0.9060328186	 1.9274303154	-0.1067678303	 0.140527
H	-0.618443882	 1.7286559025	-0.9829205845	 0.123365
H	-0.6283167404	 1.9006847939	 0.792081956	 0.114447
H	-0.8570917654	-0.4271782464	-0.0578340468	 0.231784
H	 0.6288446205	-4.2364342235	 1.0048408018	 0.202569
H	 4.2841542275	 0.6663469715	 1.2442795641	 0.205185
H	-1.0149013194	 0.6023981182	 4.3206355064	 0.203997
109.6048	118.4464	126.6067	145.4402	173.6529	194.4556	261.0864	330.8843	342.503	487.6821	501.2411	541.6501	552.4218	564.1164	641.3097	643.0096	650.0444	652.274	653.6407	660.8308	662.1279	776.5361	987.0825	1049.805	1072.3997	1126.4481	1164.1563	1231.2347	1450.4758	1475.8344	1490.4814	1521.2567	2226.5479	2244.3322	2249.8925	2993.5254	3086.9344	3124.8171	3498.7451	3500.2677	3501.2062	3524.0237
CNC(C#C)(C#C)C#C	CNC(C#C)(C#C)C#C	
InChI=1S/C8H7N/c1-5-8(6-2,7-3)9-4/h1-3,9H,4H3	InChI=1S/C8H7N/c1-5-8(6-2,7-3)9-4/h1-3,9H,4H3
