17
gdb 30883	2.39577	1.40242	0.9245	1.5645	73.58	-0.1858	0.0298	0.2156	1260.1642	0.134129	-458.979969	-458.97065	-458.969706	-459.014321	33.297	
C	 0.0709521622	 1.2072523032	-0.2055347385	-0.252456
O	-0.1912096942	 0.0763023791	 0.6360235224	-0.278638
C	-1.2711670962	-0.6481985947	 0.29555405	 0.244015
C	-1.3826850705	-1.9520424534	-0.0702477722	 0.216494
O	-0.3928260995	-2.8663326722	-0.2619460117	-0.449684
C	-2.7849519554	-2.2101229045	-0.2157143137	-0.360845
C	-3.423784774	-1.0421537526	 0.0669630772	 0.374453
C	-4.8548722506	-0.6438889267	 0.0825274168	-0.487474
O	-2.5120288927	-0.0746182404	 0.3919528709	-0.217572
H	 0.9946456435	 1.6578267631	 0.1616288274	 0.133835
H	 0.196772711	 0.8939933463	-1.2488088618	 0.121757
H	-0.7434739312	 1.9356229075	-0.1411121117	 0.138036
H	 0.4422691714	-2.4461499143	-0.0261272639	 0.299014
H	-3.241363053	-3.145642505	-0.4976838657	 0.112887
H	-5.1670847615	-0.2935973611	 1.0732833392	 0.136897
H	-5.0582937837	 0.1654606038	-0.6286527867	 0.134067
H	-5.4775455955	-1.4994728082	-0.188532298	 0.135213
70.7916	126.6039	141.4674	152.2106	204.0989	261.9941	284.4838	314.3615	352.5679	431.5593	542.1464	594.5571	635.3209	648.1843	679.9289	790.7704	811.6524	981.0205	1007.9715	1020.8781	1063.1634	1122.5665	1164.3571	1175.766	1194.8389	1230.3664	1301.5822	1328.8379	1415.9506	1467.6569	1471.3509	1484.1445	1486.0951	1504.6563	1507.9518	1625.4513	1725.1076	3021.7754	3026.1061	3074.249	3096.8229	3127.5994	3139.6358	3261.2324	3805.838
COC1=C(O)C=C(C)O1	COc1c(O)cc(C)o1	
InChI=1S/C6H8O3/c1-4-3-5(7)6(8-2)9-4/h3,7H,1-2H3	InChI=1S/C6H8O3/c1-4-3-5(7)6(8-2)9-4/h3,7H,1-2H3
