18
gdb 121671	3.40913	0.8947	0.74566	1.9466	70.37	-0.2628	0.0255	0.2883	1510.2199	0.146632	-476.221359	-476.211887	-476.210942	-476.257301	32.909	
O	 0.0287284423	 1.360717245	-0.4471529768	-0.418967
C	-0.1278086919	 0.0271289515	-0.0037511312	-0.071577
C	-1.5866569436	-0.3835162067	 0.0793338871	-0.066408
O	-2.1114107212	-0.2740529909	-1.258392893	-0.268979
C	-3.387707641	-0.6881494443	-1.4179996886	 0.480642
O	-4.0802749799	-1.1297944178	-0.5354080724	-0.383725
N	-3.7505825954	-0.6014625936	-2.7561964553	-0.123114
C	-3.8254232711	 0.6564734105	-3.481242979	-0.228367
C	-5.0601080029	-0.1224745569	-3.1412026115	-0.214098
H	-0.4112465032	 1.4174079062	-1.3023113326	 0.289686
H	 0.4125143437	-0.6811267497	-0.6510466233	 0.099164
H	 0.3147570493	-0.0298711354	 0.9960362555	 0.117074
H	-1.7013149355	-1.410778337	 0.4382281019	 0.124977
H	-2.1482094147	 0.2830680914	 0.7411213236	 0.125523
H	-3.6392334675	 1.5714725062	-2.9252202085	 0.133224
H	-3.4268648783	 0.6417378755	-4.4913166289	 0.131425
H	-5.5638409474	-0.7032368776	-3.9078035456	 0.131457
H	-5.7004541616	 0.2569375337	-2.3499699013	 0.142062
33.588	74.4221	91.0012	131.0538	183.5299	247.0162	277.5372	304.6438	396.805	479.8113	514.8322	610.1291	785.4675	816.397	836.8599	867.3971	911.1953	968.7294	1005.8891	1045.6661	1061.2661	1096.6863	1126.5722	1131.8143	1138.1268	1172.5794	1178.8397	1222.8944	1238.6926	1266.1351	1368.4219	1392.0764	1419.5123	1434.2107	1495.6694	1499.6696	1501.4762	1527.1265	1814.7817	2989.381	3053.8037	3084.0824	3107.9672	3113.7457	3121.283	3198.8587	3214.0116	3812.2394
OCCOC(=O)N1CC1	OCCOC(=O)N1CC1	
InChI=1S/C5H9NO3/c7-3-4-9-5(8)6-1-2-6/h7H,1-4H2	InChI=1S/C5H9NO3/c7-3-4-9-5(8)6-1-2-6/h7H,1-4H2
