14
gdb 26057	3.44326	1.20817	0.93132	4.7793	67.83	-0.2464	-0.0154	0.2309	1166.7454	0.102734	-432.903396	-432.895483	-432.894539	-432.936808	28.418	
O	-0.8351024495	 0.74048541	 0.0719916866	-0.405358
C	 0.0594654673	-0.3501101854	-0.120624077	-0.169676
C	 0.9646023628	-0.1172868129	-1.2656990023	 0.293704
N	 1.6602461853	 0.094851926	-2.1627266555	-0.3203
C	 0.8481357768	-0.6735226829	 1.1093211919	 0.296137
C	 2.1857313155	-0.8327971854	 1.372600942	-0.157292
N	 2.3860949133	-1.1381598268	 2.6972657727	-0.254046
C	 1.1874584482	-1.1598541624	 3.233821551	 0.021953
N	 0.2161348147	-0.8940721433	 2.3170385898	-0.310539
H	-0.3087735684	 1.5076901206	 0.3302808379	 0.297634
H	-0.5982983508	-1.1866671724	-0.3907148564	 0.151299
H	 3.0067702739	-0.7514873572	 0.6767719024	 0.13872
H	 0.9605665423	-1.3566396483	 4.2711225323	 0.140998
H	-0.7718223414	-0.7950027795	 2.4860859647	 0.276766
41.962	118.1795	155.8687	215.4524	312.605	378.2316	434.9524	480.3192	540.7124	591.0888	658.2685	681.622	786.4884	830.7517	877.9087	916.8798	950.9574	1020.7849	1053.0998	1112.8021	1150.8336	1224.2672	1262.1621	1282.4668	1322.6261	1388.3396	1418.5866	1435.1498	1499.9107	1603.4933	2364.3601	3030.4475	3253.3911	3258.0249	3656.4574	3785.5457
OC(C#N)C1=CN=CN1	O[C@@H](C#N)c1cnc[nH]1	
InChI=1S/C5H5N3O/c6-1-5(9)4-2-7-3-8-4/h2-3,5,9H,(H,7,8)	InChI=1S/C5H5N3O/c6-1-5(9)4-2-7-3-8-4/h2-3,5,9H,(H,7,8)/t5-/m0/s1
