17
gdb 66861	2.59481	2.10223	1.85269	1.5289	69.46	-0.2264	0.0616	0.288	837.7313	0.137471	-421.768513	-421.762074	-421.761129	-421.798822	27.457	
O	-0.0806843538	 1.3927013729	-0.0011666651	-0.492301
C	-0.0135679767	 0.0104297579	 0.0078908244	 0.399201
C	-1.3397142667	-0.7624650442	-0.0162318755	-0.173879
C	-0.8521321937	-2.0497360328	-0.5810893345	 0.101093
O	 0.2435097435	-1.8970398461	-1.4519079532	-0.256981
C	 0.9924776937	-0.8043653325	-0.942399504	 0.007065
C	 1.7972355533	-1.2403087219	 0.3138300694	-0.257389
C	 0.5506999757	-0.8940871896	 1.1580239405	-0.119804
C	-0.6751237612	-1.8097020939	 0.9054780097	-0.126625
H	 0.8064896198	 1.7502199256	 0.1124640813	 0.284611
H	-2.3394156511	-0.3523938569	-0.0637180218	 0.097744
H	-1.5329358311	-2.8275985154	-0.9035628288	 0.107526
H	 1.5040366756	-0.3032245396	-1.7672916329	 0.07585
H	 2.1641823043	-2.2689181979	 0.3054254855	 0.104933
H	 2.6271030084	-0.5573890304	 0.5262782068	 0.08953
H	 0.6380084464	-0.5308589635	 2.1829423461	 0.07095
H	-1.1325517165	-2.4604629918	 1.6416351421	 0.088476
221.3732	262.4168	306.4149	375.5707	433.3852	525.3117	596.7582	632.2191	684.2018	721.5178	745.6803	801.0279	849.0473	890.2387	903.6387	909.589	962.1869	974.2072	993.3854	1002.5139	1043.199	1046.4604	1061.172	1102.8832	1116.3463	1136.3311	1149.8642	1178.4307	1216.0435	1245.9492	1278.7536	1288.2875	1322.7068	1341.6146	1391.4013	1420.5176	1475.005	3043.941	3087.2817	3102.2957	3112.6043	3174.5232	3199.0375	3210.6434	3806.9583
OC12C3C4OC1CC2C34	O[C@@]12[C@H]3[C@H]4O[C@@H]1C[C@@H]2[C@@H]34	
InChI=1S/C7H8O2/c8-7-2-1-3(7)9-6-4(2)5(6)7/h2-6,8H,1H2	InChI=1S/C7H8O2/c8-7-2-1-3(7)9-6-4(2)5(6)7/h2-6,8H,1H2/t2-,3-,4+,5-,6+,7-/m1/s1
