19
gdb 93887	1.89084	1.82323	1.0466	3.6966	71.78	-0.2387	-0.0163	0.2224	1158.7589	0.157829	-460.169258	-460.159962	-460.159017	-460.204098	33.712	
C	-0.2056870783	 1.5127108987	 0.0079256822	-0.418708
C	 0.0755303005	 0.0202564586	 0.040543089	 0.116202
O	 0.896705258	-0.3370094416	-1.065818089	-0.249464
C	 1.2923591521	-1.6768074266	-0.8346718965	-0.109514
C	 1.5044445894	-1.8199968509	 0.6965619133	 0.088464
O	 2.8703411704	-1.8439871984	 1.0872689187	-0.426805
C	 0.8479987005	-0.5348352405	 1.2708605083	-0.142038
C	 1.8957809457	 0.4567222506	 1.7526457918	 0.183667
O	 1.8946897406	 0.9384629441	 2.8561397024	-0.266783
H	 0.7194939398	 2.0943200074	 0.02849818	 0.134831
H	-0.7485520153	 1.7688993158	-0.9055515771	 0.129546
H	-0.8161405666	 1.8031791912	 0.8677365973	 0.13107
H	-0.8817285682	-0.527301344	-0.0246591783	 0.071992
H	 0.5101200302	-2.373498666	-1.1778010937	 0.088372
H	 2.2116407877	-1.8705885262	-1.3942097397	 0.109021
H	 0.9892857778	-2.7134755085	 1.0727469782	 0.080414
H	 3.253433661	-2.6844872691	 0.8196036915	 0.290535
H	 0.1840946671	-0.7439848627	 2.111645978	 0.092345
H	 2.6556608777	 0.7405585381	 0.9975440435	 0.096853
34.1534	82.2807	178.9156	202.752	224.6158	238.5183	306.7974	315.6352	401.7584	442.8747	463.9444	523.494	658.185	753.9653	828.6156	861.9576	899.3487	937.6115	987.2863	1026.1872	1037.9053	1061.4096	1120.0628	1127.4856	1153.0133	1169.1883	1213.5572	1254.779	1268.3126	1289.0358	1329.966	1351.2508	1375.7618	1394.8669	1416.4701	1421.423	1433.3253	1481.5639	1498.0446	1504.7247	1829.0406	2930.6673	2936.2521	2969.1983	3014.4813	3050.4445	3091.7816	3102.4101	3125.3975	3127.7601	3830.5525
CC1OCC(O)C1C=O	C[C@H]1OC[C@@H](O)[C@H]1C=O	
InChI=1S/C6H10O3/c1-4-5(2-7)6(8)3-9-4/h2,4-6,8H,3H2,1H3	InChI=1S/C6H10O3/c1-4-5(2-7)6(8)3-9-4/h2,4-6,8H,3H2,1H3/t4-,5+,6-/m1/s1
