17
gdb 37990	3.16163	1.74696	1.33499	1.7687	67.39	-0.249	0.0654	0.3144	943.6749	0.138157	-458.880302	-458.873793	-458.872849	-458.911134	26.458	
C	-0.0154518903	 1.4239665981	 0.0376120258	 0.006986
O	 1.2137310641	 2.0812245968	-0.0186202407	-0.225556
C	 1.9131854279	 2.0911235252	 1.2154095576	-0.145145
C	 2.1631223408	 0.7289609259	 1.8420129201	 0.006182
C	 2.3511273764	-0.5766228021	 1.0230517017	-0.009891
O	 2.1019644531	-1.3337031017	 2.271306561	-0.298182
C	 1.0561510883	-0.289804376	 2.2593769706	-0.048305
C	 0.8083924089	-0.7001581242	 0.772980529	 0.142052
O	 0.0836214699	 0.0376571546	-0.1593672833	-0.246177
H	-0.5203888175	 1.6363837525	 0.9972472449	 0.08267
H	-0.6208984288	 1.7931038612	-0.7927849013	 0.121354
H	 2.87477892	 2.5664064978	 0.9987573551	 0.122147
H	 1.3886059688	 2.7321621429	 1.9439951825	 0.100028
H	 2.9138018056	 0.8200513501	 2.633285066	 0.091992
H	 3.1863919785	-0.8953520354	 0.3995642254	 0.097608
H	 0.3736034275	-0.2617737106	 3.1098956795	 0.094752
H	 0.5019986669	-1.741414955	 0.6714362261	 0.107485
135.228	238.2272	330.7042	385.2012	395.4896	459.192	551.3061	636.3939	694.975	731.6809	823.042	850.8562	883.346	892.6864	939.6532	983.4955	999.7794	1006.6906	1064.5263	1072.7446	1112.6501	1137.4976	1157.5374	1176.1099	1203.2338	1215.7906	1221.4124	1247.9784	1294.8376	1300.5096	1338.5666	1356.3118	1396.683	1424.8311	1453.2906	1489.6095	1508.9393	2942.0635	2969.128	3068.8079	3083.3718	3108.8788	3110.655	3120.4073	3129.8017
C1OCC2C3OC2C3O1	C1OC[C@@H]2[C@H]3O[C@@H]2[C@H]3O1	
InChI=1S/C6H8O3/c1-3-4-6(5(3)9-4)8-2-7-1/h3-6H,1-2H2	InChI=1S/C6H8O3/c1-3-4-6(5(3)9-4)8-2-7-1/h3-6H,1-2H2/t3-,4-,5+,6+
