21
gdb 109963	1.9872	1.44578	0.93832	1.8683	82.97	-0.2232	0.0281	0.2513	1335.6759	0.18047	-420.387278	-420.376699	-420.375754	-420.42352	37.003	
C	-0.2461150557	 1.4436384897	 0.3447918158	-0.245816
O	-0.1883315587	 0.1787438785	-0.2970815916	-0.24028
C	-1.3754503018	-0.5461731945	-0.1824358412	-0.004527
C	-1.2882888833	-1.9929490714	-0.7751927672	 0.013994
C	 0.1046982608	-2.4628198122	-1.1649041722	-0.38848
N	-1.7855119644	-2.4755999206	 0.5329839129	-0.359757
C	-1.6580580338	-1.2377311625	 1.160437318	 0.404048
N	-1.7245683357	-0.8157467401	 2.3492930501	-0.33115
C	-1.9479852625	-1.8118314474	 3.3897568963	-0.338392
H	 0.7259002369	 1.9185398493	 0.1934058608	 0.122119
H	-1.0278556225	 2.0775890609	-0.101962123	 0.102391
H	-0.4470666885	 1.3364211194	 1.4163295391	 0.149623
H	-2.2336620196	 0.0331774332	-0.5553588727	 0.081977
H	-2.0008159482	-2.188677009	-1.5839316668	 0.081462
H	 0.8295185289	-2.2362408141	-0.3796097985	 0.132028
H	 0.1052181875	-3.5426379067	-1.3496128209	 0.108961
H	 0.4320805284	-1.9623728117	-2.0807991876	 0.131453
H	-1.5891901062	-3.3800098889	 0.9379870603	 0.240344
H	-2.1831542034	-1.3093367966	 4.3315157468	 0.122928
H	-2.7794830603	-2.4929255521	 3.1522877984	 0.107249
H	-1.0530395177	-2.4288735531	 3.5611819633	 0.109827
49.5687	80.4994	104.1052	143.0293	169.3963	191.0936	212.9046	227.5324	291.4802	345.8345	405.7349	440.2499	489.2315	565.5029	699.2139	770.9918	836.0208	899.7313	922.1139	1023.9386	1028.3017	1068.5871	1094.46	1109.504	1123.2306	1163.624	1183.3803	1186.506	1197.9118	1237.6693	1246.1393	1300.0293	1347.812	1377.0069	1394.2965	1410.418	1434.6872	1479.5694	1483.2691	1489.0416	1490.3783	1490.602	1504.7828	1515.8366	1803.9084	2975.8495	2984.3282	2990.7709	3023.6419	3038.1253	3044.2218	3072.2026	3098.4515	3107.9969	3125.547	3132.252	3594.8167
COC1C(C)NC1=NC	CO[C@H]1[C@@H](C)NC1=NC	
InChI=1S/C6H12N2O/c1-4-5(9-3)6(7-2)8-4/h4-5H,1-3H3,(H,7,8)	InChI=1S/C6H12N2O/c1-4-5(9-3)6(7-2)8-4/h4-5H,1-3H3,(H,7,8)/t4-,5+/m1/s1
