21
gdb 84684	2.20389	1.76626	1.36952	1.301	82.81	-0.2343	0.0221	0.2563	1064.7735	0.182721	-387.092896	-387.084301	-387.083357	-387.125711	34.086	
C	-0.893121642	 1.2338101305	 0.0502531919	-0.409876
C	-0.0729464286	-0.0565518352	-0.0671961852	-0.08969
C	 0.8274669698	-0.1323784875	-1.2837368256	-0.070126
C	 2.0414928263	-0.6119635314	-1.0079877092	-0.09807
C	 2.2188489759	-0.9328634825	 0.4504163775	-0.086687
C	 3.0744399311	 0.0770754503	 1.2701486303	-0.227418
C	 1.772876681	 0.8350284946	 1.6559868612	-0.274612
C	 0.9197374093	-0.3490816247	 1.0883205686	 0.403608
O	 0.3950420322	-1.1957818518	 2.0915794257	-0.494988
H	-0.2600947187	 2.12599509	 0.0282243427	 0.120447
H	-1.6058756319	 1.3155862835	-0.7768995198	 0.115935
H	-1.4722742823	 1.2538968838	 0.9809793099	 0.10248
H	-0.7818623671	-0.8986370178	-0.0899898271	 0.084391
H	 0.4819669636	 0.1552885432	-2.2722324489	 0.088302
H	 2.8303218684	-0.7646025659	-1.7378675275	 0.090378
H	 2.4204316051	-1.9916874363	 0.6399312512	 0.080903
H	 3.5624492417	-0.3908761385	 2.1281461234	 0.104439
H	 3.8195517059	 0.6471217007	 0.7097005794	 0.093878
H	 1.625031482	 1.0209112151	 2.7225888669	 0.093483
H	 1.6443934275	 1.7740955084	 1.1145498768	 0.099705
H	-0.2875010495	-0.7074003285	 2.5650190777	 0.273518
72.7227	180.5205	214.2262	246.8597	262.1638	297.9382	316.6486	388.8976	470.6116	526.3165	578.553	642.4231	710.9464	751.6465	770.5389	838.3314	862.4421	888.0574	950.3599	955.1485	974.5158	989.5803	1027.3196	1031.7264	1075.7028	1096.6726	1107.1021	1131.6733	1176.1624	1191.7432	1202.623	1242.8752	1259.228	1277.6727	1290.1857	1312.2332	1341.9517	1358.8351	1389.867	1409.8503	1460.797	1485.8539	1493.97	1502.9844	1674.8768	2981.5077	3026.8354	3056.0569	3060.9849	3068.1047	3088.7409	3103.8437	3108.4758	3127.9077	3165.247	3190.9124	3795.2918
CC1C=CC2CCC12O	C[C@H]1C=C[C@H]2CC[C@@]12O	
InChI=1S/C8H12O/c1-6-2-3-7-4-5-8(6,7)9/h2-3,6-7,9H,4-5H2,1H3	InChI=1S/C8H12O/c1-6-2-3-7-4-5-8(6,7)9/h2-3,6-7,9H,4-5H2,1H3/t6-,7-,8+/m0/s1
