20
gdb 80167	2.2216	1.65234	1.39133	1.9479	77.79	-0.2218	-0.0211	0.2007	1057.4576	0.170792	-403.15406	-403.145382	-403.144437	-403.187057	33.271	
C	 0.0267100717	 1.8988101678	 0.2033962761	-0.440423
C	 0.1930560692	 0.3947425141	 0.154592658	 0.012012
C	 0.6409451143	-0.3994275215	-1.0240034461	-0.067804
C	 1.3026094843	 0.268603971	-2.2135785145	-0.096174
C	 0.4288216777	 1.0666334734	-3.1828458855	-0.405715
C	 2.4399946904	 1.0867654914	-1.5818759048	 0.365323
O	 3.0510873172	 1.9756066653	-2.1159085364	-0.319829
C	 2.6468681893	 0.5607099829	-0.1547309875	-0.270871
N	 1.5037085134	-0.2896545161	 0.1941602583	-0.129434
H	 0.6754022137	 2.4457937212	-0.4831842406	 0.143069
H	-1.0074429786	 2.1624452467	-0.0409585816	 0.129067
H	 0.228653083	 2.2684931114	 1.2151208636	 0.129139
H	-0.5186726006	-0.1160648201	 0.8021214235	 0.095224
H	 0.1978862311	-1.3787723137	-1.1861529747	 0.091231
H	 1.815958583	-0.5197292448	-2.7873514739	 0.11237
H	-0.1814713524	 1.8056174705	-2.657436346	 0.124973
H	 1.0648475455	 1.5981517723	-3.8962520368	 0.139705
H	-0.2440385812	 0.407674313	-3.7387062664	 0.117805
H	 3.5617980856	-0.0445828644	-0.1271960796	 0.134915
H	 2.7877099634	 1.3880639393	 0.5470462551	 0.135418
96.8049	155.978	172.3649	204.7582	239.0471	264.8702	314.2093	431.6112	479.0034	533.667	555.1323	646.7844	676.2259	726.2262	745.5903	789.4661	876.7212	928.9108	949.2032	1006.517	1030.6766	1043.2545	1078.3691	1106.2407	1143.3902	1148.4945	1175.3082	1176.1413	1211.2098	1283.1223	1296.4253	1302.0433	1328.6245	1381.3047	1410.4369	1420.5596	1435.2092	1462.7955	1489.3422	1497.0253	1501.0873	1506.5039	1843.5141	2984.3127	3032.9206	3037.9222	3047.6272	3090.7869	3094.4096	3104.7422	3118.169	3125.6939	3132.0023	3136.395
CC1C2C(C)C(=O)CN12	C[C@H]1[C@H]2[C@@H](C)C(=O)CN12	
InChI=1S/C7H11NO/c1-4-6(9)3-8-5(2)7(4)8/h4-5,7H,3H2,1-2H3	InChI=1S/C7H11NO/c1-4-6(9)3-8-5(2)7(4)8/h4-5,7H,3H2,1-2H3/t4-,5-,7+,8?/m0/s1
