20
gdb 121059	3.07801	0.96275	0.81423	4.3523	76.51	-0.2352	0.0376	0.2728	1459.1972	0.171628	-440.32596	-440.316681	-440.315736	-440.360999	33.386	
C	 0.3820179673	 1.3186897174	 0.0713401506	-0.22983
O	 0.1252840366	-0.0641733379	-0.0147303681	-0.239776
C	 0.6452649815	-0.6563399992	-1.1835264509	-0.054402
C	 0.3520469821	-2.1543080029	-1.1119681952	-0.001446
C	 0.9709753739	-2.9600508822	-2.2846996608	-0.244456
C	 2.2639731305	-3.5661813011	-1.7116963427	-0.328033
C	 2.0912436613	-3.5083088421	-0.1891867517	 0.40352
O	 2.8140162751	-4.0006608273	 0.6482979357	-0.378833
N	 0.961815096	-2.7702573756	 0.052510081	-0.288372
H	 1.4620513772	 1.5321131919	 0.0799216842	 0.110254
H	-0.0710302733	 1.8694711311	-0.7676395538	 0.107213
H	-0.0570310499	 1.6752189866	 1.0059898892	 0.131474
H	 0.1764950055	-0.2244839045	-2.0845812499	 0.087751
H	 1.7333431519	-0.4845593964	-1.2566956494	 0.088109
H	-0.7366689819	-2.2755364941	-1.0751959131	 0.092492
H	 0.2793037942	-3.7510502564	-2.5846265415	 0.118007
H	 1.1409485048	-2.3287236079	-3.1606483099	 0.108234
H	 2.453286117	-4.591944351	-2.0332412606	 0.131571
H	 3.1541419599	-2.9814715112	-1.9670454424	 0.130148
H	 0.7578505302	-2.4411632573	 0.9833793994	 0.256375
54.0575	98.8941	108.9922	127.4513	174.7946	232.1141	345.5768	369.4341	469.3331	508.6834	517.2186	590.7005	651.0388	730.6018	800.1633	858.4616	917.2556	963.9979	967.3498	1018.6333	1045.3441	1094.7521	1122.9997	1159.4585	1180.3866	1192.3106	1226.0182	1229.2814	1253.664	1264.0854	1294.3835	1301.6819	1346.0197	1392.7435	1424.0304	1437.8606	1470.5845	1480.1004	1485.9908	1499.1497	1501.009	1521.9513	1829.9994	2946.3049	2976.7173	2980.4793	3022.3138	3039.0551	3059.4752	3067.6977	3103.6553	3118.1843	3121.4545	3642.0411
COCC1CCC(=O)N1	COC[C@H]1CCC(=O)N1	
InChI=1S/C6H11NO2/c1-9-4-5-2-3-6(8)7-5/h5H,2-4H2,1H3,(H,7,8)	InChI=1S/C6H11NO2/c1-9-4-5-2-3-6(8)7-5/h5H,2-4H2,1H3,(H,7,8)/t5-/m1/s1
