18
gdb 76650	2.86574	1.20238	1.05193	2.9071	68.88	-0.2393	0.0111	0.2504	1202.3414	0.146572	-476.23218	-476.222865	-476.22192	-476.267119	34.004	
C	-0.2789683129	 1.3933670198	 0.1668448854	-0.477854
C	-0.5192838641	-0.0509003105	-0.2334284904	 0.418492
O	-0.3857953023	-0.4152133139	-1.3977823299	-0.406421
N	-0.892256204	-0.8825518992	 0.7740790503	-0.296104
C	-1.0854535821	-2.297504315	 0.6737840161	-0.093339
C	-2.4967747352	-2.8296849535	 0.9378916387	 0.067458
O	-3.5076466412	-1.9042146655	 1.1536017155	-0.430614
C	-1.9237077686	-2.8910792883	-0.4494257412	 0.040895
O	-2.5424947858	-2.0475762654	-1.361190484	-0.436269
H	-0.9656718787	 2.0329162382	-0.3940250862	 0.158053
H	-0.4028287876	 1.5831067294	 1.2354039779	 0.119149
H	 0.7364602557	 1.6688136662	-0.129474886	 0.159505
H	-1.0886902065	-0.4690609625	 1.6723445449	 0.25681
H	-0.2457821285	-2.8994209541	 1.0156243041	 0.103239
H	-2.6040927236	-3.7327011856	 1.5305292372	 0.104542
H	-3.7078497013	-1.5396400691	 0.2766170686	 0.296306
H	-1.585156299	-3.8470834749	-0.8455407425	 0.099025
H	-1.8378278742	-1.4594644461	-1.6995725985	 0.317125
48.2471	66.196	100.2278	190.1075	247.2108	255.8693	295.1549	399.5922	466.4756	503.0352	521.2022	604.2969	626.9999	659.5579	737.0899	749.474	771.1618	810.7888	940.0914	980.5193	1012.3509	1042.3437	1056.1742	1075.261	1115.4181	1169.6412	1178.4833	1244.003	1304.6695	1342.8218	1356.905	1387.2323	1398.4983	1425.6425	1461.3739	1469.8631	1485.6968	1541.8761	1741.457	3053.8733	3110.2329	3120.2496	3129.6433	3136.1408	3160.9961	3529.8261	3622.9367	3690.8982
CC(=O)NC1C(O)C1O	CC(=O)N[C@H]1[C@@H](O)[C@H]1O	
InChI=1S/C5H9NO3/c1-2(7)6-3-4(8)5(3)9/h3-5,8-9H,1H3,(H,6,7)	InChI=1S/C5H9NO3/c1-2(7)6-3-4(8)5(3)9/h3-5,8-9H,1H3,(H,6,7)/t3-,4+,5-
