13
gdb 132070	2.45661	1.87271	1.06371	1.1697	68.	-0.2053	-0.0433	0.1619	1007.5674	0.09001	-494.064654	-494.057333	-494.056388	-494.096348	28.029	
N	 0.0196232911	 1.4125538116	 0.1520439285	-0.593062
C	-0.0129455736	 0.0411812331	 0.0528221807	 0.104013
C	-1.1317356074	-0.7263136296	 0.0227906136	 0.245074
F	-2.3312855802	-0.141792406	 0.026629434	-0.074621
N	-1.1448698139	-2.0858965248	-0.0082536571	-0.302883
C	-0.0086696785	-2.6655884303	-0.0182182784	 0.102358
O	 1.191768163	-2.0407168503	-0.0114400012	-0.215059
C	 1.2654857252	-0.6538679505	 0.0081661495	 0.372707
N	 2.3733291717	-0.0350779636	-0.0190667226	-0.55846
H	 0.90567886	 1.8134506908	-0.1225446996	 0.275339
H	-0.8008347576	 1.9007665977	-0.1709071806	 0.260836
H	 0.1009466949	-3.7427526274	-0.0350962512	 0.152815
H	 3.1652587352	-0.6738533307	-0.0586878456	 0.230942
125.9148	188.0111	274.2534	299.3017	354.3059	397.3885	503.107	512.018	529.8152	557.7325	575.1032	650.3474	714.8473	750.2995	821.5272	879.3185	881.959	959.9859	1040.4774	1135.6365	1250.6461	1255.9925	1318.3273	1421.3065	1426.4265	1609.0767	1642.8159	1701.8106	1737.9736	3224.384	3518.5042	3564.1599	3686.9812
NC1=C(F)N=COC1=N	NC1=C(OC=N[C@H]1F)[NH]	
InChI=1S/C4H4FN3O/c5-3-2(6)4(7)9-1-8-3/h1,7H,6H2	InChI=1S/C4H5FN3O/c5-3-2(6)4(7)9-1-8-3/h1,3,7H,6H2/t3-/m1/s1
