19
gdb 66171	3.06027	1.04441	0.94831	5.386	72.61	-0.2581	0.0138	0.272	1305.4253	0.157224	-460.170384	-460.160964	-460.16002	-460.20553	33.442	
C	-0.3392530104	 1.7755716975	-0.2844661483	-0.441664
C	-0.1880307986	 0.2690459974	-0.1642036583	 0.422127
C	-1.5271949114	-0.4642971066	-0.2281019926	-0.132307
O	-2.4164137515	-0.0052568147	 0.7904168065	-0.184527
C	-2.3740730953	-0.6407793384	 1.9841579507	 0.184954
O	-3.0241297172	-0.2830001019	 2.9184075328	-0.276944
C	 0.914977664	-0.4038123201	-1.0208382745	-0.340431
C	 1.5308513693	-0.804289466	 0.3332030727	-0.066348
O	 0.5031605312	-0.0998186263	 1.0645570604	-0.320903
H	 0.6342683134	 2.2619727295	-0.1831181122	 0.121603
H	-0.7640058258	 2.0428833141	-1.2584252465	 0.117017
H	-1.0031486499	 2.1548765718	 0.496130876	 0.151538
H	-2.0281238054	-0.2760053735	-1.182535129	 0.123992
H	-1.363989544	-1.5448817314	-0.1290374936	 0.108403
H	-1.6974759255	-1.5134878392	 1.9809700517	 0.085129
H	 0.584925604	-1.2259005044	-1.6599118437	 0.110925
H	 1.5087946871	 0.2934321995	-1.6134313649	 0.11827
H	 1.5289264288	-1.8786777723	 0.5536397555	 0.106
H	 2.5272306771	-0.4030584751	 0.547970137	 0.113167
56.8865	77.2642	90.3226	158.4817	213.688	242.5627	293.772	325.9087	391.3819	403.4061	477.9855	662.9409	715.8135	781.3883	861.0073	881.3296	917.0745	961.6917	987.3669	1000.1966	1024.8127	1026.8996	1053.2883	1133.0284	1163.0218	1168.1061	1208.6234	1219.7815	1267.5947	1286.923	1328.9991	1351.8485	1393.4619	1411.8196	1430.5746	1479.5593	1489.3253	1490.2169	1497.1055	1531.7584	1868.0861	2985.1769	3022.6137	3027.1611	3040.8144	3066.1934	3074.6985	3092.9033	3113.3193	3130.9765	3134.2764
CC1(COC=O)CCO1	C[C@@]1(COC=O)CCO1	
InChI=1S/C6H10O3/c1-6(2-3-9-6)4-8-5-7/h5H,2-4H2,1H3	InChI=1S/C6H10O3/c1-6(2-3-9-6)4-8-5-7/h5H,2-4H2,1H3/t6-/m0/s1
