17
gdb 33900	4.03439	1.29157	1.17448	1.7394	79.77	-0.2418	0.0154	0.2572	1078.3275	0.135204	-384.593704	-384.586217	-384.585273	-384.625446	29.989	
C	 0.0042752308	-1.2002422241	-0.1355922181	-0.361978
C	 0.0480617793	-0.0029212279	-0.0280512042	 0.147154
C	 0.0650450906	 1.4063860411	 0.1568781483	 0.295993
O	 0.2315398561	 2.2609985126	-0.9928207574	-0.274652
C	 1.1534623524	 2.4191836061	 0.0841017134	-0.068359
C	 0.4886572889	 3.2869115117	 1.176495039	-0.056452
C	-0.526837193	 4.3641889999	 0.6922295714	-0.226344
C	-1.6781428672	 3.3095924844	 0.7607855832	-0.227687
C	-0.6656946548	 2.2359147886	 1.253078533	-0.116282
H	-0.0272799636	-2.2563343286	-0.2424644124	 0.189748
H	 2.2053220569	 2.3012994271	-0.1543743266	 0.111939
H	 1.119546038	 3.5017634887	 2.0385870237	 0.076966
H	-0.6443368797	 5.1874236539	 1.4003118118	 0.099783
H	-0.3273901518	 4.7736377149	-0.2993460948	 0.113046
H	-2.4445936692	 3.5431318386	 1.5030879835	 0.098589
H	-2.1621154843	 3.0847914468	-0.1908463282	 0.116212
H	-0.8754478897	 1.682581896	 2.1673289943	 0.082323
118.5032	143.5578	202.0554	296.9958	363.3925	463.9917	523.5372	575.1112	607.7123	620.989	669.3458	701.5351	731.8517	803.6556	812.6671	861.0295	875.175	905.0447	952.7351	960.0946	993.3162	1029.0693	1054.6197	1105.4125	1127.5398	1142.4426	1203.5205	1230.4324	1242.4064	1253.2421	1274.0026	1283.0212	1306.5691	1409.177	1462.6661	1482.9981	2237.7796	3068.6113	3074.6991	3113.013	3121.652	3126.9725	3138.5465	3175.3994	3501.7534
C#CC12OC1C1CCC21	C#C[C@]12O[C@H]1[C@H]1CC[C@@H]21	
InChI=1S/C8H8O/c1-2-8-6-4-3-5(6)7(8)9-8/h1,5-7H,3-4H2	InChI=1S/C8H8O/c1-2-8-6-4-3-5(6)7(8)9-8/h1,5-7H,3-4H2/t5-,6+,7-,8+/m0/s1
