20
gdb 55864	3.75191	0.84352	0.8289	3.74	76.59	-0.2385	0.0319	0.2704	1486.454	0.168664	-440.316751	-440.306601	-440.305657	-440.352337	37.14	
C	-0.0192143355	 1.5779019822	 0.1054869806	-0.45617
C	 0.1060083828	 0.070978183	 0.1266717293	 0.390737
C	-0.600541779	-0.6412495865	-1.0074939249	-0.45411
O	 1.4291813993	-0.4386452818	 0.4027952399	-0.302095
C	 0.3865753073	-0.6833479212	 1.3670433215	-0.002708
C	 0.5549590682	-0.0865226318	 2.7481794993	-0.337983
C	 1.7442906219	-0.6719016062	 3.5259966682	 0.376212
N	 2.9316979775	-0.5952285695	 2.8597867358	-0.507533
O	 1.6329250795	-1.1167009224	 4.6509320674	-0.35938
H	 0.5786636217	 2.0513492346	 0.8851669403	 0.131069
H	 0.3234679656	 1.9655217968	-0.859886767	 0.129075
H	-1.0643240007	 1.8793379488	 0.2329342218	 0.127587
H	-0.2204051632	-0.2933767084	-1.97397103	 0.127653
H	-0.4460908326	-1.721092499	-0.9475776337	 0.130341
H	-1.6766959462	-0.4398461179	-0.9785190994	 0.125204
H	 0.0631241731	-1.7262595213	 1.3807376388	 0.097831
H	 0.6891665273	 0.9973956124	 2.6898683402	 0.121213
H	-0.3375993439	-0.2851185338	 3.3457287806	 0.131726
H	 2.9479811073	-0.376669177	 1.8751468433	 0.275374
H	 3.7323006698	-1.0364727109	 3.2823898578	 0.255957
49.1293	62.7291	134.5821	155.586	198.4868	234.9284	271.9085	358.2496	386.4409	412.561	415.958	465.0282	508.118	563.3166	602.923	696.4921	726.2963	803.6881	866.0977	896.4774	946.4696	949.7271	994.2205	1040.8765	1109.2873	1124.1528	1139.4721	1154.6466	1214.9008	1266.9539	1305.1245	1354.3049	1357.8393	1411.0042	1421.0061	1459.3112	1461.9296	1472.9586	1487.3439	1501.4752	1516.8129	1622.0945	1806.921	3036.0788	3042.3169	3068.6395	3087.3945	3098.2669	3103.2153	3124.6136	3126.9232	3141.2247	3568.5793	3710.0245
CC1(C)OC1CC(N)=O	CC1(C)O[C@H]1CC(=O)N	
InChI=1S/C6H11NO2/c1-6(2)4(9-6)3-5(7)8/h4H,3H2,1-2H3,(H2,7,8)	InChI=1S/C6H11NO2/c1-6(2)4(9-6)3-5(7)8/h4H,3H2,1-2H3,(H2,7,8)/t4-/m0/s1
