21
gdb 90830	2.99493	1.82247	1.40221	0.2352	86.12	-0.2613	0.0928	0.3541	999.0072	0.184863	-349.880485	-349.873452	-349.872508	-349.911479	29.833	
C	-0.220114981	 1.5024296778	-0.0619281849	-0.404348
C	 0.0628405072	 0.0041212269	 0.0487982242	-0.111931
C	 1.0666546824	-0.5506433179	-1.045762663	-0.240757
C	 2.2102594568	-1.1628582697	-0.1887478936	-0.078916
C	 1.5055923193	-1.8363109538	 1.0079423977	-0.050912
C	 2.3507738461	-1.2095784189	 2.1572684348	-0.090814
C	 1.0975026573	-0.5182819998	 2.7838327551	-0.360133
C	 0.8854060664	-0.4223638022	 1.2538101709	 0.360389
C	 2.4117085475	-0.1830839948	 0.9860606621	-0.045775
H	 0.707555376	 2.0833537974	-0.0116185717	 0.11249
H	-0.7117473712	 1.742469179	-1.0106291904	 0.111848
H	-0.8733334028	 1.8447919981	 0.7478966712	 0.112989
H	-0.885283999	-0.5445288155	 0.0030536326	 0.067822
H	 0.5938131367	-1.2984013938	-1.6909172659	 0.095589
H	 1.4300934518	 0.2562510681	-1.6921344162	 0.094762
H	 3.0416923439	-1.6242973873	-0.7266248061	 0.052478
H	 0.941905557	-2.7715434776	 1.0403431525	 0.061403
H	 3.1916568624	-1.6616238057	 2.6847867777	 0.066853
H	 0.4073498725	-1.1602587422	 3.3414647829	 0.091775
H	 1.269183266	 0.4193207019	 3.3226755977	 0.092587
H	 2.9021772747	 0.7926064902	 0.9959139123	 0.062601
149.0764	221.7047	226.5272	348.4176	409.1883	452.4853	474.659	661.4686	678.8979	745.0917	792.184	824.4015	852.2626	857.4688	883.7811	909.046	925.6204	930.9674	952.8402	971.6142	994.5041	1034.9907	1039.2482	1075.6182	1082.277	1097.1563	1133.3086	1144.2876	1147.8306	1181.0753	1190.3224	1198.7893	1211.6919	1233.3372	1257.2189	1267.2167	1304.2529	1311.2983	1340.1918	1373.9104	1410.1677	1492.2918	1497.0442	1499.2554	1508.2228	3026.6598	3028.5754	3033.9105	3038.9955	3078.2353	3080.9856	3083.7092	3090.354	3092.0536	3095.5026	3097.0668	3106.2529
CC1CC2C3C4CC13C24	C[C@H]1C[C@@H]2[C@H]3[C@@H]4C[C@]13[C@H]24	
InChI=1S/C9H12/c1-4-2-5-7-6-3-9(4,7)8(5)6/h4-8H,2-3H2,1H3	InChI=1S/C9H12/c1-4-2-5-7-6-3-9(4,7)8(5)6/h4-8H,2-3H2,1H3/t4-,5-,6+,7+,8-,9+/m0/s1
