19
gdb 79994	2.21282	2.03771	1.61797	1.2954	78.27	-0.2232	-0.0055	0.2177	946.691	0.159345	-385.876235	-385.868376	-385.867432	-385.907792	32.421	
C	-0.1198108848	 1.5305200336	 0.0289755624	-0.431095
C	 0.0754242965	 0.0211912778	 0.02140274	 0.035223
C	 1.1440033854	-0.5990251223	-0.9535933221	-0.139291
C	 2.4272676764	-0.0593071699	-0.2938973988	-0.074695
C	 2.2242597142	-0.0718375132	 1.0215053341	-0.149968
C	 0.797669926	-0.6151438355	 1.2558398037	 0.348639
O	 0.1861313613	-0.3256549464	 2.4853504369	-0.515834
C	 0.7918238952	-2.0867274129	 0.782960196	-0.143031
C	 0.9930535137	-2.0747827231	-0.5332504266	-0.084985
H	 0.8229915805	 2.0710500424	 0.1361195871	 0.118126
H	-0.6014722236	 1.8570960195	-0.8991711061	 0.106674
H	-0.7723451291	 1.8137961163	 0.8608017467	 0.128314
H	-0.8923107754	-0.4681221606	-0.1236361249	 0.076845
H	 1.0300637878	-0.3925108051	-2.017688612	 0.059758
H	 3.3230667443	 0.2209553816	-0.8320213062	 0.099286
H	 2.9062661225	 0.1976105755	 1.8182058329	 0.093138
H	 0.7340590032	-0.6800481074	 3.1925126541	 0.278491
H	 0.665336192	-2.9302764676	 1.449391589	 0.094958
H	 1.0786868137	-2.9154174429	-1.2089115362	 0.099446
157.3826	204.3087	223.2323	257.8558	349.1804	364.8732	432.3058	471.2206	539.9313	572.5979	636.9423	664.1052	722.0843	735.9798	765.715	784.8529	859.4679	895.5917	911.8455	921.9443	938.8517	979.9415	996.401	1058.5813	1067.7745	1084.3393	1105.6369	1132.8896	1189.2448	1238.1779	1243.1123	1267.0816	1290.9929	1331.2461	1355.2378	1388.8432	1404.9034	1491.1742	1503.426	1617.3963	1662.1573	3038.0984	3065.574	3100.2224	3114.2451	3128.6586	3199.1229	3202.3949	3226.6001	3229.9398	3820.7515
CC1C2C=CC1(O)C=C2	C[C@H]1[C@H]2C=C[C@]1(O)C=C2	
InChI=1S/C8H10O/c1-6-7-2-4-8(6,9)5-3-7/h2-7,9H,1H3	InChI=1S/C8H10O/c1-6-7-2-4-8(6,9)5-3-7/h2-7,9H,1H3/t6-,7-,8-/m0/s1
