17
gdb 18979	4.27375	2.30639	1.87375	0.3428	67.76	-0.213	0.0916	0.3046	747.8758	0.145201	-363.787662	-363.78189	-363.780946	-363.817182	24.162	
C	-0.0512365249	 1.6251972456	 0.0298998906	-0.226602
C	 1.4358557934	 1.2171733971	 0.0020903984	-0.056196
C	 1.1134531194	 0.1536098179	 1.0914856325	 0.155393
O	 1.9813315498	-0.9301877595	 1.2529921838	-0.273329
C	 2.0188189992	-1.7644140653	 0.1011012408	-0.07949
C	 1.9936607546	-0.9233928649	-1.174875884	-0.176993
N	 1.0566431509	 0.2121933517	-1.0826369677	-0.130724
C	-0.0161930817	 0.0836676822	 0.0068552119	-0.080044
H	-0.4242881282	 2.1033919975	 0.9373360872	 0.096835
H	-0.4177710692	 2.086554272	-0.886456693	 0.112082
H	 2.3200574799	 1.8493071117	-0.1005428721	 0.079439
H	 0.850590163	 0.5147562504	 2.0905788139	 0.081187
H	 2.9207507694	-2.3781882344	 0.1770885174	 0.108301
H	 1.1490347708	-2.4392595511	 0.1157782066	 0.094976
H	 2.9853906576	-0.5098181698	-1.3944089013	 0.107939
H	 1.7068610919	-1.5503908303	-2.0273561877	 0.104104
H	-0.8563498859	-0.6066466009	-0.0837920274	 0.083121
224.2273	272.5779	413.543	423.086	508.4043	565.2797	703.0704	764.4889	775.7915	788.1628	856.2289	889.9955	902.9403	928.6453	973.798	1022.6025	1033.5793	1055.9375	1093.3398	1101.966	1140.1707	1149.8713	1163.7515	1178.349	1186.7407	1218.4081	1257.3015	1262.372	1274.5831	1286.9562	1365.033	1382.2479	1421.1383	1486.2836	1488.0943	1508.7056	2984.1209	3026.3664	3060.3431	3066.0386	3078.7937	3087.209	3097.5559	3106.6614	3160.8967
C1C2C3OCCN2C13	C1[C@H]2[C@@H]3OCCN2[C@H]13	
InChI=1S/C6H9NO/c1-2-8-6-4-3-5(6)7(1)4/h4-6H,1-3H2	InChI=1S/C6H9NO/c1-2-8-6-4-3-5(6)7(1)4/h4-6H,1-3H2/t4-,5+,6-
