17
gdb 55907	3.98409	0.78902	0.71478	3.3899	72.19	-0.2451	-0.0419	0.2032	1530.3122	0.134292	-455.150076	-455.140757	-455.139813	-455.185324	33.114	
N	 0.8017237039	 0.1538739593	-0.3350091323	-0.506866
C	-0.2733872712	 0.4430444572	 0.4378970032	 0.383615
O	-0.3220229921	 1.3494903148	 1.2450486427	-0.360268
C	-1.4954050747	-0.4572134171	 0.1965626909	-0.265069
N	-1.141961861	-1.7005722885	-0.4882424083	-0.092521
C	-1.0975574419	-2.9267353659	 0.2703031162	-0.253993
C	-2.1582407267	-2.7230923206	-0.7797147571	-0.086812
C	-3.56905758	-2.5878759226	-0.3254217587	 0.157457
O	-4.5037708418	-3.0437501363	-0.9351406177	-0.257392
H	 1.625644219	 0.7260141743	-0.2606998598	 0.262372
H	 0.7562736448	-0.6109700141	-0.9877697298	 0.268182
H	-1.9754069129	-0.5939604643	 1.1733352652	 0.130817
H	-2.1891287981	 0.1096797192	-0.4347816632	 0.147623
H	-0.2781151215	-3.6081416932	 0.0607843955	 0.137799
H	-1.4171073337	-2.893833005	 1.3118612275	 0.132165
H	-2.0535324873	-3.2092607853	-1.7459047569	 0.119677
H	-3.712971415	-2.0461952717	 0.6348949525	 0.083214
51.1481	62.682	102.6066	155.3777	242.1723	268.457	308.8585	387.0623	407.9446	455.1132	514.5142	556.447	572.1946	696.1051	797.9734	863.1306	882.8174	904.6356	1004.2849	1011.5755	1046.8279	1086.4613	1097.1904	1120.0491	1149.4854	1180.7564	1264.7251	1305.7922	1341.6852	1349.2802	1364.9279	1441.4023	1466.7427	1504.1169	1588.084	1811.5189	1818.5103	2894.1496	3026.261	3078.4494	3091.6052	3155.2175	3188.4921	3593.6999	3736.9135
NC(=O)CN1CC1C=O	NC(=O)CN1C[C@H]1C=O	
InChI=1S/C5H8N2O2/c6-5(9)2-7-1-4(7)3-8/h3-4H,1-2H2,(H2,6,9)	InChI=1S/C5H8N2O2/c6-5(9)2-7-1-4(7)3-8/h3-4H,1-2H2,(H2,6,9)/t4-,7?/m0/s1
