17
gdb 75733	2.6037	1.59605	1.00184	1.3608	79.54	-0.2542	-0.0705	0.1837	1155.6873	0.136279	-418.078487	-418.069644	-418.0687	-418.112047	31.859	
C	-0.0108845957	 1.4401503377	 0.0366191038	-0.367228
N	 0.0032160961	-0.0034561834	 0.0260325515	-0.153268
C	-0.0193069859	-0.7723339719	-1.1466267019	 0.414108
O	-0.0522169632	-0.324267469	-2.2697464418	-0.367465
C	 0.0057402726	-2.1908104196	-0.6959236384	-0.358259
C	 0.0401086055	-2.2337415315	 0.6429613313	 0.316279
C	 0.0748166171	-3.3966209608	 1.5719198005	-0.484571
C	 0.0394467963	-0.8271479667	 1.1480553616	 0.297358
N	 0.0677133065	-0.5201853733	 2.383815896	-0.529201
H	 0.8887020893	 1.8446566519	 0.5142300513	 0.135603
H	-0.0403144441	 1.7682054882	-1.0037168058	 0.171204
H	-0.893177223	 1.8269501245	 0.5590657072	 0.135603
H	-0.0041346297	-3.013348081	-1.3964488691	 0.131076
H	 0.0699937996	-4.3422549005	 1.0258620787	 0.128606
H	 0.9662186802	-3.3536128639	 2.2062631827	 0.153538
H	-0.7839020336	-3.3703457155	 2.2507055365	 0.153542
H	 0.0615893219	 0.4915570447	 2.5247920658	 0.223074
109.4583	125.7887	152.4822	152.9021	210.1161	254.2762	284.6138	373.4361	387.8746	544.3134	595.0199	649.0033	702.3147	738.2119	769.0921	869.4704	875.0775	889.4766	991.7023	1030.1797	1063.8394	1126.7405	1157.754	1172.5427	1236.8895	1276.9777	1338.5164	1413.8196	1424.0832	1468.0358	1469.0568	1478.6708	1494.1693	1517.7482	1688.4054	1724.6574	1824.2461	3025.1607	3044.0311	3080.0436	3099.4192	3133.3742	3145.1021	3244.455	3466.9098
CN1C(=O)C=C(C)C1=N	CN1C(=O)[CH]C(=C1[NH])C	
InChI=1S/C6H8N2O/c1-4-3-5(9)8(2)6(4)7/h3,7H,1-2H3	InChI=1S/C6H8N2O/c1-4-3-5(9)8(2)6(4)7/h3,7H,1-2H3
