19
gdb 113035	4.21522	0.86729	0.81926	1.8813	83.47	-0.2441	0.0174	0.2615	1439.5178	0.158521	-385.85949	-385.850321	-385.849377	-385.893903	34.194	
O	 0.0654080078	 1.4540347605	 0.1133811653	-0.423134
C	 0.0749627727	 0.0378034264	 0.0126670386	-0.086681
C	-1.3744292088	-0.4418976666	 0.0198461044	-0.008517
C	-1.5023986031	-1.9787680337	-0.1257605734	-0.258654
C	-2.6781766053	-2.4052432385	 0.8128916208	-0.206702
C	-2.7975531994	-1.2084297424	 1.7482344665	-0.085503
C	-2.1050658459	-0.1606710956	 1.3125948473	-0.05516
C	-3.9310590979	-2.6654809187	 0.1034493558	 0.343437
C	-4.9627149358	-2.8718629968	-0.4791244043	-0.495689
H	 0.9755579222	 1.7617230254	 0.1492079909	 0.287771
H	 0.5687062676	-0.2933497081	-0.9155055099	 0.086163
H	 0.6147885017	-0.4204293492	 0.8576093088	 0.084148
H	-1.8821569345	 0.0764149766	-0.8058481843	 0.095662
H	-1.6626762538	-2.3007890945	-1.1558042246	 0.113682
H	-0.5832463756	-2.4559016888	 0.2322723536	 0.099762
H	-2.4121095638	-3.3154398324	 1.3658563793	 0.104122
H	-3.4292834005	-1.237945396	 2.6281750589	 0.101954
H	-2.0619089553	 0.8115491341	 1.7886562891	 0.109273
H	-5.8743575523	-3.0544305616	-0.9916434228	 0.194067
42.5508	116.8011	137.4879	183.8485	225.4982	262.4207	307.2742	379.7904	451.4548	521.0189	558.7117	613.2332	628.3966	683.0631	753.2643	795.31	831.6874	858.5851	918.6276	969.7017	983.5485	1012.6847	1062.374	1073.9495	1084.7089	1113.9672	1135.969	1198.2403	1226.3455	1242.1317	1270.5422	1296.7184	1311.8803	1337.3875	1345.0222	1383.8803	1453.7872	1487.0527	1520.2608	1687.9797	2229.7975	2957.8989	2986.0697	3011.0817	3013.5938	3046.4135	3118.1993	3194.5562	3220.1692	3505.2851	3832.3901
OCC1CC(C=C1)C#C	OC[C@H]1C[C@@H](C=C1)C#C	
InChI=1S/C8H10O/c1-2-7-3-4-8(5-7)6-9/h1,3-4,7-9H,5-6H2	InChI=1S/C8H10O/c1-2-7-3-4-8(5-7)6-9/h1,3-4,7-9H,5-6H2/t7-,8-/m1/s1
