15
gdb 21953	7.00549	1.07662	0.9868	3.1438	62.35	-0.2592	0.0096	0.2688	1136.9776	0.12096	-396.001457	-395.993881	-395.992936	-396.034362	26.514	
O	-0.1106280237	 1.4264242657	 0.0969222878	-0.420245
C	-0.0184723794	 0.0178247873	 0.2408027337	-0.070401
C	-1.3370953756	-0.5767342147	-0.2557487419	-0.277736
C	-1.3791268739	-2.061775316	-0.1067704108	 0.3313
N	-1.4757789697	-2.8844844485	-1.1424078035	-0.264179
N	-1.4735408598	-4.1017807677	-0.5460237435	-0.178186
C	-1.3760271884	-3.9668661191	 0.790345882	 0.016467
N	-1.3128449463	-2.6907175089	 1.1093594896	-0.300441
H	 0.6985699053	 1.8159224467	 0.4400541264	 0.286073
H	 0.8158898677	-0.3936126442	-0.349384927	 0.089344
H	 0.138617662	-0.275543631	 1.2886360152	 0.10816
H	-2.1514952302	-0.1238171523	 0.3204380233	 0.126205
H	-1.4850808624	-0.3163230568	-1.3065788592	 0.126929
H	-1.5469629134	-4.9352750375	-1.1054459663	 0.281753
H	-1.3569030423	-4.8045579831	 1.4714941342	 0.144956
49.2055	97.8905	128.3207	249.4164	333.1784	357.6259	390.3395	538.1174	682.309	724.5221	793.5668	818.9653	856.8584	992.683	999.4209	1017.4838	1061.4697	1081.6709	1103.0032	1167.3803	1217.9956	1241.8229	1290.3742	1306.6063	1328.7643	1355.5753	1456.433	1470.9774	1475.7725	1495.2914	1530.331	1562.1174	2974.6261	3018.8166	3053.1243	3115.1939	3256.4132	3667.8934	3833.7921
OCCC1=NNC=N1	OCCc1n[nH]cn1	
InChI=1S/C4H7N3O/c8-2-1-4-5-3-6-7-4/h3,8H,1-2H2,(H,5,6,7)	InChI=1S/C4H7N3O/c8-2-1-4-5-3-6-7-4/h3,8H,1-2H2,(H,5,6,7)
