18
gdb 50378	3.19815	1.33459	1.13522	4.1248	71.87	-0.2369	-0.0261	0.2108	1101.0521	0.148857	-439.072134	-439.064359	-439.063415	-439.105016	29.348	
O	-0.7841513667	 0.823965155	 0.4168968515	-0.250601
C	 0.2361222424	 0.7464266772	-0.2173328264	 0.172668
C	 1.3949677962	 1.7074479657	-0.0725178382	-0.10188
N	 2.6913705906	 1.2130861357	-0.5801957889	-0.339333
C	 2.953263162	 2.4668844153	-1.3322338823	-0.017272
C	 3.0714111085	 2.269473559	-2.8423601101	-0.221365
C	 1.6208936629	 1.9475268614	-3.2304577092	-0.08425
O	 0.8005631795	 2.7136680728	-2.3383543319	-0.257688
C	 1.47262163	 2.8857572985	-1.1150254475	 0.096629
H	 0.4020926027	-0.0480365812	-0.9791153284	 0.078924
H	 1.4001508894	 2.102892602	 0.9512842676	 0.08757
H	 3.3757252292	 0.9699147684	 0.1254589104	 0.225317
H	 3.717363665	 3.1214958285	-0.9030150585	 0.073368
H	 3.4036227352	 3.1987323273	-3.3171998478	 0.106672
H	 3.7657742009	 1.4683223931	-3.1060334417	 0.111426
H	 1.3568864162	 2.2407667067	-4.2492587776	 0.11398
H	 1.4184935081	 0.8752165892	-3.1085830238	 0.108394
H	 1.2233400779	 3.8692362456	-0.7161195273	 0.09744
65.5529	101.5922	189.0042	230.4379	300.4664	377.8667	459.8441	514.4084	619.1979	662.3208	702.873	802.3111	854.2531	859.2865	903.3787	936.9732	972.0499	984.657	1009.0813	1038.6609	1056.1338	1091.5478	1101.0043	1142.8633	1164.8573	1201.3886	1226.8957	1244.9425	1271.9013	1288.6379	1320.5699	1346.4669	1365.3086	1385.0279	1396.7305	1410.7245	1471.1093	1515.9416	1829.5298	2883.4783	3018.1345	3025.7157	3050.2711	3066.0582	3101.1186	3111.9326	3117.0729	3551.0226
O=CC1NC2CCOC12	O=C[C@H]1N[C@H]2CCO[C@@H]12	
InChI=1S/C6H9NO2/c8-3-5-6-4(7-5)1-2-9-6/h3-7H,1-2H2	InChI=1S/C6H9NO2/c8-3-5-6-4(7-5)1-2-9-6/h3-7H,1-2H2/t4-,5+,6+/m0/s1
