19
gdb 122391	3.04605	1.21015	1.03043	3.1361	71.59	-0.2421	0.0641	0.3062	1205.9703	0.159039	-460.090922	-460.082459	-460.081514	-460.124661	31.668	
O	-0.2295958193	 1.0784263979	-1.1890171179	-0.419027
C	-0.3369505855	 0.2496823156	-0.0477767089	-0.060602
C	-1.7539074191	-0.2891004509	 0.10321309	-0.079738
O	-2.0460308808	-0.9584695844	-1.1191307268	-0.260284
C	-3.3866176863	-1.0554885806	-1.456237915	 0.098289
C	-4.2536748514	 0.1423919678	-1.7909680228	-0.199621
C	-3.439961148	 1.1520825397	-2.596259552	-0.102085
O	-2.9893130996	 0.1242116795	-3.5222403746	-0.281309
C	-3.8034111986	-0.8457674437	-2.8713427861	 0.055833
H	-0.5701095769	 0.5520385544	-1.9245854911	 0.300839
H	 0.3677078984	-0.5948403371	-0.1004775182	 0.097412
H	-0.0717166257	 0.8550057769	 0.8250282881	 0.10811
H	-1.8293163527	-0.9793795741	 0.9571744771	 0.092726
H	-2.4609164679	 0.5365044797	 0.2576333794	 0.104505
H	-3.938686912	-1.845002477	-0.9419607085	 0.094378
H	-5.2212973781	 0.321069605	-1.3412491234	 0.102318
H	-4.0629539398	 1.8833413102	-3.1215751974	 0.113614
H	-2.6061407216	 1.6534798993	-2.0952838063	 0.126213
H	-4.324800395	-1.5663033983	-3.4920241656	 0.108428
57.3337	98.8056	162.7382	184.535	253.8269	299.608	334.5535	500.9072	530.9328	566.0893	641.8784	730.7073	808.7033	825.7397	868.8663	900.7101	941.3779	968.3042	975.1321	1019.3425	1044.5311	1050.8989	1071.3826	1080.0223	1104.9092	1132.2546	1145.652	1184.6011	1226.1776	1239.0893	1258.6576	1264.9661	1318.8871	1355.3833	1386.4183	1391.3308	1434.7707	1447.9711	1498.8428	1508.8476	1520.2376	2985.3433	2991.984	3041.5151	3045.3435	3082.0381	3086.8308	3098.0968	3173.11	3200.5739	3769.2678
OCCOC1C2COC12	OCCO[C@H]1[C@H]2CO[C@@H]12	
InChI=1S/C6H10O3/c7-1-2-8-5-4-3-9-6(4)5/h4-7H,1-3H2	InChI=1S/C6H10O3/c7-1-2-8-5-4-3-9-6(4)5/h4-7H,1-3H2/t4-,5+,6-/m1/s1
