18
gdb 74946	3.53425	1.41798	1.20742	1.1796	77.15	-0.2406	0.0095	0.2501	1073.9373	0.149808	-401.993037	-401.985536	-401.984592	-402.025172	28.939	
C	-0.0223885663	 1.5155024404	 0.193506167	-0.472865
C	-0.0555092834	 0.0343609067	 0.0266436368	 0.400532
N	-1.0697381807	-0.7172260368	 0.1845129734	-0.314303
C	-0.6317542066	-2.0952915175	-0.0787193537	-0.01579
C	-1.3756777536	-2.7465641258	-1.2733146086	-0.266943
C	-0.356775045	-2.7251078913	-2.3846952128	-0.054866
C	 0.842704447	-2.299958525	-1.9909490134	-0.094956
C	 0.8543561582	-1.9398647506	-0.5309064128	 0.041534
O	 1.1362622933	-0.5295522615	-0.316941652	-0.266019
H	 0.7144352458	 1.7942398538	 0.9533612991	 0.143484
H	 0.2793194405	 1.9952829996	-0.7428782193	 0.143811
H	-1.0077881577	 1.8739447569	 0.4889195081	 0.149862
H	-0.7523377058	-2.6881646703	 0.8328223254	 0.082428
H	-1.6918459776	-3.7723938041	-1.0445838315	 0.10761
H	-2.2825546405	-2.1848176275	-1.5198157078	 0.125069
H	-0.5979243268	-3.0446439478	-3.3932742718	 0.10041
H	 1.7233242164	-2.2076973301	-2.615670526	 0.101454
H	 1.5909173129	-2.4970558291	 0.0546231697	 0.089551
99.5573	129.9385	162.9086	287.7376	305.5779	426.7097	481.0615	606.7816	617.484	655.8864	758.2037	777.3268	836.7777	869.1594	893.9454	941.3184	957.0344	980.985	989.7907	1018.1292	1024.086	1054.2252	1068.8741	1093.1231	1129.849	1192.2692	1233.3755	1267.1653	1307.7679	1318.1555	1326.9179	1356.4014	1384.5742	1412.4817	1475.3117	1476.5214	1478.2486	1683.0931	1730.7673	3026.3106	3050.4504	3054.649	3071.74	3076.8601	3107.7531	3165.4948	3183.1617	3212.0242
CC1=NC2CC=CC2O1	CC1=N[C@H]2CC=C[C@H]2O1	
InChI=1S/C7H9NO/c1-5-8-6-3-2-4-7(6)9-5/h2,4,6-7H,3H2,1H3	InChI=1S/C7H9NO/c1-5-8-6-3-2-4-7(6)9-5/h2,4,6-7H,3H2,1H3/t6-,7+/m0/s1
