20
gdb 96256	2.43302	1.518	1.02072	1.5623	76.82	-0.2369	0.0211	0.258	1191.7739	0.171899	-440.276604	-440.267938	-440.266994	-440.31019	32.701	
C	 0.2419301242	 1.5933796129	-0.0048755063	-0.404277
C	-0.0171343625	 0.0896239411	 0.0530375561	 0.1141
C	 0.7613156881	-0.6471185398	-1.0620189657	-0.094465
O	 0.0152616294	-1.6647710691	-1.7323728849	-0.224871
C	-0.387822048	-2.813797154	-1.1321649634	 0.134652
N	-0.2270225024	-3.3341220664	 0.0026211695	-0.262464
C	 0.4957793789	-2.813396902	 1.1489130296	-0.181899
C	-0.123283599	-1.5652888248	 1.8106936357	-0.075915
O	 0.3671040142	-0.3241289283	 1.3504571082	-0.247826
H	 1.3121847725	 1.8010145288	 0.0979188947	 0.127186
H	-0.1039172954	 2.0107735538	-0.9548380668	 0.11886
H	-0.2807412904	 2.0938468285	 0.8131903809	 0.129404
H	-1.0901038656	-0.1074066671	-0.1049471088	 0.082798
H	 1.0048738463	 0.0525908258	-1.8646797959	 0.116247
H	 1.7003420353	-1.0368859413	-0.6594201053	 0.123435
H	-0.9809256881	-3.3562070992	-1.8705239464	 0.118021
H	 0.4847241613	-3.6104446654	 1.9012429652	 0.107581
H	 1.5528729773	-2.6100511079	 0.9375075107	 0.111422
H	-1.2191361846	-1.6151362149	 1.712647488	 0.099252
H	 0.1227049287	-1.580305941	 2.8769711049	 0.10876
47.3516	169.3648	189.4584	227.3306	259.3348	284.5782	324.2053	352.5357	439.5415	496.6767	527.6173	582.7211	727.4263	819.4168	856.1405	886.0062	939.5096	951.378	957.2566	969.3351	1046.9236	1083.8881	1105.236	1119.0831	1146.4323	1156.8032	1191.2845	1248.9772	1286.6057	1329.6393	1332.9929	1373.497	1382.2146	1405.2858	1412.0186	1412.8159	1449.8322	1483.1357	1485.9575	1487.4255	1501.709	1519.1838	1770.7722	2975.8817	2988.2708	3023.0282	3042.7792	3051.8879	3068.039	3081.2197	3112.3536	3116.2249	3124.084	3132.2366
CC1COC=NCCO1	C[C@H]1COC=NCCO1	
InChI=1S/C6H11NO2/c1-6-4-8-5-7-2-3-9-6/h5-6H,2-4H2,1H3/b7-5-	InChI=1S/C6H11NO2/c1-6-4-8-5-7-2-3-9-6/h5-6H,2-4H2,1H3/b7-5-/t6-/m0/s1
