13
gdb 131296	4.27286	1.02062	0.90978	1.2703	65.82	-0.2631	-0.0297	0.2334	1227.4786	0.089304	-448.869713	-448.861903	-448.860959	-448.90302	28.002	
O	 0.2593687962	 1.2730005491	-0.1341088617	-0.394858
C	 0.1147677105	-0.0496093384	-0.0704635928	 0.485905
N	 0.2636606041	-0.835885537	-1.1266987091	-0.31279
N	 0.0218625514	-2.0266795566	-0.5714471211	 0.15757
C	 0.0751478016	-3.2797383622	-1.3170464225	-0.294155
C	 1.4307149654	-3.669359	-1.6843398813	 0.327606
C	 2.5387957349	-4.0081318142	-1.9953403722	-0.43727
N	-0.253370416	-1.9853378737	 0.7188056285	-0.118613
N	-0.2012799633	-0.7190388389	 1.0620130657	-0.30089
H	 0.1023913024	 1.6202436785	 0.7532520397	 0.321176
H	-0.3877315542	-4.0266343818	-0.6666985408	 0.179369
H	-0.5485865559	-3.1627079305	-2.2086598559	 0.171521
H	 3.5224757929	-4.3028921244	-2.2676668364	 0.215427
45.4703	83.1441	219.656	286.724	319.8957	363.088	408.3284	471.2567	478.1954	633.4861	672.8921	690.8872	727.0722	774.9427	830.5316	965.2329	969.6771	1033.3995	1110.1523	1188.032	1200.5688	1265.7634	1363.8873	1384.7358	1398.4717	1458.1028	1484.7114	1635.2359	2253.1325	3063.0126	3114.6906	3503.77	3801.858
OC1=NN(CC#C)N=N1	Oc1nn(CC#C)nn1	
InChI=1S/C4H4N4O/c1-2-3-8-6-4(9)5-7-8/h1H,3H2,(H,6,9)	InChI=1S/C4H4N4O/c1-2-3-8-6-4(9)5-7-8/h1H,3H2,(H,6,9)
