15
gdb 66503	3.7641	1.96979	1.70634	4.3329	67.4	-0.2174	-0.0711	0.1463	810.6415	0.110773	-416.632426	-416.625846	-416.624902	-416.662827	27.112	
C	 0.0062240295	 1.5499726572	-0.0246828457	-0.521216
C	 0.054356348	 0.056799242	 0.0122165306	 0.335925
C	 0.3029787678	-0.9862402349	-1.0327411649	-0.098737
C	 0.6927378297	-2.096803635	-0.0118256805	-0.055157
N	-0.4823028195	-3.0312311706	 0.1706056923	-0.341659
C	-0.9931490122	-1.8905006657	 0.4827332401	 0.343795
O	-0.8096168669	-1.3155653826	 1.7434939006	-0.227563
C	 0.4493710669	-0.8597106723	 1.1853133549	-0.044056
N	-1.0649959176	-0.7759614823	-0.5037069825	-0.168941
H	 1.0064508225	 1.9750256205	 0.1090320248	 0.128956
H	-0.3919624414	 1.8985308638	-0.9809620459	 0.143753
H	-0.6374700748	 1.9327914844	 0.7737399333	 0.144286
H	 0.5102954438	-0.9121767772	-2.0927310765	 0.119504
H	 1.6236712194	-2.6545638654	 0.0182626376	 0.124749
H	 1.1726263848	-0.6326888718	 1.9626029619	 0.116362
192.1039	220.3324	264.0218	402.1971	473.2248	516.26	583.2577	589.1996	635.6777	671.2875	739.2736	794.8865	816.7449	832.4332	862.2319	880.1703	902.3433	966.9766	1013.9445	1022.2683	1047.8465	1066.418	1086.9985	1101.6803	1140.9404	1202.3374	1222.4908	1265.076	1399.4081	1431.8913	1483.5194	1486.8487	1489.5269	3039.4105	3105.1389	3123.7633	3168.9254	3179.6571	3203.0854
CC12C3C4N=C(OC14)N23	C[C@@]12[C@H]3[C@@H]4[N][C](O[C@H]14)N23	
InChI=1S/C6H6N2O/c1-6-3-2-4(6)9-5(7-2)8(3)6/h2-4H,1H3	InChI=1S/C6H6N2O/c1-6-3-2-4(6)9-5(7-2)8(3)6/h2-4H,1H3/t2-,3+,4-,6+,8?/m0/s1
