23
gdb 41948	2.13914	1.89217	1.54152	1.3876	83.35	-0.2346	0.0697	0.3044	1028.384	0.211338	-388.318299	-388.310923	-388.309979	-388.349626	31.244	
C	-0.0219005297	 1.5386847056	-0.1442056575	-0.204738
C	 1.3942743931	 2.1404478638	-0.0400753855	-0.200972
C	 2.2637761276	 1.5240185213	 1.0760677431	 0.005411
C	 1.7825027957	 1.7953034699	 2.5176030778	-0.222446
C	 0.499849906	 1.0316853091	 2.8877400271	-0.062105
O	 0.4790872795	-0.3169361406	 2.4384699278	-0.276798
C	 0.9068054478	-0.5497228288	 1.094386011	 0.1293
C	-0.0458613999	 0.0034655775	 0.015302184	-0.21203
C	 2.3215212369	-0.0000190264	 0.8881385163	-0.219101
H	-0.6715777249	 1.996999547	 0.6058645471	 0.106353
H	-0.4598865584	 1.80840408	-1.1121466242	 0.089322
H	 1.9215896452	 1.9813055001	-0.990323569	 0.0918
H	 1.3238977677	 3.2270708895	 0.0907488084	 0.088403
H	 3.2712356084	 1.9457380433	 0.978671654	 0.062182
H	 2.5847057248	 1.4859873482	 3.1988987633	 0.099633
H	 1.6191119059	 2.8669431752	 2.6848695792	 0.0897
H	 0.4024412425	 0.9738971473	 3.9770895669	 0.100576
H	-0.3850593442	 1.5701157828	 2.5232912858	 0.090983
H	 0.9093083798	-1.6420234249	 1.0151879875	 0.07367
H	-1.064949102	-0.3402734912	 0.222333728	 0.099531
H	 0.2541667759	-0.4626950319	-0.9329603631	 0.093955
H	 2.6842809492	-0.2593133245	-0.1135998688	 0.085699
H	 3.0001620231	-0.457253442	 1.6164792609	 0.091672
141.3777	207.4752	303.1784	340.1477	377.9912	392.0035	405.5414	508.7036	554.9893	646.5335	716.0141	769.2689	784.7797	837.0811	841.4243	864.1714	878.0073	924.7943	976.0043	994.0858	1011.6632	1046.9236	1062.662	1083.1473	1095.7311	1119.3012	1133.8451	1139.4233	1203.0388	1227.6141	1267.2146	1281.8736	1293.6828	1323.4255	1338.9936	1354.524	1358.6926	1370.4953	1387.527	1395.8612	1398.5134	1398.7229	1429.2743	1474.0967	1479.4619	1481.2791	1494.4184	1501.4743	1532.5068	3008.6945	3009.2236	3015.9586	3017.5302	3024.7299	3035.782	3040.9428	3049.4752	3052.5958	3058.5363	3066.8567	3069.2813	3074.3837	3093.7011
C1CC2CCOC(C1)C2	C1C[C@H]2CCO[C@@H](C1)C2	
InChI=1S/C8H14O/c1-2-7-4-5-9-8(3-1)6-7/h7-8H,1-6H2	InChI=1S/C8H14O/c1-2-7-4-5-9-8(3-1)6-7/h7-8H,1-6H2/t7-,8-/m0/s1
