21
gdb 114310	2.04081	1.40351	1.30341	2.5583	78.53	-0.2276	0.0644	0.292	1158.891	0.181426	-424.185771	-424.176161	-424.175217	-424.219876	36.437	
C	 0.2285822787	 1.6670155017	-0.506495134	-0.425663
C	 0.3605444613	 0.1973722312	-0.1566563856	-0.055538
C	 1.5350485703	-0.7008729403	-0.4944185948	-0.146017
C	 2.8693987864	 0.0235390094	-0.2372507744	-0.285504
C	 2.4944497962	 0.1364465433	 1.2777726106	-0.026189
C	 2.5355303041	 1.4389159485	 2.0555430574	-0.120093
O	 1.8026190066	 1.1927754618	 3.2583268819	-0.428715
C	 1.1273952238	-0.470850144	 0.9591287202	 0.387157
O	 0.5142618265	-1.3634347553	 1.8241396183	-0.469999
H	 1.1893539362	 2.1858549337	-0.5356452129	 0.116566
H	-0.2278184538	 1.7817431116	-1.4964490889	 0.113594
H	-0.4099522407	 2.1914399083	 0.2134980042	 0.114372
H	-0.5731200039	-0.3488789455	-0.2855280454	 0.091383
H	 1.4223720248	-1.5846034721	-1.1108045948	 0.088728
H	 3.747797519	-0.6018663935	-0.4059320575	 0.106062
H	 3.0122599049	 0.9650324904	-0.7773403638	 0.095664
H	 3.0590582389	-0.6140994702	 1.8407130906	 0.089418
H	 3.5753771432	 1.7263232786	 2.2779921422	 0.086228
H	 2.0796106096	 2.2591434274	 1.4854450979	 0.090477
H	 1.7621917755	 2.0094677272	 3.7641637215	 0.289446
H	 0.3266767924	-0.8665477622	 2.6302037473	 0.288624
75.8334	110.9349	161.7461	218.7322	245.1611	257.9299	289.0085	306.6487	349.6036	387.5116	431.0497	507.5885	571.2131	667.8005	682.5751	756.2491	824.2008	900.7387	951.6215	961.4261	972.1752	1004.1833	1039.3979	1063.2223	1082.7325	1101.155	1116.8555	1144.4005	1161.0459	1202.0098	1226.2008	1240.0945	1247.1191	1263.3294	1293.9257	1323.4174	1360.4035	1387.6932	1412.8161	1453.1547	1470.0837	1498.6251	1506.4501	1509.1446	1525.8234	2977.4585	3026.0211	3030.2102	3051.5528	3058.3399	3082.0706	3109.4909	3112.1473	3127.8896	3183.7052	3783.3564	3831.6973
CC1C2CC(CO)C12O	C[C@H]1[C@H]2C[C@@H](CO)[C@@]12O	
InChI=1S/C7H12O2/c1-4-6-2-5(3-8)7(4,6)9/h4-6,8-9H,2-3H2,1H3	InChI=1S/C7H12O2/c1-4-6-2-5(3-8)7(4,6)9/h4-6,8-9H,2-3H2,1H3/t4-,5-,6+,7-/m0/s1
