21
gdb 120257	3.0519	0.97643	0.85565	2.9656	78.19	-0.2493	0.0768	0.3261	1413.0423	0.181122	-424.180333	-424.170812	-424.169868	-424.215112	35.134	
C	-0.1379664895	 1.5358184713	-0.3062232401	-0.411063
C	-0.0006685895	 0.0364783321	-0.0770577519	-0.028276
C	 1.0706795671	-0.6842557289	-0.9117696411	 0.022098
O	 2.3435272562	-0.1544099397	-0.5170980916	-0.249127
C	 1.7545468466	-1.1858749772	 0.2865694314	 0.008863
C	 0.73480437	-0.5250932961	 1.2247993859	-0.047646
C	 1.2829553839	 0.4096165652	 2.2981876723	-0.18362
C	 0.2183109004	 0.9274935053	 3.2583383535	-0.078985
O	 0.8651746298	 1.7430861935	 4.2234715377	-0.419291
H	 0.8373329097	 2.0268822725	-0.2651780056	 0.138562
H	-0.5709983549	 1.7317496935	-1.2937117779	 0.112767
H	-0.7916367125	 2.0027145305	 0.4370849343	 0.115252
H	-0.9713630171	-0.4579976788	-0.1854597276	 0.073764
H	 0.9985438608	-1.0987908834	-1.9112047451	 0.09899
H	 2.3438103067	-2.0826442043	 0.4443977459	 0.098647
H	 0.1032981429	-1.2948951099	 1.6841063609	 0.071522
H	 2.0348078164	-0.1275130671	 2.8907362622	 0.103748
H	 1.7998525229	 1.2575276693	 1.8398020023	 0.120937
H	-0.5486428101	 1.4956649739	 2.7086666311	 0.088352
H	-0.2928407748	 0.0745698285	 3.7364503214	 0.079935
H	 0.1973309651	 2.0881488699	 4.822952902	 0.28457
75.1035	82.7047	114.4344	194.0019	213.8938	242.6548	265.2013	276.5086	371.7652	411.7012	579.3004	601.7169	710.1987	746.6167	805.9695	852.1277	862.547	876.2589	926.6662	989.3246	1015.0309	1030.2613	1039.9341	1056.2616	1074.1965	1080.2974	1142.3585	1165.0187	1202.3375	1225.9028	1237.6401	1240.5009	1250.5177	1285.1672	1304.8519	1321.0902	1361.3648	1377.7916	1395.7148	1412.1949	1460.3858	1489.6246	1492.2507	1507.4508	1526.7974	2955.5688	2988.9139	3032.6171	3033.8626	3035.3547	3058.3372	3094.6765	3097.5916	3125.4655	3170.3424	3186.1636	3830.7226
CC1C2OC2C1CCO	C[C@H]1[C@H]2O[C@H]2[C@H]1CCO	
InChI=1S/C7H12O2/c1-4-5(2-3-8)7-6(4)9-7/h4-8H,2-3H2,1H3	InChI=1S/C7H12O2/c1-4-5(2-3-8)7-6(4)9-7/h4-8H,2-3H2,1H3/t4-,5+,6-,7+/m1/s1
