22
gdb 99165	4.91047	0.69392	0.68509	3.3301	85.48	-0.2413	0.0351	0.2764	1779.1095	0.194062	-404.382082	-404.372054	-404.37111	-404.418716	36.113	
C	-0.2190389472	 1.6669502368	 0.1515944211	-0.366557
C	 0.1513623583	 0.191334643	-0.0001311306	-0.301589
C	 0.7771692035	-0.3789575119	 1.2729324082	 0.420077
O	 1.4235304095	 0.3061949249	 2.0460690136	-0.376169
N	 0.5762036457	-1.7200551834	 1.458098847	-0.338106
C	 1.1321327334	-2.4676126672	 2.5557460548	 0.085315
C	 0.1949071535	-3.3410163648	 3.4347376842	-0.237813
C	 1.3414351354	-4.3849771255	 3.525180819	-0.209969
C	 1.9774010424	-3.7386515886	 2.2641300151	-0.237562
H	 0.6426354928	 2.2319607591	 0.5123518056	 0.145585
H	-0.5467775667	 2.0865494837	-0.8035989857	 0.106732
H	-1.0274220317	 1.7978064468	 0.8772893266	 0.121072
H	-0.7187482442	-0.4059522235	-0.2980912868	 0.095762
H	 0.8938000474	 0.0736348557	-0.800971128	 0.127964
H	 0.0272788371	-2.2193193511	 0.7761270263	 0.235421
H	 1.6887716991	-1.750491431	 3.1606085979	 0.12456
H	-0.1920883878	-2.9029650775	 4.3575274016	 0.105916
H	-0.6475297825	-3.7249050074	 2.8486907492	 0.091761
H	 1.9593733007	-4.2311092029	 4.4137501565	 0.11024
H	 1.069151325	-5.4404370355	 3.4692825392	 0.100096
H	 1.6370166075	-4.2346761377	 1.3483519646	 0.091647
H	 3.0633678789	-3.6293907621	 2.2194005905	 0.105617
32.6113	48.2984	81.73	109.4778	195.0806	208.0191	289.9538	319.0957	383.5427	452.7007	479.2229	585.7559	655.1353	691.2606	780.4875	787.0417	811.3444	898.4094	916.2843	925.6393	945.6378	981.7302	1017.4211	1040.7333	1077.5106	1097.0094	1130.6668	1178.5482	1196.4336	1219.3202	1248.9518	1250.42	1260.0281	1277.6136	1287.0739	1298.9167	1357.5065	1389.9956	1407.1047	1465.3387	1476.158	1487.2947	1492.5969	1505.254	1509.9102	1536.377	1776.3326	3021.6546	3043.1111	3047.4355	3048.0245	3058.2777	3067.3999	3099.9649	3107.0269	3114.0141	3118.1662	3129.0163	3139.0322	3627.4615
CCC(=O)NC1CCC1	CCC(=O)NC1CCC1	
InChI=1S/C7H13NO/c1-2-7(9)8-6-4-3-5-6/h6H,2-5H2,1H3,(H,8,9)	InChI=1S/C7H13NO/c1-2-7(9)8-6-4-3-5-6/h6H,2-5H2,1H3,(H,8,9)
