14
gdb 48832	2.73081	1.63332	1.15062	4.8062	62.62	-0.2532	-0.0571	0.196	1011.3367	0.100617	-473.841975	-473.834269	-473.833325	-473.874636	27.79	
O	-0.9756489246	 1.2799976556	-0.2208530053	-0.250166
C	 0.1152681231	 0.9288427168	 0.1472582355	 0.073438
C	 1.3477601576	 1.7533072277	-0.0558368489	 0.191751
O	 1.1891686188	 3.1868736424	-0.0628071842	-0.26213
C	 1.6173371393	 2.5742493556	-1.2593754784	-0.016983
C	 3.1251728764	 2.6286809948	-1.4641844528	-0.193103
N	 3.6360068619	 1.9189986211	-0.3013537197	-0.337779
C	 2.6972555483	 1.3315686867	 0.5028170367	 0.388614
O	 2.894485106	 0.6054084469	 1.4514786122	-0.371377
H	 0.2931864733	-0.0373622488	 0.6590751441	 0.114915
H	 0.9281926143	 2.615769906	-2.0969801519	 0.135033
H	 3.4035591289	 2.1314911526	-2.4019928551	 0.126451
H	 3.4794045545	 3.6655277567	-1.5017809486	 0.138082
H	 4.6159901722	 1.8561059659	-0.0764585737	 0.263254
80.8862	130.6642	171.4697	220.1515	283.9818	354.258	434.4709	491.3306	554.9039	636.0426	728.1545	749.5228	788.9881	866.8214	885.501	952.2141	1021.2151	1050.0996	1053.862	1107.4045	1141.6295	1222.0742	1275.2994	1298.9399	1345.4389	1420.7162	1423.4331	1449.6516	1511.6139	1824.5145	1831.0599	2948.0239	3023.3044	3063.8881	3177.4287	3646.8894
O=CC12OC1CNC2=O	O=C[C@]12O[C@H]1CNC2=O	
InChI=1S/C5H5NO3/c7-2-5-3(9-5)1-6-4(5)8/h2-3H,1H2,(H,6,8)	InChI=1S/C5H5NO3/c7-2-5-3(9-5)1-6-4(5)8/h2-3H,1H2,(H,6,8)/t3-,5-/m0/s1
