15
gdb 20452	6.18332	1.41195	1.25178	1.0836	67.53	-0.2304	0.0257	0.2561	951.6942	0.122234	-358.834437	-358.827787	-358.826843	-358.865769	24.963	
C	 1.0658931223	 0.9965051353	 0.0126733817	-0.233015
N	 0.2258599858	 0.1557517393	-0.8482421338	-0.315328
C	-0.3115756255	 0.6187685182	 0.4449454893	-0.119611
C	-0.5627399804	-0.4165769969	 1.4685939332	 0.390568
N	-1.3770736949	-0.1609380794	 2.4926164246	-0.308855
N	-1.3619101889	-1.2938254846	 3.2221132577	-0.182458
C	-0.5705483861	-2.2577034089	 2.6914085542	-0.01955
C	-0.0285796807	-1.72570331	 1.5431414005	-0.29107
H	 1.9186082015	 0.487742121	 0.4534353506	 0.120194
H	 1.2458538834	 2.0315439475	-0.2672443113	 0.112806
H	-0.1671448939	 0.7065052876	-1.6063133041	 0.234774
H	-1.0506191484	 1.4157644067	 0.4413396924	 0.091835
H	-1.9206220221	-1.3425520943	 4.056490586	 0.272936
H	-0.4638345359	-3.2242245147	 3.1583025524	 0.130556
H	 0.6341090537	-2.202470097	 0.8409132669	 0.116218
61.8152	171.584	187.2183	404.2212	446.8255	492.8748	647.6048	661.743	727.6264	775.8384	847.1294	861.8448	897.2836	911.0979	948.6578	969.8723	995.264	1062.4927	1085.3916	1113.4782	1115.7325	1173.9294	1201.6026	1237.6793	1286.5012	1303.3784	1374.8868	1426.5918	1484.4165	1505.6419	1513.0981	1581.5749	3105.2084	3145.2148	3193.9093	3258.7128	3286.0006	3510.5377	3680.1034
C1NC1C1=NNC=C1	C1N[C@H]1c1n[nH]cc1	
InChI=1S/C5H7N3/c1-2-7-8-4(1)5-3-6-5/h1-2,5-6H,3H2,(H,7,8)	InChI=1S/C5H7N3/c1-2-7-8-4(1)5-3-6-5/h1-2,5-6H,3H2,(H,7,8)/t5-/m1/s1
