16
gdb 30447	2.86993	1.46023	0.97402	3.1976	79.88	-0.2067	-0.0276	0.1791	1166.7317	0.124975	-434.112524	-434.104034	-434.10309	-434.145952	31.1	
C	 0.0251872918	 1.4626365928	-0.0557045789	-0.320279
N	-0.0110014777	 0.0129202728	-0.0033130793	-0.321854
C	 0.5319957773	-0.6610092596	-0.9233846587	 0.402207
O	 1.1698615135	 0.0104405676	-2.002569782	-0.268142
C	 1.7552864465	-0.6938430841	-2.9924777668	 0.499976
N	 2.3511550945	 0.1228718807	-3.8971684071	-0.557704
N	 1.8025848636	-1.9800244049	-3.0986315317	-0.370191
C	 1.1998100673	-2.676114225	-2.0713899457	-0.006828
C	 0.5846289961	-2.0966698091	-1.0172528417	-0.190562
H	 1.052419025	 1.8527169928	-0.0654250008	 0.116454
H	-0.4763009314	 1.8580745106	-0.950200273	 0.113183
H	-0.4836811774	 1.8635119105	 0.8240971173	 0.120471
H	 2.0782383823	 1.0907965265	-3.915820129	 0.272596
H	 2.6421913084	-0.3073778298	-4.7588372058	 0.278079
H	 1.248139775	-3.7567891073	-2.1632669086	 0.114867
H	 0.1170064153	-2.6630071744	-0.2245874882	 0.117727
66.0066	119.7456	165.4709	187.8766	244.8744	346.6189	379.5908	445.0798	468.3425	498.1025	573.5209	594.5216	712.3653	739.8821	768.7401	824.7175	899.5877	976.7553	996.1442	1031.6021	1062.7293	1108.9164	1109.3529	1160.3407	1207.2721	1310.4184	1413.8796	1433.4605	1443.1021	1486.2365	1500.0961	1586.1215	1633.9807	1678.248	1773.1002	2993.2071	3040.7059	3104.0131	3178.7422	3239.9251	3612.9851	3741.5235
CN=C1OC(N)=NC=C1	CN=c1oc(N)ncc1	
InChI=1S/C5H7N3O/c1-7-4-2-3-8-5(6)9-4/h2-3H,1H3,(H2,6,8)	InChI=1S/C5H7N3O/c1-7-4-2-3-8-5(6)9-4/h2-3H,1H3,(H2,6,8)
