16
gdb 46106	3.34737	1.10953	0.90547	4.2363	71.85	-0.2566	0.0386	0.2952	1258.2074	0.123886	-437.870267	-437.861902	-437.860957	-437.904138	30.467	
N	-0.3276526791	 1.1552879283	-0.1433936436	-0.571927
C	-0.1166806072	-0.073274357	 0.0069019892	 0.491883
O	 0.9013450981	-0.6539473697	 0.7109624429	-0.249819
C	 0.8797475702	-2.0637606206	 0.4836225599	-0.126472
C	-0.542469044	-2.3117560416	-0.0440176122	 0.087368
C	-1.5206634475	-2.7852246824	 1.0455644957	-0.375862
C	-2.8836705762	-2.947858183	 0.561175868	 0.29997
C	-4.0010697939	-3.0934864121	 0.1460567278	-0.420049
O	-0.9164141244	-1.0227535581	-0.5368654775	-0.223695
H	 0.4072569195	 1.6939517801	 0.3085298527	 0.232526
H	 1.6465994176	-2.3298359565	-0.252133396	 0.124519
H	 1.0898418524	-2.5752061733	 1.4259643147	 0.128661
H	-0.5625232689	-3.0045056001	-0.8880194843	 0.116153
H	-1.1490950942	-3.7406114701	 1.439662067	 0.13582
H	-1.4931800603	-2.069823837	 1.8776107129	 0.147954
H	-4.992643902	-3.2088012269	-0.2161123574	 0.202973
56.2761	99.5362	118.3056	158.1195	312.0694	340.6648	382.5103	471.7723	527.9382	629.5622	653.1646	709.8595	717.1399	773.9299	804.5529	847.379	898.1183	942.4801	969.9581	1011.9731	1030.7425	1085.6368	1104.1846	1131.6345	1224.1196	1237.991	1266.237	1300.5541	1362.8824	1391.5181	1420.5708	1462.3009	1521.3728	1804.002	2246.8673	3018.0683	3043.2146	3054.5744	3095.5566	3107.2359	3506.239	3538.7526
N=C1OCC(CC#C)O1	[NH][C]1OC[C@@H](CC#C)O1	
InChI=1S/C6H7NO2/c1-2-3-5-4-8-6(7)9-5/h1,5,7H,3-4H2	InChI=1S/C6H7NO2/c1-2-3-5-4-8-6(7)9-5/h1,5,7H,3-4H2/t5-/m1/s1
