15
gdb 68740	2.44061	1.71818	1.35695	4.7486	71.18	-0.2486	0.0052	0.2538	968.5686	0.112355	-416.746459	-416.738698	-416.737754	-416.778754	29.306	
O	-0.0312974486	 1.4524493382	-0.109900528	-0.442532
C	-0.033827723	 0.0816628452	-0.0873770618	 0.340605
C	-0.2571874241	-0.7592344784	 1.1344068462	-0.400685
C	-1.1927715863	-0.9630758043	-0.0401797158	 0.143534
C	-2.6038634468	-0.7964594762	 0.0207045569	 0.224738
N	-3.7506830108	-0.6398868522	 0.0585341998	-0.350094
N	-0.5327830985	-1.8229563552	-1.0476672151	-0.15008
C	-0.4426509833	-1.0012846288	-2.2715231307	-0.244497
C	 0.5452354277	-0.7493914203	-1.1954530343	-0.090936
H	 0.1633207718	 1.7897833099	 0.7700821565	 0.301572
H	 0.4191998323	-1.566983577	 1.4021325209	 0.137453
H	-0.7079524423	-0.2367067296	 1.9742992587	 0.139087
H	-0.10327608	-1.5691740109	-3.1318377116	 0.134429
H	-1.2218123531	-0.2715752303	-2.472652821	 0.145364
H	 1.591392255	-1.0221684603	-1.2880265906	 0.112042
106.8751	137.4252	150.6201	252.1277	318.3418	394.2481	451.8463	522.1837	547.1127	608.2061	616.5647	695.1275	770.7613	804.6008	828.5627	847.4406	972.0536	978.1512	1022.9556	1053.7995	1088.4749	1116.2355	1123.9767	1147.619	1182.9049	1218.1371	1283.486	1314.9835	1368.2257	1419.5622	1484.1459	1497.4435	2341.0945	3109.9216	3124.5311	3172.2897	3201.9222	3218.9676	3825.3606
OC12CC1(C#N)N1CC21	O[C@@]12C[C@]1(C#N)N1C[C@@H]21	
InChI=1S/C6H6N2O/c7-3-5-2-6(5,9)4-1-8(4)5/h4,9H,1-2H2	InChI=1S/C6H6N2O/c7-3-5-2-6(5,9)4-1-8(4)5/h4,9H,1-2H2/t4-,5+,6+,8?/m0/s1
