19
gdb 82793	2.55826	2.01783	1.67088	1.7238	78.06	-0.2314	0.0004	0.2318	912.1708	0.16152	-385.867139	-385.860178	-385.859234	-385.898169	28.684	
C	-0.2139563392	 1.5701207187	-0.0701709792	-0.408463
C	 0.0336101934	 0.0735209566	-0.0061625759	 0.009431
C	 1.1341261588	-0.5486184797	-0.9083563088	 0.099699
O	 2.3503412664	 0.227616002	-0.9822600481	-0.317547
C	 2.9208798951	-0.4646232538	 0.1867928307	 0.073363
C	 2.9021182719	 0.3868927896	 1.4306890594	-0.078755
C	 1.6981557251	 0.3388540154	 2.0067866476	-0.073989
C	 0.7471697916	-0.5668483674	 1.2642140842	-0.107974
C	 1.6686834449	-1.363494177	 0.288657777	-0.106138
H	 0.7247297202	 2.1197732435	 0.0312195421	 0.134208
H	-0.6631781171	 1.8489537349	-1.0298148329	 0.112899
H	-0.8954486826	 1.8949302896	 0.7240073737	 0.107013
H	-0.8971028457	-0.478166103	-0.1855334047	 0.071307
H	 0.8465824507	-0.9475372394	-1.8846483051	 0.069601
H	 3.8864034843	-0.9055137068	-0.0760076962	 0.073899
H	 3.7369260533	 1.0004795158	 1.7480120233	 0.099087
H	 1.3984705335	 0.9162139115	 2.8751026411	 0.099639
H	 0.0732952826	-1.1285774091	 1.9142053014	 0.068494
H	 1.7515796927	-2.4462570114	 0.3508846104	 0.074226
155.2739	193.5161	205.9645	315.3075	399.6825	528.192	544.2164	637.9118	663.6462	758.2439	800.7703	806.7596	823.4364	852.297	887.4462	920.0741	928.769	957.1148	964.8383	974.4511	984.6085	1001.7536	1070.2231	1107.7517	1129.295	1131.7325	1169.508	1199.1371	1211.0576	1245.3714	1253.2247	1290.7413	1303.1228	1328.7853	1341.2062	1346.0546	1374.6632	1407.1178	1489.4535	1499.9909	1661.1194	3028.4994	3034.6983	3067.557	3072.2146	3083.8622	3090.5109	3124.8672	3137.6669	3182.7507	3212.5672
CC1C2OC3C=CC1C23	C[C@H]1[C@H]2O[C@H]3C=C[C@@H]1[C@@H]23	
InChI=1S/C8H10O/c1-4-5-2-3-6-7(5)8(4)9-6/h2-8H,1H3	InChI=1S/C8H10O/c1-4-5-2-3-6-7(5)8(4)9-6/h2-8H,1H3/t4-,5+,6+,7-,8-/m1/s1
