18
gdb 90234	2.71821	1.73564	1.56525	2.0601	70.06	-0.2217	0.0372	0.2589	933.8533	0.148135	-438.981296	-438.973808	-438.972864	-439.012943	30.238	
O	 0.3243590442	 1.2244826729	-0.3884290886	-0.435609
C	 0.1523372843	-0.1033757736	 0.0148598125	 0.073693
C	 0.2699855705	-0.38404314	 1.5744564727	-0.329164
C	-1.2553646952	-0.6969624288	 1.6053540732	 0.195469
C	-2.2705717192	 0.4678636676	 1.6698909658	-0.134334
O	-2.2830231461	 0.5618227926	 0.1901521755	-0.354803
C	-1.344957136	-0.531097041	 0.1187152484	 0.341192
C	-1.8326914535	-1.9963363339	 0.0206494431	-0.255111
N	-1.8345995181	-2.0585144354	 1.5283165756	-0.373049
H	-0.5520568834	 1.634225362	-0.3295182393	 0.292737
H	 0.7868893218	-0.7446891461	-0.6059658762	 0.081095
H	 0.9046120987	-1.236428378	 1.8311081577	 0.102614
H	 0.5904414346	 0.4860799011	 2.1527620376	 0.112164
H	-3.2575852272	 0.196499191	 2.0534569372	 0.124021
H	-1.9281171254	 1.4071783001	 2.1176091416	 0.109918
H	-2.8259677019	-2.1410246878	-0.4142752818	 0.121933
H	-1.1223684871	-2.6662614645	-0.4806195394	 0.104573
H	-1.273819381	-2.7982402881	 1.9347762443	 0.222659
91.2709	226.0959	261.5502	309.5914	340.6124	398.5121	424.1561	487.6084	565.409	616.3178	691.6251	722.2478	759.9092	815.0423	865.2733	880.6694	912.4562	916.1856	949.0153	950.3322	1041.7094	1109.9793	1118.8298	1138.9559	1147.5315	1178.9002	1183.1356	1219.3596	1235.1166	1254.926	1274.0624	1301.4067	1328.998	1338.5417	1373.4182	1434.9587	1451.6649	1492.2771	1497.1616	3016.5938	3035.6983	3045.5339	3058.8797	3083.7554	3106.9949	3120.3366	3543.4286	3707.9028
OC1CC23COC12CN3	O[C@H]1C[C@@]23CO[C@@]12CN3	
InChI=1S/C6H9NO2/c8-4-1-5-3-9-6(4,5)2-7-5/h4,7-8H,1-3H2	InChI=1S/C6H9NO2/c8-4-1-5-3-9-6(4,5)2-7-5/h4,7-8H,1-3H2/t4-,5+,6-/m0/s1
