17
gdb 37427	2.9152	2.17693	1.78647	3.0623	69.09	-0.2443	0.052	0.2963	820.3914	0.138612	-421.77079	-421.764912	-421.763968	-421.80073	25.253	
C	-0.021486917	 1.5440801873	 0.0313050951	-0.243556
C	 1.526633285	 1.536888814	 0.0234382403	 0.114081
O	 2.1184706493	 1.3848545571	 1.3336126135	-0.293121
C	 2.0960279219	-0.0617015897	 1.2450139387	 0.0778
C	 1.0225357972	-0.7225131996	 2.1201777453	 0.018031
O	-0.0392657037	 0.1506536354	 2.5045443949	-0.22605
C	-0.2516727356	-0.70062285	 1.3749050088	 0.022758
C	-0.0282356455	-0.026828899	 0.0205804632	-0.07901
C	 1.5231963282	 0.006667093	-0.1927938739	-0.110797
H	-0.4887907416	 2.027308513	 0.8893790674	 0.128229
H	-0.424995243	 1.9553582609	-0.8982871671	 0.098568
H	 2.0581436766	 2.2784156972	-0.5761178847	 0.077791
H	 3.0920044085	-0.4885526454	 1.3994253612	 0.075187
H	 1.2899488502	-1.4859647428	 2.8465951149	 0.09643
H	-1.0282761759	-1.4512349181	 1.5014096414	 0.095129
H	-0.6276733518	-0.4831304198	-0.7678440995	 0.073152
H	 1.9927409071	-0.5327428235	-1.0133040095	 0.075378
222.8506	251.8542	391.3945	484.4503	536.9185	652.7627	672.2388	708.6686	772.1116	812.1843	826.075	857.4958	888.4285	901.7686	920.1901	935.871	959.9318	987.9967	1006.4716	1025.438	1051.2765	1072.4371	1108.8187	1135.8149	1162.5342	1190.6936	1206.3625	1244.8409	1255.2313	1269.7256	1291.6362	1299.4626	1320.6022	1332.9717	1345.4035	1416.6287	1454.7927	3055.8882	3063.3543	3090.4972	3101.3357	3130.3414	3136.1215	3142.7466	3149.0199
C1C2OC3C4OC4C1C23	C1[C@H]2O[C@H]3[C@H]4O[C@H]4[C@@H]1[C@@H]23	
InChI=1S/C7H8O2/c1-2-4-3(1)8-6(4)7-5(2)9-7/h2-7H,1H2	InChI=1S/C7H8O2/c1-2-4-3(1)8-6(4)7-5(2)9-7/h2-7H,1H2/t2-,3+,4-,5-,6+,7-/m0/s1
