21
gdb 106731	2.47721	1.48867	1.11821	1.2254	83.24	-0.2245	0.0211	0.2456	1176.8434	0.181828	-387.090698	-387.081685	-387.08074	-387.124022	35.239	
C	 0.2271593409	 1.439352619	 0.2539179342	-0.378347
C	-0.1562902262	 0.0039732471	-0.1274500521	-0.269153
C	 0.5608096951	-0.5035792351	-1.3585730944	 0.313089
C	 1.9782036252	-1.0354548489	-1.2143848873	-0.391757
C	 0.8493660881	-1.9823000969	-1.5647564944	 0.314865
O	 0.4157258014	-2.932725826	-0.6379044648	-0.472243
C	 0.6539579383	-2.2344516142	-3.0259172828	-0.132858
C	 0.3186047752	-1.1169557963	-3.6719748722	-0.080555
C	 0.1879088308	 0.0647366381	-2.7329957738	-0.336644
H	 1.3009169484	 1.5195758292	 0.4543706149	 0.114295
H	-0.0122861306	 2.1444678719	-0.5494468965	 0.11475
H	-0.3086323565	 1.7650182389	 1.1511089094	 0.109252
H	 0.0521399239	-0.6743465489	 0.7068926275	 0.104587
H	-1.2396507274	-0.0519408273	-0.2978458463	 0.095954
H	 2.7261272756	-0.8116675679	-1.9690929928	 0.10564
H	 2.3536325881	-1.0891933035	-0.1957800923	 0.104969
H	 1.1554456992	-3.5143477332	-0.4353869661	 0.283838
H	 0.8011545301	-3.21314434	-3.4689157757	 0.091693
H	 0.1777886723	-1.0265132888	-4.7430957852	 0.093831
H	-0.8353466972	 0.4666298718	-2.7361938374	 0.105281
H	 0.8429024952	 0.8941891511	-3.0297501521	 0.109512
79.0898	141.9823	188.5155	227.0437	256.4573	286.8812	289.7778	367.7196	441.3924	467.0948	510.341	590.6905	687.7791	736.4456	763.9536	780.7606	787.9456	904.9071	912.9759	943.782	952.6683	958.2562	982.6302	1002.3055	1028.4252	1055.8425	1090.3334	1111.6195	1146.1783	1189.8104	1217.4463	1252.1055	1269.9081	1321.8539	1331.8914	1355.8818	1386.16	1399.5897	1409.1173	1465.9021	1477.9711	1489.8619	1497.7571	1507.9223	1670.1042	3005.9472	3020.3183	3030.9289	3039.6526	3066.3181	3099.9414	3102.3358	3109.4781	3183.85	3200.21	3208.9426	3808.1761
CCC12CC1(O)C=CC2	CC[C@@]12C[C@]1(O)C=CC2	
InChI=1S/C8H12O/c1-2-7-4-3-5-8(7,9)6-7/h3,5,9H,2,4,6H2,1H3	InChI=1S/C8H12O/c1-2-7-4-3-5-8(7,9)6-7/h3,5,9H,2,4,6H2,1H3/t7-,8-/m1/s1
