20
gdb 52698	3.16568	0.7579	0.6668	1.2233	87.07	-0.2434	0.0311	0.2745	1771.9424	0.167376	-403.142359	-403.131141	-403.130196	-403.180846	38.213	
C	 0.0799981614	 1.4509782594	-0.0133181385	-0.499357
C	 0.0441516912	-0.0040389144	-0.0228552899	 0.095552
C	 0.0241100572	-1.2073283463	-0.0345759284	 0.073183
C	-0.03780786	-2.6644370342	-0.0143221299	-0.056452
C	-1.4695907325	-3.1968780321	-0.1218683357	-0.399067
O	 0.7511854296	-3.1454465513	-1.1348342211	-0.250437
C	 1.3379427442	-4.3533193974	-1.0077596531	 0.405343
C	 2.133516966	-4.6642411703	-2.2506489583	-0.460348
N	 1.1947521189	-5.0642340384	 0.0356660756	-0.52266
H	 0.6037092396	 1.8358848873	-0.8952862799	 0.151539
H	-0.9300804245	 1.8751576495	-0.0174856237	 0.148594
H	 0.5986679158	 1.8327892985	 0.8729132769	 0.148815
H	 0.4215805498	-3.053694116	 0.899539274	 0.13661
H	-2.0721375303	-2.8083441748	 0.7036931533	 0.124824
H	-1.9222891326	-2.8772557738	-1.0639707193	 0.124851
H	-1.4588916478	-4.2873214848	-0.0689714613	 0.139725
H	 2.8934905742	-3.8939281281	-2.4120438554	 0.148575
H	 2.6186245972	-5.638462175	-2.1721166525	 0.124588
H	 1.4778658863	-4.6589295198	-3.126601922	 0.147049
H	 1.7218979163	-5.9298986777	-0.0451879608	 0.219074
20.637	55.0252	69.583	107.0471	121.9006	144.5173	222.2894	252.8111	290.5121	329.782	374.3023	398.9634	528.2926	542.1404	579.8147	594.1736	759.851	841.2073	858.1105	951.1038	998.4201	1042.1237	1051.7882	1054.0977	1067.3934	1080.8022	1101.0365	1114.1091	1196.1572	1332.9265	1356.0731	1387.3331	1395.6687	1414.2829	1422.2218	1470.9732	1476.9343	1479.1642	1481.4748	1486.4637	1496.7623	1721.1935	2376.8002	3027.8744	3049.5987	3051.1645	3066.4427	3088.7324	3089.7968	3114.2834	3127.7425	3143.0144	3143.4854	3521.2203
CC#CC(C)OC(C)=N	CC#C[C@@H](C)O[C](C)[NH]	
InChI=1S/C7H11NO/c1-4-5-6(2)9-7(3)8/h6,8H,1-3H3	InChI=1S/C7H11NO/c1-4-5-6(2)9-7(3)8/h6,8H,1-3H3/t6-/m1/s1
