20
gdb 102193	2.07776	1.33249	0.89799	2.2103	81.12	-0.2466	0.0512	0.2978	1322.2697	0.169048	-403.076278	-403.066534	-403.06559	-403.111277	36.084	
O	-0.215632656	 1.5116487764	 0.1714391351	-0.422781
C	-0.0961436047	 0.1032809082	 0.1581082595	-0.063947
C	-1.4705105603	-0.5757818481	 0.0696817431	 0.002403
C	-2.3279214618	-0.2119583818	 1.3028299998	-0.346493
C	-3.5940583673	-0.9266981238	 1.4034843076	 0.300848
C	-4.6304299431	-1.5271395134	 1.5109383524	-0.444548
N	-2.1011895485	-0.0773492885	-1.1540865559	-0.077833
C	-1.796119136	-0.7937764066	-2.3933614073	-0.231169
C	-3.1458254246	-0.8844823371	-1.7759351528	-0.216187
H	-0.8424676913	 1.718899726	-0.5351447481	 0.288947
H	 0.5227853642	-0.2398591382	-0.6869528469	 0.086654
H	 0.4148336584	-0.1880233462	 1.0819638231	 0.104437
H	-1.3294104311	-1.6706331876	 0.0431478053	 0.066863
H	-1.7327564147	-0.417215896	 2.2014387905	 0.130215
H	-2.5004093399	 0.8689818891	 1.2896618302	 0.145268
H	-5.5514942415	-2.046364209	 1.6071898528	 0.19376
H	-1.6256481281	-0.173851285	-3.2684583426	 0.119405
H	-1.1583619212	-1.6736939389	-2.3273110801	 0.114647
H	-3.4146046744	-1.8192947793	-1.2928996791	 0.128547
H	-3.9823405683	-0.3299265403	-2.1905151264	 0.120964
51.735	110.4221	115.9638	139.542	217.2759	243.4127	324.8915	333.8422	350.6933	423.6661	503.6446	550.089	612.6545	630.686	637.0367	748.8084	823.4605	883.186	914.8374	918.8879	966.7344	997.0099	1026.8487	1050.1612	1104.7143	1110.5968	1116.1236	1125.3112	1171.2456	1173.6851	1237.5966	1242.0495	1281.4738	1315.0934	1352.8672	1370.6748	1392.782	1438.9847	1459.8572	1493.8147	1505.552	1523.1299	2235.0953	2945.8486	2973.5547	3033.1047	3070.2259	3084.7404	3099.0481	3119.891	3185.5386	3207.805	3505.6029	3751.8229
OCC(CC#C)N1CC1	OC[C@@H](CC#C)N1CC1	
InChI=1S/C7H11NO/c1-2-3-7(6-9)8-4-5-8/h1,7,9H,3-6H2	InChI=1S/C7H11NO/c1-2-3-7(6-9)8-4-5-8/h1,7,9H,3-6H2/t7-/m1/s1
