21
gdb 99703	2.2364	0.95483	0.69802	1.7934	87.99	-0.2407	0.0584	0.2991	1656.4615	0.180631	-387.04932	-387.038649	-387.037705	-387.086731	37.634	
C	 0.1450358799	 1.3894504297	 0.0407093926	-0.498651
C	 0.0624900224	-0.0641388955	 0.0108999996	 0.087075
C	 0.0071115969	-1.2673362873	-0.0047275922	 0.064886
C	-0.1099764259	-2.7245429758	-0.0512508175	-0.223675
C	-1.603724061	-3.1326147862	-0.0801015445	-0.068495
O	-1.7925501136	-4.5302899591	 0.0144723316	-0.420494
C	 0.6507572685	-3.305945942	-1.2393579601	 0.024696
C	 2.1308671238	-3.5522097095	-1.1507660249	-0.272274
C	 1.1825912144	-4.7241960707	-1.1940522663	-0.292073
H	 0.7420767098	 1.7721004711	-0.7946017805	 0.146751
H	-0.848360272	 1.8468394445	-0.026666476	 0.146971
H	 0.6091259185	 1.7433513033	 0.9680366664	 0.147376
H	 0.3178235066	-3.1513678046	 0.867160844	 0.100464
H	-2.1146158436	-2.692827228	 0.780823797	 0.115948
H	-2.0690464373	-2.7164446082	-0.9875487741	 0.091524
H	-1.3550911273	-4.9312826662	-0.7433017607	 0.289185
H	 0.2833453548	-2.9569657179	-2.2014337363	 0.089992
H	 2.7389591357	-3.3488904572	-2.0248198488	 0.114104
H	 2.6216496072	-3.3334189753	-0.2081515436	 0.118582
H	 1.0383430203	-5.2902843569	-0.2800751644	 0.125612
H	 1.1441953518	-5.3210046584	-2.0992554614	 0.112497
21.8541	71.0265	91.7976	108.7763	140.8799	206.4207	261.0847	283.6521	326.5623	350.0548	393.1692	457.5041	478.2673	532.7321	758.6942	805.8436	819.8231	844.4484	936.6137	940.6089	985.5909	1050.5077	1053.0469	1055.6939	1063.2397	1077.776	1084.989	1141.2239	1142.9101	1166.5725	1200.8137	1224.4307	1238.0316	1288.7901	1307.0214	1382.7645	1407.9814	1414.8405	1425.203	1471.4702	1479.0581	1479.1743	1502.8385	1506.5501	2368.3921	2981.7548	3008.8832	3025.8675	3085.9626	3086.154	3092.359	3129.518	3134.3427	3138.8752	3209.3817	3224.3758	3821.7599
CC#CC(CO)C1CC1	CC#C[C@@H](CO)C1CC1	
InChI=1S/C8H12O/c1-2-3-8(6-9)7-4-5-7/h7-9H,4-6H2,1H3	InChI=1S/C8H12O/c1-2-3-8(6-9)7-4-5-7/h7-9H,4-6H2,1H3/t8-/m0/s1
