16
gdb 13444	3.9121	1.22106	1.10344	4.7096	61.64	-0.2383	-0.0133	0.225	1078.1703	0.128195	-420.852638	-420.844091	-420.843147	-420.886474	30.377	
O	-0.2775898478	 1.3079270103	-0.2608301335	-0.426441
C	-0.1323448779	-0.0705492441	-0.1026903746	 0.084922
C	-0.3412440781	-0.6320176333	 1.2826106564	 0.011273
O	-0.7349346137	 0.3050541763	 2.2555622785	-0.421196
C	-1.3573334719	-0.923628335	 0.2017037308	-0.106492
C	-2.7455375205	-0.309849507	 0.2353745442	-0.29728
C	-3.2385024278	 0.0001270298	-1.1647336296	 0.159292
O	-4.2755098607	-0.3998174974	-1.6288884283	-0.244365
H	-0.4744640505	 1.6602518125	 0.6187017678	 0.285606
H	 0.6430206299	-0.4775095154	-0.7445231673	 0.105301
H	 0.272983691	-1.4485635385	 1.6548002728	 0.100716
H	 0.0520392036	 0.5745651117	 2.7417503629	 0.301224
H	-1.3238419424	-1.9381612377	-0.1862770361	 0.102889
H	-3.4638031514	-0.9720641132	 0.7266044125	 0.121465
H	-2.7193139749	 0.6313584815	 0.7952580406	 0.12889
H	-2.5485128168	 0.6450277897	-1.7516175369	 0.094196
55.9091	70.7386	139.8121	201.7281	259.6054	285.3364	297.4187	477.1108	492.9906	545.7772	596.0067	658.5561	747.2502	785.382	832.4289	906.43	991.7654	1036.1681	1064.8559	1082.9501	1122.5529	1134.0002	1154.3446	1216.3204	1234.585	1270.3521	1285.6013	1332.6978	1369.3141	1409.1161	1420.1482	1460.1602	1469.8956	1832.4244	2901.2232	3053.9076	3106.383	3126.3094	3143.9186	3158.6631	3733.5268	3807.473
OC1C(O)C1CC=O	O[C@H]1[C@@H](O)[C@H]1CC=O	
InChI=1S/C5H8O3/c6-2-1-3-4(7)5(3)8/h2-5,7-8H,1H2	InChI=1S/C5H8O3/c6-2-1-3-4(7)5(3)8/h2-5,7-8H,1H2/t3-,4+,5-
