20
gdb 59968	3.06471	0.9052	0.74541	6.5709	71.99	-0.2479	0.0268	0.2747	1526.4238	0.170454	-477.464665	-477.45488	-477.453936	-477.499905	36.125	
C	 0.010514573	 1.6437173072	-0.0433244677	-0.39882
C	 0.0576861449	 0.116667161	 0.0685503923	 0.023023
N	 0.715024417	-0.3586843793	 1.3117586968	-0.520748
H	 1.7046161009	-0.129794822	 1.2998679986	 0.241828
H	 0.3175129443	 0.1269247177	 2.113364659	 0.238386
H	 0.0044203679	-2.0517715935	 1.2801456164	 0.302737
C	-1.3401724367	-0.512005301	-0.0145127778	-0.198268
C	-1.311633936	-2.0434132208	-0.1486204124	-0.017022
O	-0.65834249	-2.6895955582	 0.9308940944	-0.46743
C	-2.750490796	-2.5770169345	-0.2396899361	 0.404096
O	-3.5098252044	-2.2602141794	-1.1165475224	-0.348612
O	-3.0803361715	-3.4072321485	 0.7572286665	-0.365248
H	 1.0152953707	 2.0729802406	 0.0316641599	 0.112466
H	-0.4213218169	 1.9583585872	-0.9986000709	 0.129454
H	-0.6017119384	 2.0736763631	 0.7584319477	 0.118154
H	 0.6597490408	-0.2786583087	-0.7602681545	 0.096827
H	-1.9134146818	-0.2360994098	 0.8818950587	 0.100096
H	-1.8846696199	-0.114950156	-0.8754571889	 0.134867
H	-0.8236748234	-2.3012598465	-1.1020633629	 0.099207
H	-2.2772300045	-3.4775518787	 1.3107751432	 0.315008
60.3724	64.8093	141.0373	154.4636	240.4136	271.4234	296.6437	325.8546	371.2579	416.0314	458.7076	477.6176	544.4644	636.3948	727.6479	767.6243	799.9516	837.7115	871.0013	914.3187	930.7728	956.2658	992.5643	1038.4936	1079.8247	1141.509	1167.7254	1184.5561	1222.9009	1278.544	1299.1208	1329.3212	1361.5755	1383.5227	1405.1321	1412.5193	1423.5932	1472.9288	1489.8122	1492.2135	1498.7736	1649.4192	1869.5147	2980.4403	3014.2805	3024.6894	3031.0627	3094.6959	3101.9698	3108.9875	3387.388	3476.9159	3560.0281	3581.8196
CC([NH3+])CC(O)C([O-])=O	C[C@@H](N)C[C@@H](O)C(=O)O	
InChI=1S/C5H11NO3/c1-3(6)2-4(7)5(8)9/h3-4,7H,2,6H2,1H3,(H,8,9)	InChI=1S/C5H11NO3/c1-3(6)2-4(7)5(8)9/h3-4,7H,2,6H2,1H3,(H,8,9)/t3-,4-/m1/s1
