21
gdb 87148	2.71586	1.23319	1.13128	1.4896	78.49	-0.2495	0.0691	0.3185	1222.7626	0.17907	-424.199535	-424.189484	-424.18854	-424.234081	37.857	
C	 0.1447537711	 1.2766233039	-0.3825879167	-0.427206
C	 0.3059882704	-0.1673246806	 0.0158670733	 0.035637
O	 1.6249605957	-0.6122640669	 0.3845428455	-0.301561
C	 0.5885301586	-0.6622890583	 1.3759047664	 0.33561
C	 0.7553821854	 0.2619447373	 2.5627680091	-0.488881
C	 0.1421525415	-2.0628508512	 1.7386788455	 0.330974
O	-1.1160329821	-2.1032471433	 2.3674534025	-0.466081
C	 0.4397936768	-3.2108707048	 0.827960299	-0.302557
C	 1.1735299463	-3.0831735968	 2.1495497464	-0.330048
H	 0.6746707649	 1.953796755	 0.2894023477	 0.125179
H	 0.5355987625	 1.4321951843	-1.3938129305	 0.129922
H	-0.9162229899	 1.5490368146	-0.3904064854	 0.125948
H	-0.2099165049	-0.8701186508	-0.6411153635	 0.089355
H	 1.1366989162	 1.2391213237	 2.2651627835	 0.130246
H	-0.202785986	 0.4059094986	 3.0726448247	 0.121865
H	 1.462670887	-0.1715192447	 3.278575192	 0.125274
H	-0.9904611484	-1.8943151815	 3.2990731019	 0.283447
H	-0.3276898588	-3.9719498133	 0.7525012723	 0.118046
H	 1.0030671972	-3.0092194236	-0.0748804423	 0.131469
H	 2.2187598726	-2.795418446	 2.1197515506	 0.124403
H	 0.9017204337	-3.7701932455	 2.943694818	 0.108956
62.5291	145.3526	151.2541	161.453	204.8719	270.0312	282.5617	291.0328	316.7106	363.2241	438.8638	479.9528	509.877	545.5625	625.458	781.0985	783.4213	819.4268	897.9252	918.4441	937.4083	946.4234	989.4008	999.7759	1050.6583	1053.8258	1085.7165	1106.4285	1134.7372	1151.2565	1196.2497	1208.1991	1260.1545	1330.4118	1345.7672	1368.0472	1401.8885	1412.6945	1440.1665	1461.0755	1477.8149	1485.4723	1491.2893	1499.3454	1521.1319	3037.8204	3040.8548	3091.3106	3098.5295	3099.4007	3131.3669	3135.2319	3146.6399	3146.9471	3220.8666	3243.7474	3805.7016
CC1OC1(C)C1(O)CC1	C[C@H]1O[C@]1(C)C1(O)CC1	
InChI=1S/C7H12O2/c1-5-6(2,9-5)7(8)3-4-7/h5,8H,3-4H2,1-2H3	InChI=1S/C7H12O2/c1-5-6(2,9-5)7(8)3-4-7/h5,8H,3-4H2,1-2H3/t5-,6+/m1/s1
