19
gdb 41731	3.69148	1.42338	1.21681	2.2943	73.71	-0.2135	0.0889	0.3024	1055.516	0.161956	-423.010712	-423.003531	-423.002586	-423.042126	28.698	
C	 0.0748985184	 1.1625400393	 0.2581263279	-0.084176
C	 1.2979674257	 1.9552663895	-0.2514462729	-0.339906
C	 2.1374032474	 0.8788922599	-0.9035307729	 0.282541
C	 3.3379002742	 1.1008400823	-1.7968333593	-0.339909
C	 3.9469047405	-0.3145134089	-1.896158121	-0.084174
O	 3.5496922431	-1.0301098999	-0.7216852706	-0.264057
C	 2.3799534014	-0.4479945993	-0.2076606835	 0.013222
C	 1.2001455245	-0.2922369779	-1.135276346	 0.013227
O	-0.0502952852	-0.0002649733	-0.5673739106	-0.264054
H	 0.2212412358	 0.8625495601	 1.3049719361	 0.102831
H	-0.863828732	 1.7199837186	 0.1956957926	 0.112006
H	 1.003961641	 2.6994254383	-1.0007005194	 0.109161
H	 1.8046078861	 2.4820399575	 0.5635891693	 0.10662
H	 3.0895052019	 1.5026750931	-2.7843992546	 0.106621
H	 4.0329007971	 1.7985984606	-1.3154796098	 0.10916
H	 3.5735818529	-0.8307866536	-2.7913605422	 0.102831
H	 5.0396999096	-0.3179557121	-1.9366299559	 0.112005
H	 2.2542428484	-0.6299499183	 0.8546134884	 0.103025
H	 1.1186340992	-0.8555025357	-2.0590863453	 0.103026
173.6288	186.3421	209.5949	261.1094	335.5573	364.8247	472.5519	637.4194	676.4695	718.9324	725.8558	866.8643	874.7585	900.4494	935.9354	958.9954	962.8382	973.3343	990.6332	1020.5622	1042.1768	1059.806	1116.8552	1138.9004	1162.0847	1202.7774	1205.5397	1223.1635	1232.6129	1259.3502	1264.4574	1283.4136	1310.4555	1342.7005	1388.1764	1394.9833	1424.9638	1493.1114	1499.8112	1526.7532	1527.3519	3004.8953	3004.9994	3033.8152	3036.781	3077.0895	3077.1011	3089.1577	3089.4107	3165.2139	3166.0086
C1CC23CCOC2C3O1	C1C[C@@]23CCO[C@@H]2[C@H]3O1	
InChI=1S/C7H10O2/c1-3-8-5-6-7(1,5)2-4-9-6/h5-6H,1-4H2	InChI=1S/C7H10O2/c1-3-8-5-6-7(1,5)2-4-9-6/h5-6H,1-4H2/t5-,6-,7+/m1/s1
