23
gdb 79850	2.67283	1.63794	1.18613	0.0792	89.85	-0.2752	0.0986	0.3737	1146.7173	0.207248	-351.132523	-351.124255	-351.123311	-351.164641	33.855	
C	-0.1464473743	 1.6112714687	 0.0051273331	-0.438947
C	 0.0107996359	 0.0963654193	 0.018792398	 0.035938
C	 1.2219750573	-0.5954018869	-0.6670097672	-0.108386
C	 2.1364995893	-0.1630800331	 0.5259449108	-0.00118
C	 3.2020538784	-1.2282418677	 0.7651931781	-0.254715
C	 2.3479258182	-2.4988243388	 0.5395929712	-0.279323
C	 0.9812703471	-1.8752145911	 0.2208061228	 0.380951
C	-0.133495822	-2.8615488692	-0.0633254895	-0.503188
C	 0.7827473568	-0.6244364221	 1.1591036496	-0.108479
H	 0.7791242053	 2.1449793142	 0.2352124433	 0.114878
H	-0.4888633785	 1.9526931973	-0.9785387403	 0.112732
H	-0.8996536803	 1.9255549929	 0.7367919646	 0.112738
H	-0.9549185433	-0.359101584	-0.2207601764	 0.056357
H	 1.4862056274	-0.5838653555	-1.7288333946	 0.053173
H	 2.4370007907	 0.8800698165	 0.6148438645	 0.058839
H	 4.0349099205	-1.1437609676	 0.0593690173	 0.093468
H	 3.6225476676	-1.1711211213	 1.7745938202	 0.093472
H	 2.710868611	-3.116581631	-0.2894558011	 0.091279
H	 2.2986302377	-3.1436836633	 1.4241293061	 0.091279
H	-0.2847738077	-3.5274158507	 0.7944868264	 0.114153
H	-1.091337784	-2.3825356799	-0.2814989577	 0.117576
H	 0.1228586992	-3.4939949454	-0.9214793972	 0.114202
H	 0.5352826176	-0.6466562714	 2.224787318	 0.053185
178.8798	188.8464	202.0009	236.7466	237.4975	302.8093	338.39	410.5632	503.9673	600.4461	686.1777	714.4417	727.3652	805.8318	808.3841	819.6848	879.4579	902.4472	929.154	963.5431	998.5969	1012.3832	1015.0442	1045.3357	1072.3214	1073.1136	1094.5189	1112.7516	1126.2648	1170.8921	1171.2939	1212.3325	1216.5849	1245.032	1251.6207	1258.3211	1272.3896	1289.7604	1332.8319	1361.2113	1406.3181	1412.6576	1429.8857	1486.5159	1493.1771	1495.4811	1496.6537	1502.2349	1509.6122	3025.6595	3029.0946	3032.8092	3045.0406	3050.3906	3059.7476	3064.0574	3067.4955	3080.1532	3083.9235	3086.0724	3107.1693	3110.8442	3126.9998
CC1C2C3CCC2(C)C13	C[C@H]1[C@H]2[C@@H]3CC[C@@]2(C)[C@H]13	
InChI=1S/C9H14/c1-5-7-6-3-4-9(7,2)8(5)6/h5-8H,3-4H2,1-2H3	InChI=1S/C9H14/c1-5-7-6-3-4-9(7,2)8(5)6/h5-8H,3-4H2,1-2H3/t5-,6-,7-,8+,9+
