21
gdb 40924	3.69171	1.27038	1.15387	1.5149	81.62	-0.2334	0.0703	0.3037	1151.7892	0.183572	-387.046974	-387.039004	-387.03806	-387.0801	31.154	
C	 0.1871872028	 1.4691216902	-0.3638380264	-0.076722
C	 1.6304671558	 1.4252539339	 0.1686448642	-0.356377
C	 1.2214178905	 0.0669318292	 0.7747903768	 0.463227
C	 1.9059448659	-1.2887506921	 0.4537274732	-0.304313
C	 1.9100680883	-1.6620614133	 1.9611493363	-0.010605
C	 3.1939557087	-1.2655199134	 2.7330105092	-0.220968
C	 2.602280578	 0.1526451453	 2.9963213271	-0.231286
C	 1.2801757715	-0.2568655349	 2.2864411405	-0.095001
O	-0.1174448323	 0.1945702578	 0.2360696663	-0.319791
H	-0.445940367	 2.2717170079	 0.0338161596	 0.100442
H	 0.0798048978	 1.4434136964	-1.4551183861	 0.100579
H	 2.413273078	 1.3782942471	-0.5912001285	 0.108077
H	 1.885578036	 2.1977184476	 0.8971995131	 0.110502
H	 1.2515561783	-1.9131847956	-0.1596323964	 0.114518
H	 2.8891515353	-1.2292293848	-0.0248218595	 0.091067
H	 1.4372307065	-2.6079129046	 2.2261049739	 0.065477
H	 3.3384171712	-1.8398394931	 3.6516600669	 0.100107
H	 4.1245087158	-1.3080404061	 2.1585643317	 0.092569
H	 2.4757674956	 0.3875466149	 4.0554112932	 0.102625
H	 3.1387709883	 0.9859711123	 2.5323400258	 0.096167
H	 0.343981335	-0.1100985347	 2.8263634993	 0.069707
56.3652	75.5634	183.6216	252.3111	340.8976	354.2809	433.1205	489.2004	691.4978	740.0147	775.8784	781.1881	824.7739	843.517	862.8823	896.7062	909.7136	930.7585	957.4377	972.922	984.3005	1028.0121	1039.0805	1068.1425	1126.4878	1133.4677	1152.645	1161.2764	1188.9007	1211.159	1217.8645	1227.8155	1238.3395	1252.6886	1261.0261	1274.118	1284.7555	1302.1263	1324.3639	1355.7835	1457.7336	1476.6367	1484.8351	1495.1026	1533.3999	3015.0832	3043.5534	3047.2048	3053.0215	3054.8773	3071.2202	3087.941	3098.733	3103.3502	3109.7179	3117.1548	3124.0299
C1CC2(CC3CCC23)O1	C1C[C@]2(C[C@H]3CC[C@@H]23)O1	
InChI=1S/C8H12O/c1-2-7-6(1)5-8(7)3-4-9-8/h6-7H,1-5H2	InChI=1S/C8H12O/c1-2-7-6(1)5-8(7)3-4-9-8/h6-7H,1-5H2/t6-,7-,8-/m1/s1
