18
gdb 85150	2.04939	1.72197	1.01035	1.557	75.83	-0.2491	-0.0024	0.2467	1175.4276	0.148057	-435.313423	-435.304362	-435.303418	-435.347425	33.543	
C	-0.4424822996	 1.3755950463	 0.2884943494	-0.410188
C	 0.0681561539	-0.0107887039	-0.0606947684	 0.063311
C	 1.0319959657	-0.1602199609	-1.2804061576	-0.347393
C	 2.0425799016	-0.7533650895	-0.3078210562	 0.391875
N	 3.1686568973	-1.2988556836	-0.4750729956	-0.551155
N	 1.1819648038	-0.5007904901	 0.780069489	-0.148954
C	 1.1440513302	-0.8290127717	 2.1274784722	 0.431957
N	 2.3687482725	-1.1990468159	 2.6529480711	-0.556204
O	 0.1091308255	-0.8094023628	 2.7619780655	-0.38068
H	 0.3754376952	 2.1036294531	 0.2945950931	 0.115595
H	-1.1858470716	 1.6982390763	-0.4475897808	 0.122719
H	-0.9121947131	 1.3682672725	 1.2750898377	 0.152505
H	-0.7545253964	-0.7323429378	-0.0774260364	 0.105153
H	 0.7116476636	-0.8406723092	-2.0702843869	 0.136527
H	 1.3460480021	 0.7883378218	-1.7217010828	 0.131653
H	 3.5543921482	-1.6762377097	 0.3903612286	 0.217372
H	 3.1920479668	-0.7539289644	 2.2753207556	 0.25882
H	 2.3559105641	-1.2789059106	 3.6591813327	 0.267087
83.9734	103.3278	109.5708	168.2986	241.8305	285.1989	401.4374	418.4786	434.8376	448.0828	522.6719	568.7465	596.6936	673.9759	732.4679	776.4894	838.3742	862.5315	912.1936	972.1804	1017.6629	1068.2715	1097.8297	1112.1176	1169.982	1188.3922	1194.2883	1235.5675	1253.2433	1339.956	1385.1553	1403.4166	1411.2031	1466.3624	1485.4462	1503.4565	1620.294	1782.5673	1799.668	3038.2044	3061.7382	3084.0687	3109.2305	3129.0903	3142.3461	3485.0294	3568.3766	3685.2015
CC1CC(=N)N1C(N)=O	C[C@H]1C[C]([NH])N1C(=O)N	
InChI=1S/C5H9N3O/c1-3-2-4(6)8(3)5(7)9/h3,6H,2H2,1H3,(H2,7,9)	InChI=1S/C5H9N3O/c1-3-2-4(6)8(3)5(7)9/h3,6H,2H2,1H3,(H2,7,9)/t3-/m0/s1
