18
gdb 49565	2.17022	1.7073	1.15127	3.983	76.74	-0.2265	-0.0194	0.207	1093.8752	0.147131	-401.887772	-401.879666	-401.878721	-401.921052	30.783	
O	-0.0290586577	-0.0426394534	 0.053412814	-0.267727
C	 0.0063467314	 1.155761691	-0.0913967718	 0.152938
C	 1.2722261305	 1.9709760732	-0.0175234859	-0.180234
C	 1.3391987558	 3.2500819897	-0.8794262473	-0.066009
N	 0.2165774056	 4.1194387897	-0.4454662687	-0.336089
C	 1.4884059778	 4.115143473	 0.3214705559	-0.157757
C	 1.4291183516	 2.90474156	 1.2284918563	 0.394334
C	 0.8120086226	 2.7819033953	 2.5881710819	-0.321539
C	 2.3066871446	 2.6283156787	 2.4104701651	-0.3357
H	-0.9136166639	 1.7493762017	-0.2681139435	 0.099496
H	 2.1383835499	 1.3171129424	-0.1409455515	 0.094953
H	 1.7710887205	 3.343062511	-1.8674791498	 0.103561
H	 0.2291798408	 4.9407988917	-1.0501537288	 0.232414
H	 2.0588436428	 5.0249698597	 0.4638080995	 0.099991
H	 0.4340435686	 3.6828953316	 3.0594960684	 0.118915
H	 0.236673544	 1.8880696295	 2.8058936403	 0.12907
H	 2.7354653157	 1.6361834377	 2.5077511537	 0.123848
H	 2.9504384995	 3.4290649077	 2.7612104324	 0.115534
45.9157	120.9597	191.7218	212.0602	259.6038	350.0644	445.3562	485.0587	520.236	606.8087	768.0686	771.1137	818.3114	835.7887	868.78	908.656	914.162	951.382	968.7095	994.7031	1032.7896	1058.1318	1064.3097	1081.077	1097.3296	1111.0476	1129.5263	1182.6911	1187.2919	1223.6182	1251.5122	1291.0131	1318.3287	1350.4241	1406.3328	1415.5568	1462.9648	1502.5805	1813.8066	2931.8726	3093.832	3124.2017	3131.875	3185.7635	3201.7456	3204.4184	3220.2186	3471.4092
O=CC1C2NC2C11CC1	O=C[C@H]1[C@H]2N[C@H]2C21CC2	
InChI=1S/C7H9NO/c9-3-4-5-6(8-5)7(4)1-2-7/h3-6,8H,1-2H2	InChI=1S/C7H9NO/c9-3-4-5-6(8-5)7(4)1-2-7/h3-6,8H,1-2H2/t4-,5+,6+/m0/s1
