18
gdb 69096	2.54128	1.60413	1.18368	5.1951	76.66	-0.2493	0.0216	0.2709	1072.4097	0.149516	-398.126754	-398.118564	-398.117619	-398.15919	31.496	
C	-0.0189588421	 1.5240543752	-0.0460220171	-0.469662
C	-0.0235587011	 0.0221125935	 0.0339186079	 0.276041
C	-1.2985476285	-0.7483793132	-0.2981021747	-0.229805
N	-0.9926692014	-2.1109194747	 0.147199925	-0.329273
C	-0.2217910638	-2.0016349476	 1.3882747716	-0.243653
C	 0.6570229456	-0.7842969152	 1.1079742997	 0.156184
N	 1.2360581267	-0.6714750414	-0.2453850914	-0.389259
C	 1.3999762417	-0.2050959878	 2.1948619918	 0.241591
N	 1.9687685437	 0.2580333813	 3.0888466286	-0.349059
H	 0.9301984074	 1.9233768371	 0.317003592	 0.151702
H	-0.1500616856	 1.8509714123	-1.083202776	 0.128483
H	-0.8312608617	 1.9512106247	 0.5507610106	 0.125039
H	-2.1397706692	-0.2731974654	 0.235876519	 0.098182
H	-1.5333680722	-0.7399141001	-1.3692197132	 0.114494
H	-1.8116665186	-2.697308463	 0.2400564549	 0.235034
H	-0.8238491723	-1.7954142631	 2.2892051375	 0.110113
H	 0.3538152219	-2.916461259	 1.566970146	 0.123939
H	 1.0564388095	-1.5450866436	-0.7402536623	 0.249909
128.908	150.2251	177.6012	236.4263	280.8878	321.0459	397.357	438.681	496.9027	561.5765	574.982	592.925	657.7931	713.6845	796.5456	900.8816	946.2021	987.5702	999.374	1040.2608	1061.9111	1092.0332	1097.9264	1129.0521	1142.4549	1199.1777	1233.0342	1259.6836	1277.2199	1352.8532	1362.852	1419.9749	1436.8867	1444.5547	1485.1243	1494.4085	1508.9601	1524.2168	2357.3653	2953.6435	2964.6527	3039.3901	3049.2405	3061.6619	3102.0011	3135.3037	3470.0896	3574.5265
CC12CNCC1(N2)C#N	C[C@]12CNC[C@]1(N2)C#N	
InChI=1S/C6H9N3/c1-5-3-8-4-6(5,2-7)9-5/h8-9H,3-4H2,1H3	InChI=1S/C6H9N3/c1-5-3-8-4-6(5,2-7)9-5/h8-9H,3-4H2,1H3/t5-,6+/m0/s1
