19
gdb 88140	2.59148	1.48137	1.11807	3.2386	76.67	-0.2147	-0.0232	0.1915	1138.8663	0.159896	-419.186326	-419.177785	-419.176841	-419.219576	32.167	
C	-0.124600808	 1.4545727398	-0.0981606541	-0.316071
N	 0.0265240702	 0.0102544873	 0.0350772822	-0.105492
C	 1.3536791438	-0.5354247909	-0.168269866	-0.287706
C	 0.7598100849	-0.4816499281	 1.2064964405	 0.214366
C	 1.3030153024	 0.370816377	 2.3535991554	-0.279701
N	 1.5759699655	-0.570378562	 3.4616303577	-0.298128
C	 0.5730811592	-1.6396072423	 3.3416528162	-0.290582
C	 0.24200691	-1.7530542019	 1.8487191433	 0.34372
O	-0.2904201602	-2.6720480365	 1.2832437286	-0.312857
H	 0.7616064264	 2.0344024368	 0.2057082159	 0.102898
H	-0.337223707	 1.6826407741	-1.1468840858	 0.132706
H	-0.9783316728	 1.7879614646	 0.4995087825	 0.129955
H	 1.393473791	-1.489753966	-0.6872591674	 0.13348
H	 2.1744003139	 0.1523610303	-0.3744426363	 0.107903
H	 2.2067572701	 0.9316095495	 2.1088904723	 0.114413
H	 0.5443754059	 1.0931704259	 2.6840263229	 0.117097
H	 2.4932029987	-0.9788607411	 3.3098922294	 0.225663
H	 0.9231973468	-2.586278702	 3.7579188416	 0.133463
H	-0.343306921	-1.3608110647	 3.8822690511	 0.134872
73.3621	151.9346	172.9918	202.1613	207.8069	297.9735	355.7925	425.863	486.8745	545.9837	562.8386	664.9779	703.088	761.577	827.1729	893.3289	928.0477	929.6264	975.3892	1022.0903	1041.1466	1075.6708	1096.2701	1120.2577	1143.7715	1158.4564	1187.8105	1211.6117	1244.2217	1288.172	1311.0986	1342.7475	1396.1238	1449.1518	1461.5989	1469.2951	1486.6995	1491.7346	1497.6512	1501.1087	1848.9586	2974.7322	3008.0726	3017.383	3074.0255	3078.009	3108.2314	3109.6018	3114.762	3178.3739	3510.8156
CN1CC11CNCC1=O	CN1C[C@]21CNCC2=O	
InChI=1S/C6H10N2O/c1-8-4-6(8)3-7-2-5(6)9/h7H,2-4H2,1H3	InChI=1S/C6H10N2O/c1-8-4-6(8)3-7-2-5(6)9/h7H,2-4H2,1H3/t6-,8?/m1/s1
