17
gdb 111673	2.29963	1.60547	1.24103	4.312	67.39	-0.2646	0.0011	0.2657	1048.7515	0.137273	-458.985874	-458.977936	-458.976992	-459.018956	29.661	
O	 0.0421698291	 1.3004987942	 0.4754881457	-0.420417
C	 0.0359306527	 0.0489590043	-0.190297368	-0.097741
C	-1.3324836074	-0.6028090375	-0.1432890721	-0.042726
C	-1.5926478204	-2.0814363973	-0.1433439566	-0.10565
C	-0.4444054734	-3.0114569739	 0.2193462717	-0.106985
O	 0.0269030755	-2.6027790041	 1.5150072874	-0.223744
C	-0.8190395515	-1.6989397538	 2.0992094753	 0.438281
O	-0.6660671252	-1.3226120043	 3.226134609	-0.349392
C	-1.8657664112	-1.2884122968	 1.1125016471	-0.214311
H	-0.1083032022	 1.1329373827	 1.4127338788	 0.295069
H	 0.2991316841	 0.2629659222	-1.2316614275	 0.114066
H	 0.8089492625	-0.6204968695	 0.2100506167	 0.112731
H	-2.0957803667	-0.0150743217	-0.6460828138	 0.111738
H	-2.3937781318	-2.4818389767	-0.7524703619	 0.109755
H	-0.7872120935	-4.0494303901	 0.2881965297	 0.127233
H	 0.4011383683	-2.969155903	-0.47350131	 0.12837
H	-2.8451048891	-1.0367620848	 1.4953657585	 0.123724
54.4267	120.2026	200.9203	207.2315	278.8788	365.8731	462.6752	475.7397	496.7033	655.2346	703.2722	776.8242	804.884	818.5177	864.7294	918.3528	975.9517	1000.433	1009.3124	1031.5724	1069.6225	1077.074	1112.4479	1119.524	1176.0622	1191.8197	1236.7545	1248.555	1324.251	1350.0059	1369.3434	1404.8983	1421.351	1449.2061	1507.4346	1520.3679	1871.6981	3018.0943	3045.9626	3073.6174	3089.68	3151.9062	3188.007	3215.5159	3801.0729
OCC1C2COC(=O)C12	OC[C@H]1[C@H]2COC(=O)[C@@H]12	
InChI=1S/C6H8O3/c7-1-3-4-2-9-6(8)5(3)4/h3-5,7H,1-2H2	InChI=1S/C6H8O3/c7-1-3-4-2-9-6(8)5(3)4/h3-5,7H,1-2H2/t3-,4+,5-/m0/s1
