16
gdb 93478	2.98444	1.39701	0.98904	1.3602	67.08	-0.2809	-0.0271	0.2538	1130.5137	0.124878	-475.075924	-475.068003	-475.067059	-475.108781	29.895	
O	 0.1340849307	 1.3626273358	 0.2706913766	-0.439776
C	 0.0314830798	-0.0092696887	 0.0235325526	 0.079997
C	-1.4242623716	-0.4752432338	-0.0023898202	-0.245519
C	-1.4450823959	-1.986620336	-0.2273591797	-0.352211
C	-0.5861519676	-2.4608816447	-1.3842741409	 0.416711
O	-0.7092364632	-3.5069234073	-1.9431891461	-0.2875
O	 0.4369554793	-1.6214480878	-1.8137893682	-0.233066
C	 0.6814195376	-0.3723810483	-1.2944378236	 0.385206
N	 1.430656743	 0.4538347734	-1.8810798579	-0.522184
H	 0.7848877394	 1.7002451516	-0.3651601982	 0.299996
H	 0.5590778527	-0.5844408739	 0.8083051719	 0.097072
H	-1.9102794519	-0.2157466561	 0.9411481875	 0.128051
H	-1.9560218574	 0.0531384869	-0.8011993347	 0.12487
H	-1.0627374054	-2.5066227939	 0.6614529639	 0.152009
H	-2.4495086077	-2.3778546332	-0.4015758979	 0.152648
H	 1.8012780082	 0.0896922661	-2.7583562251	 0.243697
63.2712	116.9994	212.5591	310.5087	353.4461	366.5356	424.0065	431.4237	479.5882	544.8183	586.8253	655.6324	710.2875	767.6504	856.5981	896.1328	906.7214	974.7642	1055.9573	1087.6423	1103.1607	1134.0447	1159.1357	1172.838	1249.967	1280.0315	1332.8339	1339.9359	1350.4723	1397.2113	1454.1608	1461.052	1502.6895	1760.7159	1882.6967	2924.146	3034.3533	3055.8008	3109.429	3116.5658	3502.7292	3689.6156
OC1CCC(=O)OC1=N	O[C@H]1CCC(=O)O[C]1[NH]	
InChI=1S/C5H7NO3/c6-5-3(7)1-2-4(8)9-5/h3,6-7H,1-2H2	InChI=1S/C5H7NO3/c6-5-3(7)1-2-4(8)9-5/h3,6-7H,1-2H2/t3-/m0/s1
