23
gdb 109378	2.39507	1.28389	0.95165	1.3438	88.26	-0.2315	0.0272	0.2587	1344.2816	0.20666	-388.314929	-388.305394	-388.30445	-388.349159	36.571	
C	 0.1224113823	 1.4913197401	 0.2874169623	-0.376343
C	 0.0173352171	 0.0140098846	-0.1345350396	-0.297118
C	-1.3917930065	-0.5303595298	-0.1076700941	 0.328177
C	-2.0119039336	-0.9287347101	-1.222190314	-0.159779
C	-3.4161583617	-1.4676890043	-1.2854759762	-0.240932
C	-4.1873932559	-1.2259835598	 0.019292061	-0.216518
C	-3.2993318042	-1.5162210867	 1.2306004746	-0.198534
C	-2.0815075748	-0.5944200678	 1.2509780584	 0.022414
O	-1.2104892576	-1.0917261506	 2.2711848867	-0.436714
H	 1.1592805156	 1.8378743757	 0.2379326275	 0.115521
H	-0.4813553827	 2.1280294679	-0.3668590872	 0.122577
H	-0.2277062161	 1.6549497172	 1.3131712785	 0.105109
H	 0.4247836111	-0.0989349916	-1.1446228922	 0.09978
H	 0.6512776128	-0.593189276	 0.5244483854	 0.106483
H	-1.4741312488	-0.8735949045	-2.1681087938	 0.07307
H	-3.947848677	-1.0179194871	-2.1339289491	 0.099017
H	-3.3787768366	-2.5455847809	-1.5058025204	 0.10755
H	-4.5207465031	-0.1803669204	 0.0553726887	 0.096519
H	-5.0914022271	-1.8430978504	 0.0492636594	 0.09337
H	-3.8512188485	-1.4043481949	 2.1690690347	 0.09509
H	-2.9347289538	-2.5503380103	 1.193876159	 0.107002
H	-2.4149508354	 0.4210727674	 1.5259509179	 0.070529
H	-0.5717783855	-0.4058920175	 2.4859510126	 0.283731
75.4106	88.3033	169.207	210.9748	255.7262	262.9925	305.119	320.7242	376.1558	405.5257	466.0917	479.7854	630.4429	652.0081	747.6661	793.0525	826.4396	870.7979	886.4884	930.4996	952.0855	979.1403	1050.1506	1059.0853	1077.78	1082.4743	1089.871	1116.1388	1149.2613	1173.6346	1232.8355	1261.8613	1281.8118	1290.4399	1331.3361	1350.0028	1353.9763	1367.685	1379.442	1398.1212	1409.2784	1422.1265	1476.9942	1484.6357	1490.8471	1498.5142	1499.1337	1506.231	1730.091	2942.6136	2992.5156	3017.7984	3023.4843	3030.5065	3034.3805	3037.3105	3065.6396	3072.1783	3083.6553	3095.5027	3109.2064	3127.8609	3832.1491
CCC1=CCCCC1O	CCC1=CCCC[C@H]1O	
InChI=1S/C8H14O/c1-2-7-5-3-4-6-8(7)9/h5,8-9H,2-4,6H2,1H3	InChI=1S/C8H14O/c1-2-7-5-3-4-6-8(7)9/h5,8-9H,2-4,6H2,1H3/t8-/m1/s1
