15
gdb 12994	2.7518	2.6939	1.63793	3.2579	60.59	-0.2469	0.0098	0.2567	789.426	0.120722	-399.825259	-399.818343	-399.817399	-399.856146	26.347	
N	-0.1147162386	 1.4560240438	-0.1167036104	-0.584492
C	-0.0776602166	 0.0320692797	-0.0094467011	 0.171861
C	-0.4624008478	-0.8013187673	-1.2167161489	-0.30624
C	-1.3078923551	-0.8503978709	 0.0194881981	-0.096256
C	-0.9862092291	-1.9722530884	 0.9890060404	-0.100564
O	 0.4120165029	-1.8465003285	 1.3163922422	-0.229961
C	 0.9143432111	-0.6485948993	 0.8960223716	 0.38892
O	 1.9846178229	-0.2387142523	 1.2456032117	-0.351307
H	-0.1673261308	 1.8761068688	 0.807470962	 0.238094
H	 0.7581521253	 1.7842866022	-0.5221075669	 0.24564
H	-0.8505766947	-0.2235586919	-2.0472672372	 0.133725
H	 0.1438673525	-1.6607442741	-1.4854346335	 0.129646
H	-2.3017782673	-0.4223763444	 0.0103721409	 0.113534
H	-1.5642637423	-1.8884498128	 1.9160631694	 0.122065
H	-1.1402860925	-2.9707083847	 0.5685017019	 0.125335
144.0973	195.8098	234.2225	287.7258	309.3585	423.1007	501.4509	579.3702	697.5621	713.8514	781.525	838.8858	855.5	900.9753	912.2703	962.5109	1011.4844	1057.5276	1063.1263	1095.4274	1108.0386	1130.8378	1230.7987	1268.1772	1286.9121	1313.0658	1387.4591	1415.8579	1488.3279	1520.5702	1668.8904	1872.5575	3040.8036	3086.1542	3132.1266	3203.0047	3230.0354	3486.4611	3555.1408
NC12CC1COC2=O	N[C@]12C[C@H]1COC2=O	
InChI=1S/C5H7NO2/c6-5-1-3(5)2-8-4(5)7/h3H,1-2,6H2	InChI=1S/C5H7NO2/c6-5-1-3(5)2-8-4(5)7/h3H,1-2,6H2/t3-,5+/m0/s1
