17
gdb 56797	2.99838	1.23404	0.92871	3.4111	73.47	-0.2356	0.0041	0.2397	1235.41	0.138406	-414.203666	-414.194873	-414.193929	-414.237818	31.421	
N	-0.1641418572	 1.5103088303	 0.0338914726	-0.492092
C	 0.04633619	 0.0683246762	-0.0278852509	-0.215753
C	-1.2137665334	-0.6484485859	 0.2322191174	 0.287706
N	-2.1867304432	-1.2489282114	 0.39797952	-0.32345
C	 0.6753940807	-0.4408725462	-1.3240508169	 0.366233
N	 1.2367101165	 0.3504350738	-2.1530202166	-0.314089
C	 1.8120558408	-0.505940209	-3.20788075	-0.160597
C	 1.2166858968	-1.9227084955	-2.9724495981	-0.185487
N	 0.7524280182	-1.7994571119	-1.5806895711	-0.347753
H	 0.7073174894	 1.9445335453	-0.2631315728	 0.255173
H	-0.8364926162	 1.7696872102	-0.6841419944	 0.245484
H	 0.7322696073	-0.2101205632	 0.7854225918	 0.159929
H	 1.5816693954	-0.105936866	-4.198785107	 0.117524
H	 2.904261347	-0.5108137909	-3.1039623535	 0.117537
H	 0.3800184808	-2.1313829548	-3.652140876	 0.112876
H	 1.9534180722	-2.7227752803	-3.0781292769	 0.118685
H	-0.013660805	-2.3835691308	-1.2748774474	 0.258076
49.9981	113.2161	164.7264	176.6647	192.1377	240.4804	298.3274	409.0544	482.5086	553.0262	587.2733	601.8955	740.1346	797.4948	860.582	888.3548	920.4854	961.3287	996.3074	1035.9342	1044.3483	1110.029	1152.6695	1201.4524	1203.3235	1245.2153	1258.5072	1292.186	1317.9301	1345.1001	1401.9767	1467.3064	1497.454	1528.543	1672.7228	1709.5219	2362.1246	3014.4093	3015.4752	3029.7774	3084.0964	3095.5744	3485.9858	3554.4327	3593.0904
NC(C#N)C1=NCCN1	N[C@@H](C#N)[C]1[N]CCN1	
InChI=1S/C5H8N4/c6-3-4(7)5-8-1-2-9-5/h4H,1-2,7H2,(H,8,9)	InChI=1S/C5H8N4/c6-3-4(7)5-8-1-2-9-5/h4H,1-2,7H2,(H,8,9)/t4-/m0/s1
