20
gdb 75525	2.12683	1.64652	1.02304	2.7755	82.93	-0.2381	0.0108	0.2488	1204.9071	0.17188	-403.166655	-403.157913	-403.156968	-403.200222	33.175	
C	-0.1231420387	 1.5228052491	 0.011034958	-0.480751
C	-0.0130324985	 0.024999951	-0.0341746243	 0.321234
C	-0.0848398068	-0.6775522787	-1.1652586035	-0.164766
C	 0.0653488255	-2.1785252153	-1.2126746094	-0.268295
C	 1.4161864042	-2.6678791861	-0.6848865488	-0.063074
O	 1.5961477972	-2.6191011481	 0.7373758609	-0.258946
C	 1.4560103338	-1.4582714752	 1.4533178397	 0.364327
N	 2.3163348004	-1.1154514348	 2.3176645965	-0.477492
C	 0.1685643778	-0.6779011804	 1.304316713	-0.356922
H	 0.7769260911	 1.9668841255	 0.4544516595	 0.138113
H	-0.2629514479	 1.9490335249	-0.9858361093	 0.120109
H	-0.9656738458	 1.8371510217	 0.6406651591	 0.126853
H	-0.2344373107	-0.1574131533	-2.1080439981	 0.083476
H	-0.7342813023	-2.6785222462	-0.6473400117	 0.116759
H	-0.0223283718	-2.5302569929	-2.2461867398	 0.106618
H	 1.5503981387	-3.7266744548	-0.9240569735	 0.113882
H	 2.2262167374	-2.1026713311	-1.1652862749	 0.106671
H	 3.1027621661	-1.7693172978	 2.290597808	 0.216189
H	 0.1518806646	 0.0449723081	 2.1202812205	 0.130667
H	-0.6644866943	-1.3773353356	 1.4617887281	 0.125347
83.0231	83.6605	170.2422	222.4527	284.8381	301.1785	354.6506	385.5773	446.6303	496.9904	543.2012	588.7376	646.3285	799.	828.8475	843.9301	892.7904	936.8731	960.6558	969.0178	1010.5189	1026.466	1067.8192	1078.6798	1101.4208	1130.7359	1172.2537	1218.4543	1248.4706	1305.756	1324.3882	1334.263	1360.5151	1368.5601	1411.6088	1432.8007	1462.7563	1476.5646	1478.4798	1490.151	1501.0633	1733.1381	1744.4916	3006.1197	3013.5995	3016.8034	3018.0037	3064.8907	3072.3015	3088.9488	3113.0338	3128.3212	3155.5439	3450.9733
CC1=CCCOC(=N)C1	CC1=CCCO[C]([NH])C1	
InChI=1S/C7H11NO/c1-6-3-2-4-9-7(8)5-6/h3,8H,2,4-5H2,1H3	InChI=1S/C7H11NO/c1-6-3-2-4-9-7(8)5-6/h3,8H,2,4-5H2,1H3
