17
gdb 32610	2.99821	1.2375	0.94731	2.0514	72.36	-0.1777	0.0489	0.2266	1236.5706	0.13497	-455.166379	-455.157142	-455.156198	-455.201389	33.119	
C	 0.0038482606	 1.5824168328	-0.0381189684	-0.378456
C	 0.0314084063	 0.0517061919	-0.0577600228	-0.14768
N	 0.668851091	-0.4953394052	-1.2406065768	-0.087588
C	 0.0609114115	-0.771808846	-2.4839722211	-0.242656
C	 1.044523977	-1.1406990619	-3.3073474764	 0.364619
O	 1.0603475688	-1.4705615559	-4.6056264372	-0.420909
O	 2.2578824482	-1.1103589041	-2.6524165063	-0.257271
C	 2.0217748494	-0.6893815747	-1.3439490084	 0.46819
N	 2.891248194	-0.5188766739	-0.4337039156	-0.618301
H	 1.0230452835	 1.9767257407	-0.0588275676	 0.147581
H	-0.5419314109	 1.9799003438	-0.8996006428	 0.118357
H	-0.4863894972	 1.940508685	 0.872707766	 0.117266
H	 0.5899379388	-0.3248827415	 0.8032097502	 0.147203
H	-0.9833687075	-0.3571597451	-0.0048159228	 0.109038
H	-0.9990209936	-0.6976671202	-2.6433575832	 0.14557
H	 1.8054922812	-2.0637308458	-4.7621294447	 0.312606
H	 3.8230531087	-0.74038259	-0.7706801221	 0.222431
38.6932	62.3709	130.5637	196.331	213.0216	274.5175	310.27	335.2339	398.8366	545.6573	607.5475	609.9179	673.2011	686.0811	687.8791	730.7947	786.9903	839.7538	951.3398	983.0698	1013.6413	1091.6958	1101.0587	1170.231	1177.8045	1245.92	1270.1868	1351.8211	1387.0067	1398.7705	1408.8002	1444.4947	1480.6433	1490.9262	1504.3322	1752.6328	1811.3553	3039.8057	3046.8473	3098.403	3113.919	3129.9911	3304.1097	3554.3723	3794.3105
CCN1C=C(O)OC1=N	CCN1C=C(O)O[C@H]1[NH]	
InChI=1S/C5H8N2O2/c1-2-7-3-4(8)9-5(7)6/h3,6,8H,2H2,1H3	InChI=1S/C5H9N2O2/c1-2-7-3-4(8)9-5(7)6/h3,5-6,8H,2H2,1H3/t5-/m0/s1
