18
gdb 32861	6.29698	0.83106	0.74439	2.5014	76.19	-0.2124	0.0322	0.2446	1550.6498	0.146775	-439.125102	-439.11595	-439.115006	-439.159785	32.455	
C	-0.0479632469	 1.4455846908	-0.0163841365	-0.389613
C	 0.0042127751	-0.0690868853	 0.0117652891	-0.051915
O	-1.3546668453	-0.5434213221	-0.0216458425	-0.262441
C	-1.5530871333	-1.8527276826	-0.0061710523	 0.491761
N	-2.7022089879	-2.4430077836	-0.0340314871	-0.406336
C	-2.3783768027	-3.8035941319	 0.0001549148	 0.263694
C	-3.4367068339	-4.8524832359	-0.0167123439	-0.487662
C	-1.034814573	-3.9391706065	 0.0462202366	-0.138622
O	-0.4770498044	-2.6687381608	 0.0429559496	-0.196083
H	 0.9678786167	 1.8504814952	 0.0078065705	 0.124116
H	-0.5420020022	 1.7993235368	-0.9251673074	 0.137141
H	-0.5965623945	 1.8303712536	 0.8473721605	 0.137138
H	 0.5477357764	-0.470689393	-0.8506154	 0.121268
H	 0.4933903863	-0.4396385068	 0.9193941888	 0.121291
H	-4.048089947	-4.7731068892	-0.9218731664	 0.138825
H	-2.9998749999	-5.8537963132	 0.0191730004	 0.121197
H	-4.1112204787	-4.7373534102	 0.8383254981	 0.138902
H	-0.3435902548	-4.7621926454	 0.0828404576	 0.137337
55.0445	69.5885	145.3614	151.5501	207.1669	251.1272	303.7861	347.908	356.9461	511.2273	638.3423	657.1111	680.9288	751.4398	761.7599	816.265	912.263	970.3418	1015.0308	1027.3644	1067.0662	1081.9617	1104.2206	1138.0852	1181.5481	1233.3456	1296.7011	1310.7182	1381.9353	1405.4994	1418.5788	1423.9762	1473.9187	1483.8293	1489.9759	1498.3022	1520.3577	1648.3595	1664.5368	3036.0128	3037.5425	3050.2749	3076.9577	3093.6024	3121.5218	3125.7821	3131.3695	3300.3021
CCOC1=NC(C)=CO1	CCOc1nc(C)co1	
InChI=1S/C6H9NO2/c1-3-8-6-7-5(2)4-9-6/h4H,3H2,1-2H3	InChI=1S/C6H9NO2/c1-3-8-6-7-5(2)4-9-6/h4H,3H2,1-2H3
