16
gdb 77614	2.08891	1.66872	1.30489	3.9199	71.09	-0.2485	-0.0092	0.2392	1038.9562	0.122677	-437.847694	-437.839049	-437.838105	-437.88078	31.849	
C	-0.0418151766	 1.5805554123	 0.0333480632	-0.491805
C	 0.0110232627	 0.0838244686	 0.0256747636	 0.1537
C	 0.6737837561	-0.7912430219	-1.0361846339	-0.133867
O	 1.1402782137	-1.7471393571	-0.0369306157	-0.317589
C	 0.6232291507	-0.9284121981	 1.0056362914	 0.274607
C	 1.3107015084	-0.7818017751	 2.2434556873	 0.216562
N	 1.8323928455	-0.6600763914	 3.2699695984	-0.354113
C	-0.8871205165	-0.7967435432	 0.8599135147	-0.022103
O	-1.5655147648	-0.1078440331	 1.8530102015	-0.407061
H	 0.949269727	 2.0122497896	-0.1359853755	 0.132404
H	-0.7093204587	 1.9412229677	-0.7578798741	 0.132337
H	-0.4263168783	 1.9448338147	 0.9874251699	 0.158242
H	 0.0251073411	-1.2612801544	-1.7828657509	 0.11868
H	 1.5253487211	-0.3071280372	-1.5261238138	 0.126021
H	-1.4046427225	-1.6447819385	 0.4051146732	 0.106143
H	-1.5885366688	-0.6513810227	 2.6489494508	 0.307843
106.985	124.8705	173.514	226.6917	268.3315	290.3702	310.0916	373.749	379.7296	489.3404	562.5607	591.8584	633.9086	693.6126	761.1795	864.1845	946.6234	986.0323	995.8822	1046.4145	1102.8502	1122.3725	1149.5664	1176.7705	1232.7076	1249.8494	1295.2176	1332.2197	1368.194	1419.871	1454.3147	1490.5878	1494.5572	1516.0167	2339.9338	3034.2281	3038.1153	3075.7575	3090.0158	3098.0067	3142.6166	3799.0824
CC12COC1(C#N)C2O	C[C@@]12CO[C@]1(C#N)[C@H]2O	
InChI=1S/C6H7NO2/c1-5-3-9-6(5,2-7)4(5)8/h4,8H,3H2,1H3	InChI=1S/C6H7NO2/c1-5-3-9-6(5,2-7)4(5)8/h4,8H,3H2,1H3/t4-,5-,6+/m0/s1
