17
gdb 40089	4.02365	1.32165	1.09982	3.1846	75.16	-0.2253	0.0015	0.2268	1100.1776	0.137648	-417.958239	-417.951005	-417.950061	-417.989972	27.889	
C	-0.1509347092	 1.4664422666	-0.1070822011	-0.255404
O	 1.1317152355	 0.8221512738	-0.060649161	-0.25327
C	-0.0191665349	 0.015127469	-0.0145669154	 0.325055
C	-0.352637617	-1.0010590404	 1.1106637099	-0.264332
N	-0.4132502527	-2.0423974847	 0.0448079605	-0.095106
C	-1.4633696421	-2.9824652827	-0.3543443797	-0.198126
C	-1.4436422697	-2.7336996306	-1.9037111929	-0.171699
N	-0.9570476482	-1.3325799468	-2.0866246913	-0.348239
C	-0.4019300253	-1.0864176993	-0.9726304335	 0.299322
H	-0.4185663301	 2.0370928039	 0.7808041055	 0.124504
H	-0.4133780246	 1.9165027773	-1.062234182	 0.141016
H	 0.4226308361	-1.1720950773	 1.860623339	 0.130353
H	-1.318290788	-0.8057293477	 1.5939197806	 0.115147
H	-1.2342324445	-4.0146144398	-0.0805476405	 0.116396
H	-2.4344903258	-2.7058998801	 0.0856352972	 0.099629
H	-0.755529397	-3.4308949646	-2.3983145395	 0.118935
H	-2.4272390823	-2.8518488465	-2.3639632857	 0.115819
112.3262	167.462	233.6929	255.0549	323.3713	391.1886	505.9344	518.9068	642.5793	748.4144	792.3232	843.8997	861.5583	867.6263	903.0476	928.323	976.2436	1008.4196	1062.0976	1096.1201	1117.1413	1129.8848	1138.6236	1150.5756	1169.8528	1190.4149	1224.416	1238.5607	1286.2532	1318.9579	1358.4201	1448.2263	1490.2709	1495.5121	1515.3902	1534.6749	1749.5858	2982.713	3026.409	3030.5783	3090.5459	3097.1291	3104.6639	3108.1761	3184.8783
C1OC11CN2CCN=C12	C1O[C@]21CN1CC[N][C]21	
InChI=1S/C6H8N2O/c1-2-8-3-6(4-9-6)5(8)7-1/h1-4H2	InChI=1S/C6H8N2O/c1-2-8-3-6(4-9-6)5(8)7-1/h1-4H2/t6-/m0/s1
