19
gdb 37889	3.01015	2.14784	1.71017	1.483	77.69	-0.2304	0.0952	0.3256	861.1343	0.163276	-385.835649	-385.829703	-385.828759	-385.865522	26.356	
C	-0.1014548457	 1.5177700497	 0.004190689	-0.316261
C	 1.4612745633	 1.2740896606	 0.0171568756	-0.113453
C	 1.2555284131	 0.0774863469	 0.9824668771	-0.061774
C	 2.2133584673	-1.0677388912	 0.6342955372	-0.247297
C	 1.8204855159	-1.2133292879	-0.8563054218	-0.10966
C	 0.4812917309	-2.0231275841	-0.9473468309	-0.091669
O	-0.5594877828	-1.1891752264	-0.3459713608	-0.343586
C	 0.123841611	-0.0001135747	-0.0985758177	 0.450724
C	 1.2674832164	 0.2026521062	-1.1029549824	-0.039826
H	-0.5387817891	 1.9057051775	 0.9279987816	 0.097774
H	-0.5075680163	 2.0226410212	-0.8760947789	 0.098884
H	 2.2284563107	 2.0437566832	 0.0815108946	 0.078749
H	 1.0015932419	 0.2764132247	 2.0243066076	 0.062715
H	 3.2674086839	-0.8008299498	 0.7667128209	 0.095065
H	 2.0180740068	-1.974340652	 1.2158937742	 0.09778
H	 2.5914089904	-1.6091662725	-1.5192085505	 0.065145
H	 0.2011549986	-2.2275841363	-1.9887033032	 0.100567
H	 0.5289009012	-2.9716125224	-0.4025618865	 0.107695
H	 1.0149685925	 0.5139367275	-2.117275665	 0.06843
213.2343	376.3399	393.6531	436.6668	471.2832	592.0642	676.2337	708.9491	779.0667	795.8256	832.0318	837.3201	879.3676	888.9328	929.2996	952.6878	969.4692	977.7525	986.794	999.959	1038.5902	1040.8468	1061.8927	1104.9965	1112.0676	1144.2027	1171.2025	1181.4505	1185.9644	1205.8546	1228.0502	1242.2117	1257.0394	1276.6219	1279.4263	1320.4014	1373.0205	1380.3951	1495.4003	1512.2502	1518.977	3018.4942	3039.4372	3054.0757	3074.3748	3083.5389	3100.6126	3108.6913	3112.3409	3119.6848	3130.7793
C1C2C3CC4COC13C24	C1[C@H]2[C@@H]3C[C@H]4CO[C@@]13[C@@H]24	
InChI=1S/C8H10O/c1-4-3-9-8-2-5(6(1)8)7(4)8/h4-7H,1-3H2	InChI=1S/C8H10O/c1-4-3-9-8-2-5(6(1)8)7(4)8/h4-7H,1-3H2/t4-,5-,6-,7+,8-/m0/s1
