20
gdb 97246	2.25954	1.52217	1.00332	3.0403	78.11	-0.2497	0.0258	0.2755	1226.9107	0.171645	-440.302568	-440.293356	-440.292412	-440.337643	33.537	
C	 0.803201249	 1.328979422	 0.2210360898	-0.333665
N	 0.6206931519	-0.0995904717	 0.032385969	-0.337682
C	 0.4040717316	-0.5789951851	-1.1173781157	 0.399905
O	 0.3205501453	 0.1650758279	-2.2473180637	-0.251727
C	 0.184405644	-0.5593924168	-3.4816946512	-0.081326
C	 1.2332054262	-1.6648040832	-3.5935533281	-0.226665
C	 1.2040920362	-2.6001822138	-2.358206988	-0.219134
C	 0.2365414939	-2.0793088116	-1.273266642	 0.046163
O	 0.4361624967	-2.7291438918	-0.0511378946	-0.446848
H	 1.0552804215	 1.864861769	-0.7005672184	 0.123402
H	-0.1145641129	 1.7675154892	 0.631829284	 0.128355
H	 1.595164508	 1.4929297275	 0.958292043	 0.124479
H	-0.8335742733	-0.9629926366	-3.5549596536	 0.116144
H	 0.3038315061	 0.1913779009	-4.2656044514	 0.121904
H	 1.0585287688	-2.2172675867	-4.5222505059	 0.110695
H	 2.2164100198	-1.1931574173	-3.6869181834	 0.118556
H	 0.9091654827	-3.6174617187	-2.6283147187	 0.112287
H	 2.1944237041	-2.6680187174	-1.9001171942	 0.11977
H	-0.7971995073	-2.2546095243	-1.6201876705	 0.088338
H	 0.5816901078	-2.0054850515	 0.5854288333	 0.28705
37.5254	63.9236	103.7857	210.7636	218.7102	273.7592	330.2064	412.168	441.9426	477.9086	495.9459	583.4854	617.9553	704.5357	749.7533	857.2304	887.0998	960.4331	976.1448	1051.9059	1077.5893	1096.5974	1112.179	1132.3725	1159.7973	1173.3308	1203.9169	1215.5494	1270.2344	1274.874	1304.8429	1330.1968	1366.9381	1383.6763	1415.5377	1435.95	1475.277	1482.7896	1492.5316	1499.2161	1506.2632	1515.4107	1777.0448	2940.8	3018.859	3026.4067	3047.982	3065.194	3077.2271	3085.1817	3097.3439	3107.8201	3113.183	3606.1272
CN=C1OCCCC1O	CN=C1OCCC[C@H]1O	
InChI=1S/C6H11NO2/c1-7-6-5(8)3-2-4-9-6/h5,8H,2-4H2,1H3	InChI=1S/C6H11NO2/c1-7-6-5(8)3-2-4-9-6/h5,8H,2-4H2,1H3/t5-/m1/s1
