17
gdb 98875	4.03898	1.06358	0.96202	2.5449	70.95	-0.2379	-0.0039	0.2341	1257.8909	0.135063	-458.989375	-458.980553	-458.979608	-459.02421	30.643	
C	-0.1281799703	 1.3913456522	 0.01833896	-0.240271
O	-0.0808412713	-0.0371754208	 0.1347140907	-0.23724
C	-1.2723761994	-0.6633820901	 0.040004771	 0.417633
O	-2.3250799692	-0.1074270301	-0.1128580278	-0.348386
C	-1.0597319827	-2.1833016413	 0.1139079265	-0.037304
O	-2.2721423297	-2.8489099651	 0.3948018515	-0.250619
C	-2.7223645062	-3.5589740615	-0.7592057422	-0.113894
C	-1.5762261885	-3.4846418679	-1.7287275321	-0.085648
C	-0.6164454057	-2.7142496756	-1.2316063875	-0.097866
H	 0.9035385824	 1.7320873244	 0.1050497551	 0.133439
H	-0.5495648288	 1.6854814151	-0.9463412072	 0.141172
H	-0.7413147457	 1.82111858	 0.8143214826	 0.14406
H	-0.3311891864	-2.3838246279	 0.9114895396	 0.11099
H	-2.9730540419	-4.5886158643	-0.4677940041	 0.111561
H	-3.635702641	-3.0959524911	-1.16292378	 0.120291
H	-1.573540464	-3.9901292198	-2.6857911837	 0.112984
H	 0.3272182683	-2.446207536	-1.6861568925	 0.119099
45.4464	74.1035	107.0815	130.7864	208.0028	251.369	326.7857	384.9878	431.4041	677.0294	696.7648	759.8664	792.6524	833.2448	920.6292	936.6879	942.9118	957.7977	1006.911	1029.462	1045.9326	1118.9135	1146.8461	1179.1434	1197.5021	1204.1937	1219.0186	1272.8613	1332.4771	1355.3911	1385.2441	1471.9274	1481.7235	1497.7821	1514.1574	1685.4105	1843.3524	2989.0246	3013.3403	3019.7127	3052.3146	3127.2946	3159.2797	3215.8894	3243.1822
COC(=O)C1OCC=C1	COC(=O)[C@H]1OCC=C1	
InChI=1S/C6H8O3/c1-8-6(7)5-3-2-4-9-5/h2-3,5H,4H2,1H3	InChI=1S/C6H8O3/c1-8-6(7)5-3-2-4-9-5/h2-3,5H,4H2,1H3/t5-/m0/s1
