18
gdb 7533	4.73588	1.12159	1.04614	1.9409	69.09	-0.243	-0.024	0.2189	1164.3166	0.150456	-384.934744	-384.925528	-384.924584	-384.969066	32.832	
C	 0.0445902715	 1.4390429558	-0.2683630348	-0.40289
C	 0.040591249	-0.040268297	 0.0428242568	-0.035736
C	 1.3309944858	-0.8406174622	 0.0017676798	-0.356131
C	 0.6462933382	-0.5664943471	 1.3190754185	 0.373493
O	 1.215425964	 0.3938217262	 2.1753149027	-0.464932
C	-0.0538114475	-1.6982464594	 2.0628069588	-0.322475
C	 0.9198176724	-2.5795690132	 2.8135180287	 0.158347
O	 0.9749129383	-3.7790894537	 2.722432254	-0.238223
H	 0.9081206563	 1.9294403698	 0.1861283038	 0.127232
H	 0.0757985332	 1.6097398446	-1.349633635	 0.115984
H	-0.8553502473	 1.9256455516	 0.1225764831	 0.119727
H	-0.8450211601	-0.5722797943	-0.295769659	 0.088817
H	 1.3175147797	-1.8501361677	-0.3953422246	 0.122277
H	 2.2429251507	-0.2870798284	-0.2008509451	 0.111817
H	 2.1285985026	 0.145285456	 2.3490558457	 0.287949
H	-0.7393082897	-1.2481704334	 2.794590798	 0.128948
H	-0.6335268427	-2.3262955946	 1.3814120274	 0.119139
H	 1.6185401056	-2.027064733	 3.4843376212	 0.066656
51.3191	72.026	151.3126	172.5979	231.4899	244.3156	286.4932	349.6361	389.4214	443.3926	490.5847	577.938	693.0939	796.6267	843.475	880.1965	909.6927	933.1728	1000.6127	1026.3491	1048.4516	1073.5177	1117.565	1132.6736	1185.3758	1200.2341	1232.6767	1297.3378	1310.1201	1345.6824	1405.5796	1421.9609	1427.8522	1447.9603	1484.1905	1493.1242	1504.8731	1833.7963	2856.2603	3020.4159	3036.8675	3094.6925	3107.1421	3122.6312	3125.4774	3141.7514	3213.1469	3817.6047
CC1CC1(O)CC=O	C[C@H]1C[C@]1(O)CC=O	
InChI=1S/C6H10O2/c1-5-4-6(5,8)2-3-7/h3,5,8H,2,4H2,1H3	InChI=1S/C6H10O2/c1-5-4-6(5,8)2-3-7/h3,5,8H,2,4H2,1H3/t5-,6+/m0/s1
