17
gdb 41434	3.78979	1.90252	1.5236	1.8082	70.19	-0.2385	0.0935	0.332	861.9925	0.139092	-421.768525	-421.762723	-421.761779	-421.798357	25.064	
C	-0.0035216205	 1.5511616188	-0.0327052411	-0.109419
O	 1.4263172754	 1.8279694928	-0.0278972412	-0.337383
C	 1.9321489968	 0.5330237502	 0.0224980883	 0.442411
C	 3.3697154471	 0.0699796896	 0.0532518546	-0.168569
O	 3.1315313388	-1.354758782	 0.100647334	-0.294359
C	 1.6948343781	-1.4666217605	 0.0900045509	 0.106834
C	 1.1124151844	-0.3760900709	 1.0036472335	-0.140709
C	-0.0272951516	 0.0086390636	 0.020982932	-0.125687
C	 1.1317923393	-0.4429622536	-0.9091570686	-0.14071
H	-0.4671537094	 2.0259235182	 0.8393566405	 0.111179
H	-0.4490763458	 1.9635363242	-0.9449955807	 0.111179
H	 3.9407364464	 0.3318033097	-0.8445681176	 0.112051
H	 3.922632134	 0.3942612419	 0.9419709775	 0.112051
H	 1.406007945	-2.5140938294	 0.1236985933	 0.088795
H	 1.1200556654	-0.3178805538	 2.0922505798	 0.077379
H	-0.9977135984	-0.487319914	 0.0284923007	 0.077579
H	 1.161497935	-0.4609084253	-1.9987897716	 0.077379
266.5483	299.6848	410.4092	426.444	452.8991	642.3692	730.3497	732.0701	744.1248	771.5592	828.9615	900.0693	902.7871	924.0817	952.5461	957.7291	969.1276	985.2908	1009.9822	1045.2117	1050.1111	1108.3778	1119.3605	1153.5436	1162.3089	1176.6743	1195.3068	1213.4291	1235.9934	1246.8422	1283.8675	1298.8776	1336.7747	1357.8588	1397.2682	1514.0997	1526.2306	3031.2511	3032.4235	3073.702	3077.0218	3112.3226	3113.5098	3125.4302	3159.6822
C1OC23COC4C2C1C34	C1O[C@@]23CO[C@H]4[C@@H]2[C@@H]1[C@@H]34	
InChI=1S/C7H8O2/c1-3-4-6-5(3)7(4,9-1)2-8-6/h3-6H,1-2H2	InChI=1S/C7H8O2/c1-3-4-6-5(3)7(4,9-1)2-8-6/h3-6H,1-2H2/t3-,4+,5-,6+,7+
