14
gdb 15850	2.66887	2.12346	1.33177	3.9182	63.41	-0.2657	0.0016	0.2673	901.8874	0.105385	-382.535382	-382.527639	-382.526695	-382.567609	28.003	
C	-0.2791310057	 1.5042266176	-0.0666250873	-0.405177
C	 0.0732015045	 0.0377611307	-0.0159337486	 0.142032
O	 1.2939157721	-0.2640317595	-0.7834334157	-0.248408
C	 1.9648612155	-0.7116782165	 0.3171004409	 0.458119
O	 3.0827389815	-1.0984219201	 0.393386035	-0.31309
C	 0.7537796266	-0.528593877	 1.2678138617	-0.40634
C	 0.9232698396	 0.3178253241	 2.4253283101	 0.346049
C	 1.0665243049	 1.0278168167	 3.3840664438	-0.448222
H	 0.5421043522	 2.1185014995	 0.3105275829	 0.142961
H	-0.5001981417	 1.8013734718	-1.0955016713	 0.137303
H	-1.1635530555	 1.6974156072	 0.5480743951	 0.135051
H	-0.7394592013	-0.5923009094	-0.3858360214	 0.10634
H	 0.3520769233	-1.5062860677	 1.553397083	 0.14416
H	 1.2017041839	 1.6498385227	 4.2344383819	 0.209221
91.8732	126.2671	164.9304	210.1373	312.3751	380.0669	418.1403	488.2455	560.5322	629.612	660.6649	690.9478	745.5095	817.0853	874.1688	896.2111	1024.927	1050.1728	1101.3439	1134.1343	1153.4613	1184.3297	1313.7792	1320.4637	1381.6892	1416.3024	1481.823	1487.6581	1946.619	2242.0707	3048.2552	3062.4327	3084.0467	3121.6317	3134.7007	3501.9473
CC1OC(=O)C1C#C	C[C@H]1OC(=O)[C@H]1C#C	
InChI=1S/C6H6O2/c1-3-5-4(2)8-6(5)7/h1,4-5H,2H3	InChI=1S/C6H6O2/c1-3-5-4(2)8-6(5)7/h1,4-5H,2H3/t4-,5+/m1/s1
