16
gdb 96702	3.22848	1.0553	0.81885	4.9392	73.26	-0.2376	-0.0563	0.1813	1357.2257	0.122709	-471.247504	-471.237849	-471.236905	-471.28258	33.961	
C	 0.8115426475	 1.8683723691	 0.1364155072	-0.323947
N	 0.8073401097	 0.4563508065	 0.4632574506	-0.287584
C	 0.5826713119	-0.4531308726	-0.3924859477	 0.308071
N	 0.6864609099	-1.7837279136	 0.0473247735	-0.391056
C	-0.032371171	-2.8212832156	-0.5321609397	 0.470728
N	 0.0561234424	-4.010801736	 0.1539988667	-0.562568
O	-0.6959411504	-2.6789366796	-1.5428788995	-0.374528
C	 0.3456883939	-0.2764671757	-1.8819366102	 0.115497
O	-0.256041011	 0.6621224044	-2.3379367106	-0.251714
H	 0.9023258925	 2.1021474883	-0.9278411764	 0.139567
H	-0.1246410978	 2.3137612773	 0.4943307543	 0.139969
H	 1.6243838788	 2.3466578147	 0.6926836074	 0.121555
H	 0.9618496504	-1.8578808178	 1.0176190852	 0.253314
H	 0.867008557	-4.1975034738	 0.7221747002	 0.259833
H	-0.3140026043	-4.8017184657	-0.349221445	 0.272322
H	 0.8381346204	-1.0314540399	-2.5209452259	 0.110541
60.0395	96.7393	100.6128	127.6095	235.9139	267.4022	305.2711	362.9864	391.1354	395.775	402.2611	501.8569	536.1736	617.3734	639.8584	754.3858	771.5787	856.2614	980.4408	989.5485	1076.2694	1113.5813	1131.4217	1159.3358	1285.1791	1319.6668	1428.0832	1445.7557	1480.524	1491.8168	1513.8676	1626.9584	1723.2467	1792.5515	1812.889	2965.3005	3025.3707	3079.7267	3109.6223	3586.5492	3593.1274	3708.9701
CN=C(NC(N)=O)C=O	CN=C(NC(=O)N)C=O	
InChI=1S/C4H7N3O2/c1-6-3(2-8)7-4(5)9/h2H,1H3,(H3,5,6,7,9)	InChI=1S/C4H7N3O2/c1-6-3(2-8)7-4(5)9/h2H,1H3,(H3,5,6,7,9)
