20
gdb 22425	2.71107	1.23762	1.00881	1.385	84.99	-0.2233	0.0213	0.2446	1259.8026	0.168785	-403.09304	-403.083525	-403.082581	-403.126871	36.036	
C	-0.0204646856	 1.5164126616	 0.0430340746	-0.494506
C	-0.0290226111	 0.0160688421	 0.0400609713	 0.302582
C	 1.1452800794	-0.82950408	-0.3425200029	-0.369388
C	 0.5889708266	-0.9839239157	 1.0673882099	 0.21331
C	 1.4137602133	-0.7833390662	 2.3058794346	-0.495513
C	-0.670592139	-1.7704847585	 0.9798398275	 0.397849
C	-1.3038317757	-0.850267765	-0.0567876225	-0.38715
N	-1.0749731064	-2.7232581853	 1.7116767325	-0.276475
O	-2.3898811344	-3.1025331004	 1.3578120787	-0.396931
H	 0.9591637414	 1.9086920528	 0.3348983923	 0.119929
H	-0.2478520944	 1.9131250323	-0.954075498	 0.125045
H	-0.7661053376	 1.9199754732	 0.737194832	 0.121094
H	 1.0488412774	-1.6312291259	-1.070926937	 0.111164
H	 2.1005251118	-0.3126314487	-0.378622001	 0.112011
H	 2.122882567	 0.0407990726	 2.1781370569	 0.114664
H	 0.7794278701	-0.5618035313	 3.1700886083	 0.126556
H	 1.9908904199	-1.683971008	 2.5425285674	 0.133327
H	-2.2011069764	-0.3687893578	 0.3447253791	 0.125391
H	-1.5413263977	-1.2748134055	-1.0374416203	 0.113486
H	-2.5702275787	-3.8064833362	 1.9893890766	 0.303555
91.352	162.9157	171.9573	174.5607	206.5864	238.6295	311.4339	338.0817	362.0681	433.322	445.8979	519.2067	566.3488	577.5174	673.4838	735.2339	815.94	841.7875	940.5	957.7937	975.2591	994.7909	1000.9418	1063.3353	1074.8489	1097.8851	1110.3946	1131.5365	1200.4183	1220.6475	1261.4467	1343.9594	1382.9351	1410.9054	1420.0855	1428.69	1468.4089	1479.48	1487.9247	1495.5864	1501.1312	1508.3638	1781.5193	3021.2277	3030.8404	3046.6083	3079.2328	3092.9553	3094.7973	3097.3295	3103.0759	3105.1401	3189.2367	3822.4113
CC12CC1(C)C(C2)=NO	C[C@@]12C[C@]1(C)C(=NO)C2	
InChI=1S/C7H11NO/c1-6-3-5(8-9)7(6,2)4-6/h9H,3-4H2,1-2H3	InChI=1S/C7H11NO/c1-6-3-5(8-9)7(6,2)4-6/h9H,3-4H2,1-2H3/t6-,7-/m1/s1
