20
gdb 8083	3.37564	2.17061	1.7249	1.2498	74.17	-0.2331	0.0826	0.3157	853.234	0.179007	-349.002302	-348.995205	-348.994261	-349.032932	29.189	
C	-0.0965719123	 1.5177452758	 0.0031903055	-0.461139
C	 0.0591852894	 0.0144943678	 0.0010022029	 0.439549
C	 1.1333809754	-0.6771949072	-0.8945859159	-0.281474
C	 1.1267759262	-1.8085605238	 0.1764926763	-0.021737
C	 0.7154197265	-0.7198958063	 1.206877998	-0.248744
C	-0.0818884944	-2.7287742063	-0.0568054806	-0.224467
C	-1.2373288426	-1.8998034665	-0.6560532523	-0.066352
O	-1.2401363333	-0.54266215	-0.2213065377	-0.311091
H	 0.856547721	 2.0044763562	 0.2294786429	 0.107652
H	-0.4479027791	 1.8696054075	-0.9719177853	 0.119403
H	-0.8308416319	 1.8215935489	 0.756034888	 0.123891
H	 0.8789935149	-0.9154861845	-1.9306487898	 0.094995
H	 2.0674280881	-0.1099501113	-0.8772362969	 0.096807
H	 2.0475271808	-2.3689465784	 0.3520848587	 0.060218
H	 1.5777342855	-0.1730760106	 1.5989639487	 0.089776
H	 0.049093723	-1.0073739565	 2.0249179442	 0.09022
H	 0.1651669041	-3.542093662	-0.7488753409	 0.09503
H	-0.3753799541	-3.1903092484	 0.89322456	 0.100733
H	-1.1712261082	-1.9284339171	-1.753373671	 0.092954
H	-2.2135785189	-2.3119390174	-0.3841794146	 0.103776
209.0143	217.7125	226.9479	306.7874	373.2378	442.6103	458.0635	462.6208	580.8274	666.5198	803.5997	821.1486	825.5267	860.7124	875.8271	913.9587	936.8669	955.6463	1001.0504	1027.7122	1043.5645	1072.7012	1112.7249	1136.2569	1147.3473	1197.6975	1215.9953	1236.0707	1245.5519	1265.2975	1287.9971	1321.8098	1336.2594	1364.1283	1409.227	1412.5484	1471.8296	1480.7395	1491.6659	1493.7525	1501.0816	1525.5123	2988.724	3028.6937	3036.7847	3048.845	3060.2905	3066.0271	3080.4509	3081.8981	3108.097	3108.9659	3112.162	3117.6839
CC12CC(C1)CCO2	C[C@@]12C[C@@H](C1)CCO2	
InChI=1S/C7H12O/c1-7-4-6(5-7)2-3-8-7/h6H,2-5H2,1H3	InChI=1S/C7H12O/c1-7-4-6(5-7)2-3-8-7/h6H,2-5H2,1H3/t6-,7+
