17
gdb 64559	2.49875	1.91139	1.39782	1.5407	71.75	-0.244	-0.0286	0.2153	953.2633	0.134294	-421.779177	-421.77131	-421.770366	-421.811502	30.32	
C	 0.0403486766	 1.5899516863	-0.1894567617	-0.47313
C	 0.0045359026	 0.0638155382	-0.0992194541	 0.236293
C	-1.352550365	-0.4206831131	-0.5479800221	 0.091415
O	-2.1930687404	-0.8835924123	 0.1807364145	-0.25493
C	 1.3126886649	-0.6540725165	-0.6398565187	-0.029623
O	 1.959768152	-0.2468396149	 0.6041277225	-0.286498
C	 0.6494277522	-0.5625760886	 1.1880089014	-0.011108
C	 0.5452217917	-2.0689780895	 0.8967901994	-0.065703
C	 1.0021367643	-2.1321966379	-0.3561084262	-0.097138
H	 1.0317691262	 1.954514402	 0.0840218983	 0.150276
H	-0.1913504404	 1.9281201155	-1.2060559022	 0.121301
H	-0.699926101	 2.0351197059	 0.4836832985	 0.132897
H	-1.5541021941	-0.2724342495	-1.6359792001	 0.073834
H	 1.8331590075	-0.3509772768	-1.5476372364	 0.084768
H	 0.4912026863	-0.1753947521	 2.1927061502	 0.089326
H	 0.1675565467	-2.8341966276	 1.557103445	 0.122137
H	 1.1182873498	-2.966501659	-1.0313025086	 0.115883
76.058	158.3563	230.2295	232.067	283.6376	326.2702	434.4062	512.4619	550.6154	627.1232	681.7779	730.9974	803.6457	830.7045	863.8042	884.1633	905.3448	910.308	929.4682	944.5159	984.3769	1001.7306	1116.6632	1130.0091	1139.549	1171.1182	1228.6616	1250.8953	1267.8624	1298.6152	1303.6274	1391.9213	1421.6538	1488.674	1501.192	1612.9192	1822.9429	2844.3926	3033.3856	3094.325	3132.7656	3139.7237	3147.1979	3240.1698	3267.7963
CC1(C=O)C2OC1C=C2	C[C@@]1(C=O)[C@H]2O[C@@H]1C=C2	
InChI=1S/C7H8O2/c1-7(4-8)5-2-3-6(7)9-5/h2-6H,1H3	InChI=1S/C7H8O2/c1-7(4-8)5-2-3-6(7)9-5/h2-6H,1H3/t5-,6+,7+
