16
gdb 42512	3.17013	1.21692	1.04677	2.3269	78.09	-0.2374	-0.0322	0.2052	1168.2944	0.122435	-400.687721	-400.679223	-400.678279	-400.721303	31.697	
O	 0.0329547798	 0.0439244179	 0.5467072398	-0.295922
C	-0.0355221309	 1.2106797661	 0.3104349705	 0.327091
C	-1.2043862107	 2.2442836482	 0.1274065984	-0.248066
N	-0.1531297421	 3.3159320223	-0.0363610369	-0.395964
C	 0.9339461286	 2.324418659	 0.0776180658	 0.239812
C	 2.2505202345	 2.5277147386	 0.785561087	-0.29641
C	 2.2282321123	 2.2680705964	-0.6941602575	-0.3205
C	-2.0719242649	 2.0156545066	-1.0062673326	 0.32051
C	-2.7650914477	 1.8292638023	-1.9712896315	-0.44913
H	-1.7828035609	 2.3874554603	 1.0472249493	 0.136184
H	-0.2059971463	 3.7152697038	-0.9690991311	 0.232089
H	 2.4536654663	 3.5378659926	 1.1234709745	 0.134939
H	 2.5826358366	 1.7354406621	 1.447964497	 0.137775
H	 2.5424972893	 1.2977506307	-1.0636508992	 0.141304
H	 2.4307333616	 3.1004161874	-1.360557491	 0.12968
H	-3.3876065854	 1.6603923356	-2.8151144324	 0.206608
46.7578	123.4821	174.9859	198.7727	219.1128	356.1248	379.7782	432.5423	542.3832	573.5261	613.9527	663.9639	712.1566	736.7616	773.1904	784.3369	845.4249	896.4358	933.5816	969.8221	1017.4538	1054.9024	1061.4946	1065.4569	1079.7152	1185.0184	1195.8841	1260.6291	1271.0174	1354.0914	1372.2536	1450.0141	1482.5406	1908.8134	2230.9581	3044.0622	3129.726	3135.3419	3216.1432	3233.5763	3502.5917	3513.8744
O=C1C(NC11CC1)C#C	O=C1[C@@H](NC21CC2)C#C	
InChI=1S/C7H7NO/c1-2-5-6(9)7(8-5)3-4-7/h1,5,8H,3-4H2	InChI=1S/C7H7NO/c1-2-5-6(9)7(8-5)3-4-7/h1,5,8H,3-4H2/t5-/m0/s1
