21
gdb 72706	2.56884	2.02951	1.5972	0.2599	87.51	-0.2135	0.0142	0.2277	951.7108	0.183334	-349.845681	-349.838382	-349.837437	-349.876479	32.015	
C	-0.0817477503	 1.5191820113	-0.0855383538	-0.458248
C	-0.0442662188	-0.0116506618	-0.0158988624	 0.364639
C	-1.3303070569	-0.4937699629	 0.7641218571	-0.309633
C	-0.4118567951	-0.4934221941	 2.0697000698	-0.33492
C	 0.7574925015	-0.7342735793	 1.0735709153	 0.240316
C	 2.0714487601	-0.2610684422	 0.3244091455	-0.319665
C	 1.1203865783	-0.6080358861	-0.9409010059	-0.16996
C	 0.9665193917	-2.106977276	-0.7412566197	-0.083063
C	 0.7309520184	-2.1974820599	 0.566849302	-0.120314
H	 0.8579169791	 1.9695013061	-0.4116139932	 0.113319
H	-0.8446081128	 1.8043890559	-0.8209887536	 0.116263
H	-0.3694352441	 1.9840932468	 0.8631815963	 0.114256
H	-2.1885371291	 0.1839368894	 0.7524801896	 0.088794
H	-1.6565952258	-1.5052788281	 0.5203591083	 0.115914
H	-0.4053702479	 0.4816799039	 2.5605071761	 0.107835
H	-0.6021725132	-1.2684738584	 2.8177778947	 0.094477
H	 2.3247134407	 0.7943523902	 0.4363116416	 0.101169
H	 2.9640762169	-0.8832909789	 0.4250692969	 0.095065
H	 1.340874335	-0.2167598796	-1.9365152149	 0.057758
H	 1.05587615	-2.8731572511	-1.4981024045	 0.097182
H	 0.5611410921	-3.0613203752	 1.1962915748	 0.088816
193.2535	261.3196	311.5571	320.7024	382.6545	438.2387	482.2954	525.0634	545.3832	620.5073	674.7818	718.2377	741.3273	792.3171	814.0329	830.9279	863.7809	894.7889	908.8801	921.8005	926.5331	943.8158	986.5215	1005.1989	1046.0499	1084.8142	1113.4765	1126.4017	1146.326	1165.2889	1172.7355	1190.1858	1205.8253	1224.7717	1229.5919	1242.626	1267.2298	1318.8323	1408.847	1468.029	1480.1143	1495.6488	1497.1527	1515.7019	1633.6755	3026.7456	3055.5542	3062.5716	3064.7539	3081.3327	3092.0441	3114.5049	3118.8368	3136.7003	3138.3094	3206.393	3239.3374
CC12CCC11CC2C=C1	C[C@]12CC[C@@]31C[C@H]2C=C3	
InChI=1S/C9H12/c1-8-4-5-9(8)3-2-7(8)6-9/h2-3,7H,4-6H2,1H3	InChI=1S/C9H12/c1-8-4-5-9(8)3-2-7(8)6-9/h2-3,7H,4-6H2,1H3/t7-,8-,9-/m1/s1
