18
gdb 109457	2.37744	1.4861	1.01523	2.7643	74.23	-0.2321	0.0237	0.2558	1190.9871	0.146088	-439.071004	-439.061957	-439.061013	-439.105036	32.991	
C	-0.2666716091	 1.337571567	 0.1501903751	-0.24576
O	 0.3479299786	 0.0839959099	-0.108269635	-0.244177
C	 0.8258813391	-0.5329935182	 1.046889895	-0.133666
C	-0.2291368806	-1.2536461249	 1.9562235781	 0.433613
O	-1.2164013877	-0.9347499525	 2.5644211614	-0.372532
N	 0.4155021658	-2.4532751191	 1.766536036	-0.404001
C	 1.387574158	-1.9439296548	 0.8130745787	 0.3998
C	 1.7734234181	-2.5461146285	-0.4941683493	-0.312872
C	 2.7983796812	-2.3923152055	 0.624483455	-0.338807
H	 0.4475890394	 2.0449910952	 0.5990290748	 0.1066
H	-0.5996740042	 1.7302673779	-0.8127266728	 0.128824
H	-1.1266826717	 1.2315981611	 0.8214694159	 0.145577
H	 1.4944529046	 0.1287782877	 1.6188670638	 0.090267
H	 0.171916637	-3.3932196059	 2.0433116151	 0.251735
H	 1.4241655693	-3.547925613	-0.7220222341	 0.116608
H	 1.8291895326	-1.879965628	-1.3481003521	 0.137206
H	 3.5711719472	-1.637313042	 0.5220545118	 0.124452
H	 3.1207094725	-3.2932336763	 1.1367639425	 0.117134
81.3299	95.0078	152.0279	167.9667	231.3193	240.4841	301.4819	379.7418	400.2596	502.8939	523.2533	559.2808	720.8022	767.448	822.4086	873.4444	898.4228	930.2104	971.0477	1022.3213	1039.4842	1056.4102	1074.4654	1142.4523	1167.9459	1182.5535	1184.2059	1209.48	1238.7185	1261.3236	1309.8667	1368.9998	1434.5721	1457.8985	1480.3258	1485.9959	1512.0956	1516.5437	1888.5487	2985.8248	2991.4773	3067.4978	3126.5581	3128.6364	3133.4027	3208.0647	3225.1688	3605.6178
COC1C(=O)NC11CC1	CO[C@H]1C(=O)NC21CC2	
InChI=1S/C6H9NO2/c1-9-4-5(8)7-6(4)2-3-6/h4H,2-3H2,1H3,(H,7,8)	InChI=1S/C6H9NO2/c1-9-4-5(8)7-6(4)2-3-6/h4H,2-3H2,1H3,(H,7,8)/t4-/m0/s1
