22
gdb 114345	2.75329	1.27991	1.17001	1.4045	81.84	-0.2127	0.0777	0.2904	1198.0109	0.194873	-404.320295	-404.311272	-404.310328	-404.35394	34.362	
C	 0.0844841562	 0.4642305379	 0.693427547	-0.241811
O	 0.3792830326	-0.8721777455	 0.356890899	-0.230446
C	 1.183305964	-1.0101368785	-0.8077640182	 0.111627
C	 1.6845375634	-2.4708940442	-0.8984205598	-0.267575
C	 1.1329860588	-3.0332312209	-2.2000823181	-0.049542
C	-0.3382193502	-3.1325794501	-2.408368583	 0.019819
C	-1.3773800895	-3.031004303	-1.3151257616	-0.446665
N	 0.4156001273	-1.984985637	-2.9595035394	-0.120101
C	 0.4239591266	-0.7566728644	-2.1473474489	-0.190889
H	 1.0038001741	 1.0525731344	 0.8413686626	 0.1065
H	-0.5251087438	 0.9677521327	-0.0714201554	 0.109221
H	-0.4783082935	 0.4449357382	 1.6298547696	 0.128787
H	 2.0277807437	-0.3106511052	-0.7171414025	 0.072886
H	 2.7771347561	-2.5069987061	-0.9126864063	 0.106223
H	 1.3531951835	-3.0176996879	-0.0111792155	 0.123717
H	 1.7930889043	-3.6735028295	-2.7809025431	 0.082511
H	-0.6479208894	-3.7981797996	-3.2141674619	 0.084872
H	-1.0619503167	-2.4196212718	-0.4689642853	 0.153185
H	-2.3071672176	-2.6076305603	-1.7134336971	 0.116649
H	-1.6127433102	-4.0344020033	-0.9428040235	 0.116378
H	-0.5952568667	-0.4046947417	-1.9541404204	 0.110884
H	 0.9296822868	 0.0159776859	-2.7357143681	 0.10377
78.2539	125.3032	167.1789	199.077	223.9793	257.2801	284.5364	399.7749	417.6462	453.5951	540.7087	685.734	704.8539	721.6473	778.3597	815.9687	886.4165	915.7444	967.4086	983.4455	1030.3191	1035.0868	1057.8309	1110.9396	1122.0965	1147.0852	1152.5472	1178.6379	1183.9472	1195.4547	1226.3001	1260.395	1277.1865	1309.0712	1330.8615	1336.1627	1377.7418	1402.6085	1425.2803	1436.276	1477.4433	1482.0468	1489.3258	1495.1499	1506.5252	1509.2475	1515.1361	2974.1573	2982.5694	3024.0818	3030.1403	3040.722	3061.5957	3078.7827	3082.9468	3095.8296	3101.4389	3114.4018	3127.3568	3147.5425
COC1CC2C(C)N2C1	CO[C@H]1C[C@H]2[C@@H](C)N2C1	
InChI=1S/C7H13NO/c1-5-7-3-6(9-2)4-8(5)7/h5-7H,3-4H2,1-2H3	InChI=1S/C7H13NO/c1-5-7-3-6(9-2)4-8(5)7/h5-7H,3-4H2,1-2H3/t5-,6+,7+,8?/m1/s1
