16
gdb 27103	3.19196	1.29691	0.92751	2.8419	76.37	-0.2027	-0.0071	0.1956	1201.1277	0.125812	-434.139933	-434.131478	-434.130533	-434.174661	30.111	
C	-0.0570227066	 1.5317462344	 0.1063658998	-0.498021
C	-0.0658042394	 0.0403471003	 0.017355463	 0.18823
C	 0.0133948081	-0.7670229431	-1.0943410904	 0.345346
N	 0.1239781694	-0.4635442496	-2.4543884194	-0.404983
C	 0.1943627307	-1.3695161023	-3.4675351187	 0.14532
O	 0.1705856647	-2.5800953485	-3.3288192771	-0.340089
N	-0.0357348484	-2.0644548386	-0.6462775458	-0.29371
C	-0.142154092	-1.9969049307	 0.7108540307	 0.001862
N	-0.1628119164	-0.7566285154	 1.1391307347	-0.308539
H	 0.0259665217	 2.0019263845	-0.8796604506	 0.0958
H	-0.9743411009	 1.9052738043	 0.5740212694	 0.141571
H	 0.783048756	 1.8866108218	 0.713033498	 0.141577
H	 0.1533281963	 0.5148138899	-2.6948982716	 0.266865
H	 0.2773556476	-0.8787595095	-4.4529525471	 0.096409
H	 0.005277759	-2.8568541482	-1.2721604101	 0.290493
H	-0.2000693198	-2.8820109794	 1.3256196253	 0.131869
19.3433	74.5024	186.9866	197.7436	261.1898	263.4968	392.4851	427.8837	547.0147	606.4133	621.9535	695.5676	696.3816	718.4119	802.2574	882.4397	966.6967	982.0816	1002.1246	1058.5656	1084.8475	1155.5051	1172.2771	1271.5162	1298.9862	1386.4294	1419.8352	1427.1041	1468.6237	1469.5744	1490.4938	1508.7974	1538.9163	1663.8825	1773.2374	2983.1786	3027.6681	3088.1555	3092.3914	3257.3507	3603.9213	3638.8123
CC1=C(NC=O)NC=N1	Cc1c(NC=O)[nH]cn1	
InChI=1S/C5H7N3O/c1-4-5(8-3-9)7-2-6-4/h2-3H,1H3,(H,6,7)(H,8,9)	InChI=1S/C5H7N3O/c1-4-5(8-3-9)7-2-6-4/h2-3H,1H3,(H,6,7)(H,8,9)
