19
gdb 47094	2.53935	1.73564	1.26933	3.0408	73.81	-0.2381	-0.0188	0.2193	1028.7353	0.161958	-423.06596	-423.058501	-423.057557	-423.098491	28.971	
O	-0.0723583325	 0.1039625168	-0.1805569295	-0.322466
C	-0.0327618005	 1.2875013294	 0.036665833	 0.40724
C	-1.1756695661	 2.1592604607	 0.5476241021	-0.315182
C	-0.8206887388	 3.5696373217	 0.0592720139	-0.235333
C	 0.7302421872	 3.6318119117	 0.0607147108	-0.04508
C	 1.3641932374	 4.0096426573	 1.4243327438	-0.089396
O	 1.7304852489	 2.7890253292	 2.054949645	-0.244072
C	 2.2038252452	 1.94634224	 1.0181374715	-0.098247
C	 1.2138459061	 2.1691841557	-0.1448731421	-0.136897
H	-2.1478051807	 1.7806705161	 0.2266325995	 0.123629
H	-1.1413521092	 2.1064288577	 1.6445189765	 0.14269
H	-1.1901427704	 3.7093215821	-0.9626963394	 0.107435
H	-1.2628591173	 4.3612531116	 0.6703781713	 0.105101
H	 1.0874400738	 4.3090007269	-0.7176888195	 0.079218
H	 2.2553454096	 4.637910108	 1.2664952499	 0.091496
H	 0.6836028861	 4.5417269245	 2.0951282877	 0.10831
H	 3.2235634472	 2.231523123	 0.7121826268	 0.091909
H	 2.2202319426	 0.9171819479	 1.3845736289	 0.129982
H	 1.6696103015	 1.9600692597	-1.1148206704	 0.099662
50.5201	139.2138	179.3338	305.6609	370.693	441.7829	500.0191	536.0273	653.6538	711.1009	727.2991	766.6199	833.1799	841.8181	930.1104	941.6352	958.7625	972.3542	989.0702	1005.2113	1050.0315	1106.6418	1122.4471	1162.6759	1167.7624	1183.1627	1210.142	1222.6087	1262.517	1287.9338	1289.9313	1306.91	1323.2856	1353.4401	1359.0218	1403.3536	1450.0534	1495.5599	1509.5207	1523.6359	1843.0025	2970.9797	2977.0062	3029.8568	3043.006	3081.8415	3085.6101	3092.8871	3099.4375	3104.5879	3118.3638
O=C1CCC2COCC12	O=C1CC[C@H]2COC[C@@H]12	
InChI=1S/C7H10O2/c8-7-2-1-5-3-9-4-6(5)7/h5-6H,1-4H2	InChI=1S/C7H10O2/c8-7-2-1-5-3-9-4-6(5)7/h5-6H,1-4H2/t5-,6+/m0/s1
