19
gdb 90112	3.46993	1.4421	1.4204	1.8642	82.47	-0.2137	0.0059	0.2196	1016.7606	0.159793	-381.907078	-381.899806	-381.898862	-381.938255	30.238	
C	-0.1087793331	 1.6656709185	 0.0713678186	-0.32296
N	-0.0447364407	 0.2184328599	 0.0120974401	-0.109364
C	-1.2430236342	-0.5687388583	 0.5384137253	-0.275442
C	-0.1895113903	-1.6426134841	 0.9212082951	 0.201038
N	 0.6170457356	-2.3828924198	 2.0498435074	-0.391072
C	 1.7819192465	-1.7331642642	 1.240434953	-0.141217
C	 1.6474847878	-2.4973948766	-0.061752579	-0.040439
C	 0.3353694206	-2.4280189444	-0.282133366	-0.071555
C	 0.7639029069	-0.5001746248	 1.0368264815	 0.061025
H	 0.84477826	 2.0855851997	-0.2639999171	 0.126885
H	-0.891505684	 2.0318237026	-0.6011335558	 0.122615
H	-0.3203878517	 2.0518460743	 1.0863878142	 0.090656
H	-1.7185322153	-0.0725034948	 1.3964562245	 0.098678
H	-1.9890952442	-0.8188229196	-0.2221859639	 0.110942
H	 0.5143346505	-1.8393712961	 2.9140002147	 0.20751
H	 2.7434167061	-1.6546734588	 1.7493610108	 0.070076
H	 2.4437931031	-2.9625943745	-0.6224948353	 0.105599
H	-0.2750269139	-2.8226422257	-1.0812481098	 0.097989
H	 0.6929976002	 0.0379399967	 1.9978911817	 0.059036
156.3837	212.2835	248.8194	311.5639	358.5435	417.6311	520.5989	549.4911	567.2068	656.4342	712.2171	716.0395	790.2805	827.2614	848.2993	876.1642	900.6246	902.8174	935.1495	964.6573	1021.2628	1052.3525	1062.9485	1094.4619	1129.2203	1134.5819	1148.5891	1167.1425	1181.5549	1216.0093	1238.4436	1257.5303	1274.5477	1280.1597	1341.596	1402.0258	1446.4861	1483.816	1495.8032	1499.4282	1628.3904	2928.2719	2942.0342	3002.4796	3061.0653	3084.0863	3103.7731	3115.5812	3230.0107	3258.6368	3386.4141
CN1CC23NC(C=C2)C13	CN1C[C@@]23N[C@@H](C=C2)[C@@H]13	
InChI=1S/C7H10N2/c1-9-4-7-3-2-5(8-7)6(7)9/h2-3,5-6,8H,4H2,1H3	InChI=1S/C7H10N2/c1-9-4-7-3-2-5(8-7)6(7)9/h2-3,5-6,8H,4H2,1H3/t5-,6+,7-/m0/s1
