22
gdb 99738	1.98274	1.19398	1.03375	2.222	78.55	-0.2421	0.0322	0.2743	1329.6447	0.191946	-441.520611	-441.509253	-441.508309	-441.557447	40.61	
C	 0.0500084062	-0.0496414955	-1.8318151139	-0.400993
C	-0.0851584331	 0.1044154099	-0.3108535084	 0.058746
C	 0.2436127241	 1.5356110161	 0.1396722936	-0.404338
C	-1.4729673872	-0.3805403803	 0.2254646118	-0.116183
C	-2.6893515141	 0.0676855714	-0.5896252011	-0.081774
O	-2.7304061059	 1.488647095	-0.6289590879	-0.424597
C	-1.4775248736	-1.9098875793	 0.2747305308	 0.404131
N	-1.1128983138	-2.4533405305	 1.4733439209	-0.522915
O	-1.7648777988	-2.6030642046	-0.6856380897	-0.373723
H	 1.0811187227	 0.1496926217	-2.1411832057	 0.103699
H	-0.218120168	-1.0586057221	-2.1561362189	 0.138911
H	-0.5950573029	 0.6646117742	-2.3536729173	 0.119038
H	 0.660660851	-0.5569738091	 0.1530350938	 0.070309
H	-0.4700820834	 2.2491223857	-0.2757328651	 0.143594
H	 0.2136080398	 1.6260180905	 1.2314432479	 0.096188
H	 1.2508324367	 1.8141410713	-0.1891580023	 0.102609
H	-1.5879048847	 0.0090640398	 1.245008815	 0.07311
H	-2.6288852628	-0.3669318962	-1.5936105489	 0.119095
H	-3.5982033887	-0.3365037606	-0.11735433	 0.09001
H	-3.4585535977	 1.7470196762	-1.2012764594	 0.287651
H	-0.8110860781	-1.8903862011	 2.2485931475	 0.25873
H	-0.9978302076	-3.4525730126	 1.5259198072	 0.258701
41.9035	60.6486	118.2516	174.9484	185.6298	196.9139	232.4682	251.2904	270.4575	289.4462	331.3401	362.4285	372.9394	420.4595	562.458	585.4656	632.9912	721.9953	814.0966	889.3729	931.0515	934.6165	970.2296	1020.1863	1031.4913	1069.9445	1095.9695	1139.7278	1159.1669	1205.6831	1229.5649	1253.0505	1278.7998	1328.6134	1367.63	1374.5826	1393.4806	1398.9285	1418.4537	1459.9452	1488.0386	1498.8991	1502.9035	1516.1336	1528.2102	1615.0413	1779.7571	2981.8047	2992.9047	3022.465	3030.5029	3037.3079	3062.0613	3088.0788	3101.2119	3121.3286	3142.0847	3599.9154	3738.5981	3830.7953
CC(C)C(CO)C(N)=O	CC(C)[C@@H](CO)C(=O)N	
InChI=1S/C6H13NO2/c1-4(2)5(3-8)6(7)9/h4-5,8H,3H2,1-2H3,(H2,7,9)	InChI=1S/C6H13NO2/c1-4(2)5(3-8)6(7)9/h4-5,8H,3H2,1-2H3,(H2,7,9)/t5-/m1/s1
