20
gdb 36860	3.76463	1.01707	0.97124	1.886	79.25	-0.2401	0.0871	0.3272	1308.257	0.170651	-403.075022	-403.066664	-403.06572	-403.108723	31.799	
C	 0.3008297425	 1.1247376256	-0.6402168282	-0.290865
N	-0.0189915278	 0.0327566291	 0.2743132316	-0.065417
C	-1.0035115874	 0.3251941352	 1.3113340682	-0.218026
C	-1.3543972029	-0.5378918572	 0.1496988356	-0.216536
C	 1.4659593229	 1.9175637301	-0.1320515615	 0.445923
C	 2.8346909184	 1.4136084078	 0.3570068617	-0.284579
C	 2.9278317132	 2.690445667	 1.265424819	-0.236552
C	 1.5590273758	 3.1190800048	 0.7210048311	-0.038536
O	 1.6827473187	 3.2135187859	-0.7060868629	-0.296846
H	 0.5566437071	 0.6834831766	-1.6126015629	 0.113008
H	-0.5468110824	 1.8123506671	-0.8068180602	 0.094053
H	-0.8098951776	-0.1116408393	 2.2867393864	 0.11729
H	-1.43606518	 1.3242756258	 1.3368563737	 0.11128
H	-2.0223306052	-0.1141752014	-0.5988066964	 0.111603
H	-1.4204043168	-1.6165237659	 0.2598797158	 0.118704
H	 2.7595046276	 0.489551986	 0.9322557349	 0.122163
H	 3.5911329111	 1.3059399527	-0.4240449362	 0.103424
H	 2.9117647678	 2.4492001627	 2.3308931159	 0.104757
H	 3.7441062954	 3.3867707951	 1.0596548374	 0.109625
H	 0.7906482595	 3.7268654422	 1.186521017	 0.095528
63.0473	75.3992	126.4029	228.9873	311.7327	335.5805	373.0313	456.9361	488.2724	677.2594	747.5609	771.041	777.6271	837.2045	868.4033	893.3597	912.4987	924.6818	955.0174	990.3161	1023.1675	1032.8174	1038.6691	1082.6293	1113.2433	1119.7388	1147.3642	1156.7274	1175.1009	1208.2983	1211.5275	1216.2919	1258.3442	1272.586	1303.3894	1323.2605	1367.8376	1459.9399	1464.2872	1482.7372	1493.2134	1495.2428	1521.955	2952.1077	3036.7351	3065.546	3074.1203	3093.9765	3098.5186	3118.9226	3139.3091	3176.3768	3177.32	3191.3854
C(N1CC1)C12CCC1O2	C(N1CC1)[C@]12CC[C@H]1O2	
InChI=1S/C7H11NO/c1-2-7(6(1)9-7)5-8-3-4-8/h6H,1-5H2	InChI=1S/C7H11NO/c1-2-7(6(1)9-7)5-8-3-4-8/h6H,1-5H2/t6-,7-/m1/s1
