18
gdb 68986	3.29164	1.07903	0.95598	4.3148	76.63	-0.2621	0.0369	0.299	1254.3866	0.147104	-401.934392	-401.925655	-401.924711	-401.96821	32.705	
O	-0.2477649406	 1.383131967	 0.1347649806	-0.463847
C	-0.0882446847	 0.0169743241	-0.0085756924	 0.337625
C	-0.3935722524	-0.9503755048	 1.1029845485	-0.381787
C	-1.1957169094	-1.0153270695	-0.1805814842	 0.308899
C	-2.6907128577	-0.8123313315	-0.2091859313	-0.453961
C	-3.4349033336	-2.0064100465	 0.2020830093	 0.264082
N	-4.0050126204	-2.9583727779	 0.5247176279	-0.310479
C	-0.3676821717	-1.7389284493	-1.251538468	-0.28157
C	 0.7520164793	-0.6515088127	-1.1017571197	-0.2824
H	 0.3650398688	 1.6975892943	 0.8084518479	 0.290529
H	 0.2918047221	-1.7517914128	 1.3705334704	 0.111634
H	-0.9240030694	-0.508063519	 1.9411482829	 0.117937
H	-2.9661813938	 0.0175816562	 0.45174562	 0.158873
H	-3.0208887413	-0.5317726095	-1.2170305089	 0.15118
H	-0.0835587841	-2.7679220054	-1.0135560618	 0.110872
H	-0.8342521436	-1.7227611712	-2.2395414545	 0.109582
H	 0.832077112	-0.0235194434	-1.991538885	 0.115014
H	 1.7508704206	-0.994368238	-0.8133546318	 0.097816
51.6911	97.5408	183.389	210.2644	259.6774	327.5878	374.675	391.3132	423.7724	462.7658	533.7413	622.6088	705.727	782.3978	800.3905	877.3948	905.2605	928.0648	938.9348	944.7948	985.1948	1028.3948	1073.5206	1117.1968	1131.2566	1199.0227	1215.3617	1232.8808	1242.0895	1273.6179	1317.3105	1324.5246	1348.5739	1416.1709	1457.0471	1481.7318	1482.3205	1523.298	2360.6947	3034.7809	3048.9578	3058.9079	3074.7021	3102.7572	3103.6082	3121.3411	3197.7441	3796.383
OC12CC1(CC#N)CC2	O[C@@]12C[C@]1(CC#N)CC2	
InChI=1S/C7H9NO/c8-4-3-6-1-2-7(6,9)5-6/h9H,1-3,5H2	InChI=1S/C7H9NO/c8-4-3-6-1-2-7(6,9)5-6/h9H,1-3,5H2/t6-,7+/m1/s1
