17
gdb 77930	2.37675	1.4468	1.39404	4.189	64.14	-0.2391	0.0628	0.3019	1025.0249	0.134662	-496.032525	-496.023966	-496.023022	-496.064886	33.69	
O	 0.0489128195	 1.4715446925	-0.0443301064	-0.450292
C	 0.0650389877	 0.0548526759	 0.0258981939	 0.0449
C	-0.0288875394	-0.6620947769	 1.4097097339	-0.233264
C	-1.5169639505	-0.1626309275	 1.5145897657	 0.142302
O	-1.8252446149	 1.1500757163	 1.8406659472	-0.451114
C	-1.3406244059	-0.6336613171	 0.0356918018	 0.308023
O	-2.3223063754	-0.5970636713	-0.9259863265	-0.467569
C	-0.6251920586	-1.875368366	 0.632510628	 0.06145
O	 0.1666669994	-2.5930892948	-0.2839400747	-0.445652
H	 0.9439150761	 1.7931781945	 0.1035811246	 0.292466
H	 0.7947114423	-0.3594065832	-0.6730691475	 0.091205
H	 0.7206869599	-0.6884605696	 2.197795507	 0.076784
H	-2.1697303276	-0.8033717112	 2.1153650623	 0.080831
H	-1.2872625364	 1.7149483216	 1.2671884434	 0.29019
H	-1.9901614197	-1.0386655008	-1.7164016376	 0.291251
H	-1.2645977428	-2.5387478021	 1.2264926986	 0.07889
H	 0.6990655263	-3.2266347604	 0.2064100564	 0.289601
183.1623	203.6581	243.0526	260.9369	281.0208	283.2577	301.7542	313.9442	415.2994	472.1563	531.6351	541.5376	602.2065	665.2789	713.3296	757.8403	838.0905	898.2665	931.7984	954.5695	1003.2618	1048.2233	1109.6205	1117.9995	1132.5649	1158.1036	1182.5191	1214.3862	1231.1819	1277.3629	1297.1662	1318.3015	1351.9252	1377.9154	1425.6489	1464.6701	1513.7175	3037.2632	3067.645	3087.0303	3143.0845	3718.1576	3794.4072	3819.9585	3824.9743
OC1C2C(O)C1(O)C2O	O[C@H]1[C@H]2[C@@H](O)[C@]1(O)[C@H]2O	
InChI=1S/C5H8O4/c6-2-1-3(7)5(2,9)4(1)8/h1-4,6-9H	InChI=1S/C5H8O4/c6-2-1-3(7)5(2,9)4(1)8/h1-4,6-9H/t1-,2-,3-,4+,5-/m0/s1
