15
gdb 31873	4.94386	1.02007	0.85008	1.3112	71.87	-0.2362	-0.0426	0.1936	1273.9517	0.113857	-453.995116	-453.987193	-453.986248	-454.028224	29.063	
O	-0.0236593213	 1.4394699091	 0.0027560183	-0.41726
C	-0.0094628922	 0.0244641282	 0.0392943242	-0.153459
C	-1.4275247503	-0.4874480555	 0.0131886355	 0.275408
C	-2.5339707819	 0.3526055266	-0.0316145937	-0.057868
N	-3.785391169	-0.1265878673	-0.053995918	-0.343001
C	-3.9176705059	-1.4422857955	-0.0310305007	 0.40451
O	-5.1576973023	-1.9682862944	-0.0516738671	-0.414606
C	-2.808660384	-2.3027103202	 0.0145191681	-0.088633
N	-1.5767575959	-1.82123188	 0.0360413999	-0.286217
H	 0.884922516	 1.7505899782	 0.0272755226	 0.295378
H	 0.533558359	-0.4017258805	-0.8190331146	 0.111673
H	 0.4848183737	-0.3562997014	 0.9470524034	 0.111571
H	-2.4126692637	 1.4288469173	-0.0503237484	 0.138144
H	-5.7697443364	-1.2193637081	-0.0822357623	 0.300783
H	-2.9458137158	-3.3798158365	 0.0327765729	 0.123576
49.2824	123.5752	201.9587	215.4546	344.4997	377.3635	437.2311	463.74	497.183	556.0349	576.5058	660.6829	764.3468	790.3409	895.2465	920.1851	963.909	1040.2367	1046.6572	1096.5996	1171.6212	1203.4637	1239.3431	1256.7053	1278.7447	1318.5423	1351.5697	1436.045	1458.185	1506.6284	1526.2043	1600.0932	1641.2797	2973.4077	2997.4095	3174.3167	3211.6886	3762.6596	3848.444
OCC1=CN=C(O)C=N1	OCc1cnc(O)cn1	
InChI=1S/C5H6N2O2/c8-3-4-1-7-5(9)2-6-4/h1-2,8H,3H2,(H,7,9)	InChI=1S/C5H6N2O2/c8-3-4-1-7-5(9)2-6-4/h1-2,8H,3H2,(H,7,9)
