18
gdb 50037	3.84056	1.098	0.9937	3.9125	81.02	-0.2419	-0.0005	0.2414	1225.6482	0.147987	-401.957554	-401.949369	-401.948425	-401.9911	30.371	
O	-0.0274690683	 0.3748403768	 0.6684515641	-0.289727
C	 0.0371990039	 1.4914320588	 0.2136830306	 0.137594
N	 1.0737749709	 1.971735483	-0.5684768263	-0.107386
C	 2.4625538864	 1.655326449	-0.3283078486	-0.297662
C	 1.9778128169	 3.0771803438	-0.2229391673	 0.300957
C	 2.2801594811	 4.1641588605	-1.2644097075	-0.300219
C	 2.0635235402	 5.5122002117	-0.523667009	-0.266776
C	 1.8954451626	 5.1058755873	 0.9214037294	-0.07269
C	 1.8492144586	 3.7833600208	 1.0802772967	-0.13272
H	-0.773130299	 2.2375296435	 0.3206318155	 0.084921
H	 2.6926583976	 1.1123132744	 0.5857009685	 0.134175
H	 3.03963599	 1.3577184478	-1.2005583217	 0.123677
H	 3.3175682803	 4.076158914	-1.600155272	 0.115598
H	 1.6408432666	 4.0499205102	-2.1417955627	 0.122173
H	 2.9078930541	 6.1967907911	-0.6614656909	 0.114239
H	 1.1764312792	 6.0492272502	-0.8837375027	 0.116809
H	 1.8114167337	 5.8313513724	 1.7227521148	 0.104831
H	 1.7153450552	 3.2526652347	 2.016188299	 0.112208
50.5767	90.4319	154.4595	207.2136	305.7836	337.481	364.0348	496.0182	522.1566	625.7157	748.0736	772.4978	820.2299	825.058	876.313	904.6969	934.2704	944.1125	976.0762	997.4068	1039.6468	1052.6994	1113.9765	1120.7706	1132.8995	1176.2039	1202.7331	1231.7527	1253.4424	1294.8043	1327.0393	1359.8274	1415.0028	1422.2586	1477.0249	1496.5579	1505.1312	1679.3541	1794.5874	2955.2913	3025.0432	3054.6961	3067.5428	3100.7051	3117.7252	3187.9384	3189.6689	3211.9533
O=CN1CC11CCC=C1	O=CN1C[C@]21CCC=C2	
InChI=1S/C7H9NO/c9-6-8-5-7(8)3-1-2-4-7/h1,3,6H,2,4-5H2	InChI=1S/C7H9NO/c9-6-8-5-7(8)3-1-2-4-7/h1,3,6H,2,4-5H2/t7-,8?/m1/s1
