18
gdb 8455	3.89077	1.82412	1.6639	2.2269	66.91	-0.2419	0.0826	0.3246	855.4821	0.154593	-384.928271	-384.921172	-384.920228	-384.959089	28.705	
C	 0.0072266316	 1.4800098508	 0.1257000132	-0.495728
C	-0.031711842	-0.0138099929	-0.0214010763	 0.421562
C	 0.6807363643	-0.8002565491	-1.153891353	-0.27577
C	 0.6940571882	-1.8416303813	-0.025516121	 0.034229
O	 0.8174254163	-0.7493642424	 0.9444626954	-0.349456
C	-0.7859284953	-2.2236843688	 0.1946307862	 0.175418
O	-0.9779327348	-2.8468993099	 1.4439517948	-0.447803
C	-1.3709013028	-0.772999391	 0.1111662398	-0.301071
H	 1.0310714182	 1.854618627	 0.0418752504	 0.127829
H	-0.6019006589	 1.9529719201	-0.6514984884	 0.124328
H	-0.3927468453	 1.7800677691	 1.0998319299	 0.129656
H	 0.1316925033	-1.0153901909	-2.0746398439	 0.095436
H	 1.6769955907	-0.4078684851	-1.3638414391	 0.109729
H	 1.4459270489	-2.622714595	 0.0842160775	 0.083103
H	-1.1837119396	-2.9043017719	-0.5619849934	 0.083169
H	-0.5116486839	-2.288353637	 2.0806992343	 0.280504
H	-1.9075261785	-0.5192698726	 1.0286743021	 0.105165
H	-2.0356376006	-0.6121970391	-0.7420493085	 0.099701
148.9036	199.6061	271.6602	308.4506	380.806	455.4502	462.3752	506.8001	583.4859	631.3223	739.1046	801.7846	824.1163	846.8452	882.5613	906.3477	931.0508	970.7717	997.0331	1035.956	1046.6151	1088.2449	1119.7848	1153.8631	1194.0485	1217.6492	1229.1317	1261.1811	1280.2153	1295.1901	1320.3626	1347.0372	1416.1074	1441.9814	1476.4619	1481.142	1492.5427	1498.7951	3037.7701	3059.8988	3064.3951	3087.6176	3107.0003	3116.2047	3117.5269	3129.7994	3136.4377	3757.1921
CC12CC(O1)C(O)C2	C[C@@]12C[C@@H](O1)[C@@H](O)C2	
InChI=1S/C6H10O2/c1-6-2-4(7)5(3-6)8-6/h4-5,7H,2-3H2,1H3	InChI=1S/C6H10O2/c1-6-2-4(7)5(3-6)8-6/h4-5,7H,2-3H2,1H3/t4-,5+,6+/m0/s1
