18
gdb 16970	3.24355	2.24328	2.01687	2.436	65.73	-0.2441	0.0783	0.3224	770.1778	0.157351	-384.95165	-384.945351	-384.944407	-384.981798	26.161	
O	 0.1062969595	 1.3936381229	-0.1159256571	-0.447413
C	 0.065008983	-0.0118242353	-0.0273984867	 0.161814
C	 0.6837370962	-0.6023481739	 1.2908661323	-0.253944
C	-0.5190771302	-1.3106303818	 1.9545770552	-0.037758
C	-1.544116469	-0.2371978915	 2.3469481307	-0.081062
O	-2.0318256622	 0.2609008729	 1.077144473	-0.298466
C	-1.3875018308	-0.5381187571	 0.0606157086	 0.064956
C	-1.2354339583	-1.9079368856	 0.7205220187	-0.234943
H	-0.6534476455	 1.7007525144	 0.3995351413	 0.284458
H	 0.577551243	-0.3986964136	-0.9138578066	 0.080381
H	 1.4838997355	-1.3159050552	 1.0725238041	 0.096383
H	 1.1053017618	 0.2002363787	 1.9016911859	 0.104879
H	-0.2712601807	-1.9991315355	 2.7634616373	 0.069045
H	-2.3870637945	-0.6462635396	 2.918426637	 0.101529
H	-1.1041997723	 0.5892516496	 2.9168725646	 0.102357
H	-1.9742682098	-0.4559731349	-0.8543104198	 0.078653
H	-0.6089192801	-2.5970607146	 0.1480000587	 0.103413
H	-2.1947142857	-2.38185633	 0.9438447627	 0.10572
132.5902	295.9993	347.9418	430.978	451.0956	502.9567	525.6508	608.4045	767.5474	796.3344	828.0118	843.0354	892.0844	930.2664	937.9389	954.3682	965.0825	980.4958	1010.4635	1049.0167	1090.4676	1105.0703	1142.6432	1164.3841	1188.0847	1228.323	1244.8059	1268.8856	1292.944	1311.2004	1322.2881	1334.9584	1350.5131	1382.1779	1447.4266	1481.6907	1497.3703	1529.0034	3015.843	3049.4871	3059.0033	3060.3407	3065.4573	3105.204	3108.5809	3118.4851	3124.4853	3729.5316
OC1CC2COC1C2	O[C@H]1C[C@H]2CO[C@@H]1C2	
InChI=1S/C6H10O2/c7-5-1-4-2-6(5)8-3-4/h4-7H,1-3H2	InChI=1S/C6H10O2/c7-5-1-4-2-6(5)8-3-4/h4-7H,1-3H2/t4-,5+,6-/m1/s1
