19
gdb 15230	2.31422	1.82554	1.29846	4.0922	75.91	-0.2794	0.0318	0.3112	1042.3511	0.164941	-327.942772	-327.933773	-327.932829	-327.976421	32.444	
C	-0.2921890143	 1.4956146618	-0.1555559696	-0.378342
C	 0.1923294645	 0.0663995042	 0.114808845	-0.206103
C	 0.8092228077	-0.5744414589	-1.11197848	-0.008501
C	 0.9255057789	-2.0585659351	-1.3142398705	-0.043468
C	 0.4412819196	-3.0789835336	-0.308246013	-0.413864
C	-0.0537394076	-1.2584537867	-2.1774214289	-0.198311
C	-1.4658726669	-1.3954919422	-1.9657876809	 0.29287
N	-2.605438177	-1.5037765104	-1.7910682454	-0.354314
H	 0.5266206505	 2.1321707175	-0.5088852011	 0.112493
H	-1.0780943194	 1.5043671364	-0.91694041	 0.134747
H	-0.6997832691	 1.9488574279	 0.7526762404	 0.117877
H	 0.9410975016	 0.0733685382	 0.9171089063	 0.10223
H	-0.6448558784	-0.5364127934	 0.4791405878	 0.120478
H	 1.6182716953	 0.0116957516	-1.5424583843	 0.096551
H	 1.8072365494	-2.3747135972	-1.8655396961	 0.100047
H	-0.5067432903	-2.7923964506	 0.1514710829	 0.143658
H	 0.289845523	-4.0494749977	-0.791257687	 0.129751
H	 1.179528501	-3.2129709581	 0.4893615785	 0.123732
H	 0.2144629915	-1.0981067036	-3.2161344844	 0.12847
72.354	132.5572	132.7732	161.3216	201.1122	235.9781	284.1318	370.7478	396.3153	508.9252	596.2285	628.1743	733.1404	778.7031	807.5065	834.8906	941.3559	959.0327	986.3714	1029.4203	1056.8332	1092.0514	1123.5736	1142.7116	1150.2498	1196.9498	1254.0113	1298.8172	1338.0356	1363.7593	1397.6497	1415.3462	1425.9229	1441.2222	1482.9081	1493.7275	1501.1052	1501.8753	1507.5427	2344.2594	3029.7066	3035.6382	3041.9017	3079.8719	3101.4473	3105.6614	3115.0666	3125.7581	3130.4892	3146.5032	3169.1434
CCC1C(C)C1C#N	CC[C@H]1[C@@H](C)[C@H]1C#N	
InChI=1S/C7H11N/c1-3-6-5(2)7(6)4-8/h5-7H,3H2,1-2H3	InChI=1S/C7H11N/c1-3-6-5(2)7(6)4-8/h5-7H,3H2,1-2H3/t5-,6+,7-/m1/s1
