17
gdb 88408	2.33381	1.36554	0.94042	2.4071	74.82	-0.2521	-0.0486	0.2034	1224.8343	0.13297	-421.778004	-421.768816	-421.767872	-421.81225	33.757	
O	-0.0839006776	 1.4754196422	 0.5096916034	-0.429676
C	-0.0068718725	 0.1392608059	 0.1231705486	 0.105984
C	-0.4734170513	-0.8844811989	 1.115853536	-0.313847
C	-1.2877814587	-0.6185009073	-0.1342662555	-0.03693
C	-2.6153645466	 0.1341061752	-0.028229081	-0.307583
C	-2.8200841991	 1.0521971041	-1.2473273054	 0.153929
O	-1.9959462845	 1.8537092509	-1.6117744199	-0.250965
C	-3.7589420789	-0.750597465	 0.160630655	 0.291683
C	-4.7101624713	-1.4770916456	 0.266958619	-0.409922
H	-0.4705966529	 1.9502806781	-0.242422676	 0.297103
H	 0.8483287514	-0.1145084044	-0.5032072658	 0.089225
H	 0.0602456151	-1.8247184854	 1.1938347302	 0.117742
H	-0.8627512193	-0.5022800576	 2.053112431	 0.127229
H	-1.2726537843	-1.3786071502	-0.9093168039	 0.099066
H	-2.5332049505	 0.8234586198	 0.8237397296	 0.15209
H	-3.789078684	 0.9455430732	-1.7755840614	 0.113208
H	-5.5477293651	-2.1197240248	 0.3834956562	 0.201664
75.0539	96.4792	124.7587	186.0861	203.7005	236.4379	315.9642	427.0714	476.6272	520.8046	530.8175	585.533	614.4702	634.9479	657.4061	779.0146	820.3013	865.0539	943.1552	976.4869	1006.5118	1047.9008	1059.1029	1071.6903	1132.3995	1153.5446	1176.3602	1239.978	1242.3989	1276.407	1355.1214	1376.7832	1411.7615	1434.0577	1484.9392	1809.8498	2240.0552	2934.289	3021.1794	3097.8295	3139.5575	3156.0626	3228.94	3502.8065	3697.3326
OC1CC1C(C=O)C#C	O[C@H]1C[C@H]1[C@@H](C=O)C#C	
InChI=1S/C7H8O2/c1-2-5(4-8)6-3-7(6)9/h1,4-7,9H,3H2	InChI=1S/C7H8O2/c1-2-5(4-8)6-3-7(6)9/h1,4-7,9H,3H2/t5-,6+,7+/m1/s1
