17
gdb 7055	2.68686	1.19216	0.86179	3.855	75.87	-0.2571	0.0227	0.2799	1341.1957	0.139202	-363.837969	-363.828089	-363.827145	-363.874777	32.734	
C	 0.4080824246	 1.0511331495	-0.1385680436	-0.498109
C	 0.1139566965	-0.3727397919	-0.0766154602	 0.014208
C	-0.1296738297	-1.5510992291	-0.0310713093	 0.132345
C	-0.4273680334	-2.9828160272	 0.0208123358	-0.057745
C	-1.9230149337	-3.276245534	-0.0818913885	-0.390508
O	 0.19489275	-3.6968691701	-1.0673847135	-0.182898
C	 1.5405648887	-3.776814563	-1.0394973854	 0.132935
N	 2.1522450592	-4.3856010598	-1.9605895672	-0.441688
H	 0.926672969	 1.3027180909	-1.0699674181	 0.157758
H	-0.5098782076	 1.6473260108	-0.0985627631	 0.15401
H	 1.0470720144	 1.3639760067	 0.6942226175	 0.151358
H	-0.0450552799	-3.3955459939	 0.9660518605	 0.107572
H	-2.4558982066	-2.7914505333	 0.7394289013	 0.12818
H	-2.3137953052	-2.8972147734	-1.0287975887	 0.142608
H	-2.0914410342	-4.3548535186	-0.0352385219	 0.131365
H	 1.9947907055	-3.280015788	-0.1722585654	 0.091599
H	 3.1543481523	-4.3618827156	-1.7828471702	 0.227009
21.2403	57.7772	77.4873	124.0409	146.1558	210.5612	245.9846	298.1334	336.8531	415.8242	482.5938	548.6525	641.2149	733.0591	819.7649	908.1496	999.7378	1040.52	1050.8982	1053.5422	1079.5912	1111.7504	1125.5765	1190.5192	1295.1682	1345.7379	1357.9452	1405.5156	1413.9463	1427.9639	1475.8572	1477.3856	1482.517	1494.7746	1745.7782	2369.1847	2992.4579	3030.2624	3034.3314	3055.0265	3092.5815	3094.035	3136.4166	3140.5386	3515.5925	21.2454	57.7772	77.4874	124.041	146.1561	210.5614	245.985	298.1334	336.8531	415.8242	482.5938	548.6525	641.2149	733.0592	819.7649	908.1496	999.7378	1040.5201	1050.8982	1053.5422	1079.5912	1111.7504	1125.5764	1190.5191	1295.1682	1345.7377	1357.9451	1405.5154	1413.9462	1427.964	1475.8571	1477.3854	1482.5167	1494.7744	1745.7783	2369.1847	2992.4579	3030.2624	3034.3314	3055.0265	3092.5815	3094.035	3136.4166	3140.5386	3515.5926
CC#CC(C)OC=N	CC#C[C@@H](C)O[CH][NH]	
InChI=1S/C6H9NO/c1-3-4-6(2)8-5-7/h5-7H,1-2H3	InChI=1S/C6H9NO/c1-3-4-6(2)8-5-7/h5-7H,1-2H3/t6-/m1/s1
