16
gdb 45057	2.59993	1.82941	1.27731	2.8603	68.83	-0.2385	-0.0465	0.192	977.2634	0.1243	-437.851866	-437.844581	-437.843637	-437.883769	28.169	
O	 0.0476048236	 0.0750311806	-0.4908186592	-0.298894
C	-0.0145490572	 1.2034410162	-0.0832995993	 0.317239
C	-1.2732689332	 1.997975963	 0.2867846506	-0.284346
N	-0.8583159941	 3.2915498938	 0.8471061232	-0.10301
C	-0.0696411882	 3.1653684832	 2.0749147894	-0.252707
C	 0.6305634325	 3.3689891293	 0.7790121025	-0.144376
C	 1.1697546532	 2.1435908016	 0.11935677	 0.353408
C	 2.5452980639	 1.6323981979	 0.1671252369	-0.237236
O	 2.0496450838	 2.2805873209	-1.0019585405	-0.268365
H	-1.8527499385	 2.1691255075	-0.6285744799	 0.150354
H	-1.9098392999	 1.4381030762	 0.9784353688	 0.141632
H	-0.1665440243	 3.9932927986	 2.7707007699	 0.129864
H	 0.0070505646	 2.1857704517	 2.5469737184	 0.117232
H	 1.0619473907	 4.3280083978	 0.5113647186	 0.117174
H	 3.2930290136	 2.1871257944	 0.7319460837	 0.123835
H	 2.7040074894	 0.5598721477	 0.069769267	 0.138195
74.9409	185.2686	252.2181	259.3824	366.0712	435.3652	469.0655	557.0741	572.4848	659.6536	693.5837	778.3278	831.3648	852.0552	875.6576	947.9824	979.268	1030.5836	1035.8329	1073.1628	1083.592	1117.7856	1131.54	1154.6787	1171.5598	1218.2114	1248.9858	1270.0271	1289.0951	1328.8745	1437.8267	1454.1642	1508.4682	1513.6611	1854.8818	3041.5471	3086.6919	3089.0653	3093.6924	3166.537	3184.2706	3186.8106
O=C1CN2CC2C11CO1	O=C1CN2C[C@H]2[C@]21CO2	
InChI=1S/C6H7NO2/c8-5-2-7-1-4(7)6(5)3-9-6/h4H,1-3H2	InChI=1S/C6H7NO2/c8-5-2-7-1-4(7)6(5)3-9-6/h4H,1-3H2/t4-,6-,7?/m0/s1
