21
gdb 121128	3.08657	0.89833	0.85116	2.1457	75.08	-0.2439	0.0694	0.3133	1459.6419	0.182028	-461.358304	-461.348527	-461.347582	-461.393762	35.439	
O	-0.6624361695	 1.3831412975	-0.4640952834	-0.42448
C	-0.2914013447	 0.019578737	-0.3063146459	-0.077056
C	-1.5526904673	-0.7713299263	 0.0126030901	-0.179528
C	-1.2758737583	-2.2517386603	 0.2660713999	 0.127357
C	-2.5488531099	-3.0964378787	 0.5043782043	-0.267379
C	-2.7946630046	-3.7647891215	-0.8506259731	 0.11534
O	-3.5440990603	-2.8546236826	-1.6459243373	-0.430034
C	-1.3587975404	-3.9479164939	-1.3491031264	-0.090394
O	-0.6343017785	-2.8198286762	-0.89266489	-0.274297
H	 0.1179584169	 1.8734296131	-0.7377157786	 0.282667
H	 0.1699355415	-0.3823149062	-1.218726943	 0.102411
H	 0.4397734699	-0.0992714746	 0.5119061733	 0.074973
H	-2.0229016904	-0.3376604591	 0.9039387471	 0.096719
H	-2.2642323227	-0.680795509	-0.8136991296	 0.123501
H	-0.5839326279	-2.3532546371	 1.1147894277	 0.067027
H	-2.3735278487	-3.8607594599	 1.2665735647	 0.102021
H	-3.4077008979	-2.4955065751	 0.8086278231	 0.121677
H	-3.31954291	-4.7260039956	-0.7572844675	 0.06588
H	-3.5395451477	-3.1710321285	-2.5548534353	 0.283212
H	-0.9365058301	-4.8839409031	-0.9458813413	 0.08585
H	-1.2883813794	-3.99041332	-2.4429016191	 0.094532
47.9441	96.5002	108.7505	131.6143	186.112	257.4831	279.4622	328.4751	380.6032	389.5967	407.8204	492.9817	721.6809	791.3785	801.7002	834.0429	867.979	891.6237	962.7741	983.7726	1004.5087	1028.2325	1052.5179	1070.4066	1091.9279	1121.1358	1160.8924	1191.2755	1203.6431	1224.9385	1244.3022	1265.0294	1307.1807	1311.2909	1325.9384	1338.5988	1354.2323	1390.8757	1405.1165	1418.7987	1459.3432	1478.9226	1486.7702	1511.6726	1529.9666	2953.0808	2959.83	2990.0086	3004.9319	3021.8186	3039.3424	3047.5856	3069.1143	3100.9245	3125.8206	3818.868	3829.8621
OCCC1CC(O)CO1	OCC[C@H]1C[C@@H](O)CO1	
InChI=1S/C6H12O3/c7-2-1-6-3-5(8)4-9-6/h5-8H,1-4H2	InChI=1S/C6H12O3/c7-2-1-6-3-5(8)4-9-6/h5-8H,1-4H2/t5-,6+/m1/s1
