19
gdb 74547	3.37019	1.5437	1.33863	0.882	87.82	-0.1848	-0.0102	0.1747	1029.262	0.160502	-348.698455	-348.691159	-348.690215	-348.729743	29.9	
C	 0.2166432102	 1.3920091139	-0.0993260538	-0.497082
C	-0.0332597806	-0.0825130714	-0.0878042279	 0.337858
C	-0.2853913759	-0.8830392425	-1.1425241223	-0.266314
C	-0.1841963477	-2.2672789363	-0.5711242986	 0.074491
C	 0.9704955859	-2.9554328394	-0.6262755974	-0.100838
C	 1.5464063727	-3.1345807378	 0.7749322445	-0.26324
C	 0.5812598054	-2.2855268151	 1.6108553653	-0.049171
C	-0.0860859893	-0.8746825033	 1.2141366457	-0.136853
C	-0.6973124978	-2.1876591426	 0.8655319814	-0.115298
H	 1.2184377753	 1.623384788	 0.2850747649	 0.128681
H	 0.1347805948	 1.8063085253	-1.1077939958	 0.12304
H	-0.4941518318	 1.9252574599	 0.5457611433	 0.123794
H	-0.2688123397	-0.6003771647	-2.1868438403	 0.099772
H	 1.6200618262	-2.9626590154	-1.496248029	 0.089584
H	 1.5937640967	-4.1625818612	 1.1685734777	 0.100724
H	 2.5795443913	-2.7614536727	 0.7701445494	 0.109583
H	 0.5806790411	-2.4277807384	 2.68890388	 0.080575
H	-0.4065948705	-0.3354089874	 2.1022856254	 0.079155
H	-1.6808825564	-2.5397927988	 1.1626012674	 0.081539
145.6039	178.068	258.288	298.2078	324.1318	405.062	525.859	563.1558	653.2119	692.8205	737.0522	749.3726	798.2803	808.9436	842.12	858.2965	899.9225	928.6327	968.3667	995.4805	1003.0564	1024.1597	1060.2932	1066.3605	1106.5002	1114.9267	1136.9124	1161.2043	1193.6548	1251.4803	1261.439	1300.9459	1318.7988	1344.5118	1378.9071	1409.3115	1475.4025	1478.6648	1486.0031	1616.6414	1642.7212	2972.7199	3012.0555	3027.9436	3056.3281	3109.627	3132.9881	3136.5339	3150.637	3171.5582	3219.0541
CC1=CC2=CCC3C1C23	CC1=C[C]2[CH]C[C@H]3[C@@H]1[C@@H]23	
InChI=1S/C9H10/c1-5-4-6-2-3-7-8(5)9(6)7/h2,4,7-9H,3H2,1H3	InChI=1S/C9H10/c1-5-4-6-2-3-7-8(5)9(6)7/h2,4,7-9H,3H2,1H3/t7-,8+,9-/m0/s1
