18
gdb 51367	4.34898	0.94486	0.87674	3.3722	76.34	-0.2212	-0.0219	0.1992	1331.1075	0.145774	-401.847973	-401.839754	-401.83881	-401.882539	30.792	
O	 0.091264479	-0.4313657286	-0.1745596555	-0.242247
C	 0.3753708266	 0.6332312638	-0.6552422687	 0.144658
C	 1.2623976605	 1.6676682375	 0.0406372169	-0.242967
N	 1.4122141304	 2.8410759604	-0.7989522992	-0.077376
C	 1.3328706506	 4.2455838976	-0.5262505015	-0.068168
C	 2.2166723636	 4.7966458547	 0.6470561338	-0.067312
C	 3.02212728	 3.7614569697	 1.3818832345	-0.309737
C	 3.4462805087	 4.1772782094	 0.0007539236	-0.067309
C	 2.548770033	 3.6331101156	-1.1653378013	-0.068167
H	 0.0131567734	 0.9582603295	-1.656582661	 0.086339
H	 0.7941903727	 1.9017685355	 1.0044853229	 0.144874
H	 2.2225832519	 1.1821020302	 0.2534819446	 0.144873
H	 0.5341610489	 4.8292380843	-0.9721334304	 0.099567
H	 2.0994442292	 5.8071189642	 1.0159840959	 0.094158
H	 3.6454715071	 4.1781308122	 2.1685142071	 0.117364
H	 2.6492185567	 2.7759523673	 1.6168225607	 0.117725
H	 4.4011159262	 4.647740172	-0.1938258672	 0.094157
H	 2.8720735815	 3.6515630446	-2.2009703052	 0.099567
17.7029	82.6566	132.8236	227.2796	297.5044	367.7962	461.4	466.9479	651.6068	686.6082	716.9032	726.8957	734.9772	786.7625	851.3093	888.6978	920.7951	944.8424	959.2002	1018.5137	1032.0772	1033.2645	1058.0738	1072.2078	1083.5798	1086.4853	1122.0024	1179.1913	1249.862	1263.8109	1268.9168	1277.9379	1310.266	1334.2432	1386.2239	1426.9235	1436.2085	1494.0982	1839.2226	2887.3266	3019.3097	3071.3517	3141.5984	3156.5507	3167.0083	3194.1886	3204.582	3249.4618
O=CCN1C2C3CC3C12	O=CCN1[C@H]2[C@H]3C[C@H]3[C@@H]12	
InChI=1S/C7H9NO/c9-2-1-8-6-4-3-5(4)7(6)8/h2,4-7H,1,3H2	InChI=1S/C7H9NO/c9-2-1-8-6-4-3-5(4)7(6)8/h2,4-7H,1,3H2/t4-,5+,6-,7+,8?
