21
gdb 89540	3.83344	1.10898	1.05609	1.663	82.79	-0.2265	0.0782	0.3046	1245.6282	0.182613	-387.033274	-387.024969	-387.024025	-387.066337	32.489	
C	-0.3564647149	 1.4629353434	-0.0258786715	-0.391844
C	 0.0381815776	-0.0092126234	-0.0245934363	 0.042059
C	 1.2739093259	-0.3532028986	-0.9205315485	-0.32028
C	 2.0953685066	-0.5352863165	 0.3586419714	 0.372623
C	 0.8401720846	-0.468330021	 1.2378842452	-0.335076
C	 3.3175373334	-1.3692838082	 0.6560936446	-0.231925
C	 4.3122796917	-1.2188759933	-0.4909443664	-0.088408
O	 4.2411223134	 0.2328297789	-0.4217930553	-0.286554
C	 3.3759472291	 0.1448276008	 0.7130599372	 0.025423
H	 0.5092618603	 2.1023256077	 0.1817730509	 0.117923
H	-0.7633789628	 1.7616689782	-0.9981687209	 0.114137
H	-1.1161674721	 1.6714495189	 0.7357392916	 0.111209
H	-0.8401377928	-0.6270344078	-0.2307936042	 0.067113
H	 1.1480344659	-1.2751564926	-1.496971754	 0.094145
H	 1.6185339306	 0.4364317928	-1.5937723729	 0.109474
H	 0.8627008808	 0.2380098936	 2.0744919271	 0.096254
H	 0.5239956421	-1.444346166	 1.6194023217	 0.097367
H	 3.3516000882	-2.1134205118	 1.4415611885	 0.094369
H	 5.323950053	-1.561759178	-0.2467768183	 0.107898
H	 4.0173499767	-1.6032451835	-1.4748794837	 0.105117
H	 3.5173338128	 0.8559552964	 1.5205522339	 0.098976
55.6691	153.4332	183.6394	251.6238	255.3295	336.1337	364.3737	412.4789	478.3037	587.0334	758.3198	773.3929	818.8846	825.9901	861.6726	895.9631	903.2809	932.9924	948.9461	957.3979	995.9751	1017.627	1051.0691	1059.948	1071.2474	1083.1585	1137.828	1147.2325	1155.8999	1176.0206	1219.3829	1227.4912	1239.1134	1245.8598	1283.0014	1291.4354	1332.8274	1362.2804	1411.4517	1431.3269	1475.6661	1493.9889	1497.5653	1498.4293	1515.1157	3021.9817	3023.1774	3036.3633	3044.5962	3058.9733	3070.7635	3084.0712	3091.5902	3094.8755	3101.0174	3162.4286	3192.1703
CC1CC2(C1)C1COC21	C[C@H]1C[C@@]2(C1)[C@H]1CO[C@@H]21	
InChI=1S/C8H12O/c1-5-2-8(3-5)6-4-9-7(6)8/h5-7H,2-4H2,1H3	InChI=1S/C8H12O/c1-5-2-8(3-5)6-4-9-7(6)8/h5-7H,2-4H2,1H3/t5-,6-,7+,8+/m0/s1
