17
gdb 15391	4.00381	1.10822	0.93045	1.3345	72.02	-0.249	0.034	0.2831	1247.8336	0.140226	-363.782335	-363.77351	-363.772566	-363.816321	31.253	
C	 0.0742828546	 1.3479335115	-0.1720414913	-0.224564
O	 0.1419378132	-0.0561523562	-0.1087542136	-0.236426
C	 0.4922021719	-0.5266186472	 1.1751879653	-0.060661
C	 0.5470139159	-2.0285492768	 1.1191104866	-0.020183
N	 1.8423837598	-2.6345621531	 0.8087673512	-0.318332
C	 1.2619219473	-2.8326528442	 2.1595028747	-0.253116
C	 1.9417486764	-2.2345844701	 3.2768936149	 0.383195
C	 2.4824574951	-1.7537856725	 4.2370762333	-0.448041
H	 1.0429816583	 1.8150557847	 0.0655357589	 0.107326
H	-0.2061906853	 1.6164126621	-1.1934497432	 0.126297
H	-0.6797578571	 1.7532678554	 0.5221022333	 0.101626
H	 1.4696771027	-0.1342917528	 1.4916709135	 0.108061
H	-0.2557659904	-0.2056947953	 1.921509637	 0.087773
H	-0.345542455	-2.4859258417	 0.6956690494	 0.097559
H	 1.7219826823	-3.4825022546	 0.2607152609	 0.238729
H	 0.8274348056	-3.8067692975	 2.3752542367	 0.111774
H	 2.9713881947	-1.3259395217	 5.0769273125	 0.198983
77.3841	87.1804	93.9792	196.262	225.191	231.7934	344.3963	367.762	467.6534	552.3722	597.8933	619.2066	659.0175	805.1645	847.0097	892.0452	952.819	995.7255	1020.4152	1045.6185	1131.8496	1158.3911	1180.568	1195.1933	1220.6617	1235.1034	1251.6041	1281.1538	1370.6602	1417.2922	1469.6713	1484.2245	1486.4576	1499.2401	1521.5147	2240.3038	2952.6132	2969.4381	3012.1301	3019.779	3113.7977	3120.552	3131.0594	3504.1781	3505.8402
COCC1NC1C#C	COC[C@H]1N[C@H]1C#C	
InChI=1S/C6H9NO/c1-3-5-6(7-5)4-8-2/h1,5-7H,4H2,2H3	InChI=1S/C6H9NO/c1-3-5-6(7-5)4-8-2/h1,5-7H,4H2,2H3/t5-,6+/m0/s1
