17
gdb 48822	2.58315	1.58976	1.13301	3.6516	73.26	-0.244	-0.0319	0.2122	1073.7018	0.136098	-421.863625	-421.855704	-421.854759	-421.896228	29.822	
O	-1.0023351102	 1.4331666435	-0.0824404179	-0.278316
C	 0.0921693092	 1.0010611127	 0.1976844699	 0.06627
C	 1.3517326414	 1.753217683	-0.0121279062	 0.123511
C	 1.289194326	 3.2905833703	 0.030314065	-0.312947
C	 1.5801073915	 2.6372068089	-1.2592270049	-0.063191
C	 3.0427704653	 2.4913675916	-1.6784010879	-0.23286
C	 3.7675873129	 1.8634286116	-0.4687044287	-0.345575
C	 2.6729266707	 1.1391410051	 0.3282979012	 0.345086
O	 2.8337401463	 0.1891640304	 1.0551993197	-0.32405
H	 0.2302094379	-0.0087242609	 0.6327392272	 0.106385
H	 0.2822887162	 3.6626066805	 0.1845481947	 0.154908
H	 2.0723664318	 3.8105928632	 0.5718495391	 0.128474
H	 0.8037788347	 2.6359542863	-2.0158058875	 0.121654
H	 3.1043093528	 1.8208662788	-2.541108355	 0.120989
H	 3.4743605302	 3.4504549063	-1.9808315751	 0.116097
H	 4.5594831732	 1.1631140743	-0.7394829126	 0.137922
H	 4.22388907	 2.6218754544	 0.178673159	 0.135645
98.3123	134.3172	176.0493	213.4514	263.0033	368.4618	396.5332	504.9499	574.5354	608.8855	656.5742	730.1882	782.6054	820.9143	867.1248	902.9927	941.2614	988.8609	1021.5708	1044.2833	1061.1745	1087.328	1100.9	1111.3399	1177.9098	1222.2086	1273.784	1282.2957	1309.0153	1333.1073	1393.4298	1421.3699	1459.9688	1480.431	1501.4468	1799.8215	1826.0003	2942.2563	3046.7757	3052.5244	3090.9489	3122.513	3134.37	3184.3515	3230.1693
O=CC12CC1CCC2=O	O=C[C@]12C[C@H]1CCC2=O	
InChI=1S/C7H8O2/c8-4-7-3-5(7)1-2-6(7)9/h4-5H,1-3H2	InChI=1S/C7H8O2/c8-4-7-3-5(7)1-2-6(7)9/h4-5H,1-3H2/t5-,7-/m1/s1
