16
gdb 85650	2.08615	1.74324	1.20178	2.1248	71.5	-0.2672	0.0082	0.2754	1067.6439	0.12294	-437.863797	-437.855297	-437.854353	-437.897209	31.458	
C	 0.7071178438	 1.2056774119	-0.4326222096	-0.404093
C	-0.0012358369	-0.0520547474	 0.0384710576	 0.207062
O	 0.0157303171	-1.0950402549	-0.9180902739	-0.248686
C	 1.0685346339	-1.9925224522	-0.5767676777	-0.181544
C	 2.2813636433	-1.7885150618	-1.3699513821	 0.37538
C	 3.2694822184	-1.6294389008	-2.0339359708	-0.472422
C	 1.2874341422	-1.7244494909	 0.9122861466	 0.391438
N	 1.9450273099	-2.4538326617	 1.6969145769	-0.529064
O	 0.6302061762	-0.5753051172	 1.2160337026	-0.239387
H	 1.7499864678	 0.9880901485	-0.6759304904	 0.142535
H	 0.2081413758	 1.5904606953	-1.325982714	 0.134989
H	 0.6715172805	 1.9695445121	 0.3490799665	 0.130965
H	-1.0489002795	 0.1466775075	 0.2893850871	 0.106447
H	 0.7016436871	-3.0135131173	-0.7195005494	 0.146582
H	 4.1469601025	-1.4925600491	-2.6167088523	 0.208669
H	 1.9516164978	-2.067861132	 2.641699683	 0.231131
78.6389	94.1862	142.0215	223.7891	242.0471	339.6858	397.7003	446.3042	474.4563	528.6376	636.2878	655.0936	676.0414	683.0999	757.9768	845.83	880.8108	908.863	915.2035	986.129	1047.9084	1066.3894	1082.5298	1139.4152	1178.2478	1260.8168	1293.7073	1343.9319	1382.8548	1396.0509	1416.8554	1485.3234	1487.4247	1796.8182	2239.0787	3050.5904	3055.3721	3069.2653	3130.0784	3139.7585	3487.0057	3502.2609
CC1OC(C#C)C(=N)O1	C[C@H]1O[C@@H](C#C)[C]([NH])O1	
InChI=1S/C6H7NO2/c1-3-5-6(7)9-4(2)8-5/h1,4-5,7H,2H3	InChI=1S/C6H7NO2/c1-3-5-6(7)9-4(2)8-5/h1,4-5,7H,2H3/t4-,5-/m0/s1
