14
gdb 42644	3.04167	1.4538	1.2206	3.9654	72.26	-0.264	-0.0264	0.2376	1004.4352	0.102065	-399.530858	-399.524007	-399.523063	-399.562375	26.34	
O	 0.0113806412	 0.0639349094	 0.0470486659	-0.31929
C	 0.0168942195	 1.2578200725	 0.0710618286	 0.456534
C	-1.0491962477	 2.3191457059	-0.0055599794	-0.238541
C	-0.4509389251	 3.5680202841	 0.6410956928	-0.123645
C	 0.9193726583	 3.1946137267	 1.2192054714	-0.240461
C	 1.1178424372	 2.3328219852	-0.0599918597	-0.243398
C	-0.0166455352	 3.2085300705	-0.7557179615	 0.279328
C	-0.1273100691	 3.8326132083	-2.01639785	 0.13729
N	-0.199792124	 4.3512417801	-3.0493738418	-0.34984
H	-2.1041048395	 2.2285563964	-0.2238605148	 0.14023
H	-1.1008889464	 4.3855345507	 0.924986549	 0.129294
H	 1.5867761393	 4.0586390737	 1.2379676706	 0.130265
H	 0.9527128032	 2.6695826414	 2.178888514	 0.121376
H	 2.0953619882	 2.0976519949	-0.4688943252	 0.120857
96.3063	164.2063	215.512	389.8724	449.929	509.1469	533.2363	557.2894	597.7487	703.0215	757.5922	790.3799	830.6312	886.6975	925.7048	970.2542	982.8194	997.6322	1048.0468	1075.8909	1115.4117	1126.595	1147.168	1182.3918	1206.2613	1282.48	1297.5819	1410.9892	1500.6954	1901.7462	2346.8107	3056.7211	3122.5095	3183.3332	3208.0347	3230.8847
O=C1C2C3CC1C23C#N	O=C1[C@H]2[C@H]3C[C@@H]1[C@@]23C#N	
InChI=1S/C7H5NO/c8-2-7-3-1-4(7)6(9)5(3)7/h3-5H,1H2	InChI=1S/C7H5NO/c8-2-7-3-1-4(7)6(9)5(3)7/h3-5H,1H2/t3-,4+,5-,7+/m1/s1
