15
gdb 44699	3.45536	1.3624	1.16271	3.0793	66.81	-0.2558	0.0059	0.2617	1037.1811	0.114858	-453.987446	-453.980359	-453.979415	-454.01944	27.097	
N	-0.1048876641	 1.2318804359	-0.5687616846	-0.541116
C	-0.0434483776	 0.0726305377	-0.1031450009	 0.439508
O	 0.9907164606	-0.6147747133	 0.5056091775	-0.265147
C	 0.1856996506	-1.8346438751	 0.6333191302	 0.105394
C	-0.172926298	-2.1782203726	 2.0677544297	-0.35829
C	-1.5156464875	-1.4748340637	 2.3289567963	 0.396799
O	-2.0936589709	-1.3792955977	 3.383850939	-0.355939
N	-1.9635980941	-0.9872100329	 1.1196061408	-0.293212
C	-1.0313303956	-1.0824575214	 0.0259683988	-0.155971
H	 0.7765813728	 1.735836355	-0.4568673563	 0.235787
H	 0.6296461229	-2.6388895611	 0.0474005223	 0.109074
H	-0.2947329332	-3.2548064195	 2.2189736702	 0.14171
H	 0.5797486987	-1.8240158916	 2.7753665483	 0.156785
H	-2.7744306147	-0.3882754717	 1.0906419198	 0.266542
H	-1.4816295798	-1.4417919079	-0.9007447812	 0.118074
83.8553	108.01	248.7682	353.2487	431.4114	465.5086	491.2306	585.0041	632.6122	644.9613	718.9478	815.3794	849.2067	864.5352	872.1805	878.6732	965.6469	1001.9931	1019.8848	1041.9245	1103.4416	1172.4966	1205.8184	1224.2282	1239.1426	1286.9045	1323.0914	1339.1427	1370.9372	1421.6336	1446.736	1830.8007	1843.7387	3073.3226	3099.8548	3120.1052	3127.4795	3477.3042	3637.8672
N=C1OC2CC(=O)NC12	[NH][C]1O[C@H]2CC(=O)N[C@@H]12	
InChI=1S/C5H6N2O2/c6-5-4-2(9-5)1-3(8)7-4/h2,4,6H,1H2,(H,7,8)	InChI=1S/C5H6N2O2/c6-5-4-2(9-5)1-3(8)7-4/h2,4,6H,1H2,(H,7,8)/t2-,4+/m0/s1
