13
gdb 28847	3.1763	1.53209	1.18268	5.0481	70.15	-0.2405	-0.0759	0.1647	990.2056	0.091045	-448.966937	-448.959554	-448.95861	-448.99889	27.309	
N	 0.0857883909	 1.2214186337	-0.3559425075	-0.513394
C	-0.0474825349	-0.0530845566	 0.0563071623	 0.456443
N	-1.249912469	-0.5784145679	 0.0957990671	-0.321815
C	-1.4531785609	-1.9071120667	 0.2642548615	 0.080969
N	-0.7087891907	-2.9311048169	-0.0228687313	-0.268881
C	 0.6027142874	-2.8099385618	-0.4243124751	 0.339976
O	 1.1404751514	-3.4647711103	-1.2886755743	-0.324336
C	 1.4120893768	-1.8392768523	 0.3964879083	-0.057711
N	 1.1398489343	-0.5967903815	 0.532694644	-0.233051
H	 0.9560385976	 1.7013462742	-0.2074040239	 0.280904
H	-0.7400443786	 1.734083219	-0.6142216326	 0.280414
H	-2.4497679287	-2.1425995039	 0.6401418814	 0.128649
H	 2.3275180644	-2.214815619	 0.8581853401	 0.151833
87.0095	163.2817	273.2765	301.9117	339.6775	359.5686	395.2346	480.0424	567.5066	580.9573	647.9515	748.2603	785.0742	824.656	870.1341	908.7545	966.3274	1018.8037	1023.2137	1179.2562	1303.9584	1369.2744	1425.5813	1449.5221	1532.8446	1606.6512	1649.9124	1699.7029	1787.7104	3116.9807	3127.2118	3617.716	3755.9757
NC1=NC=NC(=O)C=N1	N[C]1[N]C=NC(=O)C=N1	
InChI=1S/C4H4N4O/c5-4-6-1-3(9)7-2-8-4/h1-2H,(H2,5,7,8,9)	InChI=1S/C4H4N4O/c5-4-6-1-3(9)7-2-8-4/h1-2H,(H2,5,7,8,9)
