16
gdb 131340	4.60217	0.9898	0.86547	1.2133	72.76	-0.2206	0.0146	0.2352	1294.3462	0.126766	-434.058725	-434.050868	-434.049923	-434.091923	29.507	
O	-0.5945908391	 1.1268161684	-0.1401942094	-0.430179
C	-0.1106827414	-0.1268820277	-0.0310962892	 0.441688
N	 1.0300809476	-0.4852638971	-0.6027579272	-0.336167
N	 1.1579219121	-1.7931689675	-0.2584075936	-0.288969
C	 0.1390224852	-2.2518024968	 0.5080272589	 0.448583
C	-0.7233000214	-1.1791833973	 0.6804534749	-0.438938
C	 0.08536365	-3.6539645224	 0.9573188304	-0.111355
C	-0.7260266843	-4.0423475189	 2.1429313534	-0.236397
N	-1.1583298563	-4.4431414618	 0.7993281153	-0.311576
H	 0.0331931006	 1.6258867885	-0.6778098245	 0.303492
H	 1.9532619655	-2.3099977679	-0.5914416775	 0.273253
H	-1.6426632707	-1.144428303	 1.240492714	 0.109407
H	 0.9844188951	-4.2280089248	 0.7422671947	 0.088431
H	-0.3896189044	-4.856516916	 2.7787143977	 0.125424
H	-1.263957137	-3.2530404163	 2.6604279018	 0.124842
H	-1.8967248413	-3.8231548594	 0.4730544903	 0.23846
39.3993	134.0615	161.0314	309.105	375.4915	385.1716	410.9493	447.6686	493.8901	615.9497	694.2809	718.26	750.8432	778.1448	813.8327	886.2375	963.7982	987.6982	1009.3631	1040.5184	1102.383	1132.829	1154.0415	1175.4828	1203.4157	1216.5554	1261.834	1302.6619	1302.8543	1421.8961	1443.8019	1507.7671	1542.6078	1565.5619	1614.2765	3111.7274	3125.9816	3199.3018	3271.7113	3496.044	3680.5852	3795.0074
OC1=NNC(=C1)C1CN1	Oc1n[nH]c(c1)[C@H]1CN1	
InChI=1S/C5H7N3O/c9-5-1-3(7-8-5)4-2-6-4/h1,4,6H,2H2,(H2,7,8,9)	InChI=1S/C5H7N3O/c9-5-1-3(7-8-5)4-2-6-4/h1,4,6H,2H2,(H2,7,8,9)/t4-/m1/s1
