16
gdb 13363	5.45277	1.07653	1.00778	1.5758	75.36	-0.2394	0.0131	0.2525	1206.3184	0.129568	-346.576269	-346.567978	-346.567033	-346.611104	28.493	
C	-0.0158004545	 1.4211313778	 0.1799522768	-0.497416
C	-0.0295609765	-0.0267819847	 0.0330597114	 0.027838
C	-0.0336469642	-1.2253480459	-0.0818496323	 0.118172
C	-0.0458486278	-2.6840127903	-0.2372093858	-0.099373
O	 0.7851311801	-3.333812177	 0.7364571409	-0.260719
C	-0.0036561578	-4.1641849572	 1.5850845619	-0.112949
C	-1.3901609169	-4.1154621716	 1.0094312035	-0.093371
C	-1.4196314268	-3.2869127015	-0.0249848315	-0.078033
H	 0.6594696133	 1.7261937126	 0.9869716052	 0.152633
H	 0.3230882527	 1.9129028839	-0.7385008295	 0.148286
H	-1.0124144664	 1.8089792074	 0.4180952412	 0.147448
H	 0.3499498466	-2.931786173	-1.2350044516	 0.107987
H	 0.4190212774	-5.179992284	 1.5888875017	 0.108514
H	 0.0272403351	-3.7948495054	 2.6229900388	 0.107889
H	-2.2205365138	-4.6798823468	 1.4143939074	 0.108709
H	-2.2679463804	-3.0215390742	-0.641042328	 0.114384
17.6591	62.9592	101.9773	158.3812	276.4011	321.4671	390.0071	464.467	524.8375	696.3425	764.0852	812.5033	832.8201	914.5005	934.4764	957.2107	1001.9156	1046.3031	1050.7767	1055.0121	1095.1029	1115.7322	1171.5898	1197.4866	1284.0673	1341.5616	1349.8247	1380.6918	1413.8289	1476.887	1478.7001	1519.4802	1694.5556	2368.2093	2969.9439	2973.8259	3001.869	3027.4529	3088.0493	3089.5128	3211.6253	3239.7612
CC#CC1OCC=C1	CC#C[C@H]1OCC=C1	
InChI=1S/C7H8O/c1-2-4-7-5-3-6-8-7/h3,5,7H,6H2,1H3	InChI=1S/C7H8O/c1-2-4-7-5-3-6-8-7/h3,5,7H,6H2,1H3/t7-/m1/s1
