19
gdb 39315	2.85832	1.80566	1.34977	2.0053	74.2	-0.2451	0.0756	0.3207	981.1324	0.162042	-422.995057	-422.988044	-422.9871	-423.026439	28.374	
C	-0.0022931906	 1.5809196348	 0.0354280112	-0.285667
C	 1.2820783069	 0.8057816924	 0.0064035815	-0.03404
C	 2.1244819412	 0.7381573815	 1.2658826936	-0.104985
O	 1.3179822046	 0.6925336412	 2.4342524743	-0.258677
C	 0.5253224226	-0.4723333131	 2.5014620949	 0.053769
C	-0.7829840962	-0.2064167026	 3.2539922579	-0.097372
O	-1.5385604074	-0.199631302	 2.0231867739	-0.292574
C	-0.39356184	-0.6882498879	 1.274411551	 0.107806
C	-0.0468872531	 0.0702323122	 0.0186146395	-0.05603
H	-0.2769560428	 2.0677082609	 0.963523289	 0.134384
H	-0.3159089822	 2.0981558799	-0.8639662778	 0.109812
H	 1.8525623364	 0.78845811	-0.9175690397	 0.085946
H	 2.7981151423	-0.1351065005	 1.2301719141	 0.088312
H	 2.7450593	 1.6341639733	 1.3692477624	 0.113164
H	 1.1302783348	-1.3340946566	 2.8151454708	 0.070978
H	-1.0965051829	-1.013944299	 3.9283177579	 0.096744
H	-0.8244563242	 0.753970844	 3.7777254441	 0.114562
H	-0.5257066962	-1.753648986	 1.0416121041	 0.068387
H	-0.3626729035	-0.3944902827	-0.9093587027	 0.08548
104.5615	184.1714	275.3761	335.8869	383.6393	436.9738	456.1786	602.7455	705.9074	756.462	789.5884	826.0532	838.3731	886.2945	894.5457	946.6926	988.6502	996.167	1014.3417	1060.743	1068.1954	1074.3741	1091.4994	1112.1293	1122.2394	1135.1678	1160.1854	1189.3759	1221.9585	1265.9362	1283.4908	1298.1706	1345.6072	1364.9295	1367.2526	1384.7637	1404.6946	1421.8025	1491.1946	1499.1903	1511.3112	2960.5212	2998.518	3007.9154	3023.469	3070.6416	3081.0681	3143.9734	3149.2451	3161.1315	3235.0649
C1C2COC3COC3C12	C1[C@H]2CO[C@H]3CO[C@H]3[C@@H]12	
InChI=1S/C7H10O2/c1-4-2-8-6-3-9-7(6)5(1)4/h4-7H,1-3H2	InChI=1S/C7H10O2/c1-4-2-8-6-3-9-7(6)5(1)4/h4-7H,1-3H2/t4-,5-,6-,7-/m0/s1
