25
gdb 103990	2.41531	1.29426	1.17625	0.2679	92.28	-0.2406	0.083	0.3236	1268.5316	0.228032	-352.342232	-352.332289	-352.331345	-352.376154	39.22	
C	 0.0025896819	 1.5359146059	 0.1786511108	-0.389302
C	-0.1290482042	 0.0314607453	-0.0915994621	-0.235556
C	 0.6978058094	-0.4931522651	-1.2750428955	 0.294008
C	 0.2623491164	 0.1550781768	-2.5927274116	-0.455355
C	 2.2673994018	-0.4564769585	-1.139142487	-0.284275
C	 2.3128604825	-1.9723514431	-1.3481940589	-0.090866
C	 1.5351237321	-2.6423872258	-0.2512412466	-0.341165
C	 0.7838165251	-2.0421362341	-1.4130607006	 0.336334
C	-0.114360022	-2.8859174182	-2.2768154195	-0.502966
H	 1.0489764705	 1.8227438195	 0.331040954	 0.116344
H	-0.389185192	 2.1389224659	-0.6459665436	 0.116156
H	-0.5506788828	 1.8166783734	 1.0804378828	 0.110149
H	 0.1583727232	-0.5114506188	 0.8154664672	 0.091769
H	-1.1857974879	-0.2144172922	-0.2663586165	 0.089179
H	 0.448133101	 1.2335287851	-2.5808515669	 0.113394
H	 0.8172292799	-0.2630828553	-3.4390513964	 0.11228
H	-0.8062538863	 0.0017558486	-2.7833200188	 0.108667
H	 2.7395958916	 0.121200747	-1.9374837076	 0.09513
H	 2.6652275886	-0.107913977	-0.1790958197	 0.087968
H	 3.0463517846	-2.5057911253	-1.942141378	 0.07785
H	 1.5639436342	-3.7280668345	-0.2489400228	 0.103535
H	 1.5090382235	-2.2057428802	 0.7444928607	 0.10024
H	-1.119261365	-2.972918177	-1.8449033059	 0.116527
H	-0.2232460084	-2.4754064872	-3.2859730794	 0.11565
H	 0.2852568423	-3.900879655	-2.3749087983	 0.114305
93.8597	139.0846	175.678	199.8083	224.4126	266.1104	285.3421	319.0734	345.1098	372.1829	424.2966	465.1235	478.3946	593.053	666.2252	779.3034	781.9654	822.0061	872.6207	889.1117	915.6355	935.4288	972.3942	981.8915	1012.152	1021.1095	1038.259	1052.196	1068.4856	1090.3715	1111.6045	1146.8503	1165.5767	1218.1539	1234.53	1252.6549	1278.7221	1298.551	1326.3878	1365.3818	1385.2555	1406.4765	1411.7229	1422.2316	1478.6295	1483.921	1486.4436	1491.237	1499.096	1503.7278	1505.1572	1509.6549	1512.3224	3012.9194	3020.5476	3026.0628	3031.5047	3035.0618	3059.5602	3079.1149	3089.5628	3095.6097	3097.0336	3098.1908	3099.8878	3105.1835	3109.3851	3169.9434	3190.0129
CCC1(C)CC2CC12C	CC[C@@]1(C)C[C@H]2C[C@@]12C	
InChI=1S/C9H16/c1-4-8(2)5-7-6-9(7,8)3/h7H,4-6H2,1-3H3	InChI=1S/C9H16/c1-4-8(2)5-7-6-9(7,8)3/h7H,4-6H2,1-3H3/t7-,8-,9+/m0/s1
