16
gdb 128700	2.9548	1.30539	0.91587	0.8096	68.56	-0.2087	0.0108	0.2195	1242.9496	0.124111	-471.184357	-471.175081	-471.174137	-471.219365	31.193	
C	-0.012775487	 1.4200891155	-0.0247347995	-0.239586
O	-0.0229190724	-0.0047216742	 0.0019875549	-0.262456
C	 0.5890813283	-0.602770284	-1.0276520625	 0.319063
N	 1.1838198935	 0.0168250165	-2.0367261951	-0.303078
N	 1.6335055829	-0.9910422514	-2.7897292529	-0.118107
N	 1.3747288818	-2.2235125171	-2.3435464252	-0.303078
C	 0.7084459277	-2.0035130383	-1.2194867537	 0.319063
O	 0.2278727747	-2.9477611888	-0.4010679769	-0.262456
C	 0.4739410712	-4.2914932613	-0.8069464779	-0.239586
H	 1.0127625107	 1.8046888809	-0.0132451959	 0.134007
H	-0.5179282471	 1.7985869032	-0.9199027895	 0.134029
H	-0.5449187795	 1.7405108293	 0.8715336509	 0.132813
H	 2.1385461219	-0.8312205477	-3.6424691329	 0.288523
H	 0.0229372567	-4.9233249505	-0.0410953201	 0.132813
H	 0.0184553352	-4.495732076	-1.7819257655	 0.134029
H	 1.5491099615	-4.4893048061	-0.8752093982	 0.134007
57.7218	91.6836	110.0445	162.4718	174.4011	189.748	266.871	298.3026	361.5053	434.593	599.9159	669.016	678.3055	748.8147	793.431	966.7083	1040.674	1076.636	1181.385	1181.4457	1182.4473	1209.1373	1218.3351	1228.408	1297.4928	1408.0678	1455.9694	1463.1466	1480.6315	1480.637	1486.8215	1501.7898	1502.5779	1604.9102	1625.8744	3028.8322	3029.7013	3094.3416	3094.5103	3147.753	3147.9593	3705.6039
COC1=NNN=C1OC	COc1n[nH]nc1OC	
InChI=1S/C4H7N3O2/c1-8-3-4(9-2)6-7-5-3/h1-2H3,(H,5,6,7)	InChI=1S/C4H7N3O2/c1-8-3-4(9-2)6-7-5-3/h1-2H3,(H,5,6,7)
