15
gdb 84300	2.31852	1.93169	1.1786	4.5565	68.15	-0.2426	-0.0617	0.1809	1001.0004	0.111781	-457.759022	-457.751129	-457.750185	-457.791662	29.311	
O	 0.0329538547	 1.4597389363	-0.077179758	-0.423637
C	 0.01303325	 0.0419965956	 0.0124351029	-0.044409
C	 0.5718643112	-0.4831525361	 1.3226935588	-0.093387
C	-0.2613679791	-1.3114171124	 1.964453944	-0.181178
C	-1.5320363294	-1.4453468724	 1.2123492614	 0.316891
O	-2.4844554112	-2.142671	 1.4650054825	-0.327519
C	-1.4133638308	-0.4906829604	 0.0339959464	 0.32404
C	-2.5797833088	 0.2627556707	-0.4482941197	-0.218653
O	-2.0606395799	-0.8421115291	-1.1832643938	-0.272094
H	 0.9128140194	 1.7345262273	-0.353661408	 0.292624
H	 0.54657721	-0.4054614477	-0.8393599231	 0.105805
H	 1.5570887804	-0.1864328717	 1.6679871658	 0.11989
H	-0.0824435859	-1.8207523107	 2.9029972159	 0.130334
H	-3.5410679354	 0.0875652177	 0.0310822647	 0.134441
H	-2.4110107953	 1.2437308431	-0.8847858799	 0.136853
62.1734	197.2538	220.5952	241.0072	259.1342	293.1396	349.6558	493.9979	514.4512	614.3308	685.5159	705.3215	757.8232	843.8862	891.3089	907.5686	967.1441	994.4664	1014.6496	1072.2738	1085.5995	1133.8161	1135.601	1170.7469	1218.7739	1246.8961	1288.9019	1355.4916	1395.6173	1439.1731	1509.1906	1644.6127	1827.0975	2994.6006	3098.624	3186.3358	3201.8923	3224.0546	3823.5055
OC1C=CC(=O)C11CO1	O[C@H]1C=CC(=O)[C@]21CO2	
InChI=1S/C6H6O3/c7-4-1-2-5(8)6(4)3-9-6/h1-2,4,7H,3H2	InChI=1S/C6H6O3/c7-4-1-2-5(8)6(4)3-9-6/h1-2,4,7H,3H2/t4-,6+/m0/s1
