21
gdb 53581	4.46808	0.63533	0.60678	1.3128	88.72	-0.2384	0.0599	0.2983	1916.637	0.17892	-387.055681	-387.044675	-387.043731	-387.094808	38.97	
C	-0.0748273335	 1.4373667092	-0.3373248561	-0.496321
C	-0.0379655353	 0.0092750715	-0.054933511	 0.083196
C	-0.0007299072	-1.1713269502	 0.1782531523	 0.059832
C	 0.0167443107	-2.6047734264	 0.4629634639	-0.395425
C	-1.3472681646	-3.2557894181	 0.2794171645	-0.012271
C	-1.8146853578	-3.7506529871	-1.0762290031	-0.342193
C	-1.5339788302	-4.7270324671	 0.0454677909	 0.381569
C	-0.3788016396	-5.699286269	-0.0422692596	-0.446849
O	-2.6494000185	-5.2457723395	 0.7307985202	-0.466383
H	 0.6818075885	 1.7180590966	-1.0786638952	 0.144421
H	-1.0510792365	 1.740101502	-0.7323783165	 0.145839
H	 0.1129405923	 2.0289580085	 0.5657540581	 0.144947
H	 0.7564853483	-3.0925784708	-0.1837719936	 0.120231
H	 0.3647571492	-2.7687903443	 1.4921451908	 0.128631
H	-2.1271019901	-2.8187991214	 0.8953867074	 0.105179
H	-2.8508526202	-3.5793066716	-1.3455057279	 0.11042
H	-1.1128835952	-3.7019930633	-1.9036556969	 0.107217
H	 0.4841045357	-5.2715117049	-0.5589025015	 0.117754
H	-0.0650557188	-6.0156543875	 0.9578247348	 0.126182
H	-0.6788223538	-6.5957910571	-0.5991666265	 0.106331
H	-3.0155632533	-5.9593994596	 0.195885385	 0.277692
4.6582	40.9382	72.387	178.6855	191.2122	216.9452	235.271	271.6714	306.57	376.7529	382.3867	391.9641	422.753	457.472	533.8386	701.557	768.3048	849.1494	864.646	905.0658	924.9981	983.1225	1015.4214	1049.9548	1053.4927	1057.9364	1085.1422	1119.5791	1147.3241	1166.6925	1226.1085	1259.0018	1292.9715	1321.9197	1359.8589	1413.3841	1415.4964	1422.0837	1466.0759	1479.369	1479.6967	1483.683	1487.6589	1511.0817	2374.3691	3010.663	3024.5967	3025.7102	3044.4874	3083.8327	3084.3829	3086.5184	3119.267	3125.0747	3161.4573	3216.6303	3785.4859
CC#CCC1CC1(C)O	CC#CC[C@H]1C[C@]1(C)O	
InChI=1S/C8H12O/c1-3-4-5-7-6-8(7,2)9/h7,9H,5-6H2,1-2H3	InChI=1S/C8H12O/c1-3-4-5-7-6-8(7,2)9/h7,9H,5-6H2,1-2H3/t7-,8-/m0/s1
