19
gdb 93175	2.68862	1.30424	0.94367	4.7659	76.31	-0.2316	-0.0689	0.1628	1251.7993	0.158806	-423.075787	-423.06702	-423.066076	-423.109605	32.734	
C	 0.0158525918	 1.5754518383	 0.0231188149	-0.404363
C	 0.0133712474	 0.0439774462	-0.0048695767	 0.019842
C	 0.6447534913	-0.5077344792	-1.2922239536	-0.207442
C	 0.5848908299	-2.0445231371	-1.3574001027	-0.326812
C	 1.182112393	-2.7050037337	-0.1271365088	 0.316451
O	 1.8973186274	-3.6743510218	-0.156269674	-0.280389
C	 0.7979110594	-2.049963106	 1.2293673996	 0.298778
O	 0.5723428593	-2.7360166339	 2.1942462652	-0.278808
C	 0.7399674541	-0.5331124795	 1.2290211832	-0.309824
H	 1.0392260501	 1.9664565491	-0.0164605428	 0.119066
H	-0.5324709499	 1.985600513	-0.8309333822	 0.118539
H	-0.4510922309	 1.9563929696	 0.9367633139	 0.121589
H	-1.0317495782	-0.2969554593	 0.0309097612	 0.085525
H	 0.1370870968	-0.0889934752	-2.1677255663	 0.108502
H	 1.690488376	-0.1764575132	-1.3523012064	 0.107857
H	-0.4695919911	-2.3577850944	-1.400533746	 0.131526
H	 1.0789661795	-2.4487243083	-2.2448980577	 0.128218
H	 1.7810384723	-0.1726334308	 1.2189105483	 0.126617
H	 0.2908726018	-0.2026958539	 2.1700634109	 0.125129
52.9035	98.8456	202.4529	233.8556	267.841	299.8129	336.0243	378.9283	400.7856	450.0285	531.5024	646.8627	659.969	720.2281	803.7385	869.2008	889.5617	939.0331	964.9268	1012.6515	1041.2734	1090.5107	1101.9828	1132.059	1141.0075	1213.1882	1264.2616	1268.4577	1294.8028	1325.0275	1342.5609	1365.8861	1388.7501	1416.4002	1456.6032	1459.7234	1494.7309	1498.0191	1500.489	1815.0748	1823.4504	2990.2556	3002.8179	3003.3878	3021.684	3030.5472	3070.8745	3091.3269	3098.0835	3099.1063	3106.3828
CC1CCC(=O)C(=O)C1	C[C@H]1CCC(=O)C(=O)C1	
InChI=1S/C7H10O2/c1-5-2-3-6(8)7(9)4-5/h5H,2-4H2,1H3	InChI=1S/C7H10O2/c1-5-2-3-6(8)7(9)4-5/h5H,2-4H2,1H3/t5-/m0/s1
