18
gdb 93463	3.01227	1.38755	0.98019	2.2097	76.19	-0.2286	-0.0029	0.2257	1179.0541	0.150009	-435.326536	-435.318048	-435.317104	-435.359847	31.581	
C	-0.0300761254	 1.3897454927	 0.4532718419	-0.325049
N	 0.0187041248	 0.0827338658	-0.1829197272	-0.09748
C	-1.2239475409	-0.6741729102	-0.2467084076	-0.175249
C	-1.1506314404	-1.7124482669	-1.3629787122	-0.325408
C	 0.0964067331	-2.5647628416	-1.2417800375	 0.405571
O	 0.2008804452	-3.6979520294	-1.6558077275	-0.354404
N	 1.1483779518	-1.9250093658	-0.612154769	-0.394972
C	 1.2107579006	-0.606130964	-0.119754427	 0.467659
N	 2.2746715965	-0.0655179314	 0.3411586162	-0.577561
H	 0.8971554921	 1.9214733319	 0.2453525436	 0.166392
H	-0.8773531471	 1.9484187342	 0.0458543537	 0.116468
H	-0.1429909215	 1.3198059525	 1.5447524101	 0.120126
H	-1.4497966658	-1.1651226762	 0.714866264	 0.11134
H	-2.0359736363	 0.0309735112	-0.4428330103	 0.118989
H	-2.0175495451	-2.3758666638	-1.361712328	 0.138058
H	-1.1148078642	-1.2099932306	-2.3371018055	 0.142324
H	 1.99758946	-2.468679374	-0.5502567859	 0.255102
H	 3.0803277626	-0.6776786043	 0.237016918	 0.208096
86.1734	126.5608	140.3177	173.8605	250.9351	359.9081	382.5679	436.5823	475.1319	546.5441	582.3932	648.2749	716.5624	722.1157	755.8975	771.4292	832.1039	953.9648	988.6152	1062.2155	1079.8815	1116.3471	1151.759	1191.7168	1208.3917	1272.9349	1298.5308	1315.3796	1352.6206	1393.0174	1415.6887	1439.5077	1457.	1470.942	1491.5647	1507.2151	1529.9339	1722.9139	1815.2766	2964.114	3004.52	3048.7726	3084.7914	3088.2523	3123.4265	3163.2351	3513.975	3612.265
CN1CCC(=O)NC1=N	CN1CCC(=O)N[C]1[NH]	
InChI=1S/C5H9N3O/c1-8-3-2-4(9)7-5(8)6/h2-3H2,1H3,(H2,6,7,9)	InChI=1S/C5H9N3O/c1-8-3-2-4(9)7-5(8)6/h2-3H2,1H3,(H2,6,7,9)
