18
gdb 64685	4.65491	0.85839	0.816	3.2504	83.74	-0.2559	0.0158	0.2717	1407.6557	0.145374	-364.788753	-364.779206	-364.778262	-364.823189	35.193	
C	-0.0913123327	 1.6880080438	 0.1540829147	-0.468372
C	-0.0624380193	 0.1773581993	 0.0578748115	 0.33378
C	-1.3717994658	-0.4586014043	-0.4082656981	-0.40973
C	-1.7302471179	-0.0702421407	-1.7745401487	 0.275683
N	-1.9993401705	 0.2461581491	-2.8528243599	-0.311431
C	 1.2137158338	-0.5107634323	-0.3324202708	-0.311006
C	 0.7109731114	-0.6287450723	 1.1025282317	-0.272813
C	 1.4026351754	 0.014980632	 2.1797255106	 0.32115
C	 1.9792752336	 0.5465327287	 3.0920675589	-0.435469
H	 0.8567666814	 2.0744731497	 0.532883171	 0.137085
H	-0.2795093393	 2.1324220416	-0.828540306	 0.142224
H	-0.8821430597	 2.0225965607	 0.8349804899	 0.123499
H	-1.3035856398	-1.5514066561	-0.3711015406	 0.149342
H	-2.1924672786	-0.1690925867	 0.2595378546	 0.15534
H	 1.1649570615	-1.4014443222	-0.9495781261	 0.12516
H	 2.0891359627	 0.1060549514	-0.4979462777	 0.133498
H	 0.2747521412	-1.5893607307	 1.3647601211	 0.113079
H	 2.4905838424	 1.0140176292	 3.8967472737	 0.198981
57.9319	97.2433	142.4799	175.3715	209.2328	294.8784	334.5098	353.5394	375.2144	395.2044	466.6457	524.4063	589.1216	626.7172	656.7974	723.822	807.898	862.2297	908.5303	937.5436	955.6547	978.274	1008.1816	1075.2997	1093.0019	1112.0666	1139.9961	1211.8149	1259.7862	1330.5678	1355.5956	1401.2754	1424.8211	1458.4877	1483.746	1493.1861	1502.7141	2236.3275	2361.3006	3035.2274	3037.5334	3077.8949	3098.9006	3132.5014	3134.5802	3139.6754	3230.4009	3503.757
CC1(CC#N)CC1C#C	C[C@@]1(CC#N)C[C@H]1C#C	
InChI=1S/C8H9N/c1-3-7-6-8(7,2)4-5-9/h1,7H,4,6H2,2H3	InChI=1S/C8H9N/c1-3-7-6-8(7,2)4-5-9/h1,7H,4,6H2,2H3/t7-,8-/m1/s1
