19
gdb 117399	6.621	0.58654	0.54428	1.6097	81.42	-0.2456	0.0036	0.2491	2054.5419	0.15751	-456.398833	-456.388395	-456.387451	-456.43564	35.571	
C	-0.136042651	 1.67927364	-0.5094867109	-0.39301
C	 0.4032438254	 0.3628044082	 0.0143548463	-0.039562
O	 0.3481422656	-0.5891588556	-1.0668770903	-0.278302
C	 0.801109617	-1.8233445508	-0.7674136356	 0.539212
O	 1.2334271063	-2.1702241753	 0.3060522228	-0.400536
N	 0.6941484876	-2.6293283472	-1.87824036	-0.392519
C	 1.0793291306	-3.9603527657	-1.8903843979	 0.121233
N	 0.9604786784	-4.6594089747	-2.9372882911	-0.238545
C	 1.3861369665	-6.0421123899	-2.8660641048	-0.310868
H	 0.4657420348	 2.0433242122	-1.346941245	 0.131098
H	-1.1700220893	 1.5714445512	-0.8490073663	 0.131098
H	-0.1108319865	 2.4304736573	 0.2852765686	 0.126059
H	 1.4390045887	 0.4506852213	 0.3563046521	 0.125826
H	-0.1885702148	-0.0184463142	 0.8522001381	 0.125587
H	 0.317868638	-2.2405294709	-2.7300894039	 0.267367
H	 1.4745717533	-4.2965159468	-0.9267130479	 0.128637
H	 1.7764363972	-6.3380800437	-1.8794921073	 0.102409
H	 0.5451624373	-6.699277954	-3.1164481446	 0.127409
H	 2.1649072248	-6.2263080614	-3.6153269524	 0.127406
35.7046	64.2348	97.4343	136.8512	147.4125	210.0306	213.6748	259.4515	332.8886	343.6505	366.0422	408.0636	588.1892	622.9403	763.1269	777.1177	808.4251	892.2745	1008.9492	1010.245	1061.1414	1089.3434	1137.2677	1143.815	1154.2093	1184.6994	1226.5932	1269.4495	1291.7878	1359.6024	1396.2678	1421.019	1447.1248	1480.4062	1485.9376	1494.7192	1497.5367	1515.2352	1533.0207	1767.1378	1823.7192	2976.9966	3047.1907	3053.9205	3059.4596	3074.662	3088.1341	3092.3167	3122.5057	3127.1153	3629.942
CCOC(=O)NC=NC	CCOC(=O)NC=NC	
InChI=1S/C5H10N2O2/c1-3-9-5(8)7-4-6-2/h4H,3H2,1-2H3,(H,6,7,8)	InChI=1S/C5H10N2O2/c1-3-9-5(8)7-4-6-2/h4H,3H2,1-2H3,(H,6,7,8)
