23
gdb 122747	6.25729	0.41649	0.40601	0.699	94.17	-0.2409	0.0436	0.2844	2809.513	0.202589	-388.26291	-388.251126	-388.250182	-388.302997	39.766	
C	 0.32372074	 1.4232511646	 0.2205186213	-0.383137
C	 0.4231724599	-0.0987747986	 0.0930727005	-0.183793
C	 0.553323008	-0.5536830343	-1.3536502617	-0.016193
O	 0.6389415515	-1.9636892238	-1.3789699201	-0.245671
C	 0.7630076925	-2.4746069654	-2.6928228852	-0.208144
C	 0.8468754033	-3.9284030289	-2.6652720909	-0.022446
C	 0.9095399633	-5.1306318191	-2.6661200556	 0.158433
C	 1.0127631186	-6.5857210586	-2.6567468425	-0.316286
C	 2.4655689029	-7.0926993685	-2.6100359778	-0.364585
H	 1.2114215444	 1.9178718315	-0.1892137733	 0.115892
H	-0.5490686039	 1.8133478854	-0.3148348099	 0.115944
H	 0.2311102495	 1.7241204099	 1.2679595566	 0.117568
H	 1.2875471245	-0.4726642541	 0.6534582101	 0.108643
H	-0.4616577189	-0.5765205717	 0.5287216175	 0.10879
H	-0.3153950106	-0.2108493576	-1.9439018888	 0.081653
H	 1.450199546	-0.1058894079	-1.8181138994	 0.081535
H	-0.0991661668	-2.1605790326	-3.307674811	 0.110591
H	 1.6608798742	-2.0565044116	-3.1817118209	 0.110117
H	 0.4583352468	-6.9789789824	-1.7949555075	 0.132265
H	 0.5102083113	-6.9901551183	-3.5449343341	 0.128498
H	 3.0275886622	-6.7423051396	-3.4800421958	 0.126736
H	 2.9738326061	-6.7301930393	-1.7125487911	 0.13039
H	 2.4883655553	-8.1865957792	-2.6023289404	 0.113199
11.67	43.3036	63.4279	92.8849	126.6287	148.9475	164.1944	221.8906	234.8213	292.4281	319.1891	376.8827	402.9615	503.8345	556.1161	763.8423	765.4226	783.5155	901.2992	912.5674	966.3918	1008.625	1029.6348	1054.4036	1080.1215	1103.3331	1135.1156	1149.3603	1178.7538	1192.2961	1253.4831	1269.1735	1286.579	1314.6341	1331.341	1351.306	1390.8632	1408.7255	1412.9315	1450.8281	1472.2497	1491.6118	1494.7485	1498.8803	1500.798	1505.3496	1508.6511	1530.1191	2372.9814	2933.5739	2945.2847	2954.9775	2961.9913	3019.5577	3031.1274	3040.2714	3043.5663	3046.8022	3072.4596	3099.6836	3107.8529	3116.5492	3123.6289
CCCOCC#CCC	CCCOCC#CCC	
InChI=1S/C8H14O/c1-3-5-6-8-9-7-4-2/h3-4,7-8H2,1-2H3	InChI=1S/C8H14O/c1-3-5-6-8-9-7-4-2/h3-4,7-8H2,1-2H3
