21
gdb 113082	2.11206	1.22554	1.01467	2.1549	74.91	-0.2462	0.0717	0.3179	1302.1407	0.181052	-461.329487	-461.319434	-461.31849	-461.364706	36.602	
C	 0.3121715959	 0.5782699138	-0.7607229103	-0.239086
O	-0.100270814	-0.5878714499	-0.0813413245	-0.260896
C	-1.4640725896	-0.585141184	 0.3009858905	 0.074708
C	-2.4379020022	-1.0338188241	-0.8235048554	-0.260842
C	-2.3718612484	-2.4941459463	-0.2860255189	-0.03416
C	-1.456783073	-3.4110813823	-1.0786206675	-0.086113
O	-2.0821708698	-3.6579817224	-2.3335084735	-0.429239
C	-1.7404414297	-1.9297695122	 1.030747704	 0.116191
O	-0.6414310315	-2.5707241318	 1.6171329336	-0.436459
H	 1.3764118106	 0.4670560498	-0.9810647362	 0.129909
H	-0.2335573531	 0.7174922802	-1.7042468669	 0.116238
H	 0.1658175401	 1.4740340944	-0.1387673232	 0.112278
H	-1.6974148762	 0.3452866498	 0.8373368385	 0.062487
H	-3.4264756523	-0.578698821	-0.7247838057	 0.101266
H	-2.0878924137	-0.8916486979	-1.8482646414	 0.115079
H	-3.3387887124	-2.9890611476	-0.1611994294	 0.073167
H	-0.4743272357	-2.9358935879	-1.2146241511	 0.086409
H	-1.298884727	-4.3433726379	-0.5164162246	 0.095511
H	-1.5019585882	-4.2274070905	-2.846963051	 0.283941
H	-2.509715831	-1.8061145506	 1.7996991099	 0.084824
H	 0.1389813209	-2.2107929016	 1.1749402034	 0.294787
62.2475	112.3545	114.0512	166.1402	185.8541	212.2146	262.5185	293.0076	331.707	390.5771	418.6427	448.0748	568.9586	577.8241	738.4857	808.012	837.8077	902.4607	930.7189	948.5781	1007.2653	1068.8061	1076.3946	1102.1534	1132.1957	1153.0637	1168.0275	1183.8087	1185.6879	1216.6452	1247.3484	1255.2578	1261.6046	1285.8267	1296.6567	1337.0262	1363.4583	1378.0107	1440.8076	1461.853	1474.0808	1482.5822	1487.5446	1509.3945	1523.776	2986.9739	2987.4201	3000.4741	3019.3417	3041.3515	3054.9852	3065.9242	3077.2653	3118.4634	3122.3753	3760.0615	3828.5589
COC1CC(CO)C1O	CO[C@H]1C[C@@H](CO)[C@H]1O	
InChI=1S/C6H12O3/c1-9-5-2-4(3-7)6(5)8/h4-8H,2-3H2,1H3	InChI=1S/C6H12O3/c1-9-5-2-4(3-7)6(5)8/h4-8H,2-3H2,1H3/t4-,5-,6+/m0/s1
