18
gdb 60316	3.60349	0.76238	0.64894	6.8572	76.6	-0.2676	-0.0404	0.2271	1682.4197	0.147264	-435.302806	-435.292761	-435.291817	-435.338865	35.324	
C	 0.0794413945	 1.5181364774	 0.1014671709	-0.395066
C	 0.0438274363	-0.0026403	-0.0811416587	 0.021276
N	-1.2494453405	-0.6310529088	 0.2358392519	-0.519463
H	-2.0033601754	-0.1162049342	-0.2138624567	 0.230514
H	-0.3823255093	-2.2917759163	-1.1269077876	 0.275144
H	-1.4288951888	-0.5846314746	 1.2337862027	 0.238896
C	 0.4223712874	-0.3949616614	-1.5162395157	-0.14132
N	 0.3420762404	-1.8357262861	-1.667210931	-0.320879
C	 1.1926357281	-2.5430519535	-2.4390098697	 0.347649
O	 2.0952741806	-2.0926897836	-3.1151880651	-0.353842
C	 0.9267505452	-3.999475228	-2.3913107245	 0.211756
N	 0.7468400121	-5.1407224709	-2.3787680021	-0.318396
H	 1.0702416447	 1.9271284225	-0.1235690432	 0.127381
H	-0.6444709378	 2.007041072	-0.5614452062	 0.117567
H	-0.1713666774	 1.7890850902	 1.1315722763	 0.117899
H	 0.780759294	-0.4618063841	 0.5894109993	 0.09996
H	-0.256185231	 0.1013640359	-2.2264727984	 0.113099
H	 1.4379305068	-0.0790019166	-1.7634880721	 0.147824
43.3123	66.9462	84.7949	173.0231	220.4913	238.8113	261.7497	306.5055	336.6019	354.9139	446.2633	469.9067	549.1849	616.762	636.609	772.5555	826.0472	890.6674	896.242	945.0699	969.3193	1036.0932	1072.2059	1129.5166	1186.6671	1207.7059	1235.5365	1302.2	1328.3189	1390.7392	1409.298	1419.4964	1493.4788	1493.9648	1506.8835	1524.6566	1657.8837	1781.4322	2349.8575	2995.0919	3026.4956	3038.8573	3095.8193	3107.2508	3117.1228	3481.7813	3567.9571	3579.1556
CC([NH3+])C[N-]C(=O)C#N	C[C@@H](N)CNC(=O)C#N	
InChI=1S/C5H9N3O/c1-4(7)3-8-5(9)2-6/h4H,3,7H2,1H3,(H,8,9)	InChI=1S/C5H9N3O/c1-4(7)3-8-5(9)2-6/h4H,3,7H2,1H3,(H,8,9)/t4-/m1/s1
