17
gdb 85691	2.37659	1.42421	1.08306	3.9116	73.09	-0.2617	0.009	0.2706	1147.812	0.135303	-417.973135	-417.96457	-417.963626	-418.006594	31.585	
C	-0.8807739019	 1.2361889882	-0.0250146971	-0.400057
C	-0.0173196002	-0.0114844847	-0.0218101409	-0.031058
N	 1.2877260982	 0.116641016	-0.7385182244	-0.330555
C	 2.0132946054	-0.6138627194	 0.3288178684	-0.214434
C	 3.290984062	-0.029955592	 0.7338824523	 0.304544
N	 4.2934365934	 0.4253149568	 1.0855908783	-0.328239
C	 0.7829181347	-0.382532909	 1.2329882997	 0.412851
C	 0.7199038095	 0.1059257431	 2.6055430065	-0.253492
O	 0.371281434	-1.2497863714	 2.2496380292	-0.260949
H	-0.3059865385	 2.1027844708	 0.312257393	 0.13121
H	-1.2523082243	 1.4446507471	-1.0334395583	 0.125564
H	-1.748970467	 1.1047803551	 0.6297400465	 0.124332
H	-0.6020345912	-0.8849448827	-0.3472473209	 0.08784
H	 1.3327363563	-0.3243105476	-1.6501312191	 0.232954
H	 2.1548755891	-1.688170542	 0.1466086202	 0.126287
H	 1.638440184	 0.2143558645	 3.1785940639	 0.144204
H	-0.1140006336	 0.730138747	 2.9193627426	 0.128999
66.4024	121.9017	196.5589	211.4782	217.6804	288.0104	350.7018	388.4353	492.0471	528.6312	545.656	585.5766	694.5878	821.7622	862.7918	896.8045	917.9107	948.8112	988.7254	1046.1259	1081.2276	1109.784	1120.4229	1135.7189	1161.6499	1172.933	1188.7959	1296.7258	1338.805	1375.9966	1398.323	1413.1517	1443.6797	1489.5111	1494.3951	1540.3231	2356.5222	2993.0066	3013.4194	3037.0935	3097.0819	3104.7853	3123.3037	3190.7989	3542.8899
CC1NC(C#N)C11CO1	C[C@H]1N[C@@H](C#N)[C@]21CO2	
InChI=1S/C6H8N2O/c1-4-6(3-9-6)5(2-7)8-4/h4-5,8H,3H2,1H3	InChI=1S/C6H8N2O/c1-4-6(3-9-6)5(2-7)8-4/h4-5,8H,3H2,1H3/t4-,5+,6-/m1/s1
