13
gdb 5719	5.11329	2.13306	1.52698	1.7279	59.79	-0.1928	0.0429	0.2357	760.2548	0.098158	-398.599994	-398.593919	-398.592975	-398.630022	23.318	
C	 0.0361303385	 1.3950059571	-0.1207862095	-0.002708
O	 1.2684396236	 1.9287115079	 0.3882689404	-0.287086
C	 1.9771490577	 0.8047501571	 0.7313349668	 0.260188
C	 3.2163322991	 0.430151253	 1.1635726404	-0.21977
N	 3.1017272042	-0.9259864452	 1.4577616756	-0.256317
C	 1.826519112	-1.4033994616	 1.1667082213	-0.21977
C	 1.1303079596	-0.3124691326	 0.7332455384	 0.260188
O	-0.1439058641	 0.0654344273	 0.3914553741	-0.287086
H	-0.7924891233	 2.0236607593	 0.212231353	 0.129795
H	 0.0889204244	 1.3531120862	-1.2198398177	 0.107054
H	 4.1372707912	 0.9648404424	 1.3158932496	 0.12794
H	 3.8964489456	-1.5281677927	 1.5804554058	 0.259634
H	 1.5608141188	-2.4342235681	 1.3217060317	 0.12794
150.1328	257.3082	289.5003	377.6574	483.4618	583.369	643.4793	670.7264	705.0868	721.9723	728.7763	774.2355	933.6666	943.3085	1037.0749	1059.3732	1099.2857	1143.759	1156.6805	1219.5055	1253.3384	1338.7004	1414.5905	1454.4001	1486.2278	1527.4659	1611.8825	1680.0707	2979.9741	3108.2257	3282.4662	3285.2304	3685.4644
C1OC2=CNC=C2O1	C1Oc2c[nH]cc2O1	
InChI=1S/C5H5NO2/c1-4-5(2-6-1)8-3-7-4/h1-2,6H,3H2	InChI=1S/C5H5NO2/c1-4-5(2-6-1)8-3-7-4/h1-2,6H,3H2
