18
gdb 47677	2.27291	1.66434	1.06819	2.7869	74.94	-0.248	0.0029	0.2509	1122.3413	0.151688	-435.327258	-435.319263	-435.318319	-435.359918	30.791	
N	-0.0923273891	 1.2958679262	 0.5698144118	-0.506193
C	-0.0283699672	 0.1200835277	 0.0801665783	 0.358033
C	-1.2893191014	-0.701772191	-0.0563863492	-0.244584
C	-1.7046051504	-1.0102812165	-1.5071924102	-0.197058
C	-0.5088548187	-1.4435631595	-2.3656894757	-0.176405
N	 0.431128112	-2.2878732351	-1.6290372213	-0.321939
C	 1.4221158571	-1.7755329552	-0.8283996627	 0.40801
O	 2.4687997949	-2.3501857004	-0.6030140817	-0.389602
N	 1.1738121659	-0.5015027175	-0.2931240928	-0.374023
H	 0.8298824603	 1.7363079923	 0.6175891361	 0.203544
H	-1.1370221861	-1.6485390288	 0.4730612933	 0.126927
H	-2.0790912319	-0.1511920602	 0.4550492157	 0.133981
H	-2.4647696722	-1.7982662928	-1.4863136865	 0.107885
H	-2.1652531108	-0.1288007945	-1.9654772638	 0.11631
H	-0.8465081553	-2.0055191736	-3.2398602926	 0.11738
H	 0.0157386908	-0.5554658836	-2.7399528299	 0.126687
H	 0.7096460517	-3.1615143357	-2.0475991539	 0.256069
H	 2.0162519704	-0.1057658517	 0.100814915	 0.254978
95.4621	116.2643	186.7761	266.0788	326.4963	369.3652	417.0283	512.1184	529.5447	558.3646	602.7113	665.0884	676.1067	766.4677	790.3024	862.1153	882.513	905.0371	929.6681	1003.8211	1064.3734	1095.107	1124.7285	1161.4882	1212.6808	1255.153	1289.7612	1336.0101	1354.6546	1391.0153	1402.9558	1420.9741	1435.159	1450.9114	1480.5454	1493.9922	1502.2714	1719.3722	1808.6034	3025.1588	3044.0963	3054.1552	3086.7252	3102.2382	3135.3709	3433.2675	3603.2455	3638.0636
N=C1CCCNC(=O)N1	[NH][C]1CCCNC(=O)N1	
InChI=1S/C5H9N3O/c6-4-2-1-3-7-5(9)8-4/h1-3H2,(H3,6,7,8,9)	InChI=1S/C5H9N3O/c6-4-2-1-3-7-5(9)8-4/h1-3H2,(H3,6,7,8,9)
