14
gdb 132448	3.21944	1.39818	0.97631	4.7742	72.42	-0.1969	-0.0372	0.1597	1102.8708	0.102674	-474.188188	-474.180646	-474.179702	-474.220081	29.17	
N	 0.0942378373	 1.3820351809	 0.1618902287	-0.586057
C	-0.0153269988	 0.0015550085	 0.0436510911	 0.405217
C	-1.1842837948	-0.7026160025	 0.0023036405	-0.151912
N	-1.182518158	-2.0775527498	-0.0207695896	-0.283921
C	-0.0693311064	-2.6933381663	-0.034321801	 0.253678
F	-0.0592294907	-4.0274102295	-0.063553495	-0.074809
C	 1.2615213984	-2.084311653	-0.0123820112	 0.259708
N	 2.4123533523	-2.6431100799	-0.0167888811	-0.565358
N	 1.1657656382	-0.692958802	 0.0359113288	-0.377802
H	 0.7873660461	 1.8018167595	-0.4458402771	 0.257329
H	-0.7934220913	 1.8554136598	 0.0662642741	 0.264548
H	-2.1449028029	-0.2054767536	-0.013373491	 0.10516
H	 2.2991665711	-3.6538199652	-0.0461586896	 0.229226
H	 2.0444985394	-0.2061457169	 0.1467685123	 0.264992
122.4388	169.1959	265.76	317.4174	335.3114	404.2791	432.3593	486.7638	531.8624	581.0508	621.9415	645.4717	701.0435	729.3994	755.3347	781.0204	795.4594	819.7831	1039.7812	1087.7937	1150.8626	1231.8022	1279.0229	1304.0844	1369.0445	1403.4484	1526.3623	1615.8137	1652.3784	1680.2775	1708.2883	3212.4602	3526.1678	3537.8222	3605.7554	3641.644
NC1=CN=C(F)C(=N)N1	NC1=CN=C(F)[C@H]([NH])N1	
InChI=1S/C4H5FN4/c5-3-4(7)9-2(6)1-8-3/h1H,(H4,6,7,9)	InChI=1S/C4H6FN4/c5-3-4(7)9-2(6)1-8-3/h1,4,7,9H,6H2/t4-/m1/s1
