13
gdb 27725	3.00172	1.31207	0.91299	2.2133	72.62	-0.1872	0.0109	0.1982	1168.0698	0.089065	-452.761046	-452.752878	-452.751934	-452.793472	30.848	
O	 0.0610113758	 1.2646609655	 0.1426038454	-0.42148
C	 0.0769049339	-0.0683164405	 0.0215782796	 0.45172
N	 0.143848465	-0.746096124	-1.1049881399	-0.438406
C	 0.1312880172	-2.0576354638	-0.7140389869	 0.239226
O	 0.1877501544	-3.0555245872	-1.6104825198	-0.421254
C	 0.0563758142	-2.1925824901	 0.6571697922	 0.079394
N	 0.0221860682	-0.8517150038	 1.110014236	-0.390986
C	 0.0168027735	-3.2991284281	 1.5109193614	 0.265967
C	-0.0185531769	-4.2388073592	 2.2674608102	-0.451371
H	 0.1080106535	 1.6247477351	-0.7520498384	 0.318259
H	 0.2330945604	-2.6433152212	-2.481687198	 0.304123
H	-0.0329662653	-0.5505135934	 2.0677544029	 0.279162
H	-0.0487351137	-5.0764617392	 2.9183143753	 0.185646
131.1701	131.9992	245.5935	320.3784	323.9436	370.8908	390.8328	410.2433	419.1196	455.3861	509.743	553.545	609.0878	667.692	692.6163	711.1923	737.9011	829.1696	1071.5616	1137.7432	1185.6924	1221.295	1268.789	1365.3634	1452.5404	1559.0718	1630.7597	1675.0007	2218.1452	3503.8575	3680.1876	3806.2666	3808.0269
OC1=NC(O)=C(N1)C#C	Oc1nc(O)c([nH]1)C#C	
InChI=1S/C5H4N2O2/c1-2-3-4(8)7-5(9)6-3/h1,8H,(H2,6,7,9)	InChI=1S/C5H4N2O2/c1-2-3-4(8)7-5(9)6-3/h1,8H,(H2,6,7,9)
