19
gdb 71932	2.76499	1.94006	1.47022	1.2637	78.74	-0.2346	0.0176	0.2521	941.1678	0.160998	-385.870858	-385.863731	-385.862787	-385.90185	29.87	
O	-0.0459955676	 1.4351993472	 0.0565258151	-0.490466
C	 0.0188916291	 0.025426357	 0.0279470251	 0.392455
C	 0.2803200332	-0.6222520384	-1.3849830433	-0.299505
C	-1.0279213643	-1.4497910129	-1.2515722662	-0.015715
C	-0.9380134775	-2.7676061029	-0.4352623034	-0.236949
C	-1.1178421324	-1.963994409	 0.9094308018	-0.074958
C	 0.1662415691	-1.6811909909	 1.6455607441	-0.074804
C	 0.791819269	-0.6079712802	 1.1609969093	-0.158215
C	-1.3688315129	-0.6758485694	 0.0630615194	-0.07986
H	 0.8424874727	 1.7802972076	-0.0847358923	 0.27339
H	 0.1887968822	 0.1391009306	-2.1652411387	 0.10056
H	 1.2174749996	-1.1702706964	-1.5196494695	 0.087518
H	-1.678966868	-1.4645592006	-2.1258286332	 0.066411
H	-1.7899587681	-3.4233142819	-0.6352326031	 0.099066
H	-0.0187874076	-3.3528215621	-0.5293588669	 0.092309
H	-1.9264920775	-2.3314149491	 1.5452044748	 0.068542
H	 0.5505928271	-2.3313384687	 2.4247548495	 0.093867
H	 1.7624795799	-0.2394873052	 1.4788243179	 0.085877
H	-2.250985846	-0.0586801147	 0.2254360297	 0.070477
182.1843	201.5339	255.64	326.4031	364.0377	401.1197	518.3518	571.2378	645.3283	691.2095	768.5047	774.9411	796.275	823.1053	862.1344	896.9764	910.8787	921.7018	964.518	968.3276	993.2047	1009.0976	1039.4391	1083.6714	1097.7171	1127.8679	1144.1335	1162.6931	1181.749	1225.1051	1230.2896	1249.8784	1255.0601	1276.5256	1310.3932	1324.2571	1353.5761	1380.7247	1465.5986	1479.5574	1668.9502	3043.8211	3048.334	3075.6719	3094.2008	3102.485	3108.3438	3130.1833	3168.7719	3195.4293	3798.6598
OC12CC3CC(C=C1)C23	O[C@@]12C[C@H]3C[C@@H](C=C1)[C@@H]23	
InChI=1S/C8H10O/c9-8-2-1-5-3-6(4-8)7(5)8/h1-2,5-7,9H,3-4H2	InChI=1S/C8H10O/c9-8-2-1-5-3-6(4-8)7(5)8/h1-2,5-7,9H,3-4H2/t5-,6-,7-,8-/m1/s1
