17
gdb 55908	2.5912	1.05841	0.88498	5.4641	70.82	-0.2408	-0.0159	0.2249	1333.496	0.135257	-455.176589	-455.16733	-455.166386	-455.212052	33.355	
N	-0.0356622247	 1.2907126945	 0.0899333227	-0.566974
C	-0.2112627669	-0.0321147361	-0.2903872814	 0.446791
O	 0.3615986409	-0.5420523201	-1.2303086671	-0.371675
N	-1.0909306157	-0.7327497904	 0.5270686963	-0.353057
C	-1.1678998671	-2.1559404336	 0.3822718502	 0.05107
C	-2.3682927705	-2.8451645787	 0.9283334536	-0.349552
C	-2.1757360224	-2.7713148023	-0.5838903418	-0.088191
C	-3.0984129063	-1.9159243884	-1.3649625347	 0.175674
O	-3.5279288093	-2.2024444427	-2.4550173575	-0.268071
H	 0.4314904623	 1.8374053975	-0.617761091	 0.265304
H	-0.8156685118	 1.7617138943	 0.5236755537	 0.250488
H	-1.205870442	-0.3836480986	 1.4674434299	 0.245059
H	-0.2168787609	-2.6812276625	 0.4193119123	 0.121421
H	-2.2523887558	-3.8115700105	 1.4037002247	 0.13623
H	-3.1541480123	-2.2234015966	 1.3463275605	 0.125397
H	-1.862063567	-3.6718441005	-1.0986192715	 0.114969
H	-3.3897708805	-0.968607205	-0.8594808989	 0.065117
24.3044	75.7902	123.85	159.4624	240.8756	283.2271	385.7176	388.7963	411.5508	474.7939	498.0622	549.8242	579.9544	680.5104	781.4161	796.5328	850.2722	858.6829	954.6455	1013.4177	1043.1176	1055.3673	1078.7406	1105.6119	1129.4624	1179.9322	1181.287	1257.916	1319.4646	1346.6135	1409.4053	1443.4481	1480.704	1506.8888	1627.1742	1814.7176	1822.9849	2884.9143	3135.6059	3136.8337	3191.1535	3228.1697	3574.0724	3597.5461	3687.9311
NC(=O)NC1CC1C=O	NC(=O)N[C@H]1C[C@H]1C=O	
InChI=1S/C5H8N2O2/c6-5(9)7-4-1-3(4)2-8/h2-4H,1H2,(H3,6,7,9)	InChI=1S/C5H8N2O2/c6-5(9)7-4-1-3(4)2-8/h2-4H,1H2,(H3,6,7,9)/t3-,4-/m0/s1
