20
gdb 82854	2.58483	2.04643	1.76498	0.7115	76.9	-0.2056	0.0952	0.3008	901.8473	0.174642	-403.127236	-403.120566	-403.119622	-403.15779	28.631	
C	-0.2339536323	 1.5446474908	-0.0174962059	-0.431424
C	 0.0326696612	 0.0448638895	-0.0060285398	 0.062931
C	 0.835869559	-0.5042147712	-1.2072220826	 0.072309
C	 1.0115999606	-1.9682255403	-0.7831964734	-0.247063
C	 1.678343545	-1.57240479	 0.5218667406	-0.016485
C	 2.7006015821	-0.4685762485	 0.1283610841	 0.101328
C	 2.1163212739	 0.3410343126	 1.2858921646	-0.190822
N	 0.8377199498	-0.4529368608	 1.166802772	-0.15813
O	 2.1756642263	 0.0175684551	-1.1222142118	-0.290175
H	 0.6434030819	 2.1120489133	-0.3361168981	 0.133109
H	-1.0451210497	 1.7686492055	-0.7172842451	 0.11397
H	-0.5394799146	 1.8936594793	 0.9737778097	 0.125454
H	-0.933155086	-0.4748064739	 0.0377899789	 0.075379
H	 0.4439852414	-0.2950337092	-2.2033233754	 0.074353
H	 0.0704485182	-2.5081735383	-0.6586533511	 0.108487
H	 1.6801789729	-2.5259983879	-1.4432003219	 0.107363
H	 1.9848421745	-2.3398947961	 1.2303337911	 0.080129
H	 3.774847437	-0.642830252	 0.0199744371	 0.069613
H	 2.5867588628	 0.1143418944	 2.2490015892	 0.10128
H	 2.0365846258	 1.4224412278	 1.1699709379	 0.108394
185.7056	240.2211	297.3057	414.3108	426.6425	468.7123	519.6685	607.1955	660.4882	756.4121	777.0852	803.049	830.7832	877.7283	891.4096	926.6836	939.4289	961.4046	971.4228	1000.5323	1006.7019	1025.9987	1055.5225	1079.6603	1093.6355	1148.5224	1161.6018	1201.3536	1222.3298	1230.4734	1243.9765	1280.7486	1298.0551	1303.5525	1314.9204	1316.2199	1369.1539	1382.3172	1406.0583	1483.2978	1487.719	1495.1637	1519.3578	3011.3928	3041.7018	3044.5875	3066.6479	3072.7249	3106.8223	3115.4528	3121.555	3128.8474	3132.1726	3134.5989
CC1C2CC3C(CN13)O2	C[C@H]1[C@@H]2C[C@H]3[C@H](CN13)O2	
InChI=1S/C7H11NO/c1-4-6-2-5-7(9-6)3-8(4)5/h4-7H,2-3H2,1H3	InChI=1S/C7H11NO/c1-4-6-2-5-7(9-6)3-8(4)5/h4-7H,2-3H2,1H3/t4-,5-,6-,7-/m0/s1
