19
gdb 61283	1.88835	1.21993	0.87395	5.2631	76.95	-0.2522	0.0238	0.276	1395.9545	0.157035	-419.266532	-419.255872	-419.254928	-419.304149	36.595	
C	-0.168493007	 1.7134301459	 0.0294274975	-0.398469
C	 0.0021345103	 0.1913992499	-0.0297312695	 0.038483
C	-1.377453851	-0.5090865134	 0.0176457587	-0.356796
C	-1.2881544365	-1.966003477	-0.0402867753	 0.270953
N	-1.2165893408	-3.1176526012	-0.0969791667	-0.303488
N	 0.7544354169	-0.2298038862	-1.1973843817	-0.314456
C	 2.0322438787	-0.7257263804	-1.108572882	 0.418307
C	 2.6213931556	-1.2022925538	-2.4253650129	-0.492818
O	 2.6315227611	-0.7989551458	-0.0530348354	-0.363077
H	 0.8110386143	 2.1969859762	 0.0362395425	 0.142105
H	-0.7282894413	 2.0844942939	-0.8370892247	 0.112701
H	-0.7069682532	 2.0141236267	 0.9338490665	 0.123682
H	 0.5997111774	-0.1401508902	 0.8230527303	 0.145656
H	-1.9020655495	-0.2208898767	 0.9348687808	 0.158716
H	-2.0013897401	-0.1661214165	-0.8180052464	 0.143889
H	 0.3192720442	-0.1655134391	-2.1039284534	 0.242063
H	 2.3779090034	-2.2610530144	-2.5627531504	 0.161467
H	 2.2391139582	-0.6494047372	-3.2883858476	 0.117235
H	 3.7064472593	-1.1058598206	-2.3797645002	 0.153847
24.3683	52.6427	73.5228	99.2563	151.4858	194.3315	241.8651	289.3396	382.7074	394.9045	420.8389	425.0808	456.6377	557.9418	616.1034	630.8143	853.1426	882.8686	918.7606	950.4725	986.0317	1019.7601	1051.6638	1102.2038	1121.0791	1167.4302	1232.5313	1266.5195	1314.657	1362.3138	1379.9377	1394.9164	1409.2244	1461.9001	1468.0812	1487.1765	1489.5445	1495.2021	1531.829	1787.6487	2365.6922	3030.0581	3033.1649	3046.544	3079.5657	3091.1601	3110.0776	3113.0108	3128.696	3154.5792	3631.2636
CC(CC#N)NC(C)=O	C[C@@H](CC#N)NC(=O)C	
InChI=1S/C6H10N2O/c1-5(3-4-7)8-6(2)9/h5H,3H2,1-2H3,(H,8,9)	InChI=1S/C6H10N2O/c1-5(3-4-7)8-6(2)9/h5H,3H2,1-2H3,(H,8,9)/t5-/m0/s1
