17
gdb 34241	3.35914	1.5869	1.37381	3.1373	76.58	-0.2477	0.0135	0.2612	957.4882	0.139508	-380.827736	-380.821199	-380.820255	-380.858561	26.805	
N	 0.022687331	-1.1774300108	 0.0368204718	-0.342452
C	-0.0046230621	-0.0202802948	 0.034392674	 0.161661
C	-0.0583716281	 1.4159157684	 0.0352604065	 0.211044
C	-1.0908299386	 2.2757578084	 0.7694664395	-0.240176
N	-0.6698425244	 3.4066722435	-0.1381907506	-0.155182
C	 0.7232431588	 3.6158395062	 0.3743144447	-0.166307
C	 1.3146036471	 2.2532435684	-0.0285297057	-0.104096
C	 1.1311404346	 2.339854366	-1.5662177032	-0.246102
C	-0.3528880802	 2.322273217	-1.2108133208	-0.018822
H	-2.1129104099	 1.9636070128	 0.5418180646	 0.127141
H	-0.9849776782	 2.469439292	 1.8400430262	 0.115844
H	 1.2101945557	 4.4497121852	-0.1372198569	 0.112572
H	 0.7054017687	 3.8234339083	 1.4460877763	 0.110994
H	 2.2277139751	 1.8857101223	 0.4345118719	 0.092582
H	 1.5556656568	 3.2006526654	-2.08885896	 0.11058
H	 1.4010159985	 1.4128031514	-2.0786172166	 0.12833
H	-1.1717635448	 2.1540199302	-1.9063896718	 0.102391
143.6347	158.0502	371.0804	419.7513	509.2003	533.3264	536.9713	550.0049	671.1153	693.584	789.6957	842.5932	866.5566	913.3567	918.6576	935.584	954.4037	998.1498	1005.9747	1035.5176	1076.1496	1105.4387	1115.6873	1154.7871	1163.558	1183.4511	1212.8754	1233.4629	1243.3035	1256.5047	1285.956	1308.533	1326.1977	1489.4281	1505.2862	1532.6632	2341.9689	3059.8731	3062.4577	3070.3274	3116.0798	3122.5375	3125.0304	3146.6716	3151.5529
N#CC12CN3CC1CC23	N#C[C@@]12CN3C[C@@H]1C[C@@H]23	
InChI=1S/C7H8N2/c8-3-7-4-9-2-5(7)1-6(7)9/h5-6H,1-2,4H2	InChI=1S/C7H8N2/c8-3-7-4-9-2-5(7)1-6(7)9/h5-6H,1-2,4H2/t5-,6-,7+/m0/s1
