21
gdb 41906	2.13768	1.97282	1.7118	0.4706	76.64	-0.2436	0.0747	0.3183	961.5262	0.18667	-424.234685	-424.227381	-424.226437	-424.266027	30.041	
C	 0.0152942	 1.5185551458	 0.0125238657	-0.08463
O	 1.3330934996	 2.0302824003	-0.1253363847	-0.277538
C	 2.3529416663	 1.1519591104	 0.3654514507	 0.094833
C	 1.8191390737	 0.3196828106	 1.533118904	-0.098691
O	 0.7002333882	-0.4875018712	 1.16942903	-0.276956
C	-0.0016760052	-0.0066473408	 0.018290764	 0.090715
C	 0.5759284479	-0.6245659287	-1.2817454354	-0.214416
C	 2.0822561631	-0.9055588501	-1.183394972	-0.191543
C	 2.9313956306	 0.3142427952	-0.791196689	-0.2037
H	-0.4429756997	 1.8828990478	 0.9451336419	 0.095431
H	-0.5756830337	 1.9072266839	-0.8243271576	 0.104769
H	 3.1431622418	 1.8078966724	 0.7506179357	 0.079503
H	 2.5997435714	-0.3520417882	 1.9086873003	 0.10633
H	 1.5380346803	 0.9973583817	 2.3532444441	 0.10064
H	-1.0394595521	-0.3336561309	 0.1488109078	 0.079625
H	 0.0598304956	-1.567653738	-1.4910598991	 0.097983
H	 0.358281111	 0.0451963913	-2.1229250649	 0.099122
H	 2.2270060748	-1.6972508993	-0.441365433	 0.111973
H	 2.4396308822	-1.3061793404	-2.1384838863	 0.090575
H	 3.0419035998	 0.9968622101	-1.6412599195	 0.105424
H	 3.9409472343	-0.019578852	-0.5204402828	 0.09055
132.5775	235.1245	250.2539	315.8185	348.2302	386.0276	468.9359	479.4345	540.5799	668.7433	759.8931	785.0622	842.8448	850.0243	869.6398	905.5704	913.0861	945.4228	980.8135	1025.9404	1038.5694	1063.2087	1079.3329	1134.7732	1153.5107	1171.7295	1186.4422	1217.7848	1266.722	1271.618	1287.2677	1338.2934	1347.1024	1361.5822	1362.0851	1373.0519	1389.7565	1397.7153	1411.825	1416.4558	1474.1289	1483.605	1495.1366	1506.5712	1518.3628	2980.2692	2990.5567	3021.4752	3027.78	3036.786	3042.6084	3044.5775	3055.7225	3061.2748	3065.4783	3072.0001	3089.3487
C1OC2COC1CCC2	C1O[C@H]2CO[C@@H]1CCC2	
InChI=1S/C7H12O2/c1-2-6-4-9-7(3-1)5-8-6/h6-7H,1-5H2	InChI=1S/C7H12O2/c1-2-6-4-9-7(3-1)5-8-6/h6-7H,1-5H2/t6-,7-/m1/s1
