23
gdb 106827	2.85051	1.05369	0.89992	1.6624	86.38	-0.242	0.0787	0.3207	1415.0655	0.205129	-388.267051	-388.257151	-388.256207	-388.302003	37.203	
C	 0.0184988347	 1.458877109	-0.3443899482	-0.372169
C	-0.0054109013	-0.0016295387	 0.1293386717	-0.293995
C	-1.3978344905	-0.5721684155	 0.1893357684	 0.327231
C	-2.1020323841	-1.1432320529	-1.0148144797	-0.383879
C	-1.8955157176	-2.0273983971	 0.1969611731	 0.26849
C	-1.1438747161	-3.3218602874	 0.1208618878	-0.169739
O	-1.9531092176	-4.4013339223	-0.3365206678	-0.415801
C	-2.9573176692	-1.6785917743	 1.248483734	-0.277702
C	-2.4523561876	-0.199020301	 1.2454795988	-0.283169
H	 1.0397528122	 1.8517566292	-0.3628127731	 0.110769
H	-0.3987534168	 1.5507784609	-1.3524561627	 0.118064
H	-0.5732048196	 2.0988343657	 0.3187453541	 0.119155
H	 0.6128989839	-0.6123796208	-0.5402889661	 0.095694
H	 0.4594380835	-0.0686508248	 1.1222847265	 0.094803
H	-3.1000872484	-0.8074523633	-1.2907537633	 0.101093
H	-1.4568469047	-1.3587077971	-1.8630715358	 0.103971
H	-0.2499215336	-3.1982064145	-0.5127412673	 0.080874
H	-0.7962653492	-3.6257677715	 1.1150817318	 0.104847
H	-2.3541415047	-4.1196923649	-1.1657802199	 0.280013
H	-3.9985918332	-1.8471257576	 0.9560028899	 0.095108
H	-2.7833418121	-2.1766033551	 2.2057193453	 0.103124
H	-2.0079075658	 0.0883654058	 2.2023420554	 0.099667
H	-3.1748976121	 0.5707482279	 0.9544811171	 0.093552
64.0734	98.5372	105.5481	174.1313	210.6334	255.0039	276.5723	319.1778	352.6797	370.2916	435.9255	505.8123	645.6317	719.6327	757.539	783.7693	794.8062	874.6261	928.1327	939.4731	942.2499	974.601	988.6652	1016.4235	1036.2032	1051.8307	1075.9712	1093.2188	1130.4642	1150.6911	1207.4429	1226.1811	1241.8979	1244.1626	1276.9942	1314.8541	1333.9215	1355.3473	1364.1837	1405.5571	1411.8812	1432.0038	1479.5831	1483.0225	1485.2324	1497.3285	1501.0072	1507.6554	1517.2947	2964.7661	3012.6877	3033.5595	3039.5971	3048.1561	3049.5483	3056.7168	3086.4187	3092.0783	3102.7423	3105.9044	3106.9693	3178.2275	3805.9521
CCC12CC1(CO)CC2	CC[C@@]12C[C@]1(CO)CC2	
InChI=1S/C8H14O/c1-2-7-3-4-8(7,5-7)6-9/h9H,2-6H2,1H3	InChI=1S/C8H14O/c1-2-7-3-4-8(7,5-7)6-9/h9H,2-6H2,1H3/t7-,8+/m1/s1
