15
gdb 127195	2.35248	2.02709	1.09628	2.7875	71.42	-0.244	-0.0605	0.1835	1026.368	0.114752	-450.160836	-450.152958	-450.152014	-450.193378	29.144	
C	-0.0456966484	 1.4297163596	 0.1835401427	-0.338393
N	-0.0050250666	-0.0233972214	 0.0285390275	-0.192227
C	-1.2239649582	-0.695784432	-0.0194762071	 0.499374
N	-2.3211605358	-0.0508424945	 0.0697994359	-0.56177
N	-1.0994590614	-2.0772139911	-0.1682100387	-0.327021
N	 0.0369028082	-2.7855311881	-0.2654084415	-0.138563
C	 1.1403959333	-2.1266266662	-0.2168629903	-0.092528
C	 1.2313240587	-0.665508268	-0.0637194666	 0.416724
O	 2.2892144499	-0.0693484863	-0.0208143189	-0.373995
H	 0.9840203994	 1.7794223227	 0.2027013765	 0.165803
H	-0.5947990762	 1.8759560739	-0.6483008334	 0.15128
H	-0.5643584945	 1.689162001	 1.1088521697	 0.151375
H	-3.1292753874	-0.6671106823	 0.0199766627	 0.214401
H	-1.9419596661	-2.6269631897	-0.2105189274	 0.274986
H	 2.0682137751	-2.6792939378	-0.2934434512	 0.150556
102.2036	134.3031	147.332	223.1225	349.3085	394.3112	399.5499	499.6543	539.7867	554.4541	592.3741	692.8693	713.8257	758.1254	765.8828	861.1829	900.1623	989.9685	1083.0321	1146.0515	1159.2991	1178.5056	1219.0906	1326.3973	1362.6148	1415.0559	1459.1209	1472.0414	1487.705	1506.5891	1659.5163	1716.5502	1783.8621	3066.997	3131.1277	3188.9928	3222.191	3515.1458	3651.9374
CN1C(=N)NN=CC1=O	CN1[C]([NH])NN=CC1=O	
InChI=1S/C4H6N4O/c1-8-3(9)2-6-7-4(8)5/h2H,1H3,(H2,5,7)	InChI=1S/C4H6N4O/c1-8-3(9)2-6-7-4(8)5/h2H,1H3,(H2,5,7)
