22
gdb 58466	3.16878	1.01103	0.9681	2.0008	79.03	-0.223	0.0685	0.2916	1365.227	0.192075	-441.458655	-441.448537	-441.447593	-441.493236	38.37	
C	 0.1016885338	 1.5800104921	-0.1000515405	-0.408605
C	 0.0789599898	 0.0729542536	 0.1683624938	 0.105427
O	 0.5886560777	-0.242042329	 1.4577061163	-0.446089
C	-1.3160648083	-0.5235750976	 0.0243058807	 0.399482
O	-2.1064263365	 0.0659208055	 1.0476970741	-0.5057
C	-2.0193511874	-0.5374158909	-1.3592317089	-0.23259
N	-2.5338844326	-1.881882209	-1.0274980915	-0.091084
C	-2.681110128	-2.8554201173	-2.0852418838	-0.318969
C	-1.4602537011	-2.0678142815	-0.0279222192	-0.231249
H	 1.1100430433	 1.9676163893	 0.0654291764	 0.11999
H	-0.1906410608	 1.8035347914	-1.1320267808	 0.11069
H	-0.5894666577	 2.0985774933	 0.5700701091	 0.128668
H	 0.741931933	-0.4325683946	-0.5430182656	 0.079256
H	-0.1088538905	 0.0009972046	 2.0795042431	 0.286278
H	-2.9658584382	-0.3699530498	 1.0347404584	 0.291542
H	-2.7806662289	 0.2283697852	-1.5418782174	 0.102957
H	-1.2953346915	-0.5390296551	-2.1921814673	 0.083361
H	-1.7478741479	-3.0146364013	-2.658761582	 0.091827
H	-2.9885072499	-3.8184369503	-1.6639654407	 0.122374
H	-3.4587810528	-2.5312735817	-2.7849718277	 0.121563
H	-0.5578476764	-2.5529414091	-0.4346444564	 0.089523
H	-1.7582847992	-2.5780934979	 0.8941572898	 0.101347
79.6813	87.4148	168.6642	228.0538	236.4978	276.0763	301.6021	314.7367	319.1284	357.1242	406.4715	420.9826	441.0255	486.13	532.3828	681.9018	744.5241	890.8125	913.9505	934.6832	963.4804	985.0208	1021.6068	1043.7794	1076.2641	1112.7516	1120.2465	1128.6519	1131.2095	1195.2373	1211.268	1218.4077	1247.2834	1295.9357	1304.01	1327.2958	1356.8802	1400.5445	1416.3677	1441.4639	1451.086	1485.5419	1490.1639	1492.8297	1498.4152	1500.8345	1521.38	2926.1153	2955.2694	2973.2589	3038.8957	3048.0651	3056.4384	3063.6962	3064.9367	3098.567	3109.8361	3128.8963	3781.1255	3806.4109
CC(O)C1(O)CN(C)C1	C[C@@H](O)C1(O)CN(C)C1	
InChI=1S/C6H13NO2/c1-5(8)6(9)3-7(2)4-6/h5,8-9H,3-4H2,1-2H3	InChI=1S/C6H13NO2/c1-5(8)6(9)3-7(2)4-6/h5,8-9H,3-4H2,1-2H3/t5-/m1/s1
