19
gdb 108026	3.9128	1.4555	1.33285	1.1069	77.22	-0.2165	0.085	0.3015	1017.0151	0.160194	-385.82886	-385.821604	-385.82066	-385.860412	29.568	
C	-0.2531988851	 1.2458727087	 0.0683978017	-0.254035
O	 0.296839634	-0.0547051403	-0.0449558339	-0.302043
C	 0.8672200537	-0.534364209	 1.1207773622	 0.432307
C	 2.1602268343	 0.0330062859	 1.6937947581	-0.305192
C	 2.3168979386	-0.913724597	 2.8629011702	-0.074379
C	 0.9607312027	-1.3471962004	 3.4026600096	-0.087158
C	 1.7624715547	-2.288312597	 2.5239305497	-0.090888
C	 0.7876346804	-2.0260596796	 1.3526341873	-0.143845
C	-0.018979422	-1.0856486129	 2.2362775654	-0.154394
H	 0.5208113891	 2.0039073521	 0.2517220997	 0.11151
H	-0.7428379181	 1.4665103455	-0.8828506159	 0.125852
H	-0.9940514889	 1.3007564553	 0.877850469	 0.108627
H	 2.9838008308	-0.038461485	 0.9748184353	 0.103917
H	 2.0597122803	 1.0767163982	 2.0122352837	 0.096199
H	 3.1522223701	-0.8381498956	 3.5484507999	 0.085021
H	 0.7183019898	-1.4199439337	 4.4542215657	 0.084776
H	 2.2467783771	-3.2233602426	 2.7699910543	 0.085617
H	 0.4453257523	-2.7200527175	 0.5979617305	 0.09149
H	-1.0897830839	-0.944537855	 2.2846499475	 0.086616
97.3817	175.9846	194.3415	349.4564	373.0966	451.979	533.9064	599.9027	698.2016	721.4328	746.7911	766.0438	807.0354	839.4295	860.4583	906.8458	936.5372	947.8708	959.0677	971.1109	1020.7935	1030.9915	1045.3945	1048.6008	1074.9366	1086.7	1162.3318	1180.8105	1184.2882	1200.6062	1202.5372	1241.6469	1268.1849	1280.2853	1325.4073	1353.4945	1399.814	1479.6226	1488.895	1493.5125	1508.4574	2995.154	3036.7259	3049.2144	3080.8996	3119.6897	3188.64	3195.03	3207.7672	3209.5512	3220.0261
COC12CC3C4C3C1C24	CO[C@]12C[C@H]3[C@@H]4[C@H]3[C@H]1[C@H]24	
InChI=1S/C8H10O/c1-9-8-2-3-4-5(3)7(8)6(4)8/h3-7H,2H2,1H3	InChI=1S/C8H10O/c1-9-8-2-3-4-5(3)7(8)6(4)8/h3-7H,2H2,1H3/t3-,4+,5-,6+,7-,8-
