16
gdb 50197	3.09984	1.24518	1.19273	2.5637	68.99	-0.2441	-0.0508	0.1932	1078.1955	0.122909	-437.854162	-437.846287	-437.845342	-437.887501	28.836	
O	-0.7483908086	 1.2270536815	-0.6547846864	-0.231699
C	 0.0520248332	 1.1918809739	 0.2445639457	 0.131051
C	 1.3962842901	 1.8767029623	 0.2172797803	-0.02947
C	 1.6608041658	 2.9566699848	-0.8535638334	-0.290346
C	 2.0467647861	 3.895940372	 0.3230098371	-0.09811
N	 1.6789328439	 2.831938353	 1.3552732412	-0.164208
C	 0.488694026	 3.6400799068	 1.7970182065	-0.323442
C	 0.9161176969	 4.7824680928	 0.8557338869	 0.405514
O	 0.551703703	 5.9010283994	 0.6576536464	-0.27861
H	-0.1536172367	 0.6302302245	 1.1842755572	 0.094982
H	 2.1546283091	 1.0817701202	 0.2337203541	 0.112534
H	 2.4677670044	 2.7420156312	-1.5543472075	 0.125681
H	 0.7717446326	 3.2504010279	-1.4152971908	 0.143711
H	 3.0614887489	 4.3002411465	 0.3354786881	 0.11029
H	-0.4997982004	 3.2194268398	 1.5786926911	 0.144754
H	 0.5298978457	 3.8894086533	 2.8619953134	 0.147368
50.1072	84.4906	179.1299	211.8103	282.4105	402.0918	454.8927	506.9703	572.5079	637.1088	735.2664	751.7352	815.1503	887.2151	901.1452	921.9338	945.1977	973.4266	1053.8814	1063.8658	1104.3514	1111.3725	1127.6992	1169.1505	1183.8394	1246.4511	1250.5617	1256.1741	1283.5285	1359.7821	1412.7	1453.9381	1490.5566	1825.4835	1907.7789	2878.0365	3013.1233	3039.542	3083.2563	3090.0902	3091.5927	3141.3144
O=CC1CC2N1CC2=O	O=C[C@H]1C[C@@H]2N1CC2=O	
InChI=1S/C6H7NO2/c8-3-4-1-5-6(9)2-7(4)5/h3-5H,1-2H2	InChI=1S/C6H7NO2/c8-3-4-1-5-6(9)2-7(4)5/h3-5H,1-2H2/t4-,5+/m1/s1
