21
gdb 74679	3.47804	1.2717	1.08137	0.3441	89.24	-0.2242	0.0232	0.2474	1202.3807	0.184715	-349.990614	-349.982587	-349.981643	-350.023506	31.638	
C	-0.3519073048	 1.5535793579	-0.0402864834	-0.488012
C	-0.089690941	 0.0807600024	-0.0783824279	 0.337821
C	-0.2937282952	-0.7512555743	-1.1001791525	-0.183339
C	 0.1191961043	-2.1727147365	-0.7962905539	-0.090267
C	 1.4026063209	-2.6283513007	-1.4612550877	-0.070601
C	 2.3322148796	-2.9888244594	-0.5794950534	-0.05917
C	 1.8532497474	-2.8787192985	 0.8488231933	-0.277244
C	 0.4888162816	-2.147163093	 0.7289805632	-0.009464
C	 0.5057439468	-0.6410084181	 1.1128485138	-0.315759
H	 0.5700557293	 2.1140994049	 0.1626426106	 0.12321
H	-0.7681153772	 1.9163643881	-0.9841172328	 0.120908
H	-1.0532288178	 1.812064395	 0.7637110039	 0.121506
H	-0.6870351922	-0.4548183754	-2.0677923297	 0.078817
H	-0.694629806	-2.8765568581	-1.0251567142	 0.071815
H	 1.5205061932	-2.6473198678	-2.5396893576	 0.086362
H	 3.3242522392	-3.3492174654	-0.8320474109	 0.086452
H	 1.7425780543	-3.8747597149	 1.2991839307	 0.101013
H	 2.5609592607	-2.3375038656	 1.4893593477	 0.098748
H	-0.27498308	-2.6593029703	 1.3181184209	 0.070273
H	 1.5266181127	-0.280106707	 1.3053629239	 0.100624
H	-0.0579316558	-0.4424512731	 2.0337535061	 0.096306
52.3446	121.6528	187.1086	271.1777	299.9566	400.4102	422.5631	479.2654	542.9353	640.7582	712.9143	763.9486	790.9555	815.2978	865.1464	881.3383	898.7886	928.3786	953.6084	975.9039	1002.9386	1012.5194	1040.8659	1056.3426	1064.1705	1082.7244	1129.0192	1165.8819	1173.5731	1221.639	1236.0081	1281.2503	1293.7116	1298.1825	1316.5462	1332.3548	1352.2224	1375.6815	1413.1866	1479.0596	1480.5569	1488.6173	1493.1393	1684.7853	1728.1704	2986.1989	3000.0647	3009.1375	3014.3626	3029.7108	3039.2561	3058.2918	3079.1085	3108.4572	3172.4965	3176.7006	3199.1703
CC1=CC2C=CCC2C1	CC1=C[C@H]2C=CC[C@H]2C1	
InChI=1S/C9H12/c1-7-5-8-3-2-4-9(8)6-7/h2-3,5,8-9H,4,6H2,1H3	InChI=1S/C9H12/c1-7-5-8-3-2-4-9(8)6-7/h2-3,5,8-9H,4,6H2,1H3/t8-,9+/m1/s1
