16
gdb 76930	1.99964	1.7801	1.16106	3.7376	67.37	-0.2534	-0.0487	0.2047	1072.6531	0.12202	-475.040315	-475.030903	-475.029959	-475.075635	32.083	
C	-0.0392206467	 1.401637741	-0.0483433309	-0.35424
N	-0.0018733839	-0.0377846848	 0.0460274525	-0.044246
C	-1.0595126582	-1.0317234237	-0.0532409909	-0.151232
C	-1.7807852453	-1.0949012719	-1.3778889857	 0.162088
O	-1.3589541044	-0.5934931762	-2.3901362869	-0.259515
C	 0.0957986472	-2.136870886	 0.0501700499	-0.012251
O	 0.2196316454	-3.0949288789	-0.9486724055	-0.407007
C	 1.0555980602	-0.9116162368	 0.0304240627	 0.359279
O	 2.2457213032	-0.7496413167	-0.0160156457	-0.364518
H	 0.9916953484	 1.7595298291	-0.0003062504	 0.165406
H	-0.4836739329	 1.7194692661	-0.9969560724	 0.151536
H	-0.6073146899	 1.8395568312	 0.7801802199	 0.130471
H	-1.774802823	-1.0356974775	 0.7787644985	 0.093787
H	-2.7260412752	-1.6798837421	-1.3659373036	 0.094185
H	 0.0665943555	-2.6609434333	 1.0077934782	 0.129501
H	 0.5153515197	-2.6652901495	-1.7602220196	 0.306757
38.6143	74.5898	114.2234	158.0564	206.0282	221.5306	245.664	310.6722	350.5215	421.1368	561.178	628.8271	686.4738	767.0758	806.3314	867.9176	925.3345	982.5376	1023.419	1071.2967	1131.1585	1146.6106	1163.2768	1223.5985	1277.4567	1299.2612	1355.3603	1407.682	1419.0865	1432.2666	1454.9554	1483.7211	1513.8795	1818.4163	1884.4771	2898.5876	3028.953	3034.1732	3091.9687	3102.064	3136.4973	3795.7085
CN1C(C=O)C(O)C1=O	CN1[C@@H](C=O)[C@@H](O)C1=O	
InChI=1S/C5H7NO3/c1-6-3(2-7)4(8)5(6)9/h2-4,8H,1H3	InChI=1S/C5H7NO3/c1-6-3(2-7)4(8)5(6)9/h2-4,8H,1H3/t3-,4+/m0/s1
