19
gdb 89619	3.54779	1.18284	0.98562	2.5294	77.53	-0.2376	-0.0197	0.2179	1242.4906	0.156639	-423.014895	-423.005729	-423.004785	-423.048997	33.883	
C	-0.0896961041	 1.4929394853	-0.0610338623	-0.408192
C	 0.2014184855	 0.0076946317	-0.0490008425	 0.132516
O	 1.4055635451	-0.3563397116	-0.7981525113	-0.343879
C	 1.8865769002	-1.1240184026	 0.307842722	 0.357645
C	 2.1418014348	-0.2487429409	 1.5034742088	-0.332931
C	 0.7347400502	-0.6814231476	 1.2114186579	-0.17406
C	 2.4633500566	-2.4778862632	 0.1144968662	 0.285297
C	 2.5364800379	-2.9732997725	-1.3131029098	-0.480746
O	 2.8389692874	-3.1283585531	 1.0678937406	-0.322895
H	 0.7220558267	 2.066444028	 0.3934686276	 0.125663
H	-0.2221240961	 1.8415813906	-1.0899916915	 0.132425
H	-1.0135863282	 1.6981890693	 0.4899654269	 0.123253
H	-0.6469908764	-0.5519506446	-0.4628342186	 0.088716
H	 2.6061089797	-0.764986667	 2.3360841355	 0.147484
H	 2.4681862486	 0.7714589499	 1.3276010882	 0.121276
H	 0.1559760661	-1.2907822047	 1.8920793452	 0.116797
H	 3.1279142026	-2.2807054301	-1.9219070749	 0.150004
H	 2.9803953067	-3.9689139855	-1.3321630878	 0.13655
H	 1.5364547166	-2.9921122115	-1.7586163002	 0.145076
68.6889	115.4673	130.2394	152.4233	217.3065	260.077	302.046	368.2729	470.6651	475.9062	554.9266	585.9515	637.1879	714.6035	821.3628	835.8156	870.5956	923.9681	942.6935	980.7292	994.0623	1016.1082	1051.7697	1063.8116	1086.1266	1106.5475	1143.2887	1162.3047	1191.4618	1297.145	1317.8326	1369.0788	1383.8108	1396.8536	1414.8805	1454.2124	1466.6492	1469.2577	1483.7238	1494.2434	1786.9319	3023.6049	3041.3086	3043.1124	3103.6851	3110.0246	3124.6486	3130.8603	3158.2481	3209.2495	3232.6615
CC1OC2(CC12)C(C)=O	C[C@H]1O[C@]2(C[C@@H]12)C(=O)C	
InChI=1S/C7H10O2/c1-4-6-3-7(6,9-4)5(2)8/h4,6H,3H2,1-2H3	InChI=1S/C7H10O2/c1-4-6-3-7(6,9-4)5(2)8/h4,6H,3H2,1-2H3/t4-,6+,7-/m1/s1
