15
gdb 73781	2.5095	1.62074	0.99281	3.4975	77.37	-0.2107	-0.0622	0.1485	1108.474	0.113712	-454.017878	-454.009619	-454.008675	-454.050505	31.327	
N	 0.0730362134	 1.4043288909	 0.0970074439	-0.607699
C	-0.0316669808	 0.0384493698	 0.0231315612	 0.164771
C	-1.1437286615	-0.7540092896	-0.0197388285	 0.164718
N	-2.4697304156	-0.4068856038	-0.0775578183	-0.607701
C	-0.7547068248	-2.1748736551	-0.0383030034	 0.348954
O	-1.5486038142	-3.0943433089	-0.0507419774	-0.353914
C	 0.7665170935	-2.2572039069	-0.0161144088	-0.45526
C	 1.1848463186	-0.7926084879	 0.0205523685	 0.348957
O	 2.3129737838	-0.3419314272	 0.0286030225	-0.353908
H	 1.0239717602	 1.7236273001	-0.0448719605	 0.268367
H	-0.6150544873	 1.9451048441	-0.4066593183	 0.256853
H	-2.7521164893	 0.413406477	 0.4391432034	 0.256845
H	-3.08030145	-1.2035701402	 0.0598074318	 0.268361
H	 1.1245337536	-2.8097033149	 0.8591189966	 0.150329
H	 1.1643458804	-2.7648567373	-0.9012610627	 0.150327
111.0907	126.6408	225.8626	270.8712	285.0963	341.2728	375.8782	418.0668	533.2438	536.4115	579.7	589.3257	638.0916	642.5175	651.4541	707.4174	737.3157	876.1251	960.6971	1044.2646	1085.212	1135.1221	1208.9175	1238.4149	1300.1313	1364.291	1417.2754	1440.9975	1625.2687	1626.6047	1721.3313	1768.3573	1817.2972	3054.4484	3092.1698	3535.243	3536.9957	3645.8928	3648.6664
NC1=C(N)C(=O)CC1=O	NC1=C(N)C(=O)CC1=O	
InChI=1S/C5H6N2O2/c6-4-2(8)1-3(9)5(4)7/h1,6-7H2	InChI=1S/C5H6N2O2/c6-4-2(8)1-3(9)5(4)7/h1,6-7H2
