16
gdb 39527	3.12765	2.05139	1.59706	3.3962	67.73	-0.2456	-0.0095	0.2361	846.884	0.127143	-437.8411	-437.834915	-437.833971	-437.871427	25.456	
C	-0.1129258053	 1.4902331515	-0.0502906351	-0.181668
N	 1.2528457977	 2.0157839532	 0.1123849962	-0.225438
C	 2.0451159484	 1.055741444	-0.1344134465	 0.348395
O	 3.2764371545	 0.9505288217	 0.4268373106	-0.277479
C	 3.1289739215	-0.1182164173	 1.4290717297	 0.026586
O	 1.7875721308	-0.3405845428	 1.7905868642	-0.245747
C	 1.0404192104	-0.8390823964	 0.6878334647	 0.084852
C	 0.0344747427	-0.0305204183	-0.160534326	-0.102033
C	 1.4476466365	-0.2500014096	-0.6183676925	-0.229672
H	-0.6814153829	 1.8028880011	 0.8322083332	 0.129604
H	-0.6261846123	 1.8998903141	-0.9305735868	 0.113837
H	 3.5816592346	-1.0276166664	 1.0123833288	 0.107191
H	 3.6593175874	 0.2210671813	 2.3189673593	 0.140441
H	 0.8220099131	-1.900529602	 0.774288049	 0.104676
H	-0.7882324445	-0.6182974809	-0.5524942431	 0.097361
H	 1.8292314373	-0.7903623534	-1.4756813657	 0.109095
161.9763	287.8385	297.9029	449.2167	473.8943	531.4163	584.1196	656.074	742.7704	774.0428	804.5482	827.9709	836.7703	894.3322	955.167	988.4144	1004.7412	1023.9728	1052.3483	1057.0508	1075.5069	1103.354	1137.1129	1151.4203	1204.1772	1243.2268	1270.6343	1302.1827	1315.314	1344.808	1385.5808	1430.1268	1483.1708	1513.1042	1698.3173	3013.5259	3020.2513	3070.2751	3137.2092	3138.9866	3177.5615	3188.8565
C1N=C2OCOC3C1C23	C1[N][C]2OCO[C@H]3[C@@H]1[C@@H]23	
InChI=1S/C6H7NO2/c1-3-4-5(3)8-2-9-6(4)7-1/h3-5H,1-2H2	InChI=1S/C6H7NO2/c1-3-4-5(3)8-2-9-6(4)7-1/h3-5H,1-2H2/t3-,4+,5-/m0/s1
