18
gdb 62586	2.97976	1.63943	1.36792	4.3537	74.61	-0.2454	0.0046	0.25	992.1273	0.146684	-401.913902	-401.905982	-401.905038	-401.945817	31.247	
C	-0.1322962537	 1.4748451874	 0.0291181569	-0.446077
C	 0.0349149648	-0.0446161791	 0.0257138162	 0.302206
C	-1.3000404452	-0.7547805522	 0.2358021569	-0.464194
C	 0.9230178864	-0.4954747628	-1.1549487885	-0.071679
C	 2.1532800684	-0.3947478922	-0.3684127322	-0.055959
C	 1.2490199689	-0.499398441	 0.9187070719	-0.245227
C	 1.3246554723	-1.9853762523	 0.6117093732	 0.437694
O	 1.3272078466	-3.0038303241	 1.2274681701	-0.325565
N	 1.6488590237	-1.772661075	-0.8005923048	-0.212019
H	 0.8276240831	 1.987575524	-0.0869146248	 0.121031
H	-0.7865471637	 1.7932758291	-0.7904555062	 0.120785
H	-0.5881372223	 1.8121568265	 0.9658957418	 0.122863
H	-2.0179863481	-0.4548462781	-0.5352437864	 0.120346
H	-1.198879856	-1.8429223624	 0.1966698832	 0.141642
H	-1.7309557701	-0.4929474326	 1.2083826842	 0.124128
H	 0.7622569686	-0.3389939072	-2.2151798726	 0.10797
H	 3.1720505108	-0.0887147346	-0.5506556971	 0.127375
H	 1.4159934157	-0.0927372435	 1.9128577182	 0.09468
135.5249	192.8663	206.5509	253.3502	265.6424	344.8358	359.1628	464.3102	529.0359	613.5425	636.2794	717.0131	789.0231	814.796	845.5847	869.4779	884.2482	897.1136	957.8599	968.2649	989.5279	1023.3668	1034.4099	1059.6455	1126.4199	1150.6568	1166.48	1198.4998	1225.0136	1249.2747	1295.3175	1336.814	1406.9777	1425.6874	1480.9929	1487.3988	1503.5622	1506.0795	1916.1084	3027.9503	3034.0334	3093.097	3098.2019	3105.623	3114.2221	3158.0495	3187.244	3241.5348
CC1(C)C2C3C1C(=O)N23	CC1(C)[C@H]2[C@H]3[C@@H]1C(=O)N23	
InChI=1S/C7H9NO/c1-7(2)3-4-5(7)8(4)6(3)9/h3-5H,1-2H3	InChI=1S/C7H9NO/c1-7(2)3-4-5(7)8(4)6(3)9/h3-5H,1-2H3/t3-,4-,5-,8?/m1/s1
