16
gdb 53641	3.28161	0.68383	0.5961	2.7018	76.82	-0.2501	-0.0774	0.1728	1830.1856	0.121465	-437.89569	-437.885405	-437.884461	-437.934403	33.688	
C	-0.3267451794	 1.2728542795	-0.116576769	-0.496954
C	-0.1623205366	-0.1587934337	 0.0873863769	 0.077144
C	-0.018472725	-1.3429824577	 0.2466105015	 0.043358
C	 0.1407142381	-2.7765169173	 0.4627415629	-0.292694
N	-1.1303431454	-3.4875682837	 0.3984509912	-0.302614
C	-1.2904841118	-4.6346394504	-0.2933851379	 0.31039
O	-0.4274663802	-5.2482775152	-0.8969841749	-0.36207
C	-2.7326332584	-5.1514271318	-0.2685595793	 0.104668
O	-3.6309986539	-4.5949619343	 0.3080452046	-0.245649
H	 0.387721078	 1.6512868504	-0.8555242876	 0.154655
H	-1.3334978667	 1.5049877266	-0.480407537	 0.154289
H	-0.1721801432	 1.8297063761	 0.8138377233	 0.151821
H	 0.7838481505	-3.2292847793	-0.2994362547	 0.171287
H	 0.6253217241	-2.9580417319	 1.4322931189	 0.143093
H	-1.9552612454	-3.0868006219	 0.821995603	 0.27039
H	-2.8579259846	-6.0924465454	-0.839314302	 0.118887
16.7871	23.6813	52.867	142.9817	179.2207	181.2325	205.4347	277.3807	327.1472	373.0464	498.6978	511.1216	557.2722	640.0114	694.2333	775.5212	916.6203	1026.067	1032.0926	1052.3612	1056.761	1090.8569	1174.9139	1241.613	1269.34	1362.5706	1381.4714	1414.7867	1476.2134	1478.1453	1489.5465	1543.8559	1784.015	1823.4518	2378.1294	2957.4528	3006.5604	3030.2191	3075.5478	3092.6651	3093.1561	3611.96
CC#CCNC(=O)C=O	CC#CCNC(=O)C=O	
InChI=1S/C6H7NO2/c1-2-3-4-7-6(9)5-8/h5H,4H2,1H3,(H,7,9)	InChI=1S/C6H7NO2/c1-2-3-4-7-6(9)5-8/h5H,4H2,1H3,(H,7,9)
