18
gdb 60740	3.99946	0.96225	0.82982	4.0981	76.23	-0.2548	-0.0302	0.2246	1381.0738	0.147157	-439.128739	-439.119578	-439.118634	-439.163591	32.712	
C	-0.2970699073	 1.4915760121	 0.0555388794	-0.360162
N	 0.0432218294	 0.0707789469	 0.0005827409	-0.166412
C	 0.0644951288	-0.6407121712	 1.2028690491	 0.1718
O	-0.1817336322	-0.1465982265	 2.2772242657	-0.320641
C	 0.3480723505	-0.6142913027	-1.1898899597	 0.46505
O	 0.6248823243	-1.7987383359	-1.1830621015	-0.372514
C	 0.3169364971	 0.1723771163	-2.4541819299	-0.160461
C	 1.3140862218	-0.2451749822	-3.527800081	-0.244633
C	-0.1254228549	-0.5815691633	-3.7018999453	-0.244615
H	 0.5249041224	 2.1113425032	-0.3125590948	 0.141049
H	-1.1999609861	 1.7063105642	-0.5222820218	 0.141057
H	-0.4798618745	 1.7277210648	 1.1034916513	 0.175737
H	 0.3303912041	-1.6926039487	 1.0459830172	 0.141851
H	 0.0656438415	 1.221596161	-2.4025674993	 0.09862
H	 1.7471908413	 0.547920596	-4.1260009501	 0.121351
H	 1.9843095627	-1.0510743428	-3.2543066364	 0.145797
H	-0.418109975	-1.6127115787	-3.5451038065	 0.145761
H	-0.713767864	-0.0271359626	-4.4236058673	 0.121366
48.8428	54.1414	182.9692	188.0001	205.7481	277.329	316.4624	327.6416	341.3069	399.2739	542.3035	713.1487	752.8097	795.2545	825.2078	830.1878	901.5769	911.3412	997.3687	1060.8803	1066.1343	1101.282	1106.0743	1123.0393	1123.6303	1154.6171	1211.6461	1227.9451	1278.2965	1315.0416	1412.4961	1422.8521	1449.6164	1453.3448	1485.4939	1507.2192	1509.9322	1765.4517	1806.1564	3047.6978	3083.9037	3113.2378	3145.8286	3147.6557	3160.183	3218.3323	3235.435	3249.9931
CN(C=O)C(=O)C1CC1	CN(C=O)C(=O)C1CC1	
InChI=1S/C6H9NO2/c1-7(4-8)6(9)5-2-3-5/h4-5H,2-3H2,1H3	InChI=1S/C6H9NO2/c1-7(4-8)6(9)5-2-3-5/h4-5H,2-3H2,1H3
