20
gdb 95235	3.24814	1.33374	1.05886	1.6391	80.3	-0.2247	0.0052	0.2298	1159.844	0.172665	-403.11624	-403.108266	-403.107322	-403.148318	32.196	
O	-0.1250665115	 1.4935303677	-0.1240779566	-0.43807
C	 0.0602402531	 0.084878971	-0.0344729719	 0.084342
C	-1.3291700781	-0.5231591496	 0.2412096812	-0.195446
C	-1.4223436103	-2.0195554964	-0.0737397248	-0.156681
N	-0.3098006558	-2.7794669692	 0.5065498545	-0.090494
C	 0.14935663	-3.9151137501	-0.291967773	-0.254479
C	 0.9820251872	-2.682115342	-0.198429131	-0.052383
C	 1.1529063273	-1.7414443921	-1.3464808598	-0.089744
C	 0.7279067588	-0.4798530431	-1.2736991813	-0.100418
H	 0.743776037	 1.9073997745	-0.1272074495	 0.280485
H	 0.7000789353	-0.1517842477	 0.8296259211	 0.088322
H	-1.5835348766	-0.3297230461	 1.2875985727	 0.110411
H	-2.0605319057	 0.012628481	-0.3736792309	 0.110429
H	-2.3496524295	-2.4269293731	 0.3440830688	 0.102515
H	-1.4786290884	-2.152776438	-1.1646099035	 0.092014
H	 0.4279568905	-4.809104127	 0.2596568443	 0.112454
H	-0.3593670189	-4.1031422044	-1.2366265693	 0.108932
H	 1.8339099055	-2.723045457	 0.4832709546	 0.09912
H	 1.648679356	-2.1108337202	-2.2411452066	 0.094788
H	 0.8350888139	 0.2015226316	-2.1145828689	 0.093903
105.9737	220.2	252.2735	301.773	312.2149	328.2031	370.3551	420.369	446.9218	569.9268	593.9752	701.4831	726.5185	746.1148	813.8627	854.195	902.1078	965.0865	974.8499	988.9658	1032.901	1052.5213	1086.9129	1102.0797	1109.976	1119.3469	1124.6421	1158.3419	1201.9971	1224.3383	1263.8268	1293.0144	1310.1903	1340.2599	1349.7742	1377.4442	1393.4471	1408.109	1423.8216	1484.2607	1496.8626	1512.7572	1697.8295	2971.3072	2983.8051	3046.992	3060.9461	3075.7007	3090.5827	3096.0418	3143.0623	3167.3003	3177.4282	3818.0973
OC1CCN2CC2C=C1	O[C@H]1CCN2C[C@H]2C=C1	
InChI=1S/C7H11NO/c9-7-2-1-6-5-8(6)4-3-7/h1-2,6-7,9H,3-5H2	InChI=1S/C7H11NO/c9-7-2-1-6-5-8(6)4-3-7/h1-2,6-7,9H,3-5H2/t6-,7-,8?/m1/s1
