21
gdb 68830	2.67888	1.42133	1.20951	1.0418	83.42	-0.233	0.0804	0.3134	1138.8191	0.181112	-387.048879	-387.039843	-387.038899	-387.081912	35.627	
C	 0.0272145442	 1.552526191	 0.0687274705	-0.50385
C	-0.0398363068	 0.0539148388	 0.076375813	 0.217523
C	 1.1255441329	-0.8340718484	-0.3313606455	-0.396394
C	 0.5448122795	-0.963080093	 1.0512199101	 0.361801
O	 1.2779714889	-0.6884498714	 2.193770819	-0.465346
C	-0.7471166205	-1.7914905205	 1.0352530305	-0.389383
C	-1.3074671304	-0.7887100839	 0.001209	 0.355645
C	-2.7144022096	-0.2796931135	-0.0542224441	-0.340396
C	-2.1460961671	-1.0812100064	-1.2088460665	-0.327509
H	 1.0099093177	 1.8967682523	 0.4055211066	 0.125851
H	-0.1415520102	 1.9614989043	-0.9350360517	 0.115416
H	-0.7247171055	 1.9855494068	 0.7373912144	 0.121281
H	 0.9993763256	-1.6150724967	-1.0785289076	 0.100873
H	 2.0843252089	-0.3240857167	-0.3604464909	 0.105909
H	 1.9815867687	-1.3424061374	 2.2680084759	 0.283961
H	-0.6628277368	-2.841036864	 0.7295800896	 0.086933
H	-1.2723287419	-1.7332705918	 1.9927633733	 0.108205
H	-3.4557677649	-0.7521160393	 0.5828784314	 0.109716
H	-2.8731834952	 0.7835101555	-0.20534023	 0.111698
H	-1.9221714577	-0.5548021148	-2.1315546229	 0.10941
H	-2.5075179798	-2.0947455609	-1.3514201652	 0.108657
111.8448	166.8315	184.5194	217.2435	226.0609	261.1966	332.7259	390.8917	408.5519	468.8124	479.2958	565.1572	625.6105	723.4353	767.5508	782.4607	834.9675	866.9639	913.9119	929.9168	959.2794	968.1531	994.7399	1034.4321	1048.9635	1057.6819	1076.241	1101.225	1134.404	1169.9151	1186.99	1199.0898	1214.7625	1241.9334	1296.7045	1340.0209	1381.8595	1407.1119	1422.672	1463.5284	1477.3882	1484.0398	1498.3821	1501.5492	1518.2858	3021.6086	3028.8874	3079.7966	3093.9394	3097.1315	3103.4965	3119.6942	3123.6225	3192.4225	3196.7221	3211.6743	3792.5515
CC12CC1(O)CC21CC1	C[C@@]12C[C@]1(O)CC12CC1	
InChI=1S/C8H12O/c1-6-4-8(6,9)5-7(6)2-3-7/h9H,2-5H2,1H3	InChI=1S/C8H12O/c1-6-4-8(6,9)5-7(6)2-3-7/h9H,2-5H2,1H3/t6-,8-/m0/s1
