14
gdb 9087	4.40318	1.04295	0.88425	4.1723	60.36	-0.2678	-0.0068	0.261	1211.2849	0.106453	-415.885964	-415.877426	-415.876482	-415.920188	29.046	
O	-0.4506874838	 1.2401489329	 0.027445151	-0.416923
C	 0.1042851588	-0.0583316703	-0.1250039853	-0.020756
C	 1.1219580831	-0.1062944162	-1.2810785745	-0.170326
N	 0.5043496957	 0.354667462	-2.5031124519	-0.280513
C	 0.4114361349	-0.424344636	-3.6190845817	 0.154862
O	 0.8824547152	-1.5342110862	-3.7333764658	-0.3123
C	 0.715281681	-0.5346262443	 1.1280319849	 0.256309
N	 1.2246581361	-0.8730906372	 2.1082834727	-0.303592
H	 0.2101415916	 1.8074397692	 0.4425773688	 0.300777
H	-0.7402392337	-0.7097872162	-0.3723530816	 0.155267
H	 1.9910725036	 0.5112732046	-1.0186572208	 0.12193
H	 1.4688953858	-1.1275782601	-1.4526300369	 0.171758
H	 0.0132961019	 1.2347396534	-2.4741604844	 0.257651
H	-0.1452769101	 0.0864912946	-4.4279934346	 0.085856
39.0397	77.7652	139.5615	202.9884	246.6301	277.1473	334.8394	362.0138	468.4507	542.2987	568.938	590.3805	757.0937	886.2582	958.3123	999.6502	1034.5141	1085.5085	1100.2228	1209.452	1230.8884	1285.0559	1313.2277	1388.7928	1419.3949	1428.995	1484.0275	1523.0599	1808.7897	2358.2992	2953.3836	3021.9121	3075.0463	3125.9227	3634.1061	3795.6751
OC(CNC=O)C#N	O[C@@H](CNC=O)C#N	
InChI=1S/C4H6N2O2/c5-1-4(8)2-6-3-7/h3-4,8H,2H2,(H,6,7)	InChI=1S/C4H6N2O2/c5-1-4(8)2-6-3-7/h3-4,8H,2H2,(H,6,7)/t4-/m1/s1
