15
gdb 37558	4.32966	1.62332	1.36491	2.5685	71.48	-0.233	0.0203	0.2532	909.3994	0.112894	-420.489251	-420.483075	-420.482131	-420.519629	25.365	
C	-0.0466309692	 1.5014014208	 0.2002039356	-0.118955
O	 1.2992039179	 1.9261247263	-0.1843502645	-0.318758
C	 1.9382250798	 0.8004558533	-0.6293865019	 0.338686
C	 2.6513282444	 0.2514126904	-1.9556297254	 0.004511
O	 3.9976811791	 0.3288182885	-1.4396230738	-0.309167
C	 3.2330734848	-0.0789448338	-0.2846224557	 0.004513
C	 2.2775368066	-1.0396443023	-1.1113200184	-0.26659
C	 1.0522690252	-0.3657879336	-0.5515251305	 0.367785
C	-0.1269959382	-0.0091244027	-0.0704567095	-0.38133
H	-0.1960304803	 1.754519173	 1.2582285938	 0.119949
H	-0.7696905335	 2.0802975664	-0.3896012208	 0.119949
H	 2.4654781111	 0.4451970459	-3.0109210072	 0.111907
H	 3.7423159647	-0.2798977488	 0.6566653193	 0.111907
H	 2.4920141901	-2.0668429019	-1.3890658273	 0.105299
H	-1.0205968725	-0.5854625215	 0.1266960962	 0.110294
148.1891	276.1684	323.9061	333.92	589.0768	635.4698	643.1516	696.217	716.2244	790.7486	805.4806	847.3664	851.2148	886.5876	901.4827	903.6583	947.1173	969.5719	1000.5269	1021.8237	1074.9552	1095.7482	1127.4416	1147.4215	1156.7928	1181.9533	1199.1039	1242.7931	1301.4856	1319.2105	1411.3106	1514.3024	1766.8621	3009.9104	3041.6395	3133.0719	3138.9279	3179.9486	3223.9565
C1OC23C4OC2C4C3=C1	C1O[C@@]23[C@H]4O[C@@H]2[C@H]4C3=C1	
InChI=1S/C7H6O2/c1-2-8-7-3(1)4-5(7)9-6(4)7/h1,4-6H,2H2	InChI=1S/C7H6O2/c1-2-8-7-3(1)4-5(7)9-6(4)7/h1,4-6H,2H2/t4-,5-,6+,7-
