20
gdb 117591	2.10131	1.08226	0.916	3.7778	85.54	-0.2817	0.0143	0.2959	1421.257	0.167821	-365.999428	-365.988739	-365.987794	-366.035113	38.568	
C	-0.0508197554	 1.6187518757	 0.0730511907	-0.386592
C	 0.0046479389	 0.0906552412	-0.0232012233	-0.198516
C	 0.7452677399	-0.5273183281	 1.1670125879	-0.181046
C	 0.7730552782	-2.0904208022	 1.2061853934	-0.125368
C	 1.492253416	-2.6896408747	-0.0322475008	-0.406929
C	 1.4630143135	-2.5214965434	 2.4288647725	 0.334621
C	 2.0609780642	-2.8498992499	 3.4168560133	-0.439993
C	-0.6147394094	-2.5990329536	 1.2412526286	 0.299947
N	-1.7048868741	-2.9821096332	 1.242416995	-0.349498
H	 0.9544702433	 2.0537960103	 0.0956853447	 0.116644
H	-0.5797431208	 2.0465661008	-0.7835391702	 0.119718
H	-0.5717596052	 1.9396084084	 0.981437391	 0.12222
H	-1.0139101333	-0.3121637107	-0.0684136245	 0.127363
H	 0.4947647093	-0.1933862775	-0.9613565036	 0.103423
H	 1.789392743	-0.1946716684	 1.1811884663	 0.113527
H	 0.2929603473	-0.1802737721	 2.1019414093	 0.123851
H	 2.5077173805	-2.289197094	-0.0853225781	 0.133935
H	 1.5486730116	-3.7765247777	 0.0506534874	 0.146342
H	 0.957610472	-2.4369547085	-0.9496891487	 0.140242
H	 2.5768957906	-3.1491713623	 4.2959391593	 0.206109
76.2133	94.051	116.6785	132.8026	185.7548	213.8376	243.2257	248.6158	294.8854	320.6777	389.5295	467.6136	504.1103	580.8223	600.7434	645.9634	661.631	704.5259	748.4176	864.7111	900.3391	938.7081	951.9802	1024.689	1050.2975	1107.3814	1142.6564	1188.9807	1211.3107	1286.3529	1322.3157	1341.1826	1394.1507	1406.1361	1415.2297	1476.8327	1488.0128	1494.087	1497.7972	1500.4197	1511.4559	2242.6778	2356.4509	3032.4556	3033.8451	3044.3105	3056.7669	3065.4707	3088.7461	3104.2509	3109.4988	3138.61	3146.0548	3500.8549
CCCC(C)(C#C)C#N	CCC[C@@](C)(C#C)C#N	
InChI=1S/C8H11N/c1-4-6-8(3,5-2)7-9/h2H,4,6H2,1,3H3	InChI=1S/C8H11N/c1-4-6-8(3,5-2)7-9/h2H,4,6H2,1,3H3/t8-/m1/s1
