17
gdb 50869	3.66499	0.90709	0.75113	5.4325	71.37	-0.2482	-0.0324	0.2158	1455.1834	0.135842	-455.161139	-455.152146	-455.151202	-455.196044	31.552	
O	-0.3954873632	 0.8504570524	 0.2463892761	-0.249204
C	 0.5725832247	 1.0314865688	 0.9298140589	 0.164532
N	 1.8912232353	 1.1608938374	 0.4952391516	-0.360541
C	 2.3657556485	 1.0925331754	-0.8230930848	 0.410193
O	 1.662661114	 0.8983740225	-1.7796736811	-0.302241
C	 3.8797201482	 1.3210881062	-0.9621000139	-0.334967
C	 4.7047906734	 1.0460367915	 0.27058579	-0.007735
C	 5.950293246	 1.7856965409	 0.5703677694	-0.247142
N	 4.7380012065	 2.0366008897	 1.3768757245	-0.327166
H	 0.5310224108	 1.1230306735	 2.0347445408	 0.08815
H	 2.5775097861	 1.3090074386	 1.2243701561	 0.280515
H	 4.1991628455	 0.6987769891	-1.8033206154	 0.149834
H	 4.0168023252	 2.3634020031	-1.2812745519	 0.130982
H	 4.6419121012	 0.0233093548	 0.638432329	 0.11316
H	 6.7586158611	 1.2904657812	 1.0994152918	 0.133202
H	 6.2683316613	 2.5572504061	-0.1255931003	 0.124254
H	 4.3189924656	 2.9087901689	 1.0570821292	 0.234173
61.7374	66.937	111.0885	159.1072	208.3863	227.9048	312.6661	348.3347	472.3211	517.0781	615.742	717.5837	748.1759	795.6781	836.6657	917.5682	941.7801	946.738	995.6457	1031.1838	1055.1005	1122.6974	1132.7856	1149.8634	1182.8122	1210.5422	1257.2593	1274.5423	1308.446	1313.0748	1431.2858	1447.9458	1452.471	1511.1406	1526.784	1810.1681	1873.2967	2922.2025	3027.2603	3093.487	3116.733	3126.8651	3204.3893	3472.3918	3571.6886
O=CNC(=O)CC1CN1	O=CNC(=O)C[C@H]1CN1	
InChI=1S/C5H8N2O2/c8-3-7-5(9)1-4-2-6-4/h3-4,6H,1-2H2,(H,7,8,9)	InChI=1S/C5H8N2O2/c8-3-7-5(9)1-4-2-6-4/h3-4,6H,1-2H2,(H,7,8,9)/t4-/m0/s1
