18
gdb 128761	3.19252	1.09548	0.84626	3.4015	75.84	-0.2437	-0.0066	0.2371	1359.9398	0.146551	-439.07234	-439.063081	-439.062137	-439.107572	32.122	
C	-0.0988736454	 1.3798685594	 0.252955927	-0.226651
O	-0.1157251078	-0.0208651764	 0.4215206435	-0.227835
C	-1.1454956875	-0.639470411	-0.3200751292	-0.192129
C	-1.1297131947	-2.1097230829	-0.0540096295	 0.345552
C	-0.9820263685	-2.865113413	 1.0716120835	 0.08493
C	-0.7627493803	-2.4289092198	 2.4867366877	-0.519338
C	-1.0975012032	-4.1920840137	 0.5648367273	-0.028082
N	-1.2980445194	-4.2309427794	-0.7283869609	-0.145616
O	-1.3145404292	-2.9008538381	-1.1297797024	-0.216749
H	 0.7210115613	 1.7683530513	 0.8606036829	 0.134614
H	 0.0711104336	 1.6591806868	-0.798069071	 0.112744
H	-1.0417988658	 1.842187052	 0.584355461	 0.109147
H	-2.1246347211	-0.2106132145	-0.0426833033	 0.11027
H	-1.0174398322	-0.4745015568	-1.4012752579	 0.121347
H	-1.6362455453	-2.6424926608	 3.1135911789	 0.129701
H	 0.090285903	-2.9506009392	 2.9334536864	 0.132952
H	-0.5602462259	-1.3579647756	 2.5284083142	 0.148259
H	-1.0383962616	-5.1231702484	 1.1127917618	 0.126883
38.7067	86.7385	117.2277	132.9304	228.3364	245.7446	266.404	318.4783	370.9768	408.6629	646.0232	657.4416	683.0372	783.3191	912.2766	932.2981	957.4014	990.1991	1012.7735	1020.0059	1072.8261	1148.9559	1180.6563	1197.3932	1204.1644	1225.0978	1227.2843	1283.0816	1382.8562	1420.846	1433.4741	1479.7753	1485.6939	1491.0756	1498.1207	1499.3263	1515.5576	1523.5033	1678.9955	2948.2625	2976.7269	3000.8538	3024.1174	3034.3351	3084.335	3124.593	3144.2265	3233.169
COCC1=C(C)C=NO1	COCc1c(C)cno1	
InChI=1S/C6H9NO2/c1-5-3-7-9-6(5)4-8-2/h3H,4H2,1-2H3	InChI=1S/C6H9NO2/c1-5-3-7-9-6(5)4-8-2/h3H,4H2,1-2H3
