17
gdb 26493	3.70105	1.2975	1.05254	2.6527	75.21	-0.2096	0.0341	0.2437	1131.4387	0.137588	-418.031837	-418.02401	-418.023066	-418.064384	30.429	
O	 0.2938336936	 1.3057086801	 0.3681920612	-0.467222
C	 0.053791756	-0.0581629009	 0.1125213578	 0.285283
C	-0.5093436146	-0.8444229561	 1.2697430894	-0.281719
C	-1.3673336463	-0.5576256601	 0.061453767	-0.317979
C	 1.0733701074	-0.6803421447	-0.7629702267	 0.299662
N	 1.0058351435	-1.8489923082	-1.3656557501	-0.325724
C	 2.2087500322	-1.9911984628	-2.0208669705	-0.093225
C	 3.005164012	-0.8964931927	-1.8150889442	-0.114003
N	 2.2629001869	-0.0622611954	-1.0065795252	-0.284467
H	-0.0451840614	 1.8065824306	-0.3827429638	 0.286216
H	-0.140310347	-1.8534326848	 1.4088751499	 0.135155
H	-0.7071820234	-0.2804145128	 2.1740010436	 0.123629
H	-2.1460700983	 0.1897672003	 0.1677014512	 0.112098
H	-1.5729926495	-1.3680430017	-0.6276376868	 0.146567
H	 2.4274352849	-2.8703201645	-2.6078999027	 0.10464
H	 3.9905655232	-0.6321320695	-2.1600204776	 0.124699
H	 2.5266002608	 0.8285230633	-0.6200155126	 0.266389
60.8863	156.9939	182.9678	322.851	323.0575	361.1588	450.1088	493.4593	549.7406	594.3253	659.9092	718.9021	755.6909	779.7794	853.7841	864.4551	907.6151	931.0177	932.2959	979.3889	999.7165	1060.7133	1083.7936	1089.6288	1127.4632	1173.7636	1198.8969	1208.3629	1266.472	1315.9677	1349.9621	1397.2485	1441.5393	1460.3499	1491.2858	1515.0088	1589.4517	3138.2081	3143.5845	3232.1272	3245.5441	3247.3242	3282.3322	3669.6239	3787.5192
OC1(CC1)C1=NC=CN1	OC1(CC1)c1ncc[nH]1	
InChI=1S/C6H8N2O/c9-6(1-2-6)5-7-3-4-8-5/h3-4,9H,1-2H2,(H,7,8)	InChI=1S/C6H8N2O/c9-6(1-2-6)5-7-3-4-8-5/h3-4,9H,1-2H2,(H,7,8)
