15
gdb 46015	4.93895	0.99924	0.84946	2.2275	77.68	-0.2419	-0.0526	0.1894	1261.3387	0.115057	-416.881945	-416.874246	-416.873302	-416.914476	28.633	
O	 0.0279050272	-0.0817147319	 0.045467451	-0.338605
C	-0.0335934526	 1.1254351572	 0.0493415908	 0.412666
C	-1.3228275103	 1.9314114797	 0.0676376225	-0.330501
C	-1.2040035806	 3.2788620662	 0.7968987788	-0.323121
C	 0.0582782346	 4.0031087307	 0.370759057	 0.088038
C	 1.1371172338	 3.2841082335	 0.0030763585	-0.017896
N	 1.1176673641	 1.9035300552	-0.0375746148	-0.333182
C	 0.1154003939	 5.4194059763	 0.4081860542	 0.20433
N	 0.1267484841	 6.57851488	 0.4517194699	-0.33994
H	-1.5871067574	 2.1053683674	-0.9843118368	 0.144921
H	-2.1032984723	 1.300956744	 0.4961724767	 0.144081
H	-2.0856075573	 3.8914983177	 0.5928758987	 0.138496
H	-1.1812167044	 3.121562783	 1.8839432327	 0.136378
H	 2.0776277179	 3.7485619562	-0.2667049062	 0.146321
H	 1.9762742893	 1.3913198547	-0.1773827331	 0.268015
79.465	140.0316	171.6007	238.5285	392.6771	403.5858	457.9556	493.0725	565.14	568.3033	594.1402	654.5176	720.2216	779.5525	785.3271	923.3645	966.903	1005.0094	1041.672	1144.7334	1176.4591	1194.7442	1262.359	1280.1351	1340.3729	1374.6386	1380.4512	1459.6318	1470.0633	1485.9919	1695.3195	1821.8991	2326.7231	3017.3955	3033.286	3096.4858	3127.0043	3213.7669	3621.7083
O=C1CCC(=CN1)C#N	O=C1CCC(=CN1)C#N	
InChI=1S/C6H6N2O/c7-3-5-1-2-6(9)8-4-5/h4H,1-2H2,(H,8,9)	InChI=1S/C6H6N2O/c7-3-5-1-2-6(9)8-4-5/h4H,1-2H2,(H,8,9)
