14
gdb 28661	5.63746	0.99129	0.84305	5.2455	80.63	-0.2423	-0.039	0.2033	1255.8543	0.103381	-399.637855	-399.630656	-399.629711	-399.669517	27.685	
O	 0.0685228374	 1.3642016502	 0.1241175643	-0.42945
C	 0.0607034251	 0.0117943029	 0.0382426376	 0.392938
C	 0.0810096828	-0.6673174781	-1.1838943357	-0.246074
C	 0.0716750821	-2.0536568848	-1.2077133968	-0.170098
C	 0.0419208443	-2.7821863125	-0.0112405525	 0.167618
C	 0.0216961831	-2.0913851161	 1.2110249705	-0.176883
C	 0.0309618603	-0.7079002375	 1.2372454439	-0.175161
C	 0.0323092762	-4.209385812	-0.0356791958	 0.197646
N	 0.0245366378	-5.3675451289	-0.056861559	-0.338945
H	 0.0894265752	 1.744307888	-0.7609003378	 0.304416
H	 0.1041115815	-0.1086942858	-2.1153138206	 0.100674
H	 0.0874024539	-2.5804662937	-2.154543405	 0.126646
H	-0.0013345438	-2.6513430404	 2.138561045	 0.126735
H	 0.0155695341	-0.1635980714	 2.1739262119	 0.119939
107.9583	155.4969	268.4977	402.976	404.587	416.5692	417.3849	490.3264	563.18	575.5437	662.451	710.6447	742.6129	828.0459	851.4694	860.6589	943.9804	971.6384	1024.7728	1126.0656	1192.044	1198.5387	1227.0797	1316.7764	1324.7305	1371.5373	1463.435	1545.1043	1618.597	1653.2304	2339.901	3166.5286	3198.9739	3206.8526	3213.6753	3817.2328
OC1=CC=C(C=C1)C#N	Oc1ccc(cc1)C#N	
InChI=1S/C7H5NO/c8-5-6-1-3-7(9)4-2-6/h1-4,9H	InChI=1S/C7H5NO/c8-5-6-1-3-7(9)4-2-6/h1-4,9H
