19
gdb 87700	3.11198	1.18536	0.99403	4.5262	79.97	-0.2311	0.026	0.2571	1263.5241	0.158286	-419.192159	-419.18283	-419.181886	-419.226423	33.422	
C	-0.1543607065	 1.456865316	-0.1035805377	-0.316345
N	 0.0336923904	 0.0163054654	-0.0033400392	-0.114742
C	 1.3926096838	-0.491622545	-0.1616215386	-0.307101
C	 0.7198103035	-0.4927671002	 1.1623667918	 0.186241
C	 1.1313540472	 0.2242360009	 2.470340054	-0.257853
N	 0.6617720364	-0.9782423813	 3.1645665239	-0.096051
C	 0.683530573	-1.3576728516	 4.55067352	-0.342063
C	 0.265323236	-1.664947395	 2.0353852191	 0.376666
O	-0.2134468362	-2.7566920314	 1.8792152277	-0.380077
H	 0.6943714278	 2.0446189924	 0.2844452822	 0.100488
H	-0.2998151181	 1.7203169449	-1.1553708582	 0.13213
H	-1.0554032797	 1.7445975248	 0.446820155	 0.129931
H	 1.4913402957	-1.4179878372	-0.7206364543	 0.135764
H	 2.1987404824	 0.2287276051	-0.3029162064	 0.109627
H	 2.2027414358	 0.4222373806	 2.5917044016	 0.112258
H	 0.5622287303	 1.1296669311	 2.7127304539	 0.113045
H	 0.0876181018	-0.6732498353	 5.1670805431	 0.128085
H	 0.2546843144	-2.3602374003	 4.6235755176	 0.163128
H	 1.7057321319	-1.381068154	 4.9496048246	 0.126871
77.9984	121.238	147.8293	172.544	187.5337	226.702	245.6722	284.5797	381.8832	429.81	528.5984	575.8232	694.0539	795.4658	809.1356	827.7986	919.0209	940.0254	1028.9401	1054.2559	1064.4822	1118.1266	1119.3091	1126.4867	1160.4655	1172.932	1193.1068	1206.015	1232.5592	1294.7954	1412.055	1431.3281	1447.768	1451.1999	1482.412	1492.2181	1496.211	1509.3962	1510.8475	1532.3364	1883.539	2963.7567	3010.1625	3021.7421	3059.6729	3063.571	3072.5153	3083.3829	3109.871	3126.6438	3181.6415
CN1CC11CN(C)C1=O	CN1C[C@]21CN(C)C2=O	
InChI=1S/C6H10N2O/c1-7-3-6(5(7)9)4-8(6)2/h3-4H2,1-2H3	InChI=1S/C6H10N2O/c1-7-3-6(5(7)9)4-8(6)2/h3-4H2,1-2H3/t6-,8?/m1/s1
