14
gdb 11946	3.18158	1.99768	1.5492	2.8403	60.81	-0.2356	-0.0342	0.2015	825.4611	0.104892	-419.633207	-419.625754	-419.62481	-419.664875	27.292	
O	-0.1675110913	 1.3714911041	 0.0131530663	-0.433356
C	-0.0536584068	 0.0110840368	-0.0005445974	 0.314715
C	-0.2072222979	-0.8903022224	-1.1716676966	-0.402107
C	-1.1080223721	-1.1493377285	 0.0225981599	 0.264205
O	-0.4009675396	-1.8193533497	 1.0606921969	-0.314328
C	 0.5487214762	-0.7276128094	 1.1850010399	-0.129709
C	-2.5667341023	-1.0838200145	 0.0038822535	 0.072342
O	-3.2043372943	-0.5662129115	-0.8883150798	-0.28703
H	-0.269996248	 1.6936618651	-0.8882401804	 0.305522
H	-0.7538476307	-0.4606314842	-2.0074607701	 0.146819
H	 0.5458840406	-1.632772354	-1.426167711	 0.128182
H	 1.5883378473	-1.0620591254	 1.096230677	 0.116681
H	 0.4013372504	-0.1888809183	 2.1267709013	 0.130115
H	-3.0477585115	-1.5193624781	 0.9054666805	 0.08795
102.0415	176.79	205.0763	229.7942	299.4564	375.3456	426.9101	470.3362	527.8431	657.7818	728.9293	753.7026	822.8096	941.9564	955.1926	987.8413	1037.0352	1052.9234	1072.7497	1115.7776	1148.3458	1175.7315	1289.2016	1324.7684	1388.4608	1413.5551	1423.2431	1473.9179	1512.5359	1781.0124	2909.7473	3035.9984	3093.5743	3102.2513	3202.1158	3827.3516
OC12CC1(OC2)C=O	O[C@]12C[C@]1(OC2)C=O	
InChI=1S/C5H6O3/c6-2-5-1-4(5,7)3-8-5/h2,7H,1,3H2	InChI=1S/C5H6O3/c6-2-5-1-4(5,7)3-8-5/h2,7H,1,3H2/t4-,5-/m0/s1
