17
gdb 19298	3.19592	1.82251	1.40785	3.3647	63.43	-0.244	0.0514	0.2955	907.715	0.142254	-400.934199	-400.926334	-400.92539	-400.966416	29.405	
O	 0.8451648112	-0.6762881395	-1.1265090875	-0.426818
C	 0.2008313213	-0.0445502376	-0.0316073331	-0.067342
C	-1.2682083181	-0.42675026	 0.0043474212	 0.009589
C	-2.2658479396	 0.260763082	 0.970519885	 0.064005
O	-1.6894266071	 1.2860008049	 1.7517718268	-0.426203
C	-3.0600498689	 0.6653482676	-0.2763049689	-0.063057
C	-2.2067677447	 1.4496144698	-1.1850528358	-0.249428
N	-2.0773919113	-0.0228757542	-1.2151236432	-0.158122
H	 0.2962011161	-0.5180665839	-1.9033275749	 0.293658
H	 0.6958394144	-0.3997031624	 0.8781620251	 0.11597
H	 0.3321336481	 1.0457301344	-0.0610407863	 0.098204
H	-1.3377474217	-1.5153657794	 0.0770874133	 0.095514
H	-2.8021768213	-0.4613922355	 1.5981384058	 0.077976
H	-2.3861560377	 1.7145423708	 2.2597903491	 0.286012
H	-4.1325478827	 0.5627557568	-0.4077769047	 0.094397
H	-2.6651422695	 1.8382955179	-2.0886593229	 0.123677
H	-1.4148585283	 2.0654754384	-0.770614109	 0.13197
87.0867	150.4918	167.4325	247.2872	282.6034	330.4259	373.3213	495.7602	539.5203	573.9513	733.1669	766.5398	774.7499	851.0452	920.3005	960.8279	1001.7817	1044.5892	1060.8169	1068.4219	1104.1875	1112.2782	1141.8525	1152.7504	1189.2997	1214.889	1238.1105	1294.0889	1314.8058	1333.1431	1367.0655	1387.8078	1421.9761	1432.5405	1492.8117	1514.2423	3012.0198	3023.9569	3069.9759	3083.3721	3127.6473	3161.7114	3215.1111	3795.1448	3811.55
OCC1C(O)C2CN12	OC[C@H]1[C@@H](O)[C@H]2CN12	
InChI=1S/C5H9NO2/c7-2-4-5(8)3-1-6(3)4/h3-5,7-8H,1-2H2	InChI=1S/C5H9NO2/c7-2-4-5(8)3-1-6(3)4/h3-5,7-8H,1-2H2/t3-,4+,5+,6?/m1/s1
