18
gdb 104482	2.50942	1.63316	1.17654	1.952	72.36	-0.2251	-0.0335	0.1917	1070.2009	0.146456	-439.002129	-438.993689	-438.992745	-439.03529	31.673	
C	 0.7019432264	-0.714763535	 1.4200109882	-0.333255
N	 0.0603137248	-0.1112228817	 0.2459007089	-0.35747
C	-1.2672284544	-0.6103901476	-0.005524528	 0.23636
C	-2.3421748738	 0.0693126249	 0.8260052929	 0.100128
O	-2.0947108335	 1.021381326	 1.5292008272	-0.271992
C	-1.7103093718	-0.8803379483	-1.5005367609	 0.000986
C	-0.6814448252	-2.0257775253	-1.5959976122	-0.228535
C	-1.4580332412	-2.1443709623	-0.2628090679	 0.003445
O	-2.7093629828	-1.8448156698	-0.9893026757	-0.310524
H	 1.6626189188	-0.2211968962	 1.5886699861	 0.125486
H	 0.1100703216	-0.638529494	 2.3444575297	 0.116863
H	 0.9054088336	-1.7734067347	 1.2265889989	 0.121771
H	-0.0266165514	 0.8865262483	 0.4210891481	 0.231
H	-3.3649728016	-0.3341116656	 0.7285698178	 0.112393
H	-2.0398663649	-0.161216807	-2.250588341	 0.105957
H	-0.9269325837	-2.7941511992	-2.3294256341	 0.111384
H	 0.3730296205	-1.7601394193	-1.5562754163	 0.130981
H	-1.4852464114	-2.9548393731	 0.4662757783	 0.105021
81.6998	112.5544	182.4339	213.9143	258.3356	275.8023	345.6645	440.8159	463.8722	543.9998	613.2922	723.0122	777.1667	810.4547	836.2912	883.1928	891.0598	919.6875	1003.9284	1027.2685	1044.0386	1074.1064	1089.8887	1138.9001	1144.7202	1167.8825	1174.0035	1206.4161	1216.1662	1229.4314	1278.9524	1302.0693	1394.9442	1457.1851	1468.3172	1492.6514	1499.2479	1527.2065	1800.2479	2986.3653	2991.5267	3070.5022	3093.0979	3111.7351	3115.5008	3123.9817	3180.6877	3502.6063
CNC1(C=O)C2CC1O2	CN[C@@]1(C=O)[C@H]2C[C@@H]1O2	
InChI=1S/C6H9NO2/c1-7-6(3-8)4-2-5(6)9-4/h3-5,7H,2H2,1H3	InChI=1S/C6H9NO2/c1-7-6(3-8)4-2-5(6)9-4/h3-5,7H,2H2,1H3/t4-,5+,6+
