16
gdb 57767	2.92798	0.70227	0.65445	3.0141	74.72	-0.2824	-0.0158	0.2666	1737.075	0.12133	-437.849839	-437.839543	-437.838599	-437.886815	35.419	
C	 0.0678149134	 1.5191334964	-0.1291068372	-0.391397
C	 0.0169957413	 0.0069595421	 0.1312966442	-0.025073
O	 0.65770256	-0.34774717	 1.3503812901	-0.407425
C	-1.3622354731	-0.4969622611	 0.0803278448	 0.093448
C	-2.5011963441	-0.8880948432	 0.0772191401	 0.050333
C	-3.8678605412	-1.4156534029	 0.0747379735	-0.179057
O	-3.9447975902	-2.7952275983	-0.2291767118	-0.38279
C	-4.5289092861	-1.1122999527	 1.370183538	 0.27946
N	-5.0456618616	-0.8962561614	 2.3802612996	-0.316644
H	 1.1062084321	 1.8563249962	-0.0830647023	 0.133702
H	-0.3447227464	 1.760876991	-1.1127329129	 0.131068
H	-0.5131463436	 2.0583878584	 0.6259649104	 0.124837
H	 0.6002773417	-0.5048056092	-0.6435366183	 0.128778
H	 0.1396911165	 0.0245093196	 2.0734180863	 0.288305
H	-4.4516027968	-0.918201049	-0.7098067327	 0.1707
H	-3.3463499619	-3.2633523259	 0.3655768583	 0.301754
21.8435	64.6036	86.2303	182.2581	196.4607	222.8932	255.176	292.3374	329.3087	370.8394	378.0377	476.3536	506.0563	559.818	610.397	629.7246	760.6204	872.9978	921.5445	1017.6289	1046.8109	1073.3222	1105.	1170.823	1263.8985	1288.226	1310.7467	1332.9009	1400.8989	1413.5154	1418.2748	1488.7353	1491.5959	2357.9149	2361.0881	3040.856	3044.2006	3045.6605	3117.5187	3132.199	3798.3829	3799.9291
CC(O)C#CC(O)C#N	C[C@@H](O)C#C[C@@H](O)C#N	
InChI=1S/C6H7NO2/c1-5(8)2-3-6(9)4-7/h5-6,8-9H,1H3	InChI=1S/C6H7NO2/c1-5(8)2-3-6(9)4-7/h5-6,8-9H,1H3/t5-,6-/m1/s1
