20
gdb 7696	3.37625	2.09664	1.84614	1.4532	73.97	-0.2337	0.0903	0.324	843.0306	0.177845	-348.992128	-348.984715	-348.983771	-349.023135	30.187	
C	-0.0433399166	 1.5083442344	-0.0166245595	-0.433558
C	 0.01797077	-0.0197691311	 0.0666321023	 0.418791
C	-1.3975859741	-0.5812301919	-0.0969579022	-0.433558
O	 0.8780272676	-0.5362167405	-0.9984337876	-0.329097
C	 1.902978729	-1.2286219858	-0.2667437674	 0.120899
C	 1.1205560151	-2.0288303633	 0.801506879	-0.244949
C	 0.8018286923	-0.5745951504	 1.2842079863	-0.086547
C	 2.2751582612	-0.24730297	 0.8699954595	-0.244948
H	 0.9373327528	 1.9735127286	 0.0915185173	 0.115831
H	-0.4489061041	 1.807643092	-0.9878722955	 0.12302
H	-0.7019039779	 1.9083386997	 0.7618990378	 0.109418
H	-1.8023934917	-0.280587043	-1.0681071365	 0.123018
H	-1.4244025544	-1.6706083368	-0.0486839846	 0.115832
H	-2.0589517334	-0.1856899209	 0.6814673331	 0.109418
H	 2.6180434947	-1.6653023432	-0.9626155087	 0.075551
H	 0.3106636121	-2.6742386863	 0.4610080259	 0.098761
H	 1.7682054767	-2.5635103567	 1.4983723492	 0.098108
H	 0.40391442	-0.3547890229	 2.2748015275	 0.067139
H	 3.0031914218	-0.6579453501	 1.5716307148	 0.098108
H	 2.544316089	 0.7722639182	 0.5934908594	 0.098762
137.0826	211.0956	221.0234	270.9273	375.7582	385.9035	492.2999	514.7088	537.1185	590.363	736.8768	817.7645	834.2203	839.6877	872.0075	910.6253	930.832	954.151	978.2837	979.5314	1014.1656	1044.2162	1044.8692	1075.1041	1098.6661	1128.4254	1188.109	1209.3323	1221.6464	1223.9138	1251.2773	1254.7636	1317.3135	1327.6825	1400.7035	1418.9681	1468.9694	1479.4918	1495.2489	1497.2213	1507.3797	1524.9218	3039.125	3046.243	3079.1538	3085.7686	3102.1446	3110.1321	3119.3192	3133.04	3133.6246	3137.8031	3146.7096	3149.1966
CC1(C)OC2CC1C2	CC1(C)O[C@@H]2C[C@H]1C2	
InChI=1S/C7H12O/c1-7(2)5-3-6(4-5)8-7/h5-6H,3-4H2,1-2H3	InChI=1S/C7H12O/c1-7(2)5-3-6(4-5)8-7/h5-6H,3-4H2,1-2H3/t5-,6+
