19
gdb 110719	3.08158	1.46634	1.39629	1.0097	79.25	-0.2215	0.0001	0.2216	1032.717	0.160491	-385.864794	-385.857257	-385.856313	-385.896772	30.246	
C	-0.0386581187	 1.3141083898	-0.1753570749	-0.245142
O	-0.0524295331	-0.0162000182	 0.2910864042	-0.249689
C	-1.2794704846	-0.6598368033	 0.1265789121	 0.191241
C	-1.641554742	-1.2161767607	-1.3112044618	-0.16831
C	-0.5192084787	-2.2558357695	-1.448158445	-0.065428
C	-0.3075597199	-2.7764446575	-0.2414841552	-0.060723
C	-1.287389805	-2.0980807365	 0.7322083503	-0.155703
C	-2.7161874143	-2.473389739	 0.3103705849	-0.082596
C	-2.9252028707	-1.9489355684	-0.8993838614	-0.079748
H	 0.9304501534	 1.7409185074	 0.0935491186	 0.127687
H	-0.1570375023	 1.372337032	-1.2673887814	 0.107844
H	-0.8342463982	 1.9171780825	 0.2897911119	 0.104262
H	-2.0925108613	-0.0349264451	 0.5233826426	 0.065471
H	-1.7419236151	-0.500167579	-2.126607743	 0.057244
H	-0.0384418884	-2.5118067954	-2.3822868071	 0.095606
H	 0.3830562603	-3.5587709457	 0.04141142	 0.097073
H	-1.0551729741	-2.1854363031	 1.7929276379	 0.063478
H	-3.392501096	-3.0686604909	 0.9087161798	 0.099215
H	-3.8153583214	-2.0124806894	-1.5108153425	 0.098216
77.2738	175.7448	191.3937	303.2016	375.0822	445.7134	455.4141	533.9222	572.357	687.4394	732.6404	753.6489	816.5087	823.2516	875.2984	894.1389	920.2767	927.6571	938.2607	942.3154	960.1432	1003.9773	1033.5846	1082.7164	1134.7303	1151.2982	1163.563	1182.5725	1219.1783	1236.83	1245.9055	1262.7934	1271.6887	1299.1665	1345.8435	1394.0151	1482.1581	1491.0698	1508.6878	1617.0103	1658.902	2976.1841	3006.097	3025.4374	3114.9767	3118.4616	3124.7578	3208.0691	3212.8817	3233.8005	3239.4167
COC1C2C=CC1C=C2	CO[C@H]1[C@H]2C=C[C@@H]1C=C2	
InChI=1S/C8H10O/c1-9-8-6-2-3-7(8)5-4-6/h2-8H,1H3	InChI=1S/C8H10O/c1-9-8-6-2-3-7(8)5-4-6/h2-8H,1H3/t6-,7+,8-
