19
gdb 88142	2.445	1.51869	1.12307	2.4046	76.43	-0.2354	-0.0127	0.2227	1129.3059	0.159267	-423.049028	-423.040493	-423.039549	-423.082191	32.588	
O	-0.3859480362	 1.4610441827	-0.1208013523	-0.419493
C	-0.1823364586	 0.0821291858	-0.1269089612	 0.075406
C	-0.248554292	-0.697617265	 1.1445916117	-0.383525
C	-1.4069062587	-0.7761741175	 0.1684783882	 0.226924
C	-2.7823984195	-0.1731569379	 0.3913705645	-0.313594
C	-3.6045871255	-0.7014265579	-0.809896939	-0.221011
C	-3.0366565424	-2.1060586181	-1.0804711971	-0.318746
C	-1.5644356205	-2.0073341936	-0.6745255956	 0.350149
O	-0.6761815895	-2.7684555673	-0.9796628907	-0.344388
H	 0.3562425817	 1.8719807415	 0.3344097685	 0.29415
H	 0.4724320055	-0.2921964997	-0.9129125192	 0.109805
H	 0.3712983541	-1.5843586972	 1.231556952	 0.134448
H	-0.4286680676	-0.1435762505	 2.0604300759	 0.116359
H	-3.2108701371	-0.5378534289	 1.3331696135	 0.100107
H	-2.7528667545	 0.917055793	 0.4374869067	 0.123292
H	-4.6791842154	-0.7043673682	-0.6129982851	 0.101878
H	-3.4326666981	-0.0599305498	-1.6811545963	 0.114396
H	-3.5048089091	-2.8525574425	-0.4239038082	 0.12824
H	-3.1431868066	-2.4673710189	-2.1056391464	 0.125604
80.2299	151.7568	164.7758	207.6591	228.3177	273.2862	388.8906	455.5197	501.1616	532.0443	569.8614	647.1297	691.8838	789.5784	835.9446	847.2175	893.1362	915.7106	933.4702	1002.1066	1011.9416	1029.6653	1066.146	1077.9382	1131.7014	1160.0639	1183.0194	1191.1367	1240.1671	1261.6335	1292.0274	1297.4361	1313.4155	1337.7144	1362.5022	1406.2576	1453.3426	1462.6989	1492.2596	1505.4333	1821.2873	3025.7498	3029.6468	3049.8086	3101.4004	3110.9042	3114.8396	3115.6443	3123.6068	3221.0836	3809.8324
OC1CC11CCCC1=O	O[C@H]1C[C@]21CCCC2=O	
InChI=1S/C7H10O2/c8-5-2-1-3-7(5)4-6(7)9/h6,9H,1-4H2	InChI=1S/C7H10O2/c8-5-2-1-3-7(5)4-6(7)9/h6,9H,1-4H2/t6-,7+/m0/s1
