16
gdb 42959	2.69463	1.8974	1.3669	2.5414	67.48	-0.2378	-0.0326	0.2053	929.1341	0.126406	-437.853776	-437.847026	-437.846082	-437.885029	26.57	
O	-0.0744226939	 0.0099646125	 0.1572649355	-0.321266
C	-0.0715548043	 1.2079083378	 0.0336282	 0.438348
C	-1.2874127687	 2.0767820276	-0.1868563109	-0.169817
N	-1.3362014136	 3.1593807987	 0.83297015	-0.318903
C	-0.8281554699	 3.4636103792	-0.5067652729	-0.066203
C	 0.7033351625	 3.4944587774	-0.5384705325	 0.124307
O	 1.3122583825	 4.1590642155	 0.5841660255	-0.284191
C	 1.6602569919	 2.8976884914	 1.1974610503	-0.07865
C	 1.1637839293	 2.106666283	-0.0454874111	-0.20919
H	-2.2049841208	 1.6344986718	-0.5572081059	 0.110135
H	-2.2976362047	 3.480634079	 0.9178578372	 0.246706
H	-1.4047457835	 4.1098773248	-1.1599488993	 0.09852
H	 1.0818256721	 3.8670576486	-1.4957659977	 0.084002
H	 2.736688361	 2.822589301	 1.3834621574	 0.109394
H	 1.1039002509	 2.7224602931	 2.1224234171	 0.126993
H	 1.9558333292	 1.6060826486	-0.6018678528	 0.109814
108.9304	200.9088	239.3357	293.3349	433.9939	517.8894	561.5587	625.4427	707.7672	787.2511	804.5905	858.0531	873.43	887.7394	913.7729	933.9514	965.3232	1008.5209	1037.2264	1047.3295	1063.135	1119.2522	1144.6926	1161.0706	1190.129	1217.5914	1239.0646	1264.6215	1290.3196	1342.0865	1347.957	1366.6654	1401.3403	1511.7573	1842.2051	3039.8056	3057.2767	3096.553	3121.7246	3169.2516	3189.4769	3503.3983
O=C1C2NC2C2OCC12	O=C1[C@H]2N[C@H]2[C@H]2OC[C@@H]12	
InChI=1S/C6H7NO2/c8-5-2-1-9-6(2)4-3(5)7-4/h2-4,6-7H,1H2	InChI=1S/C6H7NO2/c8-5-2-1-9-6(2)4-3(5)7-4/h2-4,6-7H,1H2/t2-,3-,4+,6-/m0/s1
