25
gdb 102805	2.07623	1.03755	0.85659	2.7814	89.46	-0.247	-0.0188	0.2282	1526.3406	0.225913	-389.512022	-389.50053	-389.499586	-389.549378	41.393	
C	-0.4916216051	 1.7104148103	-0.0527421356	-0.394133
C	-0.5118190116	 0.1841199558	 0.0831673607	-0.180811
C	 0.4447077838	-0.3862330902	 1.1552872235	 0.010183
C	 0.0417086623	-1.8506133852	 1.461861506	-0.284013
C	 0.7279142305	-2.4646106824	 2.6571761164	 0.161298
O	 1.3658108488	-3.4877834467	 2.641956643	-0.252951
C	 1.9429170753	-0.2095547343	 0.7688474458	 0.048152
C	 2.8751645269	-0.1873246093	 1.9911359738	-0.417171
C	 2.437303271	-1.2352942422	-0.2642422342	-0.404538
H	 0.4797357163	 2.0883271115	-0.3852445383	 0.123316
H	-1.2356728499	 2.0418613671	-0.7838267749	 0.115604
H	-0.726664293	 2.1941905951	 0.9020803801	 0.114845
H	-1.5342220604	-0.1268492019	 0.3315510029	 0.091895
H	-0.2893983912	-0.2764534703	-0.8879636888	 0.101689
H	 0.2776225514	 0.1965531727	 2.073789996	 0.068846
H	-1.0332706686	-1.8559962885	 1.6953984418	 0.112932
H	 0.1944811089	-2.5029285934	 0.5978918825	 0.121371
H	 0.5874743614	-1.896051153	 3.6071902865	 0.072189
H	 2.0208627745	 0.7817276249	 0.3058445347	 0.0754
H	 3.895467982	 0.071236101	 1.6883077458	 0.112389
H	 2.5499811707	 0.5535994935	 2.7294287053	 0.107372
H	 2.9281119576	-1.160894803	 2.488038607	 0.136362
H	 1.7859820322	-1.2848437752	-1.1429748329	 0.111124
H	 3.4390777408	-0.9664012489	-0.6144776233	 0.111872
H	 2.4999579355	-2.2394612375	 0.1670985963	 0.136778
41.5619	55.9093	93.042	115.6226	196.7832	216.2591	232.5571	250.9251	263.4667	293.8985	316.9593	367.3803	394.2542	478.5691	493.5021	580.2371	714.6559	777.9111	845.2049	891.2474	929.7208	946.9353	967.3717	991.0173	1019.8762	1038.3715	1058.1555	1061.7361	1130.0055	1159.3445	1176.6572	1204.9373	1221.8667	1274.2257	1289.3881	1334.5651	1347.2833	1370.8372	1382.4825	1392.0673	1404.8281	1414.8206	1427.4539	1428.7741	1463.2775	1487.383	1487.8487	1500.8088	1503.3985	1506.3712	1511.2497	1516.2766	1824.3065	2849.0836	2986.9361	3008.2701	3021.9958	3025.5896	3031.2974	3034.7151	3036.1402	3053.017	3094.5013	3099.3277	3099.4902	3103.1626	3107.1941	3108.0297	3112.0342
CCC(CC=O)C(C)C	CC[C@@H](CC=O)C(C)C	
InChI=1S/C8H16O/c1-4-8(5-6-9)7(2)3/h6-8H,4-5H2,1-3H3	InChI=1S/C8H16O/c1-4-8(5-6-9)7(2)3/h6-8H,4-5H2,1-3H3/t8-/m0/s1
