16
gdb 17217	5.34244	1.67427	1.52151	0.9814	76.21	-0.2306	0.0423	0.2729	857.8412	0.131068	-309.385702	-309.379183	-309.378239	-309.415988	26.59	
C	 0.0443536162	-1.1347589192	-0.0644558153	-0.387487
C	 0.0167750264	 0.0682097464	-0.0161943905	 0.114284
C	-0.0379809247	 1.4857150543	 0.0562968033	 0.254195
C	-1.1355774831	 2.3556354694	 0.6829412606	-0.290937
C	-0.4862881428	 3.5444020094	-0.0712240475	-0.085288
C	 0.9003263442	 3.7090488054	 0.6126173346	-0.231782
C	 1.2461576242	 2.3581350684	-0.0059212114	-0.105172
C	 0.183971713	 2.5037818205	-1.0589561299	-0.120078
H	 0.0716183746	-2.1948948672	-0.1084074489	 0.177953
H	-2.1133226844	 2.0916166907	 0.2725460129	 0.108142
H	-1.1942381918	 2.4179605576	 1.7754455438	 0.094674
H	-1.0768424939	 4.410975281	-0.3578198399	 0.077049
H	 1.4867378709	 4.5087213392	 0.151349704	 0.103678
H	 0.9167655611	 3.8185383824	 1.7028033081	 0.093502
H	 2.2100704571	 1.8751928222	-0.0966081423	 0.096609
H	 0.1923297629	 2.3733433494	-2.1310139616	 0.10066
154.7579	156.9873	385.3219	423.7512	493.0867	517.0798	547.3231	566.4819	648.3429	703.5736	744.5615	804.5291	845.5968	872.0947	920.8583	931.5026	958.5478	987.5002	1004.6258	1012.76	1072.753	1103.3135	1132.6141	1142.8852	1172.4858	1197.944	1224.8369	1260.6231	1276.8843	1295.2681	1382.0442	1490.4725	1506.9349	2231.0135	3033.8656	3040.0845	3096.4111	3106.1689	3146.5147	3205.4819	3229.4991	3504.845
C#CC12CC3CC1C23	C#C[C@@]12C[C@H]3C[C@@H]1[C@@H]23	
InChI=1S/C8H8/c1-2-8-4-5-3-6(8)7(5)8/h1,5-7H,3-4H2	InChI=1S/C8H8/c1-2-8-4-5-3-6(8)7(5)8/h1,5-7H,3-4H2/t5-,6-,7+,8-/m1/s1
