14
gdb 47363	2.68786	1.40746	1.19324	3.4003	61.43	-0.2867	-0.0251	0.2616	1033.9061	0.101789	-473.859529	-473.851875	-473.85093	-473.892479	27.425	
O	 0.0834417329	 0.0190425778	 0.5733749399	-0.305831
C	 0.0229177798	 1.1161763489	 0.0995407265	 0.419129
C	-1.3010965435	 1.8419755285	-0.1186795741	-0.356845
C	-1.2062928365	 3.0544351091	-1.0600542787	-0.054315
O	-0.0121470264	 3.7682586464	-0.7825584963	-0.219468
C	 1.1233374186	 2.9821940109	-0.9825492448	 0.00757
O	 1.1593256619	 1.8069433938	-0.1668573598	-0.222571
C	-1.2862317531	 2.6617812154	-2.4841841997	 0.269976
N	-1.3458147284	 2.3525595757	-3.5956366976	-0.307886
H	-2.0419993513	 1.1137785368	-0.4521871408	 0.165919
H	-1.6124504358	 2.2012606469	 0.8677800803	 0.163387
H	-2.0246662899	 3.7527754924	-0.8657356196	 0.153908
H	 1.208380206	 2.6693305231	-2.0320342602	 0.138243
H	 1.9832762857	 3.5839818943	-0.6894274451	 0.148785
61.9268	103.9102	178.635	219.4757	350.8539	406.8945	433.1859	489.4193	565.0729	603.1634	637.3685	766.962	793.4746	864.042	938.3527	1016.2402	1023.1699	1049.3059	1106.8102	1161.1352	1226.7485	1248.0191	1292.9898	1306.2657	1357.5419	1373.6728	1449.4242	1460.4779	1523.1374	1863.1352	2357.8153	3022.1196	3066.3	3086.5182	3134.673	3142.1843
O=C1CC(OCO1)C#N	O=C1C[C@@H](OCO1)C#N	
InChI=1S/C5H5NO3/c6-2-4-1-5(7)9-3-8-4/h4H,1,3H2	InChI=1S/C5H5NO3/c6-2-4-1-5(7)9-3-8-4/h4H,1,3H2/t4-/m1/s1
