19
gdb 12243	3.29852	1.51854	1.1603	2.7565	73.08	-0.2574	0.0311	0.2886	1087.9627	0.164998	-365.076978	-365.068304	-365.06736	-365.110303	31.625	
C	-0.1430730924	 1.5560810985	-0.2436827008	-0.385768
C	-0.0232220082	 0.0344174251	-0.1094826788	-0.190095
C	-1.3446223406	-0.6166398125	 0.2486783807	 0.133639
O	-2.3357732287	-0.4687283776	-0.8329826128	-0.272943
C	-2.4606064177	-1.8347052398	-0.9648440671	 0.436914
N	-3.1357737008	-2.5200174341	-1.7696789639	-0.548357
C	-1.5063109479	-2.1624729891	 0.1670289557	-0.156387
C	-0.3207693181	-3.0650711777	-0.1521260681	-0.408581
H	 0.8155737104	 2.0022577896	-0.5229628611	 0.116453
H	-0.8774671686	 1.816642546	-1.010982349	 0.138727
H	-0.4644367971	 2.0135925655	 0.6983925213	 0.116244
H	 0.3494412349	-0.3927419294	-1.0468335527	 0.108291
H	 0.7067332967	-0.2223995019	 0.6690285134	 0.104067
H	-1.7542755081	-0.1781618023	 1.1654259294	 0.087087
H	-3.6649595766	-1.9262628368	-2.4108064505	 0.224953
H	-2.0479770247	-2.5535896423	 1.0337042465	 0.107289
H	 0.23781035	-2.7159310934	-1.0242837318	 0.1269
H	 0.3679958226	-3.1278893933	 0.6961578636	 0.118787
H	-0.6805385551	-4.0736289146	-0.3734050939	 0.14278
78.2383	103.5942	166.392	204.2443	221.4273	229.8553	301.4677	398.67	454.2977	519.5484	642.8492	728.3174	777.6787	803.5625	856.9713	868.2471	902.3317	966.1847	1016.4264	1036.9811	1058.7524	1076.6435	1099.8309	1157.76	1179.1818	1234.524	1243.3555	1288.6932	1313.9981	1349.2915	1368.8277	1408.1212	1411.8324	1415.817	1473.3082	1495.5406	1498.2939	1501.8524	1508.2799	1821.1863	3029.7686	3038.3505	3042.9781	3045.9788	3066.5542	3075.92	3107.6657	3115.1961	3121.1896	3126.4039	3473.17
CCC1OC(=N)C1C	CC[C@H]1O[C]([NH])[C@H]1C	
InChI=1S/C6H11NO/c1-3-5-4(2)6(7)8-5/h4-5,7H,3H2,1-2H3	InChI=1S/C6H11NO/c1-3-5-4(2)6(7)8-5/h4-5,7H,3H2,1-2H3/t4-,5+/m0/s1
