21
gdb 83632	2.29656	1.62468	1.38941	2.4245	77.23	-0.2432	0.0581	0.3013	1066.9481	0.182148	-424.195139	-424.186386	-424.185442	-424.228137	34.388	
C	 0.163807349	 1.5270618268	 0.0187100612	-0.440903
C	 0.0406518173	 0.0081777447	 0.0081111493	 0.271152
C	-1.4081963646	-0.4224068179	-0.2289569314	-0.445982
C	 1.0280825111	-0.7554929919	-0.9740499703	 0.092316
O	 1.9906038115	-0.0148955542	-1.6680816153	-0.432942
C	 1.588535048	-1.5503785907	 0.2336729532	 0.066238
O	 2.7589410214	-0.8763194713	 0.7606384648	-0.308241
C	 1.9664709298	-0.241201294	 1.8033026246	-0.103837
C	 0.6573063927	-0.7839115952	 1.2131591204	-0.115071
H	 1.2044563829	 1.8587958918	 0.042695206	 0.115028
H	-0.2807657877	 1.9508900723	-0.8876124498	 0.121452
H	-0.3565911351	 1.9582483625	 0.8818439143	 0.107103
H	-1.7684781988	-0.0535274449	-1.1957847983	 0.118648
H	-1.5089188214	-1.5140502684	-0.2311675134	 0.11093
H	-2.0706374345	-0.0309753855	 0.5516380591	 0.112626
H	 0.48455736	-1.3692111331	-1.7004070309	 0.073958
H	 2.7238940461	 0.0988876815	-1.0438458687	 0.289725
H	 1.7265953882	-2.6320652199	 0.168847246	 0.076252
H	 2.2202056383	-0.6612085827	 2.7840240645	 0.10812
H	 2.1092063072	 0.8436996537	 1.8311457872	 0.109908
H	-0.0419124616	-1.2611640435	 1.8991482376	 0.073521
71.3359	176.4082	229.0931	249.7924	263.1089	283.9312	309.7127	340.3124	443.9463	483.8602	555.1363	561.515	674.8032	723.0045	796.6759	833.9389	880.3641	919.4428	953.3002	959.0982	988.9566	1006.2027	1009.3621	1026.2935	1071.2727	1131.4873	1146.2855	1173.4631	1196.0082	1205.6792	1236.5275	1256.4916	1257.99	1288.0697	1300.6812	1343.4342	1358.4797	1401.0013	1421.916	1446.2003	1479.1823	1485.191	1500.7451	1503.1398	1526.6114	3018.0384	3025.3161	3031.7613	3046.1437	3078.2053	3081.7791	3085.2232	3090.6591	3096.8362	3113.5114	3117.0864	3699.5713
CC1(C)C(O)C2OCC12	CC1(C)[C@@H](O)[C@H]2OC[C@@H]12	
InChI=1S/C7H12O2/c1-7(2)4-3-9-5(4)6(7)8/h4-6,8H,3H2,1-2H3	InChI=1S/C7H12O2/c1-7(2)4-3-9-5(4)6(7)8/h4-6,8H,3H2,1-2H3/t4-,5+,6+/m1/s1
