20
gdb 71893	2.34569	1.83922	1.62546	2.0998	78.17	-0.2028	0.0727	0.2755	969.9189	0.170829	-403.094389	-403.086146	-403.085202	-403.126567	32.691	
C	 0.0176322666	 1.5303321362	 0.1124179404	-0.517024
C	-0.0113255494	 0.0408314956	-0.0227118554	 0.335256
C	 0.5997207092	-0.8544975641	-1.1583612018	-0.098185
C	 1.4278963188	-1.5251400836	-0.0491870834	-0.173123
N	 0.6417959965	-0.8536339613	 1.0408731103	-0.18126
C	-0.6753792292	-1.5549561672	 1.2334447868	-0.237403
C	-1.2762503758	-0.8796923095	-0.0163085477	 0.351328
O	-2.5661787587	-0.3437634529	 0.0373150755	-0.484619
C	-0.7905008216	-1.5237793908	-1.3405738091	-0.304196
H	 1.0476077092	 1.9027700515	 0.1217712575	 0.121374
H	-0.5140177665	 2.0046123151	-0.7193943753	 0.123793
H	-0.4650807269	 1.8431608057	 1.0440298912	 0.131535
H	 1.1063494536	-0.4817277035	-2.0499705914	 0.067475
H	 1.4333133996	-2.6206281428	-0.0052278631	 0.092983
H	 2.4637759982	-1.1720096792	-0.0199006165	 0.105203
H	-0.6168773543	-2.6493573179	 1.2644991379	 0.088876
H	-1.1543829495	-1.1941016501	 2.14946959	 0.107846
H	-3.2005922629	-1.0525961029	-0.1176497648	 0.277587
H	-1.3288258146	-1.0663306889	-2.1763100095	 0.106177
H	-0.8284112024	-2.6144587894	-1.4362892918	 0.086376
138.7555	181.4527	191.4726	212.2096	246.3079	338.6819	411.2533	426.0865	445.7289	559.769	606.4993	654.624	746.9145	819.0257	834.8317	865.0248	888.4961	899.0886	937.1804	950.2254	978.8098	1028.5685	1064.284	1108.1438	1132.8129	1139.4898	1174.1795	1190.0479	1193.2324	1222.093	1238.1661	1248.4531	1278.8502	1295.0437	1314.7933	1332.141	1384.5178	1412.2111	1477.3212	1479.6733	1484.0719	1489.4084	1506.4097	3022.5284	3028.1996	3030.5434	3036.0603	3074.9513	3081.7484	3088.8172	3098.1337	3100.1467	3103.1122	3794.7984
CC12C3CN1CC2(O)C3	C[C@@]12[C@H]3CN1C[C@]2(O)C3	
InChI=1S/C7H11NO/c1-6-5-2-7(6,9)4-8(6)3-5/h5,9H,2-4H2,1H3	InChI=1S/C7H11NO/c1-6-5-2-7(6,9)4-8(6)3-5/h5,9H,2-4H2,1H3/t5-,6+,7-/m1/s1
