16
gdb 50198	2.74041	1.45698	1.28022	3.7742	69.15	-0.2467	-0.0444	0.2023	1020.9056	0.123963	-437.8768	-437.869094	-437.86815	-437.909719	28.346	
O	-0.6351636973	 0.7199800085	 0.5720667705	-0.236716
C	 0.0817021507	 1.1156965336	-0.3114295395	 0.147209
C	 1.3011493215	 1.9840304746	-0.134387706	-0.121565
C	 1.30178356	 3.3440256512	-0.9211989467	-0.217861
N	 1.4374785261	 4.0813414512	 0.3714826076	-0.129635
C	 1.5143494186	 2.8049922393	 1.1732863981	-0.001088
C	 0.3167882159	 3.2683688146	 2.0343179618	-0.384193
C	 0.2031631253	 4.4192900055	 1.0128111197	 0.375294
O	-0.6168689573	 5.2354527501	 0.7163953873	-0.306381
H	-0.1176816727	 0.8457315436	-1.3745605143	 0.08864
H	 2.1662831956	 1.3627975199	-0.3938248112	 0.11694
H	 2.16141296	 3.4877437023	-1.5783676775	 0.128767
H	 0.3869396209	 3.5980569494	-1.4652614303	 0.136959
H	 2.4526189083	 2.6125226255	 1.6950350315	 0.094285
H	-0.5539037737	 2.6156756732	 2.0717250183	 0.171295
H	 0.5889407181	 3.5763264474	 3.0470178808	 0.13805
62.8474	93.838	198.0621	211.7363	316.3967	345.6172	469.1997	530.6475	642.2411	681.2799	715.089	782.9237	824.0274	884.0616	899.5721	959.9413	987.1311	1007.7945	1014.6211	1074.6308	1098.2679	1118.7945	1142.1762	1187.0352	1205.0116	1222.7831	1239.3318	1296.1188	1318.479	1350.6255	1423.7497	1445.9346	1507.9568	1822.7278	1895.3169	2864.9089	3048.0022	3059.004	3082.7456	3102.1733	3116.1701	3164.6883
O=CC1CN2C1CC2=O	O=C[C@H]1CN2[C@H]1CC2=O	
InChI=1S/C6H7NO2/c8-3-4-2-7-5(4)1-6(7)9/h3-5H,1-2H2	InChI=1S/C6H7NO2/c8-3-4-2-7-5(4)1-6(7)9/h3-5H,1-2H2/t4-,5+/m1/s1
