18
gdb 41140	3.25541	1.72833	1.34199	2.413	76.73	-0.2185	0.0024	0.2209	969.7864	0.150108	-401.906827	-401.899964	-401.89902	-401.937978	28.001	
C	 0.0078928988	 1.5063994436	 0.0432121223	-0.085683
O	 1.4632418085	 1.5066384598	 0.002157818	-0.347206
C	 1.5079145235	 0.0767101451	 0.0109827012	 0.45847
C	 2.4955743206	-0.6639036052	-0.8103367106	-0.185936
C	 2.8894672645	-1.77762776	-0.1866344792	-0.062981
C	 2.2503895072	-1.9636370472	 1.1771617227	-0.300184
C	 1.4537658989	-0.6526362516	 1.3918006515	-0.032967
N	-0.0409156212	-0.6753209823	 1.3329177135	-0.339017
C	-0.0442331716	-0.0369237892	-0.0016382316	-0.118382
H	-0.3850036258	 1.9488687093	 0.9644427395	 0.109771
H	-0.4047701073	 2.0219917524	-0.8317503097	 0.101049
H	 2.8026910231	-0.3424100551	-1.7982776581	 0.103478
H	 3.5771202287	-2.5080953245	-0.5998193383	 0.101138
H	 1.5844437706	-2.837563166	 1.1857914921	 0.106144
H	 2.997901678	-2.1457974799	 1.9589367271	 0.112103
H	 1.824873751	-0.0822845639	 2.2478035777	 0.086883
H	-0.4306597923	-1.6114922912	 1.3292725958	 0.21613
H	-0.6420281454	-0.5080295342	-0.7832341938	 0.077189
108.9626	193.109	275.0532	362.6877	443.4878	469.7441	481.6921	635.2942	719.5287	732.3266	758.1722	803.1081	837.2198	864.342	906.0659	936.6941	968.5996	984.1389	997.232	1028.187	1051.1302	1063.7188	1074.3739	1090.181	1125.0188	1162.4728	1166.8745	1180.8957	1224.6035	1255.7256	1312.3447	1314.0321	1322.553	1338.1836	1379.4165	1407.4918	1479.1982	1506.1154	1663.7393	3012.1033	3025.5999	3042.6034	3070.5415	3084.3591	3100.0171	3184.993	3214.2668	3531.5359
C1OC23C=CCC2NC13	C1O[C@@]23C=CC[C@@H]2N[C@@H]13	
InChI=1S/C7H9NO/c1-2-5-7(3-1)6(8-5)4-9-7/h1,3,5-6,8H,2,4H2	InChI=1S/C7H9NO/c1-2-5-7(3-1)6(8-5)4-9-7/h1,3,5-6,8H,2,4H2/t5-,6-,7-/m0/s1
