18
gdb 41016	3.12628	1.99006	1.48302	1.1915	75.46	-0.2358	0.0696	0.3054	902.9428	0.15014	-401.830699	-401.824415	-401.823471	-401.860993	26.762	
C	 0.0263207716	 1.4950984357	 0.3173265251	-0.161358
O	 1.4318952592	 1.5584822634	-0.1152266667	-0.365761
C	 1.1657611695	 0.3910426675	-0.9011093075	 0.502112
C	-0.021759672	-0.0111271555	-0.0817710779	-0.087011
C	-0.7063684189	-0.8934302213	-1.1367653869	-0.221718
N	 0.3882834307	-1.0239382091	-2.1779433583	-0.133869
C	 0.8016084866	 0.4088362696	-2.4285457215	-0.085371
C	 2.2159307392	-0.0745747274	-2.7949783672	-0.247718
C	 1.8105343122	-0.8649350011	-1.5392424365	-0.122043
H	-0.0693759247	 1.7334202508	 1.3784686906	 0.116306
H	-0.5981574067	 2.1644616689	-0.2861790766	 0.10817
H	 0.2830245195	-0.5971183337	 0.7904619764	 0.091356
H	-0.9912400336	-1.8767902917	-0.7569459979	 0.109997
H	-1.5733928569	-0.4497978344	-1.6350550292	 0.114165
H	 0.1480814783	 1.0937343592	-2.9724206297	 0.080389
H	 2.2946256727	-0.6452891019	-3.7214005875	 0.106652
H	 3.0300422402	 0.6404133927	-2.6695416123	 0.110838
H	 2.305616083	-1.7033016517	-1.0476211563	 0.084864
190.4888	294.7895	333.3581	353.8436	455.9027	536.87	639.478	663.8657	702.7817	768.6549	799.4473	865.8857	874.7673	910.1769	913.0905	926.4733	956.2981	988.5282	1024.9333	1041.4334	1073.6742	1109.9338	1118.1255	1126.8151	1140.8944	1147.1572	1164.9028	1176.1115	1218.1561	1228.7174	1241.4341	1266.8766	1295.1354	1311.575	1338.147	1384.6935	1490.4309	1497.1379	1507.9363	3032.3012	3058.4507	3062.563	3077.8512	3096.7147	3113.4012	3114.6209	3118.3804	3150.6066
C1OC23C1CN1C2CC31	C1O[C@@]23[C@@H]1CN1[C@@H]2C[C@@H]31	
InChI=1S/C7H9NO/c1-5-7-4(3-9-7)2-8(5)6(1)7/h4-6H,1-3H2	InChI=1S/C7H9NO/c1-5-7-4(3-9-7)2-8(5)6(1)7/h4-6H,1-3H2/t4-,5-,6+,7+/m1/s1
