17
gdb 39709	4.37223	1.52646	1.49933	1.8943	74.32	-0.2371	0.0833	0.3204	915.4844	0.137308	-384.582748	-384.576597	-384.575653	-384.613033	26.187	
C	-0.0439806007	 1.5381235749	 0.0107280952	-0.289783
O	 1.1474792279	 0.724098959	-0.005802733	-0.293637
C	-0.1159474593	 0.0819088272	 0.0033525228	 0.510417
C	-0.4785511105	-0.9737584547	 1.0524581535	-0.172598
C	-1.952775909	-1.3474095087	 0.7847715875	-0.074775
C	-1.6279346752	-2.5990637908	 0.0034972518	-0.112952
C	-1.9683034644	-1.3386071566	-0.7567236221	-0.074795
C	-0.4996826187	-0.9620567823	-1.0499111646	-0.172573
C	-0.1483316713	-2.1016436012	-0.0084569592	-0.040863
H	-0.2138376129	 2.0895450715	 0.9348676719	 0.112404
H	-0.2323473787	 2.0997721289	-0.9036132259	 0.112403
H	-0.0925860878	-0.9492510061	 2.0694714323	 0.074377
H	-2.8310143292	-1.1148701864	 1.3717372772	 0.089036
H	-2.0867661582	-3.577941494	 0.0025122932	 0.090155
H	-2.8581620712	-1.0994385327	-1.323167424	 0.089036
H	-0.1342605108	-0.9262030642	-2.0741518517	 0.074387
H	 0.7664328698	-2.6864487137	-0.0208987547	 0.079761
142.8954	269.4739	316.2053	469.1746	553.3458	591.8048	731.0052	758.5789	793.9587	796.1855	814.7385	856.078	858.6357	879.0989	881.3848	909.8286	929.8629	976.2606	992.5519	1001.04	1027.9857	1035.083	1056.7666	1079.2097	1115.5418	1147.7811	1148.3843	1171.3868	1175.5641	1180.1345	1207.7683	1229.368	1253.4782	1278.3639	1349.0696	1452.1301	1541.0577	3078.6268	3139.3445	3139.3492	3163.0231	3163.7298	3198.7647	3200.641	3216.7508
C1OC11C2C3C4C3C1C24	C1O[C@]21[C@H]1[C@@H]3[C@H]4[C@@H]3[C@@H]2[C@@H]14	
InChI=1S/C8H8O/c1-8(9-1)6-3-2-4(3)7(8)5(2)6/h2-7H,1H2	InChI=1S/C8H8O/c1-8(9-1)6-3-2-4(3)7(8)5(2)6/h2-7H,1H2/t2-,3+,4-,5+,6-,7+,8+
