16
gdb 12422	3.43108	1.95646	1.30049	4.1284	74.37	-0.2422	-0.0632	0.179	917.1622	0.132505	-346.635508	-346.62854	-346.627595	-346.666991	26.372	
O	 0.017494854	 0.5286229813	 1.2937742211	-0.340971
C	-0.0213702345	 1.3615452027	 0.3983724851	 0.342732
C	-1.3501945071	 1.7962981579	-0.0982341837	-0.136435
C	-1.6689316719	 2.8277535149	-0.8878540765	-0.058491
C	-0.7488526153	 3.7997074371	-1.5748855258	-0.257064
C	 0.5072008494	 3.1831291601	-2.2037387954	-0.25704
C	 1.4994483811	 2.6080609829	-1.2301095532	-0.058468
C	 1.2628452976	 1.8819866504	-0.1319995274	-0.136435
H	-2.1482653822	 1.2035515886	 0.3405208787	 0.106986
H	-2.7305030226	 3.0132430205	-1.0417585283	 0.105561
H	-1.3111661482	 4.316509534	-2.3599368241	 0.11046
H	-0.4496688705	 4.5798360646	-0.8597973475	 0.128078
H	 0.2080319791	 2.4016142606	-2.9173387068	 0.128078
H	 1.009589209	 3.9525846771	-2.7996635704	 0.110466
H	 2.5436749921	 2.7936236594	-1.4754255732	 0.105561
H	 2.1054351701	 1.5219553479	 0.4521056575	 0.106981
62.3198	180.7299	253.1795	358.6946	364.312	404.4634	485.2808	599.2899	688.5619	707.9307	736.523	819.139	851.1227	883.2072	906.9044	968.2573	1022.3695	1034.2671	1052.7664	1084.831	1187.4181	1208.411	1246.441	1288.3649	1310.3181	1360.6076	1398.978	1419.5205	1428.0841	1471.9636	1475.7377	1693.9828	1703.9457	1724.493	3004.1649	3013.7637	3062.9307	3067.1421	3140.1636	3140.6704	3174.8353	3176.7369
O=C1C=CCCC=C1	O=C1C=CCCC=C1	
InChI=1S/C7H8O/c8-7-5-3-1-2-4-6-7/h3-6H,1-2H2	InChI=1S/C7H8O/c8-7-5-3-1-2-4-6-7/h3-6H,1-2H2
