12
gdb 5180	7.81162	1.20657	1.07978	2.8525	57.89	-0.2377	-0.0179	0.2198	1000.5416	0.085025	-414.705457	-414.698786	-414.697842	-414.737051	23.44	
O	 0.3180632458	-0.1068385305	-0.1274717217	-0.245279
C	 0.4909892403	 1.0431418477	-0.3678417923	 0.158441
O	 0.4253137509	 2.0015707555	 0.6139106938	-0.220191
C	 0.7325327314	 3.2820688582	 0.2581541532	 0.355496
C	 1.8163987541	 3.870631437	-0.333772095	-0.183377
N	 1.605790487	 5.2292270614	-0.4308131201	-0.241078
C	 0.4271182802	 5.4488918992	 0.0986171743	 0.023857
N	-0.1580789312	 4.2917886851	 0.5322050889	-0.303782
H	 0.7190617945	 1.4850280711	-1.3529972077	 0.109346
H	 2.7263600907	 3.4035231842	-0.6759788233	 0.124849
H	-0.0539736139	 6.4094099159	 0.203951553	 0.141222
H	-1.0508169399	 4.1768228651	 0.983570027	 0.280494
66.394	141.2868	162.2524	373.1181	429.1105	488.9999	521.1819	674.4235	684.3876	806.5359	823.1399	835.9325	929.5483	1037.4717	1043.1609	1091.4665	1106.394	1141.7588	1265.3493	1281.648	1391.4034	1400.7167	1436.4218	1516.0384	1611.0442	1885.4076	3001.0908	3255.9094	3259.5297	3660.421
O=COC1=CN=CN1	O=COc1cnc[nH]1	
InChI=1S/C4H4N2O2/c7-3-8-4-1-5-2-6-4/h1-3H,(H,5,6)	InChI=1S/C4H4N2O2/c7-3-8-4-1-5-2-6-4/h1-3H,(H,5,6)
