23
gdb 118720	2.60717	1.09866	0.91379	1.3271	85.57	-0.241	0.0722	0.3131	1413.528	0.204999	-388.261757	-388.252124	-388.25118	-388.296235	37.013	
C	 0.0732826968	 1.5764844187	-0.0222473929	-0.382304
C	 0.2592871032	 0.0571742892	-0.0357813184	-0.173833
C	 0.5509990232	-0.5250662388	 1.3549287277	-0.24553
C	 0.7472070061	-2.0288839238	 1.3431335644	 0.420471
O	-0.4083807601	-2.7399915843	 0.947740783	-0.485488
C	 2.0236438243	-2.732798195	 0.9442861757	-0.121036
C	 3.2755566968	-2.0025862844	 1.4453402021	-0.245202
C	 2.7254416657	-2.0892630984	 2.9086121723	-0.244924
C	 1.4822893675	-2.8166237147	 2.3872268024	-0.099495
H	 0.9729897461	 2.0817885959	 0.3464145599	 0.113994
H	-0.1386016811	 1.9628953543	-1.0241471741	 0.110542
H	-0.7578995288	 1.8670920785	 0.6297355639	 0.116679
H	-0.6470731198	-0.4107728396	-0.4415497374	 0.089442
H	 1.0783218264	-0.2086020102	-0.7172616672	 0.097132
H	 1.4350416229	-0.0304560317	 1.7704826029	 0.097306
H	-0.2829731619	-0.293944733	 2.030397547	 0.100199
H	-0.5007355583	-2.6437525858	-0.0058250265	 0.282
H	 2.0022516286	-3.4943397438	 0.1726831224	 0.077871
H	 4.1843556739	-2.5946941066	 1.3168279938	 0.104593
H	 3.4594877712	-1.0033423788	 1.0370041817	 0.094544
H	 3.3466391536	-2.7293649264	 3.5386359014	 0.104751
H	 2.5581693657	-1.1467827547	 3.4397948174	 0.097265
H	 0.9775920181	-3.6436202967	 2.8716866185	 0.091025
74.5507	83.517	139.0599	232.0437	248.9047	256.3901	272.031	332.9919	334.802	410.469	483.1995	498.6674	688.2467	747.7768	750.2623	786.3379	851.1402	869.0117	885.6425	905.2523	930.2669	977.2247	981.5715	1006.6443	1022.0047	1049.8016	1071.7546	1096.1797	1113.8693	1122.7798	1185.5699	1218.3871	1240.1376	1249.3506	1264.2174	1275.4679	1283.0569	1317.5401	1323.4605	1333.5232	1388.6445	1412.2707	1443.7381	1472.3812	1488.1225	1493.7248	1499.8769	1506.1629	1510.0517	3012.5324	3025.5045	3030.0961	3043.2706	3044.2848	3052.2925	3079.4201	3093.7063	3097.0128	3101.0198	3112.7718	3168.4553	3189.2425	3806.4098
CCCC1(O)C2CCC12	CCC[C@@]1(O)[C@H]2CC[C@@H]12	
InChI=1S/C8H14O/c1-2-5-8(9)6-3-4-7(6)8/h6-7,9H,2-5H2,1H3	InChI=1S/C8H14O/c1-2-5-8(9)6-3-4-7(6)8/h6-7,9H,2-5H2,1H3/t6-,7+,8+
