18
gdb 40341	3.79862	1.3432	1.26516	1.6773	75.66	-0.2129	0.0779	0.2908	1052.3445	0.148205	-401.835302	-401.82809	-401.827146	-401.86735	28.558	
C	-0.2504393888	 1.2025093593	-0.3873133424	-0.235431
C	 1.1651008513	 1.1683253059	 0.0662632638	-0.228994
N	 0.3447563812	-0.050114141	 0.0822559792	-0.199204
C	-0.0754161269	-0.5158340799	 1.3462913624	 0.340008
C	-1.3823923361	-1.107470513	 1.845687402	-0.168157
C	-0.6958022317	-2.3974452589	 2.2894502847	-0.233752
C	 0.586797468	-1.5305203937	 2.3707003395	 0.016318
O	 0.3231329535	-0.6192274107	 3.4731945438	-0.29003
C	-0.6378325343	 0.0128465277	 2.6325605576	 0.013483
H	-0.9670322747	 1.7024366571	 0.2609679185	 0.116704
H	-0.4921017885	 1.2331434165	-1.4452619177	 0.122787
H	 1.9724621865	 1.1709116632	-0.6592967959	 0.12144
H	 1.3938226411	 1.6319292923	 1.0225152689	 0.127993
H	-2.3797935514	-0.9576419224	 1.4514003498	 0.091926
H	-1.0095391659	-2.8817994266	 3.2191459222	 0.100162
H	-0.6425648165	-3.1208543982	 1.4721964849	 0.109985
H	 1.5948786291	-1.93911013	 2.3723394567	 0.089158
H	-1.0873466357	 0.9458748424	 2.9465239019	 0.105604
63.4731	149.2677	183.2351	319.1086	423.2614	484.8631	528.7571	586.3376	742.2783	778.1483	802.2832	827.4709	842.0285	878.3079	911.8173	933.2154	938.522	956.985	967.6981	1022.6326	1029.4017	1049.8599	1077.788	1106.6909	1107.9583	1122.6274	1130.7604	1154.7902	1170.7609	1178.0993	1209.2438	1215.4044	1263.5413	1292.2864	1316.8934	1465.3973	1485.4435	1489.9815	1512.131	3051.873	3104.7017	3113.1509	3116.8101	3149.5963	3190.2595	3195.1785	3206.021	3208.2293
C1CN1C12C3CC1OC23	C1CN1[C@@]12[C@H]3C[C@@H]1O[C@@H]23	
InChI=1S/C7H9NO/c1-2-8(1)7-4-3-5(7)9-6(4)7/h4-6H,1-3H2	InChI=1S/C7H9NO/c1-2-8(1)7-4-3-5(7)9-6(4)7/h4-6H,1-3H2/t4-,5-,6+,7-/m0/s1
