17
gdb 35916	2.81272	1.58526	1.2517	4.1987	71.9	-0.2446	0.024	0.2686	1016.3227	0.138118	-417.981804	-417.974301	-417.973357	-418.01404	28.665	
N	-0.2611956084	-1.1631425177	-0.4214250569	-0.327607
C	-0.1374114513	-0.0332376952	-0.2134320712	 0.28935
C	-0.0012983831	 1.4047635033	 0.052641877	-0.123725
C	-0.7349980271	 1.7964410155	 1.3579658053	-0.098677
O	 0.0611098192	 1.5286854245	 2.4887762335	-0.232313
C	 1.1645549079	 2.416248848	 2.5338695297	-0.117639
C	 2.0208684179	 2.3067092392	 1.2875682036	-0.012014
C	 2.3825754116	 0.9715141936	 0.758908361	-0.244442
N	 1.422134736	 1.8137172049	 0.0303619213	-0.111084
H	-0.4954343174	 1.9262707011	-0.7773653828	 0.13598
H	-0.9835464076	 2.8682519311	 1.309886988	 0.103105
H	-1.6619812127	 1.2286824053	 1.4635340992	 0.137592
H	 0.804148194	 3.4519858501	 2.6480639464	 0.101225
H	 1.7433547547	 2.1588776008	 3.4259984026	 0.126943
H	 2.7049157841	 3.1403544685	 1.1387033554	 0.101967
H	 3.3269050649	 0.8128788511	 0.2465141773	 0.1253
H	 1.9964298373	 0.1063239059	 1.2916257107	 0.146041
69.0273	152.4092	215.1163	288.9062	373.1846	383.5773	451.5606	457.3037	566.8885	642.1746	711.8482	789.5967	818.1314	824.7184	917.2844	939.3246	968.7154	984.4838	1081.6002	1095.1661	1105.6953	1122.3685	1130.0667	1162.335	1173.2996	1262.3717	1272.8113	1306.4955	1330.7281	1354.8911	1383.6352	1401.7616	1428.7636	1487.5798	1500.2347	1504.7694	2357.9882	2971.7084	2984.4681	3024.8418	3083.2957	3109.6177	3112.2429	3122.9977	3200.9528
N#CC1COCC2CN12	N#C[C@H]1COC[C@H]2CN12	
InChI=1S/C6H8N2O/c7-1-5-3-9-4-6-2-8(5)6/h5-6H,2-4H2	InChI=1S/C6H8N2O/c7-1-5-3-9-4-6-2-8(5)6/h5-6H,2-4H2/t5-,6+,8?/m0/s1
