21
gdb 113972	3.60028	0.68787	0.61987	4.3603	84.73	-0.234	0.0248	0.2588	1827.7008	0.181914	-383.258208	-383.248057	-383.247112	-383.294585	36.243	
C	-0.0217511778	 1.4467409564	-0.5488956508	-0.374588
C	-0.0282804745	 0.1175989207	 0.2158564686	-0.205933
C	-1.4046878126	-0.5190834182	 0.2471842565	-0.005459
C	-1.8578861215	-1.4382480114	-0.8700872066	-0.314399
C	-1.6298980571	-1.9766626398	 0.5353573276	 0.019591
N	-0.5398066996	-2.8522615288	 0.8778782188	-0.306758
C	-0.6827440478	-4.1891044334	 0.3117611513	-0.254879
C	 0.4530198575	-5.0401703538	 0.6767193397	 0.252836
N	 1.3603807407	-5.7032887596	 0.9431572621	-0.299167
H	 0.9776155324	 1.8918120915	-0.5598916261	 0.115679
H	-0.3419308653	 1.3043177011	-1.5860402367	 0.121341
H	-0.703997037	 2.1684702742	-0.0870299228	 0.11838
H	 0.6935548099	-0.5622816373	-0.2546239292	 0.090849
H	 0.3251828973	 0.2819122803	 1.2418469332	 0.109673
H	-2.1692286067	 0.1403799115	 0.6519167131	 0.089976
H	-2.8706873148	-1.360775496	-1.2507393485	 0.11311
H	-1.1149934558	-1.6882530782	-1.622800765	 0.108858
H	-2.5291358127	-2.2137742134	 1.1004286423	 0.098262
H	 0.3552572575	-2.4566210168	 0.618397512	 0.23399
H	-1.597542445	-4.6448087039	 0.7111861581	 0.155414
H	-0.7846373672	-4.2033272549	-0.7879117875	 0.133222
48.6071	65.7045	78.7625	119.9429	180.549	218.1253	255.8307	289.7514	363.9085	392.3072	465.679	529.8028	588.2639	698.5581	745.7246	796.5412	844.3397	866.7144	937.8528	959.345	992.6385	993.9707	1022.5675	1038.1364	1060.1476	1106.5912	1126.9193	1150.0076	1183.5333	1201.4814	1242.4415	1281.0921	1300.1028	1339.4868	1348.0093	1402.5861	1407.6004	1421.4958	1474.7466	1485.9539	1492.1747	1496.9572	1507.1128	1512.6362	2368.0624	2950.1868	3015.6885	3034.8383	3046.3533	3048.6027	3103.0077	3109.8216	3119.1106	3120.143	3133.2939	3207.7877	3559.3215
CCC1CC1NCC#N	CC[C@H]1C[C@H]1NCC#N	
InChI=1S/C7H12N2/c1-2-6-5-7(6)9-4-3-8/h6-7,9H,2,4-5H2,1H3	InChI=1S/C7H12N2/c1-2-6-5-7(6)9-4-3-8/h6-7,9H,2,4-5H2,1H3/t6-,7+/m0/s1
