17
gdb 55731	2.4438	1.38593	1.13461	3.2856	70.32	-0.2571	-0.024	0.2331	1149.3284	0.132322	-458.99526	-458.985891	-458.984947	-459.030058	33.085	
C	-0.124921193	 1.4266174649	-0.1254512409	-0.484006
C	-0.0102077998	-0.0252692083	 0.2579107846	 0.429967
O	 0.8531964402	-0.5208646482	 0.9269910889	-0.346807
O	-1.0576603085	-0.7314434497	-0.2729199847	-0.286423
C	-0.9858458532	-2.1263799219	-0.1486809959	 0.361411
C	-1.318285109	-2.768592156	 1.1815099273	-0.303358
C	-2.3121155082	-2.8289569695	 0.0648016218	-0.321844
C	 0.0167387837	-2.7833116026	-1.0272985349	 0.127021
O	 0.7418851402	-2.200323628	-1.7895752589	-0.268939
H	 0.0938428293	 1.5297275621	-1.1927695912	 0.164877
H	-1.1415840655	 1.7917089428	 0.0386375173	 0.145563
H	 0.5905828052	 2.012170295	 0.4504681862	 0.149622
H	-0.7741758789	-3.6654262672	 1.4565885314	 0.135165
H	-1.4995072873	-2.0791486643	 1.9963772158	 0.145142
H	-3.1740646449	-2.1738177025	 0.1066181834	 0.143919
H	-2.4736603271	-3.769393649	-0.450485514	 0.131413
H	 0.0313298067	-3.8929193477	-0.9269619761	 0.077277
69.731	87.2549	100.3962	147.8561	163.4523	245.0127	308.1941	340.6033	402.326	445.9546	550.708	602.9748	640.8844	763.51	818.1221	856.1761	888.6146	915.9295	979.8314	1011.5776	1034.9367	1046.2757	1063.0072	1075.6655	1087.2174	1193.6276	1237.6379	1290.7333	1327.5035	1393.9274	1433.4013	1455.7051	1469.058	1474.8011	1488.2897	1827.208	1850.9079	2871.1662	3058.615	3125.8947	3143.4411	3148.0909	3170.4591	3230.8184	3244.9622
CC(=O)OC1(CC1)C=O	CC(=O)OC1(CC1)C=O	
InChI=1S/C6H8O3/c1-5(8)9-6(4-7)2-3-6/h4H,2-3H2,1H3	InChI=1S/C6H8O3/c1-5(8)9-6(4-7)2-3-6/h4H,2-3H2,1H3
