17
gdb 125507	5.63222	0.90791	0.80714	1.6962	81.82	-0.2334	0.0238	0.2572	1406.3195	0.13553	-380.859765	-380.850879	-380.849935	-380.894461	31.976	
C	 0.6880908642	 1.4516527044	 0.4129801643	-0.489267
C	 0.1783727888	 0.0736949141	 0.1280566763	 0.354961
N	 0.4447492933	-0.5189076334	-1.0361205742	-0.322956
N	-0.1699283293	-1.720238257	-0.9693436089	 0.037677
C	 0.0313605137	-2.6610283188	-2.0619220944	-0.27558
C	-1.0763194737	-3.5947224231	-2.2220594026	 0.286785
C	-1.9697692009	-4.3849245739	-2.3602539487	-0.431452
C	-0.8062153484	-1.9101568854	 0.2124264493	-0.006631
C	-0.6091887962	-0.7652202287	 0.9524584872	-0.313812
H	 1.3286802564	 1.4654339636	 1.301638151	 0.127196
H	 1.2694851189	 1.8169518652	-0.4361453266	 0.13776
H	-0.1335202823	 2.1531057105	 0.5953633283	 0.127884
H	 0.1658294221	-2.0596994844	-2.9659894576	 0.16605
H	 0.9651369083	-3.2188572215	-1.9075156521	 0.152804
H	-2.7659179396	-5.0758976058	-2.4906857291	 0.208369
H	-1.347207236	-2.8200172277	 0.4158732694	 0.140768
H	-0.9901652892	-0.5570954681	 1.9395782285	 0.099446
29.217	85.6444	110.1292	183.7725	257.4696	284.6555	325.3974	389.5808	468.6878	618.3968	624.9932	677.2036	683.0568	685.5797	764.7699	774.0095	840.6142	963.8125	982.5937	990.889	1015.8727	1044.818	1064.3968	1078.5961	1214.3892	1228.0651	1301.4646	1358.9624	1407.8449	1408.0416	1441.7493	1479.8639	1483.8615	1493.5954	1517.8889	1573.6706	2248.3141	3014.0655	3034.6056	3085.3741	3085.5192	3131.5317	3256.5514	3277.6059	3503.687
CC1=NN(CC#C)C=C1	Cc1nn(CC#C)cc1	
InChI=1S/C7H8N2/c1-3-5-9-6-4-7(2)8-9/h1,4,6H,5H2,2H3	InChI=1S/C7H8N2/c1-3-5-9-6-4-7(2)8-9/h1,4,6H,5H2,2H3
