19
gdb 106986	2.9453	1.26738	1.01645	1.9747	76.39	-0.2279	-0.0152	0.2127	1218.9429	0.157757	-423.018878	-423.009607	-423.008663	-423.053151	34.069	
C	 0.1505319624	 1.5282479307	-0.172247588	-0.37883
C	-0.0975348451	 0.0266457356	 0.0338898398	-0.300835
C	 0.5933508141	-0.4975398307	 1.2637492988	 0.234246
C	 2.0566047301	-0.9387989406	 1.2865377114	-0.316878
C	 1.0330378294	-1.9349038667	 1.7005318672	-0.135436
C	 0.620050738	-1.6650957699	 3.1442421018	-0.002512
O	 1.6470778745	-1.8038579249	 4.0981547868	-0.430488
C	 0.1857137918	-0.2395197999	 2.6795105246	 0.326657
O	-0.4175910172	 0.6437314319	 3.2283009909	-0.332582
H	 1.2164709287	 1.7357995455	-0.3111136476	 0.117138
H	-0.3842483414	 1.8947645655	-1.053504423	 0.112315
H	-0.1926775217	 2.0938316979	 0.6983469114	 0.146141
H	-1.1757979658	-0.1551009824	 0.1213912859	 0.109202
H	 0.2447247449	-0.5371730027	-0.842727864	 0.100285
H	 2.4779415817	-1.070009781	 0.2944897086	 0.123159
H	 2.7503828228	-0.5435777816	 2.0204344218	 0.136524
H	 0.8465942774	-2.8545402909	 1.1618290304	 0.105632
H	-0.2817100817	-2.2315168675	 3.4266979289	 0.090743
H	 1.3538546573	-1.3684145681	 4.9062479244	 0.295519
65.4866	89.6578	161.7952	179.4791	214.3253	250.8195	295.6455	318.4828	364.5754	470.7087	551.8206	629.6679	656.0527	765.3463	797.6261	829.833	850.9235	884.7275	963.1561	979.3196	992.7888	1008.2482	1054.0331	1084.6072	1106.7874	1112.4462	1140.0292	1184.6786	1238.504	1282.4702	1294.47	1329.1384	1349.1413	1387.0753	1408.0187	1411.1276	1482.5487	1496.2825	1497.2634	1511.3682	1864.8634	2982.5899	3022.8533	3039.6108	3057.5645	3108.3556	3122.7964	3129.0615	3204.8762	3215.6335	3808.4987
CCC12CC1C(O)C2=O	CC[C@]12C[C@H]1[C@@H](O)C2=O	
InChI=1S/C7H10O2/c1-2-7-3-4(7)5(8)6(7)9/h4-5,8H,2-3H2,1H3	InChI=1S/C7H10O2/c1-2-7-3-4(7)5(8)6(7)9/h4-5,8H,2-3H2,1H3/t4-,5+,7-/m0/s1
