15
gdb 124229	4.89182	1.01673	0.99872	1.0435	67.42	-0.2578	0.0087	0.2666	1217.4062	0.113886	-450.153695	-450.145623	-450.144679	-450.1875	28.576	
C	-0.2076964329	 1.4098479776	-0.0871562955	-0.465351
C	 0.172118923	-0.0373963873	 0.053257955	 0.384997
N	 0.9791349354	-0.5950524508	 0.8463842253	-0.494847
O	-0.5305418839	-0.7776897457	-0.8661574704	-0.268541
C	-0.2574485004	-2.1047625753	-0.9565859513	 0.480235
N	-1.0413668875	-3.0019615774	-0.3911446757	-0.278084
N	-0.4571197821	-4.1544851037	-0.8030759039	-0.177683
C	 0.6135035474	-3.8895205842	-1.5763256033	 0.028365
N	 0.7684031306	-2.5858015185	-1.7013580985	-0.308193
H	 0.3094062684	 2.0211041581	 0.653541435	 0.129365
H	 0.0446451378	 1.7668456534	-1.0902809602	 0.15425
H	-1.2883463066	 1.5275973129	 0.0370390269	 0.153167
H	 1.4125483244	 0.0911561601	 1.4596453952	 0.226101
H	-0.8446257929	-5.0390734707	-0.5196995409	 0.285564
H	 1.2312556693	-4.6557107486	-2.0198006077	 0.150655
54.5511	74.4328	124.4675	138.2555	343.7966	358.6876	462.1495	525.996	564.2116	569.3835	681.3662	719.0701	824.0224	852.2045	853.7771	930.3283	994.5015	1003.7699	1050.9075	1070.1242	1076.9759	1107.9824	1181.6633	1302.7834	1345.6477	1355.8051	1411.305	1470.7453	1475.8787	1481.7104	1498.0127	1566.1784	1754.5627	3050.7501	3115.0046	3148.3685	3260.0518	3521.677	3668.9534
CC(=N)OC1=NNC=N1	C[C]([NH])Oc1n[nH]cn1	
InChI=1S/C4H6N4O/c1-3(5)9-4-6-2-7-8-4/h2,5H,1H3,(H,6,7,8)	InChI=1S/C4H6N4O/c1-3(5)9-4-6-2-7-8-4/h2,5H,1H3,(H,6,7,8)
