14
gdb 81720	3.2892	1.31581	1.04003	4.9751	69.02	-0.2708	-0.0593	0.2115	1110.1458	0.099038	-436.667279	-436.659148	-436.658204	-436.700211	29.245	
C	 0.0021574585	 1.6331515356	-0.0866290671	-0.415353
C	 0.0338827075	 0.1133339541	-0.0111989777	-0.139662
C	 0.6944560067	-0.6724815351	-1.1587550626	-0.054446
O	 2.0642654014	-0.3011678091	-1.1789064395	-0.254474
C	 1.6746155068	-1.3501476217	-0.2605884814	 0.210573
C	 2.3161979298	-2.6211528982	-0.3358589226	 0.193029
N	 2.8172508672	-3.6631285513	-0.3419756462	-0.328742
C	 1.0602273406	-0.585847537	 0.935048533	 0.364493
O	 1.2291055663	-0.6119636393	 2.1107172033	-0.268332
H	 0.9719678379	 2.0221048959	-0.4056409127	 0.146016
H	-0.7616949426	 1.9758440067	-0.7910192083	 0.130925
H	-0.2310865864	 2.0525337281	 0.8960814366	 0.146222
H	-0.953029692	-0.2994498729	 0.234907329	 0.12441
H	 0.2608671683	-1.0719671658	-2.0674627339	 0.145341
93.9337	127.924	174.6201	204.0678	238.3282	258.9321	393.294	472.0068	549.1154	584.1128	611.0491	675.8798	747.134	815.6512	850.9522	889.6325	925.2933	1005.0385	1049.2753	1076.0311	1141.1216	1148.5082	1223.2612	1251.8557	1339.2774	1395.2728	1412.4567	1493.2041	1501.0607	1918.4662	2358.6319	3042.4492	3047.5435	3116.592	3133.2452	3207.3063
CC1C2OC2(C#N)C1=O	C[C@H]1[C@H]2O[C@@]2(C#N)C1=O	
InChI=1S/C6H5NO2/c1-3-4(8)6(2-7)5(3)9-6/h3,5H,1H3	InChI=1S/C6H5NO2/c1-3-4(8)6(2-7)5(3)9-6/h3,5H,1H3/t3-,5-,6+/m1/s1
