18
gdb 55189	2.94759	1.45452	1.31194	6.202	71.08	-0.2423	0.0219	0.2642	1024.2973	0.150214	-439.081013	-439.073725	-439.072781	-439.112812	28.887	
O	 0.520064643	 0.4486405491	-0.3092937511	-0.338442
C	-0.155586569	 1.049557489	 0.4857667293	 0.397197
O	 0.151673863	 1.0599679863	 1.7949643263	-0.386517
C	-1.4157358949	 1.8101739457	 0.0769157764	-0.150651
C	-2.6806716385	 1.6042110651	 0.9846020704	-0.24943
C	-2.5410641776	 3.0536679186	 1.4723385588	 0.018624
N	-1.4299517449	 3.2068973123	 2.4689098744	-0.351624
H	-1.6559461485	 3.7073169623	 3.3203174149	 0.234468
H	-0.4489759525	 1.678038122	 2.2835329414	 0.313448
C	-0.5912172284	 3.9345977046	 1.4698105234	-0.192024
C	-1.4918094173	 3.3650647752	 0.3619487515	-0.041566
H	-1.5814181088	 1.572827837	-0.9725035413	 0.108236
H	-3.5802139163	 1.4579120639	 0.3811063303	 0.113537
H	-2.6306272877	 0.8228456608	 1.7464417524	 0.119651
H	-3.4280720459	 3.6601680201	 1.6697068228	 0.075054
H	-0.6883018305	 5.025430972	 1.5330679994	 0.108128
H	 0.4682231033	 3.6634437268	 1.4895016945	 0.132985
H	-1.6905949286	 3.9784863393	-0.5138555838	 0.088926
96.1524	187.4837	217.622	285.8571	371.534	396.1621	442.9751	624.546	648.7595	739.1886	759.1457	777.6492	783.4992	838.5735	899.7584	942.7495	958.4344	982.8891	994.6166	999.0236	1038.2007	1053.032	1069.4819	1106.938	1163.1517	1165.968	1207.3639	1230.395	1255.117	1281.002	1294.6896	1303.6678	1327.8271	1354.6049	1369.0063	1467.711	1474.4653	1516.2598	1847.1268	3025.0522	3062.7068	3080.3262	3091.1271	3118.0553	3127.8451	3141.3766	3270.371	3546.6787
[O-]C(=O)C1CC2[NH2+]CC12	O=C(O)[C@H]1C[C@H]2NC[C@@H]12	
InChI=1S/C6H9NO2/c8-6(9)3-1-5-4(3)2-7-5/h3-5,7H,1-2H2,(H,8,9)	InChI=1S/C6H9NO2/c8-6(9)3-1-5-4(3)2-7-5/h3-5,7H,1-2H2,(H,8,9)/t3-,4-,5+/m0/s1
