21
gdb 82804	2.89053	1.5774	1.55593	1.2908	81.11	-0.2302	0.0802	0.3104	1003.3552	0.185387	-387.053265	-387.045913	-387.044969	-387.084605	30.758	
C	-0.0905458939	 1.5400391421	-0.0865622764	-0.423454
C	 0.0133644741	 0.0292602342	 0.0053653591	-0.04898
C	 1.2963238421	-0.7331200461	-0.2636768149	 0.069971
O	 2.5236304062	-0.0444820397	-0.3085665227	-0.277719
C	 3.1845549831	 0.0986617801	 0.9529130255	 0.136186
C	 2.3290260293	 0.9332380279	 1.9393558666	-0.248905
C	 1.5804278465	-0.3998520701	 2.2268335217	-0.049284
C	 2.9395132659	-1.108047186	 1.9032494628	-0.23732
C	 0.65180843	-0.8281505845	 1.0945534912	-0.075016
H	 0.8845142398	 1.9997581825	-0.259915476	 0.137864
H	-0.7266741899	 1.8065978786	-0.9365823526	 0.112513
H	-0.5353433233	 1.9896392908	 0.8069955557	 0.116817
H	-0.8548655667	-0.4752055207	-0.4130674507	 0.084014
H	 1.2812118557	-1.5668924215	-0.9605211035	 0.087309
H	 4.2035199824	 0.4088670629	 0.7168674414	 0.073563
H	 2.9218909764	 1.2273202844	 2.8103184477	 0.096834
H	 1.7900487001	 1.7990003397	 1.5637806381	 0.102628
H	 1.1251745665	-0.5321448604	 3.2102378792	 0.062345
H	 2.9084566083	-2.1105171157	 1.4702791472	 0.097659
H	 3.6385219399	-1.0823244736	 2.7428295469	 0.097855
H	 0.1180394674	-1.749287615	 1.3161089737	 0.085121
149.6199	172.1158	250.1185	285.7639	411.8219	439.2202	480.0608	515.9727	618.8423	647.4101	728.6965	753.8884	803.6172	825.8458	869.8103	880.8108	913.8344	925.2482	972.8971	986.2853	1007.7428	1035.4935	1064.3523	1071.8982	1109.0775	1114.5554	1125.1136	1141.6491	1148.6811	1159.6949	1197.6307	1238.406	1253.2545	1264.2751	1278.2288	1332.4023	1353.8979	1371.9914	1383.8833	1416.102	1431.7613	1471.1041	1498.9233	1501.3595	1522.6536	3038.1698	3061.1747	3067.9644	3084.0264	3093.0281	3101.4413	3115.7457	3122.9998	3124.7071	3127.9602	3141.476	3170.9972
CC1C2OC3CC(C3)C12	C[C@H]1[C@H]2O[C@H]3C[C@H](C3)[C@@H]12	
InChI=1S/C8H12O/c1-4-7-5-2-6(3-5)9-8(4)7/h4-8H,2-3H2,1H3	InChI=1S/C8H12O/c1-4-7-5-2-6(3-5)9-8(4)7/h4-8H,2-3H2,1H3/t4-,5-,6+,7-,8-/m1/s1
