16
gdb 17467	4.43836	1.98248	1.67918	3.3067	63.01	-0.2593	0.0595	0.3188	799.8612	0.130398	-383.709925	-383.703305	-383.702361	-383.74031	26.202	
C	-0.0038710015	 1.5279798959	 0.005673297	-0.477775
C	-0.0474381615	 0.0283174185	 0.1247383521	 0.399828
C	-1.3219151727	-0.7369706222	-0.2602592861	-0.315248
C	-1.2926486657	-2.0276993697	 0.5532103542	 0.037075
O	-0.2056642897	-2.9082328962	 0.2669406748	-0.231437
C	-0.0849322178	-2.0468311067	 1.3989784622	 0.012501
C	 0.6948814046	-0.7733975106	 1.1214608273	-0.058269
O	 1.1584535271	-0.6637206276	-0.2259034384	-0.270327
H	 0.9605129647	 1.9081510601	 0.3515530689	 0.131849
H	-0.135228141	 1.8370838861	-1.0373352572	 0.130691
H	-0.8001140256	 1.9932480599	 0.5961887624	 0.120469
H	-2.2067686025	-0.1509798791	 0.0137119934	 0.105633
H	-1.366934658	-0.9293073613	-1.3369232402	 0.128608
H	-2.2240786919	-2.5178339601	 0.8283940903	 0.097483
H	-0.0237561627	-2.5302451225	 2.3697928573	 0.096816
H	 1.3352542041	-0.3437218546	 1.887494922	 0.092105
182.7022	202.9411	263.1013	357.1038	358.2187	411.7464	559.2739	642.1136	716.2018	738.0807	815.3846	845.2498	865.4864	900.219	917.0713	960.0554	986.2326	1022.1882	1036.7814	1064.4717	1090.5705	1129.6559	1214.6741	1222.7546	1251.0296	1279.4611	1318.1715	1335.8283	1404.775	1421.0943	1445.9288	1461.9244	1485.1458	1496.5793	3033.9927	3046.9282	3092.5974	3097.2576	3124.242	3133.7228	3145.0527	3162.1795
CC12CC3OC3C1O2	C[C@]12C[C@H]3O[C@H]3[C@H]1O2	
InChI=1S/C6H8O2/c1-6-2-3-4(7-3)5(6)8-6/h3-5H,2H2,1H3	InChI=1S/C6H8O2/c1-6-2-3-4(7-3)5(6)8-6/h3-5H,2H2,1H3/t3-,4-,5-,6+/m1/s1
