21
gdb 95404	2.33492	1.53296	1.0745	1.6573	81.17	-0.2396	0.0172	0.2568	1201.5208	0.182104	-424.242152	-424.232858	-424.231914	-424.27565	35.567	
C	-0.059276517	 1.5210324622	 0.0009891851	-0.400362
C	 0.0437467347	 0.0052979166	 0.0338182975	 0.089504
O	 0.7679039593	-0.4081958782	-1.1259385646	-0.27132
C	 0.6881156409	-1.8071057656	-1.3255402987	-0.132405
C	 0.9604165855	-2.5956588107	-0.0748979453	-0.160277
C	 1.003099583	-2.0352419692	 1.1350181059	 0.286156
C	 1.3294442237	-2.782940457	 2.3960177475	-0.48658
C	 0.7723664624	-0.5404529572	 1.2717239554	 0.04287
O	 2.0112662844	 0.1343275691	 1.4983406957	-0.435911
H	 0.9328682013	 1.9723107719	 0.0653222211	 0.129866
H	-0.5397710678	 1.8446578956	-0.9256951213	 0.118484
H	-0.6521630606	 1.8799214536	 0.8478854379	 0.114337
H	-0.9674102668	-0.4363498118	 0.007330686	 0.06444
H	-0.3044178169	-2.0770111392	-1.7338495298	 0.098166
H	 1.4232490593	-2.0503261284	-2.101980144	 0.116055
H	 1.1255367758	-3.663799394	-0.2017296316	 0.086225
H	 1.5797397779	-3.8285162756	 2.197186152	 0.116936
H	 2.1774294519	-2.3109023603	 2.9052522866	 0.141339
H	 0.4870990157	-2.7601479504	 3.0995185715	 0.12227
H	 0.1701135656	-0.3355262338	 2.1656442622	 0.079922
H	 2.5261499377	 0.0070471026	 0.691464851	 0.280287
91.5801	175.0465	195.7688	221.1108	226.3969	267.1301	278.4746	299.9302	360.1497	431.3237	457.2793	486.7984	588.1603	685.676	712.3131	820.8274	837.6521	885.401	895.2816	980.1506	1000.6972	1036.5967	1044.5815	1054.0849	1068.9843	1122.5163	1160.2682	1167.6784	1189.0324	1262.8843	1270.3125	1307.0114	1352.2676	1367.5487	1389.0763	1398.4619	1408.9373	1413.5645	1424.8366	1477.0062	1485.4334	1488.5134	1494.0706	1495.9297	1741.6267	2926.611	2956.0301	3019.7574	3037.5464	3049.102	3051.1316	3075.0572	3113.2691	3121.1251	3140.1267	3147.132	3779.2553
CC1OCC=C(C)C1O	C[C@H]1OCC=C(C)[C@H]1O	
InChI=1S/C7H12O2/c1-5-3-4-9-6(2)7(5)8/h3,6-8H,4H2,1-2H3	InChI=1S/C7H12O2/c1-5-3-4-9-6(2)7(5)8/h3,6-8H,4H2,1-2H3/t6-,7-/m1/s1
