21
gdb 120091	3.98194	0.94432	0.86742	2.2103	83.44	-0.2007	0.0628	0.2635	1435.1879	0.181866	-383.155085	-383.146359	-383.145414	-383.189035	33.634	
C	-0.6227825746	 1.5480240239	 0.0140878171	-0.381535
C	-0.363238894	 0.0524106033	 0.2111521302	-0.166949
C	 0.8587472917	-0.2180792929	 1.0955939378	-0.092108
N	 1.0535176272	-1.6641268852	 1.2455542255	-0.071246
C	 2.2354281764	-2.4649338168	 1.1740995262	-0.063311
C	 3.4403957132	-1.9749314391	 2.0629665532	-0.07784
N	 3.0729441377	-0.6853853333	 2.6981843892	-0.33215
C	 2.5774924823	-1.9672802045	 3.2574058148	-0.07784
C	 1.3521143862	-2.4571022493	 2.3967877486	-0.063313
H	 0.233242868	 2.0419883842	-0.460004646	 0.111141
H	-1.4981412599	 1.7217769982	-0.6193493404	 0.108926
H	-0.8008400409	 2.0511583022	 0.9715299502	 0.111142
H	-1.2407386577	-0.4273375498	 0.6617562647	 0.09231
H	-0.2141490717	-0.4364442054	-0.7594152363	 0.09231
H	 1.7523069187	 0.2366279612	 0.6574113479	 0.105386
H	 0.7263505523	 0.2457420043	 2.0777094473	 0.105389
H	 2.3446406052	-3.2138919971	 0.3960177925	 0.092326
H	 4.4714319879	-2.2835376531	 1.9518109394	 0.092568
H	 3.8677754982	-0.4003039119	 3.2705728884	 0.2299
H	 2.7939976793	-2.2686621669	 4.2737342594	 0.092568
H	 0.6431989646	-3.198808232	 2.7511713704	 0.092326
55.567	89.1378	131.2797	234.0245	251.1207	285.4766	360.4141	403.7007	502.505	678.6239	722.8621	735.7134	746.4249	750.3224	804.5719	853.4429	860.5235	890.6796	891.3133	909.8407	925.3798	957.0883	1020.5772	1036.7402	1039.6981	1054.74	1105.6185	1109.4762	1125.0275	1180.8402	1226.4014	1229.5167	1273.5353	1291.2427	1294.0163	1321.347	1322.5429	1345.4201	1384.7426	1412.1238	1422.8667	1467.1272	1490.2074	1500.966	1509.715	3026.0539	3026.6329	3047.9387	3054.3544	3087.1883	3100.2111	3101.264	3150.2698	3160.8535	3195.3771	3208.9983	3466.425
CCCN1C2C3NC3C12	CCCN1[C@H]2[C@H]3N[C@H]3[C@@H]12	
InChI=1S/C7H12N2/c1-2-3-9-6-4-5(8-4)7(6)9/h4-8H,2-3H2,1H3	InChI=1S/C7H12N2/c1-2-3-9-6-4-5(8-4)7(6)9/h4-8H,2-3H2,1H3/t4-,5+,6-,7+,9?
