22
gdb 118292	4.24956	0.58663	0.53697	3.6975	81.39	-0.247	0.0351	0.2821	2077.3103	0.192617	-441.519029	-441.508083	-441.507139	-441.556471	38.46	
C	-0.1426358873	 1.5156966814	-0.0096875034	-0.383092
C	-0.127680439	-0.0087471701	 0.1248626746	-0.166104
C	 0.8403872333	-0.5052807196	 1.2044306075	-0.190799
C	 0.9120990247	-2.02937837	 1.3071337704	 0.103762
O	 1.3348732147	-2.6345474903	 0.0791939343	-0.436448
C	 1.8133412103	-2.494845145	 2.4553958395	-0.167046
N	 1.8983533461	-3.9418727962	 2.473228154	-0.275192
C	 1.8156397348	-4.6810439511	 3.6078740621	 0.153088
O	 1.7240978592	-4.2323962715	 4.7321803297	-0.328271
H	 0.847403061	 1.9008703425	-0.2789795859	 0.112622
H	-0.8457366451	 1.8388204385	-0.7833968738	 0.11569
H	-0.4377751241	 1.9960263904	 0.9298873054	 0.11595
H	-1.1380674839	-0.3680238245	 0.3594897304	 0.099629
H	 0.1413992686	-0.4686707882	-0.8323254211	 0.107098
H	 1.8511902582	-0.1156476681	 1.0055790153	 0.085935
H	 0.5497860468	-0.1001488796	 2.1826717373	 0.106183
H	-0.0938703111	-2.434682321	 1.4715980396	 0.098975
H	 2.161920354	-2.2127786351	-0.1834187835	 0.280876
H	 2.8130412629	-2.0472602211	 2.3392830426	 0.097174
H	 1.4239987675	-2.1738647341	 3.4246432594	 0.145195
H	 1.9233829213	-4.4002767279	 1.5749871346	 0.252477
H	 1.8444138872	-5.7677033794	 3.391556791	 0.072297
36.0756	64.3324	91.6751	109.8063	127.8487	225.1672	237.1793	247.8932	318.7251	323.3414	368.7043	381.2514	474.0738	571.6521	605.6017	745.6581	773.1385	851.6785	890.2411	905.6655	981.5783	1008.5891	1032.7982	1042.5767	1073.9397	1099.1608	1122.149	1151.8616	1211.9843	1232.0905	1245.2564	1280.3592	1310.1324	1340.1764	1353.0853	1394.6599	1402.68	1415.6113	1421.6103	1428.8382	1478.3422	1493.6774	1500.484	1500.8589	1511.7429	1520.2177	1802.6268	2934.1516	2980.7477	2991.5597	3026.0729	3029.9931	3037.9016	3050.3261	3069.7838	3097.1488	3104.1421	3110.8411	3624.973	3784.4899
CCCC(O)CNC=O	CCC[C@@H](O)CNC=O	
InChI=1S/C6H13NO2/c1-2-3-6(9)4-7-5-8/h5-6,9H,2-4H2,1H3,(H,7,8)	InChI=1S/C6H13NO2/c1-2-3-6(9)4-7-5-8/h5-6,9H,2-4H2,1H3,(H,7,8)/t6-/m1/s1
