19
gdb 64232	3.19614	0.98169	0.91088	2.9712	77.91	-0.2453	0.0522	0.2975	1355.2097	0.155742	-422.971646	-422.961817	-422.960873	-423.006478	36.29	
C	-0.1377401989	 1.5730913676	-0.1211367368	-0.455583
C	-0.0278611824	 0.057162119	-0.0351437606	 0.303064
O	-1.2692607772	-0.5710397207	-0.2680988362	-0.469837
C	 1.2103404598	-0.5329817849	-0.7643843811	-0.113017
O	 1.8816850729	-0.7471468362	 0.4937430661	-0.290245
C	 0.6581121714	-0.5284147508	 1.2262582588	 0.136649
C	 0.8483667533	 0.316975038	 2.4844446341	-0.392845
C	 1.5741619571	-0.39194204	 3.5312488668	 0.297783
C	 2.166632724	-0.9909237282	 4.3877645716	-0.425247
H	 0.8209794221	 2.0567285202	 0.0845884841	 0.13535
H	-0.4415158578	 1.8700681652	-1.1329537389	 0.110656
H	-0.8832719266	 1.9535207118	 0.5836660229	 0.128709
H	-1.7081145947	-0.1236432447	-0.9992316539	 0.27987
H	 0.9817615424	-1.4743466324	-1.2805061302	 0.100806
H	 1.7805126354	 0.1291660399	-1.4261307493	 0.097939
H	 0.1825452189	-1.4823016989	 1.4916383025	 0.094225
H	 1.3784955726	 1.2407295668	 2.2269415768	 0.130818
H	-0.1444509691	 0.606582942	 2.8546311663	 0.13623
H	 2.6967507767	-1.5159537339	 5.142936897	 0.194676
61.309	87.5871	111.6269	216.9123	247.2917	265.2275	272.0247	340.0803	355.1599	382.3262	401.2154	506.8114	551.1985	617.1425	639.0433	652.3939	819.7706	856.4357	905.3673	948.2649	968.0009	978.7218	1018.2351	1039.13	1094.0296	1138.5202	1155.4776	1190.379	1211.2897	1236.1284	1290.5414	1312.5049	1342.9393	1390.2896	1404.4108	1410.3331	1454.2077	1491.1718	1496.2302	1516.6077	2242.4409	3010.1651	3019.3706	3021.4277	3025.743	3067.8429	3068.2472	3091.9127	3121.079	3508.4099	3809.6927
CC1(O)COC1CC#C	C[C@@]1(O)CO[C@H]1CC#C	
InChI=1S/C7H10O2/c1-3-4-6-7(2,8)5-9-6/h1,6,8H,4-5H2,2H3	InChI=1S/C7H10O2/c1-3-4-6-7(2,8)5-9-6/h1,6,8H,4-5H2,2H3/t6-,7+/m0/s1
