16
gdb 74658	4.6908	1.43791	1.25818	2.7528	69.53	-0.2251	0.0393	0.2644	975.819	0.128107	-434.018126	-434.011667	-434.010723	-434.048649	26.849	
N	 0.0455113338	 1.3414143943	 0.1167913623	-0.566468
C	-0.0531994041	-0.0253853231	 0.0486088222	 0.464052
N	-1.1605093975	-0.6559648826	 0.0051248822	-0.377396
C	-1.023290743	-2.0883990247	 0.022287913	 0.074256
C	 0.0393203297	-2.7213833999	 0.9796202574	-0.100058
N	 0.0578834173	-3.9204754562	 0.0628951884	-0.319347
C	 0.0919397316	-2.7312938645	-0.865231425	-0.101022
C	 1.1045836888	-2.0342074588	 0.0838368378	 0.11735
O	 1.1751505923	-0.6108011033	 0.0822944393	-0.275309
H	 0.9025179419	 1.7341362656	-0.2404480084	 0.259211
H	-0.7968684277	 1.8228034737	-0.1568029045	 0.266201
H	-1.9840495194	-2.6007717507	-0.0023624461	 0.090267
H	 0.0112572928	-2.8068953518	 2.0654904029	 0.087427
H	 0.9854425571	-4.358359196	 0.0918881639	 0.208349
H	 0.1257259698	-2.8284132577	-1.9501518289	 0.085239
H	 2.1304236364	-2.4064365744	 0.1148684335	 0.087247
156.8031	299.4336	349.4899	413.957	454.0615	456.9239	507.5449	554.7448	630.5176	750.2671	784.1428	800.6351	849.1678	870.8585	891.7818	902.3058	921.9857	999.9449	1012.9685	1031.9634	1099.6672	1124.0038	1145.1114	1161.5676	1163.5928	1211.1242	1243.8635	1254.4901	1289.9321	1290.4313	1307.851	1389.0553	1420.5067	1614.3094	1737.6545	3101.9637	3118.7161	3121.6097	3132.5745	3370.0125	3588.9448	3705.9809
NC1=NC2C3NC2C3O1	N[C]1[N][C@@H]2[C@H]3N[C@@H]2[C@H]3O1	
InChI=1S/C5H7N3O/c6-5-8-1-2-4(9-5)3(1)7-2/h1-4,7H,(H2,6,8)	InChI=1S/C5H7N3O/c6-5-8-1-2-4(9-5)3(1)7-2/h1-4,7H,(H2,6,8)/t1-,2-,3+,4+
