20
gdb 117496	2.09989	1.0175	0.71949	0.4196	87.6	-0.2485	-0.0219	0.2266	1634.0025	0.167392	-403.12404	-403.113253	-403.112309	-403.161061	37.807	
C	 0.0382329346	 1.4950764299	-0.1299284343	-0.39172
C	 0.0472960534	-0.0189770032	-0.0339769099	-0.034771
O	 0.6190130135	-0.5207980608	-1.2519281104	-0.252303
C	 0.7166957661	-1.8632238502	-1.3613622515	 0.276158
N	 0.3237419214	-2.6450853177	-0.4427738871	-0.32341
C	 0.4514263365	-4.0846724746	-0.5770459303	-0.144232
C	 1.3075417408	-4.6523495746	 0.5586898672	-0.35973
C	 1.3055099836	-2.2309720884	-2.624203521	 0.283135
C	 1.7952453586	-2.5673973235	-3.6695583028	-0.431414
H	 1.0531413414	 1.8851510499	-0.2475935295	 0.129007
H	-0.558855676	 1.8285274953	-0.9833462792	 0.129138
H	-0.3925136614	 1.9214728825	 0.7809492356	 0.119556
H	 0.6413158186	-0.3749715903	 0.8146942861	 0.116615
H	-0.9608353117	-0.4303813359	 0.0853968274	 0.117074
H	-0.5576975817	-4.5117626811	-0.5093364339	 0.107046
H	 0.8673561093	-4.3872234737	-1.5481752394	 0.100524
H	 2.3323149047	-4.272702131	 0.4986340858	 0.118171
H	 0.8969583658	-4.3654887467	 1.5309332679	 0.124062
H	 1.3427125574	-5.744897649	 0.5026630552	 0.109991
H	 2.2279894853	-2.8567027268	-4.5958278057	 0.207102
35.5763	63.1928	111.3524	125.5789	147.236	183.9015	246.8071	248.879	316.0402	341.3789	360.548	445.1096	525.2878	636.1191	647.4837	659.5664	724.5335	778.6769	810.8052	819.539	907.9201	960.2538	1057.1245	1077.7293	1119.2248	1156.9799	1168.2689	1182.0242	1281.6201	1285.8833	1305.19	1382.6949	1393.543	1404.101	1419.6905	1485.1529	1488.1465	1492.1218	1496.0665	1510.9596	1519.6264	1705.9885	2230.4631	3001.7414	3037.922	3040.0877	3042.7815	3045.8069	3078.5091	3110.4556	3118.4899	3120.0208	3124.7566	3497.8448
CCOC(=NCC)C#C	CCOC(=NCC)C#C	
InChI=1S/C7H11NO/c1-4-7(8-5-2)9-6-3/h1H,5-6H2,2-3H3	InChI=1S/C7H11NO/c1-4-7(8-5-2)9-6-3/h1H,5-6H2,2-3H3
