22
gdb 57191	2.23826	1.32455	1.10042	3.7712	78.18	-0.2559	0.0162	0.2721	1238.1409	0.191462	-441.531977	-441.521118	-441.520174	-441.567258	40.942	
C	 0.1091108215	 1.5936164891	 0.5166568876	-0.410829
C	 0.0058472369	 0.0937628652	 0.1792059476	 0.263617
C	 0.9256915549	-0.7087190744	 1.114606478	-0.41787
C	-1.4549687822	-0.3549775471	 0.3579095239	-0.436291
C	 0.4743461681	-0.071333916	-1.3065255736	 0.021271
O	 1.7647452418	 0.4596437273	-1.4862614422	-0.438745
C	 0.5214747494	-1.5317268039	-1.7948949163	 0.393116
N	-0.6488234951	-2.118309089	-2.1430183359	-0.517907
O	 1.5956625562	-2.1094986797	-1.8700746489	-0.385732
H	 1.1257898811	 1.9565203542	 0.3559449698	 0.139341
H	-0.5665502115	 2.1872744677	-0.1100363838	 0.102062
H	-0.1651215183	 1.7682737692	 1.5624558729	 0.104065
H	 0.6532722024	-0.5327044658	 2.1603366648	 0.106166
H	 0.8591910226	-1.7851998964	 0.927173197	 0.118339
H	 1.967267324	-0.4066465904	 0.9789241918	 0.126611
H	-2.1211043892	 0.1536025703	-0.35145415	 0.09973
H	-1.5765466997	-1.4348346997	 0.2353103335	 0.114651
H	-1.8047346859	-0.099062283	 1.3633096344	 0.119031
H	-0.2295033024	 0.4900669329	-1.9415107203	 0.073573
H	 2.332008461	-0.319162479	-1.6194815234	 0.293203
H	-1.5197614931	-1.6181290381	-2.1389237964	 0.266052
H	-0.6287774327	-3.0641770534	-2.4886315403	 0.266547
54.1034	89.4214	183.5667	217.8628	232.4576	243.5194	269.7036	287.4745	304.2729	335.7189	357.8398	391.4342	410.4353	437.8544	526.4816	545.2069	569.2872	669.9678	695.6589	798.1929	865.7806	918.5157	939.4869	943.2884	963.1711	1040.3114	1049.6359	1098.5672	1127.7523	1210.5069	1243.611	1256.0502	1279.2086	1346.8693	1359.8983	1393.2737	1399.139	1429.7287	1468.8328	1477.5702	1489.2736	1494.6884	1502.8072	1509.3951	1524.4988	1619.8935	1774.7426	2976.4294	3018.3308	3028.6476	3037.7038	3083.5992	3090.2966	3100.5559	3109.9917	3120.9661	3136.195	3602.4441	3649.3193	3740.6016
CC(C)(C)C(O)C(N)=O	CC(C)(C)[C@@H](O)C(=O)N	
InChI=1S/C6H13NO2/c1-6(2,3)4(8)5(7)9/h4,8H,1-3H3,(H2,7,9)	InChI=1S/C6H13NO2/c1-6(2,3)4(8)5(7)9/h4,8H,1-3H3,(H2,7,9)/t4-/m0/s1
