16
gdb 33474	2.20129	1.72471	1.17869	4.0487	78.69	-0.2793	0.01	0.2894	1062.2618	0.123534	-363.555599	-363.547486	-363.546542	-363.588148	31.064	
C	 0.0405158712	-1.2276592278	-0.0575459076	-0.43051
C	 0.0185458198	-0.0267006061	-0.0426053799	 0.289878
C	 0.0174946996	 1.4289813291	 0.0198231469	-0.024901
C	-0.2241274249	 2.0933028467	 1.4493690991	-0.28176
C	 1.1439754116	 2.7696304326	 1.3532919316	-0.03089
C	 2.2198741349	 1.7372745134	 1.1778789586	-0.296684
C	 1.4018341645	 2.1408160639	-0.0125806607	-0.068821
C	-0.8946388949	 1.9903841346	-0.9789996307	 0.246055
N	-1.6029290923	 2.4587022491	-1.7628696582	-0.340333
H	 0.0516964714	-2.2895526947	-0.0855031649	 0.206347
H	-1.0670931872	 2.7835127412	 1.4203509854	 0.141134
H	-0.3628546168	 1.3760929769	 2.2617372346	 0.121578
H	 1.3554309956	 3.7794619023	 1.6790909913	 0.102419
H	 3.2362093969	 2.1166835557	 1.1716919668	 0.125255
H	 2.1130806427	 0.744145948	 1.6059184176	 0.125669
H	 1.825764238	 2.5625316551	-0.9141271799	 0.115564
122.444	129.6735	158.1562	179.703	302.5373	396.0539	473.8033	487.1326	545.8694	567.1266	588.6315	641.6221	656.9738	741.3746	793.6107	846.0211	901.1228	933.8792	957.4057	977.8324	1008.0606	1055.2354	1064.9066	1087.8984	1105.6206	1143.1869	1194.6297	1235.0714	1254.4703	1293.3615	1355.8153	1478.6495	1494.6495	2239.2601	2358.0379	3074.0532	3120.2356	3144.2829	3197.9111	3203.7255	3215.3462	3499.6904
C#CC1(CC2CC12)C#N	C#C[C@]1(C[C@H]2C[C@@H]12)C#N	
InChI=1S/C8H7N/c1-2-8(5-9)4-6-3-7(6)8/h1,6-7H,3-4H2	InChI=1S/C8H7N/c1-2-8(5-9)4-6-3-7(6)8/h1,6-7H,3-4H2/t6-,7-,8+/m1/s1
