13
gdb 47958	6.63772	0.57765	0.5441	2.6611	78.8	-0.2772	-0.0892	0.1881	1883.7964	0.084339	-419.372376	-419.362667	-419.361723	-419.408964	31.871	
O	-0.3558699952	 0.34424366	 0.8575309174	-0.210908
C	 0.0160865171	 1.0922767506	-0.0138967991	 0.021272
C	 1.2187293388	 1.8898168456	 0.0709268373	 0.099995
C	 2.2169281598	 2.5720119656	 0.120759231	 0.025373
C	 3.4132986895	 3.3968497193	 0.1956761314	 0.227473
O	 3.3553055116	 4.5586230679	 0.5129186848	-0.248579
C	 4.7068801787	 2.6533079557	-0.1558742766	-0.463647
C	 5.8967951324	 3.4830171885	-0.1103180178	 0.311968
C	 6.8850613562	 4.1628580687	-0.0750194746	-0.426211
H	-0.5459237118	 1.2239895187	-0.9594199603	 0.117913
H	 4.7896878191	 1.8006196282	 0.5328175532	 0.172083
H	 4.5712970886	 2.2055557496	-1.1502944992	 0.166566
H	 7.7572990753	 4.7679041517	-0.0416958375	 0.206704
37.0552	46.4811	81.87	106.5812	150.3472	260.3009	263.4027	319.3201	354.8878	418.9644	558.6046	568.276	635.1517	661.1126	682.4663	817.7579	934.8934	940.7963	1012.81	1016.9614	1142.0735	1213.0711	1336.8507	1416.8631	1432.0767	1773.0301	1787.4816	2252.9209	2296.3517	2936.9822	3015.9873	3043.3121	3505.5605
O=CC#CC(=O)CC#C	O=CC#CC(=O)CC#C	
InChI=1S/C7H4O2/c1-2-4-7(9)5-3-6-8/h1,6H,4H2	InChI=1S/C7H4O2/c1-2-4-7(9)5-3-6-8/h1,6H,4H2
