19
gdb 68871	2.40406	1.86665	1.58336	2.3772	73.79	-0.2292	0.0591	0.2883	951.9225	0.159262	-422.97505	-422.967241	-422.966297	-423.006712	31.715	
C	 0.086085634	 1.4636172303	 0.0224425149	-0.496858
C	 0.0370301503	-0.0398159684	-0.0232566915	 0.24365
C	 1.2555533217	-0.8800012564	-0.376195279	-0.379496
C	 0.6808261246	-0.9613471362	 1.0036871825	 0.366307
O	 1.4483974348	-0.5584927133	 2.0897196908	-0.468886
C	-0.4945278494	-1.9523669069	 1.1998095412	-0.009437
C	-1.7087274196	-0.9977270855	 1.3651999073	-0.238275
C	-1.3196527438	-0.7822407138	-0.1254107619	 0.015816
O	-0.940760153	-2.1928467615	-0.1668594452	-0.280647
H	 1.028377724	 1.8057407671	 0.4627644238	 0.127956
H	 0.0058699349	 1.905273638	-0.977370607	 0.124045
H	-0.7305898733	 1.8756340657	 0.6282308106	 0.110288
H	 1.1642423651	-1.7204533727	-1.052350409	 0.128484
H	 2.1842312453	-0.321919603	-0.4409437289	 0.114428
H	 0.8801018652	-0.0896192634	 2.7116961966	 0.283405
H	-0.333517024	-2.8526438901	 1.7929820307	 0.085309
H	-2.6523777258	-1.5328248711	 1.4820667236	 0.110416
H	-1.6373226047	-0.1540024331	 2.0594899561	 0.083518
H	-2.0319215163	-0.4894191457	-0.8978617156	 0.079978
167.7813	186.0335	217.2105	265.4485	289.4659	359.7694	443.7604	510.4531	530.3451	549.0005	562.9429	724.0107	746.653	798.1642	851.5471	868.4214	915.3652	929.6158	932.722	957.8488	973.5902	1027.6879	1059.0125	1074.8117	1090.3231	1113.9768	1146.9049	1178.021	1215.0637	1231.1393	1236.6122	1263.9862	1289.4567	1326.2989	1349.0403	1392.5192	1417.5733	1478.7083	1484.4334	1491.5746	1503.0694	3018.1164	3047.5801	3074.4044	3095.1287	3110.8734	3122.221	3134.0499	3139.0552	3232.9753	3783.1005
CC12CC1(O)C1CC2O1	C[C@@]12C[C@]1(O)[C@H]1C[C@@H]2O1	
InChI=1S/C7H10O2/c1-6-3-7(6,8)5-2-4(6)9-5/h4-5,8H,2-3H2,1H3	InChI=1S/C7H10O2/c1-6-3-7(6,8)5-2-4(6)9-5/h4-5,8H,2-3H2,1H3/t4-,5+,6-,7-/m0/s1
