17
gdb 13782	3.52127	1.36951	1.07153	4.3993	66.16	-0.2463	-0.0216	0.2247	1096.9136	0.140094	-400.976247	-400.96742	-400.966476	-401.010332	31.416	
C	-0.0911354758	 1.5133843025	 0.3801910291	-0.414185
C	-0.00137438	 0.0043943609	 0.154890376	 0.133718
O	 0.7645075975	-0.6410003311	 1.1664758271	-0.422591
C	-1.3836042571	-0.6171650922	 0.0163044679	-0.041471
N	-1.8348808671	-0.9532279253	-1.3288382788	-0.331114
C	-1.5852821877	-2.0529489054	-0.3700567007	-0.125848
C	-0.4349652875	-2.9529807326	-0.67136863	 0.190036
O	-0.3701853024	-4.0903065786	-0.2786821199	-0.263235
H	 0.9096771847	 1.94315987	 0.468148775	 0.130877
H	-0.611476054	 2.0005289998	-0.4507498338	 0.128229
H	-0.6432437675	 1.7384768703	 1.3016581404	 0.106752
H	 0.5442649762	-0.1864918782	-0.7737001978	 0.105696
H	 0.3227312985	-0.5087098105	 2.0126698016	 0.280636
H	-2.1266271114	-0.232393056	 0.7173136777	 0.088507
H	-2.8350819641	-0.808381049	-1.4360068532	 0.244612
H	-2.4326030299	-2.5662328027	 0.078188843	 0.103606
H	 0.3576006276	-2.499459462	-1.3024206836	 0.085775
34.6479	98.9786	158.6455	225.1209	257.3914	275.9821	305.34	353.0335	374.9703	472.3116	509.7308	579.2284	791.6472	864.3198	904.5332	929.8789	953.9229	995.9246	1029.7176	1051.1995	1096.7416	1107.9853	1149.3401	1198.9995	1232.7189	1240.264	1288.5466	1335.2008	1367.0392	1402.1331	1417.3099	1422.7765	1468.6227	1491.7257	1495.5439	1824.3793	2917.8183	3024.0618	3072.1914	3089.4404	3099.7799	3125.3265	3147.3601	3512.121	3800.2807
CC(O)C1NC1C=O	C[C@@H](O)[C@H]1N[C@H]1C=O	
InChI=1S/C5H9NO2/c1-3(8)5-4(2-7)6-5/h2-6,8H,1H3	InChI=1S/C5H9NO2/c1-3(8)5-4(2-7)6-5/h2-6,8H,1H3/t3-,4+,5-/m1/s1
