19
gdb 47801	2.13275	1.8903	1.19873	4.165	74.4	-0.2413	-0.0228	0.2185	1066.2975	0.160602	-423.034306	-423.026477	-423.025533	-423.066656	30.513	
O	 0.0361403476	-0.0736181512	 0.0675385793	-0.297946
C	-0.001051508	 1.130625053	 0.0064639386	 0.344443
C	-1.2958189907	 1.9269032278	-0.0133997795	-0.292085
C	-1.7294404322	 2.2806325529	 1.4330787016	-0.192315
C	-0.7789930216	 3.1878069684	 2.2351357786	-0.194435
C	 0.6272185183	 2.5998115647	 2.4822807491	-0.24824
C	 1.5313614476	 2.7429287681	 1.2729758484	 0.067653
O	 2.3144750371	 1.6079184504	 0.8733132876	-0.241603
C	 1.2391738408	 2.0015635782	 0.0382645956	-0.046699
H	-1.1671183267	 2.8483802929	-0.5949140703	 0.103266
H	-2.0724043954	 1.3185340794	-0.4847601404	 0.123146
H	-2.7099936751	 2.7659601833	 1.3766251407	 0.106298
H	-1.8772982342	 1.3418988464	 1.9809152797	 0.120728
H	-0.6862502649	 4.1621407556	 1.7357663138	 0.097459
H	-1.2511772968	 3.3896239772	 3.2030007475	 0.105785
H	 1.0933320543	 3.0946009852	 3.3407552634	 0.105096
H	 0.5525832475	 1.5357493427	 2.7334155594	 0.130674
H	 2.0527106593	 3.6959982622	 1.1771880713	 0.096972
H	 1.5152862631	 2.4395808628	-0.9240246845	 0.111802
86.3347	160.4499	204.0644	291.8634	298.0461	363.2106	397.514	463.3355	519.4634	592.5257	662.5912	763.84	800.8237	840.8465	866.2018	899.9019	922.1004	951.4471	955.6819	1032.3769	1068.3842	1072.4931	1085.213	1119.5703	1148.9127	1190.7256	1216.0998	1258.8896	1267.6295	1287.7596	1341.0951	1356.1325	1377.5112	1378.2022	1385.6351	1464.8186	1474.0997	1484.393	1490.3694	1495.1126	1823.5535	3016.118	3029.6486	3032.1696	3041.3042	3066.8121	3075.9663	3079.4	3083.4299	3102.264	3109.5961
O=C1CCCCC2OC12	O=C1CCCC[C@H]2O[C@@H]12	
InChI=1S/C7H10O2/c8-5-3-1-2-4-6-7(5)9-6/h6-7H,1-4H2	InChI=1S/C7H10O2/c8-5-3-1-2-4-6-7(5)9-6/h6-7H,1-4H2/t6-,7+/m1/s1
