18
gdb 81368	2.56693	1.66067	1.30986	3.3036	72.07	-0.2279	-0.0047	0.2232	1009.8214	0.149608	-439.051128	-439.043446	-439.042502	-439.082903	30.836	
O	 0.1400383326	 1.3735750714	-0.080758352	-0.464399
C	 0.1093202742	-0.0258845531	-0.0372355011	 0.212679
C	 0.1836501517	-0.6377249487	 1.4039850654	-0.095094
N	-1.2988872453	-0.4006085455	 1.4587349116	-0.348875
C	-1.3260421242	-0.6269514015	-0.0176853612	-0.054508
C	-1.3086566923	-2.1202648309	-0.3837266555	 0.078475
O	-1.038931468	-2.1871846385	-1.7840372793	-0.43102
C	-0.2473899039	-2.8258849377	 0.4395622504	-0.122029
C	 0.4934928626	-2.1121812776	 1.2890793134	-0.05909
H	-0.5079398326	 1.6802063521	 0.5666723579	 0.287832
H	 0.8090666241	-0.402072568	-0.7812586651	 0.100621
H	 0.769285018	-0.1101171672	 2.1601815659	 0.069414
H	-1.8048662369	-1.0958607177	 2.0050137075	 0.210425
H	-2.1043488737	-0.0892492304	-0.5667793542	 0.077909
H	-2.3014297166	-2.5593837385	-0.1797624512	 0.065646
H	-0.9746855782	-3.1137529647	-2.0368401916	 0.283685
H	-0.1162883866	-3.8971183227	 0.3052457335	 0.089887
H	 1.292922855	-2.5504465209	 1.8789184957	 0.098442
139.9061	187.8199	218.0163	288.3867	337.4283	393.7203	429.8868	481.8708	493.4013	513.3224	638.8813	692.5472	760.8717	847.4537	885.2073	915.0049	935.7149	965.1193	981.1784	985.6439	996.2144	1050.9201	1074.2101	1108.1297	1128.7379	1138.6613	1176.0964	1194.4466	1227.1898	1267.2067	1276.155	1310.4877	1338.8469	1356.7639	1362.8284	1399.7511	1414.5143	1444.9613	1690.9868	2935.3621	3071.4493	3085.1887	3142.1058	3149.0663	3179.7479	3468.7615	3773.8914	3816.4193
OC1C2NC1C(O)C=C2	O[C@H]1[C@H]2N[C@@H]1[C@@H](O)C=C2	
InChI=1S/C6H9NO2/c8-4-2-1-3-6(9)5(4)7-3/h1-9H	InChI=1S/C6H9NO2/c8-4-2-1-3-6(9)5(4)7-3/h1-9H/t3-,4-,5+,6-/m0/s1
