16
gdb 68061	2.04195	1.83798	1.15925	5.9378	69.67	-0.2672	0.0279	0.2951	1050.7917	0.123153	-437.845947	-437.837544	-437.8366	-437.878659	31.909	
O	-0.0875069278	 1.3101597016	 0.032908121	-0.46353
C	 0.0510314058	-0.0547359568	 0.0119088398	 0.414244
C	 0.6383710803	-0.9626066448	-1.1160823417	-0.369024
C	 0.0783488473	-1.915917622	-0.0119289995	 0.414245
O	-0.0200522468	-3.2843835749	-0.0259590628	-0.463533
C	 0.7357903856	-0.9890683642	 1.0605146626	-0.388342
C	-1.1886610091	-1.0041128206	 0.0306649079	-0.220063
C	-2.0383778698	-1.0316857616	 1.2091681658	 0.274434
N	-2.7246258064	-1.0536875161	 2.1392830418	-0.337448
H	 0.7834141316	 1.7120827274	 0.1219709946	 0.293743
H	 0.1186211467	-0.9579313777	-2.0767177281	 0.108572
H	 1.7249952293	-0.9451774146	-1.2316608141	 0.093509
H	 0.862235016	-3.6627211192	 0.054072609	 0.293747
H	 1.8291552418	-0.9732568852	 1.0783666423	 0.091756
H	 0.3050015242	-1.008224648	 2.0625726309	 0.136487
H	-1.7907952488	-1.0012700532	-0.8808342593	 0.121203
119.4483	167.0121	175.1836	197.9278	264.1969	296.4696	393.9498	444.9615	464.6069	514.3841	566.4722	612.1907	629.0632	682.2967	737.3741	818.1911	900.8168	975.3732	1014.2119	1027.1389	1083.0873	1092.4437	1109.9308	1120.0952	1131.1317	1134.4706	1140.0806	1274.3083	1324.9213	1344.0881	1359.7619	1427.6038	1492.4419	1552.3472	2355.7477	3056.8466	3063.1377	3092.1621	3132.6105	3141.2665	3813.7213	3814.4768
OC12CC(O)(C1)C2C#N	O[C@@]12C[C@@](O)(C1)[C@H]2C#N	
InChI=1S/C6H7NO2/c7-1-4-5(8)2-6(4,9)3-5/h4,8-9H,2-3H2	InChI=1S/C6H7NO2/c7-1-4-5(8)2-6(4,9)3-5/h4,8-9H,2-3H2/t4-,5-,6+
