18
gdb 48703	3.74907	1.13818	1.00488	3.2502	78.97	-0.2465	-0.027	0.2195	1205.9534	0.147362	-401.902276	-401.894266	-401.893322	-401.934931	30.829	
O	-0.5759443121	 0.8091714382	 0.6700036877	-0.269144
C	 0.212427008	 1.0005845515	-0.2253037439	 0.087444
C	 1.380408244	 1.8903227632	-0.1150190602	 0.234041
C	 1.7950151365	 2.7129178547	 1.114888768	-0.39556
C	 2.1667270242	 3.8696032158	 0.1616711544	 0.368861
C	 1.8847136803	 5.3241903753	 0.3733638728	-0.325668
C	 3.3126835673	 4.8396118847	 0.2419420496	-0.327308
C	 1.7488139968	 3.0504674309	-1.045272099	-0.167674
N	 2.4426953973	 1.7843655191	-1.1180300837	-0.354682
H	 0.1068025485	 0.5247607738	-1.2242152213	 0.083107
H	 0.940557234	 2.9408139494	 1.7553963734	 0.136228
H	 2.5963206936	 2.2788936626	 1.7217413898	 0.103265
H	 1.4621214153	 5.8870417841	-0.4530586069	 0.119187
H	 1.5353809362	 5.639633179	 1.3509650949	 0.121193
H	 3.9275521527	 4.822591347	 1.1360104446	 0.119751
H	 3.8530772455	 5.0796748745	-0.6680887618	 0.118952
H	 1.2270437888	 3.4047240146	-1.928037975	 0.108958
H	 3.3675771832	 1.8163354115	-0.6921223736	 0.239049
82.3347	150.1415	172.6793	264.6094	274.5852	329.4459	404.2423	477.7579	511.7216	579.2428	732.1213	759.5736	776.0226	831.583	867.9734	902.6644	932.9124	970.3594	979.7768	994.3171	1041.3832	1052.0866	1063.6022	1081.2396	1104.7175	1134.1084	1142.4614	1187.7126	1229.6666	1234.8206	1259.8929	1291.9153	1385.2503	1391.8071	1438.8275	1464.0101	1485.8803	1504.5545	1805.2481	2904.7816	3049.8299	3119.323	3125.0493	3128.5612	3173.7789	3203.837	3218.1776	3467.6553
O=CC12CC3(CC3)C1N2	O=C[C@]12CC3(CC3)[C@H]1N2	
InChI=1S/C7H9NO/c9-4-7-3-6(1-2-6)5(7)8-7/h4-5,8H,1-3H2	InChI=1S/C7H9NO/c9-4-7-3-6(1-2-6)5(7)8-7/h4-5,8H,1-3H2/t5-,7-/m1/s1
