17
gdb 118949	2.62309	1.07533	0.98167	2.3311	64.31	-0.2672	-0.0097	0.2574	1264.2322	0.133976	-496.108782	-496.099338	-496.098394	-496.14353	33.394	
O	-0.0177640591	 1.42667502	 0.0497388826	-0.423563
C	 0.0725629931	 0.0093690882	 0.0337293965	-0.088792
C	-1.3576848188	-0.5213213191	 0.0885403698	-0.21448
C	-1.4335583677	-2.0427380943	 0.0514435622	 0.196641
O	-0.7547515974	-2.5411497093	 1.1738055863	-0.463089
C	-2.8361742136	-2.6265843132	-0.2754832698	-0.134002
O	-2.3563643417	-3.0678027247	-1.5858639639	-0.239756
C	-1.069875823	-2.6700650188	-1.3222048862	 0.392602
O	-0.1012318876	-2.8368624554	-1.9911694881	-0.324801
H	 0.8752068152	 1.7821331134	 0.0261452897	 0.288575
H	 0.5682302582	-0.3545341108	-0.8782640612	 0.112076
H	 0.6370750471	-0.3715132288	 0.8951158462	 0.107772
H	-1.8367528894	-0.1735822665	 1.0110188921	 0.122676
H	-1.924533794	-0.1055600629	-0.7513501426	 0.120217
H	-0.6072667053	-3.4874402384	 1.0691265065	 0.29518
H	-3.1284089213	-3.4801833846	 0.3407669166	 0.121818
H	-3.6598768447	-1.9181354747	-0.3785908667	 0.130925
78.825	99.4914	105.1851	171.7305	202.3642	254.2488	279.3702	311.0107	339.6978	384.1616	446.895	575.6428	718.8129	776.4915	779.9399	815.6903	920.8241	949.1588	977.5766	1020.7987	1059.3368	1084.6733	1129.2966	1135.9504	1153.9748	1196.5417	1252.416	1262.5929	1316.4374	1328.3569	1348.8048	1395.96	1464.3836	1479.7704	1512.5826	1534.285	1928.4526	2997.6013	3035.5457	3043.4294	3069.0187	3092.3255	3136.5169	3807.8439	3834.5964
OCCC1(O)COC1=O	OCC[C@@]1(O)COC1=O	
InChI=1S/C5H8O4/c6-2-1-5(8)3-9-4(5)7/h6,8H,1-3H2	InChI=1S/C5H8O4/c6-2-1-5(8)3-9-4(5)7/h6,8H,1-3H2/t5-/m1/s1
