19
gdb 72637	2.29809	1.32475	1.15018	3.4926	78.74	-0.2385	-0.022	0.2166	1177.8387	0.156446	-423.002762	-422.99349	-422.992545	-423.036588	34.186	
C	 0.0970413567	 1.6467691462	-0.034007499	-0.499236
C	 0.0874542002	 0.1465148237	 0.0477560297	 0.164533
C	 0.6454190965	-0.7952376722	-1.0168916009	-0.126459
O	 1.0680278088	-1.7475927966	-0.0037795607	-0.316703
C	 0.6268184518	-0.8594718218	 1.0233937065	 0.416933
C	 1.4228394827	-0.8254730571	 2.2870037507	-0.493229
C	-0.8967213164	-0.699405808	 0.884572259	-0.220077
C	-1.6453988194	-0.0501617306	 1.9775807693	 0.145456
O	-2.7586995819	-0.374365768	 2.3196792286	-0.274413
H	 1.0525808649	 2.0025690782	-0.4343062658	 0.126626
H	-0.6995980703	 2.0112019911	-0.6925169709	 0.135476
H	-0.0456589007	 2.1153714696	 0.9430594739	 0.131625
H	-0.0525336853	-1.231973725	-1.7398734109	 0.113658
H	 1.5159308662	-0.3811063653	-1.5392649493	 0.113398
H	 2.4739301692	-0.6154081123	 2.0672040587	 0.134885
H	 1.0488028945	-0.0605817175	 2.9720603557	 0.131103
H	 1.3670464115	-1.7935995024	 2.7960897984	 0.145666
H	-1.4377531988	-1.5084174112	 0.3999937261	 0.106253
H	-1.1151137803	 0.7771355992	 2.5020673608	 0.064505
91.8185	140.0699	166.2671	185.1266	206.8098	251.137	283.6585	312.6118	379.317	442.1728	465.7214	505.8928	612.887	689.902	725.5695	885.4901	910.5282	972.7073	982.9658	990.7494	1020.4426	1050.1369	1100.1293	1116.2894	1139.928	1155.8324	1170.0831	1204.2044	1248.797	1301.2529	1333.9622	1410.3595	1417.5881	1437.2975	1461.0766	1475.4166	1490.0355	1494.5557	1505.9451	1516.3563	1803.1624	2860.7082	3024.1643	3032.2223	3040.2656	3077.748	3090.8818	3105.715	3113.4526	3125.3546	3146.9233
CC12COC1(C)C2C=O	C[C@@]12CO[C@]1(C)[C@H]2C=O	
InChI=1S/C7H10O2/c1-6-4-9-7(6,2)5(6)3-8/h3,5H,4H2,1-2H3	InChI=1S/C7H10O2/c1-6-4-9-7(6,2)5(6)3-8/h3,5H,4H2,1-2H3/t5-,6-,7+/m0/s1
