12
gdb 21711	8.39175	1.20328	1.06563	3.325	61.76	-0.237	-0.0226	0.2144	1020.5852	0.085339	-410.846057	-410.839151	-410.838206	-410.877504	24.235	
N	-0.0050071746	 1.3451805911	-0.0512704946	-0.487324
C	 0.0839333774	 0.0064393809	 0.0831514668	 0.131466
N	 1.1727609036	-0.6281174943	-0.167640508	-0.331639
C	 1.1292679048	-1.9998953572	-0.1468630705	 0.414759
N	 0.0792081862	-2.720130358	-0.4932500604	-0.2096
O	 0.5243602608	-4.0429248671	-0.3316210131	-0.161263
C	 1.791116504	-3.9552590049	 0.0756995727	 0.114484
N	 2.2385880992	-2.7514296125	 0.2071454675	-0.312543
H	 0.8243165143	 1.8635037899	-0.2941873492	 0.274384
H	-0.7962723171	 1.8461681059	 0.3098794658	 0.272501
H	-0.8385744537	-0.48436098	 0.4088918032	 0.135504
H	 2.314066205	-4.884498174	 0.2511931097	 0.159269
102.873	152.6802	166.7664	242.0187	376.0278	446.5992	497.3418	620.8822	621.8446	764.5074	812.597	906.4347	924.1346	977.0429	1004.618	1035.1568	1111.5064	1149.0832	1298.1506	1316.8044	1347.6145	1406.3022	1530.8377	1590.8997	1628.7067	1728.9052	3086.3269	3260.1554	3606.8301	3745.9358
NC=NC1=NOC=N1	NC=Nc1nocn1	
InChI=1S/C3H4N4O/c4-1-5-3-6-2-8-7-3/h1-2H,(H2,4,5,7)	InChI=1S/C3H4N4O/c4-1-5-3-6-2-8-7-3/h1-2H,(H2,4,5,7)
