16
gdb 82090	2.62824	1.60413	1.19015	6.3772	63.95	-0.2511	0.024	0.2751	1023.6761	0.125105	-475.009655	-475.001989	-475.001044	-475.042203	29.182	
N	-0.1182201223	 1.1801552092	-0.0886954494	-0.536016
H	-0.6024768681	 0.3807168331	-0.4913089571	 0.262711
H	 1.2301251438	 0.2473800213	 0.6530935367	 0.3169
H	-0.160279871	 1.9465232654	-0.7505792283	 0.247615
C	-0.7411768432	 1.5227817592	 1.1859946862	-0.0431
C	-2.2018394647	 1.0822912442	 1.4097432696	 0.00637
O	-2.1950145028	-0.3392177551	 1.2238796669	-0.247949
C	-1.8157776175	 0.181172992	 2.5075427853	 0.037396
C	-0.3463478967	 0.5984470284	 2.4137925246	-0.191912
C	 0.6814408533	-0.527950636	 2.307189189	 0.411583
O	 1.5370269688	-0.452351682	 1.2824835493	-0.378328
O	 0.7298364367	-1.4046915397	 3.1287106725	-0.342283
H	-0.5583348242	 2.5756484965	 1.408340878	 0.096019
H	-3.1271438911	 1.6090214019	 1.2061283793	 0.114415
H	-2.3709591219	-0.1670422148	 3.368244236	 0.124239
H	-0.0595920992	 1.2167820463	 3.2698661012	 0.12234
72.6459	118.1358	226.3858	255.8289	326.2114	371.9545	452.5186	516.8287	573.915	645.2103	719.0177	761.6116	806.847	855.665	861.9525	897.0142	927.8113	940.6189	977.757	1010.5119	1026.1581	1055.949	1130.4104	1140.9349	1210.2751	1229.0349	1237.9464	1261.9627	1269.6628	1317.7736	1380.8468	1416.2839	1473.4672	1639.0534	1855.871	3073.0867	3100.8489	3184.9991	3219.4186	3296.1125	3489.2465	3586.9344
[NH3+]C1C2OC2C1C([O-])=O	N[C@H]1[C@H]2O[C@H]2[C@H]1C(=O)O	
InChI=1S/C5H7NO3/c6-2-1(5(7)8)3-4(2)9-3/h1-4H,6H2,(H,7,8)	InChI=1S/C5H7NO3/c6-2-1(5(7)8)3-4(2)9-3/h1-4H,6H2,(H,7,8)/t1-,2+,3-,4+/m0/s1
