19
gdb 84223	3.08016	1.52329	1.31735	3.6587	82.21	-0.2194	-0.0474	0.172	1051.7728	0.158231	-381.942964	-381.934936	-381.933992	-381.974963	32.065	
C	-0.1903353322	 1.5204962453	-0.231738933	-0.375044
C	-0.0196987905	 0.0191744156	-0.0298096742	 0.025472
N	 0.8553877737	-0.4916637877	-1.1343788213	-0.168606
C	 1.6223462304	-1.3339114633	-0.5679919765	 0.126388
N	 3.0050342976	-0.9016430229	-0.3117941471	-0.376234
C	 2.3731957072	-0.7710160907	 1.1267081049	 0.337038
C	 3.319721772	-0.5368710329	 2.2667760448	-0.493673
C	 0.8123081594	-0.4052890624	 1.2062610195	-0.097748
C	 1.3121222916	-1.774969148	 0.90004959	-0.224092
H	 0.7855712498	 2.0031559565	-0.3298910958	 0.131762
H	-0.7661481224	 1.7248793055	-1.1381580461	 0.125835
H	-0.7184223264	 1.9572407331	 0.6236368031	 0.10489
H	-1.009951304	-0.4607791171	 0.0214359105	 0.080713
H	 3.6159264278	-1.7174161292	-0.180349712	 0.216384
H	 3.8085453393	 0.4373531396	 2.1722968422	 0.144605
H	 2.7861538269	-0.5639836588	 3.2211786663	 0.131512
H	 4.0993154539	-1.3071678034	 2.2935995824	 0.123641
H	 0.4818114357	-0.1407088313	 2.2093614472	 0.085564
H	 1.0895958704	-2.745797208	 1.324909925	 0.101592
126.685	190.956	203.7335	240.1836	294.7334	333.7403	417.0629	452.6722	520.6436	584.1423	623.7322	662.2462	695.1706	765.6991	821.2593	844.2098	862.5734	911.615	928.6931	995.0528	1025.3882	1038.6737	1053.3532	1060.9996	1094.2045	1126.8124	1152.266	1179.376	1189.0002	1239.8686	1267.3746	1273.6816	1340.7647	1396.2045	1401.801	1414.4345	1477.9033	1480.9655	1494.3911	1495.8563	1617.2751	2974.1772	3030.9465	3035.5771	3096.2993	3109.0694	3116.8238	3127.8762	3133.05	3185.871	3350.0807
CC1N=C2NC3(C)C1C23	C[C@H]1[N][C]2N[C@@]3(C)[C@@H]1[C@@H]23	
InChI=1S/C7H10N2/c1-3-4-5-6(8-3)9-7(4,5)2/h3-5H,1-2H3,(H,8,9)	InChI=1S/C7H10N2/c1-3-4-5-6(8-3)9-7(4,5)2/h3-5H,1-2H3,(H,8,9)/t3-,4+,5+,7+/m1/s1
