18
gdb 61928	4.41323	0.81468	0.74287	2.8628	72.48	-0.2757	0.0048	0.2806	1495.022	0.145435	-439.056754	-439.047157	-439.046213	-439.093676	33.466	
C	-0.1514231946	 0.5481446184	 1.5720537803	-0.420977
C	 0.176880947	-0.256495527	 0.318964312	 0.087112
O	 1.0997875386	-1.3268137562	 0.5798355197	-0.243482
C	 2.4592119584	-1.0304573277	 0.4178407311	-0.200186
C	 3.0516922142	-0.2592689945	 1.531685554	 0.262481
N	 3.5243078067	 0.342586433	 2.3973317194	-0.307362
C	-1.0219174445	-0.9303334126	-0.3294303333	 0.080884
C	-2.2584817405	-1.2762231591	 0.3802881938	-0.172243
O	-2.195566857	-0.1389147696	-0.4874418999	-0.233903
H	 0.7030155662	 1.1481573605	 1.8903060313	 0.143599
H	-0.9910223925	 1.2170093247	 1.3640531464	 0.141368
H	-0.4209727245	-0.1207326086	 2.3936901447	 0.13081
H	 0.6181895406	 0.4114900091	-0.4381025616	 0.0855
H	 2.9873626795	-1.987405818	 0.3529750737	 0.162039
H	 2.6515598782	-0.4799276987	-0.5158035808	 0.142742
H	-0.7557432907	-1.5267213195	-1.2031165847	 0.097217
H	-2.8634320877	-2.1052022201	 0.0171373494	 0.121543
H	-2.3686916074	-1.0480993441	 1.4374270244	 0.122858
8.9646	68.439	81.9981	190.8218	229.9859	242.9616	276.3054	334.7568	368.3201	386.8382	461.4574	564.7818	621.68	802.5239	846.544	882.769	898.4199	933.2361	985.1085	1023.4416	1066.6474	1093.1268	1123.2615	1144.9466	1154.96	1166.4274	1182.6673	1289.6366	1299.4364	1372.8739	1373.2087	1398.9516	1403.8634	1440.3755	1465.3937	1494.1477	1501.181	1531.1756	2356.2523	2977.0709	2996.3303	3053.6748	3080.8278	3097.2549	3106.1917	3130.1812	3140.5769	3188.4078
CC(OCC#N)C1CO1	C[C@@H](OCC#N)[C@H]1CO1	
InChI=1S/C6H9NO2/c1-5(6-4-9-6)8-3-2-7/h5-6H,3-4H2,1H3	InChI=1S/C6H9NO2/c1-5(6-4-9-6)8-3-2-7/h5-6H,3-4H2,1H3/t5-,6-/m1/s1
