16
gdb 18172	4.67068	1.60143	1.29749	0.8148	79.59	-0.2197	-0.0172	0.2024	940.5943	0.131115	-309.439158	-309.432253	-309.431308	-309.469972	27.457	
C	 0.0826771288	-1.1822408605	-0.0071178457	-0.429465
C	 0.0052455276	 0.0204005859	 0.0092095358	 0.207562
C	-0.0335964445	 1.4357191482	 0.0118958895	 0.222773
C	-1.132277386	 2.2093568417	 0.0850525154	-0.193376
C	-0.8034397729	 3.6821697882	 0.0228572578	-0.262755
C	 0.7247952315	 3.7130213159	 0.0122912473	-0.041551
C	 1.4555180723	 3.1240551276	 1.1906401238	-0.276345
C	 1.211738796	 2.2744593218	-0.0389172415	-0.149019
H	 0.1359756445	-2.2424754954	-0.0166242306	 0.190321
H	-2.142096883	 1.8323716619	 0.1929934884	 0.098869
H	-1.2223593753	 4.1404723978	-0.8838946961	 0.112978
H	-1.2311350852	 4.2362204216	 0.8690415824	 0.113695
H	 1.2249804495	 4.4842903727	-0.5608869607	 0.087509
H	 2.4684495375	 3.4718115523	 1.3644918779	 0.111357
H	 0.8982193553	 2.8823717168	 2.0903501266	 0.114587
H	 2.0505905938	 1.9501632635	-0.6431388002	 0.092862
132.4718	158.6213	280.0375	345.2265	407.3743	506.4432	532.0429	582.1381	633.7939	649.9546	712.4186	782.1083	809.6037	834.7645	850.2558	900.005	958.9458	987.963	1007.8104	1055.0231	1071.934	1097.6248	1103.1676	1168.2375	1184.4242	1205.2558	1261.1924	1316.9914	1355.3606	1375.7342	1470.5007	1482.0901	1653.6599	2221.8189	3009.0431	3035.7435	3123.4743	3178.0128	3185.0417	3209.1994	3213.1383	3504.0373
C#CC1=CCC2CC12	C#CC1=CC[C@H]2C[C@@H]12	
InChI=1S/C8H8/c1-2-6-3-4-7-5-8(6)7/h1,3,7-8H,4-5H2	InChI=1S/C8H8/c1-2-6-3-4-7-5-8(6)7/h1,3,7-8H,4-5H2/t7-,8-/m0/s1
