21
gdb 113311	2.55856	1.00153	0.82603	1.5922	86.66	-0.2468	0.0444	0.2913	1485.5522	0.179903	-387.044166	-387.033699	-387.032755	-387.079785	38.477	
C	 0.2725708259	 1.5398657811	 0.1488414441	-0.375355
C	-0.1936129095	 0.1041280945	-0.1246893359	-0.208403
C	 0.564408684	-0.5238039046	-1.2785249245	-0.024482
C	 1.8673550147	-1.2453775182	-1.0792008912	-0.312196
C	 0.6370736649	-2.032260702	-1.513672351	 0.084773
C	 0.0094811903	-3.0231219796	-0.5360864896	-0.123108
O	 0.6512236138	-4.283352936	-0.5637866281	-0.418936
C	 0.5820088636	-2.4958359049	-2.8758594671	 0.26047
C	 0.515139284	-2.9398964997	-3.993529346	-0.460444
H	 1.3372963549	 1.5660056743	 0.4026609106	 0.121267
H	 0.1255092074	 2.1766096552	-0.7302140689	 0.117476
H	-0.2845811868	 1.9834034151	 0.9795653605	 0.114039
H	-0.0673576746	-0.4936753186	 0.7842371293	 0.101931
H	-1.2681143846	 0.1052361732	-0.3478133523	 0.104484
H	 0.4952120375	 0.0483152538	-2.2006100663	 0.095056
H	 2.6644830642	-1.1077681377	-1.7999699311	 0.123003
H	 2.2016647706	-1.4178676808	-0.0607327496	 0.120709
H	 0.1085031396	-2.6578504132	 0.4887475061	 0.104273
H	-1.0653630501	-3.1175008217	-0.7564072291	 0.093569
H	 0.6467231869	-4.5818013962	-1.4811447578	 0.286478
H	 0.4594996532	-3.3050858041	-4.9890630123	 0.195397
67.9303	84.8147	128.9922	133.1662	151.7038	228.5134	254.5903	306.8541	327.9201	382.9734	412.7268	465.765	544.4821	578.7111	626.7825	658.7475	694.8133	778.5434	811.8995	905.2	931.8141	944.0765	952.0029	1003.1626	1052.0654	1068.4318	1075.5604	1100.4617	1126.5405	1186.7756	1203.3487	1277.6846	1298.7462	1306.3924	1350.294	1374.5143	1409.0804	1423.2073	1437.0045	1481.3946	1486.3485	1498.0134	1505.2454	1508.9143	2222.7582	2981.3204	3026.6458	3033.8372	3065.3017	3098.464	3104.5024	3108.1965	3132.8705	3138.4063	3224.516	3500.9147	3784.5149
CCC1CC1(CO)C#C	CC[C@H]1C[C@]1(CO)C#C	
InChI=1S/C8H12O/c1-3-7-5-8(7,4-2)6-9/h2,7,9H,3,5-6H2,1H3	InChI=1S/C8H12O/c1-3-7-5-8(7,4-2)6-9/h2,7,9H,3,5-6H2,1H3/t7-,8-/m0/s1
