17
gdb 51372	4.33332	1.08114	0.98615	5.4703	74.47	-0.2269	0.037	0.2639	1198.7898	0.137181	-417.935965	-417.928521	-417.927577	-417.968332	29.053	
O	-0.0366757739	-0.0869440114	 0.1847502129	-0.337846
C	-0.0380981559	 1.1212176604	 0.0504110182	 0.14933
N	 1.061342809	 1.9026569773	-0.0970545171	-0.289219
C	 2.3787801359	 1.3492261172	-0.1080033211	 0.05978
C	 3.5374549997	 1.7227381069	-0.9934988465	-0.118071
C	 3.7977396493	 3.2460074103	-1.1392232464	-0.052559
N	 2.7362356521	 4.009558603	-0.4236250046	-0.360284
C	 3.8781727106	 3.4086111778	 0.3225267857	-0.05256
C	 3.6220241353	 1.8936742435	 0.5431929296	-0.11807
H	-0.9685102042	 1.7227484198	 0.0346885567	 0.069741
H	 0.9953278447	 2.9036852028	-0.2048043152	 0.268022
H	 2.3030026507	 0.2724629737	 0.0159393736	 0.141405
H	 4.0442189099	 0.9954854875	-1.6159063521	 0.098756
H	 4.3715460601	 3.7062892858	-1.9323180948	 0.10344
H	 2.9483541135	 4.9993026809	-0.5454082319	 0.23594
H	 4.528958187	 4.0245377353	 0.9285179214	 0.10344
H	 4.2020126663	 1.3144172092	 1.2511276418	 0.098757
58.0033	179.9952	210.4572	255.1847	302.8937	420.9248	572.8719	661.7198	674.431	680.203	709.1456	740.0449	780.6779	846.9272	853.9817	893.4983	914.4668	961.9247	988.8215	997.9843	1014.177	1030.3248	1045.1034	1086.8656	1124.9468	1145.8733	1163.0629	1231.2497	1252.0776	1272.7385	1317.2082	1341.7936	1354.0733	1409.4963	1430.3366	1527.815	1793.9402	2934.9806	3166.4549	3180.9011	3190.5611	3199.5843	3212.4538	3474.7228	3610.6013
O=CNC1C2C3NC3C12	O=CN[C@H]1[C@H]2[C@H]3N[C@H]3[C@@H]12	
InChI=1S/C6H8N2O/c9-1-7-4-2-3(4)6-5(2)8-6/h1-6,8H,(H,7,9)	InChI=1S/C6H8N2O/c9-1-7-4-2-3(4)6-5(2)8-6/h1-6,8H,(H,7,9)/t2-,3+,4-,5+,6-
