17
gdb 53220	4.4984	0.7793	0.72226	3.6942	84.81	-0.237	-0.0469	0.1902	1579.5941	0.135013	-384.703539	-384.69446	-384.693516	-384.739938	31.805	
C	 0.0248710447	 1.5398657885	-0.1008708906	-0.496935
C	 0.004213096	 0.0849254071	-0.0497643577	 0.041828
C	-0.0058273773	-1.1185227009	-0.0084682875	 0.087017
C	-0.0349874618	-2.5776572245	 0.0516052965	-0.215751
C	 0.6942546572	-3.1983804099	 1.2739355006	-0.341731
C	-0.3139376238	-4.1733692866	 1.9027803827	 0.378984
O	-0.0899611555	-4.930157496	 2.8173859065	-0.326235
C	-1.5943788982	-3.9993484481	 1.1755537904	-0.185917
C	-1.4507470369	-3.127704432	 0.1743801505	-0.038999
H	 0.8046437888	 1.9483883218	 0.5512330872	 0.151357
H	 0.2202524766	 1.9001091653	-1.1168337347	 0.149664
H	-0.9323512306	 1.9628382636	 0.223127295	 0.150324
H	 0.4034569352	-2.9688970485	-0.8781336336	 0.120702
H	 1.615785935	-3.7213793171	 1.0082927249	 0.13412
H	 0.9534937476	-2.4334962721	 2.0106623726	 0.145977
H	-2.4934936102	-4.5365569461	 1.4488219074	 0.119704
H	-2.2255357968	-2.8113991046	-0.5148569902	 0.12589
13.6341	45.201	93.2347	144.0621	246.4978	290.7756	339.2507	423.9792	460.9306	513.2254	538.7569	657.295	720.9096	780.5319	818.1493	829.4171	920.5175	967.4776	1002.6656	1037.374	1053.0403	1053.6959	1105.5541	1163.8757	1168.9504	1195.2757	1236.3879	1277.1908	1319.6452	1359.2447	1415.0865	1451.6439	1477.9613	1478.3088	1651.9101	1818.2267	2370.9846	2993.9432	3027.7648	3075.0216	3089.1377	3089.2471	3121.2003	3198.1803	3228.4591
CC#CC1CC(=O)C=C1	CC#C[C@H]1CC(=O)C=C1	
InChI=1S/C8H8O/c1-2-3-7-4-5-8(9)6-7/h4-5,7H,6H2,1H3	InChI=1S/C8H8O/c1-2-3-7-4-5-8(9)6-7/h4-5,7H,6H2,1H3/t7-/m1/s1
