18
gdb 64983	2.90281	1.03035	0.86343	4.1515	74.23	-0.2432	-0.0352	0.208	1362.5048	0.144719	-439.08586	-439.076239	-439.075295	-439.121637	34.005	
C	-0.1752337696	 1.4934056346	-0.7310923977	-0.465245
C	-0.0838793459	 0.191934952	 0.0350038637	 0.198858
C	 1.0439591351	-0.7503548969	-0.2677900527	-0.266914
N	 1.0202465793	-0.0248425371	 0.998363019	-0.334079
C	-1.4110228278	-0.3933127082	 0.4453601668	 0.348013
O	-2.4459679096	 0.0452329963	-0.0101751822	-0.320983
C	-1.4313626926	-1.5433007035	 1.4459425214	-0.399072
C	-2.473436255	-1.3015881385	 2.5327168951	 0.163128
O	-2.3293382963	-1.6350131711	 3.6779918543	-0.236351
H	 0.817073479	 1.8196299892	-1.0571297614	 0.109226
H	-0.8130641634	 1.3788110219	-1.6104773939	 0.148041
H	-0.6155450141	 2.2799785943	-0.1106542634	 0.136737
H	 0.9050920695	-1.8249762306	-0.1867625393	 0.129085
H	 1.7316246188	-0.4398160215	-1.0499830052	 0.126827
H	 1.6509362443	 0.7724867323	 0.9685925943	 0.241788
H	-1.7657485243	-2.4351721654	 0.8966420133	 0.153496
H	-0.4627223671	-1.7436777052	 1.9019144255	 0.158743
H	-3.3924933602	-0.7957048724	 2.1722506824	 0.108704
33.8371	60.0585	102.4197	171.5628	197.0328	262.1207	286.2415	324.4523	369.2471	428.6419	487.0711	536.7934	613.4848	740.0468	795.7794	823.7085	864.462	940.9489	967.4083	996.2971	1012.1097	1047.6448	1061.1417	1094.4733	1126.2551	1145.0919	1193.213	1258.2294	1296.7168	1344.751	1381.6783	1407.4866	1417.9592	1430.5099	1477.8113	1498.2401	1512.2178	1778.1365	1839.6529	2931.2538	3024.4832	3043.0664	3109.2203	3111.7067	3128.7377	3151.7784	3195.5388	3503.6623
CC1(CN1)C(=O)CC=O	C[C@]1(CN1)C(=O)CC=O	
InChI=1S/C6H9NO2/c1-6(4-7-6)5(9)2-3-8/h3,7H,2,4H2,1H3	InChI=1S/C6H9NO2/c1-6(4-7-6)5(9)2-3-8/h3,7H,2,4H2,1H3/t6-/m0/s1
