20
gdb 104917	2.03996	1.54669	1.04769	5.7236	81.04	-0.2293	0.0373	0.2665	1221.5507	0.169485	-399.310424	-399.300148	-399.299203	-399.34515	38.071	
C	 0.3354476516	 1.3709344626	 0.2828297574	-0.330239
N	-0.2166087336	 0.1317931303	-0.254292253	-0.344891
C	 0.5618058415	-0.4759788603	-1.2982451982	 0.151369
C	 1.950857965	-1.0852529811	-1.0407609991	-0.343178
C	 0.7828275342	-1.9884247646	-1.3373769724	 0.226055
C	 0.2028559335	-2.8537259958	-0.2298243808	-0.466675
N	 0.7865477468	-2.5482181709	-2.6664171796	-0.533836
C	 0.3810173775	 0.1977910068	-2.5698582035	 0.313568
N	 0.2215010305	 0.792262895	-3.5488473808	-0.365622
H	 1.353143797	 1.2682806849	 0.6951373454	 0.100285
H	 0.3694792314	 2.1251385749	-0.5094248341	 0.148998
H	-0.3247879895	 1.7426328576	 1.0707305211	 0.122875
H	-0.4236433534	-0.5298727201	 0.4799411051	 0.22653
H	 2.7049178828	-0.9747748006	-1.8102376316	 0.138715
H	 2.3055811669	-1.0239070022	-0.0174941116	 0.117574
H	 0.3258318789	-2.4214394093	 0.7677624987	 0.11612
H	-0.8632776316	-3.0466287122	-0.3948132428	 0.129357
H	 0.7194199531	-3.8200453006	-0.2213514693	 0.124324
H	 1.3222099367	-3.4111924151	-2.68326298	 0.23097
H	-0.1568268094	-2.7683569291	-2.9726190507	 0.237702
76.7203	117.6249	152.1078	174.3248	194.3028	230.5353	245.2761	304.1692	342.0795	386.7423	400.4325	410.2689	488.9694	572.9801	597.4014	618.5357	686.5343	775.2533	829.5222	903.5627	921.1513	928.7478	982.8266	1045.3256	1054.6285	1069.5379	1107.8479	1157.267	1183.1519	1241.6631	1279.4073	1317.2241	1361.6388	1411.6834	1460.0933	1464.3753	1473.7354	1490.4788	1493.9533	1504.9455	1521.2397	1656.8529	2353.316	2967.4563	3026.341	3075.267	3091.2443	3101.39	3118.7993	3139.8288	3239.2606	3488.0128	3568.3627	3590.9617
CNC1(CC1(C)N)C#N	CN[C@]1(C[C@]1(C)N)C#N	
InChI=1S/C6H11N3/c1-5(8)3-6(5,4-7)9-2/h9H,3,8H2,1-2H3	InChI=1S/C6H11N3/c1-5(8)3-6(5,4-7)9-2/h9H,3,8H2,1-2H3/t5-,6+/m0/s1
