20
gdb 80867	2.24938	1.7087	1.40349	2.4365	74.1	-0.2181	0.0608	0.2788	1037.4458	0.171528	-440.246848	-440.238298	-440.237354	-440.279337	33.94	
C	-0.1317272835	 1.5239265684	 0.009447621	-0.42913
C	 0.0195802003	 0.014488478	 0.0223397249	 0.005495
N	 1.0808412936	-0.5460192406	-0.9179270319	-0.139844
C	 2.0780440462	-0.3083239694	 0.2065275921	-0.244496
C	 0.9014966515	-0.6326372704	 1.1458348552	 0.410651
O	 0.8848806165	-0.2570588989	 2.4813259271	-0.499556
C	 0.6995868573	-2.1223642248	 0.8355453672	 0.038338
O	-0.5748243492	-2.5051771096	 1.3384231666	-0.449211
C	 0.8340728392	-2.0097165243	-0.7173952261	-0.209774
H	 0.8047060818	 2.0578232077	 0.1852554714	 0.121556
H	-0.5326959805	 1.8539572483	-0.9536191079	 0.122995
H	-0.8339138079	 1.8252132787	 0.7935503058	 0.121691
H	-0.9575786503	-0.4523214956	-0.1326147155	 0.079887
H	 2.9472219932	-0.9732983708	 0.2010210225	 0.097021
H	 2.4074489209	 0.728913848	 0.2290172116	 0.118076
H	 0.1937689341	-0.7809480314	 2.9068250911	 0.286506
H	 1.4862114363	-2.7359375534	 1.2949128753	 0.069914
H	-0.6564551524	-3.4613814146	 1.2818244454	 0.289864
H	-0.087111266	-2.3103561982	-1.2240459202	 0.10808
H	 1.6696869889	-2.5865258773	-1.1229096055	 0.101939
145.081	157.6777	207.0401	224.7367	265.7852	309.595	387.2136	404.0957	438.1773	484.8145	513.9193	587.201	642.0752	683.7594	789.5716	821.3428	858.8486	876.7029	926.3074	971.0876	1009.8289	1035.0764	1055.2981	1078.3826	1110.6488	1127.8706	1150.7107	1176.9766	1215.0021	1233.2051	1241.947	1249.8072	1280.8871	1306.0854	1337.1897	1385.6402	1407.762	1422.768	1431.0154	1485.4105	1491.4772	1496.7252	1530.0723	3008.6516	3044.1304	3055.1528	3060.4902	3067.9297	3108.4581	3110.6193	3124.3153	3150.0463	3771.5848	3836.0433
CC1N2CC1(O)C(O)C2	C[C@H]1N2C[C@]1(O)[C@@H](O)C2	
InChI=1S/C6H11NO2/c1-4-6(9)3-7(4)2-5(6)8/h4-5,8-9H,2-3H2,1H3	InChI=1S/C6H11NO2/c1-4-6(9)3-7(4)2-5(6)8/h4-5,8-9H,2-3H2,1H3/t4-,5+,6-/m1/s1
