21
gdb 84655	2.75511	1.54253	1.21478	1.4978	83.32	-0.2388	0.0092	0.248	1106.8839	0.183878	-387.08916	-387.080841	-387.079897	-387.121529	33.666	
C	 0.0083903706	 1.5957172117	 0.0165751071	-0.404703
C	 0.0200978358	 0.0638466435	 0.0122920851	-0.033421
C	 0.6908662921	-0.5070025135	-1.2277876906	-0.077787
C	 1.1072397238	-1.7754915471	-1.287053967	-0.096301
C	 0.8873528859	-2.7064351612	-0.1493639677	-0.063221
C	 1.9135174416	-2.8678731276	 0.9550134694	-0.293598
C	 0.6639626987	-2.0647136397	 1.2000889157	-0.047406
C	 0.7287970432	-0.527570375	 1.2558941703	 0.091527
O	 2.0499112481	-0.011449473	 1.3707293049	-0.432466
H	 1.0261842259	 1.9940982013	 0.0446827611	 0.123116
H	-0.4909509669	 1.9854909537	-0.8765007462	 0.108485
H	-0.5215092805	 1.9803939922	 0.8939515111	 0.111633
H	-1.0218425132	-0.2884377839	 0.037872526	 0.085396
H	 0.8397656776	 0.1600306041	-2.0740029951	 0.086235
H	 1.5933254471	-2.1590402514	-2.1815949524	 0.08904
H	 0.3109431071	-3.5973782076	-0.388092885	 0.090412
H	 1.9983794104	-3.8408700677	 1.426730775	 0.110083
H	 2.8472246658	-2.3222891432	 0.8826819835	 0.113858
H	-0.0899397918	-2.5074446301	 1.8431656179	 0.081947
H	 0.2222454656	-0.1878403035	 2.1653611083	 0.080997
H	 2.4682137232	-0.1123784119	 0.5065864885	 0.276174
100.3535	169.9691	215.6833	277.5661	300.9567	316.1005	410.485	425.7613	455.9237	497.4352	614.7136	628.7558	716.6327	762.6833	800.8937	813.1092	856.2531	892.3582	928.1185	976.234	991.1632	999.1241	1027.4902	1039.2711	1055.5666	1088.641	1107.8309	1128.5603	1132.676	1151.7256	1203.2087	1215.7779	1245.6164	1298.4991	1320.9644	1342.6097	1364.0588	1400.7059	1405.7263	1418.8784	1434.9435	1489.6811	1493.6611	1500.8819	1690.4796	2991.1579	3036.5301	3052.9999	3101.4788	3118.2021	3124.8194	3134.9522	3138.6641	3154.4491	3161.8413	3222.7514	3767.7306
CC1C=CC2CC2C1O	C[C@H]1C=C[C@H]2C[C@H]2[C@H]1O	
InChI=1S/C8H12O/c1-5-2-3-6-4-7(6)8(5)9/h2-3,5-9H,4H2,1H3	InChI=1S/C8H12O/c1-5-2-3-6-4-7(6)8(5)9/h2-3,5-9H,4H2,1H3/t5-,6-,7+,8-/m0/s1
