13
gdb 25147	3.73201	1.20672	0.91187	4.5168	78.81	-0.2414	-0.0798	0.1616	1170.2114	0.089074	-419.453073	-419.445728	-419.444784	-419.485043	27.773	
O	-0.066738318	-0.0566213427	 0.0044690909	-0.338562
C	 0.0105071446	 1.1409615678	 0.0089900297	 0.444055
O	-1.2007968199	 1.8706479137	 0.0295605486	-0.217133
C	-1.2222278381	 3.2099210329	 0.0361578046	 0.098955
C	-0.1145267098	 3.9748955526	 0.024082963	-0.264348
C	 1.1663431233	 3.3148172588	 0.0028762653	 0.169414
C	 1.2099243497	 1.9495933997	-0.004151258	-0.361364
C	 2.3561812527	 4.0947891158	-0.0102589377	 0.226518
C	 3.3494050504	 4.7747109066	-0.0211800225	-0.377284
H	-2.2339884366	 3.5985763787	 0.0522939051	 0.14853
H	-0.187172902	 5.0527195105	 0.0301745642	 0.126068
H	 2.1463382103	 1.408532416	-0.0199239866	 0.135291
H	 4.2323590934	 5.3655692896	-0.0312050368	 0.20986
130.1505	145.1264	149.8159	337.5084	423.9458	441.3863	444.0714	548.8236	588.7605	639.5358	650.4762	695.6712	719.2711	739.806	806.4549	819.6342	894.003	949.2167	986.1389	1086.3496	1133.301	1201.84	1291.0722	1329.0217	1460.8801	1563.0264	1669.724	1842.9842	2229.5323	3206.6889	3230.6109	3244.9927	3499.0302
O=C1OC=CC(=C1)C#C	O=c1occc(c1)C#C	
InChI=1S/C7H4O2/c1-2-6-3-4-9-7(8)5-6/h1,3-5H	InChI=1S/C7H4O2/c1-2-6-3-4-9-7(8)5-6/h1,3-5H
