15
gdb 28243	4.94669	1.23662	1.00272	2.838	68.72	-0.2031	0.0244	0.2275	1115.8469	0.115117	-453.958716	-453.951357	-453.950413	-453.990644	27.484	
N	 0.0737601548	 1.3025171787	-0.1705247338	-0.589426
C	-0.0526130796	-0.0572207866	-0.0558480042	 0.41706
N	-1.1487483534	-0.7598682655	-0.018726406	-0.415805
C	-0.6614452421	-2.0624546751	 0.0059143018	 0.212769
C	 0.6723760285	-2.0655099503	-0.0081891393	 0.236256
C	 1.2587166803	-3.4274318865	 0.0426397887	-0.171857
O	 0.0703656711	-4.243065835	 0.0782516388	-0.287229
C	-1.1536770472	-3.4684246842	 0.063084117	-0.176308
O	 1.1197898446	-0.7678934969	-0.0492502917	-0.229434
H	 0.9083905952	 1.6890216269	 0.2456661207	 0.26697
H	-0.7701829631	 1.7969446337	 0.078383345	 0.274139
H	 1.8601257986	-3.6963434058	-0.838349923	 0.115532
H	 1.8677974778	-3.6260140747	 0.9373002469	 0.113591
H	-1.7353876233	-3.6979397677	 0.9665865523	 0.116192
H	-1.7536308522	-3.764848271	-0.8082059632	 0.11755
120.6174	125.8069	246.5149	272.553	300.5411	324.2934	514.081	535.7466	598.8198	650.427	728.6385	744.6508	781.3034	871.1783	886.9773	950.6572	1023.5123	1040.301	1072.3681	1115.436	1131.2158	1144.3347	1204.5915	1304.7305	1312.7207	1362.6597	1424.7116	1440.4625	1522.5657	1533.1807	1595.6938	1671.3483	1706.6226	2981.7202	3001.222	3001.6953	3026.22	3575.4841	3684.7007
NC1=NC2=C(COC2)O1	Nc1nc2c(COC2)o1	
InChI=1S/C5H6N2O2/c6-5-7-3-1-8-2-4(3)9-5/h1-2H2,(H2,6,7)	InChI=1S/C5H6N2O2/c6-5-7-3-1-8-2-4(3)9-5/h1-2H2,(H2,6,7)
