21
gdb 86622	2.34927	1.43351	1.29442	1.5154	77.94	-0.2456	0.078	0.3237	1132.551	0.181501	-424.192853	-424.183683	-424.182739	-424.226647	34.411	
C	 0.6826985596	 1.2359707827	-0.5252294177	-0.409494
C	 0.136143288	-0.060097851	 0.0416043583	 0.147473
O	 0.6303198468	-1.2197232449	-0.6854324298	-0.308713
C	 1.2984362122	-1.7440330821	 0.4742685241	 0.0924
C	 2.7958981528	-1.8294341224	 0.2994429022	 0.055067
C	 3.4061310837	-1.8344682802	-1.0358798647	-0.174494
O	 3.4734818575	-0.6744188163	-0.1987706699	-0.230845
C	 0.7132374338	-0.6179465461	 1.3754786666	-0.066777
C	 1.6384074076	 0.2345579438	 2.2335292409	-0.424809
H	 1.7738154776	 1.2115146638	-0.5604365376	 0.146491
H	 0.3078741507	 1.377873665	-1.5440914512	 0.119456
H	 0.3555537646	 2.0911706893	 0.0765317403	 0.109205
H	-0.9612877963	-0.0469235685	 0.0189437578	 0.072551
H	 0.9368255376	-2.7528224148	 0.7235810986	 0.073457
H	 3.3187598412	-2.3386071121	 1.1115468168	 0.092251
H	 4.3529195727	-2.3473714385	-1.1958549909	 0.112542
H	 2.7554206096	-1.7342241243	-1.9003296627	 0.135709
H	-0.0921127796	-1.0148396857	 1.9998436403	 0.079664
H	 2.4768636858	 0.6384028765	 1.6638651252	 0.151221
H	 1.0877237703	 1.0713712034	 2.6765232685	 0.114608
H	 2.048325754	-0.3559221975	 3.060452075	 0.113036
86.4275	108.2798	172.1087	206.1905	220.9972	234.2902	268.4009	318.0646	392.1466	486.9932	500.2171	613.4827	741.5536	775.6508	790.393	874.5302	891.7416	900.4423	964.9608	984.2552	1007.1042	1042.6182	1064.1919	1081.0327	1103.7869	1122.9978	1165.3297	1168.6428	1171.3118	1186.235	1248.8819	1278.9222	1287.6361	1321.2526	1365.2634	1377.5863	1389.5775	1410.2421	1419.9583	1425.1006	1479.8986	1495.3521	1501.4325	1512.7171	1515.0432	2989.7156	3012.2747	3034.9644	3037.9928	3063.8917	3089.7012	3092.4547	3100.0262	3101.7462	3134.3714	3141.4664	3198.0859
CC1OC(C2CO2)C1C	C[C@H]1O[C@@H]([C@H]2CO2)[C@H]1C	
InChI=1S/C7H12O2/c1-4-5(2)9-7(4)6-3-8-6/h4-7H,3H2,1-2H3	InChI=1S/C7H12O2/c1-4-5(2)9-7(4)6-3-8-6/h4-7H,3H2,1-2H3/t4-,5+,6+,7+/m0/s1
