21
gdb 91378	2.40762	1.5144	1.31984	0.6855	76.87	-0.2415	0.0524	0.2939	1090.133	0.183208	-424.222419	-424.213822	-424.212878	-424.255896	33.45	
C	 0.3722776469	 1.330526646	 0.4633600714	-0.396447
C	-0.0734533417	-0.0295067796	-0.0768659272	 0.132831
C	 0.7652003327	-0.5509290694	-1.2740168827	-0.28144
C	 1.5671818882	-1.7427805644	-0.7340614979	-0.070687
C	 3.0032220002	-1.4621630385	-0.1689305215	 0.128899
O	 3.6945367804	-0.3093001793	-0.5860300816	-0.425241
C	 2.4458459568	-1.5232946478	 1.2818917699	-0.300628
C	 1.0498768393	-1.9334402726	 0.7190331965	 0.111599
O	-0.0168196917	-1.0350848499	 0.9422991154	-0.271305
H	 1.437615143	 1.3428449735	 0.7201223973	 0.098853
H	 0.1950395928	 2.1139397017	-0.2813551078	 0.116103
H	-0.1876464698	 1.581249087	 1.3685015299	 0.1295
H	-1.1294639971	 0.054229449	-0.3616643696	 0.082277
H	 0.1094788439	-0.8742621696	-2.0855155292	 0.109421
H	 1.4201783335	 0.2251518044	-1.6820774639	 0.107142
H	 1.5121956843	-2.6069039383	-1.3976752607	 0.070974
H	 3.6784351125	-2.2927205913	-0.3898495732	 0.09162
H	 3.2212668578	 0.4652465685	-0.2658851017	 0.281772
H	 2.9303419121	-2.2444774634	 1.9447992748	 0.103781
H	 2.4224784439	-0.5547092091	 1.7887888736	 0.104545
H	 0.7160318019	-2.9317164967	 1.012534328	 0.076432
50.9108	97.8011	213.7114	239.9973	268.8913	341.8816	375.4116	400.2973	426.5659	525.1133	608.9254	697.8715	708.2149	774.4423	799.3643	854.1154	897.9012	912.298	929.0281	938.7347	1024.4588	1024.9316	1062.6695	1075.8157	1089.2839	1116.5743	1135.8751	1158.0622	1184.8082	1220.7451	1235.546	1255.0672	1272.951	1291.5642	1318.7093	1327.5049	1343.6727	1373.2965	1394.3412	1402.8102	1436.7061	1465.638	1484.328	1495.6338	1501.886	3021.7925	3031.7278	3058.6114	3060.0695	3071.4708	3074.6043	3091.7038	3097.7739	3105.3096	3116.6476	3118.7462	3816.0934
CC1CC2C(O)CC2O1	C[C@H]1C[C@H]2[C@@H](O)C[C@H]2O1	
InChI=1S/C7H12O2/c1-4-2-5-6(8)3-7(5)9-4/h4-8H,2-3H2,1H3	InChI=1S/C7H12O2/c1-4-2-5-6(8)3-7(5)9-4/h4-8H,2-3H2,1H3/t4-,5-,6-,7+/m0/s1
