17
gdb 130071	4.65396	0.84162	0.75665	1.4536	72.5	-0.212	0.0073	0.2194	1478.3147	0.137505	-451.320265	-451.311254	-451.31031	-451.355143	31.92	
N	-0.1125871208	 1.3072867027	-0.2425845305	-0.592837
C	 0.0143079315	-0.0678849131	-0.0808123918	 0.32812
N	-1.0405706102	-0.8840301709	-0.101061034	-0.317081
N	-0.4960040627	-2.1037830675	 0.0214298701	 0.135841
C	-1.2996048366	-3.3059056597	-0.039741249	-0.130809
C	-1.7036412655	-3.6514667168	-1.4735353838	-0.077428
O	-2.4895111435	-4.8272968161	-1.3916336593	-0.4159
N	 0.8225964693	-2.1323834276	 0.1151410593	-0.218914
C	 1.1797562039	-0.8480635351	 0.0552317613	-0.123188
H	 0.5526955788	 1.8416290758	 0.2986561412	 0.250718
H	-1.0562573523	 1.6258191645	-0.0663171683	 0.255202
H	-0.7051397182	-4.1137182286	 0.3886346663	 0.145719
H	-2.1956074603	-3.1589824243	 0.5679690393	 0.138274
H	-2.2634237626	-2.8081730624	-1.9025213759	 0.111236
H	-0.7968284183	-3.801914512	-2.0784122569	 0.10379
H	-2.7748186282	-5.0628487097	-2.2787240562	 0.29311
H	 2.2137771755	-0.5492477392	 0.1169172484	 0.114148
41.7721	85.215	89.3197	218.5892	246.3719	278.7359	300.1493	337.9005	396.6473	452.8822	660.6649	667.3278	704.8764	759.2854	806.9675	816.7204	832.2037	1011.3148	1014.9604	1041.2883	1085.0931	1091.0439	1136.3857	1197.2831	1235.3761	1245.5574	1298.2637	1359.9192	1371.5499	1386.1499	1431.2542	1459.8542	1478.5668	1494.2757	1530.6475	1586.7541	1650.9351	2988.0502	3027.8481	3083.3226	3148.609	3267.7631	3552.2016	3648.1698	3839.6975
NC1=NN(CCO)N=C1	Nc1nn(CCO)nc1	
InChI=1S/C4H8N4O/c5-4-3-6-8(7-4)1-2-9/h3,9H,1-2H2,(H2,5,7)	InChI=1S/C4H8N4O/c5-4-3-6-8(7-4)1-2-9/h3,9H,1-2H2,(H2,5,7)
