20
gdb 55948	3.66233	1.00286	0.92732	1.1509	81.57	-0.2376	0.0295	0.267	1353.4397	0.170948	-403.176313	-403.167252	-403.166308	-403.211185	33.244	
C	 0.0458777953	 1.4210676159	-0.0879399855	-0.459449
C	-0.0810413143	-0.0724576947	 0.0830757925	 0.392115
N	-0.3554276375	-0.7251924572	 1.1390471069	-0.523419
O	 0.1490583182	-0.689011569	-1.0930713901	-0.255306
C	 0.0999746637	-2.131859473	-1.1119162477	 0.137996
C	-1.3631105744	-2.6308388611	-1.215284315	-0.258225
C	-1.5260196798	-2.9526106012	-2.6804316759	-0.060705
C	-0.3664248742	-2.9219231921	-3.3339056938	-0.059177
C	 0.7862616986	-2.5731078798	-2.4240595105	-0.278864
H	 1.0487146752	 1.6754833847	-0.4443311464	 0.144767
H	-0.6631930101	 1.774248083	-0.8428300915	 0.145845
H	-0.1433816987	 1.9413877904	 0.8523089338	 0.124254
H	-0.479442331	-0.0915735741	 1.925145305	 0.21687
H	 0.5965415474	-2.4945148999	-0.2118777264	 0.102912
H	-1.5181764554	-3.5184644711	-0.5880045993	 0.110905
H	-2.061729319	-1.8734591716	-0.8484473008	 0.118003
H	-2.4863773925	-3.1990487516	-3.1197354781	 0.089851
H	-0.2310857414	-3.1413017217	-4.3870137504	 0.089676
H	 1.4216213569	-1.7687243179	-2.8094842135	 0.11502
H	 1.439754353	-3.4394624982	-2.255797723	 0.106929
57.3466	67.6309	97.1102	113.5633	208.6485	321.6324	359.4075	416.4306	454.152	577.8845	601.6032	694.6408	749.7395	790.8463	847.1696	851.2822	889.476	905.4664	950.2965	976.3589	977.095	985.2742	1029.0698	1063.6351	1067.3102	1071.9752	1112.2705	1130.2165	1171.3913	1218.4714	1250.4952	1307.2307	1326.7365	1361.3964	1381.0362	1394.8244	1426.2475	1468.2953	1470.7689	1476.9476	1481.9065	1688.37	1719.6532	3020.6089	3026.8341	3048.2856	3071.1035	3085.4709	3111.8576	3113.5777	3142.4565	3182.7313	3208.3717	3514.8152
CC(=N)OC1CC=CC1	C[C]([NH])O[C@H]1CC=CC1	
InChI=1S/C7H11NO/c1-6(8)9-7-4-2-3-5-7/h2-3,7-8H,4-5H2,1H3	InChI=1S/C7H11NO/c1-6(8)9-7-4-2-3-5-7/h2-3,7-8H,4-5H2,1H3
