20
gdb 119957	2.53243	0.99067	0.90012	2.3289	77.95	-0.2307	-0.0354	0.1953	1396.5687	0.168524	-440.249962	-440.239791	-440.238847	-440.285436	36.011	
C	-1.8348966748	 0.6930661941	-0.588726173	-0.330958
N	-0.7961003461	-0.3293261447	-0.4807077955	-0.098832
C	 0.3711498301	-0.3259987662	-1.3281964843	-0.010397
C	 0.6612113008	 0.6944115303	-2.4073232029	-0.216534
C	-0.0515869455	 0.3573839031	-3.7160124002	-0.071304
O	 0.3887331301	 1.2901414435	-4.6888498239	-0.418611
C	 0.4948425725	-0.0239974992	 0.1593870391	-0.133801
C	 0.8900444159	 1.3278004301	 0.6318732243	 0.15189
O	 0.5234768948	 2.391302532	 0.1822234125	-0.275255
H	-1.4737959589	 1.7075947744	-0.7777542708	 0.1514
H	-2.5184081481	 0.3905187205	-1.3881339442	 0.123263
H	-2.3992515144	 0.7008378819	 0.3486445004	 0.125959
H	 0.6922328725	-1.3354338839	-1.5926602391	 0.099603
H	 0.394693556	 1.7032499898	-2.0897990229	 0.146784
H	 1.7402475761	 0.6979777275	-2.6035610926	 0.113587
H	 0.1877172192	-0.6766245584	-4.015759806	 0.084282
H	-1.1427087433	 0.4094974616	-3.5755570192	 0.092597
H	-0.0718512965	 1.1071346593	-5.5128269956	 0.287156
H	 0.8614103536	-0.8201975516	 0.8055051844	 0.096822
H	 1.591934286	 1.2954664561	 1.4955499695	 0.08235
80.3056	92.3404	107.5874	153.8588	181.3778	216.2148	240.8001	263.0403	271.4737	364.6661	401.9352	436.0269	548.8443	707.7607	750.8221	812.1261	833.1595	871.528	973.1316	1018.2538	1027.1379	1064.2319	1076.8545	1092.5148	1135.1344	1157.8555	1167.9919	1188.8506	1233.4017	1245.1308	1308.2535	1324.3081	1348.7072	1385.7262	1425.5279	1433.2636	1453.7163	1462.1557	1483.574	1492.2461	1520.4073	1529.0184	1792.6532	2877.0891	2960.1713	2991.9214	3036.2901	3046.3943	3081.4804	3105.1829	3114.8034	3118.7239	3135.8018	3831.5353
CN1C(CCO)C1C=O	CN1[C@@H](CCO)[C@H]1C=O	
InChI=1S/C6H11NO2/c1-7-5(2-3-8)6(7)4-9/h4-6,8H,2-3H2,1H3	InChI=1S/C6H11NO2/c1-7-5(2-3-8)6(7)4-9/h4-6,8H,2-3H2,1H3/t5-,6+,7?/m0/s1
