19
gdb 72148	2.53409	1.98645	1.77606	1.0108	73.06	-0.2336	0.0705	0.3041	887.5739	0.162191	-423.025496	-423.018819	-423.017875	-423.055935	28.893	
O	-0.0772972606	 1.3627652228	 0.0652931367	-0.505874
C	 0.0429953258	-0.0267374563	 0.0538091955	 0.416147
C	 0.9261772169	-0.7561943052	 1.0644293917	-0.307028
C	 0.5649829959	-2.1365039022	 0.4966968647	 0.089958
C	-0.9737015454	-2.1520530934	 0.6306238638	-0.230417
C	-1.3375917435	-0.7859588199	-0.0068311174	-0.068467
C	-1.1814970319	-0.8660955534	-1.5472829779	-0.244404
C	 0.3402209098	-0.7545409615	-1.312839836	 0.044775
O	 0.8973686017	-2.0085367774	-0.9004451088	-0.285588
H	 0.7954520999	 1.7434641745	-0.0834733475	 0.279625
H	 1.9912213116	-0.5267619477	 0.9607547309	 0.093577
H	 0.6095561742	-0.60814647	 2.1001134128	 0.103649
H	 1.0927200486	-3.0043700607	 0.8917076318	 0.076117
H	-1.4309895079	-2.9973944044	 0.1096259031	 0.102553
H	-1.2640677021	-2.2005384873	 1.6854207464	 0.097658
H	-2.2161498229	-0.2965419027	 0.4138644809	 0.071707
H	-1.5394686879	-1.7634182864	-2.058234534	 0.094557
H	-1.5707401954	 0.0289645116	-2.0400059046	 0.106014
H	 0.9860003833	-0.3055543803	-2.071952722	 0.065442
251.6503	278.1356	316.6878	386.2272	403.6598	450.8034	473.017	566.1553	589.5841	651.7624	769.0753	831.7538	833.6797	875.1206	888.5343	904.3827	930.4693	952.8423	961.3279	982.4581	1033.4602	1051.7791	1064.8755	1096.3375	1134.0617	1143.1021	1169.1311	1186.7836	1214.5798	1238.4396	1249.4031	1277.1003	1289.5629	1303.8811	1322.4958	1344.0864	1363.5501	1381.6371	1468.5707	1475.9526	1495.8739	3047.044	3055.1999	3055.9118	3074.9651	3099.3552	3107.7266	3114.215	3117.5849	3122.2453	3797.2243
OC12CC3CC1CC2O3	O[C@@]12C[C@H]3C[C@@H]1C[C@@H]2O3	
InChI=1S/C7H10O2/c8-7-3-5-1-4(7)2-6(7)9-5/h4-6,8H,1-3H2	InChI=1S/C7H10O2/c8-7-3-5-1-4(7)2-6(7)9-5/h4-6,8H,1-3H2/t4-,5-,6+,7+/m1/s1
