16
gdb 10888	3.04917	1.93824	1.53653	2.3914	65.75	-0.2303	-0.0152	0.2151	875.154	0.129129	-383.730241	-383.722363	-383.721419	-383.762235	29.262	
C	-0.0020814642	 1.5382507736	 0.0348602182	-0.502122
C	 0.0302631869	 0.0387806271	-0.0166456011	 0.350733
C	-0.860417589	-0.8473713989	 0.7755323417	-0.318927
C	 0.6458264927	-0.9580850818	 1.0231074618	-0.237224
C	 1.2349154921	-1.740927318	-0.0996953787	 0.401047
O	 1.9965917643	-2.6649153214	-0.1883926235	-0.331667
C	 0.6303827286	-0.7788833128	-1.1668858241	-0.070674
O	-0.2930368185	-1.2710808928	-2.108837725	-0.434015
H	 0.969466174	 1.9693335128	-0.2294600017	 0.124747
H	-0.7452721237	 1.9332206027	-0.6668750489	 0.137976
H	-0.270352358	 1.8929457943	 1.034909201	 0.123817
H	-1.3972730246	-0.372102047	 1.5907792829	 0.123386
H	-1.3958919629	-1.6609886484	 0.2985695823	 0.137177
H	 1.0729848531	-0.7761937195	 2.0017784335	 0.111097
H	 1.4577051637	-0.2326823771	-1.650119119	 0.087892
H	 0.1381277253	-1.9846645029	-2.5922855294	 0.296757
96.9297	171.11	203.1879	239.268	265.17	291.73	347.757	491.4199	529.2954	583.1565	663.0624	730.0919	768.4389	840.1083	926.6051	944.2766	986.8657	1001.0165	1054.4727	1076.2638	1108.3631	1113.6853	1146.6683	1160.0449	1239.2267	1275.6127	1306.5116	1364.5895	1414.9459	1433.6866	1485.3098	1497.9748	1503.4483	1877.508	2970.5618	3029.4278	3092.2175	3103.7493	3130.4816	3193.6211	3215.9542	3807.0547
CC12CC1C(=O)C2O	C[C@]12C[C@H]1C(=O)[C@H]2O	
InChI=1S/C6H8O2/c1-6-2-3(6)4(7)5(6)8/h3,5,8H,2H2,1H3	InChI=1S/C6H8O2/c1-6-2-3(6)4(7)5(6)8/h3,5,8H,2H2,1H3/t3-,5+,6-/m0/s1
