18
gdb 18347	3.38039	2.11182	1.49282	1.808	73.23	-0.2337	0.0251	0.2588	883.2881	0.155114	-347.805376	-347.79826	-347.797316	-347.836584	27.39	
C	 0.1675394123	 1.4514180777	 0.0102107056	-0.496569
C	-0.0075325057	-0.0346723875	-0.0364093305	 0.328621
C	-0.1066511825	-0.8058424925	-1.1240509755	-0.161192
C	-0.2871281509	-2.2732653784	-0.8136844426	-0.273909
C	-0.1367198622	-2.3225131977	 0.7140232963	 0.12542
O	 1.2261034082	-2.5595234588	 1.1424675877	-0.292305
C	 1.2922078136	-1.2863637035	 1.8157531033	-0.075894
C	-0.0742535947	-0.8603241853	 1.2259859181	-0.16939
H	 1.0871588493	 1.7290507997	 0.541182309	 0.125861
H	 0.213313257	 1.884404047	-0.9925914941	 0.124965
H	-0.6588811256	 1.9308096461	 0.550818688	 0.124101
H	-0.0688258438	-0.4291230688	-2.1415787811	 0.085146
H	-1.2646017929	-2.6473653787	-1.1476488853	 0.099699
H	 0.4744155614	-2.9090151137	-1.2815750169	 0.119402
H	-0.8292779192	-3.0128745814	 1.2078790898	 0.068999
H	 1.3016456113	-1.4034491199	 2.9079970418	 0.09333
H	 2.1673236855	-0.7005459228	 1.5091163789	 0.099917
H	-0.8179651209	-0.5104989415	 1.9474765074	 0.073797
119.8259	173.8512	215.8528	250.8747	317.7621	392.2689	532.7215	582.8913	717.9839	792.4432	809.3419	836.0004	878.8384	902.1652	953.1029	984.7871	1010.664	1028.3381	1037.0031	1041.1628	1064.4182	1087.9206	1163.9127	1171.0854	1181.4664	1227.0102	1257.5864	1285.8939	1317.0314	1336.8618	1360.0043	1368.6985	1413.455	1470.0256	1479.2847	1488.8045	1521.5972	1713.7718	3001.5245	3011.3125	3015.4034	3043.3456	3050.8659	3056.6955	3060.2	3070.5047	3110.9562	3179.6796
CC1=CCC2OCC12	CC1=CC[C@H]2OC[C@@H]12	
InChI=1S/C7H10O/c1-5-2-3-7-6(5)4-8-7/h2,6-7H,3-4H2,1H3	InChI=1S/C7H10O/c1-5-2-3-7-6(5)4-8-7/h2,6-7H,3-4H2,1H3/t6-,7+/m0/s1
