20
gdb 91598	2.12613	2.04006	1.44077	3.7716	77.47	-0.2319	0.0319	0.2638	998.1148	0.174426	-403.207641	-403.200078	-403.199134	-403.239341	30.796	
C	-0.153727958	 1.5553272314	 0.0076710123	-0.415297
C	 0.0481869401	 0.0407552396	 0.0011178581	 0.04008
C	 0.897165153	-0.5110179305	-1.1961887062	-0.231315
C	 1.9742670184	-1.3642051687	-0.4779592204	-0.006149
C	 1.1850368465	-1.9441418421	 0.7136469914	-0.223875
C	 0.8020982815	-0.5486484583	 1.2452388378	-0.144263
C	 2.1686086482	 0.1494891709	 1.2724414861	 0.41744
O	 2.542942477	 1.0731350462	 1.9592300584	-0.396172
N	 2.8767275486	-0.4653132561	 0.2548013541	-0.295421
H	 0.7987220905	 2.0913876306	 0.0586835055	 0.135686
H	-0.6773574512	 1.8779935042	-0.8983716619	 0.110551
H	-0.7516794102	 1.8692233584	 0.8695250378	 0.119518
H	-0.9375032869	-0.4377000745	-0.0188878899	 0.0767
H	 0.2936967592	-1.117409756	-1.87842263	 0.101074
H	 1.3555702217	 0.2913344505	-1.7821159371	 0.098091
H	 2.5218626343	-2.0691250234	-1.1038529163	 0.076763
H	 0.322533274	-2.5417358881	 0.4064981302	 0.100309
H	 1.8150869275	-2.5213342031	 1.3938601734	 0.110705
H	 0.2574790634	-0.4739693068	 2.1845698928	 0.08105
H	 3.6332788224	 0.0311907058	-0.1926289361	 0.244523
129.9274	154.4126	216.5934	311.691	402.7813	422.756	457.2413	488.4447	513.3287	585.1233	676.3899	746.3622	789.6545	833.0004	852.2796	867.0188	916.1757	949.8492	960.9837	968.2502	1003.9223	1022.5335	1048.1065	1084.5114	1130.0938	1145.425	1171.685	1197.2127	1226.7483	1235.1821	1272.3788	1292.206	1304.8192	1341.7454	1351.3375	1375.1822	1403.1992	1416.7382	1486.7367	1494.8396	1496.8748	1505.5117	1835.7352	3030.8477	3034.0836	3050.4363	3064.7496	3094.1922	3099.5856	3111.3025	3114.0678	3122.7045	3140.1651	3616.8963
CC1CC2CC1C(=O)N2	C[C@H]1C[C@@H]2C[C@H]1C(=O)N2	
InChI=1S/C7H11NO/c1-4-2-5-3-6(4)7(9)8-5/h4-6H,2-3H2,1H3,(H,8,9)	InChI=1S/C7H11NO/c1-4-2-5-3-6(4)7(9)8-5/h4-6H,2-3H2,1H3,(H,8,9)/t4-,5+,6+/m0/s1
