20
gdb 79568	2.25209	1.76865	1.31238	3.7013	78.89	-0.2076	0.0708	0.2784	1065.5266	0.169899	-403.069172	-403.06059	-403.059646	-403.101609	34.286	
C	-0.1040989546	 1.4898253297	 0.1007627562	-0.510713
C	 0.0822322313	 0.0073636571	 0.0226306221	 0.293411
N	-0.8400516942	-0.9266153465	 0.738789526	-0.413164
C	 0.6397894185	-0.9734595637	 0.9725683918	-0.103676
C	 1.3076563964	-1.7804942018	-0.1605657621	-0.187364
C	 0.3565170039	-2.2157160005	-1.2544766746	 0.085935
O	-0.8890287068	-2.801572998	-1.1215619548	-0.429903
C	 0.7340891271	-0.7534986053	-1.183979912	 0.217787
C	 1.4418523193	-0.0145793166	-2.2850271417	-0.495863
H	 0.7992448909	 2.0212129874	-0.2144033074	 0.13229
H	-0.9283596546	 1.822908927	-0.5410771308	 0.13306
H	-0.3308654517	 1.798385111	 1.1274247174	 0.117187
H	-1.253914134	-0.4067774326	 1.5122178515	 0.227346
H	 1.0348355008	-0.837630474	 1.9716446249	 0.096865
H	 2.3240126032	-2.1494818253	-0.0805860262	 0.083704
H	 0.9001741405	-2.706017823	-2.0620368774	 0.096784
H	-1.3056710729	-2.3193084501	-0.3843919541	 0.29794
H	 0.7333516885	 0.5120413585	-2.9363917606	 0.122804
H	 2.1511932484	 0.7272991776	-1.8977732413	 0.113129
H	 2.0078445299	-0.7113127009	-2.911506457	 0.122443
137.4013	197.486	204.8591	228.8225	249.5464	286.3115	350.9859	367.4373	474.2121	520.4854	585.6317	601.19	672.1834	684.7157	742.3965	797.8298	839.5266	872.5459	890.6954	919.982	952.4016	970.1283	1015.93	1022.4308	1063.5899	1104.9488	1110.0151	1139.8801	1168.0627	1209.1562	1236.1114	1282.2077	1294.9053	1333.6906	1395.1692	1407.0894	1418.9331	1449.4651	1478.4625	1487.6551	1495.5197	1501.8122	1503.4508	3013.7824	3024.5151	3068.0893	3085.9913	3094.262	3101.9761	3112.3662	3170.2903	3191.1659	3467.1274	3582.0391
CC12NC1C1C(O)C21C	C[C@]12N[C@H]1[C@H]1[C@@H](O)[C@@]21C	
InChI=1S/C7H11NO/c1-6-3(5(6)9)4-7(6,2)8-4/h3-5,8-9H,1-2H3	InChI=1S/C7H11NO/c1-6-3(5(6)9)4-7(6,2)8-4/h3-5,8-9H,1-2H3/t3-,4-,5+,6-,7-/m0/s1
