16
gdb 74786	3.23488	1.4841	1.46704	4.4553	71.24	-0.2375	0.0046	0.2422	956.9689	0.127957	-434.08644	-434.079569	-434.078625	-434.117446	27.998	
N	 0.0150088221	 1.3224029562	 0.1115926272	-0.6126
C	-0.0225203162	-0.038712547	 0.0473591453	 0.41874
N	-1.0829034762	-0.7663785345	 0.0289152869	-0.27887
C	-0.5566068991	-2.1642718756	-0.0215729111	-0.079843
C	 0.7245260701	-2.082487636	 0.8500877173	-0.240592
C	 1.2291312584	-0.9137770697	-0.0081242009	-0.015948
O	 1.2194681879	-1.4962434043	-1.3473655728	-0.267823
C	 0.0997645141	-2.3102725013	-1.3852188249	 0.458346
N	-0.2727831865	-3.0055058624	-2.3662673762	-0.564785
H	 0.8361168086	 1.7840102461	-0.2444264621	 0.262622
H	-0.8570807316	 1.7941468842	-0.0812859211	 0.266445
H	-1.311285185	-2.9117806793	 0.2018324082	 0.100254
H	 0.5086579589	-1.8112704261	 1.8845046534	 0.121616
H	 1.3793156863	-2.9562490351	 0.8000110462	 0.118912
H	 2.2074703019	-0.4725701723	 0.173493079	 0.091874
H	 0.3635856066	-2.8869666429	-3.1573309342	 0.22165
133.2941	220.3254	346.7285	373.1676	401.9126	443.8828	490.116	526.6109	592.8597	672.5933	730.7868	765.6139	774.8753	863.8621	887.5454	890.3839	931.8412	940.8481	954.3032	970.4617	1025.6642	1060.1927	1105.0292	1140.2449	1201.2226	1248.1913	1267.9704	1275.3828	1283.6346	1340.5089	1433.2683	1485.0624	1623.9186	1700.676	1796.8135	3073.4146	3141.8105	3142.292	3176.8228	3462.3836	3575.2768	3694.8063
NC1=NC2CC1OC2=N	N[C]1[N][C@@H]2C[C@H]1O[C]2[NH]	
InChI=1S/C5H7N3O/c6-4-3-1-2(8-4)5(7)9-3/h2-3,7H,1H2,(H2,6,8)	InChI=1S/C5H7N3O/c6-4-3-1-2(8-4)5(7)9-3/h2-3,7H,1H2,(H2,6,8)/t2-,3-/m1/s1
