18
gdb 97624	3.13225	0.69147	0.58824	3.6164	82.19	-0.266	0.0155	0.2814	1885.283	0.145664	-401.933334	-401.922789	-401.921845	-401.971465	35.94	
C	-0.04737765	 1.568831752	-0.0230968114	-0.367036
C	 0.0249737661	 0.0309909817	 0.0087654235	-0.31852
C	 0.7166562459	-0.4822307879	 1.1864343422	 0.121502
C	 1.2939932913	-0.8695419079	 2.1689425516	 0.045158
C	 1.9754434786	-1.4046553186	 3.3442820189	-0.332195
C	 1.9753404686	-2.9675046442	 3.3529322182	-0.062554
O	 2.5733756175	-3.4872303561	 4.5114587545	-0.408767
C	 3.3676631223	-0.9355958574	 3.4380383524	 0.276417
N	 4.4791761733	-0.6333634915	 3.5319416285	-0.32673
H	 0.9549235172	 2.0048824221	-0.0246607549	 0.135873
H	-0.571726536	 1.9037501176	-0.9225609824	 0.120017
H	-0.581430125	 1.9513528518	 0.8506638097	 0.131345
H	-0.988786991	-0.387720787	-0.0235834283	 0.135152
H	 0.5317938333	-0.333869146	-0.8933545482	 0.137164
H	 1.4649988601	-1.0824096092	 4.2614416042	 0.159471
H	 0.9339508678	-3.2980621793	 3.3505933365	 0.133065
H	 2.4519045194	-3.3228597587	 2.4297370496	 0.119004
H	 3.5193767507	-3.3038422813	 4.4745331154	 0.301633
10.354	67.0971	87.2383	117.5183	162.802	187.0308	221.9281	295.3031	345.4744	387.6157	402.9357	459.1002	487.4194	565.5284	582.9095	785.4267	792.2899	828.8214	970.9818	1018.8725	1027.7136	1079.9589	1093.5017	1105.5506	1165.7901	1198.3603	1270.9287	1285.7382	1330.3154	1349.3765	1386.9386	1410.4052	1413.0019	1473.381	1495.3095	1501.8947	1505.6607	2356.2067	2372.9034	3018.5992	3025.5233	3033.2283	3047.925	3054.343	3110.641	3122.6004	3128.1265	3798.3203
CCC#CC(CO)C#N	CCC#C[C@@H](CO)C#N	
InChI=1S/C7H9NO/c1-2-3-4-7(5-8)6-9/h7,9H,2,6H2,1H3	InChI=1S/C7H9NO/c1-2-3-4-7(5-8)6-9/h7,9H,2,6H2,1H3/t7-/m1/s1
