18
gdb 10726	3.31399	1.61266	1.24832	0.606	63.13	-0.2648	0.069	0.3338	996.7652	0.152328	-422.05094	-422.042303	-422.041359	-422.083855	32.401	
C	 0.0230699379	 1.5659212292	 0.2456494981	-0.410697
C	 0.002877402	 0.0672613391	-0.0781259626	 0.057954
O	 0.7967390564	-0.6535435656	 0.8493347724	-0.431045
C	-1.4119904264	-0.5193447684	-0.1221804263	 0.339112
C	-2.4714045472	 0.1994557395	-0.948272546	-0.143855
O	-3.7471803272	-0.3839401181	-0.7962961528	-0.41511
C	-1.6016846981	-1.940630141	 0.1795867124	-0.226066
O	-1.8984277897	-0.929333536	 1.1746525758	-0.304035
H	 1.0593652291	 1.8840955728	 0.3815433746	 0.129543
H	-0.4185838484	 2.1676362283	-0.5544422595	 0.118742
H	-0.5246997314	 1.7707266784	 1.1722286	 0.122249
H	 0.4688165036	-0.0955938993	-1.0584214824	 0.097159
H	 0.2659022917	-0.7157383566	 1.6554354589	 0.288935
H	-2.4901606553	 1.2638045229	-0.6712093522	 0.100392
H	-2.2116349584	 0.1414458186	-2.0115810688	 0.119034
H	-3.8830210012	-0.4699441275	 0.1563765977	 0.292957
H	-2.4765667285	-2.4481096696	-0.2155955231	 0.131977
H	-0.7339304989	-2.5519348668	 0.4063857238	 0.132753
74.9118	118.5236	207.2083	241.1641	286.9035	300.699	355.6662	382.9581	423.0871	475.4826	499.9394	513.0157	638.1412	694.2885	826.2104	874.8041	916.2906	947.1602	1014.1112	1062.4689	1079.5355	1099.6028	1135.4651	1138.1202	1182.51	1193.7961	1244.6841	1301.9803	1348.9089	1367.184	1400.439	1412.0576	1433.6642	1436.3693	1493.1716	1494.2129	1504.43	1508.2591	2997.647	3032.5975	3037.0846	3065.9857	3107.7917	3121.8006	3126.3022	3221.4561	3754.7404	3771.598
CC(O)C1(CO)CO1	C[C@@H](O)[C@@]1(CO)CO1	
InChI=1S/C5H10O3/c1-4(7)5(2-6)3-8-5/h4,6-7H,2-3H2,1H3	InChI=1S/C5H10O3/c1-4(7)5(2-6)3-8-5/h4,6-7H,2-3H2,1H3/t4-,5-/m1/s1
