18
gdb 74083	3.02422	1.36154	1.01958	3.6009	81.43	-0.2409	-0.0462	0.1947	1182.2831	0.148252	-401.973593	-401.965355	-401.964411	-402.006437	31.205	
C	-0.0302571073	 1.4713723243	 0.0469512134	-0.484525
C	-0.0001088859	-0.0194258492	-0.01044748	 0.310496
C	-0.0382716113	-0.7892347698	-1.1140751727	-0.292856
C	 0.022317391	-2.2151629228	-0.7570243637	 0.347221
O	 0.0932787687	-3.1852043449	-1.4847496063	-0.367764
C	 0.0240771833	-2.275449237	 0.7536877831	 0.234067
C	-0.6908163241	-3.4101749495	 1.4022102142	-0.271869
N	 0.7710551537	-3.3645543342	 1.3979534595	-0.352905
C	 0.0902704085	-0.8455823872	 1.2586201488	-0.402426
H	 0.8672487643	 1.8575437191	 0.545993927	 0.141959
H	-0.0939994731	 1.9181064298	-0.9478053456	 0.135823
H	-0.8857682496	 1.8176675857	 0.6402784379	 0.140214
H	-0.0861793267	-0.4396816689	-2.1378066489	 0.113294
H	-1.1555859859	-3.2532221543	 2.3720261867	 0.118909
H	-1.1901399069	-4.1166210604	 0.7443276613	 0.131601
H	 1.1104980049	-3.9766915524	 0.6540861774	 0.244448
H	 1.0311358926	-0.6514185732	 1.7882113606	 0.13546
H	-0.7190831762	-0.5911003552	 1.9542584274	 0.118853
84.8199	141.8353	183.366	247.3728	262.1978	294.1906	371.6655	446.5189	466.3442	534.2328	628.9104	726.2875	746.0486	836.9553	865.9502	881.3573	907.6827	964.4101	976.6417	1007.4796	1013.4172	1067.6789	1095.9691	1117.9819	1154.7475	1175.3134	1187.0265	1252.702	1298.6509	1322.8404	1339.9221	1400.3792	1411.9284	1468.5348	1475.9733	1478.1034	1496.2421	1668.1564	1794.7505	3022.8005	3029.6393	3060.0452	3072.9342	3105.5062	3124.1919	3199.3438	3215.2415	3450.6529
CC1=CC(=O)C2(CN2)C1	CC1=CC(=O)[C@]2(CN2)C1	
InChI=1S/C7H9NO/c1-5-2-6(9)7(3-5)4-8-7/h2,8H,3-4H2,1H3	InChI=1S/C7H9NO/c1-5-2-6(9)7(3-5)4-8-7/h2,8H,3-4H2,1H3/t7-/m1/s1
