16
gdb 7077	6.38051	0.85483	0.80573	2.9553	67.93	-0.2479	-0.026	0.222	1360.9616	0.126303	-383.7091	-383.699733	-383.698789	-383.743991	32.393	
O	-0.2542611082	 1.4485467285	 0.0910464304	-0.41785
C	 0.0024867993	 0.0572734242	 0.0045031875	 0.117426
C	 0.7936859867	-0.2870680899	-1.2719090433	-0.295221
C	 0.0651696784	 0.1305364457	-2.5340223397	 0.15289
O	-0.0421516999	-0.5641318691	-3.5122289823	-0.240643
C	 0.7204213839	-0.483761127	 1.2602490112	-0.392682
C	-0.0013471776	-0.2178739518	 2.4970111042	 0.306517
C	-0.6046934108	-0.0032405421	 3.5133755653	-0.425301
H	 0.5709701655	 1.8982076047	 0.3063187964	 0.283127
H	-0.9897081604	-0.4049995868	-0.0482557895	 0.116301
H	 1.7513821989	 0.2558639947	-1.2427122433	 0.113072
H	 1.0188278211	-1.3557265047	-1.338153427	 0.123637
H	-0.3746440462	 1.1492513733	-2.4934101032	 0.097316
H	 0.8750285431	-1.5636079227	 1.1423427029	 0.140045
H	 1.7256237394	-0.0391024819	 1.3097715557	 0.122013
H	-1.1380216031	 0.1885659948	 4.4112795446	 0.199353
49.0289	76.7564	100.9662	116.6994	222.5892	275.8079	313.1477	344.2886	390.8823	431.7256	489.55	582.6092	625.0383	645.3145	809.6924	860.7829	910.9222	951.9645	1023.9239	1051.547	1082.2979	1127.2451	1189.6138	1202.5246	1267.9502	1326.1411	1347.3549	1372.3482	1415.7346	1423.0961	1448.7634	1468.3266	1830.7554	2243.4194	2918.0732	2998.1792	3000.6868	3046.9742	3061.232	3096.332	3506.0631	3794.1604
OC(CC=O)CC#C	O[C@@H](CC=O)CC#C	
InChI=1S/C6H8O2/c1-2-3-6(8)4-5-7/h1,5-6,8H,3-4H2	InChI=1S/C6H8O2/c1-2-3-6(8)4-5-7/h1,5-6,8H,3-4H2/t6-/m1/s1
