18
gdb 57615	3.55529	1.0144	0.95076	4.931	72.	-0.2835	0.0294	0.3129	1271.0584	0.145453	-439.079917	-439.070543	-439.069599	-439.114143	34.473	
C	-0.0741815394	 1.7090006673	-0.0315570783	-0.41442
C	 0.0413790859	 0.1867514992	-0.0174190029	 0.317281
O	 0.75945613	-0.1765267798	 1.1436100538	-0.458708
C	-1.3606503216	-0.4966945166	-0.0057670988	-0.374461
C	-2.1584073926	-0.1403680798	 1.1631108849	 0.274776
N	-2.799027401	 0.1517309535	 2.079140499	-0.311534
C	 0.7780163454	-0.3176647503	-1.2573449722	 0.045861
C	 2.2365997558	-0.4428709057	-1.2813565599	-0.188493
O	 1.3982441554	-1.5975721587	-1.0907466571	-0.258338
H	 0.9227159555	 2.1555042939	-0.0169564739	 0.131578
H	-0.6021852508	 2.0554303129	-0.9253025719	 0.117186
H	-0.6205659631	 2.0519573471	 0.8503677279	 0.158134
H	 1.0414042086	-1.0938062164	 1.0156653419	 0.292176
H	-1.9212712236	-0.2283621416	-0.9087276613	 0.146604
H	-1.2230822855	-1.5838069946	-0.0250696631	 0.158625
H	 0.2503799854	-0.1929880052	-2.2037501826	 0.099839
H	 2.7622085659	-0.411520089	-2.2331139491	 0.127529
H	 2.8074617697	-0.1434259562	-0.4067244764	 0.136363
68.9081	101.3674	137.2417	216.1525	219.8818	277.0715	309.4318	371.3538	379.4687	402.5012	439.3798	519.4123	539.7565	652.1617	765.7224	832.0706	876.0307	899.6182	945.1633	956.9522	974.2914	1019.6809	1092.0394	1112.6764	1160.6303	1165.4459	1178.914	1193.576	1257.4396	1289.4487	1329.2978	1381.4521	1420.8041	1439.2471	1462.7362	1486.8699	1499.6856	1516.4767	2364.728	3041.7832	3049.2849	3083.7582	3103.6184	3110.1496	3124.1132	3136.3183	3202.6493	3739.7273
CC(O)(CC#N)C1CO1	C[C@@](O)(CC#N)[C@H]1CO1	
InChI=1S/C6H9NO2/c1-6(8,2-3-7)5-4-9-5/h5,8H,2,4H2,1H3	InChI=1S/C6H9NO2/c1-6(8,2-3-7)5-4-9-5/h5,8H,2,4H2,1H3/t5-,6-/m1/s1
