19
gdb 113479	4.31996	0.94245	0.93081	3.5345	76.24	-0.2337	0.0691	0.3029	1319.0854	0.160098	-419.119676	-419.111373	-419.110429	-419.152955	31.983	
O	 0.0573100192	 1.2691297217	-0.5432933167	-0.422385
C	 0.0223479669	 0.1417170139	 0.3157421331	-0.061063
C	-1.3482830161	-0.4910053854	 0.3366834516	-0.11427
N	-1.7152082837	-1.15969784	-0.9432188535	-0.410008
C	-1.5567944868	-1.9495827592	 0.2770024588	 0.392491
C	-0.5844521186	-3.1554330362	 0.3547401095	-0.301577
C	-1.7260987221	-3.9481442054	 1.0121611704	-0.041416
N	-2.0890271263	-3.2076512605	 2.2444525709	-0.331122
C	-2.6457088447	-2.7791175991	 0.9311737809	-0.169527
H	-0.2503125539	 0.9518463522	-1.4008576665	 0.288785
H	 0.767880368	-0.6108033214	 0.0176343632	 0.089094
H	 0.290909099	 0.5012132465	 1.3144384515	 0.111346
H	-2.1223732162	 0.100634086	 0.8225889473	 0.089058
H	-2.702468546	-1.0165368677	-1.1450353015	 0.230277
H	-0.3253325647	-3.5115106773	-0.6445664551	 0.117247
H	 0.3150165797	-3.0401055971	 0.9637352555	 0.112176
H	-1.9401401421	-5.0045039693	 0.9122628163	 0.098361
H	-2.8214014273	-3.7445265179	 2.710588907	 0.229081
H	-3.7155716845	-2.7273418137	 0.7630795273	 0.093451
65.9691	113.413	152.3735	201.2912	331.4164	375.57	435.5726	447.5195	468.8516	500.6864	640.419	763.7517	817.0551	827.2118	843.8585	875.8472	907.2303	957.5292	958.5948	975.4087	1004.4375	1018.4988	1057.2681	1065.7444	1085.8843	1107.5889	1120.8345	1165.0854	1175.5422	1216.5778	1243.8908	1259.2482	1303.6841	1319.6103	1328.3931	1365.2105	1387.3585	1426.2972	1465.6199	1494.1209	1498.1934	2991.5198	3069.0002	3077.8062	3125.4979	3130.8759	3176.184	3199.4233	3460.4346	3486.5497	3789.089
OCC1NC11CC2NC12	OC[C@H]1N[C@]21C[C@H]1N[C@@H]21	
InChI=1S/C6H10N2O/c9-2-4-6(8-4)1-3-5(6)7-3/h3-5,7-9H,1-2H2	InChI=1S/C6H10N2O/c9-2-4-6(8-4)1-3-5(6)7-3/h3-5,7-9H,1-2H2/t3-,4-,5-,6+/m1/s1
