17
gdb 68342	2.99099	1.51263	1.18268	1.5397	82.99	-0.2248	-0.0345	0.1903	1061.9228	0.134527	-384.62302	-384.615024	-384.61408	-384.655192	31.623	
C	 0.0061153958	 1.5295368374	 0.1039416431	-0.51415
C	 0.00952697	 0.0336343004	-0.0039403297	 0.285281
C	 0.5973454437	-0.7916554047	-1.19470019	-0.256187
C	 0.660018096	-1.8046299764	-0.0157778038	 0.022876
O	 0.9583904283	-0.6726702155	 0.8640586175	-0.308587
C	-0.829137167	-2.037449475	 0.2730039786	-0.229259
C	-1.2998248287	-0.7793514972	 0.2834576055	 0.264308
C	-2.5809974042	-0.2440369585	 0.4783942053	 0.121732
C	-3.6608179167	 0.2698925074	 0.6385360596	-0.391638
H	 0.9940845011	 1.9355925587	-0.1271789253	 0.128314
H	-0.723641908	 1.9571589863	-0.5899427521	 0.132513
H	-0.2700949734	 1.8365583269	 1.117119496	 0.140632
H	-0.0413109211	-1.0149919661	-2.0516734816	 0.102053
H	 1.5851019156	-0.4332874492	-1.4952868638	 0.107244
H	 1.3652824366	-2.6310804683	 0.0469917196	 0.085505
H	-1.3436968939	-2.9759831036	 0.4136532774	 0.121244
H	-4.6181662641	 0.7050204974	 0.7850866136	 0.188117
120.8701	134.3662	179.4245	292.0193	303.3256	409.7611	472.3351	503.1545	529.1062	583.9324	614.6546	632.1685	661.5725	668.444	761.8293	807.3784	834.8329	857.9183	904.2699	912.5464	953.321	1031.3464	1047.3674	1109.6918	1144.8977	1172.5442	1203.2271	1233.6868	1248.6257	1286.8853	1324.4526	1417.2776	1475.6485	1486.7271	1490.5834	1639.8867	2215.7345	3046.2624	3062.1526	3118.4375	3126.2102	3135.2684	3145.1163	3249.8347	3501.608
CC12CC(O1)C=C2C#C	C[C@@]12C[C@@H](O1)C=C2C#C	
InChI=1S/C8H8O/c1-3-6-4-7-5-8(6,2)9-7/h1,4,7H,5H2,2H3	InChI=1S/C8H8O/c1-3-6-4-7-5-8(6,2)9-7/h1,4,7H,5H2,2H3/t7-,8-/m0/s1
