17
gdb 79051	3.66099	1.65445	1.39867	2.3968	71.12	-0.2368	0.0624	0.2992	930.7514	0.137203	-421.718876	-421.712372	-421.711428	-421.749422	27.26	
O	 0.266000244	 1.423218406	-0.2026212451	-0.433312
C	 0.0624267934	 0.0497728242	-0.0794485247	 0.061009
C	 0.0872994851	-0.6452077225	 1.3428721258	-0.162456
C	-1.3773769901	-0.2079318414	 1.657612863	-0.112452
C	-2.0279476998	-1.6096446851	 1.7300779762	-0.146013
C	-3.201742074	-1.5145061868	 0.7084068376	-0.108151
O	-2.6268230141	-0.7392197356	-0.3954620449	-0.3467
C	-1.3508029292	-0.5399576356	 0.1314479429	 0.407245
C	-0.7875822694	-1.8153983421	 0.8275328041	-0.074039
H	-0.2902353277	 1.8751518122	 0.4419786041	 0.286514
H	 0.6738911404	-0.4271962758	-0.8507745736	 0.09809
H	 0.9284996043	-0.6952515242	 2.0302332318	 0.084727
H	-1.7230166539	 0.7242208106	 2.1065545874	 0.071342
H	-2.2221433915	-2.1588978365	 2.6529178533	 0.072447
H	-3.5177099769	-2.4916980728	 0.3273912188	 0.11267
H	-4.0737339249	-0.9804424905	 1.1015949231	 0.111003
H	-0.4549355855	-2.7091690541	 0.3000986303	 0.078076
191.2007	233.9626	303.7351	340.5327	443.1241	520.844	549.8289	693.0965	717.7382	753.6975	803.015	830.9711	867.1	878.6676	894.696	919.0457	934.036	957.7527	990.7686	1000.583	1048.2262	1103.0357	1109.2939	1121.3342	1127.0908	1162.3644	1166.7983	1176.5817	1208.7817	1235.0195	1261.0193	1279.64	1288.9363	1323.0857	1364.0277	1448.8959	1508.8399	3036.0682	3081.8231	3084.4255	3095.7569	3104.4643	3118.2408	3147.6361	3799.5109
OC1C2C3C4COC13C24	O[C@H]1[C@H]2[C@@H]3[C@H]4CO[C@@]13[C@@H]24	
InChI=1S/C7H8O2/c8-6-3-4-2-1-9-7(4,6)5(2)3/h2-6,8H,1H2	InChI=1S/C7H8O2/c8-6-3-4-2-1-9-7(4,6)5(2)3/h2-6,8H,1H2/t2-,3+,4+,5-,6-,7+/m0/s1
