18
gdb 87889	3.80521	1.10532	1.00494	2.5855	73.84	-0.2296	0.0311	0.2607	1233.835	0.146654	-439.088158	-439.079455	-439.078511	-439.121652	32.502	
C	-0.2083019144	 1.4468126518	 0.1096731596	-0.477113
C	-0.0060443943	-0.0205913773	-0.0478248394	 0.395634
N	-0.172182193	-0.7030121285	-1.1054481062	-0.306332
C	 0.144348485	-2.0966887205	-0.764670374	-0.258843
C	 0.5501867929	-2.034357936	 0.7106003227	 0.391936
C	 0.2670068868	-3.0858153916	 1.7429185291	-0.396953
C	 1.6930816318	-2.790822404	 1.2988377115	 0.022786
O	 2.3559275562	-3.6665779455	 0.4378796134	-0.417379
O	 0.3979858681	-0.6681198159	 1.0898553289	-0.28109
H	 0.7227344615	 1.9267084106	 0.4273486885	 0.144384
H	-0.535795209	 1.8736843627	-0.8375448111	 0.152676
H	-0.9576498778	 1.6457511958	 0.8823123942	 0.143638
H	-0.7313133608	-2.7334277484	-0.9360137187	 0.113025
H	 0.9549221177	-2.4770202682	-1.3938765141	 0.135909
H	-0.0256839656	-2.7642477593	 2.7366344191	 0.12522
H	-0.19223946	-4.0052323388	 1.3920658531	 0.120605
H	 2.3229484537	-2.2529540131	 2.0072768086	 0.099394
H	 2.574259371	-4.4652502739	 0.9295036547	 0.292502
62.7535	139.1902	170.7278	204.066	258.7432	271.9548	316.9471	412.3556	447.4645	481.8186	559.2574	612.4468	676.4538	808.8085	838.9675	891.1119	919.4035	956.7773	980.0225	994.498	1024.5538	1058.8267	1073.5865	1082.4071	1089.3719	1169.2275	1207.2155	1214.2252	1267.0109	1284.6265	1318.343	1358.2906	1411.5376	1419.1155	1475.4171	1476.7876	1491.3738	1505.0297	1746.7943	3035.1493	3050.4174	3078.2983	3106.9104	3107.567	3124.3002	3166.4294	3220.7285	3806.2221
CC1=NCC2(CC2O)O1	CC1=NC[C@]2(C[C@H]2O)O1	
InChI=1S/C6H9NO2/c1-4-7-3-6(9-4)2-5(6)8/h5,8H,2-3H2,1H3	InChI=1S/C6H9NO2/c1-4-7-3-6(9-4)2-5(6)8/h5,8H,2-3H2,1H3/t5-,6+/m1/s1
