19
gdb 108560	3.31826	1.4718	1.26566	1.735	74.12	-0.2383	0.0778	0.3161	1049.9242	0.159846	-422.97766	-422.969921	-422.968977	-423.009875	30.221	
C	-0.012858312	 1.2662778694	-0.3023887453	-0.257468
O	-0.115488866	-0.0427353684	 0.2332041781	-0.294129
C	-1.3887941278	-0.5829165373	 0.1578167117	 0.420005
C	-2.4755975775	-0.0813716271	 1.1146649573	-0.159444
O	-3.3306167011	-1.2072982512	 1.3318907896	-0.262535
C	-3.0265206393	-2.1580407189	 0.3183885739	 0.078108
C	-3.2972551594	-1.5907160159	-1.1168933329	-0.25731
C	-1.8213821292	-1.1948707262	-1.1731362452	-0.139436
C	-1.5078996582	-2.0668427954	 0.0441781573	-0.16514
H	 1.0402987195	 1.5496785816	-0.2445326135	 0.130114
H	-0.3393170195	 1.3001922172	-1.3507511708	 0.111713
H	-0.6053749634	 1.9920790887	 0.2720270921	 0.114471
H	-2.028675168	 0.2260062882	 2.0675922185	 0.110378
H	-3.0555859461	 0.760818297	 0.7129765828	 0.095011
H	-3.4844821758	-3.1080088999	 0.5882614685	 0.087139
H	-3.5215054183	-2.3921910038	-1.826573904	 0.104884
H	-4.0640545742	-0.8126940399	-1.1929597121	 0.096635
H	-1.2135563346	-1.0519710029	-2.0589204325	 0.088986
H	-0.7114510392	-2.7697207854	 0.2445482865	 0.098018
92.7998	163.7837	179.3882	224.2514	358.7414	378.2058	413.8827	460.2676	601.2986	660.4643	696.0866	797.1669	841.352	848.694	874.7723	929.6297	960.6628	975.7226	996.6032	999.7883	1040.8215	1063.2755	1090.1385	1107.3979	1133.8077	1179.7278	1184.6815	1199.9771	1210.5659	1217.1774	1237.2442	1278.3804	1281.0047	1332.9676	1358.2228	1413.9397	1480.2977	1486.9491	1491.3868	1506.1344	1523.0138	2992.992	3003.1005	3042.2505	3048.4227	3053.0016	3096.9863	3122.8802	3135.0594	3181.8876	3216.8308
COC12COC3CC1C23	CO[C@@]12CO[C@H]3C[C@@H]1[C@@H]23	
InChI=1S/C7H10O2/c1-8-7-3-9-5-2-4(7)6(5)7/h4-6H,2-3H2,1H3	InChI=1S/C7H10O2/c1-8-7-3-9-5-2-4(7)6(5)7/h4-6H,2-3H2,1H3/t4-,5+,6-,7+/m1/s1
