16
gdb 11639	3.2152	1.89327	1.47939	2.0872	72.07	-0.2391	0.015	0.2541	894.2004	0.128867	-346.500143	-346.492688	-346.491743	-346.531573	28.879	
C	-0.1559416809	 1.6270559153	-0.0555874596	-0.446138
C	 0.0166691138	 0.1206175339	 0.0101076753	 0.012186
C	 1.1832635416	-0.6525586209	-0.6661044844	 0.008334
C	 2.1830865372	-0.1309517781	 0.3898302672	-0.268174
C	 0.8813668458	-0.5927050915	 1.108079523	 0.331954
O	 0.8905175051	-1.7978255991	 0.2279983584	-0.337823
C	 0.6179374299	-0.7367704848	 2.5073151242	 0.075194
C	 0.3906753335	-0.8189096059	 3.6851139133	-0.3535
H	 0.7819518286	 2.1769947032	 0.0537610574	 0.121391
H	-0.6008103946	 1.9145108684	-1.014239355	 0.125678
H	-0.8346186444	 1.9638448562	 0.7350435765	 0.132451
H	-0.9317251101	-0.4059898528	-0.1236125015	 0.092298
H	 1.3465967813	-0.8754322348	-1.7196089922	 0.09829
H	 3.0416347008	-0.7787987616	 0.5661563504	 0.117209
H	 2.4407009922	 0.928731583	 0.4097663391	 0.102259
H	 0.1910360102	-0.9004371006	 4.725162708	 0.188391
122.6114	158.8559	187.06	283.6971	323.7888	477.392	488.6853	557.9426	581.28	599.3326	626.1865	685.4209	726.1326	803.1541	823.5579	901.3692	938.3419	968.7916	1012.3704	1060.7955	1087.6269	1105.4315	1140.5507	1174.7117	1215.9146	1229.6878	1248.0045	1289.0395	1382.5295	1416.471	1489.4535	1494.3484	1506.2309	2237.9234	3039.0294	3082.7237	3084.739	3099.3435	3121.5389	3132.4279	3161.4158	3500.1546
CC1C2CC1(O2)C#C	C[C@H]1[C@H]2C[C@@]1(O2)C#C	
InChI=1S/C7H8O/c1-3-7-4-6(8-7)5(7)2/h1,5-6H,4H2,2H3	InChI=1S/C7H8O/c1-3-7-4-6(8-7)5(7)2/h1,5-6H,4H2,2H3/t5-,6+,7-/m0/s1
