16
gdb 34495	4.57409	1.07331	0.93963	1.211	82.2	-0.2294	-0.0303	0.1991	1236.1096	0.123699	-400.713756	-400.705768	-400.704824	-400.74662	30.189	
C	 0.0435002651	-1.1449609447	-0.0154101777	-0.359179
C	-0.0248794453	 0.0542652364	 0.0097682685	 0.266505
C	-0.0880274224	 1.4743456698	 0.0432510484	 0.238274
N	-1.1355694525	 2.1772391565	-0.1484618819	-0.341804
C	-0.7196931351	 3.5517135758	-0.0173318226	 0.320358
C	-1.3711234101	 4.5945353561	-0.8875266595	-0.3139
C	-1.6750120526	 4.5454974987	 0.5899889836	-0.313951
C	 0.7833110494	 3.5228060343	 0.2909076977	-0.17666
O	 1.0916231699	 2.1121057956	 0.3074553631	-0.263569
H	 0.0928530349	-2.2059130659	-0.0398128626	 0.205376
H	-0.7442011645	 5.3989209969	-1.2597333182	 0.115001
H	-2.1337033363	 4.2502248351	-1.5761499161	 0.13256
H	-2.642731596	 4.1680725485	 0.8987742101	 0.13256
H	-1.2561957419	 5.3163062783	 1.2295610878	 0.115001
H	 1.3992408078	 4.0012954758	-0.477688133	 0.121712
H	 1.0398874996	 3.9432598029	 1.2688905224	 0.121716
65.3802	129.2154	143.6095	285.451	305.626	333.6957	482.3487	503.4532	538.6767	611.3534	645.1861	673.0992	719.7092	774.3743	842.0225	857.0384	916.4883	936.2907	951.0828	999.6497	1018.1774	1055.9029	1068.3781	1094.9255	1192.8535	1205.5278	1215.3909	1264.4662	1353.2725	1388.8472	1453.8514	1492.744	1522.2681	1678.4152	2250.7462	3035.4412	3078.9462	3128.9712	3132.2056	3218.6937	3232.5856	3501.1415
C#CC1=NC2(CC2)CO1	C#CC1=NC2(CC2)CO1	
InChI=1S/C7H7NO/c1-2-6-8-7(3-4-7)5-9-6/h1H,3-5H2	InChI=1S/C7H7NO/c1-2-6-8-7(3-4-7)5-9-6/h1H,3-5H2
