23
gdb 75506	2.2047	1.73567	1.07418	0.2046	91.68	-0.2236	0.0333	0.2569	1205.1832	0.208213	-351.173669	-351.165274	-351.16433	-351.206311	33.702	
C	 0.0945907719	 1.5148914939	 0.0366618518	-0.480372
C	 0.0069530903	 0.0146201317	-0.0455800061	 0.308673
C	-0.1213562221	-0.6394030795	-1.2045743941	-0.151049
C	-0.1672012854	-2.1438672242	-1.3202870838	-0.257843
C	 0.5452631922	-2.815077185	-0.1363493363	-0.211419
C	 0.0131356924	-2.2888275734	 1.1980626348	-0.004973
C	 1.0405506306	-2.3145526475	 2.3653485178	-0.237814
C	 1.368337317	-0.8212537819	 2.0844103886	-0.233115
C	 0.0429485101	-0.7327152868	 1.2560066187	-0.054672
H	 1.0233648741	 1.8312758227	 0.5289617874	 0.122747
H	 0.0625062217	 1.9774292583	-0.9537769389	 0.116619
H	-0.7280506471	 1.9292454542	 0.6343923029	 0.117606
H	-0.1834224311	-0.0703235915	-2.1304772262	 0.071593
H	-1.2101174383	-2.4908260267	-1.380182502	 0.103118
H	 0.2988684625	-2.4555303307	-2.2628716654	 0.096064
H	 0.4432691441	-3.9054311479	-0.1840009643	 0.088231
H	 1.6177594943	-2.5959283333	-0.2149320134	 0.094917
H	-0.9619324084	-2.7385789455	 1.4110749461	 0.058234
H	 0.5574190637	-2.4499723218	 3.3370618705	 0.096291
H	 1.8613249765	-3.0328833108	 2.2852596207	 0.092759
H	 1.4682197169	-0.1584196441	 2.9471680595	 0.093709
H	 2.2511515397	-0.7005973117	 1.4505134798	 0.101437
H	-0.7578328454	-0.3612532385	 1.9087130221	 0.069258
99.2241	166.826	203.0055	219.9613	272.3278	315.1307	356.6829	436.5557	485.8163	548.3848	624.3688	664.8023	756.3225	792.617	842.3443	856.0511	891.1774	920.5551	940.7654	967.1841	972.9146	1007.0157	1022.2099	1054.9762	1071.9461	1090.3857	1100.045	1132.0124	1175.8958	1178.2119	1219.5578	1234.2502	1257.7717	1259.1687	1279.3907	1290.7916	1324.7126	1347.7225	1360.7429	1386.7914	1392.707	1411.3357	1477.8834	1479.5346	1482.5862	1490.6745	1492.2017	1499.7735	1728.9894	2991.831	3009.6749	3013.9667	3021.6379	3041.1724	3045.1449	3051.2497	3056.8529	3059.5469	3068.1368	3095.1837	3105.8133	3114.3794	3138.126
CC1=CCCC2CCC12	CC1=CCC[C@H]2CC[C@@H]12	
InChI=1S/C9H14/c1-7-3-2-4-8-5-6-9(7)8/h3,8-9H,2,4-6H2,1H3	InChI=1S/C9H14/c1-7-3-2-4-8-5-6-9(7)8/h3,8-9H,2,4-6H2,1H3/t8-,9-/m0/s1
