12
gdb 131037	2.32722	1.72842	0.99181	5.3475	72.9	-0.2702	-0.0862	0.184	1074.6899	0.07696	-431.640184	-431.632725	-431.631781	-431.672471	26.782	
O	-0.0591208068	 0.0009582498	-0.0002112905	-0.231921
C	-0.0161628232	 1.1927551982	 0.0087184184	 0.188327
N	 1.1882795338	 1.9416501914	 0.0008392238	-0.142247
N	 2.4174390491	 1.3512520644	-0.017201141	-0.087638
N	 3.2997183506	 2.2922795407	-0.0200054966	-0.149745
C	 2.6795195558	 3.5108866507	-0.0040753643	-0.208766
C	 1.3193223541	 3.3182908452	 0.0094331767	 0.283275
C	 0.2397086622	 4.2187181169	 0.0279985285	 0.299489
C	-0.6808963846	 4.9943703897	 0.0438625429	-0.451962
H	-0.8887173027	 1.8653916177	 0.0226924206	 0.132845
H	 3.2322216409	 4.4354908187	-0.0033130423	 0.149928
H	-1.4890362994	 5.6845553167	 0.0577156938	 0.218414
133.17	133.9906	159.7531	238.3177	247.7669	440.0102	458.0231	579.3439	610.0358	612.3177	690.5338	695.106	706.8528	804.0085	867.9547	982.4658	1033.481	1091.3454	1123.9389	1244.0783	1280.7297	1355.2416	1390.5783	1441.5409	1565.6456	1858.4322	2236.7381	3020.4925	3285.5889	3494.1268
O=CN1N=NC=C1C#C	O=Cn1nncc1C#C	
InChI=1S/C5H3N3O/c1-2-5-3-6-7-8(5)4-9/h1,3-4H	InChI=1S/C5H3N3O/c1-2-5-3-6-7-8(5)4-9/h1,3-4H
