20
gdb 13727	5.61108	0.80573	0.75729	2.1434	72.76	-0.2473	0.0809	0.3282	1533.9294	0.175201	-386.107379	-386.097865	-386.096921	-386.142449	33.535	
C	-0.1989185237	 1.3478162693	 0.1194405921	-0.225657
O	 0.1862401862	 0.008075871	-0.0579807448	-0.229303
C	 0.6295693786	-0.5993238374	 1.1364224079	-0.041663
C	 1.0185187992	-2.0413179905	 0.8329105006	-0.22182
C	 1.5370503148	-2.7643602485	 2.0572883885	-0.016508
C	 0.5684982634	-3.3567035901	 3.0686340317	-0.326151
C	 1.4024690245	-4.2537222519	 2.1880809984	 0.088443
O	 0.7999558696	-4.9319908137	 1.1235398981	-0.415295
H	 0.6346434873	 1.9701346092	 0.4841436235	 0.09983
H	-0.5231455663	 1.7291111307	-0.8522552119	 0.124269
H	-1.0323187478	 1.4449608368	 0.8343511076	 0.099655
H	 1.4913835118	-0.0450470789	 1.549907933	 0.077236
H	-0.1645839978	-0.5693354795	 1.9025564179	 0.083332
H	 0.1540324697	-2.5716124842	 0.4248331164	 0.117794
H	 1.7824652626	-2.0388647173	 0.0463346174	 0.107198
H	 2.4525182462	-2.3498228691	 2.4731500052	 0.084672
H	 0.79445746	-3.2941246918	 4.1276751543	 0.108396
H	-0.487070318	-3.2918762538	 2.8230040774	 0.113336
H	 2.2303204859	-4.7889045204	 2.6536869709	 0.084235
H	 0.246392564	-5.6283519799	 1.4912277758	 0.288
54.1075	80.3134	106.5853	122.6076	214.231	229.8528	282.2845	293.7914	383.6946	425.4709	471.3798	587.9463	765.8083	798.1186	839.6981	885.3266	953.2018	992.4199	996.249	1042.7464	1075.9346	1089.1886	1136.4748	1162.7844	1173.5146	1179.0527	1195.2706	1226.3284	1239.8934	1244.5178	1293.8689	1303.9707	1313.7395	1398.3827	1423.6943	1429.1715	1480.6157	1484.102	1487.2014	1495.421	1505.8342	1531.7742	2938.6216	2963.847	2968.4425	3003.7437	3043.6124	3093.3549	3101.3301	3109.2175	3126.1094	3134.0327	3214.9987	3810.3519
COCCC1CC1O	COCC[C@H]1C[C@H]1O	
InChI=1S/C6H12O2/c1-8-3-2-5-4-6(5)7/h5-7H,2-4H2,1H3	InChI=1S/C6H12O2/c1-8-3-2-5-4-6(5)7/h5-7H,2-4H2,1H3/t5-,6+/m0/s1
