17
gdb 56441	2.27597	1.52515	0.96403	2.0973	74.35	-0.2654	-0.0142	0.2512	1200.1239	0.134792	-418.020251	-418.010961	-418.010017	-418.055621	32.533	
C	-1.1596375242	 1.4366302721	-0.5039235951	-0.38567
C	 0.2647803104	 0.9463462317	-0.1677743915	-0.280196
C	 0.2385927187	-0.2264998346	 0.7060273377	 0.304157
N	 0.2080409171	-1.1400537485	 1.4134705851	-0.337658
C	 1.0837394453	 0.7487883126	-1.4674405659	 0.41512
O	 1.0406215243	 1.5811812683	-2.3438385492	-0.338862
N	 1.7728183621	-0.4397275719	-1.5738599873	-0.083423
C	 2.8933222151	-0.8894371111	-0.7669034069	-0.226548
C	 3.0496564845	-0.5822804515	-2.2292832948	-0.229128
H	-1.0810788713	 2.2902906294	-1.1779023483	 0.156346
H	-1.7309184026	 0.6476500741	-0.9989324955	 0.144778
H	-1.686895554	 1.7309276458	 0.4057346306	 0.135753
H	 0.7818880528	 1.7473529766	 0.3780170279	 0.154078
H	 3.3202986673	-0.1858147171	-0.0569465082	 0.137863
H	 2.8409671643	-1.9165495864	-0.4206695794	 0.152004
H	 3.1256722545	-1.3984735597	-2.9411374438	 0.138237
H	 3.5600344756	 0.3340080202	-2.5129555652	 0.143147
21.0457	103.5558	134.1082	186.1921	208.6837	225.226	262.7388	287.4526	392.9802	483.916	551.5498	617.9811	665.2156	770.9014	809.6471	861.5061	927.4214	981.7994	1027.0289	1048.5168	1080.2051	1124.0799	1129.1316	1137.9201	1156.9943	1173.9167	1187.0171	1274.5451	1314.7985	1400.2834	1414.5349	1492.3474	1495.6653	1500.2294	1523.7677	1788.8594	2356.6946	3026.9	3061.7333	3118.0999	3121.4852	3138.55	3159.1203	3204.8885	3217.5032
CC(C#N)C(=O)N1CC1	C[C@@H](C#N)C(=O)N1CC1	
InChI=1S/C6H8N2O/c1-5(4-7)6(9)8-2-3-8/h5H,2-3H2,1H3	InChI=1S/C6H8N2O/c1-5(4-7)6(9)8-2-3-8/h5H,2-3H2,1H3/t5-/m0/s1
