20
gdb 110508	2.68297	1.5091	1.22851	2.4628	77.56	-0.2334	0.0602	0.2936	1099.3756	0.170971	-403.081534	-403.073259	-403.072315	-403.114216	32.726	
C	 0.1090070807	 1.5117691386	 0.174194971	-0.386312
C	 0.0423054452	-0.0035158047	-0.0545016589	-0.217367
C	-1.3739525583	-0.5557155777	 0.0755079555	-0.039616
C	-1.6781908314	-2.0540564586	 0.0134939582	-0.064756
C	-2.8194853916	-1.9514185636	 0.9468383418	-0.144265
N	-1.5933390618	-2.6661750341	 1.3931426655	-0.149001
C	-1.2581257339	-1.5249663552	 2.3082949389	-0.18306
C	-2.1191520891	-0.6010179554	 1.4485429544	 0.345386
O	-2.6647569594	 0.5237060448	 2.0364373307	-0.473757
H	 1.1332343761	 1.8842174896	 0.0781543912	 0.114439
H	-0.5072543437	 2.0481155522	-0.5570915998	 0.107645
H	-0.2557989064	 1.776331882	 1.1715932673	 0.130535
H	 0.4182833866	-0.2427074989	-1.0579045311	 0.09768
H	 0.714173352	-0.5143992105	 0.6436256652	 0.105755
H	-2.0334632539	-0.0525708088	-0.6472328078	 0.064532
H	-1.5315513049	-2.7340721586	-0.8157604228	 0.095358
H	-3.8182763908	-2.3676438126	 0.9644916534	 0.098034
H	-1.7139208221	-1.7219265929	 3.2817804383	 0.115172
H	-0.1929817484	-1.3034467381	 2.4339568859	 0.098173
H	-3.0666332448	 1.0702202624	 1.3527300031	 0.285424
77.5904	140.6207	208.9235	284.5663	302.6291	341.7813	350.4898	380.1545	505.6036	561.2727	639.7581	697.3383	763.906	773.3559	805.0634	851.5487	878.3172	917.3356	951.7517	978.1215	991.6879	1007.88	1020.9196	1076.0709	1096.7688	1113.9748	1138.5177	1152.6505	1157.5032	1192.2328	1229.7748	1267.9045	1287.2108	1302.0031	1319.9521	1358.4585	1390.6856	1412.535	1418.1931	1485.3656	1500.2199	1507.7463	1520.4857	2997.2577	3024.6958	3030.082	3044.7206	3066.5256	3097.1784	3109.5206	3111.6854	3192.6576	3206.6178	3807.5764
CCC1C2C3N2CC13O	CC[C@H]1[C@@H]2[C@H]3N2C[C@@]13O	
InChI=1S/C7H11NO/c1-2-4-5-6-7(4,9)3-8(5)6/h4-6,9H,2-3H2,1H3	InChI=1S/C7H11NO/c1-2-4-5-6-7(4,9)3-8(5)6/h4-6,9H,2-3H2,1H3/t4-,5+,6+,7+,8?/m0/s1
