20
gdb 32791	3.10607	0.97087	0.7833	0.761	82.32	-0.1771	0.0554	0.2325	1496.605	0.170724	-403.189973	-403.180251	-403.179306	-403.225346	35.641	
C	-0.0655382	 1.603774317	 0.0245669643	-0.378265
C	-0.0764284619	 0.0736176958	 0.044720905	-0.143524
C	 0.8167494721	-0.5238069966	 1.1493067869	-0.33229
C	 0.8072428462	-2.02336271	 1.203788144	 0.157063
C	 1.7909649496	-2.8723626818	 0.7468331269	 0.285647
O	 3.0062132033	-2.6599783501	 0.1736498146	-0.438605
N	 1.4063452819	-4.1658852773	 0.9465490206	-0.289266
C	 0.1573137872	-4.1797928422	 1.5410714907	-0.095755
C	-0.2309619633	-2.8774589825	 1.7075291755	-0.231026
H	 0.9444853932	 1.9928718447	-0.1497395679	 0.107937
H	-0.7129580971	 1.9984530899	-0.7647519567	 0.11104
H	-0.4146788109	 2.0153576642	 0.9784107311	 0.113244
H	-1.1011598843	-0.2905347518	 0.1866230418	 0.102066
H	 0.2487068513	-0.3180007362	-0.9272007798	 0.093297
H	 1.8452443752	-0.1557711764	 1.0071220005	 0.067014
H	 0.5013323295	-0.1130325419	 2.1181667743	 0.104255
H	 3.1488328887	-1.7097886244	 0.1214751851	 0.303952
H	 1.967009742	-4.9642002995	 0.7064919053	 0.263365
H	-0.3269990807	-5.109871828	 1.7867944324	 0.11366
H	-1.160237472	-2.5481261929	 2.1485979354	 0.086189
36.955	84.2915	107.1153	189.8355	239.5711	261.6919	264.3434	309.8116	362.6542	422.2393	470.2037	629.6893	633.433	659.5378	706.9143	739.9079	770.3381	812.9806	865.2054	892.7331	917.3296	1038.7724	1043.2393	1086.3209	1101.4744	1110.2682	1166.6755	1209.1944	1257.866	1282.1167	1310.1719	1323.6502	1361.3899	1382.9481	1411.4416	1416.3493	1479.9978	1491.9373	1499.6178	1509.6133	1529.0733	1555.9809	1646.5687	2977.8655	3020.3399	3025.7079	3029.5268	3060.2914	3092.4516	3100.4322	3237.3169	3277.6456	3688.8254	3837.5353
CCCC1=C(O)NC=C1	CCCc1c(O)[nH]cc1	
InChI=1S/C7H11NO/c1-2-3-6-4-5-8-7(6)9/h4-5,8-9H,2-3H2,1H3	InChI=1S/C7H11NO/c1-2-3-6-4-5-8-7(6)9/h4-5,8-9H,2-3H2,1H3
