16
gdb 31277	2.50569	1.33123	0.92228	1.7332	69.08	-0.2177	-0.0062	0.2116	1240.3045	0.124086	-475.035093	-475.026251	-475.025307	-475.069703	30.671	
C	 0.0872535923	 1.4554889832	 0.0362580658	-0.240176
O	 0.0403932329	 0.0293528038	 0.0517324657	-0.271581
C	 0.5536396024	-0.5936743381	-1.0197443415	 0.284553
C	 0.6541392536	-1.9448851844	-1.1908129109	 0.175285
C	 0.2673762986	-3.1260389043	-0.3840832645	-0.179721
O	-0.8595779403	-3.8378245524	-0.8907131246	-0.411449
O	 1.2338091664	-2.1249833813	-2.4338524033	-0.165759
C	 1.4376479807	-0.8896541031	-2.9070722558	 0.07397
N	 1.0587599584	 0.0700511146	-2.1192652713	-0.346249
H	 1.1184860875	 1.8163245334	-0.0273696358	 0.136205
H	-0.4786269174	 1.8603762955	-0.808206241	 0.137085
H	-0.3632923639	 1.7744953285	 0.9769372024	 0.132086
H	 1.0803384846	-3.8590514641	-0.3619560937	 0.126147
H	 0.1010268168	-2.7802573897	 0.6461829655	 0.114281
H	-1.5860537072	-3.209457542	-0.9621307545	 0.281043
H	 1.8907494747	-0.8035067695	-3.8822981825	 0.154282
59.346	68.0905	141.2422	168.4663	189.2292	283.1156	303.7031	340.3402	419.0974	552.48	627.4194	680.9222	735.4217	777.451	834.6219	928.4929	959.8816	1021.6644	1047.5451	1134.5038	1179.5494	1183.2325	1188.7481	1225.0901	1250.4923	1326.3724	1367.5763	1394.4696	1430.5858	1481.3804	1483.1411	1489.0234	1502.0491	1547.6652	1682.7332	3009.3516	3037.7738	3077.6516	3107.1018	3147.3908	3273.7861	3809.0916
COC1=C(CO)OC=N1	COc1c(CO)ocn1	
InChI=1S/C5H7NO3/c1-8-5-4(2-7)9-3-6-5/h3,7H,2H2,1H3	InChI=1S/C5H7NO3/c1-8-5-4(2-7)9-3-6-5/h3,7H,2H2,1H3
