17
gdb 88417	2.75982	1.17347	0.96629	2.2002	69.18	-0.2407	-0.0549	0.1858	1223.9017	0.132821	-458.95127	-458.942108	-458.941164	-458.987275	32.499	
O	-0.2761625502	 0.6885991288	 1.7429519108	-0.430814
C	-0.0127002545	-0.0616351997	 0.6052354778	 0.139149
C	-0.7129497837	-1.3611669593	 0.311462976	-0.349345
C	-1.0094226568	-0.1254737886	-0.5298125796	-0.099951
C	-2.3199855753	 0.6652338474	-0.4723205431	-0.202621
C	-3.0013090702	 0.7057818493	-1.8377918661	 0.147199
O	-4.191742062	 0.7525779816	-2.0059623632	-0.24238
C	-3.3198956098	 0.2870635629	 0.6128674471	 0.155226
O	-3.0254271518	 0.0874105088	 1.7697744906	-0.269893
H	-1.1760066617	 0.4788485613	 2.0430039756	 0.302231
H	 1.0351148484	 0.024894074	 0.3352963341	 0.106494
H	-0.158911333	-2.1658869038	-0.1598552944	 0.11695
H	-1.4596359149	-1.6936977888	 1.0226291621	 0.135677
H	-0.5888694038	-0.1324895954	-1.5333832047	 0.093614
H	-2.0596859082	 1.7181442858	-0.2521371978	 0.160251
H	-2.2978587797	 0.7029356162	-2.6996221331	 0.096952
H	-4.3692337429	 0.2233549295	 0.274980928	 0.141261
15.8854	47.3959	134.223	189.9572	222.861	254.793	284.0772	397.6269	460.0321	509.764	574.1104	614.7551	687.538	739.7861	790.3656	816.698	877.099	950.8995	977.2687	1034.7408	1062.3412	1071.3008	1099.0083	1123.9009	1157.0617	1166.9788	1214.3655	1241.727	1276.0898	1367.2197	1373.8746	1410.4735	1434.0219	1470.7846	1493.4733	1796.9673	1829.5661	2889.1358	2944.3708	2992.198	3118.8382	3139.6437	3163.1371	3229.9776	3655.2712
OC1CC1C(C=O)C=O	O[C@H]1C[C@H]1C(C=O)C=O	
InChI=1S/C6H8O3/c7-2-4(3-8)5-1-6(5)9/h2-6,9H,1H2	InChI=1S/C6H8O3/c7-2-4(3-8)5-1-6(5)9/h2-6,9H,1H2/t5-,6-/m0/s1
