16
gdb 52229	4.22597	0.70347	0.64954	2.8782	69.28	-0.2659	-0.0511	0.2147	1647.2965	0.122208	-475.025771	-475.016575	-475.01563	-475.061788	31.342	
O	-0.3301889077	 0.6367821665	-0.4496167542	-0.314985
C	 0.0135660211	 1.5358523699	 0.2861909159	 0.157141
N	 1.2849177689	 1.7369438503	 0.7349338275	-0.276136
C	 2.3965464368	 0.8860478677	 0.3502509487	-0.20019
C	 3.4008875982	 1.6552847718	-0.4780007051	 0.064123
O	 4.281669471	 2.5327151637	 0.2146968327	-0.248477
C	 4.8652890495	 1.4154648815	-0.4668094604	-0.051168
C	 5.4984517427	 0.3728674559	 0.399581629	 0.139352
O	 6.3284634864	-0.3989961581	-0.0053865428	-0.237086
H	-0.6850469895	 2.298588199	 0.6809373336	 0.084462
H	 1.4712903318	 2.5334458396	 1.3239189093	 0.260282
H	 2.8716895438	 0.4622586798	 1.2400340236	 0.118313
H	 1.9718309954	 0.069168094	-0.2391701499	 0.165151
H	 2.9922097885	 2.0752339633	-1.3986026368	 0.121175
H	 5.4263369171	 1.6476841937	-1.3709200038	 0.124969
H	 5.1557417057	 0.3790430515	 1.4566184628	 0.093076
35.4216	47.4156	86.0431	151.7455	208.5711	262.6543	306.49	350.4476	451.9811	460.3011	540.3734	554.2769	740.1626	837.7721	863.301	947.0644	976.5891	1019.381	1032.6254	1060.3238	1087.9431	1142.4743	1168.2805	1208.1931	1266.4705	1282.9214	1334.5071	1365.141	1410.3415	1428.4382	1469.3503	1472.547	1530.0048	1807.2105	1827.3186	2904.2222	2950.3494	3058.7193	3103.3791	3121.8319	3135.8481	3634.6082
O=CNCC1OC1C=O	O=CNC[C@H]1O[C@H]1C=O	
InChI=1S/C5H7NO3/c7-2-5-4(9-5)1-6-3-8/h2-5H,1H2,(H,6,8)	InChI=1S/C5H7NO3/c7-2-5-4(9-5)1-6-3-8/h2-5H,1H2,(H,6,8)/t4-,5+/m1/s1
