15
gdb 34134	2.98912	1.71287	1.38443	1.9051	76.21	-0.235	-0.0202	0.2148	938.8869	0.111876	-383.37356	-383.366731	-383.365787	-383.404569	27.934	
C	-0.0596189201	-1.1583494134	 0.1206080216	-0.351083
C	-0.0454284107	 0.0431997592	 0.0759159209	 0.071911
C	-0.0062896844	 1.4695103572	-0.0127408311	 0.399282
O	-0.6632310636	 2.2872666184	 1.0224447958	-0.353102
C	-0.0910753283	 3.2632229874	 0.0899842777	 0.038641
C	 1.2400443889	 2.4509009139	-0.0466343514	-0.137454
C	 1.6921210518	 2.5586082967	-1.4865508261	-0.109066
C	 0.5582261275	 2.5456317129	-2.1958876738	-0.109067
C	-0.5370047983	 2.4305682297	-1.1583119934	-0.137455
H	-0.076099357	-2.2195405386	 0.166625676	 0.189383
H	-0.2387341801	 4.3224924515	 0.3066476507	 0.097491
H	 1.9415263412	 2.4266328764	 0.7848344375	 0.088203
H	 2.7144750508	 2.620051961	-1.8317046762	 0.112056
H	 0.4204623198	 2.5938018853	-3.2667821517	 0.112056
H	-1.5909988975	 2.3862147925	-1.4250243166	 0.088203
129.3923	158.4947	334.7793	415.0559	492.0869	500.0368	542.8669	571.5749	638.2716	679.646	684.9691	735.9274	758.3256	784.2616	827.2748	912.6127	924.8353	928.274	941.7215	948.7897	989.782	1006.0864	1095.9849	1130.1833	1156.4383	1183.5805	1217.4028	1242.4922	1260.6604	1333.2482	1339.2142	1628.9623	2234.2804	3110.9859	3149.38	3152.3794	3221.6356	3246.7529	3499.4196
C#CC12OC3C1C=CC23	C#C[C@@]12O[C@H]3[C@@H]1C=C[C@@H]23	
InChI=1S/C8H6O/c1-2-8-5-3-4-6(8)7(5)9-8/h1,3-7H	InChI=1S/C8H6O/c1-2-8-5-3-4-6(8)7(5)9-8/h1,3-7H/t5-,6+,7-,8+
