17
gdb 10431	2.89334	1.82994	1.39616	0.7371	64.47	-0.2304	-0.034	0.1964	933.1327	0.14097	-400.964847	-400.956425	-400.955481	-400.99799	29.687	
C	-1.6238996131	-0.7144793168	-0.1545499325	-0.335795
N	-0.2725655664	-0.1551429573	-0.0324947646	-0.33784
C	 0.6473728589	-0.6164438193	-1.0453811787	 0.156353
C	 2.1673197849	-0.5347480215	-0.7000556019	-0.116956
O	 2.3635029428	-1.914574138	-1.0560059792	-0.269569
C	 0.9424791107	-2.1383484124	-1.0995529038	-0.107216
C	 0.4207487751	-0.0229811255	-2.4276818602	 0.132739
O	-0.3496756045	 0.8760178322	-2.6511310083	-0.26738
H	-2.1068395672	-0.5246680826	-1.1239116139	 0.120284
H	-1.5901998926	-1.7964631425	 0.0097871902	 0.123421
H	-2.2515347937	-0.2856602601	 0.6310837517	 0.126639
H	-0.3460589638	 0.8554152977	-0.1197137431	 0.229056
H	 2.7961465142	 0.137164381	-1.2951576839	 0.110973
H	 2.3185845729	-0.3445661755	 0.369438316	 0.117709
H	 0.5787927227	-2.6633892751	-0.2079346064	 0.11544
H	 0.638268555	-2.6834879457	-2.0001562104	 0.111468
H	 1.0564986539	-0.4576760687	-3.2331939612	 0.090674
94.2509	107.6808	125.4383	183.547	217.4469	280.6519	325.2878	374.8329	460.182	514.6035	757.775	794.4616	804.1672	893.1326	924.4915	972.5603	999.485	1037.7192	1065.0252	1085.4473	1151.7245	1160.9481	1171.4624	1188.4218	1235.9215	1291.6094	1302.8211	1380.4588	1412.3216	1460.6328	1491.1939	1492.9078	1500.3282	1525.4827	1526.7128	1823.2706	2870.2867	2999.9626	3015.1047	3024.8807	3071.127	3074.4834	3076.3792	3112.468	3499.5825
CNC1(COC1)C=O	CNC1(COC1)C=O	
InChI=1S/C5H9NO2/c1-6-5(2-7)3-8-4-5/h2,6H,3-4H2,1H3	InChI=1S/C5H9NO2/c1-6-5(2-7)3-8-4-5/h2,6H,3-4H2,1H3
