19
gdb 110689	2.8172	1.2523	1.15223	3.5966	81.39	-0.2359	-0.0511	0.1847	1173.8056	0.15994	-385.913563	-385.905346	-385.904402	-385.94665	31.499	
C	-0.245418872	 1.4839585593	 0.1305235928	-0.375138
C	 0.2206577054	 0.0448300707	-0.1188621918	-0.211112
C	 0.8081840061	-0.5905178932	 1.123423178	 0.008123
C	 0.0139527664	-1.2910650959	 2.2222408919	-0.113624
C	-1.3498838834	-1.7812296575	 1.8659255252	-0.060622
C	-1.3186911874	-2.7347900319	 0.9231936761	-0.202056
C	 0.0933872773	-3.0307802128	 0.5456468569	 0.395063
O	 0.4806027912	-3.8699162704	-0.2350178492	-0.338233
C	 0.9618490224	-2.088070961	 1.3578774127	-0.207908
H	 0.574857888	 2.1106905995	 0.4977340886	 0.115263
H	-0.6262911563	 1.9387376343	-0.7887562532	 0.116657
H	-1.0450536481	 1.514850182	 0.8782019449	 0.116317
H	-0.6123910108	-0.5522564569	-0.5001995765	 0.110364
H	 0.9873068328	 0.03508049	-0.9036236543	 0.110072
H	 1.6519960174	-0.0273426619	 1.5206338965	 0.097145
H	 0.2367552387	-1.0455621333	 3.2543672811	 0.099245
H	-2.2478999701	-1.3628399496	 2.3075142781	 0.116203
H	-2.1617997323	-3.2248561409	 0.4540152908	 0.115633
H	 1.9174690248	-2.4592233605	 1.7065152313	 0.108607
75.6497	97.9945	194.662	214.8865	252.343	342.5184	440.6565	462.9526	515.1712	625.1347	732.808	749.631	761.2366	777.6468	815.8453	852.251	871.933	918.8177	951.7034	975.7766	995.1188	1015.9542	1049.5079	1082.8481	1110.2656	1115.6027	1128.6537	1180.3282	1216.2322	1290.6659	1312.6522	1328.0058	1347.4049	1367.717	1410.7085	1432.7673	1484.2792	1498.6429	1506.2523	1629.1927	1808.4065	3031.7856	3035.7269	3080.6622	3101.9335	3108.137	3117.7124	3173.5709	3190.6784	3195.434	3229.1531
CCC1C2C=CC(=O)C12	CC[C@H]1[C@H]2C=CC(=O)[C@@H]12	
InChI=1S/C8H10O/c1-2-5-6-3-4-7(9)8(5)6/h3-6,8H,2H2,1H3	InChI=1S/C8H10O/c1-2-5-6-3-4-7(9)8(5)6/h3-6,8H,2H2,1H3/t5-,6+,8-/m0/s1
