16
gdb 37548	4.1587	1.71759	1.48032	2.8909	73.47	-0.2211	0.011	0.2321	877.773	0.127042	-396.796569	-396.790607	-396.789663	-396.826631	25.017	
C	 0.0083113442	 1.4891250534	 0.1028808185	-0.301
N	 1.4605876162	 1.8521197113	 0.0440702218	-0.242917
C	 2.0931708804	 0.8673727298	-0.4859187302	 0.032941
N	 1.3008112698	-0.1802783789	-0.9699865312	-0.134737
C	 1.051041874	-1.561947396	-0.440151233	-0.051306
C	 0.4938120163	-1.0881350275	 0.9382024561	-0.073088
N	-0.8298879923	-1.7768212625	 0.8167616681	-0.342022
C	-0.5168206066	-1.3708575395	-0.5872513879	-0.143475
C	 0.0818089018	-0.0004040588	-0.1319483881	 0.373999
H	-0.4156418044	 1.764545969	 1.0701230221	 0.128248
H	-0.5315722494	 2.0316742669	-0.6833032917	 0.122829
H	 3.1630715074	 0.8966599807	-0.671009623	 0.122773
H	 1.6578825898	-2.4317277907	-0.6963823316	 0.095268
H	 1.0192127905	-0.9534631266	 1.8840441014	 0.098423
H	-0.7143352981	-2.7877467404	 0.9245306397	 0.214224
H	-1.1498211197	-1.5874539804	-1.447212051	 0.099839
186.2094	288.4899	320.6838	455.7216	566.2481	572.8705	697.8512	708.0046	728.6999	803.9321	825.6944	855.3699	895.7329	904.9601	912.2619	950.4075	976.3136	997.2334	1030.0002	1071.401	1081.7262	1108.7419	1125.7708	1150.7298	1183.1444	1195.2838	1205.8604	1244.2525	1250.1554	1289.7097	1296.9335	1324.0839	1365.4875	1478.5863	1617.1864	3034.8745	3105.862	3113.6366	3120.019	3132.2379	3183.1243	3409.4469
C1N=CN2C3C4NC3C124	C1[N][CH]N2[C@H]3[C@@H]4N[C@H]3[C@]124	
InChI=1S/C6H7N3/c1-6-4-3(5(6)8-4)9(6)2-7-1/h2-5,8H,1H2	InChI=1S/C6H7N3/c1-6-4-3(5(6)8-4)9(6)2-7-1/h2-5,8H,1H2/t3-,4-,5+,6+
