20
gdb 78452	2.86612	1.59854	1.30035	1.5379	78.25	-0.2142	0.0698	0.284	1043.0805	0.172651	-403.071664	-403.063896	-403.062952	-403.103468	31.635	
C	-0.0688742032	 1.594118998	 0.018523933	-0.433416
C	 0.0308919926	 0.0779847084	-0.1168609708	 0.018744
C	 0.4687177061	-0.7866470699	-1.2545721505	-0.064711
C	 1.5804483473	-0.4294452341	-2.2439705645	-0.069646
C	 2.7141597269	-1.3523181863	-1.6509816932	-0.207901
C	 2.5506179014	-0.35711497	-0.4566481222	-0.050916
C	 2.3358602382	 0.7335561958	-1.559136892	 0.133004
O	 3.5019576468	 1.0676679289	-2.2927114505	-0.451123
N	 1.2192378694	-0.8006232312	 0.0500914435	-0.138966
H	-0.1410104092	 2.1093009287	-0.9427461628	 0.136518
H	-0.9713326377	 1.840288685	 0.5855347872	 0.116509
H	 0.7777329578	 2.0140646491	 0.5694460223	 0.131208
H	-0.7790011635	-0.4022237803	 0.432268191	 0.096773
H	-0.1227596767	-1.6696824889	-1.4920786241	 0.09103
H	 1.3369397146	-0.4002324258	-3.3055704913	 0.071233
H	 2.454248236	-2.3914807528	-1.441527687	 0.099662
H	 3.6617140671	-1.2655442027	-2.1767941928	 0.116598
H	 3.2921446922	-0.2480561459	 0.3361531073	 0.0642
H	 1.7920487699	 1.6410233783	-1.3131253983	 0.05856
H	 4.0489137539	 1.6264624357	-1.7317428645	 0.282638
120.6531	216.2654	237.3597	271.5536	301.6685	314.1916	433.6625	500.2709	522.2699	636.07	676.9506	714.3987	745.9361	832.9551	852.1824	873.7258	905.1189	920.2455	973.2883	985.2837	1014.6441	1058.6144	1067.5179	1081.9933	1104.3165	1108.1388	1116.9009	1132.2853	1157.4582	1199.1194	1229.9204	1237.3174	1255.8553	1283.4153	1297.4776	1321.1126	1377.0867	1411.5667	1433.5645	1436.7375	1488.7273	1500.8758	1507.0937	3041.122	3087.4418	3088.5177	3105.4919	3106.5151	3111.9236	3114.5921	3125.9977	3153.3634	3177.0442	3817.3901
CC1C2C3CC(C3O)N12	C[C@H]1[C@H]2[C@@H]3C[C@@H]([C@H]3O)N12	
InChI=1S/C7H11NO/c1-3-6-4-2-5(7(4)9)8(3)6/h3-7,9H,2H2,1H3	InChI=1S/C7H11NO/c1-3-6-4-2-5(7(4)9)8(3)6/h3-7,9H,2H2,1H3/t3-,4-,5-,6-,7-,8?/m0/s1
