20
gdb 8156	3.68034	1.72383	1.43322	1.2753	74.85	-0.2288	0.085	0.3137	969.7094	0.176963	-349.008651	-349.000656	-348.999712	-349.040589	31.217	
C	 0.1357382875	 1.5212526972	 0.0657450318	-0.403413
C	 0.0701276167	 0.0088375054	-0.0514000554	 0.154499
C	 0.8250796755	-0.6045520471	-1.2539182663	-0.259638
C	 1.3345406185	-1.9312900973	-0.6989012528	-0.107364
C	 2.543032234	-1.8787337989	 0.2227719644	-0.334529
C	 1.1488428893	-1.8631358281	 0.793261402	 0.444952
C	 0.6021689786	-2.9620521224	 1.662547256	-0.46297
O	 0.6706344172	-0.5732776003	 1.1159224916	-0.312845
H	 1.1771053367	 1.8550106779	 0.1122480323	 0.118959
H	-0.3442849103	 1.9928278573	-0.7977738193	 0.113073
H	-0.3751326837	 1.8616469417	 0.9707713901	 0.124873
H	-0.9850582899	-0.3087209776	-0.0965937587	 0.064692
H	 0.1617793446	-0.7459629659	-2.111935778	 0.101203
H	 1.6449682645	 0.0485898847	-1.5757262752	 0.099251
H	 1.1422667374	-2.8465989427	-1.2469807788	 0.086273
H	 3.131242953	-2.7852803675	 0.3274362068	 0.105027
H	 3.1109036557	-0.9552183191	 0.2699729017	 0.110105
H	 1.0051334751	-3.9331901045	 1.3598842434	 0.113318
H	 0.8710914056	-2.7956960747	 2.7110832725	 0.126473
H	-0.4902781958	-3.0057700881	 1.5970279119	 0.118062
88.5764	193.3209	214.6505	237.3735	266.5384	361.3017	390.8864	432.1508	468.1637	589.814	617.7682	753.6199	821.0376	838.5005	859.1951	898.3077	917.1918	953.3408	979.9184	993.5632	1045.6393	1057.0405	1089.8858	1116.3503	1124.7378	1145.6573	1164.0965	1228.8599	1241.5237	1276.9083	1303.2533	1365.9769	1389.1475	1391.5587	1411.9454	1423.5046	1478.2141	1480.0811	1484.1326	1494.4267	1498.5543	1502.6417	2956.4562	3031.3544	3032.3895	3039.1691	3089.2562	3096.1193	3109.4955	3111.656	3117.477	3121.2979	3170.9702	3212.6802
CC1CC2CC2(C)O1	C[C@H]1C[C@H]2C[C@@]2(C)O1	
InChI=1S/C7H12O/c1-5-3-6-4-7(6,2)8-5/h5-6H,3-4H2,1-2H3	InChI=1S/C7H12O/c1-5-3-6-4-7(6,2)8-5/h5-6H,3-4H2,1-2H3/t5-,6-,7+/m0/s1
