21
gdb 81941	2.11618	1.79717	1.09534	1.8888	84.83	-0.2234	0.0141	0.2375	1176.8864	0.181262	-387.096828	-387.087535	-387.086591	-387.130388	35.233	
C	-0.1356205614	 1.5419539827	-0.0325886866	-0.39575
C	 0.0161527234	 0.0134394913	 0.0052475503	-0.104113
C	 0.8313690058	-0.5291863738	-1.1652467069	 0.029209
O	 2.1750462532	-0.0402321725	-1.2212646638	-0.264219
C	 1.9257687293	-1.3371935609	-0.6191132586	-0.052946
C	 1.8138982075	-1.2937750857	 0.8737142763	 0.211449
C	 2.7985478043	-2.013442116	 1.7416815179	-0.508158
C	 0.7715879277	-0.5208176422	 1.22470861	 0.204597
C	 0.3330459482	-0.1435918311	 2.6055069596	-0.496928
H	 0.8501728897	 2.0135419412	-0.0663275994	 0.135932
H	-0.6949383385	 1.8539142769	-0.9205091	 0.113857
H	-0.6723344645	 1.9140914262	 0.8450385198	 0.112336
H	-0.9877894463	-0.4374606482	-0.0236800391	 0.076252
H	 0.3637858449	-0.7164450573	-2.1288993402	 0.088614
H	 2.3855232647	-2.1747583575	-1.1373331062	 0.088285
H	 3.8106787823	-1.6108626423	 1.6066854571	 0.134756
H	 2.5504838829	-1.9439465917	 2.8033091514	 0.123666
H	 2.8491722669	-3.0781672802	 1.4802393039	 0.124013
H	 0.8948831678	-0.6737677464	 3.3778405118	 0.123418
H	 0.4579459215	 0.9315201329	 2.7856786861	 0.133279
H	-0.7326775496	-0.3619445852	 2.7531273167	 0.122449
108.3854	144.1979	166.1332	190.9246	227.5427	243.9579	261.1835	291.9951	383.5344	474.1591	503.3028	578.0797	615.5167	684.3979	731.274	826.3662	857.1704	873.8719	912.5736	976.8791	1002.8282	1009.1095	1042.6825	1064.033	1089.9779	1104.0632	1122.6107	1144.5539	1195.1759	1241.0238	1262.9885	1302.8044	1330.9537	1350.6885	1398.3438	1407.9227	1418.8805	1425.8397	1478.2228	1481.535	1484.9141	1492.0503	1499.9796	1504.6002	1719.4122	2987.6918	3017.0369	3019.0043	3039.1692	3061.2911	3062.0174	3104.2545	3114.1751	3120.6699	3123.709	3136.9066	3152.3435
CC1C2OC2C(C)=C1C	C[C@H]1[C@H]2O[C@H]2C(=C1C)C	
InChI=1S/C8H12O/c1-4-5(2)7-8(9-7)6(4)3/h5,7-8H,1-3H3	InChI=1S/C8H12O/c1-4-5(2)7-8(9-7)6(4)3/h5,7-8H,1-3H3/t5-,7-,8+/m1/s1
