18
gdb 10828	4.53298	1.46263	1.16479	4.5842	68.11	-0.2567	0.014	0.2707	1029.7701	0.154878	-384.993988	-384.986232	-384.985288	-385.02618	28.933	
C	-0.179139082	 1.5342854601	 0.0401614957	-0.407716
C	 0.0210906952	 0.0176456044	-0.015957034	 0.003406
C	 0.7496236033	-0.4437876811	-1.2805199299	-0.213039
C	 0.8909351791	-1.9674938143	-1.2645863332	-0.340993
C	 1.3441143269	-2.5705618262	 0.0592681321	 0.405623
O	 1.8126885766	-3.673263738	 0.1410917289	-0.323124
O	 1.1281433808	-1.8635238722	 1.1961070847	-0.231839
C	 0.8261277916	-0.4581747243	 1.1891802232	-0.05558
H	 0.7817942453	 2.0603439081	 0.0075380973	 0.121026
H	-0.775564405	 1.878425943	-0.8101282089	 0.122728
H	-0.6962495065	 1.8378007087	 0.9563527155	 0.120254
H	-0.9628870562	-0.4712699003	 0.0163245228	 0.084895
H	 0.2163280524	-0.1233941435	-2.1818922756	 0.10333
H	 1.7402869383	 0.0294613337	-1.3171995619	 0.105062
H	-0.0824499191	-2.4311460206	-1.4739414773	 0.138984
H	 1.5745530486	-2.3364305854	-2.0324318892	 0.136252
H	 1.7768077416	 0.0915977585	 1.2397278859	 0.109861
H	 0.2891234392	-0.2788557606	 2.1248593737	 0.120869
76.9442	146.9633	210.9747	222.1055	283.2129	397.6091	417.9531	441.1012	517.3933	576.2989	702.947	758.9619	812.5631	889.3272	930.2698	957.5979	976.5776	1030.1557	1073.7496	1116.2656	1125.8504	1163.381	1197.039	1221.1722	1266.283	1298.5805	1330.5073	1349.6872	1367.2802	1391.0431	1411.7107	1434.6289	1462.458	1493.5699	1497.5282	1501.9004	1515.3608	1841.8073	3002.6003	3011.4472	3022.275	3031.6812	3033.405	3070.1894	3087.4587	3098.8778	3107.3515	3109.4514
CC1CCC(=O)OC1	C[C@H]1CCC(=O)OC1	
InChI=1S/C6H10O2/c1-5-2-3-6(7)8-4-5/h5H,2-4H2,1H3	InChI=1S/C6H10O2/c1-5-2-3-6(7)8-4-5/h5H,2-4H2,1H3/t5-/m0/s1
