15
gdb 127516	2.68984	1.33948	0.89929	3.632	73.36	-0.2322	-0.0635	0.1687	1210.5987	0.112632	-453.977319	-453.968858	-453.967914	-454.011299	29.942	
C	-0.0128234509	 1.3600493642	-0.0445994084	-0.334216
N	 0.0219314616	-0.0880258468	 0.0414308341	-0.039598
N	 0.0460083196	-0.8102092985	-1.0950205919	-0.35326
C	 0.0761409107	-2.0842571121	-0.6956790884	 0.457609
O	 0.1061208328	-3.0950430349	-1.5842652564	-0.42689
C	 0.0720904826	-2.2041774448	 0.6981785224	-0.398935
C	 0.036500404	-0.8882352571	 1.148416991	 0.299834
C	 0.0161298435	-0.3791506911	 2.5162455294	 0.079472
O	 0.0299298413	-1.0869886762	 3.4986541116	-0.266798
H	 0.8657619188	 1.8057405863	 0.4308859251	 0.149319
H	-0.0138423687	 1.6133774537	-1.1039067593	 0.167102
H	-0.9166215949	 1.7624050066	 0.4221989311	 0.149304
H	 0.1007798673	-2.7038714569	-2.4669978806	 0.306271
H	 0.0913700678	-3.0938869243	 1.3032694154	 0.141127
H	-0.0131318755	 0.7283819318	 2.610070585	 0.069658
39.01	133.9007	177.1818	186.289	210.6003	298.3173	381.3227	408.4622	430.9852	540.7609	642.1088	650.9264	694.8775	709.1054	827.5461	868.2048	1022.9619	1025.1062	1082.931	1146.1546	1164.2359	1176.1299	1239.0899	1346.0646	1401.2191	1424.8191	1460.3009	1487.7226	1496.6195	1516.5118	1566.1031	1598.228	1785.3554	2891.213	3045.7312	3107.7032	3167.9144	3292.1192	3795.7983
CN1N=C(O)C=C1C=O	Cn1nc(O)cc1C=O	
InChI=1S/C5H6N2O2/c1-7-4(3-8)2-5(9)6-7/h2-3H,1H3,(H,6,9)	InChI=1S/C5H6N2O2/c1-7-4(3-8)2-5(9)6-7/h2-3H,1H3,(H,6,9)
