23
gdb 99662	2.46015	1.07583	0.79214	0.6164	92.02	-0.2556	0.0556	0.3112	1519.8307	0.204403	-351.119717	-351.109551	-351.108607	-351.155103	37.938	
C	-0.0755643493	 1.5779848406	 0.0413681979	-0.390708
C	-0.0398843262	 0.0528747362	-0.0710489853	-0.17567
C	 0.7910610647	-0.4665149196	-1.2678842635	-0.185596
C	 2.1951734878	-0.068777517	-1.1631422572	 0.344402
C	 3.3554481263	 0.2313535859	-1.0588538869	-0.479967
C	 0.6769557791	-1.9915300023	-1.4157318088	 0.063461
C	-0.6980157492	-2.605284065	-1.8079306065	-0.23683
C	 0.059462669	-3.6206313812	-2.7058033505	-0.219303
C	 1.2930968335	-2.6786525464	-2.6650689683	-0.232011
H	 0.9330785327	 1.9853007368	 0.156432964	 0.131739
H	-0.5188783097	 2.0307335959	-0.8527185671	 0.111671
H	-0.6705132464	 1.8933581108	 0.9039067487	 0.111094
H	 0.3678671538	-0.380148635	 0.8503091354	 0.102937
H	-1.0592758487	-0.3362739827	-0.1777225368	 0.100608
H	 0.3791317287	-0.014000734	-2.1833798208	 0.092542
H	 4.3783621457	 0.5042447097	-0.9780621503	 0.191887
H	 1.0561202441	-2.465011694	-0.5030426406	 0.076269
H	-1.3317721671	-2.9981254549	-1.0092813806	 0.096501
H	-1.2891159537	-1.9029532312	-2.406179363	 0.096899
H	 0.2496434213	-4.5610312257	-2.1806927056	 0.102465
H	-0.3714023942	-3.8517713429	-3.6826104085	 0.096345
H	 1.3101164737	-1.9976261534	-3.5224081336	 0.099838
H	 2.2829877843	-3.127459341	-2.5615737321	 0.101427
70.4423	90.4246	119.8201	128.2984	161.9847	207.3715	260.9666	315.303	361.6489	409.7575	479.6867	548.3606	621.9735	632.1924	662.6636	759.5433	782.522	798.375	876.6306	901.3753	932.5169	946.338	963.636	978.1193	1037.2812	1045.2751	1082.8771	1112.7467	1129.7697	1171.7093	1201.2158	1226.929	1253.4571	1260.9292	1268.1451	1278.232	1292.5064	1299.942	1344.6196	1366.6282	1380.9485	1411.8813	1477.3985	1485.447	1486.6663	1498.1345	1507.7242	1509.712	2228.0732	2983.2001	3029.0902	3034.4296	3040.9343	3044.0288	3053.2113	3058.8312	3067.3423	3097.0389	3100.7949	3106.2822	3115.7874	3119.6606	3503.7671
CCC(C#C)C1CCC1	CC[C@@H](C#C)C1CCC1	
InChI=1S/C9H14/c1-3-8(4-2)9-6-5-7-9/h1,8-9H,4-7H2,2H3	InChI=1S/C9H14/c1-3-8(4-2)9-6-5-7-9/h1,8-9H,4-7H2,2H3/t8-/m1/s1
