20
gdb 19786	2.83039	2.47747	1.73222	0.3628	76.56	-0.2404	0.0792	0.3196	849.9883	0.179418	-311.851812	-311.844858	-311.843913	-311.882413	28.896	
C	 0.0035798871	 1.5885666687	 0.0115194254	-0.385455
C	 0.0490912915	 0.0554458367	 0.0022214265	-0.004407
C	 0.7243875966	-0.5658650125	-1.2318872838	-0.039361
C	 2.189270503	-0.3321296264	-1.5117887316	-0.300018
C	 1.7559950907	-1.5737809395	-0.7697490433	-0.037808
C	 1.7581935235	-1.5828917231	 0.7496359065	-0.037809
C	 2.1935980197	-0.3502119515	 1.505268029	-0.300015
C	 0.7279144056	-0.5806477075	 1.2268283346	-0.039363
H	 1.0103134537	 2.0179578604	 0.0126670817	 0.112106
H	-0.5202388974	 1.9712594774	-0.870665394	 0.109585
H	-0.5177159965	 1.9605877084	 0.8997416114	 0.109585
H	-0.9876003621	-0.3068045251	 0.0015215577	 0.072775
H	 0.0873426264	-0.7692639564	-2.0868347223	 0.077474
H	 2.512679874	-0.4607321134	-2.5398602375	 0.10471
H	 2.7289640412	 0.4486560712	-0.9895571422	 0.109407
H	 1.8712326628	-2.5308661244	-1.2658193427	 0.078503
H	 1.8749029162	-2.5458465055	 1.2338621166	 0.078503
H	 2.5199982667	-0.4911363246	 2.5307755278	 0.10471
H	 2.7317444097	 0.4368281521	 0.9908875823	 0.109407
H	 0.0933211775	-0.794300505	 2.0810979379	 0.077473
163.6892	203.6822	233.0011	347.5844	354.5485	489.3847	520.0549	642.3708	668.8298	701.0524	781.9122	807.7252	812.8082	830.2037	928.0898	931.4572	950.7743	974.4894	1026.7543	1031.7852	1043.4581	1051.6961	1071.2845	1073.3876	1093.9861	1107.2286	1115.1058	1142.6781	1151.1198	1205.2198	1219.3338	1304.3605	1322.1602	1347.5402	1358.7075	1381.6312	1391.2366	1411.781	1479.6089	1495.3947	1497.9152	1509.3086	3011.5499	3032.0687	3098.1523	3103.9434	3130.2508	3136.6644	3148.9339	3151.8889	3162.4756	3176.4994	3209.8371	3218.8974
CC1C2CC2C2CC12	C[C@H]1[C@H]2C[C@H]2[C@H]2C[C@@H]12	
InChI=1S/C8H12/c1-4-5-2-7(5)8-3-6(4)8/h4-8H,2-3H2,1H3	InChI=1S/C8H12/c1-4-5-2-7(5)8-3-6(4)8/h4-8H,2-3H2,1H3/t4-,5+,6-,7+,8-
