19
gdb 73372	2.44097	2.16156	1.58097	1.2685	72.82	-0.2434	0.077	0.3203	914.9932	0.161525	-423.009272	-423.002402	-423.001458	-423.040062	28.74	
C	-0.0271578381	 1.4625015755	 0.0019146504	-0.502025
C	 0.004987532	-0.0528659854	-0.0037361033	 0.267711
C	 0.6316123722	-0.7149295835	-1.2377999818	-0.1126
O	 0.3305690621	-2.1170719581	-1.0836808069	-0.278093
C	-0.7132060802	-2.1893306717	-0.1458829708	 0.103689
C	-0.3844923965	-1.887003298	 1.3620911733	 0.032677
C	 0.6459509296	-0.7536885166	 1.2413086961	-0.25695
O	-1.6339067815	-1.1334252512	 1.4369947643	-0.300809
C	-1.3713543151	-0.8170124602	 0.053814555	 0.015249
H	 0.9827699126	 1.8863256656	 0.0345846078	 0.118736
H	-0.5235093749	 1.854609022	-0.8931989227	 0.115058
H	-0.57067451	 1.8302486794	 0.8780131304	 0.130912
H	 0.1951185858	-0.3426007903	-2.1775979186	 0.092012
H	 1.7181551774	-0.589241922	-1.2888432224	 0.109012
H	-1.3515186725	-3.0534979448	-0.3220600258	 0.094734
H	-0.2763408893	-2.6452825351	 2.1371590843	 0.078797
H	 1.6659074776	-1.0995988033	 1.054791317	 0.104891
H	 0.6314431453	-0.1274274484	 2.1363633222	 0.106517
H	-2.2223928065	-0.4220638939	-0.5007909787	 0.080482
212.9846	229.8017	248.6249	321.0523	403.2298	426.6009	504.4196	596.6867	625.9377	697.2877	763.2614	803.0835	841.245	874.8544	899.4815	941.5404	954.8375	963.4683	973.4172	987.7528	1032.8941	1047.5353	1069.2712	1107.906	1161.1287	1178.6014	1197.0285	1213.3298	1214.4884	1242.0583	1263.0816	1282.3445	1296.1156	1325.3779	1352.2357	1396.5457	1415.9016	1477.4911	1494.2532	1499.9981	1523.0929	2984.2464	3026.0133	3063.4395	3068.9433	3088.7342	3101.2258	3118.4204	3122.3467	3124.8651	3142.9712
CC12COC3C(C1)OC23	C[C@@]12CO[C@H]3[C@@H](C1)O[C@@H]23	
InChI=1S/C7H10O2/c1-7-2-4-5(8-3-7)6(7)9-4/h4-6H,2-3H2,1H3	InChI=1S/C7H10O2/c1-7-2-4-5(8-3-7)6(7)9-4/h4-6H,2-3H2,1H3/t4-,5+,6-,7+/m1/s1
