18
gdb 43855	2.8622	1.48243	1.10668	4.164	78.72	-0.2307	-0.0304	0.2004	1109.4783	0.149267	-401.98297	-401.975233	-401.974288	-402.015158	30.681	
O	-0.0559015661	-0.0073978816	-0.2077631141	-0.381882
C	-0.0234992845	 1.1995449159	-0.0389264824	 0.381873
N	-1.1597153086	 1.9423238652	 0.1904522488	-0.385759
C	-1.1835301508	 3.3796111512	 0.0887664834	 0.374501
C	-1.7487813678	 4.0160453081	-1.165634187	-0.298061
C	-2.5160529464	 4.0610938918	 0.1410647765	-0.334405
C	 0.0268373579	 4.0038165305	 0.7573966498	-0.322952
C	 1.2803713896	 3.2537314454	 0.3880112506	-0.072334
C	 1.2429193616	 1.9764358859	 0.0030800657	-0.139501
H	-2.0237557228	 1.4293613964	 0.0900710462	 0.242524
H	-1.2985971361	 4.9330043544	-1.5310690397	 0.116894
H	-2.1144427739	 3.3526211315	-1.9415447071	 0.119978
H	-3.4013875655	 3.4394191537	 0.2327321996	 0.117666
H	-2.586469809	 5.0050355532	 0.6713053323	 0.121704
H	 0.1074958318	 5.0566495112	 0.468542645	 0.113244
H	-0.0905795871	 3.9909572179	 1.8520493648	 0.125843
H	 2.229444578	 3.7760904486	 0.4771822635	 0.107059
H	 2.1335830498	 1.4095247607	-0.2410525958	 0.113606
102.2746	114.5235	263.0271	303.4641	337.38	414.9843	463.5928	482.7186	514.7638	548.6902	648.7256	666.3187	766.2204	806.8648	836.6598	874.2225	917.8997	931.8724	984.7424	988.0524	1005.9853	1010.5945	1025.59	1054.2073	1081.9582	1164.734	1186.267	1207.9402	1282.6285	1310.5423	1356.4269	1359.2225	1408.9953	1449.4395	1464.661	1473.2355	1505.9541	1690.797	1782.1458	2992.6684	3071.895	3125.2576	3132.2924	3160.9061	3205.53	3210.9195	3223.9756	3608.9662
O=C1NC2(CC2)CC=C1	O=C1NC2(CC2)CC=C1	
InChI=1S/C7H9NO/c9-6-2-1-3-7(8-6)4-5-7/h1-2H,3-5H2,(H,8,9)	InChI=1S/C7H9NO/c9-6-2-1-3-7(8-6)4-5-7/h1-2H,3-5H2,(H,8,9)
