21
gdb 121818	2.90665	0.86836	0.80481	2.3358	75.7	-0.2582	-0.0322	0.226	1519.2345	0.177904	-461.362339	-461.351236	-461.350291	-461.399973	38.978	
C	 0.0132910702	 1.6065292246	 0.0305290899	-0.426979
C	-0.0881445296	 0.070684469	 0.0496261513	 0.27584
C	 0.755280006	-0.5369008861	 1.1780235358	-0.425918
O	-1.4438017393	-0.3777983707	 0.0679107271	-0.31175
C	-2.2589495547	-0.0179490024	 1.1742516303	-0.088673
C	-3.5423325312	-0.8233735444	 1.0286825449	-0.055339
O	-3.2864249975	-2.2125872823	 1.0509692663	-0.419613
C	 0.4269370531	-0.4400009003	-1.3027318229	 0.143475
O	 1.5859522841	-0.4472493745	-1.6211321598	-0.257291
H	 1.0486525866	 1.9007835903	-0.1589799197	 0.143149
H	-0.6199262958	 2.0279767194	-0.7560817215	 0.127165
H	-0.2942645307	 2.0314437138	 0.9900873295	 0.124186
H	 0.5419117313	-0.0655373155	 2.1409924509	 0.119701
H	 0.5618095823	-1.6100727509	 1.2631027522	 0.126958
H	 1.8133943513	-0.3921270077	 0.9477912859	 0.145924
H	-1.7705515315	-0.2766822988	 2.1230780101	 0.103635
H	-2.4811722751	 1.059117061	 1.1754458104	 0.094005
H	-4.2112912422	-0.6021657918	 1.8667362306	 0.109692
H	-4.0512813014	-0.520365941	 0.0997037068	 0.093499
H	-2.5870047863	-2.3576648914	 0.4031505934	 0.286058
H	-0.3822724694	-0.7905616705	-1.9798106317	 0.092275
32.5806	37.4389	80.3921	139.7796	177.7282	214.5288	257.2065	280.4523	288.6934	295.7673	368.9182	413.9509	428.1554	449.6868	497.2803	649.0652	758.5056	840.9652	909.5673	912.619	937.8519	959.5877	1004.1601	1035.7095	1080.8175	1110.9544	1136.276	1196.9506	1203.7512	1230.6597	1261.958	1273.4254	1379.4773	1384.7688	1388.5299	1406.5698	1411.1134	1438.6826	1481.1206	1483.7983	1498.5137	1498.7631	1502.7159	1514.1176	1840.4962	2902.419	2981.0184	2995.3013	3040.6331	3045.732	3050.4229	3080.9575	3116.0521	3121.3215	3128.9796	3135.3161	3798.7105
CC(C)(OCCO)C=O	CC(C)(OCCO)C=O	
InChI=1S/C6H12O3/c1-6(2,5-8)9-4-3-7/h5,7H,3-4H2,1-2H3	InChI=1S/C6H12O3/c1-6(2,5-8)9-4-3-7/h5,7H,3-4H2,1-2H3
