18
gdb 15047	3.15651	1.51469	1.15625	3.1815	71.58	-0.256	0.0247	0.2806	1075.9037	0.154024	-343.976526	-343.96788	-343.966935	-344.010034	30.881	
C	 0.1283935567	 1.4906520514	-0.1151976344	-0.401409
C	-0.0219132241	-0.0297578749	-0.0515454345	-0.171797
C	-1.4904016101	-0.5099123012	 0.0660543689	-0.159338
C	-2.2728934498	-0.0740687262	-1.095040805	 0.27645
N	-2.8752004696	 0.2450344508	-2.0291411004	-0.340808
C	-1.571658589	-2.0262882679	 0.2489490145	 0.0137
C	-2.766327764	-2.8168807739	-0.1278911445	-0.25756
N	-1.5073544465	-2.9508739845	-0.8873833185	-0.316799
H	 1.1836745847	 1.7704977957	-0.1780505816	 0.124676
H	-0.381695855	 1.9055725769	-0.9898324797	 0.144145
H	-0.2912913497	 1.9693287205	 0.7764669508	 0.11948
H	 0.4289373835	-0.4957386546	-0.9344628627	 0.123431
H	 0.5142752513	-0.4249301237	 0.8185865509	 0.110851
H	-1.9361455051	-0.0362390869	 0.9522612095	 0.130394
H	-0.987300732	-2.3557264296	 1.1062860602	 0.102206
H	-3.0437610733	-3.6872618794	 0.459289975	 0.123155
H	-3.5960115351	-2.2960684232	-0.5974523711	 0.135823
H	-1.5897844728	-2.4371750593	-1.7633685374	 0.2434
73.7694	99.6329	143.6764	183.7002	190.1893	259.789	333.285	389.818	426.6912	567.7662	638.6809	748.7625	792.1684	842.7228	873.967	937.6476	951.0354	987.2354	1025.4149	1051.8233	1106.8637	1121.7191	1144.1815	1154.0743	1194.4475	1257.4065	1274.9799	1293.872	1314.1538	1352.5064	1366.2794	1409.957	1419.7619	1486.9372	1498.8525	1506.6215	1513.3329	2350.7858	3014.2276	3037.4284	3041.9255	3079.4713	3108.3564	3115.7414	3117.7075	3123.0994	3203.7666	3482.6087
CCC(C#N)C1CN1	CC[C@@H](C#N)[C@H]1CN1	
InChI=1S/C6H10N2/c1-2-5(3-7)6-4-8-6/h5-6,8H,2,4H2,1H3	InChI=1S/C6H10N2/c1-2-5(3-7)6-4-8-6/h5-6,8H,2,4H2,1H3/t5-,6+/m0/s1
