22
gdb 7582	2.84375	1.55581	1.51702	1.4199	77.28	-0.2572	0.0676	0.3249	1024.1512	0.199056	-350.200165	-350.190891	-350.189947	-350.2334	35.49	
C	 0.0755408361	 1.5315907075	-0.0441252358	-0.419946
C	-0.0250045235	 0.0105718508	 0.0933327826	 0.094769
O	 0.6636501481	-0.4378208474	 1.2605918574	-0.441128
C	-1.46620753	-0.5461098711	 0.040087835	 0.357162
C	-2.3623518932	 0.0360282723	 1.1307934081	-0.484095
C	-2.0434512115	-0.5177264097	-1.4144695964	-0.264006
C	-1.6672871959	-2.0143667914	-1.5816888512	-0.210005
C	-1.4398893262	-2.1059696532	-0.0491231958	-0.257099
H	 1.1262449182	 1.8316778752	-0.0814595114	 0.123329
H	-0.4182009432	 1.8914825418	-0.9517674006	 0.119597
H	-0.3877767741	 2.0393420726	 0.8096532569	 0.109033
H	 0.533701068	-0.4465481485	-0.7333767151	 0.081288
H	 0.3078950052	 0.0436618933	 2.0147598375	 0.276882
H	-2.5064176314	 1.1159721836	 1.0171515986	 0.114701
H	-3.3522768221	-0.4302117976	 1.1023918132	 0.11377
H	-1.9518366136	-0.1484369674	 2.1314558678	 0.103601
H	-3.1248716943	-0.3523572845	-1.4201294278	 0.093883
H	-1.5901641101	 0.189906057	-2.1146896125	 0.091707
H	-2.4327606716	-2.6672982976	-2.0069370155	 0.094796
H	-0.7477011791	-2.1561773046	-2.1554777862	 0.102602
H	-0.5229300633	-2.5836646128	 0.3013606507	 0.11119
H	-2.2873220624	-2.5607653784	 0.4722090406	 0.08797
95.0504	103.5243	205.9805	233.3033	248.5803	273.633	285.861	321.425	335.8412	415.556	484.5393	492.8619	651.2376	707.1711	784.0118	815.3939	872.5377	904.7262	926.4032	948.519	970.1358	989.2029	1027.219	1046.9903	1090.6134	1109.7776	1157.1177	1176.0858	1211.4553	1218.4818	1256.0233	1276.5722	1279.7002	1298.0104	1321.7134	1368.5548	1404.6019	1410.0729	1421.7066	1476.7853	1484.2355	1488.6096	1492.0612	1501.0853	1506.8567	1509.1615	3019.7981	3026.701	3035.1231	3046.6226	3056.1131	3062.8999	3082.7826	3089.1181	3095.1403	3102.711	3107.6623	3118.988	3121.6527	3811.0715
CC(O)C1(C)CCC1	C[C@@H](O)C1(C)CCC1	
InChI=1S/C7H14O/c1-6(8)7(2)4-3-5-7/h6,8H,3-5H2,1-2H3	InChI=1S/C7H14O/c1-6(8)7(2)4-3-5-7/h6,8H,3-5H2,1-2H3/t6-/m1/s1
