18
gdb 22670	5.60118	0.82603	0.74408	1.7304	81.76	-0.2253	-0.0324	0.1929	1502.2424	0.14671	-439.046281	-439.03729	-439.036345	-439.080606	32.821	
C	-0.0011795292	 1.4383094393	-0.080690945	-0.238334
O	 0.1660821983	 0.0482321966	 0.0793549482	-0.241788
C	 0.6437376662	-0.6163832353	-1.0803694155	 0.086796
C	 1.1155286593	-2.0358272225	-0.6909393306	-0.334074
C	 0.477180309	-2.94556592	-1.7223379665	 0.369
C	-0.4902079426	-2.1568712787	-2.4869588388	-0.139301
C	-0.4192110059	-0.8675735338	-2.1335459421	-0.098432
N	 0.8058847072	-4.1755287452	-1.8340316698	-0.232681
O	 0.0892178757	-4.8088617859	-2.8658845739	-0.396644
H	 0.9361172131	 1.9266245977	-0.3912895103	 0.105907
H	-0.7787262877	 1.6890389324	-0.8175302905	 0.106171
H	-0.3031379061	 1.8393765558	 0.8897640818	 0.131091
H	 1.4689550885	-0.0239987994	-1.5119156249	 0.075436
H	 2.2014760184	-2.1395545442	-0.6593172737	 0.123479
H	 0.728827223	-2.2530892389	 0.3094835809	 0.142835
H	-1.1415443516	-2.5907292872	-3.2323484652	 0.125276
H	-1.0240013426	-0.0705399124	-2.5505432016	 0.108983
H	 0.4331055371	-5.7070303683	-2.8263883623	 0.306278
40.9786	96.8439	173.9166	227.3282	238.2744	270.368	288.8638	357.7276	380.4512	459.4269	550.9194	617.7343	703.2245	740.5739	816.6359	860.6501	869.8661	965.9479	979.4769	992.7636	1021.5643	1061.1292	1113.0877	1153.8146	1178.8529	1184.2139	1232.0337	1244.0301	1271.2844	1317.9517	1356.6675	1381.7131	1406.4142	1467.4281	1479.1687	1491.3446	1510.0354	1646.1834	1730.5656	2948.6032	2975.4032	3022.3119	3066.9576	3115.3009	3120.2693	3199.3059	3244.7313	3825.7481
COC1CC(C=C1)=NO	CO[C@H]1CC(=NO)C=C1	
InChI=1S/C6H9NO2/c1-9-6-3-2-5(4-6)7-8/h2-3,6,8H,4H2,1H3	InChI=1S/C6H9NO2/c1-9-6-3-2-5(4-6)7-8/h2-3,6,8H,4H2,1H3/t6-/m1/s1
