21
gdb 105833	2.0198	1.53218	1.19605	3.0643	83.5	-0.2342	-0.0063	0.2279	1189.0035	0.181272	-387.095245	-387.085787	-387.084843	-387.129563	35.328	
C	-0.2463382403	 1.5402110757	-0.073272119	-0.378219
C	 0.095401267	 0.0492198825	 0.0648838665	-0.29829
C	 0.7917395982	-0.4936903835	-1.1553451108	 0.222183
C	 0.0487875927	-0.9970568604	-2.3930745618	-0.044743
C	 0.1998776168	-0.4445692142	-3.797090397	-0.422139
C	 0.9853592705	-1.9431256684	-1.7185736288	-0.14357
C	 2.4431280972	-1.6511755201	-2.0996027401	-0.360914
C	 2.231677532	-0.2390561549	-1.4959338984	 0.356766
O	 2.991754502	 0.6413769928	-1.1951962404	-0.324465
H	 0.6618104013	 2.1238380918	-0.247136703	 0.145704
H	-0.9265357094	 1.7133218124	-0.9138614438	 0.112861
H	-0.7280407504	 1.9169698821	 0.8341724214	 0.110684
H	 0.7394565384	-0.0940181487	 0.9414619743	 0.107739
H	-0.8171459944	-0.5314899242	 0.2488274916	 0.096922
H	-0.9905555651	-1.1975625212	-2.133607002	 0.093881
H	 1.237510756	-0.218716669	-4.0535754188	 0.130397
H	-0.1787873563	-1.1601518224	-4.5354378065	 0.120722
H	-0.3728700298	 0.4819265271	-3.9076153695	 0.126219
H	 0.6490730941	-2.8566007519	-1.2440140208	 0.099743
H	 3.1728665968	-2.2004474817	-1.4972783817	 0.129788
H	 2.7229386026	-1.7317165137	-3.1533263515	 0.118732
67.1895	101.3897	140.2517	174.7588	202.4275	272.0016	286.9324	304.4987	396.8291	464.5912	513.424	586.3236	656.0805	696.4767	753.7355	775.2006	840.2383	876.0251	946.7274	950.3052	980.9642	1002.6143	1018.0639	1045.3949	1079.6675	1088.6814	1122.0922	1135.8382	1167.3911	1216.446	1239.7753	1281.4721	1329.1472	1337.8923	1360.8383	1407.9063	1416.0205	1447.2638	1469.6458	1481.8623	1494.3067	1497.7073	1502.9914	1510.7131	1861.7232	3020.3244	3036.2229	3037.5642	3055.0265	3059.736	3095.693	3104.8816	3106.2642	3110.298	3122.1192	3126.5506	3192.6913
CCC12C(C)C1CC2=O	CC[C@]12[C@@H](C)[C@H]1CC2=O	
InChI=1S/C8H12O/c1-3-8-5(2)6(8)4-7(8)9/h5-6H,3-4H2,1-2H3	InChI=1S/C8H12O/c1-3-8-5(2)6(8)4-7(8)9/h5-6H,3-4H2,1-2H3/t5-,6+,8-/m0/s1
