19
gdb 127153	4.24872	0.97329	0.85172	2.3815	78.11	-0.2055	0.0079	0.2134	1383.3293	0.160865	-415.396576	-415.387709	-415.386765	-415.431344	32.006	
C	 0.0150533781	 1.4025168038	-0.1073547705	-0.310334
N	 0.0542691064	-0.0383788635	 0.0803879781	-0.056761
C	 0.7669562936	-0.3908575747	 1.3009634431	-0.321678
C	-1.2899307521	-0.6169898801	 0.0267150822	-0.255055
C	-1.2855885081	-2.0935650636	-0.2333581587	 0.364607
N	-1.5525587995	-2.5898490311	-1.4337890956	-0.258814
N	-1.439527023	-3.9227459791	-1.2284724364	-0.177103
C	-1.1215172595	-4.1733019688	 0.056061639	 0.011586
N	-1.0204450181	-3.0402919056	 0.7205086947	-0.295069
H	 1.0362650568	 1.7966392845	-0.1198149846	 0.115795
H	-0.4536749293	 1.6438194536	-1.0666834001	 0.116581
H	-0.5404648971	 1.9354782759	 0.6898021058	 0.087191
H	 0.2984596842	 0.0401428268	 2.2078669667	 0.084619
H	 0.7923099502	-1.4749340577	 1.4227373985	 0.145527
H	 1.7949245221	-0.0188374226	 1.2421749644	 0.10926
H	-1.8613553688	-0.4189810046	 0.9537913435	 0.091897
H	-1.8274691631	-0.1460758211	-0.800258181	 0.118733
H	-1.6011028304	-4.5636717605	-1.9877707378	 0.282607
H	-0.9836258725	-5.1686494217	 0.4511522588	 0.146412
27.9212	77.7457	131.3105	243.2323	248.1356	317.5235	325.4606	355.3939	380.3	468.0939	548.8296	683.5128	711.3494	825.3051	852.1896	866.4573	972.6328	997.8394	1007.2505	1053.5735	1069.7548	1105.2044	1120.941	1156.1284	1179.8863	1201.2354	1286.6045	1300.1483	1309.466	1368.0143	1389.0583	1443.6292	1464.9199	1471.716	1480.633	1484.1593	1491.29	1498.779	1499.6853	1512.5846	1556.9723	2907.6479	2914.6758	2925.8847	3056.564	3066.5262	3093.7306	3102.5336	3136.1132	3257.6524	3665.429
CN(C)CC1=NNC=N1	CN(C)Cc1n[nH]cn1	
InChI=1S/C5H10N4/c1-9(2)3-5-6-4-7-8-5/h4H,3H2,1-2H3,(H,6,7,8)	InChI=1S/C5H10N4/c1-9(2)3-5-6-4-7-8-5/h4H,3H2,1-2H3,(H,6,7,8)
