16
gdb 9727	3.48479	1.69599	1.56316	1.0297	66.06	-0.2599	0.0316	0.2915	885.6754	0.129184	-383.702932	-383.69503	-383.694086	-383.735343	29.209	
C	-0.047606666	 1.5682444903	 0.0695227052	-0.423071
C	-0.0050572745	 0.0385756646	-0.0068754315	 0.174441
C	 0.8393767308	-0.4816561005	-1.2170931259	-0.152014
O	 2.1058592083	-0.7536289111	-0.6467499178	-0.232021
C	 1.7983486428	-1.2397685792	 0.6349055519	 0.014203
O	 0.7474979019	-0.4371599821	 1.1279939577	-0.276123
C	-1.3526967643	-0.5347648984	-0.0072119149	 0.341629
C	-2.4630311783	-0.9940487373	-0.0290476866	-0.487601
H	 0.9710404441	 1.9596862493	 0.0007543103	 0.128777
H	-0.6514146321	 1.9803377873	-0.743828896	 0.123776
H	-0.4823393485	 1.8815755809	 1.0213225041	 0.137953
H	 0.387653504	-1.3900389106	-1.6377572924	 0.109194
H	 0.9594233879	 0.2667703103	-2.0020824712	 0.126056
H	 1.4865184767	-2.298921127	 0.5869210414	 0.090068
H	 2.6730385351	-1.1291630555	 1.2813829167	 0.123435
H	-3.443397278	-1.4028690311	-0.038393921	 0.201299
52.7661	165.5392	179.6457	258.8979	271.548	350.8191	386.4339	505.9744	536.8394	596.1626	629.3544	664.5857	732.7066	784.4452	908.7502	937.8203	956.3691	980.4074	1047.5747	1109.0091	1136.5672	1170.8002	1181.5706	1225.7048	1230.8861	1280.9791	1356.8396	1401.9494	1426.2226	1481.9083	1491.7011	1509.3987	1540.9318	2235.0208	2940.4374	3016.1482	3046.5962	3094.9895	3119.5903	3126.4583	3135.0358	3500.0417
CC1(COCO1)C#C	C[C@]1(COCO1)C#C	
InChI=1S/C6H8O2/c1-3-6(2)4-7-5-8-6/h1H,4-5H2,2H3	InChI=1S/C6H8O2/c1-3-6(2)4-7-5-8-6/h1H,4-5H2,2H3/t6-/m1/s1
