22
gdb 89374	2.58267	1.36437	1.06995	1.5785	82.23	-0.225	0.0772	0.3022	1223.4489	0.194018	-404.349664	-404.340316	-404.339372	-404.382945	36.688	
C	-0.0473248664	 1.4952172142	-0.0626094164	-0.492802
C	 0.1034854477	-0.0027116673	-0.0142634563	 0.288553
C	 0.3201037958	-0.7526011378	-1.3185811457	-0.258932
C	 0.724712631	-2.1777734415	-0.9003670955	 0.118274
O	 1.5743830529	-2.7302970971	-1.8965805733	-0.440454
C	 1.4010045087	-2.0103119885	 0.4832937509	-0.292339
C	 0.7626386397	-0.768599027	 1.085668521	 0.295613
C	 1.3808765293	-0.1637719592	 2.3189760565	-0.49247
N	-0.7187644913	-0.8017693663	 0.9365903488	-0.41948
H	 0.7938494756	 1.9585570423	-0.5902609012	 0.122818
H	-0.9635630649	 1.7745525162	-0.5960734718	 0.125008
H	-0.1006068048	 1.9352151604	 0.937936872	 0.11217
H	-0.5613202235	-0.7453397875	-1.9672791914	 0.099672
H	 1.1512037969	-0.3009712119	-1.8741228445	 0.105209
H	-0.1783797763	-2.7883102937	-0.7867703866	 0.085984
H	 1.7096150415	-3.6596445178	-1.6880646	 0.279702
H	 1.2851212656	-2.8957512176	 1.1188395526	 0.089633
H	 2.4738710423	-1.8381763533	 0.3310870907	 0.099372
H	 2.4473740782	 0.036826975	 2.1669479809	 0.122171
H	 0.8984579373	 0.7773165725	 2.6005255555	 0.112956
H	 1.293401993	-0.8480387146	 3.1712719356	 0.123755
H	-1.1239759883	-0.1660072294	 1.6223396581	 0.215586
119.1943	185.1706	188.8074	198.8253	250.7568	267.1439	292.8982	330.1744	399.6544	421.4933	473.4242	481.7879	527.5084	571.4512	688.0238	714.1808	848.006	881.3737	904.631	935.773	975.9014	993.2881	1026.8773	1036.8464	1077.7441	1088.2286	1090.7167	1143.1912	1153.649	1178.0122	1223.1667	1249.7637	1265.4569	1290.5322	1337.9515	1357.9243	1377.0042	1415.5648	1417.2032	1427.8803	1438.1017	1476.7437	1480.5358	1488.8059	1492.8098	1496.5984	1513.8644	3022.4877	3025.5342	3028.3857	3031.1258	3038.3678	3073.4265	3083.295	3083.9888	3087.9561	3096.9615	3104.7675	3470.5477	3822.4437
CC12CC(O)CC1(C)N2	C[C@@]12C[C@@H](O)C[C@]1(C)N2	
InChI=1S/C7H13NO/c1-6-3-5(9)4-7(6,2)8-6/h5,8-9H,3-4H2,1-2H3	InChI=1S/C7H13NO/c1-6-3-5(9)4-7(6,2)8-6/h5,8-9H,3-4H2,1-2H3/t5-,6-,7+
