19
gdb 94211	3.29779	1.05701	0.97975	2.6955	77.34	-0.2436	0.0478	0.2914	1273.8226	0.155674	-422.972111	-422.962177	-422.961232	-423.007053	36.418	
C	-0.0864216022	 1.6152011256	 0.164254177	-0.426132
C	 0.0020927921	 0.0995656013	 0.0790000611	 0.393076
C	-1.3408819198	-0.5627972584	-0.2803821156	-0.402933
C	-1.9278756159	-0.0876496747	-1.5266325329	 0.314279
C	-2.4117319325	 0.3054620541	-2.5540458002	-0.443662
O	 1.0467330844	-0.3212857459	-0.8439756602	-0.318055
C	 1.8875605109	-0.7852771052	 0.2292011006	-0.1065
C	 0.7509684067	-0.5855931606	 1.2544349418	 0.009409
O	 0.9789979834	 0.2508622199	 2.3602536982	-0.422042
H	 0.8809513498	 2.042922749	 0.433048049	 0.126353
H	-0.3995909084	 2.0150131222	-0.803206795	 0.136574
H	-0.8135185651	 1.9193454978	 0.9233379172	 0.12013
H	-1.1832560987	-1.6462290786	-0.3428425588	 0.127764
H	-2.0395875025	-0.3902530938	 0.5496538065	 0.132069
H	-2.8362809346	 0.6478928812	-3.4648995528	 0.194952
H	 2.2458587118	-1.8075837919	 0.0615832477	 0.099528
H	 2.7426074208	-0.120265888	 0.4095536294	 0.101126
H	 0.2767275129	-1.5283400828	 1.5578038336	 0.073001
H	 1.3863879668	-0.2681681711	 3.0600749935	 0.291063
56.2291	81.6592	128.2109	204.121	212.2306	245.2219	270.9908	326.0575	353.1901	381.717	419.0986	466.6871	574.469	615.9584	638.5213	690.3027	786.0627	861.7744	898.7965	933.6272	948.5684	987.2436	1020.0304	1062.4988	1109.4586	1139.2422	1162.9679	1176.2785	1202.8311	1249.7753	1290.6051	1307.7051	1330.2118	1349.6102	1409.5527	1442.7836	1454.5848	1486.8796	1489.7974	1515.6799	2239.2791	3008.2956	3009.8688	3017.7874	3052.2502	3057.4931	3063.8276	3124.722	3142.7443	3506.5593	3828.7714
CC1(CC#C)OCC1O	C[C@@]1(CC#C)OC[C@H]1O	
InChI=1S/C7H10O2/c1-3-4-7(2)6(8)5-9-7/h1,6,8H,4-5H2,2H3	InChI=1S/C7H10O2/c1-3-4-7(2)6(8)5-9-7/h1,6,8H,4-5H2,2H3/t6-,7+/m1/s1
