18
gdb 18730	3.14451	2.11794	1.46342	1.9858	66.43	-0.2594	0.0804	0.3398	880.1212	0.155728	-384.938448	-384.931309	-384.930365	-384.969619	28.115	
O	 0.0585166447	 1.3896247048	-0.1385889422	-0.442612
C	 0.0385440491	-0.02803994	-0.0268862956	 0.127768
C	 0.8426857126	-0.5276799012	 1.18034458	-0.229307
C	 0.6986561397	-2.0455159568	 1.3455628211	-0.213333
C	-0.7523012085	-2.4509226635	 1.6588266931	-0.224495
C	-1.7740953234	-1.6877820674	 0.8333013148	 0.048358
O	-2.0642187052	-0.345494402	 1.2551484647	-0.266347
C	-1.3885906048	-0.53446163	 0.0021977381	 0.017636
H	-0.4435616267	 1.7343521491	 0.6094673668	 0.286046
H	 0.5092057823	-0.3915618928	-0.9498530794	 0.088497
H	 1.8899232529	-0.2410574201	 1.0464048842	 0.102861
H	 0.4774044493	-0.0186891505	 2.0806151604	 0.102154
H	 1.0186483614	-2.5366964451	 0.4167546808	 0.099344
H	 1.3657749555	-2.4114845361	 2.1327636215	 0.099736
H	-0.8883457971	-3.5247824363	 1.4900052533	 0.100987
H	-0.9776233881	-2.2709822123	 2.7171698719	 0.117427
H	-2.6666583773	-2.2427628242	 0.5430638155	 0.092373
H	-1.9883512563	-0.2779970854	-0.8716231691	 0.092907
101.6038	212.8474	256.8757	344.3359	361.437	388.2548	445.646	472.4183	624.617	647.6991	772.2434	784.0201	871.6883	878.3106	887.4285	958.7454	978.1954	1039.7871	1054.3854	1077.2686	1082.7559	1140.4121	1164.94	1176.9096	1214.6369	1272.6281	1287.2971	1295.7095	1341.0251	1366.8018	1370.7196	1380.3802	1390.5646	1429.0108	1459.322	1480.2847	1484.6734	1498.8215	3018.6646	3027.6436	3032.3926	3039.217	3068.4304	3078.13	3091.2643	3100.9529	3114.329	3790.9566
OC1CCCC2OC12	O[C@H]1CCC[C@H]2O[C@@H]12	
InChI=1S/C6H10O2/c7-4-2-1-3-5-6(4)8-5/h4-7H,1-3H2	InChI=1S/C6H10O2/c7-4-2-1-3-5-6(4)8-5/h4-7H,1-3H2/t4-,5+,6-/m0/s1
