21
gdb 113959	3.72652	0.88845	0.834	3.2821	79.42	-0.2288	0.0615	0.2903	1457.3517	0.182824	-420.33081	-420.321369	-420.320425	-420.366195	34.647	
O	-0.3515792495	 1.5071940231	 0.6944574873	-0.401166
C	-0.0011284902	 0.1692241034	 0.3850831558	-0.119548
C	-1.0364463351	-0.6133471523	-0.410540338	 0.00193
C	-2.4431793957	-0.1446838676	-0.5521425415	-0.263124
N	-1.5487047412	-0.1798524555	-1.7079815656	-0.103454
C	-1.0903677803	 1.0849616149	-2.2842786952	-0.170386
C	-1.7090916874	 1.3141472694	-3.6539396742	 0.013534
C	-1.8725293458	 0.2043302704	-4.6195693608	-0.229161
N	-3.0544899946	 0.8190446548	-3.9784168982	-0.323928
H	-1.0584550169	 1.4833956474	 1.3470554818	 0.287437
H	 0.9314441854	 0.233380993	-0.1879659879	 0.123553
H	 0.227400883	-0.4051095652	 1.2960881304	 0.100217
H	-0.8591399548	-1.6886404262	-0.362232251	 0.093256
H	-3.2669775788	-0.8542461875	-0.5552269043	 0.116358
H	-2.6864312846	 0.8352366611	-0.1450234398	 0.109546
H	-1.2978034592	 1.9412313941	-1.6287720426	 0.11351
H	 0.0004336008	 1.0392650229	-2.4006239073	 0.106073
H	-1.5090724371	 2.309146809	-4.0483627245	 0.085484
H	-1.7794236434	 0.3885316359	-5.6862115095	 0.107937
H	-1.5788793605	-0.7866681934	-4.2869466937	 0.11698
H	-3.3528304841	 0.1969853082	-3.2295859212	 0.234954
31.1122	95.1549	110.3919	139.088	191.8392	262.6695	338.1861	349.4028	384.7009	436.9454	556.9008	632.1384	743.4698	773.6261	814.2682	853.1473	910.271	921.5597	951.3191	966.3787	997.5499	1006.6742	1056.7516	1062.4847	1098.9943	1116.3923	1126.3564	1153.0062	1153.9995	1169.7761	1203.0982	1232.7161	1269.8337	1293.8261	1306.2932	1330.6428	1376.3293	1386.7926	1403.046	1417.373	1422.5725	1486.4384	1494.9972	1500.8707	1508.8569	2987.5075	3007.9012	3044.8715	3058.6219	3091.8203	3095.6586	3112.0906	3119.8244	3176.0792	3203.6224	3492.538	3821.5432
OCC1CN1CC1CN1	OC[C@H]1CN1C[C@H]1CN1	
InChI=1S/C6H12N2O/c9-4-6-3-8(6)2-5-1-7-5/h5-7,9H,1-4H2	InChI=1S/C6H12N2O/c9-4-6-3-8(6)2-5-1-7-5/h5-7,9H,1-4H2/t5-,6-,8?/m1/s1
