20
gdb 26365	4.02053	0.98264	0.88805	3.3696	82.33	-0.1797	0.0404	0.2201	1384.1403	0.172073	-399.372069	-399.36269	-399.361746	-399.406563	35.111	
C	-0.0245536617	 1.4252348235	-0.2465025424	-0.375051
C	 0.0203099594	-0.0690558316	 0.1023291877	 0.0425
C	 0.7454764783	-0.3290233805	 1.4248920285	-0.399559
N	-1.3252192691	-0.6477294434	 0.103522626	 0.023099
C	-2.2079084097	-0.7314994059	 1.1304722151	-0.001809
N	-3.373282485	-1.2252343059	 0.7553721535	-0.329067
C	-3.2497776566	-1.4611906237	-0.5890898023	 0.276784
N	-4.3413276987	-1.9404939945	-1.3216091374	-0.595976
C	-1.9938079308	-1.1085281657	-1.0247236843	-0.209551
H	 0.9891078385	 1.8295535967	-0.3305554022	 0.1172
H	-0.5412785626	 1.5865345294	-1.1961472116	 0.130589
H	-0.5559620456	 1.9850122525	 0.5296786958	 0.127124
H	 0.5640923707	-0.5946717011	-0.691162009	 0.096411
H	 1.7828099253	 0.0077650005	 1.3454478532	 0.122951
H	 0.2856254528	 0.2213280089	 2.2515641306	 0.127986
H	 0.7444300343	-1.3932469715	 1.6741857794	 0.132161
H	-1.9592577656	-0.4320531055	 2.1361712388	 0.121292
H	-5.0177630878	-2.3674984861	-0.7013739737	 0.24603
H	-4.0821927984	-2.5895382203	-2.0525363893	 0.237863
H	-1.5163480377	-1.142266026	-1.9895112966	 0.109025
36.0335	103.7346	193.4385	217.7289	237.8303	266.159	288.9352	316.7333	388.8194	438.9983	491.2408	616.9463	633.6659	646.0367	691.2453	733.0445	789.4109	802.9726	884.6835	933.6384	954.0248	1009.5631	1034.7493	1096.3563	1121.142	1143.1658	1170.1533	1218.6637	1268.4474	1303.4842	1356.1529	1376.2001	1395.9079	1401.2487	1420.6537	1459.1415	1484.2863	1488.717	1499.9599	1511.1342	1535.8251	1616.6658	1647.0823	3037.9755	3039.1917	3046.1241	3109.8253	3117.1952	3122.1518	3125.9702	3263.5778	3270.2199	3539.8578	3635.1228
CC(C)N1C=NC(N)=C1	CC(C)n1cnc(N)c1	
InChI=1S/C6H11N3/c1-5(2)9-3-6(7)8-4-9/h3-5H,7H2,1-2H3	InChI=1S/C6H11N3/c1-5(2)9-3-6(7)8-4-9/h3-5H,7H2,1-2H3
