25
gdb 95830	2.79575	1.13699	0.8796	1.1334	89.33	-0.2412	0.0821	0.3233	1435.5473	0.229925	-389.509	-389.499306	-389.498362	-389.543168	37.664	
C	 0.1127491157	 1.6525565286	 0.0028941568	-0.405079
C	 0.0161911824	 0.120488314	-0.0122619493	 0.049928
C	 0.5342860559	-0.4595165884	-1.3415045971	-0.203751
C	-0.0337294255	-1.8404137158	-1.6923129239	-0.075222
O	 0.4390411591	-2.9206825893	-0.9172958175	-0.256133
C	 0.1169701198	-2.8986246533	 0.4717301809	 0.138582
C	 0.2430103593	-4.3411756551	 0.9538843842	-0.395172
C	 1.0647298063	-1.9578806927	 1.2370767215	-0.205776
C	 0.7102108854	-0.4559662779	 1.2420485664	-0.204346
H	 1.1511621688	 1.9797092506	-0.1284279132	 0.113192
H	-0.4817554646	 2.0978930474	-0.8016730878	 0.107695
H	-0.2453846008	 2.064695125	 0.9525375338	 0.109164
H	-1.0511599193	-0.1373472185	 0.0469654422	 0.06866
H	 0.2432344185	 0.215697011	-2.157542577	 0.089639
H	 1.6313601422	-0.4988566083	-1.3496477008	 0.098556
H	-1.1366269524	-1.7923598044	-1.6432350712	 0.078992
H	 0.2345815945	-2.0947839182	-2.7234193458	 0.100094
H	-0.9293958367	-2.5717084417	 0.5972101618	 0.060276
H	 1.2788156532	-4.6835061885	 0.8596771268	 0.121402
H	-0.055814898	-4.4282742553	 2.0027443898	 0.108872
H	-0.3890782747	-4.9989089279	 0.3517764709	 0.117856
H	 1.1403419882	-2.2946917814	 2.277625278	 0.090098
H	 2.0555413847	-2.1128045844	 0.7945444477	 0.1054
H	 1.6350748056	 0.1082588897	 1.4210249115	 0.092988
H	 0.0657259026	-0.2387252052	 2.103115541	 0.094086
71.9588	122.5631	174.9347	227.1006	245.6504	267.8192	299.4198	321.9243	333.1443	387.5677	428.9871	465.0569	547.913	573.9548	740.8692	805.3148	845.3269	849.7399	893.8842	937.9991	951.9002	979.4071	1014.1404	1040.8657	1073.	1084.1847	1096.0812	1138.0129	1154.9176	1161.8494	1187.6471	1225.6993	1261.0028	1285.143	1305.5131	1329.5927	1343.9818	1353.7516	1378.5548	1386.017	1395.6254	1401.7498	1408.4429	1412.6017	1425.4436	1470.1572	1475.3893	1485.4745	1492.4391	1494.9012	1499.2964	1501.4385	1502.6337	2942.7893	2955.676	2992.4161	3010.629	3012.4376	3023.6541	3031.9194	3040.4586	3043.6166	3054.6896	3065.3606	3073.7754	3089.5795	3096.4331	3112.0616	3122.1365
CC1CCOC(C)CC1	C[C@H]1CCO[C@@H](C)CC1	
InChI=1S/C8H16O/c1-7-3-4-8(2)9-6-5-7/h7-8H,3-6H2,1-2H3	InChI=1S/C8H16O/c1-7-3-4-8(2)9-6-5-7/h7-8H,3-6H2,1-2H3/t7-,8+/m1/s1
