19
gdb 13513	3.17988	1.72943	1.21597	3.6559	73.3	-0.232	0.0326	0.2645	1034.0993	0.16443	-365.092339	-365.083314	-365.08237	-365.126536	31.691	
C	-0.3826825043	 1.4009997426	 0.1836038894	-0.400313
C	 0.0767508481	-0.0316287443	-0.0344034653	 0.074023
C	 0.9726412754	-0.338747394	-1.2740454713	-0.264105
C	 2.0384547188	-0.9156137552	-0.3007738373	-0.174299
N	 1.193415586	-0.4783357791	 0.8147125584	-0.067075
C	 1.1545626375	-0.8018405686	 2.1359883569	 0.362047
C	 2.4022521453	-1.488044989	 2.6700736363	-0.487148
O	 0.1829944378	-0.5445966709	 2.8286538386	-0.373871
H	 0.4576546609	 2.0977138386	 0.0968672014	 0.11005
H	-1.1378185329	 1.6741476728	-0.5615184376	 0.113125
H	-0.8194433345	 1.5042579036	 1.1795717522	 0.152647
H	-0.7805392775	-0.7110845706	 0.0543434992	 0.089186
H	 0.5609410799	-1.04833049	-1.9919612408	 0.113952
H	 1.3007090305	 0.5576766324	-1.8034261396	 0.113352
H	 2.16790201	-2.0034124681	-0.3600790751	 0.111096
H	 3.0275618459	-0.4455080345	-0.3348660784	 0.113398
H	 3.3122399303	-0.9530212997	 2.3809772584	 0.131628
H	 2.3337776546	-1.5374826237	 3.756498778	 0.146608
H	 2.4798426182	-2.5068226422	 2.2734534166	 0.1357
76.8207	81.1497	101.6745	131.8049	168.2201	247.599	298.5875	399.6751	439.477	544.8293	600.0413	644.9617	754.7626	808.938	886.2008	936.867	942.0228	959.865	1033.1659	1049.5883	1104.2042	1129.9995	1150.0492	1178.516	1191.8798	1228.9587	1264.9288	1290.969	1328.7104	1377.3906	1381.1215	1401.7852	1434.2527	1470.5453	1482.1893	1484.1097	1489.272	1504.1457	1522.729	1760.1249	3016.8301	3023.3593	3034.7028	3039.6446	3058.2314	3084.5392	3101.3612	3103.2367	3131.4799	3141.4471	3159.5641
CC1CCN1C(C)=O	C[C@H]1CCN1C(=O)C	
InChI=1S/C6H11NO/c1-5-3-4-7(5)6(2)8/h5H,3-4H2,1-2H3	InChI=1S/C6H11NO/c1-5-3-4-7(5)6(2)8/h5H,3-4H2,1-2H3/t5-/m0/s1
