19
gdb 52461	4.51607	0.57228	0.54183	0.406	74.64	-0.2504	0.0238	0.2742	1978.5447	0.158921	-456.396422	-456.386032	-456.385088	-456.435313	34.774	
O	 0.4155595988	 1.552082977	-1.4822469484	-0.327563
C	 0.309279054	 1.8721582776	-0.3163565233	 0.153578
N	 1.222058732	 1.5951739736	 0.6513835396	-0.270111
C	 2.4756047677	 0.9149028228	 0.3630334713	-0.163419
C	 3.6056025426	 1.8740685608	-0.0317010259	-0.183994
C	 4.9077278604	 1.1249699685	-0.3415275733	-0.163434
N	 6.0033233072	 2.0094462639	-0.7083991313	-0.270149
C	 6.8355262507	 2.5541388974	 0.2174512766	 0.153591
O	 6.7864486325	 2.3331994212	 1.4098440244	-0.327529
H	-0.5657739104	 2.4215907129	 0.0844809683	 0.075858
H	 1.0684390749	 1.9680522842	 1.5744733193	 0.250832
H	 2.7611276778	 0.3285699765	 1.2431442596	 0.114072
H	 2.2754073658	 0.2171648896	-0.4552017933	 0.141503
H	 3.2866048511	 2.4498544943	-0.9075719791	 0.11728
H	 3.7947882048	 2.5851303083	 0.7801167208	 0.117176
H	 5.2353026708	 0.5653833913	 0.5393483496	 0.141583
H	 4.7529939308	 0.4095383351	-1.1565011834	 0.11408
H	 6.0866444351	 2.314839326	-1.6647108964	 0.250814
H	 7.5867501034	 3.2252567392	-0.244640825	 0.075833
18.7529	19.8812	67.9158	96.4624	132.264	206.5577	261.4459	284.0387	298.8201	405.4992	463.2922	515.5632	540.2381	719.8559	733.7477	800.1593	905.4844	948.4284	1006.8159	1029.5161	1031.9009	1042.7392	1068.1343	1153.907	1203.7298	1214.8345	1253.3092	1294.6429	1339.2062	1340.845	1403.8985	1413.8551	1429.0463	1429.8982	1470.7502	1472.2581	1496.9508	1530.6056	1531.3386	1800.9453	1803.876	2935.303	2935.9836	3037.6311	3043.9627	3052.7374	3079.1397	3101.2356	3113.4762	3638.7058	3638.7552
O=CNCCCNC=O	O=CNCCCNC=O	
InChI=1S/C5H10N2O2/c8-4-6-2-1-3-7-5-9/h4-5H,1-3H2,(H,6,8)(H,7,9)	InChI=1S/C5H10N2O2/c8-4-6-2-1-3-7-5-9/h4-5H,1-3H2,(H,6,8)(H,7,9)
