19
gdb 125990	2.59889	1.55317	1.03895	3.0984	83.57	-0.2223	0.0333	0.2556	1184.2036	0.160573	-382.066702	-382.058068	-382.057123	-382.100843	31.392	
C	-0.3637559038	 1.458104193	 0.0011281256	-0.397133
C	-0.0090391171	-0.0241072706	 0.0207054224	-0.160629
C	 1.1918797219	-0.478629905	-0.9175728603	-0.184664
N	 1.8560051226	-0.8852230902	 0.3249876044	 0.08372
N	 2.9152939148	-1.4790278358	 0.8813998766	-0.317043
C	 2.553985483	-1.4803974768	 2.1781520642	-0.04884
C	 1.2741420141	-0.9087229473	 2.439991646	-0.018572
C	 0.5942287943	-0.7684896753	 3.7670572658	-0.509676
C	 0.8704859031	-0.5383040199	 1.1648849154	 0.339052
H	 0.5271187192	 2.0776931354	 0.1439067112	 0.127542
H	-0.8287971213	 1.7364206601	-0.9504123461	 0.120519
H	-1.0710036695	 1.6969029453	 0.8014582584	 0.128151
H	-0.903164211	-0.6334276071	-0.1455319984	 0.098125
H	 0.9765433169	-1.3054800812	-1.5996988994	 0.13074
H	 1.7001727885	 0.3288707484	-1.4523620394	 0.128101
H	 3.2310316956	-1.8975088733	 2.9115571598	 0.104301
H	 1.1686215138	-1.2751661884	 4.5479095335	 0.127005
H	 0.4874337901	 0.2797770352	 4.069883564	 0.125612
H	-0.4100412451	-1.2068573565	 3.7628932163	 0.123691
45.0142	85.3827	125.8969	196.2846	248.5538	276.1438	325.8806	427.8244	512.8008	627.2721	655.3789	668.7398	719.9492	774.0135	849.4835	858.9902	916.8581	995.5301	1021.7326	1061.8904	1080.2575	1085.6097	1127.1562	1154.974	1172.6544	1206.5751	1224.9161	1272.245	1308.4878	1346.0184	1371.1785	1409.8756	1411.3774	1421.6901	1478.8492	1487.2234	1494.186	1497.8145	1503.8758	1523.9105	1608.0896	3025.4933	3034.2074	3052.9137	3055.9715	3073.7846	3104.1686	3105.4184	3108.9041	3113.0761	3228.8177
CC1CN2N=CC(C)=C12	C[C@H]1Cn2ncc(C)c12	
InChI=1S/C7H10N2/c1-5-3-8-9-4-6(2)7(5)9/h3,6H,4H2,1-2H3	InChI=1S/C7H10N2/c1-5-3-8-9-4-6(2)7(5)9/h3,6H,4H2,1-2H3/t6-/m0/s1
