20
gdb 116966	4.28167	0.5753	0.55134	1.691	84.43	-0.2342	0.045	0.2791	2032.5771	0.16944	-403.078154	-403.067856	-403.066912	-403.115396	35.845	
O	-0.1087407676	 0.8971631066	-0.8641695341	-0.414784
C	-0.0689452517	-0.4758018649	-0.5163492839	-0.062678
C	-1.4497647467	-0.8336630124	 0.044745427	-0.32512
C	-1.548489924	-2.2310507408	 0.4469286444	 0.002059
C	-1.5962091338	-3.3855005184	 0.792118718	 0.094106
C	-1.6741133968	-4.796213021	 1.1875447725	-0.282045
N	-2.2378848802	-5.7426999458	 0.215369032	-0.073575
C	-3.3406442871	-5.2999531949	-0.6296645803	-0.217586
C	-1.9832218665	-5.521175623	-1.2030798127	-0.217151
H	 0.7524137477	 1.1468403511	-1.2110816503	 0.289806
H	 0.1469800929	-1.1121742554	-1.3877113048	 0.096894
H	 0.6985565292	-0.6830757961	 0.2441033401	 0.098896
H	-1.6586006575	-0.1758860268	 0.897321379	 0.139371
H	-2.2038987558	-0.5992483381	-0.7162864716	 0.138362
H	-0.6688540839	-5.1565985432	 1.439270288	 0.133599
H	-2.2717284045	-4.883360924	 2.1034169814	 0.13492
H	-4.132906711	-6.028283088	-0.7779129556	 0.113827
H	-3.6687706895	-4.2662349235	-0.546245749	 0.120562
H	-1.4290707841	-4.6305584021	-1.49098938	 0.117204
H	-1.7612537993	-6.4143449594	-1.7802459299	 0.113333
26.783	68.9592	72.9219	114.3764	126.5839	237.7757	274.9329	292.5043	356.7783	359.8511	391.4591	478.7395	583.1079	753.3042	793.3323	796.8046	838.4672	874.6	983.0304	1000.4696	1027.3389	1063.3762	1081.79	1087.811	1115.2279	1125.9688	1148.8231	1173.992	1186.1226	1222.4802	1238.6183	1289.5244	1304.9981	1312.7194	1333.3776	1362.2383	1455.7373	1468.7389	1475.6705	1480.8936	1511.4831	1527.5922	2354.0409	2983.1364	3013.9641	3023.9191	3031.966	3054.7895	3069.0935	3102.9778	3105.4397	3184.1843	3197.7109	3834.8833
OCCC#CCN1CC1	OCCC#CCN1CC1	
InChI=1S/C7H11NO/c9-7-3-1-2-4-8-5-6-8/h9H,3-7H2	InChI=1S/C7H11NO/c9-7-3-1-2-4-8-5-6-8/h9H,3-7H2
