15
gdb 5491	3.45483	1.89891	1.23472	2.6151	76.79	-0.2029	0.0175	0.2204	940.9161	0.118955	-325.541571	-325.533794	-325.53285	-325.573526	29.135	
C	-0.0362027132	 1.5105304975	 0.0313761921	-0.514573
C	-0.011582572	 0.0146873826	 0.0025759267	 0.16702
C	-0.02766297	-0.7983821096	-1.1028853646	-0.154797
N	 0.0061948805	-2.1083862656	-0.6805842677	-0.240948
C	 0.0437376431	-2.1563086257	 0.681247245	-0.194194
C	 0.034275307	-0.8536535376	 1.151015384	 0.082499
C	 0.0640643837	-0.4472556878	 2.5045781041	 0.256049
C	 0.0887502336	-0.0723926202	 3.6500999197	-0.475406
H	 0.8499639981	 1.9169374405	 0.5317527417	 0.132444
H	-0.0705578256	 1.9239822314	-0.9805466133	 0.115339
H	-0.9073535322	 1.8870898046	 0.5792232531	 0.132442
H	-0.0601499608	-0.552539674	-2.1523397809	 0.120932
H	 0.0027344236	-2.9109101028	-1.2847201344	 0.265532
H	 0.074215697	-3.0902882146	 1.217607396	 0.128204
H	 0.1106199771	 0.2497671113	 4.6609819884	 0.179457
93.0469	133.1927	169.6275	257.8786	313.7424	452.8437	488.3637	522.1939	523.07	580.0738	632.6259	648.0168	668.2942	695.511	728.4907	770.3944	906.9657	1004.6679	1066.692	1087.7371	1111.113	1200.3619	1253.9196	1335.3541	1367.2652	1420.6269	1473.1983	1479.4763	1494.2746	1550.9058	1611.9688	2226.1458	3029.4028	3079.8569	3109.0582	3260.6114	3272.5253	3506.2931	3689.5673
CC1=CNC=C1C#C	Cc1c[nH]cc1C#C	
InChI=1S/C7H7N/c1-3-7-5-8-4-6(7)2/h1,4-5,8H,2H3	InChI=1S/C7H7N/c1-3-7-5-8-4-6(7)2/h1,4-5,8H,2H3
