16
gdb 46331	3.18514	1.34702	1.2187	3.0311	65.35	-0.2426	0.0179	0.2605	1046.5719	0.12532	-475.033013	-475.025185	-475.024241	-475.066105	28.351	
O	-0.1334964744	 0.0204789843	-0.1048896324	-0.359721
C	-0.0831531745	 1.2184411082	-0.0459639196	 0.37511
N	-1.0311083888	 2.2073651325	 0.0366916042	-0.334747
C	-0.1024820441	 3.3423308195	 0.0079301832	-0.214249
C	 1.0546027451	 2.2914467025	 0.0085560864	 0.251821
C	 2.0106497865	 2.1995704178	 1.2107984523	-0.182377
O	 3.2291455091	 2.7171970631	 0.6977025568	-0.232268
C	 3.2508279331	 2.282639951	-0.6334186996	 0.012167
O	 1.9113740059	 2.3567718131	-1.106531248	-0.290332
H	-2.0386647989	 2.1645247069	 0.0385724202	 0.257171
H	-0.1358840927	 3.9311005011	-0.9127711746	 0.127096
H	-0.1602232397	 3.9985089167	 0.8821924247	 0.113554
H	 1.7070897398	 2.7988498694	 2.070472649	 0.12723
H	 2.1237598929	 1.1484533413	 1.5156209611	 0.123773
H	 3.882394844	 2.9536079423	-1.2220593189	 0.12419
H	 3.6114567868	 1.2428800102	-0.7106351247	 0.101581
60.4117	103.4446	164.4895	246.7012	265.8394	314.8853	436.6239	468.6354	621.5587	718.2891	733.4187	753.9238	817.9581	891.8664	922.6147	978.2402	996.416	1029.3088	1087.874	1116.0911	1142.8449	1161.5508	1164.2524	1192.3909	1200.19	1246.5477	1282.9465	1290.7538	1361.6703	1388.0354	1429.9696	1506.1068	1521.5944	1543.8028	1898.7367	2962.3577	3000.6876	3044.6609	3093.3421	3101.2475	3120.7884	3626.0003
O=C1NCC11COCO1	O=C1NC[C@]21COCO2	
InChI=1S/C5H7NO3/c7-4-5(1-6-4)2-8-3-9-5/h1-3H2,(H,6,7)	InChI=1S/C5H7NO3/c7-4-5(1-6-4)2-8-3-9-5/h1-3H2,(H,6,7)/t5-/m1/s1
