20
gdb 108275	2.68139	1.40507	1.08894	2.979	80.46	-0.2546	0.0286	0.2832	1186.3171	0.17106	-403.147056	-403.138442	-403.137498	-403.180406	32.917	
C	-0.0576581102	 1.5468194323	 0.0262448861	-0.38464
C	-0.1930043871	 0.0213438007	-0.0578299936	-0.276189
C	 0.6483800383	-0.5753523085	-1.155065065	 0.464336
C	 0.3391033275	-0.3302930759	-2.6536727815	-0.280628
C	 0.5741612044	-1.8454582372	-2.942867223	-0.230948
C	 0.8932875744	-2.0895370392	-1.4348826304	-0.237913
C	 2.3220283906	-1.7643220498	-1.0815984455	 0.429726
N	 3.3820043405	-2.4282583575	-0.9806303634	-0.554095
O	 2.0933037736	-0.4119423482	-0.8987845416	-0.301855
H	 0.9829732413	 1.8312032878	 0.2053895924	 0.138835
H	-0.3829087202	 2.0273079081	-0.9025105721	 0.119866
H	-0.6668283815	 1.9478611172	 0.8410619689	 0.117212
H	 0.0988421721	-0.435172444	 0.895465843	 0.109434
H	-1.2390489644	-0.2577078908	-0.2361567614	 0.102655
H	-0.687982638	-0.0049695736	-2.8380356138	 0.107579
H	 1.0234573784	 0.3694771288	-3.1363122002	 0.117955
H	-0.331480911	-2.3634905931	-3.2632698776	 0.112588
H	 1.3812187825	-2.0960530678	-3.6331533409	 0.123541
H	 0.4118894791	-2.9168810811	-0.9171124956	 0.0981
H	 4.1696480995	-1.8293209982	-0.7258655949	 0.224443
86.8766	107.0852	157.6266	212.1436	216.2839	330.4848	359.9122	393.7096	446.9659	610.7365	636.2046	722.8671	738.5486	784.7175	808.6574	865.0176	878.2508	909.9615	940.6973	972.046	989.6966	999.2696	1014.1284	1035.8625	1092.8031	1120.7349	1145.6581	1179.4682	1218.0406	1227.8857	1253.4001	1260.8829	1292.0546	1321.9048	1324.5799	1382.9575	1411.1571	1466.3983	1476.9708	1490.9426	1499.4903	1509.096	1817.8369	3027.8974	3041.3292	3064.6285	3067.4362	3078.9745	3109.1619	3119.793	3121.5913	3134.8218	3140.4972	3470.5891
CCC12CCC1C(=N)O2	CC[C@]12CC[C@H]1[C]([NH])O2	
InChI=1S/C7H11NO/c1-2-7-4-3-5(7)6(8)9-7/h5,8H,2-4H2,1H3	InChI=1S/C7H11NO/c1-2-7-4-3-5(7)6(8)9-7/h5,8H,2-4H2,1H3/t5-,7-/m0/s1
