18
gdb 67974	3.17853	1.65353	1.26146	3.4946	76.14	-0.2391	-0.023	0.2161	1006.5071	0.148468	-401.905275	-401.898005	-401.897061	-401.936711	29.349	
C	 0.0042288561	 1.4857320284	-0.014752245	-0.495243
C	 0.0852304919	-0.0219179929	 0.0236631962	 0.356828
C	 0.4450355038	-0.7044434949	-1.2951451198	-0.413642
C	 0.3182105033	-2.1590516904	-0.8467716505	 0.438007
O	 0.5344369142	-3.1732950488	-1.4547738541	-0.322676
C	-0.1272982506	-1.9903443965	 0.5831500713	-0.107923
C	 0.6821051157	-0.8261179307	 1.2287951965	-0.113166
C	-0.6093433691	-0.5075584198	 1.9885330898	-0.183824
N	-1.1487063856	-0.8132350822	 0.5837033984	-0.189229
H	 0.9565749846	 1.899040949	-0.3635027659	 0.126328
H	-0.7724750771	 1.7996410471	-0.7198935971	 0.135861
H	-0.2185326472	 1.9366584546	 0.9541538449	 0.125441
H	-0.2662826881	-0.4732955934	-2.0952313699	 0.136649
H	 1.4527906195	-0.4709183517	-1.652794286	 0.128124
H	-0.4123064947	-2.8712163523	 1.1557897985	 0.092116
H	 1.7177251505	-0.8523927585	 1.5875331259	 0.072382
H	-0.9457436364	-1.2272283777	 2.7388466654	 0.108257
H	-0.7941756107	 0.5118669705	 2.3304730914	 0.10571
124.6987	176.8847	260.528	309.8074	357.6685	401.7717	529.9199	579.934	603.7645	617.7419	677.4218	707.1748	780.6277	844.0228	871.8591	917.6049	927.8374	945.4558	953.7104	1038.774	1063.9157	1080.2423	1106.0724	1123.2249	1139.5836	1182.4318	1195.1828	1213.7933	1236.8142	1256.8112	1271.7881	1295.2334	1326.666	1417.1826	1444.9224	1487.8278	1491.8595	1544.042	1868.4059	3033.1902	3040.8649	3052.7227	3070.389	3098.4308	3102.7995	3120.7682	3133.1416	3144.2277
CC12CC(=O)C3C1CN23	C[C@@]12CC(=O)[C@H]3[C@@H]1CN23	
InChI=1S/C7H9NO/c1-7-2-5(9)6-4(7)3-8(6)7/h4,6H,2-3H2,1H3	InChI=1S/C7H9NO/c1-7-2-5(9)6-4(7)3-8(6)7/h4,6H,2-3H2,1H3/t4-,6+,7+/m0/s1
