20
gdb 81802	2.09402	1.76997	1.26568	2.8459	78.82	-0.2356	0.0715	0.3071	1099.5298	0.169554	-403.088511	-403.079664	-403.07872	-403.121547	34.109	
C	-0.1647288824	 1.5442892552	-0.0326656092	-0.407617
C	 0.0107202271	 0.0311598284	-0.0014617292	-0.118369
C	 1.1759917493	-0.5210812766	-0.8501824611	-0.055699
O	 1.2278959781	-1.9319850714	-0.6236039188	-0.294064
C	 1.878815982	-1.0646652533	 0.3290233359	 0.371177
C	 3.3147562354	-1.314074933	 0.6489668353	-0.518802
C	 0.7706294046	-0.5427256325	 1.2325719409	 0.30104
C	 0.8802131362	 0.0746150817	 2.571727376	-0.31193
N	 0.2646054233	-1.2580970749	 2.3954245294	-0.367243
H	 0.7839918737	 2.058990055	 0.152752224	 0.118207
H	-0.5423161623	 1.8728238639	-1.0071059934	 0.118865
H	-0.8795924002	 1.8784785032	 0.7264604589	 0.118003
H	-0.9327184438	-0.4816420378	-0.2179112932	 0.085044
H	 1.5621973362	-0.1416402854	-1.7903981284	 0.099983
H	 3.8700570829	-1.5573145121	-0.2604748356	 0.133973
H	 3.7698486875	-0.4345486511	 1.1156058316	 0.123764
H	 3.4108065649	-2.1546789572	 1.344878109	 0.14254
H	 1.8267662714	 0.0694287195	 3.1064491558	 0.117768
H	 0.2429880445	 0.9264723351	 2.7967527916	 0.111096
H	-0.7494368286	-1.1870352369	 2.4391570606	 0.232262
99.1995	187.2923	199.8964	213.3532	225.732	242.209	277.4755	379.3614	411.2442	508.7825	525.4737	602.9692	656.4501	776.5846	825.0509	856.7119	876.5259	903.1216	936.4265	973.1434	976.8143	1005.6082	1022.398	1057.8353	1096.0687	1111.8336	1122.1669	1133.1864	1188.2186	1232.5298	1245.0529	1260.4581	1290.0176	1346.0962	1392.6422	1405.2851	1416.7982	1467.1594	1483.8012	1493.7867	1496.2325	1499.5175	1517.2955	3029.4175	3037.1941	3049.2182	3095.1932	3100.1095	3101.3036	3101.7447	3123.0059	3174.5497	3182.7849	3493.4287
CC1C2OC2(C)C11CN1	C[C@H]1[C@@H]2O[C@]2(C)[C@]21CN2	
InChI=1S/C7H11NO/c1-4-5-6(2,9-5)7(4)3-8-7/h4-5,8H,3H2,1-2H3	InChI=1S/C7H11NO/c1-4-5-6(2,9-5)7(4)3-8-7/h4-5,8H,3H2,1-2H3/t4-,5-,6-,7+/m0/s1
