21
gdb 8888	3.51088	1.27913	1.02843	3.332	76.6	-0.2311	0.0377	0.2687	1234.467	0.186965	-366.302587	-366.292291	-366.291347	-366.338589	35.554	
C	-0.0686995931	 1.6305789668	-0.0012403764	-0.377274
C	-0.0647272167	 0.0993353701	-0.0133603452	-0.146971
N	-1.4078142607	-0.4810450023	 0.0006803928	-0.081525
C	-2.0292620664	-0.7024665282	-1.2902131637	-0.344232
C	-1.9951462135	-0.7102787465	 1.2192184982	 0.42279
O	-1.4155245922	-0.4361818958	 2.2600482697	-0.388801
C	-3.3953574158	-1.3299603233	 1.2375479576	-0.309828
C	-3.8820072719	-1.5831083324	 2.6640004822	-0.369439
H	 0.9559341963	 2.0139464308	-0.0411546442	 0.11536
H	-0.613401109	 2.041749625	-0.8577562534	 0.110504
H	-0.536295243	 1.9947852738	 0.9168242021	 0.143588
H	 0.4495338386	-0.2766522642	-0.9054341888	 0.09381
H	 0.4616541525	-0.2724975406	 0.867256554	 0.138254
H	-3.0426533052	-1.0819165204	-1.1794691336	 0.139224
H	-2.0825382613	 0.2299279416	-1.8674413053	 0.127062
H	-1.4560172618	-1.4288000486	-1.8818646599	 0.125532
H	-4.0923825873	-0.6632355699	 0.7139611497	 0.119092
H	-3.3880612723	-2.266120685	 0.665710798	 0.118013
H	-4.8852405947	-2.0193473474	 2.6522192399	 0.100832
H	-3.21001408	-2.2651026173	 3.1898254545	 0.131176
H	-3.9097995725	-0.6531866161	 3.2358856917	 0.132833
48.22	61.4135	88.8855	118.1097	173.2684	208.7701	212.7816	253.6566	343.9083	378.7598	408.5573	508.2031	585.9298	594.5739	748.5839	784.876	828.8801	890.5543	997.5553	1025.2352	1078.5067	1093.9635	1097.1937	1107.1857	1155.2693	1167.0157	1261.4362	1294.9933	1315.2061	1364.5009	1392.0043	1408.035	1413.4417	1440.1648	1463.2724	1474.174	1485.9773	1487.1861	1490.0284	1495.7564	1498.4043	1505.2988	1531.2721	1742.6679	3006.3887	3024.1876	3037.682	3039.2239	3047.1345	3052.0037	3057.8485	3098.7307	3119.5356	3123.1266	3131.9113	3136.1292	3170.5424
CCN(C)C(=O)CC	CCN(C)C(=O)CC	
InChI=1S/C6H13NO/c1-4-6(8)7(3)5-2/h4-5H2,1-3H3	InChI=1S/C6H13NO/c1-4-6(8)7(3)5-2/h4-5H2,1-3H3
