19
gdb 103487	3.54859	1.11935	1.10074	0.8247	70.98	-0.2466	0.0648	0.3114	1183.1351	0.158325	-460.128377	-460.119393	-460.118449	-460.162304	32.954	
C	-0.0741368175	 1.6306322134	 0.1402723508	-0.474163
C	-0.0334285444	 0.1209092062	 0.0771244863	 0.222529
C	-1.2895464553	-0.5508271943	-0.4530151518	-0.130208
O	-1.5241538981	-0.3065781764	-1.8313818536	-0.415876
C	 1.2572704514	-0.6083994152	-0.2547302929	 0.018481
O	 2.4530614319	 0.136341511	-0.1624834099	-0.256977
C	 2.8215773652	 0.081000469	 1.2035554831	 0.018478
O	 1.61827859	 0.0275448302	 1.9523635315	-0.256353
C	 0.7098227862	-0.6810409218	 1.1388256082	-0.008623
H	 0.8315569566	 2.0370975628	 0.5895909912	 0.142036
H	-0.1655092027	 2.0628174648	-0.8629140956	 0.112567
H	-0.9287810714	 1.9675912377	 0.7380189463	 0.116285
H	-1.2032790104	-1.6395132851	-0.3635068894	 0.103957
H	-2.151551928	-0.2437416981	 0.1609083433	 0.093694
H	-1.6807896878	 0.6360039209	-1.9434829155	 0.286771
H	 1.2775624825	-1.4281389132	-0.965176042	 0.110031
H	 3.4353054444	-0.81456803	 1.4012038001	 0.094234
H	 3.3687780863	 0.9900983727	 1.4673465829	 0.122046
H	 0.2787744011	-1.5661897846	 1.596501007	 0.101088
69.3001	113.4225	152.0906	179.121	219.0385	270.3983	296.2482	338.3388	365.9704	480.125	595.4819	717.3822	745.8775	754.0376	857.1244	871.6975	953.8189	957.0933	974.0828	1026.2133	1043.8085	1069.587	1086.3798	1089.9811	1118.22	1129.1253	1178.9095	1191.5067	1224.8124	1232.8779	1294.7125	1330.1356	1374.8926	1404.32	1416.297	1422.7099	1430.1268	1487.553	1496.2146	1503.0704	1539.0365	2957.2218	2976.1156	3029.257	3062.5012	3083.8615	3096.2351	3149.5856	3150.2237	3165.1094	3825.3015
CC1(CO)C2OCOC12	C[C@@]1(CO)[C@H]2OCO[C@@H]12	
InChI=1S/C6H10O3/c1-6(2-7)4-5(6)9-3-8-4/h4-5,7H,2-3H2,1H3	InChI=1S/C6H10O3/c1-6(2-7)4-5(6)9-3-8-4/h4-5,7H,2-3H2,1H3/t4-,5+,6+
