21
gdb 108374	2.03802	1.61438	1.2284	2.1056	79.07	-0.2272	0.0701	0.2973	1155.2786	0.180166	-424.187919	-424.17823	-424.177285	-424.222004	36.663	
C	-0.0559329097	 1.5019105145	-0.1215418402	-0.379605
C	-0.0210755181	-0.0132294682	 0.1271698458	-0.287261
C	-1.383450145	-0.6252741551	 0.0471822074	 0.442099
O	-2.367554789	-0.1986108255	 1.0065595009	-0.328454
C	-2.8532449813	-1.5616227565	 1.1490539161	-0.108922
C	-1.9323578359	-2.0487247103	 0.0442545571	-0.281099
C	-2.0676485372	-1.149615662	-1.18563278	 0.333981
C	-3.3778704568	-0.6179642726	-1.7145969142	-0.468068
O	-1.1231866373	-1.4687741955	-2.1796400467	-0.469333
H	 0.9419284919	 1.9365833155	-0.0114284634	 0.109049
H	-0.4125557059	 1.7242126477	-1.1321273148	 0.122416
H	-0.7234809307	 1.9968437394	 0.5898159613	 0.132941
H	 0.6144358099	-0.5070967924	-0.6131923912	 0.122694
H	 0.4038995617	-0.2180800283	 1.1173173289	 0.099611
H	-2.6001219031	-1.9560433904	 2.1402071905	 0.110044
H	-3.9359807266	-1.6372774307	 0.9922605978	 0.101249
H	-1.4119387796	-2.9970600587	-0.0012089221	 0.093935
H	-3.9842803717	-0.1920309725	-0.9130885531	 0.140789
H	-3.1819235604	 0.1686785321	-2.4498077128	 0.126754
H	-3.9578619706	-1.4073828351	-2.2084557994	 0.103992
H	-1.4270077047	-2.2634869755	-2.6324399078	 0.283187
72.019	129.2149	181.7277	196.3254	234.0217	260.1037	280.4799	301.7718	312.036	399.2338	441.0475	495.3357	519.3504	649.8832	705.1503	756.6917	818.5755	909.043	929.3607	962.0102	966.3333	981.4516	988.0022	1009.8541	1072.2714	1084.8748	1108.0771	1157.9622	1167.4224	1202.4779	1216.8572	1258.1618	1294.453	1305.5843	1349.0482	1367.3851	1404.3136	1407.0482	1468.5677	1474.827	1484.4326	1498.3821	1505.4612	1512.2824	1525.6863	3019.403	3028.0192	3033.9052	3040.2671	3063.6777	3093.1525	3094.0205	3110.3711	3120.2362	3136.0862	3191.8867	3788.1227
CCC12OCC1C2(C)O	CC[C@]12OC[C@H]1[C@]2(C)O	
InChI=1S/C7H12O2/c1-3-7-5(4-9-7)6(7,2)8/h5,8H,3-4H2,1-2H3	InChI=1S/C7H12O2/c1-3-7-5(4-9-7)6(7,2)8/h5,8H,3-4H2,1-2H3/t5-,6-,7-/m0/s1
