21
gdb 64421	2.39767	1.62998	1.29312	1.6094	77.38	-0.2597	0.0684	0.3281	1084.1817	0.182803	-424.231143	-424.222504	-424.221559	-424.263756	34.409	
C	-0.0935412416	 1.5331163418	 0.0460270217	-0.447713
C	 0.0194163083	 0.0071617168	-0.0219626195	 0.333022
O	-1.2784807972	-0.5946970232	 0.0785583244	-0.471268
C	 0.7311436433	-0.4470376231	-1.311490076	-0.231786
C	 0.9790510785	-1.9588021501	-1.3081618298	-0.21216
C	 1.9453817852	-2.3751189282	-0.1861483119	-0.225951
C	 1.680062075	-1.651394434	 1.1217006192	 0.040765
O	 2.1646232279	-0.2987186537	 1.2145459904	-0.268791
C	 0.7545006913	-0.5112308703	 1.2045357029	 0.065841
H	 0.8979114746	 1.9924564383	 0.0918744917	 0.136505
H	-0.6074556087	 1.9236778579	-0.8408334082	 0.102544
H	-0.6607812616	 1.8340231239	 0.9320127199	 0.120143
H	-1.8395983265	-0.1907482902	-0.5919189188	 0.277902
H	 0.1072156352	-0.1603078921	-2.1674324387	 0.079228
H	 1.6780893841	 0.0951842099	-1.4080876375	 0.109705
H	 0.0164605136	-2.460486438	-1.1626717186	 0.111659
H	 1.3706996444	-2.2857027023	-2.2768307902	 0.089266
H	 1.8776174027	-3.45494996	-0.0145941432	 0.099885
H	 2.98330937	-2.1699264546	-0.4765846537	 0.112878
H	 1.853445963	-2.2256706959	 2.0320012212	 0.090755
H	 0.2467862785	-0.304916143	 2.1477242745	 0.087571
100.3638	196.5884	240.9387	247.425	268.9792	315.1863	322.8904	391.4283	408.8996	460.6084	509.2343	534.8417	655.6475	723.7281	790.4729	836.306	870.6816	894.1708	922.9018	959.247	971.7257	1003.5835	1022.3555	1076.8717	1087.1703	1109.0583	1128.63	1163.7969	1203.6352	1223.4198	1236.3476	1287.3778	1288.9611	1343.0778	1367.1006	1378.0513	1386.3855	1400.0144	1414.2507	1462.13	1477.992	1481.0688	1491.1209	1495.1529	1502.0286	3022.281	3028.1467	3029.3062	3044.0698	3067.9251	3073.4236	3090.8647	3095.573	3098.1401	3111.2127	3120.4397	3808.0739
CC1(O)CCCC2OC12	C[C@@]1(O)CCC[C@H]2O[C@@H]12	
InChI=1S/C7H12O2/c1-7(8)4-2-3-5-6(7)9-5/h5-6,8H,2-4H2,1H3	InChI=1S/C7H12O2/c1-7(8)4-2-3-5-6(7)9-5/h5-6,8H,2-4H2,1H3/t5-,6-,7-/m1/s1
