15
gdb 124116	3.50316	0.98969	0.77617	4.3833	84.76	-0.2054	-0.0278	0.1777	1422.5146	0.112302	-416.778625	-416.769751	-416.768807	-416.813886	31.118	
C	-0.0712006497	 1.4509845125	-0.0003398191	-0.512084
C	-0.007766122	-0.00028841	-0.0310038033	 0.25402
C	 0.0292370271	-1.207587754	-0.0632888687	-0.150741
C	 0.1153989674	-2.6058675542	-0.0921355164	 0.264004
C	 1.1983623716	-3.4493151868	-0.0245354988	 0.040009
N	 2.5490877824	-3.1216364818	 0.0203781705	-0.617651
C	 0.6119678551	-4.741495202	-0.1026770394	-0.033269
N	-0.6948805248	-4.6855780353	-0.2048255384	-0.12884
O	-1.024821122	-3.3516018982	-0.2080369975	-0.220914
H	 0.6279943982	 1.8959937036	-0.7171288069	 0.155138
H	-1.0774397418	 1.7977975218	-0.2592381459	 0.162556
H	 0.1707634443	 1.8446071107	 0.9934655333	 0.15351
H	 2.7108402108	-2.1614548048	 0.2955392072	 0.254467
H	 3.1052014007	-3.749951202	 0.5842254296	 0.25303
H	 1.1036558829	-5.7043754296	-0.086904616	 0.126766
20.2256	79.9739	107.0234	233.0166	259.8632	270.5908	329.0592	370.2247	469.5609	477.8679	561.6224	638.092	672.9244	713.5967	749.4032	883.0174	935.4891	984.3553	1001.1463	1049.222	1050.8658	1082.0251	1187.9922	1234.8701	1314.4405	1411.883	1462.3527	1471.2642	1475.4803	1512.0757	1640.4402	1676.4356	2345.4017	3025.8899	3084.7122	3093.6529	3238.6686	3542.8363	3637.2712
CC#CC1=C(N)C=NO1	CC#Cc1c(N)cno1	
InChI=1S/C6H6N2O/c1-2-3-6-5(7)4-8-9-6/h4H,7H2,1H3	InChI=1S/C6H6N2O/c1-2-3-6-5(7)4-8-9-6/h4H,7H2,1H3
