23
gdb 118771	2.85684	0.96212	0.81987	0.6557	82.51	-0.2537	0.0808	0.3345	1508.0396	0.201662	-425.417325	-425.405966	-425.405022	-425.453872	40.977	
C	 0.1594397749	 1.371011	-0.3520491008	-0.458208
C	 0.0304005007	-0.0706064916	 0.1048955929	 0.343298
C	-1.0670831194	-0.8165746519	-0.6320798331	-0.455946
O	 1.2667864455	-0.7945110846	 0.2401916286	-0.33515
C	 0.5131490639	-0.5134321342	 1.440368942	 0.326128
C	 1.1768374516	 0.459853254	 2.4009412223	-0.465894
C	-0.076732567	-1.7325271629	 2.143210944	-0.269261
C	 0.9642172677	-2.8246453811	 2.3813174946	-0.062574
O	 0.3209894481	-3.8766937518	 3.0871920057	-0.423444
H	 0.9535424241	 1.9098137349	 0.16339847	 0.123333
H	 0.3759546354	 1.399161132	-1.4255726663	 0.124451
H	-0.7825379816	 1.9072912756	-0.1914452292	 0.119013
H	-0.9586970659	-0.6601966922	-1.7109309164	 0.12013
H	-1.0249816216	-1.8901214119	-0.4489014258	 0.131939
H	-2.0569457204	-0.4468008915	-0.3422318455	 0.118996
H	 0.4233180063	 1.0129181692	 2.9725849602	 0.1212
H	 1.8004241098	-0.0822993167	 3.1195461745	 0.123692
H	 1.81775607	 1.1717293603	 1.8813947513	 0.129329
H	-0.4868208443	-1.4221717484	 3.1110646804	 0.10594
H	-0.9022578196	-2.1736143087	 1.5816559906	 0.107551
H	 1.354898267	-3.1635650748	 1.4119546542	 0.106016
H	 1.8155923075	-2.4257924532	 2.955740261	 0.084476
H	 0.9496548272	-4.5974786306	 3.185555425	 0.284984
69.4625	82.2958	111.705	125.9647	149.6635	164.7235	226.0994	260.3389	295.5222	324.3597	350.4702	382.5904	397.3358	469.9612	498.4207	554.3493	698.966	737.0764	799.953	874.6266	916.1828	940.594	975.0163	1004.764	1015.1465	1048.808	1066.4574	1098.5569	1150.9391	1178.7818	1196.2414	1233.241	1246.6414	1257.2202	1312.4439	1341.7325	1402.7136	1406.1695	1418.3619	1438.2955	1456.7847	1473.7871	1480.459	1481.3691	1492.1949	1506.4397	1510.9808	1523.37	1531.9478	2973.4505	3023.3684	3034.5041	3038.1803	3041.3198	3053.8698	3090.8626	3095.3347	3096.8647	3112.8624	3142.6093	3147.1576	3158.3366	3831.2564
CC1(C)OC1(C)CCO	CC1(C)O[C@]1(C)CCO	
InChI=1S/C7H14O2/c1-6(2)7(3,9-6)4-5-8/h8H,4-5H2,1-3H3	InChI=1S/C7H14O2/c1-6(2)7(3,9-6)4-5-8/h8H,4-5H2,1-3H3/t7-/m1/s1
