20
gdb 15000	4.22982	1.40407	1.13137	0.2079	71.68	-0.2326	0.0923	0.3249	1098.2556	0.17817	-386.144637	-386.136596	-386.135652	-386.177027	30.381	
C	-0.0346939631	 1.5541096671	 0.013482631	-0.383328
C	 0.0216914346	 0.0243635275	-0.0159447897	-0.194069
C	 0.7191394447	-0.5256616419	-1.2546207675	 0.129795
C	 0.8297800454	-2.0513307563	-1.2489003837	-0.092689
O	 1.4058063379	-2.5307960861	-2.4538339778	-0.252344
C	 0.6583852593	-2.1046381084	-3.5814008367	-0.077695
C	 0.551886262	-0.5841183185	-3.604222053	-0.077556
O	-0.0251175202	-0.1093582092	-2.3991502118	-0.265314
H	 0.9720617868	 1.9859471128	 0.0327643006	 0.111238
H	-0.5463690799	 1.9355253557	-0.8733338502	 0.136155
H	-0.5679959829	 1.9105053907	 0.8997377556	 0.109793
H	 0.5478742345	-0.3517282791	 0.8704197323	 0.096207
H	-0.9942373044	-0.3876316808	 0.0195204881	 0.104448
H	 1.7407966252	-0.1105977496	-1.3250171908	 0.065825
H	 1.4787768977	-2.3914569886	-0.4361323833	 0.106135
H	-0.173896819	-2.4865962861	-1.1053701965	 0.087759
H	 1.1805796956	-2.476638008	-4.4683204573	 0.106207
H	-0.3532941324	-2.5428802282	-3.5570621591	 0.091491
H	 1.554761842	-0.1485184338	-3.745004323	 0.092786
H	-0.0942364838	-0.2470734992	-4.4210565972	 0.105156
92.2637	132.362	194.1462	241.7527	262.6892	355.4696	370.4497	461.7282	475.3873	498.8145	614.7077	763.9712	846.2227	887.2542	913.0263	940.468	981.7977	1003.411	1038.885	1106.3556	1127.0594	1129.9609	1146.8059	1157.8619	1174.2784	1252.0044	1277.8062	1303.091	1314.2753	1328.1628	1364.5069	1391.8926	1398.2598	1406.488	1418.5777	1425.9815	1473.3487	1481.1714	1486.6609	1492.9842	1496.9823	1509.7299	2943.4802	2965.3515	2970.1153	2979.8433	3026.5285	3038.1392	3063.4678	3081.2714	3083.6919	3085.6361	3103.0241	3127.7984
CCC1COCCO1	CC[C@H]1COCCO1	
InChI=1S/C6H12O2/c1-2-6-5-7-3-4-8-6/h6H,2-5H2,1H3	InChI=1S/C6H12O2/c1-2-6-5-7-3-4-8-6/h6H,2-5H2,1H3/t6-/m0/s1
