18
gdb 70844	3.15831	1.78028	1.45579	1.0087	74.25	-0.2241	0.066	0.2902	939.6561	0.147315	-401.86363	-401.856237	-401.855293	-401.894793	30.362	
C	 0.0205086374	 1.4874050671	 0.019228493	-0.493087
C	-0.0371317478	-0.0079089818	 0.1281444749	 0.362885
C	-1.3351892789	-0.8188412543	 0.3111643193	-0.348098
C	-0.3569400337	-1.9564049144	 0.7030657997	 0.387932
O	-0.6841752518	-3.03659855	 1.5066385418	-0.479074
C	 0.5710733689	-2.1449292055	-0.5254480196	-0.13165
C	 1.6767500757	-1.3520266601	 0.0586838079	-0.055708
C	 0.7096821929	-0.8984416176	 1.1783837955	-0.176888
N	 0.7738863189	-0.7295957713	-0.9623480447	-0.177607
H	 1.0588088377	 1.8333909938	-0.0149642021	 0.12431
H	-0.4739668148	 1.8220682871	-0.8994034556	 0.126838
H	-0.4743445568	 1.9638805142	 0.8713625932	 0.115294
H	-1.899625505	-0.4707242192	 1.1820361417	 0.105182
H	-1.9952412716	-0.9501220272	-0.5518842648	 0.095292
H	-1.2277628913	-3.6464887384	 0.994702864	 0.282547
H	 0.5695103111	-2.9244275689	-1.2791015631	 0.089056
H	 2.7526935714	-1.4035167184	-0.0526718874	 0.095615
H	 0.8984761879	-0.6582087952	 2.2211546062	 0.077159
208.4292	219.5016	230.8925	262.1026	322.8516	371.5463	426.7518	561.2927	580.2761	599.9884	752.9089	775.4631	795.5648	823.8711	844.6699	869.2733	897.4608	918.0983	951.694	987.683	1004.1209	1012.0535	1037.6148	1049.2544	1120.1224	1135.6743	1163.8666	1176.732	1205.0562	1218.4059	1234.548	1302.6778	1315.6248	1334.4712	1385.9269	1415.9772	1482.0295	1483.8901	1488.8768	3030.6181	3044.5298	3098.728	3105.3321	3108.8586	3155.14	3170.8603	3191.356	3791.1997
CC12CC3(O)C4C(C13)N24	C[C@]12C[C@@]3(O)[C@@H]4[C@H]([C@@H]13)N24	
InChI=1S/C7H9NO/c1-6-2-7(9)4(6)3-5(7)8(3)6/h3-5,9H,2H2,1H3	InChI=1S/C7H9NO/c1-6-2-7(9)4(6)3-5(7)8(3)6/h3-5,9H,2H2,1H3/t3-,4-,5-,6-,7-,8?/m0/s1
