18
gdb 95905	2.24591	1.55813	1.33608	4.4534	71.6	-0.2706	0.0264	0.297	1054.8904	0.146768	-439.102164	-439.093055	-439.092111	-439.135875	33.525	
C	-0.0877629648	 1.5005904338	-0.0897456621	-0.431482
C	 0.0004965208	-0.0180653704	 0.0516117196	 0.216235
O	 0.618063721	-0.559955191	-1.1124658197	-0.287889
C	 1.4926823725	-1.6437075181	-0.7658618468	-0.063092
C	 1.2795013149	-1.9071776988	 0.7303578788	-0.282097
C	 0.8574755476	-0.5244007689	 1.2438048012	 0.093741
O	 1.9556868516	 0.3590615735	 1.3790046744	-0.442281
C	-1.3653377836	-0.5924545787	 0.1849413083	 0.266788
N	-2.4218439997	-1.049149786	 0.2899228763	-0.346627
H	 0.9203280255	 1.9090805727	-0.1493930761	 0.151071
H	-0.6393030848	 1.749699369	-0.9986913035	 0.141118
H	-0.6053020763	 1.9386612584	 0.7676933927	 0.130846
H	 1.250591517	-2.5094950417	-1.3894069425	 0.116928
H	 2.5236733649	-1.3364471882	-0.9758788567	 0.113369
H	 0.471335341	-2.626283804	 0.8940582072	 0.134684
H	 2.1758511854	-2.2815990022	 1.2316989483	 0.103425
H	 0.2649457579	-0.5705765272	 2.1658011338	 0.093345
H	 2.5254402391	 0.0213110879	 2.0767347867	 0.291918
73.4817	149.3923	154.0483	193.5175	226.8162	235.2965	286.8648	350.3843	394.6748	445.8644	526.0958	565.7921	633.6544	696.8163	799.0807	862.1052	884.6627	903.2876	913.0518	997.3386	1037.3665	1055.6993	1115.5232	1127.499	1177.2385	1194.0385	1220.1691	1226.4932	1249.7612	1314.9298	1343.4204	1392.6098	1402.473	1426.3109	1480.036	1482.8076	1488.8833	1525.5277	2349.4765	3031.9449	3035.5221	3061.921	3062.9165	3082.8711	3112.8847	3136.3181	3167.8254	3829.0798
CC1(OCCC1O)C#N	C[C@]1(OCC[C@H]1O)C#N	
InChI=1S/C6H9NO2/c1-6(4-7)5(8)2-3-9-6/h5,8H,2-3H2,1H3	InChI=1S/C6H9NO2/c1-6(4-7)5(8)2-3-9-6/h5,8H,2-3H2,1H3/t5-,6+/m1/s1
