16
gdb 10449	3.30731	1.50751	1.2226	2.5204	70.75	-0.2504	-0.0257	0.2247	1007.6601	0.127812	-346.569588	-346.561159	-346.560215	-346.602859	30.47	
O	-0.4209624425	 0.5806892085	-1.0935980161	-0.272607
C	-0.0581741519	 1.1108270288	-0.0702355962	 0.100558
C	 1.2083064146	 1.8843365462	 0.0701139371	 0.260908
C	 1.4781149408	 2.4897468009	 1.444138519	-0.464849
C	 1.6371038338	 1.4846534361	 2.4920780605	 0.308935
C	 1.7571636948	 0.6395313735	 3.338091252	-0.444425
C	 2.3757126797	 1.3954212839	-0.7757752034	-0.274152
C	 1.6578141403	 2.6388305144	-1.1758660526	-0.301669
H	-0.6731157314	 1.0509502616	 0.854411939	 0.084435
H	 2.3804198736	 3.110460589	 1.3915983305	 0.135088
H	 0.6607910297	 3.1721768887	 1.7147527541	 0.137559
H	 1.8670727487	-0.1016103842	 4.0906182467	 0.201675
H	 3.3631887543	 1.4768259155	-0.3348877534	 0.124863
H	 2.1942860981	 0.4999331899	-1.3586614188	 0.141967
H	 0.9893965711	 2.5833337812	-2.0273404621	 0.142141
H	 2.1408605264	 3.5974153258	-1.0200972963	 0.119574
58.6313	95.5784	132.006	246.4559	294.9145	309.2493	340.4326	345.2129	469.3769	627.8492	640.1233	658.2518	747.3545	793.3129	833.1998	897.0327	919.3156	965.1562	993.2187	1033.2142	1056.2905	1068.3298	1100.4039	1201.89	1205.0088	1285.6005	1324.6434	1361.4126	1435.457	1453.2759	1466.0001	1486.8639	1809.0888	2238.694	2893.1159	3016.24	3054.3359	3136.3128	3140.0709	3225.566	3239.4495	3504.9605
O=CC1(CC#C)CC1	O=CC1(CC#C)CC1	
InChI=1S/C7H8O/c1-2-3-7(6-8)4-5-7/h1,6H,3-5H2	InChI=1S/C7H8O/c1-2-3-7(6-8)4-5-7/h1,6H,3-5H2
