16
gdb 29918	3.31669	1.31058	0.95059	7.9138	79.17	-0.2376	-0.0111	0.2265	1185.7026	0.125378	-396.994939	-396.986272	-396.985328	-397.02852	30.601	
C	 0.0065862056	 1.4510995598	 0.0190217874	-0.344376
N	 0.0029039083	 0.0005476501	 0.0267845927	-0.044773
C	-0.0337373979	-0.8185928075	-1.0729775979	-0.00896
N	-0.0274411804	-2.0857926758	-0.7558048965	-0.323985
C	 0.0155379505	-2.0973173157	 0.6244044825	 0.110818
C	 0.036075199	-3.2919893552	 1.390636457	 0.216609
N	 0.0539761597	-4.2410161657	 2.0547509893	-0.356716
C	 0.0351348329	-0.8119281108	 1.1348024058	 0.216602
C	 0.0802744719	-0.3099536285	 2.5351175719	-0.515654
H	 0.9122752555	 1.8423379843	 0.4916182483	 0.153154
H	-0.0245424772	 1.7964876403	-1.0154234854	 0.154832
H	-0.8659582875	 1.8471578437	 0.5467484021	 0.153156
H	-0.0638187537	-0.4165010217	-2.0752397071	 0.13818
H	 0.9723631834	 0.2987634452	 2.7245428237	 0.140724
H	-0.7948776562	 0.3036408155	 2.779768977	 0.140725
H	 0.099418306	-1.157684478	 3.2228151093	 0.169662
96.8261	118.4018	140.5358	149.5699	243.5812	256.214	256.3904	396.9474	526.0799	527.5776	591.912	646.3066	705.3058	736.8944	745.324	820.0707	965.9889	1061.8596	1074.6818	1109.0201	1151.6002	1195.7767	1273.0975	1315.8785	1388.8421	1418.6004	1429.9463	1463.8855	1476.3957	1481.7552	1488.6345	1513.022	1546.1133	1592.6834	2344.0764	3026.2028	3045.7552	3075.4767	3109.2445	3135.3175	3145.1992	3247.7902
CN1C=NC(C#N)=C1C	Cn1cnc(C#N)c1C	
InChI=1S/C6H7N3/c1-5-6(3-7)8-4-9(5)2/h4H,1-2H3	InChI=1S/C6H7N3/c1-5-6(3-7)8-4-9(5)2/h4H,1-2H3
