21
gdb 119395	4.01483	0.95486	0.91269	1.2678	83.06	-0.2233	0.0153	0.2386	1359.0846	0.183248	-387.050907	-387.04244	-387.041496	-387.08425	33.224	
O	-0.1021022808	 1.4817198903	 0.0145333724	-0.417996
C	 0.0018120409	 0.0704735019	 0.1321518126	-0.074412
C	-1.3826884753	-0.5209195266	-0.1121315801	-0.311667
C	-1.409170376	-2.0335591255	-0.0463371879	 0.312363
C	-1.0095274127	-2.8537325542	 1.2394295385	-0.243357
C	-1.7781739197	-3.9856987557	 0.4795832588	-0.077809
C	-2.7517744845	-2.8510181021	 0.0121460184	-0.254397
C	-0.9002017466	-4.1228945192	-0.7729826604	-0.09267
C	-0.6593537902	-2.8559723078	-1.1168774079	-0.117215
H	 0.764794164	 1.8619091736	 0.1830823007	 0.284416
H	 0.7198229558	-0.3381422695	-0.5972588333	 0.085841
H	 0.3578514839	-0.2208983141	 1.1333843746	 0.088839
H	-2.0721875359	-0.0994042522	 0.6288011186	 0.100866
H	-1.7358699887	-0.1830644754	-1.0947107525	 0.104868
H	 0.0550146348	-3.0112758355	 1.429868557	 0.089152
H	-1.5215517431	-2.5092127385	 2.1446705645	 0.089557
H	-2.1290407533	-4.8892502396	 0.9767977085	 0.05933
H	-3.4301696934	-2.5038448306	 0.7993425349	 0.089065
H	-3.2892366511	-3.0026114041	-0.9272667261	 0.090939
H	-0.583836976	-5.0452364786	-1.2392920092	 0.097524
H	-0.0945863022	-2.4522379265	-1.9460453721	 0.096764
84.9026	90.0017	130.5886	266.8849	303.6561	341.4717	349.9884	464.9669	531.0809	541.0676	690.7667	699.6316	728.9432	792.5366	839.1641	842.4119	887.1353	907.8838	911.6039	942.6007	962.1127	1004.0872	1028.1562	1061.0069	1062.6772	1068.7969	1090.387	1111.9085	1160.618	1186.4137	1216.9437	1228.624	1246.3769	1250.5878	1260.3244	1277.2048	1314.3335	1341.6716	1360.9722	1461.599	1477.8288	1491.0772	1514.0561	1527.5914	1628.1953	2964.7746	2989.4065	3027.3986	3033.2986	3045.2074	3068.7862	3107.4487	3112.8651	3121.627	3212.9262	3241.6148	3830.4116
OCCC12CC(C1)C=C2	OCC[C@@]12C[C@@H](C1)C=C2	
InChI=1S/C8H12O/c9-4-3-8-2-1-7(5-8)6-8/h1-2,7,9H,3-6H2	InChI=1S/C8H12O/c9-4-3-8-2-1-7(5-8)6-8/h1-2,7,9H,3-6H2/t7-,8-
