13
gdb 24790	3.8981	1.23053	0.93529	3.2912	80.47	-0.2397	-0.062	0.1777	1152.9634	0.089939	-415.600357	-415.593016	-415.592072	-415.632407	27.476	
N	-0.0368658037	 1.3230939319	 0.133156739	-0.521225
C	-0.0061229122	 0.0560910572	-0.0254044816	 0.346311
C	-1.2319961243	-0.7302455388	-0.0668959143	-0.231406
C	-1.1788645359	-2.063667854	-0.234650247	 0.213794
O	 0.0336691756	-2.7127054879	-0.3704975278	-0.22235
C	 1.141808345	-1.9299273681	-0.3240596145	 0.117734
N	 1.2038058833	-0.673105446	-0.1710586016	-0.308522
C	-2.2900550003	-2.938449579	-0.2923577512	 0.234243
C	-3.238422899	-3.6769460377	-0.340600033	-0.355512
H	 0.9215582932	 1.6794281344	 0.133585802	 0.22395
H	-2.1847779873	-0.2300677606	 0.0386416796	 0.140398
H	 2.0319360319	-2.5417214297	-0.4405583765	 0.149905
H	-4.0781055362	-4.3266975018	-0.3827987332	 0.212681
123.3623	126.7379	145.7803	351.0848	416.9904	434.8002	461.417	534.0667	574.2853	610.5302	666.1646	691.1922	742.6414	782.2609	882.7163	900.354	928.5104	937.4671	974.9717	1080.2797	1172.1124	1183.309	1273.1111	1389.7812	1419.1566	1643.7912	1692.0029	1715.3025	2238.5733	3188.4189	3237.7823	3460.2885	3499.2105
N=C1C=C(OC=N1)C#C	[NH]C1=C[C@@H](OC=N1)C#C	
InChI=1S/C6H4N2O/c1-2-5-3-6(7)8-4-9-5/h1,3-4,7H	InChI=1S/C6H5N2O/c1-2-5-3-6(7)8-4-9-5/h1,3-5,7H/t5-/m0/s1
