18
gdb 56245	5.00799	0.65937	0.59052	5.7612	70.77	-0.2172	0.0242	0.2414	1801.2517	0.146306	-472.457093	-472.446534	-472.44559	-472.49415	36.436	
N	 0.030664811	 1.2549371424	 0.1324914234	-0.522017
C	 0.0418556414	-0.1034205615	 0.0138935887	 0.406057
O	 1.0651866417	-0.7481786353	-0.0974450967	-0.348869
C	-1.3396501054	-0.7599647762	-0.0434975635	-0.233247
N	-1.2389394034	-2.1301199144	 0.393021142	-0.297627
C	-2.3006655977	-2.9960157195	-0.0552119116	-0.233276
C	-1.8262924247	-4.4506189828	-0.0098556556	 0.406042
N	-2.8199724314	-5.3784849129	 0.0950946615	-0.522012
O	-0.6537305916	-4.7482107117	-0.1186639669	-0.348844
H	 0.9163123926	 1.7294558553	 0.2007987242	 0.262882
H	-0.8029847536	 1.7590700634	 0.3786491566	 0.258604
H	-2.056548185	-0.1992694517	 0.5742590477	 0.095278
H	-1.6933322696	-0.6566255729	-1.0909236335	 0.102566
H	-0.3379512504	-2.5159455646	 0.1180686542	 0.255105
H	-3.2029218236	-2.8677938039	 0.5607941213	 0.095314
H	-2.6156330829	-2.8007084881	-1.1018773031	 0.102556
H	-3.7606313551	-5.1230461991	 0.3392878086	 0.258603
H	-2.5549895625	-6.3482096464	 0.1552459129	 0.262887
44.3598	48.467	81.9413	104.8509	190.423	204.6579	210.2632	251.1962	297.8343	418.9629	468.726	515.2061	518.3763	606.0164	613.729	670.9669	695.4237	789.2376	828.9218	911.1542	990.3949	1032.69	1080.4973	1093.6026	1164.14	1207.9546	1227.2429	1258.8271	1283.9954	1316.2203	1372.7756	1431.5592	1486.0695	1496.811	1511.4336	1618.4357	1619.4795	1803.3885	1809.4201	2884.0626	2884.2455	2999.4689	3001.8099	3500.6433	3601.3301	3601.5257	3736.0694	3736.1064
NC(=O)CNCC(N)=O	NC(=O)CNCC(=O)N	
InChI=1S/C4H9N3O2/c5-3(8)1-7-2-4(6)9/h7H,1-2H2,(H2,5,8)(H2,6,9)	InChI=1S/C4H9N3O2/c5-3(8)1-7-2-4(6)9/h7H,1-2H2,(H2,5,8)(H2,6,9)
