17
gdb 69137	2.66303	1.65712	1.32496	3.4081	71.87	-0.2393	-0.0354	0.2039	1003.9887	0.135902	-421.81737	-421.809857	-421.808913	-421.849094	29.635	
C	-0.0404817138	 1.5049496656	-0.0176813805	-0.49206
C	-0.0197086694	-0.0029597442	 0.0152539235	 0.30911
C	-0.8495387605	-0.8003528279	 0.9742375032	-0.325891
C	 0.6705502876	-0.8049368162	 1.1134046532	-0.208471
C	 1.5035439851	-1.8728380393	 0.4570071182	 0.418302
O	 2.3844112669	-2.511376613	 0.977143441	-0.320219
C	 1.2011350972	-1.8717551587	-1.037198503	-0.096691
O	-0.1902578301	-2.076701396	-1.3515089459	-0.244204
C	 0.2975780669	-0.7372832833	-1.2913676655	-0.020121
H	 0.8960367445	 1.9107036724	-0.4167232038	 0.126001
H	-0.8601433779	 1.8742377278	-0.6449965631	 0.127896
H	-0.1792345124	 1.915049437	 0.9867043435	 0.126406
H	-1.3731641843	-0.2513492259	 1.75001649	 0.119233
H	-1.3461641743	-1.6932522908	 0.6201896775	 0.147956
H	 1.0987090768	-0.3422386881	 1.9948716004	 0.110183
H	 1.920518115	-2.2906765067	-1.7343052453	 0.117126
H	 0.2877898928	-0.1889906027	-2.2297727232	 0.105444
121.8601	206.0752	211.1944	280.4548	315.0102	376.6647	446.4979	513.389	569.0924	571.9914	709.4063	756.6515	788.527	842.5839	856.5215	876.0339	932.2995	965.9129	975.089	1016.5883	1036.747	1070.8118	1093.7705	1102.0329	1120.6919	1192.1758	1230.9321	1248.6586	1284.9643	1310.9207	1373.1883	1411.3036	1422.7566	1481.8716	1489.179	1500.5755	1831.6244	3026.7527	3086.3298	3109.0328	3143.8463	3150.2884	3171.0148	3185.9873	3246.7676
CC12CC1C(=O)C1OC21	C[C@]12C[C@H]1C(=O)[C@H]1O[C@@H]21	
InChI=1S/C7H8O2/c1-7-2-3(7)4(8)5-6(7)9-5/h3,5-6H,2H2,1H3	InChI=1S/C7H8O2/c1-7-2-3(7)4(8)5-6(7)9-5/h3,5-6H,2H2,1H3/t3-,5+,6+,7-/m0/s1
