23
gdb 116171	2.86771	1.03099	0.80501	2.4726	82.53	-0.247	0.0762	0.3232	1476.1881	0.20629	-425.438319	-425.42872	-425.427776	-425.472756	36.415	
C	 0.0543574876	 1.3592475087	-0.0886547098	-0.239876
O	-0.0175150627	-0.0260996022	 0.1505263127	-0.245903
C	-1.3223134434	-0.578809726	 0.0693945178	 0.131238
C	-1.813835811	-0.7299501436	-1.3785172084	-0.206848
C	-3.1696939363	-1.4502721527	-1.431711041	-0.21575
C	-3.1093851343	-2.8080318681	-0.7176173308	-0.213001
C	-2.6192592416	-2.6532046631	 0.7268723212	 0.123413
O	-2.4415323257	-3.9075741219	 1.3733056498	-0.439229
C	-1.2708431995	-1.9364171585	 0.7715468442	-0.201664
H	 1.0850810188	 1.6661222145	 0.1072202453	 0.125805
H	-0.1946276133	 1.6280466953	-1.1257695142	 0.10499
H	-0.6146148935	 1.9230352233	 0.5813033226	 0.100517
H	-2.0246143745	 0.0805760786	 0.6121108624	 0.056557
H	-1.8924488846	 0.2494943193	-1.8619897558	 0.090572
H	-1.060416987	-1.3031480679	-1.9340087007	 0.102478
H	-3.9354979772	-0.821613001	-0.9565116494	 0.095598
H	-3.4852090309	-1.5832539579	-2.4718256955	 0.098135
H	-4.0964108046	-3.2889975194	-0.7278206721	 0.078711
H	-2.4196866353	-3.4817446773	-1.2421904273	 0.103352
H	-3.3580932172	-2.0469909635	 1.281492465	 0.058621
H	-3.2809399366	-4.3777705175	 1.3429010413	 0.277134
H	-0.5196127965	-2.5643521534	 0.2773051547	 0.109471
H	-0.9502954105	-1.8060793157	 1.8091227379	 0.105681
66.3205	119.0696	154.0725	186.4923	236.8745	283.1298	290.6512	328.9321	371.9497	411.0724	451.0203	472.5506	518.5193	568.71	789.1495	850.8963	883.0502	903.3797	938.2325	942.4324	1004.4911	1039.0812	1067.8369	1083.6173	1103.1185	1117.5212	1150.9227	1168.0414	1182.5583	1213.1553	1218.9446	1253.41	1276.3104	1283.4843	1309.8548	1338.111	1345.5147	1369.8462	1386.6552	1392.002	1405.1702	1440.0607	1477.3819	1484.6687	1486.7595	1490.6875	1492.2894	1507.2374	1511.9549	2928.2419	2937.7935	2972.454	3012.7328	3015.7057	3020.127	3029.4565	3042.8928	3057.81	3070.5715	3077.8922	3095.9854	3108.1786	3813.7175
COC1CCCC(O)C1	CO[C@H]1CCC[C@@H](O)C1	
InChI=1S/C7H14O2/c1-9-7-4-2-3-6(8)5-7/h6-8H,2-5H2,1H3	InChI=1S/C7H14O2/c1-9-7-4-2-3-6(8)5-7/h6-8H,2-5H2,1H3/t6-,7+/m1/s1
