18
gdb 118945	2.57188	1.07739	0.98713	3.7478	67.82	-0.255	0.0037	0.2588	1278.2916	0.146766	-476.228411	-476.218884	-476.21794	-476.263174	34.158	
N	 0.0074478785	 1.5067324388	-0.0949670819	-0.549073
C	-0.0198455706	 0.0616101366	-0.0810882282	 0.079827
C	-1.4643821583	-0.450338541	-0.081937572	-0.22524
C	-2.289103732	 0.035936516	 1.1072362677	-0.07994
O	-3.5779403856	-0.548463899	 0.9738426531	-0.424668
C	 0.9387443669	-0.7572320832	-1.002964103	-0.128713
O	 1.5994110759	-1.3229383192	 0.1717979701	-0.242482
C	 0.8446352853	-0.5730820932	 1.0373892055	 0.450167
O	 0.9278796316	-0.5262934541	 2.2219652116	-0.324951
H	 0.9540726375	 1.8696395159	-0.1356436229	 0.238453
H	-0.5009167662	 1.8687705925	-0.8958101862	 0.235673
H	-1.9543812018	-0.1343600617	-1.0128322201	 0.106206
H	-1.4675338171	-1.5456553254	-0.084055499	 0.121236
H	-1.798745554	-0.2683728395	 2.0426456312	 0.116255
H	-2.3380383581	 1.1328394373	 1.1039612935	 0.103234
H	-4.1048524539	-0.2811684621	 1.7322596334	 0.288263
H	 0.4947004174	-1.5451135202	-1.6152301299	 0.122725
H	 1.6401581448	-0.1580560987	-1.5895026727	 0.113027
73.5825	101.3743	109.1645	169.1513	213.8152	254.9882	281.5705	304.6149	342.2819	385.0077	442.4319	567.0796	712.5817	768.4679	771.9285	807.3854	826.1982	918.9159	954.2564	978.2038	1022.3746	1055.0793	1077.2782	1091.6016	1128.6224	1157.5317	1201.5026	1250.5747	1272.1665	1304.9468	1316.7438	1345.2896	1384.1542	1462.3666	1488.1633	1513.007	1532.9354	1658.946	1931.8632	3004.2006	3021.6009	3039.5057	3059.4184	3080.6283	3124.8837	3497.0465	3583.1197	3834.4306
NC1(CCO)COC1=O	N[C@@]1(CCO)COC1=O	
InChI=1S/C5H9NO3/c6-5(1-2-7)3-9-4(5)8/h7H,1-3,6H2	InChI=1S/C5H9NO3/c6-5(1-2-7)3-9-4(5)8/h7H,1-3,6H2/t5-/m0/s1
