17
gdb 84327	3.18165	1.36704	0.96369	7.4632	80.81	-0.2021	-0.0005	0.2016	1177.8771	0.138132	-418.062781	-418.05456	-418.053615	-418.095372	31.46	
C	 0.0464765576	 1.5096122161	-0.1464241703	-0.35913
N	-0.2766920056	 0.1875583712	 0.3712181713	-0.126928
C	-1.4267865384	-0.457403283	-0.0358392204	 0.028013
C	-1.749205181	-1.7032758858	 0.3645749002	-0.283022
C	-0.8894156817	-2.4618952316	 1.2799746612	 0.385778
O	-1.1522220065	-3.5998007215	 1.6632607726	-0.415032
C	 0.2870572596	-1.7164217475	 1.698253345	-0.351758
H	 0.9598387943	-2.1917832059	 2.4034011256	 0.089467
C	 0.5682695039	-0.4586479142	 1.2532693827	 0.428893
N	 1.7398024403	 0.2309389623	 1.5789987144	-0.585332
H	 2.2817558073	-0.264280089	 2.273748313	 0.261627
H	 1.6033760012	 1.1925060583	 1.8650053409	 0.25221
H	 1.078256706	 1.5365054802	-0.5051880856	 0.161584
H	-0.6222580339	 1.7347460672	-0.9773855879	 0.148235
H	-0.0833959815	 2.2916046908	 0.6131604254	 0.134503
H	-2.0481492658	 0.1194864295	-0.7107138407	 0.123452
H	-2.6616437257	-2.1682693173	 0.0122459826	 0.10744
102.8283	151.4235	196.949	232.1372	319.3564	358.8411	362.3896	428.9762	461.1403	518.2793	583.7134	629.9933	713.2494	742.1461	761.2366	776.3188	824.8208	864.0548	937.9071	948.71	1045.6301	1130.9918	1148.383	1169.6743	1238.6631	1244.2469	1270.0011	1343.6866	1426.8715	1468.2789	1485.7495	1495.1587	1528.8266	1595.7657	1652.8102	1694.4078	1730.1503	3016.9606	3098.1705	3150.0577	3191.0196	3194.0578	3217.8577	3541.1818	3639.7466
CN1C=CC(=O)[CH-]C1=[NH2+]	Cn1ccc(=O)cc1N	
InChI=1S/C6H7N2O/c1-8-3-2-5(9)4-6(8)7/h2-4,7H,1H3/q-1/p+1	InChI=1S/C6H8N2O/c1-8-3-2-5(9)4-6(8)7/h2-4H,7H2,1H3
