17
gdb 48885	3.37871	1.55036	1.30238	2.8683	71.47	-0.2271	-0.0373	0.1898	980.0752	0.137741	-417.956905	-417.949785	-417.94884	-417.988597	27.89	
O	-0.7982734045	 1.0261133929	 0.4027839134	-0.249512
C	 0.25236432	 0.8788345539	-0.1682865344	 0.073106
C	 1.4200553629	 1.8215270629	-0.0562114339	 0.188107
C	 1.3967695698	 2.9477083424	 1.0107632232	-0.204067
N	 1.8035094974	 3.9812431275	-0.0031339027	-0.152201
C	 2.9119256733	 3.3941578902	-0.8269452455	-0.021839
C	 3.7170969	 2.216881613	-0.3023718101	-0.203063
N	 2.7072521232	 1.1378660454	-0.1704290719	-0.349139
C	 1.5253658576	 2.9835131652	-1.0898983562	-0.065658
H	 0.438463368	 0.0188426352	-0.8489575302	 0.09004
H	 0.3872570489	 3.1751112429	 1.3569656535	 0.137283
H	 2.0711284236	 2.8373513789	 1.8672637409	 0.095932
H	 3.3972714712	 4.1369795062	-1.4494251203	 0.10953
H	 4.4987128574	 1.9320182862	-1.0160997077	 0.116391
H	 4.2129316451	 2.4609661959	 0.6479114838	 0.106483
H	 2.8897660412	 0.5722043236	 0.6541623537	 0.221229
H	 0.909277215	 3.1802503576	-1.9582595256	 0.10738
79.3492	183.3897	244.4848	281.4985	403.5324	432.9871	457.0196	633.8434	698.5038	705.8848	766.1392	783.6783	824.2105	860.6317	931.2453	954.1114	959.2042	977.9844	992.0808	1042.3388	1054.7666	1087.3372	1115.9268	1146.9003	1195.8093	1198.4251	1220.2616	1253.3833	1267.5281	1302.7243	1340.4494	1387.982	1404.0919	1431.242	1496.2132	1524.8206	1826.6455	2893.8575	3000.5848	3042.8265	3049.5277	3126.9944	3183.0227	3196.4961	3501.5937
O=CC12CN3C(CN1)C23	O=C[C@@]12CN3[C@@H](CN1)[C@@H]23	
InChI=1S/C6H8N2O/c9-3-6-2-8-4(1-7-6)5(6)8/h3-5,7H,1-2H2	InChI=1S/C6H8N2O/c9-3-6-2-8-4(1-7-6)5(6)8/h3-5,7H,1-2H2/t4-,5-,6+,8?/m0/s1
