25
gdb 122968	3.70699	0.56096	0.50531	1.803	87.3	-0.2544	0.0736	0.3281	2287.3239	0.225815	-426.627551	-426.615584	-426.61464	-426.666038	41.832	
C	-0.1002894929	 1.3227227533	-0.6398882391	-0.382483
C	-0.3796743817	-0.1785943266	-0.7422643288	-0.183615
C	-1.3810162167	-0.6559251463	 0.3004197629	-0.024911
O	-1.578895611	-2.0454691601	 0.1424595961	-0.248826
C	-2.4884227706	-2.5946449409	 1.0677295315	-0.077058
C	-2.6148559657	-4.0993044087	 0.8165105791	 0.10721
O	-3.4051772544	-4.6868009538	 1.8467974961	-0.432504
C	-3.1466195556	-4.4203695168	-0.5818755202	-0.181531
C	-3.1726530088	-5.919868001	-0.8851098334	-0.381736
H	 0.6202632978	 1.64088377	-1.3986809046	 0.117748
H	-1.0139498239	 1.9102371881	-0.7833176258	 0.11604
H	 0.3121079887	 1.5864078511	 0.3402907509	 0.116916
H	-0.7678598113	-0.4265001864	-1.7368831444	 0.105566
H	 0.5485973869	-0.7479953983	-0.6184554643	 0.107342
H	-1.0106295789	-0.4372547094	 1.3172034205	 0.084238
H	-2.3391506402	-0.118487327	 0.187272516	 0.081875
H	-2.1492780496	-2.4319302364	 2.1030887711	 0.093993
H	-3.4814980235	-2.116085357	 0.9689367998	 0.068229
H	-1.6199264576	-4.545725103	 0.934515895	 0.095265
H	-4.3134806963	-4.3888846228	 1.7219561275	 0.277174
H	-4.1608084703	-4.0003024261	-0.670361483	 0.076537
H	-2.5300220778	-3.8851360655	-1.3111338106	 0.117813
H	-2.1600310333	-6.3380881085	-0.8815022349	 0.115787
H	-3.7544145792	-6.458227939	-0.1316978015	 0.123021
H	-3.6120130541	-6.1194489791	-1.867087186	 0.10791
45.1383	58.6051	73.0604	115.7822	135.1546	158.703	202.6548	232.4725	236.59	255.2147	285.7343	326.0491	375.9797	450.0605	528.3941	546.0505	765.3158	778.185	831.0704	900.2157	910.9701	980.4569	987.1644	1018.7478	1047.1543	1057.963	1086.3859	1123.1968	1152.2995	1163.8374	1166.9459	1193.5171	1239.1488	1257.8863	1269.6529	1313.792	1322.5458	1328.2169	1337.3953	1385.7082	1398.9023	1406.1299	1413.3872	1419.8529	1449.9967	1485.2552	1492.1478	1496.2517	1501.2816	1505.6096	1509.6802	1513.3248	1533.59	2924.552	2945.8966	2969.6743	2991.1117	2993.0455	3032.2274	3036.7297	3038.9953	3047.7449	3071.7626	3079.932	3100.2402	3101.8795	3108.7574	3117.5997	3792.502
CCCOCC(O)CC	CCCOC[C@@H](O)CC	
InChI=1S/C7H16O2/c1-3-5-9-6-7(8)4-2/h7-8H,3-6H2,1-2H3	InChI=1S/C7H16O2/c1-3-5-9-6-7(8)4-2/h7-8H,3-6H2,1-2H3/t7-/m0/s1
