21
gdb 58812	3.60594	1.02951	0.92497	1.8629	78.75	-0.2458	0.0706	0.3163	1331.3015	0.181149	-424.194296	-424.184764	-424.18382	-424.228422	36.428	
C	 0.0550898012	 1.5336330841	 0.1952643061	-0.408359
C	-0.0164967792	 0.0187900254	-0.0128833336	 0.000562
O	 0.770150576	-0.6777136968	 0.9495507722	-0.425483
C	-1.4415276211	-0.483342817	-0.0400726373	 0.384671
C	-2.1984204545	-0.9340907445	 1.1764062108	-0.337557
C	-1.9584837774	-1.9219462003	 0.0622723394	-0.114314
C	-2.9314292934	-1.6739244002	-1.079791347	 0.123771
O	-4.2800123092	-1.9219959943	-0.7422872273	-0.432875
C	-2.4418759966	-0.183426334	-1.1672786992	-0.353756
H	 1.0961848876	 1.8684195389	 0.1958718702	 0.121311
H	-0.4820428958	 2.0673326218	-0.595208774	 0.122205
H	-0.4029609871	 1.811954365	 1.1524183219	 0.110895
H	 0.4514831215	-0.2253611549	-0.9762978549	 0.084535
H	 0.5443534707	-0.3260838464	 1.8174299189	 0.279415
H	-1.5989595742	-1.1238897324	 2.0606190302	 0.098729
H	-3.2017097431	-0.570099382	 1.3778468344	 0.115767
H	-1.3995417726	-2.8340421338	 0.2295518763	 0.090795
H	-2.6438967225	-2.2304683597	-1.9818079025	 0.068934
H	-4.8248379292	-1.7072160296	-1.5062330522	 0.281273
H	-3.1985489241	 0.5772089186	-0.9486574097	 0.093046
H	-1.9674152669	 0.0464152322	-2.1258797627	 0.096432
70.1026	106.4778	153.9408	235.1651	266.9992	281.3276	292.0496	303.6069	330.2203	426.3777	469.3498	487.3088	570.9886	667.8302	692.3398	826.5268	863.7431	865.4766	918.495	959.0163	971.0165	983.5071	1016.3592	1044.996	1061.7159	1073.0871	1094.5626	1109.738	1128.3017	1168.661	1200.1382	1219.1942	1246.5507	1281.5551	1303.3353	1324.8978	1359.5011	1397.9773	1403.7525	1417.3556	1423.8558	1471.3415	1491.6276	1494.4963	1499.7221	3006.1035	3015.7242	3027.3467	3039.6522	3094.8358	3096.8313	3116.9507	3121.6024	3192.017	3209.2995	3805.9157	3814.1649
CC(O)C12CC1C(O)C2	C[C@@H](O)[C@]12C[C@H]1[C@@H](O)C2	
InChI=1S/C7H12O2/c1-4(8)7-2-5(7)6(9)3-7/h4-6,8-9H,2-3H2,1H3	InChI=1S/C7H12O2/c1-4(8)7-2-5(7)6(9)3-7/h4-6,8-9H,2-3H2,1H3/t4-,5+,6+,7-/m1/s1
