17
gdb 78413	3.12907	1.34085	1.19403	1.7893	71.6	-0.2302	-0.0246	0.2056	1066.8017	0.13537	-421.776856	-421.769349	-421.768404	-421.808756	29.862	
O	-0.0054541304	 1.2964298605	 0.0799259076	-0.434575
C	 0.0128212126	-0.0970957587	-0.029708092	 0.07518
C	-1.3647900649	-0.6850453605	-0.0068429076	-0.068632
C	-0.5478886503	-0.6596065285	-1.3106743652	-0.107319
C	-0.5202344412	-2.2074824149	-1.3286364748	-0.16589
C	-1.3672056806	-2.2304501974	-0.0128345535	-0.04888
C	-0.2422884406	-3.0024780868	 0.7371507193	-0.374657
C	 0.6215073264	-2.9061505893	-0.5481830781	 0.391573
O	 1.7264805323	-3.266747355	-0.8286662167	-0.296092
H	 0.7199964256	 1.6445224449	-0.4494978041	 0.290791
H	 0.851517117	-0.577028806	 0.4764788748	 0.09506
H	-2.19855088	-0.0572725622	 0.2820769907	 0.10218
H	-0.6649202259	-0.0298103152	-2.1839779872	 0.096594
H	-0.8497427918	-2.6795828978	-2.2546634722	 0.095669
H	-2.3579842597	-2.68082763	-0.0077381646	 0.083676
H	 0.1820219969	-2.5696978305	 1.6464869271	 0.132659
H	-0.5083607155	-4.0449554626	 0.9439730865	 0.132665
91.228	198.8932	245.1656	306.4292	324.2842	391.2467	425.8186	485.5623	560.7321	625.9537	733.8501	787.4617	802.542	838.1194	866.8023	887.772	923.78	935.9946	990.8713	1031.6705	1041.5699	1053.8737	1077.6641	1092.5586	1101.3312	1159.4257	1168.0491	1192.3596	1214.1149	1223.3652	1259.8054	1289.7291	1312.4207	1332.1835	1434.7736	1450.9315	1886.223	3052.9095	3084.63	3109.849	3113.2663	3130.9285	3184.3662	3195.4251	3804.8138
OC1C2C1C1C2CC1=O	O[C@H]1[C@H]2[C@@H]1[C@@H]1[C@H]2CC1=O	
InChI=1S/C7H8O2/c8-3-1-2-4(3)6-5(2)7(6)9/h2,4-7,9H,1H2	InChI=1S/C7H8O2/c8-3-1-2-4(3)6-5(2)7(6)9/h2,4-7,9H,1H2/t2-,4-,5-,6+,7+/m1/s1
