20
gdb 112296	2.77179	1.3432	1.00434	3.2977	80.85	-0.2504	0.0279	0.2783	1234.203	0.172166	-403.167875	-403.159462	-403.158518	-403.201034	32.367	
C	-0.1193798328	 1.5272699338	 0.0392995633	-0.384126
C	-0.0765136659	-0.0032977417	 0.0406855331	-0.185801
C	 0.8114586631	-0.5783835709	 1.1378478164	 0.106815
O	 0.3147519538	-0.1595623128	 2.4325646688	-0.263363
C	 0.4724336543	-1.1509117342	 3.3701464583	 0.414352
N	 0.4127152334	-0.9742634545	 4.6192828689	-0.552625
C	 0.7159113088	-2.4433499787	 2.6785845339	-0.114446
C	-0.343062701	-2.8188868171	 1.658257492	-0.293003
C	 0.894735613	-2.0960474898	 1.2182857428	-0.072241
H	 0.8804863639	 1.9510108063	-0.1066946521	 0.11427
H	-0.7603457384	 1.9003040499	-0.7647423961	 0.114028
H	-0.5069650192	 1.9047003241	 0.9890264904	 0.137075
H	-1.0872504822	-0.4109386407	 0.1526439642	 0.105104
H	 0.3060987636	-0.3711194785	-0.9198778583	 0.100654
H	 1.8272842913	-0.1694568742	 1.0312092834	 0.084894
H	 0.2734117529	 0.0151233742	 4.8311144944	 0.219777
H	 1.2702693482	-3.2107484349	 3.1997083382	 0.115572
H	-0.4170900967	-3.8713887684	 1.4104075375	 0.122829
H	-1.2910298879	-2.2923669667	 1.6841666727	 0.130418
H	 1.6234162077	-2.6014442253	 0.5966429982	 0.099818
96.7238	114.9421	151.8083	203.958	240.2997	320.0041	382.9399	462.2654	487.1469	604.5226	677.6189	728.7255	779.4845	803.1767	835.0019	847.6705	887.5941	923.4664	956.7746	969.1232	997.2189	1006.5038	1057.0268	1070.8198	1083.3538	1101.1006	1116.5871	1128.4024	1165.3165	1197.0312	1277.3318	1290.2339	1324.4107	1342.6909	1367.493	1393.0395	1407.057	1412.3343	1475.4589	1487.3101	1497.565	1508.4051	1777.7969	2993.252	3031.3167	3038.3754	3072.8069	3105.051	3124.7855	3137.3833	3188.936	3219.6912	3228.6901	3474.0779
CCC1OC(=N)C2CC12	CC[C@H]1O[C]([NH])[C@H]2C[C@@H]12	
InChI=1S/C7H11NO/c1-2-6-4-3-5(4)7(8)9-6/h4-6,8H,2-3H2,1H3	InChI=1S/C7H11NO/c1-2-6-4-3-5(4)7(8)9-6/h4-6,8H,2-3H2,1H3/t4-,5+,6-/m1/s1
