21
gdb 64242	2.97906	0.9259	0.85766	3.2571	79.88	-0.2456	-0.0179	0.2277	1434.5071	0.179728	-424.230341	-424.2204	-424.219456	-424.265664	36.664	
C	-0.0847808122	 1.5642130068	-0.1189203024	-0.448124
C	-0.0058748549	 0.0430974338	-0.0351315438	 0.383566
O	-1.2920656756	-0.5370626883	-0.1433772783	-0.477817
C	 1.1257632362	-0.5613609941	-0.9261977815	-0.274969
C	 2.0284004014	-0.6385750749	 0.3335585113	-0.243664
C	 0.7492261259	-0.517916113	 1.2055766668	 0.006415
C	 0.7777226312	 0.263992046	 2.5194105383	-0.315215
C	 1.5082868403	-0.5024179717	 3.5983910574	 0.16254
O	 2.4729826041	-0.1057105022	 4.199696632	-0.241308
H	 0.8977139337	 2.0312570656	-0.001827263	 0.124714
H	-0.4721171765	 1.8661324173	-1.1002698712	 0.107982
H	-0.7528348715	 1.9638244436	 0.6500088221	 0.125053
H	-1.758531695	-0.1130652297	-0.87193943	 0.274788
H	 0.8319531639	-1.5522624811	-1.2806023503	 0.108589
H	 1.4769906098	 0.0364860362	-1.771502049	 0.092269
H	 2.6400019353	-1.5332719907	 0.4629724922	 0.106532
H	 2.6748139076	 0.2382454744	 0.4343689254	 0.108487
H	 0.3384598657	-1.5182403802	 1.3852781907	 0.090243
H	 1.2513196915	 1.2434346715	 2.4080279815	 0.114801
H	-0.2563076648	 0.4126968216	 2.8643572816	 0.124104
H	 1.081262914	-1.5129579211	 3.8049057201	 0.071014
51.9411	72.4672	131.0263	159.8198	248.783	264.4646	270.6312	279.4299	349.3317	389.7981	448.7098	499.4387	543.0246	607.8749	735.362	770.0109	851.6623	888.4685	897.6019	920.9128	951.7181	975.3551	1008.8757	1049.4332	1087.0932	1126.6461	1141.7808	1178.0599	1191.1257	1210.8072	1224.0284	1249.8608	1269.7459	1288.8163	1308.3032	1369.3585	1392.8771	1409.1506	1428.714	1461.6819	1478.0447	1491.9666	1496.1575	1501.1035	1834.3193	2847.8641	3009.842	3023.2711	3043.1664	3057.9655	3063.5094	3089.0179	3100.3989	3109.9325	3113.9479	3125.3719	3801.5179
CC1(O)CCC1CC=O	C[C@@]1(O)CC[C@H]1CC=O	
InChI=1S/C7H12O2/c1-7(9)4-2-6(7)3-5-8/h5-6,9H,2-4H2,1H3	InChI=1S/C7H12O2/c1-7(9)4-2-6(7)3-5-8/h5-6,9H,2-4H2,1H3/t6-,7+/m0/s1
