20
gdb 121036	3.81984	0.84018	0.72259	4.7807	76.06	-0.2596	0.0544	0.314	1591.3899	0.171976	-440.350352	-440.341206	-440.340262	-440.385059	33.241	
C	-0.1265767688	 1.5571760389	 0.0566348234	-0.38392
C	 0.0377616069	 0.0358781048	 0.0284550689	-0.172538
C	 0.700608559	-0.4653576424	-1.2594894869	-0.190466
C	 0.891595799	-1.972509888	-1.2966922381	 0.130933
C	 1.5418403026	-2.5207844078	-2.5847882052	-0.209193
N	 2.337064061	-3.5991432197	-2.0316011702	-0.364987
C	 2.618000877	-3.377184412	-0.6980390563	 0.47016
O	 3.4244648183	-3.9365416315	-0.009570953	-0.390021
O	 1.7915249731	-2.3852265822	-0.2479822143	-0.252273
H	 0.843259602	 2.0612704965	-0.018254917	 0.117932
H	-0.746384304	 1.9077370079	-0.7764979469	 0.112147
H	-0.6009452516	 1.8868595887	 0.9857571755	 0.117381
H	 0.6380643011	-0.2913828419	 0.8840855772	 0.12704
H	-0.9436180965	-0.4439247313	 0.1389769866	 0.096162
H	 0.0931388885	-0.1796799958	-2.1296443789	 0.099359
H	 1.6804660861	 0.0122061465	-1.3882206564	 0.106704
H	-0.066360438	-2.4802567268	-1.1200302169	 0.094176
H	 0.794104473	-2.8790613545	-3.2978633436	 0.121561
H	 2.1553490579	-1.7531058938	-3.0792779304	 0.108648
H	 3.0399424435	-4.0782690857	-2.5705339575	 0.261196
67.137	94.3964	104.9385	159.9059	199.5173	246.966	307.8845	359.7227	470.9049	506.6792	545.956	656.5739	734.8522	752.0425	773.3699	858.1928	897.8962	907.5091	964.6668	1016.7413	1035.8069	1055.36	1089.9088	1110.3517	1141.0006	1167.7238	1216.3176	1227.5192	1270.4654	1292.	1331.4843	1340.191	1375.1613	1399.1277	1411.3651	1417.05	1438.9634	1472.7317	1493.7133	1500.3175	1510.2817	1531.185	1892.8858	2991.6288	3011.5434	3014.5695	3024.644	3030.1618	3054.65	3074.6215	3080.5107	3099.5364	3106.034	3654.1289
CCCC1CNC(=O)O1	CCC[C@H]1CNC(=O)O1	
InChI=1S/C6H11NO2/c1-2-3-5-4-7-6(8)9-5/h5H,2-4H2,1H3,(H,7,8)	InChI=1S/C6H11NO2/c1-2-3-5-4-7-6(8)9-5/h5H,2-4H2,1H3,(H,7,8)/t5-/m0/s1
