20
gdb 41489	3.2139	1.60963	1.3313	2.4932	77.88	-0.2115	0.0708	0.2823	1015.8753	0.173522	-403.110262	-403.103082	-403.102138	-403.141687	29.253	
C	-0.0934600704	 1.5117541327	 0.0026621046	-0.134294
O	 1.2798515444	 1.6567222863	 0.4514904413	-0.298031
C	 1.5508794463	 0.2549014835	 0.2588142892	 0.053562
C	 1.3536202229	-0.6130174119	 1.5158909546	-0.201025
N	-0.1156269405	-0.6831440088	 1.2571988221	-0.118755
C	-0.6835235884	-2.0132904701	 1.0034709743	-0.170623
C	-0.4497062444	-2.3136173772	-0.4955070512	-0.221171
C	-0.5369776434	-0.914350127	-1.1388071995	-0.335594
C	 0.0593528447	-0.0107887292	-0.076429892	 0.322965
H	-0.8182656118	 1.877479485	 0.7375485208	 0.108436
H	-0.2469100036	 2.0132832321	-0.9627903232	 0.093302
H	 2.4168681538	 0.0774215563	-0.3847357608	 0.07575
H	 1.8607126366	-1.5857994893	 1.4383348473	 0.090534
H	 1.6162272	-0.1444411031	 2.4692818907	 0.1105
H	-0.2318830976	-2.7560787546	 1.6684732159	 0.103215
H	-1.7595571251	-1.9951452897	 1.2202067085	 0.101424
H	 0.5512685581	-2.7329205396	-0.6502254588	 0.102937
H	-1.1698458062	-3.0248165407	-0.9084771491	 0.099824
H	-0.0169599467	-0.8412686526	-2.0978030941	 0.108686
H	-1.5843718587	-0.6347583321	-1.3120468106	 0.108357
118.2032	181.2851	240.1765	342.5994	350.8988	422.2152	466.6148	584.1288	654.9302	696.0634	768.9151	836.1443	847.2369	862.9011	896.7903	919.0125	965.5219	980.0267	988.4498	997.0089	1026.0354	1052.3288	1096.0802	1128.8947	1145.5572	1166.3565	1174.7127	1195.7943	1215.2347	1224.4241	1263.398	1276.9224	1309.0122	1317.2007	1329.3658	1334.5374	1357.7362	1382.8806	1477.8	1488.789	1492.2992	1504.4267	1509.4986	2995.3829	3003.681	3016.035	3027.0551	3040.5645	3069.125	3075.5898	3077.4579	3079.9768	3092.7139	3101.3672
C1OC2CN3CCCC123	C1O[C@H]2CN3CCC[C@]123	
InChI=1S/C7H11NO/c1-2-7-5-9-6(7)4-8(7)3-1/h6H,1-5H2	InChI=1S/C7H11NO/c1-2-7-5-9-6(7)4-8(7)3-1/h6H,1-5H2/t6-,7-/m0/s1
