17
gdb 126047	3.75382	1.1267	1.10869	3.6252	74.03	-0.2476	0.0098	0.2574	1161.1079	0.139182	-414.19495	-414.187173	-414.186229	-414.22777	28.896	
C	 1.0142982308	 1.1215114336	-0.6660021678	-0.403182
C	 0.0794220619	 0.120264801	-0.0378445373	 0.024129
N	 0.6593988934	-1.1172740141	 0.5015435822	-0.35432
C	 0.026858915	-0.1663897208	 1.4331050519	-0.169366
C	 0.9420584205	 0.4517933723	 2.4100341266	 0.416467
N	 0.6384547397	 1.3289249985	 3.3539848176	-0.33683
C	 1.8397802327	 1.5457467253	 3.9585912488	 0.020102
N	 2.8589278743	 0.8653205315	 3.4584483153	-0.215615
N	 2.2599804536	 0.169802948	 2.4633345032	-0.225955
H	 1.9448357394	 1.2062676208	-0.1007360689	 0.13026
H	 1.2637347974	 0.8220079188	-1.6891576677	 0.125284
H	 0.5453916773	 2.1098584178	-0.7049958505	 0.130997
H	-0.8821922959	 0.0222125239	-0.5402348249	 0.096094
H	 0.0564467464	-1.9175313721	 0.3367344196	 0.242703
H	-0.952977737	-0.3972588463	 1.8422982421	 0.111218
H	 1.9660275695	 2.2220333057	 4.7909216982	 0.12308
H	 2.7651605808	-0.488556874	 1.8919787416	 0.284933
72.0296	116.9085	171.4352	210.0059	275.9936	387.8717	450.1313	513.0347	624.8409	675.17	714.0512	780.3515	789.2216	859.6463	909.8404	943.2847	982.5138	990.3647	1020.4746	1052.2858	1075.2468	1120.4651	1136.4021	1171.0678	1210.081	1242.1044	1249.6554	1291.2005	1311.8553	1360.218	1407.8925	1437.7877	1463.2795	1489.9539	1496.2152	1503.126	1596.8619	3042.9489	3106.1469	3111.933	3136.1768	3150.3597	3259.3345	3521.3784	3662.5702
CC1NC1C1=NC=NN1	C[C@H]1N[C@H]1c1ncn[nH]1	
InChI=1S/C5H8N4/c1-3-4(8-3)5-6-2-7-9-5/h2-4,8H,1H3,(H,6,7,9)	InChI=1S/C5H8N4/c1-3-4(8-3)5-6-2-7-9-5/h2-4,8H,1H3,(H,6,7,9)/t3-,4-/m1/s1
