23
gdb 119679	4.1881	0.91557	0.89505	0.2343	89.68	-0.2374	0.092	0.3295	1457.5219	0.206568	-351.114435	-351.105736	-351.104792	-351.148154	34.049	
C	 0.0932590335	 1.5712523754	 0.0091533365	-0.380678
C	 0.1874642896	 0.0452822997	-0.0626835316	-0.15621
C	 0.5515284453	-0.5977694192	 1.2848488016	-0.319695
C	 0.6303557906	-2.0967460452	 1.2304897401	 0.390419
C	-0.5248490841	-3.0865600622	 1.0484289772	-0.281976
C	 0.4745465841	-4.1837610839	 1.5026403132	-0.063501
C	 1.5143338979	-4.2437255708	 0.3496456329	-0.229172
C	 1.9093173958	-2.8331334074	 0.780147023	-0.101905
C	 1.3461144143	-3.0412028915	 2.1693292592	-0.149035
H	 1.0454205653	 2.0123620293	 0.3253846937	 0.111899
H	-0.166738137	 2.0031929958	-0.9623804677	 0.109774
H	-0.6700827442	 1.8878910123	 0.7289011775	 0.11265
H	-0.7686174657	-0.3660254206	-0.4108230822	 0.098225
H	 0.9338603214	-0.2471035721	-0.8117104976	 0.097583
H	 1.5140714439	-0.1957045022	 1.6305226076	 0.091057
H	-0.1897779239	-0.2969852903	 2.0390989209	 0.091354
H	-1.3056054453	-2.912903211	 1.7959844746	 0.091226
H	-0.9844265414	-3.2017799958	 0.0586460687	 0.082475
H	 0.1236955192	-5.0926894556	 1.9871392231	 0.066118
H	 2.3128539439	-4.9610293778	 0.560835916	 0.095384
H	 1.1333385796	-4.4063903387	-0.6661253157	 0.083534
H	 2.7945080893	-2.2717569173	 0.5063878944	 0.077324
H	 1.7731711778	-2.899749841	 3.1521004046	 0.083148
75.0343	86.6656	111.7482	235.4764	291.8869	311.0502	333.543	427.4257	452.3888	663.3771	715.4035	747.4599	753.6061	803.7422	825.4125	861.3102	879.7704	907.4773	926.5949	932.6296	957.0552	989.9544	1002.0947	1006.0717	1046.6049	1065.8008	1079.0305	1099.1248	1119.2303	1141.0015	1160.7331	1182.2389	1206.1124	1227.2673	1257.7115	1268.6313	1281.7745	1310.3468	1315.645	1342.6929	1384.7463	1410.8815	1423.1445	1479.3809	1491.9884	1492.5899	1497.9743	1507.4449	1509.7971	2998.8432	3016.7916	3023.1058	3025.8505	3027.1866	3029.529	3058.479	3079.9859	3088.0982	3093.7464	3099.6249	3133.2946	3184.3861	3214.8448
CCCC12CC3CC1C23	CCC[C@@]12C[C@H]3C[C@@H]1[C@@H]23	
InChI=1S/C9H14/c1-2-3-9-5-6-4-7(9)8(6)9/h6-8H,2-5H2,1H3	InChI=1S/C9H14/c1-2-3-9-5-6-4-7(9)8(6)9/h6-8H,2-5H2,1H3/t6-,7-,8+,9-/m1/s1
