19
gdb 74376	2.66928	1.21409	0.9415	3.295	80.08	-0.2342	-0.0272	0.2071	1280.4371	0.158586	-423.04466	-423.035779	-423.034834	-423.078653	32.534	
C	 0.0142212275	 1.5130924322	-0.0078744345	-0.477731
C	-0.0380026798	 0.0123154348	 0.0242020872	 0.288096
C	-1.1710623362	-0.6900403321	-0.0421716665	-0.189341
C	-1.1917869587	-2.2021165788	-0.0467135793	-0.119518
C	 0.2101583843	-2.7264602292	-0.3933331476	-0.12139
O	 1.1998519046	-2.0771409917	 0.3832766921	-0.24548
C	 1.2934738178	-0.6947638634	 0.1053384623	-0.150019
C	-1.6340966821	-2.6855457367	 1.3296616291	 0.15777
O	-2.7340006038	-3.1010634053	 1.58824745	-0.254218
H	 0.6288732786	 1.8711031756	-0.8437753419	 0.12912
H	-0.9838947882	 1.9454230269	-0.1119312984	 0.130511
H	 0.468000679	 1.9139217823	 0.9074401255	 0.130911
H	-2.1320459637	-0.1839706758	-0.0805401258	 0.098198
H	-1.9274004439	-2.5691653542	-0.7710679643	 0.09551
H	 0.3063229784	-3.7946488352	-0.1763738548	 0.116761
H	 0.395117062	-2.5788578331	-1.4693387881	 0.09993
H	 1.850903554	-0.5269317615	-0.8353257195	 0.101013
H	 1.9014875815	-0.2649361825	 0.9103897516	 0.119951
H	-0.8427323612	-2.5988387825	 2.1064991328	 0.089927
67.686	103.8531	145.6687	181.707	232.5642	317.498	337.4986	360.7539	427.0093	472.8318	486.7321	550.6861	750.7512	830.5633	869.2915	902.5596	929.441	958.8369	1000.7357	1005.2006	1044.0551	1087.0266	1089.3112	1139.9425	1144.1426	1187.7607	1239.5324	1274.1042	1302.9435	1325.9021	1345.4176	1392.0011	1408.7307	1412.3177	1422.4259	1478.276	1482.6036	1489.0295	1499.571	1730.4612	1826.5976	2894.8357	2933.3272	2979.4935	3017.8265	3050.8212	3054.1872	3064.7906	3082.2245	3117.9341	3161.8868
CC1=CC(COC1)C=O	CC1=C[C@@H](COC1)C=O	
InChI=1S/C7H10O2/c1-6-2-7(3-8)5-9-4-6/h2-3,7H,4-5H2,1H3	InChI=1S/C7H10O2/c1-6-2-7(3-8)5-9-4-6/h2-3,7H,4-5H2,1H3/t7-/m1/s1
