12
gdb 46344	4.14908	0.76847	0.68913	4.5577	76.02	-0.2788	-0.0722	0.2066	1517.2211	0.075892	-435.452765	-435.444691	-435.443746	-435.48667	27.754	
O	-0.1170598497	 0.0021523039	-0.2750258664	-0.235306
C	-0.0569626129	 1.163747058	-0.0517973764	 0.346519
C	-1.0049967341	 2.2835288447	 0.3759917905	-0.184712
O	 0.0850410352	 3.2299539428	 0.3281714966	-0.265365
C	 1.0723939538	 2.2561481979	-0.0827050956	-0.20868
C	 2.1676409294	 2.0880444271	 0.8435180266	 0.146664
C	 3.0713887865	 1.9232844061	 1.6284983046	 0.049813
C	 4.0946473241	 1.7423334711	 2.5133233907	 0.217903
N	 4.9657531463	 1.5883751651	 3.2661558224	-0.32625
H	-1.8054248706	 2.5143424638	-0.3369597739	 0.150165
H	-1.4273308032	 2.1708211566	 1.3819072112	 0.155896
H	 1.4434583652	 2.452800413	-1.0980795401	 0.153353
67.6822	73.3316	135.1044	185.0524	256.9188	372.5108	417.1332	462.7793	553.4278	573.4624	595.1321	698.1958	713.1288	850.0281	962.9592	1003.1063	1008.7975	1047.2987	1134.7681	1169.8515	1202.8955	1295.4121	1320.6463	1477.898	1946.5597	2263.9	2395.1421	3018.685	3030.8004	3079.9274
O=C1COC1C#CC#N	O=C1CO[C@H]1C#CC#N	
InChI=1S/C6H3NO2/c7-3-1-2-6-5(8)4-9-6/h6H,4H2	InChI=1S/C6H3NO2/c7-3-1-2-6-5(8)4-9-6/h6H,4H2/t6-/m0/s1
