15
gdb 28822	3.10929	1.43379	1.11038	3.8568	78.2	-0.2507	-0.0865	0.1642	1082.5131	0.112721	-416.838684	-416.830928	-416.829984	-416.871112	28.709	
C	-0.4544456439	 1.3836636062	 0.1495659131	-0.475373
C	 0.004051909	-0.0389466829	-0.0156327112	 0.289968
N	-0.0442582867	-0.5784853057	-1.1868359176	-0.269933
C	 0.3174277202	-1.8731822407	-1.4938750381	 0.017653
C	 0.271725414	-2.9681728879	-0.7046147162	-0.176443
C	-0.1544077245	-2.9079590452	 0.7075817719	 0.339038
O	-0.9332776335	-3.6780464872	 1.2176953063	-0.317453
N	 0.5267110465	-1.9405941521	 1.4699012925	-0.203858
C	 0.5739890908	-0.7001395789	 1.1736563377	-0.031606
H	 0.3520168989	 2.0082836599	 0.5519438147	 0.142409
H	-0.7773971633	 1.7847339424	-0.8112131621	 0.152274
H	-1.2840979406	 1.4407664905	 0.8641891107	 0.150232
H	 0.560989423	-1.9994632347	-2.5466155452	 0.124423
H	 0.43725023	-3.9529729176	-1.1308481628	 0.131608
H	 1.1162772201	-0.0460449162	 1.8637985062	 0.12706
88.8892	132.3891	190.0197	283.5824	307.9516	334.5423	406.7706	463.6579	516.8373	626.9835	663.7469	705.6537	789.3704	822.5443	873.1095	904.7355	930.2726	958.9813	1000.5993	1058.3583	1086.1229	1207.355	1234.1281	1281.1462	1402.2089	1416.7029	1429.9707	1469.448	1477.4968	1584.46	1641.3655	1705.1065	1797.2765	3031.64	3076.5992	3085.122	3152.3986	3154.9589	3186.447
CC1=NC=CC(=O)N=C1	Cc1nccc(=O)nc1	
InChI=1S/C6H6N2O/c1-5-4-8-6(9)2-3-7-5/h2-4H,1H3	InChI=1S/C6H6N2O/c1-5-4-8-6(9)2-3-7-5/h2-4H,1H3
