21
gdb 53378	2.68124	0.96866	0.85844	1.5873	87.13	-0.2391	0.0501	0.2892	1495.1294	0.181546	-387.082285	-387.072264	-387.071319	-387.119638	35.6	
C	-0.1741401577	 1.430739124	 0.1833481161	-0.497155
C	-0.0403172399	-0.0182904935	 0.1395848646	 0.009938
C	 0.0654282697	-1.2174038604	 0.0951051426	 0.136645
C	 0.1983103701	-2.6778791697	 0.0403930745	-0.068903
C	 0.7851197571	-3.2713791552	 1.3390049517	-0.233596
C	-0.4804291742	-3.4655230183	 2.1806372134	-0.237302
C	-1.5142205232	-3.8932405421	 1.127387511	 0.166179
C	-2.9459035272	-3.463473015	 1.4135303777	-0.395838
O	-1.0763891507	-3.3130370079	-0.1150504796	-0.275052
H	 0.343221007	 1.9042559494	-0.6583813068	 0.148552
H	-1.2267119486	 1.7311607619	 0.1351611475	 0.150354
H	 0.2461802129	 1.8446570635	 1.1066696088	 0.14591
H	 0.8034062025	-2.9484991408	-0.8332145935	 0.099911
H	 1.2535645021	-4.2354702211	 1.1152824638	 0.10289
H	 1.5301112097	-2.6205402264	 1.7992738304	 0.111792
H	-0.3652282564	-4.2056102055	 2.9760778807	 0.100927
H	-0.7789145447	-2.516009583	 2.638139622	 0.111076
H	-1.4835442177	-4.9875625573	 1.0069574987	 0.068653
H	-3.0012424453	-2.3772060239	 1.533564811	 0.123183
H	-3.6052701629	-3.7518505728	 0.5901159337	 0.123575
H	-3.3139627325	-3.9379823759	 2.3297540516	 0.10826
18.3916	27.5289	95.4127	128.0235	201.7101	237.5651	305.4505	320.902	334.1401	444.5304	455.5816	525.4016	594.2549	688.287	791.861	811.7488	874.1746	902.4293	932.0844	973.1312	1002.0211	1022.7652	1052.0822	1054.03	1081.9096	1102.3446	1146.1199	1160.0063	1207.571	1226.1279	1292.3317	1313.1858	1337.8698	1364.0702	1370.1648	1391.7796	1408.2759	1414.4263	1477.7277	1478.9194	1481.6969	1485.7009	1495.5038	1499.1986	2365.3483	2971.8836	3026.012	3028.2488	3034.8973	3049.7247	3055.5998	3086.1667	3087.4484	3105.2867	3108.2305	3118.0413	3124.2651
CC#CC1CCC(C)O1	CC#C[C@H]1CC[C@@H](C)O1	
InChI=1S/C8H12O/c1-3-4-8-6-5-7(2)9-8/h7-8H,5-6H2,1-2H3	InChI=1S/C8H12O/c1-3-4-8-6-5-7(2)9-8/h7-8H,5-6H2,1-2H3/t7-,8+/m1/s1
