18
gdb 64941	4.07388	0.67053	0.62713	1.4374	87.71	-0.238	0.0337	0.2716	1803.419	0.14505	-364.720401	-364.710474	-364.70953	-364.757207	35.673	
C	-0.6755055324	 0.9053020123	-0.9569116054	-0.459959
C	 0.0535201751	-0.067041488	-0.0451254443	 0.099816
C	 1.3990511378	-0.5686028578	-0.4610305977	-0.260663
N	 1.2870158676	 0.3904989641	 0.6451389235	-0.328893
C	-0.8072447242	-0.9189280028	 0.7422916976	 0.08015
C	-1.5587463346	-1.6215432466	 1.3662998025	 0.12032
C	-2.4541199388	-2.4785006579	 2.1460253832	-0.497247
C	-3.5216074033	-3.0891197098	 1.3506440808	 0.317647
C	-4.4021107138	-3.5946687999	 0.7100312242	-0.445362
H	 0.0381061445	 1.4843184611	-1.5525735814	 0.110507
H	-1.3407182401	 0.3715426649	-1.6422603062	 0.137534
H	-1.2858415043	 1.6006337194	-0.3719746234	 0.133281
H	 1.7116989432	-1.5662103966	-0.1690383918	 0.126406
H	 1.7813176004	-0.2298192931	-1.4210862328	 0.112853
H	 1.516024254	 1.3263603599	 0.3162464434	 0.23023
H	-1.8689606104	-3.2705209358	 2.6337111584	 0.162464
H	-2.9014918903	-1.8971459836	 2.9643229518	 0.161405
H	-5.1788582804	-4.0403132999	 0.1396481177	 0.199512
11.1883	64.9837	112.9331	161.3888	227.3155	287.7677	322.3469	323.5126	325.1329	366.1182	505.8417	533.5414	555.0365	620.8765	644.5381	662.2781	813.2656	844.9103	930.0035	934.0714	938.8515	975.6605	997.9287	1055.0904	1087.0582	1125.3476	1153.4445	1229.3268	1263.8332	1316.3767	1330.8135	1377.5806	1413.5225	1453.181	1480.7097	1501.3957	1509.6647	2247.074	2375.1252	3007.2852	3031.2747	3033.2149	3105.5169	3109.0079	3109.7787	3200.6757	3487.4523	3506.5373
CC1(CN1)C#CCC#C	C[C@]1(CN1)C#CCC#C	
InChI=1S/C8H9N/c1-3-4-5-6-8(2)7-9-8/h1,9H,4,7H2,2H3	InChI=1S/C8H9N/c1-3-4-5-6-8(2)7-9-8/h1,9H,4,7H2,2H3/t8-/m1/s1
