21
gdb 91739	3.03159	1.4444	1.32963	1.544	76.8	-0.2505	0.0855	0.3361	1087.4654	0.184193	-424.250058	-424.241972	-424.241028	-424.282371	32.131	
C	-0.2352981339	 1.5506712424	 0.0139162514	-0.409535
C	 0.0121230946	 0.0450449863	 0.0039070506	 0.016453
C	 0.8570780736	-0.495416143	-1.1972273393	-0.259622
C	 1.9782026971	-1.2508232979	-0.4520965719	 0.035425
O	 1.2975416374	-1.7528489572	 0.714378231	-0.255986
C	 0.8800063615	-0.4801399541	 1.1699492198	 0.175199
O	 2.0782412265	 0.2858453964	 1.2624850896	-0.292201
C	 2.9292029983	-0.2274329865	 0.2095291409	 0.146013
C	 4.1924902714	-0.8253754958	 0.808402491	-0.408456
H	 0.7097245095	 2.1003599389	 0.0277881455	 0.129277
H	-0.8042899881	 1.8599181743	-0.8686045271	 0.112894
H	-0.8078152967	 1.8510898865	 0.8984266426	 0.11364
H	-0.9464573485	-0.4833708283	 0.0424127361	 0.079068
H	 0.2790442423	-1.1744388956	-1.8275026621	 0.105173
H	 1.2490230458	 0.3065327876	-1.8292747247	 0.100544
H	 2.4635112375	-2.0668442377	-0.9859105153	 0.084642
H	 0.4111844163	-0.546715773	 2.1522698729	 0.086834
H	 3.175494344	 0.5933869174	-0.4752258793	 0.075099
H	 3.9427075919	-1.6989893716	 1.4162274927	 0.133084
H	 4.8915093467	-1.1262946091	 0.0202973221	 0.107428
H	 4.6905564029	-0.09013689	 1.4466537635	 0.125028
99.1758	196.1301	218.7538	232.3404	252.1098	318.677	378.4926	443.8747	511.0519	593.9419	671.3237	765.6533	782.6542	828.2939	845.7968	860.4866	919.7465	939.0735	945.801	980.3815	993.8059	1031.988	1061.0896	1066.9508	1103.2076	1121.8125	1131.4792	1144.9006	1207.3943	1255.8555	1262.38	1276.8776	1313.6062	1320.4084	1332.8547	1350.9583	1374.7207	1393.7387	1407.4761	1410.6158	1484.9835	1492.6993	1495.0829	1499.5403	1501.9673	3028.9341	3034.0902	3038.372	3045.3208	3062.6437	3096.0067	3109.5162	3111.2928	3118.4098	3123.4886	3128.0474	3135.0124
CC1CC2OC1OC2C	C[C@H]1C[C@@H]2O[C@H]1O[C@H]2C	
InChI=1S/C7H12O2/c1-4-3-6-5(2)8-7(4)9-6/h4-7H,3H2,1-2H3	InChI=1S/C7H12O2/c1-4-3-6-5(2)8-7(4)9-6/h4-7H,3H2,1-2H3/t4-,5-,6-,7+/m0/s1
