17
gdb 76926	1.97094	1.60285	1.05094	2.674	69.32	-0.2569	-0.0417	0.2152	1152.0626	0.132709	-458.970389	-458.960877	-458.959933	-459.005225	33.413	
C	-0.8490632571	 1.1957649143	 0.0213078522	-0.415671
C	 0.0045667409	-0.0641816014	 0.0120412874	-0.103428
C	 0.813925933	-0.5280399901	-1.2713579372	-0.203963
C	 1.2223330876	 0.6073778302	-2.1704333876	 0.193712
O	 0.9766652933	 0.6569418222	-3.3476649982	-0.254624
C	 1.9908375406	-0.9847777603	-0.3093103212	 0.057574
O	 3.3227592644	-0.7609988037	-0.6507185951	-0.42791
C	 1.3588047797	-0.054669573	 0.7236818375	 0.325528
O	 1.8719314518	 0.6681638956	 1.5332537454	-0.310306
H	-0.2705200913	 2.0785129001	-0.2632790963	 0.134767
H	-1.692452936	 1.1013938021	-0.6685612194	 0.136384
H	-1.2468899461	 1.37176856	 1.0246808616	 0.139799
H	-0.5777745977	-0.926696545	 0.3559273157	 0.120965
H	 0.3515345945	-1.3159590097	-1.8647032436	 0.103544
H	 1.784022223	 1.4280211758	-1.6696722835	 0.08086
H	 1.8301442925	-2.0409333586	-0.0562379282	 0.119936
H	 3.649926557	-0.0587962884	-0.0729796395	 0.302832
69.8663	74.2661	160.8394	171.1114	180.6907	206.7979	239.6829	294.7269	383.0478	447.9578	514.0409	540.7326	582.3319	739.8193	791.096	807.9358	942.5339	955.069	976.3706	1019.581	1061.7383	1087.522	1131.8692	1160.2986	1176.3949	1222.0623	1256.0699	1292.433	1319.0747	1365.0498	1402.666	1415.0424	1442.767	1491.7467	1497.392	1832.8518	1868.1277	2873.1674	3025.1394	3048.5129	3049.5699	3119.9848	3123.5213	3127.1636	3763.9702
CC1C(C=O)C(O)C1=O	C[C@H]1[C@@H](C=O)[C@@H](O)C1=O	
InChI=1S/C6H8O3/c1-3-4(2-7)6(9)5(3)8/h2-4,6,9H,1H3	InChI=1S/C6H8O3/c1-3-4(2-7)6(9)5(3)8/h2-4,6,9H,1H3/t3-,4+,6+/m0/s1
