18
gdb 17494	2.95785	2.42112	1.64406	1.0685	71.11	-0.2043	0.0756	0.2799	839.3199	0.152656	-347.731338	-347.72374	-347.722795	-347.762459	30.446	
C	 0.0509045571	 1.4967177462	-0.0341700503	-0.489432
C	 0.0452755152	-0.0038269017	-0.0207559248	 0.279695
C	-0.9232068152	-0.8490995459	 0.7630336057	-0.358028
C	 0.5574956213	-0.9731499011	 1.0328099577	-0.096815
C	 1.3429910907	-1.7621513894	-0.0521654015	-0.111204
C	 0.4790825361	-2.2846890204	-1.186934784	-0.369946
C	 0.8281898549	-0.8241382795	-1.1099191038	 0.337376
O	 1.5758385656	-0.1778565774	-2.0802941989	-0.44865
H	 1.0468561321	 1.8836601748	-0.2720258807	 0.130048
H	-0.6456770912	 1.8980163387	-0.781410072	 0.110446
H	-0.2483509824	 1.8950100939	 0.9407422962	 0.114148
H	-1.4657173251	-0.3005337661	 1.5290661252	 0.107175
H	-1.5083588181	-1.6491949386	 0.3230832569	 0.107692
H	 0.9816488769	-0.7405674274	 2.0019053451	 0.085644
H	 2.351049336	-2.1248818255	 0.0992359647	 0.095596
H	 1.0587406402	-2.807322838	-1.9427886179	 0.113233
H	-0.5178219726	-2.6879871495	-1.0440267085	 0.108215
H	 1.0189490286	-0.0551387131	-2.8577270192	 0.284807
151.4414	191.28	235.0783	287.8045	324.3655	393.4617	421.8331	452.187	487.7862	600.801	614.7894	767.1843	791.4945	847.6937	880.7199	906.7652	922.1295	955.5033	962.7302	988.5061	1000.2921	1039.3283	1055.6901	1086.7369	1100.7452	1120.5234	1170.339	1233.0653	1255.888	1285.4955	1301.2004	1373.2789	1396.5451	1419.7687	1480.7096	1487.5765	1503.2395	1513.3353	3018.7575	3078.0646	3104.0622	3113.8203	3127.1518	3180.1315	3193.9147	3199.8224	3206.194	3778.8609
CC12CC1C1CC21O	C[C@]12C[C@H]1[C@H]1C[C@@]21O	
InChI=1S/C7H10O/c1-6-2-4(6)5-3-7(5,6)8/h4-5,8H,2-3H2,1H3	InChI=1S/C7H10O/c1-6-2-4(6)5-3-7(5,6)8/h4-5,8H,2-3H2,1H3/t4-,5+,6-,7-/m0/s1
