17
gdb 62198	2.15908	1.07271	0.98699	3.6857	73.86	-0.2701	0.0122	0.2823	1314.3593	0.134065	-417.956725	-417.946664	-417.94572	-417.993341	35.106	
N	-0.2822527508	 1.7952995972	-0.5285851848	-0.501813
C	-0.7252097657	 0.6012101183	 0.1929211295	-0.146145
C	-2.06316319	 0.1312953508	-0.4226806178	-0.059132
O	-2.5725489438	-1.0521042105	 0.1477620775	-0.223184
C	-3.4304928215	-0.8856787347	 1.2638429284	-0.227548
C	-2.7542561909	-0.5554109313	 2.5217945976	 0.30704
C	-2.2148014134	-0.2942244568	 3.5639406258	-0.447658
C	 0.2676614876	-0.4933894798	 0.1908155465	 0.265963
N	 1.0907801592	-1.3043929279	 0.152401143	-0.324944
H	 0.5223897498	 2.2045081568	-0.0643656503	 0.248325
H	 0.0268837548	 1.5407508026	-1.4630948339	 0.243415
H	-0.9054572786	 0.8786141801	 1.2351743463	 0.143776
H	-2.7734596255	 0.9649370685	-0.344563483	 0.115584
H	-1.9045856204	-0.0825515693	-1.4858084338	 0.119208
H	-4.193769724	-0.121849973	 1.0474160884	 0.126339
H	-3.9505931411	-1.8428449516	 1.3759334609	 0.150401
H	-1.7352947758	-0.0749003693	 4.4863343198	 0.210373
17.8009	70.8073	95.8483	154.4938	208.7892	240.4429	271.7229	286.3586	323.942	378.5231	454.6384	569.0309	577.3487	610.356	622.9641	686.3557	791.7466	881.2863	906.8654	960.5703	999.7925	1025.7209	1072.6085	1128.7357	1140.3037	1218.3707	1272.9951	1319.5711	1347.335	1387.3287	1397.1435	1410.3873	1471.2971	1490.0728	1665.8035	2231.5328	2347.398	2986.3024	3018.2667	3069.846	3072.9494	3092.5257	3495.4889	3500.7815	3575.3559
NC(COCC#C)C#N	N[C@@H](COCC#C)C#N	
InChI=1S/C6H8N2O/c1-2-3-9-5-6(8)4-7/h1,6H,3,5,8H2	InChI=1S/C6H8N2O/c1-2-3-9-5-6(8)4-7/h1,6H,3,5,8H2/t6-/m1/s1
