18
gdb 82671	2.72106	1.58533	1.21773	4.5071	80.94	-0.2674	0.022	0.2894	1057.2137	0.148893	-364.785113	-364.77746	-364.776516	-364.817083	30.085	
C	-0.0079637511	 1.6140713245	-0.04892714	-0.428994
C	 0.0908875897	 0.0969773942	 0.0057397865	-0.034482
C	 1.1210379078	-0.6931777162	-0.8585311215	-0.09779
C	 2.5165424825	-0.1404846989	-0.4518991446	-0.241622
C	 2.2556494946	-0.778466192	 0.9089569758	-0.105154
C	 1.2574955734	-1.734862427	 0.3254756685	-0.122714
C	 0.7399528821	-0.6073665322	 1.208168704	 0.230183
C	 0.2330729595	-0.6992317752	 2.5351191407	 0.164589
N	-0.1970075711	-0.7591066274	 3.6088547839	-0.35549
H	 0.950398778	 2.1014034769	 0.1479817026	 0.123395
H	-0.3625068503	 1.9439469078	-1.0316015935	 0.120287
H	-0.7207638941	 1.9754864097	 0.6995804444	 0.134107
H	-0.8978239635	-0.3485292029	-0.1476770371	 0.090769
H	 0.8951848075	-0.9312803056	-1.8950779236	 0.082117
H	 3.3150830849	-0.6759718226	-0.9721554906	 0.112859
H	 2.6929257166	 0.9365138862	-0.5216776522	 0.102754
H	 2.942190232	-0.9500488426	 1.7275412728	 0.110313
H	 1.1188482316	-2.8017894166	 0.4167418838	 0.114871
128.775	154.1177	182.9599	238.7216	292.2543	436.9355	500.3765	532.7208	551.6959	605.3112	671.7398	745.096	789.876	841.9555	854.8054	908.8289	926.6254	947.1352	972.9035	1001.0439	1022.8725	1079.0664	1099.1741	1109.3158	1127.1317	1144.6627	1153.5616	1201.4634	1230.3215	1247.5981	1272.7852	1298.3103	1367.325	1400.4638	1414.5048	1489.4144	1493.3252	1514.1015	2341.8508	3036.7026	3052.4318	3056.6094	3100.4916	3107.4386	3120.4896	3148.1119	3207.9699	3235.1195
CC1C2CC3C2C13C#N	C[C@H]1[C@H]2C[C@@H]3[C@H]2[C@]13C#N	
InChI=1S/C8H9N/c1-4-5-2-6-7(5)8(4,6)3-9/h4-7H,2H2,1H3	InChI=1S/C8H9N/c1-4-5-2-6-7(5)8(4,6)3-9/h4-7H,2H2,1H3/t4-,5+,6+,7-,8+/m0/s1
