16
gdb 30286	3.15498	1.61022	1.1372	1.1701	70.44	-0.2337	-0.0043	0.2294	1038.0233	0.126091	-437.902218	-437.894901	-437.893957	-437.934276	27.373	
C	 0.1011655806	 1.5611277363	-0.1025359741	-0.385695
C	-0.0564101652	 0.0592387221	 0.1019360539	 0.024637
O	 0.5141037555	-0.6522554712	-1.0373879924	-0.301797
C	 1.4907865051	-1.6437273502	-0.6717931548	-0.181535
C	 1.5570217911	-1.4589653688	 0.8003507732	 0.263616
C	 0.7052083343	-0.5266891435	 1.2471155253	 0.210477
N	 0.8103027275	-0.4163276312	 2.6243939022	-0.341
C	 1.7218002315	-1.2916236443	 2.9159999209	 0.033561
O	 2.238282328	-1.9831689757	 1.8489587459	-0.190969
H	 1.1591524534	 1.8318134019	-0.1583728564	 0.120065
H	-0.3902893408	 1.8692241502	-1.0292535858	 0.126464
H	-0.3556849252	 2.1018275096	 0.7324309642	 0.128404
H	-1.1261703257	-0.1918612039	 0.1504949593	 0.096551
H	 1.1451202849	-2.6425140097	-0.9766574257	 0.120696
H	 2.4354119185	-1.4404071972	-1.1949106466	 0.123183
H	 2.1255407269	-1.5441904445	 3.8836131108	 0.153342
90.7499	152.1481	215.5901	230.077	299.7124	446.9145	459.9001	594.905	638.9714	679.4438	736.1881	783.1811	811.7127	847.791	940.5925	1000.1562	1031.0774	1047.1564	1069.0442	1077.1292	1110.7286	1136.8686	1177.7314	1275.3761	1285.6775	1321.4523	1367.9553	1402.189	1410.0944	1435.4595	1485.7325	1494.6328	1520.8984	1525.7108	1673.3664	2990.2544	2994.0231	3018.3952	3042.227	3118.8566	3126.1736	3281.0965
CC1OCC2=C1N=CO2	C[C@H]1OCc2c1nco2	
InChI=1S/C6H7NO2/c1-4-6-5(2-8-4)9-3-7-6/h3-4H,2H2,1H3	InChI=1S/C6H7NO2/c1-4-6-5(2-8-4)9-3-7-6/h3-4H,2H2,1H3/t4-/m1/s1
