17
gdb 37271	3.72185	1.98954	1.89517	1.2493	72.54	-0.2205	0.0725	0.2929	793.8673	0.140239	-380.766061	-380.760581	-380.759637	-380.795509	24.465	
N	-0.0221686337	 1.4916900348	 0.0423032817	-0.328869
C	 1.2878633238	 0.8042210034	 0.0275829219	-0.050674
C	 0.0242820559	 0.0128913681	 0.0389972314	-0.050674
C	-0.0457539849	-0.6179677803	-1.3426209675	 0.000515
C	-0.2204313449	 0.3178425669	-2.5353635537	-0.0737
C	 1.0869300565	 1.1365940773	-2.5471704821	-0.073701
C	 1.0262390453	-0.2285723711	-3.1598320931	-0.05928
N	 1.4095447959	-0.8209893456	-1.7980163171	-0.18724
C	 1.868035416	 0.5805616063	-1.3599085729	 0.000516
H	-0.2104763463	 1.8060891968	 0.9929937573	 0.22957
H	 1.9357282845	 0.8786149623	 0.894111093	 0.089896
H	-0.3141858342	-0.5304149156	 0.9144355582	 0.089896
H	-0.6072408906	-1.5518082388	-1.3958478216	 0.07082
H	-1.1206780698	 0.6965994914	-3.0014623643	 0.087596
H	 1.1330920421	 2.1080521199	-3.0218150302	 0.087596
H	 1.2755054129	-0.64052929	-4.1263393511	 0.096913
H	 2.9525254614	 0.6775311841	-1.4280043099	 0.07082
287.5927	288.7544	534.7513	542.8325	678.6077	686.8623	760.9941	762.0794	813.6709	819.9424	840.132	857.2362	865.4715	890.1006	921.9388	928.0977	948.3985	973.0398	996.3616	1013.0047	1017.7133	1032.4643	1066.4078	1076.8327	1087.8065	1147.8436	1161.3554	1179.1281	1194.9799	1217.9302	1243.3792	1250.075	1336.2806	1341.9963	1363.4389	1371.1547	1415.5619	3100.0621	3102.1762	3164.9872	3174.7179	3194.0537	3199.9608	3229.3018	3478.5078
N1C2C1C1C3C4C3N1C24	N1[C@H]2[C@@H]1[C@H]1[C@H]3[C@@H]4[C@H]3N1[C@H]24	
InChI=1S/C7H8N2/c8-3-4(8)7-2-1-5(2)9(7)6(1)3/h1-8H	InChI=1S/C7H8N2/c8-3-4(8)7-2-1-5(2)9(7)6(1)3/h1-8H/t1-,2+,3+,4-,5-,6+,7-
