17
gdb 111782	3.03687	1.25828	1.12808	1.9656	68.31	-0.2331	-0.0252	0.2078	1113.4413	0.136194	-458.933113	-458.925127	-458.924183	-458.966052	29.984	
O	 0.0384134198	 1.4986514316	-0.0623455643	-0.414647
C	 0.0854141942	 0.0806789031	-0.0789207621	-0.115264
C	-1.3110817653	-0.5244442398	 0.0021010786	-0.018368
C	-1.5180943215	-2.0861916401	 0.0904382387	-0.2248
C	-0.7566113108	-2.4200327763	 1.3845644316	-0.095159
O	-1.1311415622	-1.2901529615	 2.2229658238	-0.280251
C	-2.0395593877	-0.5570267898	 1.3849223565	-0.049487
C	-2.8710620108	-1.6836332247	 0.7301982182	 0.447978
O	-4.0143187964	-2.0016232767	 0.6232682238	-0.31092
H	-0.1954809404	 1.7751545664	 0.8293571349	 0.289139
H	 0.5473233291	-0.1929413261	-1.0334548006	 0.117795
H	 0.7228620707	-0.3049318889	 0.7254553349	 0.11005
H	-1.9493138873	-0.0878785308	-0.7715636508	 0.107736
H	-1.4343422923	-2.7589727948	-0.7592581586	 0.098949
H	-1.0948339735	-3.3563138279	 1.8427383472	 0.12193
H	 0.3317337238	-2.4527555078	 1.2744303257	 0.114545
H	-2.4417039894	 0.305989364	 1.9093311126	 0.100774
69.0755	127.8254	183.0936	231.0245	297.6027	315.07	392.9216	472.9106	534.2913	657.7834	679.4443	731.9347	809.8298	831.1988	904.9409	920.2744	954.4559	978.6859	1027.2215	1052.493	1073.6582	1079.0867	1103.3045	1119.5433	1166.2037	1171.3135	1203.8585	1228.7861	1252.0295	1276.2685	1353.8275	1365.6036	1407.3232	1412.6922	1495.8351	1535.1879	1914.4701	3030.3064	3036.3673	3073.2957	3076.7927	3087.8881	3160.4727	3165.2659	3820.6012
OCC1C2COC1C2=O	OC[C@H]1[C@H]2CO[C@@H]1C2=O	
InChI=1S/C6H8O3/c7-1-3-4-2-9-6(3)5(4)8/h3-4,6-7H,1-2H2	InChI=1S/C6H8O3/c7-1-3-4-2-9-6(3)5(4)8/h3-4,6-7H,1-2H2/t3-,4+,6-/m0/s1
