16
gdb 20114	5.87005	1.2042	1.15969	1.233	68.05	-0.2612	-0.0385	0.2227	1053.9114	0.131949	-379.884068	-379.876577	-379.875633	-379.916479	27.008	
O	-0.0016476617	 0.3154301788	 0.0019720207	-0.370822
C	-0.0176890618	 1.5360300477	 0.0073695256	 0.39633
C	 1.1943741066	 2.3218863309	 0.3790329327	-0.112925
C	 1.8885566115	 1.9066289659	 1.6448416873	-0.21742
N	 2.4871992778	 1.6233469427	 0.3502794595	-0.301813
C	-1.2499148598	 2.2930242518	-0.3578435808	-0.112932
C	-1.9329490543	 1.8706176145	-1.627349855	-0.21741
N	-2.5239884806	 1.5606281251	-0.3354151222	-0.301822
H	 1.2143067404	 3.36690473	 0.084172777	 0.103535
H	 2.3860177572	 2.6692019774	 2.2368410952	 0.130442
H	 1.4383572298	 1.0903318073	 2.2024709733	 0.135229
H	 2.2882743248	 0.6520330976	 0.106406748	 0.250201
H	-1.2972299791	 3.3345888088	-0.054023247	 0.10353
H	-2.4502150154	 2.6249503288	-2.212898034	 0.130444
H	-1.4615061103	 1.0712197244	-2.1918637594	 0.135234
H	-2.2996794551	 0.5928027284	-0.0998397109	 0.250199
66.9813	95.0461	195.6032	249.9472	293.453	319.9094	381.5026	677.1965	760.6326	800.4766	839.6314	858.5238	864.4792	908.6863	973.1849	976.8922	1009.1514	1012.6558	1094.8616	1117.9671	1125.8149	1136.9505	1141.186	1178.4113	1185.8341	1287.6872	1288.0437	1318.0793	1326.7883	1377.1013	1424.1365	1496.0288	1496.5972	1752.3196	3114.7203	3114.8554	3152.9478	3159.9377	3209.5619	3209.67	3461.9392	3463.5609
O=C(C1CN1)C1CN1	O=C([C@H]1CN1)[C@H]1CN1	
InChI=1S/C5H8N2O/c8-5(3-1-6-3)4-2-7-4/h3-4,6-7H,1-2H2	InChI=1S/C5H8N2O/c8-5(3-1-6-3)4-2-7-4/h3-4,6-7H,1-2H2/t3-,4-/m1/s1
