18
gdb 78920	4.70319	1.30669	1.29551	0.6325	74.62	-0.2246	0.0649	0.2895	1032.5605	0.148187	-401.858876	-401.85157	-401.850626	-401.890158	29.558	
C	-0.1414458685	 1.5021676409	-0.087116954	-0.525971
C	 0.1019908985	 0.0361745016	 0.0206810626	 0.358439
C	 0.4135064212	-1.020932477	-0.9728578275	-0.121834
C	 1.2663211161	-1.8608068618	-0.0126175351	-0.077111
C	 0.3301087773	-2.9831881234	 0.481588232	 0.120437
O	 0.9542630149	-3.6834857482	 1.5385182352	-0.440611
C	-0.5467377959	-1.8051005125	 0.9643377386	-0.039924
C	 0.7101446916	-0.8947443957	 1.1124912288	-0.126537
N	-0.9325379171	-1.0100076589	-0.2666467348	-0.202554
H	 0.8019158372	 2.0587086848	-0.1176613962	 0.122214
H	-0.7008139534	 1.7231467351	-1.0017063346	 0.133782
H	-0.7254839823	 1.8711113186	 0.7636250172	 0.12471
H	 0.4033725065	-1.000665332	-2.0557390348	 0.093788
H	 2.3211931214	-2.0292074526	-0.2171071955	 0.079166
H	-0.1000311342	-3.659836327	-0.2700903393	 0.070147
H	 0.2793813406	-4.1939286698	 1.9975107727	 0.286074
H	-1.3560499174	-1.9194804025	 1.6859993775	 0.067998
H	 1.2369843336	-0.6396318097	 2.0264533873	 0.077787
165.6843	205.624	211.2268	299.3668	319.1053	338.5289	485.6145	557.7077	618.321	728.5872	754.8206	805.7708	820.9956	860.5071	892.194	909.1404	926.6031	945.5526	954.0306	1004.8898	1024.2461	1058.515	1072.7943	1095.791	1110.0687	1144.7875	1164.9185	1181.8498	1200.5403	1214.5855	1244.4621	1250.7273	1278.1129	1315.5903	1397.7245	1411.657	1452.9256	1480.3248	1491.7731	3005.8995	3026.6704	3089.1106	3105.9637	3109.7505	3146.1356	3167.7109	3187.	3812.4701
CC12C3C4C(O)C(C14)N23	C[C@@]12[C@H]3[C@@H]4[C@@H](O)[C@@H]([C@H]14)N23	
InChI=1S/C7H9NO/c1-7-3-2-5(9)4(3)8(7)6(2)7/h2-6,9H,1H3	InChI=1S/C7H9NO/c1-7-3-2-5(9)4(3)8(7)6(2)7/h2-6,9H,1H3/t2-,3+,4+,5+,6+,7-,8?/m0/s1
