19
gdb 81938	2.14991	1.83626	1.1212	2.2374	77.25	-0.2333	0.0018	0.235	1119.4728	0.158116	-423.022074	-423.013148	-423.012204	-423.055403	33.673	
C	-0.0176539486	 1.5272981823	 0.1557371116	-0.506933
C	-0.0345558665	 0.0392316803	-0.0019601458	 0.214969
C	-0.0761060077	-0.698587736	-1.1228647275	 0.15771
C	-0.0594865576	-0.2549844584	-2.5497344169	-0.492943
C	-0.0364404822	-2.1996918664	-0.8169046168	 0.037168
O	 1.073893478	-2.8493057116	-1.4194291973	-0.433105
C	 0.0195640654	-2.2475695825	 0.7101433404	-0.007398
O	 1.2483710369	-1.6960039443	 1.2062817846	-0.273717
C	 0.0483543996	-0.8686866862	 1.1912870862	-0.049862
H	 0.9058067119	 1.8602924626	 0.6462724204	 0.135813
H	-0.0980277226	 2.0454640779	-0.8023932493	 0.128294
H	-0.8474989226	 1.8665167507	 0.7887429518	 0.127692
H	 0.066552161	 0.824802768	-2.6562098543	 0.120628
H	 0.7555418144	-0.7569425097	-3.0828999288	 0.144279
H	-0.9882620416	-0.5407983341	-3.0611222638	 0.126322
H	-0.9256299362	-2.7138158058	-1.2021650202	 0.086159
H	 1.8466338894	-2.5299187124	-0.9337372887	 0.28853
H	-0.3798912048	-3.0891864169	 1.2681214387	 0.099704
H	-0.3003169262	-0.5644344974	 2.1740257757	 0.096689
106.594	138.4525	160.2896	192.0498	223.8127	267.9089	275.7903	385.6496	471.8494	510.9948	525.8261	585.7664	625.5952	701.9789	772.0911	826.6391	859.9	902.4424	935.7227	985.798	1036.1697	1049.321	1066.482	1072.0915	1107.2512	1136.1975	1190.1712	1238.6609	1256.3452	1266.6106	1306.8914	1345.8732	1402.6295	1416.574	1426.2688	1432.9645	1473.9299	1479.9754	1486.4162	1492.3825	1727.9022	3019.1397	3021.2737	3038.3639	3064.0296	3075.7328	3118.2724	3123.7663	3153.4775	3165.6357	3759.0119
CC1=C(C)C(O)C2OC12	CC1=C(C)[C@@H](O)[C@H]2O[C@@H]12	
InChI=1S/C7H10O2/c1-3-4(2)6-7(9-6)5(3)8/h5-8H,1-2H3	InChI=1S/C7H10O2/c1-3-4(2)6-7(9-6)5(3)8/h5-8H,1-2H3/t5-,6+,7-/m1/s1
