17
gdb 46720	3.07721	1.73249	1.28589	2.5139	72.53	-0.2414	-0.0236	0.2178	972.4877	0.137845	-421.796473	-421.789617	-421.788673	-421.829037	26.843	
O	-0.0489060392	 0.0105458113	-0.360231061	-0.318153
C	-0.0232110099	 1.176476918	-0.0388742114	 0.337633
C	-1.303458915	 1.9153559396	 0.3335778361	-0.175416
O	-1.1320301606	 3.2792677565	 0.6916789349	-0.28734
C	 0.1731293718	 3.7729370934	 0.6590282463	 0.176502
C	 1.1179700961	 3.4618939754	-0.5416796001	-0.114911
C	 2.2927778367	 3.8342380593	 0.3997386082	-0.230041
C	 1.3540091407	 2.9574500885	 1.2686661386	-0.114882
C	 1.2229741947	 1.9994028117	 0.0279536835	-0.105498
H	-1.9923808423	 1.8495861347	-0.5186275216	 0.138106
H	-1.7731866993	 1.3791385673	 1.1684369653	 0.138124
H	 0.1062296144	 4.8205007172	 0.9596586113	 0.089907
H	 0.9850017001	 3.7349728157	-1.5888431677	 0.087097
H	 3.2595572783	 3.3929953827	 0.1507344995	 0.107372
H	 2.3895793547	 4.8866952819	 0.6803791824	 0.099505
H	 1.4927455627	 2.6498367	 2.3054547911	 0.087101
H	 2.1064048863	 1.4200848466	-0.2486393153	 0.084894
21.0812	146.1352	364.0674	375.9072	456.9927	497.7498	532.9293	569.6288	657.4504	769.8119	786.7742	841.3332	892.0247	900.9391	936.7249	986.0919	995.7271	1007.3925	1016.7326	1062.4461	1078.2081	1114.474	1116.4076	1165.439	1169.8506	1206.6644	1232.1729	1238.4171	1244.115	1254.3632	1275.3159	1323.4742	1366.7255	1418.792	1474.264	1517.9595	1815.9162	3018.9989	3052.2026	3057.9036	3095.1377	3095.8628	3110.4748	3117.1312	3128.6741
O=C1COC2C3CC2C13	O=C1CO[C@@H]2[C@H]3C[C@@H]2[C@@H]13	
InChI=1S/C7H8O2/c8-5-2-9-7-3-1-4(7)6(3)5/h3-4,6-7H,1-2H2	InChI=1S/C7H8O2/c8-5-2-9-7-3-1-4(7)6(3)5/h3-4,6-7H,1-2H2/t3-,4+,6-,7+
