19
gdb 38617	2.64432	2.21966	1.63094	1.4679	77.07	-0.2167	0.0907	0.3074	887.8798	0.162601	-385.853487	-385.847099	-385.846155	-385.883783	27.671	
C	-0.0443930581	 1.4493074995	-0.1517078709	-0.42137
C	 1.3071816671	 0.780484737	 0.0095717374	 0.087242
O	 2.1460355251	 0.393876565	-1.0550050062	-0.259668
C	 1.5513179624	-0.7656056669	-1.5992718772	 0.100763
C	 1.077834695	-1.9701920987	-0.7587920879	-0.079937
C	 1.047954092	-2.0319580212	 0.7834509323	-0.234044
C	-0.0564554711	-1.0134589463	 1.2122749287	-0.295242
C	 0.054715548	-0.0449266355	 0.0487272516	 0.276339
C	 0.1193732238	-0.8894502734	-1.2222104266	-0.169436
H	-0.3603594128	 2.0854345817	 0.6697292131	 0.115156
H	-0.3639090305	 1.7880036489	-1.131893819	 0.119705
H	 1.8569492395	 0.9804419044	 0.9238389776	 0.096144
H	 1.9270630983	-0.9750177656	-2.5946947708	 0.100699
H	 1.1295929195	-2.9123877079	-1.295597541	 0.084591
H	 0.822280191	-3.0497106221	 1.1153337508	 0.097188
H	 2.0134712929	-1.7575885327	 1.221884149	 0.109341
H	-1.0372844866	-1.5005367027	 1.2625460174	 0.096025
H	 0.1417372525	-0.5524997477	 2.1845830858	 0.095474
H	-0.728755598	-1.0082845358	-1.8879466942	 0.081029
218.2285	225.9399	333.6234	390.7798	505.9481	525.0463	611.8146	675.8139	720.1452	737.6066	787.2152	820.2297	837.9618	862.0998	878.1419	911.7631	935.2161	990.6793	1000.2869	1002.8383	1033.7025	1048.9916	1070.8688	1084.8109	1088.5772	1098.7217	1132.9806	1154.1659	1170.9935	1215.1257	1236.3598	1286.6566	1298.5538	1301.0225	1331.1926	1344.8907	1380.6995	1415.614	1474.5331	1489.1311	1502.0536	3034.1219	3045.0697	3080.959	3093.6898	3122.8858	3154.0423	3157.1813	3160.0545	3182.6188	3212.0528
C1C2OC3C4CCC12C34	C1[C@@H]2O[C@H]3[C@H]4CC[C@@]12[C@@H]34	
InChI=1S/C8H10O/c1-2-8-3-5(8)9-7-4(1)6(7)8/h4-7H,1-3H2	InChI=1S/C8H10O/c1-2-8-3-5(8)9-7-4(1)6(7)8/h4-7H,1-3H2/t4-,5-,6+,7-,8+/m0/s1
