19
gdb 39041	2.46269	2.16977	1.4536	1.8132	79.55	-0.2192	-0.0005	0.2186	942.795	0.16163	-385.835644	-385.828829	-385.827885	-385.866244	29.193	
C	-0.1241756557	 1.537953045	 0.0785968924	-0.444915
C	 1.2203085349	 0.8077818614	-0.0313682132	-0.001887
C	 2.3342976848	 0.4255848906	 0.9208754291	-0.321042
C	 2.6400279926	-1.0493277569	 0.6589397229	-0.059357
C	 1.7693831522	-2.0086550853	 0.3023192086	-0.046194
C	 0.2504954528	-1.9035053229	 0.2108623363	 0.040894
C	-0.2862209577	-0.9115214984	 1.2589126055	-0.301828
C	-0.0463918643	 0.0499622099	 0.1066972307	 0.427048
O	-0.2509267469	-1.0050713274	-0.8549478921	-0.322005
H	-0.4329433388	 2.0062063995	 1.010045833	 0.116826
H	-0.4431571778	 2.0682798931	-0.8123751533	 0.127714
H	 1.5547602753	 0.7877499286	-1.0664047149	 0.102807
H	 3.2412991352	 1.0210955413	 0.7671802408	 0.102823
H	 2.0481072186	 0.5807805801	 1.969665428	 0.114534
H	 3.688571058	-1.3330282659	 0.7328917834	 0.090202
H	 2.1723390002	-3.0011516113	 0.1144163231	 0.088178
H	-0.2151504686	-2.8863584835	 0.1171816101	 0.07428
H	-1.3537210178	-1.0482982826	 1.4490236098	 0.106567
H	 0.2611052732	-0.7912730551	 2.19426359	 0.105353
214.9391	267.5582	320.109	356.5645	404.3728	423.5986	507.2993	541.3025	570.6618	698.5202	739.7628	806.9621	820.2562	840.4892	861.009	896.5907	918.2693	928.6706	966.9083	993.9542	1007.3089	1014.195	1060.9759	1072.4228	1101.156	1129.8556	1166.2691	1184.2294	1213.6251	1223.3701	1258.2358	1290.682	1322.7933	1346.6041	1373.9735	1408.2034	1430.7879	1473.8317	1493.4607	1504.2312	1672.6311	3018.7715	3055.8506	3068.1232	3094.7844	3116.6765	3131.3014	3132.9951	3134.6471	3160.106	3207.6659
C1C2CC=CC3CC12O3	C1[C@H]2CC=C[C@H]3C[C@@]12O3	
InChI=1S/C8H10O/c1-2-6-4-8(6)5-7(3-1)9-8/h1,3,6-7H,2,4-5H2	InChI=1S/C8H10O/c1-2-6-4-8(6)5-7(3-1)9-8/h1,3,6-7H,2,4-5H2/t6-,7+,8+/m1/s1
