19
gdb 29573	2.78794	1.33376	0.96266	1.07	81.42	-0.2129	0.0279	0.2408	1241.6229	0.159918	-385.91042	-385.901949	-385.901004	-385.94407	31.857	
C	 0.2216060823	 1.4508860924	 0.1102043853	-0.50469
C	 0.0200697431	-0.0301291307	 0.0374410161	 0.150702
C	-0.0371243466	-0.8052691001	-1.0764439716	-0.095906
O	-0.2306399985	-2.1136448211	-0.7553777806	-0.150894
C	-0.3028953128	-2.1713649972	 0.6006388593	-0.108456
C	-0.1525423339	-0.9369895559	 1.152610607	 0.16608
C	-0.1617824214	-0.5673955284	 2.5861706264	-0.122503
C	 0.1187934632	-1.5850046106	 3.663409795	-0.270554
C	 1.130153733	-0.504930015	 3.3807614726	-0.250564
H	 1.1018187407	 1.7069110243	 0.7107207686	 0.131807
H	 0.3581651692	 1.8806975952	-0.8860175698	 0.122802
H	-0.6358601812	 1.9536650412	 0.5734074133	 0.126943
H	 0.041331107	-0.58692575	-2.1293621219	 0.130065
H	-0.47025509	-3.149764454	 1.0197165276	 0.131985
H	-0.8888523727	 0.1982508639	 2.847231731	 0.09013
H	-0.4573327616	-1.5267662166	 4.5799075234	 0.111862
H	 0.3664380558	-2.5956030215	 3.3590900351	 0.114047
H	 2.0418059003	-0.7923851242	 2.8690795548	 0.116682
H	 1.2489509441	 0.2955460784	 4.1026386582	 0.110462
54.53	123.1692	151.4455	163.4354	257.7636	282.0853	396.9268	472.3898	575.7584	619.7586	675.5836	693.6249	746.8458	772.7778	798.2397	830.9307	888.8441	916.5934	927.8875	1013.1182	1058.2626	1064.5266	1081.054	1082.2529	1090.0769	1130.6011	1157.1613	1188.9917	1199.1881	1226.1582	1254.9304	1306.096	1365.3899	1416.5643	1422.9575	1467.455	1481.173	1495.3359	1502.5833	1590.3939	1655.1244	3025.6325	3074.689	3109.4096	3125.0135	3134.4381	3141.206	3215.3378	3230.1139	3267.1902	3274.9994
CC1=COC=C1C1CC1	Cc1cocc1C1CC1	
InChI=1S/C8H10O/c1-6-4-9-5-8(6)7-2-3-7/h4-5,7H,2-3H2,1H3	InChI=1S/C8H10O/c1-6-4-9-5-8(6)7-2-3-7/h4-5,7H,2-3H2,1H3
