20
gdb 90814	3.3344	1.71753	1.53032	1.7587	79.93	-0.2281	0.0836	0.3117	951.479	0.174028	-365.96299	-365.956192	-365.955247	-365.993923	28.611	
C	-0.1479877533	 1.5748179661	-0.0025167503	-0.406945
C	 0.0163552304	 0.0543090745	-0.0209651168	 0.026482
C	 0.8270118921	-0.4919036391	-1.2424133182	-0.248501
C	 1.8741350997	-1.4108615299	-0.6162687053	 0.041899
C	 1.3857481731	-1.900816938	 0.7663396442	-0.116754
C	 2.7760456344	-1.4534330295	 1.3208633939	-0.062024
C	 2.2605743472	-0.0664879033	 1.2799194699	-0.049041
C	 0.794390834	-0.5129433428	 1.1762341204	-0.035871
N	 2.9781386838	-0.6455906869	 0.0835947205	-0.156222
H	 0.8277327391	 2.0732927153	-0.0004674941	 0.122639
H	-0.6959870984	 1.9242036322	-0.8837268941	 0.113987
H	-0.6984654512	 1.9077640051	 0.8843567404	 0.108889
H	-0.982366925	-0.4018421386	-0.0244081069	 0.066433
H	 0.1858629675	-1.0322245814	-1.9461904123	 0.095883
H	 1.3195275011	 0.3118661266	-1.800730596	 0.108179
H	 2.3209014372	-2.1539419026	-1.2787154347	 0.070531
H	 0.8489235892	-2.8321562592	 0.9342635677	 0.067237
H	 3.5760484568	-1.9295828553	 1.8710990672	 0.095122
H	 2.6781471881	 0.8413493112	 1.6957743334	 0.092245
H	 0.2735059943	-0.4922945143	 2.135743171	 0.065831
109.1669	245.0572	254.6038	349.3561	441.773	476.5189	625.5962	665.3483	730.8414	744.5319	808.594	836.5476	838.8989	874.5396	886.2533	922.0276	928.3696	953.129	969.7575	981.5431	993.545	1024.8788	1039.9105	1053.0168	1106.423	1128.2097	1148.914	1159.2237	1202.5503	1206.8605	1214.848	1236.4757	1262.4058	1280.4527	1315.9071	1327.0012	1339.1	1354.4466	1371.3153	1409.8863	1481.8089	1499.042	1501.3342	3009.8627	3026.6836	3042.2286	3083.4115	3092.6048	3095.1879	3098.039	3100.8862	3135.8034	3193.6287	3211.3019
CC1CC2C3C4C(C13)N24	C[C@H]1C[C@@H]2[C@H]3[C@@H]4[C@H]([C@@H]13)N24	
InChI=1S/C8H11N/c1-3-2-4-6-5(3)7-8(6)9(4)7/h3-8H,2H2,1H3	InChI=1S/C8H11N/c1-3-2-4-6-5(3)7-8(6)9(4)7/h3-8H,2H2,1H3/t3-,4+,5-,6+,7-,8+,9?/m0/s1
