18
gdb 106232	2.73312	1.43464	1.25799	1.1941	71.03	-0.2393	0.0102	0.2495	1080.7475	0.147153	-439.076769	-439.068095	-439.067151	-439.110278	31.96	
C	 0.2632037847	 1.5177942492	 0.0886794676	-0.376423
C	-0.1058110823	 0.0427271217	-0.106991785	-0.273851
C	 0.6018573833	-0.5811792216	-1.2846557747	 0.251271
N	 0.2728856714	-0.0632457911	-2.6017663526	-0.320237
C	 0.3542019955	-1.0507564346	-3.4025759557	 0.106553
O	 0.650491687	-2.2733902647	-2.9084502561	-0.200553
C	 0.8854106883	-2.0716930991	-1.5246987822	-0.036435
C	 2.0154529656	-1.1282287794	-1.1886762294	 0.041086
O	 2.9859101924	-0.8440844077	-2.1407523735	-0.42407
H	 1.3346606335	 1.6330267054	 0.2851414581	 0.11387
H	 0.0206985083	 2.0953485811	-0.807281071	 0.140413
H	-0.2813736988	 1.9488415338	 0.9338791927	 0.111841
H	 0.139218796	-0.5301795623	 0.7954620932	 0.096569
H	-1.1881398436	-0.0548825367	-0.2552716728	 0.107593
H	 0.1940606848	-1.0188355489	-4.4732834751	 0.147604
H	 0.6006612033	-2.9193466083	-0.9146342578	 0.115393
H	 2.3966541611	-1.2277769262	-0.1730342466	 0.101673
H	 2.8040210194	 0.0331865996	-2.497583229	 0.297702
77.9526	113.8835	148.8866	208.1267	220.9165	260.0945	317.5503	351.2523	477.9797	590.887	627.6784	742.0631	748.2138	779.2587	797.8466	891.0881	913.3137	950.594	962.5638	994.759	1011.0692	1048.1108	1083.9099	1104.2543	1154.0126	1160.0928	1230.506	1258.3387	1295.5953	1329.7973	1343.7293	1357.2687	1366.5676	1407.3221	1436.9837	1479.163	1496.8561	1509.4986	1656.7807	3027.562	3038.4916	3062.8021	3105.1734	3113.5724	3123.4843	3196.1895	3231.0592	3789.4492
CCC12N=COC1C2O	CC[C@]12N=CO[C@H]1[C@H]2O	
InChI=1S/C6H9NO2/c1-2-6-4(8)5(6)9-3-7-6/h3-5,8H,2H2,1H3	InChI=1S/C6H9NO2/c1-2-6-4(8)5(6)9-3-7-6/h3-5,8H,2H2,1H3/t4-,5+,6-/m1/s1
