22
gdb 90046	3.0786	1.36692	1.15386	0.6751	89.61	-0.2041	0.0782	0.2823	1182.9042	0.193793	-367.084786	-367.076379	-367.075435	-367.117069	34.027	
C	-0.1304957182	 1.5838298635	 0.0078892956	-0.320685
N	-0.0080078814	 0.1433500526	 0.0397045429	-0.107659
C	-1.216598165	-0.6621109579	 0.4639282691	-0.276159
C	-0.2018863835	-1.6399735329	 1.1002898204	 0.239695
C	 0.5777755573	-2.2781198769	 2.2871036872	-0.342905
C	 1.6832667519	-1.7407577984	 1.2476371324	 0.282455
C	 3.1792139348	-1.8470968912	 1.4060225777	-0.511553
C	 0.8012551436	-2.3578617431	 0.1399506753	-0.270404
C	 0.7543758674	-0.4634455332	 1.1711083544	 0.003098
H	 0.8393689178	 2.029423422	-0.2372474017	 0.120882
H	-0.8424167135	 1.8810761826	-0.7696745282	 0.118416
H	-0.4748245175	 2.0170219815	 0.9669899825	 0.08679
H	-1.8353926135	-0.1287257903	 1.2022970104	 0.092545
H	-1.8422486487	-1.0195597432	-0.3604120515	 0.104712
H	 0.5188878993	-1.7636275833	 3.2501648769	 0.095075
H	 0.5385961538	-3.3652762563	 2.4069124576	 0.093561
H	 3.4913416191	-2.8922177382	 1.513813659	 0.117571
H	 3.690332691	-1.4333675965	 0.5300966659	 0.122762
H	 3.5253974554	-1.2991393462	 2.289206935	 0.115951
H	 0.7454792032	-3.4505583501	 0.1199977719	 0.076839
H	 0.9020898431	-1.9319308831	-0.857650368	 0.107174
H	 0.7249793135	 0.1602171085	 2.0778692252	 0.051838
165.3179	184.86	200.0581	211.5926	254.6092	326.7736	361.2854	404.5293	490.0356	513.0158	573.1316	604.8455	683.1722	742.4658	814.378	861.0095	906.318	914.6849	939.8294	966.2489	1000.4984	1024.686	1028.0691	1063.3963	1078.173	1106.2966	1130.6536	1155.3262	1165.0892	1169.9587	1181.1449	1193.0421	1211.8592	1232.7243	1257.6494	1282.7837	1305.1619	1373.2012	1402.6276	1448.3189	1482.9164	1485.6074	1487.9245	1488.3471	1498.4968	1501.3315	1526.9005	2918.8304	2973.8393	2985.5928	3024.162	3042.73	3052.566	3053.9234	3072.2377	3090.912	3096.3177	3097.0153	3113.6378	3143.2429
CN1CC23CC(C)(C2)C13	CN1C[C@@]23C[C@@](C)(C2)[C@@H]13	
InChI=1S/C8H13N/c1-7-3-8(4-7)5-9(2)6(7)8/h6H,3-5H2,1-2H3	InChI=1S/C8H13N/c1-7-3-8(4-7)5-9(2)6(7)8/h6H,3-5H2,1-2H3/t6-,7-,8+/m1/s1
