16
gdb 15279	4.60828	1.13878	0.99059	0.588	77.37	-0.2455	0.0389	0.2845	1162.7789	0.128045	-309.387925	-309.379482	-309.378538	-309.421066	31.371	
C	 0.0155085166	-1.1421344743	-0.3911506322	-0.444404
C	 0.0226984161	 0.0071133196	-0.0395046681	 0.305435
C	 0.0565056796	 1.4018207282	 0.3890307498	-0.385028
C	 1.423053328	 2.0386613909	 0.188985374	 0.007104
C	 1.8052800774	 2.633194414	-1.1313161302	-0.278999
C	 1.5568588194	 3.5525412222	 0.0591231427	-0.210067
C	 0.4030153264	 4.4023323036	 0.0906225673	 0.336551
C	-0.5621215903	 5.1204713406	 0.1272924003	-0.473007
H	-0.0023624242	-2.1567100132	-0.7032765817	 0.194474
H	-0.698375956	 1.9797518827	-0.1566201526	 0.142497
H	-0.2259683386	 1.4673126796	 1.4478634118	 0.136001
H	 2.2196263662	 1.5591628875	 0.749607116	 0.103842
H	 2.8263932953	 2.5301237393	-1.4799638665	 0.121417
H	 1.0567983176	 2.6414424675	-1.9157078759	 0.131278
H	 2.4425158858	 3.9808818774	 0.5194802269	 0.115812
H	-1.4109708292	 5.7575365144	 0.1550705086	 0.197095
58.1994	97.2237	161.0436	203.8722	321.7835	337.4695	352.5912	484.0957	527.9029	579.6304	608.5782	617.1685	639.8314	651.5423	772.4776	814.8238	878.2989	884.6439	931.8493	987.4833	1031.725	1068.759	1112.5225	1122.38	1157.9193	1227.8682	1252.453	1324.1326	1373.9449	1415.9839	1466.8912	1490.4836	2233.5807	2239.5841	3025.3628	3064.0488	3140.4123	3145.0989	3159.6481	3230.4806	3503.9711	3507.3926
C#CCC1CC1C#C	C#CC[C@H]1C[C@H]1C#C	
InChI=1S/C8H8/c1-3-5-8-6-7(8)4-2/h1-2,7-8H,5-6H2	InChI=1S/C8H8/c1-3-5-8-6-7(8)4-2/h1-2,7-8H,5-6H2/t7-,8+/m1/s1
