19
gdb 51427	3.46339	1.06091	1.03072	1.9766	74.95	-0.2495	-0.0269	0.2225	1227.0951	0.159881	-423.012331	-423.004356	-423.003412	-423.046267	30.057	
O	-0.6286813375	 0.9444072792	 0.8166094542	-0.236669
C	 0.0061763763	 1.0629370546	-0.1992347228	 0.163292
C	 1.3823897087	 1.6860156712	-0.2895153339	-0.328557
C	 1.3627239364	 2.9218592049	-1.1900585907	 0.014734
C	 0.7694252707	 4.2900222356	-0.7547125863	 0.06443
C	 1.4964098353	 4.6388138847	 0.56013068	-0.22326
C	 2.9450683107	 4.3018350297	 0.081120927	-0.22022
C	 2.581439323	 3.867521856	-1.3543465575	 0.047442
O	 1.6398937236	 4.911533952	-1.7523333481	-0.296931
H	-0.4088815085	 0.7222396682	-1.1770131442	 0.07533
H	 1.7283712351	 1.9041431908	 0.7229011105	 0.124867
H	 2.0602456546	 0.9428853849	-0.7336043318	 0.120629
H	 0.9783767003	 2.677029181	-2.1839240467	 0.092487
H	-0.2848213603	 4.5447380181	-0.8612533202	 0.084843
H	 1.3694537065	 5.6947248038	 0.8049437276	 0.112441
H	 1.1587551634	 4.0424034956	 1.4115026038	 0.111968
H	 3.5980354985	 5.1763047924	 0.0670910643	 0.11211
H	 3.4329241252	 3.5155705584	 0.6634719113	 0.101116
H	 3.3804266482	 3.6864892989	-2.0737106464	 0.079949
32.4296	65.7589	172.0016	256.4304	295.8817	370.2171	464.6431	519.0897	595.1102	716.2777	749.6403	831.1835	840.0191	853.8817	862.0894	874.2518	923.4963	957.4823	975.2363	1005.7815	1021.8905	1056.7324	1067.9541	1128.0639	1144.427	1162.3619	1197.0558	1207.249	1239.7157	1247.4072	1275.388	1283.0121	1310.1465	1315.192	1342.5192	1400.0578	1428.7553	1462.3562	1484.8751	1505.1285	1834.3396	2856.3094	3017.3348	3067.0117	3075.572	3078.1206	3113.1805	3117.3891	3121.1366	3127.1057	3130.9688
O=CCC1C2CCC1O2	O=CC[C@H]1[C@H]2CC[C@@H]1O2	
InChI=1S/C7H10O2/c8-4-3-5-6-1-2-7(5)9-6/h4-7H,1-3H2	InChI=1S/C7H10O2/c8-4-3-5-6-1-2-7(5)9-6/h4-7H,1-3H2/t5-,6+,7-
