17
gdb 69301	2.5645	1.5833	1.22858	1.8021	69.89	-0.2456	-0.0161	0.2296	1046.4728	0.133374	-458.947831	-458.938985	-458.938041	-458.980892	33.789	
C	 0.0316187679	 1.6866930303	-0.0388637261	-0.446266
C	-0.0140887115	 0.1661783275	-0.0652966195	 0.332743
O	-1.3255893091	-0.2837409593	 0.2116682154	-0.487053
C	 0.6035103872	-0.5824517779	-1.255547056	-0.171844
C	 2.0478419289	-0.255058987	-1.4376495087	-0.345017
C	 1.7936796413	-1.198491637	-0.3106581488	 0.33604
O	 2.4119121597	-2.4086267737	-0.2593235232	-0.439548
C	 0.9770276969	-0.6757082283	 0.7919997475	 0.214145
O	 0.769290391	-1.1826022217	 1.8758143572	-0.374255
H	 1.0179518104	 2.0868049822	-0.2869173676	 0.11433
H	-0.6970844862	 2.087735695	-0.7497687534	 0.1317
H	-0.238229718	 2.0418585483	 0.9601237708	 0.130993
H	-1.3068828488	-0.6478777942	 1.1075207359	 0.296109
H	 0.0164063923	-1.1532948431	-1.9618244685	 0.130938
H	 2.5244224323	-0.7577880711	-2.2749808292	 0.143702
H	 2.4271103225	 0.7474312595	-1.2607761498	 0.12781
H	 2.0037189631	-2.8992277795	 0.4689261242	 0.305472
78.2197	178.8259	203.8394	214.643	278.5224	321.0637	335.3001	350.0346	412.9948	458.4924	491.3396	552.671	562.9446	642.8054	684.5315	771.4525	840.4722	904.4085	924.2554	972.68	983.9509	1005.1432	1055.4547	1111.9537	1129.3171	1176.7511	1191.4048	1224.0997	1307.7984	1363.6632	1394.6633	1411.2838	1431.8363	1483.9622	1488.5257	1505.8681	1790.6092	3043.9958	3114.789	3115.4152	3123.5833	3195.6023	3225.376	3742.0372	3747.8488
CC1(O)C2CC2(O)C1=O	C[C@@]1(O)[C@H]2C[C@@]2(O)C1=O	
InChI=1S/C6H8O3/c1-5(8)3-2-6(3,9)4(5)7/h3,8-9H,2H2,1H3	InChI=1S/C6H8O3/c1-5(8)3-2-6(3,9)4(5)7/h3,8-9H,2H2,1H3/t3-,5-,6+/m1/s1
