16
gdb 46903	3.50391	1.41936	1.09023	2.8137	65.92	-0.2628	0.0224	0.2852	1058.6595	0.125392	-474.992262	-474.984826	-474.983882	-475.024687	28.112	
N	-0.0792204676	 1.3217194567	-0.1656627303	-0.499022
C	-0.0094770204	 0.0860464856	 0.0782611345	 0.439102
O	 1.1913996532	-0.5720823166	 0.1361994405	-0.267256
C	 1.4628404423	-1.6163126318	 1.0804546886	-0.128548
C	 0.7761310689	-2.9178761372	 0.7208385097	 0.042553
O	 0.0577715328	-3.5716865178	 1.7719941431	-0.24561
C	-0.6888844065	-2.9364344174	 0.73055721	 0.044608
C	-1.4000776731	-1.646480526	 1.0863774472	-0.125364
O	-1.1635474642	-0.6239580298	 0.114312728	-0.237703
H	 0.8626345438	 1.7008805169	-0.2491049391	 0.229689
H	 2.5493010431	-1.7243669189	 1.0558249397	 0.12976
H	 1.1762852298	-1.3162087596	 2.0937030084	 0.129573
H	 1.3071123016	-3.5875148182	 0.0471741831	 0.112644
H	-1.2106660299	-3.6191310377	 0.0627288303	 0.113235
H	-2.4840149839	-1.7782014444	 1.0822935823	 0.132832
H	-1.1040140296	-1.320895544	 2.088824104	 0.129506
58.0783	140.4837	256.7361	264.2855	353.1778	372.3903	457.7995	501.6548	628.4103	638.7568	764.0752	794.4213	833.4864	837.3885	876.0646	954.41	962.2286	1012.2358	1035.5437	1075.5363	1111.0747	1119.3464	1157.9096	1163.3233	1267.9935	1271.6458	1284.7354	1290.6902	1379.8402	1398.2316	1412.535	1480.0717	1496.2831	1516.172	1747.5255	3049.0418	3060.981	3110.2706	3114.7024	3131.924	3143.7403	3515.6731
N=C1OCC2OC2CO1	[NH][C]1OC[C@H]2O[C@H]2CO1	
InChI=1S/C5H7NO3/c6-5-7-1-3-4(9-3)2-8-5/h3-4,6H,1-2H2	InChI=1S/C5H7NO3/c6-5-7-1-3-4(9-3)2-8-5/h3-4,6H,1-2H2/t3-,4+
