23
gdb 101161	2.42517	1.03725	0.85606	2.6227	82.14	-0.2505	0.0644	0.3149	1461.9447	0.203944	-425.410307	-425.399462	-425.398518	-425.446387	39.751	
C	-0.7851729928	 1.4476814767	-0.7518105875	-0.399188
C	-0.1995756337	 0.088087474	-0.4308457317	-0.038648
C	 1.271009973	-0.2400578046	-0.5672333197	-0.027462
C	 2.3045856275	 0.7508175671	-1.0618916067	-0.409884
C	 0.6336184558	-0.1676634284	 0.8117178362	-0.06549
C	 0.9447569829	 0.918849557	 1.8115402989	 0.090697
O	-0.2175581004	 1.3072364501	 2.5672244989	-0.449061
C	 2.0465584738	 0.5126553205	 2.7963463789	-0.059964
O	 2.2383401848	 1.5079486855	 3.7766703671	-0.42739
H	-0.1045488367	 2.2691709867	-0.5184717148	 0.119175
H	-1.0335666409	 1.5187453411	-1.81642678	 0.112822
H	-1.7018731478	 1.6186144789	-0.178785968	 0.124864
H	-0.8689480984	-0.7284900172	-0.6920240953	 0.081051
H	 1.4778796987	-1.2543947586	-0.9003629866	 0.08405
H	 2.0899829571	 1.7792983386	-0.7640651954	 0.122635
H	 3.3016832128	 0.5002357122	-0.6829650583	 0.120957
H	 2.3554434193	 0.7342986632	-2.1561507129	 0.118998
H	 0.4713021117	-1.133392657	 1.2912071958	 0.072507
H	 1.2595486043	 1.8426435369	 1.3190638167	 0.089318
H	-0.6737494537	 0.4995361567	 2.8302720703	 0.280217
H	 1.7776458512	-0.4586089548	 3.2526257681	 0.067618
H	 2.9967105651	 0.3736207882	 2.2689303411	 0.10849
H	 1.3472168264	 1.8030639171	 4.0076890748	 0.283688
50.1603	99.6769	117.7052	158.8146	166.8045	200.7365	237.3674	260.9398	281.2389	326.4294	415.2577	436.5433	466.5486	528.5306	572.543	585.9929	759.1183	779.0548	854.1005	911.9173	947.0813	953.0697	1017.5821	1045.46	1064.1027	1079.4616	1102.0707	1106.484	1135.4774	1156.7356	1161.8788	1189.0309	1212.0768	1256.4462	1278.0838	1302.0039	1378.2543	1381.661	1395.4329	1417.5312	1423.522	1430.941	1442.0805	1456.7668	1487.2108	1492.6302	1501.8973	1503.9424	1512.7192	2928.6556	3033.1729	3039.1815	3066.0065	3081.1547	3087.8159	3095.9899	3097.3738	3109.6595	3121.508	3127.4919	3140.4036	3756.8619	3794.73
CC1C(C)C1C(O)CO	C[C@H]1[C@@H](C)[C@H]1[C@@H](O)CO	
InChI=1S/C7H14O2/c1-4-5(2)7(4)6(9)3-8/h4-9H,3H2,1-2H3	InChI=1S/C7H14O2/c1-4-5(2)7(4)6(9)3-8/h4-9H,3H2,1-2H3/t4-,5+,6-,7-/m0/s1
