18
gdb 77291	3.66261	0.87593	0.74459	2.7897	76.11	-0.2472	-0.0293	0.218	1495.7994	0.145027	-439.091403	-439.081911	-439.080967	-439.127111	33.331	
C	-0.4611668366	 1.3231897912	-0.0757640902	-0.420179
C	 0.1319747105	-0.0656275136	 0.1014437132	-0.114394
C	 0.9013745906	-0.7651545362	-1.0529394834	 0.10609
C	 2.0073401808	-1.2315832181	-0.0592681455	-0.382609
C	 1.4037624014	-0.2401669492	 0.9492199096	 0.385884
O	 1.808821819	 0.2886528198	 1.9428643369	-0.291426
O	 0.144323333	-1.7800833091	-1.6855589975	-0.18887
C	 0.5330989591	-2.1706005216	-2.9178486765	 0.12127
N	-0.0291292505	-3.1532116291	-3.4725954624	-0.436666
H	 0.2828430519	 2.0239966966	-0.4679773689	 0.121899
H	-1.3110733034	 1.3036748411	-0.7644720562	 0.131522
H	-0.8080300061	 1.7123608134	 0.8856342766	 0.14231
H	-0.6228431519	-0.7743920011	 0.467895495	 0.128412
H	 1.2796634579	-0.0500520142	-1.792906589	 0.094719
H	 1.8449042294	-2.2697216075	 0.2489618423	 0.150921
H	 3.0556376478	-1.0931299592	-0.3318016336	 0.131845
H	 1.3356962531	-1.549516467	-3.3400372961	 0.08706
H	 0.360640594	-3.2988876763	-4.4014350344	 0.232211
36.9511	68.5787	99.4183	165.4396	187.612	197.3957	293.1742	356.4009	371.3285	466.6132	566.6894	580.3514	698.7794	756.6083	807.3865	825.0705	902.733	913.1575	1006.8641	1018.8865	1044.1508	1048.8581	1117.4	1139.4168	1148.2543	1162.3491	1200.7716	1233.7459	1255.0034	1291.5215	1334.6489	1387.6107	1410.1774	1425.9669	1436.4964	1494.4514	1495.7114	1748.2491	1896.2494	3016.756	3032.2427	3039.0627	3043.5672	3061.895	3109.0664	3118.6995	3127.3312	3520.4803
CC1C(CC1=O)OC=N	C[C@H]1[C@@H](CC1=O)O[CH][NH]	
InChI=1S/C6H9NO2/c1-4-5(8)2-6(4)9-3-7/h3-4,6-7H,2H2,1H3	InChI=1S/C6H9NO2/c1-4-5(8)2-6(4)9-3-7/h3-4,6-7H,2H2,1H3/t4-,6-/m1/s1
