21
gdb 87251	4.47115	0.67817	0.65415	2.1074	81.26	-0.2481	-0.0208	0.2273	1759.9405	0.178994	-424.224729	-424.214219	-424.213274	-424.261135	37.614	
C	-0.0722390723	 1.5113770604	-0.1491514744	-0.402428
C	 0.0516777746	 0.010371748	-0.0173792925	-0.04184
C	 1.412471667	-0.6618833614	-0.0997259735	-0.357399
C	 0.6594438662	-0.6187117818	 1.2085854817	 0.403739
O	 1.1099875561	 0.2799042467	 2.1932118769	-0.468863
C	 0.048173431	-1.8863741521	 1.7781757677	-0.249695
C	 1.0459280905	-2.7017150623	 2.6227030157	-0.284282
C	 0.3901040465	-3.8980807437	 3.269022646	 0.15829
O	 0.7467982148	-5.0403640738	 3.1359595392	-0.238207
H	 0.7335795574	 2.0154248935	 0.3884906824	 0.127353
H	-0.0338057745	 1.8156574562	-1.2005432197	 0.113962
H	-1.0205740738	 1.8663947109	 0.2683565791	 0.118383
H	-0.7683419501	-0.5516235963	-0.4583458069	 0.085418
H	 1.505634485	-1.6074796145	-0.6238490469	 0.112465
H	 2.2741000959	-0.0075626496	-0.1918319485	 0.110054
H	 2.0173676102	 0.0501878925	 2.4171868222	 0.28626
H	-0.8134654111	-1.6106488372	 2.3998219713	 0.110636
H	-0.332219952	-2.5048982881	 0.9575311327	 0.109322
H	 1.8960486265	-3.0455223881	 2.0261333678	 0.11959
H	 1.4203175482	-2.0566544448	 3.4306101881	 0.115863
H	-0.4934172161	-3.6454655143	 3.9024795816	 0.071379
48.3841	62.5122	91.7692	136.0694	185.2114	232.9346	238.4584	272.2296	293.9827	364.2012	407.9707	450.4324	516.284	581.4048	720.0386	771.7994	814.0963	856.0329	885.316	921.2803	939.5334	993.2998	1016.0581	1038.967	1056.2436	1093.3385	1126.7432	1133.7145	1184.6182	1193.2675	1241.3718	1265.3155	1270.7979	1321.4753	1349.7695	1374.7173	1405.8756	1422.7383	1428.1577	1465.4253	1483.3295	1484.2719	1494.5746	1504.3649	1835.0678	2849.8983	3014.0194	3025.0079	3035.9307	3070.9711	3093.1745	3099.553	3120.8581	3123.9494	3139.5021	3209.9468	3812.9843
CC1CC1(O)CCC=O	C[C@H]1C[C@]1(O)CCC=O	
InChI=1S/C7H12O2/c1-6-5-7(6,9)3-2-4-8/h4,6,9H,2-3,5H2,1H3	InChI=1S/C7H12O2/c1-6-5-7(6,9)3-2-4-8/h4,6,9H,2-3,5H2,1H3/t6-,7+/m0/s1
