15
gdb 124889	3.73776	1.27898	1.06695	3.8239	66.6	-0.2691	-0.0707	0.1983	1100.4781	0.112139	-450.043929	-450.036168	-450.035224	-450.077391	28.234	
C	-0.0931554194	 1.4967465992	-0.0132247835	-0.472753
C	-0.0195188071	-0.0162701462	-0.0518224202	 0.18701
C	 0.7754402216	-0.6996550178	-1.1058779689	-0.267553
N	 1.2592477399	-0.6904696283	 0.2817418686	-0.328943
C	-1.2063931902	-0.7094743491	 0.5043406256	 0.434476
N	-1.6857229521	-1.8505937938	 0.0976538519	-0.156716
O	-2.7403585963	-2.0917559842	 0.9071493596	-0.140085
N	-2.8712604059	-1.03293634	 1.8033215075	 0.043356
N	-1.9550388264	-0.2098610444	 1.5595319229	-0.216438
H	 0.8111360262	 1.9269814489	-0.4534696401	 0.119808
H	-0.9542270894	 1.8667358177	-0.578989454	 0.138787
H	-0.189497626	 1.8583785882	 1.0144204158	 0.1526
H	 0.4640929678	-1.6719548819	-1.4732407261	 0.149412
H	 1.2621940504	-0.063024107	-1.8401008767	 0.119616
H	 1.9828653468	 0.0154456786	 0.4008258377	 0.237421
24.4556	155.6926	191.1775	213.982	316.2874	346.898	427.0253	489.761	557.6536	677.8016	691.0289	786.0191	817.4115	854.6441	940.3452	965.8658	978.3087	1003.5503	1055.9049	1064.2875	1089.4769	1126.8224	1156.9754	1234.007	1270.4424	1319.1295	1377.7499	1418.7456	1479.7386	1484.054	1505.5557	1518.1743	1595.8646	3039.7007	3109.0051	3117.0353	3119.9658	3210.4881	3492.2261
CC1(CN1)C1=NON=N1	C[C@]1(CN1)c1nonn1	
InChI=1S/C4H6N4O/c1-4(2-5-4)3-6-8-9-7-3/h5H,2H2,1H3	InChI=1S/C4H6N4O/c1-4(2-5-4)3-6-8-9-7-3/h5H,2H2,1H3/t4-/m0/s1
