15
gdb 126460	4.82001	1.05051	0.87175	5.8646	70.75	-0.2731	-0.1059	0.1671	1275.5095	0.111637	-453.946685	-453.938576	-453.937632	-453.980406	29.033	
C	-0.0831594826	 1.5629593599	 0.1417902312	-0.379419
C	 0.0066153608	 0.0447179293	-0.0087994379	-0.279153
C	 0.7148373113	-0.4298043944	-1.2511275549	 0.32382
N	 1.1811131785	 0.4412989099	-2.0790214425	-0.097978
O	 1.8210905287	-0.0436440809	-3.2010377991	-0.24767
C	 1.9804533054	-1.4080272754	-3.4715347939	 0.478398
O	 2.5512089178	-1.7054737376	-4.4754972514	-0.312234
N	 1.4619175127	-2.3247470621	-2.5492500502	-0.288594
C	 0.8710071382	-1.8490275939	-1.5136051793	-0.005402
H	 0.910986336	 2.01529489	 0.1733310455	 0.141503
H	-0.6200154908	 2.0111905996	-0.6977180416	 0.141585
H	-0.6095257097	 1.8152113527	 1.0657813944	 0.119648
H	 0.5187834089	-0.3958021632	 0.8579507322	 0.131986
H	-0.998432774	-0.3997325318	-0.0055841859	 0.132076
H	 0.4651544989	-2.5595027223	-0.7905420566	 0.141434
45.0726	70.3492	183.6938	214.6636	301.7413	347.4365	376.4243	490.4611	539.9033	552.7997	630.4389	739.9874	771.6105	811.0007	815.3386	891.0145	989.7327	995.0041	1050.7441	1080.7912	1108.6331	1133.3358	1229.6081	1287.0244	1379.1754	1419.7063	1427.152	1467.179	1493.6706	1500.3112	1601.8631	1697.6479	1874.5876	3014.0762	3039.2162	3055.7724	3113.7606	3129.7625	3132.4589
CCC1=NOC(=O)N=C1	CCc1noc(=O)nc1	
InChI=1S/C5H6N2O2/c1-2-4-3-6-5(8)9-7-4/h3H,2H2,1H3	InChI=1S/C5H6N2O2/c1-2-4-3-6-5(8)9-7-4/h3H,2H2,1H3
