15
gdb 65848	2.67131	1.3779	1.2553	2.9568	67.02	-0.2769	-0.0019	0.275	1057.7598	0.110009	-457.767248	-457.75886	-457.757916	-457.800307	31.066	
C	 0.0471114577	 1.5510894435	 0.0063323551	-0.425987
C	 0.0383528913	 0.0342439783	-0.006332231	 0.208775
O	 0.7465662876	-0.4307846775	-1.1451911488	-0.254703
C	 1.3812140041	-1.6379334721	-0.7674368011	-0.237196
C	 1.5381470195	-1.520546998	 0.7436441501	 0.402346
O	 2.1873563293	-2.1831735865	 1.4926534863	-0.317854
O	 0.7735614625	-0.4614999411	 1.1332253286	-0.228482
C	-1.3227821518	-0.5285357338	 0.0328965104	 0.379171
C	-2.4339363677	-0.983232202	 0.0458128063	-0.469597
H	 1.0817301593	 1.8997878653	 0.0125636475	 0.138587
H	-0.4579286793	 1.9222065718	-0.8878979572	 0.14732
H	-0.473628524	 1.9216903484	 0.8910822203	 0.147605
H	 0.7788893407	-2.5245653668	-1.0108525502	 0.143654
H	 2.3505484537	-1.714720555	-1.2631892981	 0.15415
H	-3.4171305329	-1.3868454145	 0.0608154017	 0.212209
82.7183	127.9978	188.959	203.6824	223.1943	311.0793	413.5994	472.2787	514.6768	554.6312	578.751	633.754	670.7661	678.6245	685.0474	804.6322	861.2956	906.9801	945.667	1028.687	1072.5474	1114.0521	1187.1357	1208.5757	1222.1977	1253.2773	1345.2505	1407.6254	1476.5837	1478.974	1489.2946	1907.8358	2239.4867	3018.1324	3062.8927	3120.3964	3149.206	3152.833	3495.2183
CC1(OCC(=O)O1)C#C	C[C@]1(OCC(=O)O1)C#C	
InChI=1S/C6H6O3/c1-3-6(2)8-4-5(7)9-6/h1H,4H2,2H3	InChI=1S/C6H6O3/c1-3-6(2)8-4-5(7)9-6/h1H,4H2,2H3/t6-/m1/s1
