15
gdb 102009	2.15691	1.37863	0.95685	2.2893	70.38	-0.2572	-0.0753	0.1819	1218.197	0.107148	-457.723918	-457.71396	-457.713016	-457.759712	33.503	
C	-0.7585802238	 1.0062601238	 0.0181705546	-0.248481
O	 0.3505069676	 0.1625258188	 0.2843992905	-0.228569
C	 0.9010490183	-0.4575034717	-0.8340698559	-0.081801
C	 2.2694121063	-1.0007833435	-0.3945261046	 0.138935
O	 3.0938865543	-1.4528842319	-1.1384189671	-0.228755
C	 0.0203648449	-1.6097783866	-1.3780822617	 0.188052
O	-0.9673817617	-1.9811757386	-0.7889462455	-0.272486
C	 0.4552715515	-2.1815596298	-2.6328181145	 0.305304
C	 0.8137084258	-2.6396767747	-3.6862551871	-0.412506
H	-0.4921286824	 1.7900111365	-0.7066169682	 0.109515
H	-1.6169803787	 0.4397736669	-0.356985568	 0.139415
H	-1.0256325774	 1.4768859736	 0.9662169418	 0.138176
H	 1.0781783553	 0.2427342281	-1.6687568835	 0.11477
H	 2.4095016517	-0.9241452773	 0.704156503	 0.11514
H	 1.1345392583	-3.0504120736	-4.6131048237	 0.223291
48.8073	83.7114	117.9919	128.6119	173.9413	187.4416	218.6382	260.5402	306.2535	443.0488	452.0988	544.2131	606.7247	656.6405	706.2847	724.4629	784.6526	995.8551	1016.3966	1049.087	1088.4106	1173.6831	1179.6724	1217.6646	1243.2502	1331.3462	1393.6316	1480.4487	1485.2701	1509.9237	1772.8088	1843.513	2214.3847	2922.8697	2965.9696	2995.5769	3081.4574	3133.7631	3493.3769
COC(C=O)C(=O)C#C	CO[C@@H](C=O)C(=O)C#C	
InChI=1S/C6H6O3/c1-3-5(8)6(4-7)9-2/h1,4,6H,2H3	InChI=1S/C6H6O3/c1-3-5(8)6(4-7)9-2/h1,4,6H,2H3/t6-/m0/s1
