18
gdb 99391	5.73829	0.60004	0.5794	3.0878	71.1	-0.2482	-0.0262	0.222	1879.5576	0.145159	-476.270445	-476.259892	-476.258948	-476.308417	34.659	
C	 0.023700181	 1.0446528455	 0.6208003026	-0.233876
O	-0.1479902341	-0.0602629283	-0.2707916765	-0.265368
C	-1.3225914865	-0.7213913254	-0.1313949488	 0.524186
O	-2.1836067426	-0.4398452381	 0.6743517597	-0.420306
N	-1.400283428	-1.7371213653	-1.0359526504	-0.358902
C	-2.5047530513	-2.6746798847	-1.0047062572	-0.169658
C	-2.3706184802	-3.7430399394	 0.1027138093	-0.271755
C	-3.6021789474	-4.613621546	 0.1862543442	 0.155587
O	-3.6150312097	-5.8071932063	 0.0269269988	-0.235537
H	 1.0062622954	 1.4579934086	 0.3915857655	 0.131635
H	-0.751883102	 1.7980083399	 0.460909491	 0.140641
H	-0.0168276115	 0.7150553603	 1.6621590991	 0.139522
H	-0.5714085967	-1.9559993982	-1.5632658142	 0.257135
H	-3.4223308976	-2.1004483478	-0.8478074594	 0.143512
H	-2.5718497821	-3.15224121	-1.986407911	 0.122834
H	-1.4949707098	-4.3776436922	-0.0588599514	 0.116204
H	-2.2630337648	-3.2120761669	 1.0571975784	 0.144261
H	-4.5427677021	-4.0562449857	 0.4065812803	 0.079887
37.4975	51.5688	67.9044	80.1071	95.3556	152.202	222.5836	269.7707	313.2833	365.2172	432.8818	518.2389	559.5642	686.1371	776.7993	787.1622	850.0324	943.967	980.9573	1038.3296	1087.0168	1136.3314	1169.6426	1182.8949	1214.8949	1223.9395	1270.5657	1283.2131	1343.4155	1407.7346	1430.8547	1461.7481	1467.5772	1479.7478	1481.2462	1500.5424	1544.9189	1808.3197	1834.8484	2859.543	3036.022	3050.5359	3060.4141	3099.2898	3118.8347	3124.389	3155.1744	3654.2692
COC(=O)NCCC=O	COC(=O)NCCC=O	
InChI=1S/C5H9NO3/c1-9-5(8)6-3-2-4-7/h4H,2-3H2,1H3,(H,6,8)	InChI=1S/C5H9NO3/c1-9-5(8)6-3-2-4-7/h4H,2-3H2,1H3,(H,6,8)
