20
gdb 104640	2.57559	1.22357	0.98279	1.4013	82.84	-0.2131	0.0356	0.2487	1296.96	0.167742	-403.070598	-403.060701	-403.059757	-403.105155	36.433	
C	 0.0089375701	 1.4018573712	 0.0838266912	-0.254806
O	-0.0782364509	-0.0009558605	-0.0818038864	-0.27785
C	 0.6041751237	-0.5179919092	-1.2046651466	 0.232664
C	 2.1588526779	-0.6056353437	-1.0271929254	-0.226113
N	 2.0029699483	-1.9888476103	-0.5498428618	-0.068759
C	 2.9697747605	-2.9750542342	-0.9707573735	-0.321299
C	 0.6356163772	-2.0673699838	-1.0906894961	-0.211533
C	 0.123201781	 0.0437606341	-2.4624353215	 0.311439
C	-0.2718522281	 0.5071103668	-3.4994719306	-0.491572
H	 1.0481351865	 1.7376836964	 0.2094474913	 0.106945
H	-0.4329560319	 1.9393014364	-0.764936936	 0.121354
H	-0.548688545	 1.6404721147	 0.9919131006	 0.13017
H	 2.681369525	-0.51993007	-1.9922310662	 0.094106
H	 2.60964983	 0.085104457	-0.3067791535	 0.109312
H	 3.9509953624	-2.7376757228	-0.5459874664	 0.121655
H	 2.6768530838	-3.9635391594	-0.6012101046	 0.122736
H	 3.0798126463	-3.0394599372	-2.0711994712	 0.089267
H	-0.1124034905	-2.4897781439	-0.4130104717	 0.118789
H	 0.5689089441	-2.5527060513	-2.0758020235	 0.094768
H	-0.6225744505	 0.9112374797	-4.417027668	 0.198728
74.8039	116.5658	165.3386	170.3775	191.902	230.3891	256.1382	305.7719	336.5364	394.407	424.8961	497.9133	562.1566	623.7254	630.1041	664.5735	739.7264	864.791	934.8274	941.7686	1002.2397	1052.1626	1076.8421	1112.6328	1131.1868	1143.7584	1181.4219	1184.3068	1217.9355	1232.4617	1245.8002	1277.3178	1297.878	1343.6894	1451.6245	1476.1547	1483.7363	1485.2026	1489.0468	1499.0228	1509.155	1514.7128	2228.6834	2915.1289	2981.9491	2994.1536	2997.1674	3055.1134	3055.5303	3065.146	3079.9318	3097.7872	3124.6774	3500.0771
COC1(CN(C)C1)C#C	COC1(CN(C)C1)C#C	
InChI=1S/C7H11NO/c1-4-7(9-3)5-8(2)6-7/h1H,5-6H2,2-3H3	InChI=1S/C7H11NO/c1-4-7(9-3)5-8(2)6-7/h1H,5-6H2,2-3H3
