17
gdb 66002	2.31445	1.55395	1.39911	4.2869	67.56	-0.2514	-0.0036	0.2478	1018.5852	0.136609	-455.123594	-455.115123	-455.114178	-455.157003	31.243	
N	 0.2439591156	 1.5402842168	-0.7675410621	-0.547541
C	-0.0143970523	 0.2054494476	-0.2814891161	 0.058874
C	 0.889714827	-0.9953252397	-0.7123391577	-0.121232
O	 1.3251886609	-1.1697180519	 0.674444765	-0.240765
C	 0.5990616369	-0.0931973215	 1.1057509401	 0.442521
O	 0.5292190661	 0.3529298446	 2.2064317745	-0.333047
C	-1.5018714997	-0.0804889878	-0.3533627395	-0.023021
C	-2.2107335137	-0.877487875	 0.680744111	-0.253683
N	-2.4262401321	 0.574282956	 0.5729884683	-0.31145
H	 1.2351084666	 1.7251083242	-0.8796220708	 0.238001
H	-0.2129657818	 1.7016147304	-1.6589258372	 0.239046
H	 0.3867519455	-1.8944587648	-1.0738658054	 0.126321
H	 1.7361671998	-0.7350410625	-1.3526508008	 0.116238
H	-1.8695338988	-0.1297325686	-1.3797326779	 0.095057
H	-3.0584884932	-1.4915495112	 0.3908456507	 0.120189
H	-1.6460356931	-1.2567881281	 1.5273497063	 0.137873
H	-1.8933563339	 1.0557421116	 1.2956198517	 0.25662
64.5693	122.1306	146.6487	224.1838	232.1962	300.0618	343.6562	405.6608	460.4207	554.6471	687.6135	736.849	772.7695	803.2709	840.3864	877.168	928.4655	944.7957	967.6366	986.2238	1020.4654	1066.7138	1123.4012	1131.2996	1154.0533	1156.1826	1208.7202	1226.2789	1268.7672	1312.6198	1316.0474	1372.5953	1413.7469	1508.2642	1514.6589	1658.8686	1925.0415	3063.5114	3087.9851	3116.3537	3130.8027	3201.3521	3492.9602	3503.1242	3591.0759
NC1(COC1=O)C1CN1	N[C@]1(COC1=O)[C@H]1CN1	
InChI=1S/C5H8N2O2/c6-5(3-1-7-3)2-9-4(5)8/h3,7H,1-2,6H2	InChI=1S/C5H8N2O2/c6-5(3-1-7-3)2-9-4(5)8/h3,7H,1-2,6H2/t3-,5-/m1/s1
