15
gdb 29369	3.41551	1.2331	0.90904	5.9603	75.74	-0.2162	-0.0393	0.1769	1200.6717	0.1134	-453.975323	-453.96692	-453.965976	-454.008216	31.138	
N	 0.0966563452	 1.4281077285	 0.0777538341	-0.62058
C	 0.0256774575	 0.0233884863	-0.001101342	 0.162819
C	-1.0435471914	-0.8259885904	 0.0134716423	-0.066815
O	-0.6529707161	-2.1154756543	 0.0028750422	-0.17678
C	 0.7230654158	-2.1223204703	-0.0337413316	 0.224463
C	 1.4269765106	-3.3745314066	-0.0495082262	 0.061413
O	 0.9340066459	-4.4847931156	-0.04033626	-0.303152
C	 1.1856354069	-0.8167754541	-0.0268314378	 0.131976
N	 2.4709836174	-0.3141732408	-0.0871620406	-0.617146
H	 0.5239379955	 1.8319626215	-0.7503116992	 0.252802
H	-0.8133567748	 1.8535013353	 0.2049170282	 0.248683
H	-2.1073832222	-0.6500019136	 0.0468314424	 0.137726
H	 2.535215208	-3.2384574483	-0.0714907006	 0.04478
H	 3.2069430298	-0.9568398113	 0.1660513075	 0.259149
H	 2.5654945119	 0.5755404837	 0.3869251914	 0.26066
104.4132	161.0452	177.6011	217.7821	249.2747	331.0236	358.7427	389.2617	403.3901	534.423	609.2755	631.3162	678.49	730.4381	752.1217	773.8758	809.3593	827.4086	953.4763	1005.9305	1134.0321	1173.8412	1211.3622	1237.9355	1331.9356	1343.6012	1424.4935	1497.59	1594.0355	1629.5417	1654.0258	1683.3013	1772.5499	2828.428	3262.8295	3502.6589	3542.3677	3601.2107	3652.4742
NC1=COC(C=O)=C1N	Nc1coc(C=O)c1N	
InChI=1S/C5H6N2O2/c6-3-2-9-4(1-8)5(3)7/h1-2H,6-7H2	InChI=1S/C5H6N2O2/c6-3-2-9-4(1-8)5(3)7/h1-2H,6-7H2
