18
gdb 31173	2.17383	1.41872	0.91635	5.6686	83.09	-0.2197	-0.0242	0.1955	1275.9654	0.148385	-402.011362	-402.002608	-402.001664	-402.045569	32.035	
C	-0.233119036	 1.5639566511	-0.0512869039	-0.367378
C	 0.0619861477	 0.0532460749	 0.0191480227	-0.305458
C	 0.8060070307	-0.4659551744	-1.1724527559	 0.236402
C	 2.1584822698	-0.7329381605	-1.3824810022	 0.10936
C	 3.2279137228	-0.5997107593	-0.4079525495	 0.067405
O	 4.4001694355	-0.8304610176	-0.6259647076	-0.297009
C	 2.3090848042	-1.168904666	-2.7390567001	-0.235724
C	 1.0698787538	-1.1544044936	-3.3102153876	-0.078017
N	 0.1697360323	-0.7250682581	-2.3514082788	-0.294806
H	 0.6960553056	 2.137514071	-0.1116887215	 0.13386
H	-0.8339431975	 1.8116656446	-0.9322389592	 0.114688
H	-0.7833240513	 1.8918387458	 0.835849942	 0.120141
H	 0.6416178578	-0.1621622553	 0.9208573161	 0.128476
H	-0.8815317176	-0.4979288565	 0.1267160788	 0.10762
H	 2.9028777646	-0.2579744684	 0.601720103	 0.047094
H	 3.2395998611	-1.4556581211	-3.2015059612	 0.123711
H	 0.7357334513	-1.4124862126	-4.3021130458	 0.127459
H	-0.8217300849	-0.629580074	-2.4954842994	 0.262176
38.3274	136.3492	156.2827	179.2251	225.3201	263.4744	328.4434	385.9167	529.7784	539.6408	617.1614	642.9448	703.8254	746.8468	782.7413	791.423	866.2381	916.853	965.0109	1031.3079	1034.3318	1074.9088	1081.8763	1111.2107	1162.2583	1255.3813	1291.0151	1337.1377	1353.3461	1406.6798	1412.498	1444.9874	1476.915	1492.7988	1496.2131	1505.4158	1526.1669	1605.6328	1777.0801	2856.75	3023.5803	3038.7861	3086.7077	3111.3365	3120.3604	3260.5459	3280.3268	3662.0729
CCC1=C(C=O)C=CN1	CCc1c(C=O)cc[nH]1	
InChI=1S/C7H9NO/c1-2-7-6(5-9)3-4-8-7/h3-5,8H,2H2,1H3	InChI=1S/C7H9NO/c1-2-7-6(5-9)3-4-8-7/h3-5,8H,2H2,1H3
