21
gdb 103199	2.9263	1.49578	1.26146	1.2015	80.89	-0.2409	0.0693	0.3102	1092.4169	0.182456	-387.038294	-387.029919	-387.028975	-387.070894	33.69	
C	-0.1177791274	 1.5682159304	 0.0477389178	-0.401326
C	 0.0078963949	 0.0397205873	 0.0217519818	-0.240486
C	 0.6503640298	-0.5055121076	-1.253998982	 0.442557
O	 2.0110471374	-0.0885620522	-1.346702955	-0.496153
C	 0.6215086521	-2.0030806692	-1.5365384518	-0.097581
C	-0.6795486161	-2.320197384	-2.2941426971	-0.076
C	-1.4525308367	-1.0141429128	-2.4813191079	-0.251118
C	-0.060388602	-0.3495121014	-2.6433820808	-0.130847
C	 0.5231779784	-1.7723637098	-3.0209312496	-0.074753
H	 0.862498167	 2.0562102292	 0.0026288285	 0.10856
H	-0.716098774	 1.9358003799	-0.7934748223	 0.118683
H	-0.6002276412	 1.9079070736	 0.9688180922	 0.118403
H	 0.6218367735	-0.2954957735	 0.8663777646	 0.101827
H	-0.9796555319	-0.4121728244	 0.1575804156	 0.100427
H	 2.0169825625	 0.8684134794	-1.4514395981	 0.27424
H	 1.1771932117	-2.7739744212	-1.017486398	 0.084597
H	-1.0635557486	-3.3324431965	-2.3186071299	 0.083788
H	-2.0013762628	-1.0227857755	-3.4277913638	 0.097905
H	-2.1127413183	-0.6512054971	-1.6859932455	 0.087657
H	 0.0675337792	 0.5723092488	-3.2098756106	 0.059788
H	 1.1091632624	-2.1419692235	-3.848313558	 0.089831
78.5215	170.5713	202.8612	245.3806	279.3428	323.7903	392.142	418.1276	476.4391	536.6425	631.7834	744.5812	779.1797	792.1073	799.0751	816.1665	859.7361	917.0015	934.6116	956.8585	987.1557	999.013	1005.4957	1027.066	1032.8876	1049.8011	1061.3659	1102.1953	1128.6134	1157.0324	1175.5269	1179.9549	1205.8959	1214.7763	1261.7178	1291.7657	1307.6202	1341.0097	1368.3996	1402.2252	1413.2363	1476.7406	1500.0275	1510.4278	1512.6905	3029.9188	3033.8716	3040.0967	3074.4833	3087.9949	3098.9669	3104.8206	3119.7069	3188.7118	3197.2053	3234.4109	3811.1968
CCC1(O)C2C3CC1C23	CC[C@@]1(O)[C@H]2[C@H]3C[C@@H]1[C@@H]23	
InChI=1S/C8H12O/c1-2-8(9)5-3-4-6(5)7(4)8/h4-7,9H,2-3H2,1H3	InChI=1S/C8H12O/c1-2-8(9)5-3-4-6(5)7(4)8/h4-7,9H,2-3H2,1H3/t4-,5+,6-,7-,8-/m0/s1
