21
gdb 38200	3.1705	1.73484	1.41074	0.1309	86.92	-0.2313	0.0198	0.2511	991.0836	0.186984	-349.949022	-349.942423	-349.941479	-349.979483	29.065	
C	 0.0310043277	 1.6673354489	 0.0803032492	-0.254374
C	 1.5483210705	 1.3516048562	 0.0432634464	-0.015968
C	 1.1884544009	 0.0891645558	 0.9060494525	-0.310804
C	-0.0809462744	 0.105920634	 0.0109360464	 0.37744
C	-1.4066323167	-0.5824492494	-0.0337740721	-0.245305
C	-1.7639655304	-0.7697831805	-1.3113295934	-0.05844
C	-0.6934952598	-0.3015175524	-2.2952689615	-0.327694
C	 0.5340088765	-0.2263009845	-1.3695065258	 0.04422
C	 1.6908058205	 0.8099436831	-1.4057207764	-0.266198
H	-0.3047021812	 2.0592657659	 1.0436339712	 0.091103
H	-0.398588199	 2.2558193015	-0.7358688554	 0.087161
H	 2.2917118244	 2.0726107442	 0.3858155735	 0.057187
H	 1.8390514506	-0.7893172538	 0.8495326949	 0.086878
H	 1.0037018106	 0.3567473015	 1.9495340978	 0.092981
H	-2.0279587801	-0.7953235059	 0.82868291	 0.089617
H	-2.7226033485	-1.1603244117	-1.637509736	 0.089675
H	-0.56228883	-0.983773976	-3.1417186659	 0.099072
H	-0.9654982149	 0.676168477	-2.7194252577	 0.104202
H	 0.9483197227	-1.2400222097	-1.3142815849	 0.07236
H	 1.5444301478	 1.6080348568	-2.141176179	 0.096082
H	 2.6626692428	 0.348570559	-1.6028890437	 0.090806
192.4609	241.0319	370.1599	400.5323	463.9468	506.1397	541.2979	606.4146	631.9899	734.602	799.3587	808.3586	828.9168	867.7962	884.3526	917.4429	924.4501	942.1697	964.4332	964.935	998.1936	1005.3085	1029.7769	1081.7145	1087.7008	1108.9003	1112.3616	1134.0509	1171.0693	1192.0555	1203.4453	1224.7738	1256.5679	1262.4074	1264.5579	1278.212	1315.6552	1328.9429	1369.7394	1395.9691	1482.7581	1488.9872	1495.0878	1524.7857	1642.2846	3002.9411	3024.6776	3044.235	3045.073	3053.9298	3065.2955	3089.9386	3104.5339	3107.4246	3113.8606	3175.8613	3202.8165
C1C2CC11C=CCC1C2	C1[C@H]2C[C@]31C=CC[C@H]3C2	
InChI=1S/C9H12/c1-2-8-4-7-5-9(8,3-1)6-7/h1,3,7-8H,2,4-6H2	InChI=1S/C9H12/c1-2-8-4-7-5-9(8,3-1)6-7/h1,3,7-8H,2,4-6H2/t7-,8-,9+/m0/s1
