21
gdb 36864	4.45313	0.8584	0.76225	1.8531	85.87	-0.2237	0.0228	0.2465	1530.3003	0.183033	-387.079446	-387.070582	-387.069638	-387.114153	32.693	
C	 0.0102741258	 1.4432621412	-0.3693255667	-0.340829
C	-0.0673190781	-0.0486496459	-0.081353204	 0.037165
C	-0.3382319074	-0.5502969964	 1.3158190512	-0.251647
C	-1.3925245958	-0.6865228915	 0.244399996	-0.27998
C	 1.3824648145	 2.0214756839	-0.1875640626	 0.32527
C	 2.1450051874	 2.6437212774	-1.0833684235	-0.218995
C	 3.4390169421	 3.0779717584	-0.4594876025	-0.100874
O	 3.3636299079	 2.6437224472	 0.8962964343	-0.266
C	 2.1230512907	 1.9853652778	 1.1282799069	-0.146854
H	-0.3305175874	 1.6414037187	-1.392559743	 0.104957
H	-0.6959641657	 1.9596352105	 0.2980123398	 0.101297
H	 0.6167519769	-0.6480708399	-0.6763658489	 0.087637
H	 0.1728453867	-1.4444083201	 1.6550176448	 0.113496
H	-0.50470571	 0.1867740144	 2.094999708	 0.111837
H	-2.2627685353	-0.0407859692	 0.3062600846	 0.1109
H	-1.6019691542	-1.6740959523	-0.1511943893	 0.112603
H	 1.8929772817	 2.8342768373	-2.1196549878	 0.09524
H	 4.3185735509	 2.6268237779	-0.9471880015	 0.101066
H	 3.5791394229	 4.1707865414	-0.495588967	 0.10094
H	 1.565461472	 2.5019816955	 1.9277864578	 0.095455
H	 2.3048012642	 0.9578645737	 1.4786292235	 0.107317
50.9177	77.7417	104.9779	124.4882	271.081	275.0533	320.1786	392.9274	487.2085	657.6989	768.698	780.9552	803.3632	817.0244	840.1165	897.5455	910.9484	927.0858	943.29	972.059	1011.8096	1024.2575	1057.0257	1061.9075	1080.7643	1109.4623	1132.7484	1145.2148	1175.6429	1198.1716	1209.242	1223.0976	1225.9097	1246.5792	1306.1365	1333.305	1371.7616	1394.9828	1405.6201	1466.6351	1476.6863	1505.5913	1517.0353	1530.3522	1728.0599	2958.1857	2966.8031	2977.5373	2992.5931	2995.9493	3052.2978	3128.1894	3132.5566	3141.5919	3206.3886	3207.2008	3221.5206
C(C1CC1)C1=CCOC1	C(C1CC1)C1=CCOC1	
InChI=1S/C8H12O/c1-2-7(1)5-8-3-4-9-6-8/h3,7H,1-2,4-6H2	InChI=1S/C8H12O/c1-2-7(1)5-8-3-4-9-6-8/h3,7H,1-2,4-6H2
