23
gdb 116449	2.62939	1.20444	0.96208	1.7066	81.31	-0.2462	0.078	0.3242	1328.804	0.20709	-425.440452	-425.431206	-425.430262	-425.474224	35.833	
C	-0.0760974252	 1.5623555605	 0.1134868114	-0.394345
C	-0.0300582301	 0.0353613286	 0.0015299223	-0.18115
C	 0.7280460517	-0.4951447916	-1.2240717284	 0.021671
C	 2.214206981	-0.0890847985	-1.2538743852	-0.221988
C	 2.9459879143	-0.760323645	-2.4187245803	-0.083526
O	 2.7752170334	-2.1738315248	-2.4125424257	-0.257613
C	 1.4046268896	-2.5294961495	-2.5438515734	-0.121297
C	 0.6288309993	-2.0351184665	-1.3220899514	 0.120807
O	 1.1297435626	-2.6752238907	-0.1527857816	-0.445037
H	 0.9203046749	 1.9935916189	 0.2519464651	 0.116492
H	-0.5120068485	 2.016304795	-0.7842657709	 0.109496
H	-0.685381109	 1.8710842185	 0.9686342992	 0.113399
H	 0.418343378	-0.3973110194	 0.9025863421	 0.1121
H	-1.0571905593	-0.3512598734	-0.0377235949	 0.089338
H	 0.2472362004	-0.0910740228	-2.1292479381	 0.061624
H	 2.3246644455	 0.9969379776	-1.3397810118	 0.099669
H	 2.6901300002	-0.3843467592	-0.3101248972	 0.103017
H	 2.5829192296	-0.352797139	-3.3777388114	 0.088298
H	 4.0243704521	-0.5847155596	-2.366364593	 0.108194
H	 0.9829500747	-2.112310381	-3.4728486964	 0.087776
H	 1.373013145	-3.6212313348	-2.6012673138	 0.112617
H	-0.4243928503	-2.3301889498	-1.4068967503	 0.074644
H	 2.0842066002	-2.7485358935	-0.2770211964	 0.285816
87.5436	128.6465	164.7334	197.3592	234.857	300.1804	321.0756	349.9435	419.5323	430.1018	442.4062	539.3584	599.3602	707.5715	764.5433	812.6877	862.0873	885.6514	927.0017	930.6456	996.5986	1020.8315	1023.7087	1038.1368	1071.2123	1098.7933	1119.4601	1170.2821	1178.8827	1221.0696	1240.3018	1266.8638	1281.0242	1315.2024	1330.1289	1339.5135	1349.0227	1375.6897	1389.1381	1397.918	1414.7288	1419.4712	1427.961	1482.5367	1486.3939	1490.7763	1501.356	1503.5702	1508.1219	2962.8286	2973.3379	2983.3555	3019.4662	3029.0722	3031.1619	3036.6018	3068.2045	3079.9956	3085.1205	3091.0512	3097.37	3104.0042	3776.4488
CCC1CCOCC1O	CC[C@H]1CCOC[C@H]1O	
InChI=1S/C7H14O2/c1-2-6-3-4-9-5-7(6)8/h6-8H,2-5H2,1H3	InChI=1S/C7H14O2/c1-2-6-3-4-9-5-7(6)8/h6-8H,2-5H2,1H3/t6-,7+/m0/s1
