20
gdb 117135	2.46227	0.90284	0.85686	2.4304	78.31	-0.2495	-0.0316	0.2179	1509.2092	0.167962	-440.308811	-440.298109	-440.297165	-440.346042	36.753	
C	 0.5532699258	 0.1180302318	 1.3585375517	-0.392365
C	-0.1080988508	-0.1348072224	 0.0173954364	-0.033601
O	-1.0341731636	-1.2231768236	 0.1892239211	-0.247782
C	-1.7427459299	-1.5986766951	-0.8932993785	 0.397227
N	-1.5954736491	-1.0273118472	-2.0167850503	-0.54133
C	-2.6856687021	-2.7371217056	-0.5390099878	-0.150521
C	-1.921930122	-3.9522345638	 0.0329076707	-0.40908
C	-3.7135704742	-2.2789115923	 0.4914930122	 0.16224
O	-4.8999890555	-2.4330532782	 0.3695944536	-0.245723
H	 1.2684224316	 0.9410139478	 1.269047123	 0.124544
H	-0.18793333	 0.3876835354	 2.116367748	 0.128214
H	 1.0915910666	-0.7693143947	 1.7038346589	 0.127372
H	-0.6546992807	 0.7409378903	-0.3466026032	 0.124448
H	 0.6166155056	-0.4071913751	-0.7564304792	 0.123215
H	-2.2182166666	-1.4315632412	-2.7126137819	 0.226303
H	-3.2377202419	-3.0290613755	-1.4356967667	 0.101642
H	-1.4077386759	-3.6866964858	 0.9595108252	 0.14239
H	-2.6146981552	-4.7733532077	 0.2358262501	 0.134095
H	-1.1729198814	-4.2999698673	-0.6839061572	 0.134199
H	-3.2740269607	-1.8034588698	 1.3945563139	 0.094511
39.049	56.138	84.0157	112.2779	138.2221	215.3658	230.4151	273.6265	277.5205	304.1313	378.4256	435.1939	501.6573	674.2038	712.3765	806.4386	857.0561	859.7342	897.5066	923.2656	956.3415	1030.485	1084.4	1100.482	1111.8946	1137.4381	1150.2716	1183.2317	1275.761	1290.3484	1322.113	1355.4136	1396.5042	1404.0741	1417.0054	1435.1004	1485.7359	1494.6096	1496.6335	1500.9304	1520.683	1720.1054	1833.3288	2907.0637	3045.4803	3048.2399	3052.1498	3087.3852	3088.54	3120.6643	3121.3456	3124.1637	3135.4962	3516.7519
CCOC(=N)C(C)C=O	CCO[C]([NH])[C@@H](C)C=O	
InChI=1S/C6H11NO2/c1-3-9-6(7)5(2)4-8/h4-5,7H,3H2,1-2H3	InChI=1S/C6H11NO2/c1-3-9-6(7)5(2)4-8/h4-5,7H,3H2,1-2H3/t5-/m0/s1
