23
gdb 58647	1.79605	1.45427	1.12627	0.8528	92.48	-0.2363	0.0561	0.2924	1286.9944	0.202567	-351.123233	-351.112466	-351.111522	-351.158251	40.71	
C	-0.5733306689	 0.2730979764	-2.8018954124	-0.394484
C	-0.28778813	-0.5602168903	-1.5441541732	-0.03644
C	 0.8041519316	 0.0874540685	-0.6812611489	-0.398256
C	-1.57317017	-0.8013856224	-0.739480447	 0.143613
C	-2.5104022078	-1.9242870853	-1.1747549539	-0.335076
C	-1.7518549706	-2.0621705972	 0.1143990041	-0.036334
C	-0.67353274	-3.1074926519	 0.2981298582	-0.419755
C	-2.199381732	 0.3903724664	-0.2240165515	 0.302355
C	-2.7169930088	 1.388123753	 0.2077303384	-0.472062
H	 0.3385327655	 0.4063628458	-3.3928551084	 0.106401
H	-1.3225920794	-0.2102651555	-3.4368574245	 0.111538
H	-0.9514094331	 1.2645806346	-2.5331747556	 0.128521
H	 0.0742228879	-1.5411354787	-1.8725881525	 0.068559
H	 1.721610855	 0.2325580432	-1.2608285529	 0.107184
H	 0.4772234316	 1.0655725048	-0.3142176167	 0.129037
H	 1.0468809242	-0.5316537179	 0.1878104596	 0.112839
H	-3.5778942914	-1.7405664609	-1.1443722623	 0.121099
H	-2.1790363188	-2.5227302709	-2.0186350496	 0.110925
H	-2.3415337637	-1.8866691423	 1.0096461893	 0.096921
H	-0.1151394701	-3.2982856533	-0.6219507571	 0.120796
H	 0.0431738832	-2.8152215259	 1.0729728914	 0.123728
H	-1.1236520812	-4.0578424349	 0.6064900975	 0.120662
H	-3.1761580634	 2.2659670846	 0.5892635081	 0.188231
78.0886	136.9571	148.0834	158.5516	198.0887	221.2118	226.0124	250.5987	325.8923	338.4028	358.1506	453.2853	474.2424	554.888	562.8432	586.1107	644.167	646.0928	797.8419	859.6164	893.7121	911.8936	932.2036	939.1476	968.4325	1014.4765	1048.4363	1069.3098	1102.9514	1129.41	1139.4148	1191.245	1196.5078	1258.2329	1289.3848	1343.8525	1361.7727	1397.7582	1405.4024	1419.4823	1426.3993	1483.1175	1485.4519	1491.0158	1493.7728	1500.42	1502.7474	1513.1262	2224.4271	3031.2211	3032.7581	3036.3607	3038.7219	3089.5048	3101.789	3105.1005	3107.4563	3110.5741	3112.8197	3125.6071	3150.265	3218.5163	3503.1288
CC(C)C1(CC1C)C#C	CC(C)[C@]1(C[C@H]1C)C#C	
InChI=1S/C9H14/c1-5-9(7(2)3)6-8(9)4/h1,7-8H,6H2,2-4H3	InChI=1S/C9H14/c1-5-9(7(2)3)6-8(9)4/h1,7-8H,6H2,2-4H3/t8-,9-/m1/s1
