25
gdb 102587	2.05105	1.11948	0.7742	1.3936	89.32	-0.2611	0.0791	0.3402	1560.7557	0.228323	-389.480127	-389.46948	-389.468536	-389.516219	39.248	
C	-1.5329277114	-0.0239591322	-0.0619459756	-0.390827
C	-0.0120011829	-0.1307166527	 0.0906977403	-0.175339
C	 0.750259284	-0.6186633566	-1.1579844105	 0.005066
C	 2.2394243152	-0.281311033	-1.0258878631	-0.08998
O	 2.3822596922	 1.132686605	-0.9675804599	-0.423009
C	 0.5875649107	-2.1141562242	-1.4394575727	 0.062029
C	-0.7710616604	-2.6929417579	-1.9379697614	-0.227896
C	 0.0178911504	-3.6607800077	-2.8572271054	-0.23067
C	 1.2462432966	-2.7248642723	-2.7138482867	-0.230277
H	-1.7985068005	 0.6230696839	-0.9056152797	 0.11276
H	-2.006501874	-0.9953057842	-0.2275095708	 0.118363
H	-1.9810853129	 0.410053496	 0.8379615202	 0.106863
H	 0.385966647	 0.8544269661	 0.3531041361	 0.114668
H	 0.2288009205	-0.7952572651	 0.9328835412	 0.081696
H	 0.3806525103	-0.0600218937	-2.0313120449	 0.070069
H	 2.6432614271	-0.7579207021	-0.1163848455	 0.079287
H	 2.7924642438	-0.6910912815	-1.8842120701	 0.087219
H	 3.3097923599	 1.3350956979	-0.8169865505	 0.285047
H	 0.9162343686	-2.6825410039	-0.5586745835	 0.063673
H	-1.4466829587	-3.1279660634	-1.1973524893	 0.09489
H	-1.326453453	-1.9515132308	-2.5210720559	 0.1006
H	 0.1890591778	-4.6277673387	-2.3750252517	 0.09974
H	-0.3716065205	-3.840186711	-3.8620960548	 0.094546
H	 1.285114189	-1.9902707896	-3.5258992664	 0.099629
H	 2.2333087711	-3.184416448	-2.6161422995	 0.091856
58.4836	92.6441	101.4344	149.5512	162.1463	217.0403	226.0149	256.7913	285.3491	346.0089	381.2585	449.616	505.4684	642.1628	746.7536	784.9888	816.025	844.3203	900.4669	936.6335	950.3629	975.1854	983.2731	997.2112	1034.0723	1039.583	1067.9657	1097.0554	1107.6073	1163.4714	1184.2184	1202.8596	1223.8356	1253.4427	1255.3018	1262.981	1264.8753	1273.8867	1293.0218	1294.4276	1330.3454	1340.2882	1386.2786	1394.7017	1412.4832	1454.5731	1476.3762	1486.4033	1492.0959	1500.9617	1506.9607	1512.156	1518.8227	2957.098	2988.84	3003.2089	3006.1109	3018.6597	3034.3006	3040.7171	3050.0676	3056.4941	3076.181	3091.741	3093.9808	3098.7854	3115.0972	3116.7733	3833.8789
CCC(CO)C1CCC1	CC[C@@H](CO)C1CCC1	
InChI=1S/C8H16O/c1-2-7(6-9)8-4-3-5-8/h7-9H,2-6H2,1H3	InChI=1S/C8H16O/c1-2-7(6-9)8-4-3-5-8/h7-9H,2-6H2,1H3/t7-/m0/s1
