18
gdb 110535	3.67323	1.21378	1.13595	2.5749	71.93	-0.2129	0.0658	0.2786	1133.0272	0.147516	-438.98505	-438.976952	-438.976008	-439.017816	31.099	
C	 0.0992279843	 1.1911068976	 0.3252601856	-0.238462
O	-0.0261744596	-0.0727767067	-0.2855083507	-0.243346
C	-1.280328788	-0.6535966405	-0.103962461	 0.226503
C	-1.4457359553	-2.0786868288	-0.5839049758	-0.179374
C	-1.0578758163	-2.988706084	 0.6083134309	-0.131156
N	-0.566586958	-2.0832392145	 1.6662482663	-0.290873
C	-1.7067387943	-1.184543521	 1.3033684844	-0.211829
C	-2.4352824693	-2.3823431083	 0.5135559591	 0.335794
O	-3.7222445464	-2.8252262387	 0.3654048735	-0.443204
H	 1.088484913	 1.5785486421	 0.0710483386	 0.126412
H	-0.6629662226	 1.8984502419	-0.0403351796	 0.097704
H	 0.0171644781	 1.1272102217	 1.4199533158	 0.110262
H	-2.0796887442	-0.0118197195	-0.5080729123	 0.068323
H	-1.4478365209	-2.4567136248	-1.5974959842	 0.097315
H	-0.6907726947	-3.9948904862	 0.4529769589	 0.09931
H	-0.7902003939	-2.514900021	 2.562240531	 0.211269
H	-2.1060420655	-0.5334169256	 2.0780765892	 0.073568
H	-3.9903983865	-3.2711570237	 1.1771145302	 0.291784
70.0803	148.3872	184.13	243.7934	310.3198	332.6758	382.1016	401.9928	548.3164	593.5704	639.2691	721.111	772.4752	814.7179	881.6829	923.3224	935.6889	982.4923	988.3203	1013.3439	1037.0338	1047.324	1064.6996	1102.1171	1127.8755	1151.3787	1179.1659	1189.671	1230.6879	1235.3672	1258.8028	1312.5828	1323.8959	1351.4594	1397.7931	1476.1245	1485.4012	1491.4056	1506.4505	2969.7903	2980.8795	3025.373	3116.2018	3142.3488	3203.2438	3213.8596	3459.6415	3783.7581
COC1C2C3NC1C23O	CO[C@H]1[C@H]2[C@H]3N[C@@H]1[C@@]23O	
InChI=1S/C6H9NO2/c1-9-3-2-4-6(2,8)5(3)7-4/h2-5,7-8H,1H3	InChI=1S/C6H9NO2/c1-9-3-2-4-6(2,8)5(3)7-4/h2-5,7-8H,1H3/t2-,3-,4+,5-,6+/m0/s1
