19
gdb 22224	2.20724	1.04177	0.85745	2.9835	77.88	-0.2561	-0.0044	0.2517	1425.4291	0.155737	-456.307075	-456.296394	-456.29545	-456.343849	37.096	
C	-0.2321943887	 1.9379240502	 0.2664405182	-0.409836
C	 0.0766297317	 0.4624426712	 0.0387296143	 0.025821
O	 0.9870485379	 0.0728654387	 1.0857796979	-0.195801
C	 1.7204582782	-1.0386607758	 0.8641120032	 0.125021
N	 2.4837303521	-1.4768787368	 1.7686019592	-0.444217
C	-1.1581192883	-0.4138838478	 0.0695657543	 0.367974
C	-1.9749005073	-0.506748862	 1.3266854742	-0.487488
N	-1.4027116304	-1.0301234857	-1.0238203342	-0.176816
O	-2.5714861399	-1.7958272533	-0.9483696983	-0.391243
H	 0.6940712584	 2.5175628811	 0.2474204189	 0.135636
H	-0.898188417	 2.3060383151	-0.5185583933	 0.130385
H	-0.7120231781	 2.0927516498	 1.2364413858	 0.135358
H	 0.5568291263	 0.3274358245	-0.9370318456	 0.101244
H	 1.5770258574	-1.4676037987	-0.1361022168	 0.100602
H	 2.9764956138	-2.3021690842	 1.4331457379	 0.228522
H	-2.8441501109	 0.1591515727	 1.2746187676	 0.144352
H	-2.3559333799	-1.5216713035	 1.4559431936	 0.152989
H	-1.3734025782	-0.2269753101	 2.1935043256	 0.148727
H	-2.5972611971	-2.2159097153	-1.8148083826	 0.30877
50.8215	62.5148	93.6847	98.7704	179.0759	209.3169	220.4767	266.8135	301.3807	351.898	390.5101	433.6427	501.301	573.2033	629.5219	655.9927	794.6842	823.88	911.5288	961.3814	1002.994	1032.6206	1044.6428	1054.9597	1092.329	1116.6477	1151.8691	1278.8488	1294.9061	1331.0632	1359.6908	1399.109	1405.2207	1407.993	1426.2659	1477.1741	1478.9082	1490.6753	1499.235	1727.9312	1744.0874	3036.0891	3043.1569	3050.6775	3051.03	3111.0926	3129.4948	3131.0714	3148.2207	3514.7012	3817.3854
CC(OC=N)C(C)=NO	C[C@@H](O[CH][NH])C(=NO)C	
InChI=1S/C5H10N2O2/c1-4(7-8)5(2)9-3-6/h3,5-6,8H,1-2H3	InChI=1S/C5H10N2O2/c1-4(7-8)5(2)9-3-6/h3,5-6,8H,1-2H3/t5-/m1/s1
