25
gdb 118579	1.70607	0.98244	0.69964	2.1683	86.48	-0.2476	0.0748	0.3223	1768.8909	0.226412	-426.628153	-426.616439	-426.615495	-426.66633	41.348	
C	-0.0701268583	 1.5818611522	 0.0078815047	-0.380263
C	-0.0208507492	 0.0517279175	 0.022886119	-0.169943
C	 0.7920461531	-0.5041940617	 1.1951759244	-0.165177
C	 0.8469243994	-2.0319194946	 1.239439888	 0.080319
C	 1.6669941394	-2.5571082244	 2.4261592506	-0.067117
O	 1.0559899631	-2.2175280098	 3.6557142828	-0.422529
O	-0.4966181142	-2.5112155636	 1.3705825643	-0.269005
C	-0.7381762102	-3.7952072274	 0.8171833689	-0.04129
C	-2.1983846126	-4.147771526	 1.0459263143	-0.385482
H	 0.9347273397	 2.012678621	-0.068763707	 0.111117
H	-0.6566142807	 1.9544003181	-0.8379273944	 0.109286
H	-0.5250845316	 1.9713082765	 0.9254218849	 0.115465
H	-1.0363112961	-0.354420821	 0.0744892156	 0.108933
H	 0.4085284131	-0.3099657069	-0.9217297164	 0.085379
H	 1.8232808672	-0.1305681518	 1.1447006307	 0.091057
H	 0.3811272538	-0.1470159398	 2.146342853	 0.10982
H	 1.2820495536	-2.4120636428	 0.3008333878	 0.062475
H	 1.7949803764	-3.6484503404	 2.3347465447	 0.081142
H	 2.6675914867	-2.1111892312	 2.4213712066	 0.103903
H	 0.1156479088	-2.3991012476	 3.5290101943	 0.284492
H	-0.5071034054	-3.7829920871	-0.2598660235	 0.093296
H	-0.0863578531	-4.5524658398	 1.2792944092	 0.09341
H	-2.4247915188	-4.1828790066	 2.1156300738	 0.124031
H	-2.8502313068	-3.4014611005	 0.583085043	 0.129042
H	-2.4261197574	-5.1262133225	 0.6125793708	 0.117639
48.6635	71.0479	75.1561	92.6402	102.1533	188.3872	207.5593	246.1371	248.166	289.5099	319.1833	343.0338	433.4979	485.0764	515.4477	672.0484	746.4026	817.9867	825.5276	882.9218	893.8101	921.1137	958.5748	993.8098	1049.2357	1078.5701	1091.9018	1105.6216	1132.1245	1148.7901	1185.1785	1190.6751	1229.1256	1259.0151	1281.5837	1295.8282	1323.5878	1342.4967	1362.3456	1383.5247	1402.0073	1405.9989	1412.3591	1428.9748	1443.0137	1479.577	1483.4396	1494.7523	1498.5257	1499.4178	1508.8101	1511.8238	1531.035	2960.9283	2969.431	2982.7189	3004.2861	3013.3407	3024.4285	3028.6172	3044.329	3064.5683	3068.7428	3078.9715	3098.6372	3100.1205	3118.011	3121.2433	3767.7468
CCCC(CO)OCC	CCC[C@@H](CO)OCC	
InChI=1S/C7H16O2/c1-3-5-7(6-8)9-4-2/h7-8H,3-6H2,1-2H3	InChI=1S/C7H16O2/c1-3-5-7(6-8)9-4-2/h7-8H,3-6H2,1-2H3/t7-/m0/s1
