17
gdb 46666	2.75119	1.79718	1.33147	4.0849	72.5	-0.2408	-0.0327	0.2081	966.861	0.136599	-421.750163	-421.74322	-421.742276	-421.781594	27.968	
O	 0.0679279721	 0.0239382013	 0.0989329635	-0.297578
C	 0.0293675716	 1.2214682702	 0.0392224929	 0.270834
C	-1.262710492	 2.1029346333	 0.0163619598	-0.308066
C	-0.8584705014	 3.6025864718	-0.2093711868	-0.303648
C	 0.5523407428	 3.4603953048	-0.8057791717	-0.0126
C	 1.977230634	 3.8007884355	-0.2566329928	-0.006173
C	 1.6253107737	 3.1664360889	 1.0957627068	-0.270448
C	 1.1222172384	 2.2497316541	-0.0734169264	 0.352026
O	 2.4289159946	 2.443090775	-0.730972332	-0.36856
H	-1.8701364512	 1.7258259191	-0.8135312839	 0.146486
H	-1.8450728662	 1.9345720656	 0.9266483108	 0.13668
H	-1.5520283734	 4.1076671988	-0.8850577778	 0.112601
H	-0.8734779838	 4.1540447654	 0.7328237784	 0.117238
H	 0.5531456439	 3.3316373031	-1.8911671688	 0.095533
H	 2.6484253152	 4.6267529329	-0.4949381354	 0.102043
H	 2.4684442291	 2.749431019	 1.6454918734	 0.124302
H	 0.8978929527	 3.6581599713	 1.7418918301	 0.109331
89.3046	171.7569	294.7794	336.8577	470.7355	518.1325	555.1644	575.3841	604.6921	633.6723	709.7932	789.3358	804.0152	879.3732	905.2248	927.9378	945.3608	979.4811	1003.4451	1033.0563	1054.7007	1065.8095	1115.6235	1134.7096	1163.9574	1195.5242	1210.5007	1225.5091	1239.6387	1265.0944	1283.9496	1309.5977	1370.4245	1445.9189	1481.2652	1512.6742	1854.5725	3056.9342	3073.6704	3083.16	3088.3677	3099.8895	3113.1987	3121.0484	3166.6635
O=C1CCC2C3CC12O3	O=C1CC[C@H]2[C@H]3C[C@@]12O3	
InChI=1S/C7H8O2/c8-6-2-1-4-5-3-7(4,6)9-5/h4-5H,1-3H2	InChI=1S/C7H8O2/c8-6-2-1-4-5-3-7(4,6)9-5/h4-5H,1-3H2/t4-,5+,7-/m0/s1
