25
gdb 102590	2.27461	1.10529	0.79527	1.0232	89.78	-0.2414	0.0875	0.3288	1547.5264	0.22775	-389.476711	-389.466036	-389.465092	-389.512969	38.907	
C	-0.6784558429	 1.0491254916	-0.4569242031	-0.388036
C	-0.0941636251	-0.3314163586	-0.1493930882	-0.176
C	 0.7748555904	-0.3534956579	 1.1124503494	 0.093862
O	-0.0800489101	 0.007581285	 2.1936412572	-0.248496
C	 0.555639592	 0.5349196359	 3.3342469518	-0.234535
C	 1.4313392675	-1.7176245095	 1.3222249154	 0.06062
C	 2.3953471567	-2.251053281	 0.2222386648	-0.227128
C	 3.2815620826	-2.8576619772	 1.3420704402	-0.228382
C	 2.5922484903	-1.8982156748	 2.3466493819	-0.236545
H	 0.1154240997	 1.7809709384	-0.6459518508	 0.105989
H	-1.3195473862	 1.0184057166	-1.3432811324	 0.106512
H	-1.2731515246	 1.4086826239	 0.3861267894	 0.130979
H	-0.9047577472	-1.058657977	-0.0149634179	 0.101005
H	 0.5078063216	-0.6823345906	-0.9950980453	 0.097806
H	 1.5695511194	 0.4095336085	 1.0128826344	 0.050383
H	 1.2372111356	 1.3605964498	 3.0753947681	 0.099832
H	-0.2303794915	 0.924930621	 3.9872828644	 0.121133
H	 1.1270465992	-0.2190338156	 3.8925267495	 0.110596
H	 0.6412290836	-2.4511543871	 1.5203035114	 0.074555
H	 1.9868713625	-2.9245172785	-0.5350563886	 0.096979
H	 2.9063649857	-1.4266101668	-0.2879015325	 0.097797
H	 3.0229037103	-3.9021238018	 1.538631199	 0.102504
H	 4.3658626328	-2.7850788001	 1.2292264173	 0.094888
H	 3.1630385711	-0.9713548265	 2.4682102557	 0.096346
H	 2.3451551066	-2.2864137478	 3.3378491388	 0.097333
61.3636	85.1515	89.8506	137.3645	155.1186	204.6312	211.8209	263.1977	284.694	350.9117	392.6878	453.5721	513.1963	655.9673	757.1231	783.3188	801.5997	895.937	907.0435	933.532	940.802	957.2411	982.925	1029.5856	1044.1845	1087.7226	1108.6098	1135.0333	1150.3407	1180.0787	1187.1678	1201.9545	1224.4564	1238.7023	1255.6028	1260.4982	1270.1924	1286.4229	1299.3202	1317.3463	1348.1956	1388.6442	1396.3331	1403.6796	1474.4111	1476.131	1479.7208	1486.2956	1494.3498	1497.4962	1508.2539	1510.3415	1513.4	2926.7391	2978.9456	3029.9149	3034.1518	3036.5593	3039.2312	3042.0717	3047.3842	3057.2354	3071.2139	3094.3742	3097.8394	3098.8052	3100.4496	3115.5136	3126.6695
CCC(OC)C1CCC1	CC[C@@H](OC)C1CCC1	
InChI=1S/C8H16O/c1-3-8(9-2)7-5-4-6-7/h7-8H,3-6H2,1-2H3	InChI=1S/C8H16O/c1-3-8(9-2)7-5-4-6-7/h7-8H,3-6H2,1-2H3/t8-/m1/s1
