23
gdb 81969	2.41242	1.57629	1.20441	1.8023	84.1	-0.25	0.0804	0.3304	1159.7645	0.205868	-388.295458	-388.2863	-388.285356	-388.328627	36.067	
C	-0.0270459138	 1.5891719093	-0.117516498	-0.412603
C	 0.0720835734	 0.0653301879	-0.0127266915	-0.002624
C	 0.7476977413	-0.6013310958	-1.1986808688	 0.040782
O	 2.185556963	-0.5895120332	-1.1472361637	-0.265762
C	 1.483544687	-1.7778739167	-0.7407788301	 0.040781
C	 1.3168643509	-1.9249469021	 0.7618735557	-0.002622
C	 2.5366970448	-2.5099904389	 1.4778570973	-0.412604
C	 0.8358675019	-0.5081424992	 1.2307963964	-0.032832
C	 1.9614294805	 0.3978588592	 1.749948185	-0.397296
H	 0.9589218459	 2.047974177	-0.2291451362	 0.131492
H	-0.6276826749	 1.8741246925	-0.9881376201	 0.108952
H	-0.5051866749	 2.0210027987	 0.7676758782	 0.113563
H	-0.9513597799	-0.3383094268	 0.0109021108	 0.072445
H	 0.3219209305	-0.5180734867	-2.1967946378	 0.086097
H	 1.6561945214	-2.6514313721	-1.36650841	 0.086097
H	 0.4776949184	-2.6232226324	 0.9001715617	 0.072445
H	 3.4299000241	-1.9028679275	 1.3084924009	 0.131492
H	 2.3718418713	-2.5790548997	 2.5580028626	 0.113564
H	 2.746469546	-3.5208136862	 1.1115573611	 0.108951
H	 0.1206845065	-0.6361722287	 2.051138659	 0.066655
H	 2.7211131563	 0.5758941491	 0.9865982067	 0.13996
H	 1.5628016717	 1.3649808919	 2.0706296249	 0.106533
H	 2.4479549686	-0.0503072896	 2.6214450159	 0.106534
95.7514	166.9842	229.8802	237.3415	247.2245	255.7971	266.0526	319.7493	397.2749	429.4782	466.1289	569.317	619.4287	715.9198	759.9221	792.7217	847.0667	854.2888	921.5494	936.8911	983.3105	1000.0395	1017.0678	1045.7866	1054.1171	1083.8008	1102.7303	1114.6056	1145.7234	1158.1261	1204.6592	1244.8358	1260.8569	1318.8385	1321.8714	1324.1479	1367.3745	1374.999	1376.6771	1403.6114	1405.9465	1409.435	1448.9828	1487.3966	1495.7748	1498.3528	1499.0848	1512.3676	1516.3416	2990.4406	2990.7608	3033.5299	3034.0251	3036.8221	3046.9291	3093.7535	3095.1131	3103.3494	3116.6129	3116.8933	3126.102	3136.1303	3139.6542
CC1C2OC2C(C)C1C	C[C@H]1[C@H]2O[C@H]2[C@@H](C)[C@H]1C	
InChI=1S/C8H14O/c1-4-5(2)7-8(9-7)6(4)3/h4-8H,1-3H3	InChI=1S/C8H14O/c1-4-5(2)7-8(9-7)6(4)3/h4-8H,1-3H3/t4-,5+,6-,7+,8-
