23
gdb 114691	3.77964	1.01351	0.91623	1.4176	86.02	-0.2311	0.0899	0.321	1408.9899	0.205375	-388.293985	-388.284593	-388.283649	-388.328139	36.076	
C	 0.0643846469	 1.5112197621	 0.2202419624	-0.383002
C	 0.0124613104	-0.014439994	 0.1038066728	-0.187546
C	-1.4036672577	-0.5634497982	 0.0049722631	 0.169395
C	-1.5180620989	-2.0998676773	-0.1097351715	-0.335666
C	-2.8193820394	-2.4221093615	 0.6353406743	 0.32772
C	-3.8714807217	-3.2613143647	-0.0494331475	-0.484086
C	-2.7212632161	-2.4095665023	 2.1520453815	-0.351371
C	-3.1348874935	-1.1682833937	 1.4037721643	 0.06274
O	-2.1300629622	-0.2122557219	 1.1962379056	-0.278425
H	 1.0962490473	 1.8658818588	 0.3029005116	 0.107689
H	-0.3838879325	 1.9898920869	-0.657691463	 0.110205
H	-0.4867807336	 1.8471903983	 1.1022192012	 0.137278
H	 0.5684785874	-0.3449361751	-0.7829152615	 0.093854
H	 0.4989010928	-0.474903991	 0.9728942823	 0.097956
H	-1.9130872527	-0.1012418487	-0.8583595879	 0.061726
H	-1.5665622209	-2.4171810711	-1.155675281	 0.099719
H	-0.6509437179	-2.5927587644	 0.3453102104	 0.098847
H	-3.5278131036	-4.2927128608	-0.1918919643	 0.11876
H	-4.7924706731	-3.3018758465	 0.5411546726	 0.115352
H	-4.1252680595	-2.855978556	-1.0360728623	 0.115039
H	-3.4837746708	-2.9496781513	 2.70554963	 0.104439
H	-1.7385865279	-2.4002915974	 2.6124429196	 0.110416
H	-4.1387608526	-0.7625978704	 1.4958194374	 0.088963
59.1488	109.3373	170.8757	209.3956	227.4072	232.8096	298.4936	360.2506	406.6015	445.6372	457.7961	583.5655	628.5079	750.5945	772.2608	839.3642	863.9881	868.5133	935.309	954.2871	960.6915	988.2158	1015.8416	1024.1562	1044.6344	1062.2518	1098.4032	1103.8377	1135.9515	1144.4216	1163.498	1206.1234	1267.3383	1292.1261	1296.908	1304.2338	1339.2534	1364.4701	1402.5935	1407.2064	1412.6039	1421.1058	1473.8839	1476.2876	1489.1786	1495.3815	1496.2882	1501.6191	1509.0691	2947.4612	3019.6425	3021.8238	3033.8616	3036.0895	3059.9725	3079.0459	3085.882	3095.6521	3100.2451	3119.027	3124.2318	3143.1298	3211.2503
CCC1CC2(C)CC2O1	CC[C@H]1C[C@@]2(C)C[C@H]2O1	
InChI=1S/C8H14O/c1-3-6-4-8(2)5-7(8)9-6/h6-7H,3-5H2,1-2H3	InChI=1S/C8H14O/c1-3-6-4-8(2)5-7(8)9-6/h6-7H,3-5H2,1-2H3/t6-,7+,8-/m0/s1
