21
gdb 118088	3.17952	0.87779	0.76119	1.4617	74.89	-0.2591	0.0804	0.3395	1536.2755	0.17997	-461.337581	-461.327257	-461.326312	-461.373211	37.762	
C	 0.1177702863	 1.5391082447	-0.2054076702	-0.475061
C	 0.002351106	 0.0384633785	-0.0709256896	 0.393568
C	 1.1507551836	-0.8123762625	-0.4094369364	-0.229787
O	 0.8124959374	-0.5509853703	 0.965767357	-0.29043
C	-1.4008886139	-0.5804880406	-0.1355088647	 0.041096
O	-1.3300872339	-1.9680845445	 0.1557655212	-0.437222
C	-2.3990700446	 0.1285510134	 0.7910862128	-0.196002
C	-3.771144176	-0.5335661398	 0.7797988785	-0.077975
O	-4.6275651378	 0.2414009974	 1.6079114023	-0.424989
H	 1.167291459	 1.8425157739	-0.2152522153	 0.127328
H	-0.3484899945	 1.8792209958	-1.136774892	 0.125017
H	-0.3757399179	 2.0509195139	 0.625186433	 0.139398
H	 0.9846444205	-1.8355090069	-0.7347074326	 0.12812
H	 2.0753958251	-0.3478093092	-0.7474914969	 0.113634
H	-1.7601600028	-0.5090267638	-1.1713773469	 0.089848
H	-0.7439514163	-2.0361835911	 0.9236749965	 0.288863
H	-2.0115233363	 0.1346226909	 1.8176609085	 0.109189
H	-2.5208440421	 1.1741688336	 0.487965161	 0.107445
H	-4.1513909221	-0.5778554597	-0.2550369932	 0.079926
H	-3.6836969915	-1.5671967068	 1.1383728106	 0.103134
H	-5.4705886182	-0.2159646868	 1.6747518964	 0.284903
59.3161	89.7461	111.941	134.7417	202.9734	264.7049	279.8063	283.856	342.4908	361.7809	388.4351	434.4057	503.1389	544.3466	586.1563	737.3257	809.8198	856.164	879.9969	931.0456	957.4411	1014.1129	1028.8168	1073.2427	1091.2448	1108.1254	1124.1945	1136.7931	1176.9032	1210.1252	1237.8463	1246.5949	1291.778	1309.475	1330.9405	1371.6024	1390.6185	1420.0564	1432.6497	1459.1445	1484.1001	1488.6289	1500.5212	1517.3221	1529.9451	2958.2117	3017.8313	3033.335	3034.5382	3041.5774	3084.9554	3097.6726	3109.5935	3126.5629	3195.0775	3732.5328	3831.5573
CC1(CO1)C(O)CCO	C[C@]1(CO1)[C@@H](O)CCO	
InChI=1S/C6H12O3/c1-6(4-9-6)5(8)2-3-7/h5,7-8H,2-4H2,1H3	InChI=1S/C6H12O3/c1-6(4-9-6)5(8)2-3-7/h5,7-8H,2-4H2,1H3/t5-,6-/m0/s1
