19
gdb 84624	2.29288	1.80434	1.46232	2.7995	80.09	-0.2229	-0.0069	0.216	1003.059	0.160712	-385.907366	-385.899714	-385.89877	-385.939189	30.638	
C	-0.1213167824	 1.5564367116	 0.019298626	-0.400095
C	 0.0127556943	 0.0239464348	 0.012045513	-0.027952
C	 0.7609278764	-0.4645510655	-1.2132299109	-0.067739
C	 1.8814006253	-1.1782056546	-1.0895802446	-0.075525
C	 2.3577744277	-1.5550678556	 0.3056724077	-0.178306
C	 1.1079745219	-2.0021236176	 1.1312603001	-0.252523
C	 0.7466834403	-0.4881063209	 1.2818553987	-0.14518
C	 2.2607120066	-0.2506935129	 1.1259742851	 0.443402
O	 3.0455196935	 0.5361898912	 1.5678613346	-0.329639
H	 0.8611052367	 2.0361037584	 0.0633422157	 0.13962
H	-0.6305347931	 1.9069347436	-0.8841364457	 0.114442
H	-0.7024483161	 1.8913856262	 0.8846068388	 0.116353
H	-1.0029303453	-0.4001645165	 0.0073653681	 0.083548
H	 0.368268242	-0.1903420125	-2.1886817441	 0.09367
H	 2.4620133073	-1.498190523	-1.9484143401	 0.100661
H	 3.2760537629	-2.1402974842	 0.3245291789	 0.083259
H	 0.3869039306	-2.6255557692	 0.5992374699	 0.107557
H	 1.377556267	-2.4565818886	 2.087287155	 0.111133
H	 0.2647564745	-0.1378726847	 2.1971598039	 0.083314
124.5511	144.1932	233.0031	281.6744	359.4618	382.2051	437.2959	473.513	569.3728	570.5282	694.3157	749.2511	787.161	815.5975	838.9571	901.467	924.8677	944.9449	977.4248	1001.6651	1008.6438	1033.5101	1070.0598	1095.3526	1111.478	1126.0764	1148.4928	1164.5948	1225.12	1241.113	1270.7016	1294.394	1331.6862	1351.5539	1385.9698	1412.1498	1489.7102	1495.1768	1499.6512	1691.11	1888.1898	2981.4587	3034.5024	3066.5665	3092.2598	3103.1424	3114.3709	3124.8469	3131.5285	3160.6036	3188.7391
CC1C=CC2CC1C2=O	C[C@H]1C=C[C@@H]2C[C@H]1C2=O	
InChI=1S/C8H10O/c1-5-2-3-6-4-7(5)8(6)9/h2-3,5-7H,4H2,1H3	InChI=1S/C8H10O/c1-5-2-3-6-4-7(5)8(6)9/h2-3,5-7H,4H2,1H3/t5-,6+,7+/m0/s1
