14
gdb 29565	2.39757	1.84332	1.04329	3.82	69.52	-0.2064	-0.0341	0.1723	1050.5829	0.101828	-473.856862	-473.84915	-473.848206	-473.88874	29.833	
N	 0.0136164986	 1.3770483074	 0.1451774576	-0.581761
C	-0.047729484	-0.0024410661	 0.0515179406	 0.11578
C	-1.1888570615	-0.7332978481	 0.0263824739	-0.02709
O	-1.2005233753	-2.0877206357	-0.0125272172	-0.177296
C	-0.0275742304	-2.747119335	-0.018058793	-0.060587
C	 1.1789857722	-2.1299835092	-0.0005684153	 0.162743
O	 2.3670186777	-2.7868010446	-0.0173471064	-0.412311
C	 1.2622057019	-0.6732607822	 0.0205297841	 0.312038
O	 2.3097402187	-0.0343802608	 0.0032245107	-0.396262
H	 0.9468909187	 1.7047233795	-0.0776134544	 0.265752
H	-0.7223735541	 1.8983413611	-0.305490374	 0.247531
H	-2.1915582049	-0.3274529331	 0.0376019184	 0.127677
H	-0.1672767679	-3.8216720643	-0.0422918716	 0.124941
H	 2.2128279102	-3.7376210888	-0.0425515435	 0.298845
113.7861	241.8202	298.1875	302.1076	327.6075	351.7389	368.8681	469.4501	484.4238	522.2521	530.7161	584.3098	656.2921	685.9837	794.4059	823.0552	833.3868	855.1471	1032.4767	1083.3243	1162.4383	1226.7542	1243.0577	1352.7693	1356.8596	1431.2956	1478.6212	1608.4818	1649.1482	1681.5634	1722.3634	3198.4744	3223.4255	3530.7193	3660.4262	3811.691
NC1=COC=C(O)C1=O	Nc1cocc(O)c1=O	
InChI=1S/C5H5NO3/c6-3-1-9-2-4(7)5(3)8/h1-2,7H,6H2	InChI=1S/C5H5NO3/c6-3-1-9-2-4(7)5(3)8/h1-2,7H,6H2
