21
gdb 89301	2.2393	1.64501	1.1427	1.8207	78.06	-0.2382	0.0637	0.3018	1137.3934	0.181232	-424.194882	-424.18557	-424.184626	-424.228763	36.029	
C	 0.5147196432	 1.5581620737	-0.3903060979	-0.392753
C	 0.0489642772	 0.1491034199	-0.0400493402	 0.038123
C	 0.4632321176	-1.0105990979	-1.0086118859	-0.318785
C	 1.1747127935	-1.7183829092	 0.1658931197	 0.424623
O	 0.9012873835	-3.068583039	 0.4166278506	-0.488628
C	 2.6405123109	-1.2381262427	 0.414559217	-0.348872
C	 2.1173840368	-0.377678771	 1.6067052233	 0.138925
O	 2.5111610529	 0.9708329713	 1.7212014944	-0.430274
C	 0.6612049161	-0.632896123	 1.1747884321	-0.113903
H	 1.5920604623	 1.6069924525	-0.5612011668	 0.121022
H	 0.0060984392	 1.8997937436	-1.2995024845	 0.099638
H	 0.2851240725	 2.2637262496	 0.413687194	 0.118889
H	-1.0385361393	 0.1665893622	 0.0781527455	 0.078295
H	-0.3918951537	-1.5855026738	-1.3740806775	 0.097664
H	 1.0953664801	-0.7313477048	-1.8581528226	 0.085542
H	 1.3136746768	-3.5917682152	-0.2801939381	 0.274746
H	 3.338792237	-2.0346509522	 0.6840651322	 0.093639
H	 3.0599407139	-0.6440335941	-0.4021602733	 0.096601
H	 2.2978356685	-0.9126382252	 2.550373293	 0.075573
H	 3.4244710741	 0.9918947501	 2.0240146923	 0.28248
H	-0.0464147432	-0.8624126646	 1.9719462728	 0.067453
43.0949	171.587	219.6555	241.4135	248.2966	260.4558	294.1463	344.101	366.373	384.3388	445.7817	561.5345	571.6392	663.629	712.9758	815.0366	862.0459	877.2179	909.2851	940.0999	952.6737	986.6241	1011.4387	1057.7012	1095.2081	1101.0217	1136.5704	1162.6384	1178.5806	1194.0157	1222.1631	1234.2093	1241.1953	1272.1156	1298.3015	1327.9353	1337.7478	1354.6389	1370.0667	1419.07	1427.5159	1466.1073	1481.3819	1490.3225	1495.103	2986.4185	3031.3277	3039.548	3048.2883	3052.2419	3098.4242	3100.1649	3103.9204	3113.6829	3126.9175	3789.4701	3814.3812
CC1CC2(O)CC(O)C12	C[C@H]1C[C@@]2(O)C[C@@H](O)[C@@H]12	
InChI=1S/C7H12O2/c1-4-2-7(9)3-5(8)6(4)7/h4-6,8-9H,2-3H2,1H3	InChI=1S/C7H12O2/c1-4-2-7(9)3-5(8)6(4)7/h4-6,8-9H,2-3H2,1H3/t4-,5+,6+,7+/m0/s1
