18
gdb 111948	2.47478	1.46709	1.15885	3.3341	74.42	-0.2451	-0.0336	0.2115	1111.8321	0.147825	-439.126002	-439.117122	-439.116178	-439.159731	32.374	
C	-0.0032186832	 1.392698591	 0.0229014927	-0.353406
N	 0.0019072514	-0.0423397026	-0.1563842218	-0.094963
C	-1.1906493011	-0.8693460739	-0.0607609933	-0.076401
C	-2.131469652	-0.672612842	-1.2648384396	-0.070269
O	-1.5136453074	-0.983841237	-2.4914462013	-0.414865
C	-0.6096336884	-2.2591068472	 0.0304021312	-0.051889
C	 0.7216636551	-2.2126678872	 0.0342705963	-0.200094
C	 1.1671074245	-0.7918749673	-0.0305953853	 0.386219
O	 2.2935324378	-0.3428600695	 0.0170482127	-0.391587
H	 1.0375589886	 1.7222207504	 0.0081030385	 0.168616
H	-0.5495249627	 1.9001707051	-0.7796376592	 0.125072
H	-0.4539454566	 1.6804767431	 0.982257777	 0.122781
H	-1.7596817506	-0.6286625569	 0.8532920914	 0.095648
H	-2.9926726799	-1.3412104448	-1.160424396	 0.115427
H	-2.5162563758	 0.3601272292	-1.2498871245	 0.095612
H	-0.6590453034	-0.5362736556	-2.4996367849	 0.290639
H	-1.2392459639	-3.1390412866	 0.0593077424	 0.124816
H	 1.4260601477	-3.0301075882	 0.0873617337	 0.128644
93.8557	100.7091	142.137	176.4085	224.8179	276.2776	318.0579	363.8148	375.7666	505.9393	599.8012	665.8444	707.3692	726.4165	815.6177	855.0971	888.9341	955.1784	970.5456	1013.3916	1062.5589	1090.0574	1124.6135	1144.3754	1158.3117	1206.6009	1247.6925	1281.3428	1306.121	1349.2746	1385.7247	1408.2824	1422.9775	1449.5017	1494.0354	1509.5838	1519.6597	1658.0927	1806.6621	2962.6399	2978.0046	3010.4189	3067.0384	3073.3133	3138.234	3218.0624	3251.983	3786.6308
CN1C(CO)C=CC1=O	CN1[C@@H](CO)C=CC1=O	
InChI=1S/C6H9NO2/c1-7-5(4-8)2-3-6(7)9/h2-3,5,8H,4H2,1H3	InChI=1S/C6H9NO2/c1-7-5(4-8)2-3-6(7)9/h2-3,5,8H,4H2,1H3/t5-/m1/s1
