20
gdb 94447	2.80431	1.39035	1.21681	1.3487	79.33	-0.2404	0.0226	0.2631	1119.7416	0.172146	-403.158829	-403.150525	-403.149581	-403.192187	31.624	
C	-0.678291768	 1.2011658188	 0.0782023477	-0.428743
C	 0.1321828669	-0.0779113447	-0.0541383786	 0.014555
C	 1.4935099875	-0.0572176512	-0.8002831105	-0.241403
C	 2.0287746622	-1.0840439132	 0.2305475493	-0.274368
C	 0.8579039969	-0.7123400742	 1.1843900619	 0.294341
C	 1.2232438997	 0.221067426	 2.3704055377	-0.170033
O	 0.6584471363	-0.4316540562	 3.5340831391	-0.22085
C	 0.1031549299	-1.5701016771	 3.0608536946	 0.102005
N	 0.1516014592	-1.8311212206	 1.8216444035	-0.301376
H	-0.0689749288	 2.0413735077	 0.429840736	 0.111331
H	-1.0960936738	 1.4916729197	-0.8918965569	 0.11922
H	-1.5158588882	 1.0758389211	 0.7738211736	 0.121567
H	-0.4985812186	-0.8697362612	-0.470588175	 0.090916
H	 1.4963671455	-0.3465963518	-1.8532964453	 0.100189
H	 1.9902105354	 0.9147155433	-0.7077995691	 0.095729
H	 1.9197508891	-2.1151012691	-0.1133794685	 0.118269
H	 3.0422374613	-0.9437811437	 0.6171335	 0.093115
H	 2.3027534844	 0.3114577162	 2.5256896781	 0.116508
H	 0.7883566158	 1.2213490677	 2.3073434477	 0.119957
H	-0.3594876628	-2.1908232474	 3.8205422346	 0.139071
54.2107	92.6625	208.2281	220.3752	260.9432	337.0851	379.7808	464.1261	479.822	567.3961	654.7534	787.5648	795.4062	850.343	887.7174	901.4908	920.0552	952.4525	964.5308	967.0464	969.5424	1054.3301	1082.3907	1118.6369	1141.64	1154.4682	1181.6928	1193.5427	1224.36	1247.5848	1264.1112	1271.195	1291.1822	1325.1924	1373.9412	1379.4846	1406.8877	1478.7472	1490.5981	1498.4238	1500.0312	1514.573	1696.218	3023.0264	3044.0248	3052.1118	3056.4774	3058.2209	3089.4142	3092.8721	3102.8044	3105.517	3121.545	3212.6337
CC1CCC11COC=N1	C[C@H]1CC[C@]21COC=N2	
InChI=1S/C7H11NO/c1-6-2-3-7(6)4-9-5-8-7/h5-6H,2-4H2,1H3	InChI=1S/C7H11NO/c1-6-2-3-7(6)4-9-5-8-7/h5-6H,2-4H2,1H3/t6-,7+/m0/s1
