18
gdb 12730	2.52248	2.24304	1.8848	1.3861	66.87	-0.2459	0.0693	0.3152	837.0259	0.153474	-384.904204	-384.896482	-384.895538	-384.936345	29.509	
C	-0.1667341064	 1.5091285832	-0.0705532623	-0.514215
C	 0.0081170447	 0.0124060751	 0.017899795	 0.2869
C	-1.184694976	-0.8892344489	 0.3416596107	-0.135148
O	-0.3728917412	-1.7196130727	 1.2100134988	-0.308334
C	 0.731178361	-0.779229678	 1.1538499712	 0.07133
C	 1.825037725	-1.2597149714	 0.1925820363	-0.276081
C	 1.0086196124	-0.6688535859	-1.0009675176	 0.076666
O	 0.4810073184	-1.5776025383	-1.935177359	-0.426808
H	 0.8000311523	 2.0238696196	-0.1025949285	 0.118754
H	-0.7123180059	 1.7818425916	-0.982060451	 0.128088
H	-0.7265326901	 1.901897341	 0.7851296708	 0.119218
H	-1.9810096763	-0.3823384642	 0.9042247407	 0.096373
H	-1.6336585323	-1.4521439815	-0.4848891028	 0.101511
H	 0.9936212782	-0.3822905512	 2.1388203493	 0.071376
H	 2.7857552678	-0.7569678358	 0.3396895207	 0.104546
H	 1.9886268231	-2.3408239091	 0.1743969756	 0.106395
H	 1.5578781113	 0.0729648412	-1.5871736451	 0.089201
H	 0.1735142542	-2.3520806247	-1.451062403	 0.290228
46.8244	201.9293	224.2537	272.2767	302.1775	376.8264	384.4977	440.6386	514.5819	619.6674	676.5592	778.4731	838.0791	872.3138	913.6669	936.1479	980.6231	997.1176	1006.258	1027.4765	1099.1843	1134.1633	1151.8119	1175.7089	1191.5666	1203.7312	1248.0925	1269.2651	1278.827	1308.7245	1324.3529	1387.5029	1411.9409	1437.4763	1459.0592	1492.0426	1493.7127	1527.1276	3001.3868	3021.5937	3049.7298	3058.1533	3066.7831	3073.2626	3085.1604	3093.0386	3110.586	3802.8057
CC12COC1CC2O	C[C@]12CO[C@H]1C[C@H]2O	
InChI=1S/C6H10O2/c1-6-3-8-5(6)2-4(6)7/h4-5,7H,2-3H2,1H3	InChI=1S/C6H10O2/c1-6-3-8-5(6)2-4(6)7/h4-5,7H,2-3H2,1H3/t4-,5+,6-/m1/s1
