19
gdb 32566	1.94552	1.8776	1.03883	3.706	78.07	-0.1838	0.0468	0.2306	1175.8162	0.159639	-419.280511	-419.271142	-419.270198	-419.314995	34.203	
C	-0.0441859212	 1.5718979552	 0.0015347592	-0.379527
C	 0.0382313622	 0.0432281308	-0.0350019719	-0.153576
N	 0.7483835094	-0.4636396701	-1.1959885481	-0.148414
C	 0.0866008445	-0.6911018521	-2.4007556242	 0.457501
O	-1.1010706709	-0.5404561488	-2.6326258259	-0.455151
N	 1.0893111933	-1.1226608613	-3.2509447902	-0.365169
C	 2.3200605733	-1.1454563083	-2.5964774427	-0.184037
C	 2.1169393163	-0.7369168599	-1.3248669767	 0.296445
C	 3.0849088989	-0.5979952563	-0.2022174614	-0.501645
H	 0.9510544102	 2.026024766	 0.0367760129	 0.116724
H	-0.5619841102	 1.939263499	-0.888156688	 0.147407
H	-0.6009287104	 1.9001137506	 0.885040738	 0.116837
H	 0.524091837	-0.3427672827	 0.8660132047	 0.1077
H	-0.9694948417	-0.3787278039	-0.0803541367	 0.141965
H	 0.9091831761	-1.3581410098	-4.2100222155	 0.264916
H	 3.2274747245	-1.4547517392	-3.0855810867	 0.133924
H	 4.0865015412	-0.8673552488	-0.5460051005	 0.134844
H	 3.1282852073	 0.4270466967	 0.1850105075	 0.134271
H	 2.8353198101	-1.2531887173	 0.6414462764	 0.134985
48.284	96.2876	164.0283	185.2701	212.2993	261.8938	280.7272	318.9489	396.3256	450.7475	549.4805	588.0213	612.0743	673.5562	714.3176	760.886	776.0115	799.3797	964.7951	989.0352	1022.7784	1066.0215	1080.1924	1102.752	1163.1493	1187.8574	1272.8106	1309.2628	1377.5175	1389.4336	1397.5387	1409.0521	1423.4126	1439.9216	1473.3036	1476.8788	1491.3737	1501.5994	1505.0692	1686.0496	1816.7725	3020.9624	3040.2042	3058.4641	3066.5233	3099.8906	3113.7159	3120.3416	3131.3846	3284.2961	3702.3902
CCN1C(=O)NC=C1C	CCn1c(=O)[nH]cc1C	
InChI=1S/C6H10N2O/c1-3-8-5(2)4-7-6(8)9/h4H,3H2,1-2H3,(H,7,9)	InChI=1S/C6H10N2O/c1-3-8-5(2)4-7-6(8)9/h4H,3H2,1-2H3,(H,7,9)
