19
gdb 81223	2.51291	1.89232	1.46075	0.8682	74.59	-0.2396	0.0531	0.2926	970.235	0.160381	-422.937892	-422.93067	-422.929725	-422.96913	29.745	
C	-0.1305255294	 1.5558202355	 0.0234754312	-0.445596
C	 0.0275446104	 0.042335834	-0.0397048265	-0.015212
C	 1.1997777959	-0.6067874026	-0.8105374658	 0.078339
C	 2.139685049	-0.2481731504	 0.4222098795	-0.350989
C	 0.8158504202	-0.6570896721	 1.1175404235	 0.397945
O	 0.1872630123	-0.9223532869	 2.3853903132	-0.362318
C	-0.4160248779	-2.1247831911	 1.7767777222	-0.18024
C	 0.7424013877	-2.1008095836	 0.7238150952	 0.080405
O	 0.846348871	-2.0238197787	-0.7014537382	-0.298659
H	 0.7956810033	 2.0858082532	 0.2579970321	 0.120432
H	-0.5043538791	 1.9441162338	-0.9298780174	 0.119793
H	-0.8606565485	 1.8182342281	 0.7959998997	 0.132582
H	-0.9296804745	-0.4186358547	-0.2973774694	 0.078179
H	 1.4758442448	-0.3656468669	-1.8345634019	 0.09315
H	 3.0136592975	-0.8755720504	 0.6053779304	 0.111147
H	 2.4120382235	 0.8058983094	 0.4170825411	 0.114857
H	-0.4224009548	-2.9608438643	 2.4792205119	 0.117504
H	-1.4240188171	-1.9213755987	 1.4040264163	 0.118213
H	 1.5618353255	-2.7122631536	 1.1158933128	 0.090468
166.5545	190.9457	242.7358	316.2838	379.9326	434.5169	463.499	531.2964	563.343	642.5472	728.8275	784.7777	809.0692	816.6675	864.9424	914.1001	922.2403	970.8494	993.7566	1022.8305	1059.5314	1064.5122	1081.2606	1090.5134	1126.0728	1144.6967	1163.7414	1182.2611	1199.3733	1226.7729	1250.2083	1267.4293	1292.5931	1322.9211	1390.8353	1399.0098	1413.8388	1493.2558	1496.9838	1505.3768	1514.2919	3038.9362	3043.092	3052.9354	3073.0526	3088.5252	3098.354	3119.4077	3124.5706	3154.9774	3159.9458
CC1C2CC11OCC1O2	C[C@H]1[C@H]2C[C@]31OC[C@H]3O2	
InChI=1S/C7H10O2/c1-4-5-2-7(4)6(9-5)3-8-7/h4-6H,2-3H2,1H3	InChI=1S/C7H10O2/c1-4-5-2-7(4)6(9-5)3-8-7/h4-6H,2-3H2,1H3/t4-,5+,6+,7+/m0/s1
