18
gdb 68263	2.4124	1.49973	1.46009	3.867	76.99	-0.2486	0.0232	0.2717	1027.3536	0.148314	-398.072832	-398.064435	-398.063491	-398.105277	32.789	
C	 0.0075911796	 1.4820088963	 0.0799176359	-0.517706
C	 0.0358358	-0.0118674612	-0.0341690663	 0.309505
C	 0.6849330491	-0.9299551538	-1.1090661265	-0.298983
C	 0.1072215866	-1.858629262	-0.0172466543	-0.075653
N	 0.6083823547	-0.9172951602	 1.0634665129	-0.385282
C	-1.2080262265	-0.9793749974	-0.0011373486	 0.220298
N	-2.0412290892	-0.882242207	 1.1699406517	-0.585587
C	-2.0410475318	-1.0346514546	-1.2006645993	 0.23874
N	-2.713696873	-1.0984030406	-2.1384695727	-0.347457
H	 1.0214637528	 1.8889985554	 0.1513745762	 0.125158
H	-0.4755662222	 1.9201965274	-0.7988260237	 0.142178
H	-0.5539300317	 1.7825281458	 0.9689884314	 0.14664
H	 0.2493359255	-0.9535254872	-2.11118897	 0.130801
H	 1.7764009578	-0.8874927221	-1.1440802966	 0.098883
H	 0.1818401438	-2.9420054985	 0.0818741802	 0.093006
H	 1.6306386614	-0.8795306118	 1.0233209665	 0.212297
H	-2.7150457445	-1.6399905481	 1.2032431765	 0.239495
H	-1.4350611626	-0.9436776704	 1.9833653166	 0.253668
123.1538	170.6301	187.1554	209.7905	307.9355	328.9776	360.5329	390.3958	515.6777	524.4867	546.4713	605.1328	659.5541	697.8579	759.4152	800.7491	878.1873	899.1723	916.9843	951.4522	1013.2417	1032.0573	1041.8295	1105.748	1112.3908	1128.541	1194.6614	1214.7999	1236.5838	1269.6453	1291.8087	1317.1752	1368.6638	1411.9893	1482.044	1485.1008	1515.7157	1633.3973	2356.1707	3039.3046	3058.359	3109.7416	3115.5454	3121.1243	3125.767	3406.1049	3495.1857	3585.7662
CC12CC(N1)C2(N)C#N	C[C@@]12C[C@@H](N1)[C@]2(N)C#N	
InChI=1S/C6H9N3/c1-5-2-4(9-5)6(5,8)3-7/h4,9H,2,8H2,1H3	InChI=1S/C6H9N3/c1-5-2-4(9-5)6(5,8)3-7/h4,9H,2,8H2,1H3/t4-,5+,6-/m1/s1
