20
gdb 61510	3.53677	0.75473	0.6442	1.5224	77.4	-0.2402	-0.0376	0.2026	1690.701	0.166391	-440.292503	-440.281551	-440.280607	-440.3309	37.459	
C	-0.6243791545	 1.0834192889	-0.0282095734	-0.396857
C	 0.1990768861	-0.1723742298	-0.330199095	-0.052392
N	 0.9633703994	-0.7454782946	 0.7738043761	-0.31352
C	 2.2990441981	-0.2368148745	 1.0715029296	-0.052395
C	 2.388746443	 0.9911219319	 1.9827885555	-0.396858
C	 3.119462815	-1.4083201907	 1.6219108583	 0.158578
O	 3.9202092366	-1.3300592857	 2.5157321408	-0.239468
C	-0.6723690396	-1.2920590167	-0.909273983	 0.158587
O	-1.8005664772	-1.1548642041	-1.3024482473	-0.239464
H	 0.0185576789	 1.9293367586	 0.2243028772	 0.119576
H	-1.2384219167	 1.348999414	-0.8921969436	 0.141554
H	-1.3045718829	 0.9024963991	 0.8108004689	 0.121989
H	 0.9239855376	 0.0490445133	-1.1297323876	 0.107656
H	 0.3997706226	-0.7837088892	 1.6163892407	 0.223753
H	 2.7690024274	-0.0077345339	 0.1017399513	 0.107672
H	 1.8666729314	 0.8056560928	 2.9274458687	 0.121975
H	 3.432358795	 1.2055928393	 2.225540242	 0.141568
H	 1.9459345311	 1.870396734	 1.5100281198	 0.119577
H	 2.8936778336	-2.3693131222	 1.1088198847	 0.084238
H	-0.1529070148	-2.2757463405	-0.9255583335	 0.084231
16.5716	56.2568	68.9674	76.9027	188.4293	191.5159	246.6164	275.4093	281.1021	309.1967	349.3429	422.4859	457.4668	626.9745	629.095	723.0269	815.1323	829.9276	903.8549	908.0975	934.1854	999.928	1080.8222	1120.8005	1121.4875	1123.4194	1182.3544	1196.5926	1283.1874	1306.3792	1315.0213	1358.3301	1386.723	1396.4423	1408.4246	1414.9462	1475.7642	1483.7366	1492.157	1494.2951	1511.015	1834.1738	1835.9138	2894.0445	2897.2716	2990.9811	2996.0098	3045.0692	3047.8084	3115.1863	3118.1883	3134.0466	3139.633	3526.6539
CC(NC(C)C=O)C=O	C[C@@H](N[C@@H](C)C=O)C=O	
InChI=1S/C6H11NO2/c1-5(3-8)7-6(2)4-9/h3-7H,1-2H3	InChI=1S/C6H11NO2/c1-5(3-8)7-6(2)4-9/h3-7H,1-2H3/t5-,6+
