24
gdb 101777	3.94914	0.61445	0.55087	3.3292	86.88	-0.2431	0.0357	0.2788	2058.5932	0.215249	-405.600586	-405.588839	-405.587895	-405.639116	41.376	
C	 0.1598403744	 1.5167372724	 0.0438772269	-0.392256
C	-0.0106437882	-0.001078205	-0.0782240431	-0.166182
C	-1.4696078564	-0.4974373769	-0.0521335218	 0.036468
C	-2.2711782024	 0.0173887254	-1.2573144258	-0.38957
C	-1.4941423277	-2.0328494463	 0.0453761286	-0.167823
C	-2.8821802108	-2.6430734406	 0.2651418138	-0.328915
C	-2.8045427997	-4.1146872541	 0.6744309856	 0.410782
N	-3.8735300127	-4.8743080288	 0.2895995783	-0.522102
O	-1.8747435831	-4.5811323352	 1.3038206625	-0.358664
H	 1.2195484712	 1.7867843281	 0.0911093924	 0.111943
H	-0.2744618661	 2.0510814294	-0.8065524115	 0.116091
H	-0.3188401041	 1.8960326762	 0.9540620569	 0.11189
H	 0.4680293794	-0.3506983131	-1.0037163335	 0.091211
H	 0.5329257697	-0.4848812331	 0.7429083498	 0.095838
H	-1.9378808411	-0.0986312956	 0.8615928226	 0.064584
H	-1.8489935237	-0.364841494	-2.1952028043	 0.109872
H	-3.3185334166	-0.2964695974	-1.2126542704	 0.107516
H	-2.2657367499	 1.1096211215	-1.3117883428	 0.114334
H	-1.0505603733	-2.4621972723	-0.8634376771	 0.094108
H	-0.8603171912	-2.3612346854	 0.8748499719	 0.123716
H	-3.3926756652	-2.1141138159	 1.0828784326	 0.12452
H	-3.5199071172	-2.5336672278	-0.6185895198	 0.098807
H	-4.6769231247	-4.4783961878	-0.1650869921	 0.255497
H	-3.9220519206	-5.8255667135	 0.6162343404	 0.258334
27.9604	57.1553	88.9981	94.7905	123.5682	147.4693	212.7505	241.3372	259.0341	278.1596	335.8178	420.2235	456.7044	481.4991	526.4223	614.0082	673.1314	770.0556	779.6844	825.5516	872.7856	917.635	950.9087	980.4093	1020.3056	1034.1623	1070.1778	1084.4367	1134.1608	1151.9645	1181.4648	1221.9989	1254.2986	1293.2133	1310.2152	1317.009	1362.6052	1378.1529	1386.0031	1407.0155	1412.9063	1415.8691	1464.9861	1481.5254	1493.434	1497.4939	1499.6421	1508.4375	1515.5291	1616.4132	1797.3502	2978.8814	3009.7334	3012.8894	3024.1985	3028.6302	3032.2382	3047.9338	3065.2371	3090.7341	3093.9436	3096.6162	3103.0663	3110.8429	3601.8701	3739.6358
CCC(C)CCC(N)=O	CC[C@@H](C)CCC(=O)N	
InChI=1S/C7H15NO/c1-3-6(2)4-5-7(8)9/h6H,3-5H2,1-2H3,(H2,8,9)	InChI=1S/C7H15NO/c1-3-6(2)4-5-7(8)9/h6H,3-5H2,1-2H3,(H2,8,9)/t6-/m1/s1
