16
gdb 7002	2.57695	2.07701	1.5723	3.4833	60.56	-0.2586	0.0042	0.2628	880.9209	0.128149	-420.908299	-420.899792	-420.898848	-420.940955	30.732	
C	-0.3379459631	 1.4837984124	-0.0538848748	-0.416661
C	 0.1092970321	 0.0427421877	 0.0023727045	 0.139143
O	 1.3738515184	-0.17314459	-0.7339421337	-0.264129
C	 1.9740588677	-0.7528654733	 0.3466580953	 0.421766
O	 3.059124517	-1.237120238	 0.4196416118	-0.340351
C	 0.7586276481	-0.5545129538	 1.2789965301	 0.170667
C	 0.9961427693	 0.3404519467	 2.4846489697	-0.455827
O	 0.1183294273	-1.7643909015	 1.6295751026	-0.464552
H	 0.4380608156	 2.1630604941	 0.307792851	 0.130442
H	-0.5792600434	 1.7609525626	-1.0839551511	 0.140805
H	-1.2376370735	 1.6224641023	 0.5542286504	 0.133024
H	-0.6487711606	-0.6373214643	-0.3932410281	 0.112738
H	 1.4637078002	 1.2891957717	 2.20846105	 0.132729
H	 0.0498741707	 0.5436832325	 2.9943523207	 0.133972
H	 1.6677998068	-0.1635566139	 3.1876092571	 0.132401
H	 0.7163556275	-2.2616390053	 2.1998367645	 0.293832
92.9182	158.492	201.7809	212.4687	237.8866	263.7315	308.7251	321.6356	389.7312	489.0097	588.0357	680.2436	744.2325	753.445	841.3329	864.4577	971.219	1025.2112	1052.9147	1079.2298	1145.4705	1160.224	1200.1484	1223.554	1319.1283	1370.0987	1386.6265	1409.6288	1417.151	1476.1333	1485.0736	1495.3002	1501.1252	1930.0751	3039.5452	3046.338	3088.8594	3109.8395	3116.7335	3123.0603	3130.9016	3799.2743
CC1OC(=O)C1(C)O	C[C@H]1OC(=O)[C@]1(C)O	
InChI=1S/C5H8O3/c1-3-5(2,7)4(6)8-3/h3,7H,1-2H3	InChI=1S/C5H8O3/c1-3-5(2,7)4(6)8-3/h3,7H,1-2H3/t3-,5-/m1/s1
