15
gdb 129969	5.80906	0.9897	0.89995	3.5982	68.67	-0.238	-0.0036	0.2344	1254.0723	0.114826	-450.107162	-450.099491	-450.098547	-450.139828	28.494	
N	 0.0114668406	 1.3259244962	 0.051157362	-0.594674
C	-0.0489310013	-0.0272632898	 0.0024181577	 0.499312
N	-1.1137774072	-0.7815617854	 0.0597157071	-0.39424
C	-0.5674643484	-2.0324680167	-0.1032690372	 0.390299
N	 0.7345074236	-2.0663654771	-0.2348467702	-0.224581
O	 1.095871765	-0.6942814725	-0.1720619041	-0.208272
C	-1.38578032	-3.2596159199	-0.1256334088	-0.111771
C	-1.2382270216	-4.2117159167	-1.2690466093	-0.223792
N	-0.7398818735	-4.5674609177	 0.0592400736	-0.314225
H	 0.8986840632	 1.736342665	 0.2940619494	 0.278509
H	-0.8059691751	 1.7815050794	 0.4233424076	 0.283093
H	-2.3557560507	-3.1464302504	 0.3476377929	 0.111865
H	-2.1055361835	-4.7733267995	-1.6047099616	 0.124767
H	-0.5252444027	-3.9434297787	-2.0430964566	 0.1297
H	 0.2682152415	-4.4288336261	 0.0979192275	 0.254009
54.8329	156.5693	174.1046	286.5775	335.7645	383.4456	429.1004	459.2085	478.4311	671.0306	728.4614	769.5683	790.2097	832.764	892.4482	919.2299	973.8731	995.0521	1023.0082	1053.8513	1107.7275	1124.2662	1140.5315	1186.2813	1262.6395	1308.9559	1309.7027	1406.0843	1475.263	1505.6272	1573.214	1603.5923	1686.4254	3113.1114	3166.6197	3206.1958	3496.6228	3603.107	3719.3463
NC1=NC(=NO1)C1CN1	Nc1nc(no1)[C@H]1CN1	
InChI=1S/C4H6N4O/c5-4-7-3(8-9-4)2-1-6-2/h2,6H,1H2,(H2,5,7,8)	InChI=1S/C4H6N4O/c5-4-7-3(8-9-4)2-1-6-2/h2,6H,1H2,(H2,5,7,8)/t2-/m1/s1
