16
gdb 26005	5.0119	0.9717	0.81803	3.9459	73.65	-0.2093	0.007	0.2163	1348.0099	0.124457	-437.946176	-437.937681	-437.936737	-437.981683	30.411	
C	-0.0277371895	 1.5437135354	-0.1056034539	-0.492206
C	-0.0842788843	 0.0378730664	 0.0897970784	 0.400302
O	-0.2693535391	-0.474847873	 1.1771871898	-0.358274
N	 0.0801522635	-0.7026488541	-1.0544008177	-0.441885
C	 0.0497133842	-2.0991774415	-1.1133392263	 0.306014
C	-0.1364997965	-2.9978850823	-0.1026760198	-0.069504
O	-0.0917312254	-4.2652885045	-0.60946492	-0.14557
C	 0.1228209822	-4.166024747	-1.9405439646	 0.024549
C	 0.21950739	-2.8650869578	-2.3162443439	-0.314563
H	 0.2440459206	 1.8500956674	-1.1190847831	 0.112248
H	-1.0053819081	 1.9681268689	 0.1404205762	 0.156961
H	 0.6952769895	 1.9607023728	 0.5994982657	 0.157531
H	 0.2295301887	-0.2166457685	-1.9227721113	 0.25233
H	-0.3008492653	-2.8936702097	 0.951706458	 0.167949
H	 0.1825628186	-5.0954631524	-2.4819651483	 0.138315
H	 0.3888519208	-2.4894331602	-3.313735949	 0.105804
10.1661	81.337	102.151	164.5309	347.7626	350.4583	363.4832	471.3	568.3366	614.1253	622.7492	662.9906	725.4001	779.2831	780.1495	805.1982	889.6558	957.4109	987.9829	1027.4167	1049.6437	1065.9483	1094.765	1212.785	1239.4603	1262.0545	1291.9249	1395.6132	1404.0391	1468.9581	1488.0216	1521.7471	1568.2247	1646.0037	1779.1113	3049.1083	3122.9094	3132.7256	3247.0697	3284.4999	3341.4319	3652.4662
CC(=O)NC1=COC=C1	CC(=O)Nc1cocc1	
InChI=1S/C6H7NO2/c1-5(8)7-6-2-3-9-4-6/h2-4H,1H3,(H,7,8)	InChI=1S/C6H7NO2/c1-5(8)7-6-2-3-9-4-6/h2-4H,1H3,(H,7,8)
