23
gdb 79929	2.37488	1.39396	1.16076	0.2764	92.04	-0.2129	0.0282	0.2411	1235.1788	0.205201	-351.17286	-351.163396	-351.162452	-351.206281	36.901	
C	-0.1080165163	 1.5539715427	 0.0076442484	-0.4196
C	 0.0389604172	 0.0508070871	 0.0658361127	-0.041894
C	 1.3357141817	-0.7000569769	-0.2399663417	-0.135734
C	 2.6116775285	 0.0582062115	-0.1382364438	-0.177724
C	 2.8406511089	 0.5143269595	 1.099425477	 0.321312
C	 3.9875114695	 1.3547842392	 1.5650862607	-0.490253
C	 1.7334267511	 0.0794061088	 2.0441342853	-0.381901
C	 0.7463093791	-0.7056909871	 1.1684225889	 0.329824
C	 0.0909361758	-1.926456045	 1.7712195061	-0.483212
H	 0.8256999061	 2.0664085395	 0.2505400751	 0.121068
H	-0.4090248179	 1.8752380812	-0.9957464031	 0.112257
H	-0.876369633	 1.899972708	 0.7089809493	 0.110818
H	-0.8423117135	-0.4759156667	-0.2974859815	 0.075115
H	 1.2773759658	-1.5698512736	-0.8876742059	 0.074873
H	 3.2598167103	 0.2380863251	-0.9899805467	 0.081994
H	 4.6992397809	 1.5474160931	 0.7573781649	 0.121527
H	 3.6466473222	 2.3238714998	 1.9521934097	 0.122778
H	 4.5287316978	 0.8680346681	 2.3872322214	 0.121139
H	 2.1290075058	-0.5512821041	 2.8538146035	 0.097256
H	 1.2624684523	 0.9406298264	 2.5391848985	 0.102741
H	-0.5718548221	-1.6558983335	 2.6026836733	 0.113435
H	-0.5132474264	-2.4607398789	 1.0307832229	 0.111656
H	 0.838135116	-2.6283268842	 2.160831745	 0.112524
124.8094	171.7066	186.1864	195.1781	220.8677	231.5464	262.8812	309.904	364.3885	425.9753	482.9016	528.3472	560.1575	660.7456	738.246	764.5809	854.8908	865.795	881.555	938.0882	949.9449	961.6928	1004.8325	1026.4746	1045.7547	1064.9913	1086.3648	1110.5257	1123.2713	1139.4848	1188.4008	1198.6838	1236.2488	1274.185	1316.8471	1340.5183	1358.5376	1410.9229	1413.768	1417.1026	1446.1992	1476.5778	1478.4934	1488.5031	1489.7321	1497.1813	1502.4503	1503.5533	1706.5302	2996.5938	3012.3475	3015.8147	3022.5034	3028.8428	3054.9979	3071.9129	3082.3261	3092.5405	3106.4356	3108.0366	3124.6572	3148.3256	3180.9336
CC1C2C=C(C)CC12C	C[C@H]1[C@H]2C=C(C)C[C@@]12C	
InChI=1S/C9H14/c1-6-4-8-7(2)9(8,3)5-6/h4,7-8H,5H2,1-3H3	InChI=1S/C9H14/c1-6-4-8-7(2)9(8,3)5-6/h4,7-8H,5H2,1-3H3/t7-,8+,9-/m0/s1
