14
gdb 131086	4.57173	0.9317	0.82549	5.8753	64.16	-0.2712	-0.0101	0.2611	1310.7662	0.102606	-470.043921	-470.036134	-470.03519	-470.078008	26.719	
O	 0.4261582694	 0.2139534989	-0.4828891643	-0.274779
C	 0.5046226644	 1.4044530333	-0.482293612	 0.18636
O	 0.7965994023	 2.1076937793	 0.6337020549	-0.175837
C	 0.9255331434	 3.5296125685	 0.497009172	-0.203735
C	 2.3372005098	 3.9194168302	 0.2024044181	 0.356719
N	 3.0754515815	 4.6207526366	 1.0484184239	-0.253444
N	 4.2468271982	 4.724844665	 0.3806587582	-0.175812
C	 4.1680375369	 4.0920695147	-0.8075848622	 0.024292
N	 2.9676339035	 3.5718515669	-0.9582004744	-0.295543
H	 0.3389378004	 2.0478482799	-1.3662472713	 0.087947
H	 0.2605311546	 3.8887840265	-0.2974476652	 0.129143
H	 0.6114017434	 3.9636562765	 1.4464355078	 0.148351
H	 5.0195231922	 5.2197359669	 0.7958733316	 0.289494
H	 4.98716531	 4.0413772168	-1.5089691871	 0.156844
44.2566	54.461	136.9992	202.8371	289.6459	367.9344	404.8055	562.9356	657.3136	683.4915	711.8786	818.9691	865.4032	972.3281	998.4081	1012.7663	1033.484	1048.229	1107.8125	1142.7721	1180.9234	1285.0851	1306.7679	1370.751	1386.3069	1431.2143	1468.7017	1487.3458	1495.7049	1563.2917	1869.7731	2970.046	3041.4066	3139.9467	3262.3992	3662.6037
O=COCC1=NNC=N1	O=COCc1n[nH]cn1	
InChI=1S/C4H5N3O2/c8-3-9-1-4-5-2-6-7-4/h2-3H,1H2,(H,5,6,7)	InChI=1S/C4H5N3O2/c8-3-9-1-4-5-2-6-7-4/h2-3H,1H2,(H,5,6,7)
