18
gdb 113504	3.66701	0.97335	0.87186	3.3824	73.75	-0.2699	-0.004	0.2659	1369.3927	0.147421	-439.087814	-439.079067	-439.078123	-439.121879	31.682	
C	 0.2856355781	 1.544029571	 0.1541347008	-0.377771
C	-0.2349404197	 0.1382103116	-0.1658807575	-0.186775
C	 0.4851386856	-0.4808659559	-1.3416919093	-0.072415
N	 1.7808150697	-1.1173216337	-1.0632252774	-0.37192
C	 0.6621902497	-1.9483273483	-1.47826114	 0.117873
C	 0.064075541	-3.1594438947	-0.7743763711	-0.146204
O	-0.0469916593	-3.8246613384	-2.0810601804	-0.253114
C	 0.5404803238	-2.7658892219	-2.7375733766	 0.420837
O	 0.8169972698	-2.6684421675	-3.8904430097	-0.343919
H	 1.3534273153	 1.5137938269	 0.3906960653	 0.133499
H	 0.1465897095	 2.2214484023	-0.6953942889	 0.118086
H	-0.2414040482	 1.9720561908	 1.0116146004	 0.118576
H	-0.108571045	-0.5117830821	 0.70701141	 0.106775
H	-1.3090101813	 0.1747543702	-0.3872562863	 0.106488
H	 0.3945267217	 0.058484697	-2.2846414594	 0.110452
H	 2.4283245329	-1.0013842103	-1.8406882756	 0.252551
H	 0.7411558782	-3.7056850373	-0.1152607515	 0.13689
H	-0.9201515816	-3.0363889097	-0.3183391928	 0.13009
67.1805	103.7031	134.5386	171.4468	233.793	262.4023	280.3378	402.375	456.4669	575.3546	633.8384	733.2882	770.4934	798.6019	829.679	886.1379	923.6823	964.8537	978.4721	1026.7863	1073.1802	1080.6318	1108.9229	1113.2461	1128.1219	1144.5806	1229.8222	1246.3431	1303.6055	1314.6865	1341.0936	1383.1925	1407.8426	1475.6123	1494.4353	1498.9022	1508.9457	1510.8632	1932.9518	3029.9083	3037.0935	3069.6832	3075.2015	3105.7934	3115.6816	3117.8574	3139.2352	3489.5666
CCC1NC11COC1=O	CC[C@H]1N[C@]21COC2=O	
InChI=1S/C6H9NO2/c1-2-4-6(7-4)3-9-5(6)8/h4,7H,2-3H2,1H3	InChI=1S/C6H9NO2/c1-2-4-6(7-4)3-9-5(6)8/h4,7H,2-3H2,1H3/t4-,6+/m1/s1
