18
gdb 78523	2.45819	1.83072	1.21233	1.4939	72.53	-0.2103	0.0679	0.2782	1034.7139	0.145952	-438.979444	-438.971215	-438.97027	-439.011477	32.803	
C	 0.0672995429	 1.4552940407	-0.2918010002	-0.333132
N	 0.071959502	 0.0156782247	-0.0343509114	-0.140669
C	-1.0286496646	-0.5153755903	 0.8272349011	-0.175138
C	-0.1309902267	-1.7229900987	 1.2714586867	 0.441297
O	 0.0457572192	-2.9132767461	 0.6176170349	-0.476889
C	-0.4299762311	-1.5563600135	 2.7604248391	-0.37981
C	-0.3650923121	-0.1060250382	 2.2087212416	 0.378734
O	-0.4558032405	 1.0748649564	 2.9151557764	-0.465833
C	 0.7811564918	-0.444564528	 1.1981921355	-0.140697
H	 1.044446619	 1.7490729775	-0.690176911	 0.115974
H	-0.6820371547	 1.6769813339	-1.0596772941	 0.113435
H	-0.1465472725	 2.068575999	 0.5952794319	 0.121554
H	-2.0806529241	-0.5196508049	 0.5352167001	 0.076364
H	 0.2257528092	-2.6958992681	-0.3068775789	 0.293689
H	-1.4068758065	-1.9116423663	 3.1037477485	 0.095632
H	 0.3624880417	-1.8485273812	 3.4551768072	 0.105842
H	-1.281153275	 1.0726838608	 3.4130421894	 0.287595
H	 1.8594332021	-0.3667767577	 1.3461252731	 0.082051
181.7305	213.5178	229.5846	238.8801	268.8793	291.448	373.6336	414.158	433.5053	491.5701	569.6203	607.346	680.1748	697.5193	759.2508	834.0614	879.7878	920.4069	945.3206	999.2549	1040.8478	1065.3832	1085.0996	1091.1512	1116.6565	1145.132	1156.7612	1162.4501	1186.7028	1204.2547	1272.3163	1292.0972	1331.4488	1395.5478	1430.258	1447.7276	1490.1296	1506.3018	1528.7957	2999.8396	3045.3134	3069.6798	3091.7644	3097.9746	3107.7895	3109.9653	3767.853	3796.5199
CN1C2C3(O)CC2(O)C13	CN1[C@H]2[C@]3(O)C[C@@]2(O)[C@H]13	
InChI=1S/C6H9NO2/c1-7-3-5(8)2-6(3,9)4(5)7/h3-4,8-9H,2H2,1H3	InChI=1S/C6H9NO2/c1-7-3-5(8)2-6(3,9)4(5)7/h3-4,8-9H,2H2,1H3/t3-,4+,5+,6-
