19
gdb 53145	2.77778	1.15907	0.98377	1.7154	84.31	-0.2386	0.0446	0.2832	1290.5485	0.158602	-385.837657	-385.828534	-385.82759	-385.872685	33.67	
C	 0.0142009736	 1.5115438285	 0.0471300918	-0.502499
C	-0.0421708023	 0.0555854017	 0.0422836248	 0.08867
C	-0.0738506058	-1.1512239735	 0.0359032603	 0.05568
C	-0.0889528115	-2.5921944126	 0.0278001226	-0.212533
C	-0.4496804536	-3.4359418026	 1.234975126	-0.064943
C	-1.5197495419	-2.7309886723	 2.0716394138	-0.288953
C	-2.4795560966	-2.7885968811	 0.8241303242	 0.136943
O	-3.1049644889	-1.6285812307	 0.351776015	-0.435981
C	-1.3529581521	-3.4343566122	 0.0038055117	-0.110799
H	 1.0320527585	 1.8666334566	 0.2426427769	 0.151791
H	-0.3046753474	 1.9288790824	-0.9143637522	 0.151243
H	-0.6358742496	 1.9310176165	 0.8226561881	 0.152852
H	 0.7028769322	-3.0343030626	-0.5727555442	 0.112083
H	 0.2182585607	-4.2151383711	 1.5804143358	 0.091949
H	-1.8873569684	-3.3212677838	 2.9133547893	 0.103114
H	-1.2587961554	-1.7285421746	 2.4221152688	 0.10615
H	-3.2801560654	-3.5111555005	 1.0032157524	 0.092456
H	-2.4072830475	-0.9955661618	 0.138634929	 0.2848
H	-1.4821147385	-4.1911507162	-0.7615556338	 0.087976
27.391	85.7343	98.4027	190.5375	249.3321	297.9714	348.994	405.7378	459.3825	473.6736	525.0902	585.7259	709.0284	760.9806	787.2677	814.7241	864.9235	922.1563	966.4866	1006.8979	1011.9885	1048.0969	1052.1473	1054.2123	1070.5494	1077.0664	1120.7778	1162.907	1210.7148	1227.8098	1258.5498	1295.538	1316.9191	1339.046	1411.3541	1417.0697	1452.9817	1477.028	1479.363	1482.8302	2352.2824	3027.6261	3061.3993	3075.2578	3088.0913	3090.2954	3119.1073	3133.1714	3173.1407	3191.8661	3758.6849
CC#CC1C2CC(O)C12	CC#C[C@H]1[C@H]2C[C@@H](O)[C@@H]12	
InChI=1S/C8H10O/c1-2-3-5-6-4-7(9)8(5)6/h5-9H,4H2,1H3	InChI=1S/C8H10O/c1-2-3-5-6-4-7(9)8(5)6/h5-9H,4H2,1H3/t5-,6+,7+,8-/m0/s1
