18
gdb 97392	6.18067	0.72701	0.6585	1.7625	82.19	-0.2224	0.0089	0.2314	1700.9641	0.148554	-435.292487	-435.283331	-435.282387	-435.327703	31.706	
C	 0.4322193407	 1.824787584	 0.9197394206	-0.309961
N	 0.9870604756	 0.5032301056	 0.7127442056	-0.24041
C	 0.2323066152	-0.3685297777	 0.1925547244	 0.118184
N	 0.6897405919	-1.654745218	-0.0372020729	-0.40655
C	-0.0663391692	-2.6484073374	-0.5951079204	 0.531876
N	-1.2744174203	-2.5665000148	-0.987752387	-0.355852
C	-1.6196885857	-3.8955978299	-1.5019758477	-0.180635
C	-0.3292347925	-4.743258563	-1.3165294842	-0.11152
O	 0.6088851516	-3.8228656304	-0.7131659776	-0.271334
H	 0.488030947	 2.0858157204	 1.9831328062	 0.12591
H	 1.0339143439	 2.5660174508	 0.3806183015	 0.125923
H	-0.615022136	 1.9250281993	 0.5929958793	 0.101715
H	-0.8068322598	-0.2242398197	-0.1197233256	 0.132777
H	 1.6398851583	-1.8690369632	 0.2242464616	 0.268927
H	-2.4674835477	-4.3133401592	-0.9471439456	 0.11353
H	-1.9216672158	-3.8340064364	-2.5536007116	 0.113613
H	-0.4553706782	-5.5925076143	-0.6397179933	 0.121967
H	 0.100383311	-5.0989157561	-2.2569305132	 0.121841
52.8727	66.7282	113.2603	114.8232	200.7159	233.7159	318.2396	331.5806	386.3781	560.902	563.024	716.0916	756.7044	796.2362	833.7319	929.5972	976.3394	1006.2404	1019.0724	1034.7864	1105.6413	1125.4117	1143.4095	1149.1634	1220.319	1239.578	1243.112	1270.0414	1330.9347	1363.7579	1384.3949	1448.2346	1480.0873	1499.3204	1511.5809	1525.2405	1552.4024	1750.2129	1770.813	2975.8409	3030.561	3055.5734	3057.3671	3058.2436	3072.3348	3086.9961	3106.0347	3640.121
CN=CNC1=NCCO1	CN=CNC1=NCCO1	
InChI=1S/C5H9N3O/c1-6-4-8-5-7-2-3-9-5/h4H,2-3H2,1H3,(H,6,7,8)	InChI=1S/C5H9N3O/c1-6-4-8-5-7-2-3-9-5/h4H,2-3H2,1H3,(H,6,7,8)
