17
gdb 86024	3.3413	1.1848	1.12396	5.3745	74.39	-0.2525	-0.0214	0.231	1126.5842	0.136757	-418.015667	-418.007097	-418.006152	-418.048612	32.65	
N	-0.4213529291	 1.1926268242	-0.2969796089	-0.534629
C	-0.0003783366	-0.1732507983	 0.0657914786	 0.098819
C	-1.2496567029	-1.0917300288	 0.2112118806	-0.24361
C	-1.4035680432	-1.7615227405	-1.1623840763	 0.058939
O	-2.2753716767	-0.9397716315	-1.9535150583	-0.431568
C	 0.0111596023	-1.746156116	-1.7051880203	-0.113853
C	 0.7795638931	-0.8878873027	-1.0390601288	-0.097248
C	 0.778990611	-0.1003985177	 1.3122916627	 0.26977
N	 1.4160080972	-0.0608107961	 2.2754996197	-0.3413
H	 0.3893728799	 1.7557901459	-0.5407464145	 0.234195
H	-1.0002119558	 1.1179977948	-1.1306968098	 0.24474
H	-1.0613116234	-1.8523519249	 0.9711020607	 0.129212
H	-2.1330873399	-0.5181970747	 0.4936123853	 0.138188
H	-1.8233337802	-2.7726499131	-1.0789964383	 0.078104
H	-2.2609656009	-1.2679387817	-2.8588993824	 0.285158
H	 0.3107808934	-2.3113454158	-2.581509615	 0.106836
H	 1.8105853716	-0.633701873	-1.257815335	 0.118247
92.1057	137.4789	174.6546	245.8805	279.5574	318.4309	370.3673	383.6045	418.6758	529.4365	540.6299	560.798	632.8887	770.6645	796.6673	817.7095	858.8735	894.1043	946.6507	977.9404	990.9648	1005.7891	1034.1692	1103.284	1122.0531	1152.2584	1222.3447	1230.6708	1303.7993	1327.9365	1351.3765	1379.8417	1402.3456	1474.703	1652.1339	1674.5564	2359.4112	3014.9648	3089.3334	3147.6587	3181.9126	3209.3369	3475.1739	3563.5347	3812.6167
NC1(CC(O)C=C1)C#N	N[C@]1(C[C@@H](O)C=C1)C#N	
InChI=1S/C6H8N2O/c7-4-6(8)2-1-5(9)3-6/h1-2,5,9H,3,8H2	InChI=1S/C6H8N2O/c7-4-6(8)2-1-5(9)3-6/h1-2,5,9H,3,8H2/t5-,6+/m0/s1
