21
gdb 52422	5.53563	0.5027	0.48072	4.2238	81.27	-0.2759	0.0102	0.2861	2244.2148	0.181223	-424.237604	-424.22759	-424.226646	-424.274651	34.977	
O	 0.3317816259	 0.2023311328	-0.6685878021	-0.275479
C	 0.3335959457	 1.3859111846	-0.5101127015	 0.171059
O	 0.9194553071	 1.982133714	 0.5425595228	-0.17372
C	 0.9026225879	 3.4157318115	 0.6028538909	-0.09158
C	 2.2744242826	 3.9883965347	 0.2688692541	-0.181044
C	 2.3242149001	 5.5142575279	 0.4260271123	-0.213477
C	 3.6847981575	 6.0931749515	 0.1003722013	 0.036169
C	 4.053630141	 6.4173487439	-1.3263965021	-0.254802
C	 3.8243143472	 7.5296495315	-0.3316557089	-0.277524
H	-0.1478843251	 2.1093458561	-1.1988260439	 0.07275
H	 0.1351898998	 3.8079450657	-0.0783669567	 0.108937
H	 0.6055463895	 3.673817591	 1.6241134697	 0.12522
H	 3.0175353599	 3.5180030279	 0.9234472755	 0.117443
H	 2.541599394	 3.7109408328	-0.7580490704	 0.109644
H	 1.5717670315	 5.97736966	-0.2272635814	 0.093727
H	 2.0440752495	 5.785234532	 1.4534651818	 0.101031
H	 4.4910835713	 5.7054393783	 0.7187415877	 0.084693
H	 5.0667407697	 6.2222783571	-1.6597424188	 0.114374
H	 3.2991237186	 6.2620281248	-2.0912811492	 0.108436
H	 2.9181065817	 8.1184444594	-0.4313642402	 0.110271
H	 4.6816536946	 8.0938816423	 0.0180518191	 0.113871
33.6137	53.6457	86.905	110.3402	142.9866	172.4452	273.3148	310.3507	376.3364	395.8769	474.1614	673.4009	752.6434	776.4366	807.3802	832.9135	866.9466	925.6128	966.6808	1034.3355	1037.3729	1046.9068	1054.2327	1062.2543	1078.8381	1094.4061	1139.7238	1144.5858	1198.1146	1213.0279	1230.2001	1266.3047	1276.4103	1321.2339	1333.9084	1368.6285	1410.0449	1420.7116	1435.6172	1468.5296	1483.9928	1495.0652	1507.8374	1513.1811	1866.9321	2933.4141	3004.4457	3016.3043	3034.9342	3037.125	3070.5021	3093.5371	3128.0255	3131.4306	3134.9544	3206.7088	3221.8381
O=COCCCC1CC1	O=COCCCC1CC1	
InChI=1S/C7H12O2/c8-6-9-5-1-2-7-3-4-7/h6-7H,1-5H2	InChI=1S/C7H12O2/c8-6-9-5-1-2-7-3-4-7/h6-7H,1-5H2
