19
gdb 94014	3.1721	1.08103	1.01859	3.0557	79.23	-0.2389	-0.0299	0.209	1258.7029	0.158738	-423.043425	-423.034723	-423.033779	-423.077225	32.338	
C	 0.0882284634	 1.5392168133	-0.0417138103	-0.397949
C	 0.0293396053	 0.0151071622	 0.0227098962	 0.094156
O	 0.5989549567	-0.4705995845	-1.1867593062	-0.262409
C	 0.8677856773	-1.8595819694	-1.1691533097	-0.116693
C	 1.9572942372	-2.199065259	-0.1384490725	-0.124282
C	 3.3214323217	-1.6974045699	-0.5991364771	 0.157278
O	 4.3458772138	-2.3229863712	-0.5114647129	-0.252528
C	 1.6096134223	-1.5328844297	 1.1735984821	-0.11236
C	 0.7272876628	-0.53777137	 1.238689716	-0.055369
H	 1.1276925508	 1.8784822439	-0.0611194313	 0.128575
H	-0.4119503435	 1.8929097197	-0.9469029415	 0.129259
H	-0.4086742638	 1.9797414779	 0.8276232783	 0.117073
H	-1.0329446301	-0.2923687899	 0.0645641642	 0.080658
H	-0.0415220503	-2.4343369499	-0.9326070196	 0.10137
H	 1.1786741243	-2.1223374163	-2.1850064261	 0.115832
H	 2.0381407088	-3.2832991637	-0.0040427845	 0.097301
H	 3.2963697223	-0.6671864798	-1.0174112956	 0.09109
H	 2.1166653797	-1.8927491724	 2.0638194137	 0.108784
H	 0.4600468812	-0.0907721213	 2.1927785468	 0.100214
65.7943	80.6319	188.799	211.1981	250.0869	310.1531	333.7115	378.3785	437.8755	503.0455	559.7743	621.2923	732.7362	809.9927	823.4907	888.0845	914.1711	964.2563	969.8108	1001.6742	1049.5771	1075.9463	1108.3017	1114.6854	1127.1844	1164.2476	1214.0742	1251.9158	1302.466	1313.9265	1333.3044	1358.6693	1392.0523	1404.6022	1411.4752	1422.4185	1484.5828	1495.1522	1500.4025	1709.7021	1827.8444	2896.3139	2920.473	2982.6056	3045.6065	3056.9353	3079.9798	3121.9241	3127.7084	3157.6643	3181.2618
CC1OCC(C=O)C=C1	C[C@H]1OC[C@@H](C=O)C=C1	
InChI=1S/C7H10O2/c1-6-2-3-7(4-8)5-9-6/h2-4,6-7H,5H2,1H3	InChI=1S/C7H10O2/c1-6-2-3-7(4-8)5-9-6/h2-4,6-7H,5H2,1H3/t6-,7-/m1/s1
