19
gdb 86757	2.97446	1.17305	0.93677	1.9742	84.65	-0.2405	0.0135	0.254	1301.7006	0.156868	-385.867489	-385.858065	-385.857121	-385.901761	35.039	
C	 0.1987553411	 1.6356363646	-0.0715752228	-0.396703
C	-0.0436667288	 0.1405035727	 0.1257638497	 0.051038
O	 0.4004412264	-0.5616600889	-1.0406891632	-0.277411
C	 1.2212474121	-1.6734128435	-0.6714508152	-0.095488
C	 1.4382669594	-1.5048818661	 0.8154675473	-0.21491
C	 0.7153981505	-0.4888108535	 1.2744981866	 0.309917
C	 0.5850319566	 0.0003542014	 2.6807432471	-0.497358
C	 0.5865928826	-2.9558341457	-1.0067012857	 0.338826
C	 0.082558	-4.0135202755	-1.274665412	-0.478923
H	 1.269611585	 1.8434019843	-0.1570489786	 0.119813
H	-0.2942350576	 1.9736044369	-0.9869833488	 0.130185
H	-0.2079457569	 2.2099625146	 0.7671733761	 0.112696
H	-1.1273926063	-0.0259823944	 0.2578773136	 0.082813
H	 2.163354026	-1.6004885487	-1.2364026426	 0.111271
H	 2.0700993723	-2.1710318046	 1.3884864664	 0.109904
H	 1.1724156995	-0.6085297924	 3.3721992711	 0.13014
H	 0.9177111211	 1.0408783582	 2.7752933669	 0.13405
H	-0.4618008444	-0.0253066013	 3.0088729536	 0.132622
H	-0.3673086886	-4.9447754181	-1.5159460695	 0.197517
58.9371	104.2494	166.8879	193.9843	226.814	246.5969	276.734	335.229	371.9891	493.2948	531.6565	573.45	607.2147	617.8738	664.6915	783.799	796.4224	839.0961	875.975	936.459	991.5243	1015.8049	1036.5224	1052.3375	1093.3965	1108.8122	1123.2662	1210.5569	1270.5381	1307.0871	1337.8371	1363.3603	1377.6129	1400.2777	1415.2114	1479.146	1485.1583	1491.8867	1496.5395	1732.8683	2231.6038	2943.8581	2980.2642	3023.5152	3038.525	3071.987	3112.0954	3118.8137	3122.2407	3220.1683	3502.7854
CC1OC(C=C1C)C#C	C[C@H]1O[C@@H](C=C1C)C#C	
InChI=1S/C8H10O/c1-4-8-5-6(2)7(3)9-8/h1,5,7-8H,2-3H3	InChI=1S/C8H10O/c1-4-8-5-6(2)7(3)9-8/h1,5,7-8H,2-3H3/t7-,8-/m1/s1
