19
gdb 77732	2.76001	1.57546	1.49216	2.1416	73.37	-0.2327	0.0507	0.2834	992.3926	0.160991	-422.97575	-422.968315	-422.967371	-423.007128	30.392	
O	 0.1770988017	 1.1712543972	 0.1550149189	-0.443561
C	-0.0427548565	-0.1944309687	 0.0364892256	 0.047422
C	-1.4467507471	-0.7964539422	 0.023900784	 0.122634
C	-2.3608535307	 0.1420249778	-0.7657565793	-0.163729
O	-1.4129818731	 0.2199197977	-1.8827458228	-0.348153
C	-0.5859183942	-0.7668023448	-1.230008811	 0.323806
C	-0.3445528452	-2.1680186146	-1.7270027465	-0.305347
C	-0.6095837817	-3.0276074311	-0.45077128	-0.219347
C	-1.6731817036	-2.2496722413	 0.3943706582	-0.299196
H	-0.1351928349	 1.5633871658	-0.672486117	 0.297435
H	 0.7066447258	-0.7749157345	 0.5660344353	 0.107808
H	-3.2953589551	-0.3285800819	-1.0901812878	 0.111631
H	-2.5676723113	 1.1312957603	-0.3433949892	 0.114149
H	-1.0860221529	-2.3862537514	-2.5036640757	 0.11702
H	 0.6473253914	-2.3528440122	-2.1508495578	 0.107659
H	-0.9315682927	-4.043178435	-0.6970621815	 0.106242
H	 0.3180071035	-3.126891802	 0.1230478277	 0.112898
H	-1.5801047988	-2.4733699329	 1.4619389348	 0.106338
H	-2.6849598446	-2.5439002264	 0.091368054	 0.104289
183.2662	213.6063	239.6984	265.414	309.5981	386.8089	464.149	500.828	591.2141	617.8503	640.8143	757.641	789.566	824.3857	846.0309	875.6294	905.8617	944.8629	972.0083	993.3481	1023.394	1032.3274	1050.3272	1138.9011	1156.2231	1189.1849	1195.2942	1222.6608	1237.6589	1249.0693	1280.6215	1304.3052	1326.2101	1335.4872	1347.171	1382.5999	1471.2748	1487.1529	1489.1851	1503.3981	1513.098	3029.0485	3035.9588	3044.6235	3047.7323	3076.1299	3082.65	3085.6271	3101.5002	3160.4376	3745.086
OC1C23COC12CCC3	O[C@H]1[C@@]23CO[C@@]12CCC3	
InChI=1S/C7H10O2/c8-5-6-2-1-3-7(5,6)9-4-6/h5,8H,1-4H2	InChI=1S/C7H10O2/c8-5-6-2-1-3-7(5,6)9-4-6/h5,8H,1-4H2/t5-,6+,7-/m0/s1
