17
gdb 18225	3.96622	1.75808	1.45206	2.173	67.24	-0.2419	-0.026	0.2159	884.1812	0.143324	-363.853399	-363.846328	-363.845383	-363.885098	26.659	
O	-0.5573462823	 0.724097267	-0.610830476	-0.242388
C	 0.1575971587	 1.0316532125	 0.3084051612	 0.153756
C	 1.3639874893	 1.9444497449	 0.1935802269	-0.049791
C	 1.5005658395	 2.693722584	-1.1480543636	-0.248836
C	 2.1834057851	 4.020453138	-0.7527950706	-0.232285
C	 1.7967821649	 4.2157215595	 0.7059015795	-0.001396
C	 0.3737373632	 4.0244597313	 1.0792923843	-0.257019
N	 1.3505030192	 2.9360418989	 1.2970032358	-0.115977
H	-0.0270210874	 0.659046446	 1.3396940246	 0.093637
H	 2.2469843004	 1.3121316645	 0.3731845467	 0.103034
H	 2.0781289866	 2.123658441	-1.8781613471	 0.112159
H	 0.5139867099	 2.8548249559	-1.5888368314	 0.127075
H	 3.2731168132	 3.9360815193	-0.8276580548	 0.108865
H	 1.8786177538	 4.8574327604	-1.3882820853	 0.110993
H	 2.4359297278	 4.8308505469	 1.3329914207	 0.094086
H	-0.010089544	 4.4641936394	 1.9945411245	 0.120857
H	-0.3636858877	 3.9209067205	 0.2869987745	 0.123227
61.8841	148.2389	215.488	265.3799	371.4313	443.2333	581.6764	650.1932	664.8113	745.7009	815.0047	833.1369	867.4051	921.1727	945.727	966.3351	1016.8946	1019.166	1086.027	1108.2462	1115.7008	1123.4912	1167.4771	1189.4199	1216.3079	1264.8125	1289.1153	1303.965	1332.5618	1357.7187	1386.9599	1413.4511	1491.4461	1496.0375	1522.0722	1829.7492	2898.935	2992.8341	3045.3764	3077.8733	3088.3847	3112.3949	3122.1968	3148.3352	3198.2024
O=CC1CCC2CN12	O=C[C@H]1CC[C@H]2CN12	
InChI=1S/C6H9NO/c8-4-6-2-1-5-3-7(5)6/h4-6H,1-3H2	InChI=1S/C6H9NO/c8-4-6-2-1-5-3-7(5)6/h4-6H,1-3H2/t5-,6+,7?/m0/s1
