16
gdb 127403	3.04018	1.69464	1.12639	4.6708	72.31	-0.2056	-0.0363	0.1693	1035.2209	0.125431	-434.025851	-434.018367	-434.017423	-434.057787	28.085	
C	-0.0898078013	 1.5202552472	-0.0236284551	-0.339126
N	 0.0784771231	 0.0775239309	 0.0410489829	-0.173072
C	 0.7115113217	-0.5535811661	-1.1543044127	-0.163439
C	 1.3993524045	-1.8822800723	-0.6723382744	-0.364347
C	 1.5474480991	-1.5494586484	 0.7755719764	 0.315308
C	 0.8019575154	-0.4684765332	 1.1017792761	 0.33081
N	 0.8952080019	-0.2783198455	 2.4437257129	-0.229307
N	 1.6442270144	-1.1659151215	 2.9507530909	-0.043768
O	 2.091355336	-2.0590228216	 1.8641820624	-0.232496
H	 0.8598938483	 2.0544606527	-0.1986847067	 0.10911
H	-0.7821978352	 1.7696696528	-0.8325372143	 0.127948
H	-0.5194555422	 1.8744890867	 0.9160732086	 0.151239
H	-0.0338683025	-0.7268820249	-1.9340450542	 0.123166
H	 1.481702376	 0.1217302633	-1.5589877582	 0.108283
H	 0.745121002	-2.751618992	-0.8132135246	 0.14111
H	 2.3323301787	-2.0784132582	-1.2061074299	 0.13858
127.8914	166.2607	209.5989	224.2492	276.0063	389.5267	456.2234	516.1037	583.657	639.3423	652.4696	717.9144	747.9716	829.7448	927.8149	984.6676	1003.1687	1067.4973	1115.9719	1146.6801	1178.1189	1198.3183	1226.2292	1257.3318	1293.9086	1341.3811	1380.4505	1421.3356	1454.53	1481.2656	1488.1703	1490.3449	1508.2294	1527.5606	1648.9686	2960.3306	2980.9619	3032.2485	3081.839	3093.1011	3100.6755	3129.9593
CN1CCC2=C1N=NO2	CN1CCc2c1nno2	
InChI=1S/C5H7N3O/c1-8-3-2-4-5(8)6-7-9-4/h2-3H2,1H3	InChI=1S/C5H7N3O/c1-8-3-2-4-5(8)6-7-9-4/h2-3H2,1H3
