24
gdb 9422	6.0769	0.68925	0.65071	1.4057	82.79	-0.2607	0.0722	0.333	1838.2787	0.221361	-351.421731	-351.410913	-351.409969	-351.457958	38.577	
C	-0.0100521003	 1.5845696196	 0.1002833968	-0.378683
C	 0.0103142	 0.0550818439	 0.0301321204	-0.165135
C	 0.6914804415	-0.4790942485	-1.2338587569	-0.157039
C	 0.7127884068	-2.0084532796	-1.3164429618	-0.203273
C	 1.4519970798	-2.5484643341	-2.5470425016	 0.134882
O	 2.8027081945	-2.0825598765	-2.591017496	-0.428581
C	 1.3871039491	-4.0783055929	-2.6440805051	-0.185127
C	 2.0577258103	-4.6334937536	-3.9026404197	-0.380348
H	 1.0061335005	 1.9940876374	 0.0853624204	 0.113892
H	-0.5487817543	 2.0123136771	-0.7526541776	 0.113121
H	-0.4987837841	 1.9381200169	 1.013689837	 0.108852
H	 0.5232783823	-0.3450880732	 0.9152127979	 0.090372
H	-1.018073512	-0.3276102124	 0.0803447745	 0.091151
H	 0.1790923911	-0.0777452418	-2.1195934676	 0.089397
H	 1.7212563779	-0.1072619543	-1.2884777566	 0.104636
H	 1.1869762095	-2.422274401	-0.4125935535	 0.079478
H	-0.3144228937	-2.3969565424	-1.3218348057	 0.092068
H	 0.9953699024	-2.1193000522	-3.4497061398	 0.082579
H	 3.2522780056	-2.4317740332	-1.8126237614	 0.274205
H	 1.8612052162	-4.5049259482	-1.7473912469	 0.082438
H	 0.3355505822	-4.3898289607	-2.6070794146	 0.094507
H	 1.5447436424	-4.2863492163	-4.8064462639	 0.113087
H	 3.0963493924	-4.2984465664	-3.9642772791	 0.126489
H	 2.0447985201	-5.7275608276	-3.9107782392	 0.107032
60.7463	69.6975	97.091	127.2286	150.537	219.0999	239.4599	245.9706	290.9096	309.6819	326.6368	437.7618	484.8989	542.8269	735.8827	775.7105	792.2376	860.1154	905.9152	923.1818	971.9982	1004.3663	1027.0933	1051.3491	1075.2123	1087.7439	1109.5623	1134.7023	1163.2423	1232.1896	1262.8996	1268.0153	1305.0123	1318.1731	1329.9734	1361.6647	1373.4937	1392.5947	1399.0624	1405.4254	1413.3166	1421.8392	1472.9742	1484.7203	1486.4822	1495.0303	1499.5447	1500.095	1509.7107	1513.6199	2987.2281	2998.6682	3007.2487	3015.0407	3021.912	3028.8672	3035.1638	3036.3672	3037.4084	3052.6521	3072.2286	3095.6486	3100.2778	3100.8501	3121.7074	3788.1974
CCCCC(O)CC	CCCC[C@@H](O)CC	
InChI=1S/C7H16O/c1-3-5-6-7(8)4-2/h7-8H,3-6H2,1-2H3	InChI=1S/C7H16O/c1-3-5-6-7(8)4-2/h7-8H,3-6H2,1-2H3/t7-/m0/s1
