21
gdb 40826	3.60034	1.16141	0.99677	1.6795	79.06	-0.2575	0.0907	0.3482	1263.7813	0.184363	-424.219484	-424.21133	-424.210386	-424.252399	31.902	
C	-0.2037882478	 1.3776778002	-0.1826095451	-0.247561
C	 1.2098392293	 0.9778215806	 0.159965974	-0.270121
C	 0.1301101393	-0.0681558604	 0.0703969857	-0.030531
C	-0.3646856074	-0.7644723472	 1.3097898309	 0.202934
O	-0.3861488258	 0.1437119091	 2.3872379323	-0.252831
C	-0.8409024279	-0.4661758333	 3.5875611274	-0.076185
C	-2.2271520353	-1.0801704538	 3.3828574041	-0.205872
C	-2.1760297669	-1.9903182867	 2.1537807939	-0.077477
O	-1.647722404	-1.2862454399	 1.0387217185	-0.252408
H	-0.7722823561	 1.8936507113	 0.5809635195	 0.125835
H	-0.4286157343	 1.6737710989	-1.2009429381	 0.106012
H	 1.9626285626	 0.9990688112	-0.6201710929	 0.105744
H	 1.5688151425	 1.2334704003	 1.1497351964	 0.122964
H	 0.14613343	-0.7307564506	-0.7885462588	 0.091828
H	 0.3035937647	-1.6085149431	 1.5796715989	 0.049932
H	-0.1259172574	-1.2453776343	 3.9030138115	 0.088851
H	-0.8464959167	 0.3164539916	 4.3506476816	 0.110589
H	-2.5339195783	-1.6438202985	 4.2710878873	 0.097196
H	-2.956781938	-0.2816317852	 3.2129533533	 0.114911
H	-1.5540118425	-2.8771375054	 2.3678855371	 0.08606
H	-3.16984199	-2.338501115	 1.8604958825	 0.110132
73.1793	129.4361	184.1971	254.3899	266.7605	355.3789	397.7486	471.0589	490.2532	601.9751	646.8988	786.8914	809.2439	845.0919	864.868	900.1663	922.907	938.6938	954.8395	995.1032	1019.6005	1055.4302	1064.0773	1073.2025	1086.5997	1132.6784	1141.6799	1163.6671	1180.5387	1203.0901	1232.2992	1239.0033	1264.4646	1306.5911	1369.4515	1373.1286	1386.0198	1414.5692	1419.3911	1435.099	1459.6134	1468.8417	1494.5058	1503.8051	1505.9284	2886.181	2954.5419	2964.5798	3042.4641	3088.2213	3090.6615	3097.5493	3140.1402	3145.4917	3167.2124	3225.9112	3240.5375
C1CC1C1OCCCO1	C1CC1C1OCCCO1	
InChI=1S/C7H12O2/c1-4-8-7(9-5-1)6-2-3-6/h6-7H,1-5H2	InChI=1S/C7H12O2/c1-4-8-7(9-5-1)6-2-3-6/h6-7H,1-5H2
