20
gdb 19069	3.4374	2.31463	1.96066	0.1531	76.83	-0.2515	0.0853	0.3368	796.2535	0.181479	-311.855095	-311.848982	-311.848038	-311.88476	26.65	
C	-0.0004474548	 1.5308854931	-0.1673913908	-0.309622
C	 1.3005479802	 0.777301842	 0.0095302436	-0.013157
C	 2.0978812861	 0.7989611219	 1.3176479234	-0.228147
C	 1.424677399	-0.0344980784	 2.423843229	 0.004378
C	-0.066814044	 0.3650666264	 2.5852577215	-0.231864
C	-0.3540861735	-0.5897475423	 1.3918064308	-0.024071
C	 0.9034894843	-1.3899223596	 1.8570815997	-0.215812
C	-0.021234247	 0.0392044624	 0.0443018146	-0.007579
H	-0.3424467943	 2.1866890244	 0.6252180922	 0.110755
H	-0.2263549066	 1.8991576179	-1.1628393504	 0.102832
H	 1.9015162372	 0.6787607108	-0.8888342086	 0.078965
H	 3.0946111149	 0.3832035315	 1.125890761	 0.09484
H	 2.2555546091	 1.8269601593	 1.6703360756	 0.093625
H	 2.0473022594	-0.0613564237	 3.3218729558	 0.053674
H	-0.4894611498	-0.0398776968	 3.5090061081	 0.093
H	-0.3405975702	 1.4201977545	 2.5122267947	 0.089183
H	-1.3217953066	-1.0969861267	 1.3741713853	 0.056108
H	 1.4969187045	-1.8916720899	 1.086858803	 0.085762
H	 0.6714155253	-2.094955978	 2.6601302268	 0.090122
H	-0.2770558632	-0.5778166191	-0.8129058353	 0.077009
245.9068	264.3362	389.5179	423.7529	450.6373	504.9344	605.4319	728.61	795.6377	820.4266	829.4812	847.514	857.6559	898.9815	907.205	939.1386	955.5764	979.4336	1009.5322	1054.6919	1071.5388	1080.8998	1109.9809	1116.0715	1130.083	1131.4221	1140.3285	1159.8788	1219.3701	1235.7343	1248.6798	1269.1788	1299.7153	1318.3993	1340.3918	1365.4283	1383.0113	1406.7372	1473.8615	1484.245	1498.3585	1519.3279	3012.2711	3045.8373	3049.005	3054.9079	3068.5585	3074.405	3103.9053	3106.0166	3131.621	3136.9359	3151.7698	3213.7187
C1C2CC3CC(C3)C12	C1[C@H]2C[C@H]3C[C@H](C3)[C@@H]12	
InChI=1S/C8H12/c1-5-2-6(1)8-4-7(8)3-5/h5-8H,1-4H2	InChI=1S/C8H12/c1-5-2-6(1)8-4-7(8)3-5/h5-8H,1-4H2/t5-,6+,7-,8-/m1/s1
