12
gdb 25211	2.49783	1.93514	1.33883	4.4911	64.04	-0.273	-0.0884	0.1847	908.0393	0.078276	-468.821933	-468.814797	-468.813853	-468.85403	25.516	
N	-0.2488757852	 1.4178598401	-0.2465682796	-0.471184
C	-0.0842690358	 0.1809999492	-0.1954184036	 0.33329
O	 1.1879632042	-0.407786745	-0.350620032	-0.21651
C	 1.3977044533	-1.697102691	-0.6870608015	 0.154641
N	 0.6409151925	-2.5344315949	-1.2708805551	-0.259578
C	-0.6790462979	-2.2787428162	-1.6130682046	 0.076645
N	-1.5509882411	-1.594324016	-0.9782375443	-0.223933
C	-1.1915104515	-0.8236127943	 0.123043016	 0.329021
O	-1.712915593	-0.8673418498	 1.2039326827	-0.281368
H	 0.6148407949	 1.9152787655	-0.4702906595	 0.246438
H	 2.415584609	-1.9768744461	-0.4263923166	 0.162246
H	-0.9984960692	-2.8082080216	-2.5095423619	 0.150292
81.1327	112.1328	247.9926	292.9604	308.5008	382.7474	479.3161	600.2548	618.2861	706.5707	760.3988	835.6314	862.2702	904.5753	928.9895	967.8312	1007.8301	1033.245	1133.8096	1205.0351	1244.9426	1422.5387	1432.6505	1651.1155	1704.3818	1791.7986	1829.3849	3152.0297	3180.4008	3480.5692
N=C1OC=NC=NC1=O	[NH][C]1OC=NC=NC1=O	
InChI=1S/C4H3N3O2/c5-3-4(8)7-1-6-2-9-3/h1-2,5H	InChI=1S/C4H3N3O2/c5-3-4(8)7-1-6-2-9-3/h1-2,5H
