18
gdb 108954	3.38311	1.23383	1.17994	2.3967	72.51	-0.215	0.0518	0.2668	1133.9081	0.149151	-435.254253	-435.245457	-435.244513	-435.287986	32.25	
C	-0.0757109368	 1.4336486558	-0.1911775687	-0.319565
N	-0.1356517889	 0.0003709113	 0.0251928121	-0.376027
C	-1.3294020446	-0.6424360395	 0.0315852898	 0.493519
N	-2.4991918949	-0.1142230209	 0.0841389862	-0.366419
C	-3.4223324542	-1.2194859965	 0.0642080452	-0.059852
C	-3.4147994221	-2.0993860462	-1.1874388504	-0.031634
N	-2.8453726922	-1.6551855468	-2.4268393604	-0.531059
C	-2.5755404475	-2.4752670657	 0.017450435	 0.013915
O	-1.2328710113	-2.0075282917	 0.0080378313	-0.260146
H	 0.9291815808	 1.7872827673	 0.049119283	 0.126793
H	-0.3186077602	 1.7188115883	-1.223936959	 0.123279
H	-0.7919775662	 1.9238692465	 0.4705928137	 0.163977
H	 0.6562537666	-0.5601277213	-0.2418772705	 0.255698
H	-4.3356209525	-1.1095937486	 0.6367225795	 0.095796
H	-4.3078522074	-2.7154763966	-1.2844423323	 0.09435
H	-2.7016768298	-0.6502511157	-2.4050407165	 0.239779
H	-1.9393061101	-2.0819450155	-2.5888558096	 0.230785
H	-2.6962078986	-3.3942535841	 0.5762253714	 0.10681
81.0501	88.6713	155.6073	189.0815	206.4316	258.02	307.661	383.0131	484.0584	557.8176	651.122	706.1534	720.5338	771.761	783.9452	820.1605	835.374	930.4361	962.7177	1024.9206	1051.2357	1082.9288	1092.4266	1111.9756	1135.0368	1156.4304	1201.4748	1244.9119	1262.2664	1284.0914	1331.2556	1349.7205	1393.9972	1454.3612	1483.5206	1509.4805	1553.8688	1664.872	1719.8307	3011.9269	3100.1807	3109.8913	3144.4524	3177.7904	3196.5093	3498.9024	3570.6412	3657.1828
CNC1=NC2C(N)C2O1	CNC1=N[C@H]2[C@@H](N)[C@H]2O1	
InChI=1S/C5H9N3O/c1-7-5-8-3-2(6)4(3)9-5/h2-4H,6H2,1H3,(H,7,8)	InChI=1S/C5H9N3O/c1-7-5-8-3-2(6)4(3)9-5/h2-4H,6H2,1H3,(H,7,8)/t2-,3+,4-/m1/s1
