14
gdb 24928	5.0477	1.33581	1.06324	3.8033	70.88	-0.2002	-0.0285	0.1716	1052.6112	0.102167	-436.698	-436.691299	-436.690355	-436.729204	26.128	
N	-0.0995006059	 1.2516543478	 0.0076187411	-0.568708
C	-0.0106397527	 0.0017366077	 0.0009044861	 0.450677
O	-1.1195867638	-0.8199074254	 0.0027226084	-0.235715
C	-0.6205585949	-2.0992237778	-0.0063725713	 0.265468
C	 0.7079257648	-2.0741846386	-0.0133433192	 0.273474
O	 1.1488215942	-0.7695278203	-0.0091581975	-0.264371
C	 1.2565629812	-3.4191354699	-0.0228566799	-0.204436
C	 0.1965389901	-4.2600014086	-0.0212261236	-0.08619
C	-1.1301120787	-3.4955664957	-0.0104426569	-0.414327
H	 0.8222744226	 1.6798509859	 0.0048298222	 0.240265
H	 2.3027612244	-3.6877172748	-0.0297972996	 0.124574
H	 0.2382507105	-5.339694554	-0.0267460133	 0.115847
H	-1.7293616507	-3.7485470056	 0.8730513654	 0.151721
H	-1.738801541	-3.7400204606	-0.8898749717	 0.15172
94.2224	217.5758	271.3952	322.2154	419.1407	548.175	571.5802	623.0969	701.778	726.6853	731.3817	773.027	786.3737	880.6165	910.226	912.2182	918.2787	922.9551	952.3176	1063.6409	1119.8027	1134.7363	1215.5818	1238.2793	1305.0668	1375.2547	1430.0024	1431.3025	1556.4799	1727.5564	1811.7463	3041.3918	3073.941	3233.2536	3253.6014	3551.2398
N=C1OC2=C(O1)C=CC2	[NH][C@H]1OC2=C(O1)C=CC2	
InChI=1S/C6H5NO2/c7-6-8-4-2-1-3-5(4)9-6/h1-2,7H,3H2	InChI=1S/C6H6NO2/c7-6-8-4-2-1-3-5(4)9-6/h1-2,6-7H,3H2/t6-/m1/s1
