15
gdb 30587	6.95669	0.63842	0.60636	3.217	82.41	-0.2134	0.0017	0.2151	1767.7699	0.11358	-416.806524	-416.797966	-416.797022	-416.841471	29.994	
O	 0.1672029089	 1.1215288929	 0.80720043	-0.410025
C	-0.0401881267	 0.1037081388	-0.1676073372	-0.233321
C	-1.4012842291	-0.4021013331	-0.0775021545	 0.278403
C	-2.5212843968	-0.8457975901	-0.0231465106	-0.119572
C	-3.8396516392	-1.3548050498	 0.0415844879	 0.148585
C	-5.0005320603	-0.7096007628	-0.3294969466	-0.197618
N	-6.0116719082	-1.600188797	-0.0771376381	-0.223928
C	-5.4382346989	-2.7339553374	 0.4266880941	-0.006182
N	-4.1376064502	-2.6262230644	 0.5137710079	-0.301044
H	 1.081146719	 1.4127840469	 0.7241798622	 0.287502
H	 0.1356421044	 0.4901936031	-1.1854011178	 0.113536
H	 0.6589376224	-0.7358692175	-0.0218899135	 0.119998
H	-5.1796159081	 0.2725592976	-0.7322953414	 0.1395
H	-6.9931508511	-1.4422333274	-0.2332251452	 0.271828
H	-6.0227665462	-3.5971026299	 0.7083573827	 0.132336
26.8375	79.3602	96.1648	201.7567	225.6969	306.4771	397.3995	481.3346	532.6538	534.9581	607.1845	659.3027	711.7941	765.1633	825.9074	917.046	947.583	1012.6234	1025.2136	1062.8291	1104.9457	1125.2083	1236.7667	1245.8552	1249.7487	1298.232	1356.4274	1441.2466	1459.3546	1499.9466	1532.8413	1574.0069	2359.9096	2958.9772	2979.6109	3251.97	3284.6103	3664.8989	3814.2038
OCC#CC1=CNC=N1	OCC#Cc1c[nH]cn1	
InChI=1S/C6H6N2O/c9-3-1-2-6-4-7-5-8-6/h4-5,9H,3H2,(H,7,8)	InChI=1S/C6H6N2O/c9-3-1-2-6-4-7-5-8-6/h4-5,9H,3H2,(H,7,8)
