16
gdb 53746	5.05568	0.63587	0.58997	3.7573	76.78	-0.2559	-0.0242	0.2317	1808.5963	0.123187	-437.860705	-437.851035	-437.850091	-437.898812	32.081	
N	 0.899749444	 0.2691242579	-0.4948521466	-0.520518
C	-0.3649104003	 0.5778519458	-0.0850535171	 0.264874
O	-0.7117178181	 1.6991734358	 0.2315448697	-0.333221
C	-1.2721503259	-0.5618455189	-0.0652700894	 0.045879
C	-2.0749643346	-1.4613692185	-0.0211901465	 0.066103
C	-3.0507390295	-2.5259544416	 0.0166183545	-0.226181
C	-4.5331686969	-2.1983133673	-0.3253497578	-0.073446
O	-4.5876535822	-3.2739803371	-1.2803146279	-0.264681
C	-3.1682261146	-3.4862889149	-1.2024003971	-0.07383
H	 1.5890705557	 1.0027007406	-0.511015449	 0.267036
H	 1.1680407433	-0.6727105674	-0.71888811	 0.265611
H	-2.9681688904	-3.0788673204	 0.95655439	 0.121629
H	-5.257500709	-2.3243975575	 0.4855222445	 0.116503
H	-4.669796847	-1.2167615644	-0.7944857978	 0.11956
H	-2.6435475648	-3.1282240782	-2.0969413431	 0.110932
H	-2.9126932098	-4.5354675237	-1.0209659665	 0.11375
8.9757	65.0947	68.5062	76.3369	130.8506	188.5207	256.5902	386.7735	479.0068	530.1503	569.7685	594.9858	647.6003	771.9602	800.2796	889.6828	891.2363	999.9897	1002.9682	1042.6433	1088.0999	1105.9112	1142.2754	1159.0612	1172.0608	1231.0986	1305.4055	1333.2201	1355.0357	1382.884	1510.2052	1535.5583	1607.3701	1774.1835	2342.2244	3017.8515	3030.415	3062.3914	3077.7109	3087.8542	3603.5797	3746.462	8.9727	65.0979	68.5086	76.3364	130.8496	188.5204	256.59	386.7733	479.0069	530.1502	569.7685	594.9858	647.6003	771.9603	800.2798	889.6829	891.2361	999.9897	1002.9681	1042.6429	1088.0994	1105.9114	1142.2756	1159.0616	1172.0613	1231.0989	1305.4059	1333.2201	1355.0355	1382.884	1510.2058	1535.5589	1607.3691	1774.183	2342.2246	3017.8514	3030.4149	3062.3914	3077.7108	3087.8542	3603.58	3746.4622
NC(=O)C#CC1COC1	NC(=O)C#CC1COC1	
InChI=1S/C6H7NO2/c7-6(8)2-1-5-3-9-4-5/h5H,3-4H2,(H2,7,8)	InChI=1S/C6H7NO2/c7-6(8)2-1-5-3-9-4-5/h5H,3-4H2,(H2,7,8)
