19
gdb 32204	2.68565	1.41688	1.00153	1.5819	85.89	-0.2144	0.004	0.2185	1212.1358	0.160742	-385.968132	-385.95975	-385.958806	-386.000988	32.582	
C	-0.1051057172	 1.5938779952	 0.0191689555	-0.37281
C	 0.0253161208	 0.0586220747	 0.0136120906	-0.33491
C	 0.7398227914	-0.4909429078	 1.2288378657	 0.198255
C	 2.0796817643	-0.8798826496	 1.161223861	-0.180541
C	 2.7628482367	-1.3592031322	 2.2746151931	-0.124048
C	 2.0947504816	-1.4593344791	 3.4927688539	-0.109514
C	 0.7600347556	-1.0851622424	 3.5896310509	-0.177055
C	 0.0867326732	-0.6025944849	 2.4678754898	 0.29837
O	-1.2227551196	-0.2511541816	 2.64282465	-0.442061
H	 0.8836720148	 2.061343239	 0.0379633451	 0.129499
H	-0.6350090984	 1.9471946368	-0.8710360328	 0.115657
H	-0.6484460009	 1.9491012059	 0.9010452416	 0.121806
H	-0.973247163	-0.3942643948	-0.0851728665	 0.097314
H	 0.5678575086	-0.2529613032	-0.8848077137	 0.112641
H	 2.5931246645	-0.8032702149	 0.2066268016	 0.086446
H	 3.8028084854	-1.6541510365	 2.1906410596	 0.08984
H	 2.6103889928	-1.8327428092	 4.3713880884	 0.094779
H	 0.2170777343	-1.1586843803	 4.5251691379	 0.100126
H	-1.6003934449	 0.0066933649	 1.7967298185	 0.296207
86.2678	126.5274	214.2453	230.5037	321.4386	338.0316	348.2253	431.5837	485.9425	534.9096	568.282	594.9052	737.0246	755.579	773.6115	788.3362	849.9886	878.7193	929.1797	960.3507	969.8703	1045.9362	1064.5681	1081.5948	1130.7855	1176.1223	1189.2294	1229.588	1263.1091	1299.2763	1334.3605	1351.2649	1369.6403	1411.6762	1487.7817	1495.0956	1501.6336	1514.118	1524.5698	1625.6823	1657.4464	2988.0132	3036.2902	3065.8317	3105.6695	3114.329	3160.3634	3176.7898	3193.6931	3202.493	3837.1868
CCC1=CC=CC=C1O	CCc1ccccc1O	
InChI=1S/C8H10O/c1-2-7-5-3-4-6-8(7)9/h3-6,9H,2H2,1H3	InChI=1S/C8H10O/c1-2-7-5-3-4-6-8(7)9/h3-6,9H,2H2,1H3
