19
gdb 72073	2.86127	1.61275	1.44906	3.3805	78.6	-0.2293	-0.0029	0.2263	995.7815	0.161615	-385.929294	-385.922059	-385.921115	-385.9606	29.616	
C	-0.0069047414	 1.4841757132	 0.0336454911	-0.499601
C	 0.0161509245	-0.0179832775	-0.0281423534	 0.342067
C	 0.2196400973	-0.7722325271	-1.350541039	-0.278751
C	 0.1355441862	-2.2107670497	-0.7848291115	-0.164301
C	 1.1480168721	-2.1561852876	 0.3855811734	-0.238145
C	 0.5961333665	-0.8909721647	 1.0487618617	-0.0993
C	-0.9209075519	-0.8845525181	 0.8257090821	-0.2232
C	-1.1929183616	-2.1034425962	-0.0010897255	 0.449524
O	-2.1689099145	-2.8030488289	-0.0561392088	-0.348186
H	 0.9342035883	 1.9033782108	-0.3415961864	 0.121591
H	-0.8197807456	 1.8954572393	-0.5750537856	 0.125023
H	-0.1447020018	 1.840441597	 1.0592838918	 0.121122
H	-0.5665940701	-0.5614099829	-2.0835295718	 0.107396
H	 1.1909205923	-0.5499375272	-1.8072460802	 0.098187
H	 0.2022776074	-3.0418949441	-1.4818331502	 0.083574
H	 1.0914835567	-3.038775528	 1.0309803381	 0.110422
H	 2.182237395	-2.0360504018	 0.0460828188	 0.101884
H	 1.0121264617	-0.4736286705	 1.9569313581	 0.091589
H	-1.625878271	-0.4714690264	 1.5329563473	 0.099105
137.2845	207.3422	235.3892	291.2442	380.5397	446.24	475.6157	539.1613	594.5517	664.9287	728.0898	790.2968	832.1014	858.0571	887.587	893.3513	917.7571	930.0464	956.7694	987.6868	1006.5263	1040.505	1061.7863	1092.2747	1110.8637	1140.3472	1162.9768	1175.1436	1233.8587	1252.2655	1253.8087	1298.2813	1302.7474	1322.0614	1414.2515	1427.4079	1487.7673	1491.6982	1498.947	1511.5718	1864.5806	3024.7583	3034.1711	3043.1988	3080.5667	3085.0956	3088.5625	3101.0198	3159.6222	3195.9583	3224.2565
CC12CC3CC1C2C3=O	C[C@@]12C[C@H]3C[C@@H]1[C@@H]2C3=O	
InChI=1S/C8H10O/c1-8-3-4-2-5(8)6(8)7(4)9/h4-6H,2-3H2,1H3	InChI=1S/C8H10O/c1-8-3-4-2-5(8)6(8)7(4)9/h4-6H,2-3H2,1H3/t4-,5-,6-,8-/m1/s1
