16
gdb 55561	2.87002	0.99905	0.91171	1.9972	72.19	-0.267	-0.0161	0.2509	1339.4067	0.120453	-437.887146	-437.877274	-437.87633	-437.923875	33.987	
C	-1.1061501772	 0.2434329327	 0.1401073791	-0.478796
C	 0.265028611	 0.1276160262	-0.4609484466	 0.388168
N	 1.193747932	 0.970349971	-0.5417227459	-0.433501
O	 0.4970411874	-1.0937861334	-1.1135736319	-0.224102
C	 0.5596248897	-2.2295547417	-0.3807515391	 0.443302
O	 0.4839792164	-2.2788598857	 0.8159522893	-0.346833
C	 0.7886904456	-3.4359413635	-1.2889280216	-0.43396
C	-0.2191725052	-3.5781174376	-2.3305417188	 0.304049
C	-1.058900782	-3.7073063967	-3.1789820658	-0.448092
H	-1.2078526352	-0.4640531175	 0.9666269055	 0.176802
H	-1.2806859887	 1.2561133813	 0.5076630506	 0.131072
H	-1.8641888329	-0.0040291362	-0.6098642909	 0.152457
H	 0.914602971	 1.8482045409	-0.1043062519	 0.233778
H	 1.781928392	-3.3214956327	-1.7418696742	 0.1679
H	 0.8173032559	-4.3173100842	-0.6431869225	 0.163062
H	-1.7961668399	-3.8196262029	-3.9349296753	 0.204694
24.7985	54.5552	65.7295	140.956	167.4046	200.9926	316.0297	327.192	422.4449	449.7155	517.8386	564.0757	608.0301	626.3497	651.356	734.5026	798.8323	911.9677	954.3632	960.1325	991.5262	1012.7636	1067.5768	1079.6067	1184.3137	1267.1329	1317.88	1322.9156	1402.6777	1451.8953	1469.4915	1489.309	1771.0684	1836.5539	2247.1331	3036.2439	3051.2645	3103.6441	3124.0432	3146.4349	3496.1836	3506.0043
CC(=N)OC(=O)CC#C	C[C]([NH])OC(=O)CC#C	
InChI=1S/C6H7NO2/c1-3-4-6(8)9-5(2)7/h1,7H,4H2,2H3	InChI=1S/C6H7NO2/c1-3-4-6(8)9-5(2)7/h1,7H,4H2,2H3
