21
gdb 116535	3.84768	0.74383	0.65382	1.5455	87.72	-0.2391	-0.0044	0.2347	1778.4334	0.179869	-420.459385	-420.44821	-420.447265	-420.498024	38.324	
C	 0.375067303	 0.3169560909	-1.3807941904	-0.356727
C	-0.2059096184	-0.7559908416	-0.4534715808	-0.13824
N	 0.6826710906	-0.9860745308	 0.6642550629	-0.287394
C	 0.3407788615	-0.8394557332	 1.8814181659	 0.365546
C	-0.9866677017	-0.4318647842	 2.4647532149	-0.46077
N	 1.3805927469	-1.1080699655	 2.7966558947	-0.350649
C	 1.4053773047	-1.0743311891	 4.1757772458	 0.40635
C	 2.7638517324	-1.4479870643	 4.7534503692	-0.492351
O	 0.4552716274	-0.7816073045	 4.8734033604	-0.354122
H	 1.3879502163	 0.0456928248	-1.6912144649	 0.124188
H	-0.2463796367	 0.4326370776	-2.2743898097	 0.10921
H	 0.4264970847	 1.2842536742	-0.870971116	 0.115526
H	-1.2309683564	-0.4768737672	-0.1710351008	 0.089178
H	-0.2829537239	-1.6994078337	-1.0107806255	 0.106438
H	-1.3754022805	-1.2201944058	 3.1132076912	 0.157424
H	-0.8695438131	 0.4469054001	 3.1017688344	 0.158247
H	-1.7104318156	-0.2198236442	 1.6792894478	 0.123784
H	 2.2302972294	-1.370323373	 2.3159047666	 0.247854
H	 2.7096908849	-1.3799193262	 5.8391657984	 0.15263
H	 3.0414612891	-2.4680867835	 4.4678502699	 0.142543
H	 3.5452138055	-0.7750151606	 4.3852609861	 0.141336
22.5081	47.8154	52.2385	89.84	147.8178	160.9149	190.8165	236.2278	337.5107	350.3089	372.5603	460.9506	544.1749	547.1876	599.8804	660.1553	706.8357	793.3072	819.46	890.0168	966.4718	997.4291	1032.6589	1050.4781	1056.9028	1090.8376	1137.7021	1161.1427	1238.2879	1301.9619	1311.8358	1372.5186	1383.6046	1402.933	1417.1393	1456.287	1467.6268	1471.8481	1483.0051	1487.8033	1494.8494	1509.1983	1522.0891	1738.5799	1795.3081	2995.0997	3028.1501	3038.3511	3043.0998	3073.8382	3105.9878	3108.8729	3119.0026	3134.4093	3165.1582	3165.8539	3596.7298
CCN=C(C)NC(C)=O	CCN=C(C)NC(=O)C	
InChI=1S/C6H12N2O/c1-4-7-5(2)8-6(3)9/h4H2,1-3H3,(H,7,8,9)	InChI=1S/C6H12N2O/c1-4-7-5(2)8-6(3)9/h4H2,1-3H3,(H,7,8,9)
