16
gdb 9068	6.22967	0.84562	0.78711	1.865	68.5	-0.2633	-0.0434	0.2198	1384.0446	0.127178	-383.715241	-383.706285	-383.705341	-383.749382	31.596	
O	-0.0188529611	 1.4592823638	-0.0424996366	-0.432838
C	 0.0087376253	 0.0587520952	-0.0061491254	 0.044946
C	 0.6872941246	-0.5251369887	-1.2580452505	-0.200577
C	-0.0278983356	-0.0704052765	-2.545332492	-0.354063
C	 0.6059246682	-0.5899469302	-3.7494751739	 0.288498
C	 1.1484625836	-1.0332419951	-4.7261639898	-0.431712
C	 0.7142539526	-0.4213445243	 1.2455553118	 0.134392
O	 1.1773781139	 0.3523013548	 2.0484508567	-0.258001
H	 0.4403121381	 1.7522347201	 0.7608143183	 0.296625
H	-1.0221486933	-0.3414433936	 0.0431611429	 0.094018
H	 1.731067857	-0.1945467293	-1.2872192801	 0.124459
H	 0.688670483	-1.6198358116	-1.2018058822	 0.110586
H	-1.0775130003	-0.3919999553	-2.5122142832	 0.128554
H	-0.0417611614	 1.024593867	-2.5671269234	 0.158383
H	 1.6188678502	-1.415334579	-5.5979234218	 0.195301
H	 0.7868364552	-1.5194446572	 1.3822538892	 0.101428
65.8843	83.5186	105.403	159.0325	246.2653	304.5525	347.6172	356.0881	409.9639	474.6213	535.886	618.0362	641.1469	748.0614	776.7973	844.1002	936.8114	948.6929	993.3867	1054.3063	1092.9054	1158.6379	1207.7928	1246.6539	1293.2292	1314.0308	1351.8367	1375.7398	1401.8248	1437.5687	1470.2231	1485.5248	1812.8991	2239.9483	2923.3991	2939.5038	3021.4173	3040.2725	3071.4837	3094.0047	3507.3271	3688.3297
OC(CCC#C)C=O	O[C@@H](CCC#C)C=O	
InChI=1S/C6H8O2/c1-2-3-4-6(8)5-7/h1,5-6,8H,3-4H2	InChI=1S/C6H8O2/c1-2-3-4-6(8)5-7/h1,5-6,8H,3-4H2/t6-/m0/s1
