16
gdb 81835	2.21989	1.67335	1.17063	4.713	69.14	-0.2645	0.0172	0.2817	1052.4458	0.123453	-437.859588	-437.851198	-437.850254	-437.892483	31.702	
O	-0.1746037626	 1.439284757	 0.1167699204	-0.410279
C	-0.0420492478	 0.0493216501	 0.0234000799	 0.109825
C	-1.369526688	-0.689465664	 0.0942758034	-0.156325
C	-2.241146639	-0.2595464769	-1.0695867859	-0.314916
C	-1.1626588326	-1.2506047478	-1.3226107241	 0.414237
O	-1.4633896535	-2.4731231064	-1.8730901771	-0.447167
C	 0.2152014458	-0.5699056396	-1.4262197263	-0.31016
C	 0.4676967723	 0.3646836322	-2.5096740468	 0.286389
N	 0.6745507974	 1.1434817785	-3.3394165973	-0.333075
H	 0.6628383901	 1.8542146911	-0.1183715677	 0.296952
H	 0.7027345298	-0.3381803912	 0.7296682131	 0.084072
H	-1.7790771038	-1.1570215881	 0.9799608682	 0.10217
H	-3.2311727311	-0.70224015	-1.0654683426	 0.130583
H	-2.1882208608	 0.7547835225	-1.450686829	 0.14535
H	-0.8388738363	-3.1294059251	-1.5428899216	 0.289008
H	 1.0268887402	-1.3028858223	-1.3828143566	 0.113334
97.8703	116.5504	179.8948	252.1581	297.3568	351.7642	385.525	392.6768	398.2817	526.522	549.7567	573.7879	723.4434	734.7847	814.0314	847.7511	911.9353	956.0546	990.5969	1026.4003	1034.6698	1056.905	1090.1134	1107.0273	1167.7961	1185.8673	1230.4491	1272.1404	1299.5476	1330.4653	1331.8776	1420.366	1434.0566	1505.3783	2348.4539	3020.5425	3065.3459	3135.8713	3203.2202	3227.7211	3787.5887	3806.994
OC1C2CC2(O)C1C#N	O[C@H]1[C@H]2C[C@@]2(O)[C@H]1C#N	
InChI=1S/C6H7NO2/c7-2-4-5(8)3-1-6(3,4)9/h3-5,8-9H,1H2	InChI=1S/C6H7NO2/c7-2-4-5(8)3-1-6(3,4)9/h3-5,8-9H,1H2/t3-,4+,5+,6+/m1/s1
