20
gdb 15837	4.96518	1.00088	0.91762	1.073	72.11	-0.2547	0.089	0.3437	1315.2434	0.175144	-386.106639	-386.097286	-386.096341	-386.141142	32.958	
C	 0.1770663584	 1.3903298488	 0.0542506724	-0.229638
O	 0.0373892735	-0.0091542325	 0.0218888614	-0.234437
C	 0.6780338195	-0.6516314453	 1.1024648088	-0.049483
C	 0.5232338467	-2.1684307947	 0.9400332053	-0.025345
C	 1.2182410375	-2.6617825448	-0.3338552827	-0.413994
C	 1.0086699887	-2.8429129368	 2.210285541	 0.08517
C	 1.6805788238	-4.1468197771	 2.2625100534	-0.187415
O	 2.4246902196	-2.9356185295	 2.411889091	-0.237572
H	 1.2340804973	 1.6971505063	 0.0101706265	 0.105679
H	-0.3443745733	 1.7924097162	-0.8179241993	 0.126188
H	-0.2663994209	 1.8250797975	 0.9644366761	 0.102993
H	 1.7484463345	-0.386537911	 1.1339569219	 0.100419
H	 0.233434449	-0.3226959252	 2.058070599	 0.080067
H	-0.554571413	-2.3681778789	 0.8622257013	 0.086426
H	 0.9387850126	-2.0231594832	-1.1738773588	 0.1337
H	 2.3055819246	-2.6247196621	-0.2142151275	 0.13056
H	 0.9323968202	-3.6889371233	-0.5777928215	 0.109182
H	 0.4693922914	-2.5360230563	 3.1098678559	 0.088184
H	 1.5955994283	-4.7561755952	 3.1615544086	 0.11279
H	 1.8731708516	-4.7002455429	 1.3463516271	 0.116528
63.8788	93.1265	105.9374	162.2253	224.9606	232.8024	281.6608	287.6367	346.027	392.3692	510.5333	599.8676	772.2783	852.9938	893.3844	930.2961	962.7512	996.7328	1008.1748	1060.4653	1108.784	1146.0802	1160.549	1172.0242	1172.9224	1179.1893	1196.9635	1229.012	1269.3753	1298.2378	1314.8265	1375.0902	1389.1373	1420.6513	1440.8005	1481.3038	1485.2427	1501.1984	1504.1928	1508.8348	1529.1517	1532.6994	2946.3906	2970.3123	2981.072	3012.6294	3020.0722	3045.4833	3077.6807	3091.1528	3112.4904	3112.9076	3135.9021	3178.8302
COCC(C)C1CO1	COC[C@@H](C)[C@H]1CO1	
InChI=1S/C6H12O2/c1-5(3-7-2)6-4-8-6/h5-6H,3-4H2,1-2H3	InChI=1S/C6H12O2/c1-5(3-7-2)6-4-8-6/h5-6H,3-4H2,1-2H3/t5-,6-/m1/s1
