15
gdb 15304	4.37131	1.09113	0.94369	3.8931	67.09	-0.2607	-0.0358	0.2249	1172.0668	0.117695	-362.672785	-362.664692	-362.663747	-362.70648	28.037	
O	-0.4253950268	 0.1504399716	-0.0766364499	-0.230107
C	 0.0012143912	 1.2709137468	 0.0150144594	 0.165832
C	 1.4138408391	 1.688716153	-0.3494288408	-0.309788
C	 1.4146860764	 2.8558421456	-1.3171792734	-0.015547
C	 1.2123209253	 4.2655340991	-0.8414514832	-0.283348
C	 2.5776499635	 3.8430302562	-1.3626725569	-0.181428
C	 3.6710857986	 3.7053539919	-0.4428438335	 0.289077
N	 4.5469440677	 3.5857308291	 0.3039577042	-0.336118
H	-0.6401865577	 2.1032675461	 0.3865074831	 0.078245
H	 1.9255822088	 1.980844512	 0.5778651382	 0.144182
H	 1.9393198828	 0.8231627565	-0.7623397857	 0.136527
H	 1.0075306837	 2.6248214341	-2.297340461	 0.118707
H	 0.6438591114	 4.9541966479	-1.4550416722	 0.138133
H	 1.1329050473	 4.4372974992	 0.2260550881	 0.144476
H	 2.8675840887	 4.2066732209	-2.3422680864	 0.141157
57.8673	69.5726	113.525	189.9088	244.3874	338.8362	397.7507	493.6496	555.4149	621.1445	771.6532	778.8947	826.265	873.8724	930.3209	967.7425	1022.5486	1075.9044	1083.4928	1123.6773	1126.2324	1167.7281	1225.0346	1249.1076	1298.7873	1372.205	1410.2223	1427.693	1457.063	1487.9309	1839.85	2352.5368	2867.1025	3028.0286	3103.342	3146.2434	3154.3171	3175.7144	3236.7203
O=CCC1CC1C#N	O=CC[C@H]1C[C@H]1C#N	
InChI=1S/C6H7NO/c7-4-6-3-5(6)1-2-8/h2,5-6H,1,3H2	InChI=1S/C6H7NO/c7-4-6-3-5(6)1-2-8/h2,5-6H,1,3H2/t5-,6-/m0/s1
