17
gdb 26299	3.43489	1.05891	0.98334	4.8933	70.53	-0.2394	0.0145	0.2539	1264.8937	0.135061	-459.02466	-459.016069	-459.015125	-459.058346	31.408	
C	 0.0217736677	 1.5538480415	 0.0365631422	-0.389564
C	 0.0451470862	 0.0134922616	-0.0046704608	-0.098704
C	 0.7813104615	-0.5044637936	-1.2555384208	-0.389586
C	 0.6406679382	-0.5478987249	 1.2398013317	 0.355093
C	 0.1903449168	-1.3272107675	 2.2205581722	-0.16979
O	 1.2002450201	-1.5357170623	 3.1450059582	-0.209231
C	 2.2990452232	-0.855708864	 2.7029306574	 0.498926
O	 3.3568054978	-0.8053016662	 3.2419238159	-0.371297
O	 1.9668006279	-0.2401573004	 1.5253463828	-0.252612
H	 1.037354075	 1.954769574	 0.1025856713	 0.139997
H	-0.4421097965	 1.9487527376	-0.871973279	 0.120153
H	-0.5441851268	 1.9182599175	 0.8985188761	 0.123367
H	-0.9894192588	-0.3504970543	-0.0330568194	 0.095696
H	 1.8292987348	-0.1912810947	-1.2453255595	 0.140028
H	 0.7534081559	-1.5965230724	-1.3075594357	 0.12338
H	 0.3148812696	-0.1045647229	-2.1605744992	 0.120147
H	-0.7578552026	-1.7959777089	 2.4134429266	 0.163999
62.0934	115.9961	163.7462	219.771	240.0238	255.9026	318.378	417.0138	459.1628	541.4556	634.7155	669.5513	749.0984	763.623	784.8065	878.9284	925.0503	931.497	958.7808	965.5127	1055.2534	1078.1151	1119.2529	1143.8578	1179.5505	1254.659	1313.9211	1325.2056	1374.5521	1396.8308	1421.0376	1486.1139	1491.9333	1501.3391	1513.2479	1734.773	1938.0048	3034.9019	3041.4746	3044.527	3115.362	3118.2584	3119.2511	3123.5446	3304.9948
CC(C)C1=COC(=O)O1	CC(C)c1coc(=O)o1	
InChI=1S/C6H8O3/c1-4(2)5-3-8-6(7)9-5/h3-4H,1-2H3	InChI=1S/C6H8O3/c1-4(2)5-3-8-6(7)9-5/h3-4H,1-2H3
