20
gdb 107754	2.79472	1.46658	1.29065	1.7849	78.9	-0.2204	0.0779	0.2983	1095.3645	0.170199	-403.077811	-403.069141	-403.068196	-403.111021	32.906	
C	 0.0160401961	 1.4067962621	-0.036058179	-0.267769
O	-0.0044830666	-0.0091492234	-0.0189176961	-0.296175
C	 0.6291514004	-0.5648720876	 1.0721010669	 0.360325
C	 2.1682349932	-0.443270814	 1.3021454428	-0.314628
C	 2.0312798976	-1.7954692883	 1.9942977336	-0.081233
N	 0.7266400216	-1.8450468358	 2.7664426148	-0.188826
C	 0.0772154673	-0.5165113596	 2.5119752998	-0.213833
C	 0.763446382	-2.1243791122	 1.3013213092	 0.281478
C	 0.201047697	-3.3245362903	 0.6224122273	-0.532425
H	 1.0427653845	 1.7969526338	-0.0794157574	 0.116055
H	-0.5219586242	 1.7234228214	-0.9318224358	 0.131797
H	-0.4822449063	 1.8313999017	 0.8471422226	 0.115383
H	 2.7157003404	-0.5398902002	 0.3608226742	 0.109173
H	 2.5435543138	 0.411386311	 1.8753283994	 0.091907
H	 2.8117597432	-2.4557319762	 2.3503577597	 0.097084
H	 0.3910092108	 0.2951425781	 3.1788377819	 0.091193
H	-1.0072114178	-0.6464611763	 2.5583366931	 0.109296
H	-0.8917042407	-3.2737200762	 0.5667020481	 0.129633
H	 0.5853415111	-3.416941532	-0.3988365861	 0.12772
H	 0.4717907066	-4.228221536	 1.1770599711	 0.133844
77.7196	147.899	174.0145	185.7273	217.408	266.4737	379.1617	392.8364	477.6354	489.2394	598.4876	677.1315	708.2172	747.4822	833.4138	904.804	911.978	951.5581	964.7941	976.5066	1056.0916	1066.6572	1090.4135	1106.1896	1126.2949	1153.1687	1166.0695	1175.2067	1180.9449	1206.6062	1249.9439	1255.0598	1268.9063	1343.1795	1401.5769	1453.1636	1479.3173	1483.8158	1488.0649	1490.3585	1491.75	1505.9394	1515.2484	2991.2907	3028.705	3031.8505	3040.6856	3044.2728	3095.0482	3102.5305	3106.8514	3109.7785	3124.875	3196.5208
COC12CC3N(C1)C23C	CO[C@@]12C[C@H]3N(C1)[C@@]23C	
InChI=1S/C7H11NO/c1-6-5-3-7(6,9-2)4-8(5)6/h5H,3-4H2,1-2H3	InChI=1S/C7H11NO/c1-6-5-3-7(6,9-2)4-8(5)6/h5H,3-4H2,1-2H3/t5-,6-,7+,8?/m1/s1
