18
gdb 36669	3.16639	0.79128	0.67115	4.2458	82.89	-0.2662	0.027	0.2932	1631.6482	0.146323	-364.78489	-364.775479	-364.774535	-364.82004	34.065	
C	-0.0851110133	-1.2064846637	-0.0039415786	-0.42574
C	-0.041541884	-0.0110228848	 0.110560639	 0.288015
C	 0.0454325363	 1.4380015143	 0.2366116547	-0.353577
C	 1.3867787956	 2.0016502335	-0.2822662676	-0.212904
C	 1.4475838758	 3.50733268	-0.154273364	-0.000042
C	 1.8706367372	 4.1605658061	 1.1281194304	-0.283568
C	 2.7807077075	 4.2448966523	-0.0899770489	-0.193524
C	 4.0169686358	 3.5146392056	-0.1037831507	 0.287945
N	 5.0136196994	 2.9267127873	-0.1192348144	-0.339919
H	-0.1329428633	-2.2627834651	-0.100581342	 0.197384
H	-0.7835254733	 1.9040039819	-0.3124579294	 0.129943
H	-0.0874733376	 1.7262493831	 1.2872069238	 0.134458
H	 2.2110274438	 1.5408160296	 0.2711987199	 0.133971
H	 1.5175325352	 1.7101553761	-1.3300853113	 0.12501
H	 0.6916127022	 4.0398982109	-0.7262400647	 0.103711
H	 1.3902612451	 5.0789187098	 1.4447500136	 0.131464
H	 2.2019701383	 3.5183978141	 1.9367053423	 0.142073
H	 2.8336664094	 5.201315409	-0.5988303722	 0.1353
62.8927	76.1705	90.375	154.2368	202.3302	252.7772	338.2952	357.5361	400.9536	506.0094	555.2187	623.0164	627.148	644.0252	762.0433	776.8869	818.984	871.7255	930.6828	952.0667	975.366	1034.3465	1051.7871	1077.1405	1120.1987	1122.9112	1157.8576	1221.1132	1238.5233	1287.3555	1315.3222	1364.8935	1381.7568	1421.8118	1473.4528	1485.9876	1497.4256	2241.5109	2352.0452	3017.474	3046.3296	3051.8073	3094.2019	3140.0493	3142.8804	3171.5534	3233.1611	3506.7364
C#CCCC1CC1C#N	C#CCC[C@H]1C[C@H]1C#N	
InChI=1S/C8H9N/c1-2-3-4-7-5-8(7)6-9/h1,7-8H,3-5H2	InChI=1S/C8H9N/c1-2-3-4-7-5-8(7)6-9/h1,7-8H,3-5H2/t7-,8-/m0/s1
