21
gdb 119769	4.88618	0.71926	0.66562	1.5465	82.6	-0.227	0.0197	0.2467	1720.6769	0.18133	-424.230041	-424.220094	-424.21915	-424.265889	35.53	
C	 0.2181012955	 1.5877222879	-0.2244731457	-0.386032
C	-0.0532380226	 0.1112481314	 0.0659457985	 0.109315
O	 0.4603999303	-0.6969774409	-1.0019942149	-0.28001
C	 1.3242608569	-1.7026403532	-0.4911444524	-0.157172
C	 1.4192884876	-1.4491297792	 0.9956242366	 0.293588
C	 2.2908265693	-2.2567246476	 1.9069399144	-0.297155
C	 1.8354067372	-3.7117637966	 2.0543449508	-0.067324
O	 2.7505981082	-4.3523206048	 2.9279333323	-0.41687
C	 0.626165527	-0.4240286484	 1.2967013224	-0.223693
H	 1.2946034059	 1.7787478177	-0.2614702674	 0.117598
H	-0.219556861	 1.8673880403	-1.1870070735	 0.124538
H	-0.2247327081	 2.2212344704	 0.551594422	 0.108997
H	-1.1458613965	-0.0373506895	 0.1235513992	 0.076896
H	 0.9160238257	-2.701385324	-0.7199729877	 0.09797
H	 2.3073336508	-1.6412806763	-0.9856138183	 0.102459
H	 3.322958724	-2.2691849703	 1.5322168941	 0.115163
H	 2.3188730279	-1.8036756951	 2.9028648298	 0.114741
H	 0.8095805842	-3.7346410116	 2.4542084073	 0.092585
H	 1.8146742357	-4.2033454502	 1.0689988215	 0.089982
H	 2.4734963805	-5.2664739282	 3.037903589	 0.287478
H	 0.4755514714	 0.0015611983	 2.2817614722	 0.096943
48.4559	85.7249	89.5164	107.0762	214.6424	234.5223	256.854	295.0213	338.3187	379.3565	473.6498	510.1954	683.7921	728.7675	797.3218	843.6209	856.5498	912.7899	918.0811	1001.1186	1024.7779	1031.7811	1060.3996	1081.1952	1088.2647	1106.8634	1134.2084	1197.5831	1214.2119	1221.3759	1238.9526	1292.1402	1315.6836	1336.0334	1346.8316	1374.3936	1388.5955	1399.0634	1455.7587	1485.9261	1486.1654	1494.7486	1523.0219	1529.1167	1729.0243	2941.7775	2957.9597	2971.9038	2978.5466	2999.3075	3026.1192	3036.0075	3085.8266	3109.2895	3120.3482	3204.8092	3831.421
CC1OCC(CCO)=C1	C[C@H]1OCC(=C1)CCO	
InChI=1S/C7H12O2/c1-6-4-7(2-3-8)5-9-6/h4,6,8H,2-3,5H2,1H3	InChI=1S/C7H12O2/c1-6-4-7(2-3-8)5-9-6/h4,6,8H,2-3,5H2,1H3/t6-/m1/s1
