16
gdb 82278	3.33128	1.4322	1.11321	2.2756	74.17	-0.2488	-0.0654	0.1835	1056.6743	0.125015	-437.8726	-437.865022	-437.864078	-437.9047	28.878	
O	 0.0501282439	 1.4082294712	 0.0722976156	-0.4373
C	 0.0026476119	-0.0068419668	 0.0372762074	-0.006346
C	-1.4272488185	-0.5266253523	-0.1083573386	-0.029464
C	-2.2282036639	-0.0932149324	-1.2781175407	-0.229176
N	-1.5116156055	-1.4033095151	-1.3065499208	-0.107067
C	-0.2429035241	-1.2952049782	-1.9171290984	-0.134145
C	 0.6569749783	-0.5851137219	-1.2125922705	 0.190911
C	 2.0137725967	-0.2486324057	-1.5955823585	 0.070705
O	 2.6825397294	 0.579705768	-0.9997119062	-0.303609
H	 0.9881950204	 1.6362105225	 0.0031120554	 0.299393
H	 0.459641481	-0.4235633218	 0.9476473802	 0.085117
H	-1.9411092458	-0.9001448152	 0.7699423695	 0.108723
H	-3.3094851685	-0.1737969047	-1.2466131471	 0.133495
H	-1.8262312895	 0.7032994414	-1.8958636097	 0.143809
H	-0.1011090699	-1.7652540636	-2.8848411202	 0.130405
H	 2.4220437042	-0.7777763552	-2.4822936074	 0.084549
104.5923	165.7908	188.1972	255.5872	292.2339	445.9798	461.8646	470.3934	517.9106	640.6001	681.0131	764.5842	784.3761	812.2213	891.992	932.7863	940.0856	1008.8492	1033.1899	1056.8909	1092.5173	1111.1044	1123.3596	1163.4015	1243.6216	1244.2803	1288.6192	1314.3217	1349.885	1382.8363	1414.9237	1432.3934	1494.5367	1657.7555	1744.6737	2909.0704	2983.8825	3129.3094	3179.3113	3194.2705	3228.0441	3744.1796
OC1C2CN2C=C1C=O	O[C@H]1[C@H]2CN2C=C1C=O	
InChI=1S/C6H7NO2/c8-3-4-1-7-2-5(7)6(4)9/h1,3,5-6,9H,2H2	InChI=1S/C6H7NO2/c8-3-4-1-7-2-5(7)6(4)9/h1,3,5-6,9H,2H2/t5-,6-,7?/m1/s1
