15
gdb 110796	2.8263	1.40212	1.21396	4.1306	60.13	-0.2768	0.0288	0.3056	1035.9167	0.112975	-494.914674	-494.907061	-494.906117	-494.947912	27.909	
O	 0.1294502137	 1.2413148077	-0.4129411624	-0.414296
C	 0.0462682501	 0.0034012548	 0.2690228366	-0.105313
C	-1.3406004319	-0.6047525337	 0.1766753197	-0.118823
C	-1.8817850213	-1.1968541056	-1.1055289554	 0.031231
O	-0.9265317891	-1.564403444	-2.0820771314	-0.246378
C	-0.1563812207	-2.5918974487	-1.6100976207	 0.494615
O	 0.7300092908	-3.1050570339	-2.2084761551	-0.361859
O	-0.5368016832	-2.9152766227	-0.3399010391	-0.238494
C	-1.6107167445	-2.0906904857	 0.0637956873	 0.027896
H	 0.0725789377	 1.0569628981	-1.3567220817	 0.294496
H	 0.810757334	-0.7031664261	-0.0777651196	 0.126246
H	 0.2705678492	 0.2180796426	 1.3181843954	 0.126128
H	-2.1043306405	-0.077866166	 0.7433214062	 0.117752
H	-2.848273022	-0.9520630058	-1.5250482517	 0.132882
H	-2.3435706223	-2.614261061	 0.6628869719	 0.133918
37.0096	123.7063	151.508	262.7777	325.4108	363.5042	512.4716	577.2795	596.17	733.7069	762.0369	773.1397	790.9336	816.822	892.5546	910.3846	1008.3863	1047.1725	1071.9623	1072.7201	1077.8065	1119.5171	1123.2305	1133.1346	1195.2915	1238.4852	1340.1779	1353.6233	1392.8957	1419.0176	1428.9593	1508.7735	1935.7601	3029.6438	3086.0632	3150.4556	3203.4169	3211.9694	3812.6116
OCC1C2OC(=O)OC12	OC[C@H]1[C@H]2OC(=O)O[C@@H]12	
InChI=1S/C5H6O4/c6-1-2-3-4(2)9-5(7)8-3/h2-4,6H,1H2	InChI=1S/C5H6O4/c6-1-2-3-4(2)9-5(7)8-3/h2-4,6H,1H2/t2-,3+,4-
