14
gdb 32557	2.74422	1.58863	1.01267	5.6386	66.99	-0.2452	-0.0435	0.2017	1093.0237	0.101455	-473.848949	-473.841361	-473.840416	-473.881411	27.619	
C	-0.046162055	 1.3737308587	 0.0656477961	-0.252092
O	 0.015215672	-0.0406834673	-0.0207557558	-0.226197
C	 0.6263766152	-0.5700677587	-1.0920854179	 0.171376
C	 1.1919422151	 0.1231868915	-2.1019395632	-0.075003
O	 1.7937303082	-0.5124232246	-3.1550305992	-0.169398
C	 1.7937153505	-1.8574225457	-3.1339802064	 0.128576
N	 1.296491748	-2.6184565557	-2.2437906679	-0.309547
C	 0.6545873782	-2.0547366	-1.1187909533	 0.353138
O	 0.1680779186	-2.7356266268	-0.2487523018	-0.326044
H	 0.9591574811	 1.8138885441	 0.0995499028	 0.129228
H	-0.5983764174	 1.8001613347	-0.782157	 0.129228
H	-0.5729885523	 1.5993393586	 0.9927720995	 0.152758
H	 1.240261336	 1.1963911895	-2.20404238	 0.141653
H	 2.2955574718	-2.2494889983	-4.0142736329	 0.152323
90.5453	122.8792	222.0485	244.0592	328.8962	355.1715	431.9248	496.3322	536.831	580.6275	597.6752	759.557	815.5803	831.2825	901.4685	967.9609	1000.2487	1088.9409	1095.0971	1176.8915	1210.1373	1264.1766	1339.9977	1393.314	1415.8016	1481.6122	1491.4086	1504.0773	1645.342	1684.6704	1803.9633	3004.0349	3064.3945	3150.5109	3186.142	3250.1879
COC1=COC=NC1=O	COc1cocnc1=O	
InChI=1S/C5H5NO3/c1-8-4-2-9-3-6-5(4)7/h2-3H,1H3	InChI=1S/C5H5NO3/c1-8-4-2-9-3-6-5(4)7/h2-3H,1H3
