19
gdb 80455	2.23791	1.60235	1.41884	2.5574	74.81	-0.2411	-0.0251	0.216	1039.28	0.15978	-423.044179	-423.035807	-423.034863	-423.077261	32.309	
C	 0.1470938947	 1.6642085313	-0.1394247246	-0.431801
C	 0.115748588	 0.1499997014	-0.0971891897	-0.000978
C	 0.6816052363	-0.7408547435	-1.1610432043	-0.075288
C	 1.6222420243	-0.1036180559	-2.1920208671	-0.26546
C	 2.9216723436	 0.2435117706	-1.4391732609	 0.044694
O	 3.3551173513	 1.5698592271	-1.6561229484	-0.427529
C	 2.6513834487	-0.0152601541	 0.055332078	 0.370665
O	 3.4216371412	 0.3350820258	 0.9195694658	-0.346533
C	 1.3452530817	-0.7127415414	 0.2117982796	-0.186308
H	 1.0504973179	 2.0592163807	-0.6109704609	 0.144891
H	-0.7157856146	 2.0460393528	-0.6964347742	 0.119537
H	 0.0965487917	 2.0755721469	 0.8740075325	 0.127769
H	-0.7751681566	-0.2484130725	 0.3824409834	 0.098074
H	 0.1066585491	-1.6076733756	-1.4658412371	 0.092312
H	 1.8190128787	-0.8042971617	-3.006167152	 0.11015
H	 1.199305247	 0.8009954772	-2.6378232791	 0.126049
H	 3.7126368763	-0.4721388758	-1.7247842558	 0.098876
H	 3.9268154779	 1.7835376527	-0.9050387383	 0.292387
H	 1.2518610827	-1.4885668657	 0.9617914832	 0.108493
55.9063	128.9964	210.4699	238.535	262.3747	356.1697	401.4527	455.7422	495.3997	502.3108	592.7656	609.8285	703.5841	750.4178	787.0422	849.6382	903.5496	940.4231	967.7748	993.3186	1022.8651	1036.7082	1076.0669	1121.8599	1131.515	1136.9298	1175.0579	1209.5013	1225.3877	1251.6476	1297.1235	1328.4292	1348.2492	1356.4912	1409.4203	1424.4823	1434.515	1490.2375	1507.2981	1511.5007	1819.7006	2945.7222	3034.3386	3067.308	3094.9756	3108.7117	3116.0347	3137.9981	3173.77	3190.4504	3745.4907
CC1C2CC(O)C(=O)C12	C[C@H]1[C@H]2C[C@@H](O)C(=O)[C@@H]12	
InChI=1S/C7H10O2/c1-3-4-2-5(8)7(9)6(3)4/h3-6,8H,2H2,1H3	InChI=1S/C7H10O2/c1-3-4-2-5(8)7(9)6(3)4/h3-6,8H,2H2,1H3/t3-,4+,5+,6-/m0/s1
