21
gdb 108116	2.95797	1.47503	1.3319	1.6179	80.96	-0.2365	0.0808	0.3172	1079.9982	0.184206	-387.057015	-387.049369	-387.048425	-387.089065	31.091	
C	-0.0631784254	 1.5818535732	 0.0457949403	-0.381303
C	-0.0264666671	 0.0490368599	-0.0153334064	-0.305708
C	 0.6351371771	-0.4800518089	-1.2642871978	 0.34751
C	 0.0560534119	-0.3945719479	-2.6915712809	-0.301574
C	 1.1210007366	-1.4682433892	-3.0341456038	-0.091847
C	 2.427261186	-0.6610220777	-2.8817738374	-0.209189
C	 2.2241989205	-0.4479068739	-1.3709596442	 0.025843
O	 2.2948989388	-1.8218566186	-0.8804530868	-0.297242
C	 1.0182167814	-1.9602446261	-1.5109362753	 0.051604
H	 0.9467996792	 2.0048703971	 0.0149679386	 0.116004
H	-0.6231562247	 2.0000452105	-0.7973355168	 0.118089
H	-0.5400582502	 1.9285690895	 0.9674553009	 0.114256
H	 0.506998846	-0.3463373202	 0.8581836016	 0.109992
H	-1.0502842253	-0.3430051755	 0.0432491716	 0.093446
H	-0.96593434	-0.7871725637	-2.7092621338	 0.096054
H	 0.0943180485	 0.5502146674	-3.2424042294	 0.092477
H	 1.0129037461	-2.1424715654	-3.8814053615	 0.067019
H	 3.3416366156	-1.2273593423	-3.0700676402	 0.105688
H	 2.4279023521	 0.255211753	-3.4786895623	 0.093903
H	 2.8535564469	 0.2478673902	-0.8166953688	 0.075424
H	 0.4441143958	-2.8460157414	-1.2407397676	 0.079554
91.0339	151.079	197.9896	299.9496	324.4327	429.9668	460.1164	543.7068	604.9148	684.4153	727.0415	779.7399	800.4971	848.5521	875.108	908.3193	922.2111	927.7812	957.8964	977.3276	978.6822	994.829	1026.0229	1040.4421	1072.4853	1090.6558	1120.7763	1162.176	1177.0889	1194.7715	1207.0212	1227.4514	1238.8867	1256.6369	1287.632	1321.5503	1327.315	1338.9838	1382.0883	1410.9179	1478.2118	1483.6802	1499.9506	1503.3614	1506.6271	3017.58	3033.1379	3041.8182	3052.5979	3062.8914	3094.2395	3100.0747	3106.0513	3120.0777	3123.5082	3126.2704	3138.6196
CCC12CC3CC1OC23	CC[C@@]12C[C@H]3C[C@@H]1O[C@@H]23	
InChI=1S/C8H12O/c1-2-8-4-5-3-6(8)9-7(5)8/h5-7H,2-4H2,1H3	InChI=1S/C8H12O/c1-2-8-4-5-3-6(8)9-7(5)8/h5-7H,2-4H2,1H3/t5-,6+,7-,8-/m1/s1
