15
gdb 22435	2.13153	1.33543	0.92865	3.7797	76.54	-0.2598	-0.0525	0.2073	1244.3616	0.109506	-416.743629	-416.734014	-416.73307	-416.778601	34.12	
C	-0.1247635635	 1.425370948	 1.3448872198	-0.390876
C	-0.2909848922	 0.4936418795	 0.1316295356	-0.218076
C	 0.8093672593	-0.4804726478	 0.0708468227	 0.27759
N	 1.6860717592	-1.2321952857	 0.0377121738	-0.32097
C	-1.6336031912	-0.2372169045	 0.0843629131	 0.163669
N	-2.4187533525	-0.078635045	 1.087278567	-0.156389
O	-3.6127880291	-0.7569988199	 0.9443114341	-0.375307
C	-1.9242076663	-1.017021422	-1.0684819993	 0.354671
C	-2.1184682651	-1.6555451172	-2.0698111627	-0.43538
H	 0.8414474013	 1.9314659478	 1.2877615748	 0.1333
H	-0.9216703554	 2.170933703	 1.3512146051	 0.137559
H	-0.175303956	 0.8628578636	 2.2781191009	 0.151898
H	-0.2241484725	 1.0909722841	-0.7876467964	 0.146466
H	-4.0763800634	-0.5431947248	 1.762534802	 0.316176
H	-2.2981508224	-2.2308761293	-2.9449888804	 0.215669
36.8082	107.1469	146.814	196.1319	226.2802	235.8058	274.0408	317.9851	362.5133	453.0432	467.1601	484.1567	572.3481	624.0718	652.0649	662.1028	738.3411	782.2417	864.1288	1007.1427	1043.9022	1083.2368	1132.7235	1213.1531	1314.4665	1316.5256	1403.6539	1414.1036	1486.2996	1493.7927	1683.6644	2224.6821	2360.3099	3025.7637	3064.4224	3143.0751	3153.3267	3497.0967	3803.0604
CC(C#N)C(=NO)C#C	C[C@@H](C#N)C(=NO)C#C	
InChI=1S/C6H6N2O/c1-3-6(8-9)5(2)4-7/h1,5,9H,2H3	InChI=1S/C6H6N2O/c1-3-6(8-9)5(2)4-7/h1,5,9H,2H3/t5-/m0/s1
