14
gdb 125827	2.50827	1.81594	1.06069	1.909	69.8	-0.2452	-0.0835	0.1617	1052.3176	0.099757	-469.967391	-469.959236	-469.958292	-469.999981	30.24	
C	 0.1080202679	 1.4582688614	 0.0866914332	-0.466051
C	-0.013914577	-0.0327348772	 0.0100880257	 0.267919
N	-0.0360834049	-0.5806334743	-1.1681854586	-0.10551
O	-0.1368962526	-1.9252694714	-1.2807427781	-0.208821
N	-0.2341542674	-2.788922214	-0.2019660014	-0.188116
C	-0.2367602766	-2.259271174	 0.9881789167	 0.360997
N	-0.3824452054	-3.0370212829	 2.0872830847	-0.548479
C	-0.1004467539	-0.8133987229	 1.2324043914	 0.246401
O	-0.0585990271	-0.3515939516	 2.3654667258	-0.364454
H	 1.0004044284	 1.7351288184	 0.6567185635	 0.151759
H	 0.1647304845	 1.884186329	-0.9155515075	 0.147614
H	-0.7494926616	 1.8813425172	 0.6193218567	 0.151772
H	-0.2773052192	-4.0339900891	 2.0045949371	 0.273258
H	-0.1747843651	-2.5882934686	 2.9656929708	 0.281711
94.8841	139.9458	234.9193	268.7762	295.4804	311.7676	353.026	475.017	482.7229	502.2738	534.3383	563.2411	574.6145	685.0725	821.2795	864.6997	913.1006	933.4658	1056.6216	1057.1882	1086.6426	1156.5582	1366.9383	1413.3059	1466.1383	1470.0561	1474.3989	1588.1636	1596.1008	1639.4495	1737.3386	3048.7941	3106.3463	3154.9327	3594.1067	3726.6402
CC1=NON=C(N)C1=O	Cc1nonc(N)c1=O	
InChI=1S/C4H5N3O2/c1-2-3(8)4(5)7-9-6-2/h1H3,(H2,5,7)	InChI=1S/C4H5N3O2/c1-2-3(8)4(5)7-9-6-2/h1H3,(H2,5,7)
