17
gdb 44677	3.40958	1.48005	1.13271	3.2875	75.5	-0.2285	-0.003	0.2255	1061.221	0.138668	-417.998448	-417.991176	-417.990231	-418.03031	28.393	
N	-0.0155580482	 1.1986086398	 0.2568402825	-0.554184
C	-0.0107731111	-0.0263238274	-0.006465024	 0.45473
O	 1.0131859046	-0.8653939016	-0.3915662244	-0.274773
C	 0.0680803883	-1.9878421389	-0.5742409554	 0.112804
C	 0.3755677555	-3.2372789355	 0.1706501266	-0.103021
C	-0.4809018276	-3.7114389142	 1.0737504635	-0.02502
C	-1.6989885791	-2.9372105869	 1.5016904041	-0.220176
N	-1.4822845255	-1.5085066716	 1.3134956165	-0.290917
C	-1.0779856868	-1.111836515	-0.0229141201	-0.165813
H	 0.9205308643	 1.6005541952	 0.1775230121	 0.226174
H	-0.0143039327	-2.1835996809	-1.649074281	 0.10035
H	 1.26814235	-3.7869963929	-0.1130420417	 0.103486
H	-0.3187205294	-4.6793257685	 1.5390287822	 0.103472
H	-2.5867666946	-3.3371144563	 0.9708114238	 0.096196
H	-1.8817392854	-3.1102754719	 2.5685056405	 0.119225
H	-2.2708812384	-0.9601403704	 1.6303535959	 0.234361
H	-1.9032115138	-0.938666003	-0.728501801	 0.083107
89.6417	158.917	214.2251	292.7518	382.6616	468.9171	481.5483	536.4918	623.4497	684.0902	713.5556	770.424	827.4969	871.604	894.9752	929.1156	941.5763	967.7647	997.9183	1021.0983	1032.5312	1052.2824	1097.2027	1156.7	1198.5251	1225.2304	1244.3429	1265.8337	1313.3185	1333.1575	1360.4842	1406.2631	1414.9137	1485.5593	1495.6138	1716.8858	1828.1309	2893.5352	2992.8376	3046.6586	3051.1341	3164.0882	3185.4065	3470.4337	3568.8426
N=C1OC2C=CCNC12	[NH][C]1O[C@H]2C=CCN[C@@H]12	
InChI=1S/C6H8N2O/c7-6-5-4(9-6)2-1-3-8-5/h1-2,4-5,7-8H,3H2	InChI=1S/C6H8N2O/c7-6-5-4(9-6)2-1-3-8-5/h1-2,4-5,7-8H,3H2/t4-,5+/m0/s1
