18
gdb 102959	2.96449	0.77634	0.67215	3.4593	75.76	-0.2412	-0.0277	0.2135	1641.7916	0.144192	-439.031939	-439.021597	-439.020653	-439.068583	35.988	
O	 0.2102564736	 1.2563539103	 0.1722089778	-0.418587
C	 0.037033037	-0.1296350522	-0.0468389174	-0.073663
C	-1.4644809056	-0.5159522878	-0.0125616498	-0.171198
N	-2.1284019994	-0.1806475164	 1.2511080944	-0.294139
C	-1.7578157728	-1.0094664048	 2.3880527216	-0.233824
C	-2.7727577604	-0.8474864935	 3.511308148	 0.152504
O	-2.5150144501	-0.9677177374	 4.679494236	-0.236394
C	-2.1439339402	 0.1613868573	-1.1225969824	 0.288828
C	-2.6308628324	 0.7714611546	-2.037335374	-0.412285
H	-0.2094814864	 1.7145064281	-0.5665103992	 0.290288
H	 0.4806634566	-0.458027418	-0.9979850395	 0.101875
H	 0.5635706174	-0.6382696417	 0.7663037834	 0.117469
H	-1.5457930836	-1.6023842422	-0.1540132331	 0.109419
H	-1.9298797964	 0.7959971749	 1.4498279228	 0.232321
H	-1.8141962399	-2.0641546566	 2.077797577	 0.13161
H	-0.7512329764	-0.8510652098	 2.8037734722	 0.122387
H	-3.7984752709	-0.6155698765	 3.1469732207	 0.089915
H	-3.0980187102	 1.2804475016	-2.8444495885	 0.203473
53.3442	66.0811	81.9222	110.6285	143.8015	181.1546	255.2426	294.0803	367.183	401.9446	448.2974	497.5006	583.2096	650.4614	660.0491	696.398	731.0876	783.1791	883.1739	914.5122	1003.0831	1050.1829	1065.975	1098.4126	1137.5793	1152.1317	1208.0673	1240.3427	1292.5915	1315.3479	1360.097	1384.9773	1402.3274	1421.1941	1468.7312	1499.1539	1509.1025	1840.5591	2231.4845	2892.3282	2984.7932	3000.6094	3021.6232	3026.803	3089.1102	3500.9621	3512.2166	3779.8855
OCC(NCC=O)C#C	OC[C@@H](NCC=O)C#C	
InChI=1S/C6H9NO2/c1-2-6(5-9)7-3-4-8/h1,4,6-7,9H,3,5H2	InChI=1S/C6H9NO2/c1-2-6(5-9)7-3-4-8/h1,4,6-7,9H,3,5H2/t6-/m0/s1
