19
gdb 108086	2.55788	1.45307	1.19647	0.9742	74.88	-0.223	0.0665	0.2895	1122.7056	0.158315	-422.954357	-422.945957	-422.945012	-422.987333	32.513	
C	 0.1610451687	 1.3946535548	 0.2389763622	-0.375619
C	-0.1315344462	-0.0527473532	-0.1784166574	-0.304531
C	 0.6069187521	-0.4738515902	-1.4163425875	 0.260899
C	 0.4601384426	 0.0272887414	-2.8561796556	-0.283954
C	 1.3974488823	-1.1435466091	-3.2420087757	-0.014595
O	 2.6717853934	-0.7786247652	-2.6483210232	-0.287632
C	 2.0787236666	-1.0136409523	-1.3756511021	-0.053193
C	 0.96362359	-1.8699725541	-1.8822019426	 0.258457
O	 0.3978394456	-3.0665330366	-1.5393317954	-0.449626
H	 1.2270671214	 1.5381888385	 0.4426487424	 0.118798
H	-0.1222229193	 2.0989420051	-0.5500694659	 0.120399
H	-0.3963408963	 1.6629966115	 1.1415534571	 0.111774
H	 0.1288905583	-0.7354120625	 0.6408564178	 0.101854
H	-1.2104348583	-0.1786911477	-0.338305695	 0.104351
H	-0.5577892325	-0.12580479	-3.225919851	 0.103973
H	 0.8201225611	 1.0276998538	-3.1163438791	 0.099856
H	 1.48221492	-1.5383965815	-4.2524727413	 0.085724
H	 2.6975119257	-1.0265785805	-0.4877274633	 0.10791
H	 1.0644036649	-3.758669612	-1.6247955146	 0.295154
78.6883	124.3946	197.2463	239.1346	271.2677	314.5498	383.6512	418.9855	466.6726	556.2683	600.0896	691.6752	722.5145	785.5536	801.4318	834.2475	917.7395	929.0725	950.5992	968.5119	996.2963	1026.5589	1037.4826	1072.5456	1099.9217	1135.082	1149.3406	1190.4795	1219.258	1234.081	1271.4011	1307.3378	1316.6496	1339.8752	1375.9861	1411.642	1468.9216	1482.9546	1497.8549	1505.2995	1511.2006	3016.0269	3035.6297	3045.0747	3045.844	3104.531	3107.2748	3108.1524	3142.7124	3205.7241	3778.6379
CCC12CC3OC1C23O	CC[C@@]12C[C@H]3O[C@@H]1[C@@]23O	
InChI=1S/C7H10O2/c1-2-6-3-4-7(6,8)5(6)9-4/h4-5,8H,2-3H2,1H3	InChI=1S/C7H10O2/c1-2-6-3-4-7(6,8)5(6)9-4/h4-5,8H,2-3H2,1H3/t4-,5+,6-,7-/m1/s1
