20
gdb 85318	2.28563	1.81251	1.17889	3.223	79.8	-0.2514	0.0269	0.2783	1098.4037	0.17282	-403.168216	-403.160162	-403.159218	-403.200847	31.445	
C	 0.0604899296	 1.5560986067	-0.1212545707	-0.404702
C	 0.0063071499	 0.0489816786	 0.0548068279	 0.107559
O	 0.5670754531	-0.5871426121	-1.1196726046	-0.256142
C	 1.1848565737	-1.7664141166	-0.80200534	 0.399601
N	 1.6337305775	-2.5879352965	-1.6502344601	-0.54529
C	 1.2820888899	-1.9266213336	 0.701685485	-0.111693
C	 2.6940646417	-1.6211247052	 1.2724764392	-0.219428
C	 2.2675027137	-0.1365227767	 1.4527286447	-0.242083
C	 0.7809822311	-0.5550016251	 1.226555579	-0.028461
H	 1.090862331	 1.9112963179	-0.2049044515	 0.128688
H	-0.47859335	 1.85466164	-1.0242730322	 0.131748
H	-0.4084550126	 2.048463332	 0.7366022535	 0.120398
H	-1.0447480569	-0.2682368802	 0.1228340408	 0.083837
H	 1.4472025553	-2.2602129441	-2.5998242854	 0.218449
H	 0.7995286827	-2.8503843459	 1.0241399758	 0.09724
H	 2.8553605043	-2.1251343807	 2.2283549866	 0.105483
H	 3.5372886257	-1.8335648065	 0.6132507744	 0.121637
H	 2.497283246	 0.3297735015	 2.4125847217	 0.102693
H	 2.6515508355	 0.5070839267	 0.6576105372	 0.114112
H	 0.1906723488	-0.57657088	 2.1437261189	 0.076354
94.0408	120.6064	216.6839	226.0327	244.3864	314.556	461.3212	496.4206	573.786	657.0853	676.0516	706.4329	769.2357	805.6582	868.4835	894.0826	897.8451	925.9817	954.5581	965.1296	1012.2591	1030.949	1049.9332	1091.3049	1117.306	1142.9381	1165.8834	1183.9749	1223.269	1245.1352	1262.3772	1269.32	1282.8493	1328.0192	1333.2498	1379.6108	1389.6515	1412.7937	1479.2772	1485.9277	1496.7689	1499.9898	1768.75	2993.1121	3045.8222	3068.2767	3071.2497	3094.3103	3104.6218	3116.0955	3118.3484	3126.7517	3133.3855	3467.4803
CC1OC(=N)C2CCC12	C[C@H]1O[C]([NH])[C@H]2CC[C@@H]12	
InChI=1S/C7H11NO/c1-4-5-2-3-6(5)7(8)9-4/h4-6,8H,2-3H2,1H3	InChI=1S/C7H11NO/c1-4-5-2-3-6(5)7(8)9-4/h4-6,8H,2-3H2,1H3/t4-,5+,6+/m1/s1
