13
gdb 129789	3.45608	1.6538	1.12193	5.7458	69.38	-0.1973	-0.0387	0.1587	977.2138	0.091058	-448.899406	-448.892252	-448.891307	-448.930846	27.289	
N	 0.1295880768	 1.4100461275	 0.1321913694	-0.606913
C	 0.0049696622	 0.0234961366	 0.0379347159	 0.208114
C	-1.0798143206	-0.842945366	 0.0088299826	 0.204042
N	-2.4489692949	-0.8958469429	-0.0285176029	-0.217244
N	-2.8525388746	-2.0685265584	-0.0625216851	-0.03561
O	-1.6499456978	-3.0068716742	-0.0541979799	-0.289408
C	-0.6052174925	-2.1793308976	-0.0081129653	 0.344759
C	 0.7626460412	-2.1609937397	 0.0013038188	-0.262406
N	 1.0961327824	-0.7956048695	 0.0391012732	-0.275886
H	 0.5846102019	 1.8307687014	-0.6715321527	 0.256618
H	-0.772131518	 1.849778272	 0.2640479432	 0.267946
H	 1.5214379716	-2.9208734202	-0.03037447	 0.137043
H	 2.0358902124	-0.4495047789	 0.1411146827	 0.268944
123.3351	208.618	247.5108	273.4026	371.3788	416.2233	508.7544	586.3424	597.8153	622.5021	626.9508	645.3519	705.8242	757.8739	777.0131	827.3017	969.8996	1048.7235	1113.3318	1174.8987	1255.7613	1314.9122	1338.4754	1417.5025	1480.3332	1532.7972	1609.806	1643.606	1682.66	3299.2094	3510.5653	3616.0436	3664.9355
NC1=C2N=NOC2=CN1	Nc1c2nnoc2c[nH]1	
InChI=1S/C4H4N4O/c5-4-3-2(1-6-4)9-8-7-3/h1,6H,5H2	InChI=1S/C4H4N4O/c5-4-3-2(1-6-4)9-8-7-3/h1,6H,5H2
