21
gdb 71625	2.68039	1.60875	1.51528	1.3883	82.27	-0.2415	0.0864	0.3279	1017.0311	0.184877	-387.054103	-387.04657	-387.045625	-387.085668	30.742	
C	 0.0104563101	 1.492666018	-0.0285098916	-0.522377
C	 0.0247177368	-0.0132666494	-0.0382587642	 0.328125
C	 0.6839617202	-0.9486022633	-1.089896664	-0.27419
C	 0.0441046814	-1.9068140398	-0.0528612817	-0.062532
C	 0.6037959609	-0.9671825124	 1.061993239	-0.040366
C	-0.1026446411	-1.0012238696	 2.4098686708	-0.117237
O	-1.4230837567	-1.5043503561	 2.3022430681	-0.248255
C	-2.107180125	-1.0121289907	 1.1629410075	-0.117238
C	-1.210653942	-0.9770554621	-0.0666913451	-0.040363
H	 1.028968246	 1.8953556514	 0.006637929	 0.119072
H	-0.4743392503	 1.8871698219	-0.9285658276	 0.119072
H	-0.5316026081	 1.8847834049	 0.8393990327	 0.119571
H	 0.2411773946	-0.9444549811	-2.0910460995	 0.084305
H	 1.7776505666	-0.9360953488	-1.135305224	 0.084303
H	 0.0549558759	-2.9969196404	-0.0607675028	 0.071786
H	 1.6937751807	-0.9416079591	 1.1707210994	 0.058596
H	 0.4163713727	-1.6704947017	 3.1044135851	 0.106557
H	-0.1018881917	 0.0068371002	 2.8636122126	 0.083009
H	-2.95432732	-1.6888295759	 1.0076627434	 0.106557
H	-2.5224233861	-0.0063298728	 1.3579083081	 0.083008
H	-1.790133165	-0.9605655432	-0.996456325	 0.058596
162.9694	187.8037	200.457	249.4239	348.388	391.8172	435.6704	490.1312	608.2382	628.4608	760.6066	763.7672	788.6272	845.1189	866.6567	908.8559	930.1942	984.1601	998.621	1001.7774	1021.3783	1051.5939	1068.5297	1106.1791	1106.1831	1123.817	1165.6172	1173.6942	1200.4188	1216.257	1222.9484	1238.95	1262.4059	1288.1396	1331.6729	1339.722	1379.8263	1397.9714	1411.4691	1432.4297	1488.2647	1489.4463	1502.8146	1510.4305	1520.803	2935.3484	2941.8623	3024.0236	3035.1786	3044.3346	3046.6153	3062.8925	3066.4235	3090.5758	3090.925	3099.3518	3111.3458
CC12CC3C1COCC23	C[C@@]12C[C@H]3[C@@H]1COC[C@@H]23	
InChI=1S/C8H12O/c1-8-2-5-6(8)3-9-4-7(5)8/h5-7H,2-4H2,1H3	InChI=1S/C8H12O/c1-8-2-5-6(8)3-9-4-7(5)8/h5-7H,2-4H2,1H3/t5-,6-,7+,8+
