18
gdb 48365	2.92481	1.22567	1.07087	1.8241	72.59	-0.251	-0.0374	0.2136	1180.0359	0.147374	-439.044931	-439.036363	-439.035418	-439.078999	30.858	
O	-0.1423691948	 0.2245657007	 0.6386111488	-0.280267
C	 0.0024703067	 1.2791545738	 0.0625235392	 0.0844
C	 1.3163485375	 1.9855570804	-0.0194305177	 0.222014
C	 1.9911401034	 2.183999887	 1.3103548257	-0.256688
N	 2.5036052905	 1.2046189379	 0.36466084	-0.348935
C	 1.5170623949	 2.9836262708	-1.1300551891	 0.081113
C	 1.2706707081	 2.5478616143	-2.5947083044	-0.302007
C	 0.280290877	 3.7279057255	-2.6243684845	-0.065033
O	 0.4370222377	 3.94664433	-1.2022250059	-0.298401
H	-0.8445648795	 1.7929922014	-0.4313544826	 0.103657
H	 2.6026323012	 3.0718345442	 1.4474292759	 0.131337
H	 1.4615097102	 1.8333103786	 2.1914099429	 0.136745
H	 2.1707471813	 0.2785510144	 0.6378366043	 0.251042
H	 2.4868966091	 3.4776016119	-0.9876644594	 0.083895
H	 2.1294236305	 2.6065108741	-3.2635309153	 0.121535
H	 0.8058256335	 1.5647729131	-2.6968201871	 0.116841
H	 0.6164346176	 4.5960643729	-3.2046094498	 0.108231
H	-0.758175345	 3.502360739	-2.8899456111	 0.110518
61.7896	80.5142	126.8453	195.9504	218.2437	282.7025	327.4526	378.5394	484.9411	627.538	740.7859	781.1685	840.3791	857.0556	898.0175	936.1224	965.4759	981.1255	1005.8282	1017.1398	1024.9136	1056.9657	1103.1848	1126.3472	1149.2162	1169.1819	1212.5146	1254.4406	1263.4049	1284.2721	1324.3562	1339.4645	1354.9546	1415.6775	1433.231	1492.6147	1499.2678	1530.5185	1795.8423	2951.4069	3016.4868	3024.3364	3066.8346	3080.5295	3110.8782	3139.4821	3205.7558	3455.8285
O=CC1(CN1)C1CCO1	O=C[C@]1(CN1)[C@H]1CCO1	
InChI=1S/C6H9NO2/c8-4-6(3-7-6)5-1-2-9-5/h4-5,7H,1-3H2	InChI=1S/C6H9NO2/c8-4-6(3-7-6)5-1-2-9-5/h4-5,7H,1-3H2/t5-,6-/m1/s1
