14
gdb 8771	4.49448	1.26995	1.17608	1.833	60.18	-0.2708	-0.0486	0.2222	1008.2292	0.103693	-419.637742	-419.62924	-419.628296	-419.670886	30.361	
O	 0.2641078144	 1.5294550375	-0.0226126968	-0.436823
C	 0.0924618425	 0.1390456915	 0.0294399706	 0.02758
C	 0.6778519689	-0.4994278661	-1.2188835326	 0.139496
O	 1.1080314807	 0.1719280922	-2.1233314625	-0.253883
C	 0.8028568993	-0.4140636776	 1.2920374328	-0.091589
O	 2.1580604967	-0.0099318083	 1.2694230077	-0.415051
C	 0.1053921253	-0.0013122052	 2.5139227478	 0.327052
C	-0.4637726388	 0.344445955	 3.5137156455	-0.432352
H	 0.6119707958	 1.7121279179	-0.9115651692	 0.301268
H	-0.9752469864	-0.1368526092	 0.0740766694	 0.110972
H	 0.6718069841	-1.6069811131	-1.2598110812	 0.107043
H	 0.8089135033	-1.5104315372	 1.2392319812	 0.120016
H	 2.1347281363	 0.9488199286	 1.1409457422	 0.293183
H	-0.9620933923	 0.6482396141	 4.4012956851	 0.20309
67.5695	108.614	161.8876	206.116	262.7281	291.2036	336.6161	436.248	437.9489	546.9548	561.6166	634.2948	675.6516	716.8335	748.4739	837.4684	894.2936	977.8397	1025.4464	1090.8729	1152.8702	1231.7624	1261.6957	1329.6668	1337.9405	1397.7116	1425.9558	1434.9752	1818.6638	2237.6217	2939.6466	2970.133	3033.286	3502.2621	3667.4688	3755.7573
OC(C=O)C(O)C#C	O[C@@H](C=O)[C@@H](O)C#C	
InChI=1S/C5H6O3/c1-2-4(7)5(8)3-6/h1,3-5,7-8H	InChI=1S/C5H6O3/c1-2-4(7)5(8)3-6/h1,3-5,7-8H/t4-,5-/m0/s1
