19
gdb 73430	2.96208	1.9518	1.44388	1.5639	77.35	-0.2106	0.076	0.2865	944.4033	0.160677	-385.826691	-385.819543	-385.818599	-385.857972	29.405	
C	-0.0384933097	 1.440500282	 0.0465654665	-0.471272
C	-0.0106816027	-0.0735605821	 0.018115993	 0.266154
C	-1.2634013436	-0.6793482687	-0.5807491497	-0.113546
O	-1.2739271619	-2.0996816161	-0.624827019	-0.276072
C	-0.139196511	-2.7259543758	-0.1142371974	 0.124662
C	 1.2690346089	-2.2449022381	-0.296906697	-0.145848
C	 0.6190206721	-2.2831153157	 1.1010604711	-0.145871
C	 0.7048830801	-0.7372609835	 1.1713165435	-0.115077
C	 1.3457215952	-0.6995746883	-0.2070688463	-0.115077
H	 0.8803037709	 1.8427489345	 0.4848922323	 0.118758
H	-0.1353622686	 1.8523829326	-0.9646158263	 0.120018
H	-0.8823717955	 1.8084787598	 0.641528401	 0.120016
H	-2.1397685163	-0.3489248609	-0.0018175976	 0.094605
H	-1.3934261083	-0.3046837376	-1.6079124534	 0.094619
H	-0.2671283188	-3.8004823724	-0.2030774781	 0.103967
H	 2.0609514783	-2.860403948	-0.7056661964	 0.085916
H	 0.8300286965	-2.9328090672	 1.9415563085	 0.085918
H	 0.9875337752	-0.1938256494	 2.0640556104	 0.084064
H	 2.1987413089	-0.1225769149	-0.5411759452	 0.084066
98.5567	214.9926	260.6371	305.4343	396.4176	478.1373	508.429	558.0035	649.5004	683.2069	717.2458	786.5518	806.5406	844.0859	868.6549	918.9764	939.4194	972.1464	984.9383	987.2137	1012.5823	1037.7588	1059.3836	1059.6604	1088.3502	1090.8365	1139.6891	1174.5457	1191.6362	1240.9231	1268.7657	1278.3972	1306.0414	1322.4596	1376.8225	1415.9655	1437.4569	1459.7252	1489.8619	1501.692	1522.5395	2971.777	2995.7224	3023.1069	3084.2397	3099.2231	3161.283	3173.773	3184.6028	3185.1672	3195.9769
CC12COC3C4C3C1C24	C[C@]12CO[C@H]3[C@@H]4[C@H]3[C@H]1[C@H]24	
InChI=1S/C8H10O/c1-8-2-9-7-3-4(7)6(8)5(3)8/h3-7H,2H2,1H3	InChI=1S/C8H10O/c1-8-2-9-7-3-4(7)6(8)5(3)8/h3-7H,2H2,1H3/t3-,4+,5-,6+,7+,8-
