14
gdb 25383	3.01218	1.42245	0.96618	2.5864	76.83	-0.2298	-0.0982	0.1316	1125.92	0.103497	-432.922546	-432.915359	-432.914415	-432.95448	26.878	
N	-0.2425505289	 1.2791632575	 0.1449202307	-0.555582
C	 0.0037945421	 0.0264210026	 0.2116604799	 0.362561
N	-1.0303413032	-0.8310708313	 0.6216049922	-0.348517
C	-0.8942533552	-2.169246368	 0.7313972483	 0.313495
C	-2.1048748749	-2.9199870457	 1.1827167852	 0.11979
O	-3.1495108327	-2.3725180356	 1.4371296779	-0.261987
N	 0.1917754293	-2.838443052	 0.478004788	-0.318576
C	 1.261842634	-2.0700777791	 0.0672383307	-0.009086
C	 1.2214120651	-0.7220329368	-0.0726273468	-0.166053
H	 0.5836956474	 1.7882329101	-0.162737288	 0.217931
H	-1.9306900178	-0.4220818994	 0.8481262059	 0.28283
H	-1.9445817035	-4.0106354617	 1.2571109029	 0.123863
H	 2.1712937508	-2.6236056923	-0.1457141516	 0.124131
H	 2.0941406274	-0.1687169683	-0.3993550852	 0.115199
123.0378	147.9723	186.9353	253.1948	420.8447	425.0655	479.8461	550.4984	611.8227	675.8174	745.9214	762.4588	767.1065	803.8686	866.2397	957.4487	1005.3992	1017.6219	1032.3353	1079.027	1141.2686	1233.3566	1280.336	1350.7728	1376.7166	1440.6725	1509.6427	1569.4696	1644.2725	1723.6313	1804.5	2987.9186	3178.0232	3207.3715	3507.44	3562.1088
N=C1NC(C=O)=NC=C1	[NH]C1=CCN=C(N1)C=O	
InChI=1S/C5H5N3O/c6-4-1-2-7-5(3-9)8-4/h1-3H,(H2,6,7,8)	InChI=1S/C5H6N3O/c6-4-1-2-7-5(3-9)8-4/h1,3,6H,2H2,(H,7,8)
