14
gdb 43868	3.95202	1.04837	0.92823	2.8875	67.6	-0.2953	-0.0102	0.2852	1202.8979	0.100337	-436.70684	-436.699182	-436.698237	-436.739508	28.224	
O	 0.2066770308	 0.1693225264	-0.7436769802	-0.294887
C	 0.0113291332	 1.1797867613	-0.1592565624	 0.445231
C	-1.1679049731	 2.0668698797	 0.2537880688	-0.497989
C	-0.0699123278	 2.9196172497	 0.865275005	 0.455703
C	 0.1500651418	 4.3785090856	 0.9375172301	-0.350131
C	 0.0272979545	 3.5521573156	 2.2309072365	-0.264066
C	-1.1535949259	 3.6539072875	 3.0385296478	 0.294602
N	-2.1237022136	 3.721135652	 3.6654559972	-0.327986
O	 0.9561330766	 2.0148221785	 0.4215866103	-0.262173
H	-1.7130794379	 2.5053782402	-0.5835726478	 0.159871
H	-1.8659896722	 1.6040999086	 0.9533189412	 0.173095
H	 1.1410751675	 4.754340307	 0.7109322733	 0.155531
H	-0.6716674776	 5.0377441441	 0.6822163823	 0.155261
H	 0.9497733339	 3.3721292838	 2.7727647979	 0.157938
79.7008	118.9912	165.1991	287.5526	301.2931	410.2937	492.7998	518.5432	521.9009	539.8787	624.5943	785.5793	804.2804	866.6572	891.1917	938.175	975.671	1013.3521	1042.6449	1066.4503	1080.4624	1108.4616	1149.1823	1207.2698	1240.5101	1333.9693	1410.0211	1454.1918	1488.1555	1963.8472	2354.649	3092.6278	3145.7477	3150.5838	3176.734	3241.6084
O=C1CC2(CC2C#N)O1	O=C1C[C@]2(C[C@H]2C#N)O1	
InChI=1S/C6H5NO2/c7-3-4-1-6(4)2-5(8)9-6/h4H,1-2H2	InChI=1S/C6H5NO2/c7-3-4-1-6(4)2-5(8)9-6/h4H,1-2H2/t4-,6-/m0/s1
