19
gdb 113985	3.28136	0.93225	0.84888	1.5865	77.98	-0.2344	0.0293	0.2637	1427.3214	0.155664	-422.938571	-422.928651	-422.927707	-422.974307	35.516	
C	-0.4459541155	 1.2014274331	 0.6129374343	-0.232827
O	 0.0276001852	 0.0983983125	-0.1405468334	-0.229604
C	-0.944570671	-0.8671940887	-0.3524798815	 0.087237
C	-0.4555569949	-2.2794357531	-0.4978986304	-0.345646
C	-1.2466261894	-1.874618948	 0.7298554717	 0.081816
O	-0.5914438187	-1.6929599696	 1.9474593308	-0.231196
C	-0.5223054672	-2.8565424873	 2.7567827999	-0.221216
C	 0.4098950672	-3.8817866707	 2.2815911233	 0.326349
C	 1.1808809972	-4.7306874681	 1.9222231798	-0.467125
H	 0.3835525588	 1.9075336515	 0.6964939852	 0.124578
H	-1.2870250048	 1.7021315442	 0.108771521	 0.099195
H	-0.7645491837	 0.8923169732	 1.6155101336	 0.125776
H	-1.7872095857	-0.538397936	-0.9648627365	 0.081539
H	-0.9086236471	-2.9326515645	-1.234997824	 0.111839
H	 0.607675342	-2.4131853274	-0.3408225571	 0.142503
H	-2.2728100179	-2.2339397383	 0.8254123868	 0.083248
H	-0.2052928544	-2.5053411239	 3.7444723667	 0.140642
H	-1.5237457139	-3.300548719	 2.8735760386	 0.120121
H	 1.8607394439	-5.4797088597	 1.5985464311	 0.202773
33.491	87.8474	108.2514	156.9662	207.4489	221.7587	236.069	323.0113	343.628	390.0047	475.016	568.1775	616.1763	675.4623	686.7667	754.8481	812.017	847.3328	929.9972	990.6513	1028.2549	1040.0573	1055.0613	1089.1274	1100.3173	1128.6247	1158.8163	1170.2036	1187.5568	1230.2336	1267.767	1299.3417	1364.3619	1393.4442	1413.9642	1467.5403	1476.9939	1487.2929	1493.0514	1508.8502	2234.4607	2981.1567	2985.8511	3061.2138	3069.9	3070.4266	3085.3724	3120.9991	3145.1138	3243.8762	3504.3113
COC1CC1OCC#C	CO[C@H]1C[C@H]1OCC#C	
InChI=1S/C7H10O2/c1-3-4-9-7-5-6(7)8-2/h1,6-7H,4-5H2,2H3	InChI=1S/C7H10O2/c1-3-4-9-7-5-6(7)8-2/h1,6-7H,4-5H2,2H3/t6-,7+/m0/s1
