22
gdb 105095	2.27097	1.35285	1.17082	1.8072	83.13	-0.2313	0.0697	0.3011	1220.5376	0.192912	-404.296371	-404.286616	-404.285672	-404.330845	36.82	
C	 0.3550494955	 0.883852169	-0.7379304337	-0.253741
O	-0.3287257464	 0.4320996702	 0.4259971192	-0.287936
C	-1.4250137175	-0.4012000604	 0.188036532	 0.438549
C	-2.6313729469	-0.0890813591	 1.0295396526	-0.307239
C	-2.6461802302	 0.2289996243	-0.4490983929	-0.328748
C	-1.1447004967	-1.8571363862	-0.0885389928	-0.078716
N	 0.1331882772	-2.2401179854	-0.7085102176	-0.345874
C	-0.1721908591	-2.7083062484	 0.6569403514	 0.00285
C	 0.7095948225	-2.2240359505	 1.7826402952	-0.404761
H	 1.1254618205	 1.576262729	-0.3892178639	 0.116862
H	 0.8195780649	 0.0524369872	-1.2743682631	 0.140275
H	-0.3241373378	 1.4217701435	-1.4137715021	 0.098247
H	-3.2325885866	-0.9153907254	 1.3938436357	 0.109025
H	-2.5314477828	 0.7427125898	 1.7166217134	 0.124024
H	-2.5743711895	 1.2733218206	-0.7300872419	 0.119411
H	-3.2604184189	-0.3744739495	-1.1093370421	 0.109697
H	-2.0375740201	-2.3776819421	-0.4364764435	 0.070944
H	-0.0041155194	-2.9797645238	-1.3911266241	 0.228882
H	-0.4664563358	-3.7550532672	 0.7426580051	 0.076431
H	 0.9426933152	-1.1661774256	 1.6640982912	 0.151162
H	 0.2056695655	-2.3624089134	 2.7457047779	 0.110542
H	 1.6443379566	-2.7950186368	 1.808564344	 0.110115
54.1437	136.3697	160.4736	190.5674	218.3784	229.8429	260.3377	305.6215	334.6978	385.907	447.8465	506.1567	606.2668	719.617	768.9362	789.9368	832.0187	880.5592	921.1676	948.9655	965.338	977.5989	1016.8349	1026.8951	1049.6325	1074.906	1079.0716	1099.0395	1145.1392	1176.2846	1182.0413	1190.3194	1224.556	1248.6173	1265.8169	1281.5189	1327.2689	1399.1397	1433.1668	1453.5618	1463.8009	1476.4179	1481.1264	1495.1465	1499.649	1504.7318	1521.2989	3006.9444	3034.8402	3087.439	3090.6003	3091.0282	3099.3669	3127.5439	3131.6814	3137.0724	3159.7791	3216.4136	3232.1926	3507.0002
COC1(CC1)C1NC1C	COC1(CC1)[C@H]1N[C@H]1C	
InChI=1S/C7H13NO/c1-5-6(8-5)7(9-2)3-4-7/h5-6,8H,3-4H2,1-2H3	InChI=1S/C7H13NO/c1-5-6(8-5)7(9-2)3-4-7/h5-6,8H,3-4H2,1-2H3/t5-,6-/m0/s1
