22
gdb 103628	2.59099	1.16023	0.98007	2.1006	79.14	-0.2231	0.0673	0.2904	1323.7085	0.192106	-441.459625	-441.449368	-441.448424	-441.494409	38.395	
C	-0.0709372203	 1.4971722204	-0.0144174384	-0.401742
C	 0.0124558658	-0.0147911331	 0.0756310841	 0.009753
N	 1.0494346341	-0.6747217269	-0.7528876125	-0.101408
C	 0.7049999964	-1.1165999491	-2.0858650554	-0.325146
C	 1.2744316304	-1.6910890585	 0.2945423886	-0.224673
C	 0.6679947931	-0.6974195999	 1.3174850858	 0.353052
O	 1.6502797174	 0.1032185844	 1.9605974853	-0.492127
C	-0.2152075764	-1.2295364261	 2.4289709409	-0.094168
O	 0.5355587005	-1.988417441	 3.3574526514	-0.426661
H	 0.8805718874	 1.9607189684	 0.2572306269	 0.113481
H	-0.3271823508	 1.8098078204	-1.0322449331	 0.116618
H	-0.844183547	 1.882721622	 0.6580137254	 0.119942
H	-0.9845088432	-0.4605917892	-0.0996932787	 0.052587
H	 0.4747312378	-0.253648767	-2.7193607942	 0.121468
H	 1.5539611875	-1.6427671852	-2.5353140698	 0.121721
H	-0.1671122574	-1.7979535358	-2.1020028127	 0.092125
H	 0.6500638054	-2.5919855728	 0.1760497467	 0.089847
H	 2.3165714935	-1.9954857124	 0.4405609701	 0.09911
H	 2.3176417073	 0.3302899987	 1.3034406259	 0.291528
H	-0.7248991728	-0.3819712135	 2.9166879254	 0.090975
H	-0.982333969	-1.8910350999	 2.0159490676	 0.103332
H	 1.3000655502	-1.442297254	 3.5774968708	 0.290383
78.4986	103.5194	167.1325	177.5807	218.0588	232.1106	272.5046	306.4276	333.4487	365.3236	393.5707	411.0983	456.1435	489.3642	577.7304	670.1412	763.0904	810.2927	916.9489	940.1513	965.0382	1020.7418	1028.3089	1071.5734	1092.8207	1108.373	1113.2789	1144.1243	1170.2997	1187.6961	1214.3484	1229.52	1272.817	1299.1245	1313.9652	1372.0799	1376.6124	1406.998	1420.6356	1449.8796	1452.6542	1485.7241	1489.5701	1490.2785	1497.6677	1498.5566	1514.8373	2922.8165	2928.4546	2970.5993	2971.6181	3038.4719	3057.5503	3059.477	3086.1824	3098.3431	3102.8733	3122.2469	3789.3611	3805.9799
CC1N(C)CC1(O)CO	C[C@H]1N(C)C[C@]1(O)CO	
InChI=1S/C6H13NO2/c1-5-6(9,4-8)3-7(5)2/h5,8-9H,3-4H2,1-2H3	InChI=1S/C6H13NO2/c1-5-6(9,4-8)3-7(5)2/h5,8-9H,3-4H2,1-2H3/t5-,6+/m1/s1
