22
gdb 110288	2.76823	1.16746	1.00054	1.5183	82.63	-0.2278	0.0707	0.2985	1297.031	0.193288	-404.291567	-404.281939	-404.280995	-404.325666	36.336	
C	-0.2839128515	 1.5634627747	 0.206803194	-0.41224
C	-0.092929538	 0.050722159	 0.1436875022	-0.011223
C	 0.4401772193	-0.4446249861	-1.2222100554	-0.04858
C	 1.6856791252	-0.996851408	-0.5705056458	-0.064656
C	 1.1948589652	-0.5444010926	 0.8240562191	-0.012658
C	 2.1348905647	 0.4243291987	 1.5158464074	-0.103426
O	 1.5258512371	 0.8428423745	 2.7312636951	-0.421685
N	 0.7524241449	-1.8545137835	-1.2642606679	-0.088115
C	-0.0461233807	-2.8723730978	-0.6002012857	-0.317545
H	 0.5621045654	 2.0997453055	-0.2366058307	 0.110148
H	-1.1784638836	 1.8529393363	-0.3550926765	 0.108565
H	-0.3944395995	 1.902058041	 1.239702995	 0.132992
H	-1.0192929382	-0.4365061164	 0.466999932	 0.070144
H	 0.3216038406	 0.0857619808	-2.1630929401	 0.084707
H	 2.7189230771	-0.9816394865	-0.9067117269	 0.083264
H	 0.9953651458	-1.3633154398	 1.5243126779	 0.077495
H	 3.0899467239	-0.0917066003	 1.710011479	 0.085746
H	 2.3603449274	 1.2828042536	 0.8653818851	 0.088168
H	 2.1116003867	 1.4742617699	 3.159415596	 0.286155
H	-0.4404302737	-2.5950051526	 0.3873229802	 0.109736
H	-0.8945382711	-3.1242926423	-1.2441315322	 0.121793
H	 0.5648318132	-3.7725560279	-0.4797695219	 0.121217
90.0621	140.8588	158.1906	182.3415	215.507	260.6498	268.1911	291.908	329.99	357.1019	430.2354	562.1304	573.8941	726.9548	759.7784	773.8093	865.5679	912.3905	941.2693	976.122	1000.6076	1034.3916	1050.3405	1066.0174	1077.0223	1112.9798	1120.5134	1146.2991	1163.9333	1183.8973	1212.1328	1224.1451	1255.2932	1264.4693	1279.0222	1288.5439	1359.6288	1364.967	1386.794	1409.7559	1453.5589	1459.7091	1492.1206	1495.786	1500.4341	1504.0401	1528.5484	2963.0952	2998.3193	3003.8083	3033.8211	3035.0529	3048.8705	3073.1995	3092.5005	3103.5488	3124.579	3138.3677	3150.4936	3826.1431
CC1C2C(C1CO)N2C	C[C@H]1[C@H]2[C@@H]([C@H]1CO)N2C	
InChI=1S/C7H13NO/c1-4-5(3-9)7-6(4)8(7)2/h4-7,9H,3H2,1-2H3	InChI=1S/C7H13NO/c1-4-5(3-9)7-6(4)8(7)2/h4-7,9H,3H2,1-2H3/t4-,5+,6+,7-,8?/m1/s1
