20
gdb 107309	3.06761	1.27741	1.02466	1.4534	79.8	-0.2343	0.0257	0.26	1242.9995	0.170425	-403.167974	-403.159075	-403.158131	-403.201553	33.596	
C	 0.16519008	 1.5325152424	-0.1094878829	-0.375352
C	-0.1271181867	 0.0411646308	 0.0992070413	-0.272652
C	 0.6271289264	-0.5523841769	 1.2555766608	 0.417398
C	 2.0585905981	-1.0126508789	 1.1966822154	-0.351923
C	 0.9622879263	-2.0049892153	 1.547165227	-0.084709
N	 0.7119168878	-2.2023025194	 2.954210877	-0.303996
C	 0.3387972282	-1.0704387857	 3.4112332475	 0.382784
C	 0.0026696277	-0.7414343494	 4.8238111938	-0.478642
O	 0.2259533684	-0.0341175995	 2.5253739843	-0.281872
H	 1.2282830889	 1.6997192772	-0.3104760903	 0.118612
H	-0.406360845	 1.9286787206	-0.9540208217	 0.11162
H	-0.1018791125	 2.1070834908	 0.7819292725	 0.132266
H	-1.2009026359	-0.1112339113	 0.2624804165	 0.108153
H	 0.137405119	-0.5238051615	-0.8020770177	 0.103698
H	 2.4914285436	-1.0977947931	 0.2054758702	 0.116598
H	 2.7475383333	-0.7143509927	 1.9800460819	 0.119243
H	 0.7480102365	-2.8371394224	 0.886609949	 0.098216
H	 0.0265669308	-1.650356639	 5.4242322455	 0.152992
H	 0.7186243937	-0.0203087361	 5.231503247	 0.144435
H	-0.9896558487	-0.2836344107	 4.8816148129	 0.143132
80.7822	135.8055	145.8394	174.3176	221.3889	295.9054	326.3763	390.8804	422.8467	458.0912	622.9577	647.6064	700.9236	760.9269	786.2398	857.3181	863.1532	929.4901	976.788	981.3406	986.153	1027.7396	1036.2089	1061.2196	1068.4242	1098.4248	1115.0829	1141.1175	1212.2748	1260.5189	1275.6056	1336.7949	1357.4169	1402.7966	1408.6857	1416.4522	1468.628	1474.4	1476.2525	1478.564	1497.462	1508.6846	1707.7014	3031.5673	3040.4026	3048.8707	3069.3796	3105.5133	3109.5409	3118.9188	3127.2384	3163.9984	3176.4707	3220.2587
CCC12CC1N=C(C)O2	CC[C@]12C[C@H]1N=C(C)O2	
InChI=1S/C7H11NO/c1-3-7-4-6(7)8-5(2)9-7/h6H,3-4H2,1-2H3	InChI=1S/C7H11NO/c1-3-7-4-6(7)8-5(2)9-7/h6H,3-4H2,1-2H3/t6-,7+/m1/s1
