13
gdb 7042	2.90804	1.26622	0.88702	3.8166	68.24	-0.2776	-0.0479	0.2296	1224.0258	0.092483	-398.598219	-398.589296	-398.588352	-398.634814	28.586	
C	 0.4047779338	 1.0058070653	-0.2925649112	-0.504676
C	 0.100815257	-0.3997997539	-0.0877526096	 0.082866
C	-0.1662491364	-1.5622729085	 0.0868802782	 0.044607
C	-0.516667775	-2.9309382713	 0.3045363935	 0.284061
N	-1.6638606553	-3.2690167075	 0.713395905	-0.480417
O	 0.4464448997	-3.9041696165	 0.0534404543	-0.203777
C	 1.7043739378	-3.5999066193	-0.39002412	 0.169026
O	 2.5037735957	-4.4583676633	-0.5947217434	-0.253598
H	 1.241242096	 1.3216942458	 0.3397803829	 0.166038
H	 0.6800088054	 1.1990520948	-1.3347850123	 0.166041
H	-0.4602689846	 1.6305327265	-0.048399239	 0.170575
H	-1.7197737684	-4.2855994018	 0.8066420866	 0.242315
H	 1.8673298443	-2.5215496503	-0.523647655	 0.116939
10.3427	56.8697	87.9575	124.19	170.7734	236.5691	337.8615	384.288	457.5651	498.3394	649.0673	698.9218	746.9752	905.4964	1023.3085	1042.4973	1048.1286	1050.7512	1104.8173	1147.6342	1323.7858	1411.0614	1416.2518	1469.6492	1471.5566	1724.4274	1870.377	2360.0336	3034.9476	3053.416	3099.4402	3104.9605	3473.1103	10.3152	56.8698	87.9572	124.1896	170.7732	236.569	337.8616	384.2888	457.565	498.3393	649.0671	698.9222	746.9751	905.4962	1023.3086	1042.4969	1048.129	1050.7516	1104.8174	1147.6343	1323.7856	1411.0618	1416.2515	1469.6499	1471.5574	1724.4277	1870.3761	2360.0339	3034.9475	3053.4159	3099.4402	3104.9604	3473.1108
CC#CC(=N)OC=O	CC#C[C]([NH])OC=O	
InChI=1S/C5H5NO2/c1-2-3-5(6)8-4-7/h4,6H,1H3	InChI=1S/C5H5NO2/c1-2-3-5(6)8-4-7/h4,6H,1H3
