19
gdb 51579	2.39327	1.16162	0.85291	3.9048	77.08	-0.2605	0.0045	0.265	1362.7591	0.157963	-423.014788	-423.005758	-423.004814	-423.049815	32.677	
O	 0.3301424959	 0.160428349	-0.4457163532	-0.274204
C	 0.4278401877	 1.3479681222	-0.5165159388	 0.176688
O	 0.9701482877	 2.0908334588	 0.4741622235	-0.18805
C	 0.9970068813	 3.4900928429	 0.2595903484	 0.09267
C	 2.0933923644	 4.2284621684	 0.9590456176	-0.333299
C	 2.1242376324	 4.0884095223	-0.5500926663	-0.040156
C	 3.1410060975	 3.215493209	-1.2137611167	 0.014267
C	 3.1267050806	 3.0368617486	-2.7148104149	-0.273968
C	 4.2298915586	 3.8288556236	-2.0587016676	-0.277705
H	 0.09104734	 1.9594989635	-1.3744322822	 0.083574
H	 0.0074501283	 3.9356923193	 0.2095276472	 0.108634
H	 1.8665095482	 5.1898886897	 1.405119389	 0.121486
H	 2.7925117976	 3.6188541159	 1.5212993273	 0.136433
H	 1.8550372097	 4.9750433522	-1.1198498336	 0.089395
H	 3.4244332626	 2.3418107109	-0.6353575169	 0.101722
H	 3.359483206	 2.0579895593	-3.1184950789	 0.121465
H	 2.3818974584	 3.5853655111	-3.2826162439	 0.110765
H	 4.2244701594	 4.9063805228	-2.186399482	 0.112975
H	 5.2218730838	 3.3937781404	-2.0116699781	 0.117309
43.7698	72.6146	120.3214	165.5645	180.9796	265.5851	313.1	367.4512	474.3797	559.7603	651.7656	739.883	797.0298	809.7328	830.3811	869.1703	927.4804	940.617	995.0969	1022.3642	1048.7298	1054.6043	1063.8317	1075.4998	1080.0126	1124.8111	1140.5447	1164.4922	1174.5301	1199.2011	1217.9503	1227.8493	1248.3582	1314.1749	1381.0108	1429.0855	1447.0436	1469.8671	1485.4219	1507.8687	1868.6225	2967.135	3128.6149	3130.112	3135.165	3138.4721	3145.1851	3159.7947	3209.2986	3224.6263	3228.9118
O=COC1CC1C1CC1	O=CO[C@H]1C[C@H]1C1CC1	
InChI=1S/C7H10O2/c8-4-9-7-3-6(7)5-1-2-5/h4-7H,1-3H2	InChI=1S/C7H10O2/c8-4-9-7-3-6(7)5-1-2-5/h4-7H,1-3H2/t6-,7-/m0/s1
