21
gdb 116392	2.42228	1.36814	0.93056	2.6791	79.28	-0.2296	-0.0198	0.2098	1304.3053	0.182557	-424.259923	-424.250809	-424.249864	-424.29413	34.069	
C	 0.0026590713	 1.558800254	 0.0049864771	-0.394005
C	 0.0380305456	 0.0295371211	 0.0310461887	-0.182161
C	 0.7384848531	-0.5668558908	-1.1821777178	 0.022922
O	 2.102781323	-0.1502055326	-1.165256855	-0.258785
C	 2.8530130829	-0.6054711694	-2.2769764605	-0.068538
C	 2.9736493272	-2.1273281938	-2.2618641241	-0.21054
C	 1.5726974594	-2.7630143155	-2.2516462871	-0.3065
C	 0.6463194345	-2.1028944332	-1.2388941554	 0.379061
O	-0.1312669765	-2.730763533	-0.5599578531	-0.303888
H	 1.0138155889	 1.9702382134	-0.0491484071	 0.131769
H	-0.5573873458	 1.9285176006	-0.8616890427	 0.108398
H	-0.4798866361	 1.9526273511	 0.9043293188	 0.112465
H	 0.5546238166	-0.3251894257	 0.9298132353	 0.110584
H	-0.9721676034	-0.3872292423	 0.0720865475	 0.117414
H	 0.2603134765	-0.1911489292	-2.1097771044	 0.076205
H	 2.3857259456	-0.2660683197	-3.2181555838	 0.086241
H	 3.8340577515	-0.1283052571	-2.197984854	 0.111588
H	 3.5492657797	-2.475758358	-3.1267449866	 0.102696
H	 3.5224654602	-2.4252867174	-1.3614419059	 0.118203
H	 1.1057638799	-2.6174182085	-3.2374462487	 0.1226
H	 1.5932864259	-3.838133244	-2.0580479309	 0.124272
68.2251	87.5063	143.9945	184.8718	227.2492	314.1075	330.4754	359.3505	426.6601	439.3683	527.128	557.1956	660.7969	751.1895	807.482	842.1386	884.09	907.2731	935.1036	983.3011	1017.6341	1042.1394	1071.7377	1115.1369	1135.2594	1162.3499	1176.0804	1213.6224	1251.3813	1282.7491	1308.4046	1313.7162	1333.1221	1352.0557	1374.0028	1396.8953	1407.1753	1411.1653	1463.4444	1473.9405	1485.52	1497.1359	1498.4815	1510.3384	1818.7289	2899.0807	2955.0372	3008.0778	3035.0614	3037.7864	3052.813	3081.1547	3087.5065	3092.4043	3104.7513	3104.8339	3125.1538
CCC1OCCCC1=O	CC[C@H]1OCCCC1=O	
InChI=1S/C7H12O2/c1-2-7-6(8)4-3-5-9-7/h7H,2-5H2,1H3	InChI=1S/C7H12O2/c1-2-7-6(8)4-3-5-9-7/h7H,2-5H2,1H3/t7-/m1/s1
