17
gdb 62698	3.31765	1.69019	1.40865	2.2124	73.3	-0.2379	-0.0466	0.1913	946.0024	0.135233	-417.902978	-417.8954	-417.894455	-417.934442	30.163	
C	 0.1335363199	 1.4794761844	 0.2589612033	-0.467419
C	-0.0055717907	-0.0194375611	 0.0883996402	 0.370756
O	-1.3419829185	-0.4216130704	-0.0157038912	-0.448901
C	 0.7327944248	-0.8138723893	-1.0705117905	-0.092318
C	 2.1423702588	-1.3941868603	-0.8693186319	-0.061279
C	 3.080200144	-0.9421484115	 0.2535721932	-0.194128
N	 2.0941308802	-0.4274967598	 1.237627336	-0.178176
C	 0.9778551844	-0.9259031436	 0.8727239938	 0.042533
N	 0.9923875793	-1.9856953968	-0.1841518049	-0.124738
H	 1.1798304523	 1.7821261218	 0.2694909244	 0.147531
H	-0.3933158848	 1.9862243755	-0.555525906	 0.127259
H	-0.3130080085	 1.7985315222	 1.208311017	 0.125318
H	-1.8645885633	 0.1142261324	 0.5902315815	 0.289866
H	 0.2064172025	-0.9630316904	-2.0122013151	 0.11653
H	 2.5400787127	-1.9453967371	-1.7195016897	 0.103032
H	 3.6791678477	-1.7941080041	 0.6050252291	 0.1234
H	 3.7654371293	-0.1265754821	 0.0024835708	 0.120733
173.7689	202.0079	218.4235	237.3713	342.5676	378.7507	387.8367	482.3865	522.3461	610.4082	707.8518	733.9533	752.6399	804.2879	863.6576	880.8046	938.1026	950.2524	968.9122	1002.2483	1008.7306	1057.8829	1088.576	1094.0703	1151.1164	1158.2996	1193.9451	1211.1818	1261.604	1308.3743	1340.1267	1376.2997	1408.6872	1479.9315	1487.1293	1490.4115	1615.3544	3012.4735	3036.2593	3077.5608	3100.6045	3124.7844	3142.6155	3159.9198	3815.6957
CC1(O)C2C3CN=C1N23	C[C@@]1(O)[C@H]2[C@H]3C[N][C]1N23	
InChI=1S/C6H8N2O/c1-6(9)4-3-2-7-5(6)8(3)4/h3-4,9H,2H2,1H3	InChI=1S/C6H8N2O/c1-6(9)4-3-2-7-5(6)8(3)4/h3-4,9H,2H2,1H3/t3-,4-,6-,8?/m1/s1
