21
gdb 72306	2.2286	1.92283	1.50734	0.9636	89.66	-0.2034	-0.0261	0.1773	1022.0198	0.181881	-349.866493	-349.858165	-349.857221	-349.898505	33.629	
C	 0.0488243278	 1.434785946	 0.0572149129	-0.488972
C	-0.0672092496	-0.0643791966	-0.1026871365	 0.281328
C	 0.8450707832	-0.7660224256	-1.1323742309	-0.311598
C	 0.3363606755	-2.1946184458	-1.0038167766	-0.11094
C	-0.8292245323	-2.1909604273	-0.3267444362	 0.004059
C	-0.7354807643	-2.3986316779	 1.1907694427	-0.273592
C	-0.6666472574	-0.8274556184	 1.1667642071	-0.155205
C	-1.3850815995	-0.7588556506	-0.1571736737	 0.280431
C	-2.7491110457	-0.2608064028	-0.5292814902	-0.517875
H	 1.0213973261	 1.7142518263	 0.4785277768	 0.119183
H	-0.0451841711	 1.9363485941	-0.9135006337	 0.116467
H	-0.7254673726	 1.8402207679	 0.7154475841	 0.116745
H	 0.7587955142	-0.269650531	-2.1115819204	 0.101072
H	 1.9121176575	-0.7536354319	-0.8725556201	 0.104482
H	 1.043399479	-3.0169548916	-0.9299223936	 0.091824
H	-1.6507110537	-2.7044481998	 1.7121936537	 0.101693
H	 0.1162003243	-2.9793286391	 1.5568065122	 0.097742
H	-0.8876177889	-0.2182851225	 2.0416339044	 0.082429
H	-2.9094270399	 0.7587764989	-0.1633915784	 0.117745
H	-2.8858818909	-0.2499625964	-1.6168836107	 0.122192
H	-3.5366398518	-0.8947007757	-0.1061418231	 0.12079
185.9912	194.4256	201.2285	218.3296	268.8612	294.1785	320.092	432.4786	491.3185	552.6813	583.3228	632.335	695.5844	755.4599	800.1407	845.0921	891.5253	912.7871	922.7177	929.8282	956.0873	989.8908	1016.1873	1045.7223	1079.2135	1088.7344	1117.6886	1142.1946	1169.3288	1180.3396	1220.1193	1230.145	1248.9409	1290.564	1322.8882	1408.2707	1415.5725	1438.2993	1472.0378	1485.1974	1491.5486	1496.3988	1500.4357	1506.99	1595.4802	2980.2567	3020.2225	3022.1437	3024.4956	3032.8317	3079.2212	3081.4435	3086.9157	3094.1627	3100.5672	3122.3641	3155.393
CC12CC=C3CC1C23C	C[C@@]12C[CH][C]3C[C@@H]1[C@@]23C	
InChI=1S/C9H12/c1-8-4-3-6-5-7(8)9(6,8)2/h3,7H,4-5H2,1-2H3	InChI=1S/C9H12/c1-8-4-3-6-5-7(8)9(6,8)2/h3,7H,4-5H2,1-2H3/t7-,8+,9-/m0/s1
