18
gdb 106477	2.62804	1.69627	1.28736	4.6793	71.53	-0.2289	0.0136	0.2425	1023.9429	0.149047	-439.089737	-439.081971	-439.081027	-439.121888	30.327	
C	-0.1034918988	 1.4636657467	-0.0515815568	-0.349568
N	 0.0850044584	 0.0120764853	-0.0303474231	-0.383442
C	 0.6763662264	-0.5166658993	 1.1443190858	 0.182063
C	 0.0930770255	-0.5113747514	 2.6373225688	-0.293634
C	 1.1880846232	-1.5817143611	 2.7860385308	 0.100824
C	 0.87445229	-2.0556857386	 1.3518287637	-0.289669
O	 2.4113874179	-0.8024390095	 2.5974008193	-0.242399
C	 2.1028447492	-0.0640506902	 1.4840173584	 0.464125
O	 2.8349964928	 0.7296284147	 0.9740718155	-0.356722
H	 0.871443547	 1.9498979824	 0.0128448477	 0.166407
H	-0.5652598978	 1.7453273033	-1.0013359149	 0.121132
H	-0.7388542984	 1.8429777125	 0.7662366778	 0.097516
H	-0.7893352445	-0.4633230452	-0.2215672515	 0.220526
H	 0.1927682012	 0.3901791637	 3.2446142318	 0.11987
H	-0.9224341468	-0.9113327175	 2.6788629948	 0.106361
H	 1.3080192213	-2.2389674547	 3.6424487571	 0.102316
H	-0.0649737792	-2.6086616369	 1.2761610263	 0.108147
H	 1.6710672027	-2.5521638341	 0.7942338984	 0.126149
106.9034	163.4211	200.6025	215.9564	314.4561	415.3175	468.4664	477.4956	528.9028	607.417	660.2927	741.3609	755.3434	808.2333	868.6754	896.4459	923.7977	941.1638	974.9578	994.1392	1042.6491	1053.7235	1075.905	1118.8286	1140.4528	1158.9257	1174.9276	1228.1052	1235.7037	1245.7658	1329.5628	1380.6712	1461.3035	1474.1415	1481.1246	1502.1989	1514.3209	1522.8384	1903.7767	2964.6965	3066.5511	3072.9005	3089.4195	3135.6856	3141.0776	3142.6184	3167.0127	3535.8082
CNC12CC(C1)OC2=O	CN[C@@]12C[C@@H](C1)OC2=O	
InChI=1S/C6H9NO2/c1-7-6-2-4(3-6)9-5(6)8/h4,7H,2-3H2,1H3	InChI=1S/C6H9NO2/c1-7-6-2-4(3-6)9-5(6)8/h4,7H,2-3H2,1H3/t4-,6-
