19
gdb 122926	2.69718	0.87561	0.68835	1.4981	74.23	-0.2611	0.0224	0.2835	1606.1528	0.155777	-460.101585	-460.090932	-460.089987	-460.138739	37.322	
O	-1.6549522668	 1.639214749	 0.4159327288	-0.423714
C	-0.5964790715	 0.756639467	 0.1069818506	-0.055353
C	-1.1266608471	-0.6057950714	-0.3133800634	-0.070664
O	-1.9436907366	-0.3775405569	-1.4494864483	-0.25648
C	-2.7757562576	-1.4509018182	-1.8110323275	-0.070299
C	-3.7370014111	-0.9637809694	-2.908648746	-0.049793
O	-4.4990837699	-2.0540716538	-3.4111022797	-0.415059
C	-4.5833588296	 0.1321601403	-2.431557964	 0.307459
C	-5.3129673682	 0.9913816793	-2.01300551	-0.472078
H	-2.279027	 1.5645858134	-0.3170600566	 0.290831
H	 0.0428356011	 1.1554738577	-0.6971321098	 0.093906
H	 0.0200036536	 0.6535189	 1.006089974	 0.10742
H	-0.3048540054	-1.3003391405	-0.5500639516	 0.091316
H	-1.7264923162	-1.0406447311	 0.5009689178	 0.098544
H	-2.1980219851	-2.2978501064	-2.2103381825	 0.104539
H	-3.3575434469	-1.8108148996	-0.9467411703	 0.090208
H	-3.1309132447	-0.6107746071	-3.7509131768	 0.131644
H	-5.2232571833	-2.2122995299	-2.7955652848	 0.289953
H	-5.9532535248	 1.7620540874	-1.65960515	 0.20762
32.7854	43.3839	117.1961	128.9943	182.9039	205.7676	221.0752	275.3886	294.4955	358.273	407.8558	470.5763	543.3562	574.9567	597.2075	640.3562	677.5306	823.0757	874.2757	905.3102	1031.9056	1045.8949	1081.0707	1097.7858	1103.2024	1142.6683	1171.8716	1231.3192	1239.2044	1262.8738	1267.7679	1338.9156	1375.1441	1385.9065	1415.7054	1429.2969	1444.4799	1498.0544	1501.4078	1523.5742	2232.0683	2968.0447	2977.012	2978.3158	3016.7894	3019.4578	3055.4052	3078.298	3500.2979	3778.9485	3810.8822
OCCOCC(O)C#C	OCCOC[C@@H](O)C#C	
InChI=1S/C6H10O3/c1-2-6(8)5-9-4-3-7/h1,6-8H,3-5H2	InChI=1S/C6H10O3/c1-2-6(8)5-9-4-3-7/h1,6-8H,3-5H2/t6-/m0/s1
