17
gdb 124780	4.20233	0.9812	0.92985	1.3549	70.64	-0.282	-0.0207	0.2613	1321.7287	0.134745	-455.158758	-455.14964	-455.148696	-455.193423	32.364	
C	 0.0501877045	 1.5265473549	 0.1222687009	-0.412099
C	 0.0226764722	-0.0047008559	 0.039057164	 0.0117
O	-1.2968699371	-0.52181329	 0.0585659722	-0.418973
C	 0.774041697	-0.4952269845	-1.1688094835	 0.421864
N	 1.9570454331	-1.0206701098	-1.2410050255	-0.352628
C	 2.0980441479	-1.2413713765	-2.5986089151	 0.35032
C	 3.315769873	-1.8483017808	-3.2033857885	-0.489054
N	 1.0667071369	-0.8776832193	-3.3147604796	-0.168322
O	 0.17114332	-0.3689778	-2.357878817	-0.219312
H	 1.0772689532	 1.8972287019	 0.190711968	 0.13593
H	-0.415087087	 1.9696169012	-0.7646173554	 0.128156
H	-0.5034275336	 1.848162574	 1.0076932018	 0.13575
H	 0.5239042645	-0.4311394928	 0.9116542037	 0.129482
H	-1.7505172153	-0.2130274753	-0.7342995531	 0.294288
H	 3.4874280105	-2.8448519624	-2.7858430385	 0.151953
H	 3.2047600084	-1.9254731113	-4.2857572413	 0.151045
H	 4.1956227816	-1.2404291533	-2.9725099431	 0.1499
32.9457	119.3416	140.3219	170.3964	251.8518	259.6373	284.9279	329.5888	376.218	431.3983	511.4607	659.1873	687.746	728.777	781.0081	903.8003	922.5681	992.1565	1024.1347	1033.0072	1051.8472	1071.6158	1089.5892	1115.4986	1279.5607	1316.8509	1338.2839	1370.8184	1399.2577	1419.625	1422.7649	1473.2373	1475.4546	1489.5333	1492.2503	1568.9641	1632.3999	3039.6254	3052.7588	3090.8491	3113.2472	3116.9443	3131.0701	3152.3426	3801.4176
CC(O)C1=NC(C)=NO1	C[C@@H](O)c1nc(C)no1	
InChI=1S/C5H8N2O2/c1-3(8)5-6-4(2)7-9-5/h3,8H,1-2H3	InChI=1S/C5H8N2O2/c1-3(8)5-6-4(2)7-9-5/h3,8H,1-2H3/t3-/m1/s1
