17
gdb 65594	2.91505	1.35325	1.22693	2.6898	71.43	-0.2564	0.0125	0.2689	1063.7415	0.137108	-417.997961	-417.989995	-417.989051	-418.030556	30.78	
O	-0.0953372145	 1.3535302028	 0.0411914482	-0.455166
C	 0.011899133	-0.0552324855	 0.0150124219	 0.264132
C	 0.6692400905	-0.6833432005	 1.2877026855	-0.280109
C	-0.0358393281	-2.0213936971	 1.4623983589	-0.034799
N	-1.3463526828	-1.8932606552	 2.1298514446	-0.327175
C	-1.2908265289	-2.0114264295	 0.6590850307	-0.039952
C	-1.4153272636	-0.6703914455	-0.0489192913	-0.251752
C	 0.7861366848	-0.4750229547	-1.1779795725	 0.231855
N	 1.414814689	-0.7848086148	-2.0975297258	-0.33919
H	 0.7894966865	 1.7339502519	 0.0023937906	 0.293093
H	 1.7512602043	-0.7861511378	 1.1775802019	 0.116407
H	 0.459083657	-0.0208602233	 2.1319185373	 0.129797
H	 0.5446797841	-2.9257298666	 1.6066286144	 0.098308
H	-1.609817062	-2.7910968402	 2.5306228144	 0.234362
H	-1.6752564463	-2.9090426561	 0.1878308165	 0.098557
H	-2.0872321135	 0.0001402068	 0.4930102451	 0.136595
H	-1.7669355795	-0.7612422347	-1.0779341504	 0.125034
65.3642	165.5999	183.7605	302.2948	340.344	358.1298	371.1648	436.5617	518.2683	578.4423	649.8783	693.6864	715.9663	788.5627	851.3251	884.2844	913.1253	926.8415	957.8754	984.7694	1031.4714	1082.005	1095.9389	1119.6806	1147.0981	1184.7726	1202.229	1237.9963	1279.6866	1291.6755	1327.8204	1357.2874	1384.3827	1421.8427	1471.504	1482.7748	2345.7864	3063.9818	3074.7381	3118.8418	3130.1662	3169.3451	3178.9344	3491.6475	3805.5877
OC1(CC2NC2C1)C#N	O[C@]1(C[C@H]2N[C@H]2C1)C#N	
InChI=1S/C6H8N2O/c7-3-6(9)1-4-5(2-6)8-4/h4-5,8-9H,1-2H2	InChI=1S/C6H8N2O/c7-3-6(9)1-4-5(2-6)8-4/h4-5,8-9H,1-2H2/t4-,5+,6+
