18
gdb 31736	5.9937	0.82739	0.74289	4.3509	76.55	-0.1855	0.0517	0.2372	1513.5201	0.148816	-435.293956	-435.284638	-435.283694	-435.32857	33.551	
C	 0.1155387061	 1.2835268214	 0.1867063157	-0.338774
N	-0.215929663	-0.0886239407	-0.1581898961	-0.374189
C	 0.5404136728	-0.7598559456	-1.0997019442	 0.434384
N	 0.712497841	-2.0630505972	-1.135753295	-0.399683
C	 1.461831847	-2.3006386928	-2.2752936426	 0.235201
C	 1.8720154372	-3.6864611019	-2.6692764092	-0.164435
O	 2.2413488435	-3.7755364146	-4.0381881954	-0.413942
C	 1.7417027529	-1.132381162	-2.9236640866	-0.20129
N	 1.1482075182	-0.1361223387	-2.1499783463	-0.302416
H	 1.1673699145	 1.4272179896	 0.47837233	 0.121158
H	-0.1012685582	 1.953075248	-0.654343807	 0.1241
H	-0.5212225492	 1.6016750907	 1.0146001155	 0.137832
H	-0.4012369044	-0.6908285336	 0.6309756386	 0.25361
H	 2.7566434224	-4.0084079828	-2.1063719128	 0.120237
H	 1.0630332565	-4.3866808292	-2.4102143575	 0.101971
H	 1.4909360457	-3.453480052	-4.549251136	 0.277585
H	 2.315997121	-0.9061852404	-3.8048288105	 0.128869
H	 1.110457366	 0.8429325519	-2.3726400006	 0.25978
57.2364	72.2691	154.0089	163.4765	214.5633	267.8968	302.5821	354.7109	375.5128	448.4896	511.6981	606.7382	657.8518	689.641	710.5275	747.3998	754.6633	986.5762	996.2419	1010.3143	1073.9592	1083.4104	1105.8874	1151.7023	1182.714	1197.7737	1256.5431	1280.1267	1353.1863	1386.6091	1405.1471	1429.0191	1464.8324	1491.0146	1504.0871	1516.3498	1530.3234	1610.8019	1637.3067	2983.8686	2989.5006	3047.1352	3052.4223	3124.5632	3290.2344	3608.6563	3679.2645	3803.6406
CNC1=NC(CO)=CN1	CNc1nc(CO)c[nH]1	
InChI=1S/C5H9N3O/c1-6-5-7-2-4(3-9)8-5/h2,9H,3H2,1H3,(H2,6,7,8)	InChI=1S/C5H9N3O/c1-6-5-7-2-4(3-9)8-5/h2,9H,3H2,1H3,(H2,6,7,8)
