20
gdb 95565	2.30679	1.63516	1.0869	2.9431	81.17	-0.2194	-0.0092	0.2102	1155.676	0.172024	-403.16826	-403.159652	-403.158708	-403.201642	33.141	
C	-0.1807754555	 1.4193516883	 0.0719326317	-0.414021
C	-0.0393201976	-0.1021593776	-0.0615112101	-0.043213
N	 1.0183654096	-0.4337017737	-1.0075562649	-0.305027
C	 0.9512251607	-1.7809992864	-1.5614776093	-0.219805
C	 1.2771934032	-2.8635925221	-0.5710216825	-0.004903
C	 1.5488142069	-2.7277808944	 0.7266326696	-0.088633
C	 1.5518882586	-1.4385175096	 1.5251556723	-0.338604
C	 0.2354095092	-0.6919661936	 1.3364823809	 0.399263
O	-0.5727281633	-0.5584524228	 2.2236754235	-0.316774
H	 0.7760552656	 1.8723845463	 0.3515864101	 0.126239
H	-0.5052509196	 1.8607875862	-0.8762991893	 0.111804
H	-0.9199430024	 1.6551123381	 0.8390906598	 0.148082
H	-1.0198527657	-0.5119539039	-0.3689783197	 0.084615
H	 1.0153937523	 0.2388354735	-1.7649301441	 0.220939
H	-0.0402804347	-2.0082898844	-2.0071312599	 0.090624
H	 1.6675472518	-1.8382368868	-2.39226951	 0.110986
H	 1.2782020701	-3.8662175125	-0.9945382604	 0.089412
H	 1.7504969995	-3.6276722193	 1.3011197739	 0.098249
H	 1.6616129671	-1.6485976313	 2.5904080814	 0.114093
H	 2.373396064	-0.7907283238	 1.201643927	 0.136675
49.3364	134.0753	223.5648	238.8916	279.0354	321.0327	329.3692	407.9798	456.9782	486.8896	533.7096	650.7923	671.3176	722.7326	780.423	851.8406	865.8439	917.8065	942.7531	982.8571	996.548	1022.9239	1026.1522	1092.8429	1129.7034	1154.3226	1197.6014	1237.0078	1246.7929	1282.7141	1308.1064	1310.6464	1339.0431	1393.6416	1404.5608	1411.3054	1456.6019	1481.0368	1488.3258	1501.3025	1507.114	1729.2522	1814.0489	2877.118	2923.0177	3024.3275	3036.693	3051.9114	3101.7926	3119.5739	3141.478	3144.602	3169.6109	3541.0716
CC1NCC=CCC1=O	C[C@H]1NCC=CCC1=O	
InChI=1S/C7H11NO/c1-6-7(9)4-2-3-5-8-6/h2-3,6,8H,4-5H2,1H3	InChI=1S/C7H11NO/c1-6-7(9)4-2-3-5-8-6/h2-3,6,8H,4-5H2,1H3/t6-/m1/s1
