18
gdb 18299	3.45383	1.95934	1.66076	2.2988	66.6	-0.2331	0.0708	0.304	848.1411	0.155983	-384.92034	-384.913267	-384.912322	-384.951619	27.728	
O	 0.3381576495	 1.0871543185	 0.6148737016	-0.426865
C	 0.0938949381	-0.2044657487	 0.1615194417	 0.096319
C	-1.3272783927	-0.6931976917	-0.0545928681	-0.10171
C	-2.5032579419	 0.2584512161	 0.0830768168	-0.230038
C	-3.107557984	 0.5006772324	-1.3113159061	-0.22122
C	-2.0491413473	 1.0548724463	-2.2898887433	-0.057915
O	-0.6956810078	 0.8536354696	-1.8534051449	-0.270756
C	-0.4303311435	-0.3749667962	-1.2391979221	 0.017427
H	 0.1833277024	 1.6626745944	-0.1481250529	 0.293828
H	 0.8195098367	-0.9225608278	 0.5320240484	 0.098111
H	-1.5178955295	-1.7427046356	 0.1486411578	 0.085371
H	-3.2592630657	-0.1598558219	 0.7528041087	 0.101816
H	-2.1678921068	 1.1999067579	 0.5307896489	 0.114005
H	-3.50079464	-0.4505695344	-1.6866308077	 0.104031
H	-3.9530411956	 1.1946361145	-1.2646994664	 0.101095
H	-2.1758593719	 0.6170690455	-3.2895120771	 0.099092
H	-2.1407083592	 2.1404620198	-2.3906763539	 0.111493
H	-0.0538595107	-1.1511225987	-1.9033330414	 0.085917
91.0564	152.8883	238.4873	312.7324	429.1685	459.7376	484.5243	594.2379	643.5124	683.3003	762.898	780.084	825.767	878.2251	928.109	936.4588	989.6797	1011.7451	1051.537	1077.0195	1091.8271	1112.4454	1147.8856	1153.824	1218.4553	1224.6477	1253.6451	1292.774	1318.9268	1338.0122	1364.3346	1375.7216	1378.3521	1418.6916	1447.5157	1494.3124	1497.6371	1515.4185	3006.8881	3040.4096	3049.0995	3068.0319	3089.1822	3096.0277	3110.8034	3146.5371	3157.8749	3728.0296
OC1C2CCCOC12	O[C@H]1[C@H]2CCCO[C@@H]12	
InChI=1S/C6H10O2/c7-5-4-2-1-3-8-6(4)5/h4-7H,1-3H2	InChI=1S/C6H10O2/c7-5-4-2-1-3-8-6(4)5/h4-7H,1-3H2/t4-,5+,6-/m1/s1
