20
gdb 96850	3.36645	1.09171	0.90532	2.2369	78.47	-0.2412	0.0328	0.2739	1335.0107	0.169801	-440.305617	-440.295815	-440.294871	-440.341408	35.255	
C	 0.0665128242	 1.3952925959	 0.110781082	-0.330601
N	-0.1273909402	-0.0126985237	-0.2009006604	-0.330494
C	 0.6597101578	-0.5830999031	-1.0000375331	 0.439798
C	 0.5886589847	-2.0304974406	-1.427334273	-0.364541
C	 2.0166975956	-2.3041819438	-1.9188513533	 0.100007
O	 2.1426192163	-3.2689227363	-2.9429378852	-0.431651
C	 2.4493737447	-0.9166725746	-2.4471897018	 0.094362
C	 2.1280443811	-0.6708962605	-3.9156909033	-0.38697
O	 1.735389035	 0.0161437377	-1.6111023226	-0.259836
H	-0.1357443142	 1.5533806262	 1.1750053456	 0.118885
H	 1.0687606018	 1.7722746343	-0.1225077787	 0.120536
H	-0.6625022287	 1.9984464286	-0.4449970296	 0.122898
H	 0.2519107623	-2.6690657733	-0.6099648644	 0.125874
H	-0.1117839266	-2.1440577539	-2.2629847434	 0.132662
H	 2.6543562637	-2.564075713	-1.0609946123	 0.082684
H	 1.9228904124	-4.1298243278	-2.5746088887	 0.2911
H	 3.5139826315	-0.7400277621	-2.2675396342	 0.092122
H	 1.0685427341	-0.8402265771	-4.1274768191	 0.122773
H	 2.3713096726	 0.3626002951	-4.1757562634	 0.123696
H	 2.7124091219	-1.344902798	-4.5459842012	 0.136694
23.9757	77.0164	107.5815	205.9423	225.6703	249.3231	259.8073	270.2646	359.7272	404.4199	472.439	546.5397	588.7748	653.5057	686.2511	799.4894	828.8168	935.8411	972.6825	995.2632	1045.0576	1079.6953	1095.6748	1124.439	1130.7847	1137.5538	1152.3994	1186.0757	1206.7549	1255.325	1267.2505	1345.2462	1374.8277	1387.1772	1406.1394	1433.0002	1438.6216	1476.3589	1488.8288	1491.6311	1493.2976	1499.6664	1803.0197	2989.1682	3014.4843	3048.5152	3052.4214	3064.1725	3071.6065	3091.0434	3124.4369	3128.3961	3137.533	3829.9752
CN=C1CC(O)C(C)O1	CN=C1C[C@@H](O)[C@@H](C)O1	
InChI=1S/C6H11NO2/c1-4-5(8)3-6(7-2)9-4/h4-5,8H,3H2,1-2H3	InChI=1S/C6H11NO2/c1-4-5(8)3-6(7-2)9-4/h4-5,8H,3H2,1-2H3/t4-,5-/m1/s1
