14
gdb 51281	5.49222	0.94341	0.80915	4.6667	66.49	-0.2479	-0.0298	0.2181	1303.0828	0.101396	-470.07335	-470.065187	-470.064243	-470.107717	28.731	
O	-0.4184231587	 0.0845614695	 0.0116280995	-0.244385
C	-0.1182341832	 1.2443388994	 0.0097354736	 0.160486
N	 1.170430494	 1.7678999904	-0.0033396369	-0.417482
C	 2.3716498843	 1.0717373881	-0.0183896513	 0.527591
N	 2.5323724725	-0.1928798905	-0.0322564938	-0.289102
C	 3.9781313019	-0.410114332	-0.0433518567	-0.294396
C	 4.6412556669	 0.9727862913	-0.0343424023	 0.403812
O	 5.8013681604	 1.2938444395	-0.0366319615	-0.352599
N	 3.545417578	 1.8363663985	-0.0189355065	-0.410849
H	-0.8545138922	 2.0731687277	 0.0185236222	 0.088362
H	 1.2300287673	 2.7744784913	-0.0026104824	 0.257325
H	 4.2988784767	-0.990337994	 0.8293546784	 0.153605
H	 4.2876431904	-0.9733976357	-0.9310723944	 0.15347
H	 3.6329798518	 2.8397896563	-0.0051110481	 0.264162
16.8627	134.9301	156.6372	186.3995	304.0822	305.7287	384.0893	499.2481	508.1465	559.6377	591.079	687.3378	727.6034	846.0659	905.7788	957.8221	980.014	1020.3549	1058.8862	1135.6302	1181.017	1202.2435	1238.0737	1288.8357	1410.6342	1443.5511	1449.0598	1554.222	1716.6351	1856.9397	1864.4944	2931.9372	3047.7812	3080.4011	3628.351	3647.0312
O=CNC1=NCC(=O)N1	O=CNC1=NCC(=O)N1	
InChI=1S/C4H5N3O2/c8-2-6-4-5-1-3(9)7-4/h2H,1H2,(H2,5,6,7,8,9)	InChI=1S/C4H5N3O2/c8-2-6-4-5-1-3(9)7-4/h2H,1H2,(H2,5,6,7,8,9)
