14
gdb 132554	3.2202	1.38931	0.97641	3.0389	66.68	-0.257	-0.0341	0.2228	1108.1172	0.101732	-478.054481	-478.047025	-478.046081	-478.086622	27.701	
C	-0.0306562089	 1.5434189637	-0.0230146276	-0.494958
C	-0.0048198725	 0.0424407517	-0.0247801082	 0.159255
C	-0.1071824665	-0.7335496077	-1.1670929341	-0.047886
N	-0.0843458911	-2.0771649769	-1.1760066253	-0.327015
C	 0.0454511361	-2.6249068987	 0.0100670007	 0.346436
F	 0.072303693	-3.9440632386	 0.0448164684	-0.056664
N	 0.1545362532	-2.0318732219	 1.1892419141	-0.409296
C	 0.128132134	-0.7049625359	 1.1589602046	 0.384045
O	 0.2354234558	-0.0543789692	 2.3256365775	-0.399889
H	 0.8889277284	 1.9573426341	 0.4040097379	 0.143669
H	-0.140396725	 1.9296118778	-1.0396331061	 0.128456
H	-0.8596022956	 1.9269569298	 0.5811931727	 0.143663
H	-0.2136470145	-0.2549253877	-2.1381975429	 0.121926
H	 0.3171278436	-0.7298243603	 3.0147285682	 0.308258
117.2134	131.432	234.928	266.5694	332.4233	367.6875	471.2556	495.6763	574.8192	581.7279	589.0612	745.9002	773.0932	788.2093	818.2966	978.4976	1003.7493	1037.8006	1072.3691	1191.0663	1246.3556	1315.9383	1347.6967	1368.5653	1417.3302	1472.3973	1476.7688	1488.4027	1502.0473	1630.4102	1655.6025	3037.1116	3092.3694	3119.4658	3157.0334	3755.9649
CC1=CN=C(F)N=C1O	Cc1cnc(F)nc1O	
InChI=1S/C5H5FN2O/c1-3-2-7-5(6)8-4(3)9/h2H,1H3,(H,7,8,9)	InChI=1S/C5H5FN2O/c1-3-2-7-5(6)8-4(3)9/h2H,1H3,(H,7,8,9)
