22
gdb 110261	2.02119	1.55331	1.01713	1.9486	84.49	-0.1978	0.073	0.2708	1271.255	0.19259	-404.265953	-404.256401	-404.255457	-404.300189	36.534	
C	 0.0262809105	 1.6005781543	-0.0989995619	-0.369656
C	 0.1135149398	 0.0787680465	 0.0217006594	-0.129843
N	-1.2405044146	-0.4845327999	 0.04145916	-0.11065
C	-2.0251810549	-0.6395688113	 1.3305789178	-0.10266
C	-2.9692431708	-1.589130723	 0.5260872326	 0.049414
C	-3.8779918317	-1.0279191557	-0.5495654339	-0.425204
C	-1.4899706019	-1.9711619372	 0.1840250058	-0.071289
C	-1.2241776416	-1.936878439	 1.7116607504	 0.14442
O	 0.1129761991	-1.8976434539	 2.13213133	-0.43195
H	 1.0252431363	 2.0395421974	-0.1890283729	 0.105304
H	-0.5652510583	 1.8874056643	-0.9732135982	 0.116978
H	-0.4495820637	 2.0393565895	 0.7854221731	 0.106983
H	 0.6011397061	-0.3286073261	-0.8735706144	 0.092379
H	 0.7352757467	-0.1980472028	 0.8779396736	 0.10619
H	-2.3004573158	 0.2132722376	 1.9552998903	 0.07318
H	-3.484816675	-2.3304093163	 1.1437763843	 0.064472
H	-3.3438055168	-0.2962101782	-1.1562776965	 0.136469
H	-4.24507548	-1.829438865	-1.2002878006	 0.10901
H	-4.7535464529	-0.5456250566	-0.1007013722	 0.108239
H	-1.1271048256	-2.693172541	-0.5507009225	 0.077319
H	-1.7919809768	-2.6709801729	 2.3034801164	 0.065313
H	 0.122710602	-1.7445901107	 3.0822171396	 0.285583
50.4842	158.9405	194.4063	215.8188	219.6236	243.512	262.7806	286.5467	377.8258	394.1162	442.4402	522.0969	657.6424	714.018	758.1227	787.7178	809.1472	838.0408	892.1668	896.5794	967.5578	1034.9101	1039.519	1068.5763	1077.7216	1092.5197	1121.0403	1125.4851	1159.2922	1182.0888	1183.8578	1208.7961	1221.84	1225.7205	1281.2216	1302.8566	1316.0162	1377.4827	1389.7978	1404.59	1412.0963	1465.4784	1488.141	1492.1794	1497.9735	1508.5588	1514.9378	2974.6586	3023.5996	3031.5536	3033.3101	3064.632	3076.9263	3086.8401	3087.0112	3096.6069	3097.3264	3116.2967	3147.9518	3818.3332
CCN1C2C(C)C1C2O	CCN1[C@H]2[C@@H](C)[C@@H]1[C@H]2O	
InChI=1S/C7H13NO/c1-3-8-5-4(2)6(8)7(5)9/h4-7,9H,3H2,1-2H3	InChI=1S/C7H13NO/c1-3-8-5-4(2)6(8)7(5)9/h4-7,9H,3H2,1-2H3/t4-,5+,6-,7+
