22
gdb 112831	2.86161	1.22683	1.10612	0.9786	80.85	-0.2306	0.0772	0.3078	1226.5004	0.195656	-404.331699	-404.322845	-404.321901	-404.364995	34.595	
C	-0.0371429916	 1.5721721703	 0.0219143563	-0.402781
C	 0.064364557	 0.045899572	 0.0110184226	 0.023241
C	 0.8438610362	-0.545893639	-1.1841020365	-0.266899
C	 1.3817646364	-1.8890144759	-0.6452085094	 0.04155
C	 2.6306305207	-2.4304460751	-1.3413695805	-0.091089
O	 3.7430679675	-1.5464028044	-1.3146811697	-0.417546
N	 1.5625643366	-1.7395676234	 0.8204541649	-0.124969
C	 2.2650180264	-0.5024915334	 1.2305583105	-0.274993
C	 0.782836031	-0.5536191408	 1.2182383432	-0.0206
H	 0.95750861	 2.0307325672	 0.032362981	 0.11638
H	-0.5667428008	 1.9390142222	-0.8634503627	 0.115056
H	-0.5794943124	 1.929079784	 0.9039667529	 0.113474
H	-0.9525875827	-0.369555996	 0.0039407236	 0.074852
H	 0.2140276937	-0.6801543662	-2.0675059236	 0.097693
H	 1.6728338778	 0.1060986831	-1.4766643171	 0.117562
H	 0.6048362285	-2.6578672951	-0.7600411345	 0.077485
H	 2.8913507296	-3.4032051871	-0.9013780687	 0.099677
H	 2.4018812059	-2.597556676	-2.3999270769	 0.107387
H	 4.1073943601	-1.5726526726	-0.4253186176	 0.293801
H	 2.7977938371	-0.5903026274	 2.1732234025	 0.112345
H	 2.7702016955	 0.0965761227	 0.4798461217	 0.123942
H	 0.2391042975	-0.6239677092	 2.1568778779	 0.084432
86.2335	126.7853	197.481	226.7318	243.0006	280.2722	338.1279	373.1205	404.0413	487.761	589.2812	612.247	669.652	735.8706	818.0974	853.5676	870.975	899.6468	933.1138	948.5682	995.1786	1018.4994	1052.7202	1064.7411	1086.5404	1099.7296	1119.8768	1134.6345	1158.5038	1168.5378	1209.2809	1229.9986	1263.4364	1280.6205	1331.4272	1345.2565	1360.6783	1368.2839	1388.5637	1408.4793	1412.2559	1418.0673	1490.1736	1493.515	1496.1051	1498.5787	1520.625	2999.9156	3009.0922	3014.5595	3029.2066	3058.2672	3070.7456	3096.4631	3098.3991	3102.8728	3116.4938	3138.3539	3202.3766	3837.3523
CC1CC(CO)N2CC12	C[C@H]1C[C@@H](CO)N2C[C@@H]12	
InChI=1S/C7H13NO/c1-5-2-6(4-9)8-3-7(5)8/h5-7,9H,2-4H2,1H3	InChI=1S/C7H13NO/c1-5-2-6(4-9)8-3-7(5)8/h5-7,9H,2-4H2,1H3/t5-,6-,7-,8?/m0/s1
