16
gdb 98963	5.22111	0.74037	0.65106	3.7654	71.23	-0.2636	-0.098	0.1655	1607.4063	0.123229	-471.215391	-471.206105	-471.205161	-471.250242	32.692	
O	 0.0806220475	 1.2617570942	 0.6705499211	-0.416484
C	-0.0676528908	-0.0928566675	 0.3876458382	-0.110652
C	-1.5129203842	-0.4244925511	 0.04435222	 0.363973
N	-2.3654035016	 0.512950935	 0.0548569116	-0.524611
N	-1.7344411367	-1.7726988943	-0.25288479	-0.383902
C	-2.932005092	-2.3625199094	-0.5946054457	 0.313952
N	-4.0363528261	-1.7320719959	-0.6914949517	-0.49654
C	-2.8224322382	-3.8541902152	-0.8520401812	 0.103496
O	-3.7739931925	-4.5178297041	-1.1599809284	-0.221922
H	-0.8143525919	 1.6337955459	 0.566954898	 0.299453
H	 0.5725041155	-0.3930407809	-0.4607699953	 0.104125
H	 0.240293746	-0.7135374049	 1.2476782535	 0.104042
H	-3.3032557348	 0.194146729	-0.1876107789	 0.265816
H	-0.9290285289	-2.3798797645	-0.2083157866	 0.2579
H	-4.7657800244	-2.3974451936	-0.9574424526	 0.249019
H	-1.8088246669	-4.3012090326	-0.739722202	 0.092335
59.3868	97.7763	113.7198	139.1108	187.7019	285.2792	322.3665	388.7483	404.5615	442.4744	477.5809	536.1791	583.5958	686.2207	754.3286	886.8925	894.6981	941.3856	976.6685	1025.4712	1053.4215	1054.9441	1149.1413	1169.2645	1254.3109	1283.1145	1324.3556	1379.0512	1427.9166	1481.8117	1513.847	1559.5212	1695.8315	1752.4735	1839.3248	2878.9271	2949.5917	2961.5553	3460.8648	3484.5255	3603.7525	3609.4251
OCC(=N)NC(=N)C=O	OCC(=N)NC(=N)C=O	
InChI=1S/C4H7N3O2/c5-3(1-8)7-4(6)2-9/h1,9H,2H2,(H3,5,6,7)	InChI=1S/C4H7N3O2/c5-3(1-8)7-4(6)2-9/h1,9H,2H2,(H3,5,6,7)
