23
gdb 53691	5.20441	0.49231	0.46618	1.1103	92.77	-0.242	0.0624	0.3044	2434.1557	0.201765	-388.272852	-388.26086	-388.259916	-388.313166	40.713	
C	 0.0740147744	 1.4648527312	-0.1278690029	-0.496319
C	 0.0207625953	 0.0170575492	 0.0188527813	 0.072161
C	-0.0105578272	-1.1800957157	 0.1438877109	 0.038446
C	-0.0836846996	-2.6290568185	 0.285411008	-0.3477
C	-1.4679524439	-3.18247718	-0.0742178376	-0.053243
O	-1.4164301174	-4.5817510271	 0.0868143982	-0.255132
C	-2.6656383682	-5.2577653416	-0.0160427301	 0.159943
C	-3.161780521	-5.3307972415	-1.4635204558	-0.393185
C	-2.4542687311	-6.6419942456	 0.5875657319	-0.386947
H	 0.8100803487	 1.7634324671	-0.8826852907	 0.146075
H	-0.8964260912	 1.8700379506	-0.4357620911	 0.145455
H	 0.3503811869	 1.9519781143	 0.8139490827	 0.146121
H	 0.6597821224	-3.1163692406	-0.3572938454	 0.133238
H	 0.1536843931	-2.9295859228	 1.3131318653	 0.131341
H	-2.2317629898	-2.740180079	 0.5854855704	 0.092964
H	-1.7196508538	-2.8958531635	-1.1059071299	 0.097979
H	-3.4114867682	-4.7124293191	 0.5878419683	 0.063233
H	-4.1088799081	-5.8773813851	-1.5144723405	 0.113851
H	-3.3306852948	-4.3367712259	-1.8870527872	 0.117326
H	-2.4281915876	-5.8507864967	-2.0882602533	 0.121282
H	-2.0978307846	-6.5585564507	 1.6175290309	 0.119742
H	-3.3874363797	-7.2129676554	 0.5839826944	 0.111133
H	-1.7070050145	-7.1965415736	 0.010925972	 0.122238
13.5816	34.333	58.9395	64.6139	124.8516	177.2714	205.8099	223.8543	251.1664	271.5432	320.7907	390.5934	394.9884	437.2278	473.3504	542.9898	766.8724	796.8826	840.9234	925.8302	935.1202	947.941	1051.2895	1051.5449	1059.7772	1090.7365	1114.5741	1152.4312	1167.1391	1174.1757	1199.9593	1228.6051	1301.7034	1310.5764	1364.8066	1371.8323	1397.1991	1413.4846	1415.6704	1431.2784	1478.9595	1479.1211	1479.8388	1480.3097	1485.7643	1495.1246	1509.3231	1527.7541	2375.522	2951.0978	2973.5337	3009.1155	3024.7722	3028.3664	3036.5115	3042.1291	3064.5317	3084.4699	3084.555	3106.944	3112.6589	3115.7369	3122.1809
CC#CCCOC(C)C	CC#CCCOC(C)C	
InChI=1S/C8H14O/c1-4-5-6-7-9-8(2)3/h8H,6-7H2,1-3H3	InChI=1S/C8H14O/c1-4-5-6-7-9-8(2)3/h8H,6-7H2,1-3H3
