19
gdb 81819	2.15395	1.66258	1.1642	2.6204	79.51	-0.2499	0.0206	0.2705	1125.3537	0.158704	-382.051849	-382.042865	-382.041921	-382.085263	33.615	
C	-0.2760643472	 1.5311255291	 0.0887332855	-0.414502
C	 0.0689552774	 0.0560398549	 0.0371725025	 0.06253
C	 1.1530675882	-0.4851139234	-0.969486261	-0.266507
C	 1.886640707	 0.4574875332	-1.798975993	 0.283704
N	 2.4654133202	 1.2327290338	-2.4332573419	-0.338809
C	 1.8731563005	-1.0461743865	 0.273033939	 0.355093
C	 2.4556794929	-2.4248359194	 0.342200281	-0.497636
C	 2.1586014977	 0.0448835625	 1.2219661901	-0.298654
N	 0.7972612039	-0.534904213	 1.2154064352	-0.172585
H	 0.6070465329	 2.172848423	 0.1354860516	 0.136653
H	-0.843082402	 1.8179593615	-0.8024333553	 0.13231
H	-0.8958418651	 1.7307858979	 0.9684596169	 0.134491
H	-0.8461996701	-0.5273760812	-0.0894706475	 0.099176
H	 0.7447012229	-1.2752652604	-1.6037044148	 0.125952
H	 3.3813813236	-2.4834818203	-0.2415983716	 0.135966
H	 2.6881535775	-2.6890700152	 1.3773853392	 0.13754
H	 1.7583840374	-3.1723070629	-0.0513827198	 0.125386
H	 2.7111009427	-0.2158066339	 2.1191277649	 0.127975
H	 2.3282925195	 1.0586602803	 0.870975689	 0.131918
110.5	124.9795	176.7683	183.3582	195.7342	240.3453	346.7627	358.5367	405.7658	509.3572	531.4224	551.4177	688.9399	710.0481	775.2488	793.9836	855.5757	924.3915	967.1725	998.7511	1012.5766	1082.9565	1099.6491	1105.1832	1115.7154	1127.5183	1160.5461	1189.707	1253.9567	1307.1141	1321.4169	1376.2851	1394.66	1415.4487	1426.6726	1481.3904	1487.6873	1490.8755	1492.2991	1510.4531	2347.2576	3031.2521	3044.6716	3070.418	3089.8135	3093.8109	3112.6843	3117.3666	3119.5881	3128.4156	3206.646
CC1C(C#N)C2(C)CN12	C[C@H]1[C@@H](C#N)[C@@]2(C)CN12	
InChI=1S/C7H10N2/c1-5-6(3-8)7(2)4-9(5)7/h5-6H,4H2,1-2H3	InChI=1S/C7H10N2/c1-5-6(3-8)7(2)4-9(5)7/h5-6H,4H2,1-2H3/t5-,6+,7+,9?/m0/s1
