19
gdb 93889	2.20068	1.4788	1.10401	4.7975	71.58	-0.2326	-0.0087	0.2239	1152.4705	0.158534	-460.172295	-460.163052	-460.162107	-460.207086	33.984	
O	-0.3077372629	 1.4771281412	 0.6799098334	-0.433354
C	-0.061257418	 0.1829706541	 0.1361403079	 0.093132
C	 0.7491085141	-0.6909250662	 1.1059373611	-0.237347
C	-0.2739253543	-1.0295732443	 2.2001265127	-0.234993
C	-1.6123118351	-1.2317604908	 1.4448783002	 0.115013
O	-2.7263871063	-0.643804196	 2.104167058	-0.429126
C	-1.4173099682	-0.5541987473	 0.0506708724	-0.104271
C	-2.5652851014	 0.3496219551	-0.3730136901	 0.174507
O	-3.1522726744	 0.2144309555	-1.4175503705	-0.275413
H	 0.5359253309	 1.9322598305	 0.763139826	 0.286451
H	 0.4066473659	 0.2674824369	-0.8537036329	 0.073254
H	 1.0877562878	-1.5958101697	 0.586711889	 0.103353
H	 1.6405264195	-0.178375048	 1.4832917391	 0.092125
H	 0.0091105214	-1.8941851648	 2.8067824745	 0.091989
H	-0.4017621726	-0.1684581641	 2.8622989754	 0.119452
H	-1.8052521252	-2.3017589718	 1.2856772487	 0.074008
H	-2.8762808853	-1.1224278917	 2.9248387533	 0.286315
H	-1.3333055535	-1.3274108567	-0.7171169896	 0.093285
H	-2.8186687722	 1.1543848981	 0.3372105114	 0.111618
39.0584	60.8219	182.1239	212.992	234.877	286.1882	301.7629	359.8225	411.1891	452.7303	467.2995	498.4495	613.1514	778.3175	822.1719	849.9537	861.0917	919.9149	970.2829	1006.4913	1023.1763	1046.486	1062.3934	1103.6687	1132.8684	1185.9752	1201.3825	1213.5268	1241.424	1288.6409	1314.0019	1321.7293	1330.1073	1339.5743	1370.1506	1416.44	1425.1827	1435.1964	1480.3984	1491.8699	1820.722	2993.1599	2994.7549	3011.3721	3036.0862	3057.5882	3077.8437	3083.2066	3110.3584	3822.4714	3827.9224
OC1CCC(O)C1C=O	O[C@H]1CC[C@@H](O)[C@H]1C=O	
InChI=1S/C6H10O3/c7-3-4-5(8)1-2-6(4)9/h3-6,8-9H,1-2H2	InChI=1S/C6H10O3/c7-3-4-5(8)1-2-6(4)9/h3-6,8-9H,1-2H2/t4-,5-,6+
