21
gdb 107111	3.21926	1.11634	1.08958	1.6059	83.18	-0.2041	0.0694	0.2735	1250.4009	0.181434	-387.017589	-387.008582	-387.007638	-387.051049	35.087	
C	 0.0136030959	 1.5099889338	 0.0017667307	-0.491359
C	 0.0161938042	 0.0096306541	 0.0077074827	 0.362173
C	-0.9258752267	-0.830791197	 0.8259436843	-0.357431
C	 0.5609022508	-0.968045706	 1.03931193	-0.153805
C	 1.3068886627	-1.7484633188	-0.0808860885	 0.394403
C	 2.7238999846	-2.1872341452	 0.0826211041	-0.195796
O	 2.7500772515	-3.3494847664	 0.9066260604	-0.420401
C	 0.3985838639	-2.2699692608	-1.1602875348	-0.352151
C	 0.7288264696	-0.7999380431	-1.1204411666	-0.183776
H	 1.0116874606	 1.911161016	-0.2125704228	 0.113682
H	-0.6701974431	 1.905727063	-0.7601615927	 0.117631
H	-0.3045616987	 1.9070464876	 0.9712071994	 0.115857
H	-1.4273462392	-0.27854168	 1.6164802013	 0.1065
H	-1.5385894207	-1.6234507731	 0.4105491585	 0.108931
H	 1.0239738382	-0.7579157196	 1.9958503689	 0.083585
H	 3.1594158645	-2.3895345997	-0.9098618746	 0.080387
H	 3.313606445	-1.3748164112	 0.5391886836	 0.082258
H	 3.6683545026	-3.5421314966	 1.1195053661	 0.28381
H	 0.9176519156	-2.8153481508	-1.9438266904	 0.109422
H	-0.5935305103	-2.6570226433	-0.9592927273	 0.112578
H	 1.2517675988	-0.3090577029	-1.9330710923	 0.083502
75.3066	116.1146	210.6231	219.0199	247.241	287.297	331.3272	365.7399	401.2653	460.1801	493.6802	604.1463	666.3682	781.5725	801.6185	853.7758	864.6012	911.4175	938.3837	946.5164	969.7895	984.5227	1009.3212	1024.4231	1033.4998	1057.4027	1063.4066	1092.8137	1101.3404	1137.416	1186.486	1198.9268	1239.7645	1246.8982	1289.2542	1326.9551	1359.5999	1402.5798	1422.6807	1463.2987	1484.3672	1491.7407	1502.6054	1511.8581	1521.6787	2953.6511	2981.8144	3013.5122	3067.2816	3094.983	3117.955	3131.2087	3175.9376	3182.0937	3195.4745	3207.9866	3819.5696
CC12CC1C1(CO)CC21	C[C@]12C[C@H]1[C@@]1(CO)C[C@@H]21	
InChI=1S/C8H12O/c1-7-2-5(7)8(4-9)3-6(7)8/h5-6,9H,2-4H2,1H3	InChI=1S/C8H12O/c1-7-2-5(7)8(4-9)3-6(7)8/h5-6,9H,2-4H2,1H3/t5-,6+,7+,8+/m1/s1
