18
gdb 99365	6.31401	0.60029	0.57557	4.6635	76.14	-0.2481	0.0221	0.2701	1878.9764	0.14446	-439.068786	-439.057958	-439.057013	-439.106896	36.76	
O	 0.0123874462	 1.1333160397	-0.6206275415	-0.388036
C	-0.0240433005	-0.1418282662	-0.0331509248	-0.185074
C	-1.4344210822	-0.7200875835	-0.2079185454	 0.40453
O	-2.167633423	-0.4170828612	-1.1258419093	-0.352406
N	-1.7766259334	-1.6413148221	 0.741736063	-0.320232
C	-3.0379776977	-2.3584153968	 0.6870127208	-0.159027
C	-3.0120835283	-3.5346777929	-0.3166933732	-0.342231
C	-4.2669704991	-4.2731678429	-0.3240722093	 0.292589
C	-5.31537592	-4.8604245941	-0.296711785	-0.438168
H	 0.9324453613	 1.4003676944	-0.6990279823	 0.293603
H	 0.6730526891	-0.845067469	-0.5187603801	 0.114011
H	 0.2377118186	-0.1144356003	 1.0383343866	 0.089103
H	-1.1306405323	-1.8501238565	 1.4846580622	 0.245793
H	-3.2724241871	-2.7266228034	 1.6888732578	 0.115826
H	-3.8202668677	-1.6565589943	 0.3889881849	 0.152012
H	-2.8056940922	-3.1264571396	-1.3121364291	 0.16044
H	-2.1820009613	-4.2074130495	-0.0669296122	 0.120989
H	-6.2380208006	-5.3856942918	-0.2909729832	 0.196276
26.965	43.7324	62.9977	70.6069	160.0805	186.5014	224.0998	307.2324	337.7759	356.0483	373.5556	447.1266	549.96	596.6101	620.8488	646.9625	704.5238	768.3007	897.3502	971.0612	1014.7215	1021.4315	1061.5665	1092.8318	1141.3497	1208.7701	1229.6293	1247.7248	1288.1762	1302.3439	1338.1587	1401.2365	1453.8695	1469.1119	1481.1422	1501.1501	1535.0565	1799.928	2239.3949	2953.3491	2982.3922	3028.8209	3069.3851	3076.7035	3126.5262	3507.2097	3646.161	3839.9654
OCC(=O)NCCC#C	OCC(=O)NCCC#C	
InChI=1S/C6H9NO2/c1-2-3-4-7-6(9)5-8/h1,8H,3-5H2,(H,7,9)	InChI=1S/C6H9NO2/c1-2-3-4-7-6(9)5-8/h1,8H,3-5H2,(H,7,9)
