21
gdb 105887	2.03094	1.47928	1.27445	1.9994	78.71	-0.2272	0.0782	0.3054	1168.4194	0.180061	-424.172998	-424.163263	-424.162319	-424.207296	36.021	
C	-1.1163998876	 1.0400266368	-0.4573127502	-0.253856
O	-0.2329549967	-0.0208113439	-0.1262033055	-0.275303
C	 0.5617240817	-0.4292311467	-1.1736145281	 0.301739
C	 0.0267710113	-1.2640945487	-2.333124646	-0.086572
C	 0.1776165594	-1.0294627267	-3.8213022803	-0.42705
C	 1.1234418619	-1.7996803441	-1.450350062	-0.015681
O	 2.3957412873	-1.2654515914	-1.8360621093	-0.306683
C	 1.9953992663	 0.0706157245	-1.3966160907	 0.09595
C	 2.3610405531	 1.1898412071	-2.3501828675	-0.423855
H	-0.5718583426	 1.9493237053	-0.7471019451	 0.111933
H	-1.789843272	 0.758749594	-1.27811055	 0.113862
H	-1.7074552214	 1.2514508426	 0.4364408741	 0.129336
H	-0.9346487788	-1.6790506376	-2.0300858041	 0.095095
H	 1.2299883467	-0.9200841028	-4.090571291	 0.139848
H	-0.2184819081	-1.8857925047	-4.3777936286	 0.11531
H	-0.3636163229	-0.1381057005	-4.1562129608	 0.112195
H	 1.1078515399	-2.7298629567	-0.8945833532	 0.10976
H	 2.4465925203	 0.2565323212	-0.4117927487	 0.089334
H	 1.8689885501	 1.0907043698	-3.3187467606	 0.126082
H	 2.0769688156	 2.1532343711	-1.9126315453	 0.119252
H	 3.4440683664	 1.2045267014	-2.511762457	 0.129304
78.5147	143.8287	167.6505	170.2352	199.8624	212.4448	243.3557	292.4616	330.8022	395.9573	416.3433	551.5239	578.2017	677.1874	704.3671	799.7592	852.415	903.7548	933.8035	995.6337	998.4107	1056.6711	1071.2936	1085.7901	1099.7023	1120.5566	1137.5222	1155.2882	1179.8835	1221.0241	1231.201	1255.4455	1290.8749	1331.441	1392.154	1406.6015	1409.9238	1448.5223	1482.0568	1488.5403	1492.8923	1495.9984	1502.6615	1508.1283	1509.5839	2996.2159	3008.2457	3033.4919	3040.8099	3051.8027	3089.0646	3101.2843	3114.9318	3123.3429	3130.784	3143.6358	3183.7536
COC12C(C)C1OC2C	CO[C@]12[C@@H](C)[C@H]1O[C@H]2C	
InChI=1S/C7H12O2/c1-4-6-7(4,8-3)5(2)9-6/h4-6H,1-3H3	InChI=1S/C7H12O2/c1-4-6-7(4,8-3)5(2)9-6/h4-6H,1-3H3/t4-,5-,6+,7-/m0/s1
