16
gdb 34781	2.29223	1.5973	1.11583	4.0035	81.09	-0.2748	0.007	0.2818	1093.9853	0.124587	-363.54443	-363.53672	-363.535776	-363.576667	29.951	
C	 0.0217260015	-1.1464517611	-0.0230550659	-0.345001
C	 0.0166498193	 0.0557811262	 0.0021056751	 0.062088
C	 0.009522756	 1.487447017	 0.0317127662	 0.261779
C	-0.6645464653	 2.4254429407	 1.0883520623	-0.267552
C	-0.0192011117	 3.3824528653	 0.0489500992	-0.076417
C	 1.2347227837	 2.4636051768	 0.0782177623	-0.273626
C	-0.6180007393	 2.4496857851	-1.0563810736	-0.174242
C	-0.0442015801	 2.4715594671	-2.390942096	 0.269701
N	 0.3992550797	 2.4945118803	-3.4586700633	-0.332822
H	 0.0289277884	-2.2082761202	-0.049243476	 0.188318
H	-1.7557627288	 2.3982514481	 1.1367871718	 0.107952
H	-0.2130794024	 2.4130687906	 2.0817219487	 0.112329
H	-0.0458407175	 4.470105005	 0.039803511	 0.10067
H	 1.8076252195	 2.4541586261	 1.0072948103	 0.109803
H	 1.8829482919	 2.4717114944	-0.7992705342	 0.135434
H	-1.7089612449	 2.4230142883	-1.1134126478	 0.121587
95.3398	166.763	177.0273	212.0983	427.9538	442.4116	494.5251	519.545	523.9053	594.2424	636.2913	645.1876	657.2535	778.6445	826.2451	877.1032	924.6144	951.0384	956.4553	1019.062	1040.6876	1067.2489	1105.0012	1122.9473	1145.2298	1160.6517	1218.5074	1226.7789	1231.358	1284.1188	1368.0949	1501.4842	1540.8226	2237.6951	2352.1416	3066.5943	3076.1679	3086.1342	3139.1619	3143.2202	3147.1804	3500.6119
C#CC12CC(C1)C2C#N	C#C[C@@]12C[C@@H](C1)[C@H]2C#N	
InChI=1S/C8H7N/c1-2-8-3-6(4-8)7(8)5-9/h1,6-7H,3-4H2	InChI=1S/C8H7N/c1-2-8-3-6(4-8)7(8)5-9/h1,6-7H,3-4H2/t6-,7-,8+/m1/s1
