15
gdb 82021	2.61694	1.4619	1.33277	5.9102	65.34	-0.2609	0.0079	0.2688	999.4693	0.112205	-453.897545	-453.889417	-453.888473	-453.930307	30.631	
O	 0.1413964783	 1.3655919111	 0.2175090272	-0.413553
C	 0.0443242385	-0.0077340346	 0.0720049893	 0.079096
C	-1.348547177	-0.6347812074	 0.014257655	-0.079287
N	-1.9699597541	-0.0522295166	-1.2059696844	-0.387568
C	-1.0955841217	-1.2440046292	-1.3169270571	-0.108203
C	 0.312963296	-0.6237037559	-1.4115134471	 0.241539
O	 0.5120721832	 0.2903042479	-2.446063631	-0.463228
C	 1.3877157936	-1.6104152653	-1.4125484011	 0.258846
N	 2.2162300771	-2.4139203039	-1.3565086719	-0.329666
H	-0.5287756544	 1.7610808325	-0.3539560239	 0.292204
H	 0.6987683977	-0.4764295062	 0.8082535371	 0.123527
H	-1.9625371719	-0.9911626686	 0.8310510028	 0.114472
H	-2.9389073532	-0.3581513842	-1.2576863996	 0.250969
H	-1.4461525141	-2.172243318	-1.7482007664	 0.123851
H	-0.3407686679	 0.7328826386	-2.5625222388	 0.297
74.1992	147.524	174.7118	237.7195	296.2714	325.8107	442.7476	491.6695	506.6038	524.2011	575.6252	645.3837	685.7223	761.5344	837.7712	853.3397	917.8473	930.3296	967.1781	1015.7048	1055.4805	1098.9787	1115.369	1150.2168	1171.8294	1207.237	1269.1214	1302.2165	1320.9321	1366.3211	1410.7745	1440.1645	2361.0846	3115.6729	3202.1759	3215.7655	3510.6163	3743.8927	3782.5597
OC1C2NC2C1(O)C#N	O[C@H]1[C@H]2N[C@H]2[C@]1(O)C#N	
InChI=1S/C5H6N2O2/c6-1-5(9)3-2(7-3)4(5)8/h2-4,7-9H	InChI=1S/C5H6N2O2/c6-1-5(9)3-2(7-3)4(5)8/h2-4,7-9H/t2-,3+,4-,5+/m0/s1
