16
gdb 29854	5.25739	1.27907	1.03583	3.6294	79.96	-0.1802	0.0154	0.1956	1109.6361	0.12762	-396.969304	-396.961868	-396.960923	-397.001103	28.477	
C	 0.0085876978	 1.4351157171	 0.0182319476	-0.330668
N	-0.0496281605	-0.0111984207	-0.0018677405	 0.024464
C	-0.0401830263	-0.7664018493	-1.1653974904	-0.258711
C	 0.0228192948	-2.0763236674	-0.7488336299	 0.298657
N	 0.0398124513	-3.4045276141	-1.1329760926	-0.4293
C	 0.08665059	-4.1386436656	 0.0417027925	-0.001191
N	 0.0921432503	-3.424347195	 1.1340039165	-0.353146
C	 0.0534705054	-2.1133848082	 0.6745679064	 0.252001
C	 0.0110379065	-0.8049652789	 1.1210186394	-0.231573
H	 1.0388327005	 1.8046188237	-0.0507017972	 0.137272
H	-0.5644973554	 1.8393923605	-0.8202083611	 0.13715
H	-0.4338071099	 1.804518776	 0.9461427954	 0.14131
H	-0.075296382	-0.2912053176	-2.1307484731	 0.112461
H	 0.0405681197	-3.7816860881	-2.0635185117	 0.259468
H	 0.1163165429	-5.2194343644	 0.0095768461	 0.122665
H	 0.0178807449	-0.368321728	 2.1055923626	 0.119141
100.7073	141.8216	266.1643	293.5216	302.9849	364.9791	523.1515	568.4054	578.7414	600.8344	635.5785	695.4084	753.9373	768.5754	844.7214	851.7677	950.0533	1007.9837	1075.1931	1091.3475	1145.931	1151.9625	1177.0477	1233.7216	1315.1183	1360.9147	1391.0736	1407.0086	1450.0441	1483.2282	1489.3792	1513.8677	1529.8774	1562.885	1673.8999	3026.3624	3095.7636	3130.1321	3233.6803	3268.77	3272.7685	3689.2337
CN1C=C2NC=NC2=C1	Cn1cc2[nH]cnc2c1	
InChI=1S/C6H7N3/c1-9-2-5-6(3-9)8-4-7-5/h2-4H,1H3,(H,7,8)	InChI=1S/C6H7N3/c1-9-2-5-6(3-9)8-4-7-5/h2-4H,1H3,(H,7,8)
