20
gdb 98657	4.29456	0.83336	0.74114	5.137	77.94	-0.2454	0.0229	0.2684	1557.4957	0.170094	-440.302654	-440.292898	-440.291954	-440.338547	34.464	
C	 0.3595881463	 1.4995166146	 0.0641715304	-0.403774
C	-0.0679884323	 0.0429758915	-0.0239223249	 0.009535
C	 0.7989617976	-0.8859520868	-0.9328747464	-0.184883
N	 1.0925932083	-1.6980202804	 0.2467089611	-0.070913
C	 0.3229755692	-0.8723573303	 1.1797322856	-0.196595
C	 1.8680376744	-2.7883530618	 0.3746383798	 0.354427
O	 2.4593705471	-3.3033611357	-0.5676715298	-0.398262
C	 1.9943444569	-3.3932620559	 1.7763692576	-0.140718
O	 2.8247958543	-4.5143980591	 1.7263657442	-0.422344
H	 1.4254565513	 1.5842663457	 0.3032776669	 0.124443
H	 0.1878386056	 2.0163895728	-0.8857197738	 0.126525
H	-0.2021900141	 2.030730762	 0.8397151299	 0.123793
H	-1.1318746789	-0.0284807116	-0.2603874843	 0.090858
H	 0.2664075741	-1.4289662864	-1.7197301796	 0.124869
H	 1.6866385152	-0.4145510867	-1.3693518039	 0.12235
H	 0.9324959291	-0.3820708166	 1.9492165253	 0.116643
H	-0.5047971407	-1.3984695074	 1.6685320859	 0.119332
H	 2.3943065494	-2.6291746061	 2.4634722493	 0.105298
H	 0.9897795868	-3.6549668129	 2.1475637801	 0.105941
H	 3.0823482503	-4.5756607889	 0.7891893967	 0.293472
35.2028	86.2131	105.0452	118.3826	140.7878	241.8274	310.9771	348.6729	358.2461	433.49	470.8096	547.6733	581.2304	742.3877	797.3524	892.7254	897.2942	909.6268	928.9987	1015.5381	1033.3228	1093.2373	1123.427	1142.5825	1148.5261	1157.13	1205.6823	1216.7247	1245.4903	1277.8398	1298.768	1308.0966	1330.8859	1374.663	1417.6764	1440.0399	1490.7498	1495.918	1497.8746	1508.3662	1517.1845	1526.9212	1749.5515	2967.1123	2982.9895	3017.2093	3030.211	3039.1453	3059.759	3076.8575	3087.569	3102.4601	3106.1438	3630.2475
CC1CN(C1)C(=O)CO	CC1CN(C1)C(=O)CO	
InChI=1S/C6H11NO2/c1-5-2-7(3-5)6(9)4-8/h5,8H,2-4H2,1H3	InChI=1S/C6H11NO2/c1-5-2-7(3-5)6(9)4-8/h5,8H,2-4H2,1H3
