20
gdb 120566	3.1976	0.90159	0.82715	1.5931	83.26	-0.2354	0.0399	0.2753	1468.7652	0.16791	-403.076465	-403.066272	-403.065328	-403.112025	37.503	
C	 0.0383555765	 1.5266354266	-0.2402068132	-0.461441
C	 0.0749027287	 0.0202590261	-0.0281110264	 0.102192
C	 1.3944731049	-0.6939307497	-0.0428112103	-0.280328
N	 0.6512983755	-0.5643470271	 1.2019353095	-0.126381
C	 1.1835537564	 0.3128254854	 2.2453242049	-0.138314
C	 1.7458096671	-0.5555497672	 3.3711331488	-0.063503
O	 2.7571959772	-1.4347433667	 2.9123108646	-0.421357
C	-1.099108066	-0.6675656334	-0.5168344383	 0.293266
C	-2.0832526533	-1.2050614794	-0.9502603869	-0.421721
H	 0.9678814413	 2.0039721357	 0.075629847	 0.122343
H	-0.1141255379	 1.7455239877	-1.3007485269	 0.13642
H	-0.791894802	 1.975095666	 0.3143316234	 0.133113
H	 1.4659967991	-1.6945587815	-0.4602767755	 0.120781
H	 2.2811964879	-0.0747202853	-0.1750478234	 0.117325
H	 1.9744098499	 0.9828541401	 1.8751887643	 0.094685
H	 0.3699356602	 0.9325316392	 2.6409880436	 0.104657
H	 2.2069864895	 0.0819164327	 4.1330713784	 0.104697
H	 0.9215231608	-1.1090399188	 3.8446556733	 0.096551
H	 2.3268238675	-2.0483786188	 2.3072582477	 0.293497
H	-2.9493821633	-1.6934773815	-1.3227559948	 0.193519
39.6541	93.3942	124.1268	171.0177	181.624	221.941	271.6863	310.5317	395.5302	405.7616	448.6079	482.2036	541.4929	586.1094	613.8188	647.606	683.3193	763.1922	864.2756	902.4934	927.1711	933.3552	996.7008	1060.4847	1081.4592	1093.5684	1126.1771	1134.3193	1170.8866	1224.8151	1259.1223	1284.1877	1357.2257	1382.4921	1397.7075	1413.2441	1422.9576	1475.4064	1484.6826	1495.2638	1498.4612	1506.0048	2238.1709	2980.954	2998.0507	3045.922	3061.3569	3076.9338	3087.4076	3111.3295	3133.4956	3180.5124	3503.0875	3812.5951
CC1(CN1CCO)C#C	C[C@]1(CN1CCO)C#C	
InChI=1S/C7H11NO/c1-3-7(2)6-8(7)4-5-9/h1,9H,4-6H2,2H3	InChI=1S/C7H11NO/c1-3-7(2)6-8(7)4-5-9/h1,9H,4-6H2,2H3/t7-,8?/m1/s1
