19
gdb 89197	2.62067	1.42221	1.14637	4.1311	75.79	-0.2357	-0.0193	0.2164	1133.6634	0.157407	-423.017766	-423.008895	-423.007951	-423.051424	33.754	
C	-0.9071703574	 1.1578518105	-0.0124879556	-0.413229
C	-0.0149009436	-0.0742831505	 0.0333185012	 0.049832
C	 1.2199581025	-0.1422201983	-0.9152963401	-0.336172
C	 2.1221043415	-0.647183239	 0.2606801356	 0.30874
O	 2.8163829633	-1.8350377925	 0.1086930756	-0.470653
C	 0.9049034869	-0.3313077021	 1.2567878777	-0.126995
C	 1.6919922014	 0.8940200161	 1.8001262136	-0.364883
C	 2.9006114526	 0.4947069927	 0.9273539356	 0.371819
O	 4.039806384	 0.8537479001	 0.8771836476	-0.297939
H	-0.3333013948	 2.0842421691	 0.0928930319	 0.11851
H	-1.4415074924	 1.2146318655	-0.9672287365	 0.118878
H	-1.6556902082	 1.134691735	 0.7870512538	 0.119329
H	-0.6351892534	-0.9636343996	-0.124531004	 0.075596
H	 1.1433997289	-0.8710379136	-1.7287395969	 0.104083
H	 1.5313866605	 0.8100452561	-1.3542551445	 0.11831
H	 2.3282795193	-2.4128923983	-0.4869700198	 0.283899
H	 0.5668534489	-1.0384439836	 2.0136401389	 0.076554
H	 1.2813775905	 1.8894778878	 1.6135713857	 0.125784
H	 1.9349643995	 0.8238020446	 2.8647654504	 0.138536
45.6907	141.929	212.7804	232.8243	251.6142	277.0195	293.1329	380.3003	432.8078	494.9659	517.406	577.0403	675.512	732.1217	764.2769	850.0976	878.8658	904.1928	940.5897	966.5068	1004.8108	1012.6532	1061.6039	1090.4254	1095.7839	1124.4927	1145.8214	1186.5348	1209.8662	1236.6993	1268.345	1283.6033	1322.0869	1369.7371	1393.5722	1413.4468	1438.2774	1479.2847	1493.6676	1501.357	1889.9159	3029.4885	3033.9597	3045.4596	3062.937	3094.2783	3096.0794	3101.2289	3110.1848	3119.6327	3808.8073
CC1CC2(O)C1CC2=O	C[C@H]1C[C@]2(O)[C@H]1CC2=O	
InChI=1S/C7H10O2/c1-4-3-7(9)5(4)2-6(7)8/h4-5,9H,2-3H2,1H3	InChI=1S/C7H10O2/c1-4-3-7(9)5(4)2-6(7)8/h4-5,9H,2-3H2,1H3/t4-,5-,7-/m0/s1
