19
gdb 11404	3.79686	1.45807	1.14138	1.4525	72.56	-0.2383	0.0331	0.2714	1099.7766	0.165451	-365.10112	-365.092543	-365.091598	-365.13478	30.768	
C	-0.1410199043	 1.5266488665	-0.0807487712	-0.384694
C	-0.1013344232	-0.001819236	-0.141008498	-0.184101
C	 0.8364489114	-0.5473729537	-1.2120208071	 0.105136
C	 0.8328380425	-2.0940878455	-1.3561880029	-0.207085
N	 0.3372027537	-2.3569889764	-2.7131670009	-0.306537
C	 0.1366246696	-1.2225949974	-3.2489407988	 0.405163
C	-0.3683689715	-0.9723347863	-4.6290504358	-0.471185
O	 0.399567654	-0.0984628384	-2.5238089299	-0.264984
H	 0.8482130908	 1.9389013014	 0.1474990416	 0.114079
H	-0.463253156	 1.9425811044	-1.0390829452	 0.133311
H	-0.8332740756	 1.872475968	 0.6925686108	 0.113468
H	 0.2234458338	-0.4110762925	 0.8246206905	 0.101196
H	-1.1064161619	-0.4019218902	-0.32645987	 0.105194
H	 1.8462758628	-0.147367483	-1.064474118	 0.084253
H	 1.8296953012	-2.5303502224	-1.2306184784	 0.111566
H	 0.1767006039	-2.5692679846	-0.6168786551	 0.108651
H	-0.5425729191	-1.9218154428	-5.1338529521	 0.150933
H	-1.2991354377	-0.3974105665	-4.5940114578	 0.142303
H	 0.3570833654	-0.3807851246	-5.1963499818	 0.143333
47.9693	107.9965	138.3142	187.2002	232.0988	249.4294	334.0682	394.5204	459.3062	609.0632	654.4331	733.2126	795.6927	836.1688	931.7145	953.957	973.1471	980.9639	1009.8935	1066.0578	1075.1767	1082.2228	1121.7525	1151.1031	1224.2105	1252.52	1295.5125	1317.957	1330.8423	1371.4245	1402.3396	1410.381	1420.6401	1474.8743	1475.8087	1476.8746	1497.3389	1502.5587	1508.4442	1743.8087	3019.1703	3029.6712	3033.5465	3037.2379	3050.3886	3058.8726	3067.0114	3103.2078	3107.1841	3121.33	3166.0165
CCC1CN=C(C)O1	CC[C@H]1CN=C(C)O1	
InChI=1S/C6H11NO/c1-3-6-4-7-5(2)8-6/h6H,3-4H2,1-2H3	InChI=1S/C6H11NO/c1-3-6-4-7-5(2)8-6/h6H,3-4H2,1-2H3/t6-/m0/s1
