21
gdb 89217	2.93417	1.55428	1.23664	1.3917	81.24	-0.2453	0.0766	0.3218	1082.7534	0.183999	-387.074338	-387.066344	-387.0654	-387.106236	32.729	
C	-0.0458395561	 1.4573861064	 0.0360052594	-0.493106
C	 0.011631857	-0.050521691	-0.0162707968	 0.369935
C	 1.0532039976	-0.7230742422	-0.912242876	-0.34252
C	 0.3804219367	-2.0547064039	-1.3514972185	 0.144704
O	 1.2453572656	-3.1777872333	-1.3906293563	-0.440299
C	-0.7082202756	-2.2728232566	-0.2988008109	-0.059343
C	-0.0974689677	-2.2910706615	 1.1396683457	-0.242802
C	-0.4090968395	-0.7974558088	 1.2437717257	-0.099087
C	-1.267421003	-0.8545960826	-0.0135283513	-0.129288
H	 0.8776171497	 1.8780093306	 0.4512819926	 0.116601
H	-0.182927589	 1.8842513729	-0.9645541981	 0.11258
H	-0.8759994846	 1.8021481168	 0.6615520782	 0.114872
H	 1.2989963582	-0.0886295994	-1.7712079871	 0.08688
H	 1.9896000935	-0.935627557	-0.3833873825	 0.099342
H	-0.1015739474	-1.910148967	-2.3322784425	 0.059278
H	 1.9346947755	-3.0034143214	-2.0383588927	 0.282375
H	-1.4015465477	-3.0775332304	-0.5405513461	 0.068912
H	-0.7186241023	-2.8728589472	 1.8251949127	 0.097494
H	 0.9413508962	-2.6217143191	 1.2323706671	 0.101578
H	-0.5978301186	-0.248909421	 2.1606054942	 0.074291
H	-2.2576744085	-0.4652985545	-0.2123439669	 0.077601
129.0438	225.86	239.6773	265.376	288.3642	304.5795	405.659	436.9534	498.3076	566.097	597.6369	701.5519	761.4434	830.7598	848.5394	858.8166	910.3736	919.2189	954.3411	972.014	990.3107	1006.4864	1026.9308	1064.7811	1073.287	1095.7454	1111.7095	1132.8849	1168.895	1193.3397	1214.6929	1232.8543	1251.5555	1258.7756	1275.3463	1316.6417	1323.6282	1365.8923	1403.8141	1418.5415	1427.4264	1489.5051	1492.7845	1500.6514	1510.8847	2960.5673	3019.3625	3030.0841	3053.101	3069.6362	3078.0285	3093.2528	3102.1683	3119.8633	3160.5088	3192.7643	3824.7216
CC12CC(O)C3CC1C23	C[C@@]12C[C@@H](O)[C@H]3C[C@@H]1[C@@H]23	
InChI=1S/C8H12O/c1-8-3-6(9)4-2-5(8)7(4)8/h4-7,9H,2-3H2,1H3	InChI=1S/C8H12O/c1-8-3-6(9)4-2-5(8)7(4)8/h4-7,9H,2-3H2,1H3/t4-,5-,6-,7+,8-/m1/s1
