16
gdb 69572	2.95725	1.47863	1.17683	4.2345	71.02	-0.2332	-0.0316	0.2017	1065.9736	0.122578	-437.828578	-437.820373	-437.819429	-437.86135	30.445	
C	-0.1310099591	 1.5404922794	 0.0747625853	-0.513244
C	 0.1394234454	 0.0776035746	-0.0165824629	 0.289918
O	-0.7266889936	-0.8558781481	 0.6762788279	-0.273979
C	 0.677477989	-0.9244080698	 0.9444185035	-0.194245
C	 1.2739891179	-1.7742524671	-0.1630434184	 0.251261
C	 2.5964698189	-2.4480757572	-0.206637594	-0.306499
N	 1.3498375184	-3.2187553038	-0.3116461482	-0.350237
C	 0.7237729154	-0.7546787938	-1.1741965724	 0.33925
O	 0.8455467278	-0.587257254	-2.3500153276	-0.301497
H	 0.7455022985	 2.1124996992	-0.244054244	 0.139539
H	-0.9658503707	 1.8140256588	-0.5781626154	 0.150587
H	-0.3875517041	 1.8216620999	 1.0993310769	 0.139342
H	 1.0178580599	-0.7655203295	 1.961049546	 0.121739
H	 3.1827843664	-2.4009688471	-1.1197122015	 0.143356
H	 3.172900852	-2.4879493788	 0.7148522062	 0.121943
H	 1.1262643282	-3.6758665126	 0.5698279985	 0.242767
95.0342	157.3382	179.6658	217.8693	224.8111	277.8378	329.0578	459.0828	537.628	555.82	677.0118	751.0338	772.0001	801.0899	880.9536	894.0487	914.0439	953.7672	968.8538	993.5683	1027.655	1053.1803	1092.5455	1131.2602	1202.7578	1219.7513	1260.7429	1266.9423	1398.1375	1417.3024	1447.2706	1478.211	1488.913	1508.0612	1900.8738	3043.7418	3106.1592	3110.933	3126.5996	3191.1976	3197.9167	3494.7895
CC12OC1C1(CN1)C2=O	C[C@]12O[C@H]1[C@]1(CN1)C2=O	
InChI=1S/C6H7NO2/c1-5-3(8)6(2-7-6)4(5)9-5/h4,7H,2H2,1H3	InChI=1S/C6H7NO2/c1-5-3(8)6(2-7-6)4(5)9-5/h4,7H,2H2,1H3/t4-,5-,6+/m1/s1
