12
gdb 129031	3.41933	1.44694	1.10905	3.5421	69.12	-0.2831	-0.118	0.1651	1008.71	0.075767	-468.755685	-468.748178	-468.747234	-468.788275	27.062	
N	 0.0472475747	 1.3287184291	 0.4368360028	-0.446503
C	-0.009677454	 0.1080374328	 0.1088937088	 0.341055
C	-1.2682341766	-0.5801680999	-0.192701603	-0.076465
C	-1.4131598559	-1.5651182837	-1.0845750831	-0.171802
C	-0.403614655	-2.0057904475	-2.0745329078	 0.403581
O	-0.7015070876	-2.6900320626	-3.016546251	-0.294313
O	 0.8759022119	-1.5223236935	-1.983571671	-0.278295
N	 1.6185485961	-1.4514934246	-0.6473682848	 0.034445
N	 1.1829558067	-0.7134466627	 0.1949465697	-0.07012
H	 1.0003696564	 1.6011578488	 0.6901921009	 0.254751
H	-2.1212318216	-0.2246138601	 0.3764183932	 0.154562
H	-2.3815026149	-2.0300465961	-1.2318897048	 0.149105
61.2313	104.4321	252.2779	296.2653	312.3535	354.7575	410.2571	526.7555	601.7213	615.4736	724.8631	731.2671	777.3527	825.6172	854.9098	881.5491	951.4589	1022.635	1035.8644	1152.9129	1237.631	1326.714	1392.3045	1674.7453	1711.7743	1755.9965	1806.9896	3187.9745	3210.2392	3459.6529
N=C1C=CC(=O)ON=N1	[NH][C]1C=CC(=O)ON=N1	
InChI=1S/C4H3N3O2/c5-3-1-2-4(8)9-7-6-3/h1-2,5H	InChI=1S/C4H3N3O2/c5-3-1-2-4(8)9-7-6-3/h1-2,5H
