16
gdb 27120	3.02725	1.3387	0.93279	2.6149	76.98	-0.186	0.006	0.192	1189.1225	0.126896	-434.124818	-434.116633	-434.115689	-434.157658	30.747	
N	-0.1642898757	 1.4522810957	 0.0068294743	-0.628309
C	 0.0169005601	 0.0351309789	-0.0144861228	 0.07726
C	-1.0538341963	-0.8349433597	 0.0041230905	 0.434438
N	-2.4052086247	-0.5030852133	 0.0441785181	-0.390711
C	-3.4389585056	-1.3807007366	 0.0603107909	 0.141618
O	-3.3232682607	-2.5959002068	 0.0425798125	-0.347864
N	-0.5911128425	-2.116803497	-0.0231359616	-0.302056
C	 0.784543251	-2.0919060129	-0.0593235445	-0.091899
C	 1.1907419087	-0.7778445485	-0.0553191169	-0.221833
H	 0.2925437327	 1.8696362723	 0.8127311076	 0.238796
H	 0.2486480529	 1.8884655021	-0.8126760328	 0.238798
H	-2.5799081477	 0.4925467925	 0.0606690948	 0.267909
H	-4.4178054561	-0.8704209762	 0.0925537528	 0.089808
H	-1.2175129545	-2.9074713389	-0.0168650281	 0.28554
H	 1.3497697773	-3.0087512376	-0.0847724026	 0.119756
H	 2.2122642312	-0.4293620041	-0.0785246623	 0.088748
86.0101	171.0234	174.1304	231.6334	257.2895	274.9902	393.6119	452.4508	578.1413	618.819	649.0279	667.6379	684.2538	705.5147	716.7496	815.3983	860.4268	892.4938	926.0279	1002.4269	1075.5183	1080.8601	1149.223	1184.2254	1214.5786	1267.2128	1347.9925	1405.5574	1424.3229	1466.1472	1535.3183	1542.773	1639.3056	1684.8667	1766.7473	2978.6929	3243.9444	3276.0198	3482.8705	3543.4995	3601.9096	3631.0461
NC1=C(NC=O)NC=C1	Nc1c(NC=O)[nH]cc1	
InChI=1S/C5H7N3O/c6-4-1-2-7-5(4)8-3-9/h1-3,7H,6H2,(H,8,9)	InChI=1S/C5H7N3O/c6-4-1-2-7-5(4)8-3-9/h1-3,7H,6H2,(H,8,9)
