15
gdb 123520	4.01625	1.7254	1.20691	2.0841	82.91	-0.2064	-0.0297	0.1767	956.0113	0.117843	-379.740998	-379.73509	-379.734146	-379.771078	24.448	
C	 0.0559870427	 1.3777834894	 0.0092586643	 0.024968
N	 1.3198720027	 1.8222146251	-0.0002558864	-0.296506
N	 2.0599164739	 0.6955491539	-0.0133156355	-0.058091
C	 3.4235332647	 0.6711321618	-0.0262690644	 0.04384
C	 4.0687033172	-0.5295344888	-0.0388579628	-0.180754
C	 3.3219659534	-1.7398216353	-0.0384188253	-0.082819
C	 1.9527204077	-1.7085604896	-0.0253772485	-0.244928
C	 1.280488966	-0.4646006288	-0.0122915171	 0.460335
C	-0.0400219648	-0.0173308991	 0.0025359972	-0.363485
H	-0.7487756331	 2.0989914713	 0.0207532432	 0.117515
H	 3.9006919326	 1.6414416284	-0.0254867766	 0.144308
H	 5.1509226725	-0.546961131	-0.049126087	 0.110709
H	 3.8462071071	-2.6885239456	-0.0485094748	 0.107603
H	 1.3643434138	-2.6184848433	-0.0247924552	 0.110486
H	-0.9295367265	-0.6251690084	 0.0075953788	 0.106817
217.1631	239.5706	421.8377	431.8694	570.9704	581.1345	630.3971	652.2047	743.4836	762.3715	780.2328	785.8484	858.6342	897.5473	915.3361	930.4709	940.2533	971.821	1031.1043	1074.2231	1142.5439	1163.598	1206.0925	1259.4983	1276.2407	1323.5768	1363.6655	1406.1587	1471.6338	1497.8309	1556.8402	1571.3124	1679.1923	3190.5293	3207.0228	3216.8922	3241.6798	3241.7633	3274.5223
C1=NN2C=CC=CC2=C1	c1nn2ccccc2c1	
InChI=1S/C7H6N2/c1-2-6-9-7(3-1)4-5-8-9/h1-6H	InChI=1S/C7H6N2/c1-2-6-9-7(3-1)4-5-8-9/h1-6H
