18
gdb 52261	5.38243	0.70321	0.66487	1.2154	73.42	-0.2528	-0.0251	0.2278	1635.7221	0.147414	-439.109713	-439.100895	-439.099951	-439.145078	30.638	
O	-0.2737666213	 0.1019578143	-0.0448525031	-0.234768
C	-0.0233194214	 1.2771025363	 0.0241843756	 0.157007
C	 1.3522140793	 1.8830325144	-0.1307052591	-0.277111
C	 1.3888556788	 2.9407254189	-1.2462619551	-0.215741
C	 2.7207737546	 3.6793815702	-1.3303466015	 0.09108
C	 2.7530161039	 4.8326701608	-2.3709979179	-0.202596
N	 2.9077090727	 6.0656011419	-1.5792435385	-0.257414
C	 3.0179587435	 5.6874291535	-0.376720814	 0.120891
O	 2.9731503226	 4.3672001367	-0.0702834374	-0.231946
H	-0.8315112609	 2.0239759908	 0.2116002117	 0.071907
H	 1.6134170527	 2.3723254302	 0.8171689902	 0.138862
H	 2.071123019	 1.0788080391	-0.3131606046	 0.121629
H	 1.2005243429	 2.4677025656	-2.2180409658	 0.120151
H	 0.5907659046	 3.678874492	-1.0928764843	 0.115301
H	 3.5409258865	 2.9677881402	-1.4677817014	 0.098306
H	 3.5862295316	 4.7401143337	-3.0749058142	 0.122625
H	 1.830821048	 4.8800754586	-2.960922465	 0.117926
H	 3.1551056229	 6.3394332326	 0.4789125545	 0.143892
49.4903	56.5463	86.3781	131.2614	156.4944	296.988	354.5626	438.4387	521.941	539.2767	727.5303	774.9653	814.4964	873.2123	894.8197	942.5931	962.6757	978.8147	1009.6689	1024.0488	1069.7381	1098.1205	1123.1297	1138.6713	1192.585	1230.5684	1264.511	1303.5004	1316.5154	1323.3489	1342.1907	1370.952	1402.2244	1431.5164	1463.9441	1483.1673	1503.1859	1712.4925	1837.6182	2848.5534	3021.4862	3031.4444	3041.8277	3052.915	3068.8714	3080.5427	3102.4269	3216.9434
O=CCCC1CN=CO1	O=CCC[C@H]1CN=CO1	
InChI=1S/C6H9NO2/c8-3-1-2-6-4-7-5-9-6/h3,5-6H,1-2,4H2	InChI=1S/C6H9NO2/c8-3-1-2-6-4-7-5-9-6/h3,5-6H,1-2,4H2/t6-/m0/s1
