17
gdb 29364	3.23624	1.22337	0.89763	4.8339	81.32	-0.2364	-0.0509	0.1855	1264.7039	0.134628	-421.882161	-421.873167	-421.872222	-421.916133	31.917	
C	 0.0044786094	 1.5224398457	-0.0108463459	-0.503176
C	 0.0059558268	 0.0259596541	 0.0116016493	 0.182991
C	-0.0197224116	-0.8222609458	-1.0579690921	-0.096957
O	-0.0097427044	-2.1122947413	-0.6748145911	-0.162915
C	 0.0238205014	-2.1163338755	 0.6925691573	 0.182647
C	 0.0410230481	-3.3981972702	 1.3718961934	 0.070433
O	 0.0290004564	-4.4827191764	 0.8306278708	-0.286464
C	 0.0346629392	-0.8229726498	 1.1672731665	 0.08621
C	 0.0697194693	-0.3566864058	 2.5886901345	-0.510388
H	 0.8977197541	 1.9334029846	 0.4735796601	 0.134693
H	-0.0214809306	 1.9014342618	-1.0358705068	 0.131871
H	-0.8639112306	 1.9322640814	 0.517744646	 0.134688
H	-0.0459881269	-0.6469202242	-2.1224584828	 0.146316
H	 0.0679425342	-3.3043291216	 2.4790935932	 0.071183
H	 0.9598223698	 0.2543028554	 2.7788338561	 0.140064
H	-0.8000156337	 0.2703285725	 2.8166932681	 0.139831
H	 0.0775200392	-1.1873282749	 3.2966468434	 0.138973
97.2435	103.7138	128.7193	182.3237	203.6303	234.8226	304.1757	325.4715	359.6595	507.7013	624.383	633.1108	677.4768	719.756	802.2242	804.9634	930.9327	1012.0496	1012.159	1048.1588	1074.1398	1093.128	1167.456	1199.1885	1275.7791	1330.7435	1399.5653	1418.821	1426.0704	1437.1114	1477.3468	1481.1238	1485.4461	1501.1086	1571.6953	1645.5075	1780.377	2891.9751	3028.7038	3031.3548	3078.194	3079.253	3115.0442	3131.3891	3261.7672
CC1=COC(C=O)=C1C	Cc1coc(C=O)c1C	
InChI=1S/C7H8O2/c1-5-4-9-7(3-8)6(5)2/h3-4H,1-2H3	InChI=1S/C7H8O2/c1-5-4-9-7(3-8)6(5)2/h3-4H,1-2H3
