19
gdb 110518	2.7126	1.57225	1.29974	2.6311	74.12	-0.2331	0.0589	0.292	1035.2917	0.159281	-422.965816	-422.957682	-422.956737	-422.998346	32.283	
O	-0.1395802475	 1.3681105985	 0.3886547697	-0.42915
C	 0.0386586524	 0.0192331121	-0.0586670812	-0.131418
C	-1.3375099634	-0.6123707155	 0.0189195849	-0.023272
C	-1.5925023744	-2.1177259062	 0.0250697925	-0.109854
C	-1.506452092	-2.6125554823	 1.4805397639	-0.063374
C	-1.1749802201	-1.4118825403	 2.3634636756	-0.299301
C	-2.0767275261	-0.5977372523	 1.3884006033	 0.398236
O	-2.7423707753	 0.5414679457	 1.7993211993	-0.493427
C	-2.7669602496	-1.9658892672	 0.9661255221	-0.142901
H	 0.7174499639	 1.8023812612	 0.4214174257	 0.291975
H	 0.4266721191	-0.0064739324	-1.0885344811	 0.088903
H	 0.7564244755	-0.5145852605	 0.57897207	 0.095344
H	-1.9966529395	-0.1337454365	-0.7143000118	 0.082104
H	-1.5053112245	-2.8062737094	-0.8057240736	 0.083498
H	-1.3512791806	-3.6613449183	 1.6972960535	 0.084485
H	-1.667799563	-1.4925654528	 3.3360537575	 0.103779
H	-0.1318846477	-1.1057912302	 2.5029405622	 0.081267
H	-2.1615858655	 1.2825101697	 1.5817831912	 0.289668
H	-3.7923398917	-2.2980350033	 0.9053490462	 0.093437
75.8383	137.5815	236.9106	279.5562	310.4431	356.7946	386.306	403.3937	506.4436	561.3615	637.2987	704.2292	760.1445	790.8854	804.2667	857.7214	921.5675	941.168	951.4077	986.3799	1003.045	1025.802	1034.0864	1043.1016	1089.0125	1099.5185	1129.3427	1147.1365	1165.3308	1193.3347	1228.2998	1234.3781	1253.0378	1292.8563	1305.9559	1357.1958	1388.7351	1409.8306	1451.3879	1500.4335	1529.8505	2983.8824	3020.8306	3035.757	3052.9125	3101.2154	3190.8037	3200.6799	3233.6402	3771.3495	3833.8458
OCC1C2C3CC1(O)C23	OC[C@H]1[C@H]2[C@H]3C[C@]1(O)[C@@H]23	
InChI=1S/C7H10O2/c8-2-4-5-3-1-7(4,9)6(3)5/h3-6,8-9H,1-2H2	InChI=1S/C7H10O2/c8-2-4-5-3-1-7(4,9)6(3)5/h3-6,8-9H,1-2H2/t3-,4+,5-,6-,7-/m1/s1
