18
gdb 33790	3.42666	1.40975	1.20538	5.1548	75.76	-0.2628	0.0231	0.2859	1054.1383	0.150017	-401.948306	-401.940971	-401.940027	-401.979858	29.342	
N	-0.0298804949	-1.1401968441	-0.0862830201	-0.339659
C	-0.0430954104	 0.014526099	-0.0553656056	 0.236027
C	-0.00744971	 1.4713346469	 0.0379315366	 0.299089
C	-0.1854065602	 2.1407326401	 1.4379592851	-0.281329
C	 0.6968259308	 3.2851124613	 0.854474459	-0.043932
C	 1.3637913281	 2.2054250888	-0.0460691711	-0.249897
C	-0.1652464327	 4.1936124388	-0.0376738375	-0.227509
C	-1.2837237881	 3.3521890231	-0.6868323958	-0.078745
O	-0.8938573455	 1.9978882315	-0.9396714152	-0.312487
H	-1.2015518701	 2.3522908884	 1.7756892097	 0.116841
H	 0.340992896	 1.5672048846	 2.2025925629	 0.125848
H	 1.3328685092	 3.8489696238	 1.5378765381	 0.078389
H	 2.1545949015	 1.6573139548	 0.470201526	 0.118501
H	 1.6844581624	 2.4865722351	-1.051421617	 0.112627
H	-0.6250146343	 4.9993351446	 0.5451212662	 0.10671
H	 0.4695064902	 4.6637091805	-0.7969087238	 0.111511
H	-2.1691304125	 3.3525448566	-0.0376509793	 0.107844
H	-1.5902724196	 3.7569446961	-1.6542591781	 0.120171
142.8797	155.5719	227.9883	313.011	411.5863	432.1909	433.0982	552.0254	561.4773	565.7307	627.8245	806.9417	828.6687	855.6396	871.1375	896.7743	936.0499	952.091	999.8032	1018.1029	1058.1066	1081.2012	1113.3522	1119.3199	1178.4469	1190.3207	1229.6654	1242.0029	1257.3653	1282.1307	1297.7803	1333.1068	1364.6777	1408.6677	1470.701	1491.3774	1499.0996	1526.2815	2363.4462	3012.5843	3037.4953	3069.4089	3077.9861	3080.7087	3100.0382	3101.7346	3135.2454	3139.145
N#CC12CC(C1)CCO2	N#C[C@@]12C[C@@H](C1)CCO2	
InChI=1S/C7H9NO/c8-5-7-3-6(4-7)1-2-9-7/h6H,1-4H2	InChI=1S/C7H9NO/c8-5-7-3-6(4-7)1-2-9-7/h6H,1-4H2/t6-,7+
