23
gdb 122179	3.11662	0.75357	0.68092	1.7452	83.68	-0.2536	0.0723	0.326	1772.0511	0.20263	-425.401374	-425.390328	-425.389384	-425.438087	39.65	
C	 0.0387458771	 1.3941278805	-0.2294453164	-0.22909
O	 0.0159890736	 0.0239871214	 0.0863048215	-0.228425
C	-1.2549250957	-0.5600314971	-0.0928976926	-0.058617
C	-1.1714605376	-2.0310909043	 0.3023469617	-0.260108
C	-2.4885431547	-2.7612309785	 0.1311299834	 0.397843
O	-3.5172853249	-2.2894803881	 0.9742467182	-0.474831
C	-2.9142246068	-3.2913780516	-1.2220001345	-0.356597
C	-2.5573546485	-4.2451988173	-0.0945748958	-0.03339
C	-1.3469583996	-5.1483533951	-0.1704637731	-0.414564
H	 1.0561146282	 1.7542265376	-0.0576574624	 0.12682
H	-0.2294559277	 1.5771530834	-1.2826432138	 0.101265
H	-0.6539443405	 1.971950307	 0.4036154232	 0.102112
H	-2.0024570085	-0.036508752	 0.528787836	 0.076352
H	-1.5795055116	-0.4627522754	-1.1441809069	 0.083648
H	-0.3911750032	-2.5021639202	-0.3023242266	 0.105283
H	-0.8550221821	-2.0953741105	 1.3497052199	 0.113151
H	-3.8483377583	-1.4621098134	 0.6091894072	 0.2808
H	-3.9593287854	-3.1929895516	-1.4946804892	 0.10795
H	-2.2164275684	-3.2033402751	-2.049757871	 0.106782
H	-3.4189431227	-4.6893772576	 0.3963411449	 0.097015
H	-0.5228998721	-4.6874172957	-0.7226638319	 0.117081
H	-0.9763141894	-5.4067409218	 0.8276554243	 0.121459
H	-1.5985411312	-6.0826726342	-0.6840447361	 0.118061
54.9984	75.4466	101.1309	126.4016	176.8723	214.7462	217.3668	232.6942	284.8099	307.1276	384.3178	416.0455	448.4706	454.8438	539.9949	733.3943	801.3567	811.6843	886.3806	921.3575	928.7797	997.9973	1013.1212	1022.9207	1050.0371	1074.7761	1122.8529	1137.7029	1164.3156	1179.3799	1187.2338	1220.4857	1226.0349	1265.3942	1286.8481	1313.0182	1324.6551	1360.1978	1407.1414	1421.2291	1431.3132	1477.1028	1479.9249	1484.5657	1488.3343	1494.4129	1504.2772	1507.3364	1536.2975	2938.4444	2965.4339	2966.7639	3007.2622	3030.9388	3046.1583	3090.5766	3096.3091	3105.5025	3112.5251	3122.6153	3150.1217	3213.0315	3801.3811
COCCC1(O)CC1C	COCC[C@@]1(O)C[C@H]1C	
InChI=1S/C7H14O2/c1-6-5-7(6,8)3-4-9-2/h6,8H,3-5H2,1-2H3	InChI=1S/C7H14O2/c1-6-5-7(6,8)3-4-9-2/h6,8H,3-5H2,1-2H3/t6-,7-/m1/s1
