23
gdb 114896	3.40958	1.11982	0.97479	0.9663	85.62	-0.2411	0.0758	0.3168	1325.3433	0.207587	-388.286919	-388.278178	-388.277234	-388.320697	33.649	
C	-0.7126627323	 1.7976102598	 0.0571726147	-0.236373
O	-0.4765034757	 0.5492516347	 0.6655014997	-0.238378
C	-1.2620295435	-0.4861182876	 0.1326693522	 0.150211
C	-0.9059701093	-1.0489203922	-1.2752981113	-0.283569
C	-1.0012586959	-2.4921863603	-0.6895110064	 0.013788
C	 0.2312375501	-3.4197845974	-0.7991572463	-0.226477
C	 0.7819135641	-3.5131871173	 0.642359218	-0.190655
C	 0.4140542038	-2.1622607623	 1.2839728749	-0.216799
C	-1.003520937	-1.8785511843	 0.7515267673	-0.058113
H	-0.0706783496	 2.5300366225	 0.5529038603	 0.124597
H	-0.4718540536	 1.7866678056	-1.0166935142	 0.106742
H	-1.7628002611	 2.1121227471	 0.169081743	 0.101524
H	-2.3278933471	-0.2134538799	 0.1897349378	 0.059117
H	-1.5778421561	-0.7967638697	-2.0992570134	 0.093543
H	 0.1175738437	-0.7886383708	-1.562622114	 0.101274
H	-1.9309349597	-2.9920903124	-0.9684600783	 0.063067
H	-0.0168742666	-4.4033451533	-1.2089422154	 0.092496
H	 0.9812119858	-2.9793149489	-1.4661413734	 0.094923
H	 0.2747432455	-4.3251372227	 1.178611495	 0.093804
H	 1.8546236479	-3.7270745072	 0.6776728418	 0.09084
H	 0.4584103699	-2.1805031488	 2.3762106966	 0.094261
H	 1.1031798742	-1.3798137945	 0.9505887426	 0.110387
H	-1.7699308876	-2.23292726	 1.4455179889	 0.05979
65.6324	101.4065	143.3457	190.9878	210.687	315.2174	374.7773	430.4352	472.4247	562.1291	644.9855	676.2137	793.7026	817.7982	840.5442	864.3689	898.0748	913.4519	956.1328	973.1912	1011.5782	1018.9107	1039.0453	1073.8904	1099.2049	1124.2236	1169.3996	1174.1259	1185.5127	1189.4965	1202.5803	1234.0228	1248.2647	1254.6899	1274.7443	1300.4601	1305.0678	1324.5695	1330.4139	1341.8455	1359.7348	1393.3981	1476.3047	1483.4416	1486.7559	1491.4625	1496.9057	1510.196	1511.5506	2965.8498	2974.1666	3018.4426	3027.3082	3035.9076	3051.0314	3056.4121	3063.3039	3071.7065	3083.9211	3089.4376	3102.5665	3111.1531	3111.5878
COC1CC2CCCC12	CO[C@H]1C[C@H]2CCC[C@@H]12	
InChI=1S/C8H14O/c1-9-8-5-6-3-2-4-7(6)8/h6-8H,2-5H2,1H3	InChI=1S/C8H14O/c1-9-8-5-6-3-2-4-7(6)8/h6-8H,2-5H2,1H3/t6-,7-,8+/m1/s1
