18
gdb 99887	2.33193	1.29594	1.04774	1.8931	71.68	-0.285	0.0204	0.3054	1196.7502	0.145892	-439.069142	-439.059584	-439.05864	-439.103582	34.622	
C	-0.2180014971	 1.5687102268	-0.0417882879	-0.443802
C	-0.1012404531	 0.0325982211	-0.0283299582	 0.04196
C	 0.8172989891	-0.4174698369	 1.1522533431	-0.082027
O	 0.3360344017	-0.0117699784	 2.4108302248	-0.416987
C	-1.4225126421	-0.5743701516	 0.1926340611	 0.25145
N	-2.444799406	-1.0695425485	 0.4097671199	-0.339887
C	 0.4809685447	-0.547752487	-1.3216144949	 0.066566
C	 0.4342791531	 0.1285115395	-2.6214474338	-0.18211
O	 1.6347876773	 0.1050042967	-1.8385585885	-0.237861
H	 0.7271895876	 1.9917530058	-0.390607522	 0.146485
H	-1.0257385499	 1.9091115204	-0.6931082186	 0.131583
H	-0.4141880121	 1.9212791081	 0.9718418339	 0.151957
H	 0.9620751247	-1.5062084452	 1.1003146718	 0.105399
H	 1.7904892903	 0.0621073909	 1.0148337399	 0.13935
H	-0.4699956621	-0.5065070953	 2.5999200537	 0.299875
H	 0.5462034318	-1.6369247462	-1.3202614353	 0.11207
H	 0.4607287772	-0.4690264811	-3.5304495064	 0.129254
H	-0.0391939151	 1.1022650409	-2.7153190727	 0.126724
70.147	110.8249	149.7299	168.9621	218.5346	248.1952	284.2102	314.8275	368.7553	409.4863	425.651	500.0017	558.3522	625.594	713.2308	855.4808	878.5353	915.9184	942.6466	969.0914	1020.9905	1085.7278	1105.649	1143.4343	1160.8268	1166.9471	1179.5978	1203.8447	1272.1508	1312.8813	1386.3947	1398.3563	1416.2867	1437.0213	1496.0079	1502.4032	1506.0128	1530.0272	2346.703	3001.9587	3059.0071	3097.9226	3100.2132	3105.0976	3137.2114	3149.8189	3194.2019	3794.3096
CC(CO)(C#N)C1CO1	C[C@@](CO)(C#N)[C@H]1CO1	
InChI=1S/C6H9NO2/c1-6(3-7,4-8)5-2-9-5/h5,8H,2,4H2,1H3	InChI=1S/C6H9NO2/c1-6(3-7,4-8)5-2-9-5/h5,8H,2,4H2,1H3/t5-,6+/m1/s1
