16
gdb 49457	2.8979	1.29113	1.1502	3.5655	70.84	-0.2523	-0.0324	0.2199	1096.2411	0.124747	-437.894127	-437.88652	-437.885576	-437.926788	28.554	
N	 0.024247034	 0.9137669747	 0.7543293569	-0.52636
C	-0.0183824974	-0.1337560005	 0.0587552295	 0.399036
C	-1.2782750736	-0.8858039226	-0.3439994874	-0.322876
C	-0.7613166813	-2.1320668038	-1.0387020464	-0.110875
C	 0.7151382472	-1.9648463612	-1.1122207127	 0.062709
O	 1.0915743494	-0.7816121307	-0.4439032489	-0.228821
C	 0.1550879656	-3.1014460877	-0.267603032	-0.155157
C	 0.2612519535	-3.1248004855	 1.213054787	 0.154712
O	 0.3898422405	-4.1461197166	 1.8443870368	-0.266272
H	 0.9872131127	 1.2226907842	 0.8943400489	 0.231549
H	-1.9105757365	-1.0648337546	 0.5280568943	 0.151666
H	-1.8588576365	-0.2748559734	-1.0421155875	 0.147982
H	-1.3286620356	-2.5558895342	-1.8571382047	 0.118706
H	 1.3376872154	-2.1760763668	-1.9722823599	 0.128072
H	 0.2409689392	-4.0884509092	-0.7105584867	 0.119473
H	 0.2200473634	-2.1423447722	 1.7261586928	 0.096455
82.4184	100.3993	196.2899	204.6467	388.9418	426.3127	447.7413	534.25	559.8238	674.8728	724.8147	767.6662	827.1233	842.7011	895.6198	949.166	960.2239	996.8043	1011.4825	1035.428	1061.1841	1089.4744	1108.8756	1155.1899	1185.7683	1203.8544	1256.8629	1291.0053	1333.9143	1357.9196	1399.7812	1461.353	1474.7616	1786.939	1808.6561	2921.5366	3067.9855	3112.8643	3172.9747	3193.5952	3203.3467	3483.1343
N=C1CC2C(O1)C2C=O	[NH][C]1C[C@H]2[C@@H](O1)[C@H]2C=O	
InChI=1S/C6H7NO2/c7-5-1-3-4(2-8)6(3)9-5/h2-4,6-7H,1H2	InChI=1S/C6H7NO2/c7-5-1-3-4(2-8)6(3)9-5/h2-4,6-7H,1H2/t3-,4+,6-/m1/s1
