18
gdb 40462	3.6847	1.40193	1.30768	2.3939	74.56	-0.2468	0.0771	0.3239	1020.3735	0.148894	-401.864227	-401.857099	-401.856155	-401.896051	28.163	
C	-0.4584768762	 1.2041090336	-0.4058430766	-0.174429
O	 0.6540579971	 1.4723038816	 0.4530156982	-0.236952
C	 0.3105918154	 0.1093423248	 0.2009983789	-0.067507
C	-0.2161033238	-0.6652408251	 1.3580850012	 0.343729
C	-0.8368551212	-2.0688687586	 1.1753467466	-0.293804
C	-1.6934889388	-1.6684542955	 2.361564371	-0.03818
C	-0.8662751412	-0.8414653489	 3.2935671751	-0.039656
C	 0.5277607642	-0.7062834777	 2.7139563969	-0.283172
N	-1.5171842522	-0.1972470903	 2.1019029149	-0.184444
H	-1.4322791308	 1.4468150503	 0.0124056925	 0.138838
H	-0.3077410741	 1.4517315529	-1.4555909451	 0.11235
H	 1.0307076765	-0.4290704026	-0.4198524117	 0.091925
H	-1.4347778508	-2.1239321344	 0.2615492706	 0.112616
H	-0.180120121	-2.9422256069	 1.246808457	 0.098516
H	-2.6584395921	-2.0694232812	 2.6502884569	 0.096763
H	-1.1972244641	-0.6075813811	 4.2990386017	 0.09778
H	 1.2671407784	-1.4963572596	 2.8814244678	 0.094877
H	 0.9556290248	 0.2725789486	 2.9404776241	 0.130748
74.2084	163.346	186.5909	346.8905	411.3663	463.6287	481.4215	612.17	743.5481	768.0994	808.372	825.4959	858.9608	866.5023	905.2443	913.8579	993.3793	1000.928	1014.4238	1023.6614	1031.4213	1080.9876	1097.0334	1105.4502	1124.0987	1159.6399	1164.2839	1167.5	1195.2325	1228.5029	1247.7125	1282.0532	1317.4373	1328.1444	1373.3241	1446.2948	1486.2014	1504.125	1518.5036	3040.1113	3046.5573	3080.9299	3092.9812	3102.5433	3120.415	3175.5379	3187.1809	3190.7816
C1OC1C12CC3C(C1)N23	C1O[C@H]1[C@@]12C[C@H]3[C@@H](C1)N23	
InChI=1S/C7H9NO/c1-4-5-2-7(1,8(4)5)6-3-9-6/h4-6H,1-3H2	InChI=1S/C7H9NO/c1-4-5-2-7(1,8(4)5)6-3-9-6/h4-6H,1-3H2/t4-,5+,6-,7+,8?/m1/s1
