17
gdb 65971	2.25359	1.56753	1.31011	3.2068	68.47	-0.2481	-0.0372	0.2109	1048.6568	0.132462	-458.925806	-458.916889	-458.915945	-458.95983	32.095	
C	-0.1405997297	 1.6390913891	 0.0482504039	-0.443439
C	 0.0599483816	 0.1369019875	 0.0175449791	 0.21201
O	 1.1906077667	-0.2750742238	-0.7986888595	-0.328693
C	 1.859626607	-0.9335859824	 0.3016008906	-0.155156
C	 0.7325133903	-0.5281844112	 1.2391660273	 0.32145
C	 0.6797967903	-0.2020177653	 2.6599523597	-0.25279
O	 0.0840353975	-1.4019536465	 2.1340617999	-0.252236
C	-1.1967662478	-0.6160983369	-0.4128489244	 0.145292
O	-2.3154190384	-0.2019355785	-0.2654824816	-0.24264
H	 0.7290208794	 2.1392239096	 0.4812170971	 0.118478
H	-0.289674147	 2.0152436837	-0.9679916743	 0.139193
H	-1.0331433608	 1.88072805	 0.6309981106	 0.145479
H	 1.950458573	-2.0158928724	 0.1512984207	 0.124243
H	 2.8486285811	-0.5045246029	 0.4999916828	 0.116808
H	 1.5613765234	-0.3555580689	 3.2805609018	 0.126801
H	-0.0235553992	 0.5468815567	 3.0194617453	 0.132713
H	-0.9803128175	-1.6008518178	-0.8811909991	 0.092489
61.4987	83.9609	171.2653	192.9948	235.1507	257.087	300.7302	360.4876	437.4339	463.427	507.5542	583.2113	737.2547	840.6272	874.68	887.4952	925.8258	961.2391	988.9419	1016.1278	1074.9354	1122.8996	1126.5757	1148.0595	1152.6718	1171.2479	1217.3957	1248.5269	1322.2588	1389.9855	1407.6476	1446.2441	1479.3028	1488.0582	1512.9121	1540.0635	1833.1441	2902.146	3023.9147	3049.4948	3072.4433	3088.8514	3123.8682	3135.6414	3178.7766
CC1(OCC11CO1)C=O	C[C@]1(OC[C@]21CO2)C=O	
InChI=1S/C6H8O3/c1-5(2-7)6(3-8-5)4-9-6/h2H,3-4H2,1H3	InChI=1S/C6H8O3/c1-5(2-7)6(3-8-5)4-9-6/h2H,3-4H2,1H3/t5-,6+/m0/s1
