19
gdb 38726	2.63706	2.06647	1.60745	2.2559	73.55	-0.2385	0.0772	0.3157	902.2365	0.162612	-422.995692	-422.989063	-422.988119	-423.026261	28.184	
C	-0.0267309966	 1.5096861294	 0.1346178909	-0.414439
C	 1.3284955054	 0.8378677358	 0.0040364615	 0.085621
O	 2.142980093	 0.3164628605	 1.0335553925	-0.281371
C	 1.635750675	-1.0220272466	 1.2132158314	 0.239785
C	 0.1338678232	-0.7850490065	 1.2434254835	-0.289098
C	 0.0728992324	 0.0143542993	-0.069715228	 0.275859
C	 0.0168959112	-0.9508334725	-1.2308999329	-0.335446
C	 1.380096752	-1.7119006404	-1.1492384754	-0.047012
O	 1.9379300488	-1.9174511007	 0.1657529978	-0.285574
H	-0.4017446315	 1.8426666048	 1.0970613833	 0.121146
H	-0.2886500446	 2.1600592761	-0.6961667827	 0.115479
H	 1.8802735548	 1.0666926579	-0.9032682026	 0.094564
H	 2.1203306569	-1.4303408974	 2.1016532881	 0.088653
H	-0.4498610113	-1.7068509319	 1.2101570793	 0.104352
H	-0.1546557455	-0.2016073669	 2.1199573324	 0.10513
H	-0.8367372825	-1.6331930354	-1.1536221957	 0.104137
H	-0.043193347	-0.4575622617	-2.2068287169	 0.103689
H	 1.3036069781	-2.7123186263	-1.5857541753	 0.106644
H	 2.1155471081	-1.1487361475	-1.7369813114	 0.107881
183.7367	248.711	348.8287	357.2214	431.7434	466.1673	503.876	597.0087	645.3694	770.7521	788.275	806.3442	831.8654	862.3635	881.7016	909.9523	953.3193	970.9199	991.5332	1010.8107	1018.9428	1066.0348	1070.1202	1087.4631	1105.8343	1140.7706	1162.1538	1194.2996	1258.4397	1264.5219	1294.5434	1315.1885	1321.9475	1345.7549	1372.8546	1400.5045	1425.1637	1473.5413	1486.7646	1501.5881	1513.9036	3021.3858	3035.5812	3072.1291	3074.4709	3087.9934	3114.3579	3115.9843	3128.4454	3142.2604	3205.0137
C1C2OC3CC12CCO3	C1[C@H]2O[C@H]3C[C@@]12CCO3	
InChI=1S/C7H10O2/c1-2-8-6-4-7(1)3-5(7)9-6/h5-6H,1-4H2	InChI=1S/C7H10O2/c1-2-8-6-4-7(1)3-5(7)9-6/h5-6H,1-4H2/t5-,6+,7-/m1/s1
