15
gdb 28264	4.80461	1.25	1.00543	1.0241	66.95	-0.1719	0.066	0.2379	1109.3251	0.115182	-453.967603	-453.960167	-453.959223	-453.999632	27.989	
O	 0.2311481564	 1.283753545	 0.1859243304	-0.427117
C	 0.1234520384	-0.0481206515	 0.0179933072	 0.411452
N	 0.1953163589	-0.7116471013	-1.1025058405	-0.44412
C	 0.0490448754	-2.039045196	-0.7016345776	 0.156502
C	-0.1116105163	-2.1140368773	 0.6296536026	 0.430938
N	-0.074203016	-0.8347176916	 1.1366506987	-0.443134
O	-0.3322039122	-3.3162422903	 1.2031688128	-0.297613
C	-0.1515489702	-4.2407414048	 0.0673115969	-0.093284
C	-0.0968877617	-3.4181285773	-1.273030221	-0.361707
H	 0.3692958614	 1.6517287343	-0.6959014357	 0.313249
H	-0.1248036951	-0.5203982305	 2.0899310675	 0.278101
H	 0.7884895967	-4.7721826211	 0.2410518635	 0.122742
H	-0.978244788	-4.95154411	 0.1070143992	 0.124077
H	-1.0111998655	-3.5477275789	-1.8667972914	 0.113854
H	 0.7413857377	-3.7550019686	-1.8924212726	 0.116059
90.0967	140.4712	248.1883	312.5977	316.3272	382.8611	406.0034	517.2907	555.8305	673.0038	705.1663	716.2064	742.2362	832.1764	846.2042	926.3735	952.4755	1010.0711	1074.5027	1149.0932	1167.9143	1192.8822	1233.3516	1252.5214	1278.5957	1360.788	1375.681	1493.892	1501.5406	1515.4956	1530.2958	1618.5909	1699.2631	3011.8827	3049.3733	3065.0355	3125.5539	3683.6045	3805.6602
OC1=NC2=C(N1)OCC2	Oc1nc2c([nH]1)OCC2	
InChI=1S/C5H6N2O2/c8-5-6-3-1-2-9-4(3)7-5/h1-2H2,(H2,6,7,8)	InChI=1S/C5H6N2O2/c8-5-6-3-1-2-9-4(3)7-5/h1-2H2,(H2,6,7,8)
