17
gdb 94295	2.97596	1.53383	1.22638	1.8915	68.2	-0.2168	0.052	0.2689	1029.0562	0.134934	-458.874328	-458.866339	-458.865395	-458.907198	29.96	
O	 0.025269981	 1.2594769454	-0.4049633254	-0.423826
C	 0.0460998328	-0.0968978233	-0.0245959949	-0.047501
C	-0.016381639	-0.4019001677	 1.4956065211	-0.105728
O	-1.3061589202	-1.0498261641	 1.3545149046	-0.327635
C	-1.3270797532	-0.7482704989	-0.0386525275	 0.462136
C	-2.6285716601	-0.3366938049	-0.6719938915	-0.217504
C	-2.3818592235	-0.0297957705	-2.1440909957	-0.088439
O	-1.6925114716	-1.303559835	-2.3370546792	-0.290218
C	-1.9846486887	-1.6843805545	-0.9928030955	-0.014327
H	 0.9328217465	 1.5598666662	-0.511945809	 0.290802
H	 0.8089442385	-0.6600173727	-0.5733686221	 0.092177
H	 0.7376721811	-1.0877332881	 1.8963985453	 0.105313
H	-0.0789294461	 0.5007032702	 2.1133009312	 0.109637
H	-3.4974372878	-0.084560912	-0.0793588112	 0.110098
H	-3.2965151383	-0.0013141679	-2.7468705432	 0.109346
H	-1.742634132	 0.8260984043	-2.3761039753	 0.125177
H	-2.2547224894	-2.7122662364	-0.7773552615	 0.11049
65.8733	145.6831	154.1299	224.4307	294.8015	328.0489	395.3573	449.3886	548.7889	605.1153	769.3381	778.7423	835.4401	886.8329	926.4638	935.8412	966.2108	996.7837	1007.3667	1024.2047	1051.8688	1064.2399	1097.0773	1135.2552	1149.7141	1162.3189	1171.545	1209.8624	1229.8383	1242.0146	1291.9182	1331.4376	1334.8354	1420.7041	1466.2965	1509.99	1510.9592	3028.9996	3034.6991	3043.9716	3087.7526	3102.0796	3175.9001	3209.7684	3827.2918
OC1COC11C2COC12	O[C@H]1CO[C@]21[C@H]1CO[C@@H]21	
InChI=1S/C6H8O3/c7-4-2-9-6(4)3-1-8-5(3)6/h3-5,7H,1-2H2	InChI=1S/C6H8O3/c7-4-2-9-6(4)3-1-8-5(3)6/h3-5,7H,1-2H2/t3-,4-,5+,6-/m0/s1
