21
gdb 88469	2.71564	1.20775	1.14811	3.0168	77.79	-0.2438	0.0673	0.311	1209.1823	0.1809	-424.18615	-424.176735	-424.17579	-424.220415	34.875	
C	 1.7783414704	-0.1715237977	-0.8959993133	-0.432884
C	 0.484361108	-0.1091253502	-0.1243503244	 0.080503
O	 0.1645131536	-1.2006295465	 0.7519118583	-0.26407
C	 0.3658775062	 0.0922480678	 1.3296285648	-0.018922
C	 1.5094466784	 0.2862294761	 2.3009652355	 0.255263
C	 1.9770941736	 1.7421608469	 2.2986876486	-0.455792
C	 1.2493671597	-0.264282572	 3.7306617122	-0.114151
O	 2.485122349	-1.0014584403	 3.7183114292	-0.277775
C	 2.6629883345	-0.7504358322	 2.3101644036	-0.125668
H	 2.6339530873	-0.4128253704	-0.2638178669	 0.137107
H	 1.7115400247	-0.9320659576	-1.6811303826	 0.133288
H	 1.9688914898	 0.7912735972	-1.3825964514	 0.124135
H	-0.3694046468	 0.2139461781	-0.7246783701	 0.090117
H	-0.560284853	 0.5610929209	 1.6767768382	 0.088229
H	 1.1466163256	 2.4238137155	 2.5161380489	 0.11755
H	 2.7477463653	 1.8983923254	 3.0597846384	 0.130382
H	 2.3953950381	 2.0234377145	 1.3264952905	 0.119987
H	 1.2132981771	 0.4746207831	 4.5405215392	 0.097517
H	 0.3774215256	-0.9284971197	 3.805222301	 0.104359
H	 2.4576624793	-1.6444780506	 1.7119729601	 0.11565
H	 3.6652039433	-0.3671759784	 2.0824772204	 0.095175
73.4753	101.5614	151.4053	177.1961	218.914	239.5692	280.7106	343.1514	359.7057	394.9991	499.2612	526.3597	685.6351	785.4728	836.8207	849.6609	921.9359	930.9767	945.3179	965.7204	996.2901	1016.2705	1039.4094	1049.4531	1092.557	1160.1183	1163.3063	1177.0776	1181.4619	1184.7205	1240.0285	1276.0718	1309.7016	1321.5821	1379.3051	1396.2377	1413.8269	1421.8892	1468.6077	1485.6313	1495.0408	1496.2236	1508.5257	1511.2532	1534.3575	3000.8053	3020.0566	3027.282	3041.3967	3052.6571	3055.2293	3076.6539	3080.9686	3093.3427	3099.2551	3106.5229	3145.0407
CC1OC1C1(C)COC1	C[C@H]1O[C@H]1C1(C)COC1	
InChI=1S/C7H12O2/c1-5-6(9-5)7(2)3-8-4-7/h5-6H,3-4H2,1-2H3	InChI=1S/C7H12O2/c1-5-6(9-5)7(2)3-8-4-7/h5-6H,3-4H2,1-2H3/t5-,6-/m1/s1
