19
gdb 9756	3.57246	1.57148	1.48086	1.3446	71.3	-0.2466	0.0248	0.2714	963.6098	0.165717	-365.087818	-365.07951	-365.078565	-365.120764	30.726	
C	 0.0611468027	 1.5411927914	-0.0074518782	-0.391847
C	-0.0669406925	 0.0193155232	 0.0959717048	-0.201185
C	-1.5044749189	-0.527796258	-0.0249834434	 0.284379
C	-2.1608991716	-0.1473998087	-1.3584332344	-0.423467
C	-1.5334447908	-2.0713189057	 0.20968373	-0.150754
O	-2.399129102	-2.2550118377	 1.3548730675	-0.222619
C	-2.7488531152	-1.0038269242	 1.7368829409	 0.114061
N	-2.3344620862	 0.0001153654	 1.0882706381	-0.28904
H	 1.0897609678	 1.8525326516	 0.1989001697	 0.109137
H	-0.1961365296	 1.9065957805	-1.0061141272	 0.114443
H	-0.5978159675	 2.031556699	 0.7135202272	 0.142089
H	 0.5494623068	-0.4630832858	-0.6748225063	 0.091499
H	 0.3321568296	-0.3105462517	 1.0630523951	 0.097616
H	-1.5575997006	-0.4977174557	-2.2035754607	 0.109907
H	-3.155213873	-0.5974966396	-1.4363709207	 0.117272
H	-2.2782494706	 0.9351615552	-1.4397805238	 0.132782
H	-1.9563794568	-2.6307476689	-0.6292780034	 0.11461
H	-0.5512183978	-2.4858293684	 0.4570390565	 0.112791
H	-3.389981154	-0.9703495518	 2.6114972583	 0.138325
51.6963	111.7771	205.1011	229.3725	265.676	317.078	347.8829	377.2322	430.4225	592.529	631.2479	784.5436	790.896	856.863	899.8109	941.8841	964.2186	966.6658	974.307	1014.5349	1043.3869	1075.6564	1119.7029	1189.8917	1199.9904	1216.7378	1259.9794	1319.7817	1324.5358	1371.3494	1378.4484	1408.1471	1411.6043	1477.4113	1488.0622	1494.8002	1506.1049	1511.9486	1519.2412	1706.9967	3012.7856	3034.8137	3044.2265	3047.527	3052.403	3095.777	3102.7756	3106.2225	3126.6893	3131.8549	3208.9208
CCC1(C)COC=N1	CC[C@@]1(C)COC=N1	
InChI=1S/C6H11NO/c1-3-6(2)4-8-5-7-6/h5H,3-4H2,1-2H3	InChI=1S/C6H11NO/c1-3-6(2)4-8-5-7-6/h5H,3-4H2,1-2H3/t6-/m0/s1
