19
gdb 35770	3.74158	1.18176	1.00455	1.601	81.29	-0.2489	0.0372	0.2861	1207.0668	0.160147	-385.84389	-385.835875	-385.834931	-385.876362	31.746	
C	 0.0758020828	-1.2015021987	 0.0389338941	-0.410814
C	 0.0719384995	-0.0004847542	 0.0228782379	 0.290505
C	 0.0168468273	 1.457759389	 0.0263069686	-0.050711
C	-0.7656355944	 2.0037210062	 1.2390128678	-0.232703
C	-0.5426835632	 3.5033899746	 1.4202330299	-0.043006
C	 0.7121130914	 3.9908620194	 2.1082726615	-0.28013
C	 0.5519994392	 4.1903278456	 0.626865567	-0.030094
C	 1.3663401412	 3.3454931692	-0.3317336634	-0.097562
O	 1.3487551767	 1.9689165417	 0.0144186326	-0.259125
H	 0.0917443624	-2.263379572	 0.043445519	 0.195698
H	-0.4905880375	 1.7906718302	-0.8961827456	 0.092127
H	-1.8285062267	 1.7897316803	 1.0891109005	 0.109264
H	-0.4536525908	 1.4538357178	 2.1326240372	 0.116816
H	-1.4418988504	 4.0825230948	 1.6025535883	 0.085036
H	 0.6443876945	 4.8564266746	 2.7579065022	 0.107602
H	 1.4175481663	 3.2319774411	 2.432260615	 0.122934
H	 0.3539301623	 5.1988043552	 0.2755911058	 0.084359
H	 0.9850360843	 3.4750261674	-1.359435712	 0.088904
H	 2.4210480453	 3.6397621479	-0.3256136464	 0.110901
82.1417	147.121	191.9064	278.298	347.5073	376.5228	419.052	485.4948	527.152	552.9132	620.8889	670.4713	689.1069	771.869	798.1992	827.9973	859.7936	930.6747	969.1817	1006.4758	1029.0867	1066.3151	1075.8984	1083.8228	1106.5696	1125.1555	1134.4249	1156.7291	1223.5913	1239.8925	1285.2074	1306.6337	1361.5984	1369.262	1389.1689	1392.5334	1420.8459	1480.8005	1491.6826	1497.6837	2244.2328	2944.8564	2956.6396	3047.5653	3068.4762	3089.5343	3128.546	3146.8422	3158.4387	3217.1659	3504.4269
C#CC1CC2CC2CO1	C#C[C@H]1C[C@H]2C[C@H]2CO1	
InChI=1S/C8H10O/c1-2-8-4-6-3-7(6)5-9-8/h1,6-8H,3-5H2	InChI=1S/C8H10O/c1-2-8-4-6-3-7(6)5-9-8/h1,6-8H,3-5H2/t6-,7+,8+/m1/s1
