20
gdb 53964	3.01899	1.04015	0.94121	4.0022	79.21	-0.2584	-0.028	0.2304	1322.1907	0.167362	-403.196033	-403.185404	-403.18446	-403.231826	38.071	
C	 0.029285695	 1.4994655913	-0.1154528206	-0.485672
C	 0.0267426907	-0.0068548682	 0.0818091475	 0.37882
O	 1.0600900521	-0.6087514808	 0.2677308626	-0.308407
C	-1.3288737342	-0.7461774024	 0.0408015255	 0.126575
C	-2.0858178559	-0.4385458585	 1.3530294298	-0.431133
C	-2.1660839999	-0.2990594792	-1.1727338052	-0.437781
C	-1.0160772619	-2.2649185448	-0.0449340836	-0.35244
C	-2.2178682498	-3.0938035437	-0.0398762339	 0.266252
N	-3.1799756389	-3.7348505087	-0.0360059178	-0.324862
H	 0.9910536483	 1.8968332394	 0.2105381169	 0.149503
H	-0.1005836102	 1.7273836044	-1.1795410656	 0.152826
H	-0.7843123921	 1.9947969685	 0.4204599013	 0.139338
H	-2.3312746764	 0.6236325449	 1.4336712826	 0.123381
H	-3.0237723383	-1.0007116465	 1.3828504846	 0.152347
H	-1.4923404936	-0.7200627582	 2.2286296236	 0.132228
H	-1.6303130678	-0.4657875791	-2.1133815951	 0.124349
H	-3.0999169566	-0.8672218773	-1.2136947834	 0.150744
H	-2.4248779853	 0.7609201725	-1.1113955913	 0.123951
H	-0.4452628212	-2.4770481066	-0.9547474706	 0.154303
H	-0.372203744	-2.5557525269	 0.7891800028	 0.16568
52.2584	75.1573	129.7135	134.8637	203.2497	244.3276	258.3882	274.0492	334.445	341.89	354.4759	396.9578	418.9226	533.3629	582.6698	610.2141	717.5508	818.6249	896.0699	941.4956	953.1683	975.4074	989.9061	1010.2516	1059.6197	1133.6359	1139.2319	1231.4495	1259.5225	1275.6605	1334.7442	1383.1339	1401.1729	1424.7938	1452.5119	1461.6003	1474.9057	1486.7285	1494.4748	1509.0662	1511.7466	1798.4726	2357.2032	3037.4834	3040.6858	3046.2828	3064.3509	3106.7709	3108.4087	3110.7067	3113.9381	3119.275	3122.6651	3155.978
CC(=O)C(C)(C)CC#N	CC(=O)C(C)(C)CC#N	
InChI=1S/C7H11NO/c1-6(9)7(2,3)4-5-8/h4H2,1-3H3	InChI=1S/C7H11NO/c1-6(9)7(2,3)4-5-8/h4H2,1-3H3
