23
gdb 117540	2.15737	1.00152	0.81248	3.452	87.04	-0.2332	0.0334	0.2665	1562.9102	0.20393	-384.478581	-384.467357	-384.466413	-384.515481	39.661	
C	-0.0898487803	 1.3160803534	-0.8182411339	-0.385916
C	-0.1773699293	-0.1683443231	-0.4552244023	-0.171316
C	 0.6926286023	-0.5289615188	 0.7526635297	-0.194619
C	 0.6041462777	-2.0234227641	 1.128495023	-0.125061
C	 1.5694021428	-2.3353674387	 2.2172203235	 0.271148
N	 2.2760316406	-2.5929374716	 3.0957876918	-0.334638
N	-0.7506637758	-2.4717230766	 1.4397207903	-0.043254
C	-0.876869328	-3.9244981674	 1.4184692301	-0.330262
C	-1.3148974042	-1.9011268194	 2.6586816064	-0.337559
H	 0.9378077555	 1.6094937658	-1.0597683775	 0.116617
H	-0.7147825796	 1.5477597769	-1.685988889	 0.116274
H	-0.4263212779	 1.9477695687	 0.0114026434	 0.116328
H	-1.2148959013	-0.4470878554	-0.2463648974	 0.117382
H	 0.1326032935	-0.7773920615	-1.3149393493	 0.095264
H	 1.7444717261	-0.3035949993	 0.5410992469	 0.116149
H	 0.4224679107	 0.0889181028	 1.6161905545	 0.114759
H	 0.9290706911	-2.600227064	 0.2534574243	 0.121617
H	-0.3112813746	-4.4251047118	 2.2236788982	 0.118934
H	-1.931358642	-4.1947308762	 1.5260725878	 0.124564
H	-0.5238417328	-4.31330605	 0.4581711725	 0.120967
H	-1.3147482248	-0.8098443459	 2.6078275031	 0.125001
H	-2.3543039122	-2.2284971095	 2.7497747723	 0.125139
H	-0.7763191273	-2.2063131343	 3.5721339317	 0.122483
58.6666	71.0548	97.8837	117.3674	140.0536	215.6497	238.03	239.7273	283.8315	301.6292	330.3549	360.6965	425.6633	462.7457	591.5984	615.9764	736.2796	786.4017	893.1644	898.4902	924.8389	997.0382	1047.1167	1063.4968	1091.9963	1112.4883	1125.5266	1132.7689	1189.3943	1224.1401	1262.7443	1281.7859	1301.3989	1329.5083	1339.6549	1382.1785	1392.8646	1413.9579	1444.4074	1473.0095	1480.0785	1489.4257	1493.9746	1499.4917	1500.3813	1501.4271	1512.8027	1516.0177	2338.6481	2958.1903	2967.7975	3021.5628	3030.0148	3031.5747	3041.8867	3066.4927	3069.047	3079.7888	3083.6586	3101.5606	3105.7064	3108.9903	3121.0408
CCCC(C#N)N(C)C	CCC[C@@H](C#N)N(C)C	
InChI=1S/C7H14N2/c1-4-5-7(6-8)9(2)3/h7H,4-5H2,1-3H3	InChI=1S/C7H14N2/c1-4-5-7(6-8)9(2)3/h7H,4-5H2,1-3H3/t7-/m0/s1
