21
gdb 119202	1.82113	1.37228	0.91704	0.8323	86.91	-0.2375	0.041	0.2785	1388.9128	0.178649	-387.041364	-387.030818	-387.029874	-387.07705	38.539	
C	-0.0033174371	 1.5211503037	-0.1256621095	-0.386423
C	-0.1983342985	 0.0183463086	-0.2196308515	-0.053558
O	 0.8625073114	-0.5139695377	-1.0081321203	-0.283083
C	 0.8156417611	-1.8993663	-1.1804680417	 0.234933
C	-0.1217801903	-2.4443147886	-2.2529385706	-0.348162
C	 1.3654108802	-2.4068454141	-2.5003085334	-0.058908
C	 1.9673038434	-1.4462218701	-3.500454209	-0.40417
C	 1.0382831705	-2.6816301645	 0.0112724663	 0.319758
C	 1.222151158	-3.3250600809	 1.0113107161	-0.488087
H	 0.9571596013	 1.7551151174	 0.3419774435	 0.129537
H	-0.0202455414	 1.9772950493	-1.1198270138	 0.123063
H	-0.800550984	 1.9691743735	 0.4750444362	 0.115748
H	-0.1867634225	-0.4415000284	 0.7783884271	 0.105476
H	-1.1662370679	-0.2251873638	-0.6839108326	 0.088934
H	-0.6110395497	-3.3953993554	-2.0785843102	 0.121664
H	-0.7249002517	-1.6987923132	-2.7612207569	 0.119516
H	 1.8727615845	-3.363922579	-2.4229617749	 0.100429
H	 1.4622117646	-0.4791377363	-3.4677965529	 0.130231
H	 3.0285276239	-1.2758524507	-3.2921194691	 0.123121
H	 1.8830814709	-1.8492271789	-4.5154659	 0.115332
H	 1.3920189733	-3.894330511	 1.8913983674	 0.194648
59.3731	98.833	129.672	142.9073	156.108	187.5746	243.1555	274.8323	323.4394	378.7798	422.0335	472.4832	551.9871	571.1306	596.1632	674.933	703.1618	801.9802	819.7808	886.0849	892.7966	933.5849	953.0803	1016.1425	1050.3544	1074.8838	1099.2597	1135.9239	1146.6963	1188.5097	1192.4227	1249.0061	1273.6605	1295.274	1394.819	1400.3521	1416.6944	1427.4558	1471.1367	1483.3239	1491.6813	1499.6402	1500.5862	1527.7747	2227.2735	2986.7853	3027.5706	3037.9825	3044.2841	3096.9653	3117.796	3121.7796	3130.1317	3132.942	3156.1626	3226.6551	3501.9246
CCOC1(CC1C)C#C	CCO[C@]1(C[C@H]1C)C#C	
InChI=1S/C8H12O/c1-4-8(9-5-2)6-7(8)3/h1,7H,5-6H2,2-3H3	InChI=1S/C8H12O/c1-4-8(9-5-2)6-7(8)3/h1,7H,5-6H2,2-3H3/t7-,8+/m1/s1
