21
gdb 66619	2.60761	1.90646	1.45358	0.3853	85.97	-0.2241	0.094	0.3181	1006.9358	0.182923	-349.897897	-349.89003	-349.889086	-349.929573	32.206	
C	 0.098338124	 1.5485551185	 0.0052890991	-0.525425
C	-0.014417605	 0.0581707721	 0.0020181433	 0.285108
C	 0.7054733042	-1.0105449999	-0.7918088387	-0.123216
C	 0.7492359435	-1.0173836206	 0.7440059879	-0.123205
C	-0.4935484335	-1.8811977534	 1.0480163228	-0.10632
C	-0.5267102063	-3.0226319304	 0.0026250699	-0.249181
C	-0.5530040721	-1.8716359542	-1.0323876318	-0.10628
C	-1.2417255511	-0.923612103	 0.0327251901	 0.327356
C	-2.7000951101	-0.5778792205	 0.076056912	-0.534342
H	 1.1499350642	 1.8563382644	-0.0196949322	 0.119697
H	-0.3954652719	 1.9953132118	-0.8660424732	 0.116715
H	-0.3511845901	 1.987880449	 0.9039406453	 0.116714
H	 1.5985569273	-0.9208140405	-1.3975804201	 0.076758
H	 1.675358813	-0.9327264339	 1.298752192	 0.076752
H	-0.8011799701	-2.017766703	 2.0850392054	 0.05701
H	 0.3062947249	-3.7322353328	-0.0244391433	 0.087959
H	-1.475836584	-3.568199612	 0.0271960691	 0.092375
H	-0.919361888	-1.9987332267	-2.0513758976	 0.057015
H	-3.3186354295	-1.4830535894	 0.0907818738	 0.11945
H	-2.9470781632	 0.006141941	 0.9706365372	 0.117531
H	-2.9982108063	 0.0123524035	-0.798645471	 0.117528
183.5656	189.3521	203.1729	226.9282	277.4559	281.8699	451.6392	555.9038	560.2371	604.8715	713.528	776.4843	785.9667	833.3818	840.3273	854.7516	873.4979	879.2901	933.5671	941.4082	975.6342	998.105	1028.7979	1030.7008	1063.3255	1104.5313	1111.7152	1131.2384	1151.2205	1160.4248	1202.7085	1215.7514	1219.066	1228.4507	1275.6748	1292.9942	1343.5689	1406.8284	1411.1639	1448.9737	1482.5348	1485.5382	1487.7015	1492.8131	1497.7801	3014.2815	3017.1462	3040.0489	3072.2725	3078.8855	3081.8607	3084.9078	3094.845	3108.3912	3111.495	3182.5826	3192.8501
CC12C3C1C1CC3C21C	C[C@@]12[C@H]3[C@@H]1[C@@H]1C[C@H]3[C@]21C	
InChI=1S/C9H12/c1-8-4-3-5(8)7-6(4)9(7,8)2/h4-7H,3H2,1-2H3	InChI=1S/C9H12/c1-8-4-3-5(8)7-6(4)9(7,8)2/h4-7H,3H2,1-2H3/t4-,5+,6-,7+,8+,9-
