23
gdb 119710	2.92298	1.03839	0.90995	0.8875	86.83	-0.2344	0.0891	0.3235	1438.6183	0.204558	-388.259966	-388.250149	-388.249205	-388.294959	36.771	
C	-0.0391354083	 1.5002010495	-0.0762108375	-0.386319
C	-0.1425604317	-0.0133037933	-0.1450933744	-0.057092
O	 0.8494449049	-0.4878835633	-1.0490325719	-0.287967
C	 0.8655278571	-1.8608582865	-1.1863907642	 0.430971
C	 1.6058069213	-2.8008256471	-0.2208670129	-0.303733
C	 2.0949930547	-3.6274523751	-1.4559849072	-0.224126
C	 1.3583462906	-2.6559246084	-2.3881243083	-0.165217
C	-0.1240281675	-2.5910799817	-2.0579240874	-0.058891
C	-0.9891427749	-3.7685348695	-1.6599772047	-0.419823
H	 0.9507164173	 1.8018242543	 0.2780108022	 0.126304
H	-0.1966851204	 1.9406927769	-1.0649284855	 0.125872
H	-0.7913106863	 1.9034578359	 0.6085236537	 0.11343
H	 0.009945246	-0.4566388719	 0.8512377566	 0.091516
H	-1.1406451764	-0.3233743483	-0.4909003552	 0.090231
H	 2.4314243846	-2.285935615	 0.2754777215	 0.107903
H	 1.0089625962	-3.32227132	 0.5341940588	 0.091062
H	 3.1796520556	-3.5886003586	-1.5750816487	 0.104635
H	 1.7804771869	-4.6745961838	-1.5003544783	 0.096311
H	 1.7350846216	-2.2925655792	-3.3368170166	 0.087806
H	-0.6240040284	-1.8840450018	-2.7184084655	 0.087305
H	-0.4853705598	-4.4344433374	-0.9541905367	 0.119496
H	-1.9163959199	-3.430325312	-1.1842717376	 0.114119
H	-1.2656271332	-4.3664544136	-2.5358255699	 0.116208
64.1164	72.1896	123.3616	184.2529	239.1869	243.8914	255.2463	301.7276	349.6814	387.3651	468.34	532.6796	676.9118	709.6645	769.1273	808.9983	818.2948	884.5832	919.2593	924.9786	965.6778	985.811	994.7122	1045.6747	1071.8608	1085.2182	1119.5478	1128.6554	1148.4901	1156.3922	1186.6413	1215.8102	1220.8013	1234.6973	1254.2774	1290.931	1301.9433	1329.9012	1397.2554	1413.941	1419.3109	1461.8615	1476.0396	1482.7503	1500.194	1500.807	1505.1315	1511.4289	1527.6475	2976.5966	3006.1153	3030.5544	3044.2727	3046.6418	3056.5337	3085.6482	3099.2301	3109.3571	3117.3747	3118.4818	3120.7912	3129.2083	3182.5955
CCOC12CCC1C2C	CCO[C@]12CC[C@H]1[C@H]2C	
InChI=1S/C8H14O/c1-3-9-8-5-4-7(8)6(8)2/h6-7H,3-5H2,1-2H3	InChI=1S/C8H14O/c1-3-9-8-5-4-7(8)6(8)2/h6-7H,3-5H2,1-2H3/t6-,7+,8+/m1/s1
