16
gdb 52758	1.85841	1.0804	0.73703	2.8086	76.55	-0.2559	-0.0437	0.2122	1525.6679	0.121	-437.890433	-437.880156	-437.879212	-437.92865	33.685	
C	-0.0440359543	 1.2744614881	 0.2754190862	-0.498142
C	-0.0079610295	-0.1676661842	 0.0859828832	 0.042437
C	 0.0061401918	-1.3643605552	-0.0457471175	 0.109329
C	 0.0651022295	-2.8125067357	-0.2676912612	-0.241052
N	-1.2194765316	-3.4796367236	-0.2755337502	-0.25575
C	-1.6797550653	-4.1466275902	 0.8180665864	 0.157931
O	-1.145563203	-4.1409956672	 1.9060320051	-0.319007
C	 0.7672743087	-3.0375808105	-1.6133964037	 0.163898
O	 0.2546987048	-3.6112693596	-2.5368927022	-0.247374
H	 0.9677594589	 1.6851503412	 0.3601064153	 0.155371
H	-0.5389614396	 1.7746113038	-0.5637706595	 0.154392
H	-0.5866890259	 1.5359967096	 1.1900589592	 0.160145
H	 0.674109982	-3.2703726438	 0.5253316452	 0.156966
H	-1.6133967703	-3.6696217561	-1.18607769	 0.263043
H	-2.6162373891	-4.6954514523	 0.6014509586	 0.085772
H	 1.7793375728	-2.5917021942	-1.675571955	 0.112041
23.8822	24.7789	73.4545	104.2312	173.2695	192.7088	224.5289	288.2183	315.8188	359.2159	452.2328	526.6845	534.2156	667.2896	748.2935	819.7483	889.6726	1033.4989	1037.7966	1050.6024	1053.2853	1089.3744	1172.4444	1215.1292	1249.7861	1336.442	1403.6059	1413.4553	1426.1658	1475.1263	1476.8157	1509.199	1801.5623	1832.8201	2367.4119	2947.3719	2953.2755	3016.7448	3032.2587	3095.657	3096.5784	3608.1632
CC#CC(NC=O)C=O	CC#C[C@@H](NC=O)C=O	
InChI=1S/C6H7NO2/c1-2-3-6(4-8)7-5-9/h4-6H,1H3,(H,7,9)	InChI=1S/C6H7NO2/c1-2-3-6(4-8)7-5-9/h4-6H,1H3,(H,7,9)/t6-/m1/s1
