21
gdb 67471	2.4495	1.63315	1.51675	1.376	80.78	-0.2388	0.074	0.3128	1023.2668	0.185403	-387.074035	-387.066359	-387.065415	-387.105621	31.744	
O	-0.0347164522	 1.4064138074	-0.0302397611	-0.46752
C	 0.0004176079	 0.0207045802	-0.0200362822	 0.372467
C	-1.172679741	-0.9423285638	 0.0632909791	-0.12972
C	-0.6549292103	-1.7125848557	-1.1523619047	-0.244561
C	 0.65139738	-0.8410860921	-1.1292981154	-0.075491
C	 1.9397800027	-1.5471425236	-0.6945211111	-0.21487
C	 1.6862710099	-2.4937351207	 0.4918860838	-0.201686
C	 0.9054551302	-1.8272995511	 1.6439299129	-0.223213
C	-0.1535740959	-0.8258010135	 1.2015691764	-0.091504
H	 0.6993827506	 1.7346208729	 0.4998616268	 0.282571
H	-2.2140836143	-0.7172218626	 0.2623398382	 0.085488
H	-0.5478800045	-2.7969173048	-1.0654481638	 0.092269
H	-1.2550431088	-1.4974555526	-2.0402498555	 0.101289
H	 0.7917649708	-0.277644966	-2.0542425842	 0.073259
H	 2.3696533178	-2.1151996684	-1.5282222466	 0.091894
H	 2.6859309774	-0.7876764632	-0.4205250729	 0.086396
H	 1.133590552	-3.3687467614	 0.1351626012	 0.104947
H	 2.6375797195	-2.8786912217	 0.8745433078	 0.088573
H	 0.4591693711	-2.5997330286	 2.2822227344	 0.095995
H	 1.6131386348	-1.2821953973	 2.2846444574	 0.091411
H	-0.5942199077	-0.2676041535	 2.0263722995	 0.082005
152.3028	187.2621	256.5407	285.9164	325.624	380.5965	396.1144	473.0713	549.4686	627.3481	666.7189	694.2623	764.4869	810.0473	855.8671	869.932	904.4543	924.0311	947.5766	969.0474	1011.4074	1032.0795	1052.6218	1086.1972	1099.268	1120.8892	1150.3089	1159.7301	1203.5182	1212.7139	1233.0522	1239.5313	1281.0308	1304.3543	1315.5901	1330.917	1340.4998	1370.2093	1382.5188	1387.0133	1470.5571	1483.6822	1492.4577	1499.1753	1517.7983	3002.807	3005.753	3035.8963	3045.8159	3052.4345	3056.9097	3078.6046	3085.0082	3104.5647	3122.6877	3178.3594	3796.0754
OC12C3CC1CCCC23	O[C@@]12[C@H]3C[C@@H]1CCC[C@@H]23	
InChI=1S/C8H12O/c9-8-5-2-1-3-6(8)7(8)4-5/h5-7,9H,1-4H2	InChI=1S/C8H12O/c9-8-5-2-1-3-6(8)7(8)4-5/h5-7,9H,1-4H2/t5-,6+,7-,8-/m0/s1
