15
gdb 31376	3.1057	1.41373	0.97747	6.011	72.	-0.2257	-0.024	0.2017	1144.065	0.114808	-450.164679	-450.156685	-450.15574	-450.197831	28.774	
C	-0.0508852639	 1.3865075193	-0.0464275344	-0.239429
O	 0.0219027019	-0.0464328406	 0.0297617604	-0.269106
C	 0.6560344305	-0.5390227969	 1.0942031683	 0.531272
N	 1.1802985795	 0.1730518212	 2.0113460375	-0.369696
C	 1.8203370968	-0.4828651827	 3.0814362101	 0.353646
N	 2.3501413664	 0.2162606678	 4.0052159204	-0.510715
N	 1.8611355714	-1.9090663868	 3.1021808828	-0.289627
C	 1.3084372889	-2.5361340332	 2.1395182391	 0.088981
N	 0.6760847717	-1.9179396219	 1.0829565026	-0.374509
H	 0.9517522251	 1.8176844509	-0.0798689498	 0.15536
H	-0.5964354895	 1.5964454119	-0.9661042923	 0.136052
H	-0.5784742324	 1.7879066592	 0.8212102829	 0.155464
H	 2.7627008117	-0.4227704329	 4.6859027596	 0.218044
H	 1.3107079106	-3.6239619435	 2.10679252	 0.137742
H	 0.2441859013	-2.427843072	 0.3297676328	 0.27652
64.6039	136.0528	141.6577	213.1782	234.4351	380.644	439.867	503.4043	510.7533	573.8375	609.9649	728.4531	776.6782	792.5537	905.0217	919.3762	965.3514	1002.4059	1046.6132	1080.4997	1164.3344	1182.4856	1226.4095	1319.4846	1339.1096	1414.5834	1465.9182	1477.1453	1492.0061	1505.3409	1655.825	1709.8035	1755.398	3060.7241	3141.959	3154.6692	3166.7002	3483.7893	3653.8648
COC1=NC(=N)N=CN1	CO[C@H]1N=C([NH])N=CN1	
InChI=1S/C4H6N4O/c1-9-4-7-2-6-3(5)8-4/h2H,1H3,(H2,5,6,7,8)	InChI=1S/C4H7N4O/c1-9-4-7-2-6-3(5)8-4/h2,4-5H,1H3,(H,6,7,8)/t4-/m1/s1
