16
gdb 126644	5.95117	0.73789	0.68518	1.7063	70.26	-0.2723	-0.0679	0.2044	1616.7384	0.12205	-471.132045	-471.12329	-471.122346	-471.167372	30.227	
C	-0.1691039048	 1.4745193375	-0.0516908706	-0.382739
C	 1.0776417131	 0.681183519	 0.3455151542	-0.154503
C	 0.7312468702	-0.605150784	 1.1016049606	-0.158495
N	 1.9476054751	-1.2852756903	 1.535562854	-0.344711
C	 2.1479381688	-2.4754086988	 1.2489814021	 0.572264
O	 1.3662564153	-3.3736134582	 0.5435472664	-0.234848
N	 2.0660577929	-4.5785663074	 0.5061090527	 0.060284
N	 3.1371030652	-4.4620455007	 1.1076114419	 0.070259
O	 3.2762009815	-3.1795627281	 1.6104304376	-0.227722
H	-0.751435866	 1.7675834941	 0.8289388506	 0.117797
H	 0.1011860972	 2.3876330715	-0.5897112998	 0.119305
H	-0.8265126907	 0.8878049741	-0.7029186208	 0.117309
H	 1.6599355752	 0.4220742004	-0.5468619329	 0.101824
H	 1.7338249464	 1.2895352095	 0.9775572329	 0.114482
H	 0.1596250811	-0.3491947667	 2.0027822285	 0.118327
H	 0.0881605994	-1.2446713819	 0.4812139627	 0.111167
23.3797	80.1397	105.7103	174.4669	224.1094	236.8279	305.1793	377.2288	532.5938	635.9024	700.4483	737.8385	754.9143	760.1141	892.3605	897.4425	909.8173	980.4037	1043.3116	1048.191	1101.1474	1124.7402	1153.0744	1194.203	1274.3272	1319.8762	1336.0801	1402.4793	1414.5821	1488.6685	1498.68	1500.145	1514.2387	1569.7397	1862.3378	3003.9802	3030.9952	3035.2091	3045.7113	3074.1413	3100.4412	3108.4637
CCCN=C1ON=NO1	CCCN=c1onno1	
InChI=1S/C4H7N3O2/c1-2-3-5-4-8-6-7-9-4/h2-3H2,1H3	InChI=1S/C4H7N3O2/c1-2-3-5-4-8-6-7-9-4/h2-3H2,1H3
