16
gdb 14480	4.03814	2.29686	2.27482	1.4674	61.86	-0.2375	0.0862	0.3237	703.0686	0.132003	-383.737499	-383.731519	-383.730575	-383.767166	24.814	
C	-0.0484742852	 1.4484251546	 0.0837546511	-0.487839
C	 0.0364910443	-0.0452733049	-0.0206444698	 0.445225
C	 0.7212474827	-0.7360781302	-1.2287130928	-0.2551
C	 0.4650475111	-2.1459110854	-0.7229350199	-0.178523
C	 0.4805928371	-1.9924198349	 0.7950511214	 0.043046
O	 0.715329864	-0.6325041505	 1.0960586596	-0.278788
C	-0.8368032497	-2.0161619481	 0.0621792859	 0.043079
O	-1.2536154862	-0.6679964889	 0.0003414695	-0.278758
H	 0.9549726444	 1.8796790891	 0.0991828116	 0.133453
H	-0.5954817162	 1.8526406239	-0.77095102	 0.133344
H	-0.569044252	 1.7265914023	 1.0026834678	 0.142492
H	 0.2131241047	-0.5092310463	-2.1684322992	 0.110087
H	 1.7810541043	-0.4810827442	-1.2959351196	 0.110106
H	 0.7666822224	-3.0478474191	-1.2359960848	 0.096993
H	 0.8462394647	-2.7022811825	 1.5219145804	 0.110591
H	-1.6274025204	-2.746837225	 0.1458384489	 0.110591
178.8079	295.88	303.5406	447.5871	563.631	604.6664	641.4443	721.7398	744.1418	787.5396	798.0388	823.4299	827.2883	892.4367	968.3943	979.5293	1011.3285	1024.1474	1025.7001	1036.9212	1076.974	1081.3267	1119.9609	1160.6946	1181.8094	1211.6914	1282.8787	1303.354	1349.9959	1375.3586	1434.44	1478.034	1481.8175	1489.9316	3061.1292	3074.3292	3131.5089	3140.8654	3141.7068	3219.2988	3229.7028	3239.8033
CC12CC3C(O1)C3O2	C[C@@]12C[C@H]3[C@@H](O1)[C@H]3O2	
InChI=1S/C6H8O2/c1-6-2-3-4(7-6)5(3)8-6/h3-5H,2H2,1H3	InChI=1S/C6H8O2/c1-6-2-3-4(7-6)5(3)8-6/h3-5H,2H2,1H3/t3-,4+,5-,6+
