20
gdb 92038	2.23017	2.01723	1.46866	0.9886	77.28	-0.2147	0.0662	0.2809	978.2499	0.173751	-403.105223	-403.097766	-403.096822	-403.136545	31.081	
O	 0.0309790123	 1.4778617242	-0.1165286828	-0.42332
C	 0.008875762	 0.0513068558	-0.0235869183	 0.067481
C	 0.7925828163	-0.4782080243	 1.202130889	-0.172253
N	 0.1915646844	-0.3700594714	 2.5275712692	-0.105006
C	-0.5296444886	 0.8621028999	 2.8651166951	-0.27134
C	-1.2841201051	-0.394523042	 2.5916322004	-0.016693
C	-2.0983739866	-0.6289487695	 1.3499081757	-0.027238
C	-2.5593931879	 0.4714202338	 0.4289691291	-0.295471
C	-1.435921953	-0.4317026685	-0.0037162855	-0.035604
H	 0.9499188765	 1.7589311932	-0.0518460748	 0.280381
H	 0.4952319001	-0.3731171677	-0.9151643752	 0.07047
H	 0.987882988	-1.5445697699	 1.0264094654	 0.104709
H	 1.7735586135	 0.0156492607	 1.2396734466	 0.090776
H	-0.4076719663	 1.19505197	 3.8933767654	 0.105249
H	-0.5644980104	 1.6545467934	 2.1262191238	 0.133693
H	-1.650770778	-0.942599999	 3.4569563132	 0.085606
H	-2.7574352583	-1.4872807616	 1.4314824636	 0.081711
H	-3.5177835673	 0.3483151724	-0.0632247084	 0.108014
H	-2.3096931904	 1.494370529	 0.6790663931	 0.133708
H	-1.6694968312	-1.1666122083	-0.7658824346	 0.085125
164.2406	200.171	282.2826	321.7948	352.2145	366.8617	427.2225	486.7536	542.4831	611.8791	700.8444	727.659	751.96	827.3233	845.0038	874.0842	908.796	940.3287	973.936	987.6455	1010.3359	1063.0222	1070.0441	1076.8922	1109.4378	1128.1586	1137.8234	1143.365	1158.1447	1181.2235	1233.7562	1248.6716	1281.4634	1321.9167	1344.6406	1367.2255	1390.1623	1411.3694	1418.3352	1434.3078	1471.3524	1492.562	1513.3971	2972.3523	3005.9659	3042.8218	3106.5446	3118.0942	3144.1774	3152.6637	3165.6812	3211.1264	3238.4742	3808.9537
OC1CN2CC2C2CC12	O[C@H]1CN2C[C@H]2[C@H]2C[C@@H]12	
InChI=1S/C7H11NO/c9-7-3-8-2-6(8)4-1-5(4)7/h4-7,9H,1-3H2	InChI=1S/C7H11NO/c9-7-3-8-2-6(8)4-1-5(4)7/h4-7,9H,1-3H2/t4-,5+,6-,7-,8?/m0/s1
