17
gdb 6740	5.73193	0.91826	0.80323	0.1336	70.14	-0.2548	-0.015	0.2398	1420.1048	0.139285	-401.038814	-401.029475	-401.028531	-401.073908	31.696	
C	 0.4924452637	 1.0442309362	 0.4154412654	-0.40027
C	-0.3165201597	 0.0034979832	-0.363281312	-0.114394
N	 0.3934008679	-0.9744739938	-1.1748078844	-0.213074
C	 1.6443347896	-0.9570044077	-1.2288655436	 0.109667
O	 2.26514807	-1.9075685063	-2.0138925833	-0.220416
C	 3.6355825523	-1.8927612066	-2.0765455639	 0.436932
C	 4.1131755315	-2.9998790688	-2.9775153425	-0.482568
O	 4.327069966	-1.1046189738	-1.4911164271	-0.331202
H	 1.1668047973	 0.5775219411	 1.1410760254	 0.126031
H	 1.0913998745	 1.6760678126	-0.2487569818	 0.126031
H	-0.1895149224	 1.6969535934	 0.9683633038	 0.118257
H	-0.9465159543	-0.5678123157	 0.3308435452	 0.119745
H	-1.02061748	 0.5117005362	-1.0349034666	 0.119745
H	 2.3460548026	-0.2862480991	-0.7367558134	 0.136131
H	 5.2010699364	-2.9858065068	-3.0256522828	 0.151376
H	 3.7640390748	-3.9643833291	-2.5979702144	 0.159005
H	 3.6888738897	-2.8740290548	-3.977689214	 0.159003
46.1196	87.1411	96.8415	118.2429	178.0772	255.4421	258.1487	340.695	385.4302	435.5334	579.8601	595.9533	644.5209	778.5711	865.34	958.8402	993.4848	1002.7061	1063.9635	1080.0601	1089.351	1147.3405	1167.322	1234.9331	1313.4621	1367.9646	1382.818	1397.0969	1411.707	1466.642	1473.2279	1479.0352	1495.832	1505.7204	1777.4788	1842.5556	3022.2029	3034.7943	3043.1132	3057.9541	3104.36	3109.6758	3122.9844	3154.349	3172.2594
CCN=COC(C)=O	CCN=COC(=O)C	
InChI=1S/C5H9NO2/c1-3-6-4-8-5(2)7/h4H,3H2,1-2H3	InChI=1S/C5H9NO2/c1-3-6-4-8-5(2)7/h4H,3H2,1-2H3
