18
gdb 82366	2.76389	1.47604	1.07501	3.9362	72.62	-0.2438	0.0245	0.2683	1117.3917	0.148084	-439.101749	-439.093557	-439.092613	-439.134973	30.461	
C	 0.3041246869	 1.6195370531	-0.1111592338	-0.398203
C	 0.0831569402	 0.1124364871	 0.0441964301	-0.000432
C	 0.5959691387	-0.6783220219	-1.1478425639	 0.031076
O	 2.0107472968	-0.5650130844	-1.3290289772	-0.252429
C	 1.4949576045	-1.7396411147	-0.689158574	 0.021348
C	 1.5881934649	-1.6904747157	 0.81610943	-0.182478
N	 0.8393868068	-0.4792549857	 1.1648331607	-0.065433
C	 0.7489180387	-0.0860112041	 2.4595762595	 0.144147
O	 1.3038822139	-0.6452217436	 3.3851308969	-0.342575
H	 1.3645071147	 1.8223086182	-0.2778008038	 0.147521
H	-0.2658914558	 1.9932194187	-0.9680043157	 0.12151
H	-0.0271072189	 2.1701407429	 0.7726436576	 0.127045
H	-0.9918881243	-0.0951254995	 0.1551205536	 0.091777
H	-0.0006414506	-0.7331365361	-2.0541669985	 0.106537
H	 1.6428048316	-2.6752953131	-1.2197740488	 0.110422
H	 1.1353663197	-2.5827541426	 1.2676579712	 0.123261
H	 2.6175190232	-1.6218067287	 1.1805435198	 0.143387
H	 0.1077307291	 0.8062573503	 2.5930984764	 0.073519
52.1231	137.2587	210.1844	229.378	245.7788	324.701	363.7437	376.9633	499.8653	573.7972	677.012	745.9563	817.0306	857.9304	865.0416	898.2065	962.5256	1006.6092	1025.9466	1033.4183	1043.8146	1107.5542	1118.5115	1133.406	1201.974	1223.6068	1259.9281	1317.1866	1323.9038	1352.5525	1365.4932	1395.0043	1406.1202	1438.0393	1453.9696	1495.3751	1497.5988	1504.288	1785.4253	2947.5101	2989.0022	3028.7553	3046.2067	3084.4538	3114.979	3138.7407	3154.8526	3169.6483
CC1C2OC2CN1C=O	C[C@H]1[C@H]2O[C@H]2CN1C=O	
InChI=1S/C6H9NO2/c1-4-6-5(9-6)2-7(4)3-8/h3-6H,2H2,1H3	InChI=1S/C6H9NO2/c1-4-6-5(9-6)2-7(4)3-8/h3-6H,2H2,1H3/t4-,5-,6+/m0/s1
