20
gdb 110268	3.03637	1.25627	1.02774	1.7289	76.81	-0.2178	0.0733	0.2911	1231.5403	0.169917	-440.187347	-440.178415	-440.17747	-440.220831	33.947	
C	-0.375498694	 1.4452862728	 0.4709141975	-0.250021
O	 0.0017155591	 0.1495722202	 0.0370183351	-0.272577
C	 0.6411956324	-0.6007405894	 1.0377808213	 0.178083
C	-0.1881913304	-1.4551564954	 2.0572599952	-0.144694
C	-0.588756103	-2.4062531832	 0.8691385722	 0.17246
O	-1.527501866	-2.0645428966	-0.0977059591	-0.45189
C	 0.9439103219	-2.086633092	 0.7239916941	-0.150986
N	 1.1086242714	-2.2143452301	 2.2245241827	-0.10288
C	 1.0995988197	-3.5366620771	 2.8451855216	-0.327703
H	 0.4969791597	 2.0065935944	 0.8332650398	 0.120731
H	-0.8012099012	 1.9634157709	-0.390738226	 0.135125
H	-1.1242845137	 1.4032543378	 1.2736460714	 0.120487
H	 1.4730600229	-0.0492248418	 1.4898594051	 0.086973
H	-0.7720918331	-1.1216857871	 2.9175365549	 0.074974
H	-0.8131074816	-3.4294794137	 1.1657623367	 0.084105
H	-1.3000413025	-1.1756234169	-0.4052336287	 0.290127
H	 1.6814282307	-2.4850796909	 0.0247452123	 0.080495
H	 2.0722382203	-4.0047211718	 2.6616804373	 0.124651
H	 0.9980610255	-3.4019351337	 3.9270395131	 0.124069
H	 0.3209643318	-4.2408654364	 2.5202166036	 0.108471
83.863	156.7468	158.6598	179.0176	262.0108	278.7299	308.5427	351.5308	414.6689	471.959	550.9954	611.8228	633.203	738.1836	752.8924	853.1981	872.3827	928.1851	962.4148	1006.1441	1037.2742	1102.3336	1105.5333	1117.1386	1124.0875	1162.2197	1167.6483	1184.4914	1198.9824	1209.2233	1235.0644	1240.3016	1261.4434	1280.4172	1323.7732	1389.2593	1444.2795	1476.2806	1484.7205	1488.99	1502.2273	1506.7249	1519.839	2996.2932	2997.0934	3051.5798	3052.9548	3066.9836	3095.0353	3099.1203	3102.7843	3127.6273	3133.4289	3724.8258
COC1C2C(O)C1N2C	CO[C@H]1[C@H]2[C@@H](O)[C@@H]1N2C	
InChI=1S/C6H11NO2/c1-7-3-5(8)4(7)6(3)9-2/h3-6,8H,1-2H3	InChI=1S/C6H11NO2/c1-7-3-5(8)4(7)6(3)9-2/h3-6,8H,1-2H3/t3-,4+,5-,6+
