21
gdb 89073	4.32793	0.73594	0.68516	2.4984	80.08	-0.2353	0.0828	0.3182	1697.9162	0.181144	-424.176609	-424.167112	-424.166168	-424.212101	35.214	
O	-0.118889553	 1.4014575551	 0.209509035	-0.433368
C	-0.0280270628	 0.0173726351	 0.0898293265	 0.124265
C	-0.7470070886	-0.8751297598	 1.0823854983	-0.351397
C	-1.2509369526	-0.7334514308	-0.3434675234	 0.065396
O	-2.3452565125	 0.0953537492	-0.5870257794	-0.268944
C	-3.6081143709	-0.486644054	-0.2733466059	-0.071137
C	-4.6857638754	 0.5375730685	-0.4867967829	 0.006452
C	-5.2169569066	 0.7918076535	-1.8737487767	-0.247598
C	-6.0755560247	 0.0825788147	-0.8582984182	-0.271454
H	-1.0151302481	 1.6338201326	-0.0693431721	 0.292608
H	 0.9403701835	-0.3019342085	-0.2839536337	 0.099352
H	-0.2928464721	-1.8131748424	 1.3838091162	 0.111376
H	-1.3128680989	-0.3634290103	 1.8537572245	 0.120052
H	-1.1637339392	-1.5823240806	-1.0218326953	 0.088041
H	-3.782067717	-1.3614545678	-0.9204269615	 0.087201
H	-3.6008796394	-0.8436104686	 0.7671052992	 0.09841
H	-4.6167075711	 1.3984847777	 0.1720076005	 0.089468
H	-5.4725228599	 1.8095643808	-2.1455412384	 0.11561
H	-4.8008537377	 0.2060535159	-2.6865351652	 0.116301
H	-6.244620191	-0.9813604159	-0.9888928865	 0.113278
H	-6.9171137519	 0.6136564358	-0.428475061	 0.116087
47.4406	58.3778	95.6808	146.4516	221.0328	270.9542	340.2351	381.8788	401.5038	426.1586	503.6286	639.503	754.7626	774.8255	808.5725	818.0291	841.8431	902.2039	931.2847	951.426	996.8445	1012.3605	1038.89	1057.5186	1064.9315	1077.6928	1086.0495	1116.2319	1134.7376	1137.3487	1181.169	1196.2287	1202.0918	1228.3253	1241.3001	1281.2699	1348.7459	1352.586	1391.1328	1426.056	1448.9724	1471.4985	1479.0974	1505.1938	1518.0901	2974.0338	3015.1947	3097.3367	3129.365	3133.0687	3138.2046	3150.3571	3151.9806	3211.7685	3223.4629	3226.878	3751.2095
OC1CC1OCC1CC1	O[C@H]1C[C@H]1OCC1CC1	
InChI=1S/C7H12O2/c8-6-3-7(6)9-4-5-1-2-5/h5-8H,1-4H2	InChI=1S/C7H12O2/c8-6-3-7(6)9-4-5-1-2-5/h5-8H,1-4H2/t6-,7+/m0/s1
