18
gdb 93435	2.86862	1.35373	0.95697	3.0709	73.64	-0.2595	-0.0244	0.2351	1202.9225	0.149164	-439.182373	-439.174053	-439.173109	-439.21554	31.316	
C	-0.0810492053	 1.5750436247	-0.001124649	-0.397646
C	 0.0555981695	 0.0511997253	-0.0079499338	-0.103359
C	 0.7495538364	-0.4962990462	-1.2634766405	-0.228665
C	 0.8650766327	-2.0212543835	-1.2091328449	-0.329511
C	 1.5237762965	-2.5167239552	 0.064871346	 0.414856
O	 2.1196380082	-3.5639809264	 0.1608474416	-0.338749
N	 1.3875106348	-1.6738477079	 1.1670807673	-0.3659
C	 0.754310571	-0.4349171462	 1.2597783011	 0.431195
O	 0.7653554333	 0.1752513568	 2.3044466109	-0.344399
H	 0.8993725071	 2.0554133637	-0.0821074553	 0.125172
H	-0.6934351708	 1.9051946893	-0.845098774	 0.113005
H	-0.5415066161	 1.9153663224	 0.9275165775	 0.144951
H	-0.9527615251	-0.3902136419	 0.0366356222	 0.111253
H	 0.1910477958	-0.1935987847	-2.1544271107	 0.113385
H	 1.7478990996	-0.0493660764	-1.3514195647	 0.11596
H	-0.1333907919	-2.4776310461	-1.2520168869	 0.136699
H	 1.4331798217	-2.4313852043	-2.0466927277	 0.139104
H	 1.8273254627	-1.9990261235	 2.020580651	 0.262648
68.5148	126.1666	200.5076	210.6561	283.6962	348.0126	373.3104	414.921	478.7324	547.9915	590.933	657.8783	716.1645	737.0253	774.3035	838.8843	889.4268	950.3303	958.4358	1032.2593	1076.1798	1118.8503	1136.6316	1198.5274	1211.0046	1263.3482	1313.4464	1321.8938	1357.2169	1364.4258	1382.9126	1412.4956	1414.2378	1463.8804	1490.7694	1497.3563	1502.5776	1804.9825	1820.6779	2988.1474	3026.8986	3036.2484	3046.8061	3084.1984	3112.1346	3114.191	3143.5589	3573.6319
CC1CCC(=O)NC1=O	C[C@H]1CCC(=O)NC1=O	
InChI=1S/C6H9NO2/c1-4-2-3-5(8)7-6(4)9/h4H,2-3H2,1H3,(H,7,8,9)	InChI=1S/C6H9NO2/c1-4-2-3-5(8)7-6(4)9/h4H,2-3H2,1H3,(H,7,8,9)/t4-/m0/s1
