19
gdb 95091	2.42362	1.57447	1.15679	3.3469	80.23	-0.2576	0.0174	0.2751	1112.7279	0.161354	-382.084978	-382.076767	-382.075823	-382.117534	31.805	
C	 0.0087216438	 1.5724203401	 0.0200426786	-0.41334
C	 0.026938455	 0.0446294063	 0.0110495438	-0.03047
C	 0.7911467072	-0.5744269195	-1.1879948848	-0.236208
C	 1.3016083981	-1.9535241948	-0.7111598656	-0.222181
C	 1.5139073807	-1.7733328953	 0.7802124322	-0.081031
N	 2.211501556	-0.5243765755	 1.1257112651	-0.36645
C	 0.7269957619	-0.5800175064	 1.2205316509	 0.217399
C	 0.1121377905	-0.519580716	 2.5161620179	 0.197032
N	-0.3892659812	-0.4482734058	 3.5570229717	-0.345951
H	 1.0288866061	 1.9641939481	 0.0783830644	 0.13336
H	-0.4548191682	 1.9596678838	-0.8925879308	 0.117896
H	-0.5569832536	 1.9594319914	 0.8734374301	 0.129084
H	-1.0046434445	-0.3309246988	 0.0168322296	 0.088882
H	 0.1590683046	-0.6467377277	-2.0762861537	 0.103354
H	 1.6407911369	 0.0655588841	-1.4373604542	 0.125636
H	 0.5479606778	-2.7341732062	-0.8663174674	 0.110223
H	 2.2137119462	-2.265042196	-1.2289264299	 0.114221
H	 1.6279513676	-2.6327542821	 1.4327280381	 0.109489
H	 2.6105065753	-0.6001954297	 2.0587177039	 0.249054
114.8837	145.2291	179.3059	238.2384	259.5906	325.0555	393.868	476.506	487.9225	568.5105	598.2466	639.6287	656.9442	827.3147	843.9273	862.0672	915.2616	925.6255	961.7824	999.5261	1031.8767	1048.2262	1085.6945	1124.1304	1137.7083	1143.7015	1209.9044	1241.1272	1277.9163	1278.6828	1318.9612	1343.258	1353.5775	1372.9297	1410.2874	1421.8755	1481.3567	1494.1749	1498.486	1504.5129	2345.2711	3024.5638	3037.441	3043.6599	3070.5895	3089.398	3106.8109	3113.4304	3118.9892	3172.3206	3505.9763
CC1CCC2NC12C#N	C[C@H]1CC[C@H]2N[C@@]12C#N	
InChI=1S/C7H10N2/c1-5-2-3-6-7(5,4-8)9-6/h5-6,9H,2-3H2,1H3	InChI=1S/C7H10N2/c1-5-2-3-6-7(5,4-8)9-6/h5-6,9H,2-3H2,1H3/t5-,6+,7-/m0/s1
