16
gdb 127678	2.5226	1.87429	1.08256	4.4314	78.15	-0.2051	-0.0246	0.1805	1059.7763	0.126835	-430.255587	-430.2475	-430.246556	-430.288405	30.125	
C	-0.3763581941	 1.3569167402	-0.0188315081	-0.307944
N	 0.0040676373	-0.0466160763	-0.0185583662	-0.071017
N	 0.0439906422	-0.6544306127	-1.2409144556	-0.23705
C	 0.3758281774	-1.889893755	-1.2703253486	 0.09094
N	 0.692545715	-2.635796848	-0.15138499	-0.395174
C	 0.6791787412	-2.1064958546	 1.1274021318	 0.34105
N	 0.9546330442	-2.7161270409	 2.2123573402	-0.527577
C	 0.2926025074	-0.654594267	 1.191529316	 0.363851
N	 0.223120751	 0.0120211899	 2.2779673579	-0.538746
H	 0.4215631808	 1.967415259	 0.4140060831	 0.145535
H	-0.5602507522	 1.6428133186	-1.0529619037	 0.13987
H	-1.273674283	 1.507826345	 0.5884346046	 0.145576
H	 0.4162669785	-2.3983334245	-2.2247618828	 0.141834
H	 0.9428600572	-3.6067758814	-0.265636535	 0.255916
H	 1.2038159806	-3.6937297863	 2.0597390663	 0.210242
H	 0.4704344864	-0.6111215261	 3.04749421	 0.242695
84.1699	127.78	153.1079	194.3354	332.8597	374.074	454.5302	509.7922	531.9384	532.6854	556.1307	603.3798	709.9031	771.2709	832.8246	842.782	885.642	899.3141	964.3426	1050.0982	1090.7469	1153.9794	1160.6669	1237.3	1293.6681	1325.8313	1405.6469	1434.8504	1463.8594	1470.9055	1476.8613	1509.3868	1680.3614	1708.0988	1729.7084	3048.0131	3104.4686	3172.9502	3222.3151	3474.7732	3487.061	3611.602
CN1N=CNC(=N)C1=N	Cn1nc[nH]c([NH])c1[NH]	
InChI=1S/C4H7N5/c1-9-4(6)3(5)7-2-8-9/h2,6H,1H3,(H2,5,7,8)	InChI=1S/C4H7N5/c1-9-4(6)3(5)7-2-8-9/h2,6H,1H3,(H2,5,7,8)
