18
gdb 37476	2.97756	1.77954	1.47616	1.3305	69.86	-0.2363	0.0737	0.31	930.1207	0.150688	-439.027857	-439.02107	-439.020126	-439.058964	27.371	
C	 0.0892970068	 1.4637102343	 0.0532028472	-0.247839
C	 1.330832426	 0.675658138	-0.0479856679	-0.042477
C	 1.7012678391	 0.0845297036	 1.3083164386	 0.074781
O	 1.9585733263	 1.0481006087	 2.3189751728	-0.258092
C	 1.1531640703	 0.8865834476	 3.4597954456	 0.010427
O	-0.216383588	 0.9169953957	 3.1600641602	-0.226511
C	-0.6142930422	-0.2723877406	 2.4785968908	-0.120657
C	 0.2931345478	-0.5871633093	 1.2935946984	-0.009638
N	-0.0357446002	-0.0039067471	-0.0563651527	-0.149309
H	-0.1600535724	 1.9619497062	 0.9837860327	 0.144973
H	-0.2453961888	 1.9661229699	-0.848901478	 0.121474
H	 1.9700367529	 0.6816046465	-0.9237813759	 0.097143
H	 2.5278298845	-0.6331106477	 1.2675921962	 0.085189
H	 1.3981926734	-0.0578154437	 3.981344383	 0.077996
H	 1.364399096	 1.7384789763	 4.1085149982	 0.121859
H	-0.599189906	-1.114465117	 3.1887421936	 0.100736
H	-1.6456936566	-0.1203016713	 2.1476114695	 0.12813
H	 0.3691152209	-1.6691404602	 1.1631221777	 0.091816
139.019	156.6727	290.6071	358.7062	425.4786	455.6901	543.3079	577.7538	683.9775	745.246	767.307	815.0213	838.9682	900.9363	944.1328	964.9589	1003.8205	1012.5961	1034.4074	1063.3557	1088.8556	1109.9038	1123.6971	1157.0988	1170.9064	1197.5838	1217.6161	1250.8408	1283.422	1295.2729	1329.67	1358.3865	1359.626	1370.5192	1399.5569	1441.6666	1485.5347	1503.1495	1514.1234	2925.4913	2980.0379	3042.0562	3080.5369	3091.0223	3116.9493	3130.2979	3175.8768	3222.6658
C1C2C3OCOCC3N12	C1[C@H]2[C@H]3OCOC[C@H]3N12	
InChI=1S/C6H9NO2/c1-4-6-5(7(1)4)2-8-3-9-6/h4-6H,1-3H2	InChI=1S/C6H9NO2/c1-4-6-5(7(1)4)2-8-3-9-6/h4-6H,1-3H2/t4-,5+,6+,7?/m0/s1
