17
gdb 54919	4.95071	0.86444	0.80446	5.1281	73.81	-0.2554	-0.0368	0.2186	1404.744	0.135245	-418.016859	-418.00776	-418.006815	-418.051766	31.94	
C	-0.1950748992	 1.5362962671	 0.2068368243	-0.482749
C	 0.0325351515	 0.0475330645	 0.0561798933	 0.374082
O	 1.1346705889	-0.4541238421	 0.0737167831	-0.303799
C	-1.2128095933	-0.8190383347	-0.1113733645	-0.071001
C	-1.6983676292	-0.9058891489	-1.5920074561	-0.267415
C	-1.0301910104	-2.3121318042	-1.6011120529	-0.108594
N	-0.9474604095	-2.2687685987	-0.1194283515	-0.307022
C	-1.8123404582	-3.4209640214	-2.1482719604	 0.296178
N	-2.4342752202	-4.2831628018	-2.601251725	-0.319414
H	 0.7481066158	 2.0734516332	 0.102835041	 0.152011
H	-0.9240971941	 1.9039278426	-0.5227822303	 0.141697
H	-0.6129914865	 1.7363952734	 1.2007979433	 0.154711
H	-1.9754618812	-0.5055271455	 0.6116629066	 0.100143
H	-2.7831535766	-0.9471120606	-1.6830373032	 0.14369
H	-1.2952723695	-0.1803278635	-2.299043137	 0.127609
H	-0.054576467	-2.2950668671	-2.1013214629	 0.130447
H	-0.0174935013	-2.4875694423	 0.2295250622	 0.239426
58.5063	70.1005	100.9811	128.7731	205.099	240.7365	306.8334	366.7269	529.8394	550.6212	579.558	601.7037	681.1963	756.6354	804.9559	907.135	946.037	961.9499	988.0206	1013.2807	1058.1201	1076.7241	1119.8302	1140.574	1198.9753	1227.2896	1254.5635	1285.7009	1332.0772	1354.7798	1383.6622	1432.2705	1461.8316	1473.5257	1485.6045	1803.2404	2359.0355	3031.6262	3037.4472	3039.4687	3093.4304	3098.8076	3155.4922	3156.6092	3506.5093
CC(=O)C1CC(N1)C#N	CC(=O)[C@H]1C[C@@H](N1)C#N	
InChI=1S/C6H8N2O/c1-4(9)6-2-5(3-7)8-6/h5-6,8H,2H2,1H3	InChI=1S/C6H8N2O/c1-4(9)6-2-5(3-7)8-6/h5-6,8H,2H2,1H3/t5-,6-/m1/s1
