18
gdb 110334	2.26382	1.44216	1.31357	2.5924	71.62	-0.2399	-0.0175	0.2224	1094.8654	0.146425	-439.060461	-439.05154	-439.050596	-439.094196	32.791	
C	-0.3594935804	 1.3550656258	-0.2155774499	-0.381151
C	 0.2393704739	-0.0086539036	 0.1500713662	-0.219429
C	 0.9131453274	-0.6680417012	-1.0356021173	 0.013143
C	 0.993568643	-2.1096743723	-1.3249014376	-0.077112
C	-0.2406514002	-2.9021813261	-0.9204924178	-0.010675
O	-0.4445122383	-3.1205321287	 0.4513032252	-0.41815
C	-1.037355775	-1.8108572603	-1.6752624998	 0.350658
O	-2.1906334075	-1.5598029884	-1.8452012107	-0.309106
N	 0.1413749782	-1.1758925149	-2.2264565574	-0.199162
H	 0.402866991	 2.0277029539	-0.6231921475	 0.116027
H	-1.1463756721	 1.245414516	-0.967462057	 0.145615
H	-0.7944183739	 1.8354585489	 0.665368857	 0.117187
H	 1.0016254242	 0.1111926998	 0.9302247355	 0.10634
H	-0.5247173941	-0.6652646648	 0.5726486434	 0.130006
H	 1.7730365181	-0.1089784379	-1.4021683268	 0.112125
H	 1.889085086	-2.5640329956	-1.7319284483	 0.112495
H	-0.2901969011	-3.837752055	-1.4987051518	 0.112023
H	-1.3125208393	-3.5251151256	 0.5609052847	 0.299166
75.9616	118.3977	168.4156	180.7155	216.5519	241.4258	283.5721	366.1424	447.4365	521.5978	585.5943	645.0267	693.2638	756.1507	791.9251	834.3368	877.9422	904.5195	951.6247	1013.7396	1027.7997	1073.0298	1080.4053	1118.2939	1158.2189	1180.3868	1189.6894	1260.8246	1292.5253	1295.8619	1339.7209	1364.1314	1414.553	1426.7952	1449.2919	1488.747	1500.0937	1509.6726	1908.9161	2993.8322	3036.4322	3038.896	3094.5255	3111.1679	3119.8946	3127.2393	3190.2199	3807.4394
CCC1C2C(O)C(=O)N12	CC[C@H]1[C@H]2[C@@H](O)C(=O)N12	
InChI=1S/C6H9NO2/c1-2-3-4-5(8)6(9)7(3)4/h3-5,8H,2H2,1H3	InChI=1S/C6H9NO2/c1-2-3-4-5(8)6(9)7(3)4/h3-5,8H,2H2,1H3/t3-,4-,5+,7?/m0/s1
