25
gdb 122005	2.38246	0.67915	0.5525	1.7348	87.26	-0.2546	0.0736	0.3283	2116.0195	0.22581	-426.627636	-426.615707	-426.614763	-426.666053	41.795	
C	-0.8996107175	 0.861538273	 0.6923465757	-0.382106
C	-0.0198952776	-0.2647103997	 0.1438933202	-0.162904
C	 0.7058415529	-1.0473940836	 1.2425331858	-0.179148
C	 1.6424826742	-2.1303964601	 0.7037131342	 0.089011
O	 2.6776560233	-1.5963389829	-0.1178988423	-0.432001
C	 2.2637074907	-2.9795260656	 1.8156857874	-0.075622
O	 1.2385981089	-3.6372512461	 2.5236098992	-0.244265
C	 1.7135132541	-4.461635709	 3.5687711905	-0.022845
C	 0.5241138906	-5.1157503366	 4.2508000409	-0.385714
H	-0.3051851127	 1.5931661037	 1.2516563317	 0.109516
H	-1.4115671748	 1.3971258436	-0.1133451563	 0.110854
H	-1.6652881586	 0.4724671396	 1.3729924714	 0.112913
H	-0.6358666092	-0.9596195796	-0.4419865919	 0.095352
H	 0.7216129119	 0.1426690148	-0.5523312043	 0.104081
H	 1.2956549078	-0.3545848938	 1.8649433111	 0.073184
H	-0.0151935552	-1.5228376792	 1.9168426265	 0.115163
H	 1.0771572439	-2.8007703373	 0.044938178	 0.09564
H	 3.1436624776	-0.9290248043	 0.3985792427	 0.277103
H	 2.9625078342	-3.7018916685	 1.364795391	 0.093902
H	 2.8525627567	-2.3322809622	 2.4932822395	 0.068181
H	 2.3984362924	-5.2266062712	 3.165489565	 0.087062
H	 2.2932565073	-3.8617610352	 4.2910733405	 0.084689
H	-0.0418825789	-5.7212371935	 3.537234569	 0.127373
H	 0.8605813355	-5.7631107075	 5.0661245547	 0.11485
H	-0.1466683476	-4.3569451887	 4.6637695099	 0.125732
52.4299	70.0401	74.122	88.6348	137.12	156.9224	185.2887	244.9333	248.339	279.3532	301.5658	336.1817	359.7128	457.8612	516.7377	539.402	748.7805	821.8718	842.5442	875.8582	898.5653	931.2008	999.8899	1040.655	1047.983	1071.1173	1094.5099	1126.38	1148.7166	1159.5739	1173.9073	1190.229	1236.6696	1242.9915	1293.3881	1297.8679	1305.019	1333.1658	1364.0402	1385.0146	1398.779	1405.1081	1413.1924	1415.9558	1447.8961	1482.3409	1483.9468	1494.6018	1499.3322	1499.6258	1511.6168	1511.7052	1535.7876	2925.065	2955.3072	2978.7361	2980.3652	2993.0032	3023.178	3027.2469	3044.8156	3047.6555	3058.5263	3076.635	3095.1329	3100.1246	3119.1407	3121.416	3794.1173
CCCC(O)COCC	CCC[C@@H](O)COCC	
InChI=1S/C7H16O2/c1-3-5-7(8)6-9-4-2/h7-8H,3-6H2,1-2H3	InChI=1S/C7H16O2/c1-3-5-7(8)6-9-4-2/h7-8H,3-6H2,1-2H3/t7-/m1/s1
