20
gdb 85612	1.99242	1.87473	1.14814	2.5874	81.81	-0.2495	0.0097	0.2591	1129.6488	0.171992	-403.162245	-403.153488	-403.152544	-403.196564	32.994	
C	-0.4861440416	 1.4208568507	-0.0733968768	-0.39229
C	 0.0201419836	-0.0295225168	-0.0260705885	 0.060768
O	 0.6520449269	-0.3720643728	-1.2707998589	-0.267115
C	 1.8831622429	 0.1333300888	-1.6178112057	 0.348781
N	 2.0379831216	 0.9357563523	-2.5854013231	-0.475706
C	 3.0604211146	-0.4486495184	-0.8821123947	-0.243261
C	 3.2336509472	 0.0635943515	 0.5569039211	-0.267468
C	 2.0986811556	-0.2239681704	 1.5018962141	-0.070898
C	 0.7921955736	-0.2829176244	 1.2457529534	-0.052737
H	 0.3530656171	 2.1199281222	-0.1350642095	 0.13206
H	-1.1320002774	 1.5663993645	-0.9439305831	 0.122789
H	-1.0576039941	 1.6560499623	 0.8294050995	 0.120495
H	-0.8499232019	-0.6951331378	-0.0178538504	 0.099895
H	 1.1238438313	 1.1892677191	-2.9674563899	 0.216595
H	 2.9376268284	-1.5373381104	-0.8594399296	 0.118486
H	 3.9559738966	-0.2103913815	-1.4590958851	 0.126071
H	 4.1497970473	-0.3784628668	 0.9639223672	 0.109535
H	 3.418598874	 1.147321992	 0.5299550986	 0.127906
H	 2.398067675	-0.3845187876	 2.5359231744	 0.09277
H	 0.1293090294	-0.4764707765	 2.0880191669	 0.093325
29.2206	82.797	154.2578	243.9532	256.4391	317.6772	361.1811	436.3666	452.8602	534.4545	547.2996	673.4838	713.7998	763.1256	786.1423	830.2751	853.7165	933.3107	954.9616	972.3328	1007.2381	1012.79	1043.9349	1072.0166	1099.5498	1107.8788	1161.9599	1195.4906	1249.0531	1288.7087	1316.4433	1334.9549	1356.1089	1392.1194	1401.6237	1420.7956	1431.4395	1472.9979	1481.4422	1486.6616	1494.6652	1735.2785	1739.4577	3007.4545	3040.8269	3046.0305	3046.4123	3062.1793	3117.503	3119.6059	3121.8795	3126.4659	3150.6338	3456.3089
CC1OC(=N)CCC=C1	C[C@H]1O[C]([NH])CCC=C1	
InChI=1S/C7H11NO/c1-6-4-2-3-5-7(8)9-6/h2,4,6,8H,3,5H2,1H3	InChI=1S/C7H11NO/c1-6-4-2-3-5-7(8)9-6/h2,4,6,8H,3,5H2,1H3/t6-/m1/s1
