23
gdb 87485	2.8723	1.35	1.11131	0.0235	91.04	-0.254	0.095	0.349	1224.4894	0.20576	-351.090933	-351.082127	-351.081183	-351.123817	35.212	
C	-0.1326316073	 1.5772569528	 0.0062170157	-0.403863
C	-0.0484989809	 0.0654223032	 0.0187564327	-0.121049
C	 1.27726571	-0.6247835276	-0.2952944572	-0.404809
C	 0.7019084557	-0.666992386	 1.0811520039	 0.470724
C	 1.2056690302	-0.2236525997	 2.4728004357	-0.143836
C	-0.1855713604	-0.686591691	 3.0059731733	-0.222805
C	 0.2784845062	-1.8095416477	 2.0277498504	-0.147263
C	 1.6859698181	-1.698260402	 2.7104469389	 0.065827
C	 2.9444459144	-2.2533688667	 2.0634564197	-0.442608
H	 0.7813774113	 2.024510108	 0.410988392	 0.112317
H	-0.2665492821	 1.9610091343	-1.0115939949	 0.113945
H	-0.9720378561	 1.938620871	 0.6111440688	 0.114886
H	-0.9312054446	-0.4366784707	-0.3737938169	 0.079062
H	 1.2576186346	-1.5236173741	-0.9049089836	 0.106961
H	 2.1374290039	 0.013460414	-0.4811054143	 0.106575
H	 1.7393056028	 0.6938768265	 2.7282638186	 0.065321
H	-0.235134242	-0.9550194581	 4.0651481867	 0.084021
H	-1.0491011281	-0.0958859097	 2.6941884655	 0.092122
H	-0.2612386509	-2.7216575533	 1.7644688283	 0.064243
H	 1.6590163464	-1.9783247707	 3.7707599637	 0.056735
H	 3.0234080972	-2.000006996	 1.0054036731	 0.130123
H	 3.8366546575	-1.8682747289	 2.570525819	 0.11156
H	 2.9690099341	-3.3456452577	 2.1517275407	 0.11181
128.9449	147.9735	177.6167	207.6671	230.6295	300.8361	318.5449	395.1354	425.1016	493.0896	591.9068	643.1182	761.817	783.6026	794.0654	828.2166	868.143	890.5062	893.577	954.5859	987.1286	1017.9107	1019.1425	1035.656	1048.8168	1064.7958	1087.0557	1095.0252	1123.1403	1131.7181	1143.2227	1156.7078	1171.1463	1183.471	1199.2981	1224.6713	1249.7824	1256.948	1342.2792	1403.6802	1412.7167	1420.6605	1436.3524	1492.9856	1493.3103	1496.6788	1500.3691	1507.8031	1522.4619	3022.7626	3023.6371	3034.0499	3051.6961	3083.3573	3083.6573	3088.6481	3091.5535	3095.8598	3108.9137	3119.8434	3124.5321	3139.4151	3190.1599
CC1CC11C2CC1C2C	C[C@H]1C[C@]21[C@H]1C[C@@H]2[C@H]1C	
InChI=1S/C9H14/c1-5-4-9(5)7-3-8(9)6(7)2/h5-8H,3-4H2,1-2H3	InChI=1S/C9H14/c1-5-4-9(5)7-3-8(9)6(7)2/h5-8H,3-4H2,1-2H3/t5-,6-,7-,8+,9-/m0/s1
