15
gdb 15539	3.01749	2.13209	1.46277	2.773	65.58	-0.2477	-0.0028	0.2449	854.4623	0.120609	-358.86797	-358.860597	-358.859652	-358.899786	26.928	
C	-0.2181821899	 1.5613665624	-0.073196977	-0.398931
C	 0.0811971108	 0.0681527785	-0.0597351206	 0.040361
N	 0.9981224659	-0.3279227709	-1.1421414378	-0.236372
C	 1.8305794293	-1.1481769166	-0.6401330947	 0.064059
N	 1.6729125254	-1.4861473692	 0.7025516108	-0.29891
C	 0.7470270023	-0.4908440015	 1.2624824357	-0.153298
C	 1.4590826693	 0.5216292185	 2.0586798202	 0.276772
N	 2.0367596711	 1.2928080566	 2.6975265723	-0.324706
H	 0.6956660267	 2.1461428992	 0.0598790409	 0.14346
H	-0.6611789957	 1.8304156504	-1.0349466138	 0.135038
H	-0.9206008155	 1.8318180178	 0.7213315192	 0.120521
H	-0.8561129362	-0.4861055179	-0.2011602738	 0.103364
H	 2.6189083404	-1.6337871383	-1.2078021244	 0.135994
H	 2.4961964113	-1.7192394414	 1.2405731184	 0.256971
H	 0.0026838848	-0.9627014876	 1.9093258546	 0.135677
75.4507	151.4686	215.173	227.0206	324.579	385.814	467.0258	533.3649	595.8186	624.4929	729.2709	818.5381	846.0233	898.5159	950.9848	972.8716	1038.1707	1067.2386	1108.8149	1122.2857	1155.0508	1227.5766	1303.036	1339.0805	1350.4032	1364.5151	1410.4005	1427.7692	1486.1099	1496.6146	1700.7074	2349.1305	3015.6772	3047.5178	3075.0997	3120.686	3133.25	3190.2342	3595.386
CC1N=CNC1C#N	C[C@H]1[N][CH]N[C@H]1C#N	
InChI=1S/C5H7N3/c1-4-5(2-6)8-3-7-4/h3-5H,1H3,(H,7,8)	InChI=1S/C5H7N3/c1-4-5(2-6)8-3-7-4/h3-5H,1H3,(H,7,8)/t4-,5+/m1/s1
