23
gdb 106318	2.79232	1.15968	1.01625	1.6118	86.22	-0.2362	0.0698	0.306	1329.0176	0.20471	-388.268218	-388.258313	-388.257369	-388.302586	37.739	
C	 0.0805413263	 1.4910737705	-0.1853281313	-0.372583
C	-0.0141509428	-0.0118927613	 0.1146357845	-0.294184
C	-1.4277458008	-0.5288192739	 0.0805571723	 0.307377
C	-2.5047236516	-0.2024874143	 1.1316343378	-0.308718
C	-2.9693989013	-1.696460978	 1.1176299686	 0.051596
C	-4.4446126107	-2.0378173986	 0.9380163159	-0.413526
C	-1.973256614	-1.9833099769	-0.017317335	-0.181626
C	-2.0953551202	-1.0337878232	-1.1643777751	 0.056608
O	-3.3518998205	-0.5972285339	-1.6133481126	-0.417703
H	 1.1157548188	 1.84214182	-0.1317009746	 0.112393
H	-0.2984545134	 1.7175380067	-1.1880072579	 0.108415
H	-0.5069707282	 2.0748322295	 0.5313316231	 0.120073
H	 0.5939078222	-0.5701734525	-0.6085637437	 0.094647
H	 0.4256253604	-0.2126879037	 1.101078041	 0.095402
H	-2.0894642915	 0.1093886286	 2.0932584063	 0.094148
H	-3.2551779751	 0.5294933991	 0.8181788379	 0.088738
H	-2.5969056362	-2.178534622	 2.0280190122	 0.070301
H	-4.8524393558	-1.5556474765	 0.0481962858	 0.141008
H	-4.5822067124	-3.1202198084	 0.832928858	 0.106096
H	-5.025881327	-1.7157014168	 1.810039521	 0.101952
H	-1.4239604266	-2.9129621033	-0.1297644479	 0.076677
H	-1.395045036	-1.2526584716	-1.9735865338	 0.079607
H	-3.2548044435	 0.3075684605	-1.9288913623	 0.283301
73.6893	120.4788	171.8911	202.6718	216.1111	230.9052	277.4255	287.3802	329.2713	365.1497	387.4127	505.3754	579.136	672.1521	704.9461	785.6972	799.9077	855.1352	874.2473	894.9936	961.8937	981.3675	996.4857	1021.0954	1030.7807	1072.1033	1088.268	1107.3242	1124.4486	1171.6905	1190.3393	1233.2221	1247.828	1252.5614	1285.9767	1315.6806	1325.4539	1349.9564	1363.6065	1377.802	1405.5567	1407.641	1464.7467	1481.5783	1489.8964	1497.7937	1497.9873	1506.4624	1509.7515	3010.647	3026.7337	3030.325	3038.362	3044.6334	3050.4477	3077.8842	3083.2238	3097.9425	3102.3152	3103.2037	3141.3387	3155.5505	3801.4447
CCC12CC(C)C1C2O	CC[C@]12C[C@@H](C)[C@H]1[C@H]2O	
InChI=1S/C8H14O/c1-3-8-4-5(2)6(8)7(8)9/h5-7,9H,3-4H2,1-2H3	InChI=1S/C8H14O/c1-3-8-4-5(2)6(8)7(8)9/h5-7,9H,3-4H2,1-2H3/t5-,6+,7-,8+/m1/s1
