21
gdb 96370	2.32616	1.69461	1.12736	1.445	78.13	-0.2437	0.0778	0.3215	1136.1292	0.183381	-424.220863	-424.212518	-424.211574	-424.253416	33.088	
C	-0.0802190849	 1.5208679044	-0.0872245228	-0.427379
C	 0.0890272017	 0.0148412824	 0.0212833783	 0.064242
O	 0.7390284352	-0.4354746538	-1.1649211686	-0.25539
C	 0.8322373144	-1.8476887193	-1.249424839	-0.066062
C	 1.6570890303	-2.4261102079	-0.098523783	-0.206553
C	 1.0609859265	-1.976765278	 1.2446714741	-0.289995
C	 0.8647486708	-0.4726542442	 1.2465823895	 0.430983
C	 1.7910173533	 0.3977802925	 1.9825890934	-0.238308
O	 0.4859364176	 0.1030699523	 2.5004189416	-0.291497
H	 0.8768863814	 1.999884029	-0.311520081	 0.124402
H	-0.7735755222	 1.7601558202	-0.8970099818	 0.12158
H	-0.4743331412	 1.9225307335	 0.8492367834	 0.13619
H	-0.9111340474	-0.4538697265	 0.079772641	 0.067321
H	-0.1779986837	-2.293572227	-1.2473523349	 0.084824
H	 1.2924393087	-2.0641886396	-2.2178682826	 0.106172
H	 1.682779142	-3.5194923135	-0.1665543824	 0.097523
H	 2.6890911348	-2.0667166559	-0.1876397559	 0.106674
H	 0.0807550544	-2.4518313965	 1.388995751	 0.105415
H	 1.6887799627	-2.2783144921	 2.0884808887	 0.103132
H	 2.6184234072	-0.0512143704	 2.5310603301	 0.110473
H	 1.9475547085	 1.4297294904	 1.6779902711	 0.116253
96.6214	170.1728	240.6762	274.2636	289.8796	320.6812	369.3077	394.9391	439.3475	461.3217	542.1314	581.589	707.2406	845.1138	850.062	875.792	886.24	924.7165	937.9249	947.5643	1025.5143	1063.097	1089.2037	1113.087	1123.858	1132.3569	1159.0966	1168.5462	1200.5276	1228.6809	1261.7726	1298.0977	1351.0258	1367.5435	1371.2192	1384.4186	1399.5898	1410.9379	1434.3966	1478.1284	1488.1194	1491.701	1500.652	1502.6361	1532.6947	2928.6749	2954.9489	3018.716	3033.3705	3051.8775	3076.7854	3082.2722	3086.4639	3089.3529	3123.9959	3138.0158	3178.1372
CC1OCCCC11CO1	C[C@H]1OCCC[C@]21CO2	
InChI=1S/C7H12O2/c1-6-7(5-9-7)3-2-4-8-6/h6H,2-5H2,1H3	InChI=1S/C7H12O2/c1-6-7(5-9-7)3-2-4-8-6/h6H,2-5H2,1H3/t6-,7-/m1/s1
