19
gdb 56767	2.88919	1.31797	1.04468	5.0944	79.06	-0.2446	0.0336	0.2782	1186.667	0.159594	-382.042639	-382.033946	-382.033002	-382.076187	32.554	
C	 0.0184824174	 1.5883051624	 0.2079855149	-0.393964
C	-0.0512610115	 0.0583626325	 0.0072134475	-0.257512
C	 0.7820478953	-0.6264769872	 1.0000865392	 0.290617
N	 1.441898338	-1.1393891717	 1.7980770783	-0.333136
C	-1.4884726285	-0.4291119	 0.0419345318	 0.371855
C	-2.166736603	-0.997377157	 1.2243739463	-0.293362
N	-1.8833202847	-1.8908557773	 0.0801779854	-0.160266
C	-2.9526397304	-1.5814428572	-0.9359389291	-0.152582
C	-2.4980613485	-0.103682107	-1.0618401853	-0.320769
H	 1.0489473157	 1.9431631003	 0.1359738257	 0.140494
H	-0.5757274974	 2.0898688999	-0.560785041	 0.13062
H	-0.3763346739	 1.8663377603	 1.1885190805	 0.141362
H	 0.3637367673	-0.1845119851	-0.980524152	 0.128519
H	-1.5597236252	-1.227711376	 2.0938071998	 0.14697
H	-3.1991641521	-0.7288614187	 1.4411705608	 0.109177
H	-2.7959664037	-2.1737205011	-1.8389036984	 0.118198
H	-3.9667358263	-1.7579074138	-0.5640356577	 0.110954
H	-3.2247445515	 0.6850611934	-0.8487711378	 0.109387
H	-2.0239092267	 0.1069004033	-2.0236638989	 0.113438
59.8461	128.668	170.5864	210.2559	231.7061	271.0548	337.7501	388.2503	469.8036	511.7694	570.9562	694.9366	747.6859	781.7103	822.2519	832.9829	891.2166	934.162	965.8754	995.1026	1029.3014	1064.4035	1101.0595	1106.3094	1112.6341	1134.8761	1194.256	1214.3447	1220.4602	1264.9106	1302.7651	1313.4913	1358.8844	1380.2497	1410.6058	1487.0106	1492.8043	1494.4686	1498.6512	1517.9479	2360.0784	3020.2789	3051.0636	3052.5629	3059.6202	3100.4715	3103.1086	3123.8721	3127.4556	3134.8366	3204.414
CC(C#N)C12CN1CC2	C[C@@H](C#N)[C@]12CN1CC2	
InChI=1S/C7H10N2/c1-6(4-8)7-2-3-9(7)5-7/h6H,2-3,5H2,1H3	InChI=1S/C7H10N2/c1-6(4-8)7-2-3-9(7)5-7/h6H,2-3,5H2,1H3/t6-,7-,9?/m0/s1
