21
gdb 87519	3.30414	1.33949	1.24193	1.756	82.6	-0.2315	0.0897	0.3212	1118.9053	0.183736	-387.051969	-387.044087	-387.043143	-387.084028	31.897	
C	-0.0454689217	 1.5233450092	-0.0506307572	-0.406565
C	 0.0311067619	 0.013261703	 0.0192027244	-0.108667
C	 1.3584625448	-0.7009229027	-0.2064409312	-0.394632
C	 0.722311823	-0.6878848516	 1.1424185645	 0.456591
C	 1.1932501897	-0.1357926355	 2.5087454878	-0.167368
C	-0.1313040531	-0.7460924881	 3.0754786386	-0.233628
C	 0.2103407647	-1.8319840354	 2.0236296568	 0.01203
O	 1.4189065412	-2.4203134324	 2.5394188476	-0.281326
C	 2.1855044949	-1.2441501702	 2.8949356873	-0.073738
H	 0.8639084009	 1.9843333094	 0.3483325619	 0.114226
H	-0.1627680235	 1.8638533893	-1.0852381616	 0.118743
H	-0.8939882918	 1.910558414	 0.5250327686	 0.116275
H	-0.8419742974	-0.4958400256	-0.3856604923	 0.083312
H	 1.3637898439	-1.6283497155	-0.7704653599	 0.114548
H	 2.2356596109	-0.0790730571	-0.3651158437	 0.107278
H	 1.4910053356	 0.8991410268	 2.67174323	 0.071743
H	-0.1497220848	-1.0599675497	 4.1222011231	 0.094941
H	-1.0099580664	-0.1534601027	 2.818681255	 0.104179
H	-0.4714177567	-2.6133018044	 1.6907682697	 0.076781
H	 3.1151338474	-1.2122786571	 2.3148748033	 0.099407
H	 2.4275189565	-1.2635870837	 3.9641387871	 0.095869
134.7436	143.5041	207.2385	239.5973	321.3056	372.3187	411.9498	452.7197	566.2761	613.5916	676.4098	815.3113	819.0236	848.9066	876.9452	900.2562	915.6303	931.3015	949.3744	961.5768	998.8566	1028.715	1034.6793	1054.2897	1065.7755	1093.5905	1121.0265	1123.8027	1136.3777	1175.6367	1187.1606	1196.8143	1233.1481	1240.1473	1256.3686	1283.1516	1332.2567	1371.5657	1411.8135	1436.9213	1482.4083	1493.06	1496.2894	1511.1754	1527.5996	3022.3631	3026.1682	3063.2939	3068.3406	3086.9201	3094.9634	3114.725	3120.269	3127.0493	3135.4011	3142.0645	3198.7947
CC1CC11C2CC1OC2	C[C@H]1C[C@]21[C@H]1C[C@@H]2OC1	
InChI=1S/C8H12O/c1-5-3-8(5)6-2-7(8)9-4-6/h5-7H,2-4H2,1H3	InChI=1S/C8H12O/c1-5-3-8(5)6-2-7(8)9-4-6/h5-7H,2-4H2,1H3/t5-,6-,7-,8-/m0/s1
