21
gdb 73315	2.85648	1.95861	1.39247	0.2024	86.56	-0.2618	0.0882	0.35	994.6002	0.184387	-349.884869	-349.877722	-349.876778	-349.915777	30.458	
C	-0.0021635957	 1.601260973	-0.0897819064	-0.501
C	 0.062349632	 0.0927165854	 0.0048808459	 0.315194
C	 0.5765573298	-0.681811578	-1.2499627547	-0.254036
C	 0.5079603832	-2.1897848717	-0.7946797551	-0.357857
C	-0.0243532084	-1.9249511201	 0.6003140484	 0.344116
C	-0.5035087808	-2.4159716294	 1.9862873769	-0.36169
C	-0.6272782009	-0.8589678792	 2.0434478885	-0.090508
C	 0.6747549215	-0.6659201478	 1.2079552685	-0.091047
C	-1.089986824	-0.7822974071	 0.556633228	-0.091051
H	 0.9872533523	 2.0293514691	-0.2900940564	 0.111636
H	-0.6671452227	 1.9202727447	-0.9011772211	 0.111634
H	-0.3748813576	 2.0427741847	 0.8404795102	 0.113951
H	-0.0550117631	-0.4901033714	-2.1244050171	 0.09463
H	 1.5962114875	-0.3812230725	-1.5149798554	 0.09463
H	-0.1688423045	-2.7830374907	-1.4169529487	 0.098154
H	 1.4892563455	-2.6737115454	-0.8050069094	 0.098153
H	-1.4378356586	-2.9864136835	 2.0161069484	 0.092033
H	 0.2471709425	-2.8753086898	 2.6380143836	 0.092033
H	-0.9762959155	-0.2537634052	 2.8809660021	 0.067121
H	 1.7014394751	-0.6482137339	 1.5833581421	 0.056952
H	-2.1086117474	-0.8994888912	 0.1771709418	 0.056953
215.3146	223.1544	250.1764	277.5587	356.7703	441.3123	446.5264	598.5453	671.3426	719.6776	739.8254	817.0893	820.6691	854.2086	855.4277	887.9189	893.705	919.6891	929.7175	993.0009	999.1923	1008.8622	1042.8513	1056.9043	1075.1293	1121.2412	1140.1862	1156.9599	1158.3788	1186.265	1196.5974	1200.2961	1221.3268	1233.0313	1249.0742	1269.7285	1298.6164	1321.2967	1363.0209	1413.6678	1484.3491	1492.9089	1495.2758	1505.8351	1509.3498	3020.1324	3032.4718	3035.9658	3051.0846	3072.0451	3072.5585	3076.1745	3080.5605	3090.6822	3092.6783	3095.7987	3104.2494
CC12CCC34CC(C13)C24	C[C@@]12CC[C@@]34C[C@@H]([C@H]13)[C@@H]24	
InChI=1S/C9H12/c1-8-2-3-9-4-5(6(8)9)7(8)9/h5-7H,2-4H2,1H3	InChI=1S/C9H12/c1-8-2-3-9-4-5(6(8)9)7(8)9/h5-7H,2-4H2,1H3/t5-,6+,7-,8+,9+
