18
gdb 83132	2.0838	1.76442	1.43917	3.4835	72.	-0.2404	0.0205	0.261	1015.6251	0.148155	-439.117696	-439.109196	-439.108252	-439.150395	32.517	
C	-0.1330885462	 1.5649304158	 0.0207083167	-0.42706
C	 0.0391192991	 0.0628444298	-0.0461662807	-0.069254
C	 0.7023857311	-0.6880383054	-1.1896627394	-0.154841
C	 1.6498332107	 0.0963809622	-2.0971935029	-0.191379
N	 2.6837110201	 0.5781856359	-1.1855833778	-0.314909
C	 2.6237768407	 0.047447943	 0.0690965565	 0.341309
O	 3.4692784356	 0.0978094538	 0.9422518645	-0.403479
C	 1.3222120855	-0.7000656609	 0.1906337733	 0.324223
O	 1.3647822783	-1.7872614529	 1.0465876805	-0.475291
H	 0.7384748752	 2.1001306724	-0.3642874166	 0.126862
H	-1.0059724763	 1.8818207219	-0.5611795867	 0.117598
H	-0.2890962819	 1.8880288637	 1.0550877204	 0.12887
H	-0.8013026261	-0.4964888454	 0.3604364622	 0.104017
H	 0.2058886752	-1.558275052	-1.6003552327	 0.105515
H	 2.0793164565	-0.5540498185	-2.8695901735	 0.119202
H	 1.149059545	 0.9318989729	-2.6019057961	 0.117586
H	 3.5006235939	 1.0813474938	-1.4933294959	 0.25542
H	 2.1241811535	-1.6182167899	 1.6247947283	 0.295611
107.5103	174.3647	201.4798	209.2666	241.1377	287.2119	357.9115	403.5184	489.1909	492.6964	531.134	593.7835	697.9813	709.1697	788.8799	801.8968	882.0432	904.4006	988.4072	988.9982	1050.5074	1054.6047	1095.3627	1119.0904	1129.9142	1206.5163	1221.3717	1229.9999	1297.5246	1325.1552	1358.8766	1412.475	1413.5748	1447.4526	1478.3656	1496.6858	1502.5447	1528.9149	1814.6277	3016.6897	3033.5565	3047.7273	3092.7047	3113.3692	3136.412	3192.8833	3643.2023	3721.4542
CC1C2CNC(=O)C12O	C[C@H]1[C@H]2CNC(=O)[C@@]12O	
InChI=1S/C6H9NO2/c1-3-4-2-7-5(8)6(3,4)9/h3-4,9H,2H2,1H3,(H,7,8)	InChI=1S/C6H9NO2/c1-3-4-2-7-5(8)6(3,4)9/h3-4,9H,2H2,1H3,(H,7,8)/t3-,4+,6+/m0/s1
