21
gdb 70378	2.34097	1.50823	1.31128	0.4845	88.33	-0.2441	0.0554	0.2995	1119.8779	0.180443	-349.901686	-349.892302	-349.891357	-349.934909	36.876	
C	-0.106590512	 1.5453536313	 0.0652733423	-0.502044
C	 0.030844006	 0.049803231	 0.0364822085	 0.342623
C	-0.8193953294	-0.8563212063	 0.8892031119	-0.342804
C	 0.6746541512	-0.9111054458	 1.0383457407	-0.077316
C	 1.2669033372	-1.754157141	-0.0914736542	-0.27867
C	 0.6452705948	-0.7568007147	-1.1536943157	 0.05837
C	-0.3261697389	-1.3410589813	-2.1889682923	-0.453454
C	 1.6929138186	-0.0016288092	-1.8294643013	 0.304362
C	 2.5532360409	 0.6179093078	-2.3985984419	-0.473008
H	 0.8168561471	 2.0347168003	-0.2584782845	 0.131549
H	-0.9137467585	 1.8848726579	-0.5955237395	 0.117692
H	-0.3425355012	 1.8927560603	 1.076483316	 0.113533
H	-1.3533482595	-0.3436076513	 1.6835268736	 0.109005
H	-1.3612010528	-1.7032726656	 0.4753435521	 0.102304
H	 1.1708981528	-0.6825152685	 1.973958954	 0.08322
H	 2.3564908365	-1.7552313307	-0.1259653553	 0.116817
H	 0.9054139639	-2.7862932079	-0.1568173742	 0.094572
H	-1.1164896421	-1.9220171922	-1.7066106588	 0.113832
H	-0.7937390971	-0.5436905725	-2.7746297705	 0.124646
H	 0.2052932374	-1.9992238608	-2.8831923413	 0.124723
H	 3.314693825	 1.1606273393	-2.9016861797	 0.19005
119.7286	143.9198	193.2509	205.9001	215.1081	256.03	318.4139	335.7558	429.3656	438.9559	507.2289	531.0937	613.2482	621.8826	624.1812	649.1944	783.1938	827.9894	856.2436	879.6174	913.8073	952.3596	983.5005	995.6424	1029.9035	1048.6897	1092.8276	1107.9824	1124.0356	1142.3468	1188.4761	1231.9026	1251.7977	1276.6933	1291.5855	1381.4324	1404.7995	1421.1258	1481.4525	1483.8147	1488.7504	1490.8248	1500.533	1508.4867	2226.0482	3024.0374	3038.9706	3043.2067	3084.6254	3106.4811	3107.6562	3109.1515	3118.9616	3127.2161	3179.2424	3195.0214	3501.7224
CC12CC1CC2(C)C#C	C[C@]12C[C@H]1C[C@]2(C)C#C	
InChI=1S/C9H12/c1-4-8(2)5-7-6-9(7,8)3/h1,7H,5-6H2,2-3H3	InChI=1S/C9H12/c1-4-8(2)5-7-6-9(7,8)3/h1,7H,5-6H2,2-3H3/t7-,8+,9+/m1/s1
