21
gdb 118974	2.55477	1.06321	1.00182	1.5044	75.58	-0.249	0.0686	0.3176	1342.2919	0.180203	-461.336908	-461.32674	-461.325796	-461.372046	37.299	
C	-0.1104440402	 1.3525306909	-0.0087296847	-0.226913
O	 0.0741978732	-0.0436439121	-0.0388312646	-0.258451
C	 0.642210034	-0.5609458942	 1.1542123158	-0.116482
C	 0.6286314202	-2.0793049104	 1.0093878059	 0.385549
O	-0.6834952819	-2.5196025447	 0.7541028683	-0.493356
C	 1.7644442302	-2.6216613054	 0.0831301656	-0.28335
C	 2.6151545496	-2.9034774378	 1.3515399385	-0.272872
C	 1.3079060229	-2.8081198874	 2.1873424967	 0.087385
O	 1.3055539713	-2.0973524473	 3.4043510816	-0.436212
H	 0.8461115443	 1.8847946912	 0.1067841734	 0.108466
H	-0.5640762199	 1.6441249132	-0.9592134228	 0.12781
H	-0.7746913077	 1.6573621653	 0.8144454778	 0.109897
H	 1.6619520955	-0.1756820882	 1.3005505474	 0.093166
H	 0.0408502246	-0.2687258362	 2.0268009784	 0.109549
H	-1.0651636729	-1.8751253792	 0.1438588401	 0.282273
H	 1.4373434893	-3.5383607958	-0.4119350968	 0.107964
H	 2.1676405493	-1.9327874457	-0.6608529227	 0.104794
H	 3.1726715925	-3.8414029964	 1.393438735	 0.095503
H	 3.2892413674	-2.0776763401	 1.594494809	 0.106321
H	 0.8377325029	-3.7950400363	 2.2936859953	 0.082658
H	 1.6814306155	-2.6590624435	 4.0885413128	 0.286301
70.4541	113.1934	127.0964	137.4812	198.6566	231.2165	259.235	280.525	332.0932	389.9271	426.4919	447.6999	512.8152	560.6594	632.119	768.5782	800.601	886.7293	922.3741	945.0465	966.9367	995.6212	1068.9513	1097.6571	1132.7168	1144.5156	1157.9041	1173.201	1191.6508	1193.8885	1222.9427	1230.6018	1245.1386	1272.2542	1298.1131	1322.0011	1373.2904	1423.8156	1444.5244	1477.9151	1478.502	1485.8902	1496.5098	1501.7804	1518.6229	2975.8167	2993.2064	3016.4639	3024.5723	3033.9845	3062.6907	3075.5944	3114.0868	3114.8165	3135.549	3767.4912	3827.7086
COCC1(O)CCC1O	COC[C@@]1(O)CC[C@H]1O	
InChI=1S/C6H12O3/c1-9-4-6(8)3-2-5(6)7/h5,7-8H,2-4H2,1H3	InChI=1S/C6H12O3/c1-9-4-6(8)3-2-5(6)7/h5,7-8H,2-4H2,1H3/t5-,6+/m1/s1
