21
gdb 92374	2.15531	1.98191	1.54982	1.3004	77.23	-0.2365	0.0824	0.3189	998.8202	0.183388	-424.243404	-424.235285	-424.234341	-424.275368	32.842	
C	-0.1944473418	 1.5251789872	-0.0190915345	-0.412106
C	 0.0063939755	 0.0195562266	-0.0027241056	 0.124954
O	 0.8362662694	-0.3947220354	-1.119061923	-0.305738
C	 1.9180840783	-1.1487381081	-0.5563616032	 0.070872
C	 2.8193625364	-0.1646487266	 0.1965992837	-0.084239
O	 2.0100558565	 0.1962779421	 1.3338033476	-0.314215
C	 0.7784207524	-0.5499622532	 1.2149253561	 0.377015
C	 0.0603404259	-0.5420705104	 2.5431332543	-0.481904
C	 1.2610865364	-1.8851741399	 0.617027818	-0.275644
H	 0.7430872915	 2.0415710563	 0.1981844129	 0.13283
H	-0.5568940715	 1.8414445815	-1.0009492472	 0.122293
H	-0.9377038537	 1.8223592472	 0.7285088718	 0.110776
H	-0.9680005329	-0.4844727678	-0.093340453	 0.06758
H	 2.3963828347	-1.7301435574	-1.3442867761	 0.080768
H	 3.7621346097	-0.6128762337	 0.5379466252	 0.094828
H	 3.0372916367	 0.7199308144	-0.4110157105	 0.106109
H	-0.1755084834	 0.48100916	 2.8503242233	 0.130901
H	-0.8741697845	-1.1075004826	 2.4792881975	 0.118405
H	 0.6886509989	-0.9905399836	 3.3173921514	 0.126965
H	 0.4550804152	-2.5502065734	 0.301184766	 0.105988
H	 1.9594475403	-2.4099207732	 1.2726077053	 0.103559
144.6578	208.27	224.7253	240.7353	281.7647	311.5471	384.2097	440.6107	476.5656	529.1809	601.6105	625.2734	763.46	812.3338	838.7985	867.3905	885.9662	896.8621	945.9463	972.9269	979.8792	1023.1318	1035.1634	1062.7554	1092.9152	1121.1799	1125.8585	1169.7243	1202.7483	1220.3121	1235.8816	1284.7779	1295.8337	1322.8277	1365.7923	1369.8619	1382.8901	1405.3471	1415.9555	1480.9732	1482.9146	1487.1987	1495.7116	1500.7162	1513.5674	2981.2895	3011.1286	3042.6937	3045.0258	3070.5808	3074.8602	3110.551	3116.262	3120.1403	3126.7794	3135.2652	3136.8275
CC1OC2COC1(C)C2	C[C@H]1O[C@H]2CO[C@]1(C)C2	
InChI=1S/C7H12O2/c1-5-7(2)3-6(9-5)4-8-7/h5-6H,3-4H2,1-2H3	InChI=1S/C7H12O2/c1-5-7(2)3-6(9-5)4-8-7/h5-6H,3-4H2,1-2H3/t5-,6-,7-/m1/s1
