12
gdb 128551	2.54853	1.51046	0.95413	3.9239	67.05	-0.2689	-0.0892	0.1797	1124.436	0.076973	-468.773203	-468.765452	-468.764508	-468.806238	26.681	
C	 0.0134113529	 1.4520238295	-0.0435867086	-0.25376
O	 0.0071324858	 0.0150462289	-0.0117155165	-0.25591
C	 0.5849499891	-0.6038282919	-1.0255289831	 0.277735
C	 0.7106627185	-1.9554337547	-1.2299288859	 0.226015
O	 1.3727914692	-2.1180707543	-2.3978908225	-0.197518
N	 1.6439425196	-0.8492070981	-2.8949739245	 0.008149
N	 1.1822471777	 0.0175907171	-2.0905911841	-0.200247
C	 0.2992908155	-3.075037502	-0.4873560564	 0.263309
N	-0.0488148178	-3.9837701712	 0.1405731432	-0.330682
H	 1.0383076974	 1.8323013458	-0.0484253832	 0.15392
H	-0.515359088	 1.8195981807	-0.9269528106	 0.153914
H	-0.5025455098	 1.7608382503	 0.8644259123	 0.155076
79.8343	124.8072	166.2707	179.3014	247.8731	337.2249	430.8448	514.0932	548.651	626.4102	679.9325	731.9011	756.4164	822.8586	1008.0026	1042.5108	1177.0709	1180.7555	1212.8114	1237.5129	1406.6264	1428.3258	1486.6572	1492.6687	1497.4626	1671.7002	2349.3864	3050.3973	3127.9953	3170.8693
COC1=C(ON=N1)C#N	COc1c(onn1)C#N	
InChI=1S/C4H3N3O2/c1-8-4-3(2-5)9-7-6-4/h1H3	InChI=1S/C4H3N3O2/c1-8-4-3(2-5)9-7-6-4/h1H3
