21
gdb 60022	2.10167	0.97606	0.7768	5.0754	76.8	-0.2705	0.0146	0.2851	1559.076	0.178865	-461.395213	-461.384277	-461.383333	-461.432507	38.443	
C	 0.0632586823	 1.4980383888	-0.0097299767	-0.408785
C	-0.0017464486	-0.0264501755	-0.0707106144	 0.125025
O	 0.785490335	-0.6249748165	 0.9603067274	-0.431965
C	-1.4448321764	-0.5487889728	-0.0354454305	-0.201272
C	-1.5376012549	-2.0728486655	-0.0990568632	 0.112048
C	-2.9588225251	-2.6006101669	 0.0544778143	-0.397056
O	-1.0312849074	-2.488167982	-1.3886672896	-0.196015
C	-0.0920781319	-3.4501982947	-1.4298667992	 0.169917
O	 0.3504284141	-3.8778172042	-2.4542198008	-0.281505
H	 1.1032243233	 1.8344468552	-0.0279930337	 0.129446
H	-0.4632657598	 1.9509435642	-0.8556756126	 0.123447
H	-0.4031338989	 1.8726671778	 0.9108552598	 0.105532
H	 0.4661740554	-0.3671378765	-1.000542357	 0.11187
H	 0.5077052591	-0.2430892621	 1.8007682424	 0.277042
H	-1.9292986828	-0.2111613392	 0.8912765725	 0.088808
H	-2.0145243313	-0.1186870867	-0.8678568032	 0.112213
H	-0.8877955114	-2.492266862	 0.6782883542	 0.099735
H	-3.6038040029	-2.2067209411	-0.7367631314	 0.13343
H	-2.9749035067	-3.6926716612	-0.0038541311	 0.125915
H	-3.3749953663	-2.3023880104	 1.0217305046	 0.119515
H	 0.2209508851	-3.7896003886	-0.4235665718	 0.082655
30.1762	51.7901	107.9204	152.4769	165.949	215.7881	243.1009	263.2781	301.2181	314.2202	315.8082	427.4186	452.272	508.2984	538.5517	613.361	835.0241	875.8936	898.1423	935.1144	970.0623	1018.202	1045.4046	1060.1045	1083.9639	1133.0147	1149.0262	1169.9808	1187.9602	1245.8065	1291.9749	1326.0389	1358.5509	1390.1847	1396.9097	1405.0226	1412.6461	1427.0774	1444.003	1464.4944	1486.8452	1492.0303	1495.4758	1498.782	1860.3398	2952.7713	3015.6042	3022.8996	3041.2547	3041.3457	3059.7581	3073.1005	3096.797	3115.9237	3119.0148	3121.241	3793.1462
CC(O)CC(C)OC=O	C[C@@H](O)C[C@@H](C)OC=O	
InChI=1S/C6H12O3/c1-5(8)3-6(2)9-4-7/h4-6,8H,3H2,1-2H3	InChI=1S/C6H12O3/c1-5(8)3-6(2)9-4-7/h4-6,8H,3H2,1-2H3/t5-,6-/m1/s1
