22
gdb 18079	4.46807	1.08991	1.05614	0.2126	81.95	-0.2467	0.0872	0.3339	1259.2713	0.201124	-313.046206	-313.03774	-313.036796	-313.079629	32.112	
C	 0.0433816593	 1.5205991446	-0.0398634945	-0.380875
C	 0.2653775848	 0.0063532694	-0.004955303	-0.153597
C	 0.5421743728	-0.5299460703	 1.4063593725	-0.204674
C	 0.7316677698	-2.033678685	 1.4350466562	 0.011887
C	 2.0092900281	-2.7642620526	 1.1052655097	-0.062146
C	 3.2451172076	-2.027620762	 1.6415061856	-0.227803
C	 2.640388472	-2.0879006302	 3.0815871481	-0.226063
C	 1.4138371792	-2.8216122456	 2.5214273245	-0.086644
H	 0.9220233068	 2.0586205213	 0.3338583254	 0.112085
H	-0.154536598	 1.8739959647	-1.0567976678	 0.109336
H	-0.8089843117	 1.8104567747	 0.5849917804	 0.1122
H	-0.6152990116	-0.5029706881	-0.4185624251	 0.091106
H	 1.103644013	-0.2611663697	-0.6608012346	 0.098933
H	 1.4214841284	-0.019925286	 1.8160192933	 0.095768
H	-0.2943624189	-0.2612492744	 2.0666609972	 0.090213
H	-0.1351330877	-2.569537748	 1.0477705674	 0.077941
H	 2.0366529055	-3.5406925529	 0.3492668527	 0.076945
H	 4.1566473167	-2.6233472967	 1.557345526	 0.100507
H	 3.4461599348	-1.0360472888	 1.2223646881	 0.093507
H	 3.2360001463	-2.7173884002	 3.746376418	 0.099955
H	 2.453043487	-1.1360441634	 3.5890928	 0.094197
H	 0.9135974859	-3.6477272907	 3.0141179498	 0.077221
62.5578	80.4876	137.7574	234.9262	260.5445	273.2606	347.7664	440.8677	547.2436	707.9599	745.034	763.3861	792.2704	796.5809	871.0723	899.2435	922.3959	947.6862	956.2147	995.1211	1009.9971	1024.8546	1052.7015	1074.3596	1089.1294	1116.1818	1135.2161	1157.9111	1214.1601	1223.7127	1245.0316	1263.4031	1269.9421	1301.1349	1306.4678	1328.4231	1352.3773	1388.1822	1409.4535	1454.7419	1476.3502	1489.5633	1495.1681	1499.1952	1507.8254	1512.3704	3008.9538	3016.9937	3027.0953	3042.8238	3043.7636	3051.2381	3065.5537	3092.8758	3093.4145	3099.1764	3108.2865	3111.646	3164.5449	3176.8469
CCCC1C2CCC12	CCC[C@H]1[C@H]2CC[C@@H]12	
InChI=1S/C8H14/c1-2-3-6-7-4-5-8(6)7/h6-8H,2-5H2,1H3	InChI=1S/C8H14/c1-2-3-6-7-4-5-8(6)7/h6-8H,2-5H2,1H3/t6-,7+,8-
