23
gdb 78391	3.62176	1.15574	1.02079	0.0922	89.98	-0.2005	0.0763	0.2768	1299.0186	0.204795	-351.082362	-351.073183	-351.072238	-351.115444	36.726	
C	-0.2944872616	 1.4522379887	 0.769159434	-0.420161
C	-0.2026782601	-0.0368029603	 0.495143551	-0.035916
C	 1.1874591766	-0.5717922153	 0.2633609286	-0.076391
C	 0.4604879169	-0.8573761787	 1.571902348	-0.076436
C	 0.5927757586	-2.3830572844	 1.3148412927	-0.113197
C	 1.321599278	-2.0966878067	 0.0027105296	-0.113216
C	 0.0687832432	-2.9496222974	 0.0104554688	 0.326055
C	 0.4297255753	-4.4306138539	-0.1123640914	-0.449125
C	-1.2733867732	-2.6495255345	-0.6693734376	-0.489124
H	 0.5768825925	 1.8066677557	 1.3306515296	 0.113352
H	-0.3433951117	 2.0225381763	-0.1648182474	 0.116446
H	-1.188289973	 1.6906109543	 1.3558826283	 0.116446
H	-1.0469236127	-0.4206929798	-0.0577527385	 0.077262
H	 2.0210330299	 0.1009789936	 0.1002239282	 0.081049
H	 0.6606756644	-0.4333197479	 2.548723073	 0.081055
H	 0.9068268269	-3.0482222805	 2.1116694095	 0.078233
H	 2.2643373246	-2.5149022329	-0.3324696172	 0.078236
H	 1.3858429342	-4.6578292696	 0.3689582749	 0.111943
H	-0.3400964043	-5.0555330501	 0.3544212927	 0.114607
H	 0.5040218502	-4.7237306733	-1.1657397828	 0.114609
H	-1.1733437564	-1.9347835062	-1.4903870033	 0.129485
H	-1.6840728287	-3.5696467043	-1.0974949078	 0.105278
H	-2.0186799995	-2.2659940629	 0.032299567	 0.129511
99.2501	186.2933	204.2673	223.1603	259.0424	271.6674	282.4882	353.5351	373.5391	404.8066	481.3429	588.2776	667.256	743.0441	749.1991	759.6428	808.899	845.53	893.6962	932.4432	974.8995	986.8655	1004.9975	1007.3639	1019.4769	1034.1696	1045.3993	1057.9561	1080.0244	1106.3696	1138.7778	1153.7401	1172.1513	1213.1096	1258.4048	1268.2152	1286.6717	1301.0175	1387.3415	1405.9282	1412.8222	1420.3812	1434.4751	1496.2107	1497.5774	1499.3668	1500.2497	1508.5929	1511.6595	3023.3518	3025.9334	3038.8534	3086.6185	3091.8114	3092.9822	3095.2028	3103.7528	3116.1697	3156.9779	3167.2266	3173.3321	3184.1508	3226.8441
CC1C2C1C1C2C1(C)C	C[C@H]1[C@H]2[C@@H]1[C@@H]1[C@H]2C1(C)C	
InChI=1S/C9H14/c1-4-5-6(4)8-7(5)9(8,2)3/h4-8H,1-3H3	InChI=1S/C9H14/c1-4-5-6(4)8-7(5)9(8,2)3/h4-8H,1-3H3/t4-,5-,6+,7-,8+
