17
gdb 49853	3.3586	1.1679	0.95398	2.2582	73.33	-0.2449	-0.0344	0.2105	1197.3768	0.135966	-421.854405	-421.846531	-421.845587	-421.887471	29.595	
O	-0.1266614096	-0.0185530142	 0.0386295081	-0.244457
C	-0.0014777901	 1.1770038078	-0.0088444105	 0.161695
C	 1.3208734549	 1.912952533	 0.0279979505	-0.082542
C	 1.5304946905	 2.8383104942	-1.1933418834	-0.382371
C	 2.3398167737	 4.0382445601	-0.6613471058	 0.423699
O	 3.0716600305	 4.7303166573	-1.3205216913	-0.321694
C	 2.1075525239	 4.137274423	 0.8125842798	-0.148359
C	 0.6460657818	 4.1114645389	 1.2402671789	-0.293676
C	 1.4398370419	 2.8432497231	 1.2473086774	-0.060386
H	-0.8916528245	 1.8457700593	-0.083223856	 0.071961
H	 2.1127162679	 1.1599293586	 0.0729598356	 0.106511
H	 2.0598874501	 2.356977564	-2.0164089307	 0.146179
H	 0.5782994156	 3.2060622605	-1.5981232779	 0.132933
H	 2.8290685635	 4.6725994126	 1.4156123119	 0.115352
H	 0.4308476837	 4.5686156813	 2.1990411316	 0.134806
H	-0.1203357256	 4.2774335462	 0.4913604768	 0.128006
H	 1.6862044019	 2.3912195041	 2.200510565	 0.112342
62.601	98.0484	171.9734	258.902	325.4698	397.2455	429.0941	472.898	529.6759	631.7783	676.634	768.8191	817.1307	837.7999	891.5139	920.4658	952.2868	976.5762	984.736	1048.015	1073.005	1096.0015	1107.3901	1116.99	1179.1132	1188.1786	1201.9813	1246.4958	1296.941	1313.1444	1327.9643	1370.5441	1429.2746	1459.5941	1496.1478	1834.2379	1842.4517	2851.617	3034.7602	3075.471	3129.5754	3141.471	3184.894	3206.6788	3226.62
O=CC1CC(=O)C2CC12	O=C[C@H]1CC(=O)[C@H]2C[C@@H]12	
InChI=1S/C7H8O2/c8-3-4-1-7(9)6-2-5(4)6/h3-6H,1-2H2	InChI=1S/C7H8O2/c8-3-4-1-7(9)6-2-5(4)6/h3-6H,1-2H2/t4-,5+,6+/m1/s1
