18
gdb 76246	2.11076	1.43408	1.00316	2.6195	80.69	-0.2374	-0.0283	0.2092	1237.6405	0.143846	-401.905868	-401.896166	-401.895222	-401.940498	35.085	
C	 0.0957109179	 1.6223256279	-0.0919509154	-0.401559
C	 0.0957751731	 0.1081341726	 0.0374334445	-0.062356
N	 0.693724572	-0.660857569	-1.0815577787	-0.083503
C	-0.1898676461	-1.2580749838	-2.0605510041	-0.33658
C	 1.436563251	-1.5794212341	-0.180824825	-0.293271
C	 2.8066560836	-1.8916944018	-0.526146418	 0.340245
C	 3.9506873386	-2.1463372825	-0.7920082723	-0.41469
C	 1.124231576	-0.5614861486	 0.958151161	 0.378963
O	 1.5427122758	-0.367122656	 2.0546358094	-0.280546
H	 1.0946508239	 1.9842429111	-0.34747506	 0.134582
H	-0.5993664351	 1.9455266882	-0.8732920352	 0.123732
H	-0.2156064715	 2.0802367108	 0.8518054779	 0.134257
H	-0.9130957477	-0.2565087002	 0.3096654375	 0.088277
H	-0.720577042	-0.4725821053	-2.6072445003	 0.128493
H	 0.3966365148	-1.8315207215	-2.7845310459	 0.136517
H	-0.9418477298	-1.934041069	-1.6103497463	 0.095925
H	 0.8762945661	-2.5099382675	 0.0321821698	 0.110489
H	 4.9624542294	-2.3661248912	-1.028427489	 0.201026
61.3293	112.6292	157.1803	179.4294	193.1962	213.7441	271.773	281.0344	369.2726	416.9473	507.5355	535.6123	599.9096	616.4428	636.8171	665.0504	818.1932	846.8101	896.7445	963.3823	1043.536	1066.2468	1081.587	1131.2837	1151.9904	1160.8328	1200.9311	1258.3595	1289.5732	1314.2207	1376.9533	1403.1032	1453.5109	1484.2769	1491.0352	1494.0067	1496.3605	1926.2771	2237.7332	2918.3497	2925.1372	2929.3878	3041.8912	3068.0434	3110.0226	3112.0987	3128.7502	3502.7593
CC1N(C)C(C#C)C1=O	C[C@H]1N(C)[C@@H](C#C)C1=O	
InChI=1S/C7H9NO/c1-4-6-7(9)5(2)8(6)3/h1,5-6H,2-3H3	InChI=1S/C7H9NO/c1-4-6-7(9)5(2)8(6)3/h1,5-6H,2-3H3/t5-,6+/m1/s1
