19
gdb 81168	2.68835	1.62295	1.26279	2.8838	75.38	-0.2541	-0.0359	0.2182	1037.5441	0.160513	-423.025743	-423.017945	-423.017001	-423.057859	30.91	
O	-0.0377876263	 1.4419273488	 0.166295631	-0.460307
C	-0.0050948264	 0.0424690379	 0.0737940424	 0.130662
C	 0.1090273555	-0.6570867877	 1.4566372456	-0.041793
C	-1.4145866695	-0.389788945	 1.6262659713	-0.276122
C	-1.4085533037	-0.6413793092	 0.070568396	 0.226912
C	-1.0374955147	-2.1373618264	-0.0013086208	-0.286718
C	 0.1326813758	-2.140141087	 1.044935492	-0.222863
C	-2.5039823706	-0.1072898885	-0.7785534118	 0.041258
O	-2.3943421424	 0.8834515929	-1.4698823704	-0.274274
H	-0.6022770379	 1.7459610532	-0.5576881369	 0.295578
H	 0.6955425424	-0.2966941799	-0.7041196291	 0.059341
H	 0.8320553183	-0.3170955646	 2.1973565303	 0.074243
H	-1.9976661078	-1.0765702845	 2.2453099359	 0.093747
H	-1.6314434432	 0.6482903665	 1.869660348	 0.1287
H	-1.8678339954	-2.789366691	 0.2844509015	 0.106075
H	-0.7062186356	-2.4307461856	-1.0014835587	 0.110725
H	 1.0853063921	-2.4336010936	 0.5954416452	 0.105924
H	-0.0629402945	-2.8073909057	 1.887977437	 0.104958
H	-3.4712089761	-0.6579399708	-0.7375779384	 0.083952
91.0703	183.4128	227.2474	288.8597	310.4681	352.5093	423.5807	440.5606	526.5207	569.0976	662.234	734.9666	822.6526	827.818	864.1164	900.9705	916.0789	939.6841	974.3142	988.6248	1014.9903	1049.0848	1082.9902	1104.0286	1152.6608	1178.1691	1186.1417	1212.3935	1229.9468	1242.7097	1269.918	1281.175	1308.9209	1327.4469	1368.7312	1411.6301	1429.8792	1483.456	1490.8264	1514.2579	1787.2569	2874.441	2984.6416	3051.8436	3062.6352	3070.6505	3091.08	3111.258	3125.2577	3164.5604	3749.2709
OC1C2CC1(CC2)C=O	O[C@H]1[C@H]2C[C@@]1(CC2)C=O	
InChI=1S/C7H10O2/c8-4-7-2-1-5(3-7)6(7)9/h4-6,9H,1-3H2	InChI=1S/C7H10O2/c8-4-7-2-1-5(3-7)6(7)9/h4-6,9H,1-3H2/t5-,6+,7+/m1/s1
