21
gdb 57273	2.22089	1.31912	1.18144	2.1427	83.18	-0.2405	0.0514	0.2919	1205.258	0.180048	-387.037278	-387.027332	-387.026388	-387.071858	37.08	
C	 0.2913474111	 1.5186234379	 0.16452203	-0.405887
C	-0.0303171751	 0.0128882528	 0.0200899899	 0.035058
C	 0.5232297122	-0.7578098121	 1.2412264645	-0.405882
C	-1.4859860096	-0.1647194573	-0.0419400986	 0.355524
C	-2.6798332497	-0.3048476402	-0.0811308698	-0.511543
C	 0.640238137	-0.5255859011	-1.2627938962	-0.013826
C	 0.2989376821	-1.9474333842	-1.7618997609	-0.099689
O	-0.0390110846	-1.4512838264	-3.0727910804	-0.275773
C	 0.1084510541	-0.0825834887	-2.6441694889	-0.099689
H	 1.3746558569	 1.6678022796	 0.2247580831	 0.113253
H	-0.0891937735	 2.0866585661	-0.6889318047	 0.127662
H	-0.1640926226	 1.9263021961	 1.0710409583	 0.125391
H	 0.0719344712	-0.3911716373	 2.1671388545	 0.125392
H	 0.3095294071	-1.8273717143	 1.1622955996	 0.127663
H	 1.6082396874	-0.6253583997	 1.309412023	 0.113252
H	-3.7337364764	-0.4308264551	-0.1203596002	 0.198968
H	 1.7185836329	-0.369407093	-1.1654405774	 0.079165
H	 1.1244095879	-2.6680874779	-1.7953550551	 0.098057
H	-0.5647571302	-2.4076282073	-1.2651585555	 0.107421
H	-0.855718894	 0.4407614528	-2.6127536183	 0.107434
H	 0.8033001057	 0.4755014591	-3.2825977773	 0.09805
74.9455	98.2501	158.9485	181.7146	192.9735	234.3032	257.1305	308.0226	325.4097	401.7542	418.2805	560.5878	595.2524	627.3813	631.8794	642.5558	795.7908	876.1527	898.8557	938.6057	946.3666	974.8575	997.7283	1040.164	1057.0311	1059.5517	1114.8772	1169.5094	1173.5584	1176.4815	1208.2624	1266.0256	1269.9565	1316.9047	1348.4432	1394.9327	1395.8278	1419.3429	1480.9139	1487.1132	1497.7728	1507.8047	1508.1986	1534.2205	2228.2632	3009.1348	3019.622	3034.282	3038.1584	3049.5424	3058.4498	3072.4411	3107.3732	3111.4413	3117.935	3120.6503	3500.0244
CC(C)(C#C)C1COC1	CC(C)(C#C)C1COC1	
InChI=1S/C8H12O/c1-4-8(2,3)7-5-9-6-7/h1,7H,5-6H2,2-3H3	InChI=1S/C8H12O/c1-4-8(2,3)7-5-9-6-7/h1,7H,5-6H2,2-3H3
