23
gdb 114988	3.1478	0.99597	0.80031	1.439	87.93	-0.2335	0.0312	0.2646	1488.32	0.206545	-388.310354	-388.300851	-388.299907	-388.344471	36.406	
C	-0.0268660087	 1.5648577207	 0.0071648396	-0.399817
C	 0.0209362579	 0.0291789663	 0.0095263062	-0.024977
C	 0.6762136867	-0.5172801307	-1.2700456998	-0.207476
C	 0.9700105204	-2.0201938819	-1.1651272577	 0.017229
C	 1.4800503954	-2.5833780685	-2.4867468634	-0.0986
O	 1.6756812395	-3.9828757165	-2.3340602237	-0.425054
C	 1.9496782295	-2.2875627062	-0.0103648436	-0.235096
C	 1.5930568735	-1.5065724407	 1.2264861115	-0.08748
C	 0.7260738746	-0.4950796637	 1.2386509103	-0.030982
H	 0.9841568804	 1.9870583403	-0.0050778363	 0.11574
H	-0.5609296652	 1.9403905232	-0.8722618229	 0.108625
H	-0.5370530715	 1.9466146956	 0.8978796745	 0.110205
H	-1.0216565391	-0.3269897498	 0.0375014381	 0.079288
H	 0.0313837614	-0.3093252849	-2.1331199651	 0.085644
H	 1.6181316525	 0.0225172181	-1.4450429415	 0.091115
H	 0.0286612699	-2.5389181976	-0.9351759911	 0.081134
H	 0.7492613928	-2.3711737181	-3.2841884707	 0.081589
H	 2.4219189146	-2.0790125558	-2.7626039274	 0.080216
H	 2.0385319309	-4.3282329077	-3.1545038753	 0.286048
H	 1.9764326056	-3.3594690327	 0.2112158664	 0.118888
H	 2.9738994094	-2.0319673823	-0.3264458503	 0.09756
H	 2.0771454913	-1.8087594077	 2.1528568881	 0.080427
H	 0.4995455782	 0.0089934903	 2.1767444341	 0.075774
90.2278	111.7141	150.8661	204.17	243.9423	258.1447	288.5103	318.847	382.1067	429.2582	447.2958	505.8033	555.9928	692.6718	738.3846	832.1342	859.8995	896.852	934.0605	955.4028	992.1996	1004.6385	1017.4889	1044.9855	1072.7384	1106.0594	1109.2391	1127.6994	1150.0965	1176.9136	1220.4262	1246.0682	1254.7062	1286.6212	1304.264	1328.3731	1334.9362	1361.2387	1380.0361	1397.7739	1402.7182	1423.8707	1458.2599	1474.4513	1490.8049	1497.5318	1501.0132	1519.9754	1723.0074	2951.9439	2966.9887	2980.2423	2981.0378	3002.4919	3017.4911	3026.3251	3050.3172	3069.3058	3096.6253	3097.0409	3129.5109	3155.2173	3833.8099
CC1CC(CO)CC=C1	C[C@H]1C[C@@H](CO)CC=C1	
InChI=1S/C8H14O/c1-7-3-2-4-8(5-7)6-9/h2-3,7-9H,4-6H2,1H3	InChI=1S/C8H14O/c1-7-3-2-4-8(5-7)6-9/h2-3,7-9H,4-6H2,1H3/t7-,8+/m1/s1
