17
gdb 26084	3.29097	1.15204	1.03138	3.3881	78.94	-0.2176	0.0144	0.232	1198.9539	0.137002	-380.914679	-380.906288	-380.905344	-380.948598	30.897	
C	-0.1292842255	 1.5122939929	 0.0401054674	-0.381271
C	 0.0799078263	-0.0128806332	-0.0160032346	-0.133776
C	 0.7849918379	-0.392436796	-1.2544154934	 0.290129
N	 1.3299732348	-0.657161418	-2.2376761193	-0.315636
N	 0.7713834737	-0.5310168537	 1.1526779564	 0.029086
C	 2.1030498161	-0.3483992523	 1.4545242628	-0.091612
C	 2.3378965995	-0.9024449249	 2.6892046888	-0.166896
C	 1.1051556649	-1.4352382172	 3.1602825152	-0.174912
C	 0.1594759526	-1.1920726798	 2.194731088	-0.091564
H	 0.8313119686	 2.0312374046	 0.0620877296	 0.148526
H	-0.6911340184	 1.8518278356	-0.8337970162	 0.142532
H	-0.6862257426	 1.7632256261	 0.9457275151	 0.142155
H	-0.8985406431	-0.5038551387	-0.0430366306	 0.145037
H	 2.7642147386	 0.1367681143	 0.7544763857	 0.134442
H	 3.2915113362	-0.9334053565	 3.193234184	 0.102036
H	 0.9347088117	-1.9470929147	 4.0947277649	 0.101262
H	-0.8920165513	-1.4287029185	 2.1500883361	 0.120462
34.484	97.8097	170.4426	201.9527	234.7351	338.6442	383.4089	483.3608	568.2999	621.1949	635.7893	678.7455	719.1702	740.682	805.8947	850.9623	858.2583	884.2189	961.4634	1008.2573	1074.231	1086.0678	1105.9985	1113.08	1124.6661	1266.6593	1305.8665	1317.953	1326.1653	1408.5846	1425.4211	1437.4082	1486.8373	1493.8161	1520.8444	1567.8564	2363.8916	3055.2436	3064.2077	3137.095	3144.1927	3242.5815	3252.212	3264.6222	3273.4965
CC(C#N)N1C=CC=C1	C[C@@H](C#N)n1cccc1	
InChI=1S/C7H8N2/c1-7(6-8)9-4-2-3-5-9/h2-5,7H,1H3	InChI=1S/C7H8N2/c1-7(6-8)9-4-2-3-5-9/h2-5,7H,1H3/t7-/m0/s1
