14
gdb 133202	3.26321	1.4015	0.98631	2.9416	68.74	-0.2388	-0.0445	0.1943	1099.8915	0.101563	-474.174244	-474.166555	-474.16561	-474.206665	28.517	
C	-0.0332002075	 1.4564314942	-0.0161717231	-0.454637
C	-0.008209051	-0.0377822047	 0.0000496237	 0.338717
N	-0.0375940126	-0.661846084	-1.1298538565	-0.252226
N	-0.0125260928	-2.029305228	-1.0604682631	-0.311513
C	 0.0392362713	-2.6799770455	 0.1197564873	 0.42181
F	 0.0556559638	-3.9949313967	-0.0202349683	-0.054414
N	 0.0707850487	-2.1467196124	 1.2721517351	-0.402995
C	 0.0491295877	-0.7416192222	 1.3081958219	 0.282429
N	 0.0760093295	-0.0518356575	 2.3831597299	-0.520335
H	 0.8538297074	 1.8498068071	 0.4895911103	 0.1538
H	-0.0770994318	 1.8249071976	-1.0418056137	 0.131344
H	-0.8925583482	 1.8213004618	 0.5544769529	 0.153863
H	-0.0358329066	-2.5192640495	-1.9397798285	 0.289609
H	 0.114613362	-0.6821313902	 3.186923732	 0.224547
78.8378	166.2642	194.1624	304.0268	334.9593	367.6245	405.5688	492.7834	499.291	530.9816	575.2003	715.1615	737.1829	782.0928	783.0032	916.3861	987.1089	1036.0466	1058.7882	1133.2112	1175.8944	1236.2048	1320.6057	1386.3151	1415.5218	1462.7097	1463.6835	1517.1871	1663.8337	1694.377	1714.3183	3051.2835	3109.347	3152.7732	3463.4341	3655.0118
CC1=NNC(F)=NC1=N	Cc1n[nH]c(F)nc1[NH]	
InChI=1S/C4H5FN4/c1-2-3(6)7-4(5)9-8-2/h1H3,(H2,6,7,9)	InChI=1S/C4H10FN4/c1-2-3(6)7-4(5)9-8-2/h2-4,6-9H,1H3
