18
gdb 16181	4.04735	1.64617	1.40288	2.4528	67.	-0.2355	0.0818	0.3172	931.3896	0.154856	-384.925027	-384.917515	-384.91657	-384.956817	28.806	
O	 0.0892675253	 1.3964314434	 0.2548289279	-0.418421
C	 0.0922493014	-0.000298752	 0.0118055902	-0.140182
C	-1.2979203033	-0.5584544288	-0.0929808037	 0.436813
C	-2.126668359	-0.9547509835	 1.1017906861	-0.352902
C	-1.7077457044	-1.9940281407	 0.0709415411	-0.122413
C	-2.6760286721	-2.2726263159	-1.0685268002	-0.237914
C	-3.0605300409	-0.8561498324	-1.5527492599	-0.09623
O	-1.9776069327	 0.0040787765	-1.197383931	-0.310606
H	-0.4742842908	 1.7869388849	-0.422562544	 0.292027
H	 0.643985058	-0.2411887983	-0.911055747	 0.089165
H	 0.6180602436	-0.4661711317	 0.8509084939	 0.105016
H	-1.6215266059	-0.9824498259	 2.0612434405	 0.118453
H	-3.1658696985	-0.6476578154	 1.1559335175	 0.114797
H	-0.9985731576	-2.7633426329	 0.3548800608	 0.091483
H	-2.1602813526	-2.8305570491	-1.8571538598	 0.110082
H	-3.5575895736	-2.848939312	-0.7717501793	 0.107447
H	-3.2045607378	-0.7876060515	-2.6344313566	 0.111605
H	-3.985957399	-0.5164855745	-1.0679615264	 0.101782
85.8216	145.1745	213.4415	262.165	362.0656	383.8014	422.2083	436.7799	661.7025	679.9029	714.5995	832.2535	865.3778	891.1424	919.634	933.5556	973.5721	990.4421	1024.1231	1049.1096	1069.4436	1080.1877	1096.1616	1133.9105	1180.8138	1220.1069	1234.2978	1267.0102	1282.1349	1328.042	1378.3322	1387.6388	1399.5029	1444.3895	1486.4429	1493.9375	1497.1913	1528.8009	2977.6555	3006.719	3046.3762	3081.8427	3082.7591	3095.0035	3131.7921	3172.3249	3217.1057	3806.926
OCC12CC1CCO2	OC[C@]12C[C@H]1CCO2	
InChI=1S/C6H10O2/c7-4-6-3-5(6)1-2-8-6/h5,7H,1-4H2	InChI=1S/C6H10O2/c7-4-6-3-5(6)1-2-8-6/h5,7H,1-4H2/t5-,6-/m1/s1
