19
gdb 46546	3.66644	1.16264	1.07595	3.7591	74.96	-0.2349	-0.0145	0.2204	1177.5211	0.159288	-423.046831	-423.038693	-423.037749	-423.080267	30.926	
O	 0.03508589	-0.0229588491	 0.0279212374	-0.311951
C	-0.0128109447	 1.1774094314	 0.0801903584	 0.406134
C	-1.28632849	 2.0331385094	 0.074643408	-0.318781
C	-0.7895830862	 3.4645888913	-0.1742412332	-0.272869
C	 0.5984658107	 3.4938543144	 0.4879719559	 0.44207
C	 1.4616162879	 4.7662857826	 0.3614645415	-0.363761
C	 1.2718850162	 4.8873036573	 1.885514727	-0.067103
O	 0.483407771	 3.6803351103	 1.9299345933	-0.325998
C	 1.1926995925	 2.1252570739	 0.1553854939	-0.375481
H	-2.0144161073	 1.6545179012	-0.6457461008	 0.125965
H	-1.7350295648	 1.948415566	 1.0721211764	 0.147775
H	-0.6788227519	 3.6536303328	-1.2493701625	 0.104463
H	-1.4403070037	 4.2378277541	 0.2400712263	 0.110066
H	 2.4872957838	 4.5979646309	 0.0282291197	 0.112612
H	 1.0170021136	 5.5655681891	-0.235059519	 0.111209
H	 2.1833182017	 4.8017649648	 2.4888961505	 0.106347
H	 0.7036657315	 5.7607001462	 2.2272191789	 0.104821
H	 1.9352131976	 1.7841079728	 0.8794340093	 0.135228
H	 1.667815762	 2.1422705608	-0.834722631	 0.129253
59.4225	75.2737	135.2147	245.8182	355.5507	388.2914	441.9115	466.1764	496.9057	589.3316	700.8296	748.8426	784.5148	806.9864	862.2209	869.3816	928.7641	958.5968	983.3473	984.2859	1002.282	1023.1069	1105.09	1154.0137	1165.5588	1173.2183	1195.6279	1208.1754	1220.6159	1257.324	1273.5936	1291.0722	1298.8877	1341.2422	1361.8532	1426.3696	1446.5493	1481.5908	1489.3386	1532.0465	1852.2613	3019.9966	3031.4516	3036.7596	3047.3429	3058.6907	3073.7441	3106.2863	3116.181	3119.1899	3128.2103
O=C1CCC2(CCO2)C1	O=C1CC[C@]2(CCO2)C1	
InChI=1S/C7H10O2/c8-6-1-2-7(5-6)3-4-9-7/h1-5H2	InChI=1S/C7H10O2/c8-6-1-2-7(5-6)3-4-9-7/h1-5H2/t7-/m0/s1
