17
gdb 47164	2.37066	1.98493	1.12542	1.8617	75.46	-0.2451	-0.016	0.2291	1048.7821	0.138662	-418.048681	-418.041251	-418.040307	-418.080789	28.207	
O	 0.0692212673	-0.0661760506	 0.0757144488	-0.351773
C	-0.0014100624	 1.13905453	 0.1480011907	 0.387066
C	-1.2911480343	 1.9632337948	 0.1426956253	-0.340111
C	-1.1471553625	 3.3908930124	 0.7198522148	-0.181568
N	 0.038912916	 4.1368938948	 0.2585994906	-0.33574
C	 1.0207306238	 3.3754733935	 0.0528207263	 0.424923
C	 2.4859554614	 3.4655706229	-0.351650724	-0.366318
C	 2.5043299459	 1.8996676565	-0.2388994004	-0.176531
N	 1.0899056996	 1.9785194574	 0.1644350584	-0.123572
H	-1.5999403999	 2.0170777502	-0.910217409	 0.137023
H	-2.0666945689	 1.4019955891	 0.6690920432	 0.135483
H	-2.0402404321	 3.9715430785	 0.4736765891	 0.117729
H	-1.1017225899	 3.3417306177	 1.8173180713	 0.118114
H	 2.6575766212	 3.8579454129	-1.3553397597	 0.142553
H	 3.1255060641	 3.9943588159	 0.3570318015	 0.141698
H	 2.6546999522	 1.3603154162	-1.1769582118	 0.136724
H	 3.1566185387	 1.4861563677	 0.5329933248	 0.134299
97.7732	156.9751	172.8207	253.9375	307.8413	460.2052	498.3435	548.4439	588.4838	646.5371	677.7249	765.905	792.6049	855.1519	905.6386	938.0238	1033.4594	1042.8153	1057.1111	1064.0741	1131.9455	1148.8237	1189.825	1204.4648	1206.3071	1241.843	1254.9959	1331.1381	1332.6566	1346.4802	1404.4876	1455.9504	1466.7994	1491.443	1517.1057	1802.1799	1812.9386	3008.6699	3029.8931	3071.4295	3084.304	3089.6092	3110.7449	3122.0955	3145.4039
O=C1CCN=C2CCN12	O=C1CC[N][C]2CCN12	
InChI=1S/C6H8N2O/c9-6-1-3-7-5-2-4-8(5)6/h1-4H2	InChI=1S/C6H8N2O/c9-6-1-3-7-5-2-4-8(5)6/h1-4H2
