17
gdb 81817	2.17398	1.73982	1.17816	2.28	74.16	-0.2456	0.0393	0.2849	1078.5754	0.133167	-421.75648	-421.747641	-421.746697	-421.789779	33.444	
C	-0.1664527783	 1.4704908792	 0.0518311876	-0.504596
C	 0.1467002231	 0.0124047105	-0.0036118776	 0.430469
O	-0.6857699909	-0.8989301816	 0.7299144613	-0.293811
C	 0.7339279126	-0.9269520094	 0.9682232658	-0.107205
C	 1.302999735	-1.8303427208	-0.134966579	 0.135924
O	 0.849430162	-3.1433264976	-0.1695156113	-0.42339
C	 0.7097059771	-0.7889332501	-1.2031237096	-0.355821
C	-0.2351034776	-1.2850993462	-2.1779281931	 0.33448
C	-1.0314238158	-1.719631377	-2.9675253418	-0.433114
H	 0.6882070813	 2.0631980905	-0.2892378866	 0.128236
H	-1.0189493334	 1.7033986443	-0.5951450624	 0.143817
H	-0.4184333775	 1.7682264224	 1.0728445742	 0.138442
H	 1.066036983	-0.7838255404	 1.990595922	 0.109422
H	 2.3941457928	-1.8548841231	-0.1706134663	 0.10055
H	-0.1138791975	-3.1010468426	-0.1029451953	 0.29489
H	 1.5305069875	-0.2492119331	-1.6869433964	 0.104503
H	-1.7308826034	-2.0973187052	-3.6716009913	 0.197202
92.4652	119.0751	162.9577	196.8418	235.988	332.3415	352.2207	371.7568	445.9431	540.4815	562.9649	614.9571	627.6115	631.6217	722.4792	752.8615	803.0905	854.3955	890.698	933.4982	1008.6401	1041.6828	1056.544	1090.1393	1114.2081	1156.7282	1193.8496	1253.5575	1257.81	1305.6633	1329.4131	1404.5145	1438.6043	1468.0098	1484.0001	1495.5032	2233.4663	3038.942	3055.3861	3098.8255	3103.934	3124.676	3181.9617	3502.8151	3770.3897
CC12OC1C(O)C2C#C	C[C@]12O[C@H]1[C@@H](O)[C@H]2C#C	
InChI=1S/C7H8O2/c1-3-4-5(8)6-7(4,2)9-6/h1,4-6,8H,2H3	InChI=1S/C7H8O2/c1-3-4-5(8)6-7(4,2)9-6/h1,4-6,8H,2H3/t4-,5+,6+,7-/m1/s1
