21
gdb 13634	2.91213	1.57459	1.21913	1.9815	75.7	-0.2146	0.0764	0.291	1094.1553	0.186667	-366.21808	-366.208449	-366.207505	-366.252518	34.577	
C	-0.4965140113	 1.5217532324	 0.1287631811	-0.240167
O	-0.5050875989	 0.1588447276	 0.4906757643	-0.239067
C	-1.4400710361	-0.6408586901	-0.2247437994	 0.107804
C	-0.929043593	-0.9758249571	-1.6321359355	-0.403512
C	-1.7130487393	-1.9259453994	 0.5481340105	-0.002552
C	-0.8708633296	-2.3523913699	 1.7022319298	-0.243717
N	-2.2695527729	-1.985254518	 1.8982260039	-0.100419
C	-2.5663752552	-0.7538943587	 2.6205846297	-0.322231
H	 0.2020272493	 2.0264892336	 0.8006766578	 0.128463
H	-0.1603673236	 1.6822998928	-0.9052824268	 0.110284
H	-1.4917102523	 1.978585982	 0.2434747681	 0.10669
H	-2.3858803153	-0.0778127964	-0.3164474777	 0.069165
H	-1.6714893751	-1.5616596458	-2.1825759073	 0.119504
H	-0.7287015515	-0.0696770781	-2.2100227644	 0.115392
H	-0.0043088987	-1.5572198028	-1.567966722	 0.128942
H	-2.1195791677	-2.7014399827	-0.1004267727	 0.084768
H	-0.6276596022	-3.4019456608	 1.8507278775	 0.104548
H	-0.1090353826	-1.6482035497	 2.026543688	 0.124558
H	-1.8214669893	 0.0396129435	 2.4841044446	 0.121889
H	-3.5438530971	-0.3776179247	 2.2989760322	 0.112535
H	-2.6374912576	-0.9889418875	 3.6876245683	 0.117123
63.4121	75.6108	160.1253	190.5446	208.1752	215.948	250.9547	303.9778	340.1933	396.2621	409.516	534.4761	605.4356	738.9128	803.7928	866.5527	918.0802	979.6938	1022.7924	1058.9395	1070.7821	1112.5456	1118.5443	1131.1318	1141.2849	1168.7563	1181.6591	1200.2546	1211.3749	1223.9589	1341.1041	1347.0896	1380.0109	1401.2676	1411.7968	1445.4998	1476.4624	1482.8933	1490.6462	1493.0205	1501.0827	1507.5358	1511.3131	1514.6146	2943.5741	2981.4853	3014.8595	3032.5588	3043.0894	3080.869	3091.6273	3099.0668	3103.811	3112.9415	3115.9103	3120.1193	3189.1946
COC(C)C1CN1C	CO[C@@H](C)[C@H]1CN1C	
InChI=1S/C6H13NO/c1-5(8-3)6-4-7(6)2/h5-6H,4H2,1-3H3	InChI=1S/C6H13NO/c1-5(8-3)6-4-7(6)2/h5-6H,4H2,1-3H3/t5-,6+,7?/m0/s1
