20
gdb 94630	3.11891	1.01747	0.87063	3.2122	79.28	-0.2725	0.0124	0.2849	1379.7897	0.170153	-403.142044	-403.132594	-403.13165	-403.177287	34.181	
C	-0.6789808618	 1.1543321793	-0.1490484344	-0.384363
C	 0.1182017206	-0.1458097298	-0.0724649835	-0.033282
C	 1.614452755	 0.0004138724	-0.4897981056	-0.236062
C	 2.0033641276	 0.1013338989	 1.0119043408	-0.246914
C	 0.6202770549	-0.5145418966	 1.348153626	 0.151306
O	-0.1546775775	 0.030578986	 2.4021851437	-0.233372
C	 0.1601179258	-0.4461247325	 3.6808693852	-0.205554
C	 1.4396294589	 0.0684259783	 4.2145549233	 0.263203
N	 2.4373671101	 0.4689548578	 4.637598486	-0.309694
H	-0.1465623716	 1.9861651601	 0.3223980099	 0.121243
H	-0.8602237033	 1.420882629	-1.1954543266	 0.112382
H	-1.6455543103	 1.0558997271	 0.3527173234	 0.123494
H	-0.4358858547	-0.9444365777	-0.5745048094	 0.070304
H	 2.007852224	-0.9027871707	-0.9629898932	 0.103011
H	 1.8580191196	 0.8579796698	-1.1210283739	 0.103952
H	 2.8945930113	-0.4276814768	 1.3535604503	 0.109202
H	 2.0585748027	 1.1374127239	 1.3532882738	 0.123638
H	 0.6898186558	-1.6051822408	 1.475742875	 0.070029
H	-0.6429409164	-0.1237099846	 4.3512351309	 0.159006
H	 0.1993992794	-1.546664003	 3.7085398983	 0.138471
37.3195	75.5943	116.6123	175.0623	221.9667	233.8487	303.1692	362.4616	380.4992	402.5344	494.7684	610.8165	680.3176	764.4433	816.4487	884.3838	897.9001	920.5342	944.7686	959.9651	1008.328	1027.9025	1060.9358	1092.7056	1138.9571	1164.1884	1173.5675	1214.6721	1248.3653	1262.5532	1288.0996	1292.2563	1305.5476	1365.7835	1382.1512	1406.9376	1416.3197	1468.2676	1477.9719	1495.0433	1497.5246	1498.7053	2356.6569	2987.7611	2988.6399	3038.6317	3053.6399	3065.5678	3076.8306	3083.2552	3106.4377	3111.2	3115.7514	3133.9454
CC1CCC1OCC#N	C[C@H]1CC[C@H]1OCC#N	
InChI=1S/C7H11NO/c1-6-2-3-7(6)9-5-4-8/h6-7H,2-3,5H2,1H3	InChI=1S/C7H11NO/c1-6-2-3-7(6)9-5-4-8/h6-7H,2-3,5H2,1H3/t6-,7+/m0/s1
