17
gdb 54006	3.35441	0.98464	0.83016	1.733	74.14	-0.2382	-0.0615	0.1767	1371.0802	0.133496	-455.179579	-455.169816	-455.168872	-455.214904	34.245	
C	 0.2430120935	 1.3154431425	-0.0784472913	-0.472765
C	-0.0258511837	-0.1237007543	 0.2752483996	 0.371294
O	 0.8467154104	-0.9135254684	 0.5672989026	-0.311489
C	-1.4737267489	-0.5987548571	 0.2565967808	 0.261215
N	-1.6062458383	-1.9242674289	 0.5218688601	-0.543855
N	-2.3816528792	 0.2656301441	-0.0431559609	-0.307038
C	-3.7567705003	-0.2251544767	-0.147438625	-0.242563
C	-4.2977674491	-0.4743357537	 1.2519419852	 0.151436
O	-4.2359480981	-1.5478412474	 1.8066022629	-0.243057
H	 1.31210682	 1.512931663	 0.0034739629	 0.135806
H	-0.1081824398	 1.5228084545	-1.0933331196	 0.156302
H	-0.3252405271	 1.9780730657	 0.5797336734	 0.156386
H	-0.753394352	-2.3845431783	 0.8067604417	 0.271559
H	-2.4848293897	-2.276071451	 0.8755562657	 0.279297
H	-4.3584737989	 0.5400466592	-0.6476946393	 0.114856
H	-3.8208733211	-1.1660320461	-0.7138768727	 0.1203
H	-4.7042180979	 0.413182643	 1.7800978939	 0.102318
64.7107	89.1482	107.2832	129.8856	156.998	198.8705	276.9117	341.1469	411.5214	480.3384	500.3877	541.2383	568.2706	609.0457	629.3364	722.8291	790.783	878.526	969.5463	977.6637	1034.1151	1046.3156	1098.0614	1144.7297	1207.7383	1250.7837	1327.045	1375.5658	1400.0761	1414.9125	1452.3962	1459.3846	1491.2606	1613.849	1701.9117	1792.699	1801.7467	2919.9082	2996.9099	3057.7043	3078.7449	3122.7853	3162.4291	3539.7049	3662.7912
CC(=O)C(N)=NCC=O	CC(=O)C(=NCC=O)N	
InChI=1S/C5H8N2O2/c1-4(9)5(6)7-2-3-8/h3H,2H2,1H3,(H2,6,7)	InChI=1S/C5H8N2O2/c1-4(9)5(6)7-2-3-8/h3H,2H2,1H3,(H2,6,7)
