17
gdb 30754	3.15803	1.24885	0.93879	1.3843	72.68	-0.1901	0.0326	0.2227	1247.8106	0.134261	-458.976712	-458.967352	-458.966408	-459.011082	33.355	
C	 0.0642341772	 1.1978896971	-0.351685799	-0.252798
O	-0.1792337047	 0.1408952398	 0.58597132	-0.277535
C	-1.2782222068	-0.5938822972	 0.3440754555	 0.280474
C	-1.4150677385	-1.928838807	 0.1289012286	 0.0928
O	-0.4461184157	-2.8813812457	 0.0281108611	-0.450192
C	-2.8246067227	-2.1932566132	 0.0281164598	 0.18036
C	-3.462965838	-3.5241566703	-0.2069015201	-0.497619
C	-3.422648397	-0.9821571433	 0.1866703988	-0.108074
O	-2.5028925329	 0.0081390238	 0.3897065265	-0.186292
H	 1.0042017855	 1.6645117601	-0.0524679891	 0.134489
H	 0.1517519908	 0.8008776455	-1.370062294	 0.122236
H	-0.7405346606	 1.9386765283	-0.3187630891	 0.140209
H	 0.402496877	-2.4566936833	 0.1980194175	 0.299379
H	-3.200348128	-4.2364933209	 0.5830117795	 0.135483
H	-4.5524286465	-3.4370261434	-0.2363837671	 0.121671
H	-3.1319352826	-3.9646252057	-1.1539647221	 0.134034
H	-4.4532957668	-0.6686643345	 0.1762674832	 0.131376
67.0085	124.0352	131.685	153.8968	224.1622	229.5181	291.7241	321.7058	362.9583	414.4859	550.9717	565.2371	628.6311	683.155	706.8551	740.1472	753.9227	961.6967	1010.6173	1065.4206	1068.2094	1150.2348	1163.5057	1178.8748	1214.9923	1265.8401	1297.1522	1335.7464	1420.0947	1460.0201	1479.115	1483.6435	1486.8986	1505.1331	1514.3463	1620.7022	1725.9986	3022.8259	3032.1874	3083.5811	3098.5145	3113.594	3141.0277	3275.8601	3807.7467
COC1=C(O)C(C)=CO1	COc1c(O)c(C)co1	
InChI=1S/C6H8O3/c1-4-3-9-6(8-2)5(4)7/h3,7H,1-2H3	InChI=1S/C6H8O3/c1-4-3-9-6(8-2)5(4)7/h3,7H,1-2H3
