17
gdb 124326	3.82348	1.16127	0.90062	2.0803	78.82	-0.2573	-0.0377	0.2196	1270.9315	0.13569	-418.073263	-418.064528	-418.063584	-418.107126	31.348	
C	-0.1397779705	 1.493538239	-0.0351472003	-0.484775
C	 0.0280850523	-0.003697551	-0.0043163051	 0.429502
O	 1.0862979328	-0.584103292	 0.0044281955	-0.317082
N	-1.1744849234	-0.7456275789	 0.0152639633	-0.034446
C	-1.2740501046	-2.11322333	 0.0446506511	 0.015572
C	-2.6070680007	-2.4061163362	 0.055348557	-0.31253
C	-3.2711445316	-1.1402062584	 0.0307520105	 0.361769
C	-4.7419959792	-0.8731213822	 0.0300378602	-0.48932
N	-2.4007836508	-0.1454410618	 0.0066987466	-0.322297
H	 0.8509417493	 1.9464046522	-0.0510033421	 0.142834
H	-0.7144994063	 1.7964685046	-0.913846478	 0.160642
H	-0.7027156224	 1.8333159411	 0.8377715886	 0.160579
H	-0.3849006815	-2.720620725	 0.054560267	 0.163335
H	-3.0590469625	-3.3850480644	 0.0776117135	 0.112669
H	-5.2202640377	-1.2917393275	 0.9222149058	 0.135134
H	-4.928016826	 0.2022537813	 0.0080073287	 0.143275
H	-5.2261483671	-1.3288594508	-0.8405157723	 0.135138
88.7543	107.9285	120.7888	141.5008	182.9863	296.5344	348.7522	391.9598	520.076	571.3299	642.6156	642.7699	682.178	695.1876	799.5203	885.0347	949.1468	973.4177	1001.2634	1037.3823	1058.0387	1064.0744	1064.605	1135.2869	1255.9416	1285.7387	1372.6578	1397.5625	1418.9544	1444.3493	1459.7489	1467.6922	1475.2711	1482.766	1491.0714	1600.6876	1817.6682	3038.0868	3064.9589	3090.5463	3131.8981	3137.9737	3171.1342	3261.2298	3293.7422
CC(=O)N1C=CC(C)=N1	CC(=O)n1ccc(C)n1	
InChI=1S/C6H8N2O/c1-5-3-4-8(7-5)6(2)9/h3-4H,1-2H3	InChI=1S/C6H8N2O/c1-5-3-4-8(7-5)6(2)9/h3-4H,1-2H3
