19
gdb 103363	3.13945	1.50844	1.31561	2.5803	75.36	-0.2314	-0.0022	0.2292	1039.0362	0.157635	-422.95942	-422.951022	-422.950078	-422.992262	32.544	
C	-0.1463789517	 1.342854661	 0.0240910684	-0.25068
O	 0.2352927529	-0.0161415295	-0.0054258562	-0.278108
C	 0.82482036	-0.5309843544	 1.160954166	 0.451916
C	 2.1574422296	 0.1486681896	 1.4508827885	-0.485682
C	-0.2322088816	-0.8534754062	 2.3153838017	-0.053487
O	-0.7440961107	-1.908864073	 1.4505903136	-0.275354
C	 0.6649905787	-2.1031661318	 1.1251847768	-0.035094
C	 1.2425442372	-2.5115769675	 2.4842986055	-0.092422
C	 0.6288247136	-1.6489566298	 3.3014074744	-0.085051
H	 0.714736191	 2.0253770565	 0.0387619	 0.10819
H	-0.7173904612	 1.5257313055	-0.8891885939	 0.132288
H	-0.787617515	 1.572191178	 0.8871766805	 0.106066
H	 2.0081974267	 1.1964326995	 1.7300489871	 0.119735
H	 2.7002433571	-0.3362468087	 2.2605438291	 0.128213
H	 2.7751838353	 0.1307694138	 0.547219248	 0.126605
H	-0.9821522305	-0.1493527797	 2.6738724782	 0.078816
H	 0.8528187302	-2.6881141754	 0.2262152229	 0.082583
H	 1.9817565737	-3.2732917254	 2.6831811324	 0.111603
H	 0.7204303446	-1.4948541624	 4.3665806473	 0.109864
70.0589	156.2563	177.9133	209.4567	278.0182	324.8492	402.8546	411.5464	500.7866	570.8161	611.7168	634.698	731.7592	759.2913	845.3503	854.7611	885.4587	914.7167	918.0073	920.3586	953.6631	998.2679	1082.0924	1120.0447	1135.877	1144.472	1170.6088	1180.497	1195.3921	1226.7846	1242.43	1259.9496	1300.8619	1308.1746	1400.9441	1477.2724	1485.8479	1490.8547	1506.1858	1510.7615	1606.6668	2990.7534	3040.0716	3048.6653	3105.3344	3116.0569	3130.8068	3141.5733	3158.2421	3229.522	3256.2434
COC1(C)C2OC1C=C2	CO[C@@]1(C)[C@H]2O[C@@H]1C=C2	
InChI=1S/C7H10O2/c1-7(8-2)5-3-4-6(7)9-5/h3-6H,1-2H3	InChI=1S/C7H10O2/c1-7(8-2)5-3-4-6(7)9-5/h3-6H,1-2H3/t5-,6+,7-
