19
gdb 20072	4.22103	1.56631	1.42272	1.8113	70.87	-0.2365	0.0764	0.3129	954.2598	0.168029	-365.040261	-365.032807	-365.031863	-365.072642	28.03	
C	 0.2954109835	 1.4795495001	 0.251913959	-0.235686
N	 1.2990838195	 0.4149725711	 0.0444579087	-0.315702
C	-0.1307054945	 0.0728014487	 0.0713265911	-0.024431
C	-0.5883251161	-0.7883283104	 1.2350582971	 0.134287
C	-0.0436087906	-2.2370358543	 1.1614233712	-0.24659
C	 0.4063639496	-2.5206336527	 2.6039047242	-0.214279
C	 0.8131980113	-1.1223354909	 3.0699621843	-0.066709
O	-0.1472410511	-0.2483339908	 2.4828073277	-0.26798
H	 0.2938475426	 1.8979125647	 1.2521414416	 0.135084
H	 0.1084213029	 2.1844379713	-0.5540701429	 0.104264
H	 1.6358717894	 0.4387510239	-0.9140685338	 0.228485
H	-0.607414213	-0.1842340071	-0.8746667476	 0.078238
H	-1.6875886569	-0.7811520335	 1.2521056431	 0.071203
H	-0.7918740831	-2.9436923879	 0.795214982	 0.09906
H	 0.8168311501	-2.2698607462	 0.4861871499	 0.111738
H	-0.4297483406	-2.889470308	 3.2072771102	 0.103557
H	 1.2201116377	-3.2478054154	 2.665703842	 0.099466
H	 0.7686667651	-0.9853993715	 4.154574683	 0.099312
H	 1.8242301241	-0.869499791	 2.7209628493	 0.106681
54.9094	96.1002	204.1816	244.5545	272.465	433.8746	575.5269	600.1394	679.8118	770.7592	862.1353	879.4419	891.981	896.8824	918.3327	939.5363	950.9563	973.0014	1015.3356	1039.9608	1093.8137	1120.7589	1129.254	1138.0462	1185.7062	1207.3432	1217.8862	1261.2633	1264.7288	1284.8211	1307.2751	1337.6789	1345.7261	1373.7666	1397.2226	1432.575	1483.8702	1496.5284	1502.7763	1521.1536	2997.2135	3007.647	3049.5368	3057.0397	3082.7713	3101.2457	3105.6795	3114.2799	3117.7272	3216.2156	3504.6713
C1NC1C1CCCO1	C1N[C@H]1[C@H]1CCCO1	
InChI=1S/C6H11NO/c1-2-6(8-3-1)5-4-7-5/h5-7H,1-4H2	InChI=1S/C6H11NO/c1-2-6(8-3-1)5-4-7-5/h5-7H,1-4H2/t5-,6-/m1/s1
