16
gdb 29447	3.15956	1.64821	1.09785	1.6454	76.48	-0.2064	-0.0083	0.1981	1058.3984	0.126043	-400.786499	-400.77929	-400.778346	-400.818082	27.714	
C	-0.0191650819	 1.5220630468	 0.037008504	-0.500616
C	-0.0066425272	 0.0282327627	 0.0248574965	 0.215731
C	-0.0261642152	-0.8006455577	-1.0442285581	-0.191861
C	-0.0031937218	-2.2797752305	-0.6471926933	-0.420146
C	 0.0325719914	-2.1261033617	 0.8322248022	 0.294741
C	 0.0308040221	-0.8306802138	 1.2166317086	 0.194827
N	 0.0646427215	-0.7532024226	 2.6015847432	-0.347903
C	 0.0847722164	-1.9999923562	 2.9598634307	 0.027318
O	 0.0669899229	-2.9145411166	 1.9340555993	-0.195556
H	 0.8713498631	 1.9172498194	 0.539256555	 0.137972
H	-0.0529855061	 1.9273488877	-0.9773570097	 0.123201
H	-0.8845184363	 1.9021076928	 0.5920439787	 0.13799
H	-0.0550537081	-0.4885350086	-2.0803589402	 0.097212
H	-0.8892717267	-2.8139604982	-1.0128516623	 0.140059
H	 0.8727282011	-2.7984118084	-1.0570421613	 0.140057
H	 0.1133133048	-2.4118291352	 3.9560932467	 0.146975
149.9861	184.1818	196.0358	233.5288	295.8939	489.444	511.3655	582.6113	639.3088	644.1044	733.7643	754.8757	769.5626	799.6054	930.0596	934.4525	940.1656	1012.3954	1063.587	1066.0401	1085.082	1122.9907	1152.3906	1236.815	1252.7842	1295.4786	1388.9678	1414.6602	1435.2094	1446.8908	1476.0405	1489.7566	1517.9269	1591.7967	1663.5503	3030.3417	3033.7495	3063.8814	3081.3448	3119.0817	3216.0897	3280.5431
CC1=CCC2=C1N=CO2	CC1=CCc2c1nco2	
InChI=1S/C7H7NO/c1-5-2-3-6-7(5)8-4-9-6/h2,4H,3H2,1H3	InChI=1S/C7H7NO/c1-5-2-3-6-7(5)8-4-9-6/h2,4H,3H2,1H3
