22
gdb 7975	3.23054	1.57499	1.19799	0.2404	84.36	-0.2247	0.0338	0.2585	1112.4994	0.200129	-313.100464	-313.091553	-313.090609	-313.133311	34.125	
C	-0.1192497746	 1.5573598513	-0.0886615369	-0.411017
C	 0.0916923974	 0.045831823	-0.0184533984	 0.033946
C	 0.9277006795	-0.5456180385	-1.1804200197	-0.307409
C	 1.5495471142	-1.7871998842	-0.5740149413	 0.331048
C	 2.2151231983	-2.8292437038	-1.41608376	-0.493108
C	 1.4365560133	-1.7669519649	 0.7560372567	-0.16834
C	 0.7716492283	-0.5109711526	 1.2756292656	-0.031869
C	 1.795597162	 0.4272132503	 1.9411344264	-0.386689
H	 0.8306126978	 2.1016680309	-0.0668252783	 0.114897
H	-0.6341165213	 1.8327237317	-1.0156053211	 0.109104
H	-0.7304548738	 1.9183576167	 0.7458843027	 0.109988
H	-0.8933049854	-0.4349521667	-0.0688441087	 0.073821
H	 0.3143468596	-0.7627282571	-2.064070093	 0.093265
H	 1.7097669338	 0.1515209712	-1.5196187859	 0.095804
H	 3.0341753433	-2.3976215543	-2.0063579823	 0.122199
H	 2.6267100273	-3.6396977597	-0.8079865675	 0.120277
H	 1.5129076444	-3.2664823013	-2.1377511389	 0.121598
H	 1.836798054	-2.5278008985	 1.420111918	 0.076367
H	 0.0044867224	-0.7434509937	 2.0263408807	 0.064445
H	 2.5803641128	 0.7258554573	 1.2380184149	 0.113189
H	 1.3213411372	 1.3343006639	 2.329431406	 0.110104
H	 2.2843809593	-0.077073581	 2.781547701	 0.108379
100.4463	142.1818	192.0386	237.2363	240.7419	261.5784	273.1896	373.2511	393.1904	470.1836	490.8851	566.4213	673.0256	749.8699	844.3212	876.2074	891.3011	923.7028	949.6606	995.1013	1014.6108	1027.1333	1045.2215	1085.5085	1097.5885	1133.1762	1155.9128	1190.307	1219.0834	1281.2634	1300.5858	1324.1899	1350.7563	1361.6415	1372.8917	1402.0329	1412.2683	1414.2502	1479.0569	1487.4	1489.0094	1490.274	1493.6311	1503.4013	1506.1689	1722.2905	2987.6365	3002.1262	3013.4214	3020.5267	3026.1774	3030.1371	3041.9788	3057.5315	3090.0739	3094.3707	3099.2135	3102.3255	3106.6926	3170.0622
CC1CC(C)=CC1C	C[C@H]1CC(=C[C@H]1C)C	
InChI=1S/C8H14/c1-6-4-7(2)8(3)5-6/h4,7-8H,5H2,1-3H3	InChI=1S/C8H14/c1-6-4-7(2)8(3)5-6/h4,7-8H,5H2,1-3H3/t7-,8+/m1/s1
