23
gdb 122341	3.33746	0.67623	0.64003	1.2186	82.74	-0.2442	0.0606	0.3048	1846.0838	0.203779	-425.404018	-425.392988	-425.392044	-425.440964	39.483	
C	-0.0341985013	 1.5872649436	-0.262652504	-0.403747
C	 0.0225635917	 0.085698215	-0.0745065031	-0.060537
C	 1.3318100955	-0.655562665	-0.0991130067	 0.078018
O	 2.4830811135	 0.1264301247	-0.2615452411	-0.417879
C	 0.5477376746	-0.5672577948	 1.1961445952	-0.058813
C	 1.0753508391	 0.2320641589	 2.3702528208	-0.219595
C	 1.953714883	-0.6146872717	 3.3009120553	-0.158037
C	 2.4613878278	 0.1606922045	 4.5086290867	-0.075578
O	 3.2711859733	-0.7118043048	 5.2831492082	-0.422702
H	 0.889941215	 2.0711245151	 0.0567459357	 0.134759
H	-0.1802658706	 1.8324007698	-1.320052936	 0.115775
H	-0.8672434784	 2.0254184468	 0.2978006066	 0.110578
H	-0.8042859751	-0.4433873015	-0.5418467356	 0.081787
H	 1.3666645925	-1.6146702413	-0.6158979156	 0.079609
H	 3.1958478879	-0.2866104102	 0.237129996	 0.289664
H	 0.0362201687	-1.4822467857	 1.4892140411	 0.077075
H	 1.6530107649	 1.0879522544	 2.0075558085	 0.107049
H	 0.2327562862	 0.6455667263	 2.941108439	 0.094359
H	 1.3966012935	-1.4896812521	 3.6577018965	 0.104674
H	 2.8193533009	-1.0058777161	 2.751027769	 0.09119
H	 3.0331295771	 1.0415480335	 4.1720551172	 0.083303
H	 1.6056501611	 0.5356438723	 5.0942525715	 0.084221
H	 3.5854911692	-0.227165142	 6.0517914446	 0.284827
49.2893	76.0303	95.2024	127.8948	156.4981	195.8514	211.8756	262.9808	271.1324	310.6345	333.2701	406.5804	506.0482	576.6613	590.8983	748.548	763.2995	803.6186	868.4522	893.9959	967.8288	984.1887	1024.3847	1047.1285	1063.9983	1074.1839	1102.0888	1109.9129	1156.5685	1180.0414	1183.968	1220.2922	1233.2589	1254.6887	1293.5437	1300.9952	1307.2577	1319.0395	1366.1054	1376.7907	1408.8453	1419.337	1460.9942	1463.6184	1484.9124	1495.5419	1499.2621	1506.6276	1528.4164	2956.8266	2981.2134	3013.1593	3026.8832	3036.2288	3059.9173	3083.8975	3089.9789	3091.9984	3117.8461	3129.6116	3144.2477	3803.7277	3830.5504
CC1C(O)C1CCCO	C[C@H]1[C@@H](O)[C@H]1CCCO	
InChI=1S/C7H14O2/c1-5-6(7(5)9)3-2-4-8/h5-9H,2-4H2,1H3	InChI=1S/C7H14O2/c1-5-6(7(5)9)3-2-4-8/h5-9H,2-4H2,1H3/t5-,6+,7-/m1/s1
