20
gdb 83466	3.54121	1.02826	0.93251	2.9728	79.72	-0.2295	-0.0229	0.2066	1320.3721	0.169623	-403.114835	-403.105681	-403.104737	-403.149554	33.63	
C	-0.0314142006	 1.4641826535	-0.376007729	-0.429599
C	 0.0497952855	 0.0389803869	 0.1202652908	-0.026091
N	 1.2360765711	-0.8400693374	-0.01598115	-0.189327
C	 2.4531395935	 0.0094677569	 0.2485622142	-0.150909
C	 1.9735137718	 0.3849457094	 1.6709365153	-0.315657
C	 0.7088438312	-0.4259047964	 1.3629309735	 0.309807
C	 0.0845259565	-1.4125903647	 2.3197870244	-0.379296
C	 1.0890272862	-2.4342370458	 2.8178306199	 0.155331
O	 1.3174317041	-2.6653440001	 3.977526502	-0.243108
H	 0.7793954675	 2.0986779883	-0.0132012802	 0.125294
H	-0.0174371907	 1.4898006168	-1.4711237717	 0.131169
H	-0.9737040674	 1.9136217325	-0.0460819735	 0.126244
H	-0.839604443	-0.5382395972	-0.129978107	 0.09293
H	 3.3416595374	-0.6243117991	 0.2385845011	 0.114796
H	 2.5969856915	 0.8223327546	-0.4690055277	 0.107324
H	 2.5842940941	-0.0663788641	 2.4556612298	 0.123026
H	 1.8313936053	 1.4423393241	 1.9127172867	 0.10586
H	-0.3580211415	-0.9036648406	 3.1829408559	 0.123187
H	-0.7109143514	-1.9605136877	 1.7971684464	 0.124737
H	 1.623956189	-2.9718045999	 2.0034200692	 0.094283
46.7029	62.1458	147.8717	174.156	261.6324	266.2567	300.3907	323.4728	450.4129	493.7239	560.1916	631.9178	714.7723	763.3423	793.1267	832.2909	852.4391	931.7524	959.6866	977.2821	1019.2085	1055.0725	1075.3083	1113.2342	1121.492	1139.504	1185.8781	1191.1933	1220.1767	1246.9352	1279.0698	1288.2914	1327.607	1351.3935	1411.1688	1419.0671	1445.694	1453.6132	1482.5575	1503.5597	1505.5515	1519.1963	1831.1523	2889.8422	3024.7094	3040.1809	3054.94	3062.3074	3086.6003	3098.3117	3104.2693	3109.9966	3121.4111	3133.6403
CC1N2CCC12CC=O	C[C@H]1N2CC[C@@]12CC=O	
InChI=1S/C7H11NO/c1-6-7(3-5-9)2-4-8(6)7/h5-6H,2-4H2,1H3	InChI=1S/C7H11NO/c1-6-7(3-5-9)2-4-8(6)7/h5-6H,2-4H2,1H3/t6-,7-,8?/m1/s1
