21
gdb 93731	3.05184	1.14556	1.05783	3.8483	78.61	-0.2446	-0.0133	0.2313	1226.8648	0.18164	-424.254195	-424.244815	-424.243871	-424.288485	35.44	
C	 0.1149614629	 1.6018423782	 0.2909248749	-0.450295
C	 0.0459490133	 0.0878003202	 0.0724002344	 0.247766
C	 0.932216248	-0.3778056992	-1.1402051166	-0.258843
C	 1.8462845767	-1.4983758314	-0.6092850477	-0.239919
C	 2.0181867934	-1.1627925464	 0.877493173	 0.128683
O	 2.8850463207	-0.0477826894	 1.0754167258	-0.434548
C	 0.6122634878	-0.7178028712	 1.28715931	-0.268553
C	-1.383048909	-0.355565815	-0.1813904027	 0.122568
O	-2.3524151458	 0.3572057004	-0.1935800335	-0.257224
H	 1.1417570504	 1.8928486915	 0.5238458821	 0.130303
H	-0.2163558984	 2.1401688206	-0.6019781807	 0.118063
H	-0.5355345921	 1.9071133377	 1.1150522747	 0.122531
H	 0.3322780214	-0.7092457127	-1.9941065877	 0.103403
H	 1.5248770341	 0.4738494752	-1.4821315201	 0.116322
H	 1.3609850583	-2.4774900646	-0.7019151419	 0.102059
H	 2.8012313849	-1.5628966315	-1.1421947673	 0.091025
H	 2.3647425155	-2.024170294	 1.4663359621	 0.062864
H	 3.7481375662	-0.2725548619	 0.7134968779	 0.282708
H	 0.6240793791	-0.1225720661	 2.2026954289	 0.119579
H	 0.0052215594	-1.6112097892	 1.478736211	 0.097746
H	-1.4818200566	-1.453290531	-0.3719519567	 0.063762
55.4653	83.4546	159.3655	247.4348	261.222	288.3449	308.2628	355.4176	389.0979	393.7827	406.0169	473.1868	663.9013	734.0216	772.7445	821.8025	858.011	880.3111	909.5625	948.9799	979.4748	988.8883	1022.3133	1026.976	1077.9361	1096.116	1139.6531	1171.6168	1201.9617	1226.788	1247.7034	1292.5413	1322.3502	1336.2932	1353.7944	1368.1503	1404.1622	1419.6599	1431.049	1471.4279	1480.811	1493.4971	1495.1844	1499.0811	1831.2522	2822.4326	2995.7669	3030.6918	3038.9737	3046.3094	3053.7675	3072.5855	3102.1376	3110.8347	3116.4044	3134.4555	3817.4177
CC1(CCC(O)C1)C=O	C[C@]1(CC[C@@H](O)C1)C=O	
InChI=1S/C7H12O2/c1-7(5-8)3-2-6(9)4-7/h5-6,9H,2-4H2,1H3	InChI=1S/C7H12O2/c1-7(5-8)3-2-6(9)4-7/h5-6,9H,2-4H2,1H3/t6-,7-/m1/s1
