19
gdb 105016	2.51405	1.32935	0.99863	1.2581	75.63	-0.2606	0.0152	0.2757	1205.1398	0.159838	-419.19591	-419.186578	-419.185634	-419.229963	34.91	
N	 1.3036675302	-0.2042641526	-0.9036083513	-0.50592
C	 0.1242644267	-0.1532394148	-0.0192822525	-0.20611
C	-1.0188962366	-0.9049292598	-0.578868869	 0.262171
N	-1.8852123817	-1.5033209932	-1.0568595748	-0.330806
C	 0.5039630398	-0.6094649644	 1.3910874848	 0.330169
C	 1.5696541366	 0.27141454	 2.0336099235	-0.12575
O	 2.8558007748	 0.122920705	 1.4714927104	-0.425471
C	-0.5488820989	-1.2000527445	 2.2959933065	-0.326042
C	 0.5257840532	-2.0840573767	 1.7139014179	-0.298652
H	 1.5811313089	-1.1726525397	-1.041759743	 0.255027
H	 1.0794534559	 0.1758884907	-1.81850728	 0.251487
H	-0.185687125	 0.898610214	 0.0364655745	 0.136496
H	 1.2310258431	 1.3224754368	 1.9964765412	 0.079955
H	 1.6597352417	 0.0031199228	 3.091496089	 0.102482
H	 2.7419768636	 0.2470844039	 0.5171940635	 0.287011
H	-0.4964050721	-0.9435992394	 3.3484781389	 0.118998
H	-1.5572655095	-1.3183366654	 1.9154551133	 0.137669
H	 0.2227375361	-2.7889840912	 0.9466618973	 0.127633
H	 1.3233847531	-2.4361645115	 2.3579392997	 0.129651
67.3067	122.9355	146.544	209.8182	245.3764	268.5942	301.9241	332.6997	363.6811	397.5444	509.7828	582.008	597.1273	644.3242	750.7604	790.7977	859.5083	913.2644	928.9385	944.72	978.9924	998.541	1039.1327	1062.4123	1089.1108	1093.415	1096.3066	1186.5854	1204.8897	1214.7802	1267.3533	1347.4454	1362.3238	1381.5493	1394.9768	1467.4528	1474.607	1497.2873	1512.7397	1650.2193	2346.0297	2942.3542	3029.2365	3066.5548	3135.765	3137.7783	3215.9641	3228.0733	3491.2209	3573.7601	3696.0808
NC(C#N)C1(CO)CC1	N[C@@H](C#N)C1(CO)CC1	
InChI=1S/C6H10N2O/c7-3-5(8)6(4-9)1-2-6/h5,9H,1-2,4,8H2	InChI=1S/C6H10N2O/c7-3-5(8)6(4-9)1-2-6/h5,9H,1-2,4,8H2/t5-/m0/s1
