16
gdb 16708	3.03834	2.188	1.75775	2.6516	63.68	-0.2487	-0.0149	0.2338	808.4904	0.130953	-383.731433	-383.724556	-383.723612	-383.762428	26.411	
C	-0.0905178807	 1.5444620259	 0.0167458638	-0.419048
C	 0.0511629407	 0.0234439014	 0.0239944923	 0.018426
C	 0.9953963289	-0.5693821542	-1.0873697256	-0.251584
C	 1.9912465038	-1.3076809652	-0.175815567	-0.03962
O	 1.1133683395	-1.9159783226	 0.8307582764	-0.295335
C	 0.7918410234	-0.549532086	 1.2530386927	-0.050519
C	 2.2775210239	-0.2664683606	 0.9311601553	 0.447903
O	 3.210764886	 0.2902456802	 1.4161719847	-0.315854
H	 0.8849971811	 2.0381065986	 0.0891127993	 0.131448
H	-0.5694514563	 1.8864752461	-0.9057946827	 0.124991
H	-0.7019592622	 1.8904637298	 0.8569086198	 0.122253
H	-0.9358859758	-0.4441681543	-0.0334355164	 0.08995
H	 0.4777957812	-1.2623577014	-1.7537374044	 0.117629
H	 1.4777089792	 0.2044702609	-1.6925387134	 0.11356
H	 2.7364627624	-1.980708305	-0.5944749155	 0.104046
H	 0.3488295549	-0.4728793437	 2.2441853107	 0.101752
117.1413	169.2992	228.7782	300.5878	399.7119	450.1094	499.54	621.4793	658.9051	757.2134	809.8286	860.7291	873.0477	895.8593	926.9397	947.1986	994.3228	1052.0098	1055.1327	1071.9123	1112.4744	1175.2234	1187.4691	1223.9874	1229.1654	1275.1044	1309.2605	1324.0752	1355.6295	1414.0378	1486.3649	1497.7839	1499.0208	1922.816	3031.2587	3059.4389	3063.4312	3099.0196	3105.6357	3115.7551	3149.866	3155.1682
CC1CC2OC1C2=O	C[C@H]1C[C@@H]2O[C@H]1C2=O	
InChI=1S/C6H8O2/c1-3-2-4-5(7)6(3)8-4/h3-4,6H,2H2,1H3	InChI=1S/C6H8O2/c1-3-2-4-5(7)6(3)8-4/h3-4,6H,2H2,1H3/t3-,4-,6+/m0/s1
