21
gdb 63985	2.93439	1.46798	1.31408	2.0559	77.63	-0.2443	0.0837	0.328	1081.1899	0.182944	-424.227668	-424.219338	-424.218394	-424.260055	33.04	
C	 0.2682384367	 1.4235459125	-0.2276928531	-0.443754
C	 0.0194665646	-0.0566473552	 0.0199401204	 0.42649
C	-1.4648232062	-0.4022241365	-0.0041336589	-0.425206
O	 0.7362617651	-0.8703784983	-0.9622478594	-0.340552
C	 1.4435155723	-1.5921384808	 0.0592699517	 0.119164
C	 2.9281551258	-1.2449852743	 0.131042829	-0.10727
O	 3.0024253738	 0.0077605362	 0.8036623085	-0.245763
C	 1.9852978442	-0.0015831239	 1.8007321035	-0.108983
C	 0.7992017468	-0.7447061166	 1.1846144514	-0.158195
H	 1.3381358312	 1.6394695268	-0.237944153	 0.142611
H	-0.1495476397	 1.7071610806	-1.1992066452	 0.120354
H	-0.2157713559	 2.0378670146	 0.5394830422	 0.109465
H	-1.8989875057	-0.138420153	-0.9736455317	 0.123169
H	-1.6184843804	-1.4733338408	 0.1571263466	 0.115322
H	-2.005334973	 0.1460483843	 0.7755058025	 0.112014
H	 1.2512191375	-2.6692436118	 0.0148868961	 0.075327
H	 3.4669064821	-2.0249072707	 0.6955500579	 0.08495
H	 3.3853547192	-1.1328709115	-0.8549516311	 0.120945
H	 2.3304692108	-0.5325814916	 2.7033565851	 0.091115
H	 1.7772585782	 1.0366203133	 2.0723999159	 0.113774
H	 0.1745621827	-1.2491692432	 1.9221992418	 0.075024
106.82	194.8513	227.433	249.6593	284.1664	304.4616	337.8915	396.7247	401.2708	488.3661	597.8534	709.0217	739.3017	831.7826	857.8966	882.7514	904.4927	934.0357	942.5856	975.3835	991.0948	997.7475	1032.1509	1048.4991	1085.4142	1114.4915	1176.829	1196.3531	1216.2565	1224.1594	1247.6342	1281.1463	1290.3147	1337.6141	1347.4355	1350.7499	1398.5817	1401.9212	1415.9688	1475.8572	1484.6371	1488.7876	1494.4451	1507.8706	1516.556	2963.1292	2970.5877	3030.4033	3037.6018	3052.4121	3091.8985	3099.117	3105.686	3105.9067	3108.8959	3112.7345	3135.352
CC1(C)OC2COCC12	CC1(C)O[C@H]2COC[C@@H]12	
InChI=1S/C7H12O2/c1-7(2)5-3-8-4-6(5)9-7/h5-6H,3-4H2,1-2H3	InChI=1S/C7H12O2/c1-7(2)5-3-8-4-6(5)9-7/h5-6H,3-4H2,1-2H3/t5-,6+/m1/s1
