16
gdb 18136	3.31253	1.99514	1.56447	3.9336	68.33	-0.2501	0.0096	0.2597	845.8068	0.131354	-342.748702	-342.741431	-342.740487	-342.780007	27.418	
C	-0.3390345054	 1.4820010368	-0.0501893937	-0.427936
C	-0.0083361849	 0.0080278739	-0.0713502697	 0.027555
C	 0.6066204154	-0.7397537056	-1.1842104884	-0.039413
C	 1.6691944611	 0.0731719895	-1.9212072079	-0.282694
C	 2.3894198034	 0.1944996512	-0.5475670119	-0.093691
C	 2.7240566532	 1.5092124266	-0.0097530253	 0.293145
N	 3.0133036921	 2.5480227414	 0.4076741371	-0.332101
N	 1.3235454469	-0.6072905549	 0.1673435244	-0.162814
H	 0.2871406704	 2.0850972118	-0.7091326193	 0.138093
H	-1.3792985865	 1.6143013311	-0.3660900933	 0.124491
H	-0.2405527443	 1.8864780115	 0.9614449761	 0.145799
H	-0.7326676522	-0.5870735242	 0.4825920238	 0.10854
H	 0.2324214913	-1.6998778647	-1.5237702299	 0.105224
H	 2.2528256136	-0.5046830141	-2.6378801697	 0.12791
H	 1.3357385275	 0.9972690627	-2.3983264768	 0.127619
H	 3.3019243083	-0.4068343029	-0.5301727155	 0.140274
130.2303	155.1405	211.0298	272.0262	282.0296	394.4067	493.3052	526.547	598.7037	699.6613	743.5612	770.469	829.1896	905.2828	963.3452	978.0687	993.0418	1062.9917	1072.3033	1083.7919	1111.1644	1151.443	1164.761	1249.5377	1256.0434	1277.8036	1346.7857	1361.5181	1417.3825	1441.9745	1484.8537	1496.7966	1504.6106	2349.7788	3045.7249	3077.3371	3078.7587	3107.6733	3120.5209	3138.0067	3141.6451	3168.6473
CC1C2CC(C#N)N12	C[C@H]1[C@H]2C[C@@H](C#N)N12	
InChI=1S/C6H8N2/c1-4-6-2-5(3-7)8(4)6/h4-6H,2H2,1H3	InChI=1S/C6H8N2/c1-4-6-2-5(3-7)8(4)6/h4-6H,2H2,1H3/t4-,5-,6+,8?/m0/s1
