20
gdb 121162	2.63715	1.17798	0.90403	2.3142	75.79	-0.2434	0.0578	0.3012	1336.899	0.170103	-440.217944	-440.20867	-440.207726	-440.252691	33.398	
C	-0.5547881496	 1.2998795871	-0.363585835	-0.22616
O	-0.7715285543	-0.0815375751	-0.5415685311	-0.239857
C	-0.822006174	-0.7953770086	 0.6766145438	-0.085648
C	-1.0204526055	-2.2603937497	 0.3303691131	 0.049936
O	-1.114286777	-3.0850650525	 1.5124772297	-0.304962
C	-2.393979815	-3.6346730158	 1.105616292	-0.131199
C	-2.4090770951	-2.720270962	-0.1130295974	 0.277616
C	-3.4870202238	-1.9356280912	-0.7454421083	-0.30436
N	-2.8643698308	-3.0852378013	-1.4411558947	-0.362541
H	-0.5287054766	 1.7579434796	-1.3551693504	 0.129133
H	-1.3599809754	 1.7667729095	 0.2245386898	 0.108249
H	 0.4010278944	 1.4966268103	 0.1457986689	 0.110235
H	 0.1125720077	-0.6724520771	 1.2487089097	 0.099597
H	-1.6509392329	-0.4428062801	 1.3110167556	 0.092104
H	-0.209364248	-2.5916206639	-0.3349435229	 0.083733
H	-2.3289089988	-4.7042074471	 0.8717428201	 0.112338
H	-3.1688600721	-3.4695374767	 1.8633687089	 0.106919
H	-4.521352305	-2.090583786	-0.4494139006	 0.117627
H	-3.2419785759	-0.9317594362	-1.0791789283	 0.129362
H	-2.2034484023	-2.7504087232	-2.1394524428	 0.237877
70.9433	79.0232	108.2039	178.0505	215.3315	240.9529	295.0365	323.5427	372.5425	421.552	540.9803	582.3523	803.9942	845.573	893.1566	932.725	965.9489	977.9768	1006.197	1028.3168	1033.6986	1057.8943	1094.51	1124.5831	1140.8944	1150.9115	1163.4952	1186.13	1222.3501	1234.8647	1265.8742	1268.0166	1293.3751	1327.5677	1361.9195	1419.0044	1443.0658	1481.3766	1485.7396	1502.5283	1512.557	1518.1492	1525.4569	2963.741	2978.7145	2990.2007	3009.5246	3020.6384	3023.7195	3067.8034	3109.8845	3116.3787	3201.5811	3487.8864
COCC1OCC11CN1	COC[C@H]1OC[C@]21CN2	
InChI=1S/C6H11NO2/c1-8-2-5-6(3-7-6)4-9-5/h5,7H,2-4H2,1H3	InChI=1S/C6H11NO2/c1-8-2-5-6(3-7-6)4-9-5/h5,7H,2-4H2,1H3/t5-,6+/m1/s1
