20
gdb 59222	2.58207	1.43407	1.16726	3.5493	79.51	-0.23	0.0156	0.2456	1152.481	0.170227	-403.146803	-403.137803	-403.136859	-403.180852	33.892	
C	 0.0653217136	 1.5257020889	 0.3163813749	-0.38468
C	-0.097647783	 0.0485674614	-0.0618163649	 0.036452
C	 0.6401708566	-0.8773940922	 0.9182824675	-0.396485
N	-1.5224199276	-0.2669556047	-0.1817325562	-0.100652
C	-2.1636978382	-1.3747005175	-0.896944007	-0.007365
C	-2.4002279579	-2.5588297447	-0.0053381098	-0.291221
C	-3.3106888725	-1.3348344986	 0.0893118498	-0.21719
C	-2.5284762575	-0.2191462017	 0.7860409165	 0.415774
O	-2.6593183014	 0.4445269847	 1.7805454032	-0.373638
H	 1.126338875	 1.7897928278	 0.357033577	 0.10882
H	-0.426337717	 2.1683116978	-0.4189602736	 0.118398
H	-0.3846882627	 1.7215728253	 1.2924396465	 0.152752
H	 0.3207105454	-0.1019257724	-1.065011262	 0.086019
H	 0.2250369334	-0.7765580879	 1.9261120752	 0.137246
H	 0.5627186379	-1.9244827065	 0.6116421044	 0.115944
H	 1.7031655158	-0.6189064208	 0.9607686986	 0.116039
H	-2.2086627267	-1.3853082423	-1.9782494212	 0.113686
H	-2.8596180155	-3.428844366	-0.4676107053	 0.123928
H	-1.7100992433	-2.7871447104	 0.8003771729	 0.128468
H	-4.3741191444	-1.3751537602	-0.0947016666	 0.117706
39.6207	125.1842	165.7145	217.1625	229.9261	267.9628	328.452	338.8005	446.8723	472.9227	529.9547	682.7066	705.1672	760.8514	820.5884	849.2819	877.451	926.2334	932.2774	946.4175	954.9469	988.519	1046.262	1054.3747	1072.4689	1110.9465	1137.6724	1156.0534	1191.6747	1218.2797	1246.9697	1284.2208	1342.4492	1353.5028	1396.9573	1401.7108	1419.6804	1478.0789	1484.8587	1492.1814	1499.5596	1514.5981	1866.6718	3025.6328	3036.3134	3046.8001	3106.8961	3115.3423	3118.0278	3119.7322	3136.6715	3198.905	3208.0742	3232.333
CC(C)N1C2CC2C1=O	CC(C)N1[C@H]2C[C@H]2C1=O	
InChI=1S/C7H11NO/c1-4(2)8-6-3-5(6)7(8)9/h4-6H,3H2,1-2H3	InChI=1S/C7H11NO/c1-4(2)8-6-3-5(6)7(8)9/h4-6H,3H2,1-2H3/t5-,6+/m1/s1
