17
gdb 25657	5.96095	0.74492	0.66769	3.5533	92.99	-0.2002	0.0004	0.2007	1683.0892	0.135977	-380.905984	-380.896563	-380.895619	-380.942202	32.534	
C	-0.0959887898	 1.4586872863	 0.0395858105	-0.510135
C	-0.0226896571	 0.0066783562	 0.016140076	 0.203215
C	 0.0478674335	-1.1989399066	-0.003669244	-0.103263
C	 0.1306674625	-2.6028070951	-0.0265878058	 0.168603
C	 1.1938508896	-3.4804650889	-0.0900899077	-0.208393
N	 0.7604601888	-4.7789811171	-0.0865983696	-0.282832
C	-0.5565421982	-4.7225061392	-0.0218956082	 0.340011
C	-1.4806864601	-5.8930230443	 0.0075524531	-0.507942
N	-0.9858682896	-3.4290725031	 0.0164006832	-0.353836
H	 0.9071781087	 1.8982326247	 0.0670419244	 0.155276
H	-0.604336784	 1.8516234234	-0.8485295805	 0.1493
H	-0.6383647542	 1.8198351628	 0.9209545476	 0.149279
H	 2.2419843527	-3.2286876259	-0.1376610968	 0.110661
H	-2.0814016939	-5.9159780667	 0.9242249166	 0.133098
H	-2.173496386	-5.8877156118	-0.8419172677	 0.132917
H	-0.8856810258	-6.8057652866	-0.0379426777	 0.159741
H	-1.938010687	-3.1067587781	 0.0668752365	 0.2643
19.2191	74.4505	84.911	95.7497	216.4624	277.8805	306.6515	363.1057	457.8802	472.3219	532.3003	536.2589	679.5654	695.2923	695.6739	853.1857	943.9112	991.891	1017.1452	1050.556	1051.5496	1062.5435	1073.8164	1190.8805	1230.5027	1311.0744	1359.5999	1409.0546	1413.2372	1431.1215	1473.5596	1477.9015	1482.8031	1498.1704	1527.6236	1609.2761	2351.1004	3022.8088	3029.9036	3079.0665	3079.4992	3088.6477	3150.2952	3256.6199	3661.838
CC#CC1=CN=C(C)N1	CC#Cc1cnc(C)[nH]1	
InChI=1S/C7H8N2/c1-3-4-7-5-8-6(2)9-7/h5H,1-2H3,(H,8,9)	InChI=1S/C7H8N2/c1-3-4-7-5-8-6(2)9-7/h5H,1-2H3,(H,8,9)
