17
gdb 55369	3.19222	1.36644	1.18775	3.5586	68.09	-0.2342	0.0396	0.2737	1065.5696	0.137638	-455.153315	-455.145323	-455.144379	-455.186365	30.261	
N	 0.9373360694	-0.0690768642	 0.6421627671	-0.507543
C	-0.1705461754	 0.1578499954	-0.0991828614	 0.377949
O	-0.3770760852	 1.1524515851	-0.7692401637	-0.384754
C	-1.2190455234	-0.9586439894	-0.0447348287	 0.038649
O	-0.7227266423	-2.1183969998	 0.626099144	-0.285455
C	-1.7776065827	-2.7613327364	 1.3468609503	-0.082779
C	-2.8074565901	-1.6839664132	 1.6082434259	-0.056123
N	-2.1967277525	-0.4690658694	 2.1835575099	-0.334385
C	-2.4581428472	-0.5457514533	 0.7317581789	-0.065654
H	 1.6170738161	 0.6663550622	 0.7387450594	 0.259035
H	 0.9653362875	-0.8783534227	 1.2392134385	 0.273597
H	-1.5010652599	-1.1885048624	-1.0821565688	 0.101371
H	-2.2226617369	-3.5718323023	 0.7502120327	 0.100317
H	-1.3427819074	-3.1879605042	 2.2560067583	 0.116573
H	-3.8316389056	-1.9518854047	 1.8433123842	 0.099965
H	-2.9187967408	 0.0992377931	 2.6196140376	 0.237852
H	-3.1883951336	 0.1043203061	 0.2666068757	 0.111385
50.7537	115.6631	176.9914	284.8832	315.6922	356.4243	397.9621	460.3603	549.5351	609.1494	665.2835	722.7986	779.1001	814.7981	863.6848	878.247	916.9899	963.9965	985.8948	1010.9684	1028.346	1078.9435	1102.2205	1106.8066	1151.5468	1156.4922	1232.7384	1252.9022	1301.6172	1323.0066	1351.3393	1378.6221	1389.6598	1428.1896	1508.2337	1594.9649	1803.3261	2995.5473	3010.7502	3079.6323	3175.7039	3200.2603	3505.7474	3599.5523	3740.6691
NC(=O)C1OCC2NC12	NC(=O)[C@H]1OC[C@H]2N[C@@H]12	
InChI=1S/C5H8N2O2/c6-5(8)4-3-2(7-3)1-9-4/h2-4,7H,1H2,(H2,6,8)	InChI=1S/C5H8N2O2/c6-5(8)4-3-2(7-3)1-9-4/h2-4,7H,1H2,(H2,6,8)/t2-,3-,4+/m1/s1
