15
gdb 49034	2.6172	1.41067	1.10028	1.652	74.15	-0.2504	-0.0435	0.2069	1095.8898	0.110159	-420.551526	-420.543335	-420.542391	-420.584478	30.134	
O	-0.2329925676	 0.2206674414	-0.6329627766	-0.269678
C	 0.0498456072	 1.0654261241	 0.1851038805	 0.060901
C	 1.268730056	 1.8845246639	 0.1408337732	 0.136278
C	 1.6756976219	 3.0340132905	 1.057848547	-0.155186
O	 2.1389835975	 3.8319405698	-0.0692175009	-0.269198
C	 1.734362695	 2.832803818	-0.9779721091	 0.075078
C	 2.4448253117	 1.5302382774	-0.7858108938	-0.320835
C	 3.7872787764	 1.4346965548	-0.2941540387	 0.331722
C	 4.9101967906	 1.3510783481	 0.1267962095	-0.410519
H	-0.6302690643	 1.2956137222	 1.0356210189	 0.078909
H	 0.8219908186	 3.5228762607	 1.539396123	 0.122282
H	 2.4720991599	 2.8411662909	 1.7822201231	 0.132347
H	 1.2407389105	 3.128939747	-1.8970337817	 0.134763
H	 2.1313258005	 0.7708042187	-1.4988890177	 0.150943
H	 5.907681556	 1.2798180025	 0.4842616132	 0.202194
98.4875	137.6188	143.2495	200.191	237.7111	338.0802	363.1635	481.8401	543.9794	604.4134	628.9616	663.2891	717.1887	772.7815	795.9758	898.4749	936.5283	980.3817	1007.842	1021.9258	1053.2583	1082.6087	1105.7047	1161.9982	1210.0339	1257.5506	1291.426	1355.4079	1422.7239	1445.8948	1503.024	1794.561	2240.997	2879.5838	3041.3984	3102.4787	3147.7418	3183.4535	3502.3796
O=CC12COC1C2C#C	O=C[C@]12CO[C@H]1[C@H]2C#C	
InChI=1S/C7H6O2/c1-2-5-6-7(5,3-8)4-9-6/h1,3,5-6H,4H2	InChI=1S/C7H6O2/c1-2-5-6-7(5,3-8)4-9-6/h1,3,5-6H,4H2/t5-,6+,7-/m1/s1
