21
gdb 84399	3.05602	1.34126	1.06759	1.7904	83.39	-0.2464	0.0149	0.2613	1188.9006	0.183807	-387.093665	-387.085179	-387.084235	-387.126361	33.885	
C	 0.3650283971	 1.5842091089	-0.027632169	-0.389912
C	 0.0063521776	 0.0883518012	 0.0134808668	-0.050055
C	 0.3542129139	-0.6002833915	-1.2828436928	-0.053831
C	 0.7853845239	-1.8573246389	-1.3759705524	-0.116672
C	 0.9876688424	-2.7783812335	-0.2008144706	 0.067682
O	 2.0926671266	-3.6592208459	-0.4160200767	-0.436304
C	 1.1097395694	-2.0325924815	 1.114910985	-0.064213
C	 2.1111067805	-0.9039692602	 1.2372231558	-0.305519
C	 0.6325944157	-0.6042949243	 1.2175293298	-0.02616
H	 1.4440883353	 1.7248027637	-0.1477184445	 0.119601
H	-0.1367474578	 2.0852455102	-0.8622155001	 0.111056
H	 0.0615129552	 2.0852093723	 0.89710214	 0.112078
H	-1.0868314039	 0.0225771284	 0.1339271952	 0.08833
H	 0.218581639	-0.0122293023	-2.1887559028	 0.085173
H	 1.0033684351	-2.3005159604	-2.3443834039	 0.094014
H	 0.1260914754	-3.4574739336	-0.1371914416	 0.096958
H	 2.8911193568	-3.1222149784	-0.3589716161	 0.276767
H	 0.9882982832	-2.6618671053	 1.9909762208	 0.087614
H	 2.6501792576	-0.7961109269	 2.1715489522	 0.110493
H	 2.6845874872	-0.6357396959	 0.3549936333	 0.111014
H	 0.1961045597	-0.3118855363	 2.1685491715	 0.081887
79.6806	199.075	228.7049	242.6426	274.3705	326.8973	345.0578	384.1079	409.6035	543.9064	584.0333	619.0669	721.0958	748.1671	784.9489	818.2396	861.2709	907.4219	937.9187	977.1672	1001.9072	1014.4949	1045.5235	1057.4625	1064.9187	1090.6409	1109.8023	1137.5398	1142.4317	1162.5563	1195.0438	1229.4886	1261.9066	1322.3854	1337.961	1344.1055	1362.9779	1399.1918	1407.6078	1414.899	1430.028	1486.5095	1496.4428	1498.2909	1716.0328	2971.928	3010.3518	3031.2534	3100.4805	3105.7893	3127.51	3136.4987	3138.9344	3156.1039	3168.0313	3213.7313	3797.8201
CC1C=CC(O)C2CC12	C[C@H]1C=C[C@@H](O)[C@H]2C[C@@H]12	
InChI=1S/C8H12O/c1-5-2-3-8(9)7-4-6(5)7/h2-3,5-9H,4H2,1H3	InChI=1S/C8H12O/c1-5-2-3-8(9)7-4-6(5)7/h2-3,5-9H,4H2,1H3/t5-,6-,7-,8+/m0/s1
