19
gdb 14311	3.06129	1.92502	1.76536	2.173	70.52	-0.2144	0.07	0.2844	862.5686	0.166544	-365.036985	-365.029247	-365.028303	-365.068783	29.903	
C	 0.0628820797	 1.6865818742	 0.0583571369	-0.344295
N	 0.12419329	 0.2305071183	 0.0562196614	-0.087499
C	 1.3235208374	-0.5086509469	-0.3102656711	-0.033765
C	 2.6840987479	 0.1769702939	-0.3259762481	-0.241691
C	 2.9913528336	 0.6408988993	 1.1208523759	 0.107755
O	 3.1440462856	 2.0592970562	 1.1144153303	-0.416954
C	 1.8157002225	 0.1383402554	 2.0125734773	-0.271471
C	 0.8001080939	-0.5320755461	 1.0948337144	-0.027622
H	 0.9676220179	 2.2013140352	 0.402678035	 0.135918
H	-0.1574319664	 2.022452895	-0.9605049701	 0.117776
H	-0.7753127144	 1.993884734	 0.6931182996	 0.114492
H	 1.1626741751	-1.3251245427	-1.0109571014	 0.082714
H	 3.4396625333	-0.5328907798	-0.6765482794	 0.101457
H	 2.7228478381	 1.0408250181	-0.9974602672	 0.121789
H	 3.9321062177	 0.1902475413	 1.4660813482	 0.075583
H	 3.3187981663	 2.3431506282	 2.01731473	 0.282013
H	 2.1689125862	-0.5926051924	 2.7479759475	 0.099994
H	 1.3847132061	 0.9741752297	 2.5770590233	 0.101209
H	 0.2295873795	-1.3660319909	 1.4983614076	 0.082597
87.8735	167.6395	203.1921	241.528	322.1105	399.6507	421.3402	428.8599	504.9377	669.4187	694.5992	738.1681	781.9411	812.6069	899.345	936.9136	978.9414	995.1002	1037.4766	1049.0899	1057.6799	1122.1175	1139.7299	1173.011	1175.0848	1197.9384	1234.2555	1254.6097	1276.9927	1310.2441	1324.5469	1331.1336	1367.4015	1404.4052	1426.8777	1461.8331	1473.1169	1485.224	1504.5709	1514.9241	2991.1211	3017.6706	3031.6408	3051.59	3071.5548	3085.9328	3089.7964	3091.7656	3119.0347	3129.6814	3818.209
CN1C2CC(O)CC12	CN1[C@H]2C[C@@H](O)C[C@@H]12	
InChI=1S/C6H11NO/c1-7-5-2-4(8)3-6(5)7/h4-6,8H,2-3H2,1H3	InChI=1S/C6H11NO/c1-7-5-2-4(8)3-6(5)7/h4-6,8H,2-3H2,1H3/t4-,5+,6-,7?
