18
gdb 82197	2.57672	1.82812	1.39363	3.6514	69.96	-0.2374	0.0611	0.2986	973.574	0.148201	-439.040093	-439.032366	-439.031422	-439.071861	30.835	
C	-0.1698423521	 1.4784757004	 0.0189726908	-0.501653
C	 0.0821186037	-0.0047579616	-0.0055723938	 0.295644
N	-0.7058309884	-0.9090171063	 0.8537731893	-0.363682
C	 0.755495623	-0.7774540607	 1.0707889357	-0.128133
C	 1.5683243797	-1.888784377	 0.4286973725	 0.045981
O	 0.7930422004	-2.8700478417	-0.2631661382	-0.240549
C	 1.3835196621	-1.8135941379	-1.0283333596	-0.008069
C	 0.3898276123	-0.6888172449	-1.3615481858	 0.063126
O	-0.7729348079	-1.1525745112	-2.0080561421	-0.43653
H	 0.6799872146	 2.0331727228	-0.3937336681	 0.125433
H	-1.0530095108	 1.7270759736	-0.5803112644	 0.140207
H	-0.3394908792	 1.8343049928	 1.0410763847	 0.112445
H	-1.1974556799	-0.3592964129	 1.5562070251	 0.229288
H	 1.1175550948	-0.3129547895	 1.9821538879	 0.087648
H	 2.4739491961	-2.250754606	 0.9075058842	 0.097204
H	 2.1258897201	-2.1260020887	-1.7589837271	 0.099302
H	 0.8622900044	 0.0292738825	-2.0405335375	 0.082345
H	-1.1988517531	-1.7305458537	-1.3589964535	 0.299992
139.0242	203.0405	227.5562	237.0021	283.0464	374.6319	438.0869	479.434	549.73	575.2365	681.9844	700.6888	743.5715	844.7143	851.8238	867.6773	888.6364	928.7204	960.3917	972.5631	1035.4425	1049.8911	1081.2317	1092.7747	1104.1901	1126.441	1151.585	1242.0443	1259.1683	1287.6198	1300.8475	1344.1882	1348.6939	1409.2318	1423.7181	1442.2769	1453.3109	1483.6208	1501.1452	3024.4545	3059.5929	3092.5697	3095.8373	3138.7897	3153.2213	3170.169	3481.5459	3751.5336
CC12NC1C1OC1C2O	C[C@]12N[C@H]1[C@H]1O[C@H]1[C@H]2O	
InChI=1S/C6H9NO2/c1-6-4(7-6)2-3(9-2)5(6)8/h2-5,7-8H,1H3	InChI=1S/C6H9NO2/c1-6-4(7-6)2-3(9-2)5(6)8/h2-5,7-8H,1H3/t2-,3+,4-,5+,6-/m0/s1
