16
gdb 29937	2.37865	1.74056	1.01201	3.6552	77.68	-0.2002	-0.0342	0.166	1116.616	0.125705	-434.128486	-434.120049	-434.119105	-434.161343	30.956	
C	-0.0294324867	 1.4444405162	 0.0021570999	-0.346033
N	 0.0019569831	-0.0022398549	 0.0122932866	-0.075068
C	-0.0217922978	-0.8171534537	-1.0594070679	 0.014189
N	 0.0214771517	-2.1060572846	-0.7553091913	-0.338263
C	 0.080637062	-2.1355131697	 0.6065611133	 0.319316
N	 0.1773264336	-3.2794527436	 1.3215267158	-0.588467
C	 0.064028521	-0.8356172128	 1.1397986746	 0.119077
C	 0.0553265416	-0.4619184776	 2.512108808	 0.054881
O	 0.0831786934	-1.2783789403	 3.4319171766	-0.341468
H	 0.8698250937	 1.8583764374	 0.4691367317	 0.15091
H	-0.0770754432	 1.7880882607	-1.0328213037	 0.146498
H	-0.9068277056	 1.8207821022	 0.5377024298	 0.15009
H	-0.0701111179	-0.4242990767	-2.0655990588	 0.136469
H	-0.06389545	-4.1427436385	 0.8651492469	 0.260563
H	 0.0501249019	-3.1850396569	 2.3195379759	 0.279065
H	 0.0138722892	 0.6268216728	 2.7321934328	 0.058241
122.1262	167.0689	175.379	188.504	269.1383	277.8184	339.7772	354.9045	422.4871	536.6946	585.1593	613.9998	616.9318	769.6174	787.9024	819.5066	853.457	1011.9004	1048.7424	1079.9964	1128.9011	1152.8544	1256.9072	1306.4069	1363.8703	1391.2784	1433.6238	1458.0361	1478.8181	1497.2445	1522.2248	1539.6573	1568.1922	1652.7394	1718.8554	2886.1517	3037.9354	3097.7172	3137.0198	3238.2713	3558.6692	3711.623
CN1C=NC(N)=C1C=O	Cn1cnc(N)c1C=O	
InChI=1S/C5H7N3O/c1-8-3-7-5(6)4(8)2-9/h2-3H,6H2,1H3	InChI=1S/C5H7N3O/c1-8-3-7-5(6)4(8)2-9/h2-3H,6H2,1H3
