16
gdb 28476	3.17342	1.41828	0.98664	3.2417	75.74	-0.2221	-0.011	0.2112	1147.2378	0.126659	-434.155691	-434.147713	-434.146769	-434.187834	30.801	
C	-0.079053076	 1.5175223359	-0.0334880961	-0.523854
C	-0.0103909675	 0.0166670143	-0.0064416975	 0.207711
C	 0.0373514232	-0.7571088591	-1.1506786343	-0.058178
N	 0.0867653661	-2.0959889354	-1.1588016076	-0.379742
C	 0.0882110719	-2.6587332917	 0.0488892437	 0.438939
O	 0.1366560405	-4.0009217327	 0.0916138742	-0.397301
N	 0.052535364	-2.0548835247	 1.2294210345	-0.362664
C	-0.0005227164	-0.7197240544	 1.2031872687	 0.325408
N	-0.0846008416	-0.0956671881	 2.4162874078	-0.566124
H	 0.7903192795	 1.9821440772	 0.4520971893	 0.122988
H	-0.106384155	 1.8850708909	-1.0628890694	 0.132015
H	-0.9739866816	 1.8945896643	 0.4773223801	 0.133545
H	 0.0343779683	-0.274557384	-2.1269909234	 0.10439
H	 0.1609654225	-4.2885649448	-0.831098176	 0.301115
H	 0.1113941321	-0.6753227067	 3.2172282216	 0.26341
H	 0.17198596	 0.8738893191	 2.4866415445	 0.258342
125.0533	182.2445	225.7091	283.8268	314.6278	352.204	373.9045	462.8891	495.6303	524.6453	547.0184	571.3414	594.7059	749.4046	769.8827	792.6877	824.9835	977.3719	983.0412	1022.3845	1069.7272	1115.1262	1216.9168	1251.2303	1311.6434	1342.617	1392.4191	1416.8762	1482.6793	1483.3047	1495.1799	1521.3123	1613.0078	1636.6942	1662.9799	3005.9327	3053.5896	3107.5626	3140.0274	3598.5896	3724.2363	3781.4823
CC1=CN=C(O)N=C1N	Cc1cnc(O)nc1N	
InChI=1S/C5H7N3O/c1-3-2-7-5(9)8-4(3)6/h2H,1H3,(H3,6,7,8,9)	InChI=1S/C5H7N3O/c1-3-2-7-5(9)8-4(3)6/h2H,1H3,(H3,6,7,8,9)
