18
gdb 68379	2.94994	1.52165	1.19905	2.9289	71.58	-0.2407	0.0272	0.2679	1041.1742	0.149139	-439.117842	-439.11015	-439.109205	-439.149756	31.073	
O	-0.0550791982	 1.431670296	-0.0468412054	-0.48398
C	-0.0061797693	 0.0334173805	 0.0372146735	 0.407063
C	 0.2293011934	-0.6600498603	 1.4180014087	-0.28343
C	-0.6974655569	-1.7733475693	 0.8551747015	-0.009398
C	-1.3839325023	-0.670938615	 0.0008550906	-0.256362
N	 0.0738298128	-2.6522153156	-0.0163961743	-0.294903
C	 0.9129162201	-2.1448118311	-0.9681326725	 0.395746
O	 1.5869675827	-2.8292948192	-1.7113254005	-0.379451
C	 0.9176639175	-0.6065508351	-1.0094497594	-0.39494
H	 0.8443153566	 1.7677341844	-0.1279650343	 0.278604
H	 1.244646146	-0.9461110753	 1.7048222185	 0.098063
H	-0.2528746507	-0.092946584	 2.2172217161	 0.111158
H	-1.2966579807	-2.3703317935	 1.5402799204	 0.085022
H	-2.1171930077	-0.1054834226	 0.5799240859	 0.114752
H	-1.79960234	-0.961027461	-0.9669435564	 0.104547
H	 0.0226680142	-3.6548981001	 0.070387519	 0.250489
H	 0.6235088008	-0.2959803521	-2.0177257528	 0.137193
H	 1.9562642917	-0.2825124367	-0.8650374488	 0.119828
82.3858	254.768	259.1602	315.5409	382.914	410.2378	415.9687	440.2057	479.2711	506.6926	606.5597	616.6638	680.4786	820.9503	834.6059	884.8883	900.6841	912.5336	945.2993	992.0705	1050.8561	1055.8534	1070.926	1117.2666	1153.2568	1171.8761	1208.8818	1225.8369	1245.8079	1262.2268	1292.1464	1331.4063	1373.5435	1391.2847	1445.9055	1465.302	1469.9585	1508.3225	1803.7366	3033.8991	3059.6931	3068.716	3083.9422	3127.1302	3129.351	3134.2226	3638.9979	3802.3872
OC12CC(C1)NC(=O)C2	O[C@@]12C[C@@H](C1)NC(=O)C2	
InChI=1S/C6H9NO2/c8-5-3-6(9)1-4(2-6)7-5/h4,9H,1-3H2,(H,7,8)	InChI=1S/C6H9NO2/c8-5-3-6(9)1-4(2-6)7-5/h4,9H,1-3H2,(H,7,8)/t4-,6-
