21
gdb 82915	2.42902	1.7516	1.37407	1.2246	81.13	-0.2417	0.0809	0.3226	1041.3347	0.183373	-387.076594	-387.068208	-387.067264	-387.10896	33.678	
C	-0.1250563413	 1.5278465929	-0.1362243044	-0.409183
C	 0.0527801025	 0.0419844027	 0.0965856889	-0.017214
C	 1.3630042347	-0.6966357255	-0.0796626365	-0.049879
C	 2.6621375121	 0.1131946975	-0.1468796604	-0.252062
C	 2.8141491611	 0.7344709803	 1.2391000005	-0.064916
C	 3.0134814354	-0.2065910744	 2.4172963077	-0.359804
C	 1.6448783258	 0.3453572423	 2.1046702221	 0.411354
O	 1.0822322411	 1.3119071831	 2.9462650199	-0.477252
C	 0.7441362208	-0.5532034378	 1.3026744972	-0.14941
H	 0.7097302713	 2.1168728536	 0.2468785058	 0.134598
H	-0.2300436751	 1.7426854779	-1.2060089106	 0.107032
H	-1.0291972663	 1.8886151146	 0.365140544	 0.117436
H	-0.8065715121	-0.5414272791	-0.2277826232	 0.078893
H	 1.3342139151	-1.6511270424	-0.5937040467	 0.077589
H	 3.5104956384	-0.5356654796	-0.39372446	 0.097184
H	 2.6228668284	 0.8870179251	-0.9226863722	 0.100523
H	 3.230717205	 1.7307744538	 1.3362563485	 0.089748
H	 3.2209379206	-1.2558000304	 2.2282136844	 0.105586
H	 3.5142546356	 0.2157247115	 3.2816982214	 0.109827
H	 0.7154280986	 0.8583270262	 3.7128714054	 0.278535
H	 0.2859834283	-1.4043137525	 1.800254678	 0.071413
137.1462	159.2792	163.8033	248.501	274.0598	327.6287	370.6271	429.4792	469.8237	541.2606	576.7704	691.884	742.7704	773.1829	792.9342	837.8775	880.7443	916.2203	931.8382	954.7081	968.2648	1007.8401	1032.903	1040.9427	1064.733	1083.219	1102.4746	1110.5437	1126.3089	1141.0343	1217.8009	1223.6071	1233.0196	1248.5337	1314.1058	1327.2905	1358.1249	1377.2345	1400.6912	1420.8925	1432.5637	1476.8088	1490.2149	1499.5416	1503.8235	3027.5684	3033.7089	3058.633	3088.6397	3116.1439	3119.5833	3132.0253	3139.0901	3165.9203	3174.6861	3214.7304	3797.8034
CC1C2CC3CC3(O)C12	C[C@H]1[C@H]2C[C@@H]3C[C@]3(O)[C@@H]12	
InChI=1S/C8H12O/c1-4-6-2-5-3-8(5,9)7(4)6/h4-7,9H,2-3H2,1H3	InChI=1S/C8H12O/c1-4-6-2-5-3-8(5,9)7(4)6/h4-7,9H,2-3H2,1H3/t4-,5+,6+,7-,8+/m0/s1
