13
gdb 5188	8.05017	1.23997	1.07447	4.9598	63.68	-0.215	0.0157	0.2307	1019.4118	0.097523	-394.810379	-394.803457	-394.802513	-394.84278	24.513	
N	-0.1091220387	 1.3024838028	 0.0097770374	-0.439214
C	-0.0053618529	 0.0456087474	 0.0024514699	 0.100926
O	-1.148017693	-0.6935463776	 0.0072533009	-0.226442
C	-1.0562291869	-2.0514569858	-0.0003509571	 0.396475
C	-2.1370919906	-2.8937158594	 0.0023577288	-0.216235
N	-1.5749131328	-4.1572354622	-0.0075881603	-0.23524
C	-0.2276607082	-4.009871221	-0.0157301866	 0.026878
N	 0.1217017765	-2.7385821562	-0.01146149	-0.33697
H	 0.8207474052	 1.7177722999	 0.0046445391	 0.230743
H	 0.8999963618	-0.5624171022	-0.007794666	 0.139411
H	-3.1977841093	-2.7195015797	 0.0101060697	 0.144338
H	-2.0808006985	-5.026557848	-0.0085674205	 0.274269
H	 0.4515454074	-4.848227078	-0.0244068753	 0.141061
29.9197	104.3521	192.2889	328.6164	462.6457	491.4085	516.0253	656.9827	677.749	734.6749	802.8144	802.851	833.0349	948.4448	983.7204	1063.8418	1071.7349	1095.7917	1151.0463	1242.3768	1292.3472	1326.5446	1359.7445	1404.3021	1476.4275	1523.0178	1615.0167	1742.0878	3131.4572	3260.5319	3299.377	3512.7288	3673.6863
N=COC1=CNC=N1	[NH][CH]Oc1c[nH]cn1	
InChI=1S/C4H5N3O/c5-2-8-4-1-6-3-7-4/h1-3,5H,(H,6,7)	InChI=1S/C4H5N3O/c5-2-8-4-1-6-3-7-4/h1-3,5H,(H,6,7)
