23
gdb 81793	1.99679	1.74094	1.29023	0.3065	89.9	-0.2342	0.0907	0.3249	1150.9694	0.204978	-351.122825	-351.113659	-351.112715	-351.155963	36.431	
C	-0.0752774405	 1.5340213939	-0.0147920617	-0.40148
C	 0.0104929413	 0.0123208994	-0.0152666977	-0.067732
C	 1.1280240868	-0.5581369518	-0.9065440067	-0.098882
C	 1.2483929363	-2.0472739558	-0.7228894733	-0.344
C	 1.8576293772	-1.1356456887	 0.3124053891	 0.300422
C	 3.3180479029	-1.1453505746	 0.6623647535	-0.504123
C	 0.7374758574	-0.6143061997	 1.2034238506	 0.324871
C	 0.8995100709	 0.0068341138	 2.5581498824	-0.342791
C	 0.1372238006	-1.2917070715	 2.4019156754	-0.330176
H	 0.9037165822	 1.9841205079	 0.1812414214	 0.115157
H	-0.4277476135	 1.9019883123	-0.9849396789	 0.11025
H	-0.7714995965	 1.8971501666	 0.7488130461	 0.110318
H	-0.980472234	-0.4152055593	-0.2175615516	 0.062471
H	 1.5469012087	-0.0489334496	-1.7679087333	 0.077972
H	 0.3697329102	-2.6443250505	-0.4872534223	 0.101785
H	 1.9584652058	-2.5407883383	-1.3803474192	 0.102636
H	 3.9281423179	-1.377641397	-0.2167088883	 0.116528
H	 3.6457934443	-0.17436021	 1.050608529	 0.117442
H	 3.5453476113	-1.9015690423	 1.4246033471	 0.116232
H	 1.8779428471	-0.0320497195	 3.0270242974	 0.10936
H	 0.3384887316	 0.907091882	 2.7876983148	 0.109372
H	-0.9418245531	-1.2638509217	 2.5191748536	 0.107184
H	 0.6000463449	-2.2043012752	 2.7651524427	 0.107183
97.9838	188.7306	205.4911	212.124	222.4405	245.8487	281.7807	350.6715	396.8931	470.5824	501.7458	562.6149	635.7965	759.1535	781.2255	822.1303	837.3138	878.9457	915.2145	934.1163	947.2007	967.8333	988.1302	1013.8288	1040.3922	1048.0662	1064.1916	1075.3536	1088.3271	1104.9682	1111.0709	1155.5521	1185.6261	1189.9004	1251.4939	1264.6823	1276.1437	1352.3619	1381.1644	1393.616	1407.7464	1419.9653	1462.41	1484.8962	1490.7063	1494.7121	1498.5169	1499.8802	1505.231	3010.3621	3016.771	3026.2702	3073.2602	3090.8204	3094.6317	3099.5549	3100.048	3117.9841	3122.7735	3164.784	3189.4532	3194.2566	3209.3585
CC1C2CC2(C)C11CC1	C[C@H]1[C@@H]2C[C@]2(C)C21CC2	
InChI=1S/C9H14/c1-6-7-5-8(7,2)9(6)3-4-9/h6-7H,3-5H2,1-2H3	InChI=1S/C9H14/c1-6-7-5-8(7,2)9(6)3-4-9/h6-7H,3-5H2,1-2H3/t6-,7-,8-/m0/s1
