22
gdb 60219	3.89765	0.88796	0.80778	2.7354	81.6	-0.2272	0.0641	0.2913	1495.0017	0.193725	-404.300031	-404.290638	-404.289693	-404.334612	35.599	
C	 0.0861029504	 1.5652277235	-0.0329322426	-0.405658
C	 0.0196890069	 0.0387866776	 0.0116368992	 0.1374
O	 0.6873138312	-0.472210211	 1.1661490616	-0.422965
C	-1.4173116436	-0.4910717841	-0.0914042609	-0.227513
C	-1.5013214515	-2.0151059234	-0.1111558294	 0.02964
C	-1.2954819597	-2.857817181	 1.17965537	-0.171846
N	-2.5837455916	-3.6147897892	 0.9695423968	-0.128737
C	-3.6414229981	-2.5939210471	 1.0465182228	-0.234669
C	-2.8686424602	-2.6925611585	-0.2079401117	-0.060405
H	 1.1219367271	 1.9031677855	 0.058406788	 0.125122
H	-0.3264453635	 1.9549881076	-0.9690703248	 0.117238
H	-0.4909395671	 2.0034738017	 0.7915601496	 0.106212
H	 0.5991410836	-0.3660266557	-0.8283529125	 0.088734
H	 0.2724935754	-0.076675088	 1.9409743263	 0.275871
H	-2.0070975534	-0.0865941405	 0.7435050531	 0.081809
H	-1.87343778	-0.0925933446	-1.0080527928	 0.097003
H	-0.8450528421	-2.3966495997	-0.9003789856	 0.080226
H	-0.4395052561	-3.5322875707	 1.1433215819	 0.114524
H	-1.2699371174	-2.3075187765	 2.1255396077	 0.088058
H	-4.6416536134	-3.0169088393	 1.0478690482	 0.117993
H	-3.5109019928	-1.7466430954	 1.7173082234	 0.103122
H	-3.314833574	-3.0677348912	-1.1246001783	 0.088841
53.5679	93.0787	121.3271	216.9014	236.1006	270.7427	300.7462	320.1804	436.5463	455.7321	479.3651	525.6826	716.0809	754.2557	784.2717	835.8837	868.6994	879.6998	942.6345	959.6646	978.6037	996.8064	1016.1999	1059.1854	1076.2513	1099.6964	1108.7168	1119.9694	1129.6934	1168.7487	1193.389	1216.5001	1230.3684	1255.4826	1290.023	1307.3652	1332.896	1373.5093	1377.9115	1399.0071	1404.7623	1421.0551	1472.9803	1490.2391	1492.1388	1494.764	1509.6243	3002.1591	3020.8378	3027.9977	3039.8304	3051.1978	3056.4647	3092.7832	3098.461	3118.1353	3125.1823	3148.1348	3190.4068	3796.9311
CC(O)CC1CN2CC12	C[C@@H](O)C[C@H]1CN2C[C@@H]12	
InChI=1S/C7H13NO/c1-5(9)2-6-3-8-4-7(6)8/h5-7,9H,2-4H2,1H3	InChI=1S/C7H13NO/c1-5(9)2-6-3-8-4-7(6)8/h5-7,9H,2-4H2,1H3/t5-,6+,7+,8?/m1/s1
