17
gdb 22800	2.75283	1.45385	1.01521	3.021	75.08	-0.2465	-0.0335	0.213	1147.8429	0.137022	-455.112187	-455.104055	-455.103111	-455.145373	30.683	
O	 0.029190071	 1.3306635089	 0.0334869617	-0.349927
N	 0.0257143362	-0.0473853349	 0.0038471772	-0.184618
C	-1.128110107	-0.6044747766	 0.0466127598	 0.310321
C	-1.1257392334	-2.1129440823	-0.016899254	-0.287021
C	-2.1653596791	-2.5812383469	-1.0408646851	-0.222022
C	-3.5162349883	-1.9954025095	-0.6625073182	-0.068207
O	-3.4910403224	-0.5662518156	-0.5467774632	-0.260595
C	-2.4582429375	 0.0748197847	 0.0932924595	 0.317568
N	-2.6380292807	 1.2048230574	 0.6357287763	-0.482502
H	 0.9690884436	 1.529015428	-0.0529500804	 0.309521
H	-0.116883118	-2.4538455606	-0.2570334015	 0.124099
H	-1.3877494729	-2.5235093992	 0.9690492714	 0.115088
H	-1.8825038944	-2.2478718504	-2.0457630612	 0.119217
H	-2.2367651897	-3.6738207579	-1.0596724427	 0.10864
H	-4.2796193666	-2.2045046909	-1.4158794257	 0.120563
H	-3.8579661105	-2.4195573422	 0.2929956413	 0.107857
H	-3.6245230604	 1.463704438	 0.5500735447	 0.222018
50.7127	110.3754	237.883	254.2223	323.3548	358.7013	412.052	430.5151	466.2969	514.8128	585.3616	671.6903	689.9899	750.2437	883.5556	895.9235	915.5202	949.4245	968.2218	1025.3379	1058.898	1105.4498	1129.4468	1205.3277	1210.5435	1242.5937	1297.617	1320.6277	1353.0931	1372.6867	1421.2776	1428.1969	1479.449	1485.5703	1513.4563	1702.7947	1727.2106	3001.5709	3007.1608	3042.4198	3089.0151	3099.5093	3112.8719	3449.9745	3794.7248
ON=C1CCCOC1=N	ON=C1CCCO[C]1[NH]	
InChI=1S/C5H8N2O2/c6-5-4(7-8)2-1-3-9-5/h6,8H,1-3H2	InChI=1S/C5H8N2O2/c6-5-4(7-8)2-1-3-9-5/h6,8H,1-3H2
