14
gdb 27750	3.94614	1.23319	0.94051	6.5989	71.76	-0.2042	-0.0343	0.1699	1149.3978	0.102607	-470.072229	-470.064402	-470.063458	-470.104336	29.337	
N	 0.000303858	 1.3653089409	 0.1513335575	-0.590143
C	-0.0073218317	 0.0003570806	 0.0311226781	 0.436895
N	-1.1220663077	-0.7259815838	-0.0149025745	-0.366788
C	-0.687514107	-2.0058304274	-0.0385933253	 0.370154
O	-1.5044646978	-3.0418327596	-0.0954160017	-0.396651
C	 0.7095565079	-2.0935800412	-0.0191199981	 0.071657
N	 1.1230765927	-0.7451151917	 0.0104211717	-0.405245
C	 1.435452024	-3.3009960116	-0.0743656558	 0.05678
O	 0.8587855096	-4.3991163576	-0.1117678985	-0.375253
H	 0.7577836729	 1.857559533	-0.2983557992	 0.260923
H	-0.9055709606	 1.7730404035	-0.0298658444	 0.278403
H	-0.9080058355	-3.8298726667	-0.1095741363	 0.318509
H	 2.0565810483	-0.4119704384	 0.1807844501	 0.26884
H	 2.5425962969	-3.2520966001	-0.0806038638	 0.071918
131.9285	195.5027	229.2965	267.8917	309.661	325.3778	341.5102	413.331	473.9475	543.8384	584.5895	655.516	730.4164	765.9339	785.6492	821.9388	873.8584	1008.0078	1043.8868	1107.5683	1193.0307	1260.2282	1314.6858	1380.0529	1475.7368	1489.8717	1526.7756	1596.4923	1620.0961	1657.9774	1698.7584	2923.8727	3370.0549	3573.9204	3668.3652	3679.9073
NC1=NC(O)=C(N1)C=O	Nc1nc(O)c([nH]1)C=O	
InChI=1S/C4H5N3O2/c5-4-6-2(1-8)3(9)7-4/h1,9H,(H3,5,6,7)	InChI=1S/C4H5N3O2/c5-4-6-2(1-8)3(9)7-4/h1,9H,(H3,5,6,7)
