16
gdb 99434	3.28935	0.72999	0.61505	3.7035	91.92	-0.2604	-0.0325	0.2279	1756.6388	0.121767	-363.573808	-363.563966	-363.563022	-363.609201	34.686	
C	 0.0278104861	 1.5580425166	 0.0193189862	-0.402011
C	 0.0064736085	 0.029897394	 0.0105140539	-0.172869
C	-1.4366048732	-0.5579894477	-0.0157054953	-0.38099
C	-2.1605885898	-0.1223391155	-1.223240277	 0.302138
N	-2.7129526376	 0.2437857807	-2.1692854705	-0.323284
C	-1.4345153244	-2.0149159131	 0.0903719277	 0.410645
C	-1.4063413392	-3.2180223919	 0.2029779659	-0.192896
C	-1.3749082537	-4.5730843545	 0.322693046	 0.292702
C	-1.3466797515	-5.7748806709	 0.4307555075	-0.550056
H	 1.0585050781	 1.9217529391	 0.0470287226	 0.127341
H	-0.4507688201	 1.9690592383	-0.8743441179	 0.149604
H	-0.4916063617	 1.9589678179	 0.896520989	 0.122633
H	 0.5513139178	-0.3621484265	-0.8533922161	 0.13309
H	 0.4932693342	-0.3699452399	 0.9051099865	 0.124533
H	-1.9831530904	-0.1450459021	 0.8449465796	 0.160273
H	-1.3235373231	-6.8327016146	 0.521943342	 0.199148
65.2135	74.0721	110.8923	160.8376	206.7727	220.8525	265.8313	328.119	362.4612	437.1495	509.3393	542.9061	551.976	567.1591	605.7077	613.2294	751.8278	802.8742	869.7601	942.7584	1042.0518	1097.5427	1109.1371	1189.0504	1258.0472	1294.0367	1335.788	1363.5094	1417.4925	1487.221	1498.6014	1505.5806	2186.7409	2362.2356	2372.11	3005.6689	3039.77	3058.7742	3095.0821	3114.995	3123.2678	3503.1235
CCC(C#N)C#CC#C	CC[C@@H](C#N)C#CC#C	
InChI=1S/C8H7N/c1-3-5-6-8(4-2)7-9/h1,8H,4H2,2H3	InChI=1S/C8H7N/c1-3-5-6-8(4-2)7-9/h1,8H,4H2,2H3/t8-/m1/s1
