15
gdb 42667	2.62831	1.98204	1.78433	3.6719	63.57	-0.2344	-0.0255	0.2089	833.7986	0.114971	-457.764754	-457.758465	-457.757521	-457.795428	25.126	
O	 0.0025714214	 0.0722531797	 0.185501427	-0.333419
C	-0.0463869821	 1.2673264957	 0.0606174367	 0.463235
C	-1.2271735513	 2.1685154948	-0.0278005922	-0.259367
C	-0.9714775388	 3.499052827	 0.719351602	-0.119984
C	 0.2039598722	 3.5619572403	 1.6782292493	-0.087535
O	 1.3485723927	 2.8449125546	 1.1971336946	-0.264036
C	 1.1447282016	 2.2493103483	-0.0656028716	 0.025979
O	 0.7083756222	 3.2001096738	-1.0174582867	-0.248243
C	-0.6665574261	 3.3971392342	-0.7295632126	 0.101594
H	-2.2273381261	 1.7834563585	-0.1676326675	 0.118733
H	-1.8592658582	 4.0421367005	 1.0259543717	 0.114661
H	 0.5017555039	 4.6083811537	 1.8218637181	 0.123689
H	-0.0749475291	 3.1529424071	 2.6571805157	 0.121761
H	 2.0879782843	 1.8086879993	-0.3810372329	 0.119247
H	-1.1922890666	 3.9383829225	-1.5045810416	 0.123686
127.6036	194.7347	346.4938	438.4696	476.3805	532.2338	583.3964	666.327	741.4281	761.8313	790.5092	831.1028	883.0653	910.6135	932.5448	977.3601	990.1417	1015.1535	1057.537	1092.2816	1099.4231	1133.9728	1140.8772	1200.0838	1248.017	1275.9604	1294.3425	1330.0482	1354.6713	1395.2057	1432.942	1518.3017	1862.408	3017.721	3051.5031	3156.9277	3170.7568	3211.2201	3222.6818
O=C1C2C3COC1OC23	O=C1[C@H]2[C@H]3CO[C@@H]1O[C@@H]23	
InChI=1S/C6H6O3/c7-4-3-2-1-8-6(4)9-5(2)3/h2-3,5-6H,1H2	InChI=1S/C6H6O3/c7-4-3-2-1-8-6(4)9-5(2)3/h2-3,5-6H,1H2/t2-,3-,5-,6-/m1/s1
