18
gdb 55420	2.6954	1.51859	1.00547	3.6469	74.67	-0.2257	-0.0055	0.2202	1157.5185	0.150528	-435.333349	-435.32512	-435.324176	-435.366303	31.544	
N	 0.0002306848	 1.3065046688	 0.3016085781	-0.541252
C	 0.0633765874	-0.0339009539	 0.041348357	 0.428122
N	 1.1770978032	-0.615488676	-0.1975852119	-0.56442
N	-1.1921775077	-0.7015639423	 0.1198971338	-0.14749
C	-1.2562190997	-2.1644702866	 0.0956507889	-0.175111
C	-2.7133511922	-2.4731576304	 0.4850629631	-0.239961
C	-3.4801397879	-1.2348211729	 0.0103491594	-0.326279
C	-2.447002705	-0.1153384136	 0.0526715918	 0.436405
O	-2.6890138509	 1.0755891184	 0.0082428606	-0.39497
H	 0.8347888571	 1.8076988798	 0.0440511108	 0.257305
H	-0.8970426603	 1.757081978	 0.1751629438	 0.280269
H	 1.0750546549	-1.6142983235	-0.3380226468	 0.211048
H	-1.0142644344	-2.5439386655	-0.9062598822	 0.121499
H	-0.534507118	-2.5865176257	 0.799513886	 0.133628
H	-3.0653172548	-3.4058904473	 0.04132334	 0.117895
H	-2.7899557278	-2.5688629867	 1.5720169322	 0.125563
H	-3.8212953169	-1.3324376557	-1.0274606782	 0.138399
H	-4.3490940421	-0.9707724347	 0.6148870735	 0.139352
85.3662	116.0631	163.1646	236.1563	273.0651	405.0698	432.7319	492.3349	544.7861	561.8169	578.8939	638.3533	653.5295	730.1943	740.9804	761.5262	856.6481	912.5106	947.8856	1004.8669	1033.1012	1094.3308	1116.0479	1162.9639	1187.1239	1215.2512	1227.1772	1255.5335	1286.1289	1312.492	1349.3252	1401.2121	1417.9777	1467.9666	1500.2797	1534.0308	1607.7457	1725.3034	1798.7975	3014.2374	3047.5777	3065.5325	3090.1127	3118.9387	3127.5325	3527.4791	3563.2567	3690.6131
NC(=N)N1CCCC1=O	NC(=N)N1CCCC1=O	
InChI=1S/C5H9N3O/c6-5(7)8-3-1-2-4(8)9/h1-3H2,(H3,6,7)	InChI=1S/C5H9N3O/c6-5(7)8-3-1-2-4(8)9/h1-3H2,(H3,6,7)
