20
gdb 11041	3.9733	1.68745	1.42435	1.3172	74.35	-0.2238	0.0876	0.3114	965.6374	0.177219	-349.005611	-348.997637	-348.996693	-349.03733	31.174	
C	-0.0043452239	 1.5650943891	-0.032743673	-0.400117
C	 0.0381964337	 0.039167102	 0.0570965987	 0.004433
C	 0.7828298549	-0.6235506011	-1.1276757794	-0.106635
O	 1.3400969665	-1.8424895844	-0.6490346475	-0.295772
C	 1.5410049262	-1.7282392298	 0.7454720711	 0.454824
C	 1.6472384216	-3.0708913245	 1.4088278213	-0.465767
C	 2.2974023748	-0.5136037703	 1.2284739039	-0.361743
C	 0.77343974	-0.5431863618	 1.2572348938	-0.11736
H	 1.0061013929	 1.9873538326	-0.0141942558	 0.116931
H	-0.4898927064	 1.8951945994	-0.957939695	 0.113491
H	-0.5615115915	 1.9955923666	 0.8051517853	 0.116117
H	-0.9903354918	-0.343237375	 0.0866725585	 0.076691
H	 0.1292962401	-0.8589380875	-1.9728602766	 0.106538
H	 1.5766219009	 0.0441110533	-1.4966071495	 0.089995
H	 2.5072776745	-3.6270081999	 1.0211871962	 0.127014
H	 1.7735964586	-2.9581647816	 2.4890307687	 0.115096
H	 0.7473358749	-3.6657442929	 1.2221710756	 0.122029
H	 2.8073212026	-0.5921514426	 2.1828625397	 0.108993
H	 2.8062308659	 0.1175482605	 0.5073995898	 0.112486
H	 0.2689813256	-0.5639490121	 2.2172257042	 0.082755
132.9708	201.1008	205.9094	226.6709	237.9599	352.4597	368.7582	423.8751	496.4586	593.2502	633.9286	714.762	810.3167	831.2772	901.0985	916.7735	943.2039	952.2328	982.7835	1017.5656	1035.4209	1042.8974	1082.8617	1115.2154	1123.1261	1142.1306	1171.4831	1235.8446	1246.462	1281.2003	1334.2464	1349.5402	1391.1514	1399.6064	1412.871	1429.1202	1477.3097	1483.4873	1495.8711	1499.4786	1505.8672	1525.8685	2981.1173	3019.0072	3029.4761	3036.1	3078.1944	3094.8858	3100.3188	3103.5889	3117.4324	3128.9044	3163.7469	3212.8003
CC1COC2(C)CC12	C[C@H]1CO[C@@]2(C)C[C@@H]12	
InChI=1S/C7H12O/c1-5-4-8-7(2)3-6(5)7/h5-6H,3-4H2,1-2H3	InChI=1S/C7H12O/c1-5-4-8-7(2)3-6(5)7/h5-6H,3-4H2,1-2H3/t5-,6-,7-/m0/s1
