16
gdb 124770	3.68333	1.21621	0.98823	1.4761	72.85	-0.2494	-0.079	0.1704	1168.7741	0.124839	-434.07604	-434.067999	-434.067055	-434.109357	29.458	
C	-0.5435662298	 1.371833315	 0.1008258056	-0.395747
C	 0.1318713512	 0.0110162275	-0.1450945001	 0.054841
O	 1.057600607	 0.1035799395	-1.1974948666	-0.437635
C	 0.7940513877	-0.5002109172	 1.1202395793	 0.309268
C	 0.08898511	-0.8873236712	 2.2695320975	-0.014664
N	 0.7023151956	-1.3195681105	 3.3622812075	-0.167697
N	 2.0369276453	-1.3804657298	 3.3651416493	-0.188711
C	 2.6742026449	-1.0096231025	 2.2607829868	 0.106919
N	 2.1181841582	-0.5718329653	 1.1244724125	-0.323887
H	 0.1973253938	 2.1088977611	 0.4241452879	 0.129256
H	-0.9901034295	 1.717081602	-0.8345347105	 0.139553
H	-1.3298321323	 1.3042166909	 0.8593608201	 0.116887
H	-0.6477739008	-0.7152928345	-0.4252640203	 0.099724
H	 1.9346790352	-0.0224546763	-0.8037398221	 0.294358
H	-0.995835745	-0.8581141113	 2.3124387998	 0.132706
H	 3.7578847986	-1.0749865075	 2.2922841832	 0.144831
39.1308	126.1371	214.4372	247.7666	291.2413	350.9966	383.7477	397.001	471.2152	562.0093	646.3079	692.5278	814.5602	829.3017	921.4439	936.8518	999.2689	1021.378	1039.3986	1071.8188	1094.014	1148.8503	1176.7403	1250.2321	1274.7111	1313.0208	1337.1034	1356.1882	1400.0189	1440.6642	1474.3631	1489.2735	1496.5091	1566.1196	1595.9045	2978.9955	3041.9401	3117.7066	3132.1829	3177.5128	3185.9112	3693.4749
CC(O)C1=CN=NC=N1	C[C@@H](O)c1cnncn1	
InChI=1S/C5H7N3O/c1-4(9)5-2-7-8-3-6-5/h2-4,9H,1H3	InChI=1S/C5H7N3O/c1-4(9)5-2-7-8-3-6-5/h2-4,9H,1H3/t4-/m1/s1
