17
gdb 81148	2.504	1.64534	1.22781	2.1847	72.88	-0.2457	0.0157	0.2613	1027.8756	0.137989	-417.98687	-417.97915	-417.978206	-418.018886	30.186	
N	 0.2424869141	 1.4216924326	-0.1096709266	-0.531846
C	 0.0661693501	 0.002933125	 0.0051407389	 0.016056
C	 0.0216134653	-0.6024815885	 1.4330525483	 0.083995
C	-1.4784632122	-0.2298507383	 1.509787108	-0.292999
C	-1.4089331689	-0.6469712525	 0.0013958103	 0.141233
C	-1.0112726432	-2.1266093292	 0.1486186764	-0.115536
O	-0.0069702026	-2.0128578081	 1.1815300902	-0.273618
C	-2.3987416974	-0.273200759	-0.9707850636	 0.147382
N	-3.1667014161	 0.0666043009	-1.7670968412	-0.341767
H	 0.0546124699	 1.7344295972	-1.0568035518	 0.248601
H	-0.3626361915	 1.9501590382	 0.5084053984	 0.237434
H	 0.7606039696	-0.5005805522	-0.6725786772	 0.100378
H	 0.7526966095	-0.3692925321	 2.2041471179	 0.099461
H	-2.1081947185	-0.8315065994	 2.1672883058	 0.122237
H	-1.6841266923	 0.8309163075	 1.6493174391	 0.117329
H	-1.8328661821	-2.7682127332	 0.4840452635	 0.120895
H	-0.5765336836	-2.5426868589	-0.7665334264	 0.120763
118.609	157.4532	218.253	288.8947	314.0016	355.1356	471.7174	488.1748	542.0913	544.8319	592.9247	645.6594	799.136	833.3043	865.3782	889.7087	922.4163	957.8229	975.388	1011.8085	1045.0928	1083.3044	1121.0239	1150.9428	1185.6854	1204.7506	1211.5795	1221.2163	1252.8142	1274.2061	1296.8966	1369.9604	1430.0793	1494.4291	1529.4326	1662.4116	2344.9834	3035.2714	3079.3403	3082.7936	3089.5035	3153.5082	3155.2431	3510.6546	3592.1403
NC1C2CC1(CO2)C#N	N[C@H]1[C@H]2C[C@@]1(CO2)C#N	
InChI=1S/C6H8N2O/c7-2-6-1-4(5(6)8)9-3-6/h4-5H,1,3,8H2	InChI=1S/C6H8N2O/c7-2-6-1-4(5(6)8)9-3-6/h4-5H,1,3,8H2/t4-,5+,6+/m1/s1
