16
gdb 48676	3.57246	1.20517	1.07389	2.2739	70.8	-0.2512	-0.0349	0.2163	1114.9554	0.125399	-437.931282	-437.923569	-437.922625	-437.963724	29.	
O	-0.1197648279	 0.0235813755	 0.1807211902	-0.264252
C	 0.0059700852	 1.2006344435	-0.0550456304	 0.084074
C	 1.2965818574	 1.9179733671	-0.0556632253	 0.238417
C	 1.3111489321	 3.4028315072	 0.2433383391	-0.331755
C	 1.6211125386	 2.9465195915	-1.1472972684	-0.206138
C	 3.0858295203	 2.7517313709	-1.4745028792	 0.432924
O	 3.7094405656	 3.2985770067	-2.3552988916	-0.376621
N	 3.5738877435	 1.8382899292	-0.5741050609	-0.328066
C	 2.5789000837	 1.1417713514	 0.2260817803	-0.245863
H	-0.8723509705	 1.8419424333	-0.2963681446	 0.076746
H	 0.3491631136	 3.8799743236	 0.4016216855	 0.134533
H	 2.1160721569	 3.7777767116	 0.8666671916	 0.14144
H	 0.9473917979	 3.1757813902	-1.9625044704	 0.125675
H	 4.5326812466	 1.5359344548	-0.6384479018	 0.257712
H	 2.839007724	 1.1507470939	 1.2910328112	 0.122139
H	 2.4493584829	 0.0977062695	-0.0815166854	 0.139035
85.8546	148.2968	201.7584	215.8575	338.0926	357.9405	461.0467	474.9791	516.1579	616.7774	699.8334	748.2357	777.9951	820.6338	851.0512	939.529	982.9718	1004.6902	1035.1177	1064.4775	1071.7576	1087.2762	1099.4093	1203.488	1237.8804	1243.333	1318.5725	1343.7272	1383.9067	1434.9443	1447.528	1480.9684	1531.9045	1810.2608	1834.3021	2872.6643	3029.8222	3066.0476	3129.2107	3207.5308	3220.0952	3648.0827
O=CC12CC1C(=O)NC2	O=C[C@]12C[C@H]1C(=O)NC2	
InChI=1S/C6H7NO2/c8-3-6-1-4(6)5(9)7-2-6/h3-4H,1-2H2,(H,7,9)	InChI=1S/C6H7NO2/c8-3-6-1-4(6)5(9)7-2-6/h3-4H,1-2H2,(H,7,9)/t4-,6+/m0/s1
