14
gdb 35442	2.45099	1.48566	1.10928	5.0714	73.95	-0.267	-0.0037	0.2633	1082.5091	0.099426	-399.484386	-399.476493	-399.475548	-399.517039	29.403	
C	-0.0554856244	-1.178553648	-0.0991439511	-0.381457
C	 0.0242154337	 0.0183213759	-0.0226089562	 0.206563
C	 0.0800205315	 1.4302693432	 0.1169462049	 0.301537
O	 0.2952217123	 2.265223876	-1.0248720834	-0.26484
C	 1.1886636269	 2.4156341238	 0.0758405281	-0.057982
C	 0.5079727841	 3.3358938049	 1.0925992206	-0.262451
C	-0.6751721874	 2.2952640256	 1.169892941	-0.2658
C	-2.0103383987	 2.7439274995	 0.8120344384	 0.296722
N	-3.071087678	 3.108076444	 0.5330948284	-0.321269
H	-0.1225253942	-2.2358019433	-0.1804102115	 0.203972
H	 2.2440052874	 2.2589762371	-0.1106243644	 0.132435
H	 1.0352400669	 3.4195950424	 2.0440341131	 0.128745
H	 0.2505236257	 4.3260561424	 0.7149011137	 0.143729
H	-0.6989121658	 1.7968364563	 2.1414166384	 0.140096
91.2016	127.1491	159.4765	214.4245	318.1218	427.4559	457.2046	498.9327	548.3029	563.5746	627.9473	665.6365	685.8906	735.9699	805.908	894.1949	927.2137	939.0332	1002.9782	1033.2921	1069.3357	1131.7044	1140.3962	1185.9614	1256.8256	1263.2907	1330.3742	1420.475	1475.6721	2245.3456	2360.6703	3087.4221	3097.142	3151.413	3203.6431	3499.3238
C#CC12OC1CC2C#N	C#C[C@]12O[C@H]1C[C@H]2C#N	
InChI=1S/C7H5NO/c1-2-7-5(4-8)3-6(7)9-7/h1,5-6H,3H2	InChI=1S/C7H5NO/c1-2-7-5(4-8)3-6(7)9-7/h1,5-6H,3H2/t5-,6-,7+/m0/s1
