18
gdb 71722	2.56526	2.08402	1.52684	1.1247	73.85	-0.221	0.0616	0.2825	918.7888	0.148132	-401.89071	-401.88333	-401.882386	-401.921903	30.199	
C	-0.0095391606	 1.5039901429	-0.034500809	-0.519235
C	 0.0217788551	 0.0138044647	 0.0058008824	 0.303087
C	 0.5741996218	-1.0445413225	-0.9270650892	-0.199526
C	-0.6972129398	-1.8500646191	-0.6482683205	-0.050115
C	-0.717275581	-2.0806573094	 0.8208669361	-0.049442
C	 0.6591718314	-1.9221809603	 1.4163933205	-0.311517
C	 1.1732981506	-0.8605367663	 0.4597668472	 0.335937
O	 2.4639100123	-0.353860342	 0.5183167254	-0.476495
N	-1.2418920182	-0.7863782387	 0.2607528489	-0.20077
H	 0.9947531294	 1.893816481	-0.2285834441	 0.124716
H	-0.6786212736	 1.8722069446	-0.8185776904	 0.131057
H	-0.3616849764	 1.9107322972	 0.9212773532	 0.122044
H	 1.1435043359	-0.95684664	-1.8414995609	 0.098069
H	-1.3239497852	-2.352526226	-1.3761280919	 0.095335
H	-1.4736603544	-2.7069355109	 1.2797331641	 0.097293
H	 0.6308483232	-1.5697272913	 2.4543361688	 0.099001
H	 1.2435143685	-2.8471381239	 1.3727945435	 0.113114
H	 2.5321216409	 0.2104526501	 1.2969383159	 0.287448
189.9722	204.5231	221.3715	301.1403	335.3243	377.2941	434.0005	532.4792	608.1533	641.9098	706.3579	748.3428	749.7073	800.7279	830.1584	878.0286	913.2085	927.727	949.8659	983.0951	1012.0068	1043.3128	1062.4774	1112.9563	1116.8591	1148.0898	1152.6118	1190.7045	1216.5414	1238.521	1286.7066	1328.2672	1360.1603	1374.8144	1409.3882	1455.2486	1480.4043	1490.1032	1501.8075	3025.0915	3037.094	3085.4338	3088.3133	3107.8283	3171.3365	3186.481	3218.8291	3787.6795
CC12C3C4C(CC13O)N24	C[C@@]12[C@@H]3[C@H]4[C@@H](C[C@]13O)N24	
InChI=1S/C7H9NO/c1-6-5-4-3(8(4)6)2-7(5,6)9/h3-5,9H,2H2,1H3	InChI=1S/C7H9NO/c1-6-5-4-3(8(4)6)2-7(5,6)9/h3-5,9H,2H2,1H3/t3-,4-,5+,6-,7-,8?/m1/s1
