19
gdb 57262	2.19857	1.42366	1.30746	5.3714	75.03	-0.2565	0.0331	0.2897	1108.825	0.157274	-419.192636	-419.182829	-419.181885	-419.226653	37.395	
C	 0.1634244851	 1.4959034581	 0.11418478	-0.419119
C	 0.011320132	-0.0373275728	 0.0408469274	 0.015956
N	 0.5015448967	-0.5945411247	 1.3038161488	-0.531255
C	-1.4281134475	-0.3742023861	-0.0467797556	 0.3141
N	-2.5474540814	-0.651598567	-0.1092059448	-0.340459
C	 0.6889573576	-0.5718747471	-1.2488209901	 0.415105
O	 0.1438973119	-0.0354697378	-2.4233544969	-0.460133
C	 2.1566320691	-0.9162965951	-1.2657514192	-0.34453
C	 1.1031224299	-2.0025945405	-1.3772666515	-0.299238
H	 1.2275042981	 1.7531295894	 0.1505207681	 0.118498
H	-0.2895626927	 1.9801645851	-0.7528657802	 0.133668
H	-0.3198492674	 1.8724487646	 1.0170348973	 0.151249
H	 0.4071381573	-1.6039787381	 1.3274839424	 0.245184
H	 1.4801736802	-0.3612219154	 1.4339653039	 0.236981
H	 0.5008098919	 0.8501925076	-2.5496928276	 0.287471
H	 2.7034682925	-0.6517779432	-2.1638557295	 0.123517
H	 2.7348635416	-0.8598991587	-0.3500738662	 0.104328
H	 0.9717926346	-2.6721014911	-0.5349857205	 0.111328
H	 0.9428520403	-2.454835587	-2.3482063559	 0.13735
62.911	140.2462	186.3627	226.5814	256.5834	272.6282	298.821	314.0715	361.6545	380.7395	418.1053	430.7712	497.6386	542.3995	599.364	655.3264	770.935	785.2976	848.9345	900.8004	917.759	941.5538	975.5676	992.7701	1036.2477	1052.9748	1083.8406	1142.3688	1186.2684	1194.944	1261.1301	1291.0433	1324.8924	1360.1831	1398.0106	1450.902	1489.5144	1496.7908	1500.6339	1648.3149	2362.7277	3045.7023	3125.2788	3135.1615	3146.5548	3148.9254	3219.9752	3239.0285	3508.9581	3602.1229	3804.8215
CC(N)(C#N)C1(O)CC1	C[C@@](N)(C#N)C1(O)CC1	
InChI=1S/C6H10N2O/c1-5(8,4-7)6(9)2-3-6/h9H,2-3,8H2,1H3	InChI=1S/C6H10N2O/c1-5(8,4-7)6(9)2-3-6/h9H,2-3,8H2,1H3/t5-/m1/s1
