17
gdb 44219	4.02352	1.26168	1.19323	3.8697	75.03	-0.2313	0.0156	0.2469	1078.6512	0.136528	-417.950423	-417.942965	-417.942021	-417.982351	29.51	
N	 0.1262456537	 0.9105599701	-0.734134608	-0.54288
C	 0.0567121383	-0.1780041346	-0.101116937	 0.379872
N	 0.9627905224	-1.0555788663	 0.5223064144	-0.328445
C	-0.0565312399	-2.0605360662	 0.8505849791	-0.163666
C	-1.1205064566	-1.0854819698	 0.2644783831	 0.027287
O	-1.4261105301	-2.010031998	-0.8062527949	-0.314716
C	-0.4994324439	-2.972255856	-0.2863330459	 0.466123
C	 0.2775415354	-3.8931443636	-1.1631314599	-0.340055
C	-0.8261513758	-4.4279517925	-0.2572202233	-0.335819
H	 1.0930603306	 1.2127998731	-0.8699457424	 0.211636
H	 1.8941221741	-1.2635155893	 0.1843393382	 0.238826
H	-0.0238347793	-2.4521410067	 1.8667681072	 0.098031
H	-2.004012499	-0.6882734219	 0.7616282622	 0.105861
H	 0.0676153838	-3.8463671411	-2.2261294536	 0.13469
H	 1.3109149861	-4.1121150474	-0.9131187879	 0.113767
H	-0.546055589	-5.0043782274	 0.6187668501	 0.117527
H	-1.7543702708	-4.7320357626	-0.7282856915	 0.131963
81.0815	188.7487	208.4478	284.3536	362.6769	422.1277	464.7195	513.4887	583.6469	693.0126	747.2708	763.2033	812.3103	847.0564	869.5051	881.3986	914.9421	958.4871	984.7651	991.1412	1026.7701	1036.223	1047.6874	1068.8923	1069.4432	1163.1822	1183.2474	1186.6414	1222.1276	1267.1775	1302.8924	1329.5251	1346.8458	1390.8342	1448.5019	1497.7156	1798.6441	3115.9689	3128.0121	3130.3784	3136.1571	3212.7293	3226.551	3453.7898	3566.5249
N=C1NC2C1OC21CC1	[NH][C]1N[C@H]2[C@@H]1OC12CC1	
InChI=1S/C6H8N2O/c7-5-3-4(8-5)6(9-3)1-2-6/h3-4H,1-2H2,(H2,7,8)	InChI=1S/C6H8N2O/c7-5-3-4(8-5)6(9-3)1-2-6/h3-4H,1-2H2,(H2,7,8)/t3-,4-/m0/s1
