16
gdb 96716	2.39657	0.89946	0.66321	5.3087	81.54	-0.265	-0.0459	0.219	1647.6347	0.120262	-437.886127	-437.875635	-437.874691	-437.923936	34.064	
C	 0.041319307	 1.5295357748	 0.2469597624	-0.333739
N	 0.1737175671	 0.0883744084	 0.2280220424	-0.287559
C	 0.6701146144	-0.497798693	-0.7759733956	 0.250831
O	 0.7926296964	-1.8770640458	-0.7907942979	-0.205967
C	-0.068471982	-2.6245386047	-0.0279330592	 0.173167
O	 0.0857714806	-3.7991127938	 0.0925479665	-0.257522
C	 1.1924902213	 0.0734980221	-1.9774910481	 0.063856
C	 1.6344496297	 0.5693496413	-2.9837186111	 0.086133
C	 2.169449017	 1.1530077498	-4.2015531039	-0.505269
H	 0.5745033593	 1.9197262575	 1.1207867319	 0.139372
H	 0.4183878128	 2.0286722653	-0.6539715848	 0.120884
H	-1.0153364947	 1.7875146246	 0.3799289862	 0.137094
H	-0.8759965292	-2.0219701805	 0.4073269837	 0.124404
H	 2.58883859	 0.380871538	-4.8545175558	 0.167169
H	 1.387464921	 1.6798043666	-4.7589395329	 0.163411
H	 2.9623428893	 1.8738129994	-3.975308194	 0.163733
23.7439	67.8994	78.0338	111.3491	118.5521	173.8592	190.0462	277.0241	298.391	358.8282	392.0325	475.217	500.3512	643.6932	716.8224	815.8739	997.9916	1039.3813	1047.2661	1051.2949	1104.2119	1116.0429	1133.6952	1174.8236	1267.1515	1401.4883	1410.5102	1439.5732	1470.3214	1472.1013	1487.1079	1494.4591	1724.3082	1869.4393	2356.1324	3013.8451	3034.0526	3069.1346	3084.3189	3087.4699	3097.7562	3103.2145
CN=C(OC=O)C#CC	CN=C(OC=O)C#CC	
InChI=1S/C6H7NO2/c1-3-4-6(7-2)9-5-8/h5H,1-2H3	InChI=1S/C6H7NO2/c1-3-4-6(7-2)9-5-8/h5H,1-2H3
