17
gdb 56559	2.8522	1.07589	0.92746	5.0231	69.41	-0.2624	0.0047	0.2671	1275.4136	0.133885	-455.187776	-455.177462	-455.176518	-455.223573	36.094	
C	-0.210357167	 1.642774361	-0.1219935467	-0.41399
C	 0.0150785743	 0.124439979	-0.0404223239	-0.120864
C	-1.3059222295	-0.662794006	 0.1133673065	 0.005938
O	-1.0910502933	-2.0588802937	 0.2192074746	-0.415346
C	-2.1006937896	-0.1707518864	 1.2543988705	 0.252493
N	-2.6931221335	 0.1893576162	 2.1792375874	-0.325047
C	 0.6643626838	-0.3558462034	-1.3472611289	 0.436386
N	 1.9626048603	-0.7516360048	-1.2529100665	-0.532936
O	 0.0542448548	-0.3277505246	-2.3981070258	-0.371397
H	 0.7449263048	 2.1650567193	-0.2238667344	 0.128478
H	-0.8210310282	 1.8829831186	-0.9964466215	 0.151074
H	-0.7108581486	 2.015487619	 0.7750928819	 0.146127
H	 0.6524425464	-0.1083940895	 0.8222712413	 0.072436
H	-1.8773487963	-0.5205752201	-0.809546863	 0.166218
H	-0.7136407744	-2.2443977867	 1.086764749	 0.292397
H	 2.4243452334	-0.8729002759	-0.3692037847	 0.260821
H	 2.4116721427	-1.1037718121	-2.0833803759	 0.267213
46.2572	67.1247	130.589	183.0157	215.4566	222.1586	232.487	268.2314	280.4339	335.1268	406.3924	443.8962	550.3209	582.7142	609.2731	623.4731	762.6259	815.7397	872.3753	969.8332	1029.1709	1064.7796	1098.7943	1110.3703	1137.606	1237.9406	1273.5023	1298.1251	1344.8929	1397.1447	1411.3496	1427.9252	1494.4811	1503.8315	1619.7183	1797.4413	2352.8864	3025.0668	3049.3296	3081.4286	3122.4959	3132.9726	3600.0147	3737.6472	3802.1191
CC(C(O)C#N)C(N)=O	C[C@@H]([C@@H](O)C#N)C(=O)N	
InChI=1S/C5H8N2O2/c1-3(5(7)9)4(8)2-6/h3-4,8H,1H3,(H2,7,9)	InChI=1S/C5H8N2O2/c1-3(5(7)9)4(8)2-6/h3-4,8H,1H3,(H2,7,9)/t3-,4-/m0/s1
