19
gdb 122506	4.37308	0.58227	0.54213	1.4697	74.26	-0.2624	-0.0434	0.219	1974.8444	0.156249	-460.141011	-460.130933	-460.129989	-460.177776	34.787	
O	-0.0747906671	 1.4737282587	-0.446882549	-0.415984
C	 0.0054533921	 0.0815482446	-0.1962999071	-0.061081
C	-1.3678776562	-0.5733897652	-0.0394601408	-0.19667
C	-1.2776020657	-2.0678224996	 0.3005801024	-0.239158
C	-2.647541495	-2.6884969456	 0.4415588769	 0.07513
O	-3.362859039	-3.0036784912	-0.745287448	-0.244732
C	-2.994037901	-4.0943674831	 0.1087115348	-0.056755
C	-1.9849570174	-5.0481282536	-0.4426065711	 0.139683
O	-1.8565616034	-6.1756749797	-0.038758282	-0.243168
H	-0.5177496146	 1.5967063771	-1.2925755464	 0.282578
H	 0.5799070909	-0.4366227127	-0.9818015245	 0.089032
H	 0.5761721813	-0.0184119943	 0.7340725862	 0.113118
H	-1.9229691671	-0.0390854845	 0.7410968473	 0.110942
H	-1.9376159969	-0.453884137	-0.9708841186	 0.106899
H	-0.706146595	-2.5909185801	-0.4724157027	 0.108755
H	-0.7359165629	-2.2039364044	 1.2458419525	 0.115747
H	-3.2708317377	-2.2340793361	 1.215830083	 0.106367
H	-3.8076911125	-4.5687323068	 0.655986464	 0.117792
H	-1.3675689529	-4.6393749164	-1.2710226468	 0.091506
40.0334	64.447	80.8761	122.1405	134.8411	233.8257	262.3238	309.0521	329.713	392.813	453.8175	500.683	541.8992	750.3847	805.5784	851.9597	884.9026	960.5279	1016.9353	1025.4377	1037.5294	1068.6488	1082.9511	1102.5264	1138.8175	1169.0333	1188.4044	1258.6615	1273.8754	1297.8343	1322.9895	1340.0789	1366.107	1401.3867	1411.526	1424.728	1464.5263	1474.987	1492.2198	1514.5601	1823.863	2905.326	2969.6302	3018.0493	3031.2263	3053.6834	3069.7079	3077.7361	3094.8527	3131.6378	3816.0429
OCCCC1OC1C=O	OCCC[C@H]1O[C@H]1C=O	
InChI=1S/C6H10O3/c7-3-1-2-5-6(4-8)9-5/h4-7H,1-3H2	InChI=1S/C6H10O3/c7-3-1-2-5-6(4-8)9-5/h4-7H,1-3H2/t5-,6+/m1/s1
