16
gdb 38813	3.10885	1.92425	1.55419	2.9322	66.5	-0.2458	0.0223	0.2681	865.4616	0.1275	-437.89107	-437.884775	-437.88383	-437.92181	25.158	
C	 0.0950674092	 1.536248177	-0.4621650064	-0.271175
C	 1.4803132948	 1.948004228	-0.0036345159	 0.042422
O	 1.6242475771	 1.9358110357	 1.4194699031	-0.244984
C	 2.1498020388	 0.8300846075	 0.6793382327	 0.043317
C	 1.2248377842	-0.3805103445	 0.7186820453	-0.052467
N	 0.9227333824	-0.7963091424	 2.0974362144	-0.260784
C	-0.2652876644	-0.4085177736	 2.3088148736	 0.124937
O	-0.9876172835	 0.1643429676	 1.3154838276	-0.228748
C	-0.1339083581	 0.1381390226	 0.1459093781	 0.076922
H	-0.6768901626	 2.2379952531	-0.1345933446	 0.133946
H	 0.0593688905	 1.4865909517	-1.5560483894	 0.10889
H	 2.0257497058	 2.7314044832	-0.5247364765	 0.0986
H	 3.2284051743	 0.7057141532	 0.7195156	 0.103603
H	 1.6531753616	-1.2109775475	 0.1499754951	 0.086313
H	-0.7982634041	-0.5013815094	 3.2485168181	 0.142248
H	-0.6005457759	-0.5443326221	-0.5688894054	 0.096959
112.3734	203.2113	350.0302	386.9541	435.1177	579.3302	625.2574	691.1616	774.4816	815.2826	866.4713	876.553	888.2121	907.4367	940.7095	963.7643	987.4549	1012.4419	1053.2728	1066.8798	1070.8627	1116.3395	1128.1676	1215.2431	1239.773	1259.1744	1277.643	1313.2803	1323.8492	1332.556	1357.7814	1378.914	1436.6395	1468.0239	1697.207	3049.7327	3063.5181	3078.631	3104.4381	3141.0894	3158.7602	3217.8784
C1C2OC2C2N=COC12	C1[C@H]2O[C@H]2[C@H]2N=CO[C@@H]12	
InChI=1S/C6H7NO2/c1-3-5(7-2-8-3)6-4(1)9-6/h2-6H,1H2	InChI=1S/C6H7NO2/c1-3-5(7-2-8-3)6-4(1)9-6/h2-6H,1H2/t3-,4+,5-,6+/m0/s1
