13
gdb 77856	2.16733	1.71392	1.60552	4.2087	62.02	-0.2725	-0.0525	0.22	909.9304	0.088634	-452.716987	-452.709374	-452.70843	-452.749252	27.906	
O	 0.1667970012	 1.4317146037	 0.2530174567	-0.409394
C	 0.0365336828	 0.0708284362	 0.0315581255	 0.008589
C	-1.3247837585	-0.6491854577	 0.000374087	-0.071166
C	-2.0869923291	-0.3859147445	-1.2398215199	-0.17978
C	-1.9819454264	 0.8810399542	-1.9280355146	 0.313798
N	-1.8887425842	 1.9099502968	-2.449079154	-0.327766
N	-0.9761231287	-1.3919620589	-1.2848748687	-0.18001
C	 0.2610412963	-0.5848759054	-1.3639865781	 0.346606
O	 1.0917960509	-0.5787796219	-2.206698673	-0.258861
H	-0.2462530649	 1.9187456129	-0.4712148885	 0.312049
H	 0.691322326	-0.4359792627	 0.7499419863	 0.146391
H	-1.7796430655	-1.1775006489	 0.829224043	 0.134089
H	-3.06073164	-0.8561310437	-1.3362765218	 0.165457
101.3489	122.1041	205.0142	246.2975	267.9925	408.7809	459.1274	494.4502	552.8737	619.0103	669.6584	697.4317	781.561	833.3535	867.8862	931.4642	943.6197	997.5979	1057.1583	1102.1418	1167.8123	1203.1966	1217.4004	1303.4362	1329.9376	1383.8626	1435.9101	1943.5616	2347.8827	3062.2981	3168.9277	3202.367	3780.2169
OC1C2C(C#N)N2C1=O	O[C@H]1[C@H]2[C@@H](C#N)N2C1=O	
InChI=1S/C5H4N2O2/c6-1-2-3-4(8)5(9)7(2)3/h2-4,8H	InChI=1S/C5H4N2O2/c6-1-2-3-4(8)5(9)7(2)3/h2-4,8H/t2-,3-,4+,7?/m1/s1
