16
gdb 98518	2.87019	1.23872	0.93438	3.6385	67.3	-0.2561	-0.0408	0.2153	1228.1522	0.12226	-475.030914	-475.021592	-475.020648	-475.066006	31.788	
C	-0.1526612507	 1.490400609	 0.2564099344	-0.247226
O	-0.2945607217	 0.0851122214	 0.5222979281	-0.235773
C	-1.0921593675	-0.5857569608	-0.3223053601	 0.420222
O	-1.6712800694	-0.0811821722	-1.2557867648	-0.388541
C	-1.1891643536	-2.0369112137	 0.0308764359	 0.061151
C	-2.5909187484	-2.5991292931	 0.0475219052	-0.236905
N	-1.709448023	-2.9170749745	-1.0500142437	-0.319237
C	-0.1642778782	-2.6706903211	 0.9314202978	 0.110444
O	-0.2826083569	-3.7878267446	 1.3642368009	-0.251896
H	 0.527584123	 1.8663478635	 1.0197364587	 0.14301
H	 0.2605580794	 1.6499860897	-0.7419939269	 0.149854
H	-1.1217860471	 1.9897719288	 0.3238212711	 0.148503
H	-2.7659072179	-3.4114076676	 0.7462260771	 0.154337
H	-3.4006352611	-1.8919703007	-0.1072131309	 0.138241
H	-1.9234918809	-2.2988126701	-1.8344094624	 0.256538
H	 0.7109800141	-2.0391528641	 1.1760138196	 0.097277
63.0328	74.9586	102.5085	140.4735	180.5721	254.3012	297.4342	326.3941	334.0713	408.6446	470.9087	723.5855	766.7356	790.6401	810.7852	910.3911	967.2289	997.822	1028.4153	1054.5381	1105.7767	1139.2801	1178.1931	1198.5908	1225.502	1306.9194	1342.8234	1362.3769	1432.408	1473.8195	1480.2808	1481.2326	1495.8074	1797.1458	1825.2756	2952.6771	3058.5073	3118.2687	3136.8858	3168.7385	3221.6994	3460.2681
COC(=O)C1(CN1)C=O	COC(=O)[C@]1(CN1)C=O	
InChI=1S/C5H7NO3/c1-9-4(8)5(3-7)2-6-5/h3,6H,2H2,1H3	InChI=1S/C5H7NO3/c1-9-4(8)5(3-7)2-6-5/h3,6H,2H2,1H3/t5-/m0/s1
