19
gdb 82062	2.82628	1.45909	1.26995	1.8461	74.39	-0.2473	0.0771	0.3245	1067.2931	0.159185	-422.970408	-422.962425	-422.96148	-423.003085	31.177	
O	 0.4410022272	 1.3456510529	 0.1719188871	-0.432623
C	 0.196038144	-0.0314570514	 0.1095105845	 0.03048
C	 0.1904597817	-0.7939172772	 1.4440351567	-0.016667
O	-0.8814161254	-0.2071992921	 2.2050010306	-0.265638
C	-1.2023631464	-1.2199685936	 1.233950125	-0.055589
C	-1.2907618833	-0.5142160882	-0.1203493961	 0.325923
C	-2.4565001474	 0.4563160865	-0.4137356866	-0.290116
C	-3.0406318936	-0.5856545811	-1.4086619476	-0.208975
C	-1.684248836	-1.3448475674	-1.3700569087	-0.305257
H	-0.0642789439	 1.6694900865	 0.9291345604	 0.291318
H	 0.877226052	-0.4549780378	-0.634348796	 0.089149
H	 1.0026522176	-1.2434932014	 2.0041486474	 0.105906
H	-1.7241725079	-2.0999896595	 1.5936106537	 0.105704
H	-3.0762304919	 0.7519923537	 0.4363734444	 0.104356
H	-2.0923461958	 1.3602520858	-0.9111746151	 0.113174
H	-3.8539212818	-1.1692706686	-0.9693354104	 0.103121
H	-3.3716389618	-0.2147391117	-2.3810710811	 0.101395
H	-1.0467648989	-1.1110427937	-2.2282289563	 0.106464
H	-1.7190793783	-2.4321322819	-1.2547306419	 0.097876
82.2993	112.1451	190.3573	240.8917	267.1569	386.0786	459.5692	495.1967	575.2613	634.4905	701.9998	760.3226	796.9833	853.0188	855.6334	866.5183	879.9012	907.264	939.4386	955.8773	997.7154	1045.1995	1050.1529	1091.231	1115.914	1155.048	1173.2768	1203.177	1218.9689	1230.4008	1246.1339	1251.7271	1275.1703	1282.9182	1292.9762	1320.4614	1373.0448	1433.316	1474.7866	1483.6145	1505.3566	3046.1715	3055.7902	3063.5326	3076.1531	3091.7471	3104.3111	3120.6245	3174.0776	3189.3784	3771.3914
OC1C2OC2C11CCC1	O[C@H]1[C@H]2O[C@H]2C21CCC2	
InChI=1S/C7H10O2/c8-5-4-6(9-4)7(5)2-1-3-7/h4-6,8H,1-3H2	InChI=1S/C7H10O2/c8-5-4-6(9-4)7(5)2-1-3-7/h4-6,8H,1-3H2/t4-,5+,6-/m1/s1
