25
gdb 92698	2.63674	1.19825	0.88057	0.2344	95.79	-0.225	0.034	0.259	1438.1763	0.229422	-352.394066	-352.384245	-352.3833	-352.428064	38.481	
C	-0.0430073745	 1.5697998017	 0.0155379847	-0.40471
C	 0.0208683563	 0.0406687305	-0.0062785054	 0.019686
C	 0.7448459377	-0.4852002892	-1.2543785982	-0.241884
C	 1.023944458	-1.9618919768	-1.1728282187	-0.170339
C	 0.9799235886	-2.6908244998	-0.0533141178	 0.34215
C	 1.2021602566	-4.1819988818	-0.0904538351	-0.480881
C	 0.6584209954	-2.0664964868	 1.2974439026	-0.076689
C	 1.5680395482	-2.5811157992	 2.4277888676	-0.404187
C	 0.7027826979	-0.5296201321	 1.2416706413	-0.184269
H	 0.962678252	 2.003617606	 0.0717340369	 0.110397
H	-0.5224140604	 1.9614127178	-0.8884106916	 0.10826
H	-0.6101602891	 1.9328473118	 0.879365767	 0.107878
H	-1.0081330525	-0.347069696	-0.0324479835	 0.069333
H	 0.1492519143	-0.272339017	-2.1522039692	 0.095406
H	 1.6867170882	 0.069577897	-1.3947314419	 0.098564
H	 1.2601383262	-2.4612121957	-2.1113739447	 0.070093
H	 1.3109242844	-4.5382661986	-1.1182376137	 0.115243
H	 2.0984508783	-4.4814020464	 0.4654006007	 0.123399
H	 0.3602141193	-4.7200226405	 0.3656493031	 0.116732
H	-0.3707774804	-2.3677076695	 1.555244627	 0.075605
H	 2.6222497487	-2.3814920046	 2.2043984269	 0.114619
H	 1.3248374592	-2.0753747466	 3.3681909299	 0.109723
H	 1.4563050148	-3.6561119414	 2.5927381394	 0.113196
H	 1.7526831144	-0.2011246544	 1.2521400444	 0.088376
H	 0.2432960384	-0.1205142583	 2.1501573786	 0.0843
79.2923	142.4772	201.8182	233.6849	237.9368	259.6936	280.5489	317.1784	338.6551	386.3682	410.7899	431.4947	484.4088	579.8616	669.4635	721.4103	821.3797	846.9979	885.496	908.3201	944.4978	967.0468	994.8006	1016.1219	1049.1319	1059.9649	1068.9501	1113.6729	1119.6401	1137.5541	1166.1232	1188.2231	1216.3538	1279.8281	1296.6779	1326.282	1332.2362	1352.4528	1371.8728	1385.5798	1397.6493	1408.873	1411.9215	1417.7749	1475.6529	1480.6843	1487.9152	1492.0993	1497.5847	1499.4324	1502.0956	1508.9078	1731.9104	2958.6201	2977.0265	2992.0948	3004.1731	3015.1361	3022.4923	3028.32	3031.1073	3046.764	3064.0663	3088.033	3094.1274	3095.5036	3107.2626	3112.347	3130.839
CC1CC=C(C)C(C)C1	C[C@H]1CC=C(C)[C@@H](C)C1	
InChI=1S/C9H16/c1-7-4-5-8(2)9(3)6-7/h5,7,9H,4,6H2,1-3H3	InChI=1S/C9H16/c1-7-4-5-8(2)9(3)6-7/h5,7,9H,4,6H2,1-3H3/t7-,9-/m0/s1
