16
gdb 38003	3.41181	1.88459	1.55913	1.7313	74.21	-0.237	-0.0277	0.2093	859.3611	0.126106	-400.61761	-400.611459	-400.610515	-400.647804	25.8	
C	-0.1431586217	 1.3367227306	 0.1050988785	-0.179977
N	 1.329311914	 1.609933679	-0.2033040764	-0.167259
C	 2.3262009435	 0.4471407596	 0.0049451675	-0.02611
C	 2.4192928845	-0.8477837831	 0.8045887365	 0.059374
O	 1.7382066168	-1.1225961078	 2.0192407043	-0.252976
C	 1.290766969	-1.800421353	 0.8085637795	-0.040579
C	 0.0151784433	-1.1420329771	 0.4146763867	-0.15335
C	 0.0921372442	-0.0746332698	-0.3900616691	 0.128845
C	 1.3500539824	 0.4104010344	-1.0944290743	-0.131681
H	-0.4590476567	 1.4591068603	 1.1442511965	 0.123042
H	-0.6936486053	 2.0173736266	-0.5508315841	 0.122321
H	 3.300547	 0.8869752249	-0.1893780815	 0.105484
H	 3.4377054555	-1.2392271045	 0.7824709759	 0.097634
H	 1.4558260866	-2.8744897413	 0.8118790934	 0.104501
H	-0.7893427667	-1.1990310567	 1.1453860241	 0.108417
H	 1.5376289107	 0.465784968	-2.1617037373	 0.102314
175.6381	264.4273	397.6387	434.2579	504.0832	509.8401	588.5205	636.9879	749.2814	771.7181	802.1614	818.1046	862.492	876.7092	896.4225	925.9162	945.7388	1001.6268	1040.8672	1056.5703	1060.3774	1076.3463	1105.7002	1137.3938	1145.9334	1214.8438	1258.045	1273.9449	1287.6461	1340.5737	1352.7637	1371.1171	1433.3654	1498.0786	1675.6654	3051.2686	3094.5121	3115.1409	3141.2827	3147.6687	3149.6629	3163.6334
C1N2C3C4OC4C=C1C23	C1N2[C@H]3[C@H]4O[C@H]4[CH][C]1[C@@H]23	
InChI=1S/C7H7NO/c1-3-2-8-5(3)6(8)7-4(1)9-7/h1,4-7H,2H2	InChI=1S/C7H7NO/c1-3-2-8-5(3)6(8)7-4(1)9-7/h1,4-7H,2H2/t4-,5+,6+,7-,8?/m0/s1
