16
gdb 11943	3.28386	1.80108	1.45412	2.9483	67.27	-0.2558	-0.0381	0.2177	903.1545	0.128384	-383.722902	-383.715142	-383.714197	-383.754882	28.602	
C	 0.0684296171	 1.523635298	 0.0425264147	-0.494048
C	-0.0669818293	 0.0377058372	 0.1341678394	 0.336425
C	-1.3392058292	-0.8138061357	-0.0412547317	-0.275966
C	-0.7386460846	-1.869553405	 0.9484029068	-0.29703
C	 0.5016551741	-0.9864042718	 1.0794756585	 0.255312
O	 1.035103607	-0.7735874902	-0.2417800557	-0.304302
C	 1.3989271934	-0.7829324851	 2.2273085033	 0.064408
O	 1.2122612032	-1.2704500626	 3.3169351179	-0.261831
H	 1.0624244522	 1.8470372182	 0.3596233284	 0.139824
H	-0.0810809378	 1.8498000672	-0.993298255	 0.139278
H	-0.6829999984	 2.0214717003	 0.6625363606	 0.134518
H	-2.2357032564	-0.3292676797	 0.3517394102	 0.113877
H	-1.5214058366	-1.1447678778	-1.0663022774	 0.115984
H	-1.2939786552	-1.9445396357	 1.88422061	 0.131826
H	-0.548862652	-2.8679633742	 0.5501745721	 0.118315
H	 2.2663654625	-0.1226770929	 2.0106830879	 0.083409
104.7939	166.898	190.0227	210.8403	247.5009	328.1273	428.4834	488.7572	511.034	605.9441	730.1488	763.6571	781.8058	831.6386	910.1527	940.7255	985.7567	1027.6134	1081.95	1084.6804	1145.526	1200.4616	1217.4326	1220.5366	1257.1992	1322.0938	1382.9412	1407.6923	1452.3075	1464.8343	1480.0266	1487.1799	1498.2978	1801.6377	2901.8135	3037.3145	3069.2417	3084.2665	3101.1267	3123.9588	3131.0621	3146.7538
CC12CCC1(O2)C=O	C[C@]12CC[C@]1(O2)C=O	
InChI=1S/C6H8O2/c1-5-2-3-6(5,4-7)8-5/h4H,2-3H2,1H3	InChI=1S/C6H8O2/c1-5-2-3-6(5,4-7)8-5/h4H,2-3H2,1H3/t5-,6-/m0/s1
