14
gdb 43569	3.33487	1.37399	1.12176	3.7185	68.	-0.2589	-0.0041	0.2548	1043.2868	0.102303	-432.860419	-432.85297	-432.852026	-432.89264	27.698	
N	-0.0634142603	 1.196909112	 0.4249859409	-0.544014
C	 0.0091954274	-0.0044992513	 0.0200936287	 0.412317
N	 1.1027262768	-0.741474278	-0.4205881424	-0.3539
C	 0.7886268693	-2.0939083554	-0.8676919768	-0.145774
C	 1.5627445267	-3.1227446064	-0.1563571468	 0.283307
N	 2.2003023871	-3.9237541041	 0.3780811493	-0.308229
C	-0.7206253939	-2.2020084066	-0.6112525159	 0.025827
O	-1.0514450775	-2.067145683	 0.757573186	-0.227703
C	-1.1802380037	-0.9090742771	-0.0918484171	-0.020281
H	 0.8473304355	 1.6599507669	 0.4166437233	 0.21351
H	 2.0399492335	-0.5057000814	-0.1356816623	 0.261715
H	 0.9833749767	-2.2143623866	-1.9428107212	 0.139225
H	-1.3172757975	-2.8840409913	-1.2075271327	 0.12937
H	-2.1761409899	-0.5017710278	-0.2148656628	 0.13463
83.816	132.909	206.3183	289.9956	353.4337	386.1616	420.9207	508.8965	574.2162	630.4008	705.1183	802.4092	837.8263	859.2658	886.5039	895.0212	945.2715	1010.4813	1032.9882	1093.9199	1106.3834	1149.3204	1242.9445	1264.9405	1291.1415	1346.1156	1386.9643	1413.7046	1427.4937	1761.3399	2364.1528	3007.4089	3179.0997	3208.9976	3458.5547	3641.3607
N=C1NC(C#N)C2OC12	[NH][C]1N[C@@H](C#N)[C@H]2O[C@@H]12	
InChI=1S/C5H5N3O/c6-1-2-3-4(9-3)5(7)8-2/h2-4H,(H2,7,8)	InChI=1S/C5H5N3O/c6-1-2-3-4(9-3)5(7)8-2/h2-4H,(H2,7,8)/t2-,3+,4+/m0/s1
