15
gdb 51398	4.24987	1.09333	0.99994	2.6134	67.89	-0.2528	-0.0083	0.2445	1162.5234	0.112949	-453.87473	-453.867176	-453.866232	-453.907469	27.893	
N	-0.8431860951	 0.3159505146	-1.1397513758	-0.465378
C	-0.3248651583	 0.202911255	 0.0076983034	 0.118135
O	-0.290210301	-0.9540392775	 0.6917981578	-0.214875
C	-0.8225242276	-2.0814183925	 0.028783838	 0.227562
C	-1.0560040602	-3.2879163447	 0.9655683858	-0.210592
N	-2.2425883834	-2.5073357757	 1.5377431461	-0.30873
C	-2.3669892555	-2.2678787895	 0.0283508928	-0.186352
C	-2.0802589703	-3.7805245183	-0.0869508824	 0.422076
O	-2.5491830776	-4.7861425176	-0.5215119135	-0.319779
H	-0.7548659627	 1.2705553062	-1.4801359964	 0.235475
H	 0.1588593373	 0.9814293108	 0.6039050608	 0.118117
H	-0.3114892901	-2.2535617144	-0.9188499915	 0.117863
H	-0.3445875971	-3.8142016087	 1.5972635154	 0.110727
H	-2.973086741	-3.1446637799	 1.8669059489	 0.238043
H	-3.1300688272	-1.6298962678	-0.4061794894	 0.117708
61.5502	126.123	173.2748	244.4156	310.8123	365.5603	491.2957	534.3437	686.7123	730.3354	756.7154	793.8381	822.4316	837.4962	870.9826	958.7679	991.358	1030.2146	1046.1308	1047.517	1091.2107	1119.5682	1133.7916	1175.0384	1186.0029	1200.4072	1263.2298	1280.709	1308.7791	1399.9039	1411.763	1719.7509	1908.5522	3099.189	3117.4197	3159.8624	3183.3357	3416.7856	3523.6542
N=COC1C2NC1C2=O	[NH][CH]O[C@H]1[C@H]2N[C@@H]1C2=O	
InChI=1S/C5H6N2O2/c6-1-9-5-2-4(8)3(5)7-2/h1-3,5-7H	InChI=1S/C5H6N2O2/c6-1-9-5-2-4(8)3(5)7-2/h1-3,5-7H/t2-,3+,5-
