20
gdb 115683	2.05151	1.47731	1.03093	5.0007	75.75	-0.2433	0.0146	0.2578	1229.2373	0.171	-440.305984	-440.296819	-440.295875	-440.34046	33.457	
C	-0.0420271008	 1.4566897716	 0.1635021496	-0.396675
C	-0.1821029115	-0.0450665501	-0.0721839374	-0.132864
N	 0.6870136609	-0.5240621961	-1.1414684139	-0.098361
H	 1.2454760898	 0.8049040533	-2.4768184882	 0.293595
C	 0.693043992	-1.9780534942	-1.4326692553	-0.166868
C	 2.2243789122	-1.9148764722	-1.6348468494	-0.250957
C	 2.1567115007	-0.5258385037	-0.9320756827	-0.112927
C	 2.8868906132	 0.616108087	-1.6308788534	 0.429775
O	 2.1254004376	 1.2347139421	-2.5491809046	-0.372863
O	 4.0324209735	 0.9080810088	-1.4170004833	-0.345357
H	 0.9760137448	 1.7227452586	 0.4654723249	 0.136097
H	-0.2853322953	 2.023674592	-0.7397016733	 0.129721
H	-0.7168645256	 1.7766155178	 0.9624876185	 0.123881
H	 0.0211360847	-0.5912263529	 0.8674072058	 0.087762
H	-1.2130239625	-0.285185064	-0.3588642417	 0.110245
H	 0.4125390171	-2.5811894075	-0.5570496792	 0.10101
H	 0.0692360351	-2.275096833	-2.2809438673	 0.113849
H	 2.8244686066	-2.675393268	-1.1380530807	 0.126252
H	 2.5223694905	-1.843632687	-2.6820739303	 0.129045
H	 2.4685180568	-0.5678999825	 0.1186559721	 0.095639
73.1091	90.1262	113.8908	175.831	198.0173	255.222	274.5698	363.9744	407.536	493.5221	603.6043	684.1782	728.9883	788.8759	808.6733	835.9405	838.9579	932.7241	949.8134	977.4251	1008.9345	1037.3852	1082.9586	1118.5978	1162.815	1185.1713	1203.8848	1220.1985	1233.4719	1254.14	1263.306	1307.8615	1322.5677	1338.4701	1393.8613	1418.4971	1421.9226	1488.3954	1489.2509	1496.6485	1507.3331	1524.3337	1872.6885	2936.3364	2999.9683	3038.0658	3043.0121	3049.1085	3075.4238	3094.5103	3112.9763	3120.1299	3156.5393	3486.6046
CC[NH+]1CCC1C([O-])=O	CCN1CC[C@H]1C(=O)O	
InChI=1S/C6H11NO2/c1-2-7-4-3-5(7)6(8)9/h5H,2-4H2,1H3,(H,8,9)	InChI=1S/C6H11NO2/c1-2-7-4-3-5(7)6(8)9/h5H,2-4H2,1H3,(H,8,9)/t5-/m0/s1
