16
gdb 23086	3.26621	1.26734	1.16167	0.725	72.84	-0.2253	0.0228	0.2481	1086.0982	0.123752	-437.776686	-437.768993	-437.768049	-437.808684	30.325	
O	-0.1672694827	 1.3465371302	 0.0765328187	-0.402893
N	-0.0163075982	-0.062223565	 0.087236635	-0.308844
C	-1.1454560717	-0.6353654788	 0.0675096369	 0.48921
C	-1.5118747533	-2.0636626943	-0.07739453	-0.250603
C	-2.9171815615	-2.2033449243	 0.6054231933	-0.118537
C	-3.2511843697	-0.8424098494	 1.218264308	-0.226357
C	-2.604783804	-0.2178666063	-0.0566280935	-0.241638
C	-2.8172196349	-1.6476842478	-0.7682579852	 0.380921
O	-3.4086421147	-2.0460300315	-1.9302543815	-0.447592
H	 0.7490010433	 1.6413308429	 0.0879253813	 0.303484
H	-0.8878283416	-2.9269851052	-0.2588674921	 0.105633
H	-3.25547066	-3.1890022092	 0.8986725001	 0.101524
H	-4.3304965238	-0.6738567055	 1.2544406662	 0.110777
H	-2.7943383903	-0.5756832652	 2.1767634703	 0.1072
H	-2.882268145	 0.7626342381	-0.4298524577	 0.0997
H	-2.8346703519	-1.8106774987	-2.6688928397	 0.298017
99.2356	193.9834	250.5844	297.3084	340.4547	357.215	378.9249	462.8568	522.2687	610.1242	652.9505	701.4746	721.3567	785.4782	875.9042	881.0108	924.0583	943.7327	960.212	972.1147	992.5292	1056.7495	1084.462	1111.6638	1132.3591	1173.5143	1191.6088	1212.389	1268.8497	1280.624	1312.4344	1412.2147	1482.6521	1507.184	1795.3951	3048.2225	3110.3748	3178.947	3200.9777	3228.5366	3782.687	3825.3989
ON=C1C2C3CC1C23O	ON=C1[C@H]2[C@H]3C[C@@H]1[C@@]23O	
InChI=1S/C6H7NO2/c8-6-2-1-3(6)5(7-9)4(2)6/h2-4,8-9H,1H2	InChI=1S/C6H7NO2/c8-6-2-1-3(6)5(7-9)4(2)6/h2-4,8-9H,1H2/t2-,3+,4-,6-/m1/s1
