21
gdb 114334	3.00836	1.13468	1.07272	2.4987	77.99	-0.2417	0.0768	0.3185	1244.7896	0.183128	-424.213197	-424.204331	-424.203387	-424.246943	33.836	
C	 0.1139463273	 1.6302532542	 0.0564977487	-0.416991
C	 0.148934743	 0.1204408963	 0.0126291856	-0.033304
C	 0.6870754098	-0.6874317082	-1.1624765201	-0.093148
C	 1.6087119926	-0.0092048429	-2.1775286709	-0.283317
C	 2.9590912191	 0.0596841927	-1.4342429357	 0.131524
C	 3.8054468427	 1.2973617884	-1.6839530357	-0.074064
O	 4.9629050778	 1.3089850066	-0.873333817	-0.424616
O	 2.6286764723	 0.047724305	-0.0303455748	-0.289143
C	 1.4302065809	-0.6659638772	 0.1465864849	 0.068482
H	 1.0755347266	 2.0624213689	-0.2271728227	 0.13004
H	-0.6565802472	 2.0339389733	-0.6092795327	 0.115903
H	-0.1098134715	 1.9749868939	 1.0715170328	 0.119737
H	-0.703498313	-0.35572994	 0.4930546166	 0.084997
H	 0.1299982439	-1.5614739069	-1.478391477	 0.090013
H	 1.6877941678	-0.5963055364	-3.0958684726	 0.108755
H	 1.2596612133	 0.9916270141	-2.4567068107	 0.105609
H	 3.5621826466	-0.8344503384	-1.6548246285	 0.078858
H	 4.1423078113	 1.3116284532	-2.7263596172	 0.106992
H	 3.1874209448	 2.1959578341	-1.5200134984	 0.08813
H	 4.656220062	 1.146619992	 0.0265659341	 0.293103
H	 1.5110261199	-1.5190101827	 0.8138036214	 0.09244
67.5459	125.9982	147.7882	180.5316	232.373	257.645	395.8748	442.4056	452.8811	464.9669	572.2564	635.1687	722.0391	759.6974	778.1369	832.2196	895.7263	913.9396	982.7149	987.1039	1034.8081	1044.1038	1060.0033	1078.6525	1105.0153	1120.0023	1128.1041	1136.486	1148.286	1205.1939	1222.3298	1244.5845	1280.3229	1318.4449	1343.6149	1354.3363	1371.5837	1398.1708	1415.9644	1429.1226	1442.9182	1486.4582	1496.5226	1498.4076	1504.1043	2965.4787	2989.4617	3036.3969	3040.2422	3070.5149	3092.5258	3097.731	3120.1	3134.5464	3147.4314	3177.0306	3797.9594
CC1C2CC(CO)OC12	C[C@H]1[C@H]2C[C@@H](CO)O[C@@H]12	
InChI=1S/C7H12O2/c1-4-6-2-5(3-8)9-7(4)6/h4-8H,2-3H2,1H3	InChI=1S/C7H12O2/c1-4-6-2-5(3-8)9-7(4)6/h4-8H,2-3H2,1H3/t4-,5-,6+,7-/m0/s1
