21
gdb 83648	2.44034	1.67504	1.27753	1.6113	81.94	-0.2391	0.0736	0.3126	1083.4274	0.182822	-387.043315	-387.035052	-387.034108	-387.075963	32.572	
C	-0.6670986662	 1.3086114559	-0.0259438942	-0.406821
C	-0.0352536327	-0.0719152711	-0.1090235279	-0.075361
C	 1.1974007911	-0.246563343	-1.0373246365	 0.109494
O	 2.0655998345	 0.9060396079	-1.0703483723	-0.291619
C	 2.9618982424	 0.3211219327	-0.0949018935	-0.077327
C	 2.0228546962	-0.8750561305	 0.1247715795	-0.182718
C	 0.8408671709	-0.587123792	 1.0612697264	 0.375025
C	 0.9208848539	-0.0530682772	 2.4628855609	-0.322454
C	 0.383925919	-1.4418917014	 2.2056849876	-0.34016
H	-1.2102586814	 1.5461508699	-0.9470845342	 0.113706
H	-1.3810480956	 1.3685955192	 0.8029092581	 0.108089
H	 0.0994229317	 2.0738240177	 0.118703787	 0.132144
H	-0.7931666675	-0.8227823378	-0.3670125073	 0.069196
H	 1.0518099174	-0.6822308097	-2.0296483006	 0.070182
H	 3.9264860381	 0.0642760091	-0.5524178418	 0.096572
H	 3.1325937962	 0.9804789384	 0.7644894752	 0.101528
H	 2.4453779279	-1.8797003105	 0.1203632983	 0.075268
H	 1.9005679215	 0.040717948	 2.9213013314	 0.109959
H	 0.218833898	 0.720469303	 2.7569638187	 0.114908
H	-0.6828818557	-1.6082139956	 2.3228586421	 0.110737
H	 0.9997916704	-2.2893788329	 2.4908454231	 0.109651
80.7617	201.1869	209.1465	216.0085	226.9403	260.3535	397.0268	434.0892	534.0188	586.7355	686.0634	766.763	810.8171	827.8158	864.1896	882.1528	913.5363	924.7992	956.8571	974.2373	999.2321	1012.0246	1046.9182	1061.1833	1073.7758	1086.1232	1114.3031	1139.3354	1154.0011	1180.8455	1188.2028	1200.8065	1250.9502	1265.2741	1282.7976	1315.3649	1342.3727	1360.5543	1384.8043	1405.3957	1463.8542	1490.3323	1497.3291	1504.5092	1519.231	3006.3353	3019.4401	3033.6139	3056.7174	3068.1818	3092.112	3109.7091	3117.2963	3123.4871	3123.916	3195.0756	3210.7113
CC1C2OCC2C11CC1	C[C@H]1[C@H]2OC[C@H]2C21CC2	
InChI=1S/C8H12O/c1-5-7-6(4-9-7)8(5)2-3-8/h5-7H,2-4H2,1H3	InChI=1S/C8H12O/c1-5-7-6(4-9-7)8(5)2-3-8/h5-7H,2-4H2,1H3/t5-,6+,7+/m0/s1
