16
gdb 77831	2.48587	1.53842	1.35388	3.0707	66.15	-0.2518	0.0124	0.2642	1002.8755	0.124069	-475.010633	-475.002479	-475.001535	-475.043074	31.112	
O	 0.1119330501	 1.3572945183	-0.0445531485	-0.423079
C	-0.047275847	-0.02319164	 0.0173780723	 0.04936
C	-0.5045019183	-0.7887694166	 1.2607656512	-0.237349
C	-1.1946200121	 0.0219246127	 2.2898248214	 0.415078
N	-0.9058821592	 0.0954339102	 3.5144274372	-0.54081
O	-2.2136108632	 0.7411243501	 1.6862781405	-0.264789
C	-2.5532877799	 0.1647418974	 0.4117327961	-0.171068
C	-1.3735719219	-0.7110545167	 0.009953372	 0.297683
O	-1.6389442806	-1.8361740245	-0.7597815986	-0.457449
H	-0.4687992674	 1.7712884821	 0.60524887	 0.304031
H	 0.7446539196	-0.5216430955	-0.5327859395	 0.124077
H	 0.0319992288	-1.6768913931	 1.563379345	 0.129116
H	-1.565606118	 0.7029878069	 4.0034035003	 0.226377
H	-3.4538629284	-0.451743176	 0.5079908667	 0.131645
H	-2.7491347149	 0.9878312691	-0.2828791233	 0.122583
H	-1.5249014577	-1.6043416644	-1.6878958626	 0.294594
118.3267	163.4931	205.3913	224.4804	296.8303	315.4632	337.6964	442.0437	483.7623	532.1398	568.5488	667.8687	716.2044	759.2152	822.8121	893.3489	914.297	944.8787	954.2892	1020.9506	1038.1097	1072.922	1096.6327	1135.6933	1188.6824	1221.7855	1244.0839	1291.787	1323.4947	1334.4969	1351.4556	1409.2838	1473.3038	1515.8294	1783.9389	3040.8298	3089.8738	3171.2547	3225.4743	3475.6213	3789.9352	3803.6717
OC1C2C(=N)OCC12O	O[C@H]1[C@H]2[C]([NH])OC[C@@]12O	
InChI=1S/C5H7NO3/c6-4-2-3(7)5(2,8)1-9-4/h2-3,6-8H,1H2	InChI=1S/C5H7NO3/c6-4-2-3(7)5(2,8)1-9-4/h2-3,6-8H,1H2/t2-,3-,5-/m0/s1
