21
gdb 69960	2.46585	1.83722	1.35961	1.71	81.59	-0.236	0.0749	0.3109	1042.03	0.182028	-387.043133	-387.034746	-387.033802	-387.075336	33.701	
C	-0.0006004798	 1.5665215496	 0.0986648514	-0.510856
C	 0.0565170219	 0.0650578735	 0.0315727142	 0.327897
C	-0.8825476696	-0.8174331578	 0.8005215916	-0.34414
C	 0.5967973419	-0.9679403765	 1.0418080617	-0.123391
C	 1.2980943891	-1.7569741554	-0.0836614311	-0.114705
C	 0.49099796	-2.8218561852	-0.8479927409	-0.118717
O	-0.1079104158	-1.8113139753	-1.7005354612	-0.338999
C	 0.7232360506	-0.7617484593	-1.1139166956	 0.391898
C	 1.5317276895	-0.0224141151	-2.1475809102	-0.4841
H	 0.9657837487	 2.0305439032	-0.1267204967	 0.114763
H	-0.7352866528	 1.9701113816	-0.6087705347	 0.123781
H	-0.2977639994	 1.8951166796	 1.1000997473	 0.117458
H	-1.4183706449	-0.3150171118	 1.6004495673	 0.104731
H	-1.4599855099	-1.5802003709	 0.2904828157	 0.128263
H	 1.026820119	-0.7944352281	 2.0215543965	 0.083504
H	 2.3712078228	-1.9013001559	 0.0373856329	 0.074033
H	 1.103638967	-3.5192788379	-1.4331372777	 0.097976
H	-0.2578235601	-3.3893586373	-0.2831395281	 0.100168
H	 0.8740566056	 0.553239942	-2.8086054705	 0.128622
H	 2.2327260487	 0.6734611954	-1.6762152092	 0.119687
H	 2.0994640275	-0.7261832082	-2.7628007326	 0.122126
138.4187	192.5287	212.241	247.7608	268.3646	288.2481	353.398	382.8605	464.8406	503.0496	598.0312	616.1198	743.4902	806.2626	821.986	871.0182	874.3507	901.6488	928.733	968.2378	982.0799	994.5392	1003.4623	1058.9962	1079.4197	1084.6176	1104.7638	1129.1643	1145.3366	1162.4985	1167.8713	1250.8353	1264.8953	1305.6648	1311.9221	1342.4616	1382.3188	1407.6714	1419.4113	1478.257	1483.2174	1493.5591	1495.4574	1500.9374	1521.1713	3013.1157	3021.3008	3034.2013	3058.549	3079.8425	3094.1913	3102.1463	3114.999	3115.9837	3129.5364	3173.3519	3211.9138
CC12CC1C1COC21C	C[C@]12C[C@H]1[C@H]1CO[C@@]21C	
InChI=1S/C8H12O/c1-7-3-5(7)6-4-9-8(6,7)2/h5-6H,3-4H2,1-2H3	InChI=1S/C8H12O/c1-7-3-5(7)6-4-9-8(6,7)2/h5-6H,3-4H2,1-2H3/t5-,6+,7-,8+/m0/s1
