14
gdb 29682	2.40702	2.00708	1.10202	2.0089	65.25	-0.2778	-0.0522	0.2256	1007.4569	0.101917	-473.91228	-473.904631	-473.903686	-473.944845	27.659	
C	-0.0151117072	 1.4579544758	-0.0007130058	-0.343213
N	 0.0111923016	-0.0081389947	 0.0186530022	-0.250633
C	 0.1042519017	-0.6232125642	-1.2134885892	 0.498275
O	 0.1625887913	-0.0427871436	-2.259370322	-0.356582
O	 0.1298986687	-2.005358105	-1.2102193976	-0.216757
C	 0.0664840585	-2.7001636085	-0.052482389	 0.084657
C	-0.0237608263	-2.1300796542	 1.1506383738	-0.271422
C	-0.0587343727	-0.6772411385	 1.265399828	 0.44223
O	-0.1392880114	-0.0642629935	 2.3077303378	-0.365017
H	 0.8963178517	 1.8402175385	-0.4646536717	 0.152154
H	-0.8714866931	 1.8070013502	-0.5811095399	 0.152144
H	-0.0893714864	 1.7911506868	 1.0317470981	 0.172309
H	 0.0986522223	-3.7672406088	-0.2356603787	 0.159327
H	-0.0727070487	-2.7144268004	 2.057591384	 0.142529
92.3426	119.6777	151.5085	229.8524	341.2742	409.1649	418.0669	505.3302	533.5067	595.628	700.1155	742.0996	770.9279	837.3342	857.5357	970.3126	972.9117	1037.1543	1081.6992	1161.5569	1172.7408	1269.4379	1316.5785	1366.3506	1419.6787	1450.5988	1494.4534	1504.9008	1689.5992	1790.9686	1864.7767	3068.7841	3135.3528	3191.4108	3218.6596	3254.0638
CN1C(=O)OC=CC1=O	Cn1c(=O)occc1=O	
InChI=1S/C5H5NO3/c1-6-4(7)2-3-9-5(6)8/h2-3H,1H3	InChI=1S/C5H5NO3/c1-6-4(7)2-3-9-5(6)8/h2-3H,1H3
