15
gdb 60960	4.25483	0.92849	0.80321	1.6692	62.58	-0.2876	-0.0555	0.2321	1333.4843	0.110639	-494.929178	-494.920787	-494.919843	-494.963154	29.867	
O	 0.3955426359	 1.6159768073	 0.0050378659	-0.430932
C	 0.0624728253	 0.2593242473	-0.031714906	 0.025841
C	 0.6847477175	-0.4138057582	-1.2448461988	 0.127575
O	 1.3517456431	 0.2199517709	-2.0265351093	-0.254475
C	 0.5288569881	-0.4151435641	 1.2607849733	 0.10665
C	-0.2590157887	-0.0839219723	 2.5378694613	-0.427488
C	-0.6608826702	-1.5583390917	 2.4747906059	 0.445664
O	-1.3200149331	-2.3282010781	 3.0893152462	-0.300707
O	 0.0710286624	-1.8068875473	 1.3288523998	-0.257679
H	 0.9408347831	 1.7714158703	-0.7843263068	 0.301516
H	-1.0306398279	 0.1154185347	-0.1095260432	 0.10494
H	 0.4961671006	-1.4962099023	-1.365175572	 0.131054
H	 1.61626047	-0.3643185825	 1.3549853344	 0.114511
H	 0.3299703612	 0.1831717665	 3.4160048715	 0.154428
H	-1.0842309471	 0.6204605798	 2.4215289877	 0.159102
63.751	81.9154	119.4277	189.4491	294.0315	350.8684	385.2042	406.1527	483.6649	518.1587	529.2668	750.2391	768.4732	817.8786	888.7787	937.4528	954.047	982.8092	1056.0729	1094.6212	1110.6554	1152.9096	1169.393	1223.6396	1272.1208	1289.1196	1307.3164	1378.0437	1385.6179	1443.932	1456.9883	1811.4673	1951.674	2948.7957	2981.1538	3090.1518	3096.8207	3154.1489	3668.6505
OC(C=O)C1CC(=O)O1	O[C@@H](C=O)[C@H]1CC(=O)O1	
InChI=1S/C5H6O4/c6-2-3(7)4-1-5(8)9-4/h2-4,7H,1H2	InChI=1S/C5H6O4/c6-2-3(7)4-1-5(8)9-4/h2-4,7H,1H2/t3-,4+/m0/s1
