19
gdb 77073	2.62405	1.28401	1.19429	2.4546	77.1	-0.251	0.0366	0.2875	1138.4605	0.156249	-422.983597	-422.973964	-422.97302	-423.017261	37.07	
C	 0.7790066711	 1.3018407511	-0.0568440056	-0.46885
C	 0.0476484843	-0.034077779	-0.0291483347	 0.378945
O	-1.35380551	 0.1427772144	-0.0964718998	-0.475458
C	 0.6484625264	-1.1179446306	-0.9808590107	-0.297558
C	 1.373951737	-1.7810933327	 0.2370697754	-0.245586
C	 2.7694127807	-1.4257480709	 0.397968168	 0.314865
C	 3.9098721481	-1.0885895507	 0.5912821493	-0.460392
C	 0.4225404226	-0.9443809306	 1.1774007705	 0.111139
O	 0.9280320364	-0.3962584165	 2.3542614559	-0.422993
H	 1.8636131523	 1.1715749141	-0.0116765011	 0.127946
H	 0.5531375964	 1.8366284337	-0.9880740766	 0.104953
H	 0.4637601255	 1.9185027211	 0.7891448174	 0.13645
H	-1.5477704859	 0.7952730308	-0.7778812242	 0.275115
H	-0.1367106559	-1.766262572	-1.3739474765	 0.112729
H	 1.2886933503	-0.7744343302	-1.7952152357	 0.107144
H	 1.2547401418	-2.8641805779	 0.3186535928	 0.109109
H	 4.9293959725	-0.825155081	 0.7308172176	 0.202889
H	-0.4553190098	-1.5400812284	 1.4420848584	 0.104398
H	 1.8544858663	-0.1687397547	 2.2001824996	 0.285154
93.9589	133.6476	187.3723	225.4113	250.3189	262.0599	290.3248	352.4283	372.1411	391.2126	418.7285	481.8288	544.0688	603.0015	624.6054	642.5803	715.7516	776.0494	806.8568	850.1524	906.9667	942.9115	975.5536	1035.8289	1098.8868	1111.8681	1143.1471	1162.6506	1188.7815	1212.6704	1246.2094	1258.2312	1336.9463	1342.4389	1379.1407	1411.431	1436.1068	1477.5953	1492.7745	1501.5159	2218.5591	3026.0436	3071.6578	3074.8248	3086.2086	3098.3897	3127.7272	3138.6089	3500.7416	3753.8199	3804.6119
CC1(O)CC(C#C)C1O	C[C@@]1(O)C[C@@H](C#C)[C@H]1O	
InChI=1S/C7H10O2/c1-3-5-4-7(2,9)6(5)8/h1,5-6,8-9H,4H2,2H3	InChI=1S/C7H10O2/c1-3-5-4-7(2,9)6(5)8/h1,5-6,8-9H,4H2,2H3/t5-,6-,7-/m1/s1
