12
gdb 20490	3.54787	1.89804	1.26236	2.5649	64.27	-0.2442	-0.0738	0.1704	870.0836	0.083722	-414.646368	-414.639451	-414.638507	-414.678048	23.95	
C	-0.0132398975	 1.6564699044	 0.1079849025	-0.173532
O	 1.3897838192	 1.8262397006	 0.0150353198	-0.244862
C	 1.9905361332	 0.6764449917	-0.5666256878	-0.162511
C	 1.0026843905	-0.4265010856	-0.2610827863	 0.181245
C	-0.2802144775	 0.1417624445	 0.1481532313	 0.28945
O	-1.3181017086	-0.4058988714	 0.4322562873	-0.335413
N	 1.3592273089	-2.8177215857	-0.4752960626	-0.221508
N	 1.2147328211	-1.6970045625	-0.3820543764	 0.143091
H	-0.3763975543	 2.146440925	 1.0153407578	 0.145545
H	-0.5412654798	 2.0860313056	-0.7587123772	 0.126437
H	 2.1333280513	 0.81201119	-1.6514078223	 0.117468
H	 2.9731624635	 0.5313868034	-0.1053471761	 0.13459
104.9863	138.5023	154.6024	209.4725	403.2018	511.019	528.7428	594.6162	604.5315	660.3293	768.5468	944.8344	994.6172	1043.7014	1065.2869	1108.0264	1197.061	1210.9773	1236.5567	1322.5188	1371.6619	1431.0795	1488.9789	1526.1675	1808.2714	2218.6594	2962.8645	2982.1961	3061.495	3096.0962
C1OCC2=C1ON=N2	C1OC[C](C1=O)[N][N]	
InChI=1S/C4H4N2O2/c1-3-4(2-7-1)8-6-5-3/h1-2H2	InChI=1S/C4H4N2O2/c5-6-3-1-8-2-4(3)7/h1-2H2
