18
gdb 49670	2.40161	1.65884	1.49813	3.6693	77.07	-0.245	0.0105	0.2554	987.6498	0.14936	-401.960935	-401.953231	-401.952287	-401.993237	29.385	
O	 0.2134228807	 0.1149597314	-0.3639962609	-0.311217
C	 0.2100212446	 1.2975572952	-0.1110290357	 0.154463
N	 1.2699556773	 1.9850221086	 0.4343015931	-0.064388
C	 2.6568987679	 1.9384282144	 0.0303147736	-0.038482
C	 3.0265448233	 1.2771304534	-1.2840668521	-0.27803
C	 2.3261441617	 1.8583196607	-2.4807610658	-0.041676
C	 1.6571878739	 3.0096509214	-2.4813303117	-0.06592
C	 1.5143297752	 3.9049104283	-1.2800832195	-0.2792
C	 1.8806453556	 3.2359382072	 0.0317431903	-0.044982
H	-0.6897115331	 1.9355330478	-0.2132601565	 0.077264
H	 3.354130711	 1.762938833	 0.8473413022	 0.100759
H	 4.1145682097	 1.3602544067	-1.4159064424	 0.115994
H	 2.807816794	 0.2048227197	-1.2163293888	 0.146633
H	 2.3843812555	 1.2746855294	-3.3954884481	 0.096087
H	 1.183209452	 3.354870984	-3.3962154048	 0.092545
H	 2.1603211553	 4.7878039572	-1.395194095	 0.122863
H	 0.4936398124	 4.3065978166	-1.2237241072	 0.11809
H	 2.0517615429	 3.9237512551	 0.8583192296	 0.099197
97.4963	139.5795	154.8383	233.9896	356.5751	395.6876	397.2217	519.1133	594.7751	629.1824	682.5789	762.0672	822.3378	867.5808	912.0906	935.4965	973.5802	983.5031	1007.7421	1017.6998	1040.5137	1072.5007	1086.334	1152.1146	1164.8135	1208.8614	1239.4291	1258.5722	1346.414	1355.8172	1371.6112	1394.7184	1424.9426	1425.9552	1459.4167	1463.2247	1478.8512	1731.9033	1787.5099	2939.0579	3003.5521	3013.2603	3028.8044	3058.7843	3115.4433	3127.0015	3153.3228	3175.5794
O=CN1C2CC=CCC12	O=CN1[C@H]2CC=CC[C@@H]12	
InChI=1S/C7H9NO/c9-5-8-6-3-1-2-4-7(6)8/h1-2,5-7H,3-4H2	InChI=1S/C7H9NO/c9-5-8-6-3-1-2-4-7(6)8/h1-2,5-7H,3-4H2/t6-,7+,8?
