15
gdb 6325	4.97752	1.118	0.95447	1.809	59.58	-0.2463	-0.052	0.1944	1140.3749	0.11732	-436.979509	-436.971033	-436.970089	-437.013236	30.087	
N	 0.2554399006	 0.5263261628	 0.8155018738	-0.506176
C	-0.1079781557	 0.1425550794	-0.4382641311	 0.366298
O	 0.3369005903	 0.6410787225	-1.4533607326	-0.354125
C	-1.1820935686	-0.9537447463	-0.4835789719	-0.311932
C	-0.8400071539	-2.2159335151	 0.3393634312	 0.024972
O	-0.7600974786	-1.95226162	 1.7202333398	-0.43052
C	-1.8946047285	-3.2767262258	 0.0899736146	 0.143652
O	-2.5668176059	-3.7181019614	 0.9905550848	-0.257278
H	 1.01293246	 1.1846752586	 0.8998228714	 0.25799
H	-0.0180804826	-0.030212424	 1.6117167595	 0.276513
H	-2.1290041387	-0.5446556421	-0.1112420655	 0.132644
H	-1.3093002428	-1.2126850044	-1.5373745408	 0.130559
H	 0.1230318977	-2.6169123295	-0.0181043143	 0.114771
H	-1.474483234	-2.4704131791	 2.127524249	 0.300107
H	-2.0249828094	-3.6093231158	-0.9584229478	 0.112526
50.6877	81.0481	127.2703	210.7721	310.4438	343.0574	359.1437	419.5231	465.3878	492.2353	557.7375	605.5896	714.4523	772.2937	847.674	860.7945	898.99	995.8791	1055.9916	1115.9626	1159.1751	1220.2168	1253.006	1307.9571	1348.895	1364.0572	1399.3955	1435.7505	1460.2723	1621.0068	1805.2649	1811.1645	2948.6171	2980.337	3045.0558	3116.8609	3563.8037	3663.5169	3708.1224
NC(=O)CC(O)C=O	NC(=O)C[C@@H](O)C=O	
InChI=1S/C4H7NO3/c5-4(8)1-3(7)2-6/h2-3,7H,1H2,(H2,5,8)	InChI=1S/C4H7NO3/c5-4(8)1-3(7)2-6/h2-3,7H,1H2,(H2,5,8)/t3-/m1/s1
