22
gdb 22317	3.43018	0.77249	0.73503	0.7361	86.25	-0.2377	0.019	0.2567	1661.2248	0.191673	-404.304859	-404.294195	-404.293251	-404.341805	38.463	
C	 0.3783784652	 1.5830398455	-0.262419722	-0.404247
C	 0.0866883182	 0.1231698754	 0.0104668967	-0.003189
C	 1.2003850739	-0.8915930534	 0.1193235238	-0.284539
C	 0.373118397	-0.5505203637	 1.335984831	 0.002966
C	 0.9966579136	 0.1837943657	 2.5145441053	-0.314978
C	 1.7888532794	-0.7341756759	 3.4125965562	 0.381387
C	 1.0927140971	-1.8419249948	 4.1572868564	-0.471091
N	 3.0458839182	-0.5091965023	 3.4770074846	-0.172021
O	 3.69857764	-1.4327414014	 4.3162852269	-0.402693
H	 1.321075315	 1.9053901468	 0.1882140625	 0.120876
H	 0.457273045	 1.7630027633	-1.3402834502	 0.116596
H	-0.4157251831	 2.2320601785	 0.1242343823	 0.114633
H	-0.8154158931	-0.2333901969	-0.4814131646	 0.081162
H	 1.0797220422	-1.8642901382	-0.3452032879	 0.106061
H	 2.2192194788	-0.5156235587	 0.1006306103	 0.116999
H	-0.3568839514	-1.301295762	 1.6288490838	 0.08108
H	 1.6671234616	 0.973507211	 2.169047496	 0.114815
H	 0.2024650426	 0.6626121918	 3.1052819948	 0.102182
H	 1.3129281664	-2.8129409811	 3.6993082755	 0.145969
H	 1.4542185297	-1.892055215	 5.1875518912	 0.147719
H	 0.00953423	-1.7008459793	 4.1574166634	 0.116759
H	 4.6074207138	-1.1164364351	 4.290732104	 0.303554
41.1775	52.7976	68.1378	114.6933	181.4267	219.9799	276.1146	304.9182	344.6899	379.9805	403.335	441.3408	466.5286	541.2162	656.5099	760.4963	816.7637	827.4219	869.3825	876.7222	928.4826	962.3326	988.0853	1026.3777	1035.8238	1060.6202	1075.0929	1109.6588	1142.8677	1152.8181	1199.633	1237.1044	1247.9455	1277.3717	1321.3145	1387.7666	1397.129	1400.3774	1417.5879	1429.3696	1469.9068	1475.6758	1485.6681	1494.7638	1495.9596	1507.2851	1729.1111	3006.3591	3029.6181	3041.6348	3085.9199	3100.5401	3102.5442	3112.1274	3125.2802	3126.2327	3132.6084	3138.6919	3209.1884	3824.2764
CC1CC1CC(C)=NO	C[C@H]1C[C@H]1CC(=NO)C	
InChI=1S/C7H13NO/c1-5-3-7(5)4-6(2)8-9/h5,7,9H,3-4H2,1-2H3	InChI=1S/C7H13NO/c1-5-3-7(5)4-6(2)8-9/h5,7,9H,3-4H2,1-2H3/t5-,7-/m0/s1
