12
gdb 130715	3.72678	1.28137	0.95352	4.2751	74.27	-0.2641	-0.1022	0.1619	1114.9105	0.078356	-431.659548	-431.652347	-431.651402	-431.691563	26.556	
O	-0.061327281	-0.0658303921	 0.0039096572	-0.362907
C	 0.0065238906	 1.1393527706	 0.0090543146	 0.44512
N	-1.1777639266	 1.9104673923	 0.0292184672	-0.244814
N	-1.2789768539	 3.2328881649	 0.0373483373	-0.139948
C	-0.1530152341	 3.8834566961	 0.0252374491	-0.052162
C	 1.1051385994	 3.1793016628	 0.0043860241	 0.177534
N	 1.1881599551	 1.8754896186	-0.0033708073	-0.367867
C	 2.306214302	 3.9545380156	-0.0080560014	 0.222999
C	 3.2884000807	 4.6489737338	-0.0179156643	-0.326627
H	-2.0517231709	 1.4004425508	 0.0386060238	 0.287506
H	-0.2009837591	 4.9645172743	 0.0314273436	 0.143357
H	 4.1697549579	 5.2431462724	-0.0268832239	 0.217808
113.8553	136.7768	142.7705	340.817	444.3752	446.7092	474.0754	567.656	594.3012	663.4881	679.9484	704.6851	720.3857	756.7472	799.0496	893.3249	942.5643	1025.9433	1121.2595	1195.3113	1254.734	1413.0664	1419.8033	1547.047	1626.1887	1825.6267	2232.6082	3223.1934	3496.5315	3591.3684
O=C1NN=CC(=N1)C#C	O=c1[nH]ncc(n1)C#C	
InChI=1S/C5H3N3O/c1-2-4-3-6-8-5(9)7-4/h1,3H,(H,7,8,9)	InChI=1S/C5H3N3O/c1-2-4-3-6-8-5(9)7-4/h1,3H,(H,7,8,9)
