19
gdb 107991	2.79312	1.6389	1.37067	1.4967	74.92	-0.2252	0.0962	0.3214	1016.7843	0.160158	-422.972406	-422.964779	-422.963835	-423.004722	29.713	
C	-0.0751986522	 1.3616827567	 0.0009455716	-0.264864
O	 0.0858500916	-0.0454782043	-0.0177931415	-0.295509
C	 0.7034621408	-0.5264341961	-1.1473527564	 0.421702
C	 2.1587484129	-0.3232238658	-1.6461309538	-0.32459
C	 1.5212221806	-1.3185517155	-2.6431388282	-0.104091
C	 0.8005248847	-2.0485220583	-1.4574595127	-0.118721
C	-0.5714224963	-2.4729404036	-1.965004747	-0.112777
O	-0.9187014077	-1.3436811285	-2.7891473491	-0.283166
C	 0.2008743657	-0.4972576453	-2.6327488476	 0.069223
H	 0.8932624422	 1.8801936795	-0.0301161537	 0.113264
H	-0.6878297825	 1.709127016	-0.8421667787	 0.117363
H	-0.581688475	 1.6120412621	 0.935271003	 0.130574
H	 2.4274261615	 0.6609794972	-2.0405438648	 0.092814
H	 2.9474709467	-0.721532548	-1.0038833501	 0.100676
H	 1.9862496352	-1.7880184563	-3.5062547431	 0.083982
H	 1.3611995923	-2.7044125397	-0.7918144262	 0.0775
H	-0.551307139	-3.3866022472	-2.5713116971	 0.100832
H	-1.3082463991	-2.5923899555	-1.1618574254	 0.111523
H	 0.0861629575	 0.4218049825	-3.205972039	 0.084264
67.9201	164.9256	190.6811	264.9537	296.2153	383.0387	472.5574	489.8844	650.2825	701.2239	737.0063	782.9913	834.0603	908.3025	924.8412	950.2137	958.3193	991.56	1004.6644	1029.9066	1044.8032	1076.6936	1086.4591	1098.9956	1123.3815	1149.0496	1181.1365	1184.5223	1198.3552	1214.8747	1222.1633	1243.3115	1278.3299	1294.3183	1339.497	1395.335	1485.8408	1489.211	1505.0289	1519.4337	1522.1586	2995.4482	3023.3578	3049.4736	3054.7589	3063.53	3117.4755	3125.1083	3126.1751	3136.0551	3153.4063
COC12CC3C1COC23	CO[C@@]12C[C@H]3[C@@H]1CO[C@@H]23	
InChI=1S/C7H10O2/c1-8-7-2-4-5(7)3-9-6(4)7/h4-6H,2-3H2,1H3	InChI=1S/C7H10O2/c1-8-7-2-4-5(7)3-9-6(4)7/h4-6H,2-3H2,1H3/t4-,5-,6+,7-/m0/s1
