14
gdb 11100	6.26288	1.08433	1.02493	3.4926	64.83	-0.2616	0.0051	0.2667	1095.8814	0.107768	-378.739148	-378.731495	-378.730551	-378.772595	25.888	
O	 0.1241961235	 0.0350565285	 0.5855952732	-0.318619
C	 0.1021936412	 1.224612276	 0.3534175522	 0.136453
N	 1.1476025941	 1.9134624042	-0.1635395671	-0.042956
C	 2.5162253882	 1.4645214529	-0.401763562	-0.177322
C	 2.8797920121	 2.9464606719	-0.7641482741	-0.168115
C	 1.4179491276	 3.3384596362	-0.3523707481	-0.189619
C	 3.9526351218	 3.5627530583	-0.0058142173	 0.278164
N	 4.8023337588	 4.0543685212	 0.6042354245	-0.311149
H	-0.7803592888	 1.8735887514	 0.5262075436	 0.07863
H	 3.0140655603	 1.0762770531	 0.491526066	 0.149737
H	 2.6237091282	 0.745979563	-1.2181322277	 0.142073
H	 3.0626782662	 3.0837168082	-1.8310195289	 0.143345
H	 0.8339301639	 3.8196661346	-1.1423384123	 0.135556
H	 1.3589273629	 3.9361191203	 0.562828718	 0.143824
29.5242	90.4542	153.7099	221.4785	253.9607	314.4494	472.5332	547.7697	578.7665	719.8519	819.3104	891.3761	940.1517	987.9221	1033.8719	1047.417	1107.5724	1140.8141	1175.6096	1197.6096	1234.736	1290.9722	1314.1032	1354.7685	1399.5937	1449.3262	1509.261	1526.8257	1796.2705	2362.3108	2930.8565	3043.1809	3059.0945	3091.2627	3103.1038	3114.676
O=CN1CC(C1)C#N	O=CN1CC(C1)C#N	
InChI=1S/C5H6N2O/c6-1-5-2-7(3-5)4-8/h4-5H,2-3H2	InChI=1S/C5H6N2O/c6-1-5-2-7(3-5)4-8/h4-5H,2-3H2
