22
gdb 103302	2.46937	1.34401	1.31721	1.458	82.13	-0.2372	0.071	0.3082	1155.6451	0.19342	-404.271258	-404.26181	-404.260866	-404.305127	36.545	
C	 0.0309320276	 1.4272661228	 0.1741620023	-0.379434
C	-0.2533169421	-0.0458663414	-0.1494250603	-0.288981
C	 0.5921334126	-0.5735835723	-1.3164100459	 0.38053
C	 0.1100573683	 0.0610795621	-2.6358493403	-0.491232
N	 2.1509933	-0.5032827355	-1.1167936717	-0.174149
C	 1.9981046388	-1.694184888	-0.160809136	-0.250413
C	 1.0499102067	-2.0555706612	-1.3337408029	 0.298284
O	 0.1804127661	-3.1226666924	-1.4982984345	-0.473603
C	 2.2302089704	-1.574129144	-2.2172390083	-0.246362
H	 1.0780257209	 1.5655988458	 0.4578933565	 0.135393
H	-0.1645653835	 2.0758839874	-0.6855198218	 0.116841
H	-0.5993076358	 1.7713219679	 0.9997710831	 0.109163
H	-0.1263754517	-0.6429682344	 0.7557082569	 0.098761
H	-1.3057471445	-0.1688644044	-0.4317290806	 0.103936
H	 0.8374616103	 0.7884686604	-3.0088229151	 0.134582
H	-0.0587873496	-0.6839409232	-3.4173181259	 0.128381
H	-0.8334887598	 0.5910772335	-2.48912938	 0.117897
H	 2.9198068077	-2.2743360028	-0.0655585072	 0.092555
H	 1.5954833346	-1.4498706884	 0.8192682224	 0.105825
H	 0.6892291445	-3.9408662908	-1.5141947728	 0.281538
H	 2.0393043711	-1.209874435	-3.2244836603	 0.108163
H	 3.1601365975	-2.1475713459	-2.1779198476	 0.092327
75.8368	124.9781	143.176	220.0224	224.4154	243.4668	292.6614	362.4018	410.3829	450.8843	516.0515	565.2643	603.2552	657.019	687.4412	754.833	798.0765	819.2536	889.106	938.0781	957.3726	976.6912	1010.5487	1021.6354	1040.5869	1071.5018	1085.5539	1094.3831	1133.0178	1169.7727	1182.6039	1206.6369	1232.6545	1244.2773	1287.6976	1303.5584	1350.5511	1380.0477	1409.2886	1413.2916	1486.7518	1494.9646	1504.1511	1508.9883	1510.188	1530.6638	1566.3145	3040.4528	3041.5282	3048.324	3065.1189	3073.5441	3090.1437	3110.0344	3115.846	3118.5827	3122.5763	3157.8566	3163.4685	3803.6828
CCC1(C)N2CC1(O)C2	CC[C@@]1(C)N2C[C@]1(O)C2	
InChI=1S/C7H13NO/c1-3-6(2)7(9)4-8(6)5-7/h9H,3-5H2,1-2H3	InChI=1S/C7H13NO/c1-3-6(2)7(9)4-8(6)5-7/h9H,3-5H2,1-2H3/t6-/m1/s1
