19
gdb 42013	3.3428	1.55705	1.11989	4.2995	77.56	-0.2048	0.0475	0.2523	1089.4692	0.163574	-419.233253	-419.225906	-419.224961	-419.265104	28.539	
C	 0.0265193236	 1.4211222609	-0.1451450086	-0.162913
C	 1.4693379707	 1.8486099181	 0.2341371771	-0.18696
N	 2.1614799753	 0.5635172003	 0.1689585866	-0.129104
C	 3.4592634938	 0.3846206626	 0.7876160335	-0.155852
C	 3.8532008517	-1.0863644584	 0.662356944	-0.227285
C	 2.7090389913	-1.9506856753	 1.174003818	-0.075626
O	 1.485693383	-1.6890452895	 0.4715355013	-0.261228
C	 1.1553054258	-0.3996560224	 0.2911193944	 0.464474
N	-0.0518278894	-0.0187668329	 0.139214946	-0.350776
H	-0.733226839	 1.9717647974	 0.4163733382	 0.107874
H	-0.1646352357	 1.5984696286	-1.2123220558	 0.105721
H	 1.9089745038	 2.5780013316	-0.4528020566	 0.107725
H	 1.5195606239	 2.2650751558	 1.2543786859	 0.091556
H	 4.1908143623	 1.0300742677	 0.2886212798	 0.111626
H	 3.4407377125	 0.6830593695	 1.8525061607	 0.091998
H	 4.0554232822	-1.3302371702	-0.3857203041	 0.124054
H	 4.7593906425	-1.2909778836	 1.2405373564	 0.110358
H	 2.9013283944	-3.0149443365	 1.0244695987	 0.124163
H	 2.5471698374	-1.7795762436	 2.2479455545	 0.110195
120.614	139.8973	216.9821	282.2803	320.9235	391.1379	470.8924	536.7686	659.9299	668.5235	727.4421	766.6593	872.1027	893.7056	911.962	940.3989	956.1694	984.9274	1040.3835	1093.1412	1109.0243	1143.7402	1174.5795	1202.7643	1224.4813	1232.5223	1245.8802	1272.3704	1296.4424	1311.6795	1331.9824	1363.2428	1380.6297	1421.4473	1455.4766	1473.1303	1500.8834	1511.2685	1517.2397	1539.8918	1722.0084	2928.6153	2958.8032	3007.5844	3010.3488	3046.4265	3057.7639	3070.6535	3081.4171	3102.025	3111.698
C1CN2CCCOC2=N1	C1CN2CCCO[C]2[N]1	
InChI=1S/C6H10N2O/c1-3-8-4-2-7-6(8)9-5-1/h1-5H2	InChI=1S/C6H10N2O/c1-3-8-4-2-7-6(8)9-5-1/h1-5H2
