17
gdb 11443	4.39115	1.34349	1.23067	2.7246	65.35	-0.2537	0.0319	0.2856	1012.3034	0.14339	-401.016363	-401.008563	-401.007619	-401.048867	28.592	
O	 0.1357620234	 1.1526485291	-0.4538147819	-0.422489
C	-0.0246214993	-0.2336656922	-0.1963495967	-0.083792
C	-1.4794769968	-0.4661169032	 0.2067930248	-0.014473
C	-2.4459820695	-0.1411611477	-0.9446480514	-0.091189
O	-2.5852629176	-1.3638994931	-1.691309274	-0.239467
C	-2.2445010764	-2.4387694686	-0.9193509937	 0.416428
N	-2.3058364705	-3.6429798286	-1.293969975	-0.544497
C	-1.7808587529	-1.9546628329	 0.4397826762	-0.326168
H	 1.0195150928	 1.2978404184	-0.8033752235	 0.29172
H	 0.2145272792	-0.8376472679	-1.0861408433	 0.102885
H	 0.6360175873	-0.5690891488	 0.6181390348	 0.093338
H	-1.6956271622	 0.151527537	 1.0821482794	 0.090929
H	-3.4325175574	 0.1640489272	-0.5754856263	 0.107657
H	-2.0614389027	 0.6290361548	-1.6149600716	 0.133834
H	-2.6675828974	-3.7004279955	-2.2478227618	 0.220003
H	-0.9315803516	-2.5418233124	 0.7942832629	 0.132968
H	-2.5937446985	-2.0860803957	 1.1618964009	 0.132313
73.9366	121.4423	163.9596	248.9342	257.0146	349.1379	418.7701	486.1726	527.3808	685.4273	734.025	828.3648	858.2648	895.5833	907.3787	945.3274	991.8507	1021.6212	1058.9866	1083.1326	1114.2445	1136.7701	1178.0589	1212.3134	1241.2781	1276.024	1280.9902	1287.5377	1329.1913	1376.047	1400.8154	1458.537	1473.8357	1518.9778	1524.2954	1776.8715	2971.806	3003.4405	3033.0594	3057.4075	3085.2886	3118.4207	3125.086	3468.4994	3835.2373
OCC1COC(=N)C1	OC[C@H]1CO[C]([NH])C1	
InChI=1S/C5H9NO2/c6-5-1-4(2-7)3-8-5/h4,6-7H,1-3H2	InChI=1S/C5H9NO2/c6-5-1-4(2-7)3-8-5/h4,6-7H,1-3H2/t4-/m0/s1
