20
gdb 111274	2.71474	1.27542	1.02915	3.6141	74.97	-0.2403	0.054	0.2944	1223.4531	0.169748	-440.231685	-440.222174	-440.221229	-440.265799	35.545	
C	 0.2521534899	 1.4504371444	 0.4450550898	-0.501051
C	-0.0370564311	 0.000698632	 0.1922623229	 0.323081
C	-0.9459059326	-0.8287635119	 1.0029145654	-0.297782
N	 0.5069673368	-1.1182079287	 1.0787692734	-0.200069
C	 0.8643805191	-1.8877002402	-0.1773233584	 0.015022
C	 0.3285996993	-3.3071550364	-0.2464661722	-0.069046
O	 0.8453505468	-4.0771421446	 0.8274715568	-0.427498
C	 0.3185038656	-0.7665569891	-1.0932361671	 0.003376
O	-0.7344973156	-1.1780170945	-1.9397865586	-0.426005
H	 1.2632334013	 1.7180904602	 0.1189522492	 0.123816
H	-0.4562848244	 2.0914326652	-0.093755143	 0.118754
H	 0.1697957517	 1.6802279354	 1.5111272557	 0.13422
H	-1.3242181376	-0.395380555	 1.9237016299	 0.118787
H	-1.6213578204	-1.5258040681	 0.5166034312	 0.12887
H	 1.9562084399	-1.9336858833	-0.2167655648	 0.092565
H	-0.769743995	-3.3226343713	-0.2607733205	 0.097525
H	 0.6654813981	-3.7840635051	-1.172724628	 0.114173
H	 0.7236178649	-3.5540515754	 1.6285262097	 0.293514
H	 1.1134301965	-0.2704820438	-1.6654631559	 0.072528
H	-1.0480213132	-0.4143627599	-2.4352058458	 0.285221
82.4907	121.1061	155.687	180.5539	233.541	248.8515	269.6192	314.4533	375.4563	387.2256	481.7487	549.8432	567.2641	676.7218	739.7998	771.2613	801.475	915.2478	928.4307	985.0963	998.1839	1054.8415	1071.7654	1087.3413	1099.5316	1124.0944	1131.4188	1151.7262	1187.6434	1227.7752	1259.0119	1302.0538	1314.1713	1333.0536	1383.5974	1389.0768	1417.9801	1428.813	1436.162	1483.0504	1492.5432	1500.6974	1517.5316	3010.389	3011.7156	3025.8773	3067.6176	3081.3875	3085.6054	3112.7477	3123.5247	3209.2442	3791.8376	3812.8632
CC12CN1C(CO)C2O	C[C@]12CN1[C@@H](CO)[C@H]2O	
InChI=1S/C6H11NO2/c1-6-3-7(6)4(2-8)5(6)9/h4-5,8-9H,2-3H2,1H3	InChI=1S/C6H11NO2/c1-6-3-7(6)4(2-8)5(6)9/h4-5,8-9H,2-3H2,1H3/t4-,5+,6+,7?/m0/s1
