18
gdb 109276	3.24058	1.21433	0.90967	3.7829	76.09	-0.2519	0.0037	0.2556	1258.9304	0.14801	-439.083372	-439.074798	-439.073854	-439.117184	31.487	
O	 0.1276001156	 1.3294559182	 0.5958068791	-0.422427
C	 0.1054703933	-0.0059643696	 0.1857673708	-0.104711
C	-1.299471916	-0.4879354739	-0.1252718339	 0.3667
N	-2.2393596145	 0.3519200427	-0.0790562696	-0.329408
C	-3.6610520407	 0.1348707117	-0.1928271637	-0.210374
C	-4.242720389	-1.1464817204	-0.7177757178	-0.040341
C	-3.6176133339	-2.2094398346	-1.2112865117	-0.089291
C	-2.1388528943	-2.3918128574	-1.3764540746	-0.13995
O	-1.2912825329	-1.8203174958	-0.3744651018	-0.249532
H	-0.7932939927	 1.6251261371	 0.4966873489	 0.28415
H	 0.7200194429	-0.1622593874	-0.7167473661	 0.104532
H	 0.5232656587	-0.6667954161	 0.9606155623	 0.115169
H	-4.083194193	 0.3176149371	 0.8080496597	 0.135167
H	-4.0706075784	 0.9563560497	-0.8008422509	 0.129719
H	-5.3315592419	-1.1590458458	-0.6909735499	 0.096785
H	-4.2127231158	-3.0414476975	-1.5805353937	 0.099071
H	-1.8913734561	-3.4566532448	-1.3558119727	 0.128928
H	-1.8177447013	-2.0076779933	-2.3562981444	 0.125812
53.1825	109.5762	150.7381	214.1299	219.2181	337.3564	373.1981	404.0175	441.1545	524.3425	587.4224	657.3472	723.6935	766.2185	849.5998	902.5958	936.5398	973.1451	1013.5837	1028.7144	1043.2577	1076.3696	1129.5026	1142.6749	1218.8209	1242.1745	1256.4186	1286.5296	1292.6911	1320.1187	1389.9678	1413.0645	1425.41	1457.1843	1475.8559	1491.997	1503.3945	1756.736	1793.5606	2970.2195	2988.7401	2996.5974	2998.2216	3003.8258	3088.0173	3132.5415	3161.0985	3648.1207
OCC1=NCC=CCO1	OCC1=NCC=CCO1	
InChI=1S/C6H9NO2/c8-5-6-7-3-1-2-4-9-6/h1-2,8H,3-5H2	InChI=1S/C6H9NO2/c8-5-6-7-3-1-2-4-9-6/h1-2,8H,3-5H2
