16
gdb 125511	4.16886	0.95206	0.88609	3.541	76.78	-0.2518	0.0001	0.2519	1330.8485	0.125155	-396.964286	-396.955762	-396.954818	-396.999176	29.984	
C	 0.2321298298	 1.4984942704	 0.0929110419	-0.49066
C	 0.0733160066	 0.0113650444	 0.0572543411	 0.358535
N	 0.2799001281	-0.6650468631	-1.0698463764	-0.317571
N	 0.0704067675	-1.9626188212	-0.745151993	 0.052634
C	 0.1577134177	-2.9684099262	-1.7780647129	-0.284312
C	-1.1540510287	-3.3836548358	-2.3005342011	 0.273631
N	-2.1794393415	-3.729034509	-2.7036514991	-0.293826
C	-0.2780646869	-2.1198933062	 0.5590894558	-0.015983
C	-0.2827017327	-0.863363298	 1.1157379547	-0.296734
H	 1.0125601975	 1.7999698706	 0.799939573	 0.131355
H	 0.5023927867	 1.8687806637	-0.8979208751	 0.142602
H	-0.6959676432	 1.989362425	 0.4046395248	 0.133865
H	 0.7529349245	-2.5437041634	-2.5896194104	 0.187657
H	 0.6800821538	-3.8524598313	-1.3978874805	 0.168898
H	-0.4908758085	-3.0934238956	 0.9726507508	 0.141199
H	-0.5024989107	-0.6078533242	 2.1399373965	 0.108709
22.0199	83.299	93.9564	228.6456	260.6311	291.6871	365.267	407.7531	484.0785	621.0207	669.197	686.3896	769.6874	773.9299	841.6649	924.5374	959.4669	982.7876	1010.9561	1044.6765	1065.6059	1081.4998	1207.4553	1232.1139	1349.8892	1373.5249	1398.0013	1413.2574	1442.7698	1449.1915	1483.8573	1489.0559	1506.2183	1581.4544	2367.7014	3038.236	3061.4016	3090.6718	3123.0554	3135.8093	3252.3401	3271.8461
CC1=NN(CC#N)C=C1	Cc1nn(CC#N)cc1	
InChI=1S/C6H7N3/c1-6-2-4-9(8-6)5-3-7/h2,4H,5H2,1H3	InChI=1S/C6H7N3/c1-6-2-4-9(8-6)5-3-7/h2,4H,5H2,1H3
