19
gdb 114413	3.49974	1.0062	0.97017	2.9782	75.57	-0.2374	-0.0181	0.2193	1279.217	0.158693	-423.009473	-423.000853	-422.999909	-423.043593	32.277	
O	-0.0443999764	 1.3324391214	-0.4221408387	-0.42179
C	 0.0365820855	-0.0664989751	-0.1875495129	-0.100711
C	-1.3767555894	-0.5670111849	 0.0352607118	 0.053882
C	-2.3551263992	-0.595286251	-1.1745818821	-0.254686
C	-2.7698218393	-2.0624570803	-0.8076601655	-0.150771
C	-1.6304055715	-2.0777273196	 0.2867232223	-0.072357
C	-0.8225326626	-3.0976367829	-0.5730630142	-0.369559
C	-1.9745428294	-3.0978788485	-1.6013644759	 0.412772
O	-2.1784208758	-3.7100105721	-2.6095554158	-0.300881
H	 0.833500706	 1.6528795432	-0.6485860118	 0.288433
H	 0.4945784417	-0.5807415342	-1.0469168787	 0.08356
H	 0.654634298	-0.2926155394	 0.6977247889	 0.086206
H	-1.8099302184	 0.0198158952	 0.8513155887	 0.08737
H	-3.1735433058	 0.1235450243	-1.1220309381	 0.119045
H	-1.8806299441	-0.4933214416	-2.1545658694	 0.114423
H	-3.8276251062	-2.2497470918	-0.6224433815	 0.089428
H	-1.810388528	-2.3863830414	 1.3160126177	 0.075257
H	 0.1615849189	-2.806482397	-0.9490258601	 0.125639
H	-0.7217339639	-4.0777047241	-0.0948388949	 0.13474
38.193	93.1063	163.4674	199.9927	265.7762	297.5619	405.2995	409.5668	479.2029	507.1425	591.2963	735.8774	770.9353	781.1116	847.3749	886.9504	903.0169	946.4336	955.0035	1017.8712	1055.3196	1068.0642	1083.7094	1098.8748	1111.0962	1134.6095	1173.2537	1189.7357	1222.2806	1240.3508	1245.1745	1267.4831	1274.7217	1293.8086	1323.5537	1366.6685	1432.9947	1463.0736	1487.964	1520.9074	1886.0525	2958.4448	2990.8047	3056.7234	3058.1494	3066.6948	3105.0488	3112.4127	3116.3973	3128.0574	3830.5195
OCC1CC2C1CC2=O	OC[C@H]1C[C@@H]2[C@H]1CC2=O	
InChI=1S/C7H10O2/c8-3-4-1-6-5(4)2-7(6)9/h4-6,8H,1-3H2	InChI=1S/C7H10O2/c8-3-4-1-6-5(4)2-7(6)9/h4-6,8H,1-3H2/t4-,5+,6-/m1/s1
