17
gdb 127461	3.56844	1.06372	0.84442	1.7498	72.75	-0.2119	0.0369	0.2487	1334.2903	0.135498	-455.155491	-455.145971	-455.145027	-455.191018	33.193	
C	-0.1636058159	 1.3665882239	-0.0886069388	-0.324565
N	-0.035088061	-0.0689067211	 0.0132351939	-0.01745
N	-0.0713171454	-0.8513943954	-1.1008051117	-0.353051
C	 0.1110288995	-2.0880481206	-0.6524983819	 0.386375
C	 0.1616736724	-3.2387153297	-1.6058561141	-0.184946
O	-0.5365025086	-4.3365429107	-1.0273540255	-0.419331
C	 0.2678258049	-2.1304472305	 0.7524423769	-0.456988
C	 0.1657311138	-0.8073379471	 1.1288052618	 0.459544
O	 0.2240681629	-0.17325919	 2.3230597852	-0.436197
H	 0.7860593739	 1.8334251736	-0.3722998962	 0.137917
H	-0.9123017919	 1.5973374146	-0.8481846221	 0.151492
H	-0.4814651133	 1.7645064477	 0.8760803415	 0.151074
H	-0.2797443706	-2.9206286239	-2.5609716974	 0.106678
H	 1.2113802152	-3.5130577237	-1.8030826017	 0.094241
H	-0.3963509703	-5.1020147717	-1.5924891477	 0.286673
H	 0.4045151696	-2.9933199683	 1.3823412292	 0.105484
H	 0.2974695149	-0.8364093573	 3.0160691386	 0.313049
40.6678	47.7853	133.8299	176.0067	223.4128	251.5573	270.3494	283.5116	347.7698	417.8704	524.7385	625.3726	664.2394	676.5183	717.1191	749.781	829.9051	1010.3848	1024.5007	1043.4589	1085.727	1130.101	1150.5686	1172.2553	1239.5923	1241.6829	1294.4501	1306.5795	1434.9709	1438.8067	1458.5226	1487.6196	1507.7501	1512.1894	1520.6386	1593.2459	1604.1047	2960.158	3018.2858	3040.9933	3116.9008	3157.5658	3270.9887	3827.907	3846.2282
CN1N=C(CO)C=C1O	Cn1nc(CO)cc1O	
InChI=1S/C5H8N2O2/c1-7-5(9)2-4(3-8)6-7/h2,8-9H,3H2,1H3	InChI=1S/C5H8N2O2/c1-7-5(9)2-4(3-8)6-7/h2,8-9H,3H2,1H3
