20
gdb 121694	3.19821	0.81498	0.68833	3.1075	79.87	-0.2408	-0.0004	0.2404	1677.3019	0.17146	-436.524685	-436.514521	-436.513577	-436.561286	35.839	
C	 0.0811484972	 1.1065393198	-0.2637510936	-0.378796
C	-0.4347556926	-0.3324434382	-0.3357144839	-0.16394
C	-1.9481652073	-0.4195465164	-0.0984764879	-0.143768
N	-2.4700314311	-1.7738245954	-0.1707697148	-0.343336
C	-2.4590397654	-2.5782450912	 0.9123665656	 0.485616
O	-2.065186827	-2.279780019	 2.0263004829	-0.418708
N	-2.9721413597	-3.8864218602	 0.6999727283	-0.351611
C	-3.4568324989	-4.4824419552	-0.4344838192	 0.121983
N	-3.5325188592	-3.9015606529	-1.5699178713	-0.478854
H	 1.1606747991	 1.1497461611	-0.4357638877	 0.114585
H	-0.4003547215	 1.7418084937	-1.0161814355	 0.111316
H	-0.1168298983	 1.5495107524	 0.7184779981	 0.120859
H	-0.1984321714	-0.7693666926	-1.3140032517	 0.093308
H	 0.0649923097	-0.9512619317	 0.4174130287	 0.119205
H	-2.1880009209	-0.0193484903	 0.8912348969	 0.132124
H	-2.4822128755	 0.1847142571	-0.840382619	 0.100492
H	-2.7988331537	-2.1751798635	-1.0452784855	 0.276735
H	-2.9442799549	-4.4315723191	 1.5469807239	 0.263163
H	-3.7690772073	-5.5154062361	-0.2462542896	 0.107425
H	-3.9201548512	-4.5244246023	-2.2718358846	 0.232203
32.8871	64.6964	86.3113	127.9224	201.1213	229.3061	233.5262	284.5068	308.7043	390.462	488.7301	579.1293	602.4867	657.3974	743.2217	770.5498	798.8567	800.9362	849.1492	894.3692	939.1695	1039.8766	1046.6834	1105.6806	1124.2192	1152.6986	1191.6698	1241.1868	1283.1317	1293.7997	1333.225	1347.9411	1407.5705	1413.2237	1416.744	1473.4943	1491.541	1499.9216	1500.1835	1508.5699	1596.2488	1722.2631	1805.0266	3029.0158	3029.8094	3042.1135	3063.8184	3069.5564	3091.6384	3104.6878	3106.354	3458.9628	3538.4291	3649.5731
CCCNC(=O)NC=N	CCCNC(=O)NC=N	
InChI=1S/C5H11N3O/c1-2-3-7-5(9)8-4-6/h4H,2-3H2,1H3,(H3,6,7,8,9)	InChI=1S/C5H11N3O/c1-2-3-7-5(9)8-4-6/h4H,2-3H2,1H3,(H3,6,7,8,9)
