21
gdb 35733	3.96833	0.98536	0.8724	0.7248	89.17	-0.2531	0.0581	0.3112	1381.7417	0.182882	-349.925999	-349.917183	-349.916239	-349.960855	34.3	
C	-0.2310430849	-1.1349244994	-0.397152346	-0.444926
C	-0.0721130455	 0.0381814	-0.1851965367	 0.301026
C	 0.1279984709	 1.4519644024	 0.0909318558	-0.166681
C	-0.6153261795	 1.9736640232	 1.3464359162	-0.208158
C	 0.0559638795	 3.3314042323	 1.6480765794	-0.304111
C	 1.4613066571	 3.2386661613	 1.0205113587	 0.389274
C	 2.0685210179	 4.4437673258	 0.3434282255	-0.309749
C	 2.6524063687	 3.9225173474	 1.6347263892	-0.328478
C	 1.5925181451	 1.8529308176	 0.3905753538	-0.283171
H	-0.3739506571	-2.1689759255	-0.5904164073	 0.1893
H	-0.2133034278	 2.0337967797	-0.7766474314	 0.103029
H	-1.6946137812	 2.0476177147	 1.1933242818	 0.104648
H	-0.4488811526	 1.2684544627	 2.1675106784	 0.110849
H	-0.5125808792	 4.1510708387	 1.1949791402	 0.101742
H	 0.0941368873	 3.5281067228	 2.7239621294	 0.101567
H	 2.6334144253	 4.2920791349	-0.5712368334	 0.108864
H	 1.5154838118	 5.377608822	 0.3752868268	 0.107445
H	 2.4971139637	 4.5055384739	 2.5372282206	 0.108323
H	 3.611813349	 3.4158962131	 1.594231273	 0.109316
H	 2.0148958598	 1.1356107899	 1.1048359553	 0.106994
H	 2.2246628017	 1.8403123224	-0.5014281395	 0.102896
12.9665	113.5137	134.2546	256.9276	292.2751	332.5441	399.947	447.8596	508.9442	519.2766	537.3705	623.6087	626.7386	738.5448	781.6421	816.5863	860.2406	868.1574	916.3601	939.7971	969.5789	977.8631	994.8219	1045.6799	1050.5944	1066.3217	1067.5875	1081.1968	1173.5574	1189.9883	1208.0416	1232.6475	1267.0677	1282.0785	1302.9182	1310.8229	1323.5364	1368.5216	1382.35	1467.0488	1487.2423	1493.7683	1503.3486	1508.6217	2235.111	3007.1521	3033.7634	3037.2976	3052.1963	3076.9213	3092.4307	3107.45	3117.3744	3121.94	3195.2545	3210.8581	3505.4904
C#CC1CCC2(CC2)C1	C#C[C@H]1CCC2(CC2)C1	
InChI=1S/C9H12/c1-2-8-3-4-9(7-8)5-6-9/h1,8H,3-7H2	InChI=1S/C9H12/c1-2-8-3-4-9(7-8)5-6-9/h1,8H,3-7H2/t8-/m0/s1
