21
gdb 56160	3.66754	0.74644	0.70182	3.016	79.5	-0.2371	-0.0044	0.2327	1689.2056	0.178325	-424.233968	-424.223195	-424.222251	-424.27137	38.146	
C	 0.147651969	 1.5008016264	-0.0000342927	-0.472941
C	-0.0271074753	-0.0056878596	 0.0981668314	 0.37499
O	-0.2538651032	-0.552518326	 1.1540888995	-0.294351
C	 0.100105176	-0.7818500139	-1.2039443457	-0.296845
C	-0.2082422404	-2.2732346989	-1.0616080974	-0.222559
C	-0.053750828	-3.023204075	-2.3641215401	 0.432922
O	-0.945736576	-2.495388241	-3.3178440078	-0.476004
C	 1.3040122849	-3.5078138326	-2.8022961427	-0.329868
C	 0.2356762358	-4.4979767276	-2.3543078469	-0.336814
H	 1.088592103	 1.7522160525	-0.5015382195	 0.133185
H	-0.6583037051	 1.9313959618	-0.6055874295	 0.140451
H	 0.1278089222	 1.943097892	 0.996721714	 0.14023
H	-0.5522030805	-0.3261503298	-1.9583331072	 0.135517
H	 1.1212371103	-0.630741166	-1.5837696435	 0.116811
H	 0.4448066341	-2.7154669438	-0.3043392872	 0.110857
H	-1.233086443	-2.3986090698	-0.6957144137	 0.117286
H	-0.8015684888	-2.9388424819	-4.1590622528	 0.280325
H	 1.5412783628	-3.4703591301	-3.8615901453	 0.104852
H	 2.1584161964	-3.3404090153	-2.1544600302	 0.115922
H	 0.3629124424	-5.0036471436	-1.4029107593	 0.119338
H	-0.2346590466	-5.1074298979	-3.1201019633	 0.106697
29.1366	57.4842	99.675	119.3585	123.5259	145.0237	223.2397	289.8137	338.8168	404.8573	417.9734	477.8787	521.0398	584.1457	720.7228	751.9579	769.2917	826.3831	882.494	907.8892	927.6699	948.2632	968.9479	982.3567	1047.2965	1065.3705	1070.325	1082.951	1161.9571	1177.7545	1182.7797	1186.8702	1278.4068	1304.4949	1346.8588	1377.4324	1386.458	1438.3379	1450.8971	1460.9572	1465.8735	1475.3506	1477.4056	1504.5298	1808.6041	3014.8515	3036.4559	3054.6056	3064.3335	3096.8065	3103.0174	3119.3564	3124.912	3150.9188	3198.7019	3214.251	3828.4802
CC(=O)CCC1(O)CC1	CC(=O)CCC1(O)CC1	
InChI=1S/C7H12O2/c1-6(8)2-3-7(9)4-5-7/h9H,2-5H2,1H3	InChI=1S/C7H12O2/c1-6(8)2-3-7(9)4-5-7/h9H,2-5H2,1H3
