16
gdb 46719	3.09732	1.70228	1.26393	2.983	68.34	-0.2343	-0.0283	0.206	961.5136	0.125965	-437.82536	-437.818645	-437.817701	-437.856655	26.81	
O	 0.020886392	-0.1000536649	 0.0413782362	-0.312162
C	-0.0079414034	 1.1020026567	 0.1626074893	 0.380422
C	-1.3176868467	 1.8593267696	 0.3608752082	-0.273202
N	-1.1128416199	 3.1733959954	 0.9704888127	-0.330718
C	 0.1710366246	 3.7674354946	 0.7392430464	 0.019772
C	 1.08191625	 3.4046286798	-0.4942144975	-0.002324
O	 2.2462537122	 3.8273535805	 0.2989145794	-0.297981
C	 1.4381353938	 3.0138146849	 1.2201170298	 0.032918
C	 1.2245394153	 1.9626269547	 0.0833351969	-0.118364
H	-1.7640125877	 1.9263375299	-0.6472177767	 0.123869
H	-1.9893973712	 1.2414915996	 0.9643395892	 0.138671
H	-1.8600210476	 3.8114203373	 0.7324671629	 0.232459
H	 0.1742635236	 4.8285513675	 0.9888264636	 0.098952
H	 1.0437290064	 3.7118238046	-1.5400464511	 0.099202
H	 1.8181772974	 2.8427930032	 2.227163054	 0.107903
H	 2.114895481	 1.4101027466	-0.2158858434	 0.100584
90.8752	165.9853	373.5075	389.8762	440.2906	464.4362	566.5062	588.6092	617.1511	716.8162	734.0225	814.2373	856.171	874.0651	903.2851	943.4054	975.7991	1012.8221	1025.7387	1033.4584	1126.4131	1141.6383	1169.0452	1186.1178	1195.5259	1221.6397	1246.4186	1249.167	1266.7997	1282.929	1329.2828	1413.8587	1476.1263	1489.1934	1816.6659	2952.1593	3077.406	3110.1216	3120.4767	3127.7011	3136.3421	3570.0115
O=C1CNC2C3OC2C13	O=C1CN[C@@H]2[C@H]3O[C@@H]2[C@@H]13	
InChI=1S/C6H7NO2/c8-2-1-7-4-5-3(2)6(4)9-5/h3-7H,1H2	InChI=1S/C6H7NO2/c8-2-1-7-4-5-3(2)6(4)9-5/h3-7H,1H2/t3-,4+,5-,6+
