17
gdb 81634	4.67167	0.92098	0.84332	1.4258	71.14	-0.2573	0.0184	0.2757	1334.4711	0.137172	-455.089267	-455.081304	-455.08036	-455.12287	30.059	
O	-0.0568402926	 1.531070684	-0.1492052526	-0.449954
C	 0.0345847003	 0.1520169661	-0.0736765744	 0.213467
C	 0.0854408584	-0.5304034594	 1.3334171319	-0.120548
N	-1.3585680835	-0.0693733556	 1.4699739499	-0.354063
C	-1.2755101228	-0.6891397412	 0.0823995947	-0.120628
C	-0.4279841455	-1.8483664162	 0.6832870373	 0.089751
N	 0.4149672359	-2.6877147623	-0.1274027215	-0.322993
C	 0.4471075798	-4.0460511754	 0.0115821051	 0.153171
O	-0.2072337527	-4.68428456	 0.8063003092	-0.316109
H	-0.7069572275	 1.7753349154	 0.5270646968	 0.293944
H	 0.7597820264	-0.1726363365	-0.8213688818	 0.071175
H	 0.8106231695	-0.3957911756	 2.1371225595	 0.091338
H	-1.8705954768	-0.6876458425	 2.1054404817	 0.221196
H	-2.1425882266	-0.7402110514	-0.5775425617	 0.091326
H	-0.9764073605	-2.5007113474	 1.362757867	 0.123876
H	 1.0110355144	-2.2796994475	-0.8287976329	 0.255238
H	 1.1560382038	-4.5119734545	-0.7007180783	 0.079815
27.737	145.3534	178.998	239.5947	331.703	344.6639	423.9442	513.9617	552.6989	590.3387	650.134	757.64	782.1011	815.1402	867.4031	907.6301	912.877	951.4352	1027.4661	1037.7588	1075.7267	1113.9042	1119.6977	1143.0418	1163.1902	1177.6703	1184.1574	1207.1348	1258.3577	1269.3339	1287.7793	1343.3644	1378.9649	1433.7338	1476.9083	1533.5873	1809.3353	2941.0452	3103.6898	3109.8237	3116.3965	3130.9391	3406.7555	3646.1687	3722.12
OC1C2NC1C2NC=O	O[C@H]1[C@H]2N[C@@H]1[C@H]2NC=O	
InChI=1S/C5H8N2O2/c8-1-6-2-3-5(9)4(2)7-3/h1-5,7,9H,(H,6,8)	InChI=1S/C5H8N2O2/c8-1-6-2-3-5(9)4(2)7-3/h1-5,7,9H,(H,6,8)/t2-,3-,4+,5-
