16
gdb 63348	2.60235	1.45149	1.15718	1.3141	65.81	-0.2613	-0.0273	0.234	1072.857	0.123867	-475.110014	-475.101602	-475.100658	-475.143245	31.564	
C	 0.040696685	 1.5577151275	 0.022407096	-0.436106
C	-0.0413720367	 0.0273041693	-0.0365180568	 0.282491
O	-1.387309268	-0.4125599118	-0.0652463076	-0.468112
C	 0.7400410133	-0.5801478786	-1.2130183229	-0.387193
C	 1.987825909	-1.2107074734	-0.6014382862	 0.417781
O	 2.9427139186	-1.6775539711	-1.1624645003	-0.3351
N	 1.8201115336	-1.1727853483	 0.7870585904	-0.361682
C	 0.6501255379	-0.5721061241	 1.2052877825	 0.388116
O	 0.2226370142	-0.5249674914	 2.3331772198	-0.368707
H	 1.0779024789	 1.907746462	-0.009594157	 0.123736
H	-0.499812918	 1.9794288406	-0.8292595939	 0.135028
H	-0.4152678801	 1.9218827668	 0.9475161905	 0.13548
H	-1.7270760803	-0.317880999	 0.8347488892	 0.293585
H	 0.1471352502	-1.370017252	-1.6829554257	 0.162865
H	 1.0211410702	 0.1367424754	-1.986483211	 0.141988
H	 2.4756765424	-1.6102381819	 1.420539143	 0.275829
52.7752	136.39	218.9361	256.4904	285.351	328.4816	361.2674	413.8821	423.7419	551.4004	576.0837	609.1836	646.7835	682.8149	743.3713	768.9257	876.1515	911.1016	940.7705	979.491	1093.2984	1121.4098	1150.3332	1205.7996	1237.2875	1293.0591	1349.731	1358.2656	1392.3697	1399.9142	1454.8178	1486.7467	1493.6848	1831.7469	1880.363	3037.3431	3077.993	3112.0717	3125.8733	3130.4397	3607.9751	3767.4254
CC1(O)CC(=O)NC1=O	C[C@@]1(O)CC(=O)NC1=O	
InChI=1S/C5H7NO3/c1-5(9)2-3(7)6-4(5)8/h9H,2H2,1H3,(H,6,7,8)	InChI=1S/C5H7NO3/c1-5(9)2-3(7)6-4(5)8/h9H,2H2,1H3,(H,6,7,8)/t5-/m1/s1
