18
gdb 64846	3.26669	0.99713	0.87483	4.0626	83.38	-0.2713	0.0144	0.2857	1344.1816	0.146281	-364.789595	-364.780494	-364.77955	-364.823415	34.269	
C	-0.1640359176	 1.5565495509	-0.018072298	-0.446449
C	 0.0016024673	 0.0287813207	 0.0041450639	 0.133453
C	 1.200964427	-0.4538494446	-0.8856354572	-0.265838
C	 2.0999034974	-0.4910094324	 0.3885194908	-0.14848
C	 0.8053400675	-0.4655628929	 1.258233339	-0.265839
C	 3.0046870976	-1.6152785191	 0.5493440606	 0.269053
N	 3.7124283277	-2.5211871895	 0.6749981637	-0.324853
C	-1.267903649	-0.6358404538	-0.2337522811	 0.254227
C	-2.3176034646	-1.1887164548	-0.4305253761	-0.429558
H	 0.7933495915	 2.0569543237	 0.1613308769	 0.116783
H	-0.5465720999	 1.8875088111	-0.9876912872	 0.133284
H	-0.8680809185	 1.8779866897	 0.7546036164	 0.133284
H	 1.0305592594	-1.4529840263	-1.2873711524	 0.137936
H	 1.5153637789	 0.2144786105	-1.6893486947	 0.120446
H	 2.6703129361	 0.4347886581	 0.4988399331	 0.126986
H	 0.8108743894	 0.1936234798	 2.1282373207	 0.120445
H	 0.5047239091	-1.4685518795	 1.5621125003	 0.137936
H	-3.2429784292	-1.6801544116	-0.6041859887	 0.197184
60.2699	152.863	173.9353	180.1818	232.8533	264.2737	330.9732	358.6085	472.4875	504.0618	552.6981	570.2023	580.8278	631.3812	638.3419	701.9712	842.8579	882.1873	909.4344	927.3654	956.3047	1001.7271	1054.7456	1058.384	1144.9924	1162.0391	1192.48	1242.4451	1246.2915	1265.7864	1305.7073	1356.3706	1411.4332	1472.9094	1490.4053	1492.3558	1499.7139	2233.5612	2354.1911	3036.5419	3076.0944	3079.6237	3083.2614	3108.3602	3119.7939	3146.5779	3148.8076	3501.2163
CC1(CC(C1)C#N)C#C	C[C@]1(C[C@@H](C1)C#N)C#C	
InChI=1S/C8H9N/c1-3-8(2)4-7(5-8)6-9/h1,7H,4-5H2,2H3	InChI=1S/C8H9N/c1-3-8(2)4-7(5-8)6-9/h1,7H,4-5H2,2H3/t7-,8+
