18
gdb 92895	2.33387	1.76196	1.04318	3.6351	75.22	-0.2227	-0.0129	0.2099	1125.9651	0.148482	-439.133739	-439.1252	-439.124256	-439.166983	31.992	
C	 0.1602956955	 1.477223666	-0.0532719664	-0.357764
N	-0.0886638823	 0.0414981009	-0.0236570591	-0.116748
C	-0.615691535	-0.5895046336	-1.1677147521	 0.034179
C	-0.5762271462	-1.9094606127	-1.3546531255	-0.149377
C	 0.0448950164	-2.8016937661	-0.3133221253	-0.283222
C	-0.1522764239	-2.1677206647	 1.0650266598	 0.035048
O	 0.5472604811	-2.8574214149	 2.0621614029	-0.440721
C	 0.2682180104	-0.6917468268	 1.07682982	 0.394725
O	 0.8454056001	-0.22651305	 2.0478720514	-0.40377
H	 0.9515850434	 1.7259851196	-0.7687912345	 0.136813
H	-0.7523043338	 2.0117459737	-0.3363605725	 0.132604
H	 0.471887513	 1.7854850792	 0.9434550353	 0.172096
H	-1.0422126851	 0.0968853585	-1.8901601259	 0.113499
H	-0.9897391266	-2.3294104664	-2.2631710129	 0.103123
H	-0.3989855479	-3.8011354804	-0.3197218688	 0.121053
H	 1.1209558615	-2.9370569644	-0.4971283606	 0.122471
H	-1.2388408967	-2.1614919883	 1.2773211173	 0.092806
H	 0.920239076	-2.1648363197	 2.6316042469	 0.293182
93.1718	113.9006	131.5427	207.0962	296.706	364.5105	378.0522	441.2153	462.2246	487.5181	499.3746	579.2425	656.4383	721.0079	758.8624	857.4116	940.8904	948.2894	966.6729	1035.5365	1082.9825	1108.4714	1153.5582	1168.9069	1173.5419	1204.5173	1271.3882	1293.9959	1313.2194	1360.3273	1396.476	1422.4907	1454.2972	1466.248	1482.1147	1496.8612	1515.2846	1720.4332	1758.8175	2918.7983	3007.4251	3033.6264	3085.5629	3090.5357	3170.0158	3191.904	3213.9466	3680.7115
CN1C=CCC(O)C1=O	CN1C=CC[C@@H](O)C1=O	
InChI=1S/C6H9NO2/c1-7-4-2-3-5(8)6(7)9/h2,4-5,8H,3H2,1H3	InChI=1S/C6H9NO2/c1-7-4-2-3-5(8)6(7)9/h2,4-5,8H,3H2,1H3/t5-/m1/s1
