21
gdb 46987	2.54558	1.67527	1.38662	3.1332	80.64	-0.2297	-0.0056	0.2242	1031.7755	0.186805	-387.145322	-387.137959	-387.137015	-387.176965	30.219	
O	 0.046973868	-0.0778144081	-0.0214517239	-0.329284
C	-0.0194299113	 1.1279583128	 0.035315111	 0.402917
C	-1.3485698384	 1.8730029612	 0.1531597644	-0.302503
C	-1.2822331318	 3.0910272702	 1.1040294176	-0.218752
C	 0.0493362283	 3.8566304657	 0.985663806	 0.011302
C	 0.3415422121	 4.2999372787	-0.4697088387	-0.211898
C	 1.0935625344	 3.0999976844	-1.122097695	-0.233462
C	 1.211450287	 2.0262259071	-0.0053841173	-0.085613
C	 1.2070771422	 2.8867369155	 1.2808010136	-0.233876
H	-1.601786635	 2.2167968121	-0.8594017117	 0.124201
H	-2.1236828637	 1.1607022616	 0.444757306	 0.119165
H	-2.1256445739	 3.7605494964	 0.9010054171	 0.09843
H	-1.3982058651	 2.746954608	 2.13903355	 0.103381
H	 0.0345793336	 4.7077269245	 1.6729898288	 0.065144
H	-0.5741596709	 4.5632360523	-1.0077801931	 0.097532
H	 0.9740812928	 5.1923473096	-0.4731344267	 0.100569
H	 0.5871604369	 2.716343021	-2.0126739932	 0.106597
H	 2.0975854263	 3.3973661748	-1.4379488696	 0.106834
H	 2.0915483777	 1.3898709735	-0.1129497872	 0.079173
H	 2.1606794785	 3.4178144708	 1.3792990212	 0.097245
H	 1.0572558724	 2.2996869579	 2.1929240807	 0.102897
102.3361	175.6567	246.1165	342.7336	379.3285	411.8806	458.3087	507.1026	633.3895	686.9482	733.7497	784.064	800.8937	818.5946	884.3391	884.5569	918.3701	938.8475	971.3673	991.0382	1018.7471	1024.3886	1057.1315	1086.2251	1113.1449	1162.7998	1169.9909	1197.8221	1228.1859	1253.2835	1258.8178	1269.9076	1309.7616	1318.8355	1337.5546	1343.2765	1354.6231	1363.8418	1378.5884	1468.2653	1489.9872	1494.6547	1501.0293	1519.5564	1817.0714	3022.1229	3027.1066	3035.3755	3046.8301	3056.0525	3064.8251	3068.1204	3079.4919	3082.1793	3098.2149	3103.3005	3107.0381
O=C1CCC2CCC1C2	O=C1CC[C@@H]2CC[C@H]1C2	
InChI=1S/C8H12O/c9-8-4-2-6-1-3-7(8)5-6/h6-7H,1-5H2	InChI=1S/C8H12O/c9-8-4-2-6-1-3-7(8)5-6/h6-7H,1-5H2/t6-,7-/m0/s1
