14
gdb 9943	3.53204	1.54697	1.4698	4.7891	58.99	-0.2636	0.0062	0.2698	889.9203	0.106767	-415.835481	-415.827581	-415.826636	-415.867443	29.213	
N	-0.1047935455	 1.3749131325	 0.2063405218	-0.530875
C	-0.0156955079	-0.0593314496	 0.0872861345	-0.137138
C	-0.5424624458	-0.8047755607	 1.2932152864	 0.040512
O	-1.0803583031	-0.0169261218	 2.2955938213	-0.429008
C	-1.3580831923	-0.7940221434	-0.0094056976	 0.231306
O	-2.5081251721	-0.0143679335	-0.0062881823	-0.46186
C	-1.4231099578	-1.986770654	-0.8127144205	 0.263299
N	-1.4330121711	-2.9529927017	-1.4491308781	-0.341168
H	 0.7667285066	 1.8214451012	-0.0479545466	 0.253885
H	-0.8496235532	 1.7389137275	-0.3800680283	 0.262073
H	 0.817753762	-0.4833345214	-0.4640679544	 0.120545
H	-0.0908182185	-1.7316143051	 1.6288967232	 0.130502
H	-0.7930313975	 0.891876701	 2.0695365258	 0.29745
H	-2.7296585739	 0.116350499	 0.9304135748	 0.300477
135.1612	157.1638	175.4815	245.2499	256.2124	310.0128	431.903	463.5487	481.0684	566.9437	625.5224	683.9919	719.3418	757.1325	822.0349	866.0062	886.5414	1031.9597	1057.6677	1093.5732	1141.097	1188.0689	1252.266	1271.0072	1335.3917	1392.9027	1406.9447	1454.4098	1628.1286	2347.8828	3157.7637	3179.2013	3511.1606	3534.4245	3613.7307	3684.4693
NC1C(O)C1(O)C#N	N[C@H]1[C@@H](O)[C@]1(O)C#N	
InChI=1S/C4H6N2O2/c5-1-4(8)2(6)3(4)7/h2-3,7-8H,6H2	InChI=1S/C4H6N2O2/c5-1-4(8)2(6)3(4)7/h2-3,7-8H,6H2/t2-,3+,4-/m0/s1
