23
gdb 101197	2.86132	1.09498	0.97158	0.9039	85.93	-0.2437	0.0824	0.3261	1363.1512	0.204967	-388.250177	-388.240486	-388.239542	-388.285349	36.133	
C	-1.0333346762	 0.2235408042	-2.1477048786	-0.233114
O	-1.2677495928	-0.8500988576	-1.2697957168	-0.247238
C	-1.3124530013	-0.4973073492	 0.1106790223	 0.110671
C	-2.5980620391	 0.2540342174	 0.4743280196	-0.403646
C	-1.2049527733	-1.7957036204	 0.8791104631	 0.011783
C	 0.0584458186	-2.5738318967	 1.1140265333	-0.07339
C	 1.2602944076	-1.6581090496	 1.3793603431	-0.23171
C	 0.4905389037	-1.0178393378	 2.5801702353	-0.230065
C	-0.7034773336	-1.9402069966	 2.2906067833	-0.083572
H	-0.9001001701	-0.2008196096	-3.1465464299	 0.124006
H	-1.8691744293	 0.9378865197	-2.1858146652	 0.103351
H	-0.1209012074	 0.779981276	-1.8780367317	 0.098386
H	-0.4504067944	 0.1498378051	 0.3359137764	 0.061473
H	-2.6153335396	 0.472163777	 1.5465961506	 0.120269
H	-2.6827334241	 1.2037130608	-0.0615449003	 0.11141
H	-3.4740826003	-0.356454912	 0.2318338217	 0.119504
H	-2.0506569258	-2.4511048697	 0.6758773005	 0.086042
H	 0.127832536	-3.6176888869	 0.8318698991	 0.081297
H	 2.1426978166	-2.2098902624	 1.7102658231	 0.100941
H	 1.5585957239	-0.9964106423	 0.5599653899	 0.098729
H	 0.9676901283	-1.2475001941	 3.5354306538	 0.10118
H	 0.3041478827	 0.0607174231	 2.5448505117	 0.093976
H	-1.3056832301	-2.4223756485	 3.0521233657	 0.079718
41.6284	77.0232	143.0075	168.1399	199.7339	234.5955	276.4283	291.6321	400.0779	455.0564	475.6903	558.2037	740.4248	771.1332	789.0288	801.5941	855.0425	898.8151	944.3877	953.5582	963.1075	1016.905	1023.1482	1050.5801	1073.5774	1087.8654	1103.0924	1124.2359	1147.5344	1150.5617	1182.1068	1211.238	1222.3962	1243.6648	1245.4107	1264.4779	1304.6765	1324.1721	1361.1404	1368.7548	1398.0426	1461.5554	1475.7095	1482.9055	1485.0591	1493.4414	1503.1961	1506.7775	1514.0119	2967.8488	2982.2237	3017.0645	3038.1474	3042.719	3051.4793	3093.0961	3103.9953	3110.8049	3111.682	3112.1327	3123.2992	3168.486	3182.6237
COC(C)C1C2CCC12	CO[C@@H](C)[C@H]1[C@H]2CC[C@@H]12	
InChI=1S/C8H14O/c1-5(9-2)8-6-3-4-7(6)8/h5-8H,3-4H2,1-2H3	InChI=1S/C8H14O/c1-5(9-2)8-6-3-4-7(6)8/h5-8H,3-4H2,1-2H3/t5-,6-,7+,8-/m0/s1
