17
gdb 34131	3.52853	1.45883	1.37431	3.2853	76.44	-0.2519	0.0169	0.2688	975.3371	0.139342	-380.834706	-380.828149	-380.827205	-380.865548	26.899	
N	 0.0483928387	-1.1274870713	-0.0834134465	-0.340385
C	 0.0177076311	 0.0286158299	-0.0537666685	 0.143328
C	 0.0028646291	 1.469875192	 0.010474223	 0.192514
C	-0.3786229823	 2.2671168508	 1.2840397885	-0.201449
N	 0.4212556062	 3.3981126906	 0.7208382802	-0.151851
C	-0.0532544629	 3.5924143794	-0.7432541252	-0.00703
C	 1.3843694709	 3.2576943933	-1.1961188183	-0.241266
C	 1.3233334283	 2.372808021	 0.042530136	-0.030342
C	-0.8003389254	 2.2721766899	-1.0419175781	-0.267709
H	-1.4398279395	 2.4545345645	 1.4697307793	 0.114888
H	 0.108852405	 1.905781335	 2.1925626084	 0.128593
H	-0.5442823582	 4.5351649469	-0.9759430066	 0.088007
H	 1.530705191	 2.8126992788	-2.1818602071	 0.110281
H	 2.0768555704	 4.0854951003	-1.0327054089	 0.126594
H	 2.1823889089	 1.9847545113	 0.5892280694	 0.098868
H	-0.6589162775	 1.9294213643	-2.0688896059	 0.120841
H	-1.8688037039	 2.2836975933	-0.8162326297	 0.116119
142.7903	161.8573	376.2799	424.9787	471.5131	513.9781	544.1511	555.356	651.0722	732.5542	783.0508	834.8482	883.0487	890.8125	912.7166	946.6397	968.8342	1003.8232	1015.2678	1020.6311	1049.2194	1093.219	1123.4579	1137.9064	1159.7085	1187.3044	1219.3147	1229.4162	1254.5776	1258.4935	1278.1877	1293.6173	1336.7603	1475.6157	1498.0244	1520.5269	2347.5406	3058.6041	3074.1587	3077.4681	3121.8987	3125.9052	3127.0097	3139.3023	3142.5642
N#CC12CN3C(CC13)C2	N#C[C@@]12CN3[C@@H](C[C@H]13)C2	
InChI=1S/C7H8N2/c8-3-7-2-5-1-6(7)9(5)4-7/h5-6H,1-2,4H2	InChI=1S/C7H8N2/c8-3-7-2-5-1-6(7)9(5)4-7/h5-6H,1-2,4H2/t5-,6+,7-/m0/s1
