21
gdb 40708	5.38189	0.80492	0.77062	1.7487	84.18	-0.2585	0.0847	0.3432	1534.0168	0.182354	-387.040426	-387.031834	-387.03089	-387.074358	32.949	
C	 0.1581140705	 1.5258682363	-0.005021637	-0.185966
O	 1.1830949857	 0.5449580924	-0.16747086	-0.240425
C	-0.1623731071	 0.0925422123	 0.021861115	 0.081433
C	-0.461743539	-0.644279386	 1.2934379903	 0.023841
C	-1.9612983623	-0.91739939	 1.6327752579	-0.328091
C	-1.5642764672	-2.3485868313	 2.0181514994	 0.389967
C	-1.7869981422	-2.9776269753	 3.3630292948	-0.315976
C	-2.4261199725	-3.5676455694	 2.1237433721	-0.33312
C	-0.2041354731	-2.1837940067	 1.3280237035	-0.319356
H	 0.1902863532	 2.0850297554	 0.929716302	 0.110158
H	-0.0698889217	 2.1181836109	-0.89043054	 0.112428
H	-0.6091584127	-0.3386673086	-0.8777583139	 0.085237
H	 0.0474604467	-0.1470382384	 2.1235563478	 0.077217
H	-2.4145923212	-0.2914978166	 2.4062217493	 0.100469
H	-2.5967592727	-0.8831915148	 0.7400258873	 0.097576
H	-0.963497082	-3.518076624	 3.8197171207	 0.111146
H	-2.4286276887	-2.4623082498	 4.0713454142	 0.1095
H	-3.4981936669	-3.4509484114	 1.9975544214	 0.109321
H	-2.0342052595	-4.5064758438	 1.7446070897	 0.110818
H	-0.186621654	-2.6172660718	 0.3214744312	 0.099194
H	 0.6829963165	-2.5231322294	 1.8687106742	 0.10463
54.508	67.9378	161.1303	271.7623	275.8796	308.59	313.4565	398.406	485.2282	562.1011	715.5699	774.43	816.6507	846.1463	858.287	884.3088	903.7478	920.4632	925.4114	958.2402	996.7215	1017.3388	1051.2805	1064.2831	1076.5159	1083.7724	1104.2624	1152.2477	1167.6952	1183.0709	1187.464	1221.7556	1237.9211	1241.7707	1252.2236	1274.8406	1293.6892	1325.3804	1382.9422	1455.7453	1463.4214	1475.6047	1497.2439	1505.5086	1529.5339	3033.0593	3039.4148	3065.0621	3076.8351	3080.519	3093.4988	3100.6889	3118.2199	3122.3652	3163.7997	3195.5264	3210.6171
C1OC1C1CC2(CC2)C1	C1O[C@H]1C1CC2(CC2)C1	
InChI=1S/C8H12O/c1-2-8(1)3-6(4-8)7-5-9-7/h6-7H,1-5H2	InChI=1S/C8H12O/c1-2-8(1)3-6(4-8)7-5-9-7/h6-7H,1-5H2/t7-/m1/s1
