19
gdb 73607	2.21865	1.59831	1.27812	0.8335	81.22	-0.2317	0.0486	0.2803	1081.7065	0.159163	-385.857797	-385.849279	-385.848335	-385.890447	33.662	
O	-0.0681992411	 1.4216656122	 0.1702774815	-0.46718
C	-0.0270618675	 0.04491893	-0.0419602104	 0.394195
C	 0.834366224	-0.4845020241	-1.1797534111	-0.287405
C	 0.1990786781	-1.8352200609	-1.5896980874	-0.228036
C	-1.276797839	-1.7751821875	-1.1110953171	-0.224604
C	-1.3023646166	-0.7360282256	-0.0030105758	-0.093629
C	-0.3039941897	-0.8616872047	 1.1601040743	-0.311142
C	 0.4284584474	-2.048103361	 1.4833254745	 0.352882
C	 1.0472621639	-3.0331899256	 1.7951408055	-0.465591
H	 0.7835580739	 1.6946392505	 0.5291370936	 0.284002
H	 0.773310184	 0.2497166303	-1.9909627061	 0.108643
H	 1.8902849897	-0.5907762477	-0.9077695087	 0.09963
H	 0.2714150659	-2.0078762178	-2.6666103596	 0.097041
H	 0.7179164995	-2.656494064	-1.093803277	 0.125961
H	-1.9360933607	-1.4358749904	-1.9182285469	 0.103764
H	-1.6403613767	-2.7553374791	-0.7868488435	 0.108119
H	-2.2346733433	-0.2389775678	 0.2403890628	 0.097103
H	-0.6161988318	-0.2839802716	 2.0265629752	 0.114285
H	 1.5906450999	-3.9041236753	 2.065547116	 0.191962
112.0146	136.1935	202.7975	221.142	298.9884	334.5643	382.5931	391.4575	532.1577	536.7213	573.4547	580.6871	643.8412	668.1113	707.2419	775.5578	843.6205	874.4339	901.8661	926.9716	947.3214	993.8635	1033.6695	1054.117	1093.0826	1115.5145	1158.182	1194.8757	1230.8379	1249.6686	1256.6441	1313.1064	1326.1187	1332.9979	1340.6594	1361.9491	1453.1921	1488.4682	1490.9595	1512.0557	2225.0679	3036.6417	3039.1106	3073.7224	3075.2726	3079.3585	3128.1167	3138.479	3178.0316	3503.9995	3795.1196
OC12CCCC1C2C#C	O[C@]12CCC[C@H]1[C@H]2C#C	
InChI=1S/C8H10O/c1-2-6-7-4-3-5-8(6,7)9/h1,6-7,9H,3-5H2	InChI=1S/C8H10O/c1-2-6-7-4-3-5-8(6,7)9/h1,6-7,9H,3-5H2/t6-,7+,8+/m1/s1
