23
gdb 120754	3.22339	0.84658	0.751	2.7402	86.54	-0.2321	0.0691	0.3012	1633.1012	0.206747	-384.423761	-384.413987	-384.413043	-384.459265	36.079	
C	 0.3675499863	 1.4848598669	-0.0946398482	-0.381467
C	 0.4573891776	-0.0398225594	 0.0042938452	-0.158561
C	 0.3759175446	-0.5516733498	 1.4488659289	-0.195523
C	 0.4542248062	-2.059614357	 1.5332628374	-0.009111
N	 1.7801339762	-2.6882087738	 1.3620509746	-0.347044
C	 1.085491625	-2.8130120978	 2.6534421925	-0.060404
C	 1.7542183326	-2.1553194042	 3.8273798137	-0.002023
C	 3.1169605877	-2.5892298052	 4.2272106953	-0.240226
N	 2.9036805956	-1.2675096686	 3.6135720984	-0.315679
H	 1.1784703042	 1.9647763036	 0.4642058164	 0.119123
H	 0.433541692	 1.8223237481	-1.1337491706	 0.109952
H	-0.5788014373	 1.8546147817	 0.3160701667	 0.111822
H	-0.3468437694	-0.4946662382	-0.5901322512	 0.087013
H	 1.3990734294	-0.3876672127	-0.437298287	 0.107775
H	 1.1751727487	-0.1029050623	 2.046825136	 0.125054
H	-0.5708015896	-0.2266482334	 1.902387664	 0.093524
H	-0.376267356	-2.5709527982	 1.0447492299	 0.080946
H	 1.7157259907	-3.5473844589	 0.8253175661	 0.233848
H	 0.6335994826	-3.7771890888	 2.8869561804	 0.084842
H	 1.0711132198	-1.8193114691	 4.6056988918	 0.091271
H	 3.4123759512	-2.5743352608	 5.2725929522	 0.113415
H	 3.5926636068	-3.3602832621	 3.6260942853	 0.10918
H	 3.1510754448	-1.3401036199	 2.6263017823	 0.242273
54.0412	87.5855	95.9429	127.6843	197.5749	244.811	251.9102	305.2547	345.1663	472.6088	543.5437	612.4621	739.6742	753.8982	820.9583	856.6685	870.8262	889.6305	894.2735	930.2959	958.8945	994.3815	1008.9727	1040.2373	1051.3879	1067.1766	1111.7458	1123.1944	1143.0508	1155.232	1187.7245	1202.6208	1235.7471	1264.4116	1280.5105	1293.7623	1304.6481	1324.2021	1327.4799	1381.9797	1394.8028	1412.3876	1430.969	1472.4427	1483.198	1494.352	1500.3285	1504.2171	1510.8066	3012.9866	3018.068	3029.1668	3053.782	3081.5215	3094.0611	3098.4445	3101.5936	3104.772	3106.6093	3120.8684	3191.5825	3462.1581	3519.9347
CCCC1NC1C1CN1	CCC[C@H]1N[C@H]1[C@H]1CN1	
InChI=1S/C7H14N2/c1-2-3-5-7(9-5)6-4-8-6/h5-9H,2-4H2,1H3	InChI=1S/C7H14N2/c1-2-3-5-7(9-5)6-4-8-6/h5-9H,2-4H2,1H3/t5-,6-,7-/m1/s1
