20
gdb 61459	2.63827	1.10938	0.90999	1.0836	75.66	-0.2451	0.0086	0.2537	1356.0111	0.16907	-440.300512	-440.290402	-440.289458	-440.336937	35.474	
C	-0.1249022648	 1.5128057012	-0.1290096603	-0.40544
C	 0.0229505992	 0.00148042	 0.0300519955	 0.090986
O	-1.2874281238	-0.6113049495	 0.1013229056	-0.26195
C	-1.8914504591	-0.6468065307	 1.3125664061	 0.434972
C	-3.2407267334	-1.3161540414	 1.2105982122	-0.48085
O	-1.4037403427	-0.2026853614	 2.3198342825	-0.34817
C	 0.7551197195	-0.636304991	-1.1341929014	 0.015908
C	 0.5587558746	-2.0546075125	-1.5075327966	-0.245808
N	 0.0555240752	-0.9741190628	-2.3815518467	-0.322644
H	 0.8628078236	 1.977530589	-0.2062071222	 0.124319
H	-0.6880943072	 1.7533725701	-1.0355271311	 0.127653
H	-0.636137738	 1.9374788516	 0.737490779	 0.140291
H	 0.5471675834	-0.2183349778	 0.9651487701	 0.115817
H	-3.8666199613	-0.791947137	 0.4830502034	 0.150737
H	-3.1238883699	-2.344878957	 0.8576336579	 0.15055
H	-3.7212448238	-1.3124740808	 2.1879991903	 0.151526
H	 1.7373299087	-0.1940422277	-1.2922352627	 0.094813
H	 1.3861564048	-2.6279132044	-1.9155055656	 0.11768
H	-0.1650158053	-2.6305675235	-0.9394427505	 0.113685
H	-0.9461203098	-0.8796520245	-2.2254815255	 0.235925
41.6196	61.291	88.0946	102.6002	166.393	220.6494	231.9442	283.3655	358.3313	425.369	480.9375	592.4602	610.8672	627.6824	765.5255	845.1125	870.6807	919.342	960.8582	964.4206	991.8128	1020.4337	1052.5918	1063.8776	1102.1751	1125.543	1151.0004	1162.0109	1203.3685	1258.2963	1274.898	1308.9307	1347.42	1376.7812	1398.243	1405.9939	1425.3826	1468.7623	1476.0992	1488.2839	1499.739	1507.7315	1825.3389	3046.1445	3057.206	3069.494	3115.9291	3118.0178	3121.8871	3125.1995	3136.5879	3170.3791	3205.6947	3494.3931
CC(OC(C)=O)C1CN1	C[C@@H](OC(=O)C)[C@H]1CN1	
InChI=1S/C6H11NO2/c1-4(6-3-7-6)9-5(2)8/h4,6-7H,3H2,1-2H3	InChI=1S/C6H11NO2/c1-4(6-3-7-6)9-5(2)8/h4,6-7H,3H2,1-2H3/t4-,6-/m1/s1
