16
gdb 125979	3.73872	1.20113	1.08137	4.2563	71.22	-0.2467	-0.0367	0.21	1130.0954	0.124399	-433.997843	-433.9901	-433.989156	-434.030728	28.546	
C	-0.0682782163	 1.0771045388	-1.3150273831	-0.417566
C	 0.1664223033	-0.3056967083	-0.7580890855	 0.00368
C	 1.1124229413	-1.2491844425	-1.4207721386	-0.248313
N	 1.4502969313	-0.6708995508	-0.1229511467	-0.165317
C	 2.4896286289	 0.2374367192	-0.0268861892	 0.366101
N	 3.5489538823	 0.2431669862	-0.7998642839	-0.165048
O	 4.3663648143	 1.226108011	-0.2948701106	-0.155803
N	 3.8023835163	 1.8380686263	 0.7871781205	-0.057165
C	 2.6579195231	 1.2474524186	 0.9707206482	-0.098246
H	 0.8120832124	 1.4520401769	-1.843662637	 0.142382
H	-0.9051434255	 1.0544660329	-2.0202561676	 0.134631
H	-0.3216306911	 1.7888409907	-0.5220748564	 0.130197
H	-0.6810651755	-0.7377166902	-0.2303828879	 0.106692
H	 0.9242308862	-2.3183715422	-1.4107795396	 0.130029
H	 1.6642481422	-0.8835553107	-2.2825019849	 0.146051
H	 1.9990259967	 1.5294186641	 1.7767089825	 0.147694
63.0784	111.2928	176.3087	222.36	300.2606	375.2842	439.238	534.3662	585.2736	632.2802	744.0826	799.6233	874.7309	887.5655	903.5926	912.7181	923.9539	1001.7262	1026.3962	1046.6143	1061.3296	1132.085	1139.5253	1162.8343	1191.8591	1203.2103	1298.6528	1398.47	1422.1234	1428.8168	1486.1679	1497.0868	1502.0402	1511.7048	1611.6918	3038.8112	3102.004	3116.9797	3119.0314	3138.9072	3208.3691	3272.4216
CC1CN1C1=NON=C1	C[C@H]1CN1c1nonc1	
InChI=1S/C5H7N3O/c1-4-3-8(4)5-2-6-9-7-5/h2,4H,3H2,1H3	InChI=1S/C5H7N3O/c1-4-3-8(4)5-2-6-9-7-5/h2,4H,3H2,1H3/t4-,8?/m0/s1
