13
gdb 8990	6.09214	0.8455	0.76085	1.5328	61.27	-0.2711	-0.0985	0.1725	1355.1387	0.09234	-398.625413	-398.616877	-398.615932	-398.660159	27.752	
O	-0.1691499593	-0.071312345	-0.1796593262	-0.225129
C	-0.0188705061	 1.120362606	-0.1428439438	 0.155974
C	 1.3229793076	 1.8220337472	-0.1392762351	-0.283573
C	 1.4119540823	 2.8717247274	-1.2513157259	-0.32311
C	 2.6031152542	 3.7920215918	-1.0948513101	 0.293587
O	 3.3629532817	 3.791005193	-0.1613997926	-0.255639
C	 2.7845192398	 4.7514926789	-2.2061554047	 0.23544
N	 2.90958241	 5.4951798552	-3.0825870791	-0.28697
H	-0.8952217758	 1.810245477	-0.1002855578	 0.07761
H	 1.440010524	 2.325608553	 0.8293093877	 0.149273
H	 2.1174972176	 1.077589136	-0.2246190493	 0.143985
H	 1.4641794991	 2.4107266102	-2.2460833297	 0.162809
H	 0.5152335648	 3.5092939493	-1.2782937434	 0.155742
51.8837	61.3218	81.7572	132.0413	215.7383	273.5116	312.7742	434.5288	527.6273	573.5886	609.3628	768.8362	821.5336	860.9988	1012.1803	1055.1504	1084.292	1108.4919	1188.3608	1269.1304	1302.4158	1380.3397	1429.3231	1441.6889	1465.0244	1803.7328	1844.1118	2338.5884	2850.8521	3013.6608	3039.676	3058.5022	3121.5441
O=CCCC(=O)C#N	O=CCCC(=O)C#N	
InChI=1S/C5H5NO2/c6-4-5(8)2-1-3-7/h3H,1-2H2	InChI=1S/C5H5NO2/c6-4-5(8)2-1-3-7/h3H,1-2H2
