20
gdb 91494	2.48085	1.88366	1.46238	0.8482	78.59	-0.2205	0.0369	0.2573	985.7137	0.172387	-403.000726	-402.993317	-402.992373	-403.032026	30.796	
C	 0.0278777608	 1.5361157923	 0.1354349014	-0.429756
C	 0.1169816948	 0.0231589583	-0.0545708972	 0.000869
C	 1.1077647468	-0.5040291326	-1.1288428013	-0.179327
N	 2.0162862391	-1.3962636268	-0.3446366732	-0.172663
C	 2.2759430527	-0.481385084	 0.8928809496	-0.273872
C	 0.7403849219	-0.7455940288	 1.1470637923	 0.387468
O	-0.2797628462	-1.2378849499	 2.0886811528	-0.366621
C	-0.4256686676	-2.406159733	 1.1773005344	-0.177116
C	 1.0300737217	-2.0985524986	 0.668947958	-0.016556
H	 1.0053126211	 1.9915472788	 0.3237738313	 0.11481
H	-0.3912939714	 2.0161696271	-0.7552080165	 0.115718
H	-0.623794555	 1.778805238	 0.9815529125	 0.128624
H	-0.8924778417	-0.3477311388	-0.2487016571	 0.073069
H	 0.6226819044	-1.0853089778	-1.916904031	 0.106845
H	 1.702468195	 0.2842599194	-1.6003489461	 0.105533
H	 2.9463022872	-0.9735749371	 1.5950378082	 0.125481
H	 2.6392311306	 0.5138187839	 0.6253766961	 0.109871
H	-0.533547095	-3.3345730771	 1.7422910289	 0.122776
H	-1.264710253	-2.2725976426	 0.49136157	 0.122011
H	 1.6974894539	-2.6486753005	 1.3325769169	 0.102837
168.9892	204.628	246.5654	293.2619	347.422	416.9193	456.4548	526.7645	562.9509	620.5118	651.5196	745.1922	774.568	819.4337	838.3019	890.4366	932.1376	939.8683	947.2296	965.7967	1002.8351	1044.9824	1073.047	1095.2616	1111.2556	1125.0187	1141.4026	1159.8599	1198.8471	1215.5393	1242.8877	1256.1634	1284.9022	1309.0478	1323.4553	1388.3172	1411.4412	1423.5859	1493.207	1497.54	1501.7524	1507.1199	1518.4303	3033.0951	3053.3508	3060.0877	3071.1889	3077.8267	3093.4812	3097.797	3102.387	3109.7274	3132.4945	3162.96
CC1CN2CC11OCC21	C[C@H]1CN2C[C@]31OC[C@@H]23	
InChI=1S/C7H11NO/c1-5-2-8-4-7(5)6(8)3-9-7/h5-6H,2-4H2,1H3	InChI=1S/C7H11NO/c1-5-2-8-4-7(5)6(8)3-9-7/h5-6H,2-4H2,1H3/t5-,6+,7+/m0/s1
