19
gdb 95792	2.19623	1.6414	1.00969	1.9842	71.35	-0.2707	-0.0377	0.233	1165.5113	0.159791	-460.201322	-460.192826	-460.191882	-460.234176	33.028	
O	 0.0592728483	 1.3972028495	 0.0980634287	-0.441202
C	 0.0109608109	 0.0008295493	 0.0008047133	 0.057998
C	-1.4401910031	-0.5290470448	 0.0006906884	-0.216122
C	-1.4810505532	-2.0486921287	-0.2070129832	-0.227638
C	-0.7927737777	-2.4537346325	-1.5171068679	-0.216121
C	 0.6745981914	-1.972077709	-1.5550274251	 0.057998
O	 1.2877763758	-2.2549990903	-2.78206409	-0.441202
C	 0.7074934884	-0.4837923115	-1.2579020992	 0.331249
O	 1.231085738	 0.2992682385	-2.0275420247	-0.357175
H	 0.5628689403	 1.6998779258	-0.6729701689	 0.294389
H	 0.5393071943	-0.4555630554	 0.8568353153	 0.096273
H	-1.9156832579	-0.2380453501	 0.9418815985	 0.11587
H	-1.9848826248	-0.019552813	-0.8037994842	 0.112056
H	-0.9941810781	-2.5522173951	 0.6391714071	 0.103923
H	-2.5197245352	-2.3935956246	-0.2126949026	 0.111117
H	-0.8056188874	-3.5381144408	-1.6605317165	 0.11587
H	-1.3148618338	-2.0114454964	-2.3745927637	 0.112056
H	 1.2188282813	-2.4756711068	-0.7362231527	 0.096273
H	 1.6072959524	-1.4050651339	-3.1215242925	 0.294389
97.5323	132.6208	242.5257	286.8443	321.862	343.6738	374.6016	380.5222	400.667	420.7654	451.6093	557.4132	652.282	675.2187	821.8549	869.2963	886.0374	916.7551	945.6074	1046.7423	1064.0801	1070.5671	1093.9184	1119.6889	1154.2432	1165.9476	1224.7338	1245.7607	1283.6641	1293.8023	1332.8272	1335.0529	1367.1083	1372.0972	1373.1569	1433.6716	1441.2304	1488.3922	1489.6075	1503.9352	1781.4419	2943.6186	2956.47	3020.9875	3037.7169	3040.0654	3080.7518	3091.3097	3094.3331	3703.8743	3711.7602
OC1CCCC(O)C1=O	O[C@H]1CCC[C@@H](O)C1=O	
InChI=1S/C6H10O3/c7-4-2-1-3-5(8)6(4)9/h4-5,7-8H,1-3H2	InChI=1S/C6H10O3/c7-4-2-1-3-5(8)6(4)9/h4-5,7-8H,1-3H2/t4-,5+
