20
gdb 68812	2.78603	1.20598	1.03736	3.7126	80.94	-0.2295	-0.0228	0.2067	1237.7791	0.168874	-403.125614	-403.116222	-403.115278	-403.159824	34.904	
C	-0.0893663401	 1.5499742016	 0.042277762	-0.510193
C	 0.138826161	 0.0708742033	 0.0230914513	 0.297195
C	 0.6964448831	-0.7594379118	-1.1380180951	-0.295149
C	 1.3097148322	-1.7716014213	-0.0943252181	-0.11236
C	 2.8114691819	-1.7829411255	-0.1415791873	 0.158729
O	 3.4993289547	-2.7715132345	-0.1659076351	-0.259946
C	 0.7204156324	-0.875748983	 1.025386246	 0.268719
C	 1.2658122785	-0.6942907294	 2.4089764127	-0.511689
N	-0.743568317	-0.8709438271	 0.7616873711	-0.406296
H	 0.7755794616	 2.0884266078	-0.3597934406	 0.126199
H	-0.9619776704	 1.8210563814	-0.5638440762	 0.133705
H	-0.2671320705	 1.9120289401	 1.060902051	 0.119255
H	-0.0431297932	-1.182343192	-1.8210047392	 0.116125
H	 1.4686679431	-0.2350549308	-1.709291094	 0.105074
H	 0.9270394152	-2.7934095771	-0.1185423561	 0.096964
H	 3.2752293353	-0.7662445565	-0.1642591846	 0.065158
H	 2.3455367561	-0.5119748295	 2.3961376185	 0.130396
H	 0.7894869979	 0.1553628995	 2.910138911	 0.119842
H	 1.0872387375	-1.5864425883	 3.0206219035	 0.138659
H	-1.1694282792	-0.3396243268	 1.5232314794	 0.219614
69.198	93.8447	182.1876	189.5801	203.2412	236.2295	327.7696	352.724	396.2684	412.7716	470.0011	508.9404	599.9071	689.9872	730.8978	838.2863	865.5414	889.8154	950.0765	969.7351	1005.6473	1041.0676	1064.5737	1095.3061	1111.3652	1124.7431	1158.6255	1184.9115	1224.6166	1232.4443	1282.27	1323.9647	1345.0886	1412.214	1415.397	1430.3226	1453.0607	1477.0025	1480.5702	1491.35	1492.6552	1506.1839	1829.2069	2829.3633	3022.6697	3025.0295	3054.9516	3085.1789	3087.668	3094.8387	3097.1548	3103.0362	3119.8361	3447.603
CC12CC(C=O)C1(C)N2	C[C@@]12C[C@@H](C=O)[C@]1(C)N2	
InChI=1S/C7H11NO/c1-6-3-5(4-9)7(6,2)8-6/h4-5,8H,3H2,1-2H3	InChI=1S/C7H11NO/c1-6-3-5(4-9)7(6,2)8-6/h4-5,8H,3H2,1-2H3/t5-,6+,7-/m0/s1
