20
gdb 107854	3.36816	1.39659	1.33765	0.6616	78.05	-0.2265	0.0671	0.2936	1045.9985	0.173138	-403.090544	-403.08303	-403.082086	-403.122507	30.4	
O	-0.0437482607	 1.3939585612	-0.0509457811	-0.426273
C	-0.0264479274	-0.027740528	-0.025913358	-0.201706
C	-1.4535048497	-0.5017741758	-0.0504776752	 0.369682
C	-2.3554978588	-0.4294497189	-1.3057199527	-0.269215
C	-3.0190996454	-1.6163119709	-0.6147132455	-0.000506
C	-3.3550964413	-1.2666194309	 0.8950950254	-0.05811
C	-2.3531163786	-2.3864341742	 1.2260881011	-0.1712
N	-1.6556864585	-2.0415494516	-0.0595557496	-0.193618
C	-2.4345115212	-0.0401796772	 1.055410088	-0.255514
H	 0.865924847	 1.7041253872	-0.0742762648	 0.290251
H	 0.5129240452	-0.4443456596	-0.8892387143	 0.095232
H	 0.4637834306	-0.4104868878	 0.8850382174	 0.08557
H	-2.9182976502	 0.4880175983	-1.4860637749	 0.100922
H	-1.8335775379	-0.751863243	-2.2098269854	 0.106135
H	-3.6213639987	-2.3713487945	-1.1219638166	 0.073442
H	-4.36818132	-1.2229152712	 1.2979372748	 0.059647
H	-1.7580772884	-2.3074721849	 2.1427047068	 0.092974
H	-2.7570593078	-3.3991836739	 1.1343940484	 0.10348
H	-1.9877279329	 0.0246358104	 2.0518300026	 0.092993
H	-2.8970400052	 0.9199511253	 0.8196054637	 0.105811
77.8286	168.1928	235.7894	285.444	356.1847	425.2736	473.2703	491.8572	634.7853	661.4819	753.496	782.7311	836.5032	865.7987	883.1966	903.0044	939.3939	957.0956	969.0047	997.5102	1003.4413	1020.7993	1059.488	1069.0552	1094.2828	1107.1589	1145.7019	1180.3011	1190.3645	1204.847	1230.1714	1244.783	1249.8753	1265.1452	1270.9193	1295.1961	1318.6218	1347.6706	1466.5221	1481.2407	1499.6676	1514.1508	1521.5081	2962.6286	3008.9598	3035.415	3061.1148	3069.5025	3094.1767	3097.252	3108.6607	3115.7432	3132.7352	3834.0107
OCC12CC3C(CN13)C2	OC[C@@]12C[C@@H]3[C@@H](CN13)C2	
InChI=1S/C7H11NO/c9-4-7-1-5-3-8(7)6(5)2-7/h5-6,9H,1-4H2	InChI=1S/C7H11NO/c9-4-7-1-5-3-8(7)6(5)2-7/h5-6,9H,1-4H2/t5-,6-,7-/m1/s1
