19
gdb 90563	2.57529	1.35389	1.05386	2.804	75.96	-0.2381	-0.0231	0.215	1176.2923	0.157781	-422.990084	-422.981379	-422.980435	-423.023865	32.363	
C	 0.9647006101	 2.1711359965	 2.8144931793	-0.435614
C	 0.5016011233	 0.7582865799	 2.5255374436	 0.157291
O	 0.0250278902	 0.5215250153	 1.1592491098	-0.301928
C	 0.7335473463	-0.7156940678	 1.1147880706	 0.06963
C	 2.212980983	-0.4985920772	 1.1089206262	-0.049824
C	 2.8772125681	 0.6570369504	 0.3716503868	-0.317857
C	 4.1185519335	 1.1351361601	 1.0883967064	 0.165684
O	 4.2375568915	 2.2107153059	 1.6195956378	-0.233847
C	 1.444181775	-0.4449424665	 2.4260746441	-0.175249
H	 0.1603755057	 2.8751401719	 2.5759539444	 0.125944
H	 1.1819339654	 2.2654405449	 3.884321943	 0.119105
H	 1.8616789146	 2.4561294668	 2.2639295758	 0.155018
H	-0.3215801199	 0.4993304912	 3.2056555687	 0.086591
H	 0.2159963984	-1.582684353	 0.7190856328	 0.105022
H	 2.7576418455	-1.4394474974	 1.041697125	 0.097451
H	 3.1751402217	 0.2993765887	-0.6237847877	 0.114668
H	 2.1784441251	 1.4844421667	 0.2443555826	 0.142079
H	 4.9522827384	 0.3950773538	 1.1190094747	 0.076279
H	 1.675882644	-1.1140632003	 3.2442170662	 0.099558
70.7374	94.0293	155.4254	196.0788	230.6278	269.2008	324.0716	403.9421	489.7835	560.3434	619.618	695.6308	742.7004	802.2529	821.0359	866.1431	919.0509	927.4498	996.0244	1025.4964	1035.7484	1053.9553	1067.064	1083.9632	1098.4309	1129.5222	1164.2817	1186.4226	1219.6984	1263.8485	1291.9894	1307.6964	1348.537	1395.5525	1417.4305	1429.2784	1441.617	1475.0351	1498.9593	1504.2095	1827.3288	2858.8023	3005.0927	3020.2945	3041.1475	3100.9476	3119.9992	3136.7939	3154.1384	3171.3845	3199.2512
CC1OC2C(CC=O)C12	C[C@H]1O[C@H]2[C@@H](CC=O)[C@@H]12	
InChI=1S/C7H10O2/c1-4-6-5(2-3-8)7(6)9-4/h3-7H,2H2,1H3	InChI=1S/C7H10O2/c1-4-6-5(2-3-8)7(6)9-4/h3-7H,2H2,1H3/t4-,5+,6-,7+/m1/s1
