15
gdb 51304	3.24443	1.09835	0.89864	4.3371	69.21	-0.2543	-0.0542	0.2	1248.4466	0.111829	-457.821151	-457.813016	-457.812072	-457.855181	28.58	
O	-0.5415562408	 0.5547284227	 0.6170611554	-0.229203
C	 0.2173316671	 0.8756505959	-0.2580066232	 0.15026
C	 1.3413919631	 1.8941510302	-0.0695129807	-0.386089
C	 1.311543016	 2.9576404148	-1.1206192218	 0.155946
C	 0.9979470707	 4.2529562406	-1.0537510321	-0.209639
C	 1.1318380903	 4.8650136124	-2.4160179654	-0.127686
O	 1.5457593325	 3.7965585424	-3.2669374453	-0.223275
C	 1.6612708738	 2.6472155079	-2.5349230184	 0.409159
O	 1.9914079928	 1.5955370235	-3.0105700491	-0.354187
H	 0.1608977641	 0.4405069017	-1.2769958629	 0.113029
H	 1.2693879655	 2.3083619697	 0.9380347091	 0.13068
H	 2.2842117888	 1.3367315832	-0.1622098978	 0.151358
H	 0.696288844	 4.8171207404	-0.1805681146	 0.134576
H	 0.186812035	 5.2765777392	-2.7923923391	 0.142981
H	 1.8847289271	 5.6623453653	-2.452543274	 0.14209
48.8973	71.4768	144.5967	197.6631	249.2725	313.4836	432.4497	448.4215	544.1998	635.0724	758.7363	787.011	797.1664	813.0281	850.9859	950.6876	1024.0471	1027.1742	1051.9834	1085.5231	1094.1465	1195.6248	1199.9717	1216.4571	1290.1076	1343.6103	1371.7682	1416.7636	1447.0515	1492.671	1710.8232	1836.0327	1856.8591	2930.2295	3022.2386	3027.4166	3059.9168	3120.9416	3222.829
O=CCC1=CCOC1=O	O=CCC1=CCOC1=O	
InChI=1S/C6H6O3/c7-3-1-5-2-4-9-6(5)8/h2-3H,1,4H2	InChI=1S/C6H6O3/c7-3-1-5-2-4-9-6(5)8/h2-3H,1,4H2
