13
gdb 28304	5.4368	1.34312	1.07704	3.0657	65.69	-0.1993	0.0066	0.2059	1012.1633	0.091817	-452.778679	-452.772226	-452.771282	-452.809327	25.514	
O	 0.0799856539	 1.3165933999	-0.0085819689	-0.429729
C	 0.0648214081	-0.0294626781	-0.0688301537	 0.34914
C	 0.0045392911	-0.7872290195	-1.218252851	-0.270773
N	 0.0148609657	-2.0979325319	-0.7331296835	-0.029315
C	-0.0126095167	-3.4490676917	-1.0590465868	-0.132045
C	 0.0359351167	-4.1124114885	 0.1163715876	-0.057511
O	 0.0932442059	-3.2264152274	 1.177732583	-0.214278
C	 0.0786502221	-1.9999121384	 0.6215566562	 0.50144
N	 0.1115810449	-0.7793182551	 1.0883347175	-0.480981
H	 0.1256532984	 1.5448515383	 0.9278779414	 0.304874
H	-0.0415537321	-0.5341528773	-2.2603845837	 0.136631
H	-0.0628318864	-3.8210176612	-2.067081591	 0.162367
H	 0.0380786785	-5.1571554091	 0.3681001729	 0.160181
149.0566	311.138	331.3832	336.3728	371.2071	557.231	566.1766	587.4964	606.9265	686.0565	699.5993	747.5221	775.3332	775.9114	862.9103	947.8907	1008.0583	1057.0155	1137.504	1156.6368	1192.8136	1248.2484	1278.0162	1402.7989	1429.0708	1465.2627	1596.4085	1631.2717	1655.5051	3294.0924	3311.6716	3320.988	3805.2722
OC1=CN2C=COC2=N1	Oc1cn2ccoc2n1	
InChI=1S/C5H4N2O2/c8-4-3-7-1-2-9-5(7)6-4/h1-3,8H	InChI=1S/C5H4N2O2/c8-4-3-7-1-2-9-5(7)6-4/h1-3,8H
