16
gdb 26427	3.38514	1.06263	0.97159	2.3132	72.05	-0.2412	-0.0374	0.2038	1233.7245	0.123777	-437.926166	-437.917693	-437.916749	-437.960638	29.604	
C	-0.0290087088	 1.5541863435	 0.0959639754	-0.410277
C	-0.0236832549	 0.0148759601	-0.0314990727	-0.185041
C	 0.7376499153	-0.5786459609	 1.156486968	 0.163148
O	 1.8343768258	-1.0630941134	 1.0815554337	-0.239935
C	-1.3974562761	-0.5598075019	-0.1008439622	 0.33146
C	-2.0285635675	-1.4441570856	-0.9134640297	-0.203889
N	-3.3372064431	-1.6259463511	-0.4809213836	-0.251186
C	-3.4329065189	-0.8632588958	 0.555808645	 0.07301
O	-2.304157037	-0.1787394131	 0.8609163699	-0.183897
H	 0.9947174777	 1.9374070013	 0.1096076625	 0.136488
H	-0.5590996589	 2.0011167609	-0.7491522853	 0.136765
H	-0.5316200401	 1.8680639923	 1.0150017104	 0.139409
H	 0.5173442815	-0.2845934816	-0.9334433656	 0.11681
H	 0.1931898454	-0.5096373329	 2.1252114339	 0.090022
H	-1.6387459884	-1.9585810763	-1.7773924081	 0.132941
H	-4.284222522	-0.7036983256	 1.1986086787	 0.154172
45.9438	60.062	136.383	184.1841	212.5609	291.7427	366.7775	429.1482	457.1808	665.8237	702.473	735.9468	836.4365	861.2027	887.2361	934.7347	938.8295	974.7459	1043.9987	1087.9902	1120.9569	1128.2867	1144.9408	1234.9755	1248.7798	1276.7117	1320.3211	1359.9773	1401.5464	1421.9383	1494.5665	1497.9548	1548.6861	1629.8645	1838.1884	2881.9131	3047.266	3083.2108	3125.6643	3127.6649	3266.0401	3278.8226
CC(C=O)C1=CN=CO1	C[C@@H](C=O)c1cnco1	
InChI=1S/C6H7NO2/c1-5(3-8)6-2-7-4-9-6/h2-5H,1H3	InChI=1S/C6H7NO2/c1-5(3-8)6-2-7-4-9-6/h2-5H,1H3/t5-/m0/s1
