18
gdb 121711	7.00866	0.57601	0.53762	4.5731	72.27	-0.2525	-0.0312	0.2214	1985.6165	0.14489	-476.258604	-476.248209	-476.247264	-476.296016	34.344	
C	 0.1918405524	 1.3401214527	 0.0064200094	-0.231042
O	 0.0589582231	-0.0621898468	 0.0008538903	-0.237878
C	-1.2874415707	-0.4814862295	 0.0112026792	-0.050302
C	-1.2887260825	-2.0036207175	 0.0037775909	-0.354758
C	-2.6994038123	-2.5750644381	 0.0143297158	 0.437984
O	-3.6962981894	-1.9002740035	 0.0293965263	-0.300811
N	-2.7153983869	-3.9813952675	 0.0055211465	-0.355137
C	-3.8212478071	-4.8286780271	 0.0121365593	 0.167117
O	-4.9744382183	-4.5023208218	 0.0267161898	-0.250003
H	 1.2605557495	 1.5670615632	-0.0023236825	 0.127711
H	-0.2771561814	 1.7979589999	-0.8785635765	 0.108087
H	-0.2607422604	 1.7893305731	 0.9042760575	 0.108101
H	-1.8142278822	-0.1053528337	 0.9013953515	 0.108277
H	-1.8304479018	-0.0966819384	-0.8654626025	 0.108162
H	-0.7511959258	-2.368947593	-0.8804601842	 0.135845
H	-0.7349833888	-2.3774205575	 0.8743887153	 0.136028
H	-1.8168251775	-4.4423726394	-0.0070252865	 0.257351
H	-3.4856551797	-5.8865349452	 0.0017732105	 0.085265
36.2877	51.1148	86.7835	95.5902	119.681	208.8159	217.7518	230.5696	287.3716	321.3519	485.3622	557.4331	566.5482	635.8308	811.8272	818.3883	928.7519	996.7488	1027.9617	1058.8014	1081.3058	1113.7591	1154.6066	1172.2876	1180.6555	1222.4158	1232.8615	1302.894	1332.8488	1425.7339	1446.6999	1465.6908	1483.1548	1485.0426	1503.9204	1505.4715	1526.963	1810.6558	1873.908	2917.9391	2971.4106	2988.3405	3014.2696	3019.6742	3031.3907	3070.118	3116.2139	3606.3305
COCCC(=O)NC=O	COCCC(=O)NC=O	
InChI=1S/C5H9NO3/c1-9-3-2-5(8)6-4-7/h4H,2-3H2,1H3,(H,6,7,8)	InChI=1S/C5H9NO3/c1-9-3-2-5(8)6-4-7/h4H,2-3H2,1H3,(H,6,7,8)
