13
gdb 127906	6.91945	0.90593	0.8051	2.3603	71.03	-0.2434	-0.0758	0.1676	1328.0406	0.088721	-448.913174	-448.904759	-448.903814	-448.947347	28.746	
C	-0.0323962101	 1.4061229144	 0.0981445464	-0.33536
N	 0.1377155212	-0.0387573625	 0.0718745815	-0.382542
C	 0.5968527348	-0.5937776009	-0.9508148843	 0.540408
N	 0.8167398693	-1.9552836524	-1.140454136	-0.428632
C	 1.298455898	-2.1230665125	-2.4071502643	 0.343257
N	 1.4289722035	-1.0071695252	-3.0546670277	-0.156126
O	 1.000994397	-0.0189048154	-2.1528362542	-0.240683
C	 1.627419764	-3.3901910911	-2.9642966141	 0.264342
N	 1.8809063888	-4.4394342391	-3.3769917259	-0.303712
H	 0.8103045815	 1.8740775793	 0.6213959899	 0.133216
H	-0.1105335205	 1.8606887507	-0.8964651427	 0.130987
H	-0.9375719214	 1.6438213062	 0.6638388402	 0.131947
H	 0.605757284	-2.6639709916	-0.4595820688	 0.302897
37.7014	79.3264	136.4363	219.8497	223.7467	260.4616	376.6804	451.0034	488.3387	555.0399	617.2307	681.1574	710.6754	725.4136	914.5287	930.3279	1009.2327	1085.7831	1133.645	1152.7146	1223.6089	1291.0056	1448.6953	1490.5677	1492.7231	1506.6699	1601.9008	1843.5369	2371.4691	3016.2674	3074.7267	3100.5155	3693.038
CN=C1NC(=NO1)C#N	CN=c1[nH]c(no1)C#N	
InChI=1S/C4H4N4O/c1-6-4-7-3(2-5)8-9-4/h1H3,(H,6,7,8)	InChI=1S/C4H4N4O/c1-6-4-7-3(2-5)8-9-4/h1H3,(H,6,7,8)
