22
gdb 114384	2.45723	1.29019	1.12333	2.6373	82.28	-0.2307	0.0659	0.2966	1229.3456	0.193532	-404.299082	-404.289602	-404.288658	-404.332934	36.587	
C	-0.0733777653	 1.4169394563	 0.2263553687	-0.474912
C	 0.0923755964	-0.0872850912	 0.1136948893	 0.338411
C	-0.9361073871	-0.8459965471	 0.9374984832	-0.436493
C	 0.5465779752	-0.7786974423	-1.1106760196	-0.06186
C	 1.6141081321	-0.0036823475	-1.8856271866	-0.328213
C	 2.4857027664	-0.125474088	-0.610305485	 0.068326
C	 3.1730132496	 1.0367165526	 0.0887607544	-0.081271
O	 3.6829202401	 0.6114913086	 1.3422846362	-0.425927
N	 1.3903725599	-0.8251628742	 0.1694300872	-0.221788
H	 0.496821196	 1.9829192732	-0.5096242497	 0.125076
H	-1.1300675997	 1.6695081641	 0.084748784	 0.119755
H	 0.2141010944	 1.7669768009	 1.2240033764	 0.12733
H	-1.9506646081	-0.6280454512	 0.5863735243	 0.11276
H	-0.7646714513	-1.9229568126	 0.8753718792	 0.128075
H	-0.8734823562	-0.5552729327	 1.9917997137	 0.118157
H	 0.0489547471	-1.669442944	-1.4846542019	 0.091029
H	 2.0246470303	-0.5454637381	-2.7387723364	 0.112734
H	 1.3295916516	 0.9985939431	-2.219315278	 0.106599
H	 3.248029328	-0.8964553474	-0.7621837821	 0.097984
H	 4.0309844509	 1.3665272427	-0.5097944041	 0.10429
H	 2.5084776121	 1.9022321356	 0.2055922535	 0.08678
H	 2.9997286172	 0.0599327193	 1.7428074433	 0.293158
71.7	129.967	201.5025	206.1351	258.943	267.4864	293.5261	350.3969	372.3989	383.6197	438.5215	466.1139	580.8372	635.3178	692.8167	782.9488	845.109	866.5874	935.3903	960.8626	971.0457	996.4143	1026.0555	1044.0079	1056.4293	1066.4397	1103.6802	1121.297	1146.1506	1169.3346	1214.938	1244.2321	1259.0488	1300.6698	1306.3306	1343.6132	1396.1585	1407.0164	1414.395	1423.7364	1440.8529	1482.038	1482.6824	1497.6797	1505.8896	1511.9782	1522.0565	3020.4333	3031.5894	3037.6853	3044.0358	3056.213	3063.691	3089.1614	3096.0456	3118.8035	3125.9175	3144.6183	3146.2936	3781.7676
CC1(C)C2CC(CO)N12	CC1(C)[C@H]2C[C@@H](CO)N12	
InChI=1S/C7H13NO/c1-7(2)6-3-5(4-9)8(6)7/h5-6,9H,3-4H2,1-2H3	InChI=1S/C7H13NO/c1-7(2)6-3-5(4-9)8(6)7/h5-6,9H,3-4H2,1-2H3/t5-,6+,8?/m0/s1
