16
gdb 48873	3.44976	1.59462	1.34069	3.0167	72.42	-0.2267	-0.035	0.1918	951.4653	0.125004	-400.711297	-400.704372	-400.703428	-400.742739	27.259	
O	-0.1354101002	 0.0121429348	 0.2893615813	-0.254406
C	 0.0248849638	 1.1119266619	-0.1765156465	 0.070431
C	 1.3283093621	 1.8543665967	-0.1408861321	 0.19996
C	 1.4083553141	 3.0424281808	 0.8985865261	-0.277149
C	 2.0195991115	 3.8466588284	-0.2314923334	-0.047603
C	 2.986876487	 3.0707130698	-1.0898913662	-0.073943
C	 3.5831029433	 1.8104597334	-0.5655579222	-0.087343
C	 2.606271341	 1.0624622676	-0.0532529688	-0.136426
N	 1.5294089728	 2.8761144623	-1.2753114479	-0.169759
H	-0.8072917518	 1.6788390485	-0.6491990916	 0.089374
H	 0.411832794	 3.4255427082	 1.1329539461	 0.123782
H	 1.967009085	 2.865449612	 1.8209709999	 0.116397
H	 1.9097186271	 4.9199556934	-0.3550979141	 0.101574
H	 3.4757166602	 3.6271733359	-1.8837164451	 0.101149
H	 4.6410104261	 1.5862184659	-0.5936788189	 0.11421
H	 2.673578894	 0.1117627103	 0.4565415435	 0.12975
81.7186	190.5433	242.022	349.59	399.6037	432.1721	547.7571	670.8617	736.6786	755.2619	765.3373	776.404	814.188	834.6187	874.2422	933.2854	951.6048	977.822	1016.7732	1030.4686	1062.3602	1071.9199	1086.3442	1132.8161	1146.2815	1171.2649	1245.9429	1273.7054	1338.1822	1356.6477	1374.0652	1412.1355	1481.8198	1656.4097	1824.1486	2894.1824	3058.6144	3116.2926	3153.6741	3165.2208	3220.0708	3247.4117
O=CC12CC3C(C=C1)N23	O=C[C@@]12C[C@H]3[C@@H](C=C1)N23	
InChI=1S/C7H7NO/c9-4-7-2-1-5-6(3-7)8(5)7/h1-2,4-6H,3H2	InChI=1S/C7H7NO/c9-4-7-2-1-5-6(3-7)8(5)7/h1-2,4-6H,3H2/t5-,6+,7+,8?/m1/s1
