19
gdb 36873	4.92517	0.92431	0.81835	1.3423	77.99	-0.2144	0.0643	0.2788	1427.5837	0.161118	-419.210684	-419.202112	-419.201168	-419.245125	31.158	
C	-0.3846975391	 1.1057966034	-0.2341966	-0.233838
C	 1.0291571467	 1.1729422044	 0.2874720422	-0.294648
C	 0.3802118844	-0.1605711451	 0.0318700915	 0.058027
N	 0.0202239533	-0.9434931631	 1.1760090196	-0.38119
C	-1.000856626	-1.8460827077	 1.0994803991	 0.501328
N	-1.8673992151	-1.9599857319	 0.1710505413	-0.354249
C	-2.787588081	-3.013834876	 0.6069725504	-0.178426
C	-2.1701103151	-3.5634230385	 1.922877454	-0.108312
O	-1.0653547554	-2.6741131345	 2.1849387682	-0.272112
H	-1.1866877585	 1.344040667	 0.4532728132	 0.124988
H	-0.5746921607	 1.3702008897	-1.2676207895	 0.118655
H	 1.8218027408	 1.487105237	-0.3818391055	 0.116332
H	 1.1668953868	 1.467400366	 1.3220291044	 0.116239
H	 0.7093493519	-0.7240949628	-0.8391336371	 0.097694
H	 0.7624374301	-1.2109740335	 1.8049280556	 0.249301
H	-3.7930707301	-2.6044122257	 0.7675740157	 0.105586
H	-2.878062169	-3.7922049656	-0.1588648924	 0.106663
H	-2.8486170895	-3.5294827908	 2.779275667	 0.115839
H	-1.7775852246	-4.5807516523	 1.8234089922	 0.112124
59.5871	70.8337	92.2483	131.0683	241.1151	349.6559	358.3325	475.0843	525.1764	722.9321	737.1429	766.2616	770.6212	839.6488	842.597	854.7555	922.6351	955.3929	983.4904	1000.7497	1051.7873	1062.6766	1077.6892	1093.5117	1125.5181	1127.8713	1193.0683	1199.4591	1220.1931	1239.9034	1247.8282	1277.8534	1341.7873	1374.0721	1406.6531	1461.492	1499.4986	1511.2064	1520.8933	1540.719	1751.0963	3018.3524	3042.5891	3053.8061	3097.6953	3116.3655	3138.6586	3151.5129	3222.6433	3242.9955	3613.8905
C1CC1NC1=NCCO1	C1CC1NC1=NCCO1	
InChI=1S/C6H10N2O/c1-2-5(1)8-6-7-3-4-9-6/h5H,1-4H2,(H,7,8)	InChI=1S/C6H10N2O/c1-2-5(1)8-6-7-3-4-9-6/h5H,1-4H2,(H,7,8)
