18
gdb 52051	2.8805	0.86815	0.73243	3.4238	77.9	-0.2586	-0.0309	0.2277	1527.2519	0.145925	-401.962548	-401.953101	-401.952157	-401.998147	33.253	
O	-0.3031806443	 0.0202051845	-0.3483502633	-0.232253
C	-0.0094507417	 1.1363929859	-0.0084582007	 0.156897
C	 1.3509548225	 1.7690844358	-0.1975605054	-0.278409
C	 1.2619676461	 3.0630810531	-1.0272555387	-0.293591
C	 2.5962302445	 3.7925684549	-1.1423221632	 0.193292
C	 3.5877015949	 3.3604010907	-2.2143574708	-0.284833
C	 2.8633458793	 4.6642452236	-2.3606400051	-0.305252
C	 3.1465008391	 4.2422630204	 0.112771002	 0.244744
N	 3.5674915876	 4.5910072603	 1.1328129525	-0.348762
H	-0.7584702145	 1.8018097444	 0.4828400744	 0.076275
H	 1.7476364105	 2.0127008092	 0.7981104946	 0.145554
H	 2.0175876596	 1.0392028643	-0.6646964176	 0.12601
H	 0.9138717456	 2.8292590422	-2.0394760514	 0.118689
H	 0.519232457	 3.7381594401	-0.5850409584	 0.124913
H	 4.6417508799	 3.3816868914	-1.9660306329	 0.145051
H	 3.2843274902	 2.5260063161	-2.8370608153	 0.134055
H	 2.0600821952	 4.7346230329	-3.0856383813	 0.132564
H	 3.4195127585	 5.5813465201	-2.2092616693	 0.145056
49.1867	67.9318	99.418	126.8235	200.5117	227.4871	291.2826	344.0478	372.7889	519.0034	570.5106	591.6154	691.6875	770.5398	786.2707	856.1207	889.893	928.4788	958.6351	981.1856	1010.5639	1066.7528	1085.0283	1094.0449	1110.9545	1192.1726	1195.8784	1271.245	1288.9644	1292.6923	1356.4997	1377.8137	1429.0674	1464.165	1468.7916	1488.1583	1498.3194	1838.5835	2347.275	2853.6021	3022.1734	3033.5256	3075.0125	3107.6622	3142.8998	3146.5244	3229.1929	3242.6495
O=CCCC1(CC1)C#N	O=CCCC1(CC1)C#N	
InChI=1S/C7H9NO/c8-6-7(3-4-7)2-1-5-9/h5H,1-4H2	InChI=1S/C7H9NO/c8-6-7(3-4-7)2-1-5-9/h5H,1-4H2
