20
gdb 31773	2.90194	1.27972	0.95105	1.2372	84.61	-0.1945	0.0311	0.2255	1269.6993	0.171271	-403.187871	-403.178385	-403.177441	-403.221945	35.076	
C	 0.3384207593	 1.2444966778	 0.2479315856	-0.360626
N	 0.0211312851	-0.165382649	 0.1100533719	-0.082464
C	-0.0555049942	-0.8601126032	-1.0784160247	 0.282807
C	 0.2328686168	-0.2265868596	-2.3998101995	-0.50405
C	-0.4196008228	-2.1573860969	-0.7828075089	-0.227924
C	-0.5684828909	-2.2526034561	 0.6239886058	-0.235059
C	-0.2989982891	-1.0106782642	 1.158726563	 0.237613
C	-0.3167282322	-0.5639260333	 2.5800864078	-0.192009
O	 0.9619618583	-0.1361548487	 3.068541761	-0.411878
H	 0.8015883335	 1.4100862844	 1.2213562112	 0.168633
H	 1.0445195788	 1.5447546608	-0.5292375683	 0.134703
H	-0.5559358858	 1.8738862605	 0.1601035667	 0.128989
H	 1.2603712491	 0.1534765827	-2.4700397186	 0.126803
H	 0.1037881006	-0.9672201744	-3.1922783629	 0.134397
H	-0.4370280387	 0.6140257284	-2.619754093	 0.126509
H	-0.5533806159	-2.9464054484	-1.5076341767	 0.087889
H	-0.8478612876	-3.1274794087	 1.1925031134	 0.090099
H	-0.9717939035	 0.3021097331	 2.732615325	 0.111027
H	-0.7190109925	-1.384378139	 3.1905639556	 0.104841
H	 1.5899997415	-0.8308716563	 2.8412650958	 0.279698
94.9691	122.7219	152.628	170.4266	193.8787	237.8639	280.4093	308.4067	377.2102	419.2291	469.7103	591.4117	639.6268	670.9762	723.3829	752.0583	770.3499	815.8328	951.9164	971.9568	1012.3381	1022.3593	1047.4907	1060.5442	1153.9104	1173.3597	1186.3822	1224.7838	1246.3509	1334.6601	1351.8116	1404.0322	1414.8115	1420.8423	1443.8115	1477.9488	1480.7603	1498.5391	1504.5188	1512.2099	1521.0433	1542.6072	1610.1048	3008.5225	3013.8002	3025.1091	3052.9728	3056.791	3105.1293	3121.7059	3150.9874	3233.197	3249.0742	3801.6108
CN1C(C)=CC=C1CO	Cn1c(C)ccc1CO	
InChI=1S/C7H11NO/c1-6-3-4-7(5-9)8(6)2/h3-4,9H,5H2,1-2H3	InChI=1S/C7H11NO/c1-6-3-4-7(5-9)8(6)2/h3-4,9H,5H2,1-2H3
