19
gdb 103205	2.82356	1.7312	1.37648	1.8924	73.68	-0.2305	0.077	0.3075	997.6358	0.157644	-422.943702	-422.935439	-422.934494	-422.976361	31.949	
C	 0.2376834267	 1.2606905309	-0.2208692883	-0.254199
O	-0.1032257302	-0.0600205339	 0.1439537479	-0.294179
C	 0.6280684495	-0.6036091336	 1.2174344075	 0.461151
C	 0.0915444219	-0.1227624438	 2.5654752984	-0.45034
C	 0.7982718591	-2.1152615115	 1.1204034767	-0.179386
C	 2.03700181	-2.3099777635	 0.2355474242	 0.079168
O	 2.4859362373	-1.0271486395	-0.2086102104	-0.285684
C	 2.1971880368	-0.5626329956	 1.1336173447	-0.029734
C	 2.2148247552	-2.0323898402	 1.6871111545	-0.146468
H	 1.2799037513	 1.3281498022	-0.5596880653	 0.122459
H	-0.4168126255	 1.5365817284	-1.0512342758	 0.12548
H	 0.0796824221	 1.981337809	 0.5951972578	 0.098261
H	-0.9635626534	-0.3931774616	 2.6655765946	 0.126518
H	 0.6435293765	-0.5648124417	 3.3994266352	 0.119746
H	 0.168495176	 0.9661242807	 2.6503676352	 0.117076
H	 0.0519411758	-2.8839472936	 1.2748510589	 0.092151
H	 2.2313086649	-3.1800298597	-0.3766133247	 0.113386
H	 2.7924321896	 0.2926204969	 1.4476735744	 0.083586
H	 2.7132840663	-2.5319731699	 2.5048701147	 0.101008
77.6171	169.1484	198.0716	214.556	238.8333	291.9295	359.5837	435.1528	572.693	583.6081	660.1816	774.4898	783.4382	793.795	835.6258	865.0515	907.2025	931.8656	954.0553	980.2382	1024.4446	1032.1235	1051.7455	1069.3104	1096.8557	1136.3734	1148.1794	1174.2701	1186.6049	1192.482	1205.1798	1231.5121	1251.2888	1340.4328	1367.298	1405.3728	1475.5252	1486.2601	1496.2101	1497.8381	1506.648	2988.1639	3040.2749	3048.1154	3105.9362	3113.4958	3119.6838	3140.6039	3200.3121	3211.2001	3226.7927
COC1(C)C2C3OC1C23	CO[C@@]1(C)[C@H]2[C@H]3O[C@@H]1[C@@H]23	
InChI=1S/C7H10O2/c1-7(8-2)4-3-5(4)9-6(3)7/h3-6H,1-2H3	InChI=1S/C7H10O2/c1-7(8-2)4-3-5(4)9-6(3)7/h3-6H,1-2H3/t3-,4+,5-,6+,7-/m0/s1
