20
gdb 70626	2.36472	1.84257	1.31133	1.341	78.1	-0.2344	0.0613	0.2957	1034.0124	0.172599	-403.11993	-403.111972	-403.111028	-403.151887	32.457	
O	-0.5884844252	 1.1658404671	 0.0906036047	-0.468765
C	-0.1190425211	-0.1502452549	 0.0469850027	 0.32781
C	-0.4153489271	-1.0365547774	 1.2219287934	-0.324437
C	 1.0222786005	-0.6697168144	 0.8941943353	-0.117414
C	 1.8366452388	-1.6441573586	 0.0541294718	-0.221861
C	 0.9173397112	-2.0126249339	-1.1410269927	-0.310626
C	-0.0243640128	-0.8229293581	-1.3054779593	 0.31108
C	-1.12197771	-0.7559384732	-2.2919526048	-0.300747
N	 0.1221507492	 0.0198208662	-2.5043834466	-0.37117
H	 0.1576228094	 1.7555652206	-0.0627794777	 0.28728
H	-0.8478788638	-0.5335257794	 2.0793160239	 0.119555
H	-0.7720258741	-2.0486527377	 1.0604887272	 0.113254
H	 1.5333714472	-0.0097126865	 1.5874296963	 0.084084
H	 2.7422367876	-1.1412684286	-0.3039484481	 0.104594
H	 2.1575904361	-2.5290175379	 0.6135157632	 0.099398
H	 1.4748127126	-2.1974134113	-2.0613218999	 0.117084
H	 0.342702126	-2.9179847459	-0.917735659	 0.105388
H	-1.2783628778	-1.5712696032	-2.9936158138	 0.111461
H	-2.0204801297	-0.211994447	-2.0121909899	 0.117872
H	-0.0717161868	 0.9873059639	-2.2494619165	 0.216161
107.334	218.5352	240.7188	258.5534	336.9066	363.7421	397.8464	433.5427	469.6749	554.1175	612.1126	652.5086	786.9024	810.2912	839.375	887.8486	902.2051	922.9837	938.7304	952.5582	970.7854	994.5204	1043.9349	1056.3029	1079.3891	1089.4053	1104.6148	1119.5859	1189.325	1211.6758	1230.6543	1255.5653	1278.7531	1301.9167	1312.9811	1336.8501	1348.546	1401.4146	1411.8613	1478.6879	1486.9485	1504.2327	1508.6273	3037.1427	3047.7107	3076.4287	3103.3465	3113.8582	3131.5816	3164.0251	3189.9781	3222.2515	3472.5946	3800.1171
OC12CC1CCC21CN1	O[C@]12C[C@H]1CC[C@]12CN1	
InChI=1S/C7H11NO/c9-7-3-5(7)1-2-6(7)4-8-6/h5,8-9H,1-4H2	InChI=1S/C7H11NO/c9-7-3-5(7)1-2-6(7)4-8-6/h5,8-9H,1-4H2/t5-,6-,7-/m1/s1
