14
gdb 130353	3.55451	1.10018	0.84124	6.1733	78.3	-0.1916	-0.0379	0.1537	1277.3992	0.101136	-466.170053	-466.161524	-466.16058	-466.203411	30.679	
N	-0.0024690429	 1.3682800337	 0.089338077	-0.49679
C	-0.0321425748	 0.0174136647	-0.0011396448	 0.114187
N	-1.1419160341	-0.6344603615	 0.013817879	-0.370114
C	-1.133594758	-1.9953097147	-0.0204206326	 0.432332
C	-2.1930222744	-2.8680876938	-0.0616863417	 0.173836
N	-3.5546507118	-2.6102452124	-0.1584521048	-0.599791
N	-1.6772267766	-4.1318533451	-0.0677979591	-0.173507
N	-0.40855801	-4.101907387	-0.0346959646	-0.042802
O	-0.0058044554	-2.7414980709	-0.0103827594	-0.230387
H	 0.8431010885	 1.8673019502	-0.1220425707	 0.271883
H	-0.873929517	 1.8707423713	 0.0271648642	 0.270141
H	 0.9502341296	-0.4573958111	-0.0585851885	 0.138331
H	-3.7885599346	-1.6830595018	 0.1713806264	 0.255737
H	-4.1152338983	-3.3151988915	 0.3021787796	 0.256943
98.7541	128.2625	148.401	204.1618	266.9243	288.7341	303.689	405.142	422.4283	532.097	587.5745	664.1486	678.8245	711.8299	732.4107	781.8438	827.273	1001.7481	1009.6193	1075.9963	1110.3361	1207.1592	1307.1641	1318.3345	1382.7967	1428.4433	1469.0381	1618.5143	1630.0893	1695.6005	1720.7863	3106.223	3543.4958	3603.3425	3643.3031	3739.0034
NC=NC1=C(N)N=NO1	NC=Nc1c(N)nno1	
InChI=1S/C3H5N5O/c4-1-6-3-2(5)7-8-9-3/h1H,5H2,(H2,4,6)	InChI=1S/C3H5N5O/c4-1-6-3-2(5)7-8-9-3/h1H,5H2,(H2,4,6)
