20
gdb 6139	2.89849	1.77797	1.50828	2.2227	71.05	-0.2408	0.0636	0.3044	969.5916	0.174056	-386.137171	-386.127742	-386.126798	-386.170803	34.889	
C	-0.256997715	 1.1543220341	-1.3752876529	-0.413581
C	 0.3135142154	-0.1279921384	-0.8035479483	 0.130215
O	 1.7001411224	-0.331124947	-1.1554110708	-0.343324
C	 2.1030856589	-0.4865913837	 0.2398993146	 0.407194
C	 2.5439834175	-1.9216114544	 0.5072119657	-0.428709
C	 3.1759459432	 0.5251514317	 0.610555629	-0.420495
C	 0.6574403842	-0.1686163037	 0.7109790207	-0.003576
O	 0.5721173192	 1.0444791566	 1.4238630186	-0.419989
H	 0.2683829192	 2.0263670767	-0.9798560542	 0.131894
H	-0.1588951967	 1.1476518005	-2.4650625132	 0.12734
H	-1.3225488941	 1.2466756447	-1.1339947121	 0.103048
H	-0.2927559108	-0.9883532749	-1.1236797354	 0.06335
H	 3.4457308155	-2.1531497247	-0.0682701196	 0.123524
H	 2.7660549236	-2.0689128395	 1.5697177594	 0.114776
H	 1.764294141	-2.6316502184	 0.2149937173	 0.113684
H	 2.8275446442	 1.5448619132	 0.4435671601	 0.130468
H	 3.4592889711	 0.4260815536	 1.6629515132	 0.115071
H	 4.0637491343	 0.3500141684	-0.0056039757	 0.116428
H	 0.1774731724	-0.9848469213	 1.2657826042	 0.064226
H	-0.3497797356	 1.1986131364	 1.6522096892	 0.288457
51.1147	173.0698	197.3505	217.5557	230.6195	243.6112	255.2907	293.4353	330.9886	397.5609	423.2898	509.9559	549.8313	681.3239	793.9908	841.4992	878.4602	924.035	933.605	978.6959	998.1839	1012.1799	1088.8907	1128.6436	1152.9554	1174.558	1191.2775	1256.7103	1272.7295	1302.926	1327.1995	1381.9403	1396.9572	1402.216	1410.3933	1435.7783	1473.2103	1475.9315	1484.8485	1490.1806	1495.537	1503.0472	2984.7981	3016.8956	3031.9083	3034.9217	3044.424	3101.8105	3102.902	3108.7815	3112.8668	3132.4652	3145.2079	3823.2202
CC1OC(C)(C)C1O	C[C@H]1OC(C)(C)[C@H]1O	
InChI=1S/C6H12O2/c1-4-5(7)6(2,3)8-4/h4-5,7H,1-3H3	InChI=1S/C6H12O2/c1-4-5(7)6(2,3)8-4/h4-5,7H,1-3H3/t4-,5+/m1/s1
