16
gdb 99412	2.25482	0.98117	0.71069	5.1645	76.45	-0.2436	-0.051	0.1926	1525.3536	0.121261	-434.080435	-434.070085	-434.069141	-434.117511	34.045	
C	 0.0255799394	 1.4051970764	 0.0298102835	-0.318463
N	-0.0281188677	-0.0412002894	-0.0611183041	-0.33233
C	-1.2164149721	-0.7052134292	 0.0378791858	 0.324934
N	-2.3349266049	-0.0930741367	 0.1020609925	-0.317396
C	-3.5815740977	-0.8156184091	 0.1537800212	-0.261625
C	-4.4922868522	-0.2289917579	 1.228907069	 0.159121
O	-5.4576306436	-0.795721593	 1.6654699463	-0.233857
C	-1.0709352402	-2.1576289914	 0.0323235598	 0.231929
N	-0.9778194826	-3.3099544088	 0.0402874076	-0.325995
H	 1.0571175785	 1.7258176106	-0.1239781902	 0.132417
H	-0.6088425069	 1.850345166	-0.7409740553	 0.155458
H	-0.3276872663	 1.7680819592	 1.0028307985	 0.140001
H	 0.8134238448	-0.5701702479	 0.0918294928	 0.267902
H	-4.1191844523	-0.6814749016	-0.7987387362	 0.144811
H	-3.4959644873	-1.8993702874	 0.3176714692	 0.143971
H	-4.1927631989	 0.7875318502	 1.5672530596	 0.089122
41.2961	55.1151	99.4208	118.5397	141.604	154.369	199.5651	294.1964	323.3135	368.9768	385.1569	485.6164	557.4012	634.0305	707.0257	725.9816	832.5215	1035.9421	1058.2138	1081.2244	1112.5806	1154.2035	1209.1911	1239.6786	1294.5171	1335.6451	1402.6957	1451.8652	1456.8854	1472.9235	1506.153	1543.1905	1714.8921	1842.4	2346.6942	2894.9052	2982.4936	3029.1352	3030.4605	3098.2743	3144.2775	3664.6585
CNC(=NCC=O)C#N	CNC(=NCC=O)C#N	
InChI=1S/C5H7N3O/c1-7-5(4-6)8-2-3-9/h3H,2H2,1H3,(H,7,8)	InChI=1S/C5H7N3O/c1-7-5(4-6)8-2-3-9/h3H,2H2,1H3,(H,7,8)
