16
gdb 16651	3.40951	2.19855	1.49955	4.0554	65.62	-0.2321	0.0215	0.2537	843.1565	0.132632	-379.934648	-379.927536	-379.926592	-379.965954	26.458	
C	-0.0447985684	 1.3943481479	-0.1343842013	-0.34205
N	-0.012159903	-0.0425662821	-0.0162437569	-0.083298
C	-1.2230814635	-0.847670174	 0.02329474	-0.165436
C	-0.7031799703	-2.2774921905	 0.0121409809	-0.04969
N	 0.0594213206	-2.5796836614	-1.2096198292	-0.329865
C	 0.7759615518	-2.2147948753	 0.0433004744	-0.176366
C	 1.1611822195	-0.7538325352	 0.0517221885	 0.461948
O	 2.279136215	-0.285878298	 0.1174850199	-0.402177
H	 0.9874935814	 1.7484342102	-0.1228502343	 0.165631
H	-0.5254535557	 1.7073448739	-1.0699282864	 0.124683
H	-0.5902066046	 1.8494609416	 0.7022991134	 0.119712
H	-1.8034299821	-0.641421039	 0.9342936651	 0.105884
H	-1.8642819963	-0.6429435459	-0.8439825008	 0.118028
H	-1.2672198833	-3.0581470846	 0.5084261504	 0.102502
H	 0.1157463083	-3.5902793486	-1.3230717097	 0.238184
H	 1.4186532407	-2.9329872691	 0.535868576	 0.112312
129.5514	152.4977	181.1513	282.1675	303.2176	407.2524	457.4866	623.6541	656.7188	767.0226	789.9805	829.1217	870.1782	895.4816	960.2906	1008.6377	1025.5955	1070.5165	1118.0006	1148.	1159.2839	1167.7592	1227.659	1257.1517	1294.2491	1313.001	1363.7716	1409.6733	1432.8799	1452.3188	1491.9031	1503.5304	1533.9501	1812.2806	2997.0114	3011.461	3037.4024	3058.2789	3142.0379	3184.665	3205.5622	3486.3448
CN1CC2NC2C1=O	CN1C[C@H]2N[C@H]2C1=O	
InChI=1S/C5H8N2O/c1-7-2-3-4(6-3)5(7)8/h3-4,6H,2H2,1H3	InChI=1S/C5H8N2O/c1-7-2-3-4(6-3)5(7)8/h3-4,6H,2H2,1H3/t3-,4-/m1/s1
