12
gdb 50810	4.17815	0.96366	0.78305	3.1727	65.77	-0.2633	-0.114	0.1493	1322.5233	0.074671	-472.63764	-472.62882	-472.627876	-472.672204	29.75	
O	-0.4273809109	 0.1111961997	 0.0074080478	-0.245424
C	-0.1102890015	 1.2666742152	 0.0096709912	 0.168681
N	 1.1952421727	 1.7574582113	-0.0004621764	-0.368042
C	 2.3733715538	 1.0332453468	-0.0148462458	 0.364958
O	 2.5010285121	-0.1623669935	-0.0214776021	-0.294754
C	 3.5918520447	 1.9927380244	-0.0219578652	 0.123303
O	 3.4347107927	 3.1962875594	-0.0144985059	-0.297517
C	 4.8777999469	 1.3515345367	-0.0375944079	 0.305981
C	 5.9647609848	 0.8355580607	-0.0506510066	-0.36512
H	-0.8340809565	 2.1049583877	 0.0202191082	 0.099794
H	 1.3304098067	 2.7623828018	 0.0027713658	 0.27875
H	 6.9228196744	 0.3735788098	-0.062022733	 0.229391
52.5118	86.6884	112.1418	193.5176	213.3484	242.8198	268.0728	376.2253	495.2254	500.8797	604.4423	660.5577	699.1562	731.0063	739.804	836.7045	942.2503	1001.703	1030.7661	1152.8597	1229.2888	1440.0855	1520.2155	1753.6415	1804.9436	1870.9655	2220.4199	2946.283	3490.1759	3559.9202
O=CNC(=O)C(=O)C#C	O=CNC(=O)C(=O)C#C	
InChI=1S/C5H3NO3/c1-2-4(8)5(9)6-3-7/h1,3H,(H,6,7,9)	InChI=1S/C5H3NO3/c1-2-4(8)5(9)6-3-7/h1,3H,(H,6,7,9)
