17
gdb 127141	4.08736	1.11826	0.89163	2.3063	73.16	-0.2047	0.0268	0.2315	1281.145	0.136491	-451.332562	-451.323506	-451.322562	-451.366342	32.632	
C	-0.1038743778	 1.4237282058	-0.0237198455	-0.340674
N	 0.1893822948	 0.0017014493	-0.0453341041	-0.162004
C	 0.0541338163	-0.7187109988	 1.2076054618	-0.332747
C	 0.0219885239	-0.6998840996	-1.2025811777	 0.489976
N	-0.1171642463	-2.0134850804	-1.222651553	-0.267641
O	-0.173035584	-2.2874527731	-2.6308606485	-0.220223
C	-0.0894744523	-1.1052990782	-3.2346242452	 0.511539
N	-0.1852581534	-1.0824776004	-4.5907253326	-0.596222
N	 0.032336136	-0.0823265368	-2.4367634524	-0.426538
H	 0.5315930523	 1.9121443253	 0.7223117376	 0.120426
H	 0.1027452107	 1.8502532156	-1.004177373	 0.162825
H	-1.1546485578	 1.6290540318	 0.2345803179	 0.11317
H	-0.9976276925	-0.8735445723	 1.4924083582	 0.118646
H	 0.5293321851	-1.6968779506	 1.1187348003	 0.159815
H	 0.5483718409	-0.1488592734	 1.9998384723	 0.118784
H	 0.0316605039	-1.9437082165	-5.0667110975	 0.273982
H	 0.1585327102	-0.2432645277	-5.0290349389	 0.276884
88.3992	113.2742	166.7186	178.5906	212.4585	259.7171	350.1101	364.2618	368.5358	407.5688	486.3692	553.2888	600.6881	718.0467	766.4845	789.1766	904.3507	950.3692	1037.0497	1053.867	1089.705	1129.9978	1133.0128	1177.8494	1259.598	1291.3979	1390.2892	1445.1892	1455.4126	1481.6268	1486.1126	1497.5892	1504.882	1524.2503	1605.9744	1635.5953	1692.2318	2982.311	2994.0928	3068.9767	3080.1348	3140.4038	3162.6036	3599.5337	3714.3536
CN(C)C1=NOC(N)=N1	CN(C)c1noc(N)n1	
InChI=1S/C4H8N4O/c1-8(2)4-6-3(5)9-7-4/h1-2H3,(H2,5,6,7)	InChI=1S/C4H8N4O/c1-8(2)4-6-3(5)9-7-4/h1-2H3,(H2,5,6,7)
