21
gdb 84592	2.26096	1.96878	1.33459	1.5603	82.58	-0.2406	0.0076	0.2482	1033.9457	0.183921	-387.090634	-387.082551	-387.081606	-387.122447	33.396	
C	-0.0814346577	 1.5414885738	 0.0434000864	-0.48201
C	 0.0126252369	 0.0263363933	 0.0277298583	 0.299186
C	 1.0901470636	-0.6549647585	-0.8735170926	-0.25565
C	 1.1295841698	-1.7900677496	 0.1960510485	-0.067981
C	 0.6955155757	-0.7044083431	 1.2271509806	-0.25667
C	-0.0489470164	-2.7040847758	-0.0510574048	-0.059845
C	-1.235798176	-2.1428717561	-0.2857546252	-0.122739
C	-1.3597539781	-0.6354278206	-0.2595689726	 0.077651
O	-2.3681876267	-0.2179534239	 0.6639552578	-0.442382
H	 0.8855519029	 1.9926359151	 0.2896606285	 0.102863
H	-0.3908039785	 1.9247859527	-0.9367689092	 0.11086
H	-0.820551473	 1.8773009346	 0.7760636831	 0.128286
H	 0.8128316277	-0.9366991076	-1.8929640211	 0.094378
H	 2.0129458314	-0.0664115653	-0.891439793	 0.092419
H	 2.0645366353	-2.3268413113	 0.3607417821	 0.060056
H	 1.5471844268	-0.1269730727	 1.5983363568	 0.0944
H	 0.0810401183	-1.0281499416	 2.0727788296	 0.07802
H	 0.0905701007	-3.781020308	-0.0437139977	 0.091336
H	-2.138915379	-2.7170609925	-0.4695784289	 0.093856
H	-1.7227816782	-0.2684921365	-1.2297685433	 0.087244
H	-2.1858275552	-0.6578629361	 1.5017996367	 0.276723
139.7406	216.2729	258.6318	283.5903	311.9149	338.6152	392.2251	413.6364	461.0721	484.6135	588.2875	664.4674	695.6325	751.9409	839.4088	854.3102	866.4463	896.8676	911.371	967.1003	982.1457	993.7625	1012.9374	1038.4668	1061.7058	1086.3009	1105.1066	1128.2231	1176.7454	1200.5272	1208.2212	1247.0354	1253.095	1270.1454	1288.6981	1333.0161	1363.4934	1387.8575	1404.5392	1418.3789	1476.0059	1488.2511	1496.5521	1505.9154	1695.1428	3012.265	3025.1592	3040.37	3046.9024	3087.1932	3095.9691	3099.6698	3103.8097	3114.34	3161.9328	3185.5452	3800.4211
CC12CC(C1)C=CC2O	C[C@@]12C[C@@H](C1)C=C[C@H]2O	
InChI=1S/C8H12O/c1-8-4-6(5-8)2-3-7(8)9/h2-3,6-7,9H,4-5H2,1H3	InChI=1S/C8H12O/c1-8-4-6(5-8)2-3-7(8)9/h2-3,6-7,9H,4-5H2,1H3/t6-,7-,8+/m1/s1
