19
gdb 126918	6.62045	0.77299	0.70389	3.7465	82.1	-0.2019	0.0255	0.2273	1641.2987	0.158744	-419.215108	-419.205614	-419.20467	-419.250176	34.023	
C	-0.1420648106	 1.4625637193	 0.0476750927	-0.399026
C	 0.1536629741	-0.0328389913	 0.0574283787	-0.121559
N	 0.6890658465	-0.4524517888	-1.2364959845	-0.40791
C	 0.8710176221	-1.7738033332	-1.5323087984	 0.557053
C	 1.5959089852	-2.4206363134	-2.499271021	-0.482131
C	 1.2825692902	-3.7893609849	-2.2853974744	 0.418805
C	 1.7769218902	-4.9792506106	-3.0451291561	-0.492837
N	 0.453046696	-3.9646852866	-1.2826896388	-0.228798
O	 0.1897276867	-2.6593133544	-0.7931150358	-0.227111
H	 0.7683527454	 2.0474620954	-0.1290383697	 0.115792
H	-0.8646820948	 1.7126871803	-0.7342805191	 0.132931
H	-0.5510952971	 1.7741235337	 1.0124875719	 0.128475
H	 0.8449121486	-0.2791778117	 0.8778853029	 0.108127
H	-0.7625426718	-0.6008855756	 0.2367795081	 0.142036
H	 1.3974387425	 0.1532866748	-1.6231535385	 0.245714
H	 2.2410977808	-1.9895440157	-3.2459546017	 0.097577
H	 2.8687794082	-5.0474973067	-2.9982038502	 0.132704
H	 1.350845305	-5.8935834753	-2.6277841175	 0.146426
H	 1.4975476227	-4.9123045055	-4.1017424985	 0.133733
48.1719	73.0968	130.0034	132.0595	198.347	259.5609	300.8566	336.0321	370.6743	451.4228	522.0195	648.1885	655.1133	712.881	734.5842	780.0826	811.721	900.7655	928.4988	989.6558	1025.9905	1042.1802	1065.1005	1074.0547	1138.4609	1156.7031	1200.906	1292.3241	1345.7728	1376.8904	1404.3622	1415.742	1445.2417	1474.6977	1481.8435	1491.6498	1498.3102	1507.102	1525.7666	1565.708	1662.1534	2988.1964	3034.4447	3041.1177	3088.9128	3096.7195	3109.8628	3125.3576	3138.2844	3271.141	3611.8316
CCNC1=CC(C)=NO1	CCNc1cc(C)no1	
InChI=1S/C6H10N2O/c1-3-7-6-4-5(2)8-9-6/h4,7H,3H2,1-2H3	InChI=1S/C6H10N2O/c1-3-7-6-4-5(2)8-9-6/h4,7H,3H2,1-2H3
