20
gdb 95459	2.80032	1.17133	0.93721	4.0063	85.18	-0.2495	0.0041	0.2536	1299.5695	0.171606	-366.051134	-366.042094	-366.04115	-366.085381	33.519	
C	-0.0101521374	 1.5983888352	-0.0785782096	-0.404645
C	 0.0595200236	 0.0698117458	 0.0142823821	-0.064457
C	 0.7470527872	-0.5917996662	-1.2090439219	-0.214463
C	 1.4721208788	-1.8459278393	-0.6645110791	-0.25628
C	 1.6085021056	-1.5382153353	 0.8051474233	-0.166306
C	 0.8574533727	-0.5021468804	 1.179025823	 0.33351
C	 0.706896877	-0.0115294125	 2.6003710924	-0.450948
C	 1.3539243721	 1.2816739276	 2.8493292969	 0.269402
N	 1.873402588	 2.2946951794	 3.0477352949	-0.316651
H	 0.9906742924	 2.0377351741	-0.1352328734	 0.132605
H	-0.5633594367	 1.8965219226	-0.9753186238	 0.114048
H	-0.5188532428	 2.0411299845	 0.7833505722	 0.119935
H	-0.9740412041	-0.3037747881	 0.1040892259	 0.077039
H	 0.043564037	-0.8174754564	-2.0145501971	 0.098569
H	 1.4882577602	 0.1073853038	-1.6121685406	 0.107871
H	 0.8787532792	-2.7600495391	-0.8097423286	 0.108687
H	 2.4347255871	-2.025485394	-1.1556978389	 0.108914
H	 2.218042015	-2.1340770364	 1.4772886515	 0.092961
H	-0.3548414714	 0.0889729288	 2.8624783627	 0.15351
H	 1.1362851266	-0.739817904	 3.2965487081	 0.156701
54.9374	88.7746	126.8862	239.2766	243.7217	259.8133	339.2899	367.9007	388.675	449.4512	561.3973	603.3083	725.7808	771.2389	821.8395	855.0481	907.011	922.0138	939.1259	955.2026	974.0621	1022.7098	1056.197	1102.2239	1117.0267	1166.162	1206.6582	1211.8167	1240.4869	1290.7238	1317.0693	1320.7808	1336.1384	1341.1792	1373.7987	1415.7726	1455.6076	1483.3295	1493.5403	1498.446	1501.5339	1715.3678	2359.6113	2961.0272	3007.3031	3025.6059	3034.5866	3043.054	3062.0752	3078.4641	3098.6471	3101.9376	3110.9049	3181.6729
CC1CCC=C1CC#N	C[C@H]1CCC=C1CC#N	
InChI=1S/C8H11N/c1-7-3-2-4-8(7)5-6-9/h4,7H,2-3,5H2,1H3	InChI=1S/C8H11N/c1-7-3-2-4-8(7)5-6-9/h4,7H,2-3,5H2,1H3/t7-/m0/s1
