19
gdb 65629	3.29071	1.27213	1.15382	1.0092	81.32	-0.2532	0.0301	0.2833	1136.2052	0.158064	-385.825003	-385.816361	-385.815417	-385.858134	33.742	
O	-0.0955379434	 1.3279599327	 0.13286317	-0.464383
C	 0.0206906561	-0.0798694761	 0.0262534412	 0.233221
C	 0.3377103768	-0.875100187	 1.3481847961	-0.304601
C	-0.9345827211	-1.7431644133	 1.1391507979	-0.0017
C	-2.1653822389	-1.2806322278	 1.9520641931	-0.221375
C	-2.454377108	-0.1891412378	 0.87583	-0.245324
C	-1.3559674858	-0.7989920627	-0.0431610454	-0.050568
C	 0.9066808594	-0.4515580129	-1.0726698086	 0.272732
C	 1.6575312622	-0.7401006656	-1.9672862837	-0.46542
H	 0.7805662733	 1.7095165977	 0.0130013358	 0.283282
H	 1.2895897616	-1.4082711216	 1.3434037488	 0.107769
H	 0.2923580161	-0.2251925927	 2.2265228295	 0.104087
H	-0.7645820346	-2.8124533222	 1.014963232	 0.0662
H	-2.949900625	-2.0413366781	 1.9916274897	 0.098191
H	-1.9707797334	-0.9362752538	 2.9724727838	 0.094476
H	-3.4589701737	-0.2218185194	 0.4499636509	 0.098196
H	-2.244271573	 0.8363613169	 1.1821858056	 0.125385
H	-1.6725248661	-1.1481345154	-1.0253514426	 0.072413
H	 2.3118610575	-0.9959651809	-2.7637932641	 0.197421
66.2405	136.7249	167.3499	234.0182	256.2205	331.0865	380.6333	427.3266	484.7639	542.9388	612.4435	634.9502	661.3872	732.9497	739.3049	766.8036	838.7095	867.5754	899.6903	933.4121	955.4122	968.8433	1020.1125	1042.3272	1084.5426	1101.5619	1147.2084	1153.9042	1205.6024	1229.5893	1241.8898	1246.3186	1266.4636	1286.0122	1288.8347	1313.4071	1364.8023	1469.0442	1479.6771	1497.579	2225.7082	3046.9658	3060.6661	3078.5673	3092.6943	3104.4705	3115.0675	3128.3323	3137.2312	3500.2102	3814.6489
OC1(CC2CCC12)C#C	O[C@]1(C[C@H]2CC[C@@H]12)C#C	
InChI=1S/C8H10O/c1-2-8(9)5-6-3-4-7(6)8/h1,6-7,9H,3-5H2	InChI=1S/C8H10O/c1-2-8(9)5-6-3-4-7(6)8/h1,6-7,9H,3-5H2/t6-,7-,8+/m1/s1
