18
gdb 88272	3.25255	1.07127	0.94678	2.3257	78.01	-0.2267	-0.0607	0.1661	1293.847	0.147061	-435.256561	-435.247233	-435.246288	-435.290969	34.408	
C	-0.7252738386	 1.0440138088	 0.3622834731	-0.325799
N	 0.1102654176	-0.1184083439	 0.0762913549	-0.079371
C	 1.3504555907	 0.0778807679	-0.6242209891	-0.238004
C	 1.3715774776	-0.3486338778	 0.8202049344	-0.106307
C	 1.8768829929	 0.6303168087	 1.8164889619	 0.372862
O	 1.8364356661	 1.8410411811	 1.67248478	-0.355618
C	 2.4682789892	 0.0625333182	 3.1034706893	 0.263908
N	 2.9980597594	 1.0399799987	 3.8928535003	-0.535992
N	 2.4332671856	-1.2049013362	 3.290985117	-0.503551
H	-0.16825531	 1.9634804912	 0.574752845	 0.140779
H	-1.3666472032	 1.2079041608	-0.5093690721	 0.12427
H	-1.3684801848	 0.814078029	 1.217309392	 0.123504
H	 1.6023165772	-0.6601807161	-1.3817606107	 0.122572
H	 1.6756043177	 1.0975259421	-0.8250031255	 0.129081
H	 1.546835729	-1.3844443933	 1.0777617961	 0.135046
H	 2.7775845983	 1.9892848233	 3.6316780565	 0.271509
H	 3.2227384687	 0.8456657647	 4.8532791352	 0.253615
H	 2.8559890667	-1.4663947772	 4.1846573019	 0.207495
57.792	73.2439	182.9477	191.982	244.8796	282.8932	317.4154	384.573	392.778	400.0152	487.2438	526.164	551.4725	628.2868	721.2394	776.2009	849.1809	870.0019	890.7098	1001.7284	1024.6211	1062.2952	1092.5296	1113.3375	1128.8167	1142.8622	1154.8764	1169.493	1217.3596	1325.39	1387.9625	1440.4224	1444.2539	1486.1686	1495.3655	1509.4951	1597.0009	1712.1104	1754.4711	3025.0753	3093.0506	3096.2125	3105.7935	3184.6557	3213.8185	3441.7171	3583.4871	3718.9242
CN1CC1C(=O)C(N)=N	CN1C[C@H]1C(=O)C(=N)N	
InChI=1S/C5H9N3O/c1-8-2-3(8)4(9)5(6)7/h3H,2H2,1H3,(H3,6,7)	InChI=1S/C5H9N3O/c1-8-2-3(8)4(9)5(6)7/h3H,2H2,1H3,(H3,6,7)/t3-,8?/m0/s1
