14
gdb 98510	2.88015	1.20491	0.93178	3.669	63.65	-0.2882	-0.0663	0.2218	1197.0698	0.097991	-473.808149	-473.799315	-473.798371	-473.842314	30.901	
O	-0.1150174559	 1.4375369859	-0.4914266081	-0.41718
C	-0.2775192087	 0.0693600622	-0.7027156158	-0.13241
C	-1.1716199454	-0.5413605286	 0.3622436401	 0.274252
O	-1.5324235639	 0.1033783842	 1.3177392199	-0.300187
C	-1.5718972006	-1.9932141982	 0.2028809224	 0.164297
C	-2.2916822353	-2.4142713759	-1.0306357963	-0.193898
O	-0.9215757594	-2.7198442994	-0.8430043472	-0.235731
C	-1.8197775664	-2.7213094409	 1.431910538	 0.271872
N	-2.0124517421	-3.3077484167	 2.4076787403	-0.311789
H	-0.4923245002	 1.6229392274	 0.3821399932	 0.300178
H	-0.6904631152	-0.121967462	-1.7033855472	 0.129132
H	 0.6802245174	-0.4790616386	-0.6665756781	 0.141818
H	-2.9806137566	-3.2524401362	-0.9566253981	 0.162374
H	-2.5163515677	-1.6661163132	-1.787919073	 0.147272
60.1493	97.7621	136.5327	197.4096	235.8181	264.0625	326.8558	378.99	422.1595	454.8683	522.0813	588.5311	609.6608	782.0009	852.855	890.5485	933.7129	998.9668	1022.0375	1136.7344	1144.1099	1170.2393	1239.08	1268.7623	1321.9558	1337.4663	1449.343	1472.0719	1516.9978	1807.3189	2370.1829	2967.4888	3022.0799	3101.1548	3202.4431	3710.5143
OCC(=O)C1(CO1)C#N	OCC(=O)[C@]1(CO1)C#N	
InChI=1S/C5H5NO3/c6-2-5(3-9-5)4(8)1-7/h7H,1,3H2	InChI=1S/C5H5NO3/c6-2-5(3-9-5)4(8)1-7/h7H,1,3H2/t5-/m1/s1
