14
gdb 77795	2.72291	1.36712	1.08546	3.1302	68.74	-0.2667	-0.0438	0.2229	1080.8604	0.099931	-436.681239	-436.673319	-436.672375	-436.713838	29.398	
O	-0.1475599432	 1.4090029936	 0.0012670681	-0.408256
C	-0.0719394487	 0.0234635794	 0.0391481233	 0.061433
C	-0.4303929987	-0.7890555412	 1.2704766924	-0.294937
C	-1.5550006434	-0.1074123617	 2.0099185252	 0.445814
O	-1.733274042	 0.1335708161	 3.1664403978	-0.302459
C	-2.4541323108	-0.0081130619	 0.7577904443	-0.406837
C	-1.3444641251	-0.7507281536	-0.0197762038	 0.157976
C	-1.5710409268	-1.8060574319	-0.9514232132	 0.20379
N	-1.7595017427	-2.6621880335	-1.7067497559	-0.334875
H	 0.5773591522	 1.7722218165	 0.5222226944	 0.304199
H	 0.7465056316	-0.4142437429	-0.5325367715	 0.129083
H	 0.213886231	-1.5782707568	 1.6385392926	 0.135781
H	-3.3589103775	-0.606908375	 0.8864349095	 0.154944
H	-2.7062698459	 0.9888961229	 0.3959966368	 0.154342
92.4379	152.564	163.7589	259.2179	269.7183	384.9006	441.8347	473.1588	504.8885	554.1889	587.2184	643.1798	670.904	760.5638	863.7442	913.4556	948.3133	990.7522	1054.4565	1087.9569	1104.4509	1133.8098	1204.8241	1219.8883	1239.7135	1300.8224	1322.0422	1438.4699	1473.0719	1900.006	2352.6144	3084.9043	3113.9997	3150.2761	3201.79	3806.8792
OC1C2C(=O)CC12C#N	O[C@H]1[C@H]2C(=O)C[C@@]12C#N	
InChI=1S/C6H5NO2/c7-2-6-1-3(8)4(6)5(6)9/h4-5,9H,1H2	InChI=1S/C6H5NO2/c7-2-6-1-3(8)4(6)5(6)9/h4-5,9H,1H2/t4-,5+,6+/m1/s1
