13
gdb 46347	4.44344	0.74999	0.6766	3.5841	81.49	-0.254	-0.0345	0.2195	1563.3588	0.087817	-419.39027	-419.382062	-419.381118	-419.423989	29.247	
O	-0.1328453084	 0.0675674507	-0.2758829475	-0.302599
C	-0.0469756664	 1.2195361963	-0.0192334397	 0.465923
O	-1.0337224453	 2.0866316068	 0.3592888737	-0.2285
C	-0.1011002751	 3.200498382	 0.5156053341	-0.082277
C	 1.0672535959	 2.3074930711	 0.0235656407	-0.423801
C	 2.1945600461	 2.085271101	 0.8917075068	 0.481888
C	 3.1358080186	 1.8965499224	 1.6284191977	-0.300993
C	 4.1917037584	 1.6851573973	 2.4586462332	 0.308947
C	 5.1298664883	 1.4993028845	 3.1954588831	-0.553194
H	-0.3755449897	 4.0334001169	-0.1330294578	 0.137256
H	-0.0383209368	 3.5122495951	 1.5584840522	 0.145387
H	 1.3898181079	 2.5557034967	-0.993324239	 0.152966
H	 5.9543366865	 1.331910159	 3.8435423726	 0.198996
70.3938	77.7535	159.2722	195.2177	258.1801	374.504	437.7565	498.5433	543.0775	553.1664	599.5244	604.2526	626.33	737.8564	791.2743	899.9695	943.3952	972.2355	1059.7057	1103.9747	1158.9168	1175.3201	1204.0063	1327.2269	1352.5532	1514.2684	1954.2521	2185.284	2363.3581	3060.1245	3086.7392	3155.5864	3503.1003
O=C1OCC1C#CC#C	O=C1OC[C@H]1C#CC#C	
InChI=1S/C7H4O2/c1-2-3-4-6-5-9-7(6)8/h1,6H,5H2	InChI=1S/C7H4O2/c1-2-3-4-6-5-9-7(6)8/h1,6H,5H2/t6-/m1/s1
