20
gdb 72143	2.56636	1.98332	1.7476	1.5858	76.35	-0.2081	0.0781	0.2862	912.5679	0.174453	-403.134934	-403.128142	-403.127198	-403.165561	28.947	
C	-0.0111118359	 1.5059451843	-0.0305245554	-0.512666
C	 0.0188440774	-0.0038818803	-0.0443840764	 0.318272
C	 0.5049890527	-0.7756602646	-1.2785168102	-0.24302
N	 0.3325753143	-2.1595442372	-0.7703001792	-0.116658
C	 1.1270208119	-2.0803726623	 0.4916528448	-0.191414
C	 0.65045458	-0.7731861341	 1.1617013366	 0.051766
O	-0.6547315207	-0.9949027594	 1.7532140898	-0.305252
C	-1.2351025072	-0.8039689413	 0.4381987373	 0.051762
C	-1.1038482792	-2.1167926671	-0.3643491129	-0.191414
H	 0.9898891628	 1.9235316057	-0.1881667093	 0.116942
H	-0.6610211002	 1.8965987006	-0.8218778724	 0.116941
H	-0.3846000358	 1.8840309962	 0.9264064387	 0.131951
H	-0.1095916463	-0.6093774985	-2.1690300203	 0.100643
H	 1.5523933731	-0.5822467989	-1.5313184535	 0.100643
H	 0.9473601179	-2.9502833597	 1.1271999434	 0.113115
H	 2.1907292304	-2.0412610226	 0.2323516575	 0.100581
H	 1.3493511906	-0.2910704649	 1.8501653908	 0.072057
H	-2.2284731709	-0.3494817648	 0.4773254602	 0.072057
H	-1.7218005101	-2.1051365035	-1.2689162166	 0.100581
H	-1.3706578147	-2.9881259172	 0.2377588671	 0.113114
227.4005	244.6775	245.1854	372.3802	398.3946	474.8495	488.0506	605.5443	633.1921	645.4191	794.9203	842.7529	849.2976	868.842	870.3991	912.82	930.2422	946.4463	972.2098	1001.2715	1006.7625	1011.4162	1046.4154	1102.8635	1131.8989	1168.0099	1178.6461	1214.1141	1224.7098	1261.2753	1277.4819	1282.1924	1289.5903	1309.4772	1330.7828	1350.6032	1377.3407	1414.8668	1469.9245	1477.0413	1493.4824	1499.7418	1505.5687	3024.9377	3041.2645	3042.317	3049.5243	3077.3387	3080.8794	3086.1059	3096.0541	3099.5213	3112.6258	3116.9455
CC12CN3CC1OC2C3	C[C@@]12CN3C[C@@H]1O[C@@H]2C3	
InChI=1S/C7H11NO/c1-7-4-8-2-5(7)9-6(7)3-8/h5-6H,2-4H2,1H3	InChI=1S/C7H11NO/c1-7-4-8-2-5(7)9-6(7)3-8/h5-6H,2-4H2,1H3/t5-,6+,7+
