16
gdb 12033	3.8039	1.73612	1.53274	1.278	69.99	-0.2529	0.0448	0.2977	873.3228	0.128451	-346.530745	-346.523128	-346.522184	-346.562174	29.408	
C	-0.0322231472	 1.5488813507	 0.0693020896	-0.455302
C	 0.0042428097	 0.0195545505	 0.0051012211	 0.118633
C	 1.1131562162	-0.6236019073	-0.939449648	-0.306667
C	 1.7393555342	-1.26683512	 0.3003871754	 0.050653
O	 2.0752577677	-0.2064884082	 1.2089921324	-0.250183
C	 0.732141816	-0.6829218925	 1.1929678596	-0.00495
C	-1.3104341459	-0.5555470839	-0.2270245863	 0.272633
C	-2.4005053177	-1.0352489708	-0.3961315431	-0.458769
H	 0.9622506285	 1.9266644083	 0.317584257	 0.136037
H	-0.3409792295	 1.9669495731	-0.8932979302	 0.124458
H	-0.7417776921	 1.8894789433	 0.8292178867	 0.124397
H	 0.6851943663	-1.3417973967	-1.6398827017	 0.123529
H	 1.7523687999	 0.0865199945	-1.4694934725	 0.11344
H	 2.3078910232	-2.1852544385	 0.3824414014	 0.107917
H	 0.2983929879	-1.027602406	 2.1244704866	 0.109535
H	-3.3637609674	-1.4538883767	-0.5521079179	 0.194638
131.1454	164.7789	214.6296	240.8029	293.5928	397.3677	487.062	508.2116	535.3792	623.2235	632.2922	635.5568	787.6317	832.1658	858.925	869.3056	921.8226	937.5526	988.8056	999.8085	1047.2792	1116.0807	1137.3316	1164.1455	1221.9866	1238.9026	1261.2273	1276.9454	1381.0777	1404.7215	1468.2143	1491.1414	1496.6535	2230.5659	3043.0229	3072.329	3113.4155	3131.7584	3140.8414	3184.0728	3199.9488	3501.9498
CC1(CC2OC12)C#C	C[C@]1(C[C@H]2O[C@@H]12)C#C	
InChI=1S/C7H8O/c1-3-7(2)4-5-6(7)8-5/h1,5-6H,4H2,2H3	InChI=1S/C7H8O/c1-3-7(2)4-5-6(7)8-5/h1,5-6H,4H2,2H3/t5-,6-,7-/m1/s1
