15
gdb 72317	2.67074	1.89318	1.2584	6.6813	78.92	-0.1845	-0.0669	0.1175	954.2548	0.11007	-453.82323	-453.815317	-453.814372	-453.85508	31.209	
N	-0.1418631034	 1.4768393033	-0.6146906164	-0.532055
C	-0.0847383774	 0.1655520542	-0.3881834893	 0.298165
C	 1.0089490028	-0.7421368813	-0.8978335737	-0.244934
N	 0.5857161202	-2.1236930234	-0.6827293634	-0.304003
C	-0.5855650208	-2.0425843587	-0.1764308003	 0.314957
O	-1.2590078994	-2.7968708608	 0.6661511338	-0.249387
C	-1.2487562055	-1.4225681201	 1.4096679555	-0.26105
C	-1.1896520469	-0.5941403582	 0.1072478304	 0.206391
O	-2.4300470356	-0.0389686209	-0.2362777006	-0.473418
H	 0.5444391717	 1.9518680224	-1.1772261291	 0.280083
H	-1.0143941775	 1.9500367729	-0.4296948111	 0.288228
H	 1.2076415472	-0.516704179	-1.956824159	 0.134895
H	 1.9586820285	-0.5842092838	-0.3680205249	 0.147157
H	-0.3401853549	-1.4172987937	 2.0255876683	 0.120086
H	-3.0015919691	-0.2761947131	 0.5093387699	 0.274886
113.7447	228.5386	251.4335	281.9649	304.9047	363.5399	409.8681	490.4211	505.0519	520.8569	558.3966	622.0316	631.4404	645.9284	710.3025	745.8366	804.8435	932.3832	950.013	952.9	1031.8392	1057.9673	1154.0989	1173.0082	1199.7511	1236.9445	1289.9679	1319.8515	1415.5439	1442.7194	1527.6898	1652.2987	1703.8408	2997.3492	3033.5723	3059.1463	3576.3598	3703.3816	3715.3226
NC12CN=C3OC1C23O	N[C]1C[N][C]2O[CH][C@@]12O	
InChI=1S/C5H6N2O2/c6-4-1-7-3-5(4,8)2(4)9-3/h2,8H,1,6H2	InChI=1S/C5H6N2O2/c6-3-1-7-4-5(3,8)2-9-4/h2,8H,1,6H2/t5-/m1/s1
