18
gdb 69399	4.04467	1.19473	1.04785	2.3125	77.26	-0.2281	-0.0285	0.1997	1164.2839	0.146334	-401.937124	-401.92871	-401.927765	-401.97064	31.463	
C	 0.0363236804	 1.5398680088	-0.0373734831	-0.480502
C	-0.0429775799	 0.0331523909	-0.0454809009	 0.309441
C	-0.9809448739	-0.7225991183	 0.8367844213	-0.290894
N	 0.4673360121	-0.7238775867	 1.127234624	-0.15408
C	 1.1956611596	-1.8953688417	 0.5923868269	-0.120603
C	 0.7280387986	-3.1991277187	 1.2280782181	 0.148322
O	 0.8606992151	-4.2815910208	 0.7204582766	-0.245287
C	 1.0551136428	-1.8306816681	-0.9143590146	-0.088892
C	 0.3790574937	-0.7368069101	-1.2588567301	-0.138561
H	 1.0437756909	 1.8812056496	-0.2969531163	 0.126013
H	-0.663782623	 1.9660292966	-0.7645179421	 0.120748
H	-0.2142225177	 1.9335886772	 0.9506069459	 0.130804
H	-1.5748800317	-0.1977646924	 1.5806640077	 0.116887
H	-1.4407028761	-1.6199529271	 0.4281793652	 0.120535
H	 2.2545144689	-1.802428203	 0.8907070021	 0.120302
H	 0.2668122234	-3.0726680622	 2.2327195175	 0.095873
H	 1.4304181158	-2.605575764	-1.569403935	 0.123051
H	 0.135131111	-0.42414776	-2.2671074033	 0.106841
42.3757	135.0587	161.111	191.1939	260.6103	307.6631	377.4724	459.05	494.6399	618.4546	630.1931	728.643	763.5461	780.3591	804.2056	819.589	914.3058	954.4531	959.5151	989.1619	1035.8556	1039.8857	1089.5925	1102.005	1116.4927	1132.3379	1166.959	1246.3872	1283.3192	1299.4322	1345.2582	1365.813	1407.6689	1415.3241	1485.131	1494.3452	1495.3238	1671.8062	1830.8563	2889.9186	2953.6421	3034.8484	3095.7383	3098.048	3123.5056	3185.853	3202.5265	3233.9008
CC12CN1C(C=O)C=C2	C[C@]12CN1[C@@H](C=O)C=C2	
InChI=1S/C7H9NO/c1-7-3-2-6(4-9)8(7)5-7/h2-4,6H,5H2,1H3	InChI=1S/C7H9NO/c1-7-3-2-6(4-9)8(7)5-7/h2-4,6H,5H2,1H3/t6-,7+,8?/m1/s1
