21
gdb 61827	2.12274	1.32816	0.944	2.922	80.36	-0.2276	0.0287	0.2562	1310.0752	0.181148	-420.401496	-420.391276	-420.390331	-420.43752	36.616	
C	-0.5485748161	 0.6157646458	-2.5023020198	-0.393463
C	-0.2237390761	-0.4345219168	-1.4318537362	-0.001866
N	 0.890824692	 0.0074631117	-0.5930847626	-0.274311
C	 2.0918999431	-0.626334744	-0.5509674291	 0.15831
O	 2.3841483475	-1.6226376624	-1.1807517553	-0.331242
C	-1.4556908408	-0.7373066636	-0.5925740821	 0.017654
C	-2.3762662553	-1.8446053456	-0.9852282426	-0.252634
N	-1.6078746772	-1.9195582328	 0.2484364731	-0.087252
C	-0.5441803847	-2.9127941673	 0.3415819925	-0.322921
H	 0.3333138635	 0.8281404393	-3.1122359834	 0.129568
H	-1.3501571018	 0.2613095531	-3.1566353169	 0.127883
H	-0.8819367645	 1.5543192027	-2.0439179812	 0.111749
H	 0.1371674203	-1.3411950358	-1.9198724021	 0.125484
H	 0.7656618843	 0.8266935113	-0.017943743	 0.244584
H	 2.7972311711	-0.1233118817	 0.1399365253	 0.076535
H	-1.8959934983	 0.157297229	-0.1466363029	 0.080163
H	-3.4538187597	-1.7455577509	-0.8798287811	 0.11319
H	-2.0584533702	-2.4661717674	-1.823428601	 0.106963
H	 0.0344114688	-3.0668084127	-0.5798373998	 0.127044
H	 0.1543909527	-2.6173188967	 1.1300027741	 0.12414
H	-0.9942024088	-3.8680499452	 0.6293235442	 0.120421
38.0295	53.9391	142.3015	185.1429	195.5325	217.9033	237.7381	245.5871	345.8842	388.1735	407.3618	463.9675	528.5419	568.0018	733.6729	773.0512	847.0595	890.1088	922.325	978.3455	1028.5719	1030.9877	1079.5075	1097.598	1119.4666	1126.5534	1136.1683	1169.094	1196.3465	1201.7389	1212.8137	1301.1556	1341.1078	1346.5829	1405.1342	1425.0174	1429.4684	1454.9508	1489.6916	1491.3753	1494.9194	1498.7489	1512.3499	1529.0622	1795.8861	2935.7773	3005.5419	3032.7754	3072.6176	3077.5148	3079.2432	3097.0795	3107.1263	3120.0625	3124.1508	3166.5846	3619.5179
CC(NC=O)C1CN1C	C[C@@H](NC=O)[C@H]1CN1C	
InChI=1S/C6H12N2O/c1-5(7-4-9)6-3-8(6)2/h4-6H,3H2,1-2H3,(H,7,9)	InChI=1S/C6H12N2O/c1-5(7-4-9)6-3-8(6)2/h4-6H,3H2,1-2H3,(H,7,9)/t5-,6-,8?/m1/s1
