21
gdb 63418	3.45045	1.01141	0.96805	0.8724	90.67	-0.2442	0.0177	0.262	1343.734	0.181011	-349.940836	-349.931422	-349.930478	-349.97467	36.649	
C	 0.483054021	 1.4325397998	-0.0847091517	-0.418633
C	-0.2146459877	 0.065800929	 0.0827052807	 0.262752
C	-1.7301628946	 0.2761130964	 0.229735329	-0.433063
C	 0.1264996608	-0.8970562597	-1.0928391167	-0.261413
C	 1.3184384413	-1.7766084396	-0.6037365499	-0.205711
C	 1.2009513769	-1.6604006489	 0.9100945354	-0.087851
C	 0.3809933263	-0.6773621671	 1.2660050497	-0.09116
C	 1.2887288678	-3.1454993073	-1.1073544002	 0.316221
C	 1.2581076287	-4.2748012278	-1.5191986059	-0.466856
H	 1.5594619836	 1.3126196948	-0.243256299	 0.114832
H	 0.0700410943	 1.9782961107	-0.9406045562	 0.111472
H	 0.3455610412	 2.055111198	 0.8061275361	 0.111238
H	-2.1501883643	 0.7379006495	-0.6709678219	 0.112693
H	-2.2464831218	-0.6747532596	 0.3949545653	 0.116642
H	-1.9565476783	 0.9352309741	 1.0754007199	 0.109728
H	-0.7263526456	-1.552261926	-1.2900670963	 0.111569
H	 0.3575609324	-0.3676069443	-2.0209494291	 0.100226
H	 2.2719577578	-1.3268121573	-0.9207336819	 0.109094
H	 1.7654400516	-2.301474145	 1.5767846262	 0.104089
H	 0.1743543637	-0.3776429475	 2.2889962754	 0.0919
H	 1.232741005	-5.2717957721	-1.8831472889	 0.192232
57.8009	134.9612	179.0394	236.9173	258.0633	268.0489	324.2443	345.9623	372.3915	459.2809	505.281	531.7798	602.3953	618.9319	631.2913	685.1899	781.9596	813.7629	860.3429	907.1379	931.4748	952.1068	970.7509	975.4226	1024.7853	1037.0384	1052.2545	1117.3755	1146.9165	1214.1056	1238.2742	1258.1378	1277.3922	1295.4762	1331.8154	1375.3591	1396.0941	1420.1805	1481.7019	1484.9525	1493.3821	1502.4117	1507.8456	1688.549	2234.1716	2980.412	3022.2246	3026.6371	3059.9352	3088.4924	3094.1227	3099.5174	3102.3075	3107.9827	3174.0055	3210.8933	3505.4209
CC1(C)CC(C=C1)C#C	CC1(C)C[C@@H](C=C1)C#C	
InChI=1S/C9H12/c1-4-8-5-6-9(2,3)7-8/h1,5-6,8H,7H2,2-3H3	InChI=1S/C9H12/c1-4-8-5-6-9(2,3)7-8/h1,5-6,8H,7H2,2-3H3/t8-/m1/s1
