18
gdb 42918	2.87511	1.31904	1.01001	3.5472	76.89	-0.2302	-0.0174	0.2128	1192.0904	0.147795	-401.89837	-401.89038	-401.889435	-401.931529	30.411	
O	 0.2694763396	 0.1186465284	-0.2548118896	-0.307944
C	 0.0568846088	 1.2772697722	-0.0547515505	 0.438878
C	-1.1753381197	 2.1550586359	-0.1035146878	-0.194476
N	-1.1316417299	 2.9359662322	 1.1858565039	-0.328631
C	-0.3039339484	 3.369543991	 0.0564224444	-0.067233
C	 0.9869620237	 2.5288594597	 0.1326849187	-0.135029
C	 1.8756481735	 2.6452918965	 1.3382879643	 0.017307
C	 3.2432686104	 2.0097710241	 1.3259679219	-0.260661
C	 3.1138677523	 3.5111619961	 1.2950848306	-0.278089
H	-2.1109513198	 2.0115569295	-0.6284310538	 0.11528
H	-1.980688165	 3.5016464359	 1.1933493643	 0.240302
H	-0.4309276051	 4.3375708193	-0.4104894711	 0.107945
H	 1.5687289689	 2.6226904062	-0.7937236906	 0.09615
H	 1.3366741311	 2.6188689162	 2.2789986577	 0.103893
H	 3.5947778303	 1.5382200168	 2.2365826051	 0.115353
H	 3.5593129318	 1.5068592957	 0.4182158154	 0.117818
H	 3.345685841	 4.0221708394	 0.3659172157	 0.106034
H	 3.3763123866	 4.071685115	 2.1854308714	 0.113104
64.1493	110.872	150.1417	202.6141	289.8442	344.4937	503.6294	521.7063	601.9826	694.2989	776.149	787.3746	819.829	832.0321	860.2447	882.8006	907.3343	931.9515	954.2223	996.1221	1026.3007	1046.0778	1059.4518	1078.2317	1096.5323	1104.9518	1144.8069	1165.5988	1190.9969	1200.0618	1224.5311	1256.7677	1296.0412	1316.453	1351.4849	1424.5278	1472.078	1507.0057	1896.9282	3034.2923	3128.7094	3137.7433	3172.5675	3198.6876	3208.2391	3210.1393	3224.9694	3468.3664
O=C1C2NC2C1C1CC1	O=C1[C@H]2N[C@H]2[C@H]1C1CC1	
InChI=1S/C7H9NO/c9-7-4(3-1-2-3)5-6(7)8-5/h3-6,8H,1-2H2	InChI=1S/C7H9NO/c9-7-4(3-1-2-3)5-6(7)8-5/h3-6,8H,1-2H2/t4-,5+,6+/m1/s1
