16
gdb 70948	3.81321	1.3693	1.15722	1.5086	70.29	-0.2369	-0.0386	0.1983	1032.8064	0.123532	-437.793716	-437.786083	-437.785139	-437.825882	29.292	
O	-0.0322113239	 1.3455150967	 0.0118054489	-0.466257
C	 0.0309955752	-0.01693311	 0.1187813314	 0.434121
C	 0.4906842746	-0.7840214615	 1.3613552311	-0.371762
C	 0.1197266559	-1.8970213273	 0.3508296431	 0.24864
C	 0.2440885659	-3.3697450376	 0.4171203887	 0.020329
O	-0.4903851811	-4.1306940481	-0.1706345518	-0.261451
C	-1.0600142792	-1.0836367558	-0.2694288921	-0.135981
N	-0.5727679501	-1.1277602862	-1.6903459751	-0.359294
C	 0.6732197517	-1.0418070464	-0.8819297248	-0.131378
H	-0.3807430204	 1.5541827053	-0.8645660775	 0.299552
H	 1.5476166552	-0.6905239208	 1.6258632682	 0.110308
H	-0.1432558947	-0.7043051989	 2.2485235086	 0.112876
H	 1.1015294757	-3.7487264588	 1.0180003858	 0.080357
H	-2.1128519436	-1.1290771206	 0.0092815311	 0.094595
H	-0.6921716989	-2.0688042965	-2.0720922065	 0.230518
H	 1.6819678977	-1.0676413233	-1.2968500092	 0.094828
85.807	146.7279	210.4118	270.132	351.0889	385.6815	444.7327	453.7855	534.7544	652.3612	678.6445	720.4681	788.9534	865.4159	882.3826	911.1855	966.3571	1000.7976	1020.8242	1044.6723	1068.1431	1096.9479	1121.9447	1134.0676	1161.227	1165.5615	1185.1957	1279.2438	1297.8524	1305.2462	1355.7974	1409.2514	1430.1101	1521.6603	1790.785	2874.2298	3054.7964	3109.4321	3115.7828	3121.7964	3430.2031	3779.9754
OC12CC3(C=O)C1NC23	O[C@@]12C[C@@]3(C=O)[C@@H]1N[C@@H]23	
InChI=1S/C6H7NO2/c8-2-5-1-6(9)3(5)7-4(5)6/h2-4,7,9H,1H2	InChI=1S/C6H7NO2/c8-2-5-1-6(9)3(5)7-4(5)6/h2-4,7,9H,1H2/t3-,4+,5+,6-
