18
gdb 100217	2.63445	1.13881	0.97275	5.6616	76.29	-0.2787	0.004	0.2827	1273.9709	0.146335	-398.153631	-398.143527	-398.142583	-398.188656	36.102	
C	 0.0942856142	 1.5506756992	 0.0381582094	-0.40011
C	-0.0284447227	 0.028144673	-0.0271235583	-0.192669
C	-1.4866666562	-0.4992411435	-0.0117834271	 0.055851
N	-2.2081942082	 0.0314080098	-1.1643556942	-0.512232
C	-1.4362910217	-2.0685101614	 0.0450018476	-0.375209
C	-2.7543854883	-2.6720134677	-0.1186658781	 0.268456
N	-3.8091877374	-3.1166534014	-0.2763036366	-0.297008
C	-2.1663450195	-0.0244438148	 1.2117072077	 0.33085
N	-2.6749156889	 0.325755425	 2.1877428178	-0.33253
H	 1.1455672287	 1.8450220521	-0.0247175886	 0.120209
H	-0.4504270936	 2.0215851102	-0.782658645	 0.143401
H	-0.3092726123	 1.9380354134	 0.9779727459	 0.146729
H	 0.4320746651	-0.349676856	-0.9494924359	 0.10413
H	 0.514021964	-0.4335951551	 0.8050748379	 0.119065
H	-1.7576772684	-0.2732954278	-2.0225280095	 0.238752
H	-3.1656241999	-0.3080997728	-1.1817124376	 0.261074
H	-0.7871278359	-2.4174162782	-0.7660476009	 0.152652
H	-0.993489539	-2.405548244	 0.9878786855	 0.168589
69.51	100.7249	125.6118	159.6258	196.2595	224.93	267.4803	287.1036	346.6913	390.9441	394.7953	416.1618	494.5569	587.0538	642.8387	720.3402	798.2645	846.335	883.1085	926.2736	975.2979	1006.9017	1040.2742	1070.9043	1130.4098	1177.2049	1240.7065	1279.8101	1325.1019	1369.3411	1378.1949	1416.1708	1456.2466	1482.0849	1494.0256	1509.5129	1656.461	2362.6707	2363.1899	3023.8445	3047.4438	3052.2632	3072.5262	3095.1543	3120.3347	3139.0819	3491.7353	3577.99
CCC(N)(CC#N)C#N	CC[C@@](N)(CC#N)C#N	
InChI=1S/C6H9N3/c1-2-6(9,5-8)3-4-7/h2-3,9H2,1H3	InChI=1S/C6H9N3/c1-2-6(9,5-8)3-4-7/h2-3,9H2,1H3/t6-/m1/s1
