19
gdb 81177	3.23985	1.04875	0.94286	3.1374	76.59	-0.2414	-0.0248	0.2166	1302.6995	0.15685	-422.969689	-422.960768	-422.959824	-423.004316	32.783	
C	-0.2312031797	 1.6016354208	-0.1769164097	-0.444179
C	-0.0057271605	 0.1115673342	 0.0158633267	 0.000855
C	 1.1647939927	-0.6754638635	-0.6404268559	 0.033911
C	 2.1781119018	-0.0402944044	 0.3352985266	-0.272863
C	 0.9158637341	-0.4852024671	 1.1268761608	 0.388882
C	 0.6907444648	-0.5844488013	 2.6128722043	-0.417298
C	 1.7652433869	-1.405430007	 3.3033479664	 0.157453
O	 2.3755731839	-1.0411691204	 4.2749161386	-0.240063
O	 0.9378820233	-1.7553063154	 0.3496986372	-0.343953
H	 0.6865976363	 2.1911806835	-0.1119129213	 0.12243
H	-0.680733812	 1.7934834991	-1.1570554358	 0.127153
H	-0.9263139364	 1.9836199912	 0.5785694	 0.126224
H	-0.9402433545	-0.4528676678	-0.0528528351	 0.083398
H	 1.3006934871	-0.9742397324	-1.6797376232	 0.09635
H	 3.069668946	-0.6408584217	 0.520497851	 0.112748
H	 2.40274689	 1.0242547529	 0.2541836441	 0.101886
H	 0.652596346	 0.409033246	 3.0689929003	 0.129905
H	-0.2748215751	-1.0824333552	 2.7799335025	 0.134572
H	 1.9514594254	-2.3963085217	 2.8372212624	 0.102588
50.7713	56.8203	139.3569	179.7105	228.6517	291.1887	331.6333	417.025	454.4475	568.4076	591.9669	650.0992	714.7893	791.097	816.6491	824.7731	900.188	914.9726	966.3379	1010.7392	1027.0502	1042.8506	1089.0704	1101.2517	1118.882	1142.0106	1167.8639	1205.5443	1223.2452	1237.046	1252.9131	1291.8899	1331.9304	1391.0587	1417.2784	1424.0226	1441.4283	1493.64	1494.9702	1507.7794	1832.8768	2913.002	3021.5406	3037.6439	3072.5531	3078.729	3095.9506	3102.2207	3119.6923	3122.0976	3151.4003
CC1C2CC1(CC=O)O2	C[C@H]1[C@H]2C[C@]1(CC=O)O2	
InChI=1S/C7H10O2/c1-5-6-4-7(5,9-6)2-3-8/h3,5-6H,2,4H2,1H3	InChI=1S/C7H10O2/c1-5-6-4-7(5,9-6)2-3-8/h3,5-6H,2,4H2,1H3/t5-,6+,7-/m0/s1
