21
gdb 120265	3.0975	1.1051	0.97505	1.4818	78.83	-0.2427	0.0736	0.3162	1319.0564	0.18195	-424.18937	-424.180116	-424.179172	-424.223868	34.66	
C	 0.068648757	 1.4894022451	-0.0248702396	-0.386793
C	 0.1822515353	-0.0243197794	 0.0203662462	-0.050755
O	 0.52013493	-0.4890953559	-1.2834824215	-0.266772
C	 0.6786458048	-1.8887441464	-1.3620978755	 0.077708
C	 0.7763437255	-2.4362519031	-2.7770951044	-0.078647
C	 1.9517376029	-1.8364051292	-3.4941659183	-0.293166
C	 2.209562835	-2.9377195254	-2.5091197432	-0.067371
C	 2.1413087419	-2.4050314643	-1.0720666637	 0.10042
O	 3.0630960225	-1.4318026163	-0.6503022276	-0.440416
H	 1.0218867525	 1.9413460069	-0.3150155991	 0.12268
H	-0.689847863	 1.7965605401	-0.7503714361	 0.1286
H	-0.2109292219	 1.8787844942	 0.9585910386	 0.11797
H	 0.9482233156	-0.33654293	 0.7442846357	 0.107986
H	-0.773032788	-0.4755611588	 0.3333902577	 0.091641
H	-0.0795752091	-2.3971211919	-0.7531100927	 0.066441
H	-0.0289226316	-2.9302621982	-3.3057995912	 0.086326
H	 2.044289998	-2.121866621	-4.536800067	 0.114682
H	 2.2601700045	-0.8157804997	-3.2910942841	 0.112519
H	 2.6577828992	-3.8779142769	-2.8058472051	 0.085903
H	 2.1618073756	-3.2121057059	-0.3351518541	 0.083485
H	 2.7587927929	-0.594996504	-1.0235098151	 0.287561
66.6185	84.4238	102.4596	194.5118	227.0891	253.7265	305.7967	370.3903	420.6603	469.1414	577.7631	613.2509	729.7323	780.1532	818.7622	827.3424	834.9068	912.4591	924.0214	986.1333	999.8411	1021.139	1057.4402	1062.8714	1071.1783	1080.0085	1112.5981	1144.1552	1149.4284	1177.7869	1189.7069	1212.2434	1268.2387	1300.0992	1313.6732	1314.877	1360.3449	1369.4118	1404.4226	1434.2969	1441.3255	1483.7462	1499.4892	1501.6208	1527.4759	2975.8776	3019.3552	3023.8678	3043.8889	3077.5926	3116.393	3121.8864	3129.49	3184.3872	3193.6251	3211.3425	3772.4664
CCOC1C2CC2C1O	CCO[C@H]1[C@H]2C[C@H]2[C@H]1O	
InChI=1S/C7H12O2/c1-2-9-7-5-3-4(5)6(7)8/h4-8H,2-3H2,1H3	InChI=1S/C7H12O2/c1-2-9-7-5-3-4(5)6(7)8/h4-8H,2-3H2,1H3/t4-,5+,6-,7+/m1/s1
