20
gdb 62643	2.76957	1.70383	1.22959	1.6723	79.7	-0.2415	0.0697	0.3111	1064.0387	0.169479	-403.058557	-403.050059	-403.049114	-403.090769	33.996	
C	-0.0767206034	 1.5422885784	 0.0197497184	-0.461612
C	-0.0867688061	 0.0155806039	-0.0194787379	 0.321504
C	-1.455243643	-0.5344387783	-0.4109400021	-0.476076
C	 1.1564696577	-0.6538495689	-0.6512176069	-0.11895
N	 2.0426645677	-0.2644528576	 0.5559886957	-0.159797
C	 2.5513425609	-1.6941764464	 0.6783762242	-0.242247
C	 1.0972036107	-1.9183470602	 0.2830156905	 0.329548
O	 0.3785907542	-3.0977943146	 0.1631720852	-0.463289
C	 0.6649144303	-0.6944816743	 1.1319027187	-0.079348
H	 0.9054754052	 1.9255786068	 0.3033445866	 0.140024
H	-0.3407283976	 1.9537018405	-0.9613541274	 0.108754
H	-0.8164741529	 1.9134923305	 0.7384489898	 0.109652
H	-1.7483076103	-0.1598838579	-1.3987986299	 0.109852
H	-1.4676808682	-1.6256249897	-0.4375201405	 0.136952
H	-2.2190379839	-0.2000224146	 0.3006288275	 0.112931
H	 1.556137025	-0.5826179343	-1.6664039802	 0.071374
H	 3.3359251871	-1.9388402694	-0.0460219602	 0.095419
H	 2.8589209448	-1.9633737404	 1.6939708797	 0.104453
H	 0.7898109845	-3.6390214611	-0.5202986985	 0.283319
H	 0.4930077475	-0.6658948325	 2.2105487773	 0.077537
176.4345	204.9311	208.0016	230.0594	256.5097	314.1895	338.3064	362.2308	394.0146	484.166	531.0088	619.5608	672.4404	742.7513	836.2655	840.3204	867.3087	913.1659	920.2797	957.6936	964.8024	1009.0496	1028.9215	1070.3454	1077.9411	1083.7843	1109.8782	1166.6394	1186.8375	1199.7141	1210.7048	1233.3925	1248.0172	1293.051	1342.6469	1372.0019	1399.2701	1419.9367	1486.0253	1492.3509	1506.1665	1514.023	1519.059	3025.3899	3030.3283	3034.4928	3078.4664	3080.9009	3086.2353	3090.6078	3096.8578	3131.1049	3134.1443	3799.773
CC1(C)C2N3CC2(O)C13	CC1(C)[C@H]2N3C[C@@]2(O)[C@H]13	
InChI=1S/C7H11NO/c1-6(2)4-7(9)3-8(4)5(6)7/h4-5,9H,3H2,1-2H3	InChI=1S/C7H11NO/c1-6(2)4-7(9)3-8(4)5(6)7/h4-5,9H,3H2,1-2H3/t4-,5+,7+
