19
gdb 98233	2.00346	0.85841	0.81887	0.1318	76.27	-0.1856	0.044	0.2297	1570.9575	0.155608	-456.400055	-456.388079	-456.387135	-456.440471	39.01	
C	-0.2854796812	 0.9855236851	-0.0700351721	-0.329022
N	-0.2458645385	-0.4490317198	-0.3772210169	-0.335997
C	 0.9563985744	-0.9841235169	-0.8835727877	 0.325885
N	 1.3621112977	-0.3299378086	-2.0597452916	-0.553392
H	 2.1904847252	-0.7436414447	-2.465134182	 0.239031
H	 0.6155040285	-0.2754175959	-2.7444937309	 0.252669
C	 1.6383012041	-1.9963523113	-0.3199017104	-0.147058
C	 1.3877474887	-2.5996470641	 1.0326037592	-0.447125
C	-2.4224621547	-0.9767405029	-2.3076117149	 0.590848
O	-1.7256287155	-0.7957982937	-3.2231876522	-0.304586
O	-3.1600188177	-1.1641541818	-1.4294887915	-0.298698
H	 0.3920568357	 1.2708176067	 0.7485800737	 0.112382
H	 0.0004905974	 1.5553205847	-0.9547032111	 0.145181
H	-1.3068012581	 1.2595805398	 0.2083798743	 0.119771
H	-0.5852730918	-0.9988732835	 0.3996104588	 0.234518
H	 2.4519027988	-2.426682896	-0.8982754454	 0.057963
H	 0.9060315609	-3.5862184278	 0.9775127367	 0.116911
H	 2.3275308439	-2.7443561687	 1.5797475523	 0.118691
H	 0.7537849123	-1.9652414906	 1.6624286918	 0.102027
21.3492	31.374	63.2883	82.0229	95.7883	127.9199	137.8084	153.9964	234.0239	280.8449	310.8857	388.5278	482.108	556.5304	650.9488	654.5621	688.6891	734.6467	762.3099	803.97	849.9611	970.5019	1053.9331	1090.1792	1101.4199	1145.5739	1157.1126	1195.7165	1298.0133	1374.8778	1393.6712	1425.9411	1460.339	1468.6535	1486.7047	1492.1768	1503.5243	1522.7679	1634.0836	1747.0526	2428.9005	2992.7177	3000.3865	3045.9736	3077.3015	3088.6472	3145.708	3151.2028	3518.603	3589.6475	3630.9936
CNC(=[NH2+])C(C)C([O-])=O	CNC(=[NH2])[CH]C.C(=O)=O	
InChI=1S/C5H10N2O2/c1-3(5(8)9)4(6)7-2/h3H,1-2H3,(H2,6,7)(H,8,9)	InChI=1S/C4H10N2.CO2/c1-3-4(5)6-2;2-1-3/h3,6H,5H2,1-2H3;
