19
gdb 22853	2.96231	1.22511	0.88206	2.2519	87.05	-0.1793	-0.0019	0.1773	1310.2734	0.158339	-419.197326	-419.187735	-419.186791	-419.231446	35.367	
C	 0.1061779946	 1.4843718014	 0.0049724271	-0.493575
C	-0.0385925138	-0.0010485593	 0.0102540465	 0.257753
C	-1.1680727844	-0.7563462608	 0.0353900922	 0.117466
C	-2.5970764762	-0.3307349073	 0.1334071248	-0.507682
C	-0.7571342183	-2.1483673901	-0.0045660325	 0.34954
C	 0.7544333173	-2.183307862	-0.1029685474	-0.26747
N	 1.1272870504	-0.7722958037	 0.0504730103	-0.369929
N	-1.5587132366	-3.1480645195	 0.054299037	-0.26835
O	-0.8227685869	-4.35618764	-0.0331920656	-0.404921
H	 0.6451735917	 1.8246863122	 0.8965812817	 0.143045
H	 0.6847818638	 1.8186657378	-0.8661585065	 0.126873
H	-0.863639187	 1.9824008219	-0.0252122245	 0.138872
H	-3.1818117733	-0.731193041	-0.7026809337	 0.132702
H	-3.06233847	-0.7187994525	 1.0474876538	 0.133113
H	-2.705147383	 0.7569080032	 0.1346211149	 0.111233
H	 1.1907467011	-2.8126597602	 0.6798804301	 0.137981
H	 1.0723079238	-2.5978560405	-1.0682642596	 0.128859
H	 1.8971560241	-0.4461132279	-0.5175980235	 0.232372
H	-1.5163554672	-5.0189934717	 0.043306735	 0.302117
107.2083	116.737	142.1459	186.0748	203.315	234.5672	278.4119	336.6052	355.0984	398.6078	489.3183	515.7782	558.0351	611.6991	646.613	694.912	745.6931	910.6593	963.7988	978.6603	1000.6208	1053.139	1066.1689	1079.1696	1119.1682	1138.929	1185.1771	1240.2983	1312.885	1347.5701	1406.9223	1422.0364	1423.6935	1459.4327	1472.3865	1478.5158	1484.1326	1491.4148	1496.1318	1689.1766	1714.2753	3022.8097	3026.8079	3027.5171	3068.3153	3072.1762	3073.0835	3112.8956	3141.8561	3575.847	3826.31
CC1=C(C)C(CN1)=NO	C[C]1C(=C(CN1)[N]O)C	
InChI=1S/C6H10N2O/c1-4-5(2)7-3-6(4)8-9/h7,9H,3H2,1-2H3	InChI=1S/C6H10N2O/c1-4-5(2)7-3-6(4)8-9/h7,9H,3H2,1-2H3
