17
gdb 71963	2.92756	1.92038	1.66647	2.118	65.6	-0.2607	0.0685	0.3292	859.9324	0.138115	-458.959255	-458.952768	-458.951824	-458.989706	27.336	
O	-0.0376124731	 1.4148044022	 0.0188204493	-0.490389
C	 0.0283576271	 0.0183146858	-0.0184711309	 0.373721
C	 0.3074564409	-0.7213364238	-1.3539106022	-0.316391
C	-0.6587823022	-1.8168299325	-0.8499784622	 0.06435
O	-0.0333578635	-2.678075789	 0.1102739374	-0.274157
C	-0.0734703173	-1.9220912508	 1.3171269833	 0.171491
C	 0.8039071938	-0.6659391695	 1.1378981747	-0.3123
O	-1.3837550657	-1.3812273054	 1.3633054187	-0.237222
C	-1.3322967006	-0.7607949386	 0.0971735623	 0.025718
H	 0.859625955	 1.7652290202	 0.0190468769	 0.279886
H	-0.1236419974	-0.1764550677	-2.1995193432	 0.108404
H	 1.3326475012	-1.0241752557	-1.5801247435	 0.101271
H	-1.2282336565	-2.4189525486	-1.5562002726	 0.088823
H	 0.1189738557	-2.5726322453	 2.1685282344	 0.096881
H	 1.8413396067	-0.9037666352	 0.8916520053	 0.104321
H	 0.7625688812	-0.0468328226	 2.0381163188	 0.115171
H	-2.2618932252	-0.2696160736	-0.1748410465	 0.100422
212.035	262.034	297.6314	390.0571	420.4508	473.0377	567.0071	622.1259	638.2246	730.5809	797.639	826.026	857.9702	876.8566	893.7405	922.517	935.1326	954.5012	987.3502	1036.9653	1054.3274	1072.531	1113.9689	1134.065	1146.9511	1182.8519	1221.3213	1225.0527	1244.3071	1270.3061	1292.9828	1307.938	1347.5972	1367.2773	1378.4918	1466.0888	1483.0219	3054.2477	3063.9706	3117.0636	3124.0802	3126.3793	3147.7986	3176.1409	3804.9428
OC12CC3OC(C1)OC23	O[C@@]12C[C@H]3O[C@@H](C1)O[C@@H]23	
InChI=1S/C6H8O3/c7-6-1-3-5(6)9-4(2-6)8-3/h3-5,7H,1-2H2	InChI=1S/C6H8O3/c7-6-1-3-5(6)9-4(2-6)8-3/h3-5,7H,1-2H2/t3-,4-,5-,6+/m1/s1
