14
gdb 48144	4.14513	0.92433	0.77421	4.624	76.61	-0.2571	-0.073	0.1841	1374.4361	0.099511	-432.842711	-432.833755	-432.832811	-432.877369	31.613	
N	 0.5771777501	 0.3920497731	-1.7916338255	-0.48769
C	 0.0413939072	 0.0164589263	-0.7014752898	 0.280722
N	-1.3011413826	-0.3642857958	-0.7012088209	-0.341114
C	-2.1684931823	-0.2340709433	 0.3724629946	 0.229923
N	-1.7597934973	 0.2085130411	 1.5017937494	-0.516236
C	-3.5185116715	-0.6380249005	 0.0833756266	 0.273932
C	-4.6569148539	-0.9578270197	-0.1350897097	-0.42149
C	 0.8506674442	-0.1846193157	 0.5725187096	 0.132343
O	 1.9297540406	 0.3357297792	 0.6922400993	-0.25274
H	 1.5681834589	 0.5754028509	-1.615205394	 0.247944
H	-1.7154529554	-0.4138690542	-1.6216784864	 0.27182
H	-2.5060794139	 0.1927214629	 2.1919489986	 0.240174
H	-5.6644685028	-1.2412862972	-0.3212137784	 0.221189
H	 0.4305361087	-0.870903507	 1.3234718467	 0.121224
50.3178	72.5866	110.5943	156.5314	273.4884	293.8262	323.5391	394.7715	465.9404	523.0465	606.5054	636.0659	666.1663	676.6357	689.863	721.1278	831.2982	872.6054	907.7758	970.2168	1008.0959	1099.8423	1170.2257	1307.4166	1363.7912	1446.2567	1510.3233	1669.3617	1703.8548	1813.654	2232.6059	3020.06	3457.5093	3494.8081	3533.2215	3606.2725
N=C(NC(=N)C#C)C=O	N=C(NC(=N)C#C)C=O	
InChI=1S/C5H5N3O/c1-2-4(6)8-5(7)3-9/h1,3H,(H3,6,7,8)	InChI=1S/C5H5N3O/c1-2-4(6)8-5(7)3-9/h1,3H,(H3,6,7,8)
