17
gdb 69359	3.83034	1.14994	1.0412	2.2212	69.82	-0.2539	-0.0402	0.2137	1172.0722	0.132897	-458.938466	-458.929856	-458.928912	-458.971521	32.545	
C	 0.2308510654	 1.6259448712	 0.1157979143	-0.502906
C	-0.0258546301	 0.1566035791	 0.1503748437	 0.427027
C	-1.3384344288	-0.5961631274	-0.1310117293	-0.357207
C	-0.8400300775	-1.7567632954	 0.8208173652	 0.325288
O	-1.6117404501	-1.8983272029	 1.9706275341	-0.487053
C	-0.6084040314	-3.0995198102	 0.1721009649	 0.105323
O	-1.1029895209	-4.1068771798	 0.6250084396	-0.281721
C	 0.4587894786	-0.9210073237	 1.0289415997	-0.122895
O	 1.0308661772	-0.7298320375	-0.2691973928	-0.284788
H	 1.2314099105	 1.8463383157	 0.4968648944	 0.139391
H	 0.1636312773	 2.0076628873	-0.9091196661	 0.134853
H	-0.5048880341	 2.1605509611	 0.7244363118	 0.133582
H	-2.2162500624	-0.1380519029	 0.3286400429	 0.132975
H	-1.5352110399	-0.8301801794	-1.1806939746	 0.109387
H	-1.8083234163	-2.8485963668	 2.0309840533	 0.294121
H	 0.0376246958	-3.1071607662	-0.7231137571	 0.121402
H	 1.1136048667	-0.924320532	 1.893510936	 0.11322
96.6836	112.6591	192.356	249.9228	290.0105	302.77	343.8536	408.7305	416.1802	462.6889	516.487	531.1715	662.5085	760.4209	829.7522	852.9652	878.5618	902.4274	963.4431	1002.752	1022.7649	1041.6243	1082.5239	1086.2018	1147.0586	1192.4663	1216.8031	1263.2894	1294.7448	1371.087	1402.5907	1432.3604	1449.8784	1475.4056	1485.0612	1497.5191	1797.2835	2991.3926	3037.1915	3064.1828	3101.3292	3124.7018	3135.9936	3184.8947	3660.2578
CC12CC(O)(C=O)C1O2	C[C@]12C[C@@](O)(C=O)[C@H]1O2	
InChI=1S/C6H8O3/c1-5-2-6(8,3-7)4(5)9-5/h3-4,8H,2H2,1H3	InChI=1S/C6H8O3/c1-5-2-6(8,3-7)4(5)9-5/h3-4,8H,2H2,1H3/t4-,5-,6+/m0/s1
