17
gdb 85703	2.50422	1.38164	1.06469	3.5682	72.96	-0.2601	0.026	0.2861	1139.1268	0.136432	-417.978642	-417.97027	-417.969326	-418.01183	31.477	
O	 0.6600885461	 0.6048318265	-0.9819474928	-0.421961
C	 0.1622112432	-0.3291060905	-0.0660003037	 0.069912
C	 0.1935108657	-0.0258827495	 1.4617838988	-0.286672
C	-1.2253714028	-0.6762503589	 1.5907966346	-0.214805
C	-2.2076938729	-0.0000705757	 2.417851528	 0.281522
N	-2.9904551389	 0.564916028	 3.0546474979	-0.333353
C	-1.3546085504	-0.5404672077	 0.0560975484	 0.295455
C	-2.3896094985	 0.1838603372	-0.7118145127	-0.308157
N	-2.2648370435	-1.2870641609	-0.7831003182	-0.366163
H	 0.2488557971	 1.456397304	-0.7951268959	 0.284787
H	 0.6763368494	-1.2695236029	-0.2930767546	 0.105898
H	 0.9936417296	-0.4697684232	 2.0542312824	 0.126334
H	 0.1538693227	 1.0492965201	 1.6538698395	 0.123957
H	-1.1636321466	-1.7285865646	 1.8822910943	 0.134099
H	-3.2833629189	 0.5445684706	-0.2110578556	 0.147321
H	-2.0588525363	 0.773459561	-1.5634455685	 0.120592
H	-1.8016486949	-1.5638309835	-1.6465881719	 0.241234
68.4492	124.0794	200.142	220.6255	261.3244	342.1964	362.4577	412.42	497.5242	524.5937	576.1737	589.4795	706.5971	814.986	845.3962	909.077	944.7847	958.1099	987.1033	1023.4931	1036.4124	1072.6621	1092.5264	1129.1041	1148.5986	1196.1502	1215.4697	1258.1192	1273.1818	1285.3222	1321.7875	1349.6228	1405.1693	1438.9824	1481.5933	1508.6726	2354.0357	3056.6808	3074.3177	3078.6083	3108.4568	3143.6224	3200.6391	3487.6008	3800.4167
OC1CC(C#N)C11CN1	O[C@H]1C[C@@H](C#N)[C@]21CN2	
InChI=1S/C6H8N2O/c7-2-4-1-5(9)6(4)3-8-6/h4-5,8-9H,1,3H2	InChI=1S/C6H8N2O/c7-2-4-1-5(9)6(4)3-8-6/h4-5,8-9H,1,3H2/t4-,5-,6-/m0/s1
