22
gdb 100410	3.19324	0.87133	0.77441	0.7138	87.33	-0.238	0.0302	0.2681	1583.1143	0.192878	-404.346994	-404.336745	-404.3358	-404.384147	36.335	
C	 0.2410124612	 1.1655509163	 0.0745694152	-0.224335
O	 0.060587397	-0.2472158852	 0.1464613642	-0.243061
C	-1.2137953562	-0.6952904369	 0.0609416661	 0.405546
C	-1.2412309332	-2.2050590003	 0.15248357	-0.49046
N	-2.1749024296	 0.1198158799	-0.0753446545	-0.311218
C	-3.5338992765	-0.3374991111	-0.1677947623	 0.071963
C	-4.563372949	 0.3388600235	 0.7846203665	-0.223389
C	-5.5716624344	 0.3832898048	-0.3941452954	-0.213318
C	-4.3722497827	 0.20493947	-1.3624999064	-0.223392
H	 1.3163588181	 1.3299879353	 0.1600423068	 0.120867
H	-0.1343581326	 1.5596926001	-0.8741282371	 0.13061
H	-0.2910728529	 1.669304304	 0.8866008997	 0.13061
H	-1.8403138906	-2.5323449018	 1.0069572156	 0.144821
H	-1.6837035685	-2.6415347944	-0.7474342203	 0.144821
H	-0.2269282882	-2.5871421151	 0.2668072657	 0.140674
H	-3.6408837051	-1.4300026688	-0.1091828706	 0.054388
H	-4.8447261004	-0.198031462	 1.6942521936	 0.088641
H	-4.2119413716	 1.3384872992	 1.054086293	 0.106465
H	-6.2359350385	-0.4858357585	-0.3990699543	 0.098214
H	-6.1813694819	 1.2824758435	-0.5045032901	 0.096444
H	-3.9679490565	 1.1675177449	-1.6870807398	 0.106466
H	-4.495035778	-0.4430658275	-2.2341948057	 0.088642
25.1394	41.4591	106.9631	111.8696	172.3775	200.0746	207.3782	271.7049	409.5857	441.7087	463.6323	567.244	583.4287	668.8551	773.2329	785.3651	858.6219	906.0689	930.2063	937.1999	968.7295	1007.2365	1039.7836	1056.5822	1075.1735	1129.1218	1167.2386	1180.7039	1199.7075	1223.4663	1243.4346	1247.0302	1258.021	1274.2964	1289.3308	1296.6908	1388.353	1403.9395	1468.2982	1473.5868	1474.6818	1486.2925	1487.2383	1487.6701	1499.996	1509.5037	1737.9069	2994.5092	3042.1387	3054.4993	3055.5546	3055.6397	3062.7261	3101.2179	3111.9886	3112.2215	3114.982	3123.6612	3143.9171	3154.3271
COC(C)=NC1CCC1	COC(=NC1CCC1)C	
InChI=1S/C7H13NO/c1-6(9-2)8-7-4-3-5-7/h7H,3-5H2,1-2H3	InChI=1S/C7H13NO/c1-6(9-2)8-7-4-3-5-7/h7H,3-5H2,1-2H3
