19
gdb 111919	2.12607	1.47993	0.95983	3.4386	72.82	-0.2254	0.0471	0.2725	1240.8898	0.160257	-456.3709	-456.361779	-456.360834	-456.404992	34.188	
C	-0.4931475368	 1.5162836222	-0.0769344745	-0.40888
C	 0.0798024644	 0.1093175664	-0.0689425717	 0.092652
O	 1.2048369116	 0.0437490127	-0.9911990689	-0.26267
C	 2.1512900794	-0.6919803745	-0.3574321099	 0.473355
N	 3.2740264678	-0.9108343421	-1.1033567677	-0.577904
N	 1.9509286296	-1.0668868138	 0.8480285492	-0.380188
C	 0.6806692835	-0.4446026969	 1.2581524785	-0.021179
C	 0.982497369	 0.5744147124	 2.3666947793	-0.052527
O	 1.642855337	-0.063873349	 3.4386009879	-0.427784
H	 0.2426674736	 2.2523020046	 0.2553076027	 0.134442
H	-0.8168077926	 1.7870799661	-1.0857011925	 0.127609
H	-1.3642306109	 1.5711837631	 0.5832511184	 0.127286
H	-0.6722384461	-0.5921610992	-0.4504183036	 0.090952
H	 3.1409757206	-0.9208923662	-2.1022993289	 0.264355
H	 3.8812523151	-1.6288015876	-0.7415610951	 0.269185
H	 0.0211754483	-1.207682223	 1.6869916087	 0.083236
H	 1.5907540802	 1.3973490984	 1.9554671294	 0.080702
H	 0.058901174	 1.0075039766	 2.7671917456	 0.096968
H	 2.3172853422	-0.6179576201	 3.0218835232	 0.29039
55.3187	120.6307	172.8157	194.1637	222.7006	274.7857	349.4622	408.9434	447.2696	477.7554	505.4771	509.604	533.4867	679.4213	724.4256	738.2419	843.9762	882.2825	952.9612	992.4656	999.1575	1055.8268	1082.3771	1088.2659	1147.5626	1150.6049	1185.5039	1224.5646	1293.7082	1321.9143	1343.5176	1377.6022	1390.4821	1412.505	1444.2457	1449.8897	1485.3993	1498.2954	1508.1001	1618.359	1744.889	2960.705	3020.3475	3042.0296	3047.6624	3063.4751	3116.4503	3130.6762	3595.4179	3710.4657	3748.5943
CC1OC(N)=NC1CO	C[C@H]1O[C](N)[N][C@H]1CO	
InChI=1S/C5H10N2O2/c1-3-4(2-8)7-5(6)9-3/h3-4,8H,2H2,1H3,(H2,6,7)	InChI=1S/C5H10N2O2/c1-3-4(2-8)7-5(6)9-3/h3-4,8H,2H2,1H3,(H2,6,7)/t3-,4+/m1/s1
