15
gdb 25502	4.52062	0.96822	0.8673	1.9488	74.61	-0.2529	-0.0528	0.2001	1284.633	0.113888	-416.870078	-416.862455	-416.861511	-416.903556	27.114	
O	-0.4585756902	 0.7609760291	 0.9160929287	-0.228384
C	 0.0698564651	 1.0610014818	-0.1201789354	 0.160522
C	 1.4055863482	 1.7966819448	-0.2117797899	-0.370295
C	 1.3665276916	 2.8922054809	-1.2446228767	 0.307104
N	 1.212622029	 2.50705032	-2.519498595	-0.295067
C	 1.1564892811	 3.4754842377	-3.4334478237	 0.069955
N	 1.2438191703	 4.7894647414	-3.2241925019	-0.247612
C	 1.393198845	 5.158326761	-1.9490129509	 0.029183
C	 1.4550496302	 4.2420210279	-0.9071914161	-0.180627
H	-0.3752840271	 0.8125363297	-1.1064303272	 0.106813
H	 1.6759710846	 2.1640209718	 0.7799285164	 0.129559
H	 2.1459099963	 1.0501074806	-0.5289391436	 0.153334
H	 1.0292082581	 3.156731808	-4.4654451298	 0.124846
H	 1.4659447433	 6.2265441868	-1.7574871963	 0.125091
H	 1.5720731945	 4.5624054586	 0.1214795212	 0.115579
43.2767	80.8298	139.0378	256.6247	359.2027	379.2445	434.0428	536.3054	608.2736	690.2369	763.0197	809.6575	861.599	875.2086	990.8134	1004.3871	1025.7595	1027.0258	1046.8506	1102.212	1174.5452	1198.0229	1240.1848	1251.2141	1308.7252	1345.9573	1409.9594	1422.0296	1449.8202	1500.4881	1597.0087	1617.5573	1837.6516	2921.0974	3032.9095	3125.0696	3157.7147	3165.4909	3201.9353
O=CCC1=NC=NC=C1	O=CCc1ncncc1	
InChI=1S/C6H6N2O/c9-4-2-6-1-3-7-5-8-6/h1,3-5H,2H2	InChI=1S/C6H6N2O/c9-4-2-6-1-3-7-5-8-6/h1,3-5H,2H2
