20
gdb 103679	3.64257	0.88818	0.84358	4.3413	78.12	-0.2379	0.0294	0.2674	1428.5171	0.169499	-440.292493	-440.282555	-440.281611	-440.328383	35.235	
C	-0.3792643552	 1.7181468643	 0.0186004123	-0.460012
C	 0.0008934446	 0.2426813925	 0.0395451277	 0.322153
C	-1.201810559	-0.6607246145	-0.201418823	-0.12959
O	-1.7077849535	-0.3790336705	-1.4970229146	-0.424154
C	 1.2220899136	-0.1440874568	-0.8620559202	-0.222373
N	 1.9055129073	-0.6122951171	 0.3453946903	-0.035315
C	 0.8474352586	-0.2188522851	 1.2709031528	-0.233911
C	 3.1279060839	-1.1261615765	 0.5930745633	 0.13111
O	 3.5473087082	-1.4040239913	 1.6992188064	-0.335259
H	 0.4991396444	 2.3545400746	 0.1643690364	 0.117226
H	-0.8448399224	 1.9805294691	-0.9349289823	 0.141307
H	-1.0944143161	 1.9454520885	 0.8175463193	 0.116397
H	-0.8912615257	-1.714255666	-0.1165719817	 0.092497
H	-1.95996263	-0.4746980797	 0.5770076947	 0.091369
H	-2.4596083833	-0.954596414	-1.6636861135	 0.293049
H	 1.0203781112	-0.9195599196	-1.6077749134	 0.121439
H	 1.7126230443	 0.7043182376	-1.3526343031	 0.111992
H	 1.1414081885	 0.5820998273	 1.9579463722	 0.118897
H	 0.4356687121	-1.0491907613	 1.8557490609	 0.117374
H	 3.7110697986	-1.2738720115	-0.3399917645	 0.065804
27.5576	83.3021	114.2036	172.9168	218.2303	242.3632	252.7337	294.2688	334.9523	350.9635	399.665	478.2849	546.1721	703.8033	808.2811	891.8458	908.5318	942.6613	955.3709	983.6359	1012.3827	1035.056	1082.9695	1135.9212	1152.0781	1160.9918	1185.405	1212.96	1244.871	1271.8248	1292.012	1317.468	1351.7482	1401.0856	1408.2747	1450.2103	1461.1206	1490.4338	1501.4832	1508.357	1519.9234	1529.7789	1789.6024	2915.4564	2962.59	2995.7484	3026.8536	3030.5231	3035.3436	3074.3752	3078.8373	3097.5954	3122.3107	3836.2537
CC1(CO)CN(C1)C=O	CC1(CO)CN(C1)C=O	
InChI=1S/C6H11NO2/c1-6(4-8)2-7(3-6)5-9/h5,8H,2-4H2,1H3	InChI=1S/C6H11NO2/c1-6(4-8)2-7(3-6)5-9/h5,8H,2-4H2,1H3
