15
gdb 44434	3.70511	1.464	1.42991	3.4457	65.57	-0.2776	-0.0256	0.252	929.9241	0.11271	-457.657311	-457.650668	-457.649724	-457.688253	26.526	
O	-0.0989286608	 0.0460424798	 0.3913533627	-0.290153
C	-0.066053301	 1.1724369927	 0.049852619	 0.373541
O	-1.1719302394	 2.0268200765	-0.2586390682	-0.289204
C	-0.2204465921	 2.8799914256	-1.040114844	 0.094245
C	 0.6876314661	 4.1818771272	-1.0043042436	-0.006604
C	 0.7389894397	 4.6672862902	 0.4360408342	-0.215738
C	 0.9124162709	 3.2703412643	 1.0885745639	-0.240483
C	 0.8752159223	 2.4007012961	-0.1993016589	 0.194757
O	 1.8146947983	 3.1917870496	-1.0741512444	-0.360979
H	-0.2049930944	 2.4899816342	-2.0567314245	 0.129072
H	 0.6989386921	 4.8771556524	-1.8427885128	 0.106481
H	 1.5900612131	 5.3297286394	 0.6032450201	 0.123232
H	-0.1761831366	 5.1827923974	 0.7371086551	 0.120584
H	 1.8803690732	 3.1354568188	 1.5752691604	 0.129355
H	 0.1236660886	 3.0191924159	 1.799244741	 0.131893
137.2188	202.0082	285.4224	329.855	443.2319	505.0029	565.1574	662.284	681.9907	716.3803	752.1417	802.9343	822.4298	833.5448	882.8219	933.0505	953.5957	985.3462	998.3061	1024.5355	1077.3105	1122.6119	1144.2827	1196.5969	1238.4769	1246.079	1280.6969	1304.3645	1346.3556	1396.2213	1469.9495	1493.6019	1956.12	3074.3665	3084.7995	3120.6587	3122.0892	3139.8867	3142.2943
O=C1OC2C3CCC12O3	O=C1O[C@H]2[C@H]3CC[C@@]12O3	
InChI=1S/C6H6O3/c7-5-6-2-1-3(9-6)4(6)8-5/h3-4H,1-2H2	InChI=1S/C6H6O3/c7-5-6-2-1-3(9-6)4(6)8-5/h3-4H,1-2H2/t3-,4+,6+/m1/s1
