17
gdb 102238	2.26553	1.09822	0.90951	1.5186	71.74	-0.2682	0.0028	0.2711	1349.9486	0.131767	-458.955671	-458.945307	-458.944363	-458.99346	35.543	
C	-0.0135278216	 1.4344448418	-0.2100480886	-0.482769
C	 0.2767409603	-0.0373871032	-0.0540352452	 0.444161
O	 0.9691930126	-0.5312787379	 0.7956844538	-0.339438
O	-0.3597332269	-0.7453218637	-1.0252515428	-0.26408
C	-0.1560334443	-2.1859301358	-1.043044445	-0.10279
C	-1.5571537754	-2.811157058	-1.0579500636	-0.066784
O	-2.3216940414	-2.4060151027	-2.1677591403	-0.411801
C	 0.6501671097	-2.5396093467	-2.2045193318	 0.36491
C	 1.3198277243	-2.8604152388	-3.1481842965	-0.471672
H	 0.4450882992	 1.9829999736	 0.6114523962	 0.153443
H	 0.3876283248	 1.7891724979	-1.1639260357	 0.158396
H	-1.0926000903	 1.6093742757	-0.2248348301	 0.14902
H	 0.3659440964	-2.4614113763	-0.1216561653	 0.147545
H	-1.4619063626	-3.899526098	-1.1114821022	 0.12596
H	-2.0454901265	-2.55571398	-0.1042109389	 0.097415
H	-2.3094330604	-1.442355309	-2.1801662427	 0.292018
H	 1.9098009222	-3.1425766089	-3.9851729614	 0.206466
11.9172	60.0294	90.0963	103.1412	142.4966	189.0449	265.1946	310.8208	373.6747	395.8328	425.9505	550.7699	604.4799	621.5675	636.1392	676.9108	687.3769	853.2887	888.203	966.1966	995.1438	1032.4329	1064.0445	1074.8638	1114.2937	1235.2845	1244.2811	1307.2138	1351.1845	1394.5802	1405.5744	1429.0229	1468.7158	1475.6941	1494.9057	1833.9218	2244.0556	2984.1054	3058.7003	3077.8267	3094.0643	3124.4101	3171.8566	3502.9811	3806.8623
CC(=O)OC(CO)C#C	CC(=O)O[C@@H](CO)C#C	
InChI=1S/C6H8O3/c1-3-6(4-7)9-5(2)8/h1,6-7H,4H2,2H3	InChI=1S/C6H8O3/c1-3-6(4-7)9-5(2)8/h1,6-7H,4H2,2H3/t6-/m1/s1
