15
gdb 133118	2.63282	1.58132	0.9942	4.2028	71.9	-0.2304	-0.0201	0.2103	1119.3783	0.113316	-461.96185	-461.954357	-461.953413	-461.994065	28.03	
C	 0.0881874147	 1.3843702429	 0.0070038234	-0.250617
O	 0.0001379416	-0.0300761571	 0.0030694078	-0.252757
C	-1.2346423139	-0.5813155639	 0.0105372396	 0.219293
C	-2.4464181847	 0.0977191005	 0.0220650252	-0.21948
C	-3.6366504947	-0.637950391	 0.0285817514	-0.11783
C	-3.5712820249	-2.0190955331	 0.0233577039	-0.01614
N	-2.4046595046	-2.6863350639	 0.0122129402	-0.311054
C	-1.3041449884	-1.9903592836	 0.0062355528	 0.273093
F	-0.1554103314	-2.6595514405	-0.004768324	-0.059338
H	 1.1529361094	 1.6199926519	-0.0003918618	 0.145561
H	-0.3859467933	 1.8194425343	-0.882029802	 0.128993
H	-0.3722285605	 1.8136220417	 0.9060219799	 0.128992
H	-2.4738970913	 1.1799012226	 0.0259812427	 0.113492
H	-4.5944214595	-0.1307604986	 0.0375892141	 0.103449
H	-4.4702392285	-2.6274148724	 0.0280998768	 0.114343
96.315	165.765	221.2597	249.7267	329.1706	346.918	487.0824	519.7551	564.7697	588.3855	591.0819	771.0867	776.9167	816.6356	873.4931	924.5358	968.2898	1057.4367	1096.4759	1143.623	1177.2319	1210.5642	1236.0843	1301.0041	1314.9603	1364.5555	1467.743	1492.0872	1493.8437	1504.8084	1519.1588	1621.1845	1638.6727	3007.4828	3068.5751	3143.541	3175.7033	3199.0873	3215.08
COC1=CC=CN=C1F	COc1cccnc1F	
InChI=1S/C6H6FNO/c1-9-5-3-2-4-8-6(5)7/h2-4H,1H3	InChI=1S/C6H6FNO/c1-9-5-3-2-4-8-6(5)7/h2-4H,1H3
