19
gdb 8935	2.69323	1.45092	1.34018	4.7094	68.99	-0.2316	0.0392	0.2707	1053.9676	0.163496	-402.216303	-402.206391	-402.205447	-402.251431	34.151	
C	 0.1598308999	 1.60267569	 0.0257858169	-0.402852
C	-0.0476853542	 0.0813277673	 0.0416246221	 0.02415
C	 0.7141349838	-0.5869744308	 1.1952970791	-0.071254
O	 0.2592631329	-0.0246751333	 2.4136071999	-0.410851
N	-1.4595475594	-0.3166627624	 0.0227787664	-0.045062
C	-1.8293707156	-1.4549308922	-0.8025408368	-0.348976
C	-2.3864684988	 0.206553481	 0.8808393234	 0.154605
O	-3.5399458974	-0.1678941754	 0.9723911124	-0.356315
H	 1.2150347367	 1.8244837529	-0.1618400561	 0.117807
H	-0.4357519519	 2.0616682709	-0.7672540922	 0.125338
H	-0.1065719459	 2.0609024367	 0.9792819906	 0.150344
H	 0.3801509321	-0.3200129843	-0.8843898499	 0.087157
H	 0.5366146015	-1.6719001299	 1.163423373	 0.094518
H	 1.7945443169	-0.4200473871	 1.0551061932	 0.089105
H	 0.5566285215	-0.5772863996	 3.1411528327	 0.295569
H	-1.2898140045	-2.3631314221	-0.5032876059	 0.116672
H	-2.8986081259	-1.6232322358	-0.6776684739	 0.169417
H	-1.60865057	-1.2556700159	-1.8577549117	 0.120609
H	-1.9796327117	 1.0259228201	 1.4917448168	 0.090017
45.4889	89.6015	124.5893	150.0505	201.9631	219.3431	249.8164	280.6276	316.2987	347.1064	369.1195	455.7355	588.3551	694.0152	820.2571	886.0314	940.8052	996.939	1016.5264	1056.161	1100.8936	1126.4657	1147.2007	1158.3951	1223.0715	1250.598	1278.25	1334.1571	1358.7367	1402.218	1426.2343	1444.1893	1451.7807	1460.3086	1488.1578	1500.3338	1509.1343	1513.216	1520.289	1779.9711	2970.0221	3010.191	3013.4563	3025.4268	3041.4268	3051.5601	3062.3432	3118.1555	3145.9165	3159.8072	3845.7328
CC(CO)N(C)C=O	C[C@@H](CO)N(C)C=O	
InChI=1S/C5H11NO2/c1-5(3-7)6(2)4-8/h4-5,7H,3H2,1-2H3	InChI=1S/C5H11NO2/c1-5(3-7)6(2)4-8/h4-5,7H,3H2,1-2H3/t5-/m0/s1
