15
gdb 56078	4.66956	0.57334	0.55131	4.736	81.92	-0.2671	-0.0513	0.2158	1932.1502	0.111019	-416.827737	-416.817911	-416.816967	-416.86485	32.795	
C	-0.0697164694	 1.4361039876	-0.1745471604	-0.488533
C	-0.2641089414	-0.0685867082	-0.1351660167	 0.417854
O	-1.1502648058	-0.6068309359	 0.4991600434	-0.356482
N	 0.6365921886	-0.7859189893	-0.8861059488	-0.310368
C	 0.5052680325	-2.223936345	-1.0347925287	-0.312313
C	 0.2831896819	-2.6328444817	-2.4175878935	 0.114791
C	 0.1237676633	-2.962769559	-3.5686057038	 0.000835
C	-0.0588020981	-3.3340400276	-4.8697714691	 0.216936
N	-0.2104666707	-3.6479571599	-5.9778220581	-0.332753
H	-0.7195669892	 1.8597034607	-0.9474141124	 0.159376
H	-0.3737088913	 1.8531905772	 0.7860760331	 0.160543
H	 0.9608256172	 1.7286463268	-0.3926608956	 0.124062
H	 1.3195384567	-0.3036393497	-1.4468302686	 0.256815
H	 1.388921769	-2.7447461992	-0.6427210989	 0.15402
H	-0.3491205434	-2.5097337468	-0.410106032	 0.195216
29.0063	46.6113	58.773	133.3151	146.5132	249.7753	269.1411	349.2737	384.3721	431.2328	518.1256	573.311	581.4237	605.9396	644.7209	731.7603	882.2648	984.2901	1037.705	1052.4743	1106.4246	1170.0343	1246.4408	1268.3896	1368.81	1396.0367	1462.7636	1467.3259	1486.4709	1524.0076	1788.558	2266.92	2403.2608	3019.3044	3049.3297	3074.86	3117.162	3154.456	3651.0646
CC(=O)NCC#CC#N	CC(=O)NCC#CC#N	
InChI=1S/C6H6N2O/c1-6(9)8-5-3-2-4-7/h5H2,1H3,(H,8,9)	InChI=1S/C6H6N2O/c1-6(9)8-5-3-2-4-7/h5H2,1H3,(H,8,9)
