21
gdb 119920	2.14022	1.06186	0.86607	1.2706	85.22	-0.2394	0.0485	0.2879	1446.11	0.180003	-387.042523	-387.031979	-387.031035	-387.07839	38.272	
C	-0.1022630243	 1.5850457136	 0.1547206916	-0.409808
C	-0.002630568	 0.0844696073	-0.0023658992	-0.046566
C	 0.5556205586	-0.5811166478	-1.2313544368	-0.032177
C	 1.0735937021	 0.1848486131	-2.4282574407	-0.203492
C	 2.0421903811	-0.6452320259	-3.2651740067	-0.067887
O	 2.4000770858	 0.1263326727	-4.4023386866	-0.423148
C	 1.3403024781	-0.6434049702	 0.0839320414	-0.220271
C	 2.5640755004	 0.0847456856	 0.2405067487	 0.347707
C	 3.59963283	 0.6837032721	 0.3776746406	-0.483279
H	 0.7878083992	 2.0963662249	-0.2169182088	 0.135516
H	-0.9720632505	 1.976448241	-0.3838446804	 0.117848
H	-0.214697821	 1.8517543453	 1.2107736365	 0.120341
H	-0.8152724897	-0.4577596799	 0.47457556	 0.089672
H	 0.0817127642	-1.5249019533	-1.4937534885	 0.0866
H	 0.2348738057	 0.4881941947	-3.0669487571	 0.104998
H	 1.5871596789	 1.0994020786	-2.1208438099	 0.118932
H	 2.9235192459	-0.89999818	-2.6575297822	 0.100017
H	 1.5603950611	-1.5919530372	-3.5627974679	 0.077684
H	 3.0638909377	-0.3608860708	-4.898476114	 0.284666
H	 1.3270123284	-1.600498628	 0.5976609387	 0.108137
H	 4.5119752162	 1.2120158243	 0.5019055116	 0.194508
62.1872	94.719	111.6677	142.3715	158.2558	182.402	248.113	257.1691	324.7253	353.8132	433.0858	500.1772	573.1416	587.1568	612.4244	647.3228	741.8552	791.0739	810.9666	873.481	945.8675	967.5541	1019.9557	1040.6844	1065.2771	1081.3393	1107.1076	1139.0321	1148.7921	1184.3849	1231.4577	1246.1692	1260.3495	1315.9483	1323.2426	1365.7918	1394.1556	1422.4071	1441.2096	1461.7547	1484.409	1494.8011	1503.2491	1526.1296	2228.3865	2957.9796	3003.717	3037.0538	3040.3874	3095.0129	3100.9473	3121.6744	3125.4475	3138.0689	3148.2976	3505.0129	3833.1471
CC1C(CCO)C1C#C	C[C@H]1[C@@H](CCO)[C@H]1C#C	
InChI=1S/C8H12O/c1-3-7-6(2)8(7)4-5-9/h1,6-9H,4-5H2,2H3	InChI=1S/C8H12O/c1-3-7-6(2)8(7)4-5-9/h1,6-9H,4-5H2,2H3/t6-,7+,8-/m1/s1
