16
gdb 7263	4.50511	1.1289	0.95657	1.6336	65.99	-0.267	-0.0293	0.2377	1189.9657	0.129793	-417.098275	-417.089532	-417.088588	-417.132091	30.881	
C	 0.0582175288	 1.4366944947	-0.4434339195	-0.395669
C	 0.0524108074	 0.0251933754	 0.1645871322	 0.038176
O	 0.7904336653	-0.0018384673	 1.3554279388	-0.433762
C	-1.3734846704	-0.4562048382	 0.4619951711	 0.404938
O	-1.7372565334	-0.6463230841	 1.6090275996	-0.375213
N	-2.1882271085	-0.651857145	-0.6246084552	-0.306415
C	-3.5084904268	-1.0780565035	-0.543329893	 0.101149
N	-4.1848669228	-1.2396804061	-1.6041089138	-0.457935
H	 1.0938837134	 1.7592489691	-0.5737041631	 0.141317
H	-0.4379301162	 1.4705061653	-1.4189173045	 0.109053
H	-0.4397863311	 2.1407520306	 0.229412486	 0.133991
H	 0.4979617399	-0.6764215019	-0.5601793248	 0.093568
H	 0.1492239357	-0.2284437575	 2.0490929065	 0.295591
H	-1.8316700044	-0.495156018	-1.5572959779	 0.268363
H	-3.8285214197	-1.2340078569	 0.4882438006	 0.144808
H	-5.127371867	-1.5535420065	-1.380545583	 0.238042
50.8098	105.9913	155.7417	181.9272	229.8464	275.997	354.1883	377.0636	430.1874	471.0791	511.1876	641.1925	682.7836	759.6396	834.9618	897.9118	957.4902	1053.2004	1069.4152	1088.4004	1100.923	1169.5854	1204.3662	1285.1084	1299.9276	1362.2119	1392.6273	1404.9429	1437.0237	1481.8304	1495.7916	1522.4519	1729.6195	1782.8231	2968.3212	3040.2566	3114.0885	3128.9586	3131.1771	3510.5785	3606.7516	3674.0926
CC(O)C(=O)NC=N	C[C@@H](O)C(=O)NC=N	
InChI=1S/C4H8N2O2/c1-3(7)4(8)6-2-5/h2-3,7H,1H3,(H2,5,6,8)	InChI=1S/C4H8N2O2/c1-3(7)4(8)6-2-5/h2-3,7H,1H3,(H2,5,6,8)/t3-/m1/s1
