21
gdb 104892	2.38429	1.36374	1.0899	2.9625	73.8	-0.2557	0.0751	0.3308	1202.4923	0.182344	-461.347777	-461.338345	-461.337401	-461.382325	34.973	
C	 0.6698474098	-0.3697420989	 1.324721738	-0.26381
O	 0.1561174873	 0.080503751	 0.0837922314	-0.303351
C	 0.7233982204	-0.4924444715	-1.0981167955	 0.365812
C	 2.2116796039	-0.1343046436	-1.1926778329	-0.104614
O	 2.422201327	 1.2546657611	-1.0378517687	-0.432744
C	 0.4827552532	-2.0178998677	-1.2688241528	-0.310608
C	-0.3224997013	-2.1148391568	-2.5822287657	-0.0745
O	-0.0690691793	-0.9029755953	-3.2789004856	-0.243753
C	-0.057860068	 0.1072981626	-2.289494496	-0.13736
H	 0.6115542896	-1.461300361	 1.4265789409	 0.114974
H	 1.7112731375	-0.0607904895	 1.4873818913	 0.119262
H	 0.0479997469	 0.0854943337	 2.0993248857	 0.133874
H	 2.7873679088	-0.712552043	-0.4512629719	 0.083429
H	 2.5775504719	-0.4214297167	-2.1845487173	 0.119614
H	 1.7738421249	 1.5541354505	-0.3883307229	 0.289419
H	 1.4310000938	-2.5588955426	-1.3417336899	 0.10893
H	-0.0710341394	-2.4290055951	-0.4219295351	 0.11263
H	-0.0217440261	-2.9447280967	-3.2259782815	 0.110309
H	-1.3983505885	-2.2146305037	-2.3676669646	 0.094167
H	-1.0748076279	 0.3585902874	-1.9500945299	 0.094228
H	 0.4184550054	 0.9977929757	-2.702920197	 0.124091
44.7987	120.8108	149.1142	192.8885	211.5145	263.9688	289.4479	361.7754	373.9002	412.2943	441.4146	511.8961	643.3721	676.9903	783.0434	823.2342	911.052	936.1604	967.2746	977.1305	1027.6244	1071.5386	1087.0417	1116.6805	1130.976	1163.9322	1178.3525	1183.2574	1220.9187	1231.1219	1254.9472	1270.6886	1288.0011	1323.8022	1339.8277	1368.4758	1399.1559	1432.4293	1477.468	1481.0405	1492.5849	1507.5258	1509.7155	1519.914	1525.2594	2968.5936	2978.5909	2989.4082	3001.2425	3055.0097	3058.3221	3069.8917	3096.9186	3112.9473	3116.3057	3120.7536	3777.6297
COC1(CO)CCOC1	CO[C@@]1(CO)CCOC1	
InChI=1S/C6H12O3/c1-8-6(4-7)2-3-9-5-6/h7H,2-5H2,1H3	InChI=1S/C6H12O3/c1-8-6(4-7)2-3-9-5-6/h7H,2-5H2,1H3/t6-/m1/s1
