14
gdb 19671	5.0124	1.81197	1.68561	1.9769	66.01	-0.2357	0.0372	0.273	782.7657	0.106863	-345.291533	-345.285313	-345.284369	-345.321745	24.735	
C	 0.0539262714	-1.2399194479	-0.0361708805	-0.438024
C	 0.0502303429	-0.0390806135	 0.0216740497	 0.316215
C	 0.0287850882	 1.4099371737	 0.0774549482	-0.18592
C	-0.1658057788	 2.1497217918	 1.4109813006	-0.122952
C	 1.2530409833	 2.3030004501	 1.9832503789	 0.100688
O	 2.1607451015	 1.6385458571	 1.1063298246	-0.278464
C	 1.385125761	 2.1946598469	 0.0178448327	 0.059664
C	 0.7614775221	 3.2797278823	 0.972259745	-0.168289
H	 0.0702349977	-2.3007713918	-0.0785044648	 0.193804
H	-0.6571449475	 1.8231695059	-0.6689469487	 0.106507
H	-1.0597656221	 2.2026708585	 2.0181718392	 0.100899
H	 1.4947526581	 2.3847825218	 3.0340319102	 0.115217
H	 1.9451852308	 2.3206121045	-0.905552334	 0.095617
H	 0.6538530215	 4.3541574406	 0.938223939	 0.10504
135.4727	156.2426	361.6522	441.1197	543.1068	626.1982	629.5484	641.3847	759.8107	773.4213	788.1623	800.0853	836.061	887.4172	937.0243	968.3861	986.3369	1020.7132	1031.5832	1034.638	1060.9247	1101.7565	1147.8018	1167.7812	1218.3399	1222.388	1307.0243	1348.3584	1372.6303	2235.5855	3060.929	3154.9029	3205.93	3212.5735	3228.1877	3503.9146
C#CC1C2C3OC1C23	C#C[C@H]1[C@H]2[C@H]3O[C@@H]1[C@@H]23	
InChI=1S/C7H6O/c1-2-3-4-5-6(3)8-7(4)5/h1,3-7H	InChI=1S/C7H6O/c1-2-3-4-5-6(3)8-7(4)5/h1,3-7H/t3-,4+,5+,6-,7+/m0/s1
