15
gdb 31213	2.11852	1.5896	0.94997	4.6553	74.55	-0.2445	-0.0273	0.2172	1180.7194	0.11427	-416.84441	-416.836184	-416.83524	-416.878023	29.511	
N	 0.3556602329	 1.5259330768	-0.1814215873	-0.504865
C	-0.029695647	 0.1310040724	 0.0705248905	-0.287412
C	 0.6860345489	-0.4068305984	 1.2604908627	 0.324792
C	 0.2675020899	-0.8883712648	 2.4741029746	 0.069995
C	 1.4544851491	-1.2686138656	 3.1986522142	-0.287464
C	 2.4898630976	-0.9875237343	 2.3756058878	-0.005717
O	 2.0361096041	-0.4691785355	 1.1963177982	-0.179561
C	-1.0764116273	-0.9874089249	 2.9096834275	 0.198555
N	-2.1756053859	-1.0737410646	 3.2646746285	-0.349887
H	 1.3363427198	 1.5620013227	-0.4435894926	 0.23752
H	-0.1668663235	 1.8776061329	-0.9780171753	 0.236055
H	-1.1013533425	 0.0960523132	 0.287861513	 0.146277
H	 0.1492387031	-0.5477375267	-0.7820652241	 0.110553
H	 1.499035648	-1.6870815486	 4.1906010576	 0.139739
H	 3.5585402428	-1.0874150347	 2.4620469146	 0.15142
51.9425	130.4899	156.0764	178.7978	218.1545	324.8686	394.699	519.4946	546.7736	592.6483	635.8857	686.0454	739.8169	766.9337	840.0099	851.6755	911.823	983.9439	1047.7139	1070.145	1094.5705	1162.3561	1185.4472	1269.1945	1285.8542	1312.3631	1406.6089	1439.9227	1494.6651	1553.5583	1631.5953	1656.1056	2347.815	2944.4324	3088.8663	3271.8597	3296.3273	3494.5629	3574.6867
NCC1=C(C=CO1)C#N	NCc1c(cco1)C#N	
InChI=1S/C6H6N2O/c7-3-5-1-2-9-6(5)4-8/h1-2H,4,8H2	InChI=1S/C6H6N2O/c7-3-5-1-2-9-6(5)4-8/h1-2H,4,8H2
