21
gdb 81334	2.40852	1.74615	1.34143	1.6271	77.49	-0.2415	0.0718	0.3134	1054.6096	0.182148	-424.210356	-424.201696	-424.200751	-424.242768	34.755	
C	-0.285393287	 1.6228001082	-0.1137830886	-0.433642
C	 0.0121967857	 0.13859327	 0.0215815652	 0.039556
C	 1.1766374056	-0.5823991837	-0.7050883629	 0.056403
C	 2.4559297376	 0.1470239898	-0.2513320949	-0.291708
C	 2.1512611772	 0.1606517755	 1.290961663	 0.423382
C	 3.1458162513	-0.6518730599	 2.1139861545	-0.459342
O	 1.9860347407	 1.4614045394	 1.8450076493	-0.48675
C	 0.7652600974	-0.5306856486	 1.2036690676	 0.019134
O	 1.0758032661	-1.6414970365	 0.3054620441	-0.302981
H	 0.5910260802	 2.2468299301	 0.0574158665	 0.135797
H	-0.6836202405	 1.834473488	-1.1127593751	 0.107653
H	-1.047292486	 1.9247681729	 0.6127168916	 0.119052
H	-0.892231628	-0.452212136	-0.1495946724	 0.085178
H	 1.1078069359	-0.9389083139	-1.7335540883	 0.074265
H	 3.351659034	-0.4255287758	-0.5037056847	 0.101031
H	 2.5530546935	 1.1581761959	-0.6543005805	 0.100952
H	 4.1552828725	-0.2289164121	 2.0326292934	 0.102798
H	 2.8579359902	-0.6506489858	 3.1704939985	 0.117393
H	 3.1818534319	-1.6827380857	 1.755450767	 0.141368
H	 2.8596835111	 1.8117367949	 2.045865517	 0.277453
H	 0.2861329607	-0.8226077466	 2.1390787097	 0.073011
152.4302	193.3985	212.2749	245.1941	259.94	278.7359	329.9946	367.375	419.0047	458.1495	547.3053	597.9272	615.2534	724.5299	792.1099	820.7852	870.4462	895.1652	916.4808	944.2533	949.0223	960.1807	1024.9662	1052.5286	1064.9486	1092.6345	1114.0806	1164.271	1171.1525	1202.7181	1210.971	1235.3779	1253.8374	1285.6294	1297.9653	1333.4806	1391.0245	1394.8248	1399.2939	1418.0643	1477.6106	1490.1249	1492.4098	1502.2726	1507.5282	3022.3925	3036.5794	3065.1811	3070.7357	3088.1904	3091.9347	3112.3922	3116.9478	3117.877	3133.4554	3155.9538	3814.376
CC1C2CC(C)(O)C1O2	C[C@H]1[C@H]2C[C@@](C)(O)[C@@H]1O2	
InChI=1S/C7H12O2/c1-4-5-3-7(2,8)6(4)9-5/h4-6,8H,3H2,1-2H3	InChI=1S/C7H12O2/c1-4-5-3-7(2,8)6(4)9-5/h4-6,8H,3H2,1-2H3/t4-,5+,6+,7+/m0/s1
