16
gdb 80090	2.41903	1.80903	1.4151	3.9834	70.8	-0.2213	-0.0097	0.2115	951.0517	0.126304	-437.915996	-437.908606	-437.907662	-437.947657	29.23	
O	 0.0679211248	 1.4074452868	-0.0701556938	-0.416135
C	-0.0161874088	 0.0251415581	-0.023435341	 0.110829
C	-0.4411525674	-0.690767658	 1.2360337636	-0.164046
C	-0.8917536007	 0.1376581491	 2.3730594292	-0.139608
C	-1.9775573951	 0.9182355674	 2.2659349384	-0.019311
N	-2.7781598959	 0.9349906659	 1.1302288783	-0.334753
C	-2.6249534577	 0.0963099492	 0.0334974936	 0.442831
O	-3.4891223037	 0.0175143531	-0.8156443682	-0.370023
C	-1.3601292479	-0.6876717762	-0.0052403389	-0.226804
H	-0.0850492227	 1.7422472231	 0.8245182416	 0.289912
H	 0.7497530074	-0.4511597978	-0.6279799928	 0.116516
H	 0.0731833376	-1.6156607569	 1.4756580024	 0.102646
H	-0.324943903	 0.1311566804	 3.2953468276	 0.106642
H	-2.3128543682	 1.5658738595	 3.0674708562	 0.125635
H	-3.6428616812	 1.4547960624	 1.1361801467	 0.25793
H	-1.4460759074	-1.587620016	-0.6018640231	 0.117739
116.6499	160.8378	230.8883	318.8119	412.2445	430.05	448.6207	538.642	548.2675	604.1226	655.1095	734.2683	754.0273	759.5109	806.9058	850.9684	920.6635	940.3197	958.7135	1024.8083	1039.4423	1063.8308	1113.8593	1124.8459	1202.0951	1220.8567	1283.534	1337.8286	1359.7601	1378.2884	1421.9987	1436.0118	1470.3446	1702.6646	1796.5766	3152.771	3161.8354	3192.3286	3197.7696	3217.7296	3627.2195	3724.8606
OC1C2C=CNC(=O)C12	O[C@H]1[C@H]2C=CNC(=O)[C@@H]12	
InChI=1S/C6H7NO2/c8-5-3-1-2-7-6(9)4(3)5/h1-5,8H,(H,7,9)	InChI=1S/C6H7NO2/c8-5-3-1-2-7-6(9)4(3)5/h1-5,8H,(H,7,9)/t3-,4+,5-/m0/s1
