21
gdb 108064	2.51875	1.56608	1.21344	1.7554	82.04	-0.2198	0.0784	0.2982	1129.3099	0.181493	-387.037458	-387.028709	-387.027765	-387.070672	33.965	
C	 0.1189719263	 1.4485233904	 0.2343626428	-0.375207
C	-0.1184177912	-0.0245169228	-0.126832248	-0.30462
C	 0.6608898464	-0.4688084247	-1.3318810745	 0.263093
C	 0.485777851	 0.0002370918	-2.7830714889	-0.287763
C	 1.4027772155	-1.191463306	-3.1442585848	 0.067427
O	 2.6901518602	-0.8092979044	-2.5843520473	-0.330318
C	 2.1052459839	-1.0321341323	-1.2936433231	 0.438188
C	 3.0121474134	-1.1097700041	-0.1128688946	-0.51064
C	 0.9915474222	-1.8927309074	-1.8004655052	-0.266263
H	 1.1721273944	 1.6335346149	 0.4687008571	 0.120407
H	-0.1552845391	 2.1070352528	-0.5962602201	 0.121801
H	-0.4778625684	 1.7414855248	 1.1035355313	 0.110962
H	 0.1372619998	-0.6595808698	 0.7311387159	 0.095659
H	-1.1894654984	-0.1879559685	-0.3087000721	 0.098518
H	-0.5425503713	-0.1560530754	-3.1231290546	 0.09699
H	 0.8424697514	 0.9927059817	-3.0779260126	 0.096181
H	 1.4705046764	-1.6192246339	-4.1422663287	 0.082854
H	 3.5476394187	-0.1640637219	 0.0248918296	 0.132445
H	 2.4466179177	-1.3178606353	 0.7995976778	 0.126375
H	 3.7532554446	-1.9042388047	-0.2456283681	 0.13146
H	 0.6090359066	-2.8677909254	-1.529041222	 0.092451
75.9777	140.5436	185.8603	193.9266	237.405	276.0241	364.4035	388.1799	458.5876	516.5416	625.9465	649.7859	742.75	783.0275	792.2432	807.0903	873.5625	907.8293	925.1789	935.5131	973.5959	975.095	1013.7148	1037.1625	1088.0389	1093.4682	1111.0068	1143.1415	1157.7971	1173.7258	1225.7104	1238.6158	1285.6779	1305.9755	1336.7214	1374.8773	1402.5607	1411.3835	1451.7091	1471.5646	1484.1375	1489.3401	1497.8092	1501.8435	1508.8315	3010.5799	3035.3633	3035.8513	3039.4927	3041.4653	3098.7465	3098.975	3104.8993	3107.9878	3117.8079	3142.3962	3198.5656
CCC12CC3OC1(C)C23	CC[C@@]12C[C@H]3O[C@]1(C)[C@@H]23	
InChI=1S/C8H12O/c1-3-8-4-5-6(8)7(8,2)9-5/h5-6H,3-4H2,1-2H3	InChI=1S/C8H12O/c1-3-8-4-5-6(8)7(8,2)9-5/h5-6H,3-4H2,1-2H3/t5-,6+,7-,8+/m1/s1
