19
gdb 102936	2.14446	0.88709	0.65635	4.4298	77.84	-0.2595	-0.0355	0.224	1676.4411	0.156872	-419.215785	-419.205315	-419.204371	-419.25276	35.717	
C	-0.2043767485	 1.5726600661	 0.1187762467	-0.409272
C	-0.0266356959	 0.0547460923	 0.0184507063	-0.191281
C	 0.6810345168	-0.3957142055	-1.2775013975	-0.093287
N	 2.0733751654	 0.0531079601	-1.302742469	-0.316416
C	 2.7763727014	-0.1763228407	-2.5591510744	-0.237961
C	 4.2654579182	 0.0700017582	-2.3822268358	 0.148813
O	 4.9781223691	 0.5440623502	-3.2265083765	-0.232008
C	 0.6462888127	-1.8656964539	-1.3801905675	 0.30477
N	 0.6034217697	-3.016750667	-1.4702243711	-0.326608
H	 0.7493039112	 2.102648997	 0.2120909679	 0.125608
H	-0.731173536	 1.9719688782	-0.7547380302	 0.126304
H	-0.792955357	 1.8246434881	 1.0051810609	 0.134131
H	 0.5464188082	-0.3243795593	 0.870525178	 0.131533
H	-1.0070650683	-0.4304895316	 0.0478600579	 0.1274
H	 0.098314401	-0.0124896455	-2.1368351114	 0.108324
H	 2.0922471386	 1.0404407865	-1.0738857481	 0.233324
H	 2.6686284902	-1.239033986	-2.8216896462	 0.159552
H	 2.4132513428	 0.4113527742	-3.4168502573	 0.114266
H	 4.6503302304	-0.2425423915	-1.3861307228	 0.092806
51.7121	70.2017	85.1321	110.1273	133.4337	163.8237	217.5887	276.6353	320.0424	363.1793	411.2508	515.2684	554.512	607.5828	714.1309	780.7129	807.3754	864.9519	956.0511	993.101	1052.1762	1061.5693	1096.5898	1117.0133	1154.6478	1172.3942	1245.7727	1279.33	1321.9744	1335.4868	1367.1173	1385.7599	1409.0067	1416.591	1472.7117	1479.998	1490.8894	1500.1192	1518.378	1840.985	2360.3244	2895.0666	2920.0513	2984.299	3035.6589	3037.4753	3055.7374	3087.8265	3110.8244	3114.0279	3542.1055
CCC(NCC=O)C#N	CC[C@@H](NCC=O)C#N	
InChI=1S/C6H10N2O/c1-2-6(5-7)8-3-4-9/h4,6,8H,2-3H2,1H3	InChI=1S/C6H10N2O/c1-2-6(5-7)8-3-4-9/h4,6,8H,2-3H2,1H3/t6-/m1/s1
