21
gdb 107726	3.89335	1.1321	1.07829	1.7069	82.42	-0.2214	0.0829	0.3043	1246.1013	0.181147	-387.03898	-387.030209	-387.029265	-387.07218	34.176	
C	-0.3269886475	 1.459797593	 0.0472504976	-0.372977
C	 0.1309197584	-0.0034644155	-0.02237013	-0.305658
C	 0.8733750604	-0.4463415253	 1.2055280723	 0.309955
C	 2.2267109659	 0.0387768426	 1.7352619659	-0.318624
C	 2.1453508447	-1.1678849235	 2.7114298262	 0.424169
C	 3.3193732635	-1.7476307802	 3.4349650136	-0.505422
O	 1.0295054639	-0.7929655871	 3.5863594528	-0.33209
C	 0.1833700389	-1.0151483557	 2.4619572377	 0.058451
C	 1.142593836	-1.8669286345	 1.7062637368	-0.27133
H	 0.5270797524	 2.1353420052	 0.1615973898	 0.120795
H	-0.8615926798	 1.7486045276	-0.8627999253	 0.110581
H	-0.9942630679	 1.6232305205	 0.8995679736	 0.120094
H	-0.7409888486	-0.6552401726	-0.1681233345	 0.096147
H	 0.7647479304	-0.1478615195	-0.907846893	 0.097832
H	 3.015228816	-0.0963128057	 0.9885536531	 0.095061
H	 2.3007229651	 1.0284674791	 2.1989941451	 0.094232
H	 3.7352395645	-1.0081161614	 4.1281098445	 0.132402
H	 3.0240634572	-2.6292814455	 4.0107743715	 0.13093
H	 4.1032934611	-2.0352957434	 2.7278371001	 0.121367
H	-0.8878300607	-1.0725171369	 2.6076836934	 0.101489
H	 1.0851140561	-2.8426289312	 1.2422389087	 0.092598
78.537	132.0868	185.9884	202.8816	261.6763	265.4497	344.4781	396.4064	459.5455	527.9337	594.0518	647.4559	753.1177	769.9103	794.6573	817.5808	827.6225	875.3587	910.9474	963.2073	972.2516	993.105	1001.2021	1031.9695	1061.4386	1074.1646	1105.9959	1131.1213	1155.8338	1171.8171	1191.9948	1238.2094	1285.8878	1321.8122	1344.2077	1352.403	1406.0508	1411.2053	1421.8963	1477.9971	1482.2916	1489.2977	1490.4136	1497.4376	1507.1734	3008.56	3034.3899	3035.8466	3037.8748	3038.4977	3096.9473	3104.5734	3106.8735	3107.7429	3117.9041	3192.5998	3206.6136
CCC12CC3(C)OC1C23	CC[C@@]12C[C@@]3(C)O[C@@H]1[C@@H]23	
InChI=1S/C8H12O/c1-3-8-4-7(2)5(8)6(8)9-7/h5-6H,3-4H2,1-2H3	InChI=1S/C8H12O/c1-3-8-4-7(2)5(8)6(8)9-7/h5-6H,3-4H2,1-2H3/t5-,6-,7-,8+/m1/s1
