15
gdb 43984	2.86601	1.7751	1.56372	2.4487	64.61	-0.2424	-0.0273	0.2151	883.894	0.112459	-457.712903	-457.70604	-457.705096	-457.744228	26.942	
O	-0.0044878543	 0.0627706115	-0.3163668378	-0.298434
C	 0.0119813954	 1.2147397403	 0.0034318128	 0.335843
C	-1.1305682391	 2.2669188574	 0.2058916344	-0.409512
C	-0.047321759	 3.3360014597	-0.01938743	 0.310985
C	 0.9885425649	 3.3414942379	 1.0478738463	-0.367703
C	 1.079423146	 2.2877688561	-0.0517788976	 0.174274
O	 1.8933341189	 2.6081244526	-1.1353781346	-0.270589
C	 1.0444156304	 3.3766015527	-1.9933498298	-0.002574
O	 0.1377274405	 4.1181745013	-1.1567966416	-0.288427
H	-1.8448098764	 2.1785707932	-0.6170776537	 0.147862
H	-1.6698429181	 2.3073828261	 1.1550598725	 0.129526
H	 1.7633105848	 4.0926659547	 0.9553944579	 0.149727
H	 0.7262110786	 3.0563059	 2.0616825556	 0.134158
H	 1.6564340288	 4.078155499	-2.563592427	 0.137208
H	 0.4755615485	 2.7128469876	-2.6612381775	 0.117655
88.6513	191.6554	285.0978	358.8239	413.6153	464.219	533.6691	594.7255	615.7427	671.3834	746.7572	765.0523	833.9169	863.755	899.6289	937.0713	962.1402	989.2457	1031.5074	1069.1968	1085.7201	1113.0209	1154.0608	1200.2146	1217.0342	1259.1284	1264.0537	1332.4923	1414.4304	1445.1812	1469.2305	1530.9124	1872.6357	2996.7127	3067.414	3122.3145	3127.5399	3134.9324	3240.7314
O=C1CC23CC12OCO3	O=C1C[C@@]23C[C@@]12OCO3	
InChI=1S/C6H6O3/c7-4-1-5-2-6(4,5)9-3-8-5/h1-3H2	InChI=1S/C6H6O3/c7-4-1-5-2-6(4,5)9-3-8-5/h1-3H2/t5-,6-/m1/s1
