23
gdb 81038	2.10145	1.73964	1.4772	1.6276	83.94	-0.2325	0.0785	0.3111	1083.7798	0.207025	-388.299822	-388.291092	-388.290148	-388.332502	34.927	
C	-0.1568838712	 1.6290301763	-0.0271980536	-0.439333
C	 0.0453818273	 0.1227553386	 0.0108836852	-0.002572
C	 1.0780229539	-0.6115039298	-0.8734020749	 0.075164
C	 2.3953538669	 0.1588568932	-1.0103496288	-0.226326
C	 3.0791833349	 0.2435266557	 0.3784417902	-0.18727
C	 2.0728746476	 0.1889843493	 1.5569967371	-0.262025
C	 0.8195272878	-0.6050061041	 1.1464489559	 0.404591
C	 0.0513415332	-1.1975470723	 2.3056025497	-0.475364
O	 1.2294651771	-1.6191119165	 0.1682792097	-0.334406
H	 0.7753820115	 2.1900260017	 0.0799652142	 0.121079
H	-0.6165722697	 1.9324809403	-0.9745589181	 0.117276
H	-0.8291044505	 1.9503948196	 0.7763402173	 0.117512
H	-0.9200663649	-0.3808246623	-0.1060648601	 0.074467
H	 0.7330780693	-1.0463096026	-1.8161276286	 0.067124
H	 3.0595058895	-0.3529468587	-1.7142547166	 0.09917
H	 2.1989586656	 1.150524243	-1.4344510597	 0.096693
H	 3.7415183598	-0.6198348299	 0.4724568016	 0.115021
H	 3.7137819505	 1.1321002732	 0.4491557987	 0.089436
H	 2.5492397649	-0.2893755162	 2.4197756458	 0.094871
H	 1.7748955703	 1.1909935548	 1.8864441434	 0.097286
H	-0.2746796616	-0.4101979323	 2.9944709359	 0.115441
H	-0.8301024788	-1.7391798367	 1.9509642172	 0.118467
H	 0.6817151067	-1.8958719844	 2.8664011585	 0.123699
118.1426	175.7634	193.0627	220.8679	267.008	269.4485	306.0648	430.7493	452.0224	501.5982	526.7937	603.1054	684.5177	734.4313	797.7504	824.0528	863.349	873.7608	894.4103	926.5601	944.0415	1000.4873	1024.8478	1037.9107	1063.415	1105.3353	1117.9491	1142.4135	1166.2001	1208.0915	1218.6967	1242.5065	1266.2057	1288.3069	1314.5793	1340.6386	1350.9219	1363.6084	1382.4987	1402.2341	1408.2256	1414.8091	1477.869	1481.892	1484.787	1493.2636	1496.192	1507.6462	1509.1879	3029.7204	3030.1071	3035.9155	3036.1105	3045.5207	3058.7599	3062.7964	3067.1517	3074.3386	3088.5095	3099.3632	3104.4667	3109.7857	3112.8041
CC1C2CCCC1(C)O2	C[C@H]1[C@H]2CCC[C@]1(C)O2	
InChI=1S/C8H14O/c1-6-7-4-3-5-8(6,2)9-7/h6-7H,3-5H2,1-2H3	InChI=1S/C8H14O/c1-6-7-4-3-5-8(6,2)9-7/h6-7H,3-5H2,1-2H3/t6-,7+,8-/m0/s1
