17
gdb 69267	2.79703	1.55596	1.14343	5.0889	68.35	-0.2639	-0.0146	0.2493	1072.0751	0.135946	-458.986216	-458.978253	-458.977309	-459.018779	30.088	
C	 0.0314379599	 1.5295281579	-0.0801722021	-0.475939
C	-0.0391401467	 0.0279425231	 0.049958988	 0.398799
C	-1.1907689551	-0.7002057668	-0.6373980044	-0.287066
C	-1.8729462599	-1.6626103977	 0.3271194201	-0.08522
O	-0.9542273843	-2.5522014671	 0.9860387675	-0.23023
C	 0.1002932993	-2.0220471451	 1.6503979166	 0.444963
O	 0.6607520847	-2.6491191519	 2.5055257553	-0.324717
C	 0.5662333183	-0.6546047674	 1.2125878857	-0.181864
O	 1.2130942255	-0.6546024097	-0.0712073289	-0.271763
H	 0.9147613617	 1.9197802076	 0.430908501	 0.137001
H	 0.0898668091	 1.8163981588	-1.1357773923	 0.135271
H	-0.8602502842	 1.999756322	 0.347653402	 0.126674
H	-1.935718402	 0.0121125706	-1.0066687296	 0.112957
H	-0.7923215248	-1.2429052648	-1.5001063899	 0.135807
H	-2.4280162612	-1.1062426522	 1.0936569691	 0.116249
H	-2.5772547656	-2.3180404537	-0.1888501314	 0.131325
H	 1.0842709653	-0.0979325335	 1.9899819032	 0.117754
83.3411	154.7783	213.1254	223.6347	298.6761	356.2836	409.5631	440.0981	464.7375	533.0969	655.4723	715.1937	759.112	820.9078	858.0792	899.7968	905.8222	998.1325	1023.6259	1039.3544	1097.0328	1106.3731	1130.8043	1206.5354	1231.8425	1263.2685	1299.1128	1311.2212	1374.4864	1412.5122	1424.7629	1445.361	1471.1175	1485.356	1495.436	1511.3588	1851.5641	3024.6317	3035.7713	3052.7924	3099.1776	3101.1026	3114.5589	3127.2079	3147.3763
CC12CCOC(=O)C1O2	C[C@]12CCOC(=O)[C@H]1O2	
InChI=1S/C6H8O3/c1-6-2-3-8-5(7)4(6)9-6/h4H,2-3H2,1H3	InChI=1S/C6H8O3/c1-6-2-3-8-5(7)4(6)9-6/h4H,2-3H2,1H3/t4-,6+/m1/s1
