23
gdb 65111	3.17787	1.09766	0.99113	0.2067	92.1	-0.2217	0.0326	0.2543	1344.8342	0.206613	-351.165996	-351.156896	-351.155951	-351.199989	35.3	
C	-0.0984845865	 1.4592437205	 0.3503178946	-0.466135
C	-0.0118188255	-0.0308157777	 0.0516935686	 0.262984
C	 1.2958121169	-0.539649216	-0.5297344005	-0.290048
C	 0.9223565951	-0.8595528032	 0.8981761699	-0.307577
C	-1.2711818726	-0.6429910616	-0.4572440724	 0.279361
C	-1.964401984	-1.6563428265	 0.0691403359	-0.181868
C	-3.2109960497	-1.9851501226	-0.7159152826	-0.243785
C	-3.0043755777	-1.2014384446	-2.037373047	-0.208172
C	-1.9641863384	-0.1061024068	-1.7002811028	-0.303063
H	 0.8670323535	 1.8448106246	 0.6925531024	 0.110718
H	-0.3869915853	 2.0301466947	-0.5389258125	 0.118557
H	-0.8386870999	 1.6613947684	 1.1326072567	 0.117605
H	 1.2492910213	-1.3466588715	-1.2527377278	 0.110642
H	 2.0879894078	 0.1802766837	-0.7089946583	 0.105694
H	 1.4623584432	-0.3566011269	 1.6935339378	 0.10601
H	 0.6462322514	-1.8820412516	 1.1273165104	 0.111977
H	-1.7016010621	-2.1727566532	 0.985979362	 0.081247
H	-3.3434205623	-3.0604567909	-0.8832292545	 0.097581
H	-4.1089912975	-1.6488873711	-0.1767834962	 0.101383
H	-2.5889915916	-1.8741617054	-2.794747721	 0.102174
H	-3.9348402614	-0.7954956669	-2.442762326	 0.093314
H	-2.4472496766	 0.8574308287	-1.4838535536	 0.102525
H	-1.265056278	 0.0815967061	-2.5236234733	 0.098876
51.4165	115.437	165.0859	194.0256	228.7629	299.8487	310.504	335.2843	468.5126	507.573	543.5365	647.6715	784.9089	796.2994	817.1542	855.6061	865.3446	888.7828	906.8602	918.5426	932.2688	950.5746	978.0547	1032.9897	1039.7439	1062.0533	1072.43	1081.6726	1096.4953	1120.8776	1150.1449	1189.4167	1222.2134	1231.7598	1267.7753	1299.6416	1314.2594	1326.7544	1346.8346	1370.203	1413.2667	1464.0833	1484.1431	1488.4354	1491.1174	1497.7099	1506.7178	1507.7677	1710.6799	2997.6115	3003.9607	3026.0462	3038.7214	3047.4521	3058.6263	3089.8729	3097.299	3099.5533	3125.9934	3135.612	3187.9606	3208.662	3223.8311
CC1(CC1)C1=CCCC1	CC1(CC1)C1=CCCC1	
InChI=1S/C9H14/c1-9(6-7-9)8-4-2-3-5-8/h4H,2-3,5-7H2,1H3	InChI=1S/C9H14/c1-9(6-7-9)8-4-2-3-5-8/h4H,2-3,5-7H2,1H3
