16
gdb 124087	5.02292	1.0474	0.99313	1.6751	69.49	-0.2675	-0.0024	0.2651	1183.0866	0.127182	-434.057705	-434.050347	-434.049403	-434.091397	26.07	
C	-0.0452120256	 1.3702288453	-0.3372148128	-0.090572
O	 1.3022315819	 1.6282809667	 0.1011005432	-0.266288
C	 1.4394845895	 0.3028911364	 0.6477380817	-0.090583
C	 0.0607491968	-0.1150451959	 0.0833444899	 0.005332
N	-0.9241995284	-0.6426872407	 0.9962577933	 0.02639
C	-1.3660595639	-0.1637216245	 2.1816957994	 0.011455
N	-2.2816031516	-0.9638450894	 2.6944264285	-0.273665
C	-2.3683935592	-1.9481483296	 1.758016124	 0.037546
N	-1.5715121744	-1.804118613	 0.7128677115	-0.24574
H	-0.7887626283	 1.9465041932	 0.2278191759	 0.114135
H	-0.1789424402	 1.559179278	-1.4076429197	 0.121742
H	 2.3070131217	-0.2279640668	 0.2415466851	 0.121742
H	 1.4961903361	 0.3038883134	 1.7436439918	 0.114134
H	 0.1057930919	-0.8175205195	-0.7457845313	 0.130278
H	-1.0003730808	 0.7513937192	 2.6225891333	 0.152184
H	-3.0354956956	-2.7923030329	 1.848464226	 0.13191
42.1147	45.0794	138.7059	237.3568	393.2829	398.5704	617.1073	671.2934	694.9655	844.8466	857.6879	880.6298	908.6846	933.5456	975.0986	1017.4736	1030.3746	1042.4393	1058.6054	1111.8992	1155.0335	1161.0378	1171.1884	1226.2945	1238.2632	1257.9084	1304.9643	1316.7167	1363.6154	1393.6415	1413.4529	1466.2354	1510.9196	1535.7105	1550.0091	3016.2644	3027.0684	3074.8032	3074.8195	3150.002	3256.1785	3262.7388
C1OCC1N1C=NC=N1	C1OCC1n1cncn1	
InChI=1S/C5H7N3O/c1-5(2-9-1)8-4-6-3-7-8/h3-5H,1-2H2	InChI=1S/C5H7N3O/c1-5(2-9-1)8-4-6-3-7-8/h3-5H,1-2H2
