17
gdb 76256	2.52182	1.42524	0.99589	3.2135	72.1	-0.2589	-0.0349	0.224	1171.0029	0.13476	-455.162663	-455.153341	-455.152397	-455.197173	32.845	
C	-0.4413565242	 1.353666243	 0.1007489726	-0.392044
C	-0.0581274915	-0.1036977687	-0.0839633388	-0.006169
C	 0.8457035422	-0.4386624561	-1.328003609	 0.027187
O	 1.1188523835	 0.6392118016	-2.182076214	-0.424025
C	 1.9426543981	-0.7914207032	-0.3279500759	 0.362887
N	 3.1571820554	-1.0840808286	-0.4758601152	-0.548628
N	 1.0742026779	-0.574042454	 0.7596152937	-0.107593
C	 1.269544566	-0.709528441	 2.1063092299	 0.134328
O	 2.3130789274	-1.0748420039	 2.6015966085	-0.302421
H	 0.4270800032	 2.0032426239	-0.0248827558	 0.138152
H	-1.1867768721	 1.6371027714	-0.6478091705	 0.139603
H	-0.8736194524	 1.5211213557	 1.0919897756	 0.121493
H	-0.9291347515	-0.7602077214	 0.0031321889	 0.100071
H	 0.4792988853	-1.3095092766	-1.8869894535	 0.10294
H	 2.065366137	 0.6221339008	-2.3665069897	 0.306901
H	 3.6174220621	-1.2143157535	 0.4265433372	 0.254017
H	 0.3684745635	-0.4526613494	 2.6955055462	 0.093303
62.4335	97.9801	154.8054	183.7582	212.7529	231.5501	250.0713	264.3909	370.3271	457.2673	484.2487	585.2197	664.061	748.7247	828.1822	859.2453	919.6272	957.3576	1009.8256	1031.2981	1039.491	1114.7242	1158.2032	1173.9489	1206.3911	1258.5153	1292.9418	1356.5924	1369.5651	1377.9361	1401.4845	1415.4124	1431.8726	1487.737	1488.9752	1756.0501	1820.7054	2952.2696	3022.0441	3047.8532	3064.4777	3117.0037	3140.7883	3485.3968	3799.4941
CC1C(O)C(=N)N1C=O	C[C@H]1[C@@H](O)[C]([NH])N1C=O	
InChI=1S/C5H8N2O2/c1-3-4(9)5(6)7(3)2-8/h2-4,6,9H,1H3	InChI=1S/C5H8N2O2/c1-3-4(9)5(6)7(3)2-8/h2-4,6,9H,1H3/t3-,4+/m0/s1
