18
gdb 74476	3.11527	1.41786	1.11278	3.0941	79.62	-0.2257	-0.0024	0.2233	1125.1137	0.147898	-401.909278	-401.901441	-401.900496	-401.941423	30.643	
C	-0.0363729902	 1.5017136807	 0.079818319	-0.499741
C	-0.0235145271	 0.0102645674	-0.0051530197	 0.314516
C	 0.0112605639	-0.7615589833	-1.100121388	-0.28046
C	 0.0002048097	-2.2157447635	-0.7663729458	 0.345505
C	-0.7345707384	-3.2106257741	-1.5990864132	-0.291471
N	 0.7316822932	-3.23184524	-1.5447354648	-0.353205
C	 0.045848249	-2.2663282238	 0.741563522	-0.046085
O	 1.2079188879	-1.6585622988	 1.3139188033	-0.257797
C	-0.002263289	-0.8748530837	 1.212319838	-0.079273
H	 0.8454466948	 1.8737209127	 0.6162808461	 0.13889
H	-0.0519057514	 1.9604149624	-0.9123378717	 0.12583
H	-0.9136661742	 1.8609537646	 0.6327038385	 0.128642
H	 0.0757742062	-0.4026976181	-2.1229361186	 0.095662
H	-1.2211637704	-4.0575905413	-1.1207649928	 0.121002
H	-1.2311158798	-2.8483004826	-2.4959651059	 0.112269
H	 1.1263370869	-2.8062119259	-2.3805733779	 0.234628
H	-0.3609378956	-3.114901531	 1.2840512784	 0.097535
H	-0.4364401657	-0.5647472915	 2.158870783	 0.093552
122.3468	180.8094	184.7444	234.6242	279.3454	356.3862	428.3409	480.9776	532.983	599.1502	629.7591	823.0106	836.8733	853.077	865.7136	874.8884	913.6417	929.8598	949.2618	978.9066	1010.4513	1036.1445	1060.8888	1068.9468	1100.1418	1130.9435	1172.6744	1243.7823	1261.941	1266.8782	1312.5126	1342.2903	1381.1122	1414.5263	1430.7283	1478.2696	1488.6091	1507.9746	1696.6391	3019.1026	3066.2001	3098.2168	3112.8975	3149.4633	3160.8352	3175.4798	3184.3767	3493.0388
CC1=CC2(CN2)C2OC12	CC1=C[C@]2(CN2)[C@H]2O[C@@H]12	
InChI=1S/C7H9NO/c1-4-2-7(3-8-7)6-5(4)9-6/h2,5-6,8H,3H2,1H3	InChI=1S/C7H9NO/c1-4-2-7(3-8-7)6-5(4)9-6/h2,5-6,8H,3H2,1H3/t5-,6-,7-/m0/s1
