17
gdb 121341	3.08543	0.9819	0.81123	3.7577	64.63	-0.2742	0.001	0.2752	1382.3485	0.135386	-496.127159	-496.118183	-496.117238	-496.162086	31.071	
O	-0.0879255143	 1.3906858608	 0.2588155113	-0.41954
C	 0.0262327054	-0.0068167621	 0.0522720999	-0.083004
C	-1.3846982143	-0.5822262652	 0.0401042491	-0.187482
C	-1.3893460759	-2.0988627899	-0.1631617898	-0.066646
O	-0.768050043	-2.8180246724	 0.8987046335	-0.257505
C	-1.7910834314	-3.3597423523	 1.6996399071	 0.026224
O	-2.9656492043	-3.4422067776	 0.8992193624	-0.217314
C	-2.8081025398	-2.6610835649	-0.2035910729	 0.431059
O	-3.6629669409	-2.477237967	-1.0159293821	-0.33314
H	 0.7977260492	 1.7611231233	 0.3134514625	 0.288988
H	 0.5236863793	-0.2335136778	-0.9057014244	 0.088153
H	 0.6112431652	-0.4892085552	 0.849069654	 0.104057
H	-1.8840134386	-0.326211194	 0.9817997377	 0.114816
H	-1.9650312111	-0.1249930086	-0.7683211917	 0.13749
H	-0.8730614146	-2.358800727	-1.0942446251	 0.122876
H	-1.505507772	-4.365500102	 2.0206330175	 0.134906
H	-2.0079072187	-2.7272200384	 2.5731216808	 0.116063
59.296	93.6867	112.0523	134.0547	170.9597	257.4588	272.604	346.4838	441.3701	546.0039	667.5479	711.4458	751.5569	795.162	897.2184	917.552	1010.5651	1028.7877	1058.1671	1085.9154	1113.5371	1127.8281	1148.5261	1215.6516	1218.6586	1226.9595	1238.3354	1290.4514	1312.9428	1344.812	1377.748	1444.2458	1464.1293	1481.5567	1530.1772	1549.6697	1900.3292	2962.4975	2996.2647	3010.5932	3042.2879	3053.8594	3089.161	3097.0429	3832.4657
OCCC1OCOC1=O	OCC[C@H]1OCOC1=O	
InChI=1S/C5H8O4/c6-2-1-4-5(7)9-3-8-4/h4,6H,1-3H2	InChI=1S/C5H8O4/c6-2-1-4-5(7)9-3-8-4/h4,6H,1-3H2/t4-/m1/s1
