17
gdb 25640	6.50895	0.72688	0.65922	0.7426	93.68	-0.2018	-0.0084	0.1934	1711.4996	0.134793	-384.709357	-384.700026	-384.699082	-384.746126	32.49	
C	-0.1375383343	 1.4643008181	 0.0328901066	-0.510811
C	-0.0359096683	 0.0146131224	 0.0146067903	 0.231434
C	 0.0476164343	-1.1896150486	-0.0006230784	-0.100785
C	 0.1595987839	-2.5900843558	-0.0174503867	 0.233787
C	 1.236435313	-3.4342024525	 0.0200940369	-0.410749
C	 0.727503131	-4.7716714761	-0.0248791264	 0.277306
C	 1.5113166969	-6.0471623053	-0.0080271418	-0.505357
C	-0.6266236708	-4.633809804	-0.0867929015	-0.122804
O	-0.9948381595	-3.3284734494	-0.0838658255	-0.178855
H	 0.854961101	 1.9262781699	-0.0083599464	 0.153247
H	-0.7116634951	 1.8346462648	-0.8239917642	 0.153132
H	-0.6318054893	 1.8202532285	 0.9440895487	 0.152469
H	 2.2702404433	-3.1300522159	 0.0737792198	 0.109568
H	 2.1191522452	-6.1326597825	 0.8996790929	 0.131835
H	 0.850137755	-6.9172022811	-0.0489594219	 0.125215
H	 2.1963660785	-6.1085761002	-0.8610808237	 0.13188
H	-1.4334675747	-5.3474548025	-0.1360184388	 0.129488
6.8709	85.3982	87.6421	130.1341	220.3305	271.8534	317.0602	349.1833	448.5592	469.6505	540.8199	617.5812	673.2866	688.2443	753.8649	823.776	924.0443	988.6041	1009.0174	1018.1471	1049.8452	1051.9573	1065.6092	1170.4786	1195.0039	1237.5773	1314.4793	1390.8261	1412.0926	1421.6897	1472.4901	1477.0219	1483.4028	1498.9306	1555.8928	1646.2132	2354.3214	3024.4219	3030.5708	3082.1681	3082.6488	3090.021	3111.0554	3256.5283	3268.1171
CC#CC1=CC(C)=CO1	CC#Cc1cc(C)co1	
InChI=1S/C8H8O/c1-3-4-8-5-7(2)6-9-8/h5-6H,1-2H3	InChI=1S/C8H8O/c1-3-4-8-5-7(2)6-9-8/h5-6H,1-2H3
