22
gdb 61452	3.47375	0.84966	0.76988	3.4755	83.95	-0.2359	0.0388	0.2747	1580.2286	0.192698	-404.377282	-404.366656	-404.365712	-404.414793	37.909	
C	 0.0508084655	 1.6723846142	-0.1933443778	-0.411603
C	 0.0825635637	 0.1385979184	-0.160661318	 0.042389
N	 0.7125498873	-0.3470285991	 1.068627082	-0.317668
C	 2.0635743563	-0.4655906881	 1.205595937	 0.413054
C	 2.541796322	-0.9597188029	 2.5637093848	-0.482642
O	 2.8411410337	-0.1965731605	 0.3050711197	-0.384641
C	-1.2602967812	-0.5598460173	-0.3066274659	-0.001646
C	-2.4976744693	-0.1129264994	 0.4425207319	-0.272741
C	-2.4257125098	 0.0230317786	-1.0585375596	-0.275867
H	 1.0703952604	 2.0461704795	-0.075785689	 0.144711
H	-0.3346534538	 2.0411918646	-1.1480774339	 0.119111
H	-0.5615534747	 2.0877562186	 0.6138748726	 0.109388
H	 0.7381988038	-0.1916603462	-0.9730190728	 0.115497
H	 0.1125495031	-0.538533816	 1.8543418164	 0.240421
H	 1.7323832868	-1.2546511979	 3.2368173689	 0.108307
H	 3.2088287134	-1.8115311039	 2.4104771025	 0.15131
H	 3.1279300562	-0.1688703083	 3.0405247985	 0.149744
H	-1.1490183399	-1.637515587	-0.3954340904	 0.092087
H	-3.1441539574	-0.8742899438	 0.8647560621	 0.112933
H	-2.4503755768	 0.8001379928	 1.0262582996	 0.114922
H	-2.3343980387	 1.023448475	-1.4650757482	 0.118029
H	-3.0204308908	-0.6477515112	-1.6683693603	 0.114906
30.4472	42.2388	62.1913	94.7099	164.5286	237.0684	255.1464	278.5202	337.8134	411.9104	435.0916	486.4452	540.4207	608.1437	642.8737	759.0744	797.1212	836.0232	896.2465	904.7599	964.6568	975.3166	1001.0209	1047.4311	1050.4455	1056.8536	1084.4827	1099.0722	1150.8315	1152.0116	1181.5677	1202.1634	1244.4073	1252.8142	1342.7747	1384.6782	1391.1824	1396.0809	1421.136	1467.1228	1470.1208	1482.5983	1491.0441	1506.928	1507.8021	1524.4224	1769.4993	3040.9102	3048.3651	3061.7603	3111.9535	3122.9034	3130.0609	3131.9942	3134.0624	3137.2502	3143.829	3212.44	3228.8779	3640.7969
CC(NC(C)=O)C1CC1	C[C@@H](NC(=O)C)C1CC1	
InChI=1S/C7H13NO/c1-5(7-3-4-7)8-6(2)9/h5,7H,3-4H2,1-2H3,(H,8,9)	InChI=1S/C7H13NO/c1-5(7-3-4-7)8-6(2)9/h5,7H,3-4H2,1-2H3,(H,8,9)/t5-/m1/s1
