16
gdb 88250	3.65534	0.73024	0.64537	3.7095	79.42	-0.2495	0.0146	0.2641	1679.9026	0.122641	-400.711505	-400.702047	-400.701103	-400.74792	32.942	
O	-0.0935086479	 1.3036424993	-0.3321329637	-0.411415
C	-0.0633101322	-0.0592814031	-0.0733936052	 0.125617
C	-0.2913136019	-0.465965646	 1.3413607595	-0.298147
C	-1.3628089152	-0.779688828	 0.29651481	-0.239097
C	-2.5928988869	-0.0511836274	 0.2672344275	 0.093858
C	-3.6258890017	 0.5643592371	 0.2031762164	 0.088293
C	-4.8772392383	 1.3135153777	 0.1331691559	-0.473566
C	-5.0341260977	 2.0499127048	-1.1297167137	 0.276395
N	-5.1597881339	 2.6306029479	-2.1197976637	-0.302645
H	-0.6240853008	 1.4541758678	-1.1227787329	 0.297397
H	 0.6456588927	-0.6356397735	-0.6675778685	 0.097943
H	 0.2660641651	-1.3007451556	 1.7497886885	 0.124107
H	-0.5136062761	 0.3354266229	 2.0353386082	 0.139982
H	-1.4323293378	-1.8171648544	-0.0175013948	 0.117891
H	-5.7374209829	 0.640698508	 0.2452657068	 0.181282
H	-4.9451156045	 2.0339660825	 0.9587634196	 0.182106
17.1559	57.2685	106.54	139.9428	234.3222	273.3954	313.3117	371.4827	390.3071	412.0124	481.1898	543.9903	645.1792	740.1987	778.5944	850.1697	901.3442	934.4885	940.4183	994.6144	1056.7769	1062.2185	1120.234	1167.2146	1191.4483	1234.5996	1236.8382	1311.844	1335.948	1387.1479	1421.1457	1445.8679	1477.3948	2366.2514	2373.6616	3023.935	3053.7512	3102.4922	3146.6164	3149.9137	3245.0086	3796.9728
OC1CC1C#CCC#N	O[C@H]1C[C@H]1C#CCC#N	
InChI=1S/C7H7NO/c8-4-2-1-3-6-5-7(6)9/h6-7,9H,2,5H2	InChI=1S/C7H7NO/c8-4-2-1-3-6-5-7(6)9/h6-7,9H,2,5H2/t6-,7+/m1/s1
