21
gdb 86390	2.53565	1.46024	1.09713	2.0619	77.29	-0.2475	0.0797	0.3271	1180.5694	0.181827	-424.233041	-424.223881	-424.222937	-424.266497	35.353	
C	-0.0045918851	 1.520759258	-0.039494567	-0.407703
C	-0.0266705851	-0.009504777	-0.0106818249	-0.038751
C	 0.6654851128	-0.6652135788	-1.2292307235	-0.270079
C	 1.2270812078	-2.0268520864	-0.7454171588	 0.13072
O	 2.3971907359	-2.4463132214	-1.4240289856	-0.440921
C	 1.4219543276	-1.8187671099	 0.7446891004	-0.07178
O	 2.1339798604	-0.5961446849	 1.025583544	-0.31544
C	 0.698346198	-0.6237337953	 1.1895019635	 0.418084
C	 0.1927222989	-0.4107040143	 2.5900237871	-0.491768
H	 1.0267973217	 1.8867204123	-0.0033801886	 0.128885
H	-0.4668133567	 1.9007847211	-0.9560328455	 0.115899
H	-0.5482234333	 1.9515482951	 0.8075470797	 0.113085
H	-1.0707701766	-0.3494492215	 0.0403769706	 0.073347
H	-0.002728695	-0.7747656967	-2.0864397387	 0.102441
H	 1.5076128691	-0.0446591591	-1.5516876604	 0.104607
H	 0.4983783731	-2.8312027619	-0.9021777356	 0.08849
H	 3.0860256281	-1.8077312235	-1.2036679047	 0.285765
H	 1.6566304747	-2.6559386376	 1.3982947506	 0.091341
H	 0.2218209569	 0.6503661669	 2.8592762804	 0.13078
H	-0.8442171667	-0.7513437455	 2.6825829914	 0.122044
H	 0.8069190735	-0.9585385894	 3.3086766056	 0.130956
94.3007	127.6551	193.5551	217.1586	240.4156	251.9699	306.6408	389.1671	399.4978	445.6145	484.8235	556.6835	590.139	658.25	672.6074	815.928	876.5404	886.7765	926.7467	930.4183	994.5337	1018.202	1047.2773	1060.9609	1082.3347	1105.6811	1125.707	1144.0288	1193.1601	1240.2476	1260.0783	1293.9944	1316.8112	1330.555	1342.8673	1368.217	1405.4905	1411.2353	1432.7824	1457.3259	1483.8352	1484.5688	1496.7185	1501.6667	1503.176	3006.4229	3032.5103	3037.1055	3043.4818	3057.5653	3097.5483	3101.4333	3105.5201	3110.2327	3123.751	3142.7887	3788.2728
CC1CC(O)C2OC12C	C[C@H]1C[C@@H](O)[C@H]2O[C@@]12C	
InChI=1S/C7H12O2/c1-4-3-5(8)6-7(4,2)9-6/h4-6,8H,3H2,1-2H3	InChI=1S/C7H12O2/c1-4-3-5(8)6-7(4,2)9-6/h4-6,8H,3H2,1-2H3/t4-,5+,6+,7-/m0/s1
