23
gdb 103496	2.42904	1.49615	1.26115	1.0119	85.11	-0.2337	0.0786	0.3123	1158.7622	0.206227	-388.287007	-388.277714	-388.27677	-388.320582	35.683	
C	 0.1902195604	 1.11878376	-0.3573846043	-0.250231
O	-0.0125019629	-0.1813068927	 0.1631355369	-0.280994
C	-1.3326612181	-0.6522050916	 0.0766654717	 0.435237
C	-2.327851404	 0.1177279418	 0.9240832676	-0.461056
C	-1.8371935458	-1.2690364733	-1.2134673276	-0.115427
C	-0.8596530552	-1.6265600282	-2.32784634	-0.223693
C	 0.288828436	-2.4224898219	-1.6607085238	-0.206871
C	-0.308781505	-3.0171590183	-0.3624295694	-0.21449
C	-1.5040000008	-2.142534101	-0.0043006337	-0.117122
H	 1.2702924353	 1.2833466979	-0.3865930821	 0.123797
H	-0.2150061585	 1.2206973538	-1.373490912	 0.110613
H	-0.261704223	 1.8949304082	 0.2757970637	 0.10979
H	-2.469182327	 1.141659422	 0.5620091791	 0.11515
H	-3.3054152872	-0.3714993485	 0.9096653578	 0.118495
H	-1.9841940937	 0.1668887229	 1.9629082609	 0.121844
H	-2.8667453795	-1.0652236892	-1.4925539215	 0.072202
H	-1.3902256593	-2.2520963342	-3.0557819073	 0.096304
H	-0.4871694143	-0.7554991317	-2.8777250931	 0.093761
H	 0.6853749209	-3.1979042627	-2.3226932176	 0.085816
H	 1.1103589795	-1.7512293138	-1.410392847	 0.115056
H	-0.6692750077	-4.038760081	-0.5312224573	 0.093216
H	 0.4337085371	-3.0666687466	 0.4402299971	 0.103614
H	-2.2859889272	-2.582837932	 0.6067800319	 0.07499
117.6586	130.6085	155.9967	198.7996	203.6321	232.3705	269.8041	303.667	380.9083	469.0506	542.9678	652.7539	662.732	725.3161	805.3035	810.9949	858.2651	889.4102	895.4784	950.0878	977.7627	985.5758	1058.3263	1069.4694	1079.8375	1102.3844	1107.3946	1132.9112	1173.9758	1180.6909	1188.9274	1211.3025	1230.2127	1256.7632	1291.3491	1313.591	1329.9306	1332.8351	1357.9585	1410.8335	1435.5479	1473.501	1481.7735	1483.2146	1487.9355	1491.5872	1504.6643	1512.1023	1513.377	2994.8136	3029.0216	3032.7816	3033.4317	3047.0089	3063.0368	3065.4739	3075.8171	3095.5137	3111.9003	3114.8827	3128.0811	3144.6204	3155.384
COC1(C)C2CCCC12	CO[C@@]1(C)[C@H]2CCC[C@@H]12	
InChI=1S/C8H14O/c1-8(9-2)6-4-3-5-7(6)8/h6-7H,3-5H2,1-2H3	InChI=1S/C8H14O/c1-8(9-2)6-4-3-5-7(6)8/h6-7H,3-5H2,1-2H3/t6-,7+,8-
