18
gdb 51707	5.0638	0.80261	0.72159	1.804	73.17	-0.2438	-0.0336	0.2102	1495.358	0.147811	-439.142843	-439.134022	-439.133078	-439.177795	31.464	
O	-0.6757147636	 0.9594322062	 0.7154661719	-0.23723
C	 0.0213379032	 1.0447588091	-0.2622192676	 0.162109
C	 1.3514159372	 1.763646688	-0.3180066614	-0.29762
C	 1.3093695424	 2.9570839838	-1.2842837817	 0.002983
C	 0.3359653016	 4.081930907	-0.8442642361	-0.174399
N	 0.9230726248	 5.2591540382	-1.4549214236	-0.305412
C	 2.2530349323	 5.1450802239	-1.7692968785	 0.404611
O	 2.9647707078	 6.0277318488	-2.191380324	-0.373641
C	 2.6476990371	 3.6954897919	-1.4598200578	-0.355966
H	-0.2962058244	 0.5940577545	-1.2326202862	 0.075259
H	 1.6211882135	 2.0844764634	 0.6929557393	 0.12404
H	 2.1075732499	 1.0487318959	-0.6702018876	 0.123884
H	 0.983149334	 2.6035868855	-2.2702772368	 0.095415
H	-0.6851563964	 3.9102775612	-1.1995927124	 0.120834
H	 0.2964047347	 4.1601003388	 0.2525647813	 0.117377
H	 0.4841154665	 6.1663160031	-1.4456953712	 0.253605
H	 3.2322527494	 3.6994036109	-0.5313399115	 0.130617
H	 3.2852734497	 3.2897756197	-2.2471162661	 0.133535
41.1647	61.6262	113.7546	160.8632	192.794	304.5625	401.5374	472.0675	496.9579	516.2028	561.9486	628.5021	694.7535	801.8774	865.1951	884.4792	922.7296	963.3809	1013.2074	1063.1122	1077.2112	1109.1097	1120.3708	1172.8151	1204.0611	1246.1892	1259.6081	1268.3691	1303.394	1340.0128	1356.6362	1381.4251	1428.6284	1449.4091	1465.9094	1471.5571	1530.0482	1834.9188	1837.3322	2850.9003	2993.0775	3022.811	3027.5908	3043.9328	3067.66	3096.8585	3120.1422	3640.7157
O=CCC1CNC(=O)C1	O=CC[C@H]1CNC(=O)C1	
InChI=1S/C6H9NO2/c8-2-1-5-3-6(9)7-4-5/h2,5H,1,3-4H2,(H,7,9)	InChI=1S/C6H9NO2/c8-2-1-5-3-6(9)7-4-5/h2,5H,1,3-4H2,(H,7,9)/t5-/m1/s1
