20
gdb 76859	2.38584	1.79383	1.56484	3.2557	77.24	-0.2279	0.0619	0.2898	977.9163	0.172545	-403.077545	-403.069848	-403.068904	-403.109247	31.514	
C	-0.3216086091	 1.5675306877	-0.0598841796	-0.413472
C	 0.0069260815	 0.0826254572	-0.000973323	-0.022921
C	 1.1288801471	-0.5066735922	-0.9522962744	 0.098471
O	 1.906619575	 0.3751925969	-1.7058302278	-0.430656
C	 1.7875684535	-1.2152222437	 0.2906358878	-0.065188
C	 2.9081066003	-0.4690777486	 1.0454662347	-0.057494
N	 2.66480248	 0.9884397207	 0.8859045802	-0.35006
C	 1.906445233	 0.2225878806	 1.9104284607	-0.065186
C	 0.7399042164	-0.5315676539	 1.2285962524	-0.047305
H	 0.5629981866	 2.1848315855	 0.1052331558	 0.128067
H	-0.738786001	 1.8290919895	-1.0378157465	 0.11871
H	-1.0655023954	 1.8283436673	 0.7014551088	 0.102961
H	-0.9138026871	-0.4895227092	-0.1646726839	 0.068622
H	 0.7157721973	-1.2305425165	-1.660831289	 0.078027
H	 2.3091868653	 0.9727424543	-1.0548803711	 0.293895
H	 1.9008320077	-2.2985217808	 0.2569225798	 0.066913
H	 3.9075165764	-0.8240576112	 1.2658157525	 0.097637
H	 3.4142193011	 1.4788760223	 1.3709544426	 0.236429
H	 1.9695514741	 0.5305903866	 2.9473351581	 0.095042
H	 0.1523067874	-1.1242219427	 1.9306431921	 0.067509
155.0993	174.859	209.9514	255.9605	265.6251	387.979	493.4393	537.363	636.562	645.3765	678.6051	748.7569	764.2717	787.7676	803.024	849.9864	884.7031	908.0086	929.7472	947.5916	1003.3263	1014.7569	1036.3389	1083.3086	1093.6628	1110.529	1136.7702	1153.9251	1174.9404	1195.1132	1202.4525	1249.0345	1257.4813	1274.8799	1315.3581	1318.1613	1341.832	1364.4507	1377.8241	1407.644	1479.0419	1493.2874	1508.1911	3026.4148	3036.5753	3062.5971	3094.2414	3101.435	3115.9464	3135.5456	3177.1973	3190.9292	3485.2595	3655.452
CC1C(O)C2C3NC3C12	C[C@H]1[C@@H](O)[C@H]2[C@H]3N[C@H]3[C@@H]12	
InChI=1S/C7H11NO/c1-2-3-4(7(2)9)6-5(3)8-6/h2-9H,1H3	InChI=1S/C7H11NO/c1-2-3-4(7(2)9)6-5(3)8-6/h2-9H,1H3/t2-,3+,4-,5+,6-,7-/m1/s1
