14
gdb 43548	2.55195	1.50457	1.09039	3.0497	68.92	-0.2719	-0.0121	0.2597	1075.8488	0.099868	-436.638447	-436.630522	-436.629578	-436.671203	29.132	
O	 0.0361385215	 0.0961063587	-0.7251290481	-0.336844
C	 0.0517792576	 1.1556777952	-0.1864331036	 0.431858
O	-0.98169051	 1.8143331458	 0.4407257672	-0.266667
C	-0.1502842271	 3.014431736	 0.7025235245	-0.112571
C	-0.0714281986	 3.3592490673	 2.1030440099	 0.333947
C	 0.0198623818	 3.6646046943	 3.2611862828	-0.429559
C	 1.0316073816	 2.2689882689	 0.0638429811	 0.117276
C	 2.4624623319	 2.1538641924	 0.417272916	-0.286302
N	 2.0387041515	 2.8022827489	-0.8308573661	-0.354278
H	-0.5187199389	 3.8451578239	 0.0952586092	 0.140783
H	 0.0890778795	 3.9333832017	 4.286920537	 0.214115
H	 2.8682145894	 2.8260663038	 1.1671853763	 0.146169
H	 2.9052049409	 1.1624285619	 0.378796873	 0.144149
H	 2.1557436888	 2.1775273013	-1.6269592791	 0.257924
89.9613	117.3492	215.933	218.6256	229.9882	329.9187	416.4028	509.4673	604.4254	630.7369	639.1461	689.0418	740.3963	780.7224	852.3797	878.0025	932.6736	958.5121	998.2861	1034.1546	1079.1401	1105.0441	1137.395	1239.448	1254.4152	1277.7045	1357.9124	1425.1692	1508.9158	1938.5059	2244.7414	3085.1344	3117.4776	3212.0903	3488.9119	3498.7827
O=C1OC(C#C)C11CN1	O=C1O[C@@H](C#C)[C@]21CN2	
InChI=1S/C6H5NO2/c1-2-4-6(3-7-6)5(8)9-4/h1,4,7H,3H2	InChI=1S/C6H5NO2/c1-2-4-6(3-7-6)5(8)9-4/h1,4,7H,3H2/t4-,6-/m0/s1
