22
gdb 120086	3.86673	0.90632	0.82833	1.4931	85.99	-0.2128	0.0658	0.2786	1498.6698	0.194276	-367.115792	-367.106979	-367.106035	-367.14987	34.104	
C	 0.0138073908	 1.5927108585	-0.2000022846	-0.387547
C	 0.1767603537	 0.0755902665	-0.0885132485	-0.190121
C	 0.5045711975	-0.3876456953	 1.3390470804	-0.212353
C	 0.6511439707	-1.9073824634	 1.4097702192	 0.020979
C	 1.5106804054	-2.799339598	 2.2279189442	-0.077197
C	 1.6782769963	-2.5051802128	 3.72906194	-0.068303
C	 0.9685835571	-1.2634318728	 4.1905168566	-0.301135
C	 0.1712923141	-2.4837758522	 3.8060431328	-0.002593
N	 0.0003251333	-2.860961986	 2.3462820424	-0.174673
H	 0.9295743642	 2.113751608	 0.1013059081	 0.114328
H	-0.2177327382	 1.893968799	-1.2262181974	 0.113966
H	-0.7967956426	 1.9526324274	 0.4435252397	 0.116062
H	-0.7423111086	-0.4218954782	-0.4236270357	 0.106324
H	 0.9709246866	-0.2611490261	-0.7677259963	 0.100054
H	 1.4238985222	 0.1099700845	 1.6689618927	 0.11125
H	-0.2957167858	-0.0558901019	 2.0090811607	 0.117627
H	 0.5262070171	-2.3445552617	 0.4170488111	 0.096633
H	 2.0491191363	-3.6264068129	 1.7718145267	 0.092202
H	 2.3887661373	-3.0432681112	 4.3419869061	 0.093447
H	 1.0075541942	-1.1339440097	 5.269397258	 0.112995
H	 0.978225955	-0.3311653957	 3.6483968227	 0.116267
H	-0.5049018466	-2.9713590558	 4.4963330612	 0.101787
47.7612	99.7109	137.2349	212.7302	255.7466	292.1371	353.091	409.5347	467.775	642.2453	670.8623	694.0556	740.4408	755.1464	776.3487	855.3716	887.986	903.1504	920.2948	938.5155	963.5669	1002.3369	1016.4591	1054.1223	1059.1498	1068.2042	1078.061	1083.0706	1111.565	1134.5704	1158.6561	1192.3054	1265.2961	1267.379	1284.3633	1298.7513	1337.3317	1339.0712	1373.8202	1384.6919	1414.0051	1447.4616	1479.8366	1491.1932	1499.7057	1499.9383	1510.6476	3016.5954	3027.4172	3031.1544	3046.2342	3076.437	3082.1849	3096.3214	3103.3279	3134.7323	3137.2402	3189.613	3203.2671	3257.0528
CCCC1C2C3CC3N12	CCC[C@H]1[C@H]2[C@H]3C[C@H]3N12	
InChI=1S/C8H13N/c1-2-3-6-8-5-4-7(5)9(6)8/h5-8H,2-4H2,1H3	InChI=1S/C8H13N/c1-2-3-6-8-5-4-7(5)9(6)8/h5-8H,2-4H2,1H3/t5-,6-,7+,8+,9?/m0/s1
