21
gdb 92018	2.70254	1.60348	1.19993	1.9235	80.7	-0.2524	0.0777	0.3301	1099.3454	0.184631	-387.076577	-387.068795	-387.067851	-387.108478	31.801	
C	 0.0897962341	 1.5625882024	 0.0028319839	-0.390497
C	 0.0196350531	 0.0301375879	 0.0155411399	 0.007937
C	 0.5525304743	-0.5497095644	-1.3145890763	-0.250542
C	 0.6900262951	-2.0645330616	-1.3144069461	 0.024585
O	 2.008016429	-2.5911776089	-1.1002049122	-0.256712
C	 1.0355296531	-2.7612422275	-0.0624954247	 0.048547
C	 1.1988694362	-1.9854990294	 1.2139153978	-0.068615
C	 2.1874484825	-0.8432047137	 1.2778745306	-0.302664
C	 0.7114685542	-0.5488335528	 1.2403044092	-0.010001
H	 1.129867418	 1.9023117167	-0.0530060556	 0.118383
H	-0.446910009	 1.9762749585	-0.857938226	 0.108547
H	-0.3521158831	 1.9885470696	 0.9095550283	 0.110028
H	-1.0400029706	-0.2572802217	 0.091533799	 0.071234
H	-0.1197274754	-0.2412275423	-2.1220848431	 0.099593
H	 1.5316531702	-0.1148027237	-1.5469532714	 0.117123
H	 0.1254466247	-2.6053899643	-2.0735652571	 0.088541
H	 0.7075259497	-3.7926533062	 0.0641839115	 0.085154
H	 1.0638635411	-2.5736508425	 2.1152706765	 0.079786
H	 2.7180360437	-0.6876954888	 2.2104651641	 0.108438
H	 2.7837964076	-0.6758474284	 0.3890015443	 0.131279
H	 0.2723856314	-0.220043419	 2.1788953576	 0.079855
115.1113	193.347	238.8834	259.7251	319.6945	395.966	401.2238	499.6604	514.812	571.0168	690.1745	741.4078	790.3678	798.825	843.2661	882.019	898.1786	913.9778	960.7612	998.5041	1005.9545	1035.9021	1067.8394	1083.6535	1089.4933	1104.5314	1116.7922	1129.037	1156.0269	1181.9791	1225.2888	1242.1783	1295.5752	1319.8257	1348.2589	1368.8631	1383.9278	1393.575	1405.7148	1419.3406	1457.9889	1481.1953	1495.0095	1499.53	1501.0565	2985.5441	3026.4975	3037.9281	3075.7631	3095.6392	3098.9208	3102.632	3114.2964	3133.0856	3143.2976	3163.4416	3231.2441
CC1CC2OC2C2CC12	C[C@H]1C[C@H]2O[C@H]2[C@H]2C[C@@H]12	
InChI=1S/C8H12O/c1-4-2-7-8(9-7)6-3-5(4)6/h4-8H,2-3H2,1H3	InChI=1S/C8H12O/c1-4-2-7-8(9-7)6-3-5(4)6/h4-8H,2-3H2,1H3/t4-,5-,6-,7+,8-/m0/s1
