17
gdb 25085	3.14889	1.6303	1.10488	4.1506	74.51	-0.1835	0.043	0.2264	1058.0227	0.139797	-418.080186	-418.072813	-418.071868	-418.112037	28.458	
O	 0.0684569409	-0.0446504468	 0.0434041042	-0.447229
C	 0.0301010349	 1.1720282693	 0.0437502535	 0.440238
N	-1.0832696376	 2.0111211352	 0.0782588828	-0.36424
C	-0.718614857	 3.3656115383	 0.0842182328	-0.261694
C	 0.6282013076	 3.3957230685	 0.04001605	 0.349911
C	 1.8088429707	 4.3154792732	-0.010110166	-0.350689
C	 2.9741071551	 3.366768448	 0.4023838907	-0.21649
C	 2.5196465156	 1.9465559567	-0.0228379796	-0.171729
N	 1.0767354287	 2.0778388295	 0.0173630728	-0.111089
H	-2.015762279	 1.6439855282	 0.1442052108	 0.26348
H	-1.448530438	 4.1553940704	 0.1147603482	 0.136064
H	 1.9650682289	 4.7019724379	-1.0252542038	 0.122255
H	 1.7205012954	 5.1784735833	 0.6541845665	 0.122954
H	 3.9275064294	 3.6488909569	-0.0484394357	 0.111522
H	 3.0968285899	 3.3948987635	 1.4891016579	 0.121303
H	 2.8623598341	 1.6914623399	-1.0336985826	 0.119539
H	 2.8632513704	 1.162463718	 0.6560203576	 0.135895
117.4474	157.0798	204.0429	261.3519	291.9922	443.374	548.8715	594.341	610.6499	650.3373	669.0984	725.9775	747.2886	811.5779	866.0986	890.9253	918.7071	997.2742	1056.608	1069.2965	1092.4087	1126.8056	1184.7588	1211.348	1231.7916	1292.3522	1296.4063	1321.3033	1338.4973	1366.6087	1386.7766	1437.4716	1486.8225	1498.0797	1530.064	1692.045	1825.9801	3024.5387	3025.6459	3063.1538	3095.6729	3099.5688	3121.4928	3285.7912	3695.9877
O=C1NC=C2CCCN12	O=c1[nH]cc2CCCn12	
InChI=1S/C6H8N2O/c9-6-7-4-5-2-1-3-8(5)6/h4H,1-3H2,(H,7,9)	InChI=1S/C6H8N2O/c9-6-7-4-5-2-1-3-8(5)6/h4H,1-3H2,(H,7,9)
