19
gdb 109460	2.5512	1.33687	0.97641	3.3597	76.06	-0.249	-0.0315	0.2175	1226.6975	0.158121	-423.013558	-423.004764	-423.00382	-423.047399	33.232	
O	-0.180013023	 1.4864872442	-0.0313668909	-0.422126
C	-0.1397274284	 0.1347493031	 0.3753336246	-0.07311
C	-1.4708679779	-0.5598737876	 0.0678388395	-0.212944
C	-1.7375107941	-0.6771909393	-1.4382308313	 0.409388
O	-1.5960582337	 0.1032751974	-2.3416255553	-0.316685
C	-2.0537272339	-2.1772368038	-1.3509992843	-0.427178
C	-1.6050704327	-2.0988334621	 0.1243570555	 0.335517
C	-0.6631707036	-3.0514928637	 0.8046997572	-0.317787
C	-2.099056492	-2.9335249113	 1.2650650967	-0.323698
H	-0.4402619498	 1.4908636813	-0.9624393904	 0.297351
H	 0.6809929931	-0.4163642899	-0.1117980538	 0.089425
H	 0.0607670353	 0.1315247566	 1.4524458241	 0.108702
H	-2.2812132922	-0.031027481	 0.5838897447	 0.109004
H	-3.1196859967	-2.3904765501	-1.4903968857	 0.135117
H	-1.4784230607	-2.8147623982	-2.0293212464	 0.133352
H	-0.3695054844	-3.9477839463	 0.2676822559	 0.117806
H	 0.1121962148	-2.6448180688	 1.4455639842	 0.121925
H	-2.2919554623	-2.4422442346	 2.2136447606	 0.118812
H	-2.7762419279	-3.751887926	 1.0420386152	 0.117128
53.7532	124.3422	143.6923	204.4298	242.1029	308.6685	372.2674	418.2331	469.6322	496.4367	514.3349	580.0604	743.6444	782.4996	814.1205	829.5071	890.4016	923.3963	943.0986	986.6264	1026.8625	1057.147	1076.4123	1081.2795	1089.2912	1109.6929	1119.2402	1186.5961	1189.1155	1204.1668	1226.7429	1247.2418	1313.7218	1368.6978	1383.228	1438.8937	1448.3455	1466.9675	1505.4053	1514.7758	1866.1214	2972.1552	3041.1078	3045.0411	3063.214	3097.0059	3123.7604	3128.724	3202.0411	3216.8586	3755.9999
OCC1C(=O)CC11CC1	OC[C@H]1C(=O)CC21CC2	
InChI=1S/C7H10O2/c8-4-5-6(9)3-7(5)1-2-7/h5,8H,1-4H2	InChI=1S/C7H10O2/c8-4-5-6(9)3-7(5)1-2-7/h5,8H,1-4H2/t5-/m0/s1
