21
gdb 75373	3.40981	1.2637	0.99827	1.6315	83.88	-0.232	0.0241	0.2561	1235.7067	0.184175	-387.092473	-387.084179	-387.083234	-387.125704	32.043	
C	-0.4124317534	 1.4966218909	 0.1543608026	-0.485048
C	 0.0106128186	 0.0774163542	-0.0955485942	 0.340952
C	-0.2064435862	-0.5674212646	-1.2461473174	-0.164903
C	 0.2653763924	-1.9895030603	-1.4348335622	-0.284961
C	-0.0609497032	-2.8228644792	-0.1842363596	-0.04403
C	 0.9789397859	-3.8514564089	 0.308862096	-0.095106
O	 1.2915736298	-3.0503958307	 1.4679438323	-0.295844
C	 0.2504840495	-2.096516545	 1.1436146849	 0.14604
C	 0.7485780861	-0.6504249928	 1.012010764	-0.333658
H	 0.4513153687	 2.1306857609	 0.3935988746	 0.124979
H	-0.9184046671	 1.9273389103	-0.7141828144	 0.119094
H	-1.0909904386	 1.5630886135	 1.014858979	 0.122398
H	-0.7155368227	-0.0713925332	-2.0680993503	 0.079105
H	-0.1800313269	-2.4388803631	-2.3275487826	 0.100716
H	 1.3535011589	-1.9997169445	-1.5994049059	 0.109458
H	-1.0821251592	-3.2039635389	-0.2470713136	 0.076406
H	 0.5726540856	-4.8325560043	 0.5873648893	 0.095837
H	 1.8547365592	-4.0008295143	-0.3360053755	 0.096982
H	-0.5643314403	-2.1512684267	 1.8772227734	 0.07346
H	 1.8213938058	-0.6974187879	 0.7804173134	 0.119692
H	 0.6582809171	-0.1173623053	 1.9637809662	 0.098433
61.0468	92.1673	198.5639	256.5737	288.7101	347.1471	403.8663	419.3234	460.7681	528.1178	671.5696	759.4488	790.3303	819.8564	857.7393	887.3213	929.6212	959.8847	978.798	1018.2228	1026.2513	1051.3648	1071.1136	1076.506	1102.7591	1145.9905	1158.263	1176.0002	1184.4155	1224.602	1249.1508	1279.613	1317.2081	1324.1239	1354.3534	1359.5322	1378.1805	1384.2803	1414.1194	1477.9605	1484.9514	1489.9627	1493.105	1526.1358	1723.4489	2992.4428	3003.0024	3010.5629	3012.5091	3017.8804	3044.233	3057.9909	3068.5695	3074.3854	3090.2685	3108.1858	3160.93
CC1=CCC2COC2C1	CC1=CC[C@H]2CO[C@H]2C1	
InChI=1S/C8H12O/c1-6-2-3-7-5-9-8(7)4-6/h2,7-8H,3-5H2,1H3	InChI=1S/C8H12O/c1-6-2-3-7-5-9-8(7)4-6/h2,7-8H,3-5H2,1H3/t7-,8-/m0/s1
