19
gdb 105782	2.41385	1.38323	1.14321	1.6776	71.56	-0.2522	-0.0345	0.2177	1153.4376	0.157684	-460.172	-460.162776	-460.161832	-460.206485	33.004	
C	-0.0414688883	 1.5170039659	 0.0475917562	-0.396571
C	 0.1190114788	-0.0050262108	 0.0126555936	-0.217805
C	 0.7748765442	-0.5265814369	-1.2697303595	 0.279625
C	 0.6170652365	-2.0635135091	-1.4339593319	-0.164968
O	-0.5739660412	-2.175801234	-2.1930639401	-0.231389
C	-0.5124567099	-1.1135899243	-3.1052773119	 0.016717
O	 0.1093426745	-0.0256976241	-2.4369249701	-0.303208
C	 2.2485200697	-0.1474257775	-1.3809563609	 0.126467
O	 2.9739273526	 0.0600059808	-0.4443499971	-0.249711
H	 0.9307083119	 2.0186718007	 0.041660666	 0.129965
H	-0.6124851815	 1.8647867616	-0.8169494446	 0.130281
H	-0.5694343048	 1.825184339	 0.9545020813	 0.114012
H	 0.7352759849	-0.338088467	 0.8546806755	 0.117185
H	-0.8594041109	-0.4898340817	 0.1050881123	 0.106018
H	 1.4701564206	-2.505077768	-1.9730458274	 0.100902
H	 0.483625355	-2.5808820419	-0.483203867	 0.136751
H	 0.0820470469	-1.3862237842	-3.994728715	 0.092554
H	-1.5302253984	-0.8404357727	-3.4002971756	 0.124804
H	 2.6071726197	-0.0976371158	-2.4337382139	 0.088371
76.1754	78.9188	117.4312	184.6335	215.7186	242.9793	290.991	310.0113	392.0545	422.9315	492.5383	709.2514	738.6063	769.2467	800.6959	925.5141	949.3657	975.9655	984.7432	1018.5226	1042.3779	1054.0734	1118.3487	1139.4962	1168.5856	1176.8363	1204.4389	1233.7537	1284.0933	1319.5724	1361.9488	1364.6355	1403.2428	1407.3959	1431.0706	1473.5241	1498.6549	1505.3054	1509.682	1548.8248	1832.5942	2885.1939	2950.6178	2981.3161	3040.3704	3046.8854	3080.8184	3084.6697	3114.6805	3127.3239	3128.4782
CCC1(COCO1)C=O	CC[C@]1(COCO1)C=O	
InChI=1S/C6H10O3/c1-2-6(3-7)4-8-5-9-6/h3H,2,4-5H2,1H3	InChI=1S/C6H10O3/c1-2-6(3-7)4-8-5-9-6/h3H,2,4-5H2,1H3/t6-/m1/s1
