15
gdb 16097	4.63558	1.71472	1.47181	1.2691	73.47	-0.229	0.0029	0.2319	864.5488	0.119385	-325.473017	-325.466241	-325.465296	-325.50362	26.919	
C	 0.027614741	-1.2159212023	-0.0891603437	-0.408576
C	 0.0376339196	-0.0162460426	 0.0044910476	 0.189432
C	 0.0186890594	 1.4101894554	 0.1073532945	 0.194276
N	 0.3541610262	 2.24122907	-1.1017834255	-0.370812
C	 1.2548977001	 2.2655755831	 0.0599252649	-0.099399
C	 1.0368432508	 3.4528807405	 0.9905743539	-0.264219
C	-0.3832790119	 3.2521479891	 1.4815313433	-0.074834
C	-0.9293217392	 2.1263575454	 1.0211986437	-0.138515
H	 0.0261023594	-2.274908483	-0.165831947	 0.191627
H	 0.7552914956	 1.6195107026	-1.8033872008	 0.234353
H	 2.2365671757	 1.8140600139	-0.0300914336	 0.101931
H	 1.7575103523	 3.4519812309	 1.8183345705	 0.111741
H	 1.1566517083	 4.4045684978	 0.4593286782	 0.124983
H	-0.886420265	 3.9770086297	 2.1110932319	 0.101744
H	-1.9263743223	 1.7591220995	 1.2266405721	 0.106266
147.8472	154.7047	294.0563	371.5231	475.2616	501.4355	529.2855	579.1463	592.1958	660.7701	706.7007	744.3698	779.2478	847.991	898.7149	920.7777	953.5291	969.3517	996.5941	1041.9871	1069.1859	1125.9342	1162.6375	1194.103	1257.3346	1290.7326	1327.608	1360.344	1415.4323	1464.1444	1669.48	2234.9312	3026.3732	3063.6499	3175.4225	3196.7262	3227.0019	3474.346	3503.1971
C#CC12NC1CC=C2	C#C[C@]12N[C@H]1CC=C2	
InChI=1S/C7H7N/c1-2-7-5-3-4-6(7)8-7/h1,3,5-6,8H,4H2	InChI=1S/C7H7N/c1-2-7-5-3-4-6(7)8-7/h1,3,5-6,8H,4H2/t6-,7+/m0/s1
