23
gdb 91625	2.75386	1.64437	1.44648	0.1685	87.34	-0.2553	0.089	0.3443	1048.2749	0.210277	-351.164022	-351.156731	-351.155787	-351.195157	31.62	
C	-0.2083564222	 1.5516568422	-0.0105559664	-0.419698
C	 0.0440435292	 0.0443696612	 0.0119778852	 0.071235
C	 0.8965385028	-0.4929299338	-1.194777274	-0.221034
C	 1.9979319555	-1.347930399	-0.5090770418	-0.02195
C	 1.2116406049	-1.9041035391	 0.6980092235	-0.243543
C	 0.8248854207	-0.5134990704	 1.2446352975	-0.037983
C	 2.1678407625	 0.2186607802	 1.3105336014	-0.004962
C	 3.445978977	-0.5511287965	 1.5439120926	-0.341878
C	 2.9555196134	-0.3406245567	 0.133955743	-0.010265
H	 0.7254437997	 2.1210465756	-0.0528837419	 0.115452
H	-0.7988642605	 1.8304143694	-0.8901184284	 0.11004
H	-0.7635190522	 1.8789032452	 0.8760674414	 0.107339
H	-0.9328827103	-0.4544329288	-0.0004477128	 0.063602
H	 0.2864892303	-1.0958292775	-1.8748483575	 0.087196
H	 1.3287239343	 0.3230872443	-1.783513322	 0.088738
H	 2.4674019518	-2.0879997872	-1.1609680521	 0.05334
H	 0.3363925772	-2.4834069137	 0.3899303445	 0.08781
H	 1.7980369031	-2.5198390488	 1.3808224607	 0.093289
H	 0.2431546918	-0.5051954634	 2.169959762	 0.050432
H	 2.1683611969	 1.2780484799	 1.5378693967	 0.081101
H	 4.3000744207	 0.0527519721	 1.8331444546	 0.10505
H	 3.4426545987	-1.5321403485	 2.0046906105	 0.109093
H	 3.5237337248	 0.3078330533	-0.5250869166	 0.077596
144.8843	240.7323	269.8062	345.2929	358.8327	443.984	495.7185	529.5597	540.0939	705.6977	745.4069	782.7358	818.3502	827.2098	877.9596	882.8802	904.4974	919.0111	945.2287	953.5202	984.315	1001.4808	1026.895	1030.748	1064.0997	1072.2977	1082.0391	1092.5455	1119.1341	1134.9481	1149.2736	1198.8376	1203.8342	1210.1814	1236.744	1280.4631	1293.1852	1305.893	1313.7268	1339.4674	1356.3185	1375.4814	1382.7197	1413.8761	1484.3082	1497.1129	1501.6984	1504.3192	1530.4842	3015.3214	3027.4554	3040.7988	3064.2881	3077.5653	3079.2277	3087.6513	3089.3712	3101.6608	3119.119	3135.4628	3156.6888	3177.05	3211.5873
CC1CC2CC1C1CC21	C[C@H]1C[C@@H]2C[C@H]1[C@H]1C[C@@H]21	
InChI=1S/C9H14/c1-5-2-6-3-7(5)9-4-8(6)9/h5-9H,2-4H2,1H3	InChI=1S/C9H14/c1-5-2-6-3-7(5)9-4-8(6)9/h5-9H,2-4H2,1H3/t5-,6+,7+,8-,9+/m0/s1
