18
gdb 16463	3.14175	2.74728	1.81482	1.5913	70.85	-0.2346	0.0865	0.3211	777.7785	0.155566	-347.764461	-347.758075	-347.75713	-347.794476	26.404	
C	 0.0179406457	 1.5213580035	-0.0424995062	-0.507593
C	 0.0319004074	 0.0112166611	 0.0026563982	 0.319084
C	 0.4668958347	-0.7290929697	-1.2628180058	-0.136887
O	 0.3571971202	-2.0991503163	-0.8540474692	-0.282091
C	-0.088502765	-1.9695641885	 0.4788000258	 0.150462
C	 0.648224175	-0.8062008477	 1.2035788716	-0.124649
C	-0.6319013613	-0.5559314438	 2.0314952584	-0.264538
C	-1.1520745506	-0.8406757505	 0.6049094852	-0.124633
H	 1.0160331044	 1.9145101094	-0.267445541	 0.120412
H	-0.6606487189	 1.882366748	-0.8238745488	 0.12042
H	-0.3050086716	 1.9606388428	 0.9052842861	 0.123449
H	-0.1914124555	-0.5352481672	-2.1200889704	 0.09755
H	 1.500248125	-0.5028523915	-1.5575312256	 0.097551
H	-0.2251664922	-2.9441380845	 0.9458979168	 0.084529
H	 1.6873257019	-0.7887488133	 1.5376863832	 0.068377
H	-0.872035297	-1.3000672477	 2.7964829468	 0.092291
H	-0.7809031959	 0.4526428004	 2.4214837895	 0.097893
H	-2.1842450761	-0.8628697546	 0.2502295455	 0.068375
206.8285	245.3435	312.6351	338.3209	425.1777	436.	621.1079	687.1965	722.8516	726.8473	814.553	887.9191	905.0019	918.6737	947.7533	979.9967	994.843	1004.5048	1029.4089	1077.5351	1087.0906	1097.1163	1112.4049	1162.1574	1172.093	1201.9678	1208.6898	1235.0621	1247.4582	1250.3617	1284.7009	1324.2374	1389.9921	1416.6545	1492.977	1493.5291	1517.6179	1528.5098	3006.7197	3029.8841	3043.4884	3056.693	3085.7837	3094.1784	3098.3324	3109.8651	3118.2566	3137.1804
CC12COC3C1CC23	C[C@@]12CO[C@H]3[C@@H]1C[C@@H]23	
InChI=1S/C7H10O/c1-7-3-8-6-4(7)2-5(6)7/h4-6H,2-3H2,1H3	InChI=1S/C7H10O/c1-7-3-8-6-4(7)2-5(6)7/h4-6H,2-3H2,1H3/t4-,5+,6-,7+
