18
gdb 90839	3.33218	1.81186	1.44662	1.6984	74.9	-0.2296	0.0735	0.3031	930.9731	0.148852	-401.824488	-401.817794	-401.81685	-401.855225	27.812	
C	-0.1977131236	 1.5153261751	-0.1503839224	-0.400321
C	 0.0526431983	 0.0314146058	 0.0542356288	 0.020198
O	 0.9830236133	-0.4745306984	-0.961540302	-0.314921
C	 2.0964449619	-1.0527327209	-0.2381051981	 0.07685
C	 1.5056829687	-1.7708804505	 0.9703877988	-0.041709
N	 2.4596995661	-1.2094746126	 2.0539323658	-0.191368
C	 1.2479162637	-0.5561657532	 2.7440994768	-0.269751
C	 0.8730829646	-0.3813012361	 1.2647926344	 0.235256
C	 2.3780675458	-0.1319611462	 0.9436904694	-0.042426
H	 0.7260552479	 2.0881352706	-0.0266930557	 0.118176
H	-0.5824096388	 1.7008170787	-1.1569322846	 0.130618
H	-0.9351968847	 1.8815720962	 0.5718935138	 0.116212
H	-0.8832369921	-0.5341441822	-0.0332856582	 0.083597
H	 2.8173043442	-1.4467520197	-0.9524472647	 0.088438
H	 1.0342362487	-2.7482224807	 1.0732768284	 0.085542
H	 0.6589852693	-1.2552140103	 3.3453601993	 0.109869
H	 1.5035522499	 0.3375684698	 3.3208590293	 0.110101
H	 2.9299340868	 0.8047601345	 1.0175364411	 0.085637
171.3759	221.309	232.1875	391.52	451.8588	478.3756	490.5585	671.0771	703.0016	780.6942	808.5163	822.7263	850.4081	872.8021	876.6949	896.224	928.3025	957.7188	997.6414	1028.8339	1056.431	1065.9626	1093.5793	1110.9482	1127.8019	1138.7134	1180.1144	1197.2869	1203.2713	1220.5176	1250.9233	1289.4296	1307.6252	1341.6228	1384.0567	1409.1573	1486.0783	1495.2651	1515.3347	3028.4161	3038.324	3046.3843	3109.7598	3110.7962	3116.9034	3117.8842	3121.3822	3142.684
CC1OC2C3N4CC13C24	C[C@H]1O[C@@H]2[C@H]3N4C[C@]13[C@H]24	
InChI=1S/C7H9NO/c1-3-7-2-8-5(7)4(9-3)6(7)8/h3-6H,2H2,1H3	InChI=1S/C7H9NO/c1-3-7-2-8-5(7)4(9-3)6(7)8/h3-6H,2H2,1H3/t3-,4-,5-,6+,7+/m1/s1
