15
gdb 54486	3.31518	1.49898	1.17797	5.8981	65.69	-0.2393	0.0003	0.2396	1005.1011	0.114179	-453.980679	-453.973278	-453.972334	-454.01266	28.268	
O	 0.0653703728	 0.5818371894	-1.1899393398	-0.381184
C	-0.1409168465	 1.2858351529	-0.0655843459	 0.390608
O	 0.6643834347	 1.3463994156	 0.8270297696	-0.359087
C	-1.4700843409	 1.9741114203	-0.0347172565	 0.175828
C	-1.6170715284	 3.2670792031	 0.7453819728	-0.319347
C	-2.3647813558	 2.0705810449	 1.2318854631	-0.054917
N	-3.6770747904	 1.8919659325	 0.6696540947	-0.280399
H	-4.4519058169	 1.5361472768	 1.2041611927	 0.26325
C	-3.5475321041	 1.6793571498	-0.678153151	 0.041319
N	-2.3483555374	 1.7230208955	-1.1481043473	-0.338181
H	-0.7356488214	 3.5366213637	 1.315066747	 0.152959
H	-2.1677617221	 4.0781817655	 0.2813856572	 0.125085
H	-2.1415088683	 1.5943690175	 2.1784757005	 0.130757
H	-4.428159497	 1.5069656686	-1.2871321885	 0.142783
H	-0.7300909284	 0.6990304938	-1.7438788685	 0.310525
88.7787	168.6882	206.7519	283.5717	335.8329	437.4199	446.7824	502.2368	612.7906	687.0866	713.8122	721.4938	763.5703	829.7905	871.7653	916.0482	941.8092	964.2868	999.1642	1057.2602	1073.5308	1085.9199	1146.7867	1181.9472	1236.9536	1285.0619	1335.3084	1368.5911	1421.8273	1437.6925	1468.162	1632.6428	1860.5235	3136.6384	3194.5232	3206.7292	3240.7904	3600.0004	3656.2247
[O-]C(=O)C12CC1[NH+]=CN2	OC(=O)[C@]12C[C@H]1NC=N2	
InChI=1S/C5H6N2O2/c8-4(9)5-1-3(5)6-2-7-5/h2-3H,1H2,(H,6,7)(H,8,9)	InChI=1S/C5H6N2O2/c8-4(9)5-1-3(5)6-2-7-5/h2-3H,1H2,(H,6,7)(H,8,9)/t3-,5+/m1/s1
