18
gdb 44609	2.80884	1.90835	1.50607	3.6366	73.58	-0.2326	0.0283	0.2609	916.9201	0.151848	-401.991748	-401.985093	-401.984149	-402.022608	27.647	
O	 0.0000442558	-0.0374445984	 0.0041213749	-0.383734
C	-0.0024528458	 1.1722050911	-0.0382928667	 0.399816
N	-1.1125158593	 1.9834942004	 0.0039390652	-0.303773
C	-0.8087634316	 3.3840401551	-0.026540668	-0.013903
C	 0.1005828708	 3.9832400723	 1.0422555834	-0.062336
C	 0.6335631313	 3.0771636884	 2.1556933092	-0.245599
C	 1.6926822559	 2.1791313561	 1.4638305034	-0.195813
C	 1.2241659544	 2.1100195128	-0.013763698	-0.167443
C	 0.663714674	 3.5132517873	-0.2871662058	-0.084798
H	-2.0145316764	 1.6070578337	 0.2477271932	 0.25115
H	-1.5336177238	 4.0184727247	-0.5238036583	 0.101252
H	-0.0199614456	 5.0439014527	 1.2338774991	 0.08656
H	 1.0681066829	 3.6690019343	 2.9650297188	 0.103994
H	-0.1661444245	 2.4714808319	 2.5963253194	 0.10898
H	 2.6744178536	 2.6628678211	 1.5015406056	 0.100262
H	 1.7847208081	 1.1874644978	 1.9150016472	 0.12
H	 1.9981857477	 1.7634290132	-0.6981618787	 0.093286
H	 1.0772705725	 4.1664372054	-1.0441929539	 0.092099
118.2696	237.1788	268.1644	436.9494	452.535	510.3184	554.7905	639.9723	715.4895	743.7943	747.8972	778.214	806.9568	844.9975	860.1096	902.7187	937.7145	961.5937	1009.0656	1026.8322	1039.2537	1046.3768	1073.4318	1093.86	1157.0572	1170.0339	1196.97	1238.1155	1261.4305	1277.7777	1290.1052	1322.6408	1351.745	1357.7432	1383.5328	1430.0282	1485.8703	1500.7476	1827.6498	3045.7746	3046.6035	3093.4743	3107.3139	3120.147	3166.7482	3174.4972	3196.4994	3644.5356
O=C1NC2C3CCC1C23	O=C1N[C@H]2[C@H]3CC[C@@H]1[C@@H]23	
InChI=1S/C7H9NO/c9-7-4-2-1-3-5(4)6(3)8-7/h3-6H,1-2H2,(H,8,9)	InChI=1S/C7H9NO/c9-7-4-2-1-3-5(4)6(3)8-7/h3-6H,1-2H2,(H,8,9)/t3-,4+,5-,6-/m0/s1
