19
gdb 53968	3.05196	1.05813	0.95282	5.0558	75.4	-0.2602	0.0162	0.2764	1281.7871	0.156893	-419.268542	-419.257948	-419.257003	-419.304548	37.844	
C	 0.0258841561	 1.5640193608	 0.0091123258	-0.423363
C	 0.0335028417	 0.0218552816	 0.0245071671	 0.108827
C	 0.7966673907	-0.5033146629	 1.2575982309	-0.423166
C	-1.4229115035	-0.5165553521	 0.0320834617	-0.348769
C	-2.1779955049	-0.0892482443	 1.2065711369	 0.265239
N	-2.7626671501	 0.2574236776	 2.1417656483	-0.325918
C	 0.6812063641	-0.5203527687	-1.2716791415	 0.40857
N	 1.9778789946	-0.1589405945	-1.4788203417	-0.525914
O	 0.0780844501	-1.2249139844	-2.0598362437	-0.369069
H	 1.0397892182	 1.9742484617	 0.0286516418	 0.108688
H	-0.4736163239	 1.9490258209	-0.8854615511	 0.132018
H	-0.5024963371	 1.9482350763	 0.8866007728	 0.150133
H	 0.2945938925	-0.1861762147	 2.176362271	 0.15007
H	 0.8469969286	-1.5966883962	 1.2563600794	 0.132067
H	 1.8212000948	-0.1215122769	 1.2923619323	 0.108745
H	-1.9436888965	-0.1854317804	-0.8705618579	 0.162385
H	-1.4128141228	-1.60904924	-0.011523946	 0.162551
H	 2.4960370289	 0.4211671408	-0.8445829538	 0.261209
H	 2.4323074385	-0.4935246647	-2.3123968824	 0.265696
33.753	77.0274	134.8343	148.7692	208.867	247.8982	253.1597	279.8798	337.6011	352.0522	356.8732	397.0004	435.231	531.8216	567.7569	608.2869	731.009	774.8549	846.5273	896.1614	954.8158	962.2743	986.3569	1042.61	1088.2953	1132.8917	1186.2579	1239.2828	1273.9347	1321.8951	1357.1721	1405.9277	1430.3434	1449.564	1480.6148	1492.718	1504.945	1507.8128	1617.8613	1783.2502	2357.0326	3037.0974	3040.8106	3073.517	3106.9422	3110.8785	3111.7546	3114.6681	3116.9311	3611.4788	3748.5969
CC(C)(CC#N)C(N)=O	CC(C)(CC#N)C(=O)N	
InChI=1S/C6H10N2O/c1-6(2,3-4-7)5(8)9/h3H2,1-2H3,(H2,8,9)	InChI=1S/C6H10N2O/c1-6(2,3-4-7)5(8)9/h3H2,1-2H3,(H2,8,9)
