19
gdb 94111	2.75972	1.11561	0.94215	4.2335	72.72	-0.2688	0.0091	0.2779	1303.4683	0.158816	-460.208681	-460.19972	-460.198775	-460.243505	32.247	
C	 0.399375488	 1.2929068873	 0.6580432952	-0.398649
C	 0.1048554303	-0.0328054723	-0.0246170868	 0.149621
C	 1.1689809932	-0.5008820454	-1.0335013109	-0.247955
C	 1.185807693	-2.0236149337	-0.8309054218	-0.253412
C	 0.8998952242	-2.122427718	 0.662490973	 0.209821
O	 2.1601170397	-1.9482552184	 1.3495942081	-0.204438
C	 2.1768439594	-2.2425516357	 2.6646236835	 0.171342
O	 3.1337369141	-2.0574556639	 3.3553283596	-0.27744
O	 0.0230486245	-1.0888400413	 0.9704189911	-0.265197
H	 1.3687261507	 1.2547663572	 1.1637739554	 0.134678
H	 0.4207700126	 2.1021901095	-0.079409066	 0.117382
H	-0.3697683733	 1.5260154539	 1.3993894946	 0.12824
H	-0.8814340192	 0.0108855664	-0.5056133378	 0.082176
H	 0.9260455757	-0.2048807804	-2.0559455688	 0.10972
H	 2.1445499133	-0.0771470735	-0.7772532038	 0.125568
H	 0.3711608915	-2.5048728761	-1.380699261	 0.114304
H	 2.1268777249	-2.5019428875	-1.1041140442	 0.126279
H	 0.452761213	-3.0654164536	 0.9943670047	 0.094666
H	 1.2253522345	-2.6793691843	 3.0226596659	 0.083295
42.9291	78.2993	129.6699	144.7819	246.6678	262.35	327.9663	386.1301	456.1296	477.8138	603.8121	633.138	785.8151	809.0366	861.5901	909.8196	931.2463	966.8058	990.253	1018.9339	1046.5425	1052.719	1103.6131	1124.2018	1148.8522	1186.4336	1219.1625	1231.7937	1309.0144	1340.5741	1349.0195	1378.1353	1384.9714	1390.3037	1411.7283	1444.819	1479.7687	1486.9133	1496.9528	1502.46	1866.0124	2960.1238	3011.7176	3039.9634	3056.2094	3064.781	3070.1733	3112.8581	3117.8587	3124.4482	3136.8102
CC1CCC(OC=O)O1	C[C@H]1CC[C@@H](OC=O)O1	
InChI=1S/C6H10O3/c1-5-2-3-6(9-5)8-4-7/h4-6H,2-3H2,1H3	InChI=1S/C6H10O3/c1-5-2-3-6(9-5)8-4-7/h4-6H,2-3H2,1H3/t5-,6-/m0/s1
