18
gdb 65861	2.45467	1.3319	1.17234	3.953	71.87	-0.2317	-0.0335	0.1982	1133.516	0.146107	-439.115704	-439.106816	-439.105872	-439.149902	32.805	
C	-0.3069972684	 1.7278289064	 0.3752772863	-0.463412
C	 0.1033702202	 0.2756296996	 0.1160725878	 0.174201
C	 0.885076991	 0.0502317208	-1.1881114861	-0.386473
C	 1.9335325789	-1.0077647991	-0.8305643618	 0.398961
O	 2.7141563806	-1.5298462558	-1.5796612459	-0.299467
C	 1.8104703232	-1.275914343	 0.6792717787	-0.290273
N	 0.94861996	-0.2254232325	 1.2281597359	-0.33419
C	-1.1803368717	-0.5680410893	 0.1525428108	 0.163758
O	-1.688683579	-1.1034664212	-0.7964241211	-0.248199
H	 0.5817564518	 2.3678970133	 0.4110293588	 0.123981
H	-0.9607352088	 2.0975730826	-0.4192458213	 0.143186
H	-0.8334042811	 1.8199811986	 1.3309623096	 0.134893
H	 0.2516455157	-0.3032771673	-2.0054573825	 0.159774
H	 1.3976568105	 0.9588777119	-1.5221682556	 0.126597
H	 1.3574787217	-2.2684917232	 0.8146275077	 0.142357
H	 2.7910625849	-1.3032109249	 1.1596649684	 0.136632
H	 1.5163997507	 0.5358778539	 1.5842685218	 0.22523
H	-1.6095623502	-0.6435676408	 1.1759570885	 0.092441
53.2359	68.4805	141.074	242.1585	273.7987	298.5132	328.7303	394.8709	455.286	478.412	543.5318	574.104	660.2078	749.9254	770.3438	818.2153	828.813	924.1171	940.1754	993.5764	1005.3986	1083.2821	1096.0047	1110.9822	1179.8472	1199.1649	1245.6467	1271.1186	1284.0374	1314.745	1393.2783	1402.8734	1438.1233	1455.3133	1468.4921	1493.2793	1497.3249	1833.5759	1855.9088	2898.0973	3013.6156	3030.7762	3055.5109	3099.7811	3109.6032	3114.9967	3120.6372	3524.4168
CC1(CC(=O)CN1)C=O	C[C@]1(CC(=O)CN1)C=O	
InChI=1S/C6H9NO2/c1-6(4-8)2-5(9)3-7-6/h4,7H,2-3H2,1H3	InChI=1S/C6H9NO2/c1-6(4-8)2-5(9)3-7-6/h4,7H,2-3H2,1H3/t6-/m0/s1
