19
gdb 112412	1.93651	1.5724	0.96479	3.9856	71.02	-0.2695	0.0076	0.2771	1233.7559	0.15947	-460.212305	-460.203471	-460.202527	-460.246014	33.045	
C	-0.6937958068	 1.3850199769	-0.1052847477	-0.418642
C	 0.0033077838	 0.0251434279	-0.0861087204	-0.008236
C	 1.2608881689	-0.0902643885	-0.9575446501	-0.376302
C	 2.0845150964	-1.174432277	-0.2752449037	 0.426522
O	 3.0129688658	-1.7941427766	-0.7013417699	-0.329707
O	 1.5998113977	-1.3702027221	 0.9883365634	-0.242413
C	 0.5260065606	-0.4450334708	 1.292366013	 0.070807
C	 1.0980648561	 0.6305412615	 2.215560755	-0.063107
O	 1.6597039422	 0.0555641996	 3.3745520456	-0.420712
H	-0.0146285248	 2.1948504969	 0.1795123808	 0.12785
H	-1.0688899783	 1.6070109896	-1.1088091447	 0.126982
H	-1.5491373879	 1.4040056703	 0.5779127996	 0.126459
H	-0.7103644653	-0.7341476094	-0.4270330966	 0.097016
H	 1.0739775466	-0.3563158099	-1.9989524779	 0.141644
H	 1.8488162679	 0.835772736	-0.9573142938	 0.138387
H	-0.2216056872	-1.0183849419	 1.8478015925	 0.103709
H	 1.8357098664	 1.2406212788	 1.6673018412	 0.088165
H	 0.2980767789	 1.2991923048	 2.5480560295	 0.115848
H	 2.267570069	-0.6313473862	 3.0752333141	 0.295732
92.9506	105.954	153.0776	191.0428	248.5863	274.993	341.6496	440.4944	463.6259	479.8572	509.2954	552.5981	629.2479	686.278	821.6129	863.1817	911.8051	928.6737	978.0255	1010.6475	1053.534	1094.034	1094.6583	1123.1984	1160.4408	1182.7231	1195.9878	1231.8259	1276.0125	1308.0963	1356.5236	1360.0314	1386.3791	1401.2918	1418.6374	1440.2079	1464.686	1497.0172	1500.4819	1507.3994	1888.0746	2964.9664	3030.8688	3036.91	3048.6044	3073.5183	3087.3373	3105.7084	3109.3001	3124.9451	3792.2064
CC1CC(=O)OC1CO	C[C@H]1CC(=O)O[C@H]1CO	
InChI=1S/C6H10O3/c1-4-2-6(8)9-5(4)3-7/h4-5,7H,2-3H2,1H3	InChI=1S/C6H10O3/c1-4-2-6(8)9-5(4)3-7/h4-5,7H,2-3H2,1H3/t4-,5-/m0/s1
