19
gdb 95355	2.57788	1.69603	1.44569	2.8945	70.59	-0.2453	0.0768	0.3222	984.9069	0.161183	-460.143825	-460.136256	-460.135312	-460.175716	30.074	
O	 0.0505790587	 1.4515704456	-0.0122294222	-0.441533
C	 0.0227467698	 0.0367485504	-0.0130467328	 0.117499
C	 0.775129936	-0.5423232318	 1.1924811393	-0.085735
O	 0.1882432591	-0.1194430314	 2.4165732508	-0.270968
C	-1.161374653	-0.4866853339	 2.6135955631	 0.075568
C	-1.9337820658	 0.7527197883	 3.0851254143	-0.095827
O	-2.3577389496	 1.0282179127	 1.7232261195	-0.302939
C	-2.0525443778	-0.3499894048	 1.353232565	 0.104581
C	-1.4140036071	-0.5045354609	-0.0124581956	-0.276291
H	-0.5892814248	 1.7423523832	 0.6513824306	 0.290671
H	 0.5385658672	-0.2819734254	-0.926594181	 0.080013
H	 0.8133993026	-1.642953638	 1.1251408759	 0.079412
H	 1.7983593285	-0.1603239802	 1.2156666053	 0.118876
H	-1.239714492	-1.4153010064	 3.192646795	 0.074448
H	-2.7931126012	 0.5315264568	 3.7309812214	 0.103153
H	-1.3288643806	 1.5575041151	 3.5086462403	 0.124683
H	-2.9609651407	-0.9623560929	 1.4427834085	 0.077232
H	-2.0158670849	 0.0182013309	-0.7633731878	 0.122967
H	-1.4104808244	-1.5702368773	-0.2736004494	 0.10419
104.4018	164.3997	227.7434	330.6396	376.3485	380.7734	398.2041	446.4228	510.7826	587.309	746.6456	807.3378	821.9587	839.0122	862.2465	907.4825	938.5403	977.0085	991.7175	1012.3445	1048.9438	1075.0815	1100.6471	1118.0268	1149.2403	1180.8531	1233.2915	1246.3926	1266.7326	1293.3363	1308.4709	1346.0048	1350.867	1359.4257	1381.6654	1391.5898	1410.0341	1451.0855	1462.5603	1489.7336	1504.4569	2964.8656	2999.0585	3018.6728	3030.5517	3035.5478	3047.2566	3084.2844	3104.2548	3112.5873	3754.5021
OC1COC2COC2C1	O[C@H]1CO[C@H]2CO[C@H]2C1	
InChI=1S/C6H10O3/c7-4-1-5-6(3-9-5)8-2-4/h4-7H,1-3H2	InChI=1S/C6H10O3/c7-4-1-5-6(3-9-5)8-2-4/h4-7H,1-3H2/t4-,5+,6+/m1/s1
