12
gdb 53773	4.62789	0.75134	0.64654	6.0175	78.97	-0.2702	-0.1166	0.1536	1573.3429	0.076598	-431.665634	-431.656707	-431.655763	-431.700171	30.707	
N	-0.05661495	 1.3459511849	 0.1561309017	-0.55547
C	 0.0992899562	 0.001202612	 0.0437839496	 0.319366
N	 1.1517132406	-0.7188805884	-0.063790461	-0.509047
C	-1.22019356	-0.7361704511	 0.0755252989	 0.161346
O	-2.2826115055	-0.1529118355	 0.1310608203	-0.296922
C	-1.1492949234	-2.1828157484	 0.0268901206	 0.145834
C	-1.219061707	-3.389979097	-0.0035469832	 0.081545
C	-1.2724813375	-4.7522234618	-0.0403400067	 0.212745
N	-1.3211991406	-5.9125238571	-0.0716573948	-0.320367
H	 0.7141066276	 1.9694322805	-0.0084399301	 0.263365
H	-0.9954391298	 1.7109353634	 0.1121264166	 0.2785
H	 2.0068194594	-0.1598902914	-0.0861925821	 0.219104
59.9431	70.1019	127.6239	210.2767	234.1439	300.5492	309.8126	376.7252	449.8085	459.6225	530.0017	556.8627	597.6582	621.535	677.6933	823.9056	888.5484	955.7768	1078.9186	1134.3353	1224.8752	1437.717	1605.3573	1720.3292	1751.1146	2253.399	2383.4862	3460.6815	3593.3882	3728.3985
NC(=N)C(=O)C#CC#N	NC(=N)C(=O)C#CC#N	
InChI=1S/C5H3N3O/c6-3-1-2-4(9)5(7)8/h(H3,7,8)	InChI=1S/C5H3N3O/c6-3-1-2-4(9)5(7)8/h(H3,7,8)
