20
gdb 47533	2.66088	1.52989	1.07493	3.0646	80.27	-0.2514	0.021	0.2724	1144.3788	0.173643	-403.149601	-403.141699	-403.140755	-403.182088	31.238	
N	-0.0465811656	 1.3808040173	-0.2011705846	-0.477741
C	-0.0317798295	 0.1335136699	 0.0194752645	 0.363915
C	-1.3201311158	-0.6587723185	 0.0778573522	-0.286796
C	-1.64794996	-1.1899717525	 1.4647392798	-0.008473
C	-2.1341761657	-2.6082440946	 1.645346974	-0.321889
C	-0.7414432552	-2.2264362864	 2.0799902192	 0.003236
C	 0.4952478569	-2.6540404315	 1.311694584	-0.246524
C	 1.4762298747	-1.4958869684	 1.1111638644	-0.061807
O	 1.1541287489	-0.5593783871	 0.0720503729	-0.262188
H	 0.913339592	 1.7338621438	-0.2231254775	 0.215442
H	-2.1175571211	-0.0012783916	-0.2739936666	 0.129992
H	-1.2393945047	-1.488411916	-0.633023269	 0.111384
H	-2.0557765618	-0.4427944037	 2.1387268925	 0.096144
H	-2.8772887806	-2.8094488613	 2.4090934084	 0.114634
H	-2.237244977	-3.220561192	 0.7543816723	 0.112261
H	-0.5839469926	-2.1388056956	 3.1519398048	 0.086563
H	 1.01930588	-3.4466399269	 1.860176983	 0.104446
H	 0.2376468585	-3.0779117799	 0.3352700349	 0.109845
H	 1.6038619373	-0.9489419705	 2.0564325656	 0.103242
H	 2.4563207413	-1.8782647245	 0.8130637851	 0.114314
82.1938	130.4639	231.5069	287.8704	310.4408	353.124	425.4017	468.3159	535.6925	560.6623	664.0043	749.7321	813.0707	825.3722	865.1251	899.0963	914.2568	943.1847	961.4407	989.9344	1035.1992	1047.7955	1055.315	1074.3103	1120.6622	1139.1103	1150.2801	1162.5702	1228.0005	1245.1531	1254.6323	1302.9247	1310.3477	1342.221	1353.0547	1392.249	1427.8723	1430.9898	1469.1791	1485.1322	1496.547	1503.2732	1736.6363	3004.5236	3031.6436	3049.624	3077.31	3089.9258	3114.3475	3125.3822	3135.5088	3154.1222	3211.513	3452.3476
N=C1CC2CC2CCO1	[NH][C]1C[C@H]2C[C@H]2CCO1	
InChI=1S/C7H11NO/c8-7-4-6-3-5(6)1-2-9-7/h5-6,8H,1-4H2	InChI=1S/C7H11NO/c8-7-4-6-3-5(6)1-2-9-7/h5-6,8H,1-4H2/t5-,6-/m1/s1
