15
gdb 54750	3.06695	1.31725	1.21046	3.3267	67.23	-0.2495	-0.009	0.2406	1048.8959	0.112895	-453.941691	-453.933887	-453.932943	-453.974573	29.534	
N	 0.6041813908	 0.3237880933	-0.8020129796	-0.540527
C	-0.0392540764	 0.0323299053	 0.3580859148	 0.406071
O	 0.2506200904	 0.5278175642	 1.4296871775	-0.368838
C	-1.1926071097	-0.9506953214	 0.2768257627	-0.130629
C	-1.8375982269	-1.5538860853	-0.9207877799	 0.039989
O	-0.8667632422	-1.7803539083	-1.9828243641	-0.291942
C	-0.2029042726	-2.7178812431	-1.1634365987	 0.459304
N	 0.7303687739	-3.5017759479	-1.4346569594	-0.53841
C	-1.0818285668	-2.4693004036	 0.0144389949	-0.217305
H	 1.3929639364	 0.9473150914	-0.7534867806	 0.261679
H	 0.3497607442	-0.1139482594	-1.6723235798	 0.272119
H	-1.8875781829	-0.7670444237	 1.091561734	 0.136659
H	-2.8773861779	-1.504418861	-1.2132618618	 0.137013
H	 1.0442262189	-3.4015940172	-2.4009308851	 0.237148
H	-1.408976209	-3.2013875533	 0.736994175	 0.13767
50.3811	109.9906	226.4813	281.2475	342.0813	351.9066	431.247	487.909	594.6388	641.3445	670.3083	728.1535	777.9582	799.4193	826.8941	868.3753	888.0906	918.6696	953.4918	967.2606	1023.0707	1050.7364	1085.5529	1102.7725	1141.1384	1187.9669	1288.0162	1306.2477	1371.5978	1411.6581	1611.2376	1794.8725	1842.2698	3166.5799	3218.0911	3242.5585	3487.943	3581.9162	3724.9376
NC(=O)C1C2OC(=N)C12	NC(=O)[C@H]1[C@H]2O[C]([NH])[C@@H]12	
InChI=1S/C5H6N2O2/c6-4(8)1-2-3(1)9-5(2)7/h1-3,7H,(H2,6,8)	InChI=1S/C5H6N2O2/c6-4(8)1-2-3(1)9-5(2)7/h1-3,7H,(H2,6,8)/t1-,2+,3-/m1/s1
