18
gdb 12064	3.98001	1.57677	1.42907	2.7965	67.06	-0.2505	0.0683	0.3187	928.5681	0.152356	-384.894491	-384.886399	-384.885455	-384.926557	30.647	
C	-0.0334888545	 1.5847352044	 0.1253843453	-0.457148
C	-0.0132704309	 0.0637204695	 0.0343987467	 0.313895
C	-1.4006311361	-0.5231000391	-0.1929126908	-0.134032
O	-1.8649258173	-0.0925969806	-1.4644287431	-0.422507
C	 1.0466986076	-0.5749960195	-0.9510693059	-0.296943
C	 1.6806979266	-1.2784802965	 0.2522315407	 0.035213
O	 2.0808807513	-0.256938933	 1.1780892251	-0.251682
C	 0.7150588689	-0.6770235595	 1.1836174125	-0.022824
H	 0.9706547266	 1.9639764687	 0.3290838725	 0.1289
H	-0.3944825146	 2.0190806463	-0.8107355291	 0.131299
H	-0.6979394574	 1.9208615805	 0.9304725053	 0.104133
H	-1.3508579885	-1.6236031992	-0.141258725	 0.081012
H	-2.0755054748	-0.1862736341	 0.611458582	 0.085418
H	-2.7482979501	-0.4472159883	-1.5995508391	 0.288993
H	 0.5820309499	-1.2481124863	-1.6740219639	 0.11347
H	 1.7050681012	 0.1232574621	-1.4728603491	 0.108272
H	 2.215686271	-2.2199306527	 0.3006388381	 0.101056
H	 0.3102288111	-1.0328996327	 2.125918928	 0.093476
111.4329	168.6263	205.8457	223.5806	256.8657	297.6397	357.5828	401.3927	444.5153	567.3012	665.8931	791.8854	834.9858	857.9605	864.3603	928.64	952.7159	967.3822	986.8772	1012.2804	1045.5316	1075.5893	1122.2107	1140.9237	1187.234	1221.0593	1227.0389	1250.1518	1275.6559	1283.6518	1324.0269	1382.1249	1402.6613	1461.2229	1477.6457	1493.8045	1497.9391	1522.1878	2954.3381	2983.6265	3031.7387	3072.3365	3102.1255	3129.5461	3131.1632	3162.3665	3187.5182	3833.1933
CC1(CO)CC2OC12	C[C@@]1(CO)C[C@H]2O[C@@H]12	
InChI=1S/C6H10O2/c1-6(3-7)2-4-5(6)8-4/h4-5,7H,2-3H2,1H3	InChI=1S/C6H10O2/c1-6(3-7)2-4-5(6)8-4/h4-5,7H,2-3H2,1H3/t4-,5-,6+/m1/s1
