27
gdb 59456	2.49465	0.96974	0.79391	0.0266	96.92	-0.2636	0.0818	0.3454	1631.5785	0.249973	-353.561507	-353.55012	-353.549176	-353.598003	42.827	
C	-0.1805159709	 1.3118617481	 0.1842192362	-0.377471
C	 0.3199423273	-0.0932355824	-0.1873862617	 0.014523
C	 1.3272972225	-0.0147770068	-1.3444132607	-0.396621
C	 0.9219694972	-0.7820980559	 1.028219835	 0.009323
C	 0.0462122637	-1.2866499015	 2.150079987	-0.326146
C	 0.8425419137	-2.2688389314	 1.3246895973	 0.00933
C	 0.1486591318	-3.3048068015	 0.4529155333	 0.014473
C	 1.119621828	-3.9236623642	-0.5639016407	-0.396602
C	-0.4868421277	-4.4008907585	 1.3233099279	-0.377436
H	 0.6478786723	 1.9412449827	 0.5312316778	 0.108973
H	-0.6357810684	 1.8098828109	-0.6785651043	 0.105226
H	-0.9240676677	 1.2705217028	 0.9857045286	 0.112708
H	-0.5474154253	-0.6744042937	-0.5266422474	 0.069831
H	 2.2089070007	 0.5678122519	-1.0508421516	 0.110344
H	 1.6735104345	-1.0060325219	-1.6495950193	 0.122087
H	 0.8862338854	 0.473313861	-2.2200555505	 0.107318
H	 1.8521317206	-0.3142505163	 1.3492096243	 0.072945
H	 0.3317889223	-1.0967449182	 3.1792251032	 0.103773
H	-1.0276100976	-1.2628723823	 1.9812456653	 0.104002
H	 1.7262132291	-2.670867722	 1.8192793819	 0.072942
H	-0.6604951225	-2.8119485911	-0.1016226869	 0.069837
H	 1.5607719688	-3.1661591229	-1.2174835434	 0.122078
H	 1.9416155163	-4.4372174822	-0.0506630608	 0.110347
H	 0.6132920608	-4.6613335878	-1.1955538274	 0.107319
H	-1.2063444831	-3.9795256864	 2.0316317345	 0.1127
H	-1.0078685238	-5.1417092488	 0.7073464686	 0.105225
H	 0.2787793518	-4.9309391016	 1.9026603837	 0.108973
39.2222	85.3655	128.0564	175.1597	213.5923	222.3042	238.8037	243.6021	255.0533	317.1725	325.2178	354.0835	412.4018	436.377	490.0707	584.7825	751.5274	760.5913	852.3304	885.0729	900.1918	923.3485	929.4358	955.8212	959.442	976.0917	992.532	1008.4342	1061.5385	1065.8083	1128.536	1137.8539	1144.9446	1183.7441	1186.6272	1204.0432	1218.2514	1254.6783	1308.7928	1320.9487	1334.826	1344.317	1394.6475	1400.6265	1402.7221	1419.0542	1422.0858	1436.6057	1482.2733	1488.259	1488.5644	1491.5164	1492.947	1501.2219	1505.1609	1507.9909	1513.1323	3012.122	3023.5447	3024.1245	3024.7901	3028.6947	3031.2136	3086.4564	3086.713	3092.1331	3094.0861	3101.4051	3105.5925	3105.8469	3108.8883	3113.3182	3114.2935	3115.9008	3198.3664
CC(C)C1CC1C(C)C	CC(C)[C@H]1C[C@H]1C(C)C	
InChI=1S/C9H18/c1-6(2)8-5-9(8)7(3)4/h6-9H,5H2,1-4H3	InChI=1S/C9H18/c1-6(2)8-5-9(8)7(3)4/h6-9H,5H2,1-4H3/t8-,9+
