20
gdb 41854	2.37097	2.04916	1.62783	1.239	78.48	-0.1969	0.0115	0.2084	933.4525	0.175339	-403.144878	-403.138006	-403.137062	-403.175661	29.024	
C	-0.0053145588	 1.4205057866	-0.1132632044	-0.073258
C	 1.4368490304	 1.9461129279	-0.0232058731	-0.181548
N	 2.2031021005	 1.3912558125	 1.1020288908	-0.073491
C	 1.7812674402	 1.8618190271	 2.4246947569	-0.221401
C	 0.6079583635	 1.1190323284	 3.0244092193	-0.047719
C	 0.0935141687	 0.0298887685	 2.453160357	-0.086771
C	 0.6600651152	-0.4956102413	 1.1514304661	 0.067712
C	 2.128106093	-0.0734151485	 1.0379111287	-0.191366
O	-0.0601394002	 0.0032278686	 0.0065235096	-0.270421
H	-0.6320969773	 1.8949498091	 0.6557043638	 0.092194
H	-0.4384025713	 1.654039038	-1.0912922605	 0.103114
H	 1.974934751	 1.6725980652	-0.9397730702	 0.104767
H	 1.4341168232	 3.0399444947	 0.0438628521	 0.096502
H	 2.6377630489	 1.7779893138	 3.1136185388	 0.113661
H	 1.5574615283	 2.9337565466	 2.3611729672	 0.110442
H	 0.2196171835	 1.4948171155	 3.9692236875	 0.08974
H	-0.7578585533	-0.4848740085	 2.8884761978	 0.090524
H	 0.5472043742	-1.5824463278	 1.0895673775	 0.077132
H	 2.5423132689	-0.4089140649	 0.0810182917	 0.101827
H	 2.7256519415	-0.5074846013	 1.8475310534	 0.09836
170.2048	241.7494	314.1195	387.5949	406.6165	443.5683	481.6125	521.8106	604.1387	650.7751	723.9054	780.8803	821.3283	850.019	867.5898	906.9407	932.2884	980.6471	1007.0202	1009.7853	1034.4678	1052.5022	1092.4479	1099.1677	1140.9603	1148.8029	1195.0788	1229.2203	1277.2138	1325.3336	1328.8252	1347.1957	1350.4383	1362.7521	1376.6436	1388.1307	1408.2051	1410.7205	1461.5063	1469.8751	1483.9951	1496.7143	1707.9309	2974.0632	2999.0461	3019.5306	3031.0452	3044.3274	3061.166	3069.4891	3078.2554	3082.5934	3140.4284	3174.0871
C1CN2CC=CC(C2)O1	C1CN2CC=C[C@H](C2)O1	
InChI=1S/C7H11NO/c1-2-7-6-8(3-1)4-5-9-7/h1-2,7H,3-6H2	InChI=1S/C7H11NO/c1-2-7-6-8(3-1)4-5-9-7/h1-2,7H,3-6H2/t7-/m1/s1
