16
gdb 126492	2.6524	1.49556	0.96758	2.0424	76.61	-0.2627	-0.0746	0.1881	1175.2885	0.123566	-434.004998	-433.996823	-433.995879	-434.038268	30.142	
C	-0.0974514381	 1.5326149065	-0.0024243479	-0.384817
C	-0.0271094458	 0.0099381636	 0.0941148166	-0.254081
C	 0.7760211666	-0.5268728807	 1.2465494286	 0.353414
N	 1.3296938894	 0.3167406304	 2.0472611838	-0.13418
O	 2.0779112769	-0.1502503811	 3.1214355594	-0.229996
N	 2.2595842298	-1.4867221853	 3.3761379729	-0.058183
C	 1.7092292016	-2.3303338505	 2.5801245337	 0.012787
C	 0.9023441001	-1.9796886066	 1.4210536143	 0.176661
N	 0.3365530372	-2.7893651967	 0.60320061	-0.505877
H	 0.8971692299	 1.9720124195	-0.113627373	 0.133207
H	-0.7001701666	 1.8208609238	-0.8678512627	 0.11462
H	-0.548675098	 1.9690529808	 0.8923437144	 0.133254
H	-1.0293223922	-0.4309193135	 0.167890169	 0.139453
H	 0.3913567829	-0.4281135993	-0.8208526493	 0.139487
H	 1.8847309401	-3.3755993412	 2.8274317963	 0.140526
H	 0.5235908663	-3.7603284097	 0.8674899637	 0.223725
66.2862	96.1615	190.5332	211.1994	290.1476	328.8192	428.3248	485.9251	499.2086	511.2968	611.8718	722.7777	734.8817	805.9422	823.8899	871.1398	883.1186	949.8022	952.5815	1001.1347	1095.1243	1102.9594	1130.9914	1212.5101	1274.7682	1326.8496	1368.1881	1418.0716	1445.1894	1455.1103	1494.5019	1500.8462	1625.5256	1642.4888	1695.8439	3037.243	3051.7095	3058.6679	3123.3818	3126.182	3155.504	3432.5183
CCC1=NON=CC1=N	CCC1=NON=C[C]1[NH]	
InChI=1S/C5H7N3O/c1-2-5-4(6)3-7-9-8-5/h3,6H,2H2,1H3	InChI=1S/C5H7N3O/c1-2-5-4(6)3-7-9-8-5/h3,6H,2H2,1H3
