17
gdb 33845	4.33181	1.12571	1.04209	4.632	79.01	-0.2592	-0.0012	0.258	1166.6371	0.13633	-380.822462	-380.814743	-380.813799	-380.854615	30.077	
N	 0.2360519237	-1.0965315028	 0.0647462791	-0.336238
C	 0.1145523815	 0.0533870968	 0.0255197516	 0.213513
C	-0.0818378644	 1.4705436917	-0.0135582583	 0.187549
C	 0.2422682942	 2.3014001296	-1.2008212624	-0.263838
N	 1.0790840219	 2.47297156	-0.0044086589	-0.177642
C	 0.2622330297	 3.2947604715	 0.9367586901	 0.395039
C	 0.9100953259	 4.0540134696	 2.0409517042	-0.336496
C	 0.2363494263	 4.7889201467	 0.8947113365	-0.326441
C	-0.8753467309	 2.2726145845	 1.0260070995	-0.393518
H	 0.7627209556	 1.8130703534	-2.0179850508	 0.145189
H	-0.4434989359	 3.0951299063	-1.4880595492	 0.129244
H	 0.4301700994	 4.0579995948	 3.0140189083	 0.121363
H	 1.9942914977	 4.0513559099	 2.065153754	 0.135363
H	 0.8748210087	 5.2820900851	 0.1691514902	 0.128097
H	-0.7055962578	 5.2927045315	 1.0853694232	 0.121783
H	-1.879603322	 2.5804180919	 0.7227590394	 0.119151
H	-0.9243958136	 1.7723526195	 1.9947147237	 0.137882
91.4328	149.8583	228.5136	263.6761	301.3759	393.0378	453.4702	509.0685	555.8482	584.9552	629.0227	765.1472	786.3978	805.8716	853.175	868.2285	933.746	953.2319	962.3717	993.9644	1050.4843	1067.2726	1080.0424	1120.9681	1130.5938	1171.1718	1187.5326	1213.0293	1235.9912	1261.3337	1344.9994	1384.6245	1454.2176	1485.5603	1494.7056	1508.7736	2350.425	3063.6125	3112.3277	3125.4937	3129.2147	3133.9732	3212.1968	3213.7033	3227.3044
N#CC12CN1C1(CC1)C2	N#C[C@]12CN1C1(CC1)C2	
InChI=1S/C7H8N2/c8-4-7-3-6(1-2-6)9(7)5-7/h1-3,5H2	InChI=1S/C7H8N2/c8-4-7-3-6(1-2-6)9(7)5-7/h1-3,5H2/t7-,9?/m1/s1
