18
gdb 94071	4.56991	0.99374	0.85815	2.9024	73.24	-0.2789	0.024	0.3029	1319.6181	0.148486	-439.109839	-439.101455	-439.100511	-439.142837	31.365	
C	 0.0407892045	 1.5020486278	 0.0097057422	-0.4108
C	 0.0508848432	-0.0090191649	 0.0015149375	 0.213239
O	 0.7048447151	-0.4450170755	-1.1718193409	-0.243592
C	 0.7553117237	-1.8522594404	-1.2656486691	-0.093093
C	 1.4778687987	-2.4301341531	-0.0250697626	-0.172219
C	 0.7791489872	-1.8656630088	 1.2351794006	-0.093093
O	 0.7270483858	-0.4574977645	 1.157426906	-0.243591
C	 1.4750838013	-3.8877652465	-0.032869861	 0.259821
N	 1.4508023763	-5.043448866	-0.038829115	-0.31522
H	 1.0681981144	 1.8734202217	 0.0018502539	 0.1397
H	-0.4807777	 1.8751361308	-0.8741882477	 0.132103
H	-0.4637068953	 1.8655857162	 0.9073795107	 0.132104
H	-0.974840268	-0.4264989604	 0.0090527169	 0.062542
H	-0.258121412	-2.2799709882	-1.3282410653	 0.110777
H	 1.2914138086	-2.0969484533	-2.1847500081	 0.13478
H	 2.5138200972	-2.0738185951	-0.033030436	 0.140983
H	-0.2329542858	-2.2941171091	 1.3124793912	 0.110777
H	 1.332633295	-2.1201405407	 2.1412273267	 0.134781
89.4336	140.855	198.2488	216.1426	265.1133	315.4816	339.8668	392.5916	480.7058	525.4582	551.2924	569.5338	640.4604	840.5518	882.0121	901.2505	922.8173	1013.5148	1063.1809	1070.8637	1092.9539	1108.265	1125.5116	1177.6474	1192.3233	1254.4311	1288.1648	1312.581	1325.6063	1370.9733	1391.9723	1409.1337	1420.5178	1436.096	1481.876	1486.9958	1497.8829	1504.5743	2357.0403	2917.3802	2981.9714	2988.3288	3061.4858	3061.5955	3111.1276	3112.8567	3143.8035	3145.4974
CC1OCC(CO1)C#N	C[C@H]1OC[C@@H](CO1)C#N	
InChI=1S/C6H9NO2/c1-5-8-3-6(2-7)4-9-5/h5-6H,3-4H2,1H3	InChI=1S/C6H9NO2/c1-5-8-3-6(2-7)4-9-5/h5-6H,3-4H2,1H3/t5-,6-
