21
gdb 63383	2.624	1.27776	1.00975	1.1167	84.79	-0.2551	0.032	0.2871	1260.5989	0.17903	-387.052881	-387.042866	-387.041922	-387.086935	38.878	
C	-0.7105276177	 1.432795086	-0.096428985	-0.4471
C	 0.0679820937	 0.1260666778	 0.0258904827	 0.359067
C	-0.8529244231	-1.0801326684	-0.1770626338	-0.445377
C	 1.3685167162	 0.0382663975	-0.8348338071	-0.309025
C	 2.1728163631	-0.4346455716	 0.4090412069	 0.246831
O	 3.3616363531	 0.3240967177	 0.5678702521	-0.462275
C	 0.9572857262	-0.0092592881	 1.3032495075	-0.326537
C	 2.4609826932	-1.8650841686	 0.4501259378	 0.312822
C	 2.7291947115	-3.0358241414	 0.5226433743	-0.510304
H	-0.0580255285	 2.3004219018	 0.0465667239	 0.111741
H	-1.176387836	 1.523113452	-1.0849408282	 0.112493
H	-1.5101645123	 1.4871070357	 0.651821921	 0.111779
H	-1.3185732497	-1.0521077607	-1.1690568253	 0.110149
H	-0.3057119757	-2.0235438148	-0.0897827359	 0.126234
H	-1.6558732416	-1.0869366569	 0.5692223964	 0.109586
H	 1.3594234659	-0.6312922596	-1.6969549478	 0.105465
H	 1.7373976999	 1.0205875181	-1.1399151799	 0.11165
H	 3.871917667	-0.0702241649	 1.2839623775	 0.280477
H	 1.1752064306	 0.9566194629	 1.7661177804	 0.102682
H	 0.6309049145	-0.7188516811	 2.0668758446	 0.099493
H	 2.9617476098	-4.0710467433	 0.571549748	 0.200147
76.9738	137.8421	172.934	232.5466	263.8265	270.927	293.8892	322.8121	333.1701	347.6752	423.6966	436.2332	490.7051	567.0073	616.3821	620.0167	665.9205	707.5262	813.602	865.5266	878.5357	928.9727	939.0959	968.9795	1006.5769	1013.028	1021.922	1087.7032	1098.126	1208.1801	1227.0775	1235.4517	1250.4469	1300.4108	1310.6697	1365.8203	1405.5184	1422.872	1461.6345	1480.2861	1487.1366	1492.6145	1504.7384	1510.6207	2224.8665	3018.4049	3024.7365	3058.1096	3067.1838	3081.8935	3087.9221	3094.3648	3106.8528	3122.1158	3128.3902	3500.1402	3804.6159
CC1(C)CC(O)(C1)C#C	CC1(C)CC(O)(C1)C#C	
InChI=1S/C8H12O/c1-4-8(9)5-7(2,3)6-8/h1,9H,5-6H2,2-3H3	InChI=1S/C8H12O/c1-4-8(9)5-7(2,3)6-8/h1,9H,5-6H2,2-3H3
