15
gdb 57181	2.84866	1.29816	0.89286	4.7141	76.21	-0.1833	-0.0737	0.1096	1207.9426	0.110741	-491.121141	-491.11212	-491.111176	-491.15459	33.664	
N	-0.1769358946	 1.2245357381	 0.0185099178	-0.5473
C	-0.0416460749	-0.1065788196	-0.2228787458	 0.357114
N	 1.0290361004	-0.5645484655	-0.898065464	-0.560324
H	 1.8504417544	 0.0115409833	-0.9781504449	 0.2547
H	 1.0945859738	-1.5906239824	-0.9095380682	 0.300351
C	-1.0247336026	-0.99068906	 0.2533876083	 0.167815
O	-2.1074054936	-0.3834686568	 0.8526152736	-0.48144
C	-0.8644599779	-2.3912568551	 0.1314628585	 0.177237
O	 0.100191358	-2.982222082	-0.421440089	-0.454619
C	-1.9431625175	-3.26378009	 0.7153038138	 0.114794
O	-2.9598107325	-2.8671593627	 1.2576453144	-0.304025
H	 0.2844106831	 1.8783225943	-0.5927246125	 0.261487
H	-1.0798705425	 1.4995565031	 0.3750458231	 0.288132
H	-2.7044095657	-1.0979135834	 1.1449222616	 0.311756
H	-1.7275973177	-4.3441360414	 0.5997426132	 0.11432
84.2715	144.5541	193.1808	218.3655	260.7144	324.289	342.3153	385.5112	409.8644	444.7394	484.6036	529.1605	554.1147	567.7907	600.969	691.0728	723.7647	729.038	774.868	1028.1974	1030.3748	1088.8644	1118.5728	1275.1105	1330.0181	1364.435	1437.9176	1469.0218	1572.0342	1630.5019	1649.6481	1668.8615	1760.3698	2956.0351	3261.3535	3548.2448	3585.3975	3666.8437	3704.6254
NC(=[NH2+])[C-](O)C(=O)C=O	NC(=[NH2])[C](O)C(=O)C=O	
InChI=1S/C4H5N2O3/c5-4(6)3(9)2(8)1-7/h1,9H,(H3,5,6)/q-1/p+1	InChI=1S/C4H6N2O3/c5-4(6)3(9)2(8)1-7/h1,9H,5-6H2
