15
gdb 131149	3.80636	1.29403	1.06612	1.7114	66.62	-0.2514	-0.0327	0.2187	1090.1637	0.112791	-453.925567	-453.917998	-453.917054	-453.958141	28.336	
O	 0.0608614463	 1.3616900731	 0.0066125043	-0.460834
C	-0.0041228704	-0.0310688968	-0.0060471302	 0.316502
C	-0.4978498048	-0.7469676686	 1.2451498503	-0.311565
C	-1.3790569594	-0.6225558293	 0.0258342558	-0.306436
C	 1.0717995388	-0.6694108416	-0.7958108865	 0.334924
N	 1.007325141	-1.8607728364	-1.330101312	-0.194579
O	 2.2749986177	-2.0249004588	-1.9134098398	-0.152478
C	 2.943846957	-0.9024647165	-1.6650444692	 0.110204
N	 2.280955369	-0.0233344151	-0.9855104426	-0.336683
H	 0.9873311888	 1.6038233647	 0.1306534673	 0.296557
H	-0.0764864218	-1.7172313698	 1.4821978115	 0.127945
H	-0.7146536447	-0.1046201355	 2.0908372522	 0.127433
H	-2.1883523259	 0.0972092783	 0.0623820246	 0.133231
H	-1.563458814	-1.5052406233	-0.5746243859	 0.144311
H	 3.9518552024	-0.8331424743	-2.0471570697	 0.171469
54.4487	159.9145	180.3971	291.2007	335.3551	366.1629	447.9934	510.1851	547.636	626.3054	764.7226	782.3955	864.7935	904.4507	905.0477	910.7758	939.222	983.2063	990.6981	1007.474	1055.3398	1088.0581	1156.4479	1191.5233	1198.0364	1274.784	1312.2036	1346.7004	1425.4646	1447.9638	1493.7508	1532.7204	1602.1658	3139.1175	3147.847	3231.7664	3246.2715	3266.1285	3780.9864
OC1(CC1)C1=NOC=N1	OC1(CC1)c1nocn1	
InChI=1S/C5H6N2O2/c8-5(1-2-5)4-6-3-9-7-4/h3,8H,1-2H2	InChI=1S/C5H6N2O2/c8-5(1-2-5)4-6-3-9-7-4/h3,8H,1-2H2
