20
gdb 7604	3.19192	1.5507	1.28138	2.7035	76.25	-0.2379	-0.0065	0.2314	1056.9717	0.174496	-349.026611	-349.017202	-349.016258	-349.060538	34.486	
C	-0.1910552621	 1.4757640532	 0.1013349762	-0.420291
C	 0.0433625106	-0.0169901032	 0.0589055264	 0.003854
C	 1.3517282608	-0.6107727887	-0.3384849483	-0.310027
C	 0.891725526	-0.7510005729	 1.1124194602	 0.21129
C	 1.6210937288	 0.0295142392	 2.1900197566	-0.488162
C	 0.3538569241	-2.1151113298	 1.4525706695	 0.331665
C	 0.4750345087	-2.5999231742	 2.8867870784	-0.490473
O	-0.173237499	-2.8113908193	 0.6072382863	-0.323455
H	 0.7168217123	 2.0350320199	 0.3423881139	 0.116493
H	-0.5375262925	 1.8267406111	-0.8769781689	 0.125362
H	-0.9568822369	 1.7427111545	 0.8377577755	 0.119863
H	-0.8188853572	-0.6028197626	-0.2459414764	 0.109471
H	 1.3411550368	-1.5161096915	-0.9340116728	 0.13277
H	 2.18823306	 0.0592153643	-0.512765497	 0.106717
H	 2.0017149327	 0.9767082479	 1.8020433403	 0.119857
H	 0.9741828655	 0.2641876893	 3.0424347239	 0.119228
H	 2.4838067115	-0.5273982823	 2.571298241	 0.120707
H	-0.0137099721	-1.9036950191	 3.5771042263	 0.136951
H	 0.0139353784	-3.584346055	 2.9696867588	 0.13968
H	 1.5255083135	-2.6603892807	 3.1915696102	 0.1385
49.9501	138.9126	159.407	180.4897	203.2135	236.0203	297.4176	329.1825	380.4483	417.0213	449.6131	564.5802	605.7157	655.0433	756.0057	835.0172	899.6733	929.096	959.2855	969.5173	1018.7864	1054.3657	1071.1786	1103.4535	1117.3192	1135.5318	1175.3735	1202.6158	1295.5587	1318.9285	1381.7011	1399.2873	1418.2392	1427.4376	1459.9255	1472.0743	1474.0965	1488.9242	1494.2789	1502.8449	1512.0237	1775.8862	3031.1517	3034.6909	3040.064	3088.1369	3091.0075	3099.8913	3107.2485	3120.3226	3128.4637	3154.0225	3158.5896	3225.8629
CC1CC1(C)C(C)=O	C[C@H]1C[C@]1(C)C(=O)C	
InChI=1S/C7H12O/c1-5-4-7(5,3)6(2)8/h5H,4H2,1-3H3	InChI=1S/C7H12O/c1-5-4-7(5,3)6(2)8/h5H,4H2,1-3H3/t5-,7-/m0/s1
