16
gdb 34914	2.9932	1.68388	1.35714	1.3274	72.87	-0.2321	0.0393	0.2714	955.4904	0.124452	-400.660248	-400.653079	-400.652135	-400.691748	28.56	
C	-0.2859094161	-1.2645538232	-0.3018296618	-0.45822
C	-0.1406439884	-0.0836825384	-0.1366646786	 0.360172
C	 0.0244400529	 1.3488009826	 0.0708993604	-0.207735
C	-0.5936070472	 1.8604906864	 1.3799891669	 0.033669
O	-0.0056719548	 1.3168883285	 2.5595791444	-0.24256
C	 0.4471258997	 2.6015348103	 2.1047047035	 0.024739
C	 1.7131804415	 2.557839847	 1.2847202686	-0.056872
C	 2.3333891783	 1.2220996803	 1.0786413723	-0.241672
N	 1.453804724	 1.7864405935	 0.0468164581	-0.108775
H	-0.4129999093	-2.3084812429	-0.44981246	 0.200831
H	-0.468570806	 1.8859807386	-0.7508446186	 0.118445
H	-1.6595816427	 2.0722505702	 1.428607464	 0.109528
H	 0.2439074234	 3.4378873287	 2.7667295469	 0.106098
H	 2.2794905172	 3.4789938424	 1.1828067436	 0.096474
H	 3.3745117802	 1.1504249164	 0.7767849872	 0.116668
H	 1.9632128572	 0.4095668095	 1.6934739731	 0.149211
111.4135	137.2371	284.0306	311.4301	385.6698	509.8503	519.7756	552.8098	624.4282	656.9287	705.688	725.5936	774.8533	817.9045	858.8157	882.7227	887.8426	941.115	1002.0432	1038.635	1048.8722	1073.9495	1086.2467	1107.7524	1125.3328	1157.9577	1246.5902	1259.9754	1292.7041	1322.3887	1331.3158	1367.0741	1425.2109	1496.9899	2242.2471	3014.0815	3120.2997	3137.2856	3150.3565	3168.3906	3220.4558	3503.7102
C#CC1C2OC2C2CN12	C#C[C@H]1[C@H]2O[C@H]2[C@H]2CN12	
InChI=1S/C7H7NO/c1-2-4-6-7(9-6)5-3-8(4)5/h1,4-7H,3H2	InChI=1S/C7H7NO/c1-2-4-6-7(9-6)5-3-8(4)5/h1,4-7H,3H2/t4-,5+,6+,7-,8?/m0/s1
