14
gdb 49377	2.18561	1.409	0.97684	2.9379	70.49	-0.2626	-0.0425	0.2201	1170.3433	0.098524	-436.673861	-436.665206	-436.664262	-436.707994	30.581	
O	-0.6417138926	 0.8452989461	-0.5700217539	-0.238861
C	 0.2050384251	 0.971704855	 0.2779430967	 0.151213
C	 1.3880207773	 1.8954664111	 0.1625150138	-0.280469
C	 1.4946438038	 2.7327625385	-1.1502624043	-0.162032
N	 1.2574216812	 3.9294799194	-0.317949124	-0.311919
C	 1.1905962608	 3.283129064	 0.8835705102	 0.42568
O	 1.0366729709	 3.6394242279	 2.0156774678	-0.339902
C	 2.7684795215	 2.6957552292	-1.8476548357	 0.317165
C	 3.8184801548	 2.6664026576	-2.4311378503	-0.423013
H	 0.1507981919	 0.4190984956	 1.2392890972	 0.105097
H	 2.3099989143	 1.403441977	 0.4798689471	 0.137634
H	 0.6642349709	 2.52014108	-1.829518323	 0.144661
H	 1.2823319554	 4.9130048497	-0.5447628961	 0.265482
H	 4.7452482345	 2.6401357388	-2.9498655957	 0.209263
61.0076	84.2081	145.8453	169.0135	219.4383	262.9755	382.0183	440.3969	505.426	541.8279	627.6831	639.1276	670.5073	686.1118	732.3557	833.0476	940.5495	963.7191	1033.4852	1047.3359	1065.3504	1141.474	1161.6807	1237.1658	1300.6293	1372.5488	1383.6112	1418.9292	1815.5631	1909.6299	2241.079	2916.5305	3076.6305	3106.157	3500.2159	3613.8932
O=CC1C(NC1=O)C#C	O=C[C@H]1[C@@H](NC1=O)C#C	
InChI=1S/C6H5NO2/c1-2-5-4(3-8)6(9)7-5/h1,3-5H,(H,7,9)	InChI=1S/C6H5NO2/c1-2-5-4(3-8)6(9)7-5/h1,3-5H,(H,7,9)/t4-,5-/m0/s1
