22
gdb 99257	3.75002	0.70389	0.65705	4.2008	80.09	-0.2534	0.0214	0.2747	1798.3763	0.192215	-441.525842	-441.514825	-441.51388	-441.563403	39.068	
C	-0.2985468572	 1.4251566634	-0.1026865941	-0.389924
C	-0.3356990404	-0.105482023	-0.0234819589	 0.042356
C	 0.9742892767	-0.6688558678	 0.5393267399	-0.388504
C	-1.5554839883	-0.5539300666	 0.8024153365	-0.161509
N	-1.7543782948	-1.9976382095	 0.8382708656	-0.316352
C	-2.4798434095	-2.6573860891	-0.0940031854	 0.389506
O	-3.041999276	-2.1081831439	-1.0321066011	-0.394359
C	-2.5947731323	-4.1779302129	 0.0710860821	-0.144245
O	-3.3636695899	-4.7081877793	-0.9659708143	-0.4195
H	 0.5384021158	 1.7653709976	-0.7201844676	 0.116769
H	-1.2202819422	 1.8254662149	-0.5372238255	 0.120578
H	-0.1763350836	 1.8703387743	 0.8924924981	 0.111344
H	-0.4793504548	-0.5012317497	-1.0368311818	 0.099312
H	 1.1594268541	-0.2966661258	 1.5549949014	 0.108839
H	 0.9596827503	-1.7629085666	 0.576893845	 0.10576
H	 1.8268842413	-0.3733584885	-0.0799884881	 0.120227
H	-1.4602878079	-0.1988625871	 1.8356087419	 0.101909
H	-2.463873525	-0.1176505504	 0.3791696985	 0.13762
H	-1.3006391612	-2.5341368895	 1.5596820889	 0.252313
H	-1.5825607645	-4.6143252137	 0.0789268651	 0.105874
H	-3.0444226015	-4.3957517619	 1.0537459467	 0.107793
H	-3.6180585792	-3.9317770448	-1.4947867631	 0.294194
34.0106	62.6575	63.5247	81.0975	216.1996	219.7969	257.7724	265.4232	303.4631	364.7873	401.8072	412.2021	437.5122	477.6149	549.7703	616.0714	694.6849	817.8384	850.6279	928.4836	936.3804	965.0061	980.5884	1037.352	1058.4774	1141.0237	1147.2481	1179.0349	1195.8217	1245.681	1256.002	1298.486	1317.7242	1338.3462	1375.452	1395.86	1402.6945	1424.7988	1464.3573	1468.8825	1489.0693	1494.7035	1505.3382	1509.7693	1512.6979	1557.3092	1764.8235	2969.281	2987.1438	3021.8805	3024.7677	3027.7188	3042.7337	3087.8296	3093.2317	3102.8861	3105.5991	3108.0246	3639.9372	3643.168
CC(C)CNC(=O)CO	CC(C)CNC(=O)CO	
InChI=1S/C6H13NO2/c1-5(2)3-7-6(9)4-8/h5,8H,3-4H2,1-2H3,(H,7,9)	InChI=1S/C6H13NO2/c1-5(2)3-7-6(9)4-8/h5,8H,3-4H2,1-2H3,(H,7,9)
