16
gdb 26870	3.06729	1.4209	0.9775	5.49	79.25	-0.1991	-0.0343	0.1649	1156.3095	0.124328	-437.961551	-437.953196	-437.952251	-437.994312	31.624	
C	 0.004406929	 1.5658892006	 0.0346702356	-0.521444
C	 0.0243078683	 0.0600140921	 0.0129749318	 0.118276
C	-1.1402892099	-0.6708275575	 0.0515083761	 0.396985
N	-2.3959134763	-0.1385548628	 0.1460708569	-0.559554
O	-1.1604439275	-2.0036810584	 0.0433972914	-0.261076
C	 0.0248165149	-2.8213138909	 0.0063448547	 0.418682
O	-0.158626151	-4.0073601247	 0.0109903307	-0.349449
C	 1.2382780043	-2.0645918856	-0.0361857497	-0.306842
C	 1.2175234594	-0.6987508804	-0.0334485835	-0.084486
H	 1.0234719175	 1.9607887568	 0.027542906	 0.133495
H	-0.5083930869	 1.9938193341	-0.8383200024	 0.121263
H	-0.4923094484	 1.9620286952	 0.9294999213	 0.132657
H	-2.5195858112	 0.8144221475	-0.1541660241	 0.268392
H	-3.154623017	-0.7673235814	-0.068089929	 0.272478
H	 2.1584579803	-2.6315226886	-0.0716253628	 0.114162
H	 2.1609389345	-0.158988466	-0.066892783	 0.10646
108.0011	118.8515	191.5729	274.6161	281.3841	342.2576	397.8267	423.8995	458.6139	474.3311	511.4828	579.6636	700.0269	725.3739	755.773	765.0073	815.2949	854.1794	989.0271	993.4895	1053.221	1065.6054	1106.3423	1172.9554	1237.3714	1311.8857	1405.827	1432.9514	1458.1432	1485.8834	1501.6202	1563.3075	1638.4657	1671.6132	1855.4126	3001.9374	3048.3229	3111.6929	3159.9199	3227.4111	3592.2469	3710.9196
CC1=C(N)OC(=O)C=C1	Cc1c(N)oc(=O)cc1	
InChI=1S/C6H7NO2/c1-4-2-3-5(8)9-6(4)7/h2-3H,7H2,1H3	InChI=1S/C6H7NO2/c1-4-2-3-5(8)9-6(4)7/h2-3H,7H2,1H3
