23
gdb 57183	2.20699	1.29559	1.07242	2.4476	81.57	-0.2342	-0.0164	0.2177	1284.5689	0.200836	-425.452707	-425.441281	-425.440336	-425.488957	42.188	
C	 1.4245597207	-0.8434452538	 0.0072644335	-0.486878
C	 0.1034804184	-0.0977021515	-0.0201737663	 0.362706
O	 0.0557221172	 1.1105189282	-0.0777904092	-0.304093
C	-1.1916771151	-0.9369083948	-0.008352376	 0.010776
O	-0.9315059184	-2.3006534126	-0.3155043345	-0.432102
C	-2.0432868168	-0.7573550082	 1.292411535	 0.228599
C	-2.532835288	 0.6964862137	 1.4190986099	-0.40653
C	-3.2696554838	-1.6850892866	 1.1931720576	-0.401104
C	-1.2153138249	-1.1292431804	 2.538751657	-0.428375
H	 2.2428490738	-0.1232315876	-0.0192451621	 0.139633
H	 1.5086271103	-1.4564769001	 0.912715458	 0.127729
H	 1.4880909882	-1.5290249453	-0.8425076325	 0.156603
H	-1.792293063	-0.5658217562	-0.8472284502	 0.114093
H	-0.5688677857	-2.727966703	 0.467288523	 0.282458
H	-3.1327610528	 0.9840201545	 0.5492198012	 0.112039
H	-3.1651137774	 0.7953093882	 2.3083070816	 0.103737
H	-1.7075277267	 1.4049100631	 1.4972963987	 0.142489
H	-2.9808628972	-2.7337799557	 1.0932667311	 0.112206
H	-3.8918266156	-1.5814672029	 2.0883164499	 0.108273
H	-3.8852264703	-1.4275731805	 0.3248486484	 0.113974
H	-0.359150704	-0.4598114221	 2.6718575398	 0.125098
H	-1.8332619222	-1.0554193674	 3.4390142488	 0.123564
H	-0.8405769067	-2.160305399	 2.5018266578	 0.095103
43.5399	68.8967	152.9966	181.3351	210.7521	234.0658	262.5237	273.1744	295.7431	297.4428	312.5888	354.4822	384.811	416.0109	447.2086	518.9746	567.0114	595.3456	734.2748	796.0855	890.7848	935.1444	937.9555	964.0869	988.5785	999.4383	1042.3372	1056.7866	1091.2637	1193.0408	1221.4547	1233.9728	1255.1934	1279.739	1306.7337	1374.9146	1397.0038	1401.9566	1407.4182	1435.2173	1459.3402	1469.7522	1478.0057	1481.9767	1485.1098	1501.477	1509.1104	1516.5451	1802.5705	3015.7145	3032.5176	3036.5739	3038.0379	3048.0406	3080.2183	3093.9881	3100.1814	3104.3632	3105.8681	3122.2371	3144.1383	3156.5934	3814.0202
CC(=O)C(O)C(C)(C)C	CC(=O)[C@@H](O)C(C)(C)C	
InChI=1S/C7H14O2/c1-5(8)6(9)7(2,3)4/h6,9H,1-4H3	InChI=1S/C7H14O2/c1-5(8)6(9)7(2,3)4/h6,9H,1-4H3/t6-/m1/s1
