17
gdb 36679	3.20831	0.78726	0.67036	6.3782	77.84	-0.3015	0.0165	0.318	1601.1281	0.136095	-380.892319	-380.883275	-380.882331	-380.927327	31.96	
N	-0.1261635443	-1.1486289771	-0.0282291633	-0.296908
C	-0.0575884967	-0.0015049526	 0.0910567515	 0.259157
C	 0.0448912816	 1.4488962382	 0.2324608452	-0.337814
C	 1.3841505272	 2.0027900017	-0.3003746451	-0.220041
C	 1.446553282	 3.5074788668	-0.159947428	-0.007569
C	 1.8675432223	 4.1498915376	 1.1294769478	-0.285617
C	 2.7821272688	 4.2377613104	-0.0841368278	-0.18867
C	 4.0135385427	 3.4987978766	-0.0969701074	 0.287596
N	 5.0037219903	 2.9003448955	-0.1096671238	-0.333588
H	-0.7954991626	 1.9085112136	-0.3010277261	 0.153484
H	-0.0759861827	 1.7076625115	 1.2904307165	 0.157251
H	 2.2122930938	 1.5352788133	 0.2408611613	 0.145553
H	 1.5002045579	 1.7188780133	-1.3516163374	 0.13685
H	 0.6945483641	 4.0450959174	-0.7321748224	 0.108875
H	 1.387179727	 5.0669147423	 1.4494799951	 0.136384
H	 2.194184256	 3.5020936486	 1.9355304801	 0.144844
H	 2.8411656925	 5.1961416631	-0.5883736761	 0.140214
62.8617	75.3845	88.1875	158.7734	203.1166	254.9271	354.1656	385.6242	411.9045	533.1432	554.7693	629.162	761.4126	777.1985	819.8117	870.7451	930.6185	950.7907	966.2873	1032.74	1052.3459	1079.333	1122.4963	1124.538	1158.8663	1221.6534	1239.8205	1288.4443	1316.992	1365.6313	1383.162	1424.1785	1468.4781	1485.5202	1496.6642	2353.9926	2365.329	3040.4652	3056.1186	3076.0263	3102.1356	3142.1491	3144.1665	3174.0073	3234.846
N#CCCC1CC1C#N	N#CCC[C@H]1C[C@H]1C#N	
InChI=1S/C7H8N2/c8-3-1-2-6-4-7(6)5-9/h6-7H,1-2,4H2	InChI=1S/C7H8N2/c8-3-1-2-6-4-7(6)5-9/h6-7H,1-2,4H2/t6-,7-/m0/s1
