19
gdb 61308	5.47611	0.71049	0.66749	4.5956	77.53	-0.2405	0.0189	0.2594	1645.744	0.1578	-419.173945	-419.164307	-419.163363	-419.209351	33.982	
C	-0.1201096696	 1.4835186798	 0.0570657304	-0.345148
N	-0.025578643	 0.0246478316	 0.0166867399	-0.076261
C	 0.7185870026	-0.5024431674	 1.1520840692	-0.278657
C	 2.1262033293	-0.0842622249	 1.1307483245	 0.277156
N	 3.2340858953	 0.2420938114	 1.1317927325	-0.306731
C	-1.3270014716	-0.6258443878	-0.1102623538	-0.165105
C	-1.9552490127	-0.3773498151	-1.4604667289	 0.07613
C	-3.4080396511	-0.4563240365	-1.6521360241	-0.179222
O	-2.7453004242	 0.8068716876	-1.6103211158	-0.228424
H	 0.8844281407	 1.9138991089	 0.0695205082	 0.145545
H	-0.6422583333	 1.8449465436	-0.8290049847	 0.157876
H	-0.6676452333	 1.8453397995	 0.9468686622	 0.09911
H	 0.2941689522	-0.2039495838	 2.1311235803	 0.128681
H	 0.6958910363	-1.5973805104	 1.1187853544	 0.150685
H	-1.1767921455	-1.7073763842	-0.0009660802	 0.108824
H	-2.0391221796	-0.3100649602	 0.6760242782	 0.091225
H	-1.3047554952	-0.5891502469	-2.309384951	 0.106665
H	-3.8083931042	-0.7464128465	-2.6220198379	 0.121265
H	-4.0520289131	-0.6732085386	-0.8005054335	 0.116386
50.223	69.7379	114.1425	134.3287	214.5896	238.9998	300.894	358.5738	365.2271	391.0938	417.5903	461.6859	608.6091	801.2296	856.7628	866.3716	934.8405	961.5963	981.8649	1009.911	1063.5202	1092.1426	1129.3777	1155.0788	1159.206	1167.6075	1189.7554	1224.4934	1291.7167	1298.6044	1313.4269	1363.7184	1399.7358	1449.9651	1465.9863	1468.1572	1488.0185	1498.7615	1504.1024	1529.4976	2366.6082	2911.9239	2927.5584	2943.9886	3042.6634	3064.1655	3084.4625	3093.8777	3116.004	3152.1481	3171.7738
CN(CC#N)CC1CO1	CN(CC#N)C[C@H]1CO1	
InChI=1S/C6H10N2O/c1-8(3-2-7)4-6-5-9-6/h6H,3-5H2,1H3	InChI=1S/C6H10N2O/c1-8(3-2-7)4-6-5-9-6/h6H,3-5H2,1H3/t6-/m0/s1
