14
gdb 25167	3.11773	1.50377	1.01447	3.2411	85.01	-0.2123	-0.0635	0.1489	1090.0022	0.101222	-399.547947	-399.540426	-399.539482	-399.580019	28.813	
N	-0.0232351355	 1.2627236807	 0.4036048358	-0.530635
C	-0.036509895	 0.0584934819	 0.0136936851	 0.34383
O	 1.1408008874	-0.5406563169	-0.4516948313	-0.232964
C	 1.1799900499	-1.8179680139	-0.8774756424	 0.075465
C	 0.1001161929	-2.6191804679	-0.8913541529	-0.183267
C	-1.143824529	-2.0823012798	-0.4309829053	-0.158657
C	-1.2321213249	-0.7951606643	 0.0092630596	-0.010779
C	-2.4531434945	-0.2412857807	 0.4699451423	 0.283763
C	-3.5047041464	 0.2007179782	 0.8552268272	-0.388297
H	 0.9121502371	 1.6605952395	 0.3189894658	 0.223436
H	 2.1753873766	-2.1002326449	-1.1977778135	 0.141654
H	 0.1828483212	-3.6382781611	-1.2428615647	 0.118407
H	-2.0323052772	-2.7031091819	-0.429859901	 0.121944
H	-4.4226605825	 0.608820751	 1.1987154653	 0.1961
91.5399	149.1287	180.0841	336.5969	387.052	465.3476	468.1792	551.2689	559.6503	561.6359	595.7208	650.722	720.079	769.5618	786.6574	852.2036	888.1392	928.5534	952.2617	966.1905	1047.6974	1115.4925	1179.496	1254.4736	1290.015	1376.3751	1439.3353	1589.5527	1666.5677	1733.0817	2227.1085	3201.9978	3213.36	3236.3252	3495.2497	3504.7516
N=C1OC=CC=C1C#C	[NH]C1=C(CC=CO1)C#C	
InChI=1S/C7H5NO/c1-2-6-4-3-5-9-7(6)8/h1,3-5,8H	InChI=1S/C7H6NO/c1-2-6-4-3-5-9-7(6)8/h1,3,5,8H,4H2
