21
gdb 57575	2.99001	1.13004	1.07208	1.2091	77.89	-0.2424	0.0595	0.302	1242.3982	0.182226	-420.345376	-420.335824	-420.33488	-420.379647	36.15	
C	 0.3595617124	 1.1671852477	 0.4570106848	-0.426879
C	 0.1364920717	-0.3194073195	 0.1657714108	 0.291374
O	 0.4685140967	-0.9997112884	 1.3880072753	-0.467333
C	-1.3386045102	-0.5524901587	-0.174735538	 0.019921
C	-2.0028002918	-1.8426934842	 0.1231606257	-0.254587
N	-2.3324112274	-0.6319493532	 0.9002733069	-0.335026
C	 0.9927924346	-0.8806710841	-0.965480111	-0.035607
C	 1.6813446528	-0.042554352	-1.9782766996	-0.242143
N	 2.4596085608	-0.7556488853	-0.9531042775	-0.327727
H	 1.4189146544	 1.3965593534	 0.6083335425	 0.112046
H	-0.0277007519	 1.7922617206	-0.3510898408	 0.123378
H	-0.1689143563	 1.4317318279	 1.3759544115	 0.137831
H	 0.7966187393	-1.8775593693	 1.167431327	 0.292914
H	-1.6740574474	 0.0086063878	-1.0453887055	 0.090262
H	-2.7949202212	-2.2102134501	-0.5226168754	 0.117405
H	-1.4217961595	-2.6168656113	 0.6168473509	 0.097877
H	-1.8244743822	-0.6874566706	 1.7826905346	 0.239348
H	 0.6605434574	-1.8694228721	-1.2822678062	 0.093243
H	 1.8040861061	-0.4158626993	-2.9909393353	 0.121314
H	 1.5898646654	 1.0364439762	-1.9027965862	 0.116891
H	 2.7408587664	-0.1086946353	-0.2193798845	 0.235498
68.8791	89.7815	172.8494	227.1312	232.9891	271.4669	273.2125	294.236	344.0601	403.8233	471.3419	498.4787	609.2281	715.4118	810.8761	846.6764	862.0014	894.8557	925.9381	948.6457	961.9589	976.5721	986.1114	1018.4302	1083.5912	1103.9386	1122.8594	1139.6535	1157.8895	1171.043	1176.9468	1199.6449	1232.6227	1261.4753	1283.969	1302.6643	1312.0571	1366.2805	1398.0555	1409.6992	1424.932	1487.2349	1493.6467	1503.1651	1513.9131	3046.3861	3103.5364	3111.1151	3115.7976	3119.3637	3120.4357	3133.0162	3195.3839	3203.8982	3475.4039	3494.3337	3819.2702
CC(O)(C1CN1)C1CN1	C[C@@](O)([C@H]1CN1)[C@H]1CN1	
InChI=1S/C6H12N2O/c1-6(9,4-2-7-4)5-3-8-5/h4-5,7-9H,2-3H2,1H3	InChI=1S/C6H12N2O/c1-6(9,4-2-7-4)5-3-8-5/h4-5,7-9H,2-3H2,1H3/t4-,5-/m1/s1
