16
gdb 30533	7.04086	0.8055	0.72376	2.4593	85.64	-0.1695	-0.0031	0.1664	1502.9024	0.125251	-434.097217	-434.088526	-434.087582	-434.130545	32.478	
N	-0.069557648	 1.3565558036	-0.2410054927	-0.499606
C	-0.1103460046	-0.0076801615	-0.2605073345	 0.09121
N	-1.0366439884	-0.658945937	 0.339872747	-0.354298
C	-1.0955146082	-2.0214190858	 0.2456501827	 0.468499
C	-1.9887497291	-2.8933449938	 0.8028483631	-0.364154
C	-1.5911689142	-4.2093546785	 0.3945240201	 0.239248
N	-2.2835876652	-5.3946857177	 0.6847775351	-0.60784
C	-0.482174069	-4.0455080059	-0.3814811196	-0.108154
O	-0.1698553588	-2.7091172803	-0.4870627466	-0.201469
H	 0.802718387	 1.8137234222	-0.4453321231	 0.25989
H	-0.6712435413	 1.8163195142	 0.4258760395	 0.262155
H	 0.6767451525	-0.4748536654	-0.857898013	 0.121534
H	-2.8301769082	-2.6212080031	 1.4197779128	 0.098801
H	-2.6669788926	-5.3967092342	 1.6213715211	 0.242823
H	-1.7145185698	-6.2219435224	 0.5594957869	 0.239348
H	 0.1594513879	-4.7259425146	-0.9150695087	 0.112013
73.1489	141.7112	143.291	218.3931	282.0997	327.4065	370.4668	396.2886	419.2101	501.7392	575.2591	602.751	641.9608	672.9984	703.3837	754.4105	785.9685	795.6548	953.2824	997.6503	1002.2633	1077.3799	1102.7057	1143.7491	1216.3623	1243.9565	1300.1224	1328.277	1388.9718	1450.1032	1585.9332	1626.4469	1652.9326	1679.4808	1725.4966	3098.572	3261.4378	3277.8672	3534.6049	3585.9435	3623.5956	3715.5099
NC=NC1=CC(N)=CO1	NC=Nc1cc(N)co1	
InChI=1S/C5H7N3O/c6-3-8-5-1-4(7)2-9-5/h1-3H,7H2,(H2,6,8)	InChI=1S/C5H7N3O/c6-3-8-5-1-4(7)2-9-5/h1-3H,7H2,(H2,6,8)
