20
gdb 92112	3.19656	1.51221	1.24438	2.0479	79.22	-0.1959	0.0848	0.2806	1084.3656	0.171109	-403.099607	-403.091591	-403.090646	-403.131726	31.787	
C	-0.0272773171	 1.4622165536	-0.0251693063	-0.323987
N	-0.018801501	 0.0100181438	 0.0143326735	-0.061893
C	-1.3692322538	-0.5889142551	 0.0053947768	-0.156566
C	-1.2331698513	-1.7866179295	 0.9385269535	 0.061837
O	-0.1969303824	-2.6557016597	 0.3822297456	-0.335487
C	 0.7544294666	-2.0607352888	 1.2741213566	 0.46318
C	 1.96645288	-2.8547560498	 1.6287610181	-0.502449
C	-0.2935422234	-1.3268791678	 2.0770301945	-0.243147
C	 0.6495273202	-0.5471162989	 1.1804898461	-0.07129
H	 0.9994994269	 1.8409921838	-0.0419443468	 0.118445
H	-0.5183160407	 1.7981000683	-0.9441728584	 0.120776
H	-0.5544412141	 1.9284142125	 0.8293968359	 0.089024
H	-2.1308789998	 0.1094179619	 0.3952506705	 0.080009
H	-1.6606362175	-0.8959440654	-1.0045123129	 0.113359
H	-2.1509787179	-2.3295849323	 1.1653076622	 0.082297
H	 2.5725402515	-3.0458892084	 0.7363591282	 0.135331
H	 2.5837198889	-2.3101126882	 2.349470558	 0.12146
H	 1.6878484865	-3.8185859141	 2.0670043152	 0.128184
H	-0.4952364024	-1.2250799901	 3.1351351957	 0.091148
H	 1.4559930708	 0.0417571542	 1.6022497941	 0.089768
122.8276	198.0152	203.2258	225.4024	262.539	351.1058	376.5812	403.7545	532.2691	629.9857	664.3534	719.6374	778.7226	834.3594	864.715	875.7923	887.1728	918.0893	967.4175	987.2003	1007.2833	1037.1756	1051.5366	1063.7043	1109.4993	1145.1257	1156.8045	1173.435	1197.2089	1230.5304	1239.8301	1287.4288	1299.3762	1316.1946	1365.2427	1407.8666	1448.6176	1468.8469	1473.2894	1485.4549	1499.2077	1501.0988	1504.9816	2920.2577	2950.8243	3032.674	3059.6488	3066.9595	3098.4597	3101.6166	3112.7185	3115.3058	3182.1773	3194.4125
CN1CC2OC3(C)C2C13	CN1C[C@H]2O[C@]3(C)[C@H]2[C@H]13	
InChI=1S/C7H11NO/c1-7-5-4(9-7)3-8(2)6(5)7/h4-6H,3H2,1-2H3	InChI=1S/C7H11NO/c1-7-5-4(9-7)3-8(2)6(5)7/h4-6H,3H2,1-2H3/t4-,5-,6+,7-/m1/s1
