19
gdb 34657	3.3065	1.13543	0.89729	0.5842	87.57	-0.2239	-0.0212	0.2028	1295.8354	0.15963	-385.86431	-385.855768	-385.854824	-385.897501	32.883	
C	 0.0182684187	-1.2338041272	-0.2812644789	-0.43068
C	-0.0277765241	-0.0381128631	-0.1337392375	 0.235787
C	-0.0198844458	 1.3754791704	 0.0485949807	 0.123351
C	-1.1780788098	 2.0592737444	 0.0244332228	-0.136667
C	-1.3390627425	 3.5506221111	 0.1634241974	-0.259312
C	-0.5934585236	 4.2004866717	 1.336981553	-0.068829
O	 0.8097896707	 4.2403975798	 1.1794893728	-0.239612
C	 1.4726004483	 3.0088807734	 1.3886705011	-0.073123
C	 1.3503491061	 2.0183773197	 0.2258629229	-0.301266
H	 0.0398417386	-2.2867486492	-0.4151597299	 0.193419
H	-2.0880319101	 1.4883018084	-0.1372610651	 0.096124
H	-1.0090700832	 4.0509136012	-0.7591400988	 0.124447
H	-2.4039708208	 3.7844795005	 0.2730632839	 0.104207
H	-0.9079695875	 5.2461659558	 1.4208395318	 0.105088
H	-0.8596130922	 3.6891404963	 2.2763053356	 0.090307
H	 2.5288593422	 3.266747374	 1.5194638901	 0.106051
H	 1.1207332845	 2.537648421	 2.3205892653	 0.091802
H	 2.0927931047	 1.2286479903	 0.3744549842	 0.114641
H	 1.6303930659	 2.5411123014	-0.6987973813	 0.124266
68.8447	143.9493	175.7465	209.6396	307.7854	337.2532	396.1	410.9744	496.5087	533.7563	571.6816	580.8856	615.6311	634.2652	731.5313	814.022	873.5899	884.1808	936.1011	972.7865	1026.6351	1066.7107	1088.7068	1089.4769	1131.5339	1166.6592	1234.0875	1241.1803	1316.274	1326.6331	1350.8174	1365.473	1379.4779	1405.5759	1427.6946	1461.5912	1468.83	1484.6014	1496.0992	1685.4589	2214.0978	2973.0255	2979.6309	3005.1877	3023.7274	3064.4423	3069.7746	3072.348	3088.3298	3166.6641	3503.6163
C#CC1=CCCOCC1	C#CC1=CCCOCC1	
InChI=1S/C8H10O/c1-2-8-4-3-6-9-7-5-8/h1,4H,3,5-7H2	InChI=1S/C8H10O/c1-2-8-4-3-6-9-7-5-8/h1,4H,3,5-7H2
