21
gdb 38941	2.94362	1.75091	1.50177	1.8728	79.36	-0.2362	0.0784	0.3145	971.7568	0.187677	-387.086758	-387.080169	-387.079225	-387.117328	28.54	
C	 0.007283047	 1.5591342173	 0.1299208495	-0.238947
C	 1.5219904223	 1.800268954	 0.0148556783	 0.062461
O	 2.0436821305	 0.8160496123	 0.9606078231	-0.303257
C	 1.5837299774	-0.1447171742	-0.029827074	 0.05561
C	 1.9645632727	 0.8651764437	-1.1449153853	 0.008033
C	 1.2019100583	 0.8050582458	-2.4767553909	-0.251221
C	 0.2986545455	-0.4425505374	-2.5138576557	-0.189824
C	-0.62552617	-0.5498483794	-1.2820438956	-0.225179
C	 0.0389463004	-0.0038957132	 0.0003494351	 0.001278
H	-0.3655834247	 1.8923881472	 1.100563181	 0.104697
H	-0.5799770868	 2.0466761128	-0.6536144998	 0.09373
H	 1.9153463869	 2.8074468713	 0.1560968085	 0.072916
H	 2.0264455457	-1.1361342121	 0.0717513786	 0.073674
H	 3.0487629609	 0.9103893815	-1.2585487372	 0.080162
H	 0.6021163013	 1.7129631455	-2.6161251843	 0.098816
H	 1.902228916	 0.7734843729	-3.3172590654	 0.096982
H	-0.2911311071	-0.46529599	-3.43594362	 0.092932
H	 0.950693062	-1.3247450992	-2.5475057603	 0.100393
H	-1.5597255923	-0.0036757265	-1.4581828125	 0.099171
H	-0.9104769146	-1.598327343	-1.1397710702	 0.095349
H	-0.3860647114	-0.4791152496	 0.8869559269	 0.072225
183.8035	243.454	340.3351	365.7099	430.4516	498.5528	555.7715	620.1257	720.3797	753.0734	802.9115	833.4786	860.1748	866.4825	882.2835	908.0477	944.1877	958.2581	978.3777	982.5579	1003.6297	1045.6589	1078.3623	1094.2863	1119.2896	1125.5168	1157.6226	1183.2427	1211.2217	1224.7602	1235.5085	1268.481	1278.9078	1294.4296	1312.3157	1322.019	1342.5803	1359.2367	1366.4309	1380.6634	1384.0412	1483.3328	1490.3394	1498.8569	1509.8193	3020.2287	3028.5197	3030.6103	3059.4129	3063.4473	3069.9361	3078.2626	3081.7011	3100.8107	3113.231	3114.5278	3121.2126
C1C2OC3C2CCCC13	C1[C@H]2O[C@@H]3[C@H]2CCC[C@H]13	
InChI=1S/C8H12O/c1-2-5-4-7-6(3-1)8(5)9-7/h5-8H,1-4H2	InChI=1S/C8H12O/c1-2-5-4-7-6(3-1)8(5)9-7/h5-8H,1-4H2/t5-,6+,7-,8+/m1/s1
