15
gdb 33776	3.85211	1.4426	1.25136	4.8278	68.9	-0.2732	-0.015	0.2582	972.9961	0.115128	-416.811871	-416.805181	-416.804237	-416.842852	26.512	
N	-0.0219059057	-1.1427753215	-0.0369457539	-0.339866
C	-0.0444095746	 0.0121995844	-0.040583477	 0.224385
C	-0.0214496426	 1.466764305	 0.0122040196	 0.177607
C	-0.2406828861	 2.1844180949	 1.3878200496	-0.267123
C	 0.6296362783	 3.3075762661	 0.7746243556	 0.09391
C	 1.356365908	 2.2112004159	-0.0407207035	-0.267131
O	-0.179764174	 4.1032041209	-0.1152999464	-0.230702
C	-0.9147032693	 3.3351484262	-0.9513426967	 0.113676
N	-0.9211358192	 2.0660815926	-0.9824145963	-0.289746
H	-1.2707265729	 2.4152749067	 1.6613951164	 0.131653
H	 0.2792726692	 1.6780865497	 2.2015870879	 0.133578
H	 1.1795565231	 4.0047743729	 1.4024688201	 0.107442
H	 2.11676383	 1.7089206741	 0.5579884649	 0.133578
H	 1.7381087252	 2.4657330389	-1.0299689159	 0.131652
H	-1.5248245993	 3.9326820732	-1.6223157743	 0.147087
153.5061	160.3692	323.0582	402.6103	412.7297	457.1793	537.8249	570.7242	596.3374	624.7952	766.3609	851.8505	854.0414	905.2263	924.4912	945.412	956.7031	982.4711	1025.163	1076.6239	1090.138	1172.2495	1190.8263	1195.3975	1244.2323	1246.2777	1283.4048	1349.65	1387.1543	1465.1117	1494.3938	1693.6708	2365.3399	3085.4318	3090.5479	3147.2951	3156.1638	3158.9665	3191.5146
N#CC12CC(C1)OC=N2	N#C[C@@]12C[C@@H](C1)O[CH][N]2	
InChI=1S/C6H6N2O/c7-3-6-1-5(2-6)9-4-8-6/h4-5H,1-2H2	InChI=1S/C6H6N2O/c7-3-6-1-5(2-6)9-4-8-6/h4-5H,1-2H2/t5-,6+
