20
gdb 59075	1.93247	1.49604	1.20988	4.1303	79.73	-0.2735	0.0234	0.2969	1174.5425	0.169752	-403.157196	-403.147367	-403.146423	-403.191709	36.356	
C	-0.0794228619	 1.5891865374	 0.2775900378	-0.404822
C	 0.0654370646	 0.1217660168	-0.1388582235	 0.09358
O	 1.1125860642	-0.5148792623	 0.574334234	-0.424278
C	-1.2830523525	-0.5992804722	-0.0713024397	-0.028499
C	-1.5016803715	-2.0831893831	 0.0135587232	-0.045956
C	-0.4073511892	-3.1271542798	 0.0632022328	-0.416452
C	-1.8527215918	-1.1997862073	 1.2161421302	-0.211469
C	-1.0605364272	-1.2353549321	 2.4121513513	 0.29332
N	-0.4320963275	-1.2376087968	 3.3857358003	-0.361806
H	 0.8844454345	 2.096332963	 0.1857899187	 0.129836
H	-0.8089750699	 2.1122502135	-0.3489279455	 0.115573
H	-0.4125015338	 1.665835396	 1.319051151	 0.126594
H	 0.3870764246	 0.0861883687	-1.1878988217	 0.097688
H	 0.9700226104	-0.3855468738	 1.5200094245	 0.299643
H	-2.0358673939	-0.0664393364	-0.6482084916	 0.100891
H	-2.3941785072	-2.4224135699	-0.5073245268	 0.101306
H	 0.4712615849	-2.7752468407	 0.6005742251	 0.159741
H	-0.7787145207	-4.0405416631	 0.5391146315	 0.121157
H	-0.0943021724	-3.3849279773	-0.9540823367	 0.12177
H	-2.9053045438	-1.0284873105	 1.4168060651	 0.132184
66.973	120.6529	144.4037	171.1568	217.3005	233.6862	272.3154	282.8604	367.2155	395.6857	455.9066	501.9325	547.0168	609.9955	708.0419	731.7261	769.4791	804.5389	901.4202	951.7668	979.4938	1006.5797	1042.6939	1067.6722	1089.6775	1104.8792	1148.5367	1156.9019	1181.0136	1253.3429	1316.7077	1342.4709	1364.9216	1385.4077	1404.2549	1420.9452	1424.4656	1440.6104	1491.273	1491.7772	1496.2191	1506.3947	2335.3523	3025.2368	3033.3691	3043.0966	3097.9257	3102.0244	3122.3565	3125.2812	3136.3328	3163.0825	3173.8639	3784.3072
CC(O)C1C(C)C1C#N	C[C@@H](O)[C@H]1[C@@H](C)[C@H]1C#N	
InChI=1S/C7H11NO/c1-4-6(3-8)7(4)5(2)9/h4-7,9H,1-2H3	InChI=1S/C7H11NO/c1-4-6(3-8)7(4)5(2)9/h4-7,9H,1-2H3/t4-,5+,6+,7+/m0/s1
