21
gdb 87831	2.86446	1.33737	1.14279	2.3332	83.	-0.2184	0.0703	0.2887	1184.8707	0.182003	-383.206574	-383.197593	-383.196649	-383.239829	34.678	
C	-0.0633071733	 1.5536973147	-0.0271141011	-0.392749
C	-0.044401868	 0.0477315575	 0.0717775477	-0.084548
N	 1.2703460233	-0.6111445939	-0.1130853544	-0.391774
C	 0.6098205152	-0.6742126997	 1.1865293931	 0.297634
C	 1.2956566603	-0.2211183742	 2.4778700562	-0.240467
N	 0.9124957009	-1.5055936232	 3.1738214712	-0.167775
C	-0.5639025703	-1.545937969	 3.134729381	-0.283747
C	 0.1750736046	-1.9351672813	 1.9118948275	 0.264364
C	 0.2297608975	-3.3273682631	 1.3582054056	-0.505901
H	 0.8280790922	 1.980472718	 0.4403995629	 0.127354
H	-0.0809937597	 1.8767378472	-1.0735000567	 0.121511
H	-0.9478860713	 1.9674514056	 0.4695540275	 0.114386
H	-0.9061735045	-0.4522235974	-0.3714019829	 0.079176
H	 1.1629810394	-1.4911249239	-0.6134205133	 0.228758
H	 2.3805478521	-0.1545418792	 2.3751908384	 0.122963
H	 0.9154841165	 0.6780298285	 2.9751394216	 0.102399
H	-0.9827014518	-2.3398552065	 3.7468715401	 0.116644
H	-1.1195541766	-0.6102122623	 3.1644268607	 0.107916
H	-0.5943789745	-3.5085423324	 0.6576317792	 0.121194
H	 1.1728273549	-3.5120153217	 0.8318287274	 0.126453
H	 0.149629543	-4.0604900236	 2.165635198	 0.136207
113.6456	138.7446	165.3299	189.6912	209.8367	257.9205	331.2177	428.22	438.0821	478.281	498.9304	560.517	659.0298	741.8423	794.8711	821.6012	868.596	888.0346	941.974	965.7319	992.12	1026.0207	1045.2117	1071.9173	1079.1095	1095.7462	1109.6563	1122.0587	1131.3924	1196.2655	1209.4431	1234.3259	1274.9834	1311.6679	1359.1793	1366.4409	1411.5783	1418.7392	1472.9067	1482.8361	1489.1407	1489.5807	1493.6347	1504.6559	1513.1705	3025.4867	3032.7457	3042.4969	3085.2215	3094.9819	3095.4397	3096.8057	3113.0751	3115.7074	3121.9031	3186.7028	3485.8555
CC1NC11CN2CC12C	C[C@H]1N[C@]21CN1C[C@@]21C	
InChI=1S/C7H12N2/c1-5-7(8-5)4-9-3-6(7,9)2/h5,8H,3-4H2,1-2H3	InChI=1S/C7H12N2/c1-5-7(8-5)4-9-3-6(7,9)2/h5,8H,3-4H2,1-2H3/t5-,6+,7+,9?/m1/s1
