20
gdb 40261	2.86176	1.49576	1.14662	2.1659	80.5	-0.2372	0.0214	0.2586	1119.69	0.172403	-403.143179	-403.1351	-403.134156	-403.176028	31.634	
C	 0.0037684003	 1.5919946788	 0.1640999617	-0.312309
C	 1.3117212399	 0.842148585	-0.0042238273	-0.325497
C	 0.0153073599	 0.0929689799	-0.0029045245	 0.462349
C	-0.3617325028	-0.7990710727	 1.1550237358	-0.268727
C	-1.8725478533	-0.8628239386	 1.3880537916	-0.213976
C	-2.6271820525	-1.6296269865	 0.2976667494	-0.140492
N	-2.6004458667	-1.1286863155	-1.0645859774	-0.246494
C	-1.6114097936	-0.6432626049	-1.6708633708	 0.106967
O	-0.3243379214	-0.3623003148	-1.3017001235	-0.277131
H	-0.2400852915	 2.0013726764	 1.1387371263	 0.116356
H	-0.3422004284	 2.1812913383	-0.6766771252	 0.123926
H	 1.8171942361	 0.9347108356	-0.9581439211	 0.127078
H	 1.9668664116	 0.735644287	 0.8532174408	 0.11567
H	 0.0392615188	-1.8068907606	 0.9823887772	 0.103588
H	 0.1351189913	-0.411428833	 2.0511602186	 0.0993
H	-2.0769310587	-1.3579455949	 2.3451739411	 0.094776
H	-2.2736585253	 0.1552679268	 1.4661367748	 0.1046
H	-2.2495584084	-2.6636507837	 0.2691308222	 0.110955
H	-3.6811391474	-1.7063010799	 0.5876344244	 0.106141
H	-1.7062045479	-0.4248445726	-2.735723904	 0.11292
69.1165	91.0803	245.7137	276.1995	339.3714	351.2777	396.5407	425.6803	502.7254	555.1884	669.9204	768.7948	786.84	813.5328	853.0661	894.6322	908.6182	924.1726	962.7254	967.9254	994.3636	1019.1491	1054.0315	1078.2523	1081.1921	1104.8615	1153.9447	1185.5483	1190.2942	1226.1115	1285.5818	1305.3919	1334.8952	1378.9104	1396.1306	1401.4444	1439.8115	1454.914	1473.3226	1479.1743	1488.8292	1497.5683	1765.4687	2990.9043	3020.3979	3023.2264	3052.1645	3066.1894	3072.5581	3123.9342	3135.8639	3140.8761	3222.0004	3235.7765
C1CC11CCCN=CO1	C1CC21CCCN=CO2	
InChI=1S/C7H11NO/c1-2-7(3-4-7)9-6-8-5-1/h6H,1-5H2	InChI=1S/C7H11NO/c1-2-7(3-4-7)9-6-8-5-1/h6H,1-5H2
