15
gdb 32178	3.81095	1.17093	0.9007	3.0362	70.57	-0.2551	-0.0401	0.215	1208.9323	0.114503	-454.012548	-454.004941	-454.003997	-454.04511	28.414	
O	 0.4656515056	 0.7051149588	 0.8383478668	-0.427213
C	-0.0625252852	 0.2096521221	-0.3599472469	-0.113844
C	-1.4608070843	-0.3443467009	-0.1966731589	 0.335523
N	-1.9804502945	-0.2860608583	 1.0254938266	-0.326474
C	-3.2213326163	-0.7788190626	 1.1694766385	 0.021365
C	-3.9366502663	-1.3204168973	 0.1223691345	-0.225746
C	-3.2828957818	-1.3260073116	-1.1174019564	 0.437564
O	-3.9080593396	-1.8354696831	-2.185851912	-0.404652
N	-2.0578549252	-0.8455729064	-1.2841983153	-0.379256
H	-0.2262968892	 0.564225922	 1.5034071632	 0.291533
H	-0.0984907277	 0.9961837536	-1.1303510101	 0.1163
H	 0.5731055542	-0.5911022471	-0.769742874	 0.116388
H	-3.6470584427	-0.7314165685	 2.1684204725	 0.128088
H	-4.9359634072	-1.7183061053	 0.2345611978	 0.124544
H	-3.2956207398	-1.7462851553	-2.9310370262	 0.30588
62.034	180.2189	215.7882	216.9751	374.0323	391.1285	440.9752	485.5021	560.096	567.2974	647.2514	664.4732	783.9229	796.984	856.6272	974.9425	1002.2805	1007.8262	1041.4511	1110.7458	1125.3851	1205.6117	1244.3719	1271.2011	1304.7081	1344.4029	1385.5992	1429.0807	1480.0652	1499.2041	1506.749	1628.6832	1640.8905	2982.6174	2997.8509	3168.2691	3229.6731	3685.2706	3750.977
OCC1=NC=CC(O)=N1	OCc1nccc(O)n1	
InChI=1S/C5H6N2O2/c8-3-4-6-2-1-5(9)7-4/h1-2,8H,3H2,(H,6,7,9)	InChI=1S/C5H6N2O2/c8-3-4-6-2-1-5(9)7-4/h1-2,8H,3H2,(H,6,7,9)
