21
gdb 75796	2.90113	1.24097	1.04853	2.8558	82.81	-0.2348	-0.0149	0.22	1230.4804	0.18144	-387.094556	-387.085558	-387.084614	-387.128502	34.192	
C	-0.4944906496	 1.3233158684	-0.301455584	-0.414556
C	 0.1191719879	-0.0660142372	-0.2089677544	-0.171082
C	 1.5720330633	-0.257443011	-0.6689697323	 0.393175
O	 2.2309534187	 0.2295924756	-1.5426979541	-0.301155
C	 1.8871507897	-1.1719999807	 0.5237517598	-0.414153
C	 0.5468719084	-0.6865627449	 1.1612510795	 0.350423
C	 0.6776301471	 0.1765087149	 2.4477619902	-0.276096
C	 0.235497369	-1.0614446238	 3.2744703745	-0.208476
C	-0.3163746075	-1.6881045783	 1.9655549132	-0.290076
H	 0.1188442628	 2.064164373	 0.2203622656	 0.124625
H	-0.5699664192	 1.6342337278	-1.3475447001	 0.13487
H	-1.4994302792	 1.3469398197	 0.1327902427	 0.116986
H	-0.5069576556	-0.7942253417	-0.7451104567	 0.098978
H	 1.8696511194	-2.2297029058	 0.2366041476	 0.124899
H	 2.8203636257	-0.9688888256	 1.056439978	 0.125533
H	 1.655849327	 0.6152747092	 2.6632868487	 0.099508
H	-0.0733829866	 0.9715057893	 2.4807772694	 0.103796
H	 1.0910436582	-1.6196184986	 3.6641255339	 0.106342
H	-0.4701050563	-0.8940829251	 4.0910089772	 0.099571
H	-1.3858050629	-1.4888293967	 1.8394328546	 0.101217
H	-0.1390206403	-2.7532308884	 1.7909982667	 0.095671
56.3452	109.3699	172.7729	180.1181	203.9752	277.0095	351.7751	381.7803	457.2093	486.9437	573.159	672.7422	725.6657	745.4811	797.1023	830.283	857.6173	889.1905	936.3862	939.6692	962.5685	1008.6957	1037.0254	1066.3318	1099.8375	1119.6923	1159.2512	1169.9926	1191.9198	1200.4799	1235.3516	1245.2986	1258.4117	1273.1157	1282.8621	1301.4136	1335.1608	1403.9186	1437.8965	1475.4803	1484.6072	1493.1392	1493.3935	1506.2238	1885.5878	3006.2447	3036.2474	3041.8615	3043.1695	3051.1355	3062.7059	3090.7353	3097.8227	3103.762	3104.4055	3113.0914	3119.5361
CC1C(=O)CC11CCC1	C[C@H]1C(=O)CC21CCC2	
InChI=1S/C8H12O/c1-6-7(9)5-8(6)3-2-4-8/h6H,2-5H2,1H3	InChI=1S/C8H12O/c1-6-7(9)5-8(6)3-2-4-8/h6H,2-5H2,1H3/t6-/m0/s1
