18
gdb 6368	4.7194	1.04943	0.95805	3.1553	65.38	-0.2675	0.0072	0.2746	1259.0924	0.150967	-422.119421	-422.109898	-422.108954	-422.154209	33.229	
C	-0.0663889405	 1.5071069573	 0.081969239	-0.397168
C	-0.0026778645	-0.0145211995	 0.0241263531	 0.141121
C	 0.8003457982	-0.5484489198	-1.1514848956	-0.393279
O	 0.6602672743	-0.5176461117	 1.2241318785	-0.25056
C	-0.0835652028	-0.6709340877	 2.3191548579	 0.413677
O	-1.2665634545	-0.4281496738	 2.4087543787	-0.379533
C	 0.7204665866	-1.2062481887	 3.4923678437	-0.143062
O	-0.0915380013	-1.35659242	 4.6215688469	-0.419965
H	 0.9395695257	 1.9328674597	 0.1509079482	 0.124529
H	-0.5425411718	 1.8941150099	-0.8241508818	 0.123437
H	-0.6528472852	 1.8358506263	 0.9426162793	 0.142963
H	-1.0157235083	-0.4256949435	 0.0206164795	 0.114305
H	 1.8263906047	-0.1687600961	-1.1258305733	 0.128538
H	 0.8357129117	-1.6408761915	-1.1349470066	 0.127666
H	 0.3395977257	-0.2319769508	-2.0917182358	 0.124452
H	 1.1732570381	-2.1627598744	 3.1908007389	 0.123272
H	 1.5519468384	-0.5115675124	 3.6842910025	 0.123534
H	-0.9763614646	-1.0779858533	 4.341175907	 0.296074
57.7752	75.994	104.3398	156.4844	214.277	252.7173	293.3745	328.7462	364.5029	408.8357	433.9189	489.2669	592.0296	717.0503	828.7693	907.0925	934.8638	949.5231	959.2767	1041.1978	1129.002	1135.6427	1164.1281	1204.4819	1241.2986	1265.2586	1319.1287	1364.1952	1387.243	1402.6018	1418.9499	1468.0142	1481.6521	1485.89	1495.9546	1498.9437	1510.577	1794.9754	2996.1336	3016.8887	3042.5303	3046.4337	3078.5219	3113.0388	3123.0446	3124.3847	3134.3842	3713.3698
CC(C)OC(=O)CO	CC(C)OC(=O)CO	
InChI=1S/C5H10O3/c1-4(2)8-5(7)3-6/h4,6H,3H2,1-2H3	InChI=1S/C5H10O3/c1-4(2)8-5(7)3-6/h4,6H,3H2,1-2H3
