15
gdb 50486	3.95334	0.99252	0.93318	3.0186	79.24	-0.2338	-0.049	0.1848	1255.184	0.110329	-420.59916	-420.590742	-420.589798	-420.632945	30.206	
O	 0.2328304856	-0.070100847	-0.3333559677	-0.226407
C	 0.0858667602	 1.0913026349	-0.0739236919	 0.151033
C	 1.2373967343	 2.0830423671	 0.1444062185	-0.013452
O	 2.4876856785	 1.4377594062	 0.2359789038	-0.248882
C	 3.2491126313	 1.6716424291	-0.9431311904	-0.171088
C	 2.4969811628	 2.7615352403	-1.6843244647	 0.190849
C	 1.3482467242	 3.0073939408	-1.0433654997	-0.248467
C	 2.9926420646	 3.3600980047	-2.8620923907	 0.21404
C	 3.4639622367	 3.8383241843	-3.8623165052	-0.409218
H	-0.924212915	 1.557401321	 0.015174544	 0.073645
H	 1.0290842254	 2.6252689734	 1.0824106364	 0.107832
H	 4.2641616509	 1.9796678581	-0.6629803088	 0.123887
H	 3.3255811828	 0.7577641554	-1.5496131606	 0.129928
H	 0.5871376127	 3.718554149	-1.3324079564	 0.124415
H	 3.8648081751	 4.2686095526	-4.7467765168	 0.201885
53.5722	108.7963	145.4163	156.7778	258.4228	284.7908	406.5965	511.0449	533.3361	547.7853	618.0641	646.4441	695.7953	763.2926	839.0689	855.7648	906.7411	965.1864	1000.2179	1029.163	1049.4686	1125.8319	1200.2511	1207.3335	1250.6589	1279.6356	1334.2166	1374.3541	1412.595	1516.4857	1673.8578	1849.172	2226.8777	2849.8537	2965.1909	3003.5432	3044.9201	3236.9983	3501.1833
O=CC1OCC(=C1)C#C	O=C[C@H]1OCC(=C1)C#C	
InChI=1S/C7H6O2/c1-2-6-3-7(4-8)9-5-6/h1,3-4,7H,5H2	InChI=1S/C7H6O2/c1-2-6-3-7(4-8)9-5-6/h1,3-4,7H,5H2/t7-/m0/s1
