18
gdb 73067	3.3705	1.07157	0.95831	2.1399	74.36	-0.2542	0.0196	0.2738	1264.8933	0.146622	-439.041883	-439.033074	-439.03213	-439.075901	32.438	
O	-0.195829506	 1.4383558235	-0.2991399735	-0.461026
C	-0.004215748	 0.0896162685	-0.066100877	 0.346911
C	 0.7071080593	-0.8654635037	-1.0318915114	-0.291175
C	-0.3721196942	-1.9507279104	-0.7189367018	-0.225099
C	-1.0790032103	-0.9760008061	 0.2314780483	-0.164566
C	-0.1205247865	-0.4993974174	 1.2950099733	 0.027109
O	 0.9172493471	-1.2991906085	 1.8181603022	-0.192739
C	 0.5378539458	-2.2839674093	 2.6627444712	 0.132289
N	 1.4116752249	-2.9928164416	 3.2333479666	-0.441782
H	 0.5574915964	 1.9207663147	 0.060772724	 0.290102
H	 0.6407322035	-0.5053252841	-2.0601125597	 0.113869
H	 1.7447941902	-1.1103711471	-0.793049253	 0.115638
H	-0.9802315554	-2.1990367084	-1.5902218968	 0.11128
H	-0.0070674435	-2.8760418895	-0.2663436664	 0.114141
H	-2.1500496847	-0.8717318699	 0.3589649729	 0.09766
H	-0.5602690301	 0.1764265161	 2.0260003286	 0.107468
H	-0.5518320172	-2.3707808076	 2.7658568639	 0.090724
H	 0.9604580787	-3.6883416191	 3.8241569786	 0.229196
59.4745	103.1756	135.807	205.1477	236.7178	257.543	316.6531	377.007	471.5835	511.3198	621.3931	683.1101	780.9049	799.6727	827.6098	839.9583	910.1335	943.2854	964.0422	989.6459	1028.9827	1048.4073	1052.2475	1093.7198	1136.993	1152.3976	1211.3926	1225.8096	1236.39	1252.4113	1285.7046	1302.227	1318.5002	1334.3178	1414.7255	1456.5314	1475.8879	1509.3418	1745.6042	3034.3257	3066.6921	3072.5354	3116.3856	3132.4469	3134.2575	3184.1398	3515.6708	3787.2541
OC12CCC1C2OC=N	O[C@]12CC[C@H]1[C@H]2O[CH][NH]	
InChI=1S/C6H9NO2/c7-3-9-5-4-1-2-6(4,5)8/h3-5,7-8H,1-2H2	InChI=1S/C6H9NO2/c7-3-9-5-4-1-2-6(4,5)8/h3-5,7-8H,1-2H2/t4-,5+,6+/m0/s1
