16
gdb 123548	4.1487	1.68149	1.46409	3.9917	72.99	-0.2367	0.0136	0.2503	894.4805	0.129236	-396.911513	-396.905475	-396.904531	-396.943132	24.095	
C	-0.029932321	 1.5768289397	-0.0732959701	-0.21765
C	 1.5178039598	 1.3495960262	-0.0161755335	-0.012878
C	 1.2007135127	 0.1664974036	 0.9585619462	-0.217652
C	-0.0458588198	-0.0027808173	 0.0003427208	-0.178018
C	 0.6861735178	-0.3096273699	-1.2922656417	 0.403173
N	 0.7463342778	-1.0514471701	-2.3797725133	-0.406765
C	 1.8616350141	-0.5285227827	-2.993363745	 0.006619
N	 2.4740486245	 0.4720791328	-2.3584944587	-0.282418
N	 1.6881280196	 0.5823013406	-1.2681020987	 0.091085
H	-0.4245128864	 2.044344084	 0.8313987271	 0.114883
H	-0.4313804478	 2.0508686864	-0.970778899	 0.124488
H	 2.2590018327	 2.1238730075	 0.1580844765	 0.1102
H	 1.9246134607	-0.6490948547	 1.0046532075	 0.124472
H	 0.920016159	 0.5034794206	 1.9587569996	 0.114926
H	-0.9278686787	-0.5755723618	 0.2693541608	 0.102812
H	 2.230679365	-0.8975740148	-3.9384113386	 0.122724
21.5407	309.8231	420.2094	482.8566	500.4882	666.1145	684.1227	698.8958	770.6312	804.923	830.3521	865.2498	870.83	904.8914	977.0955	996.5713	1016.1572	1037.3671	1065.2709	1083.8018	1102.5904	1160.7161	1176.0464	1222.3211	1224.8851	1231.8437	1249.2344	1261.5249	1285.3251	1331.6591	1413.2571	1451.5803	1477.8403	1513.1474	1577.0216	3068.4435	3076.38	3139.8839	3144.7884	3174.4728	3174.9571	3262.9949
C1C2CC1C1=NC=NN21	C1[C@H]2C[C@@H]1c1ncnn21	
InChI=1S/C6H7N3/c1-4-2-5(1)9-6(4)7-3-8-9/h3-5H,1-2H2	InChI=1S/C6H7N3/c1-4-2-5(1)9-6(4)7-3-8-9/h3-5H,1-2H2/t4-,5+
