15
gdb 51435	3.41903	1.07884	0.90769	2.6994	69.	-0.2644	-0.0192	0.2452	1240.6118	0.111916	-453.909874	-453.901922	-453.900977	-453.943504	28.439	
N	-0.2997069741	 1.2275548988	-0.0809882296	-0.495416
C	-0.0664804675	-0.001817871	-0.0282919854	 0.336383
C	 1.1366521823	-0.95003545	 0.1121929072	 0.020143
O	 1.9749173216	-0.7656244689	 1.2400474728	-0.192584
C	 3.3169801713	-0.7840200121	 1.0570824892	 0.172585
O	 4.0879494751	-0.6466162036	 1.9537990254	-0.260606
C	 0.1087544186	-2.070329693	 0.1532592485	-0.063713
C	-0.9501243499	-1.7994013645	 1.1380130207	-0.239708
N	-1.0253370109	-1.0813375498	-0.1658009363	-0.136558
H	 0.5577643165	 1.7690543691	 0.0428282569	 0.237093
H	 1.7298468343	-0.9703995827	-0.8105446723	 0.120642
H	 3.5998849532	-0.9360121005	-0.0031240917	 0.086324
H	 0.1908612496	-3.0049439911	-0.3877655014	 0.119297
H	-1.7324541402	-2.5427737346	 1.2454517678	 0.145215
H	-0.7298558599	-1.2276430762	 2.0346989482	 0.150903
47.5256	110.2088	142.6701	193.603	259.9416	323.3351	455.8024	504.8734	591.1574	673.9577	741.1135	756.6621	841.4841	862.0238	918.0342	974.7097	983.0038	1023.496	1040.6129	1055.468	1109.4361	1119.3566	1137.1495	1166.4458	1197.6359	1236.4629	1281.964	1365.3411	1373.5419	1436.8622	1504.3861	1814.8227	1878.4784	2947.4033	3038.241	3128.7227	3195.8634	3223.1449	3470.6562
N=C1C(OC=O)C2CN12	[NH][C]1[C@@H](OC=O)[C@H]2CN12	
InChI=1S/C5H6N2O2/c6-5-4(9-2-8)3-1-7(3)5/h2-4,6H,1H2	InChI=1S/C5H6N2O2/c6-5-4(9-2-8)3-1-7(3)5/h2-4,6H,1H2/t3-,4+,7?/m1/s1
