18
gdb 128364	3.1286	1.23643	0.89813	3.4404	77.04	-0.2008	0.0371	0.2378	1287.9468	0.147442	-435.266723	-435.25705	-435.256106	-435.301335	34.705	
C	-0.0215744178	 1.4276424889	 0.0517578958	-0.318316
N	-0.127176965	-0.0235210065	 0.0969226286	-0.381678
C	 0.6009192045	-0.7084436119	 1.0451840833	 0.408799
N	 1.2046325946	-0.0775799373	 2.0324916277	-0.266609
O	 1.7662314758	-1.1198850493	 2.8204837592	-0.235428
C	 1.4798871157	-2.2944189389	 2.2479211978	 0.412426
N	 2.0162352186	-3.4068148541	 2.8623241753	-0.597138
C	 0.7388513049	-2.1322408408	 1.1128576246	-0.019251
C	 0.180427648	-3.1558373344	 0.1774757748	-0.530307
H	 0.9998762118	 1.7803902593	-0.1482130397	 0.123583
H	-0.6920985332	 1.8067493235	-0.7229698772	 0.115374
H	-0.3294032834	 1.8391537071	 1.0158862262	 0.15392
H	-0.1352607161	-0.4731266336	-0.8061496837	 0.239224
H	 2.192408565	-3.2695890769	 3.8485953718	 0.263306
H	 1.5076118856	-4.2612625359	 2.6854934666	 0.257601
H	-0.8613777181	-2.9311266451	-0.0800835137	 0.132687
H	 0.7417751017	-3.2262240078	-0.7639548402	 0.127268
H	 0.1900174774	-4.1559738062	 0.6238904028	 0.11454
66.3237	105.2647	151.9786	174.6089	194.511	233.0732	248.5673	301.2386	346.6181	397.129	509.4689	527.1192	614.6337	628.7431	689.1548	746.4353	753.9255	787.5071	943.6792	957.7284	1058.8441	1063.9271	1074.3499	1148.2673	1178.6957	1201.0766	1272.4532	1351.7786	1421.8488	1442.4632	1455.9303	1479.0517	1481.3247	1503.018	1514.5648	1551.8266	1583.7387	1637.2354	1713.0384	3007.4812	3008.6675	3057.9668	3087.2186	3091.4624	3132.7647	3556.6338	3607.7844	3658.5374
CNC1=NOC(N)=C1C	CNc1noc(N)c1C	
InChI=1S/C5H9N3O/c1-3-4(6)9-8-5(3)7-2/h6H2,1-2H3,(H,7,8)	InChI=1S/C5H9N3O/c1-3-4(6)9-8-5(3)7-2/h6H2,1-2H3,(H,7,8)
