19
gdb 92153	2.59385	1.64024	1.39397	2.1173	75.39	-0.1909	0.0731	0.264	1019.9783	0.160591	-419.131931	-419.124179	-419.123235	-419.163761	31.207	
C	 0.0180341715	 1.4443335611	-0.0346993653	-0.326691
N	-0.028957246	-0.0038748602	 0.050440253	-0.054119
C	-1.3936919098	-0.5645872188	 0.00671771	-0.130347
C	-1.2945809599	-1.8019621251	 0.8937048064	-0.141236
N	-0.1951632436	-2.6849449825	 0.3381695178	-0.309708
C	 0.7263479165	-2.0888997871	 1.328997821	-0.154977
C	 0.5751927407	-0.562475697	 1.2491833508	-0.02348
C	-0.373177288	-1.3529492958	 2.0828798135	 0.319484
O	-0.6952748294	-1.0892338769	 3.3969873652	-0.453715
H	 1.057814532	 1.7855432045	-0.0142487468	 0.11811
H	-0.4161848362	 1.7669071857	-0.986798036	 0.1191
H	-0.5312876325	 1.9573822394	 0.7778578522	 0.092792
H	-2.137683197	 0.1348004339	 0.4301162538	 0.07953
H	-1.68407585	-0.8099581637	-1.0199372806	 0.108765
H	-2.2374063754	-2.3084462017	 1.0997802268	 0.071866
H	-0.3853188794	-3.641561506	 0.6315970145	 0.213301
H	 1.6508546522	-2.5686282492	 1.6310979264	 0.091778
H	 1.3588397211	 0.0147385216	 1.7258284735	 0.095446
H	-0.9439169069	-1.9168891722	 3.8250388438	 0.2841
113.7427	205.8415	237.0164	306.9997	340.0959	354.9998	384.1902	413.0969	530.0219	581.6626	649.4452	677.2099	781.203	836.8865	855.1799	883.5783	920.1299	938.0908	995.5813	1002.4817	1025.6003	1051.5499	1063.1163	1084.9912	1138.3775	1148.2915	1171.2527	1174.7408	1192.7763	1237.4774	1265.8728	1292.1501	1310.5915	1331.674	1359.31	1383.9406	1456.5445	1484.5784	1491.4734	1500.3086	1506.5344	2921.6827	2939.7251	3057.6431	3068.2382	3099.9588	3119.2154	3172.9921	3192.6087	3466.0422	3774.553
CN1CC2NC3C1C23O	CN1C[C@H]2N[C@H]3[C@@H]1[C@@]23O	
InChI=1S/C6H10N2O/c1-8-2-3-6(9)4(7-3)5(6)8/h3-5,7,9H,2H2,1H3	InChI=1S/C6H10N2O/c1-8-2-3-6(9)4(7-3)5(6)8/h3-5,7,9H,2H2,1H3/t3-,4+,5-,6-/m1/s1
