15
gdb 13339	6.31256	1.12123	1.00103	3.0284	62.18	-0.2464	-0.0234	0.223	1102.2926	0.119044	-399.818026	-399.810438	-399.809494	-399.851586	25.832	
O	-0.5275472299	 0.6658367179	 0.8007873765	-0.241432
C	 0.0988223814	 0.9294291726	-0.1942454698	 0.155353
C	 1.3733604386	 1.751146661	-0.1978993505	-0.285424
C	 1.3055199691	 2.9394606757	-1.1721344172	 0.001929
C	 2.6039142938	 3.7946760167	-1.2062389213	-0.123118
O	 3.0103874913	 3.7650345547	-2.5963626137	-0.21656
C	 2.1043361806	 2.9781089995	-3.218380085	 0.127926
N	 1.1408088492	 2.4765615576	-2.5667235643	-0.273536
H	-0.2268420793	 0.5797009272	-1.1957278413	 0.105485
H	 1.566526066	 2.093280513	 0.8234559186	 0.120935
H	 2.199216523	 1.0960527726	-0.509167408	 0.123214
H	 0.439543593	 3.5584102489	-0.9096650495	 0.105386
H	 2.4504388423	 4.8368902399	-0.9177039799	 0.128612
H	 3.4143017978	 3.3708841929	-0.6052310257	 0.122615
H	 2.2882275232	 2.8371050197	-4.2777961388	 0.148615
46.5768	62.3155	93.5498	198.2732	326.5372	376.153	484.1607	580.6299	722.2064	813.3013	842.0666	885.0143	957.755	964.5371	969.9801	992.8609	1058.2376	1095.2926	1133.3439	1139.8608	1208.7671	1238.3057	1287.046	1314.1806	1322.1186	1371.1831	1381.3726	1421.6637	1456.8416	1516.996	1706.0509	1829.2611	2927.1459	3016.8379	3035.4966	3054.3018	3096.7684	3109.6844	3217.6538
O=CCC1COC=N1	O=CC[C@H]1COC=N1	
InChI=1S/C5H7NO2/c7-2-1-5-3-8-4-6-5/h2,4-5H,1,3H2	InChI=1S/C5H7NO2/c7-2-1-5-3-8-4-6-5/h2,4-5H,1,3H2/t5-/m0/s1
