21
gdb 52793	2.82685	0.99341	0.82682	1.9202	89.44	-0.2404	0.0373	0.2778	1506.3836	0.177479	-387.066782	-387.055434	-387.05449	-387.103962	39.894	
C	 0.0791927254	 1.4680831565	 0.0329700158	-0.504789
C	 0.0237149475	 0.0141736918	-0.0069519923	 0.130799
C	-0.0343477422	-1.1892663264	-0.0275745364	 0.025949
C	-0.0271481451	-2.6367783424	-0.0826306577	 0.118006
C	 1.2594379349	-3.1988975287	-0.6613083801	-0.476091
O	-0.5312894034	-3.3078053207	 1.0948310341	-0.318913
C	-1.3221704714	-3.3808467047	-0.1001991798	 0.355295
C	-2.6314160206	-2.6210430329	-0.042792575	-0.46227
C	-1.4418095609	-4.7558944839	-0.7268012318	-0.458881
H	 1.0905652491	 1.8337418641	-0.1756865142	 0.149963
H	-0.5951998945	 1.9143018787	-0.7063401001	 0.149125
H	-0.2130588946	 1.8458971281	 1.0189505412	 0.15358
H	 2.1109720652	-2.83080472	-0.0814483441	 0.134962
H	 1.2742615305	-4.2884276144	-0.6329204098	 0.126128
H	 1.3890750325	-2.8659328184	-1.6957395675	 0.127286
H	-2.4961057749	-1.6348792335	 0.4018356578	 0.137648
H	-3.050599342	-2.498186062	-1.0473572158	 0.116612
H	-3.3577278545	-3.1804453589	 0.5568991375	 0.120313
H	-2.2113327049	-5.3311056886	-0.2000648433	 0.126045
H	-1.7476715741	-4.6769822158	-1.7755497082	 0.121793
H	-0.5115763822	-5.321150118	-0.6748800705	 0.127441
32.6128	87.6867	93.4238	120.9502	143.4877	176.9455	206.7274	262.6606	307.2135	317.3359	363.5647	387.9027	403.6562	479.3346	536.3592	574.4173	619.8884	700.3688	828.8979	872.5132	944.4478	983.155	1005.2582	1051.3524	1053.7894	1055.3779	1078.2876	1149.9182	1160.5328	1234.2901	1271.0336	1402.1204	1408.7077	1411.968	1417.2224	1421.0047	1470.5665	1476.773	1477.9614	1478.8153	1480.5956	1490.4471	1503.2737	1515.1732	2363.658	3027.3982	3035.2403	3041.1465	3049.3424	3088.0447	3090.1375	3093.3247	3099.479	3111.8567	3141.6824	3149.0192	3155.941
CC#CC1(C)OC1(C)C	CC#C[C@@]1(C)OC1(C)C	
InChI=1S/C8H12O/c1-5-6-8(4)7(2,3)9-8/h1-4H3	InChI=1S/C8H12O/c1-5-6-8(4)7(2,3)9-8/h1-4H3/t8-/m1/s1
