22
gdb 61763	2.53197	1.06845	0.96388	4.179	79.74	-0.2432	0.0383	0.2815	1360.2064	0.19115	-441.52441	-441.513421	-441.512477	-441.560576	40.428	
C	 0.1184835068	 1.6649178743	 0.0353508821	-0.411939
C	 0.002129768	 0.13421462	-0.0068527322	 0.054316
N	-1.4008536851	-0.26654494	-0.0282448096	-0.272473
C	-2.1080637237	-0.5668342605	 1.0880965635	 0.152704
O	-1.6642031812	-0.5775991184	 2.2190746	-0.336634
C	 0.7190246084	-0.5239594542	-1.2139943111	 0.331878
C	 2.1646547673	-0.0319831554	-1.3585952515	-0.42999
C	 0.6928216548	-2.0539224151	-1.0931962072	-0.418075
O	-0.0534007646	-0.1109908309	-2.3560784209	-0.475285
H	 1.150302083	 1.9867388009	 0.1989180979	 0.116922
H	-0.2403328599	 2.1072777527	-0.898343358	 0.127036
H	-0.4858733734	 2.0472542907	 0.8614892815	 0.133188
H	 0.4212625679	-0.2786990398	 0.9147192698	 0.112653
H	-1.8600052919	-0.2453484012	-0.9260611472	 0.253825
H	-3.1625461519	-0.816043057	 0.8523704054	 0.069807
H	 2.7380226297	-0.2053253411	-0.4420446595	 0.122589
H	 2.6657297642	-0.5739294749	-2.1686455036	 0.105392
H	 2.1955170189	 1.0329229076	-1.5957177451	 0.130483
H	-0.3288206201	-2.420696151	-0.9773476081	 0.125862
H	 1.1275299986	-2.5123021413	-1.9892753264	 0.101743
H	 1.2795764484	-2.3903539598	-0.2326962189	 0.125268
H	 0.2945181258	-0.5624561056	-3.1316509407	 0.280731
30.2991	83.3811	176.8752	207.1715	220.1102	230.1345	241.0978	257.7461	288.706	306.3226	355.7452	370.4728	394.9118	473.9763	511.5484	565.3451	604.1979	706.4256	815.2062	876.6362	922.2768	929.7834	954.0866	1002.6521	1030.6898	1036.9621	1088.6821	1131.7135	1155.7496	1200.5215	1218.5456	1226.5904	1315.6784	1366.0338	1381.4256	1398.1211	1403.299	1417.0151	1428.0265	1480.6122	1481.4229	1492.3629	1498.614	1501.8351	1514.0582	1521.797	1796.42	2927.3093	3030.6666	3036.9317	3048.5043	3084.8913	3093.8659	3101.6024	3122.5189	3129.2184	3135.1944	3136.2212	3628.7496	3818.2026
CC(NC=O)C(C)(C)O	C[C@@H](NC=O)C(C)(C)O	
InChI=1S/C6H13NO2/c1-5(7-4-8)6(2,3)9/h4-5,9H,1-3H3,(H,7,8)	InChI=1S/C6H13NO2/c1-5(7-4-8)6(2,3)9/h4-5,9H,1-3H3,(H,7,8)/t5-/m1/s1
