20
gdb 107542	1.91908	1.61096	1.03692	3.9129	79.82	-0.2235	-0.0178	0.2056	1217.1217	0.169956	-403.118148	-403.108972	-403.108028	-403.152746	33.781	
C	-0.3191212004	 1.4877195916	-0.0945782816	-0.382375
C	 0.1100474083	 0.0242966702	 0.0875369043	-0.312734
C	 0.829573249	-0.5290462931	-1.1064951005	 0.345286
N	 0.1214131487	-0.9107961636	-2.3574534872	-0.371825
C	 0.9694495587	-1.9062487801	-1.6535237794	-0.118663
C	 2.3995390401	-1.6367399165	-2.1241977617	-0.247684
C	 2.2789394823	-0.1749027448	-1.5426554152	-0.126315
C	 2.4318031664	 0.9795020282	-2.4964973405	 0.154066
O	 3.1764037988	 1.9131590801	-2.316808092	-0.268298
H	 0.5467181472	 2.1312150867	-0.2801014027	 0.138977
H	-1.0019350933	 1.5960680214	-0.9430836958	 0.124501
H	-0.8271841336	 1.8593567501	 0.7999269142	 0.117102
H	 0.7605706423	-0.0613355356	 0.9672222963	 0.109026
H	-0.7682689767	-0.6025624264	 0.2922223298	 0.097343
H	-0.8467439546	-1.1021819008	-2.0985522996	 0.227052
H	 0.5451079376	-2.8406322773	-1.3061468915	 0.097203
H	 3.1602419331	-2.2127291159	-1.5948972927	 0.114982
H	 2.5572415993	-1.7216477286	-3.2025688546	 0.115296
H	 2.9389909434	-0.0195544025	-0.686714473	 0.090356
H	 1.7866573834	 0.917494537	-3.3975464366	 0.096704
47.4145	90.2758	125.0505	182.8055	207.8722	275.6174	314.605	357.5763	432.6627	474.1518	517.5097	648.8025	703.9741	785.025	834.0316	877.1076	897.0244	909.4174	961.0652	972.9785	1003.4857	1040.0732	1070.9773	1078.5664	1105.346	1108.6844	1146.0891	1181.8279	1209.2035	1227.6242	1272.8202	1281.804	1314.9817	1337.9353	1365.7769	1411.1273	1416.1529	1443.1194	1476.8581	1477.7379	1498.3187	1508.2247	1814.2444	2922.1858	3014.7551	3039.7005	3049.902	3066.9534	3095.2228	3111.3695	3113.4913	3130.4425	3186.4846	3465.7854
CCC12NC1CC2C=O	CC[C@]12N[C@H]1C[C@H]2C=O	
InChI=1S/C7H11NO/c1-2-7-5(4-9)3-6(7)8-7/h4-6,8H,2-3H2,1H3	InChI=1S/C7H11NO/c1-2-7-5(4-9)3-6(7)8-7/h4-6,8H,2-3H2,1H3/t5-,6-,7+/m0/s1
