20
gdb 78297	2.82388	1.36099	1.1252	0.7379	80.47	-0.199	0.0743	0.2733	1177.8927	0.16853	-403.05498	-403.046001	-403.045057	-403.087794	35.297	
C	-0.1658693667	 1.340331268	 0.0966685566	-0.320399
N	 0.0735576554	-0.0943271741	-0.0355218247	-0.104342
C	 0.793402958	-0.4485971437	-1.2781408149	-0.088347
C	 1.5048296592	-0.4508583064	 0.0195665398	-0.119545
C	 1.6608044707	-2.0046412156	-0.0666490732	 0.325452
O	 2.8439944619	-2.6437843851	 0.2555086121	-0.459577
C	 0.3344066356	-2.7046080556	-0.2087099071	-0.406485
C	 0.9515419292	-1.9985632403	-1.4062435622	 0.26271
C	 1.2941422334	-2.6756209554	-2.6999982691	-0.496392
H	 0.628302971	 1.9687044436	-0.3418032965	 0.097595
H	-1.1110373025	 1.5918452104	-0.3948491082	 0.124138
H	-0.2531395721	 1.5921928421	 1.1583120261	 0.123193
H	 0.8553516924	 0.2553186976	-2.0996924362	 0.086922
H	 2.2488735058	 0.2349802406	 0.4063183182	 0.091774
H	 2.779842024	-2.9575545948	 1.1648192616	 0.285795
H	 0.433432129	-3.7854706233	-0.2645724386	 0.103794
H	-0.5631099549	-2.334385611	 0.2704005373	 0.1304
H	 0.4205683993	-2.7497792399	-3.3590462408	 0.118455
H	 2.0748152991	-2.1288137636	-3.2417961002	 0.117706
H	 1.6657233622	-3.6887523536	-2.51950509	 0.127153
159.2489	192.4844	200.8713	205.2799	233.3265	277.4785	293.5797	349.8136	391.7367	423.4331	504.3301	557.5011	564.1852	747.0274	767.5551	791.0353	835.4306	845.9711	875.3701	893.8089	966.9125	972.6417	1008.5401	1074.3007	1097.1028	1116.8646	1130.5063	1135.6164	1152.9479	1194.2898	1220.6016	1259.0655	1292.4769	1327.9593	1340.9106	1402.9927	1418.1686	1450.8525	1484.2006	1491.275	1493.9564	1499.6882	1504.8101	2956.3519	3019.8008	3065.25	3074.9515	3103.12	3103.4692	3128.0872	3178.2721	3193.5188	3227.3523	3779.8093
CN1C2C1C1(O)CC21C	CN1[C@H]2[C@@H]1[C@@]1(O)C[C@@]21C	
InChI=1S/C7H11NO/c1-6-3-7(6,9)5-4(6)8(5)2/h4-5,9H,3H2,1-2H3	InChI=1S/C7H11NO/c1-6-3-7(6,9)5-4(6)8(5)2/h4-5,9H,3H2,1-2H3/t4-,5+,6-,7-,8?/m0/s1
