20
gdb 85072	3.04808	1.28462	0.93839	2.8849	83.49	-0.2112	-0.0021	0.2092	1276.6774	0.171614	-403.205584	-403.19655	-403.195606	-403.239354	33.755	
C	 0.0033620354	 1.5917168135	-0.0075486071	-0.400245
C	 0.0194001001	 0.0592650684	 0.0359067512	-0.041606
C	 0.6702479987	-0.532947711	-1.2245986176	-0.319226
C	 0.9174996765	-2.0358520365	-1.1670733637	 0.395675
O	 0.8431108533	-2.752513155	-2.1468519282	-0.374256
N	 1.2986543767	-2.5145069448	 0.0755484681	-0.111596
C	 1.6682537947	-3.9154613351	 0.2218157569	-0.354715
C	 1.3117359809	-1.685817249	 1.2077098548	 0.023224
C	 0.739621462	-0.4818368817	 1.2456092585	-0.136144
H	 1.0224327653	 1.9915961783	-0.0529104294	 0.118054
H	-0.5425176671	 1.954803605	-0.8841260404	 0.116952
H	-0.4797343181	 2.0039699075	 0.8843414703	 0.115062
H	-1.0276755716	-0.2841215733	 0.0753609502	 0.09097
H	 0.0827100396	-0.3379943044	-2.1240081878	 0.126218
H	 1.6534395434	-0.0615118184	-1.3702307987	 0.123469
H	 2.6447690933	-4.0012207206	 0.7104739034	 0.126195
H	 0.9284935111	-4.4611407853	 0.8185691703	 0.130334
H	 1.7156386549	-4.3531940683	-0.7739584142	 0.170739
H	 1.819084286	-2.1184337411	 2.0631670821	 0.109216
H	 0.7818829651	 0.102812552	 2.1573521314	 0.091679
88.9393	101.3281	138.7685	197.3072	246.7255	271.1819	339.8129	366.0766	403.3019	456.4284	555.8015	581.2106	641.0716	727.8453	743.0211	765.2138	882.7115	920.0966	944.4425	961.7159	1023.4466	1062.2689	1106.1027	1145.2108	1153.547	1158.9656	1193.6328	1234.7333	1283.08	1301.0566	1335.9566	1359.0234	1389.5872	1408.8928	1421.4785	1455.8476	1465.3512	1497.2472	1499.6777	1500.8172	1514.3671	1721.0743	1777.7581	2961.645	3012.7237	3028.2499	3030.0465	3082.3164	3099.1464	3104.1769	3113.9893	3169.9105	3181.9235	3203.5229
CC1CC(=O)N(C)C=C1	C[C@H]1CC(=O)N(C)C=C1	
InChI=1S/C7H11NO/c1-6-3-4-8(2)7(9)5-6/h3-4,6H,5H2,1-2H3	InChI=1S/C7H11NO/c1-6-3-4-8(2)7(9)5-6/h3-4,6H,5H2,1-2H3/t6-/m1/s1
