16
gdb 43921	4.41557	1.13384	1.03861	2.4037	71.86	-0.2521	-0.0399	0.2122	1135.8458	0.125333	-437.904884	-437.897269	-437.896325	-437.937581	28.517	
O	 0.1234157795	-0.0882431248	-0.0000970562	-0.374769
C	 0.0929483837	 1.1220080046	 0.0077588266	 0.388365
N	-1.0405287243	 1.9164736097	 0.0288115656	-0.401838
C	-0.7585582003	 3.3200875634	 0.0332138087	 0.242071
C	-1.4687288135	 4.2631744634	-0.9850868216	-0.115532
O	-1.8145646217	 5.1887174003	 0.0594755706	-0.265059
C	-1.439270379	 4.2507590095	 1.0825787613	-0.115528
C	 0.7461714417	 3.3368219717	 0.0118753237	-0.097173
C	 1.2304097338	 2.095205135	-0.0025418496	-0.216732
H	-1.965554226	 1.5206867574	 0.0393484018	 0.253564
H	-0.8484280349	 4.7202276565	-1.7628104844	 0.117144
H	-2.3531841463	 3.8025834439	-1.4463011332	 0.104309
H	-2.3103044874	 3.7845113818	 1.5632377018	 0.104314
H	-0.7969868019	 4.6985520959	 1.8477440395	 0.117142
H	 1.2979588769	 4.2684304313	 0.0096613592	 0.130263
H	 2.2616831697	 1.7736972905	-0.0191856438	 0.129459
69.0455	87.6108	198.0584	322.6004	328.7011	401.4049	427.4811	508.6758	511.5955	686.6969	723.4769	828.2168	834.8164	868.1796	918.4815	945.524	955.1263	977.0938	1010.4877	1033.4184	1041.0239	1084.0287	1148.7709	1159.9479	1175.4415	1217.6986	1293.711	1314.1938	1339.8457	1367.7124	1420.6242	1503.9032	1531.7059	1653.3188	1829.09	3001.8154	3012.5954	3075.3542	3076.6213	3213.8655	3252.7382	3664.0318
O=C1NC2(COC2)C=C1	O=C1NC2(COC2)C=C1	
InChI=1S/C6H7NO2/c8-5-1-2-6(7-5)3-9-4-6/h1-2H,3-4H2,(H,7,8)	InChI=1S/C6H7NO2/c8-5-1-2-6(7-5)3-9-4-6/h1-2H,3-4H2,(H,7,8)
