17
gdb 71511	2.93246	1.56253	1.43667	3.2413	72.6	-0.2317	-0.0096	0.2221	966.5582	0.136894	-421.811887	-421.804809	-421.803865	-421.843169	28.742	
O	-0.0582487301	 1.3673606307	 0.0613835079	-0.469825
C	 0.0387673025	-0.0063097349	 0.0430383192	 0.39366
C	 0.6895218318	-0.9618897732	 1.0726763556	-0.305006
C	 0.0493117368	-1.8646573963	-0.009293048	-0.07092
C	-1.2076725682	-0.9315475032	-0.0398804542	-0.05055
C	-1.7729700186	-0.8862848454	-1.4535479895	-0.369955
C	-0.4447510709	-0.8764601406	-2.2339751097	 0.416024
O	-0.2775893837	-0.8339593188	-3.4249083768	-0.331966
C	 0.5880357782	-0.916924398	-1.1369427691	-0.202553
H	 0.8278469048	 1.7457737561	 0.0520132102	 0.289635
H	 1.7815052841	-0.9658531489	 1.1306502611	 0.094589
H	 0.2339987345	-0.9889021492	 2.0670858533	 0.099296
H	 0.0518396225	-2.9514415316	-0.0526178337	 0.092843
H	-1.8872459254	-0.9528942446	 0.812689362	 0.077589
H	-2.3822457963	-1.7555494014	-1.7210002745	 0.123308
H	-2.355012652	 0.0154884665	-1.6673380396	 0.135498
H	 1.64457847	-0.9153333371	-1.4018586742	 0.078333
115.8659	218.2116	269.4916	344.3812	373.4972	417.9155	511.037	579.1564	607.7374	667.4226	690.1186	719.5242	834.2085	843.9288	905.5528	910.5635	964.2135	970.3421	998.0956	1004.9856	1045.7819	1066.4296	1100.7199	1115.7076	1149.352	1155.3732	1196.0515	1208.1736	1226.015	1253.664	1262.3558	1292.6993	1324.5641	1396.1762	1456.7704	1520.6448	1856.5456	3047.6759	3055.8551	3100.4424	3111.3245	3113.6874	3132.8621	3146.4788	3807.7864
OC12CC3C1CC(=O)C23	O[C@@]12C[C@H]3[C@@H]1CC(=O)[C@@H]23	
InChI=1S/C7H8O2/c8-5-1-4-3-2-7(4,9)6(3)5/h3-4,6,9H,1-2H2	InChI=1S/C7H8O2/c8-5-1-4-3-2-7(4,9)6(3)5/h3-4,6,9H,1-2H2/t3-,4-,6-,7-/m0/s1
