20
gdb 86084	2.80621	1.34775	1.0094	3.0202	83.27	-0.2265	0.0112	0.2377	1224.501	0.171387	-403.143403	-403.134781	-403.133836	-403.176485	33.66	
C	-0.1579609851	 1.5680526227	-0.0078484295	-0.48799
C	-0.0384111521	 0.0783706356	-0.0208786041	 0.307618
C	-0.3929863549	-0.7516820437	-1.0103266954	-0.272637
C	-0.1046776453	-2.1623952497	-0.6637993027	 0.294786
C	-0.595227526	-3.3505397058	-1.3946682772	-0.291954
N	 0.8344151938	-2.990095225	-1.4653444797	-0.373476
C	 0.1861326384	-2.166896951	 0.8495802827	 0.084265
O	 1.1509528944	-3.117846851	 1.2166876616	-0.449222
C	 0.5557333587	-0.68736519	 1.145298337	-0.34279
H	 0.822789585	 2.0393034445	 0.1358011175	 0.130172
H	-0.5890068916	 1.950976546	-0.9370477212	 0.122399
H	-0.7864964518	 1.9049570483	 0.8262964628	 0.129755
H	-0.8164489707	-0.4504313226	-1.9633854456	 0.088638
H	-0.7992122157	-4.2682358339	-0.8485067759	 0.126325
H	-1.2110983938	-3.1998074637	-2.2780230426	 0.11316
H	 1.0548703115	-2.532424568	-2.3458340481	 0.233532
H	-0.7441298373	-2.4058910833	 1.3826004321	 0.082901
H	 1.6023148068	-3.3520631613	 0.3882657958	 0.289037
H	 1.6476979641	-0.5733334032	 1.1764202835	 0.113454
H	 0.1763509716	-0.3457680251	 2.1149652591	 0.102027
82.1847	135.2028	187.5554	240.129	274.6203	293.6957	389.5454	444.3574	473.8214	507.5063	529.8928	535.6122	624.5547	738.6568	835.8681	847.9048	878.405	896.0195	959.0561	967.0652	976.3825	1006.9019	1035.325	1057.2661	1072.4393	1125.9669	1139.5412	1163.8774	1176.5113	1247.5322	1259.7539	1268.5736	1322.64	1335.0339	1363.162	1406.5949	1412.9563	1453.8261	1476.9289	1481.554	1487.0883	1504.5821	1704.2814	3008.9952	3016.51	3022.4392	3063.3403	3065.1931	3100.9662	3108.8979	3178.1372	3187.3328	3507.9139	3650.1959
CC1=CC2(CN2)C(O)C1	CC1=C[C@]2(CN2)[C@@H](O)C1	
InChI=1S/C7H11NO/c1-5-2-6(9)7(3-5)4-8-7/h3,6,8-9H,2,4H2,1H3	InChI=1S/C7H11NO/c1-5-2-6(9)7(3-5)4-8-7/h3,6,8-9H,2,4H2,1H3/t6-,7-/m0/s1
