17
gdb 28342	3.16107	1.3566	0.95589	4.9872	82.68	-0.1908	-0.0153	0.1755	1196.62	0.137716	-418.093019	-418.084614	-418.083669	-418.125712	32.194	
C	-0.0375948433	 1.5287476638	 0.0070021524	-0.473572
C	-0.0008550535	 0.0289163201	-0.0387881052	 0.112576
C	-0.0532860001	-0.7070168104	-1.1905963171	-0.127322
C	-0.0216753317	-2.1245853218	-1.214594861	-0.247324
C	 0.0842344485	-2.7931950372	-0.0232341706	 0.432651
N	 0.2045096127	-4.1703083734	 0.1122120958	-0.581003
N	 0.143219803	-2.0667732794	 1.1296299773	-0.417679
C	 0.1057429363	-0.6583508582	 1.2343021093	 0.374375
O	 0.1704227031	-0.1423220986	 2.3414669098	-0.401488
H	 0.8656640338	 1.9308110438	 0.4795045587	 0.135888
H	-0.1248175114	 1.9529017178	-0.9969354802	 0.107161
H	-0.8791589123	 1.8834823689	 0.6124425017	 0.135149
H	-0.1327330878	-0.1839536903	-2.1404677838	 0.097125
H	-0.0852442842	-2.6742508497	-2.1441927247	 0.08686
H	-0.0175826839	-4.6769334064	-0.7326989731	 0.260808
H	-0.2768766091	-4.566005651	 0.9092449494	 0.25487
H	 0.2796661399	-2.5333453079	 2.0164259911	 0.250925
122.1631	134.677	179.5199	266.0769	281.1726	320.9915	338.1296	433.1374	458.444	539.5455	582.0522	618.1222	642.5986	703.3364	743.3146	762.4622	777.4538	788.0623	943.8968	979.8165	1037.4384	1068.9921	1105.8126	1137.6858	1168.0061	1241.8824	1292.8909	1352.5405	1415.2739	1424.126	1470.0993	1491.7836	1518.9172	1621.6164	1651.5549	1676.1788	1762.2096	3030.37	3080.9334	3114.3238	3159.2587	3214.1923	3550.7147	3596.0797	3652.6112
CC1=CC=C(N)NC1=O	Cc1ccc(N)[nH]c1=O	
InChI=1S/C6H8N2O/c1-4-2-3-5(7)8-6(4)9/h2-3H,1H3,(H3,7,8,9)	InChI=1S/C6H8N2O/c1-4-2-3-5(7)8-6(4)9/h2-3H,1H3,(H3,7,8,9)
