20
gdb 97365	3.54194	0.77058	0.66346	2.1656	81.2	-0.2484	-0.023	0.2254	1717.6158	0.166147	-440.303633	-440.292628	-440.291683	-440.341372	37.678	
C	-0.5003622228	 1.4458841307	 0.3211203691	-0.316527
N	-0.3854935355	 0.0263049281	 0.582239822	-0.209243
C	-1.2280939693	-0.7321859203	 0.0423332688	 0.134247
O	-1.2000943085	-2.0643963267	 0.2657370085	-0.212548
C	-2.1105962339	-2.8719694896	-0.4828963993	 0.005159
C	-1.50822929	-3.3070813584	-1.8150222408	-0.390409
C	-2.529037605	-4.076287882	 0.3818675144	 0.367343
C	-2.2883043827	-3.9889063081	 1.8708480088	-0.473028
O	-3.0543084524	-5.0271305866	-0.1476085414	-0.300943
H	 0.4316753968	 1.8137190741	-0.1224262205	 0.130713
H	-1.3325413253	 1.7131772071	-0.350751638	 0.096839
H	-0.6359921317	 1.9836978678	 1.2662999147	 0.130116
H	-2.0437699046	-0.4023051981	-0.6217413296	 0.076057
H	-3.036039065	-2.3007224646	-0.6618640973	 0.109888
H	-0.54658232	-3.8005209077	-1.6489346721	 0.137155
H	-2.183678982	-4.0101653872	-2.3054072543	 0.150424
H	-1.3472860451	-2.4438617126	-2.4665849368	 0.118947
H	-2.7457055213	-3.0829524892	 2.282353754	 0.144134
H	-2.6990590042	-4.8752678258	 2.3548756944	 0.138636
H	-1.2161679375	-3.9039223509	 2.0725202756	 0.163039
31.2591	39.4154	87.5176	138.3082	158.0626	204.2485	220.56	231.5692	290.7736	306.9581	389.9654	399.5507	424.0563	512.2769	600.7957	638.4283	765.5616	907.0518	965.4966	972.9988	981.2875	1047.0479	1090.1235	1120.0998	1130.7506	1141.5735	1157.8173	1217.4349	1248.5189	1323.3431	1347.7563	1384.142	1399.4912	1410.8363	1449.5415	1454.3979	1466.8574	1480.0125	1487.1267	1495.2411	1504.3043	1780.2609	1816.0104	2966.7516	2976.075	2985.3671	3047.6444	3051.6792	3060.3337	3080.1712	3110.0804	3123.8957	3149.3915	3159.8615
CN=COC(C)C(C)=O	CN=CO[C@@H](C)C(=O)C	
InChI=1S/C6H11NO2/c1-5(8)6(2)9-4-7-3/h4,6H,1-3H3	InChI=1S/C6H11NO2/c1-5(8)6(2)9-4-7-3/h4,6H,1-3H3/t6-/m0/s1
