20
gdb 83686	2.80419	1.39097	1.08783	4.0679	80.88	-0.2359	0.0267	0.2625	1164.4018	0.171444	-403.150206	-403.141597	-403.140652	-403.184069	32.134	
C	 0.380922733	 1.6890658285	 0.0137251389	-0.411881
C	 0.1866934478	 0.182228541	 0.0395082988	 0.052094
C	 0.6728440466	-0.7218245202	-1.1366810285	-0.071063
C	 2.0026852695	-0.3269270305	-1.8383931304	-0.231954
C	 2.8111614374	-1.2020565504	-0.8296499929	-0.226437
C	 1.4940195433	-1.5531117682	-0.0892248148	-0.001102
N	 1.0854809102	-0.5817759987	 0.9269838185	-0.042503
C	 1.1712465838	-0.5798551001	 2.2750021713	 0.123367
O	 0.6048356509	 0.2111501832	 3.0045848949	-0.339375
H	 1.418850468	 1.9619850954	-0.1956241222	 0.117795
H	-0.2598566774	 2.1408945757	-0.7508896792	 0.115945
H	 0.1126863465	 2.1058362049	 0.9872361609	 0.155706
H	-0.8601032444	-0.0383722589	 0.2880261312	 0.093849
H	-0.1075585832	-1.1569815619	-1.7583931001	 0.079331
H	 2.0636552578	-0.6850275177	-2.8682530093	 0.108675
H	 2.2370946756	 0.7393551558	-1.8418789564	 0.109604
H	 3.2805834228	-2.072266928	-1.295881563	 0.106756
H	 3.5556030748	-0.687050239	-0.2186779696	 0.109461
H	 1.3001230745	-2.5974816027	 0.1668440989	 0.085696
H	 1.8320526325	-1.3899735481	 2.6496441631	 0.066034
51.4627	83.5497	161.9339	210.0171	270.7635	278.4697	341.0499	390.8645	502.0218	537.3452	675.8277	725.102	781.6691	800.79	841.3111	843.221	945.4314	948.4691	970.6093	1018.9566	1033.6876	1063.4395	1097.87	1120.7925	1140.7137	1155.2003	1196.0583	1213.9771	1235.2147	1261.6137	1273.6978	1301.7319	1309.1484	1326.7756	1384.6624	1396.4267	1404.0365	1440.8408	1468.129	1481.7729	1486.9888	1511.2383	1781.5515	2910.356	3012.2363	3042.3728	3061.0874	3073.4854	3079.4329	3109.5621	3113.8975	3123.8595	3130.8916	3133.5373
CC1C2CCC2N1C=O	C[C@H]1[C@H]2CC[C@H]2N1C=O	
InChI=1S/C7H11NO/c1-5-6-2-3-7(6)8(5)4-9/h4-7H,2-3H2,1H3	InChI=1S/C7H11NO/c1-5-6-2-3-7(6)8(5)4-9/h4-7H,2-3H2,1H3/t5-,6+,7+/m0/s1
