13
gdb 131622	2.2964	1.68546	0.98818	1.9176	66.49	-0.2816	-0.0523	0.2293	1090.2412	0.089554	-452.745186	-452.737309	-452.736365	-452.778537	27.685	
O	 0.2415368779	 1.0865532218	-0.6703566785	-0.394359
C	-0.0760735279	 0.1209048376	 0.2998993853	-0.193167
C	-1.4327226522	-0.490959529	 0.0937360968	 0.35058
C	-2.2116998819	-0.6667241003	-1.0219451339	-0.020931
C	-3.3670857271	-1.3392334505	-0.5168457199	-0.033762
N	-3.2899247826	-1.5463146193	 0.767782058	-0.121043
O	-2.05518175	-1.002825242	 1.153998832	-0.20183
C	-1.9086473301	-0.2981421716	-2.3525316173	 0.192271
N	-1.6441718027	-0.0160948638	-3.4445005007	-0.345952
H	 0.3983086784	 0.6551371063	-1.517627775	 0.308897
H	 0.6718375262	-0.6860528947	 0.3561542972	 0.136641
H	-0.0705369637	 0.6240229281	 1.2721041539	 0.158596
H	-4.2394713844	-1.6677278226	-1.062777648	 0.16406
46.5311	123.096	174.8244	204.4436	261.5974	355.8825	409.0624	524.7002	544.1869	602.2671	634.0709	690.3466	741.0332	892.4063	919.0562	953.732	984.6072	1099.5666	1156.9515	1200.0295	1206.009	1270.2524	1372.1389	1398.2572	1425.5905	1479.4281	1517.5976	1632.4953	2348.9336	2984.5367	3084.8383	3258.2284	3812.7873
OCC1=C(C=NO1)C#N	OCc1c(cno1)C#N	
InChI=1S/C5H4N2O2/c6-1-4-2-7-9-5(4)3-8/h2,8H,3H2	InChI=1S/C5H4N2O2/c6-1-4-2-7-9-5(4)3-8/h2,8H,3H2
