19
gdb 76466	2.83524	1.4331	1.1751	1.3443	76.	-0.2345	0.0679	0.3024	1107.3073	0.157856	-422.923625	-422.915135	-422.914191	-422.956578	32.591	
C	-0.132147939	 1.5643285333	-0.1416574131	-0.404168
C	-0.0269229633	 0.0548287042	-0.0727404754	-0.165728
C	 1.3282010184	-0.6343101216	-0.2127485783	-0.02657
O	 2.4464988177	 0.1893988573	-0.3902451354	-0.421598
C	 0.6211494746	-0.6257491672	 1.0932093451	 0.424037
C	 1.1064591326	-0.1721790558	 2.4766169042	-0.047228
C	-0.2388541238	-0.6444983587	 3.0839722874	-0.218152
C	 0.2844193684	-1.7276802094	 2.1077298944	-0.059704
O	 1.6424247983	-1.5442988678	 2.6894219256	-0.319173
H	 0.7755435846	 2.0339786359	 0.2427079107	 0.131488
H	-0.2634210088	 1.8966921174	-1.1765839378	 0.122103
H	-0.9862547603	 1.9293697048	 0.4387185569	 0.112462
H	-0.8509950225	-0.4815827669	-0.5391075041	 0.08737
H	 1.3519656286	-1.5639831149	-0.7830202201	 0.084952
H	 3.1534360875	-0.1659096069	 0.1593073812	 0.295485
H	 1.7422006299	 0.6673723443	 2.7565137905	 0.099233
H	-0.1951441159	-0.9164163466	 4.1394742612	 0.106498
H	-1.1458014409	-0.100736389	 2.8094503437	 0.101857
H	-0.0612015361	-2.7485713126	 1.9441440934	 0.096835
120.9811	140.1899	150.1271	170.4463	235.349	325.176	343.8594	417.0872	538.2687	553.2744	608.0779	688.3081	744.6118	808.1437	816.6043	866.9668	905.4177	917.2867	936.8271	1001.9075	1025.9134	1045.3291	1059.2614	1100.1152	1117.432	1130.637	1156.8849	1163.1106	1169.5128	1173.7208	1212.8655	1236.2575	1264.6351	1303.5931	1344.8226	1370.0368	1412.9825	1475.1451	1488.9887	1497.1515	1514.1925	3036.6535	3065.5881	3087.0742	3094.4676	3119.2019	3120.3572	3126.2054	3136.6961	3148.865	3803.9557
CC1C(O)C11C2CC1O2	C[C@H]1[C@@H](O)[C@]21[C@H]1C[C@@H]2O1	
InChI=1S/C7H10O2/c1-3-6(8)7(3)4-2-5(7)9-4/h3-6,8H,2H2,1H3	InChI=1S/C7H10O2/c1-3-6(8)7(3)4-2-5(7)9-4/h3-6,8H,2H2,1H3/t3-,4-,5+,6+,7-/m0/s1
