19
gdb 19427	3.90145	1.90003	1.60536	1.4827	74.6	-0.2245	0.0894	0.3139	871.5542	0.167972	-327.895642	-327.888884	-327.88794	-327.926227	27.704	
C	 0.0879478267	 1.4896953371	 0.0367445861	-0.259187
C	 1.3082755314	 0.6430252704	-0.0420275183	-0.092293
N	-0.0325165716	 0.0248564709	-0.0030629138	-0.098286
C	-0.2863532995	-0.5135138544	-1.3562474006	-0.149967
C	 0.7575195189	 0.0958485122	-2.3253227497	-0.337583
C	 1.9251559746	 0.4328092311	-1.3995426235	 0.409856
C	 3.142437384	 1.1864357921	-1.8616710552	-0.32517
C	 3.2515840036	-0.2790127181	-1.5105487976	-0.317878
H	-0.2002386346	 1.937515067	 0.9835232788	 0.112933
H	-0.1963005219	 2.0692366033	-0.8385558342	 0.10733
H	 1.9371413912	 0.5087814849	 0.8348550466	 0.084508
H	-0.1632308897	-1.6000400321	-1.2951362263	 0.108668
H	-1.3196138951	-0.3123657666	-1.6552635891	 0.103246
H	 1.0368380095	-0.596922746	-3.1234688721	 0.101673
H	 0.3704892097	 0.9997285474	-2.8080705019	 0.105495
H	 3.1999135331	 1.4677029723	-2.9082822532	 0.110796
H	 3.5866410428	 1.9083680481	-1.1841235134	 0.113134
H	 3.7684677926	-0.5469290274	-0.5942579339	 0.112372
H	 3.3817576643	-0.9907406723	-2.3193751487	 0.110354
125.9079	230.1153	285.3887	331.8512	388.7402	468.4218	526.731	652.2284	711.1679	776.3748	796.808	827.8932	854.6613	900.4186	919.3942	938.8492	957.7013	984.8228	1002.874	1032.6037	1056.3426	1077.2109	1091.6096	1108.1386	1110.8955	1165.4503	1188.7453	1193.6509	1235.8561	1266.8623	1292.0563	1298.5939	1317.9789	1352.3113	1416.0779	1467.3163	1490.4282	1499.0222	1506.5869	1519.9891	3043.7462	3044.4599	3084.5448	3097.8312	3105.2932	3122.0336	3126.6424	3134.3744	3188.1055	3200.4737	3215.4797
C1C2N1CCC21CC1	C1[C@H]2N1CCC12CC1	
InChI=1S/C7H11N/c1-2-7(1)3-4-8-5-6(7)8/h6H,1-5H2	InChI=1S/C7H11N/c1-2-7(1)3-4-8-5-6(7)8/h6H,1-5H2/t6-,8?/m1/s1
