23
gdb 80980	2.37021	1.74613	1.29932	0.2006	90.03	-0.2278	0.0253	0.2531	1106.2613	0.207149	-351.164302	-351.155894	-351.15495	-351.196294	34.819	
C	-0.1099593552	 1.5261219961	-0.0699931049	-0.430132
C	 0.0108147794	 0.0079154742	 0.0026122456	 0.014887
C	 1.176657794	-0.596578017	-0.8431119851	-0.026107
C	 2.0803133919	-0.4426928716	 0.4132066794	-0.261868
C	 0.769774625	-0.5872983607	 1.2522255452	 0.308757
C	 0.6659185226	 0.0836080928	 2.609942288	-0.503399
C	 0.4391255339	-2.0718955581	 1.2861002376	-0.088388
C	 0.5080352814	-2.7795696735	 0.1585115325	-0.080032
C	 0.9082854912	-2.0848975099	-1.1237894578	-0.266625
H	 0.8469536399	 2.0339275433	 0.087384121	 0.113914
H	-0.4816995463	 1.8289514733	-1.0556330771	 0.111816
H	-0.8138073883	 1.9069022459	 0.6779375925	 0.113794
H	-0.9718766247	-0.4429507134	-0.1734929818	 0.059291
H	 1.4677020208	-0.0600345311	-1.7507393144	 0.052906
H	 2.8626468035	-1.1879025078	 0.5799073109	 0.088808
H	 2.5122445864	 0.5584069519	 0.4878981808	 0.090799
H	 0.9036696283	 1.1500243576	 2.5532274671	 0.111576
H	-0.3442069313	-0.0141843507	 3.0258500609	 0.11245
H	 1.3609502823	-0.3740457928	 3.3239594592	 0.113981
H	 0.1550592373	-2.5229230267	 2.2334621058	 0.078106
H	 0.2852910494	-3.842538127	 0.1321638482	 0.083456
H	 0.1160590191	-2.1932828806	-1.8786955025	 0.101276
H	 1.7997625191	-2.5627262742	-1.5551938713	 0.100736
202.9095	211.4741	225.403	240.9155	255.0144	311.4786	345.9181	403.4015	473.0075	489.7411	496.5382	630.5842	702.5528	721.458	810.2015	834.0162	851.1189	890.4735	915.1977	932.7092	951.0872	976.202	1014.4717	1026.4947	1049.0258	1072.6436	1088.97	1109.1518	1129.2094	1164.0126	1192.82	1213.1699	1229.4891	1257.688	1280.8491	1284.4002	1305.8035	1353.8788	1378.0884	1402.9521	1409.5831	1414.2898	1473.261	1487.9786	1490.9945	1494.0871	1501.283	1506.0413	1698.9135	2997.3806	3021.0574	3021.1542	3027.5883	3038.1191	3053.1338	3064.2659	3080.4599	3087.9581	3099.7952	3102.2809	3110.9326	3148.4154	3174.3182
CC1C2CC1(C)C=CC2	C[C@H]1[C@H]2C[C@]1(C)C=CC2	
InChI=1S/C9H14/c1-7-8-4-3-5-9(7,2)6-8/h3,5,7-8H,4,6H2,1-2H3	InChI=1S/C9H14/c1-7-8-4-3-5-9(7,2)6-8/h3,5,7-8H,4,6H2,1-2H3/t7-,8+,9-/m0/s1
