15
gdb 35016	2.86295	1.32442	1.08374	1.1567	80.62	-0.2414	0.0144	0.2557	1119.3771	0.109974	-383.372013	-383.363763	-383.362818	-383.404721	31.48	
C	 0.032464669	-1.2011146469	-0.0062907267	-0.426616
C	 0.0344659373	 0.0008895261	 0.0308216597	 0.337478
C	 0.0485912321	 1.432222613	 0.0655400809	-0.315679
C	 0.529348937	 2.2289026607	 1.2524608844	 0.052549
O	 1.5250795689	 1.5444502055	 1.9848984989	-0.275205
C	 2.4169247513	 1.563787609	 0.8363369327	-0.140199
C	 1.3551465096	 2.2550044112	-0.0282264527	 0.091308
C	 1.5783064323	 3.2467558018	-1.016200762	 0.166958
C	 1.7809167774	 4.0827934597	-1.8581611713	-0.392746
H	 0.0209335683	-2.2626278834	-0.03014554	 0.200085
H	-0.7568707172	 1.9270564337	-0.471725536	 0.131119
H	-0.0580526859	 2.9887991779	 1.7553917506	 0.126206
H	 3.2807442514	 2.2043345488	 1.0337601291	 0.126136
H	 2.730810565	 0.5607590374	 0.5331127934	 0.127567
H	 1.9571858736	 4.8215120955	-2.6002076511	 0.19104
100.2166	133.8429	164.2916	198.1387	330.4349	357.5256	450.6935	488.9052	523.7033	578.4565	588.4941	609.0709	644.3567	660.8616	661.5576	776.5284	826.1626	901.1986	930.6376	989.6769	1022.3194	1036.5084	1066.6586	1081.3036	1157.7894	1196.263	1257.1575	1278.3542	1349.1264	1435.9793	1504.1513	2232.7196	2238.4905	3051.6991	3113.1805	3146.2627	3184.5891	3502.1272	3503.5296
C#CC1C2OCC12C#C	C#C[C@H]1[C@H]2OC[C@@]12C#C	
InChI=1S/C8H6O/c1-3-6-7-8(6,4-2)5-9-7/h1-2,6-7H,5H2	InChI=1S/C8H6O/c1-3-6-7-8(6,4-2)5-9-7/h1-2,6-7H,5H2/t6-,7+,8-/m0/s1
