23
gdb 117930	3.76034	0.7069	0.66233	1.5807	83.57	-0.2394	-0.0097	0.2298	1828.0255	0.201987	-425.444595	-425.432964	-425.43202	-425.482799	39.916	
C	 0.0750377625	 1.5156206012	-0.1751027066	-0.377234
C	 0.0005435424	 0.0121854136	 0.0766610112	-0.284371
C	 0.7790703923	-0.4450166086	 1.3020629507	 0.378701
O	 1.2759097956	 0.343097693	 2.0770742808	-0.318373
C	 0.9156072145	-1.9535019625	 1.5034071762	-0.099737
C	 2.1799934108	-2.4577229461	 0.7773430962	-0.396214
C	 0.9611912456	-2.2893490734	 2.9944186702	-0.053819
O	 0.995039053	-3.6943695662	 3.1302670179	-0.239229
C	 1.081155686	-4.1111624263	 4.4715557213	-0.227797
H	 1.1058242188	 1.8304885201	-0.3590997457	 0.128018
H	-0.5306795282	 1.7945901079	-1.0417519646	 0.109478
H	-0.2825275557	 2.0719254959	 0.6945758051	 0.134456
H	-1.0402014023	-0.3122945126	 0.2240756964	 0.125286
H	 0.3510948303	-0.5618526922	-0.7914504204	 0.120684
H	 0.0434809727	-2.4523131576	 1.0629345309	 0.085935
H	 2.2966445209	-3.5292963941	 0.9504253474	 0.142196
H	 2.1245713985	-2.2842026687	-0.3016025822	 0.113717
H	 3.0683785705	-1.9452715102	 1.160718495	 0.129304
H	 1.8464657907	-1.8256700458	 3.4547217811	 0.10641
H	 0.0776472854	-1.8742064629	 3.5073832492	 0.086928
H	 1.1037838059	-5.203750086	 4.474976976	 0.125389
H	 1.993943263	-3.7339762442	 4.9591496547	 0.106137
H	 0.2147945568	-3.7717710543	 5.0614595992	 0.104135
31.7856	64.6602	83.4193	97.9501	133.6691	188.6888	211.2169	230.2553	243.1851	247.9541	312.6167	333.0877	357.5956	526.4786	566.9064	651.6211	796.093	808.3295	885.6969	934.5485	983.3559	995.0865	1027.2342	1043.8567	1079.3779	1122.2972	1136.6764	1161.8599	1171.0142	1196.2602	1230.5588	1266.9734	1276.0537	1323.4244	1347.4396	1373.7808	1396.4361	1413.8247	1420.7534	1449.3711	1481.6076	1485.6182	1491.8824	1493.532	1498.0888	1504.1057	1506.1341	1526.1835	1798.3125	2962.2662	2973.9635	3009.8344	3012.3187	3015.0876	3038.8268	3040.4899	3045.408	3051.4276	3108.4177	3112.5206	3120.5782	3129.4686	3134.7105
CCC(=O)C(C)COC	CCC(=O)[C@@H](C)COC	
InChI=1S/C7H14O2/c1-4-7(8)6(2)5-9-3/h6H,4-5H2,1-3H3	InChI=1S/C7H14O2/c1-4-7(8)6(2)5-9-3/h6H,4-5H2,1-3H3/t6-/m0/s1
