20
gdb 59922	3.14178	0.77911	0.72955	4.5511	77.82	-0.2338	-0.0315	0.2023	1633.5251	0.166563	-440.29104	-440.280293	-440.279349	-440.328713	36.74	
C	-0.5593161561	 1.3458326704	-0.1437748774	-0.315373
N	-0.4260953533	-0.1037466815	-0.0961623908	-0.063155
C	 0.9727022842	-0.5143764681	-0.1238019235	-0.324322
C	-1.1352703562	-0.6927959529	 1.0299609951	-0.238804
C	-1.3962927565	-2.1902526263	 0.8440292929	 0.354621
O	-1.1870795919	-2.9856831471	 1.7300748687	-0.292085
C	-1.9810816266	-2.6147345159	-0.4976925817	-0.380427
C	-1.994408683	-4.1173036	-0.6809589493	 0.174072
O	-2.9444567251	-4.7381461305	-1.0802272108	-0.241252
H	-0.0663305821	 1.7281660102	-1.0428675323	 0.12424
H	-1.6170944918	 1.6209514809	-0.1930080196	 0.122506
H	-0.111049577	 1.8529167322	 0.7304495271	 0.100923
H	 1.5434114594	-0.1517879162	 0.7510450327	 0.105737
H	 1.0471698983	-1.6064567471	-0.1382070764	 0.125041
H	 1.4521745075	-0.1301877688	-1.02877861	 0.125549
H	-0.6220501015	-0.5638688405	 1.9987099116	 0.107402
H	-2.1180371496	-0.2090875561	 1.1108456346	 0.121718
H	-3.0013948634	-2.2251495163	-0.5952665752	 0.146643
H	-1.396445402	-2.140255748	-1.2969278435	 0.157093
H	-1.0355745035	-4.6208743385	-0.435127512	 0.089872
36.5049	49.4462	62.24	92.0814	145.7064	221.3932	245.4325	252.2312	326.8886	375.7247	386.7581	422.8223	491.8336	539.1904	603.8633	738.2301	840.1898	867.7088	932.3352	1029.1067	1062.2691	1065.4621	1073.2338	1121.83	1122.7402	1170.1133	1190.7675	1212.8058	1297.4026	1305.5389	1318.8044	1369.0793	1421.373	1432.9931	1446.1669	1461.8154	1479.7545	1483.1668	1498.3192	1500.6737	1514.2795	1806.0852	1838.7162	2909.9431	2938.4203	2944.3959	2960.5655	3036.9133	3041.7592	3063.5973	3065.3824	3080.6965	3107.485	3110.4621
CN(C)CC(=O)CC=O	CN(C)CC(=O)CC=O	
InChI=1S/C6H11NO2/c1-7(2)5-6(9)3-4-8/h4H,3,5H2,1-2H3	InChI=1S/C6H11NO2/c1-7(2)5-6(9)3-4-8/h4H,3,5H2,1-2H3
