21
gdb 37344	2.4693	1.92851	1.83441	0.2683	84.77	-0.2341	0.0275	0.2616	924.2392	0.187263	-349.958744	-349.952173	-349.951229	-349.989066	29.173	
C	 0.0257643333	 1.5090358432	 0.1897141298	-0.298642
C	 1.3245284766	 0.7607773828	 0.02119473	-0.027757
C	 0.0022583291	 0.011482041	 0.0199563878	-0.030608
C	-0.1042912594	-0.6178534928	-1.3984673229	-0.066954
C	 1.3884551872	-0.8611810677	-1.7304425318	-0.206713
C	 1.9590783474	 0.5300518582	-1.36920699	-0.028043
C	 1.5330298148	 1.5410990493	-2.4591530603	-0.261168
C	 0.1158242717	 1.3101062569	-2.9341717237	-0.053078
C	-0.6493103743	 0.3327579381	-2.4438956752	-0.061687
H	-0.184083157	 1.8864000819	 1.1863034078	 0.101008
H	-0.3498033026	 2.1382210946	-0.608024693	 0.11885
H	 1.9891201846	 0.7048639915	 0.8769008634	 0.07707
H	-0.3007991169	-0.6024489835	 0.8613286334	 0.077629
H	-0.6955848612	-1.5360031637	-1.3705689918	 0.058515
H	 1.8102568822	-1.6264117728	-1.0701217258	 0.085639
H	 1.5587144663	-1.1593801988	-2.7703279455	 0.086939
H	 3.0495572002	 0.5321234881	-1.2886393255	 0.059628
H	 1.6367455863	 2.5679296609	-2.0823285047	 0.106328
H	 2.2192246481	 1.4723085771	-3.3156835348	 0.100368
H	-0.2679604235	 1.9843505428	-3.6965194359	 0.081899
H	-1.6757641328	 0.2106413528	-2.7782777913	 0.080777
215.6582	267.8598	339.9645	399.0375	461.6495	510.6836	538.1366	620.6975	693.2959	716.587	737.9747	796.2473	819.556	860.86	878.9749	899.3057	913.4387	951.2549	956.8836	990.1579	995.3259	1027.1818	1037.2215	1057.3225	1072.0401	1083.0437	1107.5895	1120.3214	1134.7334	1184.2168	1194.9374	1211.2753	1236.1447	1288.0366	1304.0199	1321.4638	1329.3116	1341.1156	1376.3698	1378.772	1410.7727	1469.3783	1481.5772	1494.8425	1704.8579	3000.5606	3027.3996	3036.0659	3066.3004	3078.2533	3086.7275	3126.9473	3143.5566	3153.8657	3164.1097	3170.652	3214.2689
C1C2C1C1CC2CC=C1	C1[C@H]2[C@@H]1[C@@H]1C[C@H]2CC=C1	
InChI=1S/C9H12/c1-2-6-4-7(3-1)9-5-8(6)9/h1-2,6-9H,3-5H2	InChI=1S/C9H12/c1-2-6-4-7(3-1)9-5-8(6)9/h1-2,6-9H,3-5H2/t6-,7+,8-,9+/m0/s1
