19
gdb 93984	2.81751	1.36516	1.03737	4.9276	77.74	-0.2465	-0.0221	0.2243	1183.2856	0.160971	-419.261633	-419.253007	-419.252063	-419.295056	32.027	
C	 0.263071607	 1.6010956839	 0.0819816912	-0.397065
C	-0.0194090217	 0.0935066967	-0.0231623036	-0.057726
C	 0.6815068805	-0.5854896685	-1.2177910477	-0.238581
C	 2.0424581871	-1.0198563788	-0.6507867886	-0.183183
N	 1.7446447858	-1.2838536169	 0.762100274	-0.107681
C	 2.5662256641	-2.0340912893	 1.5608497027	 0.153097
O	 2.3916718608	-2.2623185785	 2.7388650958	-0.31458
C	 0.5449867804	-0.6423888622	 1.1843057144	 0.383391
N	 0.0182404949	-0.6388211695	 2.3333656576	-0.537359
H	 1.3385758272	 1.8106537432	 0.0964691835	 0.115467
H	-0.1725194637	 2.1342611645	-0.7688547983	 0.116582
H	-0.1684185391	 1.9992094469	 1.0034422724	 0.147142
H	-1.100532708	-0.0593136307	-0.0474649862	 0.106628
H	 0.1179655009	-1.4685102427	-1.5340976094	 0.117669
H	 0.7896434156	 0.0727353484	-2.082600104	 0.111221
H	 2.4442619319	-1.9137610777	-1.1350731069	 0.125033
H	 2.7889338155	-0.2210843585	-0.7435485988	 0.122939
H	 3.4343999134	-2.431962052	 0.9996370276	 0.086417
H	 0.5838996674	-1.1746622182	 2.9926529544	 0.25059
68.942	122.8479	220.7962	232.2847	234.6901	252.6967	286.4779	349.9874	464.4717	488.6143	645.5888	679.1113	710.4154	754.8286	829.1054	910.9386	957.1063	966.5682	971.2872	1011.8683	1029.2083	1063.2372	1112.3054	1150.3369	1186.8086	1208.8215	1235.1485	1294.1573	1310.8784	1331.0445	1346.6272	1358.4828	1401.6596	1416.5461	1445.7682	1490.1857	1497.9227	1501.1548	1524.3479	1728.1059	1805.7932	2939.2201	3023.8921	3034.3155	3057.9167	3084.2299	3089.8404	3104.3287	3114.2498	3127.3345	3485.5258
CC1CCN(C=O)C1=N	C[C@H]1CCN(C=O)[C]1[NH]	
InChI=1S/C6H10N2O/c1-5-2-3-8(4-9)6(5)7/h4-5,7H,2-3H2,1H3	InChI=1S/C6H10N2O/c1-5-2-3-8(4-9)6(5)7/h4-5,7H,2-3H2,1H3/t5-/m0/s1
