16
gdb 66581	3.40721	1.91083	1.58372	1.3908	75.26	-0.1976	-0.0438	0.1538	852.7011	0.124192	-400.589718	-400.583137	-400.582193	-400.620059	27.783	
O	 0.034654541	 1.34318306	 0.1685289066	-0.441817
C	 0.0757323161	-0.0150717112	 0.2112405494	 0.330149
C	-1.0693308546	-0.9472956303	 0.0605879093	-0.164236
C	-0.2190731188	-0.9315632316	-1.1771238934	-0.093288
N	 0.3350570364	-2.287012583	-0.9933489001	-0.111177
C	 1.8283354899	-2.462947946	-0.8362687235	-0.194865
C	 2.2086549111	-1.4133353338	 0.224044116	-0.155678
C	 1.040433992	-1.0269271676	 0.7761999868	-0.034961
C	-0.0723104652	-2.0743151232	 0.4258212586	-0.045005
H	 0.876886256	 1.6713354417	-0.1701465256	 0.295233
H	-2.1359992561	-0.8546701499	 0.2128863593	 0.103998
H	-0.3471476252	-0.4252964715	-2.1262629613	 0.100847
H	 1.9828645449	-3.5171194314	-0.5773027115	 0.119929
H	 2.3788888285	-2.2668933991	-1.7637092153	 0.113837
H	 3.059728838	-0.7563773952	 0.0711814316	 0.091067
H	-0.265281534	-2.928350408	 1.073789203	 0.085968
219.8111	260.4829	326.2346	385.6166	394.4269	466.1692	538.7487	595.1223	621.557	721.9859	767.7683	786.3606	834.9005	852.5248	869.3999	891.2131	898.6675	917.7719	960.7289	978.5492	1006.6659	1059.6495	1071.7977	1121.8954	1153.7273	1174.2967	1196.3869	1236.6979	1253.5756	1277.7336	1292.0746	1318.1841	1459.5699	1468.6579	1567.577	3029.7912	3074.9935	3126.4245	3164.5263	3192.869	3207.9573	3771.0857
OC12C3C1N1CC=C2C31	O[C@@]12[C@H]3[C@@H]1N1C[CH][C]2[C@@H]31	
InChI=1S/C7H7NO/c9-7-3-1-2-8-5(3)4(7)6(7)8/h1,4-6,9H,2H2	InChI=1S/C7H7NO/c9-7-3-1-2-8-5(3)4(7)6(7)8/h1,4-6,9H,2H2/t4-,5+,6+,7+/m1/s1
