15
gdb 46976	3.11169	1.71695	1.24948	6.291	64.86	-0.2408	-0.0024	0.2384	952.7135	0.115902	-453.991806	-453.984908	-453.983964	-454.023892	25.847	
O	 0.0410309648	-0.0303809583	 0.1122352303	-0.323208
C	 0.0272265228	 1.1462046748	-0.0807803867	 0.440117
O	-1.0997365434	 1.8096920313	-0.4677436458	-0.217449
C	-0.8851159476	 3.211355498	-0.6519932233	-0.09131
C	 0.639998233	 3.4754864384	-0.515775996	-0.048971
N	 1.0246172466	 4.408555074	 0.5419823299	-0.3002
C	 1.3672427661	 3.6411344062	 1.6416625976	 0.061956
N	 1.5237594143	 2.3856869965	 1.4627903409	-0.239401
C	 1.188241456	 2.1386735084	 0.0459221126	-0.132723
H	-1.271690619	 3.4812374416	-1.6384683554	 0.125313
H	-1.4524544016	 3.7567816095	 0.1103409863	 0.114517
H	 1.0735469664	 3.7707630597	-1.472779858	 0.105954
H	 0.5184562041	 5.272840497	 0.6663569313	 0.247656
H	 1.5392484975	 4.1309224428	 2.5956201017	 0.136725
H	 2.05802883	 1.7347913102	-0.4783999854	 0.121022
54.6302	123.1373	233.7964	339.0581	463.5754	479.7538	554.9634	598.1107	669.0943	716.9543	780.8336	870.8452	889.7976	906.8819	949.2908	963.8556	1008.586	1043.2978	1072.4286	1093.1173	1127.299	1172.4342	1240.6653	1249.2357	1268.5244	1278.2283	1332.5263	1365.0362	1390.9575	1435.5042	1517.2594	1678.5625	1895.3318	3041.1602	3076.9886	3086.3583	3102.3334	3191.64	3612.8278
O=C1OCC2NC=NC12	O=C1OC[C@H]2N[CH][N][C@@H]12	
InChI=1S/C5H6N2O2/c8-5-4-3(1-9-5)6-2-7-4/h2-4H,1H2,(H,6,7)	InChI=1S/C5H6N2O2/c8-5-4-3(1-9-5)6-2-7-4/h2-4H,1H2,(H,6,7)/t3-,4-/m1/s1
