16
gdb 27553	5.59247	0.91292	0.82629	2.4497	72.26	-0.1853	0.0484	0.2338	1338.0513	0.124641	-437.890532	-437.882327	-437.881383	-437.92365	30.623	
O	-0.0331712665	 1.3532056325	 0.2532231253	-0.43526
C	 0.0289896565	 0.0193169743	 0.0099210769	 0.41319
C	 0.0394412065	-0.7334801257	-1.1390590745	-0.44273
C	 0.1232918189	-2.1044998956	-0.7232256714	 0.297577
C	 0.1541421042	-2.1251029515	 0.6484932214	-0.189662
N	 0.0992505192	-0.8142845579	 1.0864886733	-0.30207
C	 0.1719599038	-3.2888465106	-1.6044720401	-0.038811
C	 1.3156252835	-4.222524716	-1.6196542638	-0.170256
O	 0.0953226647	-4.5676059227	-0.9652476027	-0.234331
H	-0.0982766643	 1.8112571709	-0.5898451353	 0.308069
H	 0.0032482106	-0.3603012145	-2.1511772135	 0.086608
H	 0.1832622731	-2.9525774078	 1.3357085147	 0.132345
H	 0.0761983274	-0.5037329411	 2.041947104	 0.266412
H	-0.4140384368	-3.2172746782	-2.5225245807	 0.088934
H	 1.5422175691	-4.7964434815	-2.5182896984	 0.108742
H	 2.1585756501	-4.0231133246	-0.9601204951	 0.111243
62.4414	139.7876	162.3856	216.5837	279.4232	344.7991	404.5676	457.6789	477.4412	637.7171	646.5211	677.293	696.846	727.0848	751.5473	854.5753	890.052	974.1691	1003.8552	1031.9189	1096.0534	1114.7189	1143.0468	1160.6227	1171.1555	1185.356	1267.1677	1294.6975	1309.2287	1400.4147	1453.8825	1516.9552	1536.4974	1580.664	1638.8849	3075.7372	3091.0835	3170.0098	3241.7596	3288.8254	3686.5334	3850.9662
OC1=CC(=CN1)C1CO1	Oc1cc(c[nH]1)[C@H]1CO1	
InChI=1S/C6H7NO2/c8-6-1-4(2-7-6)5-3-9-5/h1-2,5,7-8H,3H2	InChI=1S/C6H7NO2/c8-6-1-4(2-7-6)5-3-9-5/h1-2,5,7-8H,3H2/t5-/m1/s1
