19
gdb 107827	3.2871	1.51644	1.30664	1.2161	73.77	-0.2296	0.0841	0.3138	1026.7014	0.159879	-422.978432	-422.97079	-422.969846	-423.010413	30.209	
C	 0.0692341693	 1.3631951028	-0.0502454429	-0.265205
O	-0.0766866922	-0.035197428	 0.108859023	-0.307666
C	 0.6226272889	-0.5725961897	 1.1859343479	 0.403201
C	 2.1922109632	-0.5765793182	 1.1425389791	-0.293003
C	 2.1486650263	-2.0536257696	 1.5391641106	-0.106817
C	 1.1332766158	-2.2406702608	 2.6492511024	 0.114652
O	 0.7849320817	-1.1288305696	 3.4525066798	-0.269756
C	 0.1464184741	-0.1788372239	 2.5962293841	-0.130326
C	 0.6430858832	-2.1233628021	 1.2528449039	-0.194322
H	 1.1247543891	 1.6552718553	-0.1450414654	 0.114634
H	-0.4544177788	 1.6331427319	-0.9698361803	 0.131212
H	-0.3737966969	 1.9246186767	 0.7842865303	 0.114038
H	 2.5370186219	-0.4535062079	 0.1127226333	 0.109198
H	 2.7254288694	 0.1155909672	 1.8029106736	 0.095311
H	 2.913212952	-2.7939311257	 1.3321871856	 0.085821
H	 1.1172610684	-3.1803803612	 3.1876318249	 0.104362
H	 0.4604940772	 0.8225796698	 2.907189111	 0.103659
H	-0.9497797877	-0.2540000727	 2.6669661128	 0.094906
H	 0.0268781452	-2.8092450044	 0.6881083162	 0.096101
98.4793	182.7614	204.9135	232.8115	345.6457	378.3488	428.4795	490.7371	597.5785	647.7849	720.0848	757.1554	790.4277	844.6225	901.247	926.7401	953.3483	976.6432	1013.8495	1020.9699	1033.2636	1068.1889	1080.3037	1108.471	1130.2788	1153.8196	1181.7547	1196.753	1200.3486	1219.3911	1238.0644	1260.8249	1281.9833	1310.5932	1373.9825	1403.9533	1479.1005	1487.7487	1493.0306	1507.18	1514.3408	2985.9556	2991.7563	3039.5945	3044.1333	3075.6119	3106.8686	3121.4599	3171.5246	3193.8765	3211.8494
COC12CC3C(OC1)C23	CO[C@@]12C[C@H]3[C@@H](OC1)[C@@H]23	
InChI=1S/C7H10O2/c1-8-7-2-4-5(7)6(4)9-3-7/h4-6H,2-3H2,1H3	InChI=1S/C7H10O2/c1-8-7-2-4-5(7)6(4)9-3-7/h4-6H,2-3H2,1H3/t4-,5+,6-,7+/m1/s1
