14
gdb 133265	3.14686	1.46864	1.0076	1.5068	72.22	-0.2379	-0.0604	0.1775	1092.4972	0.099552	-477.933211	-477.925399	-477.924455	-477.966211	28.349	
C	 0.0314905929	 1.4454885516	 0.2055852286	-0.325492
N	 0.0217534329	 0.0008562422	 0.0333009451	-0.319523
C	 0.508071832	-0.5817238477	-0.9956049053	 0.19797
C	 0.4766712123	-2.0283906103	-1.1255831999	-0.194038
C	 0.9898562943	-2.6238869999	-2.2085047132	 0.094535
O	 1.5644827159	-1.9701038417	-3.2464969934	-0.237182
N	 1.6404033734	-0.5899360978	-3.2128523345	-0.118257
C	 1.1573259363	 0.006905103	-2.1885286485	 0.282034
F	 1.2725191348	 1.3267438164	-2.2401698346	-0.049596
H	 1.0466727747	 1.8600742459	 0.2169098966	 0.128365
H	-0.5241366719	 1.9659430035	-0.5837455942	 0.128385
H	-0.4411739187	 1.6761055752	 1.1632733168	 0.123443
H	 0.0309277567	-2.6111612675	-0.3304187155	 0.135303
H	 1.0092556744	-3.6917329329	-2.3876214381	 0.154054
53.3322	108.1119	230.1403	241.8403	333.7246	369.485	401.1067	443.0797	527.2019	583.488	599.0106	702.8187	761.0109	840.5268	886.4216	960.3964	977.2646	1025.3222	1045.9887	1091.8667	1165.6525	1220.1411	1248.5058	1366.6455	1424.7161	1431.4607	1486.9802	1505.775	1636.362	1672.0092	1712.0117	3013.9675	3072.066	3105.8609	3217.6286	3236.2053
CN=C1C=CON=C1F	CN=c1cconc1F	
InChI=1S/C5H5FN2O/c1-7-4-2-3-9-8-5(4)6/h2-3H,1H3	InChI=1S/C5H5FN2O/c1-7-4-2-3-9-8-5(4)6/h2-3H,1H3
