23
gdb 90028	2.9876	1.11866	0.96897	1.2524	86.35	-0.2512	0.0761	0.3273	1346.1311	0.205275	-388.274493	-388.2651	-388.264156	-388.308522	36.44	
C	-1.1134676405	 0.9478695103	-0.10931772	-0.406667
C	 0.0243181021	-0.0425348823	 0.0823872933	 0.059547
C	 1.2969396961	 0.0987349057	-0.8004505389	-0.289249
C	 2.1599390817	-0.2288650343	 0.4492062481	 0.361506
C	 2.8539233283	-1.6188005274	 0.4645576583	-0.290057
C	 4.1819561451	-0.913548843	 0.0744681722	-0.264186
C	 3.5543434818	 0.4100778516	 0.5894506148	 0.069498
O	 3.7269036651	 1.6011679406	-0.1424297288	-0.43432
C	 0.9366393603	 0.0914585651	 1.3355662151	-0.326092
H	-0.7482841266	 1.9794816836	-0.0465274479	 0.112155
H	-1.5906406769	 0.8232902243	-1.0882054836	 0.110791
H	-1.8876410938	 0.8207783066	 0.6562266432	 0.109654
H	-0.3612186	-1.0663184709	 0.0168088276	 0.06651
H	 1.3936066798	-0.5598760782	-1.6686793109	 0.087167
H	 1.4545594839	 1.1318958994	-1.122964368	 0.114318
H	 2.8950762453	-2.0436787586	 1.4726247013	 0.096791
H	 2.4667789558	-2.3785147047	-0.2189405403	 0.098828
H	 5.110295868	-1.2625975924	 0.5337154547	 0.088135
H	 4.3096797779	-0.8690229819	-1.0107099249	 0.108224
H	 3.7944550989	 0.5619391645	 1.6539200105	 0.060264
H	 4.6166845281	 1.9311261857	 0.0159828416	 0.282886
H	 0.9685029267	 1.1252952479	 1.6989559736	 0.097309
H	 0.7434110928	-0.5717504513	 2.1844009191	 0.086989
65.2621	108.8346	187.3315	231.054	238.9874	253.3494	276.1532	331.3222	389.8693	434.6867	484.6627	551.5121	642.3797	727.9425	777.33	835.3971	855.5756	882.7682	898.7146	920.6006	938.7528	949.9435	962.0025	1035.2925	1070.771	1107.8054	1121.9489	1139.8721	1157.1778	1177.8132	1199.0223	1211.0585	1232.1194	1239.5139	1248.9517	1263.876	1278.2441	1289.6963	1302.2132	1334.0873	1375.2478	1409.7612	1425.6031	1469.8458	1478.4591	1491.6442	1495.3813	1496.6667	1501.8118	2969.6997	3019.3685	3030.6221	3033.6818	3046.9678	3049.1257	3056.8829	3084.0127	3085.8101	3090.5248	3097.3844	3105.6962	3116.1786	3821.045
CC1CC2(CCC2O)C1	C[C@H]1C[C@]2(CC[C@H]2O)C1	
InChI=1S/C8H14O/c1-6-4-8(5-6)3-2-7(8)9/h6-7,9H,2-5H2,1H3	InChI=1S/C8H14O/c1-6-4-8(5-6)3-2-7(8)9/h6-7,9H,2-5H2,1H3/t6-,7-,8+/m1/s1
