23
gdb 57844	2.34603	1.1585	1.04324	2.7763	81.79	-0.2493	-0.0245	0.2248	1334.0376	0.201871	-425.455724	-425.444546	-425.443602	-425.491732	41.482	
C	-0.6595529608	 1.8600156183	 0.6639454372	-0.402457
C	-0.3107985179	 0.3825689167	 0.3979345487	 0.052046
O	 0.456958468	-0.1350444215	 1.4601383834	-0.436488
C	-1.5957086244	-0.4569759695	 0.2596299664	 0.36341
O	-2.0135715375	-0.9954637116	 1.2651379038	-0.347033
C	-2.2726141023	-0.6757053211	-1.101749717	 0.145329
C	-3.7288660814	-1.1173602641	-0.8862283632	-0.401283
C	-2.2277923454	 0.5669863466	-2.0091847206	-0.423016
C	-1.4756171615	-1.8263767907	-1.7702597048	-0.407529
H	 0.2669741544	 2.3988517439	 0.8771677666	 0.133221
H	-1.1553748005	 2.3388659718	-0.1838163892	 0.117326
H	-1.3099369362	 1.935967235	 1.5410551629	 0.127057
H	 0.2893535612	 0.3090193487	-0.5168398823	 0.087569
H	-0.1860535203	-0.5628798787	 2.0467755038	 0.288399
H	-4.3163953438	-0.3222561941	-0.4168341162	 0.116188
H	-4.1924989552	-1.3609649799	-1.8474525535	 0.107047
H	-3.7807384182	-1.9935711788	-0.2378785405	 0.135131
H	-1.2073701068	 0.9107549634	-2.2000991005	 0.122135
H	-2.6756944919	 0.3236426351	-2.9782049415	 0.11913
H	-2.7975911217	 1.3985916658	-1.5837796606	 0.123807
H	-1.5053010956	-2.7313946372	-1.1569394706	 0.133875
H	-1.9181211788	-2.0578020219	-2.7446019487	 0.121639
H	-0.4274671033	-1.5574849763	-1.9339203236	 0.124498
39.1922	80.3258	188.6434	201.9188	209.4911	224.8074	248.9332	263.6627	294.2227	321.2592	338.4066	373.9713	383.5872	422.6983	467.4766	490.4176	586.4867	741.1672	765.5448	823.3617	906.0087	936.4055	946.6941	964.3647	1000.7891	1020.7498	1045.8955	1075.9958	1084.0271	1152.7547	1216.6029	1248.8908	1266.771	1304.9026	1338.773	1392.0253	1396.1068	1400.5018	1429.7572	1441.8762	1477.1781	1483.6982	1485.9979	1492.2605	1495.7606	1500.1379	1506.7735	1520.2047	1775.5148	3033.6265	3034.8162	3038.4901	3044.087	3046.5655	3100.3519	3104.4951	3108.8315	3114.0916	3117.03	3121.8103	3134.4247	3137.7355	3701.8729
CC(O)C(=O)C(C)(C)C	C[C@@H](O)C(=O)C(C)(C)C	
InChI=1S/C7H14O2/c1-5(8)6(9)7(2,3)4/h5,8H,1-4H3	InChI=1S/C7H14O2/c1-5(8)6(9)7(2,3)4/h5,8H,1-4H3/t5-/m1/s1
