20
gdb 96028	2.68605	1.15782	0.90937	4.5702	78.68	-0.2583	0.0352	0.2935	1311.6173	0.171978	-403.172337	-403.163286	-403.162342	-403.206737	33.067	
C	-0.4850800162	 1.446427304	-0.0635752935	-0.427569
C	 0.0258019469	 0.0070776179	-0.0128175065	-0.01604
C	 1.1110794471	-0.3174278992	-1.071384311	-0.077043
O	 2.0622743148	-1.1832172691	-0.4531404873	-0.258323
C	 1.5158945282	-1.6504045676	 0.7733318035	-0.091519
C	 0.6865981878	-0.4757284128	 1.3051042217	-0.023044
C	 1.5877267832	 0.5916088047	 1.9687027047	-0.355852
C	 2.1784909255	 0.1111874462	 3.2157665219	 0.264145
N	 2.6328627397	-0.2868635628	 4.2011311851	-0.308883
H	 0.325837772	 2.173085529	 0.051332129	 0.122667
H	-0.9651991361	 1.6478729109	-1.0266461472	 0.12502
H	-1.2275892703	 1.6370509686	 0.7183028781	 0.123211
H	-0.8274779674	-0.6595906471	-0.1845292762	 0.088437
H	 0.6745290183	-0.7991309521	-1.9568456842	 0.101199
H	 1.6400127079	 0.5831065275	-1.4081813418	 0.102104
H	 0.8736983357	-2.5314946247	 0.6148116777	 0.093163
H	 2.3444574355	-1.9426128191	 1.4242382056	 0.130641
H	-0.065028573	-0.8029161186	 2.0287541604	 0.093893
H	 2.3975673744	 0.873396329	 1.2864562884	 0.163631
H	 1.018932856	 1.5002628254	 2.1893087217	 0.150159
68.333	76.9197	139.5517	168.6135	219.6342	267.1483	333.1808	369.0464	399.8019	478.3425	535.9061	640.9296	697.4869	836.2688	857.4153	907.4781	935.8501	952.0405	961.6374	970.8593	1006.0979	1066.1452	1083.7554	1120.4489	1164.2021	1177.9344	1218.0553	1220.537	1250.5751	1269.6047	1322.2525	1333.2622	1353.9777	1373.2545	1385.2092	1407.9965	1421.151	1466.5072	1499.3197	1507.9476	1518.3406	1532.1619	2360.4103	2977.1452	3005.2099	3025.9327	3034.0641	3047.7292	3051.2025	3075.2706	3094.7492	3096.6363	3100.5332	3105.3792
CC1COCC1CC#N	C[C@H]1COC[C@H]1CC#N	
InChI=1S/C7H11NO/c1-6-4-9-5-7(6)2-3-8/h6-7H,2,4-5H2,1H3	InChI=1S/C7H11NO/c1-6-4-9-5-7(6)2-3-8/h6-7H,2,4-5H2,1H3/t6-,7+/m0/s1
