21
gdb 95323	2.57311	1.69923	1.47408	1.7003	75.99	-0.2386	0.0704	0.309	999.9574	0.186413	-424.24313	-424.235688	-424.234744	-424.274551	31.056	
O	 0.0828580031	 1.4209465609	-0.1868861274	-0.450293
C	 0.0450957178	 0.0101096533	-0.0063308037	 0.135651
C	 0.788212805	-0.4166965034	 1.2660999741	-0.121644
O	 0.0199676067	-0.1791226172	 2.4404783058	-0.283506
C	-1.3138947386	-0.70519708	 2.3727590496	 0.131799
C	-1.3634606515	-2.1654691134	 1.868813161	-0.237135
C	-1.4329395549	-2.0471931416	 0.3138225996	-0.232151
C	-1.4065468417	-0.5221993732	 0.0322819901	-0.019482
C	-2.0960107279	 0.0455815349	 1.2874631913	-0.233689
H	-0.0784533703	 1.8254574604	 0.6723513155	 0.285565
H	 0.566014654	-0.4089873906	-0.8755306128	 0.080808
H	 1.0792362581	-1.4748496871	 1.1970203393	 0.092196
H	 1.7036205224	 0.1721850964	 1.373887333	 0.11224
H	-1.7127922564	-0.5872991728	 3.3825128114	 0.074378
H	-0.5059750158	-2.7412706595	 2.2256882347	 0.110695
H	-2.2597021631	-2.6512173059	 2.2650247154	 0.101953
H	-0.6124372459	-2.5739539765	-0.1838231105	 0.098753
H	-2.3625094184	-2.4804200653	-0.0665124097	 0.100676
H	-1.9087728401	-0.2531355583	-0.8997498503	 0.068786
H	-3.1575867927	-0.2257106982	 1.310804466	 0.093264
H	-2.0245827898	 1.1314973569	 1.3866173376	 0.091136
135.9038	218.1849	267.4292	327.6938	371.7332	386.8401	442.2979	465.403	497.8605	641.7106	747.4467	773.7844	797.0712	817.4943	859.3167	892.4336	896.544	927.0107	944.2059	959.1593	1020.0379	1034.3345	1050.6684	1062.8138	1107.3127	1111.6201	1174.3556	1183.3675	1214.1026	1230.9996	1261.7316	1264.7041	1290.039	1304.2873	1325.3776	1335.9457	1349.4072	1366.021	1379.6554	1406.4229	1427.7922	1483.5361	1492.2224	1501.2456	1516.9502	2999.5714	3041.5075	3044.4865	3047.8873	3062.5889	3079.497	3086.5611	3087.7867	3092.6583	3101.5248	3109.8191	3807.6788
OC1COC2CCC1C2	O[C@H]1CO[C@@H]2CC[C@H]1C2	
InChI=1S/C7H12O2/c8-7-4-9-6-2-1-5(7)3-6/h5-8H,1-4H2	InChI=1S/C7H12O2/c8-7-4-9-6-2-1-5(7)3-6/h5-8H,1-4H2/t5-,6+,7-/m0/s1
