17
gdb 79308	3.99045	1.22306	1.13931	4.9369	78.37	-0.2641	0.0008	0.2649	1110.019	0.137202	-380.819506	-380.811941	-380.810997	-380.851508	29.192	
C	 0.0740918343	 1.6393634338	-0.0139512467	-0.433314
C	 0.0865737171	 0.1177231715	 0.0217169643	 0.023298
C	 0.7343200953	-0.7008942175	-1.1004717239	-0.107802
N	 2.188048251	-0.9386489126	-0.8176321288	-0.175165
C	 2.4426676062	-0.2687137608	 0.5054944262	-0.159404
C	 1.0377539865	-0.6685242743	 0.9782192756	-0.15748
C	 1.1357557159	-1.7764507234	-0.1503761154	 0.307416
C	 1.0452078914	-3.1896891514	-0.1713394914	 0.123183
N	 0.9469345266	-4.3431286309	-0.152823065	-0.355017
H	 1.0621117323	 2.0639611192	-0.2089917296	 0.127414
H	-0.596197658	 1.9948124251	-0.8035775706	 0.12835
H	-0.2896630651	 2.0470407709	 0.9353849533	 0.125412
H	-0.9305129544	-0.2628528455	 0.163488023	 0.09636
H	 0.4324293335	-0.8087517505	-2.1342064397	 0.122098
H	 3.2381797722	-0.8191392381	 1.0116740209	 0.128378
H	 2.7023882342	 0.792089343	 0.4481905598	 0.10998
H	 0.7835160313	-0.8213140587	 2.0244670179	 0.096294
115.5627	146.8718	180.1869	260.9553	295.9891	441.6743	469.3708	535.29	570.8663	619.6216	673.2738	744.9696	788.8609	853.1288	915.8226	927.0688	934.4258	989.0856	1012.2066	1044.9675	1069.3739	1082.8008	1100.8049	1134.4727	1159.7762	1186.6896	1207.636	1247.0225	1295.366	1306.4718	1380.129	1399.0186	1418.1828	1491.7941	1495.9828	1520.1667	2346.0708	3038.3338	3055.7304	3063.7052	3100.5208	3118.2263	3125.7185	3150.1582	3210.5209
CC1C2N3CC1C23C#N	C[C@H]1[C@H]2N3C[C@@H]1[C@@]23C#N	
InChI=1S/C7H8N2/c1-4-5-2-9-6(4)7(5,9)3-8/h4-6H,2H2,1H3	InChI=1S/C7H8N2/c1-4-5-2-9-6(4)7(5,9)3-8/h4-6H,2H2,1H3/t4-,5+,6-,7+,9?/m1/s1
