20
gdb 81265	2.51914	1.54031	1.30421	3.3979	79.41	-0.2154	-0.0074	0.208	1088.1668	0.171162	-403.132736	-403.12437	-403.123426	-403.165269	32.636	
C	 0.0585631299	 1.5966728509	 0.0241826059	-0.415714
C	 0.0534588309	 0.0731400705	-0.0679139232	-0.085095
C	 0.9264063597	-0.5544129454	-1.1785347069	-0.007397
C	 0.97087254	-2.0548882518	-0.7834084036	-0.262321
C	 1.8291194585	-1.4559178712	 0.368401865	-0.115586
N	 2.2979987256	-0.3560593304	-0.5700344868	-0.109876
C	 3.4349846766	-0.6963274469	-1.4140921885	-0.330158
C	 0.7825700353	-0.6194717239	 1.1131090643	 0.465189
O	 0.5857215267	-0.5043544572	 2.2906514368	-0.344093
H	 1.0826069254	 1.9741101682	-0.033353914	 0.135762
H	-0.5280289583	 2.0434133148	-0.7850274261	 0.109364
H	-0.3731271686	 1.9170516174	 0.9767638999	 0.134429
H	-0.9766639795	-0.300360881	-0.1164952528	 0.092804
H	 0.774116058	-0.2147989918	-2.2039673299	 0.073913
H	 0.0330857976	-2.5612947953	-0.5336777513	 0.105966
H	 1.5541490329	-2.6728699553	-1.4654024668	 0.116889
H	 2.5631311378	-2.0063740418	 0.9541856888	 0.085808
H	 3.3858150261	-1.6778171511	-1.9141046118	 0.097334
H	 3.5347500807	 0.0708438099	-2.1889919277	 0.124911
H	 4.3452016946	-0.6747667087	-0.8064946613	 0.12787
120.7688	182.5616	205.5216	211.4563	226.6492	290.7108	336.8379	450.2035	458.0589	535.1328	618.666	680.0735	754.3396	784.8646	798.0392	856.2921	881.3801	902.1464	959.094	995.9051	1034.253	1037.3195	1079.8751	1120.4561	1126.2283	1150.0719	1159.504	1181.8285	1191.1234	1225.9044	1247.5607	1275.9182	1283.374	1304.9233	1348.0702	1397.7444	1449.8473	1482.2146	1491.1039	1501.7066	1506.5528	1514.0861	1880.4782	2965.4059	3037.1692	3040.7084	3057.8927	3063.326	3101.4001	3107.95	3109.2496	3127.3979	3137.4537	3144.4893
CC1C2CC(N2C)C1=O	C[C@H]1[C@@H]2C[C@@H](N2C)C1=O	
InChI=1S/C7H11NO/c1-4-5-3-6(7(4)9)8(5)2/h4-6H,3H2,1-2H3	InChI=1S/C7H11NO/c1-4-5-3-6(7(4)9)8(5)2/h4-6H,3H2,1-2H3/t4-,5-,6+/m0/s1
