17
gdb 47348	2.98341	1.2724	0.93383	3.2613	77.08	-0.2409	0.0178	0.2587	1219.4268	0.136836	-417.969733	-417.96149	-417.960546	-418.002811	31.286	
N	-0.0525769584	 1.2947351446	 0.2229376602	-0.501066
C	-0.011053231	 0.064828789	-0.0649183081	 0.407675
C	-1.2750621261	-0.7660476221	-0.0918532512	-0.240055
N	-1.1777928107	-1.8453361577	-1.0706408388	-0.314361
C	-0.0139092455	-2.670810084	-0.7912559396	-0.187713
C	 1.2203902388	-1.7990297822	-1.0329860709	-0.045759
O	 1.1787124865	-0.587128161	-0.2437638219	-0.266104
C	 2.4613244639	-2.4932874033	-0.7172680092	 0.319617
C	 3.4695169977	-3.0991039722	-0.4761583026	-0.42792
H	 0.8940333414	 1.680229441	 0.2505140762	 0.22228
H	-1.4330808562	-1.1394756332	 0.9384661797	 0.109009
H	-2.1049563317	-0.101881903	-0.3353861734	 0.140512
H	-2.0241913439	-2.4022669863	-1.0571616025	 0.230788
H	 0.0213778821	-3.06208758	 0.2415015168	 0.100628
H	 0.0183192362	-3.5193423843	-1.4798554617	 0.122237
H	 1.2192181145	-1.5015719817	-2.090329541	 0.125231
H	 4.3671644723	-3.6255461935	-0.262738192	 0.205001
84.2821	109.7294	143.986	236.1867	343.6568	396.1957	414.8789	456.1485	512.4947	520.041	574.3304	635.7005	654.6607	685.5944	767.6915	871.1855	914.7423	925.661	971.0729	1009.1397	1026.2077	1083.0481	1103.461	1124.3325	1167.7203	1219.9003	1277.3539	1291.2824	1323.4597	1346.9912	1374.4119	1421.533	1481.036	1483.915	1497.2018	1758.1943	2247.9669	2918.7533	2945.3418	3018.7656	3094.7779	3125.4592	3462.279	3502.5543	3540.676
N=C1CNCC(O1)C#C	[NH][C]1CNC[C@@H](O1)C#C	
InChI=1S/C6H8N2O/c1-2-5-3-8-4-6(7)9-5/h1,5,7-8H,3-4H2	InChI=1S/C6H8N2O/c1-2-5-3-8-4-6(7)9-5/h1,5,7-8H,3-4H2/t5-/m0/s1
