15
gdb 24057	3.64689	1.0204	0.97915	2.574	72.96	-0.2068	0.0125	0.2193	1232.7779	0.1131	-416.786856	-416.778712	-416.777768	-416.820979	29.533	
C	 0.2903719333	-0.1912283455	-1.1144453157	-0.453005
C	 0.157265982	 0.5286467811	-0.1612087035	 0.309523
C	 0.0527127856	 1.4081030043	 1.0047448373	-0.332752
N	 1.2651608544	 2.1973190319	 1.2833020442	-0.387516
C	 1.5771925953	 3.2311868881	 0.4180524345	 0.398501
C	 2.7140999556	 3.6831590013	-0.1755512673	-0.206296
N	 2.4282850732	 4.8693739089	-0.8484926894	-0.247573
C	 1.1713690027	 5.0596093986	-0.6495897577	 0.067719
O	 0.5723509446	 4.1059472091	 0.1245795838	-0.175514
H	 0.3953882966	-0.8229800384	-1.9617996456	 0.206067
H	-0.776096819	 2.1099761435	 0.8783020514	 0.165652
H	-0.1687344198	 0.8181969649	 1.900204523	 0.143417
H	 2.0711064108	 1.605121599	 1.4371230415	 0.25039
H	 3.7009011874	 3.2504761345	-0.168543913	 0.114025
H	 0.5340409773	 5.8479125184	-1.0154442936	 0.147362
38.6518	51.7762	178.526	196.9232	329.8388	332.6002	423.7626	579.4504	616.2785	630.3929	664.3575	668.3715	712.408	736.9934	789.1551	794.2076	932.0004	937.2704	971.0631	999.81	1079.5617	1107.7466	1123.23	1231.1988	1267.463	1295.8556	1361.5833	1391.4976	1471.8969	1475.2598	1572.3217	1652.9863	2233.9063	3056.1792	3101.2246	3269.3995	3285.6039	3504.2562	3580.3521
C#CCNC1=CN=CO1	C#CCNc1cnco1	
InChI=1S/C6H6N2O/c1-2-3-8-6-4-7-5-9-6/h1,4-5,8H,3H2	InChI=1S/C6H6N2O/c1-2-3-8-6-4-7-5-9-6/h1,4-5,8H,3H2
