21
gdb 111551	2.56731	1.56737	1.18631	0.9975	82.69	-0.2382	0.0898	0.328	1138.0595	0.182301	-387.03765	-387.029023	-387.028079	-387.070788	33.188	
C	 0.0219768585	 1.2983603817	-0.3522974968	-0.239239
O	 0.0109030238	 0.0040527353	 0.2067123971	-0.254177
C	-1.2444728417	-0.6236425131	 0.1377211006	 0.120979
C	-1.7216225106	-1.2686443434	-1.1989528065	-0.124136
C	-0.5589761508	-2.2201543377	-1.5864063584	-0.229855
C	-0.9336317401	-3.0068936794	-0.3318058634	-0.106562
C	-2.3299976296	-2.4265374111	-0.3136117213	-0.135649
C	-1.3414052717	-2.0040044195	 0.7590096471	 0.307357
C	-1.3189623398	-2.3406173499	 2.2201242614	-0.515305
H	 1.0235976544	 1.7101918073	-0.2064743048	 0.125191
H	-0.2002833345	 1.2867974219	-1.4299787728	 0.106504
H	-0.7083502739	 1.9595086408	 0.1409447693	 0.102279
H	-2.0272833972	 0.037453009	 0.5444926244	 0.055866
H	-2.2528551215	-0.6851306265	-1.9478459868	 0.065053
H	-0.789991539	-2.7850313193	-2.4938440339	 0.092595
H	 0.4424045759	-1.7836519876	-1.6535938294	 0.099728
H	-0.63225184	-4.0093352645	-0.0539113057	 0.080592
H	-3.3113535073	-2.8714873392	-0.2419957457	 0.087458
H	-1.5827160449	-3.3901723616	 2.3888653026	 0.116362
H	-0.3237652513	-2.1747894816	 2.6471305912	 0.130037
H	-2.0308524287	-1.7245871715	 2.7814826516	 0.114923
81.0595	160.9706	168.2763	204.5518	225.126	270.1613	296.2348	394.8162	505.4253	562.5897	615.9861	732.1242	786.7847	813.6675	839.5284	867.007	898.9315	932.0378	968.8495	990.2509	994.3066	1027.4282	1040.5695	1061.9275	1095.8579	1111.9896	1143.3167	1155.1264	1165.9015	1183.7004	1204.2686	1226.0596	1240.9989	1269.5661	1285.1588	1327.0279	1377.8554	1413.1405	1441.3256	1481.1552	1486.8839	1488.762	1492.8343	1499.7879	1508.6898	2967.9	2976.5143	3019.6201	3024.371	3047.3939	3085.8358	3094.5284	3103.2337	3112.1554	3135.7159	3189.0778	3226.3849
COC1C2CC3C2C13C	CO[C@H]1[C@H]2C[C@@H]3[C@H]2[C@]13C	
InChI=1S/C8H12O/c1-8-5-3-4(6(5)8)7(8)9-2/h4-7H,3H2,1-2H3	InChI=1S/C8H12O/c1-8-5-3-4(6(5)8)7(8)9-2/h4-7H,3H2,1-2H3/t4-,5+,6-,7-,8+/m0/s1
