17
gdb 98822	3.01325	1.189	0.86652	3.0844	73.07	-0.2568	-0.0179	0.2389	1283.6218	0.135385	-455.160135	-455.151044	-455.1501	-455.194685	32.099	
O	 0.0250223503	 1.3863230219	 0.0099391812	-0.393033
C	-0.0372887216	-0.0166182177	 0.0031470488	-0.138856
C	-1.4862412425	-0.4596752252	 0.0121894021	 0.34946
N	-2.4498051145	 0.367224355	 0.0244026255	-0.4831
N	-1.6416482178	-1.8512311123	 0.0057129571	-0.141756
C	-2.8686379905	-2.6648923225	 0.0112356012	-0.186289
C	-1.9621804778	-3.9272691217	-0.0022695887	-0.376657
C	-0.7756558189	-2.9468314148	-0.0062254078	 0.424197
O	 0.4220100871	-3.022200487	-0.0156987523	-0.354841
H	 0.9550917969	 1.6303291597	 0.0056646824	 0.291605
H	 0.4481758572	-0.4598781736	-0.8807378389	 0.121342
H	 0.4618978738	-0.4690161639	 0.8746679424	 0.121361
H	-3.3530608354	-0.1109186092	 0.0288934537	 0.215015
H	-3.4748106808	-2.5304715462	 0.9116011057	 0.130761
H	-3.4889152819	-2.5213648842	-0.878042464	 0.130765
H	-2.0168276839	-4.5578889494	 0.8864175053	 0.145007
H	-2.0304732797	-4.5486263988	-0.8965219438	 0.14502
70.1119	82.5746	135.3538	154.7117	200.1175	220.6752	292.752	372.8592	395.721	524.7188	560.6077	590.3212	761.9813	775.644	816.4785	886.3774	918.085	974.4167	1036.4467	1047.7067	1050.8577	1121.6899	1153.9605	1154.6187	1193.0396	1225.5818	1242.8955	1249.9549	1271.5516	1347.1483	1363.2311	1460.473	1477.2408	1495.9975	1524.07	1726.4198	1875.3987	2981.4911	3002.4848	3053.2271	3093.1145	3102.8118	3150.313	3455.3582	3836.6231
OCC(=N)N1CCC1=O	OC[C]([NH])N1CCC1=O	
InChI=1S/C5H8N2O2/c6-4(3-8)7-2-1-5(7)9/h6,8H,1-3H2	InChI=1S/C5H8N2O2/c6-4(3-8)7-2-1-5(7)9/h6,8H,1-3H2
