13
gdb 125663	3.5101	1.78549	1.19226	4.7655	64.78	-0.257	-0.0353	0.2218	941.6753	0.091629	-445.079639	-445.0728	-445.071855	-445.110954	25.158	
C	-0.0252355241	 1.4883026858	 0.0236363081	-0.487066
C	 0.000410646	 0.0057829896	-0.0019164106	 0.372482
N	-0.006191579	-0.7498651881	-1.0708567617	-0.239965
N	 0.02501877	-2.0533351101	-0.6319320398	-0.347627
C	 0.0509189438	-2.0986753667	 0.7188923442	 0.542277
N	 0.0845627828	-2.9032713011	 1.7662264739	-0.355291
N	 0.0890445273	-2.0401102713	 2.8237466466	-0.087487
N	 0.0606862535	-0.7865824598	 2.485564648	-0.1708
N	 0.0356024256	-0.8059545316	 1.1187987445	-0.018569
H	 0.8603492652	 1.8830127468	 0.5316052525	 0.163107
H	-0.0508299807	 1.8641278741	-0.999542421	 0.164677
H	-0.9047447344	 1.8519073728	 0.5643274868	 0.163106
H	 0.025623804	-2.8067738003	-1.2955051214	 0.301156
134.8201	182.6655	245.1934	261.8018	310.8284	430.8294	516.9205	643.7198	663.9648	693.0107	702.4304	775.0633	860.9977	996.6379	1000.9535	1068.9057	1093.9111	1105.6255	1177.9268	1183.2849	1313.6479	1348.1503	1407.8756	1430.9594	1442.3786	1472.8209	1484.6635	1606.7472	1642.2106	3049.3047	3106.8926	3158.8074	3706.5485
CC1=NNC2=NN=NN12	Cc1n[nH]c2nnnn12	
InChI=1S/C3H4N6/c1-2-4-5-3-6-7-8-9(2)3/h1H3,(H,5,6,8)	InChI=1S/C3H4N6/c1-2-4-5-3-6-7-8-9(2)3/h1H3,(H,5,6,8)
