18
gdb 79457	2.74415	1.78976	1.39657	2.2394	70.48	-0.2258	0.0609	0.2867	955.4979	0.14959	-439.016485	-439.00921	-439.008266	-439.047756	29.622	
O	 0.0765372862	 1.5118318939	 0.071874326	-0.434043
C	 0.0195343276	 0.1112980375	-0.0138199776	 0.127521
C	-1.3517700162	-0.5404535234	-0.129766167	-0.03361
C	-1.9926705829	-0.2913314224	-1.5522810455	-0.087394
C	-1.8649552345	-1.8171983641	-1.7210699873	-0.162478
N	-0.6702654641	-1.7420571711	-0.8043168862	-0.165268
C	 0.2295588334	-0.6215194396	-1.3669376727	-0.122381
C	-0.7268094397	 0.1699023477	-2.2933223604	 0.157947
O	-0.7573719845	-0.2343143896	-3.6509996768	-0.455753
H	 0.9840619767	 1.7700333361	 0.2595808043	 0.288111
H	 0.5843543216	-0.3792592101	 0.7874927031	 0.089384
H	-2.0139022457	-0.7275717538	 0.7163081243	 0.078288
H	-2.9151131003	 0.2662501172	-1.7130180745	 0.068428
H	-2.6483028903	-2.3832095971	-1.2093864059	 0.10189
H	-1.6880394019	-2.2195002678	-2.7188594088	 0.122776
H	 1.207078512	-0.917902554	-1.7491290453	 0.06252
H	-0.5608677935	 1.2482398509	-2.207298509	 0.0823
H	 0.0461677262	 0.0837424697	-4.0726589006	 0.281764
206.6504	212.4388	237.1269	259.197	314.9525	339.388	504.8863	548.7609	573.4645	715.5984	732.1405	756.409	825.7332	843.1333	863.0944	923.9686	948.8005	979.2206	983.898	1003.2115	1038.1678	1043.2872	1112.6924	1131.5904	1151.0786	1158.4609	1178.1338	1189.4447	1208.9785	1224.8618	1245.5812	1274.8792	1287.4035	1296.2636	1326.6543	1339.9646	1435.4909	1440.9472	1504.8342	3040.686	3059.4441	3065.4973	3109.1082	3110.2765	3121.4664	3138.6864	3824.86	3831.506
OC1C2C3CN2C1C3O	O[C@H]1[C@H]2[C@@H]3CN2[C@H]1[C@H]3O	
InChI=1S/C6H9NO2/c8-5-2-1-7-3(2)6(9)4(5)7/h2-6,8-9H,1H2	InChI=1S/C6H9NO2/c8-5-2-1-7-3(2)6(9)4(5)7/h2-6,8-9H,1H2/t2-,3+,4-,5-,6-/m0/s1
