19
gdb 94947	3.20319	1.3135	1.03133	4.3031	74.56	-0.2674	0.0117	0.2792	1177.6747	0.160933	-423.074835	-423.066916	-423.065972	-423.107526	30.396	
C	-0.3708602825	 1.379906505	 0.0097278793	-0.418877
C	 0.1091043604	-0.0709027941	 0.0344837122	 0.015672
C	 0.9111394825	-0.5025564463	-1.215459263	-0.203862
C	 1.6931468246	-1.7609908128	-0.7829990455	-0.25113
C	 2.0544141425	-1.4757895609	 0.6944810852	-0.224005
C	 1.0592921481	-0.4088869002	 1.196811846	 0.11683
O	 0.5112820327	-1.3742248184	 2.1680860822	-0.260384
C	 1.3870620221	-2.3515202994	 1.7588963386	 0.447349
O	 1.4774173587	-3.4620248887	 2.1733315825	-0.327184
H	 0.4756322775	 2.0732343413	-0.0580684716	 0.115898
H	-1.019743172	 1.5654723029	-0.8518243588	 0.120505
H	-0.9366144322	 1.6273734621	 0.9134436148	 0.126512
H	-0.7581518332	-0.7343077589	 0.1389851696	 0.097528
H	 0.2723457321	-0.6752947638	-2.0866043909	 0.106426
H	 1.6150520769	 0.2956364943	-1.4864736393	 0.101309
H	 1.0618743901	-2.6522427053	-0.8573089371	 0.122595
H	 2.5764538462	-1.9428318574	-1.3986833979	 0.113098
H	 3.1159769362	-1.2986324084	 0.8693759712	 0.108698
H	 1.4524739893	 0.4592650988	 1.7293012723	 0.093022
78.0752	131.4728	216.2464	233.1557	281.0281	322.9545	440.5973	465.2045	528.1386	653.0728	703.5889	786.8308	819.4249	836.4964	875.4065	894.5949	932.5117	960.8708	977.7794	994.7135	1053.949	1087.3633	1114.6225	1121.5265	1152.0788	1176.7821	1203.6953	1220.8406	1276.5604	1299.0471	1306.2442	1323.1308	1329.3936	1348.9183	1390.9073	1415.9757	1491.2058	1497.933	1501.8264	1505.8106	1934.0108	3020.9912	3029.5256	3038.1759	3056.9199	3088.0003	3093.6685	3098.4426	3104.5065	3107.0691	3119.9445
CC1CCC2C1OC2=O	C[C@H]1CC[C@H]2[C@@H]1OC2=O	
InChI=1S/C7H10O2/c1-4-2-3-5-6(4)9-7(5)8/h4-6H,2-3H2,1H3	InChI=1S/C7H10O2/c1-4-2-3-5-6(4)9-7(5)8/h4-6H,2-3H2,1H3/t4-,5-,6+/m0/s1
