18
gdb 108010	3.7154	1.56932	1.40329	0.9884	73.83	-0.2166	0.076	0.2926	968.282	0.148329	-401.835714	-401.828619	-401.827675	-401.867232	28.431	
C	 0.0544306829	 1.3560086363	 0.0790656725	-0.260456
O	-0.069539751	-0.0462896208	-0.0680140962	-0.297862
C	-1.3615426146	-0.5236787637	-0.0315363871	 0.413101
C	-2.5593312981	-0.0465984771	-0.891588144	-0.251554
N	-3.4455352627	-0.725356388	 0.1211290507	-0.156875
C	-3.0018078141	-2.1587780042	 0.1092739245	-0.023889
C	-2.1939628742	-2.0696327108	 1.3704106856	-0.107827
C	-1.4844791612	-2.0645187633	 0.0241548818	-0.145927
C	-2.3584451084	-0.5438952055	 1.2004598923	-0.098551
H	 1.1232580654	 1.5775074305	 0.1109090167	 0.131184
H	-0.3952910545	 1.8974671613	-0.7641024525	 0.116236
H	-0.4101408089	 1.7085361744	 1.0105347084	 0.112192
H	-2.7319424344	 1.0329288797	-0.8495904929	 0.104859
H	-2.6586535167	-0.4065371712	-1.9199640559	 0.102996
H	-3.6072220348	-2.9597968815	-0.2946134468	 0.094184
H	-2.1201011533	-2.7280751093	 2.2240105962	 0.096432
H	-0.8344678752	-2.8025530298	-0.4243585686	 0.094473
H	-2.4986670861	 0.2240339131	 1.9584535154	 0.077284
89.77	168.314	214.5247	326.1155	380.5562	467.3057	565.5893	610.1393	737.0401	770.1186	786.6201	813.5038	827.8649	855.7866	885.9944	909.6338	931.0456	974.6855	989.213	1031.9407	1038.9609	1052.6932	1080.8616	1086.6245	1113.1514	1134.8829	1176.4672	1179.9835	1194.0354	1209.9957	1231.8799	1254.5159	1262.0294	1327.6588	1359.6263	1483.7119	1491.5567	1495.5495	1505.9534	2995.9709	3046.7583	3053.2568	3109.3933	3123.7626	3133.8477	3194.9163	3211.0562	3223.8395
COC12CN3C4C(C14)C23	CO[C@@]12CN3[C@@H]4[C@@H]([C@H]14)[C@@H]23	
InChI=1S/C7H9NO/c1-9-7-2-8-5-3(4(5)7)6(7)8/h3-6H,2H2,1H3	InChI=1S/C7H9NO/c1-9-7-2-8-5-3(4(5)7)6(7)8/h3-6H,2H2,1H3/t3-,4+,5-,6+,7+/m1/s1
