12
gdb 15461	3.96251	1.83735	1.26525	4.4943	66.08	-0.2613	-0.0623	0.199	880.6369	0.083524	-381.355279	-381.348549	-381.347604	-381.386269	24.81	
O	-0.0173818506	-0.0044713849	 0.0040152984	-0.328334
C	 0.0236120666	 1.1885599378	 0.0095119168	 0.378793
O	-1.1000724194	 1.9754698842	 0.0272885553	-0.224728
C	-0.7389965288	 3.3526918223	 0.0298593007	-0.121253
C	 0.7563716314	 3.3686979439	 0.0116548657	-0.224723
C	 1.2116786548	 2.1080857492	-0.0003102295	 0.033706
C	 2.5386608693	 1.6282511761	-0.0189612474	 0.263101
C	 3.6626529759	 1.1993121709	-0.0348654449	-0.402957
H	-1.1777507716	 3.8429123887	-0.8490558581	 0.143148
H	-1.1560793508	 3.8339180192	 0.9241589918	 0.143151
H	 1.3448035395	 4.2760707694	 0.0090733073	 0.135872
H	 4.6522806635	 0.8135482632	-0.0488928761	 0.204222
139.8154	142.6321	217.6213	338.6931	406.2011	504.4942	531.7063	608.8988	627.8236	647.994	762.3023	789.8651	793.6374	844.8733	956.4731	1025.8099	1054.0676	1096.2211	1199.249	1210.397	1298.1007	1368.93	1491.1797	1675.363	1884.2527	2239.0821	3021.0373	3051.2571	3234.3253	3500.6455
O=C1OCC=C1C#C	O=C1OCC=C1C#C	
InChI=1S/C6H4O2/c1-2-5-3-4-8-6(5)7/h1,3H,4H2	InChI=1S/C6H4O2/c1-2-5-3-4-8-6(5)7/h1,3H,4H2
