18
gdb 67503	2.43252	1.64748	1.25357	2.8444	78.55	-0.227	-0.0372	0.1898	1056.8695	0.146236	-401.862463	-401.854179	-401.853234	-401.895367	31.387	
C	-0.1475241068	 1.5527044426	 0.0011461483	-0.469722
C	-0.0508367503	 0.0585766346	-0.064733005	 0.318271
C	-0.9641885546	-0.8392028755	 0.7954664924	-0.152559
C	-2.0750742851	-1.8188741068	 0.5883896596	 0.129754
O	-2.2597087513	-2.6232969855	-0.2939862905	-0.25996
C	 0.562848914	-0.9754103459	 0.8382898008	-0.155915
C	 1.2241300065	-1.566355443	-0.4123311314	-0.036168
C	 0.328210454	-1.9077877353	-1.5337307837	-0.281581
N	 0.6484741395	-0.4840165383	-1.2910111981	-0.182243
H	 0.8192837328	 2.0023237187	-0.2439157672	 0.137056
H	-0.8800443896	 1.9202479845	-0.7264426754	 0.13438
H	-0.4509847887	 1.8911835029	 0.9957869509	 0.118223
H	-1.2374308303	-0.2301193489	 1.65804292	 0.101185
H	-2.818507712	-1.7452823753	 1.4135976648	 0.087212
H	 1.0855112284	-0.8570785653	 1.7796821353	 0.102997
H	 2.2904377694	-1.7673807942	-0.4267054219	 0.104598
H	 0.8251541676	-2.2622228852	-2.4340230926	 0.119731
H	-0.6718064536	-2.287853784	-1.3731919063	 0.184741
78.8667	134.5265	188.3077	209.2321	253.354	318.0958	323.6683	468.5257	531.6322	595.4025	665.8506	689.6119	750.4081	792.3475	852.2726	877.8845	920.3042	925.0235	964.2026	995.0903	1043.8722	1056.1296	1071.7632	1102.4859	1109.5561	1149.2698	1161.7299	1198.917	1223.3903	1271.6842	1350.001	1361.5995	1412.7237	1451.4992	1465.9492	1474.6011	1495.5913	1518.4495	1808.7558	2874.5833	3033.9869	3099.1043	3102.8456	3116.5777	3118.8116	3162.0553	3185.7729	3233.9199
CC12C(C=O)C1C1CN21	C[C@]12[C@@H](C=O)[C@H]1[C@H]1CN21	
InChI=1S/C7H9NO/c1-7-4(3-9)6(7)5-2-8(5)7/h3-6H,2H2,1H3	InChI=1S/C7H9NO/c1-7-4(3-9)6(7)5-2-8(5)7/h3-6H,2H2,1H3/t4-,5+,6-,7-,8?/m0/s1
