18
gdb 50101	2.8032	1.13207	0.89987	4.9396	73.68	-0.2444	0.0088	0.2533	1298.3692	0.146603	-439.050707	-439.041938	-439.040994	-439.085118	31.366	
O	-0.1420613337	 0.7466485016	-0.8751971722	-0.296897
C	 0.0306776501	 1.8314484065	-0.3723727026	 0.119707
N	 1.1235463293	 2.1559053612	 0.4197511577	-0.058904
C	 2.4728441217	 1.7203409557	 0.1548277254	-0.254369
C	 2.1209720118	 3.1822123274	 0.1720896977	 0.002298
C	 2.1172013829	 3.9904527601	-1.1115866426	-0.265817
C	 1.233306078	 5.2156356776	-1.0334701246	 0.098672
C	 0.444527167	 5.6870326904	-2.1777727831	-0.181684
O	-0.1786636212	 4.9981429784	-1.0905857906	-0.224454
H	-0.6893485528	 2.663485854	-0.4377394499	 0.11708
H	 3.0128699711	 1.282612953	 0.9899093012	 0.127469
H	 2.6538392204	 1.2509915045	-0.8096946576	 0.134302
H	 2.3947621277	 3.7508602916	 1.0611352877	 0.102326
H	 3.1445495476	 4.3171154343	-1.3211713136	 0.117467
H	 1.7983003698	 3.3582438475	-1.9478767501	 0.119789
H	 1.5300942732	 5.9536118153	-0.2854075196	 0.099048
H	 0.1919149597	 6.7422598183	-2.2669285682	 0.122063
H	 0.4831103876	 5.1371134725	-3.1171108449	 0.121903
65.3599	82.0502	113.7488	159.5853	215.3119	270.9225	365.015	390.0748	432.4115	510.1185	618.9413	786.2629	805.3406	860.9653	881.0719	938.0174	956.6886	979.2744	1038.8491	1042.1608	1084.5619	1110.126	1120.9482	1138.1353	1153.9545	1162.5854	1167.7084	1185.0533	1251.25	1296.1946	1317.3293	1377.1625	1425.3767	1429.2572	1450.6312	1458.7249	1514.005	1530.3996	1789.6748	3015.485	3024.1864	3072.4432	3086.1336	3093.8753	3106.5754	3108.6176	3174.462	3194.3127
O=CN1CC1CC1CO1	O=CN1C[C@H]1C[C@H]1CO1	
InChI=1S/C6H9NO2/c8-4-7-2-5(7)1-6-3-9-6/h4-6H,1-3H2	InChI=1S/C6H9NO2/c8-4-7-2-5(7)1-6-3-9-6/h4-6H,1-3H2/t5-,6+,7?/m1/s1
