21
gdb 118727	2.87455	1.13184	0.96015	1.7919	79.44	-0.2361	0.0786	0.3146	1325.9704	0.181592	-424.176506	-424.167269	-424.166324	-424.210628	34.935	
C	 0.0409528033	 1.3241767241	 0.0766220507	-0.224531
O	-0.0885586486	-0.0639234647	 0.2726480207	-0.251638
C	-1.3525645636	-0.5724284434	-0.1290833356	-0.151813
C	-1.2615849491	-2.0733980797	-0.0236321602	 0.430556
O	-0.2229243861	-2.5835348537	-0.8214632999	-0.49066
C	-1.4870711265	-2.8651931703	 1.2433156536	-0.106221
C	-2.6482367363	-2.318295778	 2.0785904679	-0.246544
C	-3.5944529794	-2.4690441384	 0.839699042	-0.244259
C	-2.4203056301	-3.0158857815	 0.0201374909	-0.113846
H	 1.0439856119	 1.609733843	 0.4031539137	 0.127899
H	-0.0821669928	 1.6004885446	-0.9823205185	 0.107678
H	-0.6978657392	 1.888995838	 0.666257927	 0.106471
H	-2.1520020613	-0.1543078096	 0.498153723	 0.092371
H	-1.557640617	-0.2888382441	-1.1744327069	 0.093165
H	 0.5560040165	-2.0629204502	-0.588269991	 0.287006
H	-0.7114119475	-3.5390748669	 1.5856338028	 0.086384
H	-2.9337388614	-2.9891770341	 2.8918263619	 0.105773
H	-2.520900261	-1.3138368223	 2.4956612254	 0.097378
H	-4.3658596909	-3.2234096603	 1.0078203423	 0.106781
H	-4.0819728336	-1.5633983007	 0.4639010447	 0.09488
H	-2.4679641972	-3.8200085516	-0.7044413044	 0.093169
68.9341	103.1408	142.9054	217.2819	243.7448	252.8164	307.8011	367.0405	406.2772	440.1211	494.2405	500.5238	694.1901	763.4937	786.4141	861.8466	882.0262	923.1705	963.4844	974.0053	991.9206	997.7198	1024.6865	1056.8513	1096.4832	1112.6092	1153.406	1166.0163	1189.2716	1217.7854	1223.1041	1239.8397	1251.7289	1268.6781	1284.8879	1290.5188	1332.4724	1403.0668	1475.2161	1482.7612	1485.4541	1486.3765	1501.2297	1506.7863	1521.0771	2968.3347	2977.906	3018.8115	3025.3155	3041.907	3050.2653	3093.2853	3111.9199	3113.3373	3182.1471	3193.2124	3779.7803
COCC1(O)C2CCC12	COC[C@@]1(O)[C@H]2CC[C@@H]12	
InChI=1S/C7H12O2/c1-9-4-7(8)5-2-3-6(5)7/h5-6,8H,2-4H2,1H3	InChI=1S/C7H12O2/c1-9-4-7(8)5-2-3-6(5)7/h5-6,8H,2-4H2,1H3/t5-,6+,7+
