14
gdb 132501	3.12975	1.30384	0.92565	2.8268	67.17	-0.2516	-0.0357	0.2159	1138.0581	0.100082	-486.005837	-485.998306	-485.997362	-486.038293	27.839	
C	-0.0304172972	 1.5269185736	 0.0290122291	-0.497724
C	-0.0028373868	 0.0253346859	-0.0210684409	 0.190976
C	-0.0227322322	-0.7004126371	-1.2067511501	-0.348486
C	 0.0064632708	-2.0916278883	-1.1316499666	 0.352154
F	-0.0131552202	-2.7822517289	-2.2698732457	-0.073779
N	 0.0515940146	-2.7940914649	-0.0250578016	-0.319841
C	 0.0711371838	-2.1076481838	 1.1241900212	-0.097981
C	 0.0453803317	-0.7260263211	 1.1561406195	 0.182628
F	 0.0667694972	-0.0885095338	 2.3336715591	-0.074587
H	 0.8562976631	 1.9159309818	 0.5399375161	 0.150599
H	-0.0685269645	 1.9535982853	-0.9750445167	 0.133671
H	-0.899536359	 1.8819440712	 0.5922148383	 0.150589
H	-0.0599773509	-0.2080199622	-2.1711909361	 0.119999
H	 0.1085659195	-2.6722648376	 2.0509979544	 0.131782
80.7602	151.0987	206.7675	264.6024	353.0798	399.0115	449.2846	468.3534	531.1335	579.7461	631.1302	753.4037	764.4747	786.6842	887.5357	943.1751	975.7105	1019.2214	1062.3356	1161.3559	1244.2613	1289.2586	1318.9119	1344.4651	1412.0441	1423.4848	1478.3022	1487.0474	1527.2414	1624.408	1652.1433	3043.9805	3100.1645	3134.9032	3178.4049	3202.9575
CC1=CC(F)=NC=C1F	Cc1cc(F)ncc1F	
InChI=1S/C6H5F2N/c1-4-2-6(8)9-3-5(4)7/h2-3H,1H3	InChI=1S/C6H5F2N/c1-4-2-6(8)9-3-5(4)7/h2-3H,1H3
