16
gdb 33434	2.18382	1.96688	1.17759	4.0771	79.94	-0.2762	0.0045	0.2807	1032.758	0.124262	-363.534925	-363.527242	-363.526298	-363.566907	30.058	
C	-0.0716689875	-1.2114333532	-0.0900551119	-0.390988
C	-0.0356339609	-0.0118166399	-0.0338424203	 0.214862
C	-0.0130183941	 1.4416130328	 0.013746419	 0.069626
C	-0.9968913483	 1.9840583066	-0.926181546	 0.220108
N	-1.7745291437	 2.4076878541	-1.6691693313	-0.345903
C	 0.0811037946	 2.1554816249	 1.4262535182	-0.065069
C	 1.5414859105	 1.6275685346	 1.5173094728	-0.249942
C	 1.3890788221	 2.1795093712	 0.0709924933	-0.065069
C	 0.6554120612	 3.4011728205	 0.6935958827	-0.257571
H	-0.1039691013	-2.2720904416	-0.1402826211	 0.201288
H	-0.6987029972	 2.1184007706	 2.1861302267	 0.099984
H	 2.2063063459	 2.1967342911	 2.1690245138	 0.106194
H	 1.6793976547	 0.5527020615	 1.6313534502	 0.122765
H	 2.1212051625	 2.1702029768	-0.7357234753	 0.099984
H	-0.0211631611	 3.9652046738	 0.0506263865	 0.132885
H	 1.2753735926	 4.059798076	 1.3036040427	 0.106846
139.863	140.8512	187.2821	193.2822	415.2155	466.5624	506.3437	527.8369	541.0495	594.3577	611.0398	633.6318	663.2602	786.921	813.1584	892.9012	902.6814	905.0783	1000.1662	1015.2096	1024.451	1070.2217	1100.6014	1110.1198	1149.5028	1182.6607	1188.54	1202.0953	1236.0973	1236.8411	1257.1226	1500.9463	1538.1004	2238.0286	2352.2521	3080.1843	3083.3527	3124.9041	3128.5095	3149.032	3155.0194	3499.4395
C#CC1(C#N)C2CC1C2	C#C[C@@]1(C#N)[C@H]2C[C@@H]1C2	
InChI=1S/C8H7N/c1-2-8(5-9)6-3-7(8)4-6/h1,6-7H,3-4H2	InChI=1S/C8H7N/c1-2-8(5-9)6-3-7(8)4-6/h1,6-7H,3-4H2/t6-,7+,8-
