15
gdb 131102	3.38709	1.13878	0.98589	3.6437	72.68	-0.251	0.0063	0.2573	1189.5664	0.112851	-416.780867	-416.772493	-416.771549	-416.814538	30.743	
O	-0.7911174288	 0.8696484176	 0.0863844809	-0.405299
C	 0.0122085726	-0.3065014236	-0.0392121234	-0.171838
C	 0.9048325333	-0.2180908173	-1.2018661096	 0.313426
C	 1.6356512755	-0.1036067419	-2.149420902	-0.463181
C	 0.7755569337	-0.6120964113	 1.2245855003	 0.349345
N	 0.2615670193	-1.4559653612	 2.1172560936	-0.288407
N	 1.1450538506	-1.4502910192	 3.1298999386	-0.180534
C	 2.2045541106	-0.6335933088	 2.9108048268	-0.015855
C	 2.0028088517	-0.0665616165	 1.6722252368	-0.285753
H	-0.1919737457	 1.6133726477	 0.2171351116	 0.282134
H	-0.708124275	-1.1166611093	-0.1905039538	 0.136885
H	 2.2739517858	-0.0178032285	-2.9939134217	 0.199098
H	 0.9703949034	-2.0338084403	 3.930559989	 0.278506
H	 3.0006543235	-0.531075988	 3.6311297715	 0.13707
H	 2.6505958095	 0.6204691907	 1.1531033913	 0.114403
42.8343	112.3345	169.8673	195.399	259.0729	334.7857	409.9161	465.5135	528.1435	582.6619	635.913	665.7268	667.4143	735.3939	765.6093	783.7214	848.5765	930.4655	954.4	1003.6881	1035.3705	1075.3564	1108.517	1194.7358	1256.6089	1292.4353	1304.8162	1411.7967	1414.851	1467.7421	1490.0259	1569.6706	2233.3473	3071.5679	3259.4714	3279.1575	3502.8584	3673.4234	3802.8391
OC(C#C)C1=NNC=C1	O[C@@H](C#C)c1n[nH]cc1	
InChI=1S/C6H6N2O/c1-2-6(9)5-3-4-7-8-5/h1,3-4,6,9H,(H,7,8)	InChI=1S/C6H6N2O/c1-2-6(9)5-3-4-7-8-5/h1,3-4,6,9H,(H,7,8)/t6-/m0/s1
