13
gdb 133601	2.66773	1.38383	1.11356	3.618	51.61	-0.2644	-0.0453	0.2191	1038.9298	0.084971	-584.239223	-584.231251	-584.230307	-584.272853	28.27	
F	 0.1489732082	 0.0830248392	 0.0459607909	-0.076055
C	-0.0087873515	 1.4092533408	-0.0039991767	 0.309707
F	 1.1945922797	 1.965156376	-0.1950553054	-0.070722
F	-0.7701076572	 1.6926272246	-1.0699790874	-0.077971
C	-0.6365803314	 1.9450912121	 1.2735046555	-0.262889
N	-1.9262031738	 1.318291851	 1.6185356076	-0.314934
C	-1.4920789191	 0.9500980044	 2.9927222238	-0.280817
C	-0.0730001488	 1.3956644083	 2.6132526813	 0.391912
O	 1.0029331682	 1.3519789147	 3.117163081	-0.263352
H	-0.6172180746	 3.0416912462	 1.2253704928	 0.123291
H	-2.7221072903	 1.9406648298	 1.5715562647	 0.239061
H	-1.9113596397	 1.5539959107	 3.8089770404	 0.133493
H	-1.6148427297	-0.1100688778	 3.2377797313	 0.149275
56.1056	94.8952	121.1581	226.5141	298.1918	380.2215	430.2428	506.175	528.1017	587.0823	627.5583	680.273	759.3141	820.2009	908.8595	997.626	1019.5145	1044.7127	1071.932	1107.3225	1167.7579	1200.7229	1221.7495	1286.2302	1293.5075	1355.0761	1393.6648	1475.9811	1931.4554	3018.3513	3034.3469	3078.1698	3574.8334
FC(F)(F)C1NCC1=O	FC(F)(F)[C@H]1NCC1=O	
InChI=1S/C4H4F3NO/c5-4(6,7)3-2(9)1-8-3/h3,8H,1H2	InChI=1S/C4H4F3NO/c5-4(6,7)3-2(9)1-8-3/h3,8H,1H2/t3-/m0/s1
