19
gdb 122264	2.81482	0.95574	0.78704	4.5461	77.2	-0.2333	0.0333	0.2665	1466.1889	0.158557	-419.186936	-419.17722	-419.176276	-419.222292	35.142	
O	-0.0227809933	 1.4008903181	-0.5566738992	-0.424551
C	-0.0572283758	 0.1518237624	 0.1290512522	-0.094235
C	-1.5129365008	-0.2750865464	 0.2023268758	-0.131211
N	-2.0340677667	-0.4454336234	-1.1512977547	-0.356161
C	-3.4372962362	-0.7307251958	-1.2371131188	 0.198504
C	-4.5034112782	 0.3192081229	-0.9016145593	-0.293724
C	-4.2568344902	-0.0807948532	-2.3291371803	-0.311871
C	-3.7683319821	-2.1009156933	-0.8982816412	 0.278573
N	-4.0356325512	-3.1873103929	-0.6046098406	-0.353544
H	 0.8913213377	 1.6068091483	-0.7705130738	 0.29363
H	 0.5190877841	-0.6115533404	-0.412066571	 0.105613
H	 0.3524640554	 0.2429441773	 1.1456477068	 0.094932
H	-1.584334841	-1.2284426795	 0.7382257217	 0.123446
H	-2.0772872152	 0.4738699428	 0.7846042293	 0.093416
H	-1.7957722401	 0.3719872983	-1.7009268248	 0.23462
H	-5.4200866511	-0.0065043608	-0.4241110441	 0.13798
H	-4.1251348787	 1.2788961622	-0.5675032395	 0.131494
H	-3.726182195	 0.6097123184	-2.9764329492	 0.130108
H	-4.9973713217	-0.6890653749	-2.8341578793	 0.142983
52.3532	65.514	141.5305	157.877	212.6935	231.0159	260.1087	309.8035	364.3782	423.3047	501.7024	579.1743	599.8269	688.626	729.1467	783.2924	872.5946	878.1145	918.4903	950.3538	963.7033	1007.2455	1058.1778	1087.6582	1093.1187	1099.4765	1142.9373	1193.4059	1207.4048	1259.7016	1282.0795	1303.0466	1334.3715	1389.216	1455.5992	1461.3963	1490.4116	1492.3428	1507.0186	1512.6446	2351.237	2956.6574	2991.7949	3034.6467	3064.9249	3138.8208	3142.6991	3225.2404	3239.5481	3551.4414	3840.7983
OCCNC1(CC1)C#N	OCCNC1(CC1)C#N	
InChI=1S/C6H10N2O/c7-5-6(1-2-6)8-3-4-9/h8-9H,1-4H2	InChI=1S/C6H10N2O/c7-5-6(1-2-6)8-3-4-9/h8-9H,1-4H2
