18
gdb 15591	2.51261	2.11182	1.50092	1.5092	71.97	-0.253	0.0412	0.2942	914.5252	0.154118	-347.784916	-347.77675	-347.775806	-347.818116	30.671	
O	 0.4023107597	 0.944529465	-0.7841561148	-0.438787
C	 0.0446769101	-0.1684401536	-0.0038909049	 0.145621
C	 0.4123473469	-0.0711897571	 1.4926220003	-0.227032
C	-0.5486657493	-1.0396458294	 2.2313245569	-0.204165
C	-1.5596210337	-1.5385099847	 1.1623594405	-0.219009
C	-1.4784031031	-0.5077981073	 0.0133337262	-0.199155
C	-2.2584098809	 0.6983990526	 0.2684803435	 0.315786
C	-2.8509258964	 1.7251200389	 0.4790665952	-0.478781
H	-0.166923687	 1.6763430933	-0.5121665397	 0.279665
H	 0.5603019727	-1.0214130941	-0.4598210296	 0.089349
H	 1.46832104	-0.2956576518	 1.6600153748	 0.102778
H	 0.2493438591	 0.9610646173	 1.8199791484	 0.103022
H	-0.0199646553	-1.8802076086	 2.688078905	 0.101907
H	-1.0689960821	-0.520204848	 3.0398788355	 0.110881
H	-1.2490327824	-2.5121930448	 0.7687464311	 0.103154
H	-2.5730435644	-1.6534920703	 1.5518211848	 0.109999
H	-1.7905902411	-0.9371492843	-0.9443036209	 0.10406
H	-3.4067969929	 2.6114225369	 0.6623597876	 0.200705
32.6882	115.5395	143.247	231.555	336.0354	397.2062	413.7016	463.5897	557.2465	626.7241	641.4986	646.2607	674.9605	780.115	810.8783	852.7062	891.633	950.9169	991.4443	1018.0369	1050.4261	1106.1181	1119.6184	1164.6127	1198.6852	1216.5232	1255.8573	1279.1527	1299.4214	1329.3654	1334.012	1360.0495	1370.1176	1441.1521	1483.2564	1490.1824	1510.3204	2221.5406	3041.6734	3045.554	3051.9797	3061.0693	3066.3696	3090.875	3107.112	3117.0501	3500.8034	3761.0384
OC1CCCC1C#C	O[C@H]1CCC[C@H]1C#C	
InChI=1S/C7H10O/c1-2-6-4-3-5-7(6)8/h1,6-8H,3-5H2	InChI=1S/C7H10O/c1-2-6-4-3-5-7(6)8/h1,6-8H,3-5H2/t6-,7+/m1/s1
