14
gdb 129920	3.3901	1.76511	1.16455	7.0523	69.13	-0.1979	0.0154	0.2133	963.1754	0.104262	-429.058642	-429.051443	-429.050498	-429.090098	27.377	
N	 0.1199742649	 1.4378418098	 0.1288340377	-0.602247
C	 0.0011514782	 0.0517451128	 0.0108262218	 0.255743
C	-1.0686552224	-0.7895184517	-0.0301794522	-0.143835
N	-0.6107028555	-2.1147380637	-0.0713334159	-0.423515
C	 0.7553394979	-2.0841328943	-0.032430275	 0.515256
N	 1.7772830573	-2.9078327604	-0.0194345547	-0.366897
N	 2.891257992	-2.0845493587	 0.031426466	-0.220815
C	 2.5116925186	-0.8281599568	 0.0489414719	-0.029594
N	 1.1353676301	-0.7651549255	 0.008003972	-0.052837
H	 0.5847830692	 1.8642760552	-0.6675202319	 0.255852
H	-0.7800017125	 1.8816615443	 0.2589817961	 0.254947
H	-2.1193810145	-0.5561464572	-0.0557746823	 0.136573
H	-1.1667897115	-2.9373218026	 0.07446583	 0.279635
H	 3.1563102781	 0.0329218587	 0.0917085465	 0.141734
154.2227	182.7441	215.9959	260.8322	284.4858	406.0944	551.87	599.9695	638.734	651.6638	697.9136	714.5895	742.0731	760.6075	792.4681	835.1937	993.8427	1032.0625	1082.3394	1102.989	1176.2949	1215.4247	1290.0848	1305.0165	1361.5653	1421.3652	1457.6913	1479.9181	1632.9678	1647.9358	1691.4262	3281.2152	3289.587	3497.4992	3612.3202	3704.6186
NC1=CNC2=NN=CN12	Nc1c[nH]c2nncn12	
InChI=1S/C4H5N5/c5-3-1-6-4-8-7-2-9(3)4/h1-2H,5H2,(H,6,8)	InChI=1S/C4H5N5/c5-3-1-6-4-8-7-2-9(3)4/h1-2H,5H2,(H,6,8)
