17
gdb 51072	4.1108	1.10255	1.04127	3.6284	73.3	-0.2599	-0.001	0.2589	1175.4872	0.136151	-421.787989	-421.78051	-421.779566	-421.820641	28.384	
O	 0.1115666345	-0.0655965509	-0.2082734786	-0.263017
C	 0.1378271674	 1.1194626943	-0.3251620034	 0.148945
O	 1.0005771908	 1.8975405018	 0.3814454423	-0.230568
C	 0.9004093597	 3.2671685216	 0.2188950965	 0.407024
C	 0.8089753298	 4.1848393437	-0.9724803251	-0.149073
C	-0.3731734205	 4.9395380663	-0.3666980868	-0.221206
C	 0.1030923932	 4.3980277389	 1.011642814	-0.126366
C	 1.4692032457	 5.1058490838	 1.2386786571	-0.226615
C	 1.9792627203	 4.2888772395	 0.0528420781	-0.126055
H	-0.4998668354	 1.7121021541	-1.0053776009	 0.091208
H	 1.0219638471	 3.9675425184	-2.0111145356	 0.099111
H	-0.4084366559	 6.0284334364	-0.4790193279	 0.098867
H	-1.3290000792	 4.5070140987	-0.6747739224	 0.103352
H	-0.597255151	 4.2452510696	 1.829247512	 0.085363
H	 1.4767721302	 6.1987510688	 1.1685946513	 0.095493
H	 1.9449077529	 4.7900970401	 2.1704597212	 0.112146
H	 2.9963638704	 4.1211392348	-0.2761400118	 0.101391
60.1996	129.3485	140.6542	324.9913	346.4088	414.6274	480.0989	505.9671	691.1008	722.1753	768.266	809.5733	896.4118	909.6078	944.8502	957.5262	969.1269	1000.1585	1011.7175	1039.1169	1048.6581	1069.2835	1114.9657	1123.4746	1125.6358	1147.208	1177.2658	1213.1692	1216.6002	1249.7163	1291.0152	1307.7318	1403.7638	1442.169	1489.4072	1508.6398	1875.1092	2982.2178	3040.4397	3047.142	3100.1377	3108.4391	3148.429	3200.531	3210.2795
O=COC12C3CC1CC23	O=CO[C@@]12[C@H]3C[C@@H]1C[C@@H]23	
InChI=1S/C7H8O2/c8-3-9-7-4-1-5(7)6(7)2-4/h3-6H,1-2H2	InChI=1S/C7H8O2/c8-3-9-7-4-1-5(7)6(7)2-4/h3-6H,1-2H2/t4-,5+,6-,7-
