14
gdb 130079	5.43868	1.36306	1.09236	4.2151	69.92	-0.202	0.0258	0.2278	1024.2165	0.10519	-429.075153	-429.068325	-429.067381	-429.106073	26.79	
N	 0.0355142934	 1.3289231444	-0.1309777798	-0.593404
C	-0.0001368941	-0.0486062903	-0.0272972766	 0.440847
N	-1.0966821152	-0.7656991767	 0.0144435737	-0.33024
N	-0.6104726529	-2.0603416191	-0.0094868909	 0.040519
C	-1.0719193879	-3.3611957039	 0.0096167281	-0.147364
C	 0.0829637803	-4.1144143905	-0.0116071647	-0.093947
N	 1.2344500805	-3.3375018944	-0.0351873665	-0.406958
C	 0.7441547667	-2.1238059112	-0.034194236	 0.484852
N	 1.1574689577	-0.8002625676	-0.0253556698	-0.45117
H	 0.6471864919	 1.7767759515	 0.5406493282	 0.261289
H	-0.898115238	 1.7165118249	-0.0792347885	 0.272947
H	-2.1175062191	-3.6098183589	 0.0368998583	 0.132856
H	 0.1523256604	-5.1915273033	-0.012032057	 0.105919
H	 2.0756538364	-0.4682294448	-0.2623635684	 0.283854
143.6822	272.1477	299.022	316.2283	345.2948	376.3672	541.7636	607.7815	619.7889	666.0547	690.4041	734.8865	769.3534	796.5482	828.4838	848.0508	963.5054	1018.8239	1074.5163	1137.6194	1156.1311	1196.3436	1270.0109	1297.3	1396.7228	1450.4628	1499.1286	1521.8781	1606.2546	1645.1327	1667.7319	3251.7431	3303.1548	3536.1535	3633.7417	3690.8092
NC1=NN2C=CN=C2N1	Nc1nn2ccnc2[nH]1	
InChI=1S/C4H5N5/c5-3-7-4-6-1-2-9(4)8-3/h1-2H,(H3,5,6,7,8)	InChI=1S/C4H5N5/c5-3-7-4-6-1-2-9(4)8-3/h1-2H,(H3,5,6,7,8)
