23
gdb 120004	2.47029	1.01565	0.8022	2.6662	86.62	-0.2351	-0.0156	0.2195	1544.3743	0.203837	-388.313765	-388.30344	-388.302496	-388.349745	37.716	
C	-0.0352934981	 1.5100286387	-0.3811368496	-0.383313
C	-0.1334160297	 0.0181646584	-0.0538478338	-0.171267
C	 0.8884563176	-0.4285470392	 1.0016039506	-0.198398
C	 0.7740399735	-1.9131760569	 1.3369885804	-0.095719
C	 1.6829117921	-2.6102096231	 2.4194330049	-0.032471
C	 2.3189514106	-1.6772250343	 3.4458514925	-0.39282
C	 0.4327659668	-3.3762831124	 2.9620185669	-0.345855
C	-0.4367701065	-2.4103892193	 2.1432179028	 0.391439
O	-1.5868340519	-2.0767158888	 2.2002180352	-0.30283
H	 0.9590198105	 1.7697867899	-0.7622832592	 0.109517
H	-0.768798303	 1.7999618821	-1.1398184063	 0.112742
H	-0.2181883048	 2.1231390016	 0.508373475	 0.115241
H	-1.1392851217	-0.2231582137	 0.30603126	 0.129296
H	 0.0160178007	-0.5697061333	-0.9696444817	 0.089608
H	 1.9054885239	-0.2156434686	 0.644468294	 0.094491
H	 0.7505928417	 0.1691799193	 1.9111149964	 0.099763
H	 0.8176864639	-2.5012723862	 0.4090996218	 0.097925
H	 2.4470358069	-3.2591063061	 1.9851356186	 0.074108
H	 1.5698222155	-1.0453741366	 3.9364628411	 0.121086
H	 2.8236272173	-2.2543289005	 4.2276427885	 0.117134
H	 3.0606432591	-1.0170314514	 2.9852426599	 0.120073
H	 0.3513037755	-4.4035225322	 2.5921896749	 0.126674
H	 0.2655144801	-3.3794182472	 4.0426604571	 0.123574
55.6389	81.3073	86.7658	118.4387	208.1371	243.9126	248.3424	267.4994	332.5431	367.6221	422.0217	486.7991	547.0582	700.678	737.0789	752.6123	831.6253	834.1525	875.1845	901.8465	913.9263	992.3176	1026.5316	1044.161	1050.0118	1076.265	1104.3945	1126.6741	1154.4292	1179.031	1207.6673	1235.0013	1256.3467	1268.1039	1307.8606	1328.8532	1352.6659	1367.3866	1391.2186	1413.8292	1414.263	1440.5999	1483.4262	1495.0683	1498.5549	1499.3295	1500.1628	1511.8292	1877.1958	3009.1069	3009.7875	3018.2327	3028.0842	3029.4189	3051.347	3053.6294	3072.3286	3074.1237	3097.6946	3098.7803	3101.9101	3102.3425	3110.9971
CCCC1C(C)CC1=O	CCC[C@H]1[C@@H](C)CC1=O	
InChI=1S/C8H14O/c1-3-4-7-6(2)5-8(7)9/h6-7H,3-5H2,1-2H3	InChI=1S/C8H14O/c1-3-4-7-6(2)5-8(7)9/h6-7H,3-5H2,1-2H3/t6-,7-/m0/s1
