17
gdb 11730	4.5684	1.47234	1.2803	3.08	70.7	-0.2567	0.0226	0.2793	993.1362	0.141857	-363.843812	-363.836166	-363.835222	-363.875835	28.866	
C	-0.0255940658	 1.5036503947	 0.1058479531	-0.378526
C	-0.0393147135	-0.0146364958	-0.1214891812	-0.289992
C	-1.4087930987	-0.5970757647	 0.0046852855	 0.478262
C	-2.1484907658	-1.0385005582	 1.2168581753	-0.329372
C	-1.9662626521	-2.0062926018	 0.0367544942	-0.276101
C	-2.8411314638	-1.5366457504	-1.0742184939	 0.449813
N	-3.6525406537	-2.0782263408	-1.8605614203	-0.558308
O	-2.3942005173	-0.2156575077	-1.0106789999	-0.308638
H	 0.9850414967	 1.9037202048	-0.01435036	 0.117298
H	-0.6791281081	 2.0067405067	-0.6123849961	 0.1396
H	-0.374252786	 1.7547158764	 1.1124147403	 0.121695
H	 0.3544883721	-0.2482052544	-1.117539018	 0.117345
H	 0.6126337574	-0.5136837079	 0.604874665	 0.109898
H	-1.5392992558	-1.2856783329	 2.0814356207	 0.125287
H	-3.1288414837	-0.6299619595	 1.4404280969	 0.131237
H	-1.4893628014	-2.9708541453	 0.1288443416	 0.122121
H	-4.0258433405	-1.4002592633	-2.5270426432	 0.228384
85.4809	127.0409	188.3024	232.7871	344.7893	378.4513	444.0945	457.0901	631.7027	668.2593	737.7071	785.686	844.9511	863.6995	886.3906	931.6407	963.0559	982.1966	990.9891	1006.4434	1023.631	1076.3399	1085.1977	1119.4759	1174.6876	1219.724	1273.4431	1321.9276	1352.8646	1408.3231	1420.4984	1473.1717	1491.5896	1499.0429	1511.5078	1831.5624	3035.1751	3043.4005	3073.1196	3114.942	3121.7205	3122.695	3214.0696	3230.6622	3478.299
CCC12CC1C(=N)O2	CC[C@]12C[C@H]1[C]([NH])O2	
InChI=1S/C6H9NO/c1-2-6-3-4(6)5(7)8-6/h4,7H,2-3H2,1H3	InChI=1S/C6H9NO/c1-2-6-3-4(6)5(7)8-6/h4,7H,2-3H2,1H3/t4-,6-/m0/s1
