21
gdb 108267	2.32814	1.71731	1.21601	1.2751	85.49	-0.2288	0.0162	0.245	1116.6745	0.182834	-387.063748	-387.055217	-387.054273	-387.096644	33.196	
C	 0.1153715946	 1.4860686385	 0.0714523101	-0.250018
O	-0.0614596193	 0.0934672897	-0.059098071	-0.302787
C	 0.5967632597	-0.4893394528	-1.1783839992	 0.398315
C	 2.1561627263	-0.5929366174	-0.9554507059	-0.294636
C	 1.9356889796	-2.0454214178	-0.3839728122	-0.326506
C	 0.5939907743	-1.991492011	-1.0753578824	 0.276561
C	-0.2004537618	-2.5758695985	-1.9637389578	-0.229135
C	-0.9640410329	-1.5096240201	-2.7461409986	-0.244527
C	-0.1162424867	-0.2159030705	-2.5212224663	-0.295798
H	 1.1714827895	 1.7649315179	 0.2019950295	 0.102145
H	-0.2778596009	 2.0410033633	-0.7930981849	 0.103367
H	-0.4374844939	 1.7945147075	 0.9625021374	 0.125018
H	 2.7097751886	-0.6032879074	-1.8969142443	 0.105786
H	 2.6049011099	 0.1338507765	-0.2744422928	 0.101259
H	 2.6323391985	-2.8300276774	-0.687526383	 0.107248
H	 1.8645794166	-2.0311699155	 0.7073246511	 0.121476
H	-0.2635764488	-3.633523908	-2.1952692312	 0.092364
H	-1.0357032109	-1.7661808712	-3.8087174606	 0.100159
H	-1.9944142767	-1.389561803	-2.3863626138	 0.112919
H	-0.7233509257	 0.6931867536	-2.5094103676	 0.097362
H	 0.61494926	-0.1168371065	-3.3299343465	 0.099429
106.9341	125.3647	180.3891	216.1359	240.0783	297.497	351.3385	381.7779	515.4009	554.6824	642.1243	685.6306	739.0967	775.1637	825.1006	854.7237	897.6232	904.3479	917.2865	944.0061	999.0878	1008.3533	1071.9274	1089.5076	1117.1746	1138.5098	1160.677	1180.0715	1184.5053	1207.2129	1221.4012	1229.393	1247.9868	1258.0979	1298.1363	1316.898	1337.4791	1458.6685	1470.4021	1477.8859	1480.6808	1489.1842	1491.7603	1511.1819	1740.2313	2984.1183	3021.4108	3029.2348	3049.3121	3059.0055	3064.9856	3066.444	3100.6844	3109.1814	3109.5749	3129.1649	3190.5479
COC12CCC1=CCC2	CO[C@@]12CC[C]1[CH]CC2	
InChI=1S/C8H12O/c1-9-8-5-2-3-7(8)4-6-8/h3H,2,4-6H2,1H3	InChI=1S/C8H12O/c1-9-8-5-2-3-7(8)4-6-8/h3H,2,4-6H2,1H3/t8-/m0/s1
