23
gdb 102548	1.83302	1.35441	0.9572	1.5062	81.6	-0.2534	0.0737	0.3271	1370.5864	0.203069	-425.406092	-425.395259	-425.394315	-425.442269	39.56	
C	 0.1580868292	-1.4967601199	 0.9822641446	-0.391753
C	-0.2771626555	-1.2489020585	-0.4661960306	-0.184726
C	 0.7631389625	-0.4954672456	-1.3295926425	-0.026738
C	 1.9152562604	-1.4294878478	-1.6999275332	-0.115767
O	 3.0112480693	-0.6522820048	-2.1722103168	-0.424883
C	 0.08074963	 0.143978717	-2.544366926	 0.409427
C	-0.7610943423	 1.3705762462	-2.2510820069	-0.466458
C	 0.5953044958	-0.014753519	-3.9119222002	-0.219563
O	-0.5173840488	-0.7955714051	-3.4591639547	-0.288633
H	 1.0651720648	-2.1056893816	 1.0474530946	 0.117223
H	 0.3577225948	-0.5522852221	 1.5007330192	 0.115624
H	-0.6257730328	-2.0209174751	 1.538031027	 0.114197
H	-0.5156902629	-2.1992320168	-0.9590130811	 0.110447
H	-1.2140624129	-0.6833256282	-0.4534903731	 0.101553
H	 1.193632465	 0.3205489133	-0.7332208776	 0.080245
H	 2.2121000826	-2.0097207573	-0.8158090871	 0.087635
H	 1.566994185	-2.144697969	-2.4611503328	 0.104898
H	 3.7379980975	-1.2510293887	-2.3679873193	 0.286283
H	-0.1244020759	 2.195858098	-1.913988581	 0.123166
H	-1.2929871997	 1.6873061146	-3.1514185381	 0.125708
H	-1.5043784356	 1.1819108647	-1.4706949826	 0.123104
H	 0.3533822211	 0.7450189788	-4.6553769017	 0.100239
H	 1.5186823484	-0.555689203	-4.0913032002	 0.118773
45.8704	67.4598	140.3045	171.7821	191.7154	200.8872	242.5247	282.9116	285.0041	315.0019	374.3689	402.5849	428.4795	516.5936	540.5531	707.9963	764.1037	823.9594	872.5617	923.1034	927.3187	975.925	1007.7922	1025.8445	1057.0888	1078.62	1100.1305	1129.4838	1138.0301	1140.7087	1166.4288	1226.8912	1249.4762	1261.7818	1290.5412	1325.8795	1359.0153	1390.851	1393.8072	1412.7926	1416.8573	1456.3855	1481.6529	1490.2599	1498.2582	1500.7812	1508.3691	1524.3354	1543.0793	2984.5422	3015.7081	3026.743	3034.0708	3038.6402	3041.5223	3072.8098	3088.4485	3100.1408	3102.0814	3106.965	3124.1233	3196.8243	3828.233
CCC(CO)C1(C)CO1	CC[C@@H](CO)[C@@]1(C)CO1	
InChI=1S/C7H14O2/c1-3-6(4-8)7(2)5-9-7/h6,8H,3-5H2,1-2H3	InChI=1S/C7H14O2/c1-3-6(4-8)7(2)5-9-7/h6,8H,3-5H2,1-2H3/t6-,7+/m0/s1
