17
gdb 44913	2.76195	1.78162	1.55795	4.3106	72.01	-0.247	-0.0054	0.2417	918.1555	0.139514	-421.888866	-421.882312	-421.881368	-421.919625	26.867	
O	-0.0225205811	 0.0141988176	-0.0135743298	-0.342812
C	 0.0203207202	 1.207081107	-0.022052044	 0.448973
O	-1.1017142492	 1.9910004784	-0.0235511208	-0.237484
C	-0.7194802615	 3.3902536406	-0.0502442137	 0.089075
C	 0.65323851	 3.3650230346	-0.7383663994	-0.246926
C	 1.2350864672	 2.1515474529	 0.0004104542	-0.197919
C	 1.4651469784	 2.5271686075	 1.4549297434	-0.073042
C	 0.6139349368	 3.3439505289	 2.0787627675	-0.049513
C	-0.6029100931	 3.9109431224	 1.387740754	-0.258839
H	-1.4964110705	 3.9159079389	-0.6075595948	 0.094331
H	 0.5479429666	 3.1768848714	-1.8106774094	 0.115188
H	 1.2265973169	 4.2808170524	-0.5830520212	 0.114473
H	 2.1033549421	 1.682466933	-0.4583753005	 0.097534
H	 2.3120256334	 2.0885559286	 1.9713545559	 0.104296
H	 0.7678374148	 3.6110197002	 3.1205104364	 0.098904
H	-0.5662287002	 5.0090082574	 1.3802319101	 0.114402
H	-1.5134471207	 3.6397012684	 1.9373292719	 0.129362
143.8994	215.0239	349.8153	380.5195	438.3473	481.9647	525.5076	630.2336	691.5574	712.419	755.0809	832.5152	847.5605	885.2113	915.7599	928.2244	947.3731	989.9554	1003.3075	1040.1257	1050.3047	1069.5627	1114.7361	1160.2864	1185.2901	1213.593	1234.1718	1289.567	1325.8237	1339.3894	1365.319	1378.0304	1405.821	1460.1195	1490.307	1700.6357	1891.383	3017.256	3050.6285	3062.6881	3103.1169	3123.3824	3135.1202	3164.6524	3193.7998
O=C1OC2CC1C=CC2	O=C1O[C@@H]2C[C@H]1C=CC2	
InChI=1S/C7H8O2/c8-7-5-2-1-3-6(4-5)9-7/h1-2,5-6H,3-4H2	InChI=1S/C7H8O2/c8-7-5-2-1-3-6(4-5)9-7/h1-2,5-6H,3-4H2/t5-,6+/m1/s1
