15
gdb 21965	6.79005	1.13495	1.05363	1.5093	63.11	-0.2598	-0.0026	0.2572	1090.5874	0.120736	-395.97608	-395.968518	-395.967574	-396.009281	26.013	
O	-0.0738616135	 1.4044358481	 0.0105160959	-0.41464
C	 0.0316651963	-0.0071689946	 0.001753042	-0.076978
C	-1.401102878	-0.5409951701	 0.012307908	-0.133279
N	-1.4338234038	-1.991091287	 0.0048287169	 0.14391
N	-1.4158925961	-2.6918441299	-1.1246036665	-0.228107
C	-1.3804343935	-3.9587563323	-0.7065363753	-0.060007
C	-1.3716212385	-3.9662454287	 0.6943974526	-0.060062
N	-1.4018191628	-2.7038802064	 1.1263970851	-0.227998
H	 0.8127877841	 1.7757167484	 0.0023972571	 0.294593
H	 0.5481639382	-0.378767983	-0.8956069539	 0.109027
H	 0.5649356954	-0.3885412238	 0.8851201153	 0.1089
H	-1.9195162462	-0.1994409448	 0.9095040268	 0.147194
H	-1.9362458362	-0.1894218611	-0.8711129469	 0.147093
H	-1.3710384437	-4.7757988365	-1.4099369633	 0.125173
H	-1.3534346815	-4.7907506683	 1.3888590463	 0.12518
40.7229	91.0603	109.9146	219.8771	321.7696	374.6099	380.7506	681.5403	697.4814	798.2229	805.6226	847.7305	896.1303	981.551	996.6639	1013.1342	1074.5887	1090.5121	1100.0051	1192.5504	1229.3772	1247.3205	1295.7559	1297.4509	1361.5491	1374.393	1409.2845	1445.8889	1462.5361	1477.4905	1505.4602	1530.3081	2987.7582	3025.5008	3093.5207	3154.1169	3264.4011	3281.8839	3838.551
OCCN1N=CC=N1	OCCn1nccn1	
InChI=1S/C4H7N3O/c8-4-3-7-5-1-2-6-7/h1-2,8H,3-4H2	InChI=1S/C4H7N3O/c8-4-3-7-5-1-2-6-7/h1-2,8H,3-4H2
