18
gdb 20274	5.17234	2.06208	1.98728	0.2104	74.3	-0.2492	0.1051	0.3543	753.9448	0.157432	-310.607339	-310.601896	-310.600952	-310.636392	24.108	
C	-0.012494554	 1.5179036501	 0.0584807885	-0.29711
C	 1.3128030828	 0.7939711566	-0.0017408616	-0.060029
C	 0.0203781496	 0.007804204	 0.00707059	-0.060028
C	 0.0847270129	-0.6541570176	-1.3645741749	-0.008094
C	 0.679236377	 0.3531200683	-2.4038326479	-0.062679
C	 1.3850264872	-0.8152961897	-3.1285759358	-0.253222
C	 1.5717642271	-1.1054321344	-1.6253876539	-0.050785
C	 1.8573645962	 0.4241154496	-1.3766626329	-0.008094
H	-0.2775666582	 1.9643511201	 1.012018085	 0.104768
H	-0.3615719761	 2.0821561452	-0.7994671094	 0.109674
H	 1.9813486085	 0.8240164486	 0.8509337945	 0.081292
H	-0.3052002383	-0.5668563609	 0.8665320339	 0.081292
H	-0.7304481265	-1.3096586871	-1.6773775521	 0.059226
H	 0.1633127635	 1.1960851859	-2.8669593976	 0.066883
H	 0.7440828428	-1.5016554709	-3.6894751847	 0.087091
H	 2.2836082747	-0.5651829179	-3.6999775164	 0.087091
H	 2.0877888509	-1.9485464553	-1.160275177	 0.063498
H	 2.8111278398	 0.8446342653	-1.7015301378	 0.059225
299.9492	325.9987	423.8622	515.3878	658.485	681.3568	766.7263	797.6647	817.6374	819.1962	880.5282	887.8367	909.3504	917.7822	938.81	989.9256	993.877	1003.8207	1029.5953	1063.4727	1066.1555	1078.1107	1093.0121	1100.3838	1105.329	1131.9574	1170.5104	1189.4175	1194.7515	1231.5424	1240.836	1267.2246	1273.0795	1326.041	1331.5583	1374.4141	1487.8995	1519.3034	3045.1332	3082.8572	3086.2236	3094.5282	3103.4764	3103.9547	3127.8822	3170.043	3178.5344	3209.3248
C1C2C1C1C3CC1C23	C1[C@H]2[C@@H]1[C@H]1[C@@H]3C[C@H]1[C@H]23	
InChI=1S/C8H10/c1-3-4(1)8-5-2-6(8)7(3)5/h3-8H,1-2H2	InChI=1S/C8H10/c1-3-4(1)8-5-2-6(8)7(3)5/h3-8H,1-2H2/t3-,4+,5-,6+,7-,8+
