18
gdb 90575	2.77292	1.18938	1.09689	2.6408	71.88	-0.238	-0.0217	0.2163	1173.825	0.146735	-439.03315	-439.024507	-439.023563	-439.067306	31.765	
O	 0.1715365099	 1.3323578494	-0.1071721404	-0.424176
C	 0.0831654407	-0.0720389863	 0.0098146131	 0.099888
C	 0.3208835073	-0.7771290349	 1.3759381842	-0.223409
N	-1.0397469782	-1.4293100709	 1.3240219504	-0.146874
C	-2.0415329818	-0.3448427609	 1.3232724298	-0.005853
C	-1.9381746149	 0.9296192458	 2.1516619693	-0.333149
C	-1.9663802818	 0.6080262992	 3.631465072	 0.176681
O	-1.0738305753	 0.8640035126	 4.3990395202	-0.242097
C	-1.333157371	-0.620570231	 0.0539085376	-0.06913
H	 1.1001032496	 1.572790438	-0.1897229913	 0.28884
H	 0.6594199671	-0.5644663044	-0.7832519153	 0.088115
H	 1.0944487962	-1.5466980542	 1.3464209513	 0.11146
H	 0.4828554977	-0.1344282712	 2.2447017969	 0.13068
H	-3.035818823	-0.7885933058	 1.3534962741	 0.103493
H	-1.0491284917	 1.5127213909	 1.9185132394	 0.148916
H	-2.8171240151	 1.5452752965	 1.9163678991	 0.12138
H	-2.8874404972	 0.0861875831	 3.9808840005	 0.077978
H	-1.8454767184	-1.0599252658	-0.7964341209	 0.097257
48.4718	75.5489	141.158	205.9495	274.9285	292.7538	350.7447	421.7949	479.2416	513.7469	620.524	701.5551	743.3498	777.8391	815.4369	885.1456	936.8304	975.6497	988.5321	1018.7587	1060.4038	1070.4847	1091.0505	1124.7326	1160.4624	1182.2747	1206.3723	1235.2503	1255.911	1283.6614	1292.5891	1314.7409	1366.3378	1428.7997	1438.15	1444.9642	1477.1035	1514.4587	1830.2193	2864.3419	3024.2958	3028.7722	3070.1332	3115.7664	3126.6165	3157.4342	3160.5565	3815.4649
OC1CN2C(CC=O)C12	O[C@H]1CN2[C@@H](CC=O)[C@@H]12	
InChI=1S/C6H9NO2/c8-2-1-4-6-5(9)3-7(4)6/h2,4-6,9H,1,3H2	InChI=1S/C6H9NO2/c8-2-1-4-6-5(9)3-7(4)6/h2,4-6,9H,1,3H2/t4-,5-,6-,7?/m0/s1
