20
gdb 118361	1.76094	1.47281	0.93281	3.6964	76.42	-0.242	-0.024	0.218	1314.6515	0.167992	-440.238365	-440.228238	-440.227293	-440.274643	35.03	
C	-0.5319545901	 0.7544069046	-0.4095562716	-0.236807
O	 0.7419919244	 0.1807160566	-0.1768601977	-0.238147
C	 1.1360363372	-0.8098623061	-1.0974666355	-0.091187
C	 0.632766729	-2.226952093	-0.7535578262	-0.065573
C	 0.9730785704	-2.5329133611	 0.7039789597	 0.176894
O	 2.0618823171	-2.8915491574	 1.0675494321	-0.255826
N	-0.8069310403	-2.3572604324	-0.9454468173	-0.068989
C	-1.2584855363	-2.6863220078	-2.2937657929	-0.222231
C	-1.3086514981	-3.7051649754	-1.2102033571	-0.228867
H	-0.6001632722	 1.1676689763	-1.427986569	 0.099782
H	-1.3412825723	 0.0297315364	-0.2690583618	 0.131245
H	-0.6422317249	 1.5724503574	 0.3068618782	 0.124804
H	 0.8215058837	-0.5520554637	-2.1213536171	 0.091887
H	 2.2304234039	-0.8381282767	-1.0709782908	 0.125967
H	 1.2087243777	-2.9341382693	-1.3785149066	 0.077857
H	 0.1284671144	-2.3894568254	 1.4110111281	 0.092429
H	-2.1645688483	-2.1873825482	-2.6244849163	 0.12365
H	-0.5033896875	-2.8197477071	-3.0667517856	 0.116816
H	-0.5835045181	-4.5160258412	-1.2574310308	 0.1212
H	-2.2505057197	-3.9604684166	-0.7344872518	 0.125097
59.7847	61.4392	83.3074	123.1657	164.9078	193.5846	222.1303	252.7822	314.63	420.6221	456.1097	510.1602	621.4581	768.5115	830.337	871.1056	904.7366	938.9761	983.6385	1013.4129	1034.678	1085.1608	1112.9062	1119.0744	1124.5456	1154.4853	1177.8956	1184.776	1197.7534	1220.2574	1274.2211	1311.7108	1326.6846	1346.2291	1399.6677	1413.5929	1468.2952	1483.0306	1487.3001	1491.7325	1518.4234	1518.9904	1836.9174	2909.6738	2934.8715	2980.1238	2987.1303	3068.8129	3078.5047	3097.5912	3101.852	3117.8709	3182.8571	3197.4158
COCC(C=O)N1CC1	COC[C@@H](C=O)N1CC1	
InChI=1S/C6H11NO2/c1-9-5-6(4-8)7-2-3-7/h4,6H,2-3,5H2,1H3	InChI=1S/C6H11NO2/c1-9-5-6(4-8)7-2-3-7/h4,6H,2-3,5H2,1H3/t6-/m1/s1
