21
gdb 101413	3.03773	1.03176	0.92982	2.8607	80.21	-0.2034	0.0325	0.2359	1370.0701	0.181946	-420.411252	-420.401254	-420.400309	-420.446754	35.967	
C	-0.180767266	 1.6132494161	-0.0403598751	-0.394949
C	 0.000468296	 0.0955247241	-0.0056409724	-0.118435
N	 0.7801396084	-0.4167970551	-1.1389560987	-0.060757
C	 2.1744092949	 0.0166427085	-1.1094676049	-0.344055
C	 0.6276812163	-1.8377337729	-1.3211661298	-0.094494
C	 1.1346642208	-2.4938458731	-2.6495985671	-0.203203
N	 1.9271769683	-3.4041946498	-1.8222754739	-0.314462
C	 1.5924539489	-2.854838153	-0.606779562	 0.389823
O	 1.9384620781	-3.0880588528	 0.5212862214	-0.365683
H	 0.7564570262	 2.1492755296	 0.1337375616	 0.120808
H	-0.5822844449	 1.9294166292	-1.0078840162	 0.121468
H	-0.8799438063	 1.9202666779	 0.7435334737	 0.116083
H	 0.4434411553	-0.2059806995	 0.9599979778	 0.104158
H	-0.9877331832	-0.3750396758	-0.0562010374	 0.09961
H	 2.7084791709	-0.316374602	-0.2034318015	 0.121368
H	 2.7077548483	-0.3747231848	-1.9799534739	 0.119158
H	 2.2282913883	 1.1060365972	-1.1625678435	 0.122262
H	-0.413293255	-2.1073809605	-1.1239367317	 0.102991
H	 0.3619386469	-2.9818183328	-3.251970452	 0.112031
H	 1.7263282814	-1.8287038033	-3.2850843942	 0.11637
H	 2.5221634964	-4.1829359374	-2.0619220703	 0.249908
53.5612	77.6913	102.0663	149.0156	204.5878	227.266	248.1433	322.7581	367.3145	387.686	399.1352	510.7653	527.046	703.0365	747.777	804.0936	809.809	893.2848	910.9809	992.6527	998.9853	1061.5161	1073.5638	1109.9562	1130.6309	1154.0187	1164.125	1167.1684	1185.155	1227.3771	1267.698	1289.7646	1341.1212	1374.3503	1390.368	1400.5378	1424.2903	1462.6503	1486.5455	1491.34	1504.0144	1508.8748	1516.1137	1533.4736	1881.1088	2952.8669	2968.7284	3041.6899	3043.8969	3051.8695	3076.0127	3086.1907	3093.293	3110.8323	3116.2769	3124.6753	3615.4136
CCN(C)C1CNC1=O	CCN(C)[C@H]1CNC1=O	
InChI=1S/C6H12N2O/c1-3-8(2)5-4-7-6(5)9/h5H,3-4H2,1-2H3,(H,7,9)	InChI=1S/C6H12N2O/c1-3-8(2)5-4-7-6(5)9/h5H,3-4H2,1-2H3,(H,7,9)/t5-/m0/s1
