16
gdb 54959	3.13991	1.07802	0.95819	3.5698	71.84	-0.2626	-0.0136	0.249	1238.7907	0.123273	-434.088192	-434.078686	-434.077742	-434.12291	33.667	
C	 0.0238953809	 1.6115435765	-0.4540057655	-0.466722
C	-0.0456535987	 0.14582546	-0.0764615044	 0.162584
N	 1.2206821581	-0.5982139068	-0.0601145995	-0.325532
C	 0.5269842391	-0.4108717676	 1.2124473562	-0.180335
C	 1.1846800058	 0.4935556139	 2.232674578	 0.44254
N	 0.8015148813	 0.2311548082	 3.5146951758	-0.533875
O	 1.9653405814	 1.3767889899	 1.9435741627	-0.352872
C	-1.2177841034	-0.5617635411	-0.555660918	 0.242604
N	-2.1447332247	-1.1305045427	-0.9505177625	-0.335111
H	 0.9246649929	 2.0481191776	-0.0243583807	 0.183345
H	 0.0529541027	 1.7101637331	-1.5428340954	 0.137476
H	-0.8552757546	 2.1461725639	-0.0829903212	 0.131746
H	 1.0975936824	-1.5502698979	-0.395923591	 0.255642
H	-0.0104310231	-1.2639820465	 1.6217702255	 0.103254
H	 0.1477610799	-0.493012044	 3.753930274	 0.265473
H	 1.1736756301	 0.8104670835	 4.2493208557	 0.269785
57.0132	111.8374	131.4066	151.193	192.1595	224.0873	281.5673	338.7515	371.4276	425.2907	545.5353	581.9117	594.0125	641.1762	662.6958	762.4419	819.4203	868.4874	924.7181	999.0137	1072.5214	1077.9899	1089.4089	1110.8257	1198.8101	1269.451	1310.2551	1337.7258	1411.5768	1465.6652	1491.2116	1494.2999	1620.236	1803.9079	2346.183	3051.9212	3118.9077	3126.4506	3169.2118	3512.0685	3606.1297	3741.6568
CC1(NC1C(N)=O)C#N	C[C@]1(N[C@H]1C(=O)N)C#N	
InChI=1S/C5H7N3O/c1-5(2-6)3(8-5)4(7)9/h3,8H,1H3,(H2,7,9)	InChI=1S/C5H7N3O/c1-5(2-6)3(8-5)4(7)9/h3,8H,1H3,(H2,7,9)/t3-,5-/m0/s1
