18
gdb 84674	2.59311	2.00212	1.54689	2.8701	75.15	-0.23	-0.0013	0.2287	913.1111	0.150245	-401.89807	-401.891038	-401.890094	-401.929161	28.81	
O	-0.1803317228	 1.4423008344	 0.2254184009	-0.426752
C	 0.0248697394	 0.0314561534	 0.0561662556	 0.046348
C	 0.9575709275	-0.5400710141	 1.1005842061	-0.113711
C	 0.5095534168	-1.2545919655	 2.1319585656	-0.055903
C	-0.9654561483	-1.4894541391	 2.2810662186	-0.111999
C	-1.82949244	-0.1847344919	 2.3589403583	-0.154213
N	-2.44201558	-0.4182081684	 1.0107933231	-0.147627
C	-1.6971973444	-1.7309996604	 0.9459741544	-0.051348
C	-1.3477011796	-0.6315052408	 0.0277710065	-0.014914
H	 0.6863204525	 1.857203674	 0.2944641755	 0.279983
H	 0.476014846	-0.1452790299	-0.9342987075	 0.071009
H	 2.0187764862	-0.3383870521	 0.9722674753	 0.087799
H	 1.189012646	-1.6395494362	 2.8870620359	 0.095321
H	-1.1994230606	-2.2142267124	 3.0605062636	 0.075949
H	-2.6159787423	-0.2452722823	 3.1144327776	 0.10692
H	-1.2893136755	 0.7593189508	 2.4462761328	 0.1208
H	-2.1669959293	-2.6589116162	 0.6347577365	 0.089585
H	-1.7760837917	-0.6889142133	-0.9686234086	 0.102752
128.0881	227.4817	265.6588	315.7769	369.2158	462.842	485.6032	589.4345	637.8106	715.6441	738.44	776.0195	786.1608	851.7851	865.333	912.2666	938.8241	987.0152	990.551	1018.9236	1030.4861	1050.0724	1073.3509	1077.9951	1101.5572	1182.0889	1187.8028	1221.9087	1239.2806	1255.788	1295.2106	1326.0701	1332.0033	1346.3471	1407.9611	1426.7155	1432.4235	1492.4024	1707.6235	2954.9156	3067.5989	3107.9387	3135.3823	3144.8047	3148.8164	3160.5786	3174.0763	3805.8561
OC1C=CC2CN3C2C13	O[C@H]1C=C[C@H]2CN3[C@H]2[C@H]13	
InChI=1S/C7H9NO/c9-5-2-1-4-3-8-6(4)7(5)8/h1-2,4-7,9H,3H2	InChI=1S/C7H9NO/c9-5-2-1-4-3-8-6(4)7(5)8/h1-2,4-7,9H,3H2/t4-,5-,6+,7-,8?/m0/s1
