19
gdb 41485	3.13764	1.66401	1.34172	2.2572	74.07	-0.243	0.0657	0.3086	991.9455	0.161544	-422.997394	-422.990347	-422.989403	-423.0288	28.442	
C	-0.1675195542	 1.4243358157	-0.1548494904	-0.160326
O	 1.0769039021	 1.7024569062	 0.5368855969	-0.296455
C	 1.5337317242	 0.3317799407	 0.4266321303	 0.045078
C	 1.3250150566	-0.4808953414	 1.7202047303	-0.259404
C	-0.1394700503	-0.8033847378	 1.2803328499	-0.081997
C	-0.4621617749	-2.2354311918	 0.8213997244	-0.242319
C	-0.0328790715	-2.2442602466	-0.6617076139	-0.105293
O	-0.222626388	-0.906454418	-1.1315247196	-0.28797
C	 0.1051375635	-0.0686462331	-0.076832197	 0.388228
H	-1.0419663721	 1.8130744606	 0.3801873302	 0.102316
H	-0.1571300858	 1.8170072199	-1.1801485378	 0.107841
H	 2.4700976641	 0.2470127903	-0.1318113073	 0.075204
H	 1.9655938649	-1.3673663852	 1.7782354095	 0.096495
H	 1.4315069928	 0.0965886683	 2.6407315285	 0.112616
H	-0.9170284242	-0.3878531656	 1.9236630321	 0.075721
H	 0.0509445093	-3.0059623179	 1.403475115	 0.105809
H	-1.5380112536	-2.418157529	 0.8965826612	 0.111677
H	 1.0258288101	-2.5271351376	-0.7633376926	 0.099229
H	-0.627389313	-2.9086884578	-1.2925181798	 0.113549
107.5859	185.6039	246.5307	338.7306	374.2227	432.4726	476.3604	624.3117	668.4858	726.8833	787.4723	825.2369	862.4273	897.9777	907.9147	941.8579	960.693	987.8211	1009.4882	1027.7422	1068.534	1079.3698	1098.1036	1125.417	1148.7116	1174.6559	1190.2166	1210.0036	1251.1602	1252.6461	1267.5958	1287.0841	1298.649	1318.9391	1337.733	1365.064	1399.8643	1463.0511	1489.269	1516.7015	1520.3856	2991.4416	3010.8454	3047.0595	3055.9679	3062.9825	3071.7085	3088.1923	3099.7839	3109.9809	3118.5928
C1OC2CC3CCOC123	C1O[C@H]2C[C@@H]3CCO[C@]123	
InChI=1S/C7H10O2/c1-2-9-7-4-8-6(7)3-5(1)7/h5-6H,1-4H2	InChI=1S/C7H10O2/c1-2-9-7-4-8-6(7)3-5(1)7/h5-6H,1-4H2/t5-,6-,7-/m0/s1
