19
gdb 124497	2.48291	1.29145	1.04289	1.3553	78.11	-0.2044	0.0271	0.2315	1233.0718	0.159523	-419.230745	-419.221256	-419.220311	-419.265636	34.632	
C	-0.0052969661	 1.5626462856	-0.0046974771	-0.381413
C	 0.008955292	 0.023520441	 0.0694479616	-0.096152
C	 0.7668664924	-0.4658734986	 1.3187024177	-0.381457
C	-1.3722703363	-0.5564604208	-0.0137124593	 0.311491
C	-1.9492031098	-1.3891641317	-0.9556243152	 0.14087
O	-1.2981258635	-1.8603140802	-2.0600370577	-0.452734
C	-3.2729805609	-1.6093887763	-0.5199175005	-0.117861
N	-3.5187024037	-0.9615191603	 0.6188768258	-0.227199
N	-2.3640540498	-0.3387447455	 0.9006148313	-0.262772
H	 1.0156508085	 1.957894886	-0.0092542991	 0.114727
H	-0.5132410373	 1.9097070231	-0.9086316776	 0.126076
H	-0.5229410231	 1.9984776728	 0.8578791972	 0.105202
H	 0.5384653876	-0.3510934965	-0.8137200884	 0.105872
H	 0.8067040381	-1.5580005811	 1.3537601094	 0.126072
H	 1.7924803532	-0.0828899631	 1.3220683155	 0.114748
H	 0.2833233159	-0.1192664209	 2.2395696036	 0.105182
H	-1.902352635	-2.4159136866	-2.5603705104	 0.299212
H	-4.0464845072	-2.2055183507	-0.9834194778	 0.101058
H	-2.3103470951	 0.2231938237	 1.732514421	 0.269078
28.5683	131.5357	162.9687	173.7645	226.5548	249.2134	280.6155	301.0281	390.4448	423.9728	484.3452	525.3913	614.4443	696.118	724.2219	724.2607	835.9407	884.4026	930.2459	951.8113	960.5363	1076.6034	1103.1086	1122.0585	1150.8808	1182.926	1242.8693	1277.507	1295.5628	1341.8282	1388.1568	1398.5288	1399.7994	1419.1976	1457.4005	1484.3744	1491.531	1502.8853	1505.5439	1538.8912	1660.7032	3027.3962	3030.6161	3048.7833	3090.5693	3098.9842	3114.3328	3116.3633	3231.6915	3677.9601	3845.2454
CC(C)C1=C(O)C=NN1	CC(C)c1c(O)cn[nH]1	
InChI=1S/C6H10N2O/c1-4(2)6-5(9)3-7-8-6/h3-4,9H,1-2H3,(H,7,8)	InChI=1S/C6H10N2O/c1-4(2)6-5(9)3-7-8-6/h3-4,9H,1-2H3,(H,7,8)
