14
gdb 50881	4.45705	0.80641	0.74112	5.8844	66.12	-0.2648	-0.0199	0.2449	1455.0808	0.099777	-470.028849	-470.019807	-470.018863	-470.064287	30.593	
N	 0.2705913553	 0.9445712249	-0.8892851481	-0.510431
C	 0.1651212802	 0.1189788022	 0.0534494874	 0.509568
N	-1.0379505595	-0.4140394252	 0.5047038939	-0.360506
C	-2.3129413547	-0.23658444	-0.0172287073	 0.167244
O	-2.6210387607	 0.4432346764	-0.9548552501	-0.248839
O	 1.1438611367	-0.4442148634	 0.8552812384	-0.253971
C	 2.4612504795	 0.0467997487	 0.7132057393	-0.225082
C	 3.1431611653	-0.4610246104	-0.4878507881	 0.262751
N	 3.6974008125	-0.854950813	-1.4212290152	-0.282145
H	 1.2265119136	 1.1914109899	-1.1242849013	 0.241498
H	-0.9528678249	-1.0360366118	 1.294184007	 0.265887
H	-3.037222516	-0.8307669855	 0.5757813195	 0.088129
H	 2.477606512	 1.1436510796	 0.7018679751	 0.167534
H	 3.0028920407	-0.2943933627	 1.5988000396	 0.178362
43.3009	56.8302	78.4911	183.9416	222.4302	248.2356	310.5329	363.7414	383.0062	531.0738	567.031	649.7145	722.0818	773.4162	783.4649	915.9503	948.7742	996.2109	1024.8598	1039.4855	1106.3195	1187.0558	1243.7049	1298.0017	1394.4399	1448.7711	1470.3865	1535.6601	1764.3188	1862.1745	2365.8573	2931.6212	3041.7477	3112.0159	3560.0527	3632.5085
N=C(NC=O)OCC#N	N=C(NC=O)OCC#N	
InChI=1S/C4H5N3O2/c5-1-2-9-4(6)7-3-8/h3H,2H2,(H2,6,7,8)	InChI=1S/C4H5N3O2/c5-1-2-9-4(6)7-3-8/h3H,2H2,(H2,6,7,8)
