20
gdb 83133	1.99587	1.79983	1.45446	2.9581	80.22	-0.2495	0.0297	0.2792	1054.5839	0.171571	-403.169306	-403.16056	-403.159616	-403.202264	33.412	
C	-0.1185543754	 1.5641240588	 0.0831303841	-0.428122
C	 0.0453931111	 0.0588625427	 0.0792726995	-0.050227
C	 1.3354053326	-0.6532223616	-0.2328666349	-0.1372
C	 2.6148921545	 0.1487649383	-0.1052428559	-0.113002
O	 2.643243605	 0.6612026286	 1.2399716426	-0.248955
C	 1.6869985795	 0.0576946696	 2.016887833	 0.363787
N	 1.6208620814	 0.1623827972	 3.2745936251	-0.552252
C	 0.7545554729	-0.7402309185	 1.168029958	 0.236969
C	 0.1155433853	-1.9600424973	 1.7830227714	-0.475696
H	 0.7638772738	 2.0791932703	 0.4693848886	 0.139647
H	-0.3071386471	 1.9326828741	-0.9313623933	 0.116551
H	-0.9705311102	 1.8553675339	 0.7058002856	 0.128111
H	-0.8309802609	-0.4676826887	-0.2926126656	 0.091066
H	 1.334409379	-1.508073767	-0.8991908513	 0.095603
H	 3.4986116697	-0.4811615702	-0.2612918227	 0.116343
H	 2.6743180009	 1.0046536248	-0.7858931189	 0.11786
H	 2.3949534518	 0.7266809657	 3.6285445964	 0.220469
H	-0.4850918008	-1.6737232699	 2.6509355565	 0.145769
H	-0.533138799	-2.4661954766	 1.0618458316	 0.108994
H	 0.8707933857	-2.6735951342	 2.1273617502	 0.124283
116.3681	171.3931	183.0227	199.4386	217.5832	239.2795	272.7168	391.7749	459.5267	511.0792	581.5872	667.6451	696.4466	761.5204	793.5325	845.3795	884.5022	894.1164	944.0543	975.2422	1013.7482	1023.8074	1054.708	1079.0721	1111.4067	1128.6141	1132.3312	1164.4869	1224.4121	1231.7101	1265.0059	1345.4191	1359.4314	1391.8851	1416.7153	1423.2477	1459.7985	1481.7922	1498.0559	1498.9135	1503.4579	1524.5157	1768.8728	3031.4504	3036.1686	3038.6945	3073.0179	3094.7248	3105.7254	3116.1987	3118.4879	3135.6101	3177.9342	3475.2852
CC1C2COC(=N)C12C	C[C@H]1[C@H]2CO[C]([NH])[C@@]12C	
InChI=1S/C7H11NO/c1-4-5-3-9-6(8)7(4,5)2/h4-5,8H,3H2,1-2H3	InChI=1S/C7H11NO/c1-4-5-3-9-6(8)7(4,5)2/h4-5,8H,3H2,1-2H3/t4-,5+,7-/m0/s1
