17
gdb 80302	2.4339	1.64507	1.31424	5.0566	68.08	-0.2754	0.0404	0.3159	1033.6479	0.135136	-459.004587	-458.996321	-458.995377	-459.037386	30.748	
C	-0.0625112112	 1.5517437497	-0.0049285199	-0.428693
C	 0.0679949262	 0.0459937446	 0.0191282015	-0.120413
C	 1.3736577524	-0.6888414418	-0.2143376893	 0.000629
O	 2.5634210457	 0.0531480232	-0.0472340373	-0.240485
C	 2.6725378658	 0.4528912708	 1.2526997373	 0.48363
O	 3.5624444402	 1.1077129309	 1.6893085546	-0.372093
O	 1.6002492862	 0.0139662019	 1.9691189472	-0.273141
C	 0.7254081735	-0.7402479344	 1.1381276785	 0.367764
C	 0.1209541575	-1.9222430859	 1.8346557447	-0.471765
H	 0.8097170944	 2.0547345638	 0.4165878546	 0.154558
H	-0.1847086944	 1.907380435	-1.0325021153	 0.131948
H	-0.9371780057	 1.8691100282	 0.5708478967	 0.131319
H	-0.7775421589	-0.4889748946	-0.4084403445	 0.10297
H	 1.4841888146	-1.5150249689	-0.9053396961	 0.12345
H	-0.5352716064	-1.599553181	 2.6489466018	 0.142604
H	-0.4744507799	-2.5100724037	 1.1309395953	 0.128434
H	 0.90014859	-2.5655711175	 2.2543914302	 0.139285
120.6493	132.0419	190.0956	201.5764	214.7424	267.0843	316.5893	492.6866	529.2639	592.5991	625.4585	726.4134	773.5523	776.0082	805.434	873.6912	918.1239	977.2325	996.2386	1023.0532	1051.9715	1108.6831	1123.8585	1145.0964	1148.8974	1172.8243	1254.0362	1299.6661	1351.5388	1417.6265	1426.5609	1463.9015	1478.5182	1488.9492	1499.5772	1507.6149	1927.6664	3042.2556	3047.6584	3108.7364	3111.5575	3122.4338	3128.5544	3142.6285	3194.4883
CC1C2OC(=O)OC12C	C[C@H]1[C@H]2OC(=O)O[C@@]12C	
InChI=1S/C6H8O3/c1-3-4-6(3,2)9-5(7)8-4/h3-4H,1-2H3	InChI=1S/C6H8O3/c1-3-4-6(3,2)9-5(7)8-4/h3-4H,1-2H3/t3-,4+,6-/m0/s1
