17
gdb 94781	3.81796	1.17238	1.02899	3.7853	69.83	-0.2462	-0.021	0.2252	1152.624	0.135017	-458.949099	-458.940861	-458.939917	-458.982024	30.889	
O	-0.0919235427	 1.4630295633	 0.168055395	-0.42512
C	-0.0284079336	 0.057471734	-0.0059626345	 0.080046
C	 0.6600505807	-0.6651529102	 1.1861692264	-0.135474
O	-0.0313599652	-1.8887531898	 1.4096358551	-0.280442
C	-1.3155447815	-1.7718239452	 0.8784462848	 0.350886
C	-2.1632478827	-0.5727393933	 1.2836152428	-0.35092
C	-1.4177386139	-0.5480612104	-0.0195573305	-0.11945
C	-1.9891818271	-3.0421780238	 0.5314209996	 0.095202
O	-1.5235186107	-4.1420173382	 0.6772295905	-0.261949
H	 0.7875029073	 1.8259992535	 0.0219730698	 0.289365
H	 0.4731833189	-0.190893725	-0.9515949921	 0.084586
H	 1.7121957173	-0.9039032649	 1.0065032131	 0.114814
H	 0.5965005409	-0.0066150172	 2.0636244289	 0.109179
H	-3.2406388043	-0.6882441424	 1.2366752256	 0.129268
H	-1.8069898259	 0.0308388423	 2.1098447016	 0.14349
H	-1.9676457661	-0.5759079558	-0.9523819971	 0.106888
H	-3.0097012214	-2.8838312468	 0.109802841	 0.069633
82.6169	142.2011	179.8788	221.5113	252.869	311.162	387.0069	407.5191	501.7134	545.9284	625.8727	683.7943	765.8152	816.4192	836.2702	930.587	956.6447	985.6784	1014.469	1035.8635	1050.9094	1054.9585	1082.9617	1106.6549	1141.9285	1222.4736	1239.8899	1244.342	1294.575	1350.1679	1354.1971	1385.3582	1437.2634	1442.378	1476.8513	1527.4968	1829.7454	2855.6014	3003.7948	3012.7607	3087.5914	3141.8275	3185.6426	3232.9223	3819.3593
OC1COC2(CC12)C=O	O[C@H]1CO[C@]2(C[C@@H]12)C=O	
InChI=1S/C6H8O3/c7-3-6-1-4(6)5(8)2-9-6/h3-5,8H,1-2H2	InChI=1S/C6H8O3/c7-3-6-1-4(6)5(8)2-9-6/h3-5,8H,1-2H2/t4-,5-,6+/m0/s1
