18
gdb 29581	2.87832	1.34933	0.97401	1.8229	78.12	-0.1921	0.0318	0.2238	1204.6688	0.149168	-401.954999	-401.946741	-401.945797	-401.988283	31.663	
N	 0.1901135604	 1.3585781423	-0.1808572681	-0.610028
C	 0.0562392825	-0.0327102016	-0.0771418529	 0.113075
C	-1.0713203815	-0.7966704315	-0.0720719818	-0.083215
O	-0.7493131065	-2.1131384372	 0.137040799	-0.152647
C	 0.5959324441	-2.1715765808	 0.2605666801	-0.103518
C	 1.1605801407	-0.9389241547	 0.1385970884	 0.208453
C	 2.5866295207	-0.5539475123	 0.2227766297	-0.137608
C	 3.6804903978	-1.5161406912	-0.1621301224	-0.269497
C	 3.4038397867	-0.3226468835	-1.0387613378	-0.259565
H	 1.0290073844	 1.6219204837	-0.6831604389	 0.247872
H	-0.6115579731	 1.8055093998	-0.6062666677	 0.241785
H	-2.1193034971	-0.5786611683	-0.1893874756	 0.1191
H	 1.013043344	-3.1498210536	 0.4357916688	 0.130235
H	 2.8229747066	 0.1211445231	 1.0424263124	 0.100121
H	 4.5873303405	-1.5212955457	 0.431817892	 0.11327
H	 3.3886596528	-2.4900870143	-0.5382539418	 0.115625
H	 2.916860543	-0.5031318953	-1.9908594254	 0.115861
H	 4.120768594	 0.4911965212	-1.0433949382	 0.110681
49.7479	145.4888	151.8396	242.3821	287.4971	309.4549	414.3343	498.0645	580.463	606.0159	656.1079	700.8133	709.973	768.5863	775.6528	803.598	829.8776	883.3286	917.3153	927.3743	1056.8746	1074.0342	1081.727	1087.6628	1104.7869	1133.8551	1184.3925	1200.3629	1207.0637	1233.0867	1261.6814	1329.4941	1399.8985	1434.3199	1465.6501	1500.5712	1593.814	1644.5641	1679.4468	3124.3944	3132.0693	3140.9175	3214.1351	3229.2128	3270.0152	3279.2091	3532.0189	3624.0919
NC1=COC=C1C1CC1	Nc1cocc1C1CC1	
InChI=1S/C7H9NO/c8-7-4-9-3-6(7)5-1-2-5/h3-5H,1-2,8H2	InChI=1S/C7H9NO/c8-7-4-9-3-6(7)5-1-2-5/h3-5H,1-2,8H2
