14
gdb 33491	2.24833	1.7732	1.19911	4.8789	70.29	-0.2644	-0.0313	0.2331	1012.983	0.101272	-395.688265	-395.680584	-395.67964	-395.720569	28.603	
N	-0.0104626725	-1.1855716802	-0.110262713	-0.322028
C	-0.0113496454	-0.0323867389	-0.0534849386	 0.302464
C	 0.0397800649	 1.4349077839	 0.0287671493	 0.007923
N	-0.1555182952	 1.9769365778	 1.4233328116	-0.346481
C	 1.1024742454	 2.7542763205	 1.2901395986	 0.002715
C	 2.2272422175	 1.7782193857	 1.2087842382	-0.286619
C	 1.4386969942	 2.1003615855	-0.0384196303	-0.102515
C	-0.8815358346	 2.0371261205	-0.9393139717	 0.268653
N	-1.6065414773	 2.5516711181	-1.677263374	-0.317231
H	-0.9830852968	 2.5640482054	 1.4561216272	 0.253157
H	 1.1794022704	 3.7819596502	 1.618715212	 0.122635
H	 3.2253414066	 2.2036070237	 1.203316073	 0.136241
H	 2.134775999	 0.8117308671	 1.6947877677	 0.147327
H	 1.8704848537	 2.4763952208	-0.95455658	 0.133759
119.173	132.4798	168.5506	190.2682	323.9339	436.3078	482.004	518.9258	551.7462	583.193	589.7837	757.1468	772.625	811.1615	880.8484	950.7132	964.0493	1011.0266	1025.1975	1048.0523	1071.9417	1091.8714	1100.875	1162.6626	1195.3278	1268.7668	1327.5488	1396.8463	1476.7942	2358.5074	2366.7112	3128.3488	3208.4024	3218.5661	3226.9364	3536.097
N#CC1(NC2CC12)C#N	N#CC1(N[C@H]2C[C@@H]12)C#N	
InChI=1S/C6H5N3/c7-2-6(3-8)4-1-5(4)9-6/h4-5,9H,1H2	InChI=1S/C6H5N3/c7-2-6(3-8)4-1-5(4)9-6/h4-5,9H,1H2/t4-,5+/m1/s1
