23
gdb 58035	1.92004	1.32094	0.9482	1.0832	87.69	-0.2577	0.045	0.3026	1381.7027	0.201907	-388.268186	-388.256873	-388.255929	-388.30463	41.928	
C	-0.0263255061	 1.5488995996	 0.047279374	-0.402046
C	-0.0499381583	 0.0151090468	 0.0056208922	 0.048553
C	-1.4992723782	-0.4911651877	 0.0226647306	-0.410794
C	 0.7439011678	-0.5238863881	-1.2231082477	-0.172201
C	 2.124549696	-0.0356138628	-1.2081410307	 0.298597
C	 3.2794021715	 0.3008453396	-1.1542892213	-0.449649
C	 0.7686104066	-2.0795733354	-1.3074764937	 0.120711
C	 1.397137093	-2.5918148977	-2.6042446521	-0.411434
O	 1.3944660225	-2.6381136881	-0.1622997011	-0.434599
H	 0.9951535393	 1.9366782953	 0.0527625944	 0.127213
H	-0.5429635965	 1.9728212611	-0.8228995387	 0.107992
H	-0.5356099385	 1.9163094806	 0.9438678517	 0.110345
H	 0.4578354147	-0.3689003949	 0.8976082825	 0.092651
H	-2.0198027714	-0.2391355606	-0.9097382114	 0.108471
H	-1.5643536808	-1.5720659685	 0.1683345655	 0.128906
H	-2.0507618427	-0.0196284461	 0.8422430533	 0.112615
H	 0.2502494638	-0.15173251	-2.13315962	 0.096665
H	 4.2881591263	 0.6323694339	-1.1278470274	 0.196952
H	-0.2656007948	-2.431198745	-1.2624051571	 0.090983
H	 2.4287140772	-2.2400183577	-2.7058178152	 0.124387
H	 1.4011414018	-3.6849330144	-2.6025047199	 0.122681
H	 0.8342605397	-2.2478741739	-3.478747014	 0.111039
H	 2.294883427	-2.2895609862	-0.1360825338	 0.281964
34.9166	75.5828	149.0761	166.4497	178.1772	232.3892	242.836	246.8691	312.3986	335.4734	378.9243	400.8318	412.1789	418.8275	488.3551	533.3704	628.2949	645.9957	669.7744	806.3456	859.9261	906.0547	931.8024	955.281	966.74	978.3509	1053.0389	1071.7007	1120.2433	1138.6178	1176.3019	1186.1817	1247.8433	1273.4747	1336.0122	1344.9227	1352.0524	1369.8506	1400.5753	1404.2452	1421.4809	1429.7527	1486.6563	1490.0979	1495.2337	1498.7951	1503.6675	1516.3117	2218.3741	2997.7763	3024.856	3028.5146	3036.171	3049.2806	3074.611	3088.7073	3097.0909	3107.7674	3118.5721	3121.2663	3122.6175	3501.3072	3767.6938
CC(C)C(C#C)C(C)O	CC(C)[C@@H](C#C)[C@@H](C)O	
InChI=1S/C8H14O/c1-5-8(6(2)3)7(4)9/h1,6-9H,2-4H3	InChI=1S/C8H14O/c1-5-8(6(2)3)7(4)9/h1,6-9H,2-4H3/t7-,8-/m1/s1
