15
gdb 123461	5.09483	0.92757	0.89695	2.801	66.67	-0.2791	-0.0266	0.2525	1288.2584	0.113233	-453.919992	-453.912422	-453.911477	-453.953797	26.684	
C	-0.0735686485	 1.6209395626	 0.0117509959	-0.35911
C	-0.1780249712	 0.1461629673	 0.3561941477	 0.0935
C	-1.2977777177	-0.66812386	-0.1271856856	-0.178151
O	-0.0013672954	-0.7690281762	-0.7205267089	-0.222279
C	 1.3383369612	 2.0892016763	-0.1066049033	 0.442361
N	 1.9227496462	 2.6579775231	-1.1191585789	-0.308422
C	 3.1928493894	 2.855268105	-0.6346423412	 0.040739
N	 3.397537939	 2.4446986453	 0.5856159041	-0.111823
O	 2.1468507809	 1.926830442	 0.9507892848	-0.200507
H	-0.5700840429	 1.8213943279	-0.9394224689	 0.151216
H	-0.5764842237	 2.2046185307	 0.7933175279	 0.14196
H	 0.3168792528	-0.1477459495	 1.281770348	 0.116825
H	-1.6220573782	-1.5353767602	 0.445354765	 0.124149
H	-2.0629716264	-0.2105741526	-0.7531166051	 0.119776
H	 3.9832497846	 3.3165168182	-1.2087114214	 0.149765
40.5185	58.4731	124.1069	267.407	332.6535	365.2361	452.3013	653.9334	687.9832	770.3131	807.6521	864.3064	911.727	932.4209	945.0316	967.2774	979.8299	1023.5996	1094.7015	1099.6494	1161.8122	1167.9423	1185.9706	1217.2431	1264.7249	1294.7442	1318.1371	1337.6447	1442.7318	1452.5903	1517.0202	1531.6589	1624.9516	3038.7221	3086.3878	3113.6153	3131.34	3174.6557	3262.4377
C(C1CO1)C1=NC=NO1	C([C@H]1CO1)c1ncno1	
InChI=1S/C5H6N2O2/c1(4-2-8-4)5-6-3-7-9-5/h3-4H,1-2H2	InChI=1S/C5H6N2O2/c1(4-2-8-4)5-6-3-7-9-5/h3-4H,1-2H2/t4-/m0/s1
