16
gdb 125787	3.36194	1.56883	1.08401	3.7097	78.03	-0.2214	-0.0331	0.1883	1072.1285	0.125673	-400.757441	-400.750234	-400.74929	-400.789024	27.873	
C	-0.0186423429	 1.5178758834	-0.0294496047	-0.500109
C	-0.0087858701	 0.024653684	 0.0476844041	 0.224641
N	-0.0367327752	-0.6777845723	-1.0738201746	-0.213599
O	-0.0198033375	-2.0438075905	-0.7009408023	-0.241288
C	 0.0184530285	-2.0806098657	 0.6279893732	 0.403902
C	 0.027815112	-0.832679528	 1.1749425484	 0.102558
C	 0.0711379837	-0.973618202	 2.6671850013	-0.429413
C	 0.0833818618	-2.4891398697	 2.8310651279	-0.06732
C	 0.0524835453	-3.1224836573	 1.6381545384	-0.212668
H	 0.875936204	 1.939278433	 0.4409756988	 0.135309
H	-0.0508166939	 1.8399437725	-1.0718043542	 0.152259
H	-0.88830531	 1.9303593436	 0.4927424262	 0.135286
H	 0.9603289338	-0.5221635957	 3.1266690062	 0.137675
H	-0.7948631087	-0.5309451861	 3.1767720799	 0.137673
H	 0.1133845911	-2.9698048622	 3.8004095914	 0.112423
H	 0.052703168	-4.188453157	 1.4612771501	 0.122672
134.3068	164.6115	238.6092	241.0024	338.6502	441.2506	496.0836	598.1218	642.9975	649.2629	688.3294	755.8511	779.4166	861.669	892.8439	926.0271	931.4716	944.6521	1025.4393	1064.6287	1069.3938	1120.3781	1137.2754	1203.4745	1266.5226	1312.8122	1399.7168	1411.7086	1432.6551	1467.1861	1482.472	1499.4765	1522.9744	1563.7209	1631.9805	3029.1919	3040.9991	3056.2531	3096.0726	3140.4678	3217.8152	3246.2471
CC1=NOC2=C1CC=C2	Cc1noc2c1CC=C2	
InChI=1S/C7H7NO/c1-5-6-3-2-4-7(6)9-8-5/h2,4H,3H2,1H3	InChI=1S/C7H7NO/c1-5-6-3-2-4-7(6)9-8-5/h2,4H,3H2,1H3
