18
gdb 19529	3.41713	1.87112	1.73324	0.7713	67.02	-0.2159	0.0802	0.2961	859.3141	0.154709	-384.909368	-384.901813	-384.900869	-384.941335	27.958	
C	 0.3022373601	 0.8550992977	-0.4631402304	-0.236236
O	-0.3802468474	-0.0965631971	 0.3378868877	-0.239769
C	 0.4234065414	-0.6179629445	 1.3446824389	 0.076832
C	 0.2033432569	-2.0489754629	 1.7728592326	-0.147957
C	-0.5624400851	-2.9631374169	 0.8278426373	-0.237994
C	 0.1812406243	-2.8239825354	-0.5209438999	-0.070796
O	 1.4632583654	-2.2397250091	-0.2492336033	-0.261719
C	 1.463959584	-1.6726875963	 1.0307329883	 0.055267
H	 1.1684479577	 0.4036073379	-0.9619350174	 0.130081
H	-0.4088914048	 1.2092690953	-1.2131910481	 0.12391
H	 0.6418731072	 1.7129233764	 0.1363658086	 0.104693
H	 0.6749528459	 0.0917153983	 2.1370342207	 0.080947
H	 0.1988419456	-2.2789729903	 2.8318794128	 0.091313
H	-0.5137633176	-3.9880311754	 1.208252991	 0.105914
H	-1.6159636048	-2.6902080401	 0.7261030914	 0.117008
H	 0.3525285697	-3.7858356412	-1.0159334149	 0.100242
H	-0.3771278181	-2.1731867877	-1.199695275	 0.111215
H	 2.4544802094	-1.6441833488	 1.4716540697	 0.097048
98.8878	139.8097	173.3823	190.1223	253.7326	320.9616	512.0689	636.9935	705.8722	744.7468	758.2579	791.2478	848.3787	909.458	950.3199	974.9074	1016.8731	1038.3543	1079.6396	1098.1612	1109.6281	1134.5514	1155.8146	1181.6277	1204.1921	1225.5615	1249.0437	1258.7659	1301.9532	1309.6699	1351.0937	1400.9625	1427.2244	1480.7403	1487.5181	1491.9111	1507.0854	1523.4725	2990.8437	3041.0505	3055.8843	3060.1396	3066.0125	3079.7766	3105.6004	3120.3143	3167.5977	3179.0161
COC1C2CCOC12	CO[C@H]1[C@H]2CCO[C@@H]12	
InChI=1S/C6H10O2/c1-7-5-4-2-3-8-6(4)5/h4-6H,2-3H2,1H3	InChI=1S/C6H10O2/c1-7-5-4-2-3-8-6(4)5/h4-6H,2-3H2,1H3/t4-,5+,6-/m1/s1
