16
gdb 84605	2.56602	1.6265	1.25317	3.5332	73.73	-0.2696	-0.0251	0.2444	1021.4169	0.125366	-396.924946	-396.917211	-396.916267	-396.957108	29.249	
C	-0.119873095	 1.5737825864	-0.0028721872	-0.398544
C	 0.0629019025	 0.0580039678	 0.0130819034	-0.027732
N	 0.868603998	-0.4193228904	-1.1248316443	-0.198812
C	 1.7826391173	-1.1743846298	-0.6752839903	 0.032945
N	 1.8589961237	-1.4248675462	 0.736721737	-0.14614
C	 2.2258813436	-0.1857469156	 1.4602107565	-0.273967
C	 0.7882029082	-0.5233250252	 1.2505275695	 0.155256
C	-0.0090495371	-0.9858090558	 2.355665203	 0.233451
N	-0.6840577429	-1.3100953437	 3.2364553414	-0.332321
H	 0.8411826577	 2.0913273201	 0.0639896278	 0.121918
H	-0.6054463968	 1.8778895139	-0.9330767465	 0.142423
H	-0.7452095213	 1.8914002009	 0.8365432289	 0.135028
H	-0.9249038432	-0.4137439357	-0.0557317996	 0.118603
H	 2.5175052506	-1.6690763501	-1.3032437883	 0.143444
H	 2.6671804706	-0.3465140248	 2.437848607	 0.151955
H	 2.6439730442	 0.6307312581	 0.8784904317	 0.142492
112.9721	155.6243	210.8163	221.5907	269.9338	376.5624	426.6397	519.6318	554.6683	575.877	605.9039	722.7854	800.5707	842.4831	861.8595	919.1006	926.523	955.2666	1038.607	1071.0679	1107.0212	1117.7534	1135.0611	1152.8879	1218.5128	1280.6375	1320.2891	1338.7776	1380.4637	1408.9495	1487.2179	1491.0686	1498.4349	1686.9316	2359.4633	3036.7071	3048.3306	3120.7704	3123.3652	3131.7675	3194.7341	3221.5827
CC1N=CN2CC12C#N	C[C@H]1N=CN2C[C@@]12C#N	
InChI=1S/C6H7N3/c1-5-6(2-7)3-9(6)4-8-5/h4-5H,3H2,1H3	InChI=1S/C6H7N3/c1-5-6(2-7)3-9(6)4-8-5/h4-5H,3H2,1H3/t5-,6+,9?/m1/s1
