16
gdb 17094	4.75483	1.6558	1.57953	4.9428	68.18	-0.2465	0.029	0.2756	843.7268	0.134008	-342.770066	-342.763785	-342.762841	-342.80045	24.961	
N	-0.0678529837	-1.1366950186	-0.1431647237	-0.331782
C	-0.0281951474	 0.0140392761	-0.0449990389	 0.311703
C	 0.0394868844	 1.478236454	 0.0440429395	-0.155052
N	-0.4228285635	 1.9832090996	 1.376481725	-0.294712
C	 0.7630419943	 2.773281354	 1.7883369166	 0.008764
C	 1.2201425312	 3.5045881233	 0.4919670909	-0.241685
C	 1.4855215228	 2.0373426602	 0.0382970545	-0.029913
C	 1.906086494	 1.7650194249	 1.5145926193	-0.214668
H	-0.5483653917	 1.8882790437	-0.7849909566	 0.117199
H	-1.2286645749	 2.5874042303	 1.2494566016	 0.225552
H	 0.6255847786	 3.2727262269	 2.7463105858	 0.080244
H	 0.4778362799	 4.0946518431	-0.0549060288	 0.090303
H	 2.145688582	 4.0710259907	 0.6111955686	 0.109143
H	 2.1059993643	 1.7775827899	-0.8175098809	 0.089668
H	 2.8929153677	 2.1689948371	 1.74219289	 0.10897
H	 1.7923776016	 0.7541450548	 1.9100160669	 0.126266
127.5812	169.2949	342.6586	448.236	476.2502	529.7597	572.0316	671.7466	807.3764	825.6942	843.8434	870.3772	879.7287	888.2612	975.7174	984.93	998.4736	1027.685	1044.6674	1070.3372	1104.3343	1118.9321	1130.2589	1209.9671	1219.0254	1251.3498	1265.839	1283.7904	1317.2408	1363.6008	1417.9746	1479.1438	1513.4399	2358.3589	3041.8557	3050.3378	3082.4607	3122.6703	3131.5377	3138.107	3149.8273	3518.1478
N#CC1NC2CC1C2	N#C[C@H]1N[C@@H]2C[C@H]1C2	
InChI=1S/C6H8N2/c7-3-6-4-1-5(2-4)8-6/h4-6,8H,1-2H2	InChI=1S/C6H8N2/c7-3-6-4-1-5(2-4)8-6/h4-6,8H,1-2H2/t4-,5+,6-/m1/s1
