20
gdb 70413	2.25045	1.50094	1.39032	2.179	79.56	-0.2329	-0.0251	0.2077	1083.406	0.169078	-403.122162	-403.112974	-403.11203	-403.155736	34.787	
C	-0.0476001871	 1.5372450114	 0.0820624284	-0.523203
C	 0.1184908969	 0.0487933391	 0.0341353756	 0.308099
N	-0.7874802435	-0.8654036039	 0.7659131677	-0.377242
C	 0.6806340502	-0.924863512	 1.005503658	-0.089312
C	 1.2591294873	-1.8021368365	-0.1021806406	-0.280431
C	 0.670816347	-0.8078598327	-1.1633985333	 0.188321
C	-0.3711949055	-1.3277481318	-2.1505672857	-0.476272
C	 1.7478864041	-0.0281837541	-1.8890501836	 0.105008
O	 2.9286695062	-0.0606621232	-1.6498370865	-0.254969
H	 0.8527623954	 2.0529193286	-0.2684010774	 0.138146
H	-0.8886700683	 1.8682515467	-0.538674628	 0.130552
H	-0.2403843824	 1.8691762704	 1.108230008	 0.122238
H	-1.1996787328	-0.3239069005	 1.5263021814	 0.224333
H	 1.0827390483	-0.7542386808	 1.9970961079	 0.09412
H	 2.3496546026	-1.7986411934	-0.1335667976	 0.131147
H	 0.8725031697	-2.8230036165	-0.1424732931	 0.103419
H	-1.2131159469	-1.7528096327	-1.6007900842	 0.15007
H	-0.7473563429	-0.524356883	-2.7953404388	 0.111536
H	 0.0513928145	-2.1040046873	-2.7978449389	 0.121237
H	 1.3540959973	 0.6324191023	-2.6972118094	 0.073203
75.022	133.2634	200.0457	212.4915	223.7402	251.5403	301.8031	331.1978	383.4132	433.5414	475.4765	586.7749	618.651	706.1972	765.7876	831.7191	867.299	914.7797	922.5524	932.941	983.4117	1011.738	1026.6521	1053.0839	1100.7614	1115.0449	1145.3356	1158.9685	1215.2427	1241.2841	1268.884	1294.5007	1331.9869	1397.1319	1408.6765	1425.717	1436.0809	1474.385	1485.0617	1489.1298	1495.8086	1504.7307	1820.5912	2852.4979	3023.0142	3027.4546	3071.0013	3085.6161	3088.4498	3096.1389	3132.9666	3139.8638	3185.7762	3461.3387
CC12NC1CC2(C)C=O	C[C@]12N[C@H]1C[C@]2(C)C=O	
InChI=1S/C7H11NO/c1-6(4-9)3-5-7(6,2)8-5/h4-5,8H,3H2,1-2H3	InChI=1S/C7H11NO/c1-6(4-9)3-5-7(6,2)8-5/h4-5,8H,3H2,1-2H3/t5-,6+,7-/m0/s1
