19
gdb 111106	2.41831	1.63657	1.27789	2.4137	70.37	-0.2374	0.0603	0.2978	1056.9593	0.159919	-460.125461	-460.117315	-460.116371	-460.158482	31.313	
C	 0.1503520157	 1.2686833061	 0.3770016172	-0.254655
O	-0.0369714528	 0.1746520327	-0.5079898173	-0.265815
C	-1.240697164	-0.5171894047	-0.2963668511	 0.142442
C	-1.629487641	-1.6131677469	-1.307557503	 0.018508
C	-0.4039355592	-2.5373287814	-1.3770728893	-0.263901
C	-0.1301180999	-2.6392909994	 0.163104589	 0.147999
O	 1.1300412629	-2.1791979785	 0.5966774197	-0.45173
C	-1.3193751711	-1.7623953919	 0.6330620038	-0.015538
O	-2.4081176684	-2.2207362567	-0.2228443733	-0.298365
H	 1.0755606422	 1.7673728733	 0.0806995989	 0.13651
H	-0.6812792176	 1.9827762794	 0.3031846353	 0.121922
H	 0.2397541756	 0.9360358433	 1.4201756307	 0.12521
H	-2.0762566759	 0.1663529641	-0.1108303816	 0.090455
H	-2.203207498	-1.4061538788	-2.2101533592	 0.083555
H	-0.6592649774	-3.4952821047	-1.8337429965	 0.110614
H	 0.4443058217	-2.0999171137	-1.9096832727	 0.111189
H	-0.2329455594	-3.6618869369	 0.531382954	 0.09323
H	 1.243602763	-1.3052817181	 0.2008911812	 0.288336
H	-1.5600776964	-1.7247097972	 1.6946740141	 0.080037
54.7937	160.9823	175.9892	200.3292	320.1686	341.7836	419.2901	461.3144	520.3875	545.4537	590.2592	750.2465	821.8052	837.5279	863.4741	872.8187	906.6251	960.9898	998.6476	1005.6446	1041.6654	1065.7632	1087.692	1128.3689	1151.7357	1177.3239	1187.6386	1200.7903	1218.0511	1236.8079	1273.1077	1284.9198	1306.9736	1322.1373	1342.8002	1391.3014	1452.8685	1476.4064	1486.1037	1490.3345	1506.0527	2997.1467	3054.462	3057.6448	3072.6688	3094.3105	3125.8605	3127.4178	3130.8437	3135.8476	3762.8399
COC1C2CC(O)C1O2	CO[C@H]1[C@H]2C[C@@H](O)[C@@H]1O2	
InChI=1S/C6H10O3/c1-8-6-4-2-3(7)5(6)9-4/h3-7H,2H2,1H3	InChI=1S/C6H10O3/c1-8-6-4-2-3(7)5(6)9-4/h3-7H,2H2,1H3/t3-,4-,5+,6+/m1/s1
