12
gdb 132291	2.0737	1.91916	1.0029	4.4495	59.28	-0.301	-0.0826	0.2185	1060.7716	0.076318	-513.985537	-513.978044	-513.977099	-514.018336	26.281	
C	-0.0162228046	 1.4723969786	 0.0522751449	-0.4737
C	-0.0030104389	-0.01336763	-0.0598929648	 0.438429
N	-0.1036185705	-0.6150076609	-1.2067460545	-0.357848
C	-0.0722553526	-1.9691401341	-1.1091939909	 0.358929
F	-0.1734717297	-2.5727246113	-2.2651356389	-0.025984
N	 0.0399323872	-2.7191822504	-0.0678034018	-0.375616
C	 0.146227238	-2.0964278235	 1.1445188637	 0.458716
O	 0.2573038844	-2.5806519235	 2.2218051056	-0.305637
O	 0.1187351388	-0.6396188124	 1.1002958866	-0.226624
H	 0.9085226145	 1.8142811762	 0.5273921462	 0.170927
H	-0.1186063249	 1.9171993422	-0.936124874	 0.167482
H	-0.8437321016	 1.785972239	 0.6962169379	 0.170925
82.5575	112.7739	178.1965	194.2914	292.6381	404.6849	532.3653	545.6816	616.3451	619.8694	639.2535	756.6854	769.0873	814.7742	957.6007	1018.7815	1051.1575	1067.3279	1184.2301	1349.0167	1410.4726	1424.3426	1459.2051	1469.9117	1594.5799	1678.0129	1927.3498	3055.2006	3116.099	3177.2704
CC1=NC(F)=NC(=O)O1	Cc1nc(F)nc(=O)o1	
InChI=1S/C4H3FN2O2/c1-2-6-3(5)7-4(8)9-2/h1H3	InChI=1S/C4H3FN2O2/c1-2-6-3(5)7-4(8)9-2/h1H3
