15
gdb 33323	4.65659	0.83243	0.78811	4.4408	85.36	-0.2538	-0.0519	0.2019	1415.6975	0.113533	-379.607142	-379.599377	-379.598433	-379.640137	28.569	
N	-0.0076650888	-3.7538437994	-0.0868674878	-0.334669
C	 0.0056115001	-2.5923513576	-0.0473756144	 0.205061
C	 0.0231326807	-1.2293770025	 0.0021424073	 0.0309
C	 0.0354654757	-0.0200294518	 0.0523323043	 0.157997
C	 0.0330575934	 1.407301798	 0.0903127322	-0.240385
C	 0.5152892144	 2.1945764382	 1.2627364716	-0.017554
C	 1.6457076755	 1.4933494527	 2.0077198133	-0.260837
C	 2.3854325124	 1.4699066744	 0.6434180622	-0.15876
N	 1.2723147564	 2.2323031216	-0.0397864982	-0.138165
H	-0.7824093701	 1.8623576702	-0.466641259	 0.138436
H	-0.062669585	 3.0425251582	 1.6174302045	 0.112397
H	 2.1306309638	 2.1381640382	 2.7416599644	 0.124367
H	 1.4012159621	 0.5377183975	 2.4771707488	 0.125591
H	 3.2896282937	 2.0791057696	 0.6213972268	 0.126722
H	 2.5936903056	 0.4955744726	 0.195674654	 0.1289
74.8729	90.0588	193.6082	214.054	317.5251	379.9873	487.9671	519.1764	575.6262	579.876	748.1816	750.694	769.651	796.9308	800.3942	944.0155	950.7121	1005.5523	1025.1453	1059.1815	1100.9848	1150.6441	1174.9737	1219.2112	1245.2534	1268.2195	1289.4193	1349.5091	1395.4909	1482.9806	1503.8594	2258.5861	2387.268	3073.5463	3078.8523	3125.0504	3141.5946	3143.1912	3163.2433
N#CC#CC1C2CCN12	N#CC#C[C@H]1[C@H]2CCN12	
InChI=1S/C7H6N2/c8-4-1-2-6-7-3-5-9(6)7/h6-7H,3,5H2	InChI=1S/C7H6N2/c8-4-1-2-6-7-3-5-9(6)7/h6-7H,3,5H2/t6-,7+,9?/m0/s1
