18
gdb 51787	4.35767	0.96669	0.86605	4.9133	74.52	-0.2559	0.0235	0.2795	1339.3238	0.148208	-439.072112	-439.063957	-439.063013	-439.10612	30.037	
N	-0.0896051216	 1.2988778033	 0.0972715388	-0.44196
C	-0.0469154265	 0.0415794945	 0.0035295972	 0.12685
O	-1.1829302997	-0.6805956321	 0.0450838742	-0.192153
C	-1.0598842888	-2.1006576313	 0.049903898	 0.12142
C	-1.1167664318	-2.7039609978	 1.4710441414	-0.255336
C	-1.708108075	-4.1197519446	 1.2844213255	-0.247048
C	-2.5867197721	-3.9758908144	 0.0531056948	 0.0488
O	-3.4215550835	-2.8127038189	 0.0917704987	-0.248728
C	-2.2163006368	-2.7564399327	-0.6765466397	 0.022064
H	 0.8497697219	 1.6839082192	 0.0257307499	 0.228475
H	 0.8563258149	-0.5728685951	-0.1272638888	 0.081084
H	-0.1294113588	-2.3853453354	-0.464271898	 0.082741
H	-0.1412208447	-2.7061939326	 1.962047291	 0.10198
H	-1.7943834765	-2.0847125223	 2.0615530351	 0.143848
H	-0.925680667	-4.8610872973	 1.0818119914	 0.106928
H	-2.2648306577	-4.4621937081	 2.16175584	 0.118858
H	-3.0153443508	-4.8444026343	-0.4400468895	 0.099398
H	-2.3405623258	-2.62556286	-1.74785942	 0.10278
36.006	100.6557	106.2832	232.4287	300.0261	362.8549	400.23	417.153	636.2327	665.4069	706.1343	816.0222	824.3612	844.1735	873.4909	900.6301	937.5495	971.6789	1006.5162	1031.8459	1041.7336	1083.2099	1088.0779	1114.2961	1141.0973	1192.4914	1220.8957	1261.2394	1290.7345	1303.8851	1323.0248	1332.9847	1341.382	1391.621	1429.3482	1438.2807	1481.4022	1492.7528	1746.7297	2990.9412	3006.8197	3040.2097	3079.946	3089.3116	3132.9116	3148.5834	3162.7415	3519.5193
N=COC1CCC2OC12	[NH][CH]O[C@H]1CC[C@H]2O[C@@H]12	
InChI=1S/C6H9NO2/c7-3-8-4-1-2-5-6(4)9-5/h3-7H,1-2H2	InChI=1S/C6H9NO2/c7-3-8-4-1-2-5-6(4)9-5/h3-7H,1-2H2/t4-,5+,6-/m0/s1
