19
gdb 108879	4.70227	0.89101	0.76029	5.1098	87.84	-0.1993	0.0064	0.2056	1514.6563	0.159067	-419.2281	-419.218452	-419.217508	-419.263307	34.058	
C	 0.0116916599	 1.4031941852	 0.134263178	-0.325253
N	-0.1010686935	-0.0235704381	-0.1002242283	-0.371956
C	 0.5766655132	-0.6138990838	-1.1245316028	 0.362178
C	 1.2534597176	-0.0767784943	-2.1596014417	-0.365565
C	 1.7376158957	-1.1504493053	-3.0143990833	 0.474199
O	 1.3439717438	-2.3651202784	-2.4509995363	-0.264868
C	 0.5966483799	-2.1169812872	-1.2724076038	-0.171502
N	 2.4037585413	-1.0442556527	-4.0827529099	-0.35139
C	 2.8064015291	-2.2383734376	-4.8026945918	-0.328928
H	 1.0446320953	 1.7185891733	 0.3409270737	 0.128291
H	-0.3403333184	 1.9509024326	-0.746019859	 0.145978
H	-0.6188069785	 1.6801129292	 0.9814132963	 0.130432
H	-0.2717938128	-0.5950327946	 0.7118058564	 0.245051
H	 1.4391140982	 0.9622352457	-2.3779416702	 0.10885
H	 1.0793462617	-2.6144178879	-0.418155428	 0.114866
H	-0.4160603196	-2.5314041213	-1.3757779183	 0.124194
H	 2.6360436182	-2.084844271	-5.8744263252	 0.113968
H	 3.8853382594	-2.4012742166	-4.6773363374	 0.115433
H	 2.2869839792	-3.1526147973	-4.4921089084	 0.116022
44.0887	92.1127	138.1585	154.838	179.0339	211.3567	245.6148	301.0057	368.096	456.7373	488.5865	528.3648	680.076	695.5351	709.1695	821.3156	868.5146	930.2383	1027.7482	1036.0757	1064.9857	1095.0403	1128.8247	1142.064	1153.1182	1173.4148	1202.5111	1206.1371	1294.3112	1329.168	1382.7716	1438.2331	1461.1795	1481.7239	1493.4632	1498.8762	1507.4307	1512.747	1542.8994	1698.3553	1783.4982	2993.8946	3000.6886	3004.6732	3024.2834	3056.6603	3075.3059	3078.306	3130.1256	3267.031	3624.0061
CNC1=CC(OC1)=NC	CN[C]1C=C(OC1)[N]C	
InChI=1S/C6H10N2O/c1-7-5-3-6(8-2)9-4-5/h3,7H,4H2,1-2H3	InChI=1S/C6H10N2O/c1-7-5-3-6(8-2)9-4-5/h3,7H,4H2,1-2H3
