16
gdb 126133	4.58377	1.07064	0.87719	1.8193	71.82	-0.2842	-0.0571	0.2271	1279.2841	0.125202	-434.123044	-434.114813	-434.113868	-434.156829	28.96	
C	-0.0652280152	 1.5109629639	 0.0987185329	-0.383808
C	 0.0230950476	-0.007330503	-0.03574548	-0.303185
C	 0.7423614452	-0.4270059902	-1.2943178912	 0.453651
O	 1.2069891627	 0.3127391289	-2.1228329856	-0.308115
N	 0.8632246489	-1.8343272881	-1.4854548145	-0.050447
C	 1.4625561992	-2.477278911	-2.53006719	 0.049532
N	 1.3835621978	-3.7752918301	-2.3713943068	-0.275945
C	 0.7086873709	-3.8934196039	-1.1822357028	 0.048424
N	 0.3724377152	-2.7594507123	-0.6081654509	-0.241719
H	 0.9294732309	 1.9626512217	 0.1260816546	 0.135816
H	-0.6016818536	 1.95078111	-0.7456536644	 0.135849
H	-0.5913004168	 1.7764687252	 1.0191588813	 0.119279
H	 0.5390297249	-0.4659574179	 0.8156097851	 0.151254
H	-0.9669782246	-0.4775523867	-0.0414097679	 0.151237
H	 1.9209035313	-1.9401409292	-3.3445717582	 0.177056
H	 0.4652895258	-4.8479813371	-0.7395843716	 0.141121
58.2059	85.4293	163.4006	164.6455	198.9464	291.1511	377.6958	520.8256	552.6729	655.7334	687.5689	724.2155	805.9435	899.8542	925.3902	949.5953	966.006	1003.5952	1054.3673	1103.0834	1106.0344	1154.8704	1217.2945	1262.3621	1275.0846	1310.2014	1363.7069	1407.8647	1417.4057	1430.1353	1444.6681	1492.4501	1499.0909	1563.7298	1828.594	3053.2197	3055.1754	3079.6201	3128.5641	3130.4793	3261.4443	3287.1905
CCC(=O)N1C=NC=N1	CCC(=O)n1cncn1	
InChI=1S/C5H7N3O/c1-2-5(9)8-4-6-3-7-8/h3-4H,2H2,1H3	InChI=1S/C5H7N3O/c1-2-5(9)8-4-6-3-7-8/h3-4H,2H2,1H3
