16
gdb 42929	3.22411	1.18849	0.95485	6.5671	73.41	-0.2537	-0.0276	0.2261	1199.0216	0.124253	-400.750134	-400.74208	-400.741136	-400.783603	29.531	
O	-0.0506273536	 0.0368925365	-0.1304670897	-0.296575
C	-0.0847081076	 1.2254000624	-0.0083682005	 0.405673
C	-1.1681856115	 2.2606543061	-0.0794847818	-0.164827
C	-1.0565868522	 3.1664716588	 1.1417665571	-0.287617
C	-0.0859488269	 3.3650933986	 0.0306601323	-0.079119
C	 1.0346822392	 2.3131578605	 0.0844955544	-0.12299
C	 2.0312686777	 2.3370110143	 1.2530595189	-0.364886
C	 3.0024154683	 1.246269506	 1.1923628789	 0.271587
N	 3.7863666866	 0.3996461411	 1.1372117985	-0.299929
H	-2.073710547	 2.2200504046	-0.670588817	 0.120883
H	-1.8538461408	 3.8986451444	 1.2151960184	 0.136444
H	-0.750302069	 2.7583986261	 2.1002363819	 0.12857
H	-0.0410932505	 4.2774026176	-0.5489097756	 0.112854
H	 1.5842097729	 2.2798055177	-0.863013062	 0.128815
H	 2.5823690443	 3.2854362707	 1.2454003105	 0.157983
H	 1.5099591402	 2.2865654843	 2.2145517056	 0.153133
51.0867	94.2965	161.5047	224.3353	246.2836	384.0505	457.1761	484.7975	503.4224	608.7269	719.6633	742.956	786.0477	863.6095	912.2305	915.4594	944.3418	989.1654	997.8436	1021.7605	1067.2965	1088.1333	1107.6001	1117.6029	1155.9523	1189.5617	1237.6275	1289.6597	1306.4894	1339.5311	1371.2322	1464.9666	1499.5064	1894.3182	2366.5116	3040.2348	3057.2181	3086.2883	3126.0423	3203.8863	3205.6134	3216.5854
O=C1C2CC2C1CC#N	O=C1[C@H]2C[C@H]2[C@H]1CC#N	
InChI=1S/C7H7NO/c8-2-1-4-5-3-6(5)7(4)9/h4-6H,1,3H2	InChI=1S/C7H7NO/c8-2-1-4-5-3-6(5)7(4)9/h4-6H,1,3H2/t4-,5+,6+/m1/s1
