17
gdb 9366	5.32474	0.90844	0.8132	1.0122	61.71	-0.251	0.0081	0.2591	1382.5172	0.140987	-438.155556	-438.146022	-438.145078	-438.191539	32.071	
N	-0.1409695621	 1.2649746095	-0.2741941189	-0.484357
C	 0.0747547818	-0.1456203608	-0.0118154581	-0.274223
C	 0.933395262	-0.4548123384	 1.2123721432	 0.421449
O	 1.4520350733	 0.3704590324	 1.9196344633	-0.352509
O	 1.0403151038	-1.7861175119	 1.4051440866	-0.257969
C	 1.8530966573	-2.2087493506	 2.5214769499	-0.074113
C	 1.7818997587	-3.7243164803	 2.5508583227	-0.069096
O	 2.3066051336	-4.3076018487	 1.3752514454	-0.417452
H	-0.5919533649	 1.6880119514	 0.5323884911	 0.236355
H	 0.7602475606	 1.7304499846	-0.3395289044	 0.237921
H	-0.8874693436	-0.6561028579	 0.1106373856	 0.138848
H	 0.550075748	-0.617740873	-0.8803761568	 0.137666
H	 2.8791606431	-1.862460467	 2.366049345	 0.12954
H	 1.4693996733	-1.7632844821	 3.4445910748	 0.122168
H	 2.3869933576	-4.0924777339	 3.3857763376	 0.11829
H	 0.7406218853	-4.0359889136	 2.7291683244	 0.097297
H	 1.8147187121	-3.9311116597	 0.6373053986	 0.290185
32.3989	52.5118	84.5517	132.6667	183.5907	220.2896	287.3556	304.0792	383.2684	435.708	505.7699	575.5669	700.1465	849.4243	886.5231	919.5828	923.837	963.4094	1029.5715	1094.6677	1125.7296	1154.5942	1179.675	1210.1758	1234.6082	1263.9321	1367.9358	1388.5914	1389.7241	1401.9372	1433.8093	1456.0001	1495.2368	1498.4123	1678.4596	1824.9439	2986.2196	3039.866	3054.354	3076.9562	3083.3203	3108.8436	3494.6738	3562.244	3810.8518
NCC(=O)OCCO	NCC(=O)OCCO	
InChI=1S/C4H9NO3/c5-3-4(7)8-2-1-6/h6H,1-3,5H2	InChI=1S/C4H9NO3/c5-3-4(7)8-2-1-6/h6H,1-3,5H2
