21
gdb 59385	4.17035	0.76158	0.69856	3.6549	80.41	-0.246	-0.0225	0.2235	1631.2754	0.180391	-424.2258	-424.215874	-424.21493	-424.261388	36.156	
C	 0.3244230774	 1.3830501594	-0.3149023026	-0.407549
C	-0.0088981592	-0.0910059703	-0.0838869564	 0.133258
O	 0.9118793004	-0.6917831547	 0.8239041524	-0.431691
C	-1.4518950459	-0.3007092117	 0.3844319375	 0.002537
C	-2.5272422737	-0.1437382022	-0.7296624465	-0.267727
C	-2.6319068859	-1.6990944032	-0.8381169865	-0.050594
C	-1.8561036303	-1.7936525649	 0.5155742658	-0.263336
C	-4.0218991947	-2.2665465263	-0.8472568553	 0.157817
O	-4.4566441207	-3.0498249899	-1.6517933594	-0.25264
H	 1.3604077717	 1.4890758842	-0.6471452714	 0.127656
H	-0.3290423894	 1.8325865954	-1.068959666	 0.120875
H	 0.2020715581	 1.9547640434	 0.6138759539	 0.106646
H	 0.141350597	-0.6435328043	-1.0208805072	 0.088601
H	 0.8644112741	-0.2041569472	 1.6541315227	 0.27603
H	-1.6212478266	 0.308207577	 1.281061111	 0.057825
H	-3.4535064277	 0.3051046076	-0.3576118472	 0.106612
H	-2.2353956035	 0.3805000648	-1.6429256319	 0.111547
H	-2.0747129868	-2.1087938698	-1.6823450998	 0.093122
H	-1.0380556203	-2.5138657663	 0.5616642152	 0.128468
H	-2.530134706	-1.9738533457	 1.3589498239	 0.100979
H	-4.6611440879	-1.8911453254	-0.0095494623	 0.061566
51.7279	63.4098	102.1888	173.3391	230.8543	248.2184	292.3997	310.1017	343.6458	361.6672	441.859	478.3158	517.1524	727.6616	796.2637	803.574	884.4851	895.8092	922.8715	963.4626	973.6686	1013.2111	1049.1008	1064.4125	1091.233	1099.2211	1124.6752	1183.993	1208.4799	1235.8236	1260.0901	1270.7724	1271.5041	1285.4404	1320.6168	1333.1074	1396.889	1403.9864	1420.436	1431.0693	1471.863	1490.0723	1492.0001	1495.2282	1831.0404	2824.233	3016.1079	3023.9865	3034.8054	3051.8182	3058.701	3094.8215	3096.6537	3110.9871	3121.5148	3127.9158	3793.8355
CC(O)C1CC(C1)C=O	C[C@@H](O)[C@H]1C[C@@H](C1)C=O	
InChI=1S/C7H12O2/c1-5(9)7-2-6(3-7)4-8/h4-7,9H,2-3H2,1H3	InChI=1S/C7H12O2/c1-5(9)7-2-6(3-7)4-8/h4-7,9H,2-3H2,1H3/t5-,6-,7-/m1/s1
