23
gdb 87709	2.41881	1.26972	1.12933	1.6084	86.04	-0.219	0.081	0.3	1271.8137	0.20367	-388.273122	-388.263062	-388.262118	-388.308144	37.797	
C	 0.1551138323	 1.6021157769	 0.4378988379	-0.401816
C	-0.0363820515	 0.1117860204	 0.2644413727	-0.077003
C	 1.0821218321	-0.742536291	-0.3262001616	-0.371352
C	 0.7329716033	-0.8468545604	 1.1223477466	 0.457832
O	 1.6257025766	-0.3817464339	 2.135977805	-0.327079
C	 1.2107117189	-1.4425409426	 3.0392182859	 0.145555
C	 0.6372992137	-0.8938073012	 4.3314475812	-0.399546
C	 0.2584208267	-2.036115646	 1.9566323698	-0.148782
C	-1.230732947	-2.1677027706	 2.2456005516	-0.410202
H	 1.1594635104	 1.8210097591	 0.8103654602	 0.132684
H	 0.0138931494	 2.1353127499	-0.5084373567	 0.112354
H	-0.5582252661	 2.0097073021	 1.1628076731	 0.112747
H	-1.0466281485	-0.1966350588	 0.002568108	 0.080308
H	 0.8244919922	-1.5618851027	-0.9907780591	 0.10583
H	 2.0150246341	-0.2407189791	-0.5653329993	 0.116856
H	 2.0634844847	-2.0971068443	 3.2613595641	 0.074848
H	-0.2038195316	-0.2211308247	 4.1441892182	 0.121608
H	 0.2993929858	-1.7064825621	 4.9838795649	 0.113426
H	 1.4084888737	-0.3293622706	 4.8649836734	 0.126204
H	 0.6424278355	-2.9858991053	 1.5716001139	 0.079372
H	-1.6628910776	-1.2305116388	 2.6069432478	 0.122428
H	-1.7735722029	-2.4525290487	 1.3377993338	 0.117748
H	-1.4206650542	-2.9421939277	 2.9962168687	 0.11598
38.5245	129.9621	163.8396	183.1878	207.234	212.3137	232.7745	266.8072	369.1967	404.6378	449.0244	461.8184	547.1021	594.7542	757.5196	780.005	800.6658	869.9463	877.8541	908.3566	929.6351	992.5347	1003.5415	1033.8265	1043.9064	1081.1083	1081.6112	1111.7534	1131.3779	1161.717	1166.5493	1181.6871	1216.993	1259.4637	1303.4155	1320.0523	1369.9349	1382.2653	1406.9087	1411.5879	1414.7819	1429.366	1477.0151	1486.7177	1489.6648	1492.6318	1498.2185	1504.9169	1509.1604	3011.6713	3030.7869	3033.3757	3037.7907	3053.9468	3088.6762	3094.9155	3105.0679	3110.7669	3112.1173	3117.076	3122.6635	3128.7287	3205.292
CC1CC11OC(C)C1C	C[C@H]1C[C@]21O[C@@H](C)[C@H]2C	
InChI=1S/C8H14O/c1-5-4-8(5)6(2)7(3)9-8/h5-7H,4H2,1-3H3	InChI=1S/C8H14O/c1-5-4-8(5)6(2)7(3)9-8/h5-7H,4H2,1-3H3/t5-,6+,7-,8+/m0/s1
