16
gdb 29286	5.46555	0.9812	0.88	2.5667	73.77	-0.1844	0.0216	0.206	1286.175	0.126131	-434.079079	-434.071058	-434.070114	-434.111879	30.075	
N	-0.6850519107	 1.3026040991	-0.5837133481	-0.599784
C	-0.1985738726	 0.0456307378	-0.214815976	 0.283733
C	-0.5554786636	-0.7474308349	 0.8527724782	-0.186404
N	 0.1909839624	-1.9053112068	 0.6972146327	-0.277204
C	 0.9257559698	-1.7656055175	-0.4316296048	 0.356655
N	 0.720232131	-0.5958702752	-1.0081823395	-0.367964
C	 1.8448771203	-2.8202035061	-0.8976949216	-0.030962
C	 2.9143635604	-3.3614789021	-0.036935956	-0.172599
O	 1.6989815623	-4.0859585395	-0.2391112402	-0.245287
H	-0.0521613392	 1.7525316689	-1.2323548242	 0.248093
H	-0.8734013556	 1.910723139	 0.2015738349	 0.240577
H	-1.2493915547	-0.6148742168	 1.6644948304	 0.11691
H	 0.1350945493	-2.7526175178	 1.2375163603	 0.271036
H	 1.9821654021	-2.8624920152	-1.9762710505	 0.120043
H	 3.8001699145	-3.8014198688	-0.4924842796	 0.124635
H	 3.0518614842	-2.9461537843	 0.959759214	 0.118524
74.013	144.8725	167.2397	214.8652	300.877	339.8756	408.7812	483.3797	571.4576	638.3819	654.1762	674.5321	721.3987	733.2306	782.0721	851.4065	898.1748	987.5784	1018.1984	1030.0288	1090.8568	1095.8677	1113.0305	1149.9867	1167.8355	1254.2938	1278.971	1319.9171	1377.1699	1426.5963	1493.3694	1519.379	1572.3951	1620.5635	1647.2971	3086.4915	3140.0045	3180.281	3282.5367	3545.585	3641.3884	3666.6148
NC1=CNC(=N1)C1CO1	Nc1c[nH]c(n1)[C@H]1CO1	
InChI=1S/C5H7N3O/c6-4-1-7-5(8-4)3-2-9-3/h1,3H,2,6H2,(H,7,8)	InChI=1S/C5H7N3O/c6-4-1-7-5(8-4)3-2-9-3/h1,3H,2,6H2,(H,7,8)/t3-/m1/s1
