15
gdb 21138	3.5265	1.96232	1.28107	1.0141	65.95	-0.2083	-0.0131	0.1952	922.2714	0.118629	-392.127687	-392.119274	-392.11833	-392.161142	28.199	
C	-0.1001875918	 1.4118885558	 0.0142089308	-0.332753
N	-0.0907953364	-0.0398509244	 0.0087901064	-0.370719
C	 0.4899076912	-0.5999493636	-0.9752669472	 0.543943
N	 1.149777146	-0.1302148772	-2.1015659217	-0.329079
N	 1.6136395137	-1.1526339226	-2.883120995	-0.084331
N	 1.2886582958	-2.2411511477	-2.3221124469	-0.104978
N	 0.6140746769	-1.9658695669	-1.1765717705	-0.079782
C	 0.1074615039	-2.9984715443	-0.3064716262	-0.324962
H	 0.9133812133	 1.8467560981	 0.0402324917	 0.100686
H	-0.6183705191	 1.8402412287	-0.8604969065	 0.100674
H	-0.6252850929	 1.766590107	 0.9045867565	 0.127968
H	 1.3088418837	 0.8212739052	-2.3788121345	 0.287338
H	 0.370228928	-3.9611747321	-0.7444224451	 0.157868
H	 0.5504125342	-2.9041561181	 0.6891175825	 0.154087
H	-0.9786843767	-2.9123088779	-0.2106325743	 0.154041
63.7546	112.9298	133.4786	177.3221	181.5144	221.6489	295.785	364.1516	543.1672	662.8714	683.8968	719.0947	782.1047	961.8134	1026.2756	1063.7481	1079.5453	1121.2276	1159.3977	1172.6982	1201.9428	1305.7448	1371.1586	1423.1993	1448.0491	1454.7334	1471.2795	1491.3906	1506.3588	1506.898	1517.0892	1776.9334	2948.133	2986.524	3049.5326	3098.8792	3110.9208	3165.464	3711.3863
CN=C1NN=NN1C	CN=c1[nH]nnn1C	
InChI=1S/C3H7N5/c1-4-3-5-6-7-8(3)2/h1-2H3,(H,4,5,7)	InChI=1S/C3H7N5/c1-4-3-5-6-7-8(3)2/h1-2H3,(H,4,5,7)
