22
gdb 67216	2.56673	1.74018	1.33104	1.5518	85.73	-0.2283	0.0904	0.3187	1077.7564	0.193436	-367.164675	-367.155825	-367.154881	-367.197266	35.275	
C	-0.1389033514	 1.5200367937	-0.0449689212	-0.534263
C	 0.0585351371	 0.0431897226	 0.0104610045	 0.362806
C	 0.3842796703	-0.9808717248	-1.0120421508	-0.096918
C	 1.4638315331	-1.6039382564	-0.1274715654	-0.266588
C	 0.690755056	-0.9721132098	 1.0554118076	-0.156479
C	-0.6998044939	-1.6633913404	 1.0198010851	 0.359997
C	-0.8041281162	-3.1844509745	 0.9961982835	-0.457401
C	-1.6605163901	-1.0830645327	 2.0557835745	-0.434847
N	-0.9587580474	-0.9935504646	-0.3104959923	-0.206309
H	 0.8214290488	 2.0470128292	-0.0764030641	 0.121611
H	-0.7039383103	 1.784474416	-0.9444171738	 0.135094
H	-0.6958548857	 1.8906912097	 0.8226250857	 0.125131
H	 0.3497706487	-0.9022081957	-2.091224885	 0.092013
H	 1.6283712555	-2.6851647013	-0.1312271612	 0.093717
H	 2.4174603697	-1.094223596	-0.2923187617	 0.101721
H	 1.1919454294	-0.7399640727	 1.9950570045	 0.06322
H	-0.4433546912	-3.6131301865	 1.9380824518	 0.111462
H	-1.8503655772	-3.4828646247	 0.8707452683	 0.120706
H	-0.2369169906	-3.6304952579	 0.1774653267	 0.119635
H	-1.5772174117	 0.0051352321	 2.1214634033	 0.114754
H	-2.6953687137	-1.3267907574	 1.7957425446	 0.121699
H	-1.4492623692	-1.4987698478	 3.0469600853	 0.10924
156.3353	173.0633	196.4831	201.9839	228.0615	302.6858	320.7743	354.4989	383.44	481.6622	552.9898	597.5722	646.744	735.9695	770.5008	830.6769	865.2405	889.1445	929.8611	943.8598	965.9105	974.0063	995.0611	1010.2129	1035.7272	1062.7062	1093.8383	1118.203	1135.9243	1165.0255	1191.9272	1196.9682	1248.3372	1263.4495	1275.2239	1304.5381	1398.3997	1403.7639	1416.1665	1447.7943	1474.6803	1479.129	1483.4389	1491.7475	1497.3256	1500.8784	1520.5147	3026.685	3032.7579	3038.1702	3050.6683	3087.1382	3095.5726	3097.6663	3103.786	3104.9761	3114.5698	3116.0826	3131.2106	3197.0324
CC12C3CC1C(C)(C)N23	C[C@@]12[C@H]3C[C@@H]1C(C)(C)N23	
InChI=1S/C8H13N/c1-7(2)5-4-6-8(5,3)9(6)7/h5-6H,4H2,1-3H3	InChI=1S/C8H13N/c1-7(2)5-4-6-8(5,3)9(6)7/h5-6H,4H2,1-3H3/t5-,6-,8+,9?/m1/s1
