19
gdb 92522	2.88516	1.62934	1.17428	4.2103	76.47	-0.2286	0.0544	0.2831	1078.5594	0.161777	-419.236653	-419.228475	-419.227531	-419.269763	30.169	
C	-0.0174425756	 1.4271657178	 0.2938109155	-0.339207
N	-0.0100488624	 0.0080452528	 0.0499863703	-0.094326
C	-1.2140057267	-0.7728695466	-0.141133225	-0.200606
C	-0.6450737541	-2.1718924893	-0.4466675835	 0.026651
C	-0.3110997069	-2.6072825825	-1.8996132828	-0.251035
C	 1.1615883595	-2.758816923	-1.4226431631	-0.175966
N	 0.8076339473	-2.0885406285	-0.135438663	-0.15249
C	 1.1548742108	-0.7242304639	-0.0440702047	 0.419334
O	 2.2819781416	-0.2776533128	-0.0624381934	-0.413186
H	 1.0217717118	 1.7522052656	 0.3710822921	 0.166173
H	-0.5013432164	 1.9703296877	-0.5286718957	 0.11802
H	-0.5453399168	 1.6749836092	 1.2243400835	 0.11882
H	-1.8411929728	-0.7760765413	 0.7615640109	 0.108138
H	-1.8271466369	-0.3803839227	-0.9658931811	 0.106416
H	-1.1497395375	-2.9512146242	 0.1301906397	 0.090401
H	-0.8109343605	-3.5045298463	-2.2696237631	 0.108331
H	-0.442663971	-1.799399966	-2.6248434949	 0.114247
H	 1.4748128827	-3.7932872184	-1.2592332373	 0.115795
H	 1.9370545637	-2.2320069476	-1.9829213143	 0.134491
88.983	110.0607	132.0718	189.0786	263.3727	299.4986	337.9939	508.0592	597.732	655.9657	697.6625	766.1456	780.1376	809.4475	896.1005	921.0491	961.6505	988.9808	1035.3266	1064.9596	1099.8864	1127.304	1157.0346	1167.5826	1193.7652	1217.2192	1233.8805	1257.7513	1279.4174	1299.2037	1306.9566	1320.9147	1372.0609	1432.1074	1449.9121	1483.4545	1491.1842	1514.746	1517.6935	1544.1409	1815.2049	2986.7736	3004.906	3011.5328	3048.4217	3061.1764	3063.7392	3067.8987	3113.2346	3128.9016	3139.7455
CN1CC2CCN2C1=O	CN1C[C@H]2CCN2C1=O	
InChI=1S/C6H10N2O/c1-7-4-5-2-3-8(5)6(7)9/h5H,2-4H2,1H3	InChI=1S/C6H10N2O/c1-7-4-5-2-3-8(5)6(7)9/h5H,2-4H2,1H3/t5-/m1/s1
