14
gdb 32494	6.70533	0.85487	0.76181	4.3536	69.73	-0.2559	-0.0742	0.1817	1388.9401	0.100318	-473.853116	-473.844864	-473.84392	-473.886923	28.44	
O	-0.0395894541	 1.4127765467	 0.0069435153	-0.418055
C	-0.0050026426	-0.0024542671	 0.0019271683	-0.191357
C	-1.4160063857	-0.4888719743	 0.0129572402	 0.248081
C	-2.5698531472	 0.2374340398	 0.0243826116	-0.080164
O	-3.6157329636	-0.6255867051	 0.0314879921	-0.145225
C	-3.0444085699	-1.8536527718	 0.0238435881	 0.278639
C	-3.8836495966	-3.0577061623	 0.028393092	 0.080053
O	-5.0905106462	-3.0540779865	 0.0389383792	-0.256797
N	-1.7396049463	-1.8273943325	 0.012669689	-0.330755
H	 0.8644304535	 1.7389035169	 0.0007136563	 0.298268
H	 0.5072446939	-0.4003225577	-0.8884817973	 0.117561
H	 0.5231099841	-0.4063378509	 0.8802558933	 0.117579
H	-2.7938350944	 1.2891153965	 0.028712324	 0.173922
H	-3.277336595	-3.9849784218	 0.021333258	 0.10825
48.5403	107.2122	140.6828	211.6214	239.867	264.6025	317.0684	378.4799	585.5008	648.7869	695.3848	708.4802	784.4433	811.8011	972.5382	1017.5811	1025.6367	1049.0591	1095.9107	1143.415	1205.8849	1236.7165	1237.9775	1317.2147	1370.6171	1390.7159	1463.4203	1512.5304	1560.1838	1617.477	1801.1309	2946.3744	2974.2438	2996.8026	3311.3826	3845.1666
OCC1=COC(C=O)=N1	OCc1coc(C=O)n1	
InChI=1S/C5H5NO3/c7-1-4-3-9-5(2-8)6-4/h2-3,7H,1H2	InChI=1S/C5H5NO3/c7-1-4-3-9-5(2-8)6-4/h2-3,7H,1H2
