19
gdb 72936	2.71244	1.76312	1.49575	2.0924	73.78	-0.2416	0.0587	0.3003	968.8553	0.159989	-422.963277	-422.955794	-422.95485	-422.994942	29.723	
C	-0.2402890394	 1.4970459359	-0.0824006708	-0.509235
C	 0.0479794572	 0.0175396911	 0.0157807612	 0.281209
C	-1.0931178771	-0.9696839448	 0.3244703199	-0.12861
O	-0.3176662906	-1.6089804696	 1.3762813445	-0.293762
C	 0.7700184562	-0.6832066449	 1.2053125568	 0.054993
C	 1.9159004141	-1.1734433004	 0.2654760029	-0.105637
C	 1.6656167166	-2.5131055593	-0.4437817973	-0.090561
O	 0.8917583641	-1.8625663145	-1.4912682056	-0.292317
C	 1.1535287835	-0.5603640088	-0.9388838172	 0.051235
H	 0.6846735061	 2.0840308448	-0.1143465822	 0.119379
H	-0.8051835623	 1.7252335931	-0.994326009	 0.126017
H	-0.8276207232	 1.846222498	 0.7734225817	 0.123011
H	-1.9938359077	-0.4965889483	 0.7355210104	 0.096033
H	-1.3619321308	-1.6684284535	-0.4721117145	 0.121847
H	 1.0596419142	-0.1947491286	 2.1409092585	 0.072781
H	 2.9341365982	-0.9093329206	 0.5482656482	 0.076891
H	 2.5661955812	-2.9798574199	-0.8591108722	 0.100797
H	 1.0751339673	-3.2490436844	 0.1080543579	 0.124718
H	 1.5738376323	 0.1330389748	-1.6745400034	 0.071212
121.0785	210.6549	234.2607	250.3097	292.8628	316.8729	480.1558	502.8453	617.5335	669.7636	790.5651	820.2773	840.1633	862.0125	905.906	930.0106	958.3058	962.5083	988.8372	1001.3194	1012.4285	1064.2656	1081.881	1146.0661	1166.5722	1167.8552	1181.0762	1189.1342	1209.258	1248.558	1260.3759	1286.968	1297.2718	1323.8826	1357.3229	1388.2205	1413.2487	1491.2812	1492.9056	1503.0501	1511.3216	3018.2093	3022.2851	3030.6945	3052.7133	3057.581	3084.5567	3094.6435	3097.1394	3100.4502	3119.7144
CC12COC1C1COC21	C[C@]12CO[C@H]1[C@H]1CO[C@@H]21	
InChI=1S/C7H10O2/c1-7-3-9-6(7)4-2-8-5(4)7/h4-6H,2-3H2,1H3	InChI=1S/C7H10O2/c1-7-3-9-6(7)4-2-8-5(4)7/h4-6H,2-3H2,1H3/t4-,5+,6-,7+/m0/s1
