17
gdb 113694	2.78853	0.93076	0.85188	1.8474	65.93	-0.2745	-0.0464	0.2281	1392.892	0.132917	-496.075229	-496.065674	-496.06473	-496.110735	33.598	
O	-0.6084620715	 0.5378219649	-1.8727137387	-0.410051
C	-0.0110995168	-0.0796610678	-0.7484349707	-0.099681
C	-1.020221147	-0.2717137824	 0.3561027775	 0.048886
O	-1.9608023851	-1.3428880421	 0.1989176614	-0.251618
C	-1.0482368714	-1.4141114493	 1.2946532938	-0.050818
C	-0.0388469852	-2.5272866075	 1.2996632937	 0.31197
O	 0.7926869028	-2.603601108	 2.1797692948	-0.322681
C	-0.1325405664	-3.617175654	 0.244830505	-0.133499
O	 0.8757141416	-4.5657321551	 0.4144064577	-0.41998
H	-1.3053418402	-0.0486840547	-2.1877304867	 0.295796
H	 0.4653034469	-1.0337523082	-1.0108645725	 0.102214
H	 0.7754027569	 0.6001592172	-0.4040968161	 0.130073
H	-1.4759662706	 0.6548618885	 0.7078077031	 0.118204
H	-1.4781020289	-1.2303839401	 2.279883095	 0.130051
H	-1.1406624513	-4.0601800194	 0.3325163018	 0.128262
H	-0.0960371373	-3.1723622293	-0.7594907701	 0.12709
H	 1.3370597435	-4.3102969727	 1.229258091	 0.295781
57.4519	69.7493	87.649	155.1897	175.8475	248.9357	328.6942	366.0866	397.4407	435.8348	474.33	524.7656	548.9507	643.2996	797.9332	821.2684	899.8201	956.5247	977.9443	1051.4678	1075.9068	1093.3295	1129.3872	1135.4618	1203.3253	1225.7466	1234.7024	1282.1633	1313.011	1352.429	1377.923	1418.7456	1449.5304	1468.0185	1477.288	1490.5061	1789.2646	2962.8044	3015.6757	3028.1184	3081.6478	3107.4981	3119.318	3687.9582	3805.0845
OCC1OC1C(=O)CO	OC[C@H]1O[C@H]1C(=O)CO	
InChI=1S/C5H8O4/c6-1-3(8)5-4(2-7)9-5/h4-7H,1-2H2	InChI=1S/C5H8O4/c6-1-3(8)5-4(2-7)9-5/h4-7H,1-2H2/t4-,5+/m1/s1
