20
gdb 103891	2.95245	1.00824	0.91709	2.4532	76.44	-0.2455	0.0263	0.2718	1347.6143	0.169138	-440.292116	-440.281883	-440.280939	-440.327776	36.619	
C	-0.1646762656	 1.4771864327	 0.3666446536	-0.463401
C	 0.0318381045	 0.0049640643	 0.0703372602	 0.370186
C	-1.2145227457	-0.7143927442	-0.3907459033	-0.144629
O	-1.6145366353	-0.1650935376	-1.6409661779	-0.423018
C	 1.3558922145	-0.4542916378	-0.4990444662	-0.364293
C	 0.9842804569	-0.8149384673	 0.915080502	-0.017259
N	 1.6984493016	-0.2079240927	 1.9995659414	-0.282033
C	 1.124085642	 0.0031782597	 3.216751451	 0.152324
O	-0.0433939308	-0.1921087914	 3.4761499389	-0.321457
H	 0.773911762	 1.959300134	 0.6498417019	 0.104285
H	-0.5616077424	 1.9824249741	-0.5177489037	 0.132492
H	-0.8725392112	 1.6115674468	 1.1913059492	 0.132739
H	-1.0116302815	-1.7935052977	-0.4831726157	 0.078214
H	-2.002092023	-0.590069311	 0.3684118099	 0.103322
H	-2.4911917827	-0.5015269845	-1.8478684511	 0.287624
H	 1.3688879557	-1.2470030406	-1.2388118052	 0.120691
H	 2.1225353501	 0.3013491233	-0.6390003875	 0.110773
H	 0.6895425602	-1.8448656646	 1.1046361271	 0.102378
H	 2.699429137	-0.1113755237	 1.9262132039	 0.248844
H	 1.855705074	 0.3895646283	 3.9553918315	 0.072221
51.143	75.5227	121.9358	161.1501	190.9032	236.79	241.4345	290.1302	315.8402	367.4145	381.2856	448.3504	506.5775	594.3087	708.5886	809.7765	833.9327	884.8395	931.4213	976.7702	996.4148	1032.0878	1040.9242	1068.9252	1082.3724	1112.8596	1117.66	1145.6414	1233.8486	1247.8726	1256.4287	1290.2126	1365.6877	1406.6108	1418.8914	1430.0847	1461.7004	1484.7146	1491.1243	1501.0951	1509.4299	1519.1434	1807.8406	2926.9571	2965.3145	3003.3348	3042.8318	3111.087	3121.431	3125.2712	3130.0757	3215.9593	3618.8336	3832.0089
CC1(CO)CC1NC=O	C[C@@]1(CO)C[C@H]1NC=O	
InChI=1S/C6H11NO2/c1-6(3-8)2-5(6)7-4-9/h4-5,8H,2-3H2,1H3,(H,7,9)	InChI=1S/C6H11NO2/c1-6(3-8)2-5(6)7-4-9/h4-5,8H,2-3H2,1H3,(H,7,9)/t5-,6+/m1/s1
