18
gdb 79300	3.86979	1.2553	1.16858	1.8691	85.06	-0.2302	0.0224	0.2526	1116.9301	0.147355	-364.706258	-364.698342	-364.697398	-364.738381	31.422	
C	-0.0335107024	 1.6073393751	 0.0159283356	-0.43452
C	 0.0846810949	 0.0946419944	-0.0441024403	 0.072908
C	 0.80499349	-0.6235098923	-1.175726271	-0.159428
C	 2.2787467113	-0.7100445432	-0.7629087038	-0.145496
C	 2.3752673416	-0.0497847365	 0.5994839772	-0.186387
N	 1.0103164704	-0.6076171319	 0.9495347219	-0.22521
C	 1.2573964191	-1.6638902497	-0.1756300544	 0.356197
C	 1.1421745161	-3.0629574135	-0.0813159658	 0.012202
C	 1.044818842	-4.2605303154	 0.0011267138	-0.362095
H	 0.8832151901	 2.1193795977	-0.2859375946	 0.121171
H	-0.8325518227	 1.9423499134	-0.6537898458	 0.120992
H	-0.2915064341	 1.9257122939	 1.0317842962	 0.131485
H	-0.9011698754	-0.3557966604	 0.1091833995	 0.090898
H	 0.4950180756	-0.8014400703	-2.1982469376	 0.101979
H	 3.052573946	-0.9511543514	-1.4808901585	 0.104626
H	 3.1193001072	-0.5306401421	 1.2388969776	 0.118061
H	 2.4716059287	 1.0363835049	 0.6810087271	 0.100627
H	 0.9573744116	-5.3157080428	 0.0782311128	 0.181992
108.5897	145.6567	188.1595	253.2081	317.0133	427.3467	450.3896	513.2262	564.0595	567.247	617.173	679.9036	697.673	759.0226	786.3316	856.7353	898.3616	900.994	925.3392	941.7227	990.4381	1009.9581	1059.6865	1081.8642	1095.743	1102.8538	1139.8248	1177.247	1237.0395	1256.629	1290.5815	1301.1315	1391.5413	1402.4196	1428.4136	1487.9031	1495.1278	1523.6503	2229.3934	3037.5182	3054.4768	3060.0511	3102.2949	3110.0911	3123.8686	3189.7393	3200.8784	3502.887
CC1C2C3CN1C23C#C	C[C@H]1[C@H]2[C@H]3CN1[C@@]23C#C	
InChI=1S/C8H9N/c1-3-8-6-4-9(8)5(2)7(6)8/h1,5-7H,4H2,2H3	InChI=1S/C8H9N/c1-3-8-6-4-9(8)5(2)7(6)8/h1,5-7H,4H2,2H3/t5-,6+,7-,8+/m0/s1
