17
gdb 47886	2.38386	1.63146	1.20315	6.6777	69.95	-0.2346	-0.0152	0.2194	1056.8906	0.138742	-455.206321	-455.198226	-455.197281	-455.239079	30.613	
O	 0.0418096861	 0.2698195451	-1.1359615562	-0.35182
C	-0.0032651691	 1.2146599845	-0.3785263813	 0.299602
N	-1.1553236939	 1.8810816924	-0.0673281886	-0.302104
C	-1.2491645757	 3.023208546	 0.8327667758	-0.172082
C	-0.6444696021	 4.3109036611	 0.2423743247	-0.194767
C	 0.6748058615	 4.0139233692	-0.4949809547	-0.172083
N	 1.524444032	 3.0636052719	 0.2110249782	-0.302106
C	 1.2763404489	 1.7253303801	 0.3361967647	 0.2996
O	 2.0016626207	 0.9614532158	 0.9352485912	-0.351813
H	-1.9844151542	 1.5343852476	-0.5274838657	 0.252336
H	-2.302767024	 3.1726289549	 1.0783914142	 0.122023
H	-0.7425406588	 2.7812580345	 1.7727399544	 0.140681
H	-1.3390129054	 4.7784797592	-0.4647662654	 0.108749
H	-0.4821243483	 5.0235561417	 1.0589744595	 0.108749
H	 0.4533661939	 3.6235163169	-1.4936322423	 0.140679
H	 1.2467489695	 4.9327034431	-0.6414745669	 0.122024
H	 2.3650731189	 3.3846584261	 0.6688476583	 0.252335
79.4904	112.4768	230.4021	278.6283	330.5838	338.7345	388.4978	401.692	503.692	533.4328	601.3683	607.8337	702.8197	724.194	814.1961	816.6624	859.1226	957.8797	1012.8198	1072.3255	1080.3727	1137.0363	1229.5022	1255.4689	1285.3171	1303.0023	1376.2722	1383.9	1391.7874	1421.9466	1448.6177	1452.1069	1486.8598	1503.3275	1505.1336	1796.3505	1805.3878	3036.8304	3051.0423	3055.2761	3082.4253	3110.9605	3112.2302	3611.131	3611.5139
O=C1NCCCNC1=O	O=C1NCCCNC1=O	
InChI=1S/C5H8N2O2/c8-4-5(9)7-3-1-2-6-4/h1-3H2,(H,6,8)(H,7,9)	InChI=1S/C5H8N2O2/c8-4-5(9)7-3-1-2-6-4/h1-3H2,(H,6,8)(H,7,9)
