25
gdb 121019	3.02999	0.91336	0.76085	0.1238	94.07	-0.2344	0.0293	0.2637	1620.1897	0.229302	-352.380028	-352.369995	-352.36905	-352.415171	37.988	
C	 0.136103814	 1.5750232	-0.0737018981	-0.38166
C	 0.0538297251	 0.0504957421	 0.0424780694	-0.167811
C	-1.3872427178	-0.4760139576	 0.0184397919	-0.190464
C	-1.4859493577	-2.002252885	 0.0873821785	 0.025196
C	-0.9409132179	-2.6449740354	 1.3922513379	-0.259871
C	-1.7568730217	-3.9094161636	 1.5134794655	-0.073762
C	-2.8078678655	-3.9018931305	 0.6959409131	-0.063101
C	-2.9162541698	-2.6128907431	-0.0914792279	-0.053139
C	-4.0812432671	-1.749680239	 0.4292428994	-0.387223
H	 1.173834651	 1.9229773407	-0.0576927218	 0.109442
H	-0.318414021	 1.9261223559	-1.0070085073	 0.112184
H	-0.3914004892	 2.0643254571	 0.7528444844	 0.112614
H	 0.6200104491	-0.4109185492	-0.777930345	 0.092406
H	 0.5467827614	-0.2708346497	 0.9685267393	 0.098668
H	-1.946005302	-0.0270850853	 0.8505969254	 0.092461
H	-1.8756151802	-0.1225932397	-0.9005898026	 0.088248
H	-0.881893109	-2.4110824258	-0.733701761	 0.071695
H	 0.1372522893	-2.8346792156	 1.3436016118	 0.100248
H	-1.095353574	-1.9928256159	 2.2658322667	 0.0987
H	-1.5099729836	-4.7026678923	 2.2111253348	 0.08696
H	-3.557235452	-4.6843021454	 0.6295709609	 0.08522
H	-3.1036656908	-2.808747835	-1.1554842318	 0.06763
H	-3.9507680369	-1.4986721922	 1.4871128415	 0.115625
H	-4.1776337253	-0.8165231755	-0.1344211295	 0.112094
H	-5.0278691983	-2.2925536197	 0.3358104646	 0.107639
70.4352	97.0121	110.8307	133.9277	243.2288	254.0044	266.0656	277.0255	313.5573	378.4939	472.5806	519.7202	667.9904	734.7063	747.2354	765.6726	790.432	852.2455	887.0873	905.1766	963.5309	966.1159	976.092	980.2271	1042.309	1050.3309	1066.7802	1094.0827	1099.8279	1132.12	1139.9384	1157.8479	1201.0186	1262.4643	1288.5644	1292.9415	1315.1741	1327.2938	1332.3291	1360.2433	1364.497	1381.8889	1397.3932	1403.9345	1410.7834	1480.4896	1489.8933	1492.5527	1497.4065	1499.1347	1500.8622	1510.6811	1687.0336	2988.8608	3000.1271	3003.6881	3016.0997	3016.8959	3027.5575	3030.2255	3035.9289	3055.0933	3058.3915	3094.3668	3096.4711	3099.5686	3104.5709	3172.0145	3198.6846
CCCC1CC=CC1C	CCC[C@H]1CC=C[C@H]1C	
InChI=1S/C9H16/c1-3-5-9-7-4-6-8(9)2/h4,6,8-9H,3,5,7H2,1-2H3	InChI=1S/C9H16/c1-3-5-9-7-4-6-8(9)2/h4,6,8-9H,3,5,7H2,1-2H3/t8-,9+/m1/s1
