17
gdb 26700	2.23386	1.61296	0.95059	0.8968	72.23	-0.182	0.044	0.226	1200.473	0.133011	-458.999574	-458.989636	-458.988691	-459.034156	35.091	
C	-0.0353524469	 1.5476716225	 0.0272334939	-0.508841
C	 0.0102375942	 0.0532085117	 0.020027006	 0.072232
C	 0.0080466248	-0.7568939117	-1.0640068852	 0.286086
O	-0.1290983771	-0.4884408335	-2.3781454404	-0.426079
O	 0.0605912406	-2.0795257996	-0.7066835261	-0.221053
C	 0.0899486636	-2.0892000435	 0.6640070271	 0.286147
O	 0.2435706163	-3.2892063044	 1.2591542816	-0.426085
C	 0.0513595596	-0.8357614527	 1.1727313481	 0.072214
C	 0.0636959774	-0.4495563028	 2.6171142252	-0.50884
H	 0.813638661	 1.9755421553	 0.5737224052	 0.123198
H	-0.0100728774	 1.9364954932	-0.9938355988	 0.133896
H	-0.9465238389	 1.9265599342	 0.5062453106	 0.125038
H	 0.5046595842	-1.017206625	-2.8780308498	 0.30498
H	-0.3692810643	-3.9207007436	 0.8632386301	 0.304978
H	 0.9581701032	 0.1293792402	 2.8778688849	 0.125037
H	-0.803524995	 0.1688996321	 2.877782391	 0.123196
H	 0.0467569947	-1.3392714722	 3.2515643867	 0.133896
103.0377	136.6527	143.1284	153.9133	199.0413	211.2527	224.4627	265.8717	316.6269	316.755	369.4373	542.2451	610.6181	623.1453	656.3598	658.8712	721.7774	870.3219	962.552	1056.8847	1073.4504	1082.7246	1114.6705	1145.909	1246.8469	1267.206	1311.9773	1340.2098	1409.2453	1417.5261	1440.6839	1482.1627	1488.956	1493.2001	1501.7325	1717.1892	1742.6152	3019.6711	3021.8664	3064.7689	3065.7844	3116.4764	3117.5632	3779.3625	3780.1114
CC1=C(O)OC(O)=C1C	Cc1c(O)oc(O)c1C	
InChI=1S/C6H8O3/c1-3-4(2)6(8)9-5(3)7/h7-8H,1-2H3	InChI=1S/C6H8O3/c1-3-4(2)6(8)9-5(3)7/h7-8H,1-2H3
