17
gdb 42711	2.59625	1.98799	1.65383	2.3999	77.36	-0.2365	-0.0005	0.2361	891.3475	0.137144	-384.634763	-384.628034	-384.62709	-384.665504	27.906	
O	 0.0966775965	 0.0596783259	 0.2624923647	-0.314791
C	 0.0120225956	 1.2334016754	 0.1211342532	 0.394447
C	-1.0917723956	 2.3331979247	-0.0603213451	-0.227432
C	-0.723981306	 3.0563599339	 1.2533210452	-0.08982
C	 0.6293179004	 3.1373826959	 1.2871108319	-0.219045
C	 1.0094490579	 2.4928473173	-0.01612024	 0.215788
C	 2.0484880397	 2.3484962783	-1.1322757872	-0.340853
C	 0.8237846491	 2.3327682594	-2.1309119677	-0.281704
C	-0.0533350738	 3.0004053951	-1.0117113013	 0.009437
H	-2.1434395079	 2.1385491345	-0.2676709354	 0.078509
H	-1.4276776683	 3.2696889143	 2.0456178982	 0.112804
H	 1.262040605	 3.4564594302	 2.1033706942	 0.114302
H	 2.6713671216	 3.2383390437	-1.2598810227	 0.113431
H	 2.6867950689	 1.4624360786	-1.1102283091	 0.117849
H	 0.9309282396	 2.9184305768	-3.0447279816	 0.106231
H	 0.5222969799	 1.3177508266	-2.3995063936	 0.129424
H	-0.1516010927	 4.0841792293	-1.1095802738	 0.081422
151.6284	219.9628	267.2843	389.8589	413.4249	538.0917	584.9165	609.7396	658.2861	685.2319	752.4223	786.9358	814.8686	841.0712	862.5416	878.6277	897.618	909.1935	970.3303	1013.4076	1032.6159	1064.5705	1099.7616	1108.8701	1145.0462	1183.8083	1203.4679	1223.9742	1229.7422	1248.5284	1275.3224	1314.8611	1343.2647	1475.7435	1489.3812	1539.4007	1909.8311	3060.4933	3076.8298	3087.9845	3114.4592	3125.9991	3136.5867	3220.2019	3243.0577
O=C1C2C=CC11CCC21	O=C1[C@H]2C=C[C@]31CC[C@@H]23	
InChI=1S/C8H8O/c9-7-5-1-3-8(7)4-2-6(5)8/h1,3,5-6H,2,4H2	InChI=1S/C8H8O/c9-7-5-1-3-8(7)4-2-6(5)8/h1,3,5-6H,2,4H2/t5-,6-,8-/m0/s1
