17
gdb 98643	4.57104	0.92115	0.79169	0.8651	72.24	-0.2371	-0.0381	0.199	1399.8534	0.134605	-455.14462	-455.135624	-455.134679	-455.179007	31.913	
C	-0.1143857091	 1.2213723312	 0.0848156837	-0.222555
O	 0.0767120712	-0.1902321711	-0.0188409157	-0.243129
C	 0.7351426617	-0.6143163308	-1.117260238	 0.474599
N	 1.133646569	 0.1900608795	-2.0212820906	-0.595681
N	 0.904843705	-1.9817549692	-1.0544424508	-0.142033
C	 0.0312855566	-2.9224614222	-0.3223757512	-0.287359
C	 0.2860242009	-3.9200850562	-1.4673611867	 0.386038
O	-0.0065541421	-5.0550391491	-1.6786204142	-0.265897
C	 1.0832743699	-2.8424798824	-2.2332159067	-0.307191
H	 0.846556859	 1.7419538563	 0.0906475712	 0.141309
H	-0.7063874039	 1.5955982915	-0.7543247419	 0.139637
H	-0.6419878016	 1.3763027498	 1.0269117584	 0.126188
H	 1.6204371365	-0.2963648747	-2.7692556237	 0.218625
H	 0.3987104006	-3.2240390428	 0.663750501	 0.145932
H	-1.013953925	-2.6031762028	-0.2327695963	 0.147258
H	 0.5768266494	-2.4822606835	-3.1402443887	 0.139702
H	 2.1203429421	-3.0985946136	-2.4762812397	 0.14456
66.0931	99.3473	137.4288	155.7736	174.1557	224.2509	329.9639	423.0482	441.7713	451.528	555.4056	709.2091	736.0608	763.3759	785.4767	788.3585	922.521	979.6879	1049.9125	1062.9154	1098.6774	1105.7452	1152.016	1155.0418	1184.0186	1205.1942	1225.7279	1263.1781	1301.3051	1411.874	1465.2521	1476.4744	1482.2682	1493.4129	1504.4914	1714.3021	1931.3437	3007.7918	3036.9594	3049.7673	3070.1584	3086.024	3124.8513	3150.8824	3531.862
COC(=N)N1CC(=O)C1	CO[C]([NH])N1CC(=O)C1	
InChI=1S/C5H8N2O2/c1-9-5(6)7-2-4(8)3-7/h6H,2-3H2,1H3	InChI=1S/C5H8N2O2/c1-9-5(6)7-2-4(8)3-7/h6H,2-3H2,1H3
