15
gdb 24457	3.66011	1.63899	1.16829	2.7515	66.36	-0.2013	0.0357	0.237	978.3345	0.116638	-453.971279	-453.964696	-453.963752	-454.002244	25.806	
C	 0.0198869317	 1.3871828969	 0.0199941209	 0.001307
O	 1.299862221	 1.9215204852	-0.0097726092	-0.23561
C	 2.0794729208	 1.6306433186	 1.1684497871	-0.195452
C	 1.8698712201	 0.1887581677	 1.4990535823	 0.130405
C	 0.897347073	-0.5123444988	 0.8495440039	 0.396122
N	 0.9637787698	-1.8009919324	 1.3064753061	-0.365834
C	 1.990958681	-1.818229861	 2.2265591943	-0.011355
N	 2.5499151966	-0.6401608047	 2.3651453975	-0.321912
O	 0.0082856572	-0.0565575939	-0.0554105254	-0.276018
H	-0.5144798289	 1.6692959833	 0.9409275775	 0.100583
H	-0.506473843	 1.7333263027	-0.8693990331	 0.129805
H	 3.1149372728	 1.8542937971	 0.8962973044	 0.135169
H	 1.7920370466	 2.3080014024	 1.9874647844	 0.109873
H	 0.3773573033	-2.5676202179	 1.0228467041	 0.272185
H	 2.272593228	-2.721532445	 2.7450005553	 0.130732
124.9521	229.5931	313.82	379.5708	409.3277	475.3115	479.157	587.9783	665.2073	696.6818	728.3463	765.0876	786.9693	937.3595	948.533	965.2636	1035.4536	1079.9973	1100.6074	1131.3763	1204.708	1232.2207	1278.4881	1299.7074	1318.5015	1373.5838	1394.8223	1432.5318	1488.6338	1498.2252	1510.5246	1539.4857	1667.	2979.5987	2985.0651	3084.0132	3139.8469	3260.3385	3670.1851
C1OCC2=C(NC=N2)O1	C1OCc2c([nH]cn2)O1	
InChI=1S/C5H6N2O2/c1-4-5(7-2-6-4)9-3-8-1/h2H,1,3H2,(H,6,7)	InChI=1S/C5H6N2O2/c1-4-5(7-2-6-4)9-3-8-1/h2H,1,3H2,(H,6,7)
