16
gdb 128514	3.26036	1.27814	0.92855	2.8399	69.4	-0.2087	0.03	0.2387	1215.4586	0.124543	-471.18217	-471.173041	-471.172097	-471.216145	32.832	
C	 0.0008434599	 1.3942351838	 0.0678193788	-0.250995
O	 0.0504368015	-0.0354706155	-0.002597069	-0.275828
C	 0.6608819415	-0.6675750651	 0.9973527529	 0.53339
C	 0.7919967295	-2.0095230058	 1.2102985016	-0.143774
N	 0.3100007327	-3.1373087204	 0.4999075194	-0.632569
C	 1.5179009147	-2.0548157937	 2.4391299517	 0.444089
N	 1.9401002649	-3.2173759279	 3.0440062688	-0.587529
N	 1.7984124855	-0.8617591871	 2.9235016019	-0.281121
O	 1.223922445	 0.0439626998	 1.9739366554	-0.243392
H	 1.008348103	 1.81962902	 0.0682684684	 0.146952
H	-0.5404270781	 1.7121514576	-0.8231721855	 0.139645
H	-0.5275791329	 1.7226765956	 0.9674692621	 0.145118
H	-0.6051158785	-2.958582116	 0.101125499	 0.244533
H	 0.9249426748	-3.400400138	-0.2648231972	 0.244722
H	 1.3527696846	-4.0078930589	 2.8150906494	 0.259372
H	 2.1333073119	-3.1297287585	 4.0313265523	 0.257387
65.8892	142.4717	166.1581	189.3103	196.7147	237.0465	298.073	356.4502	379.7916	417.1173	573.1355	604.2166	625.0286	678.6762	741.9033	759.315	781.7817	834.3491	915.9062	998.8105	1126.0277	1140.5483	1177.0668	1205.74	1238.4627	1277.4425	1374.9541	1465.5587	1484.6861	1501.1634	1528.3248	1580.0838	1636.3707	1660.3241	1712.3966	3043.6795	3116.6365	3157.065	3490.1256	3555.311	3569.7586	3664.3108
COC1=C(N)C(N)=NO1	COc1c(N)c(N)no1	
InChI=1S/C4H7N3O2/c1-8-4-2(5)3(6)7-9-4/h5H2,1H3,(H2,6,7)	InChI=1S/C4H7N3O2/c1-8-4-2(5)3(6)7-9-4/h5H2,1H3,(H2,6,7)
