17
gdb 10658	2.86009	1.81283	1.37368	2.844	65.98	-0.2445	-0.0354	0.2091	945.1699	0.140172	-400.970898	-400.962272	-400.961328	-401.004018	31.032	
C	-0.2854363698	 1.3853783407	 0.0375198612	-0.317342
N	 0.0460218645	-0.0341728804	 0.096257179	-0.109752
C	 1.3912150656	-0.4522553122	-0.2074576357	-0.290626
C	 0.8884400505	-0.5217721282	 1.209356295	 0.196482
C	 1.4772248025	 0.3797545163	 2.2805883922	-0.150109
O	 0.5394471722	 0.6909956892	 3.2922870298	-0.426867
C	 0.3916882512	-1.8378560852	 1.7081574259	 0.143761
O	 0.4415122525	-2.181615823	 2.8671905093	-0.283546
H	 0.5757036574	 2.0553669276	 0.1723885872	 0.108977
H	-0.7247417923	 1.5916887328	-0.9429860671	 0.130252
H	-1.0241297616	 1.6116755942	 0.8100771846	 0.14873
H	 1.5003866333	-1.354562521	-0.8052850923	 0.122915
H	 2.1453637691	 0.3129762438	-0.395534008	 0.119402
H	 2.3681466491	-0.1164668605	 2.6939275098	 0.105669
H	 1.8064159124	 1.3288497822	 1.850333805	 0.108244
H	 0.3390898903	-0.1456382754	 3.730940668	 0.299324
H	-0.0606920367	-2.4832703209	 0.925830606	 0.094485
84.3334	105.6132	157.8548	204.0377	247.3353	294.7897	305.4796	374.8558	432.9176	507.1159	534.9012	562.9816	725.4885	811.4646	882.0056	930.3407	985.709	1041.5049	1061.5294	1080.0081	1118.8397	1127.4541	1146.2133	1200.3334	1224.5837	1323.2224	1350.9678	1380.0795	1420.2628	1438.3989	1447.1486	1481.8886	1486.1069	1503.9271	1510.8532	1800.3575	2917.5321	2995.2646	2999.3243	3077.0174	3081.9634	3095.9585	3127.1631	3164.7159	3778.5215
CN1CC1(CO)C=O	CN1C[C@]1(CO)C=O	
InChI=1S/C5H9NO2/c1-6-2-5(6,3-7)4-8/h3,8H,2,4H2,1H3	InChI=1S/C5H9NO2/c1-6-2-5(6,3-7)4-8/h3,8H,2,4H2,1H3/t5-,6?/m1/s1
