19
gdb 11576	3.08033	1.39537	1.03612	1.5086	67.61	-0.2378	0.0612	0.2989	1139.613	0.165329	-402.157192	-402.148288	-402.147344	-402.190713	32.72	
O	-0.5615871544	-0.2006388343	 1.4112124084	-0.409333
C	-0.475834363	 0.0975399395	 0.0273016049	-0.07882
C	-1.5753404507	-0.5299212373	-0.8456479357	 0.087765
O	-1.3251394108	-0.1719864094	-2.2021217892	-0.424815
C	-1.7267177569	-2.055918506	-0.6668131721	-0.248316
C	-2.7323499523	-2.4733838263	 0.3866304905	 0.024849
C	-2.5569469629	-3.7291670072	 1.157308046	-0.250852
N	-2.4145511412	-2.4242801278	 1.8220273796	-0.322918
H	-1.4069212743	 0.1218739745	 1.7428370492	 0.297787
H	-0.4633180377	 1.1813101633	-0.1536620893	 0.104884
H	 0.4953169401	-0.2985827295	-0.2976807013	 0.098324
H	-2.5359957133	-0.0515263843	-0.6121039374	 0.087041
H	-0.5094539429	-0.6065650498	-2.4760772312	 0.280715
H	-2.0565167136	-2.4524972694	-1.6351178684	 0.11148
H	-0.7489856652	-2.5072843368	-0.4479812187	 0.089186
H	-3.752240528	-2.1574907375	 0.1668011406	 0.089055
H	-3.4214908047	-4.3128259497	 1.461707102	 0.11467
H	-1.6619099647	-4.3172014155	 0.9670147274	 0.107796
H	-1.4318754336	-2.1842962363	 1.9308536846	 0.241502
78.8208	120.9399	154.6139	184.6837	225.2235	293.6891	335.3583	372.594	422.7333	429.0501	465.9849	508.824	803.0376	830.9819	875.1323	893.4834	957.2521	970.9076	1011.4349	1056.444	1070.1676	1092.3202	1115.7646	1128.281	1145.2523	1170.7044	1214.5692	1253.0564	1277.3454	1280.172	1324.328	1333.9966	1369.1863	1383.4504	1420.4638	1424.3196	1433.3724	1471.7931	1501.5264	1515.4553	3005.3903	3009.9588	3021.9897	3053.9967	3059.9551	3102.2771	3105.9931	3185.9138	3504.2126	3796.3323	3808.2595
OCC(O)CC1CN1	OC[C@@H](O)C[C@H]1CN1	
InChI=1S/C5H11NO2/c7-3-5(8)1-4-2-6-4/h4-8H,1-3H2	InChI=1S/C5H11NO2/c7-3-5(8)1-4-2-6-4/h4-8H,1-3H2/t4-,5-/m0/s1
