19
gdb 109967	2.30226	1.3791	0.9827	4.6118	75.9	-0.256	0.0082	0.2642	1230.4816	0.159463	-419.193916	-419.184617	-419.183673	-419.228008	34.264	
C	-0.980619054	 1.1766683402	-0.0398800419	-0.403076
C	-0.0163052531	 0.0027012311	-0.0321788309	 0.043149
N	 1.3105829929	 0.2642520246	-0.6499894512	-0.314919
C	 1.974097742	-0.5982546342	 0.3456295028	-0.134571
C	 3.2636560245	-0.1111969227	 0.8431438037	 0.301097
N	 4.2629624455	 0.272868112	 1.2813197906	-0.34069
C	 0.7238148776	-0.4302390949	 1.2730789844	-0.044916
C	 0.8684116087	 0.6283170817	 2.3661200321	-0.086388
O	 1.6497874639	 0.1581658764	 3.4497301539	-0.428165
H	-0.5231978503	 2.0761905554	 0.3788673852	 0.13218
H	-1.2871456125	 1.4042801251	-1.0664936416	 0.120507
H	-1.8852010162	 0.9407666873	 0.5308173171	 0.121515
H	-0.5137792649	-0.8760717144	-0.4712633873	 0.071564
H	 1.4273072441	-0.0187510064	-1.6173825775	 0.227012
H	 2.1018281325	-1.6452848599	 0.0375149973	 0.113281
H	 0.3812683057	-1.3612987097	 1.7267148401	 0.094153
H	 1.2753271266	 1.5590081635	 1.9482976681	 0.115528
H	-0.1227359031	 0.8575175704	 2.7726947446	 0.112402
H	 2.5783553601	 0.2442101143	 3.2066686304	 0.300339
74.0738	126.3674	159.6826	181.1549	214.428	238.4952	287.2199	355.5161	392.1879	431.5404	469.7148	564.4221	578.5799	666.0642	779.8133	834.5796	873.9459	929.651	990.5503	991.7976	1024.5942	1070.0878	1078.1637	1095.9471	1149.4454	1156.1732	1166.0463	1223.4441	1252.6291	1309.9353	1337.4176	1352.6962	1384.2161	1404.2105	1412.9693	1419.2843	1421.488	1487.4096	1496.9584	1505.7481	2345.0644	2972.0851	3004.0317	3014.0365	3037.8501	3070.0663	3100.1246	3106.7613	3127.0483	3524.4731	3806.0137
CC1NC(C#N)C1CO	C[C@H]1N[C@@H](C#N)[C@H]1CO	
InChI=1S/C6H10N2O/c1-4-5(3-9)6(2-7)8-4/h4-6,8-9H,3H2,1H3	InChI=1S/C6H10N2O/c1-4-5(3-9)6(2-7)8-4/h4-6,8-9H,3H2,1H3/t4-,5+,6+/m1/s1
