22
gdb 60214	3.74396	0.95856	0.85151	1.8543	82.65	-0.2327	0.0711	0.3037	1445.4901	0.193092	-404.298454	-404.28905	-404.288106	-404.333223	35.341	
C	-0.0541919383	 1.5589934563	 0.0990311363	-0.389854
C	-0.0103359755	 0.0399433733	-0.0190002906	 0.147861
C	 0.6040884309	-0.61901161	 1.2193367929	-0.389731
O	-1.3537634917	-0.3836221673	-0.2446863164	-0.270535
C	-1.5165805605	-1.7035366473	-0.6908378076	 0.131299
C	-1.8095746018	-2.8538802341	 0.3227479205	-0.204884
N	-3.0983692296	-3.2031494547	-0.3723581501	-0.130655
C	-3.9316818962	-1.9960890383	-0.2494914861	-0.230938
C	-2.8817961257	-2.0003609333	-1.2867097128	-0.063626
H	 0.9535294548	 1.9661552462	 0.2236801805	 0.112426
H	-0.5020729957	 1.9984423563	-0.7958933257	 0.122239
H	-0.6562048403	 1.855408721	 0.96393115	 0.122595
H	 0.5938648908	-0.2348556725	-0.900754182	 0.065941
H	 0.6563742365	-1.7065704849	 1.113792689	 0.119753
H	 1.6226088445	-0.2513654853	 1.380936635	 0.114204
H	 0.0083427848	-0.387164244	 2.1082060564	 0.121109
H	-0.7028731034	-1.9786198267	-1.3759255191	 0.074291
H	-1.1072474325	-3.6886235654	 0.2695324742	 0.107421
H	-1.941686769	-2.5489820864	 1.3653886932	 0.10687
H	-4.9531499069	-2.1499808664	-0.5832229411	 0.120098
H	-3.8244166483	-1.3609350377	 0.6264834073	 0.121198
H	-3.109999707	-2.0369945887	-2.3468582539	 0.092918
49.0527	80.0286	113.9316	206.961	237.2122	267.977	307.5167	321.565	428.9345	466.4951	483.9844	547.1509	725.4811	759.4573	790.7111	832.7039	870.9467	926.3546	943.0781	959.5406	964.5039	992.7147	1002.3422	1061.4353	1073.7236	1111.4481	1120.2502	1142.1716	1163.6935	1170.7935	1199.7161	1205.5411	1227.8316	1266.9436	1294.2177	1356.3711	1368.0504	1375.9596	1398.63	1412.3867	1425.6079	1479.7569	1484.0793	1486.2895	1495.2051	1506.6332	1510.0645	2953.1253	3006.9265	3034.9727	3042.8916	3051.6137	3106.7144	3110.9231	3111.496	3114.2675	3116.299	3123.8348	3165.6458	3203.4348
CC(C)OC1CN2CC12	CC(C)O[C@H]1CN2C[C@@H]12	
InChI=1S/C7H13NO/c1-5(2)9-7-4-8-3-6(7)8/h5-7H,3-4H2,1-2H3	InChI=1S/C7H13NO/c1-5(2)9-7-4-8-3-6(7)8/h5-7H,3-4H2,1-2H3/t6-,7-,8?/m0/s1
