18
gdb 66057	2.53765	1.22945	1.10394	2.2409	76.94	-0.2652	-0.0423	0.2228	1175.9081	0.146118	-401.968127	-401.958902	-401.957958	-402.00265	33.156	
C	-0.169178914	 1.7015751556	 0.2687534464	-0.466773
C	-0.1214449655	 0.1857369391	 0.0848289942	 0.213048
C	 0.952845696	-0.3258080462	-0.9108026638	-0.27086
C	 1.8772991477	-0.7019757352	 0.27363213	-0.23288
C	 0.6576371639	-0.5852072362	 1.2412547927	-0.190904
C	 0.8427009826	 0.0869598116	 2.5134700643	 0.280326
N	 0.9938356765	 0.6456246205	 3.5150089768	-0.330774
C	-1.5176647107	-0.3692015396	-0.1009512088	 0.104631
O	-1.8366984979	-1.1571488006	-0.95356704	-0.245904
H	 0.8228015829	 2.1049840586	 0.4901980121	 0.139663
H	-0.5329864682	 2.1811572854	-0.6457375885	 0.132407
H	-0.8311000215	 1.9839346161	 1.0938667027	 0.141467
H	 0.5865805054	-1.1922758186	-1.4647374788	 0.135889
H	 1.3367959657	 0.4124930908	-1.6168028134	 0.113191
H	 2.3620850461	-1.6786738407	 0.2485089157	 0.124373
H	 2.6298562298	 0.0594785996	 0.485278805	 0.129869
H	 0.2068567148	-1.5658953742	 1.4188467001	 0.134689
H	-2.2568400636	-0.0035070661	 0.6490532432	 0.088542
56.3553	77.5552	139.4026	185.4718	232.8259	259.5922	297.6296	328.5319	348.3942	493.2741	525.6931	572.8997	676.4121	743.4345	799.0531	881.3492	897.859	943.3159	960.3146	971.653	1006.177	1058.7266	1103.1316	1145.5087	1174.8389	1230.2326	1232.9205	1262.3904	1274.5955	1299.3763	1342.2863	1410.1336	1423.9795	1484.3981	1489.244	1496.7032	1500.6281	1826.1493	2349.3614	2867.5535	3037.2655	3069.5776	3079.4687	3084.2362	3108.0262	3115.799	3129.3861	3145.2695
CC1(CCC1C#N)C=O	C[C@]1(CC[C@H]1C#N)C=O	
InChI=1S/C7H9NO/c1-7(5-9)3-2-6(7)4-8/h5-6H,2-3H2,1H3	InChI=1S/C7H9NO/c1-7(5-9)3-2-6(7)4-8/h5-6H,2-3H2,1H3/t6-,7-/m0/s1
