14
gdb 20273	4.65183	2.65185	2.43381	1.3306	57.76	-0.2289	0.065	0.2939	611.4725	0.110078	-382.458824	-382.454198	-382.453254	-382.487313	20.096	
O	-0.0423601439	 1.505450798	 0.0488398737	-0.298875
C	 1.401339128	 1.3758323585	 0.0002121579	 0.072793
C	 1.800958759	 0.6991426508	 1.3383086634	 0.072793
O	 2.920912749	-0.1639319792	 1.0154488652	-0.298876
C	 1.9508754343	-0.9352967456	 0.2791681238	 0.077661
C	 1.3157230356	 0.0199504942	-0.784866205	-0.116174
C	-0.0478520391	 0.0667202755	-0.0412080743	 0.077661
C	 0.7705654879	-0.4733345646	 1.178062913	-0.116174
H	 1.9262503452	 2.2673084182	-0.3364196035	 0.090608
H	 1.9357223898	 1.3021814314	 2.2337221403	 0.090608
H	 2.2513908934	-1.9519277789	 0.0349790425	 0.088524
H	 1.4615889858	-0.0221711638	-1.8602555804	 0.085463
H	-0.9934741145	-0.3781605522	-0.3434605007	 0.088524
H	 0.3734688395	-1.0003825523	 2.040645024	 0.085463
456.3925	467.0559	547.1029	712.5555	738.9813	808.2354	817.7402	843.5569	851.9546	875.0987	884.7402	895.3205	940.1694	941.6814	952.9883	974.0691	1010.1647	1061.5112	1111.56	1123.9575	1135.4612	1170.1622	1175.0968	1213.6994	1218.5629	1260.6063	1273.0411	1298.019	1304.0798	1341.0836	3142.4149	3142.5149	3143.6592	3150.7548	3164.4579	3170.322
O1C2C3OC4C2C1C34	O1[C@H]2[C@@H]3O[C@@H]4[C@H]2[C@H]1[C@H]34	
InChI=1S/C6H6O2/c7-3-1-4-2(3)6(8-4)5(1)7/h1-6H	InChI=1S/C6H6O2/c7-3-1-4-2(3)6(8-4)5(1)7/h1-6H/t1-,2+,3+,4-,5-,6-/m1/s1
