25
gdb 118748	2.945	0.82718	0.74796	1.3959	89.4	-0.261	0.08	0.3409	1666.9447	0.227334	-389.486061	-389.475325	-389.474381	-389.521861	40.316	
C	 0.1933686615	 1.6050035736	 0.13909058	-0.407309
C	 0.0905701205	 0.0900573772	 0.04601427	 0.057896
C	 1.0691286978	-0.6640513476	-0.8973977979	-0.281732
C	 1.2670013874	-1.7601182754	 0.1989169049	 0.347204
C	 0.3680201176	-2.9753225721	-0.0558734404	-0.447722
C	 2.7233826283	-2.1591335802	 0.4530228567	-0.239233
C	 2.9474454304	-3.0305989099	 1.6845268102	-0.082908
O	 4.3514072772	-3.1735580436	 1.8576029434	-0.419536
C	 0.6314187805	-0.7648394991	 1.2259751511	-0.270741
H	 1.2206732847	 1.9152829691	 0.3632367066	 0.10971
H	-0.1006990277	 2.0842618702	-0.8017581437	 0.112071
H	-0.4536079359	 2.0014327756	 0.9300793048	 0.111447
H	-0.9438344503	-0.1904284587	-0.1794588171	 0.0687
H	 0.6856121777	-0.9957665009	-1.866988972	 0.088703
H	 1.9863695994	-0.0900119252	-1.066515726	 0.090735
H	 0.7490223987	-3.5762304616	-0.8900368844	 0.111246
H	 0.3016107991	-3.6252639057	 0.8232448006	 0.111868
H	-0.6522219202	-2.6678573468	-0.3087000262	 0.111123
H	 3.1248358548	-2.6824858661	-0.4248931911	 0.097405
H	 3.3300841132	-1.2540135624	 0.5785852663	 0.097594
H	 2.4859291969	-2.5553717087	 2.5660182726	 0.086071
H	 2.4672324075	-4.0123252699	 1.5552881596	 0.085293
H	 4.5029125166	-3.7468339022	 2.614513228	 0.283391
H	 1.3967944132	-0.2250646568	 1.7945266421	 0.091102
H	-0.0991567689	-1.1713742429	 1.9318036218	 0.087623
58.6856	94.494	101.3864	166.6612	236.8326	247.1274	267.933	278.4895	312.4321	332.2941	341.5629	380.8365	439.0871	449.7194	634.0835	749.0314	797.4826	832.3488	867.0628	901.31	908.3836	941.563	959.6729	978.6796	1009.4413	1028.3327	1064.5541	1080.6407	1100.2883	1133.2994	1172.6791	1199.369	1223.9434	1237.3344	1239.6407	1254.1088	1288.9961	1294.2491	1304.918	1332.7224	1347.9233	1374.3039	1409.1405	1413.8005	1459.6657	1472.5109	1483.3087	1493.3697	1496.545	1497.4684	1499.5092	1505.0941	1528.2008	2963.1332	2994.3254	3018.7144	3019.8568	3023.6835	3034.1228	3038.4458	3041.6114	3062.4463	3085.365	3086.6723	3087.8053	3090.1448	3092.8726	3097.2035	3829.1403
CC1CC(C)(CCO)C1	C[C@H]1C[C@@](C)(CCO)C1	
InChI=1S/C8H16O/c1-7-5-8(2,6-7)3-4-9/h7,9H,3-6H2,1-2H3	InChI=1S/C8H16O/c1-7-5-8(2,6-7)3-4-9/h7,9H,3-6H2,1-2H3/t7-,8+
