16
gdb 22942	2.63811	1.51994	1.09181	1.6541	68.61	-0.2344	-0.004	0.2304	1082.6821	0.122554	-474.954285	-474.945799	-474.944854	-474.987488	31.639	
O	-0.102190765	 1.2785757158	-0.0754291975	-0.394392
N	 0.0003320692	-0.1207759709	-0.1502271002	-0.255654
C	-1.1331670578	-0.67321401	 0.0057800943	 0.323184
C	-2.4829495912	-0.0512377011	 0.2777059236	-0.171141
O	-3.3324034911	-1.11233644	 0.7174500248	-0.266178
C	-2.6980416457	-2.3473621168	 0.4959295935	 0.057736
C	-2.3316328583	-2.7104579343	-0.921746535	-0.38269
C	-1.2808827803	-2.1479455666	 0.0407346016	 0.296779
O	-0.2250942508	-2.9305650661	 0.4770454362	-0.464927
H	 0.8150970452	 1.5606397906	-0.157963114	 0.310474
H	-2.4160753751	 0.7129253558	 1.0594065736	 0.145131
H	-2.8904375389	 0.429695472	-0.6225705915	 0.12971
H	-2.9871591263	-3.1108510545	 1.2079970693	 0.122036
H	-2.2211148798	-3.770043437	-1.1259896645	 0.130728
H	-2.6992876869	-2.107980792	-1.7455643466	 0.122353
H	 0.5700645127	-2.5936299151	 0.0461988622	 0.29685
77.9042	128.5605	170.235	218.1413	256.9891	325.2134	355.0989	440.4156	443.3136	512.0675	539.0281	620.5609	671.9181	768.8552	827.4646	879.6641	924.69	975.311	997.3956	1009.4189	1022.4838	1025.0293	1067.6911	1130.8966	1158.2094	1198.4397	1211.715	1299.5402	1344.6855	1365.6162	1413.4134	1429.0096	1485.5672	1496.3838	1765.0839	3011.062	3069.5001	3130.9628	3192.8718	3228.8979	3786.822	3818.961
ON=C1COC2CC12O	ON=C1CO[C@H]2C[C@@]12O	
InChI=1S/C5H7NO3/c7-5-1-4(5)9-2-3(5)6-8/h4,7-8H,1-2H2	InChI=1S/C5H7NO3/c7-5-1-4(5)9-2-3(5)6-8/h4,7-8H,1-2H2/t4-,5+/m0/s1
