21
gdb 53379	3.63157	0.77586	0.7259	1.2951	88.13	-0.2359	0.0646	0.3006	1664.3937	0.182239	-387.083111	-387.073164	-387.07222	-387.120391	35.798	
C	 0.2048721891	 1.5703720616	-0.4219886074	-0.498924
C	 0.1007094011	 0.1395622986	-0.171740309	 0.099845
C	 0.0148292211	-1.04436343	 0.0336557089	 0.030901
C	-0.096548671	-2.4724923292	 0.2945004728	-0.152115
C	 0.3927177885	-2.9170882327	 1.696250212	-0.199384
C	-0.2436548744	-4.3035110976	 1.8430069624	-0.237127
C	-1.6813243668	-4.0926631619	 1.3291505132	 0.129762
O	-2.5168592617	-3.5228172968	 2.3369955883	-0.438752
C	-1.553192657	-3.034029408	 0.2097388555	-0.218093
H	 0.562791473	 2.1058935205	 0.4646207196	 0.14481
H	 0.902276405	 1.7841708326	-1.2398610573	 0.143622
H	-0.7656145944	 1.9994989661	-0.6957557531	 0.145304
H	 0.5144484202	-3.0068681153	-0.4462392443	 0.093078
H	 1.4821610533	-2.9139492014	 1.7789473182	 0.097414
H	-0.010530276	-2.2395978543	 2.4548645153	 0.118058
H	 0.2747966248	-5.0289759463	 1.2025520693	 0.093451
H	-0.2238793663	-4.6962396016	 2.8650360881	 0.083048
H	-2.1255449881	-5.0277066158	 0.9600208233	 0.058061
H	-2.570052508	-4.1508940103	 3.0647592128	 0.277975
H	-2.2866550525	-2.2475028554	 0.3957208977	 0.128633
H	-1.7564445998	-3.4529451928	-0.7784431662	 0.100431
13.7678	36.3739	96.9047	123.127	214.2281	286.4621	316.3358	324.2559	395.8427	414.5568	462.7779	511.8556	527.8092	681.8577	778.7945	831.2511	857.9136	894.3901	928.0224	959.4012	998.5734	1022.8781	1046.979	1052.7151	1055.1171	1078.0641	1165.2578	1184.8593	1195.6458	1211.1172	1254.552	1293.0934	1302.9994	1320.4548	1336.6589	1355.9311	1375.8351	1415.2407	1419.6284	1478.4329	1479.5454	1479.5954	1481.6481	1496.2039	2369.7369	2992.3681	2998.4167	3023.2	3026.5397	3059.6363	3074.1119	3077.6662	3082.2944	3082.6115	3112.6341	3126.9413	3810.6186
CC#CC1CCC(O)C1	CC#C[C@H]1CC[C@@H](O)C1	
InChI=1S/C8H12O/c1-2-3-7-4-5-8(9)6-7/h7-9H,4-6H2,1H3	InChI=1S/C8H12O/c1-2-3-7-4-5-8(9)6-7/h7-9H,4-6H2,1H3/t7-,8+/m0/s1
