16
gdb 33296	5.96435	0.72599	0.69112	2.2642	96.89	-0.2316	-0.0196	0.212	1607.2863	0.123576	-363.516641	-363.50835	-363.507406	-363.549829	31.436	
C	 0.0372122711	-3.7794462468	 0.0216816898	-0.588025
C	 0.0426387771	-2.5712872371	 0.0132476014	 0.26018
C	 0.045951866	-1.2126497258	 0.001946484	-0.018509
C	 0.0585023976	-0.0006402077	-0.0019287573	 0.302255
C	 0.0372339273	 1.4178972305	-0.0619525103	 0.026989
C	-0.7184626991	 2.2647616188	-1.1117563682	-0.302328
C	 0.4415535841	 3.3118231534	-1.0720989702	-0.239883
C	 1.1566921022	 2.4500521883	-0.0249342924	-0.088797
N	 0.3265402264	 2.2103206851	 1.1394632054	-0.338744
H	 0.0354071867	-4.8409809834	 0.0320739035	 0.189604
H	-0.7957685982	 1.7661438087	-2.0792325717	 0.125333
H	-1.7146742886	 2.5968356743	-0.8033683184	 0.105104
H	 0.9764537029	 3.3696564325	-2.0222819217	 0.117983
H	 0.1909042422	 4.3269508373	-0.7476545538	 0.105655
H	 2.2242410899	 2.2906746774	 0.0727176365	 0.112832
H	-0.3696150877	 2.9396446344	 1.2909358136	 0.23035
78.9891	83.7415	204.2316	226.2042	300.7265	390.2025	455.7144	491.3524	498.0709	527.5929	536.881	590.7505	601.1823	749.6425	780.0193	804.7819	870.2229	930.4653	946.115	994.4856	1049.8396	1053.5019	1078.7753	1141.0861	1158.444	1207.9126	1226.4737	1252.9153	1285.9744	1298.5492	1429.8055	1479.3826	1498.2363	2180.4578	2350.4562	3050.0916	3058.3614	3109.5062	3128.8664	3187.6189	3450.876	3504.8948
C#CC#CC12CCC1N2	C#CC#C[C@]12CC[C@H]1N2	
InChI=1S/C8H7N/c1-2-3-5-8-6-4-7(8)9-8/h1,7,9H,4,6H2	InChI=1S/C8H7N/c1-2-3-5-8-6-4-7(8)9-8/h1,7,9H,4,6H2/t7-,8+/m1/s1
