15
gdb 71537	2.61107	1.56008	1.45589	3.8134	71.49	-0.2453	-0.0085	0.2368	962.5218	0.112764	-416.72025	-416.712861	-416.711916	-416.75196	28.848	
N	 0.216279266	 1.3919805919	-0.1183886525	-0.618056
C	 0.1165242353	-0.006809838	-0.141965377	 0.278128
C	 0.618265954	-0.980429523	-1.2223987425	-0.309576
C	 0.0693810516	-1.9353501339	-0.140268946	-0.126296
C	 0.4935108258	-0.9818555668	 1.0191226446	 0.024383
O	-0.8209396527	-0.9685624511	 1.6550733212	-0.348333
C	-1.1187673649	-0.9990850913	 0.2325341366	 0.337742
C	-2.470120652	-0.9923531885	-0.2395996539	 0.149402
N	-3.5429344111	-0.9484640213	-0.6718559099	-0.344946
H	-0.1899808055	 1.7786826362	 0.7282844608	 0.252991
H	-0.2271899416	 1.825354325	-0.9212365528	 0.248597
H	 0.0874946366	-0.9708822362	-2.1777609837	 0.118874
H	 1.6994143255	-0.9991279235	-1.3802685632	 0.116501
H	 0.0433915848	-3.0217468179	-0.1102407316	 0.108736
H	 1.3782689983	-1.0030821415	 1.6522563397	 0.111853
117.7438	146.1261	243.2626	316.8468	356.4536	386.5318	511.0258	538.9093	550.227	580.7805	695.4004	731.7819	788.274	795.2943	836.989	871.2763	922.4048	936.4669	980.7989	1009.358	1043.7548	1098.9574	1101.4676	1159.5292	1194.5805	1208.0913	1255.8191	1286.8916	1350.339	1392.1433	1517.4463	1645.7614	2339.935	3062.5118	3122.1511	3147.069	3163.2856	3503.2647	3588.7748
NC12CC3C1OC23C#N	N[C@@]12C[C@H]3[C@@H]1O[C@@]23C#N	
InChI=1S/C6H6N2O/c7-2-6-3-1-5(6,8)4(3)9-6/h3-4H,1,8H2	InChI=1S/C6H6N2O/c7-2-6-3-1-5(6,8)4(3)9-6/h3-4H,1,8H2/t3-,4-,5-,6+/m0/s1
