21
gdb 76762	2.20071	1.67988	1.3285	2.5755	77.31	-0.2443	0.0558	0.3002	1085.617	0.182147	-424.197804	-424.188884	-424.18794	-424.231138	34.5	
C	-0.5924120395	 1.3087231838	-0.1090149357	-0.409297
C	-0.0249029316	-0.1022040026	-0.0790306384	-0.086497
C	 1.2352960027	-0.4090579219	-0.9786886439	 0.124716
O	 1.8731014389	 0.6672799389	-1.607589933	-0.433828
C	 1.9786046716	-0.9373623792	 0.2777093679	 0.014961
O	 2.7482635924	 0.1355732433	 0.8708313106	-0.307167
C	 1.6866363223	 0.4256203357	 1.8211526777	-0.129225
C	 0.7474720016	-0.6179009912	 1.1826596254	 0.294466
C	 0.0483612894	-1.5975811913	 2.0981818572	-0.503268
H	 0.1935059461	 2.0655117684	-0.0390917418	 0.119224
H	-1.1199953421	 1.488120061	-1.0509378321	 0.124182
H	-1.3022963621	 1.4709168816	 0.7097091519	 0.108586
H	-0.8207173642	-0.8180475338	-0.3140939054	 0.068416
H	 1.0365923496	-1.1743634479	-1.7351065714	 0.079894
H	 2.4632367011	 1.0403917782	-0.9343855976	 0.289242
H	 2.5336699479	-1.8783528868	 0.2399711548	 0.071559
H	 2.0039472929	 0.1712375485	 2.8404048961	 0.103846
H	 1.3817619227	 1.4769412818	 1.794550328	 0.108012
H	-0.7636784006	-1.1069879123	 2.6486957181	 0.122853
H	-0.3942263092	-2.4239584277	 1.5317707175	 0.120102
H	 0.73784952	-2.0248147066	 2.8346774043	 0.119224
64.3587	175.0837	204.127	215.8492	241.675	270.5748	291.9782	327.522	446.4485	534.2508	549.8894	583.4777	618.1479	714.6928	779.1447	827.0202	856.7191	902.8998	922.631	981.9088	988.032	1011.9905	1043.229	1057.7192	1116.6854	1142.53	1159.9178	1165.0115	1200.1565	1203.2555	1249.8646	1258.2527	1279.8758	1313.4763	1328.5816	1348.0795	1395.7553	1409.9076	1415.5246	1448.6385	1488.0947	1492.4538	1493.2933	1496.9285	1527.4331	3016.8265	3022.2932	3032.3481	3037.0341	3059.2961	3073.7283	3077.8337	3084.4341	3095.1458	3099.5383	3115.0706	3696.4565
CC1C(O)C2OCC12C	C[C@H]1[C@@H](O)[C@H]2OC[C@@]12C	
InChI=1S/C7H12O2/c1-4-5(8)6-7(4,2)3-9-6/h4-6,8H,3H2,1-2H3	InChI=1S/C7H12O2/c1-4-5(8)6-7(4,2)3-9-6/h4-6,8H,3H2,1-2H3/t4-,5+,6+,7-/m0/s1
