19
gdb 91023	2.70428	1.73993	1.26821	2.6955	74.84	-0.236	0.0702	0.3061	1027.87	0.158794	-422.975267	-422.967174	-422.96623	-423.007521	31.988	
C	-0.1782881715	 1.52446968	-0.1587452163	-0.403799
C	 0.0718290805	 0.0434146245	 0.0416471108	 0.148054
O	 1.123163627	-0.4831750906	-0.8130656372	-0.315136
C	 1.7801772053	-1.1187324447	 0.2931779631	 0.134616
C	 2.8985846553	-0.2737887867	 0.8766094719	-0.138305
C	 3.0154645939	-0.5819913142	 2.3525884586	-0.354081
C	 1.9127007137	 0.3274975684	 1.8782323106	 0.405846
O	 1.8314296186	 1.6505986251	 2.2791652309	-0.468488
C	 0.7609494498	-0.503187481	 1.3167541346	-0.206599
H	 0.7121100583	 2.1163953427	 0.0569716632	 0.143769
H	-0.4845604754	 1.7064350467	-1.1941291552	 0.119203
H	-0.9866473236	 1.8642691873	 0.4982764996	 0.109863
H	-0.8559535625	-0.515829649	-0.150175247	 0.071827
H	 1.9427953644	-2.1890787804	 0.1354848894	 0.07603
H	 3.6876825519	 0.2048649146	 0.3107065916	 0.103106
H	 2.811058603	-1.5796275766	 2.7363964206	 0.10456
H	 3.8268826732	-0.0619355405	 2.8516702991	 0.11717
H	 1.6344554659	 1.6727185204	 3.2220474553	 0.286442
H	 0.1379879123	-1.0693054461	 2.0122404765	 0.065922
102.4019	176.3742	219.3692	240.5664	290.5032	350.8313	374.4794	442.746	455.0408	564.3736	604.2318	687.5413	818.675	823.8805	845.8544	875.2055	900.9178	933.0603	974.821	991.6986	1012.8693	1038.0749	1067.0463	1078.8858	1086.0217	1103.0727	1148.7582	1170.5776	1194.6942	1236.3942	1262.3248	1281.4684	1307.7712	1316.6891	1346.2071	1382.0319	1400.7873	1413.5706	1481.8966	1489.381	1494.4628	2983.9189	3038.8348	3062.7901	3085.919	3100.943	3101.3609	3146.8149	3196.7252	3204.7046	3794.7766
CC1OC2C3CC3(O)C12	C[C@H]1O[C@H]2[C@@H]3C[C@]3(O)[C@@H]12	
InChI=1S/C7H10O2/c1-3-5-6(9-3)4-2-7(4,5)8/h3-6,8H,2H2,1H3	InChI=1S/C7H10O2/c1-3-5-6(9-3)4-2-7(4,5)8/h3-6,8H,2H2,1H3/t3-,4+,5+,6+,7-/m1/s1
