17
gdb 22295	2.65087	1.28594	0.91519	3.453	72.98	-0.2415	0.0003	0.2417	1229.6722	0.137214	-455.153273	-455.14491	-455.143965	-455.186934	31.244	
O	 0.0048953008	 1.3547241953	-0.0238719874	-0.392919
N	 0.0936793267	-0.0450826738	-0.0618702109	-0.197587
C	-1.0481803878	-0.6026094106	 0.065730056	 0.370794
C	-1.0954771948	-2.1025310678	 0.0365469124	-0.280306
C	-1.8271947282	-2.6126047368	 1.2823863309	-0.163076
N	-3.116029984	-1.9484096122	 1.4152925632	-0.312232
C	-3.4215635461	-0.6665910551	 1.0492334014	 0.391286
O	-4.4975286347	-0.1629353962	 1.3077309111	-0.372883
C	-2.3556628249	 0.1113874707	 0.2742789346	-0.409556
H	 0.9287517203	 1.6180358226	-0.0907315517	 0.309009
H	-1.6460489788	-2.434611834	-0.8538009415	 0.121166
H	-0.0834560836	-2.508694124	-0.0128402001	 0.12696
H	-1.9997141922	-3.6904453977	 1.2023783361	 0.117605
H	-1.2004111383	-2.4467523857	 2.1707916483	 0.119351
H	-3.8330888515	-2.390739968	 1.9718769701	 0.249058
H	-2.1956197283	 1.0627843928	 0.7863620744	 0.166225
H	-2.8045646144	 0.3729013303	-0.6928266469	 0.157105
48.557	95.0665	188.049	224.2328	339.9266	363.721	414.9254	454.2056	483.2474	488.1674	550.1286	600.2403	644.3778	689.2271	787.5546	867.6988	922.9132	933.7569	982.0292	996.0376	1073.3429	1112.1607	1185.6859	1219.6193	1249.3231	1265.2983	1295.775	1340.8411	1352.9238	1396.8858	1414.5045	1438.2906	1470.558	1482.9593	1527.2658	1736.4998	1793.9716	2996.0143	3024.8979	3041.3435	3071.8536	3114.0017	3120.0093	3610.5669	3821.3564
ON=C1CCNC(=O)C1	ON=C1CCNC(=O)C1	
InChI=1S/C5H8N2O2/c8-5-3-4(7-9)1-2-6-5/h9H,1-3H2,(H,6,8)	InChI=1S/C5H8N2O2/c8-5-3-4(7-9)1-2-6-5/h9H,1-3H2,(H,6,8)
