23
gdb 109070	3.28503	1.18709	1.14488	0.2741	90.61	-0.2215	0.0295	0.251	1240.786	0.208928	-351.179631	-351.17144	-351.170496	-351.212353	33.044	
C	 0.0830048806	 1.5063599286	 0.2732005495	-0.37152
C	-0.0541915422	 0.0286397398	-0.1345648425	-0.312046
C	-1.4689146021	-0.4609999216	-0.128409345	 0.371255
C	-2.200440052	-0.9381831766	-1.1444176897	-0.209665
C	-3.5224974533	-1.438529037	-0.5850781965	-0.045651
C	-3.1929541665	-2.7322774534	 0.2347241289	-0.196464
C	-2.3474950536	-2.1767033876	 1.4221258738	-0.205562
C	-2.3125867398	-0.6372280903	 1.13521624	-0.102738
C	-3.7318138276	-0.4235397473	 0.5630004707	-0.209294
H	 1.13273809	 1.8161587665	 0.2707377122	 0.110584
H	-0.4651187974	 2.1529729521	-0.4190486137	 0.119527
H	-0.3143512436	 1.681824374	 1.2779831403	 0.11886
H	 0.3765338972	-0.1170668406	-1.1320780006	 0.099644
H	 0.5467815959	-0.5830206563	 0.5542593537	 0.101115
H	-1.8735112903	-1.0722352072	-2.1694853572	 0.081605
H	-4.3361471594	-1.5573720985	-1.3017491999	 0.05304
H	-4.1120246511	-3.2089676642	 0.5904036637	 0.091493
H	-2.6510651695	-3.4663441395	-0.3660537268	 0.094004
H	-2.8328341069	-2.3752889011	 2.3827050131	 0.092027
H	-1.3431612751	-2.6056137061	 1.4672702512	 0.094529
H	-2.0227303935	-0.0311903806	 1.9950851954	 0.05207
H	-3.8970004137	 0.5952264776	 0.2037156185	 0.09105
H	-4.530808726	-0.7055422006	 1.2580377009	 0.082135
79.4657	125.7208	195.0903	245.4278	261.4917	373.1727	428.7977	472.5886	572.9443	604.5889	714.2906	785.2733	790.7571	820.6806	842.6549	848.9146	860.4852	887.8151	927.9212	946.7471	951.9612	966.2934	974.6196	1038.8744	1047.628	1064.9128	1089.4551	1131.6376	1141.4627	1160.3327	1189.8378	1224.1132	1239.539	1249.9245	1281.6147	1294.1004	1306.2812	1308.6876	1332.0881	1355.1052	1362.9858	1409.13	1476.3754	1487.9491	1490.1981	1498.0939	1506.3036	1513.2802	1688.2257	3000.232	3036.1978	3040.5057	3044.6103	3054.5349	3056.7715	3087.9212	3097.8042	3102.2457	3105.7971	3106.885	3108.5967	3110.0172	3190.8501
CCC1=CC2CCC1C2	CCC1=C[C@H]2CC[C@@H]1C2	
InChI=1S/C9H14/c1-2-8-5-7-3-4-9(8)6-7/h5,7,9H,2-4,6H2,1H3	InChI=1S/C9H14/c1-2-8-5-7-3-4-9(8)6-7/h5,7,9H,2-4,6H2,1H3/t7-,9-/m1/s1
