18
gdb 74955	3.15332	1.60731	1.42582	1.3153	71.54	-0.2481	0.0213	0.2694	981.251	0.15027	-439.119682	-439.11246	-439.111516	-439.15123	28.539	
C	 0.0491114574	 1.5023404253	-0.0278059637	-0.459148
C	-0.0488186505	 0.0084307037	 0.0045558158	 0.39737
N	-1.1630009715	-0.6051217555	-0.0352553385	-0.310488
C	-1.0955943382	-2.0728895782	-0.0254407322	-0.019154
C	-0.7109692714	-2.5736773418	 1.372475314	-0.075852
O	 0.7297522243	-2.4266296277	 1.4203440069	-0.259889
C	 1.1676207975	-2.0110589873	 0.1601148462	 0.216643
C	 0.1309349791	-2.5409080516	-0.8246530194	-0.277095
O	 1.1889069025	-0.5677874289	 0.0796015058	-0.273356
H	 0.6484640172	 1.8227857555	-0.8861361966	 0.138503
H	-0.9488322957	 1.9339699965	-0.0925125574	 0.144933
H	 0.5541571109	 1.867133286	 0.8722237393	 0.142222
H	-2.0472951074	-2.4793863906	-0.3710587077	 0.083169
H	-1.1581811078	-1.9743102275	 2.1692471794	 0.121625
H	-0.9690619168	-3.6300122812	 1.5214730564	 0.102063
H	 2.2045831158	-2.3159213871	 0.0235258253	 0.097566
H	 0.1913821771	-3.6299903747	-0.898809554	 0.11186
H	 0.2041975474	-2.0952436947	-1.8175597094	 0.11903
135.3298	150.3551	197.1653	330.606	398.489	416.2743	464.287	523.2391	613.9639	665.9545	782.1945	820.666	847.6547	865.9447	912.5673	921.7041	930.6751	962.8143	997.7796	1042.9905	1051.5774	1068.3662	1104.8088	1137.2119	1177.454	1220.9607	1241.5074	1260.2057	1305.4032	1321.0857	1352.3254	1381.9007	1392.736	1409.1792	1473.7814	1476.2667	1483.5928	1513.7886	1725.6713	3023.2707	3048.1251	3070.4249	3099.8686	3101.6899	3105.4839	3131.7154	3135.4783	3166.5322
CC1=NC2COC(C2)O1	CC1=N[C@@H]2CO[C@@H](C2)O1	
InChI=1S/C6H9NO2/c1-4-7-5-2-6(9-4)8-3-5/h5-6H,2-3H2,1H3	InChI=1S/C6H9NO2/c1-4-7-5-2-6(9-4)8-3-5/h5-6H,2-3H2,1H3/t5-,6+/m0/s1
