17
gdb 65467	4.50081	0.74565	0.71407	1.0264	72.16	-0.2612	-0.0502	0.211	1555.6236	0.131165	-458.9622	-458.95233	-458.951386	-458.998558	33.538	
C	 0.0966034599	 1.5464271851	-0.1760321485	-0.471909
C	-0.0577004815	 0.0734441993	 0.0952145498	 0.270937
O	 1.1156466616	-0.7647047922	 0.0442317843	-0.280235
C	 0.4636284246	-0.6238171676	 1.3013069723	-0.004344
C	 1.2209189727	 0.064148964	 2.4169315453	-0.319289
C	 2.3391278138	-0.8228407721	 2.9436587864	 0.161642
O	 2.4983194515	-1.0935350018	 4.1043086362	-0.22905
C	-1.2426328511	-0.5952104734	-0.5457092625	 0.126899
O	-2.1587299484	-0.0025481722	-1.0528629679	-0.247029
H	 0.9870162027	 1.9576597807	 0.3001502733	 0.129294
H	 0.1731957874	 1.7179349189	-1.2534025957	 0.147227
H	-0.7859636939	 2.0848426911	 0.1792506312	 0.148557
H	-0.0683838165	-1.5243265422	 1.6184096006	 0.109304
H	 1.6825091642	 0.9854834567	 2.045411673	 0.132172
H	 0.5513288438	 0.3132867267	 3.2451727429	 0.135179
H	 3.0224842977	-1.209576541	 2.1561174281	 0.100351
H	-1.1914897888	-1.70621008	-0.5149671087	 0.090294
41.7106	59.0649	91.2287	101.8497	158.7254	230.7056	264.4482	290.4079	382.0124	422.4233	481.3368	516.3885	581.6206	750.3217	792.0481	826.731	887.2246	951.5483	1002.8199	1033.8038	1064.8628	1100.5235	1113.3659	1146.4223	1222.8971	1268.745	1291.1897	1338.943	1403.2124	1421.2694	1422.0177	1445.9058	1453.4359	1479.6608	1497.4351	1829.2227	1838.0221	2895.5424	2898.6312	3050.3805	3059.5594	3078.2856	3114.3666	3124.0561	3150.2159
CC1(OC1CC=O)C=O	C[C@]1(O[C@H]1CC=O)C=O	
InChI=1S/C6H8O3/c1-6(4-8)5(9-6)2-3-7/h3-5H,2H2,1H3	InChI=1S/C6H8O3/c1-6(4-8)5(9-6)2-3-7/h3-5H,2H2,1H3/t5-,6-/m0/s1
