17
gdb 7520	5.03877	1.18583	1.10794	5.0124	69.	-0.2775	0.0291	0.3066	1103.9676	0.139813	-363.870074	-363.861176	-363.860232	-363.903684	31.576	
C	 0.0547634205	 1.4406462181	-0.3074119598	-0.42706
C	 0.0426618371	-0.009519139	 0.1005665248	 0.026182
O	 1.2956550394	-0.7097142881	 0.1230193253	-0.283277
C	 0.5936343335	-0.5507141027	 1.3587218438	 0.379849
C	 1.2595129495	 0.3054486232	 2.4114489217	-0.471619
C	-0.0297378541	-1.8503206894	 1.8793494638	-0.399108
C	 0.9334444472	-2.7050051813	 2.5741814217	 0.273089
N	 1.6985344763	-3.3674366123	 3.1316007475	-0.309732
H	 0.8652418206	 1.9955730162	 0.167328292	 0.132595
H	 0.182141015	 1.519320053	-1.3919654609	 0.138105
H	-0.8971059372	 1.916262203	-0.0476897081	 0.126255
H	-0.7628427407	-0.5881301293	-0.3595743793	 0.086466
H	 1.715273713	 1.192445944	 1.9715201914	 0.135543
H	 0.5340564265	 0.6221187594	 3.168788387	 0.124088
H	 2.0457566525	-0.2639809057	 2.9166443317	 0.156643
H	-0.849228886	-1.6201599649	 2.5709010503	 0.153029
H	-0.453616403	-2.4106962743	 1.0408437473	 0.158953
57.4511	125.3991	145.3935	158.9552	232.4005	263.478	343.4513	388.0788	392.9036	427.2868	479.2875	582.5928	728.765	798.1797	878.5948	911.9138	936.5543	973.7139	1003.7917	1065.9003	1104.9466	1138.7047	1174.8358	1214.036	1261.707	1315.6059	1372.295	1412.1756	1421.7822	1448.6958	1462.928	1476.0177	1486.1513	1499.2719	1522.1562	2363.1817	3041.5559	3043.4618	3046.119	3070.5	3097.1616	3103.3196	3107.2711	3139.9412	3152.6825
CC1OC1(C)CC#N	C[C@H]1O[C@]1(C)CC#N	
InChI=1S/C6H9NO/c1-5-6(2,8-5)3-4-7/h5H,3H2,1-2H3	InChI=1S/C6H9NO/c1-5-6(2,8-5)3-4-7/h5H,3H2,1-2H3/t5-,6-/m1/s1
