17
gdb 13950	4.95434	1.33492	1.23369	1.6736	73.65	-0.2498	0.0522	0.302	1017.7473	0.141961	-326.651537	-326.64388	-326.642936	-326.683714	29.137	
C	-0.057484631	-1.1872310804	-0.3324334629	-0.458999
C	-0.063144095	-0.0041171274	-0.1212873643	 0.306516
C	-0.034311774	 1.4318479282	 0.1476385776	-0.44423
C	 1.3717567797	 1.9823384597	 0.1719243982	 0.361083
C	 2.4544246419	 1.6473944526	 1.2131839395	-0.287422
C	 2.9961659876	 3.110252497	 1.0742588537	-0.235514
C	 1.8981006916	 3.3857694164	 0.0373014336	-0.097295
N	 1.9709328815	 2.4391710862	-1.0739165915	-0.346012
H	-0.0657908086	-2.2309080247	-0.5270391498	 0.195068
H	-0.6046937356	 1.9674249053	-0.6195732866	 0.142751
H	-0.5240596006	 1.6311575145	 1.110093675	 0.127405
H	 2.0493371467	 1.4507621874	 2.2090261102	 0.109132
H	 3.1281490365	 0.8278549614	 0.9440966101	 0.102806
H	 2.8797606434	 3.6850516588	 1.9960599771	 0.108482
H	 4.02341045	 3.2322146884	 0.7143871396	 0.099451
H	 1.3780921596	 4.323022272	-0.1286696174	 0.093515
H	 2.9108541064	 2.0761297345	-1.225406132	 0.223262
62.0652	107.994	226.3661	300.5606	343.6064	363.6393	433.7681	477.2591	616.6863	639.1607	713.515	755.5751	781.8157	839.4785	905.0211	923.4068	944.1593	954.1031	960.0108	1035.9873	1060.4427	1089.5705	1123.7956	1183.0277	1192.1252	1224.3526	1234.8016	1255.1602	1278.6392	1316.3351	1327.0739	1437.5789	1455.9123	1479.2362	1501.0448	2238.3744	3020.0996	3044.0793	3053.7105	3068.3551	3096.8969	3113.8534	3172.2578	3455.6556	3506.9044
C#CCC12CCC1N2	C#CC[C@]12CC[C@H]1N2	
InChI=1S/C7H9N/c1-2-4-7-5-3-6(7)8-7/h1,6,8H,3-5H2	InChI=1S/C7H9N/c1-2-4-7-5-3-6(7)8-7/h1,6,8H,3-5H2/t6-,7+/m1/s1
