18
gdb 52779	3.08205	0.93556	0.81569	3.3754	83.95	-0.2564	0.0225	0.2789	1476.102	0.145067	-401.933751	-401.923969	-401.923024	-401.971162	34.675	
C	 0.270653821	 1.6143638054	-0.2204950076	-0.500187
C	 0.1673691029	 0.1679097036	-0.1015826798	 0.050882
C	 0.0731688176	-1.0285542653	-0.003541749	 0.089236
C	-0.0170670319	-2.4732157235	 0.1116153493	 0.206116
C	 0.7280995608	-3.2022453924	-0.9980730121	-0.433899
C	 0.1588919655	-3.0497846388	 1.549226539	-0.399899
C	-1.2915664939	-3.4470593817	 1.4097836501	 0.433687
N	-2.1151734764	-4.0429015558	 2.1438727216	-0.544191
O	-1.4378212715	-2.9212248551	 0.1452983038	-0.273071
H	 1.2736444539	 1.9126555698	-0.5445319847	 0.153533
H	-0.4439020962	 1.9998270422	-0.9558056641	 0.157016
H	 0.0667214774	 2.1088289945	 0.7352397551	 0.154586
H	 1.7915761296	-2.9482245623	-0.965772951	 0.132623
H	 0.6162618777	-4.2837198476	-0.8808319667	 0.127078
H	 0.3324232011	-2.9098304729	-1.9738866608	 0.140365
H	 0.8622261201	-3.8798534582	 1.6338298325	 0.135985
H	 0.358261776	-2.3115164567	 2.3257057161	 0.14341
H	-3.0262688439	-4.1212021953	 1.6884454784	 0.226729
5.5705	61.9492	110.5075	132.3319	232.9582	290.6914	301.6286	326.9589	365.8801	439.1989	479.506	497.2511	564.4293	589.1643	764.508	829.2069	864.0246	873.041	933.5507	966.1168	1023.4681	1050.8428	1053.4719	1061.0675	1084.4224	1116.3038	1186.5048	1237.2776	1296.441	1308.9658	1406.3152	1413.4296	1460.3328	1475.0381	1477.0519	1481.1994	1489.9034	1825.9789	2369.5211	3030.0156	3044.6849	3090.9233	3092.7187	3093.7145	3122.4662	3129.3604	3151.8706	3475.2262
CC#CC1(C)CC(=N)O1	CC#C[C@@]1(C)C[C]([NH])O1	
InChI=1S/C7H9NO/c1-3-4-7(2)5-6(8)9-7/h8H,5H2,1-2H3	InChI=1S/C7H9NO/c1-3-4-7(2)5-6(8)9-7/h8H,5H2,1-2H3/t7-/m0/s1
