18
gdb 36077	3.57871	1.20791	1.11536	3.7773	79.32	-0.2581	0.0356	0.2937	1136.6213	0.149294	-364.778968	-364.771412	-364.770468	-364.811581	29.198	
N	-0.1907569202	-1.1328908953	 0.3611742978	-0.310644
C	-0.128517721	 0.0005207143	 0.1455034462	 0.264121
C	-0.0235712343	 1.437313251	-0.1341304003	-0.499386
C	 1.3927935947	 1.9284152242	-0.1085781151	 0.380596
C	 2.359853403	 2.2089830116	 1.0156181364	-0.106001
C	 3.4482042104	 1.3567376389	 0.366850821	-0.227097
C	 2.6880176242	 1.5900260583	-0.9680658683	-0.109848
C	 2.8454195492	 3.1129793556	-1.2331799472	-0.225057
C	 1.9804468505	 3.3142703142	 0.0094438797	-0.137501
H	-0.4933284287	 1.6309529527	-1.1071246569	 0.154214
H	-0.618970209	 1.9785881683	 0.6113985187	 0.15563
H	 2.1287721378	 2.3206784738	 2.0677402489	 0.090969
H	 4.4887946903	 1.6969018171	 0.4161331602	 0.090953
H	 3.3818048896	 0.3162345518	 0.6941244984	 0.116571
H	 2.749371994	 0.869208092	-1.7804980931	 0.081402
H	 3.8640296134	 3.5172104353	-1.2405354803	 0.0935
H	 2.3196351934	 3.4272988614	-2.1390572733	 0.099871
H	 1.4802028129	 4.2148716748	 0.3440183373	 0.087705
60.2472	92.3488	229.1563	276.2195	390.8222	409.1772	457.5924	494.3238	656.3911	709.6142	741.7298	803.3577	857.6865	894.2677	910.0796	928.8302	950.0353	972.077	984.1639	1000.2694	1016.1051	1028.8514	1078.7996	1109.516	1126.5523	1130.8669	1183.3506	1216.5713	1219.6305	1251.7807	1255.3632	1300.2511	1311.205	1331.759	1446.6172	1453.8719	1491.9209	1509.3297	2361.777	3025.1256	3033.497	3040.0542	3062.7718	3096.1555	3106.8516	3141.1753	3186.9919	3197.3344
N#CCC12C3CC1CC23	N#CC[C@@]12[C@H]3C[C@@H]1C[C@@H]23	
InChI=1S/C8H9N/c9-2-1-8-5-3-6(8)7(8)4-5/h5-7H,1,3-4H2	InChI=1S/C8H9N/c9-2-1-8-5-3-6(8)7(8)4-5/h5-7H,1,3-4H2/t5-,6+,7-,8+
