20
gdb 73131	2.46646	1.77756	1.57751	2.6715	77.25	-0.2264	0.0721	0.2985	979.1488	0.172869	-403.119961	-403.112406	-403.111462	-403.151483	30.829	
C	 0.3172495819	 1.5609848599	-0.0600145223	-0.469906
C	 0.0154992301	 0.0802814257	 0.0559314006	 0.4654
O	-1.3126641352	-0.1630709193	 0.5821837702	-0.326502
C	-0.8028421232	-1.0892529026	 1.5671082131	-0.077783
C	 0.6613525883	-0.7641543536	 1.1966030742	-0.123902
C	 1.5770326256	-1.8350399972	 0.5726437458	-0.241531
C	 1.2600951213	-1.8149826777	-0.917119625	-0.030672
N	-0.1592757271	-2.0872247672	-1.1966392159	-0.33007
C	 0.3266331018	-0.6934620621	-1.2237247786	-0.10061
H	 1.3437593584	 1.7238270692	-0.4071980124	 0.11461
H	-0.3641979916	 2.0337029633	-0.7758562967	 0.125783
H	 0.1917962896	 2.0565925337	 0.9062809769	 0.120785
H	-1.1127582065	-0.8062709755	 2.5802875815	 0.089342
H	-1.1129953824	-2.1176543694	 1.3563743721	 0.111481
H	 1.1720880642	-0.1778285431	 1.9627105477	 0.074917
H	 2.629894356	-1.5739120921	 0.727461828	 0.098075
H	 1.4189983006	-2.8279246879	 1.0077214436	 0.108271
H	 2.0102038409	-2.1437441289	-1.6305571689	 0.083325
H	-0.2673245529	-2.4210435211	-2.1507650321	 0.231445
H	 0.3538000403	-0.1682586241	-2.1739545519	 0.077542
150.6453	214.0724	220.9958	261.8904	326.4774	372.8659	389.3626	522.3076	577.31	661.5706	688.6481	783.0942	822.4172	856.6241	870.5023	889.7354	900.1979	925.3791	955.073	971.463	1011.5236	1052.4051	1084.9845	1103.4414	1115.4689	1127.8061	1151.2125	1166.4724	1173.0432	1216.4035	1232.6029	1248.6489	1278.2977	1322.2606	1335.2049	1356.6213	1390.4413	1402.7176	1424.4571	1478.5317	1482.0357	1492.1281	1515.1394	3021.217	3030.5264	3037.9857	3075.4757	3076.9087	3093.8004	3097.8223	3116.3243	3146.1907	3156.9835	3505.035
CC12OCC1CC1NC21	C[C@]12OC[C@H]1C[C@H]1N[C@@H]21	
InChI=1S/C7H11NO/c1-7-4(3-9-7)2-5-6(7)8-5/h4-6,8H,2-3H2,1H3	InChI=1S/C7H11NO/c1-7-4(3-9-7)2-5-6(7)8-5/h4-6,8H,2-3H2,1H3/t4-,5-,6-,7+/m1/s1
