18
gdb 54246	2.59457	1.36639	1.30411	1.4931	72.2	-0.2404	-0.0186	0.2218	1084.5587	0.146247	-439.124137	-439.115017	-439.114073	-439.158647	32.715	
C	 0.0118849869	 1.5234553476	-0.1770690521	-0.470516
C	 0.0780280042	 0.0196680984	-0.0397887999	 0.359754
O	 1.1229289049	-0.5898072201	-0.0350800993	-0.31098
C	-1.2619228804	-0.7437045736	 0.0731241178	 0.16936
C	-1.7685646684	-1.0183509303	-1.3536452037	-0.431189
C	-1.1052702332	-2.0438274898	 0.9103110748	-0.151537
O	-1.9833688207	-1.8403676495	 2.0458568227	-0.217285
C	-2.5521461549	-0.6342809954	 1.8490744755	 0.115923
N	-2.2540651596	 0.0542882685	 0.8255845267	-0.305437
H	 1.006863118	 1.9152582585	-0.3906502584	 0.13556
H	-0.6938970289	 1.8187073113	-0.9590534822	 0.144335
H	-0.3735334951	 1.9518227748	 0.7533581458	 0.15888
H	-1.0405776424	-1.617366873	-1.90931332	 0.134471
H	-2.7147677028	-1.5652662747	-1.3079657872	 0.128015
H	-1.9447092312	-0.0856011647	-1.8952738006	 0.132596
H	-1.4409359237	-2.9392541868	 0.3806819704	 0.117457
H	-0.0848899846	-2.1914984202	 1.2662423161	 0.145778
H	-3.252433078	-0.3363308311	 2.6220047037	 0.144814
53.8877	73.4735	111.9033	218.0395	226.6058	239.6613	310.5927	335.8168	413.2467	507.651	556.7143	601.1188	634.1453	779.0948	861.7179	872.6335	941.3037	963.1616	966.977	974.6435	999.7132	1023.774	1124.2645	1147.7203	1157.4142	1187.2478	1211.9876	1277.1387	1324.0774	1371.6774	1383.149	1402.1658	1452.375	1465.7295	1487.7969	1492.9129	1521.6671	1693.9033	1806.304	3040.6682	3051.9108	3067.9752	3114.5548	3116.9756	3125.9519	3132.6722	3157.9906	3212.9813
CC(=O)C1(C)COC=N1	CC(=O)[C@@]1(C)COC=N1	
InChI=1S/C6H9NO2/c1-5(8)6(2)3-9-4-7-6/h4H,3H2,1-2H3	InChI=1S/C6H9NO2/c1-5(8)6(2)3-9-4-7-6/h4H,3H2,1-2H3/t6-/m1/s1
