15
gdb 133789	3.04792	0.97618	0.8589	1.4459	56.51	-0.2865	-0.005	0.2816	1339.8949	0.10762	-585.458242	-585.449005	-585.44806	-585.493918	31.807	
C	 0.085598895	 1.5059041787	-0.1814849111	-0.391768
C	 0.0203697725	 0.0007287509	-0.018362993	-0.042615
O	 0.6669068539	-0.5880924438	-1.1665857236	-0.24176
C	 0.7091131196	-1.9184440619	-1.2065079982	 0.25795
N	 0.2306313448	-2.6846276434	-0.323353877	-0.529296
C	 1.4266922005	-2.3619230452	-2.4861237967	 0.255343
F	 1.481927399	-3.6973805857	-2.5496482246	-0.072404
F	 0.7869795174	-1.9211183575	-3.5724927524	-0.066366
F	 2.6767153497	-1.8929252116	-2.5223731529	-0.066404
H	 1.1225129776	 1.8489749598	-0.2331563819	 0.134443
H	-0.4291673181	 1.8231086022	-1.0924985181	 0.134431
H	-0.3959917236	 1.9891375924	 0.6735813017	 0.126431
H	 0.5341844018	-0.3430777287	 0.8849599011	 0.129099
H	-1.0087852969	-0.3690104276	 0.0294789281	 0.129186
H	 0.3846677568	-3.6589682388	-0.5740810212	 0.243731
30.3251	76.6149	108.3889	132.7884	238.408	285.5584	288.4609	344.2021	390.6101	442.3042	517.544	587.5214	719.8793	750.7879	807.3053	851.9331	884.3395	885.3464	1037.843	1118.3547	1139.8005	1181.6477	1208.9907	1222.4491	1232.1983	1290.7988	1377.7254	1411.5002	1452.0439	1484.9185	1495.7303	1518.5442	1751.723	3048.5601	3052.4429	3091.4311	3123.7492	3129.3955	3527.3404
CCOC(=N)C(F)(F)F	CCO[C]([NH])C(F)(F)F	
InChI=1S/C4H6F3NO/c1-2-9-3(8)4(5,6)7/h8H,2H2,1H3	InChI=1S/C4H6F3NO/c1-2-9-3(8)4(5,6)7/h8H,2H2,1H3
