18
gdb 84174	3.5215	1.18481	0.97911	3.5605	80.88	-0.2421	-0.0571	0.185	1218.6812	0.148208	-401.946949	-401.938851	-401.937907	-401.979677	30.753	
C	-0.146281461	 1.5630889701	 0.0735950933	-0.39534
C	 0.0320594227	 0.0384678192	 0.0019269053	-0.028923
C	 0.8595699236	-0.4330171719	-1.17652431	-0.167832
C	 1.8783808331	-1.2320249569	-0.8160355277	 0.282096
C	 2.8107171376	-1.882115219	-1.736341245	 0.067824
O	 3.6963984903	-2.6339873691	-1.3915116242	-0.275376
C	 1.9303311085	-1.3642191482	 0.6716856791	-0.172535
N	 2.1667618837	-0.0478912742	 1.3274468447	-0.331907
C	 0.7895149841	-0.5632373025	 1.192111647	-0.058494
H	 0.8237720986	 2.0456714958	 0.2131438202	 0.146116
H	-0.6052028426	 1.9513385067	-0.8410718419	 0.113944
H	-0.7924677575	 1.8353403495	 0.9139284809	 0.117022
H	-0.9641464569	-0.4246135367	-0.0640246642	 0.092062
H	 0.6434794461	-0.1305535588	-2.197014856	 0.111112
H	 2.6413377329	-1.6449549847	-2.8106061331	 0.06684
H	 2.3077854047	-2.2663445577	 1.1366100907	 0.108974
H	 2.4817198834	-0.2128944208	 2.2817317032	 0.233621
H	 0.2446714287	-0.8459263209	 2.0864052177	 0.090796
90.6169	160.1743	191.966	216.7135	238.7669	280.2804	410.2439	462.3415	547.688	584.3581	691.5765	729.8309	814.3609	852.0484	856.6963	879.4268	890.9315	918.8575	944.1439	1027.7774	1041.5195	1063.7364	1101.8579	1118.2343	1135.2248	1161.6021	1208.5116	1249.0946	1278.2246	1308.6128	1338.8793	1381.8697	1403.5739	1418.6288	1426.0745	1493.6014	1506.161	1664.8829	1783.0266	2879.2893	2993.2814	3040.3229	3105.1589	3132.2771	3167.2912	3181.8837	3198.5526	3485.8233
CC1C=C(C=O)C2NC12	C[C@H]1C=C(C=O)[C@H]2N[C@@H]12	
InChI=1S/C7H9NO/c1-4-2-5(3-9)7-6(4)8-7/h2-4,6-8H,1H3	InChI=1S/C7H9NO/c1-4-2-5(3-9)7-6(4)8-7/h2-4,6-8H,1H3/t4-,6-,7+/m0/s1
