16
gdb 17430	2.78008	2.7423	1.96455	2.0806	63.	-0.2369	0.0794	0.3162	750.8297	0.130292	-383.68057	-383.673832	-383.672888	-383.711015	26.995	
C	-0.0305190019	 1.5448585722	 0.0572893558	-0.516586
C	 0.1357767926	 0.0599032018	 0.0714849363	 0.360479
O	-1.1322683748	-0.6892287598	 0.0490677904	-0.341316
C	-0.4221239852	-1.7431732256	 0.7125071974	 0.088072
C	 0.9443903047	-1.8847829069	 0.0405296182	-0.182208
C	 0.7024418618	-0.8949758878	 1.1854342049	-0.199552
C	 0.965704535	-0.7419961776	-0.9782315845	 0.152758
O	 0.399357518	-0.9078155033	-2.2431295123	-0.447677
H	 0.9441558894	 2.0370909006	 0.129076	 0.126621
H	-0.5025514034	 1.8548191903	-0.8809555498	 0.140479
H	-0.6567891802	 1.8798458572	 0.8886411898	 0.132898
H	-0.9821245416	-2.5447522677	 1.1743679879	 0.11285
H	 1.5199042735	-2.8011064308	 0.0533606537	 0.094236
H	 1.1874686607	-0.7426159103	 2.1383486644	 0.103798
H	 1.9703072061	-0.3293371596	-1.100827765	 0.090955
H	-0.5356418847	-1.0931000927	-2.0767778374	 0.284193
187.9927	200.8875	239.5463	306.6446	359.0548	519.3498	584.8393	610.1086	679.8037	764.5236	783.179	789.3288	814.1726	837.5751	875.576	937.5009	956.9229	986.2751	1024.4562	1028.3336	1057.6144	1108.7303	1138.7986	1143.8415	1177.9942	1197.7489	1275.0154	1309.6023	1341.469	1367.3356	1417.1493	1445.0795	1478.235	1488.2405	3039.8865	3092.1614	3111.5527	3119.4638	3204.1958	3212.3399	3229.3066	3749.8053
CC12OC3C(C13)C2O	C[C@]12O[C@H]3[C@H]([C@@H]13)[C@H]2O	
InChI=1S/C6H8O2/c1-6-3-2(5(6)7)4(3)8-6/h2-5,7H,1H3	InChI=1S/C6H8O2/c1-6-3-2(5(6)7)4(3)8-6/h2-5,7H,1H3/t2-,3+,4-,5+,6-/m0/s1
