14
gdb 16601	3.32966	2.34069	1.54858	5.7706	64.37	-0.2414	-0.0543	0.1871	794.8327	0.109093	-378.73099	-378.724558	-378.723614	-378.761516	25.013	
N	-0.0659888353	 1.2760154754	 0.1819981992	-0.503853
C	 0.0142609352	 0.0189084236	 0.01069805	 0.238062
N	 1.1172009948	-0.8096687684	-0.1546505605	-0.3293
C	 0.7805836106	-2.2118929158	-0.0674297368	-0.014588
C	 0.145144932	-2.6783371571	 1.2069506013	-0.300446
C	-0.7221423679	-2.2966737372	 0.0009169927	-0.154115
C	-1.2228750803	-0.8867663457	-0.0512095663	 0.39437
O	-2.3590777323	-0.5155942923	-0.1649349231	-0.295394
H	 0.8578225207	 1.7144136066	 0.2117669835	 0.209719
H	 2.0065916101	-0.5044496283	 0.2144671346	 0.244692
H	 1.3611958069	-2.8852523089	-0.6872930397	 0.116269
H	 0.1684315304	-3.736537471	 1.4428798848	 0.134129
H	 0.1644673471	-2.0148550324	 2.065120186	 0.136232
H	-1.296322112	-3.0704176585	-0.4900384258	 0.124223
112.9849	202.6229	330.0619	397.1267	453.5968	504.7605	513.4475	632.9147	691.2653	726.7212	795.206	825.7881	843.3234	874.7467	956.8461	987.3026	996.9282	1056.6587	1070.733	1101.6934	1150.7915	1163.0099	1202.2378	1316.8939	1321.3165	1389.557	1408.9894	1479.3268	1738.6694	1855.826	3134.0633	3176.8853	3212.7661	3227.9505	3439.8673	3593.5119
N=C1NC2CC2C1=O	[NH][C]1N[C@H]2C[C@H]2C1=O	
InChI=1S/C5H6N2O/c6-5-4(8)2-1-3(2)7-5/h2-3H,1H2,(H2,6,7)	InChI=1S/C5H6N2O/c6-5-4(8)2-1-3(2)7-5/h2-3H,1H2,(H2,6,7)/t2-,3+/m1/s1
