20
gdb 126611	4.2529	0.84548	0.74628	1.5398	83.91	-0.194	0.0361	0.2301	1576.754	0.172529	-399.358185	-399.348859	-399.347914	-399.39309	34.32	
C	-0.0144750846	 1.5167129891	 0.0215380926	-0.380987
C	-0.1286779129	-0.0037682546	-0.1062625745	-0.166595
C	 0.8179724908	-0.5662216467	-1.1729936086	-0.140408
N	 0.7589755919	-2.0096421877	-1.2788308132	 0.055996
C	 0.1894650419	-2.7596677695	-2.2475747742	-0.015935
C	 0.3258061917	-4.0827081293	-1.8807368397	-0.313273
C	 1.0092550282	-4.0284629665	-0.6420963097	 0.381611
N	 1.3436140124	-5.0969222773	 0.1922932309	-0.588993
N	 1.274914165	-2.7751002344	-0.2802029064	-0.351895
H	 1.0021552466	 1.8171351835	 0.2984323194	 0.119038
H	-0.2628120526	 2.0189358891	-0.9205297947	 0.11301
H	-0.6935044876	 1.8987834259	 0.7891592586	 0.119216
H	 0.1064919246	-0.4878108031	 0.8468462977	 0.128593
H	-1.1570218003	-0.2881405222	-0.3593178026	 0.101952
H	 0.5754221297	-0.1564665925	-2.1590437295	 0.110639
H	 1.8512605955	-0.28410482	-0.941757928	 0.12157
H	-0.2641427274	-2.3046158912	-3.1147655009	 0.122515
H	-0.01582234	-4.9522514152	-2.4180855383	 0.093765
H	 1.6717695049	-5.9085856537	-0.3134272477	 0.242915
H	 2.0213824522	-4.8202672437	 0.8912688789	 0.247266
50.0546	81.7698	85.2499	234.2582	249.5584	266.275	296.518	315.3161	383.3896	450.4793	620.2666	668.2513	687.185	737.7039	752.8884	769.222	784.2758	814.9112	881.4962	900.5886	1009.4551	1019.0991	1044.4654	1070.3132	1108.5006	1126.4951	1154.4419	1242.0597	1266.0722	1310.5951	1329.4113	1353.9584	1403.1018	1414.593	1423.8326	1478.3084	1482.506	1494.0436	1501.3371	1510.5923	1533.3962	1591.5758	1647.7982	3029.7882	3035.0296	3045.2334	3074.3736	3088.1416	3107.3078	3108.318	3247.5521	3270.1098	3542.1871	3637.6218
CCCN1C=CC(N)=N1	CCCn1ccc(N)n1	
InChI=1S/C6H11N3/c1-2-4-9-5-3-6(7)8-9/h3,5H,2,4H2,1H3,(H2,7,8)	InChI=1S/C6H11N3/c1-2-4-9-5-3-6(7)8-9/h3,5H,2,4H2,1H3,(H2,7,8)
