14
gdb 5411	5.1463	1.58507	1.22104	1.8841	65.9	-0.2425	-0.0454	0.1971	927.8068	0.109097	-378.759993	-378.753047	-378.752103	-378.791808	24.897	
O	 0.0047736597	 1.4277123089	 0.0075311289	-0.415746
C	-0.0006607944	 0.0134905492	 0.0020983356	-0.152111
C	-1.4246632058	-0.4840805679	 0.0127764671	 0.286298
C	-2.5242597483	 0.378208897	 0.0238039539	-0.043913
N	-3.7797462576	-0.0756638119	 0.0329977819	-0.238919
C	-3.9292275226	-1.4007283334	 0.0310864712	-0.011761
C	-2.8349382894	-2.2622848441	 0.0201139614	-0.022045
N	-1.581530238	-1.8111979919	 0.0109441697	-0.293855
H	 0.9178592056	 1.7264468956	 0.0010521257	 0.296543
H	 0.5019246896	-0.3972402396	-0.8876624852	 0.115493
H	 0.5176000091	-0.4042320778	 0.8794882499	 0.115517
H	-2.3777695792	 1.4519608293	 0.0251888052	 0.136365
H	-4.9451796496	-1.7870980277	 0.0384764042	 0.114235
H	-2.9725359491	-3.340816876	 0.0187179906	 0.113901
49.2682	176.1815	222.2178	222.9504	418.6981	445.8271	474.5317	593.344	647.5627	779.0432	833.9754	857.8329	972.6083	992.7561	1034.38	1044.4395	1075.1882	1103.4279	1185.7847	1211.425	1237.9421	1241.7534	1276.1341	1330.3785	1435.9253	1452.3771	1501.0929	1511.702	1584.6954	1618.3677	2976.1882	3001.6696	3152.4064	3171.8297	3206.308	3847.9009
OCC1=CN=CC=N1	OCc1cnccn1	
InChI=1S/C5H6N2O/c8-4-5-3-6-1-2-7-5/h1-3,8H,4H2	InChI=1S/C5H6N2O/c8-4-5-3-6-1-2-7-5/h1-3,8H,4H2
