25
gdb 57185	2.1422	1.21457	1.11972	2.4045	88.65	-0.2366	-0.0106	0.226	1331.164	0.224748	-389.52701	-389.515368	-389.514424	-389.563396	43.232	
C	-0.2205066622	 1.7357911479	-0.0466974865	-0.414024
C	-0.0486829179	 0.2077370528	 0.0447036443	-0.078256
C	-1.4093737108	-0.3917551813	 0.4292687334	 0.389314
C	-1.487902963	-1.1168006393	 1.7601747069	-0.481496
O	-2.3851197426	-0.2659387849	-0.2782243345	-0.320623
C	 0.5593575098	-0.4614915584	-1.2390306289	 0.278356
C	 2.0286240589	-0.0193754984	-1.3856098797	-0.417352
C	 0.5363311071	-1.9946253337	-1.0692455572	-0.422432
C	-0.2131900147	-0.084080251	-2.5164549498	-0.413299
H	 0.7092076109	 2.2293345333	-0.3397677215	 0.117094
H	-1.0000683348	 1.99442265	-0.7663145543	 0.143931
H	-0.5177347921	 2.1471503943	 0.9238935449	 0.112803
H	 0.6498611671	-0.0099540924	 0.8629035365	 0.065289
H	-1.1859923778	-0.4439406974	 2.5718032589	 0.138467
H	-2.5034092667	-1.4744287517	 1.9355771631	 0.13808
H	-0.7873036459	-1.9592558866	 1.7755206774	 0.141133
H	 2.6173060956	-0.2837838555	-0.4998153158	 0.105804
H	 2.4864800178	-0.5142506228	-2.2488773128	 0.111297
H	 2.1212998451	 1.0590518443	-1.5433319616	 0.113867
H	-0.4859349608	-2.3829771464	-1.0216812676	 0.123666
H	 1.0309900744	-2.4802942738	-1.9168805989	 0.111496
H	 1.0639944387	-2.3047811451	-0.1595209946	 0.103903
H	-0.1332849442	 0.9856718778	-2.7321743315	 0.107726
H	 0.2030801463	-0.6226365468	-3.3750030382	 0.101542
H	-1.2725932783	-0.3319623751	-2.429544332	 0.143713
44.0909	70.2921	157.2945	183.7471	208.4107	219.0211	256.4731	267.0534	279.9294	290.0071	313.6989	323.4531	371.9452	400.7502	417.5697	493.7195	595.3448	613.7392	724.2581	794.2281	871.7118	933.8243	934.7905	955.5718	962.1707	990.28	1010.8422	1023.7877	1067.6439	1105.2393	1116.1377	1172.0168	1232.373	1242.5596	1257.9684	1348.7771	1360.9775	1379.1245	1395.4903	1401.1828	1406.4557	1432.8698	1460.846	1473.7607	1479.0059	1485.8625	1491.1469	1493.8404	1502.9897	1508.1754	1515.2022	1523.1207	1800.4835	3016.4031	3022.5823	3028.2064	3032.4733	3038.1649	3045.1655	3087.1088	3092.1987	3092.9167	3097.0971	3100.8671	3103.3762	3110.5006	3137.2333	3138.529	3148.8414
CC(C(C)=O)C(C)(C)C	C[C@@H](C(=O)C)C(C)(C)C	
InChI=1S/C8H16O/c1-6(7(2)9)8(3,4)5/h6H,1-5H3	InChI=1S/C8H16O/c1-6(7(2)9)8(3,4)5/h6H,1-5H3/t6-/m0/s1
