17
gdb 40231	2.11428	2.0957	1.27633	2.4575	67.49	-0.2586	0.0543	0.3129	996.3242	0.13543	-458.907845	-458.900084	-458.89914	-458.940601	29.203	
C	-0.3420755735	 1.5484853423	 0.0843716959	-0.243886
O	 0.9548751051	 0.9902230858	-0.1800378331	-0.268213
C	-0.1269031219	 0.1004808826	-0.0134904933	 0.366213
C	-0.2098811913	-0.8508309096	 1.1684230247	-0.182
O	-1.3517091291	-1.6474080475	 0.8739569521	-0.261369
C	-1.4202884085	-1.8546767874	-0.5391017389	-0.148846
C	-0.5754312986	-0.7554571006	-1.1772103191	 0.307632
C	-0.6195295356	-0.3205457588	-2.5716462906	-0.255476
O	 0.4358291772	-1.1640512321	-2.102704443	-0.260277
H	-0.4623054763	 2.0056947144	 1.0655384827	 0.121875
H	-0.7918048709	 2.0917125964	-0.7446857508	 0.116636
H	 0.7079649579	-1.4572163779	 1.2309826985	 0.112657
H	-0.3756763661	-0.3583673313	 2.1290750356	 0.117894
H	-1.0088082794	-2.8334546064	-0.8222683194	 0.118346
H	-2.4748342565	-1.8164453898	-0.8295156926	 0.117315
H	-1.3258825128	-0.7848056238	-3.2594878818	 0.117998
H	-0.3180824496	 0.6942987238	-2.829418317	 0.123501
50.3544	151.3001	215.9061	225.8543	325.7117	353.3658	403.7198	507.2461	550.5819	576.2124	696.2816	827.6293	863.8327	904.0263	914.1715	934.0658	949.0955	969.7201	1055.3039	1089.3135	1106.796	1123.6449	1127.7701	1140.7534	1170.5207	1180.8623	1210.9899	1230.6918	1253.6779	1332.1112	1368.7305	1425.8071	1452.7448	1503.4526	1515.3972	1529.2319	1536.1445	2982.0736	3011.1529	3075.4671	3077.4335	3085.4346	3103.52	3162.7001	3175.9488
C1OC11COCC11CO1	C1O[C@]21COC[C@]12CO1	
InChI=1S/C6H8O3/c1-5(3-8-5)6(2-7-1)4-9-6/h1-4H2	InChI=1S/C6H8O3/c1-5(3-8-5)6(2-7-1)4-9-6/h1-4H2/t5-,6+
