21
gdb 63207	2.74931	1.50979	1.28671	1.1834	83.33	-0.2421	0.015	0.2571	1090.4091	0.182828	-387.092647	-387.084128	-387.083184	-387.125213	34.019	
C	-0.0531533894	 1.5859466969	-0.0511046793	-0.434036
C	 0.016133345	 0.0573204993	-0.0275174411	 0.343273
O	-1.324686035	-0.4691968495	 0.0389515413	-0.47724
C	 0.7681190802	-0.5499627985	-1.2019842139	-0.127013
C	 1.5655868161	-1.5550392245	-0.8389001568	-0.085362
C	 1.5604123406	-1.7909047621	 0.6463402886	-0.063428
C	 2.8200720003	-1.2872074044	 1.4139229906	-0.230027
C	 2.104748878	 0.0719525293	 1.6441671013	-0.242234
C	 0.7572677733	-0.5585450869	 1.1747695922	-0.016475
H	 0.9386141757	 2.0447776817	-0.0909344739	 0.117823
H	-0.6077681716	 1.9243421497	-0.9346119682	 0.100466
H	-0.5775172674	 1.9546874972	 0.8352471304	 0.122226
H	-1.7557790167	-0.2838323318	-0.8025033064	 0.269409
H	 0.6177930199	-0.2019928909	-2.2203362515	 0.08303
H	 2.1649950874	-2.1513635154	-1.5205903618	 0.092676
H	 1.2187295529	-2.7979498511	 0.9053210515	 0.075761
H	 2.9782734585	-1.8405682184	 2.3434180791	 0.099426
H	 3.7616191896	-1.2661492105	 0.8587629216	 0.094134
H	 2.12137962	 0.4623480366	 2.6639973981	 0.098857
H	 2.4673663489	 0.8548156382	 0.9749246664	 0.102305
H	 0.0611921036	-0.7565362947	 1.9906604118	 0.076429
101.8922	181.7556	212.5875	224.9121	247.2871	318.3238	351.9734	394.2407	419.5524	564.8807	590.0528	686.2117	718.5646	771.5623	783.6716	842.4131	873.263	890.2383	927.1154	944.1615	961.2911	978.8246	996.9071	1026.4226	1048.9397	1095.8614	1104.6407	1149.7758	1157.4681	1175.2086	1194.7816	1238.9482	1245.2398	1265.8687	1273.2322	1302.3443	1318.7629	1360.8507	1385.0826	1405.4737	1475.6386	1488.3176	1491.8218	1496.2794	1671.3307	3029.0532	3049.6886	3057.6278	3070.3895	3094.3093	3099.4181	3105.2227	3118.7167	3127.0462	3159.3029	3185.734	3801.9337
CC1(O)C=CC2CCC12	C[C@@]1(O)C=C[C@H]2CC[C@@H]12	
InChI=1S/C8H12O/c1-8(9)5-4-6-2-3-7(6)8/h4-7,9H,2-3H2,1H3	InChI=1S/C8H12O/c1-8(9)5-4-6-2-3-7(6)8/h4-7,9H,2-3H2,1H3/t6-,7-,8-/m1/s1
