18
gdb 16594	2.52045	2.16775	1.98422	2.6774	66.73	-0.2354	0.0583	0.2936	827.6985	0.153924	-384.904884	-384.897134	-384.89619	-384.936291	30.444	
C	-0.1795673598	 1.6022954761	-0.044403203	-0.424345
C	 0.0522729829	 0.0942205764	-0.0441217898	-0.014988
C	 0.6963128575	-0.5749735214	-1.2649475092	-0.117904
C	 2.1540646689	-0.2439116511	-1.4032902557	 0.132791
O	 2.7352434069	 0.998994963	-1.1365769369	-0.438651
C	 1.7755067806	-1.2403033217	-0.353632168	-0.135152
C	 1.1803851808	-0.5356712669	 0.8569033459	 0.064785
O	 2.1169946984	 0.3363235994	 1.4921667325	-0.431705
H	 0.7247943089	 2.1476624365	-0.3158074444	 0.142203
H	-0.9572758596	 1.8639374362	-0.7699503163	 0.118635
H	-0.5253668281	 1.9494759202	 0.937533369	 0.095721
H	-0.8857425221	-0.4154423034	 0.2007864615	 0.073117
H	 0.1399034306	-1.0301535181	-2.0767220977	 0.084424
H	 2.6031237154	-0.6996589263	-2.2838711046	 0.098812
H	 2.82658344	 1.0624687921	-0.1751698862	 0.296119
H	 2.1537996097	-2.2555213732	-0.3443623548	 0.086794
H	 0.7659202447	-1.2315911511	 1.5952596902	 0.078895
H	 1.6456058544	 0.8702690333	 2.1406171674	 0.29045
164.0826	186.8781	206.3542	243.44	300.8281	321.4352	394.8846	500.0055	527.4945	556.5961	681.0738	729.4136	745.6798	800.1923	805.6515	907.812	965.562	978.6559	996.9871	1008.5824	1040.8377	1081.9566	1101.5506	1137.4136	1155.058	1192.8006	1206.6984	1261.3612	1280.2693	1330.3532	1345.1672	1372.2199	1389.684	1406.7868	1427.018	1469.0786	1492.0401	1509.6876	3023.5163	3026.4564	3048.1839	3084.5564	3128.5026	3146.7564	3169.4658	3182.25	3722.9059	3810.5489
CC1C2C(O)C2C1O	C[C@H]1[C@H]2[C@@H](O)[C@H]2[C@H]1O	
InChI=1S/C6H10O2/c1-2-3-4(5(2)7)6(3)8/h2-8H,1H3	InChI=1S/C6H10O2/c1-2-3-4(5(2)7)6(3)8/h2-8H,1H3/t2-,3+,4+,5-,6+/m0/s1
