23
gdb 59952	2.38895	1.03067	0.87093	2.9628	82.29	-0.2496	-0.0237	0.2259	1463.8825	0.201076	-425.444062	-425.432614	-425.43167	-425.480532	41.539	
C	-1.4915654415	-0.0740108775	-0.5281057239	-0.387939
C	-0.0094341443	 0.1038220284	-0.1633519935	 0.015802
C	 0.2419069492	-0.3904418617	 1.2707796769	-0.39754
C	 0.8596686937	-0.5949221369	-1.2274629013	-0.200084
C	 2.3941215127	-0.5005108553	-1.1030878173	 0.228167
C	 2.9070027845	 0.9337343787	-0.8713977955	-0.431869
O	 2.9287697316	-1.3969636392	-0.1298032268	-0.469754
C	 3.0312079677	-0.9827616686	-2.4123112909	 0.163435
O	 2.638216087	-0.6914961405	-3.5108045466	-0.262251
H	-1.701565025	 0.2979429362	-1.5358917804	 0.116848
H	-1.7782698514	-1.1318732047	-0.4978075887	 0.115886
H	-2.1370697208	 0.4654713341	 0.1727369241	 0.109998
H	 0.2071449146	 1.1799962206	-0.192300225	 0.07835
H	 0.1810511553	-1.4829905641	 1.3308423966	 0.124283
H	 1.21926131	-0.0798979434	 1.6584458901	 0.098629
H	-0.5039984385	 0.0216919892	 1.9583668409	 0.116585
H	 0.6068536344	-1.6631820134	-1.2496863249	 0.100538
H	 0.5991701104	-0.1933624948	-2.2129315557	 0.119468
H	 2.5593784924	 1.3214850335	 0.091116621	 0.119992
H	 4.0010840443	 0.9470319018	-0.8631877709	 0.126702
H	 2.5547480261	 1.6026117145	-1.6616762203	 0.137426
H	 2.6447049528	-1.1067814652	 0.741062397	 0.282424
H	 3.9281818647	-1.6193534017	-2.2481933248	 0.094905
60.7364	78.4479	109.1835	156.6815	194.1955	226.3968	237.3979	257.2734	280.8932	287.8234	305.8023	352.7475	390.873	425.888	443.6583	518.1246	619.2117	762.5539	831.165	877.7126	908.0685	930.7546	940.2212	968.6577	984.7122	996.1523	1062.2788	1096.503	1144.3011	1186.9138	1196.9534	1216.4541	1293.679	1308.626	1356.1823	1373.7248	1390.2476	1392.6831	1400.2311	1405.4114	1423.6618	1471.1461	1486.7788	1490.0765	1495.1033	1499.6823	1505.8758	1517.4919	1839.0441	2901.0708	3013.7142	3020.3403	3024.4678	3029.5857	3038.3444	3077.5813	3080.3432	3092.3721	3099.7033	3103.1681	3108.63	3122.6347	3851.8757
CC(C)CC(C)(O)C=O	CC(C)C[C@@](C)(O)C=O	
InChI=1S/C7H14O2/c1-6(2)4-7(3,9)5-8/h5-6,9H,4H2,1-3H3	InChI=1S/C7H14O2/c1-6(2)4-7(3,9)5-8/h5-6,9H,4H2,1-3H3/t7-/m1/s1
