13
gdb 42255	3.16126	1.18289	1.01412	5.5741	71.66	-0.2818	-0.0621	0.2197	1145.0211	0.087354	-415.566911	-415.558433	-415.557488	-415.600739	29.684	
O	-0.3398976248	 0.0225408171	-0.308967842	-0.302398
C	-0.2286974423	 1.1803887967	 0.0134291352	 0.261995
C	 1.0129777105	 1.9247569475	-0.0604568508	 0.266583
C	 2.0512616251	 2.5243327425	-0.1500320769	-0.420184
N	-1.2767492459	 1.918689792	 0.5784424681	-0.089073
C	-1.7915698572	 3.1824123767	 0.116403754	-0.239774
C	-2.6401147984	 1.9271047111	 0.0923991101	-0.163178
C	-2.9733722345	 1.3415726706	-1.1864021117	 0.314836
N	-3.2843748139	 0.8988687755	-2.2074104893	-0.317101
H	 2.9768168108	 3.0411052992	-0.2329904264	 0.22271
H	-1.9854072729	 3.9317887258	 0.8781562876	 0.148758
H	-1.4432338759	 3.558312588	-0.841809105	 0.160986
H	-3.4026232107	 1.7920349273	 0.8544758471	 0.15584
54.7752	99.8635	137.1528	208.2094	241.4186	270.4178	298.7347	480.1166	531.092	554.4429	645.1676	668.9598	707.2271	714.637	772.0665	812.9275	936.2055	999.2727	1048.3745	1102.6191	1128.0111	1151.0236	1168.0246	1352.4414	1405.122	1508.9618	1777.7096	2226.8308	2365.163	3116.3621	3155.0343	3212.6017	3492.9492
O=C(C#C)N1CC1C#N	O=C(C#C)N1C[C@H]1C#N	
InChI=1S/C6H4N2O/c1-2-6(9)8-4-5(8)3-7/h1,5H,4H2	InChI=1S/C6H4N2O/c1-2-6(9)8-4-5(8)3-7/h1,5H,4H2/t5-,8?/m1/s1
