13
gdb 20661	3.37672	2.09513	1.30344	5.8574	62.53	-0.2731	-0.0699	0.2031	868.2601	0.095689	-394.79426	-394.787226	-394.786282	-394.82573	24.718	
C	-0.02767105	 1.5235152901	 0.0441758153	-0.505746
C	-0.0116621711	 0.0342722364	-0.0408873399	 0.344779
C	-0.0309415795	-0.8124032229	-1.1115452707	-0.150992
N	-0.0024633808	-2.1128706441	-0.6661996554	-0.16094
N	 0.0336472064	-2.1317241023	 0.6168832263	-0.101961
N	 0.0288694854	-0.8207369032	 1.0400994574	-0.084021
C	 0.0626726493	-0.4868305215	 2.4090565514	 0.18877
O	 0.0972768718	-1.2811357288	 3.300432386	-0.236965
H	 0.8668507197	 1.9166038902	 0.5390732504	 0.152478
H	-0.0615759878	 1.9418349341	-0.9636791014	 0.154476
H	-0.9019751931	 1.8947404583	 0.5895022502	 0.152458
H	-0.0631171473	-0.5770636253	-2.163113562	 0.137044
H	 0.0529317771	 0.6078911889	 2.5500837224	 0.11062
129.6023	158.2329	202.1102	209.3128	285.8555	325.9919	554.8535	644.4013	656.9887	711.6092	794.3064	853.022	966.3714	1010.5801	1027.5994	1067.3746	1098.528	1120.5058	1258.5476	1282.0024	1382.0892	1412.8909	1422.349	1457.4102	1483.7512	1494.6684	1609.5185	1854.341	2990.2733	3038.3896	3092.9231	3132.9671	3273.0296
CC1=CN=NN1C=O	Cc1cnnn1C=O	
InChI=1S/C4H5N3O/c1-4-2-5-6-7(4)3-8/h2-3H,1H3	InChI=1S/C4H5N3O/c1-4-2-5-6-7(4)3-8/h2-3H,1H3
