22
gdb 111549	2.63782	1.47543	1.14085	1.7303	85.39	-0.2166	0.0848	0.3014	1185.1459	0.194438	-367.145067	-367.136352	-367.135408	-367.17819	34.102	
C	 0.1994706446	 1.5767966656	 0.1113011384	-0.374068
C	-0.1400829	 0.0888055795	-0.0343998766	-0.224523
C	 0.6229135941	-0.5736438861	-1.1733280669	 0.025049
N	 2.1530264866	-0.572901952	-1.1511951303	-0.188877
C	 2.4752415619	-1.3651142182	 0.1028791786	-0.185156
C	 1.8554909051	-2.5880561777	-0.544028012	-0.134371
C	 2.0653877989	-1.933963757	-1.88155566	-0.078242
C	 0.6577496914	-2.0831169512	-1.3854641818	 0.309404
C	-0.4321342958	-2.9945545264	-1.8673157091	-0.515054
H	 1.2660886445	 1.7177607024	 0.3090865339	 0.133725
H	-0.0370000621	 2.1245912399	-0.8073514594	 0.115402
H	-0.3644659049	 2.0345860574	 0.9295535574	 0.107628
H	 0.0374693681	-0.4350178478	 0.9108496611	 0.09785
H	-1.2119590655	-0.0289896844	-0.2425485008	 0.096026
H	 0.3463946059	-0.083653648	-2.1163061269	 0.070885
H	 3.5626083315	-1.4467245694	 0.187240189	 0.106049
H	 2.0726027515	-0.9617107249	 1.0374060324	 0.095773
H	 1.9505644392	-3.6369841279	-0.2892844829	 0.085049
H	 2.5878372558	-2.1989159926	-2.7901404551	 0.093918
H	-0.0375476476	-3.9805386618	-2.135467607	 0.120486
H	-1.1986883375	-3.1458920266	-1.0985665877	 0.122911
H	-0.9262879256	-2.5838101827	-2.7553182044	 0.120137
85.7108	145.6714	187.0362	210.7463	232.1475	253.1914	321.0432	394.7844	506.5097	545.8717	611.1888	698.2567	760.6218	802.6445	830.0519	839.1026	858.6352	890.4574	914.8961	930.7825	963.1558	981.5341	1004.0633	1047.0782	1079.5596	1091.0401	1119.1292	1124.8627	1141.4537	1155.853	1178.413	1232.2829	1238.6159	1272.4845	1286.1388	1313.3557	1340.5992	1393.2304	1412.0048	1416.3738	1442.7418	1484.4425	1487.836	1497.1151	1499.2571	1505.2148	1525.4009	3014.7732	3021.6907	3025.5123	3037.044	3044.6244	3070.1998	3081.7459	3091.2707	3094.2906	3104.207	3114.568	3181.9462	3213.8614
CCC1N2CC3C2C13C	CC[C@H]1N2C[C@@H]3[C@H]2[C@]13C	
InChI=1S/C8H13N/c1-3-6-8(2)5-4-9(6)7(5)8/h5-7H,3-4H2,1-2H3	InChI=1S/C8H13N/c1-3-6-8(2)5-4-9(6)7(5)8/h5-7H,3-4H2,1-2H3/t5-,6-,7+,8+/m1/s1
