21
gdb 121585	4.40651	0.6484	0.57349	1.7862	82.02	-0.2469	-0.0495	0.1973	1955.4445	0.180733	-420.446803	-420.436012	-420.435068	-420.483927	38.306	
C	-0.0639356602	 1.5471995499	-0.0463522426	-0.380857
C	 0.0440614326	 0.0203382969	-0.0169917223	-0.1689
C	 0.7587542333	-0.5039012585	 1.2327206517	-0.163222
C	 0.8623202567	-2.0279650292	 1.2559789738	-0.298569
C	 1.5681825297	-2.567232345	 2.476741703	 0.371161
O	 2.0389193244	-1.8607831985	 3.3444467799	-0.327051
C	 1.6795795681	-4.08431766	 2.6148968828	 0.264361
N	 2.4470788784	-4.4468980616	 3.6835735718	-0.533631
N	 1.0890615936	-4.8176089445	 1.7467642384	-0.511277
H	 0.9270208552	 2.0141525203	-0.0249374339	 0.114625
H	-0.5766828352	 1.8945895823	-0.9487347769	 0.110415
H	-0.622188485	 1.9207930339	 0.8192718891	 0.114424
H	-0.9604064255	-0.4199296628	-0.0735191338	 0.09491
H	 0.575438993	-0.3274834361	-0.9130005515	 0.094597
H	 1.7639150067	-0.0703485474	 1.2967783753	 0.105632
H	 0.233282038	-0.1618184041	 2.1326035838	 0.104281
H	-0.1218375257	-2.5088024532	 1.2001582103	 0.143482
H	 1.3912838491	-2.4119783563	 0.3736132758	 0.138056
H	 2.6761717132	-3.7081804459	 4.331900133	 0.270038
H	 2.4170766243	-5.3913622712	 4.0272694981	 0.252175
H	 1.2224071854	-5.8130103391	 1.939478024	 0.205349
38.7165	60.7504	95.6512	99.5783	127.9784	237.3869	242.6615	289.1055	314.6008	365.6409	408.6055	438.9717	538.8186	547.5644	614.0015	658.1974	738.2508	806.9383	813.3784	876.5054	913.4073	936.9469	1015.7679	1057.7967	1072.3297	1105.3144	1114.7538	1135.7999	1149.8738	1229.2143	1288.0093	1302.2976	1328.0362	1367.5284	1401.1102	1412.6308	1432.7147	1435.239	1484.4258	1495.2323	1498.9182	1511.6334	1598.3896	1718.863	1787.2116	3012.6252	3028.4565	3032.6442	3037.9572	3040.8972	3059.6667	3079.3248	3096.8118	3101.745	3440.7137	3580.0471	3714.8365
CCCCC(=O)C(N)=N	CCCCC(=O)C(=N)N	
InChI=1S/C6H12N2O/c1-2-3-4-5(9)6(7)8/h2-4H2,1H3,(H3,7,8)	InChI=1S/C6H12N2O/c1-2-3-4-5(9)6(7)8/h2-4H2,1H3,(H3,7,8)
