19
gdb 74749	3.42826	1.55764	1.41343	1.833	78.79	-0.2296	0.0165	0.2461	998.7952	0.161357	-385.874935	-385.867897	-385.866952	-385.906022	29.264	
C	 0.0024760099	 1.480346451	 0.0536951452	-0.509942
C	-0.0450577288	-0.0075149376	-0.023678983	 0.363495
C	-0.0607010662	-0.8299682329	-1.077695485	-0.199146
C	 0.0026418024	-2.2456299441	-0.4998379272	-0.004213
O	-0.7260990359	-2.0787764948	 0.7271034232	-0.247661
C	 0.0189031866	-0.9480759871	 1.1938964406	-0.062056
C	 1.4645511229	-1.5134071468	 1.2192761225	-0.039248
C	 1.6029359103	-3.0053408433	 1.4133436788	-0.307503
C	 1.4526017684	-2.4336943641	 0.0243538281	-0.0353
H	 0.9151495534	 1.8252602583	 0.5571744592	 0.128232
H	-0.0232679766	 1.9352357909	-0.9402826428	 0.127791
H	-0.8405511976	 1.8780313693	 0.6328955707	 0.13018
H	-0.0295666517	-0.5743076145	-2.1284531623	 0.096232
H	-0.422642524	-3.0576533491	-1.0890543988	 0.078762
H	-0.3888274551	-0.5806402887	 2.1363573674	 0.075704
H	 2.2924608276	-0.8455315116	 1.4252454507	 0.086691
H	 2.587040704	-3.3721743489	 1.6880869099	 0.104541
H	 0.7718641993	-3.551934182	 1.8427666651	 0.12691
H	 2.2699895608	-2.4650389842	-0.6858007022	 0.086531
155.2988	173.1963	253.2063	356.6502	372.0902	481.7854	522.841	591.0642	656.94	716.9174	773.9294	797.8891	820.5771	830.5728	881.3218	895.238	918.8537	937.3139	964.28	987.9797	1002.5325	1035.615	1062.3168	1067.4078	1081.8547	1092.8624	1103.4585	1181.4532	1192.4662	1229.2723	1242.6478	1258.0688	1298.892	1307.5764	1318.5828	1358.873	1413.6364	1468.4623	1479.0229	1486.9087	1689.7482	3014.8682	3059.6259	3108.7267	3113.7463	3123.674	3132.881	3179.0305	3188.6886	3221.266	3225.2833
CC1=CC2OC1C1CC21	CC1=C[C@@H]2O[C@H]1[C@H]1C[C@@H]21	
InChI=1S/C8H10O/c1-4-2-7-5-3-6(5)8(4)9-7/h2,5-8H,3H2,1H3	InChI=1S/C8H10O/c1-4-2-7-5-3-6(5)8(4)9-7/h2,5-8H,3H2,1H3/t5-,6+,7+,8-/m1/s1
