18
gdb 133849	3.6277	1.82906	1.77476	0.6367	83.6	-0.1937	-0.0457	0.1481	861.345	0.14815	-364.688912	-364.682075	-364.681131	-364.719496	28.573	
C	 6.0196440142	-0.5373757299	-0.9998658897	-0.508562
C	 4.585641084	-0.3731756207	-0.6431030461	 0.382127
C	 3.9227983268	-0.1935295403	 0.7223127532	-0.060583
C	 2.5623359854	 0.1568294381	 0.0153873158	-0.077529
C	 1.6800385901	-1.0331878974	 0.3750072856	-0.224469
C	 2.799063412	-2.0707070457	 0.1916118984	-0.010996
C	 3.4300382309	-1.6545428485	-1.1632581152	-0.061905
C	 3.3044428355	-0.2369933772	-1.3140290532	-0.182465
N	 3.9496118813	-1.6247573406	 0.9470670832	-0.269856
H	 6.5152745083	 0.4406313788	-0.9536562611	 0.139171
H	 6.1379792014	-0.9238064868	-2.0155976859	 0.138642
H	 6.5200457399	-1.2092732509	-0.2993118584	 0.158671
H	 4.3812942676	 0.4200432261	 1.4942175145	 0.086892
H	 2.1664530494	 1.1653152175	 0.0985886971	 0.073341
H	 0.8402987295	-1.1793592932	-0.3106039051	 0.105447
H	 1.3166882675	-1.0009346539	 1.407355876	 0.101652
H	 2.5859380667	-3.130409581	 0.3127921585	 0.077576
H	 4.0179599095	-2.3478633243	-1.7472602075	 0.132845
178.4924	215.6233	253.7202	362.8535	421.3524	467.5733	503.3298	578.7735	653.3115	755.9283	794.7514	804.8042	853.1828	864.832	878.2185	905.8427	913.9041	956.1137	959.0365	981.7494	999.3646	1036.9163	1066.9453	1103.839	1121.9448	1144.6773	1167.0905	1187.1873	1198.6156	1215.2282	1231.9154	1274.7148	1299.9307	1316.4621	1390.0599	1423.9564	1471.0675	1477.8556	1486.3429	3029.4543	3051.6974	3098.6881	3108.0378	3135.4457	3144.0906	3146.2399	3156.3676	3242.7407
CC12C3C4CC(C=C14)N23	C[C@]12[C@H]3[C@@H]4C[C@@H]([C@H]1[C]24)[N]3	
InChI=1S/C8H9N/c1-8-6-3-4-2-5(6)7(8)9(4)8/h3-5,7H,2H2,1H3	InChI=1S/C8H9N/c1-8-5-3-2-4(6(5)8)9-7(3)8/h3-4,6-7H,2H2,1H3/t3-,4+,6+,7-,8-/m1/s1
