20
gdb 106896	2.822	1.24341	1.03802	4.0149	80.	-0.2304	-0.0146	0.2158	1235.0751	0.1695	-403.130521	-403.121171	-403.120227	-403.164714	34.707	
C	 0.2096770484	 1.4737708557	-0.2480522405	-0.377133
C	-0.1202370256	 0.0046045946	 0.0552703192	-0.309535
C	 0.5785989507	-0.5185300291	 1.2761698667	 0.347907
N	 1.9950820967	-0.9040269168	 1.2830977397	-0.363801
C	 0.9486694029	-1.9390819404	 1.6259175161	-0.273771
C	 0.602455557	-1.6709608701	 3.0697054759	 0.45888
O	 0.4800704955	-2.3527734844	 4.0455000494	-0.318108
C	 0.246099075	-0.1851988101	 2.7546026289	-0.157643
C	 0.9875322518	 0.9290616127	 3.4804204565	-0.420479
H	 1.2841483363	 1.6140355257	-0.4016224512	 0.126346
H	-0.3090944778	 1.8095946892	-1.1505737633	 0.118787
H	-0.0958045687	 2.125373298	 0.5763933664	 0.128454
H	-1.2033519934	-0.1092623014	 0.1886818973	 0.110402
H	 0.1521833349	-0.6209376361	-0.8052411549	 0.099338
H	 2.2673517463	-1.1065583964	 0.3194471053	 0.232419
H	 0.8780083292	-2.8546761921	 1.0512410319	 0.110734
H	-0.8402044448	-0.0899878633	 2.8838146075	 0.097955
H	 2.0578414461	 0.8743645229	 3.269105232	 0.14311
H	 0.6225849925	 1.9165431125	 3.1797281653	 0.114298
H	 0.8433044468	 0.8332466486	 4.5610989118	 0.13184
72.6207	96.7218	167.7841	199.1167	202.5504	227.956	254.0671	335.054	393.4841	487.9604	523.8201	594.652	667.9016	708.3072	767.6776	782.091	850.1347	867.7345	935.2631	958.0741	1005.894	1023.1406	1053.9038	1081.9283	1100.8298	1108.4006	1119.5136	1147.5074	1192.965	1251.2906	1292.9207	1320.8786	1355.1038	1358.1751	1402.4478	1410.1678	1431.5485	1477.8846	1490.5163	1498.165	1504.9012	1507.2673	1892.1399	3016.0069	3031.4407	3039.5603	3041.1739	3052.4201	3102.8936	3112.3919	3113.8537	3130.9197	3193.8316	3447.1051
CCC12NC1C(=O)C2C	CC[C@]12N[C@H]1C(=O)[C@H]2C	
InChI=1S/C7H11NO/c1-3-7-4(2)5(9)6(7)8-7/h4,6,8H,3H2,1-2H3	InChI=1S/C7H11NO/c1-3-7-4(2)5(9)6(7)8-7/h4,6,8H,3H2,1-2H3/t4-,6+,7-/m1/s1
