19
gdb 114291	2.3059	1.45735	1.08135	1.6892	81.53	-0.2314	0.0459	0.2772	1189.2555	0.157526	-385.81333	-385.804456	-385.803512	-385.846913	33.724	
C	-0.107525983	 1.5981977292	-0.0169359129	-0.381296
C	 0.0216612672	 0.1061645125	 0.3090913418	-0.210244
C	-1.2994914938	-0.6208453088	 0.1547021746	 0.146616
O	-1.861456646	-0.5942112703	-1.200319758	-0.299396
C	-2.1349273975	-1.9849575616	-1.123688282	 0.084437
C	-0.8710077179	-2.8091614546	-1.0709334851	-0.238069
C	 0.3419604495	-2.484186744	-1.765013695	 0.322077
C	 1.3536741953	-2.2760441877	-2.3818998843	-0.424651
C	-1.4239807418	-2.1455641215	 0.1951679191	-0.194691
H	 0.8522276537	 2.1099574126	 0.0986637547	 0.111641
H	-0.4454397813	 1.7363778868	-1.0479084223	 0.139168
H	-0.8315476676	 2.0902317972	 0.6424599741	 0.110187
H	 0.7730939077	-0.3588933707	-0.3324805485	 0.126809
H	 0.3527772287	-0.0286655593	 1.3475315181	 0.095471
H	-2.0487330513	-0.182998868	 0.8302216381	 0.083842
H	-3.0825743611	-2.3448130051	-1.5086063591	 0.110904
H	-1.0927153229	-3.875541835	-1.0543915424	 0.119306
H	 2.2449096896	-2.0728343357	-2.9218736134	 0.194083
H	-1.6713493074	-2.734351956	 1.0682667226	 0.103807
80.3763	127.8518	139.7935	184.3109	216.686	281.1236	351.3766	425.4189	461.3991	571.6684	590.4747	636.1168	650.1996	735.8065	756.3098	803.3764	810.9076	883.133	917.1889	940.6045	985.3417	1014.5658	1027.53	1047.6105	1058.2711	1093.2105	1116.9483	1174.1097	1180.2734	1256.2996	1283.3271	1298.3386	1323.1868	1358.2479	1405.8863	1410.5047	1429.9692	1479.8271	1498.9988	1509.2597	2233.1373	2997.7245	3028.4259	3035.2876	3095.4351	3116.5438	3119.8128	3122.6877	3174.595	3202.6823	3503.8613
CCC1OC2C(C#C)C12	CC[C@H]1O[C@H]2[C@@H](C#C)[C@@H]12	
InChI=1S/C8H10O/c1-3-5-7-6(4-2)9-8(5)7/h1,5-8H,4H2,2H3	InChI=1S/C8H10O/c1-3-5-7-6(4-2)9-8(5)7/h1,5-8H,4H2,2H3/t5-,6+,7-,8-/m0/s1
