15
gdb 82669	3.23857	1.68014	1.36949	1.9304	63.82	-0.2461	-0.0249	0.2213	912.0142	0.114055	-457.724511	-457.718148	-457.717203	-457.755167	26.055	
O	 0.0951998214	 1.3182111316	-0.0443757886	-0.441734
C	-0.0318926811	-0.0699997309	-0.0252799135	 0.174923
C	 0.3659582021	-0.6869225539	 1.3409296796	 0.019761
O	-0.5345700238	 0.0560189695	 2.2197378066	-0.306019
C	-1.5539683617	-0.7725775616	 1.6297593674	 0.096334
C	-0.5622478383	-1.9606981691	 1.3940420208	-0.215465
C	-1.1942863689	-2.1217268993	 0.016143853	 0.437762
O	-1.4672501182	-3.0464921411	-0.6914331112	-0.32165
C	-1.4992442923	-0.6221949702	 0.040747599	-0.272531
H	-0.2220779863	 1.6202809953	 0.8195602134	 0.290684
H	 0.5250418054	-0.4685854161	-0.8764064261	 0.108965
H	 1.4045364137	-0.6751794137	 1.6663044189	 0.103116
H	-2.5025954557	-0.8122882635	 2.1577126953	 0.115824
H	-0.3519547521	-2.7554938617	 2.1042595879	 0.108709
H	-2.2579785342	-0.1425331853	-0.5695244425	 0.101321
150.0518	232.3074	319.6018	399.5438	513.0497	551.5358	562.8115	614.1401	724.7364	744.4081	795.5828	802.2988	844.8514	858.3044	891.7814	927.3582	957.0495	992.8198	1015.1654	1035.6349	1090.5444	1108.2008	1132.2211	1157.2955	1172.1928	1220.782	1236.0698	1259.1968	1279.1549	1300.8889	1335.8749	1453.093	1898.3548	3094.9371	3146.2304	3162.8914	3170.9149	3180.8225	3731.6112
OC1C2OC3C2C(=O)C13	O[C@H]1[C@H]2O[C@@H]3[C@H]2C(=O)[C@H]13	
InChI=1S/C6H6O3/c7-3-1-4(8)6-2(3)5(1)9-6/h1-2,4-6,8H	InChI=1S/C6H6O3/c7-3-1-4(8)6-2(3)5(1)9-6/h1-2,4-6,8H/t1-,2-,4-,5+,6+/m1/s1
