19
gdb 112754	2.51427	1.28034	0.97096	2.7834	72.24	-0.2476	0.056	0.3036	1255.5494	0.157083	-460.110152	-460.100898	-460.099954	-460.144415	33.98	
C	 0.1891737402	 1.6638564485	-0.3629918453	-0.238505
O	-0.3340730986	 0.3670130361	-0.5569305973	-0.245579
C	 0.5754050792	-0.5216391546	-1.1418750158	 0.055816
C	 1.6576056508	-1.2019993144	-0.2407252377	-0.317318
C	 1.3024910508	-2.5719827921	-0.9011913203	 0.059727
O	 1.2335771302	-3.7350720055	-0.1201387687	-0.4255
C	 0.0132608443	-1.9144434112	-1.4085049367	 0.369323
C	-1.3644375894	-2.3651437677	-1.2097548537	-0.26331
O	-0.766820042	-2.3065448375	-2.5148820493	-0.275994
H	 1.0435719395	 1.662925365	 0.3299654773	 0.110069
H	 0.514428641	 2.1145640646	-1.3131557	 0.110385
H	-0.6096980203	 2.2747715793	 0.0635776859	 0.130257
H	 1.019983388	-0.0861551176	-2.0500480134	 0.078825
H	 2.6896284358	-0.8588598519	-0.3200407491	 0.109142
H	 1.3403049903	-1.1783169115	 0.8066759976	 0.105212
H	 1.9767592755	-2.807468826	-1.7299346872	 0.106812
H	 0.6522316153	-3.5565978963	 0.6270466569	 0.279818
H	-1.5483405796	-3.3705667177	-0.8335538471	 0.117963
H	-2.1392608711	-1.6271637894	-1.0160330662	 0.132859
73.3819	94.3153	154.9215	199.5798	207.7688	259.349	313.8476	327.715	359.863	469.8031	490.2058	559.2707	577.3017	732.9983	822.8356	859.5493	905.7954	925.3522	1002.9736	1030.944	1061.4689	1094.5477	1113.5132	1133.3669	1154.4719	1160.6893	1178.7069	1184.0581	1187.611	1243.1308	1262.4294	1281.3626	1315.8667	1389.4335	1428.2354	1442.9344	1472.7143	1485.3636	1488.8105	1509.6014	1527.5505	2978.767	2989.171	3029.1405	3060.0288	3076.1305	3090.322	3118.3294	3133.1529	3187.3198	3805.5122
COC1CC(O)C11CO1	CO[C@H]1C[C@@H](O)[C@]21CO2	
InChI=1S/C6H10O3/c1-8-5-2-4(7)6(5)3-9-6/h4-5,7H,2-3H2,1H3	InChI=1S/C6H10O3/c1-8-5-2-4(7)6(5)3-9-6/h4-5,7H,2-3H2,1H3/t4-,5+,6+/m1/s1
