17
gdb 14035	4.80045	1.65863	1.54685	1.918	67.71	-0.2435	0.0261	0.2696	870.7674	0.144082	-363.870926	-363.864109	-363.863165	-363.90235	25.989	
C	 0.0422089708	 1.3359719232	-0.4835414494	-0.215055
C	 1.3815393502	 1.6811436097	 0.2261300423	-0.281319
C	 1.4285054893	 0.2267175259	 0.7508784217	 0.415306
C	-0.080821647	 0.0916236925	 0.4400618779	-0.281312
C	 2.4008329067	-0.7619655278	 0.0513531105	-0.247619
N	 3.2052162285	-1.3566865494	 1.1308717019	-0.261547
C	 2.7805507613	-0.8225991219	 2.1976578862	 0.101247
O	 1.7815933428	 0.0899424425	 2.1482928287	-0.255083
H	-0.7557665136	 2.07774142	-0.4268393215	 0.107604
H	 0.1879976188	 1.060837773	-1.531235016	 0.109523
H	 2.2231920195	 2.0170889583	-0.3852178157	 0.102151
H	 1.2375179028	 2.3812209942	 1.0530169502	 0.116754
H	-0.6751332459	 0.3022581916	 1.3328215524	 0.116753
H	-0.4160359992	-0.8516343679	 0.0008808049	 0.102149
H	 1.8691293835	-1.551362825	-0.491837383	 0.116745
H	 3.058736428	-0.2582801178	-0.6658484791	 0.116743
H	 3.1513759236	-1.029309651	 3.1957419281	 0.13696
66.3656	114.067	273.6911	364.6807	409.3588	462.5783	521.5233	684.4856	782.2934	788.8025	843.2225	892.5263	920.1078	932.5286	940.4712	958.7685	968.1153	986.5575	1040.0689	1122.5134	1124.6896	1153.9633	1192.5788	1196.1547	1236.6241	1248.4775	1268.3639	1275.7815	1291.5559	1329.0349	1338.739	1469.1635	1482.4274	1495.5696	1505.442	1709.5524	3030.884	3056.876	3060.9769	3064.0294	3071.0444	3109.3345	3116.1877	3131.5051	3213.1899
C1CC2(C1)CN=CO2	C1CC2(C1)CN=CO2	
InChI=1S/C6H9NO/c1-2-6(3-1)4-7-5-8-6/h5H,1-4H2	InChI=1S/C6H9NO/c1-2-6(3-1)4-7-5-8-6/h5H,1-4H2
