23
gdb 101849	4.94702	0.57361	0.5377	2.4033	82.71	-0.2541	0.0623	0.3164	2075.5675	0.204682	-425.409494	-425.399084	-425.398139	-425.445885	38.29	
O	 0.0995842311	 1.3925021034	-0.0143258713	-0.425409
C	 0.0460083726	-0.0003330513	 0.201883041	-0.061248
C	-1.3804519848	-0.5288448352	 0.0298989697	 0.094858
O	-1.8886682144	-0.0717226285	-1.2329459418	-0.438846
C	-1.4855702904	-2.0448364536	 0.1836254486	-0.205627
C	-2.9228264909	-2.5755132758	 0.0912455265	-0.204088
C	-3.0063618423	-4.0828598485	 0.1997129167	 0.03286
C	-3.0349456096	-4.7524829024	 1.5521025503	-0.256289
C	-4.268597899	-4.7496438869	 0.6813631793	-0.276747
H	-0.495315475	 1.5538005685	-0.7588405506	 0.283743
H	 0.7149797302	-0.5432740126	-0.4926782549	 0.068396
H	 0.4065214041	-0.1937635249	 1.2183767672	 0.105448
H	-2.0215292488	-0.0320765637	 0.7686271985	 0.095695
H	-1.4418995366	-0.575786049	-1.9242076226	 0.280861
H	-0.8633355452	-2.523928078	-0.5880957953	 0.084959
H	-1.0457669703	-2.3346252585	 1.146500316	 0.105895
H	-3.5256365028	-2.1221796895	 0.8896878203	 0.092908
H	-3.3686850164	-2.2391782931	-0.8522732912	 0.106167
H	-2.4598252176	-4.6168164568	-0.5749718239	 0.07708
H	-2.4988119527	-5.6857392315	 1.6846755372	 0.109947
H	-3.0372911512	-4.1154641924	 2.4312545547	 0.108257
H	-5.0952675028	-4.1119198368	 0.9777882324	 0.110869
H	-4.5735799971	-5.6805924329	 0.2162684032	 0.110313
54.5909	58.5895	93.0114	131.1901	159.9039	225.394	261.071	326.2906	352.5596	389.6566	428.1351	482.0098	519.855	583.347	760.1015	775.7087	820.3374	839.2166	857.7966	908.6704	947.5554	976.2968	1027.5923	1035.3	1059.9805	1078.1129	1090.9729	1096.4686	1118.4775	1127.0565	1142.3476	1199.1777	1209.1123	1226.197	1234.2146	1259.5932	1300.0113	1320.1419	1342.7648	1380.7711	1392.6126	1419.1137	1421.2158	1445.4615	1469.2582	1476.2967	1495.3551	1508.3609	1509.826	2924.5418	2992.9154	3018.836	3040.4836	3047.4404	3063.677	3071.5729	3125.5122	3127.063	3132.7216	3204.6275	3219.8489	3758.4288	3780.1281
OCC(O)CCC1CC1	OC[C@@H](O)CCC1CC1	
InChI=1S/C7H14O2/c8-5-7(9)4-3-6-1-2-6/h6-9H,1-5H2	InChI=1S/C7H14O2/c8-5-7(9)4-3-6-1-2-6/h6-9H,1-5H2/t7-/m0/s1
