19
gdb 48207	2.02215	1.42689	0.90181	1.6759	75.91	-0.2494	-0.0268	0.2226	1294.1832	0.157271	-422.992522	-422.983327	-422.982383	-423.027645	32.831	
O	-1.168620315	 1.2708382398	 0.7524932569	-0.245113
C	-0.3374490956	 1.1970236826	-0.1164997751	 0.148884
C	 1.020565868	 1.877665646	-0.07836164	-0.157199
C	 1.1744806765	 2.7648471734	-1.3083242118	 0.011489
C	 2.5504793606	 3.1273605439	-1.8046609054	-0.261278
C	 1.6846297409	 2.194005264	-2.6107400175	-0.281036
C	 1.232137246	 2.6352703504	 1.2143260432	 0.119463
C	 1.8454600718	 2.0128428978	 2.3899343135	-0.180502
O	 2.5909237591	 2.9109924603	 1.5616315441	-0.24777
H	-0.5278775861	 0.6197871529	-1.0494524471	 0.0856
H	 1.778454273	 1.0823392162	-0.1436571399	 0.096029
H	 0.4156797637	 3.5394137706	-1.3893950064	 0.09467
H	 2.7078394115	 4.1335723368	-2.175616185	 0.118547
H	 3.395895689	 2.71341271	-1.2677622747	 0.131105
H	 1.9563970277	 1.1435504122	-2.6357713233	 0.113613
H	 1.2496301126	 2.5584430798	-3.5344256303	 0.118301
H	 0.5488876285	 3.468066231	 1.3797370281	 0.10339
H	 1.6038016887	 2.3821470023	 3.3848656819	 0.120656
H	 2.1571708091	 0.96985083	 2.3463445285	 0.111152
62.5849	72.7756	82.0738	156.2899	177.2337	236.463	334.0861	349.4073	422.6047	464.0991	670.6792	755.1199	806.404	831.2489	872.1552	875.8903	911.4405	933.2182	955.1929	994.9429	1034.133	1062.1105	1081.4861	1097.8813	1137.0385	1150.7686	1162.4632	1171.6209	1181.4035	1197.7904	1226.6255	1268.3172	1280.2207	1293.9147	1401.3711	1413.6577	1455.3312	1473.8392	1505.3219	1531.9778	1824.76	2878.7626	3005.0414	3085.5883	3115.2832	3132.5566	3135.5974	3145.6928	3173.0994	3213.4257	3232.9693
O=CC(C1CC1)C1CO1	O=C[C@@H](C1CC1)[C@H]1CO1	
InChI=1S/C7H10O2/c8-3-6(5-1-2-5)7-4-9-7/h3,5-7H,1-2,4H2	InChI=1S/C7H10O2/c8-3-6(5-1-2-5)7-4-9-7/h3,5-7H,1-2,4H2/t6-,7+/m0/s1
