19
gdb 74442	2.94176	1.56867	1.31772	1.7897	75.98	-0.236	0.0107	0.2467	1051.3755	0.159146	-423.032144	-423.024088	-423.023143	-423.064235	31.755	
C	-0.0255224392	 1.4997917534	 0.0858324903	-0.510254
C	-0.0788214679	 0.0164170805	-0.0332412608	 0.370433
C	-0.0427723824	-0.7928758599	-1.0953023591	-0.273724
C	 0.0425672835	-2.2114791313	-0.5385863648	 0.311932
C	-0.4306856721	-3.3706509196	-1.3762329286	-0.49427
C	 1.4696569211	-2.3122276246	 0.1026278084	-0.098155
O	 1.3738375581	-1.4096164423	 1.2081143235	-0.27574
C	-0.0024686447	-0.9546531389	 1.1498830851	 0.050932
O	-0.7078907798	-2.0787957589	 0.6955074135	-0.256168
H	 0.8778394508	 1.811443374	 0.6250313315	 0.141121
H	-0.0194721111	 1.9829611481	-0.8947858922	 0.128277
H	-0.880797059	 1.8873769762	 0.6533734087	 0.130565
H	 0.0552115462	-0.5315411722	-2.1410225666	 0.09981
H	 0.1856691881	-3.4675998614	-2.2755174587	 0.122913
H	-0.3663471468	-4.3050093356	-0.8113372617	 0.130759
H	-1.4685234394	-3.2211850294	-1.6857389182	 0.13521
H	 1.6596128817	-3.327250746	 0.4703627496	 0.102406
H	 2.2698851499	-2.0075689885	-0.579679842	 0.098743
H	-0.317657867	-0.6301151134	 2.140550342	 0.08521
148.678	178.3212	195.4863	242.1944	278.5153	291.718	376.5227	448.9342	554.8364	562.6709	631.1026	655.9138	773.1667	803.4534	828.1596	858.8415	863.0333	894.6265	932.359	985.325	1009.5086	1015.6119	1061.3054	1111.4349	1115.1952	1163.1347	1168.9273	1218.2975	1258.3413	1281.2041	1316.7078	1331.6569	1371.3067	1410.5875	1418.4075	1479.4883	1482.9018	1487.065	1494.4532	1510.7654	1700.1129	3019.9329	3027.6805	3044.0939	3068.3358	3079.8469	3112.4096	3115.3455	3122.7658	3140.7867	3215.6142
CC1=CC2(C)COC1O2	CC1=C[C@@]2(C)CO[C@@H]1O2	
InChI=1S/C7H10O2/c1-5-3-7(2)4-8-6(5)9-7/h3,6H,4H2,1-2H3	InChI=1S/C7H10O2/c1-5-3-7(2)4-8-6(5)9-7/h3,6H,4H2,1-2H3/t6-,7+/m1/s1
