15
gdb 46131	3.81593	1.0064	0.82762	5.014	67.19	-0.2787	0.0314	0.3102	1312.3115	0.111961	-457.778675	-457.77046	-457.769516	-457.81257	29.33	
O	 0.0117295388	-0.0349406786	-0.1647504175	-0.364966
C	-0.0127278971	 1.1493102251	-0.0816361679	 0.50386
O	-1.1293396556	 1.9130147236	-0.2224475836	-0.240257
C	-0.8268895963	 3.2738926194	 0.0783981825	-0.126537
C	 0.712301577	 3.3187355323	 0.0688351776	 0.102369
C	 1.3182992135	 4.1109689136	 1.2300633751	-0.380422
C	 2.7701988633	 4.2067092278	 1.1697824973	 0.29554
C	 3.9663383391	 4.2872884372	 1.1023215314	-0.415872
O	 1.0677277983	 1.9346542875	 0.1668673275	-0.248717
H	-1.2811639283	 3.9160720944	-0.6783181508	 0.13806
H	-1.241289022	 3.5259936748	 1.0619708914	 0.124792
H	 1.0987356568	 3.6992853192	-0.8827013176	 0.116737
H	 0.8777315102	 5.1173351368	 1.2175027129	 0.141439
H	 1.0040298966	 3.6407470655	 2.1701955111	 0.147954
H	 5.0252569357	 4.3513978712	 1.0512915605	 0.206021
58.6715	76.8531	132.4445	178.4241	288.5074	343.0149	395.9442	482.2513	552.7529	633.1617	659.0239	689.0036	727.2891	774.3463	861.2422	919.4065	944.2263	970.5183	1069.0657	1091.0558	1107.7014	1114.1713	1154.0292	1222.5391	1260.6982	1306.8469	1377.6021	1389.8103	1418.9783	1456.0939	1523.324	1932.651	2247.846	3017.042	3035.5365	3047.8298	3064.9549	3115.0224	3505.1959
O=C1OCC(CC#C)O1	O=C1OC[C@@H](CC#C)O1	
InChI=1S/C6H6O3/c1-2-3-5-4-8-6(7)9-5/h1,5H,3-4H2	InChI=1S/C6H6O3/c1-2-3-5-4-8-6(7)9-5/h1,5H,3-4H2/t5-/m1/s1
