17
gdb 55957	4.26698	0.9837	0.83689	2.4277	68.83	-0.2445	0.0089	0.2534	1317.4502	0.137219	-455.19493	-455.186369	-455.185425	-455.229697	30.782	
N	 0.5032969145	 0.2444146056	-0.8468115371	-0.50896
C	-0.1224687273	 0.1168675964	 0.3571332574	 0.364822
O	 0.1272125385	 0.8238127809	 1.3138442035	-0.355177
C	-1.2083497006	-0.9645366877	 0.4120727692	-0.306739
C	-0.7839569846	-2.3630070695	-0.0319429101	 0.07403
C	-1.8955955599	-3.4413628207	 0.1043247638	-0.198481
N	-2.1716985123	-3.8987766506	-1.2680378069	-0.252429
C	-1.3742216839	-3.2621561132	-2.0128493225	 0.118501
O	-0.5004519955	-2.373693635	-1.4682044779	-0.238665
H	 1.2651176022	 0.8996871449	-0.9111796138	 0.258392
H	 0.3658540772	-0.4343512255	-1.577708159	 0.269152
H	-1.5379093938	-1.0095950989	 1.4528958835	 0.137959
H	-2.0657328014	-0.6483246571	-0.1953932169	 0.12984
H	 0.1432150591	-2.6581623745	 0.4673527775	 0.109609
H	-1.5808212057	-4.2896075262	 0.7198018187	 0.126696
H	-2.8093974411	-3.034250534	 0.5503747108	 0.124409
H	-1.3035267155	-3.353606735	-3.0909531003	 0.147042
32.4983	61.4812	110.1274	177.5989	306.9549	343.8599	356.5104	446.1016	519.6715	559.3349	592.4258	706.0622	746.3623	821.8982	868.2643	882.31	919.6062	958.1241	977.6689	998.1337	1047.6282	1100.2793	1111.2082	1128.7415	1194.4828	1239.9901	1291.6018	1314.4762	1323.3099	1355.334	1368.7836	1391.5477	1457.7128	1499.4613	1620.5665	1718.797	1802.4428	3038.4128	3045.8959	3066.8117	3086.7458	3114.9155	3218.9838	3585.5849	3723.6393
NC(=O)CC1CN=CO1	NC(=O)C[C@H]1CN=CO1	
InChI=1S/C5H8N2O2/c6-5(8)1-4-2-7-3-9-4/h3-4H,1-2H2,(H2,6,8)	InChI=1S/C5H8N2O2/c6-5(8)1-4-2-7-3-9-4/h3-4H,1-2H2,(H2,6,8)/t4-/m0/s1
