16
gdb 29321	3.36117	1.27369	0.93005	2.4227	85.22	-0.1897	-0.0042	0.1855	1216.7041	0.123315	-400.751094	-400.742151	-400.741207	-400.784381	33.372	
C	-0.0468833476	 1.5249190924	-0.0100201763	-0.516559
C	-0.0144682164	 0.0295816769	 0.0000171986	 0.246727
C	-0.0135949431	-0.8230022466	-1.0626346865	-0.132897
O	 0.0044921567	-2.1154267806	-0.6784357306	-0.189187
C	 0.0252974705	-2.1166253001	 0.702974724	 0.205446
C	 0.0539706368	-3.3306267255	 1.3969380126	 0.218146
C	 0.0896916884	-4.3511483864	 2.0414848634	-0.425343
C	 0.0077757152	-0.8175311025	 1.1593759592	 0.000129
N	-0.0605116698	-0.3899037648	 2.479572527	-0.620927
H	 0.8498301959	 1.9566939784	 0.4528546583	 0.123815
H	-0.1034955095	 1.9105761545	-1.0312925632	 0.130663
H	-0.9116279095	 1.9091451662	 0.543305822	 0.138521
H	-0.02726528	-0.6489681782	-2.1271863666	 0.132677
H	 0.1063241283	-5.2551378332	 2.5976173888	 0.18704
H	 0.1782632838	-1.1120888787	 3.14676197	 0.253651
H	 0.4567598103	 0.4585070082	 2.6657641294	 0.248098
107.8102	128.8221	139.1855	230.3635	251.894	280.8616	343.005	387.5232	414.4226	485.3197	514.6113	569.9276	615.5184	664.3172	701.1021	713.8341	738.38	753.5662	768.851	956.118	1011.6331	1065.5136	1148.547	1202.9907	1215.643	1288.2721	1313.9553	1420.1971	1458.3658	1481.8615	1503.3675	1579.1334	1639.892	1675.6827	2210.7326	3019.3335	3068.8931	3113.7024	3263.5905	3502.8175	3541.5635	3637.9225
CC1=COC(C#C)=C1N	Cc1coc(C#C)c1N	
InChI=1S/C7H7NO/c1-3-6-7(8)5(2)4-9-6/h1,4H,8H2,2H3	InChI=1S/C7H7NO/c1-3-6-7(8)5(2)4-9-6/h1,4H,8H2,2H3
