21
gdb 108172	2.46574	1.47831	1.23202	1.1367	83.36	-0.2252	0.0199	0.2451	1141.2348	0.181854	-387.078161	-387.069183	-387.068239	-387.111452	34.435	
C	-0.0173468373	 1.2993028051	-0.2930084218	-0.252509
O	-0.0673329477	-0.0166563347	 0.224589156	-0.284049
C	-1.3380391853	-0.5867117801	 0.1779660241	 0.414569
C	-2.3571955406	-0.152673791	 1.2420291518	-0.339932
C	-3.0429546035	-1.4461944605	 1.6270937594	-0.078858
C	-2.5366399189	-2.4942450649	 0.9704798797	-0.070951
C	-1.4594528397	-2.0877787461	 0.0256666353	-0.185613
C	-1.8338314929	-1.1468832096	-1.132551193	-0.066759
C	-3.2337776837	-0.978997991	-1.675865146	-0.419989
H	 1.0236117994	 1.626424306	-0.2359682115	 0.124648
H	-0.3477254795	 1.3354148466	-1.3411179294	 0.106371
H	-0.6376299285	 1.9952602777	 0.2904133451	 0.107313
H	-1.8314951365	 0.3004020781	 2.0931238816	 0.115251
H	-3.0695368155	 0.5971195686	 0.8745206844	 0.107409
H	-3.8559407502	-1.4831540088	 2.3435032046	 0.093028
H	-2.8652081549	-3.5214554187	 1.0818191518	 0.093971
H	-0.5798377518	-2.7082183013	-0.1057676571	 0.093333
H	-1.0546494469	-1.1303907023	-1.8919034242	 0.08945
H	-3.9877839414	-1.0975192156	-0.8940206457	 0.1252
H	-3.3652711119	 0.0117116037	-2.1257519451	 0.112521
H	-3.4413216824	-1.7244884015	-2.4515481601	 0.115594
99.5692	162.3643	181.4711	188.301	206.9002	213.4882	335.2653	384.9268	411.749	471.006	550.7778	613.0202	709.3077	742.8248	767.9675	830.5181	892.2057	924.5217	953.1513	962.0989	993.2294	1015.3803	1030.0275	1062.0242	1078.5488	1116.8617	1130.3468	1149.9601	1169.7979	1181.6733	1204.933	1239.7953	1257.3541	1308.8693	1332.4729	1375.1765	1407.3733	1429.2233	1470.1413	1482.9713	1490.4174	1496.6926	1499.9534	1507.4301	1665.0026	2986.1328	3016.7332	3029.1004	3036.9637	3046.466	3084.5659	3112.3912	3115.858	3133.7182	3172.1479	3184.6218	3208.8172
COC12CC=CC1C2C	CO[C@]12CC=C[C@H]1[C@H]2C	
InChI=1S/C8H12O/c1-6-7-4-3-5-8(6,7)9-2/h3-4,6-7H,5H2,1-2H3	InChI=1S/C8H12O/c1-6-7-4-3-5-8(6,7)9-2/h3-4,6-7H,5H2,1-2H3/t6-,7+,8+/m1/s1
