20
gdb 54849	2.60337	1.50322	1.36009	3.4201	78.79	-0.2379	0.0174	0.2553	1066.9148	0.171856	-403.175069	-403.166493	-403.165548	-403.208741	32.097	
C	 0.1893551594	 1.3412041101	-0.2060802183	-0.4785
C	 0.1038370209	-0.1750638053	-0.185730263	 0.374051
O	 0.4389254147	-0.8478473542	 0.7671201326	-0.353418
N	-0.4669912325	-0.7313113038	-1.3191632852	-0.07798
C	-0.1253778577	-0.649074511	-2.724760156	-0.050033
C	 1.3146489284	-0.3353033078	-3.1022787994	-0.224996
C	 2.17616644	-1.251362986	-2.1981076663	-0.235532
C	 1.2883031372	-2.4762050372	-1.8678394853	-0.218394
C	-0.1398812837	-1.967404217	-1.9817038072	-0.029113
H	 1.1106291788	 1.651773272	-0.7122208683	 0.140988
H	-0.6530882505	 1.7858254546	-0.7409914993	 0.135329
H	 0.2242737184	 1.7090501598	 0.819897041	 0.146836
H	-0.9289100482	-0.3527721844	-3.3942923231	 0.095312
H	 1.4457103296	-0.5897200386	-4.1611884439	 0.108552
H	 1.5710324585	 0.7239368809	-2.9980821041	 0.106732
H	 3.1116420561	-1.5392238207	-2.6834005803	 0.101512
H	 2.448660851	-0.7322765771	-1.2759082419	 0.126079
H	 1.4274090699	-3.276830839	-2.6035948938	 0.100927
H	 1.5051228051	-2.8860866659	-0.8787782704	 0.134131
H	-0.9547315753	-2.6779857192	-2.090384398	 0.097517
63.7688	102.36	128.4612	154.1728	230.4671	314.2232	412.1631	433.2611	561.3439	604.1077	667.9696	684.2325	728.9131	817.4239	841.7874	883.0125	897.2666	903.9672	969.1593	1006.8771	1015.8745	1039.134	1053.5601	1066.044	1118.286	1123.557	1181.8499	1195.3682	1199.6831	1259.2637	1310.0101	1313.5261	1324.5988	1357.7714	1368.8748	1390.2188	1445.052	1468.9706	1478.1257	1480.793	1493.4803	1513.6051	1777.1735	3035.8123	3043.66	3045.2865	3068.9814	3078.7706	3104.7364	3114.2994	3116.6439	3139.8451	3151.3939	3156.8718
CC(=O)N1C2CCCC12	CC(=O)N1[C@H]2CCC[C@@H]12	
InChI=1S/C7H11NO/c1-5(9)8-6-3-2-4-7(6)8/h6-7H,2-4H2,1H3	InChI=1S/C7H11NO/c1-5(9)8-6-3-2-4-7(6)8/h6-7H,2-4H2,1H3/t6-,7+,8?
