16
gdb 131870	5.65117	0.80448	0.73621	3.6069	67.78	-0.2321	-0.0066	0.2255	1480.5702	0.125267	-471.183646	-471.175313	-471.174368	-471.217919	29.759	
O	-0.0370876566	 1.4216325125	-0.0245739491	-0.419484
C	-0.0160722242	 0.0086976155	 0.0200119379	-0.068048
C	-1.4134389691	-0.5826308077	 0.039804906	-0.079297
O	-2.0318697116	-0.1728139329	-1.1928592527	-0.297536
C	-3.313402918	-0.5320736718	-1.3644089005	 0.412889
C	-4.1196270221	-0.2143923442	-2.4372240294	-0.200717
N	-5.2908328891	-0.8221801712	-2.1179150021	-0.140335
N	-5.2269033688	-1.4641450766	-0.9481184461	-0.123795
N	-4.0136575243	-1.2883117332	-0.4834632329	-0.270397
H	-0.5952340442	 1.6602550969	-0.7729703469	 0.289733
H	 0.5443717549	-0.4149127743	-0.8285824472	 0.095332
H	 0.5045870226	-0.2757627021	 0.9400630607	 0.115777
H	-1.3906406329	-1.6764609672	 0.1022243512	 0.119801
H	-1.9935117225	-0.1968232114	 0.8846347162	 0.129636
H	-3.9641876196	 0.3530080947	-3.3370038692	 0.149585
H	-6.1524538044	-0.8383080471	-2.6399620059	 0.286856
47.2232	62.0059	135.4692	179.3872	288.5202	341.8719	395.8428	470.9792	491.1045	575.6687	685.5279	718.7927	739.2807	755.2414	893.842	904.0816	985.7126	1030.6666	1057.3506	1076.7602	1100.5185	1128.1825	1139.0601	1232.8985	1262.1596	1277.2952	1345.2638	1349.6054	1386.5269	1396.2709	1437.27	1495.5418	1499.4261	1509.5113	1623.9728	2983.5852	3040.0724	3083.3328	3093.8645	3300.4513	3657.5264	3808.1707
OCCOC1=CNN=N1	OCCOc1c[nH]nn1	
InChI=1S/C4H7N3O2/c8-1-2-9-4-3-5-7-6-4/h3,8H,1-2H2,(H,5,6,7)	InChI=1S/C4H7N3O2/c8-1-2-9-4-3-5-7-6-4/h3,8H,1-2H2,(H,5,6,7)
