12
gdb 50789	5.33024	0.63119	0.56623	4.5234	84.57	-0.2754	-0.0843	0.1911	1786.1056	0.074513	-435.450104	-435.441169	-435.440225	-435.485053	30.363	
N	-0.05727229	 1.448447428	-0.115117881	-0.504825
C	 0.0097517735	 0.1814350132	-0.1446701477	 0.145822
O	-1.1167232825	-0.595783741	-0.2564024878	-0.192781
C	-2.3387734332	-0.054946925	 0.093035244	 0.175189
O	-3.3421035855	-0.6577333668	-0.1117777881	-0.244438
C	 1.1918380626	-0.6166541891	-0.0998573343	 0.468721
C	 2.2229858589	-1.2515880218	-0.0598480184	-0.196403
C	 3.3780300905	-1.9629192241	-0.0167642668	 0.293806
C	 4.4057396809	-2.5955482699	 0.0225302097	-0.548092
H	 0.8696120474	 1.858926994	-0.0238139812	 0.250313
H	-2.2429209111	 0.9281964579	 0.5693819229	 0.142711
H	 5.3086093384	-3.1548475053	 0.0553663086	 0.209976
60.2589	65.9286	111.5425	140.8291	209.4017	283.6523	318.374	411.3004	487.7648	522.4859	568.2356	607.1117	628.5645	630.924	734.937	816.2058	862.7678	1023.0607	1049.3797	1076.2384	1150.9693	1348.3303	1403.0043	1682.7481	1877.3963	2182.4777	2346.9172	3082.5025	3498.4307	3525.8741
N=C(OC=O)C#CC#C	[NH][C](OC=O)C#CC#C	
InChI=1S/C6H3NO2/c1-2-3-4-6(7)9-5-8/h1,5,7H	InChI=1S/C6H3NO2/c1-2-3-4-6(7)9-5-8/h1,5,7H
