17
gdb 98559	3.87443	1.08019	0.92195	3.2979	70.4	-0.2662	-0.0424	0.2238	1257.4354	0.134108	-458.937271	-458.928787	-458.927843	-458.970856	31.287	
O	-0.52860676	 1.4964540165	 0.7307670849	-0.42372
C	-0.6902806893	 0.1192368204	 0.8951507171	-0.135044
C	-0.9211350519	-0.5606913129	-0.4459035139	 0.2253
O	-0.8405448529	 0.0818449184	-1.475749415	-0.33923
C	-1.2358516986	-2.0025252305	-0.4627506662	 0.352433
C	-1.2877798804	-2.9682447182	-1.6522567276	-0.300287
C	-2.4484854876	-3.7370692009	-0.9296391136	-0.242082
C	-2.3417927025	-2.7344255091	 0.2259573229	-0.031757
O	-1.0161421331	-2.7728562046	 0.7301379655	-0.272181
H	-0.5118902413	 1.637908045	-0.2294507118	 0.293174
H	 0.1945155695	-0.350195296	 1.3564082876	 0.129977
H	-1.5325294498	-0.1046241979	 1.567406499	 0.119067
H	-1.6114450207	-2.472006144	-2.5676225937	 0.138143
H	-0.3632328429	-3.5189163199	-1.8337921768	 0.120607
H	-3.3959728868	-3.6685487918	-1.4674016934	 0.120868
H	-2.2590853942	-4.7750056634	-0.6485733244	 0.1238
H	-3.1138091475	-2.3562524511	 0.8871834394	 0.120932
71.154	101.394	143.3794	181.1508	300.929	313.5928	359.0756	419.9058	492.9047	503.5248	570.1452	744.017	772.9978	784.8231	852.0007	887.6206	920.2686	935.3581	988.2385	1006.5758	1029.2129	1066.7158	1130.877	1141.2029	1209.0982	1212.815	1226.0409	1236.7518	1269.93	1291.7697	1327.5576	1412.102	1455.6787	1464.8745	1481.0026	1487.2556	1771.2892	2979.7348	3006.8144	3076.7827	3087.5555	3132.0677	3152.7198	3183.8671	3683.8256
OCC(=O)C12CCC1O2	OCC(=O)[C@]12CC[C@H]1O2	
InChI=1S/C6H8O3/c7-3-4(8)6-2-1-5(6)9-6/h5,7H,1-3H2	InChI=1S/C6H8O3/c7-3-4(8)6-2-1-5(6)9-6/h5,7H,1-3H2/t5-,6-/m1/s1
