16
gdb 8859	2.99049	1.4777	1.05501	3.0636	68.88	-0.2708	-0.0724	0.1984	1102.4706	0.127106	-383.722218	-383.713143	-383.712199	-383.756222	32.175	
C	-0.0854605721	 1.5314394282	 0.0649775658	-0.382679
C	-0.0969257056	 0.0087670866	-0.081939091	-0.190269
C	 0.8187561842	-0.4596255616	-1.23100295	 0.036996
O	 2.1423011523	-0.0473199889	-1.0280483111	-0.435808
C	 0.7821264664	-1.9789501094	-1.3835944369	 0.207757
O	 1.796759631	-2.6335680028	-1.2364686052	-0.316905
C	-0.4866067203	-2.5870376884	-1.7119994411	 0.288914
C	-1.548446939	-3.0742764336	-2.0017137202	-0.405704
H	 0.9331692156	 1.8909001678	 0.2289114794	 0.143223
H	-0.4753338302	 2.0176271747	-0.8362267546	 0.114193
H	-0.7042430687	 1.8456075218	 0.9106318674	 0.113222
H	 0.2527303523	-0.4613678628	 0.8452096702	 0.107686
H	-1.114827978	-0.3520372686	-0.2672141115	 0.106826
H	 0.4327413747	-0.0342569942	-2.1742368189	 0.09552
H	 2.6657160478	-0.8637056566	-0.9795014942	 0.295014
H	-2.4805164806	-3.5186344923	-2.2557790781	 0.222014
62.4192	88.8065	133.8136	183.3044	228.6446	266.2896	320.2979	358.7268	405.0148	443.8462	528.8688	605.125	652.9627	692.4738	714.862	778.3997	864.2908	923.4013	1001.3932	1074.1844	1103.9356	1118.4993	1187.0325	1264.4131	1287.693	1341.3683	1371.448	1405.4894	1436.0958	1476.4812	1494.6311	1508.5877	1747.3816	2214.7569	2954.6865	3032.7389	3038.1393	3076.886	3104.8238	3129.635	3492.3084	3678.9166
CCC(O)C(=O)C#C	CC[C@@H](O)C(=O)C#C	
InChI=1S/C6H8O2/c1-3-5(7)6(8)4-2/h1,6,8H,4H2,2H3	InChI=1S/C6H8O2/c1-3-5(7)6(8)4-2/h1,6,8H,4H2,2H3/t6-/m1/s1
