17
gdb 50916	2.97414	0.97643	0.80026	2.1774	73.15	-0.2656	-0.0427	0.223	1398.681	0.134758	-417.994809	-417.985518	-417.984573	-418.030339	32.067	
O	-0.005715711	-0.0418552654	 0.1048485591	-0.22903
C	 0.0126122972	 1.1586878953	 0.0306126989	 0.144777
C	 1.2839982892	 1.9743664375	-0.1120147659	-0.279639
C	 1.2735531691	 2.9246489707	-1.3405403723	-0.187083
C	 0.1738484922	 3.8901407401	-1.2447531791	 0.274239
N	-0.6730987179	 4.6709869085	-1.1466857491	-0.329414
C	 2.6227610601	 3.6318954875	-1.4896223129	 0.017264
C	 2.7672755913	 4.9380644872	-2.1727945826	-0.257182
N	 2.9618863403	 4.8271276387	-0.7135623431	-0.314304
H	-0.9260334922	 1.7542299466	 0.0672325897	 0.105862
H	 1.4134681327	 2.5764931382	 0.7966075838	 0.145274
H	 2.129004393	 1.2864183658	-0.1926652286	 0.13794
H	 1.1055974938	 2.321691833	-2.2430150455	 0.147581
H	 3.4395710774	 2.916646675	-1.5642064195	 0.110557
H	 3.6673453365	 5.1486426723	-2.7423424053	 0.129254
H	 1.868635711	 5.4290659008	-2.5351643143	 0.139421
H	 2.1372620774	 5.1892676183	-0.2370067533	 0.244483
50.7281	69.4078	83.5433	141.9086	176.192	202.6245	306.3258	371.1037	409.2379	491.033	579.9255	636.0333	762.9972	821.0955	834.9354	867.5406	945.8106	977.6847	1007.4332	1020.7461	1079.2929	1101.4233	1132.9487	1151.1588	1190.5117	1208.9545	1259.858	1274.995	1309.9842	1327.0131	1342.5843	1409.4216	1431.7489	1460.9519	1512.4276	1836.1508	2352.9185	2897.9718	3024.9501	3039.9034	3116.1598	3118.4456	3128.5115	3206.7353	3480.7934
O=CCC(C#N)C1CN1	O=CC[C@@H](C#N)[C@H]1CN1	
InChI=1S/C6H8N2O/c7-3-5(1-2-9)6-4-8-6/h2,5-6,8H,1,4H2	InChI=1S/C6H8N2O/c7-3-5(1-2-9)6-4-8-6/h2,5-6,8H,1,4H2/t5-,6+/m0/s1
