15
gdb 48610	2.75559	1.36769	1.07056	2.1355	71.1	-0.252	-0.0592	0.1928	1098.332	0.11256	-416.735906	-416.728157	-416.727213	-416.768869	28.223	
O	-0.7121815562	 0.9128875021	 0.7136784388	-0.232734
C	 0.1064912236	 0.968814987	-0.1687225703	 0.028851
C	 1.3454100135	 1.8083278253	-0.0802559256	 0.210833
C	 1.7658828222	 2.8148548713	 1.0053259824	-0.206771
N	 2.9492187903	 2.907135557	 0.0127694444	-0.140832
C	 2.8369534126	 1.3696042834	-0.0477481722	-0.229996
C	 1.8446628386	 2.9072792326	-1.0741176042	-0.157216
C	 2.2531190244	 2.5505270979	-2.4237286744	 0.28938
N	 2.5463895474	 2.2691683793	-3.5059736689	-0.320846
H	-0.0071258217	 0.3878332226	-1.1109403374	 0.097558
H	 1.1968938667	 3.7419459436	 1.0995707121	 0.123205
H	 2.056612444	 2.4168620544	 1.9776180102	 0.128492
H	 3.1863046259	 0.8761445201	 0.8604794231	 0.128173
H	 3.2732831579	 0.9284368938	-0.9449390686	 0.146698
H	 1.2724256008	 3.8380149397	-1.0902380794	 0.135207
66.0168	106.0122	181.8614	213.525	268.3527	411.6427	462.9215	515.5233	570.9306	610.4257	712.891	783.2176	801.9675	888.8855	897.1366	924.6474	1008.8444	1013.3861	1050.5291	1085.5442	1099.5085	1150.0167	1159.6339	1175.2714	1197.8685	1262.3892	1308.3889	1377.0692	1419.1473	1514.0578	1550.7013	1819.3889	2354.2195	2887.832	3077.8838	3081.2103	3091.1821	3152.714	3155.5129
O=CC12CN(C1)C2C#N	O=C[C@@]12CN(C1)[C@H]2C#N	
InChI=1S/C6H6N2O/c7-1-5-6(4-9)2-8(5)3-6/h4-5H,2-3H2	InChI=1S/C6H6N2O/c7-1-5-6(4-9)2-8(5)3-6/h4-5H,2-3H2/t5-/m0/s1
