14
gdb 5373	5.49586	1.63144	1.26784	2.3294	69.31	-0.2247	-0.0567	0.1679	913.7717	0.109981	-374.938744	-374.931784	-374.93084	-374.970319	24.824	
C	 0.0081680429	 1.4306640805	 0.1251134245	-0.328894
N	 0.1335722828	-0.013150094	 0.0646508407	-0.345977
C	 0.6073134444	-0.5499735615	-0.9827321898	 0.453708
N	 0.7084326961	-1.9660172459	-0.9899384543	-0.310912
C	 1.1947704229	-2.636319228	-2.0438630987	 0.125203
N	 1.6106598169	-2.0641372962	-3.1359062243	-0.291242
C	 1.5015491325	-0.6884590517	-3.1040468255	 0.07318
N	 1.05200998	 0.0640855439	-2.1518198232	-0.291286
H	 0.5792186765	 1.8062688376	 0.9828375538	 0.11884
H	 0.3495535546	 1.9442075795	-0.7797691721	 0.13264
H	-1.0407360958	 1.693834684	 0.307888819	 0.118839
H	 0.392450788	-2.4376411213	-0.1535909862	 0.274648
H	 1.231365129	-3.7198997305	-1.9508789315	 0.144563
H	 1.844258729	-0.1890643064	-4.0092541425	 0.12669
82.8291	112.2513	240.36	240.8517	368.0273	474.0805	482.7286	599.2294	688.1763	715.8888	786.9243	816.3926	975.1075	979.7808	1034.9085	1066.5443	1102.3588	1126.7333	1136.3401	1187.5324	1249.0756	1395.4514	1423.4857	1436.6464	1480.0797	1497.1987	1497.315	1563.9656	1670.7312	1760.9295	3014.0562	3064.8866	3093.0791	3147.4519	3161.6517	3603.186
CN=C1NC=NC=N1	C[N]C1=NC=NCN1	
InChI=1S/C4H6N4/c1-5-4-7-2-6-3-8-4/h2-3H,1H3,(H,5,6,7,8)	InChI=1S/C4H7N4/c1-5-4-7-2-6-3-8-4/h2H,3H2,1H3,(H,6,7,8)
