16
gdb 66282	2.08956	1.6739	1.43078	2.5364	71.23	-0.267	0.0025	0.2694	1007.2955	0.123682	-437.864433	-437.85608	-437.855136	-437.897186	31.845	
O	 0.2713977961	 1.5153563967	 0.2807492055	-0.457618
C	 0.0269871735	 0.1556958676	 0.0254662704	 0.142372
C	-1.4585069374	-0.1383995961	-0.2645018888	-0.270347
C	-1.3582211867	-1.3565280581	-1.1868746061	-0.098652
O	-0.1313395786	-1.170167087	-1.9355938367	-0.235068
C	 0.6598609945	-0.27496738	-1.30582726	 0.389033
N	 1.7453060524	 0.2166886575	-1.7143166778	-0.562549
C	 0.5352047238	-0.710310262	 1.1021435517	 0.344849
C	 0.9324785806	-1.4255894584	 1.9825102048	-0.508183
H	 1.1402306507	 1.697348691	-0.1105054457	 0.297223
H	-2.0464375593	-0.3283509179	 0.6333132743	 0.129491
H	-1.870547419	 0.7249591408	-0.7940822306	 0.130289
H	-1.2820919718	-2.2930786443	-0.6249695527	 0.132065
H	-2.1729724659	-1.4346479396	-1.9085156432	 0.129394
H	 2.0183345435	-0.1404456606	-2.6292987435	 0.233384
H	 1.3015349536	-2.0445126196	 2.7630846084	 0.204316
95.9689	135.6764	176.1809	223.2875	273.6605	353.7036	409.3778	431.0355	483.6986	562.5115	634.9035	643.5904	661.7808	675.6936	678.2812	733.9379	851.6484	870.1142	937.046	966.2755	999.6188	1050.2653	1099.1777	1141.2023	1168.727	1229.332	1242.9922	1279.2999	1327.3682	1408.0387	1415.3885	1485.7783	1518.1293	1785.6411	2229.5321	3056.7974	3075.8139	3122.3484	3146.9393	3499.1847	3500.1434	3709.9534
OC1(CCOC1=N)C#C	O[C@]1(CCO[C]1[NH])C#C	
InChI=1S/C6H7NO2/c1-2-6(8)3-4-9-5(6)7/h1,7-8H,3-4H2	InChI=1S/C6H7NO2/c1-2-6(8)3-4-9-5(6)7/h1,7-8H,3-4H2/t6-/m0/s1
