22
gdb 9755	3.08414	1.58501	1.44988	0.1472	83.02	-0.2347	0.0278	0.2625	1034.0367	0.200582	-313.092383	-313.083666	-313.082722	-313.12525	33.57	
C	 0.1239710868	 1.4366689143	 0.2708151362	-0.396186
C	-0.1292055823	-0.0634412732	 0.0863470496	-0.194388
C	-1.6056797326	-0.4827330747	-0.1546781004	 0.28436
C	-2.1154352074	 0.0687119702	-1.4964556534	-0.439087
C	-1.7299669601	-2.0385014269	-0.0920828245	-0.251934
C	-2.2115603718	-2.3836431401	 1.3398047749	-0.257127
C	-2.8020577653	-1.0777256488	 1.8157212171	-0.079301
C	-2.4858247172	-0.06430026	 1.0129088373	-0.084006
H	 1.1881687196	 1.6277251365	 0.4418661674	 0.111108
H	-0.1732511596	 2.0153910091	-0.6094209221	 0.115678
H	-0.4225277048	 1.8334218382	 1.1323647935	 0.116852
H	 0.470844013	-0.4296026983	-0.7578800018	 0.08842
H	 0.2351942397	-0.5944388519	 0.9747658362	 0.092901
H	-1.5059343858	-0.3031843826	-2.3283738078	 0.108632
H	-3.1508786323	-0.2391034582	-1.673261867	 0.11156
H	-2.0876200435	 1.1625630813	-1.5277645807	 0.111368
H	-2.4838634519	-2.3684731624	-0.814489514	 0.09426
H	-0.7923702312	-2.5362254195	-0.3569907778	 0.089726
H	-2.9351920723	-3.2068190731	 1.3488218716	 0.100031
H	-1.3856813472	-2.6998834263	 1.9924028207	 0.103858
H	-3.3882972656	-0.9963421532	 2.7251235262	 0.087695
H	-2.7850318883	 0.9674167296	 1.1666716688	 0.085578
80.0994	110.6178	208.4703	227.1425	242.6024	286.9996	341.2182	355.1897	415.9756	510.7806	601.0021	691.8102	762.3184	782.0433	795.0997	847.0068	890.7676	914.6081	950.6887	978.049	989.6426	1014.5309	1022.7876	1032.7022	1073.759	1124.307	1130.1554	1202.3225	1207.9092	1220.3063	1260.3212	1308.9694	1320.8805	1329.6363	1364.0822	1388.04	1407.204	1414.1938	1477.6916	1484.1117	1494.9276	1496.1494	1500.501	1507.5373	1509.2081	1686.877	3008.2807	3009.5002	3026.0153	3037.1966	3040.4681	3046.7881	3054.4391	3088.1731	3092.4475	3099.5599	3102.464	3108.3741	3172.1849	3198.3604
CCC1(C)CCC=C1	CC[C@@]1(C)CCC=C1	
InChI=1S/C8H14/c1-3-8(2)6-4-5-7-8/h4,6H,3,5,7H2,1-2H3	InChI=1S/C8H14/c1-3-8(2)6-4-5-7-8/h4,6H,3,5,7H2,1-2H3/t8-/m1/s1
