15
gdb 43816	2.0863	1.7526	1.06769	3.8582	71.77	-0.2665	-0.0004	0.2661	1101.5514	0.110594	-420.59588	-420.587792	-420.586848	-420.628746	30.362	
O	-0.2536259144	 0.1327410296	 0.4537228116	-0.312683
C	-0.1056776832	 1.2363321123	 0.0499374734	 0.459434
O	-1.0059048605	 2.0291002548	-0.6116374253	-0.258926
C	-0.0730468206	 3.1375555798	-0.6684001451	 0.471724
C	-0.0409418248	 4.0774242337	-1.8159528213	-0.338515
C	-0.5080951772	 4.5341473398	-0.4349109233	-0.331468
C	 1.0247603448	 2.3019759007	 0.0009409901	-0.498993
C	 1.5873217635	 2.7548429719	 1.2517458275	 0.347557
C	 2.0461329328	 3.1485031433	 2.2899413066	-0.442764
H	 0.9238469652	 4.41535448	-2.179350721	 0.130847
H	-0.7985136475	 3.9510439158	-2.5815621068	 0.140042
H	-1.5697187166	 4.7083610929	-0.300291826	 0.140093
H	 0.1424816786	 5.1718974486	 0.1539389993	 0.138065
H	 1.8060920366	 1.9890413848	-0.7001838223	 0.146603
H	 2.4512251234	 3.482616282	 3.2132783025	 0.208985
92.0736	115.0416	148.1725	249.3485	284.6063	383.6139	415.8646	488.5584	520.7003	575.2983	631.2851	656.5291	695.1477	760.588	807.9799	874.866	879.4096	920.2616	967.4448	1025.9855	1054.0819	1064.8461	1081.7299	1095.1238	1166.1954	1183.1926	1263.1264	1314.2876	1389.8873	1450.6296	1505.0192	1953.8862	2244.0629	3058.3523	3135.0395	3138.2812	3219.8922	3233.1938	3501.5899
O=C1OC2(CC2)C1C#C	O=C1OC2(CC2)[C@H]1C#C	
InChI=1S/C7H6O2/c1-2-5-6(8)9-7(5)3-4-7/h1,5H,3-4H2	InChI=1S/C7H6O2/c1-2-5-6(8)9-7(5)3-4-7/h1,5H,3-4H2/t5-/m0/s1
