13
gdb 42745	2.58809	2.02996	1.51739	4.1724	62.88	-0.2226	-0.0809	0.1417	855.3137	0.089949	-456.567587	-456.561089	-456.560145	-456.598554	25.139	
O	-0.0112827879	-0.0003024568	 0.0155139007	-0.290595
C	-0.0472979345	 1.1958225694	 0.023684353	 0.340146
C	-1.2422905651	 2.1667372371	 0.0220104945	-0.099704
O	-0.6943690586	 3.2059414335	-0.8124333283	-0.242373
C	 0.4396672715	 3.5517995721	 0.0065920859	-0.099707
C	-0.1804144795	 3.6568193034	 1.4006312339	-0.087049
C	-1.2112202738	 2.8079625739	 1.4100828882	-0.087051
C	 1.1633848783	 2.1927985564	 0.0125837348	 0.340147
O	 2.330247717	 1.9279039706	-0.0059000039	-0.290594
H	-2.1828345778	 1.7866269829	-0.3697203627	 0.117907
H	 0.9887684392	 4.3983852867	-0.3987969876	 0.117907
H	 0.2176044275	 4.2484219733	 2.2123988691	 0.140482
H	-1.8592543762	 2.5381502076	 2.2314431723	 0.140482
115.156	186.6064	292.9193	406.9356	451.1493	480.044	549.2982	671.9335	677.1204	758.9726	764.1741	781.5729	849.5246	910.4472	912.8377	946.9399	960.0064	1024.4383	1043.1395	1065.6343	1159.3838	1200.0922	1218.3586	1246.7794	1311.7774	1314.4406	1624.8219	1874.647	1877.9849	3156.022	3157.9599	3234.2116	3257.6524
O=C1C2OC(C=C2)C1=O	O=C1[C@@H]2O[C@@H](C=C2)C1=O	
InChI=1S/C6H4O3/c7-5-3-1-2-4(9-3)6(5)8/h1-4H	InChI=1S/C6H4O3/c7-5-3-1-2-4(9-3)6(5)8/h1-4H/t3-,4+
