19
gdb 78050	3.02439	1.15639	1.08779	2.6207	71.64	-0.2451	0.0597	0.3048	1193.0827	0.157289	-460.117382	-460.108272	-460.107328	-460.15047	35.501	
C	-0.0337538363	 1.5440039194	 0.0094073597	-0.464165
C	 0.0868660527	 0.0361494981	 0.0634732401	 0.395218
O	-1.0608622747	-0.6193346955	-0.427627222	-0.470099
C	 1.355807187	-0.7436831733	-0.1927047715	-0.137756
C	 0.67553865	-0.7513341136	 1.1934699428	-0.142636
C	 1.8929776545	-0.0450746886	 1.8132258014	 0.098945
O	 2.6029524015	-0.7977749349	 2.7595028717	-0.439959
C	 2.5870835372	-0.054957756	 0.3846796936	 0.041635
O	 3.6843462192	-0.9542531056	 0.3528592961	-0.433243
H	 0.8367368648	 2.0558914418	 0.4259364512	 0.124488
H	-0.1451802833	 1.8800620193	-1.0290958137	 0.108069
H	-0.9196714365	 1.8670327874	 0.5647470401	 0.131289
H	-1.1258805324	-0.428870927	-1.3702721942	 0.280844
H	 1.3904489298	-1.5171849812	-0.9507337037	 0.093479
H	 0.1014980476	-1.5336971699	 1.6748711117	 0.100265
H	 1.704952204	 0.9327619152	 2.2673980124	 0.07828
H	 3.0315996677	-1.5086453139	 2.261020561	 0.279657
H	 2.8736312996	 0.9139093973	-0.0462915142	 0.063926
H	 4.4382743676	-0.5078940189	 0.7545117476	 0.291764
124.6411	182.1286	206.6449	223.7756	258.015	292.4176	306.9011	319.0504	348.7835	449.0641	484.0306	487.8193	569.6524	599.672	694.0539	791.9844	864.6023	875.477	917.5424	947.4889	960.8213	997.4738	1036.9596	1045.0943	1082.1533	1096.4609	1115.3649	1181.0755	1199.483	1225.2527	1238.0841	1269.284	1286.4545	1314.3907	1323.311	1415.2388	1424.8365	1434.0374	1452.3804	1489.161	1502.1158	3002.6774	3027.3667	3058.9657	3092.1653	3124.3368	3182.5454	3194.8794	3728.9001	3792.1286	3804.6409
CC1(O)C2C1C(O)C2O	C[C@@]1(O)[C@@H]2[C@H]1[C@@H](O)[C@H]2O	
InChI=1S/C6H10O3/c1-6(9)2-3(6)5(8)4(2)7/h2-5,7-9H,1H3	InChI=1S/C6H10O3/c1-6(9)2-3(6)5(8)4(2)7/h2-5,7-9H,1H3/t2-,3+,4+,5-,6-
