19
gdb 50075	3.24614	0.9334	0.78187	2.8807	77.23	-0.2511	-0.0239	0.2272	1442.2327	0.158525	-422.995909	-422.987054	-422.98611	-423.031045	31.587	
O	-0.0286357738	 0.0262585128	-0.6280278589	-0.267548
C	 0.0211080611	 1.1471288593	-0.18417171	 0.162444
C	 1.2735876151	 1.9096643638	 0.013896222	-0.110222
C	 1.2442056727	 3.4265492935	-0.1327779352	-0.317603
C	 1.4658661487	 2.8379749256	 1.22052736	-0.01585
C	 0.4494214175	 2.9684863285	 2.3233555266	-0.04631
C	 0.5360908872	 1.9836715871	 3.5152689238	-0.084797
O	 0.6504739786	 3.0661388043	 4.4604013193	-0.268522
C	 0.7181533911	 4.0440470063	 3.4057639569	-0.08891
H	-0.9108683556	 1.6916708723	 0.0942495859	 0.06613
H	 2.1561461856	 1.3858588065	-0.3366175776	 0.110893
H	 2.0702268239	 3.888762457	-0.6603700549	 0.132095
H	 0.2759826068	 3.8766521458	-0.3320070805	 0.125806
H	 2.4933132149	 2.846952215	 1.5779092317	 0.104122
H	-0.5621256489	 3.0417782756	 1.9189223039	 0.083594
H	-0.3461529016	 1.3615100031	 3.7040029682	 0.109062
H	 1.4287752438	 1.3432177821	 3.5119108633	 0.102058
H	 1.7092469556	 4.5152692747	 3.341896135	 0.097962
H	-0.0398957626	 4.8276687768	 3.5187360704	 0.105596
48.0378	55.504	97.6599	157.4556	217.0183	292.53	328.9641	393.4094	436.0549	551.0441	722.1834	828.5545	844.5113	868.8261	894.7748	898.1347	962.1626	983.1306	1024.4398	1040.5201	1047.8245	1049.0213	1076.2763	1095.8537	1138.7362	1158.4655	1161.2666	1189.4606	1196.2913	1249.9836	1262.2738	1309.1337	1309.9145	1344.2668	1380.7975	1432.8573	1454.9053	1488.5493	1511.9896	1537.5971	1816.5004	2858.4534	2996.9567	3009.821	3052.5046	3057.4605	3088.5429	3130.5023	3133.4243	3178.6852	3221.1697
O=CC1CC1C1COC1	O=C[C@H]1C[C@H]1C1COC1	
InChI=1S/C7H10O2/c8-2-5-1-7(5)6-3-9-4-6/h2,5-7H,1,3-4H2	InChI=1S/C7H10O2/c8-2-5-1-7(5)6-3-9-4-6/h2,5-7H,1,3-4H2/t5-,7-/m1/s1
