15
gdb 17517	4.81823	1.78431	1.60089	2.6219	65.14	-0.2464	-0.0377	0.2087	805.8826	0.119404	-362.596312	-362.589911	-362.588967	-362.627092	24.444	
O	-0.1064184312	-0.0279782331	 0.0490539452	-0.245422
C	-0.0412332675	 1.1768526972	 0.0156471797	 0.032621
C	 1.2317078695	 1.9424029859	-0.0438717443	 0.210596
C	 1.5543343757	 3.0425741151	 1.018333977	-0.290619
C	 2.4350542056	 3.6706553058	-0.0577903514	-0.031099
C	 1.6914924558	 2.9998991376	-1.1468293588	-0.100103
N	 3.0905528531	 2.5893176752	-0.8801220092	-0.140705
C	 2.6056130063	 1.3007490027	-0.2788261745	-0.188834
H	-0.9638348479	 1.8024443903	 0.0231343882	 0.073621
H	 0.6879328006	 3.6758598367	 1.2273847706	 0.11606
H	 2.003598439	 2.6982951984	 1.955383799	 0.111369
H	 2.9306055852	 4.6320652136	-0.0530471828	 0.108311
H	 1.3021365059	 3.3072503069	-2.1083185086	 0.109542
H	 3.1674161574	 0.9476260422	 0.5921077972	 0.107373
H	 2.5938710625	 0.5332169554	-1.0546174472	 0.12729
77.7127	182.4202	271.7647	427.7964	445.9123	457.7728	704.9139	713.7502	770.6783	791.4652	844.5954	856.7083	938.6022	973.7249	980.9895	989.7139	1019.1921	1039.9205	1077.5782	1119.0154	1140.4249	1157.4718	1169.285	1211.3838	1249.3486	1267.3012	1331.4671	1343.0234	1426.214	1491.4377	1514.7201	1811.2169	2862.286	3046.5331	3053.7465	3108.5601	3126.8322	3200.707	3215.9836
O=CC12CC3C1N3C2	O=C[C@]12C[C@@H]3[C@H]1N3C2	
InChI=1S/C6H7NO/c8-3-6-1-4-5(6)7(4)2-6/h3-5H,1-2H2	InChI=1S/C6H7NO/c8-3-6-1-4-5(6)7(4)2-6/h3-5H,1-2H2/t4-,5-,6-,7?/m1/s1
