15
gdb 123889	4.55119	1.28861	1.0432	2.4114	76.9	-0.2301	-0.0651	0.165	1099.4457	0.11471	-412.968737	-412.961674	-412.96073	-413.000768	26.155	
C	-0.2127230922	 1.1901090492	-0.4207731985	-0.218995
C	 1.2042668922	 1.120576374	 0.0656228404	-0.2144
N	 0.3153987921	-0.0152884811	 0.1859027576	-0.089323
C	-0.1208590981	-0.5041140496	 1.3985187086	 0.424791
N	-1.4354992266	-0.7572121717	 1.5236737299	-0.279245
C	-1.7782768826	-1.3235951574	 2.6686451024	-0.004828
C	-0.825144507	-1.6138954273	 3.6449755675	-0.001278
N	 0.4567701972	-1.3014971152	 3.4656594706	-0.161003
N	 0.8249366753	-0.7335344646	 2.3287213672	-0.246183
H	-0.9225730829	 1.771174193	 0.1619390351	 0.133917
H	-0.431671514	 1.1244854423	-1.4821178933	 0.131445
H	 2.019141098	 1.0056900797	-0.6424617223	 0.132139
H	 1.4569291568	 1.6510563267	 0.9792869886	 0.140569
H	-2.8326785138	-1.5453491822	 2.8206217288	 0.127172
H	-1.0817644544	-2.0831814358	 4.5880717172	 0.125221
80.842	120.8722	201.4152	252.2576	397.8286	497.5382	522.0258	580.8568	647.7279	780.8924	808.7276	839.1847	883.6764	947.116	968.081	1003.6087	1032.1216	1039.7042	1085.0183	1130.6003	1134.9452	1142.5243	1163.6504	1172.9231	1190.8108	1251.9336	1363.599	1431.4298	1498.5103	1498.9985	1526.7519	1559.6111	1592.0563	3116.5251	3121.5317	3151.1194	3199.3617	3200.8768	3214.4467
C1CN1C1=NC=CN=N1	C1CN1c1nccnn1	
InChI=1S/C5H6N4/c1-2-7-8-5(6-1)9-3-4-9/h1-2H,3-4H2	InChI=1S/C5H6N4/c1-2-7-8-5(6-1)9-3-4-9/h1-2H,3-4H2
