18
gdb 110078	1.73797	1.49088	1.0135	2.6954	80.78	-0.2416	-0.0373	0.2043	1251.5174	0.144216	-401.88866	-401.878965	-401.878021	-401.923606	34.887	
C	 0.9727509174	 0.9954503517	 0.755040579	-0.383111
C	-0.1003539828	 0.3539712663	-0.1186286609	-0.134174
N	 0.5179340416	-0.4089938836	-1.2098508427	-0.097577
C	 1.0822620791	-1.7430786134	-0.9821731454	-0.117891
C	 1.0011478905	-2.4541049024	 0.324446459	 0.155617
O	 1.878270512	-3.1847455642	 0.717321594	-0.264892
C	-0.1814056336	-1.5356743253	-1.8064531978	-0.215467
C	-1.4648409676	-1.984580908	-1.3329728782	 0.342737
C	-2.5608215536	-2.3398968501	-0.9876139348	-0.450213
H	 1.5710593783	 0.2394220042	 1.2743755503	 0.129449
H	 1.6500574238	 1.6046530899	 0.1503212037	 0.133774
H	 0.510917591	 1.6351038513	 1.5126547336	 0.121673
H	-0.793226326	-0.2412733614	 0.4901038238	 0.10997
H	-0.7029387359	 1.1306269863	-0.6026917101	 0.117117
H	 2.0079541453	-1.9430267498	-1.5168552725	 0.118361
H	 0.0833912431	-2.2809706709	 0.9206780093	 0.094858
H	-0.0565214094	-1.6097785371	-2.8853530037	 0.131056
H	-3.5237107533	-2.6644614434	-0.6776536066	 0.208713
65.8337	90.1838	112.6415	153.2546	201.305	248.7869	273.4798	309.9022	369.4679	426.5888	498.2079	573.608	618.1011	632.7604	672.7824	704.8493	812.7939	831.7904	915.2786	959.7122	1017.1701	1023.8652	1065.4119	1110.5822	1137.0582	1159.6156	1181.6149	1294.8707	1309.1152	1329.4314	1362.3698	1384.174	1414.6934	1441.2573	1489.8118	1497.8368	1518.8011	1807.2148	2231.8408	2933.6675	3020.7245	3041.5305	3061.7855	3110.7131	3119.4263	3123.6887	3144.6958	3499.314
CCN1C(C=O)C1C#C	CCN1[C@@H](C=O)[C@H]1C#C	
InChI=1S/C7H9NO/c1-3-6-7(5-9)8(6)4-2/h1,5-7H,4H2,2H3	InChI=1S/C7H9NO/c1-3-6-7(5-9)8(6)4-2/h1,5-7H,4H2,2H3/t6-,7+,8?/m1/s1
