23
gdb 89221	2.86159	1.53376	1.21798	0.2351	88.49	-0.2443	0.0896	0.3339	1140.5737	0.20755	-351.149787	-351.141584	-351.14064	-351.18177	33.924	
C	-0.174991983	 1.5587104273	 0.0164051343	-0.411854
C	 0.0406681025	 0.0459731517	 0.000749831	 0.056329
C	 0.8687663708	-0.4875037001	-1.2015078707	-0.311105
C	 1.6206934107	-1.7023029431	-0.6460469802	 0.372557
C	 1.9290003727	-2.8556299666	-1.5709287499	-0.494352
C	 2.6091514708	-1.4526483624	 0.4882710419	-0.096991
C	 2.3134804379	-0.136265668	 1.2043338284	-0.250828
C	 0.7965094582	-0.5301483134	 1.2120622134	-0.051968
C	 1.2057105569	-1.9646543712	 0.7796115866	-0.125733
H	 0.7777075237	 2.0979151809	 0.0563503161	 0.114801
H	-0.7045020605	 1.8918849901	-0.8826364085	 0.111604
H	-0.7691695797	 1.8670377609	 0.8837051874	 0.108555
H	-0.9427372917	-0.4438639189	-0.0243495036	 0.0657
H	 0.223606172	-0.7749609842	-2.0389187549	 0.089445
H	 1.5564238121	 0.2775005714	-1.5837448218	 0.091377
H	 2.5957837316	-2.5470385597	-2.3848949736	 0.115359
H	 2.4195173276	-3.675909741	-1.0362063812	 0.113395
H	 1.0147327893	-3.2541251027	-2.0263171631	 0.112566
H	 3.5466461511	-1.9977412284	 0.5231951483	 0.072604
H	 2.7275226265	-0.1329163495	 2.2161329725	 0.097585
H	 2.5974132055	 0.799280169	 0.7087503895	 0.086277
H	 0.2803719978	-0.4031018827	 2.1647229587	 0.059553
H	 0.8672324771	-2.9135443997	 1.1761199793	 0.075123
149.3906	223.7966	230.246	233.9004	274.4119	304.7474	374.1447	429.7288	477.6247	558.4165	570.6073	703.8488	761.5372	799.3328	846.071	857.9006	891.8999	910.5456	929.1563	949.8969	955.9241	988.1315	1002.7771	1033.1035	1047.8566	1069.7504	1088.5655	1108.6044	1141.2818	1149.4409	1173.2792	1212.8219	1219.8158	1249.3798	1258.993	1277.2646	1307.8832	1321.9939	1347.3375	1368.5864	1408.7649	1413.9709	1418.627	1490.1517	1492.5134	1497.3914	1498.5782	1501.6594	1512.2782	3002.0718	3018.6896	3022.8482	3027.8323	3035.5104	3063.6985	3077.2688	3087.7079	3092.4246	3092.9913	3097.5544	3102.2383	3159.1632	3190.0468
CC1CC2(C)C3CC1C23	C[C@H]1C[C@@]2(C)[C@H]3C[C@@H]1[C@@H]23	
InChI=1S/C9H14/c1-5-4-9(2)7-3-6(5)8(7)9/h5-8H,3-4H2,1-2H3	InChI=1S/C9H14/c1-5-4-9(2)7-3-6(5)8(7)9/h5-8H,3-4H2,1-2H3/t5-,6-,7-,8+,9-/m0/s1
