20
gdb 11374	5.35336	1.12393	0.9686	1.4814	77.52	-0.2225	0.0369	0.2594	1235.5521	0.176944	-349.019453	-349.010747	-349.009803	-349.052781	32.156	
C	-0.0181868267	 1.5427172574	 0.0415539953	-0.403337
C	 0.0952278977	 0.0197875216	 0.0105095572	 0.052933
C	 0.890926086	-0.5493694585	-1.1958121665	-0.264566
C	 1.5375739551	-1.7916217928	-0.6339125365	-0.1552
C	 1.4811579262	-1.8257116932	 0.6978054065	 0.317752
C	 2.0510352631	-2.8700791127	 1.6000344915	-0.179266
O	 2.7050296471	-3.8682903911	 0.8370601892	-0.414002
C	 0.7844428932	-0.6022272582	 1.2545054202	-0.318473
H	 0.9724419209	 2.0088759733	 0.099723598	 0.111754
H	-0.511970924	 1.9235490483	-0.8590730866	 0.11139
H	-0.5973915103	 1.8843853452	 0.9064724118	 0.109608
H	-0.9158596576	-0.4030270345	-0.0423111347	 0.074906
H	 0.2468285486	-0.7484595961	-2.0606018687	 0.096847
H	 1.6542470808	 0.1643610326	-1.5431505779	 0.097364
H	 2.0252037971	-2.541776426	-1.2436334072	 0.101983
H	 2.7454643039	-2.3909341757	 2.3145785316	 0.090977
H	 1.2382837099	-3.3016962199	 2.2123709589	 0.091409
H	 3.0379087773	-4.5361866161	 1.4426849897	 0.288058
H	 1.5178608062	 0.0918940051	 1.6944863472	 0.096741
H	 0.0700041953	-0.8359810487	 2.0541288412	 0.093122
62.7657	111.6085	179.1513	213.7714	240.1183	253.8502	306.7182	394.474	436.6654	454.1701	588.0839	672.9421	821.2852	835.5054	883.9343	905.4037	938.833	949.8556	1000.4204	1027.9459	1065.4127	1077.8245	1109.8884	1142.4214	1150.6009	1195.912	1215.4728	1233.5875	1255.505	1287.0987	1303.4258	1325.7784	1352.5753	1373.2341	1411.4873	1467.5393	1486.8717	1493.1552	1498.5073	1500.6267	1507.593	1728.0452	2931.479	2941.7272	2984.0919	2985.8139	3016.3238	3023.8727	3038.0304	3048.88	3090.4124	3092.704	3216.5725	3839.4545
CC1CC=C(CO)C1	C[C@H]1CC=C(CO)C1	
InChI=1S/C7H12O/c1-6-2-3-7(4-6)5-8/h3,6,8H,2,4-5H2,1H3	InChI=1S/C7H12O/c1-6-2-3-7(4-6)5-8/h3,6,8H,2,4-5H2,1H3/t6-/m0/s1
