18
gdb 107235	3.00595	1.42106	1.11236	3.2385	71.45	-0.2215	0.0544	0.2759	1112.5701	0.145945	-438.980374	-438.971954	-438.97101	-439.013105	32.528	
C	-0.0711330916	 1.5737827374	 0.2240388289	-0.514581
C	 0.0848153447	 0.0957929917	 0.0512973662	 0.246373
N	-0.8397644017	-0.9036095388	 0.6327823384	-0.350345
C	 0.6120762476	-0.9615586686	 0.9466868349	-0.16155
C	 1.3387591396	-1.6375775468	-0.2658730112	-0.059735
O	 0.3621868508	-1.9689552935	-1.2667941867	-0.275137
C	 0.8182886432	-0.6116755615	-1.1655507993	 0.371671
C	 1.3707144622	-0.0011179323	-2.42024525	-0.182026
O	 2.1661687567	-0.9265566918	-3.1271847875	-0.41406
H	 0.8540550928	 2.1042806318	-0.0267514039	 0.129781
H	-0.8675232405	 1.9700753721	-0.4166639859	 0.135003
H	-0.3221377953	 1.8186351769	 1.2617730691	 0.122901
H	-1.285236879	-0.4496329749	 1.4321736295	 0.226922
H	 0.9857061271	-0.8966922377	 1.9602821997	 0.099374
H	 2.2721280624	-2.1863399831	-0.2615489615	 0.116953
H	 0.5351059023	 0.3741906212	-3.0363690275	 0.099601
H	 2.0043625757	 0.8592829324	-2.1760504591	 0.114808
H	 1.680092623	-1.7612115944	-3.101621454	 0.294048
110.3626	152.0373	177.3413	213.9815	267.5283	307.786	400.7361	430.7999	452.3671	494.3252	561.595	679.2533	697.7182	793.4991	810.5238	833.8702	866.3741	895.6694	934.7521	990.038	1000.1054	1024.668	1062.0746	1076.3546	1102.0946	1108.1096	1137.1814	1211.5619	1233.5423	1275.3202	1319.4458	1365.0346	1404.5003	1426.8707	1444.5467	1467.2373	1483.2691	1498.583	1507.5139	2955.6684	3023.84	3059.0815	3085.9593	3095.5942	3196.3111	3205.7829	3453.2054	3768.5807
CC12NC1C1OC21CO	C[C@]12N[C@H]1[C@H]1O[C@@]21CO	
InChI=1S/C6H9NO2/c1-5-3(7-5)4-6(5,2-8)9-4/h3-4,7-8H,2H2,1H3	InChI=1S/C6H9NO2/c1-5-3(7-5)4-6(5,2-8)9-4/h3-4,7-8H,2H2,1H3/t3-,4+,5-,6+/m0/s1
