18
gdb 19161	3.23448	1.59146	1.28209	0.7657	67.65	-0.2628	0.0674	0.3302	994.7754	0.153067	-384.892884	-384.884639	-384.883695	-384.925739	30.602	
O	 0.0810048273	 1.4356447786	 0.026866721	-0.417069
C	-0.0256023349	 0.028603727	 0.1742677432	-0.17885
C	-1.4577431327	-0.4921837719	 0.0837893091	 0.33286
C	-2.548439473	 0.2703380834	 0.796486047	-0.301181
C	-2.4812508382	 0.2936686053	-0.7082199919	-0.306403
C	-1.6009930597	-1.982627073	 0.0404224005	 0.021851
O	-0.7485720523	-2.7117074969	-0.8529087162	-0.242619
C	-0.6051614154	-2.935092967	 0.5528322945	-0.196699
H	 0.0377245659	 1.6382809564	-0.9120693173	 0.288714
H	 0.5934821105	-0.5006863684	-0.5626910291	 0.112622
H	 0.3795827735	-0.1921194857	 1.1683726345	 0.110732
H	-3.3459628927	-0.2899528744	 1.2733562717	 0.109695
H	-2.2468431937	 1.172134191	 1.3168974847	 0.12944
H	-2.1677370397	 1.220822145	-1.1734705552	 0.103408
H	-3.2208232281	-0.2636243249	-1.272974334	 0.114985
H	-2.638841086	-2.3227481499	 0.0200085997	 0.087414
H	 0.3256522058	-2.577633716	 0.9886991796	 0.116163
H	-0.9303236765	-3.9126003786	 0.9073034182	 0.114936
76.9836	94.2097	197.4263	227.2194	266.6646	322.0016	335.0281	388.0251	507.9257	545.7514	691.948	782.7916	839.0951	848.1021	863.0369	933.6979	970.8613	995.556	1025.5579	1037.9726	1063.9945	1087.9129	1090.6865	1105.6419	1157.0034	1177.6557	1193.0188	1231.2708	1274.2214	1289.6988	1340.5295	1402.0627	1416.8683	1447.517	1455.8336	1500.0498	1510.8632	1534.1408	3011.602	3062.8182	3080.3685	3087.9983	3132.475	3136.5927	3171.3768	3215.2366	3228.5952	3832.7703
OCC1(CC1)C1OC1	OCC1(CC1)[C@H]1OC1	
InChI=1S/C6H10O2/c7-4-6(1-2-6)5-3-8-5/h5,7H,1-4H2	InChI=1S/C6H10O2/c7-4-6(1-2-6)5-3-8-5/h5,7H,1-4H2/t5-/m0/s1
