20
gdb 96568	2.50864	1.51826	1.10054	1.4537	76.63	-0.2557	0.0021	0.2578	1155.0624	0.172232	-440.284396	-440.275996	-440.275051	-440.317082	32.4	
C	 0.1007488233	 1.6090759453	-0.0007142253	-0.391934
C	 0.0051876919	 0.0828645152	 0.0046289627	 0.054842
C	 0.7127243824	-0.5281405176	-1.2187668205	-0.192778
C	 0.741296129	-2.0581943374	-1.2340024502	-0.093354
O	-0.5408234779	-2.6314021271	-0.9671108343	-0.223472
C	-0.722366032	-3.1546397947	 0.3040951924	 0.009054
O	-0.9606120699	-2.182936332	 1.3247250737	-0.232936
C	 0.1278922013	-1.4632301707	 1.7675255544	 0.081438
N	 0.6056464565	-0.4234780913	 1.2421839437	-0.211208
H	 1.1446284665	 1.9310063936	 0.0658551274	 0.120188
H	-0.3357196618	 2.0215925871	-0.9162131156	 0.107839
H	-0.4363114004	 2.0307992608	 0.8535684778	 0.118282
H	-1.0489212249	-0.2159881036	-0.0510185639	 0.096471
H	 0.1978786138	-0.164158384	-2.1151231986	 0.108422
H	 1.7491170212	-0.1702830201	-1.2739634837	 0.103834
H	 1.0472737154	-2.4103897532	-2.2252926521	 0.108677
H	 1.4729600091	-2.4370668662	-0.5083251641	 0.103182
H	-1.6339911293	-3.7534513557	 0.2717577885	 0.126037
H	 0.1390773696	-3.7744723646	 0.6000720852	 0.093809
H	 0.5479902462	-1.8500617337	 2.6982879626	 0.113606
125.1718	170.5457	205.6735	223.8219	233.4639	297.9274	335.6743	415.2333	436.0507	507.0356	564.2848	622.8213	716.2589	780.9939	840.101	887.312	926.1186	941.592	976.3284	1003.3392	1029.828	1043.6298	1109.78	1137.7252	1150.6836	1167.3299	1200.4346	1257.4123	1291.9078	1331.449	1347.3443	1376.208	1386.7164	1403.787	1409.6277	1413.8537	1446.2957	1469.9414	1488.2601	1494.953	1501.2201	1513.2821	1726.7238	2974.8866	3015.9902	3026.4923	3031.6694	3037.6867	3064.6677	3080.3402	3109.9761	3113.2026	3115.2394	3122.7855
CC1CCOCOC=N1	C[C@H]1CCOCOC=N1	
InChI=1S/C6H11NO2/c1-6-2-3-8-5-9-4-7-6/h4,6H,2-3,5H2,1H3/b7-4-	InChI=1S/C6H11NO2/c1-6-2-3-8-5-9-4-7-6/h4,6H,2-3,5H2,1H3/b7-4-/t6-/m0/s1
