19
gdb 82113	3.24395	1.15831	0.98426	3.1691	78.43	-0.2448	0.0321	0.2768	1223.7888	0.159769	-382.040655	-382.032021	-382.031077	-382.074237	32.352	
C	-0.7247506076	 1.5084385355	 0.0761719554	-0.42052
C	-0.263239374	 0.0662261577	-0.0399625471	 0.055338
C	 0.5384248424	-0.4532271169	-1.2821606181	-0.026615
C	 0.9131588301	 0.4763664695	-2.4494738813	-0.363404
C	-0.245690464	 0.8467757861	-3.2603953043	 0.263126
N	-1.1785451283	 1.12571337	-3.8831621978	-0.310346
C	 1.6397379266	-0.8281922766	-0.2952279827	-0.056675
C	 2.0595862341	 0.3180675816	 0.533871096	-0.246844
N	 0.8248002568	-0.3891542672	 0.9111218103	-0.132958
H	 0.0718041392	 2.2358298244	-0.104994948	 0.113973
H	-1.5255587163	 1.7085474226	-0.6422325305	 0.145902
H	-1.1158649359	 1.6880643342	 1.0826777289	 0.13435
H	-1.1195874374	-0.5886553573	 0.1380911999	 0.097602
H	 0.054763101	-1.3416941966	-1.6937821202	 0.103963
H	 1.3923994146	 1.3924375727	-2.0907778062	 0.149104
H	 1.6431651249	-0.0255416377	-3.0958757775	 0.155167
H	 2.1802513403	-1.7693824606	-0.3006729925	 0.100543
H	 2.8658107515	 0.1464716045	 1.2403270455	 0.128211
H	 2.0158268619	 1.334344744	 0.1525904901	 0.110083
62.6197	106.8808	185.643	207.2619	214.3767	304.5409	368.9146	391.5831	464.2265	522.3282	579.461	701.8975	741.0101	770.722	782.8425	880.0882	933.9475	958.1373	981.2517	1004.9609	1037.3655	1064.594	1098.7028	1111.8004	1117.3146	1139.8177	1176.7545	1210.8974	1225.5066	1261.6622	1296.3945	1318.1153	1367.8357	1386.377	1389.9947	1410.259	1462.4394	1487.198	1497.6464	1509.4862	2359.7282	3041.2892	3044.7248	3067.4662	3081.326	3095.145	3110.6332	3114.7984	3120.2237	3160.8359	3201.4762
CC1C(CC#N)C2CN12	C[C@H]1[C@@H](CC#N)[C@H]2CN12	
InChI=1S/C7H10N2/c1-5-6(2-3-8)7-4-9(5)7/h5-7H,2,4H2,1H3	InChI=1S/C7H10N2/c1-5-6(2-3-8)7-4-9(5)7/h5-7H,2,4H2,1H3/t5-,6+,7+,9?/m0/s1
