18
gdb 75310	2.4182	1.66906	1.15562	1.1106	85.16	-0.2259	0.0105	0.2364	1100.3146	0.147122	-364.769857	-364.76145	-364.760506	-364.802426	32.791	
C	-0.0457272117	 1.5004933639	 0.0414742096	-0.50419
C	-0.0357068695	 0.0082408273	-0.0249563131	 0.277902
C	 0.0510012089	-0.7756702749	-1.1035908871	-0.176844
C	 0.0364757121	-2.2534661251	-0.7761584058	-0.264645
C	 0.0077469386	-2.2692703021	 0.7469783347	-0.099017
N	 1.183604793	-1.6488670074	 1.3760449145	-0.373331
C	-0.080317536	-0.846548104	 1.2168759596	 0.126882
C	-0.801367809	-0.4413579212	 2.3841353109	 0.189758
C	-1.3965683101	-0.0743467597	 3.3638890427	-0.414803
H	 0.8290944802	 1.8750835913	 0.58738818	 0.134917
H	-0.0420052614	 1.9428462797	-0.9579640098	 0.122245
H	-0.9288758733	 1.8648205721	 0.5790562225	 0.135073
H	 0.1604960371	-0.409338057	-2.1186978525	 0.091761
H	-0.8426816857	-2.7593484925	-1.1962101048	 0.108651
H	 0.9216308774	-2.7724829203	-1.1635195446	 0.121291
H	-0.5100015588	-3.0605106614	 1.2777628658	 0.100446
H	 1.2298841978	-1.9653057691	 2.3444150962	 0.23343
H	-1.9270160796	 0.2422371506	 4.2275155814	 0.190474
121.8245	138.022	185.7823	208.0547	287.7492	313.6433	385.9669	482.8868	527.4415	548.6187	582.6826	617.6762	623.4683	662.4695	731.3786	810.9925	843.7208	852.1848	911.1839	962.7288	987.1889	1030.0185	1048.8379	1060.1505	1070.2234	1140.9761	1186.8109	1199.91	1251.3377	1287.1518	1329.4962	1356.2166	1405.8759	1414.8443	1467.4328	1476.9282	1488.9543	1711.7093	2231.7636	3021.5799	3024.7015	3057.5981	3074.8792	3116.6685	3175.0228	3190.4541	3471.8675	3501.8545
CC1=CCC2NC12C#C	CC1=CC[C@H]2N[C@@]12C#C	
InChI=1S/C8H9N/c1-3-8-6(2)4-5-7(8)9-8/h1,4,7,9H,5H2,2H3	InChI=1S/C8H9N/c1-3-8-6(2)4-5-7(8)9-8/h1,4,7,9H,5H2,2H3/t7-,8+/m1/s1
