19
gdb 116127	3.19688	1.04472	0.82968	3.7467	72.17	-0.2318	-0.0205	0.2113	1357.1002	0.158988	-460.175732	-460.166794	-460.16585	-460.209796	32.858	
O	-0.009006623	 1.4357981882	-0.0808142167	-0.423147
C	 0.0180382738	 0.0215880048	 0.0292272605	-0.089402
C	-1.4215575891	-0.4818954518	 0.0206130411	-0.002994
C	-2.1463486931	-0.1215533869	-1.2806747002	-0.077663
O	-3.4945606965	-0.5576352166	-1.2512405842	-0.242881
C	-3.6192763255	-1.9643902385	-1.1933814462	-0.174324
C	-2.8598110623	-2.590687409	-0.0227398425	 0.370032
O	-3.3112985815	-3.5177047503	 0.605659086	-0.298531
C	-1.4798070893	-2.004734874	 0.2406041659	-0.332714
H	 0.896257402	 1.7595800405	-0.0845109945	 0.29118
H	 0.5717625163	-0.4345510172	-0.8095456678	 0.0859
H	 0.5125706501	-0.3002148417	 0.9595295613	 0.093198
H	-1.956431024	 0.0173617002	 0.8380385221	 0.102823
H	-2.1717742881	 0.9603920064	-1.4170269897	 0.133367
H	-1.6169395295	-0.5651844263	-2.1440241292	 0.078694
H	-4.6803513719	-2.2021580567	-1.0968400234	 0.135119
H	-3.24346601	-2.4313860014	-2.1241046534	 0.10408
H	-0.8004400176	-2.4951846072	-0.4752607344	 0.12179
H	-1.1583474407	-2.3022616224	 1.2425278153	 0.125473
72.3113	106.1838	131.6066	192.7003	250.8006	286.5597	344.0945	388.0989	423.1234	436.6837	507.3618	521.7717	659.9988	809.2802	822.9484	873.1256	945.8939	952.6216	984.3137	1067.0428	1079.0473	1125.4849	1133.3801	1147.1277	1179.4911	1222.4419	1246.2586	1257.269	1279.0631	1295.957	1315.0793	1340.0067	1365.9077	1368.2842	1410.6736	1457.0129	1459.307	1466.4001	1499.7334	1518.9394	1825.2082	2927.7251	2940.5504	2953.8483	2988.8683	2992.28	3043.5454	3094.8054	3117.9706	3125.2929	3834.185
OCC1COCC(=O)C1	OC[C@H]1COCC(=O)C1	
InChI=1S/C6H10O3/c7-2-5-1-6(8)4-9-3-5/h5,7H,1-4H2	InChI=1S/C6H10O3/c7-2-5-1-6(8)4-9-3-5/h5,7H,1-4H2/t5-/m0/s1
