18
gdb 45136	2.59671	1.67185	1.20951	3.7632	78.89	-0.2226	-0.0563	0.1663	1045.1697	0.14934	-401.939129	-401.931484	-401.93054	-401.971382	29.696	
O	 0.1169951312	-0.1032996104	-0.589365536	-0.31949
C	 0.0325408588	 1.0234201804	-0.1369170112	 0.338391
C	-1.3489575061	 1.5874288487	 0.2233549738	-0.261272
N	-1.5720601421	 2.2025253792	 1.5278021465	-0.084455
C	-0.6531821147	 2.0000449483	 2.6468522999	-0.264495
C	-0.778445717	 3.328767002	 1.9789245598	 0.011643
C	 0.3254227477	 3.9586990263	 1.1393631923	-0.297571
C	 1.3789450817	 3.0666609194	 0.5419170663	-0.05772
C	 1.2550144668	 1.8434228598	 0.0112484901	-0.132883
H	-1.6219198645	 2.3275946097	-0.5418869467	 0.120942
H	-2.0405093179	 0.746952039	 0.1180536269	 0.133799
H	-1.1262874678	 1.8241307289	 3.6095440731	 0.117331
H	 0.2636438164	 1.4397191146	 2.48623483	 0.125096
H	-1.3721199368	 4.0907396742	 2.4848579417	 0.095417
H	-0.1502793999	 4.5334684414	 0.3287957214	 0.133526
H	 0.82401439	 4.712249589	 1.7601336494	 0.120538
H	 2.3782308288	 3.4978315055	 0.5386239491	 0.112216
H	 2.1378879153	 1.3425508841	-0.3768854166	 0.108988
76.3289	136.0369	262.3859	287.0956	306.6202	391.8687	449.1422	473.1339	574.5132	604.2155	676.5566	723.0612	787.4957	811.9973	860.084	916.395	951.9919	966.2255	998.9234	1028.7375	1061.209	1081.9389	1118.0718	1147.9691	1166.0038	1202.0553	1256.0194	1262.0485	1303.9762	1338.42	1347.1627	1370.9202	1410.1465	1431.0854	1462.8712	1477.3078	1514.9247	1696.1145	1754.9079	2989.7111	3017.4649	3051.353	3092.6606	3096.3826	3108.6087	3143.2536	3175.1263	3192.0779
O=C1CN2CC2CC=C1	O=C1CN2C[C@H]2CC=C1	
InChI=1S/C7H9NO/c9-7-3-1-2-6-4-8(6)5-7/h1,3,6H,2,4-5H2	InChI=1S/C7H9NO/c9-7-3-1-2-6-4-8(6)5-7/h1,3,6H,2,4-5H2/t6-,8?/m1/s1
