17
gdb 133674	2.59256	1.29304	1.05842	2.5359	61.72	-0.2487	0.0779	0.3265	1148.495	0.131402	-549.490592	-549.481729	-549.480785	-549.524578	32.463	
C	-0.181434011	 1.6300555934	-0.0134936963	-0.406815
C	 0.0288491979	 0.1159425382	-0.0043573198	-0.10346
N	 0.6873995466	-0.2975224294	 1.2256613357	-0.065515
C	 1.4929551017	-1.5141574448	 1.1736689342	-0.218657
C	 2.1432280411	-0.1788307242	 1.2494377067	-0.228744
C	-1.3113778525	-0.6148240356	-0.1092528389	 0.296978
F	-1.9171704484	-0.3105891781	-1.27128884	-0.084545
F	-1.1526483463	-1.9478648276	-0.0828245264	-0.080908
F	-2.1475058456	-0.2883396192	 0.8806219487	-0.072737
H	 0.7858021477	 2.1378474579	 0.0120423719	 0.123301
H	-0.7141639309	 1.9422417452	-0.9144119333	 0.132769
H	-0.7555490274	 1.9337891708	 0.8646992123	 0.1447
H	 0.5965784729	-0.1855565727	-0.9034655406	 0.08188
H	 1.4302360183	-2.1520658713	 2.0497432516	 0.125574
H	 1.552566389	-2.0462426525	 0.2270546339	 0.119544
H	 2.6408749028	 0.1814244118	 0.3500544936	 0.113062
H	 2.5702288242	 0.1821333779	 2.1801844066	 0.123573
61.4656	109.7367	169.4378	222.0722	236.1698	259.4132	320.7651	366.8597	396.7372	493.9617	542.3527	579.7564	674.7963	757.7405	820.0043	841.2168	909.7551	968.8913	1021.6801	1047.3504	1093.7563	1115.2739	1124.0557	1125.5075	1166.3616	1180.9098	1205.517	1212.0454	1294.9115	1322.167	1355.1166	1396.9825	1408.5935	1492.6846	1493.9313	1501.3919	1522.0194	2940.5906	3057.7767	3096.5077	3111.2004	3132.5238	3142.9817	3184.3217	3201.4198
CC(N1CC1)C(F)(F)F	C[C@@H](N1CC1)C(F)(F)F	
InChI=1S/C5H8F3N/c1-4(5(6,7)8)9-2-3-9/h4H,2-3H2,1H3	InChI=1S/C5H8F3N/c1-4(5(6,7)8)9-2-3-9/h4H,2-3H2,1H3/t4-/m1/s1
