23
gdb 89559	4.78981	0.86744	0.85569	1.5043	86.75	-0.2347	0.0825	0.3173	1504.8305	0.204831	-388.282126	-388.272757	-388.271812	-388.316533	36.048	
C	-0.9456445228	 1.0138288855	-0.369929186	-0.406118
C	 0.1799943162	 0.02754469	-0.1000212777	 0.057049
C	 1.6005101735	 0.3388104336	-0.6554133893	-0.306913
C	 2.1918511199	-0.2063714752	 0.6605230367	 0.469506
C	 0.8074699662	-0.0249049306	 1.3234573232	-0.308301
C	 2.9043484275	-1.574256122	 0.7093848341	-0.370435
C	 4.0433336894	-0.8016802281	 1.4087437832	 0.15637
C	 5.4111274967	-0.7852012781	 0.7565208565	-0.397056
O	 3.3328815833	 0.4506606478	 1.2374525929	-0.333361
H	-0.6583254488	 2.0274837452	-0.0679394621	 0.112853
H	-1.203023809	 1.0438975519	-1.4347590466	 0.113128
H	-1.8526489033	 0.7457458863	 0.1836409607	 0.113144
H	-0.1266425423	-0.978315431	-0.4081919506	 0.069707
H	 1.9156828868	-0.1294344169	-1.5923232923	 0.090037
H	 1.7728431782	 1.4184933821	-0.7200097733	 0.10731
H	 0.7573190844	 0.9527668028	 1.8144121022	 0.106733
H	 0.4648117197	-0.7932284431	 2.0224447693	 0.090269
H	 2.4125683947	-2.3493142428	 1.3004404391	 0.104794
H	 3.1733912899	-1.9815204505	-0.2688481062	 0.103267
H	 4.1387975654	-1.0400123223	 2.4772123219	 0.071945
H	 5.3283485855	-0.5650004107	-0.3124540037	 0.117349
H	 6.0447167975	-0.0197813372	 1.2158826862	 0.125701
H	 5.9054870116	-1.7557379564	 0.8770015618	 0.11302
48.1254	71.4046	216.1428	227.241	233.4359	271.8802	304.5762	352.1118	385.0048	440.2037	452.9018	506.6426	690.8146	775.4867	819.476	841.9168	873.1272	895.8308	910.2817	914.8198	949.3386	958.0051	960.8813	1027.2398	1051.349	1094.3234	1110.7569	1125.0978	1178.6794	1187.4838	1205.4555	1217.4927	1219.8701	1245.0956	1264.3929	1285.4144	1309.074	1326.7202	1375.9956	1389.882	1408.8001	1411.8034	1465.5467	1481.8138	1488.302	1491.1069	1495.9165	1496.1492	1498.5234	3001.3154	3021.9361	3030.8227	3036.997	3041.355	3047.9153	3062.9743	3088.9169	3090.3629	3098.8817	3102.9635	3104.2542	3110.0396	3119.7721
CC1CC2(C1)CC(C)O2	C[C@H]1C[C@@]2(C1)C[C@@H](C)O2	
InChI=1S/C8H14O/c1-6-3-8(4-6)5-7(2)9-8/h6-7H,3-5H2,1-2H3	InChI=1S/C8H14O/c1-6-3-8(4-6)5-7(2)9-8/h6-7H,3-5H2,1-2H3/t6-,7-,8+/m1/s1
