13
gdb 130012	5.43315	1.31673	1.0615	4.6177	67.77	-0.2146	-0.0106	0.204	1026.5255	0.09263	-448.927846	-448.92123	-448.920286	-448.958578	26.109	
N	 0.0455501262	 1.3517474765	-0.1285585185	-0.592027
C	-0.0320173464	-0.0161514951	-0.0322434705	 0.402688
N	-1.1421954092	-0.70554306	-0.0060014582	-0.410228
C	-0.7025641308	-2.0261501572	-0.0081873213	 0.15527
C	-1.0543633807	-3.3379972591	 0.0004763366	-0.050733
O	 0.0729290535	-4.0983255492	-0.010314656	-0.186019
N	 1.2297212852	-3.2864154769	-0.0231868109	-0.28463
C	 0.7174929581	-2.0865956896	-0.0209155855	 0.453977
N	 1.1458088252	-0.7746420751	-0.00871859	-0.44867
H	 0.7784660285	 1.7904090125	 0.4112172472	 0.260193
H	-0.8542340008	 1.7909933435	 0.0084910252	 0.274893
H	-1.9810820233	-3.8873451373	 0.0101951074	 0.149516
H	 2.0656958147	-0.4355609829	-0.2331019154	 0.27577
159.869	305.5561	322.543	343.6123	368.5486	409.6484	554.8477	563.3858	591.2289	636.9759	741.7313	764.4437	767.542	794.7679	862.268	876.1563	968.9868	976.2636	1099.741	1119.2398	1212.8399	1288.0797	1292.2511	1416.791	1471.0856	1591.2515	1602.071	1669.247	1710.9566	3280.1454	3561.3004	3664.9188	3671.3989
NC1=NC2=CON=C2N1	Nc1nc2conc2[nH]1	
InChI=1S/C4H4N4O/c5-4-6-2-1-9-8-3(2)7-4/h1H,(H3,5,6,7,8)	InChI=1S/C4H4N4O/c5-4-6-2-1-9-8-3(2)7-4/h1H,(H3,5,6,7,8)
