17
gdb 33911	3.97042	1.28167	1.16837	3.5569	77.98	-0.2485	0.0053	0.2538	1072.2057	0.137929	-380.817057	-380.809871	-380.808927	-380.848622	28.542	
N	 0.0822378077	-1.1592917807	-0.1478395462	-0.346845
C	 0.0643477288	-0.0057480727	-0.0437487535	 0.156322
C	 0.0330650007	 1.4091260702	 0.1074165196	 0.2441
N	 0.2250073979	 2.3122528398	-1.061399583	-0.35691
C	 1.1607287978	 2.408768683	 0.0667340743	-0.113371
C	 0.4932743643	 3.249613031	 1.1783460586	-0.023084
C	-0.5037395544	 4.3642109593	 0.7428802445	-0.227111
C	-1.6757102086	 3.3302179864	 0.776013631	-0.230401
C	-0.6809725551	 2.2204153242	 1.2213428363	-0.085388
H	 0.6737599008	 1.7694292312	-1.7986688762	 0.250608
H	 2.2188028239	 2.2270083999	-0.0790297673	 0.116684
H	 1.1237325555	 3.4198716719	 2.050125715	 0.081708
H	-0.5992764649	 5.1596647769	 1.4851639291	 0.101687
H	-0.3027274621	 4.8078212492	-0.2330811769	 0.117346
H	-2.4339786305	 3.5457265702	 1.5318713988	 0.103043
H	-2.1656930861	 3.1526024188	-0.1818809549	 0.121176
H	-0.8972557459	 1.6408566117	 2.1173377009	 0.090437
122.8377	148.7232	212.7302	308.6992	376.9803	472.8744	546.3444	575.8262	611.4474	685.5443	725.4599	798.9521	817.182	849.6866	875.2302	891.0824	943.1785	955.3633	980.5633	1012.1256	1046.958	1052.1055	1107.5721	1124.4684	1171.2989	1201.048	1234.8685	1238.31	1246.3072	1267.3242	1277.6323	1300.6693	1350.3803	1392.7079	1461.0263	1480.1197	2338.8873	3071.3642	3077.3793	3117.404	3126.905	3130.2481	3143.0328	3190.4351	3484.5108
N#CC12NC1C1CCC21	N#C[C@]12N[C@H]1[C@H]1CC[C@@H]21	
InChI=1S/C7H8N2/c8-3-7-5-2-1-4(5)6(7)9-7/h4-6,9H,1-2H2	InChI=1S/C7H8N2/c8-3-7-5-2-1-4(5)6(7)9-7/h4-6,9H,1-2H2/t4-,5+,6-,7+/m0/s1
