18
gdb 88030	2.39102	1.36208	1.11215	2.7251	76.58	-0.2472	0.0154	0.2625	1168.6087	0.146748	-401.929456	-401.920635	-401.919691	-401.96338	32.226	
C	-0.0894059575	 1.4821198691	-0.0189569598	-0.405723
C	 0.0886553054	-0.0194036729	-0.04750346	-0.083879
C	 1.4866016746	-0.630760488	-0.1260904125	-0.366732
C	 0.689308351	-0.7184530135	 1.1285699804	 0.453201
O	 1.0611760547	-0.0292422586	 2.3233680563	-0.296078
C	 0.448613077	-1.0410731158	 3.1451793428	-0.082769
C	 0.1778417852	-1.9419760889	 1.9065600788	-0.310809
C	-1.187972003	-2.3708029442	 1.6641751339	 0.294481
N	-2.2773372384	-2.6998074187	 1.4603354934	-0.329443
H	 0.6693866204	 1.9519776626	 0.6126839351	 0.132947
H	-0.0121275952	 1.9065813179	-1.0250120742	 0.121372
H	-1.070064981	 1.7510170594	 0.3867385035	 0.126493
H	-0.6930416385	-0.5719480954	-0.564082388	 0.108778
H	 1.638617259	-1.5286589912	-0.7167419769	 0.120657
H	 2.3302288346	 0.0527912519	-0.1109757682	 0.128813
H	 1.1445569189	-1.4517296361	 3.8819534763	 0.123746
H	-0.4569688618	-0.680145069	 3.6436368424	 0.12875
H	 0.8505913547	-2.8012166886	 1.8493722067	 0.136195
67.7963	99.7703	153.584	183.0276	198.5342	247.0895	348.8031	395.8233	499.17	528.6898	554.2035	597.9134	743.2954	795.5849	870.578	877.3328	904.5276	981.8812	1002.9621	1017.9838	1042.122	1071.1392	1076.1567	1112.1222	1134.1172	1164.0661	1179.6343	1204.032	1212.3744	1306.921	1338.0505	1356.6711	1409.2631	1424.5171	1482.1466	1491.2562	1505.7216	1526.5319	2357.8843	3037.9486	3043.0083	3080.4188	3100.8421	3101.9277	3114.7649	3122.8455	3138.2415	3211.7308
CC1CC11OCC1C#N	C[C@H]1C[C@]21OC[C@H]2C#N	
InChI=1S/C7H9NO/c1-5-2-7(5)6(3-8)4-9-7/h5-6H,2,4H2,1H3	InChI=1S/C7H9NO/c1-5-2-7(5)6(3-8)4-9-7/h5-6H,2,4H2,1H3/t5-,6+,7+/m0/s1
