20
gdb 121482	7.90432	0.53218	0.52354	4.5855	82.7	-0.2393	0.0129	0.2523	2137.069	0.169191	-440.256137	-440.246222	-440.245278	-440.292906	33.942	
C	-0.0441341129	 1.4915241873	 0.0407943017	-0.384884
C	-0.0513454152	-0.0232428714	-0.0370955513	-0.056164
O	 0.7454445117	-0.40804292	-1.1644948146	-0.201826
C	 0.8539972409	-1.7266006417	-1.3883031225	 0.124898
N	 1.534010417	-2.1634576042	-2.3563159114	-0.217999
C	 1.6022776665	-3.5867775702	-2.5302423282	-0.003234
C	 1.3403692435	-4.1148370627	-3.9618713781	-0.079767
O	 2.598751423	-4.8177490658	-3.9814205531	-0.273649
C	 3.0135997261	-4.1819574812	-2.7560030097	-0.079773
H	 0.9756288033	 1.8651884844	 0.1651457424	 0.138012
H	-0.4606992398	 1.9251923698	-0.8721229081	 0.138048
H	-0.6447468098	 1.8254169826	 0.8917629656	 0.122774
H	 0.3666203451	-0.4648973779	 0.8774599468	 0.110905
H	-1.0737853812	-0.4045519375	-0.1612166226	 0.110918
H	 0.311130658	-2.3621135311	-0.6701890461	 0.076231
H	 1.0325927836	-4.1442608395	-1.7707876632	 0.063019
H	 0.4872477451	-4.7898845836	-4.0955679229	 0.098058
H	 1.2987574184	-3.311502996	-4.7079669505	 0.108189
H	 3.7761418221	-3.4109045924	-2.9225596138	 0.108187
H	 3.3733277246	-4.9056704988	-2.0155834804	 0.098056
38.671	51.488	73.1453	116.9629	136.3818	236.002	251.354	281.1278	322.0888	433.7656	507.4988	559.2237	767.4282	817.8847	883.1578	884.6401	936.6252	980.9836	996.1646	1032.4318	1036.7955	1065.2401	1107.2618	1136.5717	1157.8601	1165.1349	1182.2255	1203.4585	1257.4349	1258.6484	1301.1375	1302.6307	1348.3658	1378.3378	1401.5569	1420.8868	1447.0458	1483.6557	1498.812	1501.6732	1522.5804	1529.4997	1762.4689	2972.7916	2985.1749	3007.761	3011.6489	3022.9905	3045.0109	3050.3902	3067.413	3070.5095	3125.7575	3130.7139
CCOC=NC1COC1	CCOC=NC1COC1	
InChI=1S/C6H11NO2/c1-2-8-5-7-6-3-9-4-6/h5-6H,2-4H2,1H3	InChI=1S/C6H11NO2/c1-2-8-5-7-6-3-9-4-6/h5-6H,2-4H2,1H3
