19
gdb 98969	5.15089	0.70942	0.63083	4.0965	75.24	-0.2599	-0.0229	0.2369	1754.5664	0.157973	-456.386412	-456.376205	-456.375261	-456.422637	35.789	
C	 0.0455836884	 1.6509617864	 0.0419533359	-0.367929
C	-0.1278661607	 0.134764643	 0.027177668	-0.275733
C	-1.5745868877	-0.3123574034	-0.0109153474	 0.390145
N	-2.536299175	 0.5095696782	-0.0291337413	-0.494014
N	-1.6910497331	-1.7299637819	-0.0229166354	-0.38231
C	-2.8412532075	-2.4683448158	-0.0560301336	 0.403198
O	-3.9670077262	-1.9983168836	-0.0806030214	-0.371221
C	-2.6540117417	-3.9885946015	-0.0612018015	-0.144922
O	-3.8922836578	-4.6267744053	-0.0966180227	-0.415613
H	 1.107811385	 1.9100720435	 0.0692720187	 0.107392
H	-0.4038976524	 2.101835394	-0.8452941998	 0.138725
H	-0.446084331	 2.0895449709	 0.9128437691	 0.138678
H	 0.3901971298	-0.301229256	-0.8393307965	 0.116543
H	 0.3479353426	-0.3134587801	 0.9115006933	 0.116487
H	-3.4340663814	 0.0262544613	-0.0542423941	 0.252591
H	-0.8250122081	-2.2490839658	-0.0050039957	 0.257009
H	-2.037987548	-4.2642745874	-0.9331437408	 0.116062
H	-2.082552548	-4.275570259	 0.8370922852	 0.116058
H	-4.5459813772	-3.9079071676	-0.1076156301	 0.298853
51.3648	72.2245	92.1421	113.2112	134.6906	223.1917	266.4196	319.9103	360.4261	414.1127	415.2965	531.0327	540.8925	617.0286	621.3275	728.827	811.56	854.3603	960.3069	968.3457	1012.2384	1032.698	1060.8707	1106.4883	1117.8402	1144.4502	1234.0143	1249.5831	1292.2652	1295.7464	1323.5105	1402.5336	1416.421	1453.4853	1471.5453	1489.5898	1499.7491	1505.1049	1526.9075	1739.6749	1788.5303	2968.5171	2986.8067	3004.1417	3030.6461	3055.3748	3127.8156	3139.3453	3495.5121	3603.519	3670.4883
CCC(=N)NC(=O)CO	CCC(=N)NC(=O)CO	
InChI=1S/C5H10N2O2/c1-2-4(6)7-5(9)3-8/h8H,2-3H2,1H3,(H2,6,7,9)	InChI=1S/C5H10N2O2/c1-2-4(6)7-5(9)3-8/h8H,2-3H2,1H3,(H2,6,7,9)
