16
gdb 23306	3.00323	1.31013	0.96513	3.2508	79.98	-0.1916	-0.0113	0.1803	1176.9068	0.125773	-434.008612	-434.000729	-433.999785	-434.040714	31.072	
N	 0.0876736234	 1.3554623776	 0.1193315151	-0.597674
C	-0.0264293347	-0.0091324979	 0.0367315475	 0.412476
C	-1.1480247932	-0.7710574573	-0.0320831851	-0.317771
C	-0.7889791416	-2.1800071643	-0.0127435926	 0.469371
N	-1.5025033808	-3.244418045	 0.0095253864	-0.280612
O	-2.8767645358	-2.9275505196	-0.01132796	-0.399099
C	 0.7069903882	-2.2700971223	 0.0044815166	-0.139646
N	 1.3537140163	-1.6552296547	-1.1894262512	-0.33548
C	 1.1987778292	-0.8735179869	 0.0694554568	-0.162169
H	 0.9361983463	 1.7588914963	-0.247933993	 0.257654
H	-0.7370315471	 1.8922750966	-0.1050264935	 0.258421
H	-2.1618247375	-0.4137130443	-0.1352428671	 0.102428
H	-3.2823592653	-3.7998874376	 0.0127037954	 0.301805
H	 1.1974458212	-3.0967216471	 0.5027535021	 0.103329
H	 2.3114361622	-2.0051693827	-1.2288406741	 0.230575
H	 2.0757570492	-0.5711802008	 0.6322401768	 0.096393
136.0513	187.8576	195.6055	288.6368	357.2803	377.4634	399.967	422.2506	487.1108	536.6331	604.6402	662.8771	698.5209	714.6187	834.9566	837.9568	859.8357	888.7762	896.0938	918.1965	978.2663	1058.9749	1097.6048	1127.5325	1148.5949	1232.7405	1255.0601	1265.9475	1342.1029	1363.2472	1417.6992	1437.522	1631.952	1677.7831	1728.2178	3167.1001	3198.7062	3243.3788	3460.3407	3568.9986	3674.0546	3826.8056
NC1=CC(=NO)C2NC12	NC1=CC(=NO)[C@H]2N[C@@H]12	
InChI=1S/C5H7N3O/c6-2-1-3(8-9)5-4(2)7-5/h1,4-5,7,9H,6H2	InChI=1S/C5H7N3O/c6-2-1-3(8-9)5-4(2)7-5/h1,4-5,7,9H,6H2/t4-,5+/m0/s1
