23
gdb 101660	3.19038	0.70899	0.66862	3.3123	83.25	-0.2456	-0.0173	0.2283	1807.1095	0.202029	-425.445124	-425.433721	-425.432777	-425.482655	40.281	
C	 0.2715593752	 1.5431035046	-0.167571871	-0.382733
C	 0.1110895174	 0.0598460447	 0.1730896816	-0.188657
C	-1.3394812219	-0.4296369245	 0.081504084	 0.125286
O	-1.8891321221	-0.205977774	-1.2174395334	-0.423953
C	-1.4733721795	-1.9051132044	 0.4911680908	-0.226379
C	-2.9157529985	-2.46696891	 0.4311812128	-0.07236
C	-2.9527807374	-3.9924300199	 0.3254785202	-0.401491
C	-3.7270356527	-1.9728409183	 1.6125489437	 0.156026
O	-4.3666708428	-2.6769911775	 2.3530206237	-0.247827
H	 1.3232745013	 1.8429710793	-0.1432841395	 0.112039
H	-0.1261528898	 1.7564499778	-1.1631222769	 0.127543
H	-0.2717268666	 2.1711642644	 0.5469465553	 0.116896
H	 0.7279372742	-0.5507450418	-0.50329179	 0.086442
H	 0.485850287	-0.1384510946	 1.1849513603	 0.100444
H	-1.957057862	 0.1950493921	 0.7391709882	 0.091551
H	-1.3496189342	-0.694765863	-1.8501386799	 0.278003
H	-0.8472793809	-2.5049236229	-0.1843802107	 0.093098
H	-1.0521578699	-2.0467219805	 1.4949416712	 0.105917
H	-3.3802093626	-2.0178060247	-0.4596114551	 0.114032
H	-2.4484380552	-4.4572092258	 1.178513836	 0.124298
H	-3.9817269089	-4.3588717654	 0.3185705743	 0.131554
H	-2.4556405929	-4.3269706247	-0.5899907851	 0.105346
H	-3.7012884173	-0.8702134608	 1.7710607996	 0.074925
43.4962	59.3191	86.7473	131.3289	139.4681	203.0738	219.082	239.4149	288.1554	312.6426	326.8106	340.7071	411.2774	464.1671	540.1172	655.8448	780.2998	809.124	834.0734	892.9791	922.2324	961.5017	977.9173	1015.2374	1056.425	1089.1669	1105.5612	1122.7324	1132.9445	1173.1936	1196.5883	1264.1445	1274.1338	1314.2766	1345.769	1361.294	1382.8958	1389.5731	1408.5035	1411.3369	1420.8559	1439.3309	1474.2874	1486.2573	1490.7388	1495.8833	1497.8117	1508.6737	1824.6224	2867.6253	2997.977	3006.6921	3008.2866	3035.0102	3039.3216	3043.7283	3047.0049	3061.0756	3104.0962	3109.8613	3123.1317	3128.1136	3786.5521
CCC(O)CC(C)C=O	CC[C@@H](O)C[C@@H](C)C=O	
InChI=1S/C7H14O2/c1-3-7(9)4-6(2)5-8/h5-7,9H,3-4H2,1-2H3	InChI=1S/C7H14O2/c1-3-7(9)4-6(2)5-8/h5-7,9H,3-4H2,1-2H3/t6-,7-/m1/s1
