15
gdb 15125	8.62395	0.77712	0.74323	5.4427	63.52	-0.2806	0.0053	0.2859	1443.7759	0.117148	-399.763938	-399.755626	-399.754682	-399.798102	27.886	
N	-0.003921306	-1.0907935029	 0.5141698588	-0.289357
C	 0.0263681854	 0.0507616003	 0.3459368355	 0.268089
C	 0.0194749002	 1.5002023552	 0.127487883	-0.181672
O	 1.3427427118	 1.9692072591	 0.0842044951	-0.238704
C	 1.4151938614	 3.3606722482	-0.1789039278	-0.078396
C	 2.8630840319	 3.7621644741	-0.1807042149	 0.081025
C	 3.2629048374	 5.144061863	 0.1080539095	-0.181317
O	 3.4341833653	 4.1122662431	 1.0780580383	-0.220931
H	-0.5170701972	 1.7088992631	-0.8133046734	 0.13909
H	-0.5541359704	 1.9757538574	 0.9399673885	 0.143706
H	 0.9590756627	 3.5856612256	-1.158300375	 0.10047
H	 0.8760208718	 3.9345932532	 0.5906393902	 0.10622
H	 3.5039451525	 3.1498298291	-0.8149963712	 0.111079
H	 4.1773142907	 5.5394196773	-0.3307210827	 0.124151
H	 2.5038558625	 5.8887201542	 0.3460918162	 0.116546
48.0679	81.8105	100.8244	133.3177	227.7519	324.9923	385.541	402.1606	462.832	584.5511	806.9517	870.7898	945.2932	958.3992	992.9378	1030.0168	1041.168	1104.4841	1146.3027	1158.7153	1164.8199	1175.3892	1252.8076	1270.3672	1292.7827	1361.1624	1414.2145	1467.9577	1487.5148	1509.3857	1534.4767	2375.4666	2958.9286	2969.4269	2993.4994	3009.2064	3084.9906	3120.8697	3171.9475
N#CCOCC1CO1	N#CCOC[C@H]1CO1	
InChI=1S/C5H7NO2/c6-1-2-7-3-5-4-8-5/h5H,2-4H2	InChI=1S/C5H7NO2/c6-1-2-7-3-5-4-8-5/h5H,2-4H2/t5-/m0/s1
