16
gdb 72049	2.46697	1.66059	1.27796	3.7967	74.7	-0.2549	0.0045	0.2595	1017.4668	0.12438	-400.701372	-400.693794	-400.692849	-400.733406	29.028	
C	-0.1377991257	 1.4579744242	-0.0229589765	-0.503947
C	 0.0313277746	-0.0291665809	-0.0344281033	 0.218938
C	 0.9645734471	-0.8865217967	-0.8987046646	-0.281668
C	 0.1394214669	-2.0933109094	-0.3960969498	 0.010903
O	 0.4428011515	-2.146279421	 1.0257089829	-0.282869
C	-0.2878282535	-0.9361581981	 1.1547307465	 0.001854
C	-1.0732621539	-1.1136624263	-0.1230995935	 0.196625
C	-2.4416867069	-1.0719433075	-0.4603082017	 0.117355
N	-3.5636539556	-1.0322192499	-0.748606903	-0.365357
H	 0.7711433565	 1.9453554717	 0.3465466394	 0.136341
H	-0.3454192642	 1.8437974925	-1.026138856	 0.138032
H	-0.9664737542	 1.7575350658	 0.6268757866	 0.136279
H	 0.8051777956	-0.6945964485	-1.9625341368	 0.119527
H	 2.0320998903	-0.9017289552	-0.6594848177	 0.112421
H	 0.1142057537	-3.0661524872	-0.8789665452	 0.113288
H	-0.6024082723	-0.6015509734	 2.1343270428	 0.132278
113.1054	146.7413	198.2535	265.9531	287.8558	423.9376	476.658	517.0986	576.6718	587.7569	617.7136	748.1356	788.7024	842.253	889.2022	924.5115	952.9349	979.6098	1000.1173	1029.4273	1067.9394	1093.4605	1140.0119	1166.8579	1202.334	1231.7677	1241.5505	1293.8887	1335.2361	1415.8779	1434.6263	1482.7942	1489.347	1498.2911	2335.3329	3032.1042	3056.1331	3098.5512	3103.7956	3121.6082	3170.2408	3218.2334
CC12CC3OC1C23C#N	C[C@@]12C[C@H]3O[C@@H]1[C@@]23C#N	
InChI=1S/C7H7NO/c1-6-2-4-7(6,3-8)5(6)9-4/h4-5H,2H2,1H3	InChI=1S/C7H7NO/c1-6-2-4-7(6,3-8)5(6)9-4/h4-5H,2H2,1H3/t4-,5+,6-,7+/m1/s1
