20
gdb 116487	3.10629	1.14323	0.87857	3.5881	77.54	-0.2454	0.0086	0.254	1318.4129	0.172708	-440.290702	-440.28211	-440.281165	-440.324346	32.443	
O	 0.2133740181	 1.3288213059	 0.2899879712	-0.426906
C	 0.1230676628	-0.0630843102	 0.1077902171	-0.056036
C	-1.3302225886	-0.5006969459	-0.1555054468	 0.031056
C	-1.4330010404	-2.0172953634	-0.3357100883	-0.211252
C	-2.8351311379	-2.4934876133	-0.7138934114	-0.222896
C	-3.8270943078	-2.3864716323	 0.4345443064	-0.059348
O	-4.2216474513	-1.0604741329	 0.8105055741	-0.22721
C	-3.3240533081	-0.1297872473	 1.2168158136	 0.121255
N	-2.131734438	 0.1171824111	 0.8923492083	-0.273454
H	-0.5373954906	 1.5425361691	 0.8640005497	 0.283166
H	 0.7541392217	-0.327098222	-0.7480413941	 0.097539
H	 0.5029209313	-0.6141098665	 0.9863546394	 0.077209
H	-1.6423811838	-0.02218119	-1.0973592869	 0.096904
H	-0.7211666637	-2.3114148561	-1.1163710582	 0.103624
H	-1.1112108142	-2.5192427043	 0.5870116546	 0.099873
H	-3.2124262903	-1.9360785773	-1.5803900416	 0.110438
H	-2.8016363443	-3.550132942	-1.0070790655	 0.105574
H	-4.7699922593	-2.8750897448	 0.1771710023	 0.120144
H	-3.4171319961	-2.8859396067	 1.3237399027	 0.109285
H	-3.8146086796	 0.5280861492	 1.9364581533	 0.121035
63.4066	112.9043	162.821	200.0018	291.3163	324.3114	365.0545	397.6366	473.8775	529.0415	538.3977	558.7973	755.622	790.9637	832.7638	884.9615	920.2525	951.7005	981.1273	999.6605	1063.9302	1090.4014	1100.4944	1111.6938	1139.824	1171.0547	1212.1569	1235.5518	1263.1805	1290.3171	1322.4369	1365.3215	1379.3341	1380.699	1391.0719	1422.038	1439.7997	1454.6621	1473.3492	1480.9337	1498.8809	1509.5712	1759.3075	2946.4274	2984.8071	3010.4075	3016.9921	3026.2923	3057.5421	3067.6283	3071.2317	3100.4951	3121.1984	3716.5732
OCC1CCCOC=N1	OC[C@H]1CCCOC=N1	
InChI=1S/C6H11NO2/c8-4-6-2-1-3-9-5-7-6/h5-6,8H,1-4H2	InChI=1S/C6H11NO2/c8-4-6-2-1-3-9-5-7-6/h5-6,8H,1-4H2/t6-/m1/s1
