17
gdb 28764	3.16156	1.71354	1.2589	1.5812	80.6	-0.1697	0.0286	0.1983	995.6922	0.138524	-380.832624	-380.82542	-380.824476	-380.863973	29.017	
N	 0.0324592385	 1.4653200149	-0.1145017057	-0.598729
C	 0.008125399	 0.0658047522	-0.1050168696	 0.26085
C	-1.041165541	-0.8357858201	-0.1750792638	-0.204058
C	-0.5029611634	-2.1683797322	-0.2541001413	-0.23578
C	 0.853824733	-2.0356201455	-0.113699367	 0.176989
C	 2.2286452795	-2.3435490101	-0.6683904542	-0.178952
C	 2.4075663822	-1.5117058574	-1.9339251095	-0.273619
C	 2.4901042732	-0.8436245444	-0.5869405536	-0.026401
N	 1.1575337914	-0.6748780037	 0.0193347674	-0.039733
H	 0.6477872427	 1.8499928844	 0.5932947455	 0.245171
H	-0.8933297446	 1.856320835	 0.0034342405	 0.247273
H	-2.0878587228	-0.5735011409	-0.1061296759	 0.078321
H	-1.0712618773	-3.0772111197	-0.3816141566	 0.092019
H	 2.8934748612	-3.1535589518	-0.4013692505	 0.101617
H	 3.3563967213	-1.6256518179	-2.4533572597	 0.11439
H	 1.5526758269	-1.3248906587	-2.5757994115	 0.133555
H	 3.35005282	-0.3016617942	-0.2156596244	 0.107087
146.6325	183.865	192.7074	294.2093	359.0742	484.4057	535.1514	635.6072	650.2769	694.4422	718.569	749.852	781.1546	795.1512	812.3049	818.6873	856.5376	944.408	978.8605	1000.1769	1028.8703	1049.6308	1062.9435	1080.428	1106.0866	1172.7586	1203.5795	1218.0414	1256.5665	1269.9954	1305.6254	1350.9109	1464.6778	1472.3489	1557.2046	1592.1346	1647.7957	3113.3006	3195.5555	3202.827	3211.6267	3222.5486	3248.5285	3520.1813	3618.708
NC1=CC=C2C3CC3N12	N[C]1C=C[C]2[C@H]3C[C@H]3N12	
InChI=1S/C7H8N2/c8-7-2-1-5-4-3-6(4)9(5)7/h1-2,4,6H,3,8H2	InChI=1S/C7H8N2/c8-7-2-1-5-4-3-6(4)9(5)7/h1-2,4,6H,3,8H2/t4-,6-/m1/s1
