14
gdb 50056	2.27619	1.62295	1.25459	6.3098	70.22	-0.2712	-0.0698	0.2014	1016.9075	0.099551	-432.846515	-432.838026	-432.837082	-432.880326	29.481	
N	 0.0206982442	 1.0548496115	 0.5181636714	-0.479163
C	 0.1363651063	-0.1250631428	 0.0634602696	 0.242813
C	-1.0378937117	-0.9771967816	 0.0055592401	 0.332921
N	-1.9464746139	-1.6875476663	-0.0597562736	-0.325202
N	 1.2553677102	-0.6996746494	-0.5578004239	-0.091531
C	 2.5950362586	-0.5947962041	-0.0573892625	-0.248994
C	 1.9032508282	-1.9412227235	-0.1599858905	-0.110384
C	 1.5452549115	-2.5963025306	 1.1426188758	 0.152081
O	 1.0723876239	-2.0008543582	 2.0770411837	-0.246511
H	 0.9162435965	 1.5470842111	 0.4898112145	 0.234028
H	 3.3621267535	-0.33705993	-0.781413128	 0.14754
H	 2.7281910292	-0.2098646258	 0.9518933737	 0.156731
H	 2.1591411975	-2.6103431821	-0.9769084402	 0.12716
H	 1.7668116362	-3.6822942682	 1.1906148699	 0.10851
71.0847	92.7194	116.5522	169.3117	241.2155	296.5076	310.3708	386.0277	498.8523	566.1799	676.9391	718.1679	773.5908	823.7506	891.5532	900.3178	963.7209	985.3386	1054.8365	1067.7859	1107.6966	1132.703	1161.9185	1276.2851	1363.0697	1405.5716	1417.3478	1491.2691	1693.4823	1818.45	2365.2909	2926.0489	3106.0234	3156.7192	3206.3202	3464.751
N=C(C#N)N1CC1C=O	[NH][C](C#N)N1C[C@H]1C=O	
InChI=1S/C5H5N3O/c6-1-5(7)8-2-4(8)3-9/h3-4,7H,2H2	InChI=1S/C5H5N3O/c6-1-5(7)8-2-4(8)3-9/h3-4,7H,2H2/t4-,8?/m0/s1
