19
gdb 80733	3.7136	1.06585	1.05701	4.271	79.64	-0.2397	0.0297	0.2694	1215.2667	0.160862	-382.069755	-382.061267	-382.060322	-382.103365	31.587	
C	 0.1600831435	 1.8054751077	-0.1630295448	-0.431723
C	-0.048932136	 0.3101783763	-0.0509116335	 0.015072
C	 0.342002757	-0.7046940673	-1.0703342616	-0.046707
C	 1.3347702265	-0.3514454582	-2.1683278556	-0.250222
C	 2.5952937991	 0.1832722587	-1.4214821515	-0.177552
C	 2.3926231774	-0.28085555	 0.0648154246	-0.175842
N	 0.9990605732	-0.6864677756	 0.2509741581	-0.109831
C	 3.8477656829	-0.2962331917	-1.995986669	 0.268845
N	 4.8422451618	-0.6839201139	-2.4405595697	-0.323203
H	 0.8750340223	 2.1054336372	-0.93073803	 0.123171
H	-0.7943379852	 2.2807656962	-0.4111565637	 0.131616
H	 0.4918637771	 2.2262300957	 0.792807503	 0.133303
H	-0.9517857418	 0.0723023431	 0.5102718268	 0.09918
H	-0.3217007817	-1.542147016	-1.2703572395	 0.097246
H	 1.5832500255	-1.2517312496	-2.735603675	 0.135935
H	 0.952589229	 0.385934408	-2.8799404153	 0.12341
H	 2.6245475228	 1.2741499563	-1.466754126	 0.129563
H	 3.0210573915	-1.1514076141	 0.2710492528	 0.135846
H	 2.6743080551	 0.5059730173	 0.7704156699	 0.121893
55.7651	114.0803	143.8592	192.653	244.1669	265.7263	417.7912	466.9472	540.0455	546.0243	635.6477	696.5872	735.9773	759.3893	832.5156	892.252	909.4379	982.9955	992.6316	1015.8306	1028.8478	1063.4911	1106.0218	1121.4431	1149.9092	1160.6178	1189.5262	1249.5539	1278.5332	1307.2127	1313.8483	1330.8255	1362.1144	1384.7084	1416.6441	1434.6894	1486.0134	1496.0699	1497.5972	1506.4331	2354.1111	3040.2102	3059.4695	3065.2677	3078.3835	3095.9883	3103.9157	3105.2279	3110.9627	3133.5128	3138.781
CC1C2CC(CN12)C#N	C[C@H]1[C@H]2C[C@@H](CN12)C#N	
InChI=1S/C7H10N2/c1-5-7-2-6(3-8)4-9(5)7/h5-7H,2,4H2,1H3	InChI=1S/C7H10N2/c1-5-7-2-6(3-8)4-9(5)7/h5-7H,2,4H2,1H3/t5-,6+,7+,9?/m0/s1
