16
gdb 29888	3.24494	1.42888	0.99832	2.6236	77.49	-0.223	-0.0265	0.1965	1134.0676	0.12688	-434.142766	-434.134714	-434.13377	-434.175867	29.737	
C	-0.0076556522	 1.4807629852	-0.0256086544	-0.356301
N	 0.0094589894	 0.0228454467	 0.0019646911	-0.16608
C	 0.0457669763	-0.6967942758	-1.1771351827	 0.042435
C	 0.0637281495	-2.0383612491	-1.2255847746	-0.190241
C	 0.0453204813	-2.8140887157	 0.0015161531	 0.388225
N	 0.061563148	-4.0933985582	 0.0031538194	-0.543435
N	 0.0085394694	-2.0046185218	 1.1521672576	-0.453672
C	-0.0111654445	-0.6238152465	 1.2359273245	 0.505825
O	-0.0420679082	-0.039747271	 2.300501712	-0.406573
H	 0.8916701143	 1.867271917	-0.5156196818	 0.137922
H	-0.8909719585	 1.8453338191	-0.5595490702	 0.137892
H	-0.0372982769	 1.8294202211	 1.0049475501	 0.182082
H	 0.0589056639	-0.0879940593	-2.0736975389	 0.13286
H	 0.0921228965	-2.5724869912	-2.1634304811	 0.12591
H	 0.0445549439	-4.4721764682	 0.9514181871	 0.203505
H	-0.0063255923	-2.4542766625	 2.0565704786	 0.259646
65.4088	105.1436	156.8951	215.9815	335.9777	387.143	403.4538	460.94	544.197	613.6072	615.7851	702.921	752.5988	765.0184	804.4193	808.1389	842.473	965.9041	974.2132	1030.8691	1138.8823	1159.3717	1181.0247	1219.1882	1282.7535	1345.3687	1404.3368	1420.418	1446.0118	1469.665	1503.1873	1511.2542	1680.9675	1730.8671	1802.6814	3038.1715	3096.8255	3177.5224	3202.9474	3254.3101	3460.8148	3616.3751
CN1C=CC(=N)NC1=O	CN1[CH]C=C([NH])NC1=O	
InChI=1S/C5H7N3O/c1-8-3-2-4(6)7-5(8)9/h2-3H,1H3,(H2,6,7,9)	InChI=1S/C5H7N3O/c1-8-3-2-4(6)7-5(8)9/h2-3H,1H3,(H2,6,7,9)
