21
gdb 121977	2.45152	0.78666	0.66232	2.1946	76.81	-0.2473	-0.0236	0.2237	1728.3669	0.178817	-461.361419	-461.350457	-461.349513	-461.399556	37.774	
C	-0.0167311836	 1.556182824	 0.1161550255	-0.400329
C	-0.0221774348	 0.0278242754	 0.058794332	 0.124089
C	 0.7567296253	-0.4987222747	-1.1544589587	-0.281113
C	 0.6208501304	-1.9953529234	-1.33824544	 0.152155
O	 0.3993166777	-2.5317163072	-2.3940439984	-0.241117
O	 0.5931192889	-0.552102781	 1.2068577918	-0.276381
C	-0.2125324465	-0.6137376583	 2.3745069745	-0.082152
C	 0.6697135391	-1.1810406396	 3.4758967514	-0.058852
O	 1.7903805544	-0.3540328677	 3.7156225066	-0.419548
H	 1.0106743213	 1.9316913491	 0.1553187885	 0.125761
H	-0.5054358917	 1.9739128382	-0.7693364408	 0.124804
H	-0.5509250688	 1.9242019185	 0.9961820442	 0.126388
H	-1.0642767089	-0.327172308	-0.0004522161	 0.080419
H	 0.4422819007	-0.0022836137	-2.0760761521	 0.121875
H	 1.8199049308	-0.2735606858	-0.9887407607	 0.128589
H	 0.7449906805	-2.5855230002	-0.4049119639	 0.088225
H	-0.5635433417	 0.3867000878	 2.6643354489	 0.10238
H	-1.0919627386	-1.2556652799	 2.2058402996	 0.092481
H	 0.1019997196	-1.2384186379	 4.4102492168	 0.110943
H	 0.9730600869	-2.2038331856	 3.2004703235	 0.0942
H	 2.187092299	-0.19538568	 2.8511857172	 0.287184
26.6124	53.3414	78.2768	89.0767	138.0785	201.045	221.3999	244.0191	305.9242	365.2311	407.2331	438.3778	459.5133	516.5604	554.1977	786.3482	817.9917	906.5901	913.7839	946.9748	967.9253	1022.0266	1079.7512	1109.5631	1119.9001	1136.8607	1141.3168	1163.3102	1228.3286	1252.0562	1266.3982	1292.5224	1361.5482	1379.329	1386.5185	1408.0668	1415.2886	1423.7443	1440.6593	1445.801	1490.0433	1492.9501	1499.9759	1510.6933	1831.354	2906.1598	2968.0504	2977.4099	2982.2754	3023.045	3030.0164	3042.7067	3081.9887	3108.1134	3116.8442	3119.9816	3798.3683
CC(CC=O)OCCO	C[C@@H](CC=O)OCCO	
InChI=1S/C6H12O3/c1-6(2-3-7)9-5-4-8/h3,6,8H,2,4-5H2,1H3	InChI=1S/C6H12O3/c1-6(2-3-7)9-5-4-8/h3,6,8H,2,4-5H2,1H3/t6-/m0/s1
