21
gdb 115937	3.21803	1.1809	0.9574	2.5387	78.22	-0.2478	0.0791	0.3269	1272.0258	0.184132	-424.215597	-424.207191	-424.206247	-424.248605	33.011	
O	 0.0027871479	 1.4011179419	 0.2125365196	-0.427707
C	 0.0400929283	 0.0066861463	-0.0083061785	-0.066191
C	-1.3615133681	-0.5892620447	-0.0647502163	 0.117713
C	-1.3882338052	-2.1056396093	-0.2379301482	-0.224796
C	-2.8421217103	-2.602540684	-0.3186069108	-0.237616
C	-3.7524544903	-1.9191168322	 0.6895991787	-0.036011
C	-3.4793903082	-1.9198999906	 2.1789889118	-0.307672
C	-3.2809998999	-0.6613004152	 1.3744530327	 0.099934
O	-1.9616437162	-0.2278156103	 1.1847745054	-0.287832
H	-0.6015987762	 1.526601015	 0.95421197	 0.289413
H	 0.5501436366	-0.1576357244	-0.9632816434	 0.104035
H	 0.6149986389	-0.5121434487	 0.7766974174	 0.085592
H	-1.9170823456	-0.107660357	-0.8864215373	 0.071167
H	-0.8460264963	-2.393070204	-1.1456281632	 0.100771
H	-0.8620788936	-2.5607604332	 0.6098117974	 0.105729
H	-3.2257235959	-2.3805055266	-1.3224789276	 0.103185
H	-2.8845540956	-3.6919093147	-0.204205906	 0.102156
H	-4.8036803877	-1.9319203333	 0.4161588	 0.08929
H	-4.3239832365	-1.9865131246	 2.8561193165	 0.110342
H	-2.5726779226	-2.3965426779	 2.5358620174	 0.117836
H	-3.9765753734	 0.1648288676	 1.5030883544	 0.090662
101.4802	110.4342	180.7069	206.6201	303.9429	367.3018	414.7124	455.5125	462.4777	500.8139	526.7482	657.8488	739.833	788.8091	823.3489	889.4389	909.0669	920.5786	949.1973	1000.1766	1036.3582	1043.8593	1079.9732	1097.5607	1105.412	1110.6969	1122.0538	1138.2074	1185.48	1214.5145	1242.3582	1247.1678	1254.6402	1313.0628	1346.8639	1367.352	1380.5451	1389.6218	1405.2357	1414.3566	1445.2668	1477.9708	1481.3779	1496.0819	1500.4388	2964.0078	2977.3818	3021.7106	3032.683	3057.1516	3073.0366	3081.6412	3124.2374	3132.103	3144.6069	3220.7994	3789.6567
OCC1CCC2CC2O1	OC[C@H]1CC[C@H]2C[C@H]2O1	
InChI=1S/C7H12O2/c8-4-6-2-1-5-3-7(5)9-6/h5-8H,1-4H2	InChI=1S/C7H12O2/c8-4-6-2-1-5-3-7(5)9-6/h5-8H,1-4H2/t5-,6+,7+/m0/s1
