23
gdb 93785	2.26389	1.33542	1.02446	2.9221	85.58	-0.2304	-0.0079	0.2226	1294.7776	0.206386	-388.342251	-388.332832	-388.331888	-388.376239	36.194	
C	-0.1042475065	 1.5798238839	 0.0338937218	-0.402882
C	-0.0155599365	 0.0520352275	-0.0184247975	 0.032989
C	 0.6602355387	-0.4471689744	-1.3042522366	-0.18942
C	 0.7224845065	-1.9799701895	-1.3543055039	-0.236162
C	 1.4372404834	-2.6004476633	-0.1328056742	-0.057225
C	 2.9681497889	-2.4199475642	-0.1840369302	-0.407979
C	 0.8822244955	-2.0219009108	 1.1704271455	 0.374532
O	 0.5942317953	-2.727401812	 2.1103666082	-0.319019
C	 0.7217671479	-0.5075675861	 1.2175169978	-0.295474
H	 0.8951304271	 2.0306820926	 0.0149908241	 0.112964
H	-0.6635611894	 1.9725837711	-0.8217401878	 0.113038
H	-0.6044218816	 1.9188949307	 0.9469369011	 0.116019
H	-1.0394799319	-0.3500538575	-0.0027917951	 0.080422
H	 0.1144071034	-0.0735612466	-2.1784208999	 0.095263
H	 1.6704981546	-0.0206260396	-1.3703274663	 0.095223
H	-0.3019791868	-2.3716768803	-1.3987485977	 0.102366
H	 1.2203562203	-2.3130466718	-2.2725928784	 0.095531
H	 1.2281236096	-3.6740470636	-0.09515733	 0.089799
H	 3.2631215528	-1.3666674238	-0.2101212552	 0.120159
H	 3.4426741574	-2.8804421309	 0.6875348417	 0.131875
H	 3.3712806835	-2.8992898491	-1.082027719	 0.120699
H	 1.7256044381	-0.059282101	 1.2587159284	 0.113002
H	 0.2110173898	-0.2489824712	 2.1489493231	 0.114278
74.8483	104.4201	207.0458	219.5105	240.1448	244.332	287.9112	330.8537	407.9182	413.6167	452.9288	499.076	592.8771	664.8279	753.7607	806.8447	845.3306	882.9661	929.9241	941.6305	963.2801	989.3689	1007.6217	1022.9457	1083.8336	1098.4481	1133.9325	1142.4547	1183.2733	1227.9326	1246.1994	1277.9984	1296.1413	1329.804	1335.1008	1350.5442	1366.2336	1380.0799	1393.1221	1407.1319	1412.2018	1461.9623	1483.5422	1495.3181	1497.4025	1498.7828	1499.8027	1505.9277	1809.5894	2991.5643	3008.9479	3016.9733	3019.7638	3026.3186	3037.3052	3057.3639	3060.5043	3064.6918	3091.6739	3097.0069	3100.8476	3105.6417	3113.7048
CC1CCC(C)C(=O)C1	C[C@H]1CC[C@@H](C)C(=O)C1	
InChI=1S/C8H14O/c1-6-3-4-7(2)8(9)5-6/h6-7H,3-5H2,1-2H3	InChI=1S/C8H14O/c1-6-3-4-7(2)8(9)5-6/h6-7H,3-5H2,1-2H3/t6-,7+/m0/s1
