22
gdb 8005	3.13979	1.62786	1.26655	1.436	78.07	-0.237	0.0813	0.3183	1075.3461	0.200077	-350.230344	-350.221418	-350.220474	-350.263568	33.944	
C	-0.2181330737	 1.4208874631	 0.3859622056	-0.397845
C	 0.0148807134	-0.0158870661	-0.0545431962	 0.157973
C	 1.1988862666	-0.2440724397	-0.9972060315	-0.238776
C	 1.5469702001	-1.7134735561	-0.7185597862	 0.006959
C	 2.9207103303	-2.1692612056	-1.2063808299	-0.417874
C	 1.2859624585	-1.8146701022	 0.8077428046	 0.137793
C	 2.497054859	-1.5813259082	 1.7096567739	-0.39113
O	 0.2977247091	-0.8167002942	 1.0981069036	-0.292631
H	 0.6840082308	 1.8305335835	 0.8511388478	 0.11521
H	-0.4871826285	 2.047736329	-0.4706625889	 0.109302
H	-1.0315548814	 1.4705178477	 1.1154190825	 0.12364
H	-0.9036428021	-0.3957538292	-0.5343834965	 0.060891
H	 0.9511565259	-0.0513479876	-2.0446972819	 0.096153
H	 2.0350371246	 0.4116309702	-0.7221595611	 0.095588
H	 0.7871687167	-2.3317172281	-1.2145872116	 0.075622
H	 3.724412828	-1.5568684292	-0.7862275538	 0.118711
H	 3.1168400503	-3.2122269699	-0.9348628358	 0.115199
H	 2.9850686238	-2.0964774281	-2.2969259507	 0.114031
H	 0.8560518751	-2.7966542118	 1.0505373095	 0.068439
H	 3.0061605175	-0.6435417519	 1.4646956792	 0.111429
H	 2.1641306994	-1.5193065506	 2.7493793142	 0.122983
H	 3.2187336266	-2.4006043748	 1.6294740633	 0.108332
59.2079	127.0226	227.3476	236.788	249.1717	268.8321	283.9437	366.6821	395.6321	457.1022	493.3085	558.1678	665.1903	768.0522	832.9227	885.6402	902.3386	939.682	954.3099	991.8612	1034.5246	1039.7705	1087.9497	1096.7776	1141.8854	1155.0956	1176.2823	1195.0848	1214.4623	1282.212	1326.549	1341.2884	1366.4293	1384.1781	1387.8361	1395.774	1408.9647	1412.4455	1416.2265	1482.356	1484.8401	1491.3114	1492.7865	1499.43	1503.1512	1506.6818	2945.5501	2992.5727	3015.9907	3030.0917	3032.6738	3036.2199	3037.9466	3093.5347	3095.7204	3106.6462	3107.7903	3109.5546	3115.4804	3116.3051
CC1CC(C)C(C)O1	C[C@H]1C[C@@H](C)[C@@H](C)O1	
InChI=1S/C7H14O/c1-5-4-6(2)8-7(5)3/h5-7H,4H2,1-3H3	InChI=1S/C7H14O/c1-5-4-6(2)8-7(5)3/h5-7H,4H2,1-3H3/t5-,6+,7-/m1/s1
