21
gdb 41892	2.13092	1.98327	1.71558	1.5668	81.44	-0.2367	0.0178	0.2545	965.3847	0.18697	-387.105376	-387.098033	-387.097089	-387.136998	30.043	
C	 0.0202350043	 1.5523137598	-0.097441223	-0.199233
C	 1.4256063639	 2.1368057454	 0.1959052612	-0.212126
C	 2.3219261175	 1.0691699862	 0.8557542342	 0.069101
O	 1.5743362018	 0.3777359536	 1.8591560039	-0.269048
C	 0.5150012414	-0.4305673642	 1.3530323305	-0.064472
C	 0.0071308775	 0.0158605267	-0.0322644126	-0.043397
C	 0.7933398898	-0.6606285878	-1.1752068449	-0.259193
C	 2.2918316266	-0.5891380137	-1.0521873771	-0.041098
C	 2.9637459156	 0.1403247727	-0.1629009346	-0.080225
H	-0.6899508321	 1.9279778896	 0.6473473331	 0.100904
H	-0.3468105982	 1.8894762171	-1.0724164683	 0.093228
H	 1.906587794	 2.49540259	-0.71925011	 0.098757
H	 1.3365808426	 2.9948370131	 0.8696239602	 0.097882
H	 3.1194279559	 1.5638097642	 1.4166344076	 0.075097
H	 0.8324272123	-1.4839163183	 1.3172566832	 0.087865
H	-0.2933624966	-0.3550255415	 2.0902335108	 0.09852
H	-1.0326760238	-0.32006992	-0.1214353737	 0.06917
H	 0.5063153948	-1.7211551467	-1.2188246589	 0.104614
H	 0.4777299132	-0.2420306191	-2.1433328915	 0.102664
H	 2.8498474184	-1.215847144	-1.7458986873	 0.085327
H	 4.0494983512	 0.090316297	-0.1523013428	 0.085662
79.3758	227.961	254.9233	313.0712	347.9845	444.2942	449.2355	523.643	565.6144	724.7672	750.3955	783.6325	792.0911	854.5098	880.3183	883.3152	941.5256	953.5198	967.8734	991.5724	1005.4869	1035.0865	1061.8632	1091.2119	1117.6451	1126.5073	1212.9428	1214.1386	1234.213	1250.7992	1273.2933	1299.6437	1347.2123	1353.9481	1358.1671	1373.3303	1384.8349	1394.5523	1417.4496	1422.855	1471.5757	1481.7272	1501.003	1514.1425	1725.1167	2983.7678	2989.45	3013.447	3027.0818	3036.085	3045.5774	3050.1184	3065.5327	3070.6154	3093.2318	3133.706	3163.3551
C1CC2OCC1CC=C2	C1C[C@H]2OC[C@@H]1CC=C2	
InChI=1S/C8H12O/c1-2-7-4-5-8(3-1)9-6-7/h1,3,7-8H,2,4-6H2	InChI=1S/C8H12O/c1-2-7-4-5-8(3-1)9-6-7/h1,3,7-8H,2,4-6H2/t7-,8+/m1/s1
