19
gdb 67889	2.78953	1.89911	1.40249	1.5801	79.87	-0.215	0.0215	0.2365	976.0097	0.160687	-385.866016	-385.858801	-385.857857	-385.897081	29.904	
C	 0.0022379445	 1.4605937738	 0.0886724797	-0.484249
C	 0.0199177913	-0.0528849054	-0.0002537644	 0.271148
C	 1.1086470073	-0.6591845298	-0.8104861088	-0.092318
C	 1.0171593036	-1.8654976645	-1.3721318152	-0.082201
C	-0.185232348	-2.7586703159	-1.1910633822	-0.276889
C	-1.082161278	-2.237727038	-0.0796058957	 0.083119
O	-0.3410834553	-2.1713765705	 1.1838572416	-0.298187
C	-0.5411327073	-0.7685401372	 1.2336547465	 0.062326
C	-1.3414607788	-0.7228553916	-0.0341790578	-0.207912
H	 0.9492157989	 1.8408351025	 0.4878479026	 0.121395
H	-0.1529466821	 1.9140228851	-0.8966343072	 0.123589
H	-0.801571256	 1.8116813043	 0.7444188801	 0.115348
H	 2.0081908483	-0.0630515334	-0.9438899515	 0.079877
H	 1.8364283433	-2.2493496495	-1.9736541983	 0.08687
H	-0.756496034	-2.8597612622	-2.1264878927	 0.10579
H	 0.1398307929	-3.7730806986	-0.9257947131	 0.117841
H	-1.9850338478	-2.8427210187	 0.0511696305	 0.081699
H	-0.6597001298	-0.2978465497	 2.2037711363	 0.100874
H	-2.262334543	-0.2169341008	-0.2932903605	 0.091882
182.6536	216.93	269.3866	301.4315	339.7609	381.8063	496.9889	541.7278	562.4266	681.2763	700.4308	764.1379	825.7742	846.673	876.719	886.8533	914.1605	932.2064	977.1112	989.4458	1014.3227	1033.2661	1035.3725	1054.286	1097.4497	1115.9445	1172.6121	1185.0395	1210.4189	1240.4427	1273.382	1307.6786	1335.5002	1380.2345	1397.6207	1416.212	1428.9442	1460.2007	1489.81	1504.2385	1712.4423	2997.004	3024.6552	3039.3369	3055.7811	3088.1132	3095.7817	3146.7934	3167.601	3172.225	3193.0373
CC12C=CCC3OC1C23	C[C@@]12C=CC[C@H]3O[C@@H]1[C@@H]23	
InChI=1S/C8H10O/c1-8-4-2-3-5-6(8)7(8)9-5/h2,4-7H,3H2,1H3	InChI=1S/C8H10O/c1-8-4-2-3-5-6(8)7(8)9-5/h2,4-7H,3H2,1H3/t5-,6+,7-,8+/m1/s1
