20
gdb 67245	3.19785	1.49689	1.28528	1.7127	83.43	-0.227	0.0908	0.3178	1071.8503	0.171484	-365.933794	-365.926024	-365.92508	-365.965599	31.448	
C	 0.1560787847	 1.5704220999	 0.1380214442	-0.53278
C	-0.0401227597	 0.1049444961	-0.0448891109	 0.376107
C	 0.425665468	-0.8885450282	-1.044552521	-0.201352
N	 0.9038288643	-0.9636544258	 0.3936221265	-0.195911
C	-0.2178663549	-1.6439430793	 1.1257701246	-0.15272
C	-1.2348565807	-0.9078444847	 0.2386005593	-0.2396
C	-0.9421084723	-1.5176291665	-1.139457379	 0.452261
C	-1.8329265981	-1.4859604127	-2.3400019319	-0.357212
C	-1.3994675054	-2.8118171297	-1.7332953117	-0.344598
H	 1.1871749265	 1.8415731502	-0.1093237918	 0.135375
H	-0.5156363446	 2.1439739656	-0.5100033475	 0.124384
H	-0.0331049797	 1.8743024716	 1.1738207576	 0.124432
H	 1.1961369819	-0.8029220736	-1.8008014073	 0.09255
H	-0.2064823468	-2.7394529647	 1.0923829343	 0.096731
H	-0.2046199783	-1.3010057442	 2.1636479268	 0.102097
H	-2.2536745825	-0.6802828452	 0.5501874176	 0.069633
H	-2.8665575834	-1.1810850267	-2.2093625394	 0.11195
H	-1.4052248926	-1.1998323505	-3.2960574935	 0.113014
H	-0.6832808895	-3.413233751	-2.2840646747	 0.114543
H	-2.1452304671	-3.3900498807	-1.1961475721	 0.111096
129.754	202.2487	214.0636	254.7092	268.6098	320.1071	468.503	494.744	569.6327	639.5618	744.5526	753.9848	777.3259	822.6753	883.7927	902.7831	921.674	928.1006	956.2448	973.7449	990.0604	1019.05	1045.9327	1054.7047	1069.0654	1077.1852	1102.6447	1136.025	1157.0054	1183.4463	1192.9727	1198.7494	1221.2836	1257.8513	1303.1322	1398.4081	1411.8029	1446.3471	1463.3351	1481.0755	1491.7164	1505.53	1513.4196	3027.1999	3036.1389	3088.6763	3099.7745	3107.1146	3119.3856	3121.5507	3123.6523	3193.8392	3196.5847	3211.2743
CC12C3N1CC2C31CC1	C[C@@]12[C@H]3N1C[C@@H]2C13CC1	
InChI=1S/C8H11N/c1-7-5-4-9(7)6(7)8(5)2-3-8/h5-6H,2-4H2,1H3	InChI=1S/C8H11N/c1-7-5-4-9(7)6(7)8(5)2-3-8/h5-6H,2-4H2,1H3/t5-,6+,7+,9?/m0/s1
