21
gdb 82178	2.75824	1.60685	1.26672	2.5608	81.96	-0.2188	0.0704	0.2892	1088.9202	0.183942	-383.229029	-383.220752	-383.219808	-383.261232	33.314	
C	 0.1344137427	 1.5926946333	 0.0083792647	-0.390355
C	 0.019343376	 0.0654135924	 0.0039684892	 0.010017
C	 0.6627028002	-0.6085846818	-1.2174839561	-0.054871
N	 2.1069430912	-0.3553014666	-1.3830750683	-0.312389
C	 1.6549133991	-1.6184405136	-0.7647146339	-0.104084
C	 1.6610520864	-1.639696658	 0.7587525014	 0.353564
C	 1.905689182	-2.951963466	 1.4571746467	-0.506532
N	 2.1277759738	-0.371119645	 1.3594468512	-0.347756
C	 0.6768584371	-0.6177052789	 1.2111306071	-0.110356
H	 1.1879678428	 1.8789348751	 0.0055256947	 0.155943
H	-0.3483354481	 2.0274710294	-0.8733258215	 0.101761
H	-0.3421362487	 2.021747354	 0.8961797729	 0.102108
H	-1.0406956879	-0.2221777432	 0.0084468012	 0.066843
H	 0.057713859	-0.7524172146	-2.1085463489	 0.078266
H	 2.362938568	-0.5385781845	-2.3510912115	 0.225373
H	 1.8151358217	-2.5536625536	-1.292075021	 0.075819
H	 2.9457971108	-3.277916939	 1.3379362014	 0.126384
H	 1.6997061274	-2.8706211685	 2.5295895418	 0.113672
H	 1.2624881294	-3.7427184005	 1.0541879306	 0.121829
H	 2.3907702325	-0.5487789526	 2.3275108816	 0.219592
H	 0.0852541846	-0.7572225879	 2.1127514468	 0.075172
142.8589	190.7761	214.1644	220.9359	247.9848	300.4955	361.2969	434.7165	517.3137	553.5828	594.8193	679.0326	743.573	790.3248	838.9529	858.57	872.1337	902.3876	912.9701	934.5975	959.7384	1007.0212	1034.1349	1060.3497	1072.9	1110.1983	1123.9813	1129.6516	1138.4681	1161.1025	1190.5121	1246.4962	1284.9261	1302.9496	1336.4947	1341.284	1375.2082	1397.7618	1417.2919	1428.2788	1449.0018	1485.9697	1494.1876	1502.329	1503.517	3017.024	3021.4218	3035.6158	3082.345	3094.3217	3095.1007	3132.5798	3138.1753	3140.6005	3158.7406	3474.028	3485.8412
CC1C2NC2C2(C)NC12	C[C@H]1[C@H]2N[C@H]2[C@@]2(C)N[C@@H]12	
InChI=1S/C7H12N2/c1-3-4-6(8-4)7(2)5(3)9-7/h3-6,8-9H,1-2H3	InChI=1S/C7H12N2/c1-3-4-6(8-4)7(2)5(3)9-7/h3-6,8-9H,1-2H3/t3-,4+,5-,6+,7-/m0/s1
