19
gdb 35910	2.98381	1.36878	1.0536	3.5969	79.07	-0.2355	0.0331	0.2686	1148.5109	0.162221	-382.067824	-382.059977	-382.059033	-382.100337	30.406	
N	-0.0386566169	-1.1780067265	-0.0950214131	-0.324358
C	-0.0206143847	-0.0236052995	-0.0366570871	 0.269803
C	 0.0067825811	 1.4386276706	 0.0511548326	-0.174206
C	-0.7878539653	 1.9599168785	 1.269703492	-0.217115
C	-0.5668252088	 3.4688753685	 1.394344207	-0.214284
C	 0.9013990071	 3.7891301946	 1.6908477288	-0.145794
N	 1.8679525851	 3.1165526831	 0.8006386401	-0.102201
C	 2.3492666695	 1.7934690921	 1.1924899561	-0.239688
C	 1.4525016334	 1.9482507284	 0.0203657067	-0.000184
H	-0.4923765308	 1.8220790795	-0.8486356931	 0.128794
H	-1.8458898303	 1.720126888	 1.1323995854	 0.121167
H	-0.4642273229	 1.4465851839	 2.1821537524	 0.120294
H	-0.8745370189	 3.9573271911	 0.4605317072	 0.107422
H	-1.1938425129	 3.8861782695	 2.1887644595	 0.107681
H	 1.0685207177	 4.8680510295	 1.6013883558	 0.112287
H	 1.1294003281	 3.5206891923	 2.7301540157	 0.10578
H	 3.4112745105	 1.6104180415	 1.0518227297	 0.121745
H	 1.9310573598	 1.3430077141	 2.0915623994	 0.11449
H	 1.8938389894	 1.907495941	-0.9733902452	 0.108367
78.9641	138.8329	188.6475	275.6923	341.8148	377.0011	428.332	445.6621	545.5863	591.8558	611.1347	720.3214	776.9836	876.6763	887.0624	903.7991	929.7459	962.3093	1019.2515	1036.4243	1067.1324	1074.2303	1109.4814	1124.1267	1162.6681	1170.0103	1204.0542	1229.9183	1284.7964	1318.612	1331.4004	1336.5211	1360.6233	1381.5747	1388.3852	1415.4595	1487.0096	1498.5402	1502.6856	1522.9529	2354.4605	3020.4485	3021.1212	3025.0434	3049.3258	3061.1213	3081.9208	3092.1434	3096.4821	3121.0882	3177.1848
N#CC1CCCN2CC12	N#C[C@H]1CCCN2C[C@@H]12	
InChI=1S/C7H10N2/c8-4-6-2-1-3-9-5-7(6)9/h6-7H,1-3,5H2	InChI=1S/C7H10N2/c8-4-6-2-1-3-9-5-7(6)9/h6-7H,1-3,5H2/t6-,7+,9?/m1/s1
