23
gdb 105221	1.81075	1.42721	1.09177	1.9064	81.39	-0.2534	0.0787	0.3321	1291.0019	0.202869	-425.41266	-425.401718	-425.400774	-425.448556	40.089	
C	 0.6498118628	-0.7812382156	-1.2545856839	-0.394251
C	-0.2375517533	-0.3738470972	-0.0667987948	-0.055903
C	-1.6997385612	-0.7943885299	-0.2702627536	-0.402856
C	 0.3900570613	-0.8106205011	 1.2644865866	 0.342638
C	 1.3245512471	 0.2344639481	 1.8600367876	-0.120344
O	 0.606696384	 1.3938016794	 2.2479579605	-0.417246
O	-0.4817474389	-1.3521756315	 2.2834301791	-0.307903
C	 0.5495966712	-2.1966872109	 1.7469302346	 0.031429
C	 0.1380274921	-3.4620474755	 1.0384059845	-0.433088
H	 0.6641071531	-1.8679027853	-1.3894732062	 0.115831
H	 0.2776057514	-0.3354999275	-2.1826069962	 0.115611
H	 1.6846476222	-0.4484389703	-1.1219826925	 0.113598
H	-0.24041972	 0.7221647325	-0.0154436091	 0.098983
H	-1.8063762279	-1.857775318	-0.5019666618	 0.115622
H	-2.2980069962	-0.5869265433	 0.619222555	 0.129407
H	-2.1247581384	-0.2371678087	-1.1116405863	 0.109122
H	 1.8678037101	-0.1984158965	 2.7125260404	 0.088467
H	 2.0625721077	 0.5625731579	 1.1201133826	 0.109282
H	-0.0765658183	 1.092445805	 2.8588659438	 0.292792
H	 1.3696335139	-2.3570505792	 2.4524189824	 0.081229
H	-0.6857560449	-3.3047063086	 0.3441055264	 0.134418
H	 0.9888082472	-3.8747184701	 0.4856076492	 0.124231
H	-0.1742695051	-4.2116966138	 1.7734780316	 0.12893
52.3851	81.9988	157.1543	174.2173	183.4639	217.0256	223.5075	249.5406	282.0241	310.8211	365.1694	408.2529	457.8666	481.8724	493.6081	642.5165	672.023	779.7502	887.244	917.9813	937.2722	948.8293	972.157	996.3683	1016.9676	1071.5884	1107.3932	1133.0906	1147.3954	1160.0772	1182.9479	1211.5033	1247.9658	1342.4233	1352.9938	1392.6647	1397.0366	1401.7074	1410.2002	1422.0403	1427.6014	1469.288	1481.8241	1489.4388	1492.6276	1497.8869	1506.0724	1509.1348	1513.2358	2996.2287	3026.0598	3031.8484	3041.1459	3044.5976	3064.7624	3074.6729	3097.2978	3098.6963	3101.1179	3106.9886	3132.005	3165.3055	3790.2167
CC(C)C1(CO)OC1C	CC(C)[C@@]1(CO)O[C@H]1C	
InChI=1S/C7H14O2/c1-5(2)7(4-8)6(3)9-7/h5-6,8H,4H2,1-3H3	InChI=1S/C7H14O2/c1-5(2)7(4-8)6(3)9-7/h5-6,8H,4H2,1-3H3/t6-,7+/m0/s1
