15
gdb 96906	3.96831	1.07273	0.9338	3.005	75.84	-0.2744	-0.0238	0.2506	1240.3645	0.111661	-416.781019	-416.772756	-416.771812	-416.814396	29.739	
C	 0.0231905106	 1.3923875277	-0.0924270255	-0.34506
N	-0.0751607454	-0.0601083738	-0.1265534516	-0.331734
C	 0.5525285598	-0.7066691428	-0.9833611367	 0.487089
O	 1.3982949956	-0.2641093963	-2.0291534496	-0.305448
C	 1.493986996	-1.618868269	-2.5221954371	 0.335035
C	 2.154667774	-2.4870668652	-1.498679163	-0.324701
C	 0.6770341895	-2.1500137894	-1.3482065774	-0.273397
C	 1.4001646968	-1.8529817717	-3.9236317131	 0.227885
N	 1.3344427905	-2.0606068637	-5.0595402554	-0.335084
H	 0.6358730824	 1.8179180236	-0.8946064849	 0.135737
H	-0.9850800982	 1.8144097516	-0.1506802268	 0.138803
H	 0.4422544636	 1.6943520094	 0.8730719541	 0.137831
H	 2.3524618108	-3.5102359528	-1.8007182021	 0.155104
H	 2.893568441	-2.0334434428	-0.8464853407	 0.149365
H	-0.1024217571	-2.8967730449	-1.3215628202	 0.148576
83.8031	91.2031	149.5008	192.423	227.844	316.0765	433.0443	468.6821	523.1061	537.393	607.9493	678.4693	738.6498	846.2721	887.1593	927.0635	962.7562	989.2835	1019.4578	1066.6615	1070.1412	1097.4325	1133.748	1163.1018	1206.9437	1263.2971	1371.0683	1440.7804	1474.0516	1490.9743	1497.7707	1873.3709	2356.9949	3026.0069	3095.4515	3100.5418	3133.7068	3230.7458	3240.7623
CN=C1OC2(CC12)C#N	CN=C1O[C@]2(C[C@@H]12)C#N	
InChI=1S/C6H6N2O/c1-8-5-4-2-6(4,3-7)9-5/h4H,2H2,1H3	InChI=1S/C6H6N2O/c1-8-5-4-2-6(4,3-7)9-5/h4H,2H2,1H3/t4-,6+/m0/s1
