19
gdb 72802	2.67291	1.55684	1.28155	3.6488	81.51	-0.2312	-0.0429	0.1882	1061.3891	0.160082	-385.922251	-385.914246	-385.913301	-385.95482	31.181	
C	-0.2134918391	 1.5481233315	 0.00756428	-0.470024
C	 0.014433593	 0.0402910049	 0.0007199423	 0.297221
C	-1.2292546919	-0.8483987457	 0.3659109591	-0.271965
C	-0.389173936	-1.5692732528	 1.4521940234	-0.224698
C	 0.8171103101	-0.6103213438	 1.1667042459	-0.177456
C	 2.0234587803	-1.293912371	 0.5265380265	 0.37304
O	 2.9213456962	-1.8636636815	 1.1039448371	-0.339431
C	 1.8484491866	-1.1568552005	-0.9434007058	-0.194013
C	 0.7508127196	-0.4422947581	-1.2224467392	-0.105883
H	 0.7335893497	 2.0930958944	-0.067358741	 0.123958
H	-0.8444400108	 1.8534473612	-0.8355112102	 0.118005
H	-0.7140237075	 1.8618947857	 0.9293116662	 0.11933
H	-2.055041613	-0.259046874	 0.7732707799	 0.104293
H	-1.6182129038	-1.4739788616	-0.441023613	 0.102403
H	-0.7864804128	-1.4922396565	 2.4654013633	 0.114076
H	-0.173869225	-2.6208126809	 1.2507816966	 0.116963
H	 1.105257679	 0.0262483094	 2.0041660298	 0.088638
H	 2.5351278264	-1.6021357525	-1.6525701119	 0.114632
H	 0.3868492691	-0.218544438	-2.2219638793	 0.11091
64.2349	173.2889	219.8418	229.9592	287.3743	322.6862	387.6788	487.3246	566.3245	620.2492	710.2859	719.6604	745.5433	804.7485	848.9179	864.7164	908.2712	931.0068	959.9566	968.2287	996.0357	1005.6575	1063.0734	1100.9706	1131.6643	1171.4386	1180.8515	1210.8565	1230.0213	1250.6011	1268.0177	1276.6593	1300.788	1369.0304	1406.6934	1479.1074	1490.9404	1492.8027	1497.3794	1638.9139	1808.602	3023.8608	3058.0249	3075.0015	3090.5701	3100.0812	3103.7707	3108.1974	3130.6946	3166.6303	3220.6769
CC12CCC1C(=O)C=C2	C[C@]12CC[C@H]1C(=O)C=C2	
InChI=1S/C8H10O/c1-8-4-2-6(8)7(9)3-5-8/h3,5-6H,2,4H2,1H3	InChI=1S/C8H10O/c1-8-4-2-6(8)7(9)3-5-8/h3,5-6H,2,4H2,1H3/t6-,8+/m0/s1
