21
gdb 89720	2.44339	1.43661	1.07399	2.0926	85.47	-0.2276	0.017	0.2446	1204.0896	0.182523	-387.09546	-387.086487	-387.085543	-387.128989	35.001	
C	-0.3172157546	 1.4414312874	 0.0105143109	-0.507791
C	-0.1753451829	-0.0481722977	-0.041049232	 0.278896
C	-0.1380337252	-0.8045716754	-1.145717005	-0.238887
C	 0.0973537264	-2.2638967471	-0.8454538477	 0.093485
O	 1.4003938144	-2.6908733575	-1.2544793259	-0.43762
C	-0.1406157299	-2.3436758189	 0.6863296386	-0.33017
C	-0.0497694832	-0.8978867562	 1.1855722237	 0.286008
C	 0.8713519463	-0.5010483172	 2.3267479528	-0.31568
C	-0.620050457	-0.493581683	 2.5252768857	-0.318199
H	 0.5130114328	 1.9079788427	 0.5549022336	 0.128415
H	-0.3439165653	 1.8706375418	-0.9939977273	 0.128752
H	-1.2378269844	 1.7362699939	 0.5285985326	 0.132126
H	-0.1834093371	-0.4258811416	-2.161181294	 0.088367
H	-0.5795745222	-2.9311859008	-1.3882654512	 0.082144
H	 2.0209894359	-2.0138236174	-0.9623440731	 0.272195
H	-1.1423746823	-2.7418401387	 0.8824170845	 0.102981
H	 0.5821493213	-3.018329819	 1.1529858285	 0.103811
H	 1.4495355384	-1.2917136021	 2.7937364187	 0.115916
H	 1.384777308	 0.4534219494	 2.2742414835	 0.110666
H	-1.1174745569	 0.466856542	 2.6098369272	 0.110769
H	-1.0621153424	-1.2761489046	 3.133514656	 0.113814
61.2964	131.1262	183.0563	247.7807	251.739	313.9435	328.3827	353.4723	421.2995	462.7775	526.5482	596.1425	644.7894	762.4132	779.6817	814.1902	849.402	875.8866	908.8232	935.9503	958.0924	986.6016	1014.9038	1050.7194	1059.247	1066.1734	1067.865	1081.9178	1127.6736	1191.4049	1196.8632	1254.8531	1265.7087	1281.176	1312.4585	1337.878	1384.7666	1413.9987	1430.7623	1463.1123	1480.2739	1484.2653	1488.185	1500.4944	1696.4012	3024.0804	3039.0939	3061.8137	3071.5057	3097.2895	3117.1931	3125.1981	3128.9214	3190.0506	3202.9785	3218.3871	3797.1496
CC1=CC(O)CC11CC1	CC1=C[C@@H](O)CC21CC2	
InChI=1S/C8H12O/c1-6-4-7(9)5-8(6)2-3-8/h4,7,9H,2-3,5H2,1H3	InChI=1S/C8H12O/c1-6-4-7(9)5-8(6)2-3-8/h4,7,9H,2-3,5H2,1H3/t7-/m1/s1
