19
gdb 7176	2.35006	1.38102	0.96259	2.5243	69.04	-0.2509	0.0305	0.2814	1230.2707	0.163974	-402.224584	-402.214757	-402.213813	-402.260225	33.964	
C	 0.1872645394	 1.803447022	-0.2231544297	-0.403977
C	 0.062787694	 0.2922556414	-0.0102632585	 0.029221
C	 0.6938043141	-0.4994173215	-1.1664465061	-0.158629
C	 0.4494864665	-2.002105602	-1.0981070552	-0.080757
O	 1.0659040976	-2.5805786042	-2.2410619204	-0.425492
N	 0.6401443733	-0.0714582908	 1.2849378416	-0.270668
C	 0.0334927127	-0.899051089	 2.1740930442	 0.156463
O	-1.0292280377	-1.4599694521	 1.9990773686	-0.333399
H	 1.2391853629	 2.1097381631	-0.278887582	 0.112955
H	-0.291125554	 2.1001658493	-1.1606538253	 0.127451
H	-0.2862666933	 2.3525847256	 0.5953446813	 0.124592
H	-0.9948708591	 0.0221405605	 0.0678041004	 0.121789
H	 0.2864201241	-0.1279023607	-2.1139439962	 0.108303
H	 1.7757921913	-0.3158669666	-1.1981376044	 0.095261
H	 0.8702144808	-2.4130035636	-0.1689953567	 0.093415
H	-0.6325376989	-2.2025289361	-1.0783265901	 0.100483
H	 0.9243677367	-3.5309465313	-2.2058684627	 0.286048
H	 1.5325040062	 0.3246781295	 1.5383758487	 0.243215
H	 0.6276720636	-1.0105556035	 3.1034567226	 0.073727
35.0219	78.5571	105.6989	161.1805	206.0088	217.3069	251.0436	268.4451	342.9016	373.5363	462.7663	507.5028	544.06	758.4348	799.5607	876.1725	931.2494	984.9893	1018.8556	1030.9722	1064.8825	1116.8699	1151.7626	1159.9792	1207.8611	1241.8894	1249.5633	1314.6946	1320.3353	1360.6323	1395.074	1411.2512	1429.8876	1464.6354	1482.777	1493.1373	1498.0185	1521.2724	1530.402	1798.0396	2929.56	2984.9404	3015.2061	3025.6351	3030.4232	3068.2541	3079.4548	3102.9253	3121.8579	3619.8228	3830.9728
CC(CCO)NC=O	C[C@@H](CCO)NC=O	
InChI=1S/C5H11NO2/c1-5(2-3-7)6-4-8/h4-5,7H,2-3H2,1H3,(H,6,8)	InChI=1S/C5H11NO2/c1-5(2-3-7)6-4-8/h4-5,7H,2-3H2,1H3,(H,6,8)/t5-/m0/s1
