17
gdb 24275	3.90334	1.64639	1.27861	3.7813	77.26	-0.2112	0.0346	0.2459	969.7047	0.140427	-380.903121	-380.896755	-380.89581	-380.93375	26.191	
C	-0.0521505045	 1.459581463	 0.105833521	-0.298897
C	 1.2923420026	 0.766248954	 0.0360884469	-0.04344
C	 2.0179129807	 0.4113395666	 1.3416743745	-0.3677
C	 1.0365659228	-0.5052563033	 2.0209639378	 0.362408
N	 0.9188560729	-1.0805897175	 3.1938712315	-0.357518
C	-0.2883446858	-1.7483110458	 3.1268333986	-0.095576
C	-0.9025736761	-1.5548748259	 1.911316576	-0.165801
N	-0.0272193805	-0.7633613479	 1.2049498835	 0.027868
C	 0.0081551145	-0.0412109905	-0.0336530157	-0.019766
H	-0.3915048725	 1.8580344216	 1.056483512	 0.131997
H	-0.3553474675	 2.0321731767	-0.7642617427	 0.12192
H	 1.8851069892	 0.9099044942	-0.8584646428	 0.101805
H	 2.9689666509	-0.0936991851	 1.1374170212	 0.128023
H	 2.2463540169	 1.2918372022	 1.9505803019	 0.133825
H	-0.6468218513	-2.3386237046	 3.9568973613	 0.103603
H	-1.8351330391	-1.9033512362	 1.5007245988	 0.124649
H	-0.3366517532	-0.5568907516	-0.9212466938	 0.112601
127.6839	226.1404	323.1934	424.0458	448.5486	615.1568	639.9413	696.3896	713.2402	720.2094	771.1427	803.4386	813.0524	842.2106	890.8906	946.8765	973.7139	995.6272	1047.184	1070.7367	1080.9926	1093.485	1104.0006	1149.9693	1179.1784	1189.106	1201.7768	1280.1596	1292.0131	1318.7287	1360.1275	1432.3981	1450.7661	1475.1812	1489.2538	1502.415	1573.7068	3041.6455	3078.7552	3129.9908	3186.331	3192.9323	3221.7068	3244.383	3281.7806
C1C2CC3=NC=CN3C12	C1[C@H]2Cc3nccn3[C@@H]12	
InChI=1S/C7H8N2/c1-2-9-6-3-5(6)4-7(9)8-1/h1-2,5-6H,3-4H2	InChI=1S/C7H8N2/c1-2-9-6-3-5(6)4-7(9)8-1/h1-2,5-6H,3-4H2/t5-,6-/m0/s1
