16
gdb 129573	4.14244	0.95867	0.92464	1.8419	66.74	-0.2681	-0.0341	0.234	1275.5514	0.125819	-471.191853	-471.183525	-471.182581	-471.226162	29.844	
N	-0.0859360378	 1.3831106052	 0.1665944846	-0.525349
C	-0.0452177914	-0.0753618821	-0.0011114005	-0.127031
C	-1.5014868959	-0.5900657018	 0.0594445946	-0.049395
O	-2.1111379392	-0.1704156152	 1.251722966	-0.416492
C	 0.6504057214	-0.539820364	-1.2449300407	 0.428841
N	 1.5824094826	-1.4386283809	-1.3736417566	-0.316065
C	 1.7971951738	-1.4296746813	-2.7304675078	 0.03574
N	 1.064938518	-0.5907921975	-3.4087525848	-0.110082
O	 0.2838398717	 0.0122090802	-2.4123936614	-0.208888
H	 0.8339211217	 1.7484767188	 0.3894363903	 0.248242
H	-0.3818098546	 1.8280322544	-0.6981548128	 0.249558
H	 0.4975577352	-0.502305847	 0.8457377411	 0.12943
H	-2.0403306304	-0.2301851473	-0.8340648229	 0.095704
H	-1.5131260917	-1.684124019	 0.0380509659	 0.123822
H	-1.8437886456	 0.7544001193	 1.359018124	 0.290016
H	 2.5212882523	-2.0626865717	-3.222591359	 0.151949
26.3614	117.0815	119.2682	220.4473	294.1075	307.0463	365.7128	400.7799	524.1431	550.2322	656.932	764.3388	779.1363	888.5903	902.2559	925.5717	933.5114	978.5525	999.5501	1026.828	1099.1083	1121.4298	1169.7081	1186.8911	1244.3058	1277.1298	1287.3958	1329.944	1376.6459	1400.9437	1446.6172	1510.9261	1512.4645	1614.7885	1660.0264	2960.0484	3082.3875	3099.2022	3261.9888	3499.0934	3582.5607	3723.9736
NC(CO)C1=NC=NO1	N[C@@H](CO)c1ncno1	
InChI=1S/C4H7N3O2/c5-3(1-8)4-6-2-7-9-4/h2-3,8H,1,5H2	InChI=1S/C4H7N3O2/c5-3(1-8)4-6-2-7-9-4/h2-3,8H,1,5H2/t3-/m0/s1
