23
gdb 60488	4.75623	0.50107	0.47076	4.2585	84.73	-0.2762	0.0102	0.2863	2331.893	0.203102	-425.461774	-425.450582	-425.449638	-425.500025	38.801	
C	 0.0740367179	 1.5944081843	-0.084135487	-0.383119
C	 0.0314594119	 0.0604153027	-0.0413967254	 0.040947
C	-1.4182517694	-0.4383560227	 0.0279310145	-0.389791
C	 0.7607094523	-0.5841592365	-1.2353395884	-0.17301
C	 2.2663195446	-0.3009222413	-1.3008013485	-0.198846
C	 2.9395568045	-1.0572484784	-2.4402353547	-0.09058
O	 4.3581804829	-0.8406643733	-2.4290912215	-0.173773
C	 4.8807581085	-0.0242908183	-3.360307099	 0.170537
O	 6.0423612058	 0.2487446825	-3.4072968475	-0.275662
H	 1.0964086667	 1.9817204283	-0.0506726366	 0.116544
H	-0.3983826623	 1.9727752005	-0.9990078491	 0.111056
H	-0.4659436169	 2.0219441914	 0.7668453711	 0.114484
H	 0.5442478027	-0.2671296584	 0.8747135472	 0.075164
H	-1.9781092897	-0.141941048	-0.8673503518	 0.112354
H	-1.4627831723	-1.5301421634	 0.1011969828	 0.110418
H	-1.939046951	-0.0218413528	 0.8961085287	 0.112729
H	 0.6073203224	-1.6710869046	-1.1902314633	 0.094089
H	 0.2820847165	-0.2499538595	-2.1675490215	 0.09315
H	 2.4554635098	 0.7702882999	-1.4341604418	 0.108871
H	 2.7472140745	-0.5901197013	-0.3586091733	 0.116692
H	 2.7958683828	-2.1370681857	-2.3361732336	 0.125212
H	 2.5246624171	-0.7558545026	-3.4116837715	 0.109587
H	 4.1205929706	 0.3535908572	-4.0736256198	 0.072949
30.7976	43.9844	85.3579	112.2495	133.7103	171.6313	221.8034	246.8337	272.3125	318.5992	377.8091	401.3171	427.643	488.138	674.7579	752.42	818.3394	855.7992	927.7676	948.2032	964.7785	1018.1817	1035.3161	1046.2431	1047.2177	1058.557	1143.1512	1151.3971	1193.7607	1209.8828	1263.3729	1279.743	1322.1817	1334.2358	1348.4487	1373.359	1393.4038	1401.5405	1410.4795	1424.9705	1433.8845	1479.1007	1488.6707	1494.1212	1496.4155	1505.7853	1511.0909	1513.788	1866.6739	2933.1879	2994.6066	3002.3324	3016.9774	3023.7318	3029.2886	3035.3777	3038.0633	3071.7733	3088.599	3094.2141	3095.5185	3100.7496	3107.7165
CC(C)CCCOC=O	CC(C)CCCOC=O	
InChI=1S/C7H14O2/c1-7(2)4-3-5-9-6-8/h6-7H,3-5H2,1-2H3	InChI=1S/C7H14O2/c1-7(2)4-3-5-9-6-8/h6-7H,3-5H2,1-2H3
