14
gdb 26010	4.99529	0.9923	0.96248	1.9606	63.42	-0.2482	-0.0063	0.2419	1224.1216	0.100223	-473.87924	-473.871183	-473.870239	-473.913489	27.797	
C	-0.277417083	 1.4337758145	 0.0040206132	-0.485478
C	 0.2583136986	 0.0280721598	-0.0288975661	 0.404777
O	 1.1895319969	-0.4060741273	 0.5812825222	-0.311046
O	-0.498869684	-0.7322800032	-0.9006828712	-0.282734
C	-0.2290874646	-2.0691954609	-0.9546402773	 0.361178
C	 0.3983797998	-2.7511290223	-1.9408821754	-0.131307
O	 0.3561039869	-4.0744797151	-1.5971476141	-0.134882
C	-0.2975228294	-4.0971272014	-0.4154016334	 0.091473
N	-0.6749081766	-2.9386124919	 0.0176023332	-0.299072
H	 0.3808603256	 2.0586712759	 0.6057879887	 0.15347
H	-0.3600723124	 1.832307768	-1.0104192177	 0.153557
H	-1.2827307897	 1.4302074184	 0.4357533371	 0.161979
H	 0.8829005339	-2.490752365	-2.8640464747	 0.158425
H	-0.442428612	-5.0623812795	 0.0427047055	 0.15966
42.4553	75.141	102.5238	118.3504	335.3319	350.9795	441.8615	587.7923	596.1974	638.1183	685.2409	741.5508	800.9868	844.3429	900.1311	933.3804	1001.5027	1033.7294	1063.4314	1090.2661	1148.9378	1215.6183	1245.3512	1299.2695	1348.6224	1394.8782	1468.4743	1474.3614	1556.1288	1638.4834	1869.1038	3059.2212	3125.2347	3173.1663	3282.2037	3310.5111
CC(=O)OC1=COC=N1	CC(=O)Oc1cocn1	
InChI=1S/C5H5NO3/c1-4(7)9-5-2-8-3-6-5/h2-3H,1H3	InChI=1S/C5H5NO3/c1-4(7)9-5-2-8-3-6-5/h2-3H,1H3
