19
gdb 82450	2.37467	1.76261	1.38451	2.225	74.64	-0.2193	0.0617	0.281	1015.9448	0.158381	-422.970204	-422.961858	-422.960914	-423.00234	33.533	
C	-0.0286126438	 1.6012620732	-0.065948134	-0.430546
C	 0.0813242083	 0.0832817084	-0.0073916418	-0.016647
C	 1.1388588218	-0.7065243636	-0.8578592054	-0.089298
C	 2.5320135806	-0.1256111478	-0.4635517495	-0.297025
C	 2.2343167474	-0.7342505109	 0.8974576871	 0.294985
O	 3.0334228715	-0.8241445589	 2.0238648231	-0.474998
C	 1.2595593411	-1.7537920203	 0.3214763024	-0.260387
C	 0.7313411446	-0.6115902852	 1.1768757105	 0.388041
O	 0.2697847187	-0.6193948796	 2.4718181758	-0.48193
H	 0.9257319022	 2.0940104189	 0.1401466979	 0.116647
H	-0.3775182335	 1.934418174	-1.0497458598	 0.110707
H	-0.7477541083	 1.9562828746	 0.6794917892	 0.126067
H	-0.9007585734	-0.3705706165	-0.186492154	 0.076654
H	 0.9268798625	-0.9651919707	-1.8917735514	 0.074581
H	 3.3365788035	-0.6629404431	-0.9771916831	 0.089795
H	 2.6962699423	 0.9533586777	-0.5515647077	 0.093845
H	 3.6986864092	-1.5072364542	 1.8886653845	 0.292768
H	 1.1850957883	-2.8296893949	 0.3800601648	 0.094712
H	 1.0473504871	-0.620827201	 3.0467764813	 0.292028
158.4816	179.1699	215.6539	242.2886	303.7688	312.7333	359.3432	416.1106	468.4028	483.5927	574.5812	620.4175	671.2966	680.0031	766.4476	791.5526	840.5464	867.3051	914.7516	939.9589	993.9921	1033.6004	1060.1003	1079.5693	1087.1933	1117.5516	1131.1091	1139.9627	1192.6326	1229.1645	1255.441	1264.9826	1287.5467	1345.4948	1377.0536	1406.2253	1425.8945	1445.9176	1492.0686	1496.3941	1516.9124	3032.5884	3036.0355	3038.8577	3086.4318	3097.708	3112.616	3151.4292	3226.6209	3750.8845	3802.7366
CC1C2CC3(O)C2C13O	C[C@H]1[C@H]2C[C@]3(O)[C@H]2[C@]13O	
InChI=1S/C7H10O2/c1-3-4-2-6(8)5(4)7(3,6)9/h3-5,8-9H,2H2,1H3	InChI=1S/C7H10O2/c1-3-4-2-6(8)5(4)7(3,6)9/h3-5,8-9H,2H2,1H3/t3-,4+,5-,6-,7+/m0/s1
