19
gdb 85251	2.45134	1.60107	1.20388	2.0183	76.36	-0.2367	-0.0215	0.2153	1097.7755	0.158264	-423.045555	-423.03707	-423.036126	-423.078766	32.586	
C	 0.7039442873	 1.2587318279	 0.2666332797	-0.392485
C	-0.147834456	 0.0422363819	-0.0891470933	 0.093513
C	 0.3616732774	-0.7242642758	-1.3208031047	-0.351356
C	 1.2350500015	-1.8200757906	-0.7075528635	 0.329851
O	 2.0428755755	-2.5206422438	-1.2651316525	-0.32985
C	 0.892781544	-1.843918489	 0.7464169629	 0.330486
C	 0.9470430994	-3.114718634	 1.543269875	-0.318975
C	 1.9971413313	-2.0604272785	 1.7659197811	-0.312346
O	-0.1388754202	-0.9274503627	 0.9836618495	-0.310546
H	 1.760375752	 0.9870407536	 0.3644242565	 0.124877
H	 0.6204600667	 2.0255156934	-0.5107915668	 0.117781
H	 0.3706208374	 1.6882032768	 1.2149873985	 0.128275
H	-1.1926355396	 0.3445682598	-0.1997709999	 0.089
H	-0.4594497392	-1.2097445136	-1.8605360166	 0.138809
H	 0.9242074056	-0.1200764616	-2.0350227601	 0.133292
H	 0.1782691931	-3.231987149	 2.2985729042	 0.131516
H	 1.2264370006	-4.0141190835	 1.0052685422	 0.136663
H	 2.9962100992	-2.2374327536	 1.3825297465	 0.134043
H	 1.927940424	-1.4618525578	 2.6669752712	 0.127452
74.9921	89.7038	216.5879	235.1788	251.4054	325.5502	370.2386	436.0334	462.8528	549.3203	599.2239	666.4139	733.0002	774.3743	815.6139	830.9999	886.7566	913.3312	928.6415	949.1945	1001.2891	1032.864	1055.3477	1076.0784	1085.1812	1100.859	1136.2363	1201.53	1207.8001	1263.5766	1270.8903	1346.68	1355.2619	1385.9398	1406.7751	1439.2128	1449.17	1475.2226	1488.6668	1495.5961	1839.4524	3035.9625	3051.1691	3070.8259	3107.3729	3119.9598	3123.6019	3135.3475	3136.3309	3226.1133	3240.3271
CC1CC(=O)C2(CC2)O1	C[C@H]1CC(=O)C2(CC2)O1	
InChI=1S/C7H10O2/c1-5-4-6(8)7(9-5)2-3-7/h5H,2-4H2,1H3	InChI=1S/C7H10O2/c1-5-4-6(8)7(9-5)2-3-7/h5H,2-4H2,1H3/t5-/m0/s1
