19
gdb 7184	3.24397	1.10436	0.9606	2.279	69.57	-0.2419	-0.0325	0.2094	1252.2392	0.163207	-402.182386	-402.172963	-402.172019	-402.217306	33.007	
C	 0.2144216352	 1.4158828328	-0.0166501681	-0.333083
N	 0.1223739561	-0.0410584418	 0.0059762311	-0.087816
C	 0.7364218754	-0.6334420865	 1.2009775274	-0.159986
C	 1.2239218327	-2.0530013047	 0.9035437275	-0.056409
O	 2.086820392	-2.0620438246	-0.2122910922	-0.41808
C	-1.2446187534	-0.4859092479	-0.2235620079	-0.235096
C	-1.6568030888	-0.3049505541	-1.6765947693	 0.153103
O	-2.7771355852	-0.0698930822	-2.0427825849	-0.232863
H	 1.2613704278	 1.7221782927	 0.0532449478	 0.131503
H	-0.1876227739	 1.8008564714	-0.9595108434	 0.13147
H	-0.3456875157	 1.8938555861	 0.8064991686	 0.1077
H	 1.608060736	-0.0230161607	 1.4566396062	 0.112293
H	 0.0589512235	-0.6243142041	 2.0726914523	 0.088457
H	 1.7822912932	-2.4356253659	 1.76486469	 0.109154
H	 0.3664505917	-2.7322201893	 0.7539471989	 0.084128
H	 1.6902617414	-1.4355516331	-0.8341865754	 0.275651
H	-1.3093600006	-1.5640429589	-0.0251936788	 0.134466
H	-1.9880875829	 0.008503336	 0.4248498811	 0.112581
H	-0.8144366446	-0.4370952753	-2.394472071	 0.082827
59.1345	82.8796	88.0423	150.6015	215.8376	238.1181	267.5829	380.7394	384.1508	437.4038	498.7817	532.5001	556.5816	749.3252	822.6401	889.8443	967.1726	1042.9165	1062.7167	1062.9517	1091.9469	1105.0176	1154.5548	1183.7376	1209.1273	1252.7883	1281.1965	1311.8974	1357.0285	1375.1777	1395.6791	1405.3418	1444.9966	1453.9315	1468.0554	1490.5369	1492.9531	1507.3756	1517.4215	1841.8771	2870.7725	2948.1706	2953.4679	2959.5399	2967.8429	3050.4039	3065.5044	3067.1105	3080.6682	3114.8432	3730.8811
CN(CCO)CC=O	CN(CCO)CC=O	
InChI=1S/C5H11NO2/c1-6(2-4-7)3-5-8/h4,8H,2-3,5H2,1H3	InChI=1S/C5H11NO2/c1-6(2-4-7)3-5-8/h4,8H,2-3,5H2,1H3
