17
gdb 5585	3.24809	1.88683	1.21173	1.272	72.61	-0.1754	0.0489	0.2243	991.1532	0.142241	-363.890356	-363.881952	-363.881008	-363.923644	30.192	
C	-0.0017051066	 1.4106776803	 0.0565170359	-0.241836
O	 0.0223034363	 0.0006330042	 0.0256419893	-0.27219
C	 0.6174290361	-0.5609272562	-1.0672585524	 0.28684
C	 0.7022779546	-1.9289670338	-1.2349138815	 0.194391
C	 0.2192791354	-3.0383674963	-0.3651058263	-0.511328
N	 1.358812557	-2.1270290814	-2.4331934206	-0.292047
C	 1.6812617949	-0.9306689136	-3.0108160288	-0.084778
C	 1.2328512125	 0.076212544	-2.1836256039	-0.285525
H	 1.0123839482	 1.8342693556	 0.0591162645	 0.115247
H	-0.5526145442	 1.826301872	-0.798754327	 0.115287
H	-0.509379379	 1.6950351535	 0.9805692717	 0.125421
H	-0.5174786382	-3.6781353286	-0.8686425279	 0.119533
H	 1.0343084475	-3.687882749	-0.0194345698	 0.119517
H	-0.2614395474	-2.6123324757	 0.5181970893	 0.149263
H	 1.5670386527	-3.0298960292	-2.8212275495	 0.255513
H	 2.1990748334	-0.8859470023	-3.9549390491	 0.113709
H	 1.336347137	 1.1337294665	-2.3627438039	 0.092983
52.5985	85.6653	199.3412	205.5351	229.1665	303.0636	328.6984	426.0255	510.389	606.5574	630.3352	666.0869	692.7245	729.2807	789.6297	913.1649	974.8218	1059.2005	1062.2691	1108.1646	1136.2735	1181.3166	1190.8165	1216.4606	1274.9272	1326.2708	1409.8842	1444.1371	1463.9051	1484.3229	1487.056	1493.7199	1506.195	1510.7698	1529.0505	1652.2853	2991.7832	3006.9179	3044.2394	3046.5879	3123.0109	3126.9516	3256.7529	3275.3245	3684.9879
COC1=C(C)NC=C1	COc1c(C)[nH]cc1	
InChI=1S/C6H9NO/c1-5-6(8-2)3-4-7-5/h3-4,7H,1-2H3	InChI=1S/C6H9NO/c1-5-6(8-2)3-4-7-5/h3-4,7H,1-2H3
