17
gdb 9615	3.20948	1.46576	1.2033	4.6112	69.42	-0.2805	0.027	0.3075	1040.584	0.140609	-363.868668	-363.859966	-363.859022	-363.90177	31.776	
C	 0.0413455096	 1.5461233134	-0.2286704203	-0.402249
C	-0.0053617333	 0.0763462735	 0.2050046741	-0.233359
C	-1.3955867828	-0.5190099201	 0.1030406161	 0.413831
O	-2.3568071643	 0.062235758	 0.9412154072	-0.46827
C	-1.888743588	-1.1013300285	-1.1914187102	-0.339919
C	-1.5894712092	-2.0203220119	-0.0040888547	-0.226122
C	-0.4658860679	-2.9108072365	-0.0480455575	 0.29469
N	 0.4452810752	-3.6232914292	-0.0858899359	-0.347179
H	 1.0575488136	 1.9411645295	-0.1487035393	 0.128201
H	-0.2845549748	 1.6676190889	-1.2674563683	 0.120201
H	-0.5982919915	 2.1701898464	 0.4051308821	 0.114502
H	 0.6852647849	-0.5154720947	-0.4039066654	 0.121953
H	 0.3310303307	-0.016502438	 1.2440311928	 0.120331
H	-2.5618974291	 0.9381266529	 0.5959402041	 0.290513
H	-2.9367517736	-0.978142154	-1.4378907455	 0.129826
H	-1.2101090217	-1.1463514988	-2.0355181522	 0.137772
H	-2.452102568	-2.4007965211	 0.5312075128	 0.14528
90.1009	115.4339	150.6367	221.7566	246.5292	265.9071	342.9842	362.1365	427.5437	450.0091	552.1745	626.4113	699.8865	782.5049	808.7333	897.073	907.3612	951.1749	1003.606	1030.7985	1070.1287	1082.2131	1106.5406	1122.023	1223.1412	1295.5174	1306.1633	1323.9395	1375.4333	1405.9709	1412.0362	1475.5889	1480.0712	1502.1657	1509.7539	2351.9837	3032.6053	3044.7058	3081.7377	3104.3124	3114.7005	3142.6967	3182.3145	3239.0747	3802.5673
CCC1(O)CC1C#N	CC[C@@]1(O)C[C@H]1C#N	
InChI=1S/C6H9NO/c1-2-6(8)3-5(6)4-7/h5,8H,2-3H2,1H3	InChI=1S/C6H9NO/c1-2-6(8)3-5(6)4-7/h5,8H,2-3H2,1H3/t5-,6+/m0/s1
