15
gdb 13750	4.29655	1.45689	1.223	5.2641	64.37	-0.2514	-0.0408	0.2105	984.3818	0.116629	-399.809925	-399.801687	-399.800743	-399.843294	28.442	
C	-0.1692855759	 1.301244085	 0.1831915219	-0.484744
C	 0.3271887455	-0.1040551684	-0.0785324423	 0.387522
O	 0.8157522852	-0.8016657639	 0.7810613071	-0.302787
C	 0.1898887478	-0.5927310858	-1.4990531329	-0.134362
C	 1.455545263	-1.1187499753	-2.1602618711	-0.225613
N	 0.3814325269	-1.9924407659	-1.802589957	-0.062068
C	 0.4934316612	-3.0381708537	-0.8820273764	 0.164381
O	 1.4101455657	-3.81626372	-0.8660562259	-0.285508
H	 0.2684489867	 2.0052878822	-0.5332225361	 0.146707
H	-1.2562464376	 1.3412443995	 0.0442092239	 0.150506
H	 0.0786826686	 1.5991292283	 1.2019724614	 0.153018
H	-0.5345224436	-0.0694656145	-2.1191730883	 0.109779
H	 1.6077978309	-0.935724407	-3.2200674614	 0.135258
H	 2.3496731111	-1.1583477253	-1.5432396778	 0.155003
H	-0.4078749856	-3.1287234253	-0.2521203349	 0.092908
51.0392	107.7523	131.3204	206.3621	225.1962	276.1952	325.6601	415.5467	567.2696	593.8999	675.4372	776.9326	829.8118	949.3078	980.29	989.3712	1029.3778	1055.5751	1064.0699	1100.8317	1126.8175	1157.5678	1194.9574	1354.9586	1381.4378	1416.0712	1419.4403	1461.7973	1472.8167	1500.0015	1800.095	1818.8231	2990.2237	3035.712	3095.6759	3112.1001	3136.3073	3159.6131	3208.648
CC(=O)C1CN1C=O	CC(=O)[C@H]1CN1C=O	
InChI=1S/C5H7NO2/c1-4(8)5-2-6(5)3-7/h3,5H,2H2,1H3	InChI=1S/C5H7NO2/c1-4(8)5-2-6(5)3-7/h3,5H,2H2,1H3/t5-,6?/m1/s1
