16
gdb 22621	2.62862	1.53614	1.23075	1.0166	73.11	-0.2378	0.001	0.2388	1035.9523	0.123392	-437.796193	-437.788316	-437.787372	-437.828324	30.978	
O	-0.0620437496	 1.3052551881	 0.0212561998	-0.397189
N	 0.0391456945	-0.1013511834	 0.1318379849	-0.317662
C	-1.0905673209	-0.6537468244	 0.1576094952	 0.421795
C	-2.5934712553	-0.3624615185	-0.0158984844	-0.184605
C	-2.5638898783	-1.6230235311	-0.9571235236	-0.274026
C	-1.5238926175	-2.1317501969	 0.1244546671	 0.296249
O	-0.6701211898	-3.2031392049	-0.0297632095	-0.483438
C	-2.4233084026	-2.1480011605	 1.3690352487	-0.111178
C	-3.1116007563	-1.0048988494	 1.2824461204	-0.087565
H	 0.8633857633	 1.571748683	 0.0374144646	 0.306151
H	-2.9678149225	 0.6035360022	-0.3375752095	 0.096351
H	-3.4940383466	-2.1901552127	-1.0361586138	 0.107774
H	-2.1123260393	-1.4267338477	-1.9350792422	 0.103811
H	 0.0361725311	-2.9405784261	-0.6300847316	 0.294068
H	-2.410206747	-2.9192021345	 2.1250882302	 0.116738
H	-3.8335944732	-0.5737653429	 1.9603051437	 0.112724
109.0698	149.4409	250.0746	292.4464	325.0545	357.5013	410.2745	434.4513	494.715	608.6213	645.5706	666.0079	691.913	763.9655	792.2251	882.5398	888.4448	901.8068	920.8192	959.39	984.4707	1034.3546	1046.5683	1078.1796	1098.7128	1157.0887	1194.6379	1236.1944	1288.4696	1312.1464	1394.8263	1411.8544	1479.1603	1621.2061	1803.5595	3047.1881	3128.7105	3182.7237	3230.2426	3256.7	3813.0748	3818.2785
ON=C1C2CC1(O)C=C2	ON=C1[C@H]2C[C@]1(O)C=C2	
InChI=1S/C6H7NO2/c8-6-2-1-4(3-6)5(6)7-9/h1-2,4,8-9H,3H2	InChI=1S/C6H7NO2/c8-6-2-1-4(3-6)5(6)7-9/h1-2,4,8-9H,3H2/t4-,6-/m1/s1
