19
gdb 94926	2.30171	1.43406	1.16778	3.7422	76.16	-0.2382	-0.0203	0.2178	1137.171	0.159178	-423.021454	-423.012959	-423.012015	-423.054912	31.651	
C	 0.5252291528	 2.1911051375	 0.6823981956	-0.408379
C	 0.1156456122	 0.717081121	 0.652392911	-0.010405
C	 0.0446479077	 0.1103127347	-0.7721691126	-0.10587
O	 0.546635473	-1.2302327198	-0.7083045208	-0.254736
C	 1.1665654071	-1.4473714244	 0.5257998411	 0.074975
C	 2.4211380556	-0.639951594	 0.879988146	-0.155918
C	 3.218721352	 0.0956256619	-0.1263701989	 0.156549
O	 4.4153169469	 0.2450228918	-0.0369789157	-0.277292
C	 1.0159081651	-0.261072894	 1.3991426749	-0.118288
H	 1.5144558136	 2.3431380003	 0.2394939171	 0.128788
H	-0.1898255669	 2.8065696366	 0.1262955966	 0.121594
H	 0.5580741535	 2.5673878372	 1.7092379668	 0.124525
H	-0.872292867	 0.6269371408	 1.1212599435	 0.090597
H	-0.9765515095	 0.0706165813	-1.1647504875	 0.114105
H	 0.6494674747	 0.6964572008	-1.4767239988	 0.108221
H	 1.1003891442	-2.4797692056	 0.8496482497	 0.117126
H	 3.0514021571	-1.0853169787	 1.6443907721	 0.110102
H	 2.6686236589	 0.4932378983	-1.0031914019	 0.077525
H	 0.884456809	-0.3506979458	 2.471109152	 0.106782
67.4275	139.3895	161.8925	184.9674	229.217	265.8638	350.4128	424.3098	499.5753	564.2525	655.9939	708.4817	755.6726	825.5172	866.3264	928.0196	934.0969	953.7101	1009.1464	1015.0346	1042.9352	1052.6707	1077.6784	1106.7014	1135.4719	1166.1467	1179.9704	1215.548	1239.466	1308.868	1317.0552	1330.7064	1358.7644	1391.0208	1411.0342	1419.9644	1456.0986	1495.7937	1500.16	1531.9456	1799.1735	2920.2824	3012.5735	3022.717	3036.6082	3069.7662	3103.8657	3111.767	3158.2523	3173.8499	3185.0859
CC1COC2C(C=O)C12	C[C@H]1CO[C@H]2[C@@H](C=O)[C@@H]12	
InChI=1S/C7H10O2/c1-4-3-9-7-5(2-8)6(4)7/h2,4-7H,3H2,1H3	InChI=1S/C7H10O2/c1-4-3-9-7-5(2-8)6(4)7/h2,4-7H,3H2,1H3/t4-,5-,6+,7-/m0/s1
