16
gdb 46853	2.69224	1.82609	1.19727	6.4157	72.1	-0.2417	-0.0362	0.2056	1001.0319	0.12667	-434.064909	-434.057493	-434.056549	-434.096766	28.636	
N	-0.2436025827	 1.3887305428	-0.2074340009	-0.500534
C	-0.0091641487	 0.1377839133	-0.246550686	 0.297814
N	 1.1399558254	-0.5037760618	-0.6888122449	-0.338115
C	 1.338306558	-1.9163691847	-0.3638564268	-0.21566
C	 0.1169930188	-2.6572079089	-0.8735655418	-0.006761
C	-0.8480518847	-3.3171888433	 0.0669313428	-0.251369
N	-1.1352305371	-2.0149140377	-0.5108094448	-0.080421
C	-1.096390167	-0.8290920149	 0.2340079452	 0.3234
O	-1.8489042581	-0.5831212997	 1.139695823	-0.306375
H	 0.5601937112	 1.929581078	-0.5378167129	 0.204808
H	 1.9638720261	 0.0739055704	-0.7725408708	 0.24024
H	 2.2472277463	-2.2669563996	-0.8581472049	 0.12586
H	 1.4641741204	-2.0795097707	 0.7175864558	 0.118834
H	 0.1651669086	-3.0036556917	-1.9036773124	 0.112294
H	-1.4661520154	-4.1363505081	-0.2873649236	 0.136688
H	-0.6011998313	-3.3471890633	 1.125105983	 0.139296
91.7026	174.6558	237.2022	330.5392	350.5755	409.6998	428.5901	486.5571	515.8766	584.0143	674.6466	735.4899	811.0395	844.2289	879.9813	934.5471	944.1041	980.4744	1030.1242	1093.5346	1116.971	1131.32	1148.914	1159.8837	1176.7176	1259.4226	1315.4279	1347.3154	1407.2859	1410.1912	1460.5667	1500.937	1512.8567	1722.8994	1823.0625	2983.6386	3098.6152	3116.565	3134.117	3207.5792	3431.0044	3598.719
N=C1NCC2CN2C1=O	[NH][C]1NC[C@H]2CN2C1=O	
InChI=1S/C5H7N3O/c6-4-5(9)8-2-3(8)1-7-4/h3H,1-2H2,(H2,6,7)	InChI=1S/C5H7N3O/c6-4-5(9)8-2-3(8)1-7-4/h3H,1-2H2,(H2,6,7)/t3-,8?/m0/s1
