16
gdb 108896	3.19381	1.02076	0.84807	5.7831	71.91	-0.2603	-0.0054	0.2549	1329.2942	0.123594	-437.885821	-437.876997	-437.876052	-437.920237	30.9	
O	-0.0094063811	 1.4247368371	 0.0714137148	-0.409368
C	 0.0167384238	 0.0175917417	-0.0491304691	-0.178926
C	-1.3804818645	-0.5045265308	-0.0242139539	 0.285907
C	-2.5077930427	 0.1872310694	 0.0941954101	-0.195071
C	-3.6804676377	-0.7658477629	 0.0913290427	-0.053084
O	-3.1233118975	-2.0508280159	-0.1546227595	-0.260095
C	-1.6972102843	-1.9739665829	-0.1188180862	-0.162792
C	-4.4134742144	-0.7501598856	 1.3801018065	 0.267699
N	-4.9877592985	-0.7227616451	 2.3822531912	-0.321703
H	 0.8969635565	 1.7449833406	 0.0805909694	 0.296268
H	 0.5048576103	-0.3022945875	-0.9867435164	 0.106263
H	 0.5877028418	-0.4528292524	 0.7707371919	 0.109437
H	-2.6078142007	 1.2566149719	 0.2035561689	 0.142426
H	-4.4104247078	-0.5393106619	-0.6992385237	 0.135162
H	-1.2975769989	-2.4418780706	-1.029463329	 0.11824
H	-1.3048328744	-2.5379430352	 0.7419947124	 0.119636
70.3301	75.7791	121.9497	188.429	222.0599	231.4133	284.9902	415.6043	432.5757	514.7376	557.3632	670.1774	787.3411	837.5792	903.8958	925.6442	965.9151	992.6237	1004.4847	1074.6973	1077.9772	1109.6952	1193.1605	1200.9156	1219.8734	1255.5743	1276.0459	1303.6964	1351.3037	1387.3037	1470.075	1505.2023	1520.0798	1735.5923	2354.932	2946.2293	2960.7221	2983.563	3003.1199	3019.8093	3258.3253	3840.909
OCC1=CC(OC1)C#N	OCC1=C[C@@H](OC1)C#N	
InChI=1S/C6H7NO2/c7-2-6-1-5(3-8)4-9-6/h1,6,8H,3-4H2	InChI=1S/C6H7NO2/c7-2-6-1-5(3-8)4-9-6/h1,6,8H,3-4H2/t6-/m1/s1
