17
gdb 66106	2.65105	1.51697	1.34685	1.8224	71.82	-0.247	0.0205	0.2674	1016.3506	0.136387	-418.000511	-417.99241	-417.991466	-418.03297	30.851	
C	 0.0171957564	 1.4837629027	 0.0048874671	-0.421125
C	 0.0251196721	-0.0504997227	-0.0058856276	 0.101944
N	 0.8074915297	-0.561150787	-1.1453833967	-0.327614
C	 1.4162292018	-1.8530383507	-0.7975886436	-0.204796
C	 1.6051958005	-1.7511422494	 0.6998461564	 0.054542
O	 2.1644263321	-0.5002400356	 1.130680515	-0.25167
C	 0.7541159505	-0.6705145509	 1.1952423533	 0.033198
C	-1.3607245128	-0.5785503685	-0.0025262413	 0.238331
N	-2.4332829408	-1.0102720821	-0.0384039572	-0.338092
H	 1.0502030521	 1.8278337614	 0.0805652071	 0.151333
H	-0.4199270084	 1.8722251963	-0.9186794658	 0.13086
H	-0.5638465884	 1.868412367	 0.8478968224	 0.129549
H	 0.2691453233	-0.5896523047	-2.0015911947	 0.238295
H	 0.7771569132	-2.7265492943	-1.0046345718	 0.111583
H	 2.3583535956	-1.9815846855	-1.3417023325	 0.124383
H	 1.8742081333	-2.6221182131	 1.2889023025	 0.11124
H	 0.2930889199	-0.636788183	 2.1775777674	 0.118038
105.004	146.6711	198.1496	234.6303	264.8343	333.7752	388.1577	464.6198	481.2234	548.1879	623.9167	627.4446	736.2637	840.4922	850.8677	884.1787	897.8795	943.3659	984.016	1013.4354	1045.1069	1096.4596	1118.3957	1153.0586	1169.4005	1195.6525	1218.5516	1263.5301	1301.1433	1352.332	1401.7273	1436.3665	1448.509	1488.0798	1490.3371	1504.5253	2338.1602	2978.8441	3049.7764	3062.4923	3123.2848	3147.1884	3164.2834	3177.1433	3575.5227
CC1(NCC2OC12)C#N	C[C@]1(NC[C@H]2O[C@@H]12)C#N	
InChI=1S/C6H8N2O/c1-6(3-7)5-4(9-5)2-8-6/h4-5,8H,2H2,1H3	InChI=1S/C6H8N2O/c1-6(3-7)5-4(9-5)2-8-6/h4-5,8H,2H2,1H3/t4-,5-,6+/m1/s1
