23
gdb 116273	1.7541	1.47896	0.87159	2.8526	85.97	-0.243	-0.0172	0.2258	1398.714	0.20598	-388.322931	-388.31324	-388.312296	-388.358428	35.757	
C	 0.1684165366	 1.6943736984	 0.0162340419	-0.396343
C	 0.2392223344	 0.1664776553	-0.0741316015	-0.197753
C	 0.6399510039	-0.5042205197	 1.2461844816	 0.034329
C	-0.3650162947	-0.3730015755	 2.4061635171	-0.210356
C	 0.1129922026	-1.4262072936	 3.4123281662	-0.204632
C	 0.4781502823	-2.6353657597	 2.5277765616	-0.238331
C	 0.9336310096	-2.0493659948	 1.1571893753	-0.085006
C	 0.1919653403	-2.7179358998	 0.0209819195	 0.157774
O	 0.7045825479	-3.1709996718	-0.9702132421	-0.258995
H	 1.1277858123	 2.1146855785	 0.3389337914	 0.115077
H	-0.0765610343	 2.1338194218	-0.9554157605	 0.116022
H	-0.5941404554	 2.0231938674	 0.7294894929	 0.118416
H	-0.7323295407	-0.2214051983	-0.4080642917	 0.097397
H	 0.9593405291	-0.1171140724	-0.8513664324	 0.112254
H	 1.5793125367	-0.0409592291	 1.5779163563	 0.079037
H	-0.3975972065	 0.6366752294	 2.8248831575	 0.100098
H	-1.3785381556	-0.6134127978	 2.0563090429	 0.095125
H	 1.0031924879	-1.0575036114	 3.9358906646	 0.101307
H	-0.6317975119	-1.6717825296	 4.1745287432	 0.097249
H	 1.2443785255	-3.2761247968	 2.9703716466	 0.109411
H	-0.4098112239	-3.2645657712	 2.3842535786	 0.101934
H	 1.9970222791	-2.2144869013	 0.9680841882	 0.088882
H	-0.9142237151	-2.7791583579	 0.1663357028	 0.067107
45.7581	64.316	100.8	174.2662	206.995	251.3687	289.7433	341.3727	390.9223	417.6772	459.7831	557.0555	652.3791	768.0886	819.2597	842.5826	869.9316	912.5725	932.8841	950.7167	993.6743	1010.6479	1026.0378	1042.9711	1052.3991	1071.3161	1142.9627	1152.7939	1189.6475	1207.9123	1240.1332	1276.0723	1292.452	1307.9338	1322.356	1327.2943	1345.2923	1352.1397	1376.4046	1392.7626	1412.5131	1432.5704	1485.7173	1488.3794	1492.1489	1500.6564	1506.6867	1508.3528	1827.8594	2832.6106	3001.0434	3016.4344	3022.4067	3024.2751	3032.5336	3037.2396	3054.7444	3078.2219	3088.2299	3091.3428	3099.2816	3102.292	3107.4513
CCC1CCCC1C=O	CC[C@H]1CCC[C@H]1C=O	
InChI=1S/C8H14O/c1-2-7-4-3-5-8(7)6-9/h6-8H,2-5H2,1H3	InChI=1S/C8H14O/c1-2-7-4-3-5-8(7)6-9/h6-8H,2-5H2,1H3/t7-,8-/m0/s1
