18
gdb 13541	2.79964	1.75636	1.21318	4.1913	72.65	-0.2467	0.0301	0.2768	1028.0451	0.152546	-343.970808	-343.962001	-343.961057	-344.004209	31.786	
C	-0.5464878047	 0.8180962052	-2.506506148	-0.387354
C	-0.1642571375	-0.3076110566	-1.5337158821	-0.10453
C	 0.8482543409	 0.1589233738	-0.5705465132	 0.302891
N	 1.6562308391	 0.5177369592	 0.1731475256	-0.329498
N	-1.3539120234	-0.7422276605	-0.802486067	-0.082968
C	-2.1480800441	-1.8118764511	-1.4084320666	-0.258135
C	-1.381890828	-2.0606052868	-0.1541937078	 0.035254
C	-0.1990017134	-3.0039690287	-0.1211892237	-0.425216
H	 0.3327116414	 1.1811745387	-3.0442379879	 0.133827
H	-1.2702335879	 0.436976879	-3.2317951816	 0.127668
H	-1.0016233235	 1.6466344874	-1.9601782955	 0.14865
H	 0.3046409614	-1.1210541286	-2.1118194046	 0.106737
H	-3.2246149213	-1.6660925804	-1.3992518074	 0.122405
H	-1.7622080618	-2.2778150913	-2.3155281113	 0.109579
H	-1.9372723921	-2.0289763923	 0.7814898681	 0.102327
H	 0.2820836906	-3.1149349522	-1.0963838147	 0.120556
H	 0.5552720704	-2.6662003262	 0.5965024656	 0.14891
H	-0.535106696	-3.9981592886	 0.1905369422	 0.128898
60.8906	126.2697	183.5749	195.9221	221.4374	236.7122	304.8349	354.5167	416.3483	492.808	543.1594	593.8354	751.7361	788.6803	852.2618	906.2179	937.596	1006.8022	1039.5673	1056.5977	1106.1162	1117.3924	1125.989	1147.355	1176.4512	1194.723	1323.8519	1331.8936	1349.8473	1404.8327	1407.1162	1422.4046	1486.4355	1492.3417	1495.7261	1498.0754	1508.2772	2361.3344	2962.4294	3041.6767	3053.9349	3085.2041	3104.7209	3110.2911	3128.615	3130.8504	3144.3276	3178.0052
CC(C#N)N1CC1C	C[C@@H](C#N)N1C[C@H]1C	
InChI=1S/C6H10N2/c1-5(3-7)8-4-6(8)2/h5-6H,4H2,1-2H3	InChI=1S/C6H10N2/c1-5(3-7)8-4-6(8)2/h5-6H,4H2,1-2H3/t5-,6+,8?/m0/s1
