16
gdb 102910	2.53852	0.95866	0.7806	3.9754	72.33	-0.2808	-0.0051	0.2757	1446.4785	0.121128	-437.8357	-437.825818	-437.824874	-437.871533	34.17	
O	-0.0272293831	 1.4526752706	 0.1428299728	-0.406089
C	 0.0632178199	 0.0603784216	-0.0049620806	-0.072922
C	-1.3224403925	-0.6033307189	 0.0136006108	-0.033408
O	-1.8887282291	-0.2657509317	 1.2635942253	-0.259142
C	-3.1578060819	-0.8657590687	 1.5257550352	-0.226486
C	-3.5983592437	-0.4905107536	 2.8591524548	 0.283005
C	-3.9846427052	-0.1940331329	 3.9563115331	-0.404016
C	-2.1660851951	-0.1387149699	-1.1093689124	 0.283054
N	-2.8461634877	 0.194626676	-1.9817802015	-0.319827
H	-0.5393211591	 1.6166571027	 0.9438137573	 0.300553
H	 0.5530734985	-0.138612099	-0.9622117631	 0.13244
H	 0.6542214915	-0.410090199	 0.7952604156	 0.109814
H	-1.2086241014	-1.6954254035	-0.0839209804	 0.117247
H	-3.8934560717	-0.5391479924	 0.7763051048	 0.155369
H	-3.0742285142	-1.9614159737	 1.4480241953	 0.130371
H	-4.3263180452	 0.0706695622	 4.926710323	 0.210039
48.5248	84.3052	100.3326	120.9764	167.5985	232.1907	283.4577	331.0361	338.4074	421.8544	433.2578	500.2739	619.2039	623.4838	690.645	708.6311	841.0662	913.4773	984.5745	1006.8014	1032.6824	1070.0088	1099.1022	1137.3557	1241.0322	1260.7541	1297.3651	1347.0866	1397.4074	1420.5864	1433.6085	1492.5719	1500.3565	2251.4278	2355.9933	2979.2174	2981.1031	2999.9114	3020.3318	3099.4392	3503.8825	3797.5347
OCC(OCC#C)C#N	OC[C@@H](OCC#C)C#N	
InChI=1S/C6H7NO2/c1-2-3-9-6(4-7)5-8/h1,6,8H,3,5H2	InChI=1S/C6H7NO2/c1-2-3-9-6(4-7)5-8/h1,6,8H,3,5H2/t6-/m0/s1
