21
gdb 41581	3.30743	1.47784	1.30338	0.3909	88.15	-0.221	0.0189	0.2399	1069.8776	0.185319	-349.922315	-349.915039	-349.914095	-349.953924	30.043	
C	-0.0051262416	 1.4610393824	 0.2698681089	-0.231582
C	 1.4430570211	 1.6073531852	-0.2884800387	-0.209214
C	 1.4197855572	 0.1128412647	-0.702782074	-0.143464
C	 0.0605283039	-0.0860843533	 0.0923439202	-0.052908
C	-0.5844236371	-0.7058024077	-1.2007256916	-0.030843
C	-1.7973748654	-0.2356292743	-2.024230895	-0.253366
C	-1.1863199245	-0.017980551	-3.451319528	-0.234218
C	 0.2840417272	 0.2928007646	-3.1679286227	-0.235995
C	 0.5924446071	-0.1509574846	-1.953375053	 0.303338
H	-0.1362609008	 1.7939043044	 1.3015234867	 0.100024
H	-0.7707907755	 1.9466329463	-0.3403929644	 0.103798
H	 1.6026071858	 2.3351670423	-1.0878394502	 0.098249
H	 2.1711794016	 1.7949777058	 0.5061305487	 0.097471
H	 2.3081251605	-0.4982631466	-0.5323327641	 0.072612
H	-0.0023330832	-0.6743298238	 1.0090558151	 0.06099
H	-0.552740363	-1.8001214184	-1.1045592823	 0.07202
H	-2.6370674777	-0.9364614116	-2.0256588556	 0.090691
H	-2.1702952752	 0.7225734697	-1.6442691345	 0.102582
H	-1.3028701832	-0.9157525196	-4.0757601858	 0.102409
H	-1.6807044156	 0.7964381177	-3.9926716781	 0.098826
H	 0.9127304286	 0.8480573779	-3.8549749618	 0.088579
101.4075	154.4421	233.2595	275.3075	435.6728	445.7564	577.2191	620.7504	645.63	722.4111	786.3191	808.2768	817.9827	844.1705	866.5367	872.2379	905.4566	946.6957	956.6971	962.7776	975.4885	1022.7195	1058.6703	1073.8153	1089.7531	1099.6314	1125.458	1163.9235	1187.8341	1203.9518	1216.916	1233.7834	1245.5382	1257.6303	1270.4958	1288.6467	1304.1023	1314.883	1334.9477	1344.2397	1468.4152	1481.392	1487.7568	1497.2293	1720.574	3000.4357	3001.1403	3037.2798	3051.7581	3058.9554	3065.8771	3083.8075	3091.6376	3094.65	3101.3774	3120.2706	3191.8374
C1CC2C1C1CCC=C21	C1C[C@H]2[C@@H]1[C@H]1CC[CH][C]21	
InChI=1S/C9H12/c1-2-6-7(3-1)9-5-4-8(6)9/h2,7-9H,1,3-5H2	InChI=1S/C9H12/c1-2-6-7(3-1)9-5-4-8(6)9/h2,7-9H,1,3-5H2/t7-,8+,9-/m0/s1
