19
gdb 126760	2.62489	1.32395	0.94409	3.2162	79.06	-0.2161	0.0329	0.249	1288.6886	0.160414	-415.434318	-415.424836	-415.423892	-415.469032	34.16	
C	-0.1687045246	 1.5309181534	-0.0628161258	-0.37598
C	 0.0518641127	 0.0169772457	-0.0356967719	-0.153714
N	 0.7691137109	-0.4704865838	-1.1970171503	 0.003954
N	 0.1284443209	-0.6449008391	-2.3986000982	-0.318696
C	 1.0917741454	-1.1068372825	-3.175187311	 0.348539
C	 0.8627439636	-1.4649870887	-4.604924742	-0.481562
N	 2.3135628921	-1.2252134594	-2.5681154017	-0.372975
C	 2.0684949504	-0.8134914598	-1.3368316222	 0.383921
N	 2.9794521843	-0.8053445117	-0.2911686718	-0.605614
H	 0.7826958528	 2.0726751111	-0.0588487454	 0.115023
H	-0.7178848064	 1.8127706617	-0.9645102573	 0.150446
H	-0.7461749929	 1.8462587285	 0.8114892133	 0.121337
H	 0.6195921348	-0.2876273667	 0.8492002868	 0.123653
H	-0.9083816955	-0.5054614691	-0.0060926885	 0.137553
H	 1.5118040653	-0.8766858818	-5.261558725	 0.133258
H	 1.0953053205	-2.5200744563	-4.7820082193	 0.134772
H	-0.1781152772	-1.2807101855	-4.8763446058	 0.134864
H	 3.9062191626	-1.0207244551	-0.6346256268	 0.266387
H	 2.9892137304	 0.0467729191	 0.2535920028	 0.25483
53.3438	98.3137	118.7901	202.5627	214.303	255.1092	278.2469	307.241	325.5229	425.4135	513.102	623.6173	650.3723	677.673	712.9414	781.0773	789.6295	832.6994	975.9931	1004.3774	1049.5859	1068.2507	1078.6962	1102.1802	1126.2766	1225.2569	1294.7065	1341.5458	1378.7203	1392.9081	1409.7904	1417.402	1477.5047	1480.862	1482.0363	1488.7676	1506.2717	1511.9492	1576.5573	1589.4388	1652.5323	3040.9879	3043.4783	3058.6312	3097.8187	3097.9322	3115.1688	3133.3927	3142.2598	3548.6181	3643.6543
CCN1N=C(C)N=C1N	CCn1nc(C)nc1N	
InChI=1S/C5H10N4/c1-3-9-5(6)7-4(2)8-9/h3H2,1-2H3,(H2,6,7,8)	InChI=1S/C5H10N4/c1-3-9-5(6)7-4(2)8-9/h3H2,1-2H3,(H2,6,7,8)
