21
gdb 55194	3.65063	0.97516	0.84769	2.4212	85.47	-0.2296	-0.0069	0.2227	1438.9776	0.181205	-387.137318	-387.127597	-387.126653	-387.17285	35.284	
C	 0.2795672878	 1.4306196777	 0.0349191306	-0.477949
C	-0.0482880397	-0.0522681918	 0.0710915457	 0.374498
O	-0.2601744237	-0.6292360299	 1.1135497019	-0.301805
C	-0.0686589996	-0.7649344678	-1.2779245963	-0.085732
C	 1.3917181644	-1.053044799	-1.779097539	-0.272838
C	 1.2988626497	-2.4564121323	-2.3193810657	-0.163899
C	 0.1353729538	-3.0498149656	-2.0496605112	 0.335859
C	-0.274129995	-4.4449238217	-2.4006777626	-0.489954
C	-0.7794396688	-2.1373734822	-1.26254719	-0.323582
H	 1.1740233739	 1.6213714187	-0.5675304281	 0.138736
H	-0.5446150109	 1.9745235874	-0.4421922721	 0.140418
H	 0.4218984073	 1.8084371033	 1.0480041	 0.140141
H	-0.5459453959	-0.0995727465	-2.0052621271	 0.08131
H	 1.7164939894	-0.3232580446	-2.5297883426	 0.105169
H	 2.122241601	-0.9957765942	-0.9589547477	 0.112827
H	 2.1286811552	-2.9277753583	-2.8362419542	 0.083886
H	 0.510504531	-4.9727251587	-2.9495029908	 0.121719
H	-0.5096877687	-5.0248426227	-1.4990993444	 0.12866
H	-1.1830906877	-4.4480588088	-3.0159686618	 0.123264
H	-0.8988307177	-2.4901147944	-0.230293018	 0.132576
H	-1.7866324058	-2.0833854985	-1.6937419367	 0.096698
42.7124	52.6718	127.0431	165.2722	189.8621	240.7133	284.0819	295.5678	374.5157	443.2777	563.7061	576.7003	610.4269	655.8663	799.1168	822.0688	877.6635	925.3499	936.89	947.1374	964.8796	996.8855	1033.4499	1038.6907	1082.1169	1091.1083	1159.5722	1177.4732	1192.7001	1211.6318	1286.7108	1293.9793	1312.0197	1349.3543	1364.2521	1383.2675	1414.5842	1463.4721	1476.4031	1479.2228	1486.7428	1490.2014	1493.4181	1731.5432	1808.6984	3000.0805	3015.9929	3024.3776	3033.4152	3037.4683	3050.9827	3061.5444	3062.6733	3096.1335	3110.1423	3151.7591	3182.1213
CC(=O)C1CC=C(C)C1	CC(=O)[C@H]1CC=C(C)C1	
InChI=1S/C8H12O/c1-6-3-4-8(5-6)7(2)9/h3,8H,4-5H2,1-2H3	InChI=1S/C8H12O/c1-6-3-4-8(5-6)7(2)9/h3,8H,4-5H2,1-2H3/t8-/m0/s1
