23
gdb 104409	2.3462	1.35618	1.10515	2.5305	81.14	-0.24	0.0645	0.3045	1244.5995	0.204847	-425.440294	-425.430378	-425.429434	-425.474905	37.883	
C	-0.0664413327	 1.6563436755	-0.0065137313	-0.414769
C	-0.0139004731	 0.1238939817	-0.0129173191	-0.224062
C	 0.7486659561	-0.4730210681	-1.2032432554	 0.350549
O	 0.1346291541	-0.0751189944	-2.4389989173	-0.483889
C	 2.255138455	-0.1470855533	-1.2454266272	-0.268328
C	 2.7736298668	-1.2532161528	-2.1617841993	-0.070589
O	 2.0405105178	-2.40912352	-1.7845202444	-0.278901
C	 0.7570971053	-2.0297543289	-1.2681779394	 0.136716
C	 0.5424138008	-2.7861570444	 0.0377053788	-0.409335
H	 0.9337788077	 2.0999408218	 0.0399141293	 0.119559
H	-0.5719229492	 2.0454664375	-0.8970272115	 0.113334
H	-0.6264449966	 2.018213318	 0.8605962038	 0.121047
H	 0.4435372474	-0.225092755	 0.9189183645	 0.099274
H	-1.0377875778	-0.267665531	-0.0305912714	 0.104826
H	 0.2651161151	 0.8729645966	-2.5436554001	 0.276461
H	 2.4601450208	 0.8609152561	-1.6177386282	 0.089963
H	 2.6940391138	-0.2394344816	-0.2457360878	 0.102542
H	 2.5881828164	-0.9955156879	-3.2147520283	 0.095452
H	 3.8386872106	-1.4706735541	-2.0372797702	 0.10026
H	-0.0193203004	-2.3167071146	-1.9894795634	 0.087868
H	 1.2704445546	-2.4884828619	 0.7987941366	 0.113241
H	-0.4661394915	-2.6316891863	 0.4323533617	 0.112903
H	 0.6755529188	-3.8552730729	-0.1486265903	 0.125877
49.0292	105.481	186.8503	205.5588	243.0759	265.0889	297.3633	316.2362	326.6054	372.924	390.3742	471.0872	504.0951	613.7695	662.4326	731.4499	788.904	848.2437	877.9888	944.1454	958.6264	978.5056	987.1565	1042.0445	1043.9641	1072.2332	1097.7438	1115.4124	1151.6103	1188.4901	1195.2848	1205.8219	1245.2655	1303.6311	1320.3002	1326.9224	1348.8453	1379.2476	1389.3813	1398.6849	1407.2578	1411.8825	1473.3643	1479.0674	1490.8959	1498.0922	1502.2148	1512.3686	1517.4779	2997.202	3018.1191	3032.8413	3034.9017	3040.4264	3044.5976	3074.1738	3079.5181	3096.8061	3102.1247	3107.5028	3113.6991	3118.5152	3814.3093
CCC1(O)CCOC1C	CC[C@@]1(O)CCO[C@H]1C	
InChI=1S/C7H14O2/c1-3-7(8)4-5-9-6(7)2/h6,8H,3-5H2,1-2H3	InChI=1S/C7H14O2/c1-3-7(8)4-5-9-6(7)2/h6,8H,3-5H2,1-2H3/t6-,7+/m0/s1
