23
gdb 58275	2.37425	1.02848	0.91981	1.8576	82.58	-0.2653	0.0194	0.2847	1460.1925	0.201888	-425.484902	-425.473428	-425.472484	-425.52231	40.481	
C	 0.0781240815	 1.5557861229	 0.0170274177	-0.396723
C	-0.0605910601	 0.0281530149	-0.0484855386	 0.025191
C	-1.5371550089	-0.3924448053	-0.0207704225	-0.389632
C	 0.7107745378	-0.5386379093	-1.2515469563	 0.14732
C	 0.7804257698	-2.061383809	-1.3157211978	-0.423334
O	 0.0608181393	-0.0340971493	-2.4502457441	-0.258805
C	 0.8241694599	 0.1229808351	-3.5510869133	 0.433727
C	-0.0027808788	 0.6609136591	-4.6956721549	-0.4789
O	 2.0017210813	-0.1318876707	-3.6029894819	-0.356777
H	 1.129722359	 1.8608280292	 0.0445472086	 0.112317
H	-0.3851842351	 2.0252888781	-0.8562430361	 0.122042
H	-0.4108446763	 1.9535653154	 0.9116446685	 0.110751
H	 0.4336113158	-0.3945665409	 0.8372986366	 0.075515
H	-2.0591270337	-0.0340008852	-0.9128995115	 0.126359
H	-1.6553555635	-1.4787828812	 0.0264059629	 0.112837
H	-2.0367180274	 0.0318209785	 0.855805967	 0.110706
H	 1.729742624	-0.1396624482	-1.2446862556	 0.103302
H	-0.2112300252	-2.501200345	-1.4515994248	 0.123536
H	 1.4171740923	-2.3708836991	-2.1474166331	 0.140812
H	 1.2109059916	-2.4575348134	-0.3904071715	 0.117368
H	-0.8272896512	-0.0230740777	-4.9159642524	 0.147914
H	-0.4442943932	 1.6230507456	-4.4208272585	 0.147702
H	 0.6283589709	 0.7788211456	-5.5755893287	 0.146773
48.2598	63.7129	76.3037	104.8417	168.8218	207.1915	222.1334	233.9026	239.1583	279.7246	335.691	379.2119	433.0083	494.5063	575.9749	612.3784	627.7192	777.8339	860.66	914.8082	925.4761	960.7273	966.1887	1002.7908	1035.2348	1043.8568	1063.7536	1116.0471	1154.2861	1174.2206	1211.32	1267.2669	1329.0057	1351.5836	1370.9363	1388.2745	1397.52	1399.4398	1404.9577	1420.4166	1469.405	1476.8249	1485.1826	1486.9651	1494.494	1500.8338	1507.4344	1515.5679	1816.9781	3010.3797	3033.5936	3040.3851	3045.9657	3056.7488	3066.5917	3100.4649	3105.2182	3109.2157	3116.5058	3117.8636	3121.5097	3132.6965	3168.5591
CC(C)C(C)OC(C)=O	CC(C)[C@@H](C)OC(=O)C	
InChI=1S/C7H14O2/c1-5(2)6(3)9-7(4)8/h5-6H,1-4H3	InChI=1S/C7H14O2/c1-5(2)6(3)9-7(4)8/h5-6H,1-4H3/t6-/m1/s1
