21
gdb 92450	2.2119	1.75923	1.42517	0.9951	76.66	-0.2344	0.0668	0.3012	1040.1786	0.184735	-424.235313	-424.227266	-424.226322	-424.267384	32.498	
C	-0.2104728432	 1.5418055464	-0.0066678184	-0.429281
C	 0.0325650286	 0.0332707119	-0.0162315806	 0.061828
C	 0.7672018788	-0.5086715498	-1.2907599188	-0.233629
C	 1.9077683602	-1.3452057624	-0.6859344984	 0.063716
O	 2.8986304899	-0.462404929	-0.1470916862	-0.282962
C	 2.3259301035	 0.0949513157	 1.0581257363	-0.085292
C	 0.9247965109	-0.5256204203	 1.1291560318	-0.080472
C	 1.2676216319	-1.9293245393	 0.5925464318	 0.115723
O	 0.1087822711	-2.7151238001	 0.4074011885	-0.443993
H	 0.712613677	 2.1130067092	-0.1496377395	 0.119638
H	-0.8924941763	 1.8231536344	-0.8160553335	 0.114944
H	-0.6656008507	 1.8679904808	 0.9353536186	 0.109519
H	-0.935465678	-0.4676198505	 0.0651615642	 0.089661
H	 0.1035195365	-1.114631778	-1.9132593806	 0.095836
H	 1.1829480329	 0.2922517588	-1.9085783986	 0.100567
H	 2.406206114	-2.0404750903	-1.3649385267	 0.062925
H	 2.9457365275	-0.187953523	 1.9194986996	 0.095861
H	 2.3204430473	 1.1878144666	 0.9914162359	 0.102294
H	 0.469706108	-0.4873828081	 2.1203789223	 0.06765
H	 2.01135793	-2.4462022377	 1.214029044	 0.068847
H	 0.3723514503	-3.5445925351	-0.0024480516	 0.286618
116.401	226.5928	230.5422	278.6186	294.6407	302.0375	358.0996	407.4804	478.5084	567.6019	582.5601	720.9696	778.2216	811.839	843.977	880.7767	930.6632	944.3274	960.2112	972.2517	1004.828	1042.9169	1047.9928	1078.7674	1095.9883	1123.8541	1141.8726	1184.1795	1199.4146	1212.5345	1219.3468	1265.4717	1293.3552	1305.9358	1318.0265	1337.4599	1361.149	1371.3705	1380.6294	1411.9632	1430.9523	1477.9578	1496.5349	1500.3192	1537.9249	3009.542	3016.0795	3028.1426	3056.2861	3062.6299	3066.2952	3091.8137	3094.2531	3099.3703	3104.4976	3108.9674	3824.5017
CC1CC2OCC1C2O	C[C@H]1C[C@H]2OC[C@@H]1[C@H]2O	
InChI=1S/C7H12O2/c1-4-2-6-7(8)5(4)3-9-6/h4-8H,2-3H2,1H3	InChI=1S/C7H12O2/c1-4-2-6-7(8)5(4)3-9-6/h4-8H,2-3H2,1H3/t4-,5-,6+,7+/m0/s1
