24
gdb 118245	2.08892	1.0129	0.75581	1.774	87.87	-0.225	0.0893	0.3143	1631.7998	0.215009	-405.513527	-405.502631	-405.501686	-405.550703	38.959	
C	 0.0121731738	 1.3542857252	-0.0919568707	-0.380657
C	-0.4081760782	-0.020422451	-0.5858921829	-0.037596
O	-1.1574654003	-0.6439914454	 0.4469337195	-0.265187
C	-1.5418768951	-1.9895729954	 0.2180379527	 0.126859
C	-1.6721869645	-2.647272611	 1.5910805729	-0.394481
C	-2.8610560396	-2.0897955675	-0.5631574234	-0.133157
N	-2.7161071432	-1.6938460401	-1.9602665679	-0.056492
C	-2.3796812678	-2.7559988751	-2.9032155739	-0.222215
C	-3.7461642535	-2.1649858335	-2.8765800684	-0.221415
H	 0.6053266757	 1.868076193	-0.8548299415	 0.108751
H	-0.8663880837	 1.9663015564	 0.1324791064	 0.122781
H	 0.6118350465	 1.2719836441	 0.8194343629	 0.118429
H	-1.0050763342	 0.0549352702	-1.5023948307	 0.113629
H	 0.4810756357	-0.6307142899	-0.8202351541	 0.074038
H	-0.7541848571	-2.5048666501	-0.3572918036	 0.063118
H	-1.9177876054	-3.7095650095	 1.5006637419	 0.108362
H	-0.7334850371	-2.5494327794	 2.1415683094	 0.121008
H	-2.4585554573	-2.1575629595	 2.1747982759	 0.122967
H	-3.2540835368	-3.1203349357	-0.4740438113	 0.070717
H	-3.5869886696	-1.4174523548	-0.091232008	 0.109121
H	-1.6769146401	-2.4921825223	-3.6882485741	 0.117306
H	-2.2700463267	-3.7675469584	-2.5139736951	 0.108116
H	-4.5448772291	-2.7832087027	-2.4687613946	 0.10823
H	-4.0611341024	-1.4606459376	-3.6411976215	 0.117769
45.85	56.6327	93.2212	100.8711	156.9994	191.667	231.7115	247.4083	303.1947	329.8837	404.2094	454.4487	487.2707	506.1181	769.3543	820.1839	830.2484	838.4633	896.1196	902.5246	933.8224	975.1995	1028.2212	1036.4915	1081.2296	1103.3484	1111.4826	1116.3003	1139.3895	1158.5401	1170.4244	1183.4782	1188.7335	1194.4349	1289.6295	1293.4201	1320.6709	1325.2484	1364.9068	1399.0517	1401.9979	1407.6868	1438.5185	1474.4408	1482.5934	1486.061	1491.4875	1500.0434	1502.3167	1521.0399	1535.6059	2921.868	2954.2843	2964.2059	3040.8928	3041.5684	3052.2412	3059.9864	3090.8549	3095.4821	3112.1353	3114.86	3117.0345	3125.4368	3175.3327	3189.4446
CCOC(C)CN1CC1	CCO[C@@H](C)CN1CC1	
InChI=1S/C7H15NO/c1-3-9-7(2)6-8-4-5-8/h7H,3-6H2,1-2H3	InChI=1S/C7H15NO/c1-3-9-7(2)6-8-4-5-8/h7H,3-6H2,1-2H3/t7-/m0/s1
