16
gdb 123776	4.42611	1.31715	1.11268	5.4887	76.53	-0.244	0.0095	0.2535	1071.3821	0.126583	-396.871076	-396.864148	-396.863204	-396.902602	26.709	
C	 0.0852177043	 1.5631957158	-0.0033957801	-0.313635
C	 1.3576490688	 0.7487868408	-0.0506837848	-0.313642
C	 0.0243006659	 0.0642107707	 0.0174687846	 0.148063
C	-0.5269173354	-0.8627008196	 1.1490235162	-0.241852
N	-1.0795592421	-1.661185173	 0.0279983909	 0.063636
N	-1.7767037852	-2.7248954207	-0.4021542147	-0.177418
N	-1.7554997713	-2.6149554357	-1.7112741619	-0.179091
C	-1.0581141214	-1.5025561529	-2.1106625513	-0.236598
C	-0.6172535046	-0.8811765424	-0.9627003488	 0.316866
H	-0.1492030865	 2.0906167817	 0.9151668939	 0.126933
H	-0.2398699417	 2.0677002397	-0.9063176163	 0.133006
H	 1.9034661155	 0.6958837868	-0.985969361	 0.133006
H	 1.9823496129	 0.726331733	 0.8359551441	 0.126932
H	 0.2188884233	-1.400903553	 1.7377165291	 0.14548
H	-1.2955381853	-0.4316544773	 1.7939034564	 0.145493
H	-0.9432270471	-1.2621714839	-3.1535907465	 0.122819
108.5159	148.4254	218.887	280.2093	438.0408	474.7876	504.6109	693.3668	714.917	715.2893	779.1402	822.3565	858.2659	868.1039	943.2647	959.0843	1007.6732	1048.3391	1063.0125	1067.0136	1085.9517	1103.9121	1138.1007	1180.1353	1189.4674	1222.4594	1236.2623	1281.1676	1296.2202	1401.5049	1463.4134	1469.5438	1501.4305	1509.8775	1557.4285	3073.1329	3134.7742	3135.9787	3137.8943	3216.3437	3230.2975	3285.1197
C1CC11CN2N=NC=C12	C1CC21Cn1nncc21	
InChI=1S/C6H7N3/c1-2-6(1)4-9-5(6)3-7-8-9/h3H,1-2,4H2	InChI=1S/C6H7N3/c1-2-6(1)4-9-5(6)3-7-8-9/h3H,1-2,4H2
