23
gdb 121226	2.94447	0.80172	0.67693	1.0077	82.42	-0.2423	0.0778	0.3201	1733.0273	0.204481	-425.406223	-425.395584	-425.39464	-425.443491	37.494	
C	-0.1698509483	 1.6781653872	 0.1620113826	-0.38833
C	 0.2202015114	 0.2175164099	-0.0906251824	-0.191045
C	 0.7487872586	-0.4664245711	 1.1664976671	-0.045322
C	-0.2861247716	-0.8586123012	 2.2460483583	-0.076859
O	 0.0490602742	-2.2553819183	 2.137261449	-0.296112
C	 1.0681024719	-1.9899473274	 1.1396761973	 0.11606
C	 0.8556333395	-2.7930050125	-0.1322122724	-0.186664
C	 0.9687428024	-4.292210978	 0.1192184647	-0.080741
O	 0.7593153511	-4.9565118993	-1.1191450411	-0.424891
H	 0.6910728446	 2.2651178757	 0.5007767281	 0.115621
H	-0.5577547797	 2.1477031736	-0.7468776253	 0.115834
H	-0.9457737597	 1.7559479086	 0.9316894835	 0.118864
H	-0.6489671286	-0.3296269682	-0.4747367262	 0.103999
H	 0.9832129748	 0.1745218705	-0.8779563761	 0.100587
H	 1.5813326804	 0.1176643293	 1.5708816449	 0.073597
H	-0.1022060648	-0.4697516237	 3.2553915517	 0.097273
H	-1.3355987543	-0.6690416357	 1.9818444847	 0.096033
H	 2.0628480969	-2.2190898263	 1.5516265232	 0.067361
H	-0.1318861868	-2.5859175061	-0.5562881223	 0.107626
H	 1.602985994	-2.4995341075	-0.8801061361	 0.10332
H	 1.9639850108	-4.5262500568	 0.5330021409	 0.080157
H	 0.2216837509	-4.5889365192	 0.8691676967	 0.108919
H	 0.7487884124	-5.9032022132	-0.9515255109	 0.284714
28.1824	82.9792	97.8723	106.0709	117.1876	202.4102	233.9139	258.7923	285.5128	349.6747	392.5064	483.5799	518.506	749.2678	796.1647	810.9276	845.5234	891.9217	937.0987	968.2839	984.719	1018.6709	1032.7902	1055.7244	1074.795	1088.3224	1139.9489	1156.3947	1158.8356	1188.5409	1219.2682	1237.4091	1264.4369	1281.9708	1305.2879	1313.5657	1321.0246	1343.4545	1368.9089	1404.4263	1407.3642	1413.6678	1459.938	1476.5582	1488.951	1500.0876	1506.6112	1525.8918	1530.1603	2960.4381	2979.0423	3000.7851	3016.4207	3024.5024	3030.2999	3037.9475	3038.7647	3052.0491	3066.8507	3091.8937	3098.2861	3105.3885	3830.136
CCC1COC1CCO	CC[C@H]1CO[C@H]1CCO	
InChI=1S/C7H14O2/c1-2-6-5-9-7(6)3-4-8/h6-8H,2-5H2,1H3	InChI=1S/C7H14O2/c1-2-6-5-9-7(6)3-4-8/h6-8H,2-5H2,1H3/t6-,7-/m0/s1
