24
gdb 113389	2.67467	0.96474	0.8133	1.6889	86.88	-0.2262	0.0679	0.2941	1550.5324	0.215467	-405.519834	-405.508873	-405.507929	-405.556041	40.164	
C	 0.522691955	 1.2308705149	-0.6226088829	-0.37593
C	 0.49581807	-0.1895933769	-0.0609902685	-0.115162
N	-0.8839620791	-0.6478684291	 0.0621063197	-0.112633
C	-1.4577323984	-1.4192822358	-1.032736025	-0.300494
C	-1.2173989388	-2.0595890053	 0.3012907555	 0.284688
C	-0.1325313922	-3.1219854046	 0.4348827114	-0.249715
C	-0.5386005702	-4.514069773	-0.0721591179	-0.389695
C	-2.4080096113	-2.1892215358	 1.2438564241	-0.115461
O	-3.216205361	-3.3360965469	 1.0105471289	-0.411075
H	 1.5505877737	 1.6013796121	-0.6866046713	 0.109916
H	 0.08895175	 1.260008634	-1.6275961952	 0.117687
H	-0.0554438007	 1.9067627288	 0.0133492431	 0.126074
H	 1.1132418572	-0.8415478086	-0.700534469	 0.085723
H	 0.9450966624	-0.2040338804	 0.939279565	 0.103183
H	-2.458012676	-1.1329494929	-1.3543413301	 0.102641
H	-0.7948070899	-1.7160861117	-1.8462172572	 0.104873
H	 0.7636955287	-2.8013536854	-0.1041169215	 0.096361
H	 0.1546837611	-3.1911292439	 1.4927087773	 0.098532
H	-1.4102447484	-4.89204732	 0.4641714198	 0.144309
H	-0.7877948489	-4.4818168792	-1.138812081	 0.106041
H	 0.2863848803	-5.2224981693	 0.0545721214	 0.106092
H	-2.0538613666	-2.2885934285	 2.2764858747	 0.1058
H	-2.9932550644	-1.2615045116	 1.1826300132	 0.096445
H	-3.5436183926	-3.279786571	 0.1066256155	 0.281801
62.1011	71.9123	113.2877	141.608	187.4249	216.8067	245.6372	258.3705	317.1777	329.3229	350.4733	388.0047	401.0705	462.3367	627.9567	690.1807	789.4859	802.9494	824.5783	909.6852	922.3412	942.6506	981.9508	1012.3851	1045.9653	1065.4408	1080.8661	1102.6437	1105.1086	1126.0415	1166.0538	1196.4981	1210.8373	1282.2242	1303.6214	1319.0046	1354.8807	1364.9306	1387.782	1406.4102	1409.5149	1415.3692	1422.8012	1482.3451	1487.8437	1489.7539	1497.7221	1501.7517	1507.5352	1517.8802	1519.2594	2960.9359	3009.0763	3020.0325	3035.6701	3038.5039	3048.7259	3066.7143	3072.1021	3080.333	3095.6177	3107.2937	3120.3116	3143.7337	3150.7905	3809.2982
CCN1CC1(CC)CO	CCN1C[C@]1(CC)CO	
InChI=1S/C7H15NO/c1-3-7(6-9)5-8(7)4-2/h9H,3-6H2,1-2H3	InChI=1S/C7H15NO/c1-3-7(6-9)5-8(7)4-2/h9H,3-6H2,1-2H3/t7-,8?/m1/s1
