18
gdb 11835	3.15712	1.86337	1.53065	2.1145	67.62	-0.2488	0.0642	0.3131	895.8581	0.15343	-384.907664	-384.899789	-384.898844	-384.939585	30.578	
O	-0.0253432685	 1.3500823037	-0.1946154937	-0.4455
C	 0.0234299308	-0.0642926636	-0.0323562891	 0.091616
C	 0.2244664409	-0.5304856289	 1.4335153142	-0.352382
C	-1.30209568	-0.6570795306	 1.5503557188	 0.317736
C	-2.1547524738	-1.3482258663	 2.5629526163	-0.347709
C	-2.193634372	 0.1600584597	 2.4423887682	-0.321475
C	-1.423469126	-0.6561695325	 0.0104183331	 0.076225
O	-2.4196628514	 0.1049061489	-0.6052699795	-0.432629
H	-0.2362756158	 1.7435205382	 0.6590380127	 0.292791
H	 0.7068735929	-0.4405185845	-0.7962394085	 0.085506
H	 0.7433036025	-1.4925336076	 1.4913973664	 0.112642
H	 0.7358287959	 0.177858942	 2.0939813787	 0.100288
H	-3.0135219537	-1.9089549907	 2.206846537	 0.119004
H	-1.672607074	-1.7759883356	 3.4365545145	 0.110622
H	-1.7428821587	 0.7461480941	 3.2379813085	 0.105103
H	-3.0673727907	 0.6083882681	 1.9802721134	 0.126345
H	-1.4661159408	-1.6761147951	-0.3894881566	 0.08049
H	-2.0361414778	 0.9897244308	-0.7010175545	 0.281326
81.259	203.5387	227.7402	257.5105	266.3986	315.15	396.0303	482.4473	525.662	567.6256	657.7601	774.4951	791.5791	828.2667	847.518	886.1457	904.1084	968.9996	986.9177	1008.4843	1047.0597	1075.3748	1087.2143	1123.8244	1160.6228	1182.5793	1191.6542	1228.6262	1242.2947	1275.6759	1308.8095	1334.9018	1375.9795	1415.4079	1436.3938	1459.5056	1482.911	1501.6179	3037.7481	3043.081	3087.7927	3095.8796	3118.2119	3122.0058	3198.8518	3213.2615	3710.6232	3812.4757
OC1CC2(CC2)C1O	O[C@H]1CC2(CC2)[C@H]1O	
InChI=1S/C6H10O2/c7-4-3-6(1-2-6)5(4)8/h4-5,7-8H,1-3H2	InChI=1S/C6H10O2/c7-4-3-6(1-2-6)5(4)8/h4-5,7-8H,1-3H2/t4-,5-/m0/s1
