19
gdb 84283	3.03413	1.63675	1.51461	1.0395	80.42	-0.2198	-0.0204	0.1994	972.1069	0.161166	-385.834058	-385.826965	-385.826021	-385.865279	29.198	
C	 0.1884644063	 1.5521984309	-0.0220715741	-0.394533
C	-0.0166930562	 0.029601111	-0.0115507172	-0.03356
C	 0.7780261205	-0.6320165795	-1.1318001653	-0.080731
C	 1.4869735642	-1.6791632213	-0.6861910628	 0.059068
C	 2.9943714143	-1.6457073117	-0.6976121899	-0.125306
O	 3.1787675355	-0.8151069635	 0.490899818	-0.275933
C	 2.0926154031	-1.0887396725	 1.3759679463	 0.106404
C	 0.5818741591	-0.6831975095	 1.2064779193	-0.08837
C	 1.121802092	-2.0139872155	 0.7559795818	-0.180677
H	 1.255077268	 1.7970995095	-0.0095791096	 0.13235
H	-0.2621314653	 2.0109156498	-0.9084032892	 0.111655
H	-0.2728767043	 2.0042720671	 0.8620027491	 0.115655
H	-1.0977929481	-0.1741097492	-0.0527921509	 0.079438
H	 1.0084116873	-0.0902261146	-2.0449431384	 0.09685
H	 3.4915723914	-2.6118458892	-0.5498387786	 0.100425
H	 3.4334610466	-1.1214367752	-1.548041216	 0.114812
H	 2.4294098313	-1.1691472417	 2.4044242334	 0.099278
H	 0.0623904806	-0.5956974975	 2.1585678921	 0.076276
H	 0.8382445338	-3.0073119875	 1.086006052	 0.086898
113.3432	226.5045	248.7056	319.4573	367.6643	432.4347	531.8402	632.4766	670.1947	684.1872	749.3121	769.1604	813.5373	846.7656	854.89	897.2087	908.8666	951.312	979.5932	1005.2289	1014.8265	1048.3045	1073.8809	1088.2633	1113.3839	1121.1752	1140.9516	1168.5284	1183.6334	1249.278	1288.0897	1297.36	1313.7105	1334.0573	1357.4482	1387.8817	1405.669	1494.5811	1499.7438	1510.4308	1649.1985	2977.7081	3029.4481	3031.7799	3100.9143	3110.1511	3121.4122	3133.129	3157.3397	3168.6462	3169.9238
CC1C=C2COC3C1C23	C[C@H]1[CH][C]2CO[C@H]3[C@@H]1[C@@H]23	
InChI=1S/C8H10O/c1-4-2-5-3-9-8-6(4)7(5)8/h2,4,6-8H,3H2,1H3	InChI=1S/C8H10O/c1-4-2-5-3-9-8-6(4)7(5)8/h2,4,6-8H,3H2,1H3/t4-,6-,7+,8-/m0/s1
