21
gdb 38753	2.29441	2.23348	1.75026	1.2496	79.13	-0.2362	0.0737	0.3099	915.5489	0.187864	-387.107085	-387.10058	-387.099635	-387.137541	28.323	
C	-0.0277937782	 1.5662466237	-0.1436821592	-0.249825
C	 1.5209625606	 1.5875614614	-0.0220193982	-0.043019
C	 2.0685856579	 1.7977217833	 1.3990750084	-0.230845
C	 1.9095412227	 0.4032434226	 2.0484207802	 0.085966
C	 0.4709294095	 0.117792661	 2.5468121354	-0.226865
C	-0.3929962443	-0.5045148889	 1.4248758253	-0.200573
C	-0.0210002386	 0.019273995	 0.0348305218	-0.039458
C	 1.5361375561	 0.0274035462	-0.1371416439	 0.110864
O	 2.2360319301	-0.4945439351	 0.9782706877	-0.259525
H	-0.5827339763	 2.1455455663	 0.6010876425	 0.090629
H	-0.373259565	 1.8703079906	-1.1350059389	 0.097515
H	 2.0590417619	 2.1699122637	-0.7712312457	 0.065584
H	 3.131888938	 2.0513024526	 1.3539123533	 0.102018
H	 1.5533748207	 2.5879496938	 1.9527689615	 0.095473
H	 2.6396137162	 0.2338468895	 2.8433570259	 0.075372
H	 0.4996239345	-0.5694597984	 3.3980213371	 0.098399
H	 0.0240550832	 1.0474757852	 2.9164409733	 0.096053
H	-0.2380554445	-1.5886932303	 1.4250611869	 0.107819
H	-1.4568892727	-0.3374999947	 1.6262158487	 0.091436
H	-0.5713257184	-0.5296727487	-0.7339224043	 0.063086
H	 1.931921207	-0.4341583589	-1.0425262579	 0.069894
164.03	297.7158	313.0252	405.2765	443.7205	501.7088	573.9826	637.7884	736.4612	763.2244	793.4254	812.7307	845.6616	869.9726	888.0257	896.084	944.8324	952.416	960.6934	1003.5481	1017.5455	1067.7501	1074.4124	1086.2985	1111.4075	1143.9142	1152.1828	1196.272	1212.436	1223.0925	1248.8857	1254.948	1283.4719	1301.0258	1312.5378	1326.9252	1336.3642	1353.9553	1359.8569	1379.6472	1392.1055	1477.8017	1482.7832	1486.8463	1503.887	3033.5796	3040.4174	3046.7176	3050.9546	3064.3829	3066.78	3080.6686	3087.62	3089.579	3098.2291	3102.7196	3110.3729
C1C2CC3CCC1C2O3	C1[C@H]2C[C@H]3CC[C@@H]1[C@@H]2O3	
InChI=1S/C8H12O/c1-2-7-4-6-3-5(1)8(6)9-7/h5-8H,1-4H2	InChI=1S/C8H12O/c1-2-7-4-6-3-5(1)8(6)9-7/h5-8H,1-4H2/t5-,6-,7+,8-/m0/s1
