20
gdb 90877	2.69923	1.72573	1.53939	0.7278	77.52	-0.222	0.072	0.294	966.213	0.173817	-403.106614	-403.099311	-403.098367	-403.137923	30.295	
O	-0.0579864095	 1.4437241969	 0.2135571405	-0.424361
C	 0.0517264806	 0.0230123152	 0.0932051731	 0.098197
C	-1.360777419	-0.5531617162	 0.264998657	-0.213632
C	-2.1544302461	-0.5358804344	-1.0426043841	-0.039679
C	-2.0587184804	 0.7661574324	-1.9137127303	-0.26007
C	-1.2239840115	-0.017151541	-2.9379125752	-0.0453
C	-1.4545237891	-1.3061406521	-2.1896863746	-0.06363
N	-0.1237101286	-0.7849643932	-2.3803400949	-0.081036
C	 0.7124928294	-0.4279765882	-1.235354977	-0.172501
H	 0.8119873565	 1.8222184089	 0.0510411352	 0.279222
H	 0.6901843504	-0.3472277452	 0.9105902813	 0.06395
H	-1.2853037374	-1.5854396622	 0.6297004183	 0.094871
H	-1.8645507141	 0.0291455434	 1.0432409299	 0.109749
H	-3.1859560618	-0.8537852273	-0.876839611	 0.06991
H	-3.0341181781	 1.0270828741	-2.3336024289	 0.094853
H	-1.6073473367	 1.6457785622	-1.4574539778	 0.122504
H	-1.2037071495	 0.1603669703	-4.008230877	 0.087542
H	-1.6962569235	-2.302564779	-2.5469055376	 0.081613
H	 1.4260451579	 0.3405001904	-1.5599161309	 0.092207
H	 1.3041911104	-1.3273397748	-1.0207173461	 0.105589
126.6431	209.33	297.3401	335.778	360.9157	370.9637	424.4299	532.9819	574.8431	678.1284	737.9451	796.6256	824.3205	836.3822	843.0115	898.569	915.4025	941.2064	953.0009	994.2887	1020.8978	1039.1003	1064.0757	1081.3199	1106.764	1111.1203	1155.8426	1189.0822	1220.0327	1243.302	1248.7437	1276.6903	1288.8374	1319.4238	1327.6906	1357.3854	1379.8435	1385.7056	1399.6689	1433.7686	1466.0612	1472.9183	1489.5242	2964.7674	3013.4172	3030.0545	3050.4875	3065.7548	3078.2867	3085.4507	3147.3824	3150.3887	3166.1382	3814.6608
OC1CC2CC3C2N3C1	O[C@H]1C[C@H]2C[C@@H]3[C@H]2N3C1	
InChI=1S/C7H11NO/c9-5-1-4-2-6-7(4)8(6)3-5/h4-7,9H,1-3H2	InChI=1S/C7H11NO/c9-5-1-4-2-6-7(4)8(6)3-5/h4-7,9H,1-3H2/t4-,5-,6+,7-,8?/m0/s1
