21
gdb 98157	2.58642	1.10477	0.96077	2.7472	84.85	-0.2412	-0.0128	0.2284	1364.8732	0.177705	-387.082167	-387.071108	-387.070164	-387.118349	40.233	
C	 0.1035993198	 1.5409647719	-0.0112165567	-0.379398
C	-0.0854633682	 0.0625822596	 0.3225772929	-0.293485
C	-1.4506265832	-0.470623419	-0.097507638	 0.383508
O	-2.3134750022	 0.2647807266	-0.509433375	-0.299261
C	-1.6819887854	-2.0113075333	-0.0352643671	-0.065955
C	-1.1947153838	-2.5751981676	-1.3995721364	-0.406372
C	-0.9125934759	-2.6925212723	 1.1198222913	-0.422474
C	-3.1121721201	-2.2829466356	 0.1153550108	 0.374395
C	-4.2733411746	-2.5545935356	 0.2603976204	-0.48381
H	 1.0807376736	 1.8905920725	 0.3335442944	 0.109118
H	 0.0354696203	 1.7111778783	-1.0889668419	 0.12891
H	-0.6721076154	 2.1474063729	 0.4615715161	 0.137413
H	 0.6980022058	-0.5519137586	-0.1385866842	 0.120863
H	 0.0196299989	-0.1077165442	 1.4024917302	 0.131177
H	-0.1266572368	-2.381840188	-1.5417265177	 0.116107
H	-1.3547625016	-3.6562340638	-1.4304426058	 0.13124
H	-1.7491637203	-2.1182719202	-2.2221603657	 0.144627
H	-1.214208094	-2.2886617423	 2.0901117398	 0.130102
H	-1.1321450927	-3.7633410618	 1.121069014	 0.13136
H	 0.1678680187	-2.5693468681	 1.0080735078	 0.117006
H	-5.305909493	-2.7709037316	 0.3810742208	 0.194929
35.6799	89.4472	134.9682	179.9124	186.4526	214.0444	250.0426	252.9573	274.548	304.0513	342.3703	409.4715	439.4082	522.8222	579.8968	620.2073	632.4496	640.678	712.4554	810.6871	825.6583	937.4095	958.4815	978.949	1017.65	1032.1569	1079.5751	1114.0987	1151.1704	1210.3728	1261.0153	1278.9466	1366.2132	1392.5532	1413.7988	1417.5772	1449.0133	1483.095	1487.894	1491.5914	1497.6904	1499.7761	1507.9854	1809.3905	2238.6322	3025.6601	3041.3191	3045.9159	3051.6963	3056.0555	3114.874	3120.9643	3121.5187	3122.051	3132.5057	3134.4793	3503.1546
CCC(=O)C(C)(C)C#C	CCC(=O)C(C)(C)C#C	
InChI=1S/C8H12O/c1-5-7(9)8(3,4)6-2/h2H,5H2,1,3-4H3	InChI=1S/C8H12O/c1-5-7(9)8(3,4)6-2/h2H,5H2,1,3-4H3
