23
gdb 59111	2.22237	1.36008	1.06567	2.4618	81.69	-0.2466	0.0594	0.306	1267.1527	0.204409	-425.418045	-425.407935	-425.406991	-425.45269	38.687	
C	 0.2174140707	 1.6241718011	-0.2629855941	-0.396351
C	 0.0862604449	 0.1713431293	 0.2147652591	 0.032405
C	 0.5731571205	 0.0032133316	 1.6608422013	-0.399069
C	-1.3509716723	-0.3239719165	 0.0760226764	 0.008208
C	-2.0178101395	-0.446607388	-1.3223487791	 0.064364
O	-1.0123107137	-0.8201849757	-2.2675239195	-0.436066
C	-2.7934982019	-1.6815205945	-0.7930863215	-0.282826
C	-1.6983104905	-1.834838376	 0.3032507071	 0.121928
O	-0.6631933345	-2.7299254832	-0.0438012928	-0.440553
H	 1.2518200583	 1.9728577368	-0.1738557479	 0.10768
H	-0.0801116402	 1.7242237548	-1.3110817439	 0.119818
H	-0.4101119085	 2.2967669427	 0.3348955333	 0.103763
H	 0.720476437	-0.4506418222	-0.426094765	 0.079011
H	-0.0415024055	 0.5876564854	 2.3568018783	 0.102802
H	 0.5327685164	-1.0458402172	 1.9673841746	 0.129675
H	 1.6078828059	 0.3459248865	 1.7670019271	 0.106205
H	-2.0117577519	 0.2804974347	 0.7108468366	 0.069181
H	-2.5958114652	 0.4083457998	-1.693601028	 0.065391
H	-1.4551152282	-1.0998331415	-3.0757854344	 0.28787
H	-3.7674392714	-1.4090068452	-0.3762891659	 0.102153
H	-2.9145801741	-2.5241485741	-1.4802513289	 0.092437
H	-2.0294078199	-2.1243996143	 1.3030812435	 0.078731
H	-0.3743501361	-2.4820151743	-0.9322476963	 0.283241
63.0001	121.6475	142.8706	198.8637	226.8181	243.6655	295.6439	308.6961	337.2345	381.051	406.2067	444.6579	517.4012	536.5483	580.0329	750.6398	833.8092	867.7706	880.4517	895.3091	911.1718	930.4538	971.2925	992.5382	1005.8144	1030.746	1102.2752	1129.916	1143.7244	1170.0692	1184.5296	1204.2901	1224.2657	1244.9984	1262.3203	1286.4909	1328.5439	1333.3885	1347.4922	1396.0878	1396.963	1405.02	1418.8288	1451.457	1468.0605	1489.1088	1493.4924	1503.4956	1512.865	3018.219	3021.3469	3024.4883	3029.1572	3050.1391	3052.2172	3083.9461	3085.1206	3092.6536	3106.115	3110.3398	3112.5466	3757.8693	3809.2067
CC(C)C1C(O)CC1O	CC(C)[C@H]1[C@@H](O)C[C@H]1O	
InChI=1S/C7H14O2/c1-4(2)7-5(8)3-6(7)9/h4-9H,3H2,1-2H3	InChI=1S/C7H14O2/c1-4(2)7-5(8)3-6(7)9/h4-9H,3H2,1-2H3/t5-,6+,7-
