19
gdb 98424	2.6147	1.29394	1.00171	2.687	73.66	-0.2387	0.0037	0.2424	1239.3183	0.157141	-460.18693	-460.177282	-460.176337	-460.221378	35.335	
C	-0.1161519137	 1.3705974764	-0.2321524481	-0.243793
O	-0.1319355698	-0.0627098013	-0.2872080274	-0.235756
C	-1.2384107642	-0.6498330306	 0.1957029172	 0.457757
O	-2.1683051383	-0.0113112854	 0.6603439678	-0.420385
C	-1.2059559253	-2.1261971933	 0.0774676107	 0.095943
C	-0.0084081481	-2.7748846124	-0.5837029417	-0.466426
C	-1.9126051584	-2.8660126732	 1.2283755955	-0.353505
C	-2.6032234227	-2.7705971992	-0.0867570637	 0.127597
O	-3.7475840703	-2.0249763913	-0.2795544784	-0.425269
H	 0.841023891	 1.6704898059	-0.6582457534	 0.136163
H	-0.9427158648	 1.7865640634	-0.8130186556	 0.144929
H	-0.20235263	 1.7164696525	 0.8006342633	 0.143899
H	 0.9095391859	-2.5970299849	-0.0143740649	 0.126171
H	-0.1561297249	-3.8569363065	-0.6511432049	 0.114184
H	 0.1476675511	-2.3908795993	-1.5957371847	 0.130046
H	-1.4710102598	-3.8076305314	 1.5371692458	 0.118935
H	-2.2953018342	-2.2442384215	 2.0303186349	 0.134077
H	-2.610338448	-3.6524954669	-0.7203286236	 0.11193
H	-3.6068675453	-1.170212791	 0.1620080812	 0.303502
66.8283	122.976	160.0362	189.3061	192.0878	226.5201	272.9301	314.907	344.3498	420.7629	477.125	499.3212	562.0397	575.6552	758.5642	781.3156	815.9399	857.9306	924.9948	960.4634	1022.0809	1034.7323	1055.0617	1101.4087	1127.1496	1178.4773	1178.5075	1201.0945	1228.5491	1275.2813	1353.1012	1369.9041	1422.1212	1454.0832	1474.132	1481.797	1486.1487	1491.2502	1495.7775	1501.8824	1748.6265	3037.478	3055.2688	3102.7953	3112.2496	3131.7762	3131.9334	3160.8963	3162.6472	3228.2329	3648.5436
COC(=O)C1(C)CC1O	COC(=O)[C@@]1(C)C[C@H]1O	
InChI=1S/C6H10O3/c1-6(3-4(6)7)5(8)9-2/h4,7H,3H2,1-2H3	InChI=1S/C6H10O3/c1-6(3-4(6)7)5(8)9-2/h4,7H,3H2,1-2H3/t4-,6+/m1/s1
