19
gdb 45589	2.63102	1.60287	1.24027	2.8779	75.41	-0.2403	-0.0165	0.2238	1058.1578	0.160748	-423.044037	-423.036436	-423.035492	-423.076214	29.958	
O	-0.0974183152	-0.0621483229	-0.0616607051	-0.299268
C	-0.094329991	 1.1309225958	 0.0161113542	 0.386294
C	-1.1778368292	 2.208211596	 0.2179252907	-0.346909
C	-0.04304559	 3.1303531668	 0.7333238904	 0.087008
O	-0.031938	 3.043799471	 2.1445348149	-0.263375
C	 1.2628953022	 3.1662542892	 2.7208346903	-0.066118
C	 2.1400479083	 1.9778461279	 2.3316056927	-0.207387
C	 2.3381653277	 1.9397018977	 0.8089878135	-0.239357
C	 1.0226242009	 2.1927302828	 0.076194271	-0.117939
H	-1.5980735557	 2.5358640969	-0.7382531643	 0.125744
H	-1.9817224335	 1.991629958	 0.9231197143	 0.137643
H	-0.0470593325	 4.1770677359	 0.4043632588	 0.068601
H	 1.7351259161	 4.1149169233	 2.4130976548	 0.085088
H	 1.1030243819	 3.2078198528	 3.801762836	 0.11061
H	 3.107982618	 2.0413129187	 2.8404488978	 0.097504
H	 1.6468993304	 1.0614724839	 2.6754211232	 0.119707
H	 3.0626880326	 2.7115495854	 0.5206770066	 0.100341
H	 2.7543708502	 0.9783778957	 0.4894047157	 0.119981
H	 1.2035562986	 2.5183602452	-0.9566543855	 0.101832
86.6445	138.1848	207.0524	322.8072	368.9745	415.4173	435.0906	476.2582	533.4186	630.7561	711.6996	715.576	806.6444	858.5398	880.4374	915.3446	916.9552	954.3257	1008.0025	1037.4418	1043.5817	1073.3077	1090.9653	1124.268	1149.283	1194.6391	1214.1597	1232.2918	1257.8582	1271.985	1312.1921	1326.4725	1354.188	1374.9297	1384.8635	1410.6513	1432.0056	1475.5142	1485.3244	1501.9492	1894.8429	2963.6692	3019.4873	3024.1105	3036.225	3039.018	3066.1846	3072.4597	3086.5803	3090.1381	3137.6549
O=C1CC2OCCCC12	O=C1C[C@H]2OCCC[C@@H]12	
InChI=1S/C7H10O2/c8-6-4-7-5(6)2-1-3-9-7/h5,7H,1-4H2	InChI=1S/C7H10O2/c8-6-4-7-5(6)2-1-3-9-7/h5,7H,1-4H2/t5-,7+/m0/s1
