17
gdb 85095	1.95255	1.63578	1.22875	5.236	75.38	-0.2502	-0.0021	0.248	1100.436	0.13566	-414.185964	-414.176481	-414.175537	-414.220131	34.369	
C	-0.4634965465	 1.4297350483	 0.0077969775	-0.394584
C	 0.097688631	 0.0222624485	-0.0626235538	 0.034177
N	 1.3814855494	-0.1263967166	-0.7698222659	-0.347215
C	 2.0558689492	-0.74357897	 0.2691300665	 0.350891
N	 3.1913960332	-1.2474253387	 0.4869588593	-0.542397
C	 0.8428560516	-0.5433501086	 1.2226822785	 0.049811
N	 0.9706548675	 0.3754507399	 2.3410135829	-0.553793
C	 0.2762794961	-1.8085642616	 1.6832434414	 0.276537
N	-0.1797683567	-2.8107310422	 2.0334486062	-0.33386
H	 0.2910715152	 2.1478253766	 0.3380042627	 0.119057
H	-0.8205733998	 1.7426150526	-0.9788745027	 0.122218
H	-1.3051385977	 1.4667777879	 0.7046337603	 0.144334
H	-0.6675758187	-0.6780905532	-0.4153242311	 0.106553
H	 1.5323232035	-0.2442132718	-1.7607207444	 0.247381
H	 3.7916318893	-1.2317295269	-0.339020825	 0.217215
H	 1.3955098066	-0.1065195261	 3.1276505381	 0.257845
H	 1.6069517268	 1.1260036219	 2.0889622596	 0.24583
74.0331	125.1071	158.2165	170.9419	202.9139	236.5147	258.5561	318.529	380.8075	421.1142	492.6903	553.5862	593.6514	644.7038	701.1748	747.9122	831.0621	836.5169	902.6498	961.391	1021.0481	1039.3327	1071.3514	1089.7228	1137.8854	1203.5796	1244.7099	1305.0463	1339.627	1379.4672	1395.4715	1414.6484	1480.08	1494.3603	1661.7334	1800.5717	2361.9514	3043.0521	3046.0427	3114.123	3132.042	3466.4354	3501.2771	3579.179	3612.8602
CC1NC(=N)C1(N)C#N	C[C@H]1N[C]([NH])[C@]1(N)C#N	
InChI=1S/C5H8N4/c1-3-5(8,2-6)4(7)9-3/h3H,8H2,1H3,(H2,7,9)	InChI=1S/C5H8N4/c1-3-5(8,2-6)4(7)9-3/h3H,8H2,1H3,(H2,7,9)/t3-,5+/m1/s1
