19
gdb 70487	3.38963	0.96398	0.86807	2.5067	76.52	-0.2431	-0.0205	0.2226	1358.8445	0.157288	-423.000164	-422.991088	-422.990144	-423.03488	33.409	
O	-0.0631937668	 1.4000226186	-0.0294021576	-0.460935
C	-0.0751478692	 0.0165603003	 0.0029697119	 0.383202
C	-0.4170059832	-0.8176723718	-1.198793447	-0.346929
C	-1.2798334162	-0.9171815131	 0.0396509549	-0.101592
C	-0.5791586143	-1.8067320559	 1.0733479734	-0.251367
C	 0.6230980814	-0.7970564394	 1.1019664836	-0.056878
C	 2.0516003865	-1.3026389105	 0.8606189538	-0.306123
C	 2.554724184	-2.1160294772	 2.0301737392	 0.164658
O	 2.8763400827	-3.2754796992	 1.9802826629	-0.239856
H	 0.5571333563	 1.6863999049	-0.707891454	 0.287899
H	-0.8607940454	-0.2470786455	-2.0089556926	 0.114803
H	 0.1946298776	-1.6578478989	-1.5209381628	 0.108731
H	-2.3342503944	-0.6735494988	 0.0183231331	 0.097505
H	-1.0980598525	-1.8764586204	 2.0311468821	 0.109821
H	-0.3359875267	-2.8179746968	 0.7311478557	 0.109186
H	 0.5900375174	-0.2180989113	 2.0311132783	 0.088293
H	 2.11830652	-1.9152640466	-0.0429087243	 0.116672
H	 2.715891347	-0.4334632121	 0.7453618116	 0.112759
H	 2.5943036158	-1.5535841462	 2.9936856977	 0.07015
47.0693	66.6204	152.4587	163.2434	231.8592	271.408	338.5867	395.3708	451.7845	472.802	542.2224	622.3367	711.2409	781.8252	843.3146	862.896	893.1835	905.327	959.6057	990.6148	1018.7622	1030.6037	1054.9163	1085.3334	1100.4802	1125.6385	1163.4561	1196.8461	1219.4378	1224.2513	1248.4566	1280.9398	1297.2402	1329.3658	1371.0134	1407.7669	1429.4585	1460.6038	1482.0478	1506.3573	1832.4898	2847.7957	3008.7325	3050.8863	3051.6447	3096.9638	3103.2486	3114.1634	3193.1082	3201.6979	3804.1239
OC12CC1CC2CC=O	O[C@]12C[C@H]1C[C@H]2CC=O	
InChI=1S/C7H10O2/c8-2-1-5-3-6-4-7(5,6)9/h2,5-6,9H,1,3-4H2	InChI=1S/C7H10O2/c8-2-1-5-3-6-4-7(5,6)9/h2,5-6,9H,1,3-4H2/t5-,6-,7+/m1/s1
