14
gdb 128034	5.28288	0.91128	0.78096	4.4226	70.29	-0.2509	-0.0643	0.1865	1383.8709	0.100217	-466.123515	-466.115394	-466.11445	-466.157079	28.345	
C	-0.2432800175	 1.6295333119	-0.0723186845	-0.314346
N	 0.0100314903	 0.2052092357	-0.0687499549	-0.165233
C	-0.9614767484	-0.5656277771	 0.1525769312	 0.086641
N	-0.8461962527	-1.9501752974	 0.1820678159	-0.407858
C	 0.2779766024	-2.7016503663	-0.0094485664	 0.547779
N	 1.4997647758	-2.3131468576	-0.2659848212	-0.172218
O	 2.1833427866	-3.5034968164	-0.3531547236	-0.139829
N	 1.3238695218	-4.5490765114	-0.1418528795	 0.053245
N	 0.1729343341	-4.083583751	 0.0665287531	-0.233386
H	 0.385990633	 2.1133645104	 0.6828787977	 0.136821
H	 0.0457150136	 2.0484949098	-1.0425328731	 0.13682
H	-1.2944602701	 1.896422631	 0.1250080654	 0.097572
H	-1.9942312084	-0.2438854964	 0.3445920908	 0.095221
H	-1.6768536105	-2.489017265	 0.3673738391	 0.27877
58.1821	115.4179	131.0937	207.3718	285.3996	307.0717	358.9997	387.2919	490.9944	651.263	683.7744	771.6835	779.6179	810.7606	921.1614	970.3171	1029.745	1065.9573	1103.5306	1140.7507	1148.0159	1206.1174	1268.4785	1405.4027	1446.1578	1460.9993	1477.9604	1502.7384	1581.3677	1648.6792	1776.6093	2969.3007	3025.3039	3064.8814	3084.7927	3652.7879
CN=CNC1=NON=N1	CN=CNc1nonn1	
InChI=1S/C3H5N5O/c1-4-2-5-3-6-8-9-7-3/h2H,1H3,(H,4,5,7)	InChI=1S/C3H5N5O/c1-4-2-5-3-6-8-9-7-3/h2H,1H3,(H,4,5,7)
