16
gdb 21206	6.81592	1.29283	1.1055	1.8567	68.16	-0.1977	0.0288	0.2265	1073.6703	0.132102	-376.137588	-376.129298	-376.128353	-376.171006	28.902	
C	 0.0938637394	 1.410327736	-0.0118433113	-0.315607
N	-0.1766875265	 0.0003618671	 0.1982083875	-0.370337
C	 0.5644573876	-0.695492876	 1.1198592927	 0.422896
N	 1.2865904098	-0.1076197298	 2.0675990375	-0.314164
N	 1.7689720864	-1.1972353776	 2.7425382643	-0.243924
C	 1.3415892204	-2.3420618808	 2.1797532929	 0.370596
C	 1.6954732255	-3.7006916495	 2.6819839581	-0.494282
N	 0.571444488	-2.0637622671	 1.140522907	-0.382492
H	 1.1178358861	 1.6106701693	-0.3609000776	 0.114418
H	-0.6144184405	 1.8012420179	-0.7460309778	 0.117699
H	-0.0464987192	 1.9520031053	 0.9271125581	 0.147688
H	-0.3802280639	-0.5448456337	-0.6249908045	 0.246016
H	 2.3689264428	-1.0637557826	 3.5385110178	 0.269949
H	 0.8033924299	-4.2243636253	 3.0390953985	 0.154205
H	 2.1292182912	-4.3020800912	 1.8782792316	 0.154675
H	 2.4153272531	-3.6471796022	 3.5030577552	 0.122664
39.8909	97.4781	146.7689	191.6011	235.1715	315.861	368.7403	466.3666	477.3385	523.683	682.0343	691.7856	772.8931	779.6459	989.4889	1011.3132	1058.1916	1071.1098	1102.731	1157.026	1165.4194	1190.3642	1277.2047	1358.1226	1414.5056	1442.5174	1456.3177	1471.1975	1481.0166	1490.6369	1515.4612	1534.0297	1596.8195	1620.7044	2994.0005	3046.5322	3085.6164	3110.7187	3124.9642	3128.2861	3627.6718	3674.9803
CNC1=NNC(C)=N1	CNc1n[nH]c(C)n1	
InChI=1S/C4H8N4/c1-3-6-4(5-2)8-7-3/h1-2H3,(H2,5,6,7,8)	InChI=1S/C4H8N4/c1-3-6-4(5-2)8-7-3/h1-2H3,(H2,5,6,7,8)
