19
gdb 73128	2.40673	1.84349	1.57019	2.8976	73.51	-0.24	0.0778	0.3178	961.2737	0.160084	-423.00301	-422.995486	-422.994542	-423.034658	29.998	
C	-0.1399360782	 1.5115941544	-0.0153980881	-0.492182
C	-0.0025144187	-0.001932068	-0.0214208038	 0.239875
C	-1.1699148764	-0.8482745109	 0.5461802296	-0.106479
O	-0.2898398626	-1.5379116038	 1.4574417669	-0.293092
C	 0.8273257804	-0.7008642719	 1.100061558	 0.094072
C	 2.0154920528	-1.4460561251	 0.4638892974	-0.271452
C	 1.7653914176	-1.3856928872	-1.0321274494	 0.04466
O	 0.5220978958	-1.967819233	-1.4360621591	-0.249371
C	 0.5888943882	-0.5428651081	-1.3167121529	-0.024225
H	 0.8096590258	 1.9988671945	-0.2647678109	 0.120527
H	-0.8838188554	 1.8440865852	-0.7485826985	 0.122862
H	-0.4540056916	 1.8745256234	 0.9679036325	 0.124315
H	-1.9293088887	-0.2618994333	 1.0801168946	 0.090391
H	-1.6541196625	-1.5365409184	-0.1529113221	 0.115825
H	 1.1330769997	-0.0732305885	 1.9470939504	 0.070954
H	 2.9619727631	-0.9472352056	 0.7026706413	 0.100963
H	 2.0704210046	-2.4736244933	 0.8359660468	 0.129381
H	 2.5847198707	-1.5133683715	-1.7365735475	 0.094584
H	 0.4631576153	 0.0082295611	-2.2470985252	 0.088394
127.9236	210.477	221.1877	256.1624	316.0638	364.0292	399.7953	503.2926	581.2749	667.9596	723.7883	796.4154	850.8418	857.7571	886.3664	899.9308	932.2674	968.8818	989.1091	1009.7023	1023.622	1044.3382	1075.6513	1113.6115	1153.2294	1175.7388	1187.1939	1212.8012	1252.9454	1262.0371	1269.3544	1310.6184	1328.2178	1366.0541	1383.3406	1414.596	1429.6448	1460.8575	1494.7534	1496.4703	1513.013	3009.5688	3017.1071	3026.6447	3046.3693	3083.6743	3088.0203	3097.4462	3104.4877	3124.5835	3139.6741
CC12COC1CC1OC21	C[C@]12CO[C@H]1C[C@H]1O[C@@H]21	
InChI=1S/C7H10O2/c1-7-3-8-5(7)2-4-6(7)9-4/h4-6H,2-3H2,1H3	InChI=1S/C7H10O2/c1-7-3-8-5(7)2-4-6(7)9-4/h4-6H,2-3H2,1H3/t4-,5+,6-,7+/m1/s1
