17
gdb 81157	2.54708	1.6786	1.24867	3.5722	72.67	-0.2438	0.0124	0.2563	1015.9517	0.138222	-417.988122	-417.98056	-417.979616	-418.019924	29.923	
O	-0.0223686857	 1.390575898	 0.1191889354	-0.43646
C	 0.0234201876	-0.0025992098	 0.0349471456	 0.134622
C	-1.3855801209	-0.6191653933	-0.1920809808	-0.08222
C	-1.2387605986	-0.1987430888	-1.6863729738	-0.275921
C	 0.2453078448	-0.5999315456	-1.407809366	 0.19874
N	 0.2209847495	-2.0442358154	-1.0943263068	-0.346146
C	-1.0231516788	-2.1106845502	-0.2523178781	-0.182168
C	 1.3461682969	-0.1553059694	-2.2309299606	 0.158379
N	 2.2189037253	 0.2549247176	-2.8691289757	-0.340847
H	 0.8742563299	 1.7321552491	 0.0284079844	 0.299845
H	 0.6555457196	-0.4572833473	 0.8075421145	 0.089861
H	-2.2348195647	-0.3186048361	 0.4184054324	 0.089313
H	-1.7692878776	-0.7786469526	-2.4455154244	 0.098748
H	-1.3687329545	 0.8708452559	-1.8346262712	 0.137956
H	 0.1027551547	-2.5791989446	-1.9488930489	 0.230879
H	-0.7977765105	-2.5359287822	 0.730582445	 0.116176
H	-1.8097040971	-2.7121942452	-0.718430161	 0.109243
116.3689	162.7921	282.0366	314.8745	328.9763	349.752	451.1584	489.3729	541.9798	559.9606	615.9708	654.7632	806.7469	837.0301	872.3167	913.7941	956.0374	965.0165	981.7872	1008.2185	1041.2781	1075.68	1098.6448	1155.3815	1167.9776	1195.6017	1217.7651	1254.6189	1263.4834	1270.5207	1312.5662	1343.1141	1402.9661	1425.9164	1486.203	1522.6464	2353.3313	3033.9427	3043.8229	3076.8007	3084.8674	3143.2598	3172.5802	3517.3183	3803.1743
OC1C2CC1(NC2)C#N	O[C@H]1[C@H]2C[C@@]1(NC2)C#N	
InChI=1S/C6H8N2O/c7-3-6-1-4(2-8-6)5(6)9/h4-5,8-9H,1-2H2	InChI=1S/C6H8N2O/c7-3-6-1-4(2-8-6)5(6)9/h4-5,8-9H,1-2H2/t4-,5-,6+/m0/s1
