19
gdb 102885	1.80385	1.19711	0.85305	4.3203	81.39	-0.255	0.0199	0.2749	1424.848	0.157367	-382.0389	-382.028551	-382.027607	-382.075204	36.682	
C	 0.1162685911	 1.530244612	-0.5555630602	-0.407219
C	-0.1947043	 0.1588478771	 0.0513685439	-0.188715
C	-1.6228238372	-0.3390495514	-0.2566288347	-0.105081
N	-1.7821365838	-0.6296618716	-1.6841807411	-0.286601
C	-3.1612031454	-0.9190442893	-2.0987857464	-0.323078
C	-4.1114821438	 0.1815388456	-1.8959024968	 0.307829
C	-4.8484060045	 1.1153576358	-1.7179651152	-0.463948
C	-1.8997785678	-1.5638930283	 0.5154853489	 0.304519
N	-2.1210354924	-2.5127716539	 1.1365305423	-0.331364
H	 1.1030470512	 1.8714468256	-0.2302949891	 0.129775
H	 0.1327507562	 1.5104367389	-1.6503336882	 0.123809
H	-0.6171141173	 2.2809597437	-0.2419469815	 0.127462
H	 0.5161627735	-0.5921275292	-0.3079233793	 0.128678
H	-0.0873673472	 0.2086833734	 1.1393925363	 0.124436
H	-2.3412617316	 0.4223300525	 0.0967887301	 0.11763
H	-1.4475134231	 0.1730460659	-2.206209913	 0.23203
H	-3.1382704899	-1.1955678731	-3.1585740148	 0.141654
H	-3.5021002722	-1.8081956651	-1.5556865	 0.164118
H	-5.5167781658	 1.9268506715	-1.5663147013	 0.204067
35.792	82.3376	90.5613	142.7172	182.4473	215.8603	247.3098	294.1402	331.9353	349.022	426.0066	534.0103	582.6037	603.1185	628.103	669.577	734.9248	784.1174	857.4431	927.1255	945.9575	949.9346	1048.8141	1054.6071	1108.0553	1139.0401	1160.4687	1268.6321	1295.7408	1324.8885	1355.2478	1362.9619	1388.2134	1415.6613	1468.4391	1480.4719	1486.6606	1500.2396	1514.8188	2226.8304	2359.6524	2944.7624	3035.5497	3041.7931	3053.8695	3076.8695	3086.632	3109.1142	3112.9894	3502.947	3537.0044
CCC(NCC#C)C#N	CC[C@@H](NCC#C)C#N	
InChI=1S/C7H10N2/c1-3-5-9-7(4-2)6-8/h1,7,9H,4-5H2,2H3	InChI=1S/C7H10N2/c1-3-5-9-7(4-2)6-8/h1,7,9H,4-5H2,2H3/t7-/m1/s1
