22
gdb 93927	3.47282	1.02667	0.82483	3.9562	83.96	-0.2286	0.0393	0.2679	1446.1242	0.194572	-404.406227	-404.396529	-404.395585	-404.441097	35.566	
C	-0.2097738196	 1.4941609638	 0.0414075026	-0.408977
C	 0.132071442	 0.0070661781	 0.030225671	 0.018557
C	 0.9556151179	-0.4588926729	-1.1848663112	-0.224743
C	 1.5295188294	-1.8101239025	-0.7364805897	-0.17407
N	 1.6770559647	-1.6496846031	 0.7119392335	-0.075966
C	 1.0025800604	-0.4495562953	 1.2122122663	-0.152993
C	 2.3066359328	-2.5021457385	 1.5707130202	 0.383583
C	 2.9385049576	-3.7382395975	 0.9474626435	-0.495345
O	 2.3585336708	-2.2774146283	 2.7702710801	-0.377728
H	 0.6996861336	 2.1052147284	 0.0146831208	 0.117798
H	-0.821865788	 1.765463013	-0.824761498	 0.11605
H	-0.768997275	 1.7675714302	 0.9421069225	 0.121405
H	-0.8000851029	-0.5735692971	 0.0513302318	 0.080405
H	 0.367773075	-0.5381326916	-2.1029233454	 0.104259
H	 1.7709465855	 0.2508317349	-1.3706130132	 0.106651
H	 0.8375095451	-2.6302862042	-0.9774437029	 0.106471
H	 2.4860825337	-2.0373841027	-1.2176778884	 0.11168
H	 1.7371797678	 0.3214221273	 1.4854000494	 0.105682
H	 0.433493137	-0.6841940783	 2.114970857	 0.127504
H	 2.2139324949	-4.3151284331	 0.363472692	 0.130592
H	 3.7582760545	-3.4658239033	 0.2737769634	 0.134874
H	 3.331931073	-4.3583343375	 1.7522187645	 0.144311
53.6826	110.9944	142.2963	180.1871	193.0247	204.351	234.4199	309.309	366.5325	433.0104	528.9217	545.3482	600.0505	622.8011	778.9357	838.9422	877.9022	934.6462	948.7385	969.1961	978.6884	1005.0877	1049.1133	1074.1094	1096.1786	1156.6615	1165.2445	1193.7976	1221.2463	1239.5715	1267.0046	1311.045	1335.7922	1356.321	1367.0317	1378.4363	1400.4862	1415.8932	1434.8857	1470.9974	1485.3205	1490.4329	1497.4208	1500.0828	1519.919	1529.4057	1757.0158	2991.1531	3001.6374	3015.376	3029.2814	3037.9199	3039.982	3064.8936	3093.7835	3096.8564	3100.025	3102.0456	3103.0295	3160.6856
CC1CCN(C1)C(C)=O	C[C@H]1CCN(C1)C(=O)C	
InChI=1S/C7H13NO/c1-6-3-4-8(5-6)7(2)9/h6H,3-5H2,1-2H3	InChI=1S/C7H13NO/c1-6-3-4-8(5-6)7(2)9/h6H,3-5H2,1-2H3/t6-/m0/s1
