19
gdb 111437	2.96865	1.54249	1.23317	2.2028	74.27	-0.2464	0.0617	0.3082	1064.4067	0.159771	-422.982398	-422.974544	-422.9736	-423.014996	30.371	
C	-0.2831733989	 1.2601488205	-0.0682242829	-0.234519
O	 0.1880302598	-0.061494392	 0.0651012362	-0.235811
C	 0.7780381645	-0.5827654651	-1.1069024451	 0.10365
C	 1.3665657974	-1.9662000241	-0.8265223763	-0.085108
C	 0.4435561304	-3.0712889407	-0.3862561021	-0.27657
C	 0.8192711175	-2.9489094538	-1.8433538645	-0.07001
C	-0.146333297	-2.1759999204	-2.7186861068	 0.028769
O	-1.2871465564	-1.6467001513	-2.028842397	-0.246844
C	-0.1844391652	-0.7704582178	-2.2915111451	-0.005266
H	 0.5138856256	 1.9466474974	-0.3973428538	 0.098692
H	-1.1192352295	 1.3351226294	-0.7786652356	 0.113478
H	-0.6342187694	 1.5768304357	 0.9167837782	 0.128792
H	 1.5844797507	 0.091910757	-1.4468987535	 0.061019
H	 2.4015915617	-2.0080891795	-0.5082561446	 0.087998
H	 0.8922640689	-3.8838433423	 0.1744517819	 0.106896
H	-0.5697126914	-2.8159535464	-0.1071290122	 0.147244
H	 1.4443035451	-3.6988747555	-2.3126789824	 0.08491
H	-0.3287916231	-2.4907231368	-3.7425602356	 0.096056
H	-0.4009104307	 0.0577101657	-2.9628796787	 0.096625
73.3209	133.2535	179.5111	231.628	307.939	343.1324	456.2139	536.0012	561.5589	684.1809	744.2574	763.4096	801.5229	844.6003	873.221	894.8938	936.5166	969.7826	1009.9401	1017.3339	1053.2162	1070.2428	1088.0271	1100.1924	1105.5648	1113.17	1156.0674	1180.8522	1198.7536	1228.4154	1262.9618	1303.34	1323.3131	1351.7113	1364.6489	1393.0565	1428.544	1478.2375	1480.2405	1489.4622	1508.1213	2940.875	2971.2814	3024.7472	3114.6291	3131.6662	3146.4836	3152.7257	3173.0584	3187.6274	3247.9282
COC1C2CC2C2OC12	CO[C@H]1[C@H]2C[C@H]2[C@H]2O[C@@H]12	
InChI=1S/C7H10O2/c1-8-5-3-2-4(3)6-7(5)9-6/h3-7H,2H2,1H3	InChI=1S/C7H10O2/c1-8-5-3-2-4(3)6-7(5)9-6/h3-7H,2H2,1H3/t3-,4+,5-,6+,7-/m0/s1
