20
gdb 76798	2.58774	1.38676	1.25571	2.4306	75.59	-0.2452	0.0506	0.2958	1119.7621	0.17041	-440.237382	-440.228227	-440.227283	-440.270787	35.153	
C	-0.0298469549	 1.6124667966	 0.0004190561	-0.431977
C	 0.0746731878	 0.0968806057	 0.0110987603	-0.01162
C	 1.1338883418	-0.6052408391	-0.9084284647	 0.020379
O	 2.2951228757	 0.154928324	-1.1752628844	-0.440996
C	 1.3239845461	-1.6170411466	 0.2310560126	 0.377112
C	 1.1405614945	-3.0810989259	 0.1423777298	-0.324108
N	 2.4546750269	-2.4970941065	 0.4680480721	-0.364667
C	 0.7389607933	-0.6230064343	 1.2336493217	-0.025504
O	 1.8213418761	 0.124516874	 1.7823365901	-0.427725
H	 0.9470906254	 2.0810017567	 0.1443645242	 0.118502
H	-0.4206046453	 1.9673610293	-0.9582388647	 0.126917
H	-0.7054444006	 1.9705713729	 0.7860195368	 0.109077
H	-0.9039550554	-0.3605580549	-0.172316224	 0.07692
H	 0.7820118756	-0.9790825821	-1.8739741144	 0.077243
H	 2.6645272722	 0.4015823598	-0.3160583138	 0.291255
H	 0.6728016365	-3.6259157162	 0.9585501018	 0.119393
H	 0.9798203085	-3.5122969285	-0.8431839323	 0.113705
H	 3.0610115969	-2.4885215864	-0.3501383098	 0.239018
H	 0.0811936589	-1.0051523551	 2.0240692371	 0.067333
H	 1.4537920901	 0.8920907365	 2.2339492754	 0.289744
89.7255	167.6754	187.8345	212.0127	232.518	248.7251	251.2826	348.2896	436.4209	483.7175	489.6847	543.7679	558.7381	687.8527	752.6502	844.0364	872.6293	901.9623	912.8125	969.8007	973.9281	996.839	1003.9526	1061.9976	1110.8322	1121.1729	1142.5877	1149.4348	1160.9495	1214.8711	1235.4637	1258.2545	1280.2609	1303.6687	1317.1561	1354.0684	1374.0748	1410.2967	1441.0158	1463.1899	1496.3541	1498.3879	1515.482	3024.0714	3032.8994	3049.9547	3073.7463	3096.7686	3098.9423	3118.9376	3183.4912	3486.2791	3753.7755	3806.1423
CC1C(O)C2(CN2)C1O	C[C@H]1[C@@H](O)[C@]2(CN2)[C@H]1O	
InChI=1S/C6H11NO2/c1-3-4(8)6(2-7-6)5(3)9/h3-5,7-9H,2H2,1H3	InChI=1S/C6H11NO2/c1-3-4(8)6(2-7-6)5(3)9/h3-5,7-9H,2H2,1H3/t3-,4+,5-,6+
