18
gdb 99074	3.42133	0.82595	0.75279	2.0116	76.35	-0.2542	0.0364	0.2906	1565.2698	0.144624	-439.093328	-439.082716	-439.081772	-439.130703	36.494	
C	-0.2501076652	 1.2906276568	-0.007275721	-0.233236
O	 0.0893705501	-0.0981141036	-0.0051793295	-0.268656
C	 0.6711561031	-0.5383309712	-1.1483281254	 0.535736
O	 0.8968896613	 0.1550327944	-2.1162736468	-0.41886
N	 0.9720561627	-1.8613405334	-1.0329708966	-0.368279
C	 1.5036629595	-2.6267932305	-2.1552352361	-0.11942
C	 2.9811968749	-3.0034468714	-1.9410928796	-0.381078
C	 0.6801237124	-3.8132168182	-2.4035279566	 0.312211
C	 0.024879158	-4.805022362	-2.57964722	-0.461499
H	 0.6407388601	 1.9098619034	-0.1410053224	 0.138674
H	-0.9581910385	 1.5176559825	-0.8083195529	 0.139974
H	-0.7032254842	 1.484138001	 0.9655075596	 0.12981
H	 0.6589390029	-2.3492817915	-0.2095983195	 0.257166
H	 1.4360863498	-1.9529738519	-3.0159600644	 0.151413
H	 3.0943677351	-3.6393261774	-1.0583238525	 0.122006
H	 3.3639462993	-3.5486057817	-2.8080086719	 0.130288
H	 3.572569218	-2.0950666432	-1.8013943913	 0.131592
H	-0.5640934091	-5.6716452521	-2.7531091931	 0.202157
20.5128	58.3654	93.8581	136.4157	152.0655	179.0049	230.1277	268.3644	327.7069	370.3094	443.5168	457.3816	542.3263	570.3953	630.6648	662.3153	720.5423	780.2551	844.4084	931.9233	978.0999	1069.9754	1098.5542	1125.4812	1180.9777	1183.3244	1215.5107	1246.5844	1339.7335	1356.1393	1403.9993	1466.5089	1481.0116	1489.0502	1491.4828	1500.9299	1538.855	1809.9778	2238.1391	3045.2436	3049.8821	3066.6992	3123.4835	3124.0177	3131.529	3153.6784	3503.58	3649.8818
COC(=O)NC(C)C#C	COC(=O)N[C@@H](C)C#C	
InChI=1S/C6H9NO2/c1-4-5(2)7-6(8)9-3/h1,5H,2-3H3,(H,7,8)	InChI=1S/C6H9NO2/c1-4-5(2)7-6(8)9-3/h1,5H,2-3H3,(H,7,8)/t5-/m0/s1
