25
gdb 118117	3.10725	0.75232	0.67983	1.3676	89.88	-0.2525	0.0794	0.3319	1799.1283	0.226937	-389.483288	-389.472159	-389.471214	-389.520046	40.901	
C	 0.2706976472	 1.5421115441	 0.1398498116	-0.378018
C	-0.0282824257	 0.0463644701	 0.0000291975	-0.174708
C	 0.6561669306	-0.5835779006	-1.2189873387	-0.160106
C	 0.4622353774	-2.1049946954	-1.3648556361	 0.018091
C	-1.0014574954	-2.5007184773	-1.6162464195	-0.401332
C	 1.3440377569	-2.6424560095	-2.4808197505	-0.00397
C	 2.8059048636	-2.9634304397	-2.2313153915	-0.34478
C	 1.809435217	-4.0689497755	-2.484857214	 0.083233
O	 1.3850651654	-4.8753645842	-1.4213958939	-0.417532
H	 1.3462229281	 1.7233557743	 0.2464224927	 0.111241
H	-0.0698207035	 2.0973201682	-0.7414980675	 0.112039
H	-0.2275934494	 1.9706899588	 1.0152635013	 0.108365
H	 0.2978269433	-0.4785832651	 0.9081269998	 0.091689
H	-1.1133491361	-0.0983919667	-0.0610332098	 0.098034
H	 0.2988496522	-0.0855926439	-2.1325678203	 0.083793
H	 1.7330327214	-0.3747093314	-1.1646415818	 0.089364
H	 0.7826913255	-2.5832016397	-0.4310853263	 0.076794
H	-1.0926678506	-3.5872310827	-1.6971336771	 0.13004
H	-1.6582141171	-2.1684848556	-0.8070323851	 0.109065
H	-1.3723678948	-2.0572961129	-2.5488282268	 0.102813
H	 1.1105001163	-2.2324574483	-3.461816226	 0.079623
H	 3.5445400287	-2.7328057278	-2.9916262729	 0.106728
H	 3.1576664516	-2.8590651753	-1.2092506417	 0.110225
H	 1.8576792451	-4.5813516671	-3.4459766628	 0.081884
H	 2.1151909124	-5.4528158168	-1.1764179307	 0.287422
52.2687	70.3949	102.5825	112.2342	194.0113	207.0373	238.1129	253.0297	292.5471	316.9856	371.4024	390.6226	418.2457	498.476	606.8957	743.1339	765.2284	829.7084	846.9003	865.8544	879.5719	937.5954	968.0092	991.1403	1017.6645	1020.2155	1048.4561	1058.3368	1088.3425	1130.4769	1149.6681	1175.1799	1185.2666	1201.7579	1237.3861	1258.8824	1285.8633	1302.4326	1329.5508	1330.9174	1359.7527	1392.171	1404.2125	1409.8197	1412.3757	1427.3711	1480.274	1485.8748	1493.4062	1498.803	1499.0635	1505.7955	1511.5942	2998.1331	3017.4571	3024.7706	3027.1363	3029.8727	3038.8928	3060.1327	3091.9072	3093.8126	3095.8651	3099.0268	3116.8274	3121.4564	3124.9104	3211.5028	3809.2976
CCCC(C)C1CC1O	CCC[C@@H](C)[C@H]1C[C@H]1O	
InChI=1S/C8H16O/c1-3-4-6(2)7-5-8(7)9/h6-9H,3-5H2,1-2H3	InChI=1S/C8H16O/c1-3-4-6(2)7-5-8(7)9/h6-9H,3-5H2,1-2H3/t6-,7-,8-/m1/s1
