19
gdb 77530	3.04588	1.27341	1.06194	1.5805	84.2	-0.2421	0.0426	0.2847	1188.0559	0.157288	-385.814034	-385.805037	-385.804093	-385.847121	35.084	
C	-0.0330914356	 1.4575309688	 0.0579202015	-0.513625
C	-0.0023246486	-0.0447006766	 0.0204472541	 0.264415
C	 0.6208110318	-0.9665827127	-1.0706201331	-0.290352
C	 0.030596054	-1.9593579407	-0.0192083363	 0.200444
C	 0.6398596106	-1.0114847118	 1.0675745515	-0.327454
C	 0.0588952454	-3.3910556242	-0.0454381805	 0.051515
C	 0.0682788548	-4.5943646575	-0.0600048741	-0.363974
C	-1.2302426466	-1.0150953827	-0.0225971925	 0.123107
O	-2.1778267229	-1.0470390828	 0.9989251137	-0.445015
H	 0.9757667819	 1.8779346321	 0.1296359659	 0.120656
H	-0.5031979371	 1.8620972786	-0.8449821102	 0.123526
H	-0.6086703073	 1.8121384085	 0.9199707512	 0.123768
H	 0.1474789124	-0.9635714858	-2.0565576967	 0.098285
H	 1.7101844732	-0.9584863915	-1.1451144397	 0.101982
H	 1.7309320023	-1.0042982055	 1.1328520587	 0.102859
H	 0.2096784399	-1.0494334039	 2.0738327784	 0.081271
H	 0.075090963	-5.6559347989	-0.0760049631	 0.175901
H	-1.7967833926	-1.0146969467	-0.9579383607	 0.087136
H	-1.7347419786	-1.1114950467	 1.8511884719	 0.285556
119.6088	136.1592	179.9275	198.9998	240.135	292.9408	342.3404	373.186	502.4081	517.2468	536.9974	552.3371	618.442	629.0426	634.2428	660.8362	747.1605	825.8004	875.933	936.9746	960.3748	1010.0862	1027.522	1048.6201	1103.9981	1123.1776	1143.9161	1146.3741	1170.0972	1180.975	1213.5254	1274.8056	1285.599	1355.0724	1412.6178	1453.5512	1488.1124	1489.8212	1505.0339	1550.1804	2231.2102	3027.8048	3041.5441	3055.8747	3081.2334	3095.5825	3096.398	3103.6884	3126.4126	3502.2486	3815.2792
CC12CC(C1)(C#C)C2O	C[C@@]12C[C@](C1)(C#C)[C@H]2O	
InChI=1S/C8H10O/c1-3-8-4-7(2,5-8)6(8)9/h1,6,9H,4-5H2,2H3	InChI=1S/C8H10O/c1-3-8-4-7(2,5-8)6(8)9/h1,6,9H,4-5H2,2H3/t6-,7-,8+/m0/s1
