21
gdb 98277	2.54	1.12271	0.85931	2.4888	75.94	-0.2644	0.0027	0.267	1415.5508	0.179438	-461.402326	-461.391359	-461.390415	-461.439074	38.597	
C	-0.1570700516	 1.4368387653	-0.1574118108	-0.246431
O	-0.1709610064	 0.0000287215	-0.1997470974	-0.221857
C	 0.6771700389	-0.5599064893	-1.0690846829	 0.429075
O	 1.4127525512	 0.0651238518	-1.7987804174	-0.383277
C	 0.6383755751	-2.084840238	-1.0631411951	 0.021347
O	 1.0507116943	-2.5291923664	-2.3376821182	-0.433794
C	 1.5325873756	-2.68124346	 0.0602850235	 0.021216
C	 1.0740257151	-2.2864710334	 1.4701791784	-0.394316
C	 1.5823532465	-4.2073732137	-0.0898241374	-0.394471
H	 0.8317594449	 1.8032119858	 0.1281638702	 0.145089
H	-0.4181864482	 1.84811639	-1.1351254147	 0.14793
H	-0.9004992782	 1.7166387325	 0.5882673735	 0.139668
H	-0.396652567	-2.4118653789	-0.9013644928	 0.098304
H	 1.6101207811	-1.8224507653	-2.6916853937	 0.292149
H	 2.5439118122	-2.2851423238	-0.1084811182	 0.079113
H	 1.1169402514	-1.2085566013	 1.6408980785	 0.116152
H	 0.0421234616	-2.6091132778	 1.6512302079	 0.116385
H	 1.7075443656	-2.7716881827	 2.2192219459	 0.11386
H	 1.8881836873	-4.4903687343	-1.0982230446	 0.136867
H	 2.287140683	-4.6397534334	 0.627451413	 0.107557
H	 0.5969380375	-4.6483612885	 0.104186582	 0.109434
40.7226	66.1501	108.5134	119.5599	196.5956	211.859	234.2969	248.6778	305.3213	344.8374	362.3035	374.7731	422.7884	426.9623	530.0409	704.8925	761.0895	860.7114	899.689	931.5039	948.298	973.0831	1012.1697	1098.3664	1132.6754	1148.222	1177.3111	1187.3842	1207.3728	1236.0317	1288.3066	1314.6732	1349.1309	1373.2202	1397.1553	1423.0507	1448.8952	1475.893	1481.7579	1486.6184	1489.3973	1496.1923	1502.4059	1513.2454	1798.9561	3007.3571	3029.3558	3034.2189	3040.1062	3056.6833	3092.3831	3100.0048	3123.5207	3134.172	3138.8206	3166.4194	3729.9994
COC(=O)C(O)C(C)C	COC(=O)[C@@H](O)C(C)C	
InChI=1S/C6H12O3/c1-4(2)5(7)6(8)9-3/h4-5,7H,1-3H3	InChI=1S/C6H12O3/c1-4(2)5(7)6(8)9-3/h4-5,7H,1-3H3/t5-/m0/s1
