22
gdb 6616	3.24184	1.4907	1.3714	1.9104	76.95	-0.2415	0.0673	0.3088	1048.0003	0.198969	-350.190627	-350.181385	-350.180441	-350.224274	34.645	
C	 0.2314032523	 1.5503190311	 0.2245605443	-0.411439
C	 0.0145238464	 0.0366053169	 0.037498372	 0.233278
C	 0.6615419062	-0.7144997003	 1.2167156496	-0.404393
C	-1.4977329428	-0.2563685529	 0.0131437063	-0.4044
C	 0.6318670402	-0.4962425863	-1.2728767336	-0.009675
C	 0.3225324006	 0.2247784441	-2.6068422867	-0.098358
O	 1.7095940853	 0.5641370102	-2.8015417593	-0.275237
C	 2.1017723637	-0.1535329763	-1.6148837362	-0.098367
H	 1.2929143105	 1.8115968075	 0.2667588665	 0.116981
H	-0.2257413424	 2.1338258232	-0.5800508877	 0.116981
H	-0.2231663134	 1.8793717113	 1.1650020439	 0.110465
H	 0.2343243722	-0.3868773314	 2.1705821166	 0.110695
H	 0.5035617863	-1.7955153684	 1.1337418193	 0.108582
H	 1.7415687897	-0.5356694385	 1.2599444385	 0.112479
H	-1.990610525	 0.2562578466	-0.8202757616	 0.112477
H	-1.6927798954	-1.3295102665	-0.0905945732	 0.108584
H	-1.9764924532	 0.0820955755	 0.9383153603	 0.110696
H	 0.4322196474	-1.5709940584	-1.3245999584	 0.072171
H	-0.0569729301	-0.4211802315	-3.4091856779	 0.095711
H	-0.3130309799	 1.1170110944	-2.5487025602	 0.098527
H	 2.6356061943	 0.4900409828	-0.9047942171	 0.098523
H	 2.7391582271	-1.0157160629	-1.8503022354	 0.095719
59.2619	94.5181	201.9665	228.7494	261.1186	265.2595	292.1685	320.7746	362.1217	385.965	462.388	484.6304	675.5421	819.0667	863.9111	892.8098	934.5594	937.1363	958.416	969.6322	997.3657	1015.9926	1044.5223	1076.7749	1081.122	1108.7878	1165.3428	1166.6827	1227.6108	1240.3542	1273.8996	1285.488	1313.2765	1361.0298	1392.1765	1398.8252	1400.7581	1433.099	1480.8386	1484.3818	1484.5833	1499.8935	1507.3572	1516.5203	1524.334	1542.0335	3003.3117	3013.7347	3022.0918	3025.8287	3036.9939	3044.1088	3046.9302	3061.7415	3091.1587	3092.3721	3093.3574	3096.2603	3102.0488	3114.3072
CC(C)(C)C1COC1	CC(C)(C)C1COC1	
InChI=1S/C7H14O/c1-7(2,3)6-4-8-5-6/h6H,4-5H2,1-3H3	InChI=1S/C7H14O/c1-7(2,3)6-4-8-5-6/h6H,4-5H2,1-3H3
