14
gdb 97476	5.74161	0.49141	0.45509	22.6486	115.66	-0.1791	-0.0726	0.1065	2250.0576	0.098441	-436.565876	-436.55563	-436.554685	-436.603654	33.21	
N	 0.0436301556	 1.3330429776	-0.1036145927	-0.427245
H	 0.2333468283	 0.3780619982	-0.4235899141	 0.312648
H	 0.9229613576	 1.8448416939	-0.0023811104	 0.334741
H	-0.511029265	 1.8288809363	-0.8049753558	 0.33474
C	-0.7512039749	 1.4382452305	 1.3143746419	-0.356824
C	-0.9393553673	 2.7996342163	 1.6234908428	-0.169634
C	-0.9245762132	 4.0280903027	 1.572956303	 0.273217
C	-0.9088971654	 5.3567962441	 1.5187048383	-0.30572
C	-0.8347548975	 6.5749707956	 1.3622415205	 0.239385
C	-0.6963975077	 8.0498106961	 1.0859829786	 0.254445
O	-1.1819329135	 8.7931505144	 1.9384962479	-0.423528
O	-0.0970081977	 8.2196266718	 0.0119878118	-0.426681
H	-1.6619271401	 0.8600836913	 1.1249633181	 0.180227
H	-0.1038709392	 0.8774348213	 1.9970259803	 0.180229
27.7158	48.5045	76.2503	77.3253	160.5647	178.0186	226.3055	312.1307	334.2492	357.5723	493.8225	529.8325	559.7202	582.1912	724.721	779.8832	800.2117	831.8454	980.5031	1065.5367	1243.9051	1290.4374	1311.5155	1357.2631	1399.265	1480.3298	1619.6195	1649.2139	1761.9468	2161.0236	2273.2239	3040.7838	3083.7302	3374.0618	3501.3165	3516.1564
[NH3+]CC#CC#CC([O-])=O	[NH3]CC#CC#CC(=O)[O]	
InChI=1S/C6H5NO2/c7-5-3-1-2-4-6(8)9/h5,7H2,(H,8,9)	InChI=1S/C6H5NO2/c7-5-3-1-2-4-6(8)9/h5H2,7H3
