16
gdb 55009	2.66173	1.62421	1.30825	3.1944	64.45	-0.2522	0.0039	0.2561	989.6993	0.125768	-471.213793	-471.205807	-471.204863	-471.246032	31.085	
N	 0.0959185748	 1.1597208631	 0.2030560212	-0.52157
C	-0.022971431	-0.0986309835	-0.4439874421	 0.359868
N	 1.1091578209	-0.9251505188	-0.1662168074	-0.51226
H	 1.972705119	-0.4040801751	-0.2766027364	 0.240273
H	 1.1404464871	-1.7095244498	-0.8089187955	 0.241167
C	-1.3239875963	-0.8059409578	-0.0755807964	-0.068131
N	-2.4858822399	 0.0200164017	-0.4179791985	-0.339829
C	-2.0631714966	-1.0874091063	-1.3223518208	-0.19774
C	-1.2273730518	-0.5602511057	-2.4582859887	 0.452115
O	-1.4233550284	-0.6913000639	-3.6343092124	-0.355581
O	-0.1615176706	 0.0913507217	-1.941134506	-0.283197
H	 0.8521460004	 1.7034282772	-0.2010939134	 0.238801
H	-0.7692017462	 1.6732200225	 0.0669495198	 0.256594
H	-1.3251498538	-1.4520122484	 0.7930512566	 0.119036
H	-3.2923327977	-0.2936533935	 0.1179756945	 0.247698
H	-2.7128971499	-1.9374507236	-1.4834985347	 0.122756
106.9992	161.8691	199.7973	270.6907	338.6689	367.5481	405.8535	415.9962	499.4596	556.0987	604.215	635.9231	767.3717	781.659	819.4285	840.1493	861.3423	888.6494	901.2123	924.6853	952.9243	1048.8253	1085.5762	1121.6672	1127.6474	1144.2947	1229.5965	1277.7016	1343.318	1363.7077	1392.958	1463.9112	1639.7322	1678.3517	1868.5402	3201.4872	3213.0785	3498.548	3507.7233	3514.2137	3588.166	3596.3675
NC(=[NH2+])C1NC1C([O-])=O	NC1(N)[C@H]2N[C@H]2C(=O)O1	
InChI=1S/C4H7N3O2/c5-3(6)1-2(7-1)4(8)9/h1-2,7H,(H3,5,6)(H,8,9)	InChI=1S/C4H7N3O2/c5-4(6)2-1(7-2)3(8)9-4/h1-2,7H,5-6H2/t1-,2+/m1/s1
