19
gdb 91814	2.65989	1.48504	1.23688	1.9434	70.83	-0.2356	0.0677	0.3034	1081.5754	0.157777	-460.140785	-460.131948	-460.131004	-460.173787	34.36	
C	 0.155743255	 1.5959349208	-0.1718274766	-0.399524
C	 0.0885378864	 0.0888500107	-0.0207961614	 0.135072
O	 0.7056104953	-0.5282751437	-1.1679415528	-0.274581
C	 1.1330276683	-1.8089664164	-0.7973533257	 0.01417
C	 2.4962176636	-1.8918581028	-0.1466577917	-0.328849
C	 1.2522941838	-1.8863621574	 0.7004564671	 0.312285
O	 0.9907921428	-3.0302033645	 1.4540877228	-0.469068
C	 0.7921808268	-0.512827878	 1.2185478036	 0.012283
O	 1.8390919511	 0.3450550885	 1.6428569934	-0.426684
H	 1.1936372974	 1.9313932461	-0.1768136691	 0.141236
H	-0.3224493863	 1.8961905421	-1.1079087773	 0.121148
H	-0.3633535211	 2.0854742489	 0.6574162678	 0.115996
H	-0.9638466627	-0.2385570291	 0.017434337	 0.062844
H	 0.7596332816	-2.6283112298	-1.4050771157	 0.097156
H	 3.0115509288	-2.8441648878	-0.2101786805	 0.118935
H	 3.1157710779	-1.0028294802	-0.1565123125	 0.130731
H	 0.0411118609	-3.1942513072	 1.4375809959	 0.282068
H	 0.0708909286	-0.6646225894	 2.0353852523	 0.064726
H	 2.3709357817	-0.1383820707	 2.2833107035	 0.290056
79.0005	194.619	215.4201	260.8155	271.1743	297.0677	317.0245	322.5501	397.1703	438.1938	502.7973	522.1295	629.6988	698.9628	759.8583	812.0888	870.4898	922.8352	925.3899	975.0035	995.6654	998.9692	1043.6187	1071.7438	1080.1221	1140.0506	1148.919	1169.2943	1206.9359	1254.4406	1260.7239	1308.0993	1327.1136	1364.2264	1378.1813	1408.251	1411.7303	1413.8898	1471.2754	1483.0264	1495.4183	2956.4473	2993.762	3053.4773	3121.5475	3137.6656	3149.8996	3150.683	3238.3708	3790.707	3819.7509
CC1OC2CC2(O)C1O	C[C@H]1O[C@H]2C[C@@]2(O)[C@H]1O	
InChI=1S/C6H10O3/c1-3-5(7)6(8)2-4(6)9-3/h3-5,7-8H,2H2,1H3	InChI=1S/C6H10O3/c1-3-5(7)6(8)2-4(6)9-3/h3-5,7-8H,2H2,1H3/t3-,4+,5+,6+/m1/s1
