19
gdb 99660	2.35072	1.10793	0.87437	2.426	77.82	-0.2529	0.05	0.3029	1368.5086	0.156686	-422.963011	-422.953065	-422.952121	-422.99819	36.689	
O	-0.0126015602	 1.4061899886	 0.1090790936	-0.421986
C	-0.1069430928	 0.000397135	 0.1600440776	-0.056995
C	-1.5285248437	-0.5123314539	-0.1765010568	-0.197759
C	-1.913876451	-0.0244258812	-1.501440795	 0.308366
C	-2.1594759136	 0.4042591376	-2.5987120343	-0.464542
C	-1.6041675951	-2.0307963383	-0.0975198229	-0.018243
C	-1.6579935164	-2.7175544322	 1.2551672922	-0.347872
C	-2.8642952671	-2.7126059345	 0.3489886785	 0.098285
O	-3.9475861439	-1.8861756872	 0.6600170907	-0.414109
H	-0.3104988034	 1.6758874971	-0.7685281791	 0.284713
H	 0.6168699749	-0.4831506034	-0.5155774483	 0.087558
H	 0.1429796907	-0.2937041518	 1.1836246162	 0.11015
H	-2.2215420748	-0.0892187326	 0.5590380027	 0.124145
H	-2.4172760958	 0.768080911	-3.5626216339	 0.197784
H	-1.0431987291	-2.5413548554	-0.8748389967	 0.097817
H	-1.1038176353	-3.6381592536	 1.4011151193	 0.113877
H	-1.7143979421	-2.0760110322	 2.1291612341	 0.118078
H	-3.1300933446	-3.6433549186	-0.1515207316	 0.089912
H	-4.4007624267	-2.2623390842	 1.4215053835	 0.290822
51.3652	99.9428	129.0484	147.9844	191.8995	256.7108	295.5103	321.214	392.8196	417.7119	464.3452	479.8477	543.3715	620.0123	625.6576	652.712	785.2767	826.4514	845.2219	898.2383	988.3024	1007.7756	1049.3955	1064.5071	1071.5771	1086.3932	1136.7223	1157.4442	1175.2648	1207.2801	1235.5897	1257.3651	1299.066	1331.5469	1382.7451	1399.0357	1425.3947	1427.0881	1488.3034	1506.114	2225.9306	2975.6188	3057.7263	3087.8076	3101.4447	3128.3552	3151.8066	3217.6713	3502.3885	3775.3512	3810.7812
OCC(C#C)C1CC1O	OC[C@@H](C#C)[C@H]1C[C@H]1O	
InChI=1S/C7H10O2/c1-2-5(4-8)6-3-7(6)9/h1,5-9H,3-4H2	InChI=1S/C7H10O2/c1-2-5(4-8)6-3-7(6)9/h1,5-9H,3-4H2/t5-,6-,7-/m1/s1
