20
gdb 77451	1.87179	1.55088	1.48611	2.8926	81.62	-0.2504	0.0259	0.2762	1117.4873	0.168862	-403.142722	-403.133097	-403.132152	-403.176594	35.781	
C	 0.035698413	 1.5977501033	 0.0728543535	-0.424258
C	 0.0810365949	 0.0862894042	 0.0810610576	-0.114456
C	 1.2968371043	-0.739267573	-0.1837731751	 0.399722
C	 1.5454409176	-1.7603874227	-1.2414306324	-0.490579
O	 2.4676048994	-0.0300690544	 0.334766702	-0.310238
C	 1.9634917961	-0.1462567748	 1.6285853253	 0.39414
N	 2.4924106752	 0.1341598237	 2.730919638	-0.563649
C	 0.6780026402	-0.7814728684	 1.2096112157	 0.105692
C	-0.0820573596	-1.8177177103	 1.983471542	-0.494683
H	 0.9893708721	 2.0250824505	 0.3889721262	 0.14149
H	-0.1819726694	 1.9700233216	-0.9340166606	 0.119381
H	-0.7458994806	 1.9680596512	 0.74369157	 0.123834
H	-0.8204279503	-0.3903640649	-0.3046596178	 0.092512
H	 1.8841294421	-1.2851806445	-2.1686991996	 0.138145
H	 2.3115097633	-2.4743615623	-0.9241637103	 0.136399
H	 0.624575132	-2.3083929782	-1.460578619	 0.129422
H	 3.4297646884	 0.5195464598	 2.6020193228	 0.226536
H	-0.6202051964	-1.3611480687	 2.8207881496	 0.13984
H	-0.8184895627	-2.3205550071	 1.3487917449	 0.117228
H	 0.5902161705	-2.576045205	 2.3964850273	 0.133522
125.7081	151.6864	160.8478	178.6536	193.1728	201.553	244.3194	249.593	337.6767	424.2713	495.7402	576.3065	617.3023	665.1657	704.3626	735.1191	802.8796	867.0521	878.7159	900.1806	977.2467	983.1411	1047.1673	1086.4396	1100.6399	1120.1317	1136.5319	1167.2464	1191.1317	1243.2649	1321.5154	1360.8033	1413.6825	1415.0633	1418.7557	1473.7379	1479.9898	1488.0103	1492.4733	1495.8764	1498.5834	1519.3701	1824.0455	3034.7185	3036.0359	3039.5467	3098.0863	3099.2973	3100.6181	3107.3604	3112.1945	3118.7118	3136.2952	3473.6719
CC1C2(C)OC(=N)C12C	C[C@H]1[C@@]2(C)O[C]([NH])[C@@]12C	
InChI=1S/C7H11NO/c1-4-6(2)5(8)9-7(4,6)3/h4,8H,1-3H3	InChI=1S/C7H11NO/c1-4-6(2)5(8)9-7(4,6)3/h4,8H,1-3H3/t4-,6-,7-/m1/s1
