21
gdb 94826	3.72201	1.09946	0.9646	1.8145	85.89	-0.2282	0.015	0.2432	1282.2272	0.184065	-387.095031	-387.086704	-387.08576	-387.127676	33.589	
O	 0.1058162167	 1.4349542562	 0.0983396162	-0.438722
C	 0.0529980001	 0.0096677193	 0.0449309325	 0.10287
C	-1.3880998748	-0.5148924857	 0.1125616858	-0.232914
C	-1.4339697747	-2.0226569359	-0.1672266128	-0.307287
C	-0.8823444928	-2.3332965276	-1.5521616645	 0.364772
C	-0.9926876385	-3.7506876536	-2.0740227979	-0.320824
C	-1.8482923207	-2.6741702892	-2.6795106758	-0.304243
C	 0.3250828154	-1.546812727	-1.9028076036	-0.104824
C	 0.765636937	-0.5167299507	-1.1772231282	-0.136779
H	-0.2858222219	 1.7634321458	-0.7189845884	 0.273125
H	 0.5934997632	-0.3043888476	 0.9489032505	 0.094355
H	-1.8214146708	-0.2768881456	 1.0886719153	 0.098949
H	-1.98432467	 0.0145566645	-0.6433005298	 0.088846
H	-0.8297592545	-2.5468937103	 0.5860562474	 0.102376
H	-2.4560211857	-2.4040264367	-0.0685941203	 0.092583
H	-0.1691058771	-4.145515521	-2.6598745868	 0.112932
H	-1.4691886591	-4.4813182621	-1.4282090757	 0.113078
H	-2.9084686037	-2.667458155	-2.4484759956	 0.114134
H	-1.608014141	-2.3270588663	-3.6786323179	 0.112702
H	 0.8662018634	-1.8533012804	-2.7964715695	 0.084701
H	 1.6716582796	 0.0143522487	-1.457988051	 0.090172
72.933	192.7404	222.4308	286.1807	312.5995	349.153	363.3578	393.6206	423.2927	528.5126	603.9699	652.3267	730.021	762.7038	781.953	825.5878	889.6497	911.0057	942.7834	948.1081	989.2222	1002.1499	1009.9704	1053.517	1056.4506	1077.0268	1080.3507	1097.483	1166.7581	1191.8142	1199.8386	1223.8132	1268.7962	1308.5461	1322.7876	1350.8226	1371.0831	1374.2397	1410.2849	1434.3974	1467.5585	1486.4089	1490.9958	1500.4094	1706.3611	3005.6319	3011.3082	3022.1552	3065.3587	3083.589	3124.7369	3129.2725	3134.9905	3166.9138	3204.1536	3219.8578	3793.3914
OC1CCC2(CC2)C=C1	O[C@H]1CCC2(CC2)C=C1	
InChI=1S/C8H12O/c9-7-1-3-8(4-2-7)5-6-8/h1,3,7,9H,2,4-6H2	InChI=1S/C8H12O/c9-7-1-3-8(4-2-7)5-6-8/h1,3,7,9H,2,4-6H2/t7-/m1/s1
