23
gdb 102600	3.15972	0.73395	0.63848	1.1616	91.84	-0.23	0.0565	0.2865	1862.211	0.201888	-388.266063	-388.253991	-388.253047	-388.30603	40.775	
C	 0.6924857133	 1.0886672862	 0.0468459264	-0.391535
C	 0.164931936	-0.3442747193	 0.1380069437	-0.173991
C	-1.3650901482	-0.420682027	 0.1763915257	 0.130654
C	-1.8376643413	-1.8971936901	 0.204971009	-0.356857
C	-3.2548859953	-2.1085994719	-0.0719569423	 0.017397
C	-4.415945253	-2.2987437476	-0.3316712842	 0.110421
C	-5.8218918499	-2.525771355	-0.636555579	-0.498961
O	-1.78303071	 0.2878322078	 1.3317132144	-0.249303
C	-3.0684963301	 0.8713277692	 1.2736263158	-0.238694
H	 1.7864630335	 1.1066584389	 0.0565081246	 0.10877
H	 0.3597165971	 1.5744625744	-0.8776173387	 0.108325
H	 0.3298398685	 1.6827746951	 0.8887534575	 0.13278
H	 0.5228675722	-0.9328359243	-0.715080942	 0.092274
H	 0.5542727211	-0.8289448189	 1.0424445554	 0.103638
H	-1.7760854371	 0.0645622414	-0.7239099457	 0.069595
H	-1.2467597383	-2.4604382439	-0.5292938525	 0.121242
H	-1.5781647888	-2.303753531	 1.1906836895	 0.13119
H	-5.9510056792	-2.94595539	-1.6403001389	 0.145804
H	-6.2764402417	-3.2246038767	 0.0745860793	 0.147021
H	-6.395863596	-1.5931063992	-0.5937454806	 0.144888
H	-3.1780603363	 1.5171983256	 0.3887941952	 0.100601
H	-3.866653608	 0.1205929574	 1.2551733451	 0.125608
H	-3.1756278884	 1.4869358889	 2.1711541822	 0.119132
20.751	26.3454	74.7527	76.3329	110.4534	172.7041	206.7428	218.4224	223.6321	271.5502	309.293	358.8344	386.8499	411.4797	484.0201	550.063	764.0101	770.7895	837.0436	918.5221	964.1672	1012.1457	1052.1319	1053.9665	1067.3313	1114.4995	1130.3193	1157.4074	1170.6012	1183.8297	1216.4987	1244.6076	1283.9898	1312.9105	1357.8914	1383.284	1396.6125	1406.7147	1415.9451	1455.9036	1476.5437	1479.048	1479.9173	1480.5797	1488.7575	1496.0724	1510.9244	1514.9303	2368.2994	2972.3618	2986.7256	3014.7956	3024.247	3028.0109	3035.8706	3052.3452	3063.9448	3067.2631	3082.9461	3084.8551	3099.7842	3108.2271	3128.6186
CCC(CC#CC)OC	CC[C@@H](CC#CC)OC	
InChI=1S/C8H14O/c1-4-6-7-8(5-2)9-3/h8H,5,7H2,1-3H3	InChI=1S/C8H14O/c1-4-6-7-8(5-2)9-3/h8H,5,7H2,1-3H3/t8-/m0/s1
