19
gdb 38247	3.1784	1.79985	1.47739	3.0217	73.86	-0.2493	0.0822	0.3315	935.0198	0.162512	-423.000657	-422.993943	-422.992999	-423.031846	27.694	
C	-0.0850400499	 1.5508760574	-0.1094760341	-0.262616
C	 1.4349070609	 1.3322278093	-0.0513276593	 0.099651
C	 1.1549009734	 0.2038351617	 1.0021194421	-0.337082
C	-0.0578492257	-0.0075932425	 0.0516788292	 0.293628
C	-1.3101832971	-0.8427036952	-0.0581418822	-0.400784
C	-1.5411859825	-0.7643439091	-1.606336688	-0.071711
O	-0.3004114358	-0.3664655596	-2.2315284433	-0.290355
C	 0.6892879049	-0.3780171755	-1.2277704961	 0.247448
O	 1.6874825966	 0.6259625518	-1.2933746891	-0.294403
H	-0.4973579598	 2.0413245916	 0.7749181007	 0.096281
H	-0.4853679137	 1.9734518607	-1.0316242251	 0.117775
H	 2.1740450455	 2.1193155419	 0.084397381	 0.085646
H	 1.8880898352	-0.6021649026	 1.0882400055	 0.105348
H	 0.8973806759	 0.6046636685	 1.9840253351	 0.106603
H	-1.1362205404	-1.8770147131	 0.2567236092	 0.111713
H	-2.1649880407	-0.4563388769	 0.5014487836	 0.109573
H	-1.861600004	-1.728743247	-2.0159751432	 0.107255
H	-2.3007604774	-0.0178254822	-1.861568155	 0.112593
H	 1.1850770645	-1.3611906393	-1.2107557709	 0.063437
77.4506	215.9164	308.1367	379.3271	488.1669	504.6782	547.0219	638.8072	704.2273	713.8488	819.7137	837.2883	870.518	896.606	907.3775	931.1424	956.0483	972.0689	994.2224	998.0527	1043.852	1054.6519	1083.599	1107.0787	1130.768	1172.8139	1178.7352	1216.9169	1223.7206	1233.7117	1259.6883	1278.0298	1298.5511	1320.0282	1359.4736	1385.4262	1410.6669	1473.8623	1494.166	1512.0105	1524.6689	2976.9722	3032.6844	3050.9386	3066.7537	3070.4051	3076.8872	3108.8593	3134.5544	3145.6122	3147.8072
C1C2CC11CCOC1O2	C1[C@H]2C[C@]31CCO[C@H]3O2	
InChI=1S/C7H10O2/c1-2-8-6-7(1)3-5(4-7)9-6/h5-6H,1-4H2	InChI=1S/C7H10O2/c1-2-8-6-7(1)3-5(4-7)9-6/h5-6H,1-4H2/t5-,6-,7+/m0/s1
