15
gdb 49896	2.36294	1.7128	1.33276	5.2868	67.27	-0.2578	-0.0494	0.2083	982.2513	0.11191	-457.806225	-457.79845	-457.797506	-457.839062	28.414	
O	 0.8318751037	-0.0575825464	-0.4243968008	-0.232367
C	 0.3551859404	 1.0229540964	-0.2052127834	 0.155943
C	 1.1920108256	 2.2583605737	 0.1439788321	-0.028198
O	 2.468865833	 1.8747770582	 0.6324232453	-0.217972
C	 3.4727267665	 1.5410706013	-0.2245694573	 0.433344
O	 4.4947170552	 1.0975205748	 0.2126615168	-0.319256
C	 3.2395861489	 1.8099792172	-1.7070898816	-0.407037
C	 2.2351760608	 2.8968272803	-1.9671707093	-0.057661
C	 1.2553535129	 3.1192311466	-1.096627251	-0.097249
H	-0.7356516654	 1.2206356733	-0.2922722695	 0.093445
H	 0.7083276629	 2.7921573246	 0.9691861557	 0.123716
H	 4.2143531794	 2.0256763683	-2.1495328285	 0.147765
H	 2.8993916071	 0.8641381277	-2.1516663777	 0.171152
H	 2.3357593945	 3.4894337857	-2.8709788358	 0.11825
H	 0.4932365545	 3.8760106783	-1.2406444351	 0.116124
83.9022	93.8705	136.7542	259.9827	294.8534	432.7884	456.949	490.2695	548.7575	594.7891	691.6657	717.8	794.6821	851.1733	911.7091	947.6446	966.9289	986.0288	1000.7847	1035.666	1135.2726	1152.3999	1200.9221	1225.8393	1265.3583	1328.432	1379.4135	1388.3352	1412.2923	1448.9206	1713.3015	1833.3654	1864.9548	2895.4599	3026.318	3060.2051	3110.4115	3178.2834	3206.1087
O=CC1OC(=O)CC=C1	O=C[C@H]1OC(=O)CC=C1	
InChI=1S/C6H6O3/c7-4-5-2-1-3-6(8)9-5/h1-2,4-5H,3H2	InChI=1S/C6H6O3/c7-4-5-2-1-3-6(8)9-5/h1-2,4-5H,3H2/t5-/m0/s1
