20
gdb 40765	3.08044	1.2659	1.08151	1.8631	78.73	-0.2451	0.0613	0.3064	1188.2889	0.171437	-403.081671	-403.073295	-403.072351	-403.115143	31.929	
C	-0.3413831772	 1.2940444442	-0.1920122527	-0.263619
C	 1.0776221795	 1.1195993243	 0.2907327145	-0.268676
C	 0.2240696641	-0.0884879769	-0.0041313292	-0.005266
C	-0.2446798935	-0.9645436018	 1.1285654882	 0.031622
O	-0.5533758489	-0.220287138	 2.3336107815	-0.298583
C	-1.885237321	-0.7835033105	 2.4243953785	-0.129928
C	-1.674710101	-1.5234513912	 1.11208972	 0.281718
C	-2.5712894307	-1.7617518099	-0.0328775634	-0.298153
N	-2.1217300345	-2.8766617714	 0.8316289877	-0.361369
H	-1.0656609973	 1.6380297706	 0.5373784025	 0.122366
H	-0.5078658933	 1.648572567	-1.2030654778	 0.106027
H	 1.8921904866	 1.3504797324	-0.3864924523	 0.108695
H	 1.2714218872	 1.3427557695	 1.3335171109	 0.132255
H	 0.4720779369	-0.6465678227	-0.9041184756	 0.080018
H	 0.5092091768	-1.740333364	 1.339796244	 0.075275
H	-1.9999627865	-1.4335298657	 3.3002507738	 0.111884
H	-2.6579572883	-0.0057770833	 2.4376356945	 0.106539
H	-3.6300478032	-1.5273081486	 0.0417612144	 0.12148
H	-2.1565183853	-1.6693119936	-1.0336089113	 0.116404
H	-1.3846139203	-3.4073940104	 0.3717449918	 0.231313
65.7163	93.4717	142.062	229.3579	278.3135	286.2165	356.4327	464.6678	547.2872	609.7732	773.4982	792.0052	822.7679	833.3844	873.0376	906.3406	931.3805	941.6358	960.3843	976.7527	1008.9921	1043.348	1051.8679	1063.9906	1086.6699	1094.2721	1127.1683	1132.2178	1142.2814	1152.5522	1200.3905	1227.6333	1255.7607	1269.1562	1282.9925	1326.9436	1369.3783	1398.8085	1441.2874	1456.9871	1500.017	1517.5399	1521.3246	2967.2582	3018.9253	3066.7781	3104.5641	3131.4356	3137.3046	3142.1585	3188.615	3220.3289	3234.3564	3484.5723
C1CC1C1OCC11CN1	C1CC1[C@H]1OC[C@]21CN2	
InChI=1S/C7H11NO/c1-2-5(1)6-7(3-8-7)4-9-6/h5-6,8H,1-4H2	InChI=1S/C7H11NO/c1-2-5(1)6-7(3-8-7)4-9-6/h5-6,8H,1-4H2/t6-,7+/m1/s1
