15
gdb 48563	3.00347	1.79456	1.27583	2.6846	69.33	-0.2388	-0.0344	0.2045	942.3294	0.111918	-420.549528	-420.542759	-420.541815	-420.580734	26.805	
O	-0.1085303404	-0.0260560649	 0.1248189734	-0.256889
C	 0.0039885337	 1.1633573384	-0.0541633635	 0.044695
C	 1.3076972268	 1.8836298734	-0.0363022978	 0.218658
C	 2.6205602197	 1.1730489	 0.2109553997	-0.187943
C	 3.5417975238	 2.1382527128	 0.1508510363	-0.113696
C	 2.7567169746	 3.4065239305	-0.131591758	-0.106352
C	 1.5838415133	 3.0304179577	-1.0981985708	 0.031799
O	 0.6585281258	 3.9508390581	-0.4323394153	-0.320702
C	 1.4053043042	 3.3099109132	 0.6531252013	 0.031823
H	-0.8757350873	 1.8111900372	-0.2472646055	 0.097279
H	 2.7248157932	 0.1135028136	 0.3906874405	 0.134284
H	 4.6134908391	 2.0677990708	 0.2713569369	 0.119258
H	 3.2388319258	 4.3765973244	-0.23725673	 0.090928
H	 1.5558305509	 2.9684568708	-2.1886670666	 0.108423
H	 1.1612764168	 3.5860713142	 1.6816824595	 0.108433
105.2339	185.7804	270.9884	381.1508	384.0636	503.0513	585.6526	636.9766	647.4856	745.5549	753.0756	772.6252	809.6277	882.9703	887.322	932.8648	935.1596	968.5793	1032.5652	1042.7014	1087.048	1100.2841	1146.464	1159.3634	1163.578	1188.9861	1245.9229	1278.2163	1321.3648	1354.8771	1417.2685	1634.3005	1811.3161	2925.9423	3094.1738	3098.9234	3146.4192	3229.4837	3258.983
O=CC12C=CC3C1OC23	O=C[C@@]12C=C[C@H]3[C@@H]1O[C@@H]23	
InChI=1S/C7H6O2/c8-3-7-2-1-4-5(7)9-6(4)7/h1-6H	InChI=1S/C7H6O2/c8-3-7-2-1-4-5(7)9-6(4)7/h1-6H/t4-,5-,6+,7-
