21
gdb 80484	2.39238	1.54963	1.32125	3.1013	76.82	-0.2442	0.0571	0.3013	1087.2614	0.183757	-424.21983	-424.211199	-424.210255	-424.252882	34.341	
C	 0.0908305189	 1.5937266705	-0.0312895847	-0.391823
C	 0.0993885674	 0.068451706	 0.0021545779	 0.018553
C	 0.8061731343	-0.6097374983	-1.1976247782	-0.250044
C	 1.2753895434	-1.9707329833	-0.6812867106	-0.104202
C	 2.5647700739	-1.9915316997	 0.0961813124	 0.081542
O	 3.4205534449	-0.8734846836	 0.1130154887	-0.419102
C	 1.2654605542	-1.9196940109	 0.8453031968	-0.115542
C	 0.739690254	-0.5451968932	 1.2910896285	 0.100694
O	 1.7014144771	 0.2746182369	 1.9295272763	-0.438876
H	 1.1094919748	 1.9897093738	 0.0068018345	 0.114934
H	-0.3886266456	 1.9632995206	-0.9441229893	 0.101609
H	-0.449661481	 2.0061078437	 0.8262576146	 0.11695
H	-0.9384185872	-0.2909158322	-0.0070621319	 0.07032
H	 0.1340662642	-0.7236112911	-2.0523926806	 0.099054
H	 1.6506673512	 0.0007139533	-1.5426349539	 0.080583
H	 0.9910591354	-2.8670312215	-1.2215820027	 0.085092
H	 3.0990481083	-2.9391378359	 0.1483139389	 0.092709
H	 3.7858188734	-0.7508433453	-0.7695720464	 0.296144
H	 0.9982739298	-2.7858148936	 1.4401042567	 0.088942
H	-0.0434606157	-0.6855789899	 2.0434830623	 0.079266
H	 2.5087730147	 0.2250393538	 1.4013245808	 0.293195
53.5728	198.5711	234.578	254.4436	268.0475	285.0922	339.5396	369.6824	501.1209	513.4539	564.3206	602.835	660.0249	744.8757	755.7844	773.6751	812.8018	894.0868	913.8481	931.9118	996.671	1024.3224	1040.3806	1049.1938	1065.2985	1110.1165	1117.8136	1141.0221	1172.386	1210.8692	1225.6677	1281.9711	1291.2354	1296.1275	1320.8387	1324.2316	1356.2711	1356.643	1373.7959	1408.86	1439.1652	1479.2106	1489.8208	1494.2372	1498.759	3005.7462	3024.071	3035.7321	3050.3837	3084.9745	3101.1544	3108.6136	3113.6658	3162.5451	3173.2734	3755.8827	3806.9784
CC1CC2C(O)C2C1O	C[C@H]1C[C@H]2[C@@H](O)[C@H]2[C@H]1O	
InChI=1S/C7H12O2/c1-3-2-4-5(6(3)8)7(4)9/h3-9H,2H2,1H3	InChI=1S/C7H12O2/c1-3-2-4-5(6(3)8)7(4)9/h3-9H,2H2,1H3/t3-,4+,5+,6-,7+/m0/s1
