12
gdb 132707	5.50542	1.0193	0.86006	1.9942	66.58	-0.2651	-0.0908	0.1743	1186.7895	0.077783	-476.822687	-476.815807	-476.814863	-476.854559	24.82	
F	 0.0251647912	 0.0476706329	 0.0029236792	-0.048592
C	-0.0002074246	 1.3681645062	 0.0102945394	 0.329018
C	-1.2448729816	 2.0202746546	 0.0304126136	-0.130916
N	-1.3097700097	 3.3377072821	 0.0383171075	-0.252842
C	-0.1407674208	 4.0058492172	 0.0262659539	 0.206448
C	-0.1588957782	 5.4959560222	 0.034461116	 0.106545
O	-1.1529306323	 6.173378066	 0.0514066218	-0.240667
C	 1.0759603626	 3.3283175872	 0.0063896081	-0.045735
N	 1.1512684208	 1.9915708203	-0.0017591577	-0.289041
H	-2.1682401398	 1.4484043883	 0.0397019168	 0.146
H	 0.8574595979	 5.9502663242	 0.02335999	 0.080628
H	 2.0186704345	 3.8697230488	-0.0033213984	 0.139153
84.1885	171.7479	198.4831	345.4514	409.0874	431.2811	442.1011	554.0187	641.6004	652.5948	796.452	816.3644	898.0343	932.3312	967.0162	1035.6628	1036.9993	1231.8755	1268.7708	1301.7051	1333.739	1381.8189	1445.9036	1510.0461	1595.7245	1610.5856	1823.9604	2880.6496	3166.4151	3178.39
FC1=CN=C(C=O)C=N1	Fc1cnc(C=O)cn1	
InChI=1S/C5H3FN2O/c6-5-2-7-4(3-9)1-8-5/h1-3H	InChI=1S/C5H3FN2O/c6-5-2-7-4(3-9)1-8-5/h1-3H
