18
gdb 18758	2.90911	2.30101	1.62703	3.1954	66.62	-0.2417	0.0544	0.2961	838.9005	0.154749	-384.906432	-384.899083	-384.898138	-384.937888	29.058	
O	 0.4841520675	 0.7977406023	-0.9686542056	-0.441254
C	 0.064998302	-0.2204520303	-0.1086357533	 0.173596
C	 0.1178390659	-0.0360273675	 1.442027383	-0.283637
C	-1.2806591181	-0.7112003689	 1.5574484015	-0.013863
C	-2.4464807585	 0.2853152746	 1.7373790014	-0.264553
C	-2.464740524	 0.5266558547	 0.1968969195	 0.106081
O	-1.98286502	 1.7902678846	-0.2489626784	-0.436144
C	-1.4318957361	-0.6193940336	-0.0097690265	-0.096183
H	-0.1479289365	 1.5199576479	-0.8596142401	 0.291051
H	 0.6399475089	-1.1110244994	-0.3855577565	 0.08468
H	 0.9449803941	-0.5391758235	 1.9481570222	 0.097334
H	 0.1131668096	 1.0145819298	 1.7467895135	 0.096069
H	-1.3235837686	-1.6555076118	 2.0988928694	 0.065754
H	-3.3703474003	-0.1844959966	 2.0871861151	 0.100345
H	-2.2434027845	 1.1660058492	 2.3559810974	 0.092278
H	-3.4369681339	 0.3171013817	-0.2667844468	 0.076498
H	-2.5627632298	 2.4784706059	 0.0911098517	 0.289822
H	-1.7790458476	-1.4348565189	-0.6455576377	 0.062125
71.703	220.7995	240.3988	325.5475	344.3587	402.7872	421.0967	530.5901	575.1832	639.5272	725.9345	757.8544	805.0421	858.7583	888.3105	940.3675	945.0495	1002.7379	1030.2099	1059.2662	1072.2676	1119.9041	1131.2445	1145.5008	1180.5076	1194.4677	1220.7448	1239.3503	1273.6378	1282.3994	1293.0201	1325.5973	1335.9936	1343.9758	1411.4714	1464.9957	1471.6924	1483.3656	3011.0043	3038.7852	3043.1889	3056.123	3093.8033	3096.4409	3106.2103	3120.1665	3762.4522	3822.9967
OC1CC2CC(O)C12	O[C@H]1C[C@H]2C[C@@H](O)[C@@H]12	
InChI=1S/C6H10O2/c7-4-1-3-2-5(8)6(3)4/h3-8H,1-2H2	InChI=1S/C6H10O2/c7-4-1-3-2-5(8)6(3)4/h3-8H,1-2H2/t3-,4-,5+,6+
