17
gdb 58028	1.85463	1.63697	0.90542	6.4485	69.34	-0.2614	0.0098	0.2713	1238.6142	0.134413	-455.190814	-455.181028	-455.180084	-455.226036	35.376	
C	 0.0258640937	 1.4475430001	 0.1658762139	-0.424044
C	-0.1658881532	-0.0563600811	 0.3272797469	 0.10737
O	-0.0335358614	-0.4364360734	 1.6988794925	-0.421966
C	-1.53284169	-0.5679640358	-0.2392222591	-0.308497
C	-1.7905878638	-0.0182714398	-1.5698818035	 0.31915
N	-1.9598116464	 0.4788219699	-2.5983781474	-0.327477
C	-1.67229082	-2.1188243751	-0.2912196308	 0.410535
N	-1.3375060916	-2.745096531	 0.8656902047	-0.531458
O	-2.0927051575	-2.6830753501	-1.2772987251	-0.338253
H	 0.9751321448	 1.7427326384	 0.6204677125	 0.135142
H	 0.0317316911	 1.7391685988	-0.8858133087	 0.166936
H	-0.7840331981	 1.9988146761	 0.6606602034	 0.118412
H	 0.6371317505	-0.589259986	-0.19203381	 0.126387
H	-0.5253370202	 0.1980349583	 2.2333671056	 0.29124
H	-2.3184685285	-0.1940830837	 0.4329879423	 0.139499
H	-0.8275585652	-2.2436865963	 1.5795109446	 0.273361
H	-1.3369196043	-3.7525875192	 0.8534205382	 0.263662
37.5524	72.4616	157.8722	204.0909	220.0766	257.1416	323.8272	343.1459	354.1419	426.7429	450.8744	474.6914	496.8744	532.284	599.9226	647.6399	732.1094	858.8688	887.6463	949.3869	1017.0666	1061.2831	1106.5698	1119.4964	1154.2399	1203.4636	1262.3216	1316.4807	1354.3704	1367.2057	1408.0456	1420.7029	1490.0225	1494.703	1613.552	1811.8316	2368.1015	3016.3431	3029.5943	3069.2112	3109.6549	3144.9773	3542.7162	3695.9453	3795.048
CC(O)C(C#N)C(N)=O	C[C@@H](O)[C@@H](C#N)C(=O)N	
InChI=1S/C5H8N2O2/c1-3(8)4(2-6)5(7)9/h3-4,8H,1H3,(H2,7,9)	InChI=1S/C5H8N2O2/c1-3(8)4(2-6)5(7)9/h3-4,8H,1H3,(H2,7,9)/t3-,4-/m1/s1
