15
gdb 28616	5.23906	1.03872	0.87151	3.4167	78.98	-0.2511	-0.0823	0.1688	1267.727	0.113073	-416.874385	-416.86646	-416.865516	-416.907596	28.189	
C	-0.0423278229	 1.4947632325	 0.1692228242	-0.472906
C	 0.0020398775	 0.0044683515	-0.0062359846	 0.325651
C	 0.2941441517	-0.5889886829	-1.2436256806	-0.065207
N	 0.3369870319	-1.9058225111	-1.4141560445	-0.28803
C	 0.0845122278	-2.6536701381	-0.3334200427	 0.196198
C	 0.1298629637	-4.1287132075	-0.5132047385	 0.10216
O	-0.0766286441	-4.923693515	 0.3723072424	-0.254148
C	-0.2075160446	-2.0716806388	 0.9037354005	-0.039724
N	-0.2497614643	-0.753154533	 1.0717227214	-0.297233
H	 0.6819536959	 1.8079807932	 0.9278242951	 0.152596
H	 0.1761049415	 2.0186267623	-0.764018398	 0.129627
H	-1.030064479	 1.8044309017	 0.5251039363	 0.152595
H	 0.497700608	 0.0284976801	-2.1150958649	 0.118932
H	 0.3745263112	-4.4359759962	-1.5512806724	 0.093921
H	-0.4086550843	-2.7016253486	 1.7650244862	 0.145568
61.159	91.789	170.417	190.4635	324.4657	345.485	426.4474	448.5486	503.1577	610.6838	665.1546	773.9298	786.0816	883.1924	924.192	992.1388	1009.4179	1047.0773	1049.4448	1061.5068	1238.5269	1260.1747	1269.7988	1317.7004	1360.7337	1404.0405	1410.3967	1473.2083	1484.9059	1510.3691	1573.4297	1608.6204	1806.3616	2926.284	3044.0624	3105.2232	3131.619	3158.9772	3184.3425
CC1=CN=C(C=O)C=N1	Cc1cnc(C=O)cn1	
InChI=1S/C6H6N2O/c1-5-2-8-6(4-9)3-7-5/h2-4H,1H3	InChI=1S/C6H6N2O/c1-5-2-8-6(4-9)3-7-5/h2-4H,1H3
