13
gdb 17152	4.24326	2.00728	1.60964	4.4525	62.89	-0.2616	0.0071	0.2687	770.1356	0.096052	-361.376415	-361.370468	-361.369523	-361.40648	23.035	
N	 0.0243381634	-1.1138975949	-0.0141873905	-0.33921
C	-0.0133451222	 0.0416201661	 0.0214342241	 0.153275
C	-0.06555959	 1.4751815928	 0.0739306594	 0.202393
C	-0.7746753257	 2.3983820707	 1.0918077838	-0.316648
C	-0.1180317488	 3.3991758528	 0.1187361713	-0.108923
C	 1.1287471417	 2.4875288298	-0.109301848	 0.063066
O	 1.0425745178	 2.5193311853	-1.5575230206	-0.310351
C	-0.339231069	 2.4709623023	-1.1170006995	 0.06306
H	-1.8659474646	 2.3576625036	 1.0938441433	 0.123419
H	-0.3838239016	 2.3743913791	 2.1112186094	 0.123422
H	-0.1292454647	 4.4866715473	 0.1171898627	 0.105356
H	 2.1072525842	 2.4811529297	 0.3681807978	 0.120572
H	-1.1362473105	 2.4445451555	-1.8583305533	 0.12057
148.6253	180.9466	391.2696	437.0241	530.517	532.0749	639.9599	726.1687	776.1421	821.7262	855.665	886.7624	913.7495	929.9552	1010.9751	1021.9667	1064.2315	1095.9212	1111.6229	1143.1028	1166.8603	1170.997	1233.6491	1251.0531	1282.8111	1329.8969	1515.906	2349.8783	3070.9342	3132.2847	3139.9572	3140.4969	3158.959
N#CC12CC3C1OC23	N#C[C@@]12C[C@H]3[C@@H]1O[C@@H]23	
InChI=1S/C6H5NO/c7-2-6-1-3-4(6)8-5(3)6/h3-5H,1H2	InChI=1S/C6H5NO/c7-2-6-1-3-4(6)8-5(3)6/h3-5H,1H2/t3-,4-,5+,6-
