17
gdb 63446	1.85073	1.79856	1.09124	5.2518	78.72	-0.2964	-0.0115	0.285	1136.6513	0.134267	-380.893545	-380.884169	-380.883225	-380.92731	34.231	
C	-0.0555651046	 1.5224910181	 0.0199212076	-0.459157
C	-0.005459717	 0.007871488	-0.0257547471	 0.275818
C	-1.2590868862	-0.6489938693	-0.5694621477	-0.459158
C	 1.3084302048	-0.6577531532	-0.2563655279	-0.332631
C	 0.7090233798	-0.710897774	 1.1634792498	-0.007149
C	 1.3303723391	 0.0913821839	 2.1870402333	 0.255028
N	 1.8298375834	 0.7527114081	 2.9933764778	-0.337671
C	 0.1868883347	-1.9717891276	 1.6270842169	 0.255029
N	-0.2424268694	-2.9862470541	 1.9785999953	-0.337672
H	 0.8533243083	 1.9561772002	 0.4420939103	 0.147929
H	-0.1787918148	 1.9116245563	-0.996207458	 0.132903
H	-0.9049772795	 1.8667752805	 0.6178998346	 0.14066
H	-1.4183999359	-0.3252004646	-1.6033405973	 0.132903
H	-1.194754725	-1.73903	-0.5607346636	 0.147931
H	-2.1372620091	-0.3564704505	 0.0143609201	 0.140658
H	 1.3335932714	-1.6038781344	-0.7847989434	 0.152289
H	 2.19703782	-0.0459934574	-0.3619768908	 0.152289
112.3278	139.1053	157.2528	161.8071	191.7697	236.7611	317.0489	353.9102	387.1831	387.8548	493.6579	523.0807	579.9302	602.1027	608.1594	732.8684	841.1285	915.0267	949.7271	978.3564	992.1899	1039.9782	1086.0155	1138.7393	1139.6639	1233.697	1316.8406	1356.6603	1416.8273	1430.7883	1478.7813	1479.0363	1487.6253	1501.7381	1509.1628	2354.8187	2358.4883	3040.2595	3044.4268	3105.287	3108.8958	3131.9074	3132.6504	3144.2157	3238.7335
CC1(C)CC1(C#N)C#N	CC1(C)CC1(C#N)C#N	
InChI=1S/C7H8N2/c1-6(2)3-7(6,4-8)5-9/h3H2,1-2H3	InChI=1S/C7H8N2/c1-6(2)3-7(6,4-8)5-9/h3H2,1-2H3
