15
gdb 21153	3.41938	1.85815	1.22518	5.3048	66.43	-0.2116	-0.0084	0.2032	959.4384	0.117445	-395.964852	-395.956367	-395.955423	-395.998456	29.015	
C	-0.0293798193	 1.4928834555	 0.0835278508	-0.331393
N	 0.1616478706	 0.0556491905	-0.0426888508	-0.383081
C	 0.6664044974	-0.6867188235	 0.9759019904	 0.436669
C	 0.7150753726	-2.0600964474	 1.1536501178	 0.144601
C	 0.1953006331	-3.1660480831	 0.2980419676	-0.518827
N	 1.3798584017	-2.2487609739	 2.328407849	-0.137861
N	 1.7348242943	-1.189719011	 2.8841698529	-0.062218
O	 1.2577668039	-0.0770292666	 1.9834932897	-0.244111
H	 0.9026338777	 1.9558000805	 0.4135832024	 0.162769
H	-0.291220171	 1.8976531533	-0.8960034988	 0.133552
H	-0.8172711412	 1.757815346	 0.8011017567	 0.134802
H	-0.4690914664	-0.4350376237	-0.6559374681	 0.257913
H	 0.7001962689	-3.2167999502	-0.6746592698	 0.130506
H	 0.3564488507	-4.1192741654	 0.805753889	 0.155461
H	-0.8812096931	-3.072113671	 0.1058535912	 0.121219
51.1712	104.1341	127.8329	166.0989	237.1138	285.7926	316.3407	407.45	439.3024	569.1669	635.2615	664.9536	744.3951	788.2213	964.45	998.809	1068.0274	1072.082	1145.4319	1162.095	1239.9067	1310.3199	1408.6631	1446.9649	1459.5611	1474.3533	1482.9922	1487.4028	1500.0639	1515.6696	1522.0572	1652.7733	3015.1288	3017.0513	3058.2764	3103.2393	3130.282	3143.8573	3635.9189
CNC1=C(C)N=NO1	CNc1c(C)nno1	
InChI=1S/C4H7N3O/c1-3-4(5-2)8-7-6-3/h5H,1-2H3	InChI=1S/C4H7N3O/c1-3-4(5-2)8-7-6-3/h5H,1-2H3
