15
gdb 29881	3.31292	1.47521	1.0273	6.3699	73.2	-0.2225	-0.0255	0.197	1094.6391	0.114972	-450.171993	-450.164115	-450.16317	-450.204897	28.75	
C	-0.0228931563	 1.4747913117	 0.0409980706	-0.340311
N	-0.0028468069	 0.0180028625	 0.0268540532	-0.13055
C	-0.0589066428	-0.7206590579	-1.142693525	 0.089817
N	-0.0437915279	-1.9925593797	-1.2070764152	-0.307873
C	 0.036729983	-2.7262365429	 0.0115049601	 0.360871
N	 0.0565212399	-3.9996760155	 0.0361901976	-0.515557
N	 0.0958125443	-2.01195376	 1.2206346508	-0.373914
C	 0.0744741973	-0.7378504619	 1.1762630858	 0.497099
O	 0.1276853152	 0.0070918271	 2.289980518	-0.408527
H	 0.8867710353	 1.8738355832	 0.4966318561	 0.158176
H	-0.0868354647	 1.8246330874	-0.9911129353	 0.143601
H	-0.8858089672	 1.8484738766	 0.5978306489	 0.158164
H	-0.1195471392	-0.1201388325	-2.0493346523	 0.13294
H	 0.0061098096	-4.3341580019	-0.9266728326	 0.217872
H	 0.1791052706	-0.6269682163	 3.0208767793	 0.318192
71.4151	102.1016	180.5371	215.1158	315.0247	379.7343	445.8408	496.5844	564.7674	571.1113	598.7563	731.674	756.0755	786.5069	814.2612	899.037	925.3012	966.337	1040.4993	1105.6462	1154.623	1239.7665	1254.0487	1317.4728	1346.5974	1417.5786	1456.822	1477.4835	1500.8317	1523.1439	1634.5712	1710.1322	1765.7011	3051.6249	3121.013	3140.0524	3145.1387	3486.0706	3757.8847
CN1C=NC(=N)N=C1O	CN1C=NC(=N[C@H]1O)[NH]	
InChI=1S/C4H6N4O/c1-8-2-6-3(5)7-4(8)9/h2H,1H3,(H2,5,7,9)	InChI=1S/C4H7N4O/c1-8-2-6-3(5)7-4(8)9/h2,4-5,9H,1H3/t4-/m1/s1
