13
gdb 25129	3.68201	1.24047	0.92787	6.4018	77.29	-0.2431	-0.0811	0.162	1149.7504	0.092376	-411.839341	-411.832269	-411.831325	-411.871105	26.468	
N	-0.0456264298	 1.3613553926	 0.0110854596	-0.537565
C	-0.0078887979	 0.0839590882	 0.0033043286	 0.386501
N	 1.1627407142	-0.7102457101	-0.0071423199	-0.357733
C	 1.1472771573	-2.0704502411	-0.0151569114	 0.10322
N	 0.0832091389	-2.7990892189	-0.0142885269	-0.327011
C	-1.1125731866	-2.0914315713	-0.0042322989	 0.200614
C	-1.2046976261	-0.7366156929	 0.0042759255	-0.169832
C	-2.3054375517	-2.8938957281	-0.0031741342	 0.250103
N	-3.2750778048	-3.5241947366	-0.0021829327	-0.319621
H	 0.8855052234	 1.7794399138	 0.0090191874	 0.207754
H	 2.0536246122	-0.2337589696	-0.0086640505	 0.265464
H	 2.123485241	-2.5489240477	-0.0227759861	 0.147888
H	-2.1572512902	-0.2245382384	 0.0119786596	 0.150219
130.5708	156.984	158.574	362.3067	419.445	459.999	465.3378	550.903	592.1308	628.775	686.2764	754.4354	771.1394	814.8754	907.6567	922.9368	965.4308	977.0251	1102.3542	1159.5984	1193.8263	1286.8324	1369.0239	1424.2386	1470.2565	1598.3861	1653.4975	1728.2533	2354.5665	3171.2548	3236.9746	3469.3312	3605.3392
N=C1NC=NC(=C1)C#N	[NH]C1=C[C@H](N=CN1)C#N	
InChI=1S/C5H4N4/c6-2-4-1-5(7)9-3-8-4/h1,3H,(H2,7,8,9)	InChI=1S/C5H5N4/c6-2-4-1-5(7)9-3-8-4/h1,3-4,7H,(H,8,9)/t4-/m0/s1
