22
gdb 9550	2.75292	1.543	1.43897	1.7676	77.68	-0.2392	0.0762	0.3154	1060.2786	0.198686	-350.199407	-350.189939	-350.188995	-350.233272	35.031	
C	 0.0383686294	 1.6318912928	 0.1099354088	-0.396701
C	-0.1089712146	 0.1168294662	-0.0788512942	-0.225941
C	 0.6671111448	-0.4581791542	-1.273189515	 0.280168
C	 0.2584885639	 0.1737839924	-2.6008547832	-0.470126
C	 2.1912377264	-0.5602147522	-1.0021892912	-0.108926
O	 2.106704803	-1.9788014234	-0.7725135889	-0.295984
C	 0.7553186563	-2.020885966	-1.2867331825	 0.124382
C	-0.1592729962	-2.8994915866	-0.457450707	-0.412761
H	 1.0911595736	 1.9265973432	 0.1839292562	 0.117271
H	-0.4066770634	 2.1940015237	-0.7162275429	 0.119518
H	-0.457617156	 1.9542677688	 1.0304712403	 0.115162
H	 0.2318757456	-0.3842181055	 0.834436862	 0.105458
H	-1.1728175063	-0.1321259473	-0.187053276	 0.093488
H	 0.4854783595	 1.2441435442	-2.6275980457	 0.119501
H	 0.786514082	-0.2946264641	-3.4376811346	 0.115208
H	-0.8176260143	 0.0598413686	-2.7784335894	 0.113673
H	 2.8221675778	-0.3220095484	-1.8706257039	 0.088316
H	 2.5793296094	-0.0270855797	-0.1258161661	 0.09631
H	 0.7615397742	-2.3932918871	-2.3240230132	 0.060121
H	-0.2046731058	-2.5772031551	 0.5852633296	 0.12104
H	-1.1735775976	-2.9013146431	-0.8713895268	 0.114377
H	 0.2124304684	-3.9291787872	-0.4762917162	 0.126446
65.2495	109.842	179.3358	195.5155	215.9667	231.6415	277.3428	311.1143	354.9482	379.1511	464.6703	514.1917	647.4453	750.984	797.7349	858.6973	879.8818	912.0488	975.6746	1017.8987	1019.9833	1027.6753	1044.2888	1085.2533	1100.0702	1133.7478	1168.7369	1191.9933	1233.0098	1258.1025	1303.7738	1321.0837	1369.3156	1372.5682	1395.5926	1407.2938	1413.5654	1416.6599	1479.6062	1483.2513	1494.0383	1496.1107	1501.1444	1504.9191	1511.8608	1525.3465	2962.4309	2993.6163	3019.2251	3027.1953	3035.0429	3038.2301	3045.8625	3060.1857	3091.4428	3099.5538	3100.9065	3102.7539	3111.4257	3126.6789
CCC1(C)COC1C	CC[C@@]1(C)CO[C@H]1C	
InChI=1S/C7H14O/c1-4-7(3)5-8-6(7)2/h6H,4-5H2,1-3H3	InChI=1S/C7H14O/c1-4-7(3)5-8-6(7)2/h6H,4-5H2,1-3H3/t6-,7-/m0/s1
