18
gdb 95722	3.20052	1.2196	0.93849	3.5671	68.67	-0.2519	0.0345	0.2864	1212.9434	0.149536	-476.261765	-476.253415	-476.25247	-476.294863	31.587	
O	 0.0131579295	 1.4432392882	 0.0555784581	-0.427977
C	 0.0387826903	 0.0234563088	 0.0250928748	 0.100358
C	-1.3941612418	-0.4471760999	 0.2376668364	-0.180433
C	-1.5426807453	-1.9656747702	 0.1504132471	-0.183243
N	-1.3069859827	-2.5128884431	-1.1891881694	-0.339703
C	-0.0596295033	-2.7354108631	-1.7298715108	 0.413383
O	 0.1905356409	-3.6358497478	-2.4890861386	-0.365914
O	 0.9097186943	-1.8551850194	-1.3416356182	-0.236243
C	 0.6148438031	-0.4535781916	-1.3124842995	-0.099545
H	 0.9206460199	 1.7648335644	 0.0418988093	 0.287537
H	 0.6756065282	-0.3806188507	 0.8290693133	 0.078092
H	-1.7319240743	-0.1101093124	 1.2232638592	 0.110356
H	-2.0362904825	 0.0312353611	-0.5107529107	 0.115549
H	-0.8850047563	-2.4481222312	 0.8870872964	 0.119628
H	-2.5677514758	-2.2360929509	 0.4158104716	 0.118398
H	-1.948237799	-3.2361708392	-1.4791920304	 0.255798
H	-0.060938234	-0.1844303141	-2.1318552388	 0.124976
H	 1.5771325788	 0.0384922312	-1.4885180798	 0.108982
68.6493	143.9909	225.6914	268.376	291.5425	296.5258	334.4917	374.5197	451.2028	507.4886	578.8804	616.6542	698.0804	791.869	806.3869	868.6076	900.5495	953.7044	994.9201	1076.4718	1092.651	1101.4417	1124.0919	1140.3199	1220.0644	1253.1616	1275.6705	1307.3299	1315.8703	1350.925	1374.7579	1405.8093	1421.6726	1450.0094	1463.2879	1480.3784	1496.7283	1500.485	1842.6109	2972.5556	3009.4999	3037.7356	3043.9154	3089.0637	3092.9259	3095.8411	3618.3614	3813.0185
OC1CCNC(=O)OC1	O[C@H]1CCNC(=O)OC1	
InChI=1S/C5H9NO3/c7-4-1-2-6-5(8)9-3-4/h4,7H,1-3H2,(H,6,8)	InChI=1S/C5H9NO3/c7-4-1-2-6-5(8)9-3-4/h4,7H,1-3H2,(H,6,8)/t4-/m0/s1
