21
gdb 110222	2.15079	1.44454	1.27211	1.6338	79.66	-0.2177	0.0766	0.2943	1174.1954	0.179758	-424.180128	-424.170166	-424.169222	-424.214714	36.27	
C	 0.3392547817	 0.9113248109	-0.4355356587	-0.233999
O	-0.3698584294	 0.0603471393	 0.4476142881	-0.239946
C	 0.4491302291	-0.5774442277	 1.3700563817	 0.004358
C	 0.1648132421	-2.0031204074	 1.7649369098	 0.135844
C	-0.1099212685	-2.4732981819	 3.1638227786	-0.499735
C	-0.2111577438	-2.7530690511	 0.4876208092	-0.120271
O	 0.9975009821	-2.3201248229	-0.1905979966	-0.327209
C	 1.4439104321	-1.6460583864	 0.989982438	 0.379625
C	 2.9072603335	-1.6750747029	 1.291155309	-0.492707
H	 1.0633817438	 0.3450594187	-1.0342610296	 0.126063
H	-0.3987039656	 1.3678687756	-1.0995789294	 0.124857
H	 0.8679175632	 1.7096816588	 0.1069943557	 0.100011
H	 0.7791963333	 0.0540136932	 2.20045801	 0.077989
H	-1.1739004565	-2.3761727075	 3.4119780948	 0.127799
H	 0.1683341272	-3.5250142324	 3.2951820991	 0.119997
H	 0.4509252155	-1.8857638114	 3.8975629825	 0.1205
H	-0.2097381546	-3.8423504921	 0.6121252145	 0.099287
H	-1.1169189423	-2.4296721185	-0.0338086228	 0.114754
H	 3.4731415185	-1.178400726	 0.4944391566	 0.132325
H	 3.1179470871	-1.153786952	 2.229492386	 0.122507
H	 3.2734674717	-2.7034775562	 1.3736088434	 0.12795
75.5704	149.38	160.5306	168.508	183.1956	190.7273	246.3166	264.2268	291.2863	352.4312	397.2638	531.0251	588.4797	636.9024	692.4707	810.0215	841.0322	925.6151	952.0185	990.181	1006.4441	1026.4632	1044.9253	1096.3648	1113.3794	1157.2654	1164.8472	1181.527	1197.8384	1235.3646	1256.2435	1278.0622	1314.686	1351.6217	1409.6729	1416.9995	1460.6747	1474.2645	1486.3748	1488.3074	1490.5451	1495.554	1503.4804	1504.0316	1523.0537	2987.4923	3021.2986	3029.0331	3030.6365	3056.0895	3060.9526	3080.4327	3090.7553	3092.9394	3098.097	3113.6293	3118.0931
COC1C2(C)COC12C	CO[C@H]1[C@@]2(C)CO[C@@]12C	
InChI=1S/C7H12O2/c1-6-4-9-7(6,2)5(6)8-3/h5H,4H2,1-3H3	InChI=1S/C7H12O2/c1-6-4-9-7(6,2)5(6)8-3/h5H,4H2,1-3H3/t5-,6+,7-/m0/s1
