19
gdb 78591	2.58987	1.58189	1.21098	0.6249	74.44	-0.2378	0.0679	0.3058	1073.0975	0.158657	-422.964609	-422.956132	-422.955188	-422.997136	33.352	
C	-0.0289085361	 1.6200463842	 0.0273199602	-0.439646
C	 0.1114688549	 0.0973949586	 0.0441021305	 0.037656
C	 0.8066938583	-0.6601923967	-1.0885439957	-0.142483
C	 2.3182816307	-0.8056934615	-0.7229821798	-0.235798
C	 2.5334435079	-0.2064549581	 0.6639362437	 0.176881
O	 2.971305384	 1.1115280219	 0.8734299641	-0.441952
C	 1.0827399571	-0.6620221647	 1.005557939	-0.220716
C	 1.2652546223	-1.7365686289	-0.1640282664	 0.386581
O	 1.075545104	-3.0904787317	-0.2423706914	-0.455528
H	 0.8245538017	 2.1245892887	-0.4388649993	 0.103994
H	-0.9059385594	 1.912108461	-0.5603120274	 0.118823
H	-0.1562255951	 2.0264305545	 1.0357965542	 0.127373
H	-0.8812360607	-0.3449485931	 0.1838182541	 0.084964
H	 0.4977863549	-0.7700903159	-2.1206321053	 0.089576
H	 3.0492094062	-1.0167724292	-1.4934614826	 0.088386
H	 3.2403806739	-0.8308582928	 1.2205384313	 0.083062
H	 2.4599304686	 1.6985328477	 0.3108387246	 0.278456
H	 0.7942457226	-0.8562134249	 2.0370350549	 0.068622
H	 1.8230546542	-3.5324286489	 0.1759678213	 0.291748
131.8914	155.2146	213.3215	242.5375	278.7105	286.8085	333.1859	363.024	429.3405	549.1233	590.941	656.4792	689.2862	717.4901	769.8753	869.8724	911.7386	921.177	942.5332	965.9506	992.43	1014.1148	1051.7928	1069.4258	1087.2605	1100.4744	1117.2762	1134.7718	1170.7338	1218.8976	1241.8007	1264.9103	1295.6211	1300.259	1339.5832	1389.2606	1407.8763	1444.695	1484.9522	1499.5799	1513.6908	3028.3479	3041.464	3057.1752	3086.029	3102.9415	3134.1354	3192.2262	3201.7136	3788.9433	3851.4235
CC1C2C3C(O)C1C23O	C[C@H]1[C@H]2[C@H]3[C@@H](O)[C@@H]1[C@@]23O	
InChI=1S/C7H10O2/c1-2-3-5-6(8)4(2)7(3,5)9/h2-6,8-9H,1H3	InChI=1S/C7H10O2/c1-2-3-5-6(8)4(2)7(3,5)9/h2-6,8-9H,1H3/t2-,3-,4+,5-,6-,7-/m0/s1
