15
gdb 24173	4.00789	1.73106	1.20891	3.2118	82.84	-0.208	-0.0304	0.1776	954.2309	0.117737	-379.757144	-379.751207	-379.750263	-379.787235	24.584	
C	-0.0077141863	 1.3106500457	 0.0097639252	-0.086988
C	 1.2802208626	 1.8000103653	-0.0000885608	-0.147338
N	 2.0914403543	 0.6893991073	-0.0143842063	-0.073724
C	 3.4552393357	 0.5601232398	-0.0285031968	 0.012909
C	 4.009657902	-0.6844612891	-0.0410405941	-0.17407
C	 3.1810989905	-1.8398563078	-0.0395012314	-0.089083
C	 1.8169127082	-1.7127160224	-0.025391233	-0.22497
C	 1.2334560158	-0.4283825808	-0.0123400558	 0.419566
N	-0.0399851165	-0.050329768	 0.0023083361	-0.35123
H	-0.9188769019	 1.8916516934	 0.0220219187	 0.113021
H	 1.6825329197	 2.7990550757	 0.0016562958	 0.130533
H	 4.0259783768	 1.4797697294	-0.0288579596	 0.132275
H	 5.0880855319	-0.7793818709	-0.0521627845	 0.1092
H	 3.6383062078	-2.8224513563	-0.0495915557	 0.107606
H	 1.1531356996	-2.5682667815	-0.0237578477	 0.122292
217.7756	238.6019	420.11	432.0509	573.6147	581.5246	628.5996	643.9367	700.2657	760.8835	776.6815	777.0884	857.1668	890.4989	903.2571	923.0164	925.8623	976.7783	1028.9113	1099.5216	1148.2476	1165.0375	1185.3444	1260.5845	1291.9084	1334.5809	1376.9549	1410.6414	1493.1216	1504.9168	1544.415	1564.8363	1679.5479	3193.8582	3208.7137	3219.3628	3225.8499	3237.652	3278.6511
C1=CN2C=CC=CC2=N1	c1cn2ccccc2n1	
InChI=1S/C7H6N2/c1-2-5-9-6-4-8-7(9)3-1/h1-6H	InChI=1S/C7H6N2/c1-2-5-9-6-4-8-7(9)3-1/h1-6H
