17
gdb 46542	4.0755	1.10247	1.02924	2.8689	67.52	-0.2637	0.0046	0.2683	1163.363	0.136832	-458.982666	-458.974956	-458.974012	-459.015916	28.384	
O	-0.109220834	 0.2800812698	-1.0646840428	-0.328669
C	-0.0992245431	 1.3046946141	-0.4512014979	 0.435711
C	-1.1777971088	 1.8857568875	 0.4599445596	-0.45203
C	-0.7884287152	 3.3539726434	 0.5988275055	 0.251422
C	-1.5586768404	 4.3918444486	-0.2586136217	-0.11604
O	-1.9213497862	 5.1515002871	 0.9095484102	-0.26606
C	-1.2932113249	 4.1990268728	 1.7868105608	-0.134345
C	 0.7300456047	 3.2835438996	 0.3890661107	-0.139568
O	 0.9620194092	 2.1625048357	-0.4756857616	-0.217464
H	-2.1707200388	 1.7074129532	 0.044567971	 0.145549
H	-1.1227281198	 1.3617031523	 1.4225460653	 0.142027
H	-0.9555409437	 4.9780207191	-0.9632427783	 0.109948
H	-2.4391769266	 3.9983953246	-0.7830112981	 0.108365
H	-2.0172129328	 3.6962691091	 2.4412647299	 0.107259
H	-0.513851581	 4.6604082308	 2.408139994	 0.105929
H	 1.147903673	 4.1730264105	-0.0883433905	 0.131543
H	 1.2555437382	 3.1149080518	 1.338316904	 0.116424
51.3818	79.2858	168.8186	255.7312	360.2346	371.8014	427.8085	518.9813	559.5904	690.9693	769.9387	841.9229	861.5355	899.6595	928.1735	949.8181	992.4485	1007.1456	1046.3784	1065.5688	1108.053	1138.8805	1154.4914	1161.2314	1184.8755	1209.564	1263.9321	1279.8008	1303.1858	1313.273	1388.7039	1398.5329	1459.8756	1508.5493	1519.4733	1536.5766	1891.8005	2997.8851	3010.6409	3020.8311	3041.2202	3045.1101	3052.8944	3101.7236	3123.8195
O=C1CC2(COC2)CO1	O=C1CC2(COC2)CO1	
InChI=1S/C6H8O3/c7-5-1-6(4-9-5)2-8-3-6/h1-4H2	InChI=1S/C6H8O3/c7-5-1-6(4-9-5)2-8-3-6/h1-4H2
