18
gdb 49550	3.67387	1.34294	1.21552	2.6622	76.19	-0.2241	-0.0263	0.1978	1055.8209	0.148945	-401.920935	-401.913555	-401.912611	-401.953054	28.898	
O	-0.8189602002	 0.9568085402	 0.3877811478	-0.247346
C	 0.2868099498	 0.7275381055	-0.030952251	 0.14031
C	 1.4469677286	 1.6971664963	 0.0113615292	-0.045888
C	 1.4012505635	 2.8238229429	 1.0704764686	-0.072589
C	 2.0342800042	 1.7485338341	 1.9936776368	-0.184252
N	 2.6001152389	 1.0687622912	 0.7627139365	-0.145512
C	 3.843738921	 1.7696492992	 0.3703631267	-0.216951
C	 3.6909832246	 3.2813779771	 0.3770307861	-0.072889
C	 2.508568586	 3.7991222378	 0.7131735601	-0.073637
H	 0.5480933631	-0.2514712405	-0.4930179752	 0.085694
H	 1.6906835141	 1.9859028046	-1.0196293698	 0.096073
H	 0.444789791	 3.278469004	 1.3266796746	 0.085234
H	 2.7786995267	 2.0801339553	 2.7204878267	 0.108368
H	 1.3060181077	 1.0893731232	 2.4724028659	 0.121474
H	 4.6419228731	 1.4565941824	 1.0561492693	 0.11769
H	 4.1405940497	 1.412342271	-0.6246505415	 0.114788
H	 4.5475054137	 3.8949422045	 0.1130466168	 0.094007
H	 2.3225518945	 4.8675429211	 0.7422419926	 0.095427
61.0259	167.7024	219.4288	313.9795	340.8975	425.5662	481.2008	524.4547	649.9199	702.2782	735.4137	802.9755	822.8429	874.6871	894.6385	911.9042	950.2184	966.1324	974.3766	1005.644	1033.4765	1069.6151	1089.7753	1102.4854	1165.8005	1173.9462	1215.5819	1234.5142	1266.7862	1285.8451	1300.0987	1346.0285	1354.6818	1379.8956	1408.1959	1474.3423	1507.3197	1691.764	1827.3776	2881.4553	3014.8562	3026.8257	3044.6449	3062.3427	3117.7192	3124.537	3163.797	3190.482
O=CC1C2CN1CC=C2	O=C[C@H]1[C@H]2CN1CC=C2	
InChI=1S/C7H9NO/c9-5-7-6-2-1-3-8(7)4-6/h1-2,5-7H,3-4H2	InChI=1S/C7H9NO/c9-5-7-6-2-1-3-8(7)4-6/h1-2,5-7H,3-4H2/t6-,7+/m1/s1
