17
gdb 71022	4.25231	1.65916	1.40802	1.8329	76.12	-0.2209	-0.005	0.2159	930.4701	0.135331	-384.560386	-384.55364	-384.552696	-384.590936	28.452	
C	 0.0160985805	 1.4725137406	-0.1677814423	-0.525552
C	 0.0082686478	-0.0063364316	 0.0389220657	 0.377424
O	 0.6691551078	-0.8501859252	-1.0468286786	-0.423585
C	 0.1897991388	-1.7872207174	-0.0575873727	 0.436125
C	 0.0403262983	-3.2231187558	 0.3995896848	-0.242038
C	-0.6134874416	-3.0275563215	 1.5579522488	-0.076515
C	-0.8049197647	-1.4913463185	 1.7036289667	-0.175943
C	 0.5474579889	-0.9139573456	 1.1733906092	-0.117947
C	-1.1324156975	-1.0348999588	 0.2448820329	-0.117985
H	 1.0406699609	 1.8512288155	-0.2298295312	 0.136594
H	-0.5075072885	 1.7388403543	-1.0907811953	 0.136665
H	-0.4862840371	 1.964528997	 0.6713438199	 0.128665
H	 0.3687594831	-4.1338190841	-0.0762460384	 0.122015
H	-0.9505183321	-3.7720289549	 2.265273248	 0.108253
H	-1.3197178803	-1.1129215904	 2.5857343611	 0.067995
H	 1.5239506486	-0.8774925294	 1.6583562521	 0.082915
H	-2.0590091027	-1.1354891445	-0.3220065106	 0.082915
198.2038	227.9395	236.2003	423.571	468.2736	474.5593	576.3276	582.5431	655.7282	672.9592	735.4269	759.6564	788.6019	809.9935	840.3653	881.1259	881.8008	928.7174	929.2585	975.8914	1037.2021	1037.7433	1082.5937	1085.0518	1116.2744	1161.6964	1184.1838	1195.4046	1207.5409	1220.7327	1260.9067	1306.5235	1385.9047	1424.7679	1472.7348	1491.746	1575.4852	3039.0559	3111.0258	3111.2741	3113.4383	3114.2475	3125.7748	3231.2369	3263.7577
CC12OC34C=CC(C13)C24	C[C@@]12O[C@@]34C=C[C@@H]([C@H]13)[C@@H]24	
InChI=1S/C8H8O/c1-7-5-4-2-3-8(5,9-7)6(4)7/h2-6H,1H3	InChI=1S/C8H8O/c1-7-5-4-2-3-8(5,9-7)6(4)7/h2-6H,1H3/t4-,5+,6-,7+,8-
