12
gdb 132326	2.14446	1.81616	0.98335	3.0803	62.35	-0.2368	-0.0489	0.1879	1060.2988	0.077528	-513.953539	-513.946504	-513.945559	-513.9854	26.461	
O	 0.0562389901	 1.3037636871	 0.0072622524	-0.385526
C	-0.0340612369	-0.0182068321	 0.0009756253	 0.538938
C	-1.2142940757	-0.6907887046	 0.0036573539	-0.462634
C	-1.0613634604	-2.1008096431	-0.0043651103	 0.363542
F	-2.1789339738	-2.8064976164	-0.0022016632	-0.05168
N	 0.043419703	-2.7581321262	-0.013447849	-0.381282
C	 1.2230488133	-2.0569942604	-0.0158821891	 0.439051
N	 2.4079588855	-2.4870023217	-0.024408577	-0.525808
O	 1.1432761213	-0.6269442979	-0.0082146471	-0.243188
H	 0.9940595293	 1.5443500701	 0.0036407836	 0.324629
H	-2.1693349226	-0.1923007025	 0.0111501456	 0.141232
H	 2.3839027869	-3.5047087723	-0.0296394453	 0.242726
99.258	184.9747	224.3174	347.8129	370.3409	472.7523	510.6859	530.4376	594.334	653.6971	690.8648	699.2089	749.3425	775.8277	850.4592	854.889	971.5927	1051.1358	1139.6069	1169.2872	1233.8546	1263.4451	1428.218	1475.9725	1620.3078	1724.6063	1768.6815	3272.8647	3531.1213	3770.8099
OC1=CC(F)=NC(=N)O1	O[C@@H]1C=C(F)N=C([NH])O1	
InChI=1S/C4H3FN2O2/c5-2-1-3(8)9-4(6)7-2/h1,6,8H	InChI=1S/C4H4FN2O2/c5-2-1-3(8)9-4(6)7-2/h1,3,6,8H/t3-/m0/s1
