13
gdb 125566	3.60481	1.70934	1.168	5.6541	64.73	-0.2554	-0.0477	0.2077	959.6868	0.090872	-448.901044	-448.894384	-448.89344	-448.93222	24.786	
C	-0.0199529595	 1.5239634866	-0.0074237936	-0.498107
C	-0.0126073691	 0.0386933877	-0.0095589298	 0.342733
N	-0.0425205264	-0.7451583052	-1.0595043756	-0.252679
N	-0.023252862	-2.0897434018	-0.672259418	-0.34768
C	 0.0182981876	-2.0401918941	 0.6219085817	 0.531631
O	 0.0556654821	-2.9136858339	 1.6439508632	-0.244583
N	 0.0904806179	-2.1521725727	 2.8412219808	-0.108658
C	 0.0728686185	-0.9058395945	 2.4885577282	 0.043185
N	 0.0280788267	-0.7645275222	 1.1233682937	-0.115913
H	 0.8802939258	 1.934130481	 0.4636196289	 0.143126
H	-0.0564662849	 1.864937124	-1.0429212623	 0.174752
H	-0.8905402228	 1.9252851819	 0.5232031703	 0.143065
H	 0.091883036	-0.0984888468	 3.2031592026	 0.189129
146.1801	189.1398	222.1304	251.3395	381.3781	532.4722	598.1596	631.249	653.8872	710.4631	751.154	825.0836	861.2412	880.9139	973.9174	1012.0454	1042.5653	1066.9223	1122.7423	1222.3159	1302.9295	1382.1106	1411.799	1416.7677	1479.429	1486.0148	1554.4623	1584.326	1638.9505	3035.267	3088.2377	3151.4087	3281.2093
CC1=NN=C2ON=CN12	Cc1nnc2oncn12	
InChI=1S/C4H4N4O/c1-3-6-7-4-8(3)2-5-9-4/h2H,1H3	InChI=1S/C4H4N4O/c1-3-6-7-4-8(3)2-5-9-4/h2H,1H3
