18
gdb 99343	3.59115	0.71814	0.60528	3.1064	76.72	-0.2456	0.0195	0.2651	1782.2825	0.144387	-439.066438	-439.055772	-439.054828	-439.104034	35.88	
C	-0.6623834392	 1.2106088876	-0.4810134025	-0.334174
N	-1.0090276585	-0.1617830077	-0.1762701032	-0.296255
C	-0.3178646101	-0.907858101	 0.7171265517	 0.363207
O	 0.6493939328	-0.5292587825	 1.3544020787	-0.384185
C	-0.8393345703	-2.3337933881	 0.9004042248	-0.146018
O	-1.9608229378	-2.5795420009	 0.0767284589	-0.258989
C	-2.4765722411	-3.8919979601	 0.2165740123	-0.206505
C	-3.6257548139	-4.0678574229	-0.6600028714	 0.272978
C	-4.5757050909	-4.2353807142	-1.3748108153	-0.406225
H	-0.4089746273	 1.3314550189	-1.5401666749	 0.126285
H	-1.4857129137	 1.8921401248	-0.2396481886	 0.126279
H	 0.2059939	 1.4718665052	 0.1252069679	 0.168813
H	-1.7908184642	-0.605672284	-0.6320534385	 0.265199
H	-0.0134464526	-3.0236357377	 0.6698106672	 0.124454
H	-1.0870255113	-2.4645804938	 1.9646985735	 0.124434
H	-1.6998538152	-4.6348131452	-0.030003541	 0.127613
H	-2.7716755879	-4.07587287	 1.2629845626	 0.127609
H	-5.4158911388	-4.3813455683	-2.0080094322	 0.205481
39.1707	63.0475	81.6446	88.4826	106.6937	163.7754	198.481	297.6498	332.486	337.1076	418.3673	540.237	587.7888	614.0144	642.3386	668.2279	684.175	877.8891	978.293	1016.2238	1041.161	1047.3714	1111.8101	1142.1631	1154.7746	1182.0986	1241.0546	1257.6316	1270.5625	1358.3611	1427.5008	1440.9101	1486.8706	1497.2556	1499.909	1509.1921	1577.5729	1788.787	2249.2333	2963.0262	2984.6861	2989.7041	3023.5133	3027.4046	3078.8608	3150.3779	3505.0639	3635.5894
CNC(=O)COCC#C	CNC(=O)COCC#C	
InChI=1S/C6H9NO2/c1-3-4-9-5-6(8)7-2/h1H,4-5H2,2H3,(H,7,8)	InChI=1S/C6H9NO2/c1-3-4-9-5-6(8)7-2/h1H,4-5H2,2H3,(H,7,8)
