14
gdb 18543	4.10644	2.07181	1.63884	4.244	61.38	-0.2695	-0.0117	0.2578	773.7062	0.109329	-382.578279	-382.572287	-382.571343	-382.608521	23.057	
O	-0.2682343378	 0.2230992139	 0.4671885918	-0.323934
C	-0.0860219688	 1.3225889371	 0.0527806737	 0.447049
O	-0.988256827	 2.1414851791	-0.5757420567	-0.257132
C	 0.0113627768	 3.2366347827	-0.6736425952	 0.078981
C	-0.2179766185	 4.331193159	 0.3223021411	-0.083015
C	 0.5677687881	 4.1886601755	 1.3914088129	-0.051154
C	 1.4949790844	 2.9969708372	 1.3038372341	-0.282331
C	 1.073257327	 2.324838699	-0.0196785928	-0.227714
H	 0.1102649083	 3.536046125	-1.7177717968	 0.100653
H	-0.9534504288	 5.1125832979	 0.176016123	 0.111869
H	 0.5639606194	 4.8454841756	 2.2547556773	 0.111418
H	 2.546047965	 3.3081781054	 1.2793142926	 0.12246
H	 1.3912317752	 2.3245688982	 2.1630486659	 0.138384
H	 1.9008524167	 1.9806366245	-0.6393824609	 0.114465
114.0792	221.0609	285.4858	451.318	506.5325	655.4695	688.4009	724.0415	788.3178	825.6381	869.6256	877.9725	905.9126	948.3102	979.1796	1013.5467	1023.6357	1053.7083	1119.8753	1133.1661	1160.9264	1214.3865	1273.252	1281.2548	1317.246	1340.3405	1379.1405	1481.816	1674.3117	1931.885	3036.4825	3068.5286	3108.7886	3125.5321	3190.2971	3220.2156
O=C1OC2C=CCC12	O=C1O[C@H]2C=CC[C@@H]12	
InChI=1S/C6H6O2/c7-6-4-2-1-3-5(4)8-6/h1,3-5H,2H2	InChI=1S/C6H6O2/c7-6-4-2-1-3-5(4)8-6/h1,3-5H,2H2/t4-,5+/m1/s1
