21
gdb 65574	3.24865	1.21095	1.16719	0.6495	87.41	-0.255	0.06	0.315	1176.4894	0.18259	-349.92377	-349.915033	-349.914089	-349.956548	34.978	
C	 0.4044785527	 1.2195809337	 0.0279791576	-0.434149
C	-0.0901513744	-0.2460818123	-0.002569216	 0.101137
C	 0.5026903223	-1.0387046888	-1.2267795583	-0.261829
C	 1.606491372	-1.9343217113	-0.6894174859	-0.024475
C	 2.7195588863	-1.3184471263	 0.1222014983	-0.29252
C	 1.536432784	-1.9421577344	 0.820873589	-0.024475
C	 0.3871998759	-1.0516183749	 1.2629928051	-0.261828
C	-1.5519170911	-0.2204904157	-0.0702418857	 0.310412
C	-2.7531754496	-0.1893620195	-0.1257987765	-0.478095
H	 1.4943060328	 1.2761200561	 0.0788263657	 0.118272
H	 0.0774007068	 1.7513859041	-0.8701805886	 0.124071
H	-0.0045944688	 1.7422151437	 0.8974618497	 0.124071
H	-0.2790593586	-1.6600357916	-1.6724416182	 0.11216
H	 0.8443683955	-0.347084647	-2.0046513955	 0.101698
H	 1.8265374288	-2.8410702852	-1.2424279328	 0.082149
H	 3.6550622415	-1.8665573664	 0.1627540586	 0.107146
H	 2.8481460793	-0.2422014961	 0.133751926	 0.110887
H	 1.704773804	-2.8546892309	 1.3824615599	 0.082149
H	 0.6550723732	-0.3682502385	 2.0762696482	 0.101698
H	-0.4321516541	-1.6771510035	 1.6279195939	 0.11216
H	-3.8135262587	-0.1678209751	-0.1748758444	 0.189361
102.1294	147.2135	201.6112	213.5265	262.7181	332.9803	356.6302	382.9624	511.8389	528.5556	585.4911	618.6996	619.0935	627.5105	760.1797	778.8192	822.5044	865.0626	893.9491	895.2079	941.9296	944.3718	968.5781	1026.4118	1063.6799	1077.7449	1086.7751	1110.4014	1134.954	1156.2678	1178.9879	1216.8671	1217.5871	1286.8087	1314.3843	1334.9192	1344.5382	1392.4905	1418.1421	1480.0366	1487.3369	1492.8348	1501.3516	1505.2943	2228.4027	3042.1906	3042.7986	3047.2044	3087.6711	3089.1191	3115.0224	3122.2521	3136.3738	3159.6128	3169.0039	3216.1575	3502.73
CC1(CC2CC2C1)C#C	C[C@]1(C[C@H]2C[C@H]2C1)C#C	
InChI=1S/C9H12/c1-3-9(2)5-7-4-8(7)6-9/h1,7-8H,4-6H2,2H3	InChI=1S/C9H12/c1-3-9(2)5-7-4-8(7)6-9/h1,7-8H,4-6H2,2H3/t7-,8+,9-
