13
gdb 127658	3.68415	1.76442	1.20216	4.8048	65.38	-0.2556	-0.04	0.2156	935.1312	0.091794	-445.067492	-445.060646	-445.059702	-445.09987	24.302	
C	 0.0790056462	 1.4238428898	-0.0475017605	-0.338886
N	 0.0569489534	-0.0224850942	 0.0200938076	-0.118095
N	 0.1355090808	-0.792789143	-1.1120689258	-0.228817
C	 0.1181878392	-2.0398369579	-0.7184887689	 0.033344
N	 0.0332209067	-2.0924352434	 0.6529881694	 0.007714
N	-0.0310622392	-2.9313016349	 1.7328609411	-0.164746
N	-0.0990211867	-2.131367198	 2.7551262554	-0.088735
N	-0.0845334128	-0.8080032844	 2.4320146775	-0.3633
C	-0.0022160895	-0.8188254802	 1.1119256424	 0.574871
H	 1.0526676369	 1.7777348135	-0.3965292258	 0.159989
H	-0.6998490213	 1.7740486744	-0.7279673373	 0.162917
H	-0.1101388169	 1.8081069627	 0.9555930352	 0.178153
H	 0.161767533	-2.8953625945	-1.3696252604	 0.185592
33.4546	149.3534	241.9572	257.5528	355.3832	510.8332	632.64	634.3693	691.715	713.2978	770.8559	815.6903	891.9434	993.1716	1014.3213	1097.2754	1137.0314	1156.9207	1205.6365	1255.8188	1265.6538	1340.7532	1379.7751	1453.9271	1475.0086	1480.509	1503.4676	1536.5948	1645.4515	3056.8532	3129.8733	3161.2408	3304.6009
CN1N=CN2N=NN=C12	Cn1ncn2nnnc12	
InChI=1S/C3H4N6/c1-8-3-5-6-7-9(3)2-4-8/h2H,1H3	InChI=1S/C3H4N6/c1-8-3-5-6-7-9(3)2-4-8/h2H,1H3
