21
gdb 36771	5.56151	0.61636	0.57617	1.1591	86.5	-0.2543	0.034	0.2883	1934.5736	0.180596	-387.029818	-387.019948	-387.019004	-387.065893	35.504	
C	 0.0481854928	-1.1735645306	-0.2102546274	-0.415331
C	 0.0599409456	 0.0197785968	-0.0775874793	 0.281522
C	 0.0397079654	 1.4676462877	 0.0874011069	-0.201917
O	 1.3509435692	 1.9848304138	-0.001275716	-0.247859
C	 1.3931415083	 3.3908670932	 0.1599548167	-0.065695
C	 2.8295216814	 3.8460008252	 0.028652035	 0.036463
C	 3.5156065956	 3.7778584135	-1.363788542	-0.209068
C	 4.180790989	 5.147781372	-1.059929109	-0.210095
C	 3.1202158868	 5.3732724417	 0.0527940139	-0.238276
H	 0.0454377566	-2.2288915006	-0.3281158116	 0.199353
H	-0.608286908	 1.9188365134	-0.6843317973	 0.116262
H	-0.4122684023	 1.7221540466	 1.0621524931	 0.116132
H	 0.7661018203	 3.8823112408	-0.6055879296	 0.079781
H	 0.9838493215	 3.6770478964	 1.1454555182	 0.0846
H	 3.4352607144	 3.325481613	 0.7777457472	 0.081313
H	 4.1645059927	 2.9241468281	-1.568059137	 0.103057
H	 2.7789621372	 3.8540458441	-2.1703700322	 0.096985
H	 5.1844127919	 5.0281792994	-0.6419092216	 0.102941
H	 4.2293819019	 5.88103295	-1.8682046297	 0.095726
H	 2.2645916596	 5.9483581437	-0.3177915116	 0.097002
H	 3.4492973202	 5.8139355718	 0.9969494632	 0.097105
40.4144	78.5765	81.505	128.4662	151.5721	209.3501	310.616	334.5825	363.6914	431.232	561.7359	606.7907	644.8364	674.4769	766.6275	791.7549	894.6617	916.4055	934.5795	965.261	974.0116	985.5587	1009.6724	1031.5952	1085.5115	1127.2778	1141.655	1183.0497	1205.3068	1229.7471	1254.7691	1255.7011	1258.3644	1274.1219	1277.4049	1299.5005	1357.9135	1390.176	1447.0208	1477.512	1486.6301	1496.6759	1509.2871	1522.3464	2248.0826	2935.1866	2949.924	2961.4488	2966.0545	3043.3002	3050.4922	3058.5743	3059.0091	3097.7618	3107.5563	3120.8368	3506.5085
C#CCOCC1CCC1	C#CCOCC1CCC1	
InChI=1S/C8H12O/c1-2-6-9-7-8-4-3-5-8/h1,8H,3-7H2	InChI=1S/C8H12O/c1-2-6-9-7-8-4-3-5-8/h1,8H,3-7H2
