20
gdb 49909	5.44168	0.75777	0.72826	3.2514	81.7	-0.242	-0.0189	0.2231	1570.6183	0.170012	-403.111415	-403.102497	-403.101553	-403.146177	32.65	
O	 0.0197041901	-0.1303165873	-0.2509247503	-0.257381
C	-0.006318616	 1.0455946955	 0.0084724847	 0.171643
C	 1.1885152846	 1.9570486091	 0.0172521388	-0.090634
C	 0.9490371714	 3.2836660063	-0.7799518515	-0.265985
C	 0.6674858887	 4.0220908675	 0.5522945506	 0.082001
C	 1.2832009151	 2.8245233151	 1.3179050394	-0.265921
N	 1.3376387885	 5.2943602326	 0.7240240595	-0.064763
C	 0.5773016712	 6.4813185097	 0.3343420791	-0.225138
C	 0.8059790112	 6.1670423875	 1.7702536588	-0.225141
H	-0.9697503047	 1.5487583851	 0.2703044541	 0.064294
H	 2.0728599029	 1.3775897557	-0.2503032969	 0.094018
H	 1.8769341595	 3.6393028592	-1.232315469	 0.124415
H	 0.1595550502	 3.2808485667	-1.5357795865	 0.106565
H	-0.4174081864	 4.0987682507	 0.7418935397	 0.05624
H	 0.755266283	 2.4623703161	 2.2037268553	 0.106605
H	 2.3246354348	 3.0241457419	 1.5780361076	 0.124432
H	 1.1463226062	 7.2645335705	-0.1574696094	 0.120343
H	-0.4303711673	 6.3373667935	-0.0523693767	 0.112032
H	-0.0486578576	 5.8127656438	 2.3444988242	 0.112033
H	 1.5449305647	 6.7167159909	 2.3454914185	 0.120343
52.2318	64.3491	91.4953	185.1711	255.9146	292.7834	313.7466	379.84	471.7577	490.6755	638.0505	797.1415	809.3216	860.5869	879.1434	886.4778	901.9143	919.6742	973.0505	987.4602	1024.1605	1073.8112	1082.8162	1109.9765	1111.7885	1119.7787	1130.2441	1175.6942	1198.0924	1208.3631	1229.1965	1257.6486	1272.1204	1291.3142	1315.6353	1323.287	1386.567	1437.4702	1464.9092	1487.2918	1492.4542	1520.6905	1830.5051	2828.3025	2937.5377	3063.9345	3065.9906	3097.3432	3101.7637	3105.7459	3125.7484	3128.3685	3181.6579	3195.7953
O=CC1CC(C1)N1CC1	O=C[C@H]1C[C@@H](C1)N1CC1	
InChI=1S/C7H11NO/c9-5-6-3-7(4-6)8-1-2-8/h5-7H,1-4H2	InChI=1S/C7H11NO/c9-5-6-3-7(4-6)8-1-2-8/h5-7H,1-4H2/t6-,7-
