19
gdb 82480	3.22585	1.54752	1.45453	2.3526	73.96	-0.2406	0.0663	0.3069	986.1571	0.159907	-422.986417	-422.978935	-422.977991	-423.017889	30.63	
C	 0.1458771373	 1.4630604413	 0.1274200449	-0.483795
C	-0.0456507646	-0.0168698354	-0.0480998251	 0.443958
C	 0.4557386123	-0.7500703503	-1.3174947423	-0.279801
C	-0.6916212032	-1.7762105553	-1.1591951577	-0.105026
C	-0.4302819716	-2.7669371322	 0.023458282	 0.161479
O	 0.8274810391	-3.3574076719	 0.1748504825	-0.443557
C	-0.7922016172	-1.6482728811	 1.0245313025	 0.046016
O	 0.3477385495	-0.763069714	 1.1504709192	-0.356435
C	-1.3928292888	-0.8078543973	-0.1286559865	-0.152212
H	 1.2095346369	 1.6923379257	 0.2593155082	 0.13016
H	-0.2143032456	 2.0070455871	-0.7512262193	 0.119224
H	-0.3913675903	 1.8226908985	 1.0097860152	 0.126655
H	 0.3092595316	-0.1286048067	-2.2067014442	 0.101408
H	 1.4836285936	-1.1248338093	-1.3062171522	 0.100842
H	-1.1588956438	-2.1743118652	-2.0589318194	 0.068561
H	-1.1875083896	-3.558507365	 0.0222334311	 0.084876
H	 1.3897562807	-2.6666935024	 0.5530858412	 0.287914
H	-1.2390944841	-1.8843068523	 1.9922625848	 0.075762
H	-2.3920999321	-0.386204954	-0.1866470448	 0.073973
142.9379	202.8401	216.6758	271.5807	346.4171	426.9488	476.5803	525.0403	554.1983	618.4433	687.5209	744.0073	788.6221	822.4128	851.6696	871.2722	907.801	919.8742	962.591	970.2405	1010.1605	1028.1384	1076.7565	1111.0968	1131.9008	1139.251	1159.3447	1173.229	1197.2513	1212.8472	1251.3297	1265.7633	1287.041	1318.8899	1328.9474	1345.545	1410.366	1435.7591	1474.6349	1479.2369	1488.5404	3032.659	3045.5373	3055.2363	3090.1453	3098.4233	3102.8668	3115.7858	3116.3904	3158.4279	3741.7765
CC12CC3C(O)C(O1)C23	C[C@@]12C[C@H]3[C@@H](O)[C@@H](O1)[C@@H]23	
InChI=1S/C7H10O2/c1-7-2-3-4(7)6(9-7)5(3)8/h3-6,8H,2H2,1H3	InChI=1S/C7H10O2/c1-7-2-3-4(7)6(9-7)5(3)8/h3-6,8H,2H2,1H3/t3-,4+,5-,6+,7+/m1/s1
