14
gdb 14317	5.58036	1.65379	1.3522	2.7871	65.27	-0.2451	-0.0544	0.1907	858.4826	0.108032	-382.526091	-382.519846	-382.518902	-382.556535	23.929	
O	 0.0389486945	-0.0065073154	 0.0022354729	-0.313551
C	 0.0112027939	 1.1969777724	-0.0178530376	 0.381839
C	-1.2816295124	 2.0754748706	-0.0006874934	-0.371976
C	-0.7539745902	 3.4478992581	-0.4036868042	 0.099827
O	-0.7892865264	 4.6234902381	 0.4807025407	-0.302622
C	 0.6611817799	 4.7851568023	 0.3602996315	-0.153894
C	 0.7142812345	 3.3700060476	-0.1462105999	 0.217069
C	 1.1768484519	 2.1400221255	 0.074697189	-0.316762
H	-2.0678543755	 1.6580257775	-0.6318617547	 0.126943
H	-1.6406956058	 2.1003626573	 1.0341273135	 0.152408
H	-1.0626852083	 3.7465983828	-1.4128529615	 0.099517
H	 0.9171046192	 5.5684469614	-0.3644172265	 0.121821
H	 1.1476596374	 4.9894628399	 1.3188522979	 0.135176
H	 2.1529936073	 1.820991272	 0.4148706824	 0.124203
113.7186	207.1656	327.85	345.3052	486.1656	527.5144	588.0133	667.0373	752.6331	787.3608	850.1375	863.8698	900.0337	955.5411	986.6149	1001.676	1061.8861	1089.095	1133.1151	1137.276	1151.3578	1223.1049	1236.2316	1292.7482	1327.9916	1352.2633	1446.936	1503.1197	1711.5779	1829.3552	3021.144	3031.8451	3063.0283	3089.7765	3129.5588	3228.5813
O=C1CC2OCC2=C1	O=C1C[C@H]2OC[C]2[CH]1	
InChI=1S/C6H6O2/c7-5-1-4-3-8-6(4)2-5/h1,6H,2-3H2	InChI=1S/C6H6O2/c7-5-1-4-3-8-6(4)2-5/h1,6H,2-3H2/t6-/m1/s1
