17
gdb 54010	2.08674	1.58568	1.05401	1.605	73.05	-0.2558	-0.0235	0.2323	1155.336	0.135329	-451.371676	-451.361922	-451.360978	-451.406706	34.708	
C	 1.754048	-0.3068288643	 0.2373089532	-0.441396
C	 0.2912149691	 0.024173849	 0.2168942875	 0.331951
N	-0.1841157096	 0.9860569427	 0.8943097253	-0.452046
N	-0.5273126552	-0.7788542192	-0.6688553008	-0.175026
C	-0.6839409467	-2.1452149113	-0.437194631	 0.083234
N	-0.1920308496	-2.701075436	 0.5943681795	-0.476314
C	-1.1428229627	-0.2344997037	-1.8269834559	 0.473742
N	-0.8710599768	 1.0804834498	-2.063462298	-0.577731
O	-1.825413873	-0.9147714272	-2.565784907	-0.386668
H	 1.8889485267	-1.3297234564	 0.5956668306	 0.178194
H	 2.1697933626	-0.2473054526	-0.7746142614	 0.133344
H	 2.2734688126	 0.3902939071	 0.8945834523	 0.146607
H	-1.1995593395	 1.0403342706	 0.7844997624	 0.228834
H	-1.2725242847	-2.6120291301	-1.227002484	 0.152016
H	-0.4095396396	-3.6953874367	 0.5896659172	 0.233214
H	-0.4383962269	 1.6795039947	-1.3824405099	 0.275147
H	-1.3698675566	 1.4938030536	-2.83222172	 0.2729
47.8768	89.6316	137.6553	176.3641	216.7452	221.6183	248.1772	284.0557	386.2329	454.7584	462.5866	523.7416	566.9468	596.9658	657.6157	737.0945	764.0498	828.6284	920.4492	981.0999	1066.7387	1081.3932	1084.1485	1092.1392	1141.695	1180.0027	1316.2117	1344.4881	1373.4184	1399.7099	1405.841	1467.2935	1485.8847	1610.3023	1714.917	1731.7016	1806.7013	3047.9165	3123.4365	3140.6611	3164.8477	3448.6643	3510.8183	3615.2701	3746.0708
CC(=N)N(C=N)C(N)=O	CC(=N)N(C=N)C(=O)N	
InChI=1S/C4H8N4O/c1-3(6)8(2-5)4(7)9/h2,5-6H,1H3,(H2,7,9)	InChI=1S/C4H8N4O/c1-3(6)8(2-5)4(7)9/h2,5-6H,1H3,(H2,7,9)
