20
gdb 41437	2.78822	2.07958	1.63566	1.8164	82.74	-0.2006	0.0637	0.2644	911.7878	0.173549	-365.881775	-365.875135	-365.874191	-365.912182	28.94	
C	 0.0134080032	 1.5589174841	-0.2294513217	-0.332286
C	 1.5815719617	 1.496761245	 0.0701009412	-0.343238
C	 1.2897576038	 0.1986199434	 0.8997483854	 0.334111
C	 1.0447041062	 0.3006404331	 2.397856947	-0.282086
C	-0.0775609732	-0.761598606	 2.5429447009	-0.232017
C	-0.1786918299	-1.1948025154	 1.0907292257	-0.049101
N	 1.2942332417	-1.3686705875	 0.5777811769	-0.226658
C	 0.7576243619	-0.9614129025	-0.7893884261	-0.195849
C	 0.0164239165	 0.037497347	 0.1134614034	 0.204478
H	-0.5113733971	 2.1770323082	 0.5037970882	 0.112259
H	-0.2975523856	 1.8561883668	-1.2345659392	 0.104336
H	 2.1735566029	 1.3635774638	-0.8354623979	 0.121659
H	 2.0065153688	 2.3253407098	 0.6411456928	 0.106695
H	 1.942480735	 0.0536236557	 2.9726715299	 0.108597
H	 0.7240399252	 1.3034327898	 2.6974952222	 0.097621
H	 0.2080348091	-1.6015243516	 3.1818754905	 0.112338
H	-1.0186735212	-0.3516209879	 2.920558525	 0.101481
H	-0.8340065018	-2.0290711807	 0.8275460074	 0.071411
H	 1.5278528286	-0.5953616045	-1.4724850636	 0.095797
H	 0.1673082543	-1.7449891206	-1.274668948	 0.090452
202.7043	241.2196	349.0016	372.4419	442.6	480.0708	546.4888	641.0153	672.57	692.6761	765.6735	795.873	827.4626	845.3048	854.7904	899.7846	914.0967	930.272	955.3312	975.7874	999.8548	1033.8087	1052.6044	1116.0204	1118.8198	1137.6024	1161.8129	1176.2122	1193.0008	1214.5786	1216.6718	1232.6203	1246.4	1256.9486	1273.5733	1282.2802	1323.1098	1343.2766	1466.363	1475.0499	1480.3775	1499.2352	1542.9219	3047.2157	3047.4205	3056.4651	3060.1835	3077.2631	3084.4512	3091.0226	3105.3049	3107.8701	3113.0675	3140.5487
C1CC23CCC4N2CC134	C1C[C@]23CC[C@@H]4N2C[C@]134	
InChI=1S/C8H11N/c1-2-8-4-3-7(8)5-9(8)6(1)7/h6H,1-5H2	InChI=1S/C8H11N/c1-2-8-4-3-7(8)5-9(8)6(1)7/h6H,1-5H2/t6-,7-,8-/m0/s1
