19
gdb 109044	2.67593	1.46425	1.03195	4.0758	76.97	-0.2106	0.0259	0.2364	1173.235	0.159818	-419.196597	-419.187864	-419.18692	-419.230216	32.43	
C	-0.0996305717	 1.402221254	 0.039884082	-0.345394
N	 0.0253178155	-0.0238342348	 0.2253934262	-0.080603
C	-1.1013731178	-0.9168041577	 0.1525033744	-0.037023
C	-1.2444804432	-1.727191208	-1.1149749026	-0.315633
C	-0.4350109668	-2.2854902976	 0.038262583	-0.00486
N	 0.9882824505	-2.0572974571	 0.0202509336	-0.346824
C	 1.1609247229	-0.779606348	 0.0649643385	 0.338703
C	 2.5463378918	-0.193615942	-0.0190452978	-0.132713
O	 3.5092900251	-1.2079079293	-0.0971398588	-0.422891
H	 0.8478576564	 1.8944621289	 0.2699599296	 0.144228
H	-0.3916352215	 1.6696435214	-0.9864152775	 0.126405
H	-0.8583954205	 1.8011775331	 0.7218457956	 0.134023
H	-1.9563628873	-0.6679083966	 0.7725819442	 0.099697
H	-2.2135928346	-2.18180729	-1.2872650478	 0.117586
H	-0.7160731318	-1.4074969995	-2.0073604077	 0.115947
H	-0.7833632115	-3.1736791377	 0.5514770755	 0.100643
H	 2.6072630984	 0.4712005547	-0.8973392282	 0.104574
H	 2.7251938203	 0.4413329826	 0.8640632654	 0.108642
H	 3.0034672258	-2.0376715665	-0.1019460575	 0.295492
86.6693	97.7693	154.898	178.3757	212.7539	299.6734	377.0651	388.0147	442.3254	508.6024	604.5693	644.5647	718.6041	755.3944	813.0657	838.1037	944.17	957.8333	1019.8413	1041.6089	1045.9279	1082.0272	1095.6279	1111.6203	1134.9142	1151.2205	1183.7703	1202.7576	1256.0816	1274.4355	1321.9001	1326.0299	1372.5335	1423.5373	1462.3634	1473.5119	1483.77	1499.2565	1511.7021	1533.0086	1648.7209	2962.7693	2979.0885	2994.1587	3065.7231	3124.2976	3128.5512	3156.5342	3181.4619	3223.408	3657.2261
CN1C2CC2N=C1CO	CN1[C@H]2C[C@H]2N=C1CO	
InChI=1S/C6H10N2O/c1-8-5-2-4(5)7-6(8)3-9/h4-5,9H,2-3H2,1H3	InChI=1S/C6H10N2O/c1-8-5-2-4(5)7-6(8)3-9/h4-5,9H,2-3H2,1H3/t4-,5+/m1/s1
