20
gdb 105485	1.89075	1.71879	1.13164	5.0057	74.34	-0.2427	0.0205	0.2632	1162.4684	0.171227	-440.309582	-440.300387	-440.299443	-440.344021	33.897	
C	 0.1550925171	 1.6050924336	-0.1182163015	-0.388506
C	 0.0413819397	 0.0943495261	 0.1118122666	-0.247455
C	-1.3721140652	-0.4943948027	-0.0013053281	 0.178112
C	-1.9888909015	-0.4713576322	-1.4382954791	-0.277613
C	-1.7149426309	-1.9925035023	-1.4969438099	-0.159209
N	-1.4043779889	-1.9939199177	-0.0399144486	-0.378812
H	-0.5272763407	-2.4390434828	 0.2125461677	 0.226654
H	-2.6512716277	-1.7788284824	 1.2999608581	 0.302041
C	-2.3247733848	 0.0274131934	 1.0903709564	 0.399735
O	-2.496420668	 1.1953075248	 1.3309484548	-0.350737
O	-2.9730825744	-0.9507624804	 1.7315692981	-0.371403
H	 1.2023923559	 1.9151102511	-0.0513418375	 0.109461
H	-0.2085825804	 1.8834396874	-1.1128790428	 0.114334
H	-0.4294197925	 2.1578809017	 0.6167555902	 0.16408
H	 0.6699458567	-0.4340041541	-0.6182499162	 0.091801
H	 0.4405557335	-0.159195687	 1.1032818628	 0.107417
H	-3.0455780639	-0.2017907179	-1.461335221	 0.130612
H	-1.4527872861	 0.1422318276	-2.1625039315	 0.120319
H	-2.5554088715	-2.6394751122	-1.7628517013	 0.118201
H	-0.8597008164	-2.254612494	-2.128632157	 0.110967
50.5549	110.733	121.8721	197.025	209.3479	249.7077	290.2566	355.2028	396.7943	465.5138	572.2257	700.7578	746.7504	756.0701	788.9603	799.7872	887.9649	898.0917	946.8062	955.8638	989.9445	1007.5563	1027.7418	1044.0475	1120.1431	1158.622	1180.0909	1189.294	1213.9026	1242.7094	1259.6927	1321.7329	1331.1107	1366.7771	1376.646	1415.8564	1447.3183	1482.5359	1490.1482	1493.9957	1512.2607	1523.0824	1852.5821	3005.1801	3038.8479	3041.3261	3046.0532	3086.8747	3091.0049	3102.2717	3144.4897	3159.438	3381.86	3514.4383
CCC1(CC[NH2+]1)C([O-])=O	CC[C@]1(CCN1)C(=O)O	
InChI=1S/C6H11NO2/c1-2-6(5(8)9)3-4-7-6/h7H,2-4H2,1H3,(H,8,9)	InChI=1S/C6H11NO2/c1-2-6(5(8)9)3-4-7-6/h7H,2-4H2,1H3,(H,8,9)/t6-/m0/s1
