20
gdb 115098	2.66901	1.31176	1.03959	1.2596	74.91	-0.2496	0.0201	0.2697	1204.131	0.171908	-440.29729	-440.288343	-440.287398	-440.330923	33.485	
C	-0.1265711144	 1.5848799253	-0.068672032	-0.398586
C	-0.0150252377	 0.0534653886	-0.0190905093	-0.046635
C	 0.8213276957	-0.4976845338	-1.1906620045	-0.166431
N	 2.2645075164	-0.334680521	-1.019155655	-0.262207
C	 2.7082238708	-0.1381820857	 0.1459353586	 0.126773
O	 2.0298681262	-0.0852508622	 1.3212148512	-0.258627
C	 0.6361469457	-0.4757877221	 1.2650853178	 0.117911
C	 0.0348188622	-0.0124446031	 2.5850365406	-0.086905
O	 0.6604462281	-0.6382455345	 3.6875120011	-0.422473
H	 0.8505751456	 2.0638725534	 0.0425163554	 0.134691
H	-0.5430003995	 1.8994657989	-1.0304617807	 0.118738
H	-0.7819029889	 1.9724706669	 0.7162510051	 0.119974
H	-1.0237067888	-0.3744882734	-0.0770568515	 0.081588
H	 0.6127464329	-1.56495391	-1.3408016139	 0.111909
H	 0.5386828828	 0.00150234	-2.1245172758	 0.110038
H	 3.7692295864	 0.0316931532	 0.3218017685	 0.123812
H	 0.6138801978	-1.5741390891	 1.2539811152	 0.094316
H	 0.097704005	 1.0829883118	 2.6570613286	 0.098467
H	-1.0231749917	-0.2936758546	 2.6171784103	 0.111748
H	 1.6034699754	-0.4563922987	 3.6050723602	 0.2919
108.8055	114.559	148.1015	175.8164	201.9793	295.24	342.9048	391.6145	411.4156	462.3484	507.7242	561.556	653.052	789.6116	828.572	880.3692	919.3161	950.8345	968.5906	975.934	994.4639	1069.4794	1085.8612	1117.2201	1136.6528	1148.7973	1165.3681	1237.7845	1255.8822	1291.1275	1326.0403	1356.5574	1371.6443	1385.9899	1404.9742	1407.5331	1419.9738	1436.7194	1485.6018	1494.4046	1500.6096	1503.9618	1738.4638	2999.2439	3015.696	3018.3387	3034.3616	3044.0036	3056.3777	3079.4798	3109.3253	3118.4645	3155.1746	3804.9604
CC1CN=COC1CO	C[C@H]1CN=CO[C@H]1CO	
InChI=1S/C6H11NO2/c1-5-2-7-4-9-6(5)3-8/h4-6,8H,2-3H2,1H3	InChI=1S/C6H11NO2/c1-5-2-7-4-9-6(5)3-8/h4-6,8H,2-3H2,1H3/t5-,6-/m0/s1
