23
gdb 104605	2.79102	0.93224	0.89009	1.8053	81.58	-0.2612	0.0781	0.3393	1480.785	0.203609	-425.412043	-425.401576	-425.400632	-425.447802	38.915	
C	-0.1400145201	 1.6333886292	-0.2375084878	-0.377608
C	-0.0785888459	 0.1165626082	-0.0097082269	 0.030806
C	-1.4866695597	-0.4943690466	-0.0235253851	-0.390386
C	 0.8093257839	-0.596511658	-1.0516206429	-0.26906
C	 2.2745744198	-0.2035439187	-1.0829306331	 0.373126
C	 3.0881292133	-0.4064539054	 0.1919227853	-0.133938
O	 4.3928011512	 0.1162950392	 0.0764552463	-0.419778
C	 2.9952810585	-0.1862251711	-2.3629572335	-0.229976
O	 2.5907739151	 1.0445579002	-1.7363285043	-0.286395
H	 0.8482858115	 2.0969309426	-0.1944539971	 0.128829
H	-0.5624843779	 1.8603637799	-1.2234078497	 0.113191
H	-0.7755841392	 2.1110718045	 0.5155680861	 0.106278
H	 0.3450866714	-0.0621904235	 0.9876689859	 0.077308
H	-1.9639345475	-0.354951274	-1.0010810355	 0.113288
H	-1.4612903389	-1.5694491298	 0.1844515865	 0.108581
H	-2.1275631948	-0.0218444433	 0.727757219	 0.111892
H	 0.7595373153	-1.6808739282	-0.8792172852	 0.099232
H	 0.3894604953	-0.4224378487	-2.0501091512	 0.101176
H	 2.5534817314	 0.0495983621	 1.0398081314	 0.097145
H	 3.179896351	-1.4781248972	 0.40353033	 0.114014
H	 4.2843514298	 0.9844672657	-0.3354211417	 0.290933
H	 4.067825268	-0.3612892408	-2.3734193538	 0.128066
H	 2.4625569285	-0.4289727364	-3.2807622326	 0.113276
39.2284	92.3348	119.342	170.5988	228.303	244.5345	266.2976	312.3194	322.0506	352.2717	376.8036	420.4708	469.8153	496.059	605.6411	718.7983	807.7508	830.0241	882.2491	907.8726	932.5328	948.9014	971.6702	979.3537	1047.3852	1089.5221	1107.5541	1132.7332	1143.8033	1174.6524	1195.8832	1220.5922	1249.1378	1278.4656	1319.1486	1362.6083	1369.9137	1376.4712	1404.5942	1420.4733	1432.0678	1439.6096	1466.1215	1485.559	1494.0076	1504.5656	1506.6873	1508.0987	1518.0091	2981.021	3010.2211	3013.8684	3023.8932	3033.0448	3057.1002	3061.6971	3088.8671	3095.1852	3096.0173	3100.5108	3123.356	3192.0252	3754.5237
CC(C)CC1(CO)CO1	CC(C)C[C@@]1(CO)CO1	
InChI=1S/C7H14O2/c1-6(2)3-7(4-8)5-9-7/h6,8H,3-5H2,1-2H3	InChI=1S/C7H14O2/c1-6(2)3-7(4-8)5-9-7/h6,8H,3-5H2,1-2H3/t7-/m1/s1
