24
gdb 60421	4.26796	0.56339	0.5128	3.3615	87.01	-0.2427	0.0361	0.2788	2189.2787	0.215054	-405.602269	-405.590499	-405.589555	-405.64121	41.398	
C	-0.0786324908	 1.5785349504	-0.0124898116	-0.388049
C	 0.0120869603	 0.0468248869	 0.0238748908	 0.042331
C	 0.922301235	-0.4112374476	 1.1722781225	-0.382184
C	-1.3944917458	-0.5752399228	 0.1038868713	-0.172972
C	-1.4337982478	-2.099116381	-0.0505022491	-0.175895
C	-2.8589404702	-2.6572132956	-0.0426772177	-0.315024
C	-2.8894849094	-4.1850672384	-0.0401135037	 0.406139
N	-4.0290505398	-4.7365225568	-0.5570921046	-0.522546
O	-1.9802927897	-4.8668864232	 0.3917175363	-0.357639
H	 0.9135079894	 2.0331755509	-0.1030344624	 0.108122
H	-0.6850999869	 1.924540967	-0.856353695	 0.106156
H	-0.536539499	 1.9652145379	 0.9062088908	 0.109583
H	 0.4677035478	-0.2850692124	-0.92081717	 0.070161
H	 1.0622664268	-1.4957142281	 1.1808774312	 0.121435
H	 1.9127319358	 0.0490788517	 1.0920330871	 0.108108
H	 0.5005403125	-0.1207601163	 2.142493239	 0.108517
H	-1.8549764396	-0.292337504	 1.0624263125	 0.086565
H	-2.0214558064	-0.1203952177	-0.6759665692	 0.082714
H	-0.9396187446	-2.3882276675	-0.9869342276	 0.099435
H	-0.8757667125	-2.5936371526	 0.7488061086	 0.128462
H	-3.383973226	-2.322768852	 0.8636416584	 0.124239
H	-3.4383428679	-2.2693559696	-0.8898646208	 0.09903
H	-4.8176042481	-4.1763318364	-0.8287006085	 0.25518
H	-4.1497197234	-5.7332459727	-0.4794552584	 0.258134
20.0445	51.5038	77.8467	101.0731	126.5439	164.9623	217.1165	234.3187	252.9282	264.0781	382.227	398.2928	437.9178	483.3819	520.4592	615.5746	665.2547	744.179	806.393	852.7405	868.5165	927.4001	953.3092	966.9457	1005.4499	1039.1492	1067.6221	1084.9196	1133.3389	1149.4539	1192.2917	1218.588	1246.1226	1298.4997	1306.9455	1324.6166	1357.6651	1372.0815	1391.0368	1400.6485	1407.599	1422.9978	1464.1828	1477.7578	1489.2975	1494.6983	1503.0631	1505.2087	1512.3095	1616.8524	1797.6188	2989.8711	2996.2793	3011.3195	3021.1579	3025.4232	3027.7778	3036.5194	3051.5832	3085.0842	3091.4214	3096.6392	3101.9822	3112.2695	3600.2607	3737.142
CC(C)CCCC(N)=O	CC(C)CCCC(=O)N	
InChI=1S/C7H15NO/c1-6(2)4-3-5-7(8)9/h6H,3-5H2,1-2H3,(H2,8,9)	InChI=1S/C7H15NO/c1-6(2)4-3-5-7(8)9/h6H,3-5H2,1-2H3,(H2,8,9)
