18
gdb 70373	2.42297	1.53972	1.34859	0.9928	78.1	-0.2183	0.0393	0.2576	1050.6846	0.145062	-401.858787	-401.849742	-401.848797	-401.891767	35.197	
C	-0.0910246233	 1.5694263393	 0.0163357627	-0.437903
C	 0.0150496402	 0.0451548444	 0.0467640121	 0.019043
N	 1.1258767077	-0.5185626528	-0.8372680757	-0.366614
C	 1.6527989158	-1.28982761	 0.3133150399	-0.051858
C	 2.171351637	-0.3021183511	 1.3246174909	-0.349768
C	 0.697109285	-0.6315798734	 1.2738215455	 0.344171
O	 0.0085729751	-1.1647890741	 2.3410719048	-0.451057
C	-1.2681398731	-0.5773099816	-0.2501222708	 0.336499
C	-2.3266576767	-1.0751901558	-0.5293605665	-0.458324
H	 0.8795589234	 2.0244669495	 0.225985754	 0.120372
H	-0.4229442212	 1.9076495502	-0.9691126395	 0.130745
H	-0.8179134013	 1.9159813117	 0.7578283402	 0.119676
H	 0.7094783803	-1.1416243108	-1.5234608443	 0.227146
H	 2.0028767539	-2.3098302183	 0.2216328787	 0.104164
H	 2.6677578895	-0.7481204835	 2.1812967224	 0.115457
H	 2.5733253291	 0.6501279392	 0.990786503	 0.114497
H	 0.0062010523	-0.5200264454	 3.0576678996	 0.288332
H	-3.2604335537	-1.5232779276	-0.7639338369	 0.195422
124.8172	130.0522	206.3037	209.6802	242.5664	274.1367	338.7105	376.418	446.0058	466.4386	516.8613	542.2841	626.016	637.1513	644.6265	670.3994	790.0152	822.4264	869.6673	915.7989	941.3863	970.0919	979.8377	1021.9862	1056.1701	1081.7428	1126.9638	1143.6793	1202.3664	1231.7265	1268.0875	1313.9899	1363.8201	1400.5773	1415.5647	1481.0827	1486.3286	1497.1295	2229.4322	3043.659	3114.4974	3116.0302	3130.0026	3198.5915	3210.7691	3501.5474	3512.6897	3784.7003
CC1(NC2CC12O)C#C	C[C@]1(N[C@H]2C[C@@]12O)C#C	
InChI=1S/C7H9NO/c1-3-6(2)7(9)4-5(7)8-6/h1,5,8-9H,4H2,2H3	InChI=1S/C7H9NO/c1-3-6(2)7(9)4-5(7)8-6/h1,5,8-9H,4H2,2H3/t5-,6-,7-/m0/s1
