14
gdb 35624	2.16582	1.84308	1.12786	5.402	71.6	-0.2563	-0.0092	0.2471	1034.7889	0.101653	-395.70623	-395.698268	-395.697324	-395.739202	29.073	
C	-0.1845196248	-1.2138730826	 0.2180887674	-0.456947
C	-0.0787170291	-0.0236229508	 0.0950124389	 0.359593
C	 0.0180752415	 1.4242554079	-0.0434862028	-0.196059
N	-0.6352153278	 2.1418597681	 1.0720059909	-0.294912
C	 0.3774321734	 2.5790010918	 1.9081403016	 0.076736
N	 1.5732077073	 2.5679547331	 1.4622030838	-0.236267
C	 1.480588889	 2.0249952436	 0.0937330534	-0.129806
C	 2.5540620572	 1.0754459549	-0.2026188053	 0.306273
N	 3.4034445451	 0.3392113125	-0.4663743732	-0.321616
H	-0.2542117716	-2.2690941205	 0.3216362274	 0.216179
H	-0.4172458878	 1.7309737536	-0.9984345905	 0.131956
H	-1.4395016891	 1.6942084031	 1.4900066116	 0.257594
H	 0.1189467287	 2.9592728657	 2.8919281152	 0.143219
H	 1.575667178	 2.8579450697	-0.6149996583	 0.144056
63.9992	113.0137	180.9071	196.9134	281.4001	417.1437	460.238	478.0162	573.4213	587.9165	627.5116	650.0337	680.4578	776.7203	824.8337	874.2401	941.7027	978.4032	1023.6246	1051.2516	1073.2909	1130.0673	1230.1173	1267.5683	1323.3606	1343.1825	1361.5267	1426.844	1689.9862	2239.1465	2370.802	3024.4768	3069.5357	3193.9743	3499.928	3595.1114
C#CC1NC=NC1C#N	C#C[C@H]1N[CH][N][C@H]1C#N	
InChI=1S/C6H5N3/c1-2-5-6(3-7)9-4-8-5/h1,4-6H,(H,8,9)	InChI=1S/C6H5N3/c1-2-5-6(3-7)9-4-8-5/h1,4-6H,(H,8,9)/t5-,6+/m1/s1
