14
gdb 21215	3.56847	1.87332	1.24213	0.7791	60.44	-0.1941	0.0136	0.2077	921.4256	0.108506	-412.033997	-412.026017	-412.025072	-412.066496	27.912	
C	-0.0749767296	 1.4763150054	-0.0872094501	-0.316628
N	 0.192766383	 0.0588792598	 0.0988983237	-0.389046
C	 0.6624149432	-0.6612244588	-0.9818747517	 0.326341
N	 1.1733010538	-0.1191874619	-2.0848608655	-0.295882
N	 1.5189744839	-1.1814669505	-2.8243045613	-0.111506
N	 1.2999140587	-2.3778138315	-2.270282973	-0.297472
C	 0.7449244212	-2.0697543803	-1.1124796671	 0.297586
O	 0.3058279632	-2.9689965632	-0.2050611971	-0.43841
H	 0.8503915471	 1.9862327647	-0.3671028337	 0.147799
H	-0.8176938328	 1.6810272315	-0.8727449561	 0.116636
H	-0.4294069835	 1.8947202647	 0.8575033693	 0.119676
H	-0.5164445939	-0.4385505997	 0.6174171453	 0.246568
H	 2.0588821404	-1.0829412067	-3.665284879	 0.286204
H	 0.4712006951	-3.8501765736	-0.5612887739	 0.308134
92.196	132.5178	163.0594	189.0244	285.5522	312.3483	325.1179	424.6193	518.9966	581.0469	667.606	678.2206	755.048	816.3439	966.4904	1080.1662	1136.056	1160.4597	1161.8725	1191.9686	1260.8159	1287.7083	1431.2458	1453.4083	1475.533	1481.42	1501.4598	1523.6536	1613.6171	1640.8385	2993.8701	3087.0906	3130.1604	3600.2646	3701.3354	3807.277
CNC1=NNN=C1O	CNc1n[nH]nc1O	
InChI=1S/C3H6N4O/c1-4-2-3(8)6-7-5-2/h1H3,(H3,4,5,6,7,8)	InChI=1S/C3H6N4O/c1-4-2-3(8)6-7-5-2/h1H3,(H3,4,5,6,7,8)
