18
gdb 43878	4.39325	1.09254	1.03459	3.577	76.23	-0.2372	-0.0179	0.2194	1177.7004	0.147237	-401.90584	-401.89815	-401.897206	-401.938519	30.25	
O	 0.0146364147	-0.0114203235	-0.2974311864	-0.289952
C	-0.0167675836	 1.1505899647	-0.0146670665	 0.404118
C	-1.1358892285	 2.1363891532	 0.3503723642	-0.404902
C	-0.0371655575	 3.1474255344	 0.782149527	 0.37863
C	-0.0660759819	 4.6724610908	 0.4252510501	-0.314775
C	 0.0560767926	 4.9852600012	 1.9199096528	-0.031088
N	-1.1172572881	 4.3489449798	 2.5692336609	-0.336376
C	 0.0861341793	 3.5384684306	 2.2601188821	-0.129824
C	 1.0687511888	 2.2242705611	 0.1918844316	-0.432048
H	-1.7038803659	 2.4518920471	-0.5320697287	 0.13027
H	-1.8448127745	 1.8151010188	 1.1177160319	 0.137847
H	 0.8122848407	 4.9732099789	-0.1517238747	 0.104991
H	-0.973054964	 5.0456453504	-0.057913222	 0.108684
H	 0.5601699113	 5.8223366527	 2.3861821589	 0.096294
H	-1.073030754	 4.5811920161	 3.5616402282	 0.229424
H	 0.6180327026	 3.0053794969	 3.0401474134	 0.093079
H	 1.9018649826	 1.9469395966	 0.84497908	 0.126694
H	 1.4795589453	 2.5776813601	-0.7605890229	 0.128933
44.5365	131.611	233.2274	321.6973	379.8117	395.2123	432.5989	478.6519	555.1672	663.1833	709.4809	761.5771	810.3204	832.5438	837.7685	890.6477	908.0136	931.2903	967.8352	997.4782	1026.1656	1054.0772	1086.5213	1095.0922	1109.2137	1140.7352	1157.8051	1176.6121	1206.4957	1220.9468	1241.253	1264.6963	1305.3016	1334.2445	1380.5827	1422.865	1442.1744	1471.3666	1894.1679	3043.6523	3051.9311	3056.599	3098.9755	3111.6889	3114.3129	3174.9156	3195.9398	3468.3766
O=C1CC2(CC3NC23)C1	O=C1CC2(C[C@H]3N[C@@H]23)C1	
InChI=1S/C7H9NO/c9-4-1-7(2-4)3-5-6(7)8-5/h5-6,8H,1-3H2	InChI=1S/C7H9NO/c9-4-1-7(2-4)3-5-6(7)8-5/h5-6,8H,1-3H2/t5-,6-/m1/s1
