16
gdb 40489	3.89695	1.36133	1.22845	2.4255	68.77	-0.2418	0.0494	0.2912	1022.8524	0.123977	-437.733517	-437.726532	-437.725588	-437.765414	27.058	
O	-0.3218839049	 1.1632118679	-0.1883554253	-0.227996
C	 1.0490155177	 1.1592432083	 0.2157334363	-0.17452
C	 0.284572567	-0.0912118178	 0.127140078	-0.12031
C	-0.2068950003	-0.7718477611	 1.3468395969	 0.527819
O	-0.2203559	-0.079728857	 2.6291008457	-0.352791
C	-0.7468156664	-1.4002858615	 2.9505334296	 0.064019
C	-1.5371661749	-1.5539202085	 1.6113504924	-0.121914
N	-0.9099646883	-2.856280579	 1.2125203749	-0.349972
C	 0.189667583	-2.1588811576	 1.9532268382	-0.130066
H	 1.7704115868	 1.4003815496	-0.5634729495	 0.117615
H	 1.2436065208	 1.585411589	 1.1971642442	 0.137145
H	 0.4356971056	-0.7578283095	-0.7217500871	 0.116093
H	-1.0258214284	-1.6149756242	 3.9825675733	 0.100274
H	-2.5581973372	-1.2634609638	 1.3657670804	 0.103234
H	-1.2886842055	-3.6197835652	 1.7778785186	 0.215833
H	 1.183590465	-2.5784042496	 2.1120038832	 0.095537
69.8097	156.9746	180.8108	311.7736	430.044	544.8503	549.5307	644.0175	761.9371	774.827	810.6628	853.7735	862.1503	876.2084	895.9254	914.4522	947.0215	981.0248	1034.5687	1050.1683	1095.0498	1104.4175	1122.0869	1136.5223	1152.1377	1159.4637	1168.5174	1207.4011	1232.6455	1275.2665	1292.1242	1300.0541	1351.653	1464.0882	1524.06	3092.2993	3111.9686	3119.297	3122.2901	3135.1148	3188.5785	3414.0976
O1CC1C12OC3C1NC23	O1C[C@H]1[C@@]12O[C@H]3[C@@H]1N[C@@H]23	
InChI=1S/C6H7NO2/c1-2(8-1)6-4-3(9-6)5(6)7-4/h2-5,7H,1H2	InChI=1S/C6H7NO2/c1-2(8-1)6-4-3(9-6)5(6)7-4/h2-5,7H,1H2/t2-,3-,4-,5+,6+/m0/s1
