23
gdb 92630	3.54938	1.12113	0.94372	1.4513	84.54	-0.2557	0.0698	0.3255	1311.7165	0.209202	-388.322975	-388.314684	-388.313739	-388.356031	33.319	
O	 0.1016736095	 1.3771130688	-0.2610333062	-0.43674
C	 0.0668807213	-0.0225820938	-0.038574929	 0.136797
C	 0.6093074489	-0.4753969066	 1.3299908766	-0.270174
C	-0.0040973921	-1.8732361547	 1.5395700581	 0.025602
C	-0.4526161263	-2.2488905545	 2.9692190055	-0.223245
C	-1.7578163308	-3.0384618392	 2.7644496288	-0.197099
C	-2.4580066108	-2.2717946735	 1.6285906569	-0.223527
C	-1.3150924684	-1.8937179382	 0.6612105749	 0.022841
C	-1.385111	-0.5125588973	-0.0177063209	-0.237689
H	 1.0232954456	 1.6518731253	-0.2895556095	 0.279558
H	 0.61547739	-0.5492340395	-0.8384354722	 0.059007
H	 1.7034414969	-0.4667900825	 1.3814575698	 0.082777
H	 0.2389312675	 0.2304957039	 2.0841770773	 0.099392
H	 0.6889369721	-2.6359693523	 1.1692476335	 0.065047
H	 0.3064281544	-2.8089732575	 3.5234459661	 0.090646
H	-0.6644663576	-1.3392055818	 3.5454039974	 0.093345
H	-1.5311873312	-4.0632123679	 2.4429342584	 0.093555
H	-2.3637934094	-3.1111668954	 3.6727876715	 0.091067
H	-3.2538084302	-2.8480811702	 1.1474445317	 0.091376
H	-2.9203028004	-1.3627019307	 2.0338852017	 0.093802
H	-1.2225275979	-2.672158353	-0.1035183515	 0.065242
H	-1.9645244172	 0.1939987137	 0.5896880668	 0.102335
H	-1.8364176538	-0.532341273	-1.0132459457	 0.096083
59.0514	116.8212	232.9148	260.9705	294.8314	381.0978	411.6149	462.1373	473.2965	579.534	582.2147	594.8148	764.3508	847.1565	855.2155	887.2224	912.5513	920.3211	936.4835	976.4458	996.9998	1043.5224	1045.7808	1049.0054	1060.934	1086.9929	1116.5622	1130.9099	1186.8969	1206.8328	1225.804	1238.343	1262.6067	1278.0487	1298.8635	1310.9963	1317.8495	1325.3265	1341.8895	1343.4336	1354.9376	1366.6613	1380.6045	1434.6032	1485.0514	1488.9322	1492.3189	1500.1214	1509.8228	2949.3569	3021.1918	3021.96	3023.8526	3028.2918	3030.1472	3035.7859	3044.9067	3073.9659	3080.8569	3082.9124	3089.2832	3096.896	3820.1489
OC1CC2CCCC2C1	O[C@H]1C[C@H]2CCC[C@H]2C1	
InChI=1S/C8H14O/c9-8-4-6-2-1-3-7(6)5-8/h6-9H,1-5H2	InChI=1S/C8H14O/c9-8-4-6-2-1-3-7(6)5-8/h6-9H,1-5H2/t6-,7+,8+
