21
gdb 123074	7.12212	0.44	0.42857	2.3486	85.69	-0.2483	0.0566	0.3049	2549.6934	0.1796	-424.192029	-424.180593	-424.179649	-424.231901	38.169	
C	 0.0768197224	 1.4042995181	 0.0985304561	-0.496474
C	 0.0287187462	-0.0489641765	 0.0215105804	 0.078074
C	 0.0022653227	-1.2508448322	-0.043094558	 0.035854
C	-0.0659658926	-2.70488099	-0.117733447	-0.352434
C	-1.5020873579	-3.2247935412	 0.0023948083	-0.043069
O	-1.4613229987	-4.6331219687	-0.0862167263	-0.257678
C	-2.7298286518	-5.2535386423	 0.0253907008	-0.071227
C	-2.4809150098	-6.753267251	 0.0606154324	-0.058478
O	-1.6599820273	-7.1130008454	 1.1534611768	-0.421055
H	 0.8330182149	 1.7403081034	 0.8166576436	 0.148217
H	 0.3224610929	 1.8479931704	-0.8726727412	 0.147498
H	-0.886660144	 1.8179972249	 0.4163896647	 0.147212
H	 0.35437666	-3.0625498863	-1.0656685429	 0.135341
H	 0.5362940047	-3.1594475468	 0.6787256748	 0.131771
H	-1.9419868097	-2.9066313815	 0.9603420992	 0.101699
H	-2.1240501982	-2.8030494493	-0.802276886	 0.100369
H	-3.2291739648	-4.9332561787	 0.9537068765	 0.096744
H	-3.3765127095	-4.9822210509	-0.8251284367	 0.088722
H	-3.4316989044	-7.2834427713	 0.1780167584	 0.108091
H	-2.0360224372	-7.0645109483	-0.8982071923	 0.092965
H	-0.9077934079	-6.5101606964	 1.1210515583	 0.287858
14.7667	33.5125	60.7769	75.9985	112.8121	150.8504	198.3714	225.2741	273.4007	350.515	373.5249	393.9955	440.857	485.4921	567.1956	773.4236	796.9086	875.8144	907.3894	1040.0769	1051.5053	1053.2857	1069.1822	1089.3655	1091.2324	1139.5328	1154.0821	1172.0595	1228.5914	1238.0627	1265.235	1301.3424	1313.9042	1383.658	1386.9697	1415.6141	1434.0294	1445.6414	1478.6706	1479.3372	1479.4712	1499.4274	1503.4528	1531.0427	2376.6659	2964.9728	2976.9712	2979.7235	3008.5196	3010.5439	3026.1514	3026.4204	3062.9461	3078.9592	3086.4739	3086.6624	3794.5377
CC#CCCOCCO	CC#CCCOCCO	
InChI=1S/C7H12O2/c1-2-3-4-6-9-7-5-8/h8H,4-7H2,1H3	InChI=1S/C7H12O2/c1-2-3-4-6-9-7-5-8/h8H,4-7H2,1H3
