18
gdb 41249	3.01721	2.06019	1.70005	1.4607	74.26	-0.2382	0.0653	0.3035	854.6231	0.151007	-401.841887	-401.835888	-401.834944	-401.87184	26.127	
C	 0.0248401663	 1.4907590804	-0.2619066005	-0.153556
O	 1.4254630347	 1.5890935021	 0.1556080807	-0.353569
C	 1.2707006947	 0.3559784001	 0.865784796	 0.403003
C	 1.9538173707	-0.9973358383	 1.0703687053	-0.243534
N	 0.7752173795	-1.2584180921	 2.0036330212	-0.165615
C	-0.5910239443	-0.7970204555	 1.3074934223	-0.030034
C	-0.735361274	 0.2294652525	 2.44326381	-0.249717
C	 0.7870507239	 0.2256516381	 2.3600374454	-0.05412
C	-0.0031383254	-0.0183352128	 0.1318909684	-0.063913
H	-0.6116038322	 2.1665453577	 0.3185819375	 0.109827
H	-0.084760838	 1.7020016816	-1.328556473	 0.113577
H	 2.0756434326	-1.6589619009	 0.2089773383	 0.107324
H	 2.8495174436	-1.0068252585	 1.6971650754	 0.116219
H	-1.3188888986	-1.5873232091	 1.134317117	 0.077971
H	-1.2970580896	 1.1438256508	 2.2472798758	 0.102805
H	-1.0706590373	-0.2331438356	 3.3738267899	 0.117883
H	 1.4587328236	 0.5545229743	 3.1537596728	 0.079218
H	 0.1730671498	-0.6420863048	-0.7467285825	 0.08623
235.545	295.0544	409.2556	447.7803	464.3057	543.3855	634.9985	686.1565	737.5937	771.4781	812.4052	880.1068	884.0349	901.1303	932.7767	946.407	983.1693	995.1057	1013.9729	1028.4113	1045.6013	1071.327	1102.8899	1130.9007	1153.4382	1154.5902	1172.562	1183.5978	1208.1099	1236.251	1254.4398	1268.3846	1291.052	1312.6771	1342.6381	1375.6484	1487.9824	1504.5984	1513.977	3041.5823	3057.0288	3077.517	3082.424	3105.6876	3112.9003	3120.8343	3134.728	3137.9663
C1OC23CN4C(CC24)C13	C1O[C@@]23CN4[C@@H](C[C@H]24)[C@@H]13	
InChI=1S/C7H9NO/c1-5-4-2-9-7(4)3-8(5)6(1)7/h4-6H,1-3H2	InChI=1S/C7H9NO/c1-5-4-2-9-7(4)3-8(5)6(1)7/h4-6H,1-3H2/t4-,5+,6-,7-/m1/s1
