22
gdb 76653	2.77565	0.97761	0.84967	3.8747	82.6	-0.2339	0.039	0.2728	1454.7657	0.192703	-404.378144	-404.367366	-404.366421	-404.414817	38.831	
C	 0.1858776159	 1.7216830546	-1.4985564102	-0.407417
C	-0.0258409014	 0.313667504	-0.9792487858	-0.02497
C	 1.1193494926	-0.5960447725	-0.5850510644	-0.051995
C	 2.5746680911	-0.1850900783	-0.6761053784	-0.404691
C	 0.1766194704	-0.0765092277	 0.4826151925	-0.057762
C	 0.6100299579	 0.9052771208	 1.5525308954	-0.311228
C	-0.5078275281	 1.6698861138	 2.2709309961	 0.38875
N	-1.6956380863	 1.7490456501	 1.603927594	-0.513863
O	-0.329869382	 2.1943083122	 3.3528615852	-0.368338
H	 1.0382626096	 2.222552015	-1.0345014134	 0.12214
H	 0.3657560373	 1.7093119728	-2.5790230011	 0.121368
H	-0.6939564066	 2.3491940421	-1.317170929	 0.115367
H	-0.8538209567	-0.1932192063	-1.4710849365	 0.080987
H	 0.9678390566	-1.6430655308	-0.8368620287	 0.084732
H	 2.7407337838	 0.8653994773	-0.4276372576	 0.117935
H	 3.1885804841	-0.7819802019	 0.0072526539	 0.121981
H	 2.9588556238	-0.3454105364	-1.6895074268	 0.118431
H	-0.5247512049	-0.818862123	 0.8580934281	 0.089041
H	 1.1734920091	 0.3961791767	 2.3410077499	 0.131392
H	 1.2871472866	 1.6663274457	 1.1518892977	 0.125842
H	-1.8481242139	 1.2743717832	 0.7322296455	 0.264984
H	-2.4572952488	 2.2363710586	 2.0457475536	 0.257315
32.9999	68.0738	111.1637	152.4223	161.1657	208.0065	216.6896	236.4478	272.4154	406.283	441.9194	478.5169	508.1938	559.7536	572.9334	685.8335	740.6974	776.107	855.9922	861.222	917.1881	960.4512	986.6433	1034.059	1046.3712	1086.6489	1110.5443	1135.2034	1152.8662	1164.7915	1190.6642	1235.8407	1270.4685	1302.2138	1347.2143	1379.0703	1397.0659	1420.1335	1426.859	1450.8533	1460.3189	1489.0182	1495.11	1503.6075	1514.8579	1604.2992	1798.5223	3033.1104	3036.2437	3058.2123	3087.8017	3089.4941	3091.2682	3106.6687	3115.2034	3123.2083	3125.1444	3140.0809	3606.5143	3746.0781
CC1C(C)C1CC(N)=O	C[C@H]1[C@@H](C)[C@H]1CC(=O)N	
InChI=1S/C7H13NO/c1-4-5(2)6(4)3-7(8)9/h4-6H,3H2,1-2H3,(H2,8,9)	InChI=1S/C7H13NO/c1-4-5(2)6(4)3-7(8)9/h4-6H,3H2,1-2H3,(H2,8,9)/t4-,5+,6-
