19
gdb 40817	3.7513	1.11773	0.9711	1.4834	77.02	-0.2477	0.0177	0.2655	1241.5165	0.160307	-422.99862	-422.990607	-422.989663	-423.031881	30.384	
C	 0.1586769803	 1.4563910372	-0.0554557757	-0.194592
O	 1.1054713989	 0.4203063494	-0.3230257919	-0.230442
C	-0.2257929605	 0.0431412765	 0.039972054	 0.087377
C	-0.4200799305	-0.7296793534	 1.3320968309	-0.097229
C	-0.1148026054	-2.2191083485	 1.0880900974	-0.090557
O	-0.1805679472	-2.9631462909	 2.289175782	-0.252291
C	 0.8239926673	-2.5913396964	 3.2131016743	-0.118329
C	 0.9971691762	-1.1033159025	 3.3315771376	-0.090559
C	 0.4227108117	-0.2496868867	 2.4886249694	-0.045739
H	 0.3463887748	 2.0409737684	 0.8425277893	 0.118117
H	-0.1579661544	 2.0367666598	-0.9213291307	 0.114942
H	-0.8045425542	-0.358841973	-0.7958308734	 0.091154
H	-1.4859428841	-0.6394232753	 1.5946965983	 0.094857
H	-0.8491402867	-2.6652054258	 0.4105648636	 0.105086
H	 0.8809374757	-2.3095793934	 0.6247676014	 0.10685
H	 0.5243904528	-3.0205014501	 4.176815628	 0.117357
H	 1.7902781702	-3.058061872	 2.9450243939	 0.101103
H	 1.6228530512	-0.7509115895	 4.1474379927	 0.094409
H	 0.5518099839	 0.8192911461	 2.626930319	 0.088486
48.888	102.1965	210.8907	225.2615	298.5227	360.919	415.2493	490.0934	506.5278	604.7878	697.4653	755.4141	820.0757	885.6807	899.4116	928.4632	965.8409	984.244	991.619	1019.8376	1037.0995	1086.9211	1106.9928	1121.6097	1151.9713	1160.9795	1176.2943	1221.8158	1246.1516	1284.6313	1295.92	1317.6381	1344.4436	1372.1529	1409.6211	1422.5081	1445.9625	1485.9472	1500.9738	1534.6622	1725.833	2933.7733	2976.8325	2989.3207	3048.6351	3072.6707	3082.3214	3090.0772	3156.4496	3173.3286	3181.75
C1OC1C1COCC=C1	C1O[C@H]1[C@H]1COCC=C1	
InChI=1S/C7H10O2/c1-2-6(4-8-3-1)7-5-9-7/h1-2,6-7H,3-5H2	InChI=1S/C7H10O2/c1-2-6(4-8-3-1)7-5-9-7/h1-2,6-7H,3-5H2/t6-,7-/m1/s1
