16
gdb 76027	2.62045	1.22248	1.06743	4.9363	78.94	-0.2353	0.0051	0.2404	1171.369	0.123417	-396.879298	-396.869866	-396.868922	-396.913124	34.959	
N	 0.1399612834	 1.443004255	-0.0315084979	-0.508612
C	 0.0241563028	 0.023642797	 0.0142532531	-0.002062
C	-0.441059259	-0.6598496886	 1.2801176219	-0.252073
C	-0.8820101062	 0.1034000353	 2.4115176752	 0.316214
N	-1.2379086767	 0.7028022659	 3.334886487	-0.343153
C	-1.3352064088	-0.7010940356	 0.0154829894	 0.029447
N	-2.4748341369	 0.1788500284	 0.0597829228	-0.553707
C	-1.4529614512	-1.9675313847	-0.654638524	 0.287568
C	-1.5574121485	-3.0138677965	-1.2412355828	-0.431845
H	 0.2324404112	 1.7539314132	-0.993607309	 0.237921
H	-0.7019889324	 1.8705533477	 0.3453002828	 0.258582
H	 0.82294377	-0.4962851984	-0.5037384974	 0.119494
H	 0.0482563718	-1.5923543502	 1.5371339905	 0.147404
H	-2.8503428229	 0.3070175904	-0.8746531313	 0.242532
H	-3.2149864603	-0.2131288434	 0.6340893004	 0.251896
H	-1.6552404362	-3.9391154455	-1.7534211007	 0.200394
100.6445	125.1267	153.1125	167.7264	228.9617	254.5965	307.4784	349.9545	391.4237	454.2116	486.2799	542.5226	586.7005	619.8212	629.7121	666.0939	724.889	801.4193	811.8885	853.3588	908.6681	998.7378	1027.7062	1106.0623	1139.8017	1188.1941	1250.4681	1285.1984	1295.8593	1358.0464	1453.2661	1658.7597	1669.1144	2221.5455	2353.1888	3174.0696	3184.0207	3493.165	3499.64	3499.9206	3574.9018	3577.6995
NC1C(C#N)C1(N)C#C	N[C@H]1[C@@H](C#N)[C@]1(N)C#C	
InChI=1S/C6H7N3/c1-2-6(9)4(3-7)5(6)8/h1,4-5H,8-9H2	InChI=1S/C6H7N3/c1-2-6(9)4(3-7)5(6)8/h1,4-5H,8-9H2/t4-,5+,6-/m1/s1
