20
gdb 80914	2.68712	1.43453	1.26855	1.4243	79.47	-0.2357	0.0624	0.2981	1095.6797	0.170479	-403.0651	-403.056477	-403.055533	-403.097741	33.923	
C	 0.0153483972	 1.4698878036	 0.0171735194	-0.524461
C	 0.0181221974	-0.0333235261	 0.014298647	 0.17697
C	 0.5988875464	-1.0049508583	-1.0769838756	-0.302574
C	 0.0156404388	-1.9557639822	 0.0168194118	-0.185924
C	 0.6374466775	-1.0027389273	 1.0878655753	 0.161345
O	 2.0110193281	-0.9962130183	 1.3575706468	-0.456891
C	-1.1828605027	-0.9981477617	 0.0479079219	 0.434178
C	-2.4850448792	-0.9742982543	 0.7241227041	-0.36021
N	-2.3771673165	-1.048453398	-0.7675102443	-0.406895
H	 1.0385824537	 1.8592194147	 0.0386292162	 0.129727
H	-0.4771103484	 1.8750561124	-0.8744269682	 0.116866
H	-0.5057716268	 1.8593512512	 0.898922497	 0.123163
H	 0.0873272327	-1.0118123228	-2.041597398	 0.108892
H	 1.6832032544	-1.0014897102	-1.2282761229	 0.074387
H	-0.0018150831	-3.0448746037	 0.0136400046	 0.080361
H	 0.1401561435	-0.9940792777	 2.0610206457	 0.084985
H	 2.4986350247	-1.1018098052	 0.534585469	 0.282378
H	-2.8906257045	-1.8687612246	 1.1892916668	 0.122635
H	-2.827470832	-0.0416414663	 1.1667638663	 0.112312
H	-2.5785576012	-0.133807525	-1.1675262429	 0.228757
154.2865	169.0134	180.9894	206.1777	233.1759	272.6998	342.2219	367.9792	478.5447	492.5748	596.833	641.1309	680.0092	722.645	816.4654	862.0022	893.4475	909.2172	927.9552	948.1549	971.0172	999.4899	1036.5124	1044.5861	1072.0932	1108.5584	1137.2051	1145.5785	1172.6636	1189.3515	1194.3614	1237.1556	1244.723	1258.357	1283.392	1334.8861	1408.559	1431.6024	1460.7206	1487.1357	1488.919	1516.7681	1545.1087	3024.0973	3044.7114	3085.9663	3088.0314	3097.2421	3102.0379	3115.0972	3127.9506	3185.3079	3477.0414	3819.7707
CC12CC(C1O)C21CN1	C[C@@]12C[C@@H]([C@H]1O)[C@]12CN1	
InChI=1S/C7H11NO/c1-6-2-4(5(6)9)7(6)3-8-7/h4-5,8-9H,2-3H2,1H3	InChI=1S/C7H11NO/c1-6-2-4(5(6)9)7(6)3-8-7/h4-5,8-9H,2-3H2,1H3/t4-,5+,6+,7-/m0/s1
