16
gdb 22211	3.64938	0.93864	0.75005	4.4572	73.48	-0.2574	-0.0519	0.2055	1429.3771	0.123192	-471.203838	-471.194441	-471.193497	-471.238663	33.083	
C	 0.0509829508	 1.6537512464	-0.1140014304	-0.485441
C	 0.1210039509	 0.1579339698	-0.0997639877	 0.346879
N	 0.2291844661	-0.5610487023	 0.9567755549	-0.197661
O	 0.276117706	 0.2021141221	 2.1141796559	-0.381825
C	 0.0643425986	-0.596881536	-1.3869530509	 0.324458
N	-0.0427577086	 0.0339020778	-2.4862245217	-0.507882
N	 0.1401650928	-1.9918447046	-1.2231234988	-0.350988
C	 0.1130661111	-2.9310830129	-2.2176120907	 0.164494
O	 0.0185506689	-2.7072598987	-3.4050657433	-0.305229
H	 0.9461416019	 2.0739722938	 0.3552935497	 0.146496
H	-0.0377642218	 2.0106774388	-1.138112516	 0.169259
H	-0.8042497704	 1.9932387554	 0.4788281699	 0.146503
H	 0.3561054401	-0.4624000135	 2.8078795035	 0.312852
H	-0.0683594677	-0.6193336508	-3.2703295965	 0.258421
H	 0.222630708	-2.3010759601	-0.2631791802	 0.263964
H	 0.1895251334	-3.9558054953	-1.8070785177	 0.095699
73.8193	87.4195	94.3188	171.202	241.4179	257.6098	280.2898	322.6852	388.5243	407.0698	496.6036	538.8891	601.1405	685.5715	729.951	763.675	927.1127	961.7764	968.2899	1029.3475	1031.9183	1060.4834	1070.9314	1191.4842	1230.3575	1361.0834	1394.9795	1408.7606	1438.7921	1477.5372	1484.907	1521.1291	1704.2524	1710.3494	1804.5613	2955.7294	3050.0646	3103.9419	3177.7608	3482.8123	3576.7027	3809.7926
CC(=NO)C(=N)NC=O	CC(=NO)C(=N)NC=O	
InChI=1S/C4H7N3O2/c1-3(7-9)4(5)6-2-8/h2,9H,1H3,(H2,5,6,8)	InChI=1S/C4H7N3O2/c1-3(7-9)4(5)6-2-8/h2,9H,1H3,(H2,5,6,8)
