16
gdb 61081	2.80336	1.06357	0.84365	3.4323	75.79	-0.2541	-0.0608	0.1933	1339.2214	0.122323	-434.088914	-434.0794	-434.078456	-434.123328	33.848	
C	-0.3509233568	 1.9765945874	 0.3774841989	-0.409417
C	-0.2128477028	 0.585963373	-0.2343233986	-0.048513
C	 0.7669869296	-0.2827957663	 0.5502624411	 0.165776
O	 1.4341028639	-1.1584598138	 0.0478511022	-0.260807
N	-1.5159676483	-0.0870756347	-0.2117196478	-0.294035
C	-1.6678276835	-1.1263576953	-0.9492749748	 0.271945
N	-0.753942162	-1.7492871515	-1.7573529579	-0.552506
C	-2.9981320839	-1.710936771	-0.987345394	 0.276401
N	-4.0432535284	-2.2010106736	-1.0407071458	-0.315281
H	 0.6056626293	 2.5089677032	 0.3668273908	 0.119215
H	-1.0814152814	 2.5597799524	-0.1877635184	 0.138931
H	-0.7049521331	 1.9054643578	 1.4103977231	 0.134545
H	 0.1744810302	 0.6504111034	-1.2630881305	 0.102071
H	 0.8017305004	-0.0977826105	 1.6445104362	 0.106949
H	 0.2253404172	-1.6551976003	-1.5102577876	 0.289309
H	-1.0243462804	-2.6196190802	-2.186548507	 0.275416
88.9755	128.6333	139.617	142.2406	209.3275	232.0608	287.9857	317.1567	364.2772	436.0751	484.6766	513.1239	547.7387	593.759	628.1159	729.022	860.6452	879.7248	923.4029	970.4426	1092.1027	1132.1161	1144.3342	1159.9516	1288.566	1357.9898	1367.333	1406.7974	1414.996	1485.847	1495.152	1647.3109	1694.4256	1795.4234	2360.5221	2918.735	2987.2452	3042.7633	3115.6022	3130.6159	3504.0276	3674.7451
CC(C=O)N=C(N)C#N	C[C@@H](C=O)N=C(N)C#N	
InChI=1S/C5H7N3O/c1-4(3-9)8-5(7)2-6/h3-4H,1H3,(H2,7,8)	InChI=1S/C5H7N3O/c1-4(3-9)8-5(7)2-6/h3-4H,1H3,(H2,7,8)/t4-/m0/s1
