17
gdb 33293	5.6479	0.72861	0.69289	1.5672	101.55	-0.2213	-0.0151	0.2062	1623.2528	0.134928	-347.477556	-347.469055	-347.468111	-347.510928	32.443	
C	 0.0598617204	-3.7789380186	-0.0419282341	-0.599679
C	 0.0484008438	-2.5703750169	-0.0274433528	 0.261605
C	 0.0327482984	-1.2123841244	-0.0085459846	-0.038445
C	 0.0309085293	 0.001357531	-0.0005844582	 0.184501
C	 0.0014293915	 1.4154183508	 0.0469232214	 0.148454
C	 0.2781465515	 2.2860496244	-1.1642693657	-0.315073
C	 1.1749088237	 2.4371782671	 0.0207122253	-0.094931
C	 0.4926687122	 3.2688302868	 1.1099470762	-0.22292
C	-0.7001500501	 2.260071612	 1.1321929507	-0.297793
H	 0.0729718039	-4.8401330856	-0.0573251466	 0.186014
H	 0.7014718412	 1.7602166192	-2.0127581323	 0.130029
H	-0.4318257377	 3.0691174073	-1.4230007663	 0.113407
H	 2.2328364965	 2.212850696	-0.0359688632	 0.1049
H	 1.0425792034	 3.2730429027	 2.0526997857	 0.112097
H	 0.2599203922	 4.3027168976	 0.8359810286	 0.10316
H	-1.6864833584	 2.6447771031	 0.8560198176	 0.103054
H	-0.7803143117	 1.7307065776	 2.0824938083	 0.12162
76.7693	81.3292	194.4206	224.2742	285.9119	373.3723	439.9978	474.8226	487.5294	509.1878	528.8058	577.5811	598.7633	704.1374	782.5672	805.0593	829.8776	912.1054	931.9455	964.6305	992.8229	1023.0155	1066.7897	1086.0897	1101.1641	1148.6049	1207.8368	1224.0134	1245.0428	1282.7438	1313.1323	1399.0258	1480.8067	1482.191	1506.1968	2176.5961	2340.5898	3050.9634	3059.4754	3105.8564	3109.247	3130.2968	3191.6862	3213.3782	3506.0486
C#CC#CC12CC1CC2	C#CC#C[C@]12C[C@H]1CC2	
InChI=1S/C9H8/c1-2-3-5-9-6-4-8(9)7-9/h1,8H,4,6-7H2	InChI=1S/C9H8/c1-2-3-5-9-6-4-8(9)7-9/h1,8H,4,6-7H2/t8-,9+/m1/s1
