18
gdb 104545	2.44248	1.30867	1.0372	2.699	80.23	-0.2652	0.0136	0.2788	1220.2688	0.14534	-401.921409	-401.912211	-401.911267	-401.955383	34.435	
C	-0.0563586759	 1.6358961158	 0.0994538565	-0.391081
C	 0.1904115112	 0.1304905382	 0.2168811219	-0.229186
C	 0.6805845558	-0.5090639479	-1.0822491475	 0.208858
C	 0.5583524102	-2.0595952745	-1.1635513641	-0.415091
C	-0.5025114884	-1.7738506213	-2.2006712541	 0.437107
N	-1.2638573843	-2.4814723529	-2.8997842636	-0.54059
O	-0.3648136662	-0.4023018684	-2.1340163212	-0.275066
C	 1.9440454376	 0.0375919274	-1.5504946098	 0.33318
C	 3.0020754907	 0.4735174591	-1.917385927	-0.461003
H	 0.866485092	 2.1687427676	-0.1463458652	 0.132284
H	-0.7888762589	 1.844226847	-0.6852784849	 0.137549
H	-0.4409403988	 2.0361253173	 1.0415819759	 0.117185
H	 0.9335996569	-0.0802012379	 0.9952429662	 0.114114
H	-0.7339215744	-0.3826884341	 0.5060243281	 0.108819
H	 1.4385855643	-2.578453051	-1.5426640838	 0.147379
H	 0.2025851638	-2.5433990126	-0.2524680039	 0.139135
H	-1.8547188771	-1.9077885888	-3.5040699519	 0.229358
H	 3.9332823314	 0.8616713168	-2.2503777118	 0.207052
75.5793	104.379	157.8396	173.7596	212.32	254.3128	371.9327	392.1964	436.2113	490.6438	513.2666	575.7822	628.1579	636.1601	673.8407	772.2527	797.9551	864.2101	883.2865	897.4962	953.9547	1000.6209	1029.0262	1041.7836	1087.2831	1121.2505	1153.9791	1233.4721	1247.5447	1281.8895	1324.5869	1369.2855	1410.515	1463.0675	1473.2072	1495.6041	1508.4217	1829.6829	2236.9418	3033.5258	3047.5926	3073.9637	3093.6295	3119.4491	3125.1986	3153.9977	3476.9071	3498.8506
CCC1(CC(=N)O1)C#C	CC[C@]1(C[C]([NH])O1)C#C	
InChI=1S/C7H9NO/c1-3-7(4-2)5-6(8)9-7/h1,8H,4-5H2,2H3	InChI=1S/C7H9NO/c1-3-7(4-2)5-6(8)9-7/h1,8H,4-5H2,2H3/t7-/m0/s1
