18
gdb 14228	4.70099	1.70016	1.50174	1.1704	71.21	-0.2393	0.0811	0.3204	892.0951	0.153985	-347.751079	-347.743971	-347.743027	-347.781747	28.826	
C	-0.1214708349	 1.4585804898	 0.0121206552	-0.405748
C	 0.0438370749	-0.0561005677	 0.0274834612	 0.020558
C	 0.8461737154	-0.6130724539	-1.1492570707	-0.135726
C	 2.1531681696	-0.5374851393	-0.3769613116	-0.12773
C	 1.2287653011	-0.55843715	 0.9094504318	-0.064663
C	 1.170860522	-2.1099312903	 0.7975159163	-0.307572
C	 1.5651927873	-1.8881765512	-0.6604445573	 0.386458
O	 2.0810079765	-2.8150660423	-1.5428785222	-0.464371
H	 0.8358831349	 1.9558218841	-0.1788051551	 0.116216
H	-0.8233657551	 1.7745119116	-0.7674852745	 0.11047
H	-0.5059526488	 1.8200373059	 0.9725368433	 0.109124
H	-0.9218676089	-0.5374540658	 0.2350146021	 0.055063
H	 0.7056269193	-0.4474463745	-2.211255489	 0.078903
H	 3.1144394305	-0.1043535312	-0.6092737794	 0.093382
H	 1.452501199	-0.0797187067	 1.8610877863	 0.06902
H	 1.9836039229	-2.5904047629	 1.3495447091	 0.101537
H	 0.2171341381	-2.5990377045	 1.0324777113	 0.080826
H	 1.3465611562	-3.2724590309	-1.9671491768	 0.284253
191.1691	231.7518	246.0814	296.9992	340.6956	384.7262	444.7807	481.6061	623.2685	741.6981	765.1904	791.7618	831.7681	868.0816	906.0299	924.6152	928.982	976.4078	1003.9274	1020.6303	1058.3081	1082.0603	1102.7878	1120.8597	1131.7124	1165.0176	1185.2432	1225.7632	1251.044	1274.0677	1295.8608	1308.5295	1377.628	1409.48	1437.6733	1494.9306	1498.8624	1505.2745	3003.2641	3023.2929	3024.8926	3089.8069	3095.2557	3096.6217	3130.2488	3181.411	3230.5429	3791.1516
CC1C2C3C1CC23O	C[C@H]1[C@H]2[C@H]3[C@@H]1C[C@@]23O	
InChI=1S/C7H10O/c1-3-4-2-7(8)5(3)6(4)7/h3-6,8H,2H2,1H3	InChI=1S/C7H10O/c1-3-4-2-7(8)5(3)6(4)7/h3-6,8H,2H2,1H3/t3-,4-,5+,6-,7-/m1/s1
