18
gdb 83181	2.64958	1.4971	1.37401	3.2364	71.8	-0.235	0.0097	0.2447	1024.1939	0.148269	-439.089387	-439.081109	-439.080165	-439.122668	30.497	
C	-0.174473184	 1.639658619	 0.0009474313	-0.343659
N	-0.0112732701	 0.1923286103	 0.0512101183	-0.092714
C	 1.2111690165	-0.4911078834	-0.3291474962	-0.051669
C	 2.5131602056	 0.2119676222	-0.6415590763	-0.102771
O	 2.9483334235	 1.213772977	 0.2887872629	-0.228563
C	 2.619235842	 1.2164950628	 1.6030041147	 0.405832
O	 3.1302595203	 2.0274495319	 2.3254365152	-0.323616
C	 1.6094009352	 0.1985170179	 2.1094429626	-0.370967
C	 0.74439781	-0.5044601895	 1.0844806513	-0.037758
H	 0.7208995167	 2.237273418	 0.2100891578	 0.135164
H	-0.5278197657	 1.9081743654	-0.9996880334	 0.130597
H	-0.9553378488	 1.9245165431	 0.7125847924	 0.131158
H	 1.067126234	-1.3659631458	-0.963706277	 0.099655
H	 3.3045847487	-0.544852925	-0.7243436425	 0.124722
H	 2.4571294598	 0.7313190116	-1.6041161069	 0.131598
H	 2.1868021137	-0.5628691715	 2.6502560128	 0.146462
H	 1.0134416767	 0.7110474771	 2.8710968122	 0.148005
H	 0.2374559359	-1.3856124511	 1.4752315707	 0.098525
71.774	109.3273	140.8892	183.4339	230.6555	386.3668	418.3638	431.0562	542.6315	576.6643	611.3076	723.8139	746.4925	763.7791	861.3914	881.7669	969.4543	997.2678	1030.418	1050.0442	1115.9522	1143.7312	1151.8407	1161.6322	1191.7226	1214.402	1246.368	1290.8733	1325.6864	1349.0253	1371.2607	1424.42	1439.6101	1454.0643	1480.5764	1491.4108	1508.7497	1512.6212	1843.7693	3020.4416	3023.4559	3035.7929	3070.5539	3084.9889	3085.5419	3099.8767	3104.8851	3112.4294
CN1C2COC(=O)CC12	CN1[C@H]2COC(=O)C[C@@H]12	
InChI=1S/C6H9NO2/c1-7-4-2-6(8)9-3-5(4)7/h4-5H,2-3H2,1H3	InChI=1S/C6H9NO2/c1-7-4-2-6(8)9-3-5(4)7/h4-5H,2-3H2,1H3/t4-,5+,7?/m1/s1
