21
gdb 120215	4.4052	0.86422	0.84355	1.2665	83.1	-0.2231	0.0178	0.241	1442.7038	0.183666	-387.045643	-387.037227	-387.036283	-387.079133	32.805	
O	-0.0037593586	 1.424309097	-0.277285506	-0.420948
C	 0.0296789071	 0.0178709473	-0.0837893183	-0.069632
C	-1.4014199964	-0.5014308605	-0.1821175906	-0.227154
C	-1.4816377376	-2.0175506344	-0.0369751255	 0.054395
C	-1.3504106384	-2.6720590313	 1.3998652536	-0.080474
C	-2.8636492591	-2.3170899049	 1.5972984114	-0.215688
C	-2.9067120936	-2.6905853183	 0.0760051884	-0.089042
C	-2.4905712557	-4.1652949524	 0.1521315495	-0.0885
C	-1.4717565693	-4.1528401441	 1.0177623837	-0.086855
H	 0.8951853898	 1.7586361741	-0.2090782421	 0.284416
H	 0.65707764	-0.4746563895	-0.8449480508	 0.083918
H	 0.4536428133	-0.2380711357	 0.9006008071	 0.086038
H	-2.0069883605	 0.022733051	 0.5631722784	 0.107348
H	-1.7993887563	-0.2137097162	-1.1637300669	 0.105162
H	-0.8381413431	-2.4890868603	-0.7877149037	 0.062761
H	-0.5809420945	-2.377007935	 2.1138078179	 0.056074
H	-3.4347099049	-2.9518357549	 2.2784524892	 0.091938
H	-3.0564230643	-1.2626057825	 1.8080249382	 0.096742
H	-3.734526243	-2.4086511354	-0.5754005754	 0.056741
H	-2.9356349663	-4.9866788587	-0.3912735737	 0.096845
H	-0.8518971086	-4.9614359851	 1.3784524656	 0.095917
79.5919	83.8269	125.9536	266.4367	295.3208	328.8884	346.7084	496.4311	540.8817	586.8175	690.7917	720.837	775.871	831.8984	839.6186	867.9936	899.4392	909.813	916.2056	941.265	984.7159	1019.6429	1030.7019	1076.0981	1081.7434	1086.974	1108.2579	1112.639	1148.1414	1200.1064	1220.7533	1226.0965	1240.1368	1246.4523	1252.9803	1261.8313	1312.7951	1316.5899	1334.1189	1396.1981	1461.8088	1486.2901	1507.2565	1528.4386	1620.9441	2960.8863	2986.8217	3032.4488	3042.2655	3063.7081	3088.4571	3109.4467	3112.1992	3126.3256	3217.4476	3244.7175	3828.9497
OCCC1C2CC1C=C2	OCC[C@H]1[C@H]2C[C@@H]1C=C2	
InChI=1S/C8H12O/c9-4-3-8-6-1-2-7(8)5-6/h1-2,6-9H,3-5H2	InChI=1S/C8H12O/c9-4-3-8-6-1-2-7(8)5-6/h1-2,6-9H,3-5H2/t6-,7+,8+
