18
gdb 73669	2.27	2.05338	1.52569	1.0694	70.32	-0.2581	0.0188	0.277	942.4383	0.149829	-439.121591	-439.114177	-439.113233	-439.153329	29.018	
C	-0.0619075503	 1.5402421742	 0.0210706057	-0.447592
C	 0.006529878	 0.0162004773	 0.0047123271	 0.22902
C	-1.372614326	-0.6783796558	 0.0453958029	-0.249189
C	-1.083304896	-1.9604772405	 0.826337176	-0.106742
O	-0.0958743262	-1.5768009205	 1.7971032913	-0.243476
C	 0.7387330498	-0.6252045355	 1.2305384815	 0.173858
O	 1.9200567583	-1.2340966323	 0.6413785721	-0.235121
C	 1.7744786973	-1.0882288065	-0.6962941823	 0.100408
N	 0.787894435	-0.4428321681	-1.1633732618	-0.293843
H	 0.942235296	 1.9747570704	 0.0270314559	 0.124455
H	-0.5784705133	 1.9032022984	-0.8717392182	 0.13375
H	-0.6011706508	 1.8962427076	 0.9050745237	 0.116368
H	-2.0899072691	-0.0574451567	 0.5910867323	 0.106706
H	-1.7553346612	-0.8595385096	-0.9601449823	 0.122752
H	-1.9408817951	-2.3542601059	 1.3753738221	 0.116478
H	-0.6889676587	-2.752215522	 0.1757248837	 0.11288
H	 1.0918663159	 0.0422006695	 2.0180452	 0.099472
H	 2.5565672563	-1.5532671439	-1.2875062197	 0.139816
103.6306	196.0468	223.2216	273.8592	305.0153	364.92	472.5361	558.3696	605.5525	626.5025	674.0767	800.6403	866.8927	894.8693	923.6808	934.1442	939.7126	968.4586	973.2798	995.2803	1038.3302	1083.5497	1130.3796	1169.547	1197.8392	1215.3025	1240.3078	1256.015	1292.7005	1328.3995	1356.1173	1370.493	1400.3433	1410.5822	1477.7431	1485.671	1496.7347	1519.9482	1694.3071	3021.2049	3036.6666	3059.8687	3107.0552	3108.8681	3112.3833	3119.084	3130.5318	3206.662
CC12CCOC1OC=N2	C[C@]12CCO[C@H]1OC=N2	
InChI=1S/C6H9NO2/c1-6-2-3-8-5(6)9-4-7-6/h4-5H,2-3H2,1H3	InChI=1S/C6H9NO2/c1-6-2-3-8-5(6)9-4-7-6/h4-5H,2-3H2,1H3/t5-,6-/m0/s1
