23
gdb 94646	3.83536	0.68603	0.62412	2.9063	87.37	-0.2463	-0.0178	0.2285	1825.4667	0.204376	-388.296355	-388.28623	-388.285286	-388.332582	36.624	
C	-0.0960737009	 1.5707723258	-0.1789858384	-0.394235
C	 0.0219865383	 0.0498875174	-0.107941291	-0.008155
C	 1.2531973039	-0.5183206543	-0.8756985985	-0.222972
C	 2.0100134664	-0.6490697672	 0.4733085921	-0.227523
C	 0.6438596703	-0.5353265937	 1.2073040381	 0.052757
C	 0.5576762459	 0.2404749131	 2.5164952128	-0.22995
C	 1.3119829629	-0.4609158256	 3.6627436268	-0.272446
C	 1.3132624307	 0.3677105961	 4.9250100192	 0.158834
O	 0.8957469365	 0.0060760681	 5.9948724973	-0.238495
H	 0.8540759144	 2.067100734	 0.0479017839	 0.112771
H	-0.3919186374	 1.8806691975	-1.1870939376	 0.114407
H	-0.8476434791	 1.9540793783	 0.5194359708	 0.11469
H	-0.9398208548	-0.394959455	-0.3818557725	 0.065429
H	 1.0470022867	-1.4925232105	-1.3269812467	 0.100011
H	 1.6966522209	 0.1288771565	-1.6373805402	 0.094276
H	 2.6013819776	-1.5532748093	 0.6363417638	 0.096618
H	 2.6499924595	 0.2179206741	 0.6693891862	 0.096515
H	 0.2372661629	-1.5413552505	 1.3666514537	 0.071938
H	 0.966889789	 1.2496744735	 2.3811349777	 0.09952
H	-0.4941898761	 0.3680260159	 2.803847832	 0.108986
H	 0.8821982146	-1.4417287262	 3.8870785037	 0.119465
H	 2.3598570966	-0.6076131394	 3.3622329829	 0.12076
H	 1.7386140612	 1.3921430916	 4.7954191739	 0.066801
55.3013	61.2512	104.6636	120.624	128.7767	241.151	265.207	296.9728	350.2307	386.8341	470.1992	537.2236	672.2066	753.9349	776.6648	807.7984	844.87	885.8771	912.9653	948.3464	957.0704	993.4447	1002.9133	1044.1612	1057.0858	1101.0012	1131.7012	1160.669	1171.4836	1210.6381	1220.5008	1252.5869	1263.7236	1266.5987	1284.8138	1294.6198	1318.591	1356.2837	1369.2878	1394.3031	1412.7389	1431.5794	1463.6928	1479.073	1490.1335	1497.1377	1501.1814	1503.1957	1836.0024	2842.9836	3010.6	3018.0587	3025.4097	3027.938	3044.6096	3045.9705	3056.3869	3058.1919	3093.383	3094.4646	3096.1648	3097.3391	3111.9074
CC1CCC1CCC=O	C[C@H]1CC[C@H]1CCC=O	
InChI=1S/C8H14O/c1-7-4-5-8(7)3-2-6-9/h6-8H,2-5H2,1H3	InChI=1S/C8H14O/c1-7-4-5-8(7)3-2-6-9/h6-8H,2-5H2,1H3/t7-,8+/m0/s1
