17
gdb 29882	3.12833	1.39226	0.97524	8.2194	79.19	-0.2239	-0.0192	0.2047	1176.4268	0.137156	-418.06964	-418.061316	-418.060372	-418.102695	30.718	
C	-0.0322093857	 1.4864686963	 0.0011304524	-0.350305
N	-0.0077732155	 0.0296913381	 0.0314632211	-0.124089
C	-0.0305872749	-0.6825931478	-1.1434383865	 0.095323
N	-0.0138446458	-1.9577888051	-1.2721796886	-0.331155
C	 0.0325810143	-2.7647303441	-0.1081621943	 0.379004
O	 0.0516230213	-3.9776978341	-0.1836147171	-0.368153
C	 0.0588023152	-2.0372546512	 1.1608921431	-0.295619
C	 0.0388520821	-0.6869623748	 1.2233430774	 0.369768
C	 0.0644566557	 0.0831408756	 2.5110576009	-0.494253
H	 0.8641348439	 1.9109131367	 0.4628504247	 0.14874
H	-0.0677768303	 1.8104901861	-1.0399232962	 0.151714
H	-0.9133910226	 1.8821925625	 0.5146483692	 0.148739
H	-0.0666499998	-0.0561579961	-2.0351248453	 0.123962
H	 0.0953387281	-2.6214206952	 2.0722326515	 0.110683
H	 0.1003478413	-0.6125037268	 3.3501036227	 0.150562
H	 0.9390160756	 0.7400957826	 2.5759100594	 0.142535
H	-0.8253427228	 0.7118282174	 2.6279353457	 0.142544
81.0639	129.1408	174.9104	220.2927	250.3069	323.3598	362.6994	455.1167	457.163	561.5881	564.3738	581.3847	761.0367	777.4614	788.5353	888.629	890.6258	966.61	1025.0664	1064.0823	1073.3202	1148.7909	1184.9784	1199.9137	1235.2567	1325.7547	1411.7482	1432.5036	1437.9656	1472.943	1475.3251	1486.2872	1495.2105	1521.3085	1612.6284	1702.5901	1775.5881	3033.8768	3044.0479	3087.223	3105.1114	3122.411	3142.6808	3144.6864	3208.716
CN1C=NC(=O)C=C1C	Cn1cnc(=O)cc1C	
InChI=1S/C6H8N2O/c1-5-3-6(9)7-4-8(5)2/h3-4H,1-2H3	InChI=1S/C6H8N2O/c1-5-3-6(9)7-4-8(5)2/h3-4H,1-2H3
