17
gdb 44570	2.88689	1.66719	1.49469	3.497	70.44	-0.2284	-0.0323	0.1961	937.6123	0.136821	-421.811818	-421.804879	-421.803934	-421.843187	27.93	
O	-0.3450300038	 0.582831719	 1.1166125587	-0.290605
C	-0.2057005639	 1.4648366043	 0.3234655475	 0.365056
C	-1.1652136602	 2.2434951524	-0.6036328371	-0.36447
C	-0.0526033883	 3.3198869855	-0.7707091071	-0.075362
C	-0.0450915866	 4.5043336628	 0.1829190377	-0.082971
C	-0.3013921017	 4.2579839415	 1.6654650786	-0.344074
C	 1.1032118001	 4.281180583	 1.1374772872	 0.112712
O	 1.7419714101	 3.0545741078	 0.866589942	-0.250927
C	 0.9981480063	 2.3635988471	-0.1087014797	 0.006142
H	-1.3697793624	 1.686572823	-1.5240578627	 0.132695
H	-2.1158392966	 2.552716205	-0.1640875355	 0.135909
H	 0.148094672	 3.6373696922	-1.7939276344	 0.083026
H	-0.2599788527	 5.4876842078	-0.2170993159	 0.096337
H	-0.6275229726	 5.1127432645	 2.2485922992	 0.119671
H	-0.7144165213	 3.3136361571	 2.0024114325	 0.142444
H	 1.809740826	 5.046014538	 1.437231277	 0.105806
H	 1.6833246554	 1.829735229	-0.7764535279	 0.108612
93.4187	191.1989	236.4064	372.7901	414.8578	480.7716	556.8886	610.3117	669.3239	708.9899	765.4417	777.7194	804.9857	863.5722	873.7803	938.0498	951.1662	981.8105	1019.4468	1038.1823	1066.9331	1082.807	1089.6519	1093.9519	1118.5374	1159.3473	1171.3983	1203.1289	1227.0218	1235.3506	1309.3378	1326.3595	1353.7849	1385.3248	1438.9047	1483.4742	1894.9333	3052.8104	3059.3927	3109.5665	3121.2037	3136.0789	3179.4171	3187.897	3221.9239
O=C1CC2C3CC3OC12	O=C1C[C@H]2[C@H]3C[C@H]3O[C@@H]12	
InChI=1S/C7H8O2/c8-5-1-4-3-2-6(3)9-7(4)5/h3-4,6-7H,1-2H2	InChI=1S/C7H8O2/c8-5-1-4-3-2-6(3)9-7(4)5/h3-4,6-7H,1-2H2/t3-,4+,6-,7-/m1/s1
