25
gdb 118226	2.11603	0.91897	0.71861	1.1349	86.01	-0.2406	0.0768	0.3173	1699.9222	0.225244	-426.622783	-426.610924	-426.60998	-426.66142	42.578	
C	 0.302233464	 1.0356844567	 0.3243901692	-0.384828
C	-0.6542994899	-0.0719499895	-0.1177952066	-0.052444
O	-0.3114721796	-0.6831676846	-1.3466946887	-0.257797
C	 0.7780287617	-1.606925126	-1.3099649597	 0.125763
C	 0.2851829545	-2.8936507057	-1.9715670542	-0.392894
C	 2.0191475435	-1.0009630684	-2.0061787772	-0.214623
C	 3.3774451438	-1.3414225421	-1.373345979	 0.13119
C	 3.7483759148	-2.8249682192	-1.4098300691	-0.397272
O	 4.4076461615	-0.5514057001	-1.9646288908	-0.431691
H	 1.3048164752	 0.6483395665	 0.5321581294	 0.122232
H	 0.3856964903	 1.8039232697	-0.4501301422	 0.126372
H	-0.0685582871	 1.5079408802	 1.2406367791	 0.112065
H	-0.7386233771	-0.8329135659	 0.6755806634	 0.085087
H	-1.6556150259	 0.3455850093	-0.2710184122	 0.104568
H	 1.0294912859	-1.817699269	-0.2584194053	 0.064591
H	 1.07745341	-3.6445591278	-2.0380523493	 0.112322
H	-0.5515997408	-3.3185016423	-1.4100060915	 0.115051
H	-0.0638392892	-2.6714251373	-2.9850426181	 0.125446
H	 2.0302397147	-1.2995625649	-3.0645658996	 0.079179
H	 1.9188608976	 0.0868659759	-1.9914244535	 0.116422
H	 3.3604507374	-1.0131444382	-0.3255108127	 0.087663
H	 3.0535374936	-3.4340063204	-0.8233713008	 0.119834
H	 3.7413318751	-3.205308237	-2.4392595781	 0.105844
H	 4.7532876854	-2.9636851335	-1.0017503467	 0.123544
H	 4.4668585908	-0.8007111463	-2.8936661762	 0.274375
20.5706	45.7936	75.7062	106.7387	179.6297	228.3258	256.0839	258.0892	273.4476	296.2082	313.7318	341.1497	384.6369	431.2996	461.4161	496.5898	549.3973	794.9658	823.2801	843.3949	873.9399	899.1095	950.7066	960.0753	1006.1328	1044.5561	1080.4339	1092.6732	1131.6345	1136.6914	1146.7488	1174.0641	1197.0972	1237.6665	1274.9014	1322.3807	1331.2137	1363.9237	1381.8825	1390.3826	1398.9296	1400.8906	1409.7291	1418.9484	1423.4372	1479.6982	1485.9028	1487.5314	1488.6359	1490.7408	1496.5103	1502.9237	1510.0091	2965.884	2974.5777	3005.333	3021.3625	3028.5099	3034.8021	3041.9083	3060.5725	3094.9208	3101.4839	3105.52	3114.1376	3115.4065	3116.3153	3122.3492	3797.1905
CCOC(C)CC(C)O	CCO[C@@H](C)C[C@@H](C)O	
InChI=1S/C7H16O2/c1-4-9-7(3)5-6(2)8/h6-8H,4-5H2,1-3H3	InChI=1S/C7H16O2/c1-4-9-7(3)5-6(2)8/h6-8H,4-5H2,1-3H3/t6-,7+/m1/s1
