14
gdb 28855	3.30983	1.3649	1.03336	5.6553	75.44	-0.2446	-0.0739	0.1707	1086.3808	0.102246	-436.726093	-436.718899	-436.717955	-436.757902	27.531	
O	-0.1089337446	 1.32029857	-0.2691707739	-0.411783
C	 0.0378555024	-0.0127288199	-0.084074625	 0.370228
C	 1.2671080862	-0.6088593935	-0.0889363139	-0.249409
C	 1.5338465996	-1.9815404812	 0.2287817912	 0.014694
N	 0.7730512957	-3.0220335953	 0.1952627048	-0.259888
C	-0.5377523779	-3.029928383	-0.2695606981	 0.333984
O	-0.9491524555	-3.9152367288	-0.9893124328	-0.323082
C	-1.4676274955	-1.9784697712	 0.2123064036	-0.161314
C	-1.2215597194	-0.6551153364	 0.2111534847	-0.095821
H	 0.7526285618	 1.7248010079	-0.4258185503	 0.308714
H	 2.1399233876	 0.030098193	-0.2089586402	 0.090184
H	 2.5590470122	-2.1704256637	 0.5603545021	 0.119657
H	-2.4671014605	-2.3313101079	 0.4489525633	 0.136915
H	-2.0314230022	 0.0366068801	 0.4245338244	 0.12692
83.2865	189.6422	280.9989	353.597	360.8036	411.6559	453.5978	477.7865	559.0832	616.8788	703.8621	741.5729	776.2311	824.292	836.7387	878.259	921.888	992.1447	1009.8351	1070.8651	1185.1834	1211.2119	1246.6308	1292.9149	1396.0266	1445.7707	1489.3492	1563.2947	1669.4228	1680.4733	1771.25	3082.2072	3142.816	3170.6759	3188.9583	3801.5708
OC1=CC=NC(=O)C=C1	Oc1ccnc(=O)cc1	
InChI=1S/C6H5NO2/c8-5-1-2-6(9)7-4-3-5/h1-4,8H	InChI=1S/C6H5NO2/c8-5-1-2-6(9)7-4-3-5/h1-4,8H
