14
gdb 130030	3.32262	1.34391	1.04498	1.8158	67.29	-0.2389	-0.006	0.233	1082.4819	0.1035	-429.079306	-429.07142	-429.070476	-429.112496	28.186	
N	 0.1410832722	 1.3239397663	-0.212241758	-0.609645
C	 0.0175511747	-0.0415913677	-0.0886452788	 0.429779
N	-1.1059159501	-0.7196869753	 0.0614006229	-0.332226
C	-0.6632447468	-2.0008248533	 0.2171907693	 0.039854
N	 0.6407211216	-2.1717013294	 0.1658470591	-0.260212
N	 1.0821376654	-0.8833384124	-0.0266486355	-0.024144
C	 2.4966648754	-0.5951715555	-0.0421220564	-0.266879
C	 2.902421876	 0.1394268196	-1.2483991651	 0.266931
N	 3.1821209364	 0.7624367356	-2.1801336179	-0.302154
H	 0.8222360489	 1.6411120026	-0.8909670937	 0.275835
H	-0.7594653979	 1.7629072029	-0.3475748939	 0.274729
H	-1.3331851804	-2.8347574022	 0.3659491259	 0.131593
H	 2.7885852769	-0.005589706	 0.8360587754	 0.179762
H	 3.0140741177	-1.5556859151	 0.0048149366	 0.196778
48.6684	97.0818	203.5982	264.7421	308.455	328.3514	367.5732	453.5988	499.1899	645.2351	680.5114	736.4526	766.3854	795.3986	912.299	933.7013	957.5572	983.7651	1089.7872	1147.5382	1226.9246	1275.924	1311.9501	1325.0677	1368.0273	1445.5373	1463.9209	1562.6571	1591.3716	1662.2548	2363.8935	3038.4035	3124.5642	3258.8912	3544.0735	3647.9154
NC1=NC=NN1CC#N	Nc1ncnn1CC#N	
InChI=1S/C4H5N5/c5-1-2-9-4(6)7-3-8-9/h3H,2H2,(H2,6,7,8)	InChI=1S/C4H5N5/c5-1-2-9-4(6)7-3-8-9/h3H,2H2,(H2,6,7,8)
