14
gdb 19781	3.25634	2.59599	1.74211	3.9737	60.98	-0.2221	-0.0334	0.1887	738.3068	0.10927	-378.671129	-378.665153	-378.664209	-378.701117	23.69	
O	 0.0012366207	 0.0115147422	-0.0337746175	-0.319239
C	-0.0147025026	 1.2155259644	 0.0096802225	 0.473794
C	-1.2592016212	 2.0829748115	-0.0685228908	-0.176247
N	-1.382941139	 3.1235987297	 0.9881092009	-0.302115
C	-0.8156900767	 3.4838975746	-0.316626697	-0.043146
C	 0.7133484408	 3.5049673982	-0.3395623154	-0.043145
N	 1.3291822843	 3.1609704601	 0.9474266314	-0.302116
C	 1.2025231801	 2.1168962463	-0.1054493762	-0.176246
H	-2.1533742909	 1.6374678252	-0.4899707151	 0.107522
H	-2.3594083642	 3.4125451851	 1.0148485299	 0.239535
H	-1.3581051544	 4.1471920726	-0.9808980329	 0.097174
H	 1.2171206372	 4.1826774524	-1.019527577	 0.097174
H	 2.2976830842	 3.4767135508	 0.9449894264	 0.239535
H	 2.0955878417	 1.696015747	-0.5537066593	 0.107522
150.7332	229.5714	334.0348	429.4327	544.7314	565.7653	662.9706	721.0801	798.3782	812.0248	838.391	861.4047	874.0627	915.0639	928.076	949.3234	997.003	1065.6423	1096.8083	1133.2916	1155.48	1170.7853	1198.4154	1241.2129	1245.525	1343.2373	1370.4487	1404.0171	1406.1175	1839.7635	3169.6833	3176.7646	3180.577	3186.7905	3482.9354	3484.622
O=C1C2NC2C2NC12	O=C1[C@H]2N[C@H]2[C@H]2N[C@@H]12	
InChI=1S/C5H6N2O/c8-5-3-1(6-3)2-4(5)7-2/h1-4,6-7H	InChI=1S/C5H6N2O/c8-5-3-1(6-3)2-4(5)7-2/h1-4,6-7H/t1-,2+,3-,4+
