17
gdb 16255	3.09916	2.06711	1.56014	0.6157	63.48	-0.2406	0.0729	0.3134	853.2251	0.143487	-400.964417	-400.957077	-400.956133	-400.996387	27.905	
O	 0.005640509	 1.5356677832	 0.2264185713	-0.428522
C	-0.0120490897	 0.1347474602	 0.0010745018	 0.046976
C	 0.6517938525	-0.6377267083	 1.145541844	-0.12295
O	-0.375348656	-0.7308258597	 2.1290140868	-0.262169
C	-1.555605595	-1.1095024907	 1.4215541509	-0.137427
C	-1.4286105577	-0.4605314611	 0.0385544496	 0.273762
C	-2.5404322954	 0.161245893	-0.7125200964	-0.287419
N	-2.0270848054	-1.1667806634	-1.1011229298	-0.363441
H	-0.3444163776	 1.6799885908	 1.113874761	 0.285974
H	 0.4785408661	-0.0186711125	-0.9646156744	 0.085114
H	 0.9734537422	-1.6384837602	 0.8127536967	 0.094133
H	 1.5021177533	-0.1077670258	 1.5794255004	 0.117113
H	-1.6178447185	-2.2023589441	 1.3114120687	 0.108332
H	-2.4174721343	-0.7639767584	 1.9985474644	 0.113393
H	-3.5451322359	 0.1559582353	-0.297389953	 0.118791
H	-2.3069957764	 1.0224276875	-1.3328103995	 0.12668
H	-1.4355842412	-1.0811264957	-1.9249481827	 0.231662
45.0973	197.6284	233.4501	314.6248	335.6011	379.0161	421.7051	516.3839	527.5426	718.487	809.1508	861.4817	879.1846	918.5517	930.4972	946.6437	982.693	1020.3518	1058.0519	1077.9863	1087.3841	1117.6854	1141.6866	1202.8938	1244.2398	1256.2995	1268.3095	1291.061	1299.4615	1332.3452	1374.9739	1416.9496	1426.2184	1495.6639	1513.2717	1517.9628	2971.8011	2997.9563	3073.9424	3089.7183	3106.0212	3114.3839	3193.3183	3485.6664	3789.9682
OC1COCC11CN1	O[C@H]1COC[C@]21CN2	
InChI=1S/C5H9NO2/c7-4-1-8-3-5(4)2-6-5/h4,6-7H,1-3H2	InChI=1S/C5H9NO2/c7-4-1-8-3-5(4)2-6-5/h4,6-7H,1-3H2/t4-,5-/m0/s1
