21
gdb 35506	2.98961	1.39499	1.30482	0.7886	86.71	-0.2531	0.0539	0.307	1088.8513	0.185595	-349.949144	-349.941449	-349.940505	-349.98114	31.744	
C	-0.1511186848	-1.2421201088	-0.2278333417	-0.464359
C	-0.0782544522	-0.0475180938	-0.1038708729	 0.313024
C	 0.0074095682	 1.396341413	 0.0475140634	-0.155413
C	-0.614588013	 1.9556662972	 1.3845725664	-0.230089
C	 0.5231489674	 2.8230734516	 1.9667530643	 0.004966
C	 1.62484363	 1.8860277246	 2.5120449618	-0.207021
C	 2.2587653424	 1.2916526038	 1.2123345434	-0.21336
C	 1.4565760429	 1.9767743339	 0.0848074712	-0.011036
C	 1.1886679245	 3.3714393859	 0.6857767456	-0.22526
H	-0.218834537	-2.2955942761	-0.3405978429	 0.189748
H	-0.5130445977	 1.8539321888	-0.8022459017	 0.099867
H	-1.5054965403	 2.5518523586	 1.1680275287	 0.097488
H	-0.9113281839	 1.1504007626	 2.0605126797	 0.108332
H	 0.1774019515	 3.5669807541	 2.6873253608	 0.056487
H	 2.3631854004	 2.4507995374	 3.0894916668	 0.092078
H	 1.216503127	 1.1151373491	 3.1721239191	 0.096518
H	 3.3190248083	 1.5496743537	 1.1349343689	 0.092522
H	 2.1815115999	 0.2033975438	 1.1615563773	 0.113593
H	 1.9453154597	 1.9479083789	-0.8903898876	 0.062931
H	 0.5192134832	 3.9871597049	 0.0760573071	 0.088569
H	 2.1057691834	 3.9357763769	 0.8813443723	 0.090415
84.001	152.7937	221.8179	327.7031	379.1458	439.9421	478.4305	525.8797	566.923	616.2101	621.6952	744.4917	762.8382	800.2702	814.9287	839.8625	889.0671	931.8805	948.8633	955.3304	960.2007	971.5205	999.9324	1040.3155	1064.1318	1089.128	1130.744	1142.8215	1165.1536	1197.9536	1224.588	1268.5189	1272.9841	1280.1571	1299.1689	1323.3038	1331.6669	1341.0835	1349.9505	1359.6572	1485.2539	1494.2502	1496.0364	1518.8989	2229.443	3025.6962	3044.4956	3045.8307	3057.3449	3058.9631	3084.5362	3091.7691	3093.9315	3102.1743	3106.6953	3111.6595	3504.8626
C#CC1CC2CCC1C2	C#C[C@H]1C[C@H]2CC[C@@H]1C2	
InChI=1S/C9H12/c1-2-8-5-7-3-4-9(8)6-7/h1,7-9H,3-6H2	InChI=1S/C9H12/c1-2-8-5-7-3-4-9(8)6-7/h1,7-9H,3-6H2/t7-,8+,9-/m1/s1
