19
gdb 121705	6.53497	0.60676	0.56107	5.7955	77.86	-0.2406	-0.0115	0.2291	1964.8958	0.156745	-456.35588	-456.345218	-456.344274	-456.394151	35.572	
C	 0.1474957824	 1.4598445399	 0.0256976345	-0.385037
C	 0.040513734	-0.0547306371	 0.0083111118	-0.029272
O	-1.3312901815	-0.4041134781	 0.0192377268	-0.215184
C	-1.5488609455	-1.7768753812	 0.0048316748	-0.178097
C	-3.0614717726	-2.0489742159	 0.0183130968	 0.396721
O	-3.8971545825	-1.1892126416	 0.0383479767	-0.280977
N	-3.3216752566	-3.422728429	 0.0041408316	-0.332455
C	-4.5467738309	-4.0870295872	 0.0096477116	 0.08674
N	-5.6754435835	-3.5137208846	 0.0293989906	-0.396116
H	 1.197605542	 1.7665624586	 0.017814524	 0.114369
H	-0.3486504956	 1.8878516113	-0.8494746799	 0.134112
H	-0.3290083625	 1.8661297592	 0.9218867211	 0.134114
H	 0.5301794387	-0.4701561198	-0.8891334281	 0.086544
H	 0.5498419897	-0.491901403	 0.8842246457	 0.086545
H	-1.1093904679	-2.2522979142	-0.8925508266	 0.102509
H	-1.0897240184	-2.2740257928	 0.8803262433	 0.102522
H	-2.5143105057	-4.026670218	-0.0124030295	 0.251863
H	-4.3852460883	-5.1732929144	-0.0056316339	 0.092093
H	-6.4139770355	-4.215688172	 0.0289878585	 0.229007
17.6125	46.1515	86.6877	95.993	120.3615	169.3619	208.7723	244.2383	290.7781	327.6598	477.9284	524.8389	549.7756	600.9281	782.3318	821.372	822.8108	897.5581	954.2709	1021.3768	1027.6506	1063.2752	1071.7947	1151.5161	1172.4825	1187.7373	1204.0002	1260.7716	1261.0727	1297.1134	1379.87	1404.8336	1432.5372	1438.0435	1482.7636	1496.4971	1502.0182	1533.8927	1540.5668	1740.1666	1860.1144	2921.5315	2942.5993	2952.8947	2976.4316	3021.4577	3047.6806	3122.1911	3127.2317	3497.7297	3624.0435
CCOCC(=O)NC=N	CCOCC(=O)NC=N	
InChI=1S/C5H10N2O2/c1-2-9-3-5(8)7-4-6/h4H,2-3H2,1H3,(H2,6,7,8)	InChI=1S/C5H10N2O2/c1-2-9-3-5(8)7-4-6/h4H,2-3H2,1H3,(H2,6,7,8)
