19
gdb 90975	3.42016	1.40787	1.33889	2.9403	74.84	-0.2309	0.0647	0.2956	1020.1453	0.160254	-422.935236	-422.9279	-422.926955	-422.966973	30.258	
O	-0.2426308143	 1.4292367837	 0.3056478589	-0.429528
C	-0.0269534867	 0.0512674762	 0.026039002	 0.132321
C	 0.8647147283	-0.6499772769	 1.1452882173	-0.325886
C	-0.0300526624	-1.7804715896	 1.6650441784	 0.002933
C	-0.9155151266	-1.9462819462	 2.9437494105	-0.003211
C	-1.4747740415	-0.5295169233	 2.7632357355	-0.261599
C	-1.4299668916	-1.2521717119	 1.3857678216	 0.438303
C	-1.4422166435	-0.6335499142	 0.0173057587	-0.364781
O	-2.0113793099	-2.4521932633	 2.0437742484	-0.375103
H	 0.6129872489	 1.8702316954	 0.3056677752	 0.283359
H	 0.44479518	-0.0582456263	-0.9599167746	 0.072675
H	 1.8039452586	-1.0254059528	 0.7307794284	 0.101092
H	 1.1145906476	 0.1032768551	 1.8969111281	 0.108748
H	 0.1599667188	-2.742187644	 1.1826413807	 0.080768
H	-0.7447572631	-2.5292072874	 3.8496142163	 0.090876
H	-2.4776152929	-0.3772335228	 3.1627554452	 0.105199
H	-0.8210692756	 0.3282916864	 2.9227974698	 0.106522
H	-2.2149291131	 0.1136882085	-0.1711568209	 0.123014
H	-1.4896883512	-1.4070976166	-0.7553139894	 0.114298
65.2387	253.5533	304.8172	309.8167	380.7822	412.9975	455.7544	558.0733	568.8649	653.5504	680.3749	717.452	784.1572	816.9139	861.663	893.5598	931.8713	943.3805	970.5674	975.5935	993.9632	1042.374	1065.3675	1084.8483	1118.5415	1127.9956	1179.7963	1190.8266	1202.9792	1214.0398	1222.8186	1250.6233	1277.0253	1295.7755	1302.4944	1357.7621	1382.4955	1414.7126	1474.7142	1481.1374	1507.8381	2999.986	3060.4245	3063.8862	3081.5332	3085.4732	3109.6374	3112.3021	3126.7962	3160.0794	3816.1555
OC1CC2C3CC2(C1)O3	O[C@H]1C[C@H]2[C@H]3C[C@]2(C1)O3	
InChI=1S/C7H10O2/c8-4-1-5-6-3-7(5,2-4)9-6/h4-6,8H,1-3H2	InChI=1S/C7H10O2/c8-4-1-5-6-3-7(5,2-4)9-6/h4-6,8H,1-3H2/t4-,5-,6+,7-/m0/s1
