23
gdb 96598	2.13259	1.4201	0.97965	0.9924	81.18	-0.2393	0.0771	0.3164	1284.1505	0.207669	-425.419468	-425.410441	-425.409497	-425.452874	35.489	
O	-0.2205731053	 1.5337336822	-0.2682285822	-0.438987
C	-0.0060409394	 0.1361114716	-0.0649551545	 0.10955
C	-1.4197281524	-0.4539593873	 0.0571351915	-0.184084
C	-1.600898689	-1.956568636	-0.1937101225	-0.209257
C	-0.9033195097	-2.9359574103	 0.7616757361	-0.189746
C	 0.6382847623	-2.9025723548	 0.817370247	-0.200998
C	 1.382040076	-2.7252657261	-0.5231364082	-0.068966
O	 1.821018332	-1.4010255273	-0.7821058938	-0.245632
C	 0.8676254193	-0.4472328689	-1.2050318823	-0.105229
H	 0.6272244318	 1.9807428713	-0.1778892522	 0.27991
H	 0.5568227139	-0.0224082606	 0.8656562684	 0.07317
H	-1.8201136889	-0.1865641027	 1.0423164008	 0.099096
H	-2.03114892	 0.087662028	-0.6751236579	 0.110195
H	-2.6768675563	-2.1646649133	-0.1503636356	 0.096392
H	-1.3104374659	-2.1899328055	-1.2247495929	 0.096626
H	-1.2914240662	-2.7923397158	 1.7784605551	 0.095582
H	-1.2140807378	-3.9466107404	 0.4667971993	 0.095578
H	 0.9913802387	-2.109866337	 1.4848102818	 0.110883
H	 0.972934798	-3.8412999906	 1.2746111719	 0.093615
H	 2.3058746599	-3.3116807717	-0.5020434941	 0.105356
H	 0.7809004406	-3.1039371697	-1.3650679558	 0.088901
H	 0.2478394427	-0.838959642	-2.0261621801	 0.093032
H	 1.4565341056	 0.379299687	-1.6184129096	 0.095013
89.5799	138.3792	194.3547	247.9418	288.0554	309.1712	326.7678	349.7243	393.9517	426.4149	467.9118	516.1718	534.7641	746.6603	786.0884	820.7367	858.4395	887.4109	952.8905	971.0688	1003.5752	1009.9998	1018.0464	1079.7858	1096.7831	1128.4577	1141.051	1145.924	1180.6287	1223.698	1241.4134	1273.8268	1302.0569	1311.6335	1331.6014	1346.3609	1363.8179	1374.2425	1391.0642	1401.2866	1405.1376	1418.2222	1433.8297	1480.8537	1484.0509	1486.442	1489.2167	1496.2539	1513.2041	2979.522	2989.1085	3000.4865	3011.9818	3025.2245	3030.2996	3036.2153	3044.8057	3057.3184	3059.3545	3071.2362	3075.006	3083.1044	3813.359
OC1CCCCCOC1	O[C@H]1CCCCCOC1	
InChI=1S/C7H14O2/c8-7-4-2-1-3-5-9-6-7/h7-8H,1-6H2	InChI=1S/C7H14O2/c8-7-4-2-1-3-5-9-6-7/h7-8H,1-6H2/t7-/m0/s1
