15
gdb 28975	3.04128	1.5463	1.02588	3.2978	87.11	-0.2099	-0.0364	0.1735	1094.8881	0.114087	-379.700478	-379.692791	-379.691847	-379.73231	30.224	
N	-0.0056178903	 1.387508878	 0.1371991095	-0.606831
C	-0.0070223363	 0.0105634356	 0.0433754041	 0.275903
C	-1.1960240366	-0.7287303408	 0.0303378447	-0.157683
C	-1.1369266733	-2.1117487274	-0.0068579342	-0.103399
C	 0.1109099215	-2.7364643124	-0.0311462008	-0.040204
N	 1.255475889	-2.0612682767	-0.0266264373	-0.317141
C	 1.2079596992	-0.7216204273	 0.0069597386	 0.109989
C	 2.4438400843	-0.0044263982	-0.0012946216	 0.215416
C	 3.4485864677	 0.661476359	-0.0161559705	-0.37925
H	 0.8608156605	 1.839349938	-0.1172951396	 0.257537
H	-0.8297342884	 1.8620881569	-0.1970802036	 0.250481
H	-2.1504088766	-0.2111112643	 0.0545000504	 0.095154
H	-2.0459677284	-2.7031913508	-0.017239493	 0.102143
H	 0.1896173875	-3.8196717414	-0.0592806682	 0.102957
H	 4.3565100903	 1.2126357918	-0.0194663083	 0.194928
121.7546	150.8607	234.7533	364.2286	378.1472	387.2109	477.5351	492.8316	535.4247	554.3318	577.3458	601.1913	607.3199	667.361	737.1075	794.2228	828.5338	874.705	928.7418	975.6483	1065.5183	1083.6176	1161.4155	1213.724	1282.3815	1313.402	1345.6775	1475.9273	1490.1071	1594.7812	1623.9236	1651.3455	2214.7722	3162.0879	3170.1861	3196.9128	3498.9704	3566.6249	3677.9831
NC1=CC=CN=C1C#C	Nc1cccnc1C#C	
InChI=1S/C7H6N2/c1-2-7-6(8)4-3-5-9-7/h1,3-5H,8H2	InChI=1S/C7H6N2/c1-2-7-6(8)4-3-5-9-7/h1,3-5H,8H2
