17
gdb 110286	2.43542	1.43177	1.19875	4.111	68.67	-0.245	-0.0221	0.2229	1086.7741	0.135069	-458.937093	-458.928562	-458.927618	-458.970397	31.93	
O	 0.0383113699	 1.4579186746	 0.0964799009	-0.423923
C	 0.1551533193	 0.0679952871	-0.163356815	-0.100503
C	-1.2177045778	-0.590712609	-0.0344206209	-0.116649
C	-1.4752562153	-2.1085486997	-0.1383376232	-0.138891
C	-0.9236551906	-2.8616665982	 1.0079413119	 0.111513
O	 0.2926597077	-2.4940684969	 1.5849526042	-0.408999
C	-2.2160577177	-2.0946681489	 1.2499874728	-0.257753
C	-1.880881328	-0.6324505826	 1.3546937111	 0.411921
O	-2.1032549058	 0.2215618013	 2.170784651	-0.335801
H	-0.3778542404	 1.55102923	 0.9623727049	 0.295046
H	 0.5335350383	-0.0275459627	-1.1870395626	 0.105025
H	 0.8720034498	-0.4189243102	 0.5075479156	 0.115404
H	-1.9171723898	-0.0545859913	-0.6895473847	 0.116212
H	-1.8045631065	-2.6062002285	-1.0415502537	 0.109735
H	-1.0865283459	-3.9392769166	 0.9556575159	 0.107443
H	 0.2472192991	-2.6736225646	 2.5306078084	 0.295676
H	-3.1168056862	-2.5899083438	 1.5913828635	 0.114544
96.9315	108.6217	128.4456	206.6996	304.2412	314.9363	383.6391	404.9273	435.779	481.5676	620.1377	655.7842	698.3094	751.2626	807.9566	868.7979	927.7182	959.3412	975.8854	998.616	1038.2772	1063.3763	1089.915	1107.4973	1140.4316	1165.8365	1210.2876	1227.4769	1269.0254	1297.8354	1317.4414	1345.7559	1385.6592	1433.5789	1456.6663	1518.4584	1866.2657	3031.6523	3038.215	3080.4878	3095.3793	3192.1413	3201.727	3781.2586	3804.3224
OCC1C2C(O)C2C1=O	OC[C@H]1[C@H]2[C@@H](O)[C@H]2C1=O	
InChI=1S/C6H8O3/c7-1-2-3-4(5(2)8)6(3)9/h2-4,6-7,9H,1H2	InChI=1S/C6H8O3/c7-1-2-3-4(5(2)8)6(3)9/h2-4,6-7,9H,1H2/t2-,3+,4+,6+/m0/s1
