21
gdb 58433	2.77244	1.29538	1.20247	1.6947	77.88	-0.236	0.0728	0.3088	1155.6787	0.180677	-424.149055	-424.139856	-424.138912	-424.182941	35.734	
C	 0.1488222981	 1.4477070053	-0.0791399264	-0.41398
C	 0.0619398922	-0.0552970633	 0.2041160672	 0.041772
O	 0.6423575617	-0.3831791331	 1.4661406521	-0.43656
C	-1.3748164055	-0.6089771198	 0.0958300119	 0.370177
C	-2.2501614465	-0.1639052531	 1.2669388649	-0.505727
C	-2.0890540722	-0.6551547856	-1.3034293591	-0.000899
C	-1.1227230505	-1.7546462078	-1.8019700317	-0.241725
C	-1.5892798976	-2.0938899751	-0.3657572914	 0.000553
O	-2.9655897646	-1.7358582372	-0.7938963338	-0.313319
H	 1.1857020916	 1.7808568375	 0.0181978152	 0.126404
H	-0.1953850525	 1.6805316301	-1.0922254778	 0.119759
H	-0.4609725532	 2.0290566526	 0.6212300479	 0.114569
H	 0.710203142	-0.5661283194	-0.5106237978	 0.085982
H	 0.2258144645	 0.1687801305	 2.1360640934	 0.280695
H	-2.3036406359	 0.9276256139	 1.340770534	 0.110854
H	-3.2623893836	-0.5470633925	 1.144988228	 0.148185
H	-1.8533808147	-0.5473765962	 2.2125118208	 0.115488
H	-2.5685679075	 0.1516642011	-1.8609285558	 0.089098
H	-1.5539615625	-2.4014702467	-2.5657583576	 0.110073
H	-0.0774751411	-1.5190762246	-2.0006455633	 0.102957
H	-1.4680798421	-3.0156609567	 0.2044818793	 0.095643
40.5661	160.2174	189.1254	229.6023	266.3822	284.9584	309.846	329.7323	390.5272	453.4914	495.4888	533.923	635.0918	696.5674	737.6406	806.6073	867.0748	869.301	884.6262	914.9163	935.9823	1002.9293	1013.238	1035.7432	1072.0553	1094.656	1106.6921	1122.0405	1156.7561	1167.9813	1179.4073	1208.1213	1238.3168	1271.3062	1280.4137	1311.1861	1369.3568	1395.1602	1402.145	1430.9772	1487.5234	1493.7874	1497.9389	1509.2035	1517.3961	3033.3839	3039.7586	3079.2653	3091.5667	3095.1561	3100.2229	3108.6911	3115.808	3118.4081	3155.6039	3160.9881	3812.9688
CC(O)C1(C)C2CC1O2	C[C@@H](O)[C@@]1(C)[C@H]2C[C@@H]1O2	
InChI=1S/C7H12O2/c1-4(8)7(2)5-3-6(7)9-5/h4-6,8H,3H2,1-2H3	InChI=1S/C7H12O2/c1-4(8)7(2)5-3-6(7)9-5/h4-6,8H,3H2,1-2H3/t4-,5-,6+,7+/m1/s1
