18
gdb 54291	2.3003	1.49162	1.1093	3.9416	73.1	-0.2434	-0.0345	0.2089	1151.3376	0.144189	-439.09395	-439.084103	-439.083159	-439.129343	34.917	
C	 1.0438804631	 0.0870793692	 0.8718637085	-0.511815
C	 0.1551575727	-0.4472947368	-0.2409846522	 0.330586
O	 0.5714268968	-0.5550773308	-1.3750669763	-0.308263
C	-1.2642358618	-0.8210489569	 0.0742936534	 0.100526
C	-1.516490251	-1.7238995492	 1.2399841077	-0.262575
N	-1.9435369855	-0.3316337338	 1.3015645169	-0.346802
C	-2.24252022	-0.9306290676	-1.1012319586	 0.369523
C	-2.3217106171	 0.2578767322	-2.0301466715	-0.496401
O	-2.9479654977	-1.9029104308	-1.2176300895	-0.295743
H	 2.0838460842	 0.0003076825	 0.5553735853	 0.156981
H	 0.8235059941	 1.149618669	 1.0326927072	 0.153428
H	 0.9069845988	-0.4272306484	 1.8272627369	 0.136608
H	-2.3147388288	-2.4477151993	 1.1165086648	 0.161881
H	-0.6688466123	-2.0483553953	 1.83643317	 0.12355
H	-1.3015068928	 0.2214319779	 1.8655432452	 0.238236
H	-1.3879447067	 0.3423624962	-2.5924585006	 0.171629
H	-3.1616954405	 0.1311287695	-2.7137016686	 0.14082
H	-2.4445546255	 1.1798705323	-1.4511566786	 0.137832
40.203	79.9865	136.7463	140.5842	187.0695	217.0811	267.4502	304.978	361.3019	414.3051	478.3413	552.4931	598.0151	627.5592	638.7955	816.0805	848.1798	906.4517	943.7672	970.2603	1008.8832	1013.0805	1052.5117	1062.6271	1113.3106	1163.2322	1189.294	1265.2848	1334.852	1348.8022	1377.3681	1389.5631	1463.8241	1468.9769	1473.244	1478.0675	1502.9749	1780.398	1818.1665	3036.8727	3045.7222	3102.9402	3119.0384	3125.2302	3153.0282	3158.593	3223.1036	3492.9242
CC(=O)C1(CN1)C(C)=O	CC(=O)C1(CN1)C(=O)C	
InChI=1S/C6H9NO2/c1-4(8)6(3-7-6)5(2)9/h7H,3H2,1-2H3	InChI=1S/C6H9NO2/c1-4(8)6(3-7-6)5(2)9/h7H,3H2,1-2H3
