17
gdb 51608	2.83913	1.16964	0.92831	4.244	70.5	-0.243	0.0052	0.2482	1243.7314	0.136341	-455.175569	-455.166705	-455.165761	-455.210202	31.565	
O	 0.4135874527	 1.4709678788	 1.4358237065	-0.334357
C	 0.2969224966	 1.8223653636	 0.2775791438	 0.15793
N	 1.2683191599	 1.7709338125	-0.6700568872	-0.274978
C	 2.5435651123	 1.129341442	-0.5166951731	-0.012149
C	 3.7868237387	 1.9141474146	-0.855716141	-0.30498
C	 3.4984629981	 1.5572904315	 0.5754399063	 0.046261
N	 3.0957614268	 2.5741260714	 1.4896325197	-0.287027
C	 3.8932185682	 3.6192767071	 1.8412989726	 0.149284
O	 4.9918482282	 3.8528728716	 1.384819369	-0.327011
H	-0.6410090588	 2.2530749482	-0.1235963064	 0.089263
H	 1.016251892	 2.0785138185	-1.597592104	 0.256046
H	 2.540520599	 0.0662599183	-0.7454084388	 0.113601
H	 4.600624207	 1.4084162102	-1.3606894377	 0.12923
H	 3.6521715718	 2.9543743806	-1.1253502088	 0.13869
H	 4.091757005	 0.7524690773	 1.0038613232	 0.113278
H	 2.2182466154	 2.4174269409	 1.9693595102	 0.27285
H	 3.404996457	 4.2582691527	 2.6047031259	 0.07407
37.4919	90.7294	149.7264	177.908	235.5338	244.2955	303.7037	349.4911	482.3624	541.7239	577.6757	679.8235	747.8932	780.2311	826.9808	872.362	913.442	1025.8758	1035.5606	1037.1217	1039.4841	1068.0099	1107.9824	1133.4372	1147.3677	1189.9486	1255.8288	1302.2068	1382.0166	1415.5726	1431.5497	1433.2528	1480.3663	1513.1902	1524.4598	1793.8352	1807.0342	2930.4589	2949.2453	3121.0982	3131.8648	3154.588	3246.3627	3567.9754	3609.6209
O=CNC1CC1NC=O	O=CN[C@H]1C[C@H]1NC=O	
InChI=1S/C5H8N2O2/c8-2-6-4-1-5(4)7-3-9/h2-5H,1H2,(H,6,8)(H,7,9)	InChI=1S/C5H8N2O2/c8-2-6-4-1-5(4)7-3-9/h2-5H,1H2,(H,6,8)(H,7,9)/t4-,5+
