18
gdb 104936	2.85769	0.86281	0.71644	2.2289	96.22	-0.235	-0.0153	0.2196	1594.1435	0.145486	-364.734788	-364.725115	-364.72417	-364.769634	35.583	
C	-0.3680413264	 1.4432604167	-0.0177576526	-0.380124
C	 0.1743083325	 0.0129267314	 0.070946305	-0.258326
C	 0.7923395308	-0.4797377234	-1.2343746041	 0.005543
C	 0.6670109787	-1.9286407102	-1.5898686676	-0.270302
N	-0.1100819526	-0.9294152919	-2.3292047504	-0.325171
C	 1.9604035924	 0.2410271175	-1.6709780853	 0.484144
C	 2.9559192805	 0.8520855735	-1.9909629063	-0.231295
C	 4.0742268523	 1.5317207453	-2.3614515124	 0.293568
C	 5.0678915047	 2.1358090912	-2.6879626648	-0.578411
H	 0.4286972805	 2.1466831608	-0.2759360026	 0.139206
H	-1.1469411166	 1.5267960393	-0.7827961289	 0.119753
H	-0.7995150155	 1.753705202	 0.9381849232	 0.117004
H	 0.928788151	-0.0502302467	 0.8637472967	 0.115959
H	-0.6303679844	-0.6797451935	 0.3483091945	 0.094237
H	 1.4551731409	-2.4074339961	-2.1623011927	 0.132609
H	 0.1631320439	-2.571406954	-0.8720293243	 0.117396
H	-1.0683725961	-0.9104502093	-1.9848936519	 0.233782
H	 5.9405161933	 2.6656350675	-2.9789897555	 0.190429
65.6828	93.3074	111.293	201.5991	218.9413	256.6753	262.1731	337.9471	415.2942	493.4681	510.9284	537.4536	558.9702	578.9688	608.0121	610.6792	768.7005	827.7575	841.375	920.2588	970.9394	987.8385	1030.7105	1096.6909	1101.0752	1123.9558	1151.8764	1248.47	1278.2269	1300.4335	1363.7959	1393.634	1414.0117	1477.0557	1497.0705	1504.0917	1506.344	2180.6763	2356.3488	3023.9496	3040.6002	3064.6039	3108.3932	3109.6408	3119.4742	3202.3006	3483.7625	3505.5572
CCC1(CN1)C#CC#C	CC[C@]1(CN1)C#CC#C	
InChI=1S/C8H9N/c1-3-5-6-8(4-2)7-9-8/h1,9H,4,7H2,2H3	InChI=1S/C8H9N/c1-3-5-6-8(4-2)7-9-8/h1,9H,4,7H2,2H3/t8-/m1/s1
