19
gdb 98435	3.0203	1.08079	0.96802	2.7987	71.64	-0.2586	-0.0346	0.224	1278.3619	0.157062	-460.150983	-460.141418	-460.140474	-460.186736	34.125	
C	-0.0671126701	 1.5755021411	-0.0173653084	-0.485401
C	-0.0271953335	 0.0475454262	 0.0087774008	 0.168358
C	 1.1438078624	-0.577774216	-0.8208132806	-0.100852
O	 1.8013737851	-1.0392354073	 0.3646131564	-0.265766
C	 0.7242530374	-0.5771180184	 1.2083814238	-0.11163
C	-1.3586090376	-0.6052925133	-0.3138413139	 0.300845
O	-1.7540701781	-1.6031701606	 0.2540452305	-0.32802
C	-2.2131844377	-0.0272271974	-1.4384951942	-0.139179
O	-3.3066888257	-0.8472570513	-1.7144676928	-0.4197
H	 0.9232348878	 1.9754130944	 0.2191730978	 0.135767
H	-0.3515058776	 1.9605063784	-1.0015193817	 0.132174
H	-0.7735351114	 1.9711550288	 0.7201372528	 0.132156
H	 0.8627847759	-1.4032050427	-1.4877779326	 0.111891
H	 1.7430717366	 0.1508812034	-1.3815765712	 0.106467
H	 1.071490857	 0.1387206336	 1.9624125002	 0.100965
H	 0.19323735	-1.4036495005	 1.6886958002	 0.129496
H	-2.5354112105	 0.9839046388	-1.1377099308	 0.120493
H	-1.5808911589	 0.107564858	-2.3319110895	 0.116959
H	-3.265680291	-1.5528315852	-1.0484401468	 0.294975
27.5429	56.1994	110.4504	201.2329	209.097	259.8914	316.2367	338.304	360.5334	420.1687	441.2144	541.4677	571.2692	760.6325	833.2017	868.9033	905.0017	950.1213	958.9357	1005.4474	1022.1358	1046.1063	1056.3477	1149.396	1157.3897	1162.31	1172.5133	1239.9673	1256.3325	1284.9463	1313.2908	1328.9435	1373.1025	1417.4294	1452.4282	1487.6251	1494.9392	1499.6477	1510.6418	1531.9446	1782.2523	2969.7739	2985.1708	3003.8693	3030.8295	3036.1029	3050.5272	3096.7921	3104.8139	3110.7686	3678.125
CC1(COC1)C(=O)CO	CC1(COC1)C(=O)CO	
InChI=1S/C6H10O3/c1-6(3-9-4-6)5(8)2-7/h7H,2-4H2,1H3	InChI=1S/C6H10O3/c1-6(3-9-4-6)5(8)2-7/h7H,2-4H2,1H3
