21
gdb 71114	2.85701	1.82833	1.57816	0.4438	85.43	-0.2203	0.0274	0.2477	962.683	0.185929	-349.98158	-349.97456	-349.973616	-350.012198	30.693	
C	-0.0502123092	 1.5089102538	 0.0112777616	-0.476696
C	-0.0129238417	-0.0146850695	-0.0017137137	 0.237629
C	 0.7847143007	-0.6212937603	-1.2008022668	-0.235202
C	 1.0377139561	-2.0486248157	-0.7551818517	-0.06602
C	 1.0132031422	-2.0620500836	 0.749170465	-0.06602
C	 0.7454075975	-0.6428234748	 1.2117074739	-0.235202
C	-0.1451878428	-2.6973727473	-0.0278092711	-0.08205
C	-1.4356388077	-1.9764279828	-0.0424009866	-0.067834
C	-1.3905671311	-0.6408697506	-0.0297480675	-0.113412
H	 0.9601583824	 1.9310399858	 0.031487344	 0.107997
H	-0.5592520876	 1.8980063774	-0.8776410985	 0.11292
H	-0.5880162037	 1.8822292251	 0.8899665784	 0.11292
H	 0.227688696	-0.5432058241	-2.140268418	 0.094287
H	 1.7387754626	-0.093478771	-1.3229583923	 0.091078
H	 1.6972736498	-2.6892388392	-1.3288320055	 0.079928
H	 1.6539116722	-2.7129898861	 1.3324797894	 0.079928
H	 1.6948295215	-0.1175491391	 1.3742760243	 0.091078
H	 0.1580507277	-0.5813471681	 2.1337727896	 0.094287
H	-0.1723344116	-3.7809188415	-0.0379216601	 0.077208
H	-2.3648997677	-2.536440039	-0.0625401606	 0.085725
H	-2.2770258254	-0.0145694797	-0.0386024241	 0.077448
228.5415	276.2844	283.5656	349.8777	396.8409	403.7194	500.9363	552.257	585.7593	699.7732	702.8128	738.3589	783.6318	794.553	829.9941	875.7098	918.7087	924.5751	940.649	967.9096	974.2789	1011.8053	1020.854	1028.108	1030.1109	1092.7257	1127.248	1143.7934	1158.0984	1164.1039	1195.5215	1198.6335	1281.8349	1284.4312	1303.1033	1322.0533	1347.4433	1400.1653	1411.8488	1417.3902	1477.8164	1491.4528	1493.5523	1502.8404	1680.308	3023.193	3024.3987	3030.0131	3075.4535	3076.6841	3090.0251	3095.721	3162.6294	3171.7946	3172.6892	3184.6614	3192.2342
CC12CC3C(C1)C3C=C2	C[C@@]12C[C@H]3[C@@H](C1)[C@H]3C=C2	
InChI=1S/C9H12/c1-9-3-2-6-7(4-9)8(6)5-9/h2-3,6-8H,4-5H2,1H3	InChI=1S/C9H12/c1-9-3-2-6-7(4-9)8(6)5-9/h2-3,6-8H,4-5H2,1H3/t6-,7+,8-,9+
