23
gdb 120658	2.79308	1.02548	0.87264	1.0299	87.37	-0.2314	0.0777	0.3091	1465.7018	0.204642	-388.258762	-388.249049	-388.248105	-388.293903	36.209	
C	-0.0530817608	 1.3772084427	 0.2558381643	-0.387326
C	-0.1809089556	-0.1165221445	 0.4997137112	-0.034719
O	 1.0903353565	-0.6174891859	 0.8850348782	-0.244251
C	 1.0820576123	-1.9844355332	 1.1495183438	 0.067981
C	 2.2450779148	-2.5283934085	 1.9219055608	-0.403805
C	 0.8804476676	-2.47636763	 2.5596461434	 0.338467
C	 0.4216466316	-1.6068792298	 3.7356095528	-0.283618
C	-0.7518978138	-2.60945751	 3.9521676996	-0.201821
C	-0.0463560869	-3.6179827533	 2.995650862	-0.293296
H	 0.6852519383	 1.5755271899	-0.5262644446	 0.127911
H	-1.0138085569	 1.7966793658	-0.0574776714	 0.113848
H	 0.2689991059	 1.8893209263	 1.1671225339	 0.12637
H	-0.926482091	-0.3227623217	 1.283076914	 0.089483
H	-0.5227278261	-0.6303855349	-0.4140780975	 0.087065
H	 0.673291612	-2.5955404506	 0.3406795459	 0.075352
H	 2.6571936931	-3.4886931377	 1.6274828481	 0.108803
H	 2.9768306682	-1.8032753613	 2.2645934701	 0.12026
H	 1.1351496115	-1.6111592756	 4.5660460682	 0.098827
H	 0.1644873053	-0.5689843029	 3.5098099456	 0.103867
H	-0.9286454746	-2.9458421027	 4.9759510534	 0.096716
H	-1.695423148	-2.2401455211	 3.5422472204	 0.101599
H	-0.661849669	-4.0825451578	 2.2191854557	 0.093496
H	 0.4821227557	-4.4097996631	 3.537073282	 0.09879
62.5293	83.0296	117.0411	125.6077	197.0063	247.5779	269.7152	314.4533	401.3457	445.9803	509.7335	593.6269	711.9391	781.4624	805.8385	822.1518	852.6904	876.5857	897.4682	921.5554	932.9896	957.0875	1027.4359	1043.3785	1073.6257	1082.6953	1118.306	1140.2266	1158.7525	1183.1383	1190.3991	1201.4943	1220.2888	1226.6062	1252.9596	1271.1416	1281.263	1294.1252	1338.4295	1387.5166	1407.6565	1437.6936	1477.6148	1480.2135	1483.2847	1489.7341	1500.2902	1506.9973	1529.5553	2965.8945	2998.0165	3038.2262	3044.6122	3047.989	3063.5605	3065.403	3083.4805	3097.4874	3118.6841	3119.6736	3121.2855	3121.3694	3209.4706
CCOC1CC11CCC1	CCO[C@H]1CC21CCC2	
InChI=1S/C8H14O/c1-2-9-7-6-8(7)4-3-5-8/h7H,2-6H2,1H3	InChI=1S/C8H14O/c1-2-9-7-6-8(7)4-3-5-8/h7H,2-6H2,1H3/t7-/m0/s1
