14
gdb 130044	3.42216	1.60159	1.09936	3.6729	69.81	-0.2362	-0.0327	0.2035	1009.6227	0.104065	-432.867438	-432.860762	-432.859818	-432.89834	26.318	
N	-0.0355194968	 1.3725471889	 0.132327469	-0.572838
C	 0.0016034998	 0.0046736035	 0.0335486131	 0.258925
N	-1.0580278158	-0.7356951473	 0.0167868301	-0.318348
C	-0.6716940241	-2.1564275571	-0.0080223663	-0.277572
C	 0.8353659342	-2.1327608267	-0.0266948348	 0.352846
N	 1.828506161	-2.9729937521	-0.0532079679	-0.245449
O	 2.9720807192	-2.1423612605	-0.0380384231	-0.170554
C	 2.5970426965	-0.8475247379	-0.001162288	-0.111205
C	 1.2434994671	-0.7738476273	 0.0059384887	 0.126699
H	 0.7302199273	 1.8800189567	-0.2817377687	 0.255542
H	-0.9449151034	 1.7754537554	-0.0429939426	 0.26223
H	-1.068503349	-2.6785114779	 0.8706646653	 0.142045
H	-1.0965999943	-2.6499422924	-0.8896627609	 0.140748
H	 3.4066699085	-0.1347820953	 0.018999056	 0.156931
190.8421	224.0902	281.4729	293.3005	393.1124	516.7116	548.5898	589.8864	625.077	644.7414	653.59	758.9808	796.556	829.6033	850.1793	963.43	963.9303	982.4282	1102.413	1120.2423	1163.559	1182.562	1268.093	1287.264	1396.6117	1416.7422	1466.8278	1566.8688	1617.2529	1667.7145	1677.7045	3040.4414	3069.1496	3265.0629	3574.8729	3689.1324
NC1=NCC2=NOC=C12	NC1=NCc2nocc12	
InChI=1S/C5H5N3O/c6-5-3-2-9-8-4(3)1-7-5/h2H,1H2,(H2,6,7)	InChI=1S/C5H5N3O/c6-5-3-2-9-8-4(3)1-7-5/h2H,1H2,(H2,6,7)
