15
gdb 24267	4.02256	1.59682	1.24303	3.2968	70.35	-0.2143	0.0163	0.2306	951.4091	0.116403	-416.820579	-416.814351	-416.813407	-416.85108	25.178	
C	-0.05786279	 1.5093521045	-0.0072814137	-0.380765
C	 1.4390448387	 1.8773443586	-0.0136232502	 0.063409
O	 2.1928889014	 1.444095205	 1.1208975026	-0.251943
C	 2.2791209875	 0.6550585955	-0.0909277028	-0.145838
C	 1.2989910771	-0.4452732145	-0.1156428453	 0.328759
C	 0.0102870238	 0.0041375172	-0.0334596128	 0.27244
N	-0.8767735805	-1.0297393751	 0.083006681	-0.338342
C	-0.1171724929	-2.109161666	 0.0584463376	-0.011641
N	 1.2200223297	-1.8135428988	-0.0484757551	-0.385568
H	-0.554880358	 1.9009694544	 0.8867088993	 0.134359
H	-0.5651503092	 1.9387403378	-0.8793620278	 0.116564
H	 1.7572511352	 2.825375239	-0.4396909606	 0.098415
H	 3.2580231001	 0.6229023064	-0.5583359612	 0.100655
H	-0.4702537322	-3.1290156942	 0.0957772912	 0.130494
H	 1.9740551794	-2.4790315497	-0.0728379824	 0.269001
150.4749	242.6114	351.3153	429.1351	459.6671	511.8062	612.0868	668.1116	709.7652	727.7954	775.9078	796.5032	849.1479	851.2922	893.5225	966.2876	984.2243	1020.0804	1082.8219	1095.236	1142.5678	1178.6664	1238.639	1241.7124	1273.9476	1306.823	1349.5499	1380.7141	1409.9064	1456.0434	1470.1029	1521.5958	1595.4269	3038.3803	3079.9476	3146.0237	3167.2722	3251.6611	3668.4174
C1C2OC2C2=C1N=CN2	C1[C@H]2O[C@H]2c2c1nc[nH]2	
InChI=1S/C6H6N2O/c1-3-5(8-2-7-3)6-4(1)9-6/h2,4,6H,1H2,(H,7,8)	InChI=1S/C6H6N2O/c1-3-5(8-2-7-3)6-4(1)9-6/h2,4,6H,1H2,(H,7,8)/t4-,6-/m1/s1
