15
gdb 56135	3.77638	0.8029	0.68086	3.1004	64.76	-0.257	-0.1071	0.1499	1545.6291	0.11043	-491.135493	-491.125967	-491.125023	-491.171477	32.699	
N	 0.047455223	 1.2378270342	 0.1260660826	-0.562498
C	 0.0344141363	-0.1075599981	-0.2025535541	 0.455305
O	 1.0442785819	-0.7765196244	-0.3147648902	-0.383178
N	-1.2382417556	-0.6251365029	-0.3708689997	-0.358197
C	-1.3932157854	-2.0534799202	-0.4778968274	-0.239819
C	-2.6121793171	-2.5153178863	 0.2791898587	 0.275542
O	-3.3485417752	-1.775033418	 0.8924267374	-0.285919
C	-2.93564449	-4.0121184081	 0.2391532024	 0.094345
O	-2.2934832021	-4.8074692134	-0.392897321	-0.208831
H	 0.9597194136	 1.6569278557	 0.0318257001	 0.263986
H	-0.7126182558	 1.8122904009	-0.2050705705	 0.252719
H	-2.0024124711	-0.1652619659	 0.1065323539	 0.252609
H	-1.4950142789	-2.3957795649	-1.5186698157	 0.150412
H	-0.4993524004	-2.5646428213	-0.0971034955	 0.177657
H	-3.8239916933	-4.2785563474	 0.8485799588	 0.115865
38.3064	53.6141	100.4287	139.1761	188.6569	241.1545	285.3183	409.7859	440.8523	461.1351	510.767	516.9153	561.5978	643.1369	689.0603	774.0203	831.2063	873.9864	995.9049	1062.7429	1101.0719	1164.6446	1203.0696	1228.3621	1309.8276	1366.0539	1391.6485	1465.3472	1521.8888	1625.5467	1794.6904	1807.611	1826.237	2934.033	3008.0996	3052.1767	3576.882	3582.6397	3695.6499
NC(=O)NCC(=O)C=O	NC(=O)NCC(=O)C=O	
InChI=1S/C4H6N2O3/c5-4(9)6-1-3(8)2-7/h2H,1H2,(H3,5,6,9)	InChI=1S/C4H6N2O3/c5-4(9)6-1-3(8)2-7/h2H,1H2,(H3,5,6,9)
