20
gdb 77084	2.96097	1.11779	0.99664	4.3287	75.92	-0.2288	-0.0202	0.2087	1274.5353	0.168008	-440.271713	-440.26171	-440.260765	-440.306592	36.799	
C	-0.9827850294	 1.4493064996	 0.3440278841	-0.434166
C	-0.2257733578	 0.1518859135	 0.094561959	 0.306127
C	-1.1654477229	-1.0035146721	-0.2527832088	-0.446803
N	 0.9008920085	 0.3188145928	-0.8716202773	-0.358637
C	 1.8555328392	-0.372307407	 0.01698594	-0.08719
C	 3.1657087218	 0.372067275	 0.2135477416	 0.175007
O	 4.2057258127	-0.1657362558	 0.4917160139	-0.254559
C	 0.8325788692	-0.25618638	 1.1840224363	 0.061369
O	 1.2274182324	 0.7423883998	 2.0951162276	-0.417843
H	-0.2916488002	 2.2407673312	 0.638513595	 0.133165
H	-1.5000103399	 1.7647066885	-0.5684227542	 0.116612
H	-1.7384701736	 1.3267206666	 1.1293263718	 0.100698
H	-1.7168037294	-0.7893651472	-1.1755797824	 0.119365
H	-0.6138469724	-1.9388816066	-0.3987621525	 0.116678
H	-1.9020248257	-1.1684673341	 0.5415783146	 0.117401
H	 0.7621323453	-0.1136731634	-1.7788244137	 0.215208
H	 2.0859691427	-1.4158636519	-0.2285853355	 0.084806
H	 3.0797348722	 1.4691548839	 0.0654264293	 0.087352
H	 0.6128901382	-1.1998588885	 1.6976566703	 0.0743
H	 0.5641818891	 0.8082415457	 2.7889660011	 0.291112
61.9133	73.3022	190.8481	214.9942	231.6092	240.9851	252.7941	285.2158	315.6728	361.8686	386.1914	472.4512	505.3085	553.803	641.2354	738.3021	849.4166	876.7195	940.6338	947.3835	978.9001	983.0099	1002.4021	1041.6107	1099.3992	1136.2358	1167.2685	1205.6863	1215.5632	1251.4165	1283.1683	1292.6851	1327.3255	1381.699	1398.0534	1405.9222	1412.6438	1427.9628	1480.8874	1481.5078	1500.4326	1505.8871	1831.7053	2916.502	3020.2661	3023.1677	3030.124	3040.0427	3088.2893	3093.2957	3095.1835	3137.516	3524.2608	3826.1153
CC1(C)NC(C=O)C1O	CC1(C)N[C@@H](C=O)[C@H]1O	
InChI=1S/C6H11NO2/c1-6(2)5(9)4(3-8)7-6/h3-5,7,9H,1-2H3	InChI=1S/C6H11NO2/c1-6(2)5(9)4(3-8)7-6/h3-5,7,9H,1-2H3/t4-,5+/m0/s1
