16
gdb 44594	3.35441	1.78994	1.40107	3.9963	74.49	-0.2223	-0.036	0.1863	910.9831	0.126904	-400.723015	-400.7165	-400.715556	-400.753648	26.661	
O	 0.228872567	 0.0283660941	 0.3468681416	-0.359515
C	 0.1446378089	 1.1449870474	-0.0916050069	 0.376613
N	-0.9966776086	 1.9619587549	-0.0579550737	-0.333165
C	-0.7926841099	 3.2694102552	-0.6433862689	 0.003794
C	 0.3660594812	 4.3286036666	-0.3948630307	-0.067289
C	 1.5402943838	 4.1967414733	 0.5795059631	-0.272084
C	 1.8570494477	 2.7140470213	 0.4556682321	-0.071248
C	 1.1802466767	 2.1537097131	-0.5661596237	-0.050571
C	 0.4820872639	 3.2131337625	-1.3953119595	-0.127812
H	-1.7001727156	 1.7669674192	 0.6376603279	 0.251991
H	-1.6825724621	 3.7061833869	-1.0851737206	 0.107271
H	 0.0712466441	 5.3232456431	-0.7186838708	 0.087196
H	 2.3546963252	 4.8866649325	 0.3132549692	 0.116248
H	 1.2818490832	 4.41324359	 1.6243182231	 0.119454
H	 2.2480408558	 2.1422605152	 1.2915042983	 0.12319
H	 0.5977367188	 3.2819276847	-2.4714231104	 0.095928
151.2517	230.3892	319.406	365.9403	440.0775	476.4421	609.1496	666.3547	687.9493	735.3527	761.1437	778.8379	829.4749	864.3747	873.7779	915.7185	962.5865	992.8359	1003.7955	1036.3248	1050.4479	1074.634	1117.9187	1152.1901	1174.9012	1200.0651	1248.6615	1296.7558	1314.6233	1352.4928	1357.7762	1415.1632	1474.1544	1600.4769	1847.6039	2996.0933	3039.127	3148.2219	3157.7647	3169.1413	3184.9612	3629.9889
O=C1NC2C3CC=C1C23	O=C1N[C@H]2[C@H]3C[CH][C]1[C@@H]23	
InChI=1S/C7H7NO/c9-7-4-2-1-3-5(4)6(3)8-7/h2-3,5-6H,1H2,(H,8,9)	InChI=1S/C7H7NO/c9-7-4-2-1-3-5(4)6(3)8-7/h2-3,5-6H,1H2,(H,8,9)/t3-,5-,6-/m0/s1
