18
gdb 80960	2.39523	1.4242	1.24336	3.7836	73.31	-0.2414	-0.0389	0.2025	1093.7735	0.146532	-439.023904	-439.015356	-439.014412	-439.057209	32.179	
C	 0.5508884669	 1.1995731666	 0.2982296045	-0.51923
C	 0.1671198294	-0.2415067057	 0.1435718109	 0.255624
N	 0.6815103907	-1.1050684528	-1.003948462	-0.392095
C	-0.2289122497	-2.0213942231	-0.1927443714	-0.091872
C	 0.5238576808	-1.4662077685	 1.0547504875	 0.171982
O	 1.8644710393	-1.7770259768	 1.2224827434	-0.449687
C	-1.2675468134	-0.88129709	-0.0598781503	-0.118774
C	-2.3066810824	-0.836660231	 1.0266404653	 0.123074
O	-2.4012749727	-1.6159503695	 1.943435927	-0.247891
H	 1.6360252675	 1.2792519843	 0.417539505	 0.143489
H	 0.2552017172	 1.7932809536	-0.5732708998	 0.123115
H	 0.0781114505	 1.6329201708	 1.1851080772	 0.133425
H	 0.2271578774	-0.8368379467	-1.8816609523	 0.209433
H	-0.4059623799	-3.0564368292	-0.4842842543	 0.093599
H	 0.0165412187	-1.5490917194	 2.0120284386	 0.116038
H	 2.2504058361	-1.7127723712	 0.335679492	 0.289635
H	-1.7136698648	-0.5616183335	-1.009541766	 0.081077
H	-3.0248276516	 0.010943082	 0.9286610546	 0.079054
67.3189	159.6988	178.1084	192.286	221.4387	282.9345	354.1005	409.6036	469.1831	603.8057	625.5308	644.1887	701.5544	761.0512	788.1691	859.7263	872.1507	931.7126	947.6632	1006.2454	1021.9076	1069.6314	1096.1504	1115.4076	1147.9816	1181.5339	1183.7051	1211.5812	1247.4251	1263.9763	1317.4036	1340.1201	1389.5181	1409.8362	1427.7874	1473.502	1482.8265	1485.0844	1815.169	2855.7503	3034.2552	3041.1447	3103.8226	3112.6152	3123.5909	3172.8464	3398.0529	3721.0378
CC12NC(C1O)C2C=O	C[C@@]12N[C@@H]([C@H]1O)[C@H]2C=O	
InChI=1S/C6H9NO2/c1-6-3(2-8)4(7-6)5(6)9/h2-5,7,9H,1H3	InChI=1S/C6H9NO2/c1-6-3(2-8)4(7-6)5(6)9/h2-5,7,9H,1H3/t3-,4-,5-,6+/m1/s1
